ITEM: TIMESTEP
60900
ITEM: NUMBER OF ATOMS
5600
ITEM: BOX BOUNDS xy xz yz pp pp pp
0.0000000000000000e+00 7.1234999999999999e+00 0.0000000000000000e+00
0.0000000000000000e+00 2.0198500000000001e+02 2.3744999999999998e+00
0.0000000000000000e+00 1.1958400000000000e+02 0.0000000000000000e+00
ITEM: ATOMS id type element xu yu zu q c_pe c_s[1] c_s[2] c_s[3] c_s[4] c_s[5] c_s[6]
1 1 Mg -1.74496 48.5722 -1.20674 1.2 -6.42296 -783784 -2.03916e+06 1.52214e+06 1.35874e+06 -1.05269e+06 1.3199e+06
2 1 Mg 3.0046 50.0461 2.2351 1.2 -6.97821 -5.43629e+06 2.21373e+06 -1.02495e+06 -373144 1.53312e+06 -1.24443e+06
3 2 Si 0.804357 50.2681 0.30213 2.4 -32.2314 4.96864e+06 8.38865e+06 3.1544e+06 -42393.1 -330821 -659472
4 3 O 1.8645 49.1961 0.683087 -1.2 -8.9822 -6.55378e+06 -3.59575e+06 -1.36946e+06 1.21056e+06 -1.55477e+06 1.4026e+06
5 3 O -1.08407 52.9077 1.45109 -1.2 -9.84334 -1.794e+06 -6.21475e+06 -1.50252e+06 -2.01834e+06 -1.11726e+06 536232
6 3 O -0.017478 49.5605 -0.763968 -1.2 -9.53846 -4.26329e+06 -1.98744e+06 -7.04729e+06 1.62798e+06 -2.49878e+06 1.00582e+06
7 1 Mg -2.32456 58.9163 2.92325 1.2 -7.43808 -1.46115e+06 5.34012e+06 -819502 -877597 1.1587e+06 1.71428e+06
8 3 O 0.00739615 50.2529 1.64223 -1.2 -9.73394 -5.35006e+06 -4.46407e+06 -3.93147e+06 1.40388e+06 1.80174e+06 -2.62448e+06
9 1 Mg -2.24794 55.9466 4.46073 1.2 -7.91045 -569857 1.82899e+06 1.82529e+06 -365223 303659 10437.5
10 2 Si 0.275271 57.7008 4.30702 2.4 -32.5205 8.08668e+06 1.09314e+07 7.97892e+06 311026 104769 605187
11 3 O -1.3457 57.7576 4.32197 -1.2 -9.61911 -508168 -4.54825e+06 -3.72961e+06 -1.77294e+06 -590323 -625412
12 3 O 2.11588 53.3322 4.78822 -1.2 -9.46173 -3.91493e+06 -4.34967e+06 -1.17273e+06 -1.63686e+06 414100 -487573
13 3 O 1.10267 56.9598 3.20576 -1.2 -9.32298 -3.66985e+06 -2.96666e+06 -2.2151e+06 -1.03395e+06 -1.44811e+06 -1.17421e+06
14 3 O 1.02538 57.2404 5.68971 -1.2 -9.24601 -3.10056e+06 -3.03625e+06 -2.35036e+06 -725351 1.90995e+06 541013
15 1 Mg 0.363795 52.248 2.57085 1.2 -7.09071 -972148 3.10598e+06 -192246 1.2516e+06 249736 -163614
16 1 Mg 1.07444 48.9104 3.06272 1.2 -6.94209 2.12465e+06 1.79069e+06 618990 -1.61767e+06 571572 636979
17 2 Si 2.77018 51.9198 4.58567 2.4 -32.3953 7.42737e+06 1.10313e+07 5.68954e+06 -747839 1.59272e+06 -1.6483e+06
18 3 O -0.426382 52.1187 4.44737 -1.2 -9.72255 -2.22757e+06 -4.01323e+06 -98720 1.39701e+06 228576 1.17587e+06
19 3 O 3.01895 48.4394 3.40436 -1.2 -7.6104 1.69856e+06 -237154 -641300 -800374 946615 -1.10996e+06
20 3 O 2.10382 51.3274 3.23165 -1.2 -9.94572 -2.53539e+06 -5.47497e+06 -1.96616e+06 475329 2.55741e+06 -534003
21 1 Mg 0.121644 53.7768 -0.0339429 1.2 -6.35939 -2.64514e+06 2.39539e+06 -587899 1.00947e+06 2.62398e+06 16188
22 3 O 2.45252 50.8547 5.89821 -1.2 -10.4404 -3.64813e+06 -2.58863e+06 158174 2.02198e+06 -674919 -954409
23 1 Mg 0.406908 56.1178 1.3918 1.2 -7.71396 1.40046e+06 1.22692e+06 493362 -819336 748818 -895327
24 2 Si -1.81048 54.2764 1.83089 2.4 -32.1992 5.20215e+06 1.29393e+07 7.72666e+06 1.32848e+06 236558 686253
25 3 O 1.34542 54.195 1.79478 -1.2 -10.0345 -238585 -2.30982e+06 -1.59716e+06 375804 1.24331e+06 -1.81185e+06
26 3 O -0.969332 58.3427 1.46077 -1.2 -9.16783 -1.25188e+06 -6.25669e+06 -1.75513e+06 -90470.8 630815 441385
27 3 O -1.16081 55.2065 0.433931 -1.2 -9.56896 327641 -4.28909e+06 -551218 134099 -1.92415e+06 -1.6483e+06
28 3 O -1.2142 55.1177 2.9969 -1.2 -9.08428 -2.62224e+06 -3.52787e+06 -2.23369e+06 486997 567741 763352
29 1 Mg -2.44982 58.8109 -0.0493252 1.2 -7.13076 -923416 4.11146e+06 -639092 -1.44848e+06 -1.61875e+06 -1.85802e+06
30 1 Mg 2.40733 61.4813 1.28326 1.2 -8.36983 907805 154207 2.6134e+06 1.56115e+06 -88679.4 720954
31 2 Si -0.304224 59.7905 1.49863 2.4 -33.0303 1.19941e+06 1.28613e+07 6.20252e+06 583204 1.30255e+06 277550
32 3 O 1.20404 59.7876 1.41486 -1.2 -9.84747 -4.18253e+06 -5.53701e+06 -3.51365e+06 -303917 480809 12331.2
33 3 O -1.33437 63.4675 1.46923 -1.2 -8.92386 -5.15168e+06 -4.30177e+06 -2.00358e+06 342328 290037 -277788
34 3 O -1.03144 60.4732 0.218549 -1.2 -9.12067 -2.9938e+06 -4.84081e+06 -2.62343e+06 683550 536439 -141638
35 1 Mg -2.3814 69.3729 3.11575 1.2 -8.06118 -2.79294e+06 3.23485e+06 -318461 -925308 1.24537e+06 2.0136e+06
36 3 O -0.918961 60.5583 2.70703 -1.2 -8.98781 -4.40681e+06 -4.77762e+06 -5.33976e+06 999917 -528532 -218083
37 1 Mg -2.35082 66.3619 4.52875 1.2 -8.35586 2.19844e+06 2.2812e+06 1.75598e+06 836913 -374060 1.36859e+06
38 2 Si 0.32669 68.4115 4.50702 2.4 -33.6558 5.09821e+06 1.04033e+07 7.64961e+06 -225912 538681 1.30986e+06
39 3 O -1.1254 68.6129 4.49497 -1.2 -9.15952 -7.15487e+06 -4.71527e+06 -4.54521e+06 -771330 -2.07897e+06 81195.5
40 3 O 1.33658 64.5381 4.5245 -1.2 -8.90661 -1.51026e+06 -2.41254e+06 -3.2632e+06 484251 915956 -362041
41 3 O 1.25195 67.7242 3.34858 -1.2 -9.08761 -1.98739e+06 -3.23206e+06 -3.17233e+06 -810943 -646907 -317858
42 3 O 0.927923 67.7716 5.83973 -1.2 -8.27174 -2.55824e+06 -4.91385e+06 -1.77002e+06 -705120 309005 456169
43 1 Mg -0.134981 63.7563 3.08713 1.2 -8.05385 924514 4.39721e+06 -1.97691e+06 1.47823e+06 -1.78512e+06 1.64778e+06
44 1 Mg -0.0151739 60.9583 4.38401 1.2 -8.3704 1.84691e+06 -1.26406e+06 664259 -593623 -549522 -925979
45 2 Si 1.88715 62.9479 4.57035 2.4 -33.8395 5.33841e+06 1.10655e+07 7.29672e+06 -1.64178e+06 -1.95208e+06 -3.36975e+06
46 3 O -1.2774 63.0259 4.47897 -1.2 -9.03192 -2.12945e+06 -4.33387e+06 -3.97498e+06 -37208.4 -1.11496e+06 1.23826e+06
47 3 O 0.862334 59.2934 4.21796 -1.2 -9.23674 -2.80791e+06 -5.73037e+06 -2.39045e+06 3.25993e+06 -5598.97 989547
48 3 O 1.38501 62.3014 3.32265 -1.2 -8.65722 -5.33748e+06 -4.61035e+06 -3.32249e+06 -1.41062e+06 -1.50678e+06 -207664
49 1 Mg 0.198139 64.0736 0.0276722 1.2 -7.85794 -925475 4.50395e+06 228098 1.01153e+06 1.92239e+06 -2.02582e+06
50 3 O 1.26878 62.2899 5.89661 -1.2 -8.9317 -3.314e+06 -2.35695e+06 -1.59539e+06 590801 -335485 992489
51 1 Mg -0.00111229 67.0292 1.73273 1.2 -8.22451 3.09114e+06 1.62807e+06 1.98583e+06 -939844 -413134 -433183
52 2 Si -1.90419 64.917 1.43031 2.4 -33.7181 7.88757e+06 1.12378e+07 7.85637e+06 1.52411e+06 -1.46876e+06 -1.40042e+06
53 3 O 1.27625 64.7596 1.57152 -1.2 -8.78624 -1.58653e+06 -4.60348e+06 -2.35607e+06 1.68744e+06 -1.33632e+06 135872
54 3 O -0.954078 68.8737 1.71109 -1.2 -9.19859 -3.28984e+06 -2.52059e+06 -1.98682e+06 348598 998280 45695.9
55 3 O -1.18967 65.6828 0.131312 -1.2 -9.03351 -2.39069e+06 -1.90182e+06 -292111 981256 -937050 292259
56 3 O -1.25201 65.7013 2.73668 -1.2 -8.85366 -3.74506e+06 -1.72203e+06 517270 452383 825324 545902
57 1 Mg -2.27548 69.1092 0.0316052 1.2 -7.70884 -935867 4.80277e+06 115191 -1.02879e+06 -1.079e+06 -2.07034e+06
58 1 Mg 2.38576 72.2373 1.68163 1.2 -8.36446 940284 1.00151e+06 2.97251e+06 1.25867e+06 322706 785704
59 2 Si -0.346491 70.4472 1.66057 2.4 -32.9289 7.46262e+06 1.07964e+07 7.28828e+06 69651.1 -1.99303e+06 -675696
60 3 O 1.2032 70.2537 1.65077 -1.2 -9.36469 -1.48998e+06 -3.79642e+06 -2.65144e+06 -1.30059e+06 -1.09572e+06 1.35294e+06
61 3 O -1.3049 73.9967 1.69827 -1.2 -9.06718 -2.98598e+06 -2.68662e+06 -2.9656e+06 -2.96836e+06 464206 325327
62 3 O -0.979981 71.1177 0.40532 -1.2 -9.13601 -4.85147e+06 -3.01426e+06 -2.23417e+06 -236088 804211 1.15043e+06
63 1 Mg -2.26978 79.7767 3.43096 1.2 -7.95416 -109311 4.67992e+06 -1.3828e+06 -1.27303e+06 1.31808e+06 3.10229e+06
64 3 O -1.12782 71.0672 2.98711 -1.2 -9.25062 -1.49806e+06 -4.98435e+06 -1.84677e+06 -282110 -1.32878e+06 152687
65 1 Mg -2.27062 76.8558 4.87747 1.2 -8.49974 1.32697e+06 -391872 2.30744e+06 1.41812e+06 -773087 503859
66 2 Si 0.478207 78.6134 4.86162 2.4 -32.9912 2.15991e+06 1.36539e+07 7.93723e+06 506730 -218373 2.52294e+06
67 3 O -0.989073 78.8969 4.80075 -1.2 -9.61966 -3.64463e+06 -5.40257e+06 -3.6619e+06 -447070 -692314 -1.15327e+06
68 3 O 1.38469 75.0946 4.62832 -1.2 -8.28424 -2.02896e+06 -3.27621e+06 -2.80963e+06 -1.45318e+06 111773 493538
69 3 O 1.20524 77.9112 3.58646 -1.2 -8.82995 -3.57895e+06 -2.97546e+06 -1.44982e+06 877321 -365961 1.0544e+06
70 3 O 1.0835 77.9461 6.09726 -1.2 -9.2006 -2.16577e+06 -5.46188e+06 -3.42194e+06 1.5922e+06 -210694 -874924
71 1 Mg 0.080532 74.4144 3.14673 1.2 -8.0754 -689264 2.71278e+06 -750757 1.13608e+06 -1.11094e+06 2.72389e+06
72 1 Mg 0.0193909 71.6215 4.55788 1.2 -8.08282 1.1658e+06 1.22857e+06 1.00582e+06 -655122 89373.7 -150495
73 2 Si 2.03565 73.4822 4.72691 2.4 -33.1919 6.36388e+06 1.20506e+07 7.3118e+06 -1.80852e+06 -953848 582437
74 3 O -1.13851 73.6343 4.67192 -1.2 -9.4524 -1.97328e+06 -4.25264e+06 -3.96155e+06 490553 -1.32255e+06 16769.3
75 3 O 1.03075 69.921 4.70241 -1.2 -8.84769 -4.36309e+06 -5.11247e+06 -2.73538e+06 1.19627e+06 474096 1.39769e+06
76 3 O 1.386 72.9101 3.39595 -1.2 -9.35226 -3.65711e+06 -5.51687e+06 -1.50901e+06 1.18458e+06 1.04182e+06 -1.43611e+06
77 1 Mg -0.00407537 74.3976 0.240774 1.2 -7.97263 -1.24929e+06 4.50024e+06 5520.87 710183 974996 -479543
78 3 O 1.25523 73.0194 5.99055 -1.2 -9.29888 -2.72606e+06 -4.93734e+06 -1.71481e+06 7942.87 -893388 822212
79 1 Mg 0.0676622 77.2613 1.92026 1.2 -8.75972 1.25422e+06 673742 2.35472e+06 -777239 162839 590459
80 2 Si -2.07499 75.5705 1.71252 2.4 -33.0247 8.36242e+06 1.19429e+07 1.01961e+07 -531445 -497454 1.36375e+06
81 3 O 1.08657 75.3889 1.70839 -1.2 -9.53845 -1.00092e+06 -4.42711e+06 -4.04654e+06 248930 -372371 164630
82 3 O -0.850871 79.1266 1.87668 -1.2 -8.86078 -5.19177e+06 -3.05598e+06 -2.82344e+06 1.54509e+06 252940 -237478
83 3 O -1.33041 76.1225 0.379676 -1.2 -9.02129 -2.5699e+06 -3.83355e+06 -214135 637884 -1.55998e+06 333935
84 3 O -1.35503 76.3178 2.9966 -1.2 -8.72691 -3.95662e+06 -3.11891e+06 -128986 1.04181e+06 2.40874e+06 815516
85 1 Mg -2.24503 79.4454 0.550706 1.2 -8.02008 -633665 3.3565e+06 -918561 -39023.2 -760796 -1.0303e+06
86 1 Mg 2.57725 82.6844 1.49812 1.2 -8.29428 930821 1.02756e+06 497319 1.5657e+06 -1.99449e+06 2.25031e+06
87 2 Si -0.210683 80.6622 1.91386 2.4 -33.4744 8.19244e+06 1.20396e+07 7.31195e+06 -16742.4 -76661.8 2.34982e+06
88 3 O 1.44238 80.4398 1.82539 -1.2 -9.02498 103251 -5.29778e+06 -3.11106e+06 -284499 -373180 -2.18581e+06
89 3 O -1.25464 84.5485 1.63759 -1.2 -9.06067 -1.90945e+06 -3.75145e+06 -2.28958e+06 -2.02774e+06 -473010 -2.3237e+06
90 3 O -0.747268 81.3797 0.585406 -1.2 -9.26176 -3.12984e+06 -2.15081e+06 -2.11464e+06 406698 1.10651e+06 -1.24222e+06
91 1 Mg -2.30422 90.058 2.94022 1.2 -7.36945 -1.90374e+06 3.28021e+06 -1.54451e+06 -1.25974e+06 2.47937e+06 2.19862e+06
92 3 O -0.763968 81.3525 3.19412 -1.2 -9.00141 -4.55312e+06 -3.51452e+06 -650865 167833 -965443 -64273.3
93 1 Mg -2.32544 87.2421 4.63338 1.2 -8.52409 1.65817e+06 2.13767e+06 517785 1.12693e+06 137690 1.31558e+06
94 2 Si 0.258812 89.2008 4.70521 2.4 -33.5172 3.83449e+06 1.39684e+07 5.78126e+06 1.05851e+06 -2.4497e+06 1.37408e+06
95 3 O -1.22087 89.1791 4.61754 -1.2 -9.29422 -4.56619e+06 -4.56179e+06 -3.12818e+06 -588326 -491995 -676587
96 3 O 1.45175 85.3243 4.48643 -1.2 -8.70099 -4.09811e+06 -4.58289e+06 -2.73014e+06 -1.39493e+06 -264639 -1.74407e+06
97 3 O 1.01034 88.7475 3.25469 -1.2 -9.00198 -2.67457e+06 -5.29815e+06 -781312 -808106 -1.3204e+06 -1.54673e+06
98 3 O 0.878122 88.4699 5.89582 -1.2 -9.0272 -5.68158e+06 -3.7984e+06 -2.27468e+06 999718 -348251 618720
99 1 Mg 0.123432 84.7907 3.10072 1.2 -8.15577 -112944 5.16888e+06 -1.37667e+06 -40960.1 -1.63447e+06 2.46026e+06
100 1 Mg -0.201141 82.0598 5.02493 1.2 -8.107 1.91355e+06 1.90297e+06 350136 -831493 344921 1.77031e+06
101 2 Si 2.19942 83.8773 4.75838 2.4 -33.3046 5.12978e+06 1.26578e+07 7.02884e+06 1.13906e+06 2.30139e+06 3.09959e+06
102 3 O -0.995474 84.1185 4.79984 -1.2 -9.59623 -3.00679e+06 -4.14326e+06 -2.58937e+06 74425.4 48060.1 -929835
103 3 O 1.20038 80.3056 4.95147 -1.2 -8.51514 -2.87849e+06 -163599 -1.95031e+06 815815 -97500.2 524179
104 3 O 1.60182 83.1419 3.31285 -1.2 -8.23148 -1.28468e+06 -5.13732e+06 2.15116e+06 -487597 1.64376e+06 -280817
105 1 Mg 0.122146 85.2156 0.0121221 1.2 -6.69971 -2.10148e+06 4.19312e+06 1.07098e+06 615046 1.1853e+06 -998434
106 3 O 1.59744 83.2713 5.983 -1.2 -9.58606 -2.47667e+06 -5.26726e+06 -3.58251e+06 -340392 31824.5 148600
107 1 Mg 0.105643 88.0392 1.6682 1.2 -8.09067 1.0851e+06 1.07871e+06 42178 -869845 305893 -303021
108 2 Si -1.95837 86.1043 1.77529 2.4 -33.2781 4.2705e+06 1.18161e+07 3.58261e+06 -1.24772e+06 -1.18101e+06 764939
109 3 O 1.2707 86.1122 1.79942 -1.2 -9.39949 -3.82896e+06 -3.72983e+06 -2.46955e+06 -112732 511784 -187457
110 3 O -1.04832 89.8179 1.59012 -1.2 -9.82606 -3.8388e+06 -3.79048e+06 -4.42242e+06 1.4699e+06 789442 -375572
111 3 O -1.36668 86.8406 0.531992 -1.2 -9.84341 -1.90519e+06 -3.84515e+06 -4.76884e+06 604187 -417243 1.29672e+06
112 3 O -1.30069 86.6541 3.01725 -1.2 -8.73465 -5.05305e+06 -4.20002e+06 -4.7029e+06 -783629 -424592 -1.7817e+06
113 1 Mg -2.42157 90.4769 0.243529 1.2 -7.20909 -2.11203e+06 4.38724e+06 -1.26008e+06 -860524 -1.4348e+06 -1.05056e+06
114 1 Mg 2.28623 93.3195 1.7358 1.2 -7.56456 1.67311e+06 2.0887e+06 994657 1.02323e+06 26027.6 -767201
115 2 Si -0.347758 91.326 1.70616 2.4 -32.3942 3.70115e+06 1.12581e+07 7.97933e+06 51973.8 904983 -290404
116 3 O 1.21031 91.3456 1.72212 -1.2 -9.77049 -875487 -4.16959e+06 -5.14483e+06 561360 389945 15677.5
117 3 O -1.46731 95.2529 1.6803 -1.2 -9.80765 -2.04981e+06 -7.61967e+06 -3.41083e+06 -543428 435047 2.76614e+06
118 3 O -0.999322 92.0597 0.404281 -1.2 -9.56365 -3.73199e+06 -3.35782e+06 -3.4892e+06 -548616 1.86923e+06 93389.6
119 1 Mg -2.28649 100.971 3.2221 1.2 -7.74441 -63460.4 3.7638e+06 -744495 -851544 1.75502e+06 805365
120 3 O -0.961907 92.0689 2.90579 -1.2 -9.44169 -3.91388e+06 -1.79885e+06 -4.22227e+06 -461861 -278967 51008.3
121 1 Mg -2.07497 97.9192 4.7993 1.2 -8.18971 2.96091e+06 1.51338e+06 1.34886e+06 1.0754e+06 81048.2 -1.12723e+06
122 2 Si 0.523557 99.9025 4.61811 2.4 -34.133 1.01575e+06 8.79441e+06 7.34868e+06 -987404 1.43858e+06 -385713
123 3 O -0.937404 99.8499 4.72564 -1.2 -9.05459 -7.24517e+06 -3.29158e+06 -3.79751e+06 -464639 113911 -38521.1
124 3 O 1.47632 96.0587 4.69264 -1.2 -9.0101 -2.46688e+06 -6.59019e+06 -2.19881e+06 -102754 215179 629668
125 3 O 1.06657 99.1894 3.32379 -1.2 -8.69462 -4.33729e+06 -3.92819e+06 -3.71803e+06 526840 240421 -123240
126 3 O 1.21957 99.212 5.89366 -1.2 -8.72438 -3.07189e+06 -4.43705e+06 -3.68254e+06 455461 367009 1.15009e+06
127 1 Mg 0.0244059 95.8524 3.15013 1.2 -7.46106 -2.23576e+06 4.4324e+06 -18045.1 1.31123e+06 -937149 392251
128 1 Mg -0.186229 92.7945 4.5726 1.2 -8.44787 1.23672e+06 2.98483e+06 1.88963e+06 -281055 -336020 -1.15389e+06
129 2 Si 2.07627 94.6379 4.47986 2.4 -32.61 5.67372e+06 1.15204e+07 6.58156e+06 1.55229e+06 -953482 -1.2915e+06
130 3 O -1.15265 94.7096 4.56701 -1.2 -9.88128 -4.13153e+06 -4.94625e+06 -1.15393e+06 2.01681e+06 1.08045e+06 539863
131 3 O 0.884324 90.8053 4.72412 -1.2 -8.43586 -1.97657e+06 -1.85986e+06 -2.10076e+06 992494 76684.8 -1.50044e+06
132 3 O 1.20729 94.0926 3.25859 -1.2 -9.56352 -1.26341e+06 -4.89792e+06 -2.67851e+06 -499738 1.69413e+06 -1.17404e+06
133 1 Mg 0.0292731 95.2392 0.429407 1.2 -6.99105 -2.71092e+06 3.99852e+06 -914083 1.87897e+06 2.77728e+06 -2.41413e+06
134 3 O 1.27818 93.8592 5.88743 -1.2 -8.61741 -749097 -5.75896e+06 2.01713e+06 343535 -1.99627e+06 145182
135 1 Mg 0.282396 98.7451 1.59504 1.2 -8.15104 840854 1.31772e+06 1.67748e+06 -606522 65188.3 -44884.3
136 2 Si -2.02912 96.7275 1.72896 2.4 -32.8742 4.67277e+06 8.136e+06 7.3157e+06 967354 -113519 1.14847e+06
137 3 O 1.17524 96.7289 1.67784 -1.2 -9.72898 -3.57535e+06 -2.52201e+06 -4.29446e+06 1.41324e+06 129178 468720
138 3 O -0.823448 100.558 1.66094 -1.2 -9.14682 -3.53422e+06 -4.30268e+06 -2.76305e+06 773446 -456530 -241420
139 3 O -1.36735 97.296 0.486278 -1.2 -9.00484 -3.3128e+06 -3.81703e+06 -4.28565e+06 -286213 993049 2.68731e+06
140 3 O -1.31 97.3803 3.07382 -1.2 -9.05644 -3.64008e+06 -3.66189e+06 -1.9295e+06 -50195.6 1.69128e+06 325157
141 1 Mg -2.22887 100.783 0.140727 1.2 -7.51181 -1.30169e+06 3.51145e+06 542092 -1.51031e+06 -2.20165e+06 -1.62902e+06
142 1 Mg 7.22742 103.952 1.64264 1.2 -7.89798 1.18233e+06 1.76378e+06 2.92034e+06 852469 -86517.6 259684
143 2 Si -0.21104 102.044 1.64676 2.4 -32.9748 6.85313e+06 9.37268e+06 9.26169e+06 -768737 -409276 -2.45938e+06
144 3 O 1.37415 101.792 1.73251 -1.2 -9.44625 -2.14149e+06 -2.57715e+06 -3.14395e+06 -1.78377e+06 213600 1.07143e+06
145 3 O 3.61855 105.697 1.66777 -1.2 -9.24643 -1.93712e+06 -1.87223e+06 -2.05469e+06 -1.26068e+06 1.38817e+06 835198
146 3 O -0.902705 102.828 0.46384 -1.2 -9.32725 -2.17877e+06 -3.12324e+06 -1.7787e+06 -992561 472137 1.44749e+06
147 1 Mg 2.46084 111.454 3.22819 1.2 -7.61956 -121644 3.95133e+06 -251409 -1.43983e+06 2.06063e+06 914171
148 3 O -0.848584 102.527 3.08574 -1.2 -9.17273 -2.14631e+06 -4.27041e+06 -1.50173e+06 488909 -1.73691e+06 -778020
149 1 Mg 2.54325 108.627 4.75536 1.2 -8.31564 2.38421e+06 330269 2.92578e+06 1.29077e+06 -46850.7 408082
150 2 Si 5.40067 110.569 4.74235 2.4 -33.0881 7.82403e+06 7.06759e+06 6.41109e+06 -2.29631e+06 1.63839e+06 454373
151 3 O 3.63511 110.695 4.79199 -1.2 -8.77563 686533 -4.25886e+06 -3.68393e+06 -1.9727e+06 1.61245e+06 65607.5
152 3 O 6.411 106.77 4.73045 -1.2 -9.17509 -4.12985e+06 -6.53664e+06 -4.20691e+06 -607707 -725272 457474
153 3 O 5.88625 109.721 3.51664 -1.2 -9.24928 -4.37631e+06 -3.03201e+06 -5.48195e+06 -565371 -1.84027e+06 -1.13482e+06
154 3 O 6.09995 109.858 5.95007 -1.2 -9.05057 -3.506e+06 -3.16718e+06 -3.34717e+06 41239.4 419879 -128913
155 1 Mg 4.97823 106.301 3.32868 1.2 -7.78699 -1.0846e+06 3.99915e+06 -626077 389585 -1.05154e+06 1.54336e+06
156 1 Mg 0.164927 103.295 4.55635 1.2 -8.0248 1.32791e+06 2.15236e+06 1.44494e+06 -386539 -397641 -982195
157 2 Si 7.06125 105.336 4.75703 2.4 -32.4148 2.55818e+06 1.08107e+07 7.15612e+06 1.46989e+06 1.02157e+06 1.04523e+06
158 3 O 3.81196 105.501 4.71564 -1.2 -9.98244 -5.7193e+06 -5.32337e+06 -3.59387e+06 1.18716e+06 -698872 -239508
159 3 O 1.15367 101.293 4.67603 -1.2 -9.10049 -3.63349e+06 -7.79956e+06 -4.02946e+06 -849710 203066 662519
160 3 O 6.28987 104.616 3.36112 -1.2 -9.07082 -404405 -2.68187e+06 -1.14821e+06 765378 1.90689e+06 983901
161 1 Mg 4.91001 106.002 0.248863 1.2 -7.76615 -1.39734e+06 4.4459e+06 272300 1.27173e+06 1.90045e+06 -679747
162 3 O 6.22926 104.653 5.8492 -1.2 -9.50473 -1.66385e+06 -6.02788e+06 -4.88849e+06 -167129 -143336 2.24752e+06
163 1 Mg 5.13857 109.181 1.86603 1.2 -8.49703 436296 1.26897e+06 379922 -1.59387e+06 -939288 -392050
164 2 Si 2.96925 107.33 1.6865 2.4 -33.3059 7.34114e+06 9.80536e+06 8.19811e+06 224468 -12316.1 145980
165 3 O 6.20329 107.233 1.8489 -1.2 -9.2373 -4.024e+06 -3.461e+06 -3.78444e+06 601546 36177.4 399445
166 3 O 3.90753 111.038 1.81259 -1.2 -9.24084 -1.62095e+06 -4.0374e+06 -2.59303e+06 1.32731e+06 97859.8 56504.2
167 3 O 3.65659 107.901 0.391561 -1.2 -8.95368 -3.54742e+06 -1.98273e+06 -2.4787e+06 -496236 -815711 145887
168 3 O 3.75213 108.029 2.90314 -1.2 -8.89262 -3.96978e+06 -2.54805e+06 -2.79208e+06 -584048 547751 -61065.8
169 1 Mg 2.60978 111.072 0.244193 1.2 -7.89129 118075 3.69549e+06 -832958 -1.64944e+06 -588868 -737568
170 1 Mg 7.03523 114.49 1.76611 1.2 -8.77742 2.54461e+06 1.06794e+06 2.03654e+06 441600 -175012 1.30858e+06
171 2 Si 4.48225 112.562 1.75066 2.4 -34.3791 1.02172e+07 8.56569e+06 7.98686e+06 -581201 -1.76441e+06 1.31947e+06
172 3 O 6.16667 112.508 1.77706 -1.2 -8.67666 -616672 -1.1148e+06 -4.09825e+06 -1.03858e+06 189542 -63748.8
173 3 O 3.43854 116.211 1.77832 -1.2 -9.21312 -2.7538e+06 -4.87048e+06 -2.23163e+06 -549967 -286718 -569504
174 3 O 3.88924 113.312 0.58999 -1.2 -8.36239 -6.08694e+06 -3.08899e+06 -4.59159e+06 255378 477856 450692
175 1 Mg 2.40955 122.124 2.99594 1.2 -8.55607 -1.07865e+06 3.19915e+06 -710248 -730914 1.29509e+06 2.4546e+06
176 3 O 3.86525 113.226 3.08354 -1.2 -8.41588 -2.68115e+06 -2.78173e+06 -3.32543e+06 -147507 -1.5603e+06 676030
177 1 Mg 2.45143 119.317 4.68484 1.2 -9.3322 2.13744e+06 1.06615e+06 1.49905e+06 1.30485e+06 -747711 2.11612e+06
178 2 Si 5.14584 121.109 4.65094 2.4 -35.5356 1.06517e+07 1.00281e+07 5.84055e+06 -659945 -377847 798699
179 3 O 3.54735 121.274 4.75125 -1.2 -8.13639 -3.37851e+06 -3.65607e+06 -2.36088e+06 -1.29726e+06 12402.1 533352
180 3 O 6.24865 117.368 4.61596 -1.2 -8.6271 -3.27774e+06 -3.8716e+06 -2.60451e+06 -2.58981e+06 -70233.8 -2.24553e+06
181 3 O 5.82177 120.326 3.45017 -1.2 -8.47344 -3.74642e+06 -3.63825e+06 -4.4748e+06 -568290 -1.12997e+06 -1.72633e+06
182 3 O 5.81905 120.48 5.90773 -1.2 -7.80228 -5.4445e+06 -3.92657e+06 -4.06882e+06 884678 -80208.8 1.01413e+06
183 1 Mg 4.91691 116.661 3.25093 1.2 -7.92977 -1.40857e+06 4.12825e+06 -2.06632e+06 1.31113e+06 -1.16141e+06 3.3835e+06
184 1 Mg 4.88473 113.884 4.80027 1.2 -8.271 957209 1.22109e+06 2.00877e+06 -453423 827365 675492
185 2 Si 6.98996 115.796 4.78771 2.4 -32.4949 5.17594e+06 1.34354e+07 5.19769e+06 -354894 1.57722e+06 1.93699e+06
186 3 O 3.77837 115.986 4.75642 -1.2 -9.81822 -2.89051e+06 -5.82854e+06 -3.11928e+06 657422 1.13473e+06 -557294
187 3 O 5.75221 111.997 4.75729 -1.2 -9.27662 -5.5044e+06 -7.50025e+06 -3.1549e+06 -714863 -519317 1.58274e+06
188 3 O 6.10226 115.146 3.54208 -1.2 -9.0481 -3.51694e+06 -5.78546e+06 -1.59015e+06 869894 1.33261e+06 -1.70389e+06
189 1 Mg 4.81224 116.647 0.34371 1.2 -7.91993 -463524 4.564e+06 -712682 703305 870778 -351883
190 3 O 6.38831 115.173 6.02238 -1.2 -9.70406 -2.56384e+06 -3.98912e+06 -4.923e+06 -136328 -589435 889475
191 1 Mg 4.9866 119.602 1.81884 1.2 -8.54059 2.45702e+06 743439 2.76485e+06 -774613 -411392 317954
192 2 Si 2.82195 117.742 1.75992 2.4 -33.3454 6.64182e+06 1.12723e+07 8.37212e+06 655231 855083 3.9259e+06
193 3 O 5.96912 117.63 1.67537 -1.2 -9.43664 -1.08436e+06 -3.16058e+06 -4.68509e+06 726784 -106113 -1.57605e+06
194 3 O 3.74257 121.545 1.64312 -1.2 -8.88135 -3.43109e+06 -5.16115e+06 -4.36543e+06 1.08663e+06 927721 -930932
195 3 O 3.48121 118.337 0.475831 -1.2 -9.14122 -3.48894e+06 -3.82104e+06 -3.58415e+06 21971.8 -698829 -170673
196 3 O 3.47543 118.55 3.01865 -1.2 -8.62407 -3.03705e+06 -1.65054e+06 -1.93e+06 311317 1.26435e+06 -439512
197 1 Mg 2.42406 121.892 0.0128984 1.2 -7.77768 -976728 2.33027e+06 1.64836e+06 -1.32887e+06 -1.32169e+06 -925869
198 1 Mg 7.49393 124.889 1.39255 1.2 -7.90091 1.7703e+06 1.68179e+06 2.86425e+06 1.84242e+06 -876569 426818
199 2 Si 4.46436 122.944 1.62215 2.4 -33.1866 7.3451e+06 7.82622e+06 1.096e+07 1.2442e+06 295188 1.70894e+06
200 3 O 6.05896 122.97 1.70581 -1.2 -9.10629 -1.14825e+06 -3.5619e+06 -4.60911e+06 718081 -1.03457e+06 -436318
201 3 O 3.51603 127.036 1.47593 -1.2 -9.07478 -1.48848e+06 -3.42079e+06 -3.91846e+06 -1.61621e+06 334611 872849
202 3 O 3.84603 123.573 0.249947 -1.2 -9.65589 -1.31669e+06 -2.22899e+06 -1.22763e+06 -105314 760831 655493
203 1 Mg 2.26667 132.644 2.96595 1.2 -8.04121 -672508 3.03029e+06 -63635.2 -600035 465389 -30450.8
204 3 O 3.76382 123.672 2.93569 -1.2 -8.54291 -4.77508e+06 -2.53876e+06 425267 -92232.1 -1.33254e+06 563213
205 1 Mg 2.30175 129.916 4.42404 1.2 -8.91436 1.50765e+06 229026 3.93487e+06 195373 -596307 741130
206 2 Si 4.86398 131.728 4.29036 2.4 -33.7486 4.5084e+06 1.19259e+07 1.20461e+07 -600714 1.04735e+06 -774136
207 3 O 3.41311 131.888 4.36357 -1.2 -9.28809 -5.66597e+06 -2.83094e+06 -5.84926e+06 -1.1716e+06 -257333 1.51833e+06
208 3 O 6.36145 127.989 4.32442 -1.2 -8.58273 -4.41687e+06 -6.86915e+06 -3.2112e+06 -1.64824e+06 999.314 -643.939
209 3 O 5.7047 130.726 3.20306 -1.2 -8.49485 -3.55162e+06 -1.03749e+06 -3.0713e+06 -1.20233e+06 -2.08269e+06 1.21604e+06
210 3 O 5.67936 131.333 5.67252 -1.2 -8.06966 -3.63383e+06 -2.37355e+06 -1.33062e+06 288852 1.0378e+06 947807
211 1 Mg 4.95219 127.664 2.97191 1.2 -8.13675 1.20971e+06 4.56364e+06 -1.70553e+06 495832 -1.3798e+06 411505
212 1 Mg 4.72016 124.922 4.52655 1.2 -8.61622 983179 1.5969e+06 3.14516e+06 254510 -85980.5 172487
213 2 Si 6.88539 126.488 4.55646 2.4 -33.9634 7.70054e+06 1.04133e+07 7.42457e+06 1.31577e+06 25537.9 -802346
214 3 O 3.86542 126.649 4.52515 -1.2 -8.92799 -1.23918e+06 -5.31867e+06 -3.82333e+06 2.51748e+06 -1.80054e+06 645015
215 3 O 5.7858 122.566 4.56644 -1.2 -7.73408 -5.65962e+06 -4.45159e+06 -3.48415e+06 1.17291e+06 -713642 1.09621e+06
216 3 O 6.30881 125.853 3.25015 -1.2 -8.42116 -2.02153e+06 -5.40495e+06 -1.07441e+06 -542432 711943 -1.13057e+06
217 1 Mg 4.9305 127.527 0.0401119 1.2 -7.50844 -1.64422e+06 3.69747e+06 556302 845580 1.40851e+06 -3.05868e+06
218 3 O 6.16608 125.978 5.80046 -1.2 -8.67673 -4.35605e+06 -4.50629e+06 -3.60756e+06 -728272 -779966 1.68878e+06
219 1 Mg 4.8732 130.256 1.37862 1.2 -8.72451 1.34055e+06 -467586 3.30691e+06 -773701 -324242 -1.6223e+06
220 2 Si 2.7765 128.504 1.36991 2.4 -33.5169 3.02463e+06 1.03265e+07 1.08991e+07 -1.24088e+06 864830 -2.1339e+06
221 3 O 6.03809 128.643 1.35413 -1.2 -9.49765 -5.50728e+06 -4.17179e+06 -5.73982e+06 598799 -136373 570493
222 3 O 3.75572 132.354 1.60394 -1.2 -8.57924 -3.01985e+06 -1.59996e+06 -3.10833e+06 589151 -245774 233408
223 3 O 3.52485 129.129 0.147614 -1.2 -8.97696 -4.17462e+06 -3.45623e+06 -5.13073e+06 -179591 -595792 1.42137e+06
224 3 O 3.53509 129.197 2.73352 -1.2 -8.10613 -4.64524e+06 -3.39686e+06 -975664 -903015 1.29105e+06 1.42418e+06
225 1 Mg 2.43943 132.702 -0.0108677 1.2 -8.52176 207790 1.85819e+06 802269 -1.4613e+06 -1.59692e+06 -3.12771e+06
226 1 Mg 7.03581 135.774 1.60685 1.2 -9.05247 2.66535e+06 179950 4.951e+06 775483 -179397 -453534
227 2 Si 4.43443 133.868 1.32891 2.4 -34.5337 7.01799e+06 8.26627e+06 1.30402e+07 -767953 836515 -3.298e+06
228 3 O 5.92508 133.693 1.37062 -1.2 -8.88382 -4.97436e+06 -1.54327e+06 -4.59238e+06 -1.05956e+06 1.93048e+06 930843
229 3 O 3.23808 137.687 1.27262 -1.2 -8.2878 -2.4094e+06 -2.77494e+06 -4.70669e+06 -1.95165e+06 442306 301842
230 3 O 3.62287 134.447 -0.064037 -1.2 -7.87734 -1.9804e+06 -1.00259e+06 -1.71941e+06 39890.6 1.15754e+06 653583
231 1 Mg 2.29597 143.35 2.99653 1.2 -8.8007 1.35984e+06 3.24112e+06 -202519 -497159 1.32536e+06 1.3554e+06
232 3 O 3.80768 134.711 2.54468 -1.2 -8.16502 -3.97597e+06 -2.56e+06 -3.55493e+06 339538 -1.67642e+06 748041
233 1 Mg 2.21322 140.414 4.56729 1.2 -8.90347 2.41163e+06 208384 3.97452e+06 1.24049e+06 -401138 -1.51617e+06
234 2 Si 4.9335 142.238 4.32709 2.4 -34.3829 6.58756e+06 9.42272e+06 8.59023e+06 1.16901e+06 -461194 -1.14536e+06
235 3 O 3.38049 142.438 4.40138 -1.2 -8.97087 -3.35327e+06 -2.56282e+06 -4.2063e+06 -294431 -476184 937592
236 3 O 5.93084 138.538 4.57802 -1.2 -7.85981 -4.30222e+06 -7.54698e+06 -5.58457e+06 -189253 514894 -1.56569e+06
237 3 O 5.5635 141.648 3.00857 -1.2 -8.03605 -4.21931e+06 -4.12832e+06 -4.09722e+06 628236 -1.27355e+06 735241
238 3 O 5.56786 141.612 5.57411 -1.2 -8.8968 -3.54826e+06 -4.98216e+06 -4.28454e+06 597062 -368106 3.59349e+06
239 1 Mg 4.49712 138.192 2.91869 1.2 -8.74459 1.39994e+06 2.76108e+06 1.04475e+06 1.3449e+06 -747352 -556216
240 1 Mg 4.6477 135.184 4.30081 1.2 -9.47638 2.99923e+06 119542 2.65377e+06 -810112 30013.8 -1.84943e+06
241 2 Si 6.64665 137.196 4.60579 2.4 -35.6809 9.55806e+06 6.23848e+06 8.44053e+06 -823295 511415 -2.99954e+06
242 3 O 3.48683 137.087 4.4271 -1.2 -8.18885 -4.43929e+06 -2.64462e+06 -3.00175e+06 -627954 -288114 1.73165e+06
243 3 O 5.57906 133.368 4.15344 -1.2 -8.2961 -3.3447e+06 301706 -4.81772e+06 2.31466e+06 242750 2.92015e+06
244 3 O 6.01054 136.674 3.21616 -1.2 -7.71137 -5.4727e+06 -3.13428e+06 -3.16626e+06 -313626 678107 -1.38852e+06
245 1 Mg 4.82917 137.801 0.139695 1.2 -8.63901 -185929 2.71291e+06 199693 1.38603e+06 953432 -1.24693e+06
246 3 O 6.08725 136.401 5.80113 -1.2 -8.1121 -4.4401e+06 -4.40515e+06 -4.31803e+06 223880 467476 3.18243e+06
247 1 Mg 4.64761 141.046 1.36049 1.2 -9.6554 2.29213e+06 118480 1.45898e+06 -756897 -800805 -603027
248 2 Si 2.49669 139.206 1.46944 2.4 -35.4447 5.96402e+06 9.18857e+06 9.47188e+06 -1.13653e+06 -884124 -1.36468e+06
249 3 O 5.7917 139.313 1.38667 -1.2 -8.42642 -8.23281e+06 -2.47754e+06 -5.37015e+06 532698 -674604 1.0453e+06
250 3 O 3.66956 142.879 1.53936 -1.2 -8.0629 -7.91534e+06 -4.50779e+06 -1.472e+06 907094 524087 480351
251 3 O 3.24117 140.075 0.385553 -1.2 -7.76551 -7.39765e+06 -2.60498e+06 -3.76106e+06 -396414 74189.6 655163
252 3 O 3.16111 139.649 2.85624 -1.2 -8.05315 -5.12213e+06 -3.03014e+06 -3.8782e+06 417068 571994 1.94313e+06
253 1 Mg 2.28533 142.893 -0.269296 1.2 -8.28395 929694 1.94259e+06 541386 -1.153e+06 -260701 -3.16337e+06
254 1 Mg 6.92922 146.272 1.51642 1.2 -8.85694 2.47535e+06 1.22057e+06 2.0947e+06 1.9336e+06 235873 -1.31115e+06
255 2 Si 4.22949 144.341 1.26138 2.4 -35.5932 1.12265e+07 7.95597e+06 6.81894e+06 -1.46916e+06 198181 -1.89905e+06
256 3 O 5.91103 144.106 1.42833 -1.2 -7.74352 -1.46052e+06 -2.6365e+06 -2.43487e+06 -970144 179809 1.47764e+06
257 3 O 3.29137 148.236 1.43795 -1.2 -8.36905 -2.69134e+06 -5.5024e+06 -3.03307e+06 -804884 -435600 2.4266e+06
258 3 O 3.87384 144.953 -0.0739766 -1.2 -8.07972 -5.29131e+06 -1.94565e+06 -6.04234e+06 2.20214e+06 868644 827128
259 1 Mg 1.76511 153.718 1.5928 1.2 -8.51546 359570 -1.95565e+06 917922 780271 -770248 -1.30536e+06
260 3 O 3.71336 145.252 2.41963 -1.2 -8.12877 -5.40566e+06 -3.30805e+06 -2.94491e+06 1.15239e+06 537478 -786927
261 1 Mg 1.89269 151.026 4.65646 1.2 -8.54999 1.12811e+06 2.32536e+06 1.03554e+06 -1.05545e+06 853264 -1.65073e+06
262 2 Si 3.97909 152.174 2.86947 2.4 -35.0385 1.26459e+07 7.90422e+06 5.77542e+06 -111795 750552 -4.28763e+06
263 3 O 2.72498 153.064 3.0406 -1.2 -7.63938 -5.59734e+06 -1.5315e+06 -6.47361e+06 -425837 279662 -265416
264 3 O 6.11029 149.216 4.3446 -1.2 -8.19473 -3.85454e+06 -3.96575e+06 -1.20203e+06 -2.28873e+06 -326097 2.38754e+06
265 3 O 4.85604 152.696 1.61543 -1.2 -7.7204 -9.37521e+06 -574902 -5.6456e+06 1.09866e+06 -2.15737e+06 1.78089e+06
266 3 O 4.89019 152.01 4.06761 -1.2 -8.65823 -3.90687e+06 -4.16253e+06 -3.85268e+06 -1.2538e+06 -7311.96 3.1895e+06
267 1 Mg 4.83179 148.427 2.7473 1.2 -8.25063 729098 3.97534e+06 1.9178e+06 1.17393e+06 -803493 -1.09011e+06
268 1 Mg 4.6951 145.702 4.30749 1.2 -9.5691 3.73898e+06 579560 1.3108e+06 -906374 1.1192e+06 409924
269 2 Si 6.889 147.69 4.38776 2.4 -35.426 9.16415e+06 1.17007e+07 6.67643e+06 -347724 -2.31944e+06 -3.68374e+06