ITEM: TIMESTEP
41400
ITEM: NUMBER OF ATOMS
5600
ITEM: BOX BOUNDS xy xz yz pp pp pp
0.0000000000000000e+00 7.1234999999999999e+00 0.0000000000000000e+00
0.0000000000000000e+00 2.0198500000000001e+02 2.3744999999999998e+00
0.0000000000000000e+00 1.1958400000000000e+02 0.0000000000000000e+00
ITEM: ATOMS id type element xu yu zu q c_pe c_s[1] c_s[2] c_s[3] c_s[4] c_s[5] c_s[6]
1 1 Mg -1.70169 48.4821 -0.270507 1.2 -7.76579 118825 -1.53811e+06 4.0277e+06 504271 457412 -398540
2 1 Mg 3.02629 50.1376 2.78897 1.2 -8.27707 -2.50585e+06 1.22884e+06 616947 -269000 1.13084e+06 435733
3 2 Si 0.807541 50.3571 0.738991 2.4 -34.0189 1.06214e+07 7.65175e+06 9.89239e+06 701352 630682 2.22527e+06
4 3 O 2.09154 49.4564 1.07965 -1.2 -8.35322 -5.28353e+06 -1.69304e+06 -5.34684e+06 -238099 583749 -27023.7
5 3 O -1.15748 53.4019 2.12366 -1.2 -7.96035 -5.53534e+06 -2.6755e+06 -2.70678e+06 -2.26576e+06 -1.26011e+06 -160576
6 3 O 0.0142959 49.4866 -0.353275 -1.2 -8.73518 -5.65243e+06 1.31674e+06 -5.40716e+06 1.56539e+06 -1.10794e+06 233204
7 1 Mg -2.20356 59.2774 3.33818 1.2 -7.92463 -61116.1 3.83489e+06 672724 -923656 1.20758e+06 363626
8 3 O 0.071839 50.2472 2.19761 -1.2 -8.73359 -7.24292e+06 -2.31476e+06 -2.65022e+06 -82115.9 -579803 -2.2583e+06
9 1 Mg -2.11605 56.4672 4.91463 1.2 -9.06719 1.94394e+06 -99297.8 2.13999e+06 769532 -766830 919315
10 2 Si 0.455535 58.27 4.64902 2.4 -34.393 5.59834e+06 8.2973e+06 9.75902e+06 778435 1.86429e+06 -588645
11 3 O -1.0811 58.2698 4.79435 -1.2 -9.0692 -4.49191e+06 -3.34393e+06 -5.07736e+06 -719389 376296 138738
12 3 O 1.7542 53.8732 4.97714 -1.2 -7.94206 -4.82589e+06 1.57083e+06 -3.08472e+06 -1.36303e+06 432873 508940
13 3 O 1.06252 57.7062 3.39293 -1.2 -8.51083 -5.29137e+06 -3.09622e+06 -5.23696e+06 646190 -81002.3 -718283
14 3 O 1.1806 57.5655 5.96543 -1.2 -7.99489 -4.40042e+06 -2.45876e+06 -2.40725e+06 -171049 543258 594727
15 1 Mg 0.310989 52.7792 3.19584 1.2 -8.65866 1.96966e+06 2.57585e+06 1.06181e+06 879517 -975196 680923
16 1 Mg 0.808601 49.1855 3.589 1.2 -7.66779 1.99247e+06 988795 -1.49807e+06 -668621 -156218 1.06061e+06
17 2 Si 2.4709 52.4002 4.95685 2.4 -34.9789 1.16181e+07 8.95369e+06 1.15401e+07 -705252 381803 -924921
18 3 O -0.685213 52.6282 4.92791 -1.2 -8.17798 -2.68747e+06 -2.10283e+06 -3.85663e+06 392151 -155470 1.06783e+06
19 3 O 2.76007 48.4923 3.74529 -1.2 -7.07483 1.45497e+06 -397718 -2.47496e+06 -1.12213e+06 -239617 -556970
20 3 O 1.97486 51.5351 3.67018 -1.2 -8.58224 -3.89387e+06 -1.26179e+06 -3.08382e+06 -1.54371e+06 865231 755901
21 1 Mg 0.0667788 53.841 0.403067 1.2 -8.22053 1.64343e+06 2.14159e+06 1.20817e+06 1.07261e+06 2.12465e+06 70272.9
22 3 O 2.05211 51.4342 6.2677 -1.2 -9.50321 -3.81995e+06 -1.32731e+06 -2.70632e+06 2.45256e+06 -504620 -967542
23 1 Mg 0.159464 56.8202 1.81094 1.2 -8.97688 3.24841e+06 1.17472e+06 1.36359e+06 -1.17412e+06 565676 -741965
24 2 Si -1.83452 54.8566 2.08496 2.4 -35.7758 1.20667e+07 8.32463e+06 1.02343e+07 1.07996e+06 964024 -150856
25 3 O 1.30351 54.6249 2.02589 -1.2 -7.94832 -2.76318e+06 37482.9 -2.91634e+06 1.31436e+06 1.29893e+06 -417850
26 3 O -0.866079 58.8431 1.79383 -1.2 -8.52118 -2.58037e+06 -5.60528e+06 -2.66991e+06 1.44818e+06 -986710 1.05307e+06
27 3 O -1.29468 55.5204 0.707907 -1.2 -8.37918 -3.06775e+06 -1.58299e+06 -3.30639e+06 -934628 83343.3 993238
28 3 O -1.27452 55.827 3.24033 -1.2 -7.76382 -3.93086e+06 -1.65609e+06 -2.34255e+06 1.13367e+06 247868 489933
29 1 Mg -2.32276 59.3966 0.156811 1.2 -7.89076 -1.42986e+06 3.18377e+06 -409045 -555878 -364020 -2.62043e+06
30 1 Mg 2.50121 62.2573 1.70324 1.2 -8.45438 2.23396e+06 584196 2.65439e+06 881039 -574899 -106297
31 2 Si -0.183956 60.2943 1.7407 2.4 -33.9626 9.07512e+06 9.80558e+06 6.96465e+06 994915 -308346 -1.61609e+06
32 3 O 1.45497 60.3006 1.60705 -1.2 -8.95939 -1.91171e+06 -2.92863e+06 -3.75816e+06 255074 1.03522e+06 1.21885e+06
33 3 O -1.33126 64.1001 1.81917 -1.2 -9.39289 -2.92213e+06 -1.33596e+06 -2.86764e+06 -757522 326486 1.31027e+06
34 3 O -0.944595 60.9828 0.564128 -1.2 -8.94432 -5.10064e+06 -3.89084e+06 -4.63302e+06 -554519 1.62957e+06 2.83694e+06
35 1 Mg -2.44263 69.5296 3.13858 1.2 -7.72393 205880 2.693e+06 1.04286e+06 -1.67164e+06 2.22911e+06 1.87938e+06
36 3 O -0.751257 60.9336 3.07849 -1.2 -8.86988 -2.78085e+06 -3.52545e+06 -2.94233e+06 -408199 -1.92978e+06 12449.8
37 1 Mg -2.37597 66.9013 4.86491 1.2 -8.19204 1.09927e+06 -44284.5 2.65371e+06 989040 535282 -1.30754e+06
38 2 Si 0.375545 68.6742 4.86637 2.4 -33.2483 3.38039e+06 9.9728e+06 9.3628e+06 1.47402e+06 650176 -684797
39 3 O -1.10031 68.6933 4.91858 -1.2 -9.39181 -5.00243e+06 -4.95309e+06 -4.81577e+06 371168 1.55189e+06 -153237
40 3 O 1.54985 65.0681 4.79304 -1.2 -9.07868 -4.5804e+06 -2.94621e+06 -3.98112e+06 -3.46894e+06 -819617 -189104
41 3 O 0.989563 68.074 3.45656 -1.2 -9.04238 -3.97849e+06 -4.58558e+06 -1.64053e+06 -940215 -1.01248e+06 -642109
42 3 O 1.17775 67.9754 6.08088 -1.2 -9.4425 -4.18018e+06 -4.30749e+06 -3.25848e+06 -204437 1.65826e+06 1.44032e+06
43 1 Mg 0.127143 64.8463 3.52736 1.2 -7.71998 -1.50527e+06 3.61332e+06 136075 289931 -2.09827e+06 919813
44 1 Mg 0.0827618 61.6827 4.79739 1.2 -8.43245 300223 1.42295e+06 4.09389e+06 -671461 -750.301 -519882
45 2 Si 2.27404 63.4888 4.82647 2.4 -32.6999 8.472e+06 9.53798e+06 1.01692e+07 1.46078e+06 585733 -836574
46 3 O -0.917467 63.6852 4.88572 -1.2 -9.62386 -1.9261e+06 -3.12315e+06 -3.97649e+06 1.86899e+06 -19880.7 -140204
47 3 O 1.14919 59.7356 4.79482 -1.2 -8.9232 -2.13038e+06 -5.09655e+06 -5.14955e+06 1.3518e+06 -963969 1.1452e+06
48 3 O 1.46361 62.8792 3.58893 -1.2 -8.87404 -1.3391e+06 -2.4405e+06 -2.77349e+06 -168785 1.75456e+06 -107083
49 1 Mg 0.0659377 64.4941 0.483492 1.2 -7.56107 -649803 3.28261e+06 87507.6 1.14264e+06 2.2207e+06 -2.21236e+06
50 3 O 1.45036 62.8553 6.11825 -1.2 -9.01035 -2.51735e+06 -3.12242e+06 -3.67617e+06 1.10392e+06 -2.08659e+06 1.027e+06
51 1 Mg 0.153292 67.4294 1.73438 1.2 -8.39678 776010 -455705 2.18234e+06 -1.79771e+06 -86950.4 -427029
52 2 Si -1.92137 65.6547 1.85963 2.4 -32.684 5.45912e+06 1.04311e+07 8.89273e+06 205826 1.41626e+06 -408339
53 3 O 1.22864 65.5684 1.80129 -1.2 -9.67336 -171014 -3.89787e+06 -3.80181e+06 886963 566854 754223
54 3 O -1.02567 69.2453 1.72786 -1.2 -8.94181 -2.95666e+06 -2.63918e+06 -3.79908e+06 -282070 -79609.8 681194
55 3 O -1.30532 66.3932 0.660779 -1.2 -9.39617 -4.05153e+06 -3.92842e+06 -3.8918e+06 -782033 -332679 979899
56 3 O -1.22187 66.3339 3.20002 -1.2 -9.16139 -2.34668e+06 -3.10466e+06 -2.66811e+06 -387349 846990 1.49928e+06
57 1 Mg -2.36777 69.839 0.200718 1.2 -7.77846 687362 2.85236e+06 335199 -1.64096e+06 -2.00371e+06 -2.36004e+06
58 1 Mg 2.14338 72.6638 1.71269 1.2 -8.18532 912329 -1.31467e+06 3.59578e+06 931538 120533 -506665
59 2 Si -0.471105 70.8187 1.83277 2.4 -33.4747 2.7953e+06 8.386e+06 1.15099e+07 -891857 -1.24941e+06 492752
60 3 O 1.01256 70.7106 1.74873 -1.2 -9.24413 -4.32913e+06 -2.59939e+06 -4.9685e+06 -1.80865e+06 -406713 553975
61 3 O -1.53553 74.3655 1.77454 -1.2 -9.52295 -1.14635e+06 -3.99519e+06 -3.85066e+06 -1.54587e+06 176470 -328932
62 3 O -1.17281 71.4785 0.61921 -1.2 -9.13508 -4.47404e+06 -3.84516e+06 -3.79382e+06 962985 -63128.7 1.65535e+06
63 1 Mg -2.32973 80.0322 3.13107 1.2 -8.20834 -652804 3.56159e+06 -476650 -1.07354e+06 2.8274e+06 1.22895e+06
64 3 O -1.08294 71.3933 3.25109 -1.2 -8.82469 -2.1595e+06 -1.06006e+06 -1.91368e+06 623299 1401.71 554058
65 1 Mg -2.05138 77.1241 4.74756 1.2 -8.90267 2.79272e+06 -43881.9 1.65389e+06 907684 528771 -1.0797e+06
66 2 Si 0.495143 78.9635 4.55608 2.4 -34.5688 6.25247e+06 7.70861e+06 9.05288e+06 -1.42201e+06 -272109 -1.90637e+06
67 3 O -1.04947 79.067 4.62099 -1.2 -8.92825 -4.37626e+06 -2.31245e+06 -3.44617e+06 -1.17408e+06 -113124 592863
68 3 O 1.41543 75.3552 4.85179 -1.2 -8.5166 -2.38189e+06 -2.93545e+06 -3.49887e+06 -2.0731e+06 729244 392407
69 3 O 1.12432 78.4208 3.2525 -1.2 -8.20304 -3.06749e+06 -4.6647e+06 -4.79454e+06 699826 392905 -1.2985e+06
70 3 O 1.18364 78.2455 5.85079 -1.2 -8.36073 -3.67033e+06 -3.26862e+06 -1.18918e+06 -665228 454497 887484
71 1 Mg 0.0156956 74.6925 3.26148 1.2 -7.81055 -1.00804e+06 3.25075e+06 1.17142e+06 1.31061e+06 -164077 1.16178e+06
72 1 Mg 0.155665 72.0188 4.77853 1.2 -8.69934 2.06022e+06 -141083 2.54319e+06 -1.5839e+06 -79569.6 181647
73 2 Si 2.14263 73.7806 4.82052 2.4 -33.0786 9.18484e+06 1.1304e+07 7.22703e+06 -2.13119e+06 1.73644e+06 233410
74 3 O -0.960186 73.8503 4.87105 -1.2 -9.14983 144805 -4.54834e+06 -3.96032e+06 -328407 652673 -55140.9
75 3 O 1.12045 70.1082 4.80639 -1.2 -8.78466 -3.16503e+06 -4.40191e+06 -3.70944e+06 531352 -455131 -856856
76 3 O 1.38235 73.251 3.46723 -1.2 -9.26691 -3.39654e+06 -4.06223e+06 -2.98766e+06 1.34167e+06 2.74966e+06 -170046
77 1 Mg -0.0772605 74.8886 0.311848 1.2 -7.69942 76048.8 3.36167e+06 -110109 1.15286e+06 1.82936e+06 -680951
78 3 O 1.5052 73.0546 5.98743 -1.2 -9.00343 -6.06438e+06 -4.50426e+06 -5.10373e+06 138969 -1.13651e+06 1.62813e+06
79 1 Mg -0.353359 77.7584 1.71292 1.2 -8.64154 3.83001e+06 -895551 3.38938e+06 -1.09253e+06 462454 -298493
80 2 Si -2.20529 75.8404 1.79621 2.4 -33.5365 6.90659e+06 8.72367e+06 1.11121e+07 -2.30908e+06 701629 596475
81 3 O 0.928428 75.8506 1.82369 -1.2 -9.2102 -755902 -2.74062e+06 -4.93248e+06 -914464 1.74135e+06 -476770
82 3 O -1.04652 79.668 1.62073 -1.2 -9.01356 -4.97819e+06 -3.87143e+06 -3.03427e+06 1.90533e+06 1.00931e+06 -160076
83 3 O -1.78522 76.5682 0.440138 -1.2 -8.68032 -4.12443e+06 -2.06342e+06 -3.66566e+06 -40959.4 -290106 -832998
84 3 O -1.46554 76.6069 3.00517 -1.2 -8.82582 -5.51298e+06 -1.68722e+06 -4.09621e+06 1.65348e+06 1.59693e+06 -367795
85 1 Mg -2.41429 80.221 0.120121 1.2 -7.86544 102543 3.82124e+06 963794 -641030 -1.23066e+06 -1.81084e+06
86 1 Mg 2.48776 82.9274 1.58302 1.2 -8.9363 2.99857e+06 200095 3.88296e+06 1.5557e+06 295387 -1.11553e+06
87 2 Si -0.337721 81.128 1.70851 2.4 -33.8708 7.9462e+06 1.0437e+07 7.58711e+06 517387 878512 -938265
88 3 O 1.31358 81.0459 1.69045 -1.2 -8.94738 -243248 -4.54583e+06 -3.08493e+06 671629 238382 -116919
89 3 O -1.3083 84.8401 1.51257 -1.2 -7.96707 -5.53792e+06 -2.39162e+06 -3.24136e+06 -691051 364965 834639
90 3 O -0.971597 81.8607 0.400688 -1.2 -8.89738 -3.67509e+06 -3.51983e+06 -2.39537e+06 -741770 1.64399e+06 891661
91 1 Mg -2.11377 90.4522 2.7707 1.2 -8.25018 100566 3.43472e+06 -660701 -539252 2.04301e+06 799631
92 3 O -0.843505 81.83 2.96173 -1.2 -8.59442 -5.02007e+06 -3.0848e+06 -2.50694e+06 551501 726137 161980
93 1 Mg -1.98483 87.7502 4.6825 1.2 -8.53749 1.86342e+06 572325 2.99485e+06 1.17866e+06 -535498 348429
94 2 Si 0.568141 89.5194 4.20704 2.4 -33.868 7.18875e+06 9.10578e+06 9.15399e+06 -2.43704e+06 460967 -689582
95 3 O -1.04916 89.6704 4.34229 -1.2 -9.13481 -1.60646e+06 -3.17559e+06 -3.58617e+06 -2.27816e+06 188447 299487
96 3 O 1.38639 85.7502 4.59366 -1.2 -8.31241 -3.69642e+06 -2.72946e+06 -3.74046e+06 -1.10335e+06 406230 -173929
97 3 O 1.16347 88.7422 2.97784 -1.2 -8.59109 -3.51927e+06 -3.90654e+06 -3.42726e+06 327382 -1.42446e+06 364531
98 3 O 1.27422 88.8272 5.54623 -1.2 -9.04233 -2.25862e+06 -1.69872e+06 -3.10467e+06 145038 1.30431e+06 346689
99 1 Mg 0.0405122 85.3689 3.08592 1.2 -8.91589 756512 2.15077e+06 1.07419e+06 1.35034e+06 -1.34479e+06 706641
100 1 Mg 0.193052 82.4391 4.74105 1.2 -8.72578 2.38277e+06 674171 4.15295e+06 -1.45123e+06 -435449 -638890
101 2 Si 2.13672 84.3072 4.71174 2.4 -34.6281 9.43812e+06 7.61427e+06 1.10123e+07 -1.05834e+06 397198 -1.32625e+06
102 3 O -1.03961 84.5012 4.71977 -1.2 -8.68038 -2.89945e+06 -2.48485e+06 -4.12434e+06 -145224 -951403 1.34021e+06
103 3 O 1.14223 80.388 4.6449 -1.2 -8.74795 -4.16547e+06 -6.3868e+06 -4.71352e+06 273261 -286337 861163
104 3 O 1.57957 83.5671 3.33808 -1.2 -7.92418 -3.77769e+06 -2.50127e+06 -939643 320165 759070 834536
105 1 Mg 0.0424664 85.183 0.0435125 1.2 -8.71861 1.73353e+06 2.95497e+06 917335 1.19534e+06 1.10294e+06 -1.60406e+06
106 3 O 1.46983 83.5429 5.9105 -1.2 -8.86546 -4.72792e+06 -1.28474e+06 -3.92598e+06 338974 -121327 1.40983e+06
107 1 Mg 0.200428 88.2794 1.34198 1.2 -9.01385 2.51294e+06 -231652 1.15752e+06 -537373 252390 -801069
108 2 Si -1.98213 86.3536 1.64917 2.4 -35.2424 9.50135e+06 9.76947e+06 9.53134e+06 553288 -223470 -2.08012e+06
109 3 O 1.22979 86.0961 1.55557 -1.2 -8.38811 -4.13725e+06 -3.35086e+06 -3.09187e+06 1.39225e+06 1.15471e+06 990427
110 3 O -0.836289 89.9698 1.41819 -1.2 -8.3649 -3.41897e+06 -4.29936e+06 -4.70403e+06 1.94881e+06 275223 -1.00834e+06
111 3 O -1.36876 87.0819 0.315556 -1.2 -8.13958 -4.7178e+06 -3.48967e+06 -1.3181e+06 89644.9 -1.31171e+06 2.52981e+06
112 3 O -1.22057 86.8685 2.93254 -1.2 -8.44127 -4.90191e+06 -3.91846e+06 -2.41938e+06 560149 845339 371305
113 1 Mg -2.28374 90.4506 -0.120268 1.2 -8.52991 -176979 4.08367e+06 257901 -901568 -1.05236e+06 -2.26393e+06
114 1 Mg 2.51978 93.5223 1.41119 1.2 -8.78531 2.4532e+06 214425 1.10285e+06 759675 327067 -220492
115 2 Si -0.122666 91.5256 1.23634 2.4 -34.7465 7.87683e+06 8.78608e+06 7.86186e+06 1.29675e+06 575431 -665833
116 3 O 1.44902 91.4268 1.31568 -1.2 -8.73682 -3.48361e+06 -2.94527e+06 -5.13809e+06 390778 1.3494e+06 224242
117 3 O -1.17035 95.2296 1.36384 -1.2 -8.66711 -2.95919e+06 -3.66843e+06 -4.21351e+06 -1.56864e+06 424522 727845
118 3 O -0.746451 92.0626 -0.0211466 -1.2 -8.40117 -4.53039e+06 -2.92875e+06 -5.85143e+06 449787 -281343 1.71818e+06
119 1 Mg -2.28662 101.001 2.67822 1.2 -7.76511 -2.08041e+06 3.31818e+06 -426913 -612121 2.12323e+06 1.05614e+06
120 3 O -0.700908 92.2131 2.50447 -1.2 -8.33409 -5.88734e+06 -3.45461e+06 -4.67832e+06 371501 -841247 -172418
121 1 Mg -1.9297 98.1432 4.35414 1.2 -8.3179 1.30916e+06 718594 2.18647e+06 625210 -117802 714828
122 2 Si 0.521933 99.8709 4.35176 2.4 -33.2698 8.00267e+06 9.53448e+06 6.78023e+06 -1.01656e+06 -568033 -593512
123 3 O -1.09822 100.023 4.38666 -1.2 -9.23707 -588992 -4.05936e+06 -3.36978e+06 -511997 -734175 14788.1
124 3 O 1.53206 96.2077 4.29645 -1.2 -8.79967 -5.37666e+06 -4.0139e+06 -4.80879e+06 407149 -1.57867e+06 638949
125 3 O 1.19168 99.0527 3.24408 -1.2 -9.03573 -3.15594e+06 -4.57862e+06 -3.95932e+06 -554496 -120718 -2.24599e+06
126 3 O 1.11142 99.3287 5.71557 -1.2 -9.1789 -3.22532e+06 -2.53657e+06 -4.3622e+06 -553136 1.0434e+06 -226779
127 1 Mg 0.230289 95.8268 3.0672 1.2 -7.75104 -1.78429e+06 2.8192e+06 -642904 641069 -2.4086e+06 1.77083e+06
128 1 Mg 0.146473 92.8428 4.1919 1.2 -8.47761 1.31163e+06 165682 2.92161e+06 -945168 -217358 445412
129 2 Si 2.18167 94.7116 4.25394 2.4 -33.5698 2.79485e+06 7.94177e+06 9.18087e+06 232606 -1.41605e+06 709398
130 3 O -1.07295 94.9575 4.25764 -1.2 -9.30432 -4.79827e+06 -3.59419e+06 -4.9127e+06 763711 552231 112480
131 3 O 1.06505 90.9746 4.10736 -1.2 -8.74031 -4.99591e+06 -4.85417e+06 -4.18098e+06 280577 269965 931550
132 3 O 1.58753 93.9748 3.05846 -1.2 -9.05308 -4.10683e+06 -3.63131e+06 -5.69059e+06 -1.17205e+06 -313601 -1.58771e+06
133 1 Mg 0.0788384 95.603 -0.140473 1.2 -8.2067 -623332 3.72443e+06 61213.5 1.20562e+06 1.80945e+06 -1.85196e+06
134 3 O 1.53282 94.0807 5.57551 -1.2 -9.01115 -2.32304e+06 -3.17007e+06 -4.17925e+06 -771842 -643120 220859
135 1 Mg 0.303983 98.5211 1.43507 1.2 -8.18344 1.71173e+06 189866 3.96009e+06 -1.26602e+06 -28241.6 -277005
136 2 Si -1.85576 96.7515 1.24712 2.4 -33.6378 6.29276e+06 9.44154e+06 1.04513e+07 -509379 758295 12353.8
137 3 O 1.35932 96.6739 1.31809 -1.2 -9.29962 -2.81972e+06 -2.65771e+06 -3.75546e+06 516312 -79111.7 75922.7
138 3 O -0.991488 100.437 1.30296 -1.2 -9.37976 -2.08225e+06 -4.66244e+06 -5.89041e+06 406880 52595.3 -327407
139 3 O -1.20858 97.1954 -0.102812 -1.2 -8.70743 -4.04766e+06 -4.89443e+06 -2.78685e+06 -233130 -395043 1.98315e+06
140 3 O -1.1356 97.5081 2.56127 -1.2 -8.97256 -3.56423e+06 -2.64948e+06 -546649 485601 1.39733e+06 -139416
141 1 Mg -2.28957 100.858 -0.123477 1.2 -8.24692 -2.04018e+06 3.51979e+06 -1.24536e+06 -534254 -1.33514e+06 -1.92071e+06
142 1 Mg 7.03327 103.87 1.25818 1.2 -8.02348 2.52593e+06 443084 2.70311e+06 350180 52961.4 748323
143 2 Si -0.222938 101.81 1.19079 2.4 -32.767 2.97483e+06 8.99216e+06 1.20605e+07 -738098 -548344 1.29763e+06
144 3 O 1.26877 101.724 1.21543 -1.2 -9.90069 -4.76888e+06 -2.49023e+06 -5.59981e+06 440089 12223.3 -404006
145 3 O 3.44586 105.661 1.17712 -1.2 -9.54743 -1.90652e+06 -4.14073e+06 -3.59335e+06 -378637 863948 -703714
146 3 O -0.899075 102.482 -0.120007 -1.2 -8.76637 -3.14045e+06 -3.96256e+06 -3.61692e+06 -1.37661e+06 1.16288e+06 481331
147 1 Mg 2.3083 111.516 2.85586 1.2 -7.55893 -2.07839e+06 3.28103e+06 -277932 -1.09835e+06 2.66418e+06 2.57988e+06
148 3 O -0.957459 102.634 2.57288 -1.2 -8.74897 -801622 -2.01065e+06 333282 -1.14115e+06 -761492 863500
149 1 Mg 2.63663 108.533 4.28322 1.2 -7.81001 1.58453e+06 1.73646e+06 2.80601e+06 266309 -212667 231607
150 2 Si 5.04259 110.466 4.33732 2.4 -31.8799 5.23618e+06 1.03509e+07 1.0018e+07 -882080 -568797 1.39232e+06
151 3 O 3.48822 110.609 4.26773 -1.2 -10.028 -529838 -2.25509e+06 -4.31009e+06 -97114.2 -417697 -476789
152 3 O 6.09293 106.637 4.31494 -1.2 -8.94552 -2.48788e+06 -1.12519e+06 -2.81913e+06 -681582 170270 -746904
153 3 O 5.74556 109.833 2.96574 -1.2 -9.29072 -2.14392e+06 -2.05415e+06 -1.14497e+06 -381562 -1.32494e+06 707743
154 3 O 5.62762 109.789 5.62333 -1.2 -9.782 -1.28288e+06 -2.61884e+06 -1.87855e+06 -427131 301577 -172815
155 1 Mg 4.77687 106.224 2.75447 1.2 -7.62021 -1.06495e+06 3.45365e+06 216718 1.5762e+06 -1.60101e+06 2.8522e+06
156 1 Mg 0.158649 103.247 4.32026 1.2 -7.86323 779420 727749 3.19792e+06 -2.08524e+06 493054 648356
157 2 Si 6.72549 105.048 4.3349 2.4 -32.0323 6.57593e+06 1.05555e+07 7.03723e+06 -909316 488730 1.96552e+06
158 3 O 3.57543 105.278 4.35735 -1.2 -9.54325 738642 -4.22e+06 -1.75735e+06 1.50588e+06 -515741 -928544
159 3 O 1.20623 101.366 4.14843 -1.2 -9.23247 -3.97152e+06 -2.51655e+06 -2.46174e+06 1.44253e+06 472281 -43679.5
160 3 O 6.11738 104.438 2.9772 -1.2 -9.69672 -3.10431e+06 -3.27285e+06 236259 -164112 619887 -1.3244e+06
161 1 Mg 4.83346 106.155 -0.134362 1.2 -7.45918 -2.40635e+06 4.57058e+06 33200 774538 2.09772e+06 -444362
162 3 O 6.01884 104.529 5.62882 -1.2 -10.1519 -2.73708e+06 -6.8168e+06 -2.74365e+06 533937 -478171 707240
163 1 Mg 4.7781 109.129 1.34828 1.2 -8.11474 2.10432e+06 898094 2.57182e+06 -789429 32293.5 190639
164 2 Si 2.77393 107.146 1.25956 2.4 -32.4171 3.89347e+06 1.01253e+07 7.02522e+06 -560645 -794855 1.10991e+06
165 3 O 5.95043 107.029 1.32679 -1.2 -9.93527 -1.59594e+06 -3.78047e+06 -3.68437e+06 -110593 -112504 -450482
166 3 O 3.6518 110.967 1.48378 -1.2 -9.36212 -4.08938e+06 -2.33299e+06 -3.58176e+06 -24729.6 255631 -280886
167 3 O 3.36518 107.879 0.0202302 -1.2 -9.38429 -2.08763e+06 -3.65778e+06 -4.37921e+06 459529 -241920 749557
168 3 O 3.44503 107.804 2.53026 -1.2 -9.58205 -2.83295e+06 -2.87023e+06 -3.19745e+06 252854 325756 -132220
169 1 Mg 2.30781 111.554 -0.0826128 1.2 -7.94655 -594971 4.06865e+06 -12406.8 -1.02048e+06 -1.55943e+06 -948292
170 1 Mg 7.07291 114.703 1.53305 1.2 -7.54199 1.13127e+06 -11976.9 926587 341057 69778.5 1.54982e+06
171 2 Si 4.2164 112.493 1.40124 2.4 -32.5216 5.83664e+06 1.03486e+07 7.70985e+06 -928978 -508627 461501
172 3 O 5.80919 112.337 1.32937 -1.2 -9.39578 138287 -4.03201e+06 -3.6887e+06 -1.07953e+06 -190573 101637
173 3 O 3.51079 116.263 1.66676 -1.2 -9.53841 -3.06889e+06 -6.37849e+06 -4.49544e+06 -1.01355e+06 -535649 -1.54168e+06
174 3 O 3.6412 113.172 0.0579753 -1.2 -9.29005 -3.53311e+06 -2.59485e+06 -1.53415e+06 130845 342262 -607235
175 1 Mg 2.46597 122.154 3.09225 1.2 -7.14587 -1.51504e+06 3.39511e+06 -46322.1 -1.08668e+06 2.11468e+06 1.32388e+06
176 3 O 3.60127 113.233 2.6404 -1.2 -9.95421 -1.55256e+06 -2.97823e+06 -2.61362e+06 -231361 143284 -1.16375e+06
177 1 Mg 2.41882 118.98 4.44338 1.2 -8.23018 1.18267e+06 314469 2.95604e+06 922584 257787 -419093
178 2 Si 5.09977 120.834 4.47448 2.4 -32.985 3.63443e+06 9.19357e+06 8.30994e+06 205552 -1.19263e+06 976446
179 3 O 3.58497 120.889 4.519 -1.2 -9.72319 -3.82311e+06 -2.81142e+06 -3.85289e+06 -988137 462464 -625671
180 3 O 6.13109 117.149 4.60661 -1.2 -9.34453 -2.56993e+06 -3.78759e+06 -3.3449e+06 -2.16528e+06 408887 -1.52493e+06
181 3 O 5.77258 120.06 3.19658 -1.2 -8.84938 -3.75255e+06 -2.60543e+06 -3.81177e+06 175026 -1.71834e+06 120040
182 3 O 5.85269 120.246 5.67245 -1.2 -9.39255 -3.67884e+06 -4.70428e+06 -5.73649e+06 -99016.6 -547055 684515
183 1 Mg 4.81306 116.781 2.97372 1.2 -7.46895 -1.82478e+06 3.1289e+06 441494 657327 -2.21759e+06 1.80037e+06
184 1 Mg 4.73314 113.745 4.29082 1.2 -7.65345 597779 691202 3.35363e+06 -272226 -556325 787896
185 2 Si 6.86279 115.62 4.57539 2.4 -31.9036 4.90212e+06 1.0007e+07 9.8137e+06 -43040.3 461982 286023
186 3 O 3.6036 115.729 4.6356 -1.2 -9.96306 -3.02236e+06 -3.16247e+06 -4.17887e+06 932300 -554606 -185465
187 3 O 5.7651 112.054 4.34789 -1.2 -9.81955 -1.76751e+06 -1.47179e+06 -3.10966e+06 1.86574e+06 388328 -1.52524e+06
188 3 O 6.07436 115.159 3.22495 -1.2 -9.78029 -1.69421e+06 -4.13097e+06 -1.99903e+06 738397 1.56766e+06 -2.58113e+06
189 1 Mg 4.71537 116.599 -0.0773462 1.2 -7.45765 -2.51042e+06 3.56308e+06 518735 1.48558e+06 1.06978e+06 -950971
190 3 O 6.01516 114.952 5.87907 -1.2 -9.5683 -2.80907e+06 -2.9017e+06 -1.04405e+06 1.1885e+06 -2.12749e+06 -463237
191 1 Mg 4.95602 119.543 1.49279 1.2 -7.96737 350336 -143555 2.1748e+06 -166229 -574670 948398
192 2 Si 2.74936 117.717 1.46125 2.4 -32.3838 1.97456e+06 8.53394e+06 1.00375e+07 -858103 759563 511045
193 3 O 6.04734 117.575 1.33487 -1.2 -9.8139 -5.0722e+06 -4.45622e+06 -4.11545e+06 -198642 -249040 490079
194 3 O 3.96413 121.23 1.47872 -1.2 -9.49576 -3.40875e+06 -1.98435e+06 -2.66767e+06 1.18664e+06 -727790 1.7116e+06
195 3 O 3.45696 118.185 0.0828063 -1.2 -9.4675 -4.59482e+06 -3.64381e+06 -1.96188e+06 765044 -834962 1.16973e+06
196 3 O 3.38798 118.369 2.78746 -1.2 -9.3445 -1.63111e+06 -5.59027e+06 -1.24532e+06 292329 645751 -2.06754e+06
197 1 Mg 2.68885 121.433 -0.0312208 1.2 -7.28851 -892800 4.03101e+06 311196 -1.4143e+06 -2.09036e+06 -2.04955e+06
198 1 Mg 7.19677 124.616 1.32612 1.2 -7.49829 539846 2.0946e+06 1.46978e+06 1.307e+06 157675 330884
199 2 Si 4.50939 122.839 1.40573 2.4 -32.0781 4.33661e+06 1.10254e+07 7.51187e+06 -39593.4 -594468 59025.1
200 3 O 6.10999 122.708 1.4239 -1.2 -9.81315 714469 -3.16041e+06 -3.56771e+06 -1.02299e+06 242923 590356
201 3 O 3.39678 126.595 1.32255 -1.2 -9.99661 -989795 -5.02613e+06 -2.04574e+06 -1.20619e+06 -710081 36669.3
202 3 O 3.88263 123.413 0.159335 -1.2 -9.72656 -2.91298e+06 -2.5918e+06 -3.52119e+06 434144 -539160 538495
203 1 Mg 2.61917 132.204 2.84954 1.2 -6.9331 -2.65855e+06 3.71547e+06 -921571 -849016 1.20331e+06 2.90304e+06
204 3 O 3.85039 123.579 2.6842 -1.2 -10.0753 -1.89804e+06 -4.02908e+06 -3.17578e+06 -505362 -1.46343e+06 -386609
205 1 Mg 2.69054 129.365 4.20013 1.2 -7.01743 -1.11603e+06 1.81176e+06 -364384 1.68145e+06 179365 -139440
206 2 Si 5.31233 131.251 4.42508 2.4 -31.4124 3.55908e+06 1.09027e+07 5.74152e+06 -683055 43614.5 1.82504e+06
207 3 O 3.64618 131.325 4.37551 -1.2 -10.2776 1.11756e+06 -4.56502e+06 -2.38901e+06 -933942 108486 -444203
208 3 O 6.16096 127.427 4.23764 -1.2 -10.1224 753653 -6.16816e+06 -2.90784e+06 -1.02281e+06 -1.17227e+06 208680
209 3 O 5.90849 130.35 3.2964 -1.2 -10.044 -1.58754e+06 -5.09421e+06 -1.58213e+06 62501 -763681 -1.43984e+06
210 3 O 5.91494 130.882 5.81256 -1.2 -10.0548 -2.46197e+06 -7.36252e+06 -3.60031e+06 43265.9 863518 764237
211 1 Mg 4.84576 127.055 2.73557 1.2 -6.86347 -3.4503e+06 4.85464e+06 -797302 1.21665e+06 -1.20365e+06 1.36898e+06
212 1 Mg 4.692 124.248 4.36923 1.2 -7.7442 -760065 928709 1.41788e+06 -812307 -370230 6325.28
213 2 Si 6.87387 125.953 4.15294 2.4 -31.6817 3.58133e+06 9.39039e+06 7.05487e+06 -1.13045e+06 803006 47094.2
214 3 O 3.69394 125.994 4.26281 -1.2 -10.2872 -1.23574e+06 -3.89241e+06 -3.02911e+06 288123 1.52691e+06 444514
215 3 O 5.75968 122.321 4.32296 -1.2 -9.42898 -2.15078e+06 -5.04908e+06 -4.30222e+06 1.31643e+06 531894 -921077
216 3 O 6.16221 125.421 2.85601 -1.2 -9.88731 -1.88314e+06 -4.65045e+06 -3.71275e+06 -345441 1.13887e+06 -987096
217 1 Mg 4.86708 127.238 -0.206066 1.2 -6.85261 -823650 5.07863e+06 -1.29573e+06 650658 1.06438e+06 -2.05473e+06
218 3 O 6.30778 125.206 5.42478 -1.2 -9.67752 -3.06323e+06 -3.83455e+06 -973140 128217 -220324 498109
219 1 Mg 4.93355 129.886 1.3591 1.2 -7.61583 151393 687253 2.28971e+06 -237292 359899 293916
220 2 Si 2.74127 128.077 1.4054 2.4 -31.4186 1.54268e+06 1.28699e+07 6.24275e+06 -67878.1 -1.10487e+06 -933505
221 3 O 5.94431 128.125 1.37522 -1.2 -10.5464 -2.147e+06 -5.38379e+06 -3.97484e+06 598680 1.13794e+06 -20369.8
222 3 O 4.03405 131.747 1.47256 -1.2 -9.98776 -1.22089e+06 -2.81725e+06 -2.81993e+06 1.3654e+06 435762 -832507
223 3 O 3.42225 128.82 0.0541386 -1.2 -9.4956 -1.42996e+06 -3.56525e+06 -2.08697e+06 -32007.6 -2.16758e+06 -768369
224 3 O 3.51588 128.738 2.54657 -1.2 -10.2366 -3.1898e+06 -5.13086e+06 -4.77718e+06 87704.6 458055 -1.75434e+06
225 1 Mg 2.47351 132.432 -0.226249 1.2 -6.9052 -2.03625e+06 4.07432e+06 -120623 -1.03323e+06 -1.22466e+06 -1.22138e+06
226 1 Mg 7.1535 135.234 1.70494 1.2 -7.19975 -1.00324e+06 2.20051e+06 1.33224e+06 784206 416232 67227.2
227 2 Si 4.59774 133.297 1.49254 2.4 -30.8138 5.56668e+06 1.17514e+07 9.11127e+06 -826793 1.20517e+06 1.05445e+06
228 3 O 6.23003 133.177 1.56527 -1.2 -10.3923 1.64671e+06 -3.64134e+06 -3.86014e+06 -1.65741e+06 50173.7 106148
229 3 O 3.51458 137.05 1.55987 -1.2 -10.1351 -851607 -5.4915e+06 -3.90665e+06 -849513 368105 -1.62663e+06
230 3 O 3.86184 133.934 0.110416 -1.2 -10.147 -1.23151e+06 -3.64689e+06 386802 -140810 2.56192e+06 -1.06927e+06
231 1 Mg 2.4012 142.735 3.17006 1.2 -7.12286 -2.45301e+06 5.04144e+06 -1.16948e+06 -1.56647e+06 2.3444e+06 2.62637e+06
232 3 O 3.86908 133.956 2.77041 -1.2 -10.2641 -2.08074e+06 -3.53359e+06 -2.81376e+06 -517925 -2.34763e+06 -1.2186e+06
233 1 Mg 2.34361 139.744 4.60002 1.2 -8.13424 1.18466e+06 347361 1.52164e+06 1.17891e+06 183586 1.39625e+06
234 2 Si 5.14269 141.69 4.64555 2.4 -32.2383 7.215e+06 1.18766e+07 5.92334e+06 687509 -1.31225e+06 2.48395e+06
235 3 O 3.52138 141.777 4.75457 -1.2 -9.6335 1.01573e+06 -4.70497e+06 -2.48468e+06 -4647.58 -502506 -241296
236 3 O 6.1752 137.956 4.70716 -1.2 -10.0225 -1.40671e+06 -6.76984e+06 -1.85532e+06 -976492 746771 728132
237 3 O 5.79369 140.97 3.35427 -1.2 -9.57923 -1.91715e+06 -2.6517e+06 -1.86791e+06 -215677 -853936 -1.33201e+06
238 3 O 5.7954 140.972 5.84729 -1.2 -9.49791 -5.04354e+06 -2.78434e+06 -2.37507e+06 -492265 1.02404e+06 -605475
239 1 Mg 4.7643 137.354 3.13058 1.2 -6.78244 -1.88501e+06 4.41769e+06 -236773 1.17776e+06 -1.70752e+06 1.56149e+06
240 1 Mg 4.82164 134.469 4.3483 1.2 -7.69624 387961 1.1622e+06 -387494 -1.13652e+06 -336844 737317
241 2 Si 6.82082 136.51 4.58594 2.4 -31.7223 3.68561e+06 1.20952e+07 5.82867e+06 -54667.6 -195117 -397840
242 3 O 3.6519 136.43 4.62307 -1.2 -10.0896 -303377 -4.97464e+06 -2.58925e+06 146823 422129 961758
243 3 O 5.87171 132.708 4.24504 -1.2 -9.82386 -2.19911e+06 -6.29965e+06 -3.86671e+06 567836 635990 422473
244 3 O 6.15322 135.888 3.25538 -1.2 -10.4275 -1.52598e+06 -3.97611e+06 -2.53435e+06 582667 1.18287e+06 -811657
245 1 Mg 4.80888 137.167 0.062503 1.2 -6.91629 -2.60368e+06 4.37792e+06 -2.31038e+06 909931 1.85221e+06 -299792
246 3 O 6.2028 135.761 5.84358 -1.2 -9.37794 -3.40743e+06 -4.81241e+06 -1.86868e+06 -1.06721e+06 -535927 871171
247 1 Mg 4.97559 140.366 1.53251 1.2 -7.93993 1.17104e+06 74380.1 2.49653e+06 -1.25484e+06 480138 1.97758e+06
248 2 Si 2.85497 138.543 1.51924 2.4 -32.8516 3.20314e+06 8.00076e+06 7.96035e+06 -594917 -65561.5 2.57173e+06
249 3 O 6.08992 138.639 1.4456 -1.2 -9.36413 -3.87811e+06 -2.70935e+06 -5.39553e+06 75539.1 -1.3016e+06 -1.04536e+06
250 3 O 3.69399 142.126 1.65075 -1.2 -9.87803 853914 -3.60272e+06 -2.31264e+06 398333 4661.65 -1.4542e+06
251 3 O 3.50857 139.25 0.320021 -1.2 -9.23287 -5.33055e+06 -3.2294e+06 -3.55263e+06 -719656 863708 8623.36
252 3 O 3.3231 139.034 2.93927 -1.2 -9.15917 -2.82674e+06 -3.9142e+06 -3.01848e+06 -287806 -568105 -2.33677e+06
253 1 Mg 2.25216 142.78 0.12841 1.2 -6.91049 -2.21128e+06 4.90196e+06 57152.2 -1.40326e+06 -1.02636e+06 -441946
254 1 Mg 7.05235 145.504 1.72372 1.2 -7.68694 616203 1.31659e+06 2.76533e+06 1.05965e+06 569883 484756
255 2 Si 4.35034 143.666 1.61229 2.4 -31.4373 -168959 1.27e+07 7.72595e+06 1.15522e+06 247902 2.27242e+06
256 3 O 5.82552 143.725 1.64129 -1.2 -10.4456 -3.20695e+06 -3.81721e+06 -3.39919e+06 -299148 -171601 -860399
257 3 O 3.24303 147.502 1.74618 -1.2 -9.57716 -3.68832e+06 -3.76183e+06 -3.28985e+06 -1.87494e+06 -541107 826454
258 3 O 3.64915 144.29 0.301451 -1.2 -9.95561 -2.21528e+06 -3.87696e+06 -1.68496e+06 -33423.5 647446 -1.43973e+06
259 1 Mg 1.55579 152.808 1.31944 1.2 -6.76938 -1.40138e+06 -431866 3.10158e+06 150777 -325359 875207
260 3 O 3.60697 144.341 2.88703 -1.2 -9.7836 -2.28794e+06 -4.40239e+06 -1.01217e+06 -508982 -12258.2 -1.40762e+06
261 1 Mg 1.66752 150.71 4.3877 1.2 -7.73393 -1.36838e+06 5.04333e+06 981278 43089.7 489461 1.28907e+06
262 2 Si 3.75084 151.482 2.79612 2.4 -32.6218 4.92739e+06 7.55015e+06 6.57766e+06 -339589 407947 1.74881e+06
263 3 O 2.49869 152.293 3.10654 -1.2 -8.97237 -4.45564e+06 -3.17254e+06 -2.45081e+06 1.1358e+06 549629 -2.60091e+06
264 3 O 6.09293 148.604 4.3722 -1.2 -9.69088 -479000 -2.36316e+06 -911870 -1.422e+06 2903.78 -2.20058e+06
265 3 O 4.5656 151.942 1.54981 -1.2 -9.77729 -3.54692e+06 -1.33911e+06 -4.84741e+06 813367 343043 -505388
266 3 O 4.62401 151.393 4.09767 -1.2 -9.08078 -4.73587e+06 -4.68855e+06 -1.94248e+06 -654972 -920287 26674.8
267 1 Mg 4.61651 147.932 3.05173 1.2 -7.33928 -2.26775e+06 4.48692e+06 -860155 550304 -1.70384e+06 2.02478e+06
268 1 Mg 4.82884 144.974 4.64246 1.2 -7.98792 1.58968e+06 838160 1.33783e+06 -794660 197811 939178
269 2 Si 6.73522 147.031 4.48042 2.4 -32.3806 4.73273e+06 1.28201e+07 4.26766e+06 -1.46623e+06 933549 2.43328e+06
270 3 O 3.56319 146.951 4.51325 -1.2 -9.76849 -1.50154e+06 -4.16469e+06 -3.54094e+06 -297682 389243 -1.077e+06
271 3 O 5.82826 143.251 4.55562 -1.2 -9.89295 -1.92739e+06 -3.86797e+06 -1.17937e+06 2.1037e+06 719171 -1.28187e+06