ITEM: TIMESTEP
25000
ITEM: NUMBER OF ATOMS
5600
ITEM: BOX BOUNDS xy xz yz pp pp pp
0.0000000000000000e+00 7.1234999999999999e+00 0.0000000000000000e+00
0.0000000000000000e+00 2.0198500000000001e+02 2.3744999999999998e+00
0.0000000000000000e+00 1.1958400000000000e+02 0.0000000000000000e+00
ITEM: ATOMS id type element xu yu zu q c_pe c_s[1] c_s[2] c_s[3] c_s[4] c_s[5] c_s[6]
1 1 Mg -1.91215 49.4324 -0.827253 1.2 -6.9614 -1.32904e+06 -432994 1.38642e+06 853053 -316363 -327374
2 1 Mg 2.5895 50.642 2.34764 1.2 -7.7689 -1.7657e+06 4.28548e+06 -637147 832557 -153004 -28019.8
3 2 Si 0.540554 50.9221 0.382777 2.4 -32.5658 5.04985e+06 9.97926e+06 8.06974e+06 -1.11537e+06 591512 1.09117e+06
4 3 O 1.69695 49.8344 0.687407 -1.2 -9.13848 -2.88073e+06 -2.96703e+06 -3.8087e+06 156957 -395124 641120
5 3 O -1.41369 53.5718 1.62669 -1.2 -8.55773 -2.73292e+06 -6.25256e+06 -2.40057e+06 -1.28337e+06 18821.3 -268793
6 3 O -0.158824 50.3622 -0.922123 -1.2 -9.50021 -3.46271e+06 -3.2434e+06 -4.69224e+06 795361 -1.60002e+06 563544
7 1 Mg -2.5527 59.3318 2.9719 1.2 -7.62891 -1.2231e+06 4.51761e+06 -2.23191e+06 -471011 1.93706e+06 1.15583e+06
8 3 O -0.285544 50.8159 1.71566 -1.2 -9.46404 -3.6261e+06 -4.26042e+06 -861443 1.63689e+06 75898.5 -2.53607e+06
9 1 Mg -2.58158 56.5031 4.47906 1.2 -8.26767 1.23972e+06 2.45953e+06 1.88872e+06 1.44496e+06 -457431 745787
10 2 Si 0.171637 58.3411 4.58532 2.4 -33.3811 5.72805e+06 1.14598e+07 7.38631e+06 261081 937645 -361093
11 3 O -1.35436 58.5057 4.62513 -1.2 -9.23211 -2.83075e+06 -5.41802e+06 -3.80838e+06 -935940 1.12867e+06 529079
12 3 O 1.39179 54.2316 4.79709 -1.2 -8.7861 -3.2523e+06 -877343 -749916 -2.67155e+06 481489 -625263
13 3 O 0.81756 57.602 3.32252 -1.2 -9.36 -3.26513e+06 -3.57879e+06 -512431 -18842.9 -833536 -103415
14 3 O 0.913488 57.7149 5.89127 -1.2 -8.84301 -4.18762e+06 -4.69183e+06 -1.76218e+06 125350 988246 1.46529e+06
15 1 Mg 0.193618 53.5378 2.90254 1.2 -8.11573 1.51077e+06 3.4528e+06 98923.5 297684 -480878 1.2533e+06
16 1 Mg 0.320251 49.6522 3.2504 1.2 -7.30675 -65945.3 2.33191e+06 -2.1423e+06 -626458 134841 335210
17 2 Si 2.21121 52.7533 4.74464 2.4 -33.7419 1.02594e+07 1.08117e+07 7.5823e+06 -1.31688e+06 -624931 561009
18 3 O -0.993269 53.0193 4.65536 -1.2 -8.90315 -2.83858e+06 -3.83863e+06 -1.77057e+06 319491 -1.57491e+06 -539580
19 3 O 2.10791 49.0446 3.46324 -1.2 -7.3916 58036.6 -1.00183e+06 -2.78519e+06 -380228 -859808 -1.32868e+06
20 3 O 1.67873 52.0757 3.379 -1.2 -8.76561 -4.07994e+06 -2.84127e+06 -2.21983e+06 -1.20499e+06 1.56881e+06 615530
21 1 Mg -0.103964 54.3138 0.113819 1.2 -7.46073 -1.38587e+06 2.29135e+06 695517 1.28707e+06 1.56193e+06 -1.76823e+06
22 3 O 1.59867 51.7434 5.87509 -1.2 -10.4472 -4.11499e+06 -3.86912e+06 -4.91936e+06 1.78482e+06 1.04147e+06 2526.58
23 1 Mg -0.0967905 56.9425 1.50656 1.2 -7.92563 1.5495e+06 1.54715e+06 2.57076e+06 -838333 91403.3 -155157
24 2 Si -2.13495 54.9833 1.64007 2.4 -33.8202 3.45044e+06 1.08265e+07 7.15449e+06 -309245 1.41451e+06 -538504
25 3 O 1.07681 54.8427 1.6807 -1.2 -9.55341 -4.65036e+06 -3.48848e+06 -3.19937e+06 -251677 454650 -421155
26 3 O -1.21608 58.8474 1.69196 -1.2 -9.49162 -3.68207e+06 -5.27773e+06 -3.79485e+06 672423 -175436 -60812.9
27 3 O -1.55955 55.7737 0.392103 -1.2 -9.41943 -2.18978e+06 -2.81542e+06 -6.00094e+06 56596.1 -433306 405166
28 3 O -1.53568 55.7878 2.83726 -1.2 -8.50285 -2.82067e+06 -3.86965e+06 -2.90972e+06 66710.6 -652394 -452437
29 1 Mg -2.52581 59.1773 0.228314 1.2 -7.3252 -1.31429e+06 4.32283e+06 -965919 -589718 -1.4435e+06 -1.70301e+06
30 1 Mg 2.18641 62.2131 1.54542 1.2 -8.50468 1.96066e+06 1.2559e+06 2.1634e+06 1.15658e+06 -250808 -303835
31 2 Si -0.516533 60.3234 1.59207 2.4 -33.0672 3.39301e+06 1.06801e+07 8.57884e+06 -438892 331574 -1.65373e+06
32 3 O 0.989874 60.1162 1.64844 -1.2 -9.62526 -3.83445e+06 -4.37913e+06 -4.58557e+06 -521094 293632 532239
33 3 O -1.42547 64.1196 1.51872 -1.2 -8.49843 -4.51668e+06 -4.26295e+06 -3.46214e+06 -1.34314e+06 891083 69897.1
34 3 O -1.23711 61.0312 0.31206 -1.2 -9.14973 -2.49051e+06 -2.73524e+06 -2.91955e+06 -61114.3 902326 -162694
35 1 Mg -2.52904 69.9446 3.13797 1.2 -8.00293 -635113 5.00644e+06 -803121 -879636 1.05717e+06 1.6836e+06
36 3 O -1.13893 61.0207 2.84571 -1.2 -8.79326 -3.74012e+06 -4.80647e+06 -2.61584e+06 941880 160522 -190886
37 1 Mg -2.51993 66.8117 4.54528 1.2 -8.52055 2.32779e+06 2.03392e+06 1.6933e+06 829002 -369057 436637
38 2 Si 0.111851 68.7742 4.55609 2.4 -34.2095 7.3585e+06 1.11252e+07 8.18716e+06 -216645 348184 1.58365e+06
39 3 O -1.41046 68.8763 4.49808 -1.2 -9.03593 -3.83054e+06 -4.09095e+06 -3.57502e+06 -1.03574e+06 -156046 -725018
40 3 O 1.17031 64.9052 4.58889 -1.2 -9.12674 -2.72478e+06 -6.12785e+06 -2.86855e+06 -709157 466550 1.37057e+06
41 3 O 0.841435 67.9804 3.33947 -1.2 -8.66748 -4.51283e+06 -2.07529e+06 -2.0958e+06 -742517 -1.70732e+06 -621953
42 3 O 0.844732 68.1921 5.89316 -1.2 -8.58363 -3.70724e+06 -4.22899e+06 -3.32512e+06 -219757 2.15961e+06 930643
43 1 Mg -0.204155 64.4624 3.11907 1.2 -8.0432 412689 4.40285e+06 -77713.1 630769 -1.63139e+06 986543
44 1 Mg -0.152621 61.6863 4.58008 1.2 -8.53556 2.00255e+06 886780 2.195e+06 -1.16232e+06 -121869 -89946.4
45 2 Si 1.86574 63.4581 4.62741 2.4 -33.7918 6.22909e+06 9.43578e+06 7.18655e+06 -811202 189413 -152216
46 3 O -1.31059 63.5447 4.61053 -1.2 -9.20451 -2.5695e+06 -3.69521e+06 -3.23085e+06 83669 -979547 604141
47 3 O 0.823529 59.8411 4.62277 -1.2 -8.99696 -4.02943e+06 -4.56329e+06 -2.78406e+06 666395 -954969 1.77036e+06
48 3 O 1.33074 62.7268 3.30482 -1.2 -8.72935 -3.63551e+06 -3.59432e+06 -1.9021e+06 144151 289652 140786
49 1 Mg -0.142723 64.5887 0.146889 1.2 -8.18678 -1.19308e+06 3.12206e+06 -948428 925988 1.73078e+06 -1.80035e+06
50 3 O 1.12901 62.8749 5.83903 -1.2 -8.96438 -4.07265e+06 -4.88768e+06 -4.17608e+06 -119560 -313370 2.54634e+06
51 1 Mg -0.0474188 67.5314 1.607 1.2 -8.63868 1.8093e+06 1.007e+06 1.50198e+06 -578648 -150673 180903
52 2 Si -2.17035 65.633 1.51193 2.4 -34 6.86732e+06 1.10045e+07 6.18079e+06 104389 424376 550641
53 3 O 1.07252 65.3574 1.49675 -1.2 -9.03737 -4.58419e+06 -4.20063e+06 -2.73751e+06 697500 -809990 -467103
54 3 O -1.04657 69.3046 1.68866 -1.2 -9.11005 -3.45349e+06 -3.60776e+06 -2.83934e+06 543403 115160 846610
55 3 O -1.4364 66.2628 0.282962 -1.2 -8.99235 -3.53444e+06 -4.5516e+06 -4.02775e+06 722740 -811817 1.50891e+06
56 3 O -1.48971 66.2681 2.79526 -1.2 -8.72185 -2.74292e+06 -4.14262e+06 -1.97337e+06 -23535.4 508116 -1.65801e+06
57 1 Mg -2.46213 69.7804 0.275639 1.2 -7.94133 -448927 4.44444e+06 -1.17996e+06 -777817 -1.69315e+06 -1.28057e+06
58 1 Mg 2.34253 72.8705 1.58673 1.2 -8.51907 2.09762e+06 -3720.34 2.06428e+06 465012 -350036 59377.6
59 2 Si -0.468273 70.8414 1.69532 2.4 -33.415 6.59831e+06 1.19453e+07 7.34141e+06 -585294 -1.02466e+06 739017
60 3 O 1.10772 70.7095 1.62726 -1.2 -9.27457 -1.62524e+06 -4.64924e+06 -3.61518e+06 -1.1486e+06 -755742 -330681
61 3 O -1.40229 74.55 1.62044 -1.2 -9.06454 -3.52536e+06 -6.41192e+06 -3.51544e+06 -1.16472e+06 187210 -579322
62 3 O -1.09886 71.5453 0.44303 -1.2 -9.07628 -3.47508e+06 -3.19702e+06 -2.44653e+06 212566 174040 -24935
63 1 Mg -2.44537 80.1369 3.02712 1.2 -7.61539 -761614 4.47568e+06 -815466 -1.28427e+06 2.68005e+06 1.38568e+06
64 3 O -1.20216 71.5958 2.94304 -1.2 -8.81151 -3.14613e+06 -2.87652e+06 -2.18857e+06 231907 -958748 545589
65 1 Mg -2.23965 77.2686 4.5523 1.2 -8.48708 2.22991e+06 586140 675749 822038 560771 662246
66 2 Si 0.380875 79.2421 4.58537 2.4 -33.5014 5.67152e+06 1.09382e+07 8.55586e+06 -283179 -13937.8 280047
67 3 O -1.17274 79.2712 4.59386 -1.2 -9.2899 -2.02418e+06 -3.80203e+06 -3.56657e+06 -544920 701840 525455
68 3 O 1.46581 75.5034 4.59517 -1.2 -9.20605 -3.92026e+06 -7.26333e+06 -3.45103e+06 -131620 1.23364e+06 605769
69 3 O 1.00262 78.471 3.27997 -1.2 -8.93663 -2.41504e+06 -3.38589e+06 -1.20313e+06 -215348 -511671 -256198
70 3 O 1.07861 78.6208 5.88245 -1.2 -8.81166 -4.25355e+06 -3.31066e+06 -2.31e+06 -419396 755496 -321467
71 1 Mg -0.0104913 74.9501 3.11489 1.2 -8.05412 -250827 4.48838e+06 -969965 1.2536e+06 -1.49502e+06 1.16938e+06
72 1 Mg -0.18774 72.2185 4.66687 1.2 -8.65871 2.40132e+06 1.35808e+06 1.36971e+06 -327101 404079 151726
73 2 Si 2.0599 74.0641 4.65161 2.4 -33.7961 4.35284e+06 1.03491e+07 8.1161e+06 1.30231e+06 147165 -544659
74 3 O -1.1544 74.0936 4.5727 -1.2 -9.29973 -3.69437e+06 -4.97791e+06 -4.62091e+06 831747 -5860.96 256020
75 3 O 0.767213 70.2725 4.59188 -1.2 -8.65215 -3.7381e+06 -4.44673e+06 -2.13101e+06 1.22143e+06 596777 888156
76 3 O 1.3442 73.3293 3.40123 -1.2 -8.65 -3.76917e+06 -4.18908e+06 -1.16688e+06 655902 553292 -411856
77 1 Mg -0.0535198 75.0009 0.0275514 1.2 -7.97023 -1.58096e+06 3.88198e+06 -816534 1.35298e+06 2.16257e+06 -2.00124e+06
78 3 O 1.39923 73.4072 5.96386 -1.2 -8.83133 -3.3167e+06 -3.15916e+06 -3.07922e+06 269270 -803795 -123917
79 1 Mg -0.0239137 77.9185 1.56209 1.2 -8.58771 1.52842e+06 840061 3.06058e+06 -1.48485e+06 -137144 -568391
80 2 Si -1.98768 76.0408 1.61827 2.4 -33.4784 8.84178e+06 9.23726e+06 8.20796e+06 -122202 -59846 -1.12248e+06
81 3 O 1.16409 75.9926 1.59352 -1.2 -9.02465 -718804 -3.40736e+06 -3.28128e+06 1.21518e+06 -664659 29825.2
82 3 O -1.11269 79.6635 1.57076 -1.2 -9.16371 -2.15431e+06 -2.16778e+06 -2.44334e+06 601794 208929 -122829
83 3 O -1.23506 76.7471 0.368537 -1.2 -9.10791 -3.94176e+06 -3.48885e+06 -793829 286867 -1.00449e+06 828170
84 3 O -1.34283 76.5548 3.00121 -1.2 -8.80115 -4.59928e+06 -5.14082e+06 -2.42153e+06 -325791 1.85668e+06 -1.27634e+06
85 1 Mg -2.49397 80.2865 0.11725 1.2 -7.72002 -251542 3.86232e+06 -211977 -1.21896e+06 -1.42984e+06 -2.32096e+06
86 1 Mg 2.10467 83.0667 1.37365 1.2 -8.24465 1.41443e+06 1.43474e+06 2.69053e+06 1.28042e+06 -247923 473860
87 2 Si -0.506588 81.2897 1.56811 2.4 -32.8949 3.58708e+06 1.14718e+07 6.50586e+06 103268 79452.8 -243409
88 3 O 1.04196 81.1886 1.47352 -1.2 -9.58902 -1.86952e+06 -3.8523e+06 -4.37337e+06 -623305 -375344 -540454
89 3 O -1.55779 85.0188 1.6656 -1.2 -8.85429 -1.52468e+06 -2.28387e+06 -2.48588e+06 -26573.8 -482488 68017.6
90 3 O -1.12601 81.8655 0.246153 -1.2 -9.38767 -3.37775e+06 -3.07888e+06 -2.63041e+06 620852 -244415 457654
91 1 Mg -2.35049 90.6026 2.87736 1.2 -7.61622 -1.40653e+06 4.68975e+06 -1.50068e+06 -1.4766e+06 2.3362e+06 1.39108e+06
92 3 O -1.15302 81.9078 2.78331 -1.2 -9.35237 -3.83798e+06 -4.16384e+06 -3.47286e+06 606656 391613 -967825
93 1 Mg -2.35178 87.8306 4.48829 1.2 -8.28888 1.82584e+06 1.19654e+06 1.94958e+06 1.00683e+06 116572 371228
94 2 Si 0.369889 89.7985 4.36862 2.4 -33.2139 4.36853e+06 1.09791e+07 7.51046e+06 570382 31222.3 946711
95 3 O -1.16065 89.8098 4.35345 -1.2 -9.46189 -2.85337e+06 -4.16849e+06 -4.26131e+06 155150 213182 -389130
96 3 O 1.45839 85.9631 4.43154 -1.2 -9.20315 -2.14168e+06 -2.60511e+06 -1.85315e+06 -1.51291e+06 -7157.85 -788445
97 3 O 1.00472 89.1216 3.06882 -1.2 -9.06956 -3.65159e+06 -3.77717e+06 -2.10358e+06 -115541 -284827 -856483
98 3 O 1.05551 89.0551 5.59106 -1.2 -9.23038 -3.77504e+06 -2.66336e+06 -3.55193e+06 -64632.8 576535 -335481
99 1 Mg 0.0562827 85.5595 3.05204 1.2 -7.69524 -249959 4.75338e+06 -155552 946437 -1.21747e+06 1.82697e+06
100 1 Mg -0.124413 82.5584 4.4352 1.2 -8.35693 1.0659e+06 1.54686e+06 2.02371e+06 -684894 56771.3 -277852
101 2 Si 2.08506 84.3478 4.4716 2.4 -32.7329 6.18011e+06 1.18371e+07 8.28965e+06 772098 -1.19648e+06 940437
102 3 O -1.14313 84.5082 4.43309 -1.2 -9.70867 -2.85212e+06 -3.29452e+06 -3.63385e+06 2.21843e+06 -745386 -278982
103 3 O 0.990047 80.7241 4.41299 -1.2 -9.29537 -2.38312e+06 -4.41297e+06 -3.10713e+06 256238 462475 -117948
104 3 O 1.27132 83.6764 3.2601 -1.2 -8.96048 -3.27616e+06 -3.22632e+06 -2.0741e+06 148945 2.11584e+06 -156314
105 1 Mg -0.0926446 85.7293 -0.0190102 1.2 -7.76989 61854.2 3.22515e+06 582210 1.10436e+06 960795 -1.31829e+06
106 3 O 1.23686 83.7986 5.76215 -1.2 -9.45922 -1.4923e+06 -3.85092e+06 -3.3044e+06 263015 -1.90053e+06 268747
107 1 Mg -0.045782 88.5111 1.29445 1.2 -8.06696 1.50831e+06 501098 2.49239e+06 -598061 367556 834948
108 2 Si -2.08039 86.5744 1.60419 2.4 -33.2776 4.94092e+06 1.17054e+07 7.11978e+06 -256443 811884 732214
109 3 O 1.08893 86.5253 1.43232 -1.2 -9.54796 -1.68763e+06 -3.53748e+06 -2.73772e+06 903166 846683 -753624
110 3 O -1.03155 90.2649 1.43035 -1.2 -9.62969 -2.50115e+06 -6.08606e+06 -3.74688e+06 965563 228954 -550209
111 3 O -1.45114 87.2033 0.272698 -1.2 -9.34632 -3.25941e+06 -3.29996e+06 -2.97532e+06 164506 -331028 -211109
112 3 O -1.39393 87.2895 2.7848 -1.2 -9.16536 -2.69408e+06 -4.25485e+06 -3.46088e+06 -678960 373902 -1.59158e+06
113 1 Mg -2.42832 90.6461 -0.0569584 1.2 -7.60647 -1.51801e+06 4.64301e+06 -40641.7 -1.17766e+06 -1.69269e+06 -363996
114 1 Mg 2.25961 93.6445 1.20395 1.2 -8.60466 1.52408e+06 1.3824e+06 815168 1.35354e+06 -615196 85328.6
115 2 Si -0.438904 91.7621 1.38552 2.4 -33.2197 5.55335e+06 1.00401e+07 6.70745e+06 -178846 -145860 288685
116 3 O 1.09954 91.7867 1.28896 -1.2 -9.29449 -2.35033e+06 -3.87651e+06 -3.47669e+06 -882486 -282741 -261406
117 3 O -1.43129 95.485 1.27457 -1.2 -8.94147 -3.84884e+06 -5.6436e+06 -2.83054e+06 -896756 -111551 -333519
118 3 O -1.10008 92.4246 0.105412 -1.2 -9.21398 -3.91748e+06 -3.09139e+06 -1.69022e+06 242474 -406034 458558
119 1 Mg -2.39714 101.005 2.75319 1.2 -8.36845 -973062 4.11836e+06 -491974 -1.36686e+06 1.30857e+06 2.37522e+06
120 3 O -1.12109 92.3864 2.68311 -1.2 -9.00731 -3.49645e+06 -4.19208e+06 -1.9641e+06 -178470 -481380 -505873
121 1 Mg -2.22635 98.0697 4.18962 1.2 -8.37057 2.05693e+06 976515 755577 743421 -433970 -259205
122 2 Si 0.369066 100.04 4.22475 2.4 -33.6061 7.40722e+06 1.07291e+07 8.04785e+06 -179649 484038 460001
123 3 O -1.17928 100.149 4.15005 -1.2 -9.23295 -2.49079e+06 -4.09354e+06 -3.1381e+06 -190572 -420668 -143522
124 3 O 1.44931 96.3402 4.22859 -1.2 -9.05692 -1.806e+06 -4.95945e+06 -3.79502e+06 -1.63934e+06 -191576 30977.8
125 3 O 1.07744 99.3904 2.90606 -1.2 -8.7922 -4.26607e+06 -3.24355e+06 -1.86382e+06 -1.06241e+06 -1.27598e+06 -949935
126 3 O 1.03159 99.3361 5.51222 -1.2 -8.99524 -2.17943e+06 -3.5245e+06 -693174 -583920 958220 505793
127 1 Mg 0.0583543 95.9148 2.72998 1.2 -7.9905 -570293 4.31293e+06 -377819 928548 -1.02895e+06 1.15892e+06
128 1 Mg -0.130611 93.0647 4.33935 1.2 -8.33557 1.22935e+06 431087 2.51444e+06 -303942 276809 -163154
129 2 Si 2.11208 94.8026 4.18326 2.4 -33.1188 6.5663e+06 1.04357e+07 9.37057e+06 -47410.9 -335547 -140358
130 3 O -1.06516 94.8933 4.19649 -1.2 -9.69428 -2.17422e+06 -3.55614e+06 -3.55423e+06 1.10685e+06 502058 -131412
131 3 O 1.05716 91.2816 4.34623 -1.2 -9.3189 -2.10493e+06 -4.17348e+06 -3.08989e+06 606945 60477.1 -330225
132 3 O 1.33332 94.2655 2.89362 -1.2 -8.89144 -2.94836e+06 -5.22806e+06 -2.29205e+06 350933 1.78107e+06 -1.024e+06
133 1 Mg 0.00235807 95.831 -0.156689 1.2 -8.14302 83958.1 4.43099e+06 -989146 1.16824e+06 1.54318e+06 -1.57025e+06
134 3 O 1.41644 94.2193 5.5152 -1.2 -9.07375 -1.70286e+06 -4.0987e+06 -1.75794e+06 56079.7 -991966 927573
135 1 Mg 0.14178 98.7769 1.25534 1.2 -9.07546 2.6753e+06 763319 1.98808e+06 -979036 -197334 53761
136 2 Si -2.00434 96.9801 1.26271 2.4 -34.105 7.16676e+06 1.14593e+07 6.04557e+06 1.41378e+06 -110485 -539709
137 3 O 1.15747 96.8552 1.24127 -1.2 -9.11752 -2.52985e+06 -4.46222e+06 -3.43729e+06 1.693e+06 143895 -2506.48
138 3 O -1.02307 100.564 1.15386 -1.2 -8.43983 -2.11749e+06 -3.30164e+06 -2.56972e+06 1.34385e+06 217733 -1.35038e+06
139 3 O -1.31188 97.7096 0.00485344 -1.2 -8.35345 -3.70436e+06 -3.90339e+06 -2.68526e+06 135532 -923200 -526737
140 3 O -1.27669 97.6364 2.47202 -1.2 -8.80489 -3.39904e+06 -4.90365e+06 -4.54733e+06 27882.9 815784 -1.16515e+06
141 1 Mg -2.4507 101.303 -0.255353 1.2 -8.21244 -388319 5.23063e+06 -806424 -989668 -1.2897e+06 -1.52662e+06
142 1 Mg 7.07843 104.007 1.36511 1.2 -8.85076 2.4816e+06 643620 2.57148e+06 856929 223425 -144719
143 2 Si -0.353637 102.12 1.27086 2.4 -33.8378 7.67958e+06 1.29839e+07 6.94919e+06 841268 -253206 633537
144 3 O 1.20988 102.1 1.32014 -1.2 -9.23218 -2.54196e+06 -4.01548e+06 -3.08329e+06 -114984 -434377 -622624
145 3 O 3.3738 105.78 1.44502 -1.2 -8.52625 -2.11002e+06 -2.8267e+06 -3.85738e+06 -2.41082e+06 -614189 -30996.4
146 3 O -1.02725 102.897 0.0395437 -1.2 -8.77805 -3.45094e+06 -3.17419e+06 -2.03117e+06 -315522 1.1938e+06 -172286
147 1 Mg 2.3859 111.646 2.87084 1.2 -7.98213 -1.61743e+06 3.76557e+06 -489879 -959567 1.75922e+06 1.62191e+06
148 3 O -1.11276 102.681 2.56335 -1.2 -8.76382 -3.44127e+06 -3.72719e+06 -2.08148e+06 -580737 -752253 -571654
149 1 Mg 2.44451 108.493 4.33557 1.2 -8.52421 2.39488e+06 1.18879e+06 1.79451e+06 708103 20136.4 -208487
150 2 Si 5.04761 110.459 4.27915 2.4 -33.5531 7.23256e+06 9.69845e+06 8.53535e+06 318919 -176003 -148605
151 3 O 3.50191 110.598 4.27038 -1.2 -9.33815 -3.27401e+06 -3.37554e+06 -5.06009e+06 43795.6 421685 -477660
152 3 O 6.16718 106.655 4.39995 -1.2 -8.53352 -2.96192e+06 -5.76566e+06 -4.07429e+06 -1.13625e+06 202092 -486372
153 3 O 5.74245 109.823 3.01905 -1.2 -8.77967 -3.323e+06 -3.06623e+06 -3.78384e+06 -836886 -1.03627e+06 -1.20834e+06
154 3 O 5.77755 109.796 5.55268 -1.2 -8.83623 -3.42399e+06 -3.47002e+06 -3.34393e+06 -988580 1.23455e+06 848634
155 1 Mg 4.78288 106.273 2.72038 1.2 -8.41145 -766675 3.35184e+06 -48384.8 449398 -838194 1.31877e+06
156 1 Mg -0.0523961 103.289 4.29775 1.2 -8.59156 2.48406e+06 1.31084e+06 2.20463e+06 -333774 395201 921073
157 2 Si 6.87181 105.194 4.34872 2.4 -34.6492 7.61172e+06 7.51503e+06 9.6434e+06 -412466 521537 1.33636e+06
158 3 O 3.6425 105.261 4.3311 -1.2 -8.90394 -5.27001e+06 -1.96066e+06 -4.88724e+06 496826 475172 -115460
159 3 O 1.07569 101.516 4.26926 -1.2 -9.09153 -3.23479e+06 -4.45553e+06 -2.64513e+06 1.04479e+06 610179 -428906
160 3 O 6.09137 104.663 3.00915 -1.2 -8.39002 -3.71549e+06 -3.57936e+06 -2.69092e+06 587642 1.82063e+06 -2.13286e+06
161 1 Mg 4.69853 106.302 -0.133345 1.2 -8.08078 -1.02039e+06 4.02876e+06 -749796 888242 2.3328e+06 -1.80489e+06
162 3 O 6.19664 104.545 5.59424 -1.2 -8.40903 -4.17847e+06 -3.86826e+06 -4.16912e+06 -206456 -1.05085e+06 1.28324e+06
163 1 Mg 4.77907 109.243 1.34024 1.2 -8.54336 1.71268e+06 269498 2.44613e+06 -684951 -50486 -278424
164 2 Si 2.61882 107.387 1.40885 2.4 -33.3902 7.49707e+06 1.03334e+07 8.95599e+06 -1.36217e+06 1.40894e+06 -517584
165 3 O 5.81694 107.345 1.39047 -1.2 -9.39005 -2.94947e+06 -3.14587e+06 -5.0641e+06 92020.1 1.50302e+06 800401
166 3 O 3.68928 111.006 1.34911 -1.2 -9.12504 -1.61673e+06 -2.3348e+06 -3.88484e+06 1.53733e+06 258421 845720
167 3 O 3.24698 107.918 0.106384 -1.2 -8.98231 -4.65422e+06 -3.13971e+06 -3.39111e+06 234210 -420345 1.69436e+06
168 3 O 3.43519 107.94 2.71394 -1.2 -8.88888 -2.7276e+06 -3.77256e+06 -1.93345e+06 644994 1.87965e+06 -738076
169 1 Mg 2.27166 111.58 -0.0943809 1.2 -7.98974 -858603 3.81989e+06 122384 -733219 -1.67521e+06 -1.65635e+06
170 1 Mg 7.07196 114.369 1.31974 1.2 -8.76755 2.25731e+06 -800863 3.23729e+06 1.25822e+06 -615812 529309
171 2 Si 4.38767 112.539 1.39676 2.4 -33.2993 5.80184e+06 1.01115e+07 9.72257e+06 880966 516836 420700
172 3 O 5.93514 112.553 1.42925 -1.2 -9.46615 -2.48944e+06 -3.27947e+06 -5.33771e+06 709.92 7567.23 170015
173 3 O 3.44222 116.278 1.24233 -1.2 -8.67161 -3.23034e+06 -3.55492e+06 -5.52021e+06 -1.73776e+06 737586 1.2513e+06
174 3 O 3.6898 113.188 0.121753 -1.2 -8.80684 -3.77843e+06 -2.99737e+06 -4.37129e+06 66967.1 842490 414033
175 1 Mg 2.27615 121.932 2.86871 1.2 -7.93966 -1.30451e+06 2.93484e+06 173599 -1.09105e+06 1.58745e+06 1.73686e+06
176 3 O 3.67661 113.247 2.65356 -1.2 -8.97338 -3.83289e+06 -1.9055e+06 -3.49588e+06 -622149 -449031 116486
177 1 Mg 2.3319 119.063 4.26248 1.2 -8.48594 1.88046e+06 85169.3 4.17926e+06 708689 245481 266324
178 2 Si 5.01128 120.943 4.37755 2.4 -33.1682 8.34726e+06 9.30204e+06 9.98511e+06 -420697 981648 -949461
179 3 O 3.41581 121.103 4.46427 -1.2 -9.33742 -897047 -3.04759e+06 -4.68824e+06 -870394 1.37436e+06 397889
180 3 O 6.048 117.283 4.37129 -1.2 -8.92043 -3.70922e+06 -3.85057e+06 -2.70488e+06 -964314 433292 66613.8
181 3 O 5.62779 120.229 3.11313 -1.2 -9.07307 -3.4488e+06 -3.29647e+06 -3.61456e+06 213452 -1.66779e+06 -575297
182 3 O 5.82469 120.256 5.66411 -1.2 -8.89255 -3.01055e+06 -1.2066e+06 -1.64826e+06 -1.30626e+06 1.39945e+06 -38217.3
183 1 Mg 4.67414 116.912 2.74364 1.2 -8.16519 -412970 2.9286e+06 1.32064e+06 692029 -1.45054e+06 1.43201e+06
184 1 Mg 4.73259 113.904 4.32017 1.2 -8.73603 2.53623e+06 182191 2.71959e+06 -1.37395e+06 157246 123725
185 2 Si 6.74296 115.826 4.2763 2.4 -34.1544 8.09774e+06 7.88547e+06 1.04774e+07 183436 -696024 -114061
186 3 O 3.51137 115.993 4.25528 -1.2 -8.97162 -3.93174e+06 -2.65631e+06 -4.20847e+06 860767 -451306 -40480.7
187 3 O 5.81076 111.957 4.2884 -1.2 -8.8854 -3.38077e+06 -4.18171e+06 -5.06806e+06 1.90493e+06 -390895 -99859.8
188 3 O 6.07489 115.116 3.0135 -1.2 -8.59949 -3.42595e+06 -1.40714e+06 -3.714e+06 332138 536330 -444985
189 1 Mg 4.75286 116.632 -0.168832 1.2 -8.25578 -1.47577e+06 2.86712e+06 -39610.5 541216 1.31351e+06 -2.03685e+06
190 3 O 5.94723 115.06 5.54985 -1.2 -8.46968 -2.87988e+06 -1.54743e+06 -2.81622e+06 388642 -1.54924e+06 300070
191 1 Mg 4.76019 119.656 1.36576 1.2 -8.41592 1.90648e+06 -449817 3.67228e+06 -613149 -481510 386737
192 2 Si 2.67192 117.746 1.21076 2.4 -33.5931 6.51028e+06 8.50945e+06 1.06318e+07 -315896 -716342 144043
193 3 O 5.89181 117.663 1.27399 -1.2 -9.36573 -3.7328e+06 -2.61176e+06 -4.86349e+06 -177453 -1.36902e+06 448228
194 3 O 3.72461 121.359 1.49615 -1.2 -8.95997 -1.48624e+06 -2.59687e+06 -4.22154e+06 1.53018e+06 -379616 670796
195 3 O 3.50276 118.334 -0.00966326 -1.2 -8.67223 -3.04173e+06 -3.57216e+06 -4.20794e+06 492587 -1.24626e+06 1.36155e+06
196 3 O 3.27263 118.476 2.55222 -1.2 -8.93789 -3.12715e+06 -2.60717e+06 -2.50074e+06 240467 878266 256069
197 1 Mg 2.3283 122.002 -0.00731549 1.2 -7.68484 -1.05494e+06 3.23013e+06 637522 -1.62263e+06 -1.68074e+06 -1.61347e+06
198 1 Mg 6.92216 124.882 1.5965 1.2 -8.14094 446962 193534 2.86516e+06 565876 107839 -1.0318e+06
199 2 Si 4.36258 122.976 1.50364 2.4 -32.9094 4.82631e+06 8.62938e+06 1.04293e+07 341976 668478 -657348
200 3 O 5.89396 122.922 1.48063 -1.2 -9.68221 -3.15907e+06 -2.04913e+06 -6.3908e+06 -1.00386e+06 -564443 552184
201 3 O 3.25305 126.601 1.55848 -1.2 -9.14015 -2.65387e+06 -5.85496e+06 -4.57276e+06 -1.1731e+06 -527450 -655272
202 3 O 3.685 123.498 0.152096 -1.2 -9.26027 -2.98356e+06 -3.13582e+06 -2.99976e+06 375093 838081 793184
203 1 Mg 2.47801 132.516 3.08323 1.2 -8.11893 -493843 3.15547e+06 349729 -893934 794523 1.1652e+06
204 3 O 3.57354 123.563 2.70642 -1.2 -9.19817 -4.14389e+06 -3.12383e+06 -4.14762e+06 220802 -712035 -584102
205 1 Mg 2.52321 129.429 4.57949 1.2 -7.75104 1.08438e+06 1.03061e+06 2.04843e+06 993636 -876153 864615
206 2 Si 5.07989 131.319 4.49616 2.4 -33.1915 4.97671e+06 9.17279e+06 9.57699e+06 -429473 -315770 -1.29598e+06
207 3 O 3.56445 131.499 4.54138 -1.2 -9.70758 -4.08862e+06 -2.48739e+06 -3.36978e+06 -704162 -827411 649676
208 3 O 6.05926 127.485 4.55904 -1.2 -9.62909 -379348 -3.61599e+06 -4.22539e+06 -1.02362e+06 1.14557e+06 317731
209 3 O 5.85967 130.63 3.29505 -1.2 -9.23412 -1.3834e+06 -3.1565e+06 -2.88208e+06 -122519 -781244 -822049
210 3 O 5.70734 130.618 5.82771 -1.2 -9.18767 -1.41479e+06 -2.42579e+06 -3.59037e+06 -715215 654651 960203
211 1 Mg 4.59018 126.917 3.08414 1.2 -7.42814 -981073 3.31426e+06 53492 868304 -790012 814915
212 1 Mg 4.53225 124.162 4.54822 1.2 -8.41094 1.35306e+06 -789794 3.08277e+06 -476666 298235 1.11256e+06
213 2 Si 6.68864 125.973 4.56751 2.4 -32.4763 5.60143e+06 9.71243e+06 1.00224e+07 -38842 -1.00905e+06 -1.29678e+06
214 3 O 3.53374 126.034 4.53737 -1.2 -9.97477 -1.31166e+06 -3.05251e+06 -5.45843e+06 972408 -1.04945e+06 995467
215 3 O 5.657 122.452 4.22956 -1.2 -9.03703 -3.48388e+06 -3.19119e+06 -3.54327e+06 1.14113e+06 293706 -356464
216 3 O 6.02672 125.334 3.28371 -1.2 -9.35577 -2.57772e+06 -4.55668e+06 -4.15377e+06 424724 1.68922e+06 -394100
217 1 Mg 4.79993 127.103 0.0701024 1.2 -7.64527 -661377 2.84031e+06 -174451 376505 811058 -1.52967e+06
218 3 O 5.88667 125.293 5.8263 -1.2 -9.00156 -2.86999e+06 -2.12171e+06 -3.2839e+06 466480 -1.45256e+06 -97000.5
219 1 Mg 4.95822 129.997 1.53892 1.2 -7.96696 1.72959e+06 1.55346e+06 2.39008e+06 -289760 746327 369653
220 2 Si 2.64069 128.093 1.56465 2.4 -33.2344 5.52906e+06 8.4847e+06 8.00867e+06 892010 -1.49333e+06 124723
221 3 O 5.79295 127.926 1.55333 -1.2 -9.69283 -2.48127e+06 -2.11428e+06 -3.9881e+06 1.15997e+06 -318002 -680734
222 3 O 3.85542 131.884 1.52488 -1.2 -9.01614 -1.504e+06 -5.79738e+06 -4.17392e+06 665555 267647 -492179
223 3 O 3.29031 128.751 0.272756 -1.2 -8.99646 -1.30021e+06 -3.21712e+06 -3.12438e+06 -296795 -868746 -18656.4
224 3 O 3.32685 128.689 2.78997 -1.2 -9.31001 -2.45798e+06 -3.76829e+06 -4.21235e+06 184142 695666 -1.88039e+06
225 1 Mg 2.35788 132.331 0.0448428 1.2 -7.66534 -858726 3.58421e+06 895973 -1.04532e+06 -970134 -1.35917e+06
226 1 Mg 7.20396 135.296 1.5995 1.2 -9.06038 3.22346e+06 -297523 2.29323e+06 781945 -365719 302946
227 2 Si 4.51908 133.306 1.48778 2.4 -34.0739 6.37642e+06 8.5268e+06 8.98396e+06 570002 643907 1.29224e+06
228 3 O 6.0589 133.35 1.61356 -1.2 -9.17637 -3.92679e+06 -2.85623e+06 -4.06698e+06 -121046 797253 410980
229 3 O 3.54195 137.059 1.62453 -1.2 -8.70352 -3.77208e+06 -1.92802e+06 -4.11937e+06 -2.01067e+06 -84968.8 6997.9
230 3 O 3.77411 133.981 0.298902 -1.2 -8.75451 -3.41017e+06 -3.6975e+06 -5.64546e+06 -335356 670733 868147
231 1 Mg 2.14625 142.85 3.17886 1.2 -7.79809 -1.24636e+06 3.08932e+06 -776735 -859892 1.66525e+06 2.00892e+06
232 3 O 3.81925 134.04 2.81682 -1.2 -8.32742 -4.67046e+06 -2.30231e+06 -2.33062e+06 -680329 -1.28165e+06 490278
233 1 Mg 2.43715 139.99 4.6139 1.2 -8.40764 2.10198e+06 365231 2.35508e+06 1.16073e+06 -717630 995252
234 2 Si 5.02618 141.866 4.73424 2.4 -33.2285 5.45066e+06 8.22688e+06 8.0457e+06 -1.3535e+06 -278146 1.36685e+06
235 3 O 3.46467 141.971 4.6188 -1.2 -9.38938 -2.329e+06 -3.76699e+06 -3.79353e+06 -1.20547e+06 -465825 895757
236 3 O 6.11584 138.005 4.65225 -1.2 -9.02332 -1.55489e+06 -3.31087e+06 -4.54351e+06 -860832 -284380 -1.4649e+06
237 3 O 5.80562 141.127 3.42914 -1.2 -8.88323 -2.62402e+06 -3.14617e+06 -1.95674e+06 -1.36634e+06 -1.08801e+06 -750438
238 3 O 5.57223 141.208 5.97412 -1.2 -9.02639 -3.90563e+06 -2.90236e+06 -6.38216e+06 725933 -1127.63 962471
239 1 Mg 4.77497 137.514 3.12562 1.2 -8.23261 -884556 3.65823e+06 -731251 1.2401e+06 -1.80656e+06 2.31262e+06
240 1 Mg 4.61319 134.723 4.68958 1.2 -8.41526 2.17851e+06 -462242 4.09812e+06 -846969 159075 -91711.6
241 2 Si 6.8252 136.527 4.59393 2.4 -33.4149 3.49258e+06 9.82136e+06 1.04957e+07 -62928.1 46259.1 105208
242 3 O 3.60447 136.593 4.53069 -1.2 -9.72618 -3.96848e+06 -2.94177e+06 -5.4281e+06 -60388.1 43106.5 -438715
243 3 O 5.78915 132.793 4.50165 -1.2 -8.78238 -2.86548e+06 -3.40396e+06 -4.36699e+06 830019 -230807 496527
244 3 O 6.16665 135.946 3.27035 -1.2 -8.41694 -3.86594e+06 -3.74161e+06 -3.82032e+06 -149191 201289 -705128
245 1 Mg 4.89906 137.568 0.243922 1.2 -8.12361 -700848 3.4715e+06 229540 518185 1.7007e+06 -1.35702e+06
246 3 O 6.12572 135.705 5.78902 -1.2 -9.16053 -2.34553e+06 -2.7355e+06 -5.09451e+06 736782 -1.42131e+06 -102975
247 1 Mg 4.80248 140.636 1.66895 1.2 -8.50248 1.92511e+06 227952 3.4457e+06 -983069 185733 -417034
248 2 Si 2.85415 138.655 1.66682 2.4 -33.4294 9.21749e+06 9.67681e+06 7.99846e+06 -268520 -562160 424471
249 3 O 5.98419 138.532 1.68967 -1.2 -9.05017 -352024 -2.88196e+06 -4.20496e+06 488406 1670.54 -525126
250 3 O 3.7051 142.326 1.59707 -1.2 -8.99966 -2.51546e+06 -3.01886e+06 -3.76743e+06 823251 584991 447081
251 3 O 3.50234 139.32 0.396762 -1.2 -9.03922 -3.29356e+06 -2.65568e+06 -4.16186e+06 -109941 -1.24799e+06 302531
252 3 O 3.53428 139.272 2.91563 -1.2 -9.03957 -4.11015e+06 -2.04384e+06 -3.24425e+06 69572.2 315003 -975929
253 1 Mg 2.41109 142.939 0.132556 1.2 -7.83293 -36299 3.27893e+06 613640 -1.3938e+06 -1.74619e+06 -1.66367e+06
254 1 Mg 7.09221 145.759 1.50584 1.2 -8.27374 1.60649e+06 -1.13819e+06 2.65858e+06 512268 -447005 181548
255 2 Si 4.37613 143.841 1.78534 2.4 -33.238 4.64095e+06 9.61588e+06 1.00787e+07 1.37092e+06 -1.60445e+06 1.22954e+06
256 3 O 5.91711 143.78 1.70953 -1.2 -9.52922 -2.62201e+06 -3.34882e+06 -4.47238e+06 337928 -1.60258e+06 -202271
257 3 O 3.47123 147.382 1.50952 -1.2 -9.33193 -3.62418e+06 -4.7157e+06 -4.0847e+06 -599440 537501 424916
258 3 O 3.81131 144.55 0.516748 -1.2 -9.27792 -3.84256e+06 -4.45092e+06 -2.41988e+06 457146 -48340.8 1.00166e+06
259 1 Mg 1.69066 152.589 1.98263 1.2 -7.31401 -247959 -1.9395e+06 1.69385e+06 816618 -806816 302413
260 3 O 3.71174 144.397 3.1649 -1.2 -9.05072 -2.92376e+06 -2.96837e+06 -2.30827e+06 525600 -1.64721e+06 560172
261 1 Mg 1.69948 150.778 5.18059 1.2 -8.14677 -1.03809e+06 4.17471e+06 880365 -360728 1.23436e+06 998809
262 2 Si 3.81727 151.143 3.32903 2.4 -32.7567 8.8308e+06 6.85776e+06 7.36952e+06 784174 -185916 -195298
263 3 O 2.31399 151.667 3.53141 -1.2 -8.81667 -4.25978e+06 -2.82591e+06 -5.85853e+06 102453 373051 -1.217e+06
264 3 O 6.06817 148.566 4.67682 -1.2 -9.37177 -1.6568e+06 -2.59757e+06 -2.48921e+06 -514058 140805 -199210
265 3 O 4.48675 152.03 2.17718 -1.2 -9.37335 -3.43793e+06 212191 -4.53975e+06 912534 -1.17591e+06 -719798
266 3 O 4.54149 151.162 4.67177 -1.2 -9.13405 -5.54872e+06 -3.74637e+06 -4.69916e+06 -707443 1.31329e+06 1.02004e+06
267 1 Mg 4.75253 148.051 3.03189 1.2 -7.25065 -895951 2.43362e+06 1.39242e+06 1.98693e+06 -2.4078e+06 2.13503e+06
268 1 Mg 4.54763 145.239 4.71495 1.2 -8.06829 1.21633e+06 208447 3.03596e+06 -788232 -78634.2 563598
269 2 Si 6.76375 147.093 4.61778 2.4 -32.7658 2.09894e+06 1.0526e+07 1.15353e+07 256523 -262218 1.74771e+06
270 3 O 3.5157 147.167 4.58516 -1.2 -10.005 -3.46804e+06 -2.99624e+06 -3.57306e+06 381591 -680598 -985238
271 3 O 5.66061 143.295 4.61777 -1.2 -9.26276 -4.96285e+06 -5.79113e+06 -5.02374e+06 889500 -89948.7 -354939
272 3 O 6.17672 146.451 3.18948 -1.2 -9.101 -2.02952e+06 -1.90853e+06 -1.2449e+06 -51963.6 529693 34571.7
273 1 Mg 4.86612 148.061 -0.0234333 1.2 -7.73771 -1.97288e+06 2.77414e+06 203112 1.59854e+06 2.02202e+06 -1.6913e+06