ITEM: TIMESTEP
52800
ITEM: NUMBER OF ATOMS
5600
ITEM: BOX BOUNDS xy xz yz pp pp pp
0.0000000000000000e+00 7.1234999999999999e+00 0.0000000000000000e+00
0.0000000000000000e+00 2.0198500000000001e+02 2.3744999999999998e+00
0.0000000000000000e+00 1.1958400000000000e+02 0.0000000000000000e+00
ITEM: ATOMS id type element xu yu zu q c_pe c_s[1] c_s[2] c_s[3] c_s[4] c_s[5] c_s[6]
1 1 Mg -1.84061 48.4818 -0.707182 1.2 -7.15515 -1.51771e+06 353377 1.17569e+06 682030 1.13428e+06 -971466
2 1 Mg 2.80614 51.2275 1.86675 1.2 -8.09339 -233374 2.51354e+06 -394133 -519982 -8951.59 95801.5
3 2 Si 0.731966 49.98 0.291888 2.4 -33.8694 5.73324e+06 9.69862e+06 2.32358e+06 -1.29052e+06 225140 -2.55317e+06
4 3 O 1.69385 48.8291 0.725845 -1.2 -8.45935 -3.44044e+06 -3.38062e+06 -2.97373e+06 304806 -1.6988e+06 1.79304e+06
5 3 O -1.54336 53.1818 1.45766 -1.2 -9.285 -2.44218e+06 -6.99226e+06 -2.72532e+06 126247 553830 917558
6 3 O -0.154227 49.4146 -0.819311 -1.2 -8.97561 -5.9299e+06 -4.24896e+06 -6.69782e+06 1.3697e+06 -562537 -531464
7 1 Mg -2.14352 59.095 2.96246 1.2 -7.09381 -2.98788e+06 5.30936e+06 -2.21918e+06 -537003 1.3548e+06 2.45483e+06
8 3 O -0.15849 50.5008 1.37032 -1.2 -8.74675 -4.87471e+06 -6.72817e+06 -8.03739e+06 -219221 2.287e+06 -1.57376e+06
9 1 Mg -2.40037 55.9443 4.52105 1.2 -7.83212 415245 877539 2.7206e+06 276225 -11938 29926
10 2 Si 0.31331 57.878 4.31253 2.4 -31.9884 3.18922e+06 8.75142e+06 8.02481e+06 -336215 -79983.9 533346
11 3 O -1.25716 57.9337 4.34412 -1.2 -10.2975 -1.71733e+06 -4.27547e+06 -3.41521e+06 -142644 -757893 -1.37673e+06
12 3 O 1.25721 54.2306 4.62712 -1.2 -9.70074 -3.42393e+06 -5.11808e+06 -4.17901e+06 -1.46732e+06 228128 -1.97183e+06
13 3 O 0.962271 57.107 3.10839 -1.2 -9.18142 -3.43936e+06 -4.22996e+06 -2.71798e+06 590812 -293310 -1.93259e+06
14 3 O 0.931375 57.2074 5.72885 -1.2 -9.45614 -1.03724e+06 -2.97372e+06 -292632 -164325 1.20456e+06 -958027
15 1 Mg 0.059323 54.0224 3.04757 1.2 -7.14822 -1.56345e+06 4.65013e+06 -1.07657e+06 1.47189e+06 -1.92309e+06 2.16995e+06
16 1 Mg 0.42839 50.4017 3.1291 1.2 -7.50882 2.46559e+06 2.72222e+06 -3.98986e+06 -767283 -801334 -276810
17 2 Si 1.92345 52.745 4.3877 2.4 -32.2765 6.62548e+06 1.07846e+07 6.79147e+06 -506945 -1.16874e+06 2.98849e+06
18 3 O -1.32029 52.9022 4.30971 -1.2 -9.49481 -2.34031e+06 -5.8356e+06 -2.25033e+06 1.83919e+06 -870783 -1.5871e+06
19 3 O 2.7895 50.1661 3.42342 -1.2 -7.33825 302673 -4.56504e+06 -4.6938e+06 645232 -641098 2.28319e+06
20 3 O 1.23038 52.3144 3.01683 -1.2 -9.18734 -5.5367e+06 -4.23195e+06 -3.17998e+06 68577.6 835885 -504910
21 1 Mg -0.0549741 53.7381 0.00810788 1.2 -7.33426 -893839 3.7376e+06 -416562 1.68392e+06 1.05968e+06 -1.00635e+06
22 3 O 1.11404 51.8614 5.58014 -1.2 -10.6709 -3.10444e+06 -3.98502e+06 -3.65052e+06 1.20075e+06 -2.00639e+06 -1.24156e+06
23 1 Mg -0.0366225 56.5149 1.48848 1.2 -8.11111 1.53419e+06 593830 711121 -590755 -1.09963e+06 850604
24 2 Si -2.12801 54.6307 1.49945 2.4 -32.8332 1.07183e+06 1.34583e+07 5.9873e+06 -99709.2 436254 1.48268e+06
25 3 O 1.10895 54.7465 1.40015 -1.2 -9.8009 -4.25983e+06 -6.42461e+06 -3.26499e+06 290071 -867537 -568527
26 3 O -0.874214 58.4833 1.4803 -1.2 -10.0456 -2.89565e+06 -6.18466e+06 -843029 1.51387e+06 535470 -774391
27 3 O -1.30201 55.3682 0.307345 -1.2 -9.36751 -3.90614e+06 -3.9411e+06 -3.69253e+06 67884.1 -789217 -562960
28 3 O -1.5233 55.4136 2.76147 -1.2 -9.4209 -2.02862e+06 -4.79336e+06 -3.45651e+06 837149 198025 -629091
29 1 Mg -2.02709 58.9593 -0.189672 1.2 -6.60737 -1.67339e+06 4.4336e+06 -1.30468e+06 -348536 -790444 -1.21415e+06
30 1 Mg 2.28832 61.7775 1.41575 1.2 -7.95032 2.06309e+06 1.44087e+06 1.85824e+06 -228938 225879 868485
31 2 Si -0.178421 59.9177 1.40906 2.4 -31.6254 3.77941e+06 1.49999e+07 5.1917e+06 -1.98398e+06 -1.25359e+06 1.85847e+06
32 3 O 1.3426 59.98 1.52214 -1.2 -10.1695 -1.62179e+06 -5.54124e+06 -1.99798e+06 -613581 -681787 -1.13407e+06
33 3 O -1.51197 63.7148 1.35329 -1.2 -9.28998 -4.45439e+06 -4.4967e+06 -1.6846e+06 -87770.1 1.50692e+06 -472613
34 3 O -0.920595 60.6256 0.161161 -1.2 -9.77183 -2.35797e+06 -4.61867e+06 -1.23941e+06 -2.04593e+06 2.25111e+06 -591003
35 1 Mg -2.37617 69.6746 2.91256 1.2 -7.50734 -1.37012e+06 5.06802e+06 -270770 -1.65505e+06 1.22348e+06 1.26344e+06
36 3 O -1.02959 60.7131 2.72533 -1.2 -9.33753 -1.73696e+06 -4.25991e+06 400709 -1.57849e+06 -1.3929e+06 -779425
37 1 Mg -2.22899 66.552 4.29354 1.2 -8.38443 1.26291e+06 2.01299e+06 1.17138e+06 1.36114e+06 264717 -101200
38 2 Si 0.495265 68.6141 4.50031 2.4 -32.7401 7.2492e+06 1.09192e+07 5.68599e+06 -190642 -953473 289861
39 3 O -1.1397 68.6033 4.37339 -1.2 -9.48281 -49154.8 -2.40329e+06 -1.25032e+06 -654231 -1.34042e+06 -166871
40 3 O 1.34124 64.7577 4.36308 -1.2 -8.8901 -1.5926e+06 -3.23634e+06 -2.95406e+06 -1.25454e+06 -113842 -2.0278e+06
41 3 O 1.24653 68.0253 3.17671 -1.2 -9.37247 -3.04228e+06 -3.30029e+06 -709623 228451 -260301 -120377
42 3 O 0.99966 67.8733 5.75288 -1.2 -9.0392 -2.96552e+06 -4.60382e+06 -2.39344e+06 907934 282283 412884
43 1 Mg -0.153154 64.147 2.85663 1.2 -7.7467 44607.9 3.79615e+06 -38251.2 405950 -740293 2.4812e+06
44 1 Mg 0.0394777 61.1037 4.51532 1.2 -7.49953 1.40234e+06 1.11783e+06 1.01919e+06 -791704 758613 1.078e+06
45 2 Si 2.02205 63.2196 4.38887 2.4 -33.4053 3.58075e+06 1.10469e+07 7.74189e+06 -1.17097e+06 -26029.5 714164
46 3 O -1.21118 63.3041 4.43634 -1.2 -9.57377 -4.13808e+06 -3.913e+06 -3.68068e+06 140267 26454.9 -1.37911e+06
47 3 O 0.969374 59.2552 4.31044 -1.2 -10.3433 -1.10836e+06 -8.93867e+06 -2.4093e+06 73003.7 106743 -689095
48 3 O 1.37401 62.5914 3.15319 -1.2 -9.03005 -3.25537e+06 -4.73919e+06 -3.59459e+06 -174194 -99601.2 -1.80786e+06
49 1 Mg -0.176108 64.1921 -0.212987 1.2 -7.68944 -3.00649e+06 4.02324e+06 303247 1.03621e+06 2.49396e+06 -1.32825e+06
50 3 O 1.38158 62.4827 5.68336 -1.2 -9.15092 -1.82225e+06 -975317 -2.62018e+06 259766 -202708 58199.6
51 1 Mg 0.0909108 67.1053 1.50296 1.2 -7.56381 2.02564e+06 2.45571e+06 3.10482e+06 -315732 461797 1.3972e+06
52 2 Si -2.17582 65.1916 1.31124 2.4 -32.757 5.82728e+06 1.08547e+07 8.08557e+06 1.87525e+06 -1.65657e+06 -416623
53 3 O 1.01858 64.938 1.39017 -1.2 -9.60556 -2.14326e+06 -3.7916e+06 -3.13817e+06 1.02473e+06 -1.6706e+06 157556
54 3 O -1.02383 68.9771 1.23077 -1.2 -9.66144 -1.0342e+06 -4.00411e+06 -1.19404e+06 473067 -108362 -508774
55 3 O -1.38517 65.8678 0.0154057 -1.2 -9.06084 -1.62573e+06 -3.43846e+06 -1.41179e+06 376011 -730952 -416443
56 3 O -1.58167 65.9089 2.58043 -1.2 -9.38602 -1.8092e+06 -4.36127e+06 -3.36554e+06 285945 1.78467e+06 -1.81801e+06
57 1 Mg -2.56573 69.2815 -0.140125 1.2 -6.93436 -2.66038e+06 5.1176e+06 -982804 -350823 -1.10055e+06 -765800
58 1 Mg 2.44165 72.5843 1.24693 1.2 -7.64575 469837 1.45767e+06 109057 441529 -560902 269497
59 2 Si -0.340871 70.4641 1.17683 2.4 -32.2257 5.6769e+06 1.22374e+07 5.67094e+06 300359 1.38471e+06 212259
60 3 O 1.21194 70.335 1.34175 -1.2 -9.95776 -1.76607e+06 -5.02153e+06 -1.44777e+06 -342837 789292 137073
61 3 O -1.44798 74.368 1.4834 -1.2 -10.2627 -2.49386e+06 -8.04873e+06 -3.31437e+06 -1.25047e+06 -802886 570035
62 3 O -1.0738 71.1738 -0.0606991 -1.2 -9.57827 -456891 -2.81113e+06 -2.95525e+06 -479003 1.10445e+06 -36792.4
63 1 Mg -2.28314 79.8696 3.04954 1.2 -7.4152 -409975 3.89191e+06 -826692 -1.72807e+06 1.59273e+06 1.80589e+06
64 3 O -0.9967 71.2789 2.4146 -1.2 -9.55727 -2.74381e+06 -4.06833e+06 -1.71173e+06 -557208 -955151 -1.65506e+06
65 1 Mg -2.39099 77.1939 4.3263 1.2 -7.84894 -179174 1.12636e+06 1.69113e+06 1.32045e+06 216007 135369
66 2 Si 0.385616 78.8535 4.5625 2.4 -32.2611 1.21522e+06 1.27725e+07 6.15036e+06 2.57841e+06 465959 -1.86234e+06
67 3 O -1.07553 78.9493 4.50629 -1.2 -10.0593 -4.97887e+06 -5.48103e+06 -2.63402e+06 -443239 465820 1.29785e+06
68 3 O 1.50441 75.3136 4.05633 -1.2 -9.56739 -1.34341e+06 -4.32446e+06 -1.69412e+06 -1.16819e+06 -139350 1.52434e+06
69 3 O 1.11101 78.3822 3.2432 -1.2 -9.85368 -2.87925e+06 -6.64665e+06 -2.72159e+06 563923 -654874 -490208
70 3 O 1.1434 78.1943 5.77288 -1.2 -9.42131 -3.23805e+06 -5.64852e+06 -3.29138e+06 -270332 1.12962e+06 1.17579e+06
71 1 Mg 0.0615074 74.7034 2.68817 1.2 -6.99414 -2.67725e+06 5.26166e+06 -2.30366e+06 714969 -1.81526e+06 1.11325e+06
72 1 Mg -0.10736 71.8653 4.16141 1.2 -7.97843 1.25029e+06 1.51451e+06 2.65627e+06 -579373 -151595 -291045
73 2 Si 2.09094 73.7367 4.14412 2.4 -32.6105 3.02879e+06 1.38155e+07 3.34848e+06 214237 -6266.49 396243
74 3 O -1.10427 73.6949 4.16296 -1.2 -9.84888 -2.40329e+06 -4.65764e+06 -3.49918e+06 916156 30714.1 330753
75 3 O 1.0623 70.107 4.58205 -1.2 -9.61066 -1.14835e+06 -5.78217e+06 -1.43996e+06 686052 404143 -1.11806e+06
76 3 O 1.39777 72.9701 2.97703 -1.2 -9.46054 -3.18609e+06 -4.19127e+06 -4.00625e+06 -436699 411771 -978035
77 1 Mg 0.00908017 74.6041 -0.204672 1.2 -6.91214 -2.26503e+06 5.14991e+06 -2.25313e+06 297920 547829 -1.61866e+06
78 3 O 1.43501 73.2013 5.40496 -1.2 -9.30994 -3.68515e+06 -5.23278e+06 -3.51654e+06 -888626 553167 404159
79 1 Mg 0.0477589 77.638 1.63513 1.2 -7.74587 30040.3 1.80119e+06 2.45442e+06 -1.30797e+06 -172634 -503893
80 2 Si -2.01053 75.8166 1.36471 2.4 -31.5061 5.95082e+06 1.03182e+07 8.50743e+06 1.09274e+06 -631453 -1.27581e+06
81 3 O 1.07375 75.7597 1.3351 -1.2 -10.0888 1.5939e+06 -3.81215e+06 -3.88092e+06 1.33441e+06 -332660 1.66789e+06
82 3 O -1.03895 79.4509 1.415 -1.2 -9.60809 -974450 -3.15139e+06 -2.69083e+06 711746 -449068 -717669
83 3 O -1.33689 76.4161 -0.023267 -1.2 -9.57446 -3.60058e+06 -4.23331e+06 -1.68255e+06 364828 -3.56167e+06 1.02097e+06
84 3 O -1.32845 76.5537 2.62416 -1.2 -9.66562 -2.19841e+06 -5.09134e+06 -1.59075e+06 -472255 2.16069e+06 864036
85 1 Mg -2.51786 79.9404 -0.0141954 1.2 -7.6097 -1.07252e+06 4.44338e+06 -728999 -632726 -891136 -799923
86 1 Mg 2.08139 82.7699 1.74326 1.2 -8.29445 1.41834e+06 1.38897e+06 1.66162e+06 763606 648895 -283349
87 2 Si -0.483723 81.0192 1.44456 2.4 -32.6355 4.8797e+06 1.20273e+07 6.42961e+06 -847770 1.25935e+06 1.91966e+06
88 3 O 1.0981 81.0268 1.61024 -1.2 -9.55055 -1.10481e+06 -4.53115e+06 -2.90494e+06 -1.16905e+06 2.16499e+06 349402
89 3 O -1.50997 84.8337 1.63419 -1.2 -8.74574 -2.09644e+06 -4.53232e+06 -3.22025e+06 -380558 1.42527e+06 -48508.5
90 3 O -1.28299 81.7108 0.332542 -1.2 -9.55718 -1.82612e+06 -4.97158e+06 -3.08738e+06 -773810 -192028 346661
91 1 Mg -2.40164 90.6716 2.87333 1.2 -7.62784 -821366 5.59354e+06 -56706 -659559 816024 1.53936e+06
92 3 O -1.02591 81.6146 2.87208 -1.2 -8.97144 -3.56235e+06 -2.93913e+06 -301391 485080 -78633.1 -158137
93 1 Mg -2.35336 87.4653 4.78162 1.2 -8.72921 2.11502e+06 1.44739e+06 2.56886e+06 1.02e+06 -287059 -684036
94 2 Si 0.283383 89.4457 4.4714 2.4 -33.1904 8.22434e+06 1.35606e+07 7.52503e+06 878384 411279 -81019.3
95 3 O -1.23989 89.5228 4.66687 -1.2 -9.44558 -3.35437e+06 -4.50689e+06 -3.36025e+06 -320655 1.38704e+06 -1.83858e+06
96 3 O 1.44802 85.6661 4.78198 -1.2 -8.30306 -2.14983e+06 -2.59962e+06 -2.86307e+06 -1.15999e+06 278425 432983
97 3 O 0.961016 89.0148 3.05916 -1.2 -8.49819 -3.37429e+06 -5.39627e+06 -1.37572e+06 356460 -3.00462e+06 -1.0945e+06
98 3 O 1.12102 88.6716 5.71892 -1.2 -9.008 -2.55833e+06 -3.0853e+06 -200264 -1.26403e+06 2.06176e+06 -373248
99 1 Mg 0.109151 85.1229 3.2606 1.2 -8.28021 1.0173e+06 4.7189e+06 -253491 903606 -505907 505767
100 1 Mg 0.119723 82.1221 4.59243 1.2 -8.45036 1.06151e+06 127746 1.88917e+06 -949481 421552 89498.3
101 2 Si 2.07258 84.0295 4.79626 2.4 -33.907 8.33786e+06 1.06811e+07 7.10867e+06 -1.88382e+06 -1.89007e+06 -1.56412e+06
102 3 O -1.0957 84.1381 4.69728 -1.2 -8.98408 -1.81331e+06 -4.03158e+06 -2.13046e+06 1.33436e+06 -1.05246e+06 976099
103 3 O 1.12029 80.4605 4.58289 -1.2 -9.0086 -1.29475e+06 -4.42452e+06 -3.08481e+06 1.99253e+06 -131288 107606
104 3 O 1.38709 83.4893 3.5123 -1.2 -9.17359 -4.89745e+06 -4.52251e+06 -1.88846e+06 -278325 1.05395e+06 -1.35045e+06
105 1 Mg -0.282388 85.3514 0.299187 1.2 -7.71847 -1.93368e+06 4.46432e+06 -2.04216e+06 1.03558e+06 3.28767e+06 -534499
106 3 O 1.36319 83.5169 6.11225 -1.2 -8.62552 -3.31692e+06 -4.37145e+06 -549473 -192933 -404447 1.31554e+06
107 1 Mg 0.0451874 88.3465 1.51969 1.2 -8.86248 3.177e+06 1.07567e+06 -290086 -343680 -300823 -1.61123e+06
108 2 Si -2.16318 86.333 1.73096 2.4 -34.8659 4.85022e+06 1.11768e+07 5.38097e+06 -235615 2.24954e+06 -26012.1
109 3 O 1.10805 86.3276 1.89486 -1.2 -8.68976 -7.18842e+06 -3.66807e+06 -3.3352e+06 213508 1.80616e+06 46904.5
110 3 O -0.885203 90.1687 1.52624 -1.2 -9.39157 -3.32356e+06 -4.96101e+06 -1.41672e+06 839040 -638413 1.01208e+06
111 3 O -1.64491 87.1147 0.547888 -1.2 -8.48365 -3.93907e+06 -3.80733e+06 -6.36615e+06 -256654 -114618 1.37416e+06
112 3 O -1.34723 87.0192 2.95854 -1.2 -7.82597 -4.34831e+06 -2.12445e+06 -2.31583e+06 374864 262983 607965
113 1 Mg -2.29998 90.9266 -0.0715049 1.2 -7.56648 -1.17964e+06 4.02708e+06 -955670 -672138 -1.01203e+06 -3.0574e+06
114 1 Mg 2.36642 93.5627 1.5024 1.2 -8.08798 1.02336e+06 -409396 2.62767e+06 1.12464e+06 -864417 -840916
115 2 Si -0.312887 91.6653 1.54038 2.4 -32.3168 3.79647e+06 1.25253e+07 7.2719e+06 -1.19617e+06 562127 -2.72997e+06
116 3 O 1.24592 91.6754 1.4154 -1.2 -9.95641 -1.11551e+06 -4.59061e+06 -3.21205e+06 -1.04391e+06 -913968 647046
117 3 O -1.17933 95.3138 1.73381 -1.2 -9.73944 -1.80851e+06 -3.88091e+06 -2.66847e+06 -2.49649e+06 -556339 -199096
118 3 O -0.98597 92.3763 0.123377 -1.2 -9.12439 -1.90429e+06 -3.78008e+06 -537653 64640.6 811252 -198457
119 1 Mg -2.56122 101.231 3.23221 1.2 -7.76584 269967 3.71359e+06 111878 -860503 163848 494679
120 3 O -1.05608 92.4273 2.67401 -1.2 -9.60002 -3.77981e+06 -3.58615e+06 -3.24017e+06 1.0051e+06 -8408.58 266199
121 1 Mg -2.23876 98.0385 4.34768 1.2 -7.75431 252810 2.16596e+06 720982 -220471 1.27973e+06 -2.01066e+06
122 2 Si 0.190167 100.038 4.70984 2.4 -33.5478 8.33585e+06 9.8873e+06 7.29881e+06 -1.24722e+06 1.67788e+06 -3.2038e+06
123 3 O -1.37762 100.239 4.60109 -1.2 -9.53189 -4.05053e+06 -2.78454e+06 -2.849e+06 -1.99375e+06 583694 531585
124 3 O 1.60998 96.2264 4.48638 -1.2 -9.73618 -1.59809e+06 -6.9043e+06 -3.42616e+06 -871953 105103 1.21431e+06
125 3 O 0.966839 99.4664 3.43351 -1.2 -9.21742 -2.56119e+06 -2.74121e+06 -5.42554e+06 -223499 -2.81647e+06 -314408
126 3 O 1.01974 99.3164 5.8916 -1.2 -8.36102 -1.47092e+06 -5.33188e+06 -2.70447e+06 -1.13798e+06 2.44551e+06 2.85802e+06
127 1 Mg 0.0665593 95.699 3.14199 1.2 -6.94231 -2.03049e+06 3.71465e+06 -477208 108061 -1.30626e+06 989981
128 1 Mg -0.0749519 93.0187 4.35551 1.2 -8.14299 1.75721e+06 909703 1.01005e+06 -569608 -139366 -37308.3
129 2 Si 2.24656 94.7912 4.72336 2.4 -32.8271 2.70838e+06 1.12566e+07 7.70125e+06 1.70556e+06 1.2273e+06 1.23202e+06
130 3 O -0.972796 94.8842 4.78422 -1.2 -9.96765 -3.86133e+06 -4.95344e+06 -3.57535e+06 745856 -694383 -69694.3
131 3 O 0.956959 91.0456 4.45738 -1.2 -8.73284 -1.0074e+06 -3.0439e+06 -705362 1.49702e+06 296824 -2.01991e+06
132 3 O 1.52913 93.9251 3.46425 -1.2 -9.13623 -839960 -4.0785e+06 -1.02132e+06 1.17022e+06 1.78524e+06 352363
133 1 Mg 0.0155658 96.1105 0.179601 1.2 -7.36949 -3.86478e+06 3.24262e+06 -463212 2.00809e+06 1.5707e+06 -3.03299e+06
134 3 O 1.5133 94.3099 6.01834 -1.2 -8.78718 -3.69428e+06 -5.28178e+06 -1.80715e+06 89794.7 -222828 15709.2
135 1 Mg 0.253776 98.7708 1.77003 1.2 -7.65472 1.10777e+06 1.88254e+06 1.68956e+06 -807532 -252187 -888685
136 2 Si -2.02873 96.7744 1.61277 2.4 -31.1784 3.46016e+06 1.31888e+07 6.62755e+06 614226 -1.18596e+06 -1.95833e+06
137 3 O 1.18576 96.7048 1.6681 -1.2 -10.454 -1.90861e+06 -4.62454e+06 -3.64808e+06 -837985 -1.38193e+06 -732959
138 3 O -0.918463 100.717 1.61024 -1.2 -9.12734 -598082 -1.23396e+06 -2.44998e+06 147904 -227669 248903
139 3 O -1.25957 97.4576 0.213017 -1.2 -9.47778 -2.1358e+06 -4.6993e+06 -3.08647e+06 2.61829e+06 -2.42912e+06 -163625
140 3 O -1.40252 97.6226 2.73393 -1.2 -9.89432 -2.40902e+06 -4.42052e+06 -5.07321e+06 239501 1.87675e+06 -576761
141 1 Mg -2.40225 101.172 0.143088 1.2 -7.20524 -1.90304e+06 3.99408e+06 -62660.3 -1.40362e+06 -2.41978e+06 -1.75825e+06
142 1 Mg 6.95059 104.074 1.68225 1.2 -7.95659 363993 905604 3.52151e+06 1.05418e+06 -315013 -667278
143 2 Si -0.42489 102.339 1.60706 2.4 -32.4824 3.59643e+06 1.14608e+07 9.20475e+06 -202230 348369 -2.06209e+06
144 3 O 1.09843 102.272 1.84021 -1.2 -9.88528 -2.67631e+06 -3.42565e+06 -2.74814e+06 -1.95092e+06 155943 370187
145 3 O 3.38893 105.9 1.72908 -1.2 -9.07141 -2.30007e+06 -7.36186e+06 -3.90267e+06 -483391 515254 1.5351e+06
146 3 O -1.13642 102.894 0.297356 -1.2 -9.57642 -646136 -3.41725e+06 -1.21323e+06 270249 -60789.9 1.08973e+06
147 1 Mg 2.66624 111.591 3.29282 1.2 -7.50734 667759 3.8925e+06 123295 -781558 301894 1.80293e+06
148 3 O -1.1698 102.978 2.9025 -1.2 -9.30449 -3.49862e+06 -2.80623e+06 -145267 967506 -145821 614093
149 1 Mg 2.35825 108.755 4.61958 1.2 -7.93793 2.35422e+06 586627 2.98278e+06 493648 238098 -481172
150 2 Si 5.1048 110.604 4.83078 2.4 -33.4697 1.89137e+06 1.15862e+07 7.39268e+06 1.8673e+06 -386060 -1.08441e+06
151 3 O 3.58085 110.684 4.78474 -1.2 -9.75634 -4.48246e+06 -4.48609e+06 -2.47869e+06 1.57621e+06 185011 454996
152 3 O 6.12793 106.967 4.7138 -1.2 -9.63529 -3.65234e+06 -6.39168e+06 -2.87267e+06 1.00509e+06 -248997 215302
153 3 O 5.68937 109.96 3.52707 -1.2 -9.15094 -2.43627e+06 -4.58123e+06 -2.35366e+06 130559 -409411 -397282
154 3 O 5.68888 109.848 6.08881 -1.2 -8.88319 -2.087e+06 -4.31803e+06 -1.3968e+06 -278097 -99124.7 925710
155 1 Mg 4.74492 106.41 3.22871 1.2 -7.58652 -1.63482e+06 4.01076e+06 -426937 945868 -1.50771e+06 1.07768e+06
156 1 Mg -0.207308 103.63 4.66526 1.2 -7.92153 3.10874e+06 2.09918e+06 2.13846e+06 -790117 -194762 -741070
157 2 Si 6.74438 105.572 4.75913 2.4 -32.9999 3.15546e+06 1.12612e+07 6.9986e+06 774783 -191524 -2.48589e+06
158 3 O 3.58537 105.616 4.79905 -1.2 -9.64039 -1.20384e+06 -4.98384e+06 -2.90666e+06 -810858 653621 1.01491e+06
159 3 O 0.866731 101.493 4.86232 -1.2 -8.7506 -2.83725e+06 -6.38643e+06 -2.28351e+06 1.51804e+06 -559753 1.05193e+06
160 3 O 6.13472 104.715 3.64366 -1.2 -9.3839 -2.51668e+06 -4.51741e+06 -2.75077e+06 423124 -472305 -251680
161 1 Mg 4.78622 106.286 0.181844 1.2 -8.07959 -1.22391e+06 3.60721e+06 256321 1.14618e+06 1.15402e+06 -1.68409e+06
162 3 O 6.28401 104.812 6.19003 -1.2 -8.75688 -3.14062e+06 -3.54495e+06 -877088 637737 -855315 -1.20841e+06
163 1 Mg 5.01168 109.413 1.58543 1.2 -8.01253 413456 2.09843e+06 3.00153e+06 -32292.2 339436 647084
164 2 Si 2.75543 107.348 1.73921 2.4 -33.2413 6.4328e+06 7.23299e+06 8.41675e+06 1.13351e+06 -1.12222e+06 -546707
165 3 O 5.95651 107.237 1.80179 -1.2 -9.53781 -4.1695e+06 -1.96591e+06 -3.76678e+06 1.3203e+06 -943944 -113299
166 3 O 3.97977 111.191 1.64158 -1.2 -9.32233 -2.55736e+06 -3.40019e+06 -1.79772e+06 537889 -332778 -678824
167 3 O 3.52775 107.865 0.407135 -1.2 -8.70178 -2.01934e+06 -4.16977e+06 -2.58023e+06 -372645 -1.10577e+06 1.80027e+06
168 3 O 3.4112 107.995 3.01029 -1.2 -9.15663 -3.13132e+06 -4.34006e+06 -2.83185e+06 -672722 585612 -990268
169 1 Mg 2.68562 111.917 0.00643943 1.2 -7.00805 -323263 2.66931e+06 308357 -1.04224e+06 -1.02626e+06 -1.94807e+06
170 1 Mg 7.15419 114.508 1.63355 1.2 -7.92932 1.39847e+06 774156 2.91973e+06 955830 362181 -962338
171 2 Si 4.55068 112.741 1.67549 2.4 -32.8676 4.20444e+06 1.08265e+07 7.95436e+06 -262738 -270784 -238809
172 3 O 6.11381 112.605 1.63265 -1.2 -9.53997 -904994 -3.69383e+06 -2.62123e+06 -1.31054e+06 -393389 -670244
173 3 O 3.33196 116.406 1.67845 -1.2 -9.57532 -2.0201e+06 -3.44559e+06 -2.58355e+06 -694310 639632 251929
174 3 O 3.8929 113.41 0.390541 -1.2 -9.66843 -2.84467e+06 -4.37601e+06 -2.22632e+06 -493809 993647 1.01739e+06
175 1 Mg 2.29976 122.188 2.92912 1.2 -7.85172 -225074 2.58572e+06 725487 -1.32565e+06 1.69272e+06 1.42912e+06
176 3 O 3.93714 113.271 3.01063 -1.2 -9.21336 -4.2761e+06 -4.19756e+06 -1.69053e+06 688648 257376 -1.67901e+06
177 1 Mg 2.7251 119.392 4.47238 1.2 -7.75532 -24723.5 963194 790452 1.2071e+06 -303956 196767
178 2 Si 5.2241 121.045 4.64304 2.4 -33.0148 6.63717e+06 9.9019e+06 7.00207e+06 -693704 1.088e+06 -1.45171e+06
179 3 O 3.59826 121.244 4.47601 -1.2 -9.16549 -678104 -4.78338e+06 -4.25528e+06 -515584 2.26261e+06 982536
180 3 O 6.16417 117.267 4.48499 -1.2 -9.09931 -1.33065e+06 -4.5613e+06 -3.05841e+06 -2.4443e+06 322344 176327
181 3 O 5.71575 120.406 3.29932 -1.2 -9.48235 -3.67424e+06 -3.91691e+06 -1.77497e+06 1.39704e+06 -252674 -1.14961e+06
182 3 O 5.89402 120.502 5.92626 -1.2 -9.14969 -2.70657e+06 -5.80223e+06 -3.61573e+06 -240390 493549 2.53078e+06
183 1 Mg 4.69507 117.069 3.12851 1.2 -7.35259 -965366 4.05111e+06 -219547 1.00102e+06 -1.11105e+06 915720
184 1 Mg 4.7723 113.843 4.80971 1.2 -8.44259 2.47458e+06 1.57802e+06 1.61659e+06 -636123 70157.5 11691.3
185 2 Si 6.95936 115.795 4.5742 2.4 -33.5442 6.79013e+06 1.15277e+07 6.48307e+06 -696421 199787 730445
186 3 O 3.78601 115.898 4.61023 -1.2 -9.52779 -3.18209e+06 -3.40657e+06 -3.97288e+06 -632625 -380399 -1.65369e+06
187 3 O 5.88912 112.037 4.88269 -1.2 -8.97897 -2.13836e+06 -5.54264e+06 -3.18593e+06 663128 -616318 74290.8
188 3 O 6.38058 114.933 3.40456 -1.2 -8.5664 -3.76369e+06 -3.63548e+06 -3.80043e+06 516281 823666 -425312
189 1 Mg 4.71883 117.005 0.17239 1.2 -7.59546 -2.58167e+06 3.73662e+06 5188.5 1.14659e+06 1.01504e+06 -2.15466e+06
190 3 O 6.24283 115.207 5.86448 -1.2 -9.0171 -2.94111e+06 -3.78699e+06 -4.21177e+06 866901 -1.39703e+06 -94648.1
191 1 Mg 4.75274 119.883 1.62021 1.2 -7.99439 1.23355e+06 888042 2.17002e+06 -1.05063e+06 -128592 143722
192 2 Si 2.72949 117.941 1.57088 2.4 -32.1957 4.91135e+06 1.01249e+07 6.48972e+06 -591865 -2.16314e+06 -2.67622e+06
193 3 O 5.85914 117.821 1.55017 -1.2 -9.79752 70521.8 -3.86431e+06 -3.86971e+06 392388 -1.37488e+06 167332
194 3 O 3.70947 121.638 1.44214 -1.2 -9.01529 -3.16672e+06 -4.84323e+06 -5.19073e+06 549393 -794606 -797265
195 3 O 3.42271 118.495 0.18621 -1.2 -9.32357 -2.78314e+06 -3.14287e+06 -1.70851e+06 840651 -809786 -442964
196 3 O 3.32511 118.655 2.7181 -1.2 -9.91998 -3.86085e+06 -5.36773e+06 -4.99268e+06 -659909 138354 -1.84863e+06
197 1 Mg 2.41107 122.113 0.0727966 1.2 -7.7512 -2.21809e+06 4.22422e+06 -1.95881e+06 -333012 -2.54141e+06 -1.73124e+06
198 1 Mg 6.98643 125.276 1.3339 1.2 -7.7742 2.24807e+06 666205 2.89074e+06 549257 -708613 -429543
199 2 Si 4.40971 123.134 1.57667 2.4 -33.5064 1.88956e+06 8.88524e+06 9.28032e+06 136214 112106 -2.63985e+06
200 3 O 5.85908 122.994 1.43 -1.2 -9.39707 -6.71687e+06 -3.06053e+06 -5.14619e+06 -456336 632932 306464
201 3 O 3.45127 127.016 1.56171 -1.2 -9.52101 -1.36886e+06 -4.90909e+06 -4.23408e+06 -727993 -819279 1.0998e+06
202 3 O 3.68466 123.95 0.382552 -1.2 -8.98765 -2.36186e+06 -1.89691e+06 -1.04234e+06 -173358 -386337 2.11827e+06
203 1 Mg 2.21815 132.408 2.80408 1.2 -8.24467 -1827.61 1.47913e+06 503795 -1.03762e+06 648239 1.71802e+06
204 3 O 3.79026 123.506 2.94523 -1.2 -8.81188 -3.14847e+06 -5.31863e+06 -4.90599e+06 -333942 -36842.6 52665.4
205 1 Mg 2.23749 129.624 4.62573 1.2 -8.23893 2.09927e+06 1.61891e+06 1.52602e+06 827101 -490341 336498
206 2 Si 4.92272 131.699 4.39656 2.4 -34.4857 1.10309e+07 8.02959e+06 1.07729e+07 -693444 81335.5 356167
207 3 O 3.30573 131.882 4.42324 -1.2 -8.47354 -2.30697e+06 -2.70561e+06 -6.68602e+06 -597332 468555 -908934
208 3 O 6.05508 127.723 4.46384 -1.2 -9.67299 -2.1136e+06 -5.10289e+06 -2.80872e+06 -1.1587e+06 -726350 -359557
209 3 O 5.61699 130.985 3.14981 -1.2 -8.62503 -4.14643e+06 -3.54205e+06 -4.61327e+06 -1.3493e+06 -2.73153e+06 -396448
210 3 O 5.71466 130.906 5.62595 -1.2 -8.53647 -4.57992e+06 -1.48305e+06 -4.27353e+06 -841193 2.61464e+06 -266293
211 1 Mg 4.7617 127.48 2.96736 1.2 -7.22959 -2.83255e+06 4.13313e+06 366110 379073 -1.98622e+06 928949
212 1 Mg 4.64619 124.481 4.55658 1.2 -8.37763 1.81266e+06 992814 2.66739e+06 -742070 -276428 32493.2
213 2 Si 6.82326 126.261 4.44715 2.4 -32.9151 2.37994e+06 1.0864e+07 7.77344e+06 667145 476643 128368
214 3 O 3.54089 126.393 4.51916 -1.2 -9.93106 -6.06955e+06 -3.4184e+06 -3.88205e+06 70025.2 389177 -103661
215 3 O 5.90371 122.552 4.65508 -1.2 -8.7658 -4.10499e+06 -4.33918e+06 -3.32338e+06 1.00091e+06 -1.50291e+06 1.33328e+06
216 3 O 6.06167 125.535 3.25055 -1.2 -9.20592 -599032 -2.36137e+06 -4.64965e+06 470876 195700 -210029
217 1 Mg 4.62002 127.545 -0.00987569 1.2 -8.13594 -369920 3.24923e+06 318554 1.06618e+06 1.22529e+06 -1.36145e+06
218 3 O 6.06007 125.481 5.63989 -1.2 -8.65742 -2.98712e+06 -3.63683e+06 -5.02166e+06 -299165 -1.61369e+06 -554959
219 1 Mg 4.81089 130.227 1.3943 1.2 -8.36749 446839 341142 3.97669e+06 -1.268e+06 -33067.6 1.41961e+06
220 2 Si 2.67963 128.479 1.56783 2.4 -32.5325 3.38484e+06 7.99114e+06 9.20275e+06 -486574 2.1419e+06 2.11185e+06
221 3 O 5.92413 128.359 1.40032 -1.2 -9.85267 -4.50088e+06 -2.8634e+06 -4.25004e+06 28080.7 1.6808e+06 -73572.5
222 3 O 3.81668 132.199 1.51717 -1.2 -8.5909 -3.11808e+06 -2.05801e+06 -5.79597e+06 971694 -362520 132242
223 3 O 3.29252 129.029 0.272236 -1.2 -8.88971 -5.51566e+06 -5.20366e+06 -4.58523e+06 -146956 251647 1.45796e+06
224 3 O 3.46477 129.185 2.80951 -1.2 -9.35293 -438879 -2.79272e+06 -2.41689e+06 21356.3 424174 -1.26872e+06
225 1 Mg 2.24888 132.529 0.0944698 1.2 -8.06056 1.01707e+06 2.69076e+06 159827 -581268 -549574 -897364
226 1 Mg 7.24389 135.544 1.34198 1.2 -8.71245 518354 -601758 3.30823e+06 1.84898e+06 -313930 685017
227 2 Si 4.37842 133.748 1.42959 2.4 -34.1704 6.63339e+06 7.00847e+06 1.00383e+07 101726 74886.4 306458
228 3 O 5.93989 133.529 1.5094 -1.2 -9.08188 -3.85154e+06 -1.80166e+06 -6.07526e+06 -2.20411e+06 -378259 279910
229 3 O 3.46846 137.356 1.28406 -1.2 -8.64363 -3.42893e+06 -3.28678e+06 -3.71325e+06 -2.20648e+06 2.19247e+06 146503
230 3 O 3.70008 134.341 0.165309 -1.2 -8.67298 -4.36319e+06 -3.1803e+06 -7.41605e+06 1.38054e+06 858591 -276294
231 1 Mg 2.24792 142.811 2.70241 1.2 -8.226 -689450 3.08669e+06 518425 -1.33315e+06 1.67246e+06 1.35444e+06
232 3 O 3.69244 134.554 2.56078 -1.2 -8.67266 -4.12027e+06 -2.80374e+06 -5.87838e+06 1.21821e+06 -350889 376503
233 1 Mg 2.41167 140.263 4.60008 1.2 -8.56428 633178 -1.93609e+06 4.77694e+06 569766 -745720 1.81958e+06
234 2 Si 5.00666 142.053 4.29198 2.4 -32.8205 8.33816e+06 7.85507e+06 1.44069e+07 517796 868398 9423.73
235 3 O 3.38885 141.961 4.24905 -1.2 -9.39932 656587 -1.51065e+06 -5.62899e+06 -278709 826305 41173.2
236 3 O 6.13234 138.497 4.58761 -1.2 -8.95808 -1.61365e+06 -1.80438e+06 -5.48846e+06 -2.1792e+06 1.77276e+06 112385
237 3 O 5.59355 141.404 2.87793 -1.2 -8.79519 -4.31756e+06 -3.03162e+06 -705863 152602 -1.25877e+06 315391
238 3 O 5.69706 141.501 5.71737 -1.2 -8.8151 -3.87113e+06 -1.67573e+06 -1.68082e+06 -250231 2.52027e+06 541985
239 1 Mg 4.841 137.726 2.99988 1.2 -7.8507 -50060 2.04099e+06 1.53173e+06 1.24937e+06 -646867 1.51592e+06
240 1 Mg 4.52866 135.137 4.37281 1.2 -8.3977 2.59657e+06 -287358 3.37307e+06 7494.61 485260 475646
241 2 Si 6.9149 137.012 4.45721 2.4 -33.3915 3.95773e+06 9.93985e+06 1.21112e+07 -152173 -915314 -783338
242 3 O 3.7126 136.981 4.51565 -1.2 -9.78116 -3.52778e+06 -2.71945e+06 -5.5198e+06 -206140 -1.35568e+06 1.09566e+06
243 3 O 5.63235 133.136 4.37412 -1.2 -8.33943 -4.69918e+06 -2.94008e+06 -3.73953e+06 1.44129e+06 432310 -573295
244 3 O 6.39316 136.593 2.98121 -1.2 -8.61394 -4.23969e+06 -3.9713e+06 -3.31227e+06 1.03951e+06 1.55277e+06 546916
245 1 Mg 4.72185 137.961 -0.213009 1.2 -8.08158 -123962 2.31825e+06 980083 443332 1.07612e+06 -1.49575e+06
246 3 O 6.1724 136.1 5.53478 -1.2 -8.91744 -3.44597e+06 -1.78094e+06 -3.26356e+06 852963 -801532 -278824
247 1 Mg 4.75002 140.768 1.24511 1.2 -8.78272 3.12761e+06 140956 1.10977e+06 -1.4077e+06 -268861 168073
248 2 Si 2.65274 138.804 1.37797 2.4 -34.9393 7.30873e+06 9.14717e+06 9.93043e+06 -1.338e+06 536929 -1.06608e+06
249 3 O 5.84696 138.844 1.21281 -1.2 -8.57324 -3.70381e+06 -3.07504e+06 -4.84685e+06 -1.74345e+06 -302290 490070
250 3 O 3.68405 142.811 1.3086 -1.2 -8.89261 -5.11682e+06 -2.91933e+06 -2.97658e+06 1.7107e+06 36989.7 587859
251 3 O 3.25466 139.704 0.210041 -1.2 -8.44789 -6.37114e+06 -650631 -3.35087e+06 -113125 -162122 -279649
252 3 O 3.11101 139.376 2.75539 -1.2 -8.16122 -4.0214e+06 -2.50718e+06 -4.46657e+06 -357935 516643 -834405
253 1 Mg 2.46572 143.191 -0.316416 1.2 -7.83647 -1.1472e+06 2.52402e+06 996727 -494378 -2.1234e+06 -1.81389e+06
254 1 Mg 7.41619 146.275 1.20394 1.2 -8.04406 1.03465e+06 -1.0614e+06 4.12178e+06 1.79598e+06 -468044 -946940
255 2 Si 4.40511 144.26 1.27144 2.4 -33.4611 1.05649e+07 6.27911e+06 1.16607e+07 26344.5 -1.25274e+06 277785
256 3 O 6.02142 144.041 1.35151 -1.2 -8.7406 -413293 -2.29646e+06 -3.86937e+06 -924470 -968117 -593038
257 3 O 3.52548 148.109 1.21453 -1.2 -9.55989 -2.53164e+06 -5.00119e+06 -9.47309e+06 -1.55521e+06 -1.97754e+06 3.82636e+06
258 3 O 3.89192 144.86 -0.114715 -1.2 -9.38453 -3.11623e+06 -2.17539e+06 -2.47276e+06 666301 1.13904e+06 1.50494e+06
259 1 Mg 1.57605 153.243 1.37466 1.2 -6.46522 -3.51454e+06 -2.5752e+06 3.16687e+06 4744.2 -234561 -277227
260 3 O 3.7252 145.058 2.58637 -1.2 -8.66522 -3.91901e+06 -1.32316e+06 -297838 -1.26167e+06 -1.56838e+06 -720389
261 1 Mg 1.77209 151.184 4.44429 1.2 -7.36822 -585853 3.73329e+06 1.20274e+06 -887285 1.29507e+06 822188
262 2 Si 3.82448 152.073 2.75682 2.4 -31.0767 3.49974e+06 8.89671e+06 8.31843e+06 -612547 1.00778e+06 -1.22799e+06
263 3 O 2.40618 152.688 3.07485 -1.2 -9.68196 -3.15429e+06 -579207 -4.27744e+06 -155991 1.08432e+06 -236790
264 3 O 6.19641 149.128 3.87892 -1.2 -9.88167 -4.88633e+06 -3.68744e+06 -2.38914e+06 -1.63729e+06 -2.70434e+06 -1.29235e+06
265 3 O 4.4657 152.949 1.60759 -1.2 -10.2844 -3.07106e+06 -846422 -5.61849e+06 152206 -428408 -283825
266 3 O 4.6657 151.983 4.10051 -1.2 -9.73111 -3.21147e+06 -4.35991e+06 -2.98278e+06 -1.90592e+06 1.8848e+06 767889
267 1 Mg 4.96121 148.68 2.32163 1.2 -6.8192 -4.25092e+06 3.06261e+06 530110 634954 -2.85816e+06 549699
268 1 Mg 4.77199 145.813 4.09246 1.2 -8.4483 1.98706e+06 228063 2.54176e+06 -1.25944e+06 -237126 660403
269 2 Si 6.79974 147.688 3.97847 2.4 -32.8169 7.19225e+06 9.25609e+06 8.43776e+06 1.63016e+06 144822 2.75359e+06
270 3 O 3.64665 147.695 3.92817 -1.2 -9.20696 -265263 -4.75058e+06 -4.23965e+06 900562 1.00455e+06 -1.89756e+06