ITEM: TIMESTEP
66000
ITEM: NUMBER OF ATOMS
5600
ITEM: BOX BOUNDS xy xz yz pp pp pp
0.0000000000000000e+00 7.1234999999999999e+00 0.0000000000000000e+00
0.0000000000000000e+00 2.0198500000000001e+02 2.3744999999999998e+00
0.0000000000000000e+00 1.1958400000000000e+02 0.0000000000000000e+00
ITEM: ATOMS id type element xu yu zu q c_pe c_s[1] c_s[2] c_s[3] c_s[4] c_s[5] c_s[6]
1 1 Mg -2.039 48.2247 -0.781271 1.2 -7.42611 -1.5977e+06 -164445 -350397 2.21137e+06 599399 459649
2 1 Mg 2.83248 50.978 2.12284 1.2 -8.52118 -744355 997128 1.13377e+06 670899 287041 -911846
3 2 Si 0.631513 50.0285 0.233804 2.4 -34.282 9.75975e+06 7.34821e+06 6.39599e+06 -756912 986585 1.63803e+06
4 3 O 1.46566 48.8012 0.433988 -1.2 -8.11454 -6.96512e+06 -5.14459e+06 -4.39085e+06 948751 -1.10825e+06 -86196.4
5 3 O -1.68415 52.8778 1.91503 -1.2 -8.23487 -6.3973e+06 -7.13119e+06 -3.39427e+06 -1.25952e+06 -93352.1 -1.3181e+06
6 3 O -0.420273 49.477 -0.872301 -1.2 -8.43534 -4.00744e+06 -4.07081e+06 -9.19616e+06 2.75089e+06 1.31547e+06 9291.38
7 1 Mg -2.22324 58.5262 3.35649 1.2 -7.75487 -1.56188e+06 4.62416e+06 -1.21369e+06 -188075 358310 929295
8 3 O -0.335931 50.3956 1.46655 -1.2 -8.2085 -5.47145e+06 -5.56053e+06 -3.2975e+06 -2320.94 133415 -2.89321e+06
9 1 Mg -2.54208 55.5862 4.75607 1.2 -8.77602 2.48257e+06 -20187.4 3.08271e+06 425249 -232777 438115
10 2 Si 0.346691 57.6749 4.81513 2.4 -33.3766 4.67289e+06 1.22604e+07 6.20352e+06 65697.8 185901 13410.8
11 3 O -1.14001 57.842 4.73305 -1.2 -9.38111 -5.28059e+06 -4.19367e+06 -3.17429e+06 -857374 -1.91273e+06 973214
12 3 O 1.09198 53.9438 4.71748 -1.2 -8.22458 -4.6053e+06 -4.27069e+06 -1.0179e+06 -849950 -47787.5 -489751
13 3 O 1.16147 56.9389 3.63554 -1.2 -8.98724 -2.98299e+06 -3.12472e+06 -2.49795e+06 467682 -242219 -11098.5
14 3 O 0.934372 57.0594 6.12274 -1.2 -8.63718 -2.33628e+06 -2.62759e+06 -3.25378e+06 687105 -192356 353738
15 1 Mg -0.244028 53.4078 3.04703 1.2 -8.65504 -959446 2.99819e+06 567469 393690 -2.46007e+06 1.23961e+06
16 1 Mg 0.496005 49.7158 3.23924 1.2 -8.16847 1.81254e+06 1.24319e+06 741473 -636059 -96633.1 451884
17 2 Si 1.66862 52.3757 4.70828 2.4 -34.6501 1.3208e+07 8.60001e+06 4.93161e+06 -453574 1.09072e+06 362091
18 3 O -1.50431 52.5481 4.96871 -1.2 -8.06585 -2.70883e+06 -3.34682e+06 -603731 2.11121e+06 358684 703694
19 3 O 2.32606 49.3902 3.52423 -1.2 -6.8999 -1.63724e+06 1.26116e+06 -1.20268e+06 362732 518548 -2.06065e+06
20 3 O 1.02374 51.8493 3.43061 -1.2 -8.33135 -4.02035e+06 -5.25206e+06 -5.32868e+06 -221409 617232 -929404
21 1 Mg 0.0325273 53.6908 -0.187966 1.2 -7.9879 -1.497e+06 1.75296e+06 360220 -430557 992782 -1.01009e+06
22 3 O 0.93152 51.7711 6.00349 -1.2 -9.52186 -6.71038e+06 -3.85005e+06 -5.96486e+06 389766 -1.86739e+06 1.4317e+06
23 1 Mg -0.157223 56.4412 1.86349 1.2 -8.3696 3.19991e+06 949259 2.28398e+06 450476 110595 -690567
24 2 Si -2.29908 54.328 1.64776 2.4 -34.2349 7.75156e+06 1.09914e+07 6.85095e+06 691799 258425 577727
25 3 O 0.911046 54.2622 1.57754 -1.2 -9.11481 -4.90612e+06 -3.98497e+06 -1.90105e+06 700928 57110.5 1.46771e+06
26 3 O -0.895691 58.238 1.86156 -1.2 -9.07701 -3.49562e+06 -5.41505e+06 -3.226e+06 1.51494e+06 23757.2 47284.4
27 3 O -1.55465 54.9288 0.439395 -1.2 -8.81427 -3.69889e+06 -4.6295e+06 -5.35285e+06 553153 -1.5208e+06 1.95008e+06
28 3 O -1.51479 55.1252 2.99201 -1.2 -8.22274 -1.89446e+06 -3.01879e+06 -490833 2.04849e+06 1.67123e+06 137668
29 1 Mg -2.09812 58.8014 0.318795 1.2 -8.26565 -599904 3.59198e+06 -2.05343e+06 -706841 -584828 -1.0855e+06
30 1 Mg 2.26696 61.6936 1.95063 1.2 -8.55752 2.2539e+06 1.74646e+06 -745906 586891 313895 -564018
31 2 Si -0.179043 59.7572 1.83513 2.4 -34.157 7.05872e+06 1.12633e+07 4.19164e+06 -386654 -498207 -316891
32 3 O 1.35631 59.622 1.69154 -1.2 -8.94022 -3.71165e+06 -4.1679e+06 -2.67305e+06 -15709 219820 221599
33 3 O -1.32224 63.4363 1.80439 -1.2 -9.13722 -2.02987e+06 -7.59083e+06 -1.2705e+06 -466154 601193 1.60555e+06
34 3 O -0.874796 60.4114 0.5702 -1.2 -8.50117 -6.08759e+06 -5.27648e+06 -4.17729e+06 -358895 1.53623e+06 -90770.8
35 1 Mg -2.27436 69.7908 3.50299 1.2 -7.15615 -1.04491e+06 4.48123e+06 -2.94032e+06 -339769 1.77024e+06 2.60865e+06
36 3 O -0.749182 60.4933 3.01694 -1.2 -8.71286 -3.57547e+06 -3.9088e+06 -5.44522e+06 858129 -502476 -665575
37 1 Mg -2.18258 66.3416 4.87059 1.2 -7.68734 734779 2.08621e+06 -484423 -167335 147318 104591
38 2 Si 0.149793 68.2702 4.63106 2.4 -32.6403 1.30338e+06 1.12392e+07 6.56196e+06 -1.02535e+06 -217258 374876
39 3 O -1.28114 68.4702 4.61684 -1.2 -10.1088 -8.19781e+06 -3.51625e+06 -4.05065e+06 -1.21424e+06 517696 -797799
40 3 O 1.56384 64.4883 4.94915 -1.2 -9.91517 -1.99408e+06 -7.50646e+06 -4.23976e+06 -1.1989e+06 774875 1.58342e+06
41 3 O 0.78682 67.5286 3.39609 -1.2 -8.56309 -2.68013e+06 -5.73717e+06 -4.42444e+06 -100986 -1.69871e+06 -1.81961e+06
42 3 O 1.06365 67.635 5.83815 -1.2 -9.61394 604417 -3.11737e+06 -3.13993e+06 -863011 1.2924e+06 576178
43 1 Mg 0.17126 64.0459 3.49112 1.2 -7.00245 -2.18854e+06 5.80388e+06 -341027 795855 -808252 1.81512e+06
44 1 Mg -0.00735308 60.9837 4.84193 1.2 -8.26518 1.22872e+06 1.12264e+06 404165 -392808 559327 920028
45 2 Si 2.19557 63.0731 4.98807 2.4 -32.2555 6.59836e+06 1.17094e+07 6.42917e+06 920600 97150.4 2.33122e+06
46 3 O -0.873244 63.1106 5.12475 -1.2 -9.74399 491079 -4.44628e+06 -2.24142e+06 -223829 -437053 -365034
47 3 O 1.02036 59.31 4.82746 -1.2 -8.87352 -2.12132e+06 -3.79271e+06 -1.78613e+06 1.68994e+06 191323 925328
48 3 O 1.68439 62.2299 3.67164 -1.2 -9.30703 -2.21277e+06 -2.5202e+06 -1.9142e+06 438806 1.70708e+06 -139927
49 1 Mg 0.024378 64.0755 0.361354 1.2 -7.94782 -1.5677e+06 4.52253e+06 -3.11248e+06 1.61381e+06 3.19569e+06 -1.32448e+06
50 3 O 1.56494 62.42 6.28434 -1.2 -9.28905 -3.5701e+06 -5.18779e+06 -1.81868e+06 -82102.1 -1.33452e+06 -77706.8
51 1 Mg -0.0482429 66.9349 1.85702 1.2 -7.96487 1.40048e+06 2.62691e+06 -938772 -1.36001e+06 -574761 627932
52 2 Si -2.00466 64.8501 2.01919 2.4 -32.7498 3.51748e+06 1.2717e+07 5.35504e+06 -935979 -1.26099e+06 1.72521e+06
53 3 O 1.23607 64.8254 2.00458 -1.2 -9.7001 -3.82163e+06 -5.39524e+06 -2.37346e+06 111094 -581535 -1.00442e+06
54 3 O -1.06761 69.0817 1.85609 -1.2 -9.60325 -4.01281e+06 -5.59867e+06 -1.30181e+06 -310639 -959879 -655756
55 3 O -1.25356 65.5756 0.663004 -1.2 -8.93462 -3.42951e+06 -6.23817e+06 1.33611e+06 498942 -834048 -62283.5
56 3 O -1.41909 65.5611 3.2805 -1.2 -9.71945 -4.01189e+06 -3.5531e+06 -2.93622e+06 -757397 1.00073e+06 -1.32738e+06
57 1 Mg -2.53132 69.0766 0.465035 1.2 -7.41639 -669378 5.42392e+06 -328261 -853268 -1.26059e+06 -86011.6
58 1 Mg 2.31021 72.2846 1.86668 1.2 -7.56619 268662 2.9124e+06 -256707 1.8043e+06 -442862 1.2845e+06
59 2 Si -0.379407 70.4592 1.66517 2.4 -32.1783 3.43144e+06 1.37493e+07 5.94012e+06 -756242 1.47558e+06 1.75406e+06
60 3 O 1.138 70.3039 1.82659 -1.2 -9.77818 -1.79774e+06 -5.71317e+06 -2.26329e+06 -403075 2.14356e+06 -360661
61 3 O -1.56067 74.4082 1.91751 -1.2 -9.55975 -2.08145e+06 -8.75389e+06 -2.57547e+06 -166492 362501 -3.23186e+06
62 3 O -1.11441 71.2386 0.441473 -1.2 -9.81036 -1.55731e+06 -4.16312e+06 586285 -917334 834553 -1.21275e+06
63 1 Mg -2.70096 80.1884 3.42408 1.2 -7.78383 -1.55279e+06 6.35393e+06 -3.19467e+06 -1.28732e+06 1.80539e+06 812687
64 3 O -0.961259 71.3225 3.07966 -1.2 -9.53336 -2.98009e+06 -5.16652e+06 1.54091e+06 -269252 -1.54726e+06 -632462
65 1 Mg -2.44624 76.9988 4.68319 1.2 -8.05277 1.81808e+06 1.93889e+06 190662 801190 260660 -1.27744e+06
66 2 Si 0.180708 79.0482 4.95443 2.4 -32.9158 7.28757e+06 8.96801e+06 6.4134e+06 -2.78982e+06 664614 -1.17887e+06
67 3 O -1.39637 79.2542 4.63516 -1.2 -9.09992 -2.07099e+06 -5.49072e+06 -2.56391e+06 -1.62982e+06 -440911 422023
68 3 O 1.39653 75.1303 4.82129 -1.2 -9.72044 -2.81791e+06 -5.91976e+06 -1.81737e+06 -299016 -353200 1.24623e+06
69 3 O 0.99283 78.3241 3.58419 -1.2 -8.64489 -3.5723e+06 -2.67235e+06 501561 -969453 -1.03466e+06 -130064
70 3 O 0.788114 78.1873 6.11653 -1.2 -9.02962 -2.66512e+06 -4.88756e+06 -4.99396e+06 -2.03619e+06 2.19513e+06 1.43192e+06
71 1 Mg 0.0322802 74.4886 3.3828 1.2 -6.92918 -2.18188e+06 5.56194e+06 -1.33573e+06 700313 -882174 2.4841e+06
72 1 Mg -0.0220015 71.6423 4.81101 1.2 -7.50759 -553185 2.34412e+06 530069 -1.00578e+06 -312275 2.2664e+06
73 2 Si 2.01257 73.6471 4.76081 2.4 -31.8789 4.40592e+06 1.23715e+07 4.03441e+06 892412 270251 2.87516e+06
74 3 O -1.13804 73.8372 4.92566 -1.2 -9.98368 -1.39189e+06 -5.41263e+06 -2.92525e+06 843512 53736.9 -1.07039e+06
75 3 O 0.873479 69.7561 4.55093 -1.2 -9.65475 -2.07346e+06 -7.31695e+06 -3.41125e+06 1.74083e+06 175162 -920831
76 3 O 1.2944 72.8586 3.58751 -1.2 -9.84619 -1.58609e+06 -4.2043e+06 -4.64371e+06 -664349 555548 -1.91833e+06
77 1 Mg -0.0466294 74.8586 0.623306 1.2 -7.36872 -2.3394e+06 5.14287e+06 -2.70922e+06 -293063 1.02372e+06 -380681
78 3 O 1.34435 72.9537 5.95865 -1.2 -9.58497 -2.79776e+06 -5.17037e+06 -4.37031e+06 368323 -311267 950516
79 1 Mg -0.105771 77.6019 1.85769 1.2 -8.10193 1.16876e+06 1.3113e+06 612831 -1.43466e+06 830328 1.0677e+06
80 2 Si -2.20283 75.8294 1.96203 2.4 -32.6408 1.11189e+06 1.22058e+07 3.85701e+06 232988 -1.53859e+06 641630
81 3 O 1.047 75.686 2.02027 -1.2 -10.13 -5.63229e+06 -5.21155e+06 -2.86976e+06 977264 -626338 -2.51518e+06
82 3 O -1.29542 79.4673 1.91441 -1.2 -9.36533 -625211 -7.72671e+06 -2.85174e+06 -439424 855368 891745
83 3 O -1.47644 76.6582 0.6555 -1.2 -9.11858 -58530.6 -4.57372e+06 -1.70024e+06 118360 -757021 -1.89696e+06
84 3 O -1.49798 76.4675 3.09314 -1.2 -8.96845 -4.24843e+06 -7.7532e+06 -7.22675e+06 -295112 245506 -3.02889e+06
85 1 Mg -2.89139 79.7448 0.563427 1.2 -7.09716 -2.94859e+06 3.86287e+06 -2.08138e+06 -3.19691e+06 -1.13359e+06 -2.53213e+06
86 1 Mg 1.95649 82.6679 1.65723 1.2 -8.76317 633264 -99173 -70135.3 1.75353e+06 688553 -381324
87 2 Si -0.642627 80.8761 1.89686 2.4 -33.269 1.74192e+06 1.46617e+07 5.89666e+06 -617286 34184.6 -2.4089e+06
88 3 O 0.816583 81.0115 1.73929 -1.2 -9.5842 -6.40838e+06 -6.94437e+06 -2.90789e+06 -1.17146e+06 613346 225356
89 3 O -1.62455 84.7077 1.77719 -1.2 -9.0198 -1.86621e+06 -6.5528e+06 -905799 -377165 407247 3.06634e+06
90 3 O -1.47177 81.7167 0.678802 -1.2 -8.13479 -5.53004e+06 -3.27623e+06 -792545 1.50864e+06 1.30814e+06 90077.7
91 1 Mg -2.37613 90.1645 3.05508 1.2 -7.40286 -1.63772e+06 4.3213e+06 -1.99035e+06 -1.21331e+06 2.94174e+06 646334
92 3 O -1.3067 81.656 3.21238 -1.2 -8.45805 -3.41288e+06 -6.4489e+06 -861502 331510 -295222 2.04496e+06
93 1 Mg -2.40425 87.2844 4.82665 1.2 -7.75428 1.4624e+06 1.24071e+06 1.12543e+06 1.47567e+06 -511272 -649456
94 2 Si 0.325335 89.2989 4.64892 2.4 -32.6496 3.19201e+06 9.70993e+06 7.4866e+06 -795835 -1.37776e+06 -509951
95 3 O -1.21388 89.3378 4.63735 -1.2 -9.248 -1.44172e+06 -4.17626e+06 -4.65625e+06 -409667 -751791 -677512
96 3 O 1.29541 85.4312 4.34529 -1.2 -9.79942 -3.07744e+06 -6.2643e+06 -733425 -689046 -1.05906e+06 -1.28759e+06
97 3 O 0.931541 88.6841 3.2407 -1.2 -8.78737 -5.1677e+06 -3.67908e+06 841816 1.22896e+06 -355256 1.10878e+06
98 3 O 0.789906 88.369 5.86621 -1.2 -9.87608 -3.25797e+06 -1.88526e+06 -2.01463e+06 759895 -504875 784176
99 1 Mg -0.22856 85.4022 3.22167 1.2 -7.34638 -1.56441e+06 4.59935e+06 -1.74232e+06 858767 -2.05616e+06 316737
100 1 Mg -0.136464 82.1937 4.85555 1.2 -8.21487 1.96932e+06 400984 2.09047e+06 -513630 216630 -620201
101 2 Si 1.97321 84.0138 4.65026 2.4 -32.9754 4.97155e+06 1.16173e+07 8.72283e+06 449009 1.37533e+06 -1.77086e+06
102 3 O -1.25538 84.1791 4.79553 -1.2 -9.72604 -1.57633e+06 -4.27481e+06 -2.74175e+06 393433 225169 -370242
103 3 O 0.773957 80.3921 4.95455 -1.2 -9.61934 -5.94324e+06 -1.14528e+07 -2.09594e+06 -473078 -207950 -622847
104 3 O 1.2895 83.142 3.46434 -1.2 -8.34253 -4.54925e+06 -5.54445e+06 -1.01199e+06 1.48125e+06 1.13223e+06 -68594
105 1 Mg -0.123261 84.8234 0.380336 1.2 -7.65956 -233676 5.30233e+06 -566601 734247 541689 -2.73812e+06
106 3 O 1.31358 83.2661 6.02256 -1.2 -9.45497 -2.84749e+06 -1.30538e+06 -865569 539810 -986463 -1.1832e+06
107 1 Mg -0.0577906 88.1186 1.46635 1.2 -8.27478 653199 2.49806e+06 729797 -1.19791e+06 917797 1.01617e+06
108 2 Si -2.24197 86.2063 1.68779 2.4 -33.3256 4.70877e+06 1.36182e+07 5.11802e+06 467009 -98641.7 -292548
109 3 O 0.993099 86.0396 1.506 -1.2 -9.47735 -4.32583e+06 -5.30115e+06 -2.17295e+06 1.78332e+06 -512156 1.87894e+06
110 3 O -0.968274 90.0791 1.88719 -1.2 -9.08942 -4.17016e+06 -3.41704e+06 -2.73804e+06 1.2706e+06 903617 2.0219e+06
111 3 O -1.49858 86.708 0.422478 -1.2 -8.98107 -4.37627e+06 -4.89916e+06 -2.41398e+06 162482 -135440 2.65824e+06
112 3 O -1.51976 87.036 2.94104 -1.2 -9.06283 -1.8222e+06 -4.47301e+06 66058.6 210366 1.19664e+06 -194652
113 1 Mg -2.36571 90.7116 0.159994 1.2 -7.3904 -814337 2.4512e+06 420120 -1.69857e+06 -1.46252e+06 -2.20369e+06
114 1 Mg 2.23951 93.6328 1.42822 1.2 -7.91826 1.33906e+06 437553 63766 -158954 -337014 -214607
115 2 Si -0.338475 91.6184 1.63642 2.4 -33.0237 4.72094e+06 1.17727e+07 5.71398e+06 -43876.5 992112 -2.43143e+06
116 3 O 1.23342 91.4104 1.6338 -1.2 -9.69708 -1.97499e+06 -3.63259e+06 -1.18359e+06 -1.00354e+06 206012 23217.4
117 3 O -1.41724 95.2751 1.54092 -1.2 -9.51943 -4.8783e+06 -6.39727e+06 -3.84931e+06 -1.0095e+06 -495409 2.87701e+06
118 3 O -0.992081 92.0351 0.195431 -1.2 -9.01985 -1.25101e+06 -3.67537e+06 -2.90618e+06 -1.077e+06 621212 -782081
119 1 Mg -2.54246 101.287 2.81686 1.2 -8.05288 -197427 2.98218e+06 547174 68461 1.42882e+06 2.00938e+06
120 3 O -0.931299 92.5513 2.61545 -1.2 -9.15421 -3.49609e+06 -5.76869e+06 -3.99133e+06 -458554 812058 -2.5299e+06
121 1 Mg -2.52936 98.3009 4.2836 1.2 -8.3158 688780 -1.46569e+06 3.10524e+06 1.7688e+06 -222236 -1.20521e+06
122 2 Si 0.185677 100.02 4.32319 2.4 -32.9856 6.55284e+06 9.98308e+06 9.73323e+06 -1.14515e+06 -710286 957608
123 3 O -1.38028 100.266 4.25176 -1.2 -9.46098 -1.18048e+06 -3.35778e+06 -3.22402e+06 -1.61562e+06 -98711.5 -1.00592e+06
124 3 O 1.30306 96.4215 4.377 -1.2 -9.76515 -1.20714e+06 -3.81968e+06 -5.0975e+06 -1.60148e+06 13828.7 201702
125 3 O 0.944032 99.2446 3.08464 -1.2 -8.65678 -3.78982e+06 -2.78118e+06 -1.81457e+06 -365715 -1.41177e+06 187468
126 3 O 0.884525 99.3818 5.61087 -1.2 -9.7845 -2.71069e+06 -3.08873e+06 -4.48234e+06 32777.4 1.63675e+06 68878.8
127 1 Mg -0.0871031 95.7117 2.88522 1.2 -7.45023 -3.00467e+06 4.48223e+06 -1.76385e+06 1.17532e+06 -2.19796e+06 940935
128 1 Mg -0.0999867 92.8406 4.42083 1.2 -7.86706 1.61545e+06 1.40688e+06 1.77242e+06 -1.20289e+06 355060 162808
129 2 Si 2.02739 94.9738 4.40119 2.4 -32.1803 4.34531e+06 1.17549e+07 1.00808e+07 -73362.1 609373 -396051
130 3 O -1.17213 94.9313 4.39991 -1.2 -9.96515 -2.13088e+06 -4.05466e+06 -6.31342e+06 -904639 292205 -59096.5
131 3 O 0.883414 90.7194 4.74723 -1.2 -10.07 -2.47505e+06 -5.89287e+06 -1.61544e+06 -1.90066e+06 -569063 -2.0923e+06
132 3 O 1.26511 94.237 3.0669 -1.2 -9.0052 -3.79847e+06 -3.12749e+06 -2.09761e+06 808241 1.43675e+06 1.12031e+06
133 1 Mg -0.114948 95.4922 -0.00650851 1.2 -7.66112 -1.12778e+06 3.58682e+06 278048 1.05537e+06 1.38393e+06 -1.98655e+06
134 3 O 1.42445 94.0754 5.62737 -1.2 -9.08318 -3.86876e+06 -774382 -3.27003e+06 912909 -508895 -598486
135 1 Mg 0.106882 98.5879 1.19897 1.2 -8.39224 2.06298e+06 841123 1.51343e+06 -1.39936e+06 1.04507e+06 1.97136e+06
136 2 Si -2.04833 96.7773 1.52457 2.4 -33.2032 5.35114e+06 9.05718e+06 8.5692e+06 842751 -549400 718069
137 3 O 1.17168 96.6343 1.44587 -1.2 -9.3479 -2.87824e+06 -4.48247e+06 -4.57146e+06 1.42076e+06 488034 -143402
138 3 O -0.986008 100.713 1.20305 -1.2 -8.43327 -3.04232e+06 -1.61168e+06 -3.01724e+06 1.15017e+06 -849165 -107585
139 3 O -1.33125 97.3324 0.189983 -1.2 -8.92642 -3.19035e+06 -2.23104e+06 -3.54783e+06 281766 -494143 25892.1
140 3 O -1.42663 97.5695 2.73295 -1.2 -9.06362 -3.96525e+06 -1.98992e+06 -2.9176e+06 -20738 418048 -395528
141 1 Mg -2.27079 101.195 -0.257579 1.2 -8.39838 -371836 2.64798e+06 353258 -291359 -354416 -1.21704e+06
142 1 Mg 7.21441 104.028 1.19183 1.2 -8.73438 1.77857e+06 731716 314214 1.38731e+06 967451 105641
143 2 Si -0.211199 102.215 1.22272 2.4 -33.8519 6.29329e+06 1.05429e+07 1.04636e+07 1.10054e+06 -2.596e+06 268441
144 3 O 1.29298 102.061 1.1185 -1.2 -9.27513 -4.6202e+06 -3.70843e+06 -4.38271e+06 89383.7 -1.02745e+06 -246728
145 3 O 3.53828 105.993 1.10427 -1.2 -8.27707 -5.62458e+06 -3.20513e+06 -4.92724e+06 -2.34398e+06 172823 957857
146 3 O -0.908818 102.937 -0.0260552 -1.2 -8.61495 -5.20751e+06 -3.3964e+06 -3.24333e+06 -172246 1.93093e+06 -813032
147 1 Mg 2.55873 111.795 2.88554 1.2 -7.36624 -2.92182e+06 3.9769e+06 -221203 -1.2457e+06 1.74616e+06 2.4567e+06
148 3 O -1.01332 102.9 2.52128 -1.2 -8.90905 -1.11755e+06 -2.95449e+06 -2.61032e+06 565498 -1.94054e+06 266592
149 1 Mg 2.838 108.94 4.35009 1.2 -8.03559 1.50761e+06 1.38837e+06 2.33076e+06 370998 -192444 1.66714e+06
150 2 Si 5.23239 110.914 4.34937 2.4 -32.8853 1.14076e+06 9.42204e+06 8.4028e+06 -853415 68815.4 495840
151 3 O 3.77971 110.961 4.34774 -1.2 -9.78958 -6.75801e+06 -3.17347e+06 -5.87175e+06 -510788 -118065 1.00727e+06
152 3 O 6.36513 106.934 4.33216 -1.2 -8.8425 -3.29499e+06 -2.26124e+06 -2.99638e+06 -1.40325e+06 713608 2.22106e+06
153 3 O 5.93008 110.139 3.15275 -1.2 -9.25641 -1.67472e+06 -1.91396e+06 -5.07879e+06 -76119.6 -517848 -975966
154 3 O 6.0126 110.323 5.63201 -1.2 -8.78255 -3.45448e+06 -2.25019e+06 -4.40374e+06 263994 864407 -463223
155 1 Mg 4.91594 106.256 2.53211 1.2 -8.07944 -2.89794e+06 1.36298e+06 -569592 -210132 -424316 3.86217e+06
156 1 Mg 0.0776364 103.644 4.1189 1.2 -8.03859 1.03419e+06 1.37118e+06 4.0833e+06 -226409 28893.1 1.02779e+06
157 2 Si 7.01121 105.433 4.11449 2.4 -32.9259 7.62922e+06 8.27176e+06 1.20286e+07 277010 -135495 3.24815e+06
158 3 O 3.85112 105.66 3.97247 -1.2 -9.38852 -1.40597e+06 -2.40312e+06 -5.55306e+06 1.15701e+06 486524 204759
159 3 O 0.85077 101.521 4.14974 -1.2 -9.1103 -5.4422e+06 -1.40678e+06 -2.21356e+06 1.63345e+06 803464 -2.61727e+06
160 3 O 6.29538 104.753 2.66993 -1.2 -8.91965 -2.94585e+06 -1.32084e+06 -3.37283e+06 1.97024e+06 2.61557e+06 72564.2
161 1 Mg 4.76867 106.436 -0.283532 1.2 -8.23191 -1.01234e+06 3.01945e+06 -1.87861e+06 556608 3.04162e+06 -229377
162 3 O 6.28337 104.751 5.29858 -1.2 -9.16086 -2.09528e+06 -4.67285e+06 -2.13814e+06 447550 -834622 506024
163 1 Mg 4.84491 109.477 1.51462 1.2 -8.23717 1.26626e+06 305700 126380 -363256 383529 872542
164 2 Si 2.78951 107.523 1.35946 2.4 -33.4954 8.99469e+06 9.88118e+06 8.85551e+06 143116 1.17507e+06 3.19928e+06
165 3 O 5.95519 107.247 1.2645 -1.2 -9.06657 -2.52948e+06 -3.94847e+06 -3.87042e+06 643084 1.69592e+06 -50373.7
166 3 O 3.85301 111.19 1.45503 -1.2 -9.08184 -3.00267e+06 -4.09417e+06 -4.20443e+06 2.59853e+06 1.65059e+06 41463.1
167 3 O 3.44308 108.203 0.146652 -1.2 -8.94585 -2.83503e+06 -5.59253e+06 -1.65594e+06 59283 -801062 820446
168 3 O 3.54772 108.131 2.67811 -1.2 -9.17433 -1.90807e+06 -1.76783e+06 -3.16443e+06 1.10058e+06 2.19877e+06 437591
169 1 Mg 2.31563 111.87 -0.174555 1.2 -7.37287 -586417 3.29484e+06 -691839 -762575 -410136 -1.8848e+06
170 1 Mg 7.15917 114.427 1.23834 1.2 -7.76655 503234 245491 3.92063e+06 454363 -1167.13 787184
171 2 Si 4.53792 112.726 1.53709 2.4 -32.0651 4.96636e+06 1.12869e+07 8.13206e+06 1.49165e+06 1.12145e+06 2.24321e+06
172 3 O 6.16365 112.74 1.40722 -1.2 -10.0403 -171719 -5.56341e+06 -4.49641e+06 -34440.5 -613116 -1.29339e+06
173 3 O 3.4863 116.483 1.15505 -1.2 -9.06579 -1.19528e+06 -5.58292e+06 -2.99502e+06 -141995 261365 482307
174 3 O 3.88524 113.263 0.162801 -1.2 -9.56876 -2.3709e+06 -5.31721e+06 -942019 -397672 1.76776e+06 -279141
175 1 Mg 2.28641 122.103 2.5429 1.2 -7.29344 -2.46689e+06 3.43276e+06 170778 -1.14153e+06 2.22113e+06 237759
176 3 O 3.86842 113.394 2.77673 -1.2 -9.72032 -4.29859e+06 -4.42661e+06 -2.70261e+06 -658515 -1.47169e+06 -826918
177 1 Mg 2.57194 119.33 4.20619 1.2 -8.42285 1.81677e+06 1.73398e+06 3.95819e+06 191622 417751 -470525
178 2 Si 5.02602 121.351 4.3351 2.4 -32.801 6.21457e+06 1.19443e+07 7.64346e+06 491113 -588684 -1.98053e+06
179 3 O 3.4921 121.275 4.38604 -1.2 -9.75207 -3.1396e+06 -2.93661e+06 -3.34785e+06 615239 -164394 1.4942e+06
180 3 O 6.1569 117.393 4.36815 -1.2 -8.47968 -3.64391e+06 -2.91304e+06 -2.21605e+06 -1.76864e+06 547467 -809686
181 3 O 5.76986 120.672 2.99163 -1.2 -9.32173 -1.53534e+06 -2.03935e+06 -2.24629e+06 -627094 -1.39717e+06 1.18568e+06
182 3 O 5.70481 120.628 5.54121 -1.2 -8.7504 -4.85909e+06 -2.32041e+06 -4.64584e+06 -209315 1.64064e+06 1.23065e+06
183 1 Mg 5.05619 116.996 2.74041 1.2 -8.10754 189532 2.9233e+06 410516 519060 252266 533515
184 1 Mg 4.59782 114.137 4.40728 1.2 -8.14948 940609 812029 1.14756e+06 -868363 -335067 -372963
185 2 Si 6.90627 115.896 4.51827 2.4 -33.9379 8.1022e+06 9.55223e+06 9.09295e+06 881465 -1.28415e+06 -881633
186 3 O 3.69328 116.137 4.31407 -1.2 -9.1242 -3.66811e+06 -2.28987e+06 -2.46322e+06 1.08003e+06 -1.42895e+06 -315735
187 3 O 5.89808 112.407 4.30153 -1.2 -9.34908 -1.68685e+06 -6.18087e+06 -2.7102e+06 332728 -285247 1.79149e+06
188 3 O 6.22329 115.219 3.21292 -1.2 -8.5498 -2.61935e+06 -4.23266e+06 -584919 170857 1.00804e+06 -1.08395e+06
189 1 Mg 4.73995 117.145 -0.444883 1.2 -7.34642 -4.13358e+06 2.97214e+06 -337760 954863 2.98009e+06 -2.56415e+06
190 3 O 6.13527 115.275 5.76645 -1.2 -8.88799 -1.67582e+06 -2.29276e+06 -3.82264e+06 334630 -1.40555e+06 986896
191 1 Mg 4.70812 119.912 1.31067 1.2 -8.09381 2.05851e+06 237544 3.59018e+06 -512218 144170 -1.47869e+06
192 2 Si 2.70887 117.816 1.1052 2.4 -33.341 5.23719e+06 8.52578e+06 7.94335e+06 -977942 971453 -1.26085e+06
193 3 O 5.89348 117.872 1.16936 -1.2 -9.57303 -3.55399e+06 -2.84657e+06 -3.25276e+06 -1.64056e+06 -996650 1.29725e+06
194 3 O 3.68642 121.684 1.25302 -1.2 -9.76581 -1.12565e+06 -3.32258e+06 -5.00371e+06 1.40329e+06 752501 83375.9
195 3 O 3.3678 118.519 -0.106386 -1.2 -9.29648 -3.62281e+06 -5.32934e+06 -5.32064e+06 663543 592317 3.45915e+06
196 3 O 3.24562 118.637 2.45214 -1.2 -8.66121 -2.46695e+06 -1.94889e+06 -2.14983e+06 779252 780456 1.14467e+06
197 1 Mg 2.30139 122.145 -0.277614 1.2 -7.45461 -190724 4.09767e+06 490970 -719953 -393542 -2.96918e+06
198 1 Mg 6.96608 125.212 1.04779 1.2 -7.7608 934667 588361 4.0256e+06 1.5854e+06 -562139 -94015.9
199 2 Si 4.32484 123.211 1.18666 2.4 -32.1322 4.18455e+06 6.16413e+06 1.30867e+07 295351 -36534.6 -2.69458e+06
200 3 O 5.89719 123.238 1.09401 -1.2 -10.119 -415421 -482479 -4.55631e+06 -674799 -301297 1.60536e+06
201 3 O 3.68088 127.152 1.11005 -1.2 -8.75523 -1.19429e+06 -952674 -7.49734e+06 -2.09633e+06 271555 1.87072e+06
202 3 O 3.65977 123.841 -0.185608 -1.2 -9.06658 -2.85615e+06 -441271 -897489 1.1591e+06 198184 634289
203 1 Mg 2.38168 133.064 2.90453 1.2 -7.54516 642826 4.30165e+06 1.64675e+06 -1.34584e+06 980771 1.69956e+06
204 3 O 3.66738 123.787 2.52752 -1.2 -9.5809 -1.71875e+06 -1.67971e+06 -1.30465e+06 63408.1 -534861 394021
205 1 Mg 2.64265 130.119 4.22742 1.2 -8.49655 644616 -634894 4.41702e+06 1.41276e+06 -593678 -427827
206 2 Si 5.2152 131.81 4.34183 2.4 -32.9858 1.99636e+06 9.735e+06 1.05869e+07 -1.23513e+06 -19395.7 -289124
207 3 O 3.76569 131.89 4.19649 -1.2 -9.45804 -4.93124e+06 -3.1318e+06 -5.0065e+06 -1.96274e+06 -1.58274e+06 -157370
208 3 O 6.33185 128.204 4.15228 -1.2 -8.51189 -3.44671e+06 -3.83026e+06 -4.67283e+06 -215555 831597 2.0404e+06
209 3 O 6.07698 131.143 3.08848 -1.2 -9.09978 -4.19609e+06 -170721 -2.24825e+06 312397 -545166 892597
210 3 O 5.85386 131.203 5.65585 -1.2 -8.87241 -2.65716e+06 -3.67677e+06 -3.14065e+06 475405 -8247.2 1.11131e+06
211 1 Mg 4.91214 127.781 2.44652 1.2 -7.86376 -872287 1.92476e+06 -267406 1.27528e+06 -1.59542e+06 -8025.96
212 1 Mg 4.53236 124.677 4.25831 1.2 -8.09948 2.72646e+06 1.12671e+06 2.64328e+06 -6453.14 548302 -75083.8
213 2 Si 6.89287 126.692 3.86912 2.4 -33.9059 3.97524e+06 8.10915e+06 9.22328e+06 1.22317e+06 -2.43332e+06 -3.20134e+06
214 3 O 3.64184 126.807 3.87613 -1.2 -9.22234 -5.36737e+06 -1.26927e+06 -5.10512e+06 1.63467e+06 613598 570486
215 3 O 5.76923 122.898 4.31969 -1.2 -9.08818 -857427 -1.94255e+06 -2.47371e+06 1.64625e+06 -366078 186503
216 3 O 6.1942 126.194 2.62267 -1.2 -9.31372 -4.59363e+06 -2.65137e+06 -5.12457e+06 -561879 -8278.46 278098
217 1 Mg 5.12272 127.247 -0.180732 1.2 -7.77995 -929585 2.38996e+06 770425 563434 2.46115e+06 -2.41565e+06
218 3 O 6.20164 125.987 5.21034 -1.2 -8.41153 -989817 -3.44897e+06 -888007 228325 -528571 1.44458e+06
219 1 Mg 5.00903 130.601 1.344 1.2 -8.58961 1.98952e+06 -667421 3.19632e+06 -1.59174e+06 271848 -286912
220 2 Si 2.9026 128.723 0.915097 2.4 -33.2936 6.36461e+06 7.81068e+06 1.26496e+07 -1.30675e+06 -1.8412e+06 -319965
221 3 O 6.13825 128.648 1.08575 -1.2 -9.56732 -3.7729e+06 -1.95969e+06 -5.22201e+06 78245.8 -1.6129e+06 1.7575e+06
222 3 O 3.82718 132.501 1.31015 -1.2 -8.83823 -960712 -1.03116e+06 -2.44915e+06 909408 640939 -208890
223 3 O 3.62905 129.094 -0.423464 -1.2 -8.44555 -2.54e+06 -3.19981e+06 -4.16633e+06 -500645 -348848 981296
224 3 O 3.6021 129.479 2.22047 -1.2 -8.78281 -3.7401e+06 -2.60334e+06 -1.2859e+06 284890 1.4465e+06 727386
225 1 Mg 2.45074 132.961 -0.298651 1.2 -8.15643 -68641.5 2.80175e+06 1.30815e+06 -877818 -1.12108e+06 -1.31464e+06
226 1 Mg 7.1051 135.897 1.26478 1.2 -8.6599 2.5291e+06 692991 3.99109e+06 776954 2621.77 837182
227 2 Si 4.51499 134.03 1.22051 2.4 -33.2368 6.62367e+06 1.06468e+07 1.01809e+07 621601 64281 -8648.96
228 3 O 6.0644 133.977 1.12683 -1.2 -9.50266 -1.98842e+06 -2.61235e+06 -3.20493e+06 -293849 1.20232e+06 -462481
229 3 O 3.33 137.875 1.39409 -1.2 -8.3792 -3.25931e+06 -1.59327e+06 -2.50163e+06 -993765 -766686 1.61467e+06
230 3 O 3.73198 134.729 -0.13985 -1.2 -8.88034 -3.97336e+06 -853803 -2.09761e+06 -1.32135e+06 2.36673e+06 183073
231 1 Mg 2.35538 143.601 3.0326 1.2 -8.14806 -794153 3.08599e+06 801172 -1.22882e+06 2.17811e+06 1.15936e+06
232 3 O 3.94832 134.738 2.50528 -1.2 -8.96504 -2.65759e+06 -2.63522e+06 -2.05713e+06 -65134.1 -411006 -932187
233 1 Mg 2.52288 140.562 4.47291 1.2 -8.88775 2.6242e+06 -451035 1.7843e+06 883352 206237 -2660.02
234 2 Si 5.09221 142.48 4.50573 2.4 -34.3389 8.54896e+06 8.23544e+06 1.07316e+07 -189490 -479635 -1.31422e+06
235 3 O 3.49071 142.58 4.49392 -1.2 -8.68853 -1.28558e+06 -3.30596e+06 -3.39186e+06 -807184 -760655 756184
236 3 O 6.21443 138.812 4.08628 -1.2 -8.53953 -4.6025e+06 -3.1758e+06 -4.06178e+06 -1.00798e+06 -81132.8 7394.51
237 3 O 5.72041 142.001 3.10019 -1.2 -8.7773 -3.62366e+06 -3.61031e+06 -157347 -225397 180620 -1.52044e+06
238 3 O 5.5877 141.793 5.91181 -1.2 -8.114 -5.50847e+06 -2.95467e+06 -516390 -597394 948217 847057
239 1 Mg 4.71463 138.307 2.88608 1.2 -8.39552 -966774 3.26368e+06 1.485e+06 639396 -1.23506e+06 1.47279e+06
240 1 Mg 4.7398 135.223 4.33143 1.2 -8.67981 3.07753e+06 162542 1.33066e+06 -852380 808442 -414000
241 2 Si 6.85854 137.341 4.30144 2.4 -34.7007 5.18858e+06 9.35419e+06 8.25268e+06 -217731 1.61863e+06 779914
242 3 O 3.63685 137.378 4.39568 -1.2 -8.90909 -4.63227e+06 -2.80713e+06 -4.19927e+06 -804621 615462 37233.2
243 3 O 5.78702 133.404 4.50846 -1.2 -8.99438 -3.54958e+06 -2.82768e+06 -3.55907e+06 405776 -409392 1.00302e+06
244 3 O 6.27037 136.457 3.09741 -1.2 -8.15616 -3.62172e+06 -886836 -4.47427e+06 -250277 -82842 308675
245 1 Mg 4.68332 138.512 -0.360729 1.2 -8.16973 665490 2.72026e+06 1.1203e+06 627731 1.10288e+06 -408085
246 3 O 6.23883 136.654 5.52494 -1.2 -8.52153 -5.61762e+06 -3.61075e+06 -6.36835e+06 616667 441635 -510842
247 1 Mg 4.7691 141.548 1.3466 1.2 -8.38906 3.36173e+06 253752 1.86489e+06 -587189 585674 503247
248 2 Si 2.61031 139.387 1.58299 2.4 -35.1997 1.00265e+07 8.33159e+06 9.66806e+06 -483144 -359286 552453
249 3 O 5.77984 139.254 1.37758 -1.2 -8.28688 -3.62357e+06 -1.62912e+06 -4.35031e+06 -626908 2.1674e+06 760021
250 3 O 3.45281 143.183 1.35904 -1.2 -8.98828 -3.53484e+06 -6.77396e+06 -5.33754e+06 796334 -418425 902955
251 3 O 3.07576 140.105 0.220732 -1.2 -7.95746 -5.41122e+06 -1.90437e+06 -1.51705e+06 -631720 -548164 914547
252 3 O 3.28985 140.081 2.76719 -1.2 -8.3846 -5.26535e+06 -1.68487e+06 -6.72613e+06 -310100 1.10263e+06 -635059
253 1 Mg 2.04981 143.454 0.0425656 1.2 -7.9931 -1.62027e+06 2.81722e+06 -304908 -209616 -13188.7 -1.79719e+06
254 1 Mg 7.07092 146.703 1.45078 1.2 -7.84158 1.35383e+06 903979 1.92784e+06 252448 -463187 517783
255 2 Si 4.26847 144.536 1.42672 2.4 -33.2157 7.78643e+06 5.98445e+06 1.08532e+07 916135 1.09034e+06 -1.52544e+06
256 3 O 5.84888 144.392 1.33824 -1.2 -9.23248 -3.14181e+06 -2.9103e+06 -4.36812e+06 1.31385e+06 1.14555e+06 367251
257 3 O 3.58367 148.224 1.37137 -1.2 -9.32664 -3.22058e+06 -3.87173e+06 -4.33402e+06 -1.79966e+06 -302704 592456
258 3 O 3.61503 145.233 0.0646154 -1.2 -8.62372 -2.78225e+06 -3.39802e+06 1.30475e+06 -357345 1.67024e+06 656990
259 1 Mg 1.79247 153.328 1.58727 1.2 -7.35758 -4.39849e+06 -777396 1.98438e+06 223523 -1.14867e+06 1.72594e+06
260 3 O 3.74821 145.082 2.82484 -1.2 -9.23967 -3.36224e+06 -4.35542e+06 -3.39559e+06 -585795 -1.45932e+06 -1.67599e+06
261 1 Mg 1.9808 151.561 4.70276 1.2 -8.35433 -324112 4.44809e+06 46351.6 -152836 1.20315e+06 813237
262 2 Si 3.98929 152.114 2.73879 2.4 -33.3984 7.99962e+06 9.13185e+06 6.5839e+06 -71145.7 -1.42446e+06 698498
263 3 O 2.66318 152.808 3.21449 -1.2 -8.61195 -5.33323e+06 -3.53751e+06 -3.31473e+06 525261 412382 -1.89107e+06
264 3 O 6.13486 149.297 4.28238 -1.2 -8.64225 -3.25163e+06 -7.88739e+06 -1.44022e+06 1.60182e+06 -11404.4 1.05048e+06
265 3 O 4.76955 152.953 1.53512 -1.2 -9.19215 -5.15064e+06 -749469 -3.27152e+06 1.20505e+06 -1.67887e+06 -1.81489e+06
266 3 O 4.84583 151.872 3.97438 -1.2 -8.42644 -6.02853e+06 -6.06229e+06 -1.13308e+06 -1.38736e+06 -2.22966e+06 -1.53766e+06
267 1 Mg 4.76477 148.687 2.80301 1.2 -7.79998 -345276 3.54757e+06 179224 1.22165e+06 -2.66993e+06 53407.9
268 1 Mg 4.68419 145.764 4.31432 1.2 -8.26137 1.83026e+06 1.51462e+06 182719 -632836 -825454 -700568
269 2 Si 6.72485 147.9 4.496 2.4 -34.0428 4.14719e+06 9.7725e+06 5.8953e+06 172300 -2.59286e+06 -2.67185e+06
270 3 O 3.49423 148.024 4.37781 -1.2 -9.26329 -5.74316e+06 -4.40703e+06 -1.34257e+06 774816 -1.37762e+06 796155
271 3 O 5.67919 143.953 4.56476 -1.2 -8.92559 -4.84929e+06 -4.999e+06 -3.37765e+06 637547 -270359 -662851