ITEM: TIMESTEP
83300
ITEM: NUMBER OF ATOMS
5600
ITEM: BOX BOUNDS xy xz yz pp pp pp
0.0000000000000000e+00 7.1234999999999999e+00 0.0000000000000000e+00
0.0000000000000000e+00 2.0198500000000001e+02 2.3744999999999998e+00
0.0000000000000000e+00 1.1958400000000000e+02 0.0000000000000000e+00
ITEM: ATOMS id type element xu yu zu q c_pe c_s[1] c_s[2] c_s[3] c_s[4] c_s[5] c_s[6]
1 1 Mg -1.21156 46.9135 -0.881706 1.2 -7.25672 1.2746e+06 -1.38875e+06 4.49123e+06 1.47706e+06 1.12667e+06 -1.32454e+06
2 1 Mg 3.45967 50.0729 1.48049 1.2 -8.74642 1.71979e+06 -350435 -1.30424e+06 146926 -1.73307e+06 1.13046e+06
3 2 Si 1.47613 48.4995 0.140078 2.4 -34.2955 9.68729e+06 7.83077e+06 1.24474e+07 -2.19614e+06 1.66676e+06 -265591
4 3 O 2.61408 47.4931 0.624802 -1.2 -7.99148 -2.72878e+06 16516.5 -6.12385e+06 -1.94457e+06 -1.39646e+06 -885074
5 3 O -0.731073 51.9797 1.42349 -1.2 -8.78011 -4.45921e+06 -825811 -2.04326e+06 -1.95287e+06 -479774 614681
6 3 O 0.881129 47.837 -1.2043 -1.2 -8.65405 -1.9031e+06 -622458 -4.66734e+06 1.73296e+06 1.08157e+06 431992
7 1 Mg -2.24708 58.1948 3.0201 1.2 -8.03603 -454778 3.58513e+06 162089 -1.39387e+06 2.40805e+06 2.68654e+06
8 3 O 0.327953 49.0319 1.14367 -1.2 -7.99598 -5.49211e+06 -2.92312e+06 -3.02316e+06 -2.94205e+06 1.19285e+06 1.40445e+06
9 1 Mg -2.06127 55.0732 4.57689 1.2 -8.39227 1.99812e+06 -640787 4.18803e+06 379267 16966.8 1.53802e+06
10 2 Si 0.645665 57.117 4.38188 2.4 -33.7367 3.78476e+06 1.0573e+07 7.68783e+06 -170009 -1.46144e+06 5.03532e+06
11 3 O -0.884577 56.9071 4.37253 -1.2 -9.03796 -3.54257e+06 -964343 -5.10558e+06 -516015 -184122 -2.67354e+06
12 3 O 1.46617 53.5157 4.3847 -1.2 -9.30328 -2.53598e+06 -2.10321e+06 -3.27372e+06 39204.2 -956330 -2.25538e+06
13 3 O 1.29813 56.4332 3.09425 -1.2 -8.43255 -5.01203e+06 -1.71921e+06 -2.48427e+06 -126022 829850 -1.08586e+06
14 3 O 1.32829 56.4657 5.56475 -1.2 -9.20439 -5.469e+06 -2.22248e+06 -6.78113e+06 532793 -967521 -2.46318e+06
15 1 Mg 0.185113 52.9924 2.95054 1.2 -8.17941 -2.34616e+06 3.58853e+06 -1.27254e+06 1.80461e+06 -4.30804e+06 2.47771e+06
16 1 Mg 0.370211 49.3527 3.0864 1.2 -8.66924 4.00825e+06 566041 -3.94886e+06 218579 -707741 1.27548e+06
17 2 Si 2.0408 51.916 4.40183 2.4 -33.5164 6.53365e+06 9.60892e+06 8.34775e+06 -824814 1.58002e+06 2.18387e+06
18 3 O -1.16265 52.0371 4.47089 -1.2 -8.86628 -1.68607e+06 -3.31964e+06 -3.41006e+06 679184 1.18269e+06 -804072
19 3 O 3.11282 49.0867 3.00228 -1.2 -6.23339 -2.71547e+06 -1.7345e+06 -2.63175e+06 479403 2.05879e+06 -1.40195e+06
20 3 O 1.35499 51.2917 3.18592 -1.2 -8.15331 -4.67377e+06 -4.05787e+06 -4.54101e+06 1.99702e+06 -931145 -226488
21 1 Mg 0.299496 52.3736 -0.200029 1.2 -8.39182 -1.0328e+06 2.34458e+06 1.97931e+06 -90856 2.379e+06 -536560
22 3 O 1.56548 51.0989 5.73997 -1.2 -9.63289 -7.14309e+06 -3.45993e+06 -6.14553e+06 1.49251e+06 436392 -1.18135e+06
23 1 Mg 0.39038 55.8138 1.31298 1.2 -8.57101 2.96703e+06 1.24474e+06 2.49075e+06 -260017 259790 2.02863e+06
24 2 Si -1.69917 53.4771 1.35257 2.4 -33.571 3.65878e+06 1.24979e+07 8.60332e+06 -127062 -560075 432213
25 3 O 1.6561 53.3865 1.36766 -1.2 -8.60391 -8.30678e+06 -4.8413e+06 -3.31282e+06 -2.48149e+06 1.50827e+06 962066
26 3 O -0.855723 57.7035 1.18653 -1.2 -8.30442 -3.69851e+06 -3.58117e+06 -3.67869e+06 1.44271e+06 -1.14054e+06 1.40121e+06
27 3 O -1.19041 54.2008 -0.138614 -1.2 -7.82373 -3.3854e+06 785446 14804.7 354242 944172 -2.91295e+06
28 3 O -0.965594 54.4519 2.4743 -1.2 -8.64685 -3.88588e+06 -1.77534e+06 -906178 1.64232e+06 -466755 -733643
29 1 Mg -1.95616 57.413 -0.333099 1.2 -8.18653 -2.27988e+06 3.13655e+06 -2.23807e+06 -966287 -938203 -662845
30 1 Mg 2.35262 61.0231 0.879423 1.2 -7.8033 151180 3.1835e+06 3.38836e+06 292772 -494020 1.15849e+06
31 2 Si -0.190407 59.2253 1.34033 2.4 -34.0187 1.0211e+07 6.13132e+06 1.01967e+07 455160 1.81703e+06 3.57373e+06
32 3 O 1.35502 59.1508 1.44474 -1.2 -8.73925 -3.52322e+06 -628888 -4.14795e+06 -866365 93006.6 -3.10878e+06
33 3 O -1.2028 62.9242 0.791775 -1.2 -9.77858 -3.55644e+06 -2.17237e+06 -3.40478e+06 -1.79114e+06 1.11342e+06 -575026
34 3 O -0.844603 59.6759 -0.144122 -1.2 -8.64775 -1.89931e+06 -3.97319e+06 -2.18119e+06 -1.11285e+06 2.23997e+06 2.41397e+06
35 1 Mg -2.65901 68.7916 2.53218 1.2 -6.62975 -2.61772e+06 3.38162e+06 1.13307e+06 -269067 740995 777361
36 3 O -0.920833 59.8729 2.545 -1.2 -8.93824 -5.06594e+06 -1.30918e+06 -2.10857e+06 1.06619e+06 -844224 -3.47944e+06
37 1 Mg -2.45687 65.8992 3.88305 1.2 -7.74813 1.4338e+06 423911 3.46572e+06 -123464 477597 1.32894e+06
38 2 Si 0.0326804 67.787 4.01732 2.4 -32.2268 4.16215e+06 1.08359e+07 6.01608e+06 -309449 53941 -3.45372e+06
39 3 O -1.53434 67.8434 4.23953 -1.2 -9.82059 -1.22334e+06 -3.64676e+06 -2.02047e+06 -736443 -1.08712e+06 1.66417e+06
40 3 O 1.28925 64.1159 3.99195 -1.2 -9.92686 -2.35842e+06 -4.14178e+06 -4.0821e+06 -1.07858e+06 1.47444e+06 -621533
41 3 O 0.753789 67.0575 2.95777 -1.2 -10.2441 -186557 -4.28701e+06 -8.01784e+06 190053 -140574 -1.08112e+06
42 3 O 0.679686 67.0826 5.39883 -1.2 -8.83451 -4.98479e+06 -2.4481e+06 -3.08109e+06 -842648 2.047e+06 327272
43 1 Mg -0.0682577 63.2045 2.38392 1.2 -7.16147 -317754 3.3506e+06 -339854 594142 -2.42666e+06 1.77111e+06
44 1 Mg 0.0893802 60.8777 4.07625 1.2 -8.2079 2.08629e+06 -86493.9 3.54079e+06 -1.43268e+06 -430861 1.06151e+06
45 2 Si 2.00246 62.7104 4.17375 2.4 -31.945 4.0516e+06 1.1029e+07 9.39405e+06 -1.27398e+06 353429 2.22578e+06
46 3 O -1.106 62.5221 4.16717 -1.2 -9.74639 472569 -4.05772e+06 -4.69555e+06 -1.49998e+06 -2.55601e+06 -1.47308e+06
47 3 O 1.17763 58.7179 4.27162 -1.2 -8.67588 -2.14092e+06 -364964 -5.88021e+06 931632 1.83184e+06 -2.83345e+06
48 3 O 1.55331 61.8825 2.74811 -1.2 -9.1711 -1.26751e+06 -3.48144e+06 -82401 804850 382566 939204
49 1 Mg 0.040241 63.3642 -0.565979 1.2 -6.70846 -1.24772e+06 3.37196e+06 -208399 144777 1.55224e+06 -41978.8
50 3 O 1.29495 61.9803 5.33175 -1.2 -9.37162 -4.13501e+06 -2.75659e+06 -3.13785e+06 -54453.2 1.05004e+06 -1.5065e+06
51 1 Mg -0.143754 66.4043 1.21085 1.2 -7.0682 -742577 1.14844e+06 1.01042e+06 -1.51792e+06 479849 -848837
52 2 Si -2.02032 64.4537 0.86356 2.4 -31.5595 2.12974e+06 8.83805e+06 8.72246e+06 -513369 1.58531e+06 68299.7
53 3 O 1.26161 64.1684 0.906544 -1.2 -9.99849 -2.99564e+06 -3.653e+06 -3.73027e+06 718124 -207920 241908
54 3 O -1.08945 68.4151 1.2521 -1.2 -10.4466 -1.26898e+06 -6.65739e+06 -3.61643e+06 -431536 -237653 -701968
55 3 O -1.28296 65.2895 -0.140989 -1.2 -10.254 -2.09817e+06 -5.02253e+06 -5.26278e+06 -1.00795e+06 -592131 1.17602e+06
56 3 O -1.36933 64.9732 2.33491 -1.2 -9.74525 -1.33985e+06 -522635 -2.26109e+06 -643746 900350 -117777
57 1 Mg -2.49492 68.9945 -0.270741 1.2 -7.07119 -1.47563e+06 2.31729e+06 -705833 -1.83591e+06 -2.2699e+06 -2.00863e+06
58 1 Mg 2.14074 71.7571 0.947374 1.2 -8.36647 2.12394e+06 -366823 1.11813e+06 725949 104719 -199619
59 2 Si -0.459746 69.8177 1.28771 2.4 -32.3159 1.04244e+06 7.19678e+06 1.00566e+07 -441601 1.43628e+06 -904690
60 3 O 1.07492 69.8815 1.26717 -1.2 -10.0403 -3.38102e+06 -3.27573e+06 -6.61787e+06 122711 879894 43902.4
61 3 O -1.42101 73.6742 1.06538 -1.2 -8.53024 -4.00807e+06 -6.39071e+06 -3.92556e+06 -933851 1.99518e+06 679510
62 3 O -1.27679 70.5382 -0.1083 -1.2 -9.14428 -2.01756e+06 -2.38422e+06 -3.40124e+06 -1.24153e+06 1.69584e+06 -1.17162e+06
63 1 Mg -2.42539 78.9128 2.65307 1.2 -9.73956 1.55861e+06 852175 187912 436811 -239822 1.40132e+06
64 3 O -1.01102 70.6019 2.42125 -1.2 -8.91515 -4.18553e+06 -2.4698e+06 -6.32121e+06 1.65844e+06 436855 736493
65 1 Mg -2.14655 76.0704 4.16881 1.2 -9.40328 5.08434e+06 -751451 1.42831e+06 -204656 671214 -829683
66 2 Si 0.254181 78.4134 4.58958 2.4 -37.392 1.08202e+07 9.51075e+06 7.5781e+06 -603154 -1.07899e+06 -3.56442e+06
67 3 O -1.19032 78.3639 4.28136 -1.2 -7.41973 -1.00838e+07 -2.29872e+06 -3.95974e+06 -497632 467129 2.28325e+06
68 3 O 1.44624 74.4777 4.07536 -1.2 -8.11265 -1.18154e+06 -4.97139e+06 -4.42697e+06 -2.11226e+06 381119 -186342
69 3 O 1.07597 77.5383 3.3855 -1.2 -6.67448 -5.95175e+06 -1.3407e+06 -5.02292e+06 -660482 -1.08975e+06 913305
70 3 O 1.00149 77.7954 5.77527 -1.2 -7.01849 -6.47937e+06 -2.92587e+06 -8.72949e+06 -682416 993784 1.35509e+06
71 1 Mg 0.0464009 73.9956 2.65848 1.2 -8.24067 -740359 2.58447e+06 1.86688e+06 625021 258412 1.29585e+06
72 1 Mg 0.0241762 71.1565 4.36254 1.2 -7.98965 1.24181e+06 -769794 3.40007e+06 -25260.1 127994 -1.11111e+06
73 2 Si 2.30516 72.9015 3.97375 2.4 -32.9714 4.41878e+06 9.79386e+06 1.06167e+07 -2.56837e+06 1.66525e+06 -2.56923e+06
74 3 O -0.956504 73.0788 4.25651 -1.2 -9.86182 -4.92393e+06 -2.96631e+06 -4.24347e+06 -1.10468e+06 1.30347e+06 1.4832e+06
75 3 O 0.652785 69.3104 4.03883 -1.2 -9.51129 -2.53925e+06 -3.91606e+06 -2.24741e+06 1.52778e+06 -489489 2.35938e+06
76 3 O 1.53298 72.5953 2.60199 -1.2 -8.70958 -2.3104e+06 -5.45348e+06 -5.02809e+06 297385 3.01902e+06 -767482
77 1 Mg -0.149292 74.3311 -0.346697 1.2 -8.73904 -855871 3.03035e+06 -116595 1.35989e+06 2.73295e+06 -744676
78 3 O 1.53901 72.2004 5.17679 -1.2 -9.08023 -4.92378e+06 -4.71856e+06 -2.94923e+06 2.79374e+06 -2.50722e+06 4.07456e+06
79 1 Mg 0.00189214 76.8356 1.55746 1.2 -9.70068 2.86026e+06 -1.5427e+06 4.75609e+06 -1.23646e+06 813077 708067
80 2 Si -2.18025 75.0313 1.16158 2.4 -35.3291 7.3188e+06 8.31721e+06 9.28335e+06 333427 -1.02975e+06 -464631
81 3 O 1.04905 75.1103 1.22584 -1.2 -8.53551 -5.93511e+06 -4.28987e+06 -5.71333e+06 -463110 -654297 794199
82 3 O -0.845127 78.8435 1.40586 -1.2 -6.7205 -6.4718e+06 -7.21516e+06 -5.71094e+06 1.59904e+06 461879 2.08333e+06
83 3 O -1.47091 75.8366 -0.127178 -1.2 -7.31825 -5.88269e+06 -3.73353e+06 -6.02183e+06 1.43335e+06 -1.92688e+06 -556168
84 3 O -1.4847 75.7946 2.33272 -1.2 -8.04024 -6.63372e+06 -1.96233e+06 -7.55735e+06 -211769 1.57063e+06 -1.51682e+06
85 1 Mg -2.21694 79.3339 0.087142 1.2 -9.56335 2.4024e+06 2.81712e+06 405838 -263679 -1.08791e+06 -291196
86 1 Mg 2.40084 82.5437 1.57422 1.2 -9.41986 4.45303e+06 375953 3.50556e+06 -556267 -540456 750413
87 2 Si -0.144067 80.3131 1.70744 2.4 -38.3094 1.12237e+07 3.74026e+06 1.06749e+07 246106 545355 -662095
88 3 O 1.33707 80.0847 1.63201 -1.2 -7.19159 -1.15212e+07 -1.60951e+06 -8.31184e+06 -590463 -2.06729e+06 1.36454e+06
89 3 O -1.42308 84.273 1.89582 -1.2 -8.23959 -5.09433e+06 -8.26882e+06 -2.94584e+06 1.26744e+06 644614 -603179
90 3 O -0.877217 80.9204 0.502457 -1.2 -5.9405 -6.12558e+06 -4.43768e+06 -8.33475e+06 474258 1.10416e+06 3.00598e+06
91 1 Mg -2.43304 90.1239 3.21943 1.2 -8.54316 248862 3.8291e+06 -1.42109e+06 -1.19417e+06 1.53931e+06 2.49275e+06
92 3 O -0.90891 80.9592 2.86191 -1.2 -6.49806 -7.51395e+06 -1.54689e+06 -1.02307e+07 94497.8 -1.86752e+06 -749385
93 1 Mg -2.26384 86.9414 4.80738 1.2 -8.60114 2.51878e+06 2.2418e+06 814315 459204 65099 -1.30317e+06
94 2 Si 0.165223 88.8534 4.31425 2.4 -34.3485 6.6698e+06 1.42484e+07 5.58764e+06 505037 -1.22633e+06 -1.05454e+06
95 3 O -1.43094 88.9948 4.4694 -1.2 -9.09356 -2.893e+06 -5.33375e+06 -1.87058e+06 361825 -2.09331e+06 69168.2
96 3 O 1.53604 85.1569 4.86985 -1.2 -7.82027 -5.00025e+06 -3.63378e+06 -4.79641e+06 -561481 -449418 -2.09263e+06
97 3 O 0.791004 88.6276 2.8876 -1.2 -8.48569 -4.91123e+06 -6.99609e+06 -2.69038e+06 391142 -2.12787e+06 -1.8515e+06
98 3 O 0.663644 87.9811 5.56175 -1.2 -8.99131 -2.11942e+06 -6.17457e+06 974826 -70238.5 829266 1.65896e+06
99 1 Mg 0.120845 84.923 3.48992 1.2 -8.43643 605728 3.15983e+06 -76538.9 744242 -1.62542e+06 2.24857e+06
100 1 Mg -0.245071 81.8537 4.37572 1.2 -9.74794 4.24901e+06 -901931 1.46197e+06 -522569 -881491 -288595
101 2 Si 2.06521 83.5229 4.89705 2.4 -35.8982 4.70477e+06 1.14301e+07 7.04393e+06 346726 -393134 1.39129e+06
102 3 O -1.17664 83.5633 4.88397 -1.2 -8.29979 -7.90731e+06 -5.47271e+06 -5.47455e+06 1.85366e+06 -805921 -993099
103 3 O 0.916564 79.8997 4.37515 -1.2 -6.7865 -5.96279e+06 -3.33037e+06 -3.10405e+06 1.3073e+06 -862413 1.19044e+06
104 3 O 1.39612 82.9487 3.6833 -1.2 -7.69017 -5.32409e+06 -4.00493e+06 -4.66156e+06 -1.36144e+06 -575131 -1.63436e+06
105 1 Mg -0.0440535 84.8595 0.0427214 1.2 -8.00488 -1.01709e+06 1.95634e+06 416130 1.51615e+06 1.01239e+06 -2.0535e+06
106 3 O 1.31255 82.9862 6.14982 -1.2 -7.70028 -7.01365e+06 -4.91618e+06 -6.54561e+06 848734 -605658 -774407
107 1 Mg 0.168459 87.6496 1.4077 1.2 -7.83072 1.34829e+06 3.1438e+06 -6046.48 -1.07809e+06 -760340 -460231
108 2 Si -1.94619 85.6694 1.80361 2.4 -33.9301 6.17602e+06 7.74019e+06 8.51763e+06 1.23088e+06 79266.4 766608
109 3 O 1.26 85.6642 1.90829 -1.2 -9.01959 -3.79593e+06 -3.143e+06 -1.61479e+06 1.3558e+06 -135547 -753190
110 3 O -1.16249 89.7582 1.57871 -1.2 -8.79585 -3.94878e+06 -5.45337e+06 -1.79077e+06 536761 -905462 -22460.6
111 3 O -1.21919 86.2536 0.458803 -1.2 -9.46391 -2.47476e+06 -4.24851e+06 -990246 1.14055e+06 -998967 208869
112 3 O -1.25132 86.3372 3.18878 -1.2 -8.56061 -3.54402e+06 -5.77203e+06 309433 -684416 1.91209e+06 -703550
113 1 Mg -2.60907 90.317 0.173979 1.2 -7.50277 -873288 4.08794e+06 1.22518e+06 -868182 -1.67528e+06 -1.61363e+06
114 1 Mg 2.37517 93.1351 1.75113 1.2 -9.08622 3.06573e+06 -139694 2.66071e+06 2.04196e+06 -1.02775e+06 -526556
115 2 Si -0.512307 91.1866 1.70263 2.4 -34.2054 7.1504e+06 1.02593e+07 5.20573e+06 834601 2.65153e+06 -2.6243e+06
116 3 O 1.08076 91.236 1.66332 -1.2 -8.63323 -1.51016e+06 -5.23474e+06 -3.70232e+06 329214 78293.6 1.61541e+06
117 3 O -1.44089 95.0216 1.89979 -1.2 -8.59552 -5.43899e+06 -4.01433e+06 -2.43024e+06 -1.1732e+06 -1.44203e+06 -81960
118 3 O -1.09137 91.9918 0.30926 -1.2 -8.68644 -3.23683e+06 -3.1287e+06 -2.36722e+06 -1.07516e+06 1.04182e+06 1.58626e+06
119 1 Mg -2.72632 100.7 2.92726 1.2 -8.50968 -731953 4.18071e+06 127215 -1.59454e+06 1.75573e+06 1.92809e+06
120 3 O -1.11276 91.7699 2.92611 -1.2 -8.49469 -7.04838e+06 -4.61937e+06 -4.27606e+06 909153 937669 -1.89171e+06
121 1 Mg -2.83999 97.6884 4.73254 1.2 -9.07814 3.58665e+06 -307348 2.08162e+06 1.09585e+06 -848626 104924
122 2 Si 0.142038 99.7789 4.47896 2.4 -34.5389 9.51198e+06 1.00372e+07 1.05885e+07 724210 78222.7 1.70958e+06
123 3 O -1.34342 99.8195 4.75352 -1.2 -8.18272 -4.53068e+06 -4.37515e+06 -4.29609e+06 -1.95239e+06 -934010 -625561
124 3 O 1.16617 95.8913 4.62286 -1.2 -8.81108 -4.14178e+06 -7.41333e+06 -1.75281e+06 -1.71915e+06 -351311 -748492
125 3 O 0.959763 99.0565 3.16107 -1.2 -8.281 -5.4642e+06 -1.59376e+06 -399435 -682912 -2.0388e+06 613399
126 3 O 0.890214 99.1371 5.88781 -1.2 -8.07608 -6.78318e+06 -3.63634e+06 431091 239067 1.61441e+06 12054.3
127 1 Mg -0.0787205 95.4423 3.13029 1.2 -8.31767 -11634.3 4.97365e+06 -2.46124e+06 -342797 -3.0526e+06 415731
128 1 Mg -0.225359 92.407 4.65312 1.2 -9.51098 4.5266e+06 2.29436e+06 990550 -794134 -89598.4 -775461
129 2 Si 1.94221 94.4885 4.89035 2.4 -35.3561 5.5397e+06 1.12312e+07 6.00347e+06 1.33009e+06 1.44051e+06 -1.00259e+06
130 3 O -1.34426 94.4046 4.92347 -1.2 -8.36446 -9.04691e+06 -4.15872e+06 -3.06447e+06 -178840 155091 542684
131 3 O 0.822721 90.3271 4.5492 -1.2 -7.75993 -4.12246e+06 -4.89333e+06 -4.9415e+06 745498 721275 -1.66616e+06
132 3 O 1.31295 93.6157 3.6237 -1.2 -7.39316 -3.23855e+06 -2.60138e+06 -2.62738e+06 378280 45619.9 442284
133 1 Mg -0.0572991 95.376 0.198629 1.2 -8.21502 844286 3.64645e+06 -1.01288e+06 1.67215e+06 1.3513e+06 -1.43566e+06
134 3 O 1.26376 93.7682 6.07647 -1.2 -7.82816 -6.40355e+06 -2.41611e+06 -7.37121e+06 -790189 -886742 1.14528e+06
135 1 Mg 0.0780572 98.0748 1.66389 1.2 -9.51248 3.32817e+06 -799146 1.88308e+06 -396873 -666175 -1.13194e+06
136 2 Si -2.12691 96.5125 1.73631 2.4 -34.9994 5.61143e+06 1.36696e+07 5.24182e+06 341167 2.1122e+06 -6211.71
137 3 O 1.06019 96.4225 1.65145 -1.2 -8.78451 -4.19998e+06 -7.37976e+06 -3.31707e+06 754223 1.20358e+06 141837
138 3 O -1.17552 100.176 1.57079 -1.2 -7.46555 -5.42901e+06 -5.15325e+06 -2.54374e+06 174298 204901 495169
139 3 O -1.5502 97.1727 0.511302 -1.2 -8.16115 -6.33012e+06 -5.4232e+06 -6.06605e+06 -1.06108e+06 -346607 1.36837e+06
140 3 O -1.4771 97.3071 2.9786 -1.2 -7.77509 -2.60259e+06 -3.97653e+06 -2.8438e+06 658848 -249169 866316
141 1 Mg -2.40662 100.691 0.101039 1.2 -9.62013 2.40611e+06 3.80963e+06 -2.5691e+06 -1.36162e+06 -2.22315e+06 -393375
142 1 Mg 7.00591 103.812 1.77576 1.2 -9.42347 3.90838e+06 1.54168e+06 -569741 1.53343e+06 212030 1.60695e+06
143 2 Si -0.508857 101.645 1.47848 2.4 -36.5264 7.69708e+06 1.33677e+07 2.59119e+06 483232 -1.21091e+06 2.11054e+06
144 3 O 1.00902 101.668 1.47935 -1.2 -7.76076 -6.89461e+06 -6.17605e+06 -3.90413e+06 355561 -1.27199e+06 124904
145 3 O 3.18396 105.594 1.62121 -1.2 -7.97608 -2.35013e+06 -5.10029e+06 -946331 -1.19181e+06 -723085 -1.23117e+06
146 3 O -1.00173 102.208 0.133127 -1.2 -7.20288 -7.28251e+06 -5.57194e+06 -5.17209e+06 -27956.5 -575757 -376164
147 1 Mg 2.20524 111.392 3.04579 1.2 -9.07881 -1.38318e+06 2.51855e+06 -873718 -963523 1.28409e+06 2.89845e+06
148 3 O -1.20218 102.562 2.52093 -1.2 -8.0821 -6.0541e+06 -3.82211e+06 -3.88178e+06 274022 8733.05 -1.7059e+06
149 1 Mg 2.29994 108.314 4.54785 1.2 -8.69148 1.92545e+06 1.16239e+06 2.70872e+06 261139 -311415 71726.6
150 2 Si 4.92048 110.055 4.48965 2.4 -34.2454 8.68154e+06 9.74425e+06 7.69461e+06 763269 726503 2.91064e+06
151 3 O 3.43221 110.37 4.31735 -1.2 -8.69574 -5.84748e+06 -2.94772e+06 -3.16359e+06 463195 -141871 -1.37047e+06
152 3 O 5.89586 106.609 4.45844 -1.2 -8.53365 -5.10666e+06 -6.17977e+06 -2.20853e+06 -1.03794e+06 -566163 -1.60035e+06
153 3 O 5.68379 109.365 3.2503 -1.2 -7.93587 -5.19993e+06 -4.22516e+06 -2.95898e+06 -1.17881e+06 -1.90228e+06 -1.85773e+06
154 3 O 5.65723 109.49 5.77462 -1.2 -8.93374 -1.48633e+06 -6.27925e+06 -5.67426e+06 -1.1681e+06 2.55092e+06 1.67658e+06
155 1 Mg 4.63269 106.199 2.9971 1.2 -8.95716 376775 4.45425e+06 -1.91592e+06 1.29674e+06 -1.5713e+06 1.27977e+06
156 1 Mg -0.369767 103.075 4.4044 1.2 -8.8875 3.0497e+06 2.11741e+06 2.28987e+06 -22476.4 438735 -208598
157 2 Si 6.5851 105.188 4.61943 2.4 -34.537 1.021e+07 1.03253e+07 7.48306e+06 1.82449e+06 -716365 726865
158 3 O 3.46855 105.354 4.4701 -1.2 -8.59066 -2.73642e+06 -4.10709e+06 -4.48811e+06 -65475.5 -891307 -1.0838e+06
159 3 O 0.681472 101.299 4.46677 -1.2 -8.41983 -3.5934e+06 -3.44158e+06 -2.79051e+06 348845 792606 372976
160 3 O 5.93221 104.418 3.34321 -1.2 -7.93623 -3.92972e+06 -5.27703e+06 -2.11653e+06 219630 1.57167e+06 -1.3932e+06
161 1 Mg 4.66317 105.836 0.0384227 1.2 -8.17468 62021.7 6.19927e+06 -1.91653e+06 1.78522e+06 1.43636e+06 -1.5692e+06
162 3 O 5.96769 104.428 5.85285 -1.2 -8.39739 -1.89492e+06 -2.59082e+06 -4.19735e+06 -815365 -1.51855e+06 -1.38352e+06
163 1 Mg 4.63244 108.919 1.64302 1.2 -9.73721 3.46498e+06 577702 802021 -1.66851e+06 -254753 -555228
164 2 Si 2.5186 107.234 1.47042 2.4 -35.5183 5.15669e+06 1.48116e+07 4.1281e+06 -1.51523e+06 773503 -2.34739e+06
165 3 O 5.83717 107.209 1.4021 -1.2 -8.27016 -9.28615e+06 -5.85722e+06 -2.92068e+06 611812 923716 1.11305e+06
166 3 O 3.69823 110.862 1.54292 -1.2 -7.74787 -3.79848e+06 -4.20145e+06 -5.73397e+06 1.62869e+06 41409.5 -69504.1
167 3 O 3.17359 107.973 0.257661 -1.2 -7.43141 -8.03686e+06 -3.78615e+06 -4.20866e+06 666531 -526433 1.05347e+06
168 3 O 3.38606 107.788 2.68407 -1.2 -7.87486 -5.50267e+06 -7.42985e+06 -3.05483e+06 279222 382737 422368
169 1 Mg 2.37257 111.477 0.0703113 1.2 -9.30941 383156 3.51837e+06 -2.66919e+06 -1.38351e+06 -1.2443e+06 -2.43855e+06
170 1 Mg 6.9657 114.296 2.03733 1.2 -8.62138 600950 2.46481e+06 -166962 1.7161e+06 877631 411379
171 2 Si 4.23377 112.372 1.60946 2.4 -34.2155 1.35865e+07 1.01759e+07 8.0094e+06 85196 -771549 400590
172 3 O 6.04141 112.317 1.5854 -1.2 -8.0782 -149758 -4.20036e+06 -4.45981e+06 -702728 -1.4084e+06 1.28282e+06
173 3 O 3.24185 116.334 1.87214 -1.2 -8.95304 -2.1831e+06 -7.21665e+06 -3.02058e+06 -839029 -446211 -1.85102e+06
174 3 O 3.57436 113.012 0.288518 -1.2 -8.12491 -5.88645e+06 -6.06006e+06 -1.18567e+06 -247303 2.56265e+06 -274132
175 1 Mg 2.11094 121.961 3.15743 1.2 -7.51614 -1.54368e+06 4.15057e+06 -1.1628e+06 -1.12766e+06 1.05724e+06 3.03546e+06
176 3 O 3.46822 112.925 2.90805 -1.2 -8.72205 -4.06192e+06 -4.76033e+06 -2.02252e+06 -954621 -1.99608e+06 -950939
177 1 Mg 2.25979 119.272 4.73505 1.2 -8.40865 1.94022e+06 557631 3.20459e+06 1.61542e+06 -197103 926670
178 2 Si 4.98277 121.016 4.80759 2.4 -33.2671 6.51791e+06 1.05169e+07 5.7642e+06 674770 459421 1.41289e+06
179 3 O 3.34745 121.169 4.58867 -1.2 -9.20982 6905.93 -3.46684e+06 -2.5332e+06 392821 647315 -1.21836e+06
180 3 O 5.97054 117.162 4.82132 -1.2 -8.86663 -2.41996e+06 -3.06068e+06 -4.3034e+06 -1.42224e+06 1.55759e+06 731254
181 3 O 5.53199 120.325 3.53362 -1.2 -9.02374 -5.17558e+06 -4.367e+06 -5.19112e+06 398136 -179440 -1.76648e+06
182 3 O 5.54226 120.2 6.00213 -1.2 -9.24162 -2.48553e+06 -3.79096e+06 -5.38674e+06 -269868 1.43764e+06 241454
183 1 Mg 4.41799 116.726 3.35407 1.2 -7.50782 52839.6 4.49722e+06 -2.10538e+06 649948 -1.17968e+06 2.21538e+06
184 1 Mg 4.44906 113.877 4.69622 1.2 -7.98817 1.17314e+06 956590 2.13105e+06 -653205 283103 2.17343e+06
185 2 Si 6.59656 115.578 4.81252 2.4 -32.2951 1.67179e+06 1.34201e+07 5.34791e+06 -990192 -809219 2.66933e+06
186 3 O 3.33454 115.632 4.60326 -1.2 -10.011 -4.35826e+06 -5.67431e+06 -4.39528e+06 639000 -1.44931e+06 -517258
187 3 O 5.84153 111.521 4.60638 -1.2 -7.76669 -5.03632e+06 -4.59424e+06 -4.70803e+06 2.43337e+06 191805 562984
188 3 O 5.97089 114.75 3.59949 -1.2 -9.18305 -3.91028e+06 -3.25823e+06 -3.68281e+06 115684 1.07577e+06 -1.47942e+06
189 1 Mg 4.8496 116.878 0.330903 1.2 -7.65797 -163843 4.69966e+06 -279392 -132812 606785 -800472
190 3 O 5.7669 115.1 6.02822 -1.2 -9.3845 -3.96649e+06 -6.61463e+06 -1.04491e+07 1.5144e+06 -1.87493e+06 1.63125e+06
191 1 Mg 4.77312 119.736 1.83976 1.2 -8.66887 2.63274e+06 393361 -539886 -1.04907e+06 367333 -68340.4
192 2 Si 2.54599 117.757 1.71366 2.4 -34.4592 3.9443e+06 1.02066e+07 6.69495e+06 237572 -1.15239e+06 1.72883e+06
193 3 O 5.76639 117.796 1.87877 -1.2 -9.13092 -5.30855e+06 -3.79682e+06 -3.06028e+06 -472376 -1.02044e+06 -1.37586e+06
194 3 O 3.57412 121.528 1.69314 -1.2 -9.18627 -2.82674e+06 -7.55435e+06 -3.82541e+06 -1.20859e+06 -1.01147e+06 604279
195 3 O 3.19749 118.405 0.477908 -1.2 -8.43347 -2.58e+06 -4.26409e+06 -6.96952e+06 -216052 -948383 -298307
196 3 O 3.16406 118.519 2.95751 -1.2 -8.16106 -4.83443e+06 -3.51164e+06 -3.73296e+06 -638417 -114863 -1.88495e+06
197 1 Mg 1.97518 122.046 0.414889 1.2 -7.55248 -1.01087e+06 3.49283e+06 -1.15787e+06 -1.62444e+06 -1.80341e+06 -2.23497e+06
198 1 Mg 6.78183 124.909 1.78002 1.2 -8.19653 1.86468e+06 729674 3.55111e+06 771293 85010.6 -251780
199 2 Si 4.11455 122.946 1.89819 2.4 -32.8384 45112 8.19024e+06 7.95993e+06 219028 2.52051e+06 344219
200 3 O 5.60349 122.916 2.04895 -1.2 -9.62546 -5.67195e+06 -5.10086e+06 -3.98387e+06 -643813 -38506.8 -1.4437e+06
201 3 O 3.14796 126.856 1.92403 -1.2 -8.80908 -1.85218e+06 -2.62713e+06 -3.48951e+06 -1.11219e+06 -372272 -25651.2
202 3 O 3.32347 123.621 0.431659 -1.2 -8.98693 -926534 -2.69357e+06 -904762 -82019.3 1.05849e+06 157049
203 1 Mg 2.01314 132.388 3.0953 1.2 -6.95832 -3.73756e+06 4.02997e+06 1.67583e+06 -202209 388793 -495487
204 3 O 3.48997 123.715 3.00988 -1.2 -9.09002 -5.47119e+06 -3.89371e+06 -2.76324e+06 1.6136e+06 1.7804e+06 -986447
205 1 Mg 2.27082 129.525 4.88122 1.2 -8.16067 1.54792e+06 -226370 1.71551e+06 -476204 -303862 62165.4
206 2 Si 4.60815 131.438 4.54714 2.4 -31.7608 3.46103e+06 6.2807e+06 9.02745e+06 -2.80184e+06 -13157.9 -132069
207 3 O 3.11879 131.436 4.58647 -1.2 -10.4366 -5.60652e+06 -2.61672e+06 -2.69097e+06 -1.73686e+06 -298493 -306658
208 3 O 5.96652 127.73 4.89193 -1.2 -9.07916 -2.08431e+06 -5.95936e+06 -3.89296e+06 -1.78009e+06 -404937 -1.72633e+06
209 3 O 5.44957 130.866 3.21569 -1.2 -9.2476 -33709.9 -3.87129e+06 -4.46434e+06 -1.10327e+06 -1.80088e+06 -262219
210 3 O 5.46974 130.72 5.79452 -1.2 -9.10882 802706 -3.08758e+06 -3.19496e+06 -960511 1.38252e+06 1.47089e+06
211 1 Mg 4.61136 127.242 3.22801 1.2 -7.90479 -1.9167e+06 2.84551e+06 -257075 -292632 -364780 2.60507e+06
212 1 Mg 4.44506 124.486 4.95441 1.2 -7.77701 1.26067e+06 1.22234e+06 3.79083e+06 -189447 -17137.2 594729
213 2 Si 6.71731 126.304 4.85996 2.4 -32.4038 6.08266e+06 1.02365e+07 1.08718e+07 193878 -237235 3.45529e+06
214 3 O 3.55527 126.361 4.82137 -1.2 -10.1149 -2.79887e+06 -3.48653e+06 -4.7398e+06 -101669 -712354 -1.62798e+06
215 3 O 5.65285 122.493 4.96598 -1.2 -9.30571 -1.97086e+06 -2.82511e+06 -1.99391e+06 533241 441499 590999
216 3 O 5.97103 125.545 3.50723 -1.2 -8.84089 -2.02597e+06 -2.56528e+06 -381836 876264 2.22781e+06 -119819
217 1 Mg 4.48867 127.413 0.262651 1.2 -7.42777 -395812 2.68133e+06 1.61868e+06 78734.6 720542 -1.37827e+06
218 3 O 6.04512 125.545 6.12078 -1.2 -9.79569 -863456 -3.24352e+06 -3.49345e+06 722030 -1.94454e+06 -655799
219 1 Mg 4.29886 130.207 1.6266 1.2 -7.39121 466844 -822696 2.36398e+06 -1.25698e+06 746081 -1.46356e+06
220 2 Si 2.39329 128.419 1.958 2.4 -32.3814 2.49848e+06 9.01766e+06 8.76514e+06 -2.63049e+06 558823 121284
221 3 O 5.65884 128.242 1.97056 -1.2 -9.87412 -4.5531e+06 -4.18775e+06 -4.04414e+06 -52831.4 1.90019e+06 177714
222 3 O 3.46099 132.094 1.49381 -1.2 -10.1672 -2.55439e+06 -6.97307e+06 -2.70696e+06 1.22983e+06 1.10919e+06 -911408
223 3 O 3.01357 128.971 0.61827 -1.2 -10.0749 -3.06583e+06 -4.22371e+06 -3.1098e+06 133812 -778948 2.09486e+06
224 3 O 3.17115 128.971 3.20179 -1.2 -9.47573 -3.42196e+06 -3.7408e+06 -3.6654e+06 358396 932976 -2.02343e+06
225 1 Mg 2.22974 132.726 -0.113864 1.2 -6.89722 -1.94808e+06 3.47622e+06 -327491 -543160 -3.09493e+06 -1.30838e+06
226 1 Mg 7.11798 135.462 1.30375 1.2 -7.78356 1.42446e+06 -414352 1.98154e+06 1.51793e+06 -914284 -379381
227 2 Si 4.18183 133.449 1.67583 2.4 -31.9038 4.98323e+06 7.99464e+06 5.13303e+06 1.34752e+06 -1.05246e+06 -2.20899e+06
228 3 O 5.7876 133.545 1.66212 -1.2 -9.751 -660986 -3.91677e+06 -2.98125e+06 1.22416e+06 -2.80061e+06 721929
229 3 O 3.30497 137.265 1.44907 -1.2 -9.75708 -1.06467e+06 -2.24388e+06 -3.95825e+06 -1.94076e+06 199000 29043.3
230 3 O 3.75088 134.359 0.342571 -1.2 -9.24994 -2.56799e+06 -2.35844e+06 -4.48218e+06 673379 1.63662e+06 -548727
231 1 Mg 2.18999 142.871 3.12404 1.2 -6.3898 -2.71278e+06 2.38253e+06 313999 -237943 1.37569e+06 1.80882e+06
232 3 O 3.42746 134.115 2.78366 -1.2 -9.89497 -3.4329e+06 -4.11539e+06 -7.21719e+06 -88585.3 644795 -1.86434e+06
233 1 Mg 2.40379 140.054 4.49814 1.2 -6.88027 -696706 240238 706764 416302 1.09826e+06 -1.60247e+06
234 2 Si 4.84722 141.88 4.76762 2.4 -30.2953 -1.41229e+06 7.17909e+06 9.7107e+06 -448059 -2.92653e+06 1.25161e+06
235 3 O 3.28655 141.891 4.58576 -1.2 -11.0543 -832713 -3.31582e+06 -5.22982e+06 -1.48173e+06 652827 581763
236 3 O 6.05414 137.885 4.96681 -1.2 -9.84875 -1.36613e+06 -2.98107e+06 -3.13206e+06 554278 626114 -1.35778e+06
237 3 O 5.46409 141.31 3.12132 -1.2 -9.42095 612510 -2.61884e+06 -4.1541e+06 562098 -1.97594e+06 1.11113e+06
238 3 O 5.59123 140.967 5.59167 -1.2 -10.5048 -2.84332e+06 -5.58614e+06 -7.62373e+06 1.17927e+06 -505806 3.2355e+06
239 1 Mg 4.65572 137.545 3.13448 1.2 -6.61924 -677065 1.37395e+06 1.87462e+06 1.64816e+06 -1.10513e+06 1.62323e+06
240 1 Mg 4.46888 134.618 4.42681 1.2 -6.94643 -381373 -852416 2.32562e+06 -743249 -195378 -1.39817e+06
241 2 Si 6.59004 136.334 4.73888 2.4 -31.8898 -469955 7.92722e+06 1.20427e+07 -789284 -43012.8 -662202
242 3 O 3.35813 136.527 4.56931 -1.2 -10.2758 -2.51142e+06 -3.35225e+06 -4.82119e+06 1.71909e+06 -339693 461094
243 3 O 5.26593 132.802 4.64739 -1.2 -10.2468 -1.63547e+06 -1.06683e+07 -3.96806e+06 1.61959e+06 428303 193508
244 3 O 5.91953 136.101 3.30058 -1.2 -9.65372 -2.38964e+06 -2.90289e+06 -3.4557e+06 284724 -503432 -2.63285e+06
245 1 Mg 4.60282 137.978 0.061085 1.2 -7.23659 -3.6662e+06 4.22527e+06 -1.59986e+06 605925 2.71001e+06 -2.06143e+06
246 3 O 5.96309 135.467 5.82629 -1.2 -9.9077 -3.23839e+06 -4.06817e+06 -3.71349e+06 -259270 -448994 1.59223e+06
247 1 Mg 4.41779 140.581 1.77743 1.2 -6.97264 -2.41339e+06 943540 2.34172e+06 -2.38984e+06 -981069 -2.33507e+06
248 2 Si 2.62839 138.837 1.65676 2.4 -30.3427 3.80297e+06 9.86257e+06 6.89559e+06 -2.96359e+06 -1.07781e+06 -3.46277e+06
249 3 O 5.76248 138.984 1.50189 -1.2 -10.2473 2.55711e+06 -3.68039e+06 -3.7616e+06 38138.8 -118298 -229140
250 3 O 3.50713 142.811 1.75403 -1.2 -9.46376 -2.87624e+06 -2.23353e+06 -6.60756e+06 2.80973e+06 2.19445e+06 1.57477e+06
251 3 O 3.28395 139.556 0.354764 -1.2 -10.2701 -2.96989e+06 -2.84004e+06 -337778 -339519 11480.1 1.50152e+06
252 3 O 3.19049 139.193 2.99565 -1.2 -11.0208 -1.43394e+06 -4.26625e+06 -5.68571e+06 -246015 360933 -1.53795e+06
253 1 Mg 2.2222 143.525 0.272114 1.2 -7.12618 -651941 2.3071e+06 299831 -741077 -1.43951e+06 -1.48497e+06
254 1 Mg 7.12479 146.326 2.18499 1.2 -5.90229 -2.72817e+06 377699 2.95032e+06 2.27395e+06 -833500 1.40951e+06
255 2 Si 4.33749 144.298 1.89294 2.4 -30.8987 1.91397e+06 9.4172e+06 7.68857e+06 471339 529266 2.24088e+06
256 3 O 5.87535 144.097 1.86272 -1.2 -10.6509 -2.12417e+06 -2.8139e+06 -3.22082e+06 -208054 -1.77406e+06 -974078
257 3 O 3.52417 148.172 2.40898 -1.2 -11.5847 133936 -1.30388e+06 -2.99575e+06 -572592 -454597 2.08724e+06
258 3 O 3.8071 144.823 0.489284 -1.2 -9.8254 -265658 -4.97588e+06 -3.64971e+06 -89047.9 1.29503e+06 226559
259 1 Mg 2.28884 153.719 2.01312 1.2 -5.93091 -3.74633e+06 -1.01371e+06 905980 -695742 -76639.4 291145
260 3 O 3.54657 145.134 2.92545 -1.2 -10.8996 -1.76274e+06 -3.9248e+06 -6.55085e+06 55363.7 -930380 -2.21831e+06
261 1 Mg 2.14955 153.22 4.97484 1.2 -5.21973 -8.23481e+06 -2.12105e+06 359929 -833138 -529641 -2.10553e+06
262 2 Si 4.57349 152.279 3.60978 2.4 -29.2108 376910 1.02448e+07 7.67452e+06 58794.1 -1.33264e+06 -7.95679e+06
263 3 O 3.40187 153.356 3.5193 -1.2 -10.6897 -2.06794e+06 -3.67775e+06 -6.48648e+06 -956249 4.39011e+06 1.05105e+06
264 3 O 6.1159 149.138 5.28572 -1.2 -10.1191 646149 -1.08015e+06 -2.38786e+06 314131 1.03065e+06 2.22265e+06
265 3 O 5.34002 153.084 2.34317 -1.2 -10.1947 -5.86792e+06 408293 -1.43819e+06 2.86981e+06 2.94382e+06 1.59203e+06
266 3 O 5.56859 151.911 4.66325 -1.2 -11.6521 -1.06146e+06 -5.22149e+06 -6.1425e+06 -476474 97663.5 2.13734e+06
267 1 Mg 4.75578 148.664 3.82732 1.2 -5.89998 -2.97538e+06 2.85152e+06 922562 1.84006e+06 -2.74306e+06 154715