ITEM: TIMESTEP
56800
ITEM: NUMBER OF ATOMS
5600
ITEM: BOX BOUNDS xy xz yz pp pp pp
0.0000000000000000e+00 7.1234999999999999e+00 0.0000000000000000e+00
0.0000000000000000e+00 2.0198500000000001e+02 2.3744999999999998e+00
0.0000000000000000e+00 1.1958400000000000e+02 0.0000000000000000e+00
ITEM: ATOMS id type element xu yu zu q c_pe c_s[1] c_s[2] c_s[3] c_s[4] c_s[5] c_s[6]
1 1 Mg -1.57492 48.2155 -1.03445 1.2 -7.48396 -310878 -1.10733e+06 3.39013e+06 -531607 513414 58780
2 1 Mg 2.96832 49.9402 2.17519 1.2 -8.0191 -1.07198e+06 2.29e+06 2.36213e+06 572184 -241140 360969
3 2 Si 0.741012 49.8886 0.156538 2.4 -33.6759 8.55551e+06 6.32137e+06 9.284e+06 -680538 690045 359686
4 3 O 2.18647 49.2416 0.339896 -1.2 -8.59038 -4.26619e+06 -847953 -5.25848e+06 -856926 -777139 1.22498e+06
5 3 O -1.42493 52.7771 1.70617 -1.2 -8.98621 -2.39888e+06 -1.92512e+06 -2.07212e+06 -1.26551e+06 -160147 1.01768e+06
6 3 O 0.133091 49.1152 -1.1175 -1.2 -8.87454 -6.27837e+06 -726353 -3.55346e+06 437200 -274960 250034
7 1 Mg -2.5433 58.5451 2.84993 1.2 -6.71015 -875242 3.16305e+06 -73262 -659038 1.91991e+06 1.95956e+06
8 3 O -0.0380737 49.7159 1.4172 -1.2 -9.28658 -6.68236e+06 -1.42372e+06 -4.69015e+06 -262736 258770 -2.02607e+06
9 1 Mg -1.92641 55.9332 4.28331 1.2 -6.9926 -370501 -134941 1.01224e+06 974796 503566 -1.45354e+06
10 2 Si 0.468976 57.707 4.37077 2.4 -31.8999 -1.80963e+06 8.97609e+06 5.67541e+06 -1.05025e+06 2.82295e+06 -761671
11 3 O -1.02483 57.752 4.43624 -1.2 -10.0844 -4.40538e+06 -4.53463e+06 -4.29813e+06 -318244 1.82021e+06 433046
12 3 O 1.52952 53.5381 4.63683 -1.2 -9.48533 -2.54383e+06 -1.52409e+06 -3.87367e+06 -2.12704e+06 820216 -1.00391e+06
13 3 O 0.919226 57.0402 3.12799 -1.2 -9.85854 -3.57538e+06 -4.92376e+06 -6.49767e+06 2.0287e+06 925133 -2.15715e+06
14 3 O 1.14746 57.114 5.67766 -1.2 -9.70982 -1.60804e+06 -4.0586e+06 -4.15075e+06 359064 -121931 2.0472e+06
15 1 Mg -0.0938592 53.3118 3.12497 1.2 -7.2545 -1.18349e+06 2.71194e+06 1.0069e+06 628375 -265394 1.53731e+06
16 1 Mg 0.555993 48.8533 3.18658 1.2 -7.48877 -367596 745452 -545658 469853 441679 394352
17 2 Si 2.22666 52.0604 4.54975 2.4 -32.9514 9.21795e+06 7.65781e+06 9.89086e+06 312927 1.41653e+06 2.61683e+06
18 3 O -0.87638 52.2552 4.59932 -1.2 -9.34563 162157 -2.95645e+06 -3.48529e+06 1.07865e+06 790708 -1.7025e+06
19 3 O 2.34551 48.3323 3.22954 -1.2 -7.42688 -111324 -880229 -2.4273e+06 748430 -199037 -1.55426e+06
20 3 O 1.67485 51.0789 3.48792 -1.2 -8.59115 -2.86379e+06 -332008 -5.55887e+06 -290622 395017 696389
21 1 Mg -0.221868 53.1775 -0.00127179 1.2 -7.60777 -1.70031e+06 2.28263e+06 1.07337e+06 1.95285e+06 1.44387e+06 -1.75289e+06
22 3 O 1.63621 51.2441 5.88401 -1.2 -10.2972 -1.54518e+06 -2.17679e+06 -7.30501e+06 1.73821e+06 -420890 -1.39461e+06
23 1 Mg -0.259414 56.2167 1.46051 1.2 -7.47105 -275042 -963265 2.43864e+06 -866080 468042 1.09275e+06
24 2 Si -2.12579 54.297 1.58698 2.4 -32.0487 3.26455e+06 1.02828e+07 7.77283e+06 -777460 -1.14142e+06 -412906
25 3 O 1.13305 54.1456 1.7284 -1.2 -9.89967 -3.03798e+06 -2.78371e+06 -2.33385e+06 1.02166e+06 -326654 -196373
26 3 O -0.877035 57.9882 1.26087 -1.2 -9.18017 314136 -1.83417e+06 -3.69104e+06 2.63703e+06 -1.64885e+06 -122925
27 3 O -1.37065 54.7879 0.239374 -1.2 -9.74203 -1.58792e+06 -4.18287e+06 -4.34576e+06 1.32796e+06 -1.1638e+06 217692
28 3 O -1.40145 55.1927 2.68527 -1.2 -10.1491 -3.33704e+06 -2.89516e+06 -6.21855e+06 -421723 1.86618e+06 -1.27677e+06
29 1 Mg -2.3721 58.631 -0.0659779 1.2 -7.4771 -1.62207e+06 4.18529e+06 -91307.6 -580613 -634559 -1.25104e+06
30 1 Mg 2.49685 61.574 1.41376 1.2 -8.13525 -148204 472178 3.69992e+06 426433 -313272 538473
31 2 Si -0.184437 59.7594 1.29742 2.4 -31.8448 3.42759e+06 9.44048e+06 1.14084e+07 2.15343e+06 -525532 329425
32 3 O 1.30968 59.7642 1.33698 -1.2 -10.2493 -3.25486e+06 -2.09935e+06 -5.30604e+06 -849961 85521.9 -154063
33 3 O -1.41956 63.4354 1.48953 -1.2 -9.42535 -3.83948e+06 -4.36068e+06 -3.71413e+06 -1.94953e+06 403887 1.76542e+06
34 3 O -0.965209 60.2574 -0.00652846 -1.2 -9.37873 -2.99677e+06 -2.13247e+06 -3.77869e+06 442707 1.5115e+06 -365905
35 1 Mg -2.54418 69.3162 3.19766 1.2 -6.93619 -2.20857e+06 1.98336e+06 -20289.7 -34750.4 -614646 1.40005e+06
36 3 O -0.982409 60.2788 2.57503 -1.2 -9.51308 -2.05151e+06 -932936 -2.49949e+06 447258 -1.27198e+06 -113539
37 1 Mg -2.57014 66.5237 4.5721 1.2 -7.6078 1.21963e+06 1.20282e+06 2.70494e+06 -19247.4 -500003 304965
38 2 Si 0.0739653 68.4718 4.64351 2.4 -31.0732 3.19238e+06 8.77757e+06 1.0658e+07 -583470 168484 -595741
39 3 O -1.58611 68.3772 4.65362 -1.2 -10.7453 87459.1 -2.21885e+06 -3.85928e+06 -1.25862e+06 41802.2 697317
40 3 O 1.28689 64.4871 4.44189 -1.2 -9.2692 -3.08799e+06 -4.19033e+06 -3.0554e+06 -1.48412e+06 -112233 -305168
41 3 O 0.811612 67.7472 3.35685 -1.2 -9.85423 -515524 -3.83131e+06 -3.17684e+06 -1.5582e+06 -1.56859e+06 1.86286e+06
42 3 O 0.81843 67.7844 5.88035 -1.2 -10.145 31450.1 -1.14699e+06 -4.72345e+06 -370540 1.50165e+06 -745754
43 1 Mg -0.0904646 63.9679 2.95815 1.2 -7.34039 -1.45613e+06 2.96153e+06 345075 460677 -1.74319e+06 2.04931e+06
44 1 Mg 0.0510838 61.1943 4.38066 1.2 -7.76833 1.8868e+06 720534 2.64687e+06 -820081 -411321 -222701
45 2 Si 2.07266 63.0669 4.46276 2.4 -32.6476 1.26454e+06 1.06177e+07 8.49803e+06 -680813 760523 1.01701e+06
46 3 O -1.18496 63.084 4.46504 -1.2 -10.0373 -5.19223e+06 -5.31655e+06 -4.45405e+06 -681599 -1.11249e+06 -292019
47 3 O 1.07336 59.1951 4.31982 -1.2 -9.58054 -3.10462e+06 -4.01383e+06 -3.41686e+06 -1.01796e+06 -44521.3 712716
48 3 O 1.44243 62.3514 3.12885 -1.2 -8.95771 -1.26447e+06 -2.63035e+06 -4.96122e+06 198691 1.51292e+06 259015
49 1 Mg -0.116441 63.9713 0.0618687 1.2 -7.2127 -1.0376e+06 3.75619e+06 -39062 1.01564e+06 1.60158e+06 -1.68374e+06
50 3 O 1.24771 62.304 5.5537 -1.2 -9.7337 -2.34358e+06 -4.24052e+06 -5.84198e+06 490305 -1.06507e+06 1.0036e+06
51 1 Mg 0.0571747 66.9788 1.61534 1.2 -7.38407 792015 1.90876e+06 3.58708e+06 -526379 -331990 -913280
52 2 Si -2.06344 64.9803 1.5791 2.4 -32.0968 2.51539e+06 9.84192e+06 7.34692e+06 952828 1.01514e+06 -262100
53 3 O 1.16221 64.8492 1.42379 -1.2 -9.93902 -2.57901e+06 -3.61003e+06 -3.45435e+06 1.48695e+06 -76661.4 1.89149e+06
54 3 O -1.14137 68.7855 1.41069 -1.2 -9.42271 -3.08122e+06 -2.77829e+06 -3.65081e+06 1.20737e+06 -1.27103e+06 1.60493e+06
55 3 O -1.33385 65.5687 0.38362 -1.2 -9.70801 -4.01647e+06 -5.53234e+06 -3.94758e+06 -96769.8 302055 3.42348e+06
56 3 O -1.38376 65.5886 2.89719 -1.2 -9.64884 -1.03194e+06 -1.43186e+06 -4.13082e+06 -256556 364392 823758
57 1 Mg -2.47712 69.1265 0.0872398 1.2 -7.67392 -2.84443e+06 3.12862e+06 -684130 -794223 -1.75417e+06 -2.17981e+06
58 1 Mg 2.3488 72.1384 1.62694 1.2 -7.38678 362476 1.02913e+06 3.81821e+06 1.04864e+06 134961 -1.1724e+06
59 2 Si -0.393012 70.264 1.58173 2.4 -32.4266 4.44653e+06 7.79279e+06 8.88537e+06 614717 945148 -2.07945e+06
60 3 O 1.18457 69.9571 1.69146 -1.2 -9.78951 -1.59113e+06 -2.96606e+06 -5.07547e+06 80156 264665 1.87909e+06
61 3 O -1.5401 74.1948 1.79584 -1.2 -9.60856 -1.47193e+06 -2.47559e+06 -4.68969e+06 -1.62527e+06 -1.35097e+06 513553
62 3 O -0.967406 71.0475 0.383304 -1.2 -9.3398 -2.8713e+06 -3.66771e+06 -4.77714e+06 -495351 244637 2.87627e+06
63 1 Mg -2.30552 80.0231 2.97876 1.2 -6.90968 -2.56742e+06 2.73977e+06 1.55015e+06 -568420 1.61126e+06 1.27529e+06
64 3 O -1.06614 70.9399 2.79298 -1.2 -9.80564 -2.67717e+06 -1.27194e+06 -8.0034e+06 779269 -2.01769e+06 476469
65 1 Mg -2.58369 77.0731 4.51451 1.2 -7.57456 1.01956e+06 -295510 4.39019e+06 1.34115e+06 196486 48684.4
66 2 Si 0.244191 79.0745 4.53807 2.4 -31.1254 4.09808e+06 7.96086e+06 1.22773e+07 370117 -550278 -37218.2
67 3 O -1.26356 79.0831 4.73004 -1.2 -10.2311 -963057 -2.77491e+06 -4.70137e+06 210125 354004 -323166
68 3 O 1.30367 75.1255 4.32518 -1.2 -9.8884 307976 -1.9028e+06 -6.18692e+06 -1.96395e+06 -276108 2.90048e+06
69 3 O 0.906266 78.3085 3.2619 -1.2 -9.94779 -1.20277e+06 -1.05591e+06 -2.87724e+06 -602339 -1.42744e+06 252373
70 3 O 1.04632 78.3043 5.8933 -1.2 -9.75876 -2.74381e+06 -965525 -3.23983e+06 -989232 3.0825e+06 612736
71 1 Mg 0.00163173 74.3819 2.98303 1.2 -6.70504 -3.5551e+06 2.00959e+06 1.07528e+06 623330 -1.79234e+06 605821
72 1 Mg -0.177442 71.8256 4.52835 1.2 -7.29382 -1.36731e+06 -1.1148e+06 5.23506e+06 249352 6700.48 700203
73 2 Si 2.03722 73.619 4.36371 2.4 -30.953 1.55095e+06 7.43501e+06 1.17847e+07 -179927 -2.07639e+06 -956939
74 3 O -1.17051 73.5949 4.57333 -1.2 -10.8743 -2.3368e+06 -1.55496e+06 -5.84838e+06 399792 -218687 930301
75 3 O 0.538994 69.938 4.48534 -1.2 -9.92223 -658189 -5.01565e+06 -6.69559e+06 2.08436e+06 -272878 -17470
76 3 O 1.29491 72.8036 3.27201 -1.2 -10.4508 -626666 -3.11265e+06 -6.57012e+06 -591592 1.2757e+06 -57247
77 1 Mg -0.0826567 74.4242 0.2001 1.2 -7.59537 886595 3.02654e+06 559160 721239 1.58984e+06 -1.68574e+06
78 3 O 1.29295 73.1422 5.72728 -1.2 -9.65816 -953990 -2.24501e+06 -4.4356e+06 41391.3 -621118 1.48964e+06
79 1 Mg -0.0321596 77.5197 1.62535 1.2 -7.81259 868685 394310 3.77444e+06 -872107 -261401 484252
80 2 Si -2.15471 75.7724 1.60533 2.4 -32.9357 5.39921e+06 5.81858e+06 1.07789e+07 -542269 1.56025e+06 516094
81 3 O 0.981952 75.5532 1.53367 -1.2 -9.6613 -1.36798e+06 -682350 -6.43957e+06 1.31172e+06 797261 821022
82 3 O -1.0315 79.4844 1.57968 -1.2 -9.58382 -1.52042e+06 -3.39519e+06 -4.04935e+06 1.46222e+06 -430039 47017.1
83 3 O -1.58192 76.1461 0.287452 -1.2 -8.68389 -4.03602e+06 -3.41944e+06 -6.0139e+06 -43799.4 641421 1.91284e+06
84 3 O -1.47596 76.484 2.82042 -1.2 -9.58918 -1.75067e+06 -1.64984e+06 -4.68177e+06 -128986 671180 -998798
85 1 Mg -2.37765 79.8424 0.087245 1.2 -7.57751 -807048 4.70219e+06 -493758 -751409 -997856 -1.03709e+06
86 1 Mg 2.38417 82.8539 1.61468 1.2 -7.44742 31623.3 1.57987e+06 1.32184e+06 838488 -350641 641054
87 2 Si -0.2698 81.0078 1.49592 2.4 -31.8743 996535 9.10452e+06 1.05427e+07 1.24752e+06 20650.1 -548594
88 3 O 1.19282 80.9269 1.50702 -1.2 -10.1891 -4.123e+06 -3.30913e+06 -5.31334e+06 -312398 288294 643658
89 3 O -1.42628 84.7863 1.50329 -1.2 -9.36913 -5.12646e+06 -4.25624e+06 -3.98532e+06 -1.97623e+06 -279235 -599314
90 3 O -1.0276 81.5265 0.155155 -1.2 -9.43479 -2.97593e+06 -3.17042e+06 -860997 341300 1.71417e+06 388263
91 1 Mg -2.47565 90.3742 3.23271 1.2 -7.4643 -1.19663e+06 753086 1.43911e+06 -880992 862797 1.14445e+06
92 3 O -0.985055 81.5998 2.79813 -1.2 -10.2883 -1.21037e+06 -3.07089e+06 -3.04627e+06 -531710 -317864 -1.42827e+06
93 1 Mg -2.54128 87.5803 4.55339 1.2 -7.42489 3.0583e+06 -1.45765e+06 4.008e+06 169375 -16369.5 504944
94 2 Si 0.148451 89.6559 4.66689 2.4 -32.3589 431714 6.5495e+06 1.61019e+07 160390 -315355 -916331
95 3 O -1.34282 89.6329 4.65842 -1.2 -10.1454 -4.51125e+06 -906720 -8.55208e+06 145738 548838 984212
96 3 O 1.41393 85.7583 4.59834 -1.2 -10.0617 -2.10743e+06 -3.12404e+06 -3.44905e+06 57336.5 -648688 1.11599e+06
97 3 O 0.892961 88.9124 3.35326 -1.2 -9.35472 -1.93173e+06 -1.73649e+06 -4.36777e+06 -1.47262e+06 -1.42436e+06 1.39726e+06
98 3 O 0.851558 89.0324 5.99985 -1.2 -9.15163 -3.20893e+06 -825800 -4.63115e+06 -998406 752422 545768
99 1 Mg -0.0819724 85.069 2.91163 1.2 -7.15181 -3.05048e+06 2.37455e+06 333348 967073 -2.08527e+06 1.59033e+06
100 1 Mg -0.0075566 82.3831 4.47954 1.2 -7.10923 729993 260518 2.39549e+06 -961220 -577879 62040.6
101 2 Si 1.98487 84.2826 4.48829 2.4 -31.169 2.95084e+06 7.86643e+06 9.88231e+06 -571789 1.47485e+06 -431327
102 3 O -1.16541 84.2584 4.60376 -1.2 -10.4152 555117 -3.59204e+06 -4.15221e+06 -203010 1.06688e+06 800006
103 3 O 1.04185 80.5045 4.52366 -1.2 -10.3777 -1.17263e+06 -2.08888e+06 -3.45846e+06 1.60328e+06 -940464 225020
104 3 O 1.27845 83.6392 3.16897 -1.2 -10.2896 91499.2 -3.27318e+06 -4.64958e+06 559832 1.00669e+06 576614
105 1 Mg -0.0320307 85.0781 0.133992 1.2 -7.60748 -1.44585e+06 4.0338e+06 -388118 303100 1.71335e+06 -1.27171e+06
106 3 O 1.36274 83.6094 5.76582 -1.2 -10.2056 -2.65768e+06 -3.24953e+06 -3.1487e+06 550592 -478945 1.09813e+06
107 1 Mg -0.0209859 88.2323 1.70895 1.2 -8.46028 938417 943265 2.09634e+06 -830732 308884 50573.6
108 2 Si -2.11534 86.3162 1.60555 2.4 -32.6948 3.82683e+06 8.45875e+06 9.45943e+06 575250 3621.82 -754955
109 3 O 1.20051 86.0534 1.65869 -1.2 -9.62531 -6.51195e+06 -4.07524e+06 -3.80126e+06 2.28979e+06 1.14773e+06 407494
110 3 O -1.02586 90.1596 1.78866 -1.2 -8.47082 -5.32595e+06 -1.61813e+06 -3.69764e+06 1.07465e+06 -384134 1.43626e+06
111 3 O -1.34154 86.9533 0.243 -1.2 -8.72711 -1.01664e+06 -2.41363e+06 -1.52918e+06 853587 -1.55221e+06 310995
112 3 O -1.19453 86.887 2.76619 -1.2 -9.4084 -1.44454e+06 -1.67091e+06 -5.49779e+06 -437109 272982 -1.05873e+06
113 1 Mg -2.43706 90.6446 0.190856 1.2 -8.39486 1.0314e+06 2.93246e+06 47315.9 -424602 -1.30738e+06 -1.77335e+06
114 1 Mg 2.49347 93.707 1.97704 1.2 -8.09927 2.01199e+06 340552 2.6686e+06 1.09908e+06 -255555 118864
115 2 Si -0.332199 91.6858 1.76923 2.4 -34.0898 7.21441e+06 7.82736e+06 9.55521e+06 518561 2.08121e+06 -403264
116 3 O 1.20221 91.3958 1.75255 -1.2 -8.85684 -3.68119e+06 -3.83191e+06 -3.74292e+06 -972290 979909 -116254
117 3 O -1.1063 95.4842 1.81007 -1.2 -8.92434 -4.1906e+06 -4.33536e+06 -4.2301e+06 795418 -259232 -113782
118 3 O -1.0161 92.1922 0.362816 -1.2 -8.41616 -3.00502e+06 -4.08774e+06 -3.18994e+06 1.28205e+06 1.77668e+06 1.13047e+06
119 1 Mg -2.47278 100.953 3.53416 1.2 -7.91139 -434614 2.64237e+06 791414 -1.26694e+06 1.3278e+06 -171316
120 3 O -0.879527 92.4848 2.91199 -1.2 -9.28236 -3.0708e+06 -2.31124e+06 -5.54619e+06 560436 -452440 -1.40761e+06
121 1 Mg -2.21443 98.0646 4.79837 1.2 -7.95524 -92549.5 -935678 4.99072e+06 35790 655795 -696623
122 2 Si 0.311537 99.9462 5.10298 2.4 -32.0597 6.52235e+06 7.31345e+06 1.25003e+07 -998787 99975.1 -2.14244e+06
123 3 O -1.2083 100.032 5.078 -1.2 -9.81682 -1.88359e+06 -1.66329e+06 -4.99619e+06 -1.94672e+06 1.23197e+06 2.40442e+06
124 3 O 1.49922 96.4278 4.971 -1.2 -9.88813 -1.24369e+06 -2.40916e+06 -4.11819e+06 -1.55847e+06 -299658 -371195
125 3 O 1.08545 99.2325 3.57391 -1.2 -8.99283 -3.14718e+06 -2.13517e+06 -1.20567e+06 -1.65564e+06 -3.62623e+06 776393
126 3 O 1.17523 99.2963 6.28617 -1.2 -9.37632 -3.29221e+06 -1.86986e+06 -3.47886e+06 -533455 1.92384e+06 2.27525e+06
127 1 Mg 0.1489 95.8486 3.51355 1.2 -7.357 -1.32365e+06 1.8057e+06 1.51035e+06 1.57303e+06 -2.17994e+06 1.33986e+06
128 1 Mg 0.0664915 93.0252 4.78538 1.2 -8.09008 -384969 -1.63048e+06 6.10202e+06 -1.24978e+06 -350716 -280359
129 2 Si 2.03553 94.8158 4.94119 2.4 -31.6801 6.33581e+06 5.97033e+06 9.64531e+06 -326528 -195812 -1.14655e+06
130 3 O -1.07018 94.8652 4.9171 -1.2 -9.78397 867970 -2.23392e+06 -5.07777e+06 1.0596e+06 -565691 793990
131 3 O 0.827311 91.1244 4.61803 -1.2 -9.73701 -1.31998e+06 -2.32178e+06 -7.71664e+06 1.68383e+06 -327360 1.17056e+06
132 3 O 1.37619 94.2811 3.65321 -1.2 -9.74356 -3.34729e+06 -2.7167e+06 -6.2336e+06 -288010 268509 -230137
133 1 Mg 0.199375 95.9471 0.322758 1.2 -7.59567 -344765 3.54441e+06 -128815 1.21134e+06 2.07032e+06 -1.92362e+06
134 3 O 1.26392 94.1412 6.11626 -1.2 -9.74264 -3.58022e+06 -1.16743e+06 -5.30526e+06 -129513 -894497 2.08314e+06
135 1 Mg 0.238557 98.589 2.067 1.2 -7.85135 -1.48928e+06 -428092 1.90084e+06 -2.85707e+06 -1.08836e+06 -1.09377e+06
136 2 Si -1.81824 96.9528 1.77585 2.4 -32.9203 481569 8.34902e+06 8.40474e+06 -573686 667003 -227808
137 3 O 1.50698 96.6688 1.89221 -1.2 -9.51918 -6.78297e+06 -3.77255e+06 -3.57755e+06 451590 459735 279732
138 3 O -0.9755 100.401 1.95809 -1.2 -8.97453 -1.18748e+06 -2.59436e+06 -3.13825e+06 1.13812e+06 133336 614248
139 3 O -1.23339 97.5246 0.480333 -1.2 -9.19458 -3.78358e+06 -5.34996e+06 -4.54462e+06 -1.98653e+06 372979 2.29632e+06
140 3 O -1.11115 97.6161 3.09115 -1.2 -9.49518 -2.98777e+06 -4.65209e+06 -2.12934e+06 -1.35275e+06 653956 -589612
141 1 Mg -2.42655 100.68 0.545396 1.2 -7.97356 254550 3.50643e+06 1.10031e+06 -892466 -1.29417e+06 -781480
142 1 Mg 6.91031 103.992 1.85626 1.2 -9.02542 3.09286e+06 681553 1.45163e+06 999360 471338 -483856
143 2 Si -0.322216 101.948 1.97694 2.4 -34.4994 6.17982e+06 7.95032e+06 1.08355e+07 -107979 -881470 -1.80374e+06
144 3 O 1.16382 101.928 2.02108 -1.2 -8.92555 -6.11455e+06 -1.52553e+06 -5.38803e+06 -863352 -867891 1.33347e+06
145 3 O 3.2462 105.867 1.50245 -1.2 -8.31342 -2.23671e+06 -1.79313e+06 -2.69468e+06 -444175 89499.9 -80937.3
146 3 O -0.902669 102.683 0.68558 -1.2 -7.90699 -6.18236e+06 -1.14373e+06 -2.22722e+06 25393.9 460429 243084
147 1 Mg 2.22213 111.746 3.07661 1.2 -7.99289 -2.20346e+06 2.58843e+06 -412087 -222925 1.52592e+06 1.8413e+06
148 3 O -1.14168 102.537 3.2803 -1.2 -8.71345 -3.35478e+06 -1.71354e+06 -2.97567e+06 -553812 -1.52862e+06 259116
149 1 Mg 2.38923 108.666 4.44508 1.2 -8.61492 1.43907e+06 495883 3.84779e+06 1.53797e+06 460520 -496074
150 2 Si 5.05304 110.538 4.55298 2.4 -33.7345 9.42574e+06 7.77077e+06 9.26511e+06 19073.4 -999059 1.63719e+06
151 3 O 3.48284 110.553 4.78649 -1.2 -8.76662 -978147 -1.80907e+06 -3.77765e+06 -182955 -1.00686e+06 262212
152 3 O 6.03147 106.648 4.74782 -1.2 -8.76062 -3.37302e+06 -4.34275e+06 -5.36413e+06 -691970 187158 -2.07808e+06
153 3 O 5.6857 109.86 3.23983 -1.2 -8.706 -3.91369e+06 -1.72752e+06 -2.27776e+06 -862028 -658790 -508821
154 3 O 5.73277 109.847 5.81485 -1.2 -8.89272 -6.01879e+06 -1.32494e+06 -2.10969e+06 258087 711735 424118
155 1 Mg 4.70921 106.386 3.26391 1.2 -8.19255 857000 3.2267e+06 1.43211e+06 714798 -893595 1.12696e+06
156 1 Mg -0.286072 103.265 4.92604 1.2 -8.27441 1.19419e+06 -4629.71 3.01432e+06 -481923 -136206 -111142
157 2 Si 6.69328 105.2 4.72902 2.4 -33.9646 6.4177e+06 6.2357e+06 1.14118e+07 1.41109e+06 -1.17001e+06 -178801
158 3 O 3.46038 105.389 4.61107 -1.2 -9.3343 -5.15104e+06 -766085 -3.83912e+06 1.75642e+06 -591649 -697571
159 3 O 0.951772 101.424 4.96201 -1.2 -9.52203 -2.6154e+06 -2.69109e+06 -4.6251e+06 1.11039e+06 -224899 1.0303e+06
160 3 O 6.00252 104.625 3.41552 -1.2 -8.41496 -3.52611e+06 -3.17699e+06 -5.53212e+06 -97391.6 1.43023e+06 -1.84927e+06
161 1 Mg 4.61278 106.386 -0.0312578 1.2 -8.38752 1.06537e+06 2.04928e+06 958534 1.51773e+06 955953 -1.36861e+06
162 3 O 5.91997 104.4 5.9339 -1.2 -8.84921 -1.07256e+06 -1.03141e+06 -4.09206e+06 629606 -915488 343516
163 1 Mg 4.81726 109.218 1.41479 1.2 -8.62219 2.75021e+06 -115666 3.23244e+06 -874398 98385.6 1.05671e+06
164 2 Si 2.59807 107.4 1.55359 2.4 -34.3036 5.24772e+06 9.62871e+06 1.19335e+07 -129431 289777 1.24461e+06
165 3 O 5.89023 107.39 1.6787 -1.2 -8.95988 -6.30525e+06 -2.54882e+06 -4.19841e+06 1.0852e+06 -251795 -1.45541e+06
166 3 O 3.59773 111.042 1.63652 -1.2 -8.89668 -1.31623e+06 -153702 -1.67704e+06 1.83005e+06 -448555 713472
167 3 O 3.4363 107.985 0.185995 -1.2 -8.54943 -3.67633e+06 -3.65772e+06 -1.47674e+06 150875 -2.67446e+06 257408
168 3 O 3.31432 108.083 2.86075 -1.2 -8.65075 -4.24816e+06 -2.21641e+06 -1.84994e+06 51991.4 1.17086e+06 -1.18886e+06
169 1 Mg 2.32749 111.574 0.0539595 1.2 -7.96208 -1.25084e+06 4.13191e+06 2.0518e+06 -811873 -1.53388e+06 -1.52954e+06
170 1 Mg 7.15175 114.692 1.81335 1.2 -8.36909 2.21692e+06 464770 3.13132e+06 553382 379164 -227281
171 2 Si 4.40175 112.634 1.63437 2.4 -32.631 8.49904e+06 1.02753e+07 9.9497e+06 1.45817e+06 608786 -1.71394e+06
172 3 O 5.97619 112.504 1.67012 -1.2 -9.45602 -1.23182e+06 -3.74516e+06 -5.34147e+06 980752 -241326 1.87573e+06
173 3 O 3.21491 116.628 1.77199 -1.2 -9.14929 -4.62811e+06 -3.06101e+06 -4.08923e+06 -2.35352e+06 -243695 329304
174 3 O 3.70379 113.35 0.296488 -1.2 -9.05906 -3.89198e+06 -394938 -3.12094e+06 -892412 2.48689e+06 467119
175 1 Mg 2.21197 122.58 3.38806 1.2 -6.81984 -1.14859e+06 3.45357e+06 -861570 -393656 558182 1.19468e+06
176 3 O 3.73788 113.286 2.90763 -1.2 -9.35133 -3.26777e+06 -1.66735e+06 -2.84675e+06 -652714 -1.06918e+06 -21061.1
177 1 Mg 2.0309 119.413 4.74581 1.2 -7.8322 1.76607e+06 482970 2.3544e+06 205518 -576278 1.19781e+06
178 2 Si 4.73812 121.488 4.80483 2.4 -32.0166 3.48153e+06 9.52932e+06 8.18369e+06 640131 1.98539e+06 -594444
179 3 O 3.14113 121.597 4.78209 -1.2 -10.1397 -1.71761e+06 -3.13852e+06 -5.46356e+06 787828 2.05562e+06 -875546
180 3 O 6.08 117.462 4.72885 -1.2 -9.36805 -5.48131e+06 -4.6403e+06 -7.08896e+06 -2.93766e+06 647877 383238
181 3 O 5.17254 120.665 3.65391 -1.2 -9.38065 -3.15373e+06 -3.82977e+06 -5.86286e+06 28700.5 146037 -1.69736e+06
182 3 O 5.54453 120.785 6.1097 -1.2 -9.40121 -1.62245e+06 -2.38877e+06 -4.58596e+06 -679555 937777 -1.21649e+06
183 1 Mg 4.60658 116.969 3.20298 1.2 -7.84183 -1.47076e+06 2.98612e+06 -1.1506e+06 -646256 -419211 1.97991e+06
184 1 Mg 4.75915 113.879 4.61821 1.2 -8.32188 1.78017e+06 90256.1 3.73604e+06 -392115 -244378 -263274
185 2 Si 6.69735 115.994 4.76909 2.4 -32.424 6.90713e+06 7.67965e+06 1.15998e+07 1.27761e+06 -72886 -80217.3
186 3 O 3.57264 116.128 4.58338 -1.2 -9.54289 -877041 -3.7567e+06 -6.97378e+06 1.00139e+06 -1.10585e+06 -115753
187 3 O 5.73422 112.097 4.49922 -1.2 -9.09109 -3.34549e+06 -1.268e+06 -3.6163e+06 1.98002e+06 1.05112e+06 -318982
188 3 O 6.0118 115.225 3.38801 -1.2 -8.99287 -2.44692e+06 -742950 -1.41614e+06 457519 1.55249e+06 986311
189 1 Mg 4.31552 117.07 0.182064 1.2 -8.06087 -37115.4 2.80666e+06 893948 677696 1.63425e+06 -1.37793e+06
190 3 O 5.98088 115.407 6.00833 -1.2 -9.13428 -2.29574e+06 -3.57454e+06 -4.25772e+06 -412259 -447142 932460
191 1 Mg 4.24867 120.173 1.92426 1.2 -7.89863 -518991 1.017e+06 2.66702e+06 -947244 -467125 513064
192 2 Si 2.422 118.064 1.78235 2.4 -33.2126 7.95374e+06 7.02244e+06 1.1135e+07 360727 1.39501e+06 -200935
193 3 O 5.64738 117.889 1.83855 -1.2 -9.19327 -3.15199e+06 -3.00798e+06 -5.00841e+06 359640 849625 624087
194 3 O 3.50439 122.107 1.895 -1.2 -9.971 -4.08705e+06 -5.70667e+06 -3.13718e+06 1.36799e+06 23942.5 91380.3
195 3 O 3.10957 118.789 0.469257 -1.2 -9.08361 -3.88262e+06 -938860 -1.55144e+06 -560265 -1.78639e+06 62568.6
196 3 O 3.1274 118.824 3.05059 -1.2 -9.07404 -2.58165e+06 -2.06045e+06 -3.08665e+06 -1.04598e+06 1.16657e+06 -649243
197 1 Mg 2.05767 122.018 0.438885 1.2 -6.99585 -1.35882e+06 2.89183e+06 612232 -786330 -1.61918e+06 -1.23514e+06
198 1 Mg 6.98748 125.231 1.38059 1.2 -7.26319 297726 1.68797e+06 3.29272e+06 1.10369e+06 -127732 724936
199 2 Si 4.20268 123.508 1.6326 2.4 -31.9384 2.43402e+06 1.00977e+07 7.16237e+06 115409 -754277 1.72341e+06
200 3 O 5.77737 123.226 1.77845 -1.2 -10.0373 -851693 -3.60746e+06 -2.44711e+06 -410799 497441 -688087
201 3 O 3.19282 127.064 1.58936 -1.2 -9.47304 -2.73585e+06 -3.03264e+06 -2.85968e+06 -1.88516e+06 -179411 1.8711e+06
202 3 O 3.71924 124.064 0.327743 -1.2 -10.1506 -2.91017e+06 -4.62182e+06 -2.897e+06 199087 -438485 1.09502e+06
203 1 Mg 2.10842 132.858 2.91506 1.2 -7.95281 -1.57796e+06 4.09811e+06 -913073 -648442 2.08248e+06 2.25807e+06
204 3 O 3.66437 124.365 2.93231 -1.2 -9.62554 -1.81244e+06 -4.74415e+06 962336 -186.858 -701585 120967
205 1 Mg 2.05934 129.963 4.46012 1.2 -7.94501 1.64661e+06 1.04187e+06 2.69277e+06 1.34852e+06 -181655 106713
206 2 Si 4.81636 131.928 4.546 2.4 -32.3744 5.02093e+06 9.18852e+06 1.17296e+07 1.48933e+06 -402173 2.59112e+06
207 3 O 3.31904 131.905 4.4861 -1.2 -9.61324 -2.87535e+06 -4.446e+06 -4.84487e+06 1.21318e+06 -400383 -1.30988e+06
208 3 O 5.75741 128.139 4.57093 -1.2 -9.13163 -2.49893e+06 -3.09583e+06 -3.1209e+06 -2.3249e+06 -204812 -55240.4
209 3 O 5.57374 131.261 2.96398 -1.2 -8.59495 -3.29344e+06 -2.04844e+06 1.80478e+06 -1.26765e+06 -2.21441e+06 -712764
210 3 O 5.43434 131.263 5.84409 -1.2 -9.3139 -3.44514e+06 -4.68986e+06 -1.82921e+06 590578 463483 698959
211 1 Mg 4.55145 127.447 3.01756 1.2 -7.8603 -2.26518e+06 3.27163e+06 -310779 1.47209e+06 -2.0713e+06 686802
212 1 Mg 4.45981 124.812 4.75068 1.2 -7.63255 -447779 653468 2.7092e+06 -1.26472e+06 -668283 -777137
213 2 Si 6.59366 126.63 4.61349 2.4 -32.1218 5.33488e+06 1.07295e+07 8.80223e+06 -1.03838e+06 199699 -2.25015e+06
214 3 O 3.33977 126.883 4.77834 -1.2 -9.99069 -3.50838e+06 -4.44542e+06 -3.67167e+06 -298474 -528406 2.00438e+06
215 3 O 5.40353 122.97 4.82875 -1.2 -10.0286 -224629 -4.21011e+06 -3.09129e+06 904784 -1.29782e+06 417236
216 3 O 5.93297 126.109 3.18966 -1.2 -9.17754 -2.34267e+06 -5.73806e+06 -60380 392788 1.83857e+06 941195
217 1 Mg 4.59477 127.26 0.00148063 1.2 -7.52993 -815443 4.47319e+06 -1.12637e+06 189282 -140741 -1.65771e+06
218 3 O 5.79806 125.881 5.7738 -1.2 -9.70025 -3.80718e+06 -4.31426e+06 -3.2292e+06 936342 -2.65728e+06 2.33913e+06
219 1 Mg 4.56564 130.373 1.4877 1.2 -8.72015 1.64696e+06 9152.79 4.33894e+06 -1.29016e+06 -255841 695370
220 2 Si 2.52106 128.606 1.61565 2.4 -33.1734 9.03124e+06 9.34637e+06 1.10826e+07 -557801 -136317 -1.87496e+06
221 3 O 5.63765 128.534 1.59051 -1.2 -9.22466 375882 -2.90286e+06 -4.01705e+06 877459 951393 1.86937e+06
222 3 O 3.47863 132.219 1.55702 -1.2 -9.19935 -1.92885e+06 -2.27423e+06 -2.50131e+06 1.75439e+06 -568357 -1.64159e+06
223 3 O 3.09073 129.192 0.163968 -1.2 -8.22769 -4.99177e+06 -2.43072e+06 309972 -464754 -1.76078e+06 575909
224 3 O 3.21104 129.219 2.90173 -1.2 -9.329 -2.9272e+06 -3.40788e+06 -1.01779e+06 504976 715216 -182098
225 1 Mg 2.02748 132.827 -0.00100918 1.2 -7.65707 -1.47388e+06 5.44105e+06 -443602 -456099 -750399 -939697
226 1 Mg 7.12883 135.733 1.52854 1.2 -8.06689 1.64797e+06 -1.92182e+06 1.88184e+06 428987 554537 342795
227 2 Si 4.23307 133.686 1.37085 2.4 -32.7059 5.50507e+06 1.29966e+07 8.28363e+06 1.31398e+06 742538 -261847
228 3 O 5.78963 133.769 1.39394 -1.2 -9.66153 -1.73045e+06 -4.80095e+06 -3.95125e+06 1.32079e+06 1.29903e+06 -252118
229 3 O 3.21978 137.433 1.41491 -1.2 -10.2195 -2.65755e+06 -9.28375e+06 -1.8523e+06 -1.41709e+06 350209 649963
230 3 O 3.49771 134.472 0.0701515 -1.2 -9.11786 -2.54158e+06 -277643 -903170 -758774 1.05073e+06 -2.11663e+06
231 1 Mg 2.2472 143.381 2.73402 1.2 -7.38239 -2.19135e+06 3.63784e+06 1.1211e+06 -1.40177e+06 886090 1.91494e+06
232 3 O 3.62771 134.513 2.59806 -1.2 -9.13026 -3.46174e+06 -3.57773e+06 -2.77706e+06 -515182 63659.9 -205815
233 1 Mg 2.4928 140.168 4.15064 1.2 -7.59231 482223 1.53366e+06 -170544 549522 61981.8 -1.08726e+06
234 2 Si 4.84349 142.453 4.29345 2.4 -31.8786 3.77658e+06 1.08664e+07 9.50986e+06 -195530 -1.32438e+06 1.17567e+06
235 3 O 3.29978 142.317 4.3336 -1.2 -10.1145 -2.12054e+06 -3.03901e+06 -4.52869e+06 426581 -686178 -1.06951e+06
236 3 O 5.96998 138.464 4.28253 -1.2 -9.82227 -2.7003e+06 -6.11867e+06 -3.48533e+06 -48852.6 -1.61e+06 -406481
237 3 O 5.60392 141.74 3.06437 -1.2 -9.53573 -2.05278e+06 -2.0721e+06 -1.88122e+06 -673416 -1.60925e+06 -234724
238 3 O 5.42068 141.911 5.71671 -1.2 -9.53349 -4.46831e+06 -5.02349e+06 -2.42209e+06 -739847 1.50996e+06 -912727
239 1 Mg 4.69851 137.963 2.83113 1.2 -6.82627 -2.40546e+06 5.24855e+06 -1.53514e+06 1.25877e+06 -2.75377e+06 982353
240 1 Mg 4.65885 135.026 4.47083 1.2 -8.09457 1.04161e+06 -216294 2.16731e+06 -1.7973e+06 1.24598e+06 1.78537e+06
241 2 Si 6.5292 136.99 4.36231 2.4 -32.5193 4.0988e+06 9.47352e+06 7.51357e+06 552725 -635771 2.36122e+06
242 3 O 3.30082 137.086 4.491 -1.2 -9.39432 -2.01865e+06 -3.85278e+06 -3.09892e+06 2.02195e+06 -678499 -1.12258e+06
243 3 O 5.71758 133.294 4.49307 -1.2 -9.26187 -3.13634e+06 -4.41807e+06 -5.33807e+06 2.19924e+06 603414 -1.16458e+06
244 3 O 5.95417 136.285 3.06414 -1.2 -9.65134 -2.81757e+06 -3.99109e+06 -2.34353e+06 -586629 50258.5 -2.15431e+06
245 1 Mg 4.74467 137.86 -0.147174 1.2 -7.19981 -2.71233e+06 4.55734e+06 -2.45362e+06 1.52322e+06 1.55243e+06 -992443
246 3 O 5.76888 136.41 5.71599 -1.2 -9.16929 -3.74851e+06 -3.40614e+06 -644425 -410778 -1.32464e+06 -319076
247 1 Mg 4.78547 140.95 1.37559 1.2 -8.09288 1.14467e+06 2.44892e+06 1.81156e+06 -846044 -403979 -247056
248 2 Si 2.68055 138.856 1.26738 2.4 -31.5819 6.24882e+06 1.11986e+07 5.00862e+06 1.59774e+06 -771283 817657
249 3 O 5.77784 138.93 1.34302 -1.2 -10.0403 852968 -3.99041e+06 -2.10153e+06 693803 -786806 -244367
250 3 O 3.65781 142.825 1.24826 -1.2 -8.81983 -1.943e+06 -2.04074e+06 -1.53397e+06 1.01275e+06 295660 543201
251 3 O 3.41345 139.43 -0.0588831 -1.2 -9.68953 -1.99334e+06 -4.63942e+06 -2.6e+06 67848.5 -2.09258e+06 -522638
252 3 O 3.34948 139.769 2.43056 -1.2 -9.79277 -2.71406e+06 -2.93368e+06 -2.50274e+06 237210 1.51348e+06 -555300
253 1 Mg 2.35666 143.513 -0.434416 1.2 -7.40566 -1.39168e+06 3.29058e+06 558311 -925538 -511686 -2.87062e+06
254 1 Mg 6.89972 146.341 1.19189 1.2 -7.35817 239725 2.11848e+06 2.47645e+06 398361 61099.4 -366427
255 2 Si 4.29046 144.471 1.34879 2.4 -32.0337 5.07654e+06 1.11285e+07 6.54719e+06 713013 -500007 -393326
256 3 O 5.83644 144.257 1.14779 -1.2 -9.87428 -1.4746e+06 -3.39767e+06 -1.9191e+06 -1.15972e+06 -1.57568e+06 932077
257 3 O 2.90157 148.325 1.38211 -1.2 -10.4134 -2.16338e+06 -1.09349e+06 -2.30054e+06 -2.12003e+06 -214029 -133358
258 3 O 3.62423 145.052 0.0624286 -1.2 -9.68939 -2.79549e+06 -4.30433e+06 -1.25741e+06 -586346 434265 2.8943e+06
259 1 Mg 1.44442 154.046 1.34289 1.2 -6.32878 -1.54379e+06 -582263 2.91452e+06 -140922 541660 470097
260 3 O 3.47987 144.942 2.5851 -1.2 -10.0684 -1.88959e+06 -3.8236e+06 -4.97287e+06 -421676 -911245 -2.27189e+06
261 1 Mg 1.94065 150.999 4.18322 1.2 -7.32308 -542034 3.2199e+06 1.0159e+06 -973548 608551 1.23773e+06
262 2 Si 3.91988 152.331 2.50856 2.4 -31.6026 6.88107e+06 1.05388e+07 9.94904e+06 -3.97712e+06 442266 2.14276e+06
263 3 O 2.81614 153.522 2.78875 -1.2 -9.14904 2.16921e+06 739028 -3.60125e+06 -2.25179e+06 2.49464e+06 -2.08545e+06
264 3 O 6.2642 149.029 4.13298 -1.2 -9.08582 -2.20256e+06 -2.80763e+06 -3.0051e+06 -1.44508e+06 -1.32347e+06 -822206
265 3 O 4.65925 152.868 1.15347 -1.2 -9.99771 -3.03149e+06 -1.48494e+06 -128608 1.34812e+06 611702 -1.99591e+06
266 3 O 4.88585 151.815 3.71038 -1.2 -10.0068 350678 -2.85062e+06 -1.11453e+06 -2.40313e+06 -206196 -2.07188e+06
267 1 Mg 4.48127 148.394 2.65471 1.2 -6.82208 -2.06718e+06 2.88344e+06 1.41722e+06 429332 141986 1.31968e+06
268 1 Mg 4.53288 145.581 4.32288 1.2 -7.67282 -191101 -839639 1.31517e+06 943106 134691 213377
269 2 Si 6.71686 147.409 4.10925 2.4 -31.8205 4.36151e+06 1.24092e+07 7.07305e+06 159260 -517143 1.78426e+06
270 3 O 3.5957 147.492 4.1444 -1.2 -10.3732 -1.94854e+06 -4.35291e+06 -3.30033e+06 2.27943e+06 187786 -1.17918e+06