ITEM: TIMESTEP
46300
ITEM: NUMBER OF ATOMS
5600
ITEM: BOX BOUNDS xy xz yz pp pp pp
0.0000000000000000e+00 7.1234999999999999e+00 0.0000000000000000e+00
0.0000000000000000e+00 2.0198500000000001e+02 2.3744999999999998e+00
0.0000000000000000e+00 1.1958400000000000e+02 0.0000000000000000e+00
ITEM: ATOMS id type element xu yu zu q c_pe c_s[1] c_s[2] c_s[3] c_s[4] c_s[5] c_s[6]
1 1 Mg -1.61465 48.7111 -0.912456 1.2 -7.77297 -355799 -1.19198e+06 187975 1.01182e+06 967369 -1.33581e+06
2 1 Mg 3.04803 50.1893 2.1888 1.2 -8.02274 -806883 3.56144e+06 -1.22989e+06 462741 567977 626145
3 2 Si 0.859378 50.3614 0.109497 2.4 -34.1509 8.10136e+06 8.23461e+06 6.33333e+06 -2.47849e+06 353544 1.04047e+06
4 3 O 2.17092 49.3766 0.471348 -1.2 -7.78041 -4.47902e+06 -3.60407e+06 -6.97455e+06 732019 805427 830214
5 3 O -1.01455 53.0213 1.60561 -1.2 -8.48533 -5.06048e+06 -5.79323e+06 -1.43264e+06 -1.39409e+06 21188.2 -675801
6 3 O 0.192139 49.6025 -0.996907 -1.2 -8.8003 -7.37002e+06 -2.07229e+06 -5.21627e+06 943932 -2.05881e+06 -121162
7 1 Mg -2.3385 58.3283 2.82612 1.2 -7.67431 -1.77153e+06 3.15122e+06 -2.18931e+06 -2.03533e+06 2.12675e+06 1.98192e+06
8 3 O 0.221829 50.3601 1.53665 -1.2 -8.88309 -5.30168e+06 -5.5574e+06 -2.21996e+06 1.54264e+06 -161564 -2.10185e+06
9 1 Mg -2.10956 55.7526 4.47579 1.2 -8.81806 3.07851e+06 1.38468e+06 -253527 937715 902754 416867
10 2 Si 0.502507 57.6963 4.35827 2.4 -33.8932 7.92824e+06 1.27572e+07 7.29531e+06 -419414 646022 171066
11 3 O -1.12818 57.8331 4.43774 -1.2 -8.965 -1.35389e+06 -6.05716e+06 -3.81914e+06 467118 -312982 -787137
12 3 O 1.84808 53.612 4.53987 -1.2 -8.76384 -4.25529e+06 -3.08376e+06 -1.2138e+06 -1.25313e+06 411356 -871808
13 3 O 1.2281 56.8639 3.13408 -1.2 -9.02376 -4.56581e+06 -4.18294e+06 -2.54131e+06 -1.83277e+06 -1.35639e+06 710253
14 3 O 1.03122 56.9575 5.67375 -1.2 -7.93363 -5.37585e+06 -3.71316e+06 -1.19844e+06 -1.85281e+06 615965 -428493
15 1 Mg 0.512752 52.8913 2.97577 1.2 -8.21813 322162 3.64258e+06 1.37263e+06 205243 -663312 2.41191e+06
16 1 Mg 0.857067 49.313 2.96947 1.2 -7.77092 240801 2.74734e+06 -2.89519e+06 -379701 -473866 1.77013e+06
17 2 Si 2.62068 52.19 4.59998 2.4 -33.6648 7.17498e+06 9.01732e+06 8.6388e+06 6486.18 257625 1.76471e+06
18 3 O -0.645531 52.3613 4.66997 -1.2 -9.00327 -4.98759e+06 -4.17602e+06 -2.22393e+06 946856 -278717 -864438
19 3 O 2.65217 48.4626 3.01009 -1.2 -6.81271 863321 -729952 -156799 207520 149379 23370.5
20 3 O 2.05372 51.4021 3.33751 -1.2 -9.07756 -3.47012e+06 -3.95638e+06 -3.07764e+06 -1.16465e+06 1.25283e+06 -1.50935e+06
21 1 Mg 0.156079 53.57 -0.0242028 1.2 -7.84745 -445931 2.17917e+06 538418 735764 1.22784e+06 -1.03431e+06
22 3 O 1.92935 51.3572 5.94808 -1.2 -9.8831 -4.55428e+06 -3.76546e+06 -2.82091e+06 577878 -382776 -867786
23 1 Mg 0.290212 56.1793 1.52397 1.2 -8.24393 670991 1.61336e+06 1.82262e+06 -1.5528e+06 -223779 -364420
24 2 Si -1.76562 54.4069 1.66142 2.4 -33.5241 7.32518e+06 1.07409e+07 8.73378e+06 1.14182e+06 938328 2.85499e+06
25 3 O 1.40821 54.1032 1.56663 -1.2 -9.2645 -2.54944e+06 -2.7173e+06 -2.37775e+06 840946 646658 -1.60842e+06
26 3 O -0.838321 58.1424 1.56263 -1.2 -9.01542 -3.50818e+06 -2.12698e+06 -2.61996e+06 828074 648828 -657823
27 3 O -1.11404 55.141 0.355946 -1.2 -9.43089 -1.54263e+06 -4.4828e+06 -2.94689e+06 245251 -1.34195e+06 10852.5
28 3 O -1.17092 55.2393 2.95244 -1.2 -8.46713 -3.40878e+06 -3.29462e+06 -2.38106e+06 948986 1.84657e+06 -579400
29 1 Mg -2.29089 58.6635 0.153909 1.2 -7.41683 -1.30808e+06 2.88505e+06 -986054 -374805 -288742 -1.42415e+06
30 1 Mg 2.44936 61.7067 1.48601 1.2 -8.05954 2.1443e+06 1.44098e+06 1.69865e+06 332108 311259 -85614.7
31 2 Si -0.194142 59.7325 1.4006 2.4 -33.0797 4.63209e+06 1.28625e+07 7.48933e+06 -189316 -99392.9 991531
32 3 O 1.3656 59.4586 1.47884 -1.2 -9.53973 -2.26375e+06 -5.07573e+06 -4.24076e+06 -591571 1.44946e+06 -1.79673e+06
33 3 O -1.10777 63.3502 1.55003 -1.2 -9.23 -3.26405e+06 -4.65602e+06 -3.41918e+06 -866649 -116491 1.10464e+06
34 3 O -0.899224 60.2629 0.0981084 -1.2 -9.7298 -1.30622e+06 -3.46871e+06 -2.30764e+06 -71113.7 971512 -987318
35 1 Mg -2.13407 69.4175 2.93764 1.2 -7.10702 -671938 3.786e+06 -1.58834e+06 -1.60548e+06 1.43719e+06 2.12837e+06
36 3 O -0.703846 60.5728 2.61902 -1.2 -8.76545 -3.33092e+06 -4.35077e+06 -953227 279521 -12510.9 162403
37 1 Mg -1.99113 66.4355 4.39902 1.2 -8.38156 1.72653e+06 1.42512e+06 2.78524e+06 1.42992e+06 155684 385588
38 2 Si 0.737415 68.1663 4.51864 2.4 -32.8285 5.50174e+06 1.09267e+07 7.52394e+06 -938749 -558739 1.34915e+06
39 3 O -0.890533 68.3085 4.4979 -1.2 -9.54019 125404 -3.91926e+06 -2.21713e+06 -1.12149e+06 263729 -465022
40 3 O 1.54163 64.4541 4.39026 -1.2 -8.91383 -4.05574e+06 -5.89424e+06 -1.45599e+06 -263174 -132000 -1.89095e+06
41 3 O 1.37959 67.4261 3.18266 -1.2 -9.12682 -2.19776e+06 -3.44389e+06 984213 284030 -691752 224939
42 3 O 1.31224 67.5614 5.82484 -1.2 -9.19456 -3.16977e+06 -5.60052e+06 -1.87812e+06 365458 -174684 502745
43 1 Mg 0.208672 63.8354 2.90423 1.2 -8.21422 -845313 4.93206e+06 -2.68665e+06 1.24508e+06 -2.40233e+06 1.41409e+06
44 1 Mg 0.150383 61.12 4.37928 1.2 -8.63531 2.45465e+06 2.25526e+06 1.50711e+06 -1.15549e+06 112290 -702307
45 2 Si 2.24003 63.0612 4.56993 2.4 -33.2027 6.63367e+06 1.40644e+07 5.84434e+06 1.19851e+06 130012 -2.22875e+06
46 3 O -0.961977 63.1203 4.4408 -1.2 -9.26489 -2.23558e+06 -5.86831e+06 -1.96757e+06 156219 -580815 -94770.8
47 3 O 1.1849 59.1364 4.34116 -1.2 -8.97246 -4.6273e+06 -4.42778e+06 -4.29488e+06 1.13417e+06 -995340 1.29147e+06
48 3 O 1.57201 62.3215 3.2549 -1.2 -8.70193 -4.58622e+06 -6.18263e+06 786113 229557 764022 145205
49 1 Mg 0.205206 63.8761 0.00320897 1.2 -7.5103 -908010 3.27607e+06 218047 1.12549e+06 1.44437e+06 -2.10215e+06
50 3 O 1.51333 62.2331 5.88622 -1.2 -9.16148 -1.6922e+06 -2.75829e+06 1.12349e+06 1.07458e+06 -1.36934e+06 -184423
51 1 Mg 0.387645 66.8651 1.37125 1.2 -8.17271 1.58538e+06 1.34839e+06 1.12589e+06 -854318 1.10359e+06 -477621
52 2 Si -1.72762 64.9 1.47701 2.4 -33.2148 6.65649e+06 1.04314e+07 6.41748e+06 121007 -289482 -1.43846e+06
53 3 O 1.39744 64.8033 1.46787 -1.2 -9.29984 -290642 -3.62103e+06 -3.65615e+06 188344 207530 113934
54 3 O -0.626105 68.7132 1.28982 -1.2 -9.40437 -2.07763e+06 -4.12846e+06 -3.08009e+06 -410125 -356850 42087.5
55 3 O -1.13232 65.4748 0.152314 -1.2 -9.4582 -2.45383e+06 -2.94666e+06 -3.55719e+06 -394886 -554019 702343
56 3 O -1.11259 65.6331 2.66057 -1.2 -8.89756 -4.48276e+06 -4.06405e+06 -2.7833e+06 211305 -285502 -124858
57 1 Mg -2.19372 69.3041 0.0363334 1.2 -7.02038 -1.1475e+06 4.25999e+06 813516 -1.27663e+06 -1.26482e+06 -2.72447e+06
58 1 Mg 2.49885 72.0476 1.55058 1.2 -7.46901 974082 552039 3.41404e+06 720209 -272577 328887
59 2 Si -0.126555 70.2454 1.38661 2.4 -32.0978 -538571 1.13988e+07 7.78667e+06 -310123 831931 -1.07785e+06
60 3 O 1.40957 70.1468 1.55305 -1.2 -10.1875 -2.8292e+06 -5.04828e+06 -4.39957e+06 -962272 1.15562e+06 500748
61 3 O -1.3763 74.0258 1.70159 -1.2 -9.42445 -1.43714e+06 -6.44337e+06 -3.48582e+06 -1.21904e+06 -234966 825794
62 3 O -0.867605 70.978 0.238746 -1.2 -9.86997 -2.43782e+06 -4.43915e+06 -4.61385e+06 -226255 -8594.85 1.84404e+06
63 1 Mg -2.36602 79.6689 2.96719 1.2 -7.82462 316011 3.58946e+06 -40587.4 -425576 502435 1.81062e+06
64 3 O -0.731794 70.8158 2.72918 -1.2 -9.73625 -3.55537e+06 -4.48424e+06 -3.51121e+06 -26892.5 -165630 -270266
65 1 Mg -2.21953 76.7871 4.52496 1.2 -8.21849 1.68996e+06 1.50657e+06 2.15523e+06 533559 -211256 -761709
66 2 Si 0.356404 78.6685 4.59651 2.4 -33.6942 6.64389e+06 1.04552e+07 8.31297e+06 10499 648830 -944577
67 3 O -1.22917 78.7907 4.50957 -1.2 -9.38211 -1.8855e+06 -2.44025e+06 -2.41323e+06 -1.4543e+06 734025 494875
68 3 O 1.33377 74.8443 4.57005 -1.2 -9.09901 -5.61147e+06 -5.93282e+06 -5.57711e+06 -1.46588e+06 -1.03983e+06 845155
69 3 O 1.00431 78.0188 3.30442 -1.2 -9.00086 -2.94809e+06 -2.61674e+06 -2.61096e+06 33573.3 -688593 -410829
70 3 O 1.03283 78.1454 5.89827 -1.2 -9.00742 -2.78337e+06 -3.9059e+06 -3.32192e+06 554035 1.33723e+06 2.10919e+06
71 1 Mg 0.0679773 74.4329 3.15842 1.2 -7.78644 -1.98874e+06 3.58153e+06 -178805 163184 -1.63168e+06 172061
72 1 Mg 0.109189 71.5804 4.38102 1.2 -8.04297 634338 1.58833e+06 1.78867e+06 -1.93752e+06 -374539 232131
73 2 Si 2.1425 73.4856 4.66628 2.4 -33.369 6.09434e+06 9.49959e+06 7.50572e+06 616406 1.41388e+06 -774448
74 3 O -1.05758 73.5737 4.6325 -1.2 -9.20045 -3.08507e+06 -4.21708e+06 -3.62682e+06 -563753 1.48998e+06 1.35996e+06
75 3 O 1.32199 69.6214 4.48868 -1.2 -9.46621 -3.35184e+06 -6.13633e+06 -3.5507e+06 143380 -826685 346301
76 3 O 1.412 72.6653 3.41434 -1.2 -9.36146 -1.82222e+06 -3.82376e+06 -1.07151e+06 -501428 951316 219502
77 1 Mg -0.0285103 74.1997 0.0470797 1.2 -7.39581 -1.9428e+06 4.32694e+06 313017 872316 1.3539e+06 -1.16057e+06
78 3 O 1.66494 72.9218 6.03844 -1.2 -8.65334 -5.21585e+06 -4.8638e+06 -3.23895e+06 -90820.6 -416381 1.97102e+06
79 1 Mg 0.0688438 77.1738 1.60707 1.2 -8.47721 1.3381e+06 982843 2.69452e+06 -542522 204913 -87340.8
80 2 Si -2.07311 75.4429 1.61385 2.4 -33.3113 5.61746e+06 8.08474e+06 9.35118e+06 -584310 419568 -2.02182e+06
81 3 O 1.14031 75.4431 1.62895 -1.2 -9.56713 -3.70212e+06 -3.316e+06 -3.7993e+06 766061 809151 849681
82 3 O -0.909618 79.3529 1.53606 -1.2 -8.94268 -3.61523e+06 -2.89102e+06 -3.60852e+06 1.42259e+06 -385275 1.36303e+06
83 3 O -1.38639 75.9625 0.216809 -1.2 -8.79683 -3.20544e+06 -2.85622e+06 -1.62913e+06 471769 -1.6901e+06 1.11661e+06
84 3 O -1.27978 76.1496 2.81158 -1.2 -9.09844 -2.79197e+06 -4.78417e+06 -2.91098e+06 199377 954562 -806873
85 1 Mg -2.32849 79.8089 0.184137 1.2 -7.63251 -1.52323e+06 3.35219e+06 -1.3845e+06 -855240 -1.91772e+06 -3.28289e+06
86 1 Mg 2.5452 82.602 1.66574 1.2 -8.27554 917740 -317174 3.12041e+06 1.35465e+06 -154282 -1.1199e+06
87 2 Si -0.188575 80.824 1.59645 2.4 -32.983 4.30953e+06 1.08627e+07 1.12432e+07 -156639 311815 -537857
88 3 O 1.35808 80.6534 1.57137 -1.2 -9.81132 -2.84942e+06 -4.32496e+06 -4.77752e+06 -263970 321702 -110288
89 3 O -1.31298 84.524 1.55804 -1.2 -9.55199 -960297 -1.90191e+06 -4.8311e+06 -2.33513e+06 -899727 293999
90 3 O -0.881435 81.4703 0.266576 -1.2 -9.21921 -1.10365e+06 -3.61779e+06 -3.35356e+06 -171332 1.15742e+06 768349
91 1 Mg -2.41902 90.4271 3.24705 1.2 -7.59835 389639 4.24541e+06 204809 -1.04419e+06 1.50179e+06 174469
92 3 O -0.887775 81.6318 2.85008 -1.2 -8.91496 -2.63208e+06 -1.98389e+06 -1.6484e+06 599179 -1.44732e+06 1.53469e+06
93 1 Mg -2.15837 87.4862 4.59377 1.2 -8.98842 3.14547e+06 834389 2.87242e+06 949463 137679 -1.28102e+06
94 2 Si 0.441221 89.4285 4.87335 2.4 -33.6476 8.62201e+06 1.06695e+07 6.86708e+06 -1.56162e+06 1.85331e+06 -1.61792e+06
95 3 O -1.19006 89.5459 4.73566 -1.2 -8.97507 196634 -3.46834e+06 -2.23132e+06 -639946 1.12575e+06 532154
96 3 O 1.50169 85.5455 4.51869 -1.2 -8.64621 -4.31246e+06 -4.93046e+06 -3.27898e+06 -631153 391697 2.7163e+06
97 3 O 1.0018 88.5486 3.68659 -1.2 -8.72004 -4.32793e+06 -2.02095e+06 -2.41625e+06 262449 -368099 557735
98 3 O 1.03294 88.8303 6.22181 -1.2 -8.63844 -3.01275e+06 -3.41741e+06 -2.92505e+06 350486 705625 1.0665e+06
99 1 Mg 0.153393 84.9431 2.90255 1.2 -7.63396 -1.45139e+06 4.61794e+06 67278.3 521063 -994161 1.52914e+06
100 1 Mg 0.0277569 82.2902 4.69135 1.2 -8.67972 2.20954e+06 1.28538e+06 2.65004e+06 -1.05181e+06 335684 807698
101 2 Si 2.15556 84.1073 4.48775 2.4 -33.7083 7.37947e+06 1.05584e+07 6.80973e+06 453911 -1.79107e+06 -1.98711e+06
102 3 O -1.00678 84.1722 4.55341 -1.2 -9.09897 -1.5258e+06 -3.97466e+06 -2.49212e+06 472564 -917866 265845
103 3 O 0.922205 80.2475 4.55105 -1.2 -8.62966 -2.72861e+06 -2.69127e+06 -1.93193e+06 743017 -694163 1.01685e+06
104 3 O 1.58137 83.3406 3.31575 -1.2 -9.17346 -4.33713e+06 -3.38702e+06 -4.52585e+06 -214173 552207 -1.16104e+06
105 1 Mg 0.17175 85.2556 0.149072 1.2 -7.59676 -851607 3.93539e+06 1.27083e+06 303536 367344 -1.46354e+06
106 3 O 1.37771 83.4225 5.89681 -1.2 -8.36302 -2.9124e+06 -2.58849e+06 337876 1.26859e+06 -963936 565934
107 1 Mg 0.147239 88.131 1.79091 1.2 -8.75132 2.37535e+06 -549124 2.51924e+06 -498273 199389 -1.43758e+06
108 2 Si -2.03311 86.0173 1.58244 2.4 -32.6852 6.21034e+06 1.12497e+07 1.22397e+07 -765402 -384190 211564
109 3 O 1.12187 86.2262 1.74575 -1.2 -9.59258 -1.08024e+06 -2.08243e+06 -5.85085e+06 -1.09799e+06 116002 547621
110 3 O -0.932839 89.8244 1.77779 -1.2 -8.95077 -1.88298e+06 -4.38146e+06 -3.1009e+06 767805 8496.33 1.82854e+06
111 3 O -1.43082 86.7709 0.237058 -1.2 -9.09107 -2.3906e+06 -1.99117e+06 -4.42201e+06 480175 -2.4301e+06 -1.46606e+06
112 3 O -1.35405 86.8427 2.8706 -1.2 -8.33209 -5.6656e+06 192566 -1.74184e+06 445240 1.35836e+06 2.50225e+06
113 1 Mg -2.34707 90.1813 0.180821 1.2 -8.04129 -136726 3.74008e+06 609824 -760623 -831006 -2.15497e+06
114 1 Mg 2.28144 93.2753 1.9956 1.2 -8.47241 2.45867e+06 2.39156e+06 951270 1.01426e+06 426949 -181612
115 2 Si -0.363996 91.3678 1.70525 2.4 -33.6707 6.0165e+06 1.08758e+07 7.18972e+06 102985 899695 -2.29298e+06
116 3 O 1.21673 91.2929 1.76011 -1.2 -9.37987 -2.42645e+06 -2.6659e+06 -2.55022e+06 -783391 1.56832e+06 893143
117 3 O -1.31432 95.1866 2.09111 -1.2 -8.4696 -2.65798e+06 -2.16159e+06 -2.57469e+06 -1.32829e+06 352657 714879
118 3 O -1.13064 91.9378 0.43337 -1.2 -8.70572 -2.30126e+06 -2.88138e+06 -1.17645e+06 -21962.5 319436 135062
119 1 Mg -2.37345 101.068 3.31139 1.2 -7.70408 -1.85335e+06 4.90513e+06 -2.06588e+06 19489.3 187764 1.44742e+06
120 3 O -0.900056 92.0806 2.97083 -1.2 -9.21789 -2.43365e+06 -4.15269e+06 -2.82149e+06 703140 66537.4 491637
121 1 Mg -2.35684 98.082 5.10921 1.2 -8.64435 3.21829e+06 832223 1.14725e+06 625483 -284145 -290861
122 2 Si 0.366884 100.184 4.78664 2.4 -32.7264 4.46491e+06 1.45261e+07 7.3822e+06 -143536 -184651 184752
123 3 O -1.15229 100.311 4.71966 -1.2 -9.72672 -2.12385e+06 -5.38777e+06 -3.16882e+06 591394 -863797 703532
124 3 O 1.4493 96.2392 5.10656 -1.2 -8.62084 -3.23219e+06 -2.07692e+06 -2.27413e+06 -1.49169e+06 -173323 1.73014e+06
125 3 O 1.083 99.393 3.47134 -1.2 -8.87383 -2.53234e+06 -2.2166e+06 -904164 -490359 -1.41938e+06 1.60864e+06
126 3 O 0.929918 99.3302 5.99382 -1.2 -8.96038 -2.64471e+06 -2.26576e+06 -2.0211e+06 552901 705228 -1.39005e+06
127 1 Mg 0.0386892 95.7802 3.66275 1.2 -7.94235 -1.05656e+06 3.64514e+06 -157203 980565 -1.04709e+06 2.33214e+06
128 1 Mg -0.00584453 92.7557 4.75886 1.2 -7.89517 1.48793e+06 2.0161e+06 2.65081e+06 -204906 -534519 -710268
129 2 Si 2.16138 94.6503 4.92096 2.4 -33.1556 5.39646e+06 1.17051e+07 8.14043e+06 -673802 -66649.5 -699683
130 3 O -0.996052 94.7935 4.95715 -1.2 -9.51961 -1.55925e+06 -3.83247e+06 -4.29291e+06 -807831 1.42453e+06 1.49917e+06
131 3 O 1.03616 90.9318 4.85103 -1.2 -9.55893 -4.40926e+06 -3.55188e+06 -2.30592e+06 834065 -813994 1.88393e+06
132 3 O 1.52408 93.9768 3.69034 -1.2 -9.46683 -3.23469e+06 -2.17088e+06 -3.91586e+06 -246332 542169 416919
133 1 Mg 0.097234 95.7313 0.766687 1.2 -8.44525 -7494.16 4.25496e+06 -975243 1.10446e+06 1.43919e+06 -1.29932e+06
134 3 O 1.62396 94.022 6.24987 -1.2 -9.04129 -3.19754e+06 -4.96007e+06 -1.59957e+06 -16089.4 -818238 987562
135 1 Mg 0.127842 98.8568 1.78702 1.2 -8.44707 1.71445e+06 1.83859e+06 1.19868e+06 -1.15466e+06 144980 -269313
136 2 Si -1.94206 96.8106 2.18271 2.4 -34.0357 7.6828e+06 1.11153e+07 6.5738e+06 -751868 -201894 409496
137 3 O 1.24474 96.7736 2.08846 -1.2 -8.91852 -2.91549e+06 -3.60269e+06 -3.31997e+06 860160 -590706 -894292
138 3 O -0.769252 100.718 1.83735 -1.2 -9.00437 -1.50371e+06 -6.86325e+06 -2.66593e+06 2.03707e+06 -52012.1 2.05804e+06
139 3 O -1.18816 97.4677 0.957937 -1.2 -8.78874 -4.32343e+06 -2.86709e+06 -1.57349e+06 337290 -509970 1.2453e+06
140 3 O -1.3328 97.3285 3.49294 -1.2 -8.72672 -4.61513e+06 -3.59333e+06 -4.0358e+06 -348974 477289 133215
141 1 Mg -2.19872 100.985 0.31805 1.2 -7.89953 644120 5.13315e+06 -301656 -550316 -669052 -1.2385e+06
142 1 Mg 6.97605 103.957 1.93426 1.2 -8.40054 1.04019e+06 1.54528e+06 2.00185e+06 -819835 -43624.8 626496
143 2 Si -0.127089 102.196 1.94386 2.4 -33.4471 7.8331e+06 1.06791e+07 8.20063e+06 -658149 -334311 734460
144 3 O 1.4755 102.086 1.92604 -1.2 -9.632 -3.23623e+06 -3.84941e+06 -3.52999e+06 -1.61005e+06 -1.0915e+06 619828
145 3 O 3.28859 105.754 2.0502 -1.2 -9.21265 -3.56962e+06 -5.28771e+06 -1.70575e+06 -375739 -854110 -439404
146 3 O -0.877586 102.802 0.655203 -1.2 -8.5283 -2.31372e+06 -4.84198e+06 -1.88972e+06 70994.2 2.04592e+06 1.05688e+06
147 1 Mg 2.3913 111.301 3.209 1.2 -8.17063 -634585 5.03891e+06 -2.62103e+06 -1.02079e+06 2.78619e+06 2.12321e+06
148 3 O -0.90971 102.813 3.21984 -1.2 -8.90581 -2.24217e+06 -4.89878e+06 -2.1173e+06 -1.20938e+06 -2.46729e+06 -478714
149 1 Mg 2.34687 108.5 4.76123 1.2 -8.20041 1.05698e+06 378267 1.83048e+06 1.08789e+06 477831 -140531
150 2 Si 5.12574 110.312 4.80509 2.4 -32.3187 5.14108e+06 1.23799e+07 9.0979e+06 848858 -524925 -460130
151 3 O 3.60153 110.541 4.73226 -1.2 -9.68778 -1.97102e+06 -5.24973e+06 -3.28084e+06 -458974 765606 -197222
152 3 O 6.29871 106.711 4.83288 -1.2 -8.91596 -4.08386e+06 -4.92617e+06 -1.92647e+06 -1.67602e+06 -270104 -2.71589e+06
153 3 O 5.78855 109.7 3.36425 -1.2 -8.95565 -3.59152e+06 -4.92016e+06 1.52152e+06 -368503 -1.06065e+06 -470206
154 3 O 5.82978 109.596 6.05547 -1.2 -9.74058 -3.00287e+06 -3.04446e+06 509737 -345192 752911 -710069
155 1 Mg 4.86374 106.183 3.3806 1.2 -7.85338 -692107 3.99732e+06 -780563 874506 -942824 2.49709e+06
156 1 Mg 0.00660979 103.428 4.91564 1.2 -8.00432 407413 928210 914274 -737600 768885 253962
157 2 Si 6.93862 105.152 4.94499 2.4 -32.6999 4.18434e+06 1.35184e+07 6.68289e+06 665823 851263 366809
158 3 O 3.70268 105.427 4.89358 -1.2 -9.80406 -3.63773e+06 -5.5617e+06 -2.55059e+06 1.95068e+06 875772 -751789
159 3 O 1.1223 101.717 4.81595 -1.2 -9.65915 -2.33812e+06 -3.25053e+06 -1.98728e+06 1.71961e+06 194884 446576
160 3 O 6.03552 104.566 3.69335 -1.2 -9.11913 -2.69163e+06 -7.02771e+06 -1.27788e+06 185661 1.97022e+06 -939113
161 1 Mg 4.66079 106.155 0.315074 1.2 -7.63941 -548474 4.99159e+06 -716364 1.28715e+06 1.48908e+06 -842203
162 3 O 6.33213 104.469 6.21533 -1.2 -9.54751 -1.42003e+06 -4.67769e+06 -2.27615e+06 -212242 -746094 -242500
163 1 Mg 4.66085 108.97 1.85149 1.2 -8.40144 934238 1.2321e+06 1.10858e+06 -1.77856e+06 -367177 1.5846e+06
164 2 Si 2.71419 107.237 1.93861 2.4 -33.1738 6.50629e+06 1.26102e+07 6.06717e+06 149593 915952 1.18281e+06
165 3 O 5.87658 107.079 1.82732 -1.2 -9.32803 -883921 -6.03297e+06 -2.21402e+06 1.54273e+06 383670 -241901
166 3 O 3.65884 110.895 1.78859 -1.2 -9.0765 -6.12788e+06 -8.61415e+06 -3.96413e+06 813490 -597554 -806755
167 3 O 3.40141 107.846 0.601934 -1.2 -9.23701 -4.43154e+06 -3.50787e+06 -1.3031e+06 -117109 -694386 -833306
168 3 O 3.40099 108.089 3.09514 -1.2 -9.12938 -3.65639e+06 -5.28926e+06 -3.25921e+06 55962.7 1.09272e+06 -199568
169 1 Mg 2.50109 111.158 0.306122 1.2 -7.70446 -2.1229e+06 3.82791e+06 -2.03415e+06 -1.27143e+06 -2.37104e+06 -444872
170 1 Mg 6.90283 114.215 1.77507 1.2 -9.11115 3.45889e+06 1.69939e+06 2.06491e+06 845445 314435 1.56237e+06
171 2 Si 4.32365 112.302 1.69081 2.4 -34.1092 8.71625e+06 9.90078e+06 4.35099e+06 -2.28183e+06 -644113 1.78212e+06
172 3 O 5.92287 112.169 1.61215 -1.2 -8.73606 -2.40275e+06 -4.46452e+06 -3.45012e+06 -582351 158243 -183102
173 3 O 3.35282 115.999 1.68763 -1.2 -8.48689 -3.76942e+06 -99907.9 -1.43019e+06 172214 245711 -414618
174 3 O 3.63172 112.995 0.46782 -1.2 -8.76958 -5.37675e+06 -3.53608e+06 -3.90348e+06 -816854 538529 -243503
175 1 Mg 2.34119 122.09 3.07491 1.2 -7.99186 -1.60732e+06 4.27089e+06 -646585 -1.12236e+06 3.08224e+06 2.76567e+06
176 3 O 3.70647 113.002 2.96859 -1.2 -8.31013 -3.8598e+06 -6.26489e+06 -2.82405e+06 -173628 -677500 -2.53109e+06
177 1 Mg 2.46298 119.071 4.55506 1.2 -8.73152 1.93005e+06 1.08689e+06 347654 1.7831e+06 -185832 1.28933e+06
178 2 Si 5.19866 120.955 4.51791 2.4 -33.5416 8.85228e+06 1.08287e+07 7.57988e+06 463627 372738 1.032e+06
179 3 O 3.57309 121.022 4.60444 -1.2 -8.8962 -219631 -4.5416e+06 -2.96341e+06 678812 -1.17409e+06 -1.2592e+06
180 3 O 6.11346 117.064 4.53673 -1.2 -8.75086 -4.32638e+06 -4.65466e+06 -3.29446e+06 -526183 -967261 -3.11031e+06
181 3 O 5.87732 120.21 3.35968 -1.2 -9.08071 -3.99059e+06 -3.32018e+06 -2.77745e+06 64050.4 -51139.8 -1.64127e+06
182 3 O 5.67805 120.217 5.98692 -1.2 -8.53666 -3.44998e+06 -2.23691e+06 -50898.2 -346841 280297 -1.42903e+06
183 1 Mg 4.79883 116.813 3.23115 1.2 -8.19802 -571033 4.76099e+06 -2.49708e+06 1.23305e+06 -2.40206e+06 3.07992e+06
184 1 Mg 4.55585 113.482 4.68414 1.2 -8.65276 3.31133e+06 1.16495e+06 623401 -708530 -100958 525697
185 2 Si 6.71953 115.558 4.75187 2.4 -34.5581 6.24002e+06 1.0779e+07 6.39692e+06 498371 -728799 2.06519e+06
186 3 O 3.48725 115.561 4.60958 -1.2 -8.59812 -4.43918e+06 -3.18376e+06 -3.20239e+06 442187 -847737 -2.0145e+06
187 3 O 5.83463 111.839 4.70826 -1.2 -9.27425 -3.20227e+06 -3.81316e+06 -2.7589e+06 712984 -869517 -1.26228e+06
188 3 O 6.12387 114.718 3.58905 -1.2 -7.92261 -6.84044e+06 -3.75747e+06 -2.1931e+06 -196444 -508099 -1.67037e+06
189 1 Mg 4.64426 116.522 0.079483 1.2 -7.69128 230324 3.5792e+06 -11856.9 822834 485213 -1.5389e+06
190 3 O 6.05248 115.004 6.08832 -1.2 -9.01893 -3.08278e+06 -3.3284e+06 -4.7383e+06 435796 -675916 -1.28098e+06
191 1 Mg 4.67718 119.682 1.68183 1.2 -8.40617 2.93375e+06 1.33635e+06 1.9918e+06 -712138 -85618.5 326313
192 2 Si 2.7284 117.601 1.70316 2.4 -33.3259 6.80774e+06 1.40713e+07 7.2726e+06 479423 774379 1.63896e+06
193 3 O 5.93199 117.342 1.71839 -1.2 -9.08778 -1.32159e+06 -4.30956e+06 -3.28028e+06 1.04569e+06 748223 -535338
194 3 O 3.81388 121.538 1.76858 -1.2 -8.68153 -2.75096e+06 -583437 -3.33984e+06 705815 1.33896e+06 -904289
195 3 O 3.3628 118.393 0.482198 -1.2 -9.49935 -2.8099e+06 -2.00788e+06 -2.94443e+06 -111493 -1.13225e+06 -621002
196 3 O 3.41459 118.36 3.01181 -1.2 -8.95166 -2.90225e+06 -2.78521e+06 -2.34472e+06 740109 1.52541e+06 -416223
197 1 Mg 2.3711 122.035 0.129678 1.2 -8.09954 -471729 2.93153e+06 -838932 -1.15564e+06 -2.57735e+06 -1.1827e+06
198 1 Mg 7.03825 125.02 1.34683 1.2 -8.29084 1.56555e+06 545255 1.95681e+06 321220 -253700 1.34223e+06
199 2 Si 4.43792 123.185 1.68573 2.4 -33.3168 4.23662e+06 1.18191e+07 8.9898e+06 633032 -560034 2.65318e+06
200 3 O 5.93 123.064 1.58791 -1.2 -9.35632 -3.65271e+06 -4.1536e+06 -4.54116e+06 -686927 -1.29703e+06 -1.70696e+06
201 3 O 3.25367 126.764 1.43108 -1.2 -8.8511 -3.74942e+06 -818283 -2.66957e+06 -2.38776e+06 -458716 -309658
202 3 O 3.84249 123.691 0.275732 -1.2 -9.08351 -4.04333e+06 -2.84248e+06 -1.35725e+06 228384 293676 -884070
203 1 Mg 2.31907 132.655 2.86719 1.2 -7.57859 -680898 2.98818e+06 243803 -203058 997408 1.47086e+06
204 3 O 3.71652 123.864 2.92618 -1.2 -9.09718 -3.38084e+06 -3.61481e+06 -2.82432e+06 -855792 -661545 -1.6688e+06
205 1 Mg 2.30837 129.669 4.27727 1.2 -8.79775 3.40158e+06 855236 2.53677e+06 532325 461628 265930
206 2 Si 4.87163 131.429 4.29806 2.4 -34.6744 5.52756e+06 9.23934e+06 8.63826e+06 1.00479e+06 1.49489e+06 1.11981e+06
207 3 O 3.33696 131.592 4.25821 -1.2 -9.06315 -4.86366e+06 -2.57596e+06 -4.07704e+06 -271185 369442 -852340
208 3 O 6.01599 127.738 4.30058 -1.2 -8.49474 -3.68437e+06 -2.88713e+06 -2.01379e+06 -75622.2 -638966 -1.77347e+06
209 3 O 5.5052 130.786 3.10253 -1.2 -8.40999 -5.00184e+06 -4.16716e+06 -5.83862e+06 125114 -210929 -2.19142e+06
210 3 O 5.51368 130.807 5.63831 -1.2 -8.22864 -2.28409e+06 -2.44568e+06 -1.70891e+06 -189865 873413 -717288
211 1 Mg 4.56792 127.241 2.84455 1.2 -8.4366 -674189 3.6883e+06 341240 651336 -1.52651e+06 2.22145e+06
212 1 Mg 4.65963 124.395 4.45688 1.2 -8.64232 2.80262e+06 525142 244705 -1.39556e+06 -825636 -778861
213 2 Si 6.74103 126.24 4.26719 2.4 -34.3678 3.69857e+06 1.18707e+07 8.21863e+06 -606972 610262 553750
214 3 O 3.44609 126.394 4.3132 -1.2 -8.92964 -6.72524e+06 -4.97988e+06 -4.03299e+06 -112808 1.07405e+06 -1.04391e+06
215 3 O 5.93719 122.386 4.53382 -1.2 -8.83235 -4.30782e+06 -4.41243e+06 -3.06648e+06 1.11677e+06 1.53937e+06 -2.84787e+06
216 3 O 6.0016 125.604 3.02495 -1.2 -8.61248 -3.85503e+06 -4.39368e+06 -3.57456e+06 33164.1 528641 -1.18443e+06
217 1 Mg 4.69294 127.281 -0.215102 1.2 -7.99985 -1.27087e+06 2.33996e+06 515952 -31350.9 128686 -1.6313e+06
218 3 O 6.07779 125.441 5.55397 -1.2 -8.42769 -3.36865e+06 -3.04689e+06 -1.11604e+06 -493698 -856129 -1.34576e+06
219 1 Mg 4.54669 130.37 1.32 1.2 -8.54085 1.53234e+06 -140193 3.10251e+06 -723746 -60794.1 552630
220 2 Si 2.56638 128.413 1.40011 2.4 -33.3445 1.11474e+07 9.07562e+06 1.01744e+07 -117946 1.07257e+06 1.15212e+06
221 3 O 5.71431 128.172 1.30519 -1.2 -8.9996 -140662 -2.49419e+06 -4.28099e+06 1.28884e+06 796691 15339
222 3 O 3.78982 132.243 1.60201 -1.2 -9.29726 -3.49132e+06 -6.41595e+06 -4.87234e+06 1.19282e+06 453245 696539
223 3 O 3.26224 129.097 0.170191 -1.2 -9.05752 -4.5562e+06 -896665 -3.83723e+06 819173 -1.96866e+06 -472231
224 3 O 3.32827 129.089 2.68447 -1.2 -8.73667 -3.62749e+06 -1.5589e+06 -3.03611e+06 159136 1.75893e+06 -726428
225 1 Mg 2.47276 132.8 -0.0307275 1.2 -7.48933 -693021 2.92108e+06 312953 -999467 -1.19788e+06 -1.60305e+06
226 1 Mg 7.14152 135.467 1.36892 1.2 -8.11985 1.15812e+06 -213053 3.2012e+06 1.25955e+06 313482 -215097
227 2 Si 4.4322 133.684 1.52764 2.4 -32.745 3.28948e+06 9.05101e+06 8.60454e+06 -383598 -401910 -1.60782e+06
228 3 O 6.00367 133.573 1.31924 -1.2 -9.82099 -1.92822e+06 -3.93872e+06 -4.11647e+06 -583223 -271434 85623.9
229 3 O 3.45585 137.307 1.11417 -1.2 -9.09584 -2.24066e+06 -3.67832e+06 -3.2206e+06 -1.28859e+06 581534 -1.30994e+06
230 3 O 3.75059 134.301 0.168248 -1.2 -9.12248 -3.40148e+06 -4.18882e+06 -1.82654e+06 -567339 620569 7522.21
231 1 Mg 2.40714 142.743 2.57616 1.2 -7.72089 -1.05556e+06 4.19272e+06 -471868 -422335 1.12291e+06 1.54281e+06
232 3 O 3.775 134.418 2.6749 -1.2 -9.47796 -2.33074e+06 -5.40805e+06 -4.79364e+06 1.39499e+06 -29443.9 -1.57549e+06
233 1 Mg 2.35568 139.931 4.23795 1.2 -8.13875 2.55568e+06 -241380 2.50314e+06 -9519.33 95336.9 70742.5
234 2 Si 5.02922 142.061 4.33806 2.4 -32.8769 4.7803e+06 1.11003e+07 6.46397e+06 176390 -570268 1.96477e+06
235 3 O 3.48242 142.181 4.16596 -1.2 -9.81402 -2.9425e+06 -3.9143e+06 -1.98442e+06 131880 -34599.1 -536484
236 3 O 6.05512 138.217 4.30835 -1.2 -9.2773 -2.83933e+06 -4.14891e+06 -3.86384e+06 -1.22809e+06 1.13629e+06 -868699
237 3 O 5.72373 141.195 3.07317 -1.2 -8.90296 -2.32023e+06 -2.30508e+06 -1.6738e+06 -702399 -1.00743e+06 -513479
238 3 O 5.6682 141.416 5.55517 -1.2 -9.37167 -1.57013e+06 -5.30924e+06 -6.7475e+06 -372615 838978 1.71409e+06
239 1 Mg 4.84093 137.514 2.66603 1.2 -7.50144 -62489.2 3.37198e+06 1.52401e+06 843648 -1.15069e+06 2.33821e+06
240 1 Mg 4.7821 134.947 4.45133 1.2 -7.63862 -21991 1.26122e+06 3.37791e+06 -1.36459e+06 -614320 109758
241 2 Si 6.80471 136.751 4.45476 2.4 -32.0805 3.93949e+06 8.20633e+06 9.37998e+06 -676813 -703528 633291
242 3 O 3.5934 136.902 4.36313 -1.2 -9.97189 -2.81031e+06 -3.75571e+06 -3.76639e+06 -380829 -2.65036e+06 -1.66759e+06
243 3 O 5.55537 132.955 4.33236 -1.2 -9.00501 -1.72185e+06 -3.70567e+06 -1.51922e+06 1.25702e+06 157292 -653336
244 3 O 6.25703 136.075 3.11615 -1.2 -9.50148 -3.09364e+06 -4.35213e+06 -2.88571e+06 597800 851066 -2.06795e+06
245 1 Mg 4.80022 137.939 -0.252708 1.2 -8.00563 -1.55675e+06 4.0312e+06 -692036 613443 1.13354e+06 -230578
246 3 O 5.94805 136.065 5.61187 -1.2 -9.83993 -2.08257e+06 -3.26061e+06 -5.19204e+06 422714 -1.11276e+06 -357072
247 1 Mg 4.70349 140.744 1.2767 1.2 -8.20291 1.31115e+06 781553 3.39042e+06 -563242 166740 134485
248 2 Si 2.67269 138.799 1.19107 2.4 -33.2568 3.07055e+06 9.71194e+06 8.79034e+06 -1.36276e+06 -85886.7 2.94702e+06
249 3 O 5.96066 138.697 1.23187 -1.2 -9.52008 -5.86874e+06 -3.93783e+06 -4.48764e+06 -463292 -583763 -2.08891e+06
250 3 O 3.80114 142.577 1.19222 -1.2 -9.45912 -4.43382e+06 -4.6994e+06 -3.78259e+06 868798 734161 -1.05919e+06
251 3 O 3.38442 139.46 -0.0649923 -1.2 -9.23479 -3.27399e+06 -4.28686e+06 -3.46586e+06 20172.1 -423068 206896
252 3 O 3.28325 139.515 2.49749 -1.2 -8.94256 -4.29731e+06 -1.35305e+06 -1.92867e+06 269205 31405.5 -1.30136e+06
253 1 Mg 2.48066 143.005 -0.362663 1.2 -7.47512 -855335 3.27397e+06 -644174 -853817 -2.74726e+06 -734842
254 1 Mg 7.4928 146.065 1.09604 1.2 -7.65574 1.07817e+06 1.43053e+06 2.2652e+06 1.08322e+06 197037 -389204
255 2 Si 4.46429 144.06 1.21487 2.4 -33.1774 6.66768e+06 7.52833e+06 9.2745e+06 716323 -336142 1.47548e+06
256 3 O 5.98368 143.837 1.28627 -1.2 -9.12836 -2.71221e+06 -4.4029e+06 -4.00221e+06 -1.89788e+06 -208110 -1.19178e+06
257 3 O 3.29609 148.116 1.25595 -1.2 -9.60333 -4.56479e+06 -1.17322e+06 -3.71905e+06 -2.23002e+06 -1.02348e+06 2.54029e+06
258 3 O 3.79219 144.747 -0.0853594 -1.2 -9.54671 -3.54846e+06 -2.06167e+06 -2.52975e+06 178565 1.41325e+06 -77696.8
259 1 Mg 1.89478 153.421 1.33162 1.2 -7.55728 -2.50134e+06 -626269 3.04609e+06 964299 -1.0436e+06 1.55777e+06
260 3 O 3.80701 144.821 2.44443 -1.2 -9.21756 -5.05073e+06 -1.78927e+06 -2.23032e+06 -326423 -448883 -1.46383e+06
261 1 Mg 1.99975 150.651 4.23804 1.2 -8.15644 2.66573e+06 2.5996e+06 1.03985e+06 -867564 1.21586e+06 985077
262 2 Si 4.01365 151.991 2.37133 2.4 -33.5015 7.31161e+06 1.034e+07 7.22402e+06 -2.33703e+06 -1.46435e+06 -98225
263 3 O 3.26399 153.425 2.61885 -1.2 -8.10119 -3.69101e+06 496702 -3.49768e+06 -522630 1.0491e+06 -408662
264 3 O 6.33177 148.743 3.73889 -1.2 -8.75925 -3.1501e+06 -4.44093e+06 -2.92852e+06 -141246 -1.01056e+06 1.1063e+06
265 3 O 5.03732 152.41 1.23618 -1.2 -8.87032 -3.74675e+06 -2.84515e+06 -4.87042e+06 1.85912e+06 2.5006e+06 -1.16467e+06
266 3 O 4.7422 151.416 3.64842 -1.2 -8.70039 -2.33093e+06 -4.72443e+06 -3.25061e+06 -1.2119e+06 -103343 -375520
267 1 Mg 4.83858 147.932 2.31613 1.2 -7.41693 -1.91654e+06 2.86713e+06 -188430 1.17867e+06 -2.44807e+06 720658
268 1 Mg 4.69686 145.436 4.15214 1.2 -8.26525 1.88212e+06 722313 2.50524e+06 -907286 -301929 927539
269 2 Si 6.87628 147.235 3.92985 2.4 -33.3622 6.51896e+06 1.16772e+07 7.89142e+06 522135 553847 -223948
270 3 O 3.72913 147.314 4.04148 -1.2 -9.45764 -1.87862e+06 -4.72984e+06 -2.38922e+06 1.53229e+06 -105930 902043
271 3 O 5.74786 143.507 4.3511 -1.2 -9.12523 -1.43143e+06 -4.33161e+06 -2.83091e+06 553153 -354124 734371