ITEM: TIMESTEP
61100
ITEM: NUMBER OF ATOMS
5600
ITEM: BOX BOUNDS xy xz yz pp pp pp
0.0000000000000000e+00 7.1234999999999999e+00 0.0000000000000000e+00
0.0000000000000000e+00 2.0198500000000001e+02 2.3744999999999998e+00
0.0000000000000000e+00 1.1958400000000000e+02 0.0000000000000000e+00
ITEM: ATOMS id type element xu yu zu q c_pe c_s[1] c_s[2] c_s[3] c_s[4] c_s[5] c_s[6]
1 1 Mg -1.46394 48.4767 -1.0968 1.2 -7.77454 -831541 -558525 1.8135e+06 319562 -196122 -1.12886e+06
2 1 Mg 3.1119 50.0308 2.12743 1.2 -7.5295 -4.32505e+06 5.79806e+06 -2.12222e+06 587017 499373 -1.39049e+06
3 2 Si 1.01216 49.7704 0.184205 2.4 -32.5823 7.49399e+06 1.32503e+07 4.24368e+06 -1.46782e+06 1.2617e+06 1.68507e+06
4 3 O 2.39734 49.013 0.586578 -1.2 -8.86183 -2.43173e+06 -3.9233e+06 -3.39871e+06 -1.36308e+06 -1.80639e+06 1.47583e+06
5 3 O -1.24171 52.8287 1.63898 -1.2 -9.10549 -659716 -4.82278e+06 -1.84646e+06 -564607 -1.37111e+06 -840417
6 3 O 0.414956 48.9266 -1.03675 -1.2 -9.09455 -3.73529e+06 -1.54081e+06 -2.17869e+06 1.3633e+06 -895834 1.2824e+06
7 1 Mg -2.13909 58.6794 2.91934 1.2 -7.40326 -936460 5.01979e+06 -1.66934e+06 -2.10177e+06 1.4228e+06 1.70571e+06
8 3 O 0.0785694 49.9923 1.39866 -1.2 -9.37943 -5.77761e+06 -5.82657e+06 -1.56639e+06 -2.3136e+06 -166188 41412.4
9 1 Mg -2.06136 55.9615 4.60585 1.2 -8.15913 1.42384e+06 1.65644e+06 -1.06747e+06 1.12268e+06 -1.23963e+06 3.23734e+06
10 2 Si 0.562449 57.7781 4.73709 2.4 -33.0712 6.08147e+06 1.34554e+07 6.05643e+06 450609 2.01608e+06 989880
11 3 O -0.973103 57.9472 4.54047 -1.2 -9.4636 -2.91867e+06 -5.76302e+06 -1.02541e+06 174016 2.65867e+06 -502642
12 3 O 1.81095 53.2242 4.63542 -1.2 -9.13021 -3.41638e+06 -3.92876e+06 1.59211e+06 -772023 325232 969615
13 3 O 1.03586 56.6618 3.65707 -1.2 -8.90229 -4.69807e+06 -3.74944e+06 -902582 173180 -968773 -1.90777e+06
14 3 O 1.45595 57.323 6.03936 -1.2 -9.22427 -813253 -2.66307e+06 -2.65889e+06 -1.08936e+06 838384 -1.74668e+06
15 1 Mg 0.486765 52.534 2.64061 1.2 -7.51115 311689 4.19184e+06 1.08348e+06 238655 -515026 2.01571e+06
16 1 Mg 0.916469 49.0276 2.97448 1.2 -7.55026 581968 2.88163e+06 -3.62388e+06 -466746 123193 1.12191e+06
17 2 Si 2.54336 51.8022 4.4853 2.4 -32.6977 5.12782e+06 1.30527e+07 3.30283e+06 601502 -95221.2 781673
18 3 O -0.740702 51.9621 4.41006 -1.2 -9.42411 -4.84456e+06 -5.5927e+06 710566 1.38507e+06 -125554 8425.1
19 3 O 2.62712 48.1104 3.17512 -1.2 -6.78754 15321.1 -294487 -866334 -85126.7 -164482 -1.01786e+06
20 3 O 1.87775 50.9496 3.28064 -1.2 -9.52546 -3.40791e+06 -3.96199e+06 -3.72884e+06 -704757 1.47029e+06 -389429
21 1 Mg 0.124289 53.6484 -0.0764937 1.2 -7.65963 836109 3.60115e+06 -779743 1.09284e+06 2.00313e+06 194969
22 3 O 1.89349 50.8869 5.71774 -1.2 -10.8037 -2.38369e+06 -4.78918e+06 -5.04058e+06 2.09859e+06 -975784 308877
23 1 Mg 0.42292 56.1433 1.86976 1.2 -8.13655 1.87268e+06 1.0968e+06 1.7898e+06 -881286 -683400 -483558
24 2 Si -1.9514 54.2506 1.67665 2.4 -33.8964 4.85709e+06 1.04806e+07 1.1859e+07 -399296 1.67924e+06 2.05507e+06
25 3 O 1.23493 54.2152 1.66228 -1.2 -9.56747 -3.50054e+06 -1.88932e+06 -3.91722e+06 -393215 1.81917e+06 -1.07585e+06
26 3 O -0.72417 58.1686 1.51783 -1.2 -9.52825 963095 -8.8512e+06 -3.40292e+06 -118189 -63228.4 -590194
27 3 O -1.48894 54.9229 0.211024 -1.2 -8.23565 -3.41217e+06 -4.2592e+06 -691218 -926251 -1.98583e+06 -2.29488e+06
28 3 O -1.36564 55.1579 2.9098 -1.2 -8.4313 -3.57598e+06 -1.74045e+06 -59266.9 620611 -150635 -53296.6
29 1 Mg -2.49111 58.665 0.146101 1.2 -7.36842 -534394 5.34778e+06 -1.07308e+06 -745820 -1.40577e+06 154534
30 1 Mg 2.34253 61.5183 1.5765 1.2 -9.04117 2.25972e+06 -619834 1.38503e+06 208784 -865586 1.43463e+06
31 2 Si -0.210639 59.6121 1.53094 2.4 -33.6157 3.59178e+06 1.0071e+07 7.65339e+06 -43354.2 1.61785e+06 1.92985e+06
32 3 O 1.33859 59.8461 1.66522 -1.2 -9.15079 -4.18216e+06 -3.8779e+06 -6.00083e+06 -1.3266e+06 -288952 -117347
33 3 O -1.37354 63.5316 1.5415 -1.2 -8.48177 -3.6604e+06 -5.66783e+06 -3.23242e+06 -844507 412902 406590
34 3 O -0.892506 60.2125 0.23477 -1.2 -8.46003 -3.3654e+06 -4.47152e+06 -5.4529e+06 302860 1.34394e+06 -1.48404e+06
35 1 Mg -2.12529 69.0637 3.03831 1.2 -7.34817 -2.10479e+06 5.27428e+06 -2.49692e+06 -1.00381e+06 2.33415e+06 2.04832e+06
36 3 O -0.987039 60.3942 2.68707 -1.2 -8.59617 -6.20361e+06 -2.99216e+06 -4.28684e+06 -146643 -323439 -668654
37 1 Mg -2.03266 66.2588 4.75015 1.2 -8.14882 2.34831e+06 1.26453e+06 651378 1.02861e+06 -298479 1.37409e+06
38 2 Si 0.572588 68.2244 4.57417 2.4 -32.4617 2.59338e+06 1.27868e+07 6.9733e+06 256187 -1.47745e+06 1.78662e+06
39 3 O -0.976128 68.3367 4.70201 -1.2 -10.1283 -2.47903e+06 -4.87256e+06 -2.59714e+06 596965 70801.7 -384775
40 3 O 1.50905 64.4542 4.81096 -1.2 -9.09628 -1.56623e+06 -3.85313e+06 -3.61494e+06 -472517 530472 -441827
41 3 O 1.21668 67.5037 3.25134 -1.2 -9.04615 -592488 -4.65121e+06 -325625 -535448 -585646 -267276
42 3 O 1.1947 67.5227 5.81462 -1.2 -9.45963 -2.64504e+06 -3.20849e+06 -2.00039e+06 -242032 -910882 -824354
43 1 Mg 0.0872731 63.9328 3.30456 1.2 -7.90678 -292216 4.06873e+06 32810.5 1.28955e+06 -977656 2.62747e+06
44 1 Mg -0.0148186 61.0876 4.33587 1.2 -8.62317 2.53452e+06 -200489 3.10542e+06 -1.31808e+06 -531032 764436
45 2 Si 2.11067 62.9047 4.75883 2.4 -33.7633 5.06501e+06 1.11982e+07 8.97619e+06 -770749 1.07015e+06 2.06786e+06
46 3 O -1.0828 62.8251 4.64562 -1.2 -9.20482 -2.61244e+06 -3.89215e+06 -4.95336e+06 733336 -230025 670875
47 3 O 1.2092 59.1959 4.29185 -1.2 -8.99884 -3.02761e+06 -3.81656e+06 -1.51013e+06 -375715 -379588 745533
48 3 O 1.40575 62.2876 3.38961 -1.2 -8.66913 -3.63583e+06 -2.71735e+06 -1.68474e+06 251744 784498 -440819
49 1 Mg 0.0801616 63.8343 0.173555 1.2 -8.35185 368545 4.23503e+06 421514 402659 1.32937e+06 -1.26913e+06
50 3 O 1.45284 62.2666 5.98231 -1.2 -8.5051 -5.96849e+06 -5.29247e+06 -2.26006e+06 -936839 -394081 565172
51 1 Mg 0.0598067 66.685 1.46355 1.2 -8.22371 313261 1.01714e+06 3.27708e+06 -1.09494e+06 749587 960042
52 2 Si -2.01434 64.9604 1.76362 2.4 -33.5269 6.89545e+06 1.09408e+07 8.13049e+06 56101 -256906 2.32096e+06
53 3 O 1.16974 64.8795 1.74882 -1.2 -9.42771 -2.6178e+06 -4.26305e+06 -1.77481e+06 1.16981e+06 1.22089e+06 -1.22148e+06
54 3 O -0.912712 68.5071 1.61589 -1.2 -9.70524 -2.20286e+06 -4.27041e+06 -1.79473e+06 1.5276e+06 85706.2 -1.14978e+06
55 3 O -1.4054 65.6843 0.436223 -1.2 -8.76591 -3.13469e+06 -6.46352e+06 -1.40283e+06 -489460 -911678 818293
56 3 O -1.20324 65.5065 3.09151 -1.2 -9.21785 -3.03796e+06 -3.41166e+06 -913804 428389 2.0935e+06 -1.69094e+06
57 1 Mg -2.35167 69.182 0.17561 1.2 -7.71429 -1.58549e+06 4.69568e+06 -1.47578e+06 -642313 -687823 -544099
58 1 Mg 2.38501 72.0944 1.2918 1.2 -8.18258 2.33994e+06 2.71845e+06 869016 625643 -625452 654237
59 2 Si -0.224195 70.0274 1.54957 2.4 -32.5574 5.68896e+06 1.39108e+07 5.06867e+06 -427059 1.61331e+06 1.6619e+06
60 3 O 1.35483 69.9986 1.61586 -1.2 -9.63869 -1.08168e+06 -4.60136e+06 -4.09015e+06 161732 817855 -1.35436e+06
61 3 O -1.28109 74.0076 1.31953 -1.2 -9.54515 -2.24851e+06 -4.35136e+06 -2.11192e+06 -859369 830253 1.40261e+06
62 3 O -0.974806 70.7049 0.236854 -1.2 -9.07871 -2.52971e+06 -3.64084e+06 -2.50963e+06 -978821 1.67068e+06 -3.01699e+06
63 1 Mg -2.39846 79.8267 3.00068 1.2 -7.32073 -989548 3.5939e+06 -22944.7 -1.30646e+06 1.84602e+06 2.97776e+06
64 3 O -0.885641 70.867 2.6713 -1.2 -9.34774 -4.12139e+06 -2.27768e+06 -2.22283e+06 -160905 -382713 -949982
65 1 Mg -2.4703 76.9601 4.5155 1.2 -7.30578 2.09495e+06 2.24677e+06 1.77571e+06 565652 -392646 305294
66 2 Si 0.308074 79.0865 4.52716 2.4 -32.6874 1.21979e+06 1.12875e+07 7.81281e+06 1.85758e+06 11187.6 2.77646e+06
67 3 O -1.18966 79.1773 4.48894 -1.2 -9.68309 -3.47932e+06 -4.07614e+06 -4.11776e+06 1.32038e+06 169718 -697856
68 3 O 1.48376 74.9633 4.61622 -1.2 -9.21125 -3.27483e+06 -2.77538e+06 -3.75775e+06 -2.94025e+06 1.39686e+06 78271.3
69 3 O 0.831513 78.3632 3.18648 -1.2 -9.51927 -2.87316e+06 -1.02196e+06 -2.00262e+06 52627.3 -205338 691809
70 3 O 0.9293 78.3557 5.75481 -1.2 -9.62051 -3.47909e+06 -5.51192e+06 -1.67343e+06 257018 355072 49762.1
71 1 Mg 0.128144 74.5922 2.91745 1.2 -6.93695 -1.54006e+06 4.70605e+06 903808 162329 -885870 2.04192e+06
72 1 Mg -0.0891596 71.5284 4.56056 1.2 -7.61803 1.54208e+06 1.85812e+06 3.67804e+06 -363012 -143758 1.43875e+06
73 2 Si 2.2458 73.3758 4.44445 2.4 -32.4514 5.58969e+06 1.11754e+07 8.00845e+06 644486 737480 3.19394e+06
74 3 O -0.951404 73.552 4.57647 -1.2 -9.99289 -2.09178e+06 -2.56761e+06 -2.59628e+06 624427 253640 -1.07302e+06
75 3 O 1.24131 69.6965 4.44048 -1.2 -9.66163 -173295 -4.8977e+06 -3.13713e+06 -272863 119690 -1.10211e+06
76 3 O 1.55804 72.8555 3.09277 -1.2 -9.354 -656804 -2.43149e+06 -1.65316e+06 67498.6 1.37889e+06 -708479
77 1 Mg 0.124431 74.5613 0.0216956 1.2 -7.79425 -1.282e+06 5.38003e+06 -3.31736e+06 -24580.1 1.0365e+06 -2.78763e+06
78 3 O 1.54217 72.6953 5.64878 -1.2 -9.22597 -2.52855e+06 -4.62776e+06 -2.97546e+06 955222 -766683 973902
79 1 Mg 0.0968662 77.3343 1.42932 1.2 -8.00958 809311 1.73797e+06 2.85187e+06 -1.33102e+06 297258 1.92957e+06
80 2 Si -1.93775 75.4865 1.46869 2.4 -31.8984 3.25306e+06 1.2995e+07 7.59371e+06 345500 -209310 -744300
81 3 O 1.18341 75.3892 1.3385 -1.2 -10.1403 -711827 -5.10704e+06 -2.92829e+06 -358385 -53954.9 629666
82 3 O -1.0951 79.2959 1.52631 -1.2 -8.81252 -2.56109e+06 -5.74457e+06 -4.09368e+06 574029 -665346 868448
83 3 O -1.37133 76.2339 0.102782 -1.2 -8.65148 -3.49446e+06 -5.28022e+06 1.2335e+06 -980838 -11482.2 -472370
84 3 O -1.29997 76.1401 2.71025 -1.2 -10.2272 807822 -3.4267e+06 -2.59142e+06 -733534 -273524 -393707
85 1 Mg -2.58612 79.6773 -0.0556462 1.2 -8.00804 1.22499e+06 4.52336e+06 198738 -877153 -1.29074e+06 -291612
86 1 Mg 2.20873 82.6784 1.65526 1.2 -8.27483 2.19585e+06 1.41085e+06 131476 1.09198e+06 -136117 1.21595e+06
87 2 Si -0.492706 80.747 1.44819 2.4 -33.5962 5.15106e+06 1.10493e+07 5.33367e+06 637612 1.72059e+06 2.38431e+06
88 3 O 1.1401 80.7018 1.47634 -1.2 -9.33458 -1.11194e+06 -4.19131e+06 -1.42289e+06 -136829 925602 -354229
89 3 O -1.42307 84.4918 1.56403 -1.2 -9.51171 -3.83615e+06 -2.19611e+06 -2.21951e+06 -1.18006e+06 -187311 696156
90 3 O -1.10155 81.2131 0.10327 -1.2 -8.71252 -2.22016e+06 -5.34473e+06 -2.17123e+06 164181 -242348 36764.1
91 1 Mg -2.08378 90.2973 3.14343 1.2 -6.85021 -2.65305e+06 4.36159e+06 -3.03621e+06 653661 421849 1.51097e+06
92 3 O -0.986532 81.5404 2.68913 -1.2 -9.54217 -3.28058e+06 -4.58777e+06 -4.24865e+06 -465392 -96483.8 -2.67367e+06
93 1 Mg -2.14173 87.5027 4.56725 1.2 -7.01983 -342706 3.30508e+06 1.26484e+06 422826 -142663 -245974
94 2 Si 0.444826 89.4009 4.62127 2.4 -30.3269 1.16113e+06 1.38235e+07 5.43735e+06 -785251 -166008 -2.43842e+06
95 3 O -1.0822 89.5839 4.64918 -1.2 -11.2538 -2.84172e+06 -4.93239e+06 -1.55169e+06 169531 -586634 1.33201e+06
96 3 O 1.36027 85.6163 4.67328 -1.2 -9.71038 -2.26983e+06 -8.3556e+06 -2.95605e+06 572030 -197141 -275964
97 3 O 1.22727 88.6933 3.43931 -1.2 -10.374 1.45177e+06 -6.77697e+06 -2.24602e+06 -140700 -1.38538e+06 -353323
98 3 O 1.17872 88.7083 5.96154 -1.2 -10.2713 1.36929e+06 -4.62877e+06 -1.40345e+06 -370172 2.1158e+06 42835.2
99 1 Mg -0.0439315 85.0899 3.07005 1.2 -7.1932 -2.0824e+06 4.24566e+06 -955965 1.2367e+06 -1.59684e+06 2.60723e+06
100 1 Mg -0.255813 82.1778 4.30035 1.2 -8.23077 1.58778e+06 296096 1.83672e+06 -823952 -1.11221e+06 -271408
101 2 Si 1.94461 84.2298 4.69998 2.4 -32.6505 2.38938e+06 9.56037e+06 7.49015e+06 1.26666e+06 1.11126e+06 2.64472e+06
102 3 O -1.29266 84.159 4.55142 -1.2 -9.67113 -3.0456e+06 -4.7886e+06 -3.95237e+06 1.17809e+06 -392146 -656667
103 3 O 1.04133 80.5655 4.70018 -1.2 -9.21311 -1.48431e+06 -4.0303e+06 -2.5315e+06 204873 -204261 71161.2
104 3 O 1.21579 83.4904 3.19862 -1.2 -8.77099 -2.38968e+06 -1.81459e+06 -917190 223307 1.01767e+06 427314
105 1 Mg -0.0836747 84.9527 0.162975 1.2 -7.21009 -1.01873e+06 5.13442e+06 -2.57287e+06 1.52595e+06 2.41322e+06 -2.1699e+06
106 3 O 1.24576 83.5768 5.89881 -1.2 -8.97934 -4.60435e+06 -6.49706e+06 -1.72142e+06 -344212 923853 402593
107 1 Mg 0.14906 87.9703 1.72607 1.2 -7.04017 -342699 3.44069e+06 1.10302e+06 -285864 -9326.81 162537
108 2 Si -2.08097 86.0358 1.63682 2.4 -31.1365 3.92253e+06 1.5066e+07 7.05394e+06 521200 400638 -1.28875e+06
109 3 O 1.05425 85.9295 1.61488 -1.2 -10.2505 1.62543e+06 -6.35912e+06 -2.70274e+06 225476 1.71604e+06 1.11242e+06
110 3 O -0.714433 89.8488 1.64652 -1.2 -10.2284 -1.92416e+06 -4.11598e+06 144979 1.85879e+06 313963 -1.63608e+06
111 3 O -1.64162 86.6839 0.149964 -1.2 -9.37349 -3.80359e+06 -5.05629e+06 608183 25243.7 -2.63907e+06 442287
112 3 O -1.33451 86.7485 2.83777 -1.2 -10.877 -502711 -4.04566e+06 -97142 1.26532e+06 1.12059e+06 176848
113 1 Mg -2.23561 90.1438 0.208947 1.2 -7.02438 -1.9324e+06 6.13996e+06 -2.51425e+06 214955 142488 -418820
114 1 Mg 2.45936 93.1364 1.74426 1.2 -7.71533 481031 2.31499e+06 770492 309090 387009 385339
115 2 Si -0.0505989 91.4187 1.60678 2.4 -31.6439 3.44623e+06 1.49432e+07 3.94177e+06 -1.28725e+06 -172302 2.2465e+06
116 3 O 1.49498 91.1951 1.72351 -1.2 -10.3993 -1.06488e+06 -5.16517e+06 -3.14063e+06 -1.33442e+06 1.12289e+06 -487178
117 3 O -1.16243 95.2183 1.80754 -1.2 -9.32884 -1.71818e+06 -8.01751e+06 -2.44578e+06 -645027 610518 -379985
118 3 O -0.84617 92.1852 0.493538 -1.2 -9.85425 -1.28751e+06 -4.23555e+06 -2.9515e+06 -102356 954352 -707392
119 1 Mg -2.47654 101.104 3.30762 1.2 -7.40362 -3.47381e+06 3.17011e+06 -605447 -2.52649e+06 2.48044e+06 1.69344e+06
120 3 O -0.6838 92.0872 2.94128 -1.2 -9.52431 -948715 -5.00254e+06 -1.41732e+06 350997 -938847 -5070.07
121 1 Mg -2.21024 98.1496 4.5871 1.2 -8.28749 1.19313e+06 1.65912e+06 2.3756e+06 37328.8 485221 -1.42595e+06
122 2 Si 0.277513 99.9737 4.71954 2.4 -32.3077 616856 1.00159e+07 6.77329e+06 -1.05567e+06 -2.08284e+06 -1.30253e+06
123 3 O -1.15714 99.9748 4.76955 -1.2 -9.89437 -7.32375e+06 -4.78899e+06 -1.90721e+06 974872 -2.36535e+06 1.23246e+06
124 3 O 1.6736 96.0778 4.75291 -1.2 -9.22467 -3.29107e+06 -6.74869e+06 -2.90337e+06 -1.16564e+06 109025 -1.08867e+06
125 3 O 1.19908 99.4125 3.29116 -1.2 -8.85734 -510714 -3.39286e+06 -2.33408e+06 -863212 -1.4448e+06 441005
126 3 O 0.844481 98.9889 5.80342 -1.2 -8.90962 -3.44907e+06 -4.29696e+06 -1.61839e+06 -493441 -159712 1.82644e+06
127 1 Mg 0.177812 95.761 3.35189 1.2 -7.54194 -995840 4.45374e+06 -2.44657e+06 651531 -458657 2.10007e+06
128 1 Mg 0.352578 92.6945 4.7016 1.2 -7.35326 207704 1.46414e+06 2.01196e+06 -1.42212e+06 72477.9 238663
129 2 Si 2.30668 94.641 4.62065 2.4 -32.5193 3.01857e+06 1.13244e+07 6.72537e+06 168393 -861583 64139.2
130 3 O -0.88392 94.6969 4.58171 -1.2 -9.88543 -2.34894e+06 -5.32995e+06 -4.87696e+06 655780 62857.1 -271617
131 3 O 1.24206 90.8544 4.56472 -1.2 -10.0983 -1.16042e+06 -6.53978e+06 -1.84687e+06 1.91873e+06 161459 514885
132 3 O 1.63876 94.0313 3.35929 -1.2 -9.46294 -4.17614e+06 -4.48693e+06 -2.32155e+06 -743980 562752 -967426
133 1 Mg 0.172044 95.724 0.314947 1.2 -7.11 -2.13241e+06 4.65262e+06 -73918.2 973496 1.66635e+06 -1.82513e+06
134 3 O 1.60641 93.8673 5.88281 -1.2 -9.98573 -1.6998e+06 -3.39893e+06 -2.02868e+06 -217079 -1.30943e+06 236826
135 1 Mg 0.220624 98.5406 1.73875 1.2 -8.30735 2.1102e+06 1.19276e+06 176226 -846528 536598 -513240
136 2 Si -1.85379 96.6194 1.69184 2.4 -32.7208 4.41568e+06 1.17644e+07 4.80706e+06 -366824 504007 -1.11422e+06
137 3 O 1.298 96.6905 1.73532 -1.2 -9.78827 -1.49981e+06 -4.58681e+06 -2.08707e+06 -332170 -1.67582e+06 777339
138 3 O -1.01726 100.354 1.51293 -1.2 -9.03525 -3.40981e+06 -3.36285e+06 -2.86546e+06 114272 -501070 330776
139 3 O -1.13799 97.344 0.512579 -1.2 -9.67473 -2.88977e+06 -4.71056e+06 -3.83412e+06 275376 -372456 1.16328e+06
140 3 O -1.28552 97.2683 3.04233 -1.2 -8.94416 -2.76513e+06 -5.45828e+06 -3.55436e+06 303677 1.20716e+06 25691.3
141 1 Mg -2.41883 100.832 0.253385 1.2 -8.11873 -1.9936e+06 3.99498e+06 -2.08304e+06 -990607 -2.57878e+06 -1.52577e+06
142 1 Mg 6.94559 103.689 1.6578 1.2 -8.41252 1.41731e+06 1.96466e+06 1.00599e+06 1.22268e+06 -13229.4 454918
143 2 Si -0.44034 101.876 1.67498 2.4 -32.854 3.43569e+06 1.41671e+07 5.28896e+06 -182153 -211614 1.01662e+06
144 3 O 1.06983 101.937 1.72912 -1.2 -9.62512 -3.87565e+06 -6.47552e+06 -2.60703e+06 -1.27522e+06 509913 -273236
145 3 O 3.40981 105.723 1.60256 -1.2 -8.79011 -3.63314e+06 -5.47091e+06 -1.35552e+06 -574883 -672482 -1.03524e+06
146 3 O -1.14777 102.698 0.48438 -1.2 -9.16694 -4.1471e+06 -5.2481e+06 -2.06691e+06 302425 752976 -68326.6
147 1 Mg 2.38702 111.452 2.99139 1.2 -7.61626 -3.0307e+06 4.90897e+06 -3.84142e+06 -601695 3.8702e+06 1.5629e+06
148 3 O -1.10719 102.414 3.04845 -1.2 -9.55223 -2.59868e+06 -5.04498e+06 -63752.7 -1.09288e+06 504124 84897.5
149 1 Mg 2.47854 108.539 4.68526 1.2 -7.87876 1.49369e+06 2.1947e+06 1.10293e+06 1.04777e+06 -528286 -374338
150 2 Si 5.10182 110.383 4.531 2.4 -32.4956 5.75545e+06 1.28043e+07 628629 1.36762e+06 -1.52106e+06 641599
151 3 O 3.44796 110.488 4.46047 -1.2 -9.63338 -112120 -3.96811e+06 -1.55448e+06 -240317 -484846 520296
152 3 O 6.21075 106.724 4.53388 -1.2 -9.37466 17394.2 -2.88416e+06 -3.51227e+06 -902075 350020 -992817
153 3 O 5.69524 109.944 3.18516 -1.2 -9.29507 -3.30249e+06 -5.27122e+06 -3.92522e+06 -212314 241241 94554.4
154 3 O 5.66425 109.706 5.66142 -1.2 -9.76525 -3.1534e+06 -6.98633e+06 -5.08783e+06 -156506 -446795 3.54002e+06
155 1 Mg 4.73972 106.132 3.04592 1.2 -7.63821 -381364 5.1765e+06 -1.14013e+06 1.41113e+06 -1.63618e+06 1.82434e+06
156 1 Mg -0.140066 103.097 4.98261 1.2 -7.27167 996349 1.82643e+06 1.52463e+06 -307900 1.37594e+06 617216
157 2 Si 6.82638 105.176 4.61514 2.4 -32.2769 4.44919e+06 1.15894e+07 9.8239e+06 -559487 -197350 961554
158 3 O 3.63844 105.093 4.58263 -1.2 -10.1208 -1.51132e+06 -2.33286e+06 -3.22039e+06 129326 410412 -1.07839e+06
159 3 O 1.07494 101.284 4.87734 -1.2 -10.0496 -2.26051e+06 -7.48563e+06 -2.95691e+06 -199669 683963 -1.14156e+06
160 3 O 6.0909 104.535 3.29338 -1.2 -9.15839 -2.65183e+06 -3.77554e+06 142093 30282.2 1.46031e+06 -428146
161 1 Mg 4.82395 106.192 0.065654 1.2 -7.81382 -180013 5.46445e+06 -2.10152e+06 1.43213e+06 1.24002e+06 -391500
162 3 O 6.20601 104.592 5.99865 -1.2 -9.69587 -968323 -3.28276e+06 -1.98393e+06 836316 -661732 141802
163 1 Mg 4.74003 109.182 1.61216 1.2 -7.96413 2.04924e+06 3.48406e+06 38760.4 -1.35387e+06 -436864 -94335.3
164 2 Si 2.80697 107.247 1.60914 2.4 -33.3038 4.90935e+06 1.29213e+07 3.52667e+06 -532073 -1.17822e+06 -13904.7
165 3 O 6.00866 107.142 1.5106 -1.2 -9.23897 -2.03385e+06 -5.09645e+06 -2.35661e+06 1.11304e+06 -282553 6870.46
166 3 O 3.48701 111.099 1.58081 -1.2 -9.40443 -5.92601e+06 -4.496e+06 -3.15115e+06 1.58719e+06 2.01575e+06 -734109
167 3 O 3.48278 107.841 0.23174 -1.2 -9.34837 -3.43328e+06 -5.0808e+06 1.36509e+06 -170225 -910062 252068
168 3 O 3.43229 107.877 2.8109 -1.2 -9.55764 -3.16329e+06 -5.42744e+06 -2.29496e+06 -882411 -598738 -2.35091e+06
169 1 Mg 2.25698 111.751 0.0855062 1.2 -7.51123 -1.65947e+06 5.46109e+06 -3.58792e+06 236718 -2.20687e+06 -1.81044e+06
170 1 Mg 6.96651 114.491 1.5762 1.2 -8.41935 2.64004e+06 1.51543e+06 -771346 1.37048e+06 -341239 -424210
171 2 Si 4.27162 112.534 1.69707 2.4 -32.5244 5.21578e+06 1.5954e+07 5.01314e+06 -1.38126e+06 -1.05729e+06 -361067
172 3 O 5.84211 112.332 1.56901 -1.2 -9.56939 -955102 -7.09891e+06 -1.27585e+06 1.03713e+06 -1.10739e+06 83347.8
173 3 O 3.44544 116.468 1.74579 -1.2 -8.32474 -2.47696e+06 -5.87546e+06 -238201 -2.03968e+06 -490712 419956
174 3 O 3.76305 113.454 0.476711 -1.2 -9.14734 -868160 -4.03299e+06 1.20385e+06 226461 -120465 128344
175 1 Mg 2.31102 122.169 3.11284 1.2 -7.90122 -934753 4.83163e+06 -1.6073e+06 -752378 745607 1.70123e+06
176 3 O 3.60433 113.228 3.03301 -1.2 -9.09703 -1.00179e+06 -3.86381e+06 -49278.8 122912 -533547 1.55549e+06
177 1 Mg 2.34393 119.377 4.73572 1.2 -7.6036 673917 2.38753e+06 3.15133e+06 949470 -336295 -758411
178 2 Si 5.01958 121.152 4.53029 2.4 -32.7851 5.13456e+06 1.12787e+07 7.23669e+06 628264 -96568.8 -301437
179 3 O 3.45043 121.357 4.44751 -1.2 -9.73112 -2.13145e+06 -3.64501e+06 -3.5974e+06 -833605 -1.02023e+06 -225240
180 3 O 6.26424 117.264 4.65328 -1.2 -9.48943 -718881 -4.65807e+06 -2.31019e+06 -1.93598e+06 -158581 829538
181 3 O 5.77069 120.443 3.30608 -1.2 -9.05445 -3.54373e+06 -4.05599e+06 -2.08294e+06 -424263 -1.21398e+06 162746
182 3 O 5.68979 120.593 5.79317 -1.2 -9.68089 -913570 -3.35246e+06 -4.40349e+06 -119135 926198 2.33972e+06
183 1 Mg 4.95898 116.99 3.19352 1.2 -7.83587 -609576 5.37445e+06 -467042 -84562.2 -482901 14421
184 1 Mg 4.89302 113.996 4.58386 1.2 -8.34983 2.22019e+06 2.07893e+06 1.44522e+06 -295676 182324 -357846
185 2 Si 7.06583 115.788 4.63876 2.4 -33.4421 4.49901e+06 1.01214e+07 8.41991e+06 -1.6239e+06 493897 -584013
186 3 O 3.82263 115.871 4.65734 -1.2 -9.68497 -5.01222e+06 -3.52941e+06 -4.4182e+06 -436453 414488 1.66126e+06
187 3 O 5.7106 112.01 4.70506 -1.2 -9.28636 -2.46979e+06 -3.99735e+06 -502055 1.4354e+06 -148361 466752
188 3 O 6.2602 115.163 3.30257 -1.2 -8.63414 -3.42603e+06 -2.70105e+06 -2.31837e+06 1.41662e+06 1.788e+06 877115
189 1 Mg 4.87798 117.068 -0.0207788 1.2 -7.94536 -1.59178e+06 4.83585e+06 -1.27954e+06 537809 1.56024e+06 -1.98345e+06
190 3 O 6.43772 115.083 5.82141 -1.2 -8.85095 -4.7003e+06 -3.73893e+06 -3.25542e+06 468604 245453 1.57249e+06
191 1 Mg 4.8601 119.894 1.55537 1.2 -8.70323 2.72469e+06 2.39112e+06 704511 344460 -573437 -765885
192 2 Si 2.66787 117.904 1.70056 2.4 -33.9003 6.63061e+06 1.4965e+07 4.40115e+06 -278072 886595 -1.38713e+06
193 3 O 5.91384 117.925 1.50431 -1.2 -9.39374 -5.2657e+06 -5.67644e+06 -1.1895e+06 -539484 534133 158626
194 3 O 3.80525 121.596 1.59409 -1.2 -8.78954 -4.92735e+06 -4.63647e+06 -1.03423e+06 29133.2 92560 1.81191e+06
195 3 O 3.39918 118.641 0.374957 -1.2 -8.7909 -3.56019e+06 -3.52745e+06 -1.33795e+06 811317 -2.06991e+06 785033
196 3 O 3.40999 118.645 2.9173 -1.2 -8.7601 -880005 -5.17896e+06 -1.29658e+06 489596 1.17381e+06 630631
197 1 Mg 2.42094 122.092 -0.0167605 1.2 -7.75085 -1.87679e+06 3.17958e+06 -684301 -2.30942e+06 -1.50784e+06 -3.12243e+06
198 1 Mg 6.98202 124.865 1.55071 1.2 -8.78227 1.23141e+06 1.52336e+06 1.80963e+06 1.76426e+06 -539689 -796333
199 2 Si 4.35287 123.142 1.46135 2.4 -33.3624 4.93161e+06 1.48909e+07 2.8049e+06 -1.63235e+06 -1.13358e+06 -464524
200 3 O 5.87967 122.988 1.63149 -1.2 -9.25693 -2.56559e+06 -6.46976e+06 -3.19425e+06 -1.65287e+06 -265665 -471340
201 3 O 3.40439 126.832 1.39909 -1.2 -8.11306 -2.77473e+06 -3.76527e+06 -2.75956e+06 -172541 -21426.7 1.54885e+06
202 3 O 3.66522 123.636 0.210592 -1.2 -9.27819 -3.27315e+06 -6.50308e+06 -5.82933e+06 260333 365446 1.42852e+06
203 1 Mg 2.14886 132.485 3.08338 1.2 -7.78204 1.13363e+06 2.92421e+06 278127 -116321 454161 813460
204 3 O 3.63517 124.111 2.62078 -1.2 -8.63199 -4.49841e+06 -4.08823e+06 -2.71918e+06 492213 -1.68766e+06 1.10944e+06
205 1 Mg 2.37623 129.613 4.56609 1.2 -8.48937 1.70296e+06 423041 2.49513e+06 100588 78369.6 1.92676e+06
206 2 Si 4.89808 131.492 4.79962 2.4 -34.5646 7.24214e+06 8.28043e+06 7.75612e+06 243652 707030 2.64087e+06
207 3 O 3.34055 131.617 4.62404 -1.2 -8.96452 -4.03356e+06 -1.87005e+06 -4.13161e+06 -753116 2.24875e+06 -440664
208 3 O 6.1133 127.905 4.52726 -1.2 -9.41364 -907148 -3.60732e+06 -3.08343e+06 -1.4985e+06 -71338.2 372478
209 3 O 5.43614 130.705 3.52947 -1.2 -8.35651 -4.26412e+06 -4.13217e+06 -3.7448e+06 321772 -1.12766e+06 -2.27432e+06
210 3 O 5.64247 131.016 6.00886 -1.2 -8.40347 -4.41069e+06 -3.60346e+06 -6.17351e+06 637413 247347 853506
211 1 Mg 4.76321 127.303 3.09136 1.2 -8.192 506079 4.32404e+06 -1.14478e+06 1.15247e+06 -1.19187e+06 1.63878e+06
212 1 Mg 4.59545 124.46 4.34849 1.2 -8.34544 1.94057e+06 616510 2.5463e+06 -928174 -678602 -1.6577e+06
213 2 Si 6.70848 126.318 4.63189 2.4 -32.884 7.74956e+06 1.0413e+07 6.86103e+06 -1.42904e+06 883749 -56257.1
214 3 O 3.69849 126.338 4.53709 -1.2 -9.22346 1.46742e+06 -3.09459e+06 -4.22896e+06 49095.1 134502 804452
215 3 O 5.65427 122.721 4.48569 -1.2 -9.03797 -2.10794e+06 -4.1554e+06 -2.32174e+06 1.06473e+06 813420 1.00518e+06
216 3 O 6.15632 125.669 3.24344 -1.2 -8.70534 -5.05681e+06 -3.27184e+06 -208766 911330 955452 1.20149e+06
217 1 Mg 4.88313 127.72 -0.0226348 1.2 -8.24441 165134 3.89293e+06 127804 1.86584e+06 1.65407e+06 -2.60842e+06
218 3 O 6.25669 125.709 5.8629 -1.2 -9.27419 -5.21661e+06 -4.51499e+06 -6.13362e+06 -468646 -463165 2.40952e+06
219 1 Mg 4.51678 130.346 1.8301 1.2 -8.50285 1.40143e+06 151094 2.23851e+06 -1.67027e+06 -539685 -565056
220 2 Si 2.7066 128.28 1.44933 2.4 -34.1522 6.74859e+06 1.14971e+07 8.54656e+06 -1.59743e+06 -938956 824146
221 3 O 5.90303 128.256 1.64299 -1.2 -8.87984 -2.56383e+06 -5.35612e+06 -3.07497e+06 -499349 -406753 -462642
222 3 O 3.67301 132.236 1.74508 -1.2 -8.91337 -3.97995e+06 -2.47808e+06 -3.7326e+06 1.68967e+06 66341.1 -107338
223 3 O 3.25152 128.888 0.0818074 -1.2 -8.74115 -3.69109e+06 -5.96258e+06 -3.00495e+06 381071 -1.25197e+06 1.78516e+06
224 3 O 3.34008 129.061 2.77202 -1.2 -8.80906 -6.2263e+06 -2.47232e+06 902762 -1.5047e+06 532120 -804729
225 1 Mg 2.30824 132.451 0.213465 1.2 -7.89045 -681147 3.23407e+06 -566210 -594615 -2.02378e+06 -2.40294e+06
226 1 Mg 7.21794 135.638 1.49563 1.2 -8.04976 1.89891e+06 366501 1.7252e+06 1.20862e+06 -712851 1.41782e+06
227 2 Si 4.4176 133.739 1.58019 2.4 -33.7751 4.53969e+06 8.70129e+06 1.15506e+07 1.11843e+06 131646 -1.20143e+06
228 3 O 5.92288 133.386 1.53303 -1.2 -9.25986 -4.14332e+06 -3.24463e+06 -4.92605e+06 -481277 263201 -40372.1
229 3 O 3.32907 137.551 1.49141 -1.2 -9.41758 -410406 -2.40936e+06 -3.29657e+06 -802554 -242173 -220788
230 3 O 3.81539 134.313 0.135973 -1.2 -8.51459 -3.70276e+06 -1.09582e+06 -1.85921e+06 723157 985170 -800414
231 1 Mg 2.24578 143.564 2.89358 1.2 -7.64646 -2.65661e+06 3.59847e+06 -1.94755e+06 -699188 1.91522e+06 377149
232 3 O 3.82765 134.569 2.7135 -1.2 -9.00708 -2.67354e+06 -4.31039e+06 -2.83567e+06 -505628 -61725.5 -1.66025e+06
233 1 Mg 2.47426 140.503 4.28649 1.2 -8.24154 124215 1.6022e+06 1.31415e+06 1.28136e+06 1.05763e+06 -1.43737e+06
234 2 Si 5.15168 142.333 4.31328 2.4 -32.821 6.32383e+06 9.11376e+06 5.3758e+06 1.08361e+06 1.47227e+06 -1.02158e+06
235 3 O 3.60904 142.612 4.28182 -1.2 -9.55419 -2.70581e+06 -2.85909e+06 -4.9996e+06 -131482 1.30677e+06 651313
236 3 O 6.1838 138.514 4.35697 -1.2 -9.17246 -4.15945e+06 -3.07864e+06 -2.78536e+06 -2.33123e+06 981107 739256
237 3 O 5.7632 141.539 3.18642 -1.2 -9.33224 -4.31462e+06 -2.93174e+06 -6.60455e+06 124310 -630608 -639740
238 3 O 5.92625 141.869 5.54262 -1.2 -8.93721 -2.97222e+06 -4.92657e+06 -4.69995e+06 -149262 -17942.4 2.14992e+06
239 1 Mg 4.78563 137.94 2.90104 1.2 -7.57457 -257422 4.28834e+06 187405 798028 -1.27003e+06 948024
240 1 Mg 4.78283 135.106 4.53595 1.2 -8.52626 406705 1.73201e+06 2.75757e+06 -1.29112e+06 701878 1.14583e+06
241 2 Si 6.81468 137.004 4.54421 2.4 -33.0658 1.02894e+07 8.65737e+06 9.99687e+06 1.14741e+06 -427706 -170784
242 3 O 3.64989 137.11 4.48909 -1.2 -9.19798 -926465 -2.94125e+06 -3.96276e+06 2.42199e+06 -700778 210954
243 3 O 5.56373 133.012 4.63056 -1.2 -8.82902 -1.97963e+06 -3.77738e+06 -2.95388e+06 1.46351e+06 -859049 212537
244 3 O 5.98992 136.237 3.29374 -1.2 -8.98259 -3.02916e+06 -1.56625e+06 -1.13588e+06 -128882 1.93684e+06 -1.02551e+06
245 1 Mg 5.01615 138.316 0.0105129 1.2 -7.16781 -2.75248e+06 3.76327e+06 -1.30662e+06 538516 791572 -1.9563e+06
246 3 O 5.99561 136.435 5.86935 -1.2 -8.70192 -3.16085e+06 -1.19498e+06 -3.03716e+06 642359 -2.3947e+06 273824
247 1 Mg 4.72736 140.914 1.51964 1.2 -8.08878 1.14845e+06 -961323 2.19386e+06 -1.47146e+06 -1.08543e+06 -1.36847e+06
248 2 Si 2.69334 139.122 1.48773 2.4 -32.4833 -1.59938e+06 1.15612e+07 1.0371e+07 -939743 -471237 -1.93501e+06
249 3 O 6.0412 139.178 1.3665 -1.2 -9.7813 -8.46808e+06 -5.24297e+06 -6.38516e+06 918231 -1.81443e+06 745550
250 3 O 3.73784 142.715 1.45267 -1.2 -9.44331 -3.69341e+06 -4.00329e+06 -4.25823e+06 768188 -1.46528e+06 396411
251 3 O 3.59897 139.883 0.35064 -1.2 -9.19325 -4.73568e+06 -3.25572e+06 -2.7712e+06 317023 -1.55127e+06 457956
252 3 O 3.39324 139.7 2.86664 -1.2 -9.06152 -3.15741e+06 -3.28352e+06 -4.21292e+06 -133842 2.1263e+06 968407
253 1 Mg 2.54843 142.913 0.0215722 1.2 -7.59983 -2.61329e+06 4.07417e+06 -681781 -1.43268e+06 -2.87445e+06 -2.16355e+06
254 1 Mg 6.86335 146.339 1.42438 1.2 -8.65825 2.31977e+06 -528459 2.38616e+06 -237976 -188915 -754149
255 2 Si 4.40586 144.203 1.26374 2.4 -33.027 6.93116e+06 1.02505e+07 7.47859e+06 -1.94507e+06 -1.25342e+06 -2.08224e+06
256 3 O 5.97268 144.028 1.31927 -1.2 -9.57042 -2.3574e+06 -3.03148e+06 -3.94302e+06 -595128 -436612 1.52619e+06
257 3 O 3.16324 148.021 1.64616 -1.2 -8.39199 -5.94089e+06 290871 -5.0416e+06 -802165 -791303 927867
258 3 O 3.83764 144.894 0.00192631 -1.2 -8.75534 -4.23634e+06 -1.796e+06 -5.04265e+06 919231 462953 1.15673e+06
259 1 Mg 1.71767 153.576 1.50368 1.2 -7.47028 -157246 -2.31357e+06 4.7989e+06 346070 289510 -919059
260 3 O 3.69182 145.024 2.51029 -1.2 -8.81312 -1.72466e+06 -2.91769e+06 -2.26799e+06 -1.06127e+06 -720313 1.16776e+06
261 1 Mg 2.22002 151.303 4.49591 1.2 -8.05515 709830 6.27822e+06 -778811 -443338 791329 -643866
262 2 Si 4.21167 151.739 2.90181 2.4 -32.9688 6.16987e+06 8.96176e+06 7.0296e+06 -2.86393e+06 -35641.6 -1.20938e+06
263 3 O 2.97932 152.796 2.91217 -1.2 -8.23477 -3.77263e+06 59562.4 -4.35973e+06 -620091 163100 -886495
264 3 O 5.86636 149.062 4.23595 -1.2 -8.77826 -3.77666e+06 -3.32347e+06 -3.14007e+06 -1.00666e+06 -1932.87 -252801
265 3 O 5.14108 152.15 1.72576 -1.2 -9.35521 -3.08189e+06 -1.49088e+06 -5.28429e+06 30139.9 569368 -1.10903e+06
266 3 O 4.94026 151.912 4.23061 -1.2 -8.68114 -4.06469e+06 -5.3104e+06 -5.14192e+06 -674816 -546279 1.8281e+06
267 1 Mg 4.5804 148.428 2.79374 1.2 -7.93005 -2.6873e+06 1.12365e+06 1.7127e+06 1.43483e+06 -2.99011e+06 1.01441e+06
268 1 Mg 4.53876 145.372 4.44425 1.2 -8.20111 2.10311e+06 -467469 1.36643e+06 -105601 1.29538e+06 318236
269 2 Si 6.62295 147.583 4.38701 2.4 -34.5076 9.89644e+06 7.52571e+06 1.12119e+07 53713.9 919512 -2.02373e+06
270 3 O 3.46082 147.738 4.56363 -1.2 -8.32281 -1.95515e+06 -1.90198e+06 -4.84771e+06 -610029 1.27809e+06 1.22964e+06