ITEM: TIMESTEP
9500
ITEM: NUMBER OF ATOMS
5600
ITEM: BOX BOUNDS xy xz yz pp pp pp
0.0000000000000000e+00 7.1234999999999999e+00 0.0000000000000000e+00
0.0000000000000000e+00 2.0198500000000001e+02 2.3744999999999998e+00
0.0000000000000000e+00 1.1958400000000000e+02 0.0000000000000000e+00
ITEM: ATOMS id type element xu yu zu q c_pe c_s[1] c_s[2] c_s[3] c_s[4] c_s[5] c_s[6]
1 1 Mg -1.60725 49.4313 -0.492 1.2 -7.45904 -1.19968e+06 -855176 1.89524e+06 540526 625302 -307295
2 1 Mg 3.03641 50.8932 2.67527 1.2 -7.94903 -3.12038e+06 2.95882e+06 35080.8 561783 967401 -663645
3 2 Si 0.859878 51.0891 0.702911 2.4 -33.3437 8.72398e+06 7.83489e+06 7.53123e+06 -1.26298e+06 1.16227e+06 2.35195e+06
4 3 O 2.16893 50.1693 0.959186 -1.2 -8.85514 -3.64024e+06 -2.9431e+06 -4.41147e+06 -196881 247523 453358
5 3 O -1.12016 53.899 1.91517 -1.2 -8.46107 -3.48599e+06 -5.30167e+06 -2.79496e+06 -2.57185e+06 77761.2 92569.8
6 3 O 0.0490783 50.4304 -0.515164 -1.2 -9.10651 -4.68617e+06 -2.08337e+06 -4.20643e+06 770074 409868 -62499.5
7 1 Mg -2.2786 59.6062 3.29663 1.2 -7.90116 -859124 4.32807e+06 -456277 -1.08505e+06 1.52847e+06 1.63299e+06
8 3 O 0.0644106 50.9302 2.06759 -1.2 -9.18485 -6.18108e+06 -3.03775e+06 -2.90508e+06 -260638 -415332 -1.73256e+06
9 1 Mg -2.19543 56.803 4.77669 1.2 -8.36538 1.27704e+06 2.01299e+06 931897 993813 151913 443122
10 2 Si 0.46562 58.6462 4.75393 2.4 -33.6274 6.43832e+06 1.06266e+07 6.28999e+06 350775 152520 571573
11 3 O -1.10102 58.7569 4.79458 -1.2 -9.31612 -2.65318e+06 -4.76248e+06 -2.94238e+06 -629938 -70043.5 243841
12 3 O 1.76684 54.4336 4.89429 -1.2 -9.07754 -4.48164e+06 -3.00142e+06 -1.16563e+06 -1.26785e+06 579243 -130487
13 3 O 1.15343 57.9613 3.51289 -1.2 -9.08383 -3.29903e+06 -3.88527e+06 -3.39006e+06 -475162 -642479 -1.14971e+06
14 3 O 1.17409 57.9734 5.99527 -1.2 -8.93666 -3.88073e+06 -4.21249e+06 -3.49358e+06 -191422 840364 1.48288e+06
15 1 Mg 0.439182 53.6062 3.13649 1.2 -8.11434 943871 3.82998e+06 324569 508679 -794798 676900
16 1 Mg 0.819307 49.7208 3.43064 1.2 -7.28025 199062 1.39276e+06 -638479 -640650 -459713 810635
17 2 Si 2.51427 53.0457 4.86286 2.4 -33.7365 8.61402e+06 1.02127e+07 7.66239e+06 -18167.4 41677.5 -1.00318e+06
18 3 O -0.67365 53.2664 4.85404 -1.2 -9.00132 -2.58984e+06 -4.4662e+06 -2.3268e+06 350699 -783875 530537
19 3 O 2.58801 49.1342 3.62397 -1.2 -7.44719 376371 -229852 -2.29133e+06 -329680 -373560 -963734
20 3 O 2.00866 52.2735 3.5373 -1.2 -8.81672 -3.87281e+06 -3.11917e+06 -3.55424e+06 -1.30992e+06 1.33517e+06 710413
21 1 Mg 0.128083 54.4748 0.412682 1.2 -7.91071 -1.21151e+06 3.13567e+06 -944602 1.34122e+06 2.15647e+06 -711573
22 3 O 1.97607 51.9975 6.04145 -1.2 -10.1218 -4.14924e+06 -3.36611e+06 -3.98687e+06 1.86898e+06 323454 110512
23 1 Mg 0.14753 57.2713 1.85719 1.2 -8.43606 2.48374e+06 1.63288e+06 1.83315e+06 -1.02012e+06 -40236.8 -492558
24 2 Si -1.85653 55.336 2.0087 2.4 -34.1238 8.10139e+06 1.13852e+07 7.49536e+06 -240780 1.10639e+06 -292931
25 3 O 1.30849 55.1321 1.93824 -1.2 -9.10481 -2.67682e+06 -2.64831e+06 -2.60788e+06 413863 752177 -518012
26 3 O -0.930756 59.0849 1.79283 -1.2 -9.09758 -2.00675e+06 -4.21829e+06 -2.28094e+06 778344 -90768.4 266923
27 3 O -1.27413 56.085 0.680266 -1.2 -8.96869 -2.94364e+06 -4.07918e+06 -2.14302e+06 520971 -1.06214e+06 324107
28 3 O -1.2284 56.1167 3.22672 -1.2 -8.61401 -2.89571e+06 -3.63721e+06 -2.52334e+06 927068 686819 -315769
29 1 Mg -2.37111 59.5461 0.311053 1.2 -7.85784 -853069 4.57794e+06 -560950 -925693 -1.58454e+06 -1.84639e+06
30 1 Mg 2.38457 62.4501 1.78692 1.2 -8.66126 2.43393e+06 669593 2.14107e+06 782417 -70394.7 -5990.94
31 2 Si -0.250334 60.6025 1.79736 2.4 -33.6071 5.74986e+06 1.16424e+07 7.63016e+06 597808 812222 34962.9
32 3 O 1.30475 60.5289 1.7912 -1.2 -9.43529 -2.60372e+06 -4.03254e+06 -3.62291e+06 -32087.9 845814 133325
33 3 O -1.21202 64.2002 1.75558 -1.2 -8.74469 -3.3058e+06 -3.97197e+06 -2.72379e+06 -1.01591e+06 -49740.1 -536845
34 3 O -0.973262 61.2679 0.538555 -1.2 -8.82986 -3.23828e+06 -4.13572e+06 -2.65761e+06 -14998.9 822363 604626
35 1 Mg -2.39719 69.8442 3.21132 1.2 -8.05549 -1.07636e+06 4.44619e+06 -353665 -895488 1.55903e+06 2.05238e+06
36 3 O -0.829979 61.2819 3.09657 -1.2 -8.88476 -3.53033e+06 -3.44098e+06 -2.2929e+06 -49331 -379010 168343
37 1 Mg -2.17317 67.0319 4.83953 1.2 -8.41388 2.13668e+06 1.34058e+06 2.66927e+06 494041 -381361 1.13386e+06
38 2 Si 0.372626 68.8689 4.7277 2.4 -33.6508 7.06711e+06 1.11002e+07 7.4283e+06 38215.7 288389 1.31634e+06
39 3 O -1.18964 68.9922 4.77058 -1.2 -9.31634 -2.33927e+06 -3.53322e+06 -3.43354e+06 -234960 319189 -517359
40 3 O 1.46175 65.2321 4.78829 -1.2 -9.02505 -3.22971e+06 -6.11388e+06 -3.46359e+06 -255652 119853 361373
41 3 O 1.00597 68.1617 3.45768 -1.2 -8.93379 -3.48627e+06 -4.01967e+06 -2.62111e+06 -487217 -1.24238e+06 -1.32439e+06
42 3 O 1.09615 68.2805 6.008 -1.2 -8.83976 -3.31484e+06 -3.73673e+06 -2.32032e+06 -427059 684280 189763
43 1 Mg 0.0980471 64.7141 3.27441 1.2 -8.11896 -684063 4.10633e+06 -197932 1.08995e+06 -1.60104e+06 1.87342e+06
44 1 Mg 0.0547466 61.9442 4.84899 1.2 -8.51829 1.93709e+06 905030 2.98825e+06 -1.03388e+06 34266.3 95945.7
45 2 Si 2.12827 63.7911 4.72632 2.4 -33.6506 5.22078e+06 9.75829e+06 7.88952e+06 268588 32340.2 9500.4
46 3 O -1.07102 63.9041 4.7677 -1.2 -9.39051 -3.24234e+06 -3.9574e+06 -3.88763e+06 404818 403026 43829.5
47 3 O 1.13528 60.1071 4.78628 -1.2 -8.90882 -3.01725e+06 -5.8666e+06 -2.73427e+06 1.01373e+06 -38444.8 570443
48 3 O 1.44984 63.13 3.46093 -1.2 -8.91336 -3.39087e+06 -4.28646e+06 -3.37223e+06 -127410 390946 -610541
49 1 Mg 0.103952 64.6299 0.212809 1.2 -8.11232 -107072 3.97761e+06 420854 1.0833e+06 1.27705e+06 -1.4322e+06
50 3 O 1.46729 63.0951 5.99827 -1.2 -8.82634 -3.34131e+06 -4.29572e+06 -2.59149e+06 -324096 -463869 735365
51 1 Mg 0.175291 67.6396 1.74431 1.2 -8.53887 2.00556e+06 661141 1.70372e+06 -754982 -148629 352776
52 2 Si -1.92657 65.7152 1.73183 2.4 -33.8193 6.00149e+06 1.08215e+07 7.71874e+06 -154348 -674488 372421
53 3 O 1.32152 65.5956 1.73388 -1.2 -9.21156 -4.24547e+06 -3.89929e+06 -2.68615e+06 411275 -299645 -445483
54 3 O -0.954985 69.34 1.76965 -1.2 -9.05936 -2.46131e+06 -5.1332e+06 -2.3614e+06 1.03308e+06 108958 -927479
55 3 O -1.21549 66.3694 0.408867 -1.2 -8.88419 -2.48456e+06 -2.50385e+06 -1.51031e+06 -37204 -801544 98902
56 3 O -1.25767 66.3781 2.992 -1.2 -8.84109 -3.65191e+06 -3.94407e+06 -1.68468e+06 -251234 231738 -1.06706e+06
57 1 Mg -2.3319 70.02 0.171691 1.2 -7.9061 -736370 3.9423e+06 163879 -956304 -1.17478e+06 -791836
58 1 Mg 2.33686 72.7713 1.76995 1.2 -8.60024 2.49396e+06 1.07192e+06 2.07067e+06 829362 -9782.67 483384
59 2 Si -0.30548 70.8296 1.76413 2.4 -33.7191 6.25788e+06 1.09654e+07 6.68099e+06 238763 -218277 901696
60 3 O 1.25671 70.7789 1.75608 -1.2 -9.32095 -2.7809e+06 -3.8869e+06 -3.86298e+06 -133173 -528737 -637768
61 3 O -1.37434 74.5799 1.76497 -1.2 -8.94693 -2.21364e+06 -4.94221e+06 -2.90464e+06 -1.03015e+06 -127679 -702186
62 3 O -0.962625 71.5524 0.493713 -1.2 -8.92239 -3.65889e+06 -3.05159e+06 -3.49226e+06 -177872 1.02332e+06 -763606
63 1 Mg -2.28622 80.1439 3.12074 1.2 -8.14401 -150671 4.4022e+06 -115582 -752213 1.10691e+06 1.9218e+06
64 3 O -1.01159 71.5321 2.96142 -1.2 -8.76941 -3.93419e+06 -3.90209e+06 -3.89915e+06 -326458 -264333 -1.25812e+06
65 1 Mg -2.33495 77.4057 4.75729 1.2 -8.62741 2.55332e+06 1.45469e+06 2.64008e+06 843208 84760.7 268007
66 2 Si 0.364883 79.2602 4.64668 2.4 -33.9806 5.80384e+06 1.15223e+07 7.59772e+06 454297 196498 780686
67 3 O -1.18228 79.3306 4.70038 -1.2 -9.32583 -3.48179e+06 -4.24242e+06 -3.14906e+06 -259816 351206 -631300
68 3 O 1.34645 75.5589 4.70062 -1.2 -8.87072 -3.67492e+06 -3.68486e+06 -2.82368e+06 -560577 -212876 -106531
69 3 O 1.01543 78.5493 3.39368 -1.2 -8.82543 -2.99065e+06 -4.40483e+06 -2.28405e+06 -91556.4 -545060 -906137
70 3 O 1.09074 78.617 5.94626 -1.2 -8.8331 -2.98947e+06 -4.03536e+06 -2.13784e+06 -292905 912646 -5451.66
71 1 Mg -0.0143197 75.0967 3.26247 1.2 -8.09343 -491914 4.54037e+06 -718471 983540 -1.63009e+06 2.06532e+06
72 1 Mg -0.0430802 72.0946 4.71279 1.2 -8.54801 2.51609e+06 840636 2.06567e+06 -772074 171210 548532
73 2 Si 1.97966 74.0574 4.70271 2.4 -33.7657 7.08924e+06 1.15418e+07 6.56637e+06 382534 -567929 1.21179e+06
74 3 O -1.18417 74.1625 4.72083 -1.2 -9.15776 -1.6738e+06 -4.24262e+06 -2.78417e+06 552323 10867.9 -791997
75 3 O 1.06482 70.3885 4.65671 -1.2 -8.86952 -3.02045e+06 -4.52568e+06 -2.8965e+06 1.37118e+06 399736 1416.62
76 3 O 1.33597 73.3258 3.48476 -1.2 -8.95851 -3.64931e+06 -3.75109e+06 -2.60486e+06 -26486.1 244387 -1.30681e+06
77 1 Mg 0.0314836 74.998 0.280442 1.2 -7.87466 -506149 4.2585e+06 -239944 752310 1.01351e+06 -1.22707e+06
78 3 O 1.33961 73.3955 6.0213 -1.2 -8.93065 -2.7907e+06 -3.78664e+06 -2.03477e+06 15064.7 -427292 -24173.6
79 1 Mg 0.0831772 77.8669 1.64419 1.2 -8.65883 1.9518e+06 988098 2.55689e+06 -700421 61920.6 94106.9
80 2 Si -2.0613 76.0878 1.74478 2.4 -33.7676 5.32338e+06 1.09738e+07 7.6144e+06 -442967 13243.4 671343
81 3 O 1.16161 75.985 1.7652 -1.2 -9.43492 -3.8619e+06 -3.87955e+06 -3.63155e+06 488372 -119043 -471718
82 3 O -0.939454 79.7167 1.61167 -1.2 -8.90475 -3.11947e+06 -5.00552e+06 -2.96157e+06 1.44821e+06 -97632.9 105159
83 3 O -1.34529 76.7522 0.494678 -1.2 -8.966 -3.37345e+06 -4.07149e+06 -3.0198e+06 278007 -939464 115664
84 3 O -1.36794 76.7391 3.01089 -1.2 -8.678 -3.61744e+06 -4.05265e+06 -2.73625e+06 -63661.8 519231 -743430
85 1 Mg -2.29242 80.2395 0.171589 1.2 -8.2383 200189 4.18471e+06 -505954 -668404 -1.46764e+06 -1.05928e+06
86 1 Mg 2.42413 83.061 1.76265 1.2 -8.88738 2.49155e+06 628165 2.62e+06 983511 -260622 213775
87 2 Si -0.24771 81.1938 1.64872 2.4 -34.1451 7.7931e+06 1.04914e+07 8.29224e+06 -103967 122625 1.00386e+06
88 3 O 1.33249 81.1301 1.69768 -1.2 -9.0843 -2.36073e+06 -3.54747e+06 -3.93622e+06 -353585 -204544 -295928
89 3 O -1.28453 84.8893 1.67096 -1.2 -8.86121 -3.19748e+06 -6.15255e+06 -3.3351e+06 -716478 -98156 145216
90 3 O -0.91776 81.861 0.381517 -1.2 -8.50247 -3.62983e+06 -4.24436e+06 -2.93022e+06 59929.8 910818 195900
91 1 Mg -2.39901 90.6133 3.11807 1.2 -8.23006 -429469 4.38628e+06 -570916 -1.04341e+06 1.68286e+06 1.76931e+06
92 3 O -0.965045 81.9166 2.89533 -1.2 -8.62503 -4.12122e+06 -2.27989e+06 -2.92457e+06 -131100 -1.09325e+06 -14737.1
93 1 Mg -2.26744 87.6981 4.59685 1.2 -8.65714 2.47584e+06 1.71891e+06 1.9379e+06 832342 82578.5 258262
94 2 Si 0.360813 89.5992 4.63229 2.4 -34.1638 7.84379e+06 1.15418e+07 6.78421e+06 594336 622017 -188216
95 3 O -1.18464 89.6743 4.64655 -1.2 -9.01166 -3.14816e+06 -3.94246e+06 -2.83311e+06 110548 175927 308816
96 3 O 1.33133 85.9095 4.7536 -1.2 -8.94774 -3.75807e+06 -3.95523e+06 -2.94469e+06 -1.16087e+06 460647 -916264
97 3 O 1.01633 88.9341 3.36547 -1.2 -8.99665 -3.77961e+06 -3.78438e+06 -2.73012e+06 -374675 -771443 -1.3061e+06
98 3 O 1.0425 88.9699 5.94713 -1.2 -8.55097 -4.0871e+06 -3.81591e+06 -1.20493e+06 -285254 888343 641190
99 1 Mg 0.0192145 85.4448 3.19261 1.2 -7.98898 -415482 4.25868e+06 -346001 903116 -1.68351e+06 2.2003e+06
100 1 Mg -0.0272584 82.6287 4.67095 1.2 -8.78135 2.42901e+06 921640 2.96546e+06 -1.25928e+06 99792.1 495607
101 2 Si 2.05111 84.4113 4.73627 2.4 -33.6847 6.31499e+06 1.19305e+07 7.08588e+06 -2652.7 -435995 565247
102 3 O -1.14842 84.5823 4.68319 -1.2 -9.30121 -2.4825e+06 -4.52953e+06 -3.03564e+06 97413.3 -621027 -524867
103 3 O 1.02662 80.734 4.61325 -1.2 -8.55872 -2.83329e+06 -4.59645e+06 -3.03525e+06 574595 66717.7 197917
104 3 O 1.43442 83.7266 3.47126 -1.2 -8.82634 -3.38811e+06 -3.78259e+06 -2.8897e+06 -109648 265412 -884485
105 1 Mg 0.143054 85.3129 0.222937 1.2 -8.05446 -933417 4.33482e+06 -772471 1.00682e+06 2.02959e+06 -1.45321e+06
106 3 O 1.35812 83.6805 6.00132 -1.2 -8.76671 -3.27952e+06 -3.92129e+06 -2.35557e+06 257292 -957604 -341836
107 1 Mg 0.141166 88.2563 1.70419 1.2 -8.44843 2.21192e+06 1.25739e+06 1.87127e+06 -960019 -181452 497065
108 2 Si -1.95375 86.3445 1.66437 2.4 -33.7674 5.47058e+06 1.05987e+07 6.60819e+06 31125.2 -189817 1.06767e+06
109 3 O 1.24479 86.2924 1.68456 -1.2 -9.34324 -3.25499e+06 -4.03823e+06 -3.31588e+06 204510 -214279 -435909
110 3 O -0.993239 90.0882 1.63411 -1.2 -9.12472 -2.59682e+06 -5.27814e+06 -3.179e+06 427957 -81758.8 -582354
111 3 O -1.29229 86.9812 0.408053 -1.2 -8.81302 -3.33547e+06 -4.28557e+06 -3.56596e+06 -166168 -193825 773078
112 3 O -1.30269 87.064 2.93957 -1.2 -8.99166 -2.94103e+06 -3.93819e+06 -2.95444e+06 279859 322040 -1.03264e+06
113 1 Mg -2.36909 90.5329 0.151358 1.2 -7.84863 -815504 3.94849e+06 20905.5 -781812 -1.51428e+06 -1.35214e+06
114 1 Mg 2.3165 93.4246 1.48089 1.2 -8.43465 2.46586e+06 555916 2.74691e+06 872674 -571748 61624.3
115 2 Si -0.334202 91.5389 1.63012 2.4 -33.7213 5.48707e+06 1.02389e+07 8.51392e+06 45629 -183377 706300
116 3 O 1.2194 91.4997 1.64167 -1.2 -9.36341 -2.76162e+06 -3.81848e+06 -3.91945e+06 -91903.8 -241843 -529194
117 3 O -1.35547 95.2248 1.67523 -1.2 -9.24592 -2.51921e+06 -5.55537e+06 -2.69758e+06 -687701 -159088 409157
118 3 O -0.982722 92.2537 0.360941 -1.2 -9.10571 -2.80548e+06 -3.35375e+06 -3.05439e+06 -291099 303597 527941
119 1 Mg -2.33736 100.844 3.01219 1.2 -7.98246 -353989 4.10123e+06 81887.6 -686022 1.1024e+06 1.70978e+06
120 3 O -0.996221 92.2161 2.93813 -1.2 -8.50207 -4.15438e+06 -3.73872e+06 -1.72649e+06 -504358 -523929 -366424
121 1 Mg -2.31965 98.0321 4.59734 1.2 -8.27344 1.7116e+06 1.33089e+06 2.23657e+06 948409 -132119 33109.9
122 2 Si 0.338563 99.8688 4.54983 2.4 -33.2651 5.47987e+06 1.05414e+07 8.49768e+06 539717 1.00031e+06 -340369
123 3 O -1.21111 99.9794 4.52919 -1.2 -9.60458 -2.65437e+06 -3.72389e+06 -3.32041e+06 -366076 802966 -79089.3
124 3 O 1.41621 96.1582 4.53699 -1.2 -9.1121 -2.65737e+06 -5.07405e+06 -2.41927e+06 -897597 -174878 -159067
125 3 O 0.955229 99.1987 3.27739 -1.2 -9.0457 -3.37635e+06 -3.7769e+06 -2.43412e+06 63882.5 -441239 -880891
126 3 O 1.07519 99.2331 5.86106 -1.2 -9.18153 -1.81932e+06 -3.35821e+06 -1.42852e+06 -479270 926925 576892
127 1 Mg -0.0374198 95.7616 3.13047 1.2 -7.87314 -959147 4.76624e+06 -549362 887115 -1.70767e+06 1.07232e+06
128 1 Mg -0.02916 92.9211 4.61302 1.2 -9.00644 2.32872e+06 394017 2.34839e+06 -1.0817e+06 -25752.4 68220.9
129 2 Si 2.05883 94.6632 4.58355 2.4 -33.9503 6.20026e+06 1.13673e+07 6.93176e+06 -97015 758477 397748
130 3 O -1.1475 94.7394 4.64446 -1.2 -9.23091 -3.27637e+06 -4.53735e+06 -3.45456e+06 919529 434915 -55963.3
131 3 O 1.09504 91.1059 4.63094 -1.2 -8.50806 -3.2686e+06 -4.50862e+06 -2.80004e+06 1.37589e+06 102750 358909
132 3 O 1.32527 93.9771 3.34705 -1.2 -8.57424 -3.37031e+06 -4.35525e+06 -2.19356e+06 -55252.8 518078 -432678
133 1 Mg -0.00797071 95.672 0.110797 1.2 -7.80703 -968087 4.37349e+06 -615449 830372 1.1499e+06 -2.06608e+06
134 3 O 1.37245 94.0142 5.85832 -1.2 -8.75697 -4.43454e+06 -4.24062e+06 -3.2842e+06 -76200.3 -864237 428028
135 1 Mg 0.0559265 98.5111 1.54156 1.2 -8.58551 2.05958e+06 1.04358e+06 2.69408e+06 -918842 -66670.1 -225867
136 2 Si -2.03458 96.6856 1.65412 2.4 -33.3382 5.84197e+06 1.08522e+07 6.69292e+06 12564.7 -478811 -1.42755e+06
137 3 O 1.14152 96.6224 1.56834 -1.2 -9.50713 -2.00164e+06 -3.96078e+06 -3.14161e+06 160250 44965 542851
138 3 O -1.00401 100.378 1.50784 -1.2 -8.80822 -3.10931e+06 -3.40194e+06 -3.30369e+06 2.09341e+06 -233926 59260.2
139 3 O -1.35698 97.4004 0.370819 -1.2 -8.94315 -3.07016e+06 -3.29804e+06 -2.60119e+06 141745 -810597 408631
140 3 O -1.37263 97.3827 2.86842 -1.2 -9.08704 -3.16779e+06 -4.68996e+06 -3.9344e+06 -245736 492987 -505844
141 1 Mg -2.27381 100.822 0.0179222 1.2 -8.2039 -772994 3.7308e+06 -296116 -807651 -1.49876e+06 -1.72849e+06
142 1 Mg 7.1886 103.738 1.48705 1.2 -8.49077 1.62792e+06 1.33585e+06 2.94521e+06 1.00777e+06 -104269 665755
143 2 Si -0.261774 101.899 1.51897 2.4 -33.3546 7.84083e+06 1.07792e+07 8.25392e+06 410115 -120420 589195
144 3 O 1.30746 101.775 1.48582 -1.2 -9.35223 -1.67459e+06 -3.61727e+06 -3.4278e+06 -399649 -38381.9 -348373
145 3 O 3.46693 105.614 1.44584 -1.2 -8.98312 -2.70206e+06 -4.0252e+06 -2.9549e+06 -1.50484e+06 58726.1 -799796
146 3 O -0.967522 102.54 0.229462 -1.2 -8.97597 -3.5666e+06 -3.38398e+06 -2.36249e+06 -384707 1.06747e+06 499757
147 1 Mg 2.32557 111.262 2.92611 1.2 -7.94367 -1.022e+06 3.69759e+06 184548 -965812 1.4628e+06 1.58691e+06
148 3 O -0.960673 102.57 2.78798 -1.2 -9.1289 -2.92845e+06 -3.20016e+06 -2.50637e+06 -251219 -1.31514e+06 -1.0722e+06
149 1 Mg 2.51217 108.418 4.38796 1.2 -8.59603 2.0561e+06 1.19443e+06 2.46469e+06 681989 331276 233587
150 2 Si 5.08299 110.302 4.48161 2.4 -33.6415 7.62967e+06 1.04763e+07 8.39097e+06 -540965 221333 420761
151 3 O 3.50494 110.395 4.48386 -1.2 -9.33281 -2.07719e+06 -3.38254e+06 -3.20941e+06 -677395 32704.7 241242
152 3 O 6.2134 106.546 4.49447 -1.2 -8.82297 -2.57037e+06 -5.04917e+06 -3.05322e+06 -1.09667e+06 277037 -221024
153 3 O 5.79584 109.584 3.22504 -1.2 -9.07517 -2.3579e+06 -2.79808e+06 -2.68268e+06 -590138 -1.03457e+06 -725132
154 3 O 5.78156 109.672 5.77982 -1.2 -8.65776 -3.13638e+06 -3.56393e+06 -2.26294e+06 -255120 1.23277e+06 431156
155 1 Mg 4.77205 106.016 2.97381 1.2 -8.03312 122134 3.85805e+06 615039 803330 -1.3049e+06 1.45937e+06
156 1 Mg -0.0544514 103.197 4.48885 1.2 -8.53855 1.94224e+06 1.0268e+06 1.93983e+06 -707151 -60190.7 529589
157 2 Si 6.86201 105.064 4.51162 2.4 -33.8555 6.46406e+06 9.9016e+06 7.88114e+06 122871 496884 884665
158 3 O 3.67112 105.102 4.52787 -1.2 -9.31257 -3.29356e+06 -3.55284e+06 -3.66108e+06 829348 -632271 -136997
159 3 O 1.02289 101.363 4.51755 -1.2 -9.08723 -2.3299e+06 -4.37532e+06 -2.80148e+06 1.04728e+06 -194753 -433186
160 3 O 6.20077 104.419 3.20487 -1.2 -8.80763 -2.57091e+06 -3.46019e+06 -2.89417e+06 195893 908496 -1.02171e+06
161 1 Mg 4.78456 106.001 -0.0682729 1.2 -7.87901 -415821 4.1765e+06 -359711 664516 1.04078e+06 -1.22171e+06
162 3 O 6.0809 104.415 5.71735 -1.2 -8.89936 -3.9391e+06 -3.98276e+06 -4.04089e+06 163891 -1.04948e+06 852432
163 1 Mg 4.78621 108.947 1.49627 1.2 -8.56264 2.04279e+06 76387.2 2.81548e+06 -1.01834e+06 223033 187179
164 2 Si 2.74631 107.119 1.46865 2.4 -33.8619 6.92663e+06 9.75132e+06 7.57793e+06 -842848 -54791.6 -459074
165 3 O 5.93853 107.048 1.44747 -1.2 -9.15498 -2.60401e+06 -3.16047e+06 -3.41413e+06 58141.8 229446 304486
166 3 O 3.7018 110.677 1.47127 -1.2 -9.23536 -2.04091e+06 -4.46149e+06 -3.23666e+06 1.21556e+06 388584 -278248
167 3 O 3.37273 107.812 0.198151 -1.2 -8.78631 -4.36795e+06 -3.35977e+06 -2.8858e+06 -273845 -659788 886290
168 3 O 3.41321 107.714 2.7424 -1.2 -8.99411 -3.89425e+06 -3.51062e+06 -4.15664e+06 12173 739719 -1.28864e+06
169 1 Mg 2.30902 111.182 -0.0750226 1.2 -7.78264 -991757 4.3489e+06 -20849.2 -904395 -1.35579e+06 -1.81694e+06
170 1 Mg 6.9596 114.061 1.52598 1.2 -8.44387 2.2921e+06 1.11302e+06 3.2635e+06 667441 -176283 -159631
171 2 Si 4.36579 112.172 1.40176 2.4 -33.0865 5.63784e+06 1.07336e+07 8.73007e+06 -64470.9 -473057 -143529
172 3 O 5.9178 112.176 1.48729 -1.2 -9.66967 -2.28257e+06 -3.35924e+06 -3.77456e+06 -306671 -71752.3 579997
173 3 O 3.27559 116.021 1.54742 -1.2 -8.86668 -2.31347e+06 -4.47932e+06 -3.76496e+06 95071.2 38479.2 782068
174 3 O 3.67006 112.807 0.144484 -1.2 -9.0865 -2.94972e+06 -3.75447e+06 -3.11339e+06 -40385.3 790746 1.04846e+06
175 1 Mg 2.2804 121.638 2.98953 1.2 -8.07132 -839066 3.7376e+06 -34311.4 -380687 1.1673e+06 1.44785e+06
176 3 O 3.6321 112.9 2.70472 -1.2 -8.9877 -2.3726e+06 -2.33439e+06 -1.8602e+06 -833091 -997102 631161
177 1 Mg 2.35944 118.839 4.54874 1.2 -8.45813 2.06591e+06 797452 3.24425e+06 931525 -200394 -62965.5
178 2 Si 4.99394 120.684 4.509 2.4 -33.4722 6.62129e+06 9.81198e+06 9.14884e+06 109395 136675 -508489
179 3 O 3.42502 120.785 4.50296 -1.2 -9.40702 -1.88993e+06 -3.29036e+06 -4.05267e+06 -232124 270163 327369
180 3 O 5.98864 117.022 4.51986 -1.2 -8.93282 -2.50983e+06 -3.28871e+06 -3.63416e+06 -1.17722e+06 140625 585376
181 3 O 5.64154 120.009 3.22229 -1.2 -8.87633 -3.5072e+06 -3.38172e+06 -2.76829e+06 -74614.1 -742762 -248295
182 3 O 5.68988 120.075 5.80425 -1.2 -9.00272 -3.13871e+06 -3.52619e+06 -2.53275e+06 -416163 636938 885755
183 1 Mg 4.66055 116.557 3.03377 1.2 -7.94462 -110581 3.52528e+06 468985 1.19926e+06 -1.75128e+06 1.10198e+06
184 1 Mg 4.62525 113.641 4.41253 1.2 -8.55306 2.09427e+06 924870 3.60509e+06 -1.09739e+06 84143.7 -68135.8
185 2 Si 6.67661 115.503 4.53442 2.4 -33.6107 6.5214e+06 9.38667e+06 1.03628e+07 -420314 -298522 -1.53458e+06
186 3 O 3.46542 115.589 4.5595 -1.2 -9.32715 -2.78713e+06 -2.77516e+06 -4.13892e+06 656416 -198140 950590
187 3 O 5.75037 111.792 4.48809 -1.2 -8.92258 -2.93307e+06 -3.66769e+06 -3.22184e+06 1.11406e+06 20271.2 676118
188 3 O 5.95812 114.862 3.26312 -1.2 -9.12943 -2.74975e+06 -2.72467e+06 -2.25839e+06 -89224.1 809220 -99937.6
189 1 Mg 4.68642 116.489 -0.0142536 1.2 -7.9767 177692 3.54774e+06 478468 1.24517e+06 1.06854e+06 -2.27304e+06
190 3 O 5.96082 114.894 5.87369 -1.2 -8.5985 -3.95781e+06 -2.79675e+06 -1.19711e+06 -170778 -1.42531e+06 640477
191 1 Mg 4.7263 119.276 1.50583 1.2 -8.53174 2.18329e+06 83403.2 3.12787e+06 -1.06353e+06 19886.1 -118794
192 2 Si 2.65133 117.486 1.48624 2.4 -33.7703 4.34038e+06 9.30531e+06 9.54683e+06 -500127 -224920 -690451
193 3 O 5.86812 117.475 1.47647 -1.2 -9.33231 -3.27567e+06 -3.54946e+06 -4.08167e+06 656551 -185606 673159
194 3 O 3.6654 121.137 1.53387 -1.2 -8.89058 -3.06207e+06 -3.46332e+06 -3.90848e+06 1.59085e+06 -116979 519499
195 3 O 3.34115 118.032 0.140238 -1.2 -8.87762 -3.96644e+06 -4.1215e+06 -3.08253e+06 -29766.2 -1.09111e+06 1.38502e+06
196 3 O 3.30141 118.18 2.76551 -1.2 -9.01029 -3.48396e+06 -3.80534e+06 -1.69888e+06 -289902 53391.2 -369592
197 1 Mg 2.37723 121.627 0.0206825 1.2 -8.09069 -531218 3.32867e+06 144769 -671291 -1.49848e+06 -2.26064e+06
198 1 Mg 7.03834 124.462 1.39555 1.2 -8.40883 2.31942e+06 668360 2.78998e+06 539858 -483960 522988
199 2 Si 4.4557 122.589 1.49881 2.4 -33.4587 4.7828e+06 1.07216e+07 1.00677e+07 111974 -258936 -804956
200 3 O 5.95403 122.495 1.4574 -1.2 -9.59114 -4.57372e+06 -3.91741e+06 -4.30448e+06 392376 -451878 260488
201 3 O 3.31995 126.335 1.45613 -1.2 -9.06205 -2.9319e+06 -3.83873e+06 -3.01879e+06 -1.31533e+06 272825 630540
202 3 O 3.77927 123.256 0.123859 -1.2 -8.77151 -2.71235e+06 -2.73464e+06 -2.45827e+06 -744735 1.46162e+06 235121
203 1 Mg 2.32631 132.064 2.85027 1.2 -8.14096 -273665 4.03925e+06 -64101 -829290 1.74105e+06 1.47165e+06
204 3 O 3.70853 123.347 2.70543 -1.2 -8.91325 -2.2694e+06 -3.11252e+06 -2.52894e+06 -637775 -939649 -183488
205 1 Mg 2.36562 129.222 4.39916 1.2 -8.55292 2.11618e+06 299174 2.7273e+06 1.05579e+06 22135.7 -401016
206 2 Si 5.04854 131.053 4.34894 2.4 -33.7417 4.44521e+06 9.81174e+06 7.90095e+06 198505 -418354 -1.11159e+06
207 3 O 3.53524 131.159 4.38793 -1.2 -9.28003 -3.93026e+06 -3.45754e+06 -3.8374e+06 -354083 -440271 846552
208 3 O 6.01893 127.426 4.48973 -1.2 -9.05035 -2.65683e+06 -3.02541e+06 -2.88021e+06 -1.37166e+06 -159159 612812
209 3 O 5.74174 130.395 3.09737 -1.2 -8.87647 -2.9681e+06 -3.4505e+06 -3.77287e+06 173092 -119276 -135505
210 3 O 5.64971 130.364 5.63087 -1.2 -8.97097 -3.90746e+06 -2.64338e+06 -3.32762e+06 589881 -171785 1.11917e+06
211 1 Mg 4.68513 126.785 3.00202 1.2 -8.0228 -726141 3.84829e+06 352988 1.08743e+06 -1.57085e+06 1.1608e+06
212 1 Mg 4.64604 123.966 4.44243 1.2 -8.60466 2.39261e+06 187430 3.18255e+06 -662772 6559.76 -157950
213 2 Si 6.71507 125.903 4.49329 2.4 -33.4865 6.03946e+06 1.03871e+07 9.27404e+06 -351171 319685 -579385
214 3 O 3.51111 125.965 4.50143 -1.2 -9.41858 -2.47985e+06 -3.40257e+06 -4.0675e+06 130918 112316 968102
215 3 O 5.69213 122.187 4.44124 -1.2 -9.01621 -3.17552e+06 -4.02246e+06 -3.59039e+06 1.56229e+06 78679.1 -41559.1
216 3 O 6.02074 125.219 3.16636 -1.2 -8.92321 -2.85506e+06 -1.96531e+06 -1.79515e+06 414250 805483 907659
217 1 Mg 4.71828 126.696 -0.00880607 1.2 -8.0415 -938833 3.8166e+06 441106 834899 979228 -1.5514e+06
218 3 O 6.04046 125.213 5.72502 -1.2 -8.85392 -3.9175e+06 -2.33266e+06 -2.81105e+06 -132528 -255965 596237
219 1 Mg 4.66415 129.689 1.43663 1.2 -8.74914 2.45642e+06 1.07931e+06 2.579e+06 -1.00656e+06 -60140.8 -286747
220 2 Si 2.64155 127.821 1.46203 2.4 -33.6275 8.13692e+06 9.90662e+06 8.5591e+06 -498778 507117 -668874
221 3 O 5.81024 127.756 1.41628 -1.2 -9.21522 -1.53065e+06 -3.48414e+06 -3.42948e+06 364060 134783 588635
222 3 O 3.69348 131.59 1.40484 -1.2 -8.8859 -4.0722e+06 -3.81388e+06 -3.01439e+06 1.25719e+06 208713 -637878
223 3 O 3.32583 128.521 0.205718 -1.2 -8.86259 -4.46422e+06 -3.08039e+06 -3.59476e+06 464825 -1.57965e+06 946686
224 3 O 3.33448 128.483 2.77573 -1.2 -8.94056 -2.99251e+06 -2.52325e+06 -2.41874e+06 585385 1.26029e+06 132241
225 1 Mg 2.33712 132.051 -0.0996591 1.2 -8.21985 -112274 4.08655e+06 -413741 -781942 -1.63242e+06 -1.62983e+06
226 1 Mg 7.0515 134.974 1.40678 1.2 -8.73626 2.50454e+06 1.01674e+06 2.82354e+06 865780 -5350.55 -213303
227 2 Si 4.37414 133.067 1.33326 2.4 -33.7934 7.37906e+06 1.11278e+07 8.18459e+06 -634576 -749577 85195.6
228 3 O 5.92887 132.965 1.34747 -1.2 -9.18971 -2.54604e+06 -4.19324e+06 -3.3891e+06 -673173 -152703 -965.81
229 3 O 3.32042 136.804 1.35238 -1.2 -8.77559 -2.91691e+06 -4.54744e+06 -2.90384e+06 -1.05505e+06 102381 228621
230 3 O 3.68389 133.774 0.093619 -1.2 -8.8951 -3.40279e+06 -3.11904e+06 -2.06398e+06 -182451 741774 432707
231 1 Mg 2.29041 142.427 2.74009 1.2 -8.33072 285536 3.66905e+06 1.03348e+06 -520532 926642 2.19386e+06
232 3 O 3.63398 133.774 2.64768 -1.2 -8.72084 -2.97467e+06 -3.114e+06 -1.54416e+06 -375781 -1.35554e+06 14518.4
233 1 Mg 2.32083 139.583 4.3819 1.2 -8.76096 2.59085e+06 458515 3.02561e+06 692264 -403514 277895
234 2 Si 4.95538 141.498 4.2758 2.4 -34.2733 7.39886e+06 9.34428e+06 9.77781e+06 283874 503236 1.51285e+06
235 3 O 3.40038 141.552 4.26095 -1.2 -9.13918 -3.47486e+06 -3.31286e+06 -3.88461e+06 236209 289934 -771252
236 3 O 6.04038 137.733 4.43117 -1.2 -8.86552 -2.83636e+06 -4.2335e+06 -2.91208e+06 -1.14205e+06 119825 -701852
237 3 O 5.62132 140.799 2.98681 -1.2 -8.41122 -3.76889e+06 -1.67041e+06 -2.92086e+06 -177841 -941190 -511110
238 3 O 5.64825 140.809 5.54871 -1.2 -8.60586 -3.02277e+06 -3.52103e+06 -3.05918e+06 -237080 737935 417659
239 1 Mg 4.68318 137.29 2.88869 1.2 -8.24942 303517 4.04336e+06 648487 640302 -1.13768e+06 1.14799e+06
240 1 Mg 4.55981 134.369 4.36124 1.2 -8.58367 2.79878e+06 870824 2.64318e+06 -624526 -43512.8 -172441
241 2 Si 6.74272 136.258 4.4497 2.4 -33.9404 6.26198e+06 1.0377e+07 9.26058e+06 14397.5 326185 -803021
242 3 O 3.53021 136.354 4.39663 -1.2 -9.32424 -3.52558e+06 -3.33928e+06 -3.71002e+06 170977 -313773 285524
243 3 O 5.70267 132.557 4.35688 -1.2 -9.01669 -2.86804e+06 -4.17994e+06 -2.79736e+06 16567.6 -147125 180258
244 3 O 6.06641 135.616 3.11057 -1.2 -8.60299 -3.1452e+06 -3.07698e+06 -1.55623e+06 431153 867067 -202337
245 1 Mg 4.75828 137.243 -0.170744 1.2 -8.52894 516863 3.70461e+06 235299 537677 1.11824e+06 -1.81522e+06
246 3 O 6.03767 135.542 5.69027 -1.2 -8.77421 -3.44139e+06 -3.19189e+06 -2.9772e+06 633954 -1.03056e+06 819988
247 1 Mg 4.66098 140.072 1.24908 1.2 -9.18731 2.97657e+06 200355 3.30522e+06 -979985 181767 351131
248 2 Si 2.61689 138.254 1.35949 2.4 -34.4227 7.7367e+06 9.79116e+06 9.46775e+06 -502314 -515853 -840341
249 3 O 5.79993 138.188 1.3058 -1.2 -9.02519 -2.95519e+06 -3.46455e+06 -3.55375e+06 -14045.5 -124495 103864
250 3 O 3.70072 141.967 1.24502 -1.2 -8.40145 -4.01365e+06 -3.95297e+06 -3.64267e+06 1.41703e+06 -192098 -17219.1
251 3 O 3.30478 138.982 0.0233572 -1.2 -8.11657 -4.05085e+06 -2.69437e+06 -1.34963e+06 301776 -1.25367e+06 -512869
252 3 O 3.27051 138.942 2.60845 -1.2 -8.64439 -3.53091e+06 -3.4017e+06 -2.70619e+06 6225.93 385437 -827028
253 1 Mg 2.38013 142.449 -0.241157 1.2 -8.66449 610559 3.9034e+06 -560602 -811203 -1.74937e+06 -1.38933e+06
254 1 Mg 7.01557 145.248 1.34484 1.2 -8.81409 2.50009e+06 356877 2.77989e+06 983845 37852.9 592212
255 2 Si 4.39624 143.452 1.27281 2.4 -34.4689 7.08931e+06 1.03238e+07 9.11321e+06 88804.9 -220992 662634
256 3 O 5.95065 143.384 1.22631 -1.2 -9.00241 -3.36388e+06 -3.71382e+06 -3.98156e+06 -369764 1217.73 -212705
257 3 O 3.46009 147.1 1.3113 -1.2 -8.83102 -3.21571e+06 -4.86703e+06 -3.96334e+06 -1.02646e+06 -82229.3 212111
258 3 O 3.71546 144.114 -0.0301247 -1.2 -8.35719 -4.40669e+06 -3.74123e+06 -1.46452e+06 62308.3 665430 131760
259 1 Mg 1.684 152.309 1.821 1.2 -7.5375 -555042 -1.21889e+06 2.31432e+06 778086 -413508 61648.6
260 3 O 3.74239 144.104 2.56107 -1.2 -8.74362 -3.19948e+06 -3.0287e+06 -2.85006e+06 27799.7 -517841 -894264
261 1 Mg 1.72655 150.267 4.85189 1.2 -8.48886 -909675 4.19102e+06 701411 -212631 -128013 1.13074e+06
262 2 Si 3.89089 150.807 3.05279 2.4 -34.02 7.73239e+06 7.83894e+06 5.51601e+06 -9100.38 -589527 -160946
263 3 O 2.56644 151.541 3.35009 -1.2 -8.47046 -6.69827e+06 -2.47268e+06 -4.49898e+06 777809 563303 -1.5177e+06
264 3 O 6.02132 148.156 4.2698 -1.2 -8.40899 -3.45987e+06 -3.66346e+06 -3.17718e+06 -1.53092e+06 -267788 422525
265 3 O 4.62252 151.51 1.86744 -1.2 -8.96584 -4.7167e+06 -1.22326e+06 -5.63837e+06 851515 558825 274999
266 3 O 4.69044 150.781 4.33634 -1.2 -8.50812 -7.46936e+06 -5.17055e+06 -5.00541e+06 -554573 -861498 1.00463e+06
267 1 Mg 4.75417 147.56 2.77347 1.2 -8.25905 -661188 3.2331e+06 18251.2 1.14235e+06 -1.81433e+06 1.60628e+06
268 1 Mg 4.58769 144.766 4.33071 1.2 -8.75305 2.9929e+06 727407 2.90952e+06 -516335 169987 473717
269 2 Si 6.7831 146.668 4.32495 2.4 -34.34 6.82765e+06 1.11976e+07 8.59045e+06 -435934 -177017 342325
270 3 O 3.57544 146.73 4.32314 -1.2 -9.15873 -3.84726e+06 -3.68703e+06 -3.47967e+06 -288087 -313605 -412451
271 3 O 5.68752 142.954 4.34506 -1.2 -8.59911 -3.1651e+06 -4.02471e+06 -3.58491e+06 1.29404e+06 -358216 208087
272 3 O 6.15521 145.969 3.0195 -1.2 -8.67941 -3.48342e+06 -3.23633e+06 -2.42462e+06 519445 641909 -748341
273 1 Mg 4.8168 147.612 -0.174943 1.2 -8.11951 -876206 4.29507e+06 -150632 572508 1.49166e+06 -1.69254e+06
274 3 O 6.08769 146.066 5.61448 -1.2 -8.5102 -3.44606e+06 -3.27691e+06 -2.77166e+06 473359 -1.02717e+06 306659
275 1 Mg 4.10257 151.117 0.0223136 1.2 -8.14908 2.03261e+06 869906 -1.85975e+06 -517775 71197.5 -907259