ITEM: TIMESTEP
10100
ITEM: NUMBER OF ATOMS
5600
ITEM: BOX BOUNDS xy xz yz pp pp pp
0.0000000000000000e+00 7.1234999999999999e+00 0.0000000000000000e+00
0.0000000000000000e+00 2.0198500000000001e+02 2.3744999999999998e+00
0.0000000000000000e+00 1.1958400000000000e+02 0.0000000000000000e+00
ITEM: ATOMS id type element xu yu zu q c_pe c_s[1] c_s[2] c_s[3] c_s[4] c_s[5] c_s[6]
1 1 Mg -1.39597 49.4826 -0.854111 1.2 -7.79014 -785149 -1.60852e+06 2.07091e+06 305277 312063 -431429
2 1 Mg 3.10864 51.2618 2.18966 1.2 -8.5368 -1.35856e+06 4.52228e+06 -290870 561127 -395775 -1.57331e+06
3 2 Si 1.03253 51.061 0.363625 2.4 -34.3037 7.94705e+06 7.34351e+06 6.61585e+06 -496535 -541261 250865
4 3 O 2.34932 50.2968 0.563952 -1.2 -8.23012 -6.74981e+06 -3.73338e+06 -5.97348e+06 687904 -1.14818e+06 1.89434e+06
5 3 O -1.05554 53.7634 1.77846 -1.2 -8.35217 -3.99357e+06 -5.98921e+06 -2.73505e+06 -612676 -361817 -100137
6 3 O 0.302264 50.4034 -0.824466 -1.2 -8.78821 -6.80564e+06 -1.32066e+06 -6.5232e+06 446651 -606380 215554
7 1 Mg -2.18106 59.5192 3.07752 1.2 -8.0568 -264273 4.60613e+06 -996502 -868395 1.33898e+06 1.76451e+06
8 3 O 0.186906 50.9957 1.67666 -1.2 -8.5879 -6.5325e+06 -4.20411e+06 -3.79375e+06 -349590 -804905 -761732
9 1 Mg -2.03161 56.7264 4.55149 1.2 -8.43056 1.66813e+06 1.4944e+06 2.24385e+06 956702 -154891 -12281.5
10 2 Si 0.567914 58.5686 4.5583 2.4 -33.3494 5.63724e+06 1.13506e+07 8.04665e+06 11790.5 1.1363e+06 -391385
11 3 O -0.96277 58.6841 4.49366 -1.2 -9.397 -2.62187e+06 -4.35142e+06 -3.63983e+06 -136211 370094 141347
12 3 O 1.77106 54.415 4.75618 -1.2 -8.89162 -4.82792e+06 -2.84392e+06 -1.99084e+06 -1.41549e+06 699246 -850292
13 3 O 1.23225 57.7972 3.35199 -1.2 -9.02176 -4.22498e+06 -3.14935e+06 -1.89836e+06 96097.3 -571285 -762606
14 3 O 1.26937 57.9427 5.91051 -1.2 -8.98421 -2.61658e+06 -3.41118e+06 -2.63869e+06 -455510 1.21461e+06 1.01459e+06
15 1 Mg 0.479406 53.8971 3.1185 1.2 -8.35202 589214 3.77379e+06 -190729 125954 -546714 774774
16 1 Mg 0.870301 50.2483 3.29441 1.2 -8.29288 1.64097e+06 1.566e+06 -3.54122e+06 -154275 151336 612930
17 2 Si 2.54513 53.0103 4.71835 2.4 -34.1267 8.56219e+06 1.03088e+07 7.60144e+06 -10705.4 553012 -910876
18 3 O -0.676355 53.2859 4.65332 -1.2 -8.87237 -4.12697e+06 -4.24821e+06 -3.01165e+06 522076 -220347 760286
19 3 O 2.664 49.5648 3.36641 -1.2 -6.51107 -1.23106e+06 -308289 -2.48603e+06 497717 -161395 -488390
20 3 O 1.93425 52.2517 3.43999 -1.2 -8.53043 -3.63587e+06 -4.41735e+06 -3.39387e+06 -366934 766088 697960
21 1 Mg 0.191751 54.41 0.142698 1.2 -8.15714 -131218 2.77056e+06 189800 1.40311e+06 1.9218e+06 -1.75765e+06
22 3 O 2.11375 51.9887 5.94034 -1.2 -9.94618 -4.63827e+06 -2.58337e+06 -3.81766e+06 1.68093e+06 -493884 -671290
23 1 Mg 0.368264 57.1577 1.61025 1.2 -8.7325 3.27677e+06 1.53108e+06 1.17295e+06 -1.0361e+06 170057 -169223
24 2 Si -1.73255 55.1722 1.75486 2.4 -34.9259 7.2794e+06 1.03772e+07 6.83922e+06 408685 942309 -1.13145e+06
25 3 O 1.42935 55.0673 1.746 -1.2 -8.83127 -3.48539e+06 -3.36949e+06 -2.43482e+06 -18414 484136 -61828.9
26 3 O -0.724147 59.0168 1.59633 -1.2 -8.77818 -1.34268e+06 -3.64556e+06 -2.67865e+06 957316 -341311 189766
27 3 O -1.14579 55.9106 0.460947 -1.2 -8.49056 -3.49427e+06 -3.72861e+06 -3.48252e+06 503943 -305843 105355
28 3 O -1.15506 55.9699 2.95828 -1.2 -8.25864 -3.82621e+06 -3.90391e+06 -3.76683e+06 44442.5 34816.8 -480972
29 1 Mg -2.11392 59.5639 0.106175 1.2 -7.98036 -988504 4.4839e+06 -633070 -1.13339e+06 -1.23891e+06 -1.7555e+06
30 1 Mg 2.51372 62.4358 1.64465 1.2 -8.67781 2.85595e+06 923047 2.86242e+06 691698 63629.6 -239916
31 2 Si -0.0876193 60.5784 1.57633 2.4 -33.8571 6.46548e+06 1.17055e+07 7.68619e+06 724870 -313552 -286944
32 3 O 1.47121 60.5501 1.62464 -1.2 -9.2785 -2.6761e+06 -3.23065e+06 -4.15295e+06 -441535 528535 231495
33 3 O -1.1495 64.2938 1.62545 -1.2 -8.73927 -3.11069e+06 -5.48395e+06 -3.88653e+06 -722736 181053 1.01264e+06
34 3 O -0.827463 61.1825 0.323268 -1.2 -8.94641 -3.93289e+06 -4.0195e+06 -3.17033e+06 -434347 893513 1.09058e+06
35 1 Mg -2.13645 69.9659 3.13386 1.2 -8.02892 -805830 3.9498e+06 -353681 -1.38093e+06 1.85164e+06 2.50919e+06
36 3 O -0.739011 61.2473 2.86526 -1.2 -8.6277 -3.82083e+06 -3.17809e+06 -2.1874e+06 -224477 -602958 68136.5
37 1 Mg -2.11434 67.1088 4.66322 1.2 -8.40715 1.85213e+06 286453 3.06162e+06 727873 -217412 182705
38 2 Si 0.577632 69.0498 4.66973 2.4 -33.0089 5.65257e+06 1.17942e+07 8.20942e+06 -104434 -482584 -48225.5
39 3 O -0.972461 69.1082 4.63166 -1.2 -9.56653 -1.76602e+06 -4.09123e+06 -3.48552e+06 -380272 248177 -157753
40 3 O 1.57564 65.3762 4.62937 -1.2 -9.12878 -2.93053e+06 -4.43351e+06 -3.82393e+06 -1.12555e+06 262895 234279
41 3 O 1.24672 68.3592 3.35779 -1.2 -9.0536 -3.06372e+06 -3.42481e+06 -1.65101e+06 58190.7 -769734 -122250
42 3 O 1.30697 68.3591 5.9346 -1.2 -9.3904 -2.87963e+06 -3.30516e+06 -2.35809e+06 -585992 1.10425e+06 100265
43 1 Mg 0.16806 64.924 3.12085 1.2 -8.10802 -976059 3.80663e+06 -494651 755769 -1.09544e+06 1.65558e+06
44 1 Mg 0.169722 61.9304 4.58353 1.2 -8.68739 2.62828e+06 1.09284e+06 2.60327e+06 -1.06371e+06 89819.5 163864
45 2 Si 2.21776 63.8925 4.61306 2.4 -33.6072 6.96333e+06 1.01832e+07 8.31622e+06 -5501.3 307085 489400
46 3 O -0.963389 63.9241 4.59699 -1.2 -9.27585 -1.95408e+06 -3.53709e+06 -3.72855e+06 387952 89429.9 5971.44
47 3 O 1.28204 60.0645 4.52487 -1.2 -8.97865 -3.27296e+06 -3.34423e+06 -3.10702e+06 1.00743e+06 -256533 688004
48 3 O 1.53327 63.1661 3.3341 -1.2 -8.72466 -3.49194e+06 -2.49042e+06 -1.70063e+06 139815 513505 302048
49 1 Mg 0.165156 64.6668 0.131288 1.2 -8.24023 -336596 3.97695e+06 100157 758877 1.79338e+06 -1.77367e+06
50 3 O 1.55648 63.2241 5.89965 -1.2 -8.9914 -3.67958e+06 -3.7715e+06 -3.60261e+06 458646 -966825 824726
51 1 Mg 0.315045 67.6637 1.69829 1.2 -8.53774 2.77318e+06 1.09889e+06 2.28425e+06 -494736 -9257.85 246487
52 2 Si -1.89204 65.7241 1.61067 2.4 -34.1031 6.03218e+06 9.97184e+06 7.8934e+06 -154733 -571692 -679099
53 3 O 1.30456 65.6497 1.66949 -1.2 -9.27094 -4.05527e+06 -3.698e+06 -3.67874e+06 -529225 214669 941531
54 3 O -0.830121 69.4458 1.61101 -1.2 -8.88485 -3.00281e+06 -4.45337e+06 -2.73632e+06 577956 335078 -278403
55 3 O -1.29046 66.3464 0.280327 -1.2 -8.45112 -3.20918e+06 -3.95134e+06 -2.83026e+06 183825 -640400 953000
56 3 O -1.2287 66.4263 2.85522 -1.2 -8.8755 -3.2384e+06 -4.31625e+06 -3.02399e+06 646919 567073 -797607
57 1 Mg -2.27467 69.9833 0.0847152 1.2 -8.00593 71688 4.30297e+06 275069 -949304 -1.13311e+06 -1.01746e+06
58 1 Mg 2.46678 72.792 1.68964 1.2 -8.46189 1.85004e+06 1.23496e+06 1.89958e+06 1.0271e+06 -205353 541744
59 2 Si -0.186943 70.9369 1.637 2.4 -33.5295 5.96691e+06 1.0922e+07 7.65902e+06 41085.1 611599 956777
60 3 O 1.36104 70.8565 1.6572 -1.2 -9.34651 -2.5503e+06 -4.1637e+06 -3.43028e+06 -699522 49319.5 -104197
61 3 O -1.20473 74.6349 1.6606 -1.2 -9.01602 -2.48906e+06 -4.05393e+06 -3.4052e+06 -1.75561e+06 110925 -29799.8
62 3 O -0.896866 71.5722 0.336031 -1.2 -9.06228 -3.04052e+06 -4.32434e+06 -2.0516e+06 -194441 1.30515e+06 454580
63 1 Mg -2.21707 80.3455 3.06534 1.2 -7.71885 -696495 3.9209e+06 448132 -1.15886e+06 1.49652e+06 1.88844e+06
64 3 O -0.873593 71.6205 2.89788 -1.2 -9.12703 -3.73746e+06 -3.47532e+06 -2.62756e+06 -30587.2 -489494 -677130
65 1 Mg -2.03537 77.4988 4.61135 1.2 -8.50666 1.94001e+06 1.04188e+06 2.23136e+06 1.00188e+06 -185233 640471
66 2 Si 0.570048 79.3176 4.6254 2.4 -33.235 5.70517e+06 1.15867e+07 7.46618e+06 -15783.2 502721 176061
67 3 O -0.960137 79.443 4.65905 -1.2 -9.46464 -2.64342e+06 -4.05866e+06 -3.43153e+06 -524219 483596 -357809
68 3 O 1.52344 75.6787 4.66181 -1.2 -8.8733 -2.86349e+06 -3.95746e+06 -2.65793e+06 -1.07431e+06 270649 -916361
69 3 O 1.23914 78.6518 3.38503 -1.2 -9.33279 -3.00635e+06 -3.65414e+06 -3.37042e+06 29419.9 -595033 -1.14173e+06
70 3 O 1.31077 78.6767 5.92308 -1.2 -8.88293 -3.35323e+06 -3.63901e+06 -1.71891e+06 -215468 819161 -387943
71 1 Mg 0.112743 75.1955 3.09292 1.2 -8.01673 -597779 3.71318e+06 -248066 576762 -1.06468e+06 2.07543e+06
72 1 Mg 0.115918 72.376 4.54432 1.2 -8.46656 2.404e+06 1.01824e+06 2.36138e+06 -853192 -114752 107417
73 2 Si 2.22824 74.1795 4.67811 2.4 -33.4565 5.98689e+06 1.19214e+07 6.91519e+06 -230565 901304 766066
74 3 O -0.943562 74.337 4.61525 -1.2 -9.47381 -2.071e+06 -4.22776e+06 -3.47161e+06 -30954.9 -27536 -378586
75 3 O 1.23221 70.5618 4.60512 -1.2 -9.02352 -2.73843e+06 -3.23357e+06 -2.76729e+06 593068 8028.05 -1.02173e+06
76 3 O 1.54834 73.5039 3.3889 -1.2 -8.94026 -2.60341e+06 -3.8448e+06 -2.71557e+06 332837 1.03586e+06 -519942
77 1 Mg 0.0923825 75.0685 0.142276 1.2 -7.83041 -904284 4.08175e+06 -136506 786544 1.33773e+06 -1.4057e+06
78 3 O 1.58827 73.4897 5.90137 -1.2 -9.09777 -2.95514e+06 -4.94741e+06 -3.55734e+06 287327 -370615 388346
79 1 Mg 0.288177 78.0135 1.69883 1.2 -8.4602 1.57639e+06 493291 2.24903e+06 -433635 102726 48119.1
80 2 Si -1.92178 76.1541 1.61385 2.4 -33.3524 5.78908e+06 1.09331e+07 7.26027e+06 335637 276540 528804
81 3 O 1.29183 76.0998 1.61884 -1.2 -9.56028 -3.31164e+06 -3.61852e+06 -3.46318e+06 489877 -31.7841 239826
82 3 O -0.812824 79.7441 1.55025 -1.2 -9.19304 -2.03761e+06 -4.15819e+06 -2.91502e+06 1.19808e+06 256670 -516642
83 3 O -1.20453 76.7776 0.384972 -1.2 -9.00233 -3.26097e+06 -3.98263e+06 -4.2261e+06 -301703 -630896 761079
84 3 O -1.18399 76.8541 2.86992 -1.2 -8.96873 -2.74393e+06 -3.44733e+06 -3.58245e+06 735213 1.27685e+06 -293820
85 1 Mg -2.24576 80.2322 0.101353 1.2 -7.67982 -612722 3.82364e+06 -12837.9 -942395 -866780 -1.67604e+06
86 1 Mg 2.37825 83.111 1.65011 1.2 -8.34577 1.64418e+06 606464 2.55123e+06 624790 -143386 496179
87 2 Si -0.168286 81.2737 1.5244 2.4 -33.0277 4.80263e+06 1.10502e+07 8.86371e+06 -263247 -360859 196160
88 3 O 1.37784 81.1753 1.53236 -1.2 -9.78746 -2.59506e+06 -3.74468e+06 -4.08721e+06 -825836 351893 179508
89 3 O -1.30452 84.9408 1.5993 -1.2 -9.08509 -1.96993e+06 -3.80013e+06 -3.29853e+06 -1.26396e+06 441190 601907
90 3 O -0.929567 81.9499 0.307399 -1.2 -9.16134 -2.95338e+06 -3.50204e+06 -3.16726e+06 -308004 1.30433e+06 221850
91 1 Mg -2.28124 90.6739 3.18991 1.2 -7.74987 -532801 4.15503e+06 -747137 -1.33835e+06 1.92924e+06 1.41512e+06
92 3 O -0.853191 81.9365 2.82778 -1.2 -9.14821 -2.3119e+06 -3.17353e+06 -2.91338e+06 -209546 -838681 -231985
93 1 Mg -2.09298 87.6989 4.60861 1.2 -8.01782 1.70274e+06 1.51255e+06 2.49732e+06 603564 166680 146583
94 2 Si 0.470855 89.6556 4.71026 2.4 -33.3463 5.22537e+06 1.08492e+07 8.39604e+06 -335261 225156 -766804
95 3 O -1.07953 89.7519 4.73321 -1.2 -9.52243 -2.6029e+06 -3.39431e+06 -3.94147e+06 -705842 808788 431475
96 3 O 1.53315 85.956 4.6457 -1.2 -9.49556 -1.37371e+06 -4.82187e+06 -2.43601e+06 -254483 89188.2 -243796
97 3 O 1.10066 89.0124 3.41746 -1.2 -9.21508 -2.38544e+06 -3.81355e+06 -2.19712e+06 68947.2 -590134 -630272
98 3 O 1.19504 89.0208 5.98646 -1.2 -8.9952 -3.46704e+06 -3.0771e+06 -2.06232e+06 94991.6 1.00944e+06 566226
99 1 Mg 0.103407 85.4407 3.17561 1.2 -7.62672 -309734 4.4285e+06 1468.9 892276 -767227 1.23702e+06
100 1 Mg 0.0716686 82.572 4.55373 1.2 -8.53561 2.43111e+06 376233 3.04237e+06 -764264 22342 -282719
101 2 Si 2.16432 84.4642 4.70409 2.4 -33.3291 4.6614e+06 1.05846e+07 8.09093e+06 715.839 -436231 -220125
102 3 O -1.04039 84.5351 4.59754 -1.2 -9.61827 -2.79801e+06 -3.24513e+06 -3.31613e+06 466189 -439093 254865
103 3 O 1.26297 80.8694 4.60795 -1.2 -8.96892 -2.66442e+06 -3.28116e+06 -2.39402e+06 1.08414e+06 26428.2 -164400
104 3 O 1.50941 83.7425 3.43316 -1.2 -9.0279 -3.36461e+06 -3.07697e+06 -2.59244e+06 -248863 643162 134376
105 1 Mg 0.0569019 85.3794 0.159309 1.2 -7.71487 -1.35e+06 4.02239e+06 -358762 1.04391e+06 1.42452e+06 -1.60258e+06
106 3 O 1.49309 83.801 5.97498 -1.2 -8.95337 -2.79242e+06 -3.7081e+06 -2.81128e+06 -338921 -652932 270027
107 1 Mg 0.159055 88.3217 1.66506 1.2 -8.16753 1.09746e+06 1.48962e+06 2.20648e+06 -933866 299291 771384
108 2 Si -1.95384 86.4878 1.59047 2.4 -32.9212 5.59872e+06 1.11895e+07 6.94204e+06 -380431 272689 96307.5
109 3 O 1.2391 86.4095 1.62329 -1.2 -9.6881 -1.97338e+06 -3.56008e+06 -3.07708e+06 936581 48753.4 72285
110 3 O -0.930694 90.1646 1.70932 -1.2 -9.42753 -2.83109e+06 -4.45121e+06 -3.30778e+06 561138 -564593 261194
111 3 O -1.27474 87.0678 0.31414 -1.2 -9.27642 -3.23729e+06 -4.31572e+06 -3.868e+06 -32937.3 -875445 968076
112 3 O -1.22033 87.1601 2.84074 -1.2 -9.4656 -2.62659e+06 -3.63819e+06 -2.07466e+06 -1940.62 1.09175e+06 -795134
113 1 Mg -2.32314 90.6017 0.292105 1.2 -7.67924 -1.48653e+06 4.47189e+06 -331156 -1.07371e+06 -1.66733e+06 -1.43747e+06
114 1 Mg 2.44566 93.5193 1.75315 1.2 -8.68528 1.87419e+06 390741 2.77212e+06 1.35836e+06 -1300.03 -309985
115 2 Si -0.310327 91.6629 1.70442 2.4 -33.0681 5.16689e+06 1.05829e+07 7.98707e+06 -342517 182012 -207279
116 3 O 1.22131 91.5603 1.72304 -1.2 -9.4791 -2.45905e+06 -4.16378e+06 -3.86762e+06 -1.30015e+06 503783 477107
117 3 O -1.27856 95.3472 1.66205 -1.2 -8.79422 -2.65306e+06 -3.30491e+06 -2.58893e+06 -1.52497e+06 50525.9 212655
118 3 O -1.05924 92.3682 0.495729 -1.2 -9.18299 -3.53852e+06 -3.47776e+06 -2.96846e+06 227313 434800 326071
119 1 Mg -2.32392 100.891 3.22311 1.2 -7.8204 -793854 4.09648e+06 -340837 -1.43973e+06 2.15444e+06 1.66912e+06
120 3 O -1.01765 92.3261 3.02364 -1.2 -9.01889 -3.51551e+06 -3.41823e+06 -2.30808e+06 -125906 -1.10302e+06 203993
121 1 Mg -2.24094 98.1009 4.82037 1.2 -8.35489 1.92211e+06 225013 2.58787e+06 756214 -159018 542659
122 2 Si 0.429573 99.969 4.77436 2.4 -33.2486 5.51173e+06 1.10169e+07 7.63671e+06 702200 430529 -435105
123 3 O -1.11388 100.019 4.78395 -1.2 -9.47434 -2.30484e+06 -3.81608e+06 -3.23876e+06 272329 473125 338276
124 3 O 1.47575 96.3754 4.72989 -1.2 -9.23867 -2.50611e+06 -5.24574e+06 -3.35515e+06 -1.30356e+06 117362 421241
125 3 O 1.04504 99.3376 3.46383 -1.2 -9.158 -3.4717e+06 -4.71004e+06 -2.10665e+06 -273223 -515258 -1.26119e+06
126 3 O 1.1285 99.2885 6.05796 -1.2 -9.17744 -3.21507e+06 -3.3578e+06 -2.11078e+06 -554701 834715 290845
127 1 Mg 0.055249 95.8988 3.26943 1.2 -8.06723 -660496 4.15245e+06 57496.2 976525 -1.28841e+06 1.59447e+06
128 1 Mg 0.0139901 92.9774 4.65711 1.2 -8.65177 2.28755e+06 872571 2.47996e+06 -653763 -235089 -534154
129 2 Si 2.14967 94.91 4.71321 2.4 -33.5189 6.20197e+06 1.05539e+07 8.16204e+06 198388 937043 50371
130 3 O -1.04606 94.8995 4.71787 -1.2 -9.45612 -2.77281e+06 -3.65566e+06 -3.36114e+06 126623 726954 621400
131 3 O 1.1079 91.1929 4.6712 -1.2 -9.01785 -2.62165e+06 -3.95177e+06 -3.04713e+06 856513 331684 316941
132 3 O 1.4022 94.1924 3.40229 -1.2 -8.68136 -2.42904e+06 -2.35562e+06 -2.25565e+06 762583 1.24644e+06 772038
133 1 Mg 0.122447 95.8028 0.214348 1.2 -8.02798 -710767 4.01753e+06 -291612 672499 1.99354e+06 -1.67779e+06
134 3 O 1.50861 94.1835 5.93725 -1.2 -8.91617 -3.67362e+06 -3.08252e+06 -3.53249e+06 -231649 -487995 575047
135 1 Mg 0.199559 98.7401 1.72062 1.2 -8.36088 1.56377e+06 912079 2.28727e+06 -836722 139042 11788.4
136 2 Si -1.94545 96.8977 1.71369 2.4 -33.4702 7.36778e+06 1.10483e+07 7.82682e+06 -202682 -443754 279840
137 3 O 1.22406 96.8267 1.75204 -1.2 -9.35223 -1.61014e+06 -3.38846e+06 -3.56267e+06 622233 -470086 6002.94
138 3 O -1.01299 100.455 1.74861 -1.2 -9.19194 -1.88467e+06 -5.09968e+06 -3.84665e+06 342744 -23348.1 -944704
139 3 O -1.2433 97.5388 0.464126 -1.2 -9.03924 -2.93151e+06 -4.4279e+06 -2.19705e+06 32156.6 -720980 1.2919e+06
140 3 O -1.29396 97.4472 3.06995 -1.2 -8.99673 -3.76337e+06 -3.78902e+06 -1.5112e+06 -47115.9 967931 -648549
141 1 Mg -2.41481 101.11 0.219389 1.2 -7.89238 -449886 4.13983e+06 -216981 -1.15174e+06 -1.07886e+06 -1.23094e+06
142 1 Mg 7.00376 103.803 1.71052 1.2 -8.60504 2.52412e+06 703905 2.00436e+06 1.11337e+06 98727.1 -291921
143 2 Si -0.366269 101.934 1.7661 2.4 -33.5762 4.07306e+06 1.06097e+07 7.6813e+06 438482 275952 100218
144 3 O 1.17273 101.939 1.71058 -1.2 -9.43936 -3.1448e+06 -3.90019e+06 -3.73379e+06 63827.7 315283 -172597
145 3 O 3.343 105.71 1.65176 -1.2 -8.78531 -1.97574e+06 -3.5929e+06 -2.91912e+06 -1.04846e+06 188277 481067
146 3 O -1.03694 102.666 0.51277 -1.2 -9.00154 -3.6621e+06 -3.76915e+06 -2.02385e+06 -97477.8 243805 -89787.4
147 1 Mg 2.41197 111.26 3.11629 1.2 -7.47021 -794012 4.00232e+06 598125 -836760 1.10778e+06 1.2405e+06
148 3 O -0.968084 102.54 3.07335 -1.2 -8.9229 -3.32927e+06 -3.81662e+06 -2.7379e+06 53538.1 423581 -672660
149 1 Mg 2.49624 108.491 4.7138 1.2 -8.18612 919086 919354 1.98177e+06 918640 -42199.3 325987
150 2 Si 5.12223 110.327 4.67775 2.4 -32.5971 4.78306e+06 1.08001e+07 8.53949e+06 -90195.6 481140 -317325
151 3 O 3.58927 110.371 4.71764 -1.2 -9.88908 -2.38254e+06 -3.6553e+06 -3.49541e+06 -516152 541426 47661.9
152 3 O 6.1434 106.636 4.72252 -1.2 -9.41589 -2.47331e+06 -5.51294e+06 -3.18299e+06 -907286 79539.9 -799159
153 3 O 5.81488 109.638 3.40702 -1.2 -9.44429 -2.11153e+06 -3.49715e+06 -2.65612e+06 35753.7 -1.17276e+06 -447063
154 3 O 5.88684 109.623 5.94629 -1.2 -9.24695 -2.27727e+06 -2.79892e+06 -2.82746e+06 -247064 1.27312e+06 -55635.6
155 1 Mg 4.81047 106.247 3.13478 1.2 -7.67439 -745307 4.00025e+06 166274 921072 -1.04016e+06 2.12729e+06
156 1 Mg -0.0795238 103.291 4.8162 1.2 -8.4003 2.2989e+06 997315 2.74841e+06 -984916 219294 507207
157 2 Si 6.78351 105.182 4.66654 2.4 -33.4103 6.30653e+06 9.30399e+06 8.42734e+06 415533 107120 1.30342e+06
158 3 O 3.61548 105.176 4.70948 -1.2 -9.41728 -1.6066e+06 -2.88605e+06 -3.29809e+06 413361 254022 -587077
159 3 O 1.15914 101.446 4.76385 -1.2 -9.09734 -2.11009e+06 -4.31078e+06 -2.87106e+06 800484 -508368 -103509
160 3 O 6.12918 104.569 3.32961 -1.2 -8.87156 -3.25558e+06 -2.79367e+06 -2.98939e+06 -170714 1.09254e+06 -599974
161 1 Mg 4.72341 106.272 0.172574 1.2 -7.81721 -456273 4.2177e+06 -532758 891649 1.26565e+06 -2.15453e+06
162 3 O 6.14632 104.42 5.90176 -1.2 -9.12901 -3.16124e+06 -3.01387e+06 -2.57579e+06 7315.85 -370236 90242
163 1 Mg 4.85594 108.981 1.64768 1.2 -8.00875 675560 172008 2.83527e+06 -432659 257141 170344
164 2 Si 2.66961 107.239 1.73732 2.4 -32.8779 3.44081e+06 1.19524e+07 8.48211e+06 -558383 -175319 -201760
165 3 O 5.88251 107.167 1.6976 -1.2 -9.93861 -3.00806e+06 -4.73471e+06 -3.82888e+06 611418 310702 389679
166 3 O 3.84973 110.77 1.64081 -1.2 -9.41766 -1.49835e+06 -4.8055e+06 -3.24656e+06 1.3967e+06 -190952 -580634
167 3 O 3.37994 107.856 0.427052 -1.2 -9.24111 -2.46442e+06 -5.12817e+06 -869536 119029 -716999 1.27807e+06
168 3 O 3.3634 107.809 3.02956 -1.2 -9.50816 -2.36776e+06 -4.23749e+06 -2.90701e+06 90191.4 923869 -1.16424e+06
169 1 Mg 2.38413 111.291 0.131057 1.2 -7.5324 -1.93083e+06 4.12624e+06 -431049 -895116 -1.14638e+06 -2.02848e+06
170 1 Mg 7.04358 114.136 1.59936 1.2 -7.87134 943863 1.0798e+06 2.92376e+06 547951 -1022.78 -437062
171 2 Si 4.50597 112.272 1.58128 2.4 -32.4093 3.50783e+06 1.04359e+07 9.66751e+06 -144961 446803 -928909
172 3 O 6.01753 112.229 1.60387 -1.2 -10.1281 -3.42922e+06 -3.36254e+06 -4.05859e+06 -966799 914402 204293
173 3 O 3.39503 115.983 1.58321 -1.2 -9.52098 -990639 -4.89471e+06 -4.06583e+06 -2.05173e+06 77051.5 478567
174 3 O 3.6852 112.881 0.287809 -1.2 -9.39814 -1.68749e+06 -3.59242e+06 -1.53189e+06 -510374 1.2559e+06 733442
175 1 Mg 2.32968 121.633 2.99379 1.2 -7.77467 -1.31553e+06 3.55851e+06 -180726 -1.16806e+06 1.43057e+06 1.37519e+06
176 3 O 3.80388 112.905 2.8943 -1.2 -9.4232 -1.85191e+06 -3.35305e+06 -1.5939e+06 -7368.28 -1.01075e+06 -376075
177 1 Mg 2.38084 118.763 4.56478 1.2 -7.93302 1.283e+06 493217 2.49474e+06 696130 -238368 -115648
178 2 Si 5.09248 120.671 4.54914 2.4 -32.9534 5.09176e+06 1.02816e+07 7.30444e+06 572260 411760 -1.14338e+06
179 3 O 3.54366 120.798 4.50579 -1.2 -9.60202 -2.12331e+06 -3.71777e+06 -3.58866e+06 -349239 -68770 583260
180 3 O 6.09566 117.024 4.5163 -1.2 -9.69564 -1.84555e+06 -4.75233e+06 -3.50691e+06 -1.27167e+06 233389 678434
181 3 O 5.77912 120.042 3.29622 -1.2 -9.51453 -3.18241e+06 -4.24371e+06 -3.43976e+06 -100939 -392701 -887475
182 3 O 5.72975 120.008 5.82132 -1.2 -9.34182 -2.5795e+06 -3.24549e+06 -3.3986e+06 -90650.1 486116 1.08873e+06
183 1 Mg 4.71704 116.462 3.05477 1.2 -7.44566 -2.06457e+06 3.94094e+06 -629341 584336 -1.14186e+06 1.0842e+06
184 1 Mg 4.64795 113.681 4.63033 1.2 -7.9133 1.42456e+06 1.09134e+06 3.1013e+06 -797972 208895 -4921.67
185 2 Si 6.78656 115.526 4.53375 2.4 -32.3379 3.69147e+06 1.01601e+07 7.80832e+06 -263655 -462347 -1.40807e+06
186 3 O 3.59337 115.571 4.52447 -1.2 -10.0436 -1.65865e+06 -3.38433e+06 -3.98008e+06 -79480.7 31343.4 612493
187 3 O 5.82497 111.812 4.6634 -1.2 -9.43402 -1.57788e+06 -3.50471e+06 -2.82017e+06 1.11045e+06 -455312 37516.6
188 3 O 6.15027 114.859 3.28877 -1.2 -9.63756 -2.71271e+06 -3.97681e+06 -3.42528e+06 -136639 222586 -481522
189 1 Mg 4.78524 116.417 0.161251 1.2 -7.51286 -1.732e+06 4.09366e+06 -391478 676432 1.41937e+06 -1.86412e+06
190 3 O 6.13036 114.881 5.84199 -1.2 -9.45696 -1.95632e+06 -3.16944e+06 -2.79689e+06 12938.4 -539626 710124
191 1 Mg 4.79262 119.37 1.63085 1.2 -7.99537 1.33443e+06 753736 3.26501e+06 -347219 -214400 -329801
192 2 Si 2.63461 117.455 1.56423 2.4 -32.4988 5.43846e+06 1.01328e+07 8.54089e+06 -382044 -95444.3 -580845
193 3 O 5.80673 117.42 1.59728 -1.2 -10.0349 -1.9681e+06 -3.00845e+06 -4.44134e+06 -309792 -107556 403422
194 3 O 3.72125 121.115 1.53734 -1.2 -9.47585 -1.4357e+06 -2.97329e+06 -3.4137e+06 1.31257e+06 309063 -25984.9
195 3 O 3.31204 118.105 0.295897 -1.2 -9.23137 -2.3233e+06 -3.45227e+06 -3.70982e+06 326790 -1.14595e+06 1.17271e+06
196 3 O 3.3511 118.127 2.83259 -1.2 -9.34652 -2.0661e+06 -3.55607e+06 -3.06672e+06 708857 1.2905e+06 -291147
197 1 Mg 2.35137 121.548 0.036014 1.2 -7.40312 -1.06129e+06 4.00224e+06 354843 -1.05865e+06 -1.40478e+06 -1.70209e+06
198 1 Mg 7.12122 124.49 1.44406 1.2 -8.27843 1.41796e+06 232055 3.17438e+06 906734 -169653 -302982
199 2 Si 4.40725 122.666 1.52903 2.4 -32.6634 5.14069e+06 1.01765e+07 9.25285e+06 860740 -766024 -658123
200 3 O 5.95977 122.559 1.5274 -1.2 -9.81473 -1.71277e+06 -3.35182e+06 -4.15634e+06 -272253 -1.10767e+06 600527
201 3 O 3.39171 126.283 1.41747 -1.2 -9.17106 -3.67903e+06 -4.23668e+06 -4.32339e+06 -1.49697e+06 -201292 20146.2
202 3 O 3.79216 123.314 0.24078 -1.2 -9.38364 -3.01271e+06 -2.7794e+06 -3.19977e+06 233973 646460 586683
203 1 Mg 2.25122 132.01 2.92725 1.2 -7.57774 -1.38994e+06 4.38075e+06 -554062 -666817 1.37897e+06 1.69536e+06
204 3 O 3.6543 123.312 2.8025 -1.2 -9.27238 -2.60118e+06 -3.34244e+06 -2.31847e+06 -291801 -794373 300625
205 1 Mg 2.28132 129.051 4.43011 1.2 -8.23585 1.55361e+06 729211 2.17418e+06 714930 -333284 -318864
206 2 Si 4.95379 130.94 4.34889 2.4 -32.7027 4.90788e+06 1.19548e+07 6.82287e+06 62314.7 383059 -819388
207 3 O 3.41042 131.076 4.3603 -1.2 -9.82902 -2.05602e+06 -4.39614e+06 -2.71975e+06 -317981 -324069 139657
208 3 O 6.00485 127.265 4.4575 -1.2 -9.21813 -3.31807e+06 -5.49107e+06 -4.24627e+06 -810321 298273 332515
209 3 O 5.64645 130.243 3.12523 -1.2 -9.41816 -2.6411e+06 -3.39681e+06 -3.53957e+06 -507875 -512864 77586.1
210 3 O 5.61701 130.217 5.63509 -1.2 -9.36978 -2.08192e+06 -3.52964e+06 -2.45399e+06 -394847 640581 662357
211 1 Mg 4.67849 126.742 2.88596 1.2 -7.7352 -1.25233e+06 3.31569e+06 -674138 927706 -1.93462e+06 1.92984e+06
212 1 Mg 4.66521 124.005 4.47336 1.2 -8.19117 1.70302e+06 538415 2.66295e+06 -1.32649e+06 -79062.1 -547172
213 2 Si 6.67458 125.794 4.42373 2.4 -33.063 3.97894e+06 9.97151e+06 7.97074e+06 -437066 -395283 -148744
214 3 O 3.46684 125.891 4.39309 -1.2 -9.61489 -2.57537e+06 -4.32045e+06 -3.79291e+06 305912 -510707 77560.5
215 3 O 5.76125 122.205 4.51905 -1.2 -9.10022 -2.59987e+06 -3.34943e+06 -3.31505e+06 694211 83554.6 -36642.5
216 3 O 6.0534 125.162 3.12038 -1.2 -9.17522 -3.09808e+06 -4.31201e+06 -3.17927e+06 181465 18060.7 -205718
217 1 Mg 4.78082 126.823 -0.00614791 1.2 -7.60556 -1.5724e+06 3.55728e+06 -337475 652469 1.69556e+06 -2.09501e+06
218 3 O 5.97211 125.136 5.67987 -1.2 -9.39677 -2.65792e+06 -4.81204e+06 -2.75715e+06 11001.3 -300554 1.0552e+06
219 1 Mg 4.73439 129.609 1.44981 1.2 -7.94915 1.48246e+06 928828 2.44831e+06 -1.0961e+06 -210196 -644449
220 2 Si 2.67548 127.777 1.46552 2.4 -32.6837 4.11476e+06 1.07656e+07 8.36301e+06 -30360.6 -437112 -361977
221 3 O 5.8886 127.603 1.49461 -1.2 -9.79625 -2.66547e+06 -4.70953e+06 -4.2797e+06 260361 -255400 -46025
222 3 O 3.59635 131.463 1.39431 -1.2 -9.50541 -2.22079e+06 -2.84499e+06 -2.81011e+06 819113 -520738 208999
223 3 O 3.39597 128.455 0.222177 -1.2 -9.49705 -1.8065e+06 -4.27595e+06 -3.19774e+06 381653 -702563 933816
224 3 O 3.34496 128.404 2.76249 -1.2 -9.33435 -2.47666e+06 -3.86473e+06 -2.83475e+06 18449.4 453486 -155100
225 1 Mg 2.33407 132.022 -0.0617988 1.2 -7.52145 -2.2904e+06 4.02109e+06 -510482 -973957 -1.95484e+06 -1.71068e+06
226 1 Mg 7.03559 134.883 1.51644 1.2 -8.05109 1.94891e+06 603337 2.68436e+06 1.11652e+06 333030 -418872
227 2 Si 4.31118 132.974 1.38056 2.4 -32.6062 4.671e+06 1.14572e+07 7.40466e+06 609312 -254360 160070
228 3 O 5.87321 132.843 1.45934 -1.2 -9.75346 -1.14352e+06 -4.28733e+06 -3.70054e+06 527904 189842 -184528
229 3 O 3.34254 136.698 1.4392 -1.2 -9.50513 -1.94805e+06 -4.36714e+06 -3.36274e+06 -798706 -473989 30408.8
230 3 O 3.69017 133.654 0.122699 -1.2 -9.50423 -2.76704e+06 -3.69176e+06 -3.36604e+06 -149134 295958 415002
231 1 Mg 2.17449 142.18 2.89118 1.2 -7.87398 -654542 3.66211e+06 458442 -489987 491048 1.72821e+06
232 3 O 3.6906 133.724 2.64867 -1.2 -9.2496 -3.05559e+06 -3.00616e+06 -2.24094e+06 -222881 -365544 54521.8
233 1 Mg 2.26473 139.459 4.41711 1.2 -8.27274 2.24626e+06 351422 2.82681e+06 651487 -77386.2 -161418
234 2 Si 4.86469 141.301 4.38847 2.4 -32.9467 5.87174e+06 1.105e+07 1.01702e+07 510833 606792 120013
235 3 O 3.28811 141.345 4.34666 -1.2 -9.72391 -1.51142e+06 -4.4038e+06 -3.74948e+06 377028 -317535 -329068
236 3 O 5.99819 137.589 4.40997 -1.2 -9.21129 -3.11245e+06 -3.83241e+06 -3.14211e+06 -821768 -155918 -127882
237 3 O 5.59231 140.571 3.14036 -1.2 -9.14406 -3.4702e+06 -3.80045e+06 -1.18824e+06 -1.11426e+06 -1.36743e+06 -445504
238 3 O 5.52591 140.688 5.78028 -1.2 -9.15511 -2.29517e+06 -3.80364e+06 -973034 -932368 1.50345e+06 172168
239 1 Mg 4.64514 137.161 2.89714 1.2 -7.81823 -1.19404e+06 4.33822e+06 -414806 871445 -1.7829e+06 1.50199e+06
240 1 Mg 4.69282 134.278 4.43188 1.2 -8.1978 900592 672711 2.06473e+06 -1.22452e+06 462731 69606.3
241 2 Si 6.70664 136.116 4.46888 2.4 -32.8572 5.2768e+06 1.05853e+07 7.92299e+06 -354024 556422 5843.88
242 3 O 3.48705 136.256 4.3938 -1.2 -9.61554 -2.40609e+06 -4.31714e+06 -3.30282e+06 370982 -28767 -328065
243 3 O 5.65957 132.441 4.40408 -1.2 -9.40931 -2.71991e+06 -4.24251e+06 -2.98373e+06 1.68807e+06 466278 289064
244 3 O 6.02353 135.402 3.17701 -1.2 -9.19988 -3.26981e+06 -3.79835e+06 -1.50513e+06 6228.87 704934 -716755
245 1 Mg 4.75209 137.138 -0.0987216 1.2 -7.56718 -904611 4.12166e+06 528320 851396 1.34587e+06 -1.88651e+06
246 3 O 6.01708 135.453 5.73924 -1.2 -9.6241 -2.55783e+06 -3.61635e+06 -3.07096e+06 84514.8 -917834 237126
247 1 Mg 4.72629 139.989 1.32478 1.2 -8.379 1.1905e+06 210127 3.77948e+06 -1.13453e+06 66070.7 -603525
248 2 Si 2.66462 138.176 1.44997 2.4 -32.8553 5.24217e+06 9.70807e+06 8.96328e+06 63100.5 -742478 -274416
249 3 O 5.85458 138.103 1.47249 -1.2 -9.73932 -1.77161e+06 -3.1468e+06 -3.70142e+06 406125 95722.1 -265463
250 3 O 3.67858 141.8 1.31314 -1.2 -8.90521 -1.75545e+06 -3.25749e+06 -3.06183e+06 1.42528e+06 174122 45508.1
251 3 O 3.34656 138.863 0.14042 -1.2 -9.30108 -1.8889e+06 -2.84751e+06 -2.60958e+06 -201553 -948107 404269
252 3 O 3.32591 138.877 2.7013 -1.2 -9.0359 -3.6709e+06 -3.64867e+06 -2.67051e+06 -286931 162056 -322403
253 1 Mg 2.28576 142.29 -0.167588 1.2 -7.78077 -461152 3.27585e+06 542820 -881982 -1.37612e+06 -1.67181e+06
254 1 Mg 6.89039 145.053 1.33591 1.2 -8.42469 1.49215e+06 32518.2 3.97914e+06 317021 18258 -177708
255 2 Si 4.36376 143.343 1.35554 2.4 -33.418 4.70599e+06 1.02201e+07 9.41127e+06 135573 -589732 192078
256 3 O 5.8758 143.21 1.38806 -1.2 -9.72459 -4.29927e+06 -3.12686e+06 -3.89413e+06 -886093 -399847 -314793
257 3 O 3.25753 146.897 1.34557 -1.2 -9.19053 -3.62731e+06 -4.8687e+06 -3.59124e+06 -665833 228901 -158776
258 3 O 3.66891 144.007 0.105179 -1.2 -8.9888 -2.40157e+06 -3.60164e+06 -3.64557e+06 -31387.3 703470 1.05721e+06
259 1 Mg 1.39821 152.205 1.81134 1.2 -7.4393 -1.89148e+06 -1.3363e+06 2.3593e+06 -277819 287124 -552223
260 3 O 3.61852 143.979 2.63729 -1.2 -8.86264 -2.50377e+06 -2.727e+06 -3.21359e+06 -107056 -995582 -407034
261 1 Mg 1.64195 150.24 4.88393 1.2 -8.21112 -1.92297e+06 3.67491e+06 500047 14265.7 -7842.73 1.66605e+06
262 2 Si 3.75827 150.573 3.01793 2.4 -33.6779 8.44108e+06 6.91815e+06 4.63851e+06 -534891 -390241 -966598
263 3 O 2.35821 151.234 3.28 -1.2 -8.48924 -5.76889e+06 -3.49776e+06 -4.63233e+06 201660 1.69202e+06 -1.60446e+06
264 3 O 5.94226 147.928 4.31165 -1.2 -8.6885 -2.05449e+06 -3.2756e+06 -3.08733e+06 -1.94256e+06 -6843.89 -101491
265 3 O 4.44383 151.404 1.89108 -1.2 -9.12347 -6.45154e+06 -1.06024e+06 -6.88107e+06 236211 194010 515197
266 3 O 4.57682 150.576 4.27797 -1.2 -8.86449 -7.18392e+06 -4.12254e+06 -5.62019e+06 -1.14172e+06 -139683 1.35726e+06
267 1 Mg 4.63195 147.301 2.82993 1.2 -7.95497 -520606 2.76518e+06 349954 1.42638e+06 -1.4128e+06 1.18971e+06
268 1 Mg 4.52325 144.57 4.36357 1.2 -8.54299 2.2298e+06 262312 3.14278e+06 -774729 71861.3 28064.2
269 2 Si 6.63354 146.385 4.38809 2.4 -33.5897 6.88243e+06 1.07814e+07 9.36339e+06 -661888 -785683 -1.01843e+06
270 3 O 3.45724 146.476 4.39079 -1.2 -9.44401 -2.1274e+06 -2.77425e+06 -4.08745e+06 707889 -942474 317290
271 3 O 5.59733 142.758 4.3703 -1.2 -9.1236 -2.45554e+06 -3.79529e+06 -3.80664e+06 1.21597e+06 -52016.6 20758.5
272 3 O 5.9906 145.774 3.07381 -1.2 -9.015 -3.48875e+06 -4.20154e+06 -2.73439e+06 473762 900102 -376522
273 1 Mg 4.60715 147.393 -0.131981 1.2 -7.93959 -989498 4.05373e+06 564893 401569 1.12634e+06 -1.46586e+06
274 3 O 5.86259 145.753 5.64571 -1.2 -8.78737 -3.11168e+06 -2.6853e+06 -2.69039e+06 653251 -1.24558e+06 465182
275 1 Mg 3.88569 151.109 0.103641 1.2 -7.9921 1.63202e+06 1.34673e+06 -3.30553e+06 -487281 -140531 -579321
276 2 Si 2.54515 148.311 1.34016 2.4 -33.329 6.88466e+06 7.74092e+06 8.76065e+06 99030 -1.38333e+06 -1.65674e+06