ITEM: TIMESTEP
64200
ITEM: NUMBER OF ATOMS
5600
ITEM: BOX BOUNDS xy xz yz pp pp pp
0.0000000000000000e+00 7.1234999999999999e+00 0.0000000000000000e+00
0.0000000000000000e+00 2.0198500000000001e+02 2.3744999999999998e+00
0.0000000000000000e+00 1.1958400000000000e+02 0.0000000000000000e+00
ITEM: ATOMS id type element xu yu zu q c_pe c_s[1] c_s[2] c_s[3] c_s[4] c_s[5] c_s[6]
1 1 Mg -1.56049 47.4319 -0.672997 1.2 -7.00791 -1.11263e+06 -1.1993e+06 3.69644e+06 1.53785e+06 694384 -57549.9
2 1 Mg 3.00403 50.8259 1.54546 1.2 -8.35743 1.40027e+06 147424 -972934 -363533 -1.20876e+06 -751102
3 2 Si 0.992381 49.1987 0.0638435 2.4 -33.7017 8.83385e+06 6.47673e+06 1.151e+07 -2.16107e+06 732738 -1.08226e+06
4 3 O 1.96838 48.105 0.588183 -1.2 -8.58169 -2.4189e+06 -1.12965e+06 -4.7103e+06 -1.14897e+06 -1.03744e+06 456858
5 3 O -1.25027 52.8464 1.10487 -1.2 -9.77569 -3.47761e+06 -2.39137e+06 -3.20486e+06 -1.08744e+06 721437 389656
6 3 O 0.11723 48.5243 -1.06323 -1.2 -9.28181 -1.98992e+06 -243658 -3.74227e+06 1.91885e+06 -1.13634e+06 765520
7 1 Mg -2.17172 58.4054 2.90147 1.2 -7.56917 -149601 3.66665e+06 771834 -1.22428e+06 859823 818781
8 3 O -0.00815687 49.9479 1.14988 -1.2 -8.15346 -4.00512e+06 -1.90991e+06 -7.39303e+06 -2.24285e+06 992987 1.04775e+06
9 1 Mg -1.95217 55.4422 4.08857 1.2 -8.47287 1.69492e+06 -931474 3.04245e+06 375984 611348 -1.2783e+06
10 2 Si 0.596349 57.2844 4.39594 2.4 -33.6592 6.34564e+06 9.7023e+06 9.10798e+06 -562568 207209 -2.06215e+06
11 3 O -0.9682 57.386 4.28268 -1.2 -9.496 -2.44176e+06 -1.7596e+06 -4.74234e+06 -1.17238e+06 483201 650366
12 3 O 1.73339 53.7678 4.31818 -1.2 -8.69832 -3.13891e+06 -4.01816e+06 -3.89905e+06 -2.70156e+06 557050 -1.14413e+06
13 3 O 1.27532 56.7089 3.08718 -1.2 -9.04256 -3.20318e+06 -1.55433e+06 -5.30699e+06 780849 -665136 718984
14 3 O 1.3193 56.4814 5.53055 -1.2 -8.20786 -4.22549e+06 -3.16946e+06 -3.6933e+06 -762895 1.2149e+06 564135
15 1 Mg 0.31634 53.5326 2.67158 1.2 -7.72638 -1.85413e+06 2.5806e+06 1.45627e+06 231531 263087 1.61625e+06
16 1 Mg 0.379625 50.2441 2.9495 1.2 -8.67858 1.50331e+06 -1.13867e+06 -1.60669e+06 -846820 -369188 163588
17 2 Si 2.48928 52.2572 3.98616 2.4 -33.8188 1.09985e+07 1.21436e+07 8.49736e+06 -984976 1.35206e+06 1.64179e+06
18 3 O -0.735059 52.4327 4.07665 -1.2 -8.94187 -3.79845e+06 -4.52248e+06 -2.87392e+06 260222 1.66151e+06 -1.09336e+06
19 3 O 3.17755 49.9414 3.18175 -1.2 -6.52172 -5.44599e+06 670999 -6.17283e+06 423433 1.12144e+06 -54368.6
20 3 O 1.47744 51.8298 2.73856 -1.2 -8.45559 -3.73256e+06 -5.01049e+06 -5.51333e+06 1.84647e+06 2.07119e+06 616719
21 1 Mg -0.00266173 53.3401 -0.362414 1.2 -7.21546 -1.67482e+06 2.57697e+06 1.70326e+06 -276583 1.42823e+06 -2.51782e+06
22 3 O 1.81631 51.3149 5.24332 -1.2 -8.9355 -5.44947e+06 -5.4157e+06 -4.10068e+06 1.85567e+06 -3.00044e+06 -2.7052e+06
23 1 Mg 0.214034 56.1199 1.31049 1.2 -8.04776 774205 -195209 4.24174e+06 -880953 630200 31490.3
24 2 Si -1.91794 54.311 1.00458 2.4 -31.5475 6.36222e+06 1.01423e+07 1.14522e+07 1.56956e+06 308469 -1.6847e+06
25 3 O 1.17258 54.2628 1.0862 -1.2 -10.1571 1.29343e+06 -4.24054e+06 -4.09141e+06 408122 -27597.5 1.36272e+06
26 3 O -0.727514 58.1795 1.34685 -1.2 -8.87621 -3.43817e+06 -3.07778e+06 -4.12532e+06 498249 -229495 294068
27 3 O -1.19268 55.0774 -0.257969 -1.2 -9.28194 -201794 -1.22634e+06 -4.6926e+06 439467 -1.13039e+06 -9224.3
28 3 O -1.22353 55.0554 2.34089 -1.2 -9.61464 -1.79206e+06 -2.79274e+06 -3.60489e+06 1.35056e+06 2.78482e+06 -116286
29 1 Mg -2.18984 58.5454 0.0916083 1.2 -7.91528 66484.3 2.8855e+06 190903 -785713 -1.64948e+06 320198
30 1 Mg 2.55251 61.7053 1.56887 1.2 -8.08315 888266 374488 953086 588683 608912 -8588.99
31 2 Si -0.112163 59.7089 1.56 2.4 -33.5942 3.06528e+06 9.03227e+06 7.26057e+06 -759737 -755928 1.66927e+06
32 3 O 1.32253 59.5112 1.51477 -1.2 -9.3577 -8.07024e+06 -3.10059e+06 -3.2576e+06 -1.98499e+06 -1.36732e+06 -810216
33 3 O -1.14773 63.48 1.45261 -1.2 -10.2699 -632955 -7.54518e+06 -2.70136e+06 -1.4904e+06 387463 -1.49269e+06
34 3 O -0.807608 60.5386 0.485753 -1.2 -8.52964 -2.61199e+06 -4.2704e+06 -5.78243e+06 1.20198e+06 92514.5 945975
35 1 Mg -2.37385 69.2238 3.10552 1.2 -7.67056 -898937 3.55276e+06 127562 -1.33262e+06 1.67796e+06 3.43093e+06
36 3 O -1.02026 60.3036 2.80733 -1.2 -9.10779 -1.30973e+06 -1.07557e+06 -5.6728e+06 -24446.1 -781704 85134.7
37 1 Mg -2.23414 66.3067 4.70786 1.2 -7.79614 -82936.7 1.64058e+06 4.82928e+06 480870 -135048 -381232
38 2 Si 0.366439 68.1562 4.62292 2.4 -31.8163 5.24382e+06 1.21727e+07 8.81627e+06 -1.58875e+06 -1.0666e+06 1.76448e+06
39 3 O -1.21811 68.3767 4.62495 -1.2 -10.0172 -482324 -4.53135e+06 -3.70637e+06 -1.15013e+06 -794014 105384
40 3 O 1.57344 64.2097 4.56633 -1.2 -9.38203 -2.28367e+06 -4.53461e+06 -4.11697e+06 -1.17974e+06 550606 -1.54187e+06
41 3 O 1.18041 67.4233 3.26238 -1.2 -9.00327 -990445 -1.51128e+06 -1.40431e+06 -599107 -1.8106e+06 273055
42 3 O 0.936733 67.3285 5.81543 -1.2 -9.91313 -1.7553e+06 -3.249e+06 -3.35252e+06 -1057.72 1.00219e+06 648258
43 1 Mg 0.308435 64.0437 3.01608 1.2 -7.22883 -882100 4.66799e+06 -716446 435880 -853531 1.34571e+06
44 1 Mg -0.0901005 60.8359 4.51043 1.2 -7.58812 1.78631e+06 1.4706e+06 1.24401e+06 -691140 952420 217001
45 2 Si 2.25592 62.7067 4.52512 2.4 -32.6209 1.45081e+06 1.16719e+07 6.09029e+06 723537 -321537 859305
46 3 O -0.97253 62.9095 4.58748 -1.2 -10.1505 -4.3219e+06 -3.36631e+06 -2.44584e+06 319131 -859768 -540935
47 3 O 1.22164 58.8399 4.48239 -1.2 -9.13353 -1.97371e+06 -3.14991e+06 -4.86305e+06 478446 -1.38521e+06 -750181
48 3 O 1.64756 62.2771 3.13655 -1.2 -9.29992 -2.11043e+06 -4.80007e+06 -4.75535e+06 722899 1.18665e+06 -2.5169e+06
49 1 Mg -0.15255 63.8924 -0.165698 1.2 -6.60909 -2.39857e+06 5.61213e+06 -1.13443e+06 488552 1.30322e+06 -957073
50 3 O 1.64346 61.7978 5.59276 -1.2 -9.34641 -231098 -4.49359e+06 -3.95043e+06 215531 878015 1.0195e+06
51 1 Mg 0.0228397 66.6985 1.68695 1.2 -8.48283 2.46812e+06 -445668 2.52472e+06 -665696 174926 -995134
52 2 Si -1.97496 64.808 1.47795 2.4 -31.8033 1.8571e+06 1.25312e+07 7.68913e+06 13849.9 1.68465e+06 7516.2
53 3 O 1.2971 65.0841 1.555 -1.2 -9.87388 -3.26005e+06 -4.4024e+06 -3.36363e+06 -1.4271e+06 302593 -132059
54 3 O -0.862514 68.5924 1.5637 -1.2 -9.09601 -3.50618e+06 -1.75702e+06 -2.52745e+06 -223607 686221 -1.6205e+06
55 3 O -1.36994 65.7202 0.255853 -1.2 -9.46192 -3.79213e+06 -1.53722e+06 -2.36501e+06 432001 -238292 258858
56 3 O -1.2216 65.5567 2.88274 -1.2 -8.95319 -2.53332e+06 -2.45369e+06 425743 838935 1.28398e+06 2.139e+06
57 1 Mg -2.17558 69.1074 -0.102126 1.2 -7.6927 -142271 3.60239e+06 -336675 -947171 -1.86073e+06 -2.29622e+06
58 1 Mg 2.63229 71.8532 1.57638 1.2 -7.43867 695735 7794.82 3.29939e+06 2.25145e+06 61158.7 143737
59 2 Si -0.311778 70.1214 1.5903 2.4 -32.2119 4.34703e+06 1.02418e+07 1.13256e+07 1.07305e+06 -482616 190615
60 3 O 1.26711 70.0322 1.5487 -1.2 -9.6178 907748 -4.42767e+06 -3.16308e+06 -1.12166e+06 -76571.3 -602934
61 3 O -1.20249 73.8768 1.36947 -1.2 -10.0271 -2.38597e+06 -5.84704e+06 -3.12369e+06 314638 635437 -2.07639e+06
62 3 O -0.982488 70.9057 0.245404 -1.2 -9.65414 -2.70405e+06 -1.8493e+06 1.2099e+06 -270420 1.23014e+06 -1.23466e+06
63 1 Mg -2.54055 79.3076 2.97612 1.2 -7.03503 -923790 2.49272e+06 488943 -1.43393e+06 1.17328e+06 1.45469e+06
64 3 O -0.938 70.6231 2.98313 -1.2 -9.49272 -3.01199e+06 -4.49364e+06 -669993 152964 -401811 -1.32701e+06
65 1 Mg -2.39785 76.7652 4.15658 1.2 -7.43337 -60450.5 174377 3.1809e+06 1.04758e+06 496601 -1.14122e+06
66 2 Si 0.197197 78.378 4.52924 2.4 -32.2251 1.87407e+06 1.18565e+07 7.82351e+06 1.46251e+06 -1.00979e+06 -1.11164e+06
67 3 O -1.3812 78.5239 4.49847 -1.2 -10.1824 -1.36313e+06 -4.11171e+06 -3.47279e+06 461208 -791628 1.81451e+06
68 3 O 1.27911 74.7645 4.41436 -1.2 -9.37159 -2.7327e+06 -6.2509e+06 -7.72912e+06 -2.65093e+06 -1.34849e+06 -98873.5
69 3 O 0.867521 77.8521 3.11353 -1.2 -9.95726 -967152 -5.15396e+06 -1.57562e+06 -187587 -1.35781e+06 635459
70 3 O 0.635783 77.6564 5.73377 -1.2 -9.01241 -4.66804e+06 -6.16342e+06 -2.91737e+06 1.48625e+06 -809715 2.78265e+06
71 1 Mg 0.21605 74.2732 2.99673 1.2 -7.12754 -2.33664e+06 3.69963e+06 -722148 170529 -3.03326e+06 725186
72 1 Mg 0.11235 71.5856 4.71353 1.2 -8.29656 1.52465e+06 809280 2.94457e+06 -555359 -135308 2.25668e+06
73 2 Si 2.185 73.4685 4.59692 2.4 -32.5808 5.34775e+06 9.87617e+06 1.07677e+07 -578271 967105 2.83949e+06
74 3 O -1.03353 73.3177 4.64467 -1.2 -9.69184 -3.07759e+06 -3.55097e+06 -4.24302e+06 -934936 447377 -388202
75 3 O 1.02199 69.6769 4.72424 -1.2 -9.55443 -3.76615e+06 -1.422e+06 -2.58278e+06 1.51576e+06 -586477 -89431.9
76 3 O 1.48238 72.563 3.22023 -1.2 -9.19879 -66057.3 -1.72264e+06 634864 1.1241e+06 854744 -225482
77 1 Mg 0.223258 74.4156 -0.0445144 1.2 -7.2238 -3.40789e+06 3.68887e+06 -772073 752600 1.2217e+06 -2.17409e+06
78 3 O 1.47255 72.9336 5.92853 -1.2 -8.69409 -5.61249e+06 -3.67113e+06 -2.82125e+06 235436 -2.36198e+06 -27340.4
79 1 Mg 0.0280312 77.1654 1.33279 1.2 -7.54023 -643129 1.09692e+06 2.52046e+06 -2.11214e+06 -204154 213167
80 2 Si -1.87131 75.2472 1.3742 2.4 -31.8443 3.47776e+06 7.52163e+06 9.12798e+06 -177265 143409 -1.25942e+06
81 3 O 1.29587 75.3216 1.43766 -1.2 -9.96784 -408143 -3.46145e+06 -5.078e+06 -517445 -1.08585e+06 -668780
82 3 O -0.959776 79.1604 1.58096 -1.2 -9.72491 -3.54882e+06 -3.36445e+06 -1.18256e+06 -2628.25 -457818 945307
83 3 O -1.21156 76.1173 0.149231 -1.2 -9.83915 -3.53487e+06 -2.49494e+06 -3.27742e+06 -1.08937e+06 -1.57539e+06 -1.24492e+06
84 3 O -1.38266 75.8492 2.75675 -1.2 -9.72704 -3.32353e+06 -3.00494e+06 -3.12601e+06 -510343 -268144 -1.44129e+06
85 1 Mg -2.22826 79.7521 -0.139132 1.2 -6.80182 -1.72935e+06 2.78662e+06 -366552 -268269 -374406 -2.61884e+06
86 1 Mg 2.29639 82.5868 1.14241 1.2 -7.51089 784802 -322611 4936.39 1.78743e+06 -1.27498e+06 1.12775e+06
87 2 Si -0.358042 80.6421 1.57615 2.4 -32.7367 3.01221e+06 1.05965e+07 8.57206e+06 -512447 -1.08702e+06 1.00987e+06
88 3 O 1.13794 80.4445 1.46632 -1.2 -9.62298 -2.75953e+06 -4.49117e+06 -2.30994e+06 -1.34449e+06 -568763 -439917
89 3 O -1.58293 84.6033 1.49936 -1.2 -9.59468 -247398 -9.56543e+06 -4.09625e+06 -917024 -56643.1 1.1243e+06
90 3 O -0.996999 81.3037 0.242831 -1.2 -9.74927 -2.51104e+06 -2.3011e+06 -2.20241e+06 136452 32709.3 851067
91 1 Mg -2.24792 90.3086 2.99986 1.2 -6.51217 -4.91171e+06 4.43857e+06 -903448 -19411.6 1.13057e+06 992469
92 3 O -0.946925 81.5098 2.85337 -1.2 -9.05507 -3.13127e+06 -2.26429e+06 -892417 -1.18283e+06 -1.01954e+06 412016
93 1 Mg -2.5058 87.175 4.60488 1.2 -8.13461 2.44643e+06 2.1275e+06 1.36888e+06 1.77291e+06 -466493 1.02947e+06
94 2 Si 0.449798 89.2037 4.73041 2.4 -32.2483 1.05797e+07 1.15502e+07 5.48739e+06 1.80487e+06 -160614 -304065
95 3 O -1.22656 89.0791 4.83906 -1.2 -8.97768 662234 -4.18061e+06 -1.83184e+06 1.49787e+06 1.29117e+06 -36063.4
96 3 O 1.45492 85.1175 4.33613 -1.2 -9.29563 -3.32991e+06 -3.30609e+06 -2.11952e+06 -1.71713e+06 549954 822726
97 3 O 0.967814 88.3048 3.50589 -1.2 -9.81114 -3.66825e+06 -1.0695e+06 -3.96696e+06 -761884 -1.60212e+06 144807
98 3 O 1.24914 88.5881 5.97406 -1.2 -8.7746 -4.91082e+06 -3.99944e+06 -1.58445e+06 -1.92294e+06 1.4118e+06 496659
99 1 Mg 0.098782 84.9138 2.75196 1.2 -7.16345 -1.67239e+06 3.39708e+06 -624202 -1.0394e+06 652755 1.86549e+06
100 1 Mg -0.140384 81.9654 4.54774 1.2 -8.22641 -461286 920216 529895 -768875 -128767 -169273
101 2 Si 2.22476 83.6406 4.19004 2.4 -32.5996 5.90903e+06 1.14898e+07 1.05209e+07 1.43624e+06 427557 29063.6
102 3 O -1.03334 83.8385 4.39515 -1.2 -9.80133 -4.15906e+06 -5.30979e+06 -3.36529e+06 1.25974e+06 571865 -574065
103 3 O 0.971415 79.9061 4.57825 -1.2 -9.32993 -1.95154e+06 -3.56109e+06 -2.2244e+06 1.5495e+06 -6358.27 171022
104 3 O 1.32987 83.1038 2.81716 -1.2 -9.00454 -2.06907e+06 -3.17767e+06 146706 -720495 3.16172e+06 -296883
105 1 Mg -0.00294288 85.0333 0.0316144 1.2 -6.68512 -1.89447e+06 4.60947e+06 -185257 -17448.5 -209427 -1.93027e+06
106 3 O 1.51244 82.8616 5.54068 -1.2 -8.82659 -1.55228e+06 -3.52193e+06 2.17012e+06 350011 -1.2656e+06 -129649
107 1 Mg -0.0924554 87.7682 1.95704 1.2 -7.33369 -923791 -786950 3.99585e+06 -24807.2 -880187 -1.37732e+06
108 2 Si -2.30511 85.9769 1.53991 2.4 -32.1637 -1.87388e+06 6.582e+06 1.23748e+07 -677154 516465 -3.22468e+06
109 3 O 1.00162 85.9961 1.48979 -1.2 -10.6316 -8.59391e+06 -3.32505e+06 -6.5726e+06 134435 1.07858e+06 2.79647e+06
110 3 O -0.848192 89.8012 1.7732 -1.2 -10.8447 -551931 -4.08998e+06 -3.3277e+06 1.3914e+06 1.19487e+06 433987
111 3 O -1.55595 86.6152 0.220129 -1.2 -8.80858 -2.32841e+06 -3.46786e+06 -4.64661e+06 239324 -1.84078e+06 2.84035e+06
112 3 O -1.44958 86.5597 2.81052 -1.2 -9.20073 -688660 -4.46584e+06 -5.08874e+06 -519017 1.07843e+06 -1.24534e+06
113 1 Mg -2.32526 90.2377 0.309692 1.2 -6.42958 -2.22476e+06 4.5651e+06 -1.31e+06 -468189 -1.01827e+06 -1.58942e+06
114 1 Mg 2.50224 93.2508 1.673 1.2 -7.43764 -679042 1.35828e+06 1.63256e+06 650152 -791886 538222
115 2 Si -0.165969 91.2393 1.73955 2.4 -30.3798 1.56098e+06 9.83292e+06 1.04625e+07 -938451 -841579 467166
116 3 O 1.38751 91.1927 1.75033 -1.2 -10.9182 -861553 -4.21115e+06 -5.84685e+06 -676349 -1.5166e+06 443076
117 3 O -1.40418 95.2778 1.60022 -1.2 -9.8489 -2.44261e+06 -4.35068e+06 -3.97645e+06 -2.20245e+06 -399854 -1.63505e+06
118 3 O -0.869551 91.9544 0.483971 -1.2 -10.4102 -1.14631e+06 -1.35873e+06 -2.84096e+06 108031 1.05942e+06 183904
119 1 Mg -2.22929 100.784 3.10526 1.2 -7.69413 106816 5.01977e+06 -2.22997e+06 -918850 919199 431743
120 3 O -0.959842 92.0366 3.05713 -1.2 -9.69697 -1.0315e+06 -1.31461e+06 -1.62845e+06 -649916 -1.01003e+06 926005
121 1 Mg -2.41019 98.0894 4.60912 1.2 -8.20708 1.49235e+06 1.02966e+06 3.55848e+06 1.34342e+06 -115769 -694950
122 2 Si 0.362683 99.922 4.58533 2.4 -32.8997 2.35275e+06 1.24489e+07 8.76431e+06 -463673 -422723 -2.95402e+06
123 3 O -1.17401 100.074 4.66647 -1.2 -9.78899 -2.50925e+06 -4.88916e+06 -3.3566e+06 -1.09875e+06 -581801 1.09101e+06
124 3 O 1.3255 96.1777 4.82877 -1.2 -9.10198 -557645 512271 -2.07899e+06 -693603 -34203.5 329143
125 3 O 1.07477 99.1931 3.37983 -1.2 -9.41074 -1.96403e+06 -5.07025e+06 -1.00268e+06 761937 -738406 1.02591e+06
126 3 O 0.995354 99.2482 5.9464 -1.2 -8.88551 -3.56502e+06 -3.85378e+06 -2.49491e+06 742523 1.62045e+06 831022
127 1 Mg -0.165198 95.4821 3.11232 1.2 -7.26036 200774 4.59548e+06 -691722 701919 -1.3976e+06 484263
128 1 Mg 0.0651122 92.604 4.70644 1.2 -7.56997 1.64e+06 806508 -278731 -2.19139e+06 544029 -1.44194e+06
129 2 Si 1.95198 94.5721 4.81097 2.4 -31.9232 4.75161e+06 1.47075e+07 8.16667e+06 -1.96831e+06 -1.07983e+06 -1.56341e+06
130 3 O -1.15341 94.5975 4.69058 -1.2 -9.88715 2.03666e+06 -4.62207e+06 -1.77107e+06 -761731 -1.3977e+06 19028.8
131 3 O 1.23902 90.6617 4.62498 -1.2 -9.67493 -1.93503e+06 -4.29653e+06 -3.65429e+06 2.4472e+06 -1.22079e+06 2.24428e+06
132 3 O 1.49952 93.8938 3.44468 -1.2 -9.79779 -2.57345e+06 -2.92653e+06 796544 -199969 -554988 1.34353e+06
133 1 Mg 0.0193271 95.3884 0.184897 1.2 -6.62523 -1.64408e+06 2.10097e+06 613179 607595 1.10821e+06 -1.2243e+06
134 3 O 1.36163 93.921 6.17368 -1.2 -9.8725 -860248 -5.00088e+06 474479 -17270.7 -817736 1.2998e+06
135 1 Mg 0.0716691 98.4868 1.39303 1.2 -7.73956 -41345 1.45912e+06 2.40607e+06 -1.18006e+06 942622 256963
136 2 Si -2.14435 96.7517 1.60151 2.4 -33.0693 3.24778e+06 8.18506e+06 7.65811e+06 300484 -126723 -461970
137 3 O 1.06031 96.6152 1.70501 -1.2 -9.79297 -3.20348e+06 -2.20358e+06 -3.31092e+06 80747.1 504348 -306855
138 3 O -0.945856 100.367 1.60365 -1.2 -9.19965 -2.23831e+06 -985111 -2.37171e+06 2.08132e+06 -471718 563468
139 3 O -1.67175 97.6233 0.419813 -1.2 -9.40866 -1.96345e+06 -1.51569e+06 -5.50872e+06 -1.23161e+06 -108074 157664
140 3 O -1.48401 97.3834 2.82543 -1.2 -8.77327 -3.79415e+06 -3.68288e+06 -4.9332e+06 -176607 -473363 -359978
141 1 Mg -2.48365 100.288 0.34471 1.2 -7.12254 -516651 3.44565e+06 1.01387e+06 -1.2286e+06 -1.24951e+06 -1.80045e+06
142 1 Mg 6.97564 103.907 1.51084 1.2 -8.26166 1.14743e+06 963482 3.2076e+06 736070 -642522 580984
143 2 Si -0.345801 102.097 1.48335 2.4 -32.5716 1.10542e+07 9.70874e+06 1.16551e+07 -1.5629e+06 1.85241e+06 1.07511e+06
144 3 O 1.33678 101.771 1.68325 -1.2 -9.20325 1.22996e+06 -256479 -3.00056e+06 -3.22224e+06 1.15376e+06 -423189
145 3 O 3.38547 105.804 1.76708 -1.2 -8.65786 -3.36811e+06 -6.47685e+06 -3.41847e+06 -1.01092e+06 44597.9 -926651
146 3 O -1.08323 102.567 0.149188 -1.2 -9.25663 -350143 -657777 -1.44098e+06 -159268 1.68952e+06 -813931
147 1 Mg 2.53155 111.667 3.50209 1.2 -7.9963 -779249 5.03423e+06 731931 -337049 -219627 47803.9
148 3 O -1.08448 102.788 2.74417 -1.2 -8.57208 -3.59161e+06 -1.98126e+06 1.08773e+06 -510826 -2.0556e+06 -298947
149 1 Mg 2.40613 108.455 4.96903 1.2 -8.55914 2.70847e+06 1.28523e+06 -496508 1.38166e+06 -470578 94657.6
150 2 Si 5.05683 110.349 4.80423 2.4 -33.504 3.34473e+06 1.45899e+07 5.33492e+06 634331 -1.95173e+06 -377089
151 3 O 3.62268 110.562 4.90878 -1.2 -9.21604 -6.31161e+06 -6.80511e+06 -2.48714e+06 1.02471e+06 -1.7542e+06 -346306
152 3 O 5.94535 106.584 5.00132 -1.2 -8.65413 -4.08595e+06 -6.45212e+06 -3.52393e+06 -1.35954e+06 1.52856e+06 1.09327e+06
153 3 O 5.84136 109.629 3.56142 -1.2 -8.80209 -1.79291e+06 -3.08324e+06 -420133 114835 -445233 2.07136e+06
154 3 O 5.61265 109.494 6.02979 -1.2 -8.81523 -3.86603e+06 -4.91711e+06 -2.54785e+06 206652 821447 1.24363e+06
155 1 Mg 4.63839 106.098 3.35887 1.2 -8.65303 -50461.9 4.26595e+06 -2.00384e+06 557734 -857111 2.13572e+06
156 1 Mg -0.0366122 103.259 4.94332 1.2 -8.47579 1.01112e+06 384725 944390 -1.35073e+06 1.0046e+06 793555
157 2 Si 6.68709 105.161 4.84895 2.4 -34.1001 8.91244e+06 1.0914e+07 7.47983e+06 -597498 -402378 -971019
158 3 O 3.55766 105.245 4.83428 -1.2 -8.91354 -1.37506e+06 -4.30288e+06 -3.01185e+06 -496742 -68750.9 1.10997e+06
159 3 O 0.969454 101.428 4.58354 -1.2 -9.07948 -3.47337e+06 -4.30453e+06 -3.8849e+06 52334.2 -14109.7 2.06035e+06
160 3 O 6.07365 104.512 3.52081 -1.2 -8.40018 -4.22599e+06 -3.8817e+06 542302 733828 556849 287492
161 1 Mg 4.84434 106.537 0.287207 1.2 -7.13386 -3.03336e+06 3.63014e+06 1.33063e+06 390902 114767 -1.93488e+06
162 3 O 6.06005 104.397 6.10629 -1.2 -8.9102 -3.48512e+06 -4.19171e+06 -1.84375e+06 63933.7 -1.07735e+06 1.58994e+06
163 1 Mg 4.91889 109.114 1.76949 1.2 -7.86356 1.91293e+06 2.02928e+06 2.10316e+06 -390436 396887 -2.14384e+06
164 2 Si 2.60895 107.182 1.86961 2.4 -33.3869 5.90165e+06 1.13424e+07 5.27275e+06 91841.8 -770118 -622095
165 3 O 5.76921 107.012 1.99765 -1.2 -9.48445 -3.74028e+06 -4.79578e+06 -2.43632e+06 -879629 -1.45342e+06 -451901
166 3 O 3.96587 110.998 1.86775 -1.2 -9.21831 -675753 -3.37697e+06 -873209 1.80108e+06 -77472.4 674239
167 3 O 3.30941 108.051 0.813675 -1.2 -9.93728 206919 -5.73795e+06 -3.78509e+06 1.09379e+06 -492888 3.33555e+06
168 3 O 3.15553 107.661 3.30154 -1.2 -8.0983 -4.75366e+06 -5.73112e+06 -2.05168e+06 922710 1.2875e+06 -81017.5
169 1 Mg 2.41835 111.387 0.347364 1.2 -7.39602 -489581 4.28696e+06 -368300 -366097 -299545 -1.99111e+06
170 1 Mg 7.03485 114.658 1.63856 1.2 -8.82102 3.1703e+06 1.69014e+06 347083 -205351 -450278 -301557
171 2 Si 4.65613 112.508 1.79842 2.4 -33.7695 9.96735e+06 1.24282e+07 7.04839e+06 -906153 734866 -2.08323e+06
172 3 O 6.28347 112.439 1.94519 -1.2 -9.37169 -2.08309e+06 -2.49187e+06 -1.26468e+06 -429050 -91356.5 763635
173 3 O 3.34565 116.501 1.82865 -1.2 -8.81386 -2.11115e+06 -6.89386e+06 -1.30454e+06 -1.48597e+06 316668 -1.16445e+06
174 3 O 3.97801 113.329 0.58101 -1.2 -8.22057 -1.7073e+06 -1.09288e+06 -5.08671e+06 -35844 2.46512e+06 -512932
175 1 Mg 2.25253 122.095 3.20647 1.2 -8.41628 -839964 3.22139e+06 244323 -1.82196e+06 1.35746e+06 1.72403e+06
176 3 O 3.91419 113.32 2.97836 -1.2 -8.36853 -2.92765e+06 -1.65483e+06 -3.42717e+06 -1.18682e+06 -1.64297e+06 1.42902e+06
177 1 Mg 2.4016 119.266 4.5165 1.2 -8.49828 1.21984e+06 417971 2.30284e+06 1.78212e+06 658255 -986301
178 2 Si 5.03218 121.054 4.59372 2.4 -33.4983 6.1779e+06 1.02156e+07 7.01862e+06 -522594 -672405 -351680
179 3 O 3.50795 121.055 4.5152 -1.2 -8.91834 -3.25777e+06 -4.18416e+06 -5.93667e+06 -1.6403e+06 -1.11322e+06 469281
180 3 O 6.00175 117.415 4.79539 -1.2 -9.02091 -648470 -913998 -1.57602e+06 -941971 13634.3 -947011
181 3 O 5.88334 120.482 3.37613 -1.2 -8.8235 -6.59297e+06 -4.45635e+06 -4.12479e+06 -469667 -511276 -1.33651e+06
182 3 O 5.67961 120.464 5.86056 -1.2 -9.24573 -4.8623e+06 -2.23003e+06 -4.85054e+06 44088.1 705563 960008
183 1 Mg 4.60163 116.865 3.39909 1.2 -7.74072 -246782 4.82203e+06 -584899 663332 -1.04261e+06 1.43003e+06
184 1 Mg 4.47826 113.855 4.97777 1.2 -7.87185 1.55174e+06 983877 526673 -1.31712e+06 1.55481e+06 439277
185 2 Si 6.78079 115.727 4.73989 2.4 -32.693 2.28353e+06 1.24641e+07 6.37201e+06 -629388 -63231.7 322038
186 3 O 3.53213 115.97 4.8813 -1.2 -10.0713 -3.41769e+06 -3.33879e+06 -3.82836e+06 -600762 -443501 -617432
187 3 O 5.87779 111.85 5.04573 -1.2 -8.55443 -4.08403e+06 -3.04478e+06 -2.05009e+06 799812 -181540 324545
188 3 O 6.28489 115.253 3.38598 -1.2 -8.82277 -3.51665e+06 -4.52358e+06 -3.87254e+06 -1.27626e+06 648881 39619.6
189 1 Mg 4.62889 117.234 0.0945877 1.2 -7.57489 -388964 3.74598e+06 672457 1.79899e+06 873649 -882991
190 3 O 6.09609 114.933 5.86246 -1.2 -9.75358 -1.29381e+06 -3.62682e+06 -2.69525e+06 212350 125401 663193
191 1 Mg 4.84222 119.956 1.6951 1.2 -8.88585 3.8862e+06 719965 990342 -285344 -474036 -919036
192 2 Si 2.64499 117.947 1.79356 2.4 -34.0125 5.68446e+06 1.26219e+07 4.27622e+06 -265121 -1.00751e+06 -1.47051e+06
193 3 O 5.89763 118.096 1.75389 -1.2 -8.99809 -4.98153e+06 -3.90639e+06 -1.9557e+06 -171034 106962 -205679
194 3 O 3.66438 121.566 1.6713 -1.2 -8.21382 -1.81122e+06 -1.34311e+06 -2.44497e+06 1.5719e+06 397058 -465900
195 3 O 3.38466 118.666 0.409527 -1.2 -8.75044 -3.67348e+06 -3.49697e+06 -1.98159e+06 1.87532e+06 -1.9342e+06 -688873
196 3 O 3.33708 118.624 2.95516 -1.2 -8.57142 -5.24251e+06 -6.19533e+06 -5.11418e+06 646272 247270 -2.64912e+06
197 1 Mg 2.4458 122.241 0.202251 1.2 -8.29825 452795 3.51754e+06 739633 -748171 -817464 -2.45133e+06
198 1 Mg 6.78937 125.144 1.21678 1.2 -8.52807 1.84489e+06 1.09291e+06 1.8345e+06 627024 -894313 9881.19
199 2 Si 4.43543 123.301 1.76041 2.4 -33.7188 8.30067e+06 9.98538e+06 8.73437e+06 461295 -1.95715e+06 -1.08745e+06
200 3 O 5.9571 123.229 1.53393 -1.2 -9.21813 -3.96088e+06 -3.02733e+06 -3.8509e+06 81478.3 -2.19983e+06 5934.78
201 3 O 3.20984 127.132 1.26677 -1.2 -8.66326 -4.3617e+06 -4.20454e+06 -5.59372e+06 -1.85386e+06 1.56013e+06 1.72531e+06
202 3 O 3.80757 124.055 0.553018 -1.2 -8.73375 -4.06153e+06 -1.53374e+06 -3.34885e+06 532137 670255 1.4544e+06
203 1 Mg 2.24045 132.695 3.00054 1.2 -7.63266 -1.04999e+06 2.926e+06 -485756 -1.37862e+06 2.03098e+06 1.17547e+06
204 3 O 3.58318 123.718 3.0192 -1.2 -8.46765 -3.02254e+06 -2.87177e+06 -4.88628e+06 496924 -2.22597e+06 867773
205 1 Mg 2.32918 129.755 4.60831 1.2 -8.39043 -26642.5 -4669.28 4.14015e+06 567670 127622 -1.02607e+06
206 2 Si 4.8958 131.619 4.417 2.4 -32.9001 5.60226e+06 6.27543e+06 1.05517e+07 -2.10579e+06 -379588 -206135
207 3 O 3.3325 131.642 4.31104 -1.2 -9.45643 -2.2229e+06 -2.25381e+06 -4.59193e+06 -1.05695e+06 233921 -442652
208 3 O 6.02293 127.96 4.44127 -1.2 -8.87365 -3.30272e+06 -4.21854e+06 -3.90182e+06 -1.2751e+06 -324036 1.82334e+06
209 3 O 5.57074 130.948 3.04935 -1.2 -8.43189 -3.57308e+06 -3.5718e+06 -276671 38650.2 -969391 -294687
210 3 O 5.58091 130.864 5.74213 -1.2 -9.66683 -2.46123e+06 -2.26161e+06 -4.27508e+06 252691 2.06882e+06 1.65687e+06
211 1 Mg 4.59499 127.689 2.77653 1.2 -7.78013 -1.10159e+06 2.47404e+06 -252034 828575 -252282 1.40072e+06
212 1 Mg 4.52453 124.632 4.57891 1.2 -8.51413 3.32927e+06 1.43804e+06 2.36604e+06 -224356 131089 80716.7
213 2 Si 6.70148 126.503 4.35648 2.4 -33.9884 6.17009e+06 8.85281e+06 1.1191e+07 552112 -44610.6 -311790
214 3 O 3.48798 126.653 4.44029 -1.2 -9.38629 -3.82871e+06 -2.06275e+06 -2.8832e+06 866363 365734 -14593.2
215 3 O 5.57925 122.692 4.54289 -1.2 -8.68593 -4.0202e+06 -1.17796e+06 -2.32046e+06 611940 65767 -801964
216 3 O 5.99527 125.794 3.11359 -1.2 -8.84859 -1.3755e+06 -1.92071e+06 -2.05079e+06 877201 935865 -11235.9
217 1 Mg 4.57961 127.387 0.112785 1.2 -7.94615 -1.4065e+06 3.25137e+06 -1.47027e+06 906879 3.45367e+06 -1.9599e+06
218 3 O 6.00547 125.826 5.71669 -1.2 -8.51121 -1.33585e+06 -2.37332e+06 -1.27494e+06 849456 -831477 364224
219 1 Mg 4.58675 130.599 1.2887 1.2 -8.42073 1.84458e+06 1.2343e+06 3.25748e+06 -1.16278e+06 482504 -706231
220 2 Si 2.58532 128.656 1.46858 2.4 -33.5525 7.55969e+06 8.40731e+06 1.04716e+07 139018 -1.64072e+06 190078
221 3 O 5.7116 128.534 1.51527 -1.2 -9.13266 -1.53002e+06 -3.2354e+06 -5.27305e+06 876998 353231 -95989
222 3 O 3.56308 132.618 1.61449 -1.2 -9.03871 -2.8042e+06 -2.74286e+06 -4.22933e+06 502043 944987 3.78526e+06
223 3 O 3.32821 129.307 0.215299 -1.2 -8.67717 -1.88234e+06 -3.31412e+06 -2.42356e+06 -35625.3 -835487 1.68611e+06
224 3 O 3.24123 129.198 2.7836 -1.2 -8.90665 -5.15312e+06 -3.27827e+06 -2.77742e+06 -24287.8 1.01558e+06 -159915
225 1 Mg 2.16961 133.06 -0.0288426 1.2 -7.97788 1.02178e+06 3.09859e+06 354309 -1.84518e+06 -1.84886e+06 -1.46768e+06
226 1 Mg 6.96046 136.119 1.58011 1.2 -8.77015 3.24166e+06 460242 913443 1.51289e+06 251261 -246417
227 2 Si 4.1827 134.114 1.69586 2.4 -33.8926 8.44045e+06 8.63135e+06 1.01932e+07 1.25163e+06 1.06857e+06 -19479.1
228 3 O 5.81252 134.058 1.54602 -1.2 -8.69466 -746182 -2.57847e+06 -3.0954e+06 -705661 -77096.8 655134
229 3 O 3.33219 137.918 1.60809 -1.2 -8.77125 -4.1239e+06 -1.87615e+06 -3.07061e+06 -672656 224247 64480.2
230 3 O 3.60175 134.505 0.134889 -1.2 -8.31728 -4.44512e+06 -4.29252e+06 -489990 -766920 1.90178e+06 2.18221e+06
231 1 Mg 2.21144 144.01 2.73905 1.2 -7.6224 -880675 3.8635e+06 793788 -596186 774178 1.09259e+06
232 3 O 3.68465 134.998 2.84288 -1.2 -9.16269 -4.66549e+06 -1.41772e+06 -1.74726e+06 -540212 691330 -11522.9
233 1 Mg 2.34855 140.743 4.40575 1.2 -8.28998 300291 489091 2.24634e+06 1.22895e+06 1.02034e+06 -1.33251e+06
234 2 Si 4.96789 142.607 4.18636 2.4 -33.4241 7.5822e+06 1.03227e+07 4.23638e+06 269567 1.02978e+06 -1.56169e+06
235 3 O 3.39237 142.692 4.23455 -1.2 -9.29718 -3.1162e+06 -3.4424e+06 -3.41707e+06 -900479 1.22376e+06 -725703
236 3 O 6.09207 138.867 4.48377 -1.2 -9.42696 -3.93514e+06 -3.56482e+06 -4.98253e+06 -1.45522e+06 -447097 -742618
237 3 O 5.56102 142.046 2.95552 -1.2 -8.94722 -4.92317e+06 -4.11365e+06 -1.00306e+07 -126381 -1.66417e+06 -2.54956e+06
238 3 O 5.79949 141.888 5.35874 -1.2 -9.04326 -3.52769e+06 -3.94075e+06 -5.14728e+06 40917 1.22704e+06 2.23979e+06
239 1 Mg 4.68258 138.423 3.20108 1.2 -7.85263 -1.36857e+06 2.72375e+06 -137886 685978 -1.85558e+06 2.43602e+06
240 1 Mg 4.51695 135.479 4.58479 1.2 -8.0553 930369 313268 3.28698e+06 -460497 -317648 -556750
241 2 Si 6.72722 137.372 4.51034 2.4 -32.7585 5.40728e+06 7.99551e+06 1.14616e+07 1.68976e+06 1.41222e+06 1.41315e+06
242 3 O 3.55171 137.572 4.53076 -1.2 -9.64745 -1.69314e+06 -2.48236e+06 -6.95746e+06 1.52784e+06 725525 27496.9
243 3 O 5.51121 132.976 4.43546 -1.2 -9.40593 -2.3662e+06 -7.08965e+06 -3.5498e+06 -376993 45430.7 -560273
244 3 O 6.00831 136.651 3.19805 -1.2 -8.55056 -3.21917e+06 -1.66485e+06 -4.1462e+06 253935 1.30782e+06 -7479.99
245 1 Mg 4.53406 138.404 0.0352088 1.2 -7.9459 538406 2.67289e+06 994182 1.73416e+06 1.80788e+06 -2.02234e+06
246 3 O 5.97779 136.67 5.69213 -1.2 -9.61686 -2.92524e+06 -1.45008e+06 -5.34831e+06 148591 -990351 359076
247 1 Mg 4.65369 141.352 1.55532 1.2 -7.79171 -182784 672077 988669 -1.91902e+06 -2.06669e+06 -1.81094e+06
248 2 Si 2.67362 139.454 1.53018 2.4 -32.8312 7.0071e+06 9.55665e+06 8.61168e+06 -205404 -56934 -958983
249 3 O 5.86742 139.324 1.53826 -1.2 -9.30956 -1.28495e+06 -3.21687e+06 -3.01482e+06 504216 -573884 -174967
250 3 O 3.68396 143.236 1.25306 -1.2 -9.62791 -2.71812e+06 -5.2933e+06 -2.85168e+06 489844 134933 34554.4
251 3 O 3.40521 140.033 0.14966 -1.2 -9.58709 -2.6308e+06 -2.25017e+06 992546 79903.2 -997206 331775
252 3 O 3.30689 140.101 2.82234 -1.2 -9.53405 -3.03024e+06 -4.36027e+06 -2.28979e+06 -75445.3 1.26524e+06 -1.47554e+06
253 1 Mg 2.23057 143.67 -0.279142 1.2 -7.56293 -1.54714e+06 3.22038e+06 -15735.1 -19749.9 -441198 -3.21824e+06
254 1 Mg 7.06655 146.631 1.15282 1.2 -8.34797 1.86866e+06 -585697 3.29936e+06 1.11697e+06 -453380 647077
255 2 Si 4.33617 144.624 1.21444 2.4 -32.9682 4.31796e+06 8.40194e+06 8.51609e+06 -1.16818e+06 808083 -1.15859e+06
256 3 O 5.91794 144.676 1.21472 -1.2 -9.73915 -2.37707e+06 -3.53054e+06 -4.00441e+06 479851 491838 387914
257 3 O 3.23981 148.632 1.38792 -1.2 -8.99058 -3.21417e+06 -9.67064e+06 -6.38827e+06 -803361 533887 4.0121e+06
258 3 O 3.63214 145.466 -0.0361814 -1.2 -9.01045 -2.20472e+06 41600.4 -6.34397e+06 -309892 891067 -618417
259 1 Mg 1.69426 153.754 1.69525 1.2 -7.0276 -917327 -601845 3.70067e+06 431067 -251269 -1.0394e+06
260 3 O 3.73159 145.49 2.36545 -1.2 -8.89387 -3.6542e+06 -2.26706e+06 -6.6465e+06 -164219 -468068 -294481
261 1 Mg 1.60985 151.884 5.16703 1.2 -8.49082 -3.67079e+06 3.66966e+06 135291 821589 -287832 -498429
262 2 Si 3.8092 152.335 3.19201 2.4 -32.9905 9.3816e+06 8.82264e+06 8.1715e+06 872175 24703.4 -126082
263 3 O 2.47393 153.054 3.5723 -1.2 -8.78983 -2.9029e+06 -2.64891e+06 -1.82729e+06 80278.1 711501 -1.53213e+06
264 3 O 6.05425 149.492 4.44251 -1.2 -8.26611 -2.20801e+06 -6.14476e+06 -1.855e+06 -1.52943e+06 561208 2.0073e+06
265 3 O 4.62036 153.092 2.08676 -1.2 -9.71737 -2.40366e+06 -1.33243e+06 -2.52178e+06 747175 -241181 112723
266 3 O 4.60141 152.054 4.61974 -1.2 -9.04516 -6.8708e+06 -3.35399e+06 32323.6 -531381 954362 1.08482e+06
267 1 Mg 4.76735 149.09 2.81177 1.2 -7.79257 326472 3.36827e+06 1.92343e+06 1.13744e+06 -634197 -917000
268 1 Mg 4.62305 146.178 4.07334 1.2 -9.29629 1.88368e+06 901642 2.74816e+06 -1.30813e+06 -87282.1 -1.2773e+06
269 2 Si 6.64997 148.029 4.28338 2.4 -34.8259 8.43534e+06 9.30933e+06 7.74156e+06 467470 -4.4347e+06 -735142
270 3 O 3.43357 148.09 4.21558 -1.2 -8.78751 -5.7254e+06 -2.16208e+06 -3.23701e+06 1.99455e+06 -2.64553e+06 1.16036e+06