ITEM: TIMESTEP
80100
ITEM: NUMBER OF ATOMS
5600
ITEM: BOX BOUNDS xy xz yz pp pp pp
0.0000000000000000e+00 7.1234999999999999e+00 0.0000000000000000e+00
0.0000000000000000e+00 2.0198500000000001e+02 2.3744999999999998e+00
0.0000000000000000e+00 1.1958400000000000e+02 0.0000000000000000e+00
ITEM: ATOMS id type element xu yu zu q c_pe c_s[1] c_s[2] c_s[3] c_s[4] c_s[5] c_s[6]
1 1 Mg -1.9481 48.3402 -1.06787 1.2 -7.36179 -2.76133e+06 -1.8694e+06 3.2811e+06 -39609.4 415787 -1.60496e+06
2 1 Mg 2.57948 50.1523 1.82112 1.2 -8.34911 -1.27226e+06 4.97223e+06 -1.2476e+06 1.25984e+06 -232081 -1.85854e+06
3 2 Si 0.459046 49.6526 0.101368 2.4 -32.9974 7.0765e+06 9.34848e+06 6.24562e+06 -2.36797e+06 113187 -1.02895e+06
4 3 O 1.85783 48.8308 0.47453 -1.2 -8.27126 -3.69042e+06 -3.39202e+06 -4.96142e+06 -971311 -794957 1.61697e+06
5 3 O -1.49858 52.3564 1.63904 -1.2 -8.74463 -1.2522e+06 -3.52066e+06 -3.26006e+06 -1.21344e+06 -1.01827e+06 -397299
6 3 O -0.153154 48.8929 -1.05501 -1.2 -9.42006 -5.60497e+06 -2.81686e+06 -6.06406e+06 27893.7 -2.92983e+06 562522
7 1 Mg -2.32045 58.5207 3.08101 1.2 -7.55163 -1.53922e+06 4.03667e+06 -569973 -1.04172e+06 1.20055e+06 1.3342e+06
8 3 O -0.395464 49.7034 1.45894 -1.2 -8.62321 -6.44337e+06 -5.66999e+06 -833857 105552 -1.84389e+06 -1.03997e+06
9 1 Mg -2.34029 55.361 4.34414 1.2 -8.11021 -50525.2 2.82605e+06 1.06783e+06 531195 -36265 1.23072e+06
10 2 Si 0.239062 57.2215 4.50413 2.4 -33.1748 1.0318e+07 9.96891e+06 7.82923e+06 -1.11557e+06 326037 -728514
11 3 O -1.41056 57.3926 4.45005 -1.2 -9.30588 -520987 -1.92069e+06 -2.53426e+06 -764603 376974 528014
12 3 O 1.36209 53.0512 4.34487 -1.2 -8.83896 -4.22075e+06 -4.13105e+06 -464558 61957.2 -628844 -507729
13 3 O 0.833554 56.3991 3.29069 -1.2 -9.1818 -2.10522e+06 -2.05696e+06 -3.78865e+06 -907104 -1.03009e+06 -841574
14 3 O 0.938492 56.4513 5.77492 -1.2 -8.47216 -2.89991e+06 -1.72263e+06 -3.99901e+06 -398898 2.15315e+06 164830
15 1 Mg -0.160368 52.9157 2.90927 1.2 -7.93365 -806582 4.31792e+06 -1.40178e+06 690246 -1.46081e+06 -343045
16 1 Mg 0.248976 48.8399 3.04937 1.2 -8.86623 3.3305e+06 2.45089e+06 -3.64374e+06 -168962 -1.42664e+06 1.09281e+06
17 2 Si 1.98642 51.6049 4.42201 2.4 -34.8422 7.50513e+06 1.01482e+07 7.10509e+06 636922 -528864 478761
18 3 O -1.29651 51.88 4.40528 -1.2 -8.46946 -6.81455e+06 -3.90425e+06 -2.15474e+06 2.69862e+06 45431.9 -319107
19 3 O 1.87295 47.8289 3.29925 -1.2 -5.52023 -1.7678e+06 -269833 -2.45545e+06 39306.2 -876686 -913769
20 3 O 1.38581 50.6957 3.31606 -1.2 -8.32792 -4.62198e+06 -4.72177e+06 -2.85853e+06 -351421 -452852 -926285
21 1 Mg -0.174179 53.0411 -0.00682114 1.2 -8.1572 -314616 3.29423e+06 -875080 1.39826e+06 1.37562e+06 -2.10954e+06
22 3 O 1.23952 50.7328 5.81021 -1.2 -9.11971 -3.17947e+06 -2.97907e+06 -4.05243e+06 701988 -704447 -1.98355e+06
23 1 Mg -0.190563 55.8648 1.66422 1.2 -8.35535 2.72873e+06 1.46108e+06 1.44805e+06 -1.32301e+06 153835 -275336
24 2 Si -2.23311 53.8721 1.49227 2.4 -33.6167 6.79841e+06 1.25022e+07 7.23084e+06 -866765 263962 -2.80398e+06
25 3 O 0.912462 53.8502 1.45251 -1.2 -9.33852 -1.88118e+06 -3.23048e+06 -4.00662e+06 -565582 678775 991757
26 3 O -1.16924 57.8756 1.47761 -1.2 -9.33443 -868663 -3.31002e+06 -2.79221e+06 532156 219755 872828
27 3 O -1.62023 54.67 0.224167 -1.2 -8.37401 -3.77637e+06 -1.95315e+06 -3.26643e+06 829554 -1.33722e+06 -1.17542e+06
28 3 O -1.47252 54.6244 2.62012 -1.2 -9.12216 -3.39475e+06 -4.72461e+06 -5.23789e+06 329915 1.0054e+06 315641
29 1 Mg -2.81107 58.1749 0.15943 1.2 -7.76192 -533450 3.48508e+06 -1.72917e+06 -1.32002e+06 -1.71586e+06 -1.89984e+06
30 1 Mg 2.27153 61.2321 1.55073 1.2 -8.45532 2.91152e+06 1.21832e+06 1.41793e+06 1.19374e+06 -888427 1.32777e+06
31 2 Si -0.467087 59.3634 1.56488 2.4 -32.9627 4.23626e+06 1.30137e+07 7.54022e+06 952856 2.22397e+06 1.73444e+06
32 3 O 1.08082 59.3087 1.67223 -1.2 -9.79667 -1.88234e+06 -3.63222e+06 -2.71098e+06 716014 99330.6 -224148
33 3 O -1.4232 63.1321 1.74052 -1.2 -8.46203 -4.73724e+06 -1.73681e+06 -1.59222e+06 284133 426638 781156
34 3 O -1.0874 60.078 0.284334 -1.2 -8.85538 -1.54974e+06 -5.23994e+06 -2.99212e+06 -1.12542e+06 941526 -886692
35 1 Mg -2.292 69.1909 3.38995 1.2 -8.7962 723485 4.44554e+06 -648498 -881182 2.66387e+06 1.00842e+06
36 3 O -1.13027 60.1763 2.81779 -1.2 -9.23746 -3.29442e+06 -2.61672e+06 -1.13888e+06 -253153 -259281 1.45466e+06
37 1 Mg -2.26009 66.1566 4.78799 1.2 -9.63972 3.53265e+06 1.74334e+06 3.62362e+06 985543 309510 -1.78718e+06
38 2 Si 0.488554 68.061 4.91626 2.4 -35.3719 1.0054e+07 1.1568e+07 5.10317e+06 -597928 -521802 -1.10535e+06
39 3 O -1.07679 68.275 4.84299 -1.2 -8.2116 -3.52459e+06 -3.94682e+06 -1.77282e+06 -423569 808611 389425
40 3 O 1.47013 64.2245 4.83529 -1.2 -7.47238 -5.84032e+06 -2.80835e+06 -3.38286e+06 676168 -557000 900175
41 3 O 1.02681 67.26 3.61969 -1.2 -7.48513 -3.86603e+06 -2.55944e+06 -3.8083e+06 -290379 -583930 880520
42 3 O 1.19214 67.3585 6.04272 -1.2 -8.17743 -3.55895e+06 -2.82887e+06 -5.68326e+06 1.00734e+06 -733568 2.34799e+06
43 1 Mg -0.073773 63.6866 3.39177 1.2 -8.93485 1.87867e+06 3.79873e+06 -522234 692650 -799010 1.34927e+06
44 1 Mg -0.194308 60.9714 4.5571 1.2 -8.43295 404830 1.4672e+06 3.08593e+06 -851086 350237 -362829
45 2 Si 1.97091 62.6524 4.92985 2.4 -35.3192 7.27122e+06 1.0128e+07 8.35139e+06 1.39866e+06 -127100 -3.46187e+06
46 3 O -1.23446 62.9062 4.83532 -1.2 -8.39522 -4.9851e+06 -3.59249e+06 -3.06671e+06 2.64161e+06 -126459 1.72351e+06
47 3 O 0.952147 58.6975 4.54801 -1.2 -9.21744 -2.44962e+06 -3.94889e+06 -1.45384e+06 2.63955e+06 405.448 1.59394e+06
48 3 O 1.25151 62.0134 3.7173 -1.2 -8.40062 -3.88015e+06 -4.58183e+06 -4.15403e+06 -1.06913e+06 604039 -28763.8
49 1 Mg 0.0146705 63.9712 0.458598 1.2 -8.33244 -602223 5.04807e+06 -36474.2 448009 725504 -2.14464e+06
50 3 O 1.30103 62.0153 6.20928 -1.2 -8.07317 -3.51249e+06 -1.69425e+06 -2.35539e+06 -769994 181933 1.22813e+06
51 1 Mg -0.230583 66.911 1.99512 1.2 -9.76324 4.28255e+06 180772 792733 -462742 1.02569e+06 -1.67078e+06
52 2 Si -2.1456 64.6087 1.77818 2.4 -34.8198 7.27327e+06 1.31607e+07 8.20172e+06 203576 473419 -1.35053e+06
53 3 O 1.12403 64.4955 1.95303 -1.2 -8.42677 -5.49157e+06 -6.22233e+06 -3.98649e+06 301498 617040 29090.9
54 3 O -0.922165 68.8203 1.74375 -1.2 -7.86322 -7.01106e+06 -4.14766e+06 -1.92982e+06 959114 315732 1.31148e+06
55 3 O -1.63422 65.4139 0.508889 -1.2 -8.12778 -3.49743e+06 -1.84651e+06 -2.69675e+06 -262868 -345053 392015
56 3 O -1.25583 65.5274 3.07319 -1.2 -7.52362 -5.50263e+06 335873 -50359.9 520803 1.65991e+06 2.997e+06
57 1 Mg -2.27041 69.4477 0.372467 1.2 -8.43583 1.50475e+06 3.20992e+06 -1.18826e+06 -271332 -443282 -2.62036e+06
58 1 Mg 2.04975 71.9692 1.66647 1.2 -9.04475 1.81705e+06 1.27692e+06 907707 1.04268e+06 132783 66141.9
59 2 Si -0.322362 70.3703 1.96349 2.4 -34.9429 6.35453e+06 1.33141e+07 7.32266e+06 -2.22255e+06 -1.53795e+06 573883
60 3 O 1.18825 70.0954 1.84375 -1.2 -8.61837 -5.16574e+06 -5.36188e+06 -3.25735e+06 -2.06788e+06 -1.53441e+06 -57454.9
61 3 O -1.56234 74.0293 1.80961 -1.2 -7.82511 -6.46017e+06 -6.03103e+06 -836825 1.03168e+06 -267538 2.37421e+06
62 3 O -0.973355 71.0829 0.747313 -1.2 -8.50305 -4.30551e+06 -5.73567e+06 -1.4184e+06 1.24356e+06 1.04085e+06 1.10336e+06
63 1 Mg -2.29639 79.768 3.30555 1.2 -8.77426 1.34127e+06 4.79118e+06 -488018 -978563 1.61978e+06 572041
64 3 O -1.04304 70.9512 3.31511 -1.2 -7.94605 -4.6003e+06 -5.07151e+06 -1.806e+06 112616 -1.69752e+06 1.09906e+06
65 1 Mg -2.33151 76.6546 5.01901 1.2 -9.20954 3.08513e+06 2.11559e+06 784714 600143 -903561 237635
66 2 Si 0.395264 78.5471 4.76289 2.4 -34.7536 1.04591e+07 1.37383e+07 5.75277e+06 -1.28722e+06 -309187 749219
67 3 O -1.20592 78.7825 4.72927 -1.2 -8.3506 -1.55061e+06 -4.52376e+06 -1.87486e+06 -2.59824e+06 -488153 -921886
68 3 O 1.56349 74.7246 4.59845 -1.2 -7.56496 -7.02923e+06 -7.89475e+06 -1.98196e+06 525648 -980469 125250
69 3 O 1.09865 77.7325 3.5552 -1.2 -7.90926 -6.01176e+06 -3.8656e+06 -460894 -2.07249e+06 -1.39735e+06 -49383.1
70 3 O 1.08816 78.0031 6.06308 -1.2 -8.8848 -2.61488e+06 -2.55716e+06 -3.68899e+06 379830 1.03897e+06 116343
71 1 Mg 0.0456244 74.5002 3.35841 1.2 -9.24319 1.93578e+06 4.2191e+06 -976682 1.19785e+06 -2.10461e+06 263304
72 1 Mg -0.0684742 71.4032 4.84672 1.2 -9.40746 3.12547e+06 2.34506e+06 -1.59845e+06 -1.04096e+06 -649294 -2.21808e+06
73 2 Si 2.07511 73.2726 4.76838 2.4 -36.3583 1.00274e+07 9.88333e+06 4.67553e+06 1.04408e+06 595719 -1.43482e+06
74 3 O -1.09351 73.3815 4.82392 -1.2 -7.82543 -4.57202e+06 -5.28121e+06 -1.95929e+06 1.64943e+06 -222294 242373
75 3 O 1.1813 69.6109 4.7646 -1.2 -8.07926 -5.60967e+06 -3.15241e+06 -849348 1.05694e+06 963475 661072
76 3 O 1.41768 72.6273 3.46696 -1.2 -7.2826 -5.87672e+06 -6.95595e+06 -1.44711e+06 -2481.23 1.49377e+06 259739
77 1 Mg -0.0301508 74.5896 0.22645 1.2 -8.21299 1.23286e+06 4.17941e+06 575618 926005 923678 -2.54182e+06
78 3 O 1.41683 72.6149 5.98441 -1.2 -8.52989 -5.08287e+06 -3.70459e+06 -6.2689e+06 -745468 -428259 3.1144e+06
79 1 Mg 0.288267 77.498 1.82411 1.2 -9.27691 2.26615e+06 2.12817e+06 1.09191e+06 -1.48553e+06 -1.65936e+06 -2.62574e+06
80 2 Si -1.97095 75.5044 1.92741 2.4 -35.5943 1.09945e+07 1.10007e+07 8.19716e+06 2.96135e+06 1.20295e+06 -2.0237e+06
81 3 O 1.20219 75.4304 1.7845 -1.2 -7.98134 -3.93844e+06 -4.08067e+06 -3.05509e+06 3.34716e+06 1.50534e+06 1.31076e+06
82 3 O -1.01371 79.4934 1.77647 -1.2 -7.74383 -5.5537e+06 -7.29013e+06 -3.1962e+06 -315421 146370 229436
83 3 O -1.27877 76.2226 0.666097 -1.2 -8.20136 -4.60223e+06 -2.63739e+06 -860591 -253218 -970184 1.95386e+06
84 3 O -1.0791 76.1878 3.29256 -1.2 -7.277 -4.99149e+06 -3.23779e+06 1.43532e+06 168258 1.92395e+06 2.15299e+06
85 1 Mg -2.25611 80.0676 0.104221 1.2 -8.72431 -897886 2.43096e+06 -847357 -2.49448e+06 -775264 -2.2069e+06
86 1 Mg 2.37294 82.7912 1.85769 1.2 -9.12842 2.89083e+06 2.08793e+06 453175 1.0721e+06 326398 101100
87 2 Si -0.266384 80.844 1.66796 2.4 -35.4636 9.76607e+06 9.99027e+06 7.07951e+06 -672706 -396417 -35313.7
88 3 O 1.27146 80.6222 1.58446 -1.2 -8.26765 -5.64228e+06 -4.36125e+06 -1.6002e+06 -125177 106637 -86992.9
89 3 O -1.1343 84.6338 1.72005 -1.2 -8.58944 -5.35041e+06 -6.93908e+06 -1.11042e+06 -990347 -589370 -1.94956e+06
90 3 O -0.938197 81.379 0.293031 -1.2 -7.95598 -6.48592e+06 -6.75271e+06 -1.8287e+06 -760331 1.86236e+06 1.24326e+06
91 1 Mg -2.45283 90.6085 3.75644 1.2 -9.05931 1.14619e+06 4.71678e+06 1.17173e+06 -455809 784630 1.40979e+06
92 3 O -0.945455 81.667 2.92095 -1.2 -8.01076 -5.42757e+06 -5.43864e+06 -1.74584e+06 30055.3 -1.65441e+06 -1.48764e+06
93 1 Mg -2.56806 87.2502 4.99395 1.2 -9.1752 1.60798e+06 754323 1.72517e+06 2.56043e+06 -1.29432e+06 1.44455e+06
94 2 Si 0.275856 89.1748 5.10325 2.4 -35.6799 1.35663e+07 6.96823e+06 9.98883e+06 -517918 737319 597104
95 3 O -1.35441 89.4552 5.12642 -1.2 -7.97326 -3.29148e+06 -2.54499e+06 -4.38879e+06 -2.07341e+06 33788.5 -941853
96 3 O 1.2664 85.2907 4.7598 -1.2 -8.58308 -3.32353e+06 -5.18126e+06 -1.84452e+06 -1.76477e+06 266811 -753885
97 3 O 0.988196 88.6133 3.80918 -1.2 -7.56317 -6.54103e+06 -1.81354e+06 -2.34508e+06 -957633 -1.09056e+06 -319303
98 3 O 0.970453 88.3283 6.32436 -1.2 -7.85351 -5.31494e+06 -2.21624e+06 -3.00629e+06 -380838 1.495e+06 68542.6
99 1 Mg 0.0921708 84.9036 3.2966 1.2 -8.78334 481195 5.22126e+06 -3.13263e+06 433038 -3.02855e+06 1.38598e+06
100 1 Mg -0.209066 82.092 4.62571 1.2 -9.16505 2.16306e+06 1.73225e+06 947349 -607647 -570170 -905711
101 2 Si 2.06421 83.825 4.89509 2.4 -34.2968 8.42459e+06 1.27592e+07 5.08321e+06 585977 -977335 -844013
102 3 O -1.17037 83.9086 4.78663 -1.2 -8.9172 -5.65179e+06 -4.95692e+06 -2.08377e+06 -186315 -2.21329e+06 -449631
103 3 O 0.895437 80.1633 4.58419 -1.2 -8.23024 -4.42783e+06 -1.95061e+06 -608534 133923 661746 -16011.8
104 3 O 1.51003 83.1114 3.58483 -1.2 -7.91739 -5.86667e+06 -5.74306e+06 -1.96937e+06 380129 1.09095e+06 -1.12266e+06
105 1 Mg 0.150567 85.3408 0.164808 1.2 -8.15408 -1.82347e+06 5.31642e+06 -1.69296e+06 1.0969e+06 2.77667e+06 -774568
106 3 O 1.17824 83.0883 6.05688 -1.2 -8.58564 -1.69387e+06 -3.42257e+06 -3.48319e+06 781872 -953271 504310
107 1 Mg 0.145663 87.7599 2.00714 1.2 -9.67066 4.30764e+06 733728 2.44075e+06 -1.65762e+06 -165818 -293393
108 2 Si -1.80098 86.0242 1.69958 2.4 -34.5622 1.01105e+07 1.28698e+07 5.22862e+06 646922 1.0645e+06 1.34172e+06
109 3 O 1.21455 85.8634 1.84043 -1.2 -8.28362 -161026 -4.56092e+06 -2.07153e+06 -328399 -835341 -787848
110 3 O -1.12304 89.8615 2.11088 -1.2 -6.95094 -6.0719e+06 -5.19028e+06 -543423 919154 491709 427451
111 3 O -1.17606 86.8662 0.562795 -1.2 -8.32233 -4.70044e+06 -6.39281e+06 -1.64591e+06 -134992 -714615 -53410.5
112 3 O -1.26659 86.7309 3.12656 -1.2 -7.65431 -3.7327e+06 -4.12278e+06 1.73e+06 255734 453657 337737
113 1 Mg -2.59583 90.2503 0.425301 1.2 -9.00028 1.27711e+06 4.3977e+06 -767939 -1.38769e+06 -763791 -2.31161e+06
114 1 Mg 2.2839 93.2371 1.83886 1.2 -9.57472 4.34131e+06 1.77493e+06 1.65716e+06 387492 506161 -1.27364e+06
115 2 Si -0.340708 91.2316 2.04758 2.4 -35.8241 1.02774e+07 1.51228e+07 3.24944e+06 -931554 198503 -2.24025e+06
116 3 O 1.14894 91.0546 1.98596 -1.2 -8.27634 -7.73196e+06 -6.37216e+06 987783 -351599 97406.9 806877
117 3 O -1.40486 95.2005 1.73943 -1.2 -8.09012 -5.10586e+06 -5.12514e+06 -2.21079e+06 -1.12171e+06 847067 593613
118 3 O -1.17235 92.0371 0.709817 -1.2 -7.55403 -3.5454e+06 -3.67271e+06 -724551 -1.3363e+06 1.96354e+06 1.40137e+06
119 1 Mg -2.48985 100.727 3.09485 1.2 -8.73795 1.29816e+06 2.93899e+06 2.05085e+06 -890918 934629 1.36937e+06
120 3 O -1.11037 92.1192 3.17294 -1.2 -7.95402 -2.38012e+06 -4.38774e+06 -3.4166e+06 -681756 -889989 -574791
121 1 Mg -2.33009 97.9599 4.52616 1.2 -9.07854 2.13601e+06 -141103 3.069e+06 1.01795e+06 548790 -2.75638e+06
122 2 Si 0.238602 99.8133 4.72207 2.4 -34.8533 1.04522e+07 8.15442e+06 9.79345e+06 -920301 246245 -1.19924e+06
123 3 O -1.44577 99.8865 4.71763 -1.2 -8.60329 -1.94178e+06 -2.0352e+06 -3.72512e+06 -1.19816e+06 -1.00803e+06 767139
124 3 O 1.08115 96.0892 4.77735 -1.2 -8.32223 -3.9027e+06 -4.69763e+06 -4.08621e+06 -705527 -701741 1.33846e+06
125 3 O 0.996204 99.2364 3.44137 -1.2 -8.12474 -5.23197e+06 -2.10749e+06 -3.7169e+06 118791 -1.3828e+06 552704
126 3 O 0.751971 99.1554 6.02892 -1.2 -8.15032 -3.82353e+06 -3.77468e+06 -3.58298e+06 908793 676583 2.07137e+06
127 1 Mg -0.261828 95.6023 3.36406 1.2 -8.61444 269116 3.08581e+06 718601 626681 -1.36398e+06 -60276.9
128 1 Mg -0.0243226 92.7541 4.82731 1.2 -9.07047 4.1025e+06 532184 3.57925e+06 -1.04177e+06 82539.4 -499643
129 2 Si 1.88206 94.7101 4.81242 2.4 -35.7741 6.56879e+06 7.72338e+06 9.36528e+06 -1.55482e+06 858971 -134690
130 3 O -1.33766 94.7743 4.8222 -1.2 -8.28833 -6.02957e+06 -3.58121e+06 -5.70131e+06 -1.83376e+06 427444 47219.6
131 3 O 0.874534 90.6472 5.26486 -1.2 -8.28722 -5.69416e+06 -4.29438e+06 -1.85322e+06 1.25103e+06 224346 -2.03406e+06
132 3 O 1.37636 93.8453 3.54613 -1.2 -7.9436 -5.14186e+06 -642368 -4.02464e+06 757022 -527729 328230
133 1 Mg -0.143411 95.5726 0.23553 1.2 -9.43944 275928 3.51146e+06 -623873 22265.2 1.13296e+06 -3.49712e+06
134 3 O 1.31015 93.9758 6.01638 -1.2 -7.48651 -6.36671e+06 -2.29899e+06 -4.93963e+06 -496506 1.1026e+06 1.68239e+06
135 1 Mg -0.0779625 98.3911 1.56936 1.2 -9.76804 5.27438e+06 791741 2.55188e+06 -286642 -288347 -1.13554e+06
136 2 Si -2.27276 96.5776 1.67205 2.4 -36.0904 8.54326e+06 1.04483e+07 7.82007e+06 75277.6 742329 -3.28245e+06
137 3 O 0.972497 96.5162 1.68826 -1.2 -8.20471 -6.67258e+06 -3.4993e+06 -4.15911e+06 -1.98667e+06 297951 754518
138 3 O -0.982031 100.276 1.70354 -1.2 -7.45321 -3.84473e+06 -70458.8 -1.82646e+06 1.31452e+06 285996 581166
139 3 O -1.65811 97.4726 0.468997 -1.2 -7.08235 -6.02129e+06 -2.30344e+06 -5.71723e+06 865155 -1.79147e+06 462714
140 3 O -1.62839 97.3677 2.89952 -1.2 -7.74307 -5.01593e+06 -4.23453e+06 -6.55147e+06 1.96216e+06 1.05055e+06 264692
141 1 Mg -2.24046 100.688 0.000329413 1.2 -9.4044 3.32664e+06 2.31064e+06 1.42952e+06 -1.56741e+06 -1.06922e+06 -1.94589e+06
142 1 Mg 6.78553 103.893 1.44394 1.2 -8.47462 2.12322e+06 3.03419e+06 2.05239e+06 117314 -81299.7 191677
143 2 Si -0.285192 101.953 1.68796 2.4 -35.1841 9.97457e+06 1.07344e+07 8.11891e+06 -38377.3 -1.1064e+06 -352953
144 3 O 1.29717 101.854 1.46422 -1.2 -8.36332 -3.04658e+06 -2.04762e+06 -2.08019e+06 -181760 -1.66701e+06 92298
145 3 O 3.18401 105.941 1.56904 -1.2 -9.23486 -1.3647e+06 -7.27184e+06 -558541 -523226 205976 -1.06911e+06
146 3 O -0.824456 102.567 0.325886 -1.2 -8.0066 -5.5637e+06 -1.60231e+06 832338 988062 122374 361780
147 1 Mg 2.37687 111.653 2.87597 1.2 -7.11686 -1.52461e+06 4.79988e+06 -451288 -865912 890134 2.51936e+06
148 3 O -0.886899 102.546 2.94653 -1.2 -8.43446 -3.49125e+06 -2.86352e+06 -4.50197e+06 280639 -1.06606e+06 -974311
149 1 Mg 2.34523 108.86 4.38807 1.2 -6.98254 40031 3.48853e+06 2.19216e+06 1.44738e+06 923276 -285345
150 2 Si 5.06916 110.716 4.44631 2.4 -31.7077 2.5553e+06 1.11159e+07 2.19743e+06 410218 -1.48406e+06 25770.9
151 3 O 3.45576 110.805 4.37967 -1.2 -10.0317 -297565 -4.64773e+06 -2.76326e+06 -255208 68286.4 -827225
152 3 O 5.8493 106.676 4.32725 -1.2 -9.45974 -399197 -5.8553e+06 -2.84479e+06 -567244 165718 1.26852e+06
153 3 O 5.66367 110.175 3.18018 -1.2 -9.90212 -2.15709e+06 -7.82143e+06 -4.08644e+06 998550 190373 -3.5546e+06
154 3 O 5.65388 110.146 5.72175 -1.2 -10.211 -4.52485e+06 -7.29111e+06 -3.97501e+06 -620189 556734 2.56194e+06
155 1 Mg 4.30473 106.195 3.19429 1.2 -7.29377 -1.18898e+06 4.50574e+06 -2.13127e+06 619514 -1.43357e+06 782332
156 1 Mg -0.0701567 103.218 4.64855 1.2 -8.90247 3.06698e+06 695959 1.82709e+06 -715460 -338387 607858
157 2 Si 6.61478 105.242 4.50144 2.4 -33.6864 1.81598e+06 1.02895e+07 7.78163e+06 -1.42477e+06 846163 -1.66566e+06
158 3 O 3.35278 105.258 4.63432 -1.2 -9.32099 -6.64283e+06 -3.76983e+06 -4.76191e+06 -525714 -720812 633170
159 3 O 0.781289 101.347 4.82963 -1.2 -8.30372 -4.16821e+06 -3.40371e+06 -2.37815e+06 1.50131e+06 -139048 630153
160 3 O 6.1087 104.437 3.29767 -1.2 -8.76496 -3.6398e+06 -4.41373e+06 -2.28932e+06 -450862 -457457 -856473
161 1 Mg 4.61911 106.839 -0.396369 1.2 -7.00097 -3.98239e+06 4.75313e+06 -2.65065e+06 2.17068e+06 4.48254e+06 -2.01883e+06
162 3 O 5.87137 104.692 5.85142 -1.2 -8.53048 -5.64736e+06 -2.707e+06 -840482 98735.3 -662452 12642.5
163 1 Mg 4.74196 109.138 1.63877 1.2 -7.68903 -558972 755130 1.55482e+06 706497 -93834.6 -1.7778e+06
164 2 Si 2.63811 107.379 1.45865 2.4 -32.7237 7.45833e+06 1.20075e+07 2.16796e+06 -1.03599e+06 -926550 -2.39702e+06
165 3 O 5.68043 107.578 1.53166 -1.2 -9.02329 233108 -6.15106e+06 -1.68724e+06 624667 -531463 1.88418e+06
166 3 O 3.88639 111.272 1.30063 -1.2 -9.45273 -1.32953e+06 -8.76597e+06 -1.41288e+06 -838537 -132563 798891
167 3 O 3.24349 108.08 0.191981 -1.2 -9.55719 -4.69636e+06 -6.16634e+06 -2.04286e+06 1.67518e+06 -1.09206e+06 2.5129e+06
168 3 O 3.1747 108.023 2.7537 -1.2 -9.66143 -4.54466e+06 -5.08357e+06 -2.04504e+06 -2619.94 279133 -1.18344e+06
169 1 Mg 2.24698 111.672 -0.12887 1.2 -7.65111 1.34724e+06 5.98769e+06 -3.2106e+06 -761035 -1.08075e+06 368890
170 1 Mg 7.01828 114.364 1.30808 1.2 -8.56759 1.68201e+06 -417540 2.02243e+06 -244277 -13097.3 422136
171 2 Si 4.48794 112.631 1.49323 2.4 -33.4527 2.84521e+06 1.14004e+07 7.98965e+06 -1.05916e+06 495104 2.27243e+06
172 3 O 6.03758 112.702 1.41838 -1.2 -9.59004 -3.97046e+06 -6.83116e+06 -3.60598e+06 -1.27348e+06 -1.89598e+06 -1.53081e+06
173 3 O 3.18643 116.305 1.3187 -1.2 -9.19151 -1.72676e+06 -5.71294e+06 -920038 15184.1 -665861 -1.68031e+06
174 3 O 3.93159 113.354 0.0890849 -1.2 -8.07194 -3.43817e+06 -5.99866e+06 -2.22376e+06 374428 1.92461e+06 -1.35096e+06
175 1 Mg 2.39693 122.315 2.6277 1.2 -8.21504 183584 5.20861e+06 -2.68668e+06 -789667 2.34042e+06 2.50748e+06
176 3 O 3.72346 113.491 2.62573 -1.2 -9.07845 -4.5381e+06 -2.61527e+06 -4.27137e+06 -1.04584e+06 -675508 -621300
177 1 Mg 2.53513 119.245 4.21699 1.2 -8.92714 1.41758e+06 1.21936e+06 2.50102e+06 2.24094e+06 134657 185127
178 2 Si 5.31073 121.006 4.27383 2.4 -33.7436 1.16203e+07 1.11996e+07 8.94487e+06 -1.13073e+06 -239873 836398
179 3 O 3.60825 121.142 4.20798 -1.2 -8.52603 1.21983e+06 -3.55806e+06 -4.68211e+06 -793045 1.3216e+06 -1.1923e+06
180 3 O 5.87364 117.27 4.26257 -1.2 -8.74221 -1.98903e+06 -3.16432e+06 -2.8761e+06 -1.27364e+06 -381888 1.31139e+06
181 3 O 5.93246 120.289 2.90842 -1.2 -8.44555 -3.5864e+06 -2.41765e+06 1.13749e+06 15095.4 -1.04244e+06 -791916
182 3 O 5.98894 120.366 5.57747 -1.2 -8.05686 -5.7965e+06 -4.87509e+06 1.91281e+06 1.12918e+06 242813 -1.17434e+06
183 1 Mg 4.69175 116.558 2.86058 1.2 -7.38758 -1.51969e+06 5.08708e+06 -1.08137e+06 1.53886e+06 -1.56546e+06 2.21694e+06
184 1 Mg 4.68401 113.964 4.27742 1.2 -8.34279 919933 -231254 1.24605e+06 -1.35308e+06 -306923 878178
185 2 Si 6.69066 115.741 4.2222 2.4 -33.051 1.26841e+06 1.35367e+07 9.61104e+06 -1.54268e+06 -2.0485e+06 1.94329e+06
186 3 O 3.37671 115.94 4.29144 -1.2 -9.66144 -6.19701e+06 -5.19829e+06 -4.24605e+06 -256791 12302 -627785
187 3 O 5.67401 112.197 4.35643 -1.2 -9.25502 -3.14407e+06 -8.89549e+06 -3.81129e+06 507567 161126 -2.13168e+06
188 3 O 5.96882 114.965 3.01769 -1.2 -9.37733 -3.91875e+06 -4.50052e+06 -2.79428e+06 -374078 856610 -1.18004e+06
189 1 Mg 4.78356 116.81 -0.141476 1.2 -7.99343 292524 5.88024e+06 -1.94668e+06 970749 2.10967e+06 -171402
190 3 O 5.96941 115.133 5.62634 -1.2 -8.13315 -3.25413e+06 -4.88914e+06 2.33727e+06 -654669 -921784 -1.20251e+06
191 1 Mg 4.67257 119.664 1.30722 1.2 -9.09256 2.79092e+06 1.40563e+06 2.24188e+06 -1.46089e+06 103717 1.56914e+06
192 2 Si 2.66231 117.825 1.35327 2.4 -34.0755 5.61418e+06 1.22436e+07 7.10229e+06 -99648.9 -512538 2.21164e+06
193 3 O 5.91511 117.857 1.24081 -1.2 -8.83735 -4.42169e+06 -4.68443e+06 -4.13981e+06 1.47511e+06 -260183 -1.71339e+06
194 3 O 3.77066 121.871 1.2598 -1.2 -8.65912 -3.18893e+06 -6.75503e+06 -1.617e+06 245717 280840 -1.62845e+06
195 3 O 3.44727 118.594 0.0261405 -1.2 -8.1585 -5.18579e+06 -2.43338e+06 -571521 -162572 -964390 -2.04708e+06
196 3 O 3.36008 118.533 2.58116 -1.2 -8.73544 -4.95837e+06 -3.03335e+06 -2.39168e+06 942589 536222 -1.53337e+06
197 1 Mg 2.25112 122.156 -0.264388 1.2 -7.85413 -1.08601e+06 4.44682e+06 -1.48113e+06 -12316.5 -770790 -479385
198 1 Mg 7.04264 125.219 1.0026 1.2 -8.24074 1.01537e+06 1.64526e+06 -1.92145e+06 2.0558e+06 -1.05048e+06 1.82662e+06
199 2 Si 4.40576 123.347 1.25352 2.4 -34.0575 6.66298e+06 1.21625e+07 4.64176e+06 -247740 855193 1.22654e+06
200 3 O 6.01671 123.231 1.25027 -1.2 -9.10502 -2.61251e+06 -4.6767e+06 -3.53735e+06 -387634 563176 -566398
201 3 O 3.63193 127.254 1.0815 -1.2 -8.57735 -2.28271e+06 -7.2577e+06 -3.63636e+06 -204675 -671625 -466068
202 3 O 3.67898 124.058 0.0481501 -1.2 -9.05775 -3.25836e+06 -5.14147e+06 -2.20793e+06 942831 925717 8866.32
203 1 Mg 2.58551 133.44 3.01198 1.2 -6.78908 -2.25288e+06 3.96058e+06 -547382 -2.28455e+06 1.53704e+06 592512
204 3 O 3.91456 123.942 2.58656 -1.2 -8.53859 -3.71188e+06 -5.55844e+06 -2.2041e+06 247412 175604 -1.63007e+06
205 1 Mg 2.55772 129.841 4.20258 1.2 -8.10275 3.49038e+06 1.8533e+06 2.25666e+06 396352 708247 713555
206 2 Si 5.23871 131.933 4.32748 2.4 -32.8476 6.48474e+06 1.40245e+07 9.26323e+06 -504834 1.81102e+06 1.47678e+06
207 3 O 3.66314 132.062 4.4038 -1.2 -9.58722 -671488 -4.07001e+06 -1.1519e+06 -1.61263e+06 806427 -323667
208 3 O 6.14086 128.086 4.14212 -1.2 -9.33907 -4.54666e+06 -6.19265e+06 -1.8373e+06 -778440 -192703 129669
209 3 O 5.74937 130.976 3.15103 -1.2 -9.28437 -2.04748e+06 -1.63024e+06 1.43764e+06 -1.45475e+06 149559 381282
210 3 O 6.02035 131.388 5.85891 -1.2 -7.75509 -3.37607e+06 -3.61816e+06 3.03088e+06 1.32441e+06 2.98083e+06 -1.70764e+06
211 1 Mg 4.89174 127.712 2.6199 1.2 -7.819 -2.84062e+06 5.12514e+06 -987959 999627 -2.0451e+06 2.40892e+06
212 1 Mg 4.98935 124.529 4.19812 1.2 -8.57122 2.6263e+06 3.12511e+06 589943 -822195 109694 1.04024e+06
213 2 Si 6.93713 126.67 4.03722 2.4 -33.0353 7.16522e+06 1.22091e+07 6.03808e+06 278455 -467440 2.63119e+06
214 3 O 3.69469 126.904 4.06613 -1.2 -9.3273 -3.12909e+06 -5.60585e+06 -974865 -116683 986523 -917538
215 3 O 5.95883 122.59 4.20646 -1.2 -8.77166 -4.57464e+06 -1.71016e+06 -3.62071e+06 2.26444e+06 -1.56447e+06 -788293
216 3 O 6.2047 125.897 2.83039 -1.2 -9.18455 -2.49125e+06 -2.59803e+06 -467403 685995 433153 -1.30464e+06
217 1 Mg 5.13148 127.864 -0.404147 1.2 -7.33044 -956213 4.27203e+06 -2.65483e+06 1.84978e+06 1.96751e+06 -2.06618e+06
218 3 O 6.31413 125.955 5.4819 -1.2 -8.64999 -2.72103e+06 -3.84026e+06 2.03857e+06 872367 -1.48776e+06 -1.65383e+06
219 1 Mg 4.73213 130.549 1.22889 1.2 -7.76605 196199 1.49278e+06 2.4545e+06 -1.73102e+06 -101236 324410
220 2 Si 2.89066 128.683 1.19341 2.4 -33.0042 796321 1.16115e+07 5.48806e+06 -1.77831e+06 -488162 2.0365e+06
221 3 O 6.20865 128.672 1.0657 -1.2 -9.63369 -8.27034e+06 -5.6421e+06 -2.42871e+06 206845 310962 -373589
222 3 O 4.12554 132.894 1.16658 -1.2 -9.78948 -2.12929e+06 -6.85234e+06 1.1576e+06 -61051.4 940632 -616815
223 3 O 3.64062 129.429 0.0373135 -1.2 -8.8823 -3.77107e+06 -6.14999e+06 -3.85276e+06 -1.1207e+06 -550620 1.40236e+06
224 3 O 3.6377 129.345 2.49853 -1.2 -9.17114 -3.84703e+06 -4.2898e+06 -3.28689e+06 -201004 354975 -1.02256e+06
225 1 Mg 2.50752 132.94 -0.24314 1.2 -6.40719 -960166 5.78704e+06 -747506 -991279 -555171 109597
226 1 Mg 7.36093 136.161 1.50763 1.2 -8.26484 972202 1.76434e+06 390622 1.54417e+06 767302 -568321
227 2 Si 4.58223 134.338 1.44343 2.4 -32.6714 5.76316e+06 1.30964e+07 1.8262e+06 -719681 -1.06721e+06 -1.27454e+06
228 3 O 6.24455 134.204 1.39092 -1.2 -9.52979 -62498.8 -5.52167e+06 788449 -1.99769e+06 -1.78351e+06 1.13238e+06
229 3 O 3.58101 137.927 1.20424 -1.2 -8.74737 -5.18854e+06 -5.17182e+06 -2.02944e+06 374406 2.09169e+06 -1.18822e+06
230 3 O 4.06063 135.343 0.391327 -1.2 -8.62809 -6.06754e+06 -7.707e+06 -2.14428e+06 -636138 1.94211e+06 1.67276e+06
231 1 Mg 2.64875 143.43 2.70598 1.2 -7.9103 316929 2.69523e+06 -3.17486e+06 902989 -877255 2.85149e+06
232 3 O 3.8393 134.802 2.7611 -1.2 -9.4938 -2.98777e+06 -7.21712e+06 -4.97953e+06 -173143 -834931 -158001
233 1 Mg 2.73198 140.543 4.35883 1.2 -7.40646 -87902.7 2.28551e+06 861144 321551 39849.6 471512
234 2 Si 5.20882 142.491 4.26112 2.4 -33.209 3.7405e+06 1.00173e+07 9.11222e+06 -137338 783677 3.2379e+06
235 3 O 3.66096 142.691 4.09099 -1.2 -9.70416 -4.14864e+06 -4.2397e+06 -5.07529e+06 -1.14652e+06 588356 -1.02658e+06
236 3 O 6.41014 138.795 4.25224 -1.2 -9.7348 296808 -5.59409e+06 -3.06748e+06 -1.54276e+06 -131951 -342065
237 3 O 5.83621 141.806 2.95846 -1.2 -8.73057 -3.27487e+06 -4.50033e+06 -411260 1.16767e+06 -957963 -510705
238 3 O 5.91354 141.924 5.51229 -1.2 -9.5669 -1.25074e+06 -4.65303e+06 -4.74739e+06 539590 1.43107e+06 897563
239 1 Mg 4.96642 138.436 2.92376 1.2 -7.28392 296633 5.33398e+06 -1.08148e+06 698867 -1.03247e+06 435739
240 1 Mg 5.1283 135.392 4.25881 1.2 -7.98973 244019 1.69157e+06 -488517 -720135 311577 -584332
241 2 Si 7.14425 137.224 4.45691 2.4 -32.7332 924413 1.14186e+07 5.85159e+06 -1.97006e+06 -305931 -1.77712e+06
242 3 O 3.83086 137.28 4.28529 -1.2 -9.68298 -6.82022e+06 -4.51587e+06 -3.64277e+06 294388 -821315 -6975.95
243 3 O 5.78715 133.499 4.40781 -1.2 -9.73021 -2.57909e+06 -3.92614e+06 -16503.1 1.59159e+06 109479 1.82717e+06
244 3 O 6.46435 136.526 3.27883 -1.2 -9.20302 -5.29849e+06 -6.10258e+06 -4.03506e+06 118877 222483 -1.53896e+06
245 1 Mg 4.9099 138.063 -0.124029 1.2 -8.23468 -1.78352e+06 4.29569e+06 -4.37434e+06 1.25261e+06 1.22838e+06 -2.42519e+06
246 3 O 6.3428 136.703 5.74491 -1.2 -9.26504 -3.18047e+06 -3.82375e+06 -2.1747e+06 -559949 -1.27014e+06 -1.20361e+06
247 1 Mg 5.04792 141.221 1.06972 1.2 -8.08274 443701 3.87642e+06 1.53074e+06 -862560 148332 1.54433e+06
248 2 Si 2.9364 139.508 1.23139 2.4 -33.2149 4.49014e+06 1.37229e+07 5.12411e+06 81512.9 -631897 1.74748e+06
249 3 O 6.19283 139.146 1.27072 -1.2 -9.27998 -3.01431e+06 -4.93729e+06 -2.27257e+06 1.42172e+06 -598765 -1.27905e+06
250 3 O 4.31641 143.624 1.52227 -1.2 -8.4732 -6.42646e+06 -7.04306e+06 -3.13426e+06 2.80294e+06 138185 389956
251 3 O 3.63062 140.272 -0.0204602 -1.2 -9.24693 -1.98147e+06 -4.19537e+06 -1.17918e+06 364495 -897800 -1.30289e+06
252 3 O 3.55126 140.14 2.50663 -1.2 -9.49874 -3.25724e+06 -5.58516e+06 -122884 -1.48757e+06 427942 -2.2918e+06
253 1 Mg 2.98984 143.918 -0.0278324 1.2 -8.17655 71548.7 4.23061e+06 -1.95663e+06 -50609.5 -756096 -653013
254 1 Mg 7.52801 147.443 2.56007 1.2 -8.0103 3.33928e+06 1.3138e+06 -2.68498e+06 221923 -1.02785e+06 2.63182e+06
255 2 Si 4.97862 144.984 1.33383 2.4 -34.8015 1.17449e+07 1.19241e+07 5.73108e+06 -2.97611e+06 -11040.4 1.85198e+06
256 3 O 6.72102 144.715 1.47603 -1.2 -8.2801 -1.82274e+06 -4.93669e+06 -1.10155e+06 -923044 375637 -1.01303e+06
257 3 O 4.12765 149.095 2.72541 -1.2 -9.05755 -2.74513e+06 -6.13933e+06 -3.92439e+06 455377 -988973 329739
258 3 O 4.47601 145.573 -0.0932244 -1.2 -8.21119 -2.56433e+06 -3.4604e+06 -3.61404e+06 611513 2.48151e+06 -3.33127e+06
259 1 Mg 2.77251 154.45 2.84594 1.2 -6.97265 381236 -58688.3 545475 581943 323372 1.35084e+06
260 3 O 4.49505 146.094 2.42571 -1.2 -8.3101 -642415 -2.48837e+06 -798844 -1.4354e+06 -1.27781e+06 -19616.5
261 1 Mg 2.68657 153.552 5.80121 1.2 -6.90782 -2.74621e+06 1.78548e+06 -2.80696e+06 -2.13353e+06 -1.52521e+06 -1.74037e+06
262 2 Si 5.13275 152.794 4.08203 2.4 -30.8524 5.12326e+06 1.45207e+07 8.26152e+06 -3.38249e+06 -166604 -2.13411e+06
263 3 O 3.87892 154.183 4.42378 -1.2 -9.11588 1.0618e+06 707875 -4.21578e+06 -2.64595e+06 2.54261e+06 169193
264 3 O 6.75473 149.86 5.67256 -1.2 -8.29923 -4.58415e+06 -5.51749e+06 -2.60606e+06 -337958 45809.1 1.91146e+06
265 3 O 5.62873 153.606 2.78415 -1.2 -9.5848 -3.52822e+06 -2.42054e+06 -1.71861e+06 2.11234e+06 2.16167e+06 -1.87743e+06
266 3 O 6.21245 152.388 5.16846 -1.2 -10.0266 -549947 -7.79252e+06 -1.21824e+06 -457135 747769 -1.06808e+06
267 1 Mg 5.36326 149.625 4.17995 1.2 -7.78282 -606245 2.16881e+06 1.27841e+06 2.13088e+06 -2.35221e+06 212267
268 1 Mg 5.3147 145.982 4.5759 1.2 -7.71332 1.5348e+06 2.45023e+06 2.32426e+06 -408094 -231183 1.87395e+06