ITEM: TIMESTEP
18300
ITEM: NUMBER OF ATOMS
5600
ITEM: BOX BOUNDS xy xz yz pp pp pp
0.0000000000000000e+00 7.1234999999999999e+00 0.0000000000000000e+00
0.0000000000000000e+00 2.0198500000000001e+02 2.3744999999999998e+00
0.0000000000000000e+00 1.1958400000000000e+02 0.0000000000000000e+00
ITEM: ATOMS id type element xu yu zu q c_pe c_s[1] c_s[2] c_s[3] c_s[4] c_s[5] c_s[6]
1 1 Mg -1.62814 49.2658 -0.693719 1.2 -7.29082 -1.73358e+06 -94631.7 1.54515e+06 186446 548705 -601151
2 1 Mg 2.95608 51.3087 2.44475 1.2 -8.3244 186282 4.52391e+06 246714 303319 -435720 -851939
3 2 Si 0.852618 50.6952 0.556496 2.4 -33.8037 8.4585e+06 9.14807e+06 5.72288e+06 -608200 1.07476e+06 79403.6
4 3 O 2.23733 49.9831 0.866381 -1.2 -8.53258 -4.71231e+06 -2.66259e+06 -3.408e+06 17822.6 -698002 1.67006e+06
5 3 O -1.26703 53.4377 1.82711 -1.2 -9.02318 -3.27979e+06 -7.08721e+06 -3.04988e+06 -693345 -331109 -242022
6 3 O 0.17331 49.9246 -0.68152 -1.2 -9.14934 -5.14755e+06 -1.98216e+06 -3.74537e+06 936301 111616 1.1346e+06
7 1 Mg -2.32294 58.9924 3.15374 1.2 -8.59356 -80395.7 4.64878e+06 -351034 -1.40502e+06 1.80991e+06 1.8673e+06
8 3 O 0.0150328 50.7555 1.80529 -1.2 -8.69943 -6.70919e+06 -5.75059e+06 -3.16675e+06 -1.57454e+06 -112333 -1.33331e+06
9 1 Mg -2.0786 56.1672 4.89887 1.2 -8.64821 3.00492e+06 1.21021e+06 1.68703e+06 394070 -370750 708788
10 2 Si 0.417109 58.1603 4.69304 2.4 -34.4797 7.23479e+06 1.16062e+07 7.32345e+06 -50608.9 -319846 1.14105e+06
11 3 O -1.10313 58.2094 4.78008 -1.2 -9.03462 -4.68543e+06 -3.16794e+06 -2.83857e+06 -73532.1 184041 -590606
12 3 O 1.37596 54.457 4.79761 -1.2 -9.31237 -2.70601e+06 -4.86416e+06 -2.57153e+06 -601347 -213111 -216498
13 3 O 1.07885 57.4692 3.39104 -1.2 -8.27091 -3.52624e+06 -4.41263e+06 -1.75656e+06 -515093 -980559 -572235
14 3 O 1.16513 57.5184 5.93902 -1.2 -8.61411 -3.68652e+06 -3.10032e+06 -3.21681e+06 -470185 976117 516691
15 1 Mg 0.111674 53.9289 3.26097 1.2 -8.13376 -2.39078e+06 4.87722e+06 -1.4343e+06 748843 -1.98395e+06 2.0173e+06
16 1 Mg 0.62636 50.3196 3.62266 1.2 -7.89332 3.18236e+06 2.06606e+06 -2.12245e+06 -650106 184695 87072.9
17 2 Si 2.09921 53.0353 4.726 2.4 -32.9217 7.08844e+06 1.13963e+07 6.35822e+06 -49030.2 1.20301e+06 156312
18 3 O -1.10748 53.0617 4.71986 -1.2 -9.34867 -2.11434e+06 -4.58406e+06 -1.5682e+06 106412 951282 528549
19 3 O 2.64982 49.8912 3.86155 -1.2 -7.13981 556438 -395031 -1.75283e+06 275373 190256 -942064
20 3 O 1.40857 52.3276 3.44446 -1.2 -8.9612 -3.55079e+06 -4.97208e+06 -2.96139e+06 521877 -93493.8 -192785
21 1 Mg -0.0369018 53.9243 0.276403 1.2 -8.04043 -991466 3.57673e+06 -436817 1.59577e+06 2.33713e+06 -774954
22 3 O 1.53338 52.1728 6.03246 -1.2 -10.1187 -4.33037e+06 -3.9753e+06 -3.76324e+06 1.06771e+06 -1.23122e+06 -897180
23 1 Mg 0.220265 56.6761 1.67526 1.2 -8.85813 2.60561e+06 743036 2.83336e+06 -432111 225086 441656
24 2 Si -1.95431 54.8421 1.80436 2.4 -33.7717 7.44693e+06 1.12147e+07 6.97869e+06 537156 467311 2.16844e+06
25 3 O 1.17606 54.9077 1.86113 -1.2 -9.17506 -1.56541e+06 -4.64302e+06 -3.62071e+06 -52652.3 423652 -1.00222e+06
26 3 O -0.99313 58.5355 1.62436 -1.2 -8.54371 -3.3144e+06 -3.08677e+06 -2.37138e+06 1.29699e+06 -19590.9 -794929
27 3 O -1.31301 55.4734 0.5017 -1.2 -8.82817 -3.22291e+06 -4.62216e+06 -2.51292e+06 388043 -501275 -182201
28 3 O -1.29247 55.5813 3.10007 -1.2 -8.52204 -4.29926e+06 -3.82298e+06 -589510 801035 779142 -565910
29 1 Mg -2.4016 59.1091 0.108257 1.2 -8.2505 -965064 3.46917e+06 -27480.9 -1.08473e+06 -672163 -1.72598e+06
30 1 Mg 2.33185 61.956 1.57801 1.2 -8.9177 2.2383e+06 1.07203e+06 2.94891e+06 1.03414e+06 -106324 -167158
31 2 Si -0.328297 60.0486 1.62982 2.4 -34.1601 9.2788e+06 1.11899e+07 7.83442e+06 -62158.6 849082 762774
32 3 O 1.225 60.0149 1.72525 -1.2 -8.82278 -2.69164e+06 -3.85588e+06 -3.87602e+06 -630547 616518 -703664
33 3 O -1.47258 63.837 1.52304 -1.2 -8.8857 -3.51366e+06 -4.46281e+06 -2.47667e+06 -533630 344039 1.16734e+06
34 3 O -1.13736 60.7363 0.364825 -1.2 -8.83574 -3.78304e+06 -2.893e+06 -3.56639e+06 -853784 2.22426e+06 146051
35 1 Mg -2.29759 69.5074 3.02054 1.2 -8.53814 1.14206e+06 3.94523e+06 -215231 -1.15098e+06 2.00945e+06 1.6107e+06
36 3 O -1.00735 60.7609 2.8985 -1.2 -8.37329 -5.58996e+06 -2.32369e+06 -1.98096e+06 -300597 -916365 -935807
37 1 Mg -2.13929 66.6452 4.55547 1.2 -8.91778 3.05594e+06 1.16732e+06 1.69185e+06 1.14583e+06 -31190.6 -569404
38 2 Si 0.519541 68.5345 4.58932 2.4 -34.8702 9.19113e+06 1.08215e+07 6.94085e+06 294642 1.09979e+06 -1.44058e+06
39 3 O -1.07388 68.5734 4.54703 -1.2 -8.52621 -2.3758e+06 -3.77296e+06 -3.65285e+06 -140541 1.23774e+06 266294
40 3 O 1.45229 64.8165 4.59489 -1.2 -8.92207 -2.87959e+06 -4.24242e+06 -3.00692e+06 -943995 367884 458314
41 3 O 1.07313 67.8651 3.30639 -1.2 -8.45727 -5.04465e+06 -3.45704e+06 -3.60401e+06 327320 -360965 -533993
42 3 O 1.24845 67.8626 5.85054 -1.2 -8.32771 -4.42581e+06 -3.96185e+06 -2.38316e+06 -622276 979211 1.52658e+06
43 1 Mg 0.0472985 64.4204 3.15574 1.2 -8.00714 -455694 4.67063e+06 -354300 740971 -892469 1.45217e+06
44 1 Mg -0.0617127 61.4676 4.53396 1.2 -9.17945 3.02897e+06 566706 3.10035e+06 -897305 -221916 293935
45 2 Si 2.09858 63.2919 4.56277 2.4 -34.2512 8.16595e+06 1.08045e+07 7.8213e+06 605793 -93523.6 618889
46 3 O -1.07116 63.3393 4.52857 -1.2 -8.98122 -2.32736e+06 -3.16406e+06 -3.88146e+06 715336 43445.4 -735558
47 3 O 1.15273 59.6632 4.63053 -1.2 -8.31151 -2.7574e+06 -4.16563e+06 -3.40381e+06 1.16464e+06 433410 -89593.8
48 3 O 1.39988 62.5625 3.37333 -1.2 -8.45677 -4.12252e+06 -3.65645e+06 -3.23705e+06 257998 706086 -490472
49 1 Mg -0.0548823 64.1732 0.134733 1.2 -7.99592 -478494 4.2319e+06 -501692 882959 2.15977e+06 -1.64461e+06
50 3 O 1.4105 62.6561 5.88938 -1.2 -8.23043 -4.43231e+06 -3.09375e+06 -3.06097e+06 -258926 -1.32565e+06 -185413
51 1 Mg 0.0983426 67.1702 1.64093 1.2 -8.9422 2.12713e+06 1.57213e+06 2.97269e+06 -817509 63555.9 158690
52 2 Si -2.05354 65.3438 1.60895 2.4 -33.8939 6.35545e+06 1.10218e+07 7.34132e+06 858953 -296012 183204
53 3 O 1.15054 65.2171 1.66802 -1.2 -9.27895 -3.33826e+06 -3.84078e+06 -3.13729e+06 1.47969e+06 651212 113510
54 3 O -0.889588 69.1721 1.59264 -1.2 -8.24091 -4.59027e+06 -4.98825e+06 -3.81286e+06 458680 441824 -635656
55 3 O -1.4059 66.0254 0.316205 -1.2 -8.58233 -3.1342e+06 -3.45795e+06 -2.8755e+06 -323422 -552476 365232
56 3 O -1.28744 66.0567 2.82744 -1.2 -8.89771 -3.5169e+06 -3.28258e+06 -3.35003e+06 39294.3 1.03128e+06 -618327
57 1 Mg -2.42404 69.7082 0.0357438 1.2 -8.21819 -114837 3.45174e+06 -765190 -538628 -1.54876e+06 -1.47441e+06
58 1 Mg 2.42734 72.5562 1.58193 1.2 -8.3294 1.95852e+06 1.8052e+06 2.54528e+06 821545 44760.9 -192875
59 2 Si -0.299143 70.6352 1.5506 2.4 -34.3964 7.15361e+06 9.84325e+06 8.56456e+06 -366316 89085 -239286
60 3 O 1.27116 70.4967 1.56059 -1.2 -8.88653 -3.06285e+06 -3.84079e+06 -3.59561e+06 -1.39356e+06 218656 -331656
61 3 O -1.35046 74.3777 1.72109 -1.2 -9.32432 -2.71425e+06 -5.29403e+06 -2.11584e+06 -1.24937e+06 147857 598983
62 3 O -0.990714 71.2434 0.225064 -1.2 -8.89503 -3.30645e+06 -4.34044e+06 -1.06105e+06 -166090 1.14651e+06 1.06164e+06
63 1 Mg -2.40581 80.1368 2.99463 1.2 -8.08109 9372.22 4.85076e+06 -1.30671e+06 -1.01098e+06 1.74502e+06 1.26022e+06
64 3 O -0.945833 71.2971 2.85533 -1.2 -8.64491 -3.78468e+06 -4.00878e+06 -1.24487e+06 157364 -417627 -1.19724e+06
65 1 Mg -2.22327 77.2607 4.68599 1.2 -8.893 2.9975e+06 1.3028e+06 1.87822e+06 771960 -360527 -16887.1
66 2 Si 0.360153 79.0996 4.53508 2.4 -33.9688 7.53492e+06 1.10693e+07 8.13043e+06 -1.18061e+06 455952 -1.71074e+06
67 3 O -1.19969 79.1007 4.57451 -1.2 -9.05716 -2.0255e+06 -4.2248e+06 -2.69792e+06 -960169 -57071 693877
68 3 O 1.40938 75.3771 4.63928 -1.2 -8.69151 -2.918e+06 -3.85437e+06 -1.82722e+06 -1.3695e+06 385095 411910
69 3 O 1.04407 78.4171 3.24028 -1.2 -8.68143 -4.00613e+06 -3.40868e+06 -1.11368e+06 -208886 -1.12125e+06 57564.6
70 3 O 1.07222 78.3948 5.88769 -1.2 -8.535 -3.25138e+06 -2.64122e+06 -428556 -677897 1.52857e+06 320865
71 1 Mg 0.00744319 74.8868 3.15596 1.2 -8.01946 -604259 5.22455e+06 -898984 598031 -1.37008e+06 1.27905e+06
72 1 Mg 0.00717457 71.9827 4.47469 1.2 -8.85328 2.82537e+06 2.23078e+06 227961 -991177 35379.8 62046.2
73 2 Si 2.14573 73.8396 4.62295 2.4 -33.7796 6.78642e+06 1.39344e+07 3.66555e+06 -732681 1.3489e+06 1.22069e+06
74 3 O -1.0427 73.8828 4.65869 -1.2 -9.21244 -2.78295e+06 -5.54591e+06 -2.12034e+06 -419203 482943 96660.3
75 3 O 1.18689 70.0322 4.5752 -1.2 -8.37023 -3.6319e+06 -4.03671e+06 -2.37535e+06 845948 -120286 -74205.5
76 3 O 1.4507 73.1454 3.31997 -1.2 -8.74897 -2.69132e+06 -3.61864e+06 -1.4058e+06 351737 1.17624e+06 551563
77 1 Mg 0.0377281 74.7044 0.246412 1.2 -7.86368 -599515 4.82635e+06 -506235 993989 1.68117e+06 -1.25871e+06
78 3 O 1.5362 73.1792 5.82062 -1.2 -8.88535 -4.25336e+06 -5.30678e+06 -4.12879e+06 -140856 475667 1.45218e+06
79 1 Mg 0.0939485 77.6694 1.64641 1.2 -8.80035 2.45572e+06 1.32138e+06 1.7944e+06 -1.1014e+06 -271150 -204538
80 2 Si -2.03332 75.8711 1.67431 2.4 -33.833 5.43015e+06 1.13059e+07 6.92401e+06 43083.1 617171 -297412
81 3 O 1.18862 75.8044 1.62521 -1.2 -9.34127 -3.79985e+06 -4.1949e+06 -3.38921e+06 404559 573609 505779
82 3 O -0.977906 79.6777 1.59514 -1.2 -8.8237 -2.37309e+06 -4.68872e+06 -2.87341e+06 688376 -184255 231598
83 3 O -1.38981 76.5918 0.446512 -1.2 -8.66091 -4.17292e+06 -3.04305e+06 -3.18653e+06 58917.2 -127218 520764
84 3 O -1.27827 76.5678 2.91874 -1.2 -8.57859 -3.06127e+06 -3.79042e+06 -3.20022e+06 339975 597777 -8891.55
85 1 Mg -2.36403 80.094 0.0983725 1.2 -7.92523 -583369 4.99659e+06 -961139 -795408 -959561 -2.64256e+06
86 1 Mg 2.26347 83.0215 1.50505 1.2 -8.41136 1.94917e+06 1.20605e+06 1.99498e+06 1.18314e+06 -411815 -228242
87 2 Si -0.350588 81.1934 1.59808 2.4 -33.5173 5.75552e+06 1.18658e+07 9.24099e+06 55038.3 -339114 -1.69457e+06
88 3 O 1.21408 81.1306 1.61202 -1.2 -9.4656 -2.03942e+06 -3.86669e+06 -3.42e+06 -969139 475.18 942670
89 3 O -1.2211 84.8118 1.4848 -1.2 -9.05366 -1.7899e+06 -4.96878e+06 -2.32135e+06 -250367 -75758.1 -193389
90 3 O -1.05356 81.8198 0.293219 -1.2 -8.85719 -3.33525e+06 -4.64666e+06 -344548 260475 1.07792e+06 1.37909e+06
91 1 Mg -2.24049 90.7554 3.04969 1.2 -8.12723 303200 3.9089e+06 475714 -877862 1.62142e+06 1.45161e+06
92 3 O -1.00589 81.7166 3.00544 -1.2 -8.79911 -2.68772e+06 -4.55719e+06 428845 386665 -927265 8733.69
93 1 Mg -2.14346 87.5805 4.48236 1.2 -8.51806 1.55394e+06 1.23866e+06 2.09141e+06 110384 123616 -346386
94 2 Si 0.431603 89.5088 4.34855 2.4 -34.2532 7.9478e+06 1.03328e+07 8.48562e+06 -702237 -57804.9 313895
95 3 O -1.12922 89.6029 4.42233 -1.2 -9.05602 -3.12195e+06 -2.41766e+06 -3.52981e+06 -1.67283e+06 -514628 -494731
96 3 O 1.55003 85.8944 4.5297 -1.2 -9.37994 -3.10395e+06 -5.988e+06 -1.95891e+06 -1.24079e+06 57427.1 -548637
97 3 O 1.14752 88.8911 3.09662 -1.2 -8.61955 -3.42365e+06 -2.86249e+06 -3.14577e+06 526133 -794144 -424381
98 3 O 1.17253 88.8606 5.63535 -1.2 -8.65099 -3.19199e+06 -3.74873e+06 -1.86984e+06 -135165 1.58865e+06 746000
99 1 Mg 0.0924048 85.5059 3.05186 1.2 -7.68734 -1.29513e+06 4.68332e+06 -286844 1.37822e+06 -1.63657e+06 1.71199e+06
100 1 Mg 0.0933428 82.473 4.61341 1.2 -8.48029 2.18475e+06 2.0217e+06 1.68545e+06 -527175 -38820.4 112823
101 2 Si 2.1533 84.3976 4.49535 2.4 -33.1716 7.06199e+06 1.21331e+07 6.06183e+06 404102 870097 334243
102 3 O -1.00304 84.4866 4.56138 -1.2 -9.43871 -1.00872e+06 -4.68205e+06 -2.37419e+06 906909 624217 -404183
103 3 O 0.982779 80.5434 4.58096 -1.2 -9.24149 -4.10615e+06 -6.16092e+06 -1.96304e+06 914911 -620418 827293
104 3 O 1.43054 83.7121 3.23551 -1.2 -9.04824 -2.42878e+06 -3.02117e+06 -2.24612e+06 666226 886926 -45441.8
105 1 Mg 0.11613 85.3546 -0.0669727 1.2 -7.83771 -233930 4.73849e+06 -586845 1.40136e+06 1.67945e+06 -1.94343e+06
106 3 O 1.48542 83.6343 5.72892 -1.2 -9.13586 -3.27872e+06 -3.03599e+06 -2.2637e+06 377904 -930731 236736
107 1 Mg 0.212963 88.1451 1.42281 1.2 -8.36567 2.59679e+06 1.78381e+06 1.7424e+06 -904979 152667 565439
108 2 Si -1.88704 86.2796 1.4725 2.4 -33.1818 5.0881e+06 1.25538e+07 5.30281e+06 -872219 -346087 719538
109 3 O 1.26861 86.2858 1.45764 -1.2 -9.59926 -1.39678e+06 -4.75189e+06 -1.9385e+06 -471827 57951.8 -184874
110 3 O -0.909299 90.1305 1.53899 -1.2 -8.62895 -3.67868e+06 -3.45893e+06 -2.4829e+06 419875 -334940 1.29816e+06
111 3 O -1.26976 86.9444 0.190272 -1.2 -9.19565 -2.56603e+06 -4.33967e+06 -2.57677e+06 164286 -128272 843102
112 3 O -1.25649 86.958 2.74174 -1.2 -9.27397 -3.32614e+06 -5.45115e+06 -2.40382e+06 883645 562058 -896286
113 1 Mg -2.33801 90.4501 -0.00998285 1.2 -8.32219 -156489 3.85893e+06 344732 -982556 -869786 -1.95544e+06
114 1 Mg 2.22283 93.5495 1.50811 1.2 -8.16996 1.87669e+06 180716 2.02622e+06 -27646.6 34881.5 201036
115 2 Si -0.277951 91.6247 1.43484 2.4 -34.1881 7.92633e+06 1.00911e+07 7.65426e+06 -375945 1.04582e+06 -1.16907e+06
116 3 O 1.31709 91.496 1.39298 -1.2 -9.01164 -2.13957e+06 -3.39775e+06 -3.23439e+06 -502707 1.01332e+06 1.26306e+06
117 3 O -1.49628 95.2165 1.51613 -1.2 -9.55691 -2.41657e+06 -6.62831e+06 -3.16606e+06 -1.83481e+06 -729480 482506
118 3 O -0.992674 92.1643 0.09742 -1.2 -8.52382 -4.24559e+06 -3.74476e+06 -2.72273e+06 -791904 1.46164e+06 1.2945e+06
119 1 Mg -2.2882 101.132 2.80878 1.2 -7.8193 -1.0134e+06 4.0202e+06 -1.00698e+06 -673966 1.82046e+06 1.41245e+06
120 3 O -0.861803 92.4046 2.63916 -1.2 -9.00306 -2.82753e+06 -3.71404e+06 -3.2609e+06 -127209 -890812 -1.09176e+06
121 1 Mg -2.34442 98.2326 4.37094 1.2 -8.33874 2.45532e+06 1.41265e+06 2.11414e+06 1.04749e+06 225233 -857025
122 2 Si 0.371161 100.133 4.1887 2.4 -33.5135 4.36442e+06 1.06295e+07 6.97101e+06 734342 -332011 -1.21172e+06
123 3 O -1.18054 100.111 4.21807 -1.2 -9.47423 -3.03648e+06 -4.11239e+06 -3.58683e+06 793019 -244174 220921
124 3 O 1.41227 96.264 4.48562 -1.2 -9.00326 -3.23974e+06 -6.34058e+06 -2.72845e+06 -855312 52568.3 168246
125 3 O 0.954879 99.503 2.89966 -1.2 -9.04749 -3.62827e+06 -4.23796e+06 -4.55721e+06 -161149 -246530 -738135
126 3 O 1.02936 99.3777 5.45119 -1.2 -8.95916 -3.75371e+06 -4.25093e+06 -2.31546e+06 -89712 975250 636848
127 1 Mg -0.0597536 95.561 2.86079 1.2 -7.59974 -2.64672e+06 4.38286e+06 -546730 548381 -748961 1.97151e+06
128 1 Mg 0.00265494 93.0494 4.4531 1.2 -8.55648 1.04856e+06 1.48454e+06 2.70937e+06 -1.21787e+06 213041 529179
129 2 Si 2.07152 94.8458 4.47174 2.4 -33.1914 5.59338e+06 1.15319e+07 6.08076e+06 420906 -370133 286516
130 3 O -1.11171 94.849 4.47711 -1.2 -9.65011 -2.87842e+06 -5.17528e+06 -3.5964e+06 490947 192371 -532202
131 3 O 1.04279 91.0555 4.40631 -1.2 -8.57513 -2.91842e+06 -3.28889e+06 -3.13597e+06 1.1343e+06 306162 -522635
132 3 O 1.30792 94.1154 3.29056 -1.2 -9.31789 -3.79247e+06 -5.28011e+06 -4.22172e+06 -78615.7 938846 -1.12666e+06
133 1 Mg -0.188028 95.7882 -0.0622209 1.2 -7.69633 -1.19784e+06 4.60728e+06 -520261 855686 1.78191e+06 -1.19838e+06
134 3 O 1.37024 94.1482 5.77531 -1.2 -8.69351 -2.68373e+06 -4.84156e+06 -2.51687e+06 313216 -1.1909e+06 -111603
135 1 Mg -0.121994 98.6537 1.49213 1.2 -8.18215 1.39169e+06 1.36064e+06 2.41857e+06 -748428 -536133 -517713
136 2 Si -2.20501 96.6868 1.53122 2.4 -32.5558 6.12267e+06 9.95222e+06 8.49777e+06 -9535.14 912441 588560
137 3 O 0.982786 96.6044 1.50813 -1.2 -9.88328 -2.02743e+06 -3.34814e+06 -3.39474e+06 206848 1.359e+06 112561
138 3 O -1.06298 100.524 1.29077 -1.2 -9.31324 -2.50767e+06 -3.72224e+06 -2.8925e+06 1.98578e+06 -147011 -272014
139 3 O -1.56859 97.3021 0.198644 -1.2 -9.22497 -2.55684e+06 -3.7814e+06 -1.90729e+06 289105 -730130 906642
140 3 O -1.40943 97.4166 2.7605 -1.2 -9.2275 -1.56623e+06 -2.37801e+06 -2.79126e+06 676023 1.50259e+06 -117859
141 1 Mg -2.55958 100.819 -0.145723 1.2 -7.62232 -1.31999e+06 4.3811e+06 496113 -365462 -976538 -1.44447e+06
142 1 Mg 7.16395 103.926 1.35439 1.2 -8.17099 1.67995e+06 732842 1.95179e+06 1.01049e+06 -285830 550634
143 2 Si -0.285709 101.995 1.18212 2.4 -33.0526 4.85124e+06 1.13206e+07 8.61426e+06 650529 905887 10262.3
144 3 O 1.22759 101.946 1.26154 -1.2 -9.62908 -3.27594e+06 -4.28206e+06 -3.7209e+06 449069 1.01601e+06 664929
145 3 O 3.4725 105.699 1.37244 -1.2 -9.52532 -1.07281e+06 -7.16846e+06 -3.41338e+06 -1.09888e+06 -125074 -531336
146 3 O -0.971961 102.692 -0.072949 -1.2 -9.02481 -3.06574e+06 -3.00839e+06 -3.51506e+06 78106.2 866612 695882
147 1 Mg 2.43441 111.166 2.74673 1.2 -7.95967 -887166 4.39859e+06 -606509 -821152 1.33296e+06 1.92386e+06
148 3 O -0.926661 102.741 2.51592 -1.2 -9.03499 -2.99218e+06 -3.45343e+06 -825958 -549489 -776043 -152072
149 1 Mg 2.43836 108.534 4.30623 1.2 -8.5421 2.13522e+06 737701 2.70197e+06 663564 -162618 967938
150 2 Si 5.08917 110.342 4.34134 2.4 -33.584 6.3285e+06 1.16707e+07 7.7755e+06 863225 851015 259775
151 3 O 3.54883 110.423 4.30163 -1.2 -9.49607 -3.5386e+06 -5.13915e+06 -2.93015e+06 716266 887877 -191831
152 3 O 6.19566 106.697 4.27611 -1.2 -9.29883 -2.39754e+06 -5.9594e+06 -2.30392e+06 -1.1745e+06 -138447 -721201
153 3 O 5.73285 109.619 3.0803 -1.2 -8.89807 -3.20668e+06 -5.17843e+06 -1.80071e+06 -348078 -826111 -1.42271e+06
154 3 O 5.8376 109.7 5.67038 -1.2 -8.75702 -2.62184e+06 -3.97978e+06 -893253 -687447 1.33096e+06 344190
155 1 Mg 4.90369 106.141 2.81918 1.2 -7.69319 -1.33164e+06 5.10337e+06 -1.71068e+06 1.12598e+06 -1.57584e+06 1.94873e+06
156 1 Mg -0.0210089 103.496 4.27528 1.2 -8.34968 858210 875127 1.4715e+06 -898101 540041 370549
157 2 Si 6.89306 105.231 4.30113 2.4 -32.6149 3.8126e+06 1.36258e+07 5.33707e+06 384567 -580660 30106.7
158 3 O 3.66265 105.225 4.23131 -1.2 -9.80033 -3.03367e+06 -5.93903e+06 -2.66863e+06 713629 33845.9 -206717
159 3 O 1.11834 101.535 4.25887 -1.2 -9.04304 -2.57583e+06 -6.67335e+06 -3.86941e+06 986811 189859 56177.8
160 3 O 6.14149 104.536 3.08473 -1.2 -9.30436 -3.88333e+06 -5.55648e+06 -1.93985e+06 36628.2 569402 -1.15267e+06
161 1 Mg 4.78865 106.045 -0.13363 1.2 -7.27442 -1.58626e+06 4.64922e+06 -111733 1.43508e+06 2.00652e+06 -820924
162 3 O 6.16657 104.566 5.61808 -1.2 -9.38838 -2.19185e+06 -5.44366e+06 -1.5855e+06 460917 -895344 -228781
163 1 Mg 4.81124 108.941 1.30526 1.2 -8.41226 1.31186e+06 185843 2.85579e+06 -969401 6952 402178
164 2 Si 2.78056 107.152 1.24684 2.4 -32.9975 4.6169e+06 1.02193e+07 6.48452e+06 -1.19808e+06 496487 1.24919e+06
165 3 O 5.96756 107.199 1.31517 -1.2 -9.629 -2.38379e+06 -3.92473e+06 -3.60879e+06 48135.2 -390666 -569940
166 3 O 3.78534 110.759 1.26723 -1.2 -9.31366 -2.35049e+06 -4.81082e+06 -2.64229e+06 1.05686e+06 43023.9 191814
167 3 O 3.42899 107.723 -0.0316218 -1.2 -9.53601 -3.19203e+06 -3.76421e+06 -4.02018e+06 11812.7 114245 670027
168 3 O 3.41493 107.879 2.5077 -1.2 -8.7742 -4.2895e+06 -4.39903e+06 -1.87612e+06 -380473 227784 -1.18159e+06
169 1 Mg 2.32138 111.351 -0.243667 1.2 -7.58262 -1.25283e+06 4.53868e+06 -866.641 -528244 -917563 -1.37691e+06
170 1 Mg 6.99126 114.11 1.44862 1.2 -8.65528 2.06432e+06 1.53273e+06 1.91445e+06 730445 291732 -768181
171 2 Si 4.41096 112.26 1.30535 2.4 -33.1162 5.64195e+06 1.17339e+07 7.25614e+06 -445805 -67965.6 -276548
172 3 O 5.97729 112.193 1.33927 -1.2 -9.66649 -1.84252e+06 -4.04086e+06 -2.8845e+06 -831248 -206161 501595
173 3 O 3.31262 116.048 1.44983 -1.2 -8.46045 -3.72881e+06 -3.38288e+06 -2.7674e+06 -1.55547e+06 47827.1 397905
174 3 O 3.72762 112.936 0.0534184 -1.2 -9.18604 -2.34114e+06 -4.18267e+06 -1.83184e+06 -378349 633671 442005
175 1 Mg 2.43011 121.742 2.96972 1.2 -7.67554 -1.88662e+06 3.09401e+06 -371510 -1.99375e+06 1.93669e+06 1.41119e+06
176 3 O 3.70863 112.927 2.61704 -1.2 -9.00338 -2.74843e+06 -2.91212e+06 -1.80662e+06 -285302 -514296 499454
177 1 Mg 2.51046 118.813 4.41332 1.2 -8.55287 1.36274e+06 726588 1.63861e+06 1.13513e+06 -76454.6 -504860
178 2 Si 5.16505 120.632 4.33941 2.4 -33.1423 6.65522e+06 1.06627e+07 7.63915e+06 -307011 556904 -832567
179 3 O 3.5727 120.698 4.33852 -1.2 -9.50533 -1.2643e+06 -4.15383e+06 -2.90899e+06 -977175 -263374 250114
180 3 O 6.08955 117.015 4.4525 -1.2 -8.92797 -2.80223e+06 -4.81258e+06 -3.78917e+06 -1.36828e+06 555551 1.0183e+06
181 3 O 5.83698 119.974 3.10717 -1.2 -9.06134 -3.57315e+06 -3.70992e+06 -2.40893e+06 702081 -121229 -376063
182 3 O 5.88391 119.984 5.66964 -1.2 -9.1176 -2.19933e+06 -3.87013e+06 -1.83623e+06 -121624 1.72224e+06 415176
183 1 Mg 4.64759 116.523 2.88698 1.2 -8.06033 158030 3.7751e+06 118940 482987 -942208 1.28357e+06
184 1 Mg 4.7859 113.598 4.2215 1.2 -8.4998 3.0738e+06 1.0348e+06 2.78364e+06 -922754 -270479 -542183
185 2 Si 6.80994 115.553 4.41604 2.4 -33.8672 6.14813e+06 1.00094e+07 9.16042e+06 -545566 505865 -352978
186 3 O 3.61165 115.59 4.38731 -1.2 -9.27794 -3.11362e+06 -3.34301e+06 -4.83332e+06 -419602 -153529 123247
187 3 O 5.87287 111.775 4.28858 -1.2 -8.8007 -2.68646e+06 -4.93181e+06 -2.9825e+06 1.11185e+06 -83902.3 9170.62
188 3 O 6.12183 114.847 3.08596 -1.2 -8.77441 -3.20786e+06 -2.25482e+06 -2.45093e+06 449130 1.49868e+06 911078
189 1 Mg 4.66903 116.579 -0.119082 1.2 -8.01956 -141735 3.66854e+06 -203623 776003 968107 -2.61835e+06
190 3 O 6.17635 114.875 5.668 -1.2 -8.6244 -3.92382e+06 -3.94328e+06 -2.98867e+06 130226 -218740 1.44482e+06
191 1 Mg 4.73635 119.335 1.34615 1.2 -8.28665 1.91167e+06 829976 2.67918e+06 -634179 146692 -410625
192 2 Si 2.5874 117.577 1.38453 2.4 -33.6886 5.03538e+06 1.21148e+07 7.71691e+06 -295231 -162892 -1.05842e+06
193 3 O 5.8194 117.41 1.3483 -1.2 -9.42816 -3.93641e+06 -4.74303e+06 -3.19189e+06 458497 -617463 505222
194 3 O 3.76866 121.154 1.32036 -1.2 -9.16014 -2.14336e+06 -5.28464e+06 -3.80637e+06 886013 -452838 1.18097e+06
195 3 O 3.3726 118.182 0.128086 -1.2 -9.05792 -3.17493e+06 -4.72866e+06 -3.04513e+06 662539 -1.30165e+06 1.54503e+06
196 3 O 3.26306 118.223 2.65772 -1.2 -8.92072 -2.99238e+06 -4.93131e+06 -3.09992e+06 748992 1.23726e+06 -967956
197 1 Mg 2.3562 121.598 -0.0282163 1.2 -7.9513 -1.32211e+06 4.52683e+06 -907349 -1.12107e+06 -1.5634e+06 -2.09146e+06
198 1 Mg 6.95923 124.353 1.57533 1.2 -8.22472 915588 -738897 3.28481e+06 165137 236152 -429657
199 2 Si 4.38345 122.665 1.41273 2.4 -33.0712 5.14893e+06 1.07403e+07 7.61437e+06 354629 54734.6 -1.18612e+06
200 3 O 5.94484 122.653 1.4124 -1.2 -9.5812 -2.27645e+06 -4.66977e+06 -4.44694e+06 -1.16367e+06 381874 1.16511e+06
201 3 O 3.10495 126.169 1.57263 -1.2 -9.30151 -2.22161e+06 -6.52245e+06 -3.36834e+06 -1.05601e+06 101567 229685
202 3 O 3.64237 123.325 0.203471 -1.2 -8.95381 -4.61359e+06 -5.34436e+06 -2.73087e+06 -377616 751498 2.03742e+06
203 1 Mg 2.25545 131.94 3.04071 1.2 -7.97545 -268092 3.99283e+06 -465958 -907018 1.22123e+06 2.46533e+06
204 3 O 3.66817 123.199 2.74681 -1.2 -9.38218 -3.63213e+06 -5.48418e+06 -3.08e+06 -1.28333e+06 -1.04071e+06 123390
205 1 Mg 2.27572 128.936 4.37638 1.2 -8.3745 1.99291e+06 -317270 2.72188e+06 455371 625553 21529.1
206 2 Si 4.93171 130.823 4.45907 2.4 -33.8939 5.38338e+06 1.05263e+07 8.26283e+06 406814 -378199 1.09238e+06
207 3 O 3.38791 130.93 4.49458 -1.2 -9.26933 -3.00869e+06 -3.64463e+06 -3.63098e+06 -665145 -286369 -361628
208 3 O 6.03596 127.228 4.43735 -1.2 -9.31997 -2.19232e+06 -4.62344e+06 -2.30354e+06 -1.21286e+06 -13139.9 -158935
209 3 O 5.57177 130.158 3.19938 -1.2 -8.84653 -3.40792e+06 -3.31411e+06 -3.06104e+06 715963 107146 -1.70032e+06
210 3 O 5.59747 130.212 5.77558 -1.2 -8.96341 -4.05233e+06 -4.05932e+06 -2.20128e+06 -585245 1.07692e+06 191299
211 1 Mg 4.55081 126.771 3.02742 1.2 -7.69806 -1.18477e+06 4.32728e+06 -61825.1 364628 -518219 1.76483e+06
212 1 Mg 4.63549 123.882 4.44841 1.2 -8.13523 839374 861221 1.53853e+06 -1.11382e+06 265649 -100760
213 2 Si 6.71778 125.702 4.44063 2.4 -32.7148 3.463e+06 1.14052e+07 7.13814e+06 -306254 772062 173658
214 3 O 3.48786 125.814 4.40314 -1.2 -9.88336 -3.42448e+06 -4.26167e+06 -4.4764e+06 384784 1.11144e+06 -70516.6
215 3 O 5.80159 122.129 4.36799 -1.2 -9.24594 -2.59663e+06 -5.23559e+06 -3.08669e+06 1.2221e+06 730939 358006
216 3 O 5.93134 125.006 3.25683 -1.2 -9.25772 -2.96091e+06 -4.35106e+06 -3.9839e+06 -379883 891715 -376542
217 1 Mg 4.54668 126.67 -0.0438907 1.2 -8.28098 -965818 3.65733e+06 -69033.8 1.10605e+06 1.01483e+06 -990413
218 3 O 6.08973 125.045 5.73058 -1.2 -9.48988 -2.44232e+06 -4.31655e+06 -3.07226e+06 -599350 -760765 168212
219 1 Mg 4.50256 129.591 1.49026 1.2 -8.66912 2.79177e+06 476515 2.196e+06 -838154 -74832.5 1.58827e+06
220 2 Si 2.44859 127.578 1.42463 2.4 -33.6051 7.7414e+06 9.64582e+06 8.54175e+06 -174785 -122429 1.54484e+06
221 3 O 5.62129 127.615 1.41346 -1.2 -9.27315 -2.19966e+06 -3.53726e+06 -4.0036e+06 17338.7 -844984 -514334
222 3 O 3.57677 131.425 1.52634 -1.2 -8.99406 -2.88857e+06 -3.82904e+06 -3.65586e+06 1.89529e+06 -569890 -216134
223 3 O 3.23059 128.165 0.0992932 -1.2 -8.5725 -4.93218e+06 -3.36147e+06 -3.50638e+06 1.3249e+06 -2.14644e+06 -956941
224 3 O 3.13002 128.428 2.63903 -1.2 -8.89818 -3.65919e+06 -3.17337e+06 -2.81603e+06 760288 1.6578e+06 -1.22224e+06
225 1 Mg 2.25541 131.867 0.166815 1.2 -7.81778 -1.35895e+06 4.24072e+06 -303617 -763250 -2.40242e+06 -1.20233e+06
226 1 Mg 6.98567 134.723 1.63838 1.2 -8.35653 878412 218983 2.46949e+06 1.43073e+06 -514572 938875
227 2 Si 4.29579 132.994 1.49355 2.4 -33.0469 5.49083e+06 1.07495e+07 7.23429e+06 920248 -132925 327724
228 3 O 5.83758 132.873 1.60951 -1.2 -9.55485 -2.44709e+06 -4.0187e+06 -4.25451e+06 -596950 -193071 -140645
229 3 O 3.26246 136.559 1.64419 -1.2 -9.29761 -1.85144e+06 -4.96583e+06 -2.53898e+06 -510698 151839 -97751.6
230 3 O 3.64829 133.559 0.220811 -1.2 -9.13371 -3.3181e+06 -4.34278e+06 -4.26614e+06 -113656 418015 727931
231 1 Mg 2.30126 142.353 3.17456 1.2 -8.06355 -790008 3.43209e+06 960930 -491959 1.42664e+06 1.8274e+06
232 3 O 3.5208 133.613 2.73423 -1.2 -9.25313 -4.1304e+06 -4.46831e+06 -3.57125e+06 227727 -1.30724e+06 -1.13754e+06
233 1 Mg 2.47196 139.376 4.58504 1.2 -8.40287 1.42121e+06 786458 2.98343e+06 848526 292231 396826
234 2 Si 4.96214 141.217 4.57968 2.4 -33.8775 5.20281e+06 8.93926e+06 1.02828e+07 -762241 -1.66557e+06 1.35881e+06
235 3 O 3.46408 141.321 4.61972 -1.2 -9.16669 -4.44082e+06 -2.72084e+06 -4.81873e+06 -994647 -1.42998e+06 -303386
236 3 O 6.0428 137.605 4.65097 -1.2 -9.20001 -2.36656e+06 -3.67019e+06 -3.3609e+06 -278335 133006 -311634
237 3 O 5.73139 140.511 3.3289 -1.2 -8.85651 -2.1435e+06 -2.41621e+06 -1.93699e+06 -254238 -365532 -1.02312e+06
238 3 O 5.55554 140.679 5.94934 -1.2 -8.63316 -5.13545e+06 -3.73752e+06 -2.10556e+06 412052 530683 412833
239 1 Mg 4.65346 137.235 3.19279 1.2 -7.61193 -405855 4.08636e+06 -536168 1.4219e+06 -1.44598e+06 1.75764e+06
240 1 Mg 4.5035 134.203 4.40108 1.2 -8.43788 1.89872e+06 1.18654e+06 1.73133e+06 -1.0045e+06 -289659 487292
241 2 Si 6.63475 136.044 4.66994 2.4 -33.4443 4.5448e+06 1.07829e+07 7.32784e+06 64048 329377 1.03736e+06
242 3 O 3.4396 136.241 4.6487 -1.2 -9.50718 -2.65886e+06 -3.91696e+06 -4.021e+06 1.09041e+06 -596743 4308.99
243 3 O 5.55219 132.348 4.46455 -1.2 -8.8401 -2.65522e+06 -4.07186e+06 -3.10694e+06 381892 609113 -978534
244 3 O 5.97704 135.389 3.37345 -1.2 -9.10649 -2.30008e+06 -2.86979e+06 -3.0883e+06 -18731.6 543530 -637961
245 1 Mg 4.74082 137.007 0.161602 1.2 -7.74273 -1.4482e+06 4.65844e+06 -596073 964241 1.85841e+06 -808889
246 3 O 6.00815 135.382 5.88075 -1.2 -8.84674 -4.2161e+06 -4.28612e+06 -4.68334e+06 -539875 14912 116222
247 1 Mg 4.72006 139.933 1.6004 1.2 -8.58588 3.16713e+06 420120 2.75988e+06 -913723 320403 319592
248 2 Si 2.61573 138.023 1.61389 2.4 -33.52 4.43368e+06 1.12741e+07 7.25605e+06 -465218 -54615.8 488750
249 3 O 5.83391 138.064 1.64347 -1.2 -9.43893 -3.39018e+06 -4.39887e+06 -3.92174e+06 35787.3 314079 -303594
250 3 O 3.63511 141.907 1.61345 -1.2 -9.05313 -3.73921e+06 -4.76293e+06 -3.27447e+06 708749 -207191 -556457
251 3 O 3.22751 138.729 0.350734 -1.2 -8.78338 -4.13278e+06 -3.27121e+06 -4.40466e+06 147865 -448366 383050
252 3 O 3.34896 138.764 2.87128 -1.2 -9.05154 -3.95524e+06 -3.48646e+06 -2.77663e+06 937102 963742 -451512
253 1 Mg 2.32547 142.398 0.191052 1.2 -8.15799 -1.19981e+06 4.30225e+06 -48354.2 -413730 -1.44106e+06 -1.51627e+06
254 1 Mg 7.02245 145.242 1.76073 1.2 -8.4774 2.08005e+06 1.03327e+06 1.80609e+06 897211 350840 -610964
255 2 Si 4.37699 143.304 1.63014 2.4 -33.579 6.95379e+06 9.54698e+06 9.18423e+06 -550839 -227078 -232406
256 3 O 5.93103 143.174 1.63738 -1.2 -9.35583 -3.02151e+06 -3.85791e+06 -3.84196e+06 164706 -56367.2 20687.4
257 3 O 3.12545 147.541 1.79678 -1.2 -8.87843 -4.22077e+06 -2.93936e+06 -2.44547e+06 -1.12627e+06 -772665 -56862.6
258 3 O 3.72485 144.113 0.38387 -1.2 -8.64482 -2.95493e+06 -2.2361e+06 -2.78833e+06 -734175 941278 15973.9
259 1 Mg 1.6059 152.921 1.95833 1.2 -7.60186 -1.95793e+06 -1.63899e+06 1.74423e+06 650615 -632180 -497799
260 3 O 3.62316 144.053 2.89423 -1.2 -8.85093 -2.85205e+06 -2.23114e+06 -4.23131e+06 -1.03874e+06 -1.71065e+06 -586081
261 1 Mg 1.68995 149.986 4.71526 1.2 -8.34716 198348 3.25895e+06 705622 55962.9 577560 546482
262 2 Si 3.86166 151.361 3.1997 2.4 -33.8428 1.021e+07 9.72149e+06 4.96512e+06 -1.13242e+06 -999177 454523
263 3 O 2.79046 152.476 3.33194 -1.2 -8.24771 -3.62644e+06 -1.62853e+06 -4.73033e+06 -774680 894700 -227521
264 3 O 5.98261 147.965 4.58132 -1.2 -8.77851 -4.26821e+06 -3.4661e+06 -3.49579e+06 -1.55448e+06 -288135 175122
265 3 O 4.82725 151.784 2.0044 -1.2 -9.04774 -4.5347e+06 -2.52844e+06 -5.4486e+06 1.06705e+06 -682767 836300
266 3 O 4.7997 150.915 4.33957 -1.2 -8.77708 -5.18284e+06 -4.30519e+06 -4.80092e+06 -1.83354e+06 -510210 398503
267 1 Mg 4.69447 147.405 2.9947 1.2 -8.14108 -550287 2.20593e+06 1.48917e+06 755756 -1.25937e+06 1.05918e+06
268 1 Mg 4.58825 144.518 4.59378 1.2 -8.75659 2.57986e+06 207583 2.44375e+06 -464162 -160557 -148499
269 2 Si 6.71269 146.485 4.55772 2.4 -34.0715 7.90377e+06 9.43982e+06 9.49318e+06 305237 -290953 -1.9476e+06
270 3 O 3.51227 146.556 4.56274 -1.2 -8.98222 -2.90752e+06 -3.78468e+06 -3.99602e+06 201937 120342 -200894
271 3 O 5.59709 142.75 4.54429 -1.2 -8.86907 -3.62223e+06 -3.48053e+06 -3.80965e+06 772850 607156 69976.5
272 3 O 5.98366 145.819 3.32812 -1.2 -8.9756 -3.69243e+06 -3.16301e+06 -4.68259e+06 399511 1.10807e+06 -950499
273 1 Mg 4.51167 148.144 0.0792671 1.2 -8.01283 903786 2.71548e+06 1.40371e+06 -34885.2 38447.3 -1.01754e+06