ITEM: TIMESTEP
73500
ITEM: NUMBER OF ATOMS
5600
ITEM: BOX BOUNDS xy xz yz pp pp pp
0.0000000000000000e+00 7.1234999999999999e+00 0.0000000000000000e+00
0.0000000000000000e+00 2.0198500000000001e+02 2.3744999999999998e+00
0.0000000000000000e+00 1.1958400000000000e+02 0.0000000000000000e+00
ITEM: ATOMS id type element xu yu zu q c_pe c_s[1] c_s[2] c_s[3] c_s[4] c_s[5] c_s[6]
1 1 Mg -1.53638 47.768 0.0904733 1.2 -5.83235 -1.82918e+06 385904 3.60586e+06 445099 173899 -1.24485e+06
2 1 Mg 2.85488 49.7915 3.01493 1.2 -6.25433 -5.3701e+06 4.77549e+06 -517738 880561 629155 -857746
3 2 Si 0.701083 49.5816 1.02475 2.4 -30.1497 2.44636e+06 1.19566e+07 2.06878e+06 -3.3243e+06 1.36494e+06 778023
4 3 O 2.05526 48.5834 1.39514 -1.2 -9.96054 1.41881e+06 -1.83772e+06 -4.14852e+06 -1.02237e+06 -1.25237e+06 1.41509e+06
5 3 O -1.26705 52.6708 2.2695 -1.2 -9.08886 774724 -3.84743e+06 -1.46812e+06 -3.00461e+06 469449 1.05583e+06
6 3 O 0.188367 48.9321 -0.209993 -1.2 -10.4865 -3.37443e+06 -2.69583e+06 -4.63212e+06 1.4927e+06 -2.45514e+06 -1.12491e+06
7 1 Mg -2.18453 58.4589 3.36492 1.2 -7.65202 -1.9765e+06 3.18212e+06 217966 -622170 774009 3.58259e+06
8 3 O -0.0911201 49.6293 2.26659 -1.2 -11.1352 -3.53952e+06 -5.46404e+06 -4.40878e+06 -126758 676173 -728001
9 1 Mg -2.07642 55.7667 5.10847 1.2 -7.81398 446111 -679683 547074 802806 -254860 1.02889e+06
10 2 Si 0.521021 57.6497 5.01137 2.4 -32.7881 2.9565e+06 7.82699e+06 7.54306e+06 349552 -766089 -286909
11 3 O -0.96854 57.5858 5.03075 -1.2 -9.77993 -5.73973e+06 -3.31266e+06 -3.85919e+06 1.1733e+06 -588071 20317.9
12 3 O 1.56114 53.0704 5.3742 -1.2 -10.4806 -63311.9 -3.43099e+06 -2.12068e+06 -1.03626e+06 1.66478e+06 -863625
13 3 O 1.22986 56.9252 3.78655 -1.2 -8.97143 -2.75126e+06 -4.21994e+06 -7.83249e+06 -175340 -561959 -2.37687e+06
14 3 O 1.14029 56.805 6.21106 -1.2 -9.26931 -3.37727e+06 -1.08532e+06 -6.29469e+06 -963227 152994 787994
15 1 Mg 0.285635 52.3831 3.56963 1.2 -6.82537 -217067 3.25948e+06 867782 818266 -370771 -94632.1
16 1 Mg 0.550181 48.8158 3.84188 1.2 -5.6547 -1.2991e+06 2.8611e+06 -3.65452e+06 -667380 -337431 813219
17 2 Si 2.26793 51.6348 5.41235 2.4 -30.0661 3.93833e+06 8.6168e+06 9.61076e+06 -1.12585e+06 -367357 -1.54004e+06
18 3 O -0.914796 51.6151 5.10281 -1.2 -10.4125 -31919.4 -1.8937e+06 -1.97949e+06 352268 -1.66295e+06 1.2312e+06
19 3 O 2.48501 48.1897 4.18986 -1.2 -9.03887 4.19753e+06 -1.0794e+06 -3.11555e+06 208698 228255 -326193
20 3 O 1.67267 50.9537 4.00639 -1.2 -10.3781 -3.161e+06 -4.46374e+06 164871 -352610 1.07614e+06 697718
21 1 Mg 0.143027 53.3114 0.684599 1.2 -7.66961 -2.57042e+06 2.73149e+06 -147161 1.45979e+06 910181 -774969
22 3 O 1.92666 50.8019 6.76937 -1.2 -11.6075 -1.25449e+06 -9.39537e+06 -5.67042e+06 1.92651e+06 284477 1.54544e+06
23 1 Mg 0.239861 56.1173 2.33262 1.2 -8.37022 1.60282e+06 1.05405e+06 2.71582e+06 -435892 -785742 -612790
24 2 Si -2.00938 54.2127 2.32507 2.4 -33.0609 7.68983e+06 1.03813e+07 7.62089e+06 -1.42216e+06 -962827 -858864
25 3 O 1.16884 54.1081 2.19084 -1.2 -9.67926 -3.06323e+06 -1.74682e+06 -2.68177e+06 188281 -886133 145804
26 3 O -0.688327 58.128 1.85089 -1.2 -9.20391 -2.03731e+06 1.31258e+06 -3.09404e+06 982425 -610295 -1.8586e+06
27 3 O -1.19017 54.7525 0.973477 -1.2 -8.62293 -3.52145e+06 -5.07367e+06 -2.26214e+06 1.45717e+06 -1.60373e+06 1.22505e+06
28 3 O -1.42737 55.0127 3.48227 -1.2 -9.28592 -2.34047e+06 -2.24364e+06 -5.89309e+06 1.56312e+06 677946 -1.99214e+06
29 1 Mg -1.81905 58.9532 0.479625 1.2 -7.17374 -919263 1.94654e+06 -884650 -1.88433e+06 -2.32823e+06 -322238
30 1 Mg 2.47806 61.6452 1.76894 1.2 -7.18989 170926 1.42477e+06 -835126 1.49654e+06 -2.02618e+06 1.58279e+06
31 2 Si -0.0865555 59.7867 2.11 2.4 -31.3762 4.32903e+06 1.23191e+07 1.00772e+07 -1.20573e+06 -219419 2.92937e+06
32 3 O 1.45795 59.6328 2.30696 -1.2 -9.78936 80524.5 -3.68734e+06 -5.33328e+06 -963934 -1.04184e+06 -2.08635e+06
33 3 O -0.894257 63.4261 1.81459 -1.2 -9.46116 -1.99919e+06 -3.12646e+06 -2.8313e+06 -1.17283e+06 -278079 -2.36201e+06
34 3 O -0.767894 60.5255 0.749207 -1.2 -10.1771 -1.27866e+06 -4.86325e+06 822597 -803896 1.11433e+06 -2.48586e+06
35 1 Mg -2.22195 69.2052 3.45851 1.2 -7.35308 -2.57241e+06 4.61567e+06 -1.96186e+06 -897745 2.21183e+06 1.90282e+06
36 3 O -0.828788 60.2708 3.42338 -1.2 -9.7384 -3.95664e+06 -1.24809e+06 83189 141639 -497751 -853797
37 1 Mg -2.20032 66.2633 4.88582 1.2 -7.50167 504588 -183207 3.55078e+06 234942 -256650 1.12398e+06
38 2 Si 0.555855 68.1439 4.82063 2.4 -32.2241 3.31969e+06 1.0923e+07 6.87924e+06 80516.3 -712427 19878.8
39 3 O -0.999902 68.291 4.81985 -1.2 -9.86888 -1.06833e+06 -4.24614e+06 -4.05623e+06 -450625 -726781 99985.6
40 3 O 1.76058 64.5135 4.7635 -1.2 -9.81495 -3.30295e+06 -5.42458e+06 -3.28344e+06 -1.56255e+06 -598384 -673564
41 3 O 1.25117 67.5265 3.55051 -1.2 -10.025 -2.50442e+06 -4.39032e+06 -2.61145e+06 -628892 -413841 -2.43422e+06
42 3 O 1.20474 67.4961 6.09907 -1.2 -9.25981 -3.24003e+06 -3.2147e+06 -2.56419e+06 655161 1.02766e+06 589089
43 1 Mg 0.294224 63.9167 3.38884 1.2 -7.44378 -3.49554e+06 2.90969e+06 -2.10419e+06 748928 -856863 2.78012e+06
44 1 Mg 0.201305 61.141 5.00869 1.2 -7.43791 1.04908e+06 1.91434e+06 1.2512e+06 -533134 -68434.5 1.89671e+06
45 2 Si 2.37972 63.028 4.70435 2.4 -31.7883 3.92316e+06 1.072e+07 7.51768e+06 1.0975e+06 966792 2.27797e+06
46 3 O -0.792896 63.2163 4.79006 -1.2 -10.2559 -2.0677e+06 -4.25711e+06 -5.08093e+06 945884 2.23623e+06 -544976
47 3 O 1.32912 59.0061 4.93755 -1.2 -9.42477 -1.68235e+06 -6.58437e+06 -5.70366e+06 770637 -299786 -1.1793e+06
48 3 O 1.52794 62.3373 3.54436 -1.2 -9.67997 -172068 -5.7583e+06 -3.92823e+06 1.75597e+06 394842 -1.01443e+06
49 1 Mg 0.531636 63.7642 0.47659 1.2 -7.09524 -2.36869e+06 3.09265e+06 -1.07659e+06 605829 1.24596e+06 -345295
50 3 O 1.74342 62.2978 5.96672 -1.2 -9.86921 -1.7306e+06 -2.12674e+06 -5.58229e+06 108441 -2.19933e+06 -749805
51 1 Mg 0.227144 67.0398 1.92377 1.2 -7.26327 1.19245e+06 -1.55207e+06 1.79967e+06 38050.6 -618955 861424
52 2 Si -1.66604 64.9891 1.77543 2.4 -32.3734 5.41547e+06 9.29028e+06 6.00652e+06 -1.25379e+06 -459657 1.31798e+06
53 3 O 1.50353 64.6592 1.84824 -1.2 -9.66113 -1.63091e+06 -4.38784e+06 -4.27219e+06 -640911 -60613.8 -731225
54 3 O -0.824842 68.5759 1.9077 -1.2 -9.97035 605296 -7.6079e+06 -3.20242e+06 1.50335e+06 -647232 -2599.68
55 3 O -1.2169 65.7055 0.496008 -1.2 -9.25049 -3.79504e+06 -4.31536e+06 -5.35177e+06 1.01926e+06 -1.38614e+06 -214427
56 3 O -0.997253 65.5838 2.98578 -1.2 -9.62244 -2.29845e+06 -4.95092e+06 -5.12259e+06 5108.69 -104475 -1.7153e+06
57 1 Mg -2.02726 69.1871 0.201139 1.2 -7.20574 -3.32396e+06 4.68352e+06 -1.364e+06 -325699 -769298 224454
58 1 Mg 2.61707 72.0202 1.70659 1.2 -8.93501 3.16018e+06 235764 -405845 960687 106580 1.59597e+06
59 2 Si 0.00617541 69.9995 1.8811 2.4 -33.1387 2.2192e+06 1.14454e+07 7.59034e+06 1.62665e+06 -324014 3.60893e+06
60 3 O 1.43047 70.2498 1.95249 -1.2 -9.12487 -8.01276e+06 -3.33883e+06 -5.02739e+06 1.79227e+06 1.6002e+06 -1.78788e+06
61 3 O -0.983329 73.9109 1.71481 -1.2 -8.98462 -4.23848e+06 -5.14461e+06 -1.63081e+06 84837.5 412661 115481
62 3 O -0.733717 70.7563 0.677052 -1.2 -9.03068 -4.67886e+06 -3.05391e+06 -4.18877e+06 -120309 289024 -2.43315e+06
63 1 Mg -2.06916 80.13 3.23952 1.2 -7.50652 -1.63331e+06 3.56066e+06 16855.3 -1.15219e+06 1.2396e+06 1.56361e+06
64 3 O -0.501825 70.855 3.18797 -1.2 -7.83018 -6.06938e+06 -2.76029e+06 -3.90284e+06 570938 -53918.6 191061
65 1 Mg -1.88458 76.7337 4.95509 1.2 -8.32597 2.85251e+06 3.16473e+06 2.85387e+06 -292758 -391856 1.30428e+06
66 2 Si 0.432197 78.7321 4.8021 2.4 -33.9385 1.03788e+07 1.1691e+07 8.78659e+06 -2.19704e+06 -539631 3.05762e+06
67 3 O -1.18627 79.0662 4.92948 -1.2 -9.00293 -2.14839e+06 -2.07834e+06 -3.43861e+06 -1.13627e+06 435488 -1.16226e+06
68 3 O 1.86878 74.5946 4.97605 -1.2 -7.94166 -2.50409e+06 -6.08127e+06 -4.8319e+06 -1.97228e+06 545708 -625111
69 3 O 0.96237 77.8526 3.5808 -1.2 -8.11269 -2.55056e+06 -1.70459e+06 -2.14202e+06 -1.51428e+06 -1.5911e+06 -924575
70 3 O 1.19476 78.0502 6.01722 -1.2 -8.26218 -2.26801e+06 -1.61599e+06 -4.45123e+06 -415425 1.88556e+06 -2.76479e+06
71 1 Mg 0.378287 74.4358 3.38479 1.2 -8.57339 1.51278e+06 4.63163e+06 -829920 194912 148446 1.17699e+06
72 1 Mg 0.449915 71.3732 4.80792 1.2 -8.85856 588095 -1.50184e+06 2.92297e+06 308431 -835519 -1.08596e+06
73 2 Si 2.62412 73.1652 4.79734 2.4 -35.0322 8.59598e+06 7.92069e+06 1.05892e+07 -795727 -705145 77582.6
74 3 O -0.58794 73.3094 4.64736 -1.2 -8.84949 -5.71717e+06 -3.02472e+06 -4.30442e+06 517838 -424260 -737033
75 3 O 1.24746 69.6587 4.7912 -1.2 -9.25198 -5.10044e+06 -7.48447e+06 -4.83175e+06 3.39004e+06 54166.3 300047
76 3 O 1.93372 72.752 3.40174 -1.2 -7.75459 -5.77582e+06 -4.28171e+06 -2.46878e+06 -636780 1.76946e+06 -2.69163e+06
77 1 Mg 0.49573 74.2386 0.239773 1.2 -7.55613 -326814 3.73063e+06 1.30933e+06 957486 478248 -1.02261e+06
78 3 O 1.83834 72.4576 6.03153 -1.2 -8.20979 -3.12018e+06 -5.81547e+06 -2.51231e+06 1.01597e+06 -2.22904e+06 2.09504e+06
79 1 Mg 0.132943 77.4458 1.73287 1.2 -8.80313 3.50026e+06 -340677 3.01106e+06 -1.25097e+06 9020.61 119501
80 2 Si -1.65744 75.2844 1.71021 2.4 -34.1777 7.26655e+06 1.02131e+07 8.56497e+06 500479 291518 -1.21102e+06
81 3 O 1.54598 75.2628 1.70887 -1.2 -8.79801 -2.69703e+06 -4.49979e+06 -2.17157e+06 178157 390167 621157
82 3 O -0.782143 79.4607 1.8173 -1.2 -9.34879 -2.49564e+06 -5.29703e+06 -1.95711e+06 1.06883e+06 -93818.7 -1.28131e+06
83 3 O -1.13626 76.2423 0.446764 -1.2 -8.71688 -4.85461e+06 790665 -1.48527e+06 -190692 -61082.9 -303382
84 3 O -1.0231 76.1055 3.05205 -1.2 -8.30033 -4.9854e+06 -1.45574e+06 1.45984e+06 -991227 243263 476063
85 1 Mg -1.93837 79.8739 0.0961813 1.2 -7.01922 -1.52296e+06 4.14058e+06 912212 -363486 -1.64672e+06 -1.19937e+06
86 1 Mg 2.62339 82.7858 1.59253 1.2 -7.50661 13998.8 2.23451e+06 1.73989e+06 967641 -139868 1.22223e+06
87 2 Si 0.000821611 80.8762 1.74826 2.4 -31.7277 2.39475e+06 1.20128e+07 7.23696e+06 -340494 -386625 -365917
88 3 O 1.48715 80.7639 1.54719 -1.2 -10.2389 -2.6376e+06 -4.0953e+06 -2.03645e+06 -206607 314661 214904
89 3 O -1.21506 84.6423 1.90483 -1.2 -8.88229 -2.01538e+06 -5.90093e+06 -3.00606e+06 -1.44729e+06 -423.6 -1.0027e+06
90 3 O -0.774514 81.6106 0.46382 -1.2 -10.3012 -1.19059e+06 -3.20547e+06 -66129.4 -365578 1.06011e+06 698660
91 1 Mg -2.19953 90.534 3.19409 1.2 -8.13203 1.34364e+06 3.60698e+06 1.44506e+06 -1.28927e+06 1.40069e+06 786459
92 3 O -0.655443 81.4501 3.12119 -1.2 -9.46364 -3.21533e+06 -8.25183e+06 -1.78544e+06 -1.12843e+06 -2.9372e+06 -1.59315e+06
93 1 Mg -2.10313 87.3907 4.82751 1.2 -8.9617 4.20663e+06 1.82656e+06 2.35502e+06 1.19918e+06 -1.06906e+06 -1.10859e+06
94 2 Si 0.522394 89.4166 4.54229 2.4 -35.2358 7.38134e+06 1.11662e+07 6.58504e+06 44912.7 -644794 -2.11877e+06
95 3 O -1.02812 89.4604 4.58885 -1.2 -8.26114 -3.77308e+06 -3.57227e+06 -3.71664e+06 -272103 -1.33399e+06 314553
96 3 O 1.58989 85.5013 4.86644 -1.2 -8.5356 -3.39365e+06 -2.68039e+06 -3.22732e+06 144595 320332 1.00032e+06
97 3 O 1.20521 88.8413 3.28258 -1.2 -8.61479 -4.85396e+06 -2.25938e+06 -3.7761e+06 -88938.1 -192005 194578
98 3 O 1.09486 88.609 5.84267 -1.2 -7.96596 -6.08321e+06 -5.63062e+06 -225209 -357190 993877 1.91949e+06
99 1 Mg 0.312097 84.9907 3.21843 1.2 -8.03741 954738 4.02988e+06 -460556 647106 -1.22646e+06 558631
100 1 Mg 0.0860563 82.2465 4.69818 1.2 -8.16366 -54039.1 1.49848e+06 1.38995e+06 -1.40963e+06 -840955 -569493
101 2 Si 2.21833 83.9469 4.75764 2.4 -33.8566 5.2707e+06 1.06565e+07 7.03079e+06 277589 -1.71483e+06 -1.40719e+06
102 3 O -0.998055 84.0462 4.73473 -1.2 -9.15079 -3.30222e+06 -3.72917e+06 -4.77104e+06 963491 -1.69754e+06 871331
103 3 O 1.1901 80.3111 4.70019 -1.2 -8.99144 -3.50733e+06 -3.20535e+06 -696644 3.47633e+06 -1.59342e+06 -19883.2
104 3 O 1.65892 83.3784 3.40919 -1.2 -9.25325 -3.98329e+06 -3.78774e+06 -2.26192e+06 -1.65426e+06 623083 720974
105 1 Mg 0.361793 85.1918 0.145504 1.2 -7.10038 -1.85469e+06 3.52485e+06 801029 559162 852003 -1.31748e+06
106 3 O 1.47858 83.1766 5.90872 -1.2 -8.76923 -3.83301e+06 -3.56982e+06 -1.75196e+06 -775232 584116 782038
107 1 Mg 0.301156 87.9928 1.76368 1.2 -8.88676 2.82807e+06 742376 1.96741e+06 -1.10816e+06 -300314 -1.77216e+06
108 2 Si -1.86876 86.1212 1.6919 2.4 -34.0965 2.11487e+06 1.02993e+07 6.79777e+06 -470592 2.25391e+06 -2.44872e+06
109 3 O 1.43848 86.095 1.76256 -1.2 -9.33757 -9.42446e+06 -3.82243e+06 -2.87644e+06 815297 1.10192e+06 1.75485e+06
110 3 O -0.903863 89.9548 1.47427 -1.2 -8.3472 -2.54708e+06 -1.74691e+06 -3.16765e+06 761596 -1.93033e+06 1.2408e+06
111 3 O -1.2589 86.856 0.520313 -1.2 -8.77186 -4.39845e+06 -2.97827e+06 -6.36151e+06 -291244 -53090.7 1.65077e+06
112 3 O -0.984723 86.7802 2.96063 -1.2 -7.85021 -1.87739e+06 -4.21206e+06 -2.35607e+06 -39443.6 360425 364811
113 1 Mg -2.45259 90.2442 0.24796 1.2 -8.38988 -1.82766e+06 2.97647e+06 -772357 -944532 -1.35657e+06 -3.62397e+06
114 1 Mg 2.36284 93.32 1.73233 1.2 -8.14811 -40636.6 1.72835e+06 -476063 1.60811e+06 173509 -870380
115 2 Si -0.293858 91.5616 1.43526 2.4 -33.2535 8.82458e+06 1.10567e+07 8.09723e+06 976879 1.53168e+06 -2.99069e+06
116 3 O 1.31653 91.3872 1.43924 -1.2 -8.97441 -1.81856e+06 -4.4814e+06 -4.26846e+06 -1.3275e+06 4.14783e+06 1.87602e+06
117 3 O -1.30099 95.1595 1.51885 -1.2 -9.28534 -2.05746e+06 -3.29698e+06 -2.49225e+06 -2.83017e+06 565678 1.39791e+06
118 3 O -1.21115 92.1351 0.285445 -1.2 -9.07171 -4.05541e+06 -5.24763e+06 -163704 -340622 1.09582e+06 2.47519e+06
119 1 Mg -2.07178 100.874 3.13549 1.2 -7.01373 -347534 5.21927e+06 -2.1299e+06 -1.44872e+06 2.39344e+06 -123728
120 3 O -0.712374 92.0568 2.90607 -1.2 -9.22728 -2.40505e+06 -3.05017e+06 -903021 694532 -318495 820781
121 1 Mg -2.04406 97.9983 4.39549 1.2 -8.16674 1.17884e+06 1.06344e+06 -948635 907620 1.81952e+06 -1.67629e+06
122 2 Si 0.519821 99.9858 4.72737 2.4 -33.4087 355590 1.13862e+07 8.24475e+06 -861660 1.31162e+06 -2.89638e+06
123 3 O -0.987976 99.7919 4.60939 -1.2 -9.57058 -4.88213e+06 -4.4651e+06 -3.89101e+06 -1.58764e+06 1.36255e+06 695168
124 3 O 1.38154 96.1915 4.55394 -1.2 -8.96588 -2.35693e+06 -3.7543e+06 -3.06174e+06 -848345 753098 -221475
125 3 O 1.09095 99.3818 3.42411 -1.2 -9.16377 -4.51193e+06 -3.64106e+06 -2.23143e+06 2.44778e+06 1.44052e+06 681059
126 3 O 1.17781 99.2696 6.1046 -1.2 -8.55298 -3.52879e+06 -4.43944e+06 -465731 682103 -651722 -909869
127 1 Mg 0.115496 95.4555 3.05695 1.2 -7.49747 -366249 3.95219e+06 -1.58084e+06 470068 -194512 900071
128 1 Mg -0.0214743 92.8828 4.67918 1.2 -8.58322 1.09987e+06 2.36612e+06 522019 -1.52682e+06 -413306 -625292
129 2 Si 2.12286 94.635 4.70069 2.4 -33.0585 2.31555e+06 1.45764e+07 4.44759e+06 -402504 -644586 -3.95766e+06
130 3 O -1.14896 94.8405 4.6686 -1.2 -9.7234 -5.0659e+06 -5.47597e+06 -2.37879e+06 -107405 -2.73666e+06 1.22295e+06
131 3 O 1.15217 90.8819 4.82828 -1.2 -8.12506 -4.55592e+06 -5.03043e+06 -2.41252e+06 473706 -311637 665536
132 3 O 1.65083 94.0405 3.34439 -1.2 -9.0803 -2.84645e+06 -6.52229e+06 -5.49988e+06 -1.05098e+06 593675 193953
133 1 Mg 0.0244794 95.7241 0.0902953 1.2 -7.16626 -1.47185e+06 3.48725e+06 -745933 -38851.9 1.09273e+06 -2.08138e+06
134 3 O 1.2923 93.829 5.76894 -1.2 -8.86202 -4.14852e+06 -4.52794e+06 -2.32856e+06 -396109 207700 59792.9
135 1 Mg -0.0391425 98.658 1.74086 1.2 -7.76905 1.22594e+06 1.5026e+06 2.55848e+06 -151992 26138.1 -1.46794e+06
136 2 Si -2.17061 96.6424 1.4559 2.4 -32.2228 3.96211e+06 1.35187e+07 8.52318e+06 -1.02145e+06 -192240 -1.45767e+06
137 3 O 1.0655 96.5 1.72659 -1.2 -9.99834 -2.49745e+06 -4.70067e+06 -3.41333e+06 -1.10953e+06 -169717 792720
138 3 O -0.766986 100.528 1.75447 -1.2 -9.63752 -2.53957e+06 -4.70233e+06 -2.95824e+06 1.36324e+06 331515 766569
139 3 O -1.56454 97.1591 0.10548 -1.2 -9.58171 -2.0112e+06 -6.61538e+06 -4.46897e+06 63514.5 -2.82413e+06 2.53262e+06
140 3 O -1.50682 97.5663 2.72327 -1.2 -9.15505 -3.59611e+06 -3.18608e+06 -2.21267e+06 743009 2.29969e+06 732301
141 1 Mg -2.31592 100.838 0.130836 1.2 -7.03614 -937259 4.8966e+06 -821102 -497254 -418955 -1.02114e+06
142 1 Mg 7.10149 103.912 1.69175 1.2 -8.12108 74509.6 1.71974e+06 379276 1.1391e+06 -156825 -1.67796e+06
143 2 Si -0.260758 102.108 1.76804 2.4 -32.8798 5.16095e+06 1.0462e+07 5.3726e+06 -1.24476e+06 1.19699e+06 -1.56128e+06
144 3 O 1.30026 102.129 1.78465 -1.2 -9.38191 -1.83651e+06 -4.12083e+06 -3.0399e+06 -2.17442e+06 636019 334867
145 3 O 3.4459 105.835 1.58453 -1.2 -10.1768 -2.45814e+06 -5.67429e+06 -1.39783e+06 651677 -17382.1 128402
146 3 O -1.0272 102.85 0.609237 -1.2 -9.56825 -3.34667e+06 -2.89055e+06 -4.11622e+06 499432 1.06531e+06 1.66274e+06
147 1 Mg 2.39777 112.053 2.85692 1.2 -6.67175 -3.10541e+06 4.6693e+06 -1.57583e+06 -358285 884450 1.0296e+06
148 3 O -0.939592 102.657 3.03784 -1.2 -9.07616 -4.76066e+06 -4.10818e+06 -3.54582e+06 819913 -741724 349409
149 1 Mg 2.45835 108.802 4.80972 1.2 -7.51767 2857.51 2.31199e+06 51625.4 1.78186e+06 -1.21873e+06 2.02003e+06
150 2 Si 5.12822 110.889 4.40595 2.4 -32.2802 6.80226e+06 1.12929e+07 3.76826e+06 940871 852648 435430
151 3 O 3.53024 110.741 4.49997 -1.2 -9.69135 -1.88489e+06 -3.3634e+06 -2.45327e+06 804079 1.00142e+06 -1.27072e+06
152 3 O 6.27524 106.58 4.34716 -1.2 -9.70665 -518152 -8.44801e+06 -3.79805e+06 -1.77438e+06 981791 83562
153 3 O 5.66629 110.29 3.1451 -1.2 -9.22253 -3.51547e+06 -4.89125e+06 -5.97211e+06 14154.2 -457513 -784609
154 3 O 5.92908 110.114 5.5903 -1.2 -9.40738 -3.0167e+06 -3.64134e+06 -3.51564e+06 -936013 1.97828e+06 -637334
155 1 Mg 4.89642 106.139 3.00781 1.2 -7.19566 -936674 6.33209e+06 -3.74106e+06 744912 -1.66806e+06 -54048.4
156 1 Mg -0.0592411 103.377 4.87945 1.2 -8.11393 382118 1.24404e+06 2.43003e+06 -33851.5 275110 -1.36869e+06
157 2 Si 6.98112 105.162 4.62042 2.4 -31.683 2.94365e+06 1.32039e+07 5.86113e+06 1.17907e+06 -188624 -4.44544e+06
158 3 O 3.78257 105.154 4.59117 -1.2 -10.5707 -2.65227e+06 -5.19823e+06 -2.82584e+06 764610 -1.05195e+06 543236
159 3 O 0.90227 101.446 4.92798 -1.2 -8.859 -2.88927e+06 -7.5066e+06 -4.62005e+06 -678065 197839 853136
160 3 O 6.2433 104.437 3.41505 -1.2 -8.82766 -2.12857e+06 -8.92419e+06 -2.26521e+06 468986 1.49153e+06 -544844
161 1 Mg 4.8197 106.215 0.0933064 1.2 -6.60389 -2.00589e+06 4.21453e+06 -738375 1.3072e+06 1.63162e+06 -2.90946e+06
162 3 O 6.24232 104.433 5.90402 -1.2 -9.74231 -234149 -2.47734e+06 -3.51874e+06 450098 -1.42284e+06 16106.5
163 1 Mg 4.63027 109.442 1.70559 1.2 -7.48079 1.53107e+06 432598 1.65505e+06 -1.24402e+06 -567624 -900077
164 2 Si 2.89461 107.322 1.57264 2.4 -32.5411 3.9262e+06 9.55959e+06 7.55714e+06 -7875.18 385973 -1.23484e+06
165 3 O 6.05082 107.218 1.71518 -1.2 -9.2975 -113934 -3.98142e+06 -4.18832e+06 272284 649243 1.4101e+06
166 3 O 3.75972 111.307 1.35785 -1.2 -10.0399 -4.50546e+06 -9.76035e+06 -2.70753e+06 -70615.7 -988473 -228819
167 3 O 3.24185 108.056 0.277833 -1.2 -9.50688 -2.82865e+06 -1.59613e+06 -3.88108e+06 -1.72335e+06 756969 923106
168 3 O 3.48972 108.116 2.8554 -1.2 -9.31029 -3.83465e+06 -1.97898e+06 742996 -1.11004e+06 -416521 276689
169 1 Mg 2.27922 111.277 0.00873348 1.2 -6.42112 -4.93874e+06 3.77204e+06 -670095 -878033 -1.157e+06 -2.20608e+06
170 1 Mg 7.18952 114.633 1.28136 1.2 -7.16438 1.0945e+06 2.24831e+06 1.41061e+06 748852 470684 187793
171 2 Si 4.45511 112.651 1.35251 2.4 -31.669 -18714.7 1.06607e+07 4.60338e+06 -1.08779e+06 800964 -2.39032e+06
172 3 O 6.00223 112.462 1.37125 -1.2 -10.3709 -3.22137e+06 -5.78106e+06 -2.52466e+06 132288 846404 1.93449e+06
173 3 O 3.50369 116.587 1.08814 -1.2 -9.68699 -1.50666e+06 -4.78404e+06 -920981 -439588 165447 -168931
174 3 O 3.74739 113.532 0.249023 -1.2 -9.67902 -939474 -5.18419e+06 -2.37385e+06 -825642 305958 542218
175 1 Mg 2.51219 122.445 2.99038 1.2 -6.72999 -2.00774e+06 6.0685e+06 -2.40717e+06 -1.23033e+06 2.0147e+06 1.21724e+06
176 3 O 3.97055 113.259 2.71146 -1.2 -10.0363 -260597 -6.11751e+06 -3.664e+06 -133786 187450 -1.27987e+06
177 1 Mg 2.75422 119.366 4.27978 1.2 -7.42216 671331 1.2444e+06 939199 1.0515e+06 424714 -1.07405e+06
178 2 Si 5.29167 121.194 4.54925 2.4 -30.1136 1.07384e+06 1.36104e+07 5.78496e+06 -408628 -1.39439e+06 307641
179 3 O 3.751 121.35 4.42274 -1.2 -10.8278 -25284.1 -4.1881e+06 -4.48283e+06 735045 413048 -83959.9
180 3 O 6.25418 117.544 4.40662 -1.2 -9.743 249095 -5.40507e+06 -2.3342e+06 -511967 -103100 -399374
181 3 O 5.97895 120.477 3.28567 -1.2 -9.96687 -1.2166e+06 -3.08515e+06 -2.78664e+06 -140883 -776902 820543
182 3 O 5.97597 120.457 5.68481 -1.2 -10.4745 -2.14584e+06 -4.53851e+06 -6.10975e+06 173656 658942 -1.53864e+06
183 1 Mg 4.92577 117.058 2.71443 1.2 -6.89707 -3.02254e+06 3.89738e+06 604564 954632 -452615 2.7146e+06
184 1 Mg 5.01111 114.056 4.42376 1.2 -7.11267 150866 776460 2.1906e+06 -195199 -14436.9 127487
185 2 Si 6.97629 116.099 4.28738 2.4 -31.3199 509574 1.15919e+07 6.79519e+06 -964398 -391631 -528503
186 3 O 3.71474 116.051 4.40471 -1.2 -10.5893 -4.24722e+06 -4.97867e+06 -3.29949e+06 -1.19014e+06 -1.06405e+06 -575454
187 3 O 5.9097 112.333 4.5348 -1.2 -10.1424 -1.31538e+06 -8.51673e+06 -2.0971e+06 2.58597e+06 -1.1783e+06 -788069
188 3 O 6.31047 115.497 2.96969 -1.2 -10.2772 -302964 -3.22418e+06 -2.71142e+06 364895 152523 -27547.3
189 1 Mg 4.60032 117.106 -0.538632 1.2 -6.74602 -1.8555e+06 5.23218e+06 -2.05933e+06 467021 1.48102e+06 -1.3894e+06
190 3 O 6.2282 115.281 5.52192 -1.2 -9.7269 -2.51769e+06 -4.2764e+06 -175315 496855 -1.02793e+06 -850021
191 1 Mg 5.02145 119.846 1.54159 1.2 -7.5814 -113501 2.03779e+06 961627 -1.14805e+06 235709 521385
192 2 Si 2.81015 118.08 1.33565 2.4 -31.6111 3.60316e+06 1.32817e+07 4.82499e+06 -5972.16 693520 1.73405e+06
193 3 O 6.01343 118.023 1.39522 -1.2 -10.2043 -1.6449e+06 -5.75881e+06 -2.7381e+06 -120882 1.15124e+06 10600.9
194 3 O 3.8477 121.778 1.54255 -1.2 -9.66938 734610 -4.2374e+06 -2.10932e+06 729469 -57242.3 -1.41982e+06
195 3 O 3.37759 118.837 0.115366 -1.2 -9.73423 -1.9657e+06 -6.49248e+06 -339087 -429612 -195823 1.35298e+06
196 3 O 3.58373 118.623 2.68808 -1.2 -10.2456 -1.87742e+06 -3.25958e+06 -2.16087e+06 1.01871e+06 1.6957e+06 -571942
197 1 Mg 2.25101 122.221 0.143328 1.2 -7.06735 -2.9176e+06 5.06861e+06 -3.55404e+06 -15257.6 112116 -1.22793e+06
198 1 Mg 7.12355 125.545 1.13507 1.2 -7.56141 1.89747e+06 1.46425e+06 -1.90429e+06 511595 -2.4504e+06 1.22433e+06
199 2 Si 4.5089 123.335 1.39599 2.4 -32.4029 1.47937e+06 1.57932e+07 3.21151e+06 917800 1.04428e+06 811668
200 3 O 6.00474 123.306 1.34821 -1.2 -10.0462 -4.51644e+06 -6.36236e+06 -2.33771e+06 639794 1.25344e+06 -1.50352e+06
201 3 O 3.41669 127.243 1.09072 -1.2 -9.64776 -54422.4 -7.44333e+06 -5.41767e+06 -1.51534e+06 947569 -1.80895e+06
202 3 O 3.79813 124.006 0.13365 -1.2 -9.34957 -2.04746e+06 -4.1962e+06 -1.91631e+06 -1.01562e+06 176990 -1.38038e+06
203 1 Mg 2.10847 132.96 2.8709 1.2 -7.28405 -3.06405e+06 3.88524e+06 -987443 -334912 1.7225e+06 2.51137e+06
204 3 O 3.88411 124.058 2.63129 -1.2 -9.55247 -2.11424e+06 -5.01585e+06 -1.15582e+06 -868749 159061 -1.21516e+06
205 1 Mg 2.19117 129.912 4.33923 1.2 -7.21952 -23119.5 1.65088e+06 1.6545e+06 874753 -241871 1.57573e+06
206 2 Si 4.79383 131.833 4.17373 2.4 -31.4889 4.47852e+06 1.21308e+07 8.09779e+06 -228853 -1.89325e+06 3.01921e+06
207 3 O 3.20767 131.9 4.33006 -1.2 -10.1062 389298 -3.85684e+06 -4.97486e+06 82059.1 -719780 -155685
208 3 O 5.89038 128.163 4.31886 -1.2 -9.81972 -1.16571e+06 -6.59684e+06 -4.96942e+06 -3.17314e+06 572440 -47810.8
209 3 O 5.43998 131.178 2.82342 -1.2 -9.77845 -418486 -3.93668e+06 -1.32027e+06 -1.20641e+06 -1.3199e+06 -94322
210 3 O 5.49581 131.124 5.34664 -1.2 -9.8102 -4.64123e+06 -4.40484e+06 -2.93933e+06 522914 1.2945e+06 -139201
211 1 Mg 4.58963 127.749 2.90264 1.2 -6.98525 -3.5561e+06 5.54924e+06 -3.42316e+06 402406 -627842 2.71202e+06
212 1 Mg 4.78919 124.547 4.47503 1.2 -7.0001 -399722 1.65994e+06 1.97061e+06 -714025 689457 394165
213 2 Si 6.76413 126.591 4.26964 2.4 -30.5902 1.1094e+06 1.12843e+07 6.12793e+06 -1.17664e+06 395349 3.6364e+06
214 3 O 3.45569 126.783 4.1677 -1.2 -10.8712 -5.91589e+06 -4.75547e+06 -2.62177e+06 -53172.6 280588 -1.62165e+06
215 3 O 6.04042 122.874 4.43013 -1.2 -10.482 452189 -893115 -2.81792e+06 1.43976e+06 -620632 -1.24407e+06
216 3 O 5.97023 126.005 2.94979 -1.2 -9.4688 -853502 -3.54343e+06 88194.7 -178468 680370 -2.23412e+06
217 1 Mg 4.80543 127.812 -0.0964617 1.2 -6.89514 -4.06516e+06 5.6006e+06 -2.41438e+06 716009 2.06524e+06 -1.55505e+06
218 3 O 5.93786 126.054 5.46145 -1.2 -10.3701 1.27171e+06 -5.90794e+06 -4.68013e+06 45786.6 -429691 1.12024e+06
219 1 Mg 4.59128 130.608 1.14911 1.2 -7.42507 131957 2.14133e+06 1.36617e+06 -1.55198e+06 -385037 -467092
220 2 Si 2.67212 128.738 1.15117 2.4 -31.3662 2.26564e+06 1.3066e+07 4.11389e+06 -2.13684e+06 -1.45631e+06 431810
221 3 O 5.90726 128.821 1.21259 -1.2 -10.3723 -3.12632e+06 -5.24278e+06 -2.06424e+06 -752099 -29646.3 -800734
222 3 O 3.39834 132.676 1.33319 -1.2 -9.84001 -4.02833e+06 -6.334e+06 -3.34816e+06 284838 -503757 -1.21973e+06
223 3 O 3.40562 129.497 -0.0693984 -1.2 -9.77946 -607113 -5.46639e+06 -2.33091e+06 736544 -761680 183657
224 3 O 3.4152 129.262 2.40422 -1.2 -9.78213 -3.60608e+06 -6.38413e+06 -2.10252e+06 19455.9 -300575 -2.24954e+06
225 1 Mg 2.29362 132.838 -0.194291 1.2 -7.07764 -1.56752e+06 4.31312e+06 -2.27411e+06 -1.72753e+06 -3.25093e+06 -750067
226 1 Mg 6.89621 135.937 1.31095 1.2 -7.88249 926475 1.82049e+06 2.73831e+06 1.41625e+06 116237 959186
227 2 Si 4.08877 134.076 1.39688 2.4 -32.1476 5.60112e+06 9.36463e+06 7.21853e+06 -871844 -1.19139e+06 626285
228 3 O 5.66671 133.855 1.54865 -1.2 -9.67174 -981919 -3.36036e+06 -1.99938e+06 -563519 -885805 -131740
229 3 O 3.08193 137.824 1.46982 -1.2 -8.96627 -2.30215e+06 -2.00407e+06 -3.04483e+06 -2.35341e+06 599823 -570599
230 3 O 3.58088 134.91 0.158013 -1.2 -9.7336 -2.53783e+06 -3.64629e+06 109600 -83793.6 66617.7 -1688.48
231 1 Mg 2.26292 143.098 3.07626 1.2 -7.61278 -220461 2.70376e+06 992563 -295621 220208 522767
232 3 O 3.35531 134.637 2.76485 -1.2 -9.43402 -1.12078e+06 -4.42615e+06 -605318 -250342 -671174 -1.49923e+06
233 1 Mg 1.72918 140.429 4.64012 1.2 -8.47675 1.45563e+06 -965361 2.4802e+06 832632 -295907 912992
234 2 Si 4.67691 142.409 4.65087 2.4 -32.794 5.90183e+06 7.66684e+06 9.12332e+06 401459 -1.7317e+06 445334
235 3 O 3.14982 142.604 4.7505 -1.2 -9.50687 -3.39332e+06 -3.90639e+06 -4.08138e+06 336745 -20779.3 402193
236 3 O 5.91446 138.562 4.81384 -1.2 -8.4207 -3.77176e+06 -7.65546e+06 -6.45158e+06 -906868 -438951 -2.28799e+06
237 3 O 5.31669 141.545 3.39647 -1.2 -9.03614 -1.98425e+06 -4.44896e+06 -3.74193e+06 -629543 -2.6726e+06 -628172
238 3 O 5.36565 141.833 5.92994 -1.2 -9.00847 -5.14274e+06 -3.50747e+06 -4.64942e+06 768780 471510 1.3313e+06
239 1 Mg 4.43585 138.321 3.00062 1.2 -8.07549 -592597 2.3777e+06 84613.2 582288 -727438 2.56731e+06
240 1 Mg 4.53211 135.258 4.44958 1.2 -7.58187 1.81193e+06 1.63928e+06 1.31698e+06 -942804 1.03184e+06 21331.1
241 2 Si 6.52292 137.182 4.43844 2.4 -33.5537 4.55309e+06 8.41882e+06 7.79258e+06 -448320 -2.02217e+06 373520
242 3 O 3.39624 137.355 4.35126 -1.2 -9.30743 -2.25857e+06 -3.6464e+06 -3.13638e+06 270980 649227 -698179
243 3 O 5.51917 133.437 4.40169 -1.2 -9.64367 -2.85267e+06 -2.22692e+06 -3.27492e+06 2.30202e+06 -308185 2.0211e+06
244 3 O 5.90749 136.908 3.09603 -1.2 -9.06605 -4.87574e+06 -3.6597e+06 -4.67242e+06 -293754 -145741 -2.70996e+06
245 1 Mg 4.52939 138.285 -0.111012 1.2 -7.54858 -1.12381e+06 4.58102e+06 440330 74736 273583 -656818
246 3 O 6.04393 136.344 5.7385 -1.2 -9.1573 141563 -7.71877e+06 -167664 422300 -364352 622940
247 1 Mg 4.61346 141.197 1.60194 1.2 -8.68644 326.001 136461 2.03533e+06 -197452 -145276 -337343
248 2 Si 2.37998 139.375 1.60459 2.4 -33.1068 9.02872e+06 1.09827e+07 8.22804e+06 208338 -752141 -1.44336e+06
249 3 O 5.49856 139.348 1.53297 -1.2 -9.41848 -685138 -4.94686e+06 -3.50539e+06 820877 -272318 1.53501e+06
250 3 O 3.68336 143.008 1.65668 -1.2 -8.76132 -3.13725e+06 -1.65923e+06 -1.76498e+06 2.20382e+06 157278 -1.58803e+06
251 3 O 3.13722 140.206 0.384979 -1.2 -8.86459 -3.78558e+06 -2.12726e+06 -1.39824e+06 -116669 -1.92794e+06 184716
252 3 O 2.98316 139.879 2.93264 -1.2 -8.97767 -2.7408e+06 -3.95485e+06 -3.9272e+06 -420162 691636 -601838
253 1 Mg 2.46813 143.597 -0.0638944 1.2 -7.93131 -972471 2.51433e+06 -1.63452e+06 109873 -42946.1 -2.7998e+06
254 1 Mg 7.07854 146.558 1.52483 1.2 -8.38621 2.2762e+06 1.39193e+06 2.46771e+06 802848 -79679.9 -37583.7
255 2 Si 4.42702 144.649 1.52613 2.4 -33.8188 4.86579e+06 9.51729e+06 6.5852e+06 461887 291327 -1.94953e+06
256 3 O 5.88612 144.37 1.59591 -1.2 -9.04303 -5.05822e+06 -2.29964e+06 -3.97486e+06 -642010 -402241 -315384
257 3 O 3.40221 148.749 1.40365 -1.2 -9.29834 -3.64516e+06 1.07238e+06 -1.70654e+06 530315 -162818 -971103
258 3 O 3.83456 145.29 0.187692 -1.2 -8.53816 -4.36117e+06 -1.7373e+06 -4.31994e+06 858408 320532 -634212
259 1 Mg 1.62581 154.323 2.29315 1.2 -7.49223 -647278 -2.39631e+06 5.34859e+06 -70246.2 -102473 -340679
260 3 O 3.76888 145.445 2.60647 -1.2 -9.17337 -3.37286e+06 -2.50531e+06 -6.19965e+06 -86526.3 866812 -1.40746e+06
261 1 Mg 1.62532 151.547 4.86722 1.2 -7.77258 -2.00535e+06 2.9737e+06 -233415 231813 -428940 1.19693e+06
262 2 Si 3.88202 152.562 3.46061 2.4 -33.1778 8.66782e+06 5.6442e+06 1.11712e+07 798293 -1.66701e+06 2.44246e+06
263 3 O 2.5137 153.144 3.88378 -1.2 -8.49172 -6.09525e+06 -443601 -3.90142e+06 220303 -32181.1 -2.99954e+06
264 3 O 6.1536 149.437 4.5414 -1.2 -8.8296 -2.23008e+06 735010 -3.50068e+06 -1.34556e+06 -693278 -1.041e+06
265 3 O 4.76692 153.295 2.24892 -1.2 -9.00863 -2.92155e+06 252564 -3.43716e+06 732128 -1.29182e+06 -250777
266 3 O 4.82564 152.608 4.72836 -1.2 -8.62328 -8.42832e+06 -2.12737e+06 -3.1191e+06 -1.00464e+06 2.6496e+06 1.20408e+06
267 1 Mg 4.77978 149.054 3.08955 1.2 -7.50949 -478568 1.4762e+06 2.61926e+06 1.57669e+06 -1.2858e+06 2.14073e+06
268 1 Mg 4.75865 145.78 4.34168 1.2 -7.73145 1.85329e+06 593958 3.6788e+06 -443177 -775211 216898
269 2 Si 6.81524 147.743 4.40278 2.4 -33.0893 4.35401e+06 7.0651e+06 7.65504e+06 -1.13818e+06 2.58906e+06 3.57241e+06
270 3 O 3.59416 148.153 4.54014 -1.2 -9.5059 -3.7459e+06 -1.51356e+06 -4.7493e+06 1.88369e+06 317965 -1.4944e+06