ITEM: TIMESTEP
49100
ITEM: NUMBER OF ATOMS
5600
ITEM: BOX BOUNDS xy xz yz pp pp pp
0.0000000000000000e+00 7.1234999999999999e+00 0.0000000000000000e+00
0.0000000000000000e+00 2.0198500000000001e+02 2.3744999999999998e+00
0.0000000000000000e+00 1.1958400000000000e+02 0.0000000000000000e+00
ITEM: ATOMS id type element xu yu zu q c_pe c_s[1] c_s[2] c_s[3] c_s[4] c_s[5] c_s[6]
1 1 Mg -1.84592 48.7128 -1.01218 1.2 -6.7026 -1.15874e+06 -614280 1.12691e+06 694769 415751 -929451
2 1 Mg 3.14513 49.7825 2.31275 1.2 -7.15651 -5.07665e+06 3.87333e+06 -478933 -350106 864865 89125.5
3 2 Si 0.856769 50.2915 0.333278 2.4 -31.2611 6.66925e+06 1.0372e+07 7.26557e+06 -113531 1.19469e+06 824041
4 3 O 2.17234 49.3225 0.654617 -1.2 -9.53339 -1.87226e+06 -3.16381e+06 -3.68595e+06 -1.1963e+06 -477322 299903
5 3 O -1.15207 52.9061 1.60301 -1.2 -9.00342 -4.39326e+06 -8.9957e+06 -4.843e+06 -571559 -14632 1.27677e+06
6 3 O 0.124132 49.4082 -0.805022 -1.2 -9.97758 -1.65605e+06 -851813 -3.31273e+06 1.42821e+06 268795 1.73351e+06
7 1 Mg -2.33374 58.5319 3.1736 1.2 -8.44237 -1.59549e+06 5.39251e+06 -2.18054e+06 -518776 2.23855e+06 1.45527e+06
8 3 O 0.125012 50.2768 1.78029 -1.2 -10.112 -5.83018e+06 -3.54142e+06 -969339 36981.2 -1.6303e+06 -2.04951e+06
9 1 Mg -2.38194 55.5677 4.64705 1.2 -8.0996 1.10979e+06 4.50486e+06 -1.43698e+06 929568 177921 -649413
10 2 Si 0.396529 57.6016 4.64857 2.4 -33.5685 8.83651e+06 1.14906e+07 4.69028e+06 5991.67 -247264 747319
11 3 O -1.20726 57.7263 4.75369 -1.2 -8.89152 -889704 -5.67777e+06 -2.04445e+06 -56247.3 -419235 784818
12 3 O 1.91281 53.1814 4.92165 -1.2 -8.73665 -4.23107e+06 -625280 -1.45057e+06 -1.40712e+06 -222696 754720
13 3 O 0.983609 56.7565 3.3801 -1.2 -8.98687 -4.60266e+06 -4.15591e+06 -596755 -494839 -1.04351e+06 -449658
14 3 O 1.06845 56.9568 5.94286 -1.2 -9.47171 -3.83762e+06 -5.43185e+06 -1.99669e+06 -1.15171e+06 905757 607471
15 1 Mg 0.374603 52.227 2.6631 1.2 -7.76486 1.49707e+06 2.80252e+06 228746 608491 -803822 -530170
16 1 Mg 1.02346 49.0284 3.13757 1.2 -7.09713 -2.04686e+06 2.54583e+06 -409094 -547418 -262049 720475
17 2 Si 2.42173 51.6576 4.85275 2.4 -33.4037 1.13742e+07 1.20309e+07 6.94086e+06 223123 67405.5 -2.86213e+06
18 3 O -0.621508 51.9515 4.65106 -1.2 -8.53935 588062 -3.8532e+06 1.21896e+06 2.38194e+06 -1.11132e+06 1.4022e+06
19 3 O 2.63181 48.0857 3.23844 -1.2 -7.70935 177600 -274929 -2.17193e+06 245199 240640 -986575
20 3 O 1.98215 51.0829 3.3325 -1.2 -9.27794 -4.28693e+06 -3.28266e+06 442060 -1.74803e+06 58058.4 878418
21 1 Mg -0.0514088 53.7373 0.292989 1.2 -7.21318 -2.50062e+06 999773 -480122 1.83119e+06 2.81673e+06 -500179
22 3 O 2.06306 50.6234 6.00649 -1.2 -10.3915 -3.10607e+06 -3.25533e+06 -1.58227e+06 1.50947e+06 223375 -116449
23 1 Mg 0.22495 56.2493 1.73149 1.2 -8.08642 2.87469e+06 1.81293e+06 -1.62373e+06 -1.28352e+06 -882881 -1.12332e+06
24 2 Si -1.91556 54.1834 1.83373 2.4 -33.9016 3.32927e+06 1.06742e+07 7.5289e+06 810389 1.47115e+06 -1.50762e+06
25 3 O 1.28401 54.017 1.75214 -1.2 -9.37263 -4.55364e+06 -2.52558e+06 -2.15045e+06 -712788 614814 -573854
26 3 O -1.01817 58.1234 1.80314 -1.2 -8.55668 -3.43769e+06 -7.12947e+06 -1.99189e+06 948269 548483 -1.44631e+06
27 3 O -1.42096 55.043 0.490279 -1.2 -8.9063 -2.09237e+06 -5.79274e+06 -3.81709e+06 1.6391e+06 317196 -590429
28 3 O -1.4475 55.0381 3.05678 -1.2 -8.34072 -3.48205e+06 -4.91693e+06 -1.98528e+06 469322 -424679 736507
29 1 Mg -2.34379 58.6545 0.195455 1.2 -7.77414 -837490 4.13835e+06 -535260 59766.2 231246 -2.14154e+06
30 1 Mg 2.21 61.4105 1.49466 1.2 -9.18415 3.22037e+06 903346 2.42092e+06 504787 -42842.5 -222786
31 2 Si -0.215412 59.5714 1.77514 2.4 -34.4184 4.70062e+06 1.22404e+07 6.17254e+06 -377447 -164169 -924343
32 3 O 1.23519 59.3854 1.69757 -1.2 -9.27726 -7.96092e+06 -4.73696e+06 -3.55299e+06 309296 -143994 -356468
33 3 O -1.31123 63.3786 1.67614 -1.2 -8.01379 -3.37392e+06 -4.58044e+06 -3.17846e+06 -229153 -161035 -552072
34 3 O -0.984044 60.3794 0.563615 -1.2 -8.39846 -2.53522e+06 -3.01437e+06 -3.56499e+06 400815 1.69704e+06 -50989
35 1 Mg -2.31735 68.9678 3.11722 1.2 -7.68016 -1.6873e+06 5.36009e+06 -1.39771e+06 -742296 2.30204e+06 70885
36 3 O -0.92753 60.1575 3.03591 -1.2 -7.80661 -3.95043e+06 -7.23413e+06 -4.47674e+06 -184053 -1.14631e+06 -1.17441e+06
37 1 Mg -2.3101 66.0695 4.58283 1.2 -8.49808 3.35073e+06 1.26657e+06 876189 446387 685448 1.44363e+06
38 2 Si 0.433629 68.3316 4.81195 2.4 -33.3765 8.15873e+06 1.19995e+07 4.6779e+06 -845044 -639407 -424806
39 3 O -1.19378 68.357 4.73174 -1.2 -9.06937 -864417 -5.19865e+06 -3.11594e+06 879825 330571 110466
40 3 O 1.51074 64.3126 4.53556 -1.2 -8.80337 -3.12286e+06 -7.44804e+06 -2.60934e+06 -852352 1.01782e+06 -306790
41 3 O 1.08483 67.37 3.65122 -1.2 -9.27916 -2.13049e+06 -3.11162e+06 -1.50921e+06 -802510 -608082 -588034
42 3 O 1.05493 67.7311 6.12984 -1.2 -8.39659 -5.93e+06 -4.95742e+06 -2.72137e+06 -1.28129e+06 1.31846e+06 -686888
43 1 Mg 0.0340356 63.9014 3.12638 1.2 -8.61665 746594 4.78799e+06 -1.629e+06 787945 -1.19647e+06 1.76581e+06
44 1 Mg -0.0169447 60.7612 4.65322 1.2 -9.33324 3.68121e+06 895683 -549258 -310150 353874 -573095
45 2 Si 2.16621 62.8606 4.54365 2.4 -35.2901 8.47489e+06 1.0123e+07 6.97923e+06 382942 368314 988621
46 3 O -1.05005 62.8548 4.49252 -1.2 -8.51818 -5.61018e+06 -3.51928e+06 -3.49572e+06 612263 20110.8 225456
47 3 O 1.08125 59.0064 4.57758 -1.2 -8.71441 -5.34029e+06 -6.88522e+06 -1.83399e+06 819205 385017 990737
48 3 O 1.45218 62.1243 3.25065 -1.2 -7.53509 -5.39773e+06 -1.9299e+06 -2.19844e+06 318212 1.57782e+06 908317
49 1 Mg 0.14017 64.0145 0.177123 1.2 -8.21567 424351 4.64336e+06 -1.03138e+06 889504 883427 -1.69052e+06
50 3 O 1.439 62.1483 5.72276 -1.2 -8.17627 -4.90991e+06 -3.2087e+06 -4.14013e+06 -673883 -246201 680288
51 1 Mg 0.0651668 66.9294 1.89653 1.2 -7.96182 1.56918e+06 2.63761e+06 2.2402e+06 -1.14004e+06 -190693 -770224
52 2 Si -1.964 64.8605 1.56353 2.4 -34.4709 6.24793e+06 1.14718e+07 5.73794e+06 -740452 647107 -811758
53 3 O 1.20631 64.7991 1.60777 -1.2 -8.84282 -3.43322e+06 -4.27656e+06 -4.06177e+06 -51380.3 -484593 648629
54 3 O -1.03667 68.7652 1.70616 -1.2 -9.2067 -2.15302e+06 -5.92514e+06 -3.63494e+06 1.76412e+06 1.56497e+06 -1.49622e+06
55 3 O -1.41647 65.5355 0.317247 -1.2 -8.85741 -5.21429e+06 -4.23764e+06 -2.53937e+06 -1.45956e+06 -324901 1.16075e+06
56 3 O -1.37056 65.5126 2.88204 -1.2 -8.81692 -4.2165e+06 -4.49684e+06 -2.25957e+06 -212826 386113 -1.69476e+06
57 1 Mg -2.48313 68.8285 0.191376 1.2 -7.83239 -584320 4.25527e+06 -992547 -658223 -1.44797e+06 -1.07285e+06
58 1 Mg 2.37915 71.9762 1.39354 1.2 -8.61477 1.82207e+06 1.55543e+06 2.83195e+06 1.31376e+06 -551978 644822
59 2 Si -0.362285 70.2643 1.55364 2.4 -33.7843 7.35353e+06 9.13687e+06 7.61056e+06 1.14841e+06 339145 -207564
60 3 O 1.19208 70.1176 1.59815 -1.2 -9.20717 -2.98394e+06 -3.02125e+06 -3.1602e+06 -1.3375e+06 -189008 -474172
61 3 O -1.30407 74.0233 1.65636 -1.2 -8.90337 -2.27904e+06 -4.57504e+06 -1.27005e+06 -1.211e+06 810034 -2.05149e+06
62 3 O -1.04189 70.8407 0.225077 -1.2 -8.60452 -2.66412e+06 -3.19659e+06 -2.50699e+06 -236993 484110 591384
63 1 Mg -2.53693 79.8608 3.07677 1.2 -8.53184 132632 3.54287e+06 -433435 -570816 563829 1.98538e+06
64 3 O -1.0841 70.9039 2.78235 -1.2 -8.72749 -3.75799e+06 -5.22922e+06 -2.37866e+06 -377222 -92129.7 -1.8771e+06
65 1 Mg -2.55249 76.9272 4.52251 1.2 -8.92737 2.91463e+06 1.68632e+06 3.34994e+06 767948 51392 821224
66 2 Si 0.146296 78.8127 4.40504 2.4 -34.9206 7.4226e+06 1.01637e+07 8.37189e+06 1.05671e+06 387083 -182563
67 3 O -1.35171 78.9061 4.56499 -1.2 -8.58191 -4.98202e+06 -3.11159e+06 -4.63546e+06 -513242 -474386 492348
68 3 O 1.48891 74.9612 4.63052 -1.2 -8.88318 -1.74852e+06 -2.07651e+06 -1.99371e+06 -1.72368e+06 350313 1.91254e+06
69 3 O 0.910102 78.2075 3.21954 -1.2 -8.51025 -4.59578e+06 -3.53019e+06 -5.86474e+06 -12317.5 -1.08184e+06 -561701
70 3 O 0.888437 78.1167 5.67271 -1.2 -8.09896 -6.4853e+06 -2.69457e+06 -2.58985e+06 -488436 1.52494e+06 680573
71 1 Mg 0.0276193 74.3186 3.23581 1.2 -8.00537 -38014 4.938e+06 -881995 361080 -608393 1.15078e+06
72 1 Mg 0.017774 71.3937 4.4678 1.2 -8.54013 2.72854e+06 199971 2.52213e+06 -184805 -191201 133621
73 2 Si 2.14655 73.3196 4.49288 2.4 -33.5744 6.52044e+06 1.24936e+07 9.37924e+06 -563713 542267 540801
74 3 O -1.04054 73.4012 4.61884 -1.2 -9.33286 -2.49499e+06 -3.36222e+06 -4.59743e+06 478204 1.38013e+06 1.61571e+06
75 3 O 1.13141 69.7102 4.66551 -1.2 -9.34361 -4.52097e+06 -7.41603e+06 -3.56428e+06 928817 -480899 1.06337e+06
76 3 O 1.34942 72.6945 3.15935 -1.2 -8.86921 -2.21499e+06 -1.97854e+06 -195936 1.00014e+06 1.40527e+06 701287
77 1 Mg -0.106412 74.4679 0.0726531 1.2 -7.79946 -1.17641e+06 4.74247e+06 319340 1.35912e+06 1.9022e+06 -1.36399e+06
78 3 O 1.52189 72.7522 5.78103 -1.2 -8.43405 -5.57687e+06 -4.70753e+06 -701484 -81113.9 62170.9 1.42328e+06
79 1 Mg 0.125862 77.404 1.52729 1.2 -8.93036 2.74503e+06 1.86869e+06 2.00944e+06 -786209 -366957 -263251
80 2 Si -2.02026 75.4898 1.42401 2.4 -34.0221 7.23479e+06 1.0502e+07 8.21045e+06 185873 2.46654e+06 -358283
81 3 O 1.19658 75.5578 1.51035 -1.2 -8.98371 -3.66679e+06 -2.4819e+06 -2.75769e+06 -303642 355481 -63777
82 3 O -1.0033 79.475 1.71704 -1.2 -8.20141 -4.80291e+06 -4.8255e+06 -2.45103e+06 1.02887e+06 16452.4 319894
83 3 O -1.39 76.2391 0.212993 -1.2 -8.93636 -4.1669e+06 -1.4382e+06 -4.79878e+06 -464672 -842624 -151306
84 3 O -1.29393 76.1666 2.79021 -1.2 -7.93429 -2.63338e+06 -3.11646e+06 204347 -20847.8 1.15132e+06 -852518
85 1 Mg -2.36952 79.9229 0.108226 1.2 -8.5582 -36447.1 3.52446e+06 970391 -752203 -864152 -1.64834e+06
86 1 Mg 2.24897 82.93 1.67914 1.2 -8.95972 3.04625e+06 948917 3.74995e+06 366944 140144 505856
87 2 Si -0.303831 80.9052 1.58508 2.4 -35.0798 7.69537e+06 9.70618e+06 8.47658e+06 -892941 -448276 1.33087e+06
88 3 O 1.23808 80.7594 1.63802 -1.2 -8.7711 -5.23189e+06 -3.78099e+06 -4.08387e+06 18004.4 331314 -29147.8
89 3 O -1.42285 84.6983 1.56163 -1.2 -8.43401 -1.9488e+06 -4.30566e+06 -3.97756e+06 -993930 627892 1.58651e+06
90 3 O -0.990417 81.5165 0.317172 -1.2 -8.36034 -3.38195e+06 -2.09772e+06 -4.08959e+06 198871 97170.9 548279
91 1 Mg -2.32938 90.6321 3.32499 1.2 -7.92726 -1.61542e+06 4.73702e+06 -1.14365e+06 -1.04242e+06 727124 753265
92 3 O -0.895089 81.7577 2.85595 -1.2 -7.84501 -3.70116e+06 -2.82247e+06 -2.42943e+06 -127.854 -1.4797e+06 -565497
93 1 Mg -2.28488 87.5068 4.46622 1.2 -9.59181 2.4196e+06 614225 781881 722783 19569.8 114310
94 2 Si 0.344163 89.5704 4.77337 2.4 -34.5009 1.06923e+07 1.18076e+07 6.58414e+06 -527319 745020 -158129
95 3 O -1.23035 89.4742 4.58537 -1.2 -8.63203 -2.95199e+06 -4.22772e+06 -3.18468e+06 -640725 7484.45 993620
96 3 O 1.61928 85.7293 4.76109 -1.2 -8.13627 -5.82756e+06 -8.28385e+06 -3.5404e+06 -1.13423e+06 46840 -1.35564e+06
97 3 O 1.1406 88.726 3.60102 -1.2 -8.28728 -5.8448e+06 -1.85071e+06 -3.24841e+06 -525450 -1.88291e+06 298409
98 3 O 1.09113 88.9625 6.08274 -1.2 -7.74525 -4.16533e+06 -4.5475e+06 -3.11975e+06 -35044.4 2.0929e+06 -865763
99 1 Mg 0.0446994 85.1434 3.10869 1.2 -8.67894 1.15319e+06 4.00357e+06 -1.73405e+06 456895 404989 1.06186e+06
100 1 Mg -0.141589 82.0647 4.6409 1.2 -9.51847 3.75668e+06 717855 698836 473332 247689 -67443.1
101 2 Si 2.14909 84.2887 4.76952 2.4 -35.8287 1.20851e+07 9.80927e+06 7.9922e+06 2.25129e+06 -50652.4 -1.52969e+06
102 3 O -0.965922 84.3989 4.63606 -1.2 -8.10821 -3.8666e+06 -3.61933e+06 -3.61499e+06 1.72419e+06 -650570 -143531
103 3 O 0.845991 80.3931 4.52689 -1.2 -8.10791 -3.73725e+06 -4.50126e+06 -3.31779e+06 2.11159e+06 -117834 631059
104 3 O 1.48766 83.6777 3.41627 -1.2 -7.63589 -5.23396e+06 -3.80478e+06 -2.12429e+06 -163695 2.26634e+06 214911
105 1 Mg 0.00394186 85.1844 0.177152 1.2 -7.92614 185987 3.91825e+06 699441 750960 934670 -1.73275e+06
106 3 O 1.38036 83.4143 5.92979 -1.2 -7.45315 -4.60737e+06 -1.68113e+06 -2.54646e+06 1.58071e+06 -1.71602e+06 -14757.8
107 1 Mg 0.115743 88.1811 1.93114 1.2 -8.58263 2.55412e+06 350063 2.96233e+06 -1.05509e+06 -422343 -1.32974e+06
108 2 Si -2.05757 86.2545 1.60748 2.4 -34.4552 6.37017e+06 1.01188e+07 7.78585e+06 -762245 -1.17901e+06 -1.57542e+06
109 3 O 1.14806 86.2085 1.9084 -1.2 -8.87063 -4.12792e+06 -3.73691e+06 -3.685e+06 289032 -153823 1.39084e+06
110 3 O -0.891402 90.0261 1.79993 -1.2 -9.45453 -2.62944e+06 -5.18868e+06 -2.7733e+06 -183707 1.11086e+06 1.3415e+06
111 3 O -1.47544 86.7388 0.246848 -1.2 -8.5738 -3.51964e+06 -4.70941e+06 -5.85526e+06 -139545 -1.52549e+06 2.03905e+06
112 3 O -1.3524 86.9861 2.75665 -1.2 -8.40336 -6.52032e+06 -3.94962e+06 -4.24808e+06 -198190 590507 -1.20348e+06
113 1 Mg -2.24832 90.5975 0.271158 1.2 -7.20884 -1.33164e+06 4.82946e+06 -279156 -922112 -2.26898e+06 -3.07816e+06
114 1 Mg 2.37313 93.2893 1.79862 1.2 -8.16692 1.13919e+06 559877 3.5435e+06 1.22599e+06 -236046 -1.19617e+06
115 2 Si -0.267158 91.4592 1.76981 2.4 -32.4528 4.21057e+06 1.10572e+07 7.79793e+06 -635791 -1.671e+06 -2.94142e+06
116 3 O 1.33034 91.3642 1.80268 -1.2 -9.92451 -848806 -4.11054e+06 -3.24267e+06 -332731 -1.06738e+06 1.70564e+06
117 3 O -1.38741 95.2038 1.76758 -1.2 -9.39235 -870534 -5.88335e+06 -2.74621e+06 -1.34104e+06 -396866 390262
118 3 O -0.845536 92.2426 0.563925 -1.2 -9.25766 -2.37854e+06 -3.67306e+06 -2.64186e+06 642164 -249359 1.93907e+06
119 1 Mg -2.20317 100.909 3.23544 1.2 -7.07641 -2.16487e+06 4.05441e+06 -359888 -735509 1.44475e+06 1.99651e+06
120 3 O -1.01798 92.1675 3.12825 -1.2 -9.23514 -2.83611e+06 -4.38649e+06 -2.59367e+06 -671627 -2.38743e+06 992894
121 1 Mg -2.29677 98.174 4.85378 1.2 -7.46547 1.63079e+06 197110 3.23235e+06 522370 -425350 226605
122 2 Si 0.324249 100.112 4.63304 2.4 -31.3485 -398188 1.08873e+07 1.13485e+07 567339 -1.13271e+06 56347.8
123 3 O -1.21064 99.9277 4.65419 -1.2 -10.6495 -1.09839e+06 -3.47442e+06 -5.6119e+06 593035 -266831 -408619
124 3 O 1.35282 96.2935 4.82935 -1.2 -9.90108 -1.7557e+06 -1.91241e+06 -2.67679e+06 -709197 -34961.3 168885
125 3 O 0.949145 99.4476 3.25809 -1.2 -9.60215 -2.18735e+06 -3.59218e+06 -2.19946e+06 -862545 -993686 228917
126 3 O 0.984229 99.4712 6.00998 -1.2 -9.65178 -2.774e+06 -5.02427e+06 -592841 -1.48341e+06 -97441.7 -237014
127 1 Mg 0.0742848 95.8106 3.37001 1.2 -7.19415 -2.50865e+06 4.29367e+06 -481191 1.41275e+06 -1.61604e+06 1.06958e+06
128 1 Mg -0.199138 92.91 4.67197 1.2 -8.20961 1.51598e+06 727646 980412 -1.14651e+06 -807644 -1.74405e+06
129 2 Si 2.0268 94.7687 4.91354 2.4 -32.2002 3.0445e+06 1.30939e+07 8.41753e+06 471108 -973858 -246030
130 3 O -1.2007 94.7594 4.90561 -1.2 -10.0476 -2.14646e+06 -4.99226e+06 -3.63472e+06 229303 -1.306e+06 395104
131 3 O 0.967875 91.0576 4.78656 -1.2 -8.99117 -1.5874e+06 -5.34266e+06 -2.24516e+06 1.46573e+06 163545 1.7209e+06
132 3 O 1.44631 93.9984 3.60464 -1.2 -9.44227 -2.13561e+06 -2.24562e+06 -470430 -31841.6 347809 1.26215e+06
133 1 Mg 0.0987838 95.7901 0.36435 1.2 -7.35686 -938081 5.8077e+06 -179311 710535 559539 -1.23225e+06
134 3 O 1.2652 94.1265 6.22404 -1.2 -9.20869 -2.58613e+06 -3.70012e+06 -478447 -70017.9 -810401 -1.68737e+06
135 1 Mg 0.09553 98.7966 1.7133 1.2 -8.23704 1.9019e+06 1.22313e+06 148270 -639426 -673376 -1.533e+06
136 2 Si -2.03552 96.6542 1.93415 2.4 -32.3653 5.05335e+06 1.25886e+07 6.69349e+06 430065 -147759 -1.38896e+06
137 3 O 1.17199 96.6809 1.85511 -1.2 -10.0401 -2.73135e+06 -3.99557e+06 -2.22091e+06 979099 368650 698004
138 3 O -1.04735 100.544 1.69718 -1.2 -9.19516 -2.56818e+06 -3.57374e+06 -2.35069e+06 2.2731e+06 -385534 544695
139 3 O -1.23957 97.4622 0.679034 -1.2 -9.17089 -1.9838e+06 -3.84123e+06 -1.01265e+06 1.21971e+06 -2.10053e+06 1.38485e+06
140 3 O -1.25777 97.2341 3.23311 -1.2 -9.40079 -1.85492e+06 -3.60469e+06 -3.27974e+06 217953 1.33374e+06 686712
141 1 Mg -2.34508 101.342 0.22573 1.2 -8.19038 -1.68903e+06 3.94764e+06 -1.61966e+06 -1.33702e+06 -1.70657e+06 -1.17804e+06
142 1 Mg 7.27504 104.03 1.91947 1.2 -8.47871 2.36038e+06 868762 3.17106e+06 627386 258921 332165
143 2 Si -0.23681 102.049 1.73566 2.4 -32.9842 6.92098e+06 1.11173e+07 8.45095e+06 751283 1.88334e+06 854016
144 3 O 1.30936 101.956 1.71885 -1.2 -9.46172 -2.33029e+06 -4.0619e+06 -3.86569e+06 686765 1.53492e+06 -535066
145 3 O 3.38864 105.945 1.95367 -1.2 -8.89292 -5.99153e+06 -1.26601e+06 -3.02722e+06 -1.17195e+06 271351 -367144
146 3 O -1.03072 102.722 0.431212 -1.2 -8.37283 -2.9439e+06 -4.35543e+06 -940250 -1.78795e+06 1.1504e+06 36508
147 1 Mg 2.32299 111.665 2.96514 1.2 -9.15481 969520 2.55508e+06 -566407 520064 -201962 2.6606e+06
148 3 O -0.879 102.814 2.95542 -1.2 -9.37359 -3.36116e+06 -1.11952e+06 -3.65266e+06 97257.9 -1.09936e+06 -680325
149 1 Mg 2.3292 108.705 4.75854 1.2 -8.86699 1.96046e+06 -139470 2.76617e+06 826254 115233 -159602
150 2 Si 4.97125 110.618 4.55196 2.4 -35.5077 9.72774e+06 8.67487e+06 7.75479e+06 -639556 -385787 523521
151 3 O 3.44305 110.906 4.49417 -1.2 -8.26271 -5.70664e+06 -4.40575e+06 -2.4101e+06 -915609 -443569 -267579
152 3 O 6.19668 106.893 4.85354 -1.2 -8.99594 -1.45006e+06 -1.47055e+06 -3.13253e+06 -1.94508e+06 -176120 -207908
153 3 O 5.71162 109.877 3.32894 -1.2 -7.75739 -4.59144e+06 -3.26304e+06 -2.6653e+06 -103919 -906536 -1.78695e+06
154 3 O 5.60813 110.001 5.83008 -1.2 -8.57902 -2.56789e+06 -3.03294e+06 -5.81282e+06 -507428 648312 1.49175e+06
155 1 Mg 4.83311 106.219 3.2825 1.2 -8.0137 -275991 2.88898e+06 189418 1.16007e+06 -1.75224e+06 1.94499e+06
156 1 Mg 0.0365416 103.489 4.80501 1.2 -8.18916 1.49883e+06 -240076 3.9128e+06 -822985 373328 549540
157 2 Si 6.91143 105.335 4.81708 2.4 -32.861 4.49935e+06 1.05047e+07 1.17684e+07 -551889 -700329 -1.10616e+06
158 3 O 3.69606 105.404 4.80369 -1.2 -9.89397 -2.54605e+06 -2.63491e+06 -5.35985e+06 26052.4 -295006 175557
159 3 O 0.965025 101.539 4.65313 -1.2 -9.90056 -108702 -4.75219e+06 -5.03798e+06 386295 -132239 515128
160 3 O 6.18933 104.696 3.50452 -1.2 -9.13924 -2.85594e+06 -2.97861e+06 -2.76064e+06 -157800 1.16863e+06 456634
161 1 Mg 4.776 106.196 0.341403 1.2 -8.6842 110817 3.64022e+06 -458977 1.27957e+06 1.38027e+06 -698434
162 3 O 6.21878 104.582 6.10586 -1.2 -8.95191 -1.80736e+06 -1.54539e+06 -1.56165e+06 506711 -588176 -558133
163 1 Mg 4.55247 109.294 1.67666 1.2 -8.94168 2.35816e+06 -1.125e+06 3.87304e+06 -2.38383e+06 -124181 939634
164 2 Si 2.8518 107.493 1.73128 2.4 -33.7527 1.15101e+07 8.46429e+06 9.08757e+06 108075 60604.5 2.92158e+06
165 3 O 5.86277 107.16 1.72664 -1.2 -8.27263 1.33648e+06 -3.44085e+06 -3.17412e+06 1.79211e+06 -1.11312e+06 -937542
166 3 O 3.85137 111.167 1.49958 -1.2 -8.19215 -3.38984e+06 -4.35793e+06 -4.79439e+06 1.95881e+06 -13927.8 -794538
167 3 O 3.49682 107.99 0.431046 -1.2 -8.78852 -5.41866e+06 -3.48723e+06 -1.87988e+06 -599165 -460134 -184040
168 3 O 3.30761 108.349 3.03337 -1.2 -8.59099 -5.62755e+06 -2.34137e+06 50292.6 298935 1.08401e+06 -278587
169 1 Mg 2.39023 111.788 0.132486 1.2 -8.78604 489478 3.73106e+06 36088 -354268 -952105 -185411
170 1 Mg 7.18363 114.584 1.83619 1.2 -10.0579 4.52406e+06 176679 3.78742e+06 307081 20908.1 -223353
171 2 Si 4.54752 112.64 1.58567 2.4 -35.5946 8.48519e+06 9.40115e+06 1.06667e+07 322664 -398904 2.31762e+06
172 3 O 6.06976 112.623 1.65872 -1.2 -8.57382 -6.24213e+06 -3.20421e+06 -5.77602e+06 -48790.4 -183366 -89065.7
173 3 O 3.30657 116.515 1.79883 -1.2 -7.46062 -6.49401e+06 -4.04882e+06 -4.37943e+06 -447920 -562241 -1.28717e+06
174 3 O 3.77413 113.373 0.434012 -1.2 -7.77594 -4.32481e+06 -4.09607e+06 -5.47008e+06 -10354 843852 504943
175 1 Mg 2.25617 122.094 2.71052 1.2 -7.87078 -161251 4.31664e+06 119647 -910374 912363 937939
176 3 O 3.78195 113.316 2.94779 -1.2 -7.2199 -5.5668e+06 -1.94703e+06 -3.02519e+06 -818284 -2.01754e+06 954781
177 1 Mg 2.32343 119.252 4.63387 1.2 -9.33436 1.69173e+06 1.31908e+06 1.14349e+06 1.37435e+06 -399887 1.49903e+06
178 2 Si 5.01147 121.123 4.41571 2.4 -33.8203 1.13321e+07 9.2244e+06 6.84051e+06 -702320 12568.3 -99365.3
179 3 O 3.30464 121.248 4.48473 -1.2 -8.62093 219488 -3.91409e+06 -2.47394e+06 -1.21037e+06 239986 -970569
180 3 O 6.13468 117.364 4.70377 -1.2 -7.75213 -4.00509e+06 -4.18247e+06 -3.21704e+06 -790042 -269287 -2.6087e+06
181 3 O 5.66096 120.429 3.19364 -1.2 -8.90242 -3.43609e+06 -4.65047e+06 -2.35328e+06 -260075 -1.27328e+06 -2.15641e+06
182 3 O 5.66263 120.478 5.77268 -1.2 -8.37595 -4.8922e+06 -2.93265e+06 -1.18281e+06 -102873 987631 -640164
183 1 Mg 4.49775 117.153 3.33597 1.2 -8.83139 2.25279e+06 1.86973e+06 928845 1.5095e+06 -1.86066e+06 2.55037e+06
184 1 Mg 4.61802 113.979 4.68185 1.2 -9.82646 4.13611e+06 280809 2.91305e+06 -803234 -130718 566377
185 2 Si 6.72047 115.838 4.7283 2.4 -36.5841 7.05859e+06 8.50493e+06 9.20497e+06 -144353 748548 1.91546e+06
186 3 O 3.47026 115.904 4.75956 -1.2 -8.10045 -7.81602e+06 -2.77644e+06 -5.47944e+06 1.13007e+06 -492134 -1.45827e+06
187 3 O 5.71009 112.059 4.51423 -1.2 -7.52505 -6.82475e+06 -5.0205e+06 -3.30075e+06 1.2212e+06 -478873 1.07312e+06
188 3 O 6.1088 115.135 3.47938 -1.2 -7.10511 -5.54692e+06 -2.37155e+06 -5.5684e+06 -680740 -57672.9 -996523
189 1 Mg 4.66309 116.91 0.206756 1.2 -9.0899 1.70763e+06 1.73554e+06 541104 1.43997e+06 1.80188e+06 -1.56109e+06
190 3 O 5.95226 115.137 5.90578 -1.2 -7.79955 -5.60009e+06 -2.37756e+06 -6.80535e+06 -713466 -621261 -526862
191 1 Mg 4.76427 119.886 1.43414 1.2 -8.53852 1.95929e+06 451040 1.78658e+06 -846253 404526 490718
192 2 Si 2.68346 117.992 1.63139 2.4 -35.5928 8.3793e+06 7.63282e+06 7.85704e+06 689527 695180 986042
193 3 O 5.8715 117.848 1.54928 -1.2 -8.04335 -4.23758e+06 -3.33633e+06 -3.87467e+06 640181 316468 -320233
194 3 O 3.68501 121.523 1.23635 -1.2 -9.13369 -2.1927e+06 -2.71604e+06 -3.42893e+06 1.37686e+06 -291074 -412069
195 3 O 3.24779 118.527 0.322477 -1.2 -8.37768 -5.78035e+06 -4.00462e+06 -3.68791e+06 -595350 482848 1.56324e+06
196 3 O 3.32616 118.629 2.94324 -1.2 -8.32179 -4.59464e+06 -5.96609e+06 -2.33751e+06 445389 765708 -2.6493e+06
197 1 Mg 2.23021 122.009 -0.0756103 1.2 -7.96512 -792631 4.33649e+06 -1.84947e+06 -918220 -1.94636e+06 -1.68634e+06
198 1 Mg 6.97752 125.058 1.41604 1.2 -8.68881 2.11724e+06 800316 1.66637e+06 1.0769e+06 382343 -133583
199 2 Si 4.31478 123.14 1.24384 2.4 -33.3642 5.66931e+06 1.10896e+07 8.83838e+06 414510 -421080 1.23463e+06
200 3 O 5.86926 123.03 1.35496 -1.2 -9.41447 -1.89759e+06 -3.7053e+06 -5.15866e+06 -755666 -114169 -422315
201 3 O 3.30121 126.92 1.48236 -1.2 -8.75898 -4.97743e+06 -4.00243e+06 -2.72042e+06 -395910 291820 584739
202 3 O 3.66067 123.829 0.0361508 -1.2 -8.88068 -4.44329e+06 -3.38903e+06 -4.67722e+06 534304 1.1574e+06 -50467.2
203 1 Mg 2.21308 132.812 2.77785 1.2 -7.71786 -670104 4.14568e+06 1.45104e+06 -540000 542789 2.32542e+06
204 3 O 3.6173 123.785 2.56297 -1.2 -8.87285 -4.53879e+06 -2.20005e+06 -1.6027e+06 190607 -846957 131223
205 1 Mg 2.44173 129.734 4.51305 1.2 -8.52797 2.03927e+06 1.04223e+06 2.02403e+06 850517 -41027.6 1.12218e+06
206 2 Si 4.91485 131.546 4.26733 2.4 -33.6352 8.33035e+06 1.0625e+07 8.59027e+06 27706.7 2.01402e+06 3.2459e+06
207 3 O 3.35798 131.746 4.4333 -1.2 -9.36211 -3.09755e+06 -2.57593e+06 -4.07308e+06 -295599 1.45566e+06 -2.12561e+06
208 3 O 6.10392 127.674 4.38099 -1.2 -8.98901 -1.52374e+06 -4.21697e+06 -4.80291e+06 149886 590228 -405177
209 3 O 5.48729 130.793 3.06582 -1.2 -8.67942 -3.76669e+06 -750243 -5.70192e+06 -217527 -1.12775e+06 -1.08289e+06
210 3 O 5.76791 130.868 5.48781 -1.2 -8.61739 -2.0094e+06 -2.61891e+06 -3.37114e+06 -1.32005e+06 1.5133e+06 -1.04894e+06
211 1 Mg 4.69216 127.124 2.99969 1.2 -7.8838 117230 3.80043e+06 -581416 1.03585e+06 -1.36787e+06 2.18302e+06
212 1 Mg 4.43533 124.172 4.43898 1.2 -8.46896 1.75428e+06 -456397 2.37669e+06 437822 67500.6 410459
213 2 Si 6.66376 126.16 4.44819 2.4 -33.4961 4.0728e+06 1.06467e+07 9.49105e+06 1.02541e+06 -1.59943e+06 687352
214 3 O 3.4802 126.236 4.39137 -1.2 -9.59913 -2.90113e+06 -3.03985e+06 -4.51896e+06 985858 -1.67489e+06 -575115
215 3 O 5.57569 122.596 4.36235 -1.2 -8.98994 -4.45187e+06 -6.72579e+06 -3.23491e+06 1.57262e+06 -456918 -34583.8
216 3 O 6.10654 125.494 3.1113 -1.2 -8.6037 -4.17603e+06 -4.38784e+06 -3.10426e+06 -277864 495441 -193706
217 1 Mg 4.7295 127.416 0.0037967 1.2 -8.49428 268296 2.94903e+06 90025.2 123698 773058 -1.12655e+06
218 3 O 5.9287 125.5 5.70917 -1.2 -9.00082 -1.24725e+06 -3.04855e+06 -1.68338e+06 173486 282886 -227976
219 1 Mg 4.81602 130.049 1.33188 1.2 -8.60333 2.22394e+06 25595.1 2.77354e+06 -1.28555e+06 -63179.3 567564
220 2 Si 2.63955 128.393 1.6114 2.4 -34.0393 6.57721e+06 9.44027e+06 9.59792e+06 762500 -1.34596e+06 418824
221 3 O 5.83351 128.096 1.52591 -1.2 -9.09406 -3.0712e+06 -3.47638e+06 -4.61382e+06 1.3163e+06 -77786.7 -1.36e+06
222 3 O 3.67283 132.342 1.43119 -1.2 -8.77633 -109727 -5.27565e+06 -3.51288e+06 952773 -349714 -1.22332e+06
223 3 O 3.36829 129.127 0.230479 -1.2 -8.33873 -3.04749e+06 -3.48816e+06 -1.05604e+06 840240 -1.77653e+06 -1.07018e+06
224 3 O 3.26392 129.071 2.80485 -1.2 -8.85007 -4.2564e+06 -3.49814e+06 -3.98848e+06 -1.26884e+06 313347 -1.77847e+06
225 1 Mg 2.40106 133.031 -0.117705 1.2 -7.84934 -1.99666e+06 4.08115e+06 -971130 -2.04753e+06 -2.14578e+06 -1.55635e+06
226 1 Mg 7.09507 135.693 1.18421 1.2 -8.45559 2.24346e+06 -1.11945e+06 2.48462e+06 588078 -299178 1.14129e+06
227 2 Si 4.4336 133.775 1.40718 2.4 -33.5594 4.51955e+06 1.06142e+07 8.69278e+06 1.837e+06 -779884 1.83109e+06
228 3 O 5.98864 133.9 1.32883 -1.2 -9.57144 -3.54019e+06 -2.80726e+06 -4.93245e+06 1.08812e+06 -609765 -1.02386e+06
229 3 O 3.49106 137.383 1.21014 -1.2 -9.57453 -1.52431e+06 -5.0076e+06 -3.94722e+06 -1.00717e+06 438144 -262981
230 3 O 3.80795 134.409 0.0804317 -1.2 -8.74513 -5.28753e+06 -4.38178e+06 -5.07477e+06 -218693 732170 -121774
231 1 Mg 2.64796 143.085 2.6918 1.2 -7.11929 -629077 4.88792e+06 -1.41438e+06 -920303 1.9715e+06 1.08824e+06
232 3 O 3.76813 134.498 2.63476 -1.2 -8.67243 -2.67944e+06 -3.97367e+06 -3.03281e+06 -250607 -383267 -1.50832e+06
233 1 Mg 2.53333 140.087 4.33655 1.2 -7.54536 16932.4 1.19884e+06 2.22964e+06 1.92829e+06 718288 -660585
234 2 Si 5.2624 141.951 4.2831 2.4 -31.9801 4.15562e+06 9.38379e+06 8.90351e+06 -722057 -2.00098e+06 -11678.7
235 3 O 3.70725 142.015 4.18039 -1.2 -9.7146 -524688 -3.32579e+06 -3.23252e+06 -1.02434e+06 -393772 -1.19171e+06
236 3 O 6.15745 138.324 4.64333 -1.2 -9.61508 -853515 -3.07521e+06 -3.10627e+06 -1.01016e+06 -255405 -990027
237 3 O 5.94158 141.17 2.97448 -1.2 -9.50533 -1.99713e+06 -4.73044e+06 1.69771e+06 321794 -592115 -1.32286e+06
238 3 O 5.76271 141.505 5.71328 -1.2 -9.99138 -2.686e+06 -2.97448e+06 -879619 253169 -618312 155435
239 1 Mg 4.81459 137.896 2.77709 1.2 -7.33146 -2.28077e+06 3.68227e+06 -778074 2.20551e+06 -1.38869e+06 2.83565e+06
240 1 Mg 4.59495 135.043 4.5243 1.2 -8.2198 1.22735e+06 130018 3.69613e+06 -928086 310246 189548
241 2 Si 6.79008 136.8 4.40172 2.4 -32.4537 3.04561e+06 1.07333e+07 1.08362e+07 -944378 -371117 2.54879e+06
242 3 O 3.56354 136.812 4.2669 -1.2 -9.95335 -2.15046e+06 -4.19469e+06 -3.75658e+06 782737 49769.4 -1.50086e+06
243 3 O 5.66285 133.174 4.3526 -1.2 -8.70336 -1.79058e+06 -118495 -1.21505e+06 2.12615e+06 -132025 57281
244 3 O 6.12786 136.469 2.88126 -1.2 -8.9616 -4.32883e+06 -4.06429e+06 655972 384719 592412 -1.19015e+06
245 1 Mg 4.88697 138.135 -0.106496 1.2 -7.03566 -1.99908e+06 4.28126e+06 -101683 586906 640900 -1.04082e+06
246 3 O 6.11735 136.01 5.59138 -1.2 -9.58259 -2.45993e+06 -4.78401e+06 -1.55621e+06 519745 -1.53883e+06 -156360
247 1 Mg 4.90441 140.814 1.25187 1.2 -7.44217 783356 1.42965e+06 2.07768e+06 -917692 -216471 -478128
248 2 Si 2.78167 138.836 1.43443 2.4 -31.6455 1.17954e+06 1.34207e+07 6.63878e+06 -245874 -1.06316e+06 1.35614e+06
249 3 O 6.01956 138.862 1.41238 -1.2 -10.3641 -2.96326e+06 -6.34805e+06 -3.03653e+06 -554531 -344868 -1.06669e+06
250 3 O 3.96658 142.746 1.29711 -1.2 -10.1516 -57024.9 -3.69951e+06 -3.17136e+06 761553 316347 -210814
251 3 O 3.53268 139.69 0.250722 -1.2 -10.1669 -671565 -4.72139e+06 -1.92001e+06 987144 -1.09708e+06 -486215
252 3 O 3.44391 139.378 2.78927 -1.2 -9.7163 -3.06752e+06 -5.337e+06 -2.3867e+06 838229 1.01748e+06 -1.0282e+06
253 1 Mg 2.58414 143.376 -0.223306 1.2 -7.01628 -2.14567e+06 4.31254e+06 170783 -1.21823e+06 -1.90512e+06 -722640
254 1 Mg 7.0702 146.2 1.52188 1.2 -7.78526 1.00384e+06 1.14044e+06 1.58922e+06 636418 204829 -1.25036e+06
255 2 Si 4.61748 144.256 1.19805 2.4 -32.2105 2.34088e+06 1.07044e+07 8.78609e+06 -622945 460325 949951
256 3 O 6.15323 144.364 1.37805 -1.2 -9.9404 -1.88487e+06 -2.60757e+06 -4.69288e+06 -453598 1.19717e+06 -45447.6
257 3 O 3.54324 148.15 1.4301 -1.2 -9.72853 -1.90558e+06 -4.09671e+06 63328.2 -1.31795e+06 -656594 -28.9717
258 3 O 3.94704 144.8 -0.0760833 -1.2 -9.6005 -2.17192e+06 -4.01263e+06 -3.59746e+06 519046 -93975.6 -226370
259 1 Mg 2.10743 153.447 1.79576 1.2 -7.20836 -696542 -1.33502e+06 2.8534e+06 532292 194099 -322366
260 3 O 3.98607 145.06 2.50147 -1.2 -9.18459 -3.60655e+06 -2.07554e+06 -136989 67313.8 -498383 345211
261 1 Mg 2.19825 150.72 4.96224 1.2 -7.49979 -1.53576e+06 3.90364e+06 912356 -184530 -412247 1.57967e+06
262 2 Si 4.40748 151.879 3.19124 2.4 -32.8218 7.18433e+06 9.84869e+06 4.03823e+06 -1.71036e+06 696319 2.36029e+06
263 3 O 3.35385 153.037 3.33396 -1.2 -8.40388 -2.88172e+06 4788.79 -3.84168e+06 -277940 2.62994e+06 -1.24799e+06
264 3 O 6.30491 148.749 4.55904 -1.2 -9.68949 -288852 -4.58261e+06 -3.28883e+06 -1.67153e+06 332588 -232000
265 3 O 5.26903 152.225 2.02393 -1.2 -9.52336 -3.82531e+06 -3.04286e+06 -6.82699e+06 1.60521e+06 955620 -788579
266 3 O 5.22263 151.587 4.45635 -1.2 -9.42555 -3.24741e+06 -4.32308e+06 -5.10162e+06 -894377 -675833 -53817.9
267 1 Mg 5.04821 148.097 2.89485 1.2 -7.04015 -1.93036e+06 2.85878e+06 1.41882e+06 1.95241e+06 -634683 1.01989e+06
268 1 Mg 4.78818 145.39 4.46423 1.2 -7.46517 461994 1.7188e+06 3.3906e+06 -221205 -106796 1.42781e+06
269 2 Si 7.01049 147.219 4.58954 2.4 -32.0029 4.31055e+06 9.37782e+06 8.49472e+06 -396672 -769771 -22185.1
270 3 O 3.86508 147.303 4.57956 -1.2 -10.248 -825248 -1.78902e+06 -3.6746e+06 240225 5103.72 -536635
271 3 O 5.85302 143.418 4.05864 -1.2 -9.80509 -2.16788e+06 -4.25859e+06 -2.57597e+06 -66462.8 -43931 641755
272 3 O 6.31547 146.674 3.31557 -1.2 -9.89497 -2.84957e+06 -6.87849e+06 -3.9889e+06 941156 444039 -2.56715e+06