ITEM: TIMESTEP
400
ITEM: NUMBER OF ATOMS
5600
ITEM: BOX BOUNDS xy xz yz pp pp pp
0.0000000000000000e+00 7.1234999999999999e+00 0.0000000000000000e+00
0.0000000000000000e+00 2.0198500000000001e+02 2.3744999999999998e+00
0.0000000000000000e+00 1.1958400000000000e+02 0.0000000000000000e+00
ITEM: ATOMS id type element xu yu zu q c_pe c_s[1] c_s[2] c_s[3] c_s[4] c_s[5] c_s[6]
1 1 Mg -1.57466 49.8557 -0.837078 1.2 -7.56578 -1.24218e+06 -1.5027e+06 2.08136e+06 360920 273266 -96183.1
2 1 Mg 2.96856 51.9707 2.13539 1.2 -8.39455 -877129 4.59445e+06 498473 -33227.2 -290005 -884304
3 2 Si 0.863335 51.458 0.334403 2.4 -33.7723 8.26774e+06 7.67566e+06 6.2925e+06 -938696 155356 367278
4 3 O 2.21666 50.7054 0.587188 -1.2 -8.43179 -5.51253e+06 -2.15994e+06 -5.42449e+06 223189 -965170 1.47967e+06
5 3 O -1.26781 54.1241 1.6562 -1.2 -8.86765 -2.971e+06 -4.03563e+06 -2.81457e+06 -1.11153e+06 171645 -61980.8
6 3 O 0.143741 50.7202 -0.847808 -1.2 -9.00102 -6.05755e+06 -1.08272e+06 -5.72882e+06 671258 -234203 92544.4
7 1 Mg -2.29156 59.8011 3.12482 1.2 -7.95903 -553666 3.8992e+06 51224.6 -1.03441e+06 1.55554e+06 1.63905e+06
8 3 O 0.0284661 51.4724 1.62402 -1.2 -8.70781 -6.39943e+06 -4.89551e+06 -4.14788e+06 -963225 -40741.1 -920483
9 1 Mg -2.19619 56.9716 4.62977 1.2 -8.55567 2.10512e+06 292140 2.97163e+06 712629 13538.3 88817.6
10 2 Si 0.431943 58.7986 4.6165 2.4 -33.5555 6.1331e+06 1.03509e+07 8.62606e+06 34380.4 114232 -13041.7
11 3 O -1.13368 58.8729 4.62255 -1.2 -9.44243 -2.2731e+06 -3.60491e+06 -3.89396e+06 -550976 112552 65098.1
12 3 O 1.4737 55.1648 4.62982 -1.2 -9.16353 -3.36578e+06 -4.36997e+06 -3.32446e+06 -921337 255415 -105396
13 3 O 1.10378 58.1369 3.33463 -1.2 -8.97998 -3.10233e+06 -3.46635e+06 -2.83341e+06 -112382 -695763 -499452
14 3 O 1.13131 58.137 5.89073 -1.2 -8.91377 -3.29121e+06 -3.50732e+06 -2.80299e+06 -165139 892823 555970
15 1 Mg 0.121902 54.5801 3.11941 1.2 -7.98887 -835379 4.25912e+06 130657 537995 -1.46597e+06 1.5722e+06
16 1 Mg 0.798634 50.9763 3.30552 1.2 -8.04015 1.86724e+06 1.28287e+06 -2.76491e+06 -489735 -173433 646467
17 2 Si 2.17501 53.7176 4.61984 2.4 -33.2162 7.26809e+06 9.05024e+06 7.55484e+06 -178271 646774 797957
18 3 O -1.03184 53.7855 4.64781 -1.2 -9.25172 -2.58747e+06 -4.10661e+06 -2.90312e+06 740762 -418509 -117249
19 3 O 2.65323 50.4196 3.45217 -1.2 -6.9148 -1.43185e+06 206269 -3.04661e+06 357861 -59157.7 -842372
20 3 O 1.59032 52.9937 3.34058 -1.2 -8.98337 -3.79516e+06 -4.06663e+06 -3.86163e+06 -488121 485657 -77806.3
21 1 Mg 0.0380234 54.7204 0.133147 1.2 -7.9336 -970209 3.25928e+06 435023 1.3332e+06 1.77345e+06 -1.59008e+06
22 3 O 1.45866 52.9578 5.87923 -1.2 -10.195 -4.82768e+06 -4.58188e+06 -5.89205e+06 1.00347e+06 -1.9301e+06 -59453.1
23 1 Mg 0.117318 57.4941 1.6542 1.2 -8.51968 2.27346e+06 556933 2.78935e+06 -830431 -5307.21 -156729
24 2 Si -1.97284 55.6112 1.66495 2.4 -33.6261 5.74895e+06 1.12068e+07 7.97461e+06 -284158 175265 -40257.5
25 3 O 1.22624 55.5521 1.65262 -1.2 -9.42163 -2.75192e+06 -3.84839e+06 -3.65126e+06 137742 313918 141034
26 3 O -0.943596 59.2979 1.62784 -1.2 -9.03769 -2.69039e+06 -4.20455e+06 -3.24821e+06 1.0295e+06 14468.9 -60896.7
27 3 O -1.3238 56.285 0.370464 -1.2 -8.98372 -3.31929e+06 -3.57975e+06 -2.93064e+06 394622 -453558 398119
28 3 O -1.27886 56.2966 2.91941 -1.2 -8.92197 -3.31712e+06 -3.23243e+06 -3.04754e+06 299265 659326 -465288
29 1 Mg -2.35448 59.7967 0.145443 1.2 -7.96343 -619049 3.94788e+06 106717 -851120 -1.20226e+06 -1.73504e+06
30 1 Mg 2.35619 62.6419 1.62524 1.2 -8.56556 2.0978e+06 631584 2.96151e+06 805960 467.53 -98613.6
31 2 Si -0.280369 60.7995 1.6165 2.4 -33.4873 6.07408e+06 1.03345e+07 8.57232e+06 71613.5 184322 -161631
32 3 O 1.27555 60.7158 1.62692 -1.2 -9.45207 -2.44419e+06 -3.6011e+06 -3.94869e+06 -546933 293078 59792.5
33 3 O -1.33829 64.4673 1.62731 -1.2 -8.94844 -2.84449e+06 -3.75889e+06 -3.28577e+06 -1.16117e+06 -21703.6 120686
34 3 O -1.00008 61.4566 0.350587 -1.2 -8.98853 -3.24499e+06 -3.49693e+06 -2.92679e+06 -209742 1.05842e+06 546711
35 1 Mg -2.32384 70.1134 3.11163 1.2 -8.03261 -394444 3.79882e+06 138349 -950047 1.48428e+06 1.67333e+06
36 3 O -0.958378 61.4562 2.90056 -1.2 -8.98138 -3.24533e+06 -3.44446e+06 -2.79977e+06 -159242 -776900 -544094
37 1 Mg -2.23781 67.2643 4.6177 1.2 -8.52324 2.05496e+06 546173 2.91391e+06 824249 -27879.2 -33655.8
38 2 Si 0.404175 69.108 4.62341 2.4 -33.5735 6.31055e+06 1.00877e+07 8.74296e+06 124790 199411 9317.83
39 3 O -1.15251 69.1958 4.60416 -1.2 -9.40792 -2.45952e+06 -3.4525e+06 -3.76319e+06 -502033 218356 27176
40 3 O 1.43739 65.4593 4.60279 -1.2 -9.03721 -2.64165e+06 -4.30102e+06 -3.45486e+06 -1.07821e+06 -36459.7 163688
41 3 O 1.07539 68.4482 3.32988 -1.2 -8.92924 -3.30185e+06 -3.32154e+06 -2.5529e+06 -138028 -765128 -563194
42 3 O 1.10849 68.4509 5.89113 -1.2 -8.9844 -3.02261e+06 -3.40632e+06 -2.9466e+06 -207415 902860 695057
43 1 Mg 0.0506595 64.9636 3.12162 1.2 -8.01104 -582765 3.87258e+06 308330 795605 -1.20911e+06 1.58999e+06
44 1 Mg 0.00945602 62.1092 4.59917 1.2 -8.55957 2.12266e+06 640160 2.88371e+06 -859414 33656.2 -11757.4
45 2 Si 2.11583 63.9711 4.60841 2.4 -33.5766 6.2677e+06 9.97567e+06 8.76803e+06 -102077 66718.4 -54394.9
46 3 O -1.07727 64.0362 4.60572 -1.2 -9.40505 -2.5089e+06 -3.37267e+06 -3.90251e+06 357451 151868 11438.6
47 3 O 1.08605 60.2955 4.62291 -1.2 -9.01694 -2.58064e+06 -4.18387e+06 -3.35381e+06 946985 40502.2 113176
48 3 O 1.41533 63.2842 3.35316 -1.2 -8.95294 -3.21629e+06 -3.21143e+06 -2.94804e+06 223035 837698 -435725
49 1 Mg 0.00771647 64.9638 0.126544 1.2 -8.07984 -416065 3.83115e+06 59711 930663 1.56233e+06 -1.70032e+06
50 3 O 1.43929 63.3275 5.90939 -1.2 -8.90016 -3.29912e+06 -3.4218e+06 -2.65879e+06 148901 -820421 555356
51 1 Mg 0.088701 67.8168 1.63498 1.2 -8.57043 2.08315e+06 578991 2.96159e+06 -839143 10845.2 45199.4
52 2 Si -2.01621 65.9711 1.6258 2.4 -33.6072 6.42088e+06 1.03776e+07 8.48865e+06 -141557 3774.7 2320.1
53 3 O 1.17494 65.8795 1.62614 -1.2 -9.38097 -2.41851e+06 -3.58295e+06 -3.82534e+06 424286 163620 -42932.2
54 3 O -0.967441 69.6278 1.60862 -1.2 -8.96952 -2.74258e+06 -4.11812e+06 -3.50564e+06 1.05852e+06 2156.44 164.144
55 3 O -1.34639 66.6207 0.326961 -1.2 -8.90242 -3.31436e+06 -3.36886e+06 -2.70315e+06 150053 -800005 491406
56 3 O -1.31285 66.65 2.87514 -1.2 -8.98683 -3.29292e+06 -3.36253e+06 -2.98283e+06 245534 826052 -644463
57 1 Mg -2.35384 70.1144 0.135882 1.2 -8.04233 -397752 3.87303e+06 184877 -738065 -1.1024e+06 -1.66271e+06
58 1 Mg 2.32758 72.9658 1.61323 1.2 -8.55031 2.19414e+06 487541 3.07031e+06 768449 55385.5 -69184.8
59 2 Si -0.289671 71.1262 1.62097 2.4 -33.6392 5.81761e+06 1.01591e+07 8.88832e+06 67760.5 100431 -74185
60 3 O 1.25469 71.0373 1.62658 -1.2 -9.42682 -2.92416e+06 -3.43364e+06 -3.98242e+06 -448099 159795 24248.5
61 3 O -1.33974 74.7827 1.60863 -1.2 -9.00964 -2.7316e+06 -4.28651e+06 -3.48231e+06 -926152 120847 -13665.4
62 3 O -0.997547 71.7958 0.355409 -1.2 -8.90294 -3.232e+06 -3.46022e+06 -2.8409e+06 -263808 879585 620245
63 1 Mg -2.33294 80.4145 3.08729 1.2 -7.99718 -581073 3.7035e+06 78584.2 -938999 1.50547e+06 1.73345e+06
64 3 O -0.962651 71.7767 2.91105 -1.2 -8.91438 -3.23099e+06 -3.29214e+06 -2.88049e+06 -105223 -697508 -541795
65 1 Mg -2.22684 77.5944 4.58915 1.2 -8.50274 1.93683e+06 473691 2.96101e+06 761807 20622 34124.2
66 2 Si 0.38933 79.4176 4.60479 2.4 -33.4875 6.09034e+06 1.01838e+07 8.68911e+06 119164 184581 -85827.5
67 3 O -1.17064 79.5013 4.59073 -1.2 -9.47289 -2.39356e+06 -3.53995e+06 -3.96325e+06 -414409 239322 38518.9
68 3 O 1.43587 75.7829 4.60037 -1.2 -9.06698 -2.6398e+06 -4.07402e+06 -3.46592e+06 -1.1142e+06 42571.6 11541.3
69 3 O 1.06244 78.7547 3.32772 -1.2 -9.00354 -3.15501e+06 -3.45056e+06 -2.92557e+06 -108184 -717570 -640422
70 3 O 1.09174 78.7689 5.87926 -1.2 -8.97324 -3.08503e+06 -3.50629e+06 -2.9861e+06 -265883 891024 542790
71 1 Mg 0.0489793 75.2915 3.11146 1.2 -7.96673 -598016 3.83288e+06 339638 856877 -1.22399e+06 1.69546e+06
72 1 Mg -0.00505022 72.4184 4.60645 1.2 -8.5544 2.20094e+06 584184 2.82804e+06 -802649 41466.2 163361
73 2 Si 2.11303 74.2917 4.59848 2.4 -33.5259 6.29852e+06 1.00901e+07 8.82762e+06 -39439.7 170712 256870
74 3 O -1.07424 74.361 4.60267 -1.2 -9.4303 -2.26623e+06 -3.3976e+06 -3.9509e+06 333233 202609 -123634
75 3 O 1.07496 70.6053 4.6196 -1.2 -8.98384 -2.73269e+06 -4.05855e+06 -3.31084e+06 1.04554e+06 -48943 -10430.9
76 3 O 1.41488 73.6085 3.33141 -1.2 -8.96113 -3.16473e+06 -3.01537e+06 -2.86691e+06 280952 918524 -460128
77 1 Mg 0.00394061 75.2615 0.113918 1.2 -8.03689 -527656 3.84972e+06 127004 990472 1.59224e+06 -1.66273e+06
78 3 O 1.44746 73.6271 5.88602 -1.2 -8.93263 -3.29817e+06 -3.15178e+06 -2.94833e+06 196900 -759406 361283
79 1 Mg 0.0887486 78.1165 1.62106 1.2 -8.50226 2.0345e+06 573857 2.97163e+06 -857178 46793.4 136232
80 2 Si -2.01106 76.2675 1.60086 2.4 -33.534 6.07263e+06 9.98895e+06 8.61858e+06 -131159 70211.8 77788.7
81 3 O 1.17752 76.1918 1.60172 -1.2 -9.43087 -2.37115e+06 -3.49364e+06 -3.82009e+06 359530 112465 -18732.2
82 3 O -0.974722 79.9343 1.61307 -1.2 -9.02733 -2.75207e+06 -4.32322e+06 -3.59793e+06 1.03885e+06 144894 -187321
83 3 O -1.34671 76.9291 0.3134 -1.2 -8.93419 -3.24415e+06 -3.37363e+06 -2.83148e+06 110674 -652206 467626
84 3 O -1.31633 76.9411 2.86699 -1.2 -9.03038 -3.19391e+06 -3.43809e+06 -3.0417e+06 241545 876506 -701647
85 1 Mg -2.36333 80.4183 0.114983 1.2 -8.00249 -432829 3.8582e+06 192051 -824349 -1.23714e+06 -1.55476e+06
86 1 Mg 2.32004 83.2699 1.63295 1.2 -8.50146 2.03646e+06 527717 2.94057e+06 770602 -4621.52 61530.4
87 2 Si -0.303299 81.4229 1.60292 2.4 -33.5543 6.0665e+06 9.96244e+06 8.93426e+06 -2978.65 2092.1 69215.2
88 3 O 1.25401 81.3406 1.61272 -1.2 -9.43726 -2.49573e+06 -3.46149e+06 -4.0718e+06 -476607 39115.5 21326.1
89 3 O -1.35256 85.0701 1.63368 -1.2 -9.03273 -2.4926e+06 -4.04296e+06 -3.24186e+06 -1.21275e+06 42462.3 -26270.2
90 3 O -0.993648 82.0807 0.326175 -1.2 -8.9424 -3.26556e+06 -3.44136e+06 -2.79317e+06 -145630 893196 543789
91 1 Mg -2.36846 90.7044 3.08087 1.2 -7.98144 -661180 3.8096e+06 59732.8 -1.00808e+06 1.57074e+06 1.65254e+06
92 3 O -0.986951 82.0814 2.89041 -1.2 -8.96312 -3.16876e+06 -3.39488e+06 -2.68059e+06 -208745 -755269 -588692
93 1 Mg -2.27102 87.8745 4.62001 1.2 -8.54012 2.04681e+06 499779 2.89965e+06 837406 -23025.9 45611.6
94 2 Si 0.364053 89.7062 4.58163 2.4 -33.5452 6.12642e+06 1.02076e+07 8.55622e+06 55954.9 138741 128389
95 3 O -1.19388 89.7992 4.5913 -1.2 -9.41516 -2.36907e+06 -3.59115e+06 -3.84206e+06 -545470 49053.2 -69047.1
96 3 O 1.4068 86.0685 4.61593 -1.2 -9.02482 -2.72079e+06 -4.00446e+06 -3.38215e+06 -973728 -32299.4 -30845.2
97 3 O 1.04124 89.0461 3.30324 -1.2 -8.98349 -3.25132e+06 -3.54704e+06 -2.6856e+06 -162326 -683478 -597097
98 3 O 1.05588 89.048 5.86061 -1.2 -8.97143 -3.26153e+06 -3.50715e+06 -2.84391e+06 -207428 868319 534866
99 1 Mg 0.0298842 85.5651 3.14257 1.2 -7.96661 -598065 3.90474e+06 232620 840624 -1.25074e+06 1.72516e+06
100 1 Mg -0.0227516 82.7206 4.59666 1.2 -8.49652 2.09639e+06 493969 2.88824e+06 -891082 46283.8 183283
101 2 Si 2.07646 84.5685 4.62445 2.4 -33.4564 5.70722e+06 1.04171e+07 8.54519e+06 -119969 -83091.5 90575.7
102 3 O -1.12133 84.6564 4.62993 -1.2 -9.47993 -2.50295e+06 -3.64125e+06 -3.85836e+06 414263 34227.3 -4993.13
103 3 O 1.06527 80.9189 4.5982 -1.2 -9.00048 -2.60958e+06 -4.00351e+06 -3.41821e+06 1.07324e+06 -67374.3 38547.1
104 3 O 1.385 83.8924 3.36234 -1.2 -9.05783 -3.1107e+06 -3.46349e+06 -2.89839e+06 180011 728981 -598626
105 1 Mg -0.0114732 85.5531 0.134307 1.2 -7.95626 -638101 3.844e+06 259494 913673 1.45452e+06 -1.56759e+06
106 3 O 1.39886 83.915 5.91547 -1.2 -8.97687 -3.13474e+06 -3.44988e+06 -2.71601e+06 167882 -675655 410822
107 1 Mg 0.0841503 88.416 1.58431 1.2 -8.4811 2.00413e+06 629008 2.89977e+06 -777342 62484.3 106624
108 2 Si -2.04363 86.5701 1.63397 2.4 -33.4861 6.06951e+06 1.01786e+07 8.79207e+06 -213715 34127.6 225612
109 3 O 1.157 86.4847 1.63867 -1.2 -9.47775 -2.65869e+06 -3.39646e+06 -3.85314e+06 357885 117430 -240913
110 3 O -1.01046 90.224 1.60256 -1.2 -9.07734 -2.70396e+06 -4.14665e+06 -3.42781e+06 1.0287e+06 75159 52384.6
111 3 O -1.35842 87.2178 0.339331 -1.2 -9.01917 -2.97961e+06 -3.22608e+06 -2.73036e+06 231425 -850429 456855
112 3 O -1.34261 87.2415 2.89578 -1.2 -8.94313 -3.2665e+06 -3.33656e+06 -2.80437e+06 234008 891663 -674224
113 1 Mg -2.37194 90.6921 0.102798 1.2 -7.91931 -640608 3.82369e+06 328317 -896771 -1.35141e+06 -1.63663e+06
114 1 Mg 2.31371 93.5672 1.60898 1.2 -8.44806 1.96495e+06 463325 2.97398e+06 840296 36583.1 -77229.8
115 2 Si -0.33266 91.7183 1.59761 2.4 -33.4361 5.98626e+06 9.99298e+06 8.82204e+06 92756.8 939.217 -176657
116 3 O 1.21918 91.6249 1.6069 -1.2 -9.463 -2.44463e+06 -3.46348e+06 -3.94911e+06 -460831 -44909.9 114053
117 3 O -1.36446 95.3622 1.60405 -1.2 -9.14991 -2.42422e+06 -3.93017e+06 -3.29853e+06 -1.04737e+06 -37503.7 10284.8
118 3 O -1.0193 92.3736 0.314225 -1.2 -9.0232 -3.12873e+06 -3.2815e+06 -2.76956e+06 -219749 824589 697582
119 1 Mg -2.35505 101.01 3.06978 1.2 -7.95483 -509424 3.87974e+06 230858 -887346 1.29509e+06 1.59969e+06
120 3 O -1.02376 92.3852 2.8731 -1.2 -9.01003 -3.18508e+06 -3.35427e+06 -2.75363e+06 -203716 -759441 -540704
121 1 Mg -2.29525 98.1533 4.58849 1.2 -8.50035 1.95406e+06 474539 2.8512e+06 786108 -12113.4 -22226.3
122 2 Si 0.33989 99.9945 4.56001 2.4 -33.4891 6.11368e+06 1.01428e+07 8.83571e+06 110081 -37470 -45576.7
123 3 O -1.21782 100.077 4.56472 -1.2 -9.46646 -2.42191e+06 -3.5695e+06 -3.97405e+06 -494826 -1130.84 -104034
124 3 O 1.38018 96.3577 4.57615 -1.2 -9.11464 -2.6086e+06 -4.09463e+06 -3.28299e+06 -1.11213e+06 9386.9 -6257.37
125 3 O 1.03368 99.3307 3.28472 -1.2 -8.99751 -3.15816e+06 -3.40049e+06 -2.83358e+06 -164723 -953380 -537208
126 3 O 1.03451 99.3381 5.84285 -1.2 -8.9687 -3.22668e+06 -3.53581e+06 -2.73143e+06 -214542 909972 552428
127 1 Mg 0.0132693 95.86 3.08315 1.2 -7.87319 -754623 3.92118e+06 261269 923624 -1.444e+06 1.65059e+06
128 1 Mg -0.0518917 93.0115 4.57992 1.2 -8.50005 2.03687e+06 555435 2.91149e+06 -856926 8027.97 113304
129 2 Si 2.05415 94.8565 4.5898 2.4 -33.3752 5.9691e+06 1.04029e+07 8.50342e+06 -110966 105569 66528.7
130 3 O -1.13755 94.9381 4.60131 -1.2 -9.49238 -2.19901e+06 -3.59769e+06 -3.84316e+06 405011 54057 -25472.3
131 3 O 1.02403 91.2046 4.58388 -1.2 -9.01876 -2.76688e+06 -4.14488e+06 -3.39124e+06 908642 73203.9 9721.51
132 3 O 1.35971 94.1809 3.32213 -1.2 -9.07773 -3.04083e+06 -3.36139e+06 -2.83358e+06 283564 835018 -567058
133 1 Mg -0.0092292 95.8586 0.0870649 1.2 -7.91178 -688684 3.83567e+06 196770 934982 1.34823e+06 -1.68238e+06
134 3 O 1.37798 94.2011 5.87495 -1.2 -8.99249 -3.31167e+06 -3.33064e+06 -2.6737e+06 129387 -702824 427352
135 1 Mg 0.0880771 98.6922 1.5859 1.2 -8.43864 1.86915e+06 474726 3.08161e+06 -770597 -95750.6 14793.7
136 2 Si -2.03753 96.8663 1.59931 2.4 -33.273 5.69717e+06 1.02263e+07 8.94725e+06 -138238 116900 125425
137 3 O 1.1581 96.7822 1.58398 -1.2 -9.56359 -2.22114e+06 -3.49623e+06 -4.00621e+06 439796 118457 -52849.8
138 3 O -0.965749 100.51 1.57433 -1.2 -9.08882 -2.64328e+06 -4.23235e+06 -3.39475e+06 976460 -74330.3 795.014
139 3 O -1.35184 97.5192 0.310177 -1.2 -9.07432 -3.23019e+06 -3.32745e+06 -2.76157e+06 256027 -901211 486090
140 3 O -1.34402 97.5302 2.87489 -1.2 -9.07619 -2.99186e+06 -3.38466e+06 -2.70383e+06 235515 854036 -562837
141 1 Mg -2.33339 100.981 0.0769536 1.2 -7.93608 -594476 3.7558e+06 259610 -959833 -1.48402e+06 -1.5586e+06
142 1 Mg 7.07424 103.847 1.56082 1.2 -8.4993 2.00607e+06 466634 3.06154e+06 736172 8787.47 30640.3
143 2 Si -0.309161 102.004 1.56054 2.4 -33.4982 6.08804e+06 9.96448e+06 8.68496e+06 -19137.7 -31301.4 100499
144 3 O 1.25428 101.929 1.5733 -1.2 -9.44961 -2.2367e+06 -3.36951e+06 -3.91612e+06 -539757 -25762.9 -82214.9
145 3 O 3.38556 105.642 1.53896 -1.2 -9.05697 -2.66017e+06 -4.32793e+06 -3.53556e+06 -1.08329e+06 34095 -75287.2
146 3 O -0.990293 102.654 0.280094 -1.2 -8.99881 -3.10842e+06 -3.34633e+06 -2.98832e+06 -141999 765335 428669
147 1 Mg 2.36993 111.275 3.00429 1.2 -7.9487 -774173 3.86196e+06 86601.9 -934877 1.47872e+06 1.70126e+06
148 3 O -0.999698 102.676 2.83053 -1.2 -8.98321 -3.25813e+06 -3.40779e+06 -2.85424e+06 -181320 -825165 -662354
149 1 Mg 2.43917 108.447 4.54683 1.2 -8.51381 2.084e+06 633816 2.94642e+06 797572 -43976.5 185694
150 2 Si 5.07621 110.306 4.51223 2.4 -33.473 6.24106e+06 1.01319e+07 8.59643e+06 78181.1 -37499.5 36646.4
151 3 O 3.51561 110.384 4.52153 -1.2 -9.44187 -2.25895e+06 -3.51228e+06 -3.83345e+06 -340522 -55371.7 -42638.7
152 3 O 6.12157 106.638 4.53753 -1.2 -8.99066 -2.70015e+06 -4.2855e+06 -3.36705e+06 -1.01383e+06 102762 37555.1
153 3 O 5.763 109.627 3.24492 -1.2 -9.01537 -3.1117e+06 -3.51508e+06 -2.82181e+06 -258731 -834300 -581593
154 3 O 5.75775 109.655 5.80516 -1.2 -8.98186 -3.21867e+06 -3.33226e+06 -2.62861e+06 -239534 812374 501954
155 1 Mg 4.75214 106.131 3.0339 1.2 -7.98798 -461361 3.8528e+06 172953 943437 -1.42751e+06 1.60811e+06
156 1 Mg -0.0637521 103.294 4.5583 1.2 -8.50886 2.06728e+06 584611 2.85757e+06 -837516 23709.1 15326.8
157 2 Si 6.78879 105.145 4.55308 2.4 -33.5851 6.11939e+06 1.01106e+07 8.37226e+06 -163382 -115594 -77497.5
158 3 O 3.59838 105.224 4.54965 -1.2 -9.41365 -2.50737e+06 -3.52353e+06 -3.72889e+06 440831 -124104 34814
159 3 O 1.00906 101.488 4.55816 -1.2 -9.03338 -2.61258e+06 -4.21833e+06 -3.46155e+06 1.04026e+06 -20263.2 10830.7
160 3 O 6.11396 104.481 3.27701 -1.2 -8.96819 -3.24995e+06 -3.58777e+06 -2.84665e+06 118420 698857 -760277
161 1 Mg 4.76212 106.133 0.0534281 1.2 -7.98549 -692019 3.80803e+06 81988.5 864061 1.27696e+06 -1.64916e+06
162 3 O 6.10207 104.491 5.8283 -1.2 -8.97363 -3.11402e+06 -3.44655e+06 -3.03609e+06 182299 -736523 663387
163 1 Mg 4.83608 108.981 1.53525 1.2 -8.50952 2.03732e+06 516150 2.93884e+06 -793581 -1814.92 -80074.8
164 2 Si 2.71417 107.136 1.54679 2.4 -33.5184 5.98507e+06 1.00595e+07 8.84636e+06 -28234.5 -143286 -31264
165 3 O 5.90849 107.064 1.54792 -1.2 -9.45616 -2.51054e+06 -3.4477e+06 -4.00907e+06 455716 -169526 -67262.4
166 3 O 3.73729 110.786 1.53257 -1.2 -9.08774 -2.83115e+06 -4.24484e+06 -3.52946e+06 913606 45073.4 -60582.5
167 3 O 3.4191 107.804 0.275847 -1.2 -8.97688 -3.06245e+06 -3.41917e+06 -2.70548e+06 206311 -797132 551360
168 3 O 3.38921 107.788 2.83369 -1.2 -8.94634 -3.25805e+06 -3.31844e+06 -2.77278e+06 96309.5 772596 -464178
169 1 Mg 2.37576 111.273 0.0369505 1.2 -7.94182 -632144 3.77984e+06 140561 -1.0372e+06 -1.53005e+06 -1.71617e+06
170 1 Mg 7.05497 114.124 1.52368 1.2 -8.44657 2.06347e+06 650269 3.0082e+06 858341 21364.2 -54952.8
171 2 Si 4.40675 112.273 1.51964 2.4 -33.3903 5.73198e+06 1.02245e+07 8.62671e+06 17214.3 19832.5 82832.9
172 3 O 5.96376 112.183 1.52253 -1.2 -9.4933 -2.28552e+06 -3.6724e+06 -3.90751e+06 -394020 -23681.5 -35629.3
173 3 O 3.37127 115.944 1.50133 -1.2 -9.05858 -2.62863e+06 -4.1212e+06 -3.1704e+06 -1.01024e+06 37142.1 139026
174 3 O 3.73094 112.933 0.234376 -1.2 -9.05387 -3.02053e+06 -3.40228e+06 -2.77471e+06 -203042 697242 472536
175 1 Mg 2.34828 121.606 2.99985 1.2 -7.9417 -683726 3.91726e+06 57023.2 -896723 1.30396e+06 1.65451e+06
176 3 O 3.72379 112.955 2.79092 -1.2 -9.03769 -3.16909e+06 -3.3653e+06 -2.77134e+06 -262674 -727362 -486258
177 1 Mg 2.40604 118.746 4.48965 1.2 -8.49031 2.08053e+06 490291 2.88784e+06 770877 -18693.8 -40905.6
178 2 Si 5.04299 120.6 4.48374 2.4 -33.4779 5.82428e+06 1.03085e+07 8.36861e+06 88586.6 -166945 -23410.7
179 3 O 3.48455 120.676 4.49391 -1.2 -9.45128 -2.31027e+06 -3.58281e+06 -3.96405e+06 -423798 -144651 -5571.51
180 3 O 6.08655 116.956 4.49721 -1.2 -9.08674 -2.68162e+06 -4.03298e+06 -3.25346e+06 -989296 -68447.5 213317
181 3 O 5.73469 119.927 3.22439 -1.2 -9.00472 -3.27157e+06 -3.45619e+06 -2.97736e+06 -151035 -758611 -517958
182 3 O 5.71016 119.955 5.77158 -1.2 -9.02124 -3.31795e+06 -3.45894e+06 -2.99336e+06 -138777 656337 579180
183 1 Mg 4.73298 116.448 3.0087 1.2 -7.92257 -672452 3.97037e+06 149088 957018 -1.53997e+06 1.62402e+06
184 1 Mg 4.65785 113.589 4.50124 1.2 -8.48433 2.15694e+06 555647 2.7512e+06 -863852 -56332.9 -7211.27
185 2 Si 6.75205 115.456 4.49744 2.4 -33.4306 5.92146e+06 1.04273e+07 8.34557e+06 -122586 -62417.9 66228.3
186 3 O 3.56041 115.537 4.50598 -1.2 -9.46835 -2.25776e+06 -3.62477e+06 -3.70779e+06 378797 -26436.6 74691.1
187 3 O 5.7511 111.794 4.50414 -1.2 -9.054 -2.70799e+06 -4.30894e+06 -3.36301e+06 981349 -61686.9 153745
188 3 O 6.08026 114.771 3.2226 -1.2 -9.04548 -3.06387e+06 -3.15707e+06 -2.72343e+06 139007 632113 -271713
189 1 Mg 4.7458 116.431 0.0164979 1.2 -7.96573 -573632 3.92536e+06 211452 869237 1.29537e+06 -1.61247e+06
190 3 O 6.06844 114.797 5.77149 -1.2 -9.02355 -3.24738e+06 -3.45906e+06 -3.01048e+06 189460 -789606 612441
191 1 Mg 4.81689 119.29 1.49431 1.2 -8.5181 2.07682e+06 556249 2.84793e+06 -792208 7029.74 2735.57
192 2 Si 2.69684 117.442 1.50379 2.4 -33.493 5.92165e+06 1.04029e+07 8.43101e+06 -43957.1 -72186.7 -18764.5
193 3 O 5.89391 117.352 1.50791 -1.2 -9.47182 -2.58984e+06 -3.59091e+06 -3.73566e+06 452486 -170134 18692.6
194 3 O 3.73823 121.09 1.51074 -1.2 -9.03851 -2.6389e+06 -4.34578e+06 -3.42948e+06 1.06737e+06 -118327 184948
195 3 O 3.40569 118.1 0.236527 -1.2 -8.96937 -3.06498e+06 -3.62795e+06 -2.69935e+06 259613 -791022 652862
196 3 O 3.3695 118.11 2.78473 -1.2 -8.98046 -3.12699e+06 -3.34066e+06 -2.85043e+06 115220 742730 -454586
197 1 Mg 2.38446 121.576 0.0262869 1.2 -8.00864 -583941 3.98146e+06 -2450.46 -989025 -1.50374e+06 -1.71323e+06
198 1 Mg 7.04121 124.433 1.49747 1.2 -8.51213 1.99351e+06 498975 2.84016e+06 721212 -22510.3 -10076.4
199 2 Si 4.40964 122.584 1.51024 2.4 -33.4575 6.04809e+06 1.03625e+07 8.62256e+06 44701.1 11978.9 -103317
200 3 O 5.96778 122.505 1.50217 -1.2 -9.48022 -2.4002e+06 -3.61174e+06 -3.92915e+06 -455934 -103027 53371.1
201 3 O 3.34792 126.226 1.46625 -1.2 -9.08305 -2.73657e+06 -4.23386e+06 -3.45862e+06 -1.01742e+06 -9622.48 -66599
202 3 O 3.7249 123.236 0.218457 -1.2 -8.94703 -3.10314e+06 -3.58213e+06 -2.61917e+06 -227367 802110 600138
203 1 Mg 2.32957 131.871 2.97424 1.2 -8.0282 -462618 3.95069e+06 -15991.4 -814064 1.2366e+06 1.60316e+06
204 3 O 3.70325 123.255 2.7718 -1.2 -9.02183 -3.14245e+06 -3.52225e+06 -2.99463e+06 -260341 -994561 -490843
205 1 Mg 2.40195 129.025 4.4639 1.2 -8.53367 2.06995e+06 599233 2.81325e+06 770329 -29324.3 -15515.4
206 2 Si 5.02632 130.866 4.47035 2.4 -33.653 5.96067e+06 1.0306e+07 8.47707e+06 91770 -120174 -69760.3
207 3 O 3.47712 130.955 4.46114 -1.2 -9.40907 -2.8416e+06 -3.58311e+06 -3.8075e+06 -389610 -142636 80703.8
208 3 O 6.07132 127.226 4.47402 -1.2 -9.04895 -2.7176e+06 -4.69243e+06 -3.4036e+06 -1.06959e+06 -7514.46 57347
209 3 O 5.72912 130.193 3.20282 -1.2 -8.91705 -3.1936e+06 -3.61404e+06 -2.75748e+06 -197409 -844881 -587032
210 3 O 5.69409 130.217 5.75362 -1.2 -8.90524 -3.24241e+06 -3.50794e+06 -2.87767e+06 -45685 660542 655155
211 1 Mg 4.70761 126.729 2.96834 1.2 -7.94536 -689206 3.90142e+06 -30022.6 997149 -1.48432e+06 1.74328e+06
212 1 Mg 4.63741 123.905 4.48339 1.2 -8.50622 2.00614e+06 532965 2.8358e+06 -779463 -53298.6 -84688.1
213 2 Si 6.74743 125.746 4.4656 2.4 -33.4459 6.07286e+06 1.03921e+07 8.49651e+06 -61013.2 -26432.4 -121164
214 3 O 3.55927 125.825 4.45766 -1.2 -9.48892 -2.3341e+06 -3.76364e+06 -3.70363e+06 404497 -31069.8 73795.9
215 3 O 5.70436 122.104 4.4665 -1.2 -9.0649 -2.71652e+06 -4.17357e+06 -3.3868e+06 985603 -45878.4 35430.9
216 3 O 6.06345 125.085 3.17903 -1.2 -8.99785 -3.09812e+06 -3.5547e+06 -2.75721e+06 215203 884113 -478387
217 1 Mg 4.74545 126.717 -0.0112285 1.2 -7.95756 -606055 3.93556e+06 110953 924715 1.32175e+06 -1.70962e+06
218 3 O 6.05162 125.072 5.73861 -1.2 -8.99877 -3.06102e+06 -3.68324e+06 -2.58961e+06 375468 -907370 675849
219 1 Mg 4.8031 129.554 1.47509 1.2 -8.50229 2.05532e+06 576211 2.93989e+06 -858905 -481.022 36321.8
220 2 Si 2.69053 127.725 1.46913 2.4 -33.4131 5.90262e+06 1.04696e+07 8.54336e+06 -88690.1 -125153 130186
221 3 O 5.87446 127.652 1.4776 -1.2 -9.48426 -2.02434e+06 -3.76718e+06 -3.85364e+06 442331 -110408 -33157.2
222 3 O 3.72805 131.375 1.47706 -1.2 -9.01568 -2.65364e+06 -4.06809e+06 -3.25885e+06 984695 -71446.8 -106193
223 3 O 3.37551 128.387 0.193626 -1.2 -9.03879 -3.13118e+06 -3.53708e+06 -2.67838e+06 249235 -770069 495608
224 3 O 3.35936 128.385 2.7588 -1.2 -9.02289 -3.29892e+06 -3.48909e+06 -2.49682e+06 171829 689209 -459746
225 1 Mg 2.37292 131.862 -0.0124068 1.2 -7.95185 -616978 3.95603e+06 91431.5 -987630 -1.5709e+06 -1.58824e+06
226 1 Mg 7.03911 134.72 1.47444 1.2 -8.54473 2.136e+06 745593 2.76729e+06 809201 -55324.9 -32481.3
227 2 Si 4.40045 132.871 1.47473 2.4 -33.538 5.95379e+06 1.05874e+07 8.33177e+06 85521.8 -44415.1 -177087
228 3 O 5.95333 132.791 1.47977 -1.2 -9.44706 -2.56755e+06 -3.66753e+06 -3.7453e+06 -418589 -95112.8 18641.2
229 3 O 3.36095 136.534 1.46679 -1.2 -8.92847 -2.95361e+06 -4.56888e+06 -3.34998e+06 -966988 -45030.7 -138069
230 3 O 3.7269 133.542 0.189132 -1.2 -8.99958 -3.02725e+06 -3.38808e+06 -2.5732e+06 -163224 711756 481713
231 1 Mg 2.3532 142.148 2.92764 1.2 -8.08519 -405104 3.9472e+06 216663 -843095 1.21228e+06 1.7235e+06
232 3 O 3.70163 133.537 2.74019 -1.2 -8.95684 -3.21584e+06 -3.59504e+06 -2.74364e+06 -168050 -803886 -465478
233 1 Mg 2.37716 139.314 4.43763 1.2 -8.55747 2.17107e+06 583608 2.88577e+06 724689 -12244.5 -5721.72
234 2 Si 5.01969 141.162 4.42597 2.4 -33.7131 6.19055e+06 1.07178e+07 8.38728e+06 275286 -164455 -110038
235 3 O 3.46914 141.254 4.43859 -1.2 -9.37847 -2.83919e+06 -3.83096e+06 -3.62416e+06 -275030 -174672 45961.2
236 3 O 6.05771 137.529 4.46831 -1.2 -9.01483 -2.92885e+06 -4.47341e+06 -3.33593e+06 -992758 -15324 63697
237 3 O 5.71851 140.497 3.15685 -1.2 -8.92633 -3.09867e+06 -3.66689e+06 -2.66481e+06 -260095 -851727 -612663
238 3 O 5.69291 140.501 5.71624 -1.2 -8.87785 -3.32036e+06 -3.57489e+06 -2.4696e+06 -159659 760463 629515
239 1 Mg 4.71143 137.028 2.96374 1.2 -8.0577 -493290 3.88197e+06 -8506.53 962443 -1.59925e+06 1.60053e+06
240 1 Mg 4.62563 134.182 4.4607 1.2 -8.52272 2.20245e+06 845081 2.79928e+06 -882556 -6189.9 -75180.6
241 2 Si 6.73024 136.04 4.45618 2.4 -33.6162 6.16868e+06 1.02382e+07 8.35318e+06 -63834.1 -109057 -180378
242 3 O 3.54166 136.121 4.45429 -1.2 -9.37179 -2.35189e+06 -3.57782e+06 -3.78673e+06 321859 -32260.9 153392
243 3 O 5.71044 132.358 4.4504 -1.2 -8.9671 -2.74379e+06 -4.28248e+06 -3.38475e+06 1.02294e+06 7500.46 26486.2
244 3 O 6.0672 135.376 3.17498 -1.2 -8.95638 -3.30018e+06 -3.45901e+06 -2.73124e+06 125306 579765 -406938
245 1 Mg 4.75183 137.009 -0.0407723 1.2 -8.03395 -440993 3.78738e+06 252715 851541 1.20199e+06 -1.73235e+06
246 3 O 6.05069 135.37 5.73028 -1.2 -8.93173 -3.31423e+06 -3.57586e+06 -2.789e+06 138496 -823639 710974
247 1 Mg 4.79863 139.868 1.42339 1.2 -8.5636 2.17006e+06 664969 2.68021e+06 -753461 32103.2 -23327.1
248 2 Si 2.68382 138.017 1.44725 2.4 -33.7061 6.13727e+06 1.02976e+07 8.32768e+06 -55644.7 -220.86 -86457.7
249 3 O 5.88269 137.927 1.4546 -1.2 -9.36941 -2.88026e+06 -3.72827e+06 -3.62145e+06 419997 -163337 -11968.5
250 3 O 3.72443 141.663 1.42367 -1.2 -8.98768 -2.86952e+06 -4.25652e+06 -3.28158e+06 1.06017e+06 -88149.7 -7504.7
251 3 O 3.38697 138.685 0.183344 -1.2 -8.94604 -3.17768e+06 -3.59263e+06 -3.01279e+06 270400 -935482 622522
252 3 O 3.35445 138.678 2.73656 -1.2 -8.86817 -3.2184e+06 -3.7024e+06 -2.59416e+06 168463 677909 -600391
253 1 Mg 2.37172 142.164 -0.0673792 1.2 -8.03604 -566600 3.82851e+06 25620.6 -964203 -1.54083e+06 -1.70228e+06
254 1 Mg 7.03778 144.985 1.43992 1.2 -8.59587 2.15628e+06 419767 3.16028e+06 747694 15928.2 -188275
255 2 Si 4.3989 143.158 1.4277 2.4 -33.6136 6.18244e+06 1.0289e+07 8.5804e+06 47117.8 -150316 91874.8
256 3 O 5.95138 143.079 1.43122 -1.2 -9.39242 -2.56936e+06 -3.55623e+06 -3.85876e+06 -440540 -147818 -71353.6
257 3 O 3.3725 146.788 1.437 -1.2 -9.06419 -3.46287e+06 -4.30022e+06 -3.35293e+06 -892048 -265792 332000
258 3 O 3.72326 143.823 0.153974 -1.2 -8.9538 -3.21149e+06 -3.60167e+06 -2.95091e+06 -130912 681579 654306
259 1 Mg 1.58746 152.09 1.925 1.2 -7.66913 -940430 -1.55997e+06 2.32693e+06 346201 -282588 151281
260 3 O 3.69262 143.824 2.70612 -1.2 -8.87699 -3.37981e+06 -3.31378e+06 -2.74793e+06 -193413 -883242 -386619
261 1 Mg 1.78013 149.941 4.89409 1.2 -8.53311 -501428 4.5014e+06 479248 -72015.4 455902 976532
262 2 Si 3.87753 150.538 3.09887 2.4 -34.009 8.68831e+06 7.64227e+06 6.42085e+06 -905839 -180891 -138600
263 3 O 2.50837 151.248 3.38905 -1.2 -8.29106 -5.69054e+06 -1.88127e+06 -5.68866e+06 127493 1.0973e+06 -1.53272e+06
264 3 O 6.03999 147.821 4.37849 -1.2 -8.84241 -3.23624e+06 -4.4655e+06 -2.75291e+06 -993718 -432374 48529.2
265 3 O 4.56916 151.314 1.92302 -1.2 -8.90597 -6.09093e+06 -855971 -5.63507e+06 699886 274901 -1185.47
266 3 O 4.72202 150.487 4.38144 -1.2 -8.55738 -6.81823e+06 -4.82431e+06 -3.94716e+06 -1.12938e+06 220788 750976
267 1 Mg 4.72881 147.251 2.88786 1.2 -8.03508 -765811 3.51361e+06 189336 1.27361e+06 -1.89036e+06 1.38131e+06
268 1 Mg 4.62237 144.475 4.41534 1.2 -8.66905 2.57511e+06 745444 2.72352e+06 -811817 -53578.7 -60833.3
269 2 Si 6.73717 146.347 4.41376 2.4 -33.8469 6.04146e+06 1.12888e+07 7.78465e+06 67725 -114315 -86677.4
270 3 O 3.53668 146.397 4.40711 -1.2 -9.30937 -2.95351e+06 -3.90444e+06 -3.48108e+06 254219 -183535 -194046
271 3 O 5.70774 142.657 4.42239 -1.2 -8.83176 -2.82846e+06 -4.06277e+06 -3.0863e+06 1.00568e+06 33049.8 56358.7
272 3 O 6.07002 145.644 3.14288 -1.2 -8.8406 -3.45025e+06 -3.72249e+06 -2.82013e+06 373980 584345 -339964
273 1 Mg 4.71188 147.34 -0.0978293 1.2 -8.06187 -632980 4.02557e+06 279270 747712 1.62194e+06 -1.66796e+06
274 3 O 6.04318 145.685 5.69203 -1.2 -8.83756 -3.28143e+06 -3.35537e+06 -2.71943e+06 310939 -636338 451128
275 1 Mg 4.06164 150.905 0.109375 1.2 -8.13408 2.19583e+06 1.11195e+06 -2.91323e+06 -528062 213783 -626831
276 2 Si 2.68648 148.25 1.3965 2.4 -33.4197 7.62772e+06 8.98558e+06 7.30805e+06 -259925 -595787 -776837
277 3 O 5.8869 148.179 1.41499 -1.2 -9.1368 -2.51637e+06 -3.9335e+06 -2.72147e+06 849502 468619 93370.9
278 3 O 2.18757 151.427 0.268615 -1.2 -6.81664 -1.70345e+06 174026 -3.18798e+06 456701 78377.4 750837