ITEM: TIMESTEP
81100
ITEM: NUMBER OF ATOMS
5600
ITEM: BOX BOUNDS xy xz yz pp pp pp
0.0000000000000000e+00 7.1234999999999999e+00 0.0000000000000000e+00
0.0000000000000000e+00 2.0198500000000001e+02 2.3744999999999998e+00
0.0000000000000000e+00 1.1958400000000000e+02 0.0000000000000000e+00
ITEM: ATOMS id type element xu yu zu q c_pe c_s[1] c_s[2] c_s[3] c_s[4] c_s[5] c_s[6]
1 1 Mg -1.78249 47.5852 -0.24953 1.2 -7.75793 -2.13647e+06 841487 1.91771e+06 82057.4 -142856 130635
2 1 Mg 2.80361 50.3814 2.5525 1.2 -7.73184 -370000 1.78947e+06 -398803 -86768.8 -569923 -80002.2
3 2 Si 0.707533 48.9946 0.753513 2.4 -32.921 8.03714e+06 1.08069e+07 4.0776e+06 -2.14184e+06 358654 1.57775e+06
4 3 O 1.61247 47.8501 1.17702 -1.2 -8.60564 -2.25238e+06 -4.31428e+06 -3.23204e+06 -743718 -2.21677e+06 1.6882e+06
5 3 O -1.67574 52.2676 2.21795 -1.2 -9.68171 -4.55786e+06 -9.63079e+06 -748725 334500 -331484 -446763
6 3 O -0.158185 48.4777 -0.444461 -1.2 -8.90507 -5.54969e+06 -5.0808e+06 -1.67516e+06 509026 -2.04777e+06 -352098
7 1 Mg -2.61829 57.9565 3.41784 1.2 -7.38839 -1.69972e+06 5.34589e+06 -2.64432e+06 -439875 979809 2.30743e+06
8 3 O -0.233913 49.8521 1.80582 -1.2 -9.11464 -2.1703e+06 -3.44802e+06 -2.59336e+06 -1.88408e+06 -213595 -693379
9 1 Mg -2.65282 55.4901 5.2332 1.2 -7.75053 1.98307e+06 409535 795844 1.66045e+06 197298 1.24742e+06
10 2 Si 0.062005 57.2665 5.03366 2.4 -31.9511 -623016 1.19689e+07 5.77297e+06 -919476 -666848 1.37301e+06
11 3 O -1.48987 57.2212 5.00085 -1.2 -10.3497 -2.59025e+06 -6.62244e+06 -3.22831e+06 1.0043e+06 458802 -1.4122e+06
12 3 O 1.04543 53.2526 5.22798 -1.2 -9.19606 -2.88478e+06 -1.48553e+06 -918060 -2.08072e+06 1.61704e+06 -962155
13 3 O 0.69396 56.3893 3.79964 -1.2 -9.27901 -1.7918e+06 -5.28615e+06 -1.23962e+06 -878542 187270 68526.9
14 3 O 0.732168 56.3832 6.27918 -1.2 -9.48548 -3.35053e+06 -5.07097e+06 -3.48941e+06 -1.37067e+06 1.65979e+06 -3.50973e+06
15 1 Mg -0.266218 52.7478 3.54874 1.2 -7.37149 -2.39506e+06 5.66922e+06 -241825 114313 -1.63464e+06 2.71496e+06
16 1 Mg 0.198566 49.1519 3.6609 1.2 -7.50622 540100 1.27083e+06 -2.205e+06 -526700 111869 -31257.3
17 2 Si 1.83614 51.6823 5.26719 2.4 -30.3955 7.27465e+06 1.43719e+07 4.82221e+06 -1.2512e+06 1.19327e+06 3.89609e+06
18 3 O -1.437 51.9352 5.09858 -1.2 -10.0813 -1.87455e+06 -7.01682e+06 -377909 1.6153e+06 -2.17338e+06 -1.24707e+06
19 3 O 3.01801 48.8714 3.81855 -1.2 -7.62056 -920448 -2.68282e+06 -1.72936e+06 -135559 7235.31 -446953
20 3 O 1.12839 50.7955 3.98177 -1.2 -9.45903 -2.67344e+06 -5.51737e+06 1.07722e+06 1.05922e+06 1.45405e+06 159416
21 1 Mg -0.132647 52.5024 0.404991 1.2 -7.21149 -2.78077e+06 4.89148e+06 -482697 360849 2.30585e+06 205557
22 3 O 0.813172 51.0372 6.52179 -1.2 -10.9086 -3.25266e+06 -1.03473e+07 -5.3225e+06 1.65542e+06 -3.60587e+06 2.25011e+06
23 1 Mg -0.260145 55.6703 2.09794 1.2 -7.73394 80631.6 2.5069e+06 3.69724e+06 -719217 -80707.7 708394
24 2 Si -2.27138 53.7054 2.21446 2.4 -32.1296 6.24673e+06 1.01163e+07 6.3032e+06 3.29066e+06 -1.25688e+06 3.34742e+06
25 3 O 0.902767 53.4335 2.04759 -1.2 -9.84871 -1.90219e+06 -3.54428e+06 -530909 2.79386e+06 -96846.4 -461904
26 3 O -1.31213 57.7504 1.92023 -1.2 -9.49191 -5.24465e+06 -8.5482e+06 -2.0823e+06 930746 -68407 -1.12014e+06
27 3 O -1.44041 54.4276 0.958771 -1.2 -9.0915 -451289 -4.08929e+06 -2.99449e+06 516015 -1.02284e+06 221024
28 3 O -1.59661 54.5712 3.38814 -1.2 -9.25571 -474749 -2.46798e+06 -3.00089e+06 156551 707606 -814744
29 1 Mg -2.64011 57.7094 0.388317 1.2 -7.83146 -122807 4.90742e+06 -930028 -676729 -642698 1.40786e+06
30 1 Mg 2.22268 61.039 1.83065 1.2 -8.37483 1.74263e+06 2.13725e+06 1.08704e+06 482654 441814 643414
31 2 Si -0.56518 59.0525 1.89045 2.4 -32.757 8.9415e+06 9.85437e+06 7.01348e+06 -2.05374e+06 1.09352e+06 3.97543e+06
32 3 O 1.05243 58.7617 1.96813 -1.2 -9.34314 -1.46713e+06 -3.88232e+06 -1.21944e+06 -884783 477886 -1.94017e+06
33 3 O -1.78395 62.908 1.73931 -1.2 -8.80642 -3.69798e+06 -4.19637e+06 -1.54095e+06 -1.22944e+06 1.44019e+06 344728
34 3 O -1.3066 59.7842 0.548084 -1.2 -9.20459 -1.02004e+06 -4.0119e+06 -636870 -2.06412e+06 2.89876e+06 -713532
35 1 Mg -2.59916 68.5971 3.23894 1.2 -7.87045 -1.9637e+06 2.0845e+06 -460462 -1.64924e+06 1.04037e+06 5.21658e+06
36 3 O -1.17637 59.8863 3.18733 -1.2 -9.04896 -2.81763e+06 -3.62533e+06 -34243.7 -242960 -1.36951e+06 -1.61225e+06
37 1 Mg -2.35286 65.7895 4.87435 1.2 -8.20847 1.07862e+06 86060.5 3.37725e+06 1.16735e+06 -561294 2.19901e+06
38 2 Si 0.316477 67.6141 4.613 2.4 -33.5671 6.32803e+06 9.26059e+06 9.222e+06 936978 2.57392e+06 6.71266e+06
39 3 O -1.23361 67.5519 4.57053 -1.2 -9.25905 -2.98785e+06 -2.9722e+06 -3.78933e+06 -934188 -506054 -2.98122e+06
40 3 O 1.27035 63.9975 4.94723 -1.2 -9.67161 162738 -5.6513e+06 -2.47047e+06 -656674 525921 -565779
41 3 O 1.01819 67.0576 3.31458 -1.2 -8.75314 -5.84106e+06 -3.90012e+06 -2.42364e+06 -181068 364478 -3.2374e+06
42 3 O 1.02511 67.1133 5.94215 -1.2 -8.51403 -908380 -6.56104e+06 -1.52017e+06 88814.8 1.08151e+06 864158
43 1 Mg -0.368332 63.4411 3.25886 1.2 -7.22211 -591348 5.65155e+06 -313992 657160 -384388 2.96638e+06
44 1 Mg -0.518383 60.4949 5.0133 1.2 -7.78941 1.04936e+06 1.21661e+06 2.64095e+06 266796 -259398 1.51787e+06
45 2 Si 1.89488 62.524 4.71505 2.4 -32.7993 2.29154e+06 1.14426e+07 5.64837e+06 -366128 -308931 5.01528e+06
46 3 O -1.29131 62.4806 4.75996 -1.2 -10.168 -3.74906e+06 -3.05812e+06 -3.56442e+06 -446671 -583155 -3.02896e+06
47 3 O 0.71387 58.5455 4.94244 -1.2 -9.8506 -2.01595e+06 -1.06613e+07 -2.65297e+06 -2.31975e+06 -278463 -1.49339e+06
48 3 O 1.35788 61.7576 3.46515 -1.2 -8.48206 -3.56262e+06 -2.22873e+06 -6.02523e+06 -592839 1.40168e+06 58908
49 1 Mg -0.109566 63.6157 0.228746 1.2 -8.32315 -797899 4.23846e+06 -1.84576e+06 772913 2.00353e+06 443128
50 3 O 1.19804 61.7541 5.86328 -1.2 -9.45661 -1.50861e+06 -4.19172e+06 -5.33532e+06 596609 33270.4 -883405
51 1 Mg -0.289066 66.4202 1.6281 1.2 -8.71099 3.59352e+06 -1.04948e+06 1.64797e+06 -742587 107047 2.13619e+06
52 2 Si -2.29351 64.4765 1.73011 2.4 -34.002 6.85291e+06 1.31469e+07 4.62181e+06 -370439 -340875 5.92902e+06
53 3 O 0.861519 64.4342 1.80181 -1.2 -9.03981 -1.94486e+06 -5.69102e+06 -2.2433e+06 1.27175e+06 -763320 -2.54309e+06
54 3 O -1.13131 68.224 1.67008 -1.2 -9.1403 -2.98013e+06 -4.41671e+06 -2.34692e+06 1.75225e+06 -166875 -2.02121e+06
55 3 O -1.5737 65.0842 0.535155 -1.2 -8.77416 -5.00387e+06 -4.72032e+06 -4.5946e+06 174413 -157841 -1.21841e+06
56 3 O -1.61252 65.2246 2.96859 -1.2 -8.78188 -4.16542e+06 -2.70914e+06 -2.74515e+06 933455 783699 -3.41971e+06
57 1 Mg -2.32191 69.0078 -0.0892239 1.2 -6.67203 -1.34954e+06 3.08614e+06 1.27517e+06 -1.28538e+06 -930495 -241325
58 1 Mg 2.10919 71.5483 1.7677 1.2 -6.6678 -714025 2.67165e+06 781073 508464 487812 107811
59 2 Si -0.426566 69.7036 1.75605 2.4 -31.3967 5.95306e+06 1.13084e+07 6.28204e+06 1.02415e+06 -672222 2.04504e+06
60 3 O 1.27568 69.5843 1.85456 -1.2 -9.97297 604338 -4.67583e+06 -2.14568e+06 606207 585872 -699600
61 3 O -1.28452 73.3623 1.72989 -1.2 -10.693 -1.03875e+06 -2.16956e+06 -643622 -2.00124e+06 266385 884656
62 3 O -1.09335 70.4188 0.53214 -1.2 -10.9648 -1.29141e+06 -6.77801e+06 -575724 -1.47578e+06 2.34172e+06 466027
63 1 Mg -2.6679 79.3816 3.00455 1.2 -8.06066 -953589 2.27945e+06 2.23491e+06 -563340 1.34256e+06 1.33682e+06
64 3 O -0.886967 70.1831 3.19391 -1.2 -9.65278 -2.09713e+06 -4.22953e+06 -1.37697e+06 273108 -1.30659e+06 -2.32603e+06
65 1 Mg -2.15563 76.7645 4.47971 1.2 -7.86796 2.29615e+06 1.65347e+06 1.88175e+06 -403201 176046 -981509
66 2 Si 0.0993984 78.6654 4.65649 2.4 -34.4043 6.61678e+06 1.04533e+07 6.07272e+06 -1.22944e+06 1.14367e+06 -3.254e+06
67 3 O -1.448 78.788 4.77602 -1.2 -9.1356 -5.72847e+06 -3.67761e+06 -2.68585e+06 478395 1.32779e+06 1.30486e+06
68 3 O 1.21086 74.5364 4.68116 -1.2 -9.52597 313333 -4.12409e+06 -2.32221e+06 -784387 160611 -21968.4
69 3 O 0.717271 78.0317 3.42248 -1.2 -8.929 -1.83953e+06 -5.11133e+06 -6.8713e+06 -776501 -1.19439e+06 -379311
70 3 O 0.887122 77.8939 5.86117 -1.2 -8.01526 -2.18469e+06 -3.60824e+06 -2.60833e+06 -1.09313e+06 1.2366e+06 1.99407e+06
71 1 Mg -0.00190302 73.7065 3.25188 1.2 -6.57781 -4.69118e+06 3.68032e+06 -1.62977e+06 2.6151e+06 -2.28652e+06 1.93733e+06
72 1 Mg -0.0167169 71.1412 4.679 1.2 -7.44812 811210 2.11416e+06 1.96271e+06 -1.59014e+06 -308839 1.55659e+06
73 2 Si 1.92689 73.0301 4.80375 2.4 -31.0573 1.10676e+06 1.40828e+07 6.91248e+06 -1.80399e+06 -498857 -466324
74 3 O -1.25971 73.0783 4.7435 -1.2 -10.6744 -661643 -4.64735e+06 -2.62587e+06 -418677 -657625 156244
75 3 O 0.990036 69.1397 4.87735 -1.2 -8.57224 -825088 -4.82688e+06 -3.96252e+06 1.88362e+06 -336427 438189
76 3 O 1.34729 72.3846 3.39692 -1.2 -10.5467 -1.70631e+06 -6.90762e+06 47922.4 1.46952e+06 296049 -57882
77 1 Mg 0.0243651 73.7723 0.174572 1.2 -6.54385 -3.26737e+06 3.98911e+06 -740282 1.14023e+06 1.43778e+06 91216.3
78 3 O 1.22542 72.4161 6.05538 -1.2 -9.58977 -1.87334e+06 -4.47516e+06 -96801.9 -52860.7 -89783.7 448400
79 1 Mg -0.11801 77.0937 1.62687 1.2 -7.76177 1.51608e+06 2.12511e+06 2.09868e+06 -871442 403240 -179999
80 2 Si -2.02372 74.8614 1.72918 2.4 -30.779 7.16747e+06 1.37608e+07 5.2125e+06 713659 -692785 1.97472e+06
81 3 O 1.06673 74.6974 1.73967 -1.2 -10.1466 2.85444e+06 -4.22876e+06 -1.69486e+06 -122985 -266280 -41649.6
82 3 O -1.19591 79.1491 1.59068 -1.2 -9.00936 -3.99249e+06 -3.27231e+06 -3.59508e+06 360151 -84238.6 146327
83 3 O -1.41071 75.6125 0.482186 -1.2 -10.2689 -704396 -2.72819e+06 -4.65576e+06 608784 -1.05369e+06 -491695
84 3 O -1.48362 75.9943 2.85076 -1.2 -9.59995 -1.76259e+06 1.89197e+06 -3.64569e+06 946325 983757 1.40722e+06
85 1 Mg -2.4399 79.7589 -0.0555823 1.2 -8.21092 -261684 1.35519e+06 1.13865e+06 -840065 -1.18403e+06 -2.17234e+06
86 1 Mg 2.1889 82.4129 1.55328 1.2 -8.50774 2.4346e+06 821414 4.50098e+06 1.10103e+06 288527 -1.67915e+06
87 2 Si -0.495137 80.5595 1.54965 2.4 -34.1425 5.76486e+06 7.68649e+06 1.12872e+07 -850501 -1.7892e+06 37559.3
88 3 O 1.07488 80.3922 1.42862 -1.2 -9.16147 -2.99078e+06 -2.78267e+06 -3.81519e+06 -43099.9 -716977 -6090.05
89 3 O -1.6768 84.6376 1.4765 -1.2 -8.00678 -3.43303e+06 -1.02803e+06 -5.16225e+06 -1.78478e+06 63355 -135319
90 3 O -1.05654 81.2796 0.238498 -1.2 -8.64276 -2.30968e+06 -3.33541e+06 -3.90034e+06 -175009 -147967 1.22302e+06
91 1 Mg -2.44814 90.6625 3.29113 1.2 -8.76198 2.57228e+06 3.16203e+06 -676770 -1.18864e+06 1.38342e+06 1.16856e+06
92 3 O -1.1046 81.37 2.81975 -1.2 -8.02207 -2.97702e+06 -2.39725e+06 -1.87351e+06 -622909 158561 -373178
93 1 Mg -2.21843 87.4764 4.39906 1.2 -9.23607 1.5445e+06 510758 1.76271e+06 1.26554e+06 -326363 -1.19841e+06
94 2 Si 0.287153 89.1027 4.40494 2.4 -34.3588 7.64949e+06 1.27338e+07 9.45621e+06 -2.41047e+06 -366750 -996636
95 3 O -1.27575 89.4219 4.49748 -1.2 -8.93452 -2.33995e+06 -3.95995e+06 -3.33075e+06 -3.74738e+06 -368929 467123
96 3 O 1.4539 85.3178 4.10148 -1.2 -7.79217 -3.50013e+06 -4.89537e+06 -3.74014e+06 -1.4641e+06 -576413 1.65526e+06
97 3 O 0.975936 88.5228 3.06923 -1.2 -7.84937 -4.09408e+06 -2.9338e+06 -88823.5 235837 -837543 1.99373e+06
98 3 O 1.03629 88.3537 5.5763 -1.2 -8.81027 -2.48456e+06 -2.9966e+06 -3.46944e+06 776045 932290 1.34968e+06
99 1 Mg 0.00327481 84.7611 2.68645 1.2 -8.49933 1.86731e+06 3.9389e+06 -680483 467334 33337.9 -380957
100 1 Mg 0.0847645 81.9625 4.66992 1.2 -9.34516 4.47063e+06 441565 3.73833e+06 -435564 435273 -1.29084e+06
101 2 Si 2.14742 83.8835 4.25899 2.4 -35.7727 8.29458e+06 1.05105e+07 8.236e+06 -521664 -1.03564e+06 -1.9292e+06
102 3 O -1.03745 83.8611 4.16873 -1.2 -8.36873 -4.97423e+06 -4.05796e+06 -3.37124e+06 455597 1.04195e+06 -46687.4
103 3 O 0.908595 80.0769 4.67217 -1.2 -8.03758 -4.29865e+06 -5.92724e+06 -2.65187e+06 1.77324e+06 306632 952884
104 3 O 1.34435 82.967 3.28785 -1.2 -7.96744 -7.05953e+06 -3.78381e+06 -3.75811e+06 571831 694201 -620688
105 1 Mg -0.293651 84.8209 0.179626 1.2 -8.59916 676157 3.80935e+06 -873202 725395 1.11861e+06 -489659
106 3 O 1.59844 83.3923 5.70582 -1.2 -7.70661 -4.03144e+06 -3.55201e+06 -5.97183e+06 477996 -1.9993e+06 179560
107 1 Mg -0.0782092 88.1145 1.24403 1.2 -9.49135 3.25094e+06 1.7819e+06 2.09565e+06 -69121.5 611123 781443
108 2 Si -2.34047 86.2881 1.41337 2.4 -35.5883 8.75382e+06 9.07849e+06 1.30645e+07 59719.8 -333263 -302511
109 3 O 0.924697 86.0627 1.34925 -1.2 -8.5703 -6.36551e+06 -1.1922e+06 -5.3767e+06 2.27969e+06 155762 -440108
110 3 O -1.00138 90.0087 1.38078 -1.2 -7.52505 -6.36001e+06 -9.07793e+06 -3.30828e+06 -339317 -616086 517398
111 3 O -1.57866 86.7897 0.0185972 -1.2 -7.57157 -3.55935e+06 -785800 -1.45917e+06 -623743 -1.44515e+06 -583372
112 3 O -1.51879 86.9561 2.61644 -1.2 -7.59734 -5.63401e+06 -3.00091e+06 -1.61927e+06 933545 2.11927e+06 820361
113 1 Mg -2.35028 90.2837 0.00181864 1.2 -8.91452 998554 4.09128e+06 -1.57018e+06 61565.6 -1.75963e+06 -759268
114 1 Mg 2.04044 93.2379 1.49047 1.2 -9.95519 4.51293e+06 356866 -231814 307379 -881213 290194
115 2 Si -0.334768 91.3687 1.40114 2.4 -37.295 9.2256e+06 9.53218e+06 7.81286e+06 -1.15396e+06 11676.5 -2.17969e+06
116 3 O 1.19842 91.2787 1.59724 -1.2 -7.79171 -7.10999e+06 -4.80646e+06 -1.76483e+06 112702 866928 820561
117 3 O -1.6817 94.9987 1.49839 -1.2 -7.90419 -7.13313e+06 -4.42263e+06 -2.83275e+06 -1.08458e+06 127967 -1.22174e+06
118 3 O -0.972765 92.0896 0.151478 -1.2 -6.64367 -6.33047e+06 -6.33332e+06 -3.45092e+06 -163116 1.5917e+06 1.62319e+06
119 1 Mg -2.27332 100.941 3.33271 1.2 -9.42644 3.21176e+06 4.46851e+06 -1.74271e+06 -711656 687461 1.73479e+06
120 3 O -0.949522 92.0167 2.76265 -1.2 -7.14134 -6.30483e+06 -5.6942e+06 -3.3445e+06 -372244 -2.15195e+06 -1.23961e+06
121 1 Mg -2.61936 97.8369 4.35704 1.2 -10.3018 4.99395e+06 -1.82773e+06 1.81739e+06 1.36264e+06 -852718 -1.26928e+06
122 2 Si 0.141157 99.8044 4.58983 2.4 -37.0242 8.94691e+06 1.25333e+07 8.81225e+06 -82685.5 -1.18108e+06 -3.60344e+06
123 3 O -1.39562 99.7559 4.63969 -1.2 -7.77109 -6.89039e+06 -5.33077e+06 -4.76321e+06 -280481 -1.03506e+06 2.41355e+06
124 3 O 1.27595 95.9997 4.21498 -1.2 -7.93264 -3.16071e+06 -4.81933e+06 -2.14922e+06 82152.2 193544 -54565.6
125 3 O 0.927289 99.0452 3.40837 -1.2 -6.63702 -6.37727e+06 -3.24103e+06 -3.389e+06 628202 -622527 1.77133e+06
126 3 O 0.763321 98.9349 5.84315 -1.2 -6.78656 -6.76618e+06 -1.40997e+06 -4.27201e+06 103692 469227 351692
127 1 Mg -0.229541 95.2756 2.8205 1.2 -9.02719 1.53144e+06 5.39022e+06 -1.93205e+06 1.74956e+06 -1.81767e+06 564465
128 1 Mg -0.346289 92.5326 4.53369 1.2 -9.61585 1.54498e+06 -834093 2.61431e+06 -461939 -250473 -280364
129 2 Si 1.72624 94.4584 4.44826 2.4 -35.4317 1.01443e+07 8.67946e+06 8.79971e+06 -44226.5 -1.39665e+06 -3.36258e+06
130 3 O -1.35158 94.4629 4.37409 -1.2 -8.20446 -2.02418e+06 -2.71904e+06 -5.38515e+06 1.16566e+06 -847938 99624.2
131 3 O 0.783541 90.7712 4.57969 -1.2 -8.09038 -5.00453e+06 -963996 -3.3844e+06 573942 73837.5 655447
132 3 O 1.11656 93.7754 3.25067 -1.2 -7.73253 -7.90264e+06 -6.11314e+06 -4.12269e+06 -1.79152e+06 -43689.6 -1.4726e+06
133 1 Mg -0.394733 95.5978 0.0797277 1.2 -9.61065 283933 6.19666e+06 -3.11059e+06 659714 1.81127e+06 -1.54298e+06
134 3 O 1.13425 93.8152 5.79534 -1.2 -7.88429 -5.0764e+06 -1.26933e+06 -2.78628e+06 -464205 -450126 -1.14628e+06
135 1 Mg -0.171725 98.6556 1.41374 1.2 -10.6524 5.77651e+06 2.0445e+06 2.07115e+06 -636004 984670 -303834
136 2 Si -2.23995 96.5522 1.45218 2.4 -36.5926 1.37894e+07 1.25958e+07 4.60851e+06 1.82883e+06 -714321 -2.51598e+06
137 3 O 0.870302 96.4579 1.31525 -1.2 -7.29813 -2.55867e+06 -4.70358e+06 -4.08319e+06 1.09062e+06 -497278 -726151
138 3 O -1.04089 100.531 1.68268 -1.2 -6.67159 -4.24898e+06 -3.73322e+06 -3.37966e+06 1.62665e+06 -302519 29127.6
139 3 O -1.57455 97.3351 0.110812 -1.2 -6.64829 -5.87617e+06 -1.72564e+06 -3.53363e+06 545618 -746758 -1.07205e+06
140 3 O -1.57671 97.3582 2.50703 -1.2 -6.98377 -6.95637e+06 -2.75062e+06 -5.67491e+06 -68963.7 270526 -393443
141 1 Mg -2.44609 101.12 0.236262 1.2 -10.133 3.6765e+06 4.49017e+06 -1.02998e+06 -942266 -610860 -1.29146e+06
142 1 Mg 6.86962 103.964 1.63501 1.2 -9.9777 3.48685e+06 2.767e+06 551507 516066 -495806 -504194
143 2 Si -0.428948 102.186 1.65468 2.4 -36.9659 1.23459e+07 1.2689e+07 3.44581e+06 933888 311396 -569191
144 3 O 1.15983 102.203 1.66315 -1.2 -7.44884 -4.78175e+06 -4.29719e+06 -2.58297e+06 -1.13815e+06 44615.5 224914
145 3 O 3.23319 105.858 1.46706 -1.2 -7.30327 -4.59986e+06 -6.27312e+06 -844599 -1.48994e+06 -1.26098e+06 -1.78959e+06
146 3 O -1.05729 102.712 0.356756 -1.2 -7.56824 -6.6801e+06 -6.26348e+06 -2.16088e+06 481613 376425 1.24035e+06
147 1 Mg 2.11327 111.908 3.15732 1.2 -8.44828 -348749 4.81102e+06 -2.78854e+06 -336337 1.74232e+06 757171
148 3 O -1.14004 102.623 2.92636 -1.2 -7.35461 -7.52845e+06 -5.88022e+06 -2.97095e+06 574268 -1.06562e+06 -1.44858e+06
149 1 Mg 2.54731 108.494 4.7532 1.2 -9.4886 3.1557e+06 3.12968e+06 -340516 569910 401231 515364
150 2 Si 4.99672 110.617 4.60521 2.4 -35.7029 9.94456e+06 1.26538e+07 4.51087e+06 -1.56661e+06 128387 2.45987e+06
151 3 O 3.49088 110.701 4.77013 -1.2 -8.0102 -6.02184e+06 -2.15468e+06 -1.00117e+06 -1.57196e+06 -150628 -452703
152 3 O 6.10507 106.809 4.72027 -1.2 -7.89009 -5.62962e+06 -5.53901e+06 -3.23729e+06 -545717 1.31127e+06 929406
153 3 O 5.6403 109.741 3.43579 -1.2 -7.98147 -3.70492e+06 -2.69355e+06 733661 -385469 -449572 -258113
154 3 O 5.72461 110.267 5.9662 -1.2 -7.78539 -6.22513e+06 -5.13682e+06 -1.16118e+06 759628 543319 875702
155 1 Mg 4.58005 106.294 3.26724 1.2 -9.34036 1.90897e+06 5.16507e+06 -776971 1.3201e+06 -953914 1.10858e+06
156 1 Mg -0.0408505 103.27 4.57731 1.2 -9.66718 4.4321e+06 2.97447e+06 1.071e+06 -663875 -69225.2 -648431
157 2 Si 6.71968 105.345 4.83337 2.4 -35.2632 5.83432e+06 1.34381e+07 6.1866e+06 1.00647e+06 1.37453e+06 -635402
158 3 O 3.40875 105.325 4.78611 -1.2 -8.2027 -8.07917e+06 -5.71807e+06 -2.13502e+06 1.55597e+06 1.39921e+06 926117
159 3 O 0.687801 101.299 4.47639 -1.2 -7.63028 -4.18435e+06 -4.34125e+06 -2.65701e+06 675726 31824.8 -555700
160 3 O 5.79202 104.622 3.33292 -1.2 -7.30507 -2.91161e+06 -3.46102e+06 2.99249e+06 669201 1.46844e+06 135085
161 1 Mg 4.7147 106.51 -0.0790195 1.2 -9.14366 2.44244e+06 5.41638e+06 -892773 -306096 -189687 -1.71339e+06
162 3 O 6.05958 104.62 6.05027 -1.2 -8.08599 -3.42469e+06 -3.42181e+06 -885333 -397331 411599 994934
163 1 Mg 4.9926 109.312 1.52019 1.2 -9.18904 3.82695e+06 2.73939e+06 -217261 -709317 1.26926e+06 -166512
164 2 Si 2.51517 107.267 1.59862 2.4 -36.3759 1.19703e+07 1.36838e+07 5.89604e+06 59438.5 585359 -856127
165 3 O 5.66914 107.354 1.47373 -1.2 -8.07641 -5.44945e+06 -4.90475e+06 -762486 -488282 873754 427672
166 3 O 3.50306 111.431 1.6374 -1.2 -7.71708 -5.54064e+06 -6.76693e+06 -1.78754e+06 81145.6 -905491 376301
167 3 O 3.08778 108.148 0.382494 -1.2 -7.52733 -5.19697e+06 -5.00881e+06 538051 344235 -925132 2.05931e+06
168 3 O 3.16434 107.652 3.08912 -1.2 -7.29302 -5.87604e+06 -6.09076e+06 -216429 402806 3.41345e+06 -590086
169 1 Mg 2.12763 111.805 0.384773 1.2 -8.96732 194537 5.57338e+06 -4.75202e+06 -962911 -3.14801e+06 -2.46412e+06
170 1 Mg 6.65759 114.628 1.78765 1.2 -9.86884 4.27277e+06 930527 2.0798e+06 477836 -4412.22 352351
171 2 Si 4.18226 112.876 1.54418 2.4 -36.0543 8.08555e+06 1.3658e+07 6.8746e+06 -2.15082e+06 -917136 -1.48614e+06
172 3 O 5.70127 112.536 1.74881 -1.2 -8.35741 -7.60578e+06 -4.69412e+06 -4.77481e+06 -1.07719e+06 -191038 893749
173 3 O 2.99956 116.937 1.85446 -1.2 -6.20556 -5.80447e+06 -7.95622e+06 -4.51711e+06 -1.97554e+06 -771121 -269363
174 3 O 3.51233 113.557 0.294011 -1.2 -6.75537 -6.22857e+06 -5.56606e+06 -2.58926e+06 481678 1.17761e+06 319106
175 1 Mg 2.10447 122.323 2.8647 1.2 -8.71859 2.2219e+06 4.19598e+06 92147 -933114 1.57506e+06 1.42964e+06
176 3 O 3.38294 113.641 2.76335 -1.2 -7.72921 -2.1062e+06 -5.05277e+06 -2.59384e+06 -237909 -982155 -789402
177 1 Mg 2.31065 119.691 4.6259 1.2 -9.45347 3.77929e+06 503711 3.06188e+06 1.00835e+06 222010 1.35248e+06
178 2 Si 4.87586 121.389 4.57337 2.4 -35.81 7.75174e+06 7.12023e+06 1.1101e+07 1.65543e+06 -586100 3.85085e+06
179 3 O 3.34406 121.501 4.59316 -1.2 -8.45126 -6.49599e+06 -2.29325e+06 -3.63542e+06 1.29207e+06 79128 -756338
180 3 O 5.97895 117.561 4.54517 -1.2 -7.31065 -4.17128e+06 -4.6078e+06 -4.57793e+06 -1.83714e+06 1.18185e+06 -998218
181 3 O 5.41688 120.549 3.21904 -1.2 -7.33134 -5.34431e+06 -2.66966e+06 -366106 74302.4 -725777 -1.36834e+06
182 3 O 5.46465 120.846 5.878 -1.2 -7.47767 -6.13548e+06 -4.07545e+06 -4.99703e+06 -758948 609597 41728.9
183 1 Mg 4.2837 117.42 3.14568 1.2 -9.88507 1.58172e+06 3.15421e+06 -625007 -242103 -105227 336379
184 1 Mg 4.76195 114.064 4.43141 1.2 -9.53232 3.18298e+06 1.71691e+06 3.52519e+06 -933793 370035 -250002
185 2 Si 6.71533 116.112 4.59462 2.4 -37.1238 1.40872e+07 5.34578e+06 1.14554e+07 -960032 -266926 -2.26023e+06
186 3 O 3.52067 116.148 4.50579 -1.2 -7.35043 -6.83191e+06 -656355 -6.78684e+06 537419 798779 630747
187 3 O 5.59495 112.211 4.54149 -1.2 -8.30516 -4.0374e+06 -4.01866e+06 -2.84427e+06 1.19942e+06 1.54366e+06 1.5627e+06
188 3 O 5.87201 115.435 3.44336 -1.2 -7.06688 -8.12789e+06 -2.73379e+06 -4.22954e+06 802262 2.1038e+06 -903691
189 1 Mg 4.25746 117.37 0.0429964 1.2 -10.321 3.00323e+06 2.74939e+06 238593 1.34949e+06 282225 -1.51353e+06
190 3 O 6.11487 115.424 5.99663 -1.2 -6.68036 -7.17662e+06 -1.70918e+06 -1.98841e+06 -735594 -1.07694e+06 -25590.1
191 1 Mg 4.66932 120.085 1.38947 1.2 -10.3722 4.65794e+06 479893 1.7378e+06 510123 111975 260807
192 2 Si 2.17545 118.308 1.71382 2.4 -37.8467 1.35522e+07 7.81205e+06 7.99116e+06 -18916.8 -2.65045e+06 -1.48881e+06
193 3 O 5.34417 118.263 1.53411 -1.2 -7.33938 -7.71786e+06 -3.96697e+06 -3.97304e+06 55778.6 426563 -402436
194 3 O 3.50022 122.083 1.27877 -1.2 -6.91839 -4.74687e+06 -2.38285e+06 -975921 1.68552e+06 -644755 723447
195 3 O 2.95603 118.818 0.227846 -1.2 -6.00839 -6.32179e+06 -4.15416e+06 -1.54902e+06 995538 -3.01017e+06 196030
196 3 O 2.87637 119.031 2.76945 -1.2 -6.73846 -8.13209e+06 -8.2192e+06 -6.25062e+06 583822 1.36461e+06 -4.20552e+06
197 1 Mg 2.12305 122.544 -0.0447339 1.2 -9.85249 2.94441e+06 4.53462e+06 -835090 -615252 -1.92013e+06 -327119
198 1 Mg 6.77737 125.759 1.07307 1.2 -8.90889 2.8646e+06 2.61284e+06 1.89706e+06 958024 105941 746001
199 2 Si 4.12594 123.757 1.50709 2.4 -35.7161 1.18485e+07 1.17582e+07 4.09133e+06 -343865 2.31117e+06 3.70972e+06
200 3 O 5.70821 123.523 1.43914 -1.2 -7.93622 -4.10848e+06 -2.46039e+06 -1.33468e+06 -1.92383e+06 1.40607e+06 -2.53465e+06
201 3 O 3.47055 127.439 0.990771 -1.2 -8.70067 -3.81451e+06 -2.5256e+06 -1.88298e+06 676377 86181.6 -984036
202 3 O 3.2946 124.281 0.244345 -1.2 -7.77866 -2.93974e+06 -5.40686e+06 -1.18934e+06 -111020 257220 778250
203 1 Mg 2.46365 133.454 2.64191 1.2 -8.87579 -369564 5.32409e+06 509053 -1.28896e+06 1.32915e+06 1.77684e+06
204 3 O 3.6726 124.33 2.78297 -1.2 -8.07854 -5.46973e+06 -3.89705e+06 -4.02236e+06 891081 338556 -3.60023e+06
205 1 Mg 2.50477 130.314 4.0659 1.2 -10.1081 2.593e+06 -1.1926e+06 3.15604e+06 1.40451e+06 -99792.2 615786
206 2 Si 5.22532 132.231 4.32796 2.4 -35.5382 1.45788e+07 1.19299e+07 7.41867e+06 375158 -274971 592669
207 3 O 3.59064 132.29 4.19939 -1.2 -8.09215 -1.99806e+06 -2.72004e+06 -1.07769e+06 -308574 419784 -359043
208 3 O 6.19365 128.631 4.05039 -1.2 -8.37986 -2.93003e+06 -3.33513e+06 -3.80522e+06 -2.10084e+06 223396 -561525
209 3 O 5.94763 131.418 3.0716 -1.2 -7.49677 -5.42104e+06 -2.88875e+06 -1.76787e+06 -245857 -1.83609e+06 -126581
210 3 O 5.90204 131.602 5.61508 -1.2 -7.43957 -4.8748e+06 -3.87997e+06 -1.24998e+06 166766 1.53316e+06 -782892
211 1 Mg 4.89717 127.937 2.48037 1.2 -8.54352 501052 4.54897e+06 -2.50883e+06 2.56282e+06 -1.73944e+06 1.9367e+06
212 1 Mg 4.67732 124.905 4.34933 1.2 -9.09301 3.40021e+06 2.1754e+06 362993 -864646 -584760 621673
213 2 Si 6.83713 127.096 4.04552 2.4 -34.3878 8.55877e+06 1.49079e+07 7.36448e+06 246418 757409 1.98522e+06
214 3 O 3.66206 126.95 3.94479 -1.2 -8.60337 -2.57517e+06 -4.38088e+06 -3.49064e+06 -175635 1.25543e+06 -1.94382e+06
215 3 O 5.73801 122.764 4.38539 -1.2 -8.13591 -4.95438e+06 -4.88667e+06 -6.527e+06 1.2818e+06 -1.47984e+06 -403075
216 3 O 5.9732 126.372 2.76472 -1.2 -8.05474 -5.86143e+06 -3.80829e+06 -756278 2.00321e+06 1.89004e+06 145008
217 1 Mg 4.64239 127.845 -0.488344 1.2 -8.08605 1.23468e+06 5.42579e+06 -2.22781e+06 1.47807e+06 1.46481e+06 173711
218 3 O 6.25821 126.214 5.25943 -1.2 -8.23983 -4.77401e+06 -1.62205e+06 -2.58145e+06 15504.3 -1.36761e+06 -1.92243e+06
219 1 Mg 4.91265 130.927 1.33504 1.2 -9.59551 4.51945e+06 469891 2.74743e+06 -942208 -804499 -356527
220 2 Si 2.87379 129.031 0.965792 2.4 -35.0347 7.56534e+06 1.10922e+07 7.75887e+06 131757 1.37904e+06 1.78042e+06
221 3 O 6.10788 128.94 1.10296 -1.2 -8.2734 -4.16865e+06 -3.66896e+06 -4.31746e+06 957752 -1.20942e+06 -1.14717e+06
222 3 O 4.00101 132.789 1.05688 -1.2 -8.12254 -4.57833e+06 -2.24987e+06 -404237 80413.1 853943 79720.2
223 3 O 3.63496 129.865 -0.0536155 -1.2 -8.30711 -5.25867e+06 -968191 -3.92273e+06 -374695 402028 -97099.7
224 3 O 3.43923 129.666 2.40851 -1.2 -7.52492 -6.88002e+06 -1.69346e+06 -2.18762e+06 -104434 1.44674e+06 -166930
225 1 Mg 2.46762 133.481 -0.365082 1.2 -8.67204 -1.37897e+06 4.27128e+06 -1.76941e+06 -293975 -2.22379e+06 -969908
226 1 Mg 7.18876 136.339 1.11686 1.2 -9.39222 3.26171e+06 1.05368e+06 3.54679e+06 521424 -202424 677363
227 2 Si 4.57924 134.339 1.28527 2.4 -35.0768 7.69325e+06 1.22878e+07 8.56435e+06 -711859 355025 2.57901e+06
228 3 O 6.08087 134.302 1.12231 -1.2 -8.50204 -6.05526e+06 -4.47035e+06 -4.81293e+06 -831033 -472557 -1.61162e+06
229 3 O 3.51207 138.221 1.6168 -1.2 -7.60639 -7.48339e+06 -2.35891e+06 -2.79934e+06 -1.51743e+06 -1.21792e+06 1.28932e+06
230 3 O 3.90002 135.106 -0.0368996 -1.2 -8.14819 -5.09462e+06 -1.00696e+06 -1.66663e+06 738008 267496 155865
231 1 Mg 2.62865 143.787 2.67951 1.2 -8.44407 -876225 1.53642e+06 -3.56178e+06 1.22779e+06 -748053 1.89734e+06
232 3 O 3.81476 135.061 2.4985 -1.2 -7.84921 -5.04463e+06 -1.39225e+06 -1.32239e+06 -828972 -601851 -22172.5
233 1 Mg 2.16105 140.776 4.4461 1.2 -9.1333 3.82272e+06 930328 2.43538e+06 871638 -286946 -780318
234 2 Si 5.04734 142.682 4.17554 2.4 -34.2307 1.0069e+07 1.36043e+07 5.69744e+06 3.46491e+06 -1.65739e+06 -2.49795e+06
235 3 O 3.45372 142.805 4.03511 -1.2 -8.53835 -3.16382e+06 -8.16716e+06 -3.43213e+06 1.73673e+06 -1.74268e+06 -706888
236 3 O 6.18994 138.894 4.3566 -1.2 -7.93019 -6.14003e+06 -5.78751e+06 -3.25847e+06 -2.30921e+06 -548724 1.77891e+06
237 3 O 5.74993 141.96 2.97972 -1.2 -8.29253 -6.4624e+06 -5.78248e+06 -758043 -2.45749e+06 -858340 345243
238 3 O 5.54958 142.096 5.52654 -1.2 -8.50927 -4.72649e+06 -2.05839e+06 -2.79379e+06 -515727 -283030 -553.249
239 1 Mg 5.03179 138.394 2.78919 1.2 -9.1962 -472766 3.03953e+06 -2.20751e+06 276725 -1.7026e+06 1.13158e+06
240 1 Mg 4.81058 135.53 4.55069 1.2 -9.84435 4.26986e+06 463975 2.95801e+06 -1.3946e+06 84117.6 643561
241 2 Si 6.92462 137.425 4.26218 2.4 -36.3822 1.21215e+07 8.93924e+06 9.21552e+06 1.24645e+06 144053 1.36425e+06
242 3 O 3.71493 137.574 4.43142 -1.2 -7.75492 -5.92604e+06 -2.59399e+06 -4.34626e+06 1.03236e+06 649720 475929
243 3 O 5.95432 133.769 4.13396 -1.2 -7.87935 -3.31802e+06 -3.06535e+06 -1.04575e+06 1.89285e+06 -127592 -1.01448e+06
244 3 O 6.18422 136.722 2.93469 -1.2 -7.28844 -5.29389e+06 -3.33532e+06 -1.20496e+06 784735 1.72537e+06 851300
245 1 Mg 4.72098 138.57 -0.120484 1.2 -8.03866 605014 2.84935e+06 -23585.3 296253 -460973 -2.20995e+06
246 3 O 6.11945 136.799 5.45283 -1.2 -7.1491 -7.27241e+06 -4.74225e+06 -3.491e+06 -131556 -1.18479e+06 1.67603e+06
247 1 Mg 4.71985 141.875 1.31938 1.2 -8.22295 954448 1.01922e+06 1.75068e+06 328578 -1.50929e+06 -1.42688e+06
248 2 Si 2.77618 139.777 1.49663 2.4 -34.4799 1.05519e+07 1.0899e+07 9.16416e+06 396644 2.76595e+06 -1.51671e+06
249 3 O 6.02527 139.202 1.3775 -1.2 -8.42338 -5.22666e+06 -3.68759e+06 -2.25129e+06 2.44057e+06 1.3298e+06 2.25885e+06
250 3 O 4.02219 143.677 1.11585 -1.2 -8.88616 -7.27427e+06 -4.05427e+06 -1.22594e+06 333979 -263142 822111
251 3 O 3.50465 140.342 0.181592 -1.2 -9.03616 -2.84264e+06 -2.54506e+06 -914389 837205 -2.01585e+06 2.58631e+06
252 3 O 3.48746 140.462 2.80298 -1.2 -7.74278 -2.74619e+06 -5.29628e+06 601894 813441 1.24169e+06 -958123
253 1 Mg 2.52634 144.34 -0.398033 1.2 -7.56982 -26628.2 4.30693e+06 769822 -460599 -1.18432e+06 -1.95727e+06
254 1 Mg 7.39367 147.264 2.38387 1.2 -7.76116 2.28665e+06 2.06936e+06 2.21456e+06 1.46791e+06 -137428 -2.31621e+06
255 2 Si 4.66864 145.159 1.13125 2.4 -33.749 8.40745e+06 1.16213e+07 6.91838e+06 -2.65926e+06 2.17697e+06 -2.06593e+06
256 3 O 6.28431 144.628 1.32595 -1.2 -8.47244 -3.22453e+06 -2.98083e+06 -3.79364e+06 -1.41e+06 232561 996223
257 3 O 3.79604 149.168 2.17509 -1.2 -8.63482 -2.4344e+06 -5.17565e+06 -2.17452e+06 490580 -134315 -222354
258 3 O 4.14573 145.762 -0.21491 -1.2 -8.90887 -75448 -6.51351e+06 -2.47586e+06 1.10128e+06 1.72722e+06 1.45555e+06
259 1 Mg 2.09744 154.063 2.38944 1.2 -6.801 -3.43985e+06 793394 -2.77864e+06 1.03047e+06 -1.79718e+06 282936
260 3 O 4.14777 145.996 2.39934 -1.2 -9.1679 -2.06091e+06 -3.32001e+06 -368726 522018 -1.43932e+06 1.64756e+06
261 1 Mg 1.61849 153.747 5.41376 1.2 -7.08368 -988498 2.69919e+06 -523283 -873428 -1.27711e+06 654928
262 2 Si 4.09926 152.718 3.69983 2.4 -32.4903 5.9979e+06 7.74962e+06 8.17135e+06 978871 -2.97329e+06 -1.47392e+06
263 3 O 3.00797 153.835 3.92643 -1.2 -9.92534 -2.20682e+06 -2.46711e+06 -6.60797e+06 -589083 -1.34672e+06 806378
264 3 O 6.69992 149.721 5.12434 -1.2 -8.91643 -1.76589e+06 -4.19031e+06 -230912 -1.37422e+06 -168582 1.70622e+06
265 3 O 5.07523 153.333 2.49109 -1.2 -9.12784 -2.97325e+06 -3.58655e+06 -2.6756e+06 1.27093e+06 808221 558107
266 3 O 5.05799 152.41 4.84877 -1.2 -9.60395 -2.45681e+06 -1.76843e+06 -3.74927e+06 847898 1.31281e+06 102350
267 1 Mg 5.17523 149.755 3.68209 1.2 -7.73151 1.94434e+06 2.63e+06 2.52046e+06 1.7987e+06 -219150 -1.10202e+06
268 1 Mg 4.63255 146.284 4.41729 1.2 -8.43153 2.95841e+06 2.62949e+06 -732469 -337089 -472438 1.39448e+06
269 2 Si 7.39095 148.339 5.24497 2.4 -34.8965 8.18944e+06 7.97351e+06 7.06746e+06 221835 1.14221e+06 -908266