ITEM: TIMESTEP
9900
ITEM: NUMBER OF ATOMS
5600
ITEM: BOX BOUNDS xy xz yz pp pp pp
0.0000000000000000e+00 7.1234999999999999e+00 0.0000000000000000e+00
0.0000000000000000e+00 2.0198500000000001e+02 2.3744999999999998e+00
0.0000000000000000e+00 1.1958400000000000e+02 0.0000000000000000e+00
ITEM: ATOMS id type element xu yu zu q c_pe c_s[1] c_s[2] c_s[3] c_s[4] c_s[5] c_s[6]
1 1 Mg -1.40253 49.4894 -0.636381 1.2 -7.20189 -1.32966e+06 -774440 1.68838e+06 425239 676138 -1.01561e+06
2 1 Mg 3.21843 51.0606 2.43728 1.2 -7.33773 -4.37013e+06 3.96284e+06 92451.8 -127053 326485 -773667
3 2 Si 1.08279 51.2087 0.588939 2.4 -32.5834 7.08803e+06 8.29451e+06 5.94159e+06 -682725 120239 1.981e+06
4 3 O 2.39403 50.3276 0.770194 -1.2 -9.29827 -3.61191e+06 -3.68335e+06 -4.88054e+06 -133672 -476000 1.37209e+06
5 3 O -1.01808 53.9399 1.81594 -1.2 -8.79871 -3.17159e+06 -5.42295e+06 -2.72154e+06 -2.01097e+06 -181139 131775
6 3 O 0.271603 50.4597 -0.567524 -1.2 -9.28008 -5.47055e+06 -1.69459e+06 -3.2751e+06 936261 -264731 410672
7 1 Mg -2.1464 59.5929 3.19488 1.2 -8.01422 -411932 4.34373e+06 -374549 -1.42849e+06 1.70373e+06 1.89439e+06
8 3 O 0.3187 51.2526 1.95763 -1.2 -9.92541 -3.83293e+06 -3.64571e+06 -3.3191e+06 -168693 -635448 -621120
9 1 Mg -2.13019 56.7516 4.7393 1.2 -8.40086 1.8419e+06 1.70626e+06 1.81559e+06 995115 40254.5 270815
10 2 Si 0.554694 58.6582 4.71088 2.4 -33.7893 5.58489e+06 1.07036e+07 6.91605e+06 1.1203e+06 820980 382103
11 3 O -0.969135 58.7575 4.74921 -1.2 -9.14583 -3.47936e+06 -4.76776e+06 -3.70997e+06 -526277 770100 -231699
12 3 O 1.97679 54.6065 4.89126 -1.2 -9.23392 -4.62537e+06 -730263 -1.91703e+06 -1.17328e+06 613852 773387
13 3 O 1.16902 58.008 3.45834 -1.2 -8.81982 -4.84621e+06 -3.3889e+06 -3.47097e+06 43861.3 -210763 -1.06778e+06
14 3 O 1.30059 57.9861 5.96759 -1.2 -9.12261 -3.91567e+06 -3.12563e+06 -3.13823e+06 -531004 621726 1.31732e+06
15 1 Mg 0.556959 53.5973 3.06225 1.2 -7.83066 898515 3.57417e+06 955210 358523 -427331 287611
16 1 Mg 1.1434 50.2979 3.45352 1.2 -7.00663 -924895 2.25441e+06 -2.90829e+06 -212048 342112 660507
17 2 Si 2.69514 53.1603 4.89371 2.4 -33.1428 7.17878e+06 1.06879e+07 8.69801e+06 -312942 -91677 -1.82125e+06
18 3 O -0.522941 53.4211 4.81497 -1.2 -9.26171 -2.56022e+06 -4.55744e+06 -2.72171e+06 713954 -1.12128e+06 879528
19 3 O 2.8273 49.4743 3.61941 -1.2 -7.66519 -22511.9 -1.09468e+06 -1.2369e+06 -325627 -481832 -1.21101e+06
20 3 O 2.20691 52.3419 3.58204 -1.2 -9.41907 -3.07843e+06 -2.97644e+06 -3.07389e+06 -1.2193e+06 748539 1.65028e+06
21 1 Mg 0.173589 54.5379 0.242107 1.2 -7.76724 -824893 2.82648e+06 672448 1.21683e+06 1.75498e+06 -772972
22 3 O 2.11911 52.1452 6.09871 -1.2 -10.5518 -3.65467e+06 -3.09155e+06 -4.21714e+06 1.60719e+06 -836988 -966543
23 1 Mg 0.277995 57.2689 1.7205 1.2 -8.69836 2.70845e+06 590297 2.86483e+06 -800296 19123.2 -279520
24 2 Si -1.74797 55.3402 1.88291 2.4 -34.1012 8.47219e+06 9.90588e+06 9.18444e+06 201412 1.70095e+06 -119757
25 3 O 1.37457 55.1544 1.87887 -1.2 -9.09356 -1.69512e+06 -1.36018e+06 -2.32103e+06 47488.5 1.17673e+06 -637024
26 3 O -0.828657 59.0149 1.75244 -1.2 -8.7929 -3.18305e+06 -3.95861e+06 -3.24577e+06 1.45585e+06 64028.9 157829
27 3 O -1.26299 56.0658 0.521325 -1.2 -8.83612 -2.97751e+06 -3.13015e+06 -2.67015e+06 -84103.1 -654553 -1171.2
28 3 O -1.1478 56.1975 3.10745 -1.2 -8.34402 -3.13538e+06 -3.15002e+06 -1.4907e+06 697252 541443 752691
29 1 Mg -2.18057 59.5708 0.20934 1.2 -7.95662 -658630 3.82319e+06 195461 -1.07343e+06 -934574 -1.82427e+06
30 1 Mg 2.52876 62.4241 1.66676 1.2 -8.43194 1.80996e+06 773465 2.51494e+06 677341 -60365.6 215577
31 2 Si -0.155837 60.5469 1.69954 2.4 -33.2767 6.25304e+06 1.2109e+07 7.17984e+06 196438 32600.1 460197
32 3 O 1.39256 60.4519 1.66546 -1.2 -9.44297 -2.14391e+06 -4.41494e+06 -3.17592e+06 -664093 217541 1601.4
33 3 O -1.26598 64.1986 1.62092 -1.2 -9.17485 -3.15005e+06 -4.44084e+06 -3.26463e+06 -1.41315e+06 440033 -287101
34 3 O -0.895907 61.1667 0.435757 -1.2 -9.23379 -3.4446e+06 -3.95045e+06 -2.74009e+06 -405843 822390 433422
35 1 Mg -2.21121 69.8758 3.22463 1.2 -8.1354 -553836 4.1648e+06 -109777 -842281 1.7944e+06 1.13285e+06
36 3 O -0.871887 61.2557 2.95429 -1.2 -9.10471 -3.37382e+06 -3.80868e+06 -2.17519e+06 -714450 -1.25769e+06 -260711
37 1 Mg -2.05873 67.017 4.64971 1.2 -8.74851 2.16932e+06 910752 1.9387e+06 843302 -255160 793193
38 2 Si 0.534736 68.8452 4.65155 2.4 -34.4163 7.52126e+06 9.49649e+06 8.1028e+06 398037 230287 207252
39 3 O -1.03917 68.9112 4.69311 -1.2 -8.96573 -2.9077e+06 -3.08714e+06 -4.21831e+06 -528146 -198398 517405
40 3 O 1.491 65.2325 4.64439 -1.2 -8.94006 -3.6555e+06 -5.05148e+06 -3.65391e+06 -921316 -64827.4 300459
41 3 O 1.17875 68.1861 3.38894 -1.2 -8.79565 -3.88682e+06 -3.7278e+06 -3.30387e+06 19629.1 -517947 -1.11189e+06
42 3 O 1.2017 68.2876 5.95354 -1.2 -8.30411 -4.60002e+06 -3.83255e+06 -2.83062e+06 366690 723742 1.06735e+06
43 1 Mg 0.142589 64.7805 3.22765 1.2 -8.01686 -631123 4.30938e+06 -822090 850594 -1.59929e+06 1.62187e+06
44 1 Mg -0.0232003 61.8934 4.69713 1.2 -8.47169 2.12319e+06 1.07165e+06 1.9992e+06 -691516 44060.9 52659.6
45 2 Si 2.14868 63.7346 4.61727 2.4 -33.5121 5.80238e+06 1.15251e+07 6.69136e+06 846275 266046 420919
46 3 O -1.02565 63.8783 4.62848 -1.2 -9.43409 -2.23104e+06 -4.19343e+06 -3.24605e+06 693992 577391 -64352.4
47 3 O 1.18493 60.1963 4.7226 -1.2 -8.80717 -2.54834e+06 -4.09261e+06 -2.6376e+06 315582 -254918 -283720
48 3 O 1.45678 63.0634 3.36931 -1.2 -8.94751 -2.67252e+06 -4.11541e+06 -2.46789e+06 -74050.3 509206 -448477
49 1 Mg 0.0980686 64.527 0.233761 1.2 -7.96235 -1.17683e+06 4.0211e+06 -550793 999662 1.91485e+06 -1.41564e+06
50 3 O 1.50569 63.108 5.90094 -1.2 -9.00262 -2.78007e+06 -5.16081e+06 -2.82872e+06 -17484.3 -600589 702243
51 1 Mg 0.236432 67.5987 1.68683 1.2 -8.67918 2.29057e+06 849849 2.26317e+06 -649213 -126581 196530
52 2 Si -1.91241 65.706 1.57201 2.4 -33.6937 7.303e+06 1.04527e+07 8.12559e+06 328173 810422 697879
53 3 O 1.27335 65.648 1.61592 -1.2 -9.25443 -2.13939e+06 -3.41768e+06 -3.67571e+06 651712 -102375 -115002
54 3 O -0.848784 69.3782 1.74186 -1.2 -8.95448 -2.87997e+06 -4.72938e+06 -2.81652e+06 1.29655e+06 104509 871417
55 3 O -1.25546 66.4233 0.357845 -1.2 -8.89984 -4.01658e+06 -2.83853e+06 -3.7936e+06 169485 -528422 239313
56 3 O -1.19595 66.3761 2.90445 -1.2 -8.69884 -3.16022e+06 -3.48063e+06 -1.93019e+06 573237 1.35097e+06 -262235
57 1 Mg -2.21308 69.7846 0.191664 1.2 -8.07288 -278070 3.77336e+06 294011 -876443 -1.04082e+06 -1.82399e+06
58 1 Mg 2.47128 72.6725 1.66423 1.2 -8.73886 2.2537e+06 808786 2.86695e+06 909047 -126423 170629
59 2 Si -0.158404 70.8619 1.6738 2.4 -33.7511 7.00846e+06 1.05459e+07 8.60874e+06 -91413 -576659 -48718.9
60 3 O 1.3949 70.7815 1.65478 -1.2 -9.30817 -2.68011e+06 -3.58549e+06 -3.61475e+06 -522473 -40714.7 389531
61 3 O -1.20058 74.5139 1.67629 -1.2 -8.74063 -2.83999e+06 -3.72653e+06 -3.39683e+06 -1.18737e+06 -88330.8 793894
62 3 O -0.870009 71.4632 0.396495 -1.2 -8.83436 -3.71649e+06 -3.63243e+06 -3.05041e+06 66285.3 970778 993981
63 1 Mg -2.10968 80.2422 3.1296 1.2 -7.85671 -737982 4.52981e+06 -513537 -995898 1.47531e+06 1.09568e+06
64 3 O -0.859825 71.6092 2.95935 -1.2 -8.70135 -2.8023e+06 -3.27593e+06 -2.00401e+06 -524514 -1.20575e+06 57360.2
65 1 Mg -1.9891 77.4026 4.62533 1.2 -8.49344 2.26019e+06 1.03069e+06 2.842e+06 687850 205572 -616927
66 2 Si 0.58362 79.2337 4.67033 2.4 -33.1356 4.74875e+06 1.23399e+07 6.92771e+06 2441.92 -336010 -769458
67 3 O -0.962235 79.3025 4.65563 -1.2 -9.76072 -2.57048e+06 -3.9772e+06 -2.3821e+06 -431332 135701 545033
68 3 O 1.56137 75.6339 4.59919 -1.2 -8.83026 -2.46452e+06 -3.11668e+06 -3.21294e+06 -300449 -125109 259952
69 3 O 1.2378 78.5207 3.38549 -1.2 -8.95249 -2.44773e+06 -4.132e+06 -1.73017e+06 -56352.8 -507523 375432
70 3 O 1.27036 78.6002 5.93697 -1.2 -9.29244 -2.45386e+06 -4.15979e+06 -2.74526e+06 -194034 504261 764637
71 1 Mg 0.15901 75.0726 3.17429 1.2 -8.22306 -387478 4.00205e+06 -584863 1.25973e+06 -1.41183e+06 1.36961e+06
72 1 Mg 0.149744 72.2032 4.60741 1.2 -8.81842 2.58243e+06 608274 2.19208e+06 -1.28736e+06 189897 -505274
73 2 Si 2.17221 74.0982 4.62568 2.4 -34.0266 6.57264e+06 1.09912e+07 7.64025e+06 -497985 -238344 -1.09085e+06
74 3 O -1.00021 74.1789 4.60832 -1.2 -9.07124 -2.04763e+06 -4.00383e+06 -3.82273e+06 351021 428190 514254
75 3 O 1.20246 70.3538 4.63641 -1.2 -8.67376 -2.87898e+06 -4.95358e+06 -3.47921e+06 1.18697e+06 512040 830888
76 3 O 1.48743 73.3922 3.40765 -1.2 -8.7635 -4.57246e+06 -3.13725e+06 -3.29621e+06 -9025.86 161507 288557
77 1 Mg 0.15677 74.9863 0.163917 1.2 -8.02978 -553038 3.93724e+06 160892 1.22437e+06 1.73565e+06 -2.34646e+06
78 3 O 1.57945 73.4052 5.91366 -1.2 -8.69005 -3.70615e+06 -2.80492e+06 -2.93911e+06 -88687.3 174307 421101
79 1 Mg 0.223435 77.9335 1.7036 1.2 -8.44182 1.88956e+06 1.07561e+06 2.05426e+06 -813961 206582 -472570
80 2 Si -1.87269 76.0266 1.6212 2.4 -33.6333 7.50388e+06 1.08421e+07 8.44285e+06 -299127 -426862 -1.15646e+06
81 3 O 1.30136 75.9299 1.65821 -1.2 -9.25677 -1.80616e+06 -3.60333e+06 -3.69873e+06 517099 -34103.3 553006
82 3 O -0.830602 79.6979 1.60695 -1.2 -9.08168 -2.44869e+06 -5.52436e+06 -2.36405e+06 1.3764e+06 150351 390067
83 3 O -1.20546 76.5996 0.277966 -1.2 -8.92418 -3.29591e+06 -3.73346e+06 -2.57613e+06 45098.5 -1.44792e+06 971630
84 3 O -1.16219 76.7386 2.86404 -1.2 -9.01368 -4.01131e+06 -3.75602e+06 -1.69214e+06 476459 1.25755e+06 24923.9
85 1 Mg -2.29992 80.1981 0.113063 1.2 -7.75455 -1.02777e+06 4.54024e+06 136308 -762377 -1.12932e+06 -1.88208e+06
86 1 Mg 2.50743 83.0885 1.64195 1.2 -8.46057 1.86745e+06 1.05393e+06 1.92346e+06 838150 -438658 -117967
87 2 Si -0.137021 81.1968 1.59807 2.4 -33.3782 5.5576e+06 1.12694e+07 6.02725e+06 344974 1.18481e+06 -1.28011e+06
88 3 O 1.39099 81.1193 1.6883 -1.2 -9.49195 -3.66238e+06 -4.21489e+06 -3.16098e+06 -363192 670065 616536
89 3 O -1.16514 84.9036 1.63383 -1.2 -9.17376 -2.0754e+06 -4.13364e+06 -3.13139e+06 -1.45244e+06 442624 1.25644e+06
90 3 O -0.903266 81.8414 0.361742 -1.2 -9.02484 -2.48616e+06 -4.0574e+06 -3.62511e+06 -165038 1.05578e+06 1.37471e+06
91 1 Mg -2.30055 90.5137 3.09539 1.2 -7.42973 -813655 4.3783e+06 -359150 -1.2895e+06 2.15611e+06 2.1516e+06
92 3 O -0.814168 81.8729 2.83631 -1.2 -9.07606 -3.99747e+06 -4.00553e+06 -3.92224e+06 49256.9 -580290 -549828
93 1 Mg -2.0862 87.7314 4.59486 1.2 -7.8955 1.59152e+06 1.10338e+06 2.59365e+06 626502 127987 367060
94 2 Si 0.548311 89.6709 4.63293 2.4 -32.648 3.10182e+06 1.14606e+07 6.75674e+06 383019 1.05362e+06 817557
95 3 O -0.983664 89.7031 4.62802 -1.2 -9.83664 -2.53985e+06 -3.88798e+06 -3.27188e+06 429391 1.0518e+06 -272643
96 3 O 1.62232 85.9638 4.61805 -1.2 -9.68131 -2.21389e+06 -4.99829e+06 -2.87615e+06 -943686 214364 -303916
97 3 O 1.10392 88.9204 3.35537 -1.2 -9.47026 -2.98264e+06 -3.42743e+06 -2.999e+06 25645.5 -49070.4 -858110
98 3 O 1.27212 89.0265 5.87894 -1.2 -9.39456 -2.53441e+06 -3.98151e+06 -2.25798e+06 -343737 155184 206977
99 1 Mg 0.184989 85.5268 3.17075 1.2 -7.52608 -1.12693e+06 4.57916e+06 -391670 662053 -965111 1.50159e+06
100 1 Mg 0.161124 82.5118 4.50465 1.2 -8.26609 1.85507e+06 937806 2.35444e+06 -836066 -213668 -350071
101 2 Si 2.26938 84.4648 4.68141 2.4 -32.7465 5.28498e+06 1.08048e+07 7.97582e+06 432881 294871 -144176
102 3 O -0.918167 84.5765 4.60607 -1.2 -9.75552 -1.59697e+06 -3.58567e+06 -3.60626e+06 619382 -221021 27106
103 3 O 1.23472 80.7575 4.59852 -1.2 -9.18722 -1.85389e+06 -3.93636e+06 -2.65937e+06 973599 249894 144255
104 3 O 1.59456 83.7446 3.41645 -1.2 -9.1606 -2.64984e+06 -3.13267e+06 -1.76455e+06 164439 756111 -42299.6
105 1 Mg 0.103062 85.3537 0.162631 1.2 -7.94393 -887215 4.22212e+06 -389615 780755 2.0206e+06 -1.90037e+06
106 3 O 1.6027 83.8398 5.98964 -1.2 -9.365 -3.02398e+06 -3.58336e+06 -2.46586e+06 23124.4 -954857 313867
107 1 Mg 0.208595 88.2713 1.64379 1.2 -8.21037 1.32088e+06 1.3217e+06 1.74936e+06 -1.05143e+06 146674 961476
108 2 Si -1.9 86.4051 1.63275 2.4 -32.9787 4.74547e+06 1.1364e+07 7.2742e+06 -685518 -686806 -678466
109 3 O 1.30476 86.3378 1.62602 -1.2 -9.73154 -2.49667e+06 -3.98484e+06 -3.19212e+06 -166822 148165 182350
110 3 O -0.932642 90.1104 1.5518 -1.2 -9.33568 -2.69975e+06 -5.73037e+06 -2.16203e+06 579320 -396924 -872561
111 3 O -1.25523 87.0076 0.26812 -1.2 -8.79992 -2.73689e+06 -3.65754e+06 -1.82984e+06 59622.6 -702379 -275597
112 3 O -1.21959 87.1446 2.80549 -1.2 -9.58488 -2.92831e+06 -4.2702e+06 -3.37612e+06 -346217 333192 -1.19332e+06
113 1 Mg -2.33493 90.5262 0.0701066 1.2 -7.68089 -1.93409e+06 4.76443e+06 -868842 -974007 -1.52654e+06 -1.00303e+06
114 1 Mg 2.34984 93.3671 1.65579 1.2 -8.35428 1.81053e+06 900764 2.97628e+06 908070 100585 264322
115 2 Si -0.309354 91.5912 1.54367 2.4 -33.0904 5.07547e+06 1.12861e+07 6.59198e+06 -284603 350164 783873
116 3 O 1.24878 91.4764 1.5788 -1.2 -9.6145 -2.09807e+06 -4.27115e+06 -2.91447e+06 -932205 790001 -612970
117 3 O -1.3283 95.1971 1.64992 -1.2 -9.08618 -3.11091e+06 -4.66432e+06 -4.3451e+06 -794740 -71986.7 -387773
118 3 O -1.04335 92.2696 0.310966 -1.2 -9.2068 -2.56829e+06 -4.58734e+06 -2.50403e+06 -312447 491729 613672
119 1 Mg -2.38356 100.813 3.04756 1.2 -7.6612 -1.19698e+06 4.13956e+06 105702 -1.02448e+06 1.76946e+06 1.8483e+06
120 3 O -0.939316 92.2471 2.85158 -1.2 -9.20799 -2.71522e+06 -4.1113e+06 -2.23547e+06 -249692 -407278 -1.24171e+06
121 1 Mg -2.17294 98.0226 4.59952 1.2 -8.54146 1.97222e+06 632551 2.47601e+06 999323 109660 534024
122 2 Si 0.431022 99.8848 4.62203 2.4 -33.197 5.85662e+06 1.07274e+07 8.83781e+06 -58488.3 161700 951688
123 3 O -1.1131 99.9336 4.61331 -1.2 -9.4715 -1.90499e+06 -3.53437e+06 -4.40418e+06 -303630 418516 -434071
124 3 O 1.44484 96.1851 4.63443 -1.2 -9.04685 -2.8753e+06 -4.81884e+06 -3.25622e+06 -738491 342447 -1.14277e+06
125 3 O 1.0735 99.202 3.2943 -1.2 -9.16932 -3.36814e+06 -2.59191e+06 -2.32773e+06 34229.4 -745185 -234637
126 3 O 1.14793 99.2218 5.86091 -1.2 -8.83908 -3.82216e+06 -3.27494e+06 -2.68748e+06 145264 721064 -77325.1
127 1 Mg 0.0124522 95.759 3.05478 1.2 -7.92934 -866463 3.86323e+06 -323540 906117 -1.42567e+06 2.10121e+06
128 1 Mg -0.0106578 92.8931 4.57304 1.2 -8.30572 1.71842e+06 518718 2.94144e+06 -1.06141e+06 135689 293655
129 2 Si 2.07418 94.7086 4.57868 2.4 -33.3806 5.98139e+06 1.01622e+07 7.76335e+06 364783 -215355 -93541.1
130 3 O -1.10561 94.7924 4.54096 -1.2 -9.43176 -2.09164e+06 -3.47739e+06 -3.6522e+06 897979 263273 -544812
131 3 O 1.23793 91.1541 4.61079 -1.2 -9.47486 -1.47225e+06 -4.92134e+06 -2.69153e+06 399302 -172541 17927.1
132 3 O 1.36158 94.0944 3.34158 -1.2 -9.04143 -3.74155e+06 -4.27878e+06 -3.74256e+06 -276464 378199 -1.24778e+06
133 1 Mg -0.00856099 95.6723 0.166882 1.2 -7.95628 -704612 3.84962e+06 -615901 1.25315e+06 1.76399e+06 -1.19083e+06
134 3 O 1.42369 93.9577 5.8745 -1.2 -9.0789 -2.55976e+06 -2.9691e+06 -2.37358e+06 -11282.3 -906009 -134471
135 1 Mg 0.128479 98.6286 1.61168 1.2 -8.42244 2.24388e+06 695270 1.97367e+06 -787679 58014.3 220817
136 2 Si -2.01245 96.6731 1.62735 2.4 -33.4704 5.19556e+06 1.06739e+07 7.64224e+06 334432 -513631 989345
137 3 O 1.19356 96.6164 1.62528 -1.2 -9.44429 -3.03011e+06 -4.01671e+06 -3.92969e+06 150815 -493800 -580925
138 3 O -0.974539 100.41 1.62547 -1.2 -9.27478 -1.98458e+06 -3.38078e+06 -3.02613e+06 1.34219e+06 54618.5 -302741
139 3 O -1.28046 97.3521 0.377949 -1.2 -9.0632 -2.67795e+06 -3.63663e+06 -3.39717e+06 441689 -681980 195787
140 3 O -1.37889 97.3806 2.88733 -1.2 -8.93588 -3.64833e+06 -3.60911e+06 -4.03562e+06 190511 836170 -891915
141 1 Mg -2.37565 100.974 0.0979428 1.2 -7.83021 -1.32742e+06 4.38081e+06 -678559 -887437 -1.3768e+06 -1.72559e+06
142 1 Mg 7.15721 103.787 1.68828 1.2 -8.34006 1.49258e+06 779778 3.60373e+06 847496 258414 135249
143 2 Si -0.297189 101.931 1.60939 2.4 -32.7874 6.23306e+06 1.10135e+07 8.12784e+06 469445 -515146 36575.9
144 3 O 1.28952 101.849 1.61587 -1.2 -9.73075 -1.0094e+06 -3.61514e+06 -3.89194e+06 -218764 26127.7 26281.9
145 3 O 3.34473 105.641 1.62294 -1.2 -9.03304 -2.28187e+06 -3.21186e+06 -2.94078e+06 -1.30843e+06 28879.7 -201159
146 3 O -0.98206 102.63 0.365001 -1.2 -9.22597 -3.45816e+06 -3.28363e+06 -3.525e+06 -271961 1.2261e+06 429129
147 1 Mg 2.31234 111.275 3.07276 1.2 -7.99563 -249481 4.09892e+06 -429515 -893905 1.52254e+06 907878
148 3 O -0.958955 102.623 2.89704 -1.2 -9.28409 -2.36658e+06 -2.71137e+06 -2.98992e+06 -286694 -902658 -348543
149 1 Mg 2.36485 108.493 4.65907 1.2 -8.66731 2.49143e+06 688092 3.32546e+06 820384 -152382 40733.1
150 2 Si 5.04494 110.295 4.60564 2.4 -34.0238 5.59688e+06 9.58016e+06 8.1848e+06 644746 650641 -505906
151 3 O 3.51049 110.363 4.641 -1.2 -9.24019 -3.93998e+06 -3.46984e+06 -4.18162e+06 -458864 595148 104435
152 3 O 6.11991 106.61 4.66188 -1.2 -8.88079 -3.88239e+06 -5.43293e+06 -3.47984e+06 -491110 -245228 -258363
153 3 O 5.70564 109.609 3.36067 -1.2 -8.86157 -3.66267e+06 -4.11099e+06 -3.6694e+06 -140584 -722190 -1.03658e+06
154 3 O 5.77473 109.721 5.89404 -1.2 -8.6321 -3.78986e+06 -3.87567e+06 -3.46514e+06 173082 700260 1.29602e+06
155 1 Mg 4.81867 106.047 3.09556 1.2 -7.95845 -456468 3.42954e+06 488273 829923 -1.26116e+06 1.98835e+06
156 1 Mg 0.103131 103.196 4.49287 1.2 -8.20176 2.15972e+06 673660 1.98426e+06 -883947 -410035 -157425
157 2 Si 6.81334 105.203 4.68112 2.4 -33.5494 6.38752e+06 9.68582e+06 8.26668e+06 54385.5 -283642 254664
158 3 O 3.63328 105.281 4.65218 -1.2 -9.29302 -2.26653e+06 -4.09687e+06 -2.86478e+06 -45005.5 -106089 -110308
159 3 O 1.10188 101.436 4.60407 -1.2 -9.36502 -2.30419e+06 -2.83101e+06 -2.58104e+06 1.20332e+06 -120587 337504
160 3 O 6.1235 104.493 3.40011 -1.2 -9.23213 -3.00233e+06 -3.75609e+06 -2.2095e+06 486837 1.00749e+06 -776447
161 1 Mg 4.7348 106.163 0.147448 1.2 -7.92122 -584469 4.06172e+06 456028 509056 1.03747e+06 -1.12813e+06
162 3 O 6.18308 104.523 5.99873 -1.2 -8.95393 -2.93007e+06 -3.9569e+06 -1.8542e+06 509391 -857167 443815
163 1 Mg 4.7337 108.988 1.66866 1.2 -8.57216 1.36798e+06 546028 2.83716e+06 -1.09153e+06 77042.8 -18911.4
164 2 Si 2.67408 107.187 1.65955 2.4 -33.4823 5.07696e+06 9.99334e+06 9.09677e+06 -523397 182679 276353
165 3 O 5.90368 107.071 1.65079 -1.2 -9.53109 -3.61626e+06 -3.43136e+06 -3.97617e+06 830299 356191 -357393
166 3 O 3.70718 110.826 1.67243 -1.2 -8.89865 -3.22769e+06 -4.337e+06 -3.80296e+06 1.50085e+06 217930 -110539
167 3 O 3.36476 107.803 0.350962 -1.2 -8.9526 -2.93959e+06 -3.41331e+06 -2.85251e+06 -373097 -719408 664240
168 3 O 3.39215 107.842 2.89759 -1.2 -8.91069 -3.11761e+06 -2.96269e+06 -3.05466e+06 -266526 270557 -578403
169 1 Mg 2.32821 111.211 0.186659 1.2 -7.98637 -480198 3.92664e+06 -263745 -1.10981e+06 -1.34543e+06 -1.66266e+06
170 1 Mg 7.01433 114.211 1.5633 1.2 -8.63995 2.01914e+06 356037 3.33318e+06 541000 102033 158420
171 2 Si 4.38293 112.339 1.61649 2.4 -33.8281 5.71119e+06 1.01923e+07 8.86449e+06 -195870 385609 -45071.5
172 3 O 5.89578 112.24 1.61021 -1.2 -9.2936 -4.08246e+06 -3.49315e+06 -4.21647e+06 -984807 431057 -291839
173 3 O 3.25472 115.971 1.50503 -1.2 -8.93396 -2.79411e+06 -4.73021e+06 -3.551e+06 -1.28841e+06 264351 -795281
174 3 O 3.61824 112.946 0.322174 -1.2 -8.80055 -3.27155e+06 -2.79492e+06 -2.93316e+06 -46910.2 1.19206e+06 541508
175 1 Mg 2.39318 121.597 2.92324 1.2 -7.83439 -1.27684e+06 4.27438e+06 -104380 -756725 1.74569e+06 1.31607e+06
176 3 O 3.6966 113.028 2.86985 -1.2 -8.74982 -3.64164e+06 -3.33882e+06 -2.32848e+06 148318 -628006 -628904
177 1 Mg 2.46654 118.783 4.55454 1.2 -8.5989 2.05647e+06 834707 2.94533e+06 819174 36908.6 533054
178 2 Si 5.07225 120.655 4.43251 2.4 -33.151 6.50871e+06 1.09602e+07 9.67733e+06 -61802 -108929 -232749
179 3 O 3.51858 120.668 4.46799 -1.2 -9.5449 -1.59426e+06 -3.27251e+06 -3.54234e+06 -147933 35883.9 281749
180 3 O 6.05748 116.996 4.54302 -1.2 -8.79396 -3.2925e+06 -3.91827e+06 -2.86498e+06 -781169 452861 -245324
181 3 O 5.72469 119.958 3.12014 -1.2 -9.0917 -2.67971e+06 -2.7814e+06 -909658 136028 -776324 182807
182 3 O 5.78389 120.002 5.77391 -1.2 -8.85408 -3.27278e+06 -2.9459e+06 -361460 -504930 975536 -215132
183 1 Mg 4.64538 116.559 3.01752 1.2 -8.05107 -31851.5 3.7448e+06 67525.5 815250 -928690 2.06487e+06
184 1 Mg 4.67957 113.64 4.60662 1.2 -8.42629 1.99601e+06 1.16564e+06 1.98485e+06 -1.14893e+06 463009 327036
185 2 Si 6.73625 115.502 4.55954 2.4 -33.7425 5.92258e+06 1.08864e+07 7.68746e+06 -312937 422517 1.11359e+06
186 3 O 3.53538 115.663 4.56291 -1.2 -9.30354 -2.86562e+06 -4.15957e+06 -3.00216e+06 412675 215973 -450782
187 3 O 5.72117 111.776 4.55263 -1.2 -8.83652 -2.68253e+06 -5.34917e+06 -3.6109e+06 942311 13534.7 831919
188 3 O 6.06187 114.794 3.29097 -1.2 -8.85549 -3.15058e+06 -3.46674e+06 -1.78876e+06 82467 751002 -855158
189 1 Mg 4.69888 116.453 0.0310565 1.2 -7.88328 -888479 3.62995e+06 -313972 531033 697179 -1.92567e+06
190 3 O 6.11039 114.862 5.8493 -1.2 -9.13351 -2.82143e+06 -4.27511e+06 -3.03289e+06 -62316.6 -388828 778897
191 1 Mg 4.74303 119.286 1.41655 1.2 -8.28205 1.92824e+06 756085 2.45995e+06 -768263 264586 40786.6
192 2 Si 2.59364 117.469 1.49094 2.4 -33.3949 5.87799e+06 1.06858e+07 8.40929e+06 -206680 -471080 -19848.6
193 3 O 5.74767 117.341 1.48185 -1.2 -9.5856 -1.94797e+06 -3.9559e+06 -3.83267e+06 266881 -500744 -283105
194 3 O 3.70209 121.164 1.46504 -1.2 -9.17796 -2.05438e+06 -5.16929e+06 -3.54898e+06 1.0667e+06 235234 -175425
195 3 O 3.30012 118.173 0.256517 -1.2 -9.14199 -2.57464e+06 -3.85868e+06 -3.30744e+06 440809 -1.20451e+06 540121
196 3 O 3.23841 118.075 2.78973 -1.2 -8.93023 -3.26828e+06 -4.65254e+06 -3.32404e+06 405745 1.06833e+06 -770161
197 1 Mg 2.32123 121.741 -0.0214523 1.2 -7.69579 -524932 4.31029e+06 31722.5 -743943 -900486 -1.71673e+06
198 1 Mg 7.06444 124.517 1.51584 1.2 -8.27369 1.67258e+06 1.07115e+06 2.35961e+06 1.01686e+06 -46800.2 -270381
199 2 Si 4.4448 122.619 1.47315 2.4 -33.2577 3.56034e+06 1.01503e+07 8.68759e+06 309684 12521 -991865
200 3 O 5.94183 122.595 1.4455 -1.2 -9.66636 -4.71921e+06 -3.79562e+06 -4.21496e+06 15694 -112583 640518
201 3 O 3.38415 126.395 1.50567 -1.2 -9.27979 -1.26257e+06 -3.63921e+06 -2.73641e+06 -960166 438051 847611
202 3 O 3.74179 123.315 0.192455 -1.2 -8.9297 -3.18747e+06 -3.58483e+06 -2.40851e+06 -2776.86 1.02692e+06 903194
203 1 Mg 2.34142 132.11 3.07926 1.2 -7.58084 -865932 4.1406e+06 -305554 -893838 1.5439e+06 1.08049e+06
204 3 O 3.72943 123.265 2.74297 -1.2 -9.04474 -2.8467e+06 -3.34313e+06 -3.23287e+06 22636.5 -442913 -541059
205 1 Mg 2.45997 129.202 4.52993 1.2 -8.15842 1.1648e+06 1.25507e+06 1.90115e+06 918235 -77333.2 -159767
206 2 Si 5.04765 131.001 4.56219 2.4 -32.7731 4.16662e+06 1.13698e+07 8.01244e+06 -569113 -487293 -1.53354e+06
207 3 O 3.52263 131.198 4.61521 -1.2 -9.74656 -2.25142e+06 -3.85967e+06 -3.46183e+06 -930974 -289934 959164
208 3 O 6.1476 127.323 4.50033 -1.2 -9.26699 -2.24224e+06 -4.3356e+06 -2.99343e+06 -1.17249e+06 -33783.4 886574
209 3 O 5.76389 130.341 3.29544 -1.2 -9.45394 -2.14564e+06 -3.70442e+06 -2.58205e+06 -96469.1 -1.01262e+06 165929
210 3 O 5.69084 130.3 5.83727 -1.2 -9.24757 -2.76929e+06 -2.94916e+06 -2.03749e+06 184570 383718 654616
211 1 Mg 4.86306 126.811 3.01785 1.2 -7.51897 -562689 3.94395e+06 -66395.6 964179 -1.34678e+06 1.16579e+06
212 1 Mg 4.75945 123.987 4.42385 1.2 -8.33076 1.90194e+06 687079 3.25805e+06 -944039 -70702.8 -47525
213 2 Si 6.8172 125.824 4.53394 2.4 -33.0441 5.15805e+06 1.09041e+07 8.47675e+06 -390441 -1.24467e+06 -666240
214 3 O 3.62443 125.901 4.50559 -1.2 -9.6808 -1.83703e+06 -3.72295e+06 -3.24962e+06 466530 -763055 740250
215 3 O 5.78725 122.151 4.40401 -1.2 -9.2618 -2.29384e+06 -3.16398e+06 -3.27014e+06 1.44529e+06 -76213.3 541108
216 3 O 6.16716 125.118 3.2526 -1.2 -9.42089 -2.93761e+06 -3.49001e+06 -2.07748e+06 128898 884063 -175395
217 1 Mg 4.84127 126.813 0.0438921 1.2 -7.66898 -1.0863e+06 4.50357e+06 -263163 841212 1.22021e+06 -1.87212e+06
218 3 O 6.11225 125.225 5.84188 -1.2 -8.97137 -2.78874e+06 -3.78947e+06 -1.83187e+06 -50924.3 -777400 848922
219 1 Mg 4.89173 129.733 1.5945 1.2 -8.07298 1.10649e+06 1.30314e+06 2.36382e+06 -978238 -177490 -498613
220 2 Si 2.76258 127.929 1.54524 2.4 -32.7852 5.66077e+06 1.06585e+07 8.59259e+06 -266981 -29912.5 -745763
221 3 O 5.92084 127.796 1.52138 -1.2 -9.82742 -1.1547e+06 -3.14165e+06 -3.69569e+06 1.05474e+06 -368538 680460
222 3 O 3.72045 131.547 1.64876 -1.2 -9.27914 -1.6854e+06 -4.2828e+06 -3.32239e+06 931360 -120224 805405
223 3 O 3.46661 128.561 0.284385 -1.2 -9.32848 -2.73683e+06 -4.43121e+06 -2.30901e+06 56930.5 -817986 1.70652e+06
224 3 O 3.39614 128.55 2.87533 -1.2 -9.37449 -2.35999e+06 -3.26313e+06 -1.97288e+06 -131245 1.16357e+06 294790
225 1 Mg 2.40187 131.932 0.10022 1.2 -7.97762 -596007 3.77384e+06 90205.4 -1.1698e+06 -1.35588e+06 -1.63518e+06
226 1 Mg 6.97562 134.813 1.56054 1.2 -8.48972 1.77292e+06 767183 2.81814e+06 700037 55592.8 558667
227 2 Si 4.38703 133.053 1.57005 2.4 -33.1865 4.96601e+06 1.09236e+07 7.90558e+06 62845.2 197011 193829
228 3 O 5.94006 132.982 1.56646 -1.2 -9.68517 -2.47965e+06 -3.79502e+06 -3.45079e+06 -664303 172399 190451
229 3 O 3.31901 136.654 1.53502 -1.2 -8.8872 -2.37679e+06 -4.82957e+06 -2.32098e+06 -1.12295e+06 -96831 -78539.6
230 3 O 3.69079 133.602 0.256571 -1.2 -8.9722 -2.98953e+06 -3.94079e+06 -2.33847e+06 76244.3 122326 254929
231 1 Mg 2.32191 142.46 2.83276 1.2 -8.07626 491421 4.56967e+06 -399858 -631107 1.07846e+06 1.43164e+06
232 3 O 3.69263 133.786 2.79569 -1.2 -9.1987 -2.69107e+06 -4.28733e+06 -2.19618e+06 -264514 -766811 -80403.4
233 1 Mg 2.35436 139.564 4.43959 1.2 -8.89108 2.4489e+06 846192 2.9562e+06 576973 124885 -338138
234 2 Si 4.96175 141.389 4.41808 2.4 -34.3024 5.89221e+06 1.07401e+07 8.07354e+06 70341.9 -515434 537709
235 3 O 3.4296 141.427 4.37852 -1.2 -9.17316 -4.24089e+06 -3.62201e+06 -3.61596e+06 -615704 338501 -262471
236 3 O 6.04136 137.734 4.52453 -1.2 -8.79719 -4.06402e+06 -4.41078e+06 -2.82331e+06 -1.19018e+06 341988 63228.1
237 3 O 5.61986 140.658 3.12702 -1.2 -8.30275 -3.76499e+06 -2.72609e+06 -1.74927e+06 494170 -631934 -139987
238 3 O 5.65796 140.775 5.67075 -1.2 -8.74737 -3.85075e+06 -3.77106e+06 -3.64924e+06 188348 374989 698242
239 1 Mg 4.67283 137.317 2.99634 1.2 -8.18464 -233662 4.26452e+06 45680.3 765581 -1.34879e+06 1.70807e+06
240 1 Mg 4.59781 134.48 4.55767 1.2 -8.20128 1.23536e+06 1.64181e+06 2.64603e+06 -1.1381e+06 179883 -284384
241 2 Si 6.72037 136.258 4.51087 2.4 -33.4245 6.83401e+06 1.09859e+07 8.22039e+06 716296 -15631.1 -447908
242 3 O 3.53191 136.429 4.5048 -1.2 -9.35259 -2.08745e+06 -3.95324e+06 -3.33203e+06 935659 -57869 53406.1
243 3 O 5.71873 132.529 4.55323 -1.2 -9.37984 -2.78205e+06 -3.48954e+06 -2.81076e+06 701542 -351252 429155
244 3 O 6.03087 135.574 3.23022 -1.2 -8.97394 -3.30898e+06 -3.33213e+06 -1.93199e+06 -8966.12 1.06929e+06 -395100
245 1 Mg 4.68667 137.121 -0.11146 1.2 -7.885 -170125 4.23578e+06 293175 733221 878950 -1.54627e+06
246 3 O 5.99366 135.554 5.78051 -1.2 -9.18669 -2.31137e+06 -3.97619e+06 -1.92038e+06 538790 -948729 918519
247 1 Mg 4.62017 139.985 1.39078 1.2 -8.81857 2.7295e+06 598027 3.04254e+06 -932772 -113229 94320.9
248 2 Si 2.60293 138.107 1.44142 2.4 -33.8883 7.0221e+06 1.11592e+07 7.36566e+06 -896577 146005 47452
249 3 O 5.77255 138.08 1.38651 -1.2 -9.25522 -2.29197e+06 -3.9558e+06 -2.8323e+06 -408223 -336116 132328
250 3 O 3.69089 141.856 1.37272 -1.2 -8.83829 -2.86344e+06 -3.82421e+06 -2.9187e+06 1.05082e+06 -1263.94 509090
251 3 O 3.32362 138.786 0.192888 -1.2 -8.90004 -3.82861e+06 -2.92861e+06 -3.05024e+06 152229 -1.10969e+06 235177
252 3 O 3.20946 138.856 2.70825 -1.2 -8.61882 -3.61616e+06 -4.25911e+06 -2.89191e+06 469789 810714 -282975
253 1 Mg 2.32096 142.335 -0.161033 1.2 -7.97157 365872 3.88487e+06 486962 -801276 -1.10782e+06 -2.14376e+06
254 1 Mg 6.9757 145.174 1.3498 1.2 -8.63499 2.43689e+06 135968 3.29683e+06 651305 105746 56526.5
255 2 Si 4.38611 143.351 1.33975 2.4 -33.7652 3.43555e+06 1.15578e+07 8.95424e+06 -335784 161683 -265718
256 3 O 5.86857 143.318 1.37043 -1.2 -9.48056 -5.21468e+06 -3.87143e+06 -3.57543e+06 -501075 8306 369325
257 3 O 3.309 146.993 1.30758 -1.2 -8.99717 -2.52311e+06 -3.32087e+06 -3.01718e+06 -1.13229e+06 -49592.8 389597
258 3 O 3.65955 144.01 0.0583859 -1.2 -8.81921 -2.83621e+06 -3.33566e+06 -3.17452e+06 -56402.9 926354 539287
259 1 Mg 1.48001 152.337 1.73082 1.2 -7.81987 -452373 -1.65819e+06 2.81758e+06 233829 -211461 273345
260 3 O 3.64581 144.082 2.59357 -1.2 -8.73386 -3.07372e+06 -3.25754e+06 -2.4159e+06 -36288.6 -872680 -19503.1
261 1 Mg 1.78084 150.314 4.66891 1.2 -8.66614 -437098 4.3045e+06 900049 -135562 940580 958391
262 2 Si 3.82946 150.703 2.929 2.4 -34.4048 8.43872e+06 5.68775e+06 7.38874e+06 -1.74648e+06 483324 -363782
263 3 O 2.48432 151.485 3.15338 -1.2 -8.17772 -5.67298e+06 -2.21937e+06 -6.32091e+06 189962 1.47054e+06 -1.83617e+06
264 3 O 6.02523 148.14 4.33081 -1.2 -8.50364 -2.94337e+06 -3.78292e+06 -2.44913e+06 -1.26336e+06 33964.8 288024
265 3 O 4.54113 151.403 1.75543 -1.2 -8.63685 -6.94988e+06 -1.56785e+06 -5.52525e+06 436157 995377 223404
266 3 O 4.65285 150.668 4.24372 -1.2 -8.49171 -5.82317e+06 -4.326e+06 -4.58408e+06 -462069 425839 996386
267 1 Mg 4.71232 147.475 2.72898 1.2 -8.09897 -531279 3.18395e+06 1.11e+06 1.46859e+06 -1.33189e+06 1.17242e+06
268 1 Mg 4.64308 144.738 4.36268 1.2 -8.88 1.9738e+06 1.13931e+06 2.66715e+06 -888997 348437 769185
269 2 Si 6.72094 146.632 4.33581 2.4 -34.1847 8.31762e+06 1.07701e+07 8.3043e+06 -407163 -226235 705683
270 3 O 3.53703 146.699 4.3439 -1.2 -9.0973 -2.90759e+06 -3.1331e+06 -3.46101e+06 602619 -446295 -67158.8
271 3 O 5.61733 142.885 4.32048 -1.2 -8.8241 -2.56644e+06 -4.86437e+06 -2.86973e+06 1.21974e+06 -43489.5 -349729
272 3 O 6.02569 145.952 3.02606 -1.2 -8.79437 -3.58049e+06 -2.75326e+06 -2.58639e+06 581750 1.35392e+06 -280613
273 1 Mg 4.69873 147.492 -0.259412 1.2 -8.16295 -584499 4.12045e+06 499772 617589 1.19914e+06 -1.72517e+06
274 3 O 5.97594 145.966 5.55879 -1.2 -8.44216 -4.20439e+06 -3.22362e+06 -2.70182e+06 -113805 -1.02628e+06 224411
275 1 Mg 3.96045 151.197 -0.133559 1.2 -8.31888 1.6919e+06 804143 -1.1306e+06 -604477 116040 -598944
276 2 Si 2.6076 148.477 1.23704 2.4 -33.5966 8.4164e+06 8.69379e+06 7.59497e+06 -697316 -745982 -989167