ITEM: TIMESTEP
45100
ITEM: NUMBER OF ATOMS
5600
ITEM: BOX BOUNDS xy xz yz pp pp pp
0.0000000000000000e+00 7.1234999999999999e+00 0.0000000000000000e+00
0.0000000000000000e+00 2.0198500000000001e+02 2.3744999999999998e+00
0.0000000000000000e+00 1.1958400000000000e+02 0.0000000000000000e+00
ITEM: ATOMS id type element xu yu zu q c_pe c_s[1] c_s[2] c_s[3] c_s[4] c_s[5] c_s[6]
1 1 Mg -1.8062 48.8633 -1.46632 1.2 -6.53567 -3.96057e+06 -920608 971826 -188993 -244853 558057
2 1 Mg 2.77442 50.1455 2.11343 1.2 -7.39135 -943637 3.28106e+06 1.14688e+06 -453046 -232328 928129
3 2 Si 0.608739 50.1227 0.0933812 2.4 -31.2728 7.3488e+06 8.999e+06 5.00301e+06 -1.35852e+06 1.6141e+06 2.12403e+06
4 3 O 2.08265 49.2507 0.252781 -1.2 -9.45371 816540 -2.1303e+06 -2.10464e+06 -614599 456453 715470
5 3 O -1.20252 53.1759 1.79953 -1.2 -8.59961 -2.45162e+06 -6.16158e+06 -3.85237e+06 -2.04716e+06 121270 564995
6 3 O -0.135503 49.6425 -1.22156 -1.2 -10.2521 -4.54646e+06 -2.37369e+06 -2.07229e+06 502055 425014 -144778
7 1 Mg -1.95378 58.9956 3.12415 1.2 -7.65059 -579400 3.57219e+06 -1.59069e+06 -204393 586061 908567
8 3 O 0.00153125 50.0435 1.4181 -1.2 -10.1786 -3.07961e+06 -2.93536e+06 -5.18403e+06 -1.00925e+06 1.58636e+06 -1.38368e+06
9 1 Mg -2.02886 56.2552 4.57426 1.2 -8.10485 -466217 -552783 202621 -456126 -142553 -430655
10 2 Si 0.433634 57.7922 4.59804 2.4 -32.5998 1.34172e+06 1.36886e+07 8.22992e+06 151591 -431301 -2.93234e+06
11 3 O -1.07096 57.892 4.45352 -1.2 -10.0169 -4.51636e+06 -7.18184e+06 -3.92564e+06 -2.05417e+06 -767036 1.08571e+06
12 3 O 1.67755 53.481 4.8209 -1.2 -8.20728 -5.1418e+06 -4.82442e+06 -1.85082e+06 -1.86165e+06 674013 185526
13 3 O 1.21226 57.1031 3.41425 -1.2 -9.26604 -2.95323e+06 -4.87193e+06 -2.33213e+06 11561.2 -980429 778353
14 3 O 1.09709 57.1308 5.95225 -1.2 -9.22294 -1.20242e+06 -4.03925e+06 -856161 -43636.8 958273 382251
15 1 Mg 0.289243 52.9142 3.04769 1.2 -8.03178 1.02289e+06 3.63039e+06 -466555 662033 -133816 -149663
16 1 Mg 0.641705 48.6971 2.75773 1.2 -6.69567 1.98613e+06 1.51817e+06 -340597 -1.11305e+06 106870 1.5269e+06
17 2 Si 2.47363 52.1157 4.64903 2.4 -34.7057 1.0343e+07 8.97712e+06 5.67492e+06 -598035 -227781 -1.63935e+06
18 3 O -0.712574 52.3372 4.6573 -1.2 -8.57936 -4.70529e+06 -3.54006e+06 -2.4395e+06 504399 -652983 1.14757e+06
19 3 O 2.63158 48.439 3.10225 -1.2 -8.05114 2.47466e+06 -998399 -2.32332e+06 -540992 3384.28 -1.14196e+06
20 3 O 1.92071 51.4808 3.3693 -1.2 -8.692 -3.30736e+06 -3.93573e+06 -4.61876e+06 -2.0281e+06 1.16118e+06 258976
21 1 Mg 0.133498 53.4638 0.312982 1.2 -7.27365 -1.05602e+06 3.28051e+06 -139357 1.64719e+06 2.30927e+06 -292706
22 3 O 1.93782 51.0612 5.80331 -1.2 -9.72923 -6.78857e+06 -3.77668e+06 -5.13513e+06 1.47418e+06 632683 1.63393e+06
23 1 Mg 0.365981 56.5146 1.72323 1.2 -8.14465 647203 3.46698e+06 703332 -812357 211159 -1.51284e+06
24 2 Si -1.82714 54.6676 1.84068 2.4 -34.1117 7.42671e+06 8.02341e+06 7.69207e+06 217697 -235801 -2.99776e+06
25 3 O 1.34438 54.535 1.78506 -1.2 -9.11733 -3.07786e+06 -823097 -3.22433e+06 1.91616e+06 50356.1 759986
26 3 O -0.716152 58.6203 1.70664 -1.2 -8.69387 -3.52495e+06 -4.1754e+06 -3.21114e+06 1.9224e+06 943632 881661
27 3 O -1.15346 55.2761 0.51459 -1.2 -9.25605 -2.29249e+06 -2.93932e+06 -1.89787e+06 -189812 -433541 2.48541e+06
28 3 O -1.20106 55.2508 3.09239 -1.2 -8.48764 -4.19066e+06 -4.45363e+06 -4.04287e+06 37777.7 429341 -1.14466e+06
29 1 Mg -2.16881 58.7935 0.216646 1.2 -7.8655 -156446 3.79403e+06 122072 -682056 -733735 -2.31782e+06
30 1 Mg 2.68822 61.9755 1.78349 1.2 -8.48604 693734 658986 2.60681e+06 817310 -26153.6 -323317
31 2 Si -0.00231713 60.1628 1.68532 2.4 -34.0103 7.25437e+06 9.35388e+06 6.76856e+06 507487 816264 -1.01157e+06
32 3 O 1.51404 59.9079 1.72174 -1.2 -9.12115 -4.10076e+06 -3.16257e+06 -3.08283e+06 -1.63325e+06 302996 899050
33 3 O -1.09622 63.7802 1.75824 -1.2 -9.57156 -2.77159e+06 -3.05759e+06 -2.26465e+06 -1.53362e+06 -141109 23022
34 3 O -0.737096 60.791 0.482787 -1.2 -8.57955 -4.48541e+06 -3.73728e+06 -5.83238e+06 102331 947487 2.03118e+06
35 1 Mg -2.35173 69.8007 3.0443 1.2 -8.01877 -764587 3.47501e+06 -1.00733e+06 -712918 665237 710568
36 3 O -0.745793 60.83 2.89062 -1.2 -8.93707 -4.45166e+06 -3.31253e+06 -5.61966e+06 602823 -1.33357e+06 -519776
37 1 Mg -2.13868 66.7164 4.67852 1.2 -8.54122 2.21617e+06 2.07328e+06 2.71427e+06 683395 116311 -553175
38 2 Si 0.397569 68.637 4.61561 2.4 -33.5125 6.76548e+06 1.06815e+07 9.33335e+06 -1.69445e+06 -895986 -1.98285e+06
39 3 O -1.15954 68.7331 4.59553 -1.2 -9.22621 -2.08682e+06 -4.30509e+06 -4.48323e+06 -1.06393e+06 -86121.9 58546.6
40 3 O 1.47839 64.794 4.6188 -1.2 -8.78032 -4.12543e+06 -745063 -3.30156e+06 -1.5755e+06 642299 1.24507e+06
41 3 O 1.14848 68.1134 3.2657 -1.2 -8.72457 -3.16629e+06 -3.89591e+06 -1.24884e+06 688978 -1.33755e+06 607347
42 3 O 1.05194 67.8163 5.82977 -1.2 -9.01586 -2.70212e+06 -1.3542e+06 -3.74258e+06 -499440 418322 -427126
43 1 Mg 0.195296 64.1327 3.26979 1.2 -7.54032 -926961 3.70731e+06 -1.17674e+06 703515 -1.89843e+06 1.45061e+06
44 1 Mg 0.135255 61.3417 4.66889 1.2 -8.10476 1.21605e+06 817973 1.85334e+06 -1.30319e+06 293161 899019
45 2 Si 2.24234 63.1874 4.72765 2.4 -32.5072 3.85802e+06 1.33531e+07 8.38685e+06 548240 -795534 -721830
46 3 O -1.03444 63.5551 4.69001 -1.2 -9.67737 -3.64002e+06 -4.66203e+06 -4.81592e+06 730501 -1.11698e+06 66144.6
47 3 O 1.04088 59.3639 4.64695 -1.2 -9.16006 -1.29035e+06 -2.62816e+06 -3.13382e+06 662075 -516104 125900
48 3 O 1.65414 62.3576 3.52113 -1.2 -9.43229 -2.02951e+06 -3.43887e+06 -2.87565e+06 -52636.1 995239 -404265
49 1 Mg 0.23588 64.0096 0.18673 1.2 -7.42813 -203978 4.45614e+06 305902 1.13486e+06 2.06991e+06 -1.68765e+06
50 3 O 1.34446 62.611 5.98222 -1.2 -9.11054 -1.67896e+06 -3.92839e+06 -2.72307e+06 839835 -1.13179e+06 -300746
51 1 Mg 0.0945493 67.2339 1.66719 1.2 -7.99945 1.43908e+06 1.36707e+06 2.49548e+06 -1.71587e+06 12873.6 82602.1
52 2 Si -1.7783 65.3019 1.63676 2.4 -32.8145 7.04468e+06 9.68356e+06 9.11584e+06 -743042 -1.18798e+06 717887
53 3 O 1.38843 65.1244 1.73297 -1.2 -9.32768 -23185.8 -3.23718e+06 -2.69827e+06 145595 -1.27676e+06 -393254
54 3 O -0.803379 69.2124 1.57523 -1.2 -9.33104 -2.08805e+06 -2.63841e+06 -3.38569e+06 1.22493e+06 341882 1.58997e+06
55 3 O -1.11753 65.8637 0.291089 -1.2 -9.64901 -1.95584e+06 -1.80034e+06 -1.77989e+06 -240683 -572635 919822
56 3 O -1.29965 66.1804 2.8919 -1.2 -9.09364 -3.84147e+06 -2.21317e+06 -158040 -28196.5 120601 709105
57 1 Mg -2.3331 69.2972 0.173392 1.2 -7.31657 -1.76243e+06 2.70509e+06 59435.5 -492389 -12530.3 -2.48754e+06
58 1 Mg 2.30336 72.4397 1.345 1.2 -8.37984 2.00228e+06 -524952 2.4207e+06 223775 179159 -1.63097e+06
59 2 Si -0.136714 70.7105 1.64377 2.4 -33.1803 4.3161e+06 1.05296e+07 1.11802e+07 -287911 -1.93813e+06 -2.81226e+06
60 3 O 1.39686 70.6374 1.59979 -1.2 -9.72229 -3.85423e+06 -4.34164e+06 -5.28872e+06 -501731 -2.59887e+06 1.97513e+06
61 3 O -1.1821 74.5052 1.313 -1.2 -8.77302 -2.74058e+06 -6.57229e+06 -4.13811e+06 -902739 693894 13646.6
62 3 O -0.650501 71.5038 0.390165 -1.2 -8.87085 -3.28452e+06 -3.31981e+06 -2.79064e+06 199380 841761 1.71634e+06
63 1 Mg -2.16813 79.7326 2.98153 1.2 -7.68421 -627232 4.31841e+06 -750724 -1.78658e+06 1.89113e+06 1.48801e+06
64 3 O -1.00201 71.2636 3.04411 -1.2 -8.52633 -1.5864e+06 -4.49923e+06 -1.52435e+06 -335306 -2.29091e+06 1.34245e+06
65 1 Mg -2.13536 77.1122 4.6494 1.2 -8.37903 1.23914e+06 969566 3.01715e+06 724143 -333614 497609
66 2 Si 0.46982 78.9169 4.55717 2.4 -33.0038 4.63207e+06 1.30689e+07 8.79485e+06 -664482 339005 -2.22763e+06
67 3 O -1.0776 79.0197 4.54937 -1.2 -9.69833 -2.54534e+06 -4.4297e+06 -2.62373e+06 -2.68285e+06 -226572 634237
68 3 O 1.61871 75.2565 4.36117 -1.2 -9.24318 -3.14434e+06 -5.02939e+06 -3.48534e+06 111619 57064.2 692308
69 3 O 1.22118 78.3102 3.31986 -1.2 -9.51411 -2.4852e+06 -5.0543e+06 -1.42968e+06 429121 -126127 -480560
70 3 O 1.22429 78.2836 5.93559 -1.2 -8.87852 -1.8545e+06 -2.95681e+06 1.62646e+06 171823 1.37865e+06 -444032
71 1 Mg 0.0746126 74.9193 2.90092 1.2 -7.72101 -204144 3.50988e+06 408619 817533 -1.46778e+06 1.07944e+06
72 1 Mg 0.0484766 71.9716 4.6471 1.2 -8.53625 1.67639e+06 -422447 2.43892e+06 -250899 28878 -1.40203e+06
73 2 Si 2.19743 73.7946 4.35414 2.4 -33.1677 4.85958e+06 1.04514e+07 9.74959e+06 40335 1.47251e+06 -1.80435e+06
74 3 O -1.00565 73.6924 4.50064 -1.2 -9.39276 -1.34567e+06 -4.80598e+06 -3.35044e+06 707249 657801 140068
75 3 O 1.01451 70.1714 4.62669 -1.2 -9.01278 -5.58498e+06 -3.14725e+06 -4.08144e+06 1.64042e+06 -668042 -378363
76 3 O 1.524 73.1891 2.96953 -1.2 -8.91211 -2.49415e+06 -3.06929e+06 -901954 695298 1.10588e+06 817262
77 1 Mg 0.191789 74.9737 -0.00282566 1.2 -8.09311 -436801 4.06932e+06 -549971 489284 1.19913e+06 -1.65322e+06
78 3 O 1.52837 73.0845 5.69136 -1.2 -9.40085 -4.72143e+06 -3.54043e+06 -2.44058e+06 1.09549e+06 -816017 1.32878e+06
79 1 Mg 0.288031 77.5761 1.54488 1.2 -8.21211 1.55357e+06 -996720 3.69727e+06 18622.5 319863 -993102
80 2 Si -1.89766 75.9218 1.42083 2.4 -33.7684 4.98929e+06 9.63215e+06 7.25711e+06 -308475 -1.04898e+06 -556318
81 3 O 1.22122 75.924 1.49648 -1.2 -9.38146 -2.56983e+06 -5.29348e+06 -4.65152e+06 260524 -903992 539789
82 3 O -1.01114 79.509 1.38879 -1.2 -9.29386 -2.68551e+06 -5.35941e+06 -3.33185e+06 -209854 712269 -1.53232e+06
83 3 O -1.27424 76.6884 0.256256 -1.2 -8.54663 -3.83052e+06 -6.07629e+06 -5.24021e+06 -163843 -291418 2.09878e+06
84 3 O -1.29182 76.4907 2.72477 -1.2 -8.84193 -4.17351e+06 -3.75652e+06 -5.1301e+06 100284 817852 -424774
85 1 Mg -2.26128 80.0524 -0.158447 1.2 -7.9002 -770508 4.71142e+06 -480861 -1.45911e+06 -2.25906e+06 -1.30282e+06
86 1 Mg 2.23041 82.8812 1.60267 1.2 -8.56411 1.77354e+06 599074 2.17043e+06 1.05888e+06 485886 -370158
87 2 Si -0.39093 80.9549 1.41711 2.4 -33.5926 7.19038e+06 9.50332e+06 8.68301e+06 -961409 525539 502380
88 3 O 1.16559 80.9645 1.55442 -1.2 -8.97011 -1.92415e+06 -3.09759e+06 -3.09286e+06 -989715 -577847 -722662
89 3 O -1.41186 84.6432 1.63533 -1.2 -9.29356 -2.24722e+06 -6.53903e+06 -2.28169e+06 365271 -215273 444361
90 3 O -0.945399 81.6146 -0.00949646 -1.2 -8.73133 -3.68035e+06 -3.9071e+06 -913042 -362354 1.15676e+06 -559925
91 1 Mg -2.37968 90.3687 3.13093 1.2 -7.91196 667509 3.83706e+06 455013 -601398 581920 1.0551e+06
92 3 O -1.11162 81.7007 2.66144 -1.2 -8.72373 -4.86149e+06 -2.41521e+06 -339637 -9632.6 -658002 -391637
93 1 Mg -2.40281 87.3006 4.68675 1.2 -8.22563 1.64779e+06 439740 2.70749e+06 209340 -766252 -69855.4
94 2 Si 0.299576 89.2129 4.48936 2.4 -33.691 6.50522e+06 8.65417e+06 9.86117e+06 -174904 1.29411e+06 686610
95 3 O -1.29665 89.2942 4.54546 -1.2 -9.28479 -1.53574e+06 -2.40808e+06 -5.0766e+06 -1.2543e+06 821521 -1.42423e+06
96 3 O 1.50769 85.5184 4.62744 -1.2 -9.37083 -4.95092e+06 -8.48153e+06 -3.67889e+06 -962735 -748842 -352689
97 3 O 0.903964 88.6037 3.21443 -1.2 -8.58527 -5.70072e+06 -3.85191e+06 -2.67958e+06 552983 -882814 -1.25301e+06
98 3 O 1.02842 88.5737 5.828 -1.2 -9.27431 -2.14964e+06 -1.98684e+06 -2.53396e+06 -299169 1.34919e+06 283490
99 1 Mg 0.111596 85.2531 3.14642 1.2 -7.79385 -511557 4.98123e+06 -898818 950349 -1.57675e+06 1.25817e+06
100 1 Mg 0.0575034 82.3033 4.42305 1.2 -8.58694 1.65076e+06 -342368 3.28803e+06 -873908 -143135 -330592
101 2 Si 2.13113 84.1177 4.57448 2.4 -33.4493 6.01458e+06 9.35219e+06 6.96043e+06 979709 1.01864e+06 858425
102 3 O -1.0203 84.1117 4.56285 -1.2 -9.2574 -1.69174e+06 -5.28175e+06 -3.98539e+06 503958 1.17362e+06 -716069
103 3 O 0.903896 80.5396 4.51712 -1.2 -8.75228 -2.37506e+06 -2.422e+06 -2.69858e+06 -103901 765037 288972
104 3 O 1.34908 83.4575 3.29566 -1.2 -8.8214 -4.17659e+06 -4.68625e+06 -2.35006e+06 436313 1.81734e+06 -950992
105 1 Mg 0.172918 84.9373 0.140351 1.2 -7.66121 -779067 4.1869e+06 82317.3 1.54208e+06 1.20701e+06 -1.92571e+06
106 3 O 1.59106 83.4125 5.85274 -1.2 -9.01979 -4.07115e+06 -4.76008e+06 -4.06374e+06 246661 -722968 1.37155e+06
107 1 Mg 0.0937662 87.9802 1.42635 1.2 -8.57667 2.27785e+06 511008 2.00329e+06 -994037 -338551 680108
108 2 Si -1.95952 86.0852 1.54139 2.4 -33.2189 5.2831e+06 1.094e+07 8.63519e+06 328655 1.00568e+06 -128009
109 3 O 1.21242 86.0338 1.53896 -1.2 -9.60746 -1.73061e+06 -4.38504e+06 -2.50084e+06 978161 207101 483332
110 3 O -0.876541 89.799 1.61432 -1.2 -8.52883 -3.10296e+06 -4.72418e+06 -1.99666e+06 1.85686e+06 -1.33522e+06 558039
111 3 O -1.32713 86.8025 0.262842 -1.2 -9.15133 -4.00434e+06 -3.37176e+06 -1.99576e+06 696619 -723932 622709
112 3 O -1.26554 86.782 2.92815 -1.2 -8.69402 -1.82913e+06 -4.74814e+06 669448 -359279 805749 133860
113 1 Mg -2.20802 90.2839 -0.0975837 1.2 -8.04269 -967608 4.09922e+06 892676 -341341 -360943 -1.69548e+06
114 1 Mg 2.26946 93.2574 1.38457 1.2 -8.26484 1.96538e+06 1.09242e+06 1.8677e+06 -72796.4 -412897 771302
115 2 Si -0.147878 91.2883 1.52196 2.4 -34.2093 7.50361e+06 9.62749e+06 7.88728e+06 550637 175718 -2.47266e+06
116 3 O 1.39734 91.2768 1.43849 -1.2 -9.20539 -4.14328e+06 -2.83165e+06 -3.29389e+06 29765.8 798589 889688
117 3 O -1.51946 95.1073 1.35685 -1.2 -9.45565 -2.7178e+06 -6.12854e+06 -4.93981e+06 4472.38 1.13952e+06 586774
118 3 O -0.934427 91.9496 0.225891 -1.2 -8.61523 -4.36533e+06 -1.43187e+06 -3.65413e+06 -1.16422e+06 2.17189e+06 1.21112e+06
119 1 Mg -2.68335 100.83 2.96317 1.2 -6.67261 -2.07081e+06 3.84259e+06 919402 -197766 1.79435e+06 2.20783e+06
120 3 O -0.788208 91.9797 2.71547 -1.2 -8.71539 -3.47812e+06 -4.67469e+06 -5.92731e+06 -286398 -1.87289e+06 -1.59721e+06
121 1 Mg -2.40027 98.0352 4.33594 1.2 -7.90154 2.11225e+06 1.14579e+06 2.6773e+06 644699 -32357.3 286044
122 2 Si 0.081064 100.002 4.63569 2.4 -31.3052 4.19211e+06 1.32582e+07 6.86675e+06 -2.17898e+06 -25202.8 1.14312e+06
123 3 O -1.51793 100.183 4.60822 -1.2 -10.4258 261979 -4.98333e+06 -2.14792e+06 -37415.5 957511 -139141
124 3 O 1.00678 96.1193 4.4956 -1.2 -8.5194 -1.35713e+06 -2.93216e+06 -3.95102e+06 -1.87921e+06 650300 616804
125 3 O 0.752869 99.1114 3.39818 -1.2 -9.7532 933932 -1.20442e+06 -2.27355e+06 -726823 -1.39668e+06 887931
126 3 O 0.744748 99.2785 5.89096 -1.2 -9.51214 -1.91691e+06 -4.17574e+06 -3.95596e+06 29127.9 1.74944e+06 -770240
127 1 Mg -0.17126 95.6075 2.92037 1.2 -7.57605 -263567 3.24836e+06 -9047.83 923128 -1.31811e+06 1.86873e+06
128 1 Mg -0.238794 92.8524 4.37681 1.2 -8.10464 -64061.8 1.41671e+06 3.04415e+06 -976361 -628042 37146.2
129 2 Si 1.9205 94.5268 4.42863 2.4 -32.7478 1.44273e+06 1.01729e+07 7.13589e+06 -1.53286e+06 -3261.47 1.18821e+06
130 3 O -1.40258 94.6885 4.3291 -1.2 -9.74454 -7.40302e+06 -3.1077e+06 -4.28512e+06 -1.06178e+06 -778917 -350306
131 3 O 0.892382 90.7077 4.46569 -1.2 -8.96575 -2.52393e+06 -4.41985e+06 -3.99087e+06 1.22876e+06 -490918 -1.0094e+06
132 3 O 1.28376 93.9014 3.1435 -1.2 -9.19493 -2.86952e+06 -3.36228e+06 -3.89385e+06 -1.56942e+06 53812.1 -1.59221e+06
133 1 Mg -0.132374 95.3855 -0.00575686 1.2 -7.26813 -1.65564e+06 4.28342e+06 -1.13584e+06 782667 1.44909e+06 -1.95617e+06
134 3 O 1.14532 93.9311 5.61237 -1.2 -9.31009 -2.41919e+06 -4.71607e+06 -4.65249e+06 42451.4 178257 1.678e+06
135 1 Mg -0.140898 98.3819 1.47119 1.2 -7.64842 606057 876741 4.13481e+06 -1.63626e+06 317255 -258474
136 2 Si -2.12744 96.5816 1.32479 2.4 -32.7189 1.79984e+06 7.10854e+06 8.28773e+06 -405296 632601 -208394
137 3 O 1.09615 96.489 1.37272 -1.2 -9.71253 -3.05866e+06 -2.61442e+06 -4.6572e+06 981660 -565809 815133
138 3 O -1.15985 100.405 1.41205 -1.2 -9.74074 -436790 59277.1 -2.68973e+06 996711 -267792 -95939.1
139 3 O -1.45417 97.2063 0.156141 -1.2 -9.47327 -3.53832e+06 -4.2648e+06 -5.66882e+06 -1.30503e+06 835141 2.3594e+06
140 3 O -1.53566 97.234 2.68159 -1.2 -9.57135 -3.17264e+06 -2.17093e+06 -3.08335e+06 -637303 -497928 -262707
141 1 Mg -2.54012 101.03 -0.028365 1.2 -7.17832 -3.69886e+06 3.71857e+06 -435511 -787639 -1.82539e+06 -2.207e+06
142 1 Mg 7.21898 103.767 1.60644 1.2 -6.64024 -2.27466e+06 -321102 3.50292e+06 2.32172e+06 677463 412208
143 2 Si -0.5114 102.029 1.50407 2.4 -30.231 1.72899e+06 9.69215e+06 9.16721e+06 2.26478e+06 -940254 1.66957e+06
144 3 O 1.02079 101.922 1.42909 -1.2 -10.7077 140636 -3.79266e+06 -3.8801e+06 -967204 266137 -266123
145 3 O 3.10546 105.715 1.46556 -1.2 -10.5699 -163573 -5.68102e+06 -3.11735e+06 -2.13343e+06 368965 -1.04245e+06
146 3 O -1.18655 102.699 0.284358 -1.2 -10.6187 -4.27902e+06 -4.00978e+06 -3.69301e+06 1.67314e+06 -313890 1.267e+06
147 1 Mg 2.15768 110.988 2.7133 1.2 -7.29777 -779031 2.17965e+06 -795174 -661640 1.10101e+06 2.52194e+06
148 3 O -1.22153 102.584 2.8576 -1.2 -10.6039 -253944 -2.44457e+06 -2.19859e+06 -180223 -1.00425e+06 -99630.5
149 1 Mg 2.29498 108.506 4.40305 1.2 -7.40366 -1.14332e+06 397945 2.54859e+06 287043 -230588 221928
150 2 Si 4.7649 110.185 4.46133 2.4 -32.2834 3.79149e+06 1.0275e+07 1.02719e+07 327740 -361538 814006
151 3 O 3.22575 110.281 4.32733 -1.2 -10.0979 -2.17891e+06 -3.59534e+06 -4.48496e+06 -1.15366e+06 1.08248e+06 -324651
152 3 O 5.94042 106.675 4.47357 -1.2 -10.5803 -658471 -4.99079e+06 -3.87846e+06 -1.18924e+06 -740406 35496.5
153 3 O 5.44103 109.604 3.06504 -1.2 -9.33866 -2.7024e+06 -4.47087e+06 -429116 691748 -1.83647e+06 -555355
154 3 O 5.47607 109.585 5.69028 -1.2 -9.87484 -2.53732e+06 -3.8555e+06 -2.75397e+06 992129 818952 1.1549e+06
155 1 Mg 4.64866 106.246 3.00741 1.2 -6.21937 -3.1401e+06 3.87522e+06 -1.18959e+06 1.11623e+06 -1.39419e+06 1.20117e+06
156 1 Mg -0.161318 103.26 4.5777 1.2 -7.35916 311953 111666 1.97687e+06 -1.04201e+06 -490662 880938
157 2 Si 6.56377 105.208 4.29504 2.4 -30.3487 784442 1.18003e+07 9.35512e+06 1.00303e+06 -652549 -300432
158 3 O 3.35387 105.257 4.41754 -1.2 -10.8308 -5687.59 -4.63273e+06 -4.41509e+06 1.2912e+06 116309 -60669.5
159 3 O 0.799623 101.457 4.54521 -1.2 -10.2857 -2.75017e+06 -4.33037e+06 -875021 1.46855e+06 -650454 -967457
160 3 O 5.82253 104.589 3.03302 -1.2 -10.7157 225877 -3.60727e+06 -2.5224e+06 -160903 1.21053e+06 76577.8
161 1 Mg 4.78069 105.738 0.138609 1.2 -6.26426 -2.22134e+06 3.4408e+06 357001 -133737 404486 -448617
162 3 O 5.80715 104.361 5.62638 -1.2 -9.61715 -1.89057e+06 -3.23775e+06 308106 60451.6 -1.74518e+06 -2.15976e+06
163 1 Mg 4.5968 108.846 1.20334 1.2 -7.23972 -941143 1.07368e+06 3.12909e+06 -1.00289e+06 -146773 1.69986e+06
164 2 Si 2.4974 107.196 1.32969 2.4 -30.9851 2.85509e+06 1.03397e+07 8.43054e+06 -809568 -1.09914e+06 1.6956e+06
165 3 O 5.62845 107.087 1.45233 -1.2 -10.7758 -149884 -4.65387e+06 -3.61093e+06 1.07295e+06 -1.58894e+06 -703906
166 3 O 3.67844 111.024 1.54777 -1.2 -9.44265 -3.34667e+06 -1.91478e+06 -5.63471e+06 1.44246e+06 -844038 1.66328e+06
167 3 O 3.31961 107.804 0.10568 -1.2 -10.1337 -1.55138e+06 -4.71444e+06 -4.42364e+06 1.50592e+06 -1.90065e+06 -828063
168 3 O 3.07974 107.903 2.61771 -1.2 -9.94708 -2.25534e+06 -5.33909e+06 -2.06282e+06 -174077 1.20362e+06 -2.23217e+06
169 1 Mg 2.55657 111.45 -0.00836566 1.2 -6.78221 -3.43449e+06 1.83886e+06 -841561 -1.46803e+06 -3.57979e+06 -1.40555e+06
170 1 Mg 6.93213 114.087 1.63782 1.2 -7.4506 -1.22339e+06 1.07961e+06 4.9246e+06 868837 -370982 -215943
171 2 Si 4.40944 112.583 1.53219 2.4 -31.4763 230763 1.0306e+07 1.16053e+07 -434178 300611 -403045
172 3 O 5.89112 112.273 1.51516 -1.2 -10.5767 -3.37382e+06 -3.2612e+06 -4.06396e+06 -1.00406e+06 -348116 479988
173 3 O 3.28863 116.008 1.57874 -1.2 -8.96676 -3.31928e+06 -3.4769e+06 -4.01629e+06 -1.54137e+06 -506804 92896.5
174 3 O 3.791 113.007 0.0752604 -1.2 -9.84095 -486059 -5.54087e+06 -1.77083e+06 -161596 -34455.9 834496
175 1 Mg 1.9423 121.664 2.92624 1.2 -7.98873 -94074.4 3.54834e+06 -376438 -643914 1.86428e+06 1.1809e+06
176 3 O 3.71641 113.342 2.74537 -1.2 -9.68869 -1.66302e+06 -4.69292e+06 -619552 337923 -1.14281e+06 420385
177 1 Mg 2.13163 118.84 4.68849 1.2 -8.5654 2.64704e+06 955750 3.43329e+06 1.01384e+06 -100455 -143128
178 2 Si 4.86859 120.722 4.66794 2.4 -33.6576 7.6328e+06 8.86377e+06 7.92056e+06 629587 1.30481e+06 -1.90198e+06
179 3 O 3.28783 120.728 4.64633 -1.2 -8.90426 -815607 -2.50366e+06 -3.24217e+06 49363.9 710408 487323
180 3 O 6.02332 116.998 4.96971 -1.2 -8.4833 -4.32101e+06 -4.21107e+06 -3.517e+06 -1.63452e+06 -59933.8 463459
181 3 O 5.44514 120.031 3.4252 -1.2 -9.26969 -4.59992e+06 -4.03096e+06 -2.3954e+06 -366719 450462 -1.17708e+06
182 3 O 5.47218 120.154 6.06095 -1.2 -8.76922 -3.85641e+06 -2.05389e+06 -1.14312e+06 -5141.23 468636 478879
183 1 Mg 4.51159 116.252 3.21757 1.2 -8.11287 -409253 2.27762e+06 569711 968315 -937526 1.46606e+06
184 1 Mg 4.4923 113.639 4.61925 1.2 -8.17688 1.15962e+06 2.1346e+06 2.54679e+06 -581404 -315230 131243
185 2 Si 6.6077 115.499 4.86297 2.4 -33.9512 8.69107e+06 8.49863e+06 7.60627e+06 83876.2 2615.46 -168622
186 3 O 3.53515 115.637 4.8161 -1.2 -9.05077 -1.52159e+06 -2.82463e+06 -3.47616e+06 1.07065e+06 -665725 818439
187 3 O 5.45106 111.762 4.43088 -1.2 -9.13225 -959942 -2.13621e+06 -2.29686e+06 1.47301e+06 -52155.2 -22018.7
188 3 O 6.02377 114.947 3.49358 -1.2 -9.02955 -2.95107e+06 -3.8154e+06 -3.28514e+06 422889 1.02571e+06 552619
189 1 Mg 4.7625 116.396 0.208292 1.2 -7.82371 -800960 2.52966e+06 1.12665e+06 1.02892e+06 1.46947e+06 -360249
190 3 O 5.87761 114.767 5.96168 -1.2 -8.74645 -3.00967e+06 -4.24881e+06 -4.3974e+06 -321250 -214645 2.38259e+06
191 1 Mg 4.51065 119.384 1.74278 1.2 -8.51942 1.8008e+06 701996 3.34053e+06 -1.59905e+06 -909322 -881132
192 2 Si 2.56192 117.467 1.77807 2.4 -34.0005 8.01928e+06 8.22649e+06 8.60153e+06 164341 -598091 -620540
193 3 O 5.73805 117.25 1.80763 -1.2 -9.09556 -2.65056e+06 -2.64069e+06 -3.53826e+06 690649 37370.7 419253
194 3 O 3.38838 121.424 1.63576 -1.2 -8.80964 -1.99005e+06 -4.2663e+06 -3.90217e+06 1.62502e+06 197330 -1.32805e+06
195 3 O 3.19909 118.356 0.630738 -1.2 -8.60239 -3.3071e+06 -2.65086e+06 -3.82741e+06 214442 -1.11225e+06 351423
196 3 O 3.23689 118.081 3.03838 -1.2 -8.66179 -3.0202e+06 -1.9322e+06 -6.48581e+06 -443213 462834 35982
197 1 Mg 2.24111 121.781 0.0473724 1.2 -7.80232 -565507 4.08297e+06 -1.1712e+06 -1.19465e+06 -1.93818e+06 -1.53295e+06
198 1 Mg 6.9278 124.662 1.54624 1.2 -8.84067 2.32154e+06 -392248 3.66079e+06 1.0623e+06 279646 -87900.1
199 2 Si 4.18283 122.893 1.53488 2.4 -34.2342 6.87086e+06 9.07704e+06 8.47026e+06 1.71635e+06 -2.17738e+06 437700
200 3 O 5.74038 122.814 1.56603 -1.2 -9.04275 -3.54672e+06 -2.86363e+06 -4.7082e+06 668248 -707041 91899.7
201 3 O 3.22064 126.446 1.66177 -1.2 -9.00132 -4.5925e+06 -5.27412e+06 -3.25171e+06 -1.28091e+06 199641 2.0401e+06
202 3 O 3.58165 123.558 0.310631 -1.2 -8.73815 -5.24354e+06 -3.14197e+06 -4.59e+06 105467 16912.3 1.04565e+06
203 1 Mg 2.31632 132.294 3.04927 1.2 -8.16801 384672 4.1592e+06 -434369 124096 47179 1.32062e+06
204 3 O 3.54561 123.595 2.83591 -1.2 -8.22285 -4.13258e+06 -3.43912e+06 -3.06014e+06 -34365.4 -467259 -455770
205 1 Mg 2.31243 129.277 4.51672 1.2 -8.05611 1.65753e+06 1.95304e+06 1.70582e+06 774163 242828 -877198
206 2 Si 4.9107 131.289 4.49701 2.4 -33.6026 4.63287e+06 1.13676e+07 7.52236e+06 -134938 -1.03721e+06 -2.50755e+06
207 3 O 3.38017 131.473 4.4692 -1.2 -9.3854 -3.74128e+06 -3.63238e+06 -4.03017e+06 -214355 -1.11401e+06 1.14641e+06
208 3 O 6.00344 127.471 4.56568 -1.2 -9.04468 -2.90312e+06 -4.47832e+06 -2.0844e+06 659459 -525627 -167013
209 3 O 5.62548 130.693 3.24464 -1.2 -9.04973 -2.56818e+06 -3.86002e+06 -3.34027e+06 114658 -451287 -260213
210 3 O 5.44537 130.585 5.77997 -1.2 -8.8552 -3.18936e+06 -2.46621e+06 -2.03888e+06 888076 -203793 1.28405e+06
211 1 Mg 4.48718 126.832 3.10911 1.2 -7.80948 -647255 4.21756e+06 -314360 1.30085e+06 -2.70113e+06 323074
212 1 Mg 4.53093 123.916 4.56923 1.2 -8.86501 2.68596e+06 -1.22323e+06 2.3205e+06 23674.4 5451.49 556836
213 2 Si 6.51902 125.94 4.63068 2.4 -34.6325 7.14405e+06 9.03339e+06 8.43703e+06 180983 -718711 -762339
214 3 O 3.32894 126.12 4.72289 -1.2 -8.66857 -3.16158e+06 -3.93922e+06 -4.16142e+06 1.84908e+06 -940665 609564
215 3 O 5.47862 122.261 4.52077 -1.2 -9.10195 -3.74206e+06 -4.65902e+06 -2.69263e+06 1.50983e+06 -402852 -154323
216 3 O 5.96655 125.321 3.32983 -1.2 -8.58532 -4.07068e+06 -4.13111e+06 -3.62909e+06 -373889 -86144.5 -945090
217 1 Mg 4.50185 126.874 0.11968 1.2 -8.17249 -1.19571e+06 4.15488e+06 -1.87656e+06 761283 608005 -2.09408e+06
218 3 O 5.81282 125.224 5.89234 -1.2 -8.21646 -5.47774e+06 -1.58713e+06 -1.23724e+06 279075 -477158 595722
219 1 Mg 4.61547 129.979 1.6087 1.2 -8.5106 2.50025e+06 3.09577e+06 1.68146e+06 -500156 -338264 -422641
220 2 Si 2.565 127.942 1.70374 2.4 -33.5238 8.02027e+06 1.07743e+07 5.74228e+06 1.31679e+06 520054 -764531
221 3 O 5.76556 127.81 1.53259 -1.2 -8.9718 -2.31552e+06 -3.49826e+06 -2.91446e+06 1.12951e+06 523079 999733
222 3 O 3.77515 131.957 1.50917 -1.2 -8.61228 -2.93717e+06 -4.01507e+06 -2.08066e+06 2.64648e+06 -175962 -894693
223 3 O 3.28038 128.595 0.455428 -1.2 -8.83906 -4.85539e+06 -3.66871e+06 -2.56113e+06 351413 -1.03793e+06 1.02262e+06
224 3 O 3.29808 128.711 2.91895 -1.2 -9.31922 -2.25114e+06 -2.10945e+06 -3.49863e+06 399859 1.50365e+06 356222
225 1 Mg 2.45557 132.522 -0.00455316 1.2 -8.24219 -52092.1 4.38694e+06 19457.1 -519891 -957397 -1.20853e+06
226 1 Mg 7.0019 135.288 1.73105 1.2 -9.21727 3.45593e+06 1.44996e+06 1.63793e+06 -146852 130438 -240088
227 2 Si 4.55079 133.43 1.49119 2.4 -34.6333 8.36047e+06 1.30821e+07 7.17615e+06 -401178 -82870.3 -441330
228 3 O 6.0877 133.446 1.54118 -1.2 -9.07516 -5.06014e+06 -4.4264e+06 -2.363e+06 -461.598 895564 -4675.54
229 3 O 3.27219 137.286 1.55599 -1.2 -8.27887 -6.27288e+06 -3.64922e+06 -3.90934e+06 -367522 1.294e+06 722620
230 3 O 3.72767 134.181 0.285218 -1.2 -8.20943 -2.76105e+06 -3.51014e+06 -3.55127e+06 -2.1041e+06 1.72381e+06 668006
231 1 Mg 2.1577 142.649 2.96872 1.2 -7.83143 -1.47007e+06 3.98575e+06 -771489 -1.83579e+06 792192 1.95631e+06
232 3 O 3.85371 134.186 2.73276 -1.2 -7.9704 -4.4074e+06 -2.73251e+06 -3.65954e+06 -306333 -1.58434e+06 363538
233 1 Mg 2.36502 140.138 4.56926 1.2 -8.53173 1.29001e+06 752256 1.09064e+06 1.22499e+06 620098 221321
234 2 Si 4.91954 141.872 4.44705 2.4 -33.4196 3.55458e+06 1.36914e+07 3.47716e+06 363338 1.02933e+06 1.37086e+06
235 3 O 3.36167 141.989 4.48171 -1.2 -9.55957 -4.261e+06 -6.58865e+06 -3.82611e+06 -631605 1.44548e+06 -1.60799e+06
236 3 O 5.96131 138.204 4.61139 -1.2 -8.33662 -2.85388e+06 -4.46726e+06 -2.70763e+06 -382796 838444 -8771.47
237 3 O 5.52286 141.315 3.16428 -1.2 -8.97823 -4.78207e+06 -6.73193e+06 -4.88804e+06 9030.31 -78307 -818181
238 3 O 5.71141 141.188 5.56946 -1.2 -9.06598 -3.07467e+06 -6.4978e+06 -4.7127e+06 -70736.9 -513392 1.01158e+06
239 1 Mg 4.52225 137.652 3.1133 1.2 -8.4672 1.34287e+06 3.43867e+06 -1.17879e+06 742702 -836782 2.14172e+06
240 1 Mg 4.68206 134.767 4.53643 1.2 -8.73778 2.95685e+06 1.40064e+06 2.99045e+06 -992583 -29762.2 -359746
241 2 Si 6.62412 136.712 4.65143 2.4 -34.7416 7.53557e+06 9.24211e+06 5.32384e+06 -1.06222e+06 -942869 -411384
242 3 O 3.46315 136.846 4.50761 -1.2 -8.61061 -3.57669e+06 -3.20862e+06 -3.56425e+06 -477896 -675457 -44399.3
243 3 O 5.61574 132.86 4.47667 -1.2 -8.70991 -3.41963e+06 -2.54415e+06 -3.15323e+06 1.32178e+06 -883584 403949
244 3 O 6.11649 135.983 3.42932 -1.2 -8.32775 -5.48033e+06 -4.68112e+06 -4.38473e+06 -1.15998e+06 -661252 -1.63122e+06
245 1 Mg 4.69782 137.471 0.292724 1.2 -8.49859 -569582 2.56693e+06 -313574 1.44297e+06 2.17933e+06 -1.19866e+06
246 3 O 5.99046 136.127 5.92723 -1.2 -8.77005 -3.24591e+06 -4.06213e+06 -4.69331e+06 -39983.6 113967 1.83053e+06
247 1 Mg 4.59269 140.679 1.46397 1.2 -8.23356 2.02651e+06 895023 1.73059e+06 -697928 107133 -81629.6
248 2 Si 2.54537 138.774 1.5236 2.4 -34.4439 4.48141e+06 1.09175e+07 9.33889e+06 35525.5 -579744 1.0051e+06
249 3 O 5.85205 138.49 1.66735 -1.2 -8.75172 -6.57266e+06 -4.31951e+06 -4.20173e+06 742414 -639596 -1.09339e+06
250 3 O 3.52997 142.374 1.42992 -1.2 -9.27112 -2.58562e+06 -3.99888e+06 -2.87897e+06 2.2009e+06 -1.16274e+06 132119
251 3 O 3.28059 139.393 0.29109 -1.2 -8.73227 -3.07397e+06 -5.53315e+06 -3.66038e+06 138393 -1.1385e+06 1.66063e+06
252 3 O 3.12507 139.555 2.89576 -1.2 -8.44207 -4.05709e+06 -3.05351e+06 -520153 -498957 925267 80268.1
253 1 Mg 2.21472 142.908 0.0923722 1.2 -7.89325 -1.07937e+06 5.06187e+06 -876483 -705581 -1.9031e+06 -969919
254 1 Mg 7.06993 145.9 1.88452 1.2 -8.81735 1.82424e+06 -894922 2.6122e+06 1.62469e+06 825650 -1.08988e+06
255 2 Si 4.30369 143.912 1.41376 2.4 -33.8562 8.40404e+06 1.02811e+07 8.0084e+06 1.61214e+06 313494 -1.17745e+06
256 3 O 5.89867 143.827 1.57686 -1.2 -9.049 -1.50849e+06 -3.47015e+06 -3.79651e+06 895990 45437 510891
257 3 O 3.33583 147.634 1.5171 -1.2 -9.20409 -4.91026e+06 -4.59321e+06 -4.09111e+06 -463893 -381766 887901
258 3 O 3.82454 144.562 0.0864464 -1.2 -8.39184 -4.29018e+06 -3.04998e+06 -3.47502e+06 222458 582410 160980
259 1 Mg 1.61679 152.836 1.78109 1.2 -7.79116 160417 -644863 1.59259e+06 475622 -791183 77017.9
260 3 O 3.6447 144.672 2.63151 -1.2 -8.68435 -5.933e+06 -2.0638e+06 -4.17013e+06 -492861 -1.17168e+06 339283
261 1 Mg 1.3807 151.667 5.08554 1.2 -7.90535 -5.96744e+06 3.43304e+06 -1.55866e+06 -540725 -1.37948e+06 -424871
262 2 Si 3.78266 151.324 3.30696 2.4 -33.4203 8.99171e+06 1.02613e+07 5.23583e+06 -1.66907e+06 -2.02214e+06 -3.36896e+06
263 3 O 2.35008 152.201 3.49774 -1.2 -8.72912 -2.9037e+06 -1.95424e+06 -3.22144e+06 -1.16418e+06 431483 108180
264 3 O 5.51114 148.611 4.68295 -1.2 -8.0299 -3.30691e+06 -3.749e+06 -2.4115e+06 -2.06233e+06 -365772 203525
265 3 O 4.54311 152.134 2.13291 -1.2 -8.94713 -3.93677e+06 -1.72218e+06 -2.71062e+06 1.53081e+06 -1.47621e+06 -1.33695e+06
266 3 O 4.38967 151.269 4.67848 -1.2 -9.11056 -7.47399e+06 -5.69298e+06 -4.35194e+06 -418611 -1.56269e+06 460469
267 1 Mg 4.5554 148.006 3.02742 1.2 -8.2164 -910760 1.73257e+06 -531313 3.33134e+06 -3.80801e+06 247793
268 1 Mg 4.49024 145.018 4.39679 1.2 -9.17047 3.65933e+06 -1.97468e+06 2.53074e+06 -212426 -553969 -748323
269 2 Si 6.27268 147.142 4.66048 2.4 -35.1913 1.00671e+07 1.0823e+07 6.5283e+06 -1.46926e+06 -1.55406e+06 -1.47322e+06
270 3 O 3.08719 147.294 4.5418 -1.2 -8.20398 -3.68337e+06 -2.14986e+06 -1.51146e+06 -921448 -1.29375e+06 1.80086e+06
271 3 O 5.50775 143.431 4.51262 -1.2 -8.24623 -3.75469e+06 -6.09113e+06 -3.30123e+06 975953 -339468 -829912