ITEM: TIMESTEP
80200
ITEM: NUMBER OF ATOMS
5600
ITEM: BOX BOUNDS xy xz yz pp pp pp
0.0000000000000000e+00 7.1234999999999999e+00 0.0000000000000000e+00
0.0000000000000000e+00 2.0198500000000001e+02 2.3744999999999998e+00
0.0000000000000000e+00 1.1958400000000000e+02 0.0000000000000000e+00
ITEM: ATOMS id type element xu yu zu q c_pe c_s[1] c_s[2] c_s[3] c_s[4] c_s[5] c_s[6]
1 1 Mg -1.93644 47.6982 -1.22141 1.2 -7.30721 -1.17803e+06 -1.42943e+06 4.78958e+06 -1.86737e+06 -326490 -2.42394e+06
2 1 Mg 2.58482 50.3255 1.50765 1.2 -7.77765 707306 816588 601072 -631673 -1.05112e+06 -1.64898e+06
3 2 Si 0.367886 49.4255 0.0105239 2.4 -33.0923 6.2433e+06 6.39277e+06 1.26211e+07 -1.26879e+06 724707 -2.05457e+06
4 3 O 1.80764 48.9473 0.298058 -1.2 -8.7343 -4.30633e+06 -111099 -5.80035e+06 245923 358521 2.96531e+06
5 3 O -1.92957 52.2776 1.59777 -1.2 -9.54617 -4.57249e+06 -4.47257e+06 -3.71214e+06 -1.49753e+06 757979 1.94574e+06
6 3 O -0.221553 48.4146 -1.20939 -1.2 -9.05433 -6.2854e+06 2.22713e+06 -3.05993e+06 1.53894e+06 -1.58461e+06 3.96012e+06
7 1 Mg -2.36623 58.4248 3.19574 1.2 -7.21184 -2.28125e+06 1.03718e+06 1.49027e+06 -391889 1.50181e+06 2.17575e+06
8 3 O -0.342722 49.5556 1.40229 -1.2 -8.61952 -6.07797e+06 -3.79724e+06 -1.52951e+06 -1.85455e+06 -874081 1.29644e+06
9 1 Mg -2.69514 55.2126 4.29362 1.2 -7.71385 1.37269e+06 446295 3.73801e+06 190995 254503 502281
10 2 Si 0.168955 57.4545 4.62819 2.4 -32.2849 5.13468e+06 5.5947e+06 1.19314e+07 2145.41 253112 2.52618e+06
11 3 O -1.34769 57.3969 4.51309 -1.2 -9.80087 -3.41881e+06 -2.14481e+06 -4.42603e+06 611538 1.47465e+06 -1.02376e+06
12 3 O 1.09727 53.2944 4.16604 -1.2 -9.71258 -4.34582e+06 -2.78407e+06 -4.29093e+06 -722451 683153 898472
13 3 O 0.711624 56.5968 3.31894 -1.2 -9.3105 -3.59671e+06 -211124 -2.72643e+06 43337.9 58115.2 -1.21127e+06
14 3 O 1.00088 56.9181 5.9385 -1.2 -9.60156 -1.39287e+06 -2.48934e+06 -3.87277e+06 -1.12448e+06 1.2396e+06 -586776
15 1 Mg -0.283495 52.5588 2.76473 1.2 -7.58602 -1.42625e+06 3.58678e+06 -433515 -319947 -1.47531e+06 356156
16 1 Mg 0.108537 48.9535 3.32559 1.2 -8.3839 2.40839e+06 2.15771e+06 -2.91524e+06 -989295 458907 -1.34965e+06
17 2 Si 1.81417 51.8835 4.25116 2.4 -32.437 6.66182e+06 8.09981e+06 1.07672e+07 1.40666e+06 1.72974e+06 530976
18 3 O -1.38699 52.0506 4.32698 -1.2 -9.52078 -1.534e+06 -4.12185e+06 -4.40224e+06 1.26779e+06 -204574 375282
19 3 O 1.61862 47.6213 3.49121 -1.2 -5.60605 469207 2.55782e+06 780901 -476489 1.47819e+06 -198036
20 3 O 1.16034 51.004 2.99615 -1.2 -8.6751 -2.16624e+06 -3.00518e+06 -3.48337e+06 -2.17854e+06 1.38742e+06 977447
21 1 Mg -0.641586 52.7638 -0.0155239 1.2 -7.65004 -1.61946e+06 1.67447e+06 1.83417e+06 2.08097e+06 2.512e+06 -1.76354e+06
22 3 O 1.01515 51.163 5.53807 -1.2 -10.7928 -4.31849e+06 -3.19826e+06 -6.19286e+06 508811 -3.6073e+06 -617429
23 1 Mg -0.358318 55.925 1.8 1.2 -8.19515 1.35195e+06 -465843 2.66017e+06 -718005 -164453 -57134
24 2 Si -2.53665 53.7705 1.26602 2.4 -33.2479 4.8809e+06 7.56984e+06 1.04156e+07 2.12709e+06 2.42529e+06 -1.26124e+06
25 3 O 0.723368 53.6368 1.31531 -1.2 -9.29327 -4.40032e+06 -2.85117e+06 -6.45286e+06 1.86474e+06 -715764 1.8681e+06
26 3 O -1.19644 57.819 1.37367 -1.2 -9.62095 -1.24959e+06 -2.37173e+06 -3.56567e+06 1.54247e+06 -204937 745767
27 3 O -1.83238 54.3822 0.0428473 -1.2 -8.98062 -5.28098e+06 -637701 -8.22042e+06 -26294.9 -835869 -650361
28 3 O -1.77933 54.726 2.45904 -1.2 -8.72794 -1.73333e+06 -320836 -4.81422e+06 784007 1.11902e+06 1.5322e+06
29 1 Mg -2.85511 58.0761 0.189753 1.2 -7.35973 -1.39898e+06 1.92009e+06 1.63245e+06 -122309 -1.12877e+06 -1.89167e+06
30 1 Mg 2.27059 61.2839 1.78447 1.2 -7.67147 1.47517e+06 574114 2.59821e+06 1.09139e+06 -295540 567478
31 2 Si -0.517289 59.3193 1.47549 2.4 -32.2745 5.17485e+06 7.5764e+06 1.00929e+07 1.04176e+06 1.33019e+06 -234337
32 3 O 1.09412 59.2053 1.56442 -1.2 -9.91682 -509191 -1.98532e+06 -4.36917e+06 276253 433951 685844
33 3 O -1.31905 63.4901 1.79041 -1.2 -8.64489 -5.04144e+06 -632717 -6.59533e+06 -79943.5 1.38318e+06 200499
34 3 O -1.0026 60.0764 0.241447 -1.2 -9.10505 -2.57828e+06 -3.35244e+06 -4.5632e+06 -233850 -413186 1.06982e+06
35 1 Mg -2.29015 69.4222 3.56077 1.2 -7.3597 -2.92424e+06 1.7905e+06 602442 -1.32816e+06 678139 2.55758e+06
36 3 O -1.16756 59.9672 2.79835 -1.2 -10.0157 -983658 -767100 -4.55504e+06 -711415 -284904 324999
37 1 Mg -2.47481 66.1133 4.78603 1.2 -7.56867 681032 -527744 5.68583e+06 1.45866e+06 -483491 -242872
38 2 Si 0.284258 68.0451 4.69608 2.4 -32.2425 3.87884e+06 5.79828e+06 1.19609e+07 904496 2.00125e+06 596519
39 3 O -1.2167 68.1687 4.68982 -1.2 -9.76108 -3.17514e+06 -1.42108e+06 -6.83478e+06 -709569 -124644 -1.20895e+06
40 3 O 1.28712 64.2389 4.71813 -1.2 -10.0208 -337926 -1.87107e+06 -7.2479e+06 -1.49497e+06 -201767 -705443
41 3 O 0.990727 67.3764 3.55772 -1.2 -9.46635 -5.54567e+06 -1.66879e+06 -6.37457e+06 -222025 -608111 -1.09759e+06
42 3 O 1.04277 67.365 6.08563 -1.2 -9.54467 -1.71401e+06 -1.61722e+06 -3.71529e+06 -295579 1.68168e+06 695934
43 1 Mg -0.156703 63.9409 3.34914 1.2 -7.2264 -746776 1.30123e+06 825667 770199 -1.74898e+06 1.88015e+06
44 1 Mg 0.213818 60.7659 4.44328 1.2 -7.2889 962703 -803249 5.59835e+06 -965820 -38805.7 46204.3
45 2 Si 1.9939 62.7703 4.69831 2.4 -31.7005 4.24291e+06 2.908e+06 1.72294e+07 -1.374e+06 700183 -1.36692e+06
46 3 O -1.1887 62.822 4.68244 -1.2 -10.2035 -790603 202368 -7.42617e+06 21581.4 466094 395195
47 3 O 0.940229 58.8409 4.50678 -1.2 -9.68873 -2.89055e+06 -3.3552e+06 -6.23005e+06 2.26869e+06 460680 -139804
48 3 O 1.23483 62.1872 3.31545 -1.2 -9.72083 -1.28131e+06 321057 -3.30634e+06 -107767 1.66535e+06 -9909.85
49 1 Mg 0.107622 63.6545 0.582397 1.2 -8.32452 -1.5414e+06 1.12341e+06 1.3308e+06 1.6791e+06 3.19378e+06 -1.52977e+06
50 3 O 1.40645 62.0409 6.01615 -1.2 -9.57384 -2.04e+06 533361 -2.67974e+06 350903 -281722 -488712
51 1 Mg 0.421907 66.6856 1.77376 1.2 -7.86725 -220753 120706 2.64952e+06 -718944 59835.9 1.87357e+06
52 2 Si -1.84578 65.1067 1.62398 2.4 -33.1451 4.55198e+06 6.54645e+06 9.4835e+06 1.6186e+06 -687111 2.93555e+06
53 3 O 1.34072 64.8894 1.67643 -1.2 -9.2781 -2.52328e+06 -2.39496e+06 -6.76092e+06 2.5353e+06 -1.70443e+06 -450582
54 3 O -0.812244 68.7999 1.97861 -1.2 -8.94882 -4.34663e+06 -5.77283e+06 -5.99035e+06 260637 367146 1.87439e+06
55 3 O -1.11622 65.5112 0.383056 -1.2 -8.9342 -3.23534e+06 -2.91039e+06 -5.1253e+06 -802805 1.61868e+06 190638
56 3 O -1.25672 65.7317 2.91762 -1.2 -9.51786 -2.30677e+06 -3.18602e+06 -3.21137e+06 -1.00063e+06 -376962 -3.10542e+06
57 1 Mg -2.1865 69.0844 0.658122 1.2 -7.99013 525941 2.99056e+06 -47661.4 -1.04412e+06 -1.86188e+06 -527488
58 1 Mg 2.64715 72.2866 1.91934 1.2 -8.4426 3.11839e+06 331990 4.18347e+06 1.50728e+06 56689.3 1.15737e+06
59 2 Si -0.290672 70.2469 2.15494 2.4 -33.4738 7.43102e+06 5.60339e+06 8.85269e+06 7693.01 325362 716165
60 3 O 1.38292 70.1298 2.1058 -1.2 -8.88261 -322732 -2.60806e+06 -4.99968e+06 -1.22436e+06 -1.79322e+06 -322227
61 3 O -1.03488 74.3102 1.76679 -1.2 -8.62763 -4.67456e+06 -619589 -6.62833e+06 -916768 81886.6 -2.54738e+06
62 3 O -0.814889 70.9258 0.800848 -1.2 -8.27625 -5.79045e+06 -3.03468e+06 -2.46253e+06 783077 553527 -27118.3
63 1 Mg -2.13044 79.9253 2.91169 1.2 -7.31255 -5.10641e+06 3.20627e+06 -1.72576e+06 -32538.9 1.54392e+06 2.908e+06
64 3 O -0.956636 70.9111 3.33004 -1.2 -9.70748 -4.95006e+06 -2.46515e+06 -7.41341e+06 119514 -443311 -2.49243e+06
65 1 Mg -2.12579 76.7935 4.94243 1.2 -8.29432 2.13191e+06 -371237 956747 -41629.3 415508 360089
66 2 Si 0.523002 78.9095 4.1031 2.4 -32.8986 6.57848e+06 1.17435e+07 5.73223e+06 138010 -898587 136575
67 3 O -1.08594 78.8562 4.31085 -1.2 -9.20098 -667656 -4.62171e+06 -2.68292e+06 744380 -2.99513e+06 -689081
68 3 O 1.6677 75.1163 5.08033 -1.2 -9.35559 -5.82602e+06 -5.02676e+06 -1.82871e+06 -1.03824e+06 -151376 -341116
69 3 O 1.17942 78.254 2.92441 -1.2 -9.5321 -3.17373e+06 -3.63192e+06 -6.8867e+06 -58732.2 199689 -296716
70 3 O 0.986879 78.0305 5.49471 -1.2 -8.79487 -2.96229e+06 -2.06542e+06 950119 523704 540431 -1.12284e+06
71 1 Mg 0.0612172 74.6725 3.32568 1.2 -7.59092 -1.14794e+06 1.72871e+06 1.73821e+06 877569 -2.34543e+06 3.43057e+06
72 1 Mg -0.0738385 71.452 4.96023 1.2 -7.75421 1.18538e+06 83124.5 1.84321e+06 -567516 -764092 193903
73 2 Si 2.18483 73.642 4.90041 2.4 -32.7625 8.46976e+06 7.70992e+06 9.94345e+06 2.6151e+06 1.98944e+06 3.09805e+06
74 3 O -0.915704 73.7796 4.87178 -1.2 -9.30877 743056 -2.25456e+06 -4.51573e+06 1.62734e+06 774531 -994594
75 3 O 0.959402 69.5802 4.95489 -1.2 -9.67787 -1.85162e+06 -1.9976e+06 -4.41256e+06 1.58541e+06 674329 543307
76 3 O 1.56398 72.7829 3.57777 -1.2 -8.95484 -1.03632e+06 1.7484e+06 -2.4627e+06 1.02028e+06 1.00306e+06 -217323
77 1 Mg 0.168442 74.5951 0.29301 1.2 -8.32603 -415874 2.79236e+06 -2.31854e+06 645621 1.78675e+06 -824050
78 3 O 1.50383 72.8713 6.12773 -1.2 -9.31745 -4.94772e+06 -1.69003e+06 -7.42307e+06 -80314.9 -3.61268e+06 323990
79 1 Mg 0.0839862 77.4991 1.49086 1.2 -7.17273 -104348 -450058 2.1402e+06 -2.5424e+06 -985664 294069
80 2 Si -1.82247 75.8449 1.83286 2.4 -32.0786 4.87555e+06 9.07581e+06 1.28676e+07 -1.96925e+06 568773 3.82906e+06
81 3 O 1.4209 75.5138 1.72849 -1.2 -9.42572 -1.27798e+06 -2.70162e+06 -4.26102e+06 639655 34712.6 -2.11581e+06
82 3 O -0.82726 79.4653 1.58297 -1.2 -9.99324 -4.64801e+06 -5.38389e+06 -4.04934e+06 2.53495e+06 830408 -1.21928e+06
83 3 O -1.13434 76.4251 0.402538 -1.2 -9.60415 -4.53726e+06 -4.91859e+06 -1.26168e+06 -198668 -3.16469e+06 566086
84 3 O -1.2325 76.2121 3.27538 -1.2 -9.59181 -1.92826e+06 -5.65336e+06 -1.35712e+06 543424 843427 -3.97048e+06
85 1 Mg -1.98393 79.9557 -0.181891 1.2 -6.57669 -4.81169e+06 4.946e+06 -1.00299e+06 -438969 -2.81172e+06 -870211
86 1 Mg 2.39221 82.5862 1.69341 1.2 -7.14366 -705785 2.45141e+06 -160185 376259 -1.26085e+06 543631
87 2 Si -0.0457306 80.844 1.49702 2.4 -30.2817 5.0876e+06 1.22496e+07 7.56197e+06 -1.78311e+06 -669685 1.80502e+06
88 3 O 1.55587 80.6828 1.53956 -1.2 -10.5286 107254 -6.55093e+06 -4.10711e+06 -45242.1 -810033 506124
89 3 O -1.21602 84.6935 1.87517 -1.2 -9.23076 -3.75574e+06 -5.00381e+06 -3.21255e+06 -1.1089e+06 -1.96069e+06 2.88777e+06
90 3 O -0.761124 81.4956 0.187977 -1.2 -10.5327 -890525 -6.15547e+06 -1.86076e+06 -761937 2.6323e+06 868815
91 1 Mg -2.38309 90.2433 3.46382 1.2 -7.99227 -638375 4.6934e+06 -519915 -929350 823117 1.24328e+06
92 3 O -0.85221 81.5742 2.87467 -1.2 -9.7453 -542963 -5.35051e+06 185607 -2.16673e+06 -3.24376e+06 192773
93 1 Mg -2.41473 87.4311 4.92266 1.2 -8.05722 350739 197244 1.55018e+06 1.2955e+06 150740 -751719
94 2 Si 0.30157 89.2921 5.10082 2.4 -32.9157 3.91019e+06 7.8067e+06 8.83122e+06 -542639 1.4073e+06 -532592
95 3 O -1.17779 89.4101 5.05262 -1.2 -9.60091 -5.39779e+06 -4.30889e+06 -2.9121e+06 -915142 1.41541e+06 379740
96 3 O 1.33993 85.6226 4.68874 -1.2 -10.1473 -1.11173e+06 -5.72109e+06 -2.54849e+06 -2.04176e+06 -184659 60451.3
97 3 O 0.898889 88.6397 3.66702 -1.2 -8.8657 -5.62002e+06 -3.05288e+06 -1.80675e+06 397837 -2.4674e+06 -557677
98 3 O 1.15276 88.4705 6.23136 -1.2 -9.31231 -672901 -2.81939e+06 -3.04015e+06 166785 849238 1.34719e+06
99 1 Mg -0.11536 85.0979 3.37668 1.2 -6.76759 -3.80914e+06 4.13186e+06 -1.74747e+06 302803 -2.19331e+06 1.82773e+06
100 1 Mg -0.173248 82.2981 4.57129 1.2 -7.96355 838797 1.36942e+06 1.19683e+06 -648636 -259391 -542918
101 2 Si 2.01987 84.1545 4.60825 2.4 -31.365 1.98575e+06 1.28941e+07 6.55893e+06 745395 -120384 -1.28204e+06
102 3 O -1.18138 84.1315 4.72285 -1.2 -10.6498 -2.6124e+06 -4.61645e+06 -4.48276e+06 10947 948571 762084
103 3 O 1.1536 80.3469 4.37969 -1.2 -9.49152 -1.7011e+06 -5.2429e+06 -1.15063e+06 431763 1.00664e+06 280545
104 3 O 1.28444 83.4484 3.43018 -1.2 -9.65214 -1.13041e+06 -4.60457e+06 -4.352e+06 -351856 75449.8 2.24659e+06
105 1 Mg 0.127602 85.0154 0.296215 1.2 -7.59752 -751754 4.24162e+06 -53198.2 350846 815867 -1.93233e+06
106 3 O 1.29411 83.2743 5.86829 -1.2 -9.39561 -1.59551e+06 -1.98094e+06 -3.04896e+06 200256 -1.21495e+06 -1.44617e+06
107 1 Mg 0.275002 87.7644 1.99998 1.2 -7.76856 1.40807e+06 930193 3.50341e+06 -629375 -174001 600736
108 2 Si -2.06113 86.1511 1.90942 2.4 -32.5147 -791913 1.29362e+07 7.86311e+06 -21661.2 -1.8974e+06 1.06311e+06
109 3 O 1.27475 85.8636 1.82397 -1.2 -9.91363 -7.30968e+06 -5.3942e+06 -3.92285e+06 -871703 -105950 598882
110 3 O -1.03161 89.8702 2.05632 -1.2 -8.59102 -664823 -6.56667e+06 -4.63557e+06 1.36299e+06 -298668 -1.68005e+06
111 3 O -1.32737 86.6729 0.568414 -1.2 -8.78762 -2.88514e+06 -6.30821e+06 179113 -38065.1 -128030 1.94138e+06
112 3 O -1.57173 86.9732 3.1881 -1.2 -9.52477 -2.31389e+06 -3.49871e+06 -2.41573e+06 -936478 1.14379e+06 -86556.7
113 1 Mg -2.50693 90.3813 0.44398 1.2 -7.30271 -1.5593e+06 4.07415e+06 -728035 -1.53299e+06 -1.74437e+06 -1.47633e+06
114 1 Mg 2.20393 93.0762 1.68462 1.2 -8.73552 1.40069e+06 -119174 35249 338460 -193188 643275
115 2 Si -0.254777 91.284 2.02157 2.4 -33.5627 2.55785e+06 1.35347e+07 5.68485e+06 732542 18048.4 697834
116 3 O 1.19872 91.315 1.90645 -1.2 -9.81149 -8.01225e+06 -5.62454e+06 -1.7962e+06 -105270 -802909 -693745
117 3 O -1.44521 95.0092 1.73708 -1.2 -9.21742 -5.44512e+06 -8.60251e+06 -4.19001e+06 218573 334105 -195757
118 3 O -0.941448 92.1023 0.819331 -1.2 -8.89179 -3.14348e+06 -3.94444e+06 -2.96037e+06 371081 -98980.6 -634222
119 1 Mg -2.51636 101.182 2.99412 1.2 -6.78749 -3.26966e+06 5.53936e+06 -3.20739e+06 -683475 1.95026e+06 592354
120 3 O -1.10085 91.8895 3.3247 -1.2 -8.55402 -1.89734e+06 -6.40447e+06 -2.14506e+06 -619781 -1.26188e+06 -1.25772e+06
121 1 Mg -2.53548 97.9623 4.54327 1.2 -7.88795 1.66364e+06 2.80758e+06 113695 1.13081e+06 1.14325e+06 77520.4
122 2 Si 0.145084 100.186 4.52614 2.4 -32.8191 2.89044e+06 1.38221e+07 5.6479e+06 711032 823633 -563426
123 3 O -1.37459 100.231 4.67434 -1.2 -9.52153 -2.75743e+06 -5.08937e+06 -2.23505e+06 594741 685222 133538
124 3 O 1.24874 95.9961 4.7665 -1.2 -9.367 -2.42446e+06 -4.10652e+06 -3.25932e+06 -732144 74522.3 -1.41811e+06
125 3 O 0.607621 99.2782 3.33297 -1.2 -9.58051 -2.2454e+06 -2.17302e+06 -1.26689e+06 -68625.5 575423 314529
126 3 O 0.735387 99.4173 5.90612 -1.2 -8.60962 -4.36764e+06 -3.40463e+06 5790.95 -144846 43460.4 -1.00763e+06
127 1 Mg -0.177757 95.6734 3.42985 1.2 -7.20192 -2.09877e+06 5.64064e+06 -2.40519e+06 854565 -2.18165e+06 3.19013e+06
128 1 Mg -0.299706 92.436 5.02464 1.2 -7.92756 1.9357e+06 1.40514e+06 1.40312e+06 -1.03963e+06 1922.93 388632
129 2 Si 1.86016 94.4199 4.70309 2.4 -33.2723 3.91852e+06 1.21516e+07 7.55085e+06 528167 106015 3.99063e+06
130 3 O -1.35453 94.6591 4.67401 -1.2 -9.66543 -3.23979e+06 -4.30405e+06 -3.87667e+06 1.57596e+06 165257 -1.78375e+06
131 3 O 1.01046 90.6502 5.0797 -1.2 -9.41404 -2.52359e+06 -8.55746e+06 -1.49344e+06 -628791 -722221 -397972
132 3 O 1.29435 93.8214 3.30303 -1.2 -8.52946 -3.67192e+06 -3.04419e+06 -1.91458e+06 -166243 811909 -169129
133 1 Mg -0.083889 95.388 0.352468 1.2 -7.42036 -2.49357e+06 3.12367e+06 -3.28624e+06 -71197.8 -692621 -1.66049e+06
134 3 O 1.12736 93.6809 5.82852 -1.2 -9.23881 -2.17536e+06 -3.93798e+06 -2.26185e+06 -41113 36711.9 67051.9
135 1 Mg -0.136162 98.4296 1.61159 1.2 -7.4001 284797 2.51185e+06 553791 -1.45594e+06 -503200 732615
136 2 Si -2.0917 96.3254 1.86047 2.4 -32.031 3.96123e+06 1.24718e+07 4.73548e+06 2.88029e+06 -178619 2.90891e+06
137 3 O 1.07284 96.3148 1.81122 -1.2 -9.81581 -207513 -5.71711e+06 -1.3654e+06 159470 -107192 -857010
138 3 O -1.33955 100.462 1.65166 -1.2 -10.2328 -3.34771e+06 -6.86613e+06 -5.73934e+06 1.12442e+06 -2.02969e+06 -30570.9
139 3 O -1.44541 97.2607 0.656664 -1.2 -10.0155 -2.05858e+06 -4.47227e+06 -1.79382e+06 95162.4 -1.01151e+06 -1.49474e+06
140 3 O -1.51237 97.2536 3.15435 -1.2 -9.52136 -2.13873e+06 -3.11831e+06 -2.84807e+06 -335666 1.54254e+06 6194.57
141 1 Mg -2.59655 100.71 0.338683 1.2 -6.71797 -5.35923e+06 3.68198e+06 -2.49013e+06 -345544 -2.00741e+06 -2.94538e+06
142 1 Mg 7.17967 104.133 1.15041 1.2 -7.71278 83408.7 -789636 2.44878e+06 737360 -909642 1.31518e+06
143 2 Si -0.587514 101.845 1.48403 2.4 -31.5795 3.61687e+06 1.02079e+07 6.46115e+06 -98369.5 1.58232e+06 -1.00581e+06
144 3 O 1.04266 101.805 1.63453 -1.2 -9.90902 -459115 -4.60802e+06 -4.08232e+06 1.60106e+06 1.0463e+06 -144216
145 3 O 3.52576 105.783 1.14077 -1.2 -9.92578 -1.39682e+06 -3.85296e+06 -4.38694e+06 -2.78897e+06 2.45288e+06 858681
146 3 O -1.08578 102.648 0.222143 -1.2 -9.71748 -2.00693e+06 -1.59246e+06 -4.5582e+06 224972 -995637 -517639
147 1 Mg 2.23218 111.46 2.74302 1.2 -6.7421 -695673 3.91108e+06 -898708 -723374 1.71442e+06 1.84996e+06
148 3 O -1.02747 102.643 2.74952 -1.2 -9.26577 -4.6342e+06 -4.53644e+06 -3.17113e+06 1.38381e+06 -223664 -635729
149 1 Mg 2.24487 108.563 4.25321 1.2 -8.92536 2.78323e+06 735356 2.80998e+06 935863 275050 309201
150 2 Si 4.87081 110.466 4.56661 2.4 -33.7429 5.8023e+06 1.28884e+07 7.0782e+06 -1.3247e+06 -507654 1.265e+06
151 3 O 3.32613 110.417 4.61898 -1.2 -9.18817 -2.85632e+06 -4.28561e+06 -1.47194e+06 -1.52993e+06 524248 -37659.6
152 3 O 5.96678 106.715 4.34372 -1.2 -8.44496 -3.82631e+06 -5.34883e+06 -1.66009e+06 -1.55257e+06 968627 -655151
153 3 O 5.56266 109.593 3.26094 -1.2 -8.72322 -2.45427e+06 -1.6912e+06 -911255 -169433 -1.74511e+06 669830
154 3 O 5.60677 109.772 5.83763 -1.2 -8.61544 -4.40587e+06 -3.97234e+06 -815496 745742 790632 108920
155 1 Mg 4.69059 106.169 2.84801 1.2 -7.82779 777968 4.35212e+06 201874 697364 -1.66713e+06 242918
156 1 Mg -0.332503 103.159 4.54162 1.2 -8.41648 168797 -573547 -681444 445114 431325 38178
157 2 Si 6.69323 105.246 4.43349 2.4 -33.9992 1.15513e+07 1.18456e+07 5.64931e+06 252933 -1.79014e+06 -2.60837e+06
158 3 O 3.63847 105.376 4.50317 -1.2 -8.46023 -2.36801e+06 -4.28624e+06 -2.18486e+06 564155 -4.11525e+06 1.23957e+06
159 3 O 0.767762 101.666 4.56456 -1.2 -9.58929 -2.84683e+06 -7.43366e+06 -2.38753e+06 1.18171e+06 -935775 1.22705e+06
160 3 O 6.5053 104.843 2.93967 -1.2 -8.63818 -3.83021e+06 -5.25072e+06 -2.01752e+06 -306171 518705 -1.37491e+06
161 1 Mg 4.94245 106.027 -0.157226 1.2 -7.12946 -3.11973e+06 4.51726e+06 408390 938842 2.39855e+06 -1.46991e+06
162 3 O 5.77473 104.479 5.51937 -1.2 -8.48388 -4.44191e+06 -3.86216e+06 833531 2.10132e+06 -1.7725e+06 2.41045e+06
163 1 Mg 4.67844 109.185 1.4319 1.2 -8.48553 853395 -397266 5.46679e+06 -1.02515e+06 -542248 -890760
164 2 Si 2.75813 107.257 1.13137 2.4 -32.9096 5.02922e+06 7.62906e+06 1.19027e+07 -610239 -1.60068e+06 -2.28336e+06
165 3 O 6.02917 107.318 1.12841 -1.2 -9.36513 -5.96269e+06 -1.36662e+06 -5.48067e+06 -422638 -1.32422e+06 1.82879e+06
166 3 O 3.7345 111.289 1.5546 -1.2 -9.79117 -3.15446e+06 -5.8651e+06 -3.45044e+06 -1.46302e+06 434537 -282067
167 3 O 3.54124 108.095 -0.0234471 -1.2 -8.72046 -4.28431e+06 -497872 -4.06488e+06 -99213.5 -301313 -120189
168 3 O 3.31316 108.007 2.53653 -1.2 -8.61074 -5.15452e+06 -15709.8 -1.25368e+06 -974334 -120788 977377
169 1 Mg 2.19323 111.769 0.0425681 1.2 -6.98476 448515 4.50911e+06 1.08458e+06 -736090 -1.44529e+06 -1.3086e+06
170 1 Mg 6.96942 114.48 1.5874 1.2 -7.79044 1.16187e+06 -394295 4.42759e+06 2.22566e+06 248734 -485240
171 2 Si 4.12937 112.774 1.58307 2.4 -31.9312 1.21587e+06 8.55091e+06 8.87857e+06 -1.93274e+06 464771 629849
172 3 O 5.75445 112.601 1.72595 -1.2 -9.86722 -139063 -3.92095e+06 -3.20707e+06 -2.55345e+06 -412277 -568430
173 3 O 3.45689 116.401 1.27377 -1.2 -8.79301 -2.15221e+06 -2.33318e+06 -4.01318e+06 -165811 -190612 -2.05043e+06
174 3 O 3.57547 113.416 0.290599 -1.2 -9.81241 -1.07917e+06 -4.68931e+06 -2.98793e+06 1.37631e+06 -1.1269e+06 409627
175 1 Mg 2.28718 122.534 2.78916 1.2 -7.11418 -1.37512e+06 4.42476e+06 -806973 -722481 1.04399e+06 766904
176 3 O 3.52937 113.436 2.88858 -1.2 -9.55343 -3.23778e+06 -4.02837e+06 -2.06726e+06 1.23203e+06 -64629.4 -625555
177 1 Mg 2.09346 119.453 4.10237 1.2 -8.705 2.73439e+06 2.03385e+06 2.90026e+06 1.17379e+06 105645 490207
178 2 Si 4.88586 121.195 4.27378 2.4 -34.595 2.80138e+06 1.07509e+07 6.98107e+06 1.38205e+06 -708107 1.04981e+06
179 3 O 3.43117 121.425 4.38527 -1.2 -8.96741 -7.94092e+06 -4.22264e+06 -3.47392e+06 51314.2 90028.5 74562.3
180 3 O 6.15412 117.399 4.36277 -1.2 -7.3532 -5.40899e+06 -5.39964e+06 -2.60303e+06 -1.34959e+06 -225847 -262117
181 3 O 5.56198 120.558 3.01048 -1.2 -8.71027 -2.99328e+06 -4.18431e+06 -3.69819e+06 -9233.77 -490452 -502521
182 3 O 5.50736 120.466 5.4887 -1.2 -8.06786 -5.57577e+06 -4.78658e+06 -3.15134e+06 1.07327e+06 8994.81 266204
183 1 Mg 4.84039 116.847 2.89789 1.2 -8.5298 -8737.16 2.10906e+06 1.55372e+06 1.77375e+06 -2.22431e+06 2.52007e+06
184 1 Mg 4.63942 113.917 4.4507 1.2 -8.26896 1.43945e+06 3.84456e+06 1.62923e+06 -824273 -793491 -435762
185 2 Si 6.72995 115.856 4.39981 2.4 -35.1003 9.00093e+06 9.68377e+06 3.00329e+06 -697397 -464294 1.34688e+06
186 3 O 3.5409 115.99 4.37521 -1.2 -8.29544 -5.38065e+06 -3.60392e+06 -1.66188e+06 2.04426e+06 -420637 -586317
187 3 O 5.37282 111.94 4.5524 -1.2 -9.27748 -2.73654e+06 -4.60308e+06 -1.23361e+06 51810.8 -288098 641181
188 3 O 6.02526 115.308 3.14438 -1.2 -8.87685 -4.91147e+06 -5.7424e+06 -4.97485e+06 1.01446e+06 314164 -3.38713e+06
189 1 Mg 4.88044 116.964 -0.260521 1.2 -7.97725 -602194 2.11521e+06 1.02393e+06 1.28173e+06 1.96367e+06 -777223
190 3 O 5.96791 115.44 5.62756 -1.2 -8.36426 -4.51495e+06 -6.71575e+06 -4.40379e+06 -293914 354051 4.0145e+06
191 1 Mg 4.53651 119.843 1.05988 1.2 -7.6668 220831 -663295 3.02485e+06 -1.87147e+06 43601 554855
192 2 Si 2.80121 117.855 1.32039 2.4 -33.4803 7.19782e+06 6.57261e+06 1.00764e+07 -1.11949e+06 642385 3.51468e+06
193 3 O 5.97326 117.83 1.26827 -1.2 -9.19676 -1.68433e+06 -2.44605e+06 -3.91563e+06 378642 -314743 -1.75874e+06
194 3 O 3.71225 121.684 1.37949 -1.2 -10.2353 -3.7183e+06 -6.64722e+06 -3.16865e+06 -42071.8 -1.4679e+06 2.08504e+06
195 3 O 3.50097 118.572 0.0455499 -1.2 -9.64679 -3.23756e+06 -4.17404e+06 -3.58438e+06 -1.01047e+06 -1.14987e+06 -395225
196 3 O 3.38971 118.559 2.63172 -1.2 -8.63818 -3.3308e+06 -1.8826e+06 -1.77801e+06 -1.23919e+06 430071 -497884
197 1 Mg 2.26586 122.11 -0.215045 1.2 -6.60254 -3.68829e+06 4.39034e+06 -661082 -243693 -1.18254e+06 -1.89616e+06
198 1 Mg 7.26114 125.175 1.32845 1.2 -7.73375 1.42595e+06 1.32208e+06 2.82222e+06 740973 105772 -428725
199 2 Si 4.36463 123.04 1.33306 2.4 -31.4467 1.07737e+06 1.09249e+07 7.90785e+06 -1.14468e+06 938437 -2.66357e+06
200 3 O 5.89663 123.002 1.25315 -1.2 -10.3011 -1.49829e+06 -5.49745e+06 -3.70157e+06 -89832.5 511972 2.0777e+06
201 3 O 3.22523 127.257 1.49115 -1.2 -9.59733 -2.95165e+06 -3.49668e+06 -3.02913e+06 -2.56911e+06 -557670 1.24603e+06
202 3 O 3.66217 123.891 0.0730898 -1.2 -9.80816 -1.57678e+06 -1.95806e+06 -628482 129118 -5292.17 618937
203 1 Mg 2.76314 133.33 2.84141 1.2 -7.65739 -2.59548e+06 2.72602e+06 -2.60938e+06 -2.46059e+06 3.45744e+06 3.32354e+06
204 3 O 3.80038 123.895 2.6602 -1.2 -9.71661 -2.45895e+06 -3.55732e+06 -1.96813e+06 54865.6 -1.23481e+06 2.23884e+06
205 1 Mg 2.8068 130.054 4.32594 1.2 -7.2058 870961 3.24298e+06 -1.75142e+06 1.62823e+06 -398191 -355349
206 2 Si 5.48853 132.102 4.21646 2.4 -32.925 6.41895e+06 9.81796e+06 6.71007e+06 915617 -239879 4.28539e+06
207 3 O 3.70569 132.107 4.18754 -1.2 -9.02787 790195 -3.65704e+06 -3.12053e+06 750885 1.24337e+06 -2.66828e+06
208 3 O 6.26547 128.127 4.09341 -1.2 -9.76141 -340572 -4.486e+06 -748844 -100790 598567 1.81443e+06
209 3 O 5.77499 131.292 2.93526 -1.2 -8.34692 -6.06431e+06 -4.50555e+06 529106 488367 1.55679e+06 -539892
210 3 O 6.02687 131.635 5.55408 -1.2 -10.3173 -2.25341e+06 -4.91479e+06 -4.13806e+06 -936346 277364 -1.7279e+06
211 1 Mg 4.65653 127.631 2.62769 1.2 -7.09083 -2.51442e+06 4.9439e+06 -3.01622e+06 -251581 -910355 853359
212 1 Mg 4.66175 124.656 4.22406 1.2 -7.80899 1.41032e+06 2.6122e+06 1.28992e+06 -353813 -738675 -1.83969e+06
213 2 Si 6.93055 126.589 4.32347 2.4 -32.1694 1.54523e+06 1.23534e+07 5.70677e+06 411026 2.58275e+06 -1.98085e+06
214 3 O 3.66249 126.736 4.21923 -1.2 -10.1339 -4.24391e+06 -3.028e+06 -3.3225e+06 642450 -626084 1.18595e+06
215 3 O 5.60105 122.685 4.32273 -1.2 -8.76295 -3.65499e+06 -5.41064e+06 -3.02292e+06 373549 -1.02381e+06 796356
216 3 O 6.24636 125.719 3.00934 -1.2 -8.97289 -971780 -2.30442e+06 -771180 -331434 1.32807e+06 1.9769e+06
217 1 Mg 4.56968 127.877 -0.451824 1.2 -7.00302 -2.81656e+06 2.33956e+06 -1.08979e+06 832111 2.10997e+06 -1.75126e+06
218 3 O 6.20719 126.062 5.50385 -1.2 -9.66584 -2.0444e+06 -5.32265e+06 -4.79735e+06 376371 1.17922e+06 2.8551e+06
219 1 Mg 4.7761 130.327 1.28456 1.2 -8.05369 -709380 1.47065e+06 1.05592e+06 419227 862027 1.13294e+06
220 2 Si 2.53776 128.745 1.33416 2.4 -31.58 4.18526e+06 1.61556e+07 6.06038e+06 1.47263e+06 -1.244e+06 2.34952e+06
221 3 O 5.71323 128.645 1.35355 -1.2 -10.4106 -1.57511e+06 -7.09095e+06 -2.26418e+06 1.95353e+06 -42478.8 -740572
222 3 O 3.73884 132.787 1.21251 -1.2 -8.83151 -3.5836e+06 -3.02271e+06 -2.09529e+06 2.15736e+06 -416358 293567
223 3 O 3.36759 129.269 0.0270087 -1.2 -9.85121 574018 -5.85595e+06 -4.51236e+06 1.21595e+06 -2.08323e+06 -1.20002e+06
224 3 O 3.35216 129.729 2.4519 -1.2 -8.96093 -3.83568e+06 -5.07686e+06 -792135 745197 2.47066e+06 192555
225 1 Mg 2.63954 133.404 -0.213884 1.2 -7.46894 -1.07538e+06 4.15696e+06 -99815.9 -619579 -2.07165e+06 -775184
226 1 Mg 7.23754 136.398 1.39673 1.2 -7.75461 2.61227e+06 1.14224e+06 -107099 257622 248604 888596
227 2 Si 4.52651 134.317 1.29898 2.4 -32.8471 3.39781e+06 1.37837e+07 3.15218e+06 1.06332e+06 -1.85958e+06 745031
228 3 O 6.02629 134.41 1.17381 -1.2 -9.01343 -3.39631e+06 -3.99983e+06 -3.72039e+06 1.9125e+06 -2.2064e+06 942956
229 3 O 3.69102 137.915 1.61333 -1.2 -9.47713 -3.45835e+06 -2.6117e+06 -1.9008e+06 -1.79644e+06 78656.2 -600307
230 3 O 4.0413 135.088 0.117005 -1.2 -9.28293 -5.79435e+06 -4.28561e+06 -2.5165e+06 835162 -1.68178e+06 844259
231 1 Mg 2.84029 143.441 2.82241 1.2 -7.63933 -1.58078e+06 3.77999e+06 -899060 -1.1608e+06 882518 922057
232 3 O 3.87207 134.86 2.69786 -1.2 -9.54807 -4.6597e+06 -6.11392e+06 -3.0618e+06 -1.52661e+06 -1.99786e+06 -780570
233 1 Mg 2.70268 140.688 4.64295 1.2 -8.51196 1.77278e+06 942832 -2.14616e+06 332443 42105.8 -186801
234 2 Si 5.461 142.814 4.45832 2.4 -32.4619 6.58233e+06 1.51861e+07 5.19523e+06 -241814 -2.88396e+06 -837813
235 3 O 3.87282 142.784 4.62021 -1.2 -9.40548 -995125 -6.94209e+06 -4.29506e+06 373229 -968234 -1.10905e+06
236 3 O 6.29915 139.029 4.5045 -1.2 -8.93846 -6.6153e+06 -3.86156e+06 -1.88658e+06 -1.05109e+06 610374 -1.893e+06
237 3 O 6.2883 142.111 3.21588 -1.2 -9.14675 -1.92543e+06 -6.4017e+06 -1.18641e+06 -1.12849e+06 -1.49517e+06 1.43109e+06
238 3 O 6.06659 142.036 5.69556 -1.2 -9.44813 -5.22775e+06 -2.17799e+06 -3.0512e+06 103253 1.6345e+06 -1.23123e+06
239 1 Mg 4.9471 138.698 3.01173 1.2 -7.65357 -2.96537e+06 3.57296e+06 -156022 1.75989e+06 -2.94852e+06 3.43688e+06
240 1 Mg 4.94208 135.344 4.06542 1.2 -7.52627 -602137 1.67606e+06 215793 -1.03765e+06 -2.20156e+06 -311900
241 2 Si 6.84283 137.446 4.40923 2.4 -32.0624 9.12395e+06 1.26127e+07 3.23808e+06 1.91545e+06 -1.25538e+06 -47081.9
242 3 O 3.7544 137.771 4.59847 -1.2 -8.89969 801068 -6.26827e+06 -2.96573e+06 2.42808e+06 -1.58096e+06 -484624
243 3 O 5.96908 133.607 3.90286 -1.2 -9.27707 -4.67768e+06 -3.89035e+06 -4.11002e+06 571515 1.11127e+06 -2.45002e+06
244 3 O 6.31534 137.056 3.07903 -1.2 -9.77099 -3.25293e+06 -4.99816e+06 -5.93594e+06 14836.8 -429255 -2.15909e+06
245 1 Mg 4.80966 138.644 -0.0829713 1.2 -7.37001 -1.6734e+06 3.91655e+06 427107 1.82585e+06 1.68227e+06 -767714
246 3 O 6.0746 136.594 5.6147 -1.2 -9.55234 -1.10197e+06 -2.98797e+06 510050 1.22505e+06 -887935 -368023
247 1 Mg 5.21031 141.301 1.37604 1.2 -7.59921 794253 2.46297e+06 -458301 -454418 309841 1.0409e+06
248 2 Si 2.92484 139.484 1.65295 2.4 -31.6642 4.78174e+06 1.4052e+07 6.01495e+06 -304501 2.8544e+06 2.66431e+06
249 3 O 6.09633 139.455 1.42326 -1.2 -9.92908 -31280.3 -7.12404e+06 -2.39294e+06 -977310 1.12835e+06 -98038.3
250 3 O 4.40497 143.493 1.50441 -1.2 -9.11832 -5.86845e+06 -7.20187e+06 206326 -973643 -837115 -830356
251 3 O 3.61338 140.262 0.554343 -1.2 -9.95613 -4.84351e+06 -4.42317e+06 -2.30874e+06 877022 -637070 504430
252 3 O 3.60665 140.137 3.05468 -1.2 -9.05144 -2.12914e+06 -5.24115e+06 -3.01569e+06 1.83236e+06 2.23084e+06 1.36684e+06
253 1 Mg 3.07971 144.283 -0.296526 1.2 -7.30905 -858313 4.40458e+06 -406343 -724394 -1.14344e+06 -1.01728e+06
254 1 Mg 7.86334 147.054 2.39527 1.2 -7.92826 2.17506e+06 1.77736e+06 1.64353e+06 754223 233113 -79628.5
255 2 Si 5.1547 144.836 1.46011 2.4 -34.248 2.83276e+06 1.12751e+07 5.70771e+06 -1.01656e+06 320267 -1.00741e+06
256 3 O 6.5902 144.57 1.50075 -1.2 -9.04181 -8.46842e+06 -5.30893e+06 -1.3992e+06 24612.6 274132 336130
257 3 O 4.3385 148.858 2.54141 -1.2 -9.03525 -913221 -708762 -1.8574e+06 -482534 -986767 -121807
258 3 O 4.50923 145.586 0.11136 -1.2 -8.43092 -2.09815e+06 -6.11877e+06 -4.1749e+06 213150 2.46785e+06 833810
259 1 Mg 2.78989 153.93 2.74794 1.2 -6.59928 -3.60687e+06 1.56201e+06 -3.48946e+06 918009 -2.10393e+06 396917
260 3 O 4.60556 145.738 2.65833 -1.2 -8.65429 -2.04976e+06 -3.866e+06 -3.39989e+06 881853 -943637 1.07062e+06
261 1 Mg 2.36739 153.83 5.90892 1.2 -7.68146 -222778 -219371 -1.52425e+06 -52892.5 -460793 -2.02207e+06
262 2 Si 4.87355 152.766 4.09207 2.4 -32.0797 1.02973e+07 1.06335e+07 5.52581e+06 -1.45481e+06 -132991 2.22674e+06
263 3 O 3.60361 153.922 4.33133 -1.2 -9.0872 -2.40044e+06 -2.01574e+06 -5.48164e+06 -3.04e+06 291008 36146.9
264 3 O 7.2069 149.73 5.90303 -1.2 -8.78987 -1.96139e+06 -3.89234e+06 -560808 -716299 798860 2.11997e+06
265 3 O 5.60911 153.463 2.94384 -1.2 -9.86978 -3.00451e+06 -4.43587e+06 -5.01732e+06 1.58437e+06 -205236 372281
266 3 O 6.09082 152.39 5.07653 -1.2 -9.08022 -366606 -4.04558e+06 -4.95699e+06 854924 2.05079e+06 -352443
267 1 Mg 5.99058 149.233 4.01064 1.2 -7.31996 -640411 1.68326e+06 1.63786e+06 1.58953e+06 371668 2.38219e+06
268 1 Mg 5.34542 146.27 4.56006 1.2 -7.85601 524657 2.21829e+06 -95618.3 -311467 458141 2.02656e+06
269 2 Si 7.86771 148.171 5.58465 2.4 -32.5549 7.36787e+06 1.06634e+07 8.26639e+06 -182471 -2.06486e+06 3.48373e+06