ITEM: TIMESTEP
21700
ITEM: NUMBER OF ATOMS
5600
ITEM: BOX BOUNDS xy xz yz pp pp pp
0.0000000000000000e+00 7.1234999999999999e+00 0.0000000000000000e+00
0.0000000000000000e+00 2.0198500000000001e+02 2.3744999999999998e+00
0.0000000000000000e+00 1.1958400000000000e+02 0.0000000000000000e+00
ITEM: ATOMS id type element xu yu zu q c_pe c_s[1] c_s[2] c_s[3] c_s[4] c_s[5] c_s[6]
1 1 Mg -1.5868 48.9558 -0.759377 1.2 -7.13495 -1.47197e+06 -963577 2.83269e+06 413664 99999.3 -146719
2 1 Mg 2.95986 50.9904 2.34171 1.2 -7.3977 -3.38109e+06 6.10001e+06 571660 912952 -159112 -383246
3 2 Si 0.828071 50.737 0.515244 2.4 -32.7174 6.69533e+06 6.88907e+06 5.13496e+06 -1.78771e+06 1.32433e+06 1.01306e+06
4 3 O 2.09383 49.8442 0.625823 -1.2 -8.9462 -3.85148e+06 -2.88204e+06 -4.36326e+06 484473 -34642 2.63295e+06
5 3 O -1.22072 53.4699 1.88658 -1.2 -9.44514 -1.88616e+06 -4.29501e+06 -3.02216e+06 -530822 592248 -252485
6 3 O -0.0680864 50.1783 -0.67995 -1.2 -9.34703 -4.46268e+06 -1.95202e+06 -4.55904e+06 920497 127714 425282
7 1 Mg -2.21176 59.1793 3.35593 1.2 -7.88729 -1.84198e+06 2.66299e+06 -58667.8 -568295 1.4466e+06 1.77349e+06
8 3 O 0.0212252 50.7882 1.81228 -1.2 -9.54642 -4.68861e+06 -5.81364e+06 -6.00005e+06 -211733 -496918 -410840
9 1 Mg -2.18293 56.386 4.79565 1.2 -7.84351 840321 2.03217e+06 2.12654e+06 888028 -4135.33 1.12196e+06
10 2 Si 0.435852 58.2591 4.81005 2.4 -33.4873 6.03594e+06 8.3748e+06 7.52675e+06 -624890 87080.7 32482.3
11 3 O -1.14279 58.3712 4.8307 -1.2 -9.40609 -2.73476e+06 -3.81914e+06 -3.71855e+06 -453988 -260316 711283
12 3 O 1.50762 54.2846 4.84363 -1.2 -9.85675 -2.50688e+06 -2.44022e+06 -2.26019e+06 -1.12791e+06 549253 -327232
13 3 O 1.09441 57.5698 3.59818 -1.2 -9.27629 -1.89824e+06 -3.76621e+06 -5.21663e+06 -86144.3 -288711 -1.77542e+06
14 3 O 1.14751 57.554 6.05827 -1.2 -8.8815 -3.02874e+06 -3.27348e+06 -3.5074e+06 -181581 834864 1.50645e+06
15 1 Mg 0.175514 53.8838 3.37898 1.2 -7.327 -535006 4.03032e+06 -1.07443e+06 687281 -1.29154e+06 1.27716e+06
16 1 Mg 0.646869 50.1276 3.41047 1.2 -7.18373 632272 2.75208e+06 -4.2017e+06 -345818 -887685 1.65956e+06
17 2 Si 2.27988 52.8332 4.91204 2.4 -32.3962 4.94675e+06 9.42306e+06 9.41538e+06 -612757 -281416 25495.4
18 3 O -0.976712 53.084 4.83949 -1.2 -9.70943 -3.43464e+06 -4.03684e+06 -3.18094e+06 671696 -1.14404e+06 20751.8
19 3 O 2.38402 49.0808 3.41999 -1.2 -7.20299 1.53483e+06 1.38135e+06 -1.78769e+06 -577120 -853602 -1.61846e+06
20 3 O 1.80128 52.0312 3.60998 -1.2 -9.50237 -2.73734e+06 -2.8327e+06 -2.43084e+06 -1.35705e+06 227051 376605
21 1 Mg 0.0451291 53.8982 0.416384 1.2 -7.11603 -1.69695e+06 3.50776e+06 232523 1.77653e+06 2.6507e+06 -1.40007e+06
22 3 O 1.61568 51.9582 6.17238 -1.2 -10.5816 -2.27364e+06 -2.22794e+06 -3.96706e+06 1.81363e+06 234180 -715176
23 1 Mg 0.127865 56.745 1.87776 1.2 -7.90291 1.13542e+06 721430 3.0325e+06 -1.6045e+06 486608 571727
24 2 Si -1.86034 54.9616 1.89379 2.4 -32.6173 2.95419e+06 1.06154e+07 7.55519e+06 -749613 464177 -859673
25 3 O 1.30669 54.9288 1.97131 -1.2 -9.72145 -829994 -3.26358e+06 -4.15719e+06 77373.1 579562 284777
26 3 O -0.962052 58.695 1.83934 -1.2 -9.32476 -2.62521e+06 -3.50098e+06 -4.10166e+06 2.04901e+06 406700 -872073
27 3 O -1.4122 55.6679 0.575516 -1.2 -9.46124 -3.39192e+06 -2.76183e+06 -2.47608e+06 -873101 802015 68832.3
28 3 O -1.22822 55.6305 3.14579 -1.2 -9.68887 -3.22417e+06 -3.99602e+06 -2.41241e+06 -618371 -387147 -892346
29 1 Mg -2.34162 58.9773 0.466939 1.2 -7.44263 -1.49679e+06 3.81782e+06 239582 -591822 -1.74685e+06 -1.15719e+06
30 1 Mg 2.45298 62.2025 1.96246 1.2 -8.24677 1.71238e+06 879315 2.4578e+06 605245 -73434.5 59657.3
31 2 Si -0.226404 60.1888 1.84686 2.4 -32.9969 6.77148e+06 9.51768e+06 8.49862e+06 -75042.9 -788251 -1699.83
32 3 O 1.32947 60.0738 1.87105 -1.2 -9.5938 -2.41281e+06 -2.78687e+06 -3.40225e+06 -387332 -1.19483e+06 823268
33 3 O -1.22265 63.9819 1.91698 -1.2 -9.45935 -2.02604e+06 -3.47497e+06 -3.01604e+06 -885912 38118.3 -1.87282e+06
34 3 O -0.776328 60.9161 0.594401 -1.2 -9.04671 -3.40445e+06 -2.71552e+06 -3.7463e+06 61171.7 511035 978449
35 1 Mg -2.41444 69.6108 3.07633 1.2 -7.43585 -921363 4.11239e+06 -562495 -622415 1.5328e+06 1.00249e+06
36 3 O -1.0435 60.8363 3.12664 -1.2 -9.07907 -1.4836e+06 -2.49158e+06 -3.18081e+06 -1.01903e+06 -1.05858e+06 67769.5
37 1 Mg -2.28662 66.7384 4.88909 1.2 -8.08469 2.43441e+06 1.01168e+06 1.76763e+06 798603 -325841 916365
38 2 Si 0.330704 68.7542 4.65161 2.4 -33.0579 4.83132e+06 9.66084e+06 8.89241e+06 -646899 410835 -1.2956e+06
39 3 O -1.21125 68.8155 4.71129 -1.2 -9.54408 -2.27061e+06 -3.95335e+06 -4.23141e+06 -542554 355135 484470
40 3 O 1.31455 64.9376 4.97844 -1.2 -9.64188 -2.36216e+06 -5.02455e+06 -3.84134e+06 -702370 317189 -220245
41 3 O 1.02075 67.9989 3.44497 -1.2 -9.16355 -3.49326e+06 -4.80141e+06 -3.19027e+06 240843 -1.46805e+06 -810460
42 3 O 1.01473 68.1203 6.04204 -1.2 -9.07678 -3.86043e+06 -2.45062e+06 -2.05279e+06 -1.07224e+06 1.58637e+06 80890.7
43 1 Mg 0.0850406 64.5046 3.48097 1.2 -7.69016 -1.18808e+06 3.9232e+06 -605770 1.4971e+06 -2.46808e+06 1.33819e+06
44 1 Mg 0.160211 61.6289 4.77929 1.2 -8.36902 2.18696e+06 362836 3.29604e+06 -1.60429e+06 -240718 -220038
45 2 Si 2.03545 63.4878 4.89804 2.4 -32.821 5.39534e+06 9.56343e+06 7.37992e+06 -935718 184532 -1.38633e+06
46 3 O -1.17246 63.5232 4.95248 -1.2 -9.46263 -2.08133e+06 -3.68369e+06 -3.86867e+06 -49117.5 147483 1.13274e+06
47 3 O 1.10128 59.6897 4.85892 -1.2 -8.96952 -4.27338e+06 -5.68203e+06 -3.61078e+06 729655 42408.3 -17125.1
48 3 O 1.36083 62.8785 3.5776 -1.2 -9.4677 -2.6827e+06 -3.14142e+06 -3.64121e+06 561184 672744 124020
49 1 Mg 0.139687 64.3545 0.42703 1.2 -7.41165 -1.32079e+06 4.11713e+06 596275 952080 1.56516e+06 -1.15687e+06
50 3 O 1.37224 62.6736 6.09162 -1.2 -9.02674 -5.10227e+06 -3.28288e+06 -2.0904e+06 -96165.2 -297222 909873
51 1 Mg 0.123755 67.3835 1.79825 1.2 -8.0683 674845 948871 2.45049e+06 -1.03664e+06 -547995 -1.0916e+06
52 2 Si -1.88336 65.5013 1.79979 2.4 -32.623 4.2394e+06 1.03207e+07 8.28539e+06 -489174 363401 168008
53 3 O 1.34635 65.4828 1.94981 -1.2 -9.61382 -2.35603e+06 -3.50025e+06 -2.98767e+06 299612 -589236 -659653
54 3 O -0.78092 69.2574 1.87166 -1.2 -9.20412 -3.23345e+06 -6.76694e+06 -4.2328e+06 624442 585023 659083
55 3 O -1.20881 66.2279 0.586845 -1.2 -9.90837 -1.66143e+06 -2.02885e+06 -2.44558e+06 -67748.9 956.404 268698
56 3 O -1.25061 66.1152 3.17828 -1.2 -9.06043 -3.66581e+06 -3.6673e+06 -498153 -214280 -230973 -993735
57 1 Mg -2.24813 69.7219 0.273336 1.2 -7.52028 -1.23157e+06 3.31374e+06 -732699 -999837 -618368 -2.2986e+06
58 1 Mg 2.29441 72.5443 1.61401 1.2 -7.94583 1.62249e+06 1.06581e+06 2.30019e+06 783093 -108085 -188049
59 2 Si -0.259423 70.7462 1.7713 2.4 -33.0833 3.48251e+06 9.6791e+06 7.50549e+06 -980174 -1.32829e+06 -725134
60 3 O 1.31054 70.6235 1.65281 -1.2 -9.74887 -2.84268e+06 -4.39953e+06 -4.51129e+06 -1.76566e+06 -528689 300541
61 3 O -1.29004 74.3588 1.61934 -1.2 -9.27617 -737621 -3.55823e+06 -3.36965e+06 -974037 -117967 -60945.4
62 3 O -0.933333 71.2869 0.479313 -1.2 -9.32847 -3.16134e+06 -4.54205e+06 -3.4939e+06 126420 119658 1.42083e+06
63 1 Mg -2.37235 80.0423 3.03507 1.2 -7.60509 -363870 4.01929e+06 -63111.4 -926605 997988 1.049e+06
64 3 O -0.980945 71.4033 3.00551 -1.2 -9.20221 -2.04456e+06 -5.07146e+06 -3.56268e+06 167007 -980620 -408967
65 1 Mg -2.25755 77.1414 4.64773 1.2 -8.25672 801504 1.44746e+06 1.498e+06 879321 54059.3 228571
66 2 Si 0.379363 78.9258 4.64404 2.4 -33.2349 7.7083e+06 1.14529e+07 6.12135e+06 -106937 361433 -553148
67 3 O -1.23115 79.1234 4.54435 -1.2 -9.24416 -449395 -3.55736e+06 -2.54904e+06 -1.63172e+06 -160706 -48477.3
68 3 O 1.52228 75.3184 4.60641 -1.2 -9.25079 -2.7214e+06 -4.5534e+06 -2.32624e+06 -1.35485e+06 131413 111712
69 3 O 1.0608 78.265 3.42319 -1.2 -9.55377 -3.95713e+06 -4.7839e+06 -2.8743e+06 237248 -1.08314e+06 -2.0644e+06
70 3 O 0.992201 78.3777 6.00491 -1.2 -9.08708 -3.24298e+06 -4.36727e+06 -1.92709e+06 -43549.2 1.46656e+06 1.04871e+06
71 1 Mg 0.107482 74.7892 3.09804 1.2 -7.67445 -1.46903e+06 4.14192e+06 -167528 725020 -711422 1.68572e+06
72 1 Mg -0.0351343 72.0238 4.67024 1.2 -8.02315 909300 629920 1.98506e+06 -402090 145981 -453850
73 2 Si 2.1736 73.8152 4.60914 2.4 -32.5051 4.19477e+06 1.2136e+07 8.0546e+06 452330 -95164.9 -1.13462e+06
74 3 O -1.03929 73.9613 4.60402 -1.2 -10.0424 -2.61281e+06 -4.76715e+06 -3.23859e+06 1.15337e+06 752874 345105
75 3 O 0.974454 70.1882 4.57926 -1.2 -9.55395 -3.26582e+06 -6.23708e+06 -3.22197e+06 492899 -189292 326441
76 3 O 1.35361 73.1825 3.36183 -1.2 -9.48286 -2.19709e+06 -4.57859e+06 -1.92036e+06 787470 1.1385e+06 -332848
77 1 Mg -0.018938 75.0561 0.131825 1.2 -7.45328 -2.19859e+06 4.1759e+06 -533701 1.38335e+06 1.74448e+06 -1.77224e+06
78 3 O 1.4967 73.0993 5.90985 -1.2 -9.34758 -1.58844e+06 -3.58541e+06 -2.22713e+06 -2813.24 -1.56785e+06 853375
79 1 Mg 0.12193 77.9351 1.7706 1.2 -7.80421 952027 73224.1 975955 -126427 -653003 -615546
80 2 Si -2.06767 75.8699 1.65905 2.4 -32.7506 3.33021e+06 1.12489e+07 8.43109e+06 -932436 358110 86390.1
81 3 O 1.19403 75.8028 1.63062 -1.2 -9.91088 -4.52354e+06 -3.75462e+06 -3.69522e+06 -543374 197841 135119
82 3 O -0.926054 79.5587 1.63378 -1.2 -9.70683 -937837 -5.50351e+06 -3.81976e+06 1.135e+06 713506 -147713
83 3 O -1.40379 76.523 0.370661 -1.2 -9.37225 -2.63989e+06 -4.62254e+06 -2.12935e+06 597144 -361684 1.15322e+06
84 3 O -1.37293 76.5309 2.97171 -1.2 -9.06654 -2.79948e+06 -3.18061e+06 -2.21926e+06 437589 1.66856e+06 -68285.8
85 1 Mg -2.42749 79.9585 0.0239922 1.2 -7.02092 -678546 4.11937e+06 -145680 -909366 -836046 -1.57462e+06
86 1 Mg 2.31262 82.8693 1.70798 1.2 -8.33906 2.2503e+06 -161816 2.45073e+06 719726 166782 -1.21829e+06
87 2 Si -0.311837 81.0677 1.57722 2.4 -32.9561 2.88656e+06 9.7035e+06 9.46267e+06 552568 -152953 -333905
88 3 O 1.23227 81.0725 1.67962 -1.2 -9.83939 -2.70867e+06 -3.15838e+06 -4.19458e+06 -283815 274340 364370
89 3 O -1.35151 84.735 1.52291 -1.2 -9.33899 -2.89099e+06 -3.48236e+06 -3.0086e+06 -304182 339584 919177
90 3 O -0.989544 81.7049 0.344156 -1.2 -9.3122 -2.36078e+06 -3.37845e+06 -4.57422e+06 573590 839821 609717
91 1 Mg -2.3559 90.4379 3.02578 1.2 -7.59257 -1.30394e+06 3.39349e+06 885688 -1.0761e+06 1.66525e+06 862043
92 3 O -0.959901 81.8011 2.87435 -1.2 -8.98772 -3.48544e+06 -2.49052e+06 -3.15027e+06 -192038 -841895 1.12852e+06
93 1 Mg -2.31916 87.5834 4.4119 1.2 -8.18298 1.17705e+06 1.30306e+06 1.84444e+06 892920 483803 -1.20544e+06
94 2 Si 0.32696 89.5016 4.46243 2.4 -32.7328 5.48359e+06 1.04353e+07 7.40602e+06 -286889 397362 -2.7342e+06
95 3 O -1.25388 89.5284 4.56869 -1.2 -9.72795 -1.52988e+06 -3.97668e+06 -3.83184e+06 -794325 92483.7 1.57608e+06
96 3 O 1.40429 85.7295 4.63185 -1.2 -9.16095 -2.92811e+06 -4.13898e+06 -3.91618e+06 -1.50756e+06 -354159 265598
97 3 O 1.04018 88.8783 3.22605 -1.2 -9.59745 -2.34732e+06 -3.64228e+06 -5.10811e+06 -184440 -1.04899e+06 612069
98 3 O 1.04628 88.7792 5.72876 -1.2 -9.05384 -3.46407e+06 -3.55048e+06 -1.92386e+06 -136469 798668 1.42655e+06
99 1 Mg 0.0648038 85.3585 3.18085 1.2 -7.6518 -1.39248e+06 3.4093e+06 -112214 849507 -1.42477e+06 1.37731e+06
100 1 Mg -0.0355973 82.4418 4.53323 1.2 -8.63728 1.06631e+06 1.14799e+06 2.71429e+06 -1.13155e+06 -132987 -382558
101 2 Si 2.09988 84.2095 4.61211 2.4 -33.3519 6.07019e+06 9.67146e+06 9.14985e+06 72975 1.12077e+06 -1.14717e+06
102 3 O -1.11256 84.3636 4.66576 -1.2 -9.44721 -2.80141e+06 -4.18991e+06 -4.3338e+06 1.06607e+06 489975 1.07509e+06
103 3 O 0.990259 80.4808 4.60484 -1.2 -8.81943 -3.14517e+06 -3.11248e+06 -2.59605e+06 1.27443e+06 -217867 421052
104 3 O 1.35824 83.6015 3.31405 -1.2 -9.1231 -2.29232e+06 -3.62406e+06 -3.6836e+06 177384 1.05339e+06 -58478.5
105 1 Mg 0.0392271 85.3383 0.14847 1.2 -7.54069 -2.3863e+06 3.57651e+06 273331 1.20529e+06 2.31759e+06 -2.87931e+06
106 3 O 1.41401 83.5493 5.86671 -1.2 -8.7045 -4.88637e+06 -4.02127e+06 -2.38378e+06 -765425 -746361 1.36124e+06
107 1 Mg 0.0790245 88.134 1.59437 1.2 -7.87583 1.16766e+06 1.41542e+06 2.89849e+06 -860849 -67602.1 -1.33781e+06
108 2 Si -2.00467 86.1997 1.58139 2.4 -32.0091 3.05821e+06 1.09326e+07 9.71885e+06 469779 -591716 -2.10449e+06
109 3 O 1.23415 86.1597 1.73609 -1.2 -10.0848 -2.25776e+06 -4.20761e+06 -3.74977e+06 455292 -187194 620518
110 3 O -0.989518 89.9797 1.62349 -1.2 -8.86326 -2.92417e+06 -3.58308e+06 -3.31786e+06 912539 513807 718178
111 3 O -1.28545 86.8681 0.22648 -1.2 -9.58449 -975957 -3.99152e+06 -223051 379030 -807924 1.00695e+06
112 3 O -1.29063 86.8833 2.90674 -1.2 -9.70935 -2.65627e+06 -3.14739e+06 -1.62312e+06 431792 1.29994e+06 580040
113 1 Mg -2.45015 90.5746 -0.0686034 1.2 -8.13003 -457941 3.04271e+06 -34457.7 -1.03296e+06 -1.09554e+06 -1.73802e+06
114 1 Mg 2.458 93.3605 1.55 1.2 -8.28872 1.88774e+06 773291 3.59263e+06 1.18477e+06 312074 -460136
115 2 Si -0.336149 91.5097 1.52567 2.4 -33.4923 5.0511e+06 9.34697e+06 8.33949e+06 1.13996e+06 -267980 -220123
116 3 O 1.18124 91.3943 1.43515 -1.2 -9.33759 -3.70351e+06 -3.40442e+06 -3.77887e+06 -743315 -116386 302770
117 3 O -1.33595 95.1832 1.41832 -1.2 -8.40697 -3.6508e+06 -4.93232e+06 -4.84298e+06 -1.4353e+06 -310655 455379
118 3 O -1.05012 91.9916 0.197886 -1.2 -8.97024 -4.64415e+06 -4.26329e+06 -2.61407e+06 -2024.22 1.01492e+06 1.32246e+06
119 1 Mg -2.40383 100.871 2.88629 1.2 -7.98216 -974811 3.54864e+06 362521 -516645 774505 1.9382e+06
120 3 O -1.03731 92.1785 2.75812 -1.2 -9.2849 -2.80636e+06 -3.94091e+06 -3.4282e+06 288479 -385892 -1.35704e+06
121 1 Mg -2.25159 98.0651 4.43089 1.2 -8.4835 1.6363e+06 437762 2.46505e+06 633397 -395339 1.01053e+06
122 2 Si 0.323742 99.9138 4.52507 2.4 -32.875 7.66956e+06 9.76578e+06 9.15005e+06 -28463.2 -670892 1.68002e+06
123 3 O -1.26327 99.9846 4.43296 -1.2 -9.66289 -1.54763e+06 -2.58505e+06 -4.55567e+06 -656610 582853 -382948
124 3 O 1.35444 96.2023 4.43383 -1.2 -9.15802 -2.0397e+06 -3.95509e+06 -3.67196e+06 -1.35461e+06 600665 106366
125 3 O 1.08321 99.2099 3.17526 -1.2 -8.80511 -2.5669e+06 -1.96703e+06 -2.61696e+06 -908793 -2.10781e+06 9568.5
126 3 O 1.09283 99.2347 5.66211 -1.2 -9.18197 -2.81983e+06 -2.76625e+06 -5.32795e+06 -393238 1.02473e+06 -111114
127 1 Mg -0.00918257 95.6365 2.88561 1.2 -8.19685 -1.00179e+06 2.98266e+06 -177462 469881 -844346 1.54994e+06
128 1 Mg 0.0115904 92.8387 4.46414 1.2 -8.44692 1.98829e+06 -150741 2.86598e+06 -858838 66395.2 -723092
129 2 Si 2.05599 94.7182 4.45189 2.4 -33.1637 5.99767e+06 9.92028e+06 8.66074e+06 -626308 -503927 -1.44449e+06
130 3 O -1.11439 94.7507 4.30639 -1.2 -9.53946 -2.32329e+06 -4.05565e+06 -5.13096e+06 -233307 -745228 298950
131 3 O 0.936049 90.992 4.53255 -1.2 -9.3843 -2.17244e+06 -5.01075e+06 -3.12659e+06 995163 -200858 369488
132 3 O 1.37975 93.9976 3.23112 -1.2 -8.9165 -4.03503e+06 -3.05808e+06 -4.47224e+06 416342 423967 192658
133 1 Mg 0.101346 95.6326 -0.113668 1.2 -8.72798 -182084 2.63611e+06 -561239 530430 1.73599e+06 -1.59964e+06
134 3 O 1.31863 94.0301 5.69103 -1.2 -9.13828 -2.7074e+06 -3.33912e+06 -4.46411e+06 504339 -1.20713e+06 433553
135 1 Mg 0.161986 98.5475 1.50644 1.2 -8.6247 2.49224e+06 1.06848e+06 2.51543e+06 -273399 129323 215536
136 2 Si -2.06298 96.6531 1.44655 2.4 -34.537 7.75145e+06 8.22879e+06 8.41683e+06 10995.5 -1.29203e+06 224800
137 3 O 1.13487 96.4765 1.43974 -1.2 -9.06551 -4.79064e+06 -2.73295e+06 -4.10278e+06 229562 -88726.1 -138051
138 3 O -1.00749 100.32 1.43883 -1.2 -8.71125 -2.25916e+06 -3.95246e+06 -3.17225e+06 1.46059e+06 99954.2 -308764
139 3 O -1.36603 97.2638 0.137015 -1.2 -8.13249 -2.88768e+06 -3.89872e+06 -3.51458e+06 237311 -1.01308e+06 576756
140 3 O -1.36227 97.2852 2.64753 -1.2 -8.74778 -3.06868e+06 -4.1688e+06 -5.10745e+06 336859 528874 -1.88211e+06
141 1 Mg -2.32596 100.935 -0.0863078 1.2 -8.13504 -1.09655e+06 3.14206e+06 -211492 -1.4672e+06 -900180 -1.86622e+06
142 1 Mg 7.17364 103.76 1.5078 1.2 -8.29036 1.08653e+06 1.26057e+06 2.43255e+06 908496 714882 317297
143 2 Si -0.282675 101.841 1.36882 2.4 -33.1903 6.01995e+06 1.05487e+07 7.34761e+06 624217 -265723 218799
144 3 O 1.25735 101.725 1.37202 -1.2 -9.58874 -3.42138e+06 -3.60092e+06 -3.83517e+06 -371174 643190 73418.8
145 3 O 3.36791 105.62 1.3458 -1.2 -9.15821 -1.90872e+06 -3.65224e+06 -4.0811e+06 -1.67914e+06 192982 -979142
146 3 O -1.06387 102.429 0.108908 -1.2 -9.06508 -3.48674e+06 -4.4252e+06 -3.84436e+06 -703914 1.29998e+06 427111
147 1 Mg 2.41335 111.316 2.70817 1.2 -7.98394 -2.01306e+06 3.66337e+06 -334598 -952457 1.16435e+06 1.60628e+06
148 3 O -0.980872 102.533 2.59298 -1.2 -9.29137 -1.88495e+06 -3.84617e+06 -3.62381e+06 248442 -839175 -1.31786e+06
149 1 Mg 2.34885 108.466 4.25191 1.2 -8.5434 2.52553e+06 159849 3.58814e+06 142290 319035 -109703
150 2 Si 5.01473 110.416 4.23905 2.4 -33.2058 6.10002e+06 1.01749e+07 8.4232e+06 257356 -1.17215e+06 -29529.2
151 3 O 3.50268 110.456 4.20587 -1.2 -9.59724 -4.04582e+06 -3.34135e+06 -3.94111e+06 -309143 -455568 299907
152 3 O 6.1674 106.706 4.47135 -1.2 -9.19434 -3.03147e+06 -2.31399e+06 -2.41227e+06 -1.41813e+06 278034 -170007
153 3 O 5.81168 109.641 2.98502 -1.2 -8.7684 -2.37851e+06 -3.52996e+06 -2.76926e+06 -1.10121e+06 -1.64309e+06 -642293
154 3 O 5.77021 109.791 5.50603 -1.2 -9.16487 -3.36375e+06 -2.73974e+06 -3.56722e+06 -728539 1.75082e+06 78098
155 1 Mg 4.87707 106.056 2.79892 1.2 -7.82898 -197276 3.59433e+06 261899 764031 -1.33304e+06 1.86454e+06
156 1 Mg 0.0483034 103.267 4.35482 1.2 -8.0722 1.79794e+06 709415 3.47379e+06 -838800 438013 495500
157 2 Si 6.87823 105.172 4.42346 2.4 -32.8931 5.44698e+06 1.07631e+07 8.31252e+06 -275683 -428060 353681
158 3 O 3.67064 105.223 4.24999 -1.2 -9.52222 -1.78038e+06 -3.47569e+06 -3.42259e+06 -400713 -605625 33166.4
159 3 O 1.03104 101.433 4.4452 -1.2 -9.35312 -1.57389e+06 -3.12842e+06 -3.20665e+06 2.20453e+06 -320895 -1.17273e+06
160 3 O 6.22427 104.528 3.07654 -1.2 -9.32556 -3.96839e+06 -2.23046e+06 -2.56248e+06 171724 1.24639e+06 -410883
161 1 Mg 4.74493 106.107 -0.136758 1.2 -7.78084 -412031 4.02701e+06 25535.8 892932 1.44969e+06 -1.26125e+06
162 3 O 6.24361 104.453 5.65082 -1.2 -9.40515 -2.40043e+06 -3.09758e+06 -2.82067e+06 40453 -67166.1 1.07069e+06
163 1 Mg 4.87415 108.997 1.30816 1.2 -8.4624 2.00544e+06 385985 3.06348e+06 -553760 -237604 -188511
164 2 Si 2.74772 107.139 1.3192 2.4 -33.4315 6.01888e+06 9.98393e+06 9.4259e+06 -20310.4 434411 -99514
165 3 O 5.92716 107.171 1.31966 -1.2 -9.50632 -2.16571e+06 -2.84022e+06 -4.08245e+06 853229 -147853 -783398
166 3 O 3.79196 110.85 1.25321 -1.2 -9.12587 -3.36754e+06 -6.78672e+06 -4.02184e+06 517184 363110 395275
167 3 O 3.49035 107.837 0.0475981 -1.2 -8.93968 -3.01599e+06 -2.11058e+06 -3.25385e+06 378279 -1.39373e+06 -481170
168 3 O 3.42871 107.766 2.58778 -1.2 -8.82889 -3.10218e+06 -3.18867e+06 -3.5319e+06 61112 413991 -775387
169 1 Mg 2.47102 111.317 -0.260507 1.2 -7.98957 -938766 3.69112e+06 -659574 -1.03052e+06 -1.19578e+06 -1.63736e+06
170 1 Mg 7.047 114.081 1.28506 1.2 -8.40797 1.73291e+06 775192 2.75158e+06 1.02558e+06 81113.6 -574174
171 2 Si 4.44476 112.277 1.31655 2.4 -33.4159 6.16157e+06 9.11805e+06 7.8515e+06 -480638 152447 181950
172 3 O 6.02213 112.231 1.25 -1.2 -9.37454 -2.30614e+06 -3.99323e+06 -4.7354e+06 -483139 -1.25524e+06 -71344.1
173 3 O 3.47966 115.944 1.17383 -1.2 -9.01189 -2.18094e+06 -2.71152e+06 -4.3528e+06 -1.04701e+06 -385513 -306626
174 3 O 3.82492 112.913 -0.00642286 -1.2 -8.80272 -3.61544e+06 -4.59128e+06 -2.12328e+06 104599 595548 892455
175 1 Mg 2.51873 121.756 2.8622 1.2 -7.59686 -1.28463e+06 4.23651e+06 299877 -718474 1.28068e+06 2.01553e+06
176 3 O 3.67038 112.94 2.54158 -1.2 -9.17679 -4.16123e+06 -4.7569e+06 -4.27274e+06 -841518 -1.35589e+06 -1.13625e+06
177 1 Mg 2.44881 118.813 4.15247 1.2 -8.42525 2.6465e+06 759431 2.46687e+06 1.05102e+06 336561 513913
178 2 Si 5.19502 120.755 4.29532 2.4 -33.0091 5.02473e+06 1.00952e+07 9.38012e+06 693972 -542600 616126
179 3 O 3.62764 120.631 4.34533 -1.2 -9.46052 -905550 -3.97915e+06 -4.52862e+06 388915 -655379 -405650
180 3 O 6.17945 116.932 4.0547 -1.2 -9.08233 -3.50003e+06 -2.67241e+06 -2.73221e+06 -502881 -183033 -763050
181 3 O 5.86247 120.12 2.95973 -1.2 -9.36433 -3.39692e+06 -2.59102e+06 -2.40737e+06 -400378 -957447 -522651
182 3 O 5.79765 120.031 5.61782 -1.2 -8.95812 -4.4573e+06 -3.18135e+06 -1.14309e+06 -345861 408210 -329870
183 1 Mg 4.78408 116.386 2.64582 1.2 -7.88775 -858830 3.71748e+06 -681160 1.05718e+06 -1.88304e+06 2.03701e+06
184 1 Mg 4.53487 113.614 4.17849 1.2 -8.31027 1.62195e+06 62383.8 2.06717e+06 -650415 -283538 167293
185 2 Si 6.78049 115.383 4.14163 2.4 -33.3592 5.00121e+06 1.11908e+07 7.94556e+06 1.18161e+06 -260378 -845058
186 3 O 3.55747 115.493 4.06624 -1.2 -9.44637 -3.10035e+06 -4.23672e+06 -4.05178e+06 1.32879e+06 4682.88 -114844
187 3 O 5.72701 111.865 4.08668 -1.2 -9.12913 -2.17322e+06 -5.88477e+06 -3.13574e+06 1.09705e+06 35461.9 -147110
188 3 O 6.05655 114.718 2.91138 -1.2 -9.0754 -3.40835e+06 -4.72989e+06 -3.81559e+06 235669 625102 -1.03153e+06
189 1 Mg 4.84929 116.481 -0.184834 1.2 -8.1045 -408149 3.8703e+06 -318666 684913 1.25151e+06 -1.11752e+06
190 3 O 6.08621 114.716 5.43317 -1.2 -8.99825 -2.75038e+06 -2.03651e+06 -2.15185e+06 331126 -464931 240128
191 1 Mg 4.94837 119.406 1.36878 1.2 -8.38435 1.93664e+06 1.0998e+06 2.00767e+06 -789161 -465477 -48665.5
192 2 Si 2.78028 117.48 1.21706 2.4 -33.4414 4.60545e+06 1.06717e+07 8.97455e+06 105835 483495 1.25512e+06
193 3 O 6.01828 117.398 1.22122 -1.2 -9.50491 -3.82178e+06 -3.17099e+06 -4.65724e+06 346727 80293 -77319.4
194 3 O 3.88753 121.317 1.3724 -1.2 -9.193 -2.57879e+06 -5.10255e+06 -3.17918e+06 1.87151e+06 -179384 11708.2
195 3 O 3.46114 118.167 -0.0072872 -1.2 -8.92976 -3.38197e+06 -3.66832e+06 -2.9858e+06 96196.2 -159640 219269
196 3 O 3.50682 118.166 2.51289 -1.2 -8.9125 -2.3599e+06 -2.03205e+06 -3.4792e+06 -44383 996950 26573.1
197 1 Mg 2.57928 121.681 -0.0923318 1.2 -7.74233 -311985 4.10057e+06 214733 -469548 -1.04569e+06 -1.00081e+06
198 1 Mg 7.25752 124.542 1.39343 1.2 -8.47783 1.67709e+06 722304 2.49598e+06 853837 -234703 729349
199 2 Si 4.65422 122.771 1.38421 2.4 -32.9975 5.51637e+06 1.1246e+07 8.04052e+06 202585 -1.03272e+06 1.31284e+06
200 3 O 6.20281 122.67 1.32632 -1.2 -9.79102 -2.96087e+06 -4.53897e+06 -3.2596e+06 -124632 -359001 249883
201 3 O 3.45691 126.468 1.44103 -1.2 -8.82875 -2.4762e+06 -3.40789e+06 -3.44615e+06 -782134 -496253 -757971
202 3 O 3.97656 123.496 0.17153 -1.2 -9.05681 -3.58569e+06 -4.22961e+06 -3.10118e+06 -244246 951823 701364
203 1 Mg 2.56204 132.257 2.92786 1.2 -7.84189 -797338 4.62331e+06 -358522 -587202 1.32124e+06 1.8758e+06
204 3 O 3.899 123.413 2.70951 -1.2 -9.00987 -1.74381e+06 -3.57905e+06 -3.55374e+06 -981642 -1.8935e+06 -966014
205 1 Mg 2.56814 129.281 4.48365 1.2 -8.32584 2.26896e+06 1.05805e+06 3.14932e+06 901756 -263418 474420
206 2 Si 5.22381 131.169 4.46396 2.4 -33.074 5.73966e+06 1.02465e+07 1.02417e+07 62013 -791352 1.12837e+06
207 3 O 3.65864 131.239 4.51864 -1.2 -9.64645 -1.88693e+06 -3.53577e+06 -3.84804e+06 -485756 -96544.4 -402887
208 3 O 6.16705 127.365 4.43174 -1.2 -8.90289 -2.8784e+06 -3.16773e+06 -2.48561e+06 -972083 -26582.8 94460.4
209 3 O 5.94225 130.544 3.11283 -1.2 -8.81373 -1.91431e+06 -2.61474e+06 49887.4 -27237.8 -1.07117e+06 -274886
210 3 O 5.8591 130.496 5.77068 -1.2 -9.25857 -2.83952e+06 -3.27528e+06 -1.68411e+06 -494302 444244 410448
211 1 Mg 4.79294 126.966 2.90364 1.2 -8.23061 -384612 3.41819e+06 -55478.4 1.13207e+06 -1.52147e+06 1.75024e+06
212 1 Mg 4.82664 124.005 4.35528 1.2 -8.51339 1.63715e+06 140624 1.59533e+06 -1.08857e+06 294136 -522720
213 2 Si 6.84846 125.87 4.35488 2.4 -33.6825 8.01412e+06 9.46021e+06 7.77717e+06 -340581 -357645 -473040
214 3 O 3.70445 126.007 4.33693 -1.2 -9.1776 -1.4736e+06 -3.31061e+06 -3.30839e+06 331345 386060 60315.8
215 3 O 5.8505 122.191 4.37116 -1.2 -9.45636 -2.72241e+06 -5.6986e+06 -3.63651e+06 944797 175673 -468741
216 3 O 6.1727 125.223 3.10125 -1.2 -8.91318 -3.73895e+06 -2.72101e+06 -3.32996e+06 -189970 678599 -472191
217 1 Mg 5.0457 126.908 -0.070944 1.2 -8.08892 304617 3.70409e+06 96969.8 468207 955723 -1.06899e+06
218 3 O 6.21606 125.17 5.62096 -1.2 -9.05317 -2.01707e+06 -3.43198e+06 -3.35646e+06 197674 -606871 1.5836e+06
219 1 Mg 4.83059 129.856 1.27239 1.2 -8.49965 2.33643e+06 560484 3.50765e+06 -987922 259386 501299
220 2 Si 2.83961 127.984 1.4121 2.4 -33.9023 6.89166e+06 9.1441e+06 9.06214e+06 -581416 -599010 74312.6
221 3 O 6.01142 127.903 1.40609 -1.2 -9.20559 -2.13742e+06 -2.8898e+06 -3.91873e+06 606589 -157425 -207595
222 3 O 3.96414 131.747 1.50755 -1.2 -9.3896 -2.80877e+06 -4.00641e+06 -2.22087e+06 1.18087e+06 19992.1 162061
223 3 O 3.52244 128.691 0.135773 -1.2 -8.85406 -3.6142e+06 -2.47022e+06 -2.77851e+06 266527 -1.07904e+06 186701
224 3 O 3.51042 128.607 2.68129 -1.2 -8.84432 -3.72162e+06 -3.73926e+06 -2.60404e+06 316526 129233 -898376
225 1 Mg 2.61929 132.265 -0.0658149 1.2 -7.7575 -240078 4.62155e+06 317645 -693745 -1.44265e+06 -1.00152e+06
226 1 Mg 7.3567 135.096 1.5521 1.2 -8.66579 1.91009e+06 53918.6 2.15657e+06 1.21583e+06 -272673 51231.4
227 2 Si 4.65275 133.207 1.49534 2.4 -33.158 5.99136e+06 1.14972e+07 8.49584e+06 -143475 -868136 124629
228 3 O 6.20137 133.168 1.48152 -1.2 -9.49439 -1.99665e+06 -4.793e+06 -3.43753e+06 -284700 -1.01555e+06 566909
229 3 O 3.60032 136.931 1.40598 -1.2 -9.02688 -2.13676e+06 -4.65683e+06 -3.555e+06 -1.86689e+06 153753 -49371.8
230 3 O 4.02487 133.945 0.210952 -1.2 -9.0686 -3.77841e+06 -2.96268e+06 -1.60439e+06 -81719.7 906749 -207142
231 1 Mg 2.49238 142.521 3.06629 1.2 -8.07164 -1.12642e+06 3.12452e+06 500789 -1.58653e+06 1.00154e+06 1.46302e+06
232 3 O 3.8713 133.93 2.79175 -1.2 -8.91722 -2.9645e+06 -2.80636e+06 -1.58471e+06 -284347 -1.2332e+06 -26233
233 1 Mg 2.51381 139.61 4.42175 1.2 -8.67627 2.27087e+06 417609 2.48644e+06 804688 379388 78720
234 2 Si 5.17668 141.569 4.49017 2.4 -33.9472 5.44318e+06 9.49393e+06 8.90954e+06 601824 -133418 252256
235 3 O 3.64882 141.596 4.49211 -1.2 -9.15026 -3.73583e+06 -3.32847e+06 -4.32855e+06 -842511 -544673 30417.8
236 3 O 6.25516 137.743 4.51376 -1.2 -9.20586 -4.13167e+06 -4.55861e+06 -4.8273e+06 -494809 1.20683e+06 -393614
237 3 O 5.90555 140.949 3.22278 -1.2 -8.90879 -4.3182e+06 -3.3385e+06 -4.14865e+06 -313430 -757614 -803734
238 3 O 5.85535 140.894 5.7725 -1.2 -8.67776 -3.79599e+06 -2.81054e+06 -2.86222e+06 -279099 434805 761186
239 1 Mg 4.86873 137.312 3.03392 1.2 -7.81631 322880 4.16509e+06 192369 534833 -1.45713e+06 1.82908e+06
240 1 Mg 4.95245 134.564 4.49418 1.2 -8.26634 1.73902e+06 -98321 3.27675e+06 -1.65348e+06 -184218 73111.7
241 2 Si 6.90802 136.279 4.58692 2.4 -33.1933 4.19784e+06 9.57408e+06 8.91764e+06 -438091 669335 788986
242 3 O 3.70667 136.413 4.50008 -1.2 -9.45825 -2.06026e+06 -4.42127e+06 -3.70932e+06 619401 -598236 -417333
243 3 O 5.88267 132.667 4.49318 -1.2 -9.28681 -2.60462e+06 -3.7431e+06 -3.77696e+06 994979 -460591 73365.7
244 3 O 6.29625 135.589 3.23763 -1.2 -8.96413 -3.44883e+06 -3.52623e+06 -1.7355e+06 84074.9 317342 -1.02772e+06
245 1 Mg 5.02289 137.507 0.0411329 1.2 -8.07021 -1.02658e+06 3.71378e+06 -262734 447574 1.1718e+06 -1.3997e+06
246 3 O 6.22669 135.63 5.81658 -1.2 -9.34374 -3.67817e+06 -4.52148e+06 -3.5914e+06 422093 -199707 727951
247 1 Mg 5.02065 140.33 1.53772 1.2 -8.56408 2.28239e+06 -267900 2.0184e+06 -318218 -157018 -114055
248 2 Si 2.84455 138.39 1.41507 2.4 -33.4573 6.07727e+06 1.02324e+07 1.00726e+07 -160208 -33045.3 1.67383e+06
249 3 O 6.06047 138.384 1.51787 -1.2 -9.52888 -3.2357e+06 -3.07806e+06 -4.07676e+06 -166387 -1.09575e+06 -917576
250 3 O 3.87202 142.001 1.49289 -1.2 -8.98078 -2.93876e+06 -3.51164e+06 -3.07767e+06 1.59285e+06 -86816.5 374266
251 3 O 3.59696 139.051 0.189951 -1.2 -8.91153 -2.98309e+06 -4.72289e+06 -3.42359e+06 228733 -1.50896e+06 146470
252 3 O 3.49488 139.098 2.82125 -1.2 -8.59186 -2.90005e+06 -2.00362e+06 -1.5007e+06 413958 1.51843e+06 -252969
253 1 Mg 2.50408 142.548 0.0552459 1.2 -7.88296 -1.36173e+06 4.02882e+06 653113 -810486 -1.61842e+06 -2.09477e+06
254 1 Mg 7.1513 145.472 1.56062 1.2 -8.46511 1.4134e+06 -138308 3.62005e+06 84266.6 -308276 -916415
255 2 Si 4.54966 143.547 1.56422 2.4 -33.1503 6.26012e+06 9.85476e+06 8.60191e+06 -119410 751292 -2.08582e+06
256 3 O 6.06537 143.431 1.60904 -1.2 -9.50265 -3.51917e+06 -3.13288e+06 -4.17251e+06 -893597 -433635 577147
257 3 O 3.4611 147.179 1.49266 -1.2 -9.29304 -4.49437e+06 -5.66707e+06 -4.96653e+06 -474466 -632116 119788
258 3 O 3.84808 144.273 0.259353 -1.2 -8.91329 -2.3411e+06 -2.09394e+06 -3.1823e+06 -84194.6 1.38768e+06 951906
259 1 Mg 1.84096 152.678 1.8885 1.2 -7.41065 -67892.8 -953719 4.26348e+06 -144727 -612898 -271460
260 3 O 3.72367 144.167 2.74826 -1.2 -9.21995 -3.62513e+06 -2.88844e+06 -5.09038e+06 -576540 -1.29907e+06 -230721
261 1 Mg 1.89093 150.395 4.8132 1.2 -8.46247 -714533 3.42448e+06 1.59438e+06 363210 320988 135998
262 2 Si 4.13859 150.918 3.13969 2.4 -33.6252 1.01267e+07 6.81239e+06 8.22254e+06 -866117 -255151 -1.71562e+06
263 3 O 2.69687 151.688 3.3771 -1.2 -8.33703 -3.77949e+06 -7643.81 -5.22076e+06 -640622 -393876 -971243
264 3 O 6.01753 148.437 4.36241 -1.2 -8.98861 -2.91317e+06 -2.04929e+06 -3.74736e+06 -655648 -762139 519778
265 3 O 4.90004 151.667 1.96962 -1.2 -9.01532 -5.88372e+06 243006 -5.94599e+06 934059 -549294 63259.8
266 3 O 4.84303 151.083 4.50447 -1.2 -8.8179 -7.11631e+06 -3.65148e+06 -4.40143e+06 37203.4 588641 2.36327e+06
267 1 Mg 4.7493 147.639 2.89461 1.2 -7.6012 -1.51955e+06 2.16715e+06 133218 2.04126e+06 -3.37286e+06 898573
268 1 Mg 4.47826 144.932 4.44412 1.2 -8.37929 2.44443e+06 642619 2.53834e+06 -1.05082e+06 -31596.4 -451112
269 2 Si 6.67259 146.915 4.4415 2.4 -33.3245 4.32512e+06 1.11006e+07 8.96952e+06 749564 112742 -673871
270 3 O 3.45075 146.855 4.45186 -1.2 -9.45054 -2.75833e+06 -3.40218e+06 -4.11293e+06 325533 -399360 131102
271 3 O 5.79561 143.086 4.5292 -1.2 -8.78921 -1.94814e+06 -3.11086e+06 -3.98544e+06 352592 604730 -53992
272 3 O 6.05017 146.157 3.14839 -1.2 -9.21511 -2.78121e+06 -2.93515e+06 -3.12185e+06 585479 306303 1.14011e+06
273 1 Mg 4.8795 147.786 -0.0420767 1.2 -7.77099 -1.98033e+06 2.72592e+06 9703.03 1.37729e+06 1.80218e+06 -2.02429e+06