ITEM: TIMESTEP
81200
ITEM: NUMBER OF ATOMS
5600
ITEM: BOX BOUNDS xy xz yz pp pp pp
0.0000000000000000e+00 7.1234999999999999e+00 0.0000000000000000e+00
0.0000000000000000e+00 2.0198500000000001e+02 2.3744999999999998e+00
0.0000000000000000e+00 1.1958400000000000e+02 0.0000000000000000e+00
ITEM: ATOMS id type element xu yu zu q c_pe c_s[1] c_s[2] c_s[3] c_s[4] c_s[5] c_s[6]
1 1 Mg -1.9247 47.4223 -0.681133 1.2 -7.08851 135159 -2.25414e+06 5.73376e+06 -477313 358779 1.10288e+06
2 1 Mg 2.61153 50.0095 2.07051 1.2 -8.21956 -1.63287e+06 5.06516e+06 2.06871e+06 -121442 -335654 278084
3 2 Si 0.541103 49.1087 0.545597 2.4 -32.9205 7.63637e+06 9.40334e+06 6.40651e+06 -2.16603e+06 -279496 1.85325e+06
4 3 O 1.72888 48.0273 1.00778 -1.2 -8.33529 -1.48177e+06 1.5507e+06 -2.13389e+06 -1.69642e+06 -1.63015e+06 -412153
5 3 O -1.52213 52.3636 1.72728 -1.2 -8.72698 -2.79489e+06 -2.28715e+06 -4.44712e+06 -2.18629e+06 -456928 -315318
6 3 O -0.314958 48.4463 -0.546541 -1.2 -9.60732 -3.76665e+06 -566562 -6.20442e+06 1.55028e+06 1.13825e+06 -2.54604e+06
7 1 Mg -2.52904 58.0935 3.56552 1.2 -7.90402 -715235 2.14189e+06 1.05882e+06 -222574 1.39389e+06 1.85069e+06
8 3 O -0.356637 49.5782 1.69618 -1.2 -8.58755 -5.13035e+06 -5.51675e+06 -5.25608e+06 -1.81837e+06 2.47133e+06 -1.88096e+06
9 1 Mg -2.38917 55.3327 5.04459 1.2 -8.8733 2.3991e+06 636128 3.89016e+06 555973 208650 1.58343e+06
10 2 Si 0.2147 57.0203 5.0361 2.4 -33.9443 7.15843e+06 1.00715e+07 7.78868e+06 -986939 1.79238e+06 691244
11 3 O -1.38478 57.0617 5.03699 -1.2 -9.12882 -2.29301e+06 -5.35948e+06 -4.08521e+06 -1.26858e+06 1.60653e+06 -473052
12 3 O 1.20697 53.2683 4.87759 -1.2 -8.19239 -4.1168e+06 -3.6573e+06 -622892 -879384 414502 -1.88888e+06
13 3 O 0.76329 56.41 3.68887 -1.2 -8.9004 -4.08847e+06 -4.32624e+06 -2.97241e+06 584748 -757143 -1.10201e+06
14 3 O 1.0196 56.3183 6.30037 -1.2 -8.34217 -3.30969e+06 -4.17675e+06 -931509 -1.43068e+06 748194 -435990
15 1 Mg -0.194324 52.4657 3.10965 1.2 -8.7998 -379102 3.08759e+06 -907309 928343 -1.20884e+06 2.11164e+06
16 1 Mg 0.141385 49.2104 3.67197 1.2 -8.43798 3.77553e+06 2.17261e+06 -1.19793e+06 -610912 587560 1.8825e+06
17 2 Si 1.91229 51.8516 4.85944 2.4 -35.2465 1.12921e+07 1.09654e+07 4.40361e+06 -565109 1.30039e+06 723430
18 3 O -1.30825 51.7538 4.64492 -1.2 -7.87338 -5.80071e+06 -4.34375e+06 -742710 -78828.7 746074 -469407
19 3 O 2.94871 48.7634 3.78876 -1.2 -6.52392 -838201 -1.44805e+06 -2.99766e+06 -923406 137947 -1.90672e+06
20 3 O 1.10998 51.1004 3.66452 -1.2 -7.92221 -6.69897e+06 -4.77774e+06 -2.51027e+06 1.77713e+06 205862 -472242
21 1 Mg -0.198089 52.8443 0.243026 1.2 -7.09732 -2.75243e+06 2.08207e+06 18281.3 1.87998e+06 1.99421e+06 -1.69913e+06
22 3 O 1.47494 50.9025 6.12942 -1.2 -9.6424 -5.91065e+06 1.03996e+06 -5.34103e+06 582327 -434124 -1.99139e+06
23 1 Mg -0.0771423 55.7117 2.14501 1.2 -8.08857 1.39728e+06 1.64258e+06 1.81968e+06 -952985 -1.00696e+06 -1.4644e+06
24 2 Si -2.30979 53.9013 1.73481 2.4 -32.8703 7.41487e+06 9.21132e+06 1.35012e+07 -190011 -1.01923e+06 -146271
25 3 O 0.936859 53.6625 1.90145 -1.2 -9.51015 -3.42927e+06 -1.63838e+06 -4.74269e+06 783724 -1.48514e+06 444285
26 3 O -1.1904 57.7624 1.99307 -1.2 -8.94846 -3.00921e+06 -4.77995e+06 -4.83629e+06 508221 -385536 349313
27 3 O -1.371 54.4811 0.437076 -1.2 -9.36816 -2.12506e+06 -4.63183e+06 -4.10674e+06 738159 -4.29838e+06 1.5508e+06
28 3 O -1.67057 54.5951 3.12211 -1.2 -8.33192 -4.03691e+06 -2.04948e+06 1.79967e+06 35881.4 1.10199e+06 435717
29 1 Mg -2.63643 58.0021 0.50657 1.2 -7.73601 -1.08437e+06 2.3052e+06 722054 -254674 -844039 -1.34407e+06
30 1 Mg 2.04634 61.001 1.72194 1.2 -7.78465 608496 376921 1.29954e+06 644458 -516545 -969594
31 2 Si -0.447062 59.1516 2.03942 2.4 -32.7158 3.9301e+06 7.91616e+06 1.3024e+07 -629538 49776.2 -1.7307e+06
32 3 O 1.02412 58.9815 1.92641 -1.2 -9.90158 -5.54218e+06 -2.93245e+06 -3.35318e+06 -1.03918e+06 182921 117152
33 3 O -1.50419 62.7191 1.50775 -1.2 -9.46431 -665163 -3.09657e+06 -2.56165e+06 -537909 -192372 -703491
34 3 O -1.24576 59.9034 0.754269 -1.2 -8.98101 -388372 -4.57438e+06 -106469 -196475 1.38873e+06 1.89791e+06
35 1 Mg -2.52218 68.8607 3.59099 1.2 -7.76399 629466 4.02957e+06 1.18488e+06 -908909 1.37667e+06 -135062
36 3 O -1.19045 59.5933 3.56301 -1.2 -8.73554 -470750 -4.48863e+06 -2.47599e+06 -608038 -2.75194e+06 -1.35236e+06
37 1 Mg -2.49787 65.3533 4.7536 1.2 -7.80475 2.27509e+06 1.69276e+06 3.01479e+06 780138 81791.2 -1.61598e+06
38 2 Si 0.143929 67.4993 4.88827 2.4 -32.802 6.44766e+06 1.02406e+07 1.08023e+07 355234 -802982 -3.56043e+06
39 3 O -1.41492 67.554 4.95101 -1.2 -9.56347 -863792 -1.88752e+06 -4.67859e+06 -564249 -69595.2 1.64322e+06
40 3 O 1.15834 63.5462 4.76619 -1.2 -9.27366 -2.35185e+06 -4.63569e+06 -3.42568e+06 -252289 -188343 2.79294e+06
41 3 O 0.780568 66.8447 3.51745 -1.2 -9.19313 -2.33047e+06 -189636 -947111 -634573 -1.12025e+06 2.60271e+06
42 3 O 0.823939 66.8139 6.15763 -1.2 -9.14675 -4.57496e+06 -1.74177e+06 -1.19668e+06 -565467 1.13518e+06 1.83227e+06
43 1 Mg -0.244791 63.162 3.20932 1.2 -7.12839 -1.63826e+06 2.82512e+06 1.82822e+06 1.37411e+06 -1.27373e+06 841510
44 1 Mg -0.0273592 60.3041 4.97789 1.2 -8.47698 1.17378e+06 -793836 1.923e+06 -1.64404e+06 305280 533152
45 2 Si 1.83117 62.0732 4.6098 2.4 -32.916 5.031e+06 7.56364e+06 1.15433e+07 -1.76325e+06 514176 -1.59445e+06
46 3 O -1.38918 62.284 4.73758 -1.2 -9.54341 -3.30821e+06 -3.79877e+06 -3.88864e+06 863917 1.49953e+06 784904
47 3 O 0.813478 58.4566 5.0846 -1.2 -8.94864 -4.80383e+06 -7.04399e+06 -3.94558e+06 1.00069e+06 -1.24856e+06 -1.43655e+06
48 3 O 1.05057 61.5385 3.3321 -1.2 -10.1138 -1.28793e+06 -2.96906e+06 -4.19907e+06 356331 873604 -1.36952e+06
49 1 Mg -0.0483527 63.3374 0.0885223 1.2 -7.46693 -1.95112e+06 5.0065e+06 -1.46894e+06 1.14991e+06 1.42889e+06 -1.43517e+06
50 3 O 1.21971 61.4793 6.01747 -1.2 -7.93108 -4.78277e+06 -5.25741e+06 529609 -431187 -933306 2.04378e+06
51 1 Mg 0.152967 66.0161 1.83844 1.2 -8.15896 1.00975e+06 170919 1.36723e+06 -403494 300575 -1.29045e+06
52 2 Si -2.10431 64.3308 1.60396 2.4 -32.1705 3.67178e+06 1.1655e+07 6.47848e+06 -495972 713744 66651
53 3 O 1.05933 64.2668 1.63707 -1.2 -9.98029 -596559 -4.99972e+06 -3.51944e+06 741607 193836 752176
54 3 O -1.09823 68.0415 1.55761 -1.2 -8.22697 -4.20608e+06 -6.4043e+06 -3.60814e+06 -73882.6 -679185 729124
55 3 O -1.51533 64.9587 0.391964 -1.2 -9.27682 -4.24349e+06 -6.30338e+06 -4.43805e+06 -521564 -155622 2.26978e+06
56 3 O -1.47742 64.8843 2.98734 -1.2 -9.80307 -1.26364e+06 -2.8238e+06 -1.02059e+06 -341392 -50160.2 919907
57 1 Mg -2.6166 68.3394 0.363641 1.2 -8.74537 -1.15544e+06 2.98018e+06 163860 -1.66126e+06 -1.90655e+06 -1.09649e+06
58 1 Mg 2.59103 71.5268 1.72809 1.2 -9.33303 5.6052e+06 815069 1.44762e+06 1.09105e+06 -346581 246790
59 2 Si -0.385867 69.3973 1.68612 2.4 -35.7974 7.52414e+06 8.20792e+06 5.75733e+06 2.12574e+06 1.67253e+06 -1.46659e+06
60 3 O 1.15948 69.4301 1.8716 -1.2 -8.19007 -5.84517e+06 -4.44544e+06 -2.26944e+06 1.40816e+06 1.1023e+06 -84801.9
61 3 O -1.34203 73.5105 1.8118 -1.2 -8.0746 -4.01687e+06 -1.33613e+06 -1.83798e+06 -702108 302116 30863.5
62 3 O -0.857543 70.1937 0.39676 -1.2 -7.51302 -5.00911e+06 -3.13835e+06 -3.7427e+06 -456770 -521285 -55068.9
63 1 Mg -1.96748 79.5307 3.13992 1.2 -6.91224 -136524 4.24676e+06 -1.81927e+06 -1.10226e+06 -361100 1.69037e+06
64 3 O -0.911385 70.1837 2.90301 -1.2 -8.27396 -6.7959e+06 -2.83799e+06 -4.51384e+06 807872 589272 -1.29651e+06
65 1 Mg -2.30203 76.1858 4.73803 1.2 -7.54521 321401 -198980 -2.3346e+06 1.2552e+06 1.05604e+06 -1.04256e+06
66 2 Si 0.373621 78.2431 4.64791 2.4 -32.0117 2.04832e+06 1.08291e+07 8.93143e+06 512479 -319613 -1.1062e+06
67 3 O -1.13176 78.4709 4.49596 -1.2 -10.2998 -4.96527e+06 -4.59741e+06 -3.95005e+06 453905 2.07759e+06 -1.10563e+06
68 3 O 1.51009 74.1659 4.91903 -1.2 -9.28136 228004 -5.38447e+06 -3.0038e+06 -1.17348e+06 970200 -965965
69 3 O 0.89116 77.4012 3.38982 -1.2 -8.92544 -2.79162e+06 -5.57942e+06 -728524 451506 -530525 -1.04013e+06
70 3 O 1.15341 77.5892 5.96193 -1.2 -9.69572 -790941 -3.11501e+06 -2.77032e+06 -1.77929e+06 836106 -191878
71 1 Mg -0.112543 74.1797 3.50777 1.2 -7.70396 487867 3.64054e+06 180511 300394 -185304 3.05022e+06
72 1 Mg -0.0362218 71.0432 4.59747 1.2 -8.6499 1.40036e+06 -982930 4.3158e+06 37292.3 -120871 -1.75712e+06
73 2 Si 2.19743 72.6904 4.79801 2.4 -33.7232 3.74523e+06 9.22181e+06 9.5025e+06 -318703 -30164.6 552913
74 3 O -1.01205 72.82 4.56874 -1.2 -9.67119 -5.01167e+06 -2.99826e+06 -4.0044e+06 557080 194340 -277025
75 3 O 0.778549 69.1545 4.97812 -1.2 -9.15674 -1.85093e+06 -638219 -3.09517e+06 1.67282e+06 -703220 1.31367e+06
76 3 O 1.51335 71.9866 3.56265 -1.2 -7.93036 -4.39621e+06 -2.3228e+06 -4.64826e+06 -577240 -194809 -400705
77 1 Mg -0.149063 74.2866 0.239501 1.2 -8.24698 -473077 3.33084e+06 534528 803912 1.01973e+06 -2.18093e+06
78 3 O 1.5266 72.0088 6.01079 -1.2 -8.89385 -375058 -5.90151e+06 -6.01166e+06 1.29535e+06 -578135 1.99049e+06
79 1 Mg 0.290794 77.0999 1.54022 1.2 -7.96433 1.0474e+06 2.67494e+06 -677992 -732498 1.10093e+06 532739
80 2 Si -2.12017 75.0732 1.91104 2.4 -33.3355 3.47032e+06 1.44445e+07 2.36623e+06 -598991 -2.1409e+06 -641742
81 3 O 1.15919 74.9125 1.81939 -1.2 -9.24689 -5.45147e+06 -5.54146e+06 -1.00387e+06 -578080 -1.35613e+06 -1.28808e+06
82 3 O -0.690441 79.0053 1.46122 -1.2 -9.18848 -1.86845e+06 -2.56335e+06 -1.66546e+06 886831 -1.12403e+06 497678
83 3 O -1.44158 75.7856 0.572587 -1.2 -9.29068 -2.25957e+06 -5.26208e+06 -262192 1.08027e+06 -1.15459e+06 542745
84 3 O -1.65685 75.6037 3.2053 -1.2 -9.22418 -5.83695e+06 -7.04497e+06 -7.8227e+06 -1.07431e+06 1.1328e+06 -3.47424e+06
85 1 Mg -2.31081 79.3994 0.319485 1.2 -8.06449 -880913 5.80241e+06 -3.19714e+06 -752665 -1.84257e+06 -962133
86 1 Mg 2.68558 82.7539 1.42807 1.2 -8.48786 3.2653e+06 -472493 2.70475e+06 -100025 201856 1.08791e+06
87 2 Si -0.126819 80.6436 1.56584 2.4 -33.3317 5.0353e+06 1.34359e+07 4.7484e+06 -188467 1.548e+06 2.27028e+06
88 3 O 1.37995 80.5397 1.5977 -1.2 -9.22196 -3.20403e+06 -3.79633e+06 -3.83008e+06 -1.32919e+06 745560 -562341
89 3 O -1.44527 84.5038 1.20681 -1.2 -8.46366 -3.41446e+06 -7.70441e+06 -5.02049e+06 -2.30636e+06 364731 -1.27621e+06
90 3 O -0.872352 81.323 0.39959 -1.2 -8.65386 -4.56463e+06 -4.34678e+06 -3.77299e+06 59811.5 -182902 -378527
91 1 Mg -2.47166 89.9973 2.53534 1.2 -7.36411 -955089 3.43414e+06 130524 -425583 1.04916e+06 1.9005e+06
92 3 O -0.808463 81.4243 2.80466 -1.2 -9.40272 -3.27525e+06 -1.06659e+06 -5.42476e+06 -512340 -1.44377e+06 -972925
93 1 Mg -2.52226 87.2503 4.52657 1.2 -7.89483 1.49776e+06 -886134 3.6217e+06 -101478 -644826 1.42993e+06
94 2 Si 0.135547 89.2051 4.29892 2.4 -32.1706 5.42281e+06 9.91457e+06 1.03771e+07 1.93246e+06 1.46303e+06 -159879
95 3 O -1.49894 89.0914 4.30435 -1.2 -10.0294 141357 -1.98553e+06 -4.39124e+06 859765 1.79133e+06 -619071
96 3 O 1.17874 85.5958 4.52139 -1.2 -9.47955 -2.47002e+06 -1.86493e+06 -5.04025e+06 -1.25173e+06 -483220 -2.82021e+06
97 3 O 0.668833 88.4995 3.0514 -1.2 -9.49714 -3.02945e+06 -4.01402e+06 -4.92576e+06 80978.2 -1.2321e+06 -1.00956e+06
98 3 O 0.845551 88.6587 5.67931 -1.2 -9.44573 -3.14159e+06 -2.03659e+06 -4.74476e+06 -635250 2.978e+06 -866756
99 1 Mg 0.0607574 85.163 2.97047 1.2 -8.02365 -2.12753e+06 1.56513e+06 -706367 1.71161e+06 -1.99696e+06 2.27854e+06
100 1 Mg -0.296395 81.8768 4.49966 1.2 -7.24029 1.73746e+06 606308 -1.38783e+06 -1.07923e+06 -622195 -204874
101 2 Si 1.93213 84.098 4.36451 2.4 -32.6759 3.41579e+06 9.48122e+06 9.91287e+06 413276 -520971 2.06254e+06
102 3 O -1.30976 84.1608 4.27983 -1.2 -9.67449 -3.61341e+06 -3.37364e+06 -4.81396e+06 -701036 70472.1 -619657
103 3 O 1.10776 79.6576 4.36336 -1.2 -9.55973 -26771.5 -5.27475e+06 -1.9429e+06 -27608.6 -1.03153e+06 -1.9496e+06
104 3 O 1.26833 83.6116 2.99665 -1.2 -8.68093 -4.00554e+06 -3.36563e+06 -2.76467e+06 -70607.1 -135932 -546625
105 1 Mg -0.0366216 85.1599 -0.127243 1.2 -8.08265 -826979 4.13352e+06 -1.14033e+06 872253 973972 -1.67875e+06
106 3 O 1.34574 83.16 5.5259 -1.2 -9.87095 -556071 -854967 -2.90178e+06 904720 -864898 -851043
107 1 Mg -0.0329732 87.8313 1.41943 1.2 -8.21565 536520 1.32102e+06 765810 -807502 -774636 -847463
108 2 Si -2.12885 85.9589 1.34159 2.4 -33.6324 6.17414e+06 9.68444e+06 7.96467e+06 -431737 954556 -1.01909e+06
109 3 O 1.04953 85.9935 1.34069 -1.2 -9.429 -3.33489e+06 -4.23879e+06 -4.26011e+06 301525 -448762 600099
110 3 O -0.972172 89.8066 1.31303 -1.2 -9.40105 -4.56586e+06 -2.92828e+06 -2.60504e+06 605444 329100 -1.54664e+06
111 3 O -1.31611 86.7197 0.167291 -1.2 -8.92235 -3.52948e+06 -4.5817e+06 -1.95353e+06 816112 -1.88362e+06 1.50334e+06
112 3 O -1.44211 86.3989 2.68032 -1.2 -8.8833 -2.91514e+06 -5.53049e+06 -4.53102e+06 444035 305119 -1.6905e+06
113 1 Mg -2.37654 90.4088 -0.303339 1.2 -7.26709 -107235 3.96134e+06 3118.75 -569866 -1.95171e+06 -1.68934e+06
114 1 Mg 2.04325 93.3628 1.13185 1.2 -7.97976 2.3121e+06 462606 1.68496e+06 665286 -527409 806214
115 2 Si -0.394146 91.326 1.35253 2.4 -33.2467 4.57595e+06 9.44683e+06 9.77162e+06 -2.48214e+06 -369025 -916229
116 3 O 1.16389 91.1184 1.38925 -1.2 -9.45291 -2.46105e+06 -2.93127e+06 -4.84791e+06 -1.71937e+06 -1.46037e+06 -554375
117 3 O -1.40805 95.2611 1.38543 -1.2 -9.34256 -1.82397e+06 -4.38698e+06 -3.73865e+06 286415 851899 -907523
118 3 O -0.912141 92.1902 0.0540687 -1.2 -8.88789 -413910 -677393 -2.92334e+06 842352 928659 -765659
119 1 Mg -2.64618 100.848 3.20248 1.2 -7.23956 -1.10039e+06 3.78732e+06 -389200 -1.02649e+06 704758 2.25636e+06
120 3 O -1.13358 92.0155 2.54296 -1.2 -8.86779 -3.35661e+06 -2.11154e+06 -4.23221e+06 1.39591e+06 -130475 266392
121 1 Mg -2.46391 97.9268 4.75781 1.2 -8.19654 1.61176e+06 139026 2.86108e+06 480614 -768892 663538
122 2 Si 0.0306284 99.8281 4.61574 2.4 -32.1939 2.86037e+06 1.11336e+07 8.99241e+06 86232.1 2.42407e+06 -1.57313e+06
123 3 O -1.5277 99.8272 4.51078 -1.2 -10.1943 -2.26095e+06 -3.45958e+06 -4.00603e+06 -151032 1.25523e+06 1.0365e+06
124 3 O 1.34078 95.9719 4.53312 -1.2 -9.08147 -2.63543e+06 -1.21817e+06 -5.22763e+06 -665069 847399 -346030
125 3 O 0.579456 99.4221 3.23566 -1.2 -9.37551 -4.63821e+06 -3.51426e+06 -5.7006e+06 466728 -312138 -1.34859e+06
126 3 O 0.786789 98.9433 5.80483 -1.2 -9.34032 -707389 -1.6731e+06 -859848 -1.9381e+06 1.15583e+06 -356228
127 1 Mg 0.0443498 95.5545 3.08957 1.2 -7.29319 -394691 1.2917e+06 1.31917e+06 572888 -2.0219e+06 2.50954e+06
128 1 Mg -0.165638 92.5839 4.2669 1.2 -7.60082 1.8574e+06 -1.00376e+06 4.18207e+06 -681906 -93771.8 -38315.4
129 2 Si 2.02587 94.4172 4.38458 2.4 -32.7831 259623 9.42737e+06 9.85291e+06 -649478 -955329 984869
130 3 O -1.17269 94.4994 4.42042 -1.2 -9.91551 -2.23897e+06 -2.93402e+06 -5.59952e+06 -728401 -703929 -547154
131 3 O 0.725628 90.814 4.16482 -1.2 -9.25848 44917.3 341136 -3.97959e+06 1.52452e+06 -87137 -123342
132 3 O 1.53531 93.966 3.02957 -1.2 -9.41475 -3.74995e+06 -3.37302e+06 -4.0165e+06 -156862 -530071 -1.44187e+06
133 1 Mg -0.00149452 95.8617 -0.218039 1.2 -7.40246 -1.50207e+06 3.08501e+06 -45578 1.22642e+06 2.07426e+06 -573107
134 3 O 1.46784 93.7261 5.6711 -1.2 -9.63174 -2.30829e+06 -3.43533e+06 -2.33604e+06 354691 163825 271555
135 1 Mg -0.110129 98.5324 1.70192 1.2 -7.8662 2.13028e+06 -418110 2.55971e+06 -2.14937e+06 -1.12423e+06 -646495
136 2 Si -1.9813 96.6667 1.56409 2.4 -32.8828 5.24041e+06 7.3609e+06 1.2208e+07 -1.00948e+06 577609 -858877
137 3 O 1.12389 96.6873 1.47259 -1.2 -9.43076 944183 -1.8511e+06 -3.28131e+06 -233175 249142 643527
138 3 O -1.31124 100.5 1.55169 -1.2 -9.49246 -2.44022e+06 -2.06655e+06 -5.26574e+06 1.46379e+06 -2.54877e+06 -1.77235e+06
139 3 O -1.48549 97.6211 0.301487 -1.2 -9.32361 -3.72459e+06 -1.33726e+06 1.2022e+06 420783 25648.9 -1.44883e+06
140 3 O -1.49059 97.186 3.00965 -1.2 -9.28591 -2.67406e+06 -1.69795e+06 -2.26863e+06 -1.29728e+06 533722 -148976
141 1 Mg -2.49337 101.016 0.240194 1.2 -6.62207 -4.50127e+06 3.93524e+06 -2.0624e+06 -1.37616e+06 -3.81635e+06 -978598
142 1 Mg 7.04414 103.954 1.59528 1.2 -7.37158 333474 135986 3.49418e+06 1.73897e+06 -178711 -584980
143 2 Si -0.512859 102.008 1.75025 2.4 -31.114 -948148 1.15554e+07 9.71229e+06 1.15107e+06 -168132 -1.33521e+06
144 3 O 0.907972 102.066 1.74901 -1.2 -10.2377 -4.56378e+06 -3.65239e+06 -4.47728e+06 -128056 151174 -349756
145 3 O 3.34664 105.95 1.75302 -1.2 -10.0819 -2.85989e+06 -1.60733e+06 -3.52171e+06 -1.51752e+06 673725 2.23599e+06
146 3 O -1.16036 102.956 0.368393 -1.2 -10.0565 -1.78117e+06 179184 1.25356e+06 -37433 396657 -589929
147 1 Mg 2.32205 111.913 3.08384 1.2 -6.54179 -3.97812e+06 2.86512e+06 -1.03124e+06 -399943 1.42665e+06 3.57731e+06
148 3 O -1.2484 102.425 3.08351 -1.2 -9.69423 -2.76341e+06 -3.26309e+06 -463759 1.09657e+06 -383003 -1.5019e+06
149 1 Mg 2.3533 109.017 4.44575 1.2 -7.32627 -1.62663e+06 -858715 634700 2.80794e+06 1.78043e+06 -2.7032e+06
150 2 Si 5.17514 110.917 4.61398 2.4 -29.9764 1.51034e+06 9.89294e+06 7.8568e+06 -1.49742e+06 272278 499897
151 3 O 3.62928 111.055 4.34904 -1.2 -10.3281 67932.1 -6.14893e+06 -1.68051e+06 982040 766611 -1.52059e+06
152 3 O 6.47219 106.787 4.48642 -1.2 -8.95677 -3.24701e+06 -5.84871e+06 -4.55767e+06 -4.54983e+06 -3.16797e+06 -2.58233e+06
153 3 O 5.77502 110.182 3.29121 -1.2 -10.3912 -2.9352e+06 -2.91871e+06 -1.48291e+06 -1.03995e+06 -437061 -1.06838e+06
154 3 O 5.83178 109.993 6.00864 -1.2 -10.2412 -1.52315e+06 -4.71722e+06 -386703 -599241 2.21213e+06 -1.07251e+06
155 1 Mg 4.93895 106.269 3.15516 1.2 -6.91944 -3.55467e+06 1.93292e+06 341411 -354923 263717 2.7999e+06
156 1 Mg -0.00213689 103.341 4.92879 1.2 -7.38218 -632512 2.5275e+06 2.36965e+06 424945 539188 2.20421e+06
157 2 Si 7.0594 105.297 4.57036 2.4 -32.2636 7.21787e+06 8.60661e+06 9.91856e+06 1.86948e+06 424354 3.16132e+06
158 3 O 3.94576 105.356 4.63466 -1.2 -10.0506 -1.9279e+06 -1.27063e+06 -4.36164e+06 2.36821e+06 479599 -1.19002e+06
159 3 O 0.684662 101.343 4.78727 -1.2 -10.0596 428238 -3.08021e+06 -2.97841e+06 1.71687e+06 -279962 -943284
160 3 O 6.23943 104.623 3.37402 -1.2 -9.37087 -420591 -3.81064e+06 -5.55067e+06 841491 2.57846e+06 -1.956e+06
161 1 Mg 4.70491 106.426 0.426928 1.2 -7.07423 -2.82991e+06 2.50782e+06 51135 416077 1.0929e+06 -784502
162 3 O 6.19436 104.668 5.82628 -1.2 -9.39142 -2.00981e+06 -281281 -4.64579e+06 492067 -2.93902e+06 -341414
163 1 Mg 4.58232 109.572 1.76278 1.2 -7.45694 -897616 -2.22145e+06 4.3757e+06 -269233 -650168 727898
164 2 Si 2.6653 107.445 1.97509 2.4 -30.8284 5.02282e+06 7.98549e+06 1.38606e+07 1.95141e+06 294832 1.59172e+06
165 3 O 5.89535 107.186 1.79517 -1.2 -10.4 -2.69347e+06 -3.07802e+06 -6.65905e+06 2.20302e+06 567868 925910
166 3 O 3.74339 111.232 1.30276 -1.2 -10.3062 -1.16044e+06 -7.44315e+06 -5.07717e+06 2.86295e+06 141259 198323
167 3 O 3.4887 108.171 0.715653 -1.2 -9.53181 -1.1479e+06 -2.75199e+06 -2.53882e+06 -656874 -1.64196e+06 -1.02533e+06
168 3 O 3.48519 108.345 3.22991 -1.2 -9.44943 -829646 -390905 -6.96023e+06 921059 4.71556e+06 1.20017e+06
169 1 Mg 2.36831 111.915 0.0180815 1.2 -6.22862 -3.72246e+06 2.49422e+06 720714 -1.0848e+06 -1.46234e+06 -858375
170 1 Mg 6.85962 114.532 1.72851 1.2 -6.98618 -786091 785731 994906 326315 241717 -55160.8
171 2 Si 4.41852 112.657 1.47454 2.4 -29.8462 706542 1.10878e+07 8.8565e+06 -1.06771e+06 -350295 3.47656e+06
172 3 O 5.99449 112.645 1.65627 -1.2 -11.3656 -841372 -4.84199e+06 -4.18206e+06 -668141 -478918 -1.06277e+06
173 3 O 3.24169 116.839 1.48375 -1.2 -9.78158 -2.7821e+06 -2.82504e+06 -2.61114e+06 -934848 905179 -996371
174 3 O 3.6109 113.378 0.346948 -1.2 -10.5984 535185 -7.17461e+06 -3.78638e+06 -483839 894618 -446019
175 1 Mg 2.42863 122.853 3.04639 1.2 -6.49201 -2.94287e+06 3.55773e+06 1.28975e+06 -74135 -159709 615862
176 3 O 3.73586 113.427 2.87103 -1.2 -10.2848 600526 -2.22677e+06 -1.94609e+06 -1.12718e+06 -1.17068e+06 1.42595e+06
177 1 Mg 2.21336 119.551 4.78293 1.2 -6.92124 -588594 640200 1.98168e+06 667321 -431623 94537.4
178 2 Si 4.92874 121.743 4.25597 2.4 -30.1845 2.78399e+06 1.25333e+07 7.68831e+06 -432870 -1.11173e+06 4558
179 3 O 3.33066 121.918 4.48165 -1.2 -10.6752 -363350 -5.04351e+06 -5.56042e+06 632599 155040 -317618
180 3 O 5.96996 117.76 4.57047 -1.2 -10.3225 -2.03847e+06 -1.14617e+06 -3.08102e+06 -155433 676166 1.50474e+06
181 3 O 5.44446 121.029 2.95281 -1.2 -10.3629 -103903 -1.94345e+06 -4.38261e+06 315730 -2.09568e+06 1.42115e+06
182 3 O 5.64716 120.887 5.48065 -1.2 -10.6558 -1.18808e+06 -4.05139e+06 -2.52764e+06 -1.06655e+06 1.99845e+06 167368
183 1 Mg 4.50821 117.547 3.06515 1.2 -6.88574 -1.48562e+06 1.9686e+06 372698 1.2996e+06 -1.0097e+06 1.78858e+06
184 1 Mg 4.5859 114.401 4.38891 1.2 -6.89085 -802081 418522 4.73013e+06 -1.43148e+06 -124064 -249259
185 2 Si 6.63225 116.278 4.55905 2.4 -31.0626 83106.9 8.59715e+06 1.41013e+07 337005 -269527 -697528
186 3 O 3.36467 116.466 4.57156 -1.2 -10.5187 -1.90776e+06 -2.41056e+06 -3.46807e+06 827606 -169451 846674
187 3 O 5.9353 112.181 4.69629 -1.2 -10.4837 -4.10254e+06 -7.18236e+06 -4.38999e+06 -558849 -355826 -2.92125e+06
188 3 O 6.05383 115.399 3.20221 -1.2 -10.1862 -242933 -728604 -1.0663e+06 204457 975843 1.43992e+06
189 1 Mg 4.6707 117.165 0.0436545 1.2 -6.43209 -4.3534e+06 2.88338e+06 1.17286e+06 280950 1.51804e+06 -2.27851e+06
190 3 O 5.97738 115.563 5.95412 -1.2 -9.5016 -694374 -1.15567e+06 1.08489e+06 -1.84369e+06 -390686 -801828
191 1 Mg 4.31642 120.365 1.61095 1.2 -6.72353 -1.39231e+06 438787 815054 -603875 -946467 -2.14413e+06
192 2 Si 2.46189 118.256 1.34335 2.4 -30.3051 -1.22671e+06 1.07105e+07 8.13146e+06 -1.09588e+06 366526 -63741.5
193 3 O 5.78904 117.984 1.59289 -1.2 -10.6461 -4.41098e+06 -5.36843e+06 -2.76131e+06 816266 -256909 80357.5
194 3 O 3.77594 122.331 1.26914 -1.2 -10.3773 -194865 -6.72436e+06 -2.14497e+06 2.24124e+06 -897266 -223603
195 3 O 3.1371 119.063 0.265344 -1.2 -10.9335 -586906 -4.54785e+06 -5.1261e+06 87350.1 -278354 2.41878e+06
196 3 O 3.19399 119.024 2.90873 -1.2 -9.75945 -1.03356e+06 -2.23264e+06 1.87334e+06 713888 1.00203e+06 1.48339e+06
197 1 Mg 2.06885 122.521 -0.0982825 1.2 -7.0136 -2.72895e+06 3.38915e+06 614906 229385 -66177.1 -1.51827e+06
198 1 Mg 6.91791 125.763 1.51859 1.2 -8.65672 2.72953e+06 -751427 -328930 383924 1.57039e+06 -965826
199 2 Si 4.47964 123.709 1.15154 2.4 -32.6899 4.04468e+06 6.9667e+06 1.00454e+07 -233751 -704921 805514
200 3 O 5.97009 123.852 1.1591 -1.2 -9.8275 -5.30541e+06 -1.87003e+06 -3.76809e+06 118524 -383280 362476
201 3 O 3.39874 127.517 1.55526 -1.2 -8.95647 -2.5881e+06 -1.60642e+06 -2.46159e+06 -893650 -811571 476919
202 3 O 3.81944 124.596 0.00512543 -1.2 -8.49692 -3.79968e+06 -155974 -2.97416e+06 -293383 291080 -1.73455e+06
203 1 Mg 2.45486 133.417 2.7852 1.2 -6.85048 -4.37749e+06 2.18166e+06 -70626.6 -822902 2.26923e+06 1.02341e+06
204 3 O 3.66986 124.425 2.60728 -1.2 -8.78576 -1.14129e+06 -1.85519e+06 -2.62688e+06 -933090 -1.98656e+06 665793
205 1 Mg 2.28791 130.455 4.29004 1.2 -7.52466 85680.6 -1.16666e+06 3.14538e+06 2.16981e+06 1.78605e+06 36178.8
206 2 Si 5.03367 132.139 3.91134 2.4 -32.5711 -1.5548e+06 5.60564e+06 8.89218e+06 1.30057e+06 -2.4704e+06 727880
207 3 O 3.62273 132.304 4.23494 -1.2 -9.74372 -7.86983e+06 -2.47668e+06 -5.54023e+06 110202 -1.53237e+06 168442
208 3 O 6.07073 128.425 4.17201 -1.2 -9.85691 -2.009e+06 -4.87077e+06 -6.61518e+06 -910055 -1.24268e+06 15091.3
209 3 O 5.72672 131.509 2.68569 -1.2 -9.43406 11535.1 -3.9902e+06 -8.15611e+06 -839030 607769 -2.29743e+06
210 3 O 5.714 131.47 5.12439 -1.2 -9.04555 -6.31484e+06 -5.02845e+06 -6.06518e+06 1.64756e+06 479275 1.59805e+06
211 1 Mg 4.78993 128.124 2.89132 1.2 -7.35088 -3.47279e+06 3.1284e+06 -444113 1.32717e+06 -3.66935e+06 1.39165e+06
212 1 Mg 4.40676 125.083 4.41553 1.2 -8.06953 1.09403e+06 -1.82914e+06 5.35671e+06 55862.4 -128231 -581151
213 2 Si 6.72585 126.966 4.24964 2.4 -32.6264 5.15232e+06 5.05887e+06 1.04466e+07 285657 -952570 -1.26431e+06
214 3 O 3.53455 126.845 4.37418 -1.2 -9.58143 -2.18855e+06 -1.23587e+06 -8.06506e+06 509439 -412962 -152419
215 3 O 5.69853 123.191 4.49874 -1.2 -10.1342 -1.20865e+06 -2.70724e+06 -2.52934e+06 1.5267e+06 -271780 1.86634e+06
216 3 O 6.10054 126.219 3.07258 -1.2 -8.97358 -5.3731e+06 -2.10575e+06 -9.20383e+06 239350 1.12975e+06 -1.52292e+06
217 1 Mg 4.68406 128.197 -0.217029 1.2 -7.88853 -807250 2.42389e+06 293254 1.30981e+06 2.02517e+06 -2.54687e+06
218 3 O 6.01217 126.455 5.62004 -1.2 -9.12389 -4.45542e+06 -1.91117e+06 -4.36008e+06 1.62736e+06 137216 728631
219 1 Mg 4.51183 131.113 1.18648 1.2 -7.58711 1.75379e+06 -1.00612e+06 2.51334e+06 -1.87885e+06 -418975 -1.02011e+06
220 2 Si 2.81373 129.125 1.46414 2.4 -32.7396 8.69481e+06 7.45409e+06 6.55647e+06 -1.85981e+06 1.6008e+06 -354968
221 3 O 5.8997 129.03 1.31235 -1.2 -8.80508 1.49664e+06 -3.30118e+06 -5.52465e+06 457645 1.38372e+06 -665002
222 3 O 3.59794 133.028 1.22 -1.2 -10.0804 -3.29271e+06 -6.53468e+06 -6.43508e+06 1.46069e+06 47372.3 -1.52733e+06
223 3 O 3.40383 129.688 0.168509 -1.2 -9.32411 -6.86041e+06 -1.54093e+06 -4.04691e+06 -406220 -294154 1.4896e+06
224 3 O 3.45526 129.791 2.66934 -1.2 -9.87722 -3.60049e+06 -1.51991e+06 -5.44413e+06 -93848.6 -75089.3 -1.76314e+06
225 1 Mg 2.22733 133.319 -0.0723118 1.2 -7.43321 -3.01319e+06 3.60698e+06 -618924 -108469 -1.54682e+06 -1.12674e+06
226 1 Mg 7.19149 136.36 1.29447 1.2 -6.84952 940044 1.33733e+06 977568 894445 49379.4 -458534
227 2 Si 4.3977 134.381 1.26347 2.4 -31.2468 4.30468e+06 7.00346e+06 9.31617e+06 835075 2.13338e+06 -697694
228 3 O 5.99245 134.317 1.41294 -1.2 -10.1114 -261915 -3.70193e+06 -5.23795e+06 803781 83314.3 -338644
229 3 O 3.64137 138.152 1.36124 -1.2 -11.0304 -3.52526e+06 -5.36992e+06 -257929 808158 -392528 -405553
230 3 O 3.844 135.096 -0.165034 -1.2 -9.40991 -2.49899e+06 -3.95326e+06 -3.85896e+06 -1.31914e+06 3.45615e+06 1.38562e+06
231 1 Mg 2.73407 143.797 2.50235 1.2 -6.24038 -5.94744e+06 3.18608e+06 -2.70252e+06 566669 2.69035e+06 1.97871e+06
232 3 O 3.66638 135.012 2.45027 -1.2 -10.3921 -4.96482e+06 -4.45769e+06 -3.33022e+06 -1.27019e+06 -317536 -2.07067e+06
233 1 Mg 2.7583 140.829 4.4103 1.2 -6.54808 -154868 1.88317e+06 632946 774241 -119702 -454961
234 2 Si 5.13153 142.742 3.92015 2.4 -30.7147 950252 1.1901e+07 5.04765e+06 -275126 -1.61869e+06 2.73945e+06
235 3 O 3.61416 142.889 3.93983 -1.2 -10.7519 -2.69189e+06 -3.89484e+06 -4.09391e+06 -675344 -2.69074e+06 -2.01685e+06
236 3 O 6.23226 138.986 4.27913 -1.2 -10.5684 902400 -2.46115e+06 -2.75955e+06 -529047 -725453 -1.01493e+06
237 3 O 5.94201 142.431 2.64371 -1.2 -10.318 -1.75029e+06 -3.09346e+06 -6.0804e+06 729085 -575990 -841248
238 3 O 5.77676 141.877 5.05924 -1.2 -10.761 524074 -7.02824e+06 -2.33481e+06 29232 1.82467e+06 1.42427e+06
239 1 Mg 4.81874 138.581 2.92612 1.2 -6.19458 -5.00386e+06 4.226e+06 320977 689576 -2.3611e+06 2.18319e+06
240 1 Mg 4.68037 135.535 4.28487 1.2 -6.72964 -219516 928548 2.5778e+06 -575062 -707417 -493791
241 2 Si 6.95516 137.452 4.13931 2.4 -29.508 -1.23322e+06 1.36518e+07 7.31474e+06 923510 2.18922e+06 661081
242 3 O 3.6761 137.647 4.35218 -1.2 -11.5158 -2.29153e+06 -4.14866e+06 -4.28628e+06 377351 1.18758e+06 -118303
243 3 O 5.75212 133.557 4.0555 -1.2 -9.63344 -1.58799e+06 -7.36743e+06 -5.66647e+06 -811067 1.79327e+06 2.05517e+06
244 3 O 6.10946 136.829 2.8923 -1.2 -10.2772 2.28059e+06 -4.26129e+06 -5.79181e+06 1.65579e+06 900992 413190
245 1 Mg 4.68429 138.734 -0.420652 1.2 -6.39792 -2.31638e+06 3.90952e+06 -534163 1.49419e+06 2.08968e+06 -861861
246 3 O 6.18218 136.506 5.23333 -1.2 -10.5849 -314840 -3.18791e+06 -4.93868e+06 1.07837e+06 -1.93108e+06 -352570
247 1 Mg 4.90862 141.76 1.0868 1.2 -6.80711 80815.5 1.60664e+06 -1.89589e+06 -1.04693e+06 1.1727e+06 1.13369e+06
248 2 Si 2.91737 139.533 1.31044 2.4 -30.3594 1.96233e+06 1.01799e+07 7.06547e+06 748362 1.1493e+06 657818
249 3 O 6.18159 139.374 1.1674 -1.2 -10.2432 -1.0451e+06 -4.48237e+06 -2.24179e+06 -547781 869472 -46623.4
250 3 O 3.80915 143.716 1.11727 -1.2 -9.97044 -1.73269e+06 -3.32447e+06 -6.55927e+06 2.17833e+06 2.9799e+06 -530581
251 3 O 3.55116 140.297 -0.0946829 -1.2 -10.2057 -2.78086e+06 -2.29875e+06 1.39085e+06 133372 -1.75693e+06 -1.96373e+06
252 3 O 3.57197 140.361 2.57903 -1.2 -10.7372 536968 -2.26727e+06 -359111 1.40685e+06 785347 -930927
253 1 Mg 2.47425 144.25 -0.442576 1.2 -6.65425 -2.74753e+06 4.6229e+06 -1.89578e+06 -594651 -1.96132e+06 -1.57783e+06
254 1 Mg 7.05792 147.062 1.89685 1.2 -7.00933 1.94183e+06 787509 4.0762e+06 531479 1.21287e+06 476487
255 2 Si 4.75222 145.166 1.03218 2.4 -31.5188 583337 1.24021e+07 9.44775e+06 498199 461935 901515
256 3 O 6.22125 145.198 1.11819 -1.2 -10.4751 -4.9322e+06 -4.13851e+06 -2.73935e+06 2.17412e+06 1.17933e+06 582118
257 3 O 3.81448 148.983 2.03392 -1.2 -9.56179 -1.53966e+06 -3.71076e+06 -3.45969e+06 62617.5 1.05311e+06 1.87325e+06
258 3 O 4.13092 145.749 -0.324017 -1.2 -9.25354 -1.32237e+06 -5.31063e+06 -2.14584e+06 486452 1.63357e+06 -1.52072e+06
259 1 Mg 1.97839 154.322 2.38823 1.2 -6.39265 -761384 -225118 3.25822e+06 -10191.4 -54328.9 -170808
260 3 O 4.25062 146.049 2.36012 -1.2 -9.75714 1.07829e+06 -1.17527e+06 -987921 774466 932335 1.20029e+06
261 1 Mg 1.87698 153.715 5.74919 1.2 -6.82077 -2.34661e+06 -397175 670568 1.02783e+06 -1.26328e+06 -290468
262 2 Si 4.16182 152.824 3.73994 2.4 -32.0945 5.52633e+06 6.97024e+06 1.21138e+07 -357963 -452112 -4.0636e+06
263 3 O 3.01559 153.887 4.12084 -1.2 -10.2293 399077 -1.40532e+06 -3.81029e+06 -576983 1.29244e+06 614238
264 3 O 6.90336 149.914 4.89482 -1.2 -8.64029 -1.07878e+06 -3.68329e+06 -4.7251e+06 -705166 587903 3.77975e+06
265 3 O 4.90601 153.516 2.37715 -1.2 -9.61855 -2.52588e+06 -1.13166e+06 -1.39087e+06 733237 92274.5 1.19093e+06
266 3 O 5.12216 152.474 4.93553 -1.2 -9.81168 -701641 -134195 -2.69508e+06 663644 2.47851e+06 -900841
267 1 Mg 5.28613 149.154 3.60908 1.2 -7.18959 162691 699011 2.37975e+06 1.26177e+06 942374 149253
268 1 Mg 5.05307 146.346 4.38124 1.2 -7.05701 1.68007e+06 2.29975e+06 2.79479e+06 -107312 7701.33 710733
269 2 Si 7.47262 148.471 5.24067 2.4 -33.8106 5.69594e+06 5.49061e+06 9.72898e+06 -510346 -921010 432225
270 3 O 4.27011 148.405 5.0668 -1.2 -9.27891 -4.78306e+06 -324479 -4.32834e+06 -236094 -787679 257175