ITEM: TIMESTEP
55500
ITEM: NUMBER OF ATOMS
5600
ITEM: BOX BOUNDS xy xz yz pp pp pp
0.0000000000000000e+00 7.1234999999999999e+00 0.0000000000000000e+00
0.0000000000000000e+00 2.0198500000000001e+02 2.3744999999999998e+00
0.0000000000000000e+00 1.1958400000000000e+02 0.0000000000000000e+00
ITEM: ATOMS id type element xu yu zu q c_pe c_s[1] c_s[2] c_s[3] c_s[4] c_s[5] c_s[6]
1 1 Mg -1.75081 48.5261 -0.842398 1.2 -7.66273 -1.88795e+06 49009.1 1.43657e+06 947758 1.40968e+06 -129719
2 1 Mg 3.06985 51.2853 2.05696 1.2 -8.67118 2.59564e+06 3.50228e+06 981362 -814946 307077 -1.73524e+06
3 2 Si 0.934401 49.7552 0.216145 2.4 -34.7036 9.34007e+06 9.55534e+06 5.20047e+06 107550 529978 -975350
4 3 O 1.97101 48.7472 0.724269 -1.2 -7.83363 -4.80806e+06 -4.04949e+06 -2.76525e+06 -128148 -1.68279e+06 1.05799e+06
5 3 O -1.59104 53.3545 1.45841 -1.2 -8.33699 -3.92453e+06 -6.81301e+06 -2.57994e+06 -534451 273426 -30303.8
6 3 O 0.110172 49.1146 -0.955052 -1.2 -9.00134 -4.02066e+06 -2.36048e+06 -5.9899e+06 1.48458e+06 468765 -415110
7 1 Mg -2.66438 58.9841 2.99751 1.2 -7.6699 -792227 5.34895e+06 -2.48521e+06 -1.25367e+06 1.40117e+06 1.43161e+06
8 3 O -0.0231277 50.3574 1.3045 -1.2 -7.89193 -5.13285e+06 -4.05151e+06 -2.05433e+06 -2.41771e+06 658576 88079.5
9 1 Mg -2.16121 55.9085 4.85278 1.2 -8.61214 3.39418e+06 2.435e+06 599646 617156 213967 -610712
10 2 Si 0.430602 57.9345 4.7191 2.4 -32.4908 7.5049e+06 1.48279e+07 4.43422e+06 -508375 563507 916395
11 3 O -1.1298 57.8948 4.48912 -1.2 -9.47975 -1.14029e+06 -4.66679e+06 362282 -103116 -555850 -46119.6
12 3 O 1.32587 53.7768 4.60742 -1.2 -7.90542 -3.75404e+06 -3.00865e+06 -3.17163e+06 -1.87931e+06 780452 379620
13 3 O 1.23445 57.2516 3.34259 -1.2 -8.4935 -3.12574e+06 -4.03748e+06 1.973e+06 -1.56687e+06 -1.24956e+06 638811
14 3 O 1.12895 57.1011 5.89191 -1.2 -9.40449 -1.38399e+06 -3.80424e+06 -2.98819e+06 -1.1326e+06 2.48732e+06 -148774
15 1 Mg -0.0869698 53.4735 3.01057 1.2 -8.80965 242475 3.28426e+06 323827 -476213 -121164 1.84179e+06
16 1 Mg 0.886452 49.9798 3.18619 1.2 -8.5638 4.38774e+06 -820457 -345452 -2.18039e+06 -21349.9 -1.09012e+06
17 2 Si 2.097 52.2341 4.57228 2.4 -33.884 1.25727e+07 1.12341e+07 4.86457e+06 -2.31271e+06 2.42007e+06 314052
18 3 O -1.11093 52.4066 4.44781 -1.2 -8.58298 -3.18155e+06 -5.4472e+06 216175 779692 -450997 104328
19 3 O 2.90216 49.7571 3.5916 -1.2 -6.32248 -2.76764e+06 -2.09251e+06 -3.14197e+06 719193 -907501 933487
20 3 O 1.38252 51.7669 3.14387 -1.2 -8.11584 -4.56433e+06 -8.84433e+06 -1.82954e+06 602856 778837 -884313
21 1 Mg -0.0819799 54.2298 0.0134802 1.2 -8.3301 855008 2.86318e+06 1.23213e+06 1.3506e+06 1.23858e+06 -260117
22 3 O 1.38192 51.5415 5.78731 -1.2 -10.2785 -5.81042e+06 -4.72307e+06 -5.83417e+06 937318 -1.56006e+06 1.65331e+06
23 1 Mg -0.244832 56.7102 1.69297 1.2 -8.12555 2.90471e+06 2.05277e+06 2.00734e+06 -1.2027e+06 251455 -548840
24 2 Si -2.20159 54.7419 1.8622 2.4 -34.871 9.10433e+06 8.67578e+06 8.61851e+06 -75853.3 -895578 947725
25 3 O 0.925436 54.6668 1.86372 -1.2 -8.53643 -2.68879e+06 -3.47995e+06 -4.18351e+06 239500 1.98887e+06 -92728
26 3 O -1.0338 58.5547 1.47221 -1.2 -9.29137 -1.60689e+06 -7.73192e+06 -2.83383e+06 -522774 -179358 -1.10614e+06
27 3 O -1.59978 55.5451 0.579626 -1.2 -8.48174 -4.04746e+06 -7.22095e+06 -481626 53745 -1.26242e+06 1.38269e+06
28 3 O -1.42411 55.1759 3.15143 -1.2 -8.29485 -5.66148e+06 -3.70437e+06 -2.46325e+06 678543 1.13401e+06 -1.0112e+06
29 1 Mg -2.30887 59.0501 -0.0553717 1.2 -7.24836 -1.85346e+06 3.996e+06 -3.08087e+06 -399550 -389504 -3.6085e+06
30 1 Mg 2.34166 61.7117 1.46703 1.2 -7.77099 -28729.2 2.42594e+06 1.42816e+06 1.75653e+06 461667 -643899
31 2 Si -0.413235 60.0277 1.43299 2.4 -32.5488 2.8909e+06 1.21018e+07 5.68083e+06 1.00251e+06 -2.61114e+06 -1.9032e+06
32 3 O 1.12767 59.9131 1.53493 -1.2 -9.91004 -2.82909e+06 -5.5053e+06 -2.42025e+06 -911686 -813268 765768
33 3 O -1.26229 63.4732 1.66652 -1.2 -9.52773 -651785 -4.27935e+06 -780074 -2.01647e+06 25457.2 -5895.93
34 3 O -1.0542 60.7315 0.212145 -1.2 -9.56519 -4.31133e+06 -6.55731e+06 -702720 1.55808e+06 370424 157944
35 1 Mg -2.44652 68.8757 3.13885 1.2 -8.21763 1.45946e+06 4.12594e+06 114390 -940390 1.41824e+06 913739
36 3 O -1.08451 60.4915 2.83524 -1.2 -9.35462 -1.83459e+06 -8.17058e+06 1.0478e+06 814262 193395 -1.39064e+06
37 1 Mg -2.14201 66.1594 4.74067 1.2 -8.64277 2.3077e+06 1.73838e+06 316562 504625 145025 -360644
38 2 Si 0.431436 68.0886 4.95233 2.4 -34.2622 7.11494e+06 1.39342e+07 4.34394e+06 -277639 254813 -1.6688e+06
39 3 O -1.09076 68.1971 4.76865 -1.2 -8.60439 -2.93771e+06 -5.06774e+06 -2.4634e+06 -27182.7 1.75958e+06 220743
40 3 O 1.58535 64.4569 4.71374 -1.2 -9.08318 -4.075e+06 -5.77213e+06 389520 119333 -47060.3 1.14911e+06
41 3 O 0.997323 67.3106 3.74762 -1.2 -8.81319 -5.32685e+06 -5.39092e+06 -713068 533052 196676 -1.27065e+06
42 3 O 1.16356 67.5855 6.25992 -1.2 -8.98523 -5.20639e+06 -4.00932e+06 -3.02398e+06 -16653.9 1.65937e+06 338922
43 1 Mg 0.212313 63.905 2.93242 1.2 -7.16345 -1.78043e+06 5.52439e+06 -22287.1 544862 -1.40403e+06 1.66644e+06
44 1 Mg -0.158201 61.1632 4.53624 1.2 -7.48671 711798 3.47752e+06 1.03175e+06 -221703 280384 258653
45 2 Si 2.11239 62.9171 4.64312 2.4 -32.6346 4.12217e+06 1.52865e+07 3.33204e+06 1.52354e+06 -1.50689e+06 851061
46 3 O -1.07264 63.0612 4.77044 -1.2 -9.73184 -1.61638e+06 -5.35757e+06 -639090 1.43194e+06 -684473 -147812
47 3 O 1.12533 59.3937 4.80359 -1.2 -9.77246 -784775 -6.23796e+06 -25657.2 1.00461e+06 1.0748e+06 -1.30431e+06
48 3 O 1.53508 62.2727 3.35958 -1.2 -9.90186 -2.01665e+06 -5.61141e+06 -582463 -24493.2 439320 -1.16429e+06
49 1 Mg -0.0542164 64.2705 -0.219021 1.2 -7.62512 -1.45053e+06 4.9256e+06 -2.86344e+06 796725 1.69069e+06 -1.41923e+06
50 3 O 1.41496 62.2311 5.95477 -1.2 -9.32514 -1.0571e+06 -6.30512e+06 2.25159e+06 -674685 -204952 -166160
51 1 Mg 0.0405431 67.067 1.8257 1.2 -8.51364 1.4048e+06 1.3126e+06 2.88132e+06 -186272 -4944.32 -934496
52 2 Si -1.98648 65.0018 1.68171 2.4 -32.8197 6.66838e+06 1.40587e+07 5.39093e+06 -351683 1.4743e+06 91651.9
53 3 O 1.19645 64.9249 1.46543 -1.2 -9.60214 -1.35167e+06 -4.88673e+06 -395980 123770 887098 743891
54 3 O -0.921724 68.8134 1.77876 -1.2 -8.4528 -2.83618e+06 -4.29958e+06 -3.63804e+06 2.00694e+06 138634 -533580
55 3 O -1.28399 65.7596 0.426108 -1.2 -8.89621 -4.76396e+06 -4.88248e+06 -740959 1.07023e+06 -687787 254893
56 3 O -1.31412 65.7226 2.93917 -1.2 -9.07654 -2.04622e+06 -3.16871e+06 -2.69289e+06 47966.2 1.24594e+06 -89587.1
57 1 Mg -2.28222 69.3044 0.257302 1.2 -8.64915 787294 3.72183e+06 -724802 -665819 -49568.1 -1.24722e+06
58 1 Mg 2.17441 72.123 1.69751 1.2 -8.57397 2.9432e+06 2.20524e+06 3.82166e+06 239021 208979 -682981
59 2 Si -0.286491 70.3985 1.84904 2.4 -34.4494 8.96602e+06 9.54329e+06 7.21311e+06 -222553 570435 -638838
60 3 O 1.34355 70.129 1.62353 -1.2 -8.89231 -2.83366e+06 -2.08385e+06 -3.32389e+06 -1.5332e+06 72190.1 -607311
61 3 O -1.3111 74.1655 1.78482 -1.2 -7.99764 -2.53474e+06 -5.80814e+06 -4.15308e+06 22155.6 -357673 1.05193e+06
62 3 O -1.02654 70.9801 0.523345 -1.2 -8.51769 -3.21089e+06 -4.24014e+06 -1.65347e+06 -1.04032e+06 1.3476e+06 1.26986e+06
63 1 Mg -2.18015 79.6006 2.89214 1.2 -7.86571 -339963 4.86657e+06 -355244 -161415 461766 1.32434e+06
64 3 O -0.896455 70.9645 3.03464 -1.2 -8.07253 -3.83774e+06 -5.56909e+06 -6.2259e+06 9420.9 -32028.8 -2.37876e+06
65 1 Mg -1.85622 77.0466 4.8258 1.2 -8.7138 886479 800078 986416 356366 -253375 214383
66 2 Si 0.564204 78.7155 4.57315 2.4 -33.2912 6.31741e+06 1.13637e+07 7.9554e+06 -1.05724e+06 -39961.5 207416
67 3 O -1.05466 78.8257 4.57561 -1.2 -9.59645 -1.93372e+06 -5.21225e+06 -1.95195e+06 -2.2956e+06 1.20807e+06 413268
68 3 O 1.59206 75.0788 4.69773 -1.2 -8.0727 -3.62855e+06 -4.68855e+06 -2.05802e+06 -1.3295e+06 626979 1.70231e+06
69 3 O 1.12731 78.0222 3.19171 -1.2 -8.85649 -2.033e+06 -4.29282e+06 481952 984657 -1.19395e+06 1.07086e+06
70 3 O 1.34877 78.1902 5.87183 -1.2 -8.81592 -2.07981e+06 -5.76901e+06 -1.42478e+06 26545.3 1.22619e+06 1.14387e+06
71 1 Mg 0.123124 74.6705 3.27909 1.2 -8.50825 305566 4.13723e+06 1.03166e+06 968836 -623615 899953
72 1 Mg 0.0687033 71.5942 4.69476 1.2 -9.67493 3.83269e+06 1.39679e+06 -288874 -1.03674e+06 285224 100556
73 2 Si 2.21687 73.5909 4.62591 2.4 -35.5412 8.63466e+06 1.07886e+07 6.56282e+06 194394 97960 -76737.7
74 3 O -1.02785 73.5005 4.66345 -1.2 -8.10922 -5.84164e+06 -3.85827e+06 -3.32779e+06 1.05412e+06 2.05711e+06 272310
75 3 O 1.1113 69.6797 4.65072 -1.2 -8.17838 -4.63222e+06 -2.47832e+06 495062 1.17928e+06 -200012 -479587
76 3 O 1.33784 72.7954 3.54337 -1.2 -8.2982 -5.53623e+06 -1.76673e+06 -2.04585e+06 808161 675088 264244
77 1 Mg 0.031589 74.6573 0.129744 1.2 -8.74778 1.58326e+06 2.92609e+06 -812373 797755 479000 -3.06008e+06
78 3 O 1.63842 72.9998 6.05259 -1.2 -7.71211 -5.90841e+06 -4.06427e+06 -955703 190407 -310510 -177401
79 1 Mg 0.143184 77.3042 1.52419 1.2 -8.41822 1.92047e+06 1.99494e+06 2.76074e+06 -427727 203902 -1.14438e+06
80 2 Si -2.07131 75.5585 1.76306 2.4 -34.5892 6.47109e+06 9.49606e+06 1.02234e+07 -1.08196e+06 449126 -400351
81 3 O 1.11942 75.4381 1.59877 -1.2 -9.16841 -4.56086e+06 -3.76207e+06 -3.29074e+06 -738838 525746 -137035
82 3 O -0.794986 79.272 1.32654 -1.2 -8.65255 -4.08269e+06 -3.15965e+06 -2.24186e+06 2.32363e+06 -245133 680996
83 3 O -1.40615 76.1961 0.444181 -1.2 -8.41025 -3.24569e+06 -5.71499e+06 -1.34191e+06 260780 -1.35237e+06 1.70563e+06
84 3 O -1.43125 76.1885 3.11552 -1.2 -8.35806 -4.37235e+06 -4.94852e+06 -2.50678e+06 256750 2.48689e+06 -241405
85 1 Mg -2.34088 79.7233 0.110442 1.2 -8.2667 -1.10744e+06 3.13459e+06 -3.45579e+06 -141456 299562 -3.26668e+06
86 1 Mg 2.70719 82.7632 1.20559 1.2 -8.16211 1.21736e+06 760945 530258 919142 -222160 54268.8
87 2 Si -0.036644 80.769 1.53885 2.4 -33.6133 7.75494e+06 1.29471e+07 8.94266e+06 205285 338510 1.3907e+06
88 3 O 1.52974 80.5313 1.4618 -1.2 -9.23161 -3.22289e+06 -5.93985e+06 -4.98978e+06 241206 877890 -1.81915e+06
89 3 O -1.08591 84.4846 1.43786 -1.2 -9.1585 -2.53664e+06 -6.77646e+06 -2.93251e+06 -2.11305e+06 -312836 358052
90 3 O -0.749593 81.5637 0.3356 -1.2 -8.86 -3.0733e+06 -4.3597e+06 -1.04147e+06 -787156 1.96835e+06 -335815
91 1 Mg -2.18473 90.1685 2.89953 1.2 -7.91714 -1.79691e+06 4.4764e+06 -1.02618e+06 -1.52626e+06 2.53102e+06 421004
92 3 O -0.71851 81.4359 2.90405 -1.2 -8.65538 -3.25813e+06 -2.65724e+06 -988838 -314664 -2.20146e+06 1.0573e+06
93 1 Mg -1.87127 87.1363 4.45418 1.2 -8.40702 2.14934e+06 1.57063e+06 1.15505e+06 33209.7 -381454 38417.4
94 2 Si 0.624269 89.1662 4.18477 2.4 -32.9008 3.51804e+06 1.18688e+07 8.25422e+06 -1.06579e+06 1.72687e+06 -1.65197e+06
95 3 O -0.852485 89.2348 4.28766 -1.2 -9.65549 -4.86667e+06 -3.49233e+06 -4.29316e+06 -1.41575e+06 -158858 918855
96 3 O 1.67434 85.4179 4.21505 -1.2 -8.7878 -2.25258e+06 -2.86761e+06 -95047.9 -688150 -132263 -256488
97 3 O 1.40821 88.5045 3.00717 -1.2 -9.25111 -3.17241e+06 -3.41871e+06 -3.94326e+06 -467137 -705893 833483
98 3 O 1.43313 88.5766 5.52488 -1.2 -8.77982 -2.13711e+06 -2.6641e+06 -970313 191296 1.2411e+06 -73401.6
99 1 Mg 0.340787 84.7312 2.7329 1.2 -7.8511 -1.11566e+06 5.06833e+06 -1.02124e+06 1.29873e+06 -2.09712e+06 568663
100 1 Mg 0.184813 81.9428 4.5862 1.2 -8.51561 922071 503538 930699 -782554 -668089 -1.38545e+06
101 2 Si 2.36342 83.7821 4.29551 2.4 -33.2551 2.95234e+06 1.32486e+07 5.30571e+06 -253580 -252460 -1.38897e+06
102 3 O -0.950222 83.9233 4.35722 -1.2 -9.3133 -6.07209e+06 -5.01902e+06 -2.79319e+06 674998 -179810 -127197
103 3 O 1.13651 80.2014 4.4586 -1.2 -8.94049 -3.00808e+06 -6.22875e+06 -2.93608e+06 1.36177e+06 -699741 1.19062e+06
104 3 O 1.59435 83.209 3.07611 -1.2 -8.91161 -3.95166e+06 -5.84165e+06 -1.65976e+06 -67173 217194 -749121
105 1 Mg 0.176155 84.9074 -0.133137 1.2 -7.81539 -2.05722e+06 4.6223e+06 -2.10469e+06 1.55332e+06 1.93277e+06 -1.60671e+06
106 3 O 1.6005 83.1355 5.58904 -1.2 -9.17525 -2.96486e+06 -3.05579e+06 -2.12476e+06 17321.1 -232604 750790
107 1 Mg 0.426723 87.7191 1.46809 1.2 -8.61191 546773 1.71806e+06 853326 -364859 -410818 -1.74422e+06
108 2 Si -1.74338 86.0628 1.42668 2.4 -33.4349 6.77487e+06 1.15527e+07 5.42117e+06 -449936 -367943 -2.34801e+06
109 3 O 1.47196 86.0603 1.21032 -1.2 -9.20157 -3.88833e+06 -4.88701e+06 -3.40094e+06 1.72246e+06 -407446 565370
110 3 O -0.86463 90.0066 1.51269 -1.2 -8.06655 -3.49181e+06 -8.23897e+06 -2.68411e+06 709433 1.3754e+06 325615
111 3 O -0.905204 86.6155 0.174793 -1.2 -8.57441 -4.64514e+06 -5.03444e+06 -1.75343e+06 102683 -631731 1.62659e+06
112 3 O -1.00119 86.6211 2.63802 -1.2 -8.96722 -3.0992e+06 -4.94394e+06 -4.25928e+06 143042 912359 -211711
113 1 Mg -2.25871 90.389 -0.117186 1.2 -8.85372 1.48406e+06 4.95596e+06 -1.11661e+06 -663478 -237904 -1.3479e+06
114 1 Mg 2.63938 93.255 1.49694 1.2 -9.08645 3.82414e+06 1.29796e+06 282807 1.36502e+06 572291 -1.22467e+06
115 2 Si -0.139898 91.4293 1.4703 2.4 -35.425 8.03612e+06 1.08857e+07 4.67646e+06 1.53739e+06 -788279 -768058
116 3 O 1.36486 91.364 1.29469 -1.2 -8.32162 -6.37328e+06 -5.06519e+06 -2.36067e+06 -323549 -148953 786786
117 3 O -1.14279 95.0794 1.36524 -1.2 -8.65636 -3.48331e+06 -4.79952e+06 -1.56474e+06 -1.41297e+06 -125230 1.79935e+06
118 3 O -0.921578 92.0792 0.259245 -1.2 -7.93316 -6.99699e+06 -6.50937e+06 -2.88298e+06 -909504 1.69702e+06 2.34567e+06
119 1 Mg -2.15487 100.693 2.78342 1.2 -7.76475 -1.27881e+06 3.25497e+06 7568.99 -2.12516e+06 1.27281e+06 2.33382e+06
120 3 O -0.828379 92.0699 2.73679 -1.2 -8.26314 -3.77013e+06 -5.06736e+06 -5.16374e+06 -501444 -1.27658e+06 -1.3782e+06
121 1 Mg -1.96989 97.8045 4.33364 1.2 -7.75121 1.85909e+06 1.3767e+06 1.88626e+06 993257 -843834 216389
122 2 Si 0.552458 99.8481 4.35596 2.4 -32.6929 5.62617e+06 1.26357e+07 7.07331e+06 -84825.6 -437686 -640031
123 3 O -1.04404 99.8879 4.25105 -1.2 -9.66448 -831017 -2.03366e+06 -2.56627e+06 -253172 -815619 189629
124 3 O 1.44186 96.0206 4.28874 -1.2 -9.4275 274485 -5.12405e+06 -2.64608e+06 -1.78919e+06 -1.19542e+06 -890692
125 3 O 1.26796 99.3445 3.03225 -1.2 -9.14996 -4.16695e+06 -4.031e+06 -3.44922e+06 -1.30682e+06 -486289 62730.6
126 3 O 1.04094 98.9163 5.52247 -1.2 -9.23001 -2.52185e+06 -560976 -1.88105e+06 190987 -711106 -62.3075
127 1 Mg 0.0158675 95.7436 2.85396 1.2 -7.83967 -2.20507e+06 4.49198e+06 227617 1.05487e+06 -1.65969e+06 37549.5
128 1 Mg 0.219853 92.5067 4.3367 1.2 -8.63718 2.12313e+06 247734 1.24433e+06 -846662 -354795 -1.0843e+06
129 2 Si 2.19564 94.5243 4.30863 2.4 -33.1649 9.50918e+06 9.45033e+06 7.76931e+06 -2.21972e+06 1.05942e+06 -1.09734e+06
130 3 O -0.917068 94.5468 4.44133 -1.2 -9.27432 -487017 -2.22533e+06 -2.35918e+06 -577558 1.41764e+06 37099.1
131 3 O 1.21837 90.7947 4.26579 -1.2 -9.09259 -2.69117e+06 -2.6729e+06 -2.90637e+06 1.2031e+06 179931 2.02074e+06
132 3 O 1.52701 93.8776 3.08316 -1.2 -8.74326 -3.669e+06 -3.89597e+06 -3.40091e+06 1.03095e+06 293185 -719381
133 1 Mg 0.266632 95.5444 -0.205726 1.2 -8.95416 -39418.5 5.68493e+06 -2.2101e+06 732114 1.475e+06 -3.39472e+06
134 3 O 1.60837 93.9313 5.71168 -1.2 -9.00409 -3.68029e+06 -2.8156e+06 -531325 498598 -1.32718e+06 917222
135 1 Mg 0.242962 98.5513 1.43028 1.2 -8.96799 2.05991e+06 268451 1.70084e+06 -623250 422403 1.08861e+06
136 2 Si -1.91164 96.5725 1.28367 2.4 -34.1486 8.74458e+06 1.28216e+07 6.21202e+06 123758 -1.06263e+06 -2.34667e+06
137 3 O 1.31131 96.492 1.27555 -1.2 -8.96485 -4.29739e+06 -4.41105e+06 -2.43805e+06 -209236 1.11567e+06 1.90693e+06
138 3 O -0.865111 100.183 1.19062 -1.2 -8.3435 -3.88439e+06 -7.94739e+06 -2.31193e+06 1.21003e+06 41047.6 404292
139 3 O -1.3442 97.156 -0.144089 -1.2 -7.07202 -6.2159e+06 -4.33963e+06 -1.1029e+06 -1.39274e+06 -1.82583e+06 -450506
140 3 O -1.06786 97.3767 2.40185 -1.2 -9.40965 -2.51841e+06 -4.3683e+06 -2.16874e+06 1.60799e+06 1.16812e+06 -482900
141 1 Mg -2.35071 100.85 -0.205006 1.2 -8.85494 -1.54177e+06 4.30549e+06 -2.4263e+06 -908939 -1.19965e+06 -347838
142 1 Mg 7.02136 103.714 1.61075 1.2 -8.46115 3.47559e+06 2.74043e+06 -150105 217822 500192 -366907
143 2 Si -0.216261 101.685 1.23018 2.4 -34.5836 6.75546e+06 1.26504e+07 2.81209e+06 219859 1.58707e+06 2.58107e+06
144 3 O 1.33993 101.617 1.24004 -1.2 -8.87511 -4.63512e+06 -4.58339e+06 -3.25511e+06 348662 1.8164e+06 -1.10624e+06
145 3 O 3.28561 105.578 1.42685 -1.2 -8.86593 -5.31096e+06 -3.83804e+06 158962 -8287.54 115314 -513702
146 3 O -0.987911 102.243 0.0146191 -1.2 -8.02321 -4.99679e+06 -7.9984e+06 -4.98039e+06 -1.51574e+06 314928 -44083.7
147 1 Mg 2.45022 111.535 3.09098 1.2 -8.80503 1.28768e+06 5.14601e+06 -616372 -578398 623426 1.90912e+06
148 3 O -0.795406 102.5 2.38744 -1.2 -8.88267 -3.79933e+06 -2.83477e+06 -5.55254e+06 -529388 -1.10494e+06 -2.20738e+06
149 1 Mg 2.41592 108.408 4.42837 1.2 -8.56745 1.0124e+06 1.0179e+06 3.13975e+06 39944.8 -453073 -473686
150 2 Si 4.962 110.343 4.56614 2.4 -33.7986 6.70536e+06 1.18085e+07 7.65967e+06 -300192 -783339 466132
151 3 O 3.46087 110.388 4.4535 -1.2 -9.21074 -4.51197e+06 -3.5435e+06 -3.50974e+06 -860753 643210 -798536
152 3 O 6.11097 106.692 4.01728 -1.2 -9.13328 -1.18098e+06 -3.1923e+06 -3.02936e+06 -1.74218e+06 360324 -124903
153 3 O 5.65108 109.652 3.21862 -1.2 -8.08875 -4.26758e+06 -3.2226e+06 342167 195183 -1.03531e+06 -50127.1
154 3 O 5.75026 109.814 5.83157 -1.2 -9.21599 -2.48713e+06 -5.49952e+06 -3.39849e+06 -579458 669882 1.5539e+06
155 1 Mg 4.68412 106.089 2.75275 1.2 -8.05132 -499734 4.62391e+06 -1.19084e+06 264988 -1.64444e+06 1.31315e+06
156 1 Mg -0.280658 103.313 4.20932 1.2 -8.42188 1.88011e+06 -195982 3.66067e+06 -772709 -180940 1.19742e+06
157 2 Si 6.80417 105.212 4.38105 2.4 -32.9836 5.4167e+06 1.19615e+07 1.09323e+07 1.05572e+06 829964 -2.77131e+06
158 3 O 3.58984 105.165 4.37774 -1.2 -9.80107 -2.38903e+06 -2.84471e+06 -4.30937e+06 303967 -210132 1.23662e+06
159 3 O 1.14186 101.469 4.45199 -1.2 -9.17864 75804.6 -1.31449e+06 -1.36503e+06 809359 46035.1 -1.44554e+06
160 3 O 6.11193 104.293 3.19305 -1.2 -8.82551 -2.11311e+06 -4.00313e+06 -2.70983e+06 -355970 1.09315e+06 658068
161 1 Mg 4.51488 106.029 -0.329494 1.2 -8.52749 594904 4.75571e+06 -771349 1.11717e+06 1.51088e+06 -1.29108e+06
162 3 O 6.16097 104.537 5.80232 -1.2 -8.40325 -3.99186e+06 -1.11998e+06 128948 -557288 -811193 -2.59034e+06
163 1 Mg 4.71262 108.95 1.62586 1.2 -9.20554 3.23104e+06 2.19137e+06 824450 -1.50827e+06 -10271.4 643009
164 2 Si 2.60207 107.068 1.23926 2.4 -34.7435 8.16101e+06 1.3818e+07 5.84722e+06 1.08095e+06 -51348.7 977143
165 3 O 5.821 106.853 1.25487 -1.2 -8.56949 -3.09691e+06 -5.36583e+06 -3.54654e+06 344783 -564127 -214327
166 3 O 3.72901 110.988 1.35347 -1.2 -7.89303 -5.19711e+06 -5.6517e+06 140981 1.53937e+06 25433.4 -450511
167 3 O 3.29676 107.74 -0.0312187 -1.2 -8.24084 -4.34245e+06 -3.2291e+06 -1.38626e+06 94539.5 -762085 -1.67788e+06
168 3 O 3.23854 107.973 2.44679 -1.2 -8.23712 -4.73193e+06 -3.57132e+06 -1.2925e+06 -415129 1.80144e+06 484574
169 1 Mg 2.2084 111.209 0.0830364 1.2 -8.93819 -25099.3 4.84072e+06 -1.52295e+06 -535886 -691333 -727623
170 1 Mg 7.17817 114.481 1.47459 1.2 -9.63858 5.36525e+06 1.7143e+06 1.16559e+06 497572 -23411.7 491406
171 2 Si 4.45731 112.452 1.41991 2.4 -36.0691 1.18771e+07 1.33793e+07 4.23315e+06 352972 -1.19736e+06 1.2983e+06
172 3 O 6.02453 112.276 1.46081 -1.2 -8.05796 -4.80054e+06 -5.25897e+06 -1.46995e+06 -412757 -791942 -299590
173 3 O 3.5265 116.224 1.45467 -1.2 -8.45785 -4.83604e+06 -5.03272e+06 -1.92628e+06 538174 -310808 -464091
174 3 O 3.91503 113.254 0.214079 -1.2 -7.48329 -6.79628e+06 -5.4876e+06 -2.13982e+06 -821319 1.53138e+06 178661
175 1 Mg 2.44005 122.417 2.99014 1.2 -7.99699 -1.06474e+06 5.07083e+06 -2.88336e+06 -818557 1.31957e+06 505401
176 3 O 3.62538 113.128 2.7013 -1.2 -7.7921 -3.60894e+06 -3.78644e+06 -1.18073e+06 -1.12774e+06 -1.25203e+06 -1.01453e+06
177 1 Mg 2.19922 119.219 4.43144 1.2 -8.1685 1.23195e+06 3.22679e+06 1.49777e+06 1.27058e+06 -678600 571752
178 2 Si 4.97344 121.031 4.52385 2.4 -33.2903 7.19475e+06 1.29536e+07 3.77492e+06 1.2665e+06 -828260 152154
179 3 O 3.43188 121.416 4.45536 -1.2 -9.06588 -2.09621e+06 -5.10536e+06 -2.43608e+06 342703 15383.4 -228517
180 3 O 5.96861 117.29 4.45768 -1.2 -8.78387 -5.24018e+06 -6.81712e+06 -3.21989e+06 -836187 -509468 -783957
181 3 O 5.53258 120.222 3.26509 -1.2 -9.05346 -4.16376e+06 -5.15226e+06 37180.7 -324562 -1.06787e+06 -470113
182 3 O 5.54525 120.427 5.78031 -1.2 -9.34125 -3.52692e+06 -5.30965e+06 -3.25662e+06 296745 18364.4 1.38427e+06
183 1 Mg 4.77297 116.99 3.0174 1.2 -8.23844 -235811 5.94526e+06 -3.22338e+06 950042 -3.1501e+06 1.89784e+06
184 1 Mg 4.7757 113.725 4.52133 1.2 -9.10306 3.78121e+06 1.00928e+06 964266 -439214 915546 1.20523e+06
185 2 Si 6.67011 115.839 4.39687 2.4 -35.3117 8.97347e+06 1.04736e+07 4.69978e+06 295719 -1.55679e+06 1.02678e+06
186 3 O 3.47174 116.09 4.42328 -1.2 -8.39838 -4.53565e+06 -4.32104e+06 -2.05801e+06 695628 106910 -640444
187 3 O 5.60629 111.923 4.51278 -1.2 -8.5169 -2.81304e+06 -3.94304e+06 -2.55376e+06 1.60201e+06 -555004 -303620
188 3 O 6.08595 115.097 3.23328 -1.2 -7.99314 -4.84844e+06 -3.55875e+06 -5.02875e+06 -16513 -1.18948e+06 -2.52085e+06
189 1 Mg 4.77242 116.944 -0.21071 1.2 -7.99298 -1.65157e+06 4.88314e+06 -3.45336e+06 1.86036e+06 3.43555e+06 -3.08929e+06
190 3 O 6.04816 115.079 5.68794 -1.2 -7.96017 -3.82341e+06 -3.48991e+06 -2.24026e+06 332843 -967817 -510790
191 1 Mg 4.99777 119.749 1.48408 1.2 -7.73654 1.54323e+06 3.2064e+06 -1.85037e+06 -1.69365e+06 -468981 382262
192 2 Si 2.85479 117.651 1.32224 2.4 -33.7063 5.80117e+06 1.52916e+07 4.23442e+06 -119296 -15011.1 1.30747e+06
193 3 O 6.01078 117.618 1.39137 -1.2 -9.02327 -1.66911e+06 -6.07879e+06 -830980 -1.35911e+06 -539754 -501380
194 3 O 3.72455 121.794 1.6288 -1.2 -9.21612 -1.27964e+06 -8.80451e+06 -1.37197e+06 -33704.1 186180 530720
195 3 O 3.37809 118.279 -0.0173039 -1.2 -9.2176 -3.31872e+06 -6.45336e+06 -909016 222666 76836.1 642633
196 3 O 3.29218 118.544 2.65382 -1.2 -8.77406 -2.85279e+06 -4.5888e+06 3.32187e+06 -810998 -1.02783e+06 520222
197 1 Mg 2.21191 122.177 -0.138623 1.2 -6.82243 -2.37611e+06 5.44939e+06 311227 -299010 -1.18894e+06 -1.98422e+06
198 1 Mg 7.15248 125.033 1.20643 1.2 -7.87384 1.14049e+06 -384213 2.31615e+06 415532 -501005 -1.10993e+06
199 2 Si 4.43285 123.176 1.42571 2.4 -33.0334 2.36124e+06 1.20225e+07 4.69555e+06 751890 1.02655e+06 -3.32953e+06
200 3 O 5.9489 123.147 1.51919 -1.2 -9.81867 -4.62326e+06 -4.72073e+06 -1.59113e+06 531589 167200 1.11133e+06
201 3 O 3.19343 126.758 1.43911 -1.2 -9.52068 -1.18002e+06 -7.5742e+06 -3.66819e+06 -2.51333e+06 312085 1.00189e+06
202 3 O 3.76446 123.856 0.128189 -1.2 -9.40513 -1.60733e+06 -3.93661e+06 -4.07932e+06 -293910 1.20736e+06 1.72663e+06
203 1 Mg 2.30654 132.499 3.37962 1.2 -7.12571 -3.28317e+06 4.0305e+06 -50782.4 -1.19822e+06 2.69331e+06 826587
204 3 O 3.79399 123.979 2.6026 -1.2 -8.75985 -4.28426e+06 -7.52014e+06 -1.91453e+06 41805.4 327799 -721021
205 1 Mg 2.2649 129.628 4.62665 1.2 -7.61128 -1.34857e+06 400716 4.0003e+06 1.29184e+06 -259323 1.44371e+06
206 2 Si 5.01562 131.373 4.82373 2.4 -31.1338 2.76912e+06 8.65173e+06 9.45241e+06 129093 -391220 393246
207 3 O 3.54391 131.564 4.8489 -1.2 -10.1926 -2.8136e+06 -2.67847e+06 -4.74656e+06 -2.09287e+06 300883 628365
208 3 O 6.15886 127.85 4.5474 -1.2 -9.25989 -1.55357e+06 -3.02412e+06 -2.19221e+06 -1.7371e+06 372068 763183
209 3 O 5.76586 130.741 3.50316 -1.2 -10.0672 -1.28894e+06 -4.17515e+06 -1.82104e+06 475248 -1.28671e+06 -175167
210 3 O 5.78432 130.923 6.15746 -1.2 -9.76962 -2.7216e+06 -3.25503e+06 -2.12727e+06 581711 920101 907636
211 1 Mg 4.6454 126.98 2.78029 1.2 -7.57753 -1.23755e+06 4.39389e+06 -1.42742e+06 879978 -1.06377e+06 363911
212 1 Mg 4.67708 124.361 4.51806 1.2 -8.19361 778656 2.14336e+06 -1.29189e+06 -1.24707e+06 1.2098e+06 921794
213 2 Si 6.75518 126.279 4.48957 2.4 -32.7246 5.59074e+06 1.3949e+07 6.5637e+06 -414709 -1.36435e+06 -1.23747e+06
214 3 O 3.55399 126.362 4.48854 -1.2 -9.81703 -2.01621e+06 -5.17198e+06 -2.50103e+06 1.13012e+06 -1.3232e+06 685525
215 3 O 5.81126 122.551 4.45758 -1.2 -8.95966 -4.77432e+06 -4.1004e+06 -898580 2.32582e+06 -183279 421058
216 3 O 6.08996 125.65 3.19889 -1.2 -9.18512 -3.64179e+06 -5.10685e+06 -328199 -332897 981667 65641.8
217 1 Mg 4.65576 127.26 -0.108764 1.2 -7.7334 -1.66632e+06 5.37095e+06 -1.21169e+06 66741.3 1.03237e+06 -2.06059e+06
218 3 O 5.95479 125.551 5.75916 -1.2 -9.43086 -2.31065e+06 -3.21239e+06 -264549 76783.9 -1.36722e+06 -405703
219 1 Mg 4.6592 130.135 1.98484 1.2 -7.9571 1.53653e+06 1.55425e+06 1.30894e+06 -722555 -677501 -1.77573e+06
220 2 Si 2.48807 128.245 1.41657 2.4 -33.0161 6.92707e+06 9.18174e+06 1.02959e+07 -493558 -850893 -3.68843e+06
221 3 O 5.6358 128.233 1.53665 -1.2 -9.7703 -1.35311e+06 -2.13777e+06 -3.54194e+06 -60003.3 -407468 1.92376e+06
222 3 O 3.53013 131.922 1.95105 -1.2 -9.60897 -2.48238e+06 -2.9091e+06 -2.74017e+06 1.53085e+06 1.39176e+06 1.16612e+06
223 3 O 3.10471 128.872 0.0104964 -1.2 -8.56107 -3.14249e+06 -2.13809e+06 -958183 -386334 -2.27906e+06 259199
224 3 O 3.20176 128.877 2.67643 -1.2 -9.12159 -3.9066e+06 -4.32554e+06 -1.58402e+06 1.03267e+06 2.23329e+06 701614
225 1 Mg 2.24433 132.473 0.425722 1.2 -7.86687 -1.44593e+06 4.19972e+06 -1.02897e+06 -1.18239e+06 -1.7689e+06 -1.97772e+06
226 1 Mg 6.95381 135.66 1.84882 1.2 -7.66787 -315792 1.16235e+06 -542635 770618 -602137 786860
227 2 Si 4.26236 133.453 1.85661 2.4 -32.2129 6.76126e+06 1.15362e+07 5.28598e+06 -549394 -1.8541e+06 670664
228 3 O 5.82179 133.392 1.78954 -1.2 -9.40165 -1.73228e+06 -4.59074e+06 -4.42581e+06 -240315 -2.7376e+06 -485254
229 3 O 3.17142 137.367 1.70967 -1.2 -9.70897 -565257 -4.60901e+06 -2.66156e+06 -2.62947e+06 171409 -962385
230 3 O 3.78625 133.981 0.51267 -1.2 -8.93433 -5.58004e+06 -3.4427e+06 -3.81811e+06 878761 418497 151486
231 1 Mg 2.14321 143.073 3.34723 1.2 -7.68689 -2.11977e+06 3.67315e+06 1.36032e+06 -1.0215e+06 2.01846e+06 878864
232 3 O 3.35883 134.321 2.97512 -1.2 -9.8975 -1.41207e+06 -1.62773e+06 -2.15453e+06 -1.32345e+06 -1.03919e+06 -746198
233 1 Mg 2.38364 139.999 4.80675 1.2 -8.02494 980856 342957 1.11485e+06 564519 -488812 169324
234 2 Si 5.02607 142.08 4.84044 2.4 -32.2763 6.6911e+06 1.10175e+07 8.56072e+06 -1.22581e+06 -737012 -917539
235 3 O 3.44597 142.297 4.8482 -1.2 -9.5788 355543 -4.09014e+06 -3.06176e+06 -966474 -1.33621e+06 1.40047e+06
236 3 O 6.00181 138.384 4.63532 -1.2 -9.17892 -858355 -1.08339e+06 -1.51541e+06 -1.99192e+06 -93051.7 340151
237 3 O 5.74356 141.327 3.56289 -1.2 -9.78378 -1.13591e+06 -1.62121e+06 -1.00539e+06 -1.15848e+06 -630056 1.57496e+06
238 3 O 5.47616 141.411 6.19325 -1.2 -9.1781 -4.13527e+06 -2.25737e+06 -2.00313e+06 673204 513518 833185
239 1 Mg 4.62851 137.819 3.14938 1.2 -7.05941 -451295 4.38367e+06 1.03978e+06 723021 -695648 982541
240 1 Mg 4.51368 134.817 4.64422 1.2 -7.12189 186179 1.75675e+06 2.56894e+06 -970161 -590369 127036
241 2 Si 6.70295 136.669 4.81475 2.4 -31.425 3.67598e+06 1.13043e+07 1.00853e+07 -1.07178e+06 -541985 -676256
242 3 O 3.46385 136.808 4.84228 -1.2 -10.2713 -1.47244e+06 -3.0802e+06 -2.88679e+06 530799 -26782.5 769177
243 3 O 5.6402 132.971 4.72554 -1.2 -10.085 -1.06526e+06 -2.29277e+06 -3.13659e+06 277033 948229 705967
244 3 O 5.95346 136 3.5991 -1.2 -10.3262 -1.29615e+06 -3.43161e+06 -852798 1.26545e+06 1.38536e+06 -1.98776e+06
245 1 Mg 4.64826 137.81 0.266491 1.2 -7.16702 -4.33862e+06 4.29866e+06 -2.03767e+06 976014 909091 -2.61933e+06
246 3 O 6.04944 136.309 6.29689 -1.2 -9.55624 -2.03089e+06 -2.15173e+06 1.10695e+06 229092 -435498 295450
247 1 Mg 4.58334 140.744 1.91772 1.2 -7.77213 1.13483e+06 902482 3.66063e+06 -734651 -432321 -1.25942e+06
248 2 Si 2.48923 138.985 1.57957 2.4 -31.5387 3.18737e+06 1.04597e+07 9.70494e+06 -1.48682e+06 1.76157e+06 -988123
249 3 O 5.75204 138.898 1.52686 -1.2 -10.191 -3.51332e+06 -3.16707e+06 -5.62279e+06 932802 -898733 190967
250 3 O 3.60438 142.587 1.58353 -1.2 -9.26552 -4.43408e+06 -2.20321e+06 -2.04158e+06 1.42232e+06 -50781.6 -15539.5
251 3 O 3.34956 139.5 0.427625 -1.2 -9.77372 -4.59258e+06 -3.812e+06 -3.02548e+06 467758 -1.16001e+06 1.85189e+06
252 3 O 3.32126 139.542 3.03401 -1.2 -9.4233 -1.55712e+06 -2.16921e+06 -332608 391215 2.81709e+06 605136
253 1 Mg 2.5426 143.08 0.0523823 1.2 -7.57515 -1.7499e+06 2.69325e+06 -126561 -625418 -2.33548e+06 -2.13565e+06
254 1 Mg 7.27694 146.276 1.70089 1.2 -7.77237 706640 204425 2.45018e+06 282742 -224348 -1.72653e+06
255 2 Si 4.29615 144.088 1.77136 2.4 -32.6188 1.03102e+07 8.2405e+06 5.90845e+06 252231 -1.3251e+06 -506328
256 3 O 5.89293 143.895 1.75458 -1.2 -9.09712 -570274 -4.12357e+06 -2.07253e+06 -900766 -1.49735e+06 -1.1037e+06
257 3 O 3.27215 148.097 1.72282 -1.2 -9.93673 -5.08038e+06 -5.63778e+06 -5.01241e+06 -1.03525e+06 503314 304393
258 3 O 3.74282 144.891 0.520672 -1.2 -9.85847 -2.91423e+06 -2.20325e+06 -3.94622e+06 -666140 1.20032e+06 3.33233e+06
259 1 Mg 1.72333 153.256 2.14797 1.2 -6.67471 -3.07034e+06 -1.38987e+06 3.18302e+06 42881.7 -754934 368159
260 3 O 3.54022 144.685 3.01421 -1.2 -9.30899 -3.67308e+06 -1.85271e+06 -4.1519e+06 409885 -698011 -643519
261 1 Mg 1.95733 150.8 4.96854 1.2 -7.56671 -1.83626e+06 3.61559e+06 -979993 1.84004e+06 -376712 1.35221e+06
262 2 Si 4.14696 151.743 3.09941 2.4 -32.3767 4.08582e+06 8.19658e+06 9.44626e+06 -3.14983e+06 -1.00878e+06 279728
263 3 O 2.98331 152.82 3.51354 -1.2 -8.85305 142246 -1.26434e+06 -4.33466e+06 -570512 404403 -197061
264 3 O 5.98 148.669 4.7044 -1.2 -9.65351 -1.83527e+06 -5.68655e+06 -2.21747e+06 -622381 -269446 1.28479e+06
265 3 O 4.87327 152.279 1.85493 -1.2 -9.99154 -4.54413e+06 -1.98453e+06 -4.57574e+06 653463 436187 -216185
266 3 O 5.01677 151.405 4.3449 -1.2 -9.34108 -5.21324e+06 -5.85551e+06 -2.87894e+06 -1.14685e+06 -812683 304743
267 1 Mg 4.6342 148.352 3.17974 1.2 -7.00739 -1.54305e+06 3.29066e+06 606711 556813 -1.64208e+06 1.25262e+06
268 1 Mg 4.61016 145.515 4.64612 1.2 -8.03973 1.75135e+06 -171076 3.32735e+06 -499460 -90269.1 -306946
269 2 Si 6.72622 147.237 4.6177 2.4 -32.4255 4.52613e+06 1.11489e+07 7.54247e+06 -1.02658e+06 -128613 -1.54262e+06
270 3 O 3.59021 147.273 4.62287 -1.2 -9.90286 -827824 -4.67101e+06 -2.314e+06 -935786 -227124 430088