ITEM: TIMESTEP
17900
ITEM: NUMBER OF ATOMS
5600
ITEM: BOX BOUNDS xy xz yz pp pp pp
0.0000000000000000e+00 7.1234999999999999e+00 0.0000000000000000e+00
0.0000000000000000e+00 2.0198500000000001e+02 2.3744999999999998e+00
0.0000000000000000e+00 1.1958400000000000e+02 0.0000000000000000e+00
ITEM: ATOMS id type element xu yu zu q c_pe c_s[1] c_s[2] c_s[3] c_s[4] c_s[5] c_s[6]
1 1 Mg -1.55945 49.318 -0.919849 1.2 -7.45378 -2.90919e+06 -1.63286e+06 2.45392e+06 -357197 492684 306353
2 1 Mg 2.85956 51.768 1.98425 1.2 -8.58081 1.3301e+06 3.57733e+06 603868 -840462 -488625 -105956
3 2 Si 0.866373 50.8908 0.128283 2.4 -33.6328 7.59089e+06 6.66912e+06 6.86248e+06 -1.04366e+06 -940208 2.18674e+06
4 3 O 2.12809 50.1286 0.450322 -1.2 -8.41196 -5.83961e+06 -2.66458e+06 -6.33912e+06 1.03674e+06 -1.82298e+06 759918
5 3 O -1.43403 53.6902 1.55313 -1.2 -8.58183 -2.56155e+06 -5.48582e+06 -2.12404e+06 -1.15505e+06 19101.9 248328
6 3 O 0.107761 50.1119 -0.979822 -1.2 -9.13349 -7.81715e+06 -1.20561e+06 -5.44132e+06 279460 -1.34236e+06 -803412
7 1 Mg -2.46422 59.239 3.17552 1.2 -7.99515 -20585.3 4.24057e+06 -254175 -1.16805e+06 1.17732e+06 1.5218e+06
8 3 O 0.0266345 51.2023 1.4565 -1.2 -8.44056 -4.59037e+06 -4.5956e+06 -2.95197e+06 -1.55133e+06 -41350.8 -608826
9 1 Mg -2.28366 56.5267 4.58469 1.2 -8.7445 1.77143e+06 359960 2.9269e+06 365082 -42052.9 -55474.1
10 2 Si 0.355742 58.3698 4.72627 2.4 -33.2491 6.07777e+06 1.2694e+07 7.12529e+06 -446703 693914 129185
11 3 O -1.18763 58.4386 4.64426 -1.2 -9.4635 -2.15949e+06 -4.84238e+06 -2.44557e+06 -553255 1.00024e+06 152113
12 3 O 1.42351 54.8105 4.72462 -1.2 -8.77474 -5.24407e+06 -3.89749e+06 -3.02758e+06 -1.25718e+06 718463 242635
13 3 O 1.00099 57.6892 3.33711 -1.2 -9.02139 -3.41738e+06 -4.0688e+06 -375022 -283528 -1.06313e+06 167264
14 3 O 1.13975 57.6735 5.93341 -1.2 -8.96941 -3.10139e+06 -5.28908e+06 -1.53031e+06 -212004 801128 987185
15 1 Mg 0.0284471 54.1338 3.02679 1.2 -8.28693 -259489 4.25249e+06 -97806.6 118920 -622694 1.7378e+06
16 1 Mg 0.703274 50.5522 3.11795 1.2 -8.19023 4.3107e+06 1.2043e+06 -1.99336e+06 -642477 -255330 1.23058e+06
17 2 Si 2.06068 53.3119 4.61818 2.4 -33.6918 9.60076e+06 9.84321e+06 6.36455e+06 661416 220222 1.96572e+06
18 3 O -1.13344 53.4889 4.53229 -1.2 -8.83163 -2.19743e+06 -4.73974e+06 -1.78765e+06 1.80935e+06 -251872 -259900
19 3 O 2.77484 50.1429 3.24261 -1.2 -6.81707 526563 62286 -2.94472e+06 -15075.9 -34433.1 -1.43772e+06
20 3 O 1.43807 52.5826 3.35155 -1.2 -8.76177 -4.61826e+06 -3.57228e+06 -3.21466e+06 -362571 531208 -286311
21 1 Mg 0.0350119 54.0973 -0.0845874 1.2 -7.87087 67849.3 3.87302e+06 1.72157e+06 600252 724244 -377464
22 3 O 1.36825 52.563 5.8846 -1.2 -9.98766 -4.73535e+06 -6.20026e+06 -5.70918e+06 790027 -1.86835e+06 -28968.2
23 1 Mg 0.0774987 57.081 1.6795 1.2 -8.49319 2.02978e+06 2.22981e+06 1.59284e+06 -711699 -228211 -139168
24 2 Si -2.12645 55.2068 1.53801 2.4 -34.1531 7.53532e+06 1.08963e+07 7.55817e+06 -614421 -434743 268411
25 3 O 1.06469 55.1152 1.62717 -1.2 -9.28252 -3.74934e+06 -3.53886e+06 -2.21935e+06 378711 -184836 404003
26 3 O -1.05467 59.0062 1.6006 -1.2 -8.93884 -2.14334e+06 -5.08352e+06 -2.42953e+06 1.33635e+06 -536702 -363253
27 3 O -1.41674 55.7647 0.234541 -1.2 -8.77014 -2.4146e+06 -3.94281e+06 -2.05769e+06 3788.12 -1.0931e+06 990633
28 3 O -1.45019 55.8894 2.80009 -1.2 -8.62363 -3.55062e+06 -3.76269e+06 -2.34229e+06 432284 912338 -671016
29 1 Mg -2.31324 59.4205 0.133862 1.2 -7.8063 -535620 4.61033e+06 -104099 -779577 -1.92908e+06 -1.17213e+06
30 1 Mg 2.41735 62.2163 1.81974 1.2 -8.77044 2.1976e+06 1.06035e+06 2.03611e+06 1.08828e+06 -208995 -263972
31 2 Si -0.287089 60.4634 1.57842 2.4 -33.8218 6.29986e+06 1.14941e+07 7.40953e+06 1.28508e+06 33039.6 -761693
32 3 O 1.2516 60.3493 1.69092 -1.2 -9.32259 -3.34321e+06 -4.13691e+06 -1.95278e+06 225979 295478 16252.4
33 3 O -1.37371 64.0614 1.78981 -1.2 -8.58443 -3.87962e+06 -4.73225e+06 -2.83336e+06 -1.28241e+06 -411214 354887
34 3 O -0.925434 61.1112 0.255525 -1.2 -8.88237 -2.55917e+06 -4.40488e+06 -1.29908e+06 -272219 706637 746247
35 1 Mg -2.41388 69.6616 3.11259 1.2 -7.986 -1.15871e+06 4.48817e+06 26456.2 -1.2934e+06 1.77074e+06 1.01614e+06
36 3 O -0.955302 61.1277 2.86554 -1.2 -8.73139 -4.43402e+06 -4.89251e+06 -1.52051e+06 -639633 -1.08377e+06 -702162
37 1 Mg -2.26964 66.8929 4.74944 1.2 -8.93889 2.14608e+06 1.30929e+06 2.27089e+06 678556 -9393.05 -9380.62
38 2 Si 0.339914 68.6888 4.57925 2.4 -34.156 7.34924e+06 1.14353e+07 5.57281e+06 488654 -328005 -55607.1
39 3 O -1.23282 68.7067 4.70403 -1.2 -9.0552 -3.01424e+06 -4.09788e+06 -2.69784e+06 -789560 -500013 135569
40 3 O 1.43802 65.0118 4.72512 -1.2 -8.50123 -4.71714e+06 -5.94088e+06 -3.86287e+06 -319770 -163288 -702046
41 3 O 1.03323 68.036 3.35077 -1.2 -8.84701 -3.37177e+06 -4.16165e+06 -4.44553e+06 -368987 -517066 -824431
42 3 O 1.05566 68.0903 5.83112 -1.2 -8.5161 -4.64796e+06 -4.55812e+06 -2.93978e+06 71022.4 611056 1.44094e+06
43 1 Mg -0.0675236 64.6981 3.31175 1.2 -8.44414 259964 3.52834e+06 -728088 1.14799e+06 -1.55778e+06 1.37197e+06
44 1 Mg -0.160567 61.6421 4.62206 1.2 -8.729 2.71407e+06 1.76319e+06 1.49211e+06 -512495 -262110 -674101
45 2 Si 2.04047 63.5421 4.74059 2.4 -34.524 6.32877e+06 1.04993e+07 7.47679e+06 1.47168e+06 1.34546e+06 -882163
46 3 O -1.17993 63.6766 4.77945 -1.2 -8.95946 -4.56755e+06 -4.05768e+06 -3.35552e+06 1.5166e+06 347909 406914
47 3 O 1.02921 59.8478 4.75397 -1.2 -8.90883 -3.10628e+06 -4.46357e+06 -2.50842e+06 725747 -411138 204778
48 3 O 1.31418 62.929 3.43061 -1.2 -8.301 -2.83686e+06 -4.22798e+06 -2.20751e+06 -406385 718369 -313730
49 1 Mg 0.06871 64.3905 0.320172 1.2 -8.09382 236320 3.83322e+06 420025 1.2358e+06 1.73175e+06 -2.2834e+06
50 3 O 1.35927 62.8462 5.99038 -1.2 -8.64168 -3.32254e+06 -4.51634e+06 -2.25869e+06 217680 -471117 1.39419e+06
51 1 Mg 0.030877 67.3607 1.68677 1.2 -8.65161 1.97406e+06 669821 1.92346e+06 -1.4017e+06 292079 -631216
52 2 Si -2.0569 65.5523 1.72824 2.4 -34.2291 6.79208e+06 1.09427e+07 7.84557e+06 -316144 37017.1 -1.00033e+06
53 3 O 1.13142 65.4832 1.76837 -1.2 -9.07328 -2.96376e+06 -4.3469e+06 -3.42029e+06 397072 496841 761160
54 3 O -1.08984 69.1664 1.64871 -1.2 -8.84019 -2.71303e+06 -3.46231e+06 -2.94938e+06 1.43415e+06 464015 838886
55 3 O -1.45063 66.172 0.429657 -1.2 -8.72267 -3.113e+06 -3.53001e+06 -2.4049e+06 -229940 -354737 1.21703e+06
56 3 O -1.30122 66.2174 2.99534 -1.2 -8.67546 -4.08985e+06 -5.17853e+06 -2.08429e+06 717566 1.0562e+06 -301623
57 1 Mg -2.45111 69.6657 0.213482 1.2 -8.27933 153392 3.94491e+06 -635920 -1.02492e+06 -1.21299e+06 -2.10438e+06
58 1 Mg 2.28464 72.574 1.48954 1.2 -8.60635 2.46269e+06 1.41798e+06 2.11248e+06 574432 -44034.5 -585263
59 2 Si -0.360643 70.7148 1.71549 2.4 -33.6196 5.42961e+06 1.1453e+07 7.69419e+06 854731 930660 -810610
60 3 O 1.15171 70.6364 1.66013 -1.2 -9.33711 -3.67801e+06 -4.0348e+06 -4.17265e+06 -86945.3 -346477 -268877
61 3 O -1.46609 74.3866 1.42608 -1.2 -9.10871 -3.46005e+06 -3.98684e+06 -2.22691e+06 -820250 146584 734749
62 3 O -1.08821 71.3461 0.364239 -1.2 -8.71664 -3.64508e+06 -3.59346e+06 -1.29813e+06 -507154 1.84175e+06 -46251.7
63 1 Mg -2.4913 80.1913 2.98111 1.2 -8.05923 -1.15752e+06 5.00901e+06 -1.80947e+06 -444847 1.42614e+06 1.72159e+06
64 3 O -1.05729 71.3813 2.90235 -1.2 -9.08851 -4.25762e+06 -3.27319e+06 -4.20046e+06 -80393.9 -393963 -541724
65 1 Mg -2.41783 77.189 4.44358 1.2 -8.51937 1.9128e+06 1.46841e+06 1.46573e+06 645250 299194 33036.1
66 2 Si 0.241388 79.0884 4.44936 2.4 -33.9195 8.00149e+06 1.16514e+07 6.64571e+06 481467 393526 -195493
67 3 O -1.33241 79.1978 4.4701 -1.2 -9.18724 -2.47474e+06 -4.16588e+06 -3.04792e+06 158115 242314 -2571.61
68 3 O 1.38629 75.417 4.62489 -1.2 -9.22911 -2.73734e+06 -5.96015e+06 -2.13522e+06 -967492 413219 884073
69 3 O 0.886628 78.3987 3.20729 -1.2 -8.88962 -3.22922e+06 -4.41118e+06 -3.15983e+06 -394535 -682622 -1.25196e+06
70 3 O 0.925881 78.4196 5.74276 -1.2 -8.48519 -3.89352e+06 -3.99319e+06 -1.25858e+06 -200946 1.15607e+06 362999
71 1 Mg -0.0732148 74.9084 2.98163 1.2 -7.70194 -925097 5.03716e+06 -176404 991485 -1.22549e+06 1.55919e+06
72 1 Mg -0.168183 72.0441 4.56066 1.2 -8.61029 2.3498e+06 1.39423e+06 1.21841e+06 -781708 -21293.5 -856562
73 2 Si 2.02468 73.9076 4.49839 2.4 -33.4015 4.5091e+06 1.24076e+07 6.98874e+06 276478 462250 -169727
74 3 O -1.20188 73.9892 4.49464 -1.2 -9.61646 -3.52505e+06 -4.42557e+06 -2.74323e+06 660522 723191 189190
75 3 O 0.966444 70.222 4.58875 -1.2 -8.58558 -2.64599e+06 -4.74933e+06 -2.34166e+06 1.17243e+06 680636 810681
76 3 O 1.2879 73.2601 3.19891 -1.2 -8.97764 -2.24251e+06 -2.99968e+06 -1.70195e+06 180319 804969 671881
77 1 Mg -0.177409 74.9235 -0.0223586 1.2 -8.22547 202617 4.46938e+06 -1.5297e+06 876274 2.1347e+06 -1.83242e+06
78 3 O 1.40231 73.2077 5.77632 -1.2 -8.842 -3.09173e+06 -4.6463e+06 -1.27723e+06 -408175 -397720 1.01366e+06
79 1 Mg -0.08232 77.8117 1.53022 1.2 -8.54466 2.49965e+06 1.46583e+06 1.95806e+06 -1.07505e+06 -203078 330584
80 2 Si -2.11253 75.9006 1.55352 2.4 -33.4896 5.57277e+06 1.24834e+07 6.71289e+06 -165400 90429.7 216275
81 3 O 1.09935 75.8891 1.58153 -1.2 -9.25314 -2.18438e+06 -4.84433e+06 -2.83879e+06 191266 678815 -491163
82 3 O -1.08175 79.6647 1.5233 -1.2 -9.09439 -3.09233e+06 -5.1522e+06 -2.02524e+06 1.14704e+06 -168275 -111682
83 3 O -1.48987 76.6241 0.236916 -1.2 -8.7031 -3.89943e+06 -3.74577e+06 -231725 52998.7 -388681 -41239.7
84 3 O -1.41789 76.5416 2.82297 -1.2 -9.2948 -3.85844e+06 -3.59178e+06 -2.22223e+06 -8046.03 515627 -641333
85 1 Mg -2.39576 80.0626 0.0282915 1.2 -8.05598 -454034 5.2055e+06 -789399 -534122 -1.22708e+06 -952532
86 1 Mg 2.33245 83.0273 1.41046 1.2 -8.88056 2.41591e+06 1.18033e+06 1.43617e+06 960640 -144772 504283
87 2 Si -0.394617 81.1517 1.53867 2.4 -33.8842 6.92814e+06 1.20492e+07 5.39544e+06 458836 116717 1.00011e+06
88 3 O 1.17959 81.0618 1.58995 -1.2 -9.13889 -2.57682e+06 -4.90384e+06 -3.18917e+06 206538 -223123 -479547
89 3 O -1.53227 84.8661 1.47714 -1.2 -8.56456 -4.17986e+06 -5.21201e+06 -2.68116e+06 -1.01618e+06 -342543 -519756
90 3 O -1.04636 81.823 0.272205 -1.2 -8.84061 -3.35911e+06 -4.01932e+06 -2.73139e+06 34557.8 369699 287650
91 1 Mg -2.2767 90.4993 2.95811 1.2 -8.58429 265569 4.00167e+06 -472516 -1.3316e+06 2.02614e+06 1.73453e+06
92 3 O -1.01593 81.8726 2.7813 -1.2 -8.66615 -4.58041e+06 -4.39146e+06 -2.91884e+06 -92080.9 -432092 -1.20402e+06
93 1 Mg -2.33581 87.534 4.4676 1.2 -8.93049 2.81756e+06 1.51539e+06 -71346.5 931920 4840.89 -222732
94 2 Si 0.41449 89.4968 4.44409 2.4 -34.5467 8.04512e+06 1.1986e+07 5.37296e+06 1.1516e+06 128247 42052.7
95 3 O -1.14511 89.5736 4.4449 -1.2 -8.8461 -3.53755e+06 -4.80188e+06 -2.69303e+06 16376.3 486890 -149384
96 3 O 1.28927 85.8576 4.44234 -1.2 -8.32456 -3.95616e+06 -4.54254e+06 -1.55053e+06 -1.68168e+06 -92436.8 818614
97 3 O 1.03184 88.9178 3.11974 -1.2 -8.39559 -4.42888e+06 -5.58678e+06 -1.66481e+06 -72220.8 -494850 -891958
98 3 O 1.10525 88.8265 5.70005 -1.2 -8.91163 -4.17151e+06 -4.78893e+06 -2.03006e+06 -160215 1.09266e+06 763369
99 1 Mg -0.127445 85.354 2.8658 1.2 -8.45879 -209968 4.56168e+06 -592497 1.08025e+06 -1.53525e+06 1.98933e+06
100 1 Mg -0.0387624 82.4012 4.42271 1.2 -8.83098 2.73827e+06 1.87975e+06 1.12084e+06 -1.03072e+06 -408417 -229391
101 2 Si 2.00691 84.3492 4.34314 2.4 -34.6634 9.461e+06 1.19816e+07 6.93944e+06 -763284 -89108.2 469056
102 3 O -1.17839 84.4381 4.38429 -1.2 -8.68829 -2.88138e+06 -4.74458e+06 -2.30837e+06 778.182 444775 -306537
103 3 O 0.985614 80.5856 4.43819 -1.2 -8.87727 -3.08753e+06 -5.2716e+06 -3.06223e+06 1.91811e+06 225400 184652
104 3 O 1.32701 83.6552 3.10927 -1.2 -8.4828 -4.41567e+06 -3.695e+06 -2.19642e+06 -136415 1.07334e+06 -802034
105 1 Mg 0.0472247 85.3756 -0.148513 1.2 -7.90891 445259 4.71229e+06 -317595 647447 886835 -1.36618e+06
106 3 O 1.31707 83.707 5.68055 -1.2 -8.42659 -3.86543e+06 -4.73074e+06 -114135 873022 -1.14177e+06 296446
107 1 Mg 0.183246 88.2137 1.39832 1.2 -8.75811 2.12204e+06 1.30884e+06 2.13184e+06 -262366 70427.3 177769
108 2 Si -2.04967 86.4106 1.4726 2.4 -34.0069 7.73052e+06 1.20337e+07 6.35785e+06 1.28915e+06 -952719 315145
109 3 O 1.09092 86.3305 1.46524 -1.2 -9.11535 -1.97269e+06 -4.32569e+06 -2.66739e+06 1.9883e+06 -628794 91840.8
110 3 O -1.03042 89.9178 1.37336 -1.2 -8.59241 -4.03054e+06 -4.61786e+06 -2.42339e+06 447168 -355899 -86961.5
111 3 O -1.2664 87.0406 0.223649 -1.2 -8.92934 -2.83052e+06 -4.08469e+06 -1.83942e+06 -82514.2 -1.38961e+06 699691
112 3 O -1.42417 86.9758 2.78695 -1.2 -8.55092 -4.56412e+06 -5.56642e+06 -2.6845e+06 -102049 575568 -797180
113 1 Mg -2.44848 90.3549 -0.192351 1.2 -8.08994 -1.04378e+06 3.37209e+06 -244055 -1.25076e+06 -1.16528e+06 -2.36464e+06
114 1 Mg 2.215 93.3693 1.21444 1.2 -8.39361 2.19521e+06 1.12775e+06 1.54697e+06 850061 -272535 180166
115 2 Si -0.375264 91.4008 1.38453 2.4 -34.3832 8.1567e+06 1.04946e+07 7.68082e+06 -463264 884208 -710489
116 3 O 1.18339 91.241 1.27711 -1.2 -8.82749 -2.84456e+06 -3.75224e+06 -3.11715e+06 -466666 571501 722913
117 3 O -1.45039 95.1234 1.36321 -1.2 -9.41317 -1.06146e+06 -4.83657e+06 -2.618e+06 -1.23049e+06 53067.4 652608
118 3 O -1.0834 92.1579 0.136787 -1.2 -8.7835 -3.35783e+06 -2.15505e+06 -1.75052e+06 -543020 839973 431049
119 1 Mg -2.40346 100.792 2.87676 1.2 -8.02223 -378131 3.59563e+06 214671 -628706 1.46568e+06 1.41061e+06
120 3 O -0.963564 92.0385 2.69834 -1.2 -8.51557 -4.03298e+06 -4.53947e+06 -2.3409e+06 -409887 -543494 -717020
121 1 Mg -2.31367 97.8969 4.36067 1.2 -8.45061 1.88314e+06 1.34642e+06 1.95575e+06 963310 432896 104143
122 2 Si 0.303161 99.7624 4.46753 2.4 -34.0313 7.09263e+06 9.86318e+06 9.90055e+06 300590 -273479 257878
123 3 O -1.26294 99.8291 4.4444 -1.2 -9.16428 -2.49058e+06 -3.69844e+06 -3.9072e+06 -327622 617598 -115266
124 3 O 1.39226 96.0386 4.25233 -1.2 -9.153 -2.05792e+06 -4.37147e+06 -2.65575e+06 -1.23802e+06 392769 658621
125 3 O 0.893002 99.1492 3.06402 -1.2 -8.82264 -2.94018e+06 -3.45073e+06 -619627 -176536 -636050 -1.18662e+06
126 3 O 1.0215 99.1072 5.73364 -1.2 -8.67525 -4.09166e+06 -3.46189e+06 -1.11508e+06 -19576.5 1.58103e+06 526079
127 1 Mg -0.0894713 95.5998 2.83319 1.2 -7.65954 -831317 5.25217e+06 -919715 959286 -1.20134e+06 1.30292e+06
128 1 Mg -0.0501983 92.8098 4.41427 1.2 -8.91395 1.8612e+06 124026 1.96437e+06 -1.3535e+06 77791.7 1.06472e+06
129 2 Si 2.02143 94.4982 4.26056 2.4 -33.5273 5.65333e+06 1.22254e+07 6.35639e+06 -725072 629036 1.36521e+06
130 3 O -1.15094 94.5631 4.27935 -1.2 -9.44329 -2.17162e+06 -5.07161e+06 -3.84004e+06 925104 143133 -292980
131 3 O 1.1167 90.9767 4.42582 -1.2 -8.33207 -3.29872e+06 -5.61499e+06 -2.43056e+06 823104 -346359 -1.39754e+06
132 3 O 1.32881 93.848 2.98397 -1.2 -8.89235 -3.67802e+06 -3.92787e+06 -1.86998e+06 -422652 822421 -553467
133 1 Mg 0.0300701 95.5993 -0.113447 1.2 -7.69731 -856221 4.49191e+06 -754213 892739 1.32507e+06 -1.51902e+06
134 3 O 1.35058 93.8869 5.50918 -1.2 -8.91488 -4.60167e+06 -5.23551e+06 -3.07052e+06 -87584.5 -2977.47 190487
135 1 Mg -0.115 98.6213 1.38003 1.2 -8.43254 1.94908e+06 -477918 3.04851e+06 -420822 -204839 121123
136 2 Si -2.11727 96.6288 1.39645 2.4 -33.1844 6.89353e+06 1.04737e+07 8.53619e+06 -757477 -813582 -161360
137 3 O 1.04848 96.6174 1.32431 -1.2 -9.49107 -1.32535e+06 -2.77918e+06 -4.02745e+06 145898 -343562 13543.1
138 3 O -1.16167 100.261 1.36216 -1.2 -9.12927 -1.76488e+06 -4.32963e+06 -3.94473e+06 2.7996e+06 -392300 410281
139 3 O -1.41663 97.3376 0.11613 -1.2 -8.961 -3.47215e+06 -2.64521e+06 -2.02873e+06 147580 -1.25629e+06 -133116
140 3 O -1.46886 97.283 2.68176 -1.2 -9.08381 -3.98398e+06 -3.29709e+06 -3.27294e+06 -317220 1.3163e+06 -500803
141 1 Mg -2.43274 100.802 -0.114773 1.2 -7.7575 -1.72609e+06 3.80705e+06 620547 -724937 -1.36137e+06 -1.92877e+06
142 1 Mg 7.0362 103.588 1.5114 1.2 -8.32308 1.47523e+06 1.08092e+06 2.90219e+06 862893 92881.8 -927716
143 2 Si -0.338991 101.798 1.36552 2.4 -32.6686 4.93285e+06 1.05249e+07 9.15757e+06 1.17917e+06 214880 -1.53438e+06
144 3 O 1.17242 101.765 1.44307 -1.2 -9.85182 -3.27859e+06 -3.65331e+06 -3.87161e+06 364326 652117 1.34205e+06
145 3 O 3.41969 105.529 1.31726 -1.2 -8.78253 -3.90995e+06 -3.20384e+06 -3.54114e+06 -1.29789e+06 974511 667755
146 3 O -1.09357 102.419 0.128987 -1.2 -9.21899 -2.5273e+06 -4.18536e+06 -2.40787e+06 -656470 495856 1.30336e+06
147 1 Mg 2.42492 111.127 2.65768 1.2 -7.99697 -1.40826e+06 3.41123e+06 -417036 -297657 1.88835e+06 1.10068e+06
148 3 O -1.03292 102.411 2.70715 -1.2 -9.14712 -2.86368e+06 -3.01266e+06 -2.82676e+06 -220788 -1.2264e+06 155020
149 1 Mg 2.40231 108.334 4.41399 1.2 -8.48754 2.13368e+06 156730 2.78836e+06 979028 64295 -572409
150 2 Si 5.16924 110.183 4.32063 2.4 -33.7777 5.19097e+06 9.09271e+06 7.84063e+06 652321 -913914 176208
151 3 O 3.65823 110.283 4.33084 -1.2 -9.16118 -3.95251e+06 -3.53357e+06 -3.52257e+06 -23828.6 57942.5 154664
152 3 O 6.24167 106.535 4.46123 -1.2 -9.17114 -2.89682e+06 -4.00685e+06 -4.10605e+06 -715123 17848 790471
153 3 O 5.80647 109.45 3.02667 -1.2 -8.79169 -3.23216e+06 -3.28946e+06 -2.74528e+06 -150250 -399381 -493814
154 3 O 5.83765 109.548 5.55785 -1.2 -9.14222 -3.97876e+06 -3.91993e+06 -4.39808e+06 -38029.3 97074.9 1.30903e+06
155 1 Mg 4.81765 106.059 3.00272 1.2 -7.81102 -595164 3.73648e+06 493308 738313 -1.02727e+06 1.19323e+06
156 1 Mg -0.0387668 103.09 4.30651 1.2 -8.59547 2.19412e+06 788332 1.95208e+06 -820069 -2423.46 -645230
157 2 Si 6.84462 105.02 4.39507 2.4 -33.3257 4.0284e+06 1.07524e+07 8.68462e+06 14867.9 -1.20443e+06 -2.13771e+06
158 3 O 3.63346 105.022 4.37472 -1.2 -9.55076 -2.70735e+06 -4.03569e+06 -3.67889e+06 596304 -103900 537961
159 3 O 0.991695 101.237 4.4213 -1.2 -8.72151 -3.62056e+06 -4.2099e+06 -3.29742e+06 1.39787e+06 331779 -480073
160 3 O 6.16684 104.343 3.20161 -1.2 -9.35998 -3.58942e+06 -3.30352e+06 -4.0806e+06 -141830 -243333 137677
161 1 Mg 4.69398 105.863 -0.0373242 1.2 -8.01391 -1.37841e+06 3.6619e+06 -873438 685614 2.15223e+06 -1.8713e+06
162 3 O 6.17845 104.369 5.7979 -1.2 -8.62333 -2.6888e+06 -3.7125e+06 -618403 92056.6 -871117 296835
163 1 Mg 4.69046 108.873 1.40468 1.2 -8.60934 2.10402e+06 140448 3.08388e+06 -1.15459e+06 -126867 -718664
164 2 Si 2.69809 107.031 1.42775 2.4 -33.7992 6.71452e+06 1.04112e+07 7.74291e+06 -610913 426707 -523909
165 3 O 5.90784 106.831 1.4722 -1.2 -9.22582 -3.12363e+06 -3.98034e+06 -3.09426e+06 358463 482745 155475
166 3 O 3.75904 110.72 1.33767 -1.2 -8.87232 -2.85712e+06 -4.03137e+06 -4.27685e+06 2.36323e+06 957584 -606760
167 3 O 3.32576 107.784 0.205791 -1.2 -8.7982 -3.29901e+06 -3.54942e+06 -3.51351e+06 116393 -509536 1.07993e+06
168 3 O 3.42314 107.672 2.69474 -1.2 -8.91775 -3.24375e+06 -2.82508e+06 -3.89056e+06 92547.3 935467 -88815.8
169 1 Mg 2.36422 111.227 -0.221421 1.2 -7.78229 -968165 3.9303e+06 -102732 -389141 -1.28607e+06 -2.92719e+06
170 1 Mg 7.16977 114.039 1.41067 1.2 -8.10605 719842 707631 3.12048e+06 806489 -330893 -455675
171 2 Si 4.55426 112.226 1.31578 2.4 -32.6905 4.75362e+06 1.04296e+07 1.01767e+07 579949 770057 -2.16105e+06
172 3 O 6.04996 112.082 1.28203 -1.2 -9.9075 -4.30929e+06 -3.99355e+06 -4.56064e+06 -173900 -269418 991287
173 3 O 3.4766 115.848 1.50669 -1.2 -9.47866 -1.85443e+06 -2.64537e+06 -3.38975e+06 -902978 178929 234487
174 3 O 3.81055 112.848 -0.0594599 -1.2 -9.07812 -1.40591e+06 -3.0409e+06 -1.72497e+06 -527477 1.74835e+06 1.42248e+06
175 1 Mg 2.34958 121.712 3.14681 1.2 -7.85299 -1.00511e+06 2.5691e+06 184567 -965314 834957 1.3438e+06
176 3 O 3.76696 112.85 2.5527 -1.2 -9.30445 -2.45092e+06 -4.40582e+06 -2.6125e+06 -334690 -1.19214e+06 -351071
177 1 Mg 2.47902 118.666 4.36136 1.2 -8.22447 969940 1.23343e+06 2.15719e+06 713558 138072 -457726
178 2 Si 5.03818 120.517 4.52702 2.4 -33.0785 6.10222e+06 9.19128e+06 1.01921e+07 -61312.7 475660 -1.34062e+06
179 3 O 3.48306 120.617 4.50425 -1.2 -9.59356 -2.03699e+06 -2.90104e+06 -4.8504e+06 -1.39649e+06 29652.4 819812
180 3 O 6.21718 116.778 4.38523 -1.2 -9.38226 -3.00639e+06 -4.84913e+06 -3.97624e+06 -1.16029e+06 247457 1.0231e+06
181 3 O 5.78108 119.89 3.30344 -1.2 -9.29343 -3.58912e+06 -2.8804e+06 -3.91982e+06 -77565.5 -1.184e+06 -345046
182 3 O 5.79478 119.94 5.8462 -1.2 -9.149 -3.1079e+06 -2.51479e+06 -3.78927e+06 -323220 2.51892e+06 769587
183 1 Mg 4.9021 116.303 2.93808 1.2 -7.51476 -687304 3.37641e+06 -384898 845108 -1.80266e+06 886835
184 1 Mg 4.76136 113.464 4.23806 1.2 -8.28203 1.60598e+06 900538 3.05048e+06 -998940 -285795 -335608
185 2 Si 6.84153 115.301 4.46156 2.4 -32.9997 6.08659e+06 9.71426e+06 8.41294e+06 853544 -522536 -1.16783e+06
186 3 O 3.66634 115.413 4.46534 -1.2 -9.56346 -1.73007e+06 -3.4569e+06 -4.47775e+06 1.24589e+06 -1.22001e+06 688867
187 3 O 5.87362 111.649 4.18551 -1.2 -9.05306 -3.11376e+06 -4.49859e+06 -3.22665e+06 392557 95945.8 368676
188 3 O 6.15329 114.578 3.19422 -1.2 -9.33314 -2.47431e+06 -3.79812e+06 -2.68579e+06 246642 1.36152e+06 467598
189 1 Mg 4.84635 116.325 -0.0163155 1.2 -7.71028 -1.29693e+06 3.70203e+06 191408 927157 1.71486e+06 -2.12037e+06
190 3 O 6.06831 114.687 5.72216 -1.2 -9.04944 -3.28323e+06 -3.65113e+06 -2.7848e+06 140219 -1.22959e+06 1.21852e+06
191 1 Mg 5.01937 119.175 1.55996 1.2 -8.11609 1.47324e+06 562541 2.07315e+06 -1.15239e+06 338957 -85152.6
192 2 Si 2.83741 117.384 1.41275 2.4 -32.6656 4.91032e+06 1.03621e+07 9.77696e+06 358148 -496878 -1.93439e+06
193 3 O 6.00189 117.267 1.5037 -1.2 -9.82306 -867095 -3.3187e+06 -4.51621e+06 617350 -989815 737764
194 3 O 3.79944 121.082 1.53406 -1.2 -8.78175 -2.08886e+06 -3.58184e+06 -4.3267e+06 1.00024e+06 -391071 1.38854e+06
195 3 O 3.51846 117.992 0.0896591 -1.2 -9.27948 -2.30249e+06 -3.20631e+06 -2.22714e+06 -26817 -840813 399780
196 3 O 3.42222 118.075 2.69984 -1.2 -9.33685 -2.62282e+06 -3.80069e+06 -2.64835e+06 -377397 630423 -26042.6
197 1 Mg 2.38017 121.532 0.17044 1.2 -7.99871 -931580 3.39896e+06 742022 -869294 -1.16347e+06 -2.10409e+06
198 1 Mg 7.16709 124.455 1.71259 1.2 -8.13938 716557 108757 2.94006e+06 887228 481406 -780950
199 2 Si 4.48748 122.57 1.59782 2.4 -33.1425 5.27787e+06 8.86367e+06 1.07224e+07 449678 183856 -1.10942e+06
200 3 O 6.00766 122.454 1.62738 -1.2 -9.67602 -3.89581e+06 -3.00147e+06 -5.24223e+06 -872997 64902 994158
201 3 O 3.43895 126.25 1.58912 -1.2 -9.65787 -2.17657e+06 -4.69558e+06 -3.07668e+06 -1.03098e+06 33200.9 1.0436e+06
202 3 O 3.73302 123.213 0.335692 -1.2 -9.0514 -2.70442e+06 -3.72872e+06 -2.83406e+06 14794.7 1.16447e+06 1.83929e+06
203 1 Mg 2.42607 131.931 3.14768 1.2 -7.72058 -1.80036e+06 3.49283e+06 -212013 -853136 1.06595e+06 1.7098e+06
204 3 O 3.71546 123.201 2.9082 -1.2 -9.18448 -2.76354e+06 -3.08192e+06 -3.05128e+06 107592 -1.99884e+06 307597
205 1 Mg 2.46409 129.04 4.55106 1.2 -7.82003 1.60695e+06 720951 1.95289e+06 628673 -72686.1 -823576
206 2 Si 5.09121 131.06 4.61441 2.4 -32.413 5.20065e+06 9.34487e+06 9.16599e+06 -550425 -257834 -1.20088e+06
207 3 O 3.50221 131.117 4.63082 -1.2 -9.90811 -1.05128e+06 -4.00226e+06 -4.2447e+06 176646 -73101.1 660594
208 3 O 6.19493 127.193 4.64739 -1.2 -9.56466 -1.08961e+06 -2.88973e+06 -3.02702e+06 -1.9499e+06 320071 -9481.9
209 3 O 5.76553 130.379 3.2964 -1.2 -9.32339 -2.20314e+06 -2.88819e+06 -2.38957e+06 -643621 -1.20181e+06 365000
210 3 O 5.74668 130.329 5.9008 -1.2 -9.55012 -2.05096e+06 -2.8227e+06 -2.53197e+06 -1.03556e+06 1.04065e+06 934802
211 1 Mg 4.84086 126.779 3.08695 1.2 -7.33778 -1.17681e+06 3.75703e+06 448734 458888 -853398 983094
212 1 Mg 4.7258 123.944 4.62196 1.2 -8.20845 705864 -325200 3.37743e+06 -198475 206688 -86738.9
213 2 Si 6.9293 125.666 4.68868 2.4 -32.3104 5.48698e+06 1.00999e+07 1.0288e+07 -701745 414537 -1.27304e+06
214 3 O 3.77195 125.765 4.58582 -1.2 -10.1222 -1.00456e+06 -3.73368e+06 -4.21612e+06 128728 -549894 393172
215 3 O 5.67012 122.093 4.50351 -1.2 -9.09373 -2.76004e+06 -2.69214e+06 -4.21897e+06 1.74786e+06 255706 138957
216 3 O 6.24475 125.049 3.3389 -1.2 -9.35871 -2.24262e+06 -3.1584e+06 -2.64529e+06 701639 1.9366e+06 -98148.1
217 1 Mg 4.89241 126.666 0.161426 1.2 -7.48693 -680169 3.97819e+06 126655 849231 1.34009e+06 -1.62737e+06
218 3 O 6.23767 125.009 5.92752 -1.2 -9.32296 -2.45094e+06 -3.47255e+06 -3.29447e+06 505064 -1.14052e+06 1.36464e+06
219 1 Mg 4.83667 129.585 1.60227 1.2 -8.21172 1.63926e+06 209713 2.72848e+06 -843364 72797.7 322295
220 2 Si 2.77409 127.721 1.62385 2.4 -32.6859 3.29132e+06 1.00697e+07 8.64116e+06 222255 31117.5 -734112
221 3 O 5.97858 127.641 1.61165 -1.2 -9.95297 -2.39125e+06 -3.70625e+06 -4.09089e+06 351753 94087.3 777230
222 3 O 3.78529 131.381 1.618 -1.2 -9.19747 -2.27359e+06 -4.55759e+06 -3.27025e+06 1.5597e+06 -264382 498759
223 3 O 3.45495 128.423 0.374241 -1.2 -9.13606 -3.15204e+06 -3.23386e+06 -2.68088e+06 -380481 -673758 294537
224 3 O 3.43388 128.438 2.89203 -1.2 -9.59132 -1.65324e+06 -2.68678e+06 -3.71815e+06 -122213 517978 385824
225 1 Mg 2.44742 131.903 0.114044 1.2 -7.77161 -1.01634e+06 3.86571e+06 164129 -874619 -1.53645e+06 -1.89836e+06
226 1 Mg 7.13593 134.62 1.63614 1.2 -8.51588 958088 286256 2.69972e+06 1.12077e+06 -455233 27485.4
227 2 Si 4.50335 132.868 1.62957 2.4 -33.0989 4.68431e+06 1.04965e+07 8.46468e+06 522224 55846.4 -644329
228 3 O 6.0208 132.844 1.66837 -1.2 -9.64034 -3.4921e+06 -4.58659e+06 -4.42842e+06 -485456 -270249 669090
229 3 O 3.45132 136.554 1.55265 -1.2 -8.95039 -2.07868e+06 -4.11722e+06 -3.89412e+06 -1.27877e+06 -49364.2 -245680
230 3 O 3.80433 133.536 0.335311 -1.2 -8.99812 -3.63561e+06 -3.79133e+06 -2.78732e+06 282040 1.22824e+06 8024.07
231 1 Mg 2.51082 142.323 3.06932 1.2 -7.86165 -316483 3.46229e+06 503324 -947168 1.09327e+06 1.59279e+06
232 3 O 3.74523 133.549 2.85665 -1.2 -9.20485 -3.65965e+06 -3.62498e+06 -3.92552e+06 -258555 -893070 -307277
233 1 Mg 2.54417 139.359 4.49838 1.2 -8.22104 1.867e+06 382675 2.92833e+06 976549 142171 106511
234 2 Si 5.18294 141.286 4.59 2.4 -33.3066 3.39675e+06 9.10545e+06 9.49852e+06 189631 -105355 -403840
235 3 O 3.68779 141.413 4.53929 -1.2 -9.51272 -4.16926e+06 -2.75557e+06 -4.0358e+06 -384052 -424871 94400.6
236 3 O 6.14397 137.552 4.51727 -1.2 -9.29642 -2.34712e+06 -4.36311e+06 -4.25277e+06 -608320 143033 960980
237 3 O 5.8744 140.595 3.34497 -1.2 -9.15859 -3.08533e+06 -3.16267e+06 -3.49226e+06 315832 -522748 -791125
238 3 O 5.76393 140.666 5.93284 -1.2 -9.06564 -2.77879e+06 -2.55968e+06 -3.2428e+06 414744 120335 661391
239 1 Mg 4.80087 136.965 3.06546 1.2 -7.82016 -66532.1 3.50768e+06 24503.6 1.19333e+06 -1.85547e+06 917936
240 1 Mg 4.68972 134.275 4.5555 1.2 -8.26413 1.83067e+06 -620429 3.33583e+06 -731961 -200993 19725.2
241 2 Si 6.78123 136.097 4.62966 2.4 -33.1066 5.14169e+06 8.81887e+06 1.00252e+07 73512.3 249472 -1.07545e+06
242 3 O 3.61253 136.114 4.62581 -1.2 -9.62697 -1.46003e+06 -3.09303e+06 -4.39933e+06 438354 -520072 921135
243 3 O 5.76297 132.476 4.61327 -1.2 -9.54115 -3.00256e+06 -5.8573e+06 -4.14871e+06 667562 -107177 116613
244 3 O 6.11784 135.338 3.32953 -1.2 -9.09913 -2.36057e+06 -3.26411e+06 -2.22542e+06 333049 954268 201039
245 1 Mg 4.91764 136.909 0.148498 1.2 -8.0789 1847.32 3.64494e+06 86679.3 597415 1.28921e+06 -1.72639e+06
246 3 O 6.08081 135.496 5.89282 -1.2 -9.15448 -3.38767e+06 -2.90387e+06 -3.34064e+06 303823 -217001 1.10285e+06
247 1 Mg 4.99588 139.976 1.67939 1.2 -8.65199 2.13415e+06 991650 2.30314e+06 -679894 -103898 -506707
248 2 Si 2.82395 138.063 1.49016 2.4 -34.041 7.44195e+06 8.98792e+06 9.11535e+06 2025.76 -348837 -245681
249 3 O 5.98063 138.041 1.57576 -1.2 -9.13202 -2.00085e+06 -2.12171e+06 -4.39531e+06 718645 -840461 290432
250 3 O 3.9188 141.784 1.57044 -1.2 -8.83835 -3.30129e+06 -3.67605e+06 -3.94506e+06 1.13342e+06 -147231 819222
251 3 O 3.49664 138.688 0.246449 -1.2 -8.58247 -3.78268e+06 -3.63257e+06 -3.88679e+06 -231152 -476074 846840
252 3 O 3.44164 138.699 2.83296 -1.2 -8.85475 -3.88616e+06 -2.39645e+06 -2.5703e+06 -5079.54 886651 -458579
253 1 Mg 2.52055 142.153 0.149771 1.2 -8.22681 -26538.6 3.76821e+06 -564507 -1.56293e+06 -2.13433e+06 -1.79103e+06
254 1 Mg 7.15798 145.203 1.57328 1.2 -8.36531 1.88209e+06 1.5661e+06 1.8474e+06 767503 -65965.9 442770
255 2 Si 4.53275 143.311 1.55627 2.4 -33.7023 7.5409e+06 9.59328e+06 8.44144e+06 177820 -546471 1.06477e+06
256 3 O 6.12979 143.177 1.59921 -1.2 -9.15293 -1.6523e+06 -3.58158e+06 -4.37227e+06 -1.23046e+06 -132780 49302.6
257 3 O 3.30767 147.25 1.54558 -1.2 -9.25056 -4.7859e+06 -2.45614e+06 -1.92363e+06 -1.03606e+06 -311123 481340
258 3 O 3.86594 143.882 0.309782 -1.2 -8.77339 -4.59501e+06 -4.08988e+06 -3.77216e+06 101131 396475 1.62753e+06
259 1 Mg 1.69191 152.566 1.84263 1.2 -7.27649 -1.34665e+06 -1.17867e+06 2.02647e+06 1.01894e+06 293837 -209636
260 3 O 3.82513 144.016 2.85551 -1.2 -9.1228 -3.3665e+06 -2.41835e+06 -3.10722e+06 -842937 -1.52981e+06 -1.00271e+06
261 1 Mg 1.8907 149.824 4.85364 1.2 -8.14898 197147 3.662e+06 695208 -415140 322668 1.73644e+06
262 2 Si 4.00035 151.021 3.11497 2.4 -32.9631 8.3528e+06 1.04834e+07 4.86131e+06 -1.56144e+06 -1.74834e+06 1.42908e+06
263 3 O 2.91186 152.155 3.28422 -1.2 -8.55346 -2.24044e+06 -480948 -3.70566e+06 -928356 1.45417e+06 -572998
264 3 O 6.05694 147.862 4.5361 -1.2 -9.0176 -2.82094e+06 -4.31549e+06 -3.73589e+06 -1.38119e+06 -214479 -857572
265 3 O 4.85406 151.408 1.83068 -1.2 -9.52998 -2.30803e+06 -2.51187e+06 -5.32677e+06 1.5849e+06 -614214 -517173
266 3 O 4.92261 150.699 4.26963 -1.2 -9.11671 -3.56358e+06 -4.7853e+06 -3.25139e+06 -1.44498e+06 -1.08184e+06 -357840
267 1 Mg 4.64413 147.359 3.03574 1.2 -7.82611 -648831 2.87779e+06 1.13133e+06 697101 -1.26258e+06 2.01147e+06
268 1 Mg 4.65137 144.545 4.54404 1.2 -8.2774 1.47523e+06 22655.6 2.5206e+06 -1.02684e+06 -583659 -163505
269 2 Si 6.76543 146.395 4.53672 2.4 -33.0353 5.41355e+06 1.04479e+07 1.00312e+07 -478059 747263 30130.9
270 3 O 3.55945 146.412 4.53676 -1.2 -9.67442 -2.153e+06 -4.13271e+06 -3.5386e+06 192711 132909 -831794
271 3 O 5.85327 142.808 4.58489 -1.2 -9.17918 -2.53068e+06 -3.27893e+06 -3.79308e+06 422926 -223301 -26226.2
272 3 O 6.10376 145.787 3.1779 -1.2 -9.03245 -2.45527e+06 -4.18675e+06 -1.66678e+06 -9914.67 818181 -863552
273 1 Mg 4.67558 147.699 0.00149604 1.2 -7.95437 180443 3.27223e+06 1.06854e+06 338477 544652 -757193