ITEM: TIMESTEP
89300
ITEM: NUMBER OF ATOMS
5600
ITEM: BOX BOUNDS xy xz yz pp pp pp
0.0000000000000000e+00 7.1234999999999999e+00 0.0000000000000000e+00
0.0000000000000000e+00 2.0198500000000001e+02 2.3744999999999998e+00
0.0000000000000000e+00 1.1958400000000000e+02 0.0000000000000000e+00
ITEM: ATOMS id type element xu yu zu q c_pe c_s[1] c_s[2] c_s[3] c_s[4] c_s[5] c_s[6]
1 1 Mg -1.50332 47.5786 -1.3323 1.2 -6.77422 -3.95277e+06 -2.58129e+06 1.98123e+06 78001.9 746845 -378837
2 1 Mg 3.0725 49.7673 1.80484 1.2 -7.09792 -727747 5.19894e+06 1.84264e+06 -1.17375e+06 -150452 69978.7
3 2 Si 1.10927 48.8167 0.0696934 2.4 -31.185 6.74532e+06 8.34074e+06 1.13618e+07 -703411 -1.44709e+06 1.58668e+06
4 3 O 2.44116 47.9892 0.342826 -1.2 -9.19953 -912304 -121822 -6.65139e+06 -643139 -1.16257e+06 1.49448e+06
5 3 O -1.20203 52.0476 1.57908 -1.2 -10.4291 2.62771e+06 -4.70751e+06 -3.02509e+06 -1.37773e+06 716913 -1.05306e+06
6 3 O 0.300566 47.9852 -1.22683 -1.2 -9.70625 -4.45337e+06 795431 -1.09577e+06 571550 2.3536e+06 1.96258e+06
7 1 Mg -2.45198 58.2521 3.3988 1.2 -7.41203 -738533 3.03449e+06 -64348.8 -1.85522e+06 882774 1.65445e+06
8 3 O 0.21216 49.1593 1.42099 -1.2 -9.62309 -163520 -2.91694e+06 -692099 -3.24193e+06 -106511 -178309
9 1 Mg -2.22102 54.7579 4.87312 1.2 -7.68882 -212048 1.92498e+06 3.7083e+06 891272 -998331 1.42743e+06
10 2 Si 0.479289 56.6663 4.647 2.4 -33.3959 1.01283e+07 3.64389e+06 9.61092e+06 -1.29211e+06 1.99347e+06 1.66239e+06
11 3 O -1.22887 56.8859 4.7835 -1.2 -8.77693 -94993.1 1.8381e+06 -4.93128e+06 -3.19137e+06 -1.01654e+06 -1.24914e+06
12 3 O 1.48513 52.7417 4.66375 -1.2 -10.0077 -2.39562e+06 -3.45968e+06 -2.186e+06 -2.10202e+06 1.62003e+06 -32737.4
13 3 O 1.12476 56.347 3.3622 -1.2 -8.74536 -5.36066e+06 -2.81303e+06 -5.56916e+06 1.59084e+06 -373530 -3.84692e+06
14 3 O 1.10523 55.9063 5.99157 -1.2 -9.26956 -1.73129e+06 -1.13711e+06 478791 -941740 859803 221183
15 1 Mg 0.108084 52.325 3.18364 1.2 -6.86908 -1.35335e+06 5.05497e+06 -88233.8 581963 -1.41641e+06 754586
16 1 Mg 1.17414 48.6056 3.22152 1.2 -7.24318 518780 -83695.1 -2.56581e+06 -453432 667162 1.56123e+06
17 2 Si 2.19498 51.2634 4.65039 2.4 -32.0165 7.24438e+06 8.4012e+06 6.34904e+06 -1.02328e+06 -979665 -137459
18 3 O -0.98678 51.3199 4.70437 -1.2 -9.5928 -726179 -3.11809e+06 -2.2169e+06 995446 -2.01926e+06 9561.15
19 3 O 2.8949 47.9557 3.18321 -1.2 -7.24733 -2.43527e+06 2.36675e+06 -4.11233e+06 19330.6 185421 -3.12193e+06
20 3 O 1.79326 50.6588 3.29287 -1.2 -9.9241 -3.3559e+06 -2.84243e+06 -3.01742e+06 -1.38174e+06 -1.02253e+06 -1.77785e+06
21 1 Mg 0.221682 52.341 -0.0371784 1.2 -6.36663 -2.00676e+06 3.49264e+06 1.84294e+06 198292 624567 1.20323e+06
22 3 O 1.46604 50.4201 5.86762 -1.2 -10.562 -4.6356e+06 -808632 -3.71084e+06 1.57347e+06 -343148 179574
23 1 Mg 0.423491 55.5099 1.48179 1.2 -7.97188 1.96534e+06 -196349 3.03035e+06 243612 875578 2.40777e+06
24 2 Si -1.99917 53.408 1.6568 2.4 -31.662 2.07897e+06 8.95025e+06 1.25629e+07 584078 -1.59881e+06 884240
25 3 O 1.29255 53.7196 1.63458 -1.2 -10.3313 -4.27219e+06 214876 -3.66432e+06 118841 -1.6676e+06 -789692
26 3 O -0.941047 57.3641 1.91892 -1.2 -8.68926 -1.90305e+06 -155154 -3.51565e+06 589690 -338665 1.8003e+06
27 3 O -1.17981 54.2901 0.250221 -1.2 -8.99695 1.32514e+06 399022 -102257 790176 -1.50794e+06 -1.55719e+06
28 3 O -1.39554 53.9597 3.08922 -1.2 -9.0087 -1.854e+06 -3.04544e+06 16818.2 -253624 1.20452e+06 -286292
29 1 Mg -2.3383 57.8933 0.406985 1.2 -7.35726 -2.23744e+06 2.0233e+06 1.55878e+06 -1.50861e+06 505916 -1.21375e+06
30 1 Mg 2.2408 60.7913 1.75105 1.2 -7.88172 1.18402e+06 231756 4.3708e+06 210161 508689 584342
31 2 Si -0.256432 58.9275 1.805 2.4 -32.4103 215405 1.23252e+07 9.97437e+06 156745 -270433 93707.9
32 3 O 1.2023 58.8648 1.74587 -1.2 -10.1975 -5.40794e+06 -4.67034e+06 -4.05162e+06 -229154 582812 426031
33 3 O -1.47638 62.9886 1.48039 -1.2 -9.21565 -2.65878e+06 -4.84131e+06 -5.2618e+06 -1.13508e+06 361719 -1.11892e+06
34 3 O -1.08065 59.3777 0.495128 -1.2 -9.3916 -3.09339e+06 -3.6312e+06 -2.70319e+06 -686300 1.35964e+06 342055
35 1 Mg -2.70069 68.4146 3.42198 1.2 -6.99867 -2.87164e+06 3.13257e+06 1.81656e+06 -1.80838e+06 1.04715e+06 911332
36 3 O -0.963776 59.8132 3.01156 -1.2 -9.69015 -1.07474e+06 -2.01044e+06 -2.82372e+06 -117514 -543026 -469608
37 1 Mg -2.47832 65.6549 5.16457 1.2 -7.53074 -146877 1.04761e+06 3.98237e+06 457710 -831744 1.50253e+06
38 2 Si 0.0504652 67.5211 4.81529 2.4 -31.4533 4.73751e+06 8.46688e+06 8.4509e+06 1.21867e+06 1.46996e+06 1.2219e+06
39 3 O -1.55336 67.5326 4.93771 -1.2 -10.1682 280545 -2.3489e+06 -4.45764e+06 928839 -634109 -708810
40 3 O 1.36206 63.6898 4.7924 -1.2 -9.24136 -3.15824e+06 -2.87844e+06 -4.50672e+06 -2.31404e+06 1.19496e+06 395010
41 3 O 0.700516 66.9236 3.61997 -1.2 -10.0232 -3.42693e+06 -2.34749e+06 -4.6665e+06 -322882 115691 -1.49491e+06
42 3 O 0.695104 66.8467 6.14676 -1.2 -9.6839 -2.00895e+06 -2.20727e+06 -2.76815e+06 -815105 929027 -146406
43 1 Mg 0.0339657 63.5502 3.17787 1.2 -7.5567 -592130 2.6255e+06 472767 -173133 484512 1.93825e+06
44 1 Mg -0.282878 60.4596 4.80858 1.2 -7.66135 438649 256707 4.50615e+06 -444915 405361 3213.87
45 2 Si 2.13601 62.1852 4.72028 2.4 -33.5055 3.52331e+06 5.57283e+06 1.00709e+07 773851 -1.39291e+06 1.13817e+06
46 3 O -1.12063 62.4423 4.48283 -1.2 -9.69501 -5.38692e+06 -1.78158e+06 -3.76627e+06 434344 -443307 -1.29128e+06
47 3 O 0.971494 58.1712 4.80212 -1.2 -8.96647 -3.69692e+06 -4.50577e+06 -4.91444e+06 1.16947e+06 1.08584e+06 -3.33025e+06
48 3 O 1.50536 61.5018 3.49115 -1.2 -8.73708 -4.18723e+06 -820020 -6.92523e+06 -453307 -57274.3 -1.71327e+06
49 1 Mg -0.188235 63.4055 0.0719151 1.2 -7.62533 -1.84337e+06 3.50948e+06 -541655 685615 1.72511e+06 -1.04495e+06
50 3 O 1.51141 61.434 5.86999 -1.2 -8.71519 -195426 -2.33885e+06 -7.43929e+06 318523 445790 783478
51 1 Mg -0.265006 66.2927 1.63281 1.2 -7.62095 -119458 -1.94816e+06 3.49982e+06 -261060 -324323 -321298
52 2 Si -2.23119 64.2903 1.64762 2.4 -31.977 6.10966e+06 8.66892e+06 1.08849e+07 660441 1.71235e+06 1.60476e+06
53 3 O 0.89165 64.2683 1.60199 -1.2 -10.0887 -610938 -2.43599e+06 -3.32465e+06 -503345 308897 -155393
54 3 O -1.20851 67.9111 1.77902 -1.2 -9.84494 -168220 -8.32991e+06 -3.95635e+06 1.86546e+06 -305883 -1.08904e+06
55 3 O -1.48445 65.2618 0.465683 -1.2 -9.4591 -1.83757e+06 -3.29089e+06 -1.85303e+06 1.09249e+06 -1.89483e+06 -30474.7
56 3 O -1.51778 64.9823 3.08895 -1.2 -8.94683 -300466 -2.28851e+06 739.724 597758 2.38759e+06 1.05698e+06
57 1 Mg -2.53435 68.5442 0.305345 1.2 -7.37713 -2.02459e+06 4.14131e+06 -943640 -982066 -1.21969e+06 -1.28846e+06
58 1 Mg 1.77725 71.6316 1.6278 1.2 -7.38668 1.33541e+06 1.49093e+06 1.59323e+06 538472 -295678 -457261
59 2 Si -0.596722 69.3885 1.79744 2.4 -32.2399 6.1744e+06 8.11161e+06 7.53595e+06 554349 -1.84549e+06 -1.38437e+06
60 3 O 1.06171 69.5136 1.68332 -1.2 -9.66901 253259 -557361 -4.78096e+06 583795 -750361 108009
61 3 O -1.62818 73.3106 1.51656 -1.2 -10.0953 -579025 -2.85514e+06 -4.13828e+06 -123909 598813 -710670
62 3 O -1.18292 70.1398 0.52396 -1.2 -9.31335 -5.79952e+06 -2.52384e+06 -2.18798e+06 -985194 1.24944e+06 213842
63 1 Mg -2.85947 79.1377 2.99202 1.2 -8.00933 1.15698e+06 2.45195e+06 1.65321e+06 -1.66938e+06 1.8523e+06 -329451
64 3 O -1.22255 69.8702 3.11597 -1.2 -9.70893 -1.83563e+06 -3.74895e+06 -3.82722e+06 -519438 -935897 -1.35315e+06
65 1 Mg -2.58834 76.0368 4.75791 1.2 -9.65533 4.59263e+06 -47137.4 -25286.8 719278 415454 -674757
66 2 Si 0.0785297 78.2656 4.62263 2.4 -35.7447 6.90339e+06 1.10375e+07 3.34129e+06 -579581 1.83604e+06 -2.79958e+06
67 3 O -1.35378 78.1803 4.85327 -1.2 -7.74302 -8.58107e+06 -2.96139e+06 -1.9818e+06 -475160 1.16786e+06 1.54857e+06
68 3 O 1.01384 74.3351 4.48144 -1.2 -8.03507 -5.99003e+06 -3.04005e+06 -5.08465e+06 -1.27298e+06 -630037 2.3045e+06
69 3 O 0.684791 77.6361 3.3863 -1.2 -8.15435 -4.81956e+06 -3.01068e+06 -6.55753e+06 -114692 331222 470523
70 3 O 0.898052 77.3989 5.75763 -1.2 -7.89728 -6.93314e+06 690692 -5.63426e+06 -489695 939745 1.68492e+06
71 1 Mg -0.219797 73.5548 3.24595 1.2 -7.50379 -3.45906e+06 2.57958e+06 43346.9 2.50275e+06 -2.49388e+06 623926
72 1 Mg -0.663935 70.6064 5.02333 1.2 -7.20817 1.45356e+06 642843 2.97339e+06 -103468 383239 509951
73 2 Si 1.70417 72.7495 4.61493 2.4 -32.5851 1.12249e+06 1.05605e+07 5.79157e+06 559226 -1.24373e+06 -2.5625e+06
74 3 O -1.59594 72.751 4.77485 -1.2 -9.5984 -5.91645e+06 -3.30349e+06 -3.58012e+06 252229 267683 973796
75 3 O 0.809268 69.0919 5.01885 -1.2 -9.73617 762927 -1.39756e+06 -3.3485e+06 1.45734e+06 -205741 1.37861e+06
76 3 O 1.02735 72.1128 3.43718 -1.2 -10.0554 -2.60042e+06 -6.44253e+06 -3.83325e+06 462696 -799160 -2.15722e+06
77 1 Mg -0.477459 73.8884 0.096304 1.2 -7.40243 -1.52533e+06 2.58086e+06 868184 1.09351e+06 2.1832e+06 -884360
78 3 O 1.02685 72.3926 6.03822 -1.2 -9.11725 -4.8313e+06 -4.28949e+06 -4.06879e+06 976135 -45806.1 3.15016e+06
79 1 Mg 0.0212292 76.7982 1.45181 1.2 -8.34021 1.3719e+06 -747811 2.46021e+06 -1.83877e+06 1.78054e+06 350722
80 2 Si -2.2333 74.7704 1.75702 2.4 -33.0704 6.79951e+06 5.50989e+06 1.3433e+07 1.11245e+06 1.33968e+06 1.06636e+06
81 3 O 0.96649 74.8157 1.7221 -1.2 -9.25787 -1.64428e+06 670147 -6.10465e+06 440360 760463 108277
82 3 O -1.52712 78.6919 1.47917 -1.2 -8.66048 -1.45354e+06 -981203 -4.0131e+06 1.18638e+06 -1.21575e+06 679077
83 3 O -1.59077 75.7134 0.642476 -1.2 -9.09553 -3.59387e+06 -487834 -2.7569e+06 -230277 239156 638758
84 3 O -1.58681 75.2639 3.28579 -1.2 -7.76569 -5.57069e+06 343925 -2.75537e+06 -669326 1.81925e+06 2.20074e+06
85 1 Mg -2.94203 78.6758 0.182698 1.2 -7.85547 -952063 768789 485227 -2.24879e+06 -1.06597e+06 -2.29085e+06
86 1 Mg 2.00825 82.3516 1.49179 1.2 -7.79493 531500 -2.28567e+06 2.68324e+06 -37201.5 -597951 59905.2
87 2 Si -0.77398 80.261 1.4472 2.4 -34.2474 7.31616e+06 5.42644e+06 1.30291e+07 1.40946e+06 914127 -2.04568e+06
88 3 O 0.731249 80.08 1.25164 -1.2 -8.8259 -4.71389e+06 -232915 -5.48837e+06 -1.30251e+06 2.00695e+06 1.29368e+06
89 3 O -1.878 83.9955 1.75769 -1.2 -10.3911 -3.71802e+06 -7.61165e+06 -4.72292e+06 -3.52724e+06 -1.67577e+06 381178
90 3 O -1.60928 81.0662 0.28907 -1.2 -8.71936 -4.41627e+06 677695 -2.94995e+06 -438918 912045 985852
91 1 Mg -2.57232 89.7997 3.23741 1.2 -7.60039 -1.68139e+06 3.07161e+06 32135.9 -602554 716742 1.59751e+06
92 3 O -1.18239 80.8202 2.82374 -1.2 -8.34292 -3.33158e+06 -1.41599e+06 -3.93606e+06 449133 -472047 -205701
93 1 Mg -2.64195 86.8419 4.63477 1.2 -7.65098 1.5901e+06 2.03898e+06 2.02933e+06 1.36193e+06 14104.1 -1.19788e+06
94 2 Si 0.116605 88.8188 4.61115 2.4 -32.5549 6.1182e+06 1.15288e+07 8.24995e+06 350570 1.31008e+06 -1.0621e+06
95 3 O -1.53287 88.919 4.65049 -1.2 -9.6593 479031 -4.36558e+06 -2.67689e+06 706497 -335127 1.57637e+06
96 3 O 1.1321 84.9501 4.66883 -1.2 -9.55109 -727698 -3.23016e+06 -2.32605e+06 -689675 292508 1.16323e+06
97 3 O 0.652123 88.0361 3.3701 -1.2 -9.66845 -1.95171e+06 -1.95341e+06 -1.65526e+06 305131 -175478 745625
98 3 O 0.677447 88.14 5.99268 -1.2 -9.22327 -1.67321e+06 -4.25083e+06 155896 -483537 798527 1.29403e+06
99 1 Mg -0.531851 84.4036 3.01503 1.2 -6.99404 -4.22204e+06 4.71528e+06 -4.31978e+06 -178858 -1.60685e+06 178171
100 1 Mg -0.19447 81.5873 4.66897 1.2 -9.13083 2.09506e+06 -640345 3.57123e+06 -721369 555556 680305
101 2 Si 1.78291 83.4151 4.58355 2.4 -33.1462 5.36704e+06 1.15822e+07 9.45736e+06 -1.15177e+06 134832 -1.35351e+06
102 3 O -1.45304 83.4812 4.47861 -1.2 -9.55983 -3.41502e+06 -3.90701e+06 -4.15933e+06 759637 1.00726e+06 1.52565e+06
103 3 O 0.672433 79.8019 4.61281 -1.2 -8.33131 -4.53438e+06 -4.21066e+06 -221247 873782 -619080 109450
104 3 O 0.987743 82.7489 3.36297 -1.2 -9.16666 -4.34012e+06 -3.25468e+06 -1.16346e+06 -126341 1.19206e+06 197494
105 1 Mg -0.410513 84.5839 0.316712 1.2 -6.63723 -4.03893e+06 2.9441e+06 -1.13834e+06 221528 1.03933e+06 -3.09367e+06
106 3 O 1.23489 82.6455 6.01017 -1.2 -8.11024 -5.33166e+06 -1.99955e+06 539004 274875 -794636 -1.0666e+06
107 1 Mg -0.418724 87.3615 1.55708 1.2 -7.88367 -278570 325441 2.8087e+06 -890144 400262 -371051
108 2 Si -2.5185 85.4715 1.78788 2.4 -30.9891 4.38344e+06 9.95786e+06 7.12807e+06 1.53022e+06 -418008 -3.78738e+06
109 3 O 0.548369 85.3892 1.69711 -1.2 -10.3638 609551 -4.29021e+06 -6.14926e+06 225925 -10086.9 383386
110 3 O -1.18761 89.3158 1.6509 -1.2 -9.5258 -1.78415e+06 -3.22434e+06 -4.6594e+06 2.28111e+06 -218880 -1.78664e+06
111 3 O -1.80788 86.3012 0.556314 -1.2 -9.58758 -1.18682e+06 -1.03872e+06 -4.83851e+06 229069 -1.78439e+06 -160685
112 3 O -1.80254 86.148 2.95132 -1.2 -9.67951 -3.94531e+06 -4.59434e+06 -6.13961e+06 666607 1.99174e+06 530154
113 1 Mg -2.68793 89.696 0.298602 1.2 -7.20652 -2.51241e+06 2.72485e+06 -755428 -290851 14549.4 -2.33299e+06
114 1 Mg 2.3356 92.8372 1.77582 1.2 -7.70284 518186 1.76551e+06 3.73241e+06 1.28854e+06 -1553.09 -1.18552e+06
115 2 Si -0.442706 90.8014 1.59484 2.4 -32.1724 4.95365e+06 9.25974e+06 1.13131e+07 608046 -1.77791e+06 -3.2013e+06
116 3 O 1.088 90.7155 1.62753 -1.2 -9.96847 -2.94252e+06 -3.23723e+06 -5.73966e+06 502123 82633 161060
117 3 O -1.25758 94.7714 1.44963 -1.2 -9.63614 -2.28886e+06 135887 -2.66787e+06 -468380 -810707 -1.74306e+06
118 3 O -1.0431 91.7388 0.41495 -1.2 -9.34974 -4.12218e+06 -1.28391e+06 -2.69461e+06 652650 1.78057e+06 -317731
119 1 Mg -2.29147 100.169 2.89545 1.2 -6.99834 -1.85268e+06 2.32762e+06 -2.09195e+06 -598674 821565 2.64935e+06
120 3 O -1.21839 91.3357 3.01855 -1.2 -9.34715 -2.01595e+06 -3.36533e+06 -2.72128e+06 -529292 -1.88025e+06 -427455
121 1 Mg -2.61876 97.5275 4.61563 1.2 -6.98731 -816062 1.71459e+06 652360 2.38541e+06 -484574 2.73547e+06
122 2 Si 0.305023 99.4829 4.49657 2.4 -32.4251 5.31682e+06 9.143e+06 5.34802e+06 1.27206e+06 -345742 2.54935e+06
123 3 O -1.36267 99.7842 4.45502 -1.2 -9.58162 -2.15654e+06 -6.45413e+06 -4.87929e+06 494402 514041 -1.04203e+06
124 3 O 1.18725 95.5056 4.56934 -1.2 -10.1562 -818741 -3.57838e+06 -3.26106e+06 880854 544372 -1.43387e+06
125 3 O 0.822131 98.9334 3.18082 -1.2 -9.62661 -1.12717e+06 -8.76591e+06 -5.7855e+06 -986537 -344903 -4.18283e+06
126 3 O 0.895245 98.7355 5.64259 -1.2 -9.74315 -4.94113e+06 -4.69465e+06 -5.59448e+06 1.10756e+06 -178246 623423
127 1 Mg -0.0289221 94.8438 2.95459 1.2 -6.9406 -1.25429e+06 2.89712e+06 -1.01468e+06 1.67931e+06 -1.8296e+06 1.64341e+06
128 1 Mg -0.231042 92.1921 4.53815 1.2 -7.79155 1.2443e+06 644443 2.48426e+06 -815886 298244 13403.6
129 2 Si 1.83592 94.0607 4.74475 2.4 -31.4072 1.34266e+06 1.1467e+07 9.9346e+06 530729 -1.67268e+06 -1.43844e+06
130 3 O -1.41673 94.3356 4.44689 -1.2 -10.5119 -2.60203e+06 -2.7116e+06 -2.31419e+06 1.23117e+06 -1.42603e+06 81162.3
131 3 O 0.805437 90.3051 4.66852 -1.2 -9.25884 -2.77269e+06 -3.34387e+06 -2.25226e+06 1.25477e+06 219466 602173
132 3 O 1.18767 93.3085 3.37024 -1.2 -9.88969 -799010 -4.85949e+06 -1.25552e+06 583752 909602 148537
133 1 Mg 0.241102 95.0438 0.0672008 1.2 -7.16784 -337796 2.58225e+06 1.52297e+06 587016 1.56849e+06 -443960
134 3 O 1.22264 93.2136 5.97706 -1.2 -9.39574 -716866 -3.37304e+06 -799926 46380.3 -94021.1 -1.09896e+06
135 1 Mg -0.172094 98.5572 1.52849 1.2 -7.1305 -198026 1.78777e+06 1.2508e+06 -551542 103343 891887
136 2 Si -1.98057 96.3849 1.5185 2.4 -31.6465 122025 9.11738e+06 1.10468e+07 -1.14039e+06 -1.82149e+06 2.12821e+06
137 3 O 1.39333 96.1177 1.78416 -1.2 -9.71403 -6.09989e+06 -3.23684e+06 -4.0497e+06 934952 927327 -2.16992e+06
138 3 O -1.2253 100.417 1.33393 -1.2 -9.33044 -4.55505e+06 -5.8387e+06 -4.74123e+06 1.09646e+06 -248503 -374594
139 3 O -1.38003 97.0239 -0.0209631 -1.2 -9.46926 375748 60845.3 1.31299e+06 -688623 -1.19028e+06 -2.76707e+06
140 3 O -1.32033 97.1952 2.66737 -1.2 -9.90576 -4.19268e+06 -1.47831e+06 467858 -1.65751e+06 -1.52457e+06 -2.50707e+06
141 1 Mg -2.6322 101.053 0.000506962 1.2 -7.59598 -3.96214e+06 618856 537496 -1.53203e+06 -1.7358e+06 -187601
142 1 Mg 7.02208 103.749 1.71536 1.2 -7.69777 -267941 1.24012e+06 4.28979e+06 1.15977e+06 139577 906719
143 2 Si -0.506913 101.903 1.49061 2.4 -32.9169 1.94144e+06 4.63316e+06 8.29988e+06 -42534.2 1.45429e+06 3.36874e+06
144 3 O 0.906644 101.746 1.51436 -1.2 -9.27719 -9.02173e+06 -1.95521e+06 -5.85596e+06 -348153 829808 -2.32447e+06
145 3 O 3.56894 105.844 1.77518 -1.2 -10.2673 -4.31479e+06 -3.27051e+06 -3.82651e+06 -841428 -714147 985370
146 3 O -1.38468 102.459 0.278274 -1.2 -9.12503 -1.96845e+06 -6.1745e+06 -6.45908e+06 -125871 693452 -120319
147 1 Mg 2.63787 111.71 3.12821 1.2 -7.30979 -2.47311e+06 1.9586e+06 3.02605e+06 412742 -80771.4 2.17439e+06
148 3 O -1.17866 102.58 2.70676 -1.2 -9.03183 -3.32411e+06 -1.68885e+06 -5.48591e+06 1.33815e+06 61510.6 -2.96918e+06
149 1 Mg 2.75537 109.032 4.62765 1.2 -8.27717 -87701.6 -2.14602e+06 2.19135e+06 -880345 636342 301737
150 2 Si 5.01891 110.625 4.23992 2.4 -31.6783 6.86649e+06 9.39154e+06 1.38758e+07 -1.02367e+06 -2.69042e+06 1.46403e+06
151 3 O 3.47134 110.766 4.72888 -1.2 -9.88497 -3.92885e+06 -4.98574e+06 -4.45796e+06 -1.58135e+06 -3.93781e+06 -1.4835e+06
152 3 O 6.14141 106.712 4.5708 -1.2 -8.63541 -2.11063e+06 -7.10003e+06 -4.18203e+06 -1.77411e+06 -634238 -2.19826e+06
153 3 O 6.13024 110.119 3.05004 -1.2 -9.33283 1.6343e+06 -2.33561e+06 -6.25063e+06 -62574.7 -2.7185e+06 303174
154 3 O 5.63925 109.799 5.52954 -1.2 -8.42951 -2.77899e+06 -3.5294e+06 -334903 914814 1.46924e+06 -1.64636e+06
155 1 Mg 4.94526 106.218 3.04989 1.2 -7.29663 -2.72416e+06 2.84938e+06 -459479 819770 -2.52777e+06 1.75415e+06
156 1 Mg 0.0602619 103.202 4.45375 1.2 -8.41726 2.35525e+06 2.18599e+06 2.3734e+06 -687653 169590 2.43879e+06
157 2 Si 6.85623 105.315 4.74907 2.4 -34.2226 3.2901e+06 1.01462e+07 7.75081e+06 895463 -1.29691e+06 1.7862e+06
158 3 O 3.53289 105.192 4.74264 -1.2 -8.95696 -9.14168e+06 -2.768e+06 -3.58094e+06 507608 -2.05477e+06 -1.24748e+06
159 3 O 0.95735 100.97 4.31435 -1.2 -8.67377 -4.25759e+06 -4.75415e+06 -6.07764e+06 785196 -1.64573e+06 -2.87359e+06
160 3 O 6.1823 104.511 3.50803 -1.2 -8.77429 -4.30109e+06 -2.19903e+06 -4.67722e+06 1.08786e+06 205685 -1.53951e+06
161 1 Mg 4.59695 106.109 0.0644153 1.2 -6.66882 -1.77737e+06 1.88747e+06 1.03616e+06 964716 1.33116e+06 -2.10332e+06
162 3 O 5.97753 104.547 5.95368 -1.2 -8.02419 -2.45445e+06 -288043 -3.81516e+06 221625 -451335 -1.18724e+06
163 1 Mg 5.25132 109.12 1.59816 1.2 -7.74439 1.38604e+06 -1.27929e+06 2.97105e+06 -281546 711647 -748749
164 2 Si 2.92608 107.24 1.72492 2.4 -31.4446 5.54519e+06 7.85892e+06 1.11019e+07 2.88419e+06 595932 1.50745e+06
165 3 O 6.02233 107.173 1.70841 -1.2 -9.87082 1.72205e+06 -2.77099e+06 -5.48934e+06 404653 50882.6 -139123
166 3 O 3.95121 111.414 1.51904 -1.2 -9.17699 -3.20444e+06 -1.49674e+06 -1.46481e+06 2.51942e+06 542561 -2.76825e+06
167 3 O 3.55071 107.977 0.495006 -1.2 -10.0277 -1.88664e+06 -1.69006e+06 -4.4434e+06 7769.67 -185151 1.60082e+06
168 3 O 3.49352 108.236 3.10601 -1.2 -9.10319 -2.88673e+06 2.25355e+06 -2.71994e+06 2.28371e+06 2.11351e+06 1.94055e+06
169 1 Mg 2.51756 111.527 -0.00805632 1.2 -7.54456 -468157 1.59028e+06 1.82627e+06 -536435 146947 -573024
170 1 Mg 7.12475 114.582 1.33095 1.2 -7.56262 -254253 816192 4.67319e+06 125244 -601866 2.14529e+06
171 2 Si 4.66215 112.921 1.37524 2.4 -32.006 8.1842e+06 8.14435e+06 1.29427e+07 -1.1974e+06 637630 3.25818e+06
172 3 O 6.26258 112.72 1.43223 -1.2 -9.91736 -509836 -1.70014e+06 -3.6875e+06 -1.81117e+06 205509 -1.52114e+06
173 3 O 3.3299 116.822 1.4869 -1.2 -9.14629 -3.30288e+06 -4.16774e+06 -4.085e+06 1.65496e+06 325242 -891399
174 3 O 3.85799 113.542 0.0550827 -1.2 -9.66647 15738.2 -1.14975e+06 -3.34305e+06 -1.34857e+06 2.79829e+06 -319868
175 1 Mg 2.36547 122.178 2.85186 1.2 -8.32862 -1.87143e+06 2.04192e+06 -640121 -1.28799e+06 1.94587e+06 1.63402e+06
176 3 O 3.86102 113.639 2.67473 -1.2 -9.32221 -2.16064e+06 -1.10063e+06 -1.23099e+06 -765170 -2.98711e+06 -1.76635e+06
177 1 Mg 2.36132 119.441 4.60048 1.2 -7.93542 -134970 1.0937e+06 3.57193e+06 797563 -151939 311234
178 2 Si 4.98293 121.33 4.42339 2.4 -33.3907 5.70482e+06 9.59086e+06 7.53549e+06 -14693 -2.20226e+06 -1.84194e+06
179 3 O 3.49703 121.563 4.39239 -1.2 -9.34255 -6.3255e+06 -4.10311e+06 -3.58177e+06 632205 -1.28992e+06 1.82957e+06
180 3 O 6.21292 117.615 4.45123 -1.2 -9.00708 -5.56587e+06 -6.27863e+06 -7.70347e+06 -213275 1.71246e+06 1.0295e+06
181 3 O 5.79142 120.761 3.12909 -1.2 -8.96862 -1.09981e+06 -6.94103e+06 -3.68108e+06 -1.14528e+06 -482020 -2.73735e+06
182 3 O 5.67971 120.562 5.61283 -1.2 -9.26561 -2.96637e+06 -3.45461e+06 -3.60502e+06 -315908 1.01838e+06 2.22594e+06
183 1 Mg 4.7016 117.181 3.05746 1.2 -7.2875 -1.36103e+06 1.76893e+06 -2.03658e+06 -284519 908516 2.80382e+06
184 1 Mg 4.58275 114.243 4.51838 1.2 -7.83066 1.99138e+06 267292 3.89381e+06 -61762.2 -155612 1.17798e+06
185 2 Si 6.82239 116.162 4.44481 2.4 -33.7606 4.18118e+06 6.38073e+06 1.03624e+07 1.98029e+06 -52225.8 599202
186 3 O 3.63326 116.542 4.33246 -1.2 -9.27669 -5.19476e+06 -2.30128e+06 -7.97917e+06 1.19313e+06 1.30072e+06 275115
187 3 O 5.71281 112.147 4.51357 -1.2 -9.30282 -1.12133e+06 -1.69179e+06 -4.65755e+06 1.76447e+06 -134299 913198
188 3 O 6.16969 115.345 3.30418 -1.2 -8.93419 -1.65625e+06 -2.50323e+06 -4.9892e+06 -120570 335407 -1.50057e+06
189 1 Mg 5.15152 117.174 0.0695604 1.2 -6.23216 -1.80993e+06 1.99228e+06 -399458 1.59561e+06 1.52261e+06 -1.89142e+06
190 3 O 6.15269 115.579 5.71229 -1.2 -8.41711 -3.13488e+06 -4.12349e+06 -7.31449e+06 665106 -1.33935e+06 570674
191 1 Mg 4.59374 120.086 1.55296 1.2 -7.32223 877118 -1.80069e+06 4.2212e+06 -1.49326e+06 617395 716324
192 2 Si 2.74248 118.269 1.50059 2.4 -32.6783 -385364 6.97122e+06 9.67735e+06 -1.46821e+06 -3.06799e+06 -2.58207e+06
193 3 O 6.00408 117.974 1.61748 -1.2 -9.76202 -5.49249e+06 -4.03123e+06 -4.93296e+06 1.37818e+06 -1.04023e+06 -72568.6
194 3 O 3.49617 121.888 1.21094 -1.2 -10.2399 -2.46483e+06 -4.31789e+06 -3.70081e+06 1.04809e+06 820578 -3.79216e+06
195 3 O 3.30953 119.009 0.116037 -1.2 -9.37384 -1.80499e+06 -1.67501e+06 -1.96691e+06 -1.08067e+06 -679729 -377612
196 3 O 3.36388 118.984 2.62075 -1.2 -9.6012 -3.88068e+06 -5.9891e+06 -6.05765e+06 -1.42694e+06 -850575 -1.95817e+06
197 1 Mg 2.03388 122.084 -0.369086 1.2 -6.50269 -5.73451e+06 1.78495e+06 952146 -1.60054e+06 -592036 -1.22334e+06
198 1 Mg 6.96783 125.353 1.01952 1.2 -7.84918 2.0441e+06 378178 3.27636e+06 1.38245e+06 -403440 431322
199 2 Si 4.14975 123.279 1.12934 2.4 -32.0086 1.04893e+07 4.19431e+06 1.15923e+07 1.1253e+06 -1.74671e+06 718899
200 3 O 5.92452 123.303 1.08955 -1.2 -9.07614 3.51196e+06 -159262 -4.67032e+06 1.93739e+06 -1.48753e+06 620518
201 3 O 3.17643 127.291 1.29944 -1.2 -8.79722 -4.31985e+06 -289993 -7.58659e+06 -2.10398e+06 3.3164e+06 2.67641e+06
202 3 O 3.76802 124.273 0.021716 -1.2 -10.0634 -5.01522e+06 737517 -5.67604e+06 -1.06288e+06 1.01781e+06 -270605
203 1 Mg 2.40537 133.038 2.60698 1.2 -7.42996 -3.84846e+06 2.1707e+06 25885.2 -1.28437e+06 3.68934e+06 227914
204 3 O 3.56122 123.884 2.66484 -1.2 -8.51926 -4.15515e+06 -1.66966e+06 -714592 -1.2707e+06 -1.49863e+06 505517
205 1 Mg 2.75515 129.795 4.63638 1.2 -8.46411 2.43448e+06 603240 -1.72979e+06 1.05531e+06 -803752 409182
206 2 Si 5.28104 131.959 3.88955 2.4 -32.7517 7.22451e+06 9.01469e+06 9.87633e+06 -496104 190661 -2.35635e+06
207 3 O 3.73703 132.144 4.08627 -1.2 -9.48351 -2.20072e+06 -1.5456e+06 -3.53871e+06 1.59962e+06 -1.60012e+06 1.6162e+06
208 3 O 6.21083 128.194 4.64784 -1.2 -7.93621 -4.52843e+06 -4.2306e+06 -5.16635e+06 607.704 2.24624e+06 754496
209 3 O 5.8591 131.401 2.5507 -1.2 -9.43982 -1.82867e+06 -2.08174e+06 -5.54901e+06 813438 -728036 2.72351e+06
210 3 O 5.75001 130.967 5.09574 -1.2 -8.38069 -3.05323e+06 -1.7926e+06 -554953 -278239 619087 -1.23011e+06
211 1 Mg 4.59829 127.956 2.87191 1.2 -7.80661 1.55329e+06 2.44559e+06 1.72693e+06 832218 -299124 134947
212 1 Mg 4.20245 124.744 4.23719 1.2 -8.64746 3.162e+06 367591 2.277e+06 303618 -321850 -740664
213 2 Si 6.65814 126.618 4.36858 2.4 -34.6315 7.408e+06 8.27897e+06 1.0857e+07 2.74632e+06 890765 -226626
214 3 O 3.46937 126.802 4.34624 -1.2 -8.94201 -4.61515e+06 -1.65865e+06 -4.35914e+06 3.50628e+06 273447 -50337.5
215 3 O 5.83483 122.757 4.30013 -1.2 -7.86969 -3.9691e+06 -5.35284e+06 -5.0251e+06 1.73651e+06 -491891 -1.8049e+06
216 3 O 5.85764 126.206 3.03551 -1.2 -8.25498 -1.96126e+06 -356189 -4.01994e+06 -1.01239e+06 1.3543e+06 683880
217 1 Mg 4.39737 127.633 0.110509 1.2 -7.33687 -3.80126e+06 1.31121e+06 214083 -471509 3.58461e+06 -3.10176e+06
218 3 O 5.89005 125.804 5.46337 -1.2 -8.3648 -3.27452e+06 -3.16155e+06 -5.71043e+06 136894 -1.93408e+06 1.07584e+06
219 1 Mg 4.722 130.826 1.04684 1.2 -7.59892 1.4885e+06 783428 1.89999e+06 -575080 157143 -321176
220 2 Si 2.37981 128.878 1.3274 2.4 -32.7767 1.90364e+06 7.60738e+06 1.57038e+07 -1.41819e+06 -416839 -3.60105e+06
221 3 O 5.65633 128.818 1.25297 -1.2 -9.90074 -5.14508e+06 -2.07827e+06 -6.6581e+06 -107453 -2.12705e+06 1.51655e+06
222 3 O 3.70701 132.928 1.17219 -1.2 -9.26363 -4.40669e+06 -2.23933e+06 -6.00546e+06 1.07807e+06 725769 1.03037e+06
223 3 O 3.13087 129.454 -0.0767431 -1.2 -9.07479 -4.10253e+06 65210.6 -362756 1.40995e+06 -899609 518917
224 3 O 3.00881 129.298 2.72115 -1.2 -9.03773 -2.4197e+06 -4.11714e+06 -2.97753e+06 830031 1.79008e+06 309381
225 1 Mg 2.54347 133.391 -0.374224 1.2 -7.48567 -1.33343e+06 781725 -255028 29174.9 -1.35977e+06 -3.54362e+06
226 1 Mg 7.21279 136.116 0.914401 1.2 -7.0431 -2.37946e+06 1.03766e+06 1.39091e+06 2.54843e+06 671765 -1.72302e+06
227 2 Si 4.50541 134.394 1.28652 2.4 -31.9365 3.76838e+06 6.96764e+06 9.96204e+06 493717 -210801 -974955
228 3 O 5.97749 134.053 1.16347 -1.2 -9.83512 -3.71959e+06 -2.95453e+06 -4.91397e+06 -607321 -687192 -493964
229 3 O 3.56975 138.171 0.76989 -1.2 -9.78741 2.57013e+06 -2.43808e+06 -4.37315e+06 -2.7603e+06 875838 -1.11121e+06
230 3 O 3.76154 135.096 -0.0444465 -1.2 -9.85037 -633023 -3.56325e+06 -2.14142e+06 781100 1.71453e+06 -151854
231 1 Mg 2.1309 143.55 2.72477 1.2 -5.98938 -4.84442e+06 3.6601e+06 -495320 -848144 396661 1.19697e+06
232 3 O 3.8865 134.924 2.58126 -1.2 -9.68278 -2.86301e+06 -5.53782e+06 -5.26205e+06 275401 -94033.5 -2.22089e+06
233 1 Mg 1.89516 140.686 4.32313 1.2 -6.85509 106376 3.01836e+06 -451761 -461192 466922 1.39806e+06
234 2 Si 4.82958 142.788 4.39868 2.4 -32.0513 4.36413e+06 1.18748e+07 1.62717e+06 1.01182e+06 1.60993e+06 1.07613e+06
235 3 O 3.27316 142.885 4.36277 -1.2 -9.75297 -1.71479e+06 -4.44147e+06 -1.92247e+06 -692733 1.20863e+06 -379491
236 3 O 6.27604 138.76 3.7899 -1.2 -10.5612 -3.66724e+06 -4.80005e+06 -1.41698e+06 -825378 -1.22142e+06 809961
237 3 O 5.42185 142.081 3.18366 -1.2 -10.5216 -2.80183e+06 -4.51103e+06 -3.4011e+06 -453646 -1.45148e+06 -2.26734e+06
238 3 O 5.59283 142.171 5.60148 -1.2 -9.72315 -1.89734e+06 -4.09973e+06 -2.96807e+06 960307 529152 2.01876e+06
239 1 Mg 5.00314 138.459 2.34072 1.2 -6.16827 -1.13405e+06 4.75887e+06 -1.27026e+06 336556 -1.49759e+06 1.10261e+06
240 1 Mg 4.77689 135.445 4.15003 1.2 -7.12627 934070 416541 764729 -2.37429e+06 -856538 -1.90695e+06
241 2 Si 6.76558 137.253 3.86985 2.4 -31.4193 2.57979e+06 1.1939e+07 3.11717e+06 352684 563140 -1.04685e+06
242 3 O 3.63473 137.228 4.04634 -1.2 -9.75606 1.86452e+06 -5.90766e+06 -2.25311e+06 306366 250178 -150523
243 3 O 6.15899 133.478 4.15417 -1.2 -9.58354 -1.17902e+06 -823035 -3.47144e+06 1.89044e+06 1.21524e+06 1.49533e+06
244 3 O 6.3405 136.53 2.58456 -1.2 -10.2034 -3.71961e+06 -4.41144e+06 -3.26461e+06 -814157 -888139 -645982
245 1 Mg 5.14373 138.73 -0.32254 1.2 -6.3345 -5.09169e+06 2.66942e+06 -4.73537e+06 -219366 902236 -2.28302e+06
246 3 O 6.20151 136.55 5.16189 -1.2 -10.3636 -3.53181e+06 -2.62169e+06 -1.83283e+06 -569527 785707 1.28829e+06
247 1 Mg 4.92091 141.605 1.21826 1.2 -6.5446 -1.89021e+06 1.529e+06 2.81391e+06 -1.15756e+06 -1.03342e+06 -1.34659e+06
248 2 Si 2.73625 139.784 0.947844 2.4 -30.3192 112344 1.10175e+07 9.90012e+06 -1.89193e+06 963602 -401472
249 3 O 5.97337 139.759 1.01324 -1.2 -11.2646 -3.38113e+06 -2.99893e+06 -6.89106e+06 -339878 -780201 -418006
250 3 O 3.71265 143.607 1.57351 -1.2 -11.3053 2.37114e+06 -2.83233e+06 -2.21795e+06 2.23879e+06 1.2227e+06 1.21799e+06
251 3 O 3.47618 140.615 -0.126562 -1.2 -10.4784 -1.24278e+06 -4.22439e+06 -4.30667e+06 359222 -1.12952e+06 635077
252 3 O 3.49057 140.157 2.35226 -1.2 -9.51489 982544 -3.31976e+06 -2.0112e+06 -1.48945e+06 1.56318e+06 -217635
253 1 Mg 2.35771 144.533 0.0613863 1.2 -5.28442 -3.43964e+06 5.03666e+06 -684715 -614776 -876539 -1.99662e+06
254 1 Mg 6.74109 146.928 2.19784 1.2 -6.6156 -2.8718e+06 913826 2.42029e+06 710475 -954385 -1.81152e+06
255 2 Si 4.44352 145.086 1.77703 2.4 -28.6662 354517 1.36807e+07 1.00665e+07 -1.82939e+06 -1.19706e+06 -3.00387e+06
256 3 O 6.01477 144.966 1.7004 -1.2 -12.0156 329809 -3.22087e+06 -3.2474e+06 -745994 -2.64749e+06 1.97489e+06
257 3 O 3.24738 149.221 2.64172 -1.2 -9.5282 -471460 -2.62629e+06 -3.01565e+06 -2.98551e+06 -1.02813e+06 2.88014e+06
258 3 O 3.9742 145.997 0.326289 -1.2 -10.7094 2.49964e+06 -1.42327e+06 -981034 653435 2.5915e+06 -635661
259 1 Mg 1.2517 154.66 2.59879 1.2 -6.19205 -700318 162393 1.88107e+06 326193 -504606 796000
260 3 O 3.45834 145.962 2.83155 -1.2 -10.1572 1.03941e+06 -2.23243e+06 -2.67785e+06 -1.39247e+06 -2.12457e+06 4.47579e+06
261 1 Mg 1.13317 154.426 6.12882 1.2 -5.86288 -7.63885e+06 1.47697e+06 2.84373e+06 -425980 -2.02591e+06 -1.79953e+06
262 2 Si 3.45622 153.212 4.15345 2.4 -29.9649 3.02835e+06 9.13773e+06 9.44432e+06 -420509 -2.37445e+06 -3.92511e+06
263 3 O 2.13309 154.176 4.29404 -1.2 -10.8191 1.73373e+06 -2.17864e+06 -2.04676e+06 -1.90743e+06 920006 192177
264 3 O 5.94516 150.12 5.36423 -1.2 -9.87182 -1.83673e+06 545852 -2.84789e+06 -1.40684e+06 138085 2.64419e+06
265 3 O 4.14988 153.795 2.64452 -1.2 -9.719 -1.56728e+06 -1.98861e+06 -2.37583e+06 1.02907e+06 -2.67654e+06 -1.6365e+06
266 3 O 4.34226 153.325 5.38721 -1.2 -11.74 -1.68913e+06 -2.18116e+06 -3.43551e+06 -1.497e+06 276563 916299
267 1 Mg 4.39783 149.93 4.10124 1.2 -6.73709 -1.08217e+06 1.33484e+06 1.34101e+06 933473 -2.0132e+06 -2.38393e+06
268 1 Mg 4.16687 146.925 4.76645 1.2 -7.21994 -2.68193e+06 846946 476468 -1.47224e+06 939640 1140.88