ITEM: TIMESTEP
69600
ITEM: NUMBER OF ATOMS
5600
ITEM: BOX BOUNDS xy xz yz pp pp pp
0.0000000000000000e+00 7.1234999999999999e+00 0.0000000000000000e+00
0.0000000000000000e+00 2.0198500000000001e+02 2.3744999999999998e+00
0.0000000000000000e+00 1.1958400000000000e+02 0.0000000000000000e+00
ITEM: ATOMS id type element xu yu zu q c_pe c_s[1] c_s[2] c_s[3] c_s[4] c_s[5] c_s[6]
1 1 Mg -1.35492 49.1676 -1.60702 1.2 -7.06245 -1.85572e+06 -1.64923e+06 352893 545214 1.1401e+06 834492
2 1 Mg 3.42471 50.8461 1.80737 1.2 -8.55785 714039 4.13095e+06 1.90005e+06 -706039 -577505 -2.36267e+06
3 2 Si 1.31775 50.1994 -0.16402 2.4 -34.0555 6.41855e+06 7.2974e+06 6.02798e+06 1.86989e+06 -183948 -456823
4 3 O 2.71083 49.8286 0.10605 -1.2 -8.34593 -9.64124e+06 -3.89151e+06 -4.85699e+06 2.28528e+06 -405708 3.00072e+06
5 3 O -1.00065 52.9088 1.05809 -1.2 -8.39266 -970950 -202505 -3.44167e+06 -1.38452e+06 56422.7 -1.09639e+06
6 3 O 0.58225 49.2169 -1.33368 -1.2 -9.09368 -2.34855e+06 -1.97549e+06 -2.58218e+06 260028 2.35764e+06 1.40902e+06
7 1 Mg -2.2344 58.7225 2.94148 1.2 -7.72858 741468 3.89986e+06 144018 -1.27525e+06 897833 350808
8 3 O 0.625178 50.2239 1.20702 -1.2 -8.26907 -7.43781e+06 -3.046e+06 -5.45218e+06 -1.28263e+06 -82362.5 1.59633e+06
9 1 Mg -2.2574 55.4605 4.45593 1.2 -8.00137 -958222 3.34931e+06 -333402 808341 -1.68569e+06 349864
10 2 Si 0.3946 57.4017 4.48946 2.4 -33.6118 8.30792e+06 1.21923e+07 7.4077e+06 535150 232573 152096
11 3 O -1.16509 57.5876 4.44166 -1.2 -9.00502 -1.65977e+06 -2.97119e+06 -3.47174e+06 -2.00866e+06 -245135 1.36568e+06
12 3 O 1.91559 53.2714 4.71181 -1.2 -8.39219 -7.28836e+06 -4.11629e+06 -3.22209e+06 -857147 545930 -294727
13 3 O 1.1725 56.487 3.37853 -1.2 -9.0137 -4.77988e+06 -1.08452e+06 -1.76066e+06 -1.76939e+06 -1.86013e+06 -57814.6
14 3 O 1.02219 56.9805 5.8148 -1.2 -9.02038 -4.24609e+06 -3.07389e+06 -3.48327e+06 949428 948111 1.35892e+06
15 1 Mg 0.689337 52.7762 2.66484 1.2 -7.98286 1.19029e+06 2.18096e+06 2.62453e+06 -139744 -240585 -884805
16 1 Mg 1.27932 49.4231 2.78656 1.2 -8.59281 5.69226e+06 -260541 -781688 2050.33 -563749 296269
17 2 Si 2.65283 51.8748 4.52869 2.4 -35.4132 1.10806e+07 6.39669e+06 7.25275e+06 -210649 -160654 -377127
18 3 O -0.551619 52.3533 4.26236 -1.2 -8.24039 -5.42678e+06 -2.429e+06 -1.68615e+06 1.90716e+06 -868859 1.54282e+06
19 3 O 3.32477 49.0224 3.04616 -1.2 -6.07408 -860463 2.12793e+06 -1.21547e+06 713376 -316128 -1.19171e+06
20 3 O 2.00498 51.3959 3.17298 -1.2 -8.55927 -4.9327e+06 -5.72154e+06 -5.35826e+06 961266 -598201 -2.02904e+06
21 1 Mg 0.190122 53.7242 -0.359985 1.2 -8.05416 -641091 2.95614e+06 -717477 1.35472e+06 2.62462e+06 -1.1119e+06
22 3 O 2.3608 50.8931 5.63845 -1.2 -8.81591 -4.82942e+06 -3.97715e+06 -5.55774e+06 2.22516e+06 983308 1.21053e+06
23 1 Mg 0.329317 56.241 1.52187 1.2 -8.49251 960676 1.40385e+06 2.96281e+06 -1.32813e+06 -380629 -1.49636e+06
24 2 Si -1.74758 54.4752 1.36508 2.4 -33.4672 4.54787e+06 1.12489e+07 9.27935e+06 -1.42116e+06 1.55219e+06 -1.88426e+06
25 3 O 1.54532 54.2959 1.31635 -1.2 -9.5148 -6.08065e+06 -1.85621e+06 -2.14241e+06 517260 572999 -54294.7
26 3 O -0.774075 58.0516 1.78035 -1.2 -8.75401 -1.97115e+06 -100296 -2.28301e+06 421875 845070 -1.62998e+06
27 3 O -1.04917 55.3878 0.157443 -1.2 -9.17426 -2.62162e+06 -3.34745e+06 -182929 -380235 -718421 945527
28 3 O -1.00078 54.8146 2.73091 -1.2 -8.52581 -1.79233e+06 -4.3527e+06 -610547 -486158 360565 245681
29 1 Mg -2.16649 58.7277 -0.163283 1.2 -7.19441 -3.11075e+06 2.70019e+06 1.37728e+06 -1.60985e+06 -1.39548e+06 -3.59718e+06
30 1 Mg 2.60469 61.7357 1.35884 1.2 -7.79908 623868 821238 1.1018e+06 945900 -1.37115e+06 177724
31 2 Si -0.151463 59.6707 1.31092 2.4 -32.2206 4.05007e+06 1.23312e+07 8.10776e+06 -155246 1.10829e+06 -4.01569e+06
32 3 O 1.36532 59.5098 1.38498 -1.2 -9.74829 -1.81352e+06 -4.66191e+06 -2.55397e+06 -819494 2.25303e+06 470271
33 3 O -1.24426 63.5706 1.34615 -1.2 -9.43053 -2.21998e+06 -4.11045e+06 -3.83868e+06 -1.28782e+06 418415 2.15094e+06
34 3 O -0.99174 60.1849 -0.0180106 -1.2 -9.73619 -1.80354e+06 -1.52355e+06 -3.47893e+06 -948701 554939 -477905
35 1 Mg -2.37393 69.2682 3.20077 1.2 -7.00879 -2.62889e+06 5.83059e+06 -1.81548e+06 -426167 1.99521e+06 43081.4
36 3 O -0.711285 60.5847 2.42564 -1.2 -9.25364 -3.31707e+06 -4.06334e+06 -4.00465e+06 684918 -1.08829e+06 -128592
37 1 Mg -2.13216 66.1054 4.68959 1.2 -6.76585 -1.12186e+06 1.95213e+06 1.73906e+06 -443908 -226207 -648584
38 2 Si 0.340266 68.0747 4.60965 2.4 -30.0762 3.56489e+06 1.21163e+07 8.57267e+06 -1.62401e+06 -312355 -4.44379e+06
39 3 O -1.19668 68.3229 4.70352 -1.2 -10.989 -388405 -3.40303e+06 -1.64726e+06 -2.00555e+06 -140309 2.47065e+06
40 3 O 1.50047 64.4609 4.64991 -1.2 -10.4385 -794984 -7.54237e+06 -3.5506e+06 536748 485754 1.13987e+06
41 3 O 1.11352 67.5051 3.16661 -1.2 -10.1817 977625 -4.37551e+06 1.71587e+06 -229324 -2.44329e+06 1.47315e+06
42 3 O 1.0955 67.4129 5.91407 -1.2 -10.3495 614305 -3.52383e+06 1.42145e+06 -843817 1.19912e+06 2.5555e+06
43 1 Mg 0.109936 63.999 2.94567 1.2 -7.08564 -1.66882e+06 3.73186e+06 -1.36499e+06 1.29974e+06 -1.26798e+06 589222
44 1 Mg 0.0521044 61.0288 4.19354 1.2 -8.35209 1.36812e+06 1.05863e+06 3.29149e+06 -1.32309e+06 -749222 -1.91078e+06
45 2 Si 2.07719 63.0237 4.48871 2.4 -32.5667 4.72519e+06 8.17585e+06 8.53348e+06 -578172 -1.21292e+06 -3.39002e+06
46 3 O -1.04219 62.8584 4.31046 -1.2 -9.48073 -298877 -2.12609e+06 -3.8834e+06 -785550 -416480 1.02024e+06
47 3 O 0.952765 59.148 4.33847 -1.2 -8.47327 -760836 1.44593e+06 -1.17854e+06 726464 -149465 297422
48 3 O 1.50101 62.3759 3.23327 -1.2 -9.28553 -5.28194e+06 -2.61133e+06 -3.01478e+06 -936877 -1.26997e+06 827163
49 1 Mg 0.0463111 64.0864 -0.0520091 1.2 -6.82943 -2.08059e+06 3.28406e+06 -2.41587e+06 639901 2.49682e+06 -4.35568e+06
50 3 O 1.61297 62.2721 5.85685 -1.2 -8.7412 -3.69576e+06 -2.79554e+06 -1.46832e+06 -723753 -675800 222993
51 1 Mg -0.0351014 66.8445 1.71674 1.2 -6.79605 -581571 2.06402e+06 1.3442e+06 -1.49439e+06 -410874 -1.70659e+06
52 2 Si -1.99664 65.1341 1.46826 2.4 -31.1689 -67469.2 1.24728e+07 8.19755e+06 -1.66456e+06 53816.4 -3.85638e+06
53 3 O 1.28599 64.8531 1.60467 -1.2 -10.4356 -3.00196e+06 -5.0756e+06 -3.34252e+06 339358 471878 1.88332e+06
54 3 O -1.01896 68.7139 1.77073 -1.2 -10.0841 -1.51596e+06 -5.05056e+06 -1.53886e+06 1.03827e+06 52085.6 372097
55 3 O -1.34138 65.7962 0.198202 -1.2 -10.0315 -1.42747e+06 -5.59231e+06 -407615 -1.27926e+06 -781463 1.84315e+06
56 3 O -1.26691 65.5519 2.83919 -1.2 -10.6325 -1.31161e+06 -6.75587e+06 480124 333207 864493 251867
57 1 Mg -2.30215 69.1595 0.0801885 1.2 -6.80173 -2.42698e+06 3.50349e+06 -1.45113e+06 -347785 -704935 -3.07571e+06
58 1 Mg 2.36069 72.0607 1.33635 1.2 -7.25392 1.24604e+06 2.56733e+06 2.18378e+06 1.19043e+06 119047 476969
59 2 Si -0.277614 70.1634 1.5341 2.4 -31.7877 3.08276e+06 1.20291e+07 5.89787e+06 438223 -1.14689e+06 186632
60 3 O 1.29743 70.0948 1.48218 -1.2 -10.3523 -1.0039e+06 -4.23637e+06 -2.03051e+06 678908 -619623 33152.7
61 3 O -1.18789 74.0375 1.34235 -1.2 -9.38448 301245 -1.89451e+06 -1.97627e+06 -1.38794e+06 1.72843e+06 496627
62 3 O -0.874967 70.7003 0.221336 -1.2 -9.94776 -1.60929e+06 -4.32886e+06 -4.70793e+06 -766969 390048 60287.3
63 1 Mg -2.23192 79.6593 3.11546 1.2 -8.06273 -2.11963e+06 4.21033e+06 -1.80631e+06 -898531 2.5089e+06 972905
64 3 O -0.901118 70.9835 2.77115 -1.2 -9.34192 -2.28658e+06 -5.65123e+06 1.66646e+06 1.14499e+06 46362.6 -395503
65 1 Mg -2.39874 76.5581 4.86757 1.2 -7.82969 845758 -208962 1.63903e+06 -190059 -1.71003e+06 1.10583e+06
66 2 Si 0.483175 78.6697 4.51534 2.4 -33.0565 8.6028e+06 1.25674e+07 7.68589e+06 1.38149e+06 1.28484e+06 -1.75009e+06
67 3 O -1.05898 79.1373 4.68511 -1.2 -9.19027 -3.11913e+06 -3.81642e+06 -1.54397e+06 -941702 371599 2.10112e+06
68 3 O 1.46288 74.904 4.63471 -1.2 -9.28018 -4.26411e+06 -4.16461e+06 -3.44911e+06 -2.57058e+06 2.60488e+06 1.55137e+06
69 3 O 0.955297 78.0874 3.15665 -1.2 -9.44287 -2.00417e+06 -5.01315e+06 -263622 -453272 -461337 -219685
70 3 O 1.20281 78.0524 5.86843 -1.2 -8.96072 -1.89252e+06 -3.36418e+06 1.22377e+06 -1.54145e+06 1.37754e+06 1.56834e+06
71 1 Mg 0.209924 74.4449 2.99305 1.2 -7.31951 833836 5.36006e+06 -648063 427047 -484353 1.19705e+06
72 1 Mg -0.100324 71.5838 4.78506 1.2 -6.92622 36189.7 3.02069e+06 1.50154e+06 -416383 816669 225971
73 2 Si 2.27974 73.313 4.61266 2.4 -32.0913 238056 1.31167e+07 6.43947e+06 -84675.9 -1.74582e+06 759824
74 3 O -1.01462 73.5413 4.48895 -1.2 -10.0907 -4.5834e+06 -5.80512e+06 -2.76791e+06 -1.09801e+06 -1.81648e+06 -1.32145e+06
75 3 O 1.02593 69.5837 4.62694 -1.2 -10.3341 -1.12068e+06 -4.53945e+06 -1.42486e+06 1.45437e+06 421758 2.2551e+06
76 3 O 1.78897 72.561 3.34302 -1.2 -9.19527 -4.13808e+06 -4.24006e+06 428640 -382343 120667 -744025
77 1 Mg 0.15919 74.4494 -0.0362804 1.2 -7.2935 -3.60516e+06 3.57469e+06 -116687 1.45313e+06 1.59415e+06 -1.65431e+06
78 3 O 1.52856 72.7449 5.86319 -1.2 -10.1095 -113814 -4.9546e+06 -3.5369e+06 487382 138856 837470
79 1 Mg 0.022414 77.589 1.44762 1.2 -8.15608 149936 508529 599280 -1.37724e+06 8526.54 -591922
80 2 Si -1.95546 75.6396 1.4371 2.4 -32.2413 4.95252e+06 1.20002e+07 7.42149e+06 -1.71706e+06 737839 549837
81 3 O 1.28151 75.4544 1.38567 -1.2 -10.06 -2.703e+06 -3.54315e+06 -1.40642e+06 567990 -1.35245e+06 -486009
82 3 O -1.09132 79.2859 1.54983 -1.2 -9.35624 -4.12452e+06 -5.35124e+06 -2.87096e+06 2.00927e+06 846021 766686
83 3 O -1.18437 76.4511 0.386216 -1.2 -9.76259 -2.67701e+06 -4.44005e+06 -2.27177e+06 -352826 259119 517991
84 3 O -1.36779 76.0883 2.94698 -1.2 -8.81926 -1.06153e+06 -3.03656e+06 1.12258e+06 -428099 1.03539e+06 1.3995e+06
85 1 Mg -2.42237 79.8745 0.130458 1.2 -7.89906 -1.12711e+06 3.86505e+06 -1.16184e+06 -876468 -2.6465e+06 -1.89447e+06
86 1 Mg 2.53894 82.5477 1.57079 1.2 -8.88398 2.69136e+06 1.91017e+06 3.1997e+06 1.46165e+06 -162801 -1.25479e+06
87 2 Si -0.297008 80.7266 1.65516 2.4 -33.5601 7.23415e+06 1.11033e+07 7.46348e+06 883179 883202 166317
88 3 O 1.30149 80.6379 1.71536 -1.2 -9.08642 -1.15545e+06 -4.46153e+06 -4.2805e+06 1.28789e+06 112993 238881
89 3 O -1.34266 84.6454 1.30126 -1.2 -7.73754 -5.25406e+06 -1.46077e+06 -3.65391e+06 -2.28617e+06 1.58672e+06 -378250
90 3 O -0.880061 81.5084 0.438205 -1.2 -8.65256 -3.41723e+06 -4.58389e+06 -3.96897e+06 -145493 383351 -235184
91 1 Mg -1.95431 90.47 2.99332 1.2 -9.34068 1.60256e+06 2.4172e+06 37769.8 -2.0505e+06 2.15955e+06 2.38974e+06
92 3 O -0.881528 81.5418 2.91826 -1.2 -8.64682 -4.54159e+06 -1.31119e+06 -1.50064e+06 128849 43099.3 2.34458e+06
93 1 Mg -2.1919 87.6181 4.5316 1.2 -9.80233 3.8843e+06 -1.47238e+06 1.60316e+06 1.20663e+06 94239.2 612917
94 2 Si 0.57352 89.5048 4.42887 2.4 -36.9106 6.15076e+06 1.039e+07 6.53267e+06 2.26426e+06 -1.29154e+06 -909156
95 3 O -0.880675 89.4631 4.56333 -1.2 -7.69996 -1.00895e+07 -5.00758e+06 -4.86321e+06 134285 -12859.6 1.89654e+06
96 3 O 1.58891 85.9038 4.61623 -1.2 -8.10602 -4.60681e+06 -3.61855e+06 -4.62078e+06 -2.06106e+06 1.44509e+06 -47747.9
97 3 O 1.20883 89.1233 3.04845 -1.2 -7.55503 -4.31926e+06 -4.47424e+06 -5.09112e+06 287519 142358 -872017
98 3 O 1.24137 88.7958 5.59918 -1.2 -7.24592 -9.71941e+06 -5.82788e+06 -3.51231e+06 1.03342e+06 -787123 2.58044e+06
99 1 Mg 0.195951 84.9008 3.07837 1.2 -8.46484 -963572 3.71662e+06 -1.75808e+06 605114 -85841.6 2.72034e+06
100 1 Mg 0.0011716 82.2927 4.71167 1.2 -8.2643 2.86476e+06 1.87577e+06 485101 -795426 1.05465e+06 875309
101 2 Si 2.34864 84.449 4.59571 2.4 -33.8647 4.45968e+06 1.43287e+07 8.39038e+06 952499 907284 -222327
102 3 O -0.87142 84.4015 4.54226 -1.2 -9.38685 -5.16354e+06 -5.0515e+06 -5.83142e+06 -1.30394e+06 910257 935503
103 3 O 1.28818 80.2531 4.49226 -1.2 -8.04951 -3.51724e+06 -1.65206e+06 -3.24639e+06 2.16335e+06 561234 1.97438e+06
104 3 O 1.58775 83.627 3.30307 -1.2 -8.21634 -2.74565e+06 -3.00152e+06 -1.13395e+06 1.90638e+06 1.11642e+06 2.15347e+06
105 1 Mg -0.127664 85.3274 0.0777623 1.2 -9.07725 -16448.4 3.16067e+06 -904061 433586 2.3402e+06 -727874
106 3 O 1.74986 83.6689 5.84597 -1.2 -8.7396 -3.67494e+06 -3.60754e+06 -3.09501e+06 -508073 -822822 197158
107 1 Mg 0.191502 88.0897 1.58461 1.2 -9.54321 4.11932e+06 747874 2.47291e+06 -1890.55 -49388.5 129300
108 2 Si -2.03942 86.1856 1.56543 2.4 -35.5335 8.02558e+06 1.23848e+07 8.26788e+06 737931 991467 1.66723e+06
109 3 O 1.21455 86.1057 1.67247 -1.2 -8.49075 -5.80619e+06 -3.04965e+06 -3.72116e+06 595077 -495046 -712415
110 3 O -0.839562 89.8923 1.41175 -1.2 -7.9043 -6.4227e+06 -2.04625e+06 -4.25322e+06 2.0873e+06 -1.30835e+06 -1.40414e+06
111 3 O -1.28937 87.1084 0.489662 -1.2 -7.85317 -3.89185e+06 -4.04922e+06 -4.04478e+06 1.31508e+06 -566364 -105381
112 3 O -1.34591 86.7066 2.94492 -1.2 -7.49614 -5.38791e+06 -1.40817e+06 -4.82192e+06 -338616 1.36829e+06 -207690
113 1 Mg -2.33992 90.1643 0.125328 1.2 -9.23423 -522411 2.19535e+06 907904 -2.19919e+06 -1.7298e+06 -1.45615e+06
114 1 Mg 2.62488 93.5253 1.23694 1.2 -9.10192 2.40324e+06 -959815 2.16958e+06 1.0051e+06 -26283.7 -1.15389e+06
115 2 Si -0.160108 91.4388 1.43591 2.4 -35.0817 1.42659e+07 9.15201e+06 1.09958e+07 -660721 1.13917e+06 2.07145e+06
116 3 O 1.43439 91.3655 1.45755 -1.2 -7.86821 -1.43322e+06 -3.29905e+06 -4.84478e+06 -1.27499e+06 1.42114e+06 349658
117 3 O -1.07058 95.1201 1.45058 -1.2 -8.75643 -3.65626e+06 -5.89702e+06 -2.72338e+06 -1.91336e+06 -1.02692e+06 37076.6
118 3 O -0.967715 92.2337 0.309535 -1.2 -8.31586 -5.77676e+06 -3.01094e+06 -4.01462e+06 -538493 2.26485e+06 104648
119 1 Mg -2.27356 101.059 2.94977 1.2 -7.90741 -2.10955e+06 4.08814e+06 -2.67106e+06 -1.73357e+06 2.65471e+06 1.72057e+06
120 3 O -0.818455 92.0278 2.96153 -1.2 -7.25693 -6.72194e+06 -1.75184e+06 -608381 -835853 -2.01594e+06 291896
121 1 Mg -2.01754 97.968 4.45821 1.2 -8.81837 2.12193e+06 2.04367e+06 -2.01329e+06 870936 -1.25295e+06 243734
122 2 Si 0.428628 99.859 4.20048 2.4 -34.3856 6.66679e+06 1.43444e+07 2.53081e+06 -1.12145e+06 -1.28472e+06 189834
123 3 O -1.12113 99.9675 4.37797 -1.2 -8.89612 -3.85889e+06 -6.39979e+06 -2.58264e+06 -1.33562e+06 -567616 -8134.67
124 3 O 1.65236 96.1544 4.38366 -1.2 -8.4466 -4.33415e+06 -1.047e+07 -2.40923e+06 66194.6 -236211 255245
125 3 O 1.12919 99.4669 2.89581 -1.2 -8.77019 -2.69849e+06 -5.53923e+06 -4.96924e+06 694794 -636464 -231028
126 3 O 1.15924 98.99 5.32505 -1.2 -8.48545 -5.31439e+06 -7.06506e+06 -2.07223e+06 -457512 1.30662e+06 1.89797e+06
127 1 Mg 0.348164 95.5936 2.83807 1.2 -8.19184 -2.68777e+06 3.89933e+06 -454037 1.29971e+06 -2.38712e+06 1.63288e+06
128 1 Mg 0.247533 92.9247 4.42138 1.2 -10.2737 4.72587e+06 -954169 1.5704e+06 -2.08717e+06 -222498 295532
129 2 Si 2.22885 94.7691 4.274 2.4 -35.2049 9.73361e+06 1.04664e+07 5.50326e+06 599650 -946718 1.07443e+06
130 3 O -0.934968 94.7013 4.42648 -1.2 -8.16146 -3.53747e+06 -5.06743e+06 -2.41528e+06 924312 1.1348e+06 -571282
131 3 O 1.23594 91.046 4.54768 -1.2 -6.64297 -4.75354e+06 -4.12487e+06 -5.26523e+06 376352 -1.01578e+06 -790393
132 3 O 1.47171 94.0338 3.12724 -1.2 -8.29701 -5.09391e+06 -5.24403e+06 -3.20812e+06 1.18623e+06 94574.2 -847770
133 1 Mg 0.219287 95.8096 -0.213041 1.2 -8.05209 57515.5 3.78897e+06 -1.19288e+06 1.31524e+06 1.44765e+06 -2.5258e+06
134 3 O 1.51025 94.124 5.69892 -1.2 -7.21348 -5.81022e+06 -5.80093e+06 1.26768e+06 362204 -1.45683e+06 25156.6
135 1 Mg 0.136383 98.6462 1.22323 1.2 -7.79965 1.53142e+06 2.2565e+06 1.75703e+06 -1.21173e+06 58795 482772
136 2 Si -1.78478 96.6154 1.44458 2.4 -33.227 7.6592e+06 1.04952e+07 7.29999e+06 -796397 1.48237e+06 360566
137 3 O 1.38549 96.4636 1.33328 -1.2 -9.33515 -1.74476e+06 -4.30214e+06 -2.85539e+06 -202476 875704 464862
138 3 O -0.859118 100.586 1.44885 -1.2 -9.62297 -2.10312e+06 -4.84931e+06 -2.41772e+06 596310 -39303 2.75869e+06
139 3 O -1.09362 97.2963 0.178802 -1.2 -9.35815 -3.87787e+06 -3.49628e+06 -2.46964e+06 1.15644e+06 -1.32444e+06 1.52362e+06
140 3 O -1.10991 97.3082 2.70783 -1.2 -9.07921 -2.06524e+06 -3.18884e+06 -1.88262e+06 439694 1.01484e+06 -488193
141 1 Mg -2.34221 100.893 0.0858438 1.2 -7.37929 -877364 5.0298e+06 -515597 -1.16911e+06 -1.17016e+06 -713941
142 1 Mg 7.16908 103.801 1.3497 1.2 -8.22791 1.39234e+06 650544 3.54427e+06 714929 261740 -1.11409e+06
143 2 Si -0.253438 102.054 1.73115 2.4 -33.081 5.65891e+06 1.04201e+07 9.97751e+06 2794.4 46659 -873634
144 3 O 1.32691 102.116 1.54478 -1.2 -9.44138 -1.15926e+06 -4.06852e+06 -4.75398e+06 -716728 -1.75162e+06 1.01967e+06
145 3 O 3.70286 105.749 1.39051 -1.2 -8.34057 -5.19154e+06 -1.92475e+06 -3.82984e+06 -1.24682e+06 -364076 2.48127e+06
146 3 O -0.901156 102.791 0.377272 -1.2 -8.95825 -4.75031e+06 -3.85929e+06 -324674 74909.7 1.53841e+06 788344
147 1 Mg 2.64762 111.713 2.93926 1.2 -7.58198 -159525 4.12128e+06 432327 -1.6553e+06 1.88471e+06 1.76966e+06
148 3 O -1.01636 102.628 2.98732 -1.2 -8.95047 -3.93141e+06 -3.36914e+06 -3.22881e+06 -408461 -888407 1.47065e+06
149 1 Mg 2.7965 108.462 4.14319 1.2 -7.3877 1.74019e+06 2.12108e+06 3.6437e+06 1.95914e+06 598274 -1.68545e+06
150 2 Si 5.6067 110.44 4.51031 2.4 -32.9196 6.91274e+06 7.33689e+06 7.20659e+06 -1.12998e+06 -396862 -1.21587e+06
151 3 O 3.99386 110.531 4.31788 -1.2 -8.81617 158305 -2.34743e+06 -3.1877e+06 -1.17408e+06 36976 -90880.7
152 3 O 6.1083 106.812 4.26065 -1.2 -9.12512 -1.67788e+06 -5.37068e+06 -4.43308e+06 781059 -494752 1.04289e+06
153 3 O 6.22093 109.834 3.14114 -1.2 -9.3225 -3.90907e+06 -2.41895e+06 1.09391e+06 342307 830646 -1.47108e+06
154 3 O 5.99183 109.84 5.92567 -1.2 -9.27756 -5.75874e+06 -5.04592e+06 -1.32499e+06 366082 90026.7 1.21492e+06
155 1 Mg 4.75969 106.374 2.8316 1.2 -7.98922 -2.26357e+06 2.63459e+06 -37551.4 909532 -2.70295e+06 -406065
156 1 Mg 0.0481649 103.555 4.48998 1.2 -8.72716 2.92187e+06 1.76432e+06 1.56983e+06 -1.0503e+06 172580 -700017
157 2 Si 6.78112 105.382 4.22281 2.4 -34.1099 4.35181e+06 7.24886e+06 9.50151e+06 -991367 -628326 -1.05515e+06
158 3 O 3.52989 105.548 4.16461 -1.2 -9.20424 -6.07858e+06 -1.95839e+06 -4.08137e+06 194249 1.99604e+06 -191454
159 3 O 1.00393 101.362 4.3768 -1.2 -8.21802 -5.26794e+06 -5.64411e+06 -1.51041e+06 468056 323056 -1.12301e+06
160 3 O 6.00566 104.565 3.1722 -1.2 -8.61572 -3.66952e+06 -5.01822e+06 -5.94155e+06 673595 -753229 -830390
161 1 Mg 4.46636 105.736 -0.415655 1.2 -8.19629 741912 2.08848e+06 262171 1.75917e+06 2.27984e+06 -3.1087e+06
162 3 O 6.19912 104.751 5.61921 -1.2 -8.13496 -2.30592e+06 -4.02147e+06 -4.34627e+06 305422 -1.00557e+06 -791970
163 1 Mg 5.10738 109.273 1.30248 1.2 -8.26325 1.50364e+06 1.62695e+06 1.05258e+06 -1.49804e+06 655213 1.37024e+06
164 2 Si 2.93805 107.306 1.11655 2.4 -33.7762 1.02082e+07 8.4807e+06 3.66774e+06 -485528 -2.27252e+06 -3.69958e+06
165 3 O 6.15597 107.012 1.20955 -1.2 -8.47819 -2.89117e+06 -2.43847e+06 -1.54715e+06 86776.3 -850726 1.0252e+06
166 3 O 4.08389 111.068 1.08892 -1.2 -8.99917 -2.37368e+06 -6.49676e+06 -1.73599e+06 83753.4 469692 -356756
167 3 O 3.60452 107.535 -0.390841 -1.2 -8.32094 -4.42507e+06 -1.92878e+06 -2.895e+06 524439 -1.65091e+06 710800
168 3 O 3.59894 108.194 2.02288 -1.2 -9.33983 -4.21143e+06 -7.47335e+06 -3.44822e+06 -142720 -417474 -3.77078e+06
169 1 Mg 2.53801 111.767 -0.339017 1.2 -7.41993 -151920 5.21905e+06 -668224 -942620 -750705 -1.21573e+06
170 1 Mg 7.22708 114.453 1.42937 1.2 -8.26489 2.67505e+06 1.37975e+06 2.29431e+06 86073.2 26632.7 -310162
171 2 Si 4.63733 112.516 1.25088 2.4 -33.0461 6.21194e+06 1.18279e+07 4.01949e+06 -252833 1.39595e+06 -1.20617e+06
172 3 O 6.2986 112.501 1.30468 -1.2 -9.63932 -839623 -4.30135e+06 -493879 -330686 667571 -38274.9
173 3 O 3.51736 116.393 1.55612 -1.2 -9.15794 -3.4972e+06 -4.4347e+06 -3.56556e+06 -559001 -924421 -1.13346e+06
174 3 O 3.92648 113.327 0.00999684 -1.2 -9.13574 -1.9121e+06 -4.28488e+06 -3.66531e+06 -661962 2.31044e+06 1.26888e+06
175 1 Mg 2.19013 121.989 2.88208 1.2 -7.69377 -439514 3.86014e+06 -801963 -818769 846568 2.05631e+06
176 3 O 4.00434 113.145 2.46485 -1.2 -9.43754 -3.6627e+06 -5.43283e+06 -4.78368e+06 -566996 -393189 -1.26923e+06
177 1 Mg 2.17832 119.16 4.22556 1.2 -7.95506 1.52257e+06 1.70129e+06 3.4808e+06 1.11167e+06 436802 -181212
178 2 Si 4.94842 121.072 4.42785 2.4 -33.0961 6.25008e+06 1.07853e+07 8.97134e+06 -716623 1.51148e+06 -590578
179 3 O 3.36496 121.187 4.31506 -1.2 -9.29875 -715105 -4.50989e+06 -3.38245e+06 -1.37489e+06 1.12211e+06 219545
180 3 O 6.10843 117.227 4.40976 -1.2 -9.66731 -2.60203e+06 -4.5781e+06 -2.70431e+06 -1.54203e+06 -95153.3 -1.55352e+06
181 3 O 5.5761 120.482 3.10113 -1.2 -9.30744 -4.48134e+06 -4.21839e+06 -1.01885e+06 26397.8 -963824 -1.90502e+06
182 3 O 5.70979 120.399 5.76162 -1.2 -9.10378 -3.24629e+06 -2.30821e+06 1.01874e+06 594928 2.20376e+06 -276495
183 1 Mg 4.54982 117.038 3.00279 1.2 -7.71316 -1.64754e+06 3.19702e+06 -2.42916e+06 474099 -2.78117e+06 800278
184 1 Mg 4.83938 113.847 4.23447 1.2 -8.41818 1.83951e+06 1.60017e+06 2.90684e+06 -1.52119e+06 -470936 -790496
185 2 Si 6.78011 115.789 4.32749 2.4 -33.3995 7.79588e+06 1.00934e+07 7.21538e+06 383053 762449 -2.39725e+06
186 3 O 3.63691 115.87 4.32189 -1.2 -9.22468 -1.43936e+06 -3.44288e+06 -4.15792e+06 213872 542858 1.33228e+06
187 3 O 6.11079 111.875 4.54557 -1.2 -9.33559 -4.0484e+06 -7.95426e+06 -3.4109e+06 -1.79504e+06 -860304 -1.406e+06
188 3 O 6.12576 115.116 3.05032 -1.2 -8.76978 -3.27321e+06 -2.54363e+06 -4.34176e+06 -165978 547825 296314
189 1 Mg 4.89846 116.813 -0.0370923 1.2 -7.75113 -1.47166e+06 4.4311e+06 1.11031e+06 916608 1.62934e+06 -1.88237e+06
190 3 O 6.09616 114.849 5.4985 -1.2 -8.51728 -4.5971e+06 -1.78657e+06 -1.75561e+06 563438 -812889 87727.8
191 1 Mg 4.69338 119.94 1.11624 1.2 -7.92332 2.55838e+06 901398 1.88553e+06 -1.25251e+06 755884 1.26409e+06
192 2 Si 2.78863 117.831 1.31909 2.4 -33.0999 4.61347e+06 1.11281e+07 7.11381e+06 -537677 -498650 -1.44836e+06
193 3 O 6.01652 117.789 1.34333 -1.2 -9.34047 -2.83223e+06 -4.3676e+06 -2.4772e+06 -800375 -810984 403576
194 3 O 3.75843 121.737 1.43605 -1.2 -9.30396 -889023 -5.61783e+06 -3.73534e+06 739843 -536765 1.81468e+06
195 3 O 3.44565 118.503 -0.00975635 -1.2 -9.12167 -2.40474e+06 -2.24708e+06 -521027 1.06529e+06 -71793.1 -685001
196 3 O 3.34586 118.571 2.61267 -1.2 -9.18901 -3.40886e+06 -5.87887e+06 -914558 -220307 -570706 -1.25786e+06
197 1 Mg 2.29906 122.38 -0.0239062 1.2 -7.85108 -6226.03 4.70405e+06 -1.49549e+06 -1.24439e+06 -1.50222e+06 -1.06597e+06
198 1 Mg 6.97488 125.099 1.75531 1.2 -8.6283 1.51012e+06 3959.06 3.30027e+06 598557 762155 -710673
199 2 Si 4.37569 123.201 1.57875 2.4 -33.6007 7.00411e+06 8.93661e+06 9.64309e+06 784171 -1.54615e+06 -509104
200 3 O 6.0361 123.284 1.47013 -1.2 -9.30595 -1.32173e+06 -2.46031e+06 -4.87219e+06 283913 -2.02106e+06 479085
201 3 O 3.2318 126.878 1.52571 -1.2 -8.61151 -1.92942e+06 -1.45714e+06 -2.98136e+06 -938663 -178133 -2.06446e+06
202 3 O 3.90103 123.854 0.254452 -1.2 -8.2793 -5.30568e+06 -4.70444e+06 -1.96609e+06 763748 393841 1.08417e+06
203 1 Mg 2.49664 132.805 3.16124 1.2 -6.91609 -1.88455e+06 4.1965e+06 -698599 -401339 -1.17827e+06 3.11496e+06
204 3 O 3.6914 123.844 2.89418 -1.2 -8.81634 -2.98904e+06 -2.8383e+06 -3.65967e+06 353800 -1.89367e+06 145538
205 1 Mg 2.40905 129.609 4.71472 1.2 -8.19407 1.74359e+06 194067 3.74964e+06 1.09969e+06 -231719 325245
206 2 Si 5.00534 131.37 4.58155 2.4 -32.4929 2.35704e+06 1.20798e+07 7.27034e+06 406070 17595.9 1.56022e+06
207 3 O 3.49493 131.669 4.68678 -1.2 -10.1185 -1.97789e+06 -3.5159e+06 -1.62493e+06 -912497 -4349.81 -696227
208 3 O 6.13343 127.804 4.98953 -1.2 -8.30848 -1.21485e+06 -4.7253e+06 -3.36673e+06 -2.79423e+06 369469 708681
209 3 O 5.62146 130.71 3.37043 -1.2 -8.9902 -2.05546e+06 -3.33422e+06 -5.49453e+06 239167 -575033 -936069
210 3 O 5.6463 130.704 5.85224 -1.2 -9.25212 -2.60849e+06 -4.23282e+06 -3.06507e+06 141132 -840968 -374578
211 1 Mg 4.67977 127.242 3.18165 1.2 -7.85062 -100206 3.05511e+06 1.38062e+06 986186 245373 1.76361e+06
212 1 Mg 4.77881 124.399 4.42973 1.2 -8.6959 1.2646e+06 342547 1.38624e+06 242075 -631007 719822
213 2 Si 6.93024 126.243 4.76558 2.4 -33.6961 7.62631e+06 9.37524e+06 8.42867e+06 -2.28426e+06 -712531 2.92569e+06
214 3 O 3.70393 126.326 4.6187 -1.2 -9.53218 -5.19035e+06 -3.53237e+06 -4.71007e+06 177759 -1.16002e+06 -237787
215 3 O 5.52448 122.58 4.38281 -1.2 -9.06469 -5.63599e+06 -5.74313e+06 -2.03428e+06 1.44987e+06 310489 -831754
216 3 O 6.17492 125.672 3.42154 -1.2 -9.00549 -3.43311e+06 -1.78015e+06 -4.44351e+06 870036 3.00664e+06 -1.31482e+06
217 1 Mg 4.83174 127.376 -0.103218 1.2 -7.97978 458820 4.47053e+06 -479223 1.00002e+06 1.40677e+06 -377864
218 3 O 6.14528 125.62 5.92782 -1.2 -8.3195 -3.55314e+06 -6.1382e+06 -4.06695e+06 1.05657e+06 -853035 980999
219 1 Mg 4.90802 130.341 1.36764 1.2 -8.57381 185104 -369077 2.11862e+06 -443525 263359 540923
220 2 Si 2.74152 128.475 1.65397 2.4 -33.5511 9.94496e+06 1.08883e+07 9.37325e+06 32048.8 210900 1.16266e+06
221 3 O 5.87345 128.453 1.56581 -1.2 -9.01144 -587727 -2.7804e+06 -2.36116e+06 2.13199e+06 806442 -843836
222 3 O 4.14125 132.088 1.64604 -1.2 -9.2403 -3.60282e+06 -4.65163e+06 -1.36847e+06 2.51383e+06 -435067 -103015
223 3 O 3.48218 129.259 0.406473 -1.2 -9.00453 -4.33593e+06 -2.2458e+06 1.01544e+06 1.03163e+06 -2.07404e+06 -360516
224 3 O 3.43191 128.846 3.07738 -1.2 -9.12425 -3.32018e+06 -2.72077e+06 -377882 -878647 1.54148e+06 -1.09528e+06
225 1 Mg 2.59705 132.586 0.0421424 1.2 -7.41714 -1.28539e+06 3.31072e+06 393462 -77183 -1.09826e+06 -835507
226 1 Mg 7.24597 135.532 1.46175 1.2 -7.07863 -1.10447e+06 2.92505e+06 1.21501e+06 600203 584782 1.00662e+06
227 2 Si 4.70808 133.633 1.77715 2.4 -31.5498 5.29454e+06 1.27291e+07 5.76067e+06 -1.16857e+06 645998 3.21994e+06
228 3 O 6.36005 133.378 1.61074 -1.2 -10.182 -575880 -4.87083e+06 -2.9019e+06 -2.39608e+06 -1.01835e+06 -1.40197e+06
229 3 O 3.57435 137.76 1.67541 -1.2 -10.0258 -1.72945e+06 -4.67643e+06 -659424 26842.5 117869 561777
230 3 O 3.96312 134.445 0.58114 -1.2 -10.1824 260214 -1.99438e+06 -3.91728e+06 -615383 1.64926e+06 -1.04985e+06
231 1 Mg 2.70936 142.615 3.16733 1.2 -7.213 -1.35814e+06 4.06414e+06 -119634 -1.72313e+06 659607 1.13658e+06
232 3 O 3.98119 134.268 2.95848 -1.2 -9.70355 -2.02993e+06 -5.27715e+06 -6.29408e+06 327359 -2.65614e+06 -1.57779e+06
233 1 Mg 2.6158 140.225 4.71381 1.2 -7.76763 1.21442e+06 1.47368e+06 1.20998e+06 1.29673e+06 -681456 1.13845e+06
234 2 Si 5.26834 142.264 4.79321 2.4 -33.2379 2.70706e+06 1.34867e+07 5.67104e+06 -1.32452e+06 -1.57093e+06 -2.78509e+06
235 3 O 3.75625 142.375 4.88339 -1.2 -9.3529 -4.19051e+06 -7.15591e+06 -3.11355e+06 -1.09776e+06 537339 1.45931e+06
236 3 O 6.32259 138.096 4.67786 -1.2 -9.63293 -3.91604e+06 -7.71094e+06 -2.224e+06 119394 912565 -158550
237 3 O 5.94888 141.394 3.58768 -1.2 -9.49809 -1.79995e+06 -4.62504e+06 -3.08412e+06 472105 806842 151549
238 3 O 5.90716 141.561 6.04724 -1.2 -8.88795 -4.72706e+06 -2.35878e+06 -2.69512e+06 699241 -1.02593e+06 214148
239 1 Mg 5.10306 137.869 3.03716 1.2 -6.81983 -772318 4.20113e+06 461682 1.43163e+06 -1.66848e+06 729772
240 1 Mg 4.65085 134.68 4.76333 1.2 -7.84224 -203512 19947.9 920784 787801 -467531 96280.6
241 2 Si 6.99294 136.768 4.50159 2.4 -32.2879 5.61303e+06 1.04814e+07 7.29349e+06 4.1447e+06 -2.02876e+06 1.85957e+06
242 3 O 3.78952 136.962 4.46925 -1.2 -9.74553 -3.00404e+06 -3.30086e+06 -2.99895e+06 2.02901e+06 -1.54877e+06 -1.81309e+06
243 3 O 5.61746 133.08 4.68538 -1.2 -9.32301 -1.55366e+06 -4.2143e+06 -486030 1.35065e+06 -1.05711e+06 -1.12331e+06
244 3 O 6.39402 135.986 3.18901 -1.2 -9.53502 -2.64402e+06 -2.32209e+06 -1.02685e+06 -540864 1.97746e+06 -211671
245 1 Mg 4.94851 137.949 -0.00414597 1.2 -6.49447 -2.76036e+06 3.65305e+06 -916527 316123 -512040 -1.46493e+06
246 3 O 6.02028 135.912 5.72287 -1.2 -8.68251 -513487 -6.5831e+06 -688703 2.21928e+06 -1.52333e+06 -361796
247 1 Mg 4.98228 141.048 1.69276 1.2 -7.66808 454374 1.92872e+06 2.07192e+06 -1.47774e+06 -45782.4 -129458
248 2 Si 2.97495 139.239 1.51403 2.4 -32.2508 4.36021e+06 9.33512e+06 5.60583e+06 355992 -953048 -2.10359e+06
249 3 O 6.17554 138.992 1.46349 -1.2 -9.71797 -2.12427e+06 -3.29474e+06 -2.83951e+06 1.61883e+06 -2.60473e+06 -318837
250 3 O 4.0466 142.953 1.70738 -1.2 -9.47601 -1.72693e+06 -1.89969e+06 -1.60795e+06 533711 508689 -1.0438e+06
251 3 O 3.87466 139.9 0.297994 -1.2 -9.78702 -1.8388e+06 -2.02769e+06 -2.43542e+06 1.005e+06 -884815 -215278
252 3 O 3.31829 140.095 2.69695 -1.2 -9.51164 -4.03797e+06 -3.70421e+06 -3.944e+06 -8280.29 -113625 -1.64324e+06
253 1 Mg 2.51907 143.773 0.201385 1.2 -7.58971 -712687 3.01821e+06 549864 -2.13005e+06 -2.10543e+06 235201
254 1 Mg 6.98873 146.348 2.31646 1.2 -9.34772 1.22609e+06 689323 1.17564e+06 708323 931361 -1.1998e+06
255 2 Si 4.51775 144.569 1.81895 2.4 -34.1251 1.0704e+07 9.02316e+06 7.21544e+06 -251542 -69753.3 355423
256 3 O 6.18525 144.632 1.7559 -1.2 -8.42061 -1.08351e+06 -3.80652e+06 -4.66843e+06 -915604 -1.46831e+06 481172
257 3 O 3.3318 148.385 2.28145 -1.2 -7.9684 -6.80795e+06 -3.48284e+06 -2.21756e+06 -488427 -1.4728e+06 -1.37024e+06
258 3 O 3.96284 145.185 0.452418 -1.2 -8.88847 -5.46319e+06 -3.1519e+06 -2.75566e+06 921259 1.40596e+06 -774724
259 1 Mg 2.11604 153.787 2.35704 1.2 -7.25259 2.78662e+06 775692 344471 528604 -1.63117e+06 795393
260 3 O 3.82972 145.217 2.99042 -1.2 -8.39787 -6.3789e+06 -1.98835e+06 -4.75575e+06 -22039.2 -634107 -517951
261 1 Mg 1.9427 151.504 5.67856 1.2 -8.19461 1.35714e+06 7.13469e+06 -1.07457e+06 -162266 759451 1.18668e+06
262 2 Si 4.02421 152.242 3.8877 2.4 -33.4248 1.1541e+07 1.3261e+07 6.60695e+06 -72268 928723 -1.12729e+06
263 3 O 2.51701 152.881 4.08875 -1.2 -8.35659 -1.92603e+06 -1.16617e+06 -3.34902e+06 -977740 -332294 -2.97107e+06
264 3 O 6.13483 149.137 5.15504 -1.2 -8.18713 -5.07153e+06 -2.97854e+06 -919931 -315128 -243861 84674.6
265 3 O 4.70081 153.15 2.62709 -1.2 -8.74931 -2.42946e+06 436788 179545 1.72552e+06 -1.54742e+06 -1.65524e+06
266 3 O 4.73635 151.993 5.26115 -1.2 -8.76226 -2.82466e+06 -6.69129e+06 1.34191e+06 -1.86649e+06 1.78235e+06 -525407
267 1 Mg 4.80078 148.725 3.52433 1.2 -8.7806 1.61898e+06 2.94103e+06 -651690 1.21254e+06 -1.86247e+06 1.54998e+06
268 1 Mg 4.83644 145.47 4.73178 1.2 -9.17529 3.46478e+06 -383008 151277 -625373 -131516 -104853