ITEM: TIMESTEP
74300
ITEM: NUMBER OF ATOMS
5600
ITEM: BOX BOUNDS xy xz yz pp pp pp
0.0000000000000000e+00 7.1234999999999999e+00 0.0000000000000000e+00
0.0000000000000000e+00 2.0198500000000001e+02 2.3744999999999998e+00
0.0000000000000000e+00 1.1958400000000000e+02 0.0000000000000000e+00
ITEM: ATOMS id type element xu yu zu q c_pe c_s[1] c_s[2] c_s[3] c_s[4] c_s[5] c_s[6]
1 1 Mg -1.59634 48.2004 -0.464207 1.2 -7.37672 -2.25065e+06 16299.9 1.55679e+06 -706113 292880 -306521
2 1 Mg 3.10242 49.079 2.84961 1.2 -6.79344 -5.89655e+06 2.3148e+06 -467027 -380283 2.30038e+06 -1.02326e+06
3 2 Si 0.806631 49.8827 0.548783 2.4 -32.79 9.66823e+06 9.59103e+06 5.57108e+06 606222 699504 1.29425e+06
4 3 O 2.0026 49.0135 1.02557 -1.2 -9.32192 -5.61472e+06 -2.91858e+06 -975376 -1.71113e+06 -364440 194384
5 3 O -1.39466 52.9499 1.73328 -1.2 -8.4588 -3.97351e+06 -6.38776e+06 -3.275e+06 -1.52268e+06 759140 3.4956e+06
6 3 O 0.0159549 49.0419 -0.65387 -1.2 -8.61247 -6.67285e+06 -3.39344e+06 -3.38468e+06 239277 -390910 338334
7 1 Mg -2.40602 58.3301 3.31218 1.2 -6.47787 -1.65512e+06 3.27973e+06 905665 -1.48538e+06 1.7867e+06 2.08831e+06
8 3 O -0.189602 49.6915 1.81796 -1.2 -9.31508 -7.14115e+06 -3.5015e+06 -1.78235e+06 1.58138e+06 -1.64222e+06 -1.42166e+06
9 1 Mg -2.04303 55.6911 4.61373 1.2 -6.45562 -2.49636e+06 186725 102537 345644 -314278 209819
10 2 Si 0.426534 57.3848 4.74643 2.4 -30.2291 -530724 1.20971e+07 1.00233e+07 -38028 1.42864e+06 -32432.9
11 3 O -1.182 57.4151 4.823 -1.2 -11.0883 449745 -6.63389e+06 -3.89684e+06 -1.26118e+06 1.55496e+06 344748
12 3 O 1.56864 53.2748 4.18686 -1.2 -9.53703 -3.20372e+06 -1.84622e+06 -5.05388e+06 -1.69822e+06 -516276 1.34409e+06
13 3 O 0.952211 56.8167 3.32859 -1.2 -10.6018 -208280 -2.62641e+06 -334944 120937 -394084 738607
14 3 O 1.21211 56.7813 6.00613 -1.2 -10.506 -317905 -6.05198e+06 1.07283e+06 -470283 1.27944e+06 1.19259e+06
15 1 Mg -0.00923032 53.6175 3.1473 1.2 -7.02463 -1.71603e+06 1.92826e+06 -144375 837635 -999386 252744
16 1 Mg 0.887241 49.2915 3.30484 1.2 -6.50682 -4.10576e+06 1.92995e+06 -1.51828e+06 -1.73811e+06 -1.35776e+06 -2.28908e+06
17 2 Si 2.39013 51.8659 4.3864 2.4 -32.4966 5.71338e+06 5.97194e+06 1.04231e+07 -1.3127e+06 140143 -1.21907e+06
18 3 O -0.873127 52.2419 4.62154 -1.2 -9.66987 -4.38438e+06 -2.87006e+06 -5.9346e+06 700962 -1.03184e+06 -1.37167e+06
19 3 O 2.28264 48.0737 4.09084 -1.2 -7.91419 -897050 -2.87734e+06 -6.45584e+06 -1.80201e+06 -781678 1.66447e+06
20 3 O 1.99907 50.7984 3.36595 -1.2 -9.59191 -2.97034e+06 -5.56437e+06 -5.2831e+06 -1.04973e+06 1.19934e+06 911145
21 1 Mg -0.171416 53.1836 0.281173 1.2 -7.90751 -214774 2.65803e+06 -1.9643e+06 1.98473e+06 1.72949e+06 -4.08663e+06
22 3 O 1.59811 51.3334 5.74783 -1.2 -10.9752 -1.45571e+06 -4.87127e+06 -7.12832e+06 1.10027e+06 -1.35131e+06 1.43652e+06
23 1 Mg -0.111991 56.0441 1.52742 1.2 -7.51076 -747390 1.29792e+06 2.2622e+06 -1.06453e+06 638737 676478
24 2 Si -2.1613 54.3743 1.63633 2.4 -32.2532 1.74575e+06 1.23739e+07 9.28605e+06 24527.9 -614165 -4.06401e+06
25 3 O 1.11575 54.0645 1.54042 -1.2 -9.85541 -5.08182e+06 -3.93248e+06 -4.25631e+06 1.47179e+06 -710935 3.37278e+06
26 3 O -0.894782 57.9202 1.40603 -1.2 -9.44725 -2.45443e+06 -8.23335e+06 -2.93099e+06 -291545 -431422 422899
27 3 O -1.35143 54.7818 0.189261 -1.2 -8.72153 -3.41415e+06 -6.96278e+06 376656 764833 -859975 4.59278e+06
28 3 O -1.38171 55.1685 2.80119 -1.2 -10.517 -295642 -6.4825e+06 -2.41102e+06 -621497 1.84838e+06 234992
29 1 Mg -2.49371 58.4972 0.144252 1.2 -7.70528 -1.5915e+06 4.32861e+06 -2.70071e+06 -134800 -2.7387e+06 -1.12986e+06
30 1 Mg 2.40368 61.2723 1.76526 1.2 -7.62694 960149 1.3284e+06 2.40482e+06 977648 -601023 518245
31 2 Si -0.35788 59.3183 1.65375 2.4 -32.736 3.40827e+06 7.20095e+06 9.55318e+06 -188393 603894 1.60366e+06
32 3 O 1.20963 59.3339 1.68288 -1.2 -9.69618 -1.6113e+06 -3.8409e+06 -4.1523e+06 -1.08317e+06 -27515.6 -1.77778e+06
33 3 O -1.48613 63.4635 2.02571 -1.2 -9.86268 -2.45422e+06 -4.02644e+06 -1.82569e+06 -1.12177e+06 -79845.4 -1.21594e+06
34 3 O -0.980365 60.0653 0.352286 -1.2 -9.14398 -2.58164e+06 -4.66237e+06 -1.87629e+06 272201 470159 1.0646e+06
35 1 Mg -2.45298 68.977 3.16869 1.2 -7.10604 -2.82822e+06 4.95693e+06 1.32468e+06 -195579 628006 2.24914e+06
36 3 O -0.996495 59.8325 3.02049 -1.2 -9.91153 -2.87109e+06 -1.46123e+06 -2.65884e+06 258417 -514860 -1.97035e+06
37 1 Mg -2.70289 66.1035 4.57234 1.2 -7.65093 -889488 1.34915e+06 737986 1.11062e+06 1.23928e+06 -1.41407e+06
38 2 Si 0.126588 67.9783 4.56736 2.4 -32.0419 3.49696e+06 1.2637e+07 6.25164e+06 1.41592e+06 50837.4 2.13694e+06
39 3 O -1.32231 68.2592 4.6316 -1.2 -9.93529 -4.84374e+06 -6.20849e+06 -2.69709e+06 -373210 -713857 -857299
40 3 O 1.44302 64.0975 4.58708 -1.2 -9.59769 -3.23545e+06 -3.45298e+06 -2.92514e+06 -1.61762e+06 -1.37938e+06 519011
41 3 O 0.889083 67.3078 3.33027 -1.2 -9.67812 -2.45151e+06 -2.33029e+06 -3.32499e+06 173108 -984214 -597193
42 3 O 0.93963 67.3242 5.76935 -1.2 -9.37155 -1.80267e+06 -5.51953e+06 -2.59117e+06 346800 1.79994e+06 1.02973e+06
43 1 Mg -0.0599918 63.9427 3.36463 1.2 -7.08971 -2.61983e+06 3.7617e+06 -2.29673e+06 -274200 -1.20613e+06 1.55174e+06
44 1 Mg 0.0163699 60.7446 4.76609 1.2 -7.73358 -128856 653989 4.10731e+06 -960179 437867 1.04979e+06
45 2 Si 2.10092 62.5543 4.6916 2.4 -32.5635 2.6887e+06 9.0435e+06 9.82974e+06 736864 -515507 382490
46 3 O -1.18269 62.7758 4.81767 -1.2 -9.88685 -4.72202e+06 -2.68159e+06 -4.06904e+06 1.46096e+06 -621548 -32912.6
47 3 O 1.02681 58.917 4.86128 -1.2 -9.88744 -34905.6 -3.56014e+06 -4.999e+06 1.54383e+06 125411 956706
48 3 O 1.4512 61.7256 3.52391 -1.2 -9.59641 -948758 -3.08391e+06 -3.46443e+06 -390936 94530.4 -962256
49 1 Mg -0.0425087 64.2166 0.189488 1.2 -6.87708 -1.8263e+06 4.3225e+06 -231263 191403 294068 -985887
50 3 O 1.34854 62.0387 6.05029 -1.2 -9.1847 -1.9703e+06 -2.27302e+06 -2.08696e+06 -1.20349e+06 -375492 1.15394e+06
51 1 Mg -0.376948 66.8398 1.57626 1.2 -7.72434 1.436e+06 -265957 1.04042e+06 -319478 481614 -496903
52 2 Si -2.30866 64.7684 1.84536 2.4 -31.5865 2.86402e+06 1.2992e+07 7.68738e+06 465093 867597 1.21072e+06
53 3 O 0.898853 64.6623 1.84251 -1.2 -10.3858 -2.53637e+06 -6.39037e+06 -3.28336e+06 -1.68429e+06 996711 23313.8
54 3 O -1.07003 68.6586 1.58643 -1.2 -9.60635 -2.16986e+06 -4.99873e+06 -1.20194e+06 2.64108e+06 800724 969526
55 3 O -1.74809 65.6239 0.577993 -1.2 -9.93271 -1.01835e+06 -3.07913e+06 -3.75136e+06 112445 -1.12662e+06 -1.70707e+06
56 3 O -1.57641 65.7933 3.10427 -1.2 -9.03326 -2.56268e+06 -3.03063e+06 -2.66915e+06 1.58025e+06 1.80532e+06 658530
57 1 Mg -2.31997 69.522 0.0421774 1.2 -7.26808 -2.62005e+06 2.05993e+06 -2.76109e+06 -457779 307395 -2.45517e+06
58 1 Mg 2.29563 72.1856 1.93523 1.2 -7.6221 -465221 131685 709213 152227 -162660 1.24212e+06
59 2 Si -0.352251 70.2042 1.79243 2.4 -31.4973 6.48508e+06 1.26105e+07 6.4212e+06 -794804 -1.37002e+06 2.36858e+06
60 3 O 1.2403 70.0559 1.49119 -1.2 -9.94625 -355148 -4.47862e+06 -1.73094e+06 -594800 -756845 -463539
61 3 O -1.421 73.7919 1.81012 -1.2 -9.5526 -1.41164e+06 -6.5159e+06 -2.26446e+06 -3.91156e+06 1.20537e+06 -588045
62 3 O -1.08945 70.9009 0.543373 -1.2 -9.56038 -4.70929e+06 -7.65102e+06 -2.32729e+06 -280399 1.50241e+06 331902
63 1 Mg -2.41318 79.7534 3.29308 1.2 -7.00283 -1.39667e+06 4.87711e+06 -1.97425e+06 -925916 1.7831e+06 733786
64 3 O -1.02572 70.9136 3.0402 -1.2 -9.9587 670412 -2.0437e+06 -3.21952e+06 -221448 -967901 850534
65 1 Mg -2.58583 76.7345 4.83476 1.2 -7.5845 228608 2.90087e+06 1.21964e+06 718308 -391907 566905
66 2 Si 0.17101 78.732 4.65313 2.4 -32.3609 3.31509e+06 1.14176e+07 5.04632e+06 1.02687e+06 -1.05306e+06 -49673
67 3 O -1.40177 78.6582 4.76283 -1.2 -9.9757 -2.13051e+06 -2.82366e+06 -2.87139e+06 -234651 -360237 454766
68 3 O 1.11038 74.9565 4.91849 -1.2 -9.51653 -1.74479e+06 -6.26774e+06 -2.50278e+06 -3.10773e+06 1.87298e+06 -281020
69 3 O 0.814753 77.959 3.45293 -1.2 -9.53922 -1.99236e+06 -3.93783e+06 -4.35489e+06 1.43499e+06 -1.37122e+06 425578
70 3 O 0.801633 78.274 5.93157 -1.2 -9.29251 -4.20874e+06 -5.47403e+06 -3.86674e+06 1.05944e+06 -1.55639e+06 1.6653e+06
71 1 Mg -0.145411 74.4089 3.32477 1.2 -7.07789 -910463 4.47509e+06 -805147 37055.4 -154497 1.20728e+06
72 1 Mg 0.00821181 71.4789 4.75639 1.2 -7.81316 1.38697e+06 3.0576e+06 -424024 -950005 -187574 117473
73 2 Si 2.01408 73.4581 4.99209 2.4 -32.1197 3.54995e+06 1.30881e+07 3.45916e+06 -1.86474e+06 219628 336070
74 3 O -1.26183 73.6358 4.9721 -1.2 -10.017 -4.93059e+06 -5.017e+06 -1.59679e+06 -752633 -1.88429e+06 -51079.1
75 3 O 0.936797 69.5713 4.70964 -1.2 -9.13528 -2.6735e+06 -3.07375e+06 211206 1.52421e+06 -180511 891834
76 3 O 1.43386 72.8374 3.65774 -1.2 -9.60154 -2.20624e+06 -4.41498e+06 -2.63808e+06 556684 1.24718e+06 -984192
77 1 Mg -0.269596 74.2815 0.286407 1.2 -6.42219 -4.60703e+06 4.68115e+06 -1.84762e+06 -90721.7 711342 -2.27922e+06
78 3 O 1.17722 72.7841 6.12033 -1.2 -9.62995 -3.09043e+06 -6.03877e+06 -4.50422e+06 958741 -1.26961e+06 1.50947e+06
79 1 Mg -0.326563 77.068 2.03913 1.2 -7.25166 -566192 2.31556e+06 625104 -351385 -438025 -178130
80 2 Si -2.43223 75.3362 1.66058 2.4 -30.896 -1.39849e+06 1.36661e+07 5.76187e+06 -2.92685e+06 985828 -2.10856e+06
81 3 O 0.880995 75.178 1.74862 -1.2 -10.7148 -5.47492e+06 -7.0426e+06 -3.52023e+06 -2.13586e+06 -713680 1.56457e+06
82 3 O -0.9174 79.1893 1.91338 -1.2 -9.47598 -4.19938e+06 -5.29624e+06 -1.60772e+06 859148 283338 1.50802e+06
83 3 O -1.75723 75.944 0.402695 -1.2 -10.1802 -3.12432e+06 -3.60475e+06 -4.55919e+06 -29643.4 -1.19928e+06 401885
84 3 O -1.75441 76.038 2.92345 -1.2 -10.0863 -1.45711e+06 -5.62472e+06 -1.12956e+06 556895 1.25444e+06 -268031
85 1 Mg -2.61651 79.2274 0.543643 1.2 -7.23776 -1.50991e+06 4.45925e+06 -1.16642e+06 -746152 -1.03369e+06 -1.35746e+06
86 1 Mg 2.28898 82.4909 1.73968 1.2 -8.76455 1.34412e+06 1.70361e+06 900047 1.63659e+06 -911722 904280
87 2 Si -0.472092 80.7451 1.8617 2.4 -33.1818 4.96395e+06 1.11491e+07 6.50079e+06 -1.35578e+06 576657 151192
88 3 O 1.09474 80.6064 1.82073 -1.2 -9.24309 -1.76577e+06 -5.19224e+06 -4.74217e+06 -2.92205e+06 -26723.6 810692
89 3 O -1.45809 84.6998 1.62901 -1.2 -8.41997 -3.43388e+06 -1.69982e+06 -2.56392e+06 -1.62723e+06 375407 -2.20486e+06
90 3 O -1.15388 81.3766 0.624463 -1.2 -8.73563 -4.12835e+06 -3.85076e+06 -2.82557e+06 1.15633e+06 -142742 -384623
91 1 Mg -2.64531 90.5378 2.96407 1.2 -6.95722 -2.70494e+06 5.33664e+06 -2.39593e+06 188795 12693.1 2.96848e+06
92 3 O -1.1935 81.4323 3.1116 -1.2 -9.50017 -3.0276e+06 -3.52423e+06 -4.55365e+06 382420 -1.15535e+06 438932
93 1 Mg -2.54591 87.6081 4.34942 1.2 -7.71216 -144171 2.23407e+06 651182 1.29981e+06 -35364.2 842409
94 2 Si 0.126663 89.466 4.57207 2.4 -31.4912 4.14416e+06 1.49248e+07 3.76366e+06 170766 -102325 619073
95 3 O -1.46321 89.4735 4.54167 -1.2 -10.0607 1.21853e+06 -5.87821e+06 -1.39744e+06 -603233 -71345.7 -345404
96 3 O 1.1496 85.6088 4.56842 -1.2 -9.47962 -5.51027e+06 -5.18667e+06 -5.20585e+06 -2.26246e+06 1.06466e+06 -1.97302e+06
97 3 O 0.775831 88.8193 3.32026 -1.2 -10.1454 -3.17504e+06 -4.05717e+06 -3.2963e+06 222430 -618151 -1.23257e+06
98 3 O 0.714118 88.6509 5.82011 -1.2 -10.002 -3.20305e+06 -1.97415e+06 -2.51084e+06 -111621 657615 -864584
99 1 Mg -0.158915 85.3503 3.15672 1.2 -7.93876 -626758 4.2033e+06 -2.46735e+06 130563 -1.60074e+06 2.05545e+06
100 1 Mg -0.0436644 82.3219 4.47871 1.2 -8.24125 870832 1.07155e+06 2.2354e+06 -1.61382e+06 -971486 -1.4795e+06
101 2 Si 1.91981 84.1672 4.61483 2.4 -32.8718 6.85311e+06 8.80313e+06 8.9218e+06 484495 448291 -372076
102 3 O -1.28586 84.4514 4.52566 -1.2 -9.57647 -2.55507e+06 -3.60487e+06 -3.70708e+06 854113 -363344 342753
103 3 O 0.859483 80.2822 4.57996 -1.2 -9.3223 -1.3714e+06 -4.69421e+06 -5.7981e+06 1.62382e+06 -768061 1.62907e+06
104 3 O 1.21171 83.4791 3.25843 -1.2 -8.52221 -1.91702e+06 -2.18398e+06 -3.30189e+06 332400 1.54671e+06 687181
105 1 Mg -0.0341047 85.2612 0.210364 1.2 -7.70591 -1.63288e+06 4.50724e+06 -2.06561e+06 946962 2.29956e+06 -2.18549e+06
106 3 O 1.22372 83.367 5.75565 -1.2 -9.33618 -3.12909e+06 -4.06642e+06 -5.49218e+06 1.52997e+06 -1.392e+06 1.9647e+06
107 1 Mg -0.177069 88.3173 1.65875 1.2 -7.78962 1.00998e+06 916217 88075.4 -285831 -535005 480445
108 2 Si -2.17812 86.2257 1.50895 2.4 -32.9971 5.3771e+06 1.55602e+07 4.43813e+06 -271316 -736037 -1.34949e+06
109 3 O 1.0111 86.1291 1.61523 -1.2 -9.53232 -2.36767e+06 -6.0182e+06 -2.22777e+06 24087.2 -1.55681e+06 -98384.9
110 3 O -1.02239 90.0524 1.53326 -1.2 -10.0819 -1.25737e+06 -5.62074e+06 -1.00997e+06 2.90637e+06 81990.8 -496282
111 3 O -1.46768 87.0724 0.296192 -1.2 -9.40743 -1.66433e+06 -2.52614e+06 -2.51935e+06 917851 -1.23912e+06 -334193
112 3 O -1.57184 86.9564 2.74809 -1.2 -9.43065 -2.60559e+06 -5.60503e+06 -3.70715e+06 -87500 504491 -1.29635e+06
113 1 Mg -2.46485 90.4407 0.00732554 1.2 -6.614 -2.32634e+06 5.65379e+06 248564 -467868 -661257 -1.15341e+06
114 1 Mg 2.43587 93.6618 1.64431 1.2 -7.4642 -707989 959460 830154 568062 -951158 1.33778e+06
115 2 Si -0.36063 91.5998 1.58146 2.4 -30.7799 6.86456e+06 1.1729e+07 8.18043e+06 465379 -492503 894579
116 3 O 1.21221 91.4424 1.62884 -1.2 -10.3868 -462421 -5.62249e+06 -2.7094e+06 -1.43723e+06 -2.03857e+06 -86615.4
117 3 O -1.57035 95.5065 1.61957 -1.2 -9.96866 -1.64812e+06 -4.52546e+06 -4.01766e+06 -4.99638e+06 409089 -2.60229e+06
118 3 O -1.0736 92.2711 0.208511 -1.2 -10.1393 47201.7 -1.70475e+06 1.2711e+06 -232937 2.27479e+06 -458034
119 1 Mg -2.74087 101.301 3.11617 1.2 -7.21913 -1.53065e+06 4.58046e+06 -1.69155e+06 -49571 573320 2.23566e+06
120 3 O -1.28777 92.2573 2.84714 -1.2 -9.6696 -1.72761e+06 -3.22499e+06 -25365 -631187 -3.06109e+06 -1.03695e+06
121 1 Mg -2.46644 98.4366 4.65702 1.2 -6.9769 -290504 3.18196e+06 3.41967e+06 310985 418505 293518
122 2 Si 0.0320177 99.995 4.63479 2.4 -31.152 2.18961e+06 1.23283e+07 1.0841e+07 -747197 261155 -579906
123 3 O -1.48308 100.397 4.62855 -1.2 -10.3945 -284020 -3.18728e+06 -3.62389e+06 -970800 283080 338885
124 3 O 1.01282 96.1402 4.74132 -1.2 -9.41755 -2.87165e+06 -4.51782e+06 -1.01515e+06 -2.23601e+06 1.78989e+06 -1.19762e+06
125 3 O 0.680685 99.526 3.26845 -1.2 -9.80603 -1.06119e+06 -5.23989e+06 -364514 1.11572e+06 -1.22372e+06 -1.26248e+06
126 3 O 0.689269 99.2976 5.95552 -1.2 -9.77487 -487046 -3.40874e+06 855492 -622696 1.24791e+06 -1.37639e+06
127 1 Mg -0.527908 95.8916 3.11029 1.2 -7.335 -1.49715e+06 4.72045e+06 -3.36861e+06 -74840.3 -821100 510623
128 1 Mg -0.290139 92.7175 4.6117 1.2 -7.87555 1.67833e+06 1.20629e+06 164345 391909 148059 -478763
129 2 Si 1.79745 94.7009 4.63952 2.4 -32.2683 7.79682e+06 1.46906e+07 1.73857e+06 -458208 2.36803e+06 388763
130 3 O -1.26436 94.839 4.57066 -1.2 -9.45167 572044 -5.42178e+06 -818601 -1.62231e+06 885308 -814069
131 3 O 0.659406 91.0838 4.57619 -1.2 -9.73495 -2.66302e+06 -4.07776e+06 -736436 886506 763118 -1.67356e+06
132 3 O 1.21424 94.0473 3.32485 -1.2 -9.18907 -1.74245e+06 -4.7478e+06 -757325 1.19578e+06 685067 -1.03389e+06
133 1 Mg -0.257322 95.6742 0.301312 1.2 -6.23034 -5.06918e+06 5.71165e+06 -668387 69002.3 2.07759e+06 -508041
134 3 O 1.37465 93.8264 5.84047 -1.2 -9.87561 -1.97714e+06 -4.80805e+06 -2.13536e+06 50939.2 -597812 628177
135 1 Mg -0.299107 98.8329 1.50025 1.2 -7.83923 -1.3269e+06 254084 1.97524e+06 -241635 -128485 -444506
136 2 Si -2.49798 97.1735 1.44351 2.4 -30.4249 6.57577e+06 1.23234e+07 9.28994e+06 -1.46161e+06 -714186 -2.412e+06
137 3 O 0.703595 97.1659 1.63418 -1.2 -10.3133 -453664 -4.5691e+06 -3.90489e+06 248188 -2.21167e+06 519498
138 3 O -1.12794 100.685 1.67173 -1.2 -9.72286 -90798.3 -4.87572e+06 -2.89057e+06 1.73721e+06 -604840 1.32257e+06
139 3 O -1.59158 97.7924 0.236006 -1.2 -10.2298 -1.33088e+06 -2.49938e+06 -551073 2.47419e+06 -2.25733e+06 380873
140 3 O -1.82217 97.6148 2.90449 -1.2 -9.57686 -3.12494e+06 -4.93139e+06 2.69292e+06 877403 1.99925e+06 210007
141 1 Mg -2.59586 101.348 0.139511 1.2 -7.17848 -881176 4.45359e+06 381804 -902749 -1.15162e+06 -1.20881e+06
142 1 Mg 6.75696 104.123 1.36633 1.2 -8.45674 1.78185e+06 -819820 2.27251e+06 -98421.9 -817423 1.04748e+06
143 2 Si -0.491246 102.168 1.75022 2.4 -32.4149 3.50149e+06 1.23954e+07 9.69958e+06 222297 -270068 1.45766e+06
144 3 O 1.05621 102.334 1.72128 -1.2 -10.1521 -2.46596e+06 -4.23472e+06 -3.75879e+06 -158909 -1.03869e+06 -441650
145 3 O 2.9873 105.977 1.31692 -1.2 -9.03526 -3.78195e+06 -5.25963e+06 -5.18896e+06 1.31152e+06 821971 -306639
146 3 O -1.18701 102.771 0.37997 -1.2 -9.23731 -2.2939e+06 -4.80731e+06 -3.38102e+06 -866803 1.66056e+06 579437
147 1 Mg 2.59329 111.797 2.93093 1.2 -7.34767 -2.78703e+06 2.85071e+06 900225 -1.07392e+06 1.91048e+06 1.60324e+06
148 3 O -1.24384 102.908 3.02617 -1.2 -8.96383 -1.825e+06 -3.25441e+06 -527230 -810655 -1.32362e+06 347240
149 1 Mg 2.12045 108.94 4.51065 1.2 -8.15463 1.85798e+06 -710472 4.50869e+06 2.03985e+06 -462885 461088
150 2 Si 5.14138 110.81 4.26943 2.4 -32.0795 1.57969e+06 8.58902e+06 1.01759e+07 1.8265e+06 -363981 -488691
151 3 O 3.64114 110.884 4.55571 -1.2 -9.87552 -2.15076e+06 -4.62422e+06 -3.67379e+06 1.34926e+06 -481166 -639299
152 3 O 5.96363 106.824 4.62083 -1.2 -8.31811 -6.54564e+06 -4.15527e+06 -6.00415e+06 810893 1.66311e+06 -1.00529e+06
153 3 O 5.67415 109.934 3.16858 -1.2 -9.42484 -3.67169e+06 -4.27202e+06 -3.98575e+06 760344 933259 -723103
154 3 O 5.74237 110.064 5.8015 -1.2 -9.07578 -3.19705e+06 -2.36216e+06 -20390.2 393669 -11060.8 -1.32057e+06
155 1 Mg 4.37054 106.304 2.92926 1.2 -8.07245 469815 2.29959e+06 179488 1.74229e+06 -1.53744e+06 2.21013e+06
156 1 Mg -0.378631 103.284 4.87935 1.2 -8.03374 -158503 -762870 1.14054e+06 -1.21067e+06 1.21361e+06 869143
157 2 Si 6.45369 105.362 4.40875 2.4 -34.0232 6.26605e+06 7.06497e+06 9.68889e+06 1.99335e+06 13646.4 966882
158 3 O 3.20689 105.497 4.31104 -1.2 -8.72222 -5.30759e+06 -4.49074e+06 -3.50966e+06 3.16395e+06 279838 -1.18853e+06
159 3 O 0.780285 101.635 4.65171 -1.2 -9.55732 -3.83667e+06 -2.68572e+06 -3.82534e+06 1.88167e+06 -1.01469e+06 -652675
160 3 O 5.74227 104.927 3.02314 -1.2 -8.41281 -4.9211e+06 -4.15234e+06 -2.48965e+06 -963643 1.27313e+06 -1.0819e+06
161 1 Mg 4.64773 106.471 -0.0795558 1.2 -7.39897 286074 2.91021e+06 1.23264e+06 1.99488e+06 1.68253e+06 -1.38823e+06
162 3 O 5.64961 104.594 5.64653 -1.2 -9.3946 -2.4987e+06 -2.33837e+06 -4.28393e+06 -290318 -1.85563e+06 490007
163 1 Mg 4.81192 109.168 1.40902 1.2 -8.3411 1.38003e+06 -742491 4.80698e+06 -36277.6 -203105 -907413
164 2 Si 2.52937 107.427 1.40991 2.4 -33.6938 2.59143e+06 5.8055e+06 1.3331e+07 1.9612e+06 -768750 -1.21418e+06
165 3 O 5.76473 107.431 1.52235 -1.2 -9.22326 -3.87786e+06 -4.2831e+06 -5.33893e+06 2.29702e+06 -313110 519316
166 3 O 3.88079 111.297 1.42284 -1.2 -8.92961 -2.43404e+06 -5.24502e+06 -1.61168e+06 2.03537e+06 800814 -2.0528e+06
167 3 O 3.22386 108.165 0.0996021 -1.2 -8.97645 -3.6812e+06 -1.8347e+06 -2.00632e+06 -475392 -1.36824e+06 269368
168 3 O 3.16502 108.109 2.77592 -1.2 -8.61586 -3.70931e+06 -955320 -913072 -477660 -166338 1.23508e+06
169 1 Mg 2.52249 111.634 -0.280102 1.2 -7.32713 -372313 2.84704e+06 310795 -122805 -396028 -1.64723e+06
170 1 Mg 7.21309 114.505 1.17799 1.2 -7.67894 309609 728924 1.84977e+06 647516 -560828 617317
171 2 Si 4.64074 112.757 1.34166 2.4 -33.0132 3.89048e+06 1.05858e+07 6.01806e+06 343810 -597148 1.09202e+06
172 3 O 6.14435 112.623 1.23095 -1.2 -9.76558 -4.39316e+06 -3.18612e+06 -3.40019e+06 -67962.5 -1.20009e+06 -511494
173 3 O 3.30305 116.406 1.40757 -1.2 -10.3291 -419723 -1.53928e+06 -3.11842e+06 -1.65705e+06 -698196 -1.93689e+06
174 3 O 3.99858 113.568 0.148088 -1.2 -9.44067 -2.73219e+06 -3.45867e+06 -6.89105e+06 188143 1.68368e+06 1.28317e+06
175 1 Mg 2.39631 122.123 2.8419 1.2 -6.24227 -4.79486e+06 4.7696e+06 -583153 -1.45136e+06 1.0379e+06 1.77299e+06
176 3 O 3.81316 113.347 2.52743 -1.2 -9.22617 -2.66188e+06 -6.86392e+06 -6.0052e+06 -1.87412e+06 -761049 -2.71686e+06
177 1 Mg 2.39034 119.404 4.55945 1.2 -6.94737 -571399 1.02199e+06 3.45267e+06 1.40586e+06 -494677 789224
178 2 Si 5.03762 121.19 4.37125 2.4 -29.4783 -703466 1.34743e+07 8.69699e+06 1.56351e+06 -1.15078e+06 697613
179 3 O 3.54231 121.229 4.4175 -1.2 -11.3308 -1.46826e+06 -4.82523e+06 -4.8129e+06 579676 430835 -1.30845e+06
180 3 O 5.83831 117.23 4.30119 -1.2 -9.62561 -221830 -3.54771e+06 -2.23782e+06 -921123 -851967 -51200.4
181 3 O 5.80788 120.623 3.07713 -1.2 -10.5347 -216349 -5.17609e+06 170596 -949039 -639544 -1.17859e+06
182 3 O 5.78905 120.525 5.698 -1.2 -10.4265 -3.17001e+06 -5.12874e+06 -883957 -1.15001e+06 892551 -257023
183 1 Mg 4.53152 116.992 2.82881 1.2 -6.83317 -2.32304e+06 4.81193e+06 -1.43152e+06 917135 -2.05697e+06 1.54846e+06
184 1 Mg 4.59298 113.997 4.29963 1.2 -7.59485 953598 315347 2.91303e+06 -1.48079e+06 -182442 -181445
185 2 Si 6.62748 115.727 4.16399 2.4 -32.122 1.60413e+06 1.02113e+07 6.96984e+06 -1.08095e+06 1.04528e+06 1.404e+06
186 3 O 3.42152 115.885 4.32519 -1.2 -10.1107 -2.46741e+06 -3.01707e+06 -3.4848e+06 -981355 2.2093e+06 -350782
187 3 O 5.91728 112.173 4.18197 -1.2 -9.85434 -2.38611e+06 -4.60827e+06 -3.24906e+06 -139597 1.20476e+06 -1.2709e+06
188 3 O 5.90746 115.088 2.99865 -1.2 -9.72784 -1.93869e+06 -3.98435e+06 -4.34496e+06 -755859 -784991 -1.96821e+06
189 1 Mg 4.85163 116.857 0.0591548 1.2 -6.52577 -3.96439e+06 4.35426e+06 -425404 311505 712264 -2.3919e+06
190 3 O 6.15353 115.043 5.48356 -1.2 -9.42114 -3.12112e+06 -4.76527e+06 -2.92566e+06 -1.1523e+06 209608 86177.7
191 1 Mg 4.88045 119.891 1.12057 1.2 -7.02527 -553132 670850 2.03162e+06 -656648 1.10521e+06 290680
192 2 Si 2.6322 118.014 1.19163 2.4 -30.0736 314992 1.28697e+07 1.03676e+07 1.4853e+06 -1.36538e+06 48646
193 3 O 5.88019 117.959 1.32476 -1.2 -11.0417 -942776 -3.58319e+06 -5.05783e+06 1.02083e+06 -1.24204e+06 -798402
194 3 O 3.72397 121.637 1.11126 -1.2 -10.632 781887 -2.9594e+06 -571262 1.39278e+06 13844.2 1.62594e+06
195 3 O 3.48539 118.682 -0.0567253 -1.2 -10.2839 -23796.6 -1.77437e+06 -2.11864e+06 667730 -1.99233e+06 -1.52329e+06
196 3 O 3.37782 118.778 2.54077 -1.2 -9.83616 -698037 -1.42648e+06 1.56615e+06 953127 1.24966e+06 1.15115e+06
197 1 Mg 2.14278 122.149 -0.0345407 1.2 -6.54728 -3.82563e+06 3.4474e+06 -2.17845e+06 -1.38833e+06 -908891 -1.67231e+06
198 1 Mg 6.9568 125.301 1.26768 1.2 -7.71402 402088 1.03384e+06 50618.5 915451 1.05698e+06 -765096
199 2 Si 4.44071 123.174 1.4878 2.4 -30.3922 2.07592e+06 1.41589e+07 6.25505e+06 -920490 1.69493e+06 980348
200 3 O 5.9214 123.133 1.28371 -1.2 -10.8258 -2.44114e+06 -4.8652e+06 -3.78041e+06 41003.3 -53758 -507726
201 3 O 3.37359 127.148 1.23657 -1.2 -10.4502 -1.56291e+06 -5.01521e+06 -983945 -1.04532e+06 -737418 948249
202 3 O 3.67231 124.193 0.362187 -1.2 -9.47595 -1.56015e+06 -1.57667e+06 -3.74197e+06 -889921 1.54804e+06 -1.08392e+06
203 1 Mg 2.12181 132.928 2.82525 1.2 -8.03367 -1.39253e+06 2.62292e+06 -247327 -458232 -319216 1.36182e+06
204 3 O 3.64082 123.827 2.71696 -1.2 -10.2215 -922059 -2.05766e+06 -7.66217e+06 -1.52905e+06 -1.97214e+06 1.09396e+06
205 1 Mg 2.0093 129.75 4.59895 1.2 -7.12022 890739 1.64831e+06 2.1375e+06 734494 -901456 -459704
206 2 Si 4.73154 131.962 4.19666 2.4 -32.7564 5.09817e+06 1.15141e+07 9.48194e+06 922366 403858 -1.71187e+06
207 3 O 3.22688 132.131 4.22676 -1.2 -9.66247 -4.16777e+06 -3.23521e+06 -3.21123e+06 1.25571e+06 -1.19304e+06 331603
208 3 O 5.87611 127.816 4.59484 -1.2 -10.4781 2.62169e+06 -1.65318e+06 -1.68581e+06 -1.52058e+06 934670 1.12959e+06
209 3 O 5.53904 131.381 2.99589 -1.2 -9.2801 -2.82359e+06 -3.22638e+06 -4.63492e+06 -66779.5 -1.74148e+06 649442
210 3 O 5.3172 130.984 5.49032 -1.2 -9.21569 -642558 -2.1003e+06 -1.6324e+06 -445115 797845 -143812
211 1 Mg 4.59962 127.562 2.78967 1.2 -6.41603 -2.85613e+06 4.70065e+06 -805354 1.88302e+06 -1.93113e+06 1.6339e+06
212 1 Mg 4.18327 124.477 4.34744 1.2 -6.99924 -476300 -1.78154e+06 558172 -294761 -67027.3 -2.02742e+06
213 2 Si 6.53681 126.174 4.35984 2.4 -30.3083 1.87038e+06 1.10691e+07 1.11855e+07 -1.17499e+06 -724376 -1.33644e+06
214 3 O 3.34941 126.218 4.22852 -1.2 -10.9459 707983 -3.63604e+06 -4.11836e+06 1.25638e+06 -444741 1.0162e+06
215 3 O 5.88303 122.772 4.25921 -1.2 -9.98989 1.91456e+06 -2.71151e+06 -4.03691e+06 2.04058e+06 -155389 -1.66056e+06
216 3 O 5.94426 125.902 2.7299 -1.2 -9.97374 -2.17999e+06 -1.88062e+06 1.29102e+06 112253 1.52524e+06 124879
217 1 Mg 4.53131 127.554 -0.411127 1.2 -6.64785 -161631 5.52025e+06 -430606 334301 877095 -699990
218 3 O 5.95124 125.43 5.55974 -1.2 -9.82281 -2.0238e+06 -6.43105e+06 -2.42175e+06 78027.2 -697068 1.6403e+06
219 1 Mg 4.81786 130.62 1.17919 1.2 -8.0652 925053 2.22704e+06 596556 -1.04902e+06 752335 754528
220 2 Si 2.70162 128.599 1.44799 2.4 -30.5316 5.28674e+06 1.33076e+07 8.63646e+06 101376 366201 -512941
221 3 O 5.82497 128.738 1.25971 -1.2 -10.2238 2.93768e+06 -4.43366e+06 -23168.6 -621145 773348 420313
222 3 O 3.77107 132.436 1.2995 -1.2 -8.8297 -3.66292e+06 1.03666e+06 -1.16755e+06 1.84675e+06 205248 -288124
223 3 O 3.37112 129.426 0.118248 -1.2 -9.72927 -2.04049e+06 -2.69917e+06 4.82338e+06 564302 -1.10891e+06 -737113
224 3 O 3.27924 129.038 3.00039 -1.2 -10.4171 461137 -3.37981e+06 3.83556e+06 -347270 1.38468e+06 770148
225 1 Mg 2.34279 133.127 -0.0823849 1.2 -7.85058 136237 4.07514e+06 -549215 -724707 -984479 -2.25594e+06
226 1 Mg 7.36745 136.15 1.06967 1.2 -9.01904 2.92311e+06 -1.8055e+06 3.61641e+06 1.48561e+06 139660 -1.83868e+06
227 2 Si 4.37847 134.108 1.40018 2.4 -33.5191 8.72785e+06 1.16438e+07 6.47511e+06 1.25397e+06 775100 -3.53407e+06
228 3 O 6.04295 133.928 1.35159 -1.2 -8.9266 632006 -4.79403e+06 -3.99394e+06 -200375 -199515 -218378
229 3 O 3.25208 138.063 0.932881 -1.2 -8.53096 -1.62526e+06 -7.42618e+06 -3.74089e+06 -2.35678e+06 412388 63938.1
230 3 O 3.80652 135.018 0.0778435 -1.2 -8.33769 -3.86523e+06 518839 -1.52168e+06 438286 649500 -1.11828e+06
231 1 Mg 2.05263 143.608 2.75722 1.2 -8.15705 227020 2.9072e+06 -569494 -538811 1.54912e+06 853932
232 3 O 3.78351 134.765 2.52302 -1.2 -8.63251 -5.42445e+06 -1.70342e+06 -5.87937e+06 9309.98 982321 348043
233 1 Mg 2.32112 140.916 4.1281 1.2 -8.19698 -34696.2 -130.254 2.84678e+06 1.56852e+06 -25980.3 1.13706e+06
234 2 Si 4.8559 142.657 4.28062 2.4 -33.3453 6.9951e+06 9.6675e+06 1.05861e+07 -547343 98095.7 -1.71918e+06
235 3 O 3.32144 142.753 4.25786 -1.2 -9.22947 -2.82293e+06 -2.35132e+06 -4.65845e+06 -1.50515e+06 373576 1.37279e+06
236 3 O 5.80398 138.902 4.21652 -1.2 -9.63958 -1.96139e+06 -4.77242e+06 -4.6796e+06 -1.72486e+06 1.8142e+06 784237
237 3 O 5.58243 141.97 3.02045 -1.2 -9.14914 -2.46475e+06 -5.96605e+06 -1.09465e+06 796438 -1.56056e+06 -249260
238 3 O 5.58751 142.233 5.66558 -1.2 -8.89457 -5.47301e+06 -2.14924e+06 -1.84739e+06 1.09157e+06 2.77716e+06 1.4845e+06
239 1 Mg 4.55558 138.499 2.5585 1.2 -7.59053 -579277 5.06696e+06 101414 684974 -1.32292e+06 1.80669e+06
240 1 Mg 4.14446 135.558 4.63477 1.2 -8.30593 2.13141e+06 205166 2.18062e+06 -644793 905419 683262
241 2 Si 6.54192 137.503 4.06656 2.4 -32.53 2.62257e+06 1.12244e+07 1.11406e+07 1.55355e+06 -1.11669e+06 685815
242 3 O 3.26734 137.384 4.11133 -1.2 -9.86795 -4.48002e+06 -2.5358e+06 -4.11338e+06 562855 -548500 19665
243 3 O 5.6044 133.434 4.47969 -1.2 -8.23922 -1.96612e+06 -769256 -3.38098e+06 1.98526e+06 53073 985090
244 3 O 5.97495 136.874 2.50325 -1.2 -8.30236 -2.08675e+06 -71120.3 1.31734e+06 -1.05794e+06 707867 1.86472e+06
245 1 Mg 4.60337 138.884 -0.439507 1.2 -8.10954 -1.25357e+06 3.14224e+06 -880653 578554 713584 -800594
246 3 O 5.80379 136.666 5.33751 -1.2 -9.12109 -2.45697e+06 -2.46766e+06 -363333 873274 -779311 -728653
247 1 Mg 4.68237 141.48 1.11003 1.2 -8.26123 1.43037e+06 1.4426e+06 1.55052e+06 311182 570789 646246
248 2 Si 2.39447 139.447 1.12304 2.4 -33.5259 3.06647e+06 1.16065e+07 7.89048e+06 -564190 -1.13958e+06 1.77678e+06
249 3 O 5.68322 139.693 1.12046 -1.2 -9.63792 -6.64688e+06 -3.82071e+06 -4.59642e+06 -378193 -1.36229e+06 -1.30529e+06
250 3 O 3.77284 143.326 1.45942 -1.2 -8.67488 -6.47552e+06 -6.27434e+06 -3.69487e+06 -387185 286695 1.15347e+06
251 3 O 3.23284 140.224 -0.0461431 -1.2 -8.82574 -3.37678e+06 -6.87821e+06 -2.2558e+06 1.44599e+06 -1.33209e+06 968252
252 3 O 2.9928 139.912 2.53336 -1.2 -8.95025 -4.37057e+06 -3.39457e+06 -3.35409e+06 793455 1.39726e+06 -1.32808e+06
253 1 Mg 2.33843 143.684 -0.0580818 1.2 -8.28617 -755434 3.18583e+06 -203188 -896303 -434840 -751808
254 1 Mg 7.01299 147.007 1.68339 1.2 -8.63681 2.96479e+06 -767425 2.58315e+06 916858 -97039.3 517226
255 2 Si 4.33038 144.739 1.22274 2.4 -34.8493 7.95875e+06 7.95734e+06 8.78176e+06 -3.04908e+06 -780064 15000
256 3 O 5.8235 144.516 1.2229 -1.2 -8.5084 -7.39106e+06 -4.80999e+06 -4.32589e+06 -3.02122e+06 1.23554e+06 62119.3
257 3 O 3.49319 148.607 1.76069 -1.2 -9.24852 346921 -1.20527e+06 -3.03254e+06 -870797 -442992 1.06136e+06
258 3 O 3.55447 145.287 -0.0637921 -1.2 -8.12501 -4.18214e+06 -3.25133e+06 -3.2666e+06 914329 780832 -13791.6
259 1 Mg 1.62989 154.174 2.35399 1.2 -8.00716 130831 -2.36941e+06 5.06885e+06 -1.21058e+06 504505 747864
260 3 O 3.55587 145.699 2.42394 -1.2 -7.99896 -2.68645e+06 -2.26082e+06 -2.99553e+06 -914864 -2.30913e+06 372711
261 1 Mg 1.75716 151.663 5.12887 1.2 -8.50042 -2.50064e+06 2.8336e+06 -1.11852e+06 2.36935e+06 -2.03486e+06 923174
262 2 Si 4.0959 152.652 3.59917 2.4 -34.2479 9.64115e+06 6.52037e+06 7.41758e+06 -902291 1.18119e+06 -595044
263 3 O 2.6729 153.27 3.84995 -1.2 -7.71035 -5.14019e+06 -1.41686e+06 -5.3359e+06 -296686 2.73985e+06 -1.80859e+06
264 3 O 5.87393 149.44 4.86212 -1.2 -8.97788 -4.55943e+06 -3.55796e+06 -3.01265e+06 -665792 -1.03072e+06 557637
265 3 O 4.64475 153.43 2.46832 -1.2 -8.4232 -9.404e+06 711921 -7.61261e+06 722476 3.83831e+06 912920
266 3 O 4.96166 152.485 4.90078 -1.2 -8.23787 -1.00365e+07 -3.78018e+06 -1.85943e+06 -734463 -12286.7 1.44566e+06
267 1 Mg 4.69463 149.243 3.36122 1.2 -7.79641 -1.74727e+06 3.37053e+06 -1.28503e+06 2.13152e+06 -2.95817e+06 2.39777e+06
268 1 Mg 4.48418 146.043 4.17495 1.2 -8.87446 675028 -110229 1.59416e+06 -1.98972e+06 505252 808132
269 2 Si 6.54959 147.959 4.67997 2.4 -33.6729 8.62733e+06 1.03207e+07 6.79434e+06 1.19247e+06 -433683 2.08626e+06