ITEM: TIMESTEP
100000
ITEM: NUMBER OF ATOMS
5600
ITEM: BOX BOUNDS xy xz yz pp pp pp
0.0000000000000000e+00 7.1234999999999999e+00 0.0000000000000000e+00
0.0000000000000000e+00 2.0198500000000001e+02 2.3744999999999998e+00
0.0000000000000000e+00 1.1958400000000000e+02 0.0000000000000000e+00
ITEM: ATOMS id type element xu yu zu q c_pe c_s[1] c_s[2] c_s[3] c_s[4] c_s[5] c_s[6]
1 1 Mg -2.19566 47.2201 -1.64039 1.2 -6.19639 -3.49791e+06 -728446 6.2202e+06 841612 -63384 1.85679e+06
2 1 Mg 2.59341 50.0247 1.04966 1.2 -7.8545 806008 2.53787e+06 2.79545e+06 -623205 43089.2 -694495
3 2 Si 0.309042 48.7536 -0.781306 2.4 -31.2132 4.07456e+06 7.82974e+06 3.31681e+06 -63458.5 1.53196e+06 1.21561e+06
4 3 O 1.24468 47.7089 -0.211798 -1.2 -9.33575 -478748 -6.53777e+06 -2.05712e+06 -344209 -1.56913e+06 1.29626e+06
5 3 O -1.80859 52.0618 0.976392 -1.2 -8.42038 -3.43879e+06 -4.73811e+06 -4.6018e+06 -1.12425e+06 265586 -227515
6 3 O -0.61657 48.2973 -1.8674 -1.2 -10.8784 -558335 -4.31449e+06 -4.29414e+06 988688 -2.36603e+06 -3.39437e+06
7 1 Mg -2.50328 57.5927 2.84786 1.2 -8.36099 -1.63141e+06 2.71545e+06 -2.47304e+06 -689348 1.09886e+06 2.22546e+06
8 3 O -0.202236 49.7427 0.270366 -1.2 -9.18482 -4.52311e+06 -2.235e+06 -3.90386e+06 490146 2.06359e+06 -1.54313e+06
9 1 Mg -2.34237 54.9397 4.01797 1.2 -7.92364 853053 767449 3.09994e+06 -537030 -682765 -707286
10 2 Si 0.0870407 56.6682 4.22169 2.4 -32.6632 6.23393e+06 1.32834e+07 7.70377e+06 -55263.7 -406989 -2.43842e+06
11 3 O -1.54599 56.6645 4.23162 -1.2 -9.79991 -1.9616e+06 -6.01644e+06 -4.92736e+06 -576566 -1.9733e+06 388717
12 3 O 0.604039 52.9978 4.00261 -1.2 -8.28993 -5.75399e+06 155893 -2.39209e+06 -2.01035e+06 500392 -946810
13 3 O 0.862546 56.1518 3.01484 -1.2 -9.09824 -3.0977e+06 -6.76935e+06 -3.81331e+06 -122446 -1.19842e+06 -686304
14 3 O 0.656567 55.8366 5.52468 -1.2 -9.23451 -1.44894e+06 -1.44589e+06 -912177 755855 1.06511e+06 -1.12217e+06
15 1 Mg -0.479133 52.1765 2.50216 1.2 -8.53878 1.04067e+06 2.18151e+06 -313404 911423 -2.80086e+06 710135
16 1 Mg 0.493672 48.7422 2.19506 1.2 -7.8601 4.5904e+06 2.5928e+06 -646389 -518923 15004.1 358670
17 2 Si 1.39079 51.4625 4.16313 2.4 -33.9536 1.14534e+07 1.01914e+07 6.51323e+06 -209457 1.47428e+06 174988
18 3 O -1.76962 51.8344 4.10576 -1.2 -8.18939 -699683 -4.9315e+06 -2.92251e+06 556814 -498708 1.23113e+06
19 3 O 2.8134 48.5909 2.45925 -1.2 -7.12315 1.18355e+06 -949968 -552748 -21261.9 -98864.9 -1.269e+06
20 3 O 0.896233 50.7412 2.81197 -1.2 -8.55371 -3.73221e+06 -3.97456e+06 -2.44053e+06 -10279.7 514813 1.62339e+06
21 1 Mg -0.284217 52.2554 -0.569726 1.2 -7.90847 1.68844e+06 2.44809e+06 2.48888e+06 719382 587859 -584561
22 3 O 0.751363 50.5736 5.25227 -1.2 -10.3096 -6.94851e+06 -3.4232e+06 -7.94238e+06 136166 -1.52496e+06 -117186
23 1 Mg -0.15063 55.1671 1.32608 1.2 -8.62013 -408339 2.1118e+06 2.05645e+06 -117453 1.04028e+06 139821
24 2 Si -2.40258 53.6006 0.886948 2.4 -34.4349 1.00668e+07 6.44678e+06 8.31418e+06 528351 -833772 -1.03635e+06
25 3 O 0.755362 53.4405 0.883484 -1.2 -8.70337 -4.68857e+06 -2.42416e+06 -3.12689e+06 3.5583e+06 -2.11822e+06 1.94278e+06
26 3 O -1.24707 57.3526 1.4728 -1.2 -8.23363 -2.704e+06 -2.4726e+06 -3.96729e+06 3.17027e+06 1.45376e+06 -157823
27 3 O -1.47321 54.1768 -0.20305 -1.2 -8.27626 -3.46632e+06 -3.7963e+06 -6.87006e+06 -1.43754e+06 -1.10075e+06 2.33032e+06
28 3 O -1.75361 54.13 2.21381 -1.2 -8.46417 -3.32428e+06 -4.60309e+06 -4.89556e+06 389867 2.07585e+06 -496416
29 1 Mg -2.75648 57.4427 0.143851 1.2 -7.93537 1.26463e+06 3.52582e+06 -1.23689e+06 -756721 -767274 -102400
30 1 Mg 2.04106 60.7045 1.57945 1.2 -8.92076 379813 123396 2.69918e+06 90704.7 856801 -1.74659e+06
31 2 Si -0.442006 59.0046 1.46118 2.4 -34.4595 5.14135e+06 7.93605e+06 1.22069e+07 516479 355683 696544
32 3 O 0.937154 58.946 1.61519 -1.2 -8.52245 -1.0689e+07 -2.23897e+06 -7.83057e+06 -1.50411e+06 -113377 -742846
33 3 O -1.49402 62.4014 1.45308 -1.2 -9.38436 -4.80366e+06 -3.37042e+06 -5.81736e+06 -729718 -2.00146e+06 150179
34 3 O -1.35218 59.5677 0.236312 -1.2 -8.14375 -3.42148e+06 -3.3889e+06 -3.41661e+06 1.57357e+06 2.38236e+06 -544565
35 1 Mg -2.63171 68.3173 2.87503 1.2 -8.80265 1.66228e+06 1.97286e+06 2.13037e+06 -881871 295129 3.95355e+06
36 3 O -1.27828 59.5629 2.79581 -1.2 -7.93063 -7.15542e+06 -3.19636e+06 -4.05541e+06 880237 -2.25172e+06 -667680
37 1 Mg -2.73871 65.189 4.50494 1.2 -7.28529 1.04118e+06 2.34773e+06 339190 2.07929e+06 1.27874e+06 -548675
38 2 Si 0.0547461 67.2004 4.42444 2.4 -33.5574 9.12301e+06 1.12709e+07 1.07149e+07 1.9197e+06 4907.52 3.15112e+06
39 3 O -1.59513 67.3313 4.40126 -1.2 -8.92154 890888 -2.69771e+06 -2.68142e+06 945918 -893120 -1.73329e+06
40 3 O 1.0609 63.1409 4.66523 -1.2 -9.41942 -2.39193e+06 -3.96512e+06 -2.69401e+06 196774 998916 46895.9
41 3 O 0.630657 66.4626 3.12654 -1.2 -9.40877 -2.93187e+06 -1.84467e+06 -483284 -660202 -1.06594e+06 -1.15285e+06
42 3 O 0.530372 66.6011 5.8367 -1.2 -9.342 -1.88923e+06 -1.57423e+06 1.32968e+06 -572219 201107 -1.42754e+06
43 1 Mg -0.438245 62.527 2.94548 1.2 -7.13767 -3.18488e+06 3.07774e+06 -2.05246e+06 1.78147e+06 -2.92628e+06 3.01487e+06
44 1 Mg -0.307276 60.0475 4.42126 1.2 -8.71038 2.54681e+06 -2.04671e+06 2.55272e+06 -1.43573e+06 -729903 -317657
45 2 Si 1.72365 61.6732 4.54485 2.4 -33.5701 3.74466e+06 1.08796e+07 9.32784e+06 -1.58497e+06 -660835 1.33863e+06
46 3 O -1.51168 61.7703 4.39596 -1.2 -9.322 -4.17681e+06 -6.01825e+06 -5.24056e+06 47645.4 308752 -572733
47 3 O 0.849164 58.2355 4.2272 -1.2 -8.27468 -2.00908e+06 -1.51971e+06 -4.19485e+06 1.82204e+06 485952 -1.75002e+06
48 3 O 1.08158 61.1782 3.12824 -1.2 -8.86985 -4.86127e+06 -6.45112e+06 -3.21544e+06 907069 1.0023e+06 -2.40875e+06
49 1 Mg -0.14762 63.2741 -0.0167826 1.2 -7.6293 -1.32195e+06 3.53935e+06 -1.47188e+06 571091 1.46792e+06 -1.30517e+06
50 3 O 1.16029 60.8478 5.8008 -1.2 -8.52908 -4.37115e+06 -4.89821e+06 -2.517e+06 609439 -882630 -801455
51 1 Mg 0.0175304 66.044 1.32923 1.2 -8.2478 1.50062e+06 1.80584e+06 609110 -1.63662e+06 -429715 659181
52 2 Si -2.14203 63.8648 1.81667 2.4 -31.7686 4.1297e+06 1.19439e+07 8.86059e+06 1.92913e+06 529464 3.44704e+06
53 3 O 1.11892 63.8243 1.51112 -1.2 -9.63751 -1.80677e+06 -4.70535e+06 -2.36949e+06 676664 1.20569e+06 -1.44465e+06
54 3 O -1.20408 67.912 1.33576 -1.2 -7.61375 -3.13799e+06 2.21129e+06 -5.98105e+06 1.46698e+06 -1.15846e+06 -2.80025e+06
55 3 O -1.44388 64.8079 0.603121 -1.2 -9.66461 -3.04615e+06 -5.22925e+06 -986932 782396 -1.71906e+06 -1.98181e+06
56 3 O -1.58147 64.3369 3.33743 -1.2 -9.58176 -2.6679e+06 -3.93327e+06 1.31061e+06 -751581 2.3495e+06 815856
57 1 Mg -2.65808 68.6411 0.09076 1.2 -8.94059 -1.9646e+06 998227 -1.44652e+06 170876 -799874 45112.9
58 1 Mg 2.30569 71.6156 1.10085 1.2 -8.91155 572591 -2.3447e+06 2.92621e+06 2.39074e+06 133410 1.42952e+06
59 2 Si -0.487828 69.6258 1.4569 2.4 -34.7998 1.03546e+07 7.11015e+06 1.10467e+07 461015 1.26235e+06 5.04051e+06
60 3 O 1.05206 69.2837 1.45757 -1.2 -8.45219 -4.9427e+06 -2.28178e+06 -8.23748e+06 -1.49862e+06 1.73262e+06 -4.54024e+06
61 3 O -1.39068 73.4861 1.29585 -1.2 -9.05282 -2.90339e+06 -2.26991e+06 -3.258e+06 -1.4631e+06 324638 -1.32246e+06
62 3 O -1.25771 70.4163 0.30366 -1.2 -8.65547 -5.49527e+06 -1.84206e+06 -7.39148e+06 2.05056e+06 453773 -2.50273e+06
63 1 Mg -2.11556 79.7927 3.50816 1.2 -8.07783 -852429 2.64246e+06 -1.96049e+06 -2.52611e+06 907521 -638335
64 3 O -1.15179 70.1288 2.72737 -1.2 -7.61514 -6.77384e+06 -1.87186e+06 -5.90394e+06 1.67946e+06 -1.03058e+06 -2.6622e+06
65 1 Mg -2.55494 75.9477 4.48182 1.2 -9.78358 2.01316e+06 1.14184e+06 -1.35561e+06 2.57807e+06 2.38246e+06 -2.74173e+06
66 2 Si 0.36345 78.0021 4.65464 2.4 -35.2187 1.15787e+07 1.09679e+07 4.82612e+06 1.19493e+06 1.58422e+06 -1.37638e+06
67 3 O -1.26036 78.0487 4.52239 -1.2 -8.12414 -2.76004e+06 -2.53648e+06 -3.15486e+06 136498 1.33319e+06 1.24272e+06
68 3 O 1.24156 74.038 4.47031 -1.2 -7.34117 -5.16971e+06 -2.70025e+06 -3.8048e+06 -1.24804e+06 206781 764775
69 3 O 0.853383 77.0959 3.48886 -1.2 -7.73217 -7.55283e+06 -4.30487e+06 -2.8746e+06 546577 -485203 953886
70 3 O 1.00371 77.4439 5.98565 -1.2 -8.25752 -3.62684e+06 -6.085e+06 -4.96526e+06 95169.4 1.40729e+06 1.9767e+06
71 1 Mg -0.249264 73.7742 2.96346 1.2 -8.6436 2.23696e+06 3.50983e+06 307371 2.05611e+06 -2.1893e+06 2.40963e+06
72 1 Mg -0.57138 70.5133 4.61587 1.2 -9.99309 2.68171e+06 -537376 3.22518e+06 -1.08405e+06 634794 1.45099e+06
73 2 Si 1.78903 72.4762 4.3484 2.4 -36.367 9.479e+06 9.93044e+06 1.20882e+07 508638 -1.98627e+06 2.01388e+06
74 3 O -1.45633 72.3918 4.45489 -1.2 -7.74625 -5.79865e+06 -2.13923e+06 -4.49613e+06 1.96891e+06 -2.26484e+06 -1.67337e+06
75 3 O 0.738593 68.8636 4.33795 -1.2 -7.4597 -3.65759e+06 3.34512e+06 -3.15007e+06 1.63803e+06 -226760 -1.75663e+06
76 3 O 1.38769 72.0826 2.85267 -1.2 -7.61393 -5.28222e+06 -2.64527e+06 -5694.38 -447870 -689251 -1.63198e+06
77 1 Mg 0.0260325 74.4145 -0.0625037 1.2 -6.72566 -2.58971e+06 3.0442e+06 346131 1.5171e+06 1.59707e+06 33998.6
78 3 O 0.944268 71.8023 5.74376 -1.2 -7.09605 -4.26856e+06 -1.60978e+06 720932 269287 -1.16492e+06 -988284
79 1 Mg -0.174486 76.9665 1.80581 1.2 -8.50197 2.12241e+06 -334772 40267.6 -1.84411e+06 -1.33027e+06 -2.03506e+06
80 2 Si -2.08541 74.9454 1.56977 2.4 -33.3869 7.95473e+06 1.08863e+07 9.11991e+06 -1.05362e+06 -15676.2 329810
81 3 O 1.07689 74.8916 1.54239 -1.2 -8.85072 -1.47021e+06 -5.20967e+06 -4.70109e+06 602324 -1.29332e+06 580882
82 3 O -0.716523 78.8651 2.01315 -1.2 -8.68303 -2.16467e+06 -6.90084e+06 -5.14232e+06 1.70748e+06 -631647 3.93394e+06
83 3 O -1.29179 75.9122 0.644352 -1.2 -9.72413 -6.04671e+06 -5.279e+06 -2.21127e+06 979220 -2.08591e+06 1.99514e+06
84 3 O -1.54982 75.2825 3.18636 -1.2 -7.57499 -7.97923e+06 -4.36357e+06 -2.61097e+06 99248.3 3.86453e+06 -737841
85 1 Mg -2.23435 79.075 0.566787 1.2 -7.57495 -1.80055e+06 3.96857e+06 -483126 -99351.6 -947017 -3.73936e+06
86 1 Mg 2.59288 82.3311 1.59978 1.2 -8.25209 1.7481e+06 -80293.6 1.9813e+06 1.02943e+06 -273254 -2.01719e+06
87 2 Si -0.0738889 80.3631 1.85711 2.4 -33.4859 6.96244e+06 8.33071e+06 9.30035e+06 1.41348e+06 -229808 -3.43177e+06
88 3 O 1.47046 80.4796 2.01227 -1.2 -9.15457 -3.18888e+06 -2.21198e+06 -5.80353e+06 -330400 2.19831e+06 2.24639e+06
89 3 O -1.46727 84.3035 1.50044 -1.2 -9.46571 -2.51899e+06 1.89605e+06 -744707 -1.055e+06 -300339 822588
90 3 O -0.979851 80.8377 0.716639 -1.2 -9.14006 -5.04826e+06 -3.56275e+06 -6.57832e+06 1.51399e+06 1.40609e+06 3.92815e+06
91 1 Mg -2.77837 90.3037 3.30129 1.2 -7.45725 -5.98344e+06 1.18302e+06 -1.53036e+06 -1.87376e+06 441308 3.55208e+06
92 3 O -0.728426 80.9928 3.28555 -1.2 -8.69652 -5.5494e+06 -5.53502e+06 -1.81829e+06 -1.90015e+06 -2.2394e+06 1.19134e+06
93 1 Mg -2.83387 87.2892 4.74426 1.2 -7.59378 375579 870818 2.75358e+06 15754.6 28006.2 -1.60113e+06
94 2 Si -0.015284 89.3204 4.897 2.4 -32.3047 4.73749e+06 9.54765e+06 6.27069e+06 579324 -2695.2 800627
95 3 O -1.504 89.4446 4.5871 -1.2 -9.63883 -4.52169e+06 -3.51379e+06 -3.57598e+06 866535 313519 -526415
96 3 O 1.59186 85.3412 4.57683 -1.2 -9.50654 -1.99623e+06 -5.10778e+06 -1.21553e+06 -1.5781e+06 -735140 1.53847e+06
97 3 O 0.760335 88.7151 3.64694 -1.2 -8.40139 -5.11979e+06 -2.78513e+06 -6.94652e+06 -917164 -1.1372e+06 147211
98 3 O 0.71977 88.4446 5.94729 -1.2 -9.62831 -2.00414e+06 -3.34006e+06 -7.45821e+06 -1.11633e+06 1.52618e+06 2.67137e+06
99 1 Mg 0.155981 85.0775 2.81306 1.2 -6.99201 -2.24047e+06 4.37449e+06 -1.4853e+06 -767141 976066 1.28653e+06
100 1 Mg -0.00658331 82.0563 4.7152 1.2 -8.25117 751068 2.41952e+06 2.45434e+06 -732287 -815622 -1.56372e+06
101 2 Si 2.17933 83.8208 4.46516 2.4 -33.6256 6.5689e+06 8.01276e+06 8.39453e+06 913136 1.89794e+06 -781225
102 3 O -1.02854 84.0051 4.5818 -1.2 -9.32106 -4.30626e+06 -1.37218e+06 -2.25414e+06 1.66384e+06 2.52568e+06 1.44124e+06
103 3 O 1.11382 79.4521 4.7371 -1.2 -8.33223 -2.15146e+06 -6.09574e+06 -2.92931e+06 3.00383e+06 18563.6 2.68061e+06
104 3 O 1.31158 83.2147 3.22044 -1.2 -8.82581 -199384 -1.86965e+06 -4.18486e+06 -525645 1.1238e+06 437850
105 1 Mg -0.126449 85.0478 -0.219812 1.2 -7.07159 -750061 2.71493e+06 1.314e+06 366602 1.5441e+06 -2.05805e+06
106 3 O 1.68451 83.0677 5.69534 -1.2 -8.51914 -4.16671e+06 -4.06015e+06 -2.57681e+06 -950621 -63886.2 1.55782e+06
107 1 Mg -0.487403 88.1117 1.59572 1.2 -8.04431 2.25964e+06 -2.74021e+06 1.50183e+06 -637614 898390 489381
108 2 Si -2.09315 85.9309 1.49583 2.4 -32.16 3.66111e+06 1.38719e+07 5.34922e+06 -1.19311e+06 1.61914e+06 -951101
109 3 O 1.03464 85.7705 1.42629 -1.2 -9.63978 -681379 -6.34558e+06 -4.06614e+06 -1.42115e+06 3.12972e+06 2.57282e+06
110 3 O -1.10867 89.877 1.95675 -1.2 -8.71385 -6.70216e+06 -7.95297e+06 -3.88116e+06 212344 1.30417e+06 3.54543e+06
111 3 O -1.73315 86.6859 0.216335 -1.2 -9.32066 -2.79005e+06 -3.33434e+06 -5.62464e+06 -854230 1.07024e+06 588967
112 3 O -1.48647 86.811 2.61794 -1.2 -9.48219 -1.25122e+06 -2.33238e+06 -4.30138e+06 -803297 -378456 1.34629e+06
113 1 Mg -2.31175 90.2623 0.0770327 1.2 -7.13308 -135408 2.41425e+06 567361 885803 -111036 -1.64484e+06
114 1 Mg 2.56119 93.1155 1.70485 1.2 -7.22721 36390.1 1.74016e+06 -25771.8 1.45805e+06 808841 -84767.8
115 2 Si -0.415289 91.2449 2.21383 2.4 -31.9288 225907 1.11962e+07 6.02352e+06 958840 -87286.9 1.14408e+06
116 3 O 0.986024 91.0347 1.91645 -1.2 -9.44057 -7.78039e+06 -8.18925e+06 -2.13048e+06 -612176 -2.08428e+06 291500
117 3 O -1.53229 95.3155 1.90805 -1.2 -10.1883 -4.33335e+06 -2.32889e+06 -237326 -1.96467e+06 -267996 211666
118 3 O -1.19844 91.894 0.654132 -1.2 -9.34884 -870610 -4.99217e+06 2.16002e+06 613900 1.84668e+06 266228
119 1 Mg -2.4346 100.866 3.40175 1.2 -7.21289 -1.51151e+06 3.37167e+06 -315888 -49835.3 1.12483e+06 1.55239e+06
120 3 O -1.04228 92.1452 3.27391 -1.2 -10.0838 -3.38489e+06 -4.92375e+06 -4.38043e+06 197047 -508629 -2.18304e+06
121 1 Mg -2.29527 97.9755 4.63186 1.2 -7.45127 248023 829105 1.68851e+06 1.08782e+06 1.348e+06 -753153
122 2 Si 0.235622 99.7928 4.59139 2.4 -31.8551 4.74913e+06 1.35237e+07 1.01293e+07 -252963 454537 -2.04654e+06
123 3 O -1.37053 99.7928 4.87541 -1.2 -9.90926 -556764 -5.30597e+06 -5.61118e+06 -757144 381243 -242124
124 3 O 1.16614 95.9736 4.5437 -1.2 -9.71861 -1.32812e+06 -2.15956e+06 -3.31407e+06 -925777 -573147 417724
125 3 O 0.906733 99.3323 3.25059 -1.2 -10.1353 -2.35761e+06 -5.6086e+06 -2.81779e+06 22185.9 -2.03017e+06 -1.12917e+06
126 3 O 1.06655 98.9707 5.93904 -1.2 -8.99217 -3.26005e+06 -2.6431e+06 2.94272e+06 -1.67337e+06 2.30927e+06 -586509
127 1 Mg -0.080109 95.8047 3.1578 1.2 -6.96578 -3.06417e+06 3.12337e+06 -2.51621e+06 -300534 -2.53695e+06 512390
128 1 Mg 0.0401266 92.5792 4.71203 1.2 -7.7274 -6909.63 -1001.22 -1.41962e+06 -1.63494e+06 -1.31268e+06 -22533.4
129 2 Si 1.99366 94.4827 4.60452 2.4 -32.3921 3.98906e+06 1.09376e+07 9.29997e+06 -1.45509e+06 562343 -393741
130 3 O -1.34555 94.6425 5.04121 -1.2 -9.35298 -5.16336e+06 -5.04564e+06 -2.93571e+06 -309266 -516923 840172
131 3 O 0.838775 90.7665 4.95306 -1.2 -9.77358 -2.53301e+06 -8.25919e+06 -2.66192e+06 2.9139e+06 -151513 -2.94587e+06
132 3 O 1.42622 93.687 3.31953 -1.2 -9.44507 -1.67541e+06 -3.16612e+06 -1.40807e+06 1.0028e+06 737494 926172
133 1 Mg -0.254705 95.4673 0.285005 1.2 -6.52754 -1.63913e+06 3.18113e+06 -373871 571568 1.5514e+06 -2.38345e+06
134 3 O 1.22579 93.784 5.92249 -1.2 -8.92242 -7.12307e+06 -3.4228e+06 612073 -1.23967e+06 330876 -81235.3
135 1 Mg 0.0636502 98.8888 1.64189 1.2 -7.20006 -716772 -809902 -73949.2 -605669 -423054 -493206
136 2 Si -2.10839 96.8311 1.57938 2.4 -31.153 6.25312e+06 1.0328e+07 6.92436e+06 2.59126e+06 931916 -1.36396e+06
137 3 O 0.955459 96.604 1.77566 -1.2 -9.76568 2.50289e+06 -3.33061e+06 -4.19117e+06 1.7853e+06 158687 1.0509e+06
138 3 O -1.17644 100.603 1.7981 -1.2 -10.2273 -2.99424e+06 -4.64516e+06 -2.65252e+06 572316 -826645 -2.04445e+06
139 3 O -1.54528 97.3804 0.320934 -1.2 -10.3006 -2.60417e+06 -2.03487e+06 -6.2235e+06 -1.20171e+06 -1.24856e+06 2.32318e+06
140 3 O -1.48044 97.6949 2.9044 -1.2 -9.68598 -1.86743e+06 -3.82527e+06 -328143 471120 1.82042e+06 612491
141 1 Mg -2.67643 100.777 0.55258 1.2 -6.58522 -3.77385e+06 1.46627e+06 59826.2 -699611 -319383 -1.07441e+06
142 1 Mg 7.11766 103.707 1.73093 1.2 -8.63826 883286 -888848 5.11851e+06 1.53374e+06 832986 -916831
143 2 Si -0.443746 102.022 1.53727 2.4 -32.6192 2.62819e+06 7.72322e+06 1.25071e+07 800798 928.568 1.11329e+06
144 3 O 1.0963 101.885 1.65825 -1.2 -9.65697 -2.75372e+06 -4.57783e+06 -5.92264e+06 1.35248e+06 3.08333e+06 -1.63433e+06
145 3 O 2.82728 105.798 1.79107 -1.2 -8.45063 -3.19444e+06 -988472 -2.48791e+06 -2.21191e+06 17980.6 1.03369e+06
146 3 O -1.09997 102.923 0.468917 -1.2 -9.34314 -5.37109e+06 -642159 -5.49284e+06 1.73191e+06 -865728 76772.7
147 1 Mg 2.31758 111.984 3.00286 1.2 -8.04172 223569 2.80286e+06 698538 -1.09051e+06 1.68359e+06 1.32207e+06
148 3 O -0.856552 102.777 2.99307 -1.2 -7.77788 -4.99597e+06 -1.8198e+06 -1.24541e+06 836944 257798 676230
149 1 Mg 2.04999 108.588 4.78442 1.2 -7.93219 1.02818e+06 885459 712436 1.73375e+06 -366724 -31468.1
150 2 Si 4.99306 110.593 4.38548 2.4 -33.0629 6.04754e+06 1.14261e+07 4.8622e+06 -1.11941e+06 -1.03527e+06 -850764
151 3 O 3.46401 110.953 4.64592 -1.2 -8.73324 -1.2269e+06 -5.04627e+06 -2.29872e+06 -1.74285e+06 -1.41519e+06 1.37066e+06
152 3 O 5.81766 106.797 4.53495 -1.2 -8.5641 -3.63561e+06 -2.54081e+06 -3.30953e+06 -3.40411e+06 -148177 795506
153 3 O 5.49431 109.843 3.1923 -1.2 -9.35931 -3.50372e+06 -3.46338e+06 -1.83561e+06 896536 1.06139e+06 -227338
154 3 O 5.53724 110.024 5.77027 -1.2 -9.96177 -4.14189e+06 -2.63722e+06 -1.0268e+06 1.13065e+06 -12415.8 1.65007e+06
155 1 Mg 4.33528 106.64 3.35874 1.2 -8.14076 -979046 2.54356e+06 -2.32819e+06 462154 -206864 -246964
156 1 Mg 0.225761 103.241 4.78161 1.2 -9.23028 2.20018e+06 -824856 1.58749e+06 -1.33089e+06 1.17902e+06 -806484
157 2 Si 6.72305 105.287 4.76783 2.4 -34.4006 7.05943e+06 9.23531e+06 8.91275e+06 -2.64832e+06 -525528 -1.38144e+06
158 3 O 3.45578 105.508 4.79463 -1.2 -9.06068 -6.91481e+06 -5.09404e+06 -4.40443e+06 -1.37168e+06 -1.52832e+06 -639410
159 3 O 0.860732 101.309 4.76125 -1.2 -8.85344 -2.81521e+06 -3.63843e+06 -4.16724e+06 2.42507e+06 180681 1.09264e+06
160 3 O 6.20168 104.302 3.6742 -1.2 -7.68822 -6.49671e+06 -2.76798e+06 -4.68573e+06 -861681 673969 1.84455e+06
161 1 Mg 4.39519 105.954 0.573249 1.2 -7.38285 831705 2.2339e+06 1.2979e+06 -230234 -422.871 -1.73605e+06
162 3 O 5.95282 104.692 6.03805 -1.2 -8.68816 -2.77727e+06 -1.71865e+06 -5.93959e+06 -163645 -1.5916e+06 -1.07016e+06
163 1 Mg 4.41448 109.377 1.5177 1.2 -8.34074 2.11585e+06 1.15953e+06 1.34647e+06 -199822 -757993 -351620
164 2 Si 2.20839 107.447 1.74719 2.4 -33.6361 7.32718e+06 1.26007e+07 6.70443e+06 476607 803437 -740031
165 3 O 5.33391 107.133 1.74638 -1.2 -9.31854 -2.39337e+06 -3.28389e+06 -3.72727e+06 1.65197e+06 -565887 856792
166 3 O 3.53912 111.23 1.43931 -1.2 -8.78675 -4.42094e+06 -5.26963e+06 -2.31526e+06 2.21387e+06 -987551 -635163
167 3 O 2.95407 108.218 0.728189 -1.2 -8.9843 -3.11281e+06 -2.59265e+06 -6.74191e+06 386736 -374260 1.13352e+06
168 3 O 2.92292 108.056 3.06675 -1.2 -8.47662 -3.5492e+06 -4.46207e+06 -4.91489e+06 788209 2.63238e+06 1.64266e+06
169 1 Mg 2.29838 111.482 -0.117529 1.2 -7.70743 -2.42996e+06 3.56028e+06 309200 274112 -280424 -2.18038e+06
170 1 Mg 7.10049 114.922 1.26939 1.2 -8.14988 3.25096e+06 1.83484e+06 1.05785e+06 707932 -14802.5 514499
171 2 Si 4.45349 112.641 1.28992 2.4 -33.2354 6.85778e+06 1.01566e+07 9.90813e+06 901867 -964306 -1.15231e+06
172 3 O 5.95075 112.429 1.29281 -1.2 -9.37384 -5.39842e+06 -4.23022e+06 -2.22455e+06 1.32601e+06 1.11395e+06 658559
173 3 O 3.4242 116.825 1.16238 -1.2 -8.37401 -3.71995e+06 -2.33625e+06 -3.24307e+06 -874177 318040 -1.52708e+06
174 3 O 3.73167 113.326 0.101676 -1.2 -8.9418 -3.21763e+06 -2.47628e+06 -1.89718e+06 -675763 812725 2.11303e+06
175 1 Mg 2.72464 122.827 3.12861 1.2 -8.04713 2.64855e+06 4.62735e+06 -760887 -694076 -68089.5 1.18118e+06
176 3 O 3.84533 113.23 2.89047 -1.2 -8.1568 -2.23757e+06 -4.70614e+06 -17798.7 -842499 -3.36904e+06 965159
177 1 Mg 2.38749 119.271 3.99561 1.2 -8.2455 691788 531436 52544 1.6668e+06 831616 241611
178 2 Si 5.07475 121.536 4.72963 2.4 -34.0061 7.02585e+06 1.3043e+07 5.42829e+06 -234157 -1.29419e+06 -512176
179 3 O 3.62355 121.564 4.43836 -1.2 -8.95032 -6.34356e+06 -3.94207e+06 -659469 -792829 506655 -273005
180 3 O 5.97243 117.711 4.2261 -1.2 -8.99648 283693 -5.50331e+06 -3.8824e+06 -1.57138e+06 -1.01665e+06 -128355
181 3 O 5.83447 120.581 3.50324 -1.2 -8.16354 -4.48039e+06 -3.28904e+06 1.27382e+06 214378 -1.10573e+06 659544
182 3 O 5.76016 121.047 6.06913 -1.2 -8.89701 -3.18389e+06 -6.17557e+06 -3.6076e+06 -419712 1.47853e+06 -569029
183 1 Mg 4.47916 117.51 2.95396 1.2 -7.88746 -1.41071e+06 3.50507e+06 -41397 1.01625e+06 -1.15629e+06 2.47333e+06
184 1 Mg 4.49442 113.916 4.61421 1.2 -8.48914 763739 2.07296e+06 772466 -231113 43240.6 557821
185 2 Si 6.56299 116.104 4.00396 2.4 -33.3034 9.72449e+06 8.70931e+06 6.65644e+06 -902109 1.31859e+06 951721
186 3 O 3.45477 116.156 4.17176 -1.2 -9.24681 -1.07227e+06 -597962 -2.85792e+06 1.22574e+06 1.48196e+06 -338174
187 3 O 5.59547 112.236 4.40892 -1.2 -8.76195 -6.84028e+06 -1.20088e+06 -1.79995e+06 1.3239e+06 -1.52585e+06 1.454e+06
188 3 O 5.95262 115.663 2.67202 -1.2 -8.72237 -3.11539e+06 -3.08558e+06 -4.3402e+06 -1.00976e+06 785769 358658
189 1 Mg 4.969 117.013 -0.0569035 1.2 -8.20527 -112007 2.61627e+06 -1.25629e+06 965875 2.71901e+06 -1.02567e+06
190 3 O 5.88741 115.438 5.23901 -1.2 -9.30173 -4.16782e+06 -3.28321e+06 -3.27767e+06 298419 -1.97633e+06 1.38934e+06
191 1 Mg 4.90249 120.16 1.57663 1.2 -8.04579 1.28775e+06 3.38342e+06 2.43303e+06 -427856 310565 1.63625e+06
192 2 Si 2.60124 118.32 1.00932 2.4 -33.8886 6.14379e+06 1.15234e+07 6.99164e+06 -1.13573e+06 -48976.7 2.36369e+06
193 3 O 5.87591 118.093 1.36229 -1.2 -9.14861 -4.67338e+06 -4.8906e+06 -3.53384e+06 -849911 -906767 -168249
194 3 O 4.05768 122.184 1.39037 -1.2 -8.70426 -1.77092e+06 -1.65414e+06 -121573 600550 -813016 -443806
195 3 O 3.15907 118.99 -0.212321 -1.2 -8.44859 -4.1698e+06 -5.77414e+06 -4.13546e+06 1.71342e+06 -761120 -465022
196 3 O 3.32726 119.036 2.34785 -1.2 -9.15967 -4.41771e+06 -5.1227e+06 -1.55109e+06 1.32731e+06 1.82085e+06 -3.36757e+06
197 1 Mg 2.53876 122.483 0.192424 1.2 -7.84063 -311792 5.17254e+06 -737916 -914109 -1.49171e+06 -919701
198 1 Mg 7.41067 125.618 1.66675 1.2 -9.14396 1.55896e+06 962918 1.86664e+06 1.8021e+06 974239 567396
199 2 Si 4.68247 123.923 1.33596 2.4 -34.4648 6.57376e+06 1.12934e+07 8.04524e+06 901412 -531357 477316
200 3 O 6.18226 123.697 1.45205 -1.2 -8.76336 -3.47151e+06 -3.15098e+06 -4.46584e+06 -1.5628e+06 1.25314e+06 -229890
201 3 O 3.51757 127.572 1.53614 -1.2 -8.10827 -3.48845e+06 -6.29866e+06 -3.82133e+06 -45418.6 -28375.1 -3.28013e+06
202 3 O 3.93727 124.573 0.187854 -1.2 -8.29995 -7.45975e+06 -3.27432e+06 -3.10565e+06 326167 156657 -638625
203 1 Mg 2.6463 133.549 2.89501 1.2 -7.71803 293477 2.09031e+06 -484097 537815 -172369 850125
204 3 O 4.00131 124.47 2.68316 -1.2 -8.7211 -4.40486e+06 -4.22399e+06 -1.41188e+06 1.16326e+06 -1.33839e+06 -400610
205 1 Mg 2.48983 130.352 4.60005 1.2 -8.49085 3.82616e+06 834583 2.83399e+06 530348 -199765 2.25126e+06
206 2 Si 4.92132 132.304 4.30916 2.4 -35.423 6.76887e+06 9.58522e+06 7.9646e+06 -175861 -1.85577e+06 3.73231e+06
207 3 O 3.38689 132.292 4.22471 -1.2 -8.79685 -7.35513e+06 -2.64673e+06 -3.38224e+06 -538361 -2.12854e+06 -2.07499e+06
208 3 O 6.2778 128.322 4.66575 -1.2 -8.78952 -3.98696e+06 -7.84069e+06 -4.07324e+06 532000 808087 643883
209 3 O 5.73223 131.522 3.18458 -1.2 -7.60032 -4.61727e+06 -5.18843e+06 -4.03234e+06 -967008 -1.00684e+06 -3.59885e+06
210 3 O 5.52262 131.784 5.65434 -1.2 -8.25558 -3.68428e+06 -3.94777e+06 -5.42004e+06 -946393 1.82692e+06 -1.07254e+06
211 1 Mg 5.12722 128.107 2.81679 1.2 -8.86023 1.06846e+06 4.29008e+06 -2.56278e+06 1.06201e+06 -1.04348e+06 1.88675e+06
212 1 Mg 4.81688 125.118 4.54245 1.2 -8.69197 3.17895e+06 1.90468e+06 2.43466e+06 -977373 -476251 -325848
213 2 Si 6.98874 126.988 4.50954 2.4 -35.074 9.65374e+06 4.80347e+06 7.9594e+06 -541187 726898 477482
214 3 O 3.87624 127.005 4.45647 -1.2 -8.28227 -4.19022e+06 -2.33891e+06 -5.88609e+06 -1.86373e+06 247502 378267
215 3 O 5.8003 123.041 4.51368 -1.2 -8.67531 -1.70033e+06 -3.12703e+06 -701788 1.39304e+06 -1.25031e+06 -885292
216 3 O 6.33679 126.411 3.02764 -1.2 -7.83025 -5.44843e+06 -2.96663e+06 -2.31398e+06 -156036 3.18226e+06 -874595
217 1 Mg 5.13277 128.022 0.135445 1.2 -7.70889 -1.50853e+06 5.18451e+06 -4.4123e+06 600579 3.9352e+06 -278313
218 3 O 6.58708 126.157 5.61909 -1.2 -7.71609 -6.15634e+06 -5.97478e+06 -5.49332e+06 569293 813233 2.10337e+06
219 1 Mg 4.99644 131.421 1.40256 1.2 -8.62832 1.85581e+06 -463844 2.7214e+06 244247 -308369 -1.06778e+06
220 2 Si 3.03903 129.101 1.44786 2.4 -35.2479 7.20759e+06 9.9278e+06 7.07235e+06 671886 573439 -220045
221 3 O 6.27304 129.181 1.71164 -1.2 -8.11053 -6.72985e+06 -4.60101e+06 -3.69205e+06 1.97703e+06 5209.9 -319816
222 3 O 4.12169 133.103 1.5297 -1.2 -9.58913 -3.83447e+06 -5.45485e+06 -3.32667e+06 1.41339e+06 238492 -178592
223 3 O 3.70835 129.963 0.348948 -1.2 -8.75129 -3.92139e+06 442342 -5.35757e+06 -619447 653994 1.14251e+06
224 3 O 3.73146 129.539 2.83414 -1.2 -7.22607 -8.32379e+06 -5.88288e+06 -2.05818e+06 -1.08139e+06 -1.88285e+06 -1.2896e+06
225 1 Mg 2.70453 133.745 -0.0786135 1.2 -7.55419 -161318 2.70141e+06 318544 -451227 -208185 -2.03536e+06
226 1 Mg 7.36523 136.727 1.95854 1.2 -7.71103 857944 -135026 3.29466e+06 -278011 -74083.9 -502937
227 2 Si 4.72687 134.558 1.42646 2.4 -32.4641 6.28932e+06 7.97767e+06 1.12358e+07 -1.98452e+06 106398 -2.29756e+06
228 3 O 6.37898 134.377 1.39368 -1.2 -9.67692 49006.2 -3.67088e+06 -4.53638e+06 -1.36102e+06 759330 1.23913e+06
229 3 O 3.24812 138.606 1.88278 -1.2 -9.40339 -3.30644e+06 -3.42406e+06 -3.86916e+06 -2.72006e+06 771130 1.91216e+06
230 3 O 4.07572 135.316 0.091896 -1.2 -9.45317 -1.73554e+06 -330014 -1.35559e+06 -490916 1.55854e+06 -280594
231 1 Mg 2.10105 144.589 3.32074 1.2 -5.14506 -4.45027e+06 5.38517e+06 529195 -1.49469e+06 1.95097e+06 -344832
232 3 O 4.11244 135.327 2.6832 -1.2 -9.41168 -2.01938e+06 -2.38543e+06 -5.45056e+06 770715 -2.45747e+06 1.12811e+06
233 1 Mg 2.04423 141.131 4.94887 1.2 -7.04365 175143 449229 450584 688700 97997.4 -998725
234 2 Si 4.99081 143.327 4.76237 2.4 -29.2347 -732704 1.19551e+07 7.11312e+06 -350720 -938835 26875.4
235 3 O 3.56994 143.473 5.02107 -1.2 -10.7468 -3.21156e+06 -4.89706e+06 -3.98801e+06 -517397 -1.17596e+06 59675.1
236 3 O 6.07449 139.236 5.1324 -1.2 -10.1794 -4.46455e+06 -5.69055e+06 -3.09325e+06 -93146.3 -1.02193e+06 -1.42848e+06
237 3 O 5.89072 142.538 3.59 -1.2 -11.0435 1.35084e+06 -739321 -2.76814e+06 -1.00515e+06 -1.25003e+06 809402
238 3 O 5.66052 142.436 6.07639 -1.2 -10.4145 -3.81409e+06 -3.76198e+06 -414970 -604176 1.10823e+06 -1.60716e+06
239 1 Mg 4.55515 139.088 3.92855 1.2 -6.50284 -3.02203e+06 1.04064e+06 955811 976202 -1.56747e+06 1.80236e+06
240 1 Mg 4.87538 135.763 4.37312 1.2 -8.15145 1.95507e+06 45282.4 1.44904e+06 -709129 -1.41302e+06 -553819
241 2 Si 6.74365 137.839 5.14584 2.4 -33.0753 938784 8.31513e+06 9.39082e+06 752317 -655950 1.10205e+06
242 3 O 3.51128 137.948 5.12671 -1.2 -9.5566 -4.9861e+06 -6.02504e+06 -6.44297e+06 -853840 -2.11411e+06 -1.70085e+06
243 3 O 5.49823 133.788 4.23212 -1.2 -8.20085 -3.31364e+06 -6.05711e+06 -3.55788e+06 1.97685e+06 397373 -103369
244 3 O 6.42195 137.039 3.81539 -1.2 -9.0494 -2.38732e+06 -1.44976e+06 -5.69131e+06 -989279 -991298 609192
245 1 Mg 4.87358 139.093 0.75638 1.2 -7.10292 -2.84505e+06 2.11626e+06 -451174 -1.04958e+06 -430385 -1.95682e+06
246 3 O 6.04225 136.905 6.21938 -1.2 -9.01062 -2.61565e+06 -606395 -5.20082e+06 -287946 405150 -1.2602e+06
247 1 Mg 4.60078 142.198 1.98885 1.2 -6.2609 -1.55494e+06 519475 823405 -516132 -401221 -1.29304e+06
248 2 Si 2.59516 140.18 2.09753 2.4 -30.6402 -1.83895e+06 8.2334e+06 8.43326e+06 -1.45875e+06 1.3557e+06 1.48164e+06
249 3 O 5.94108 139.986 2.02372 -1.2 -10.4929 -8.48168e+06 -4.34016e+06 -3.40802e+06 986245 24875.5 -876930
250 3 O 3.82289 143.981 2.11734 -1.2 -11.694 205389 -5.84187e+06 59734.4 -291748 1.01637e+06 -830181
251 3 O 3.36827 140.942 1.06195 -1.2 -10.5873 -1.1495e+06 -5.24894e+06 -4.33676e+06 -1.20189e+06 312049 1.56441e+06
252 3 O 3.47019 140.619 3.59341 -1.2 -10.0736 1.37574e+06 -2.68253e+06 -2.77067e+06 1.07633e+06 2.27607e+06 503341
253 1 Mg 2.37719 144.516 0.207192 1.2 -4.81721 -1.02038e+07 5.03246e+06 -5.34041e+06 1.0313e+06 -3.10744e+06 -2.94405e+06
254 1 Mg 7.27757 147.88 2.40852 1.2 -5.74641 -408317 249774 1.73429e+06 -58609.1 384448 -1.38138e+06
255 2 Si 4.24657 145.519 1.85017 2.4 -28.4568 798511 1.15525e+07 3.75678e+06 88520.7 456674 -6.3801e+06
256 3 O 5.89549 145.438 1.69852 -1.2 -11.099 4.54727e+06 -5.51259e+06 -2.53944e+06 -1.09682e+06 966380 1.61491e+06
257 3 O 3.1142 149.656 2.6773 -1.2 -10.8723 -459311 -2.29416e+06 -1.17981e+06 -2.89553e+06 898866 175934
258 3 O 3.66577 146.189 0.450096 -1.2 -11.1533 -1.11764e+06 -358241 -336970 139237 -131192 1.00408e+06
259 1 Mg 1.27541 154.722 2.87591 1.2 -6.27455 -2.27825e+06 543103 1.24629e+06 985559 -1.10425e+06 194041
260 3 O 3.77775 146.234 3.05913 -1.2 -11.7325 479418 -5.70101e+06 -2.38642e+06 -618777 561096 -469876
261 1 Mg 0.969878 154.339 6.65981 1.2 -5.37489 -3.08777e+06 1.23713e+06 4.46992e+06 587424 -225236 -1.49095e+06
262 2 Si 3.33869 153.513 4.47465 2.4 -30.1487 3.62275e+06 1.21828e+07 6.39354e+06 -889765 -606911 -916280
263 3 O 2.16604 154.669 4.65931 -1.2 -10.5432 247832 68487.4 707806 -2.19299e+06 1.36163e+06 -712902
264 3 O 6.26473 150.31 5.36777 -1.2 -10.5483 1.38465e+06 1.55023e+06 -1.40095e+06 -1.02643e+06 -118458 3.76996e+06
265 3 O 4.16126 154.116 3.27252 -1.2 -9.6534 -1.50427e+06 -5.39418e+06 -1.74832e+06 224897 -256742 371812
266 3 O 4.43235 153.19 5.57383 -1.2 -11.4344 4.22345e+06 -1.74688e+06 -4.60568e+06 -553500 1.43136e+06 2.2703e+06
267 1 Mg 4.51359 149.882 4.20809 1.2 -5.84212 -1.18089e+06 2.92104e+06 853308 981677 -1.1003e+06 -1.65031e+06