ITEM: TIMESTEP
28400
ITEM: NUMBER OF ATOMS
5600
ITEM: BOX BOUNDS xy xz yz pp pp pp
0.0000000000000000e+00 7.1234999999999999e+00 0.0000000000000000e+00
0.0000000000000000e+00 2.0198500000000001e+02 2.3744999999999998e+00
0.0000000000000000e+00 1.1958400000000000e+02 0.0000000000000000e+00
ITEM: ATOMS id type element xu yu zu q c_pe c_s[1] c_s[2] c_s[3] c_s[4] c_s[5] c_s[6]
1 1 Mg -1.45117 49.5142 -0.647703 1.2 -6.97694 -2.08598e+06 -416615 1.70619e+06 347818 679600 -1.30857e+06
2 1 Mg 3.00267 51.0498 2.51906 1.2 -7.75181 -2.32258e+06 3.83793e+06 -1.56178e+06 264522 -965466 -1.54623e+06
3 2 Si 1.02519 51.006 0.69547 2.4 -32.1994 7.43433e+06 8.63395e+06 6.29524e+06 -1.57111e+06 -518573 1.38816e+06
4 3 O 2.44229 50.2548 0.870953 -1.2 -9.40234 -2.80295e+06 -2.88037e+06 -6.35403e+06 -1.04973e+06 -1.04285e+06 983492
5 3 O -1.19914 53.6236 1.94769 -1.2 -8.76628 -2.97109e+06 -5.62381e+06 -3.85028e+06 -1.00061e+06 460564 648799
6 3 O 0.308499 50.2886 -0.481584 -1.2 -9.62388 -4.98973e+06 -2.11885e+06 -4.23632e+06 854248 -85479.4 216248
7 1 Mg -2.38694 59.4823 3.53543 1.2 -7.2352 -2.24373e+06 5.41144e+06 -1.22342e+06 -1.14565e+06 1.98264e+06 762701
8 3 O 0.205032 51.0417 2.05127 -1.2 -9.47586 -3.1365e+06 -3.98676e+06 -3.85421e+06 -630328 -2.28252e+06 -212794
9 1 Mg -2.0679 56.4958 4.98484 1.2 -8.28881 40692.2 1.31414e+06 988837 1.08529e+06 285548 -560712
10 2 Si 0.454235 58.2344 4.7916 2.4 -32.4864 5.36603e+06 1.06251e+07 7.36036e+06 -260952 402601 945003
11 3 O -1.09181 58.339 4.93136 -1.2 -9.7505 -1.66953e+06 -5.18652e+06 -4.55743e+06 -817678 -646720 -150410
12 3 O 1.79105 54.2145 5.25222 -1.2 -8.79476 -4.79835e+06 -2.79145e+06 -2.79912e+06 -935786 1.46986e+06 200566
13 3 O 1.17072 57.6917 3.51584 -1.2 -9.3089 -3.84864e+06 -3.06167e+06 -1.79779e+06 695902 -728384 -82898.2
14 3 O 1.17882 57.5486 6.0406 -1.2 -9.34406 -4.31835e+06 -5.38679e+06 -2.88612e+06 -392375 1.73148e+06 1.50816e+06
15 1 Mg 0.303302 53.4619 3.29093 1.2 -7.87854 871714 4.29376e+06 -582402 176938 144715 292101
16 1 Mg 0.843184 49.9206 3.47616 1.2 -7.20726 -2.37287e+06 1.62124e+06 -3.85447e+06 471759 427626 976939
17 2 Si 2.52074 52.7918 5.07282 2.4 -33.8785 6.97701e+06 1.13318e+07 6.67629e+06 -718250 -563365 -829488
18 3 O -0.74296 53.0473 4.88833 -1.2 -8.97887 -5.64454e+06 -6.39381e+06 -2.70582e+06 1.44203e+06 -1.10016e+06 39398.5
19 3 O 2.51452 49.2864 3.54171 -1.2 -7.5363 -1.65508e+06 -2.13372e+06 -2.10905e+06 869507 -7946.15 -843432
20 3 O 1.98716 52.0775 3.78195 -1.2 -8.76451 -5.56286e+06 -4.78674e+06 -3.99499e+06 -1.93201e+06 572810 147251
21 1 Mg 0.152039 54.192 0.55432 1.2 -7.75136 -1.20153e+06 2.17362e+06 -242641 1.4803e+06 1.9759e+06 -1.12166e+06
22 3 O 1.88137 51.7726 6.27302 -1.2 -10.0908 -4.92118e+06 -5.78864e+06 -4.5612e+06 775593 -626565 -12830.7
23 1 Mg 0.323073 56.9661 1.73156 1.2 -7.98332 2.38669e+06 1.51484e+06 1.12165e+06 -1.06029e+06 597935 -51962.1
24 2 Si -1.88341 55.0667 2.0478 2.4 -34.0478 5.90473e+06 1.07495e+07 9.35033e+06 484899 -23996.3 -280764
25 3 O 1.28482 54.9194 2.11051 -1.2 -9.37052 -2.91868e+06 -2.31973e+06 -2.95565e+06 450883 -602455 -1.44958e+06
26 3 O -0.901295 58.8497 2.00476 -1.2 -9.23398 661918 -3.53182e+06 -1.93611e+06 1.07869e+06 -548111 1.10101e+06
27 3 O -1.18201 55.7923 0.793406 -1.2 -9.00385 -1.71849e+06 -4.22274e+06 -2.76985e+06 414867 -1.42466e+06 50138.6
28 3 O -1.36328 55.7771 3.37819 -1.2 -8.37591 -3.65256e+06 -3.98395e+06 -2.0163e+06 529643 1.05335e+06 463548
29 1 Mg -2.3354 59.2867 0.534397 1.2 -7.44747 -1.98741e+06 4.1939e+06 -752166 -1.46507e+06 -1.21721e+06 -2.40757e+06
30 1 Mg 2.26884 62.3082 1.65746 1.2 -7.88723 102750 1.11147e+06 -1.30703e+06 651223 228908 -118737
31 2 Si -0.23663 60.4206 1.96421 2.4 -32.281 5.15452e+06 1.3361e+07 5.3912e+06 917516 -175915 -671896
32 3 O 1.32723 60.473 1.91292 -1.2 -10.0854 -2.04892e+06 -4.40531e+06 -2.56562e+06 -570095 331113 -446601
33 3 O -1.17139 64.0011 1.75426 -1.2 -9.76095 -1.45697e+06 -5.18101e+06 -3.36328e+06 -1.78294e+06 972540 959147
34 3 O -0.994126 61.0814 0.724709 -1.2 -9.66155 -2.19941e+06 -3.71162e+06 -3.24409e+06 -402538 1.442e+06 9650.02
35 1 Mg -2.17634 69.8386 3.24968 1.2 -7.50801 214172 4.76974e+06 -838680 -433281 1.49494e+06 1.18766e+06
36 3 O -0.885429 61.0224 3.25544 -1.2 -9.45696 -2.05235e+06 -5.69714e+06 -2.69446e+06 339142 -1.13422e+06 -615465
37 1 Mg -2.08602 66.8097 4.90347 1.2 -8.2083 908785 925189 1.09749e+06 1.78914e+06 -375617 263128
38 2 Si 0.585788 68.5995 4.82057 2.4 -32.9352 5.14578e+06 1.0194e+07 8.81446e+06 -523635 -949934 681308
39 3 O -0.954877 68.7301 4.84684 -1.2 -9.52712 -1.54311e+06 -3.88153e+06 -3.55605e+06 -655585 264270 -180200
40 3 O 1.59311 64.9107 4.83761 -1.2 -9.44883 -1.59395e+06 -5.78256e+06 -2.68936e+06 -734678 824813 1.2749e+06
41 3 O 1.19552 67.9592 3.39352 -1.2 -8.76971 -2.74808e+06 -2.69952e+06 -648715 454073 -1.08068e+06 317526
42 3 O 1.23252 67.8161 5.98962 -1.2 -9.46009 -3.69475e+06 -3.90808e+06 -3.00252e+06 70756 37124.9 797644
43 1 Mg 0.166948 64.3539 3.29658 1.2 -7.21469 -1.48995e+06 5.32245e+06 -1.11519e+06 1.20833e+06 -1.16674e+06 1.64182e+06
44 1 Mg 0.0852132 61.4854 4.95774 1.2 -7.5063 490666 1.6079e+06 939521 -402908 324353 -408125
45 2 Si 2.23281 63.4085 4.75815 2.4 -32.1242 2.48244e+06 1.23722e+07 7.80259e+06 -587428 -595477 663685
46 3 O -0.97839 63.4612 4.77075 -1.2 -10.1849 -1.98251e+06 -4.8378e+06 -3.29733e+06 610453 -335118 -526043
47 3 O 1.1522 59.7661 4.98126 -1.2 -9.82549 -2.79655e+06 -5.253e+06 -2.38669e+06 1.82935e+06 1.39634e+06 353474
48 3 O 1.59366 62.8511 3.3621 -1.2 -9.58573 -3.14389e+06 -5.26742e+06 -1.11907e+06 489981 1.57652e+06 -1.45049e+06
49 1 Mg 0.0256968 64.5657 0.358265 1.2 -7.25657 -2.11389e+06 3.64617e+06 -1.46297e+06 856928 1.86614e+06 -1.35291e+06
50 3 O 1.52918 62.7941 6.04245 -1.2 -9.84403 -1.50111e+06 -4.58626e+06 -369157 -119645 -322267 1.21844e+06
51 1 Mg 0.176385 67.3008 1.8158 1.2 -8.27889 1.76467e+06 970268 2.02286e+06 -1.11051e+06 -476177 -292749
52 2 Si -1.90408 65.5023 1.84408 2.4 -32.3128 4.4945e+06 1.22946e+07 7.76316e+06 -1.12301e+06 1.20824e+06 949282
53 3 O 1.274 65.4832 1.77993 -1.2 -9.8858 -502108 -4.83702e+06 -3.26334e+06 -377682 720615 -539764
54 3 O -0.766077 69.2555 1.82131 -1.2 -9.29208 -1.74165e+06 -4.20879e+06 -2.86697e+06 1.50363e+06 -925281 -466746
55 3 O -1.29443 66.201 0.586319 -1.2 -9.54403 -3.75656e+06 -4.86752e+06 -2.5432e+06 526019 -395880 224650
56 3 O -1.22013 66.1199 3.19421 -1.2 -9.28593 -2.67498e+06 -3.15107e+06 -621021 244908 1.24879e+06 296743
57 1 Mg -2.13 69.7317 0.311041 1.2 -7.59458 -2.24559e+06 4.79043e+06 -1.6304e+06 -728416 -1.06719e+06 -2.34034e+06
58 1 Mg 2.49351 72.5868 1.96852 1.2 -8.35657 1.44294e+06 947621 2.16689e+06 250756 727585 -344977
59 2 Si -0.04251 70.7283 1.68752 2.4 -32.8977 4.88693e+06 1.26481e+07 7.02605e+06 384459 -1.21265e+06 -778680
60 3 O 1.54088 70.7266 1.69195 -1.2 -9.80793 -1.70268e+06 -4.94888e+06 -3.75484e+06 416817 1.02692e+06 867163
61 3 O -1.25559 74.4602 1.93675 -1.2 -9.07902 -4.95937e+06 -4.65594e+06 -4.15987e+06 -1.10623e+06 -1.2351e+06 -1.04513e+06
62 3 O -0.723471 71.5181 0.561933 -1.2 -9.29303 -4.52407e+06 -3.18109e+06 -2.97246e+06 -110393 151581 568583
63 1 Mg -2.25209 80.1045 3.12558 1.2 -7.87103 -618938 4.16279e+06 -517102 -245646 1.18475e+06 1.4351e+06
64 3 O -0.619227 71.3864 3.09876 -1.2 -9.02222 -1.7499e+06 -4.34216e+06 -1.7256e+06 -382929 -1.36607e+06 94741.4
65 1 Mg -2.30763 77.2399 4.65413 1.2 -8.39625 733336 436395 1.58468e+06 1.43932e+06 863588 239221
66 2 Si 0.372371 79.0168 4.66214 2.4 -33.1128 6.2824e+06 8.32521e+06 7.47446e+06 -400498 -2.05046e+06 563861
67 3 O -1.19612 79.1992 4.69525 -1.2 -9.52545 -2.87481e+06 -4.22623e+06 -3.90624e+06 -1.25259e+06 -157493 -454675
68 3 O 1.44203 75.3877 4.70709 -1.2 -9.03533 -2.128e+06 -4.37217e+06 -2.75189e+06 -2.08852e+06 697199 -1.0819e+06
69 3 O 1.17887 78.3481 3.39082 -1.2 -8.71667 -2.32456e+06 -6.46545e+06 -1.86365e+06 -224439 -1.53263e+06 -1.71475e+06
70 3 O 1.07435 78.4731 5.91668 -1.2 -9.45153 -3.50384e+06 -3.71291e+06 -5.77955e+06 -26832.3 888696 1.59595e+06
71 1 Mg 0.0579803 74.6749 3.24988 1.2 -8.02746 -973533 3.91006e+06 -1.85507e+06 596042 -1.93728e+06 1.50953e+06
72 1 Mg 0.239902 71.9038 4.81964 1.2 -8.08191 231271 1.64595e+06 792093 -605255 244086 223783
73 2 Si 2.27424 73.9587 4.95023 2.4 -32.5687 5.57493e+06 1.05838e+07 7.67812e+06 -478207 706198 -271744
74 3 O -0.978932 74.0208 4.86102 -1.2 -9.78425 -4.4322e+06 -4.24027e+06 -3.23307e+06 -329908 -1.22304e+06 233714
75 3 O 1.27806 70.0838 4.80829 -1.2 -9.71138 -4.15569e+06 -4.20562e+06 -3.8528e+06 1.6324e+06 -1.27637e+06 -227294
76 3 O 1.63003 73.1909 3.58905 -1.2 -8.74132 -2.94736e+06 -4.51355e+06 -2.15832e+06 -84357.4 2.15605e+06 -363707
77 1 Mg 0.19807 75.0296 0.307389 1.2 -7.83726 -22572.7 2.96057e+06 231950 334335 1.38838e+06 -1.64508e+06
78 3 O 1.46528 73.2401 6.10607 -1.2 -9.82736 -1.87559e+06 -1.81807e+06 -5.5113e+06 452121 -1.80168e+06 1.04515e+06
79 1 Mg 0.237855 77.7462 1.65567 1.2 -8.08711 2.03498e+06 1.23604e+06 2.93366e+06 -1.02208e+06 112946 -120178
80 2 Si -1.87097 75.9318 1.8685 2.4 -33.4108 6.93418e+06 9.5935e+06 9.17524e+06 957453 -239595 527711
81 3 O 1.25148 75.7696 1.84306 -1.2 -9.25023 -442451 -3.24945e+06 -4.7711e+06 967613 -97259.3 -851898
82 3 O -0.847507 79.6187 1.61963 -1.2 -9.26108 -1.90538e+06 -2.95011e+06 -2.08738e+06 768785 -463279 -705060
83 3 O -1.2243 76.5917 0.552652 -1.2 -9.28014 -2.58065e+06 -3.41534e+06 -2.4295e+06 420828 -1.22534e+06 -83863.2
84 3 O -1.28576 76.6208 3.16092 -1.2 -8.83707 -4.60436e+06 -4.18227e+06 -2.95606e+06 544011 1.15809e+06 -1.10316e+06
85 1 Mg -2.16186 80.1473 0.114635 1.2 -7.7456 -1.99646e+06 4.15967e+06 -285391 -755090 -1.62981e+06 -911761
86 1 Mg 2.39365 82.9231 1.5785 1.2 -8.10152 831476 1.65164e+06 1.63119e+06 885233 161499 -216217
87 2 Si -0.15545 81.1559 1.6571 2.4 -32.9673 5.09796e+06 1.16305e+07 7.00576e+06 -151700 130544 -207136
88 3 O 1.39516 81.0049 1.60886 -1.2 -9.73606 -2.37012e+06 -4.05122e+06 -3.97708e+06 -525043 201592 -120060
89 3 O -1.28224 84.8404 1.53182 -1.2 -8.93329 -1.7913e+06 -4.46235e+06 -3.36872e+06 -1.24557e+06 -740473 -1.85739e+06
90 3 O -0.851139 81.8885 0.431275 -1.2 -9.28509 -2.50744e+06 -3.64347e+06 -2.49621e+06 -157979 390232 367886
91 1 Mg -2.31646 90.5888 2.96239 1.2 -8.38024 -717804 2.52124e+06 159463 -773244 1.69532e+06 2.68145e+06
92 3 O -0.84228 81.7844 2.90538 -1.2 -9.16331 -3.02137e+06 -4.51649e+06 -4.06952e+06 302475 -776117 -748952
93 1 Mg -2.01531 87.8216 4.43993 1.2 -8.63246 1.92284e+06 408436 2.75663e+06 455972 408635 802820
94 2 Si 0.489599 89.5689 4.66217 2.4 -33.782 9.73041e+06 8.33342e+06 9.40062e+06 -611162 -1.21264e+06 2.27869e+06
95 3 O -1.16178 89.6347 4.56556 -1.2 -8.89264 -292808 -2.86108e+06 -3.88551e+06 -376424 -135642 -723618
96 3 O 1.47289 85.7528 4.23422 -1.2 -8.47882 -2.95037e+06 -2.76701e+06 -3.10679e+06 -1.6512e+06 -40201.8 -53482.7
97 3 O 1.1624 88.898 3.32548 -1.2 -8.5956 -2.72507e+06 -2.98151e+06 -1.14491e+06 -714000 -1.18832e+06 -1.22546e+06
98 3 O 1.04695 88.9543 5.95527 -1.2 -8.98275 -3.90212e+06 -3.01021e+06 -4.64176e+06 436121 990308 339690
99 1 Mg 0.092423 85.0818 2.93567 1.2 -8.05403 -1.04169e+06 4.04269e+06 -715799 803775 -1.47451e+06 2.03567e+06
100 1 Mg 0.123203 82.4417 4.60824 1.2 -7.73566 592677 1.85974e+06 1.12903e+06 -985273 169797 1.49907e+06
101 2 Si 2.20407 84.2635 4.43376 2.4 -32.5022 5.36267e+06 1.19497e+07 8.0608e+06 -1.17719e+06 -526745 297856
102 3 O -1.00803 84.3477 4.47775 -1.2 -9.88317 -2.22879e+06 -5.08862e+06 -3.23346e+06 347542 -195532 287038
103 3 O 1.04603 80.4272 4.47015 -1.2 -9.17261 -4.04674e+06 -7.75558e+06 -3.66226e+06 1.43278e+06 -31399.5 -254610
104 3 O 1.48354 83.4711 3.24453 -1.2 -9.57685 -2.81847e+06 -5.45043e+06 -1.37472e+06 527574 1.44043e+06 -1.76491e+06
105 1 Mg 0.189118 85.3104 -0.0307494 1.2 -7.90369 -1.16693e+06 3.63245e+06 72977.2 842687 748436 -698024
106 3 O 1.40481 83.7824 5.8148 -1.2 -9.83545 -1.75388e+06 -2.8408e+06 -2.36433e+06 1.27466e+06 -1.99512e+06 407145
107 1 Mg 0.0415318 88.1672 1.60379 1.2 -8.82317 1.9222e+06 258130 3.43989e+06 -1.24515e+06 336185 666298
108 2 Si -1.96122 86.3673 1.49276 2.4 -34.0107 7.25794e+06 7.80792e+06 9.94537e+06 -1.36619e+06 686139 1.71987e+06
109 3 O 1.2653 86.2831 1.42969 -1.2 -9.06651 -4.02144e+06 -1.9922e+06 -5.5585e+06 852281 120809 -227504
110 3 O -0.939226 90.0299 1.57126 -1.2 -8.93106 -3.2847e+06 -1.80888e+06 -4.66452e+06 1.60998e+06 360926 -1.47912e+06
111 3 O -1.23881 87.0051 0.296356 -1.2 -8.9061 -4.70322e+06 -2.97869e+06 -4.62639e+06 -342944 -633888 844214
112 3 O -1.19579 86.9505 2.84282 -1.2 -8.4322 -4.25941e+06 -2.29918e+06 -2.85467e+06 19810.6 1.92938e+06 -864182
113 1 Mg -2.30897 90.6624 0.139223 1.2 -7.8604 -714280 2.95204e+06 655428 -746543 -1.06775e+06 -1.68796e+06
114 1 Mg 2.4767 93.5454 1.56057 1.2 -8.34101 2.67689e+06 441558 3.52419e+06 799220 234668 -770734
115 2 Si -0.25124 91.5544 1.52862 2.4 -33.1366 5.46906e+06 9.72566e+06 1.08435e+07 237300 -1.3166e+06 259877
116 3 O 1.29342 91.5067 1.54473 -1.2 -9.52192 -2.47689e+06 -3.17213e+06 -5.34805e+06 -171369 -897051 -394545
117 3 O -1.27052 95.4389 1.41073 -1.2 -9.05477 -3.67508e+06 -3.63353e+06 -4.51257e+06 -655306 -908944 112250
118 3 O -0.906446 92.2685 0.278517 -1.2 -9.28086 -3.35684e+06 -1.74228e+06 -3.36156e+06 41295.8 1.15235e+06 -674942
119 1 Mg -2.53796 101.149 3.0327 1.2 -7.64239 -786554 3.23646e+06 415448 -1.25474e+06 1.37146e+06 1.86519e+06
120 3 O -1.05431 92.1863 2.8459 -1.2 -8.89336 -2.45046e+06 -2.64903e+06 -2.32597e+06 -1.12887e+06 -809386 -300469
121 1 Mg -2.32208 98.2513 4.51298 1.2 -8.19353 2.33528e+06 -167471 3.01648e+06 643921 -439709 703741
122 2 Si 0.184388 100.108 4.51401 2.4 -33.243 2.09785e+06 9.74153e+06 1.10764e+07 -220754 789105 331585
123 3 O -1.30189 100.225 4.5039 -1.2 -9.75088 -4.76057e+06 -3.64039e+06 -4.97275e+06 -222501 532379 -787224
124 3 O 1.25006 96.3767 4.48866 -1.2 -9.28536 -2.3302e+06 -1.52836e+06 -2.82189e+06 -1.47501e+06 -299120 -510404
125 3 O 0.876136 99.4137 3.27636 -1.2 -9.20159 -2.53847e+06 -2.38927e+06 -2.92367e+06 -321526 -466322 -901254
126 3 O 0.892555 99.4482 5.84458 -1.2 -8.84873 -2.43644e+06 -2.38781e+06 -3.30368e+06 -452359 960153 -598000
127 1 Mg -0.057801 96.0154 2.95435 1.2 -7.74746 -2.2722e+06 2.47447e+06 1.14572e+06 1.47783e+06 -2.32619e+06 2.52695e+06
128 1 Mg 0.040101 92.9185 4.45904 1.2 -8.50778 2.68123e+06 539325 4.00035e+06 -1.33768e+06 -303208 125143
129 2 Si 1.93941 94.8334 4.41597 2.4 -32.9432 8.74779e+06 9.16337e+06 9.17832e+06 -946820 -291853 1.12565e+06
130 3 O -1.18571 94.9258 4.37665 -1.2 -9.32953 466352 -2.37198e+06 -3.40577e+06 33421.7 -42984.1 -611683
131 3 O 1.17642 91.0608 4.5612 -1.2 -8.78012 -3.71014e+06 -2.44569e+06 -3.71476e+06 1.15441e+06 92193.7 -1.61804e+06
132 3 O 1.32987 94.1616 3.13779 -1.2 -9.26266 -3.15155e+06 -1.1897e+06 -3.46251e+06 620127 43147.5 -567796
133 1 Mg 0.132259 96 -0.0534382 1.2 -8.04407 -714840 2.88222e+06 -274235 559435 1.15501e+06 -2.38842e+06
134 3 O 1.29349 94.1355 5.72051 -1.2 -9.09206 -3.35314e+06 -2.10013e+06 -1.95904e+06 178317 -940814 -220194
135 1 Mg 0.0302201 98.7255 1.44388 1.2 -8.27806 1.48295e+06 -538673 3.93135e+06 -1.3527e+06 83157.1 1.06287e+06
136 2 Si -1.99581 96.8639 1.5077 2.4 -33.1191 5.01721e+06 8.27335e+06 9.09743e+06 -102642 692895 1.75281e+06
137 3 O 1.19064 96.7554 1.39482 -1.2 -9.51605 -2.73931e+06 -3.94108e+06 -4.3608e+06 -719433 573789 -325202
138 3 O -1.0745 100.608 1.45414 -1.2 -9.17059 -605409 -4.48123e+06 -3.81551e+06 302542 68767.7 -991553
139 3 O -1.40651 97.6438 0.325623 -1.2 -8.83503 -4.24056e+06 -4.51281e+06 -4.17611e+06 -694069 184838 919136
140 3 O -1.30282 97.5493 2.84037 -1.2 -9.27808 -1.98118e+06 -2.52933e+06 -4.09348e+06 722141 243653 287472
141 1 Mg -2.60482 101.13 0.0236531 1.2 -7.44377 80273.6 3.96324e+06 965227 -1.13815e+06 -1.28425e+06 -790155
142 1 Mg 6.81996 103.948 1.46769 1.2 -8.27943 743425 148467 1.852e+06 469735 -25356.9 -174221
143 2 Si -0.512701 102.104 1.48874 2.4 -33.0265 4.77662e+06 9.39052e+06 9.07176e+06 330097 531203 984.693
144 3 O 1.08944 102.104 1.48999 -1.2 -9.73648 -1.62061e+06 -3.3059e+06 -4.02501e+06 -1.11791e+06 -921929 -440413
145 3 O 3.07615 105.749 1.49403 -1.2 -9.25616 -3.2796e+06 -5.70422e+06 -2.79446e+06 -1.48449e+06 -741684 -952958
146 3 O -1.08527 102.739 0.118958 -1.2 -9.1533 -2.05159e+06 -3.62088e+06 -2.09296e+06 78582.2 768717 -274472
147 1 Mg 2.15345 111.463 2.9025 1.2 -8.34993 -777671 3.64544e+06 -1.23316e+06 -536124 1.37686e+06 1.91942e+06
148 3 O -1.25874 102.711 2.7023 -1.2 -9.27942 -3.75169e+06 -4.15192e+06 -3.61644e+06 353608 -169112 -1.4318e+06
149 1 Mg 2.16028 108.558 4.31247 1.2 -8.68405 2.60697e+06 884794 1.9958e+06 928585 191511 -256168
150 2 Si 4.84988 110.491 4.37928 2.4 -34.2654 6.64216e+06 9.16818e+06 8.31654e+06 519797 514442 518479
151 3 O 3.3552 110.58 4.37233 -1.2 -9.11367 -5.81416e+06 -3.55664e+06 -3.21311e+06 62458.3 276346 490561
152 3 O 5.86752 106.678 4.26885 -1.2 -9.24979 -1.69411e+06 -3.82172e+06 -3.61487e+06 -1.25667e+06 106411 210528
153 3 O 5.576 109.785 3.08981 -1.2 -8.37649 -3.3564e+06 -3.64133e+06 -3.06452e+06 -976350 -1.25963e+06 -520741
154 3 O 5.58505 109.813 5.62358 -1.2 -8.58816 -3.19927e+06 -3.87214e+06 -3.75578e+06 -644484 789816 1.76856e+06
155 1 Mg 4.51214 106.014 2.92523 1.2 -7.63337 -914264 4.5001e+06 -444303 870942 -1.71744e+06 764789
156 1 Mg -0.210158 103.382 4.49362 1.2 -8.19709 1.46588e+06 -228006 3.45049e+06 -738104 60678.8 100463
157 2 Si 6.5873 105.161 4.47325 2.4 -32.7699 3.89709e+06 1.06332e+07 8.78967e+06 -1.06672e+06 427063 -1.4005e+06
158 3 O 3.40085 105.157 4.50045 -1.2 -9.83042 -1.6703e+06 -3.49359e+06 -4.36358e+06 -257291 -401099 526725
159 3 O 0.861507 101.624 4.4557 -1.2 -9.13532 -2.81683e+06 -2.94096e+06 -4.09252e+06 442327 540260 -461467
160 3 O 5.95137 104.468 3.20024 -1.2 -9.27615 -2.86266e+06 -5.59999e+06 -3.3551e+06 340228 1.1174e+06 -775984
161 1 Mg 4.50834 106.234 -0.0224658 1.2 -8.00337 73719.7 4.35103e+06 -860270 815099 666921 -958612
162 3 O 5.91564 104.605 5.76215 -1.2 -9.18431 -3.49457e+06 -2.6781e+06 -3.4469e+06 -520765 -263594 523933
163 1 Mg 4.61397 109.14 1.3775 1.2 -9.06321 2.91372e+06 830733 1.89038e+06 -721435 228724 694591
164 2 Si 2.44997 107.225 1.53195 2.4 -34.1447 7.36843e+06 1.01563e+07 7.96031e+06 934696 598271 -7245.15
165 3 O 5.65767 107.171 1.39332 -1.2 -8.98954 -3.23841e+06 -3.58065e+06 -4.50191e+06 1.1008e+06 916546 -362119
166 3 O 3.55665 110.963 1.3914 -1.2 -8.53978 -4.35657e+06 -4.95812e+06 -3.27149e+06 935323 -439547 -495793
167 3 O 3.12503 108.006 0.243349 -1.2 -8.40204 -5.11592e+06 -2.48615e+06 -2.76756e+06 244266 -1.67176e+06 -362114
168 3 O 3.20737 107.892 2.7433 -1.2 -8.61602 -3.47143e+06 -2.65141e+06 -4.31122e+06 -3287.07 855481 -768420
169 1 Mg 2.19701 111.399 -0.0796494 1.2 -7.9701 -778198 4.10292e+06 -111856 -968335 -1.32814e+06 -1.95389e+06
170 1 Mg 6.99369 114.144 1.44479 1.2 -8.53324 986175 156445 2.29191e+06 1.38108e+06 498328 -465850
171 2 Si 4.25389 112.447 1.42026 2.4 -33.5054 5.60353e+06 1.21037e+07 6.74511e+06 588882 515181 -481316
172 3 O 5.78063 112.225 1.44157 -1.2 -9.33448 -3.57465e+06 -5.50116e+06 -3.60303e+06 -698162 473846 511697
173 3 O 3.13738 115.959 1.28712 -1.2 -8.96984 -3.11507e+06 -4.243e+06 -3.40726e+06 -1.60461e+06 786609 -282701
174 3 O 3.47115 113.147 0.194114 -1.2 -9.18514 -3.5929e+06 -5.72606e+06 -2.37409e+06 -265129 1.46158e+06 865182
175 1 Mg 2.16638 121.828 2.81574 1.2 -7.911 -899977 3.70175e+06 -150979 -458078 726730 1.54315e+06
176 3 O 3.61545 113.04 2.73755 -1.2 -8.98839 -3.63634e+06 -5.69328e+06 -2.36673e+06 102090 -782450 -852021
177 1 Mg 2.2275 118.987 4.23807 1.2 -8.92906 1.94609e+06 -266380 3.37462e+06 760398 203842 260744
178 2 Si 4.88307 120.744 4.39956 2.4 -34.1229 6.57508e+06 1.0553e+07 7.79165e+06 -514886 -1.19656e+06 -852261
179 3 O 3.34186 120.818 4.41435 -1.2 -9.20558 -3.49306e+06 -3.40507e+06 -2.78668e+06 -1.06562e+06 -457748 791410
180 3 O 6.00634 117.204 4.33595 -1.2 -8.66744 -2.97207e+06 -3.15187e+06 -3.42332e+06 -1.40624e+06 89817.5 616878
181 3 O 5.648 120.057 3.13582 -1.2 -8.78046 -2.26064e+06 -3.46589e+06 -3.10926e+06 43447.9 -990223 176116
182 3 O 5.56578 120.039 5.63651 -1.2 -8.28825 -4.93191e+06 -3.61397e+06 -3.59261e+06 -388426 1.27048e+06 633729
183 1 Mg 4.61412 116.69 2.92842 1.2 -8.1687 -565206 4.23203e+06 -1.494e+06 473701 -635004 1.92751e+06
184 1 Mg 4.50336 113.717 4.40663 1.2 -8.42646 2.32353e+06 1.72241e+06 1.76204e+06 -685320 -290585 21624.1
185 2 Si 6.70599 115.634 4.37872 2.4 -33.7463 5.12814e+06 1.20412e+07 7.36846e+06 -381479 1.63648e+06 1.30864e+06
186 3 O 3.4664 115.703 4.31285 -1.2 -9.34785 -3.88125e+06 -3.82782e+06 -3.84778e+06 130689 548351 108300
187 3 O 5.64364 111.897 4.37441 -1.2 -8.74128 -3.14135e+06 -6.67774e+06 -3.98164e+06 1.48353e+06 54158.7 462257
188 3 O 5.99681 114.892 3.03513 -1.2 -8.59448 -2.86113e+06 -2.23955e+06 -1.08334e+06 248689 1.3735e+06 1.07628e+06
189 1 Mg 4.62905 116.365 -0.021992 1.2 -7.92519 -1.33077e+06 4.18394e+06 -279271 922038 1.38399e+06 -1.95216e+06
190 3 O 6.05794 115.035 5.59754 -1.2 -8.98581 -4.45562e+06 -4.53502e+06 -3.94489e+06 -185879 -97316 1.24854e+06
191 1 Mg 4.59799 119.544 1.3327 1.2 -8.47991 2.94617e+06 1.37965e+06 2.87424e+06 -290250 318967 -669372
192 2 Si 2.49348 117.448 1.32234 2.4 -33.7245 7.56204e+06 1.1621e+07 8.05985e+06 271708 -528094 -693824
193 3 O 5.65721 117.427 1.4384 -1.2 -9.28219 -2.1364e+06 -3.67759e+06 -3.90884e+06 56631.6 -32035.3 430428
194 3 O 3.58579 121.419 1.3483 -1.2 -9.27943 -2.08535e+06 -2.85609e+06 -3.14692e+06 818432 342355 1.04092e+06
195 3 O 3.14545 118.275 0.105646 -1.2 -8.893 -2.48743e+06 -1.59262e+06 -3.59872e+06 1.02096e+06 -931835 123084
196 3 O 3.21027 118.172 2.58926 -1.2 -8.59035 -4.34082e+06 -2.03276e+06 -3.43344e+06 813070 1.56643e+06 636588
197 1 Mg 2.19733 121.864 -0.12744 1.2 -7.94679 -550752 3.57309e+06 -116723 -674606 -2.16984e+06 -2.48518e+06
198 1 Mg 6.80747 124.721 1.45021 1.2 -8.30227 1.61221e+06 259246 3.13197e+06 855191 -298619 -330904
199 2 Si 4.22356 122.933 1.45111 2.4 -33.1245 6.7016e+06 9.7704e+06 1.05707e+07 -475886 -200677 -388017
200 3 O 5.82256 122.833 1.59293 -1.2 -9.49905 -1.21319e+06 -3.18486e+06 -4.86418e+06 -592297 -1.41445e+06 622333
201 3 O 3.33435 126.536 1.44562 -1.2 -9.30257 -2.60639e+06 -5.65287e+06 -3.44271e+06 277431 334988 -11017
202 3 O 3.66521 123.611 0.155133 -1.2 -8.836 -2.62632e+06 -4.38512e+06 -2.74073e+06 -147860 651321 1.03173e+06
203 1 Mg 2.38724 132.245 2.68813 1.2 -8.18149 352963 3.07324e+06 -401700 -219714 467385 1.44663e+06
204 3 O 3.45128 123.587 2.76751 -1.2 -9.00938 -3.27164e+06 -1.95688e+06 -1.0137e+06 -10916.7 -1.10962e+06 646400
205 1 Mg 2.1273 129.412 4.31053 1.2 -8.97644 3.65188e+06 206605 3.98251e+06 957594 54814.4 -347762
206 2 Si 4.81113 131.261 4.32491 2.4 -35.8227 4.39539e+06 8.33566e+06 7.52132e+06 1.17847e+06 -421302 392285
207 3 O 3.32852 131.382 4.2692 -1.2 -8.54817 -8.07992e+06 -3.73426e+06 -4.04853e+06 159860 -103151 -206976
208 3 O 5.88836 127.451 4.61583 -1.2 -8.81076 -3.52794e+06 -4.48991e+06 -4.12431e+06 -706364 -567344 -342965
209 3 O 5.47101 130.489 3.1374 -1.2 -8.01656 -5.27583e+06 -3.31009e+06 -5.94972e+06 -198917 -610102 -2.28293e+06
210 3 O 5.43282 130.65 5.57505 -1.2 -7.84945 -5.01842e+06 -3.41118e+06 -6.02289e+06 861893 -207745 1.38337e+06
211 1 Mg 4.57646 126.94 3.10747 1.2 -7.70453 -1.15023e+06 3.82129e+06 547310 1.06616e+06 -1.71002e+06 2.04463e+06
212 1 Mg 4.56041 124.188 4.42457 1.2 -8.27525 2.09927e+06 1.11881e+06 2.64375e+06 -1.25942e+06 8337.45 75678
213 2 Si 6.61363 125.989 4.51898 2.4 -33.4873 3.80551e+06 1.08916e+07 7.40095e+06 -979690 392047 1.05433e+06
214 3 O 3.40672 126.137 4.52261 -1.2 -9.49539 -3.07265e+06 -4.49817e+06 -3.60755e+06 -621065 1.03342e+06 -229603
215 3 O 5.52395 122.235 4.39815 -1.2 -8.9245 -3.19358e+06 -4.40044e+06 -3.27417e+06 928956 537502 515942
216 3 O 5.95759 125.347 3.22432 -1.2 -9.32116 -2.81649e+06 -4.0025e+06 -2.78483e+06 1.00716e+06 62065.5 -752119
217 1 Mg 4.68874 127.081 0.0156603 1.2 -8.25635 -684358 3.60572e+06 324517 1.01801e+06 1.62984e+06 -1.19107e+06
218 3 O 6.08334 125.265 5.77596 -1.2 -8.86786 -3.98486e+06 -4.92821e+06 -2.45612e+06 -781324 69093.3 704954
219 1 Mg 4.69417 129.858 1.40551 1.2 -8.99636 2.79926e+06 -678335 3.72399e+06 -1.24647e+06 -110340 126626
220 2 Si 2.65688 127.938 1.50346 2.4 -34.0415 5.84619e+06 8.13142e+06 8.98949e+06 387597 61786.9 946359
221 3 O 5.85716 127.923 1.53283 -1.2 -9.08422 -3.13767e+06 -2.80767e+06 -3.93742e+06 -519749 590640 -1.07042e+06
222 3 O 3.6951 131.746 1.33401 -1.2 -8.56979 -1.96283e+06 -4.54228e+06 -6.02944e+06 2.19212e+06 195088 405885
223 3 O 3.21748 128.717 0.205497 -1.2 -8.26194 -3.91753e+06 -1.73226e+06 -3.92366e+06 -176912 -289531 -1.24714e+06
224 3 O 3.28611 128.787 2.68851 -1.2 -8.54075 -4.32065e+06 -1.1155e+06 -4.77982e+06 -528158 -907578 -881951
225 1 Mg 2.17315 132.133 -0.0137469 1.2 -8.24606 69735.3 3.16597e+06 -281310 -251203 -791848 -1.54036e+06
226 1 Mg 7.03298 135.05 1.46927 1.2 -8.67405 1.71178e+06 427591 3.80668e+06 595625 -198560 418363
227 2 Si 4.43455 133.243 1.2826 2.4 -33.8631 4.76971e+06 8.96937e+06 1.10134e+07 539904 46589.4 1.52649e+06
228 3 O 5.94348 133.221 1.33018 -1.2 -9.53604 -5.48392e+06 -2.55307e+06 -5.79507e+06 -611047 514104 -110352
229 3 O 3.31675 136.992 1.5334 -1.2 -9.30391 -2.1663e+06 -3.67207e+06 -2.27527e+06 -935963 -317355 581671
230 3 O 3.67521 133.814 0.0822464 -1.2 -8.48219 -3.399e+06 -4.03871e+06 -4.82887e+06 886754 215112 760349
231 1 Mg 2.34666 142.367 2.58421 1.2 -7.81958 -70734.4 4.29707e+06 671542 -206869 456190 745904
232 3 O 3.64662 133.956 2.60581 -1.2 -8.37851 -3.12546e+06 -2.84483e+06 -2.90217e+06 -64717.9 -2.05683e+06 486090
233 1 Mg 2.21355 139.771 4.49373 1.2 -8.5057 1.7639e+06 416154 2.15352e+06 11612.8 247348 -382346
234 2 Si 4.78638 141.595 4.28944 2.4 -34.2623 6.45854e+06 1.16855e+07 6.40583e+06 368184 -119129 -1.28409e+06
235 3 O 3.25121 141.722 4.42248 -1.2 -9.27176 -4.54997e+06 -4.43295e+06 -1.79163e+06 -244369 613429 -331490
236 3 O 5.99472 138.064 4.48595 -1.2 -9.11876 -2.54629e+06 -5.05105e+06 -2.1767e+06 -1.74405e+06 -148104 438740
237 3 O 5.4047 140.868 3.07121 -1.2 -8.73651 -2.91488e+06 -5.49608e+06 -3.77313e+06 -139399 -1.26349e+06 -1.09277e+06
238 3 O 5.56446 140.919 5.58661 -1.2 -8.7743 -3.02743e+06 -4.35369e+06 -2.22407e+06 -839728 1.35371e+06 618910
239 1 Mg 4.50153 137.659 3.0426 1.2 -7.7196 -545665 4.79208e+06 -719251 1.12602e+06 -1.82946e+06 1.43995e+06
240 1 Mg 4.61801 134.648 4.30464 1.2 -8.97184 2.90972e+06 956690 3.42229e+06 -1.11314e+06 -598328 -372568
241 2 Si 6.62241 136.518 4.47329 2.4 -33.7471 8.33834e+06 1.1665e+07 6.57397e+06 -1.20392e+06 762329 -657277
242 3 O 3.51184 136.509 4.50537 -1.2 -9.02842 -116458 -3.58714e+06 -3.6065e+06 -88688.1 171449 289696
243 3 O 5.49863 132.711 4.25689 -1.2 -8.04299 -4.40597e+06 -5.34602e+06 -2.91842e+06 280188 -490792 1.01644e+06
244 3 O 6.02377 135.789 3.2145 -1.2 -8.83338 -4.06995e+06 -2.08899e+06 -2.11946e+06 46964.2 294485 537313
245 1 Mg 4.64924 137.427 -0.07892 1.2 -7.37905 -223313 3.95802e+06 498406 718760 966938 -2.57115e+06
246 3 O 5.98741 135.898 5.76337 -1.2 -8.6944 -6.12388e+06 -3.69948e+06 -2.3034e+06 669269 -1.17267e+06 1.09683e+06
247 1 Mg 4.72501 140.096 1.33207 1.2 -8.11874 1.08635e+06 -351888 2.94213e+06 -880689 -334575 -455600
248 2 Si 2.57088 138.443 1.40476 2.4 -32.7138 2.28907e+06 1.24024e+07 9.24302e+06 -232449 -193728 -1.20886e+06
249 3 O 5.81052 138.4 1.46407 -1.2 -9.89922 -2.90352e+06 -5.26916e+06 -3.15905e+06 60661 -219743 555992
250 3 O 3.68277 142.048 1.20371 -1.2 -9.26491 -2.03201e+06 -3.64585e+06 -3.5005e+06 2.20167e+06 -1.05765e+06 165661
251 3 O 3.28129 139.121 0.125156 -1.2 -9.30243 -2.81434e+06 -3.79564e+06 -2.04187e+06 685752 -1.55283e+06 9453.83
252 3 O 3.20089 139.225 2.73003 -1.2 -9.07803 -3.8806e+06 -3.76373e+06 -381130 -637505 540663 497563
253 1 Mg 2.42796 142.625 -0.218881 1.2 -7.9613 -2.74965e+06 4.00038e+06 -720043 -498520 -2.03323e+06 -1.43836e+06
254 1 Mg 7.1882 145.461 1.22369 1.2 -9.14022 3.02363e+06 -926101 3.51278e+06 748155 228739 -970255
255 2 Si 4.48492 143.555 1.19394 2.4 -33.7073 6.07104e+06 1.03378e+07 8.95014e+06 778567 1.12239e+06 -870697
256 3 O 6.00161 143.534 1.2737 -1.2 -9.29023 -3.81969e+06 -3.04721e+06 -4.8369e+06 577921 739080 -549791
257 3 O 3.33561 147.267 1.20578 -1.2 -8.55611 -4.66016e+06 -4.37659e+06 -4.67858e+06 -691145 -586627 448203
258 3 O 3.75795 144.235 -0.0962122 -1.2 -8.64986 -3.56307e+06 -2.21922e+06 -5.49465e+06 -699413 1.19203e+06 151165
259 1 Mg 1.47053 152.495 1.59181 1.2 -7.90432 -859576 -1.472e+06 4.18462e+06 -762046 -856106 143944
260 3 O 3.78223 144.339 2.36272 -1.2 -8.25416 -5.88818e+06 -2.39298e+06 -5.01221e+06 -565702 -1.37607e+06 510399
261 1 Mg 1.64385 150.488 4.61858 1.2 -9.16125 1.31935e+06 3.25299e+06 -111985 -347236 -566896 838969
262 2 Si 3.75673 151.081 2.78497 2.4 -34.7693 9.46635e+06 7.62613e+06 9.40413e+06 -264483 843316 -2.15252e+06
263 3 O 2.38967 151.765 3.17535 -1.2 -7.99007 -6.16916e+06 -1.35047e+06 -5.17624e+06 329345 495676 -267248
264 3 O 5.92869 148.184 3.84931 -1.2 -7.92324 -5.82994e+06 -4.31398e+06 -4.75821e+06 -1.994e+06 -1.50127e+06 -1.38431e+06
265 3 O 4.46091 151.867 1.6253 -1.2 -8.73147 -6.67658e+06 -779074 -5.5871e+06 187104 -463684 372903
266 3 O 4.53127 151.074 4.16876 -1.2 -7.80345 -7.76033e+06 -3.98261e+06 -1.89137e+06 -1.69356e+06 98859.9 1.95006e+06
267 1 Mg 4.79148 147.681 2.45383 1.2 -8.56379 -481198 2.40548e+06 -1.08986e+06 1.34929e+06 -3.91014e+06 287973
268 1 Mg 4.50314 144.826 4.17734 1.2 -9.17543 2.91292e+06 93723.3 3.27826e+06 -755668 -402980 -863868
269 2 Si 6.60431 146.731 4.0323 2.4 -35.0209 1.02764e+07 9.20556e+06 9.53034e+06 1.03724e+06 -156468 -2.37073e+06
270 3 O 3.45754 146.788 4.14441 -1.2 -8.32594 -1.95174e+06 -3.11931e+06 -4.62775e+06 604423 -69917.1 464882
271 3 O 5.44196 143.058 4.2172 -1.2 -8.15014 -3.92612e+06 -5.08934e+06 -2.07433e+06 1.11311e+06 -122274 527388
272 3 O 5.99303 146.09 2.74307 -1.2 -8.14912 -5.24836e+06 -5.95174e+06 -3.07151e+06 -320505 547923 -1.21143e+06
273 1 Mg 4.72276 147.741 -0.45593 1.2 -8.45333 -281594 2.26237e+06 592949 1.11316e+06 1.45639e+06 -2.62431e+06