ITEM: TIMESTEP
76100
ITEM: NUMBER OF ATOMS
5600
ITEM: BOX BOUNDS xy xz yz pp pp pp
0.0000000000000000e+00 7.1234999999999999e+00 0.0000000000000000e+00
0.0000000000000000e+00 2.0198500000000001e+02 2.3744999999999998e+00
0.0000000000000000e+00 1.1958400000000000e+02 0.0000000000000000e+00
ITEM: ATOMS id type element xu yu zu q c_pe c_s[1] c_s[2] c_s[3] c_s[4] c_s[5] c_s[6]
1 1 Mg -1.88277 47.7137 -0.904977 1.2 -7.75281 1.41511e+06 -1.18408e+06 1.4937e+06 1.79053e+06 -154008 -659877
2 1 Mg 3.04924 50.1624 2.31312 1.2 -8.28698 590805 1.83046e+06 121406 -764585 -71257.4 -612142
3 2 Si 0.868112 49.396 0.319766 2.4 -33.9026 7.09819e+06 1.13426e+07 3.72569e+06 -1.51187e+06 1.04021e+06 1.47927e+06
4 3 O 1.8124 48.1671 0.71284 -1.2 -8.55314 -3.71805e+06 -82544.8 -1.94951e+06 68377.1 -2.83961e+06 429330
5 3 O -1.24501 52.7432 1.58133 -1.2 -7.72893 -5.89094e+06 -5.10524e+06 -5.11767e+06 -1.41961e+06 48036.1 1.48946e+06
6 3 O -0.107647 48.7937 -0.754986 -1.2 -8.77213 -1.91035e+06 -2.33066e+06 -3.72959e+06 2.09815e+06 -840671 -665569
7 1 Mg -2.16781 58.5479 2.93593 1.2 -7.66336 -1.02597e+06 2.49991e+06 1.27758e+06 -1.46515e+06 922923 1.23253e+06
8 3 O 0.0832204 49.9002 1.60106 -1.2 -8.32647 -3.46482e+06 -4.20888e+06 -4.40601e+06 -2.64356e+06 1.85483e+06 1.11051e+06
9 1 Mg -2.19367 55.5366 4.62655 1.2 -8.46124 1.90022e+06 136833 4.05529e+06 562415 -766682 1.44637e+06
10 2 Si 0.392288 57.4234 4.38982 2.4 -33.557 5.21364e+06 8.5912e+06 1.30584e+07 589811 -596717 2.25572e+06
11 3 O -1.13856 57.5257 4.38622 -1.2 -9.5965 -4.09215e+06 -2.44807e+06 -5.39124e+06 -68381.2 -1.14435e+06 -1.12639e+06
12 3 O 1.61709 53.6443 4.44993 -1.2 -8.63621 -4.87946e+06 -2.68886e+06 -3.10075e+06 235873 133132 -477587
13 3 O 1.16156 56.7631 3.1138 -1.2 -8.9303 -3.24392e+06 -1.77242e+06 -444994 10053.5 -1.04883e+06 -929684
14 3 O 0.91895 56.7772 5.80386 -1.2 -8.36525 -3.51361e+06 -2.7786e+06 -1.14725e+06 655293 834257 -999508
15 1 Mg 0.16763 52.6194 2.80061 1.2 -8.56618 1.63882e+06 2.57633e+06 673632 97204.9 -2.20664e+06 -16600.2
16 1 Mg 0.823105 48.6196 3.07302 1.2 -7.56512 4.58879e+06 1.87961e+06 -420412 -1.09238e+06 -5394.2 588964
17 2 Si 2.197 52.1965 4.71865 2.4 -34.3851 9.5428e+06 4.85867e+06 8.75343e+06 667230 1.03483e+06 -242624
18 3 O -0.958856 52.3167 4.75611 -1.2 -8.44548 -2.59818e+06 -1.99456e+06 -2.27703e+06 1.69014e+06 -2.12754e+06 737089
19 3 O 2.92568 48.6533 3.43322 -1.2 -7.18833 750932 -2.16612e+06 -853257 -939754 -458116 -198503
20 3 O 1.82866 51.415 3.39023 -1.2 -7.94024 -4.25576e+06 -4.13813e+06 -3.8997e+06 -2.19804e+06 809743 647388
21 1 Mg 0.0877334 53.2024 0.10837 1.2 -8.89323 436865 962734 1.21398e+06 107787 492162 -1.84219e+06
22 3 O 1.45771 51.4622 5.86602 -1.2 -10.1499 -5.46052e+06 -2.01066e+06 -9.69354e+06 129804 -1.04726e+06 1.64608e+06
23 1 Mg 0.0505769 56.1741 1.50537 1.2 -8.65497 2.22796e+06 637896 2.49732e+06 -744000 436817 -725469
24 2 Si -1.98382 54.1773 1.48311 2.4 -35.9378 8.06228e+06 5.64241e+06 1.00907e+07 95612.5 467069 -100837
25 3 O 1.23451 53.9659 1.45611 -1.2 -8.34549 -7.03889e+06 -707868 -5.25875e+06 596352 495316 -288632
26 3 O -0.800731 58.0782 1.21501 -1.2 -8.93034 -3.11508e+06 -6.06097e+06 -3.50431e+06 834445 -465858 51928.4
27 3 O -1.43234 54.7059 0.168349 -1.2 -7.70373 -3.85774e+06 -2.75921e+06 -8.47814e+06 -1.09965e+06 58002.4 1.24234e+06
28 3 O -1.22204 55.045 2.57249 -1.2 -7.7758 -4.2619e+06 -2.61392e+06 -4.15683e+06 778298 386450 -1.33679e+06
29 1 Mg -2.4325 58.2797 -0.101964 1.2 -8.06434 -788369 3.72867e+06 -1.3487e+06 184560 1.04323e+06 -1.94433e+06
30 1 Mg 2.25123 61.4927 1.72404 1.2 -8.063 507465 2.43551e+06 1.46218e+06 640417 513138 253321
31 2 Si -0.24893 59.5545 1.28656 2.4 -33.6189 7.35258e+06 7.51906e+06 9.99219e+06 -906005 274302 -447945
32 3 O 1.24941 59.5099 1.37284 -1.2 -9.18654 -4.87449e+06 -2.9217e+06 -3.63608e+06 -2.62656e+06 787456 1.34111e+06
33 3 O -1.39362 63.3602 1.50889 -1.2 -9.31227 -3.87295e+06 -5.2616e+06 -2.59632e+06 -261572 912320 553289
34 3 O -1.12459 60.2174 0.0513911 -1.2 -8.20782 -4.60428e+06 -3.59821e+06 -1.52285e+06 242128 2.61955e+06 197459
35 1 Mg -2.66702 69.2704 3.11911 1.2 -8.0838 -984761 4.29874e+06 -1.39462e+06 -961162 2.65827e+06 2.17266e+06
36 3 O -1.04183 60.0637 2.68994 -1.2 -9.2807 -2.31919e+06 -2.87628e+06 -1.54365e+06 -526862 -1.35191e+06 -750240
37 1 Mg -2.4209 66.1607 4.63657 1.2 -8.50479 744540 -1.0299e+06 1.21087e+06 -13729.2 30372.4 -315140
38 2 Si 0.129804 68.1 4.55506 2.4 -32.9741 6.41068e+06 1.04386e+07 7.06731e+06 1.05632e+06 1.54965e+06 -228697
39 3 O -1.38936 68.0143 4.57527 -1.2 -9.62998 -4.36232e+06 -3.42613e+06 -3.45077e+06 -366284 1.99482e+06 134231
40 3 O 1.42232 64.4645 4.31367 -1.2 -8.95338 -5.04432e+06 -5.65804e+06 -5.0906e+06 -2.55202e+06 493878 652785
41 3 O 0.754023 67.6426 3.2088 -1.2 -8.52044 -3.86761e+06 -4.89985e+06 -3.62136e+06 206451 -542905 -1.75291e+06
42 3 O 1.06228 67.3905 5.75957 -1.2 -9.51625 -2.36826e+06 -3.80611e+06 -3.96099e+06 -1.54203e+06 2.94435e+06 1.31411e+06
43 1 Mg -0.0655373 64.028 3.08275 1.2 -7.46572 -2.6031e+06 3.46524e+06 -1.06779e+06 674550 -1.29274e+06 1.17187e+06
44 1 Mg 0.100112 60.7482 4.44864 1.2 -7.81274 771645 882199 543929 -1.04773e+06 1.25209e+06 481409
45 2 Si 2.14579 62.9822 4.52685 2.4 -32.5606 2.75498e+06 1.18549e+07 5.99213e+06 157703 1.61039e+06 -907284
46 3 O -1.09814 63.0946 4.59258 -1.2 -9.78966 -4.57724e+06 -5.63468e+06 -4.17783e+06 -107509 387955 453978
47 3 O 1.08336 58.9426 4.54355 -1.2 -9.07316 -1.39891e+06 -2.21423e+06 -3.62401e+06 1.33789e+06 1.13247e+06 777467
48 3 O 1.46045 62.0746 3.41056 -1.2 -9.67806 -921770 -3.63248e+06 -3.33094e+06 761044 782233 -458582
49 1 Mg -0.0231888 63.4478 0.229111 1.2 -7.83113 -1.06333e+06 5.22891e+06 -2.79952e+06 1.2788e+06 2.06943e+06 -383161
50 3 O 1.58158 62.4823 5.8996 -1.2 -9.51554 -4.13866e+06 -3.50834e+06 -3.46575e+06 -502298 81452.9 170661
51 1 Mg -0.28675 66.9098 1.55387 1.2 -8.81428 3.3305e+06 793646 1.12867e+06 -1.44529e+06 -122155 1.48727e+06
52 2 Si -2.12 64.8151 1.7466 2.4 -34.1555 3.54975e+06 9.27561e+06 6.94498e+06 -1.01157e+06 -1.97694e+06 389156
53 3 O 1.17297 64.6156 1.65939 -1.2 -8.8158 -6.77712e+06 -4.1789e+06 -5.86669e+06 -268209 4877.24 685301
54 3 O -1.34064 68.8172 1.60071 -1.2 -8.68274 -5.99987e+06 -5.60157e+06 -2.17835e+06 -602221 5186.93 -56795.4
55 3 O -1.46496 65.6726 0.506008 -1.2 -8.0678 -5.89737e+06 -3.37957e+06 -873081 -543640 -195958 -680237
56 3 O -1.52959 65.4418 2.97498 -1.2 -8.73074 -6.59381e+06 -3.80506e+06 -8.20178e+06 -1.34919e+06 703012 -288343
57 1 Mg -2.73221 69.4143 0.208629 1.2 -8.34535 -1.24437e+06 4.32544e+06 -2.94216e+06 -684088 -2.23951e+06 -1.62902e+06
58 1 Mg 1.9595 72.2734 1.61411 1.2 -8.64173 1.34479e+06 -854944 2.50763e+06 -393785 515061 151157
59 2 Si -0.69889 70.2727 1.62521 2.4 -34.1085 4.62865e+06 1.15297e+07 7.29199e+06 -1.40978e+06 -368459 691897
60 3 O 0.80147 70.1495 1.54137 -1.2 -9.03546 -5.38754e+06 -5.31648e+06 -4.43658e+06 -812647 933273 906163
61 3 O -1.70159 73.815 1.41347 -1.2 -8.77106 -2.78566e+06 -2.66784e+06 -3.01253e+06 -2.07063e+06 541554 -572661
62 3 O -1.41609 70.9617 0.36973 -1.2 -8.43037 -3.37925e+06 -5.96944e+06 457758 -487128 -481260 428906
63 1 Mg -2.31588 79.6444 3.06116 1.2 -8.16132 968863 3.57714e+06 123361 -489276 572990 1.02936e+06
64 3 O -1.34101 70.9028 2.9915 -1.2 -8.8248 -1.78088e+06 -3.54299e+06 -1.05123e+06 691800 85760.9 -1.4318e+06
65 1 Mg -2.091 76.7085 4.39795 1.2 -7.49514 1.83923e+06 977251 2.36288e+06 149345 465041 -396676
66 2 Si 0.222866 78.57 4.51033 2.4 -34.4208 -433859 9.04677e+06 6.29276e+06 -49043.2 948403 -2.67684e+06
67 3 O -1.21638 78.6903 4.45336 -1.2 -9.40127 -1.02708e+07 -2.17537e+06 -4.41676e+06 -310891 -257613 239272
68 3 O 1.28628 74.9442 4.53754 -1.2 -9.75995 -1.73053e+06 -7.72199e+06 -1.81227e+06 812542 180511 -3.17755e+06
69 3 O 0.882204 78.0681 3.32732 -1.2 -8.84699 -3.48981e+06 -6.31845e+06 -7.50422e+06 1.24886e+06 2.04644e+06 -3.88273e+06
70 3 O 0.912025 77.8655 5.79748 -1.2 -8.34379 -2.21696e+06 -3.51605e+06 -4.66471e+06 386347 1.56755e+06 490199
71 1 Mg -0.156953 74.4767 2.9989 1.2 -7.47858 -756148 4.71743e+06 305769 1.05112e+06 -164650 1.7484e+06
72 1 Mg -0.09634 71.4173 4.64047 1.2 -8.12156 2.35372e+06 279639 1.1075e+06 -659130 1.38473e+06 1.44721e+06
73 2 Si 1.88674 73.5378 4.63857 2.4 -32.8521 5.56076e+06 8.10908e+06 7.01108e+06 100482 -4463.92 2.16449e+06
74 3 O -1.20898 73.6248 4.51362 -1.2 -9.41591 -568893 -3.05643e+06 -2.76913e+06 -92171.8 46496.4 -2.25382e+06
75 3 O 0.852894 69.5997 4.56004 -1.2 -8.9157 -1.83636e+06 -5.29982e+06 -5.08338e+06 2.12415e+06 335493 -3.53542e+06
76 3 O 1.25968 72.8611 3.37187 -1.2 -8.89936 -4.55352e+06 -4.1031e+06 -3.87729e+06 976455 1.26677e+06 -2.5917e+06
77 1 Mg -0.231309 74.5845 -0.00965163 1.2 -7.93741 -1.0836e+06 4.80084e+06 -2.76011e+06 1.96559e+06 1.22406e+06 -1.45684e+06
78 3 O 1.40258 72.7136 5.88699 -1.2 -9.46597 -2.2005e+06 -1.60526e+06 -5.53699e+06 387741 -402600 -892243
79 1 Mg 0.0668277 77.5442 1.48767 1.2 -7.80108 2.17443e+06 3.06026e+06 1.58811e+06 -300454 -97488.8 1.071e+06
80 2 Si -2.30864 75.4296 1.40126 2.4 -32.4491 4.54739e+06 1.48144e+07 7.05546e+06 664441 718752 1.14047e+06
81 3 O 0.894045 75.4395 1.42326 -1.2 -9.93494 -1.96528e+06 -4.17847e+06 -3.42516e+06 813031 265163 -1.10727e+06
82 3 O -1.21046 79.4639 1.419 -1.2 -8.6767 -1.42455e+06 -2.53611e+06 -1.24693e+06 1.56229e+06 -171430 106478
83 3 O -1.59868 76.0528 0.0466583 -1.2 -9.03388 -3.73617e+06 -4.48673e+06 -1.19322e+06 958491 -2.71326e+06 -1.11487e+06
84 3 O -1.48805 76.2047 2.57706 -1.2 -9.75822 -1.84748e+06 -1.91299e+06 -1.82987e+06 1.1533e+06 1.98883e+06 -963915
85 1 Mg -2.67115 79.8756 0.0832352 1.2 -8.24736 -1.22037e+06 4.40252e+06 -1.08788e+06 136747 -824740 1.16e+06
86 1 Mg 2.50146 83.0596 1.62376 1.2 -9.80656 4.49722e+06 -356937 2.74646e+06 395475 23119.7 -1.22702e+06
87 2 Si -0.311853 81.0303 1.62602 2.4 -35.0471 5.50162e+06 9.17407e+06 1.05751e+07 1.76722e+06 747015 788374
88 3 O 1.06315 80.7985 1.70401 -1.2 -8.49041 -1.0646e+07 -2.6829e+06 -3.8109e+06 714589 436132 31135.1
89 3 O -1.32311 84.8275 1.59948 -1.2 -7.56935 -7.85362e+06 -1.4543e+06 -2.594e+06 -787503 629648 2.6183e+06
90 3 O -1.11092 81.794 0.476714 -1.2 -7.63785 -4.70407e+06 -3.59773e+06 -2.01136e+06 -338062 948000 922224
91 1 Mg -2.36252 90.5273 2.91776 1.2 -7.63639 -1.27959e+06 3.70923e+06 964460 -1.69875e+06 1.36864e+06 1.54387e+06
92 3 O -0.998073 81.7048 3.0187 -1.2 -7.57757 -4.23094e+06 832479 -1.15287e+06 104341 -710650 1.85945e+06
93 1 Mg -2.21254 87.8373 4.74514 1.2 -7.97391 632271 694338 3.75589e+06 167541 -148490 151576
94 2 Si 0.34 89.618 4.42592 2.4 -32.7147 4.49937e+06 1.02098e+07 8.79421e+06 8412.05 28976.6 -948524
95 3 O -1.28414 89.5581 4.53744 -1.2 -9.78177 -673861 -3.70123e+06 -5.05957e+06 -536728 -1.34087e+06 -678302
96 3 O 1.52097 85.808 4.60063 -1.2 -8.75898 -3.00003e+06 -3.26679e+06 -4.70793e+06 -2.20301e+06 -1.45429e+06 -780708
97 3 O 1.00752 88.9781 3.21367 -1.2 -9.57067 -3.16041e+06 -3.41042e+06 -4.77276e+06 402280 203781 -588398
98 3 O 0.881497 88.8224 5.74189 -1.2 -9.14713 -2.35114e+06 -1.58972e+06 -2.39302e+06 332772 625068 -1.23001e+06
99 1 Mg -0.0539831 85.7866 3.34493 1.2 -8.18947 232202 2.69713e+06 1.66644e+06 842730 -1.46429e+06 1.61695e+06
100 1 Mg 0.0483718 82.3836 4.75189 1.2 -9.13655 2.92507e+06 1.30864e+06 4.16012e+06 -603119 -148861 -854800
101 2 Si 2.11279 84.3004 4.52103 2.4 -34.7609 1.14295e+07 6.20009e+06 9.16017e+06 -651807 2.38652e+06 1.0225e+06
102 3 O -0.931818 84.2945 4.73172 -1.2 -8.426 -1.3779e+06 -1.2699e+06 -4.04877e+06 1.11274e+06 2.14266e+06 -1.50884e+06
103 3 O 0.922252 80.055 4.6243 -1.2 -7.75896 -3.04664e+06 -4.71815e+06 -5.50533e+06 477795 -905164 865809
104 3 O 1.42767 83.6424 3.33282 -1.2 -7.61293 -5.6351e+06 -2.17784e+06 -5.31408e+06 484805 598383 268724
105 1 Mg -0.0316003 85.0236 0.227826 1.2 -9.20776 1.79871e+06 2.64159e+06 127713 1.30809e+06 2.78678e+06 -3.30503e+06
106 3 O 1.50282 83.6405 5.82557 -1.2 -8.81702 -5.37678e+06 -1.54248e+06 -5.4014e+06 208014 -1.35126e+06 844260
107 1 Mg 0.140086 88.2409 1.52047 1.2 -8.14345 1.78199e+06 596396 -1.26068e+06 -1.18525e+06 1.43332e+06 915649
108 2 Si -2.07984 86.4169 1.59723 2.4 -34.6274 7.55662e+06 1.16741e+07 9.34833e+06 -17763.7 -985912 -1.93164e+06
109 3 O 1.131 86.0519 1.65964 -1.2 -8.46018 -3.04942e+06 -3.60646e+06 -3.6075e+06 -64173.6 56783.9 1.97089e+06
110 3 O -1.04076 89.9347 1.36529 -1.2 -8.8668 -2.34363e+06 -5.28225e+06 -3.21515e+06 1.02613e+06 262824 204224
111 3 O -1.60075 86.8871 0.147646 -1.2 -7.89637 -5.05389e+06 -4.92846e+06 -242773 116143 -1.16394e+06 2.03298e+06
112 3 O -1.44903 87.1149 2.84289 -1.2 -9.41131 -3.00693e+06 -4.28861e+06 -1.4848e+06 84350.5 1.02957e+06 -205311
113 1 Mg -2.56635 90.4261 -0.0801547 1.2 -8.86071 -75468.4 4.77209e+06 -1.33986e+06 -738436 -765612 -1.3767e+06
114 1 Mg 2.45817 93.3906 1.65424 1.2 -8.82877 3.71323e+06 1.36829e+06 4.32021e+06 1.10791e+06 62602.4 839671
115 2 Si -0.336447 91.3972 1.39779 2.4 -34.2806 6.95649e+06 9.68476e+06 1.02333e+07 1.39442e+06 348305 1.74089e+06
116 3 O 1.18483 91.4819 1.37076 -1.2 -8.95931 -4.00944e+06 -2.94535e+06 -4.25946e+06 380633 -103809 -125888
117 3 O -1.44047 95.4635 1.51846 -1.2 -8.33042 -2.4477e+06 -221205 -2.10775e+06 -1.3271e+06 -914108 -2.07082e+06
118 3 O -1.02031 92.1063 0.132614 -1.2 -7.74793 -5.97023e+06 -3.72284e+06 -2.4186e+06 269710 949123 -1.36179e+06
119 1 Mg -2.64558 100.92 3.03622 1.2 -8.03334 -1.98968e+06 2.41403e+06 8701.49 -2.61473e+06 2.20215e+06 805275
120 3 O -1.09072 92.088 2.73276 -1.2 -8.77804 -3.53288e+06 -1.00323e+06 -1.87151e+06 -1.05639e+06 -1.77819e+06 -111268
121 1 Mg -2.46369 98.1451 4.86881 1.2 -8.55421 2.73101e+06 -61321.1 3.12257e+06 707043 -223371 1.17379e+06
122 2 Si 0.143574 100.116 4.49984 2.4 -32.8341 4.96076e+06 1.0508e+07 8.43748e+06 -315677 -771785 -1.69241e+06
123 3 O -1.425 100.062 4.68156 -1.2 -9.76099 -1.75894e+06 -2.57886e+06 -2.9724e+06 -495674 -2.04859e+06 -432567
124 3 O 1.36544 96.2861 4.35042 -1.2 -8.28332 -2.86163e+06 -3.3274e+06 -2.16516e+06 -1.30923e+06 177978 -2.18464e+06
125 3 O 0.920446 99.4972 3.29975 -1.2 -8.93613 -3.06879e+06 -6.8434e+06 -2.96286e+06 -1.59845e+06 393320 -340797
126 3 O 0.821189 99.2916 5.82841 -1.2 -9.08289 -2.72241e+06 9019.16 -2.49688e+06 -118507 2.17125e+06 -1.28532e+06
127 1 Mg -0.23364 96.0157 3.00217 1.2 -8.55251 972517 1.97669e+06 423448 1.50221e+06 -1.41236e+06 1.46374e+06
128 1 Mg -0.125939 92.9124 4.68267 1.2 -8.60693 1.6882e+06 -576518 4.81991e+06 -545932 -63956.8 -54867.3
129 2 Si 1.98099 94.7625 4.65199 2.4 -34.2418 5.58228e+06 8.86175e+06 9.12163e+06 -60375.8 1.05507e+06 -2.4807e+06
130 3 O -1.24283 94.7502 4.6558 -1.2 -9.18438 -4.74353e+06 -2.4425e+06 -3.6827e+06 638719 347292 -89434.9
131 3 O 0.885386 91.1417 4.47557 -1.2 -9.28283 -1.0346e+06 -2.86076e+06 -3.50458e+06 445494 -194887 805317
132 3 O 1.23491 94.0615 3.51496 -1.2 -8.02947 -3.23482e+06 -5.12634e+06 -4.16526e+06 -700584 -843262 -1.78223e+06
133 1 Mg 0.00364377 95.7564 -0.0788969 1.2 -8.23755 893565 4.15245e+06 1.17143e+06 1.12092e+06 1.46018e+06 -1.82114e+06
134 3 O 1.34592 94.138 6.0076 -1.2 -9.1299 -3.08872e+06 -1.36682e+06 -4.59253e+06 105557 -298181 327928
135 1 Mg -0.133907 98.8702 1.49372 1.2 -8.35313 2.7939e+06 1.70666e+06 4.04977e+06 -1.54658e+06 374178 -189076
136 2 Si -2.18688 97.0613 1.5321 2.4 -34.4432 6.41147e+06 9.72216e+06 1.13714e+07 -1.28125e+06 144470 -890252
137 3 O 1.05286 96.9318 1.45757 -1.2 -8.82838 -4.11346e+06 -1.82155e+06 -3.86672e+06 -405821 1.40356e+06 1.54218e+06
138 3 O -1.45916 100.769 1.50646 -1.2 -8.11101 -2.74156e+06 -3.3167e+06 -1.57661e+06 438485 1.31001e+06 40684.4
139 3 O -1.69781 97.8236 0.264132 -1.2 -8.19097 -4.83581e+06 -1.9977e+06 -1.0866e+06 -175807 1.46258e+06 905886
140 3 O -1.40009 97.5248 2.91285 -1.2 -8.43915 -4.38592e+06 -3.85662e+06 -704669 820298 1.64754e+06 -938101
141 1 Mg -2.63428 100.977 -0.432042 1.2 -8.28554 550426 3.62059e+06 1.16541e+06 -1.16516e+06 -1.24873e+06 -316505
142 1 Mg 6.7805 104.032 1.82827 1.2 -9.35828 3.23144e+06 1.27304e+06 1.11693e+06 1.39611e+06 954599 1.18381e+06
143 2 Si -0.586032 102.253 1.38742 2.4 -35.5005 8.31677e+06 1.00259e+07 6.32663e+06 2.86891e+06 -1.05171e+06 3.03978e+06
144 3 O 0.874971 102.126 1.58647 -1.2 -8.07203 -7.0175e+06 -3.25441e+06 -3.46735e+06 1.61188e+06 -234058 33135.9
145 3 O 3.23524 105.699 1.50328 -1.2 -7.52491 -6.55902e+06 93703.6 -3.90428e+06 -93573.9 1.65147e+06 -2.33736e+06
146 3 O -1.02493 102.567 -0.0203646 -1.2 -8.03715 -5.68917e+06 -4.19553e+06 -4.01905e+06 -899845 400792 1.10149e+06
147 1 Mg 2.40424 111.997 3.20404 1.2 -7.29094 -1.17614e+06 4.89901e+06 -3.14583e+06 -756962 31817.3 816356
148 3 O -1.2034 103.023 2.72368 -1.2 -8.3661 -4.80317e+06 -3.57123e+06 327601 -61330.7 -643897 -1.49543e+06
149 1 Mg 2.52872 108.644 4.61924 1.2 -8.09295 1.43913e+06 3.03205e+06 2.86351e+06 802137 -61069.6 900405
150 2 Si 5.08445 110.585 4.77663 2.4 -32.5499 6.11561e+06 1.10363e+07 1.16682e+07 -527088 740206 725513
151 3 O 3.4951 110.69 4.50817 -1.2 -9.76009 -761743 -1.58887e+06 -2.50305e+06 -1.00216e+06 1.73047e+06 -1.15289e+06
152 3 O 6.04525 106.938 4.90127 -1.2 -8.21939 -2.18327e+06 -3.00624e+06 -4.17072e+06 334177 -196594 -2.74193e+06
153 3 O 5.70476 109.957 3.41629 -1.2 -8.91394 -3.40449e+06 -5.38166e+06 2.58764e+06 225807 -1.44976e+06 -1.03203e+06
154 3 O 5.72694 110.034 6.19984 -1.2 -9.11974 -1.54928e+06 -2.88323e+06 97538.3 911821 2.05348e+06 -2.67271e+06
155 1 Mg 4.47325 106.433 3.12017 1.2 -8.53441 748420 962516 -117009 3.08547e+06 -1.95126e+06 4.03568e+06
156 1 Mg -0.556247 103.339 4.5627 1.2 -8.26077 1.9404e+06 581796 911120 -961328 187492 1.18246e+06
157 2 Si 6.47394 105.382 4.74083 2.4 -34.7321 7.98339e+06 7.72504e+06 8.97884e+06 192792 -751210 1.55544e+06
158 3 O 3.38348 105.44 4.69207 -1.2 -8.7019 -1.9287e+06 -1.71286e+06 -3.37248e+06 1.53199e+06 -25045.3 -853934
159 3 O 0.753705 101.58 4.5034 -1.2 -9.41668 -630199 -4.421e+06 -3.48962e+06 557864 911796 -1.42251e+06
160 3 O 5.90197 104.976 3.38647 -1.2 -8.22885 -5.56482e+06 -3.53264e+06 -4.89888e+06 -967665 26418 -2.38519e+06
161 1 Mg 4.61064 106.219 0.282391 1.2 -8.55869 -559663 2.04032e+06 -73627 644513 2.13939e+06 -1.47936e+06
162 3 O 5.95607 104.701 6.02688 -1.2 -8.74875 -2.30028e+06 -4.15816e+06 -2.8631e+06 -560961 154138 992238
163 1 Mg 4.78271 109.346 1.52017 1.2 -7.43879 -779296 1.38048e+06 3.25025e+06 233255 331656 1.57712e+06
164 2 Si 2.59335 107.485 1.47638 2.4 -32.7942 6.03423e+06 1.12038e+07 7.57492e+06 1.09788e+06 -358134 1.29634e+06
165 3 O 5.78775 107.152 1.62907 -1.2 -9.01046 -1.43697e+06 -3.74005e+06 -4.75638e+06 1.3964e+06 -1.32946e+06 -1.35564e+06
166 3 O 4.01646 111.099 1.63324 -1.2 -9.5549 -2.356e+06 -6.01327e+06 -4.43649e+06 2.87883e+06 -300124 1.21266e+06
167 3 O 3.24534 108.183 0.284016 -1.2 -9.96192 -2.13237e+06 -2.56794e+06 -4.04169e+06 -577347 -1.14967e+06 -40050.5
168 3 O 3.26604 107.818 2.81558 -1.2 -9.28608 -4.75033e+06 -6.89698e+06 -1.53628e+06 368113 197913 -2.47711e+06
169 1 Mg 2.6107 111.349 0.277425 1.2 -6.96679 -1.98261e+06 4.11098e+06 187327 -376003 -223824 -55264.2
170 1 Mg 7.2272 114.482 1.52577 1.2 -8.19153 732330 903735 -77241.5 841356 1.40244e+06 669776
171 2 Si 4.63534 112.62 1.67135 2.4 -32.4121 2.66938e+06 1.33824e+07 5.89008e+06 -233822 610134 995539
172 3 O 6.14539 112.659 1.66572 -1.2 -10.0671 -4.69572e+06 -5.14685e+06 -2.95871e+06 -1.1703e+06 1.21102e+06 -267616
173 3 O 3.49029 116.341 1.69004 -1.2 -9.3362 -3.11556e+06 -4.39778e+06 -2.07243e+06 -1.18024e+06 -322575 1.13788e+06
174 3 O 3.72955 113.252 0.502983 -1.2 -9.45214 -1.54009e+06 -3.29435e+06 -4.01872e+06 -544148 405838 -403187
175 1 Mg 2.42792 122.544 3.31795 1.2 -8.15981 -2.60514e+06 3.49394e+06 -2.35748e+06 507386 2.71132e+06 1.09728e+06
176 3 O 3.91795 113.372 2.9072 -1.2 -9.20343 -2.98264e+06 -5.1398e+06 -3.66693e+06 -231712 -2.08868e+06 -153583
177 1 Mg 2.18115 119.419 4.63939 1.2 -7.64296 -544421 3.38261e+06 1.55568e+06 703155 -223489 433469
178 2 Si 4.86708 121.164 4.67316 2.4 -32.3888 1.77717e+06 1.2733e+07 7.30977e+06 1.67681e+06 -1.74751e+06 -1.67621e+06
179 3 O 3.44752 121.334 4.61518 -1.2 -9.7864 -6.9275e+06 -5.25246e+06 -3.43696e+06 390641 -795062 243792
180 3 O 6.21148 117.276 4.42904 -1.2 -9.43223 -4.33365e+06 -5.60382e+06 -2.35263e+06 -2.37073e+06 -854506 854348
181 3 O 5.69154 120.56 3.47271 -1.2 -9.27772 -2.48852e+06 -6.71011e+06 -1.48146e+06 -672570 -754947 -1.34438e+06
182 3 O 5.56264 120.563 6.00959 -1.2 -9.74781 -2.30393e+06 -3.68285e+06 -3.54143e+06 -119933 1.45521e+06 716175
183 1 Mg 4.94492 116.809 3.03016 1.2 -7.62854 -2.7313e+06 4.16547e+06 -2.69334e+06 767886 -2.51627e+06 2.16631e+06
184 1 Mg 4.64217 114.073 4.62971 1.2 -8.02585 -89532.1 1.63867e+06 1.87948e+06 -865765 -38078.1 501293
185 2 Si 6.88159 115.831 4.3865 2.4 -32.9333 6.85301e+06 1.03388e+07 7.29481e+06 1.26556e+06 -807332 1.80682e+06
186 3 O 3.74194 115.903 4.41792 -1.2 -9.42596 -812983 -5.20078e+06 -4.54416e+06 1.21342e+06 93407.5 -74888.4
187 3 O 5.76753 112.111 4.5918 -1.2 -9.48991 -1.78604e+06 -4.93304e+06 -4.09898e+06 1.41407e+06 -217106 -1.88217e+06
188 3 O 6.27225 115.162 3.02409 -1.2 -8.96175 -4.65361e+06 -4.55559e+06 -2.63269e+06 -231959 2.30897e+06 -761855
189 1 Mg 4.74592 116.816 0.0672141 1.2 -6.87524 -1.35674e+06 4.85104e+06 26631.1 501346 714397 -1.13958e+06
190 3 O 6.2003 115.13 5.61517 -1.2 -9.3404 -3.05083e+06 -4.48651e+06 -1.70853e+06 124331 -936285 1.41069e+06
191 1 Mg 4.65983 119.957 1.78738 1.2 -7.43923 2.24885e+06 2.12013e+06 781396 -1.04748e+06 -207386 1.11572e+06
192 2 Si 2.81212 117.891 1.77307 2.4 -32.5112 5.3018e+06 1.1441e+07 6.14459e+06 -1.67532e+06 2.47195e+06 -409666
193 3 O 5.97003 117.772 1.58409 -1.2 -9.46041 -421248 -5.39923e+06 -2.9911e+06 -593347 2.43516e+06 2.2194e+06
194 3 O 3.84494 121.844 1.76643 -1.2 -9.49467 -2.06916e+06 -5.92085e+06 -3.04533e+06 1.32774e+06 -1.48837e+06 -1.36895e+06
195 3 O 3.27335 118.528 0.464342 -1.2 -9.5357 -5.1313e+06 -3.37459e+06 -1.57274e+06 -223075 433966 1.46229e+06
196 3 O 3.4498 118.474 3.0916 -1.2 -9.58998 -1.45814e+06 -3.77878e+06 -1.04411e+06 -409290 510583 131627
197 1 Mg 2.49882 122.191 0.194291 1.2 -7.27971 -3.89577e+06 4.83235e+06 -417277 129970 -613563 -1.74512e+06
198 1 Mg 7.12708 125.125 1.67192 1.2 -8.83435 2.3713e+06 301203 2.07312e+06 226276 -98192 12252.6
199 2 Si 4.57704 123.29 1.71538 2.4 -33.4106 7.56236e+06 1.04174e+07 8.50613e+06 589576 1.48617e+06 -2.51893e+06
200 3 O 6.15498 123.356 1.64687 -1.2 -9.43824 -2.05544e+06 -4.04562e+06 -4.18124e+06 340279 800379 973651
201 3 O 3.43778 127.016 1.77184 -1.2 -8.99178 -4.92577e+06 -1.91557e+06 -2.65544e+06 814509 51665 1.35465e+06
202 3 O 3.82957 123.948 0.334904 -1.2 -8.93531 -1.6839e+06 -1.737e+06 -396642 -1.62483e+06 1.08981e+06 249029
203 1 Mg 1.99289 132.797 3.18551 1.2 -7.45047 -1.20976e+06 3.8764e+06 460014 -928675 1.51246e+06 3.16781e+06
204 3 O 3.91219 123.952 2.94873 -1.2 -8.37716 -5.04078e+06 -5.66891e+06 -3.58374e+06 -46289.5 -1.49157e+06 -392737
205 1 Mg 2.33341 129.618 4.87041 1.2 -8.03 798804 603107 1.92291e+06 619546 -201556 785887
206 2 Si 4.87571 131.696 4.49074 2.4 -33.1141 5.2093e+06 8.11604e+06 9.68435e+06 -2.09997e+06 1.83668e+06 2.86407e+06
207 3 O 3.35615 131.743 4.54902 -1.2 -9.18894 -2.42552e+06 -4.86124e+06 -4.75052e+06 -627826 -625103 -2.06345e+06
208 3 O 6.22084 127.817 4.76232 -1.2 -9.37511 -2.5436e+06 -8.39401e+06 -4.02475e+06 -1.32353e+06 1.29147e+06 -1.18214e+06
209 3 O 5.51445 131.094 3.15928 -1.2 -9.1739 -4.79884e+06 -1.22431e+06 -2.79001e+06 202371 -153160 -1.0003e+06
210 3 O 5.53 130.869 5.8565 -1.2 -8.65849 -2.19245e+06 -4.44152e+06 647994 -795002 928976 -1.25155e+06
211 1 Mg 4.7732 127.658 3.24395 1.2 -7.57773 -367266 4.98372e+06 -581163 892609 -1.71331e+06 1.50717e+06
212 1 Mg 4.92771 124.638 4.63323 1.2 -9.08835 1.39479e+06 381992 2.09781e+06 -1.33372e+06 -54810.9 -668655
213 2 Si 6.90182 126.399 4.77267 2.4 -33.7207 3.63775e+06 8.45826e+06 9.20593e+06 -609490 -1.00628e+06 481079
214 3 O 3.60946 126.499 4.63663 -1.2 -9.36362 -7.11246e+06 -3.50539e+06 -4.06066e+06 1.45645e+06 -1.52867e+06 -779029
215 3 O 5.80435 122.785 4.40735 -1.2 -7.87381 -5.97191e+06 -3.87321e+06 -3.76602e+06 3.92428e+06 2.25425e+06 -2.03581e+06
216 3 O 6.20776 125.735 3.47766 -1.2 -8.20097 -5.12122e+06 -4.10072e+06 -2.72279e+06 -1.02248e+06 921208 -305272
217 1 Mg 4.62491 127.452 0.178198 1.2 -7.73852 -1.45221e+06 3.33887e+06 -934576 1.47319e+06 2.05214e+06 -2.99769e+06
218 3 O 6.04742 125.723 6.04007 -1.2 -8.87253 -2.08195e+06 -4.80266e+06 -2.37209e+06 93928.4 -1.88042e+06 309304
219 1 Mg 4.553 130.529 1.51624 1.2 -8.24232 3.14868e+06 -1.52488e+06 1.41844e+06 -2.30812e+06 -154715 953874
220 2 Si 2.78287 128.522 1.87349 2.4 -33.4267 1.72773e+06 1.25171e+07 7.05233e+06 -765168 422341 81058.7
221 3 O 6.07262 128.4 1.75374 -1.2 -8.82148 -4.27719e+06 -6.32288e+06 -2.95867e+06 -423117 728309 284411
222 3 O 3.55106 132.403 1.64963 -1.2 -8.95738 -1.21841e+06 -7.82179e+06 -4.73031e+06 531613 -101589 -2.63968e+06
223 3 O 3.26372 129.341 0.540592 -1.2 -8.96753 -4.89668e+06 -2.6262e+06 -1.25858e+06 -706335 654759 -770052
224 3 O 3.32631 129.235 3.18686 -1.2 -9.36211 -3.05362e+06 -3.90635e+06 -1.38543e+06 -1.15281e+06 -414116 -736392
225 1 Mg 1.96793 132.846 0.168175 1.2 -7.6751 -1.19531e+06 3.57922e+06 248368 -1.19802e+06 -639295 -875775
226 1 Mg 6.9229 135.655 1.50803 1.2 -7.35385 -806882 811739 1.33715e+06 1.57566e+06 -982848 2.71684e+06
227 2 Si 4.22216 133.805 1.673 2.4 -32.4516 4.86283e+06 8.19383e+06 9.01231e+06 1.43146e+06 -1.62376e+06 2.21584e+06
228 3 O 5.82137 133.842 1.62636 -1.2 -10.0941 -1.88694e+06 -4.37104e+06 -3.42353e+06 154110 -268892 -1.03287e+06
229 3 O 3.19565 137.792 1.55577 -1.2 -10.2284 -593876 -3.8703e+06 -2.49495e+06 679815 526384 -1.75877e+06
230 3 O 3.58741 134.61 0.452567 -1.2 -9.59173 -4.08179e+06 -3.21054e+06 -2.78869e+06 -120026 1.27079e+06 112472
231 1 Mg 2.40732 143.503 3.2689 1.2 -7.34208 -1.18221e+06 4.42864e+06 -2.46119e+06 -1.25725e+06 2.45391e+06 2.32183e+06
232 3 O 3.54951 134.253 3.06357 -1.2 -9.17874 120775 -5.46981e+06 -3.57537e+06 172655 -984808 -3.68319e+06
233 1 Mg 2.44891 140.525 4.77259 1.2 -7.6721 -903972 1.4564e+06 -631807 2.5093e+06 -51370.3 1.8074e+06
234 2 Si 5.25811 142.301 4.6154 2.4 -32.4121 5.89681e+06 1.26573e+07 4.60332e+06 -1.38922e+06 -2.22226e+06 1.87546e+06
235 3 O 3.63829 142.49 4.67455 -1.2 -9.27337 1.17054e+06 -4.70286e+06 -3.70056e+06 -2.42838e+06 -1.18274e+06 101363
236 3 O 6.0355 138.627 4.75059 -1.2 -9.90732 -3.43223e+06 -1.28996e+07 -1.83425e+06 851919 1.23243e+06 -17110.5
237 3 O 5.93996 141.653 3.27677 -1.2 -9.80846 -1.96893e+06 -4.49286e+06 -1.04964e+06 1.59994e+06 -858253 -1.0892e+06
238 3 O 5.82809 141.58 5.81372 -1.2 -9.68407 -5.12178e+06 -4.23453e+06 -3.33096e+06 2.32081e+06 444509 -845081
239 1 Mg 4.58276 137.962 2.99898 1.2 -6.43935 -2.23915e+06 5.12577e+06 -1.31801e+06 856678 -1.83765e+06 3.04868e+06
240 1 Mg 4.76323 134.971 4.63498 1.2 -7.77078 2.60508e+06 1.49313e+06 719807 100927 -266476 1.47687e+06
241 2 Si 6.58787 137.32 4.54266 2.4 -32.0132 1.91763e+06 1.01477e+07 3.65715e+06 2.32671e+06 -463998 3.81764e+06
242 3 O 3.38253 137.267 4.5877 -1.2 -9.88029 -2.85184e+06 -5.66354e+06 -1.87239e+06 1.09177e+06 -1.04378e+06 -1.48331e+06
243 3 O 5.49678 133.072 4.82596 -1.2 -9.70403 -5.35005e+06 -7.05658e+06 -3.25908e+06 266137 -1.06786e+06 -720218
244 3 O 5.96699 136.4 3.32665 -1.2 -9.55278 -847468 -888705 -4.556e+06 465092 898809 -1.20541e+06
245 1 Mg 4.63223 138.392 0.233059 1.2 -6.29863 -1.83224e+06 3.5745e+06 -777881 1.18897e+06 1.6169e+06 1.29152e+06
246 3 O 5.80122 136.428 5.65505 -1.2 -9.32487 -3.13402e+06 -4.28309e+06 -6.85026e+06 692701 -1.07949e+06 -1.27603e+06
247 1 Mg 4.76998 141.084 1.77572 1.2 -6.97888 353391 2.0718e+06 482387 -1.10706e+06 -149824 1.20212e+06
248 2 Si 2.56243 139.334 1.7428 2.4 -31.6354 -3.81255e+06 1.18418e+07 5.38326e+06 -1.39235e+06 1.06887e+06 5.883e+06
249 3 O 5.83144 139.132 1.81344 -1.2 -10.5029 -5.28404e+06 -5.3329e+06 -4.2264e+06 428950 -191238 -2.39648e+06
250 3 O 3.85719 143.214 1.93355 -1.2 -10.0352 -2.6881e+06 -9.55105e+06 -3.81944e+06 -1.57812e+06 697970 -1.29314e+06
251 3 O 3.10008 140.117 0.622847 -1.2 -10.2892 -1.78022e+06 -6.53247e+06 -5.57941e+06 -459973 1.0582e+06 68522.1
252 3 O 3.16553 139.818 3.09114 -1.2 -9.62124 -3.17605e+06 -5.24463e+06 -3.76913e+06 569814 -463084 -2.18232e+06
253 1 Mg 2.18283 143.436 0.559541 1.2 -6.27113 -2.77584e+06 4.70337e+06 -1.57526e+06 -887996 -2.38806e+06 -1.35722e+06
254 1 Mg 7.06925 146.696 2.35281 1.2 -7.89885 1.42023e+06 1.31061e+06 230667 1.2814e+06 280386 212773
255 2 Si 4.44159 144.56 1.89476 2.4 -32.9029 2.8208e+06 6.63279e+06 9.47582e+06 -1.42466e+06 700393 94466.5
256 3 O 6.0235 144.532 1.92708 -1.2 -9.65212 -2.65098e+06 -3.95656e+06 -5.1169e+06 -341108 408743 1.21271e+06
257 3 O 3.32925 148.567 2.31288 -1.2 -9.84132 -2.06029e+06 -2.39572e+06 -3.02839e+06 -1.87234e+06 -98779.5 539253
258 3 O 3.98938 145.347 0.629308 -1.2 -9.1914 -3.65114e+06 -2.97068e+06 -3.7293e+06 578952 -581646 1.24714e+06
259 1 Mg 1.94861 154.336 2.44192 1.2 -7.10048 629657 1.68146e+06 410627 766945 -436198 -2.08605e+06
260 3 O 3.82742 145.277 3.27873 -1.2 -8.7693 -3.07745e+06 -3.51119e+06 -1.21431e+06 50061.5 -1.08361e+06 459926
261 1 Mg 2.07292 152.622 5.78214 1.2 -7.04685 -4.4503e+06 1.29087e+06 -1.1753e+06 786429 2724.78 2.08853e+06
262 2 Si 4.12133 152.385 3.75219 2.4 -32.527 1.17061e+07 9.73877e+06 6.77166e+06 -102747 -783645 -4.71674e+06
263 3 O 2.76846 153.213 4.03582 -1.2 -9.52954 -1.09833e+06 -4.76295e+06 -735840 -1.52724e+06 -226801 1.08818e+06
264 3 O 5.98201 149.197 5.47663 -1.2 -8.81461 -5.54011e+06 -7.60215e+06 -2.68733e+06 -2.15354e+06 -195348 -1.18406e+06
265 3 O 5.1209 153.001 2.63715 -1.2 -9.31376 -2.01485e+06 -3.28804e+06 -1.04469e+06 3.31376e+06 -3.92454e+06 886618
266 3 O 4.99508 152.207 5.18571 -1.2 -9.6468 -3.65869e+06 -2.06787e+06 789346 -2.03839e+06 1.95903e+06 1.79111e+06
267 1 Mg 4.6542 148.972 3.93546 1.2 -7.75079 -615404 2.6951e+06 -126719 1.87441e+06 -1.98757e+06 165112
268 1 Mg 4.51455 146.038 4.98796 1.2 -8.42323 167527 2.66578e+06 2.17878e+06 -1.58381e+06 -229505 151977