ITEM: TIMESTEP
33500
ITEM: NUMBER OF ATOMS
5600
ITEM: BOX BOUNDS xy xz yz pp pp pp
0.0000000000000000e+00 7.1234999999999999e+00 0.0000000000000000e+00
0.0000000000000000e+00 2.0198500000000001e+02 2.3744999999999998e+00
0.0000000000000000e+00 1.1958400000000000e+02 0.0000000000000000e+00
ITEM: ATOMS id type element xu yu zu q c_pe c_s[1] c_s[2] c_s[3] c_s[4] c_s[5] c_s[6]
1 1 Mg -1.62935 49.5504 -1.19512 1.2 -7.14885 -1.03437e+06 -1.51106e+06 2.42145e+06 194304 219867 1.22731e+06
2 1 Mg 3.10323 51.2511 2.0924 1.2 -7.74319 -3.83822e+06 4.70438e+06 -758952 243382 61508.5 411780
3 2 Si 0.894204 51.115 0.168267 2.4 -32.6447 7.28894e+06 1.00902e+07 3.41718e+06 -744781 -230436 2.60758e+06
4 3 O 2.29663 50.4256 0.392943 -1.2 -8.9993 -3.90228e+06 -2.58533e+06 -4.28302e+06 -336671 -688038 783825
5 3 O -1.11074 53.6874 1.63666 -1.2 -9.12902 -2.13601e+06 -7.04155e+06 -623273 -1.1674e+06 208541 -1.18758e+06
6 3 O 0.134206 50.3404 -0.933262 -1.2 -9.54658 -5.31657e+06 -1.73793e+06 -6.07946e+06 619746 1.09543e+06 -1.21101e+06
7 1 Mg -2.13923 59.4416 3.00004 1.2 -6.88932 -1.75497e+06 4.16641e+06 -273159 -1.2063e+06 1.1974e+06 3.16399e+06
8 3 O 0.127235 51.237 1.48243 -1.2 -9.29765 -6.37509e+06 -6.76028e+06 -3.63412e+06 -102435 -729241 -1.95121e+06
9 1 Mg -2.22432 56.4957 4.46508 1.2 -7.29509 -860986 2.01412e+06 1.59093e+06 1.05289e+06 934054 -175086
10 2 Si 0.38247 58.3901 4.44535 2.4 -31.38 414497 1.19726e+07 7.68571e+06 955458 -742089 2.35327e+06
11 3 O -1.07453 58.4467 4.40746 -1.2 -10.5715 -4.58475e+06 -3.97074e+06 -3.00272e+06 10123.1 227697 -630160
12 3 O 1.48006 54.4106 4.78349 -1.2 -10.0876 -3.72036e+06 -2.29931e+06 -2.73141e+06 -1.75939e+06 1.37113e+06 -1.50536e+06
13 3 O 1.07615 57.6971 3.15534 -1.2 -9.72382 -738008 -2.23545e+06 -2.19591e+06 -24128 -260554 -768432
14 3 O 1.14235 57.7176 5.66396 -1.2 -10.0096 -2.47783e+06 -3.56526e+06 -3.01255e+06 536060 182690 541081
15 1 Mg 0.210545 53.9472 3.12382 1.2 -7.37399 -1.54334e+06 4.21725e+06 31089 146270 -1.08933e+06 1.2819e+06
16 1 Mg 0.791076 50.5525 3.14133 1.2 -7.28089 281189 2.02539e+06 -3.95291e+06 -601439 -130649 1.14496e+06
17 2 Si 2.30816 52.9816 4.69161 2.4 -31.8121 5.34312e+06 9.97683e+06 8.77606e+06 -1.01662e+06 347046 837094
18 3 O -0.93709 53.2607 4.70831 -1.2 -9.87282 -2.4815e+06 -3.86307e+06 -2.68494e+06 294336 -614509 364201
19 3 O 2.60966 49.668 3.14157 -1.2 -7.37099 417043 -933614 -3.01335e+06 -455041 -1.05031e+06 -1.08434e+06
20 3 O 1.80004 52.3795 3.27347 -1.2 -9.72002 -2.21673e+06 -4.27991e+06 -1.91304e+06 -954524 -5255.58 -340015
21 1 Mg -0.0644001 54.3069 -0.050952 1.2 -6.94781 -2.01755e+06 5.16197e+06 -443145 1.15366e+06 1.39532e+06 -1.14424e+06
22 3 O 1.79712 51.9383 5.88178 -1.2 -10.8436 -3.7033e+06 -5.19812e+06 -2.27168e+06 1.01042e+06 503264 -744707
23 1 Mg 0.0244409 57.0462 1.47871 1.2 -7.92313 1.77218e+06 1.81558e+06 1.35059e+06 -1.09983e+06 261844 -524358
24 2 Si -1.97644 55.0823 1.75344 2.4 -32.567 3.51256e+06 1.39565e+07 3.60085e+06 -1.43571e+06 1.04701e+06 -935815
25 3 O 1.2726 55.0374 1.71342 -1.2 -9.83646 -4.17384e+06 -5.26234e+06 -299441 -1.4551e+06 1.19702e+06 109398
26 3 O -0.923371 58.9653 1.33403 -1.2 -9.72567 -2.16098e+06 -4.49073e+06 -1.91421e+06 244345 -209077 -2.46654e+06
27 3 O -1.41799 55.9447 0.508389 -1.2 -9.52249 -2.59759e+06 -4.29334e+06 -1.07969e+06 221787 -464205 1.11708e+06
28 3 O -1.2903 55.7114 3.02795 -1.2 -9.62231 -2.00973e+06 -4.97718e+06 -3.87543e+06 730722 1.15011e+06 -1.3935e+06
29 1 Mg -2.44739 59.7111 -0.104393 1.2 -6.73135 -2.69825e+06 4.97219e+06 -817330 -1.31931e+06 -2.08799e+06 -1.93649e+06
30 1 Mg 2.24039 62.2521 1.5368 1.2 -7.35828 64138.9 1.83185e+06 1.79106e+06 1.02122e+06 43488.9 -283592
31 2 Si -0.352757 60.4751 1.39153 2.4 -31.2122 2.056e+06 1.31095e+07 5.87221e+06 -833338 1.87866e+06 1.11203e+06
32 3 O 1.22304 60.4053 1.48087 -1.2 -10.452 -186254 -5.00478e+06 -2.36766e+06 -1.05221e+06 753814 -1.32243e+06
33 3 O -1.36895 64.195 1.4756 -1.2 -9.65255 -1.14672e+06 -4.88891e+06 -2.34286e+06 -1.24924e+06 574472 -719097
34 3 O -1.06793 61.2232 0.109182 -1.2 -10.216 -154988 -4.81554e+06 -2.19314e+06 -189032 1.42555e+06 -458793
35 1 Mg -2.45311 69.8579 3.2448 1.2 -7.25848 -802077 4.85258e+06 167288 -833339 832443 1.41149e+06
36 3 O -1.00002 61.058 2.6701 -1.2 -10.1277 -2.74851e+06 -4.99616e+06 -2.10468e+06 226738 305095 -1.86396e+06
37 1 Mg -2.2736 66.8523 4.49883 1.2 -8.08078 1.01181e+06 809603 666471 61076.3 242812 -291808
38 2 Si 0.20078 68.6497 4.66233 2.4 -32.7223 3.39428e+06 1.43409e+07 7.0617e+06 1.03677e+06 -426289 541187
39 3 O -1.34575 68.6776 4.74133 -1.2 -9.94718 -2.05527e+06 -4.88447e+06 -3.24777e+06 96384.2 352788 -495996
40 3 O 1.39126 65.0971 4.59998 -1.2 -9.39229 -1.76632e+06 -4.30737e+06 -2.28497e+06 -1.81631e+06 12315.9 734146
41 3 O 0.805248 68.1547 3.30321 -1.2 -9.465 -2.24678e+06 -4.12971e+06 -1.31415e+06 -275791 -787901 -170922
42 3 O 0.873295 67.9233 5.90778 -1.2 -9.25867 -3.84587e+06 -5.63223e+06 -423796 -49839.8 1.12614e+06 8727.2
43 1 Mg -0.0308631 64.5986 3.11774 1.2 -7.2264 -984276 4.82231e+06 673340 749077 -954737 1.83098e+06
44 1 Mg 0.0575335 61.7259 4.51531 1.2 -7.52668 605162 1.2238e+06 3.03801e+06 -1.03947e+06 -252994 514317
45 2 Si 2.08319 63.5505 4.56203 2.4 -31.9573 5.09425e+06 1.23136e+07 7.11849e+06 -1.55961e+06 716590 717556
46 3 O -1.06267 63.5451 4.60918 -1.2 -10.0011 613025 -4.19126e+06 -3.13602e+06 -88138.1 511561 -109731
47 3 O 1.12951 59.9857 4.51167 -1.2 -9.79188 437240 -2.38929e+06 -2.02159e+06 1.5733e+06 -24563.1 104960
48 3 O 1.45045 62.9102 3.23968 -1.2 -10.1289 -1.6876e+06 -3.9838e+06 -524786 309111 1.05008e+06 -745579
49 1 Mg 0.0902921 64.6493 -0.050924 1.2 -6.92153 -3.35894e+06 3.25609e+06 -946599 1.04847e+06 1.91335e+06 -1.67494e+06
50 3 O 1.46952 63.0278 5.91276 -1.2 -9.54355 -4.61372e+06 -5.18889e+06 -895617 237482 -891774 1.16246e+06
51 1 Mg 0.00149687 67.5106 1.49714 1.2 -7.63942 -353669 1.41409e+06 2.48375e+06 -755298 141119 549418
52 2 Si -2.06437 65.6491 1.42605 2.4 -31.4739 4.29997e+06 1.09848e+07 8.31452e+06 106781 -642516 1.57348e+06
53 3 O 1.16316 65.5502 1.49437 -1.2 -10.3691 -2.29691e+06 -3.7767e+06 -1.98793e+06 1.12862e+06 -1.16893e+06 -934501
54 3 O -1.03183 69.3073 1.58216 -1.2 -9.82263 -1.45153e+06 -5.20236e+06 -1.93914e+06 1.81792e+06 -1.3622e+06 961029
55 3 O -1.22255 66.2924 0.2021 -1.2 -10.1382 577680 -4.55783e+06 -2.40494e+06 477511 -1.05282e+06 968851
56 3 O -1.36026 66.3216 2.84754 -1.2 -9.43274 -1.81378e+06 -3.46272e+06 133812 -202186 1.92959e+06 -1.07498e+06
57 1 Mg -2.42924 69.7867 0.0860125 1.2 -6.79509 -3.51384e+06 3.80243e+06 723487 -1.81128e+06 -1.88875e+06 -1.71379e+06
58 1 Mg 2.22452 72.6053 1.43787 1.2 -7.88638 795948 841752 2.97198e+06 934788 -337178 -87034.3
59 2 Si -0.393402 70.7984 1.62229 2.4 -31.9109 5.72308e+06 1.10036e+07 7.10556e+06 347649 1.48026e+06 -1.1678e+06
60 3 O 1.22984 70.776 1.68743 -1.2 -10.054 138569 -4.01393e+06 -2.60985e+06 -607356 1.45943e+06 347352
61 3 O -1.4293 74.5749 1.60437 -1.2 -9.14197 -2.62037e+06 -4.8312e+06 -3.55278e+06 106711 669291 -317918
62 3 O -1.17524 71.419 0.326061 -1.2 -9.951 -1.74149e+06 -3.9884e+06 -2.08317e+06 -727445 1.35006e+06 1.71417e+06
63 1 Mg -2.61069 80.2445 3.04645 1.2 -7.60118 -1.47415e+06 3.87982e+06 572504 -1.03966e+06 1.73988e+06 1.00757e+06
64 3 O -1.00101 71.459 2.89715 -1.2 -9.51714 -3.60342e+06 -3.43647e+06 -2.33033e+06 177060 -1.07064e+06 -886623
65 1 Mg -2.58651 77.3238 4.6109 1.2 -8.17336 1.05421e+06 398501 4.06132e+06 564531 208157 -248301
66 2 Si 0.0955373 79.196 4.53709 2.4 -32.8484 6.13132e+06 9.59829e+06 9.32609e+06 1.55926e+06 650769 121933
67 3 O -1.44038 79.1783 4.51851 -1.2 -9.66725 -2.339e+06 -2.09388e+06 -3.87238e+06 438133 392691 25043.4
68 3 O 1.15911 75.5875 4.63792 -1.2 -9.44497 -1.68236e+06 -2.21718e+06 -2.98762e+06 -2.45495e+06 489559 1.31622e+06
69 3 O 0.749107 78.5918 3.22895 -1.2 -9.42201 -3.29174e+06 -1.64126e+06 -2.18649e+06 -94318.3 -323208 153394
70 3 O 0.847683 78.5417 5.81838 -1.2 -9.14665 -3.55135e+06 -4.02404e+06 -1.8374e+06 -637417 1.57444e+06 770871
71 1 Mg -0.0615201 75.0365 3.14101 1.2 -7.69303 -466032 3.40103e+06 220107 898706 -1.92094e+06 474481
72 1 Mg -0.344322 72.1507 4.66608 1.2 -8.41507 1.6057e+06 768786 1.75152e+06 -1.04908e+06 365728 -302596
73 2 Si 1.91872 73.9963 4.52701 2.4 -32.8471 5.98746e+06 1.02343e+07 9.67056e+06 267522 -1.64992e+06 -2.74085e+06
74 3 O -1.26864 74.0591 4.55584 -1.2 -9.67367 -1.40159e+06 -2.69933e+06 -4.70482e+06 256350 -316150 1.43194e+06
75 3 O 0.943456 70.2413 4.77122 -1.2 -8.99244 -602003 -2.56074e+06 -3.36764e+06 1.62628e+06 -418015 -734356
76 3 O 1.27772 73.4013 3.28066 -1.2 -9.26493 -3.80784e+06 -2.77711e+06 -3.31494e+06 -623943 -179625 773129
77 1 Mg -0.097576 74.9884 0.0365466 1.2 -7.49072 -935007 3.50799e+06 1.16987e+06 1.04758e+06 1.15387e+06 -2.61694e+06
78 3 O 1.20214 73.2999 5.85566 -1.2 -8.75275 -3.0143e+06 -2.64034e+06 -1.56268e+06 322089 -1.73939e+06 15994
79 1 Mg -0.0992118 77.8894 1.43191 1.2 -7.90744 1.53536e+06 -48759.8 3.81531e+06 -1.68664e+06 -29643.1 -85493.7
80 2 Si -2.10402 76.0167 1.48669 2.4 -33.0801 3.88723e+06 7.88711e+06 9.79297e+06 -179303 -10398.8 -3.51138e+06
81 3 O 1.12488 75.9075 1.40075 -1.2 -9.54083 -3.33603e+06 -2.56936e+06 -4.18987e+06 470307 -1.77492e+06 1.41068e+06
82 3 O -1.4046 79.7672 1.554 -1.2 -9.54232 -1.27832e+06 -2.10122e+06 -4.47623e+06 1.51223e+06 -347061 6893.32
83 3 O -1.32526 76.7554 0.226219 -1.2 -9.41253 -3.35141e+06 -1.2708e+06 -1.76035e+06 -220086 -624020 1.49191e+06
84 3 O -1.5957 76.5566 2.84804 -1.2 -8.96678 -2.10574e+06 -5.6636e+06 -2.66926e+06 -396907 -275749 -1.64614e+06
85 1 Mg -2.72129 80.2103 0.104274 1.2 -7.56825 -2.62442e+06 3.07483e+06 112937 -1.04202e+06 -2.26726e+06 -1.69529e+06
86 1 Mg 2.08878 83.2105 1.65843 1.2 -7.82507 1.20353e+06 317642 2.70163e+06 855392 566178 -289628
87 2 Si -0.642311 81.2582 1.42696 2.4 -31.9834 6.17769e+06 9.33708e+06 9.66057e+06 1.05666e+06 -174983 33949.4
88 3 O 0.964572 81.1874 1.51593 -1.2 -9.94946 366553 -2.60016e+06 -3.95384e+06 769304 691496 206585
89 3 O -1.56821 84.9245 1.74621 -1.2 -9.60864 -2.86209e+06 -3.99609e+06 -3.835e+06 -1.32466e+06 -184524 1.09014e+06
90 3 O -1.23318 81.8874 0.130572 -1.2 -9.72961 -3.08636e+06 -2.66238e+06 -4.08797e+06 -446539 734669 292148
91 1 Mg -2.47773 90.683 3.05422 1.2 -7.89406 -1.36445e+06 3.29609e+06 -61644.6 -758275 1.23337e+06 1.42676e+06
92 3 O -1.26553 81.9703 2.77291 -1.2 -9.52998 -2.22642e+06 -3.2567e+06 -186649 -736989 -561771 -560201
93 1 Mg -2.50209 87.8315 4.74114 1.2 -8.04566 688252 1.81435e+06 1.79579e+06 1.17742e+06 -213355 -493672
94 2 Si 0.151274 89.6353 4.68795 2.4 -32.6012 6.75889e+06 1.12496e+07 8.14063e+06 176161 171778 -884808
95 3 O -1.45189 89.7178 4.65911 -1.2 -9.76634 -465002 -4.56681e+06 -2.25875e+06 -196908 395917 -28998.8
96 3 O 1.1537 85.8514 4.71665 -1.2 -9.28725 -997678 -4.40566e+06 -3.50013e+06 -1.84882e+06 -113389 -110432
97 3 O 0.774615 89.0171 3.33164 -1.2 -9.54262 -1.86021e+06 -3.47576e+06 -821597 -339420 -998470 -188747
98 3 O 0.829265 88.9174 5.98759 -1.2 -9.34684 -1.44108e+06 -4.2156e+06 -297369 -393687 894322 541497
99 1 Mg -0.303664 85.432 3.24205 1.2 -7.43144 -2.16593e+06 3.97132e+06 -899887 533499 -994047 2.04711e+06
100 1 Mg -0.29866 82.467 4.55442 1.2 -8.07041 1.85649e+06 800129 3.43735e+06 -418252 162941 -978093
101 2 Si 1.88937 84.3667 4.58015 2.4 -32.5726 2.71658e+06 1.14832e+07 7.9898e+06 -289340 -1.02104e+06 -341554
102 3 O -1.3664 84.3508 4.51853 -1.2 -10.0501 -4.64968e+06 -3.70697e+06 -4.62421e+06 82101.5 131651 -215248
103 3 O 0.865147 80.7202 4.67261 -1.2 -9.19011 -422907 -3.33797e+06 -3.15049e+06 1.63489e+06 25510.9 704312
104 3 O 1.16172 83.7876 3.33377 -1.2 -9.26823 -3.98036e+06 -4.23307e+06 -4.07262e+06 247272 465044 -514818
105 1 Mg -0.164708 85.5084 0.23431 1.2 -7.36518 -1.28729e+06 3.8898e+06 -319414 453480 95717.9 -1.60875e+06
106 3 O 1.13412 83.6415 5.90359 -1.2 -9.15057 -1.04173e+06 -4.4114e+06 -1.27153e+06 955368 -1.26092e+06 161469
107 1 Mg -0.246671 88.3221 1.7732 1.2 -7.82417 965996 1.05328e+06 3.0238e+06 -1.03351e+06 -420203 -568851
108 2 Si -2.27471 86.4154 1.75716 2.4 -32.0326 4.05521e+06 1.08042e+07 8.5425e+06 240279 -359733 323998
109 3 O 0.939058 86.2642 1.75096 -1.2 -10.0808 -1.75649e+06 -4.20741e+06 -3.44182e+06 440753 -419594 304385
110 3 O -1.23161 90.2106 1.52043 -1.2 -9.43795 -3.00824e+06 -6.77353e+06 -4.23301e+06 1.38823e+06 377462 -1.76158e+06
111 3 O -1.52152 87.1343 0.540981 -1.2 -9.66038 -2.1222e+06 -4.29174e+06 -2.36976e+06 -39870.9 -1.32258e+06 245181
112 3 O -1.59811 87.1295 3.06687 -1.2 -9.64399 -1.8233e+06 -2.64742e+06 -2.35643e+06 406816 1.32461e+06 97690.5
113 1 Mg -2.70325 90.5266 0.152701 1.2 -7.36681 -1.4643e+06 4.0514e+06 -477569 -840067 -1.6696e+06 -1.3393e+06
114 1 Mg 2.14593 93.578 1.54708 1.2 -8.55101 2.81644e+06 -287743 3.13955e+06 973000 -94700.7 -218125
115 2 Si -0.527599 91.6101 1.55901 2.4 -33.3949 7.28704e+06 8.84248e+06 8.57924e+06 -731861 719655 406398
116 3 O 1.07759 91.5112 1.66884 -1.2 -9.41766 -2.0631e+06 -3.612e+06 -3.4323e+06 -210815 137788 -84413.1
117 3 O -1.45686 95.3115 1.67745 -1.2 -9.30187 -1.60226e+06 -1.33684e+06 -3.78106e+06 154508 -449583 -787332
118 3 O -1.20712 92.4317 0.378075 -1.2 -8.86391 -2.77234e+06 -2.98434e+06 -4.71052e+06 -943688 1.30217e+06 695690
119 1 Mg -2.30492 101.135 3.11925 1.2 -7.08174 -3.93811e+06 3.03149e+06 -82938.9 -714713 1.84941e+06 1.24634e+06
120 3 O -1.22039 92.2174 2.88543 -1.2 -8.50875 -3.72211e+06 -4.9601e+06 -3.53156e+06 -1.10984e+06 -806423 -1.48795e+06
121 1 Mg -2.46395 98.0685 4.6802 1.2 -8.13959 2.59609e+06 591335 2.0474e+06 1.24161e+06 487430 -42841.7
122 2 Si 0.283361 100.023 4.39882 2.4 -32.0014 4.41702e+06 1.19559e+07 8.58768e+06 536797 -634533 -211507
123 3 O -1.25765 100.228 4.54772 -1.2 -10.0082 -1.59517e+06 -5.05713e+06 -4.68095e+06 1.11027e+06 -710705 571475
124 3 O 1.1255 96.1546 4.67822 -1.2 -8.99834 -2.27802e+06 -5.30512e+06 -4.29426e+06 -1.16075e+06 30577.2 31954.1
125 3 O 0.92481 99.2151 3.20371 -1.2 -9.79252 -788680 -1.34967e+06 -4.1282e+06 -672089 -160164 1.18562e+06
126 3 O 0.909764 99.2736 5.69202 -1.2 -8.99068 -3.38908e+06 -3.09603e+06 -1.92528e+06 -407177 709884 -507627
127 1 Mg 0.0214625 95.7412 3.09917 1.2 -7.82728 -2.33377e+06 3.48771e+06 -64056.3 1.7052e+06 -2.15579e+06 2.192e+06
128 1 Mg -0.147096 92.837 4.59964 1.2 -8.84492 2.61353e+06 -600348 3.49131e+06 -731746 55188.1 56284.6
129 2 Si 1.86719 94.7179 4.63026 2.4 -33.7812 9.16627e+06 9.22797e+06 8.51287e+06 -1.01797e+06 -1.20029e+06 1.45294e+06
130 3 O -1.31204 94.6482 4.60723 -1.2 -8.92155 -1.83786e+06 -2.88602e+06 -3.8586e+06 -404213 -166252 187281
131 3 O 0.837302 91.1041 4.78861 -1.2 -9.06159 -3.05079e+06 -4.74517e+06 -3.29213e+06 1.59099e+06 -391581 240011
132 3 O 1.15318 94.0227 3.33291 -1.2 -8.84674 -4.73971e+06 -2.24052e+06 -1.80187e+06 1.0968e+06 970019 -866906
133 1 Mg -0.057093 96.0986 0.119334 1.2 -7.19823 -835960 3.42367e+06 -131702 1.29474e+06 1.26558e+06 -2.45515e+06
134 3 O 1.18017 94.082 5.95097 -1.2 -8.51177 -4.03071e+06 -4.36073e+06 -1.78139e+06 940625 -1.22046e+06 599997
135 1 Mg -0.0252507 98.695 1.52873 1.2 -7.5243 1.05504e+06 253040 1.99848e+06 -1.7706e+06 280663 -1.29395e+06
136 2 Si -2.08337 96.8574 1.747 2.4 -32.1239 3.57265e+06 1.11858e+07 1.00322e+07 -1.3328e+06 1.86139e+06 -1.06226e+06
137 3 O 1.06846 96.6925 1.63776 -1.2 -10.0045 -4541.63 -3.95997e+06 -4.6483e+06 -544728 1.34668e+06 313719
138 3 O -1.09469 100.699 1.56856 -1.2 -9.65925 -1.69173e+06 -4.67372e+06 -3.09373e+06 1.13646e+06 648629 -13694.7
139 3 O -1.58291 97.7216 0.518505 -1.2 -9.87101 -2.78129e+06 -2.77805e+06 -1.01945e+06 -489041 -108888 582079
140 3 O -1.47312 97.3624 3.14057 -1.2 -9.51225 -2.25517e+06 -3.04664e+06 -1.66856e+06 352426 115512 -123064
141 1 Mg -2.50572 100.98 0.119869 1.2 -7.27463 -1.1596e+06 4.49613e+06 -736599 -679537 -1.58392e+06 -1.55961e+06
142 1 Mg 7.0785 104.023 1.46294 1.2 -7.94516 836401 783389 2.90149e+06 786746 171422 -182352
143 2 Si -0.346564 102.163 1.70063 2.4 -32.1576 3.80709e+06 9.76536e+06 8.44938e+06 297643 911350 -435915
144 3 O 1.16439 101.998 1.63989 -1.2 -10.0948 -2.89863e+06 -3.18588e+06 -3.32842e+06 -331822 -454829 121724
145 3 O 3.23366 105.886 1.45583 -1.2 -9.2347 -3.08998e+06 -5.57748e+06 -4.93034e+06 -1.50498e+06 46058.2 522736
146 3 O -1.05544 102.937 0.418362 -1.2 -9.21926 -1.42374e+06 -3.1821e+06 -1.14168e+06 -265619 1.41285e+06 184880
147 1 Mg 2.30045 111.407 2.98727 1.2 -8.15829 -777063 3.07876e+06 340012 -536740 4276.51 1.86512e+06
148 3 O -1.0347 102.732 2.98073 -1.2 -9.73034 -2.27328e+06 -4.35632e+06 -5.18011e+06 -742292 -689545 -883416
149 1 Mg 2.30468 108.612 4.41889 1.2 -8.61638 2.64218e+06 312500 2.63009e+06 702396 33214.6 -193699
150 2 Si 4.94484 110.554 4.45213 2.4 -34.3923 7.20459e+06 9.6055e+06 5.52821e+06 1.32941e+06 386913 -2.59757e+06
151 3 O 3.35268 110.537 4.3537 -1.2 -8.94093 -3.57131e+06 -3.51234e+06 -3.66512e+06 1.15197e+06 -373204 1.2781e+06
152 3 O 6.03694 106.828 4.48268 -1.2 -9.15063 -2.26356e+06 -3.53626e+06 -2.82169e+06 -1.43115e+06 -49043.3 -117713
153 3 O 5.5767 109.929 3.24316 -1.2 -8.86196 -4.97678e+06 -4.76982e+06 -8.19286e+06 -517005 -346960 -2.00368e+06
154 3 O 5.52855 109.84 5.71708 -1.2 -8.3024 -4.73371e+06 -2.83531e+06 -3.39146e+06 -62009.2 424208 1.5429e+06
155 1 Mg 4.63167 106.329 2.86509 1.2 -7.76271 -1.18662e+06 3.25855e+06 321272 784302 -1.30926e+06 1.33378e+06
156 1 Mg 0.0518698 103.328 4.48908 1.2 -7.76587 1.57008e+06 639522 1.56012e+06 -1.31325e+06 -719947 -1.68768e+06
157 2 Si 6.69948 105.311 4.46356 2.4 -32.7265 7.23991e+06 9.734e+06 8.86617e+06 -1.46938e+06 529718 -663755
158 3 O 3.5779 105.425 4.39748 -1.2 -9.50113 125052 -3.22278e+06 -2.73989e+06 219168 402204 685934
159 3 O 1.07651 101.571 4.51421 -1.2 -9.75916 -2.88414e+06 -1.92242e+06 -3.60705e+06 1.79684e+06 180684 1.69186e+06
160 3 O 6.0243 104.699 3.10804 -1.2 -9.51039 -2.45716e+06 -2.47805e+06 -1.12785e+06 309299 1.48224e+06 -5471.54
161 1 Mg 4.65465 106.247 0.0367096 1.2 -7.75333 -1.01617e+06 3.74023e+06 119091 733014 826926 -1.4788e+06
162 3 O 6.11803 104.658 5.7527 -1.2 -9.50003 -2.85015e+06 -3.96093e+06 -2.15451e+06 328274 -1.08015e+06 1.74864e+06
163 1 Mg 4.77914 109.365 1.59128 1.2 -8.43042 1.60781e+06 137178 1.7164e+06 -553002 -476445 -346847
164 2 Si 2.58763 107.37 1.51319 2.4 -33.4484 6.10302e+06 8.27229e+06 8.81364e+06 417821 -312668 -1.03475e+06
165 3 O 5.75636 107.311 1.44213 -1.2 -9.49681 -2.41957e+06 -2.59301e+06 -3.93719e+06 689057 461006 767998
166 3 O 3.76015 111.117 1.35492 -1.2 -8.74293 -3.52602e+06 -4.89394e+06 -4.0662e+06 1.66625e+06 375609 -1.04516e+06
167 3 O 3.23235 107.972 0.176236 -1.2 -8.68695 -3.69216e+06 -3.06405e+06 -2.61184e+06 -113709 -1.13552e+06 1.01381e+06
168 3 O 3.26738 107.987 2.75091 -1.2 -9.20262 -2.60795e+06 -3.36206e+06 -5.06829e+06 -202264 450670 -1.46662e+06
169 1 Mg 2.19737 111.797 -0.0390465 1.2 -7.7644 -418900 3.50601e+06 189610 -856637 -1.45769e+06 -1.37514e+06
170 1 Mg 7.06721 114.431 1.51347 1.2 -8.72149 2.6e+06 984548 3.47788e+06 897536 -458386 -276684
171 2 Si 4.415 112.573 1.52855 2.4 -33.7924 6.06319e+06 9.69758e+06 9.18042e+06 141996 1.24315e+06 745087
172 3 O 5.96829 112.479 1.60072 -1.2 -9.43087 -3.43788e+06 -3.56783e+06 -4.06552e+06 -524046 -118563 -1.09109e+06
173 3 O 3.37986 116.382 1.55495 -1.2 -8.80451 -1.41241e+06 -2.10754e+06 -3.88795e+06 -451867 149039 -241391
174 3 O 3.72848 113.334 0.250345 -1.2 -8.88583 -1.47558e+06 -4.62095e+06 -3.49502e+06 -698344 1.71032e+06 288886
175 1 Mg 2.45467 122.031 3.0631 1.2 -7.84086 -2.0334e+06 4.46458e+06 -1.03244e+06 -624786 2.49509e+06 1.13923e+06
176 3 O 3.69651 113.204 2.78304 -1.2 -8.70136 -4.49403e+06 -2.83009e+06 -3.73154e+06 -184584 -1.11886e+06 -653231
177 1 Mg 2.51301 119.31 4.60499 1.2 -8.30401 989985 1.36388e+06 1.74803e+06 1.06793e+06 -279414 989870
178 2 Si 5.08715 120.976 4.58622 2.4 -33.3432 6.10541e+06 1.19754e+07 6.68957e+06 486797 -715814 -1.46772e+06
179 3 O 3.51801 121.075 4.69112 -1.2 -9.38098 -2.18463e+06 -5.31278e+06 -2.92068e+06 453541 -912623 652398
180 3 O 6.10987 117.207 4.62591 -1.2 -8.53284 -2.53321e+06 -4.54994e+06 -3.48589e+06 -1.45021e+06 1.23353e+06 -1.10714e+06
181 3 O 5.73925 120.25 3.39794 -1.2 -9.27598 -2.47432e+06 -5.37885e+06 -2.70164e+06 -175789 -62146.5 -1.58623e+06
182 3 O 5.65479 120.344 5.97613 -1.2 -8.71436 -3.88927e+06 -3.54075e+06 -403723 -28551.7 207755 156979
183 1 Mg 4.8295 116.864 2.9895 1.2 -8.08941 1.34338e+06 4.05003e+06 -388018 1.05954e+06 -1.04169e+06 1.45322e+06
184 1 Mg 4.49554 113.888 4.44439 1.2 -8.85821 2.51878e+06 1.31365e+06 2.46348e+06 -288033 -412169 -831219
185 2 Si 6.76332 115.686 4.71149 2.4 -34.5478 7.86054e+06 9.29824e+06 9.97347e+06 260999 -145322 -115226
186 3 O 3.53937 115.769 4.56778 -1.2 -8.96409 -4.5694e+06 -2.26914e+06 -4.28283e+06 1.43205e+06 -1.36805e+06 282084
187 3 O 5.64928 112.016 4.46943 -1.2 -8.51353 -2.49742e+06 -5.42057e+06 -3.90467e+06 657738 494139 533931
188 3 O 6.07384 115.152 3.267 -1.2 -8.15892 -3.47077e+06 -2.95607e+06 -359567 -123315 1.17812e+06 -698774
189 1 Mg 4.83059 117.01 0.0707871 1.2 -7.58487 256098 4.15144e+06 -235987 1.24169e+06 1.23345e+06 -2.20554e+06
190 3 O 5.98797 115.013 5.88073 -1.2 -8.42229 -4.21993e+06 -3.85549e+06 -3.4568e+06 -51509.3 -1.31609e+06 564604
191 1 Mg 4.82117 119.641 1.60955 1.2 -8.12091 1.04535e+06 -310980 2.60819e+06 -1.05345e+06 292566 -316133
192 2 Si 2.74769 117.909 1.577 2.4 -33.1692 3.72653e+06 1.19445e+07 9.3153e+06 -1.0477e+06 -320200 -1.21575e+06
193 3 O 5.92832 117.937 1.54748 -1.2 -9.7131 -1.86923e+06 -4.87204e+06 -3.92001e+06 709388 -146166 697307
194 3 O 3.67165 121.519 1.64133 -1.2 -9.69095 -2.58093e+06 -4.81583e+06 -3.558e+06 1.81e+06 185457 -1.55712e+06
195 3 O 3.42153 118.59 0.290911 -1.2 -9.35985 -2.78878e+06 -3.81019e+06 -953771 -147852 -210409 807898
196 3 O 3.39636 118.504 2.90156 -1.2 -9.19252 -3.28682e+06 -4.04014e+06 -1.14177e+06 -490428 479092 -187063
197 1 Mg 2.3887 121.926 0.20907 1.2 -7.73642 -2.20307e+06 4.41157e+06 -1.09731e+06 -707426 -2.08847e+06 -982734
198 1 Mg 7.03865 125.025 1.45702 1.2 -8.82833 2.77239e+06 1.2787e+06 1.94091e+06 438527 -440344 853283
199 2 Si 4.42316 122.965 1.59036 2.4 -32.9961 7.47041e+06 1.11268e+07 8.12436e+06 -897172 -100976 -233418
200 3 O 6.00743 122.943 1.56548 -1.2 -9.47821 -1.05405e+06 -3.08416e+06 -4.20326e+06 418703 -62837.8 -505840
201 3 O 3.43765 126.774 1.54318 -1.2 -8.6143 -3.39112e+06 -3.47486e+06 -1.85551e+06 -1.60367e+06 505392 -1.12523e+06
202 3 O 3.77208 123.819 0.330667 -1.2 -8.81594 -2.74976e+06 -988640 -2.1161e+06 -704665 800102 -1.6627e+06
203 1 Mg 2.32208 132.6 3.10446 1.2 -7.96232 -596068 5.07393e+06 -1.11832e+06 -553726 1.04502e+06 1.21085e+06
204 3 O 3.75467 123.656 2.87464 -1.2 -8.77384 -3.17725e+06 -3.64364e+06 -2.87587e+06 -421893 -696723 -1054.98
205 1 Mg 2.46925 129.599 4.58479 1.2 -8.5062 1.47685e+06 1.63754e+06 -790168 662660 -728251 800686
206 2 Si 5.00198 131.496 4.48076 2.4 -33.5131 3.19328e+06 1.14964e+07 6.04006e+06 85091.5 614016 -28401.2
207 3 O 3.51077 131.468 4.4846 -1.2 -9.56683 -5.5346e+06 -3.96015e+06 -2.69061e+06 -918308 -1.0659e+06 -391659
208 3 O 6.07232 127.817 4.58569 -1.2 -8.90579 -2.8112e+06 -4.50409e+06 -2.50242e+06 -2.20031e+06 -114733 -56454
209 3 O 5.79112 130.767 3.36633 -1.2 -9.04929 -3.84023e+06 -5.44008e+06 -4.01367e+06 124838 -819369 -1.40025e+06
210 3 O 5.63925 131.024 5.87902 -1.2 -8.81581 -1.93974e+06 -4.86783e+06 -2.48532e+06 391662 463001 91248
211 1 Mg 4.81553 127.304 3.05878 1.2 -8.28998 -142732 4.36613e+06 -448303 1.01178e+06 -1.56828e+06 1.84012e+06
212 1 Mg 4.74984 124.468 4.42009 1.2 -8.5239 3.00079e+06 1.52748e+06 2.31976e+06 -868218 -579332 -992347
213 2 Si 6.85162 126.318 4.59917 2.4 -33.752 6.78441e+06 1.18377e+07 7.64275e+06 -1.37918e+06 393421 -216683
214 3 O 3.66381 126.286 4.55929 -1.2 -9.23687 -2.15895e+06 -3.98176e+06 -3.40036e+06 -722922 168355 741627
215 3 O 5.87831 122.435 4.52665 -1.2 -8.89364 -3.51051e+06 -4.10329e+06 -2.45494e+06 1.25131e+06 118261 208602
216 3 O 6.17891 125.654 3.26539 -1.2 -8.75615 -3.74235e+06 -2.89402e+06 -916382 776256 823120 58665
217 1 Mg 4.63519 127.374 -0.064016 1.2 -7.86959 -1.8159e+06 4.59817e+06 -1.78677e+06 610449 1.04649e+06 -1.73158e+06
218 3 O 6.24092 125.656 5.86467 -1.2 -8.9871 -4.26055e+06 -2.85878e+06 -2.1132e+06 138769 -699992 694018
219 1 Mg 4.92879 130.3 1.71362 1.2 -8.34581 1.79631e+06 3.056e+06 -183436 -466696 -697979 -841458
220 2 Si 2.73248 128.326 1.56308 2.4 -33.6252 8.06392e+06 1.33974e+07 5.19594e+06 -257973 1.17878e+06 -503463
221 3 O 5.90671 128.222 1.49632 -1.2 -9.10439 -1.35954e+06 -4.55963e+06 -2.5988e+06 60974.5 -111324 322743
222 3 O 3.88085 132.105 1.56579 -1.2 -8.68037 -3.70189e+06 -2.88164e+06 275518 1.00444e+06 530742 -1.42969e+06
223 3 O 3.40375 129.095 0.368165 -1.2 -9.28912 -4.34843e+06 -3.55367e+06 -784295 374381 -897049 447524
224 3 O 3.34413 128.834 2.94629 -1.2 -8.85133 -3.07358e+06 -4.98483e+06 -1.7355e+06 499137 1.24807e+06 -899012
225 1 Mg 2.50607 132.573 -0.0160004 1.2 -7.88911 100484 4.68956e+06 112839 -860581 -745530 -1.7539e+06
226 1 Mg 7.10553 135.594 1.49349 1.2 -8.70238 1.13697e+06 1.80431e+06 1.03291e+06 1.08879e+06 34768.4 110164
227 2 Si 4.47108 133.73 1.57544 2.4 -33.7717 8.84787e+06 1.31794e+07 4.73942e+06 -445429 538682 -725001
228 3 O 6.03709 133.484 1.61719 -1.2 -8.96529 -2.13614e+06 -4.80558e+06 -2.55299e+06 -2.05613e+06 311705 -794444
229 3 O 3.45304 137.45 1.61133 -1.2 -8.66593 -1.85983e+06 -3.82493e+06 -2.90755e+06 -462749 -24994.1 -646444
230 3 O 3.68177 134.45 0.340781 -1.2 -9.01074 -2.81001e+06 -2.85356e+06 -1.67883e+06 -510069 1.53821e+06 531966
231 1 Mg 2.23295 143.218 3.07744 1.2 -8.44015 -519327 4.57685e+06 -809045 -932790 2.261e+06 931288
232 3 O 3.78315 134.283 2.81216 -1.2 -8.76629 -4.95013e+06 -4.91387e+06 -4.47933e+06 355051 -1.33924e+06 -1.83351e+06
233 1 Mg 2.32174 140.073 4.47394 1.2 -8.97429 2.83679e+06 1.99713e+06 2.11489e+06 725332 312610 -982142
234 2 Si 5.00026 142.083 4.52721 2.4 -34.4556 9.13542e+06 1.1995e+07 5.31625e+06 321655 1.11058e+06 -1.07666e+06
235 3 O 3.46589 142.23 4.50263 -1.2 -8.68972 -3.34291e+06 -4.3294e+06 -2.35105e+06 307438 180601 312477
236 3 O 6.14161 138.225 4.49767 -1.2 -8.56952 -3.26544e+06 -2.62341e+06 -2.21681e+06 -857331 -762192 15865.6
237 3 O 5.64125 141.425 3.28811 -1.2 -8.50996 -5.43408e+06 -3.00669e+06 -3.51417e+06 -102196 -261693 -549713
238 3 O 5.66184 141.326 5.7778 -1.2 -8.55001 -3.34912e+06 -2.54641e+06 -1.80538e+06 -290293 647466 989248
239 1 Mg 4.67477 137.831 3.17439 1.2 -8.06978 415289 4.27311e+06 43051.3 859355 -1.6833e+06 1.42055e+06
240 1 Mg 4.77093 134.73 4.45097 1.2 -8.45557 1.76826e+06 106585 1.79821e+06 -632520 -634427 -57867.1
241 2 Si 6.77494 136.633 4.51797 2.4 -34.2425 5.39045e+06 1.13332e+07 8.68038e+06 -466575 1.11627e+06 521711
242 3 O 3.51745 136.796 4.58609 -1.2 -8.93188 -4.35316e+06 -3.71662e+06 -3.456e+06 1.17599e+06 818795 -29124.6
243 3 O 5.66518 133.003 4.41742 -1.2 -9.04982 -2.19553e+06 -7.1911e+06 -4.2526e+06 1.62514e+06 526982 451874
244 3 O 6.07746 135.965 3.22338 -1.2 -8.86253 -3.10936e+06 -3.10919e+06 -1.36792e+06 38824.9 461263 -735789
245 1 Mg 4.9841 138.047 0.127684 1.2 -8.06927 35787.2 3.68454e+06 -687665 466490 625562 -1.73863e+06
246 3 O 6.08214 136.024 5.79636 -1.2 -8.56609 -4.88274e+06 -3.88848e+06 -1.95333e+06 31963.5 -678013 634704
247 1 Mg 4.78816 140.87 1.51689 1.2 -8.50411 2.88928e+06 795805 1.65695e+06 -1.0183e+06 207383 161781
248 2 Si 2.7284 138.959 1.55613 2.4 -34.0619 4.13829e+06 1.10136e+07 7.50017e+06 -1.40834e+06 -1.93836e+06 -102475
249 3 O 5.98639 138.859 1.56624 -1.2 -9.19595 -5.86766e+06 -3.80782e+06 -3.76176e+06 -597765 -1.327e+06 -983015
250 3 O 3.61509 142.595 1.61062 -1.2 -8.85372 -2.48249e+06 -3.56207e+06 -3.69113e+06 632372 -239787 1.20494e+06
251 3 O 3.42624 139.55 0.185436 -1.2 -8.83329 -1.74967e+06 -3.75358e+06 -1.17485e+06 482522 -553162 79211.5
252 3 O 3.31212 139.646 2.78324 -1.2 -8.62965 -5.12228e+06 -5.02179e+06 -2.94853e+06 -1.06383e+06 -501584 -1.94505e+06
253 1 Mg 2.34194 143.069 0.0702605 1.2 -8.19318 -756539 4.11777e+06 387922 -1.54677e+06 -1.97376e+06 -2.3109e+06
254 1 Mg 6.97746 146.175 1.53753 1.2 -8.65761 2.92453e+06 569702 3.24995e+06 602029 484427 -707705
255 2 Si 4.28911 144.11 1.59988 2.4 -33.9808 6.10536e+06 1.04394e+07 8.97675e+06 237191 -164416 -1.19101e+06
256 3 O 5.7956 144.059 1.52624 -1.2 -9.15326 -4.13856e+06 -2.76869e+06 -2.99019e+06 -232132 171415 868480
257 3 O 3.29297 147.908 1.38089 -1.2 -8.9483 -3.95263e+06 -3.8896e+06 -4.09931e+06 -177776 721442 1.45941e+06
258 3 O 3.5765 144.786 0.306753 -1.2 -8.63997 -3.65001e+06 -2.63425e+06 -1.9407e+06 -614707 428072 732419
259 1 Mg 1.39914 153.19 1.9097 1.2 -8.0025 -554374 -2.05887e+06 2.26067e+06 -393585 621455 -513055
260 3 O 3.63389 144.806 2.90492 -1.2 -8.48998 -2.89861e+06 -2.60438e+06 -1.57594e+06 -288850 5920.04 657727
261 1 Mg 1.62864 151.287 5.21643 1.2 -8.41982 -742285 3.77941e+06 1.55957e+06 493701 579375 1.11553e+06
262 2 Si 3.73316 151.655 3.29005 2.4 -34.6482 1.08934e+07 7.30479e+06 8.27205e+06 -611351 153516 -981426
263 3 O 2.36307 152.408 3.59039 -1.2 -7.98511 -5.07175e+06 -715605 -3.67297e+06 -828303 1.23536e+06 -2.11394e+06
264 3 O 6.0781 148.872 4.4349 -1.2 -8.59374 -3.89248e+06 -6.5026e+06 -1.55971e+06 -827701 -99896.4 -352716
265 3 O 4.43563 152.47 2.06591 -1.2 -8.28507 -7.84593e+06 -267030 -3.46147e+06 600242 -78652.1 -1.0954e+06
266 3 O 4.62114 151.679 4.582 -1.2 -8.52077 -6.90729e+06 -3.7583e+06 -3.68544e+06 -1.10781e+06 1.74551e+06 1.36353e+06
267 1 Mg 4.78953 148.477 2.82419 1.2 -7.93958 -337166 3.73926e+06 520715 1.16769e+06 -1.06289e+06 1.44059e+06
268 1 Mg 4.67965 145.595 4.65262 1.2 -8.77274 2.63574e+06 1.58009e+06 1.11916e+06 -1.19886e+06 984978 961645
269 2 Si 6.71925 147.482 4.45502 2.4 -34.1521 8.32638e+06 1.01446e+07 7.39449e+06 487935 -1.09789e+06 366904
270 3 O 3.57013 147.539 4.45562 -1.2 -9.02389 -2.03452e+06 -3.69326e+06 -1.75372e+06 711693 -295162 -816628
271 3 O 5.80813 143.622 4.58684 -1.2 -8.49589 -4.28332e+06 -2.86173e+06 -2.04963e+06 2.10932e+06 399169 40873.8
272 3 O 6.06782 146.753 3.21774 -1.2 -8.76995 -3.92712e+06 -4.33904e+06 -2.27764e+06 422823 788950 -1.3143e+06