ITEM: TIMESTEP
15300
ITEM: NUMBER OF ATOMS
5600
ITEM: BOX BOUNDS xy xz yz pp pp pp
0.0000000000000000e+00 7.1234999999999999e+00 0.0000000000000000e+00
0.0000000000000000e+00 2.0198500000000001e+02 2.3744999999999998e+00
0.0000000000000000e+00 1.1958400000000000e+02 0.0000000000000000e+00
ITEM: ATOMS id type element xu yu zu q c_pe c_s[1] c_s[2] c_s[3] c_s[4] c_s[5] c_s[6]
1 1 Mg -1.43062 49.7558 -0.576817 1.2 -7.7678 -1.23721e+06 -644488 1.52115e+06 -17151 355216 -985679
2 1 Mg 3.22074 50.8363 2.74181 1.2 -8.09777 -4.28922e+06 3.11812e+06 -521731 164141 1.26644e+06 -775538
3 2 Si 1.04441 51.2861 0.709827 2.4 -34.0692 1.07401e+07 8.53805e+06 6.8759e+06 -565825 441221 480817
4 3 O 2.35493 50.4097 0.989795 -1.2 -8.66056 -4.38445e+06 -3.16976e+06 -3.23188e+06 -1.00438e+06 -793230 1.43894e+06
5 3 O -1.15269 53.9807 2.08132 -1.2 -7.91235 -4.14723e+06 -5.83706e+06 -2.77438e+06 -1.17912e+06 -444290 417289
6 3 O 0.256474 50.5733 -0.4952 -1.2 -8.65586 -6.21588e+06 -2.42683e+06 -3.41647e+06 598447 530057 943156
7 1 Mg -2.22457 59.6382 3.36079 1.2 -8.35801 -477407 4.89761e+06 -1.46947e+06 -1.31202e+06 1.98733e+06 1.15974e+06
8 3 O 0.163354 51.2081 2.03732 -1.2 -8.87642 -6.47633e+06 -3.32378e+06 -2.7115e+06 -166796 -1.35048e+06 -1.0237e+06
9 1 Mg -2.27997 56.8279 4.89233 1.2 -8.76416 2.62396e+06 808361 2.24683e+06 1.14015e+06 -93552.6 -147813
10 2 Si 0.517878 58.7559 4.90718 2.4 -33.7678 6.35394e+06 1.08321e+07 8.37352e+06 1.09928e+06 -710470 -690029
11 3 O -1.01991 58.8281 4.88814 -1.2 -9.10845 -2.82608e+06 -5.1412e+06 -4.80937e+06 201981 -24579.8 -17482.4
12 3 O 1.84944 54.2461 5.062 -1.2 -8.53875 -4.84948e+06 -3.1764e+06 -2.01529e+06 -1.01516e+06 700227 -84178.8
13 3 O 1.22185 58.0143 3.60251 -1.2 -8.58365 -4.94801e+06 -2.90494e+06 -1.56219e+06 -555024 -796466 433507
14 3 O 1.1597 57.9993 6.1214 -1.2 -8.82171 -5.06801e+06 -1.66277e+06 -3.7632e+06 163311 587422 231803
15 1 Mg 0.450512 53.6478 3.27949 1.2 -8.39423 1.94716e+06 3.33252e+06 -462893 263244 463952 494113
16 1 Mg 1.06644 50.2189 3.48765 1.2 -7.73574 -27878.8 2.49899e+06 -1.8307e+06 -827781 -362189 49553.8
17 2 Si 2.57843 52.8515 4.97087 2.4 -34.5453 8.36237e+06 9.08765e+06 7.57488e+06 -971927 -944509 -2.35576e+06
18 3 O -0.626565 53.1284 4.80529 -1.2 -8.61879 -4.41838e+06 -4.83165e+06 -3.4712e+06 677628 -727334 1.04838e+06
19 3 O 2.7022 49.2134 3.67261 -1.2 -6.82091 -755284 -1.51356e+06 -2.19778e+06 -715679 -395169 -155997
20 3 O 2.05673 52.0258 3.76702 -1.2 -8.80861 -5.63275e+06 -4.32379e+06 -5.42172e+06 -1.36802e+06 65544 71051.8
21 1 Mg 0.130629 54.4986 0.554032 1.2 -8.46738 147853 3.17254e+06 675840 1.28586e+06 1.27796e+06 -1.09565e+06
22 3 O 2.10848 51.8676 6.21002 -1.2 -9.75178 -4.34182e+06 -3.86889e+06 -4.77582e+06 1.63525e+06 101197 15095.2
23 1 Mg 0.159467 57.3852 2.0045 1.2 -9.00032 3.21606e+06 774739 2.53071e+06 -662485 -426916 -905361
24 2 Si -1.88103 55.4037 2.09888 2.4 -35.3927 7.77595e+06 1.04738e+07 8.18662e+06 146632 1.08905e+06 -923862
25 3 O 1.35842 55.1212 2.13423 -1.2 -8.68684 -6.27419e+06 -2.24077e+06 -1.9756e+06 1.06675e+06 557942 -266792
26 3 O -0.910637 59.1546 1.90434 -1.2 -8.55501 -2.93051e+06 -5.03921e+06 -2.65475e+06 806280 396613 107178
27 3 O -1.29366 56.0806 0.757127 -1.2 -8.25799 -3.54541e+06 -3.74683e+06 -3.39245e+06 221066 -634278 957839
28 3 O -1.23414 56.2859 3.27253 -1.2 -7.8791 -3.17819e+06 -3.24096e+06 -2.82329e+06 1.16163e+06 56492 79932.9
29 1 Mg -2.362 59.5889 0.407996 1.2 -8.42225 660815 4.67847e+06 -335836 -638104 -1.24325e+06 -1.23375e+06
30 1 Mg 2.4441 62.5598 1.7167 1.2 -9.17008 2.9484e+06 1.10342e+06 2.14688e+06 978399 -530747 582429
31 2 Si -0.235679 60.6775 1.8825 2.4 -34.7075 7.07071e+06 1.09886e+07 7.25371e+06 593317 917617 -320929
32 3 O 1.28035 60.6008 1.9421 -1.2 -8.79283 -4.63985e+06 -3.77498e+06 -3.68992e+06 -444415 43129.6 -156276
33 3 O -1.28635 64.4035 1.71446 -1.2 -8.42965 -3.50506e+06 -4.44599e+06 -3.62629e+06 -1.34035e+06 588452 37425.9
34 3 O -0.951283 61.3089 0.559971 -1.2 -8.22208 -3.91046e+06 -3.41291e+06 -2.56242e+06 -24181.6 1.26028e+06 243273
35 1 Mg -2.26126 70.0118 3.22154 1.2 -8.61247 249991 3.79448e+06 392044 -941331 1.76293e+06 2.01657e+06
36 3 O -0.914573 61.367 3.08933 -1.2 -8.43147 -5.07288e+06 -3.77873e+06 -2.61472e+06 428330 208482 -1.14528e+06
37 1 Mg -2.20494 67.1807 4.77635 1.2 -8.7605 2.09963e+06 1.14292e+06 2.69629e+06 474341 256127 290654
38 2 Si 0.413376 68.9859 4.7559 2.4 -34.5792 8.87559e+06 1.01629e+07 7.64739e+06 671379 -720643 1.64187e+06
39 3 O -1.19121 69.0412 4.74707 -1.2 -8.79921 -2.18176e+06 -3.43731e+06 -3.69051e+06 -333966 -129173 -644289
40 3 O 1.50556 65.4237 4.74784 -1.2 -8.72805 -3.20854e+06 -3.32163e+06 -2.6997e+06 -1.16482e+06 104573 -764178
41 3 O 1.05997 68.3943 3.42384 -1.2 -8.44661 -4.14308e+06 -4.54919e+06 -2.21237e+06 -187576 -1.26721e+06 -1.39766e+06
42 3 O 1.06726 68.4167 6.03825 -1.2 -8.71363 -4.59802e+06 -5.49868e+06 -3.20831e+06 -191254 854639 1.35199e+06
43 1 Mg 0.0906584 64.875 3.20674 1.2 -8.41674 544403 4.34355e+06 -281726 877191 -1.22736e+06 2.07712e+06
44 1 Mg 0.129646 61.981 4.85418 1.2 -8.63403 2.92089e+06 587916 2.95354e+06 -777724 174049 330378
45 2 Si 2.16941 63.902 4.77284 2.4 -34.2055 7.46066e+06 1.11018e+07 8.71875e+06 -429512 -223528 282483
46 3 O -1.01581 63.9941 4.76961 -1.2 -9.04886 -2.24149e+06 -3.63728e+06 -2.59747e+06 241386 -73545.7 -293384
47 3 O 1.20269 60.2447 4.81767 -1.2 -9.0693 -2.85353e+06 -3.90742e+06 -3.27762e+06 773576 221395 -177362
48 3 O 1.52868 63.2561 3.48616 -1.2 -8.47524 -3.96477e+06 -4.02261e+06 -1.47111e+06 112192 510361 -1.10553e+06
49 1 Mg -0.0416225 64.8107 0.213566 1.2 -8.28664 -177317 4.36831e+06 -1.69547e+06 644826 1.60823e+06 -1.45168e+06
50 3 O 1.54136 63.1953 6.10426 -1.2 -8.79424 -3.14235e+06 -2.12407e+06 -998997 134205 -660208 -451899
51 1 Mg 0.141231 67.679 1.79251 1.2 -8.93517 1.996e+06 1.30709e+06 1.6551e+06 -953395 -102327 417823
52 2 Si -1.967 65.9339 1.78757 2.4 -34.2743 6.71005e+06 1.15833e+07 6.92347e+06 -447417 -317352 929073
53 3 O 1.24905 65.8668 1.8086 -1.2 -8.95899 -3.68934e+06 -4.46716e+06 -3.50192e+06 758078 69144.7 -270828
54 3 O -0.923644 69.5514 1.78806 -1.2 -8.51736 -4.52653e+06 -4.22973e+06 -2.53737e+06 1.15623e+06 371517 27233.6
55 3 O -1.29088 66.5434 0.483024 -1.2 -8.73136 -4.03258e+06 -4.4405e+06 -2.23415e+06 -211858 -709153 739982
56 3 O -1.26558 66.5409 3.0547 -1.2 -8.68377 -4.54548e+06 -4.51887e+06 -2.33957e+06 -259274 653646 -1.11537e+06
57 1 Mg -2.21772 70.0441 0.0999118 1.2 -8.25551 272432 3.1001e+06 632480 -563227 -745189 -1.64488e+06
58 1 Mg 2.36261 72.9214 1.6699 1.2 -8.83494 2.53729e+06 629894 2.24328e+06 855701 333641 -72942
59 2 Si -0.253387 71.0301 1.81584 2.4 -34.5526 8.06602e+06 1.03085e+07 7.87352e+06 -485808 -287914 877642
60 3 O 1.27747 70.9568 1.72669 -1.2 -8.74947 -3.54767e+06 -3.75578e+06 -3.2424e+06 -768596 -194115 -319992
61 3 O -1.29682 74.6904 1.69317 -1.2 -8.95241 -3.05556e+06 -5.61447e+06 -3.9072e+06 -1.05432e+06 -5681.6 -291069
62 3 O -0.990962 71.7208 0.558408 -1.2 -8.74911 -4.3442e+06 -3.3137e+06 -2.54225e+06 -311975 1.2007e+06 829500
63 1 Mg -2.3352 80.4307 3.12137 1.2 -7.97489 -559263 3.57009e+06 -178949 -863604 1.79664e+06 2.74813e+06
64 3 O -0.922831 71.6929 3.13266 -1.2 -8.34144 -4.50775e+06 -3.61796e+06 -3.442e+06 -603540 -1.58779e+06 -1.05608e+06
65 1 Mg -2.3897 77.4574 4.58224 1.2 -8.40216 1.7854e+06 862378 3.1779e+06 1.27716e+06 155081 556019
66 2 Si 0.373106 79.3387 4.55606 2.4 -33.4337 6.25439e+06 1.0575e+07 7.95132e+06 -574529 -991617 1.54169e+06
67 3 O -1.22486 79.5271 4.62076 -1.2 -9.26276 -1.21238e+06 -4.52175e+06 -3.80282e+06 -955740 -82810.9 -1.09098e+06
68 3 O 1.37643 75.5781 4.60838 -1.2 -8.97079 -2.53568e+06 -5.93727e+06 -3.76057e+06 -1.10684e+06 421950 -469848
69 3 O 1.00079 78.6981 3.26252 -1.2 -8.92502 -3.05947e+06 -4.19139e+06 -3.12198e+06 357515 -382655 -1.56337e+06
70 3 O 1.0071 78.5967 5.79517 -1.2 -9.14217 -3.45704e+06 -3.09974e+06 -2.18752e+06 506160 407804 -395204
71 1 Mg 0.0243136 75.0647 3.10304 1.2 -8.19818 -266457 4.56657e+06 -1.1955e+06 797079 -1.73252e+06 1.03128e+06
72 1 Mg -0.0423355 72.2804 4.71415 1.2 -9.19689 2.6914e+06 580962 1.06225e+06 -1.05824e+06 -621100 -214188
73 2 Si 2.09181 74.1396 4.64503 2.4 -34.2581 6.11548e+06 1.05829e+07 8.46847e+06 -6822.56 4817.56 442274
74 3 O -1.15538 74.1988 4.61781 -1.2 -9.13611 -5.05225e+06 -3.97922e+06 -3.76195e+06 625940 -222462 -342672
75 3 O 1.08221 70.4873 4.76646 -1.2 -8.16718 -3.56312e+06 -4.91282e+06 -3.50792e+06 1.30757e+06 -158091 -173847
76 3 O 1.37464 73.4839 3.30476 -1.2 -8.36126 -4.00195e+06 -4.44073e+06 -1.73548e+06 292560 1.2603e+06 -835033
77 1 Mg 0.026984 75.2258 0.18061 1.2 -8.20603 -993371 3.89747e+06 -174599 1.07366e+06 1.51068e+06 -1.50145e+06
78 3 O 1.36056 73.4403 5.8988 -1.2 -8.45601 -3.86267e+06 -3.57546e+06 -1.80577e+06 231099 -761877 -120280
79 1 Mg 0.00274341 78.0756 1.64411 1.2 -8.67236 2.85331e+06 506221 1.88126e+06 -888859 -403613 75067.6
80 2 Si -2.02656 76.1387 1.57362 2.4 -34.019 6.06246e+06 1.02468e+07 7.85392e+06 -824291 248878 600395
81 3 O 1.19213 76.132 1.65705 -1.2 -9.07628 -3.60653e+06 -3.91568e+06 -4.04252e+06 -492067 -828521 -312508
82 3 O -1.00074 79.8523 1.5506 -1.2 -8.91905 -3.47709e+06 -5.95243e+06 -3.52029e+06 541667 -465999 -257216
83 3 O -1.3319 76.7521 0.309271 -1.2 -8.86481 -4.62172e+06 -3.98405e+06 -4.30881e+06 642049 -573424 534453
84 3 O -1.41739 76.8994 2.86636 -1.2 -8.58853 -4.42718e+06 -3.24691e+06 -1.2495e+06 196518 227766 -709664
85 1 Mg -2.36778 80.3505 0.122909 1.2 -8.03183 -669625 3.75077e+06 -143597 -762535 -1.59885e+06 -1.1569e+06
86 1 Mg 2.2527 83.2751 1.47867 1.2 -8.40828 3.00186e+06 986419 1.42719e+06 681260 -156491 1.01956e+06
87 2 Si -0.348938 81.3209 1.61006 2.4 -33.9927 5.30842e+06 9.76491e+06 6.77413e+06 3438.3 516293 965936
88 3 O 1.20491 81.2504 1.62008 -1.2 -9.22064 -3.38873e+06 -3.6184e+06 -3.60441e+06 -20374.9 -62272.7 -492342
89 3 O -1.36807 85.1305 1.51406 -1.2 -8.96229 -4.00536e+06 -5.99068e+06 -3.79427e+06 67372.9 530599 167209
90 3 O -0.99608 81.9984 0.329554 -1.2 -8.80328 -3.21765e+06 -3.87017e+06 -4.10984e+06 -670860 658964 323014
91 1 Mg -2.36039 90.8462 2.99104 1.2 -8.14415 21923.5 3.23042e+06 686869 -811334 1.26298e+06 2.18923e+06
92 3 O -1.00624 81.9827 2.82273 -1.2 -8.81775 -3.52981e+06 -4.0208e+06 -5.13349e+06 21823.3 173205 -1.69073e+06
93 1 Mg -2.29527 87.8833 4.47439 1.2 -8.30211 1.76445e+06 391664 4.86009e+06 299953 12870.4 379984
94 2 Si 0.255618 89.7527 4.51465 2.4 -33.5858 5.42561e+06 8.99397e+06 9.31927e+06 779012 90840.9 137403
95 3 O -1.25679 89.7937 4.54397 -1.2 -9.57128 -4.6915e+06 -2.31073e+06 -4.29661e+06 -682410 495017 -479119
96 3 O 1.32961 86.104 4.44573 -1.2 -9.07815 -2.08522e+06 -3.9472e+06 -5.10626e+06 -1.02845e+06 -39191.1 -448803
97 3 O 0.960424 89.2405 3.23169 -1.2 -8.71732 -3.31855e+06 -4.04656e+06 -5.11078e+06 155357 -642636 -2.47277e+06
98 3 O 1.02806 89.1195 5.77296 -1.2 -8.95051 -3.04932e+06 -2.69134e+06 -4.15718e+06 -640473 1.29292e+06 128678
99 1 Mg 0.00780416 85.6387 2.96685 1.2 -8.16083 -729143 3.43941e+06 520730 978833 -1.73513e+06 1.20153e+06
100 1 Mg 0.0437815 82.6728 4.5279 1.2 -8.57985 2.35913e+06 881148 3.36027e+06 -665674 -89941.9 610341
101 2 Si 2.04304 84.6341 4.42717 2.4 -33.8203 6.53795e+06 7.40523e+06 9.95474e+06 -826789 779057 1.53415e+06
102 3 O -1.19285 84.6703 4.44469 -1.2 -9.109 -3.85159e+06 -1.84687e+06 -4.59345e+06 158203 627930 -526209
103 3 O 0.969225 80.8528 4.54119 -1.2 -9.07561 -4.32085e+06 -3.35826e+06 -3.25937e+06 640932 227771 -1.49995e+06
104 3 O 1.30818 84.0124 3.10648 -1.2 -8.7871 -3.56883e+06 -2.79203e+06 -2.74574e+06 295112 1.00612e+06 -1.03337e+06
105 1 Mg -0.0729712 85.467 -0.0178279 1.2 -8.21993 -1.93979e+06 3.60527e+06 -238555 1.05579e+06 2.11971e+06 -1.40808e+06
106 3 O 1.38618 83.961 5.69487 -1.2 -8.80682 -4.81757e+06 -3.18358e+06 -3.92451e+06 446090 -797036 210270
107 1 Mg -0.0140322 88.5472 1.60268 1.2 -8.88751 2.75717e+06 -575405 1.54247e+06 -630741 124140 1.1638e+06
108 2 Si -2.06394 86.5299 1.38829 2.4 -34.448 6.46025e+06 8.36457e+06 7.96956e+06 291642 136560 -219696
109 3 O 1.17087 86.503 1.42915 -1.2 -8.83884 -4.8704e+06 -3.67579e+06 -4.09789e+06 -62861.6 -185575 669062
110 3 O -1.05431 90.2531 1.47668 -1.2 -8.80674 -4.50217e+06 -6.53196e+06 -3.72098e+06 1.26049e+06 77984 -1.05835e+06
111 3 O -1.45178 87.1696 0.0627748 -1.2 -8.26668 -4.9805e+06 -2.4795e+06 -4.38686e+06 -196901 -517669 -328531
112 3 O -1.38029 87.347 2.59329 -1.2 -8.74357 -3.19677e+06 -3.11774e+06 -2.83325e+06 287420 420715 -940081
113 1 Mg -2.45563 90.6366 -0.0598487 1.2 -8.12723 -775660 3.60787e+06 460998 -639671 -1.3937e+06 -1.4831e+06
114 1 Mg 2.27236 93.5533 1.4065 1.2 -8.20966 1.75251e+06 1.25016e+06 2.62932e+06 960376 -205374 572969
115 2 Si -0.365988 91.6763 1.38379 2.4 -33.492 6.04464e+06 9.57712e+06 9.12465e+06 -477783 1.20363e+06 453395
116 3 O 1.17316 91.6384 1.43384 -1.2 -9.37462 -2.89932e+06 -4.16683e+06 -3.59198e+06 -375372 823874 -161501
117 3 O -1.27477 95.3761 1.31921 -1.2 -9.30992 -2.00102e+06 -4.88664e+06 -3.15657e+06 -709321 785103 -811554
118 3 O -1.1044 92.2861 0.0322374 -1.2 -8.92551 -2.45659e+06 -3.5932e+06 -1.2936e+06 -239227 962722 122195
119 1 Mg -2.41344 100.907 2.87496 1.2 -7.91971 -439485 3.59164e+06 -212974 -891846 1.4938e+06 1.74917e+06
120 3 O -1.03355 92.3906 2.66414 -1.2 -9.07194 -3.38038e+06 -3.95178e+06 -1.7163e+06 -80421.1 -853229 -1.40195e+06
121 1 Mg -2.22373 98.1102 4.34738 1.2 -8.48627 2.62774e+06 425627 3.09952e+06 448128 193421 119960
122 2 Si 0.337326 99.9756 4.4128 2.4 -33.7933 5.35829e+06 9.93598e+06 8.47692e+06 -488273 91810.5 -228764
123 3 O -1.20025 100.097 4.43972 -1.2 -9.33979 -3.38218e+06 -3.60828e+06 -4.00805e+06 -405822 144974 507006
124 3 O 1.39221 96.3657 4.37763 -1.2 -8.86062 -2.85474e+06 -4.84694e+06 -3.54023e+06 -915262 -183818 258394
125 3 O 1.00781 99.3032 3.13575 -1.2 -8.85981 -2.7487e+06 -4.57556e+06 -3.36192e+06 -275971 -960696 -1.11602e+06
126 3 O 1.00584 99.3536 5.7008 -1.2 -8.79366 -3.18915e+06 -3.15214e+06 -2.93983e+06 223710 619754 670134
127 1 Mg 0.019619 95.8137 2.95989 1.2 -7.95726 -645609 3.79218e+06 577315 1.28814e+06 -1.63889e+06 1.38149e+06
128 1 Mg 0.0087123 93.0434 4.3868 1.2 -8.38449 1.36544e+06 -156293 3.70515e+06 -527595 -201816 528459
129 2 Si 2.05525 94.8971 4.42578 2.4 -33.2559 6.6821e+06 9.84028e+06 8.44762e+06 -342403 -645703 -530735
130 3 O -1.11349 94.9521 4.50554 -1.2 -9.49525 -2.12439e+06 -3.65472e+06 -3.39797e+06 371639 -392073 114576
131 3 O 0.941149 91.3248 4.46362 -1.2 -8.63519 -1.80962e+06 -3.94234e+06 -4.24872e+06 2.18121e+06 4446.33 -1.91069e+06
132 3 O 1.40039 94.226 3.17002 -1.2 -9.35599 -2.38175e+06 -4.64591e+06 -2.62423e+06 328791 641113 -1.458e+06
133 1 Mg 0.025452 95.8197 -0.101202 1.2 -7.9545 -1.65007e+06 4.29572e+06 -461902 1.23863e+06 2.22698e+06 -881072
134 3 O 1.29587 94.2839 5.74722 -1.2 -8.94244 -3.11429e+06 -3.25391e+06 -2.23012e+06 400157 -1.46838e+06 327036
135 1 Mg 0.0828095 98.7086 1.42119 1.2 -8.82947 1.71368e+06 48647.3 2.28714e+06 -1.15419e+06 55843.2 -116385
136 2 Si -1.94949 96.8433 1.30362 2.4 -33.7275 7.31143e+06 8.75138e+06 8.1135e+06 -561757 691565 269972
137 3 O 1.24643 96.8675 1.37495 -1.2 -9.01718 -2.43632e+06 -3.0226e+06 -4.59555e+06 205537 -320013 -44527.7
138 3 O -0.951439 100.458 1.42418 -1.2 -8.87307 -2.92908e+06 -4.25057e+06 -3.82037e+06 1.56556e+06 -261157 28320.3
139 3 O -1.29051 97.5702 0.0996394 -1.2 -8.87729 -5.14852e+06 -3.55405e+06 -4.09183e+06 -179393 -477300 779241
140 3 O -1.2678 97.4588 2.65595 -1.2 -8.75415 -4.50983e+06 -2.74415e+06 -2.29161e+06 -3450.91 755339 -388639
141 1 Mg -2.30694 100.983 0.011598 1.2 -7.92073 -772594 3.94031e+06 -962631 -1.01991e+06 -1.36907e+06 -1.98218e+06
142 1 Mg 7.19259 103.88 1.33764 1.2 -8.0976 1.17458e+06 1.48415e+06 2.22416e+06 1.20947e+06 155884 -309983
143 2 Si -0.309408 102.024 1.48178 2.4 -33.1483 5.69885e+06 1.00848e+07 8.03847e+06 833713 -475281 -503511
144 3 O 1.24991 101.895 1.41806 -1.2 -9.46471 -1.94674e+06 -3.66837e+06 -4.69687e+06 -909450 -238756 83594.6
145 3 O 3.438 105.747 1.28775 -1.2 -9.32932 -3.28391e+06 -5.34163e+06 -2.59591e+06 -1.10672e+06 478297 252822
146 3 O -1.01473 102.651 0.220088 -1.2 -9.30845 -3.96748e+06 -3.76567e+06 -2.14845e+06 395935 771560 805067
147 1 Mg 2.57521 111.362 2.80482 1.2 -7.77133 -1.40176e+06 3.8572e+06 -725130 -674448 1.37478e+06 1.57476e+06
148 3 O -0.988303 102.556 2.77539 -1.2 -9.26113 -3.35677e+06 -4.2328e+06 -3.81347e+06 389089 -774598 -995929
149 1 Mg 2.56927 108.537 4.29556 1.2 -8.22132 1.68131e+06 288777 3.38436e+06 1.1945e+06 148216 190862
150 2 Si 5.25513 110.399 4.32179 2.4 -32.9584 5.56292e+06 9.65721e+06 8.99131e+06 625976 -220512 -497273
151 3 O 3.68807 110.483 4.2951 -1.2 -9.6833 -1.62298e+06 -2.94278e+06 -4.47662e+06 36126.8 -138912 751931
152 3 O 6.20857 106.691 4.32472 -1.2 -9.55514 -893755 -4.46274e+06 -3.554e+06 -871877 213489 -249208
153 3 O 5.91624 109.645 3.06564 -1.2 -9.23219 -2.9496e+06 -2.70256e+06 -3.26769e+06 33559.7 -764627 -189089
154 3 O 5.87127 109.738 5.59889 -1.2 -9.08855 -3.51412e+06 -2.54815e+06 -4.06986e+06 -402681 629059 592583
155 1 Mg 4.75302 106.261 2.90558 1.2 -7.51347 -1.03282e+06 4.0985e+06 68725.7 757375 -1.23249e+06 1.59725e+06
156 1 Mg -0.0866533 103.264 4.38807 1.2 -8.19941 1.79557e+06 1.33158e+06 1.01969e+06 -465906 -263196 109491
157 2 Si 6.85848 105.191 4.26666 2.4 -32.6887 4.33649e+06 1.12384e+07 7.74138e+06 112481 614926 606480
158 3 O 3.66991 105.18 4.2997 -1.2 -9.94568 -2.05662e+06 -3.36032e+06 -3.53713e+06 410888 142321 -319824
159 3 O 1.0123 101.456 4.36508 -1.2 -9.03303 -3.65332e+06 -5.22867e+06 -3.10108e+06 812698 -331357 360690
160 3 O 6.19361 104.567 2.9579 -1.2 -9.17461 -1.83798e+06 -3.50133e+06 -2.99402e+06 176239 802590 240553
161 1 Mg 4.8395 106.162 -0.132827 1.2 -7.84969 -1.24242e+06 4.13049e+06 -755972 556732 1.71797e+06 -1.66623e+06
162 3 O 6.14306 104.474 5.49725 -1.2 -9.45484 -2.74364e+06 -3.54478e+06 -2.78933e+06 508894 -861552 341161
163 1 Mg 4.91706 108.983 1.44318 1.2 -8.41639 1.71826e+06 602113 2.81599e+06 -868947 -118697 -78965.6
164 2 Si 2.74363 107.196 1.2975 2.4 -33.3029 4.75651e+06 1.05667e+07 7.82055e+06 737931 -469228 -68691.5
165 3 O 5.98172 107.101 1.35228 -1.2 -9.56794 -3.93954e+06 -4.39267e+06 -3.97986e+06 673541 -654512 118162
166 3 O 3.91043 110.921 1.37815 -1.2 -9.17179 -2.00126e+06 -4.9284e+06 -3.91255e+06 969271 333560 -65200.5
167 3 O 3.51436 107.934 0.0927343 -1.2 -8.82436 -3.0042e+06 -3.76368e+06 -3.58446e+06 334590 -1.13275e+06 543746
168 3 O 3.46172 107.89 2.57362 -1.2 -9.18453 -2.96919e+06 -3.26235e+06 -3.89204e+06 446368 1.30523e+06 -779160
169 1 Mg 2.42887 111.429 -0.11679 1.2 -7.81295 -1.08721e+06 4.30594e+06 -175487 -741783 -1.70703e+06 -1.23788e+06
170 1 Mg 7.18999 114.334 1.46714 1.2 -8.3005 2.05089e+06 1.4398e+06 2.31496e+06 616497 -362181 203794
171 2 Si 4.59574 112.382 1.33836 2.4 -33.18 5.01066e+06 1.02024e+07 9.64886e+06 -70368.5 631906 169380
172 3 O 6.11966 112.337 1.46468 -1.2 -9.66409 -3.30813e+06 -3.10154e+06 -4.54057e+06 -460019 129241 240675
173 3 O 3.42616 116.242 1.43568 -1.2 -9.36417 -2.59844e+06 -3.04951e+06 -3.50527e+06 -11664.7 -581975 102998
174 3 O 3.87942 112.98 0.0171653 -1.2 -8.82269 -2.37038e+06 -4.41555e+06 -2.32681e+06 56996.5 1.39967e+06 490116
175 1 Mg 2.45932 122.044 3.0378 1.2 -7.87339 -1.49247e+06 3.9951e+06 -909249 -287159 1.29836e+06 2.0829e+06
176 3 O 3.86194 113.113 2.62823 -1.2 -9.15131 -2.67928e+06 -2.57997e+06 -1.49744e+06 -741082 -1.10725e+06 -355067
177 1 Mg 2.4283 119.076 4.40062 1.2 -8.31077 1.40969e+06 575642 2.43137e+06 714481 231680 -769329
178 2 Si 5.08625 120.861 4.36728 2.4 -32.9856 5.32712e+06 1.13553e+07 7.03623e+06 650576 -87105.2 -207629
179 3 O 3.51686 120.988 4.41231 -1.2 -9.83372 -2.5889e+06 -4.68611e+06 -4.03015e+06 101890 181763 -541729
180 3 O 6.27413 117.236 4.34196 -1.2 -9.12239 -2.03639e+06 -5.06994e+06 -2.73415e+06 -1.34787e+06 59847.8 -476669
181 3 O 5.7673 120.207 3.1236 -1.2 -8.91263 -3.2997e+06 -4.46805e+06 -4.18747e+06 -342419 -836461 -206536
182 3 O 5.80377 120.161 5.594 -1.2 -9.40875 -2.14612e+06 -4.28999e+06 -3.78255e+06 -667170 949409 818549
183 1 Mg 4.87079 116.756 2.78146 1.2 -7.55192 -1.15786e+06 4.10212e+06 -300875 944922 -1.39907e+06 2.33558e+06
184 1 Mg 4.85181 113.806 4.27193 1.2 -8.10002 1.47773e+06 1.28438e+06 2.85491e+06 -1.07305e+06 -29706.3 124504
185 2 Si 6.91891 115.725 4.37402 2.4 -32.9895 5.18054e+06 1.00455e+07 8.09971e+06 -351284 293009 -65155.4
186 3 O 3.71347 115.756 4.33281 -1.2 -9.69363 -2.91806e+06 -3.21455e+06 -3.79723e+06 794050 244287 -434594
187 3 O 5.96315 111.902 4.2735 -1.2 -9.41049 -1.78687e+06 -2.62887e+06 -3.9104e+06 1.2132e+06 -95558.4 668662
188 3 O 6.14012 115.097 3.1306 -1.2 -9.20699 -2.85266e+06 -3.55852e+06 -3.36955e+06 -80523.9 1.08039e+06 -1.23876e+06
189 1 Mg 4.80775 116.862 -0.112446 1.2 -7.48199 -536071 3.87793e+06 -318035 1.29137e+06 1.79681e+06 -1.68434e+06
190 3 O 6.23489 115.092 5.65988 -1.2 -9.30612 -2.63949e+06 -3.18382e+06 -3.51719e+06 237709 -787591 622471
191 1 Mg 4.87198 119.528 1.43416 1.2 -8.11847 1.50037e+06 348168 1.97305e+06 -1.21931e+06 195405 235546
192 2 Si 2.81812 117.756 1.44431 2.4 -32.5715 2.01475e+06 1.2127e+07 8.75033e+06 -127767 190910 1.16075e+06
193 3 O 6.02748 117.671 1.39459 -1.2 -9.88686 -1.79582e+06 -5.21525e+06 -4.15882e+06 570246 634330 230360
194 3 O 3.81627 121.392 1.40494 -1.2 -9.16457 -3.53423e+06 -4.99101e+06 -2.58613e+06 639325 -407735 896166
195 3 O 3.43818 118.353 0.103779 -1.2 -9.46777 -2.93162e+06 -5.18902e+06 -2.10858e+06 -3103.26 9762.25 669841
196 3 O 3.47401 118.489 2.71559 -1.2 -9.42312 -2.862e+06 -3.58114e+06 -1.32752e+06 -546343 369954 401093
197 1 Mg 2.49781 121.787 -0.0794316 1.2 -7.7453 -605902 4.24173e+06 413799 -936413 -1.70471e+06 -1.2717e+06
198 1 Mg 7.11601 124.696 1.52634 1.2 -8.57156 1.98377e+06 337306 1.91791e+06 911612 130109 442333
199 2 Si 4.49545 122.834 1.38818 2.4 -33.3678 5.99417e+06 1.11145e+07 7.71674e+06 -720330 -268777 999554
200 3 O 6.04385 122.738 1.47242 -1.2 -9.44669 -2.31806e+06 -4.41945e+06 -2.92679e+06 -485760 5934.04 366843
201 3 O 3.47602 126.459 1.53031 -1.2 -8.99326 -2.55073e+06 -6.73349e+06 -3.72194e+06 -497940 10223.3 140298
202 3 O 3.83124 123.491 0.127245 -1.2 -9.03779 -2.98112e+06 -4.30991e+06 -3.00245e+06 192506 811776 520212
203 1 Mg 2.46511 132.153 3.00325 1.2 -7.80557 -559567 3.81952e+06 282777 -939972 1.40425e+06 1.61114e+06
204 3 O 3.79114 123.606 2.71145 -1.2 -8.87921 -2.975e+06 -3.4485e+06 -766024 -204586 -1.02731e+06 92538.7
205 1 Mg 2.58314 129.254 4.55099 1.2 -8.51943 2.53578e+06 613082 2.03059e+06 568837 -230575 555689
206 2 Si 5.17611 131.192 4.54044 2.4 -33.4654 6.79865e+06 1.09065e+07 7.84075e+06 33840.3 -260207 228903
207 3 O 3.58589 131.205 4.58576 -1.2 -9.4419 -1.7254e+06 -3.56534e+06 -2.88827e+06 320646 86124 -354101
208 3 O 6.2241 127.478 4.49066 -1.2 -9.03646 -3.32906e+06 -4.77308e+06 -3.9538e+06 -1.21172e+06 333674 -196751
209 3 O 5.81264 130.575 3.21082 -1.2 -8.92465 -2.77679e+06 -3.83524e+06 -2.72641e+06 -298700 -1.01285e+06 -549551
210 3 O 5.83134 130.419 5.7842 -1.2 -8.92205 -3.05235e+06 -3.31394e+06 -2.20995e+06 -822396 761408 481992
211 1 Mg 4.89361 126.918 3.03895 1.2 -8.0616 -803289 4.03294e+06 -478491 1.05951e+06 -1.46399e+06 1.96198e+06
212 1 Mg 4.87 124.171 4.47295 1.2 -8.37773 1.77576e+06 445776 3.04794e+06 -857694 162452 444636
213 2 Si 6.93054 126.024 4.57398 2.4 -33.2843 6.33212e+06 1.01298e+07 9.78803e+06 -164082 -142635 816149
214 3 O 3.72809 126.093 4.50817 -1.2 -9.45291 -2.41883e+06 -4.3042e+06 -4.59128e+06 246072 -613638 -313367
215 3 O 5.80938 122.354 4.3776 -1.2 -9.19687 -2.58507e+06 -5.03476e+06 -3.66546e+06 1.85062e+06 488525 -480978
216 3 O 6.23946 125.329 3.21771 -1.2 -8.8864 -3.93273e+06 -3.65974e+06 -1.26231e+06 677483 1.68243e+06 -681126
217 1 Mg 4.85041 127.112 0.003003 1.2 -7.96306 -767627 3.68824e+06 -336617 1.25813e+06 1.4448e+06 -1.33994e+06
218 3 O 6.16182 125.357 5.81051 -1.2 -9.07409 -2.99572e+06 -3.62924e+06 -3.40237e+06 402577 -1.6012e+06 248806
219 1 Mg 4.92321 129.849 1.55237 1.2 -8.48979 2.41131e+06 824635 2.55279e+06 -782139 -229779 -155878
220 2 Si 2.84206 127.888 1.55614 2.4 -33.7528 6.68528e+06 9.45616e+06 8.3319e+06 -238336 373090 284665
221 3 O 5.99603 127.949 1.54212 -1.2 -9.22766 -1.61996e+06 -3.18626e+06 -4.26251e+06 -57122.5 218409 -37331.8
222 3 O 3.81948 131.647 1.51197 -1.2 -9.19426 -2.91043e+06 -4.22221e+06 -2.49025e+06 1.17075e+06 -538137 520141
223 3 O 3.48909 128.561 0.246821 -1.2 -8.89254 -4.58931e+06 -4.43047e+06 -2.40137e+06 473735 -1.01465e+06 402001
224 3 O 3.49028 128.571 2.83762 -1.2 -8.85717 -3.74884e+06 -3.31448e+06 -2.53328e+06 -5458.33 526028 -654036
225 1 Mg 2.46597 132.091 0.0050569 1.2 -7.74445 -1.05108e+06 4.13402e+06 142407 -998711 -1.19283e+06 -1.63508e+06
226 1 Mg 7.1209 134.948 1.59289 1.2 -8.20437 1.29714e+06 613654 2.46226e+06 1.0297e+06 -15679.3 -260798
227 2 Si 4.4976 133.146 1.45418 2.4 -32.9219 5.60462e+06 1.12678e+07 7.01669e+06 -147513 21817.1 -238910
228 3 O 6.05679 133.02 1.47575 -1.2 -9.67341 -1.93809e+06 -4.48948e+06 -3.15246e+06 -685350 697125 707951
229 3 O 3.44889 136.779 1.58751 -1.2 -9.40769 -1.25896e+06 -5.90356e+06 -3.54613e+06 -1.16448e+06 -804328 -439432
230 3 O 3.75825 133.754 0.208474 -1.2 -9.38447 -2.95223e+06 -4.62725e+06 -3.12262e+06 -92572.2 798207 1.49776e+06
231 1 Mg 2.48978 142.628 3.18872 1.2 -7.63525 -1.70978e+06 3.86289e+06 -333046 -900752 910089 846361
232 3 O 3.83954 133.859 2.7377 -1.2 -9.27615 -2.61895e+06 -3.39677e+06 -2.37145e+06 -296867 -894152 -489959
233 1 Mg 2.49002 139.695 4.41647 1.2 -8.06894 1.4111e+06 1.61004e+06 1.27293e+06 914590 -148742 67317.2
234 2 Si 5.08788 141.584 4.63618 2.4 -32.7581 6.18338e+06 1.06126e+07 7.4964e+06 814059 551157 -1.83086e+06
235 3 O 3.50449 141.672 4.57929 -1.2 -9.79986 -1.61276e+06 -3.38032e+06 -3.25338e+06 535271 -297679 1.17869e+06
236 3 O 6.12816 137.823 4.43733 -1.2 -9.46148 -2.84734e+06 -5.44083e+06 -2.15035e+06 -744160 -118080 980774
237 3 O 5.7583 140.776 3.49192 -1.2 -9.64257 -2.94445e+06 -4.04397e+06 -3.94577e+06 -507003 -1.00904e+06 -288897
238 3 O 5.72448 141.038 6.03066 -1.2 -8.99772 -2.23955e+06 -4.16184e+06 -1.75621e+06 -618354 1.37291e+06 598751
239 1 Mg 4.80537 137.241 2.96799 1.2 -7.50017 -2.15401e+06 4.18389e+06 -546461 750429 -1.877e+06 1.53772e+06
240 1 Mg 4.69782 134.501 4.48926 1.2 -8.29124 2.25868e+06 1.15113e+06 2.28017e+06 -997642 -54570.4 130577
241 2 Si 6.80608 136.383 4.51584 2.4 -32.9584 6.16719e+06 1.12744e+07 7.46454e+06 330633 -281959 -405141
242 3 O 3.66329 136.433 4.55505 -1.2 -9.58018 -675472 -4.47208e+06 -3.61348e+06 -122552 73624.2 89649.1
243 3 O 5.87175 132.649 4.58326 -1.2 -9.17837 -2.14575e+06 -4.73534e+06 -2.89679e+06 786869 -360902 -513566
244 3 O 6.16777 135.572 3.30948 -1.2 -9.43762 -2.80892e+06 -3.45502e+06 -2.54602e+06 219996 602416 -452175
245 1 Mg 4.76445 137.411 -0.0144967 1.2 -7.44414 -1.10828e+06 4.30731e+06 -502094 1.1534e+06 1.4018e+06 -1.47023e+06
246 3 O 6.14141 135.773 5.86542 -1.2 -8.91864 -3.12007e+06 -3.67195e+06 -1.63758e+06 103788 -1.59526e+06 -170424
247 1 Mg 4.9953 140.103 1.81807 1.2 -7.84034 1.38632e+06 1.54884e+06 1.01972e+06 -623226 -530822 -1.00613e+06
248 2 Si 2.72471 138.232 1.51724 2.4 -32.597 3.31602e+06 1.14529e+07 7.18339e+06 -112763 727883 -752584
249 3 O 5.92855 138.235 1.5115 -1.2 -10.0722 -2.81621e+06 -3.98193e+06 -3.70872e+06 -186768 526424 591852
250 3 O 3.77289 142.042 1.65346 -1.2 -9.23877 -1.65065e+06 -4.30403e+06 -2.2017e+06 1.02806e+06 -51422.6 692516
251 3 O 3.36151 138.856 0.201289 -1.2 -9.35751 -2.78131e+06 -5.18696e+06 -2.49688e+06 434180 -1.1887e+06 438599
252 3 O 3.43103 138.923 2.75906 -1.2 -9.4459 -1.84431e+06 -4.35216e+06 -3.43876e+06 296797 578211 -367196
253 1 Mg 2.37191 142.476 0.174103 1.2 -7.84342 -1.76992e+06 4.49705e+06 176382 -1.29614e+06 -1.39846e+06 -2.05462e+06
254 1 Mg 7.16305 145.504 1.66747 1.2 -8.34637 1.37428e+06 1.93133e+06 2.20865e+06 1.07339e+06 -205109 23803.1
255 2 Si 4.44274 143.548 1.54175 2.4 -33.2234 7.18396e+06 1.00538e+07 6.19673e+06 1.0086e+06 -202594 -424718
256 3 O 6.01009 143.489 1.61245 -1.2 -9.33203 -1.81962e+06 -3.82444e+06 -3.41981e+06 -400049 293697 228303
257 3 O 3.01498 147.653 1.85642 -1.2 -9.5747 -2.81111e+06 -2.38892e+06 -1.55818e+06 -1.47147e+06 -446348 199387
258 3 O 3.76728 144.111 0.295969 -1.2 -9.01047 -4.20779e+06 -3.41291e+06 -4.89723e+06 111143 308868 1.65777e+06
259 1 Mg 1.37571 152.858 1.9218 1.2 -7.43772 -2.91207e+06 -657331 1.47657e+06 572057 -271294 -212663
260 3 O 3.71551 144.301 2.78695 -1.2 -9.22686 -4.01434e+06 -2.56941e+06 -2.26174e+06 -1.00506e+06 -1.00991e+06 -770776
261 1 Mg 1.64997 150.095 4.66694 1.2 -8.07233 612952 2.50108e+06 -486225 -1.03699e+06 1.37239e+06 739964
262 2 Si 3.62671 151.541 3.20837 2.4 -33.4057 9.63296e+06 9.59993e+06 5.27763e+06 -2.2822e+06 -1.06376e+06 481039
263 3 O 2.54694 152.67 3.40277 -1.2 -8.2614 -2.81983e+06 -1.72563e+06 -3.89988e+06 -1.25057e+06 1.90259e+06 -112266
264 3 O 6.02704 148.21 4.43322 -1.2 -9.43602 -3.20414e+06 -5.57566e+06 -2.14392e+06 -1.40551e+06 -217238 -760126
265 3 O 4.4672 151.976 1.94272 -1.2 -9.14837 -4.4448e+06 -3.15229e+06 -4.85846e+06 1.12092e+06 170435 232271
266 3 O 4.67676 151.1 4.27522 -1.2 -8.85243 -2.99211e+06 -4.04016e+06 -3.57053e+06 -2.28717e+06 -171711 481340
267 1 Mg 4.74154 147.565 2.97864 1.2 -7.48599 -947749 3.25397e+06 387552 580040 -1.38184e+06 1.33435e+06
268 1 Mg 4.65234 144.868 4.61488 1.2 -7.95441 1.90804e+06 290832 3.47188e+06 -1.21828e+06 -131878 -92107.3
269 2 Si 6.71001 146.72 4.58698 2.4 -32.6706 4.72462e+06 1.15469e+07 8.14854e+06 -86876.8 71667.5 -752728
270 3 O 3.53662 146.773 4.57848 -1.2 -9.73919 -1.0667e+06 -4.89294e+06 -3.47981e+06 -208743 38988.6 -263674
271 3 O 5.82844 143.057 4.58872 -1.2 -9.43917 -1.18324e+06 -4.4827e+06 -3.38774e+06 1.17188e+06 64148.7 1.27831e+06
272 3 O 6.0058 145.965 3.35009 -1.2 -9.24508 -2.55639e+06 -4.86823e+06 -2.52446e+06 -165180 792264 -627689
273 1 Mg 4.3722 148.351 0.0284341 1.2 -7.47588 -185424 4.4551e+06 -337443 719956 664349 -799623
274 3 O 6.11629 146.08 5.90404 -1.2 -9.44248 -2.58699e+06 -3.46748e+06 -3.22046e+06 531058 -528750 288198