ITEM: TIMESTEP
34200
ITEM: NUMBER OF ATOMS
5600
ITEM: BOX BOUNDS xy xz yz pp pp pp
0.0000000000000000e+00 7.1234999999999999e+00 0.0000000000000000e+00
0.0000000000000000e+00 2.0198500000000001e+02 2.3744999999999998e+00
0.0000000000000000e+00 1.1958400000000000e+02 0.0000000000000000e+00
ITEM: ATOMS id type element xu yu zu q c_pe c_s[1] c_s[2] c_s[3] c_s[4] c_s[5] c_s[6]
1 1 Mg -1.8678 48.9213 -0.919789 1.2 -7.10559 -1.57429e+06 -1.24852e+06 3.43287e+06 45460.3 601214 -970758
2 1 Mg 2.86463 50.4856 2.26518 1.2 -7.28356 -4.62811e+06 3.7289e+06 208104 -396753 231883 470844
3 2 Si 0.621307 50.5085 0.354298 2.4 -32.4834 7.60504e+06 7.08298e+06 6.07906e+06 -295806 849730 -168144
4 3 O 2.04967 49.798 0.61398 -1.2 -8.96877 -3.78271e+06 -2.70587e+06 -5.43546e+06 -125851 452566 2.07947e+06
5 3 O -1.43149 53.3398 2.01847 -1.2 -9.48231 -2.3971e+06 -2.91971e+06 -3.62253e+06 -681549 -752671 201849
6 3 O -0.136671 49.7918 -0.811994 -1.2 -9.59412 -4.83513e+06 -158287 -5.8964e+06 894644 -208096 671202
7 1 Mg -2.4679 59.1504 3.35069 1.2 -7.01228 -2.0654e+06 3.50207e+06 -507704 -1.0868e+06 1.27275e+06 2.45503e+06
8 3 O -0.087718 50.415 1.70141 -1.2 -9.72744 -6.23402e+06 -3.5312e+06 -4.3024e+06 -433725 1.38023e+06 -549502
9 1 Mg -2.30617 56.2373 4.79066 1.2 -7.82031 322952 1.12725e+06 2.04558e+06 1.14004e+06 528642 -96133.5
10 2 Si 0.295787 58.0746 4.74588 2.4 -31.7126 3.20708e+06 1.13693e+07 9.41792e+06 -1.11965e+06 1.48497e+06 1.69581e+06
11 3 O -1.21101 58.2396 4.78182 -1.2 -10.1689 -1.81502e+06 -5.04555e+06 -4.78891e+06 -1.02475e+06 366957 -877096
12 3 O 1.537 53.9496 4.92451 -1.2 -9.08412 -2.17191e+06 625001 -1.34477e+06 -1.51949e+06 194716 -34094.6
13 3 O 0.999192 57.2582 3.5276 -1.2 -9.76044 -2.944e+06 -1.58528e+06 -2.52632e+06 -22976.4 -1.2905e+06 8170.06
14 3 O 1.03832 57.3519 6.08891 -1.2 -9.34954 -1.78091e+06 -3.12965e+06 -1.96925e+06 -640584 1.42605e+06 -517168
15 1 Mg 0.140155 53.1101 3.22411 1.2 -7.26503 -297373 2.13576e+06 809270 686223 -150843 773599
16 1 Mg 0.797054 49.9119 3.41817 1.2 -7.15111 -1.24525e+06 454100 -669350 -1.20117e+06 89850.6 1.38355e+06
17 2 Si 2.28962 52.4253 4.95319 2.4 -32.8976 7.40854e+06 9.14489e+06 8.13858e+06 -1.47648e+06 -615363 -99186.6
18 3 O -0.914014 52.7248 4.79402 -1.2 -9.37217 -2.64631e+06 -3.11358e+06 -3.26139e+06 420419 -481006 816799
19 3 O 2.4536 48.8681 3.29376 -1.2 -7.52705 682298 224626 -3.63491e+06 -281091 90681.8 -595596
20 3 O 1.73555 51.635 3.7378 -1.2 -9.93223 -2.17844e+06 -4.14413e+06 -4.22583e+06 -1.93314e+06 832373 80458.5
21 1 Mg -0.143779 53.8196 0.404534 1.2 -7.40194 -499788 2.34312e+06 58969.6 1.28907e+06 3.09099e+06 -557121
22 3 O 1.89862 51.5379 6.22933 -1.2 -10.3437 -4.34579e+06 -2.26896e+06 -4.67497e+06 532468 686082 -1.68078e+06
23 1 Mg 0.0645623 56.767 1.87662 1.2 -7.77607 1.21442e+06 793754 2.64242e+06 -1.01956e+06 -301231 -369062
24 2 Si -2.06904 54.7852 2.08739 2.4 -32.8037 4.89091e+06 7.59339e+06 1.13865e+07 695584 -456541 -309665
25 3 O 1.12516 54.6175 1.9659 -1.2 -9.63154 -1.49331e+06 -965733 -3.96929e+06 1.3005e+06 826047 -899346
26 3 O -1.00616 58.5725 1.89956 -1.2 -9.45227 -466093 -4.01364e+06 -3.48957e+06 643452 196853 -15130.9
27 3 O -1.51975 55.4555 0.486458 -1.2 -8.91157 -1.96532e+06 -1.13685e+06 -1.03765e+06 25385.3 -984176 -715340
28 3 O -1.47416 55.6601 3.18165 -1.2 -9.36014 -3.90042e+06 -3.36606e+06 -3.29993e+06 798852 269473 -819226
29 1 Mg -2.51726 59.0976 0.368413 1.2 -7.07432 -1.49576e+06 3.65769e+06 873558 -760588 -584604 -1.7969e+06
30 1 Mg 2.10618 61.9044 1.91637 1.2 -7.32221 233497 309229 2.76023e+06 626096 370748 -658514
31 2 Si -0.416749 60.1433 1.88884 2.4 -31.8156 1.42902e+06 1.02997e+07 9.23968e+06 348830 570534 -19978.9
32 3 O 1.11574 60.0112 1.98165 -1.2 -10.4854 -2.88563e+06 -3.45132e+06 -4.06713e+06 -1.24907e+06 687787 -234211
33 3 O -1.53153 63.7779 1.7558 -1.2 -10.0749 189427 -4.87874e+06 -2.99743e+06 -497606 291505 -798052
34 3 O -1.23522 60.7085 0.67731 -1.2 -9.8146 -762602 -4.70566e+06 -3.24873e+06 -265263 346345 1.52369e+06
35 1 Mg -2.39644 69.4992 3.24733 1.2 -7.49267 -3.6474e+06 2.75237e+06 -113682 -1.36386e+06 2.37983e+06 1.09663e+06
36 3 O -1.0651 60.7001 3.2178 -1.2 -9.68807 -2.15306e+06 -4.50882e+06 -4.12954e+06 -49719.3 -801919 -1.04558e+06
37 1 Mg -2.38763 66.7622 4.60077 1.2 -7.79093 -183851 978545 3.90414e+06 1.20031e+06 244320 -906743
38 2 Si 0.317359 68.5792 4.74154 2.4 -32.0938 6.05206e+06 9.34246e+06 1.04573e+07 321197 -57181.2 -2.77741e+06
39 3 O -1.2649 68.5619 4.69404 -1.2 -9.83511 236816 -3.7152e+06 -5.14179e+06 -336331 212190 2.34786e+06
40 3 O 1.49009 64.7911 4.6904 -1.2 -9.60584 39449.5 -3.8936e+06 -3.15034e+06 -2.30394e+06 62543.8 1.20625e+06
41 3 O 0.981943 67.9169 3.38992 -1.2 -9.89975 -2.13703e+06 -2.35149e+06 -2.05175e+06 109591 -1.20699e+06 1.47224e+06
42 3 O 1.03543 67.9046 6.05262 -1.2 -9.33429 -3.72615e+06 -3.13183e+06 -1.47464e+06 -23034.3 1.50639e+06 1.7724e+06
43 1 Mg -0.0515911 64.2734 3.18922 1.2 -6.91666 -1.41145e+06 4.04495e+06 448977 270374 144489 372133
44 1 Mg -0.0433009 61.482 4.79203 1.2 -7.92755 -188916 752547 2.6857e+06 -228625 177913 59987.8
45 2 Si 2.14784 63.2735 4.79926 2.4 -31.9287 3.57033e+06 1.02023e+07 8.26244e+06 -195437 510385 65456.5
46 3 O -1.07977 63.311 4.67794 -1.2 -10.4454 -3.54422e+06 -3.53345e+06 -3.83547e+06 1.62753e+06 456347 -26080
47 3 O 0.993303 59.5608 4.87172 -1.2 -9.82717 -3.63951e+06 -2.866e+06 -4.30288e+06 1.49242e+06 -475680 842778
48 3 O 1.25232 62.5287 3.54536 -1.2 -9.61293 -1.49366e+06 -2.87159e+06 -3.78266e+06 688216 2.80338e+06 -566740
49 1 Mg -0.130619 64.2784 0.239212 1.2 -6.73091 -2.83134e+06 4.91816e+06 -1.11771e+06 1.13925e+06 1.64944e+06 -2.14712e+06
50 3 O 1.40074 62.7254 6.01881 -1.2 -9.44807 -1.16461e+06 -3.1537e+06 -5.80862e+06 -592859 -948071 1.2371e+06
51 1 Mg -0.163879 67.2254 1.84287 1.2 -7.68577 1.03553e+06 1.09533e+06 2.61705e+06 -442972 -268193 -921505
52 2 Si -2.20916 65.2559 1.7072 2.4 -31.7292 2.09528e+06 1.00589e+07 6.74198e+06 -741744 -817875 -2.76069e+06
53 3 O 0.989334 65.2243 1.65519 -1.2 -10.4802 -2.05417e+06 -3.28628e+06 -3.42507e+06 -151312 -329375 706020
54 3 O -1.06741 69.0967 1.89719 -1.2 -9.53632 -3.30166e+06 -3.78358e+06 -4.78706e+06 1.93257e+06 1.49273e+06 1.13472e+06
55 3 O -1.52728 65.9782 0.417096 -1.2 -9.68453 -1.31843e+06 -1.70183e+06 -4.38804e+06 -3453.43 -1.18894e+06 529760
56 3 O -1.52019 65.9566 2.86346 -1.2 -9.80984 -1.75335e+06 -4.16113e+06 -6.40648e+06 -309723 876002 -242617
57 1 Mg -2.53448 69.5105 0.365334 1.2 -7.56481 10860.6 2.95395e+06 444108 -437499 -665069 -2.13403e+06
58 1 Mg 2.10129 72.4316 1.52314 1.2 -8.10759 1.07808e+06 1.06377e+06 1.17719e+06 775007 -548861 -427709
59 2 Si -0.426439 70.598 1.99538 2.4 -32.5311 6.65631e+06 9.14631e+06 9.6104e+06 -912938 -212272 -1.27927e+06
60 3 O 1.19698 70.4873 1.87615 -1.2 -9.759 -504034 -3.47625e+06 -4.06156e+06 -1.07246e+06 -1.6202e+06 518659
61 3 O -1.4333 74.366 1.57934 -1.2 -9.27217 -2.6393e+06 -4.22376e+06 -2.54947e+06 -696273 -165635 -1.2485e+06
62 3 O -1.08001 71.306 0.670772 -1.2 -9.16145 -2.06962e+06 -2.95912e+06 -2.05236e+06 -269008 2.00775e+06 394140
63 1 Mg -2.31832 80.2764 3.23114 1.2 -7.80745 -910661 4.80376e+06 -1.8527e+06 -705611 1.86288e+06 397486
64 3 O -1.1625 71.1951 3.23865 -1.2 -9.36256 -2.4292e+06 -3.29611e+06 -4.26133e+06 -130281 -909595 637922
65 1 Mg -2.19076 77.2047 4.61026 1.2 -8.17348 1.49234e+06 1.77246e+06 2.79559e+06 937754 -480472 -718611
66 2 Si 0.417016 79.0136 4.6587 2.4 -32.813 4.73909e+06 1.09609e+07 8.70283e+06 -1.48821e+06 -419324 -1.08291e+06
67 3 O -1.08774 79.254 4.57246 -1.2 -9.70957 -3.19285e+06 -3.25148e+06 -3.11657e+06 -1.89006e+06 -72682.8 673545
68 3 O 1.4031 75.265 4.54954 -1.2 -8.99186 -1.98165e+06 -3.73169e+06 -2.9423e+06 -462764 -1.01705e+06 1.57033e+06
69 3 O 1.17475 78.2673 3.32062 -1.2 -8.95956 -1.58236e+06 -3.19845e+06 926747 -796322 -1.45553e+06 782393
70 3 O 1.13146 78.4094 5.92732 -1.2 -9.44281 -1.70207e+06 -3.66438e+06 -2.0732e+06 631375 786376 1.89041e+06
71 1 Mg -0.0503608 74.6445 3.07813 1.2 -7.71917 -1.39301e+06 3.90629e+06 95967.1 1.34619e+06 -1.25516e+06 1.06954e+06
72 1 Mg -0.0189629 71.9955 4.73534 1.2 -7.96934 1.82466e+06 994967 2.29335e+06 -936640 -268648 -1.54115e+06
73 2 Si 2.04248 73.7727 4.48846 2.4 -32.9076 4.11356e+06 1.17402e+07 8.34465e+06 -519322 -702822 -1.70431e+06
74 3 O -1.15413 73.8449 4.5877 -1.2 -9.82146 -2.37201e+06 -4.40227e+06 -3.4128e+06 545954 770656 430427
75 3 O 0.967366 70.0673 4.79738 -1.2 -9.48956 -2.25753e+06 -2.74284e+06 -3.10387e+06 673658 349020 1.77864e+06
76 3 O 1.29987 73.0947 3.29477 -1.2 -9.61071 -2.06529e+06 -4.60547e+06 -3.81204e+06 1.06091e+06 715077 18487.9
77 1 Mg -0.0309873 75.1057 0.104851 1.2 -7.73729 -1.83933e+06 3.39984e+06 -412074 1.29066e+06 1.57687e+06 -2.10046e+06
78 3 O 1.34233 73.1032 5.83903 -1.2 -9.1483 -1.69198e+06 -3.52715e+06 -1.03551e+06 127144 -1.0049e+06 1.00968e+06
79 1 Mg 0.194872 77.785 1.60287 1.2 -8.19756 1.61605e+06 2.39492e+06 2.2152e+06 -675768 224495 -822743
80 2 Si -2.02255 75.8552 1.57672 2.4 -32.8507 7.40546e+06 1.00377e+07 8.77574e+06 1.38639e+06 331517 -477559
81 3 O 1.13447 75.7697 1.5806 -1.2 -9.49827 -1.56436e+06 -3.24941e+06 -4.36517e+06 1.60775e+06 450569 -839366
82 3 O -0.920725 79.8014 1.62013 -1.2 -9.23259 -1.78478e+06 -4.20836e+06 -1.76388e+06 937382 -263569 -31312.3
83 3 O -1.32337 76.5917 0.257003 -1.2 -9.20852 -2.61642e+06 -3.34169e+06 -3.1853e+06 1.09983e+06 -2.32518e+06 231890
84 3 O -1.18664 76.4834 2.8024 -1.2 -8.95099 -3.30714e+06 -2.9571e+06 -1.44938e+06 638697 1.32951e+06 -113438
85 1 Mg -2.37144 80.0827 0.205196 1.2 -7.54986 -581265 4.40232e+06 1.06921e+06 -1.32723e+06 -1.37257e+06 -1.2867e+06
86 1 Mg 2.36525 83.1387 1.64978 1.2 -8.63388 1.22098e+06 1.13047e+06 740414 1.02319e+06 560782 -970727
87 2 Si -0.343216 81.3176 1.58233 2.4 -33.2393 7.94315e+06 1.14599e+07 6.63781e+06 -442109 577921 -769399
88 3 O 1.29858 81.2256 1.72021 -1.2 -9.35114 -537053 -3.33658e+06 -1.70849e+06 -1.51398e+06 829815 22118.2
89 3 O -1.22737 84.8239 1.5325 -1.2 -8.69151 -4.18838e+06 -4.77903e+06 -2.58208e+06 -613171 -557024 -2.102e+06
90 3 O -1.04906 81.9833 0.340051 -1.2 -9.20469 -2.26694e+06 -4.1262e+06 -3.31411e+06 443674 1.27848e+06 600597
91 1 Mg -2.20117 90.5595 2.75346 1.2 -7.17525 -2.40173e+06 4.13656e+06 -434623 -1.26439e+06 1.64289e+06 2.66769e+06
92 3 O -1.0179 81.952 2.87966 -1.2 -8.83919 -3.11476e+06 -5.35373e+06 -966263 158787 -1.02748e+06 -653542
93 1 Mg -2.07581 87.6479 4.35641 1.2 -8.33366 2.23922e+06 1.01949e+06 1.55698e+06 718534 186089 1.38434e+06
94 2 Si 0.593556 89.5836 4.2662 2.4 -32.4784 6.25506e+06 1.23984e+07 6.35907e+06 -578172 1.43618e+06 2.29765e+06
95 3 O -0.998503 89.789 4.29569 -1.2 -9.8472 -815239 -4.16259e+06 -937873 -258904 -2320.82 -665667
96 3 O 1.64586 85.861 4.45361 -1.2 -9.09761 -1.6605e+06 -6.46742e+06 -2.49944e+06 -1.34036e+06 -309192 -2.57976e+06
97 3 O 1.20823 88.7325 3.0865 -1.2 -9.48754 -1.17282e+06 -3.25132e+06 -1.85221e+06 -461545 -419153 -1.09274e+06
98 3 O 1.27322 88.908 5.63029 -1.2 -8.92349 -892600 -4.84593e+06 -191112 -679121 1.13378e+06 -777476
99 1 Mg 0.214502 85.2597 2.94989 1.2 -8.12584 -837160 4.41744e+06 -751979 1.41684e+06 -1.04072e+06 2.36979e+06
100 1 Mg 0.222573 82.5016 4.70924 1.2 -7.97228 1.14618e+06 2.17031e+06 2.58076e+06 -271759 460770 -559835
101 2 Si 2.31505 84.418 4.51023 2.4 -32.7009 5.59628e+06 1.26556e+07 6.54035e+06 -540286 272343 356855
102 3 O -0.869478 84.355 4.53993 -1.2 -9.89727 -2.05364e+06 -4.82234e+06 -2.26871e+06 -148675 957400 -946353
103 3 O 1.08369 80.4984 4.60308 -1.2 -9.4492 -4.05211e+06 -4.58965e+06 -3.29099e+06 985741 767047 929448
104 3 O 1.48896 83.771 3.24758 -1.2 -8.82857 -3.99306e+06 -6.93416e+06 -2.77442e+06 1.82566e+06 2.20935e+06 -1.36076e+06
105 1 Mg 0.202583 85.3591 -0.0723443 1.2 -7.83111 -484901 2.9837e+06 -1.23968e+06 987626 895001 -1.37877e+06
106 3 O 1.66424 83.6366 5.78941 -1.2 -9.74783 -1.35434e+06 -2.43281e+06 -1.39938e+06 325585 -954081 418154
107 1 Mg 0.0521676 88.2857 1.32471 1.2 -7.91783 1.28831e+06 1.54978e+06 1.70521e+06 -1.28589e+06 477050 -149760
108 2 Si -1.8658 86.3494 1.43076 2.4 -33.5003 5.25153e+06 1.12297e+07 6.85723e+06 -649205 569937 1.60693e+06
109 3 O 1.37206 86.1735 1.45291 -1.2 -9.16581 -3.54015e+06 -5.4934e+06 -3.55492e+06 927497 358498 -1.61323e+06
110 3 O -0.799195 90.1679 1.29192 -1.2 -9.53145 -1.78093e+06 -5.47349e+06 -3.18788e+06 599125 528232 -665021
111 3 O -1.22064 87.0504 0.173564 -1.2 -9.52548 -2.84128e+06 -3.83153e+06 -2.5001e+06 -731742 -1.11834e+06 -217010
112 3 O -1.15913 86.9936 2.70957 -1.2 -9.07225 -4.34498e+06 -3.79348e+06 -1.83349e+06 -137505 852701 -2.18645e+06
113 1 Mg -2.39446 90.7003 -0.177514 1.2 -7.26639 -1.27372e+06 4.86186e+06 -1.3654e+06 -480826 -1.1819e+06 -1.71938e+06
114 1 Mg 2.45489 93.4584 1.37712 1.2 -7.46588 15417.5 1.37778e+06 2.05739e+06 1.14934e+06 -536846 123589
115 2 Si -0.233492 91.6977 1.41531 2.4 -31.989 2.57545e+06 1.034e+07 6.31434e+06 983099 1.38126e+06 774297
116 3 O 1.33144 91.577 1.48283 -1.2 -10.1367 -1.64508e+06 -4.39297e+06 -3.63106e+06 -1.29558e+06 -397803 -776140
117 3 O -1.2427 95.468 1.30264 -1.2 -10.3084 -2.51046e+06 -5.15635e+06 -2.70009e+06 -1.5618e+06 -47157.3 -1.15838e+06
118 3 O -0.884149 92.3255 0.111909 -1.2 -9.70875 -2.37409e+06 -5.10988e+06 -2.67609e+06 749798 980644 1.27773e+06
119 1 Mg -2.39476 101.225 2.68488 1.2 -7.54117 -2.10243e+06 3.97949e+06 -1.64604e+06 -585709 1.49331e+06 2.63643e+06
120 3 O -0.920983 92.2337 2.66087 -1.2 -10.0343 -3.36022e+06 -4.29831e+06 -3.1341e+06 -99433 796866 -1.71586e+06
121 1 Mg -2.30821 98.2507 4.37973 1.2 -7.92662 457430 2.13069e+06 2.54719e+06 1.5018e+06 -294393 -208059
122 2 Si 0.431985 100.251 4.19918 2.4 -32.4506 6.94573e+06 1.0928e+07 5.9273e+06 -793923 -236400 3.15255e+06
123 3 O -1.17083 100.351 4.21053 -1.2 -9.49516 -452987 -4.53549e+06 -4.33494e+06 -611907 -183164 -1.47142e+06
124 3 O 1.44661 96.3581 4.28738 -1.2 -9.52774 -1.04581e+06 -2.58255e+06 -2.68551e+06 -1.51519e+06 -19226.8 541732
125 3 O 1.18932 99.5056 2.93838 -1.2 -9.28803 -3.43846e+06 -2.2957e+06 -1.9319e+06 -659695 -1.57671e+06 -406183
126 3 O 1.10222 99.6125 5.41853 -1.2 -9.69896 -3.10181e+06 -4.74009e+06 -4.67203e+06 -49623.2 860713 397352
127 1 Mg 0.0348097 95.7495 2.84561 1.2 -7.05977 -2.92508e+06 4.93206e+06 -1.86014e+06 -49815 -549109 2.01503e+06
128 1 Mg 0.0265053 92.7323 4.47427 1.2 -7.5316 2.3235e+06 1.72495e+06 1.6387e+06 -151237 429070 1.35472e+06
129 2 Si 2.22151 94.8044 4.27233 2.4 -32.1953 1.02576e+06 1.35539e+07 8.05695e+06 -310439 219881 -250068
130 3 O -1.05277 95.0462 4.28281 -1.2 -10.4196 -5.24898e+06 -4.8887e+06 -3.33073e+06 -599419 1.30042e+06 523257
131 3 O 1.28452 91.0234 4.36434 -1.2 -9.64743 -2.09924e+06 -5.77322e+06 -1.92085e+06 431021 37189.6 650432
132 3 O 1.45301 94.1306 3.03936 -1.2 -9.81643 450229 -4.00735e+06 -2.67279e+06 647556 412519 -723445
133 1 Mg -0.0332198 96.0519 -0.123382 1.2 -6.95683 -3.527e+06 4.30964e+06 -1.59411e+06 371051 1.51133e+06 -627369
134 3 O 1.68055 94.0255 5.5677 -1.2 -8.77443 -1.17001e+06 -3.10165e+06 -528354 95449.1 -288967 -938867
135 1 Mg 0.219701 98.7955 1.29923 1.2 -8.00911 2.18686e+06 1.2762e+06 1.80146e+06 -937074 -204296 57420.6
136 2 Si -1.97668 96.8769 1.37599 2.4 -31.6985 4.52434e+06 1.25832e+07 6.83829e+06 1.41795e+06 867461 1.79989e+06
137 3 O 1.19175 96.7789 1.31371 -1.2 -10.2029 -137440 -4.20154e+06 -3.09693e+06 -189426 427222 -718342
138 3 O -0.890883 100.75 1.40738 -1.2 -9.26227 -1.15297e+06 -3.03361e+06 -4.1551e+06 854632 54492.2 -497078
139 3 O -1.32254 97.7223 0.17067 -1.2 -9.69083 -2.17355e+06 -4.04024e+06 -2.68532e+06 1.24821e+06 -1.10992e+06 -197087
140 3 O -1.26886 97.6279 2.70562 -1.2 -9.19798 -1.15406e+06 -2.62202e+06 -559958 1.02418e+06 1.45171e+06 935539
141 1 Mg -2.24586 101.148 -0.0830008 1.2 -7.64845 -1.32901e+06 4.48029e+06 -530630 -584881 -672875 -1.69399e+06
142 1 Mg 7.1045 104.059 1.17578 1.2 -8.03848 1.36935e+06 931693 3.02998e+06 573837 -163336 773429
143 2 Si -0.184187 102.294 1.36734 2.4 -32.2988 3.2907e+06 1.1711e+07 1.02086e+07 381427 -428995 -44893.3
144 3 O 1.35102 102.134 1.28071 -1.2 -10.2592 -2.575e+06 -3.72071e+06 -5.2965e+06 -150136 -381744 383451
145 3 O 3.38198 105.95 1.20234 -1.2 -9.02982 -2.1428e+06 -4.63835e+06 -3.18145e+06 -1.45779e+06 248978 -485413
146 3 O -0.913531 102.936 0.0256927 -1.2 -9.22381 -2.02027e+06 -3.48292e+06 -632619 -426287 1.17161e+06 -349196
147 1 Mg 2.50188 111.512 2.81376 1.2 -7.45348 -1.71092e+06 4.35386e+06 -532970 -423606 761058 2.17056e+06
148 3 O -0.841142 102.911 2.6656 -1.2 -9.35274 -1.25981e+06 -4.65534e+06 -2.65889e+06 -194785 -1.0899e+06 -357609
149 1 Mg 2.57024 108.672 4.1707 1.2 -8.3286 1.32303e+06 853609 1.58399e+06 437394 -92603.2 458190
150 2 Si 5.15065 110.566 4.19438 2.4 -33.4432 4.49449e+06 1.07793e+07 7.09697e+06 -744521 709509 1.35676e+06
151 3 O 3.61028 110.754 4.24685 -1.2 -9.60562 -4.07633e+06 -4.90192e+06 -4.06353e+06 -1.34225e+06 -65642.6 -604099
152 3 O 6.21044 106.943 4.18771 -1.2 -9.2474 -2.86684e+06 -5.15159e+06 -3.99001e+06 -1.35116e+06 -408299 -386799
153 3 O 5.84529 109.847 3.01613 -1.2 -9.10475 -2.4661e+06 -4.40003e+06 -3.74801e+06 242932 -265067 -1.40695e+06
154 3 O 5.88249 109.949 5.48966 -1.2 -8.71862 -2.73772e+06 -4.30733e+06 -2.66102e+06 708412 912046 -617174
155 1 Mg 4.83575 106.481 2.74568 1.2 -7.67597 -1.66011e+06 4.07101e+06 -285836 570935 -638226 2.39934e+06
156 1 Mg 0.115129 103.557 4.30105 1.2 -8.15947 1.04071e+06 745021 1.98105e+06 -726289 205998 476532
157 2 Si 6.9046 105.421 4.12376 2.4 -32.8187 3.86024e+06 1.00302e+07 8.95761e+06 -493886 -199816 499275
158 3 O 3.67395 105.572 4.17888 -1.2 -9.74047 -2.90106e+06 -3.59214e+06 -4.65084e+06 544335 674935 -822107
159 3 O 1.11866 101.739 4.21186 -1.2 -9.40504 -4.39345e+06 -4.86822e+06 -3.27079e+06 2.34566e+06 125986 -207610
160 3 O 6.18912 104.846 2.8803 -1.2 -9.50761 -3.07425e+06 -3.56945e+06 -3.52073e+06 -298518 396429 -1.01824e+06
161 1 Mg 4.73652 106.571 -0.346831 1.2 -7.71868 -959720 3.45862e+06 215459 1.00785e+06 640236 -567156
162 3 O 6.25256 104.742 5.45887 -1.2 -9.06773 -2.94531e+06 -3.41045e+06 -1.13477e+06 -684866 -554990 -585196
163 1 Mg 4.8958 109.28 1.06364 1.2 -7.92548 1.65804e+06 1.24938e+06 1.97764e+06 -338304 399694 728603
164 2 Si 2.66784 107.404 1.21391 2.4 -32.8462 5.39699e+06 1.19947e+07 7.03279e+06 30564.9 -15140.1 2.67164e+06
165 3 O 5.85766 107.352 1.23617 -1.2 -9.94189 -2.83967e+06 -4.46883e+06 -3.01861e+06 180923 303460 -1.12181e+06
166 3 O 3.82625 111.079 1.27336 -1.2 -9.40443 -1.64623e+06 -3.20197e+06 -2.30346e+06 1.01517e+06 -266265 1.30595e+06
167 3 O 3.40002 108.033 -0.0756952 -1.2 -9.49591 -1.40876e+06 -5.54829e+06 -3.44909e+06 1.43651e+06 -1.66057e+06 -166916
168 3 O 3.4233 108.173 2.42216 -1.2 -9.09665 -2.7541e+06 -3.55399e+06 -2.69453e+06 838174 1.73537e+06 -1.17386e+06
169 1 Mg 2.56781 111.713 -0.245403 1.2 -7.41252 -2.20293e+06 3.21829e+06 -73374.1 -932256 -1.42864e+06 -1.83363e+06
170 1 Mg 7.1311 114.557 1.30448 1.2 -7.47188 250868 2.05684e+06 1.26746e+06 680492 11125 159427
171 2 Si 4.57242 112.63 1.32415 2.4 -32.0646 3.19134e+06 1.09843e+07 7.90822e+06 259693 893512 144439
172 3 O 6.07291 112.436 1.30109 -1.2 -10.1289 -2.84931e+06 -3.55141e+06 -3.09991e+06 -66547 -9561.4 -179189
173 3 O 3.46424 116.423 1.33026 -1.2 -9.81917 -1.94366e+06 -5.26902e+06 -3.30061e+06 -691397 -48183.6 508447
174 3 O 3.88656 113.197 -0.0565005 -1.2 -9.63179 -1.06461e+06 -4.33412e+06 -1.56732e+06 -579096 762066 145936
175 1 Mg 2.28265 122.1 2.86759 1.2 -7.18891 -1.09035e+06 4.15733e+06 -120423 -1.39501e+06 748990 944185
176 3 O 3.89224 113.373 2.49304 -1.2 -9.72171 -2.48458e+06 -3.53358e+06 -3.1219e+06 281325 -534085 -1.14e+06
177 1 Mg 2.54283 119.074 4.33566 1.2 -8.12694 1.11636e+06 1.00851e+06 1.67847e+06 188737 -786435 -210178
178 2 Si 5.04993 120.95 4.30576 2.4 -32.2517 4.71149e+06 1.25683e+07 7.73739e+06 -732756 928206 -778679
179 3 O 3.51605 121.13 4.24564 -1.2 -10.04 -2.05187e+06 -3.47687e+06 -2.0753e+06 -1.82325e+06 -1.25361e+06 -16268.5
180 3 O 6.22899 117.389 4.29677 -1.2 -9.21835 -2.01409e+06 -4.00111e+06 -2.60816e+06 -1.84333e+06 -218576 235783
181 3 O 5.90865 120.341 3.11835 -1.2 -9.7621 -2.52393e+06 -3.87751e+06 -1.81673e+06 -758108 -1.031e+06 -479242
182 3 O 5.66756 120.285 5.68424 -1.2 -9.24264 -1.25935e+06 -3.74048e+06 324777 -477968 987526 -172971
183 1 Mg 4.91241 116.885 2.78546 1.2 -7.36069 -1.2027e+06 4.40731e+06 -116308 986868 -1.43445e+06 973082
184 1 Mg 4.84065 113.814 4.23205 1.2 -8.22953 927017 1.6262e+06 1.32399e+06 -482530 -227450 -151188
185 2 Si 6.90865 115.809 4.26054 2.4 -32.7889 6.41236e+06 1.22589e+07 4.76961e+06 -564692 -798283 471818
186 3 O 3.72222 115.919 4.33275 -1.2 -9.59701 -1.7949e+06 -4.13614e+06 -2.68347e+06 646586 -763573 -89702.2
187 3 O 5.75814 112.062 4.16903 -1.2 -9.11429 -3.5226e+06 -6.77766e+06 -3.262e+06 916134 673602 -166560
188 3 O 6.27769 115.146 3.00709 -1.2 -9.63701 -2.92844e+06 -3.30834e+06 -3.78333e+06 -222898 1.12107e+06 -425112
189 1 Mg 4.79454 116.588 -0.174123 1.2 -6.95076 -2.1006e+06 3.64514e+06 -435259 1.13798e+06 1.68888e+06 -1.67441e+06
190 3 O 6.16751 115.148 5.47565 -1.2 -9.23304 -3.16213e+06 -4.1925e+06 -2.336e+06 81050.4 -333531 731053
191 1 Mg 5.10486 119.74 1.27709 1.2 -7.51019 1.0565e+06 1.36967e+06 2.38485e+06 -711821 339980 -19817.1
192 2 Si 2.84947 117.914 1.29229 2.4 -32.3137 3.44617e+06 9.31972e+06 8.76805e+06 1.06211e+06 360888 -623207
193 3 O 6.04482 117.797 1.30735 -1.2 -10.042 -2.01078e+06 -2.60883e+06 -4.20484e+06 1.27828e+06 512273 293239
194 3 O 3.76347 121.497 1.21805 -1.2 -9.80607 -377259 -2.96448e+06 -2.74672e+06 -264026 -6443.77 -39688.1
195 3 O 3.42652 118.519 -0.0561653 -1.2 -9.62164 -2.68084e+06 -3.17452e+06 -2.96466e+06 -320673 -649971 1.12679e+06
196 3 O 3.5589 118.543 2.56489 -1.2 -9.51567 -1.74463e+06 -4.52265e+06 -1.69351e+06 267109 550491 -744736
197 1 Mg 2.37253 122.015 -0.266381 1.2 -7.02532 -2.47456e+06 3.83211e+06 -309085 -1.20035e+06 -1.49166e+06 -2.31731e+06
198 1 Mg 7.0387 124.936 1.31266 1.2 -7.32214 1.07621e+06 713667 2.24375e+06 725460 -109175 -824959
199 2 Si 4.35698 123.013 1.19964 2.4 -31.7563 3.42631e+06 1.17584e+07 7.91529e+06 693167 505211 -1.96914e+06
200 3 O 5.96564 122.922 1.30137 -1.2 -10.2256 596249 -3.6888e+06 -2.67788e+06 101376 644737 265288
201 3 O 3.25582 126.699 1.41749 -1.2 -10.0321 -951300 -3.24489e+06 -3.37585e+06 -1.55692e+06 -808486 814286
202 3 O 3.75438 123.715 -0.114311 -1.2 -9.97979 -1.35305e+06 -4.17014e+06 -1.56035e+06 -811581 706302 1.04166e+06
203 1 Mg 2.37811 132.381 2.97053 1.2 -7.29187 -1.8102e+06 4.23546e+06 419296 -850613 1.77329e+06 1.22101e+06
204 3 O 3.77935 123.707 2.4849 -1.2 -9.89583 -2.43663e+06 -3.83817e+06 -1.12398e+06 -281511 -406706 181473
205 1 Mg 2.33821 129.492 4.39991 1.2 -7.88737 1.22519e+06 538692 1.04655e+06 1.23046e+06 112302 228501
206 2 Si 5.04704 131.392 4.3702 2.4 -32.5097 3.01241e+06 1.02342e+07 7.57081e+06 374199 479378 57348.8
207 3 O 3.53518 131.386 4.46673 -1.2 -9.70082 -2.5252e+06 -3.93001e+06 -4.81671e+06 -80127.1 636044 -367485
208 3 O 6.03092 127.676 4.28353 -1.2 -10.0268 -2.32878e+06 -5.06082e+06 -3.58756e+06 -474075 440840 1.294e+06
209 3 O 5.65182 130.662 3.12873 -1.2 -9.51747 -3.85926e+06 -3.45035e+06 -4.95277e+06 115092 -1.03375e+06 -492251
210 3 O 5.7788 130.662 5.65568 -1.2 -9.47888 -3.01474e+06 -3.25361e+06 -1.83764e+06 -392791 359410 84100.3
211 1 Mg 4.71028 127.016 2.71783 1.2 -6.73435 -3.37706e+06 3.41864e+06 -791623 700971 -1.62033e+06 2.08162e+06
212 1 Mg 4.59697 124.418 4.31993 1.2 -7.40417 -571841 1.21436e+06 4.06365e+06 -1.41742e+06 -260416 53327.5
213 2 Si 6.6542 126.174 4.31651 2.4 -31.0774 1.65191e+06 1.11976e+07 6.51094e+06 515921 51176.5 -79988.7
214 3 O 3.44365 126.233 4.31896 -1.2 -10.5171 -872250 -4.09806e+06 -4.09758e+06 803460 -575802 198292
215 3 O 5.67782 122.521 4.41532 -1.2 -9.69131 -899524 -2.64901e+06 -2.12553e+06 856532 -56445.9 444625
216 3 O 5.96694 125.419 3.07108 -1.2 -10.1361 -1.75773e+06 -4.20483e+06 -2.89165e+06 -597279 510492 -49689.5
217 1 Mg 4.66405 127.237 -0.13732 1.2 -7.15333 -1.04166e+06 4.12194e+06 259891 934156 939877 -1.30598e+06
218 3 O 5.92987 125.553 5.56543 -1.2 -10.1058 -2.76307e+06 -4.61098e+06 -4.92426e+06 295623 -1.01728e+06 1.41084e+06
219 1 Mg 4.72057 129.987 1.55514 1.2 -7.73347 -148219 -333222 3.05254e+06 -722623 -751907 -603637
220 2 Si 2.60089 128.287 1.51588 2.4 -31.4538 3.66836e+06 1.02252e+07 8.52742e+06 -203884 -32028.2 677715
221 3 O 5.73326 128.108 1.46046 -1.2 -10.4466 263551 -3.62092e+06 -4.39005e+06 613264 1.14129e+06 785.184
222 3 O 3.78366 131.82 1.6015 -1.2 -9.72917 -1.88517e+06 -5.31805e+06 -3.38697e+06 1.54272e+06 47053.7 -143735
223 3 O 3.2389 128.92 0.235708 -1.2 -9.78984 -1.3342e+06 -3.59383e+06 -3.3859e+06 103403 -858091 466865
224 3 O 3.29348 128.924 2.7369 -1.2 -9.8497 -2.32491e+06 -3.81972e+06 -5.05214e+06 -368418 757186 -581169
225 1 Mg 2.38819 132.312 -0.0989674 1.2 -7.39036 -1.50933e+06 3.54251e+06 961694 -1.09997e+06 -1.58632e+06 -1.1685e+06
226 1 Mg 7.18368 135.272 1.43646 1.2 -8.23659 2.46503e+06 465183 3.37405e+06 945722 246736 1.12261e+06
227 2 Si 4.48344 133.235 1.39248 2.4 -32.6178 4.42184e+06 9.34329e+06 9.8971e+06 178423 -619201 854084
228 3 O 6.01688 133.298 1.35337 -1.2 -9.79499 -2.12103e+06 -2.97667e+06 -4.2065e+06 39141.5 -191493 -725014
229 3 O 3.56928 137.112 1.56026 -1.2 -9.07285 -3.20304e+06 -3.68831e+06 -3.10984e+06 -609767 322642 -1.13237e+06
230 3 O 3.81558 133.855 0.0194246 -1.2 -9.10868 -3.18278e+06 -584434 -2.38802e+06 168931 1.00939e+06 -1.05388e+06
231 1 Mg 2.45901 142.905 3.12316 1.2 -7.52611 -845811 3.58988e+06 -254231 -751739 1.45156e+06 3.23994e+06
232 3 O 3.75254 134.082 2.61177 -1.2 -9.29192 -2.78359e+06 -2.64983e+06 -2.0806e+06 -734693 -1.33004e+06 -667542
233 1 Mg 2.38226 139.845 4.3934 1.2 -8.07252 740575 1.24498e+06 2.13705e+06 1.01357e+06 468389 453025
234 2 Si 5.05814 141.724 4.5633 2.4 -32.439 3.95169e+06 1.08191e+07 8.45038e+06 -361561 -863172 1.34391e+06
235 3 O 3.53519 141.854 4.51877 -1.2 -9.77977 -2.13063e+06 -4.18341e+06 -4.26091e+06 -755691 304450 -595759
236 3 O 6.09401 138.006 4.59238 -1.2 -9.33422 -3.11634e+06 -3.46298e+06 -2.27876e+06 -1.54741e+06 745890 95496
237 3 O 5.69637 140.922 3.26734 -1.2 -9.29391 -2.80982e+06 -2.26346e+06 -1.89e+06 565183 -725132 -79637.7
238 3 O 5.7161 141.051 5.84534 -1.2 -9.71914 -3.18359e+06 -2.8944e+06 -1.87807e+06 -378198 175439 -931372
239 1 Mg 4.89666 137.634 2.90144 1.2 -7.59366 -439451 3.15406e+06 -154664 642248 -1.94934e+06 2.38044e+06
240 1 Mg 4.57752 134.715 4.33623 1.2 -8.22316 1.04382e+06 435833 3.77755e+06 -590963 -155562 -458323
241 2 Si 6.80524 136.47 4.42182 2.4 -33.106 4.16273e+06 9.70625e+06 8.71058e+06 803056 -1.47518e+06 727341
242 3 O 3.5496 136.667 4.4237 -1.2 -9.63411 -3.85896e+06 -2.942e+06 -4.53903e+06 905526 -602548 -520954
243 3 O 5.74493 132.844 4.36975 -1.2 -9.6399 -1.84828e+06 -4.87131e+06 -3.63496e+06 568812 48264.6 -496637
244 3 O 6.15965 135.84 3.13862 -1.2 -9.12922 -3.06971e+06 -2.30787e+06 -4.4457e+06 -366975 202803 -518102
245 1 Mg 4.78638 137.619 -0.162822 1.2 -7.5118 -2.08373e+06 3.28271e+06 731077 688236 1.41724e+06 -1.14666e+06
246 3 O 6.03307 135.717 5.6108 -1.2 -8.97695 -1.78595e+06 -3.63423e+06 -3.4519e+06 70224.7 -528081 257229
247 1 Mg 4.75137 140.423 1.63436 1.2 -7.88153 1.52588e+06 938262 2.52547e+06 -1.14846e+06 -1.02121e+06 330332
248 2 Si 2.78474 138.583 1.36475 2.4 -32.6506 3.29049e+06 1.02123e+07 7.33375e+06 -1.25956e+06 210816 299894
249 3 O 6.03718 138.343 1.36325 -1.2 -9.65598 -4.14732e+06 -4.4006e+06 -3.6421e+06 -549409 -1.876e+06 -425935
250 3 O 3.79323 142.378 1.60386 -1.2 -9.40858 -3.10505e+06 -2.49909e+06 -3.13319e+06 893972 -274127 -1.23741e+06
251 3 O 3.59371 139.256 0.209863 -1.2 -9.80856 -2.59273e+06 -2.92108e+06 -3.75822e+06 475477 174617 577571
252 3 O 3.23343 139.256 2.716 -1.2 -9.21171 -2.55708e+06 -5.32841e+06 -3.50159e+06 195414 336422 -1.7467e+06
253 1 Mg 2.49154 142.96 0.1506 1.2 -7.40802 -2.07448e+06 3.2671e+06 278089 -1.27936e+06 -2.05799e+06 -894726
254 1 Mg 7.05877 145.872 1.8495 1.2 -7.68178 670522 1.27576e+06 3.83796e+06 517744 676885 346258
255 2 Si 4.46235 143.893 1.54767 2.4 -32.0998 4.41848e+06 1.05285e+07 8.25477e+06 -899298 -1.32125e+06 2.44524e+06
256 3 O 5.99499 143.701 1.56967 -1.2 -9.9302 -1.84523e+06 -3.46815e+06 -3.6019e+06 -1.16116e+06 446945 -681094
257 3 O 3.25062 147.746 1.79052 -1.2 -9.63246 -2.7234e+06 -3.17005e+06 -2.70994e+06 -422562 122787 397027
258 3 O 3.75838 144.591 0.372361 -1.2 -9.95927 -2.92686e+06 -3.74958e+06 -3.9654e+06 -727890 487815 196812
259 1 Mg 1.79324 153.127 2.11618 1.2 -6.96108 -687427 -1.4327e+06 1.78853e+06 1.38587e+06 234451 345672
260 3 O 3.70441 144.571 2.9084 -1.2 -9.41352 -1.26541e+06 -2.30114e+06 -1.9499e+06 -51971.1 -1.42872e+06 -1.16209e+06
261 1 Mg 1.7825 151.244 5.24842 1.2 -7.13787 -4.25521e+06 4.82337e+06 890442 569538 -717302 714811
262 2 Si 3.95111 151.362 3.41471 2.4 -31.9451 4.22945e+06 8.11838e+06 8.29587e+06 -1.86815e+06 -1.15163e+06 -2.20464e+06
263 3 O 2.80503 152.431 3.60297 -1.2 -9.49125 -1.72797e+06 -1.55865e+06 -4.70652e+06 525682 1.02765e+06 -2.1117e+06
264 3 O 5.96936 148.666 4.89524 -1.2 -9.00347 -3.18531e+06 -4.42127e+06 -4.91853e+06 -840577 446051 -710057
265 3 O 4.81179 151.976 2.17471 -1.2 -9.57304 -2.52483e+06 -1.25536e+06 -1.99102e+06 1.61267e+06 939665 -794487
266 3 O 4.68849 151.124 4.80714 -1.2 -9.9883 -3.26724e+06 -4.54245e+06 -2.91368e+06 2188.05 -398256 -230786
267 1 Mg 4.72949 147.947 3.29403 1.2 -7.2276 -860554 2.18161e+06 997926 1.20798e+06 -886423 1.18209e+06
268 1 Mg 4.5745 145.099 4.69671 1.2 -8.13574 2.5212e+06 930498 1.36399e+06 -955281 786291 2.85661e+06
269 2 Si 6.64413 147.211 4.853 2.4 -33.5595 4.35829e+06 1.05024e+07 9.62767e+06 71009.5 -2.43846e+06 1.9714e+06
270 3 O 3.44007 147.296 4.76497 -1.2 -9.56555 -2.94618e+06 -2.02587e+06 -3.65532e+06 36646.8 -1.49925e+06 -675429
271 3 O 5.71247 143.213 4.48324 -1.2 -9.64239 -2.86836e+06 -3.76514e+06 -2.90327e+06 386956 -542532 -1.34225e+06
272 3 O 6.1354 146.433 3.54442 -1.2 -9.35792 -3.01482e+06 -1.84972e+06 -4.12045e+06 -183973 197509 24374.5