ITEM: TIMESTEP
92800
ITEM: NUMBER OF ATOMS
5600
ITEM: BOX BOUNDS xy xz yz pp pp pp
0.0000000000000000e+00 7.1234999999999999e+00 0.0000000000000000e+00
0.0000000000000000e+00 2.0198500000000001e+02 2.3744999999999998e+00
0.0000000000000000e+00 1.1958400000000000e+02 0.0000000000000000e+00
ITEM: ATOMS id type element xu yu zu q c_pe c_s[1] c_s[2] c_s[3] c_s[4] c_s[5] c_s[6]
1 1 Mg -1.38732 46.5707 -1.54758 1.2 -9.42685 2.9654e+06 -431253 2.27599e+06 837606 -595904 -30344.5
2 1 Mg 2.27759 49.4494 1.6748 1.2 -7.91411 1.19554e+06 4.90525e+06 -1.76797e+06 279994 -2.04379e+06 -1.32121e+06
3 2 Si 0.971082 48.547 -0.150001 2.4 -35.9611 1.47501e+07 6.63452e+06 7.58879e+06 -2.12752e+06 -141710 -4.47427e+06
4 3 O 2.17984 47.5353 -0.255442 -1.2 -6.37879 -6.87077e+06 703434 -6.17189e+06 -1.1397e+06 1.24008e+06 2.58841e+06
5 3 O -1.36716 51.4055 1.54311 -1.2 -9.1606 -862224 -4.5136e+06 -1.78629e+06 -211341 -574068 -116331
6 3 O -0.0321326 48.1659 -1.397 -1.2 -7.05782 -6.5768e+06 748916 -5558.51 1.3183e+06 754940 3.26803e+06
7 1 Mg -2.07292 57.588 2.97279 1.2 -7.41864 -2.77602e+06 4.61726e+06 -1.93845e+06 -759284 567030 2.53918e+06
8 3 O 0.409033 48.3663 1.27743 -1.2 -7.55028 -6.79363e+06 -2.90399e+06 -5.27417e+06 1.9584e+06 -1.47339e+06 1.17381e+06
9 1 Mg -2.21844 54.5796 4.46387 1.2 -7.82677 720953 1.58603e+06 2.33667e+06 1.39973e+06 -348210 831435
10 2 Si 0.575892 56.4045 4.42175 2.4 -32.2453 6.19066e+06 8.4398e+06 5.3176e+06 56325.9 -3.17724e+06 4.23323e+06
11 3 O -1.09986 56.5232 4.45978 -1.2 -9.61595 971924 -3.52962e+06 -2.76867e+06 181626 -1.51545e+06 -1.39454e+06
12 3 O 1.52602 52.6368 4.60132 -1.2 -9.07175 -4.99421e+06 -2.68736e+06 -4.19867e+06 -3.77218e+06 -342063 -2.94151e+06
13 3 O 1.19059 55.6217 3.11005 -1.2 -9.099 -1.65693e+06 -2.03188e+06 -1.07558e+06 -1.07668e+06 -285468 -569837
14 3 O 1.08474 55.68 5.60157 -1.2 -9.90824 -4.09678e+06 -5.34454e+06 -6.13961e+06 1.04631e+06 -58799.8 1.78886e+06
15 1 Mg 0.396462 52.2013 3.1995 1.2 -7.70621 -2.45289e+06 4.03732e+06 -2.86517e+06 603525 -1.83889e+06 -18936.7
16 1 Mg 0.339773 48.6402 3.12822 1.2 -8.12242 232374 2.23039e+06 -3.13655e+06 -1.05778e+06 1.32008e+06 1.34924e+06
17 2 Si 2.42557 50.8964 4.65024 2.4 -31.7124 7.07637e+06 9.01107e+06 6.57095e+06 -671332 4.13843e+06 84008.6
18 3 O -0.870327 51.2686 4.56056 -1.2 -9.56639 -3.26799e+06 -4.38155e+06 -5.20251e+06 1.44328e+06 2.16346e+06 762813
19 3 O 2.18085 47.8929 3.04378 -1.2 -6.38781 -2.82852e+06 792347 -4.82829e+06 1.29794e+06 -2.44249e+06 -374774
20 3 O 1.42311 50.5657 3.36071 -1.2 -8.90037 -1.93817e+06 -7.51198e+06 -3.05902e+06 1.56136e+06 3.16548e+06 -139438
21 1 Mg 0.0816601 52.0716 -0.0546008 1.2 -7.93644 -1.31416e+06 3.60287e+06 -1.32371e+06 1.22143e+06 1.61761e+06 -631148
22 3 O 1.89 49.9785 5.68308 -1.2 -10.837 -3.90471e+06 -5.97621e+06 -7.64552e+06 -841501 -2.27811e+06 654526
23 1 Mg 0.296166 54.9035 1.34376 1.2 -8.40202 2.1996e+06 1.72552e+06 292572 -98407.2 603891 1.31333e+06
24 2 Si -1.95794 52.8462 1.57775 2.4 -33.087 1.18866e+06 1.25169e+07 5.56906e+06 1.73998e+06 659161 -63728.2
25 3 O 1.3958 53.0934 1.50855 -1.2 -9.60127 -8.74399e+06 -4.5416e+06 -1.98521e+06 1.31519e+06 544000 -222643
26 3 O -0.86983 57.2255 1.31661 -1.2 -9.30607 -2.06444e+06 -5.94067e+06 -501171 2.23937e+06 -202213 608076
27 3 O -1.18092 53.6039 0.195291 -1.2 -8.56557 -3.65759e+06 -4.35249e+06 -3.9555e+06 1.51422e+06 -1.56838e+06 -503609
28 3 O -1.09158 53.7373 2.70598 -1.2 -8.73148 -1.86049e+06 -1.68079e+06 -1.3937e+06 592322 533689 396839
29 1 Mg -2.2011 57.7389 -0.037393 1.2 -7.44136 -3.24676e+06 5.33613e+06 -3.03122e+06 449816 -1.75367e+06 -897572
30 1 Mg 2.32997 60.5476 1.25848 1.2 -7.72093 485596 3.17657e+06 -2.54431e+06 651347 -777378 -154597
31 2 Si -0.0968822 58.6636 1.57657 2.4 -31.6586 6.35315e+06 1.48721e+07 5.75896e+06 -1.60944e+06 1.40388e+06 277883
32 3 O 1.45689 58.4821 1.68976 -1.2 -10.1933 -1.88661e+06 -4.76776e+06 -1.42611e+06 -737879 -662615 -909898
33 3 O -1.29185 62.4412 1.29601 -1.2 -9.70717 -617870 -1.07157e+06 -2.14544e+06 -2.31942e+06 339631 -1.39255e+06
34 3 O -0.878903 59.4177 0.208332 -1.2 -9.09756 63495.1 -6.54421e+06 2.3545e+06 -426451 2.09333e+06 57560.6
35 1 Mg -2.25439 67.7844 2.5864 1.2 -6.97053 -2.50008e+06 4.55267e+06 -2.14464e+06 -1.51976e+06 1.64171e+06 1.28957e+06
36 3 O -0.950173 59.3025 2.80663 -1.2 -9.86437 -438558 -4.02617e+06 -387986 -1.52403e+06 -1.55276e+06 -9257.69
37 1 Mg -2.39544 65.3472 4.17575 1.2 -7.63387 1.72061e+06 3.22721e+06 -1.79997e+06 648895 -579242 665504
38 2 Si 0.302874 67.3328 4.20365 2.4 -32.7286 2.59299e+06 1.44364e+07 4.69785e+06 -78122.9 919469 -1.48344e+06
39 3 O -1.20619 67.4325 4.2872 -1.2 -9.87392 -4.06564e+06 -5.82888e+06 -1.84843e+06 -867778 249430 1.33311e+06
40 3 O 1.31366 63.4403 4.18528 -1.2 -9.61741 -1.91889e+06 -3.78131e+06 -1.44148e+06 -1.74216e+06 -1.71837e+06 -150299
41 3 O 1.04996 66.5381 3.02049 -1.2 -9.76781 -3.32463e+06 -8.20571e+06 -3.06192e+06 -756821 -2.99982e+06 273650
42 3 O 1.0151 66.6951 5.56031 -1.2 -9.21949 -2.1409e+06 -4.40745e+06 1.01592e+06 -17855.3 1.46299e+06 395960
43 1 Mg 0.286405 62.7279 2.66763 1.2 -6.72699 -4.72049e+06 2.22637e+06 -2.52363e+06 3.15379e+06 -2.70413e+06 2.65927e+06
44 1 Mg 0.0436413 60.1705 4.52483 1.2 -6.7631 -599940 3.03471e+06 1.84845e+06 -405692 620325 457109
45 2 Si 2.18119 61.8725 4.14799 2.4 -30.3491 142142 1.4544e+07 6.68007e+06 -1.62817e+06 -825127 1.26259e+06
46 3 O -1.10007 61.9415 4.19914 -1.2 -10.6705 -2.21894e+06 -6.47706e+06 -3.29047e+06 -488712 1.8338e+06 -1.27749e+06
47 3 O 1.23375 57.8015 4.54279 -1.2 -9.73037 -3.28525e+06 -6.84015e+06 -2.99761e+06 352310 -39276.3 655395
48 3 O 1.34492 61.3235 2.83698 -1.2 -10.3304 -3.59382e+06 -8.39558e+06 561004 3.01395e+06 1.98597e+06 -702591
49 1 Mg -0.19406 63.0957 -0.11072 1.2 -6.677 -2.15078e+06 5.34792e+06 -6.11053e+06 977113 889471 -1.69093e+06
50 3 O 1.58701 61.3216 5.57071 -1.2 -10.347 -1.06047e+06 -5.01899e+06 1.65437e+06 114164 -398038 1.02905e+06
51 1 Mg 0.0910981 65.9242 1.46026 1.2 -7.7644 -2.17465e+06 2.5908e+06 281684 -1.2609e+06 -989027 -672705
52 2 Si -1.99108 64.1634 1.26358 2.4 -30.3362 5.19173e+06 1.56923e+07 5.95762e+06 352259 3.64915e+06 1.06574e+06
53 3 O 1.18088 64.0295 1.19731 -1.2 -10.5029 1.99481e+06 -5.15649e+06 -2.64163e+06 1.21528e+06 1.48353e+06 -219686
54 3 O -0.623323 67.8573 1.61789 -1.2 -9.35923 -4.15173e+06 -3.31686e+06 -959971 1.74404e+06 855729 -1.41801e+06
55 3 O -1.28182 64.9582 0.079177 -1.2 -10.0786 -3.57746e+06 -3.71025e+06 -633490 -389088 -2.21768e+06 -1.16841e+06
56 3 O -1.20447 64.871 2.58878 -1.2 -9.78734 -744175 -2.84138e+06 -1.00398e+06 303890 1.63153e+06 1.52539e+06
57 1 Mg -2.25959 68.7887 -0.34286 1.2 -7.11104 -1.88479e+06 4.93368e+06 -2.85085e+06 296779 -1.08635e+06 -551327
58 1 Mg 2.43623 71.4227 1.59943 1.2 -7.99606 993858 3.71626e+06 187084 1.2742e+06 -525685 935653
59 2 Si -0.0846103 69.5335 1.51047 2.4 -31.9297 5.2796e+06 1.64244e+07 6.00938e+06 -1.20258e+06 142597 182005
60 3 O 1.43742 69.2581 1.36708 -1.2 -9.98436 -598110 -5.66325e+06 -1.73433e+06 -2.7947e+06 -85412 -563716
61 3 O -1.24915 73.3986 1.68888 -1.2 -9.14006 113641 -986716 102419 836030 670640 497698
62 3 O -0.899977 70.2303 -0.00379151 -1.2 -9.03504 -1.58993e+06 -5.53803e+06 966321 -1.02398e+06 3.46818e+06 -1.16472e+06
63 1 Mg -2.26713 78.9524 2.83708 1.2 -7.79203 289491 3.55365e+06 804718 -1.23267e+06 1.4915e+06 1.66698e+06
64 3 O -0.805033 70.2858 2.64107 -1.2 -9.42071 -2.73785e+06 -5.8524e+06 156509 70248.6 -1.16589e+06 -426635
65 1 Mg -2.15139 76.1491 4.82849 1.2 -7.99213 1.52651e+06 4.66465e+06 -1.35097e+06 710491 877400 -373340
66 2 Si 0.48285 78.2151 4.65103 2.4 -33.6036 5.32924e+06 1.27911e+07 6.04259e+06 -1.16493e+06 -956972 -1.57632e+06
67 3 O -1.0406 78.2292 4.64485 -1.2 -9.23347 -3.39755e+06 -4.87164e+06 -1.63646e+06 345920 417909 -126191
68 3 O 1.68324 73.8505 4.67678 -1.2 -8.28579 -5.47982e+06 -9.9405e+06 -1.92453e+06 -1.2156e+06 470832 459040
69 3 O 1.12504 77.519 3.26336 -1.2 -9.08043 -1.47939e+06 -5.94347e+06 -649599 -786681 -1.29161e+06 -796945
70 3 O 1.1744 77.3265 5.87425 -1.2 -8.89369 -3.19096e+06 -2.8846e+06 1.07728e+06 -986818 971441 -14427.5
71 1 Mg 0.126728 73.9025 3.53241 1.2 -7.57335 463760 5.04759e+06 -2.23877e+06 1.1148e+06 -1.67998e+06 1.5029e+06
72 1 Mg 0.148129 70.6186 4.41363 1.2 -8.24479 -628266 3.10652e+06 -1.9996e+06 -686526 1.31976e+06 1.36536e+06
73 2 Si 2.31928 72.3939 4.71875 2.4 -34.563 6.66038e+06 1.08193e+07 4.17634e+06 145719 154482 -163802
74 3 O -0.952685 72.6579 4.75835 -1.2 -8.78064 -7.4152e+06 -6.11313e+06 -1.49554e+06 3.12792e+06 -1.24839e+06 1.04606e+06
75 3 O 0.913912 68.7748 4.19865 -1.2 -9.52101 -2.98611e+06 -9.49936e+06 -603516 536178 136967 1.51658e+06
76 3 O 1.62134 71.8199 3.41359 -1.2 -8.61464 -3.21451e+06 -6.47496e+06 -925103 -145941 1.5275e+06 -2.69399e+06
77 1 Mg 0.593871 73.7469 0.450937 1.2 -6.91723 -566730 4.17479e+06 -3.18661e+06 2.18894e+06 1.95039e+06 -2.12123e+06
78 3 O 1.4355 71.8798 5.92543 -1.2 -8.29334 -4.45963e+06 -8.40446e+06 -2.68214e+06 -609685 -376272 4.56589e+06
79 1 Mg 0.370837 76.8076 1.63117 1.2 -7.93082 -66502.8 2.6241e+06 1.45295e+06 -1.61698e+06 40629.1 -1.69317e+06
80 2 Si -1.75143 75.0459 1.9171 2.4 -32.3232 2.30194e+06 1.53714e+07 6.607e+06 -809569 -915469 -1.81464e+06
81 3 O 1.43443 74.9214 1.84252 -1.2 -9.89384 -436183 -5.11912e+06 -2.24379e+06 1.35618e+06 -315771 273468
82 3 O -0.909738 78.9774 1.34215 -1.2 -8.64683 -3.8936e+06 -5.50001e+06 -2.36778e+06 693097 144934 -1.72388e+06
83 3 O -1.17393 75.9579 0.653971 -1.2 -9.23733 -1.91368e+06 -4.20874e+06 3.90649e+06 -904515 372722 -438731
84 3 O -1.21017 75.4363 3.34115 -1.2 -9.6496 -2.9842e+06 -5.91361e+06 -528792 -1.56937e+06 592860 -148431
85 1 Mg -2.0947 79.709 -0.177295 1.2 -7.97804 146681 3.54173e+06 -2.11688e+06 -1.49859e+06 -1.62444e+06 -1.69181e+06
86 1 Mg 2.27351 82.2154 1.73392 1.2 -7.71555 74597.3 2.4576e+06 617451 521860 555406 -1.25097e+06
87 2 Si -0.252083 80.42 1.56689 2.4 -33.5215 6.4792e+06 1.03604e+07 7.671e+06 -1.0712e+06 138652 1.16757e+06
88 3 O 1.40742 80.2637 1.49805 -1.2 -9.17979 -1.18166e+06 -2.9748e+06 -2.81924e+06 -883314 -241812 -1.56206e+06
89 3 O -1.44498 83.9629 1.65984 -1.2 -9.76424 -2.02357e+06 -4.12498e+06 -1.76902e+06 -755761 -576218 140393
90 3 O -0.851769 81.1733 0.261679 -1.2 -9.17709 -2.13539e+06 -6.64326e+06 739688 -272015 804948 -172437
91 1 Mg -2.48849 89.996 2.70304 1.2 -7.50176 -2.07674e+06 4.39714e+06 -1.3816e+06 -1.25329e+06 1.81838e+06 2.77229e+06
92 3 O -0.660521 80.9154 2.94687 -1.2 -8.93135 -3.47877e+06 -4.08303e+06 -2.09322e+06 547907 469886 -2.15795e+06
93 1 Mg -2.10848 87.1289 4.47691 1.2 -7.63433 627884 3.78655e+06 1.09346e+06 729305 -525738 -1.02333e+06
94 2 Si 0.409417 89.0258 4.29426 2.4 -31.6146 4.1545e+06 1.15401e+07 6.28842e+06 -1.27582e+06 -927479 767611
95 3 O -1.07523 89.1701 4.4187 -1.2 -9.79472 -2.76413e+06 -3.7005e+06 -2.34309e+06 -1.45928e+06 -1.30106e+06 1.41703e+06
96 3 O 1.60882 84.992 4.98342 -1.2 -9.26058 -87537.5 -5.60708e+06 -834044 -1.32697e+06 916766 71074.8
97 3 O 1.26571 88.2929 2.85607 -1.2 -9.53426 -494983 -1.51682e+06 -202098 -1.42321e+06 -1.78126e+06 878030
98 3 O 1.03935 88.3633 5.51456 -1.2 -9.46165 -4.42906e+06 -6.10047e+06 -447788 208961 -390885 1.85553e+06
99 1 Mg 0.0198152 84.295 3.0333 1.2 -6.54891 -1.85287e+06 6.05413e+06 -1.03363e+06 1.21196e+06 -1.17207e+06 1.13821e+06
100 1 Mg 0.126596 81.5621 4.72064 1.2 -8.69384 2.14211e+06 1.42893e+06 -324221 -1.19373e+06 901837 2.45992e+06
101 2 Si 2.21028 83.4413 4.71408 2.4 -32.7438 3.84715e+06 1.66803e+07 6.42561e+06 -1.51001e+06 -586173 1.21474e+06
102 3 O -0.990572 83.3375 4.6678 -1.2 -9.78638 -1.91875e+06 -6.46647e+06 -3.25616e+06 -7417.29 8271.61 -166410
103 3 O 1.21736 79.5601 4.54545 -1.2 -9.00636 -4.31242e+06 -7.85708e+06 -2.23571e+06 274207 -2.02877e+06 -907438
104 3 O 1.52451 82.8236 3.38632 -1.2 -9.73888 -3.20748e+06 -3.39398e+06 -1.78751e+06 -630780 1.78591e+06 244696
105 1 Mg 0.0645843 84.7857 0.0548186 1.2 -6.90584 -2.74718e+06 5.49855e+06 -3.69514e+06 1.29152e+06 1.17714e+06 -2.07886e+06
106 3 O 1.50312 82.6852 6.00231 -1.2 -8.08148 -4.4325e+06 -5.92871e+06 2.85873e+06 826418 -835377 -1.12059e+06
107 1 Mg 0.378033 87.2235 1.5072 1.2 -7.79438 980845 638621 362868 181349 -375714 -1.56618e+06
108 2 Si -1.94179 85.5757 1.74488 2.4 -31.3166 1.31793e+06 1.70404e+07 2.93237e+06 904991 206375 -1.5667e+06
109 3 O 1.20124 85.4571 1.64407 -1.2 -10.5327 35352.1 -8.09294e+06 -374840 2.18432e+06 1.84929e+06 -218889
110 3 O -1.03949 89.7734 1.38882 -1.2 -8.60265 -546684 -4.33539e+06 -1.79824e+06 2.06367e+06 1.07799e+06 -2.99357e+06
111 3 O -1.3871 86.3173 0.43669 -1.2 -9.44427 -1.11643e+06 -5.95001e+06 1.03742e+06 -67488.7 -252048 -258849
112 3 O -1.17021 86.1818 2.91771 -1.2 -10.3679 -811748 -3.5219e+06 -3.1652e+06 320559 -204705 376103
113 1 Mg -2.33804 90.5191 -0.172526 1.2 -8.06292 -812721 5.76575e+06 -4.42029e+06 -2.29607e+06 -2.79653e+06 289714
114 1 Mg 2.21076 93.1205 1.87344 1.2 -8.62088 185267 2.84868e+06 -1.03918e+06 783439 1.08928e+06 303849
115 2 Si -0.29804 91.2727 1.40093 2.4 -32.7537 8.21692e+06 1.65326e+07 5.90327e+06 966538 -901646 1.88096e+06
116 3 O 1.31391 91.3415 1.41574 -1.2 -9.60747 -529583 -6.0153e+06 -2.03156e+06 -244111 -853715 -908514
117 3 O -1.64041 95.0902 1.73195 -1.2 -8.26235 -649710 -3.84763e+06 -1.9123e+06 -3.45208e+06 63240.9 -1.03696e+06
118 3 O -1.00157 92.0091 0.00141274 -1.2 -8.71865 -3.84353e+06 -6.76752e+06 2.65074e+06 77564.8 3.11412e+06 -2.36675e+06
119 1 Mg -2.53885 100.831 2.82131 1.2 -8.19376 -540215 4.20158e+06 -3.72382e+06 -145140 1.48868e+06 -334242
120 3 O -1.05822 91.8482 2.7119 -1.2 -9.50997 -2.40603e+06 -6.10709e+06 -1.51642e+06 -797292 -2.93622e+06 -2.29241e+06
121 1 Mg -2.56073 97.9685 4.85056 1.2 -8.48872 1.73987e+06 2.78924e+06 -1.33898e+06 2.22943e+06 -1.18659e+06 880920
122 2 Si 0.359437 99.9885 4.70516 2.4 -34.9764 1.0127e+07 9.14325e+06 -1.75362e+06 830920 -556082 1.86908e+06
123 3 O -1.26595 100.103 4.4538 -1.2 -7.66594 -2.99215e+06 -4.49229e+06 -1.27829e+06 -922220 1.62424e+06 -733315
124 3 O 1.16932 95.9452 4.75293 -1.2 -9.27243 -903799 -4.03298e+06 -1.63203e+06 -596923 92917.9 -1.26574e+06
125 3 O 0.793673 99.197 3.42077 -1.2 -8.18734 -7.84073e+06 -6.35294e+06 -1.63685e+06 946056 -568446 -2.64294e+06
126 3 O 0.913196 99.4214 5.87759 -1.2 -8.93526 -6.67359e+06 -5.09744e+06 -8.44176e+06 2.59899e+06 -2.31735e+06 4.22787e+06
127 1 Mg -0.142564 95.5153 3.13006 1.2 -7.58321 540965 6.02875e+06 -1.84934e+06 719346 -90186.1 2.59476e+06
128 1 Mg -0.170206 92.2561 4.29998 1.2 -7.6895 -461939 2.90774e+06 -2.17143e+06 -553309 -300140 1.10095e+06
129 2 Si 1.8209 94.4209 4.74451 2.4 -33.1998 4.34094e+06 1.18998e+07 5.8216e+06 -519.17 -1.27198e+06 2.07014e+06
130 3 O -1.43309 94.4314 4.74485 -1.2 -9.33205 -4.58162e+06 -3.84324e+06 -4.56797e+06 1.15825e+06 -2.0276e+06 -1.29281e+06
131 3 O 1.01595 90.5732 4.26777 -1.2 -10.0679 -3.57719e+06 -4.39105e+06 -1.37578e+06 1.00754e+06 263800 989662
132 3 O 1.29825 93.8423 3.34735 -1.2 -9.03281 -3.9364e+06 -3.67947e+06 -4.07511e+06 -766442 1.81257e+06 -2.23894e+06
133 1 Mg -0.0863219 95.602 0.315108 1.2 -7.71797 839922 5.50793e+06 -1.15369e+06 -124891 406681 157894
134 3 O 1.0627 93.5962 5.88492 -1.2 -9.2344 -3.83154e+06 -2.89703e+06 -2.20164e+06 -1.1316e+06 -814732 -263631
135 1 Mg -0.0763183 98.6061 1.83397 1.2 -8.4746 224458 2.41038e+06 1.11753e+06 -462883 -746633 122995
136 2 Si -2.37576 96.761 1.71356 2.4 -32.9429 4.81615e+06 1.58183e+07 4.31211e+06 -626402 -480565 5.16533e+06
137 3 O 0.865169 96.7337 1.82989 -1.2 -9.98566 -5.11816e+06 -4.86241e+06 -1.3736e+06 1.39479e+06 -850868 -2.09302e+06
138 3 O -1.18956 100.384 1.6 -1.2 -8.61004 -3.58053e+06 -9.64365e+06 -5.13577e+06 1.67981e+06 836824 643353
139 3 O -1.58781 97.1676 0.462505 -1.2 -9.29332 -710279 -7.23996e+06 -2.69199e+06 -1.44601e+06 -656149 146646
140 3 O -1.6238 97.4546 3.00484 -1.2 -8.52199 -3.16246e+06 -4.18209e+06 1.62382e+06 26159.4 1.38688e+06 -1.89738e+06
141 1 Mg -2.83523 100.551 0.174248 1.2 -7.94551 -1.27657e+06 4.64044e+06 -1.37503e+06 226897 354550 -1.22111e+06
142 1 Mg 6.83585 103.83 1.28513 1.2 -8.48456 3.12421e+06 3.81092e+06 -178659 381334 -990299 178019
143 2 Si -0.492845 101.794 1.43076 2.4 -34.2365 5.57474e+06 1.14128e+07 3.69096e+06 -306275 3.0681e+06 -1.68625e+06
144 3 O 1.0063 101.636 1.60328 -1.2 -9.22015 -8.1439e+06 -4.86868e+06 -3.09078e+06 -447165 1.58138e+06 427846
145 3 O 3.31066 105.873 1.15194 -1.2 -8.94568 -4.95276e+06 -6.39534e+06 -518823 1.18315e+06 -58478.9 -529330
146 3 O -1.42638 102.374 0.215249 -1.2 -8.19699 -1.86992e+06 -5.89312e+06 -5.93354e+06 -1.60151e+06 959650 642246
147 1 Mg 2.04524 111.991 3.07227 1.2 -8.13026 35275.9 3.66378e+06 -539848 -773774 1.03613e+06 1.79561e+06
148 3 O -1.12433 102.66 2.50635 -1.2 -8.3146 -4.64463e+06 -6.69916e+06 -5.71087e+06 -435422 -1.62295e+06 -1.45331e+06
149 1 Mg 2.16998 108.616 4.50613 1.2 -8.6548 3.39279e+06 1.71165e+06 1.1001e+06 818798 -142263 157362
150 2 Si 4.90469 110.599 4.53294 2.4 -34.2631 7.09424e+06 1.25577e+07 4.20188e+06 2.08296e+06 -129363 1.69968e+06
151 3 O 3.37061 110.576 4.67286 -1.2 -8.73855 -3.79504e+06 -4.71858e+06 -1.30977e+06 1.03575e+06 469942 -328657
152 3 O 6.13086 106.781 4.33569 -1.2 -9.19528 -2.34907e+06 -4.36705e+06 618782 -1.67301e+06 -54509.5 -92807.5
153 3 O 5.42498 110.281 3.10911 -1.2 -8.21797 -2.49028e+06 -3.39729e+06 -1.62268e+06 -76020.3 378800 -329575
154 3 O 5.57728 109.758 5.62593 -1.2 -8.92439 -5.79203e+06 -5.47038e+06 -862188 -495250 -581345 1.53049e+06
155 1 Mg 4.58409 106.298 2.75731 1.2 -7.87432 -1.50332e+06 7.10393e+06 -1.39632e+06 385251 -1.00563e+06 2.47598e+06
156 1 Mg -0.474119 103.313 4.18315 1.2 -8.3062 1.38346e+06 3.524e+06 -333082 -176515 -670168 -1.31856e+06
157 2 Si 6.71665 105.233 4.30329 2.4 -32.1907 6.81717e+06 1.71246e+07 4.18231e+06 1.07849e+06 1.5785e+06 -535823
158 3 O 3.57121 105.283 4.33905 -1.2 -10.0154 -340044 -6.27962e+06 489917 1.52663e+06 1.58812e+06 865999
159 3 O 0.848738 101.463 4.52003 -1.2 -8.30023 -3.99179e+06 -7.26411e+06 -408627 -1.35872e+06 131960 142186
160 3 O 5.87673 104.561 3.03767 -1.2 -9.17432 -508850 -5.41332e+06 2.04288e+06 965992 1.56681e+06 284898
161 1 Mg 4.68206 106.513 -0.233713 1.2 -7.93902 -1.3292e+06 7.18358e+06 -5.73614e+06 1.00388e+06 3.21004e+06 -907924
162 3 O 6.12815 104.617 5.75021 -1.2 -9.3917 -2.86713e+06 -6.27199e+06 1.299e+06 168556 -1.78226e+06 825207
163 1 Mg 4.01234 109.493 1.21272 1.2 -8.59328 1.24513e+06 704528 -537914 -1.66489e+06 1.24617e+06 -197221
164 2 Si 2.53277 107.21 1.33763 2.4 -33.1411 3.02991e+06 1.3959e+07 4.29462e+06 284962 -183067 3.73829e+06
165 3 O 5.86694 106.969 1.34996 -1.2 -9.13376 -7.68934e+06 -8.68086e+06 -1.11284e+06 -106962 967630 -271850
166 3 O 3.53553 111.52 1.07624 -1.2 -8.11145 -4.93722e+06 -6.0967e+06 -3.05462e+06 1.40512e+06 -813380 -603746
167 3 O 3.13541 108.186 0.121397 -1.2 -8.66432 -5.29366e+06 -6.76635e+06 -1.90096e+06 -1.27636e+06 -2.22588e+06 -57689
168 3 O 3.26654 108.081 2.7199 -1.2 -8.55355 -2.13999e+06 -928345 1.70232e+06 -236109 822263 1.17862e+06
169 1 Mg 1.87611 111.679 0.108767 1.2 -7.88295 -737440 3.59839e+06 -4.77507e+06 132069 -2.90066e+06 -1.72152e+06
170 1 Mg 6.67442 114.92 1.69714 1.2 -8.46086 2.21711e+06 1.8379e+06 611828 742716 302190 -985939
171 2 Si 4.17168 112.982 1.57827 2.4 -34.5159 6.7789e+06 1.36019e+07 2.37812e+06 -515320 3.34107e+06 -1.09618e+06
172 3 O 5.77866 112.729 1.55533 -1.2 -8.88797 -3.85492e+06 -5.06638e+06 -2.47019e+06 -867854 -135908 18180.8
173 3 O 3.14837 116.728 1.72374 -1.2 -8.87733 -5.0447e+06 -3.67129e+06 -2.3143e+06 -675096 -1.50184e+06 -448561
174 3 O 3.6864 113.976 0.365223 -1.2 -8.21285 -1.74217e+06 -4.49498e+06 207556 -122691 -84944.7 1.0618e+06
175 1 Mg 1.92351 121.952 2.73629 1.2 -7.78457 1.86821e+06 4.96502e+06 394660 -808666 438977 776896
176 3 O 3.54884 113.251 2.8244 -1.2 -8.73386 -5.22106e+06 -6.00409e+06 -7.02217e+06 156059 1.99358e+06 -3.0054e+06
177 1 Mg 2.00293 119.408 4.80394 1.2 -8.96864 1.7285e+06 1.36087e+06 -1.57162e+06 988448 -1.16087e+06 758582
178 2 Si 4.53777 121.147 4.56931 2.4 -34.9889 8.06714e+06 1.54479e+07 4.30855e+06 1.51275e+06 -108108 -1.41053e+06
179 3 O 2.98109 121.16 4.59672 -1.2 -8.66828 -4.89562e+06 -7.99129e+06 -2.28802e+06 588496 -663865 -1.23896e+06
180 3 O 5.78244 117.242 4.73729 -1.2 -8.55814 -1.28206e+06 -2.53334e+06 -521427 -2.15252e+06 417903 -2.36853e+06
181 3 O 5.29083 120.494 3.34857 -1.2 -8.32395 -4.57619e+06 -6.39288e+06 -1.62196e+06 226327 -1.59757e+06 -1.25636e+06
182 3 O 5.05903 120.3 5.85325 -1.2 -7.90414 -6.27729e+06 -5.00336e+06 -4.81442e+06 -1.48761e+06 2.78543e+06 -407.286
183 1 Mg 4.20685 117.508 3.39817 1.2 -7.89853 -459911 4.03121e+06 408627 1.88531e+06 -1.51711e+06 2.04337e+06
184 1 Mg 4.534 113.774 4.72687 1.2 -9.00684 3.27311e+06 -880475 521649 -1.12977e+06 683811 -313700
185 2 Si 6.54486 115.712 4.6702 2.4 -34.131 7.98547e+06 1.50925e+07 5.39284e+06 -2.30487e+06 1.13118e+06 -867106
186 3 O 3.31445 115.639 4.70484 -1.2 -8.93142 -4.35227e+06 -4.38217e+06 -3.14198e+06 -1.00551e+06 317455 -142628
187 3 O 5.66176 112.161 4.81409 -1.2 -8.47776 -2.52278e+06 -5.45885e+06 -2.24809e+06 1.37856e+06 -900472 -1.61156e+06
188 3 O 5.86424 115.04 3.36931 -1.2 -8.38701 -4.69046e+06 -3.30063e+06 -2.15039e+06 1.30224e+06 1.30079e+06 -31733
189 1 Mg 4.53265 116.826 0.28484 1.2 -8.09578 -881375 2.61661e+06 -46331.2 1.74889e+06 1.51964e+06 -403485
190 3 O 5.82481 114.877 5.93295 -1.2 -8.42016 -5.70697e+06 -5.48927e+06 -28914 2.2815e+06 -1.18708e+06 -1.068e+06
191 1 Mg 4.44245 120.137 1.40148 1.2 -8.08211 125709 507072 1.43738e+06 -642020 595245 394188
192 2 Si 2.43662 118.196 1.67661 2.4 -33.3722 7.85098e+06 1.07606e+07 5.92148e+06 -36046.1 -587370 3.20438e+06
193 3 O 5.54704 118.035 1.62895 -1.2 -8.95322 -21952.7 -4.73725e+06 -1.40229e+06 -110031 402637 -1.15757e+06
194 3 O 3.71287 121.875 1.60721 -1.2 -9.15916 -1.73788e+06 -2.21417e+06 -2.78517e+06 1.32323e+06 688113 -1.83107e+06
195 3 O 2.9295 118.89 0.408615 -1.2 -9.55799 -3.0787e+06 -5.07126e+06 -955428 -102081 415397 127773
196 3 O 2.95849 118.908 3.04012 -1.2 -8.83462 -4.89012e+06 -5.37957e+06 -757057 552851 425996 -1.9615e+06
197 1 Mg 2.1474 122.718 -0.190733 1.2 -7.12833 -290468 2.90477e+06 53079.1 -1.01139e+06 -2.09038e+06 -1.70283e+06
198 1 Mg 6.74035 125.319 1.53641 1.2 -8.55434 1.56165e+06 449748 1.43155e+06 1.64151e+06 -701580 -1.21587e+06
199 2 Si 4.14154 123.544 1.55421 2.4 -32.7003 4.46687e+06 1.275e+07 1.15029e+07 -407857 52503.7 -2.61491e+06
200 3 O 5.67028 123.474 1.52919 -1.2 -9.64922 -1.05091e+06 -3.80551e+06 -3.19278e+06 -2.65464e+06 -259224 424932
201 3 O 3.11288 127.245 1.53783 -1.2 -8.63581 -1.67409e+06 -3.50297e+06 -2.74379e+06 -2.77292e+06 137394 649458
202 3 O 3.40936 124.277 0.070086 -1.2 -9.15759 -2.74864e+06 -2.33957e+06 1.72272e+06 -421563 1.70684e+06 -2.14671e+06
203 1 Mg 1.95938 133.22 2.81599 1.2 -9.06313 686182 2.42921e+06 -200072 -989656 1.55335e+06 1.67929e+06
204 3 O 3.41369 124.144 2.83097 -1.2 -8.80785 -4.42867e+06 -2.53437e+06 314378 341961 -479858 1.06585e+06
205 1 Mg 1.86816 130.022 4.48269 1.2 -8.69548 2.6222e+06 -640864 3.14039e+06 573522 -822343 -1.02363e+06
206 2 Si 4.6344 132.097 4.30803 2.4 -33.9381 8.0041e+06 8.98574e+06 1.23227e+07 906234 -2.08498e+06 -1.34014e+06
207 3 O 3.16263 132.247 4.27423 -1.2 -8.59657 -4.37038e+06 -3.35863e+06 -4.11e+06 288349 -1.85007e+06 605380
208 3 O 5.71045 128.271 4.52697 -1.2 -9.4145 -4.79226e+06 -7.71195e+06 -3.5257e+06 -905694 -245629 773753
209 3 O 5.50591 131.557 2.68997 -1.2 -7.41994 -2.96877e+06 -2.55967e+06 1.4114e+06 -271801 -2.41106e+06 1.43693e+06
210 3 O 5.12387 131.269 5.57875 -1.2 -8.60233 -5.50627e+06 -2.61144e+06 7178.31 172128 -1.76372e+06 674419
211 1 Mg 4.347 127.742 3.00977 1.2 -7.8947 -1.92731e+06 5.72225e+06 -1.00695e+06 606372 -2.09063e+06 220376
212 1 Mg 4.08204 124.915 4.52366 1.2 -9.03651 4.17016e+06 1.78632e+06 184845 -328282 -128541 -35553.2
213 2 Si 6.3478 126.865 4.35042 2.4 -33.5809 6.0715e+06 1.26397e+07 6.47961e+06 2.30916e+06 -842676 -2.16553e+06
214 3 O 3.19166 126.848 4.50632 -1.2 -9.35959 -2.46833e+06 -4.65992e+06 -2.90434e+06 -101857 -351890 374757
215 3 O 5.29912 122.622 4.55075 -1.2 -7.91063 -3.1973e+06 -4.98675e+06 -535334 1.4697e+06 -1.04695e+06 -1.32972e+06
216 3 O 5.7865 126.112 3.10419 -1.2 -8.71557 -3.48373e+06 -2.72633e+06 -4.97051e+06 -60317.7 589151 1.807e+06
217 1 Mg 4.47308 127.632 0.0195444 1.2 -8.11821 -1.17609e+06 4.37696e+06 -482552 741108 1.94457e+06 -2.08159e+06
218 3 O 5.58805 125.919 5.58114 -1.2 -7.75619 -2.36282e+06 -1.14435e+06 -227345 1.74031e+06 -1.01807e+06 -1.33623e+06
219 1 Mg 4.36342 131.083 1.14795 1.2 -8.91739 3.04109e+06 2.08654e+06 -1.41383e+06 -442008 1.91215e+06 358759
220 2 Si 2.27567 128.786 1.51894 2.4 -33.6248 8.28084e+06 1.27994e+07 6.7805e+06 -1.21809e+06 -1.66865e+06 45869
221 3 O 5.54185 128.765 1.54682 -1.2 -9.12754 -5.35254e+06 -4.37415e+06 -961641 -30372.8 -1.09593e+06 -380917
222 3 O 3.33691 132.868 1.30549 -1.2 -7.86259 -6.132e+06 -2.40496e+06 -4.14456e+06 28605 -762125 1.04997e+06
223 3 O 3.1307 129.359 0.0732536 -1.2 -8.40995 -207561 -3.02961e+06 -532367 1.34205e+06 -2.21329e+06 -212685
224 3 O 2.97618 129.459 2.7739 -1.2 -8.48271 -4.18094e+06 -2.71695e+06 -560941 967445 717089 49729.7
225 1 Mg 2.08054 133.344 -0.180583 1.2 -8.4529 262068 3.22832e+06 -261172 -1.54149e+06 -2.81416e+06 -3.46124e+06
226 1 Mg 6.42695 136.148 1.60799 1.2 -8.5636 2.3774e+06 464567 1.2895e+06 1.03356e+06 542172 -1.33549e+06
227 2 Si 3.92331 134.478 1.44653 2.4 -34.6519 6.87931e+06 1.03533e+07 6.70211e+06 -811583 983339 -3.41962e+06
228 3 O 5.45818 134.216 1.48976 -1.2 -8.56505 -4.46785e+06 -3.72564e+06 -3.95475e+06 -1.70229e+06 1.22952e+06 2.30219e+06
229 3 O 3.03189 137.845 1.70176 -1.2 -8.38427 -929015 -2.85148e+06 -2.34333e+06 -2.00495e+06 471434 247799
230 3 O 3.16511 135.12 0.165352 -1.2 -8.5579 -2.983e+06 -4.21783e+06 -1.16956e+06 -107462 651190 2.55357e+06
231 1 Mg 1.57728 143.694 3.29719 1.2 -7.37674 -1.95475e+06 2.33287e+06 -3.07624e+06 450364 3.52942e+06 50768.1
232 3 O 3.31623 134.867 2.74545 -1.2 -8.48508 -3.81652e+06 -5.60533e+06 -5.11493e+06 658298 1.39451e+06 -1.36636e+06
233 1 Mg 2.08589 140.553 4.7178 1.2 -7.49505 1.72442e+06 83975.9 -920464 272923 -1.4571e+06 1.10176e+06
234 2 Si 4.38137 142.689 4.6198 2.4 -32.0411 3.90157e+06 1.04027e+07 1.08639e+07 -3.50972e+06 2.11e+06 -2.27672e+06
235 3 O 2.90115 142.779 4.44088 -1.2 -9.68504 -3.18023e+06 -3.2144e+06 -6.10903e+06 -305791 1.13204e+06 913584
236 3 O 5.4802 138.936 4.66683 -1.2 -10.5802 1.04444e+06 -6.12045e+06 -3.84137e+06 -308581 1.09582e+06 -374321
237 3 O 5.04023 141.662 3.59202 -1.2 -9.00739 -3.73125e+06 -1.53332e+06 -8.37242e+06 -148501 -2.46028e+06 416657
238 3 O 5.25123 141.948 6.03786 -1.2 -8.76145 -1.42451e+06 -1.49224e+06 -2.62018e+06 -1.84085e+06 2.17444e+06 -2.79975e+06
239 1 Mg 4.2466 138.633 3.05599 1.2 -7.28086 -3.16302e+06 4.88337e+06 -1.38848e+06 1.87237e+06 -1.66392e+06 1.33368e+06
240 1 Mg 4.18337 135.362 4.61627 1.2 -8.7275 3.42612e+06 -598762 3.66425e+06 -1.14594e+06 378487 -329579
241 2 Si 6.14314 137.487 4.49523 2.4 -31.7262 3.46916e+06 1.05007e+07 1.01016e+07 -1.23054e+06 -671761 -2.79903e+06
242 3 O 2.90534 137.158 4.56281 -1.2 -9.50662 -744183 -926686 -6.52225e+06 -1.02728e+06 664001 1.00962e+06
243 3 O 5.44977 133.556 4.42832 -1.2 -8.52151 -5.22974e+06 -442940 -5.83322e+06 1.65803e+06 -696730 639595
244 3 O 5.52519 136.979 3.11691 -1.2 -9.17935 -6.26557e+06 -2.41463e+06 -2.30134e+06 261461 -24003 1.78524e+06
245 1 Mg 4.34966 138.541 0.211176 1.2 -8.24528 -2.09711e+06 4.57284e+06 -1.10769e+06 -153435 -1.09874e+06 -2.75781e+06
246 3 O 5.53437 136.519 5.81257 -1.2 -8.99404 -3.69533e+06 1.0725e+06 -482166 36408.6 707254 -1.53273e+06
247 1 Mg 4.38486 141.393 1.94882 1.2 -8.16464 1.41614e+06 2.06929e+06 -2.473e+06 -1.14765e+06 -1.24053e+06 -422478
248 2 Si 2.10638 139.486 1.5671 2.4 -32.5146 3.71214e+06 1.39737e+07 5.78894e+06 -1.02945e+06 -207291 -2.44813e+06
249 3 O 5.3908 139.418 1.4508 -1.2 -9.70147 -6.40278e+06 -6.41582e+06 -5.35225e+06 -1.12282e+06 -2.4378e+06 718640
250 3 O 3.38101 143.617 1.93123 -1.2 -7.53271 -1.12755e+06 -1.85362e+06 -5.09271e+06 808509 18452 -353592
251 3 O 3.03446 140.262 0.446742 -1.2 -8.70313 -4.39818e+06 -2.49602e+06 -2.86126e+06 1.98524e+06 -2.09338e+06 -142952
252 3 O 2.77752 139.986 2.86914 -1.2 -9.60404 -3.11572e+06 -6.42441e+06 -4.21611e+06 59087.5 1.27758e+06 -1.17161e+06
253 1 Mg 2.00393 144.058 0.532882 1.2 -8.86661 -838321 3.19004e+06 -2.92479e+06 -1.29744e+06 -3.39837e+06 -625408
254 1 Mg 6.48169 147.408 3.12434 1.2 -7.19498 559134 2.05838e+06 3.75229e+06 -799630 1.65475e+06 1.19429e+06
255 2 Si 3.907 145.39 1.90292 2.4 -34.3202 1.06877e+07 8.34529e+06 6.76886e+06 74575.5 -498826 -1.17902e+06
256 3 O 5.46758 145.188 2.06686 -1.2 -8.50862 -4.04587e+06 -335695 -4.38655e+06 -2.9192e+06 1.81211e+06 828901
257 3 O 2.92096 149.245 3.6043 -1.2 -10.2491 -4.2442e+06 -3.19556e+06 -1.88e+06 -970620 631978 395158
258 3 O 3.124 145.767 0.616171 -1.2 -8.19015 -4.1059e+06 -3.1522e+06 -2.00443e+06 796348 776662 321816
259 1 Mg 0.912254 154.456 3.80078 1.2 -6.86742 -1.01881e+06 -446777 -521234 1.67291e+06 -118635 528007
260 3 O 3.29768 145.761 3.23898 -1.2 -9.16519 -3.24434e+06 -2.9396e+06 -6.17171e+06 1.30226e+06 -677061 -2.53531e+06
261 1 Mg 0.84552 154.109 7.53157 1.2 -6.83707 -1.09979e+06 341419 1.27481e+06 2.17184e+06 98859.6 1.75728e+06
262 2 Si 2.8662 153.195 5.19461 2.4 -31.7078 8.32838e+06 8.66903e+06 1.00788e+07 2.02384e+06 -1.64641e+06 2.00424e+06
263 3 O 1.78809 154.169 5.58356 -1.2 -9.91454 -3.87271e+06 -2.9809e+06 -465240 -1.13007e+06 107398 -37233.3
264 3 O 5.42243 149.929 6.35678 -1.2 -9.72728 -2.93889e+06 -2.76607e+06 -3.19914e+06 -2.85631e+06 -1.94103e+06 351542
265 3 O 3.78243 153.741 3.7898 -1.2 -8.98011 -1.01612e+06 -3.01348e+06 -3.85728e+06 619644 -2.17792e+06 -1.79128e+06
266 3 O 4.07898 153.05 6.3512 -1.2 -9.3935 -1.54559e+06 -2.1063e+06 -622395 586515 2.71235e+06 642075
267 1 Mg 4.03938 149.778 5.1965 1.2 -6.8504 -3.92521e+06 2.16704e+06 633628 870136 -3.67839e+06 -276194
268 1 Mg 4.54785 146.067 4.69258 1.2 -7.4104 1.16176e+06 -769518 1.88617e+06 515059 -964581 2.27246e+06