ITEM: TIMESTEP
19300
ITEM: NUMBER OF ATOMS
5600
ITEM: BOX BOUNDS xy xz yz pp pp pp
0.0000000000000000e+00 7.1234999999999999e+00 0.0000000000000000e+00
0.0000000000000000e+00 2.0198500000000001e+02 2.3744999999999998e+00
0.0000000000000000e+00 1.1958400000000000e+02 0.0000000000000000e+00
ITEM: ATOMS id type element xu yu zu q c_pe c_s[1] c_s[2] c_s[3] c_s[4] c_s[5] c_s[6]
1 1 Mg -1.26212 49.4435 -0.803451 1.2 -7.3345 -2.20677e+06 -1.68055e+06 1.75579e+06 -5405.61 35283.1 65251.1
2 1 Mg 3.15842 51.7117 2.09026 1.2 -7.75579 -1.37601e+06 3.94232e+06 940769 -679693 -805848 -334105
3 2 Si 1.11491 51.0478 0.36624 2.4 -32.5876 7.50375e+06 6.6132e+06 7.36777e+06 -1.34861e+06 393871 -329196
4 3 O 2.52742 50.2799 0.652576 -1.2 -8.78967 -3.38136e+06 -294959 -5.4797e+06 -901633 -1.0687e+06 1.09606e+06
5 3 O -1.16149 53.813 1.66124 -1.2 -9.89188 -1.7655e+06 -5.42522e+06 -3.21564e+06 -879970 -136040 -443828
6 3 O 0.42542 50.2973 -0.834596 -1.2 -9.28994 -5.91785e+06 -1.25337e+06 -6.21526e+06 223651 541708 399129
7 1 Mg -2.07013 59.3156 2.9739 1.2 -7.35275 -1.46917e+06 3.45783e+06 396809 -666852 512923 1.63142e+06
8 3 O 0.253086 51.0712 1.59818 -1.2 -9.33465 -5.18844e+06 -3.28905e+06 -4.28542e+06 -1.5615e+06 332093 -1.72987e+06
9 1 Mg -2.14781 56.6873 4.54762 1.2 -7.99315 826651 228424 3.4335e+06 667259 -245984 169957
10 2 Si 0.473972 58.4038 4.41742 2.4 -32.7112 3.82748e+06 1.00617e+07 9.46862e+06 904773 1.15378e+06 -703915
11 3 O -1.09783 58.499 4.50356 -1.2 -10.0486 -2.38397e+06 -3.99363e+06 -4.28946e+06 -601503 -355222 356175
12 3 O 1.54952 54.8256 4.7 -1.2 -9.63243 -2.13381e+06 -3.84594e+06 -2.72868e+06 -1.21467e+06 34294.1 -54073.7
13 3 O 1.15866 57.7355 3.2461 -1.2 -9.68556 -2.41806e+06 -3.98353e+06 -5.11392e+06 172859 -564313 -814910
14 3 O 1.17933 57.7685 5.8038 -1.2 -8.79696 -2.57165e+06 -4.37666e+06 -1.00544e+06 366750 1.44639e+06 625123
15 1 Mg 0.264837 54.1433 3.06094 1.2 -7.06519 -2.1116e+06 3.87056e+06 -22643.9 522751 -1.51208e+06 1.37461e+06
16 1 Mg 0.978282 50.6542 3.46479 1.2 -7.50163 1.33568e+06 340802 -1.49753e+06 -248728 301544 636359
17 2 Si 2.30282 53.3656 4.59771 2.4 -32.2306 4.98765e+06 1.06933e+07 6.70756e+06 -1.27954e+06 116914 1.75884e+06
18 3 O -0.895186 53.4927 4.64031 -1.2 -9.84073 -1.55001e+06 -4.43908e+06 -2.16962e+06 -99829.5 125188 -373946
19 3 O 2.86817 50.3604 3.57131 -1.2 -7.35373 -1.54759e+06 -982228 -4.28827e+06 1.37646e+06 -625130 -580018
20 3 O 1.71787 52.6699 3.33971 -1.2 -9.69273 -2.8341e+06 -5.86701e+06 -4.17935e+06 585415 -72540.7 -541444
21 1 Mg 0.30223 54.243 0.0985304 1.2 -6.88085 -1.38816e+06 3.42745e+06 572790 1.01868e+06 1.20029e+06 -1.15404e+06
22 3 O 1.69561 52.5732 5.88478 -1.2 -10.5965 -3.76906e+06 -5.53269e+06 -4.59074e+06 1.28693e+06 -1.75303e+06 -719311
23 1 Mg 0.235347 57.028 1.5127 1.2 -7.84452 565214 437664 3.09088e+06 -760954 33224.1 -554225
24 2 Si -1.82423 55.263 1.60741 2.4 -32.0152 2.11716e+06 1.02919e+07 8.32443e+06 -155006 -445673 -163711
25 3 O 1.36818 55.1649 1.59874 -1.2 -10.3896 -1.78319e+06 -3.94326e+06 -2.98421e+06 610431 239023 -157153
26 3 O -0.740878 58.8322 1.50863 -1.2 -9.18442 -2.2828e+06 -3.18289e+06 -3.53209e+06 1.87417e+06 110809 889091
27 3 O -1.1966 55.8817 0.240379 -1.2 -9.74104 -1.08289e+06 -3.89437e+06 -2.36137e+06 103366 -875835 28558.5
28 3 O -1.16438 55.9952 2.81159 -1.2 -9.66521 -2.18376e+06 -4.13071e+06 -3.11547e+06 -218120 -220824 -892840
29 1 Mg -2.18364 59.356 -0.0504928 1.2 -7.79086 -265665 2.71124e+06 628101 -1.04466e+06 -876989 -1.78625e+06
30 1 Mg 2.45575 62.1341 1.35862 1.2 -8.06432 858941 323170 3.49794e+06 260927 -311214 546627
31 2 Si -0.0966611 60.4223 1.5164 2.4 -32.7464 5.57525e+06 9.68061e+06 9.02246e+06 493504 1.87733e+06 656589
32 3 O 1.49009 60.3308 1.56853 -1.2 -9.77707 -1.24802e+06 -3.2852e+06 -3.9865e+06 -1.00762e+06 376896 -687596
33 3 O -1.30861 64.0247 1.36965 -1.2 -9.57237 -2.65269e+06 -3.09447e+06 -3.36939e+06 -879205 459410 746370
34 3 O -0.861341 60.8729 0.134988 -1.2 -9.13259 -2.29946e+06 -3.9628e+06 -2.38946e+06 -604752 1.99162e+06 534479
35 1 Mg -2.2704 69.7656 2.89205 1.2 -7.79455 -1.89326e+06 3.75265e+06 -1.04991e+06 -898277 2.19714e+06 1.75827e+06
36 3 O -0.780251 61.0905 2.67433 -1.2 -9.40166 -3.81206e+06 -2.74438e+06 -3.82883e+06 127378 -209989 -1.60925e+06
37 1 Mg -2.19867 66.9901 4.37018 1.2 -7.96716 1.40131e+06 857908 3.38969e+06 1.24068e+06 -52312.8 454213
38 2 Si 0.5112 68.7875 4.26391 2.4 -32.8276 4.85042e+06 9.79746e+06 8.69712e+06 574750 830061 198657
39 3 O -1.04461 68.8903 4.28803 -1.2 -9.70567 -1.98883e+06 -3.32895e+06 -4.04709e+06 -519722 263223 395562
40 3 O 1.45745 65.0981 4.39914 -1.2 -9.40246 -2.06814e+06 -4.8571e+06 -4.04573e+06 -1.43889e+06 425210 711821
41 3 O 1.13727 68.1053 3.00348 -1.2 -9.38587 -2.70325e+06 -4.24736e+06 -2.62456e+06 -187181 38595.2 -1.03529e+06
42 3 O 1.26488 68.2307 5.57278 -1.2 -9.23361 -2.92567e+06 -4.15316e+06 -2.25559e+06 18385.8 973000 1.31766e+06
43 1 Mg 0.104657 64.4989 2.81884 1.2 -7.58383 -1.69813e+06 4.26366e+06 76903.6 726795 -1.01665e+06 1.41031e+06
44 1 Mg 0.178681 61.7798 4.59302 1.2 -8.21399 1.28689e+06 908481 3.06749e+06 -1.10218e+06 490572 295621
45 2 Si 2.23113 63.6687 4.38871 2.4 -32.7428 5.80105e+06 9.66601e+06 9.16781e+06 -246569 396460 -161158
46 3 O -0.971148 63.7395 4.4297 -1.2 -9.81624 -2.37978e+06 -3.12777e+06 -3.11679e+06 -191768 589826 39803
47 3 O 1.13346 59.8992 4.54143 -1.2 -9.15292 -1.34966e+06 -4.01343e+06 -3.67413e+06 1.10565e+06 435965 1.55984e+06
48 3 O 1.48701 62.9375 3.17207 -1.2 -9.20023 -1.94268e+06 -3.44506e+06 -2.57955e+06 443014 1.2206e+06 -546263
49 1 Mg 0.0775105 64.5241 -0.0510267 1.2 -7.74878 -1.88632e+06 3.77407e+06 -103897 1.08639e+06 2.30116e+06 -1.61669e+06
50 3 O 1.54709 63.0044 5.73568 -1.2 -9.12943 -2.47495e+06 -2.91424e+06 -2.01526e+06 268856 -1.40504e+06 627644
51 1 Mg 0.0621299 67.4667 1.33428 1.2 -8.14353 1.62315e+06 853657 2.9078e+06 -1.25081e+06 177700 456932
52 2 Si -1.94792 65.5448 1.39185 2.4 -32.5123 4.39715e+06 9.98039e+06 9.50793e+06 -19911.7 -1.06149e+06 176898
53 3 O 1.27798 65.4696 1.44508 -1.2 -9.78686 -2.1936e+06 -3.71494e+06 -4.41181e+06 883061 130480 -439478
54 3 O -1.00178 69.3044 1.34635 -1.2 -9.24532 -2.33705e+06 -4.17491e+06 -3.81082e+06 1.39219e+06 -63337.3 -677004
55 3 O -1.23478 66.1338 -0.0142327 -1.2 -9.07135 -2.23376e+06 -2.6768e+06 -1.27199e+06 248958 -887175 -817716
56 3 O -1.21156 66.2627 2.58642 -1.2 -9.55017 -3.21076e+06 -2.59994e+06 -1.81201e+06 164580 169923 -581751
57 1 Mg -2.42432 69.7645 -0.0821035 1.2 -7.70374 -1.31333e+06 3.81393e+06 -265206 -788184 -1.48406e+06 -1.27629e+06
58 1 Mg 2.43701 72.7306 1.521 1.2 -8.32793 1.59855e+06 1.22163e+06 2.06714e+06 856638 257752 256154
59 2 Si -0.283081 70.7812 1.25717 2.4 -33.004 6.11961e+06 1.04077e+07 8.21073e+06 69915.9 254972 692384
60 3 O 1.24849 70.6852 1.39808 -1.2 -9.60462 -2.90944e+06 -3.44441e+06 -3.56965e+06 -409855 444071 -363697
61 3 O -1.28771 74.52 1.56005 -1.2 -9.12471 -2.68106e+06 -2.77013e+06 -2.98597e+06 -877599 -100157 957399
62 3 O -1.01847 71.446 0.0272077 -1.2 -9.1745 -1.50968e+06 -3.30581e+06 -3.48675e+06 -163819 1.13577e+06 -511075
63 1 Mg -2.30526 80.5334 2.94819 1.2 -7.72531 -552027 3.29436e+06 372822 -1.2829e+06 800829 2.11711e+06
64 3 O -1.01672 71.5093 2.54994 -1.2 -9.08317 -2.99375e+06 -3.66738e+06 -2.33424e+06 -275760 -1.26201e+06 -672029
65 1 Mg -2.13464 77.5704 4.58144 1.2 -8.55449 1.75902e+06 1.55304e+06 2.68502e+06 989382 -41218 551237
66 2 Si 0.4915 79.4132 4.61466 2.4 -33.5537 6.8792e+06 1.08488e+07 7.07489e+06 298856 209834 1.40738e+06
67 3 O -1.06814 79.4743 4.59216 -1.2 -9.32771 -2.5021e+06 -3.33631e+06 -2.98842e+06 -466372 851965 -935792
68 3 O 1.46242 75.5993 4.36082 -1.2 -8.84001 -2.44378e+06 -4.2491e+06 -3.4863e+06 -1.63072e+06 -89034.5 883590
69 3 O 1.12069 78.8078 3.29019 -1.2 -8.85088 -3.39824e+06 -2.63743e+06 -2.87498e+06 430183 -804444 -908677
70 3 O 1.2361 78.6962 5.80735 -1.2 -9.12573 -3.11224e+06 -3.32268e+06 -2.71985e+06 -11649.8 565032 174244
71 1 Mg 0.0918463 75.0552 2.99916 1.2 -7.963 -1.44525e+06 3.79024e+06 -1.15696e+06 698552 -1.38602e+06 1.98088e+06
72 1 Mg 0.0796049 72.0616 4.15995 1.2 -8.27308 2.16229e+06 1.43983e+06 1.88481e+06 -787056 -292700 108724
73 2 Si 2.19097 74.1207 4.38901 2.4 -33.5392 7.06605e+06 1.09982e+07 7.78062e+06 -240240 -460338 -471025
74 3 O -1.00976 74.1723 4.34232 -1.2 -9.26653 -3.14415e+06 -3.4133e+06 -4.18056e+06 20564.5 210861 875301
75 3 O 1.16673 70.2982 4.2338 -1.2 -9.18096 -2.47314e+06 -4.44997e+06 -4.42367e+06 930139 830636 353636
76 3 O 1.47672 73.3805 3.17857 -1.2 -9.09974 -3.69699e+06 -3.75368e+06 -2.84043e+06 745368 1.36214e+06 -731180
77 1 Mg 0.0276846 75.0013 -0.053255 1.2 -7.50437 -1.17837e+06 3.69908e+06 -7438.23 1.66381e+06 1.68134e+06 -1.68373e+06
78 3 O 1.53246 73.5496 5.77256 -1.2 -8.81963 -3.4696e+06 -3.81451e+06 -1.90796e+06 457681 -1.47748e+06 607152
79 1 Mg 0.187098 77.9457 1.65788 1.2 -8.49412 2.42388e+06 894333 3.35556e+06 -955471 -147100 -13717.5
80 2 Si -1.93642 76.0851 1.52857 2.4 -33.3798 4.97761e+06 1.12621e+07 8.63455e+06 -205917 -583787 -36739.6
81 3 O 1.28828 76.0219 1.56068 -1.2 -9.37684 -2.55706e+06 -3.40457e+06 -4.1769e+06 170566 -429439 394181
82 3 O -0.860401 79.7905 1.43285 -1.2 -8.95711 -2.2163e+06 -2.73418e+06 -3.61013e+06 910924 -430102 -197320
83 3 O -1.25296 76.6371 0.189833 -1.2 -9.14675 -2.76866e+06 -3.31415e+06 -1.31956e+06 116968 -387988 525874
84 3 O -1.30509 76.8466 2.77672 -1.2 -9.02629 -3.60535e+06 -2.4064e+06 -1.69914e+06 -168912 321018 536364
85 1 Mg -2.31265 80.1906 0.0822103 1.2 -7.84167 -958079 3.90795e+06 -289890 -1.05014e+06 -1.29902e+06 -1.78747e+06
86 1 Mg 2.34814 83.2103 1.65088 1.2 -8.09804 1.66051e+06 517220 2.11792e+06 787928 28244.6 454519
87 2 Si -0.211829 81.3271 1.41307 2.4 -33.073 3.92006e+06 1.15006e+07 7.98739e+06 165778 -275193 -187818
88 3 O 1.32898 81.2996 1.48634 -1.2 -9.79585 -2.9484e+06 -4.0777e+06 -4.34294e+06 -363165 -186055 716002
89 3 O -1.21079 84.9667 1.51472 -1.2 -9.17888 -1.0926e+06 -3.09888e+06 -3.27078e+06 -1.29773e+06 408993 -476972
90 3 O -0.854022 81.991 0.167245 -1.2 -9.06368 -3.69406e+06 -3.62132e+06 -3.67249e+06 498532 637501 503755
91 1 Mg -2.33494 90.6104 3.09866 1.2 -7.43972 -1.30271e+06 3.61102e+06 -158165 -964059 1.5289e+06 1.77774e+06
92 3 O -0.938232 81.967 2.70757 -1.2 -9.53536 -2.50302e+06 -4.07691e+06 -2.97159e+06 -983325 -921023 -473068
93 1 Mg -2.19409 87.8199 4.55523 1.2 -8.04251 1.74548e+06 969061 3.09622e+06 490177 3986.14 720711
94 2 Si 0.35355 89.6672 4.58876 2.4 -32.6287 3.32289e+06 1.06274e+07 9.1728e+06 -478278 234886 271515
95 3 O -1.18543 89.7967 4.59513 -1.2 -10.0528 -2.51412e+06 -3.37449e+06 -3.94808e+06 -457039 22335.7 230584
96 3 O 1.491 85.9816 4.63077 -1.2 -9.24788 -2.62795e+06 -3.98654e+06 -3.11539e+06 -932483 295253 -421790
97 3 O 1.03125 88.9863 3.31456 -1.2 -9.44316 -1.49549e+06 -3.43761e+06 -2.86206e+06 -206205 -547284 -435445
98 3 O 1.00946 88.9384 5.86806 -1.2 -9.05966 -2.55192e+06 -3.23205e+06 -2.34822e+06 -662022 784748 72884.6
99 1 Mg 0.176662 85.515 3.11552 1.2 -7.73703 -659092 3.41994e+06 417704 1.1141e+06 -1.12002e+06 1.52417e+06
100 1 Mg -0.107115 82.6482 4.43397 1.2 -8.3539 1.5573e+06 1.1167e+06 3.08613e+06 -380153 34282.7 236086
101 2 Si 2.15992 84.4686 4.62994 2.4 -33.1517 5.45393e+06 1.05786e+07 8.81411e+06 1.34708e+06 231952 -541988
102 3 O -1.07296 84.6091 4.61256 -1.2 -9.69502 -3.65411e+06 -2.99059e+06 -3.62996e+06 1.34552e+06 -233371 682574
103 3 O 1.1686 80.9421 4.62393 -1.2 -8.8782 -2.01499e+06 -4.12031e+06 -2.39334e+06 1.25123e+06 -17364 -2.13854e+06
104 3 O 1.41257 83.8691 3.29092 -1.2 -9.34502 -1.50578e+06 -3.45939e+06 -3.02706e+06 332691 1.42643e+06 -559942
105 1 Mg 0.134905 85.3815 0.112836 1.2 -7.74717 -1.7918e+06 4.2709e+06 -111030 852359 1.26412e+06 -1.40863e+06
106 3 O 1.40805 83.7447 5.83854 -1.2 -8.64879 -3.16404e+06 -3.76684e+06 -2.07368e+06 -427510 -1.31318e+06 -307494
107 1 Mg 0.0792951 88.347 1.56892 1.2 -8.18108 1.18424e+06 602786 3.49461e+06 -1.21803e+06 156199 165575
108 2 Si -1.93612 86.5233 1.52698 2.4 -32.8989 4.72454e+06 9.30688e+06 8.30878e+06 -1.93707e+06 353432 -50019
109 3 O 1.28448 86.4892 1.60139 -1.2 -9.68473 -2.78751e+06 -3.03283e+06 -3.99834e+06 -45363.1 -13277 181594
110 3 O -1.0231 90.1728 1.62641 -1.2 -9.30554 -2.14813e+06 -4.58216e+06 -3.6696e+06 832107 154175 -8026.43
111 3 O -1.31499 87.1424 0.261696 -1.2 -9.20916 -3.7878e+06 -3.79365e+06 -2.9856e+06 -383493 272236 1.41403e+06
112 3 O -1.2524 87.1096 2.85143 -1.2 -9.37048 -3.3203e+06 -2.98735e+06 -2.17882e+06 -192892 487319 -413273
113 1 Mg -2.38109 90.5586 0.0943418 1.2 -7.83569 -324835 4.25126e+06 -145441 -871233 -1.53744e+06 -915596
114 1 Mg 2.27128 93.6083 1.58173 1.2 -7.9795 1.49433e+06 1.30677e+06 1.32537e+06 1.14579e+06 -83222.9 272757
115 2 Si -0.362963 91.6798 1.63378 2.4 -33.1792 4.80475e+06 9.54507e+06 7.67509e+06 353388 753450 1.11732e+06
116 3 O 1.17317 91.5954 1.68552 -1.2 -9.51715 -2.71206e+06 -3.09204e+06 -3.43438e+06 -506940 -128212 -640702
117 3 O -1.40548 95.4495 1.48193 -1.2 -9.59041 -1.43665e+06 -3.67067e+06 -3.9173e+06 -513814 -300589 -774449
118 3 O -1.00098 92.2564 0.297472 -1.2 -9.11487 -2.70787e+06 -3.67857e+06 -2.38293e+06 -2352.41 552710 331477
119 1 Mg -2.4277 101.095 2.95993 1.2 -7.70965 -2.11368e+06 2.73671e+06 -533112 -1.84118e+06 2.08814e+06 1.1834e+06
120 3 O -1.02952 92.3524 2.86581 -1.2 -9.45309 -3.50124e+06 -3.34963e+06 -3.17921e+06 -166306 -174478 -1.89387e+06
121 1 Mg -2.2404 98.2308 4.4694 1.2 -8.37808 1.44564e+06 1.44322e+06 2.5729e+06 755011 214929 -595362
122 2 Si 0.351972 100.043 4.47607 2.4 -33.2281 6.71566e+06 1.00055e+07 6.03188e+06 53706.8 301382 -72168.1
123 3 O -1.24811 100.147 4.548 -1.2 -9.46716 -1.90413e+06 -3.01859e+06 -3.89179e+06 -974225 -105957 -25458.3
124 3 O 1.39919 96.3708 4.45142 -1.2 -8.85731 -2.3722e+06 -4.26098e+06 -3.64177e+06 -782087 -418548 1.33254e+06
125 3 O 1.0694 99.4081 3.28218 -1.2 -9.21788 -3.16009e+06 -4.11975e+06 -6.03673e+06 -73042.8 -713349 -1.20433e+06
126 3 O 1.05875 99.3964 5.69011 -1.2 -9.0013 -2.83275e+06 -3.80551e+06 -5.08023e+06 -84285.8 657144 857385
127 1 Mg 0.0700924 95.9009 2.97247 1.2 -7.47122 -1.38272e+06 3.75798e+06 358536 1.14099e+06 -1.28199e+06 2.07182e+06
128 1 Mg -0.0634816 92.9984 4.55718 1.2 -7.88921 865643 1.05979e+06 3.1182e+06 -639922 -75707 765169
129 2 Si 2.05781 94.8468 4.39866 2.4 -33.0869 4.84192e+06 9.73751e+06 8.02344e+06 -307119 -973354 1.71054e+06
130 3 O -1.14446 95.0005 4.37674 -1.2 -9.63556 -2.78847e+06 -3.37084e+06 -3.43031e+06 981691 1.00965e+06 -743563
131 3 O 1.00536 91.1607 4.63804 -1.2 -9.67693 -1.69919e+06 -3.64562e+06 -3.39246e+06 489423 -303789 -16222.8
132 3 O 1.31058 94.1562 3.24246 -1.2 -9.65863 -2.97724e+06 -3.77335e+06 -4.418e+06 39494.1 448856 -2.82633e+06
133 1 Mg 0.0602238 95.9545 0.0839564 1.2 -7.56692 -1.25844e+06 4.11982e+06 -798013 981278 1.33973e+06 -1.57697e+06
134 3 O 1.42825 94.3471 5.77752 -1.2 -8.9007 -2.43696e+06 -4.92088e+06 -3.0883e+06 -17409.9 -1.31428e+06 1.00863e+06
135 1 Mg 0.109458 98.8 1.56084 1.2 -8.12259 1.25444e+06 381918 2.26634e+06 -1.14617e+06 133215 345799
136 2 Si -1.99019 96.9631 1.51258 2.4 -32.6798 4.62665e+06 9.53661e+06 9.06119e+06 -26713.6 586452 1.17523e+06
137 3 O 1.17147 96.918 1.48888 -1.2 -9.842 -1.11932e+06 -3.32237e+06 -4.97613e+06 806017 27123.3 -593765
138 3 O -1.04918 100.617 1.65995 -1.2 -9.22887 -2.40089e+06 -5.92153e+06 -4.65914e+06 1.03021e+06 1.18413e+06 -854946
139 3 O -1.31954 97.6804 0.297785 -1.2 -9.28987 -3.64109e+06 -3.89167e+06 -4.97221e+06 -426167 -944463 417406
140 3 O -1.31626 97.6211 2.81063 -1.2 -9.31194 -2.60109e+06 -3.04231e+06 -3.69731e+06 287466 1.13376e+06 -134733
141 1 Mg -2.43779 101.005 0.131443 1.2 -7.49031 -1.03082e+06 3.73781e+06 -94198.8 -1.4648e+06 -1.20747e+06 -1.94523e+06
142 1 Mg 6.91309 103.884 1.53573 1.2 -8.19581 944327 262867 3.11707e+06 789300 2702.23 259169
143 2 Si -0.445499 102.131 1.56537 2.4 -32.868 5.05617e+06 9.24501e+06 7.79043e+06 181427 -201062 -1.23025e+06
144 3 O 1.1277 102.038 1.52195 -1.2 -9.64871 -1.94685e+06 -3.8314e+06 -4.89746e+06 -1.33627e+06 -853012 597090
145 3 O 3.24582 105.674 1.56196 -1.2 -9.37913 -2.66943e+06 -4.70089e+06 -3.09524e+06 -97654.4 177.285 -1.6872e+06
146 3 O -1.09305 102.701 0.251774 -1.2 -9.23456 -4.01268e+06 -3.09242e+06 -3.36204e+06 77958.7 537040 1.30496e+06
147 1 Mg 2.32844 111.276 3.20494 1.2 -8.1973 -361880 3.61665e+06 -651129 -1.08807e+06 1.35674e+06 1.36813e+06
148 3 O -1.23435 102.704 2.77315 -1.2 -9.35558 -3.73762e+06 -6.3673e+06 -4.09496e+06 -560693 -561828 -1.51187e+06
149 1 Mg 2.25224 108.463 4.53027 1.2 -8.6613 2.39907e+06 716936 3.11525e+06 911222 -107221 598894
150 2 Si 4.96259 110.377 4.60305 2.4 -34.1261 5.4111e+06 9.55485e+06 8.99796e+06 -94332.7 275580 -984023
151 3 O 3.45321 110.373 4.55547 -1.2 -9.09027 -4.84867e+06 -3.76392e+06 -4.47806e+06 -956695 -137167 873843
152 3 O 6.0101 106.609 4.45652 -1.2 -9.08337 -3.72054e+06 -6.11984e+06 -3.70161e+06 -1.03153e+06 -222959 840269
153 3 O 5.71011 109.688 3.39132 -1.2 -8.7968 -4.12058e+06 -4.21931e+06 -2.95798e+06 160876 -392135 -820672
154 3 O 5.7378 109.773 5.93659 -1.2 -8.51135 -3.62775e+06 -2.98116e+06 -1.93069e+06 35470.8 1.14574e+06 489933
155 1 Mg 4.65327 106.115 3.03722 1.2 -8.10667 -995248 3.49348e+06 -1.29078e+06 815546 -1.56575e+06 1.45832e+06
156 1 Mg -0.28955 103.3 4.46714 1.2 -8.17769 2.09923e+06 1.31334e+06 2.06421e+06 -477386 -153604 -655526
157 2 Si 6.70873 105.193 4.47187 2.4 -33.3604 5.92234e+06 1.02974e+07 8.58389e+06 1.55474e+06 634733 -1.61516e+06
158 3 O 3.49605 105.287 4.46232 -1.2 -9.51348 -3.52585e+06 -3.62617e+06 -3.93765e+06 638154 1.05405e+06 1.23055e+06
159 3 O 0.967754 101.594 4.48201 -1.2 -9.08053 -1.57848e+06 -4.39953e+06 -2.71795e+06 790603 435490 368475
160 3 O 5.88204 104.482 3.20527 -1.2 -8.95155 -1.86856e+06 -4.93307e+06 -2.02149e+06 1.28486e+06 1.67814e+06 -10147.7
161 1 Mg 4.63412 106.229 0.0684505 1.2 -7.39175 -1.76821e+06 3.92124e+06 617080 833168 1.7212e+06 -1.15713e+06
162 3 O 6.06399 104.509 5.78084 -1.2 -8.93202 -2.74098e+06 -3.68995e+06 -2.06499e+06 187390 -1.22929e+06 1.26425e+06
163 1 Mg 4.74805 109.064 1.57822 1.2 -8.44391 2.45177e+06 380585 2.95838e+06 -685268 251917 -263736
164 2 Si 2.66239 107.176 1.46226 2.4 -33.3139 5.41526e+06 9.5245e+06 7.81507e+06 425381 377823 -952234
165 3 O 5.81749 107.054 1.57257 -1.2 -9.402 -1.48886e+06 -3.05156e+06 -4.0176e+06 631540 -530331 282113
166 3 O 3.62268 110.794 1.61783 -1.2 -8.94141 -2.93129e+06 -3.32533e+06 -3.47855e+06 1.19423e+06 99658.5 224824
167 3 O 3.29022 107.904 0.249066 -1.2 -9.40489 -2.20903e+06 -2.4186e+06 -4.41889e+06 -3718.48 111795 345846
168 3 O 3.29031 107.793 2.76208 -1.2 -8.62297 -3.59965e+06 -4.65897e+06 -2.82296e+06 -210042 -18266.4 -646312
169 1 Mg 2.33918 111.303 0.113012 1.2 -7.79795 -740452 3.45162e+06 978033 -1.42715e+06 -1.88741e+06 -1.9098e+06
170 1 Mg 6.94662 114.186 1.74262 1.2 -8.45001 1.88716e+06 938850 3.11954e+06 1.05113e+06 277372 -549639
171 2 Si 4.27074 112.336 1.59805 2.4 -33.5367 7.7704e+06 9.56893e+06 8.56649e+06 372740 -427564 -507981
172 3 O 5.86194 112.304 1.63377 -1.2 -9.13052 -980767 -2.91886e+06 -3.58234e+06 -469114 24559.9 536087
173 3 O 3.35192 115.984 1.7904 -1.2 -9.01624 -3.2385e+06 -3.63469e+06 -4.62177e+06 -1.32944e+06 -906682 -51760.2
174 3 O 3.61907 112.945 0.334245 -1.2 -9.19674 -3.54522e+06 -3.13703e+06 -3.50189e+06 -132120 416667 1.4776e+06
175 1 Mg 2.34442 121.617 2.86722 1.2 -7.80757 -1.46087e+06 3.54845e+06 -980601 -716985 1.40502e+06 1.35667e+06
176 3 O 3.5764 112.972 2.91186 -1.2 -8.81506 -3.95704e+06 -2.86829e+06 -1.53216e+06 91719.3 -1.16215e+06 263470
177 1 Mg 2.28646 118.92 4.58573 1.2 -8.21206 1.72396e+06 477737 2.90422e+06 1.18556e+06 -162438 -49518
178 2 Si 5.02468 120.695 4.38688 2.4 -32.9235 3.16926e+06 1.03358e+07 9.55377e+06 791949 275060 129118
179 3 O 3.5292 120.875 4.34737 -1.2 -9.69649 -3.72592e+06 -4.22972e+06 -4.38144e+06 211304 -744753 89643
180 3 O 6.04109 117.039 4.48689 -1.2 -8.87369 -3.54628e+06 -6.36931e+06 -3.50148e+06 -294624 -706317 57452.6
181 3 O 5.76674 119.97 3.15677 -1.2 -9.09963 -3.2159e+06 -4.1125e+06 -1.80888e+06 -99094.5 -888974 515613
182 3 O 5.60286 120.022 5.722 -1.2 -9.42725 -1.80559e+06 -2.83109e+06 -3.25014e+06 150853 435741 242706
183 1 Mg 4.59388 116.452 3.13106 1.2 -8.08206 -1.72032e+06 3.74075e+06 -1.90086e+06 692767 -2.52131e+06 1.02495e+06
184 1 Mg 4.58246 113.772 4.67099 1.2 -8.54923 2.15752e+06 1.28176e+06 3.17295e+06 -764875 125282 173030
185 2 Si 6.68515 115.616 4.63699 2.4 -33.8043 5.1807e+06 9.57206e+06 7.43891e+06 342414 -30876.5 -920460
186 3 O 3.48445 115.643 4.6295 -1.2 -9.32888 -3.5457e+06 -4.06401e+06 -4.02468e+06 361389 239076 665796
187 3 O 5.59114 111.846 4.56501 -1.2 -8.69858 -3.20087e+06 -5.11808e+06 -4.07429e+06 787939 247756 711274
188 3 O 6.00559 114.857 3.43117 -1.2 -8.80527 -3.47335e+06 -5.55688e+06 -3.07458e+06 209269 417959 -799001
189 1 Mg 4.66821 116.432 0.229512 1.2 -7.8178 -736004 3.33212e+06 1.00513e+06 1.1141e+06 1.32444e+06 -2.26463e+06
190 3 O 6.02053 115.02 5.95965 -1.2 -9.06681 -2.60667e+06 -3.05108e+06 -3.42563e+06 -156581 -485516 906016
191 1 Mg 4.70233 119.296 1.43946 1.2 -8.28627 1.18349e+06 877668 2.96028e+06 -1.09109e+06 110058 -314509
192 2 Si 2.61533 117.505 1.67205 2.4 -33.1689 3.94602e+06 9.77375e+06 9.84333e+06 -568701 356924 -905062
193 3 O 5.89399 117.368 1.62409 -1.2 -9.47071 -4.5856e+06 -3.98401e+06 -5.08001e+06 487074 294368 549145
194 3 O 3.79901 121.167 1.56241 -1.2 -8.99815 -2.88057e+06 -3.58914e+06 -4.28508e+06 1.02732e+06 463558 1.26265e+06
195 3 O 3.32923 118.077 0.345514 -1.2 -9.31282 -3.62429e+06 -2.79385e+06 -3.12646e+06 242484 -864255 688920
196 3 O 3.38227 118.188 2.92358 -1.2 -8.86041 -3.32893e+06 -4.16405e+06 -1.61305e+06 271185 866571 105348
197 1 Mg 2.3702 121.598 0.0422876 1.2 -7.79391 -270392 3.93046e+06 -420751 -639068 -1.17038e+06 -2.22131e+06
198 1 Mg 6.95101 124.547 1.47826 1.2 -8.2916 1.64466e+06 528172 1.62308e+06 915603 -54316.8 196869
199 2 Si 4.39674 122.742 1.55235 2.4 -33.4529 4.94731e+06 9.9685e+06 8.43792e+06 -267957 -135938 -1.0027e+06
200 3 O 5.93646 122.565 1.49831 -1.2 -9.48716 -3.27402e+06 -3.39483e+06 -4.87888e+06 -1.524e+06 -747735 948459
201 3 O 3.41991 126.427 1.55198 -1.2 -9.44702 -1.81235e+06 -3.84654e+06 -3.59945e+06 -872054 -9622.73 -332061
202 3 O 3.72996 123.308 0.244824 -1.2 -8.87529 -3.61276e+06 -3.2853e+06 -3.72215e+06 460734 479585 1.12074e+06
203 1 Mg 2.25312 132.117 3.01914 1.2 -7.89246 -1.44517e+06 3.46263e+06 -526176 -911265 1.53197e+06 1.84527e+06
204 3 O 3.65072 123.374 2.75381 -1.2 -9.13641 -2.69297e+06 -4.21272e+06 -3.96043e+06 -147057 -148125 -463473
205 1 Mg 2.39235 129.197 4.41496 1.2 -7.96218 2.0188e+06 1.5305e+06 1.79407e+06 928918 687186 -564673
206 2 Si 5.01785 131.196 4.57832 2.4 -33.5812 5.55228e+06 1.01722e+07 7.69209e+06 -208190 -462798 -621818
207 3 O 3.4551 131.339 4.54701 -1.2 -9.29044 -2.7144e+06 -4.23759e+06 -3.94632e+06 297294 -138604 270596
208 3 O 6.07278 127.329 4.54968 -1.2 -9.33681 -1.30957e+06 -2.23608e+06 -3.49247e+06 -1.3509e+06 71542.6 939960
209 3 O 5.67934 130.462 3.32468 -1.2 -9.36828 -2.07961e+06 -3.59064e+06 -2.72037e+06 -357890 -369680 -970438
210 3 O 5.59631 130.523 5.86432 -1.2 -8.85599 -3.77751e+06 -3.95581e+06 -3.80244e+06 -177930 922659 350916
211 1 Mg 4.66838 126.874 3.0901 1.2 -7.44018 -1.63892e+06 3.80022e+06 298542 1.07465e+06 -1.56846e+06 2.27948e+06
212 1 Mg 4.70206 123.969 4.49881 1.2 -7.95155 762480 465277 3.61143e+06 -1.22062e+06 82340.3 238244
213 2 Si 6.72792 125.755 4.48032 2.4 -32.2284 6.04275e+06 1.00057e+07 9.98185e+06 -832704 336800 2.28725e+06
214 3 O 3.56782 125.865 4.46395 -1.2 -9.85031 16194.2 -2.84087e+06 -4.74535e+06 765831 393636 -632395
215 3 O 5.76071 122.18 4.40789 -1.2 -9.41148 -2.6437e+06 -3.11598e+06 -3.32565e+06 624525 314545 649010
216 3 O 6.01668 125.104 3.14065 -1.2 -9.51354 -2.93865e+06 -2.00797e+06 -1.23137e+06 799939 1.42762e+06 -196186
217 1 Mg 4.74458 127.05 0.108967 1.2 -7.76507 -2.17549e+06 3.97977e+06 -363064 772584 1.45989e+06 -1.35042e+06
218 3 O 6.02918 125.21 5.76492 -1.2 -9.56167 -3.18617e+06 -4.69966e+06 -3.01474e+06 20175.3 -1.05736e+06 1.45273e+06
219 1 Mg 4.75644 129.772 1.5822 1.2 -7.96353 1.2127e+06 505714 3.52753e+06 -1.19339e+06 101613 562915
220 2 Si 2.70448 127.897 1.55507 2.4 -32.4126 4.59957e+06 1.01273e+07 7.62372e+06 -328640 -922439 -152514
221 3 O 5.89042 127.85 1.57849 -1.2 -9.86699 -1.50055e+06 -3.30469e+06 -4.24124e+06 -306929 -1.09992e+06 -664128
222 3 O 3.64104 131.614 1.55211 -1.2 -9.54813 -1.77788e+06 -4.30988e+06 -4.26431e+06 1.38992e+06 -412990 -100693
223 3 O 3.42929 128.618 0.279933 -1.2 -9.3227 -2.63995e+06 -3.4488e+06 -2.90535e+06 428733 -522112 -4775.41
224 3 O 3.2953 128.599 2.79079 -1.2 -9.61353 -3.37656e+06 -3.42464e+06 -4.92325e+06 -138825 391261 -1.50074e+06
225 1 Mg 2.26381 131.943 0.15438 1.2 -7.65166 -1.61573e+06 3.75333e+06 205833 -1.0722e+06 -1.43683e+06 -754016
226 1 Mg 6.96831 134.955 1.48607 1.2 -8.42117 1.78246e+06 393191 3.34244e+06 899172 6935.84 394887
227 2 Si 4.29424 133.098 1.60707 2.4 -33.075 7.56319e+06 8.6746e+06 9.11584e+06 399749 451634 495865
228 3 O 5.92672 133.021 1.59899 -1.2 -9.45377 -468887 -2.84751e+06 -5.26332e+06 -260352 60890 5850.88
229 3 O 3.09988 136.871 1.5749 -1.2 -9.45414 -2.73902e+06 -4.7904e+06 -3.62706e+06 -467290 100426 793948
230 3 O 3.58376 133.794 0.350271 -1.2 -9.18999 -3.71593e+06 -2.68028e+06 -4.29648e+06 -1.44276e+06 1.61822e+06 828270
231 1 Mg 2.30389 142.494 3.15585 1.2 -8.10074 -1.12218e+06 3.90867e+06 -770584 -887925 1.1574e+06 1.99119e+06
232 3 O 3.64301 133.776 2.85501 -1.2 -8.84476 -4.35693e+06 -3.02292e+06 -4.4027e+06 -679267 -883810 -309719
233 1 Mg 2.38175 139.728 4.53601 1.2 -8.64352 1.85189e+06 1.37845e+06 1.84275e+06 919280 50989.4 -577113
234 2 Si 4.96796 141.566 4.49243 2.4 -33.2333 5.3742e+06 1.28144e+07 7.66874e+06 -236184 -169277 -689533
235 3 O 3.41852 141.618 4.49273 -1.2 -9.54934 -2.7716e+06 -4.91304e+06 -3.70085e+06 -159514 -939390 930012
236 3 O 5.94046 137.806 4.41874 -1.2 -8.6329 -3.5277e+06 -3.09987e+06 -2.59642e+06 -1.10634e+06 -219899 586071
237 3 O 5.7064 140.879 3.24366 -1.2 -8.96595 -2.97627e+06 -3.88578e+06 -1.98727e+06 -206224 -891295 731278
238 3 O 5.61401 140.91 5.80851 -1.2 -9.11132 -2.71551e+06 -3.63925e+06 -1.81519e+06 338967 369004 413351
239 1 Mg 4.6236 137.301 2.90222 1.2 -7.99998 -429634 3.93533e+06 -927805 838809 -1.64906e+06 1.44718e+06
240 1 Mg 4.48188 134.423 4.57487 1.2 -8.7786 2.31651e+06 706890 1.20211e+06 -1.12471e+06 385343 44028.8
241 2 Si 6.5875 136.289 4.48577 2.4 -33.9601 7.97927e+06 1.16428e+07 8.08169e+06 679504 18711.3 -453543
242 3 O 3.40714 136.404 4.50971 -1.2 -9.05314 -1.88645e+06 -3.6614e+06 -2.58279e+06 1.1782e+06 -186075 467843
243 3 O 5.7085 132.65 4.49875 -1.2 -8.72842 -4.15066e+06 -4.66622e+06 -4.15499e+06 422072 10893.6 270617
244 3 O 5.90689 135.592 3.20436 -1.2 -8.73035 -3.08102e+06 -3.71478e+06 -1.80875e+06 -321120 1.106e+06 -76411.5
245 1 Mg 4.55199 137.173 0.107081 1.2 -7.60334 -779723 4.24878e+06 -302110 744834 1.26205e+06 -1.17035e+06
246 3 O 5.864 135.642 5.7828 -1.2 -8.8639 -3.32527e+06 -3.43734e+06 -2.72254e+06 153338 -1.42101e+06 594320
247 1 Mg 4.66053 140.177 1.55236 1.2 -8.60997 2.08789e+06 -2320.29 3.19035e+06 -298208 196613 -546371
248 2 Si 2.53338 138.352 1.57929 2.4 -33.4597 6.04627e+06 9.36315e+06 9.8366e+06 825495 712987 -786717
249 3 O 5.67973 138.282 1.53986 -1.2 -9.42827 -1.36365e+06 -3.24103e+06 -5.15188e+06 1.06619e+06 813795 1.02501e+06
250 3 O 3.71609 141.931 1.47745 -1.2 -8.82464 -3.31665e+06 -5.36503e+06 -3.40871e+06 1.0306e+06 -104639 -327782
251 3 O 3.16396 139.036 0.312382 -1.2 -8.96692 -3.56313e+06 -3.25341e+06 -2.34184e+06 -161246 -427755 916720
252 3 O 3.24275 139.026 2.89923 -1.2 -8.75389 -3.45428e+06 -3.19301e+06 -1.99271e+06 428485 1.51567e+06 1.10242e+06
253 1 Mg 2.28776 142.378 0.0361543 1.2 -8.0784 -528320 3.62764e+06 244889 -1.06537e+06 -1.72133e+06 -1.89275e+06
254 1 Mg 6.81363 145.271 1.35801 1.2 -8.60146 2.03987e+06 -204461 2.98495e+06 -103536 -780678 542472
255 2 Si 4.31462 143.425 1.55093 2.4 -34.0999 7.20929e+06 9.89685e+06 7.3451e+06 -481370 1.2668e+06 -315714
256 3 O 5.89816 143.414 1.5686 -1.2 -9.14543 -2.53392e+06 -3.23868e+06 -3.64897e+06 -720395 555988 -93095.8
257 3 O 3.20795 146.927 1.49035 -1.2 -9.07109 -3.77509e+06 -3.73093e+06 -2.45218e+06 -1.16476e+06 175984 435929
258 3 O 3.63239 144.142 0.257761 -1.2 -8.77338 -3.01161e+06 -3.52756e+06 -3.17297e+06 -508079 970910 353740
259 1 Mg 1.50686 152.298 1.75537 1.2 -7.82018 -415030 -1.68529e+06 1.98644e+06 468766 -456916 335660
260 3 O 3.69233 144.026 2.8108 -1.2 -8.60677 -5.16544e+06 -3.57117e+06 -4.18358e+06 222664 -510360 -324347
261 1 Mg 1.57227 150.46 4.91572 1.2 -8.56522 -202790 4.80854e+06 412578 349907 372951 201733
262 2 Si 3.75873 150.76 3.03779 2.4 -34.3108 9.54519e+06 7.79656e+06 6.78306e+06 -479344 -599682 -821212
263 3 O 2.3487 151.501 3.25637 -1.2 -8.07364 -5.37731e+06 -2.30684e+06 -5.22055e+06 136852 -128212 -1.35433e+06
264 3 O 5.82771 148.241 4.54119 -1.2 -8.54709 -4.3722e+06 -6.23286e+06 -1.77263e+06 -402647 -2197.2 371318
265 3 O 4.47759 151.491 1.83913 -1.2 -8.79437 -5.92468e+06 -437109 -5.28989e+06 772447 98489.8 -462184
266 3 O 4.51212 150.867 4.36858 -1.2 -8.52525 -7.06993e+06 -4.76339e+06 -3.23796e+06 -432983 118860 1.59418e+06
267 1 Mg 4.52559 147.55 2.96224 1.2 -8.00181 -537782 3.08289e+06 1.03675e+06 1.33352e+06 -1.94322e+06 1.39427e+06
268 1 Mg 4.45476 144.973 4.51264 1.2 -8.73766 3.06139e+06 1.00511e+06 2.45078e+06 -910626 -286157 758953
269 2 Si 6.55086 146.844 4.59621 2.4 -34.2599 5.41897e+06 1.15429e+07 6.92844e+06 607320 -202885 -212180
270 3 O 3.32125 146.976 4.65499 -1.2 -9.19885 -5.20594e+06 -4.92219e+06 -2.75475e+06 56562.8 -905378 621627
271 3 O 5.65581 143.097 4.51143 -1.2 -8.73783 -2.77967e+06 -2.97389e+06 -3.66273e+06 1.08034e+06 -435895 778636
272 3 O 5.88274 146.09 3.32228 -1.2 -8.64606 -1.83312e+06 -4.24354e+06 -2.65228e+06 468626 700725 -56190.9
273 1 Mg 4.50654 147.483 -0.153395 1.2 -8.09346 -1.45794e+06 3.70626e+06 -115648 933259 1.23349e+06 -2.38638e+06