ITEM: TIMESTEP
27700
ITEM: NUMBER OF ATOMS
5600
ITEM: BOX BOUNDS xy xz yz pp pp pp
0.0000000000000000e+00 7.1234999999999999e+00 0.0000000000000000e+00
0.0000000000000000e+00 2.0198500000000001e+02 2.3744999999999998e+00
0.0000000000000000e+00 1.1958400000000000e+02 0.0000000000000000e+00
ITEM: ATOMS id type element xu yu zu q c_pe c_s[1] c_s[2] c_s[3] c_s[4] c_s[5] c_s[6]
1 1 Mg -1.45579 49.1612 -0.661019 1.2 -7.6502 37239.5 -1.23259e+06 3.901e+06 -376938 325803 -17115.2
2 1 Mg 3.10991 50.9003 2.69285 1.2 -8.16764 -408224 4.50912e+06 654241 486026 -691979 290677
3 2 Si 1.00224 50.7373 0.821917 2.4 -34.0186 7.90529e+06 7.94484e+06 5.33072e+06 -865628 678837 2.25772e+06
4 3 O 2.33572 49.9113 0.975283 -1.2 -8.19342 -5.88178e+06 -2.52394e+06 -3.27181e+06 160116 -870045 1.68758e+06
5 3 O -1.10644 53.4914 2.10441 -1.2 -8.56862 -1.27134e+06 -4.22718e+06 -2.82619e+06 -1.80623e+06 340367 -1.10729e+06
6 3 O 0.257513 49.9676 -0.383879 -1.2 -8.80786 -5.71582e+06 -762062 -4.44092e+06 685995 -211875 362408
7 1 Mg -2.2544 59.2526 3.3414 1.2 -7.82751 -1.97164e+06 5.45626e+06 -1.77389e+06 -832052 1.49432e+06 992131
8 3 O 0.26612 50.6303 2.13107 -1.2 -8.98823 -5.31992e+06 -4.1392e+06 -4.9259e+06 -9718.04 -50535.6 -2.33427e+06
9 1 Mg -2.12464 56.348 5.08448 1.2 -9.14562 2.57048e+06 1.91921e+06 475080 471039 -777496 -15127.7
10 2 Si 0.492157 58.2293 5.01533 2.4 -33.8682 9.18044e+06 1.20405e+07 3.87634e+06 286905 128870 452582
11 3 O -1.16437 58.1937 4.91903 -1.2 -9.00409 -1.31062e+06 -4.21206e+06 -1.57097e+06 -492862 -100255 -3810.5
12 3 O 1.74791 54.171 5.27766 -1.2 -8.52877 -4.12178e+06 -2.34424e+06 -1.16906e+06 -2.12299e+06 818754 -1.69386e+06
13 3 O 1.19626 57.5206 3.79398 -1.2 -8.41525 -4.08617e+06 -3.21746e+06 -3.07342e+06 -935827 -705994 -671053
14 3 O 1.12231 57.4786 6.22787 -1.2 -8.56304 -3.77686e+06 -4.20993e+06 -5.07067e+06 -310563 1.14383e+06 1.09879e+06
15 1 Mg 0.437804 53.6682 3.59302 1.2 -8.181 1.39921e+06 4.90265e+06 435003 -82125.5 -123240 1.41165e+06
16 1 Mg 0.804329 49.8341 3.78244 1.2 -7.91261 1.07515e+06 1.58766e+06 -2.68112e+06 -109957 -135789 1.37107e+06
17 2 Si 2.52292 52.6587 5.24314 2.4 -33.9143 9.05741e+06 1.1495e+07 6.30615e+06 -852859 482647 1.13629e+06
18 3 O -0.688001 52.8623 5.13409 -1.2 -8.91072 -3.16022e+06 -4.48575e+06 -1.29655e+06 788077 -519123 -237765
19 3 O 2.66224 49.3418 3.96469 -1.2 -7.08227 -842938 -971706 -3.21341e+06 791596 -860172 -1.00162e+06
20 3 O 1.93019 52.0064 3.93059 -1.2 -8.677 -3.8575e+06 -4.50183e+06 -1.81042e+06 -998755 663348 -690265
21 1 Mg 0.143104 54.2024 0.627537 1.2 -7.65188 -2.095e+06 3.08586e+06 -261158 1.733e+06 1.70255e+06 -1.07819e+06
22 3 O 2.01188 51.8189 6.52416 -1.2 -10.3144 -4.25226e+06 -4.54932e+06 -3.12581e+06 1.01553e+06 -52513.7 -369228
23 1 Mg 0.0283005 56.8814 2.03608 1.2 -8.35905 1.99287e+06 -82478.1 3.23272e+06 -1.33856e+06 -77373.4 -659729
24 2 Si -1.8389 54.9555 2.17617 2.4 -33.6277 6.32516e+06 1.08891e+07 7.50897e+06 -1.75256e+06 1.96958e+06 957958
25 3 O 1.35271 54.8685 2.08256 -1.2 -9.44154 -3.23071e+06 -3.08574e+06 -2.37084e+06 10903.3 843202 -527129
26 3 O -0.925978 58.6865 2.00729 -1.2 -9.40734 -2.67447e+06 -4.77092e+06 -3.53079e+06 1.39866e+06 721790 -34221.1
27 3 O -1.23191 55.7051 0.930099 -1.2 -9.38093 -4.04015e+06 -4.56912e+06 -3.57942e+06 227898 -317618 779281
28 3 O -1.1042 55.5905 3.46531 -1.2 -8.40809 -2.56594e+06 -3.7596e+06 -1.99353e+06 147782 1.192e+06 -1.09523e+06
29 1 Mg -2.24432 59.202 0.503068 1.2 -7.6844 -1.6638e+06 4.14286e+06 -189928 -1.05977e+06 -2.08074e+06 -1.38783e+06
30 1 Mg 2.4482 62.1748 1.84197 1.2 -8.34513 1.48811e+06 345265 2.34577e+06 166017 -213566 600546
31 2 Si -0.218316 60.1849 1.9931 2.4 -32.8019 4.13942e+06 1.20751e+07 7.10205e+06 -275871 179576 251953
32 3 O 1.27602 60.1257 2.04128 -1.2 -9.67462 -3.94262e+06 -4.78711e+06 -3.77979e+06 -356515 -486871 -206774
33 3 O -1.28174 63.8405 1.76464 -1.2 -9.29574 -2.33803e+06 -6.71587e+06 -2.20339e+06 -879089 -434518 -1.05129e+06
34 3 O -0.948617 60.8411 0.69245 -1.2 -9.13591 -3.27484e+06 -3.55243e+06 -2.20536e+06 -456507 800046 -398998
35 1 Mg -2.2522 69.6422 3.11528 1.2 -7.4655 -1.43318e+06 3.71994e+06 -683506 -758282 657537 2.70316e+06
36 3 O -0.971779 60.9044 3.22738 -1.2 -9.18125 -3.31799e+06 -3.97918e+06 -1.44607e+06 -534022 -856061 -700271
37 1 Mg -1.90433 66.7709 4.72937 1.2 -7.91205 1.39854e+06 1.29624e+06 1.81135e+06 -77201.3 218082 162193
38 2 Si 0.423074 68.5525 4.80399 2.4 -32.6853 4.40022e+06 1.19285e+07 8.4038e+06 -352586 -23970.3 1.79752e+06
39 3 O -1.13475 68.6399 4.67862 -1.2 -10.0726 -2.27749e+06 -3.93196e+06 -2.31413e+06 -389606 -148677 -1.28144e+06
40 3 O 1.58975 64.8585 4.75838 -1.2 -9.06037 -2.47677e+06 -4.52194e+06 -2.42832e+06 -908766 -270293 -751252
41 3 O 1.10535 67.8108 3.52479 -1.2 -9.15102 -2.58236e+06 -4.27443e+06 -1.45672e+06 -574258 -1.85405e+06 -1.42844e+06
42 3 O 1.00084 67.9838 6.16456 -1.2 -9.41845 -866267 -4.41501e+06 -2.13772e+06 33871.5 1.51127e+06 -690775
43 1 Mg 0.169708 64.3163 3.28568 1.2 -7.85313 -590345 4.16786e+06 63113.7 991977 -1.02778e+06 2.28295e+06
44 1 Mg 0.103262 61.6515 4.8231 1.2 -8.1659 562880 1.4919e+06 2.06633e+06 -1.19718e+06 -86680.8 844027
45 2 Si 2.2062 63.3956 4.92483 2.4 -32.727 7.17663e+06 1.13323e+07 6.99547e+06 270779 1.44807e+06 2.34847e+06
46 3 O -0.929422 63.4672 4.88797 -1.2 -9.58755 -503201 -4.73641e+06 -2.55665e+06 1.35355e+06 208619 -604341
47 3 O 1.09704 59.6971 5.01843 -1.2 -9.43978 -857357 -6.54747e+06 -728102 1.29565e+06 405727 -864978
48 3 O 1.41793 62.6607 3.58003 -1.2 -9.09507 -2.29559e+06 -4.85253e+06 75357.2 1.14316e+06 2.00123e+06 -1.29213e+06
49 1 Mg 0.0532752 64.4202 0.123053 1.2 -7.473 -827073 4.49668e+06 -299971 677288 1.82078e+06 -980556
50 3 O 1.53687 62.8039 6.17666 -1.2 -9.51468 -3.69496e+06 -4.09896e+06 -2.52505e+06 -337978 -402324 82116
51 1 Mg 0.273976 67.1919 1.92275 1.2 -8.25805 1.23162e+06 1.10876e+06 1.58748e+06 -942824 -418833 -501379
52 2 Si -1.91408 65.3135 1.76008 2.4 -33.2127 5.09394e+06 1.07613e+07 6.34167e+06 259511 271547 1.17242e+06
53 3 O 1.27445 65.2609 1.77754 -1.2 -9.61583 -2.66715e+06 -3.80243e+06 -2.33318e+06 437817 989755 -178518
54 3 O -0.834498 68.9964 1.74071 -1.2 -9.26466 -2.35678e+06 -5.0377e+06 -2.96266e+06 997697 128909 -1.28074e+06
55 3 O -1.36923 65.9585 0.462773 -1.2 -9.09645 -2.60994e+06 -5.24926e+06 -2.51824e+06 -698708 420477 1.09271e+06
56 3 O -1.17245 66.0032 3.01683 -1.2 -9.21654 -3.20287e+06 -3.82618e+06 -2.67234e+06 51897.7 1.22873e+06 -889740
57 1 Mg -2.28024 69.5063 0.235075 1.2 -7.72474 -1.10608e+06 4.31551e+06 -256166 -735546 48889.9 -946747
58 1 Mg 2.43899 72.2972 1.91008 1.2 -7.99603 977457 1.14666e+06 2.08462e+06 963903 154832 1.45879e+06
59 2 Si -0.220817 70.4974 1.64077 2.4 -32.5377 4.22627e+06 1.21205e+07 6.5347e+06 -360455 81586.5 1.53685e+06
60 3 O 1.35981 70.3567 1.69393 -1.2 -9.96081 -1.87889e+06 -4.85504e+06 -3.81407e+06 -1.00828e+06 608973 -27764.1
61 3 O -1.36849 74.1216 1.68325 -1.2 -9.21836 -2.81403e+06 -4.54158e+06 -2.1892e+06 -1.10627e+06 -146216 -1.28758e+06
62 3 O -1.01076 71.1387 0.441377 -1.2 -9.26735 -3.15665e+06 -4.8456e+06 -3.2022e+06 -232302 903638 -572013
63 1 Mg -2.3127 80.0925 2.94811 1.2 -8.11529 -1.13999e+06 3.3832e+06 -1.27822e+06 -1.51172e+06 1.15459e+06 1.62453e+06
64 3 O -0.905054 71.2153 2.89393 -1.2 -9.59678 -2.08969e+06 -5.81922e+06 -3.67706e+06 -404962 -1.38715e+06 -1.17726e+06
65 1 Mg -2.31286 77.035 4.65397 1.2 -8.70774 1.65831e+06 1.10469e+06 1.74106e+06 1.36842e+06 -216881 361165
66 2 Si 0.377355 78.8375 4.52504 2.4 -34.1358 8.23136e+06 1.02242e+07 6.77776e+06 1.21838e+06 387965 258389
67 3 O -1.20726 78.8862 4.43843 -1.2 -9.00915 -2.71198e+06 -3.40609e+06 -3.18587e+06 -527911 437755 -836256
68 3 O 1.29737 75.201 4.74667 -1.2 -9.22253 -1.20098e+06 -3.69411e+06 -3.47234e+06 -1.01456e+06 209581 -477560
69 3 O 1.02403 78.2194 3.28645 -1.2 -8.5822 -4.90257e+06 -4.10206e+06 -3.07756e+06 160262 145189 -1.72985e+06
70 3 O 1.09671 78.1985 5.78714 -1.2 -8.84936 -3.55033e+06 -3.36647e+06 -2.91034e+06 472361 1.24355e+06 -332577
71 1 Mg -0.0887569 74.5855 3.29726 1.2 -7.69532 -1.13442e+06 4.42833e+06 -1.76322e+06 481863 -652071 2.95206e+06
72 1 Mg 0.0581215 71.8107 4.63509 1.2 -7.9485 675310 680769 2.09251e+06 -1.32741e+06 367226 1.16614e+06
73 2 Si 2.04845 73.6782 4.7316 2.4 -32.5045 958625 1.18975e+07 8.35323e+06 -959913 1306.01 645304
74 3 O -1.23716 73.7386 4.57617 -1.2 -9.97067 -5.33264e+06 -4.50729e+06 -4.80236e+06 -350326 879144 -406331
75 3 O 1.13549 70.046 4.71485 -1.2 -9.32882 -1.22086e+06 -4.34493e+06 -1.92387e+06 1.46385e+06 475536 -1.67651e+06
76 3 O 1.31694 72.9948 3.48978 -1.2 -9.54297 -3.46549e+06 -4.654e+06 -2.52104e+06 -577032 158426 -857151
77 1 Mg 0.0327131 74.4649 0.214491 1.2 -7.23002 -1.20792e+06 4.5591e+06 -580180 1.08876e+06 1.58957e+06 -338047
78 3 O 1.40685 73.0172 6.04876 -1.2 -9.16644 -2.42582e+06 -3.92017e+06 -1.83581e+06 -1.24334e+06 -718156 -1.46146e+06
79 1 Mg 0.023744 77.4797 1.63367 1.2 -8.14807 2.09348e+06 1.98612e+06 2.18499e+06 -1.01359e+06 113267 269033
80 2 Si -2.05844 75.6603 1.64998 2.4 -33.0257 4.58825e+06 1.22183e+07 5.58222e+06 -355350 360100 3.39047e+06
81 3 O 1.16713 75.4729 1.76607 -1.2 -9.59352 -2.662e+06 -4.15838e+06 -1.91527e+06 629813 -99342.5 -1.39566e+06
82 3 O -1.07107 79.5045 1.43253 -1.2 -8.99736 -2.45772e+06 -4.73741e+06 -4.23953e+06 1.54015e+06 -148170 -241453
83 3 O -1.38813 76.2834 0.442864 -1.2 -9.64628 -1.62249e+06 -4.48879e+06 -4.2739e+06 -201006 -135360 523859
84 3 O -1.36696 76.3788 2.9436 -1.2 -8.87729 -3.04737e+06 -3.77876e+06 -1.31152e+06 501501 700328 -1.67455e+06
85 1 Mg -2.45733 79.8658 0.0405959 1.2 -7.743 -1.93538e+06 3.50238e+06 -418107 -1.05325e+06 -2.11912e+06 -1.15743e+06
86 1 Mg 2.22974 82.863 1.38166 1.2 -8.21928 1.48095e+06 1.86089e+06 1.96223e+06 692226 -448863 167597
87 2 Si -0.372511 80.973 1.45284 2.4 -32.8523 7.91036e+06 1.07774e+07 7.83532e+06 131929 652778 -336653
88 3 O 1.28391 80.9163 1.54131 -1.2 -9.47157 -299975 -3.59095e+06 -3.97506e+06 12973.5 353609 188728
89 3 O -1.40038 84.6965 1.27876 -1.2 -9.19943 -2.03705e+06 -3.16152e+06 -1.75483e+06 -644197 6672.18 -488278
90 3 O -1.05607 81.6146 0.181494 -1.2 -9.32907 -2.67495e+06 -4.92663e+06 -1.89916e+06 -396269 1.64035e+06 1.25795e+06
91 1 Mg -2.42856 90.3695 2.78504 1.2 -8.08676 -389307 4.18298e+06 -1.25687e+06 -752619 1.44681e+06 1.45619e+06
92 3 O -1.03206 81.536 2.81135 -1.2 -9.15928 -4.22214e+06 -5.70857e+06 -1.23109e+06 -955299 -1.60499e+06 -1.15712e+06
93 1 Mg -2.29231 87.6217 4.38351 1.2 -8.55051 2.2135e+06 1.47468e+06 2.06079e+06 232167 221744 -341797
94 2 Si 0.261781 89.4524 4.40603 2.4 -33.3828 4.9234e+06 1.13807e+07 8.73653e+06 653755 593435 -599570
95 3 O -1.29739 89.4475 4.37115 -1.2 -9.77302 -3.10633e+06 -3.67359e+06 -3.17384e+06 291105 872169 -59940.4
96 3 O 1.35195 85.5828 4.50551 -1.2 -8.86412 -4.27943e+06 -6.16761e+06 -2.72758e+06 416330 -138414 -526975
97 3 O 0.886448 88.7472 3.11412 -1.2 -8.78942 -3.05263e+06 -5.30704e+06 -1.97854e+06 120823 -706038 -763347
98 3 O 0.980137 88.7703 5.69695 -1.2 -8.90308 -1.8032e+06 -3.43425e+06 -1.75762e+06 -404302 1.20683e+06 -837358
99 1 Mg -0.0399319 85.1197 2.94322 1.2 -7.95693 422031 4.07688e+06 591635 1.37313e+06 -1.75444e+06 1.64458e+06
100 1 Mg -0.119297 82.2432 4.42534 1.2 -8.29549 2.1257e+06 1.92132e+06 1.91562e+06 -1.5734e+06 -230426 -234521
101 2 Si 1.92782 84.1673 4.47314 2.4 -33.7158 5.82659e+06 1.02322e+07 7.58783e+06 853710 107236 -1.26538e+06
102 3 O -1.24699 84.1681 4.45297 -1.2 -9.06805 -1.47187e+06 -4.19125e+06 -2.43756e+06 675185 218404 378938
103 3 O 1.04523 80.3882 4.49266 -1.2 -8.79941 -1.68984e+06 -3.68016e+06 -2.47091e+06 1.40114e+06 -48324.7 -998023
104 3 O 1.29464 83.538 3.14184 -1.2 -9.23239 -2.7686e+06 -4.37878e+06 -161511 39774.5 -84149.2 -935794
105 1 Mg -0.0974517 85.3339 -0.274592 1.2 -7.72109 409243 4.16289e+06 567850 977432 1.29608e+06 -929326
106 3 O 1.39395 83.4304 5.8633 -1.2 -8.80832 -3.80391e+06 -2.89307e+06 540717 -453589 -50946.8 731832
107 1 Mg 0.00953427 88.0806 1.43339 1.2 -8.46303 2.23074e+06 1.39701e+06 2.56848e+06 -1.07698e+06 -326245 -447971
108 2 Si -2.05407 86.1903 1.40162 2.4 -33.626 6.73411e+06 1.03881e+07 8.30959e+06 -675218 360670 408655
109 3 O 1.10959 86.1947 1.45682 -1.2 -9.19726 -1.10488e+06 -2.9346e+06 -3.05252e+06 -74983.8 -186065 -396387
110 3 O -1.07938 89.9378 1.39875 -1.2 -8.99841 -3.75681e+06 -5.57427e+06 -2.6725e+06 1.10333e+06 -190357 -1.16383e+06
111 3 O -1.40781 86.9598 0.186144 -1.2 -9.19455 -3.5391e+06 -3.85243e+06 -1.70284e+06 -1689.66 -673679 612630
112 3 O -1.46792 86.777 2.77855 -1.2 -8.83063 -4.18094e+06 -2.52507e+06 -2.00989e+06 -414150 671266 40992
113 1 Mg -2.42567 90.3866 -0.214255 1.2 -7.68351 -1.39473e+06 4.42516e+06 152278 -1.34963e+06 -1.50593e+06 -1.86312e+06
114 1 Mg 2.28396 93.2628 1.35451 1.2 -8.60682 1.7852e+06 978359 2.55399e+06 989007 -193932 -52756.4
115 2 Si -0.426008 91.4145 1.28392 2.4 -33.5451 7.32635e+06 1.02755e+07 7.05313e+06 -492.382 438170 -560676
116 3 O 1.13986 91.3018 1.38023 -1.2 -9.17391 -2.10509e+06 -4.11915e+06 -3.59161e+06 -871956 558367 -78547.5
117 3 O -1.53092 95.1628 1.44117 -1.2 -9.01491 -4.11282e+06 -3.47944e+06 -3.73538e+06 -1.95689e+06 -463166 930402
118 3 O -1.18036 92.0677 0.0411826 -1.2 -9.25536 -3.00639e+06 -2.53158e+06 -3.33612e+06 -257006 1.23887e+06 776207
119 1 Mg -2.38042 101.101 2.90689 1.2 -8.32737 1.21053e+06 4.08809e+06 402268 -438019 561590 1.02339e+06
120 3 O -1.10263 92.0839 2.55629 -1.2 -8.82531 -4.8397e+06 -4.6847e+06 -2.45212e+06 -182293 -1.02831e+06 -1.8242e+06
121 1 Mg -2.51376 97.9045 4.35763 1.2 -8.84667 2.64569e+06 1.131e+06 2.53278e+06 881923 69603.5 -1.07028e+06
122 2 Si 0.158775 99.7853 4.36873 2.4 -34.4225 7.94458e+06 1.04852e+07 8.8408e+06 336908 -487553 -177815
123 3 O -1.38949 99.9169 4.40793 -1.2 -8.96848 -3.18776e+06 -2.95332e+06 -3.16259e+06 -829608 564092 -426544
124 3 O 1.31512 96.0285 4.30758 -1.2 -8.63611 -3.36998e+06 -5.7466e+06 -3.05222e+06 -729730 -698153 605922
125 3 O 0.771793 99.0485 3.08554 -1.2 -8.05761 -3.97613e+06 -2.27505e+06 -1.57623e+06 -53378.2 -737911 419066
126 3 O 0.879121 99.1804 5.65647 -1.2 -8.94513 -3.38046e+06 -3.12878e+06 -3.17468e+06 -314256 842164 1.29966e+06
127 1 Mg -0.224329 95.5695 2.81047 1.2 -8.07889 -449155 4.08391e+06 -390321 383011 -1.50166e+06 869476
128 1 Mg -0.247024 92.6255 4.27522 1.2 -8.62304 2.77225e+06 663682 2.36185e+06 -715165 -209237 266217
129 2 Si 1.98429 94.6225 4.29285 2.4 -34.5926 8.16502e+06 8.78553e+06 1.02001e+07 806007 536159 -437634
130 3 O -1.18781 94.6178 4.31473 -1.2 -8.99409 -3.52528e+06 -2.51148e+06 -3.93059e+06 124675 949847 55418.7
131 3 O 0.98105 90.8985 4.30768 -1.2 -9.02961 -644811 -5.6361e+06 -3.71195e+06 932624 88316.6 -844769
132 3 O 1.26646 93.878 3.05831 -1.2 -8.46167 -2.90433e+06 -3.28749e+06 -2.42067e+06 220111 1.1783e+06 -530979
133 1 Mg -0.151375 95.5032 -0.0389406 1.2 -8.03356 -815902 3.18346e+06 510408 1.11511e+06 1.62369e+06 -2.35161e+06
134 3 O 1.39789 93.9335 5.69203 -1.2 -8.0874 -3.7705e+06 -2.47927e+06 -2.0252e+06 -318595 -1.29975e+06 299667
135 1 Mg -0.233173 98.3861 1.30487 1.2 -8.95587 1.68617e+06 267364 3.28371e+06 -1.51091e+06 181103 715021
136 2 Si -2.21932 96.6973 1.34401 2.4 -33.7951 6.96755e+06 9.46781e+06 9.05968e+06 -1.00249e+06 -602880 -912363
137 3 O 0.978457 96.58 1.29885 -1.2 -9.08942 -2.18512e+06 -4.35001e+06 -4.67375e+06 633044 -278692 257175
138 3 O -0.975649 100.442 1.33456 -1.2 -8.70514 -3.82978e+06 -4.00203e+06 -2.19367e+06 1.60982e+06 -489358 1.03983e+06
139 3 O -1.49383 97.2233 -0.0121651 -1.2 -8.77378 -4.61485e+06 -1.92899e+06 -2.70482e+06 331700 -1.14597e+06 75247.8
140 3 O -1.54803 97.4353 2.51935 -1.2 -8.7591 -5.43346e+06 -3.65115e+06 -3.05587e+06 -503385 366418 -653989
141 1 Mg -2.443 100.74 -0.12614 1.2 -8.20475 630092 3.55389e+06 1.25937e+06 -131040 -660651 -1.48907e+06
142 1 Mg 7.02721 103.797 1.29976 1.2 -9.30818 3.09531e+06 141195 2.71585e+06 610037 -133794 350120
143 2 Si -0.326193 101.896 1.28807 2.4 -34.6716 7.69816e+06 1.07397e+07 8.97843e+06 -933256 767975 48664.1
144 3 O 1.21691 101.904 1.40131 -1.2 -8.89356 -3.69257e+06 -3.50197e+06 -3.32623e+06 -807157 682108 24884.1
145 3 O 3.18668 105.701 1.43205 -1.2 -8.43449 -4.66073e+06 -4.16419e+06 -2.47946e+06 -866191 -28690.6 -171583
146 3 O -1.07451 102.62 0.0563828 -1.2 -8.36447 -3.21503e+06 -1.71181e+06 -3.69677e+06 -313848 980675 171465
147 1 Mg 2.24228 111.355 2.69108 1.2 -8.21938 -215542 3.6364e+06 -159625 -596791 697897 1.86408e+06
148 3 O -1.03781 102.708 2.55685 -1.2 -8.12621 -5.03716e+06 -2.12889e+06 -2.72464e+06 -188673 -1.59385e+06 84528.6
149 1 Mg 2.32798 108.545 4.33083 1.2 -8.70783 3.01422e+06 831549 3.02758e+06 483622 -164562 844522
150 2 Si 4.90043 110.453 4.13646 2.4 -34.4953 4.93996e+06 1.0029e+07 8.76012e+06 -82057.7 227943 854135
151 3 O 3.39531 110.517 4.09464 -1.2 -9.1488 -5.57178e+06 -3.67466e+06 -4.33849e+06 -52819.5 -354969 -318918
152 3 O 6.18241 106.631 4.23373 -1.2 -8.78046 -2.43512e+06 -4.50319e+06 -2.62531e+06 -100221 45169.6 -279674
153 3 O 5.60561 109.739 2.89878 -1.2 -8.45333 -4.05316e+06 -2.82331e+06 -4.3451e+06 -439891 -925099 -510382
154 3 O 5.60376 109.745 5.37546 -1.2 -8.46836 -3.31088e+06 -2.47774e+06 -4.50567e+06 -330188 734770 55470
155 1 Mg 4.66933 106.096 2.80735 1.2 -8.33863 943800 4.25877e+06 -394057 508900 -906326 1.74169e+06
156 1 Mg -0.189265 103.24 4.31821 1.2 -9.04675 3.0835e+06 547306 2.82207e+06 -565376 -284757 -37491.2
157 2 Si 6.76865 105.132 4.2767 2.4 -34.7556 5.33898e+06 9.31357e+06 8.06884e+06 229695 465240 1.0766e+06
158 3 O 3.55017 105.178 4.33822 -1.2 -9.03517 -5.15076e+06 -3.09053e+06 -4.62065e+06 771768 22120.8 -282329
159 3 O 0.807097 101.332 4.32309 -1.2 -8.56282 -2.79451e+06 -2.79034e+06 -2.23329e+06 1.12012e+06 -236849 206533
160 3 O 6.07127 104.412 3.02743 -1.2 -7.93118 -4.35746e+06 -3.15333e+06 -4.54564e+06 -695323 999312 -367862
161 1 Mg 4.71276 106.118 -0.124784 1.2 -8.10108 -107098 3.28163e+06 858747 423842 981026 -1.82547e+06
162 3 O 6.09886 104.451 5.47395 -1.2 -8.59178 -4.321e+06 -2.66059e+06 -6.15865e+06 129629 314677 611813
163 1 Mg 4.68877 109.008 1.22396 1.2 -8.65978 1.74316e+06 343134 3.18572e+06 -731974 -104305 96805.9
164 2 Si 2.5783 107.216 1.32564 2.4 -34.1106 6.86835e+06 9.84721e+06 9.18635e+06 728805 206729 -86396
165 3 O 5.78476 106.986 1.32027 -1.2 -9.12087 -3.74917e+06 -3.56143e+06 -4.6181e+06 1.88211e+06 -116578 -139408
166 3 O 3.71331 110.858 1.12838 -1.2 -8.93446 -3.26679e+06 -3.83652e+06 -4.58013e+06 1.38671e+06 -760003 322622
167 3 O 3.2877 107.843 0.0134725 -1.2 -8.95739 -3.19119e+06 -2.07068e+06 -4.39862e+06 329091 -1.83443e+06 387281
168 3 O 3.33922 107.918 2.53212 -1.2 -8.54561 -3.15823e+06 -3.95618e+06 -2.4525e+06 -754405 1.0377e+06 -1.09698e+06
169 1 Mg 2.40069 111.24 -0.267645 1.2 -7.87513 -748431 3.17078e+06 478574 -908955 -2.08055e+06 -1.10553e+06
170 1 Mg 7.03117 114.262 1.23403 1.2 -8.47674 995960 310776 2.65022e+06 1.17182e+06 -463398 847460
171 2 Si 4.34271 112.371 1.17248 2.4 -33.6102 6.92703e+06 8.18925e+06 9.92846e+06 -179300 188702 -214215
172 3 O 5.90205 112.352 1.26313 -1.2 -9.23181 -2.46237e+06 -2.44431e+06 -4.61746e+06 -965775 -286447 -199353
173 3 O 3.31652 116.089 1.32586 -1.2 -9.2881 -1.4921e+06 -3.6818e+06 -5.04226e+06 -1.60719e+06 293272 -219041
174 3 O 3.69505 112.991 -0.179118 -1.2 -8.98198 -2.8263e+06 -2.96441e+06 -3.20371e+06 132304 1.30505e+06 898740
175 1 Mg 2.19798 122.008 2.87552 1.2 -7.82951 -919328 4.40071e+06 221936 -909086 1.79439e+06 682961
176 3 O 3.60474 113.012 2.40231 -1.2 -8.8429 -4.18695e+06 -2.76336e+06 -2.82348e+06 461763 -567255 -574338
177 1 Mg 2.2537 119.036 4.24054 1.2 -8.83508 1.99766e+06 918043 2.55473e+06 1.07911e+06 -203488 256963
178 2 Si 4.9378 120.879 4.26423 2.4 -33.9912 7.2905e+06 9.63726e+06 8.87719e+06 -346139 668653 -517992
179 3 O 3.39172 121.094 4.36903 -1.2 -9.03109 -2.9793e+06 -3.43196e+06 -3.54992e+06 -1.49164e+06 -429397 138574
180 3 O 5.94711 117.138 4.39516 -1.2 -8.54207 -5.04812e+06 -3.72544e+06 -4.54208e+06 -1.9662e+06 1.59377e+06 1.14471e+06
181 3 O 5.67861 120.162 3.09726 -1.2 -9.11681 -3.08825e+06 -3.51908e+06 -3.69352e+06 401288 -906557 -922628
182 3 O 5.60634 120.295 5.65277 -1.2 -8.44389 -3.29547e+06 -3.07046e+06 -513971 440291 1.04684e+06 307128
183 1 Mg 4.65847 116.683 2.7615 1.2 -7.79847 -213919 3.42113e+06 -44861.5 1.02858e+06 -1.91691e+06 1.91956e+06
184 1 Mg 4.64167 113.881 4.18203 1.2 -8.46397 1.9499e+06 1.10302e+06 4.08329e+06 -1.20864e+06 -125587 545512
185 2 Si 6.67685 115.621 4.31192 2.4 -33.5602 5.67214e+06 1.09591e+07 8.19778e+06 -525667 -593037 1.33673e+06
186 3 O 3.47587 115.737 4.25616 -1.2 -9.27639 -2.2735e+06 -4.35288e+06 -4.14725e+06 96010.7 -1.25919e+06 96884
187 3 O 5.59814 111.919 4.17388 -1.2 -8.65355 -3.05205e+06 -3.99249e+06 -3.75188e+06 843481 301883 194268
188 3 O 6.08791 114.956 2.96912 -1.2 -9.0848 -3.2184e+06 -2.38267e+06 -1.97619e+06 -286505 860164 -547093
189 1 Mg 4.85437 116.393 -0.099497 1.2 -7.80169 -1.29865e+06 3.27601e+06 379221 951281 757883 -1.12647e+06
190 3 O 5.95091 115.008 5.53803 -1.2 -8.90933 -3.98803e+06 -5.39384e+06 -2.99718e+06 -196324 -250975 973482
191 1 Mg 4.82131 119.553 1.29255 1.2 -8.33577 2.43322e+06 440539 2.79976e+06 -725312 164581 529985
192 2 Si 2.67947 117.583 1.28133 2.4 -33.2183 5.70138e+06 9.27174e+06 1.04424e+07 -325974 155818 816400
193 3 O 5.83695 117.638 1.27221 -1.2 -9.5912 -1.48322e+06 -1.87012e+06 -4.53051e+06 238036 -724737 -22645.5
194 3 O 3.68829 121.373 1.45934 -1.2 -9.39182 -1.3809e+06 -2.38785e+06 -2.06075e+06 393545 36835.9 -744723
195 3 O 3.37712 118.305 0.105936 -1.2 -9.12855 -3.48526e+06 -2.00857e+06 -3.34338e+06 307308 -159109 327123
196 3 O 3.26923 118.212 2.71101 -1.2 -8.70542 -2.73048e+06 -2.45596e+06 -2.39279e+06 436067 964742 726638
197 1 Mg 2.29436 121.939 -0.190652 1.2 -7.73176 -1.08449e+06 3.42176e+06 896977 -1.68223e+06 -1.57599e+06 -2.0223e+06
198 1 Mg 6.982 124.738 1.25131 1.2 -8.9359 2.06277e+06 -262042 1.64748e+06 1.4677e+06 -838327 1.02554e+06
199 2 Si 4.31907 122.855 1.20152 2.4 -33.1376 5.42214e+06 1.14697e+07 9.40567e+06 235842 -801460 -1.13483e+06
200 3 O 5.86051 122.894 1.17327 -1.2 -9.478 -2.01269e+06 -4.3686e+06 -4.23771e+06 -231083 -158099 -290959
201 3 O 3.26278 126.752 1.30754 -1.2 -8.72711 -4.82213e+06 -4.5921e+06 -2.63629e+06 -709238 -426333 -468735
202 3 O 3.68089 123.519 -0.182967 -1.2 -8.90767 -4.20911e+06 -1.42917e+06 -3.2406e+06 -411132 1.55615e+06 -2.08108e+06
203 1 Mg 2.10551 132.539 3.09317 1.2 -8.08303 230637 3.74049e+06 88608.2 -344347 762813 641215
204 3 O 3.58131 123.724 2.36187 -1.2 -8.87801 -4.45535e+06 -3.09207e+06 -2.27131e+06 215848 -701507 353899
205 1 Mg 2.05111 129.371 4.31204 1.2 -8.7601 1.89429e+06 346210 2.017e+06 593173 -157671 270217
206 2 Si 4.74868 131.314 4.48487 2.4 -34.1847 7.79646e+06 9.2909e+06 8.46284e+06 -107704 -459266 -169515
207 3 O 3.24703 131.623 4.54239 -1.2 -9.00301 -4.53756e+06 -2.80091e+06 -3.23205e+06 -1.9067e+06 -620598 724571
208 3 O 5.86623 127.575 4.25812 -1.2 -9.09856 -3.78459e+06 -3.39566e+06 -3.98135e+06 -439266 -341438 459709
209 3 O 5.55051 130.656 3.26768 -1.2 -8.77237 -2.64099e+06 -2.38386e+06 -4.50477e+06 -51378.7 -1.55559e+06 -117087
210 3 O 5.43301 130.715 5.75327 -1.2 -8.48644 -3.73384e+06 -3.75033e+06 -3.20096e+06 135917 627267 1.46646e+06
211 1 Mg 4.49915 127.023 2.82675 1.2 -7.97564 243419 3.83001e+06 -192379 954896 -2.47975e+06 1.97001e+06
212 1 Mg 4.51193 124.126 4.14017 1.2 -8.3519 2.81958e+06 253654 3.46329e+06 -811330 -537234 -878753
213 2 Si 6.54545 126.108 4.3818 2.4 -33.9341 4.06371e+06 9.84899e+06 1.12345e+07 -75404.3 163628 725805
214 3 O 3.31725 126.214 4.3626 -1.2 -9.18537 -3.28241e+06 -3.5688e+06 -4.26847e+06 -377419 -359963 -119050
215 3 O 5.56668 122.382 4.17821 -1.2 -8.86992 -4.20027e+06 -4.82773e+06 -3.3067e+06 626758 1.34405e+06 250488
216 3 O 6.02676 125.263 3.03415 -1.2 -8.54631 -3.27559e+06 -1.58956e+06 -774039 -16073.8 -166961 449390
217 1 Mg 4.78086 127.293 -0.205206 1.2 -8.07864 -674277 4.31685e+06 -283672 444765 1.20885e+06 -1.59678e+06
218 3 O 5.96505 125.49 5.71262 -1.2 -8.66597 -3.81051e+06 -3.09866e+06 -1.89021e+06 -789791 -105539 220744
219 1 Mg 4.51144 130.077 1.58176 1.2 -8.71114 2.41151e+06 764711 2.12541e+06 -1.46254e+06 8361.4 -626039
220 2 Si 2.59205 128.187 1.37236 2.4 -33.9818 6.89587e+06 1.06037e+07 7.67297e+06 264915 -703493 46377.3
221 3 O 5.78087 128.037 1.37761 -1.2 -9.0047 -2.44189e+06 -4.43717e+06 -3.01202e+06 507785 -367517 -255661
222 3 O 3.58764 132.01 1.61929 -1.2 -8.61414 -3.47975e+06 -3.94796e+06 -3.95098e+06 1.16692e+06 141519 808337
223 3 O 3.21711 128.988 0.132844 -1.2 -8.80166 -3.30033e+06 -3.69735e+06 -2.05191e+06 -63361.1 -818545 826638
224 3 O 3.21682 128.892 2.69049 -1.2 -8.86394 -3.75009e+06 -2.17519e+06 -2.65004e+06 -11999.4 625624 251135
225 1 Mg 2.25949 132.354 0.17061 1.2 -8.32024 410276 3.69982e+06 -189465 -1.01649e+06 -1.7845e+06 -1.89778e+06
226 1 Mg 6.7 135.396 1.5671 1.2 -8.51189 1.87066e+06 1.19193e+06 1.44605e+06 608463 216190 178235
227 2 Si 4.22174 133.529 1.51598 2.4 -34.1801 6.58496e+06 1.01914e+07 8.3542e+06 -590510 -160202 -618858
228 3 O 5.78602 133.434 1.55231 -1.2 -9.19172 -3.1996e+06 -3.67694e+06 -3.61896e+06 -1.05456e+06 -506902 140440
229 3 O 3.16325 137.18 1.52977 -1.2 -8.97911 -2.27843e+06 -4.21274e+06 -3.29696e+06 -467795 -276053 422360
230 3 O 3.61822 133.963 0.101279 -1.2 -8.36403 -4.53187e+06 -4.90951e+06 -3.9729e+06 -358197 1.73953e+06 1.08943e+06
231 1 Mg 2.21012 142.751 3.07506 1.2 -8.03091 -405731 3.87136e+06 621517 -930816 1.13049e+06 2.29653e+06
232 3 O 3.47452 134.28 2.65873 -1.2 -8.88964 -2.843e+06 -4.39884e+06 -2.00715e+06 -72639.9 -494900 -1.2593e+06
233 1 Mg 2.33716 139.964 4.5298 1.2 -8.03899 1.84072e+06 1.8439e+06 2.87581e+06 1.13326e+06 287240 684648
234 2 Si 4.93276 141.875 4.64069 2.4 -33.5757 6.15374e+06 9.64433e+06 8.36245e+06 -172944 758379 699378
235 3 O 3.39397 141.956 4.55252 -1.2 -9.16807 -2.52713e+06 -4.21245e+06 -3.78345e+06 362508 73104.5 -479220
236 3 O 5.94492 138.107 4.5251 -1.2 -9.30862 -1.04784e+06 -4.71971e+06 -2.36201e+06 -390886 207487 -451616
237 3 O 5.56284 141.151 3.37541 -1.2 -9.33402 -4.11512e+06 -3.27587e+06 -2.25706e+06 1363.04 -635644 -1.88259e+06
238 3 O 5.5258 141.253 6.0251 -1.2 -8.88171 -3.43672e+06 -3.70803e+06 -1.62338e+06 -532667 621536 333040
239 1 Mg 4.39266 137.59 3.00148 1.2 -7.66413 -262184 4.2996e+06 -610769 1.23372e+06 -1.27993e+06 1.3484e+06
240 1 Mg 4.44162 134.76 4.61395 1.2 -8.19679 1.34727e+06 1.6188e+06 3.85396e+06 -851815 5692.07 -134955
241 2 Si 6.53234 136.597 4.56664 2.4 -33.1143 6.53577e+06 9.56036e+06 7.10657e+06 -639196 1.37409e+06 -62549.2
242 3 O 3.37653 136.636 4.58441 -1.2 -9.44208 -1.07836e+06 -2.8539e+06 -3.98886e+06 833797 305236 -288876
243 3 O 5.43629 132.882 4.53007 -1.2 -8.8254 -3.61711e+06 -2.76472e+06 -3.27946e+06 1.02724e+06 -69632.9 878598
244 3 O 5.84394 135.987 3.27769 -1.2 -9.09638 -3.49299e+06 -4.28268e+06 -2.37802e+06 28398.3 1.01998e+06 -1.71947e+06
245 1 Mg 4.60191 137.654 0.052172 1.2 -7.99512 274029 4.5343e+06 -602822 812403 1.39196e+06 -866490
246 3 O 5.88434 135.982 5.84759 -1.2 -9.42815 -5.09411e+06 -4.63521e+06 -4.05949e+06 532454 -1.32861e+06 2.25461e+06
247 1 Mg 4.76752 140.447 1.72468 1.2 -8.39316 1.23685e+06 461749 1.15814e+06 -1.07744e+06 -61167.8 218643
248 2 Si 2.5058 138.723 1.45621 2.4 -33.4551 3.95583e+06 1.16783e+07 7.12815e+06 243208 -757627 1.14395e+06
249 3 O 5.73068 138.607 1.54276 -1.2 -9.54693 -3.57896e+06 -4.39767e+06 -3.33783e+06 965500 -399876 67973.6
250 3 O 3.60044 142.307 1.54766 -1.2 -8.88689 -1.45088e+06 -5.4975e+06 -3.96947e+06 1.30153e+06 204893 -896311
251 3 O 3.15776 139.22 0.149885 -1.2 -8.77673 -2.9225e+06 -5.38019e+06 -3.31321e+06 -910112 -359201 117140
252 3 O 3.17526 139.442 2.71174 -1.2 -9.27621 -3.0954e+06 -3.73906e+06 -1.7361e+06 -483603 602157 -1.1563e+06
253 1 Mg 2.1758 142.94 0.09744 1.2 -8.04097 -1.76958e+06 3.83268e+06 -462826 -1.04735e+06 -1.38355e+06 -1.16353e+06
254 1 Mg 6.90321 145.735 1.79789 1.2 -8.35861 1.49741e+06 795107 3.22536e+06 534148 718867 -414917
255 2 Si 4.29663 143.751 1.49656 2.4 -33.2659 5.92591e+06 1.007e+07 9.56183e+06 289647 -1.04135e+06 1.13901e+06
256 3 O 5.83382 143.777 1.52083 -1.2 -9.62163 -3.30188e+06 -3.1829e+06 -4.0856e+06 -294838 324863 -690833
257 3 O 3.2094 147.479 1.81316 -1.2 -9.16113 -2.74256e+06 -1.99817e+06 -3.06921e+06 -2.24028e+06 -545637 633247
258 3 O 3.58658 144.387 0.222338 -1.2 -9.04362 -3.59688e+06 -4.51574e+06 -2.1569e+06 -162583 987742 524497
259 1 Mg 1.49239 152.931 1.71653 1.2 -7.37785 -212205 -946222 3.72282e+06 330666 -200607 940112
260 3 O 3.54605 144.399 2.88821 -1.2 -8.69137 -2.28985e+06 -3.32806e+06 -892327 -644608 -1.29965e+06 -737566
261 1 Mg 1.74921 150.469 4.78132 1.2 -7.98221 1.87972e+06 4.69771e+06 1.06518e+06 -788573 986198 888410
262 2 Si 3.62731 151.418 3.04026 2.4 -33.1278 8.29969e+06 7.55281e+06 8.16251e+06 -1.29958e+06 466625 -316045
263 3 O 2.47055 152.384 3.42912 -1.2 -8.56185 -3.79738e+06 -1.00698e+06 -2.89533e+06 -26800.1 1.11586e+06 -1.85074e+06
264 3 O 5.90187 148.381 4.57784 -1.2 -9.04894 -2.65797e+06 -3.71109e+06 -1.94543e+06 -316769 528543 -1.15139e+06
265 3 O 4.48945 152.08 1.79923 -1.2 -9.05617 -4.23265e+06 137180 -3.5523e+06 1.60858e+06 -626929 -1.28955e+06
266 3 O 4.52697 151.147 4.31802 -1.2 -8.84938 -2.3971e+06 -4.60316e+06 -1.86639e+06 -1.31801e+06 110499 916771
267 1 Mg 4.66399 147.752 3.05942 1.2 -7.75014 -1.12319e+06 2.96436e+06 453944 1.01176e+06 -1.82648e+06 903092
268 1 Mg 4.57223 144.98 4.58554 1.2 -8.60672 2.09382e+06 -332252 1.97363e+06 -566202 134047 622189
269 2 Si 6.58523 146.878 4.82532 2.4 -33.4727 6.72433e+06 1.1105e+07 6.46365e+06 -846951 -91190.6 422793
270 3 O 3.37286 146.983 4.72933 -1.2 -9.2118 -2.51954e+06 -4.17886e+06 -3.0419e+06 216373 -1.32279e+06 -397607
271 3 O 5.62723 143.324 4.6783 -1.2 -8.93834 -4.66708e+06 -5.54003e+06 -2.74896e+06 789890 -58361.4 613209
272 3 O 5.92992 146.125 3.53017 -1.2 -9.02327 -3.96093e+06 -4.86573e+06 -1.46137e+06 266308 1.12905e+06 -1.03656e+06
273 1 Mg 4.51327 147.955 -0.045031 1.2 -7.95312 -1.71043e+06 2.81039e+06 858076 516863 1.16487e+06 -1.68888e+06