ITEM: TIMESTEP
27200
ITEM: NUMBER OF ATOMS
5600
ITEM: BOX BOUNDS xy xz yz pp pp pp
0.0000000000000000e+00 7.1234999999999999e+00 0.0000000000000000e+00
0.0000000000000000e+00 2.0198500000000001e+02 2.3744999999999998e+00
0.0000000000000000e+00 1.1958400000000000e+02 0.0000000000000000e+00
ITEM: ATOMS id type element xu yu zu q c_pe c_s[1] c_s[2] c_s[3] c_s[4] c_s[5] c_s[6]
1 1 Mg -1.5582 49.2397 -1.26443 1.2 -7.24318 -1.22542e+06 -752418 2.57318e+06 -270841 -4145.86 -130724
2 1 Mg 2.99159 50.866 2.08657 1.2 -7.99504 -1.4216e+06 5.35758e+06 -704796 -167102 -304732 -88810.3
3 2 Si 0.887377 50.7718 0.106323 2.4 -33.0347 8.79808e+06 9.23991e+06 7.20355e+06 -1.4899e+06 -647334 888880
4 3 O 2.24269 49.9584 0.400406 -1.2 -8.79865 -2.86887e+06 -2.56615e+06 -2.86318e+06 -603080 -429205 1.80043e+06
5 3 O -1.21827 53.3811 1.49388 -1.2 -8.89233 -1.91744e+06 -4.97425e+06 -880593 -965471 323398 -396345
6 3 O 0.137566 50.094 -1.08611 -1.2 -9.50205 -5.52416e+06 -1.98312e+06 -3.83261e+06 1.01035e+06 289491 771245
7 1 Mg -2.48051 59.1493 3.12859 1.2 -8.11448 -1.06648e+06 5.05286e+06 -1.93579e+06 -623548 1.24771e+06 1.86275e+06
8 3 O 0.126181 50.7921 1.54166 -1.2 -9.0115 -4.10038e+06 -5.2231e+06 513156 -217000 -1.36557e+06 -1.06795e+06
9 1 Mg -2.24544 56.2803 4.66814 1.2 -8.25882 1.3903e+06 2.38796e+06 1.96494e+06 436850 -376500 647431
10 2 Si 0.293276 58.1398 4.62864 2.4 -32.6659 6.67098e+06 1.32721e+07 7.15101e+06 -670655 417975 -374977
11 3 O -1.26326 58.2228 4.56287 -1.2 -9.6471 -1.19663e+06 -4.42883e+06 -3.58214e+06 -965346 86410.2 557227
12 3 O 1.62926 54.029 4.74672 -1.2 -9.19597 -4.30775e+06 -4.70764e+06 -1.08326e+06 -1.15861e+06 767556 -1.42543e+06
13 3 O 1.07001 57.4204 3.40546 -1.2 -9.18652 -3.39001e+06 -3.19961e+06 -2.06869e+06 -915455 -1.55338e+06 -633683
14 3 O 1.05198 57.4968 5.897 -1.2 -9.43253 -2.29434e+06 -2.52278e+06 -2.90851e+06 -614808 1.69045e+06 208221
15 1 Mg 0.175158 53.572 3.08029 1.2 -7.97458 832424 4.79965e+06 283430 -83196.4 -106020 1.33929e+06
16 1 Mg 0.949192 50.0604 3.17681 1.2 -7.58835 -862545 2.53186e+06 -3.42989e+06 -405887 132243 992548
17 2 Si 2.40433 52.6942 4.79366 2.4 -33.1369 7.99921e+06 8.96071e+06 7.9504e+06 75151.1 1.14257e+06 -1.19081e+06
18 3 O -0.789829 52.901 4.70118 -1.2 -9.27438 -3.26048e+06 -4.41099e+06 -877440 297730 -60628.6 1.2273e+06
19 3 O 2.619 49.2029 3.22256 -1.2 -7.38705 -1.19303e+06 -786717 -1.41743e+06 530486 -98151.8 -593996
20 3 O 1.82865 51.9702 3.38259 -1.2 -8.88834 -2.24101e+06 -3.95085e+06 -1.10232e+06 -593237 824498 -65321.3
21 1 Mg 0.059812 54.066 0.0748554 1.2 -7.42727 -957421 4.32309e+06 -121183 1.67086e+06 2.10864e+06 -528450
22 3 O 2.00989 51.6187 5.96082 -1.2 -10.543 -3.76035e+06 306161 -3.79304e+06 859017 982720 -232193
23 1 Mg 0.177921 56.7903 1.72134 1.2 -8.42817 2.53992e+06 1.64597e+06 1.47721e+06 -1.08061e+06 -506096 -690881
24 2 Si -1.92954 54.8474 1.71209 2.4 -33.7147 4.8454e+06 1.26307e+07 6.4619e+06 -172847 1.06207e+06 222318
25 3 O 1.29796 54.8375 1.68962 -1.2 -9.4022 -3.70933e+06 -3.50064e+06 -2.33715e+06 4238.8 579106 16576.9
26 3 O -0.967615 58.6731 1.79287 -1.2 -9.06583 -840385 -4.64702e+06 -2.66828e+06 1.60074e+06 281651 -1.15659e+06
27 3 O -1.28438 55.7072 0.546868 -1.2 -9.21042 -3.66075e+06 -3.40352e+06 -2.06075e+06 -73074.7 -475118 771071
28 3 O -1.24213 55.4227 3.05676 -1.2 -8.70608 -2.49055e+06 -2.69059e+06 -1.86367e+06 -175406 567484 633670
29 1 Mg -2.22109 59.2331 0.18182 1.2 -7.7337 -1.71206e+06 4.00347e+06 687011 -841224 -1.11561e+06 -1.62129e+06
30 1 Mg 2.30155 62.1572 1.6287 1.2 -8.73479 2.38736e+06 527456 2.71906e+06 647275 -120990 612353
31 2 Si -0.265952 60.1759 1.72147 2.4 -33.6009 9.26394e+06 1.0249e+07 7.72951e+06 927530 -1.06073e+06 365880
32 3 O 1.37548 60.2413 1.69128 -1.2 -9.16248 -1.09847e+06 -2.72815e+06 -4.68338e+06 365191 116651 -294903
33 3 O -1.31147 63.9769 1.71128 -1.2 -8.83385 -3.02298e+06 -4.35501e+06 -3.62937e+06 -1.5527e+06 632323 -1.1943e+06
34 3 O -0.981128 60.8701 0.490286 -1.2 -9.09662 -4.20129e+06 -2.10162e+06 -5.18966e+06 -1.39257e+06 1.36765e+06 847323
35 1 Mg -2.46566 69.6948 3.09329 1.2 -8.38411 -472370 3.49869e+06 326742 -887979 1.56034e+06 1.5002e+06
36 3 O -0.891249 60.8349 3.0151 -1.2 -8.09412 -5.227e+06 -3.92078e+06 -3.80379e+06 -11305.9 -1.80925e+06 -600278
37 1 Mg -2.33564 66.8593 4.61435 1.2 -9.23068 3.00487e+06 472904 2.53679e+06 730162 -151962 426534
38 2 Si 0.315014 68.81 4.6825 2.4 -33.8854 8.46169e+06 1.03437e+07 9.23999e+06 213156 683084 50885.7
39 3 O -1.24475 68.7209 4.60869 -1.2 -9.07209 -2.28853e+06 -3.32934e+06 -3.76646e+06 436271 207116 482967
40 3 O 1.49072 64.9186 4.58533 -1.2 -8.53021 -3.93133e+06 -3.96865e+06 -2.96253e+06 -1.17884e+06 795287 324773
41 3 O 1.0018 67.977 3.41883 -1.2 -8.56493 -4.26662e+06 -442196 -2.54943e+06 -653705 -729002 1.36105e+06
42 3 O 1.03265 68.0757 5.92755 -1.2 -8.46989 -4.01161e+06 -2.10039e+06 -4.74426e+06 -873019 1.71397e+06 -387236
43 1 Mg -0.0523287 64.4516 3.20513 1.2 -8.29653 352365 3.87752e+06 -463940 320676 -1.06483e+06 1.66882e+06
44 1 Mg 0.0306 61.4806 4.65545 1.2 -9.02094 2.18204e+06 6116.86 958462 -648255 299950 973115
45 2 Si 2.09016 63.417 4.64447 2.4 -34.5032 8.31269e+06 1.03996e+07 7.29057e+06 252160 -1.02144e+06 729531
46 3 O -1.068 63.479 4.65341 -1.2 -8.84337 -2.47591e+06 -3.86885e+06 -3.72301e+06 844155 -851961 -517556
47 3 O 0.987995 59.7293 4.54208 -1.2 -8.92146 -3.95545e+06 -3.40985e+06 -2.63446e+06 2.94597e+06 246137 68132.2
48 3 O 1.49795 62.6417 3.45594 -1.2 -8.46905 -4.64492e+06 -4.087e+06 -3.10194e+06 -312160 274922 -1.7411e+06
49 1 Mg 0.0852402 64.2518 0.284804 1.2 -7.79146 -1.97518e+06 2.92281e+06 48900 775951 831177 -1.50093e+06
50 3 O 1.35401 62.8322 5.97568 -1.2 -8.63461 -3.42151e+06 -3.06046e+06 -2.58132e+06 -19192.6 -802478 -316653
51 1 Mg 0.059576 67.3034 1.71603 1.2 -8.66251 2.95269e+06 986848 3.83547e+06 -762615 10450.2 -531514
52 2 Si -2.08288 65.4558 1.5929 2.4 -33.897 6.91309e+06 9.28945e+06 9.27457e+06 -30097.7 165473 -701795
53 3 O 1.10821 65.2299 1.57866 -1.2 -9.32888 -3.46943e+06 -2.7703e+06 -4.56552e+06 -377431 -1.14759e+06 -319262
54 3 O -1.20367 69.1988 1.54316 -1.2 -8.26214 -3.02729e+06 -1.69961e+06 -3.98183e+06 1.53286e+06 125560 -1.2815e+06
55 3 O -1.41538 66.1906 0.387181 -1.2 -8.86635 -2.87695e+06 -2.54681e+06 -4.14807e+06 -8155.58 -672811 696736
56 3 O -1.43686 66.0996 2.89797 -1.2 -8.30622 -2.8795e+06 -4.27008e+06 -3.99138e+06 27766.8 1.48644e+06 -628666
57 1 Mg -2.41848 69.6703 0.0374324 1.2 -8.08343 -1.19592e+06 3.00445e+06 -185255 -733690 -2.02124e+06 -2.15625e+06
58 1 Mg 2.23365 72.559 1.60456 1.2 -8.27135 1.60895e+06 718951 2.1626e+06 1.01449e+06 -500380 -19929.5
59 2 Si -0.412407 70.763 1.54923 2.4 -33.3983 6.42356e+06 1.13945e+07 8.36301e+06 655189 -678389 -1.16304e+06
60 3 O 1.1172 70.5321 1.64806 -1.2 -9.38707 -3.09172e+06 -3.26775e+06 -2.94594e+06 99471.9 -149373 193383
61 3 O -1.28447 74.3047 1.68829 -1.2 -9.18498 -2.13177e+06 -2.79355e+06 -3.32379e+06 -697898 224043 363121
62 3 O -1.04343 71.4788 0.302229 -1.2 -9.18777 -2.09375e+06 -4.46251e+06 -2.44408e+06 -274551 631111 1.88636e+06
63 1 Mg -2.32888 80.0705 3.01954 1.2 -7.8072 -1.56994e+06 4.93738e+06 288808 -1.26928e+06 1.16158e+06 1.48885e+06
64 3 O -1.10507 71.2695 2.89824 -1.2 -8.86274 -2.17746e+06 -4.31305e+06 -1.34672e+06 -115088 -227694 -788342
65 1 Mg -2.14218 77.2232 4.70699 1.2 -8.23137 1.11927e+06 472472 3.42845e+06 465171 -154955 -255804
66 2 Si 0.399675 79.0423 4.5341 2.4 -32.7769 5.0979e+06 1.10604e+07 8.4787e+06 466476 470392 575432
67 3 O -1.10297 79.0193 4.50497 -1.2 -9.85835 -4.03995e+06 -2.96238e+06 -3.26104e+06 -242856 34593.5 -484346
68 3 O 1.51593 75.4501 4.71181 -1.2 -9.50384 -908412 -3.20868e+06 -2.7858e+06 -512705 214873 -439096
69 3 O 1.13743 78.4485 3.22347 -1.2 -9.12416 -3.61228e+06 -2.80486e+06 -2.82127e+06 -267723 -1.31553e+06 -519809
70 3 O 1.1829 78.3459 5.7688 -1.2 -9.0986 -2.1504e+06 -4.12849e+06 -2.55681e+06 -587749 1.56456e+06 537011
71 1 Mg 0.0389151 74.9496 3.16116 1.2 -7.57062 -537483 4.16414e+06 72628 1.09794e+06 -1.20577e+06 1.59788e+06
72 1 Mg 0.0852102 72.076 4.64133 1.2 -8.29471 1.85562e+06 45924.3 3.60313e+06 -986846 539505 241261
73 2 Si 2.11235 73.9244 4.72008 2.4 -32.5455 5.8152e+06 1.04628e+07 1.05336e+07 -440357 -196285 -3332.15
74 3 O -1.05699 73.9676 4.65212 -1.2 -9.77686 -139727 -2.92241e+06 -3.40685e+06 851034 -173129 -77703.3
75 3 O 1.05589 70.2642 4.70454 -1.2 -9.14729 -2.58633e+06 -3.28541e+06 -4.11249e+06 1.96709e+06 525378 209447
76 3 O 1.40403 73.2696 3.38354 -1.2 -9.32441 -3.08833e+06 -2.28323e+06 -94698.4 582573 1.35409e+06 455904
77 1 Mg -0.0402002 74.8479 0.102604 1.2 -7.80312 -984715 3.7239e+06 761333 1.39537e+06 1.56838e+06 -2.2112e+06
78 3 O 1.43884 73.2887 6.07647 -1.2 -9.321 -2.48622e+06 -2.8845e+06 -522654 163005 -456052 -112171
79 1 Mg 0.201643 77.636 1.62529 1.2 -8.1428 1.58745e+06 232877 2.55088e+06 -834889 95923 176265
80 2 Si -1.98891 75.8215 1.57475 2.4 -32.8336 2.60492e+06 1.18698e+07 8.17984e+06 -110574 226438 -89378.7
81 3 O 1.25201 75.8135 1.61481 -1.2 -9.78586 -3.36545e+06 -4.38536e+06 -3.47741e+06 -138464 544188 32738.2
82 3 O -0.934638 79.6143 1.46648 -1.2 -9.47756 -2.07786e+06 -4.55528e+06 -2.51431e+06 936758 -40642 -146434
83 3 O -1.411 76.3755 0.198367 -1.2 -9.11075 -3.67728e+06 -3.42099e+06 -4.62261e+06 212063 -812032 287213
84 3 O -1.24372 76.6294 2.74371 -1.2 -9.35539 -2.56116e+06 -3.46567e+06 -1.65879e+06 524952 486509 -599681
85 1 Mg -2.28919 79.9703 0.0240498 1.2 -7.54714 -1.83078e+06 4.35127e+06 -654147 -1.55321e+06 -2.74001e+06 -932139
86 1 Mg 2.54908 83.0649 1.5154 1.2 -8.63817 2.17472e+06 630218 2.25396e+06 888540 -196961 -457274
87 2 Si -0.269418 81.0608 1.5112 2.4 -33.0008 7.58564e+06 1.06266e+07 7.63401e+06 -102838 -234823 854881
88 3 O 1.30787 81.0487 1.51306 -1.2 -9.41338 -1.13572e+06 -3.57844e+06 -2.75547e+06 -408375 -528407 -277648
89 3 O -1.32839 84.8773 1.52599 -1.2 -9.00808 -2.93047e+06 -2.66056e+06 -2.74206e+06 -1.82092e+06 571213 632923
90 3 O -0.937952 81.8504 0.267411 -1.2 -9.09984 -3.2483e+06 -2.55524e+06 -2.25273e+06 -513877 870477 -303613
91 1 Mg -2.1887 90.6531 3.1583 1.2 -7.89036 -324860 3.30017e+06 78692.5 -1.07628e+06 1.73667e+06 2.15399e+06
92 3 O -0.996477 81.7808 2.82811 -1.2 -9.03598 -3.25412e+06 -1.76557e+06 -1.63149e+06 -711675 -1.14737e+06 -263206
93 1 Mg -2.23531 87.7126 4.63038 1.2 -8.44877 1.55695e+06 1.25523e+06 1.1685e+06 1.81105e+06 471883 46195.8
94 2 Si 0.583218 89.6149 4.64611 2.4 -33.6605 4.73423e+06 1.03022e+07 7.27783e+06 852901 -839077 1.3699e+06
95 3 O -0.946646 89.5975 4.67316 -1.2 -9.09983 -2.97062e+06 -4.39418e+06 -3.99049e+06 227839 541729 -603088
96 3 O 1.60148 85.712 4.54158 -1.2 -9.02465 -1.93599e+06 -4.75583e+06 -3.03854e+06 -1.76572e+06 373114 667488
97 3 O 1.16326 88.9793 3.28732 -1.2 -8.81486 -3.8907e+06 -2.61734e+06 -3.19332e+06 1.01683e+06 -681972 315177
98 3 O 1.27009 88.8343 5.80159 -1.2 -9.13813 -5.48111e+06 -4.71273e+06 -3.7817e+06 125931 125100 612396
99 1 Mg 0.120948 85.4928 3.08225 1.2 -7.50448 -726831 4.00995e+06 -260402 235560 -178574 2.45027e+06
100 1 Mg 0.0745569 82.4354 4.45399 1.2 -8.49129 2.21085e+06 406049 3.0283e+06 -615236 -138609 -309154
101 2 Si 2.248 84.2033 4.45336 2.4 -33.4918 6.44008e+06 1.13887e+07 7.81015e+06 -255772 -133084 -254684
102 3 O -0.923215 84.2626 4.60337 -1.2 -9.52119 -2.242e+06 -3.586e+06 -2.53061e+06 834174 707749 5949.75
103 3 O 1.16592 80.5762 4.62666 -1.2 -9.14071 -758008 -3.45498e+06 -2.5522e+06 1.66475e+06 96930.5 168815
104 3 O 1.51812 83.5174 3.28933 -1.2 -8.96632 -2.67681e+06 -3.6432e+06 -4.59633e+06 665824 704924 -1.18576e+06
105 1 Mg 0.0296173 85.4344 0.159091 1.2 -8.11132 -287034 3.48548e+06 -192203 1.12181e+06 1.45245e+06 -1.7821e+06
106 3 O 1.58444 83.575 5.83519 -1.2 -8.66223 -3.77853e+06 -4.17914e+06 -2.05438e+06 610522 -1.38423e+06 878665
107 1 Mg 0.133863 88.2001 1.65097 1.2 -8.28099 931503 407649 3.66478e+06 -167066 -247708 662758
108 2 Si -2.00093 86.4647 1.61751 2.4 -32.4849 4.74845e+06 1.21665e+07 1.02497e+07 -263618 -1.71702e+06 1.00126e+06
109 3 O 1.1996 86.3103 1.72903 -1.2 -9.89105 -1.85615e+06 -4.55628e+06 -4.3261e+06 563986 -985522 -485613
110 3 O -0.693211 90.0146 1.56362 -1.2 -9.03002 -4.04461e+06 -2.68039e+06 -3.3489e+06 1.76762e+06 -1.09734e+06 -279163
111 3 O -1.1445 87.0155 0.275153 -1.2 -9.05098 -1.50889e+06 -5.81042e+06 892546 936411 -1.49742e+06 93000
112 3 O -1.38062 87.0626 2.93885 -1.2 -9.40736 -3.36698e+06 -3.64169e+06 -1.78754e+06 -689282 1.0642e+06 -867074
113 1 Mg -2.06781 90.5022 0.208921 1.2 -8.21185 -327072 4.33512e+06 -170310 -1.01809e+06 -2.17087e+06 -998907
114 1 Mg 2.43353 93.4662 1.56268 1.2 -8.73702 2.21908e+06 391058 1.32627e+06 939541 -322824 1.12881e+06
115 2 Si -0.152751 91.5786 1.61024 2.4 -33.4826 8.16211e+06 1.11983e+07 9.08132e+06 -1.37847e+06 675212 -441621
116 3 O 1.46268 91.5167 1.71595 -1.2 -9.14724 -547063 -3.82797e+06 -4.00078e+06 -1.54765e+06 666914 -225356
117 3 O -1.22831 95.2503 1.45058 -1.2 -8.98271 -2.31821e+06 -3.95264e+06 -2.03019e+06 -1.15311e+06 230994 -1.77427e+06
118 3 O -0.93175 92.262 0.311555 -1.2 -8.4871 -2.9857e+06 -2.41717e+06 -301994 -856088 897620 -870712
119 1 Mg -2.31437 100.925 2.90447 1.2 -7.78797 -1.55424e+06 4.41359e+06 -1.31538e+06 -1.01029e+06 2.58197e+06 1.53468e+06
120 3 O -0.833444 92.1647 2.90927 -1.2 -9.16909 -3.81625e+06 -3.23888e+06 -2.49131e+06 -380931 -1.05687e+06 -930714
121 1 Mg -2.15101 98.1504 4.54595 1.2 -8.46962 1.49007e+06 1.71482e+06 2.45817e+06 1.09718e+06 -332087 1.51572e+06
122 2 Si 0.488819 99.9665 4.41051 2.4 -33.7198 7.08031e+06 8.95428e+06 7.06954e+06 -551923 135038 1.56788e+06
123 3 O -1.12674 100.041 4.47798 -1.2 -9.19094 -1.34618e+06 -3.61996e+06 -3.76791e+06 -596117 -318506 -127454
124 3 O 1.5546 96.1941 4.53757 -1.2 -9.08773 -2.17045e+06 -5.91133e+06 -3.98988e+06 -1.04179e+06 248039 -457140
125 3 O 1.11387 99.3125 3.12584 -1.2 -9.03025 -3.40405e+06 -4.77579e+06 -3.56864e+06 -448278 -468490 -1.86899e+06
126 3 O 1.08799 99.2115 5.65593 -1.2 -8.6382 -4.95608e+06 -3.76624e+06 -3.49537e+06 149268 929584 57799.3
127 1 Mg 0.243043 95.7552 3.00294 1.2 -7.9336 -374540 3.69779e+06 -656881 1.37814e+06 -1.27656e+06 2.71378e+06
128 1 Mg -0.0439398 93.0206 4.59888 1.2 -8.36598 1.00214e+06 432492 3.33042e+06 -225397 -4715.4 687727
129 2 Si 2.16207 94.7112 4.50582 2.4 -33.3196 6.30407e+06 9.05774e+06 9.5062e+06 481120 -605482 1.14995e+06
130 3 O -0.99729 94.7434 4.48086 -1.2 -9.49978 -1.82368e+06 -3.26869e+06 -3.87692e+06 1.89259e+06 -103784 -433520
131 3 O 1.27848 91.0714 4.7388 -1.2 -8.99006 -2.83112e+06 -4.18006e+06 -3.5352e+06 406716 -487548 -905215
132 3 O 1.46909 94.1837 3.15693 -1.2 -9.03848 -3.55254e+06 -4.83996e+06 -2.55495e+06 203303 1.14678e+06 -2.25179e+06
133 1 Mg 0.259243 95.8376 -0.0795725 1.2 -7.68512 -987562 5.02103e+06 138547 766514 1.84936e+06 -264088
134 3 O 1.46074 94.1117 5.81139 -1.2 -8.85876 -2.80028e+06 -3.98003e+06 -1.56666e+06 -30857.8 -879819 351924
135 1 Mg 0.147971 98.5428 1.57 1.2 -8.3859 1.56231e+06 825688 1.73485e+06 -1.52409e+06 -221068 58007.3
136 2 Si -1.86651 96.7603 1.44581 2.4 -33.1444 5.60376e+06 1.23489e+07 6.94384e+06 -902408 539282 2.7049e+06
137 3 O 1.29739 96.7376 1.53979 -1.2 -9.61251 -1.53351e+06 -4.89047e+06 -2.60646e+06 260114 80389.3 -751528
138 3 O -1.03331 100.457 1.49944 -1.2 -9.08924 -2.37654e+06 -5.48981e+06 -3.10024e+06 1.07653e+06 446104 -971825
139 3 O -1.22591 97.487 0.27699 -1.2 -9.28849 -2.35623e+06 -4.74199e+06 -3.3309e+06 -654279 201333 261110
140 3 O -1.15741 97.4326 2.81657 -1.2 -8.90791 -2.64025e+06 -3.15154e+06 -442656 -8532.76 1.28448e+06 -429816
141 1 Mg -2.37724 100.856 0.00699991 1.2 -7.74581 -1.06383e+06 4.89529e+06 -1.1248e+06 -994212 -1.36815e+06 -1.14852e+06
142 1 Mg 7.25206 103.919 1.39791 1.2 -8.60421 2.69485e+06 298896 2.27258e+06 538899 366094 17502
143 2 Si -0.284754 101.926 1.47723 2.4 -33.6137 5.45853e+06 1.10117e+07 6.2215e+06 1.12856e+06 -133983 167473
144 3 O 1.26044 101.871 1.39817 -1.2 -9.32797 -3.23228e+06 -4.21931e+06 -3.16723e+06 503982 -195351 -240058
145 3 O 3.37886 105.707 1.41946 -1.2 -8.93586 -4.13741e+06 -3.74832e+06 -2.50798e+06 -1.00499e+06 -41727.7 217048
146 3 O -0.903 102.624 0.197529 -1.2 -8.92646 -3.86668e+06 -2.89846e+06 -2.33058e+06 -236651 199052 354083
147 1 Mg 2.53803 111.154 2.9754 1.2 -7.59114 -488520 4.66911e+06 261832 -957840 1.02652e+06 1.57701e+06
148 3 O -0.893083 102.574 2.7432 -1.2 -8.91862 -2.96125e+06 -4.5615e+06 -3.61091e+06 28339.4 9700.66 -1.75535e+06
149 1 Mg 2.52382 108.334 4.29622 1.2 -8.2441 1.081e+06 209137 1.05074e+06 882903 -15171.2 4634.54
150 2 Si 5.16107 110.202 4.48382 2.4 -33.1706 3.81092e+06 1.1584e+07 7.05438e+06 801440 943406 247253
151 3 O 3.6308 110.248 4.49139 -1.2 -9.71036 -3.40243e+06 -4.76337e+06 -3.15787e+06 -734695 681209 -334060
152 3 O 6.26463 106.56 4.38143 -1.2 -9.26453 -3.55192e+06 -9.253e+06 -4.6256e+06 -1.10469e+06 -1.00968e+06 -1.12524e+06
153 3 O 5.81925 109.469 3.26465 -1.2 -9.33281 -3.91726e+06 -3.63798e+06 -2.36587e+06 90711.6 -314885 -1.18065e+06
154 3 O 5.88275 109.641 5.81577 -1.2 -8.96057 -2.46389e+06 -4.40187e+06 -2.05833e+06 -76030.2 643657 605466
155 1 Mg 4.92709 106.251 2.91863 1.2 -7.77917 -1.21189e+06 4.43744e+06 -704260 304348 -866273 1.97783e+06
156 1 Mg 0.259644 103.176 4.35735 1.2 -8.63416 2.33967e+06 -120979 2.66002e+06 -389285 -136374 235694
157 2 Si 6.99609 105.211 4.30572 2.4 -33.9784 6.8694e+06 7.66453e+06 9.15411e+06 154085 384969 1.02198e+06
158 3 O 3.80408 105.208 4.28597 -1.2 -9.13301 -3.48223e+06 -3.50735e+06 -4.26255e+06 -298817 494997 -677974
159 3 O 1.10649 101.404 4.39972 -1.2 -9.37669 -3.58809e+06 -7.61596e+06 -3.17509e+06 1.15709e+06 201878 -544929
160 3 O 6.26739 104.531 3.04117 -1.2 -8.51178 -4.09817e+06 -2.84484e+06 -4.47532e+06 269839 1.44949e+06 -874815
161 1 Mg 4.8384 106.235 -0.073946 1.2 -7.82988 -83120.2 4.11744e+06 508963 973749 1.36086e+06 -1.94343e+06
162 3 O 6.35586 104.426 5.57713 -1.2 -8.44673 -4.95762e+06 -3.18754e+06 -2.11535e+06 700154 -1.22542e+06 376133
163 1 Mg 4.93383 108.953 1.39485 1.2 -8.14025 1.45341e+06 362545 3.00847e+06 -868894 28507.4 110160
164 2 Si 2.76483 107.232 1.3748 2.4 -33.1192 3.18963e+06 1.30169e+07 6.56401e+06 688103 238207 -139403
165 3 O 5.98673 107.095 1.44717 -1.2 -9.79951 -3.37314e+06 -6.00463e+06 -3.22598e+06 867091 324230 -414079
166 3 O 3.76789 110.736 1.39213 -1.2 -9.1692 -1.48625e+06 -5.70542e+06 -2.41031e+06 978198 282091 60976.2
167 3 O 3.44048 107.906 0.111274 -1.2 -9.13814 -1.81874e+06 -4.21412e+06 -2.95964e+06 25592.3 -469949 -109022
168 3 O 3.46366 107.983 2.58701 -1.2 -9.17756 -3.25219e+06 -4.52e+06 -4.15082e+06 -276360 610387 -1.03363e+06
169 1 Mg 2.47575 111.246 -0.163709 1.2 -8.05988 -243720 4.22796e+06 133229 -835949 -1.0204e+06 -680892
170 1 Mg 7.06441 114.118 1.69306 1.2 -8.53323 1.56815e+06 1.68377e+06 2.18156e+06 1.13029e+06 306360 608846
171 2 Si 4.51526 112.206 1.35672 2.4 -33.4451 6.30348e+06 1.00629e+07 8.23669e+06 125689 -413094 1.36997e+06
172 3 O 6.05164 112.159 1.41974 -1.2 -9.45944 -3.01464e+06 -2.46178e+06 -2.90748e+06 26242.6 -588022 -636730
173 3 O 3.48856 116.024 1.69336 -1.2 -8.63883 -3.57399e+06 -4.41191e+06 -3.66019e+06 -633278 -932340 -625804
174 3 O 3.94338 112.758 -0.0282006 -1.2 -8.68551 -4.29833e+06 -4.18983e+06 -3.70764e+06 640959 2.25724e+06 -483078
175 1 Mg 2.37313 121.648 2.8589 1.2 -8.36639 179743 4.26612e+06 -671946 -970327 2.02206e+06 1.27677e+06
176 3 O 3.76862 112.94 2.58012 -1.2 -9.12011 -2.72266e+06 -3.10928e+06 -1.32971e+06 -20550.8 -799827 -1.40218e+06
177 1 Mg 2.61148 118.808 4.47724 1.2 -9.04161 3.04944e+06 602657 1.42414e+06 555489 -18616.1 533239
178 2 Si 5.14634 120.723 4.39253 2.4 -34.6481 7.55962e+06 1.09535e+07 7.73764e+06 -1.52552e+06 406505 22083.8
179 3 O 3.60921 120.798 4.39219 -1.2 -8.73345 -3.73543e+06 -3.91927e+06 -3.40203e+06 -1.34731e+06 372316 -318994
180 3 O 6.30205 117.035 4.55164 -1.2 -8.70896 -3.62975e+06 -6.30525e+06 -3.654e+06 -416618 152448 -202452
181 3 O 5.82676 120.031 3.09748 -1.2 -8.39352 -3.91513e+06 -4.07935e+06 -1.37025e+06 -389690 -730507 -504650
182 3 O 5.87715 119.998 5.68755 -1.2 -8.30201 -3.49061e+06 -2.83228e+06 -1.08267e+06 -700864 590243 401583
183 1 Mg 4.86209 116.45 3.09246 1.2 -8.34776 -186594 4.21731e+06 -1.43322e+06 764342 -1.17295e+06 2.06413e+06
184 1 Mg 4.78058 113.597 4.41913 1.2 -8.38678 2.85414e+06 1.57296e+06 2.53197e+06 -785894 189677 381650
185 2 Si 6.94446 115.58 4.65632 2.4 -34.1656 5.97876e+06 1.04823e+07 8.06296e+06 332507 68776.3 253895
186 3 O 3.73415 115.632 4.47859 -1.2 -9.11924 -3.81192e+06 -3.62097e+06 -4.58842e+06 131587 -37295.9 136512
187 3 O 5.77587 111.719 4.44998 -1.2 -9.1914 -1.34381e+06 -4.25163e+06 -2.43185e+06 246710 -283188 513411
188 3 O 6.24347 114.768 3.41295 -1.2 -8.76787 -3.7548e+06 -3.16513e+06 -2.04426e+06 403817 1.17287e+06 -534414
189 1 Mg 4.8388 116.464 0.000964663 1.2 -8.02201 -54324.4 3.65063e+06 572697 814303 1.46549e+06 -810927
190 3 O 6.28017 115.021 5.95541 -1.2 -8.61206 -3.51887e+06 -4.74352e+06 -3.74614e+06 204247 -1.17186e+06 491083
191 1 Mg 4.78098 119.448 1.41923 1.2 -8.67296 2.21018e+06 1.45983e+06 2.1378e+06 -1.38316e+06 346333 594419
192 2 Si 2.84308 117.489 1.60495 2.4 -34.3266 8.03417e+06 9.62921e+06 7.655e+06 -294752 127536 1.35836e+06
193 3 O 6.02528 117.402 1.61687 -1.2 -8.775 -2.47029e+06 -3.67216e+06 -2.96323e+06 784847 760327 -1.25043e+06
194 3 O 3.72827 121.296 1.45854 -1.2 -8.80241 -4.01375e+06 -3.78549e+06 -2.51079e+06 1.25921e+06 670605 -305622
195 3 O 3.42318 118.092 0.230883 -1.2 -8.94225 -3.46177e+06 -2.25922e+06 -2.10884e+06 -634736 -229706 127788
196 3 O 3.53679 118.256 2.80382 -1.2 -8.52081 -5.12064e+06 -4.3085e+06 -2.31121e+06 -98089.8 675020 -1.96844e+06
197 1 Mg 2.40034 121.546 -0.133043 1.2 -7.73971 72780 3.88089e+06 340027 -875875 -1.20252e+06 -1.09262e+06
198 1 Mg 7.04014 124.635 1.35751 1.2 -8.8128 1.90796e+06 764386 2.98905e+06 1.13976e+06 -201689 526545
199 2 Si 4.40811 122.826 1.42831 2.4 -34.2855 7.63754e+06 1.02501e+07 8.07805e+06 -766544 -142584 -19705.9
200 3 O 5.93607 122.597 1.36983 -1.2 -9.00227 -3.57371e+06 -3.26016e+06 -2.89834e+06 -1.27048e+06 -94945.2 165786
201 3 O 3.33332 126.458 1.45668 -1.2 -9.06457 -1.11062e+06 -4.31611e+06 -3.13526e+06 -735832 -84876.4 -64880.1
202 3 O 3.70032 123.518 0.153714 -1.2 -8.72157 -3.56449e+06 -2.30777e+06 -2.25058e+06 397800 945413 284521
203 1 Mg 2.2275 132.269 3.13453 1.2 -7.66039 -165178 3.90521e+06 784030 -949813 686933 1.48896e+06
204 3 O 3.70888 123.5 2.6587 -1.2 -8.3291 -3.40274e+06 -4.02743e+06 -2.44874e+06 283508 -460546 -975578
205 1 Mg 2.38426 129.322 4.43311 1.2 -8.5275 2.27137e+06 1.49754e+06 1.98592e+06 708109 -293692 507452
206 2 Si 4.94727 131.148 4.46284 2.4 -33.6843 5.65857e+06 1.13212e+07 7.35146e+06 237356 1.53649e+06 1.01209e+06
207 3 O 3.38903 131.254 4.39655 -1.2 -9.27858 -2.30836e+06 -4.19435e+06 -3.81399e+06 -460705 -387162 480162
208 3 O 6.11876 127.376 4.52585 -1.2 -8.89345 -3.45496e+06 -5.45138e+06 -1.69528e+06 -867023 268655 -215185
209 3 O 5.61867 130.456 3.27238 -1.2 -9.14805 -4.469e+06 -2.23021e+06 -4.08073e+06 -59909.2 -308926 -557982
210 3 O 5.55632 130.544 5.79574 -1.2 -8.69636 -3.65668e+06 -4.7076e+06 -2.90222e+06 -112261 1.09043e+06 1.10525e+06
211 1 Mg 4.86337 126.876 2.8372 1.2 -8.13147 268227 4.68167e+06 -972413 734003 -840356 1.52762e+06
212 1 Mg 4.65117 124.044 4.51588 1.2 -9.13096 3.44858e+06 1.461e+06 1.73401e+06 -820400 440398 390334
213 2 Si 6.80076 125.921 4.51789 2.4 -34.7032 7.80677e+06 1.14186e+07 6.57298e+06 346831 -697879 542643
214 3 O 3.58717 126 4.44952 -1.2 -8.83447 -4.01671e+06 -4.00055e+06 -2.45686e+06 504755 -566532 2848.8
215 3 O 5.72086 122.186 4.42266 -1.2 -8.68831 -4.05679e+06 -5.68962e+06 -1.89627e+06 -488694 -388630 249495
216 3 O 6.12452 125.223 3.20942 -1.2 -8.25772 -4.79385e+06 -3.09223e+06 -1.38295e+06 331409 1.0009e+06 -451496
217 1 Mg 4.8565 127.119 -0.102552 1.2 -7.7227 -375589 4.48651e+06 -700599 414425 746596 -1.69189e+06
218 3 O 6.08035 125.164 5.71673 -1.2 -8.29589 -4.11464e+06 -4.00496e+06 -2.75688e+06 450094 -892179 598545
219 1 Mg 4.71057 129.825 1.57247 1.2 -8.564 1.84369e+06 1.07628e+06 2.6442e+06 -1.19418e+06 -407959 -1.19883e+06
220 2 Si 2.71583 127.947 1.44681 2.4 -33.374 5.42951e+06 1.1581e+07 9.52998e+06 -460631 929632 -1.27137e+06
221 3 O 5.88539 127.951 1.52485 -1.2 -9.61962 -1.89088e+06 -3.46307e+06 -3.80681e+06 276851 941070 549039
222 3 O 3.74701 131.726 1.52564 -1.2 -8.68584 -1.87872e+06 -4.40191e+06 -3.63759e+06 811365 285406 1.13723e+06
223 3 O 3.35394 128.722 0.202111 -1.2 -8.88078 -2.86934e+06 -2.84739e+06 -1.63419e+06 -687611 -1.39078e+06 -685296
224 3 O 3.44566 128.631 2.77615 -1.2 -8.74448 -2.99848e+06 -3.41921e+06 -810123 -233388 886281 661425
225 1 Mg 2.36552 132.173 0.00503586 1.2 -8.09859 196174 3.91633e+06 -282963 -1.08073e+06 -1.13742e+06 -2.6065e+06
226 1 Mg 6.99404 135.125 1.35398 1.2 -8.13826 1.25289e+06 1.44729e+06 2.03164e+06 1.15788e+06 -1.09876e+06 887210
227 2 Si 4.34594 133.248 1.55423 2.4 -33.5247 5.60852e+06 9.84152e+06 9.21379e+06 1.01468e+06 -237700 -641919
228 3 O 5.90233 133.249 1.50728 -1.2 -9.43167 -2.23403e+06 -2.94563e+06 -2.88631e+06 -875395 -148245 45637.4
229 3 O 3.38112 136.916 1.37494 -1.2 -9.37366 -1.2292e+06 -934491 -2.36492e+06 -937723 131154 -77179.6
230 3 O 3.68503 133.756 0.154666 -1.2 -8.83286 -3.74369e+06 -3.96259e+06 -381476 316411 430953 1.75697e+06
231 1 Mg 2.35035 142.417 2.94461 1.2 -7.5213 -878556 3.06456e+06 366777 -1.25755e+06 1.61568e+06 1.72516e+06
232 3 O 3.69317 133.82 2.86347 -1.2 -9.30548 -2.74878e+06 -3.80956e+06 -1.81811e+06 92252.5 -783776 -597330
233 1 Mg 2.54217 139.716 4.36378 1.2 -8.00007 1.24868e+06 801150 2.04427e+06 827102 161631 519408
234 2 Si 5.12562 141.626 4.43966 2.4 -32.9988 4.22165e+06 9.93184e+06 7.02711e+06 -266800 1.8851e+06 -229744
235 3 O 3.57064 141.637 4.49008 -1.2 -9.77419 -2.7445e+06 -3.00879e+06 -3.59166e+06 -572826 563037 261909
236 3 O 6.05397 138.012 4.42819 -1.2 -9.63842 -1.76063e+06 -4.75038e+06 -3.31193e+06 247587 -425666 -921262
237 3 O 5.78824 140.864 3.28481 -1.2 -9.49039 -3.33993e+06 -5.36061e+06 -5.17799e+06 188358 -714307 -1.61323e+06
238 3 O 5.84103 141.022 5.75787 -1.2 -9.09918 -2.48443e+06 -3.28018e+06 -3.50719e+06 117979 1.02982e+06 605.652
239 1 Mg 4.66909 137.419 2.97675 1.2 -7.3928 -742957 3.91436e+06 -677119 1.45149e+06 -1.57839e+06 1.90897e+06
240 1 Mg 4.49474 134.653 4.53699 1.2 -7.98934 1.54768e+06 1.60235e+06 2.49493e+06 -810294 -125506 -130675
241 2 Si 6.64737 136.533 4.54015 2.4 -32.2159 2.44159e+06 1.07268e+07 9.03133e+06 607340 1.09919e+06 966262
242 3 O 3.45824 136.646 4.46756 -1.2 -10.1399 -1.48085e+06 -3.58477e+06 -3.29666e+06 786962 390878 -331501
243 3 O 5.5666 132.729 4.68596 -1.2 -8.90899 -2.1686e+06 -2.55994e+06 -1.87691e+06 890471 -480643 1.63469e+06
244 3 O 5.95336 135.837 3.16082 -1.2 -9.2305 -1.03287e+06 -3.49492e+06 329918 123268 536460 182472
245 1 Mg 4.86877 137.353 -0.034517 1.2 -7.5594 -892617 4.30945e+06 -883150 804159 2.00904e+06 -1.42813e+06
246 3 O 6.05356 135.823 5.76913 -1.2 -9.72539 -1.80468e+06 -3.35443e+06 -2.91139e+06 -18402.8 223625 -155502
247 1 Mg 4.97533 140.322 1.49007 1.2 -7.94447 722116 1.27204e+06 3.50616e+06 -780300 -168857 -169610
248 2 Si 2.7435 138.533 1.39252 2.4 -32.5257 4.67475e+06 1.11622e+07 8.36014e+06 350831 -1.61664e+06 -546930
249 3 O 5.93534 138.422 1.42978 -1.2 -9.84481 -1.14889e+06 -2.90383e+06 -4.44393e+06 811227 -615890 -211359
250 3 O 3.80697 142.112 1.55419 -1.2 -8.99028 -1.96296e+06 -4.69941e+06 -3.78462e+06 129790 538185 -1.13646e+06
251 3 O 3.41851 139.193 0.0671251 -1.2 -9.14532 -2.29693e+06 -2.91804e+06 -1.78508e+06 -476709 -1.39458e+06 -360331
252 3 O 3.36461 139.175 2.63585 -1.2 -9.71522 -3.50012e+06 -3.68251e+06 -3.57742e+06 -494393 350883 -1.28647e+06
253 1 Mg 2.35586 142.57 -0.163133 1.2 -7.69815 -97569.4 3.05545e+06 952531 -1.32468e+06 -1.06728e+06 -1.05366e+06
254 1 Mg 6.9565 145.334 1.72484 1.2 -8.00301 408875 1.31277e+06 2.50493e+06 929736 560296 219146
255 2 Si 4.40637 143.631 1.46208 2.4 -33.2318 3.57251e+06 8.23614e+06 9.32101e+06 189592 594391 934185
256 3 O 5.93232 143.481 1.44006 -1.2 -9.67722 -3.72407e+06 -2.56567e+06 -3.85165e+06 -1.58633e+06 290964 -508138
257 3 O 3.4332 147.301 1.83749 -1.2 -9.26073 -3.52566e+06 -4.27353e+06 -3.23297e+06 248665 -352920 2.26231e+06
258 3 O 3.74083 144.159 0.100492 -1.2 -9.29273 -2.31309e+06 -2.69121e+06 -2.26256e+06 1.10207e+06 594631 -217007
259 1 Mg 1.60685 152.657 1.9673 1.2 -7.46035 116502 -1.06382e+06 2.89304e+06 797179 -813486 792933
260 3 O 3.75038 144.241 2.71054 -1.2 -9.25221 -2.95261e+06 -4.96347e+06 -3.04005e+06 910438 -182033 -2.13825e+06
261 1 Mg 1.60266 151.39 5.28641 1.2 -7.8334 -2.64844e+06 3.60919e+06 -280890 163282 549161 7382.32
262 2 Si 3.69453 151.142 3.37261 2.4 -33.3688 7.89868e+06 7.68749e+06 4.64132e+06 -242563 -843379 -2.61759e+06
263 3 O 2.39499 152.048 3.65063 -1.2 -8.89889 -5.3518e+06 -2.03492e+06 -3.79971e+06 -801435 590750 -707177
264 3 O 6.11848 148.252 4.60761 -1.2 -8.70013 -2.22566e+06 -5.41923e+06 -2.97084e+06 -2.85365e+06 -146629 -367410
265 3 O 4.51687 151.895 2.25805 -1.2 -8.97748 -3.4608e+06 -1.44316e+06 -5.58895e+06 1.15529e+06 -83475.9 230230
266 3 O 4.52644 151.134 4.64644 -1.2 -8.83333 -5.17255e+06 -4.36442e+06 -6.19245e+06 -902753 914267 2.58101e+06
267 1 Mg 4.80343 148.1 3.2027 1.2 -7.66849 -1.18431e+06 3.26198e+06 -504094 1.4949e+06 -2.21559e+06 1.34763e+06
268 1 Mg 4.67717 145.007 4.45842 1.2 -8.41324 1.23741e+06 1.20839e+06 2.81492e+06 -798801 58488.3 453229
269 2 Si 6.86295 146.762 4.62099 2.4 -33.5501 7.49244e+06 1.03039e+07 8.39223e+06 135482 637368 -155778
270 3 O 3.71533 146.899 4.6543 -1.2 -9.32905 -2.17808e+06 -2.35883e+06 -5.72204e+06 744509 -365047 -44172.3
271 3 O 5.77386 143.093 4.36264 -1.2 -9.19946 -1.84844e+06 -5.48323e+06 -3.34372e+06 583830 -83586.4 -47819.1
272 3 O 6.21228 146.082 3.3511 -1.2 -8.87839 -3.22981e+06 -3.95577e+06 -4.5756e+06 463166 2.00806e+06 -277570
273 1 Mg 4.75312 147.676 0.140888 1.2 -7.51091 -508353 3.10986e+06 735196 824391 1.75766e+06 -2.05572e+06
274 3 O 6.10861 146.072 5.82636 -1.2 -8.91738 -4.14648e+06 -3.95789e+06 -4.42775e+06 -100569 -1.87433e+06 598498