ITEM: TIMESTEP
10500
ITEM: NUMBER OF ATOMS
5600
ITEM: BOX BOUNDS xy xz yz pp pp pp
0.0000000000000000e+00 7.1234999999999999e+00 0.0000000000000000e+00
0.0000000000000000e+00 2.0198500000000001e+02 2.3744999999999998e+00
0.0000000000000000e+00 1.1958400000000000e+02 0.0000000000000000e+00
ITEM: ATOMS id type element xu yu zu q c_pe c_s[1] c_s[2] c_s[3] c_s[4] c_s[5] c_s[6]
1 1 Mg -1.44139 49.4312 -0.611343 1.2 -7.32508 -1.63052e+06 -905417 2.2189e+06 99095.2 417392 -707047
2 1 Mg 3.11281 51.2055 2.41224 1.2 -7.96661 -3.96051e+06 3.35309e+06 -666365 27832.3 -145487 -1.79264e+06
3 2 Si 1.01267 51.0817 0.580447 2.4 -33.3946 9.10596e+06 8.12577e+06 4.47466e+06 -778716 -39737.1 465605
4 3 O 2.38891 50.3142 0.836898 -1.2 -8.8068 -4.61457e+06 -3.22557e+06 -5.7318e+06 -723297 -1.04814e+06 1.6192e+06
5 3 O -1.0813 53.7727 1.7971 -1.2 -8.87116 -3.17821e+06 -5.3911e+06 -2.75391e+06 -1.5271e+06 -129862 206593
6 3 O 0.249477 50.3125 -0.526946 -1.2 -9.11241 -6.4441e+06 -1.50426e+06 -5.4755e+06 702346 -298651 -211312
7 1 Mg -2.25057 59.6497 2.99585 1.2 -7.79972 -1.09655e+06 4.13319e+06 -306025 -1.00799e+06 1.51639e+06 2.25564e+06
8 3 O 0.179388 51.1518 1.86534 -1.2 -9.16519 -6.30963e+06 -4.62433e+06 -5.30935e+06 -655253 -794962 -570566
9 1 Mg -2.08492 56.8533 4.55431 1.2 -8.06623 840222 1.69878e+06 1.79659e+06 782528 139082 247514
10 2 Si 0.492649 58.6309 4.4847 2.4 -32.8684 5.62876e+06 1.11742e+07 8.44218e+06 493272 886985 1.61678e+06
11 3 O -1.06412 58.7292 4.43082 -1.2 -9.70128 -1.89105e+06 -4.68068e+06 -3.94013e+06 -378432 568238 -931563
12 3 O 1.83067 54.4973 4.8143 -1.2 -9.14271 -3.08722e+06 -2.14031e+06 -1.47678e+06 -1.78378e+06 830314 -956383
13 3 O 1.1413 57.9643 3.2024 -1.2 -9.25951 -3.31529e+06 -3.15029e+06 -2.09349e+06 -479512 -621438 -1.23305e+06
14 3 O 1.25177 58.0029 5.7658 -1.2 -9.32302 -2.41291e+06 -3.76034e+06 -2.06316e+06 -691455 1.16665e+06 387143
15 1 Mg 0.468083 53.7215 3.0688 1.2 -7.98027 125332 3.63042e+06 704966 584012 -559478 547586
16 1 Mg 0.961565 50.3723 3.41522 1.2 -7.57899 642964 1.84995e+06 -3.06552e+06 -250348 -365312 709226
17 2 Si 2.57995 53.0498 4.87353 2.4 -33.3029 8.9072e+06 1.0435e+07 7.37755e+06 -582472 487805 -1.12636e+06
18 3 O -0.616662 53.2434 4.75664 -1.2 -9.27003 -2.48942e+06 -3.64252e+06 -1.62413e+06 737295 -771353 1.08831e+06
19 3 O 2.74563 49.6534 3.62015 -1.2 -7.22351 -853721 -1.08348e+06 -3.3906e+06 132843 -617391 36249.8
20 3 O 1.97535 52.344 3.51862 -1.2 -8.92195 -3.84985e+06 -4.72884e+06 -3.609e+06 -105500 1.50831e+06 883637
21 1 Mg 0.108366 54.4319 0.254512 1.2 -7.90728 -939327 3.2287e+06 -313364 1.79102e+06 2.19741e+06 -1.02174e+06
22 3 O 2.07368 52.0136 6.00699 -1.2 -10.4716 -4.61067e+06 -2.09726e+06 -4.58809e+06 1.26275e+06 -243571 -621942
23 1 Mg 0.190846 57.2316 1.58688 1.2 -8.49103 2.5603e+06 1.48594e+06 1.8754e+06 -1.29014e+06 40118.1 -351987
24 2 Si -1.78173 55.194 1.86259 2.4 -33.7291 7.92137e+06 1.07519e+07 8.43939e+06 355218 1.3382e+06 -631740
25 3 O 1.36667 55.1253 1.79006 -1.2 -9.1934 -1.37384e+06 -2.57185e+06 -2.82503e+06 296823 1.02338e+06 -468361
26 3 O -0.931291 59.1155 1.47618 -1.2 -8.98973 -1.68074e+06 -4.15744e+06 -3.52509e+06 1.30902e+06 -157510 -77960
27 3 O -1.18559 55.934 0.485421 -1.2 -8.85978 -3.43877e+06 -2.95504e+06 -1.33184e+06 528679 -719647 -378039
28 3 O -1.13141 56.0364 3.04616 -1.2 -8.77717 -2.91408e+06 -2.53055e+06 -2.38152e+06 555345 785870 117822
29 1 Mg -2.36117 59.5156 0.0861415 1.2 -8.0352 -600333 4.21132e+06 -418262 -852010 -1.21401e+06 -1.62396e+06
30 1 Mg 2.36761 62.434 1.39867 1.2 -8.56666 1.71824e+06 921928 3.42016e+06 613432 -134185 856059
31 2 Si -0.225725 60.624 1.4748 2.4 -33.3442 5.03249e+06 1.09234e+07 8.692e+06 419441 180917 440840
32 3 O 1.2955 60.5829 1.46578 -1.2 -9.63928 -3.69663e+06 -3.63457e+06 -4.00906e+06 -431014 101847 -230805
33 3 O -1.39302 64.3305 1.5147 -1.2 -8.87719 -2.64256e+06 -3.69114e+06 -2.58672e+06 -1.25966e+06 498877 539263
34 3 O -0.959915 61.2611 0.178629 -1.2 -8.75843 -3.40879e+06 -3.57238e+06 -2.19846e+06 -449030 1.11434e+06 343545
35 1 Mg -2.29153 69.8833 2.91519 1.2 -7.93854 -182446 4.31034e+06 -127291 -602515 1.1585e+06 1.53353e+06
36 3 O -0.936343 61.284 2.74258 -1.2 -9.07421 -2.75076e+06 -3.51456e+06 -3.05664e+06 -115324 -545011 -1.16003e+06
37 1 Mg -2.20685 67.1082 4.5361 1.2 -8.53072 2.28706e+06 985743 2.57274e+06 679094 172296 107609
38 2 Si 0.406699 69.0477 4.45134 2.4 -33.5847 5.56976e+06 1.10646e+07 8.43106e+06 -116512 399397 55650.6
39 3 O -1.12097 69.1137 4.41968 -1.2 -9.47103 -3.59898e+06 -4.16666e+06 -3.27301e+06 -79514.3 337867 -8111.15
40 3 O 1.56221 65.2475 4.50635 -1.2 -8.94468 -2.0945e+06 -5.10461e+06 -3.68385e+06 -521615 333160 481467
41 3 O 1.09203 68.2806 3.1932 -1.2 -8.83944 -3.06406e+06 -3.31311e+06 -1.94846e+06 -212923 -1.05112e+06 -393582
42 3 O 1.15178 68.4197 5.74983 -1.2 -8.86892 -2.97399e+06 -4.11306e+06 -3.06448e+06 -1.04201e+06 1.37956e+06 650294
43 1 Mg 0.0183979 64.7748 2.99931 1.2 -7.84781 512569 4.00352e+06 710969 796553 -926366 1.37461e+06
44 1 Mg 0.127669 61.8979 4.38694 1.2 -8.56469 2.38581e+06 -112416 2.81118e+06 -842923 -108165 221573
45 2 Si 2.1774 63.7576 4.49466 2.4 -34.0994 5.24418e+06 9.16621e+06 8.92349e+06 -723048 506901 84316.5
46 3 O -1.02007 63.7657 4.5783 -1.2 -9.21642 -3.42984e+06 -3.01647e+06 -3.75565e+06 463125 246721 122455
47 3 O 1.18534 60.1581 4.49861 -1.2 -9.1122 -2.6893e+06 -3.73784e+06 -3.08846e+06 1.51901e+06 298458 -505982
48 3 O 1.48747 63.1203 3.23046 -1.2 -8.89544 -2.96992e+06 -3.36663e+06 -3.34736e+06 -139230 774507 -745660
49 1 Mg 0.0262606 64.7761 -0.0332541 1.2 -8.02254 -43922 3.99139e+06 96180.3 1.11482e+06 1.73666e+06 -787578
50 3 O 1.55831 63.1349 5.8 -1.2 -8.56843 -4.47554e+06 -3.59263e+06 -2.39642e+06 -283294 308593 820463
51 1 Mg 0.0467083 67.6608 1.48726 1.2 -8.54723 1.28159e+06 651360 2.61189e+06 -902358 224184 157241
52 2 Si -2.01261 65.8623 1.51087 2.4 -33.6288 7.34328e+06 1.02289e+07 7.68516e+06 -222648 -176072 1.1696e+06
53 3 O 1.15171 65.7551 1.51364 -1.2 -9.25058 -1.71778e+06 -3.45313e+06 -3.33967e+06 1.30125e+06 -255884 -313372
54 3 O -0.841835 69.4947 1.43552 -1.2 -9.08426 -2.86621e+06 -5.18131e+06 -3.61961e+06 1.07018e+06 -121315 -203196
55 3 O -1.29138 66.4351 0.246987 -1.2 -9.10758 -3.47638e+06 -4.52901e+06 -3.28072e+06 79092.4 -895780 1.3566e+06
56 3 O -1.3131 66.5342 2.77776 -1.2 -8.96494 -3.83518e+06 -2.82375e+06 -2.64244e+06 -176114 1.36058e+06 -1.06402e+06
57 1 Mg -2.35543 69.9407 -0.0230182 1.2 -7.95449 -411147 3.99261e+06 -431568 -574927 -1.01125e+06 -1.45797e+06
58 1 Mg 2.32612 72.8132 1.59913 1.2 -8.58829 1.97273e+06 995260 2.61794e+06 691664 128217 -236692
59 2 Si -0.235006 70.9842 1.38915 2.4 -33.6909 5.99674e+06 1.00311e+07 8.93975e+06 -720949 78647.8 258899
60 3 O 1.32889 70.9027 1.43818 -1.2 -9.45949 -2.7782e+06 -3.60981e+06 -4.00113e+06 -1.21309e+06 703570 1485.41
61 3 O -1.28481 74.6312 1.58822 -1.2 -8.89915 -2.63866e+06 -3.93353e+06 -2.19019e+06 -427731 56167.5 677021
62 3 O -0.951785 71.6261 0.127012 -1.2 -8.85413 -3.39943e+06 -4.02812e+06 -3.61874e+06 399574 1.4364e+06 528072
63 1 Mg -2.20662 80.401 3.12201 1.2 -7.90018 -1.08631e+06 4.02548e+06 -484259 -1.02964e+06 1.7591e+06 1.74773e+06
64 3 O -0.883185 71.6687 2.69889 -1.2 -8.7538 -2.92594e+06 -3.19437e+06 -2.05117e+06 173424 -729208 -80651.1
65 1 Mg -1.96275 77.4944 4.56191 1.2 -8.20609 1.41374e+06 1.43629e+06 1.69622e+06 585859 32528.2 -534036
66 2 Si 0.523337 79.3512 4.63516 2.4 -32.9888 5.52099e+06 1.09479e+07 7.46185e+06 -271611 -1.0528e+06 -274600
67 3 O -1.05297 79.4785 4.59518 -1.2 -9.71262 -1.74096e+06 -3.70738e+06 -3.59423e+06 -535616 -315108 236883
68 3 O 1.54015 75.6522 4.54523 -1.2 -9.09205 -2.34817e+06 -5.2698e+06 -3.12089e+06 -1.10458e+06 -135022 362857
69 3 O 1.21242 78.6964 3.3177 -1.2 -9.06836 -2.62759e+06 -3.427e+06 -2.03331e+06 -283829 -994528 132805
70 3 O 1.1575 78.7253 5.87764 -1.2 -9.29951 -2.89623e+06 -4.1775e+06 -3.08455e+06 190955 470770 1.1513e+06
71 1 Mg 0.192988 75.1947 3.10494 1.2 -7.92263 -576901 4.02429e+06 -420249 805395 -982231 1.22815e+06
72 1 Mg 0.0814378 72.2888 4.43451 1.2 -8.73218 2.52751e+06 423035 2.4495e+06 -525969 198585 133572
73 2 Si 2.25101 74.1916 4.56106 2.4 -33.7044 6.09308e+06 1.06588e+07 7.92746e+06 259437 -163852 -1.14428e+06
74 3 O -0.959069 74.2611 4.5584 -1.2 -9.38774 -3.43046e+06 -3.56414e+06 -3.48682e+06 402103 189927 596142
75 3 O 1.11434 70.5012 4.43992 -1.2 -8.90467 -3.06664e+06 -5.26303e+06 -3.04091e+06 1.07455e+06 -282129 961075
76 3 O 1.51571 73.4641 3.36558 -1.2 -8.85579 -3.54508e+06 -3.88565e+06 -3.62976e+06 296645 1.19893e+06 -137972
77 1 Mg 0.128197 75.0644 0.0273327 1.2 -7.87485 -902892 4.29563e+06 -468453 916635 1.39774e+06 -1.91418e+06
78 3 O 1.55009 73.5337 5.88173 -1.2 -8.67774 -3.51542e+06 -3.48455e+06 -2.85943e+06 417221 -1.54353e+06 393768
79 1 Mg 0.308661 77.9476 1.71197 1.2 -8.41932 2.02942e+06 1.53264e+06 1.77025e+06 -812536 -95193.9 -470919
80 2 Si -1.89169 76.1485 1.54366 2.4 -33.4101 5.5378e+06 1.22972e+07 7.18658e+06 431658 16832.4 -826674
81 3 O 1.30814 76.0241 1.60995 -1.2 -9.5352 -2.60848e+06 -4.24935e+06 -3.05855e+06 1.12808e+06 -172768 792870
82 3 O -0.93358 79.8525 1.62528 -1.2 -8.86119 -2.76576e+06 -4.44944e+06 -2.15783e+06 835560 333430 101728
83 3 O -1.19914 76.7804 0.276119 -1.2 -9.06857 -2.68211e+06 -4.09141e+06 -1.76136e+06 -196757 -503974 813852
84 3 O -1.19107 76.8583 2.84065 -1.2 -9.18595 -2.61184e+06 -3.84082e+06 -1.69354e+06 433556 1.39134e+06 463071
85 1 Mg -2.27589 80.3804 0.0920728 1.2 -7.93515 -486532 4.48063e+06 -139678 -861562 -926739 -1.71903e+06
86 1 Mg 2.33763 83.1996 1.79031 1.2 -8.40971 2.11929e+06 387404 2.44186e+06 466533 -95517.7 550048
87 2 Si -0.236767 81.3459 1.59981 2.4 -33.5395 5.6889e+06 1.2182e+07 5.54736e+06 -138459 17229.7 -740687
88 3 O 1.31172 81.2524 1.59612 -1.2 -9.43793 -2.99439e+06 -4.40168e+06 -2.80734e+06 -159496 185600 797765
89 3 O -1.34811 84.9595 1.79632 -1.2 -9.21268 -2.5812e+06 -6.32776e+06 -3.88882e+06 -1.00808e+06 298159 339918
90 3 O -0.948483 82.0225 0.366646 -1.2 -8.89721 -3.40337e+06 -4.38766e+06 -3.54012e+06 -446194 963153 1.11491e+06
91 1 Mg -2.39041 90.6479 3.19124 1.2 -8.05521 -244928 3.70222e+06 -792620 -595488 768680 1.60856e+06
92 3 O -0.91194 82.0484 2.83079 -1.2 -9.18336 -2.63128e+06 -4.52709e+06 -4.58474e+06 -363239 -670070 -872871
93 1 Mg -2.21744 87.8239 4.77253 1.2 -8.74564 2.49078e+06 675341 2.36565e+06 520517 -208289 157769
94 2 Si 0.313752 89.7141 4.75902 2.4 -33.945 5.87929e+06 1.07867e+07 7.86965e+06 -981606 -244614 -262397
95 3 O -1.22707 89.7775 4.71673 -1.2 -9.22222 -3.13293e+06 -3.83943e+06 -3.92948e+06 -1.02101e+06 -13732.6 574246
96 3 O 1.39438 86.0566 4.83364 -1.2 -8.92557 -2.66753e+06 -4.18273e+06 -2.55454e+06 -904502 101401 -255713
97 3 O 1.02085 88.9779 3.51733 -1.2 -8.6939 -3.42484e+06 -2.89816e+06 -2.85186e+06 -37181.7 -804044 -9373.35
98 3 O 0.980279 89.0707 6.02946 -1.2 -8.80295 -3.8627e+06 -2.96956e+06 -3.60235e+06 154242 595360 149759
99 1 Mg 0.076603 85.4985 3.30334 1.2 -7.94668 -569739 4.18782e+06 31429.3 1.06941e+06 -1.32627e+06 1.54381e+06
100 1 Mg 0.00242525 82.5733 4.5464 1.2 -8.37519 1.97891e+06 888831 1.26878e+06 -998335 63301.2 147292
101 2 Si 2.06189 84.5299 4.86025 2.4 -33.7277 5.98354e+06 1.11075e+07 6.48946e+06 -211183 -279085 -59468.4
102 3 O -1.14913 84.6024 4.79192 -1.2 -9.23736 -3.06569e+06 -3.74262e+06 -3.23502e+06 414878 -496665 529917
103 3 O 1.18381 80.8783 4.59244 -1.2 -9.22463 -2.293e+06 -4.55499e+06 -2.66026e+06 1.05464e+06 305893 -400154
104 3 O 1.39757 83.8835 3.57028 -1.2 -9.09472 -3.63736e+06 -3.28266e+06 -3.16699e+06 -66772.2 407562 -489602
105 1 Mg -0.0645637 85.4221 0.299586 1.2 -7.8242 -1.64744e+06 4.2354e+06 -202514 1.10226e+06 1.65629e+06 -1.79752e+06
106 3 O 1.40449 83.8363 6.08456 -1.2 -8.87458 -3.36407e+06 -3.49296e+06 -3.17654e+06 -442176 -214063 583794
107 1 Mg 0.0860736 88.3134 1.77549 1.2 -8.58186 2.16925e+06 218358 3.12293e+06 -708532 84168 278296
108 2 Si -2.03285 86.3926 1.79112 2.4 -33.355 6.49335e+06 9.71473e+06 8.50719e+06 -35361.1 580809 -207423
109 3 O 1.13599 86.4154 1.74727 -1.2 -9.47573 -1.83123e+06 -3.4932e+06 -3.68525e+06 -122457 505673 64977.3
110 3 O -0.974869 90.0878 1.75706 -1.2 -8.8118 -2.43659e+06 -3.7924e+06 -3.91383e+06 1.70606e+06 -168271 -350081
111 3 O -1.40597 87.0471 0.464581 -1.2 -9.00307 -3.70332e+06 -2.93765e+06 -3.17128e+06 458076 -882585 676580
112 3 O -1.33063 87.1145 3.04522 -1.2 -8.89788 -3.0264e+06 -3.37667e+06 -2.31665e+06 436288 995107 -337689
113 1 Mg -2.39771 90.5747 0.336604 1.2 -7.76235 -1.33754e+06 3.58918e+06 294447 -677141 -761487 -1.93295e+06
114 1 Mg 2.42081 93.5122 1.76559 1.2 -8.33395 1.58767e+06 1.23638e+06 2.84199e+06 629360 190668 -345578
115 2 Si -0.26052 91.6298 1.70881 2.4 -33.1779 4.72479e+06 1.04809e+07 8.60119e+06 761724 -648930 -588138
116 3 O 1.25214 91.4862 1.74943 -1.2 -9.70704 -4.40666e+06 -3.84344e+06 -4.53623e+06 -534367 391921 395555
117 3 O -1.37136 95.3772 1.72963 -1.2 -9.07404 -3.11868e+06 -4.00011e+06 -3.4165e+06 -1.44646e+06 311167 -142142
118 3 O -1.02929 92.2939 0.542915 -1.2 -9.232 -2.73713e+06 -3.46063e+06 -4.45486e+06 152415 745164 1.10642e+06
119 1 Mg -2.39763 100.99 3.28754 1.2 -8.05985 -308076 3.65349e+06 4779.92 -1.03913e+06 1.85986e+06 1.90998e+06
120 3 O -1.01317 92.2263 3.02936 -1.2 -8.88379 -2.55383e+06 -4.00202e+06 -3.33173e+06 -90005.7 -1.96928e+06 15728.8
121 1 Mg -2.35215 98.2814 4.72843 1.2 -8.49409 1.95255e+06 69957.3 3.10137e+06 1.40115e+06 -248131 336532
122 2 Si 0.350469 100.05 4.80616 2.4 -33.2212 5.56542e+06 1.07453e+07 8.325e+06 359957 114545 -175123
123 3 O -1.20206 100.126 4.78361 -1.2 -9.47305 -1.89226e+06 -3.92929e+06 -4.28946e+06 -314536 347848 343528
124 3 O 1.33736 96.4149 4.70945 -1.2 -9.01885 -1.69599e+06 -3.11568e+06 -3.49037e+06 -1.58013e+06 40091.7 417404
125 3 O 1.04168 99.3412 3.55033 -1.2 -9.02914 -3.58565e+06 -3.78266e+06 -2.80404e+06 -277562 -856245 -144184
126 3 O 1.05923 99.3929 6.06627 -1.2 -9.19684 -3.62941e+06 -3.19788e+06 -3.37835e+06 -188825 819210 103868
127 1 Mg 0.0202876 95.8893 3.22958 1.2 -7.9076 -897400 3.84337e+06 163364 889557 -1.55721e+06 1.61532e+06
128 1 Mg -0.0960225 92.9847 4.70234 1.2 -8.44202 1.31022e+06 928379 2.53953e+06 -259667 22095 497519
129 2 Si 2.03898 94.8816 4.69352 2.4 -33.0037 7.01833e+06 1.08774e+07 8.42133e+06 -348324 -419446 -49436.4
130 3 O -1.13457 94.9085 4.74862 -1.2 -9.64515 -1.49934e+06 -2.96593e+06 -3.17176e+06 318305 -539809 598790
131 3 O 0.916272 91.2326 4.69482 -1.2 -9.05617 -3.56457e+06 -4.23061e+06 -3.03372e+06 1.03934e+06 -450203 -38291.6
132 3 O 1.38662 94.247 3.37597 -1.2 -9.21507 -2.30244e+06 -2.98565e+06 -2.44459e+06 102686 1.29013e+06 235073
133 1 Mg -4.39922e-06 95.8165 0.280288 1.2 -7.91532 -727829 4.06373e+06 -346151 935836 1.58068e+06 -1.58052e+06
134 3 O 1.29649 94.2383 5.95941 -1.2 -9.07387 -2.87047e+06 -3.57178e+06 -2.24937e+06 396917 -935121 827504
135 1 Mg 0.123105 98.6721 1.76906 1.2 -8.62996 2.14854e+06 646471 3.56737e+06 -729885 -94062.3 216758
136 2 Si -2.03128 96.8883 1.71653 2.4 -33.5245 6.48527e+06 1.07051e+07 8.5969e+06 279151 280740 -112371
137 3 O 1.14617 96.7963 1.71544 -1.2 -9.43963 -2.11507e+06 -3.99847e+06 -4.03056e+06 775935 152264 484830
138 3 O -1.02205 100.516 1.79825 -1.2 -8.84118 -2.94773e+06 -4.48606e+06 -3.51408e+06 491431 -176789 -805427
139 3 O -1.34559 97.5347 0.441681 -1.2 -8.74374 -3.95549e+06 -4.04827e+06 -2.92467e+06 332567 -1.03214e+06 664803
140 3 O -1.30918 97.5415 2.99165 -1.2 -8.95229 -2.74773e+06 -3.18318e+06 -2.52001e+06 152813 741594 -455531
141 1 Mg -2.25365 101.012 0.242821 1.2 -8.12854 -276089 3.65743e+06 -464387 -1.34197e+06 -1.87572e+06 -1.42315e+06
142 1 Mg 7.02269 103.89 1.71829 1.2 -8.30309 2.00638e+06 1.22959e+06 2.10218e+06 1.02107e+06 163367 69711.1
143 2 Si -0.358414 101.996 1.71421 2.4 -33.7296 6.23126e+06 9.78004e+06 8.35334e+06 -115303 -982375 90914.1
144 3 O 1.18941 101.914 1.6886 -1.2 -9.19344 -2.58378e+06 -3.17299e+06 -3.7386e+06 -470365 -225339 -312041
145 3 O 3.37375 105.735 1.60106 -1.2 -9.27992 -2.11536e+06 -5.26888e+06 -2.83272e+06 -861158 60173.1 36760.1
146 3 O -1.00827 102.614 0.395168 -1.2 -9.02395 -3.90891e+06 -3.71678e+06 -2.06269e+06 -376053 481510 551020
147 1 Mg 2.38435 111.511 3.16854 1.2 -7.6539 -1.23575e+06 3.61451e+06 259867 -1.04015e+06 1.39031e+06 1.99327e+06
148 3 O -1.04373 102.66 2.99033 -1.2 -8.9429 -3.00396e+06 -3.92234e+06 -1.99994e+06 101215 -478434 -1.39227e+06
149 1 Mg 2.45014 108.524 4.651 1.2 -8.0293 1.03372e+06 993274 2.93169e+06 505778 55103.9 184700
150 2 Si 5.09287 110.42 4.66394 2.4 -32.68 6.00427e+06 9.82823e+06 8.5108e+06 -472252 203680 427298
151 3 O 3.52151 110.531 4.61953 -1.2 -9.75079 -1.42439e+06 -3.74717e+06 -3.45205e+06 -448452 224507 -484958
152 3 O 6.19697 106.748 4.59146 -1.2 -9.53217 -2.31416e+06 -4.83703e+06 -3.23541e+06 -938421 361704 -187499
153 3 O 5.77963 109.743 3.39481 -1.2 -9.37562 -2.52591e+06 -3.14311e+06 -2.6967e+06 -336828 -1.03492e+06 -1.02387e+06
154 3 O 5.78828 109.738 5.95849 -1.2 -9.40874 -2.07335e+06 -3.53479e+06 -2.47333e+06 -623967 1.24232e+06 237676
155 1 Mg 4.7128 106.262 3.1411 1.2 -7.59826 -1.12039e+06 3.92131e+06 -246482 918363 -1.16423e+06 1.79663e+06
156 1 Mg -0.0410845 103.398 4.66789 1.2 -8.39621 2.28807e+06 578815 3.18009e+06 -791195 -80753.7 727308
157 2 Si 6.8068 105.244 4.65648 2.4 -33.1162 4.72536e+06 1.03211e+07 8.22125e+06 211569 488520 561469
158 3 O 3.61196 105.302 4.60271 -1.2 -9.65386 -2.23082e+06 -3.65858e+06 -4.16349e+06 777035 -317355 -147042
159 3 O 1.02242 101.563 4.71469 -1.2 -9.18388 -2.48504e+06 -3.31308e+06 -2.72881e+06 781338 -157324 -936117
160 3 O 6.13921 104.543 3.37811 -1.2 -9.08353 -2.94553e+06 -3.3039e+06 -3.19937e+06 236037 763194 -740682
161 1 Mg 4.7353 106.215 0.095443 1.2 -7.58031 -799114 4.42736e+06 -71746.7 866913 1.24203e+06 -1.48249e+06
162 3 O 6.09406 104.578 5.89005 -1.2 -9.12942 -3.3353e+06 -3.09968e+06 -3.62668e+06 196016 -532778 -196081
163 1 Mg 4.86532 109.061 1.73193 1.2 -8.22338 1.8862e+06 970466 2.01096e+06 -405959 -86085.5 -13144
164 2 Si 2.67666 107.192 1.66859 2.4 -32.9733 4.29027e+06 1.12679e+07 7.52208e+06 380503 45172.6 491646
165 3 O 5.89718 107.128 1.64588 -1.2 -9.83346 -3.30443e+06 -3.86138e+06 -3.03686e+06 359188 305244 186793
166 3 O 3.78211 110.852 1.53436 -1.2 -9.33046 -2.02655e+06 -3.48759e+06 -2.67501e+06 1.05391e+06 -120497 -734026
167 3 O 3.38121 107.919 0.441621 -1.2 -9.16561 -2.30325e+06 -4.45408e+06 -3.17145e+06 248952 -1.19446e+06 589735
168 3 O 3.41911 107.848 2.95805 -1.2 -9.27271 -2.17375e+06 -3.92448e+06 -3.02342e+06 435564 1.4835e+06 -144217
169 1 Mg 2.42843 111.347 0.0752096 1.2 -7.4535 -1.54126e+06 4.10654e+06 -177990 -1.21635e+06 -1.71597e+06 -1.76138e+06
170 1 Mg 6.95819 114.275 1.54882 1.2 -8.00607 1.37701e+06 460197 1.70543e+06 538296 -189806 129804
171 2 Si 4.41039 112.375 1.59593 2.4 -32.5578 6.01358e+06 1.17192e+07 7.99644e+06 -115516 250845 -490471
172 3 O 6.02091 112.359 1.63973 -1.2 -9.79882 -108630 -3.8375e+06 -3.06096e+06 -327699 529949 -3345.87
173 3 O 3.29455 116.02 1.53845 -1.2 -9.43366 -1.26643e+06 -4.9628e+06 -2.80425e+06 -1.59843e+06 327025 -321815
174 3 O 3.7009 113.108 0.347845 -1.2 -9.47674 -2.06931e+06 -3.36219e+06 -1.31831e+06 -732325 1.10131e+06 642338
175 1 Mg 2.31578 121.645 2.98677 1.2 -7.67619 -1.59183e+06 4.08095e+06 -177429 -935493 1.50893e+06 784606
176 3 O 3.79973 112.948 2.94623 -1.2 -9.42301 -2.84008e+06 -4.12416e+06 -2.55754e+06 -459564 -801297 -194779
177 1 Mg 2.33588 118.906 4.56203 1.2 -8.36708 1.61571e+06 11536.2 3.57125e+06 763592 -78972.7 92587.5
178 2 Si 4.97713 120.717 4.52557 2.4 -32.8164 5.23644e+06 1.00416e+07 8.74019e+06 479572 198664 -1.09482e+06
179 3 O 3.42021 120.748 4.49222 -1.2 -9.88066 -2.4489e+06 -3.76315e+06 -3.84793e+06 132884 452495 487453
180 3 O 6.07719 117.074 4.53302 -1.2 -9.21541 -1.18298e+06 -3.57783e+06 -3.28944e+06 -1.026e+06 203552 628979
181 3 O 5.63948 119.967 3.28638 -1.2 -9.13662 -2.33378e+06 -3.57297e+06 -3.17443e+06 -335648 -550315 -374320
182 3 O 5.71731 120.079 5.81798 -1.2 -9.14668 -2.48113e+06 -3.37976e+06 -3.37892e+06 -636396 1.12784e+06 776220
183 1 Mg 4.68547 116.533 2.98547 1.2 -7.56993 -1.00978e+06 4.21149e+06 492650 948008 -1.04524e+06 1.36186e+06
184 1 Mg 4.70703 113.698 4.60337 1.2 -8.02656 1.30002e+06 783913 2.84681e+06 -987690 -78819.3 3854.22
185 2 Si 6.74226 115.547 4.53891 2.4 -32.6498 4.48545e+06 1.06815e+07 8.08051e+06 -1.14443e+06 -133232 -409973
186 3 O 3.55745 115.577 4.57091 -1.2 -9.87769 -1.48691e+06 -3.20854e+06 -3.36589e+06 141485 100871 193928
187 3 O 5.79598 111.879 4.69172 -1.2 -9.39321 -3.30328e+06 -4.54519e+06 -3.92309e+06 1.45367e+06 -522694 -415594
188 3 O 6.07594 114.908 3.2626 -1.2 -9.6311 -2.59834e+06 -3.73624e+06 -2.63643e+06 -200184 670895 -1.10577e+06
189 1 Mg 4.67033 116.573 -0.0204925 1.2 -7.54055 -1.8175e+06 4.17962e+06 164633 1.16544e+06 1.19161e+06 -1.433e+06
190 3 O 6.0965 114.943 5.85191 -1.2 -9.40261 -2.5168e+06 -3.77757e+06 -1.87644e+06 223095 -138319 714122
191 1 Mg 4.60256 119.396 1.57151 1.2 -8.3073 1.63509e+06 270375 2.88868e+06 -936588 -18652.1 -449876
192 2 Si 2.58737 117.52 1.51221 2.4 -32.8195 5.6765e+06 9.8696e+06 8.22545e+06 -1.13265e+06 -474637 -461227
193 3 O 5.7861 117.492 1.50043 -1.2 -9.73876 -2.34732e+06 -3.52173e+06 -3.96019e+06 168498 -607107 162689
194 3 O 3.59582 121.221 1.4614 -1.2 -9.43028 -2.61895e+06 -5.59923e+06 -3.23911e+06 1.48231e+06 281392 -48237.1
195 3 O 3.37192 118.16 0.254333 -1.2 -9.2994 -2.93027e+06 -3.29755e+06 -3.30207e+06 621390 -1.35024e+06 740119
196 3 O 3.2764 118.192 2.75379 -1.2 -9.14992 -3.51913e+06 -2.94757e+06 -3.75979e+06 28393.3 977579 -660807
197 1 Mg 2.2519 121.681 -0.0141491 1.2 -7.56158 -1.62018e+06 4.29779e+06 -181465 -967257 -1.7107e+06 -1.88418e+06
198 1 Mg 6.91848 124.537 1.51528 1.2 -8.31973 996348 671260 1.88291e+06 734491 48728.3 -811312
199 2 Si 4.28315 122.694 1.4679 2.4 -32.8344 6.39883e+06 1.03296e+07 6.77458e+06 -88209.9 -43257.5 -876066
200 3 O 5.85111 122.649 1.51832 -1.2 -9.62854 -1.64922e+06 -3.93931e+06 -3.23972e+06 -566259 -326062 367273
201 3 O 3.20939 126.272 1.46821 -1.2 -9.2315 -2.03109e+06 -4.20631e+06 -2.75174e+06 -1.40651e+06 -331877 690013
202 3 O 3.61201 123.353 0.209585 -1.2 -9.26854 -2.88205e+06 -4.14162e+06 -2.84508e+06 9634.86 769364 1.54102e+06
203 1 Mg 2.35136 132.126 2.85564 1.2 -7.90291 -1.02766e+06 4.28876e+06 -556453 -1.05621e+06 1.23576e+06 996884
204 3 O 3.52855 123.323 2.74715 -1.2 -9.34713 -3.10275e+06 -3.9594e+06 -2.40703e+06 -690928 -1.07126e+06 -109348
205 1 Mg 2.36891 129.194 4.39237 1.2 -8.50015 1.71183e+06 821027 2.96405e+06 1.06693e+06 71848.9 -1.07754e+06
206 2 Si 5.04748 131.047 4.29048 2.4 -33.1244 6.8675e+06 9.58411e+06 8.95114e+06 63847.6 -190883 -1.2251e+06
207 3 O 3.4675 131.099 4.29144 -1.2 -9.59831 -1.72102e+06 -2.88216e+06 -3.62376e+06 -605483 -515780 702429
208 3 O 6.02811 127.314 4.39103 -1.2 -8.98083 -2.85627e+06 -3.67629e+06 -3.64904e+06 -664083 -139044 127855
209 3 O 5.79074 130.355 3.02166 -1.2 -8.91278 -2.74385e+06 -2.85383e+06 -2.73183e+06 -431115 -1.35874e+06 465800
210 3 O 5.72901 130.364 5.57051 -1.2 -9.14397 -2.67356e+06 -3.21164e+06 -3.15954e+06 -135295 1.14212e+06 1.20374e+06
211 1 Mg 4.60509 126.823 2.94694 1.2 -7.77809 -1.15233e+06 3.62759e+06 -171078 1.07944e+06 -1.28429e+06 1.3035e+06
212 1 Mg 4.48301 123.95 4.48341 1.2 -7.87034 1.08775e+06 978253 2.02181e+06 -917221 331551 -196784
213 2 Si 6.64717 125.77 4.41025 2.4 -32.8245 4.70043e+06 1.07882e+07 7.32488e+06 511413 75976.4 -682251
214 3 O 3.46695 125.945 4.44198 -1.2 -9.79179 -2.10453e+06 -3.66161e+06 -3.84209e+06 1.2375e+06 -142578 299229
215 3 O 5.69809 122.169 4.46696 -1.2 -9.44909 -1.20625e+06 -5.02788e+06 -3.66697e+06 1.07556e+06 178812 719582
216 3 O 5.95536 125.175 3.154 -1.2 -9.28553 -2.47111e+06 -5.0706e+06 -4.46521e+06 146079 1.05105e+06 -947882
217 1 Mg 4.60721 126.772 -0.0347368 1.2 -7.67187 -75981.4 4.21322e+06 91712.6 841552 996945 -1.81737e+06
218 3 O 5.92638 125.117 5.64055 -1.2 -9.57294 -1.78654e+06 -3.94609e+06 -4.21191e+06 -138875 -766680 1.21834e+06
219 1 Mg 4.69886 129.65 1.41552 1.2 -8.58672 2.0451e+06 317754 3.05679e+06 -582439 -59609.2 -740959
220 2 Si 2.55671 127.818 1.51567 2.4 -33.3344 5.05184e+06 1.07701e+07 8.06423e+06 -148901 438774 -445771
221 3 O 5.77622 127.748 1.48332 -1.2 -9.55498 -3.20006e+06 -3.55927e+06 -4.15261e+06 728195 869820 768885
222 3 O 3.73945 131.483 1.30588 -1.2 -9.15245 -2.91517e+06 -3.45347e+06 -3.27712e+06 991573 -17226.9 81166.6
223 3 O 3.23516 128.481 0.274821 -1.2 -9.01873 -3.56808e+06 -3.46694e+06 -3.61658e+06 -254850 -548130 1.38998e+06
224 3 O 3.34389 128.48 2.75199 -1.2 -9.00879 -3.02034e+06 -3.02635e+06 -4.16953e+06 772247 1.22571e+06 581164
225 1 Mg 2.34946 131.861 -0.0955726 1.2 -7.68484 -876522 4.1883e+06 67770.7 -782494 -1.5162e+06 -2.43767e+06
226 1 Mg 6.87209 134.87 1.29904 1.2 -8.4043 1.98127e+06 1.12192e+06 2.31129e+06 528726 -151914 -244956
227 2 Si 4.38878 133.007 1.26854 2.4 -33.2372 4.45069e+06 1.15355e+07 8.52391e+06 -733817 -314726 -748044
228 3 O 5.90642 132.935 1.35158 -1.2 -9.65366 -3.3261e+06 -3.95041e+06 -3.69875e+06 -685890 -400379 612816
229 3 O 3.24256 136.76 1.2862 -1.2 -8.94858 -2.80083e+06 -4.39203e+06 -2.98599e+06 -1.294e+06 -50194 267422
230 3 O 3.73906 133.71 0.0152487 -1.2 -9.06597 -2.73907e+06 -2.55862e+06 -3.62012e+06 -116315 682205 463618
231 1 Mg 2.19626 142.413 2.71199 1.2 -8.43665 -389576 3.49984e+06 -60707.8 -650488 775510 1.43976e+06
232 3 O 3.63346 133.699 2.56375 -1.2 -8.95766 -3.00775e+06 -3.2623e+06 -988958 -457450 -756893 536707
233 1 Mg 2.21398 139.502 4.26135 1.2 -8.50706 2.13768e+06 722675 2.65319e+06 993272 118724 -824711
234 2 Si 4.9187 141.409 4.17155 2.4 -34.0011 8.17063e+06 9.52395e+06 8.50151e+06 -67367.2 152790 -469718
235 3 O 3.33174 141.541 4.16863 -1.2 -9.06733 -2.13868e+06 -3.60353e+06 -4.25184e+06 -627939 -141268 195738
236 3 O 5.90816 137.695 4.25626 -1.2 -9.24441 -2.16923e+06 -4.48029e+06 -3.81936e+06 -1.35402e+06 335420 729913
237 3 O 5.61202 140.741 2.90558 -1.2 -8.61095 -4.07698e+06 -3.10431e+06 -2.69523e+06 -993.262 -905232 102225
238 3 O 5.59483 140.716 5.42031 -1.2 -9.00446 -3.20623e+06 -2.90464e+06 -3.7773e+06 -319647 1.05642e+06 1.08332e+06
239 1 Mg 4.51836 137.262 2.79015 1.2 -7.92629 -817949 4.24456e+06 -1.13206e+06 438318 -986598 1.27429e+06
240 1 Mg 4.53817 134.425 4.37014 1.2 -8.14485 2.13475e+06 595042 3.18993e+06 -1.0521e+06 311221 -208137
241 2 Si 6.67566 136.239 4.26829 2.4 -33.2178 4.46805e+06 1.05722e+07 8.97065e+06 -663024 -261195 -1.39253e+06
242 3 O 3.47618 136.318 4.21324 -1.2 -9.73475 -2.8659e+06 -3.89152e+06 -4.13977e+06 -852313 191541 464089
243 3 O 5.71933 132.511 4.31749 -1.2 -9.29978 -1.49658e+06 -4.90195e+06 -3.37172e+06 853338 -22.5493 1.05359e+06
244 3 O 6.04017 135.484 3.0528 -1.2 -8.93771 -3.6122e+06 -3.7698e+06 -2.73925e+06 201686 288067 -146039
245 1 Mg 4.61326 137.112 -0.191121 1.2 -7.77433 -1.33627e+06 3.82209e+06 -4509.7 621407 992247 -2.04582e+06
246 3 O 6.04983 135.563 5.59633 -1.2 -9.10693 -2.18378e+06 -3.23469e+06 -2.74545e+06 523334 -828262 395501
247 1 Mg 4.68566 140.049 1.10518 1.2 -8.57892 2.33014e+06 441563 2.60781e+06 -694522 342167 -93141.7
248 2 Si 2.50512 138.26 1.26912 2.4 -33.6075 5.13941e+06 1.16644e+07 6.93847e+06 -265518 -40971.4 -519704
249 3 O 5.7246 138.093 1.28489 -1.2 -9.52016 -3.51181e+06 -3.93598e+06 -3.23789e+06 -2281.53 -105819 127602
250 3 O 3.64114 141.829 1.1647 -1.2 -8.46047 -2.80861e+06 -2.80057e+06 -3.55207e+06 1.78172e+06 -261542 1.0961e+06
251 3 O 3.17145 138.933 0.028827 -1.2 -9.04851 -2.90712e+06 -4.14281e+06 -3.85515e+06 414176 -645962 1.28163e+06
252 3 O 3.15085 138.912 2.56484 -1.2 -8.7846 -3.22761e+06 -4.43824e+06 -2.44937e+06 298949 642728 -173070
253 1 Mg 2.35606 142.278 -0.318292 1.2 -8.35902 -256331 3.37215e+06 569233 -891500 -1.54971e+06 -2.109e+06
254 1 Mg 7.03902 145.177 1.17194 1.2 -8.75381 2.05426e+06 197508 4.36828e+06 778573 100228 -534840
255 2 Si 4.3765 143.389 1.23184 2.4 -34.1399 7.76649e+06 9.53697e+06 9.34674e+06 1.10558e+06 -58098.1 -889266
256 3 O 5.92881 143.303 1.21961 -1.2 -9.12275 -3.31918e+06 -2.86299e+06 -4.7351e+06 -46325.6 -478921 445433
257 3 O 3.25801 147.026 1.16294 -1.2 -8.9449 -3.23247e+06 -3.17724e+06 -3.82293e+06 -1.11691e+06 -697031 380023
258 3 O 3.69198 144.049 -0.0382391 -1.2 -8.63044 -3.69117e+06 -2.53837e+06 -3.31043e+06 -17863.2 779020 1.10411e+06
259 1 Mg 1.54213 152.464 1.63334 1.2 -7.86324 36798.3 -1.91634e+06 3.05348e+06 467344 229151 -493890
260 3 O 3.65346 144.003 2.47945 -1.2 -8.61959 -4.2464e+06 -3.43244e+06 -4.15393e+06 -303893 -1.19676e+06 -308746
261 1 Mg 1.76157 150.106 4.61504 1.2 -8.85689 900442 3.5906e+06 1.45537e+06 -196754 723607 699414
262 2 Si 3.83257 150.785 2.8273 2.4 -34.6152 1.00963e+07 6.07804e+06 6.60811e+06 -1.40122e+06 -572624 -678333
263 3 O 2.45021 151.522 3.12939 -1.2 -8.00293 -4.97793e+06 -918113 -5.12772e+06 -20327.7 788712 -1.53148e+06
264 3 O 5.97465 148.044 4.08944 -1.2 -8.53908 -3.73475e+06 -3.11692e+06 -2.44769e+06 -813421 -802800 152169
265 3 O 4.54796 151.547 1.67535 -1.2 -8.69314 -6.0713e+06 -76122.3 -6.24979e+06 681291 749838 724149
266 3 O 4.62978 150.642 4.10869 -1.2 -8.28665 -6.45717e+06 -4.44257e+06 -4.61752e+06 -1.15606e+06 -252379 861221
267 1 Mg 4.76498 147.407 2.55959 1.2 -8.16212 -853194 2.88531e+06 521516 1.03798e+06 -1.36799e+06 1.86378e+06
268 1 Mg 4.559 144.674 4.22108 1.2 -8.77032 2.24461e+06 217952 2.49816e+06 -578891 209405 186602
269 2 Si 6.67455 146.551 4.15203 2.4 -34.0206 6.95154e+06 1.11398e+07 7.95284e+06 99839.1 -524915 966879
270 3 O 3.46653 146.604 4.10876 -1.2 -9.14599 -3.02067e+06 -3.57984e+06 -2.82278e+06 268014 13833 -622656
271 3 O 5.58426 142.903 4.15416 -1.2 -8.69497 -4.21338e+06 -4.48063e+06 -3.85679e+06 1.65072e+06 293716 246738
272 3 O 5.97544 145.783 2.9113 -1.2 -8.73324 -3.75329e+06 -3.22539e+06 -2.48515e+06 491241 709395 -315131
273 1 Mg 4.62503 147.574 -0.351429 1.2 -8.24403 330721 3.45747e+06 1.02147e+06 308789 1.20444e+06 -1.53663e+06
274 3 O 5.99325 145.928 5.45014 -1.2 -8.93624 -2.64182e+06 -3.07821e+06 -3.117e+06 237808 -695044 249752
275 1 Mg 3.93861 151.09 -0.110272 1.2 -8.45956 2.73639e+06 482644 -2.88298e+06 -438929 759050 -315924