ITEM: TIMESTEP
17000
ITEM: NUMBER OF ATOMS
5600
ITEM: BOX BOUNDS xy xz yz pp pp pp
0.0000000000000000e+00 7.1234999999999999e+00 0.0000000000000000e+00
0.0000000000000000e+00 2.0198500000000001e+02 2.3744999999999998e+00
0.0000000000000000e+00 1.1958400000000000e+02 0.0000000000000000e+00
ITEM: ATOMS id type element xu yu zu q c_pe c_s[1] c_s[2] c_s[3] c_s[4] c_s[5] c_s[6]
1 1 Mg -1.60473 49.5302 -0.702053 1.2 -7.23211 -1.76058e+06 -756212 1.31212e+06 282655 291494 -18113.2
2 1 Mg 3.13319 50.8165 2.54319 1.2 -7.91196 -4.35791e+06 3.54582e+06 291774 132456 1.15942e+06 156096
3 2 Si 0.86595 51.22 0.535303 2.4 -33.0804 9.8983e+06 7.4408e+06 6.17997e+06 -1.04758e+06 1.389e+06 4.03237e+06
4 3 O 2.28274 50.4366 0.749302 -1.2 -8.96137 -3.84717e+06 -2.78517e+06 -3.88163e+06 -1.08366e+06 -451080 -677703
5 3 O -1.26014 53.8317 1.9045 -1.2 -8.33441 -4.2216e+06 -5.09821e+06 -3.13134e+06 -1.95721e+06 -406416 1.36439e+06
6 3 O 0.134162 50.3017 -0.55761 -1.2 -9.24194 -5.31886e+06 -977287 -3.50098e+06 1.12408e+06 -240965 -299990
7 1 Mg -2.61427 59.4698 2.92273 1.2 -7.62534 -1.73465e+06 4.03897e+06 -245723 -878324 933358 1.8395e+06
8 3 O 0.0705862 51.1098 1.88769 -1.2 -9.14827 -7.60772e+06 -3.00452e+06 -4.29051e+06 -891400 -1.01802e+06 -1.98622e+06
9 1 Mg -2.5059 56.9366 4.57813 1.2 -8.41156 658276 1.06282e+06 558352 996836 -142150 776856
10 2 Si 0.120688 58.6665 4.50283 2.4 -33.0257 5.86366e+06 1.14898e+07 7.14458e+06 1.03394e+06 820270 1.06546e+06
11 3 O -1.42265 58.7319 4.48637 -1.2 -9.54782 -2.40368e+06 -5.77566e+06 -3.74663e+06 3995.4 190918 -174195
12 3 O 1.52608 54.3188 4.71021 -1.2 -8.70768 -5.14443e+06 -4.09539e+06 -815454 -1.42678e+06 895535 -507792
13 3 O 0.840097 57.9733 3.24872 -1.2 -9.29685 -4.35478e+06 -3.76849e+06 -2.67885e+06 -917079 -1.24393e+06 -509163
14 3 O 0.857357 58.0143 5.77398 -1.2 -8.96803 -3.76846e+06 -5.18714e+06 -2.71845e+06 -237432 1.46857e+06 659791
15 1 Mg 0.319281 53.5353 2.92638 1.2 -8.26985 1.32449e+06 3.45082e+06 544340 902792 -1.54007e+06 438961
16 1 Mg 0.769196 49.7314 3.12546 1.2 -7.0363 906684 2.60071e+06 -1.10857e+06 -482048 -544073 1.06189e+06
17 2 Si 2.30531 52.9759 4.75481 2.4 -34.4706 9.75089e+06 9.38322e+06 7.01358e+06 273689 -1.37676e+06 -1.01189e+06
18 3 O -0.892224 53.2006 4.74486 -1.2 -8.48327 -4.26328e+06 -4.58311e+06 -3.31063e+06 -296047 -2.49601e+06 -527008
19 3 O 2.60641 48.9842 3.2854 -1.2 -7.74373 2.47537e+06 -516223 -996404 -623015 -485683 -972075
20 3 O 1.961 52.17 3.4433 -1.2 -8.26188 -5.32652e+06 -2.88093e+06 -4.77924e+06 -2.86856e+06 624889 445238
21 1 Mg -0.121155 54.437 0.213478 1.2 -7.86004 -673951 1.82293e+06 544576 2.33993e+06 1.64801e+06 -1.70215e+06
22 3 O 1.70038 51.8685 5.89919 -1.2 -9.954 -4.9541e+06 -2.79574e+06 -4.7039e+06 2.19578e+06 -307817 -89075.1
23 1 Mg -0.0177321 57.2589 1.55338 1.2 -8.22186 2.3805e+06 1.21934e+06 1.09307e+06 -1.30153e+06 -148425 -410214
24 2 Si -1.9692 55.2826 1.89821 2.4 -34.3422 8.30481e+06 1.04046e+07 7.92619e+06 -468610 1.7551e+06 -856546
25 3 O 1.17362 55.0981 1.72695 -1.2 -8.85674 -1.97657e+06 -2.31251e+06 -2.49578e+06 90883.7 968825 -43910.9
26 3 O -1.09459 59.0797 1.54777 -1.2 -9.31148 -1.73231e+06 -4.62437e+06 -2.76853e+06 1.64024e+06 -213486 754142
27 3 O -1.39421 55.9236 0.5345 -1.2 -9.11742 -3.91731e+06 -3.82733e+06 -2.49855e+06 778961 -335462 424481
28 3 O -1.4939 56.1828 3.07319 -1.2 -8.48828 -3.11243e+06 -3.4976e+06 -2.94992e+06 367513 -38178.2 -241699
29 1 Mg -2.353 59.6138 -0.0157388 1.2 -7.58595 -1.31374e+06 4.21781e+06 -156269 -947252 -1.06419e+06 -1.93312e+06
30 1 Mg 2.04405 62.3685 1.60095 1.2 -8.32877 1.16221e+06 920515 3.09577e+06 68608.9 -48358.3 162574
31 2 Si -0.426391 60.6086 1.55683 2.4 -32.6893 6.12497e+06 1.15741e+07 7.40135e+06 -359247 -1.56701e+06 -376308
32 3 O 1.16929 60.5209 1.49332 -1.2 -9.91539 -1.77109e+06 -4.17269e+06 -3.31961e+06 -849937 -754092 837019
33 3 O -1.71901 64.2359 1.58109 -1.2 -8.98585 -1.3187e+06 -3.48714e+06 -2.12268e+06 -657385 -235010 -366438
34 3 O -1.1192 61.2542 0.305528 -1.2 -9.19845 -3.3679e+06 -4.26231e+06 -2.85045e+06 -162659 888224 1.07556e+06
35 1 Mg -2.52847 69.8539 3.04323 1.2 -7.44754 -1.03301e+06 4.28386e+06 -314981 -609968 1.32588e+06 2.02171e+06
36 3 O -1.15848 61.2488 2.82973 -1.2 -9.14233 -1.46761e+06 -4.09712e+06 -2.61894e+06 -1.01546e+06 -1.44041e+06 -248533
37 1 Mg -2.49431 67.1072 4.60831 1.2 -7.84155 848001 1.21124e+06 2.49894e+06 1.01327e+06 -178193 942589
38 2 Si 0.165939 68.9364 4.62333 2.4 -32.5657 3.2952e+06 1.11671e+07 8.03036e+06 160311 -361081 740607
39 3 O -1.35651 69.0399 4.64906 -1.2 -9.92035 -2.80946e+06 -4.63537e+06 -3.12804e+06 -590994 648527 97607.7
40 3 O 1.15153 65.3255 4.63912 -1.2 -9.5776 -841258 -3.06165e+06 -3.33625e+06 -1.76311e+06 200625 -240857
41 3 O 0.811867 68.2734 3.27725 -1.2 -9.384 -1.81397e+06 -5.12267e+06 -936407 293587 -1.13985e+06 -1.1056e+06
42 3 O 0.896898 68.3264 5.8901 -1.2 -9.64049 -2.99341e+06 -4.24601e+06 -2.49789e+06 50059.2 980958 634049
43 1 Mg -0.145413 64.8784 3.15173 1.2 -7.54739 -222449 4.84449e+06 -664530 1.00544e+06 -1.02651e+06 1.28255e+06
44 1 Mg -0.314266 61.9506 4.57497 1.2 -8.27193 1.21653e+06 513603 1.99186e+06 -756231 439725 6974.46
45 2 Si 1.84094 63.7265 4.61036 2.4 -32.53 4.67762e+06 1.11725e+07 6.90154e+06 -504879 53093.8 292826
46 3 O -1.35142 63.737 4.58086 -1.2 -9.82148 -1.75809e+06 -3.43462e+06 -3.85411e+06 754894 298200 1557.72
47 3 O 0.874039 60.1241 4.60651 -1.2 -9.18911 -2.4939e+06 -5.70002e+06 -2.99846e+06 1.48761e+06 -763513 1.50622e+06
48 3 O 1.07529 63.103 3.3859 -1.2 -9.22716 -3.76103e+06 -2.81831e+06 -3.3361e+06 -176245 1.05027e+06 115189
49 1 Mg -0.291837 64.6881 0.0805769 1.2 -7.45193 -570362 4.65258e+06 437529 1.04953e+06 1.08402e+06 -1.78253e+06
50 3 O 1.16833 63.1017 5.84788 -1.2 -9.4295 -3.24339e+06 -4.11903e+06 -4.70687e+06 -15183.7 -493864 667785
51 1 Mg -0.153593 67.6981 1.54427 1.2 -7.9603 746147 720609 2.19564e+06 -173244 41563.1 412714
52 2 Si -2.31295 65.8046 1.48841 2.4 -32.9629 3.04326e+06 1.18288e+07 7.00562e+06 -503382 1.31182e+06 110215
53 3 O 0.933681 65.7593 1.58747 -1.2 -9.77142 -3.86433e+06 -4.06504e+06 -2.86672e+06 1.04802e+06 219522 117703
54 3 O -1.04357 69.4775 1.61556 -1.2 -9.69928 -3.01881e+06 -7.52251e+06 -3.7234e+06 1.40475e+06 -284782 337301
55 3 O -1.63442 66.375 0.240711 -1.2 -9.45158 -2.98666e+06 -3.72972e+06 -4.38849e+06 -137732 -73692.9 1.44941e+06
56 3 O -1.57209 66.4585 2.81102 -1.2 -9.29032 -2.39809e+06 -3.19433e+06 -254588 -95858.6 923410 -902043
57 1 Mg -2.41908 69.8271 0.0534868 1.2 -7.41765 -1.55441e+06 4.46041e+06 -542897 -841255 -1.23044e+06 -952468
58 1 Mg 2.14918 72.6056 1.62267 1.2 -8.33264 655091 884185 3.5528e+06 453535 -78598.2 433791
59 2 Si -0.426219 70.9104 1.63509 2.4 -32.3402 4.84256e+06 9.85326e+06 9.46309e+06 -1.34842e+06 173827 379702
60 3 O 1.13624 70.8361 1.57552 -1.2 -10.0252 -1.68556e+06 -4.25939e+06 -3.6249e+06 -1.85999e+06 -227699 144036
61 3 O -1.6233 74.4812 1.51394 -1.2 -8.80134 -2.0896e+06 -1.87412e+06 -2.69165e+06 -819991 137191 135875
62 3 O -1.17697 71.5101 0.24101 -1.2 -9.23198 -2.11553e+06 -4.33492e+06 -364325 -287878 1.79647e+06 -15843.2
63 1 Mg -2.48676 80.1945 3.14399 1.2 -7.58425 -1.38947e+06 4.57428e+06 -390244 -1.00846e+06 1.80521e+06 1.72031e+06
64 3 O -1.19279 71.579 2.90117 -1.2 -9.31658 -1.87034e+06 -4.55951e+06 -1.43767e+06 67263.4 -1.56561e+06 -595401
65 1 Mg -2.47296 77.3487 4.61684 1.2 -8.3596 1.71095e+06 21107.3 3.34104e+06 920587 -344580 -6075.28
66 2 Si 0.257765 79.2148 4.67831 2.4 -32.4482 3.95345e+06 1.11049e+07 7.93256e+06 550226 -122364 758339
67 3 O -1.27907 79.2619 4.61978 -1.2 -9.95157 -2.01319e+06 -4.14763e+06 -2.7818e+06 53706.2 108424 -205526
68 3 O 1.23688 75.5751 4.7334 -1.2 -9.0259 -3.59119e+06 -5.20096e+06 -3.7586e+06 -1.24273e+06 288565 16703.9
69 3 O 0.941994 78.455 3.37716 -1.2 -9.14401 -3.00163e+06 -3.28212e+06 -1.60652e+06 -220486 -811890 -231471
70 3 O 0.931784 78.5853 5.95079 -1.2 -9.51792 -2.16657e+06 -4.2207e+06 -3.66902e+06 -147235 523859 686958
71 1 Mg -0.0879701 75.1198 3.04518 1.2 -7.9499 384240 3.98372e+06 447704 878237 -950346 1.52997e+06
72 1 Mg -0.207156 72.2019 4.59353 1.2 -8.37398 2.09221e+06 993288 2.03275e+06 -500226 139266 -328523
73 2 Si 1.93071 74.1201 4.65023 2.4 -33.5524 6.19746e+06 9.9707e+06 8.30718e+06 435717 180460 -147982
74 3 O -1.27784 74.1831 4.57403 -1.2 -9.32931 -2.84722e+06 -3.60396e+06 -2.71124e+06 414686 56131.1 -431019
75 3 O 0.821285 70.4172 4.51975 -1.2 -9.28684 -2.84996e+06 -5.34176e+06 -2.46491e+06 583691 2449.27 -283896
76 3 O 1.19622 73.4597 3.36444 -1.2 -8.87788 -3.39438e+06 -2.41394e+06 -2.16953e+06 350188 1.43012e+06 106534
77 1 Mg -0.0694283 75.088 -0.000385405 1.2 -7.86243 -460793 4.14978e+06 -6635.56 1.15466e+06 1.24083e+06 -1.79644e+06
78 3 O 1.2559 73.4115 5.91267 -1.2 -9.04368 -2.45855e+06 -4.07707e+06 -2.52453e+06 617692 -526287 932996
79 1 Mg -0.0615109 77.8981 1.7122 1.2 -8.47659 2.07336e+06 604320 2.98411e+06 -908338 -383990 -705653
80 2 Si -2.1803 76.0534 1.47745 2.4 -33.4814 5.52912e+06 1.24799e+07 8.46125e+06 -303344 -103088 -414319
81 3 O 1.00835 76.0467 1.59722 -1.2 -9.49249 -2.14435e+06 -4.49241e+06 -3.24698e+06 938160 -544650 520542
82 3 O -1.1081 79.7591 1.57123 -1.2 -9.1469 -2.50953e+06 -4.00928e+06 -2.90214e+06 674240 -229956 687423
83 3 O -1.4463 76.6617 0.228485 -1.2 -8.95631 -3.549e+06 -4.18851e+06 -2.8406e+06 142111 -883065 810325
84 3 O -1.49274 76.7581 2.79503 -1.2 -8.96849 -3.27998e+06 -2.41931e+06 -1.30351e+06 363554 729632 368271
85 1 Mg -2.40654 80.1929 0.159958 1.2 -7.95393 -102203 4.48036e+06 -1.03042e+06 -680148 -1.73325e+06 -1.03167e+06
86 1 Mg 2.21297 83.1734 1.65043 1.2 -7.97314 1.23827e+06 1.86292e+06 2.27498e+06 1.19262e+06 -499351 322198
87 2 Si -0.466352 81.2893 1.71534 2.4 -32.9853 5.34904e+06 1.05756e+07 6.64938e+06 -55755.4 563992 330310
88 3 O 1.09972 81.1438 1.65506 -1.2 -9.56724 -1.73147e+06 -2.98603e+06 -2.91252e+06 -804667 -671586 -406900
89 3 O -1.38153 84.9661 1.6799 -1.2 -9.4479 -1.57224e+06 -2.16316e+06 -1.86522e+06 -457457 -491496 -1.24655e+06
90 3 O -1.09625 81.9608 0.395259 -1.2 -9.1209 -2.22743e+06 -4.23271e+06 -1.00631e+06 302218 368048 682947
91 1 Mg -2.40787 90.6062 3.34716 1.2 -7.92451 -1.1074e+06 3.79955e+06 334503 -948537 1.87692e+06 1.3614e+06
92 3 O -1.14367 81.8887 2.93269 -1.2 -9.54586 -3.02874e+06 -3.57834e+06 -3.87418e+06 192630 417373 -1.55476e+06
93 1 Mg -2.26062 87.6242 4.58817 1.2 -8.2839 1.78312e+06 1.08228e+06 1.08665e+06 658096 626498 -14941.8
94 2 Si 0.364806 89.643 4.81517 2.4 -33.7663 6.45349e+06 1.14733e+07 7.12036e+06 -12500.3 468122 -437840
95 3 O -1.14973 89.7231 4.8921 -1.2 -9.13126 -3.79843e+06 -4.11478e+06 -3.41574e+06 11577.5 581834 147163
96 3 O 1.40465 85.9042 4.62833 -1.2 -9.43498 -2.4324e+06 -4.70072e+06 -2.30786e+06 -973188 -523158 -903691
97 3 O 1.02613 88.9677 3.54727 -1.2 -9.30979 -2.85232e+06 -3.51719e+06 -3.08369e+06 -590015 -763692 -773587
98 3 O 1.10329 88.9599 6.1143 -1.2 -8.56361 -4.29261e+06 -3.96168e+06 -1.23265e+06 -451544 1.30489e+06 536682
99 1 Mg 0.0569731 85.4159 3.13063 1.2 -7.34521 -1.29005e+06 4.27031e+06 228582 1.10109e+06 -1.26946e+06 2.28955e+06
100 1 Mg -0.0476801 82.6169 4.63271 1.2 -7.90771 1.14841e+06 1.15063e+06 2.26722e+06 -1.15176e+06 386859 714971
101 2 Si 2.05464 84.3991 4.6915 2.4 -32.4375 3.82824e+06 1.21481e+07 7.03016e+06 211503 -166098 1.29708e+06
102 3 O -1.15085 84.5065 4.66978 -1.2 -10.0096 -2.11e+06 -4.63856e+06 -3.12139e+06 655493 -12522.5 -1.21833e+06
103 3 O 0.988103 80.676 4.60729 -1.2 -9.58182 -1.83448e+06 -4.56337e+06 -3.52196e+06 1.01066e+06 367217 -34472
104 3 O 1.28599 83.6385 3.51426 -1.2 -9.59045 -2.20734e+06 -4.06836e+06 -2.86487e+06 586830 1.08813e+06 -970544
105 1 Mg 0.064412 85.5701 0.126041 1.2 -7.50702 -923541 4.44414e+06 -420260 1.33218e+06 1.50889e+06 -1.30752e+06
106 3 O 1.35759 83.7624 5.99032 -1.2 -9.43278 -1.85382e+06 -4.13704e+06 -2.83128e+06 253671 -1.05155e+06 -258168
107 1 Mg 0.0905585 88.3894 1.81723 1.2 -8.01654 1.28543e+06 881894 2.78717e+06 -860631 -266714 469764
108 2 Si -1.98101 86.5494 1.67331 2.4 -32.2667 4.6437e+06 1.22126e+07 7.39947e+06 259132 38725.3 956500
109 3 O 1.20396 86.3563 1.67199 -1.2 -10.0145 -1.00629e+06 -3.7201e+06 -2.80357e+06 1.36363e+06 4040.79 -804780
110 3 O -0.978085 90.2112 1.88782 -1.2 -9.30864 -2.45616e+06 -4.8492e+06 -2.65506e+06 992591 -189865 -34364.8
111 3 O -1.25979 87.262 0.44461 -1.2 -9.54188 -1.49383e+06 -2.98549e+06 -2.54344e+06 435967 -788108 -499312
112 3 O -1.28732 87.2066 2.93555 -1.2 -9.62342 -2.16731e+06 -3.50735e+06 -4.09635e+06 -86713.7 994403 -898524
113 1 Mg -2.26835 90.7591 0.272341 1.2 -7.73828 -1.92001e+06 3.69887e+06 450492 -1.19216e+06 -1.25025e+06 -1.52103e+06
114 1 Mg 2.40035 93.4912 1.96496 1.2 -8.64732 2.02056e+06 244314 2.76717e+06 966549 1622.42 -32857.7
115 2 Si -0.290108 91.6751 1.85189 2.4 -33.3297 6.44957e+06 1.02399e+07 7.9553e+06 457497 -492373 -32374.9
116 3 O 1.26832 91.613 1.82575 -1.2 -9.45652 -2.13052e+06 -4.08224e+06 -3.21644e+06 -100602 -314612 -170432
117 3 O -1.42828 95.3402 1.94545 -1.2 -9.15112 -2.62497e+06 -4.48114e+06 -2.89517e+06 -1.29569e+06 -327237 1966.97
118 3 O -0.96639 92.3077 0.553802 -1.2 -9.09895 -3.21442e+06 -3.61014e+06 -2.88843e+06 -840412 675040 416775
119 1 Mg -2.36035 100.979 3.29004 1.2 -8.07006 -226087 4.84801e+06 -301356 -569009 852430 1.8467e+06
120 3 O -1.00443 92.421 3.09943 -1.2 -8.87323 -3.5031e+06 -3.50738e+06 -2.79317e+06 -680673 -1.18168e+06 35575.1
121 1 Mg -2.41659 98.1049 4.96405 1.2 -8.8539 2.43789e+06 976616 1.83175e+06 794160 -195057 303082
122 2 Si 0.21453 100.034 4.68539 2.4 -34.1156 6.7546e+06 1.19926e+07 7.86484e+06 106248 -509588 852258
123 3 O -1.33595 100.112 4.79175 -1.2 -9.22122 -3.14653e+06 -4.47044e+06 -3.25892e+06 -347272 -797470 -451679
124 3 O 1.3845 96.2367 4.98165 -1.2 -8.7489 -4.28503e+06 -3.63419e+06 -2.21892e+06 -1.43378e+06 583102 -253874
125 3 O 0.910682 99.4243 3.39418 -1.2 -8.47969 -3.41176e+06 -3.69609e+06 -2.24664e+06 134521 -850768 -1.06061e+06
126 3 O 0.886929 99.2576 5.94297 -1.2 -8.71097 -3.69747e+06 -2.27909e+06 -1.52963e+06 -222523 1.05706e+06 -477635
127 1 Mg -0.00583206 95.8635 3.40962 1.2 -8.13391 415004 4.82473e+06 -67904.1 518764 -1.11187e+06 1.33611e+06
128 1 Mg -0.0604106 93.0447 4.77588 1.2 -8.69184 1.57944e+06 847738 2.81319e+06 -1.49316e+06 -211586 -836088
129 2 Si 2.01513 94.6813 5.00722 2.4 -33.7349 7.67936e+06 1.17964e+07 8.72248e+06 308141 -296930 -1.30902e+06
130 3 O -1.16007 94.9074 4.88182 -1.2 -9.16825 -1.65154e+06 -4.29178e+06 -3.36385e+06 1.70817e+06 -717332 94158.8
131 3 O 1.09284 91.1267 4.80011 -1.2 -8.73257 -3.10938e+06 -4.09396e+06 -2.50973e+06 928114 403367 78302.2
132 3 O 1.32048 94.085 3.67159 -1.2 -8.83955 -3.9636e+06 -3.8938e+06 -1.48626e+06 -465955 1.1602e+06 -372782
133 1 Mg -0.119847 95.8951 0.396692 1.2 -8.04697 -588808 4.09309e+06 -151105 598530 1.60046e+06 -1.26054e+06
134 3 O 1.28745 94.0303 6.26357 -1.2 -8.67701 -3.4332e+06 -4.16435e+06 -1.27125e+06 -2723.38 -1.13689e+06 223767
135 1 Mg -0.0187562 98.7835 1.61496 1.2 -8.87624 3.19322e+06 -219588 2.16049e+06 -501980 590581 343356
136 2 Si -2.13074 96.7841 1.95531 2.4 -34.0411 7.56767e+06 1.16369e+07 8.46413e+06 24659.4 788295 485270
137 3 O 1.03124 96.8623 1.89342 -1.2 -9.10905 -1.88205e+06 -3.57944e+06 -3.25864e+06 -680955 722501 -1.036e+06
138 3 O -1.01897 100.552 1.68373 -1.2 -9.04676 -2.80083e+06 -6.58925e+06 -3.32919e+06 1.40662e+06 -501613 -1.22191e+06
139 3 O -1.50581 97.5453 0.657725 -1.2 -8.6661 -3.57364e+06 -1.836e+06 -2.18752e+06 330281 -425603 -643933
140 3 O -1.48564 97.5665 3.22106 -1.2 -8.32223 -3.51619e+06 -2.44116e+06 -1.91094e+06 373837 881410 577653
141 1 Mg -2.25506 101.133 0.167102 1.2 -7.76677 -1.71368e+06 3.93517e+06 -154836 -983809 -1.50767e+06 -1.99898e+06
142 1 Mg 7.06355 103.772 1.73436 1.2 -8.55623 1.74791e+06 685551 2.82032e+06 569707 91305.6 -530698
143 2 Si -0.314182 101.989 1.68951 2.4 -33.2732 5.9682e+06 1.12206e+07 7.31826e+06 306910 303847 -759304
144 3 O 1.24101 102.069 1.67341 -1.2 -9.4741 -2.43569e+06 -4.52634e+06 -2.81395e+06 -166252 513404 -161069
145 3 O 3.35865 105.698 1.74521 -1.2 -8.87912 -3.14246e+06 -4.29491e+06 -4.37127e+06 -918643 -64822.2 7520.94
146 3 O -1.03401 102.745 0.403391 -1.2 -9.17947 -2.8024e+06 -3.51663e+06 -1.74666e+06 -1.09476e+06 750966 -243236
147 1 Mg 2.32894 111.386 3.13895 1.2 -8.81169 -92693.7 3.69064e+06 -136076 -1.3109e+06 1.66199e+06 1.57275e+06
148 3 O -0.974492 102.574 2.99636 -1.2 -8.81409 -4.15427e+06 -4.90582e+06 -2.7253e+06 -189120 -1.16016e+06 -1.20001e+06
149 1 Mg 2.38707 108.424 4.70609 1.2 -9.19995 3.34199e+06 963546 1.93003e+06 637428 -94287.9 -671918
150 2 Si 5.01728 110.374 4.66388 2.4 -35.0843 8.50991e+06 1.02059e+07 6.1054e+06 -299651 -629367 -284136
151 3 O 3.46732 110.429 4.62778 -1.2 -8.55097 -4.18807e+06 -3.69999e+06 -3.27005e+06 -627012 -589084 250061
152 3 O 6.07268 106.651 4.67642 -1.2 -8.45086 -3.87282e+06 -5.88628e+06 -3.14723e+06 -756503 -260853 471145
153 3 O 5.75428 109.747 3.40155 -1.2 -8.14248 -4.90765e+06 -3.26214e+06 -3.93937e+06 -311062 -626167 -562308
154 3 O 5.66474 109.677 5.87968 -1.2 -8.4318 -4.12512e+06 -3.39397e+06 -4.31273e+06 110884 201699 1.48016e+06
155 1 Mg 4.73063 106.207 3.11891 1.2 -8.27028 -364132 4.03395e+06 -593895 862429 -1.72667e+06 1.6301e+06
156 1 Mg -0.0468102 103.328 4.64628 1.2 -8.80844 2.34773e+06 858432 2.61583e+06 -680136 -381402 -383542
157 2 Si 6.75976 105.204 4.65634 2.4 -34.5707 6.70487e+06 1.08621e+07 6.83863e+06 -135011 288267 -178683
158 3 O 3.55737 105.252 4.68679 -1.2 -8.94844 -4.22477e+06 -4.23004e+06 -3.41518e+06 -106389 55215.9 154847
159 3 O 0.891291 101.535 4.74141 -1.2 -8.80627 -3.08687e+06 -4.98447e+06 -2.7931e+06 1.50678e+06 -369166 -367102
160 3 O 6.08825 104.486 3.39686 -1.2 -8.64481 -3.21597e+06 -3.81278e+06 -3.29203e+06 -225476 658362 -571935
161 1 Mg 4.69956 106.179 0.246079 1.2 -8.17093 -649169 3.28334e+06 -265288 1.30373e+06 1.38147e+06 -2.43529e+06
162 3 O 6.09991 104.516 5.90715 -1.2 -8.40843 -4.48855e+06 -5.03887e+06 -3.00419e+06 38731.4 -609273 1.34456e+06
163 1 Mg 4.73927 109.038 1.77978 1.2 -8.89309 2.91457e+06 217966 3.4086e+06 -990272 -329159 -301056
164 2 Si 2.69464 107.172 1.6854 2.4 -33.8465 5.80286e+06 1.00935e+07 1.02898e+07 -12384.7 -127432 -68300
165 3 O 5.91594 107.155 1.76196 -1.2 -9.23747 -3.28581e+06 -3.49856e+06 -4.33398e+06 552616 -203382 30407.9
166 3 O 3.65801 110.83 1.72466 -1.2 -8.33525 -3.05743e+06 -2.53351e+06 -4.49356e+06 1.4336e+06 481027 -379350
167 3 O 3.43632 107.772 0.371821 -1.2 -8.70312 -3.37806e+06 -3.74248e+06 -2.12764e+06 390072 -1.0667e+06 -141500
168 3 O 3.39928 107.845 3.01991 -1.2 -8.51407 -4.0289e+06 -3.85728e+06 -1.00178e+06 438967 842680 -168606
169 1 Mg 2.30765 111.366 0.163056 1.2 -8.52709 353581 3.17412e+06 862144 -1.33653e+06 -1.16666e+06 -1.57749e+06
170 1 Mg 7.05585 114.249 1.6357 1.2 -9.03275 2.52992e+06 364930 3.21309e+06 1.16591e+06 171237 132669
171 2 Si 4.34926 112.376 1.74643 2.4 -34.6705 8.95019e+06 9.40843e+06 8.9521e+06 1.17153e+06 113721 434343
172 3 O 5.92416 112.389 1.71444 -1.2 -8.69231 -2.64296e+06 -3.05063e+06 -4.46816e+06 -26174.6 -89484.8 -190836
173 3 O 3.35314 116.059 1.7448 -1.2 -8.68788 -2.94698e+06 -3.85334e+06 -3.09816e+06 -1.39709e+06 -194697 585006
174 3 O 3.65912 113.033 0.475629 -1.2 -8.60777 -4.8549e+06 -2.22036e+06 -2.90609e+06 -121119 757234 601656
175 1 Mg 2.36489 121.757 2.99891 1.2 -8.1295 -439831 4.1473e+06 -416955 -962993 1.8811e+06 2.19917e+06
176 3 O 3.67971 112.949 3.03328 -1.2 -8.15361 -5.25975e+06 -4.19239e+06 -3.24931e+06 -160776 -685502 -980095
177 1 Mg 2.40674 118.946 4.72718 1.2 -8.73292 2.73869e+06 1.15725e+06 2.33479e+06 971542 -52546 357246
178 2 Si 5.04737 120.763 4.46779 2.4 -33.8818 6.93036e+06 1.16151e+07 7.09862e+06 534810 -1.12265e+06 1.5353e+06
179 3 O 3.45485 120.897 4.576 -1.2 -9.2188 -2.14052e+06 -4.3261e+06 -3.32833e+06 212640 -379263 -913228
180 3 O 6.0651 117.028 4.74588 -1.2 -8.72825 -2.47928e+06 -2.72368e+06 -2.37817e+06 -1.77099e+06 -95935.1 250913
181 3 O 5.71844 120.044 3.23869 -1.2 -8.7112 -2.7677e+06 -3.68723e+06 -3.19342e+06 -848361 -556588 -545944
182 3 O 5.68927 120.139 5.73713 -1.2 -8.84559 -4.03735e+06 -4.27109e+06 -4.35387e+06 -188761 483386 -189600
183 1 Mg 4.78316 116.461 3.15779 1.2 -8.33919 -417617 4.69107e+06 -159583 1.1005e+06 -1.63146e+06 1.55144e+06
184 1 Mg 4.73007 113.59 4.78827 1.2 -9.28566 2.74973e+06 -776567 2.90098e+06 -208164 166201 554341
185 2 Si 6.78255 115.51 4.67109 2.4 -34.1565 9.54924e+06 1.17324e+07 8.50142e+06 -610179 -207590 1.51437e+06
186 3 O 3.63039 115.482 4.66971 -1.2 -8.90724 -1.74656e+06 -3.55e+06 -4.06046e+06 -190890 1256.11 -565719
187 3 O 5.64767 111.885 4.68904 -1.2 -8.30373 -4.73866e+06 -5.80567e+06 -2.71576e+06 1.66258e+06 -13132.4 -245548
188 3 O 6.07736 114.845 3.33705 -1.2 -8.37197 -4.31667e+06 -2.72997e+06 -1.51461e+06 613662 1.59514e+06 -93811.6
189 1 Mg 4.70736 116.459 0.227903 1.2 -8.17903 429841 4.17492e+06 372674 909431 972261 -1.24571e+06
190 3 O 6.09589 114.79 5.91161 -1.2 -8.45101 -4.43935e+06 -2.97396e+06 -2.55526e+06 430334 -927064 -39929.9
191 1 Mg 4.82582 119.384 1.49988 1.2 -8.90194 1.87996e+06 397502 2.14559e+06 -1.13377e+06 314841 297864
192 2 Si 2.70971 117.607 1.77023 2.4 -34.182 8.07526e+06 1.03233e+07 8.06735e+06 -311215 1.06552e+06 548704
193 3 O 5.88587 117.493 1.6577 -1.2 -9.05828 -2.50514e+06 -3.43691e+06 -3.30467e+06 1.05356e+06 682256 251695
194 3 O 3.64489 121.157 1.46371 -1.2 -8.8939 -4.15481e+06 -4.75005e+06 -3.50897e+06 664641 -573381 166900
195 3 O 3.40774 118.234 0.521893 -1.2 -8.65498 -4.89061e+06 -4.0422e+06 -2.67193e+06 -232994 -692904 875288
196 3 O 3.4054 118.203 3.07618 -1.2 -8.56976 -3.2289e+06 -2.74707e+06 -2.33763e+06 -29991.1 836551 -461913
197 1 Mg 2.31476 121.574 0.0773345 1.2 -8.22779 -775013 3.8768e+06 -920052 -1.26402e+06 -2.48272e+06 -1.50692e+06
198 1 Mg 6.96067 124.529 1.51141 1.2 -8.69726 2.52322e+06 696572 2.73586e+06 1.02906e+06 100886 210672
199 2 Si 4.30293 122.636 1.44156 2.4 -33.8811 6.76438e+06 1.05314e+07 8.3697e+06 -386014 482473 1.67976e+06
200 3 O 5.88194 122.511 1.49507 -1.2 -9.08621 -1.791e+06 -4.03673e+06 -4.04238e+06 -198678 684569 -389987
201 3 O 3.27585 126.317 1.50874 -1.2 -8.65898 -2.79533e+06 -4.05898e+06 -4.0037e+06 -1.58151e+06 132527 -87974.9
202 3 O 3.64049 123.264 0.182315 -1.2 -8.70401 -3.43094e+06 -4.35274e+06 -2.43221e+06 105568 -242961 536667
203 1 Mg 2.4216 132.174 2.96859 1.2 -8.2355 152995 3.59482e+06 386336 -1.06863e+06 1.46996e+06 1.37804e+06
204 3 O 3.70048 123.375 2.76957 -1.2 -8.65438 -4.00057e+06 -3.03534e+06 -1.64842e+06 -436483 -689273 -375948
205 1 Mg 2.3333 129.179 4.35425 1.2 -9.26201 3.01786e+06 467457 2.01296e+06 1.10327e+06 212788 -267649
206 2 Si 5.02514 131.005 4.39517 2.4 -34.8399 7.09901e+06 1.063e+07 6.4935e+06 605490 -880745 1.10146e+06
207 3 O 3.49543 131.063 4.43308 -1.2 -8.81499 -4.64306e+06 -3.84747e+06 -2.85045e+06 -201000 70712.6 -275338
208 3 O 6.06919 127.307 4.43281 -1.2 -8.48333 -3.57215e+06 -6.19913e+06 -3.82507e+06 -166008 -249400 790350
209 3 O 5.69515 130.279 3.1574 -1.2 -8.08151 -3.73328e+06 -3.03005e+06 -4.32095e+06 -97816.3 -628155 -505843
210 3 O 5.69897 130.344 5.61066 -1.2 -8.42438 -4.81732e+06 -3.81967e+06 -4.84772e+06 96475.8 -154426 724056
211 1 Mg 4.66809 126.72 2.98345 1.2 -8.35712 -272377 4.25649e+06 -701887 1.43554e+06 -1.55476e+06 1.26461e+06
212 1 Mg 4.58411 123.981 4.5252 1.2 -9.03901 2.77732e+06 -145464 2.66877e+06 -989742 74949 170205
213 2 Si 6.62707 125.849 4.40317 2.4 -34.5001 7.41393e+06 9.82593e+06 7.16813e+06 32781.3 -1.19504e+06 -474009
214 3 O 3.48652 125.836 4.41783 -1.2 -8.83008 -2.19619e+06 -4.25925e+06 -4.28581e+06 633572 131429 126842
215 3 O 5.74835 122.291 4.44315 -1.2 -8.60544 -3.35968e+06 -3.79917e+06 -3.99456e+06 1.54994e+06 -365368 472011
216 3 O 5.979 125.177 3.17289 -1.2 -8.70829 -5.42204e+06 -4.88279e+06 -3.50884e+06 -468698 92176.9 -865510
217 1 Mg 4.62754 126.638 0.0615789 1.2 -8.3634 -250227 4.3031e+06 -873195 929877 1.16026e+06 -1.494e+06
218 3 O 5.98261 125.208 5.73839 -1.2 -8.33722 -4.27358e+06 -4.32536e+06 -3.16229e+06 389970 -972769 571752
219 1 Mg 4.65207 129.728 1.41566 1.2 -9.27388 2.67104e+06 347132 3.00019e+06 -552944 332571 -189167
220 2 Si 2.57922 127.844 1.47074 2.4 -34.6717 8.58019e+06 9.64339e+06 9.15421e+06 -734256 85391.1 -360024
221 3 O 5.8058 127.788 1.49391 -1.2 -8.74859 -4.02431e+06 -2.999e+06 -4.32165e+06 649280 163214 -135889
222 3 O 3.83958 131.558 1.33897 -1.2 -8.45057 -4.25695e+06 -5.94757e+06 -3.60281e+06 1.25292e+06 128712 600151
223 3 O 3.27214 128.488 0.149847 -1.2 -8.25951 -4.9331e+06 -2.63918e+06 -2.81343e+06 237952 -1.4676e+06 340341
224 3 O 3.31361 128.505 2.72602 -1.2 -8.25699 -5.03217e+06 -2.82601e+06 -2.73386e+06 153539 1.14179e+06 -839980
225 1 Mg 2.35089 131.921 -0.0376341 1.2 -8.50457 988772 3.64925e+06 -43539 -782290 -1.49457e+06 -1.92411e+06
226 1 Mg 7.1741 134.808 1.23925 1.2 -9.0199 2.56741e+06 136234 2.69748e+06 1.06332e+06 -477453 421637
227 2 Si 4.43977 133.036 1.41634 2.4 -34.5545 6.86209e+06 1.00197e+07 8.3481e+06 320663 206759 809324
228 3 O 6.01347 132.986 1.36382 -1.2 -8.90279 -2.85409e+06 -4.10736e+06 -3.501e+06 -906752 -276435 -313358
229 3 O 3.38926 136.642 1.27136 -1.2 -8.41734 -5.20142e+06 -4.53769e+06 -3.39318e+06 -1.35892e+06 -429096 -291079
230 3 O 3.78715 133.691 0.146661 -1.2 -8.43644 -4.41456e+06 -4.68524e+06 -2.72743e+06 546035 235664 951344
231 1 Mg 2.40467 142.729 2.87316 1.2 -8.15185 -897961 2.96127e+06 -283802 -1.56122e+06 1.0232e+06 1.30553e+06
232 3 O 3.74401 133.647 2.72587 -1.2 -8.70969 -4.40937e+06 -3.8413e+06 -2.74788e+06 -540362 -1.04701e+06 -399843
233 1 Mg 2.35564 139.544 4.23711 1.2 -9.07556 2.65961e+06 191024 3.13458e+06 986765 7324.29 620223
234 2 Si 5.03988 141.342 4.24099 2.4 -34.4997 8.18444e+06 9.14331e+06 8.34556e+06 410971 494806 -401897
235 3 O 3.47824 141.523 4.25317 -1.2 -8.93307 -2.96893e+06 -2.85443e+06 -3.77663e+06 -873453 72132.6 264372
236 3 O 6.14256 137.669 4.28707 -1.2 -8.50879 -4.09751e+06 -4.56319e+06 -4.22125e+06 -1.51393e+06 -43595.4 -168541
237 3 O 5.69993 140.592 3.07011 -1.2 -8.46884 -4.62793e+06 -3.18978e+06 -4.97217e+06 -121007 -752256 -834948
238 3 O 5.71196 140.718 5.54902 -1.2 -8.40065 -3.98918e+06 -2.87102e+06 -3.94466e+06 -577222 544468 395818
239 1 Mg 4.7525 137.16 2.87038 1.2 -8.67802 -708335 3.29926e+06 -865754 438618 -1.14154e+06 2.37627e+06
240 1 Mg 4.62384 134.396 4.40399 1.2 -8.91848 2.38572e+06 893130 2.34246e+06 -669233 -82890.6 12185.7
241 2 Si 6.82513 136.181 4.26969 2.4 -34.3779 7.37805e+06 1.02475e+07 9.78896e+06 559118 456153 63952.4
242 3 O 3.64023 136.31 4.23998 -1.2 -9.11481 -3.59921e+06 -4.04886e+06 -4.72333e+06 587868 937552 246694
243 3 O 5.73423 132.514 4.37211 -1.2 -8.52144 -3.57366e+06 -4.21047e+06 -3.13516e+06 1.37214e+06 -444912 169279
244 3 O 6.07181 135.544 2.99648 -1.2 -8.26198 -3.04013e+06 -4.02107e+06 -2.62917e+06 439245 790101 -212979
245 1 Mg 4.78336 137.16 -0.160224 1.2 -8.58884 642594 3.68468e+06 469601 616177 1.29916e+06 -1.51578e+06
246 3 O 6.13898 135.512 5.55898 -1.2 -8.50858 -3.32565e+06 -3.41016e+06 -2.20746e+06 708297 -1.43235e+06 102880
247 1 Mg 4.82051 140.103 1.36936 1.2 -8.86556 2.908e+06 1.23009e+06 2.13039e+06 -810016 -340303 -169822
248 2 Si 2.7089 138.084 1.33515 2.4 -34.682 9.81867e+06 9.69694e+06 9.27717e+06 795732 -207172 386594
249 3 O 5.85873 137.996 1.35792 -1.2 -8.67312 -2.29389e+06 -3.90196e+06 -4.02305e+06 269918 182926 -352784
250 3 O 3.83254 141.954 1.35651 -1.2 -8.60598 -2.6518e+06 -3.09655e+06 -2.77677e+06 854207 49832.8 -12970.3
251 3 O 3.37095 138.815 0.0235208 -1.2 -8.36749 -3.28864e+06 -2.19593e+06 -1.50071e+06 448149 -1.41213e+06 86461.4
252 3 O 3.38893 138.781 2.61694 -1.2 -8.38461 -4.30748e+06 -2.6304e+06 -2.54995e+06 374179 1.20477e+06 -454477
253 1 Mg 2.31499 142.276 -0.109291 1.2 -8.01425 -597936 3.37307e+06 496861 -1.18626e+06 -1.39652e+06 -2.14902e+06
254 1 Mg 7.01431 145.388 1.09876 1.2 -8.30078 1.31752e+06 1.68376e+06 1.13875e+06 934766 -589018 106994
255 2 Si 4.45594 143.501 1.35335 2.4 -33.9217 6.61866e+06 1.0427e+07 7.51877e+06 381670 649636 -1.33406e+06
256 3 O 6.02132 143.36 1.35737 -1.2 -9.22868 -3.11403e+06 -3.68695e+06 -4.35208e+06 -809370 -494.186 370217
257 3 O 3.21799 147.414 1.42707 -1.2 -9.28168 -4.26822e+06 -2.59964e+06 -1.89009e+06 -1.44207e+06 -54416.3 1.44463e+06
258 3 O 3.76489 144.226 0.138578 -1.2 -8.93554 -3.54673e+06 -2.7546e+06 -3.80679e+06 -646320 923635 1.45399e+06
259 1 Mg 1.55201 152.779 1.75563 1.2 -7.191 -876132 -993989 3.56259e+06 1.00514e+06 247542 412967
260 3 O 3.77672 144.089 2.62147 -1.2 -8.77497 -4.666e+06 -5.38939e+06 -4.43112e+06 -96356.7 -800440 -695100
261 1 Mg 1.87779 149.997 4.46041 1.2 -7.94723 515876 2.91957e+06 1.53744e+06 -662322 970044 671604
262 2 Si 3.85889 151.181 2.75811 2.4 -33.0022 6.16551e+06 7.92243e+06 7.23602e+06 -3.49488e+06 -270265 839609
263 3 O 2.84832 152.375 3.14339 -1.2 -8.64523 -1.21998e+06 -53581.3 -4.0667e+06 -773611 1.28191e+06 -450471
264 3 O 6.08894 147.997 4.1191 -1.2 -9.39179 -2.06944e+06 -4.09559e+06 -4.03396e+06 -988465 -1.00514e+06 -589327
265 3 O 4.66355 151.626 1.52915 -1.2 -9.25004 -4.32899e+06 -2.41442e+06 -6.55675e+06 789751 1.73447e+06 928883
266 3 O 4.81365 150.775 3.93845 -1.2 -9.19606 -1.97451e+06 -3.94938e+06 -3.46436e+06 -1.09756e+06 -636967 192411
267 1 Mg 4.7413 147.341 2.69521 1.2 -7.57539 -1.73139e+06 2.57104e+06 948258 893707 -1.14962e+06 1.1285e+06
268 1 Mg 4.6865 144.7 4.39289 1.2 -8.31054 1.65837e+06 226578 2.94168e+06 -723848 294913 724627
269 2 Si 6.8298 146.544 4.18222 2.4 -32.8749 3.46198e+06 1.05335e+07 1.06372e+07 -253657 -488697 604989
270 3 O 3.6117 146.533 4.23609 -1.2 -9.85989 -2.85298e+06 -4.61515e+06 -4.75012e+06 -284533 -145798 -1.12232e+06
271 3 O 5.7071 142.866 4.25896 -1.2 -8.84883 -3.43536e+06 -3.54496e+06 -3.53967e+06 1.35757e+06 -8935 309794
272 3 O 6.15949 145.826 2.90877 -1.2 -9.15645 -3.061e+06 -4.5345e+06 -1.86046e+06 187412 850206 -378273
273 1 Mg 4.49423 148.072 -0.355739 1.2 -8.01616 61648.8 3.23631e+06 991659 428271 523725 -1.71708e+06
274 3 O 6.14405 145.907 5.54275 -1.2 -9.08224 -2.31782e+06 -3.19647e+06 -1.40706e+06 702658 -479820 -463609