ITEM: TIMESTEP
62000
ITEM: NUMBER OF ATOMS
5600
ITEM: BOX BOUNDS xy xz yz pp pp pp
0.0000000000000000e+00 7.1234999999999999e+00 0.0000000000000000e+00
0.0000000000000000e+00 2.0198500000000001e+02 2.3744999999999998e+00
0.0000000000000000e+00 1.1958400000000000e+02 0.0000000000000000e+00
ITEM: ATOMS id type element xu yu zu q c_pe c_s[1] c_s[2] c_s[3] c_s[4] c_s[5] c_s[6]
1 1 Mg -1.77807 48.4294 -0.985936 1.2 -6.5457 -2.17099e+06 -1.08376e+06 497388 997618 1.07736e+06 -1.47184e+06
2 1 Mg 3.06583 49.7795 1.97676 1.2 -7.07957 -7.53977e+06 4.44825e+06 -1.45669e+06 -1.04576e+06 1.56798e+06 -1.5575e+06
3 2 Si 0.698006 50.1398 0.140563 2.4 -30.8473 5.23362e+06 1.12871e+07 6.6413e+06 -1.4263e+06 -536362 -1.53093e+06
4 3 O 2.12546 49.2858 0.38719 -1.2 -9.70446 -1.39207e+06 -4.55175e+06 -5.41112e+06 -880437 19596.9 112493
5 3 O -1.3352 52.8886 1.59401 -1.2 -8.72384 -2.96108e+06 -7.7038e+06 -1.94553e+06 -1.02196e+06 -108910 1.61188e+06
6 3 O -0.0154125 49.3697 -0.920062 -1.2 -10.534 -3.82245e+06 -2.65448e+06 -4.39358e+06 991695 -402602 762898
7 1 Mg -2.29729 58.4973 3.31437 1.2 -7.78592 -1.34994e+06 5.4796e+06 -1.63499e+06 -485861 738021 829674
8 3 O 0.0310185 50.1391 1.68425 -1.2 -9.88453 -5.43726e+06 -3.6483e+06 560053 -461666 145704 356137
9 1 Mg -2.24129 55.7177 4.60632 1.2 -8.03577 1.54574e+06 2.87251e+06 1.33119e+06 99169.2 789550 -1.08232e+06
10 2 Si 0.25399 57.592 4.62156 2.4 -33.0756 906017 1.34244e+07 5.57096e+06 -125469 855218 -1.96983e+06
11 3 O -1.21018 57.7265 4.76111 -1.2 -9.913 -6.68204e+06 -6.16297e+06 -3.10209e+06 172082 -49280.7 2.01379e+06
12 3 O 1.61317 53.2297 4.61906 -1.2 -8.44362 -4.2552e+06 -2.5073e+06 -69504.5 -3.42306e+06 653631 3.49763e+06
13 3 O 0.852369 56.6866 3.51399 -1.2 -9.28235 -1.85681e+06 -4.05783e+06 -3.56363e+06 -34572 30299.5 -140828
14 3 O 1.03541 57.054 5.96482 -1.2 -8.9104 -1.78017e+06 -5.02992e+06 -1.94983e+06 -97024 885306 1.40677e+06
15 1 Mg 0.605039 52.3194 2.882 1.2 -7.59126 171487 4.4742e+06 1.84037e+06 586081 -150633 -1.64517e+06
16 1 Mg 1.19895 49.185 3.08938 1.2 -7.39457 -1.1761e+06 1.75877e+06 -1.57092e+06 -477486 230878 -172189
17 2 Si 2.64318 51.8949 4.60955 2.4 -33.9268 7.76122e+06 1.27368e+07 6.79559e+06 -2.65069e+06 -1.30198e+06 -3.73983e+06
18 3 O -0.638021 52.0706 4.65341 -1.2 -8.69552 -6.49743e+06 -6.42003e+06 105420 -1.83415e+06 -88199.4 2.11425e+06
19 3 O 2.6551 48.0667 3.12205 -1.2 -7.09501 -1.79036e+06 -1.19943e+06 -1.33848e+06 398208 -681520 -1.06235e+06
20 3 O 2.12472 50.9524 3.37163 -1.2 -9.55997 -4.1828e+06 -3.36191e+06 -1.48328e+06 -726494 763198 2.748e+06
21 1 Mg -0.0431205 53.4096 0.131546 1.2 -8.01394 -998486 2.18264e+06 -157676 1.58515e+06 375962 -2.35019e+06
22 3 O 2.08656 51.0483 5.97294 -1.2 -9.38746 -3.21499e+06 -4.18366e+06 -270134 3.13157e+06 -711534 577568
23 1 Mg -0.0335282 56.1152 1.84983 1.2 -8.56833 2.39261e+06 998938 1.15654e+06 -1.59542e+06 -800764 -1.50846e+06
24 2 Si -1.96343 54.2599 1.62545 2.4 -34.2538 8.84692e+06 8.20284e+06 8.05281e+06 50824.5 2.10434e+06 -4.18448e+06
25 3 O 1.16899 54.0986 1.42178 -1.2 -8.62329 -2.77411e+06 -3.47656e+06 -3.9537e+06 1.04286e+06 -642424 885521
26 3 O -1.03466 58.1097 1.64725 -1.2 -9.14068 -1.60881e+06 -4.06085e+06 948542 872275 18612.4 -980896
27 3 O -1.21554 55.0591 0.378853 -1.2 -8.54841 -6.10665e+06 -3.67352e+06 -1.16311e+06 1.05796e+06 -1.1804e+06 1.83378e+06
28 3 O -1.50943 55.0463 2.93845 -1.2 -8.6394 -3.96226e+06 -3.16794e+06 -1.85453e+06 663049 610255 2.12869e+06
29 1 Mg -2.44867 58.6465 0.0857517 1.2 -7.66664 -1.45053e+06 6.26904e+06 -978375 -1.08718e+06 -1.47821e+06 -1.10564e+06
30 1 Mg 2.319 61.6547 1.64082 1.2 -9.1122 3.84035e+06 2.29273e+06 1.2842e+06 961438 233245 -1.54968e+06
31 2 Si -0.281084 59.6005 1.75726 2.4 -34.003 6.87301e+06 1.4688e+07 5.08656e+06 219363 -623323 -562608
32 3 O 1.19757 59.5158 1.83685 -1.2 -9.00039 -4.75272e+06 -4.47703e+06 -1.81893e+06 47038.1 -569223 242313
33 3 O -1.34632 63.4569 1.46543 -1.2 -7.86547 -5.03264e+06 -6.90987e+06 -1.33416e+06 -703539 841519 1.77179e+06
34 3 O -0.924268 60.5557 0.657404 -1.2 -8.53178 -4.0983e+06 -3.8514e+06 -1.2249e+06 -896551 1.09352e+06 1.66789e+06
35 1 Mg -2.38237 69.2994 3.11099 1.2 -8.47175 597128 6.50353e+06 -1.78256e+06 -1.51701e+06 2.08529e+06 1.80985e+06
36 3 O -1.04105 60.1959 3.19831 -1.2 -8.05303 -5.20589e+06 -3.38021e+06 -691942 87412.6 -2.60184e+06 2.06752e+06
37 1 Mg -2.08556 66.2699 4.91027 1.2 -8.64236 2.13284e+06 995314 1.75871e+06 640199 -786106 8758.93
38 2 Si 0.420222 68.1434 4.57574 2.4 -34.3226 7.22097e+06 1.14441e+07 7.36184e+06 -1.04018e+06 -617872 -150116
39 3 O -1.14976 68.0741 4.78792 -1.2 -9.05288 -3.27722e+06 -4.53955e+06 -2.47838e+06 -1.11748e+06 -1.12931e+06 -123007
40 3 O 1.5154 64.2609 4.61499 -1.2 -8.52942 -4.52593e+06 -6.25328e+06 -3.66225e+06 -220139 -679646 160012
41 3 O 1.11609 67.493 3.24617 -1.2 -7.93982 -4.05723e+06 -3.20971e+06 -283261 670114 -1.09352e+06 1.63171e+06
42 3 O 1.09784 67.4073 5.84982 -1.2 -8.84849 -3.21639e+06 -3.5052e+06 -2.08548e+06 123184 677798 1.13752e+06
43 1 Mg 0.224098 63.9097 3.32955 1.2 -8.13212 -262992 4.77591e+06 -1.8518e+06 624195 -2.05266e+06 707125
44 1 Mg -0.148554 60.874 4.76097 1.2 -8.38565 1.44708e+06 1.70902e+06 784157 -746446 -304179 -1.26164e+06
45 2 Si 2.05801 62.7651 4.72272 2.4 -33.7459 5.83992e+06 1.01693e+07 6.32218e+06 957069 -1.47556e+06 -44069.9
46 3 O -1.11232 62.9116 4.62749 -1.2 -9.23001 -2.8832e+06 -3.76398e+06 -1.54817e+06 1.81452e+06 -1.17877e+06 -66237.9
47 3 O 0.953153 59.0771 4.56406 -1.2 -8.82046 -3.65164e+06 -4.82495e+06 -3.54506e+06 840243 121058 4.05864e+06
48 3 O 1.46891 62.1369 3.40923 -1.2 -8.50591 -4.23895e+06 -5.95108e+06 -483719 -67566.7 115551 -930583
49 1 Mg 0.0824362 63.7349 0.225015 1.2 -9.28665 51461.3 5.31713e+06 -3.08826e+06 153543 1.73807e+06 -505471
50 3 O 1.3231 62.254 6.00666 -1.2 -9.41271 -1.4715e+06 -5.14195e+06 -4.0097e+06 -115110 -402525 2.00703e+06
51 1 Mg 0.13633 66.6014 1.5871 1.2 -9.52663 3.56755e+06 2.67972e+06 -1.29374e+06 -1.08942e+06 1.04428e+06 1.69752e+06
52 2 Si -2.01166 64.9241 1.72716 2.4 -35.5758 9.95645e+06 1.38735e+07 5.18255e+06 -366689 -605107 481906
53 3 O 1.12259 64.6984 1.62062 -1.2 -8.40592 -3.62812e+06 -5.04137e+06 -2.56253e+06 511174 287702 -462378
54 3 O -1.05501 68.5927 1.67986 -1.2 -7.83016 -5.3613e+06 -8.23746e+06 362983 -1.04406e+06 -17033.5 1.2858e+06
55 3 O -1.36505 65.6158 0.383408 -1.2 -7.31832 -6.49818e+06 -8.54406e+06 -1.07235e+06 1.35812e+06 -1.98132e+06 782141
56 3 O -1.33615 65.6223 2.8923 -1.2 -8.25836 -3.32138e+06 -4.97535e+06 -2.44505e+06 250905 807566 -397624
57 1 Mg -2.49194 68.9196 0.0696977 1.2 -8.84146 509372 5.79698e+06 -2.71896e+06 -1.40187e+06 -1.42827e+06 -2.0049e+06
58 1 Mg 2.28755 72.0925 1.63264 1.2 -9.7904 5.01348e+06 1.8016e+06 -280223 1.1331e+06 741934 72384.8
59 2 Si -0.465544 70.0518 1.61527 2.4 -36.3109 7.01903e+06 1.49304e+07 1.08316e+06 89160.7 -44238.8 1.42844e+06
60 3 O 1.01871 70.0827 1.7437 -1.2 -7.71681 -6.88615e+06 -7.08499e+06 -1.66422e+06 2686.48 -185533 6677.85
61 3 O -1.65504 73.9858 1.54673 -1.2 -7.9039 -5.75028e+06 -7.41674e+06 -1.96973e+06 376318 -92535.8 1.20779e+06
62 3 O -1.11137 70.6763 0.378088 -1.2 -7.52441 -7.58727e+06 -5.80726e+06 -5.15919e+06 153639 802153 1.45166e+06
63 1 Mg -2.45581 79.7378 2.95312 1.2 -8.64643 260236 5.39226e+06 -1.30644e+06 -860391 877379 1.44495e+06
64 3 O -1.11331 70.9214 2.83072 -1.2 -7.87108 -6.54253e+06 -3.40614e+06 -1.94334e+06 -249827 471524 -1.10516e+06
65 1 Mg -2.50995 76.8074 4.6541 1.2 -9.42134 3.86738e+06 1.30542e+06 1.20339e+06 904369 -1.30496e+06 1.69804e+06
66 2 Si 0.164571 78.7944 4.38074 2.4 -35.3292 8.01528e+06 1.18436e+07 6.33925e+06 1.43283e+06 631780 351661
67 3 O -1.38641 78.7068 4.42318 -1.2 -8.62656 -4.69179e+06 -3.63492e+06 -3.11935e+06 74713.9 -671480 -1.02945e+06
68 3 O 1.32955 74.9287 4.4165 -1.2 -8.1395 -5.1048e+06 -6.52897e+06 -739720 -761934 -830506 -1.21181e+06
69 3 O 0.899471 78.117 3.23088 -1.2 -7.73583 -6.15745e+06 -5.47318e+06 -2.26324e+06 -854506 52142.3 -1.88852e+06
70 3 O 0.792239 78.1907 5.77443 -1.2 -7.93768 -4.47154e+06 -1.75779e+06 -1.46032e+06 -211708 790655 -569113
71 1 Mg 0.0143152 74.5477 2.804 1.2 -8.9364 805265 5.90978e+06 -1.57216e+06 517260 -1.23514e+06 2.12544e+06
72 1 Mg -0.0491386 71.4433 4.51631 1.2 -9.42447 2.94267e+06 1.96285e+06 538035 -1.13018e+06 218167 -174017
73 2 Si 1.96428 73.4864 4.40332 2.4 -35.8253 1.07132e+07 1.06241e+07 3.6713e+06 713008 1.19452e+06 3.07788e+06
74 3 O -1.24297 73.5606 4.49227 -1.2 -8.10169 -6.05704e+06 -4.52182e+06 -1.6716e+06 898302 57075.3 -1.05961e+06
75 3 O 0.936555 69.612 4.68422 -1.2 -8.73569 -3.08515e+06 -7.41778e+06 -1.6688e+06 26371.8 661492 -35818.2
76 3 O 1.2015 72.7953 3.06068 -1.2 -7.15738 -5.19757e+06 -3.71565e+06 -3.90139e+06 -223772 2.47408e+06 -797234
77 1 Mg -0.216775 74.3941 -0.0364177 1.2 -8.85947 2.70828e+06 4.86769e+06 -1.61303e+06 1.46802e+06 2.17185e+06 -1.5541e+06
78 3 O 1.30716 72.6501 5.46928 -1.2 -8.13694 -5.13606e+06 -4.53528e+06 -4.8938e+06 -397135 290326 1.32226e+06
79 1 Mg -0.194127 77.4821 1.26497 1.2 -9.23897 3.165e+06 912142 2.80499e+06 -301887 352952 651245
80 2 Si -2.12956 75.4592 1.49459 2.4 -35.7168 8.32381e+06 1.05517e+07 7.37275e+06 1.52766e+06 425661 1.74995e+06
81 3 O 1.06658 75.419 1.41472 -1.2 -8.21664 -5.10585e+06 -4.43218e+06 -2.72128e+06 2.06874e+06 1.1816e+06 7903.24
82 3 O -1.08706 79.2277 1.4122 -1.2 -8.13789 -4.96079e+06 -7.44619e+06 -2.71461e+06 1.48828e+06 461505 376747
83 3 O -1.42513 75.9864 0.117555 -1.2 -7.77526 -4.11315e+06 -3.9851e+06 -1.52141e+06 -788061 -367071 1.24699e+06
84 3 O -1.36664 76.2486 2.65747 -1.2 -7.77117 -4.14594e+06 -3.4825e+06 -957055 -69533.5 398173 -1.59397e+06
85 1 Mg -2.51261 79.6475 -0.137681 1.2 -8.57998 1.58237e+06 4.37271e+06 1.32228e+06 -320517 -305623 -784426
86 1 Mg 2.27 82.3606 1.26698 1.2 -9.23314 2.38498e+06 954855 1.21182e+06 1.70345e+06 -936706 1.83039e+06
87 2 Si -0.383349 80.7038 1.44729 2.4 -35.0546 6.81322e+06 1.1657e+07 5.29409e+06 490778 803938 415396
88 3 O 1.12641 80.5661 1.40339 -1.2 -8.70711 -6.67325e+06 -5.76453e+06 -3.04311e+06 -981751 10348.6 302934
89 3 O -1.37759 84.3283 1.32235 -1.2 -7.9737 -2.6682e+06 -554621 -2.16304e+06 -1.77528e+06 892515 397964
90 3 O -1.08798 81.2817 0.084609 -1.2 -8.14335 -4.72015e+06 -4.82117e+06 -2.56478e+06 -445428 1.40647e+06 896811
91 1 Mg -2.34109 90.1458 2.73187 1.2 -8.8151 2.32094e+06 4.8603e+06 -337039 -412461 1.81173e+06 990441
92 3 O -1.15429 81.3798 2.57617 -1.2 -8.31283 -4.87447e+06 -6.32697e+06 -4.22877e+06 369523 -510146 -2.64816e+06
93 1 Mg -2.54523 87.2884 4.36353 1.2 -9.77589 5.54347e+06 833205 1.38026e+06 1.80484e+06 427918 -139150
94 2 Si 0.410647 89.2672 4.37229 2.4 -36.1691 1.08573e+07 1.08075e+07 5.23744e+06 299345 96555.1 -248339
95 3 O -1.13924 89.4109 4.38762 -1.2 -7.61544 -3.96091e+06 -5.54452e+06 -1.44249e+06 149526 1.00936e+06 -148628
96 3 O 1.1542 85.4051 4.69222 -1.2 -7.36589 -5.2347e+06 -6.2725e+06 -4.19299e+06 1.79849e+06 884008 1.7616e+06
97 3 O 0.920613 88.5074 3.05491 -1.2 -7.69192 -6.26042e+06 -4.61806e+06 -1.45458e+06 852015 -557939 -1.2658e+06
98 3 O 1.0825 88.6183 5.64762 -1.2 -7.9515 -5.6638e+06 -3.7794e+06 -1.19864e+06 -887107 100733 1.4754e+06
99 1 Mg -0.276128 84.9937 2.9842 1.2 -8.89652 1.98204e+06 5.06451e+06 208726 1.35773e+06 -1.77641e+06 2.66075e+06
100 1 Mg -0.152981 82.0713 4.25026 1.2 -9.15878 3.79047e+06 90422.1 1.72517e+06 -1.46825e+06 -287122 370923
101 2 Si 1.74168 83.9516 4.44028 2.4 -36.3815 5.7906e+06 9.75637e+06 7.69359e+06 -1.19669e+06 15298.8 2.50751e+06
102 3 O -1.52405 83.8612 4.40136 -1.2 -7.82189 -6.8666e+06 -3.97042e+06 -3.83009e+06 95834.5 474323 -1.24179e+06
103 3 O 0.778605 80.3138 4.28882 -1.2 -8.41904 -2.42602e+06 -6.38134e+06 -1.92566e+06 1.42728e+06 443829 -1.14207e+06
104 3 O 1.12829 83.2737 3.1466 -1.2 -7.94747 -6.18109e+06 -2.01462e+06 -1.92101e+06 -859611 -990846 -252945
105 1 Mg 0.0602705 84.7013 0.0469746 1.2 -8.56517 -1.20504e+06 3.60132e+06 -1.57931e+06 940611 2.51476e+06 -372694
106 3 O 1.17359 83.3298 5.77454 -1.2 -7.42867 -6.6922e+06 -7.32322e+06 -1.93841e+06 -903728 -57735.3 1.25453e+06
107 1 Mg 0.0952231 88.0126 1.29717 1.2 -9.21185 2.91968e+06 471604 1.22615e+06 12892.5 86327.4 519837
108 2 Si -2.14918 85.9771 1.34791 2.4 -34.8612 9.00756e+06 1.16056e+07 8.30197e+06 -579429 -628979 2.91788e+06
109 3 O 1.10958 85.9201 1.63265 -1.2 -8.40131 -4.54345e+06 -3.3142e+06 -2.729e+06 -260351 -1.46773e+06 -1.35505e+06
110 3 O -0.778276 89.8009 1.34188 -1.2 -8.75075 -4.24242e+06 -5.55969e+06 -2.90847e+06 910622 -751343 415555
111 3 O -1.39274 86.6446 0.224411 -1.2 -8.43882 -3.784e+06 -2.12058e+06 -5.05829e+06 1.13119e+06 -291284 292764
112 3 O -1.53494 86.7028 2.77115 -1.2 -7.37374 -6.62179e+06 -558835 -1.07236e+06 -426174 490210 314092
113 1 Mg -2.19841 90.2442 -0.125556 1.2 -8.59503 -921677 4.1283e+06 -217019 -311257 -1.75873e+06 -1.17452e+06
114 1 Mg 2.49932 93.5537 1.56017 1.2 -8.63893 3.58303e+06 1.64117e+06 2.88314e+06 487828 633286 -715109
115 2 Si -0.19574 91.2701 1.25588 2.4 -35.2834 9.06115e+06 7.49909e+06 1.08888e+07 -984835 -1.77783e+06 -683082
116 3 O 1.37024 91.2263 1.17312 -1.2 -8.31626 -3.69024e+06 -2.01412e+06 -5.10239e+06 -886397 257269 249627
117 3 O -1.23859 95.4371 1.32912 -1.2 -9.46011 -1.31319e+06 -7.10203e+06 -3.77757e+06 -762225 -287625 205360
118 3 O -0.792448 92.0278 0.0190005 -1.2 -8.11983 -6.30602e+06 -544282 -3.69643e+06 448327 98425.7 253206
119 1 Mg -2.38317 101.079 2.82871 1.2 -7.85224 -322214 4.80647e+06 -1.63318e+06 -821160 706164 1.19279e+06
120 3 O -0.828907 91.9801 2.63904 -1.2 -7.56164 -3.05602e+06 -1.15589e+06 -138121 -443086 -443329 677578
121 1 Mg -2.32603 98.0019 4.35923 1.2 -8.37417 2.58503e+06 2.76878e+06 1.28186e+06 1.3787e+06 364241 -1.22073e+06
122 2 Si 0.425543 99.7455 4.4601 2.4 -33.634 7.1022e+06 1.29083e+07 3.74988e+06 1.05262e+06 18408 -730796
123 3 O -1.1328 100.022 4.53943 -1.2 -9.17502 -3.07627e+06 -4.40201e+06 -1.88032e+06 -1.95323e+06 1.18347e+06 -386377
124 3 O 1.29851 96.1859 4.61047 -1.2 -8.56473 -5.69048e+06 -6.88809e+06 -1.80221e+06 2.06885e+06 -898047 248697
125 3 O 1.177 99.2097 3.23705 -1.2 -8.54945 -3.52243e+06 -9.62865e+06 -2.68339e+06 -1.07179e+06 -1.05583e+06 -3.1568e+06
126 3 O 1.18371 99.2734 5.72555 -1.2 -9.38487 -3.35329e+06 -4.14334e+06 -2.27305e+06 356741 484346 1.22523e+06
127 1 Mg 0.0157126 95.8261 2.91338 1.2 -8.03304 -1.98796e+06 4.19265e+06 -1.41799e+06 2.49295e+06 -2.11967e+06 1.22566e+06
128 1 Mg 0.184179 92.6147 4.49854 1.2 -9.49327 4.86542e+06 1.11437e+06 2.14999e+06 -494499 23885 922739
129 2 Si 1.95574 94.8077 4.49192 2.4 -35.1852 6.8878e+06 1.16533e+07 2.84214e+06 10920.1 598270 1.7206e+06
130 3 O -1.2823 94.9552 4.42211 -1.2 -8.34177 -5.53949e+06 -6.5631e+06 266483 -658068 331126 -701053
131 3 O 1.14929 90.6732 4.27236 -1.2 -7.96749 -7.52933e+06 -5.68626e+06 -1.41915e+06 645463 -1.16788e+06 839020
132 3 O 1.41586 94.013 3.20282 -1.2 -8.28701 -4.16863e+06 -1.88428e+06 -2.78638e+06 -410214 -1.12567e+06 -788749
133 1 Mg 0.318237 95.8602 0.0537717 1.2 -7.80095 94000.5 5.62451e+06 -382892 478321 1.05541e+06 -755275
134 3 O 1.39273 93.8958 5.63406 -1.2 -8.04419 -4.80852e+06 -4.10103e+06 -3.33137e+06 -97038.8 559475 -17257.6
135 1 Mg 0.313986 98.7949 1.33037 1.2 -8.67541 1.56736e+06 2.3451e+06 2.00522e+06 -742634 482756 -1.16045e+06
136 2 Si -1.85406 96.8538 1.53109 2.4 -32.5701 6.75486e+06 1.14806e+07 7.39238e+06 1.46536e+06 -476566 916678
137 3 O 1.35455 96.9108 1.7619 -1.2 -9.53145 -2.38671e+06 -4.36833e+06 -3.09082e+06 1.59415e+06 2.10046e+06 -889367
138 3 O -0.914836 100.494 1.308 -1.2 -8.56718 -2.42553e+06 -2.87914e+06 -880721 473624 377796 880111
139 3 O -1.13719 97.6087 0.292142 -1.2 -9.00202 -1.16094e+06 -6.61173e+06 -910375 -91833.5 -1.79071e+06 270730
140 3 O -0.922213 97.461 2.93027 -1.2 -8.31128 -4.48689e+06 -5.4612e+06 768683 1.86234e+06 2.02653e+06 1.638e+06
141 1 Mg -2.28394 100.96 -0.146822 1.2 -8.18415 1.82699e+06 4.26708e+06 -1.8212e+06 -1.29066e+06 -1.44099e+06 -1.76646e+06
142 1 Mg 7.20584 103.86 1.28599 1.2 -7.9721 175057 2.37915e+06 1.44912e+06 838154 212875 759790
143 2 Si -0.249639 102.135 1.41967 2.4 -32.9501 4.42372e+06 1.41304e+07 6.007e+06 544711 47554.6 432359
144 3 O 1.28051 101.85 1.38353 -1.2 -9.43685 -2.33871e+06 -4.95724e+06 -3.87226e+06 -1.22332e+06 -1.78331e+06 81675.7
145 3 O 3.52991 105.57 1.29471 -1.2 -9.63816 -4.75922e+06 -6.12912e+06 -4.43745e+06 -780725 510349 505741
146 3 O -0.835539 102.678 0.0296663 -1.2 -9.02408 -4.11e+06 -6.14166e+06 -1.04386e+06 367395 2.27588e+06 727188
147 1 Mg 2.4901 111.594 3.00722 1.2 -8.74985 2.01566e+06 4.99726e+06 -119819 -752333 732474 2.27805e+06
148 3 O -1.02949 102.756 2.58637 -1.2 -9.83322 -3.41476e+06 -6.4662e+06 -1.10669e+06 1.24097e+06 -475298 -1.50685e+06
149 1 Mg 2.54525 108.271 4.31191 1.2 -9.18249 3.26668e+06 1.87628e+06 698137 -627944 -489210 588373
150 2 Si 5.01729 110.445 4.51153 2.4 -36.2908 8.47142e+06 9.94136e+06 5.67303e+06 -1.22187e+06 -1.41086e+06 2.10104e+06
151 3 O 3.51746 110.549 4.56213 -1.2 -7.97595 -7.45681e+06 -3.41639e+06 -2.09924e+06 -1.78113e+06 -1.23043e+06 -345586
152 3 O 6.36147 106.52 4.25844 -1.2 -8.39091 -3.82485e+06 -4.13081e+06 -230539 -114056 -610289 -1.56826e+06
153 3 O 5.81032 109.686 3.34802 -1.2 -7.51321 -4.09642e+06 -1.38047e+06 -2.97477e+06 -579339 -945841 -1.43167e+06
154 3 O 5.63226 109.83 5.80596 -1.2 -7.77376 -5.63355e+06 -4.72917e+06 -3.52523e+06 615377 199128 781059
155 1 Mg 5.01716 105.951 2.71037 1.2 -7.92963 -315589 4.28163e+06 -2.14222e+06 553373 -972894 2.75307e+06
156 1 Mg -0.122793 103.164 4.37561 1.2 -7.68969 281602 3.82813e+06 270638 -766706 229033 971333
157 2 Si 6.89716 104.889 4.42912 2.4 -32.8159 6.28e+06 1.46922e+07 4.99574e+06 1.04179e+06 -1.23889e+06 -640261
158 3 O 3.68109 105.163 4.39516 -1.2 -9.38229 -2.54352e+06 -4.51869e+06 -500551 2.50087e+06 -2.02463e+06 -220999
159 3 O 0.988011 101.351 4.20968 -1.2 -8.75288 -2.40587e+06 -6.06406e+06 -1.21477e+06 744465 795326 -2.07138e+06
160 3 O 6.30293 104.355 3.06734 -1.2 -9.27952 -3.02111e+06 -8.24799e+06 887774 351370 1.06568e+06 -2.06264e+06
161 1 Mg 4.81356 105.972 -0.0994078 1.2 -8.1766 -34121.4 4.09793e+06 -3.0458e+06 1.08472e+06 2.75749e+06 -314826
162 3 O 6.04559 104.3 5.71564 -1.2 -9.52091 -679548 -3.5976e+06 211918 762051 -1.30075e+06 1.24409e+06
163 1 Mg 4.93052 108.969 1.46468 1.2 -9.37781 2.70196e+06 1.13989e+06 1.89318e+06 -2.14444e+06 963351 2.10967e+06
164 2 Si 2.93022 107.001 1.2781 2.4 -33.7526 9.0904e+06 1.07477e+07 1.05409e+07 2.16978e+06 335226 2.06841e+06
165 3 O 6.01482 106.886 1.42214 -1.2 -8.73868 390346 -5.09939e+06 -5.09081e+06 722774 1.18912e+06 -818079
166 3 O 3.90148 111.1 1.55392 -1.2 -7.67871 -3.41435e+06 -2.02186e+06 -1.1027e+06 547869 371491 -2.03595e+06
167 3 O 3.42986 107.598 -0.21919 -1.2 -7.74963 -5.01791e+06 -3.96073e+06 1.52694e+06 -1.66594e+06 -1.96208e+06 -3.50491e+06
168 3 O 3.64544 107.941 2.45163 -1.2 -8.43234 -4.72677e+06 -2.06214e+06 542113 -55942.7 1.15034e+06 231164
169 1 Mg 2.51315 111.756 -0.0831965 1.2 -7.95757 418748 4.55036e+06 -2.06322e+06 -746166 -679458 15067.1
170 1 Mg 7.13766 114.668 1.36136 1.2 -8.14273 1.63607e+06 2.31437e+06 -621534 57917.3 77874.7 -760694
171 2 Si 4.53761 112.709 1.61362 2.4 -34.8132 6.48308e+06 1.46844e+07 3.54276e+06 533029 -1.14025e+06 2.9059e+06
172 3 O 6.06958 112.565 1.56361 -1.2 -8.7539 -4.0497e+06 -4.92657e+06 -1.51319e+06 -667544 -1.11819e+06 -1.63906e+06
173 3 O 3.30308 116.374 1.34734 -1.2 -9.38404 -3.66051e+06 -6.24353e+06 -908157 -1.06156e+06 -289599 -282336
174 3 O 3.91374 113.445 0.438057 -1.2 -9.27155 -3.49264e+06 -5.2983e+06 -1.95118e+06 405830 546041 1.22345e+06
175 1 Mg 2.47151 121.968 2.80126 1.2 -7.69772 -285586 3.77596e+06 -42616.9 -277063 340096 2.96023e+06
176 3 O 3.82482 113.268 2.89917 -1.2 -8.26779 -4.18943e+06 -4.73141e+06 -1.51177e+06 470409 -733611 -959019
177 1 Mg 2.23861 119.013 4.44143 1.2 -7.12814 401067 1.52235e+06 1.21219e+06 1.10184e+06 -1.20455e+06 733965
178 2 Si 5.10389 120.986 4.31316 2.4 -32.1205 3.06168e+06 1.07486e+07 7.68866e+06 304466 1.01432e+06 1.17595e+06
179 3 O 3.58391 121.276 4.29713 -1.2 -9.81139 -2.47454e+06 -4.76623e+06 -3.48574e+06 -505401 469435 -1.52629e+06
180 3 O 5.98602 117.101 4.39039 -1.2 -9.56206 -2.09086e+06 -7.62349e+06 -3.63192e+06 86837.6 -220436 -606324
181 3 O 5.69839 120.269 3.10117 -1.2 -9.84244 -2.82557e+06 -4.9866e+06 -3.39772e+06 26130.6 -674617 -2.71447e+06
182 3 O 5.74314 120.295 5.70321 -1.2 -9.66667 -1.09878e+06 -4.13e+06 579301 336695 733549 -1.41607e+06
183 1 Mg 4.61823 116.571 2.86181 1.2 -7.23585 -1.70446e+06 5.65343e+06 -1.90489e+06 559513 -922660 1.36445e+06
184 1 Mg 4.65663 113.866 4.85059 1.2 -8.17871 2.29065e+06 2.98866e+06 836661 -954738 685927 2.7286e+06
185 2 Si 6.77401 115.717 4.26434 2.4 -33.3308 1.28547e+06 1.16375e+07 4.97556e+06 -1.45212e+06 -3473.46 2.68915e+06
186 3 O 3.53019 115.87 4.31347 -1.2 -9.7758 -6.14145e+06 -5.61713e+06 -3.33667e+06 -1.53378e+06 1.93374e+06 -1.90915e+06
187 3 O 5.57934 111.94 4.58357 -1.2 -8.18683 -4.81234e+06 -6.11012e+06 -1.26716e+06 -54568.2 -669913 440382
188 3 O 6.13021 115.073 3.05509 -1.2 -9.04045 -3.21129e+06 -7.37817e+06 -2.84814e+06 -499648 -271323 -2.67833e+06
189 1 Mg 4.72972 116.81 -0.232194 1.2 -7.5312 -1.81599e+06 5.01443e+06 -2.23144e+06 854659 1.74509e+06 -2.54708e+06
190 3 O 6.30481 115.044 5.62271 -1.2 -8.8167 -3.38246e+06 -6.11529e+06 -2.02054e+06 972534 -824094 -744361
191 1 Mg 4.88656 119.711 1.44728 1.2 -8.2373 387689 3.11396e+06 -468238 -1.19813e+06 -509886 636132
192 2 Si 2.72724 117.966 1.30569 2.4 -33.0425 5.20726e+06 1.28532e+07 4.25563e+06 192983 -99772.4 -1.39421e+06
193 3 O 5.93089 117.732 1.26201 -1.2 -9.39119 -1.8173e+06 -5.51129e+06 -1.26302e+06 1.62225e+06 222289 804262
194 3 O 4.00083 121.771 1.3136 -1.2 -8.58222 -4.45362e+06 -6.18135e+06 -1.61551e+06 1.47839e+06 85070 -1.06165e+06
195 3 O 3.33982 118.563 -0.0749006 -1.2 -8.67702 -4.42884e+06 -4.88722e+06 -885084 525301 -708010 -171013
196 3 O 3.40382 118.618 2.48191 -1.2 -9.73278 -2.24158e+06 -4.72237e+06 -1.65245e+06 -593421 -992624 -2.21755e+06
197 1 Mg 2.58583 122.002 -0.176277 1.2 -7.9519 385315 5.33371e+06 -2.42175e+06 42906.5 -222219 728080
198 1 Mg 7.10163 125.152 1.72189 1.2 -8.33451 694772 874956 353263 34631.8 590275 628890
199 2 Si 4.62125 123.275 1.3942 2.4 -34.1521 8.44776e+06 1.18473e+07 6.45539e+06 -1.33554e+06 -1.23825e+06 1.63729e+06
200 3 O 6.1461 122.993 1.39316 -1.2 -9.08099 -4.81527e+06 -3.9278e+06 -1.5291e+06 -2.78504e+06 -1.27071e+06 -590977
201 3 O 3.2013 126.889 1.34498 -1.2 -9.33576 -1.97665e+06 -7.02317e+06 -2.70175e+06 -2.01394e+06 686621 -1.23815e+06
202 3 O 3.91188 123.904 0.124081 -1.2 -8.14932 -3.41088e+06 -7.11266e+06 -288899 -473523 1.80582e+06 1.61249e+06
203 1 Mg 2.32228 132.414 2.93928 1.2 -7.24306 -3.12415e+06 3.18117e+06 -1.09774e+06 -1.39148e+06 2.45438e+06 2.46163e+06
204 3 O 3.75329 123.889 2.66582 -1.2 -9.02679 -1.59302e+06 -3.34845e+06 -4.40097e+06 -685234 -2.31541e+06 -2.17982e+06
205 1 Mg 2.51853 129.659 4.54447 1.2 -7.36392 382250 2.78277e+06 -167575 1.55661e+06 -155104 1.21824e+06
206 2 Si 5.22934 131.49 4.58674 2.4 -32.1476 5.23835e+06 1.13987e+07 5.33374e+06 1.72547e+06 1.46089e+06 -1.04035e+06
207 3 O 3.61006 131.496 4.53754 -1.2 -9.84557 -613017 -3.877e+06 -2.12806e+06 1.59023e+06 309208 459615
208 3 O 5.94024 127.789 4.64596 -1.2 -9.61435 -2.13576e+06 -6.13544e+06 -2.45928e+06 -1.5246e+06 154114 -2.48887e+06
209 3 O 5.76508 131.041 3.25511 -1.2 -10.1694 -2.97823e+06 -7.80024e+06 -5.08965e+06 -1.38638e+06 174153 -4.901e+06
210 3 O 5.69983 130.727 5.95979 -1.2 -8.86366 -3.25202e+06 -6.41889e+06 2.83525e+06 -490263 655657 -938894
211 1 Mg 4.66909 127.526 3.20939 1.2 -7.08265 -2.98107e+06 3.434e+06 -797039 1.43933e+06 -1.34804e+06 1.85165e+06
212 1 Mg 4.62145 124.295 4.2959 1.2 -8.19745 2.20759e+06 1.27668e+06 -426486 -321126 -307327 955417
213 2 Si 6.78284 126.406 4.63021 2.4 -33.0267 4.37303e+06 1.23333e+07 7.61899e+06 -583299 -1.45257e+06 681834
214 3 O 3.53003 126.442 4.5501 -1.2 -9.67621 -4.51292e+06 -5.22498e+06 -1.69563e+06 -871012 -727273 282022
215 3 O 5.79153 122.479 4.34907 -1.2 -9.31843 -4.53609e+06 -3.08907e+06 -2.88102e+06 -11430.9 -742663 -1.34819e+06
216 3 O 6.16021 125.729 3.27725 -1.2 -9.21534 -3.00562e+06 -2.51882e+06 -2.16083e+06 837760 1.5793e+06 -1.97565e+06
217 1 Mg 4.76252 127.287 0.223812 1.2 -7.47611 -1.75593e+06 6.86415e+06 -2.16791e+06 846783 1.37706e+06 -211498
218 3 O 6.1585 125.606 5.97228 -1.2 -8.49816 -2.0371e+06 -3.26074e+06 393938 1.36909e+06 -608232 -1.36733e+06
219 1 Mg 4.64288 130.354 1.82607 1.2 -7.62163 373474 2.42233e+06 -84678.1 -1.09404e+06 -751243 843174
220 2 Si 2.58334 128.411 1.51484 2.4 -32.4 3.51e+06 1.30763e+07 4.84414e+06 -1.20533e+06 613992 199195
221 3 O 5.81228 128.509 1.45513 -1.2 -9.8929 -3.60698e+06 -5.24334e+06 -2.13921e+06 1.01859e+06 -696589 504028
222 3 O 3.66471 132.228 1.48884 -1.2 -9.67016 -1.94355e+06 -7.35951e+06 -3.87565e+06 2.6109e+06 -61876.2 -2.09335e+06
223 3 O 3.36322 129.241 0.464752 -1.2 -9.07835 -5.16802e+06 -6.12475e+06 -1.57783e+06 -661037 -553342 863696
224 3 O 3.28056 128.777 2.93749 -1.2 -10.0315 -1.52703e+06 -5.76376e+06 -3.67711e+06 1.34398e+06 1.03063e+06 -994406
225 1 Mg 2.53872 132.63 0.0269868 1.2 -7.48446 -3.10738e+06 5.56758e+06 -3.88833e+06 -240751 -1.7504e+06 -324134
226 1 Mg 7.43387 135.626 1.41545 1.2 -8.19423 1.0253e+06 1.22803e+06 1.03738e+06 2.13956e+06 -926296 1.92306e+06
227 2 Si 4.54239 133.639 1.58422 2.4 -32.9081 6.06974e+06 1.00021e+07 5.77106e+06 2.4121e+06 -1.30331e+06 3.41095e+06
228 3 O 6.08328 133.727 1.61702 -1.2 -9.30692 -2.89386e+06 -3.44157e+06 -3.3926e+06 1.67059e+06 -19925.2 -881357
229 3 O 3.63347 137.56 1.84755 -1.2 -9.51609 -382480 -4.43533e+06 -1.77653e+06 -2.00821e+06 1.32949e+06 945335
230 3 O 3.95211 134.391 0.395366 -1.2 -9.22649 -5.89639e+06 -4.63232e+06 -4.24578e+06 364744 -223905 961322
231 1 Mg 2.59046 143.444 3.23131 1.2 -8.02095 366430 3.71264e+06 159531 -735877 450039 1.25697e+06
232 3 O 4.01896 134.316 2.96582 -1.2 -8.89391 -4.0735e+06 -1.92788e+06 -2.48427e+06 -58992.1 154029 -1.52476e+06
233 1 Mg 2.62857 140.492 4.61805 1.2 -8.34429 1.5312e+06 1.02424e+06 2.92624e+06 609958 356425 -77250.9
234 2 Si 5.17099 142.309 4.58326 2.4 -34.1379 3.3803e+06 1.05976e+07 8.09358e+06 127760 6945.12 -1.11474e+06
235 3 O 3.70936 142.5 4.79161 -1.2 -9.11017 -6.68111e+06 -3.44755e+06 -3.94858e+06 -1.56455e+06 -705060 658401
236 3 O 6.23226 138.595 4.66591 -1.2 -9.24656 -753129 -1.17278e+06 -878966 -541350 -252950 -1.03391e+06
237 3 O 5.92486 141.675 3.42866 -1.2 -8.95271 -3.98424e+06 -4.90825e+06 -5.85907e+06 1.25223e+06 -633402 -1.58487e+06
238 3 O 5.86484 141.699 5.922 -1.2 -8.28794 -5.63748e+06 -4.33527e+06 -1.77288e+06 156872 240992 340821
239 1 Mg 5.09704 138.09 3.17961 1.2 -7.12448 -372316 5.01833e+06 -1.40285e+06 810512 -2.02411e+06 1.73761e+06
240 1 Mg 4.98171 134.996 4.43166 1.2 -7.89377 2.45956e+06 1.07453e+06 1.49872e+06 -1.8813e+06 -1.53062e+06 326833
241 2 Si 6.8948 136.954 4.76988 2.4 -33.1381 3.49546e+06 1.10386e+07 9.77836e+06 -2.45155e+06 -1.73944e+06 1.15586e+06
242 3 O 3.65049 137 4.8953 -1.2 -9.11711 -2.88934e+06 -4.27017e+06 -5.54745e+06 -640202 -1.77813e+06 -468540
243 3 O 6.07417 132.888 4.60083 -1.2 -9.22649 -2.55279e+06 -5.93827e+06 -5.02965e+06 1.4432e+06 -1.15282e+06 -2.08043e+06
244 3 O 6.44197 136.349 3.40221 -1.2 -9.31091 -3.71202e+06 -3.49618e+06 -142169 -169407 -1.07132e+06 -1.39631e+06
245 1 Mg 4.97293 138.112 0.361591 1.2 -7.58139 -2.19777e+06 3.8812e+06 -1.23293e+06 827953 496310 -953398
246 3 O 6.22649 136.367 6.13965 -1.2 -8.65314 -5.10003e+06 -1.61007e+06 1.63183e+06 -846470 -359779 -1.48219e+06
247 1 Mg 5.14971 141.075 1.75057 1.2 -8.57158 2.42216e+06 1.22702e+06 -1.04933e+06 -491657 -239314 1.13078e+06
248 2 Si 2.92767 139.059 1.6745 2.4 -33.0216 4.95592e+06 1.3329e+07 5.70498e+06 44667.2 1.00584e+06 1.51092e+06
249 3 O 6.09877 139.093 1.53399 -1.2 -9.52265 -3.0733e+06 -4.83818e+06 -4.0352e+06 -350016 -1.96258e+06 -644221
250 3 O 4.01395 142.793 1.84836 -1.2 -8.60367 -1.99473e+06 -3.72104e+06 -928776 1.68471e+06 -646006 960872
251 3 O 3.73464 139.639 0.494908 -1.2 -8.91592 -5.21368e+06 -4.28015e+06 -4.29268e+06 791085 169367 -971932
252 3 O 3.48348 139.916 2.93198 -1.2 -8.89831 -2.22991e+06 -3.2045e+06 -2.74282e+06 234319 1.24235e+06 -145616
253 1 Mg 2.72105 143.236 0.0656146 1.2 -7.45897 -2.26497e+06 3.31478e+06 -246502 -817626 -308208 -3.11973e+06
254 1 Mg 7.14067 146.172 1.97805 1.2 -8.2317 611015 1.79855e+06 503140 249.699 -42241.6 -1.1149e+06
255 2 Si 4.7283 144.406 1.5566 2.4 -32.8181 5.45363e+06 1.29866e+07 5.66492e+06 1.04712e+06 -1.58694e+06 -1.46914e+06
256 3 O 6.25397 144.291 1.69812 -1.2 -9.67314 -2.80886e+06 -4.57724e+06 -2.67102e+06 -636511 220382 1.58719e+06
257 3 O 3.29184 148.796 1.80459 -1.2 -9.16295 -4.74341e+06 -4.69948e+06 43822.4 -1.54192e+06 -504655 467958
258 3 O 4.04343 144.692 0.274908 -1.2 -9.49027 -4.24154e+06 -5.55359e+06 -5.76409e+06 -262207 590331 2.01231e+06
259 1 Mg 1.88669 154.248 2.10897 1.2 -7.44194 -876124 -389681 1.80136e+06 2.10474e+06 627462 -1.30143e+06
260 3 O 3.92836 145.181 2.84648 -1.2 -9.07483 -2.60499e+06 -3.30702e+06 -99589.4 -734740 -2.61296e+06 695330
261 1 Mg 1.98941 151.298 5.03678 1.2 -7.89541 -1.25412e+06 5.90919e+06 -1.43533e+06 859970 508116 273234
262 2 Si 4.28614 152.148 3.11254 2.4 -33.8832 8.8821e+06 1.21108e+07 4.64616e+06 -3.28841e+06 -4.17334e+06 434618
263 3 O 3.3692 153.587 2.97659 -1.2 -7.92719 -4.52023e+06 305637 -3.81119e+06 -878856 489084 72518.4
264 3 O 6.03155 149.14 4.84038 -1.2 -9.04682 -295136 -4.62195e+06 -2.73713e+06 -1.63371e+06 -500753 469784
265 3 O 5.28436 152.584 1.88232 -1.2 -8.63658 -1.58642e+06 -4.13393e+06 -3.69006e+06 2.71457e+06 841847 -923692
266 3 O 5.07832 151.976 4.36763 -1.2 -8.8074 -7.38279e+06 -6.78124e+06 -4.23522e+06 -705168 -805577 -919973
267 1 Mg 4.7188 148.607 3.31051 1.2 -7.96168 412276 4.22998e+06 -160936 640025 -601356 20401.3
268 1 Mg 4.63387 145.553 4.73485 1.2 -8.7286 2.09912e+06 1.84974e+06 2.04272e+06 -674461 -493550 -1.2374e+06
269 2 Si 6.79864 147.689 4.92266 2.4 -33.553 8.22661e+06 1.23991e+07 8.53531e+06 -1.3263e+06 864043 -3.33725e+06