ITEM: TIMESTEP
37900
ITEM: NUMBER OF ATOMS
5600
ITEM: BOX BOUNDS xy xz yz pp pp pp
0.0000000000000000e+00 7.1234999999999999e+00 0.0000000000000000e+00
0.0000000000000000e+00 2.0198500000000001e+02 2.3744999999999998e+00
0.0000000000000000e+00 1.1958400000000000e+02 0.0000000000000000e+00
ITEM: ATOMS id type element xu yu zu q c_pe c_s[1] c_s[2] c_s[3] c_s[4] c_s[5] c_s[6]
1 1 Mg -1.479 48.9266 -1.14109 1.2 -8.1621 -106405 -547796 2.76185e+06 417561 27982.1 -813406
2 1 Mg 2.99929 51.9539 1.7489 1.2 -8.58975 2.36416e+06 1.83672e+06 285225 -1.12308e+06 -1.85815e+06 -1.08753e+06
3 2 Si 0.963779 50.2438 0.269618 2.4 -35.4782 1.09324e+07 8.17754e+06 6.20577e+06 -2.69951e+06 1.97099e+06 -3.25178e+06
4 3 O 1.91476 49.0198 0.360413 -1.2 -7.62578 -2.60409e+06 -1.66787e+06 -2.25024e+06 -455785 -1.70093e+06 1.59299e+06
5 3 O -1.50421 53.8931 1.49735 -1.2 -8.45573 -4.05371e+06 -4.64867e+06 -2.7203e+06 -1.08167e+06 737269 1.54823e+06
6 3 O 0.0202422 50.0893 -1.08397 -1.2 -8.05577 -4.53131e+06 -3.4536e+06 -3.894e+06 558032 935592 -33891.6
7 1 Mg -2.36297 59.3507 3.26507 1.2 -8.34139 -273043 2.03609e+06 1.13733e+06 -250604 1.72286e+06 1.45584e+06
8 3 O -0.0141257 50.671 1.33439 -1.2 -7.84736 -4.9929e+06 -2.54181e+06 -6.71561e+06 -2.16014e+06 2.47159e+06 1.40829e+06
9 1 Mg -2.37515 56.4511 4.73894 1.2 -8.70092 3.35457e+06 -661995 2.75227e+06 875931 -202022 218851
10 2 Si 0.441556 58.4386 4.80112 2.4 -34.8726 8.67251e+06 6.59386e+06 8.55139e+06 149581 1.04867e+06 -628265
11 3 O -1.11326 58.6924 4.80303 -1.2 -8.35888 -3.46689e+06 -2.85463e+06 -3.91547e+06 645168 448603 41529.6
12 3 O 1.18356 54.8007 4.66254 -1.2 -8.85266 -3.25278e+06 -3.12905e+06 -4.67179e+06 -1.549e+06 -4382.95 -528606
13 3 O 0.94152 57.7351 3.5278 -1.2 -8.70886 -4.84887e+06 -3.11051e+06 -6.3709e+06 352139 -708778 -1.45209e+06
14 3 O 1.04723 57.7485 6.07987 -1.2 -8.11209 -4.13002e+06 -3.33472e+06 -2.8157e+06 -207776 -118289 802939
15 1 Mg -0.0607875 54.3042 3.19394 1.2 -8.08308 -1.11023e+06 2.36466e+06 1.19823e+06 1.12354e+06 -2.12882e+06 1.17139e+06
16 1 Mg 0.227321 51.0764 3.23344 1.2 -8.46184 2.91661e+06 616548 -903855 -311079 -196811 -195166
17 2 Si 1.95908 53.2986 4.44759 2.4 -33.5666 6.25657e+06 1.13786e+07 7.98621e+06 -1.78986e+06 128662 708367
18 3 O -1.30019 53.3426 4.59554 -1.2 -9.01343 -3.69214e+06 -5.59727e+06 -2.58753e+06 -348943 -183518 -300320
19 3 O 3.01716 50.8294 3.3847 -1.2 -6.58045 -2.52308e+06 -1.91284e+06 -3.02413e+06 1.12455e+06 913807 -442396
20 3 O 1.25367 52.8016 3.1448 -1.2 -8.7378 -3.77442e+06 -5.78869e+06 -4.82663e+06 1.72045e+06 627213 879148
21 1 Mg -0.0594982 54.6039 -0.0845743 1.2 -8.56045 240714 2.19217e+06 1.44119e+06 1.48779e+06 1.49712e+06 -1.14458e+06
22 3 O 1.20739 52.3886 5.64863 -1.2 -9.60258 -6.97002e+06 -5.1645e+06 -5.14071e+06 2.77083e+06 -2.42272e+06 469893
23 1 Mg 0.0666064 57.1394 1.91929 1.2 -8.89953 1.46509e+06 197613 2.31782e+06 -983452 -710388 -1.16506e+06
24 2 Si -2.1436 55.3885 1.59818 2.4 -34.4033 6.91231e+06 9.81371e+06 8.83912e+06 212938 363639 1.13864e+06
25 3 O 1.08353 55.3156 1.64232 -1.2 -8.91274 -4.18817e+06 -4.70344e+06 -3.42582e+06 1.23114e+06 102800 312967
26 3 O -0.973395 59.0171 1.87271 -1.2 -8.19408 -3.17801e+06 -2.39181e+06 -6.36203e+06 2.57894e+06 144804 1.11385e+06
27 3 O -1.42757 55.9947 0.339719 -1.2 -8.56078 -4.24836e+06 -7.44791e+06 -4.10083e+06 -1278.14 -1.33954e+06 2.6398e+06
28 3 O -1.45629 55.962 2.99574 -1.2 -8.79002 -3.38637e+06 -2.03051e+06 -1.61433e+06 140520 788032 -572523
29 1 Mg -2.2798 59.4685 0.463307 1.2 -8.80003 816467 2.56775e+06 604197 -814235 -1.48719e+06 -1.82402e+06
30 1 Mg 2.34389 62.3087 1.952 1.2 -8.95676 2.39602e+06 -925783 4.64328e+06 424396 467482 -217495
31 2 Si -0.211263 60.5691 1.82453 2.4 -34.5078 7.31377e+06 8.52166e+06 1.17676e+07 816943 -484392 -554381
32 3 O 1.3438 60.4361 1.85051 -1.2 -9.17116 -3.93774e+06 -2.05317e+06 -5.26863e+06 -181609 -84141.5 -24707.2
33 3 O -1.22509 63.9821 1.79421 -1.2 -8.32799 -2.95188e+06 -1.77611e+06 -4.37434e+06 -1.4526e+06 -168951 -310970
34 3 O -0.882448 61.0045 0.441719 -1.2 -7.9575 -4.4058e+06 -4.1378e+06 -2.41448e+06 -324769 1.12036e+06 911300
35 1 Mg -2.19702 69.8096 3.27638 1.2 -8.62551 61784.6 3.80997e+06 1.05665e+06 -1.0728e+06 1.56473e+06 1.47697e+06
36 3 O -0.880455 61.2574 3.06222 -1.2 -8.55359 -3.25649e+06 -3.70507e+06 -4.04123e+06 -493859 -302704 -656939
37 1 Mg -2.23961 66.7982 4.82516 1.2 -8.97215 3.83227e+06 -212645 3.0661e+06 220535 -248792 238282
38 2 Si 0.462199 68.9046 4.9272 2.4 -34.817 7.86333e+06 9.29096e+06 1.13319e+07 1.38776e+06 566812 -302806
39 3 O -1.04221 68.7735 4.8609 -1.2 -8.76202 -4.95075e+06 -2.33331e+06 -4.3443e+06 589218 646891 140429
40 3 O 1.41882 65.1405 4.88519 -1.2 -8.7253 -3.94698e+06 -4.33042e+06 -3.31098e+06 -91945.5 720499 -468485
41 3 O 1.18047 68.3064 3.52185 -1.2 -8.11206 -4.0969e+06 -1.58386e+06 -1.39526e+06 -993607 -1.26624e+06 -68440.6
42 3 O 1.23068 68.1502 6.19564 -1.2 -7.96626 -4.01976e+06 -3.0008e+06 -2.13483e+06 -846403 1.93882e+06 403855
43 1 Mg -0.102602 64.5626 3.37516 1.2 -8.36534 121284 2.65931e+06 1.05936e+06 1.62853e+06 -1.7653e+06 1.39976e+06
44 1 Mg 0.140359 61.521 4.75514 1.2 -8.94684 3.29368e+06 -1.22084e+06 3.15514e+06 247710 -516029 -575625
45 2 Si 2.04342 63.6429 4.9018 2.4 -34.8191 7.58277e+06 7.32717e+06 8.34075e+06 -421998 15372.9 -1.65277e+06
46 3 O -1.17918 63.6984 4.9234 -1.2 -8.51612 -4.46316e+06 -3.20517e+06 -4.64668e+06 327976 -454200 100103
47 3 O 1.18458 59.8616 4.83979 -1.2 -8.55428 -6.52484e+06 -5.18279e+06 -3.60344e+06 644590 74821.3 815649
48 3 O 1.42253 62.9713 3.6649 -1.2 -8.46918 -5.29145e+06 -2.12788e+06 -5.46358e+06 -263898 -160310 -926319
49 1 Mg 0.174352 64.4851 0.391485 1.2 -8.83108 216075 3.33252e+06 -11974.6 1.7053e+06 1.83066e+06 -1.55515e+06
50 3 O 1.35395 62.9136 6.16287 -1.2 -8.24053 -5.32379e+06 -693199 -2.91765e+06 -58641 -213602 183120
51 1 Mg 0.244841 67.3555 1.82969 1.2 -9.1116 2.88068e+06 -80364.2 5.02083e+06 -607337 -3589.19 878615
52 2 Si -1.91966 65.5866 1.74121 2.4 -34.5506 7.75201e+06 8.95653e+06 1.03006e+07 -629986 143167 -193623
53 3 O 1.27892 65.5295 1.76332 -1.2 -8.79617 -3.46412e+06 -2.28858e+06 -5.27453e+06 181340 234580 208625
54 3 O -0.905784 69.2098 1.76082 -1.2 -8.46002 -4.68954e+06 -4.46088e+06 -3.83367e+06 182998 -127370 170468
55 3 O -1.28695 66.1784 0.439337 -1.2 -7.9004 -6.51792e+06 -2.45083e+06 -2.24576e+06 -466783 -557221 40852.4
56 3 O -1.19619 66.171 3.02438 -1.2 -8.72094 -3.53568e+06 -3.34685e+06 -3.07827e+06 666122 169039 -944005
57 1 Mg -2.35739 69.6536 0.33498 1.2 -8.67809 208791 4.09983e+06 -144328 -549244 -1.09269e+06 -951558
58 1 Mg 2.58505 72.7544 1.5903 1.2 -9.12761 3.18228e+06 636068 1.75999e+06 1.11804e+06 -275122 600663
59 2 Si -0.179137 70.6012 1.80458 2.4 -34.7646 5.9892e+06 9.45177e+06 9.58952e+06 -147381 898060 1.41974e+06
60 3 O 1.29237 70.5525 1.71774 -1.2 -8.59887 -6.49725e+06 -4.63088e+06 -4.44457e+06 -254699 1.02782e+06 -309639
61 3 O -1.35751 74.6948 1.75458 -1.2 -8.4144 -3.22326e+06 -5.74326e+06 -3.72764e+06 -1.40739e+06 241632 -823326
62 3 O -0.978821 71.366 0.51465 -1.2 -8.22737 -4.58643e+06 -2.11386e+06 -1.75634e+06 -601956 1.29396e+06 97163.6
63 1 Mg -2.34483 80.2168 3.08825 1.2 -8.4526 -1.68459e+06 3.57949e+06 -1.4633e+06 -797128 1.818e+06 1.87206e+06
64 3 O -0.773662 71.3495 3.15629 -1.2 -8.21433 -4.2684e+06 -1.7859e+06 -819133 3279.9 -383910 -263421
65 1 Mg -2.11626 77.471 4.7329 1.2 -8.89223 3.01988e+06 722402 2.49825e+06 1.17613e+06 -104252 489711
66 2 Si 0.519178 79.2794 4.55803 2.4 -34.4719 4.99773e+06 1.02572e+07 7.33049e+06 584867 101141 928246
67 3 O -1.01402 79.3509 4.47425 -1.2 -8.89995 -4.10464e+06 -3.79876e+06 -4.25386e+06 449993 -451261 -516026
68 3 O 1.60548 75.4923 4.48064 -1.2 -8.5431 -3.9007e+06 -3.98023e+06 -3.87392e+06 -1.86039e+06 396327 972253
69 3 O 1.11873 78.5969 3.28203 -1.2 -8.44991 -5.32543e+06 -4.37385e+06 -3.05776e+06 -490216 885335 -626434
70 3 O 1.13447 78.5728 5.80999 -1.2 -8.59963 -3.84279e+06 -3.35295e+06 -3.24368e+06 -125882 361365 331431
71 1 Mg 0.118667 75.1503 3.21563 1.2 -8.40963 87267 4.05784e+06 -402016 693891 -1.22636e+06 1.50228e+06
72 1 Mg 0.199386 72.1547 4.80575 1.2 -9.03247 3.21367e+06 377027 3.92305e+06 -640632 -229408 333193
73 2 Si 2.2944 74.0257 4.55853 2.4 -34.5268 9.25677e+06 9.78794e+06 1.03222e+07 -168589 -133957 1.68116e+06
74 3 O -0.851311 74.0316 4.6196 -1.2 -8.89085 -1.92485e+06 -2.745e+06 -4.62377e+06 126151 -162794 -801584
75 3 O 1.22663 70.3404 4.9945 -1.2 -8.35404 -2.19021e+06 -3.68507e+06 -3.69377e+06 1.5459e+06 -374228 -120016
76 3 O 1.66836 73.2156 3.29919 -1.2 -8.08902 -4.33815e+06 -2.62687e+06 -1.3263e+06 -169113 1.12491e+06 -243109
77 1 Mg 0.327468 75.0103 0.154261 1.2 -8.21908 720432 3.7456e+06 -196413 961784 1.3285e+06 -1.77594e+06
78 3 O 1.60773 73.5046 5.94425 -1.2 -8.54228 -4.24886e+06 -2.64127e+06 -2.62985e+06 881079 -1.41914e+06 260654
79 1 Mg 0.178245 78.0277 1.52719 1.2 -8.76511 2.4664e+06 301615 3.8688e+06 -787745 -90642 214676
80 2 Si -1.91974 76.152 1.71644 2.4 -34.3477 9.7646e+06 8.31058e+06 1.05727e+07 208179 -1.58519e+06 42059.9
81 3 O 1.20264 76.1396 1.57951 -1.2 -8.9164 -1.68028e+06 -2.15042e+06 -3.9863e+06 1.35973e+06 -706591 -291803
82 3 O -1.05527 79.7389 1.60372 -1.2 -8.66975 -2.90685e+06 -3.26005e+06 -3.34846e+06 1.77265e+06 588281 267033
83 3 O -1.15196 76.8208 0.312433 -1.2 -8.37028 -3.48663e+06 -1.66851e+06 -316425 167569 -2.0448e+06 -131829
84 3 O -1.25063 76.7167 3.01781 -1.2 -8.30132 -4.77003e+06 -5.46172e+06 -2.3011e+06 -908893 1.51237e+06 -1.77632e+06
85 1 Mg -2.28125 80.2912 -0.0557942 1.2 -8.54091 435785 2.89722e+06 746451 -363035 -707715 -1.34516e+06
86 1 Mg 2.31484 83.1578 1.46351 1.2 -8.83428 3.05829e+06 759613 1.46138e+06 313971 -40881.4 281291
87 2 Si -0.194319 81.1602 1.65233 2.4 -34.1516 7.61621e+06 1.08973e+07 9.96867e+06 317550 -328194 801198
88 3 O 1.30201 81.0137 1.66335 -1.2 -9.09554 -5.16057e+06 -3.67794e+06 -3.72588e+06 1.29169e+06 -1.19269e+06 -16760.2
89 3 O -1.3305 84.9265 1.58967 -1.2 -8.47064 -4.70889e+06 -7.97196e+06 -3.98672e+06 -279074 -426904 -309560
90 3 O -0.821068 81.93 0.303472 -1.2 -8.39019 -3.27888e+06 -2.17634e+06 -2.13008e+06 -697681 1.89743e+06 -779796
91 1 Mg -2.33789 90.5611 3.04289 1.2 -8.01594 -1.51049e+06 4.26175e+06 -1.06332e+06 -1.27598e+06 1.79475e+06 1.61473e+06
92 3 O -0.922447 81.9495 2.91793 -1.2 -8.35432 -3.35885e+06 -2.88689e+06 -1.84735e+06 -1.48022e+06 -1.50874e+06 -141752
93 1 Mg -2.20568 87.5521 4.48661 1.2 -8.86828 2.19651e+06 411465 1.93144e+06 519903 -3294.56 -96593.7
94 2 Si 0.297898 89.4867 4.36784 2.4 -33.6814 4.92111e+06 1.08897e+07 9.13597e+06 -443198 1.00974e+06 573810
95 3 O -1.1973 89.4784 4.27114 -1.2 -9.31765 -4.8111e+06 -4.08251e+06 -4.72652e+06 -445020 396855 -670014
96 3 O 1.39162 85.792 4.41812 -1.2 -8.56292 -4.74474e+06 -5.51328e+06 -4.99888e+06 -1.06251e+06 -1.20899e+06 145723
97 3 O 0.962055 88.6595 3.18511 -1.2 -8.39426 -5.20687e+06 -3.42686e+06 -2.64611e+06 -454674 -570443 -786194
98 3 O 1.07012 88.9448 5.75848 -1.2 -8.74602 -2.84343e+06 -2.43134e+06 -3.10152e+06 8606.85 1.69262e+06 -534398
99 1 Mg 0.033 85.4305 3.07429 1.2 -8.58431 -938128 2.97262e+06 -977469 1.84596e+06 -2.68722e+06 1.14461e+06
100 1 Mg -0.124161 82.5317 4.58787 1.2 -8.95998 2.48342e+06 211850 2.10198e+06 -1.1898e+06 260899 102652
101 2 Si 2.00863 84.3288 4.40144 2.4 -34.7675 9.09178e+06 8.01708e+06 9.35938e+06 668314 -96032.2 -426335
102 3 O -1.08009 84.4508 4.54338 -1.2 -8.6245 -1.66131e+06 -3.24388e+06 -5.00896e+06 610402 888479 -967.788
103 3 O 1.22152 80.7469 4.57387 -1.2 -8.68731 -3.31968e+06 -5.16249e+06 -4.03772e+06 562628 818396 -489124
104 3 O 1.38245 83.743 3.12013 -1.2 -8.40482 -4.86306e+06 -4.74599e+06 -4.1149e+06 -300707 494090 -1.10453e+06
105 1 Mg 0.146676 85.2259 0.0387555 1.2 -8.45051 530745 3.92762e+06 636972 1.04043e+06 1.12565e+06 -1.67855e+06
106 3 O 1.45722 83.6101 5.69795 -1.2 -8.0935 -3.897e+06 -2.47748e+06 -2.18665e+06 -805546 314497 196781
107 1 Mg 0.154074 88.2275 1.46089 1.2 -9.0039 2.44159e+06 555342 1.97826e+06 -1.45483e+06 -324219 -310523
108 2 Si -1.89358 86.3423 1.53217 2.4 -34.6763 1.03582e+07 6.99577e+06 7.99714e+06 571721 -85660.4 -370711
109 3 O 1.20235 86.2842 1.4674 -1.2 -8.43923 -1.34636e+06 -3.62321e+06 -4.14903e+06 1.05241e+06 -80005.9 650387
110 3 O -1.02343 89.9853 1.44158 -1.2 -8.80846 -2.69489e+06 -5.41062e+06 -3.55349e+06 385758 -262168 595299
111 3 O -1.24194 87.0181 0.260915 -1.2 -8.48024 -5.70479e+06 -3.26871e+06 -3.58056e+06 337773 -1.26593e+06 1.52144e+06
112 3 O -1.25435 86.9276 2.87445 -1.2 -8.23125 -5.62189e+06 -6.34457e+06 -2.96915e+06 92631.5 1.2496e+06 -1.58869e+06
113 1 Mg -2.48528 90.481 0.034332 1.2 -8.73151 -307183 4.54458e+06 -1.60899e+06 -951955 -1.88759e+06 -1.48461e+06
114 1 Mg 2.34128 93.4175 1.45548 1.2 -9.35649 3.46943e+06 976189 1.48255e+06 1.35373e+06 -212420 839813
115 2 Si -0.401711 91.4393 1.49528 2.4 -34.4941 8.80897e+06 1.02015e+07 8.09178e+06 -10776 961585 204291
116 3 O 1.16119 91.423 1.49616 -1.2 -8.70926 -3.0511e+06 -3.5128e+06 -4.49057e+06 -559185 388732 -178424
117 3 O -1.29934 95.2676 1.54028 -1.2 -8.17826 -3.4746e+06 -3.36711e+06 -2.61911e+06 -1.49e+06 9791.52 -603413
118 3 O -1.13726 92.2022 0.226427 -1.2 -7.85527 -4.95724e+06 -3.6054e+06 -1.99029e+06 -329345 1.17639e+06 -1.10068e+06
119 1 Mg -2.2039 100.969 2.7547 1.2 -8.28385 354290 4.17852e+06 -456117 -970677 1.66294e+06 2.23436e+06
120 3 O -1.09681 92.1502 2.76015 -1.2 -8.67124 -5.34673e+06 -3.0254e+06 -4.35198e+06 -509695 -1.49643e+06 -422910
121 1 Mg -2.23592 98.2595 4.4563 1.2 -8.87885 1.59811e+06 925514 3.03383e+06 740542 130033 746415
122 2 Si 0.346801 99.9599 4.21604 2.4 -34.2666 5.74554e+06 1.04846e+07 9.60574e+06 -166832 -2.19309e+06 -115254
123 3 O -1.18233 100.127 4.32534 -1.2 -9.23885 -4.23252e+06 -4.33827e+06 -3.55046e+06 -1.27943e+06 -619836 668423
124 3 O 1.48401 96.2734 4.29754 -1.2 -8.5649 -4.38615e+06 -2.86727e+06 -2.64663e+06 -815881 -544669 -458875
125 3 O 1.07785 99.2559 2.88685 -1.2 -8.18549 -2.37811e+06 -4.82215e+06 -1.50796e+06 -75517.7 -1.51612e+06 -644715
126 3 O 1.00586 99.3523 5.50251 -1.2 -8.77113 -4.45531e+06 -2.65945e+06 -2.51613e+06 218815 297301 697092
127 1 Mg 0.0670453 95.745 2.95054 1.2 -8.589 397309 3.64028e+06 -733776 692147 -1.79569e+06 1.70966e+06
128 1 Mg -0.0518566 92.7745 4.27054 1.2 -8.84388 2.92171e+06 -95354.7 1.10369e+06 -734942 -518929 7018.14
129 2 Si 2.12153 94.7467 4.36286 2.4 -34.9328 5.6431e+06 1.03804e+07 7.54801e+06 848446 1.47115e+06 226436
130 3 O -1.12366 94.8784 4.47388 -1.2 -8.61214 -5.16674e+06 -3.64481e+06 -4.35741e+06 231070 1.67686e+06 1.21025e+06
131 3 O 0.942701 90.9909 4.27775 -1.2 -9.01609 -3.32783e+06 -4.97429e+06 -4.18178e+06 1.1658e+06 675425 31691.5
132 3 O 1.34584 94.0689 3.09851 -1.2 -8.26998 -3.21251e+06 -3.07215e+06 -4.30212e+06 636045 600463 -200838
133 1 Mg 0.00569262 95.6625 -0.0478498 1.2 -8.50355 888181 4.81154e+06 -495687 940363 1.23307e+06 -1.78299e+06
134 3 O 1.65446 93.9226 5.55708 -1.2 -8.15699 -5.97434e+06 -1.97715e+06 -5.58419e+06 -1.01524e+06 274447 1.01688e+06
135 1 Mg 0.0491823 98.4614 1.42302 1.2 -9.21255 2.35391e+06 820045 2.21498e+06 -1.03226e+06 -392455 -1.00128e+06
136 2 Si -2.05941 96.8071 1.46143 2.4 -34.7539 7.38431e+06 1.16839e+07 8.76543e+06 -1.04764e+06 53415.9 -74533.3
137 3 O 1.17754 96.6718 1.41391 -1.2 -8.87456 -4.74875e+06 -4.72815e+06 -3.52872e+06 352326 -107007 297638
138 3 O -0.937539 100.439 1.1979 -1.2 -8.3922 -3.19956e+06 -3.12529e+06 -1.75797e+06 878830 -71248.4 -94738
139 3 O -1.30238 97.4085 0.197917 -1.2 -8.2992 -4.79855e+06 -4.17811e+06 -2.26496e+06 183079 -731540 988275
140 3 O -1.33886 97.4802 2.75375 -1.2 -8.28309 -4.15305e+06 -3.66215e+06 -2.19431e+06 208929 1.81604e+06 539697
141 1 Mg -2.36157 101.037 -0.297781 1.2 -8.48677 -124148 4.93951e+06 -2.09714e+06 -971115 -2.6241e+06 -1.29572e+06
142 1 Mg 7.07512 103.834 1.27581 1.2 -8.60423 2.21574e+06 1.80268e+06 2.7765e+06 929992 -218196 150045
143 2 Si -0.29918 101.973 1.31219 2.4 -34.3577 6.94601e+06 1.21633e+07 7.19357e+06 -394777 1.62594e+06 1.40506e+06
144 3 O 1.23018 102.051 1.22396 -1.2 -8.843 -3.41777e+06 -3.47723e+06 -4.45644e+06 -564239 131203 -107487
145 3 O 3.40227 105.705 1.34968 -1.2 -8.93138 -1.81575e+06 -6.80869e+06 -2.47867e+06 -218731 463791 41713.8
146 3 O -1.02052 102.643 0.0222126 -1.2 -8.59337 -4.18763e+06 -4.58697e+06 -1.28209e+06 -116320 353763 575206
147 1 Mg 2.45496 111.511 2.68097 1.2 -7.73463 -448555 5.31076e+06 -819861 -285762 876254 1.03342e+06
148 3 O -0.991447 102.646 2.56572 -1.2 -8.73049 -5.19993e+06 -3.09844e+06 -2.4031e+06 543520 -1.02888e+06 154974
149 1 Mg 2.53017 108.591 4.26714 1.2 -8.6724 2.66284e+06 2.48366e+06 1.69584e+06 794287 102914 -476150
150 2 Si 5.1521 110.494 4.26879 2.4 -33.7764 4.96309e+06 1.2812e+07 4.04257e+06 32340.3 -369933 -281201
151 3 O 3.61743 110.645 4.27612 -1.2 -9.3959 -3.80509e+06 -4.84693e+06 -2.12725e+06 -47323.7 75327.1 253688
152 3 O 6.27884 106.629 4.41917 -1.2 -8.44564 -2.28085e+06 -5.80981e+06 -2.91482e+06 -864268 364431 207148
153 3 O 5.83926 109.719 3.08054 -1.2 -8.76634 -2.78755e+06 -3.93798e+06 -3.89737e+06 36203.8 -933265 -283647
154 3 O 5.79815 109.852 5.49229 -1.2 -8.87033 -3.12913e+06 -4.61754e+06 -4.33877e+06 344584 9943.02 1.33276e+06
155 1 Mg 4.85684 106.149 2.76937 1.2 -8.00298 85945.6 4.68438e+06 -840756 832393 -611282 1.92819e+06
156 1 Mg -0.112728 103.427 4.30063 1.2 -8.63984 1.57628e+06 967997 2.51804e+06 16504.2 -638048 439543
157 2 Si 6.92358 105.127 4.30723 2.4 -34.1478 2.45186e+06 1.27367e+07 6.584e+06 210827 -713623 -19921
158 3 O 3.6461 105.127 4.35126 -1.2 -9.40463 -7.30524e+06 -5.45212e+06 -3.38506e+06 1.55512e+06 -539125 -62210.5
159 3 O 0.963271 101.428 3.97907 -1.2 -8.33298 -3.51249e+06 -5.01735e+06 -2.71489e+06 509969 496323 -20437.6
160 3 O 6.1989 104.564 3.05489 -1.2 -8.72629 -3.39571e+06 -5.59824e+06 -3.26419e+06 -405914 519712 -1.33492e+06
161 1 Mg 4.87426 106.242 -0.416595 1.2 -7.77746 -333470 4.92897e+06 -836184 670249 989819 -1.56731e+06
162 3 O 6.10856 104.448 5.54888 -1.2 -8.52838 -3.56635e+06 -4.78671e+06 -1.68912e+06 13551.5 -1.1449e+06 353298
163 1 Mg 4.9166 108.986 1.35264 1.2 -8.44411 1.44758e+06 2.37429e+06 2.51522e+06 -565437 -93800.4 -911953
164 2 Si 2.78707 107.144 1.29672 2.4 -33.4552 6.07172e+06 1.09352e+07 8.12827e+06 -190235 -989776 109932
165 3 O 5.9644 107.163 1.43481 -1.2 -9.48917 -2.63664e+06 -4.17532e+06 -2.09771e+06 528561 -92114.3 292862
166 3 O 3.97515 110.99 1.3337 -1.2 -8.95088 -2.43731e+06 -4.69831e+06 -2.42048e+06 1.43197e+06 486872 669185
167 3 O 3.47715 107.726 -0.0445971 -1.2 -9.05944 -2.31511e+06 -5.51805e+06 -725509 -1353.4 -1.22474e+06 1.0917e+06
168 3 O 3.47347 107.83 2.6265 -1.2 -8.82593 -3.94945e+06 -3.69459e+06 78720.9 10627.3 1.21924e+06 -555697
169 1 Mg 2.62402 111.356 -0.242652 1.2 -7.84435 492601 5.21398e+06 -1.9937e+06 -358212 -405694 -2.33511e+06
170 1 Mg 7.22581 114.382 1.24197 1.2 -8.20686 1.75932e+06 1.5572e+06 1.21494e+06 703294 -143409 318859
171 2 Si 4.66869 112.477 1.29285 2.4 -33.4976 4.45193e+06 1.32378e+07 7.42765e+06 -174199 -266344 -867597
172 3 O 6.18351 112.366 1.16006 -1.2 -9.60218 -3.94955e+06 -5.01652e+06 -2.58058e+06 -606621 -241907 625059
173 3 O 3.54359 116.177 1.36291 -1.2 -9.46636 -1.23057e+06 -7.78805e+06 -2.9513e+06 -867263 332955 1.27139e+06
174 3 O 3.91954 113.076 -0.0576633 -1.2 -8.81391 -3.16427e+06 -4.02757e+06 -174098 -151894 1.42995e+06 1.387e+06
175 1 Mg 2.58517 121.952 2.82971 1.2 -7.41564 -3.15675e+06 5.26811e+06 -2.24315e+06 -879227 2.53015e+06 1.95227e+06
176 3 O 4.01979 113.214 2.54642 -1.2 -8.96082 -2.9939e+06 -4.7087e+06 -1.57213e+06 32632 -1.04867e+06 -93987.5
177 1 Mg 2.45889 119.046 4.36507 1.2 -7.41227 416398 2.79314e+06 1.1407e+06 856391 -396491 1.33355e+06
178 2 Si 5.28151 120.917 4.27757 2.4 -31.7699 2.05063e+06 1.23272e+07 4.63299e+06 1.74783e+06 1.31719e+06 921593
179 3 O 3.80468 121.212 4.30569 -1.2 -10.0074 -3.4278e+06 -4.92052e+06 -1.94187e+06 -309091 -368023 -394790
180 3 O 6.35332 117.128 4.29902 -1.2 -9.80924 -4.41124e+06 -6.08359e+06 -2.22669e+06 -81884 299160 1.91388e+06
181 3 O 5.89857 120.224 3.1094 -1.2 -10.1251 -2.89502e+06 -6.66089e+06 -3.45298e+06 260879 382022 -3.73516e+06
182 3 O 5.9714 120.437 5.69341 -1.2 -9.83924 -794968 -5.58393e+06 -355204 38340.7 1.36973e+06 695840
183 1 Mg 4.91296 116.513 2.88042 1.2 -7.42228 -886874 6.04851e+06 -2.44246e+06 519976 -1.33887e+06 1.21915e+06
184 1 Mg 4.93093 113.746 4.2624 1.2 -8.21451 1.91137e+06 722305 1.96176e+06 -482922 -233581 -546570
185 2 Si 6.96963 115.688 4.38555 2.4 -32.6128 1.86024e+06 1.27487e+07 5.45956e+06 1.3279e+06 433566 800211
186 3 O 3.7478 115.809 4.29685 -1.2 -9.79199 -2.65233e+06 -6.41604e+06 -2.85667e+06 558081 222867 432082
187 3 O 5.86806 111.996 4.21412 -1.2 -9.05981 -3.3677e+06 -6.53011e+06 -1.02209e+06 1.63221e+06 -63497 1.10528e+06
188 3 O 6.33247 114.813 3.06849 -1.2 -9.061 -3.00779e+06 -3.10582e+06 313384 -353786 575871 1.03974e+06
189 1 Mg 4.90399 116.59 -0.172728 1.2 -7.7238 -2.44285e+06 5.63398e+06 -1.97548e+06 1.4456e+06 1.87167e+06 -1.04784e+06
190 3 O 6.32394 115.052 5.59946 -1.2 -9.48296 -2.08016e+06 -4.73654e+06 -3.69829e+06 -907604 591766 1.13853e+06
191 1 Mg 5.0107 119.592 1.53519 1.2 -8.03723 1.82389e+06 2.71353e+06 -425277 -1.11051e+06 -1.07711e+06 -614014
192 2 Si 2.87051 117.608 1.32323 2.4 -33.1782 5.71112e+06 1.16351e+07 6.78141e+06 -438817 705329 50030
193 3 O 6.08773 117.699 1.41325 -1.2 -9.46402 -2.5489e+06 -3.81463e+06 -2.95889e+06 216098 -230412 358981
194 3 O 3.79398 121.459 1.40932 -1.2 -9.52708 -1.47653e+06 -7.48159e+06 -2.33445e+06 1.01951e+06 715415 181152
195 3 O 3.53262 118.167 0.0108989 -1.2 -8.90416 -4.34251e+06 -6.29354e+06 -1.04955e+06 148292 -1.02516e+06 1.11811e+06
196 3 O 3.57854 118.347 2.70205 -1.2 -8.97749 -2.77752e+06 -3.0592e+06 1.14486e+06 232327 1.1793e+06 890042
197 1 Mg 2.48763 121.836 -0.14358 1.2 -7.51396 -1.83802e+06 6.67977e+06 -2.03817e+06 -1.04932e+06 -1.74422e+06 -238966
198 1 Mg 6.98198 124.977 1.48845 1.2 -8.20019 1.54923e+06 2.66596e+06 -1.28926e+06 68387.1 -302049 522300
199 2 Si 4.51485 122.914 1.4154 2.4 -33.1502 5.74094e+06 1.22449e+07 3.45935e+06 -82547.3 86016.3 2.06115e+06
200 3 O 6.05588 122.933 1.43299 -1.2 -9.49485 -3.26269e+06 -4.00157e+06 -2.49967e+06 -34007.1 -423609 -116994
201 3 O 3.47848 126.615 1.34734 -1.2 -9.6132 -4.23625e+06 -7.19753e+06 -545072 351579 197345 -1.43473e+06
202 3 O 3.86464 123.492 0.150911 -1.2 -8.84729 -3.9287e+06 -6.22218e+06 -3.13811e+06 297812 598220 1.12291e+06
203 1 Mg 2.46446 132.264 3.03008 1.2 -6.9318 -1.82658e+06 5.19115e+06 -1.65952e+06 -1.23929e+06 1.4376e+06 1.58399e+06
204 3 O 3.80704 123.714 2.64171 -1.2 -9.09895 -2.55031e+06 -2.91288e+06 -1.72148e+06 -897323 -564232 -51152.8
205 1 Mg 2.69 129.313 4.29581 1.2 -7.47493 979725 2.02002e+06 1.61462e+06 638214 689176 519772
206 2 Si 5.22163 131.376 4.48535 2.4 -32.2748 1.49574e+06 1.09948e+07 7.91272e+06 819749 1.38451e+06 1.29744e+06
207 3 O 3.67533 131.366 4.39511 -1.2 -10.214 -2.28441e+06 -3.16337e+06 -4.22913e+06 -89918.6 392410 -331532
208 3 O 6.35294 127.563 4.36066 -1.2 -9.47028 -1.572e+06 -7.61541e+06 -3.40927e+06 -1.4509e+06 -414265 -589956
209 3 O 5.83907 130.628 3.24846 -1.2 -9.93896 -3.65922e+06 -4.01866e+06 -2.03323e+06 555796 -139381 -1.56338e+06
210 3 O 5.82829 131.028 5.87324 -1.2 -8.96886 -1.97053e+06 -5.7315e+06 -2.29032e+06 119244 -278403 170675
211 1 Mg 4.87479 127.035 2.93601 1.2 -7.30186 -1.31284e+06 3.85156e+06 -387067 1.0066e+06 -921339 2.40388e+06
212 1 Mg 4.85028 124.412 4.42398 1.2 -7.61681 360697 1.79093e+06 2.4217e+06 -918448 74185.1 1.66121e+06
213 2 Si 7.00078 126.126 4.45929 2.4 -32.0628 5.54429e+06 1.0772e+07 7.04837e+06 -167758 1.73534e+06 1.28412e+06
214 3 O 3.86897 126.242 4.57299 -1.2 -10.0112 -971763 -4.67217e+06 -2.11743e+06 929902 1.63461e+06 -122788
215 3 O 6.02714 122.454 4.29526 -1.2 -9.29909 -2.49572e+06 -4.00336e+06 -3.34428e+06 402276 -182085 1.55596e+06
216 3 O 6.16613 125.482 3.23289 -1.2 -9.64334 -1.11739e+06 -8.19614e+06 -2.23349e+06 858213 1.90291e+06 -2.61394e+06
217 1 Mg 4.99127 126.987 -0.132308 1.2 -7.6077 -1.83384e+06 5.27141e+06 -1.68778e+06 888110 1.10311e+06 -1.75696e+06
218 3 O 6.36613 125.636 5.83378 -1.2 -9.43675 -3.87036e+06 -6.02552e+06 -2.09167e+06 835744 -1.48823e+06 1.73143e+06
219 1 Mg 5.08121 129.903 1.57282 1.2 -7.65821 739952 1.99542e+06 1.18873e+06 -1.34156e+06 -287114 241012
220 2 Si 2.9645 128.086 1.2484 2.4 -32.1885 5.62127e+06 1.20665e+07 5.03873e+06 1.64767e+06 -1.06614e+06 86662.1
221 3 O 6.03884 127.811 1.41005 -1.2 -9.63173 670181 -4.76234e+06 -2.22324e+06 1.60164e+06 -1.31669e+06 -293777
222 3 O 3.90725 131.693 1.47906 -1.2 -9.7254 -871815 -4.8343e+06 -2.66447e+06 259985 -880089 296176
223 3 O 3.57593 128.757 -0.0429195 -1.2 -9.46127 -1.95044e+06 -5.37557e+06 -1.74986e+06 -31751.4 -1.14763e+06 76862.4
224 3 O 3.4988 128.817 2.53094 -1.2 -9.91609 -1.83771e+06 -5.36258e+06 -1.43197e+06 -772149 660810 -1.38515e+06
225 1 Mg 2.46172 132.192 0.0896274 1.2 -7.383 -2.4519e+06 5.66829e+06 -1.78223e+06 -1.60815e+06 -2.31875e+06 -1.07716e+06
226 1 Mg 7.20033 135.253 1.60437 1.2 -7.90452 1.96357e+06 2.03731e+06 1.64835e+06 902009 1935.52 454365
227 2 Si 4.4879 133.222 1.44151 2.4 -32.1511 2.95255e+06 1.33804e+07 6.12982e+06 -103908 785962 486224
228 3 O 6.01448 133.253 1.51474 -1.2 -10.0114 -1.93201e+06 -4.05529e+06 -2.82124e+06 -876905 456356 -237690
229 3 O 3.5375 137.156 1.56073 -1.2 -9.67775 -2.73476e+06 -6.17516e+06 -2.9686e+06 -793112 -538823 -810733
230 3 O 3.80888 133.826 0.119264 -1.2 -9.30333 -1.65976e+06 -4.41981e+06 -1.33566e+06 39061.4 -34055.2 -156474
231 1 Mg 2.31878 142.855 3.19894 1.2 -7.90217 839883 4.0115e+06 -303453 -1.19624e+06 1.4781e+06 705048
232 3 O 3.76412 133.991 2.67852 -1.2 -9.79075 -2.40171e+06 -2.6802e+06 -1.11694e+06 -236543 -907728 -255324
233 1 Mg 2.3942 139.766 4.49333 1.2 -8.17535 2.22829e+06 1.33061e+06 1.37413e+06 1.24832e+06 884978 -515882
234 2 Si 5.20432 141.694 4.67747 2.4 -33.712 6.80278e+06 1.09671e+07 5.59916e+06 -521437 309848 73992.2
235 3 O 3.6304 141.837 4.67926 -1.2 -8.87679 -1.92823e+06 -3.76919e+06 -2.44356e+06 -2.58102e+06 825578 756855
236 3 O 6.01465 138.065 4.52994 -1.2 -8.93743 -2.36305e+06 -5.79954e+06 -2.99313e+06 -2.41627e+06 -824416 744870
237 3 O 5.83985 141.151 3.3125 -1.2 -9.16799 -3.53987e+06 -4.26388e+06 -1.05435e+06 145358 -346823 -847867
238 3 O 5.92234 141.14 5.90946 -1.2 -9.16061 -3.88731e+06 -4.18677e+06 -1.30984e+06 844968 -464673 1.58869e+06
239 1 Mg 4.73924 137.593 3.10234 1.2 -7.88684 -3.39006e+06 3.90959e+06 -1.37449e+06 1.39943e+06 -2.6799e+06 1.46912e+06
240 1 Mg 4.8724 134.583 4.37011 1.2 -7.82474 153785 1.15852e+06 2.8154e+06 -630954 38567.6 42184.8
241 2 Si 6.85725 136.529 4.50319 2.4 -32.6982 8.05124e+06 1.01335e+07 4.16282e+06 -1.62647e+06 930983 -325174
242 3 O 3.69088 136.611 4.52387 -1.2 -9.47067 -2.12523e+06 -3.97449e+06 -2.52777e+06 -920304 877552 1.14504e+06
243 3 O 5.83765 132.9 4.35895 -1.2 -9.6658 -1.12626e+06 -6.20435e+06 -4.94942e+06 703346 56451.1 1.13109e+06
244 3 O 6.1508 135.961 3.23362 -1.2 -9.54277 -2.07976e+06 -4.63732e+06 -3.32647e+06 711456 713245 -1.6855e+06
245 1 Mg 4.90149 137.591 0.0322 1.2 -7.62947 -1.91254e+06 5.543e+06 -2.4209e+06 103066 971647 -917600
246 3 O 6.23261 135.957 5.75429 -1.2 -9.09872 -3.85048e+06 -5.06848e+06 -4.1922e+06 35434.4 -260837 3.12049e+06
247 1 Mg 4.82654 140.636 1.6087 1.2 -8.22502 2.23043e+06 2.60827e+06 1.32942e+06 -1.29092e+06 -101014 -59646.9
248 2 Si 2.88976 138.575 1.62976 2.4 -32.4957 8.58152e+06 1.04851e+07 6.55087e+06 345530 -179536 308906
249 3 O 6.0275 138.615 1.59844 -1.2 -9.36068 586798 -3.64753e+06 -2.44893e+06 224662 392553 -101381
250 3 O 3.80404 142.454 1.76842 -1.2 -8.90308 -1.86197e+06 -5.53598e+06 -2.65267e+06 773773 -459003 832502
251 3 O 3.58901 139.328 0.323602 -1.2 -9.32626 -2.20448e+06 -3.33022e+06 864962 752735 -1.28183e+06 236288
252 3 O 3.56203 139.182 2.99926 -1.2 -9.28072 -3.61164e+06 -4.67291e+06 -868282 1.31917e+06 880060 -500038
253 1 Mg 2.42161 142.953 0.119793 1.2 -7.96139 -1.15843e+06 3.71307e+06 -1.31595e+06 -1.5523e+06 -2.30686e+06 -2.16628e+06
254 1 Mg 7.09232 145.889 2.00635 1.2 -8.36479 2.70539e+06 1.71078e+06 2.28421e+06 533044 299563 -500539
255 2 Si 4.48368 143.92 1.70208 2.4 -34.3208 6.54909e+06 1.0169e+07 6.71858e+06 603858 -33823.3 -1.82254e+06
256 3 O 6.04391 143.921 1.69162 -1.2 -9.17911 -3.94611e+06 -2.94487e+06 -2.52765e+06 252582 191879 1.1424e+06
257 3 O 3.38313 147.746 1.94472 -1.2 -9.29105 -2.61054e+06 -1.76285e+06 -3.22724e+06 -2.47725e+06 -640086 109496
258 3 O 3.8588 144.539 0.407523 -1.2 -8.53393 -3.82778e+06 -3.5903e+06 -3.97683e+06 47652.3 422569 1.539e+06
259 1 Mg 1.44799 153.048 2.19881 1.2 -7.12483 -2.2471e+06 -315071 -109923 117395 739164 -471595
260 3 O 3.80707 144.657 2.91109 -1.2 -8.75617 -2.5078e+06 -3.57249e+06 -3.01418e+06 -205376 -889039 -60555.8
261 1 Mg 1.65575 151.431 5.4173 1.2 -7.78662 -3.88189e+06 4.9323e+06 -482091 59998.6 -463066 317618
262 2 Si 3.83389 151.356 3.56095 2.4 -32.8511 7.07531e+06 9.02035e+06 4.92022e+06 -1.91627e+06 -1.392e+06 -1.91741e+06
263 3 O 2.55512 152.309 3.66306 -1.2 -8.91769 -3.8872e+06 -3.64034e+06 -2.41957e+06 -194474 511464 -1.07334e+06
264 3 O 5.85885 148.641 5.01963 -1.2 -8.19029 -2.48538e+06 -3.49005e+06 -887282 -2.7447e+06 -448229 -126730
265 3 O 4.66772 151.947 2.33307 -1.2 -9.36779 -4.51388e+06 -3.51166e+06 -3.10842e+06 619819 197661 -1.55694e+06
266 3 O 4.62939 151.535 4.88521 -1.2 -9.40995 -5.62633e+06 -4.74598e+06 -3.07428e+06 -473550 -702411 1.11076e+06
267 1 Mg 4.66318 148.04 3.44152 1.2 -7.88847 -2.10134e+06 2.49225e+06 441511 1.26933e+06 -1.13607e+06 1.66703e+06
268 1 Mg 4.71071 145.258 4.8602 1.2 -8.23849 925135 2.58664e+06 2.08263e+06 -1.04037e+06 612505 1.20107e+06
269 2 Si 6.70715 147.138 4.90232 2.4 -33.663 4.42838e+06 1.23237e+07 6.00755e+06 -1.3021e+06 -2.09165e+06 543440
270 3 O 3.40223 147.431 4.85223 -1.2 -9.30179 -7.29184e+06 -3.62177e+06 -2.48558e+06 -68652.2 49150.3 365870
271 3 O 5.68078 143.279 4.66079 -1.2 -8.8184 -3.45558e+06 -3.76761e+06 -2.35429e+06 58221.2 -186239 448108