ITEM: TIMESTEP
13400
ITEM: NUMBER OF ATOMS
5600
ITEM: BOX BOUNDS xy xz yz pp pp pp
0.0000000000000000e+00 7.1234999999999999e+00 0.0000000000000000e+00
0.0000000000000000e+00 2.0198500000000001e+02 2.3744999999999998e+00
0.0000000000000000e+00 1.1958400000000000e+02 0.0000000000000000e+00
ITEM: ATOMS id type element xu yu zu q c_pe c_s[1] c_s[2] c_s[3] c_s[4] c_s[5] c_s[6]
1 1 Mg -1.52783 49.3551 -1.08539 1.2 -7.33803 178432 -331971 2.46855e+06 244670 -67409.6 55521.9
2 1 Mg 2.98148 51.0211 2.24695 1.2 -7.53985 -3.44541e+06 3.2556e+06 60803.6 287920 -435040 -297640
3 2 Si 0.929222 51.0353 0.270778 2.4 -33.2387 8.52206e+06 7.58679e+06 6.0094e+06 -1.17705e+06 789382 1.96711e+06
4 3 O 2.27321 50.2525 0.535836 -1.2 -8.85677 -4.15905e+06 -2.92505e+06 -3.76688e+06 -650637 -1.97153e+06 2.12408e+06
5 3 O -1.28055 53.8156 1.62543 -1.2 -9.00223 -2.33945e+06 -5.60854e+06 -2.93654e+06 -1.31095e+06 -103493 76338.1
6 3 O 0.219036 50.2626 -0.955879 -1.2 -8.96235 -4.4567e+06 -1.39403e+06 -2.66849e+06 1.39725e+06 431843 371458
7 1 Mg -2.39278 59.5005 3.03971 1.2 -7.60135 -1.3011e+06 3.88958e+06 205257 -1.31035e+06 1.58623e+06 1.37742e+06
8 3 O 0.0312059 51.0163 1.54551 -1.2 -9.53828 -4.93904e+06 -3.39012e+06 -3.42913e+06 -840583 -1.20731e+06 -1.13873e+06
9 1 Mg -2.28982 56.5483 4.51691 1.2 -7.82339 1.14904e+06 2.34957e+06 1.56377e+06 825067 -214869 467694
10 2 Si 0.347682 58.5766 4.62807 2.4 -32.9996 4.21314e+06 9.61457e+06 7.56979e+06 448048 262498 467356
11 3 O -1.17441 58.6487 4.62353 -1.2 -9.62305 -3.63101e+06 -3.77441e+06 -4.11783e+06 -146032 383602 -186813
12 3 O 1.58716 54.3536 4.66119 -1.2 -9.36145 -3.49581e+06 -2.7331e+06 -1.29937e+06 -1.22292e+06 92468.5 366710
13 3 O 1.03488 57.862 3.37667 -1.2 -9.39602 -3.13604e+06 -2.55238e+06 -3.35078e+06 -207010 -793069 -1.19947e+06
14 3 O 1.02743 57.9133 5.87796 -1.2 -9.30055 -2.62267e+06 -2.75601e+06 -3.82308e+06 57153.9 160058 998971
15 1 Mg 0.250095 53.5679 2.8907 1.2 -7.54995 216657 3.3024e+06 1.46683e+06 398742 -537766 546984
16 1 Mg 0.719272 50.0204 3.08566 1.2 -7.04034 -219377 1.83182e+06 -1.07878e+06 -248319 -70691.4 1.18779e+06
17 2 Si 2.37848 52.9763 4.63156 2.4 -33.2149 6.87177e+06 8.00141e+06 7.51609e+06 -330782 355699 -168288
18 3 O -0.847626 53.2197 4.56861 -1.2 -9.35583 -4.13274e+06 -3.53868e+06 -1.99989e+06 139122 -310005 992264
19 3 O 2.51711 49.3269 3.21054 -1.2 -7.81241 1.67048e+06 -765704 -2.25962e+06 174045 107728 -623139
20 3 O 1.82314 52.1515 3.36765 -1.2 -9.35266 -2.12379e+06 -3.07451e+06 -4.5103e+06 -944959 1.17434e+06 184749
21 1 Mg 0.0136146 54.319 0.0573093 1.2 -7.73118 -1.13121e+06 2.94415e+06 340151 1.70603e+06 1.70595e+06 -841959
22 3 O 1.9096 52.0638 5.85 -1.2 -10.387 -3.39142e+06 -3.51497e+06 -5.45126e+06 1.23678e+06 -33512.8 143099
23 1 Mg 0.0982297 57.1053 1.73372 1.2 -8.04538 1.33709e+06 1.3891e+06 2.67287e+06 -1.35596e+06 -528670 -328564
24 2 Si -1.90978 55.2708 1.59634 2.4 -33.3711 6.74468e+06 8.83117e+06 8.22907e+06 -59600.7 1.06675e+06 -512669
25 3 O 1.21135 55.134 1.57827 -1.2 -9.39048 -917181 -1.34605e+06 -2.68392e+06 940591 212023 -123038
26 3 O -0.973277 58.9814 1.66126 -1.2 -9.39305 -1.35411e+06 -5.4997e+06 -3.5143e+06 802267 189201 -3002.33
27 3 O -1.30898 55.8377 0.252103 -1.2 -9.21769 -2.96995e+06 -3.96917e+06 -2.33061e+06 465545 -153750 1.19626e+06
28 3 O -1.32864 56.048 2.83591 -1.2 -9.20896 -2.48116e+06 -3.8477e+06 -2.02836e+06 482185 208242 -613088
29 1 Mg -2.35379 59.469 0.0886603 1.2 -7.57513 -1.0079e+06 4.02839e+06 495701 -1.27195e+06 -1.22999e+06 -1.63421e+06
30 1 Mg 2.27157 62.3331 1.64616 1.2 -8.33507 881218 429501 2.57882e+06 807519 188069 -429752
31 2 Si -0.356959 60.464 1.57266 2.4 -32.8025 4.8713e+06 9.23637e+06 7.92052e+06 51304.1 -13345.9 -930740
32 3 O 1.20047 60.5096 1.58013 -1.2 -9.74567 -2.22899e+06 -3.26324e+06 -4.04625e+06 -975146 -108306 136986
33 3 O -1.40005 64.144 1.55803 -1.2 -9.37734 -2.15831e+06 -2.46299e+06 -3.58389e+06 -880853 -250912 541868
34 3 O -1.07193 61.0364 0.260243 -1.2 -9.22882 -3.31741e+06 -3.50642e+06 -3.66452e+06 139341 1.3577e+06 886655
35 1 Mg -2.29206 69.712 3.16895 1.2 -8.0134 -319258 3.80654e+06 -37113.4 -960507 1.20974e+06 1.45853e+06
36 3 O -1.08542 61.1211 2.79773 -1.2 -9.35414 -3.45338e+06 -4.57556e+06 -4.34988e+06 -39782.7 -672705 -1.15116e+06
37 1 Mg -2.27939 67.0115 4.50033 1.2 -8.3114 1.84842e+06 721775 2.24824e+06 1.10226e+06 -14089.5 -781956
38 2 Si 0.376827 68.8117 4.69295 2.4 -33.2166 5.06183e+06 1.16231e+07 6.96086e+06 514401 -236248 -1.70932e+06
39 3 O -1.19666 68.8768 4.66405 -1.2 -9.65464 -2.20689e+06 -4.62265e+06 -3.13658e+06 -176490 211432 1.26125e+06
40 3 O 1.38775 65.1239 4.52391 -1.2 -9.14629 -2.4582e+06 -3.99374e+06 -3.28101e+06 -190072 -164597 -597786
41 3 O 1.05886 68.155 3.39408 -1.2 -9.12044 -2.63849e+06 -4.47104e+06 -2.80639e+06 -428418 -1.02344e+06 127167
42 3 O 1.08397 68.1427 5.90768 -1.2 -9.17756 -2.81125e+06 -4.79517e+06 -3.26523e+06 -120073 531740 2.00392e+06
43 1 Mg -0.014826 64.7419 3.04219 1.2 -7.51181 -770599 3.6695e+06 92755.5 1.32859e+06 -1.60886e+06 1.76942e+06
44 1 Mg -0.143295 61.8233 4.42345 1.2 -8.20231 1.70149e+06 142480 2.19119e+06 -936077 20619.5 -425400
45 2 Si 2.00904 63.6228 4.57379 2.4 -33.1336 4.3253e+06 1.10352e+07 8.38535e+06 248573 -193988 -940124
46 3 O -1.18591 63.7452 4.51917 -1.2 -9.69233 -2.42911e+06 -4.12749e+06 -4.03075e+06 787267 -813740 9905.92
47 3 O 1.02272 60.063 4.60597 -1.2 -9.21785 -2.17367e+06 -4.72778e+06 -2.87375e+06 453557 -5757.78 -182773
48 3 O 1.35823 62.9532 3.29521 -1.2 -9.23834 -2.58037e+06 -3.96739e+06 -3.83099e+06 9997.55 950615 -759729
49 1 Mg 0.066061 64.5852 0.106543 1.2 -7.80282 -241612 3.8815e+06 -5719.93 1.2091e+06 1.54708e+06 -1.45519e+06
50 3 O 1.31583 62.9556 5.85268 -1.2 -9.10639 -2.80876e+06 -4.265e+06 -2.48626e+06 291172 -652353 742841
51 1 Mg 0.100889 67.5515 1.58917 1.2 -8.19601 955185 183967 2.72266e+06 -685699 277643 648081
52 2 Si -1.97302 65.689 1.58701 2.4 -32.611 5.42929e+06 1.06674e+07 9.22391e+06 360699 -1.00339e+06 27743.2
53 3 O 1.18531 65.637 1.59998 -1.2 -9.70474 -112956 -3.3594e+06 -4.25387e+06 1.22552e+06 148072 -1350.28
54 3 O -0.936272 69.2493 1.61303 -1.2 -9.14778 -3.11182e+06 -5.13304e+06 -2.91894e+06 1.54183e+06 -180867 133686
55 3 O -1.31689 66.2735 0.183986 -1.2 -9.15509 -2.84196e+06 -2.90812e+06 -371828 -214668 -1.11615e+06 -417958
56 3 O -1.28028 66.3912 2.80254 -1.2 -9.64297 -3.42755e+06 -3.41684e+06 -2.56408e+06 -236616 457994 -177182
57 1 Mg -2.42949 69.7872 0.0694541 1.2 -7.86318 -1.83437e+06 3.63418e+06 14457.2 -736018 -1.14453e+06 -1.92771e+06
58 1 Mg 2.34468 72.6456 1.6295 1.2 -8.50272 1.50748e+06 1.05374e+06 2.91348e+06 720115 255444 -841672
59 2 Si -0.327636 70.7523 1.56874 2.4 -33.3077 8.33608e+06 9.40755e+06 8.0034e+06 -85117.9 -246538 -74124
60 3 O 1.29075 70.6342 1.61093 -1.2 -9.30639 -828275 -3.26256e+06 -3.43939e+06 -1.04522e+06 474896 155536
61 3 O -1.37039 74.4677 1.63909 -1.2 -9.24277 -3.06757e+06 -5.81182e+06 -2.30195e+06 -987625 18199.4 633652
62 3 O -1.02164 71.3948 0.344659 -1.2 -9.22979 -3.61934e+06 -3.96847e+06 -4.28138e+06 -153322 1.08422e+06 1.32006e+06
63 1 Mg -2.29607 80.2586 3.23697 1.2 -7.46713 -2.10633e+06 4.63201e+06 -845097 -571955 999734 1.75801e+06
64 3 O -1.0139 71.4084 2.90166 -1.2 -8.82977 -3.12002e+06 -2.65181e+06 -1.19982e+06 -127847 -1.14172e+06 68081.4
65 1 Mg -2.39823 77.3178 4.56858 1.2 -8.0459 840577 397654 2.93298e+06 765741 15419 -442241
66 2 Si 0.33604 79.1758 4.59095 2.4 -32.4302 3.8303e+06 1.23641e+07 5.9684e+06 440440 -518930 -69392.9
67 3 O -1.20906 79.2722 4.6343 -1.2 -10.066 -2.5891e+06 -4.6874e+06 -3.49945e+06 -477859 -384296 365122
68 3 O 1.45416 75.512 4.59246 -1.2 -9.5631 -1.61737e+06 -5.21988e+06 -3.47176e+06 -1.46474e+06 18413.1 1.41736e+06
69 3 O 1.06087 78.4543 3.38344 -1.2 -9.42066 -1.96982e+06 -3.42115e+06 -4.2895e+06 -17839 -515643 -129292
70 3 O 1.05259 78.5322 5.82614 -1.2 -9.48461 -2.64245e+06 -4.81254e+06 -3.61689e+06 -65433 1.02673e+06 1.29757e+06
71 1 Mg 0.0321204 74.9688 3.10319 1.2 -7.64407 -1.13114e+06 4.5585e+06 -436995 455026 -939953 956171
72 1 Mg 0.00650406 72.1488 4.63871 1.2 -8.49883 2.50494e+06 864612 3.10492e+06 -593574 91962.4 416754
73 2 Si 2.13591 74.0615 4.64863 2.4 -32.9012 5.87829e+06 1.06989e+07 1.01034e+07 -19974.5 192856 -40245.5
74 3 O -1.04711 74.0744 4.66572 -1.2 -9.80557 -1.66515e+06 -3.43682e+06 -3.71566e+06 125609 -114486 387752
75 3 O 1.04988 70.3016 4.68797 -1.2 -8.9836 -2.4012e+06 -4.31044e+06 -2.55828e+06 875708 -20036.1 316177
76 3 O 1.4274 73.2731 3.30244 -1.2 -8.94977 -1.98794e+06 -2.48148e+06 -274970 871851 1.78615e+06 1.18606e+06
77 1 Mg -0.0473292 74.9615 0.0895413 1.2 -7.69478 -501667 4.44632e+06 18194.2 736723 1.43821e+06 -1.53308e+06
78 3 O 1.45364 73.4476 5.96868 -1.2 -8.91592 -2.88226e+06 -3.11677e+06 -766210 220435 -594881 417617
79 1 Mg -0.0436453 77.8478 1.74139 1.2 -8.18138 2.35521e+06 898594 1.48891e+06 -1.06764e+06 31972.7 -530533
80 2 Si -2.0603 75.9183 1.60157 2.4 -33.2503 4.30403e+06 1.1799e+07 5.75363e+06 -203529 -62963.3 -1.18084e+06
81 3 O 1.16233 75.8345 1.66181 -1.2 -9.54847 -3.35746e+06 -4.99028e+06 -2.67147e+06 148657 69226.7 896448
82 3 O -0.995666 79.6935 1.67316 -1.2 -9.41441 -1.96419e+06 -5.07692e+06 -2.33306e+06 1.73754e+06 20696.1 318825
83 3 O -1.3977 76.5852 0.315877 -1.2 -9.18126 -2.87193e+06 -4.43788e+06 -2.84764e+06 494948 -770452 1.17782e+06
84 3 O -1.36093 76.6594 2.81345 -1.2 -9.25439 -3.19821e+06 -3.94198e+06 -3.13672e+06 223558 645422 -139588
85 1 Mg -2.37595 80.2325 0.277593 1.2 -7.89642 -1.62237e+06 4.99525e+06 -940355 -280723 -977701 -1.92607e+06
86 1 Mg 2.4712 83.081 1.76823 1.2 -8.10742 1.74232e+06 1.07763e+06 2.56231e+06 622047 -63960.8 117773
87 2 Si -0.228133 81.1693 1.69648 2.4 -32.6386 5.40941e+06 1.20257e+07 6.96087e+06 599208 253005 253148
88 3 O 1.3183 81.1007 1.71482 -1.2 -9.89129 -2.66252e+06 -4.42721e+06 -3.80025e+06 532860 467913 -132911
89 3 O -1.28939 84.8708 1.88954 -1.2 -9.47814 -2.26781e+06 -6.05433e+06 -2.58189e+06 -636289 -616770 -305946
90 3 O -0.935061 81.8849 0.466163 -1.2 -9.09458 -2.7037e+06 -4.48248e+06 -3.29854e+06 -470678 1.18257e+06 739365
91 1 Mg -2.26239 90.5144 3.22252 1.2 -7.88356 -1.1995e+06 4.18953e+06 -1.33747e+06 -1.16359e+06 1.19936e+06 2.23441e+06
92 3 O -0.964594 81.8687 2.95674 -1.2 -9.37557 -2.6377e+06 -3.65074e+06 -3.20669e+06 -760119 -1.67345e+06 22832.2
93 1 Mg -2.39895 87.6916 4.80586 1.2 -8.36997 1.56459e+06 775660 2.43822e+06 978329 -132313 -85719.1
94 2 Si 0.390685 89.5821 4.72789 2.4 -33.0246 6.83125e+06 1.08587e+07 6.77145e+06 33004.3 -190711 1.02965e+06
95 3 O -1.21288 89.6333 4.70015 -1.2 -9.45096 -1.10736e+06 -5.2704e+06 -3.83237e+06 -601427 185553 -671343
96 3 O 1.48407 85.8514 4.76805 -1.2 -9.23888 -3.46048e+06 -5.29058e+06 -3.07881e+06 -1.5827e+06 22492 1.02105e+06
97 3 O 1.08394 88.8897 3.45102 -1.2 -8.98035 -3.69184e+06 -3.76207e+06 -2.11358e+06 -278359 -1.14788e+06 -685162
98 3 O 1.11824 88.896 5.96804 -1.2 -9.43913 -3.11116e+06 -4.63782e+06 -3.69447e+06 -499456 1.27536e+06 650017
99 1 Mg 0.0907446 85.4068 3.28743 1.2 -7.7064 -1.37398e+06 4.42995e+06 -888515 645371 -1.68798e+06 1.57136e+06
100 1 Mg 0.0149556 82.6333 4.61496 1.2 -8.08588 383081 1.5678e+06 2.15465e+06 -1.18489e+06 -5473.05 219750
101 2 Si 2.12741 84.3407 4.73941 2.4 -32.8585 5.64994e+06 1.13889e+07 7.15973e+06 477815 -80095.7 -282938
102 3 O -1.06221 84.4651 4.76845 -1.2 -9.65067 -1.87933e+06 -4.52687e+06 -3.52918e+06 1.36286e+06 415243 428624
103 3 O 1.0047 80.7041 4.60644 -1.2 -9.41398 -1.64107e+06 -4.33752e+06 -2.44033e+06 1.31703e+06 219914 966915
104 3 O 1.36177 83.6659 3.52999 -1.2 -9.5197 -2.39964e+06 -4.60022e+06 -2.8921e+06 -166968 1.0089e+06 -544076
105 1 Mg 0.0887755 85.2867 0.26144 1.2 -7.73065 -266847 4.87922e+06 14490.9 1.00615e+06 1.23645e+06 -975150
106 3 O 1.41356 83.7521 6.05495 -1.2 -9.1406 -2.84765e+06 -4.85668e+06 -1.95345e+06 316734 -1.37427e+06 937069
107 1 Mg 0.124139 88.2059 1.76009 1.2 -8.50729 2.28593e+06 782720 1.76603e+06 -848467 112145 512684
108 2 Si -1.95958 86.3216 1.79168 2.4 -33.3346 5.09951e+06 1.10161e+07 7.91135e+06 -22579.8 222398 673562
109 3 O 1.23593 86.2782 1.81255 -1.2 -9.58105 -2.44303e+06 -4.22983e+06 -2.70806e+06 75277.8 311396 -47493.3
110 3 O -0.939728 89.9818 1.70433 -1.2 -9.10656 -2.23247e+06 -4.53802e+06 -2.82142e+06 1.22109e+06 177564 -139900
111 3 O -1.31779 86.941 0.46249 -1.2 -8.99105 -2.73979e+06 -3.42067e+06 -1.41155e+06 -37957.2 -528168 -51775.9
112 3 O -1.27903 87.0801 3.04238 -1.2 -8.86073 -2.59394e+06 -4.16174e+06 -1.50035e+06 199812 497525 -430358
113 1 Mg -2.38687 90.4698 0.259316 1.2 -7.71453 -942782 4.83497e+06 -776667 -800206 -1.82992e+06 -1.49226e+06
114 1 Mg 2.28684 93.3605 1.78757 1.2 -8.0851 1.71084e+06 1.54912e+06 2.12208e+06 537657 26072.6 156180
115 2 Si -0.288636 91.5117 1.75088 2.4 -32.9526 5.55849e+06 1.20424e+07 7.51558e+06 119442 779024 5131.95
116 3 O 1.28214 91.4492 1.82631 -1.2 -9.69156 -1.63087e+06 -4.19492e+06 -3.48789e+06 -445847 -31889 76190.4
117 3 O -1.35611 95.1585 1.76444 -1.2 -9.34039 -2.73723e+06 -4.58085e+06 -2.29698e+06 -603087 300884 520110
118 3 O -0.961077 92.1608 0.436469 -1.2 -9.18641 -2.55912e+06 -4.24305e+06 -2.28087e+06 -532583 1.51317e+06 917519
119 1 Mg -2.32344 100.868 3.14491 1.2 -7.61859 -2.1011e+06 3.82573e+06 -445689 -769105 1.46597e+06 2.49454e+06
120 3 O -0.993676 92.0981 3.03314 -1.2 -9.24674 -3.35552e+06 -4.74992e+06 -2.0832e+06 -437863 -717741 -755595
121 1 Mg -2.27235 98.0709 4.66112 1.2 -8.06299 1.17761e+06 1.01474e+06 3.38215e+06 1.10413e+06 -118091 169247
122 2 Si 0.384782 99.8415 4.64324 2.4 -32.6277 4.90537e+06 1.07427e+07 8.93502e+06 370564 90976.4 755245
123 3 O -1.17832 99.926 4.68043 -1.2 -9.88967 -1.38004e+06 -3.61503e+06 -3.53531e+06 -190540 -132330 -374636
124 3 O 1.33922 96.1791 4.81644 -1.2 -9.30204 -1.61511e+06 -4.2282e+06 -2.60362e+06 -746133 -46740.8 -419819
125 3 O 1.02643 99.1304 3.37869 -1.2 -9.3663 -2.63858e+06 -3.26559e+06 -2.69343e+06 -165864 -363880 -661941
126 3 O 1.06451 99.1999 5.96272 -1.2 -9.1833 -2.27731e+06 -3.58723e+06 -913952 -21157.3 761439 -46929.1
127 1 Mg -0.00540802 95.79 3.25912 1.2 -7.59643 -878638 4.43048e+06 210518 918587 -1.3465e+06 1.60701e+06
128 1 Mg 0.0120273 92.8441 4.75561 1.2 -8.13921 1.53977e+06 1.01871e+06 1.60209e+06 -988597 472709 692641
129 2 Si 2.05388 94.6716 4.7281 2.4 -32.9386 3.05693e+06 1.12323e+07 7.55377e+06 -1.06344e+06 -168828 873716
130 3 O -1.19078 94.7928 4.68292 -1.2 -9.7698 -3.52234e+06 -3.74762e+06 -3.29984e+06 222187 663689 -635168
131 3 O 0.999255 91.0419 4.75291 -1.2 -9.24925 -3.46036e+06 -6.06629e+06 -3.48097e+06 1.03153e+06 -375307 -232428
132 3 O 1.33873 94.033 3.48469 -1.2 -9.39466 -3.17856e+06 -3.89816e+06 -2.44622e+06 -66054 278025 -997725
133 1 Mg -0.0531483 95.5281 0.167903 1.2 -7.77355 -1.64154e+06 4.50484e+06 -272680 1.15603e+06 1.3548e+06 -1.70012e+06
134 3 O 1.41963 94.0339 6.05211 -1.2 -9.28819 -2.38686e+06 -5.1254e+06 -2.03095e+06 88787.6 -1.11976e+06 412009
135 1 Mg 0.0467612 98.5513 1.67329 1.2 -8.34346 1.9972e+06 942582 1.19983e+06 -989593 463214 861562
136 2 Si -2.03363 96.6366 1.66059 2.4 -33.0815 5.67935e+06 1.13411e+07 7.16805e+06 -54642 -282019 -504037
137 3 O 1.17528 96.5113 1.63808 -1.2 -9.5561 -2.2541e+06 -4.42427e+06 -2.15426e+06 359523 -354530 372107
138 3 O -1.02017 100.36 1.65149 -1.2 -9.04558 -3.18402e+06 -4.79718e+06 -2.90948e+06 1.32291e+06 429693 -499111
139 3 O -1.32936 97.2153 0.31871 -1.2 -8.96021 -2.94224e+06 -3.30662e+06 -1.30215e+06 180617 -752094 130936
140 3 O -1.37489 97.4177 2.88473 -1.2 -9.44084 -2.24162e+06 -3.81879e+06 -1.72795e+06 441941 561669 -793911
141 1 Mg -2.42302 100.868 0.145115 1.2 -7.69592 -1.09548e+06 4.28872e+06 -743179 -526839 -1.34547e+06 -1.42827e+06
142 1 Mg 7.07878 103.771 1.72617 1.2 -7.59516 848698 2.07609e+06 1.90766e+06 670430 -179382 2566.38
143 2 Si -0.290583 101.851 1.71719 2.4 -32.5536 4.30189e+06 1.15426e+07 6.38096e+06 -14318.5 1.00222e+06 680240
144 3 O 1.23148 101.655 1.73514 -1.2 -9.88802 -3.34129e+06 -4.48637e+06 -3.22193e+06 -309984 -438045 -443807
145 3 O 3.42056 105.589 1.69885 -1.2 -9.99821 -549869 -3.75649e+06 -2.26315e+06 -596734 -7623.46 -5797.47
146 3 O -0.986367 102.547 0.43969 -1.2 -9.42699 -1.0476e+06 -4.83299e+06 -2.61364e+06 -405633 1.44527e+06 798704
147 1 Mg 2.45808 111.293 3.13432 1.2 -7.73976 -775229 4.60579e+06 -404550 -1.0509e+06 1.33997e+06 1.53782e+06
148 3 O -1.01851 102.5 2.93511 -1.2 -9.67326 -2.20114e+06 -4.34222e+06 -4.05968e+06 -465206 -648576 -1.76514e+06
149 1 Mg 2.60306 108.338 4.79528 1.2 -7.99979 1.56605e+06 2.24016e+06 1.23321e+06 754651 -334455 -263599
150 2 Si 5.18074 110.33 4.67533 2.4 -33.0455 5.6287e+06 1.25679e+07 6.25744e+06 -886791 322992 -307138
151 3 O 3.61363 110.418 4.68992 -1.2 -9.57568 -1.56884e+06 -4.13608e+06 -2.75743e+06 -896719 108311 -178275
152 3 O 6.24279 106.508 4.70172 -1.2 -9.54553 -1.68019e+06 -4.93519e+06 -2.20101e+06 -883850 -344993 314849
153 3 O 5.84123 109.645 3.41725 -1.2 -9.38256 -2.3765e+06 -2.92723e+06 -1.93876e+06 51401.8 -543619 -3773.14
154 3 O 5.8642 109.625 5.95746 -1.2 -9.33984 -1.86699e+06 -3.49363e+06 -1.48446e+06 -338405 610703 689836
155 1 Mg 4.83496 106.146 3.2261 1.2 -7.18783 -1.53213e+06 4.77044e+06 -250187 1.22105e+06 -1.29755e+06 1.21281e+06
156 1 Mg -0.0383559 103.16 4.59421 1.2 -8.04918 1.00447e+06 1.29398e+06 1.17433e+06 -894995 248897 461677
157 2 Si 6.86196 105.016 4.70219 2.4 -32.6015 5.62596e+06 1.18437e+07 6.81733e+06 254745 96108.9 61705.1
158 3 O 3.69988 105.072 4.72344 -1.2 -9.83656 -964987 -4.34902e+06 -2.23938e+06 972880 640101 454845
159 3 O 1.09457 101.336 4.62068 -1.2 -9.49579 -1.69057e+06 -4.22471e+06 -3.40468e+06 1.31825e+06 565512 -594456
160 3 O 6.12423 104.338 3.44195 -1.2 -9.78124 -1.61842e+06 -3.68075e+06 -1.51804e+06 510101 1.17768e+06 -636753
161 1 Mg 4.84193 105.942 0.273493 1.2 -7.1124 -1.24955e+06 4.59602e+06 -488561 1.42859e+06 1.28541e+06 -1.32169e+06
162 3 O 6.2653 104.35 6.02595 -1.2 -9.14706 -3.17352e+06 -4.30146e+06 -1.72952e+06 -295567 -1.03544e+06 919099
163 1 Mg 4.86183 108.977 1.66085 1.2 -7.9597 911829 753212 2.63729e+06 -915470 190846 352451
164 2 Si 2.79276 107.118 1.73219 2.4 -31.9461 3.82817e+06 1.1366e+07 7.93037e+06 -155312 249778 431379
165 3 O 5.9726 107.043 1.69731 -1.2 -10.1935 -470049 -3.49124e+06 -3.18041e+06 728872 314067 76895.3
166 3 O 3.80164 110.748 1.66594 -1.2 -9.53164 -1.70575e+06 -3.32009e+06 -2.56514e+06 1.71136e+06 254334 -893691
167 3 O 3.44038 107.839 0.478496 -1.2 -9.76122 -2.54929e+06 -3.38487e+06 -1.5996e+06 -309851 -554119 356224
168 3 O 3.48352 107.733 3.05531 -1.2 -9.67833 -2.11611e+06 -3.78718e+06 -1.34085e+06 134820 1.09606e+06 76280.4
169 1 Mg 2.44714 111.188 0.158769 1.2 -7.39962 -941880 4.37515e+06 656090 -845671 -1.14371e+06 -1.21875e+06
170 1 Mg 7.20408 114.137 1.61244 1.2 -8.53739 2.54404e+06 43546.5 3.20862e+06 927000 -248420 61171.3
171 2 Si 4.51248 112.284 1.65497 2.4 -32.9582 5.0348e+06 1.1317e+07 9.43663e+06 512632 231880 -356145
172 3 O 6.03575 112.226 1.70605 -1.2 -9.69417 -2.41441e+06 -3.66932e+06 -3.50584e+06 -210942 199335 -160729
173 3 O 3.45674 115.973 1.69292 -1.2 -9.10745 -3.2724e+06 -3.47273e+06 -2.44909e+06 -1.20116e+06 -182369 -34806.3
174 3 O 3.76847 113.034 0.394517 -1.2 -9.15776 -2.63608e+06 -1.48611e+06 -1.83072e+06 -380791 1.04587e+06 -416214
175 1 Mg 2.45162 121.85 3.09848 1.2 -7.9997 -1.01617e+06 3.67142e+06 -54899.5 -1.32848e+06 1.48223e+06 1.42739e+06
176 3 O 3.80218 112.926 2.94382 -1.2 -8.87297 -3.93148e+06 -3.33546e+06 -2.32399e+06 -691423 -1.12253e+06 6840.29
177 1 Mg 2.42777 118.732 4.62275 1.2 -8.35442 2.23749e+06 827165 2.17883e+06 669879 -1447.89 -1.03834e+06
178 2 Si 5.15437 120.705 4.55727 2.4 -33.6922 5.85992e+06 1.04298e+07 8.04395e+06 786591 -424386 -633309
179 3 O 3.61712 120.793 4.549 -1.2 -9.23271 -2.91048e+06 -3.87924e+06 -3.65989e+06 431951 -189655 -11223.9
180 3 O 6.20152 116.96 4.66993 -1.2 -9.06542 -2.73484e+06 -5.16154e+06 -2.702e+06 -1.13374e+06 1291 162284
181 3 O 5.78999 120.103 3.21734 -1.2 -8.88736 -3.60499e+06 -2.42387e+06 -1.77043e+06 142982 -517534 247453
182 3 O 5.7345 119.923 5.80701 -1.2 -9.12401 -3.40285e+06 -3.17343e+06 -2.2284e+06 -356889 332481 852423
183 1 Mg 4.77782 116.554 3.16484 1.2 -7.90966 -873684 4.40958e+06 48578.1 584492 -1.40127e+06 1.516e+06
184 1 Mg 4.67957 113.629 4.68433 1.2 -8.83815 2.28008e+06 395942 3.00575e+06 -456893 -123067 -332578
185 2 Si 6.83053 115.459 4.6243 2.4 -33.9191 6.12906e+06 1.04323e+07 7.98538e+06 422367 124043 405920
186 3 O 3.62669 115.494 4.65397 -1.2 -9.36393 -3.7538e+06 -3.60859e+06 -3.67924e+06 754456 710222 -237703
187 3 O 5.77178 111.862 4.74894 -1.2 -9.01172 -3.02635e+06 -3.91215e+06 -1.96393e+06 570815 -235787 748707
188 3 O 6.07411 114.755 3.4134 -1.2 -8.59235 -2.90327e+06 -2.75001e+06 -3.46378e+06 45449 284269 -93553.4
189 1 Mg 4.72387 116.413 0.152915 1.2 -7.59375 -1.18986e+06 4.17586e+06 113924 883499 1.63448e+06 -2.2172e+06
190 3 O 6.14536 114.799 5.90101 -1.2 -8.57437 -3.21045e+06 -3.99818e+06 -3.59255e+06 62506.6 -814774 -38226
191 1 Mg 4.86382 119.316 1.54352 1.2 -8.26059 1.77755e+06 1.03442e+06 3.05523e+06 -779717 -153937 -64415.9
192 2 Si 2.72616 117.492 1.64637 2.4 -32.9145 5.15066e+06 1.17765e+07 6.86954e+06 129923 930324 -637130
193 3 O 5.93286 117.311 1.62589 -1.2 -9.71832 -2.26723e+06 -4.23799e+06 -2.76413e+06 92436.3 72030.1 597107
194 3 O 3.87816 121.24 1.51669 -1.2 -9.21493 -2.58937e+06 -5.23135e+06 -3.66629e+06 607008 -571468 614447
195 3 O 3.42148 118.196 0.448788 -1.2 -9.42088 -2.73984e+06 -3.08419e+06 -3.41496e+06 236389 -302293 1.34359e+06
196 3 O 3.39791 118.158 2.9479 -1.2 -9.11484 -1.72453e+06 -4.07998e+06 -2.89087e+06 280407 1.04592e+06 -124385
197 1 Mg 2.47928 121.654 0.0521048 1.2 -7.61897 -1.38855e+06 4.26697e+06 259502 -943279 -1.90801e+06 -1.76258e+06
198 1 Mg 7.21051 124.619 1.54944 1.2 -8.37579 1.59494e+06 128366 3.43154e+06 809487 -276029 -694855
199 2 Si 4.49983 122.672 1.58454 2.4 -33.1386 6.72075e+06 9.35349e+06 8.29215e+06 -188205 35779.9 -1.25075e+06
200 3 O 6.09794 122.679 1.59415 -1.2 -9.44939 -986446 -3.60608e+06 -3.75966e+06 -443505 -43845.4 1.28762e+06
201 3 O 3.41394 126.408 1.50522 -1.2 -9.31259 -2.7926e+06 -4.06194e+06 -3.62375e+06 -876816 -108524 498554
202 3 O 3.84016 123.443 0.364944 -1.2 -9.20192 -3.68199e+06 -3.38788e+06 -2.75878e+06 -104251 540475 1.81705e+06
203 1 Mg 2.48552 132.034 2.95682 1.2 -8.05351 -482819 3.92732e+06 426686 -792605 1.47645e+06 674838
204 3 O 3.82692 123.304 2.94699 -1.2 -9.09164 -3.82237e+06 -3.40435e+06 -2.8241e+06 -846886 -1.4676e+06 139239
205 1 Mg 2.50984 129.257 4.53282 1.2 -8.88019 3.01366e+06 248190 2.80572e+06 672992 116348 -594518
206 2 Si 5.11938 131.122 4.52635 2.4 -34.0911 6.54182e+06 1.03987e+07 7.51486e+06 419242 -544018 -974335
207 3 O 3.55754 131.095 4.50401 -1.2 -9.13804 -3.01447e+06 -3.41239e+06 -3.90991e+06 -7716.31 -193397 -14898.5
208 3 O 6.19981 127.408 4.51245 -1.2 -8.7656 -2.85917e+06 -3.76716e+06 -2.77387e+06 -735234 -483031 442257
209 3 O 5.81756 130.451 3.30281 -1.2 -8.67157 -4.01013e+06 -3.53367e+06 -3.9977e+06 -365686 -410004 -282888
210 3 O 5.76596 130.434 5.80848 -1.2 -8.68023 -4.20519e+06 -2.80739e+06 -3.93262e+06 -215693 922934 639657
211 1 Mg 4.82383 126.845 3.02457 1.2 -7.84627 -844346 3.92553e+06 481338 799100 -1.28969e+06 1.44167e+06
212 1 Mg 4.67225 123.982 4.55876 1.2 -8.49698 2.57377e+06 965141 1.5209e+06 -584460 -498627 -439361
213 2 Si 6.86949 125.916 4.54674 2.4 -33.7839 5.82164e+06 1.15062e+07 7.76756e+06 357334 83008.3 -738461
214 3 O 3.6769 126 4.57326 -1.2 -9.46218 -3.21136e+06 -3.91553e+06 -3.06836e+06 264205 34292.7 79638.2
215 3 O 5.87794 122.182 4.61615 -1.2 -8.97069 -2.98482e+06 -4.02628e+06 -3.23248e+06 787943 -93644.6 -509434
216 3 O 6.19667 125.194 3.31952 -1.2 -9.03635 -1.98897e+06 -3.66227e+06 -3.45538e+06 44746.8 429885 -415951
217 1 Mg 4.83654 126.886 0.0747144 1.2 -7.97093 414835 3.61614e+06 727636 792816 1.27712e+06 -1.54259e+06
218 3 O 6.18843 125.24 5.84366 -1.2 -8.6339 -2.98612e+06 -3.39314e+06 -2.51457e+06 -11381.9 -1.38789e+06 227425
219 1 Mg 4.81316 129.818 1.54258 1.2 -8.5402 2.26364e+06 -371270 3.66384e+06 -637193 -80436.4 -246723
220 2 Si 2.78422 127.899 1.60053 2.4 -33.4943 5.79989e+06 8.67471e+06 1.0698e+07 369195 -219092 229767
221 3 O 5.99162 127.785 1.59695 -1.2 -9.42167 -2.57035e+06 -2.5679e+06 -4.36777e+06 975330 684101 181447
222 3 O 3.83562 131.585 1.56797 -1.2 -9.11028 -3.64432e+06 -4.73848e+06 -3.86812e+06 1.3307e+06 104280 557251
223 3 O 3.45165 128.594 0.28732 -1.2 -8.7669 -3.10499e+06 -2.66604e+06 -2.32192e+06 363013 -937009 170651
224 3 O 3.51328 128.606 2.84626 -1.2 -8.91165 -3.44526e+06 -1.72983e+06 -3.30876e+06 -27696.9 723779 -6731.37
225 1 Mg 2.52311 132.007 0.0249629 1.2 -8.32258 -234507 4.09822e+06 -239189 -811140 -1.31544e+06 -1.39064e+06
226 1 Mg 7.2698 135.009 1.65979 1.2 -9.07013 2.21907e+06 -73329.9 2.2035e+06 1.47187e+06 626174 -368898
227 2 Si 4.52104 133.064 1.48021 2.4 -34.1528 7.65887e+06 9.16006e+06 8.48536e+06 -10020.6 -63279.8 -1.13055e+06
228 3 O 6.07363 132.988 1.47512 -1.2 -8.97527 -2.72202e+06 -3.12481e+06 -3.84811e+06 -369785 -296751 536138
229 3 O 3.56981 136.798 1.42319 -1.2 -8.32408 -4.59437e+06 -4.97209e+06 -4.7397e+06 -1.04867e+06 -248083 -678306
230 3 O 3.89812 133.679 0.14742 -1.2 -8.24378 -4.8677e+06 -3.1079e+06 -2.49925e+06 387296 705702 -189705
231 1 Mg 2.43856 142.493 2.97003 1.2 -8.75057 542160 4.37218e+06 -215183 -904127 1.36331e+06 1.39804e+06
232 3 O 3.81373 133.826 2.68433 -1.2 -8.89784 -4.00567e+06 -2.887e+06 -3.90362e+06 141717 -1.0299e+06 -192247
233 1 Mg 2.58806 139.646 4.48625 1.2 -9.59357 3.13233e+06 420100 2.82389e+06 719138 -478332 717098
234 2 Si 5.15166 141.517 4.38688 2.4 -34.8565 8.04841e+06 1.10228e+07 8.77739e+06 -87868.4 -497876 167512
235 3 O 3.6398 141.603 4.40413 -1.2 -8.75415 -4.76618e+06 -3.36569e+06 -4.11717e+06 -770406 -124462 475803
236 3 O 6.28883 137.786 4.41477 -1.2 -7.86385 -4.52873e+06 -2.9635e+06 -3.78032e+06 -637817 452897 -535637
237 3 O 5.8959 140.855 3.07352 -1.2 -8.02842 -4.01838e+06 -2.99343e+06 -2.46015e+06 -228086 -1.49478e+06 309347
238 3 O 5.86605 140.891 5.62992 -1.2 -8.16 -5.15361e+06 -3.04657e+06 -3.81956e+06 137069 628769 1.16516e+06
239 1 Mg 4.91141 137.288 2.85728 1.2 -8.74024 1.37505e+06 3.02606e+06 534282 1.00564e+06 -1.86603e+06 1.7494e+06
240 1 Mg 4.69828 134.444 4.39808 1.2 -8.69005 2.49512e+06 674611 3.33139e+06 -594772 -307761 -857771
241 2 Si 6.87561 136.261 4.48545 2.4 -34.8016 7.7776e+06 9.89097e+06 8.85686e+06 526775 -477517 -1.53102e+06
242 3 O 3.71061 136.387 4.42616 -1.2 -8.76074 -3.28741e+06 -3.17385e+06 -4.37157e+06 1.09787e+06 -1.24806e+06 204883
243 3 O 5.78209 132.624 4.50844 -1.2 -8.87025 -2.09317e+06 -3.88888e+06 -2.7016e+06 896751 63652.6 -389404
244 3 O 6.28805 135.663 3.16158 -1.2 -8.48174 -4.44203e+06 -4.16758e+06 -4.8018e+06 19260.3 998165 -1.70102e+06
245 1 Mg 4.94119 137.218 -0.0467966 1.2 -8.93762 1.15214e+06 3.8864e+06 -186442 1.03061e+06 1.78308e+06 -899133
246 3 O 6.13614 135.592 5.71279 -1.2 -8.53885 -3.48817e+06 -3.06975e+06 -3.85528e+06 -53821.1 -1.01467e+06 972609
247 1 Mg 4.94016 140.222 1.43194 1.2 -9.52209 3.72216e+06 -117771 2.53337e+06 -870607 -195044 -40330.6
248 2 Si 2.89591 138.243 1.42267 2.4 -35.626 8.93299e+06 8.38582e+06 1.05539e+07 143843 -153012 1.37689e+06
249 3 O 6.09102 138.242 1.39718 -1.2 -8.28899 -3.95468e+06 -2.93911e+06 -4.73844e+06 228124 -448117 -402371
250 3 O 3.92494 141.972 1.3649 -1.2 -8.2001 -4.85604e+06 -4.32241e+06 -2.87506e+06 1.23733e+06 -379205 763018
251 3 O 3.59023 138.923 0.159406 -1.2 -7.90644 -5.36197e+06 -2.88603e+06 -2.41987e+06 -80386.6 -302436 461193
252 3 O 3.51863 138.944 2.7584 -1.2 -7.80202 -4.98859e+06 -1.72027e+06 -2.23988e+06 8001.35 876030 359063
253 1 Mg 2.56268 142.324 -0.0785174 1.2 -8.70913 947593 3.75942e+06 351478 -912598 -1.5406e+06 -1.53087e+06
254 1 Mg 7.26009 145.343 1.27556 1.2 -9.1898 3.00401e+06 410672 2.57687e+06 1.0026e+06 -557061 273388
255 2 Si 4.54521 143.486 1.40184 2.4 -35.0559 9.58339e+06 1.02101e+07 8.04896e+06 131098 19409.6 1.29884e+06
256 3 O 6.11306 143.387 1.39927 -1.2 -8.50371 -3.02135e+06 -3.69327e+06 -3.23327e+06 -1.04731e+06 173965 -252062
257 3 O 3.55151 147.139 1.24864 -1.2 -8.6523 -4.5253e+06 -3.23136e+06 -3.06273e+06 -1.83951e+06 -535064 -387744
258 3 O 3.84788 144.105 0.122867 -1.2 -8.48811 -4.31034e+06 -3.8636e+06 -3.16581e+06 324965 583119 1.34033e+06
259 1 Mg 1.64388 152.505 1.69274 1.2 -8.1139 -350229 -1.66488e+06 3.2824e+06 441783 280224 -674723
260 3 O 3.86927 144.181 2.69604 -1.2 -8.08741 -5.07255e+06 -2.60495e+06 -1.51442e+06 -277523 -1.33203e+06 -151386
261 1 Mg 1.89015 150.323 4.70675 1.2 -9.0782 1.75679e+06 4.5151e+06 308171 -190042 1.05472e+06 621795
262 2 Si 3.96304 150.802 2.86334 2.4 -34.8852 1.06857e+07 6.84888e+06 7.12016e+06 -830451 -1.08894e+06 -569709
263 3 O 2.5931 151.542 3.15082 -1.2 -7.80982 -6.83077e+06 -1.48681e+06 -4.21623e+06 38917.5 -158205 -1.15131e+06
264 3 O 6.19366 148.247 4.27482 -1.2 -8.27408 -4.70582e+06 -4.81162e+06 -2.4933e+06 -827730 216094 708482
265 3 O 4.73475 151.51 1.69451 -1.2 -8.55054 -5.51136e+06 -417868 -7.22355e+06 667422 -90803.3 30405.4
266 3 O 4.76411 150.921 4.18021 -1.2 -7.79253 -7.66392e+06 -4.38197e+06 -4.42522e+06 -1.05328e+06 679858 1.43284e+06
267 1 Mg 4.82558 147.707 2.74165 1.2 -8.70681 -637836 3.03784e+06 -411855 1.10354e+06 -1.47556e+06 1.72335e+06
268 1 Mg 4.70197 144.878 4.42398 1.2 -9.33823 3.24247e+06 903204 2.24632e+06 -867854 82943 121056
269 2 Si 6.83046 146.775 4.27895 2.4 -35.1538 9.23814e+06 1.11552e+07 7.06903e+06 702554 78492.7 832623
270 3 O 3.65408 146.825 4.2865 -1.2 -8.58126 -3.41948e+06 -4.17535e+06 -2.70761e+06 711246 -76615.8 -268488
271 3 O 5.84986 143.095 4.36872 -1.2 -8.1794 -3.62552e+06 -2.58769e+06 -3.5982e+06 1.62633e+06 -230551 967944
272 3 O 6.17487 146.038 2.9966 -1.2 -7.95252 -4.02219e+06 -3.34737e+06 -1.56818e+06 266598 339986 198661
273 1 Mg 4.86542 147.627 -0.27673 1.2 -8.13674 -221320 3.97152e+06 307985 161639 541493 -2.58351e+06
274 3 O 6.11787 146.143 5.54731 -1.2 -8.33392 -3.76896e+06 -4.17872e+06 -3.26144e+06 436193 -449673 470497