ITEM: TIMESTEP
88700
ITEM: NUMBER OF ATOMS
5600
ITEM: BOX BOUNDS xy xz yz pp pp pp
0.0000000000000000e+00 7.1234999999999999e+00 0.0000000000000000e+00
0.0000000000000000e+00 2.0198500000000001e+02 2.3744999999999998e+00
0.0000000000000000e+00 1.1958400000000000e+02 0.0000000000000000e+00
ITEM: ATOMS id type element xu yu zu q c_pe c_s[1] c_s[2] c_s[3] c_s[4] c_s[5] c_s[6]
1 1 Mg -1.75771 47.2071 -0.797054 1.2 -7.27759 -2.7048e+06 1.0209e+06 794064 630058 1.79245e+06 -200690
2 1 Mg 2.57626 49.538 2.58397 1.2 -8.30765 3.02009e+06 2.24843e+06 -2.4045e+06 -897604 -20130.6 -772636
3 2 Si 0.791356 48.434 0.632006 2.4 -33.6999 8.69828e+06 1.0465e+07 5.85364e+06 -3.16914e+06 -367857 -32238.8
4 3 O 1.98037 47.3503 0.729737 -1.2 -8.08555 -3.16371e+06 -3.57298e+06 -3.11908e+06 -870864 -883608 739968
5 3 O -1.46828 51.4338 1.99855 -1.2 -8.98816 -5.45189e+06 -6.01565e+06 -661734 143494 -988228 -35389.8
6 3 O -0.0257384 48.0222 -0.629018 -1.2 -9.48692 -3.4888e+06 -4.65402e+06 -1.48365e+06 225191 -74467.5 2.06785e+06
7 1 Mg -2.66728 57.5816 3.29296 1.2 -6.65918 -1.27683e+06 5.38906e+06 -2.68393e+06 140700 1.1028e+06 -437964
8 3 O -0.088711 48.6783 1.98715 -1.2 -8.32623 -2.02364e+06 -5.30066e+06 -582011 -2.20143e+06 -1.22604e+06 -291075
9 1 Mg -2.6613 54.4004 4.91237 1.2 -8.04904 2.98144e+06 1.70411e+06 963689 50371.9 -122020 49675.9
10 2 Si 0.0495813 56.4375 4.77629 2.4 -32.0559 4.67598e+06 1.61285e+07 2.60983e+06 -31539.7 1.09263e+06 -3.76153e+06
11 3 O -1.52071 56.5646 4.93622 -1.2 -10.011 -496658 -5.42659e+06 -362148 -217670 763067 690509
12 3 O 0.974754 52.3332 5.1983 -1.2 -8.44697 -1.61456e+06 -4.00835e+06 -442943 -3.01803e+06 -1.24932e+06 -2.51012e+06
13 3 O 0.648883 55.4761 3.78794 -1.2 -9.53977 -1.84735e+06 -4.72297e+06 -5.43667e+06 -1.27891e+06 -499248 -769503
14 3 O 0.789306 55.792 6.08768 -1.2 -8.81082 -3.1267e+06 -2.41225e+06 -2.61279e+06 -53551.6 910789 -2.05894e+06
15 1 Mg -0.13218 52.0878 3.46831 1.2 -8.2101 -2.81237e+06 4.82198e+06 -320548 737904 -1.80283e+06 2.14383e+06
16 1 Mg 0.437353 48.3132 3.78102 1.2 -8.1033 3.18996e+06 2.47896e+06 -566243 -430905 -69315.2 221565
17 2 Si 1.97167 50.8622 4.94805 2.4 -33.2175 1.02718e+07 1.15788e+07 3.2183e+06 -2.84179e+06 1.09084e+06 1.37648e+06
18 3 O -1.2721 51.0156 4.98533 -1.2 -9.20246 -5.20493e+06 -4.98554e+06 677967 -1.19777e+06 915301 -422292
19 3 O 2.47451 48.1514 3.8623 -1.2 -7.21698 -215381 -1.83566e+06 -1.1284e+06 792168 934369 -940068
20 3 O 1.19813 50.4438 3.66258 -1.2 -8.43714 -4.65828e+06 -7.44621e+06 -5.22068e+06 1.95767e+06 1.00609e+06 -1.24827e+06
21 1 Mg 0.0350142 52.0954 0.356769 1.2 -7.27235 439225 4.07354e+06 1.19676e+06 531260 385891 -2.07303e+06
22 3 O 1.35707 49.9112 6.1988 -1.2 -9.72423 -4.98522e+06 -8.22069e+06 -2.96237e+06 1.7137e+06 -3.63942e+06 -273778
23 1 Mg -0.376696 55.2268 1.94126 1.2 -7.15746 -809957 2.06746e+06 1.5666e+06 -288688 535666 -492086
24 2 Si -2.12099 52.8976 2.06319 2.4 -32.3714 4.4316e+06 1.16822e+07 6.04909e+06 618145 -793090 -738033
25 3 O 1.10636 52.683 2.00223 -1.2 -9.55133 -2.97788e+06 -6.9099e+06 -1.0455e+06 1.20816e+06 1.25161e+06 1.8752e+06
26 3 O -0.92018 57.1008 1.92854 -1.2 -9.6068 152557 -5.01351e+06 -805637 2.31422e+06 -653933 -1.57552e+06
27 3 O -1.5478 53.6531 0.670758 -1.2 -9.58226 -2.23896e+06 -3.16179e+06 -1.06212e+06 -576668 -1.36092e+06 1.42823e+06
28 3 O -1.4729 53.6261 3.30209 -1.2 -9.84749 -2.18075e+06 -3.12554e+06 -720273 -157472 -970560 -961923
29 1 Mg -2.3736 57.3961 0.499041 1.2 -6.81952 -2.21094e+06 4.05257e+06 -2.3395e+06 474366 857029 -1.76952e+06
30 1 Mg 2.16235 60.4837 1.99593 1.2 -7.85117 -524748 2.83435e+06 97523.4 1.19357e+06 -783576 1.0874e+06
31 2 Si -0.273073 58.7922 1.62352 2.4 -31.5811 4.58459e+06 1.32042e+07 7.06727e+06 -717922 -1.28625e+06 -385421
32 3 O 1.2301 58.4413 1.67033 -1.2 -10.4424 -3.72456e+06 -4.49736e+06 -4.01099e+06 -3.17108e+06 1.01089e+06 317845
33 3 O -1.21883 62.2806 2.16265 -1.2 -8.50519 -42217.9 -2.45187e+06 -2.18193e+06 -767529 562092 1.57581e+06
34 3 O -1.08803 59.2166 0.347449 -1.2 -9.65815 -2.44022e+06 -4.63438e+06 -4.81067e+06 898930 2.76589e+06 128190
35 1 Mg -2.37887 67.9162 3.38955 1.2 -7.42376 415046 5.33557e+06 -1.71403e+06 -211283 1.14323e+06 964087
36 3 O -1.15815 59.3655 2.83938 -1.2 -9.33087 -833804 -7.88734e+06 -644566 1.13096e+06 -2.5924e+06 -714109
37 1 Mg -2.08146 65.1954 5.27981 1.2 -7.80225 2.30912e+06 2.58482e+06 813306 367612 -217786 -323553
38 2 Si 0.425901 66.9661 4.91388 2.4 -33.2227 4.57922e+06 1.52968e+07 4.98625e+06 -1.2129e+06 1.36354e+06 -377514
39 3 O -1.17859 66.9841 4.86713 -1.2 -9.60033 -1.00499e+06 -6.20577e+06 -1.46341e+06 -846240 418386 -1.16226e+06
40 3 O 1.32286 63.0215 5.17808 -1.2 -9.10657 -1.84385e+06 -5.10907e+06 -3.08989e+06 115081 494622 -277735
41 3 O 1.08027 66.2406 3.67866 -1.2 -9.02803 -3.80028e+06 -6.30135e+06 -129997 -174850 -1.25606e+06 -477451
42 3 O 1.07993 66.2446 6.29789 -1.2 -9.02489 -946275 -4.96224e+06 547060 -1.10083e+06 1.58963e+06 827827
43 1 Mg -0.0566467 62.9795 3.74851 1.2 -7.56477 -673352 3.84071e+06 -835743 2.43266e+06 -1.68052e+06 1.51577e+06
44 1 Mg -0.409949 59.8379 4.8574 1.2 -7.6305 -758129 2.01178e+06 1.80336e+06 -204370 383004 186125
45 2 Si 1.97215 61.5662 5.15578 2.4 -32.7635 6.18151e+06 1.07092e+07 8.0875e+06 420146 581350 -584681
46 3 O -1.13953 61.6261 5.29403 -1.2 -9.63549 -553728 -4.33682e+06 -3.42875e+06 860692 159121 243284
47 3 O 0.758322 58.0317 4.53084 -1.2 -9.92 -1.24186e+06 -3.13754e+06 -293931 1.93263e+06 930088 294445
48 3 O 1.40865 60.945 3.83788 -1.2 -9.45551 -2.69197e+06 -5.40794e+06 -125557 -132459 1.8383e+06 -530067
49 1 Mg 0.123534 62.7415 0.741476 1.2 -7.65985 -994525 3.71385e+06 -2.38669e+06 1.25424e+06 2.55915e+06 -1.42587e+06
50 3 O 1.35239 60.9096 6.54325 -1.2 -8.92452 -4.72272e+06 -6.60752e+06 -2.53535e+06 1.28707e+06 -2.47846e+06 2.13397e+06
51 1 Mg 0.347997 65.6663 1.77908 1.2 -7.93694 -692402 2.28866e+06 1.97499e+06 -624898 5877 -11241.7
52 2 Si -1.88883 64.0836 2.15825 2.4 -32.4799 2.80935e+06 1.30393e+07 3.30103e+06 -703810 31761.8 1.4107e+06
53 3 O 1.36639 63.8754 2.13954 -1.2 -9.67048 -3.53809e+06 -4.11381e+06 -3.09687e+06 1.45809e+06 572332 -899867
54 3 O -0.661556 67.4558 1.84017 -1.2 -9.17666 -3.18628e+06 -5.56486e+06 -2.35058e+06 -328168 -146422 -543784
55 3 O -1.20274 64.4895 0.910932 -1.2 -9.69335 -3.39883e+06 -7.27613e+06 -4.4289e+06 -226410 584675 1.10419e+06
56 3 O -1.16954 64.5249 3.43671 -1.2 -9.4039 -4.65286e+06 -6.83298e+06 -858473 -340565 -609965 -1.5148e+06
57 1 Mg -2.19412 67.9741 0.508898 1.2 -7.66484 -1.83736e+06 3.60458e+06 -2.11604e+06 -628904 -994415 -1.58128e+06
58 1 Mg 2.59482 70.9527 1.96356 1.2 -8.31844 2.86697e+06 2.8636e+06 1.75283e+06 1.05917e+06 -267137 682352
59 2 Si -0.131381 68.9733 1.78278 2.4 -33.4562 2.22514e+06 1.33157e+07 5.12406e+06 -1.14556e+06 -1.9486e+06 -29467
60 3 O 1.38974 68.7888 1.74393 -1.2 -9.51581 -5.7789e+06 -5.93145e+06 -2.76684e+06 -863041 272903 -713052
61 3 O -0.944614 72.867 2.04083 -1.2 -7.73253 -1.37141e+06 -1.82195e+06 -1.47438e+06 -1.79066e+06 -81169.2 -645496
62 3 O -0.647992 69.7634 0.577642 -1.2 -8.76779 -2.38474e+06 -4.12379e+06 -3.17507e+06 650812 -1.1199e+06 -157423
63 1 Mg -2.23429 78.7407 3.23674 1.2 -8.47913 865201 3.8906e+06 -1.34825e+06 -812296 1.55449e+06 634114
64 3 O -0.91373 69.7083 2.99874 -1.2 -8.98221 22990.9 -3.17654e+06 -3.19997e+06 759707 -669553 1.19914e+06
65 1 Mg -1.87659 75.9467 4.79351 1.2 -9.31114 4.22872e+06 -664645 -501780 1.20709e+06 303722 -683172
66 2 Si 0.620178 77.8991 4.97465 2.4 -34.9804 6.88198e+06 9.90838e+06 6.2955e+06 -258374 471124 2.65232e+06
67 3 O -0.880689 77.961 4.83938 -1.2 -8.53794 -6.28503e+06 -3.21614e+06 -3.88188e+06 651225 2.01324e+06 433223
68 3 O 1.50775 74.1874 4.94139 -1.2 -8.3982 -4.38222e+06 -6.53136e+06 -4.03549e+06 -1.37856e+06 169615 -1.2554e+06
69 3 O 1.11823 77.1018 3.53666 -1.2 -7.72294 -4.21965e+06 -1.93931e+06 -2.23563e+06 788611 -1.0382e+06 732230
70 3 O 1.22081 77.0267 6.00081 -1.2 -7.64663 -7.65354e+06 -4.87509e+06 -8.15842e+06 1.03176e+06 -1.19941e+06 875689
71 1 Mg 0.335649 73.6791 3.51089 1.2 -8.31308 -1.71016e+06 4.12912e+06 -624441 1.50745e+06 -2.2514e+06 2.35607e+06
72 1 Mg 0.127359 70.9496 4.64064 1.2 -8.36676 1.78587e+06 3.07686e+06 2.51265e+06 -272548 211508 -104693
73 2 Si 2.26344 72.7893 4.82064 2.4 -33.6918 4.1115e+06 1.39295e+07 5.766e+06 1.00525e+06 -1.77184e+06 316390
74 3 O -1.02567 72.6621 4.9349 -1.2 -9.01763 -5.77113e+06 -5.51795e+06 -4.92025e+06 368905 -988021 492003
75 3 O 1.03798 68.4122 4.89261 -1.2 -9.12757 -2.21085e+06 -6.58951e+06 -212847 811220 58404.2 -222659
76 3 O 1.56696 72.0291 3.64819 -1.2 -9.06313 -4.30934e+06 -3.00345e+06 -3.98593e+06 341570 -101761 470961
77 1 Mg 0.555394 73.256 0.518187 1.2 -8.64115 753496 3.72057e+06 -646729 1.33521e+06 173538 -1.10667e+06
78 3 O 1.35836 71.9095 6.15138 -1.2 -8.10677 -4.13163e+06 -4.49663e+06 1.93333e+06 1.05845e+06 -1.08981e+06 -1.33767e+06
79 1 Mg 0.604089 76.799 1.65962 1.2 -8.91831 3.00106e+06 2.61235e+06 776777 -21626 -49004.3 1.34416e+06
80 2 Si -1.81587 74.5187 2.02503 2.4 -34.9011 9.77107e+06 1.08771e+07 5.41622e+06 -1.42052e+06 -2.01507e+06 630530
81 3 O 1.42237 74.435 1.85636 -1.2 -8.63945 -6.82023e+06 -2.86397e+06 -3.06255e+06 -433125 -1.29171e+06 -1.03161e+06
82 3 O -0.797906 78.4507 1.87267 -1.2 -8.06052 -2.68346e+06 -4.09756e+06 -1.94416e+06 2.08722e+06 -136887 431002
83 3 O -0.984084 75.24 0.854041 -1.2 -7.65489 -4.18264e+06 -508578 -833207 748872 -1.55507e+06 -724506
84 3 O -1.3354 74.9757 3.37249 -1.2 -8.17553 -6.48952e+06 -5.25637e+06 -8.34511e+06 145019 2.29717e+06 -2.82475e+06
85 1 Mg -1.74525 78.9259 0.106969 1.2 -8.20924 -187085 4.10732e+06 -1.90163e+06 -575921 -1.00129e+06 -1.45604e+06
86 1 Mg 2.83982 81.676 1.72013 1.2 -8.06049 -1.70064e+06 1.99498e+06 2.11753e+06 3.17876e+06 901245 -829220
87 2 Si -0.0749094 80.0705 2.01583 2.4 -33.8118 8.43325e+06 9.42223e+06 4.77547e+06 2.531e+06 -516999 312821
88 3 O 1.47719 79.8945 1.88489 -1.2 -8.66235 -3.16994e+06 -3.09378e+06 -3.77298e+06 -807640 -663560 -863446
89 3 O -0.907377 83.7704 1.95959 -1.2 -9.17769 -4.45978e+06 -1.97803e+06 -495979 -1.37301e+06 630341 723510
90 3 O -0.762451 80.6395 0.729109 -1.2 -8.87276 -6.40588e+06 -5.69997e+06 -3.75073e+06 1.57694e+06 1.17085e+06 1.63203e+06
91 1 Mg -1.89012 89.9008 2.91648 1.2 -8.86843 779412 3.14154e+06 -208793 -1.94817e+06 2.40539e+06 3.58498e+06
92 3 O -0.783831 80.55 3.21572 -1.2 -8.75029 -4.67245e+06 -5.4236e+06 -3.95475e+06 1.49471e+06 502043 -2.20326e+06
93 1 Mg -1.80399 86.9195 4.84876 1.2 -8.08358 1.9899e+06 2.07408e+06 1.98576e+06 955080 -655052 808815
94 2 Si 0.895465 88.894 4.43428 2.4 -34.6817 5.28213e+06 1.02479e+07 9.13755e+06 -1.76917e+06 81185.5 3.55292e+06
95 3 O -0.529272 89.0674 4.43779 -1.2 -8.1306 -8.13462e+06 -3.99205e+06 -4.43319e+06 -2.05914e+06 -725358 -2.23279e+06
96 3 O 2.05313 84.6821 4.67315 -1.2 -9.43145 -5.72735e+06 -4.8894e+06 -4.0657e+06 11409.2 -2.70417e+06 753633
97 3 O 1.69222 88.1912 3.17814 -1.2 -8.27151 -3.07013e+06 -775160 -855502 115185 -642148 -1.58553e+06
98 3 O 1.62079 88.1251 5.75783 -1.2 -8.99155 -2.64263e+06 -1.29981e+06 -2.23958e+06 274558 1.20285e+06 -867696
99 1 Mg 0.495142 84.4695 3.76056 1.2 -7.43078 -4.16472e+06 4.40205e+06 -151537 624062 -3.13492e+06 1.3152e+06
100 1 Mg 0.451145 81.2738 5.0199 1.2 -8.11377 1.09338e+06 1.54272e+06 -630927 -1.55495e+06 1.27652e+06 2.40233e+06
101 2 Si 2.58698 83.2096 4.55597 2.4 -32.9386 5.59099e+06 1.19769e+07 8.57356e+06 1.8419e+06 1.47848e+06 909657
102 3 O -0.577326 83.289 4.97179 -1.2 -9.3723 -1.57337e+06 -4.46229e+06 -3.68331e+06 1.09422e+06 1.60056e+06 -252665
103 3 O 1.33298 79.3548 4.81023 -1.2 -9.13614 -4.32858e+06 -4.07591e+06 -2.56915e+06 485454 -473372 -542297
104 3 O 1.85598 82.4139 3.41423 -1.2 -8.85097 -1.05179e+06 -4.43299e+06 -2.38068e+06 1.05504e+06 960801 842471
105 1 Mg 0.320395 83.5815 0.596362 1.2 -7.39708 -405522 3.48406e+06 -3.80801e+06 1.6204e+06 3.36364e+06 -759476
106 3 O 1.84795 82.4755 5.88892 -1.2 -8.83784 -4.08619e+06 -3.0932e+06 -1.50536e+06 1.58667e+06 -1.32621e+06 -1.08703e+06
107 1 Mg 0.407422 87.2062 1.56004 1.2 -8.97726 3.39775e+06 2.02582e+06 3.05569e+06 -1.26313e+06 267212 1.60714e+06
108 2 Si -1.52942 85.3579 1.98925 2.4 -34.0973 1.03266e+07 1.09389e+07 8.2309e+06 80571.1 534870 450140
109 3 O 1.65458 85.2086 2.00386 -1.2 -8.51684 -1.58414e+06 -3.20754e+06 -2.57635e+06 825298 1.26164e+06 -122896
110 3 O -0.431926 89.5906 1.62154 -1.2 -8.2259 -3.65948e+06 -1.86451e+06 -3.03181e+06 602590 1.80741e+06 -4.4278e+06
111 3 O -1.02844 86.107 0.591665 -1.2 -8.08155 -5.25906e+06 -664550 766129 64342.1 -926336 -1.87359e+06
112 3 O -0.699724 86.1022 3.14052 -1.2 -8.94543 -3.63638e+06 -2.47811e+06 -2.20078e+06 196094 1.305e+06 -118884
113 1 Mg -1.92661 90.1707 -0.148131 1.2 -7.59162 942848 4.30439e+06 1.55034e+06 -351628 -362535 1.42118e+06
114 1 Mg 2.35317 93.0896 1.56286 1.2 -8.48645 1.89286e+06 1.76356e+06 1.05243e+06 199557 215344 -587747
115 2 Si 0.0756123 91.1386 1.57877 2.4 -34.1597 6.65876e+06 1.19213e+07 8.17883e+06 -2.95581e+06 -1.63382e+06 1.34895e+06
116 3 O 1.5497 91.1515 1.50599 -1.2 -8.99066 -6.45328e+06 -3.25508e+06 -2.54681e+06 -2.49021e+06 -1.70135e+06 -924538
117 3 O -1.41611 95.0061 1.34108 -1.2 -8.54558 -1.29963e+06 -6.12198e+06 -2.52497e+06 -3.31977e+06 -435944 -866189
118 3 O -0.652587 92.0812 0.423491 -1.2 -8.72666 -2.55269e+06 -571093 -1.88221e+06 -590931 1.88924e+06 130535
119 1 Mg -2.28381 100.647 3.09123 1.2 -7.36434 -2.28834e+06 5.04493e+06 -1.28753e+06 -435428 1.72396e+06 1.71032e+06
120 3 O -0.923024 91.6524 2.88423 -1.2 -7.75727 -3.67818e+06 -3.27504e+06 -2.58535e+06 -362823 -2.10223e+06 -41260.3
121 1 Mg -2.18777 97.9717 4.61348 1.2 -9.28614 2.12854e+06 -789814 3.07254e+06 455293 -17284.8 2.01831e+06
122 2 Si 0.419267 99.6457 4.6805 2.4 -34.1155 6.44308e+06 8.01073e+06 6.0992e+06 -38431.3 -508463 4.63355e+06
123 3 O -1.17136 99.6578 4.6261 -1.2 -9.15702 -3.71592e+06 -4.41433e+06 -3.99513e+06 -1.03919e+06 268456 -228051
124 3 O 1.37271 96.0284 4.28857 -1.2 -8.32357 -5.28077e+06 -3.96443e+06 -3.92332e+06 -128261 -133090 2.88549e+06
125 3 O 1.11116 98.889 3.39348 -1.2 -8.05307 -4.21555e+06 -2.40731e+06 -4.69893e+06 459673 -1.63486e+06 -762436
126 3 O 1.11115 98.9778 5.779 -1.2 -8.02961 -4.68811e+06 -5.84371e+06 -8.96284e+06 556958 -413493 998849
127 1 Mg -0.0259782 95.4295 2.95791 1.2 -8.11113 -1.24185e+06 3.88372e+06 -1.11238e+06 428988 -562640 2.6479e+06
128 1 Mg 0.0303241 92.6821 4.50613 1.2 -8.39088 2.14705e+06 1.88362e+06 1.33779e+06 -1.52095e+06 1.03152e+06 2.66296e+06
129 2 Si 1.93512 94.4979 4.30275 2.4 -33.4599 4.69566e+06 1.20899e+07 4.49372e+06 382487 911487 2.06822e+06
130 3 O -1.19752 94.5901 4.42447 -1.2 -9.01438 -932299 -4.94055e+06 -2.7526e+06 228272 1.84217e+06 -5218.15
131 3 O 1.48195 90.4155 4.53297 -1.2 -7.91729 -7.1677e+06 -2.46138e+06 -1.24474e+06 -501163 634723 -1.5669e+06
132 3 O 1.31756 93.6669 3.13032 -1.2 -9.72226 -2.90787e+06 -3.83305e+06 -2.14121e+06 353435 -76942.4 -1.35442e+06
133 1 Mg 0.145488 95.0084 0.109683 1.2 -8.21497 -88543.9 4.63432e+06 125645 723601 54428.3 224687
134 3 O 1.48795 94.029 5.66482 -1.2 -8.69063 -4.19201e+06 -4.47112e+06 -3.49535e+06 -1.76227e+06 2.00459e+06 641451
135 1 Mg 0.0947355 98.2772 1.63035 1.2 -9.27665 2.14783e+06 -121860 3.9068e+06 384704 248930 520346
136 2 Si -2.22732 96.506 1.44345 2.4 -34.4827 1.04837e+07 8.0759e+06 1.0976e+07 -556373 -232317 3.47183e+06
137 3 O 0.975002 96.3904 1.53203 -1.2 -9.07526 -5.85225e+06 -1.96841e+06 -5.05644e+06 696370 -994163 -308260
138 3 O -0.832534 100.16 1.86511 -1.2 -9.60767 -1.51137e+06 -4.82483e+06 -3.64666e+06 959986 1.45611e+06 -394032
139 3 O -1.36733 97.205 0.346555 -1.2 -7.85561 -4.58838e+06 -4.61078e+06 -4.45588e+06 963088 -2.35055e+06 962376
140 3 O -1.4058 97.0686 2.87704 -1.2 -7.47672 -4.67617e+06 -1.79308e+06 -2.58079e+06 823113 3.64715e+06 122561
141 1 Mg -2.13069 100.91 0.189827 1.2 -7.22667 617974 5.96828e+06 -1.64729e+06 -767250 -1.01755e+06 -1.55516e+06
142 1 Mg 7.04921 103.685 1.79477 1.2 -7.52066 748476 1.84555e+06 -585811 974203 -104772 899218
143 2 Si -0.178074 101.616 1.85301 2.4 -31.8782 1.68062e+06 1.36452e+07 8.3028e+06 -1.09276e+06 -1.49613e+06 -540205
144 3 O 1.35499 101.782 1.80994 -1.2 -10.3022 -1.99647e+06 -4.57505e+06 -3.23877e+06 -727213 -1.36729e+06 1.14621e+06
145 3 O 3.55315 105.767 1.89219 -1.2 -9.72729 -778141 -5.59889e+06 -2.29388e+06 -783099 510819 1.38926e+06
146 3 O -0.805402 102.447 0.558248 -1.2 -9.35031 -3.09189e+06 -2.02845e+06 240645 604916 855734 -855598
147 1 Mg 2.44851 111.38 3.03513 1.2 -7.20009 -5.52878e+06 2.55632e+06 -986552 -1.68321e+06 2.28623e+06 843008
148 3 O -0.916221 102.303 3.19462 -1.2 -9.69899 284624 -3.27545e+06 -394204 -151621 -1.14698e+06 600821
149 1 Mg 2.61723 108.319 5.08151 1.2 -7.30441 1.19397e+06 1.00289e+06 2.0866e+06 536395 -1.0366e+06 2424.82
150 2 Si 5.06233 110.508 4.55133 2.4 -31.3133 7.63937e+06 8.96113e+06 9.39265e+06 -2.07583e+06 -860791 -1.39198e+06
151 3 O 3.44632 110.587 4.53179 -1.2 -10.0648 375623 -3.90793e+06 -3.33041e+06 172582 -1.64727e+06 716949
152 3 O 6.15356 106.529 5.01035 -1.2 -9.70383 -768244 -5.13406e+06 -5.42621e+06 -1.61205e+06 -1.96359e+06 696881
153 3 O 5.8425 109.812 3.24091 -1.2 -9.61515 -711218 -3.06313e+06 -2.38602e+06 -2.04752e+06 -1.70567e+06 366347
154 3 O 5.69318 109.683 5.85412 -1.2 -9.40412 -721306 -878432 -2.9288e+06 -230212 2.68128e+06 -85460.6
155 1 Mg 5.03637 106.291 3.53462 1.2 -6.6801 -3.6669e+06 3.68078e+06 -464580 1.58254e+06 -2.86179e+06 1.47588e+06
156 1 Mg 0.168703 103.043 4.82909 1.2 -7.13856 -547682 2.90788e+06 -51862.2 -1.17545e+06 1.25422e+06 2.49171e+06
157 2 Si 7.00284 105.008 4.67412 2.4 -31.3912 4.24672e+06 7.27336e+06 8.22395e+06 -1.9287e+06 -994238 2.32924e+06
158 3 O 3.78595 105.115 4.84817 -1.2 -10.0872 -1.52762e+06 -2.11118e+06 -3.76269e+06 -645058 898746 95963.7
159 3 O 1.08675 101.065 4.72002 -1.2 -9.61846 -2.02287e+06 -9.20251e+06 -2.67993e+06 1.61818e+06 -504576 391708
160 3 O 6.34574 104.646 3.35663 -1.2 -10.2889 -2.54124e+06 -2.73216e+06 -5.40004e+06 -454823 1.61018e+06 -1.84985e+06
161 1 Mg 5.08079 105.854 0.557562 1.2 -6.61611 -1.83315e+06 5.21815e+06 -942414 1.18575e+06 895530 -1.32188e+06
162 3 O 6.34884 104.328 5.93947 -1.2 -9.69855 -3.75657e+06 -5.37323e+06 -2.20397e+06 351294 -1.29286e+06 1.23375e+06
163 1 Mg 5.09794 109.036 1.58448 1.2 -7.34436 -812287 400465 2.36361e+06 -694772 620580 -1.0837e+06
164 2 Si 3.05994 107.299 1.98099 2.4 -31.2389 3.57293e+06 1.09918e+07 5.16919e+06 -623962 891135 1.7332e+06
165 3 O 6.15176 107.284 1.79254 -1.2 -10.1926 1.17848e+06 -3.75739e+06 -1.98666e+06 1.58352e+06 804393 -31261.3
166 3 O 3.46669 110.989 1.4526 -1.2 -9.17818 -4.79099e+06 -9.61354e+06 -9.23059e+06 672038 -753340 -1.64541e+06
167 3 O 3.63364 107.846 0.689987 -1.2 -10.1045 -3.9329e+06 -5.90087e+06 -3.24157e+06 -743534 -132589 3.05585e+06
168 3 O 3.64596 107.844 3.3418 -1.2 -10.3939 -1.18429e+06 -3.79841e+06 -613176 -181349 -122608 -917457
169 1 Mg 2.33247 111.673 0.241422 1.2 -7.75082 -5.50559e+06 3.31978e+06 -4.43786e+06 353664 -3.21483e+06 -1.37613e+06
170 1 Mg 7.22447 114.493 1.60384 1.2 -7.38377 36854.1 1.39312e+06 1.74511e+06 647744 1.0285e+06 402045
171 2 Si 4.31705 112.246 1.57423 2.4 -32.2203 2.48001e+06 8.17689e+06 4.88323e+06 -518477 864133 -1.57418e+06
172 3 O 5.81483 112.303 1.41548 -1.2 -9.47258 -5.78548e+06 -6.80261e+06 -4.61177e+06 1.77312e+06 2.03513e+06 -989565
173 3 O 3.2807 116.348 1.64072 -1.2 -10.1381 -4.50849e+06 -7.82887e+06 -435811 -50608.4 -699261 -2.68004e+06
174 3 O 3.60481 113.264 0.377744 -1.2 -8.70121 -3.72927e+06 -2.33819e+06 -2.56617e+06 -812413 -520137 871759
175 1 Mg 2.52321 122.437 3.02469 1.2 -7.58726 -323942 4.37294e+06 916238 -564252 1.02601e+06 1.92664e+06
176 3 O 3.7156 112.81 2.81789 -1.2 -9.55361 -3.05122e+06 -5.89846e+06 -8.02021e+06 -1.07285e+06 1.36355e+06 -2.05491e+06
177 1 Mg 2.59109 119.084 4.2161 1.2 -8.2775 2.03474e+06 1.79158e+06 3.98277e+06 637891 497699 -110610
178 2 Si 5.13189 121.214 4.39669 2.4 -31.9746 1.03674e+07 1.07045e+07 7.09288e+06 -2.511e+06 -3.70665e+06 -632014
179 3 O 3.50652 121.232 4.36338 -1.2 -9.11714 1.49948e+06 -2.25782e+06 -4.22228e+06 -2.50265e+06 360904 306362
180 3 O 6.22265 117.181 4.46389 -1.2 -9.72088 -12655.2 -670936 -2.40265e+06 -828680 -357449 -873145
181 3 O 5.91823 120.639 2.96866 -1.2 -8.95443 -1.88539e+06 792540 -1.07436e+06 -143881 -2.49619e+06 1.03025e+06
182 3 O 5.92192 120.56 5.50417 -1.2 -9.6356 -6.31352e+06 -1.05318e+06 -3.53712e+06 -870279 653257 1.03829e+06
183 1 Mg 4.95949 116.547 2.88501 1.2 -6.71737 -3.06693e+06 3.94466e+06 -879031 190888 -750800 3.22524e+06
184 1 Mg 4.99692 113.72 4.48652 1.2 -6.85813 600260 -239452 2.38413e+06 -939432 229010 1.08474e+06
185 2 Si 6.91505 115.619 4.38738 2.4 -30.4396 1.08261e+06 1.53529e+07 5.43005e+06 -915065 -957486 1.54582e+06
186 3 O 3.72675 115.69 4.4468 -1.2 -10.8353 547037 -5.34254e+06 -2.63106e+06 -574417 -441332 -1.06289e+06
187 3 O 5.84235 111.921 4.6233 -1.2 -10.386 -2.95516e+06 -6.36831e+06 -4.37736e+06 2.39181e+06 -1.15985e+06 483933
188 3 O 6.2407 114.753 3.27402 -1.2 -10.6983 -896113 -3.66376e+06 -4.87968e+06 164566 889086 -1.01991e+06
189 1 Mg 4.60966 116.514 -0.215393 1.2 -6.33602 -1.87111e+06 4.52401e+06 749103 835451 2.06689e+06 -218232
190 3 O 6.22912 114.975 5.7212 -1.2 -10.3126 -1.56298e+06 -6.42352e+06 -2.684e+06 1.79174e+06 -774536 370290
191 1 Mg 4.88964 119.886 1.37958 1.2 -7.80235 1.71122e+06 1.31973e+06 1.89285e+06 -554752 536228 227470
192 2 Si 2.86826 117.799 1.29497 2.4 -31.7314 5.43103e+06 7.60872e+06 5.51028e+06 2.6766e+06 140401 2.52256e+06
193 3 O 5.93747 117.481 1.55941 -1.2 -9.50541 -832347 -2.74333e+06 -1.38041e+06 3.52728e+06 -292863 -1.73625e+06
194 3 O 3.89481 121.957 1.23559 -1.2 -9.23454 -2.64439e+06 -1.69956e+06 -3.83445e+06 1.07257e+06 -660832 -1.84893e+06
195 3 O 3.48681 118.339 0.0468756 -1.2 -10.122 1.15544e+06 -1.67033e+06 -7.64782e+06 -583493 290851 146584
196 3 O 3.51341 118.658 2.47168 -1.2 -9.24569 -1.87015e+06 -3.47694e+06 -2.93977e+06 1.03504e+06 729536 -2.11738e+06
197 1 Mg 2.28959 122.334 0.0266114 1.2 -7.59575 -3.24283e+06 1.89606e+06 -1.38978e+06 998289 -160850 -1.59582e+06
198 1 Mg 7.05167 125.146 1.15278 1.2 -7.68773 -1.06193e+06 1.32985e+06 2.11133e+06 75243.6 5234.87 1.39375e+06
199 2 Si 4.61395 123.416 1.21698 2.4 -31.809 1.73541e+06 1.12571e+07 1.1715e+07 -1.28872e+06 -617604 1.01981e+06
200 3 O 6.05875 123.303 1.22352 -1.2 -10.2213 -6.88112e+06 -5.02809e+06 -6.27449e+06 -821340 1.11067e+06 -2.32804e+06
201 3 O 3.2204 127.25 1.2446 -1.2 -9.58417 -5.8516e+06 -5.89008e+06 -5.88384e+06 -1.18151e+06 -1.4334e+06 -2.05515e+06
202 3 O 3.7969 124.353 0.000456952 -1.2 -9.49913 -1.72347e+06 -1.50212e+06 -1.34161e+06 -307758 1.43809e+06 -2.04592e+06
203 1 Mg 2.20268 132.913 2.25701 1.2 -6.98557 -2.57367e+06 3.22787e+06 1.06959e+06 -2.61682e+06 2.18964e+06 1.50514e+06
204 3 O 3.73798 124.055 2.59664 -1.2 -9.00332 -1.09289e+06 -4.65648e+06 -2.28614e+06 270553 -3.58798e+06 -1.53893e+06
205 1 Mg 2.27934 129.772 4.44417 1.2 -7.98248 1.73527e+06 401360 -262436 2.19694e+06 -781124 1.43657e+06
206 2 Si 5.17725 131.792 3.88185 2.4 -32.9935 5.75945e+06 8.87473e+06 6.30654e+06 299936 113309 654937
207 3 O 3.6127 131.97 3.8329 -1.2 -9.16159 -1.61858e+06 -4.71488e+06 -2.3885e+06 -1.42741e+06 699777 -1.72692e+06
208 3 O 5.91987 127.822 4.31037 -1.2 -8.82904 -2.99822e+06 -7.70082e+06 -3.95937e+06 234878 2.03343e+06 -523558
209 3 O 5.71613 131.332 2.50316 -1.2 -9.58442 -4.69358e+06 -3.37628e+06 -5.1799e+06 584890 -1.09378e+06 -1.92214e+06
210 3 O 5.86078 131.176 5.15261 -1.2 -9.19546 -3.47223e+06 -4.45355e+06 -1.87409e+06 370391 610026 974022
211 1 Mg 4.46967 127.447 2.51823 1.2 -7.52737 -1.75186e+06 3.7889e+06 -3.45966e+06 551296 -2.718e+06 1.25065e+06
212 1 Mg 4.8062 124.736 4.06519 1.2 -8.09129 -628101 -467295 1.38498e+06 -1.30951e+06 -754825 -712216
213 2 Si 6.60799 126.43 4.29389 2.4 -33.2019 5.7989e+06 8.38317e+06 6.24633e+06 -2.04812e+06 -1.55792e+06 -2.94906e+06
214 3 O 3.4507 126.407 4.18902 -1.2 -9.1788 -2.24851e+06 -5.09608e+06 -3.34556e+06 -437522 -1.99844e+06 -73967.7
215 3 O 5.56008 122.976 4.29987 -1.2 -9.34485 -3.78013e+06 -351366 -1.69922e+06 2.39729e+06 434728 -1.73745e+06
216 3 O 6.08746 125.898 2.97869 -1.2 -9.17062 -5.15737e+06 -7.41402e+06 -2.41722e+06 -838879 -21013.5 -2.40263e+06
217 1 Mg 4.76726 127.38 -0.0786355 1.2 -6.61011 -3.01012e+06 4.0089e+06 -2.41645e+06 206278 -927816 -934447
218 3 O 5.90953 125.798 5.63086 -1.2 -9.1392 -3.65392e+06 -5.72263e+06 -1.63415e+06 -847103 -1.26856e+06 1.00473e+06
219 1 Mg 4.77479 130.796 0.972033 1.2 -7.83344 435552 690012 -2.49648e+06 -1.25312e+06 -28455.9 -1.17052e+06
220 2 Si 2.52327 128.681 1.33485 2.4 -32.7458 3.65989e+06 1.00463e+07 8.19051e+06 1.94578e+06 1.20462e+06 -699333
221 3 O 5.77094 128.359 1.34305 -1.2 -9.78734 -4.04624e+06 -4.68841e+06 -3.72054e+06 1.52681e+06 424521 800321
222 3 O 3.7128 132.743 0.940239 -1.2 -9.38546 -1.24324e+06 -6.07755e+06 -3.65379e+06 873066 230077 3.06067e+06
223 3 O 3.1337 129.656 0.301549 -1.2 -9.70388 -2.45073e+06 -3.48784e+06 -3.61823e+06 50269.2 -1.28235e+06 1.80125e+06
224 3 O 3.21365 129.123 2.84015 -1.2 -8.56229 -1.45585e+06 -4.45257e+06 -1.28074e+06 -415357 1.12564e+06 473372
225 1 Mg 2.28262 133.426 -0.410313 1.2 -7.52202 -1.59405e+06 3.11981e+06 -1.37983e+06 -1.36843e+06 -1.47578e+06 -201107
226 1 Mg 7.26998 136.397 1.22622 1.2 -8.32245 2.23992e+06 270718 3.73009e+06 1.37933e+06 81769.7 -909216
227 2 Si 4.26185 134.234 1.30568 2.4 -32.4183 5.49812e+06 7.55533e+06 6.0071e+06 875220 698460 -722888
228 3 O 5.88714 134.244 1.02426 -1.2 -9.4149 -1.01633e+06 -2.20799e+06 -3.45198e+06 -903577 -925519 -455477
229 3 O 3.41911 138.258 1.31872 -1.2 -9.29023 -1.46811e+06 -1.1477e+06 -3.22744e+06 -708553 -456357 -68931.3
230 3 O 3.6014 134.866 -0.0548301 -1.2 -8.97704 -4.47482e+06 -5.70854e+06 -3.19081e+06 -94186.1 787335 1.37865e+06
231 1 Mg 2.3453 144.097 2.80537 1.2 -6.92352 -2.70637e+06 3.96462e+06 -1.04692e+06 51194.4 -190604 2.47367e+06
232 3 O 3.69524 134.995 2.36951 -1.2 -9.48047 -3.82579e+06 -1.76656e+06 -9.92825e+06 657204 1.59363e+06 -1.78754e+06
233 1 Mg 2.16281 140.931 4.4631 1.2 -8.20233 369512 -266538 2.81442e+06 1.10201e+06 -1.48761e+06 -405727
234 2 Si 4.96885 143.053 4.1919 2.4 -32.0911 8.04653e+06 9.36906e+06 1.06248e+07 -1.78973e+06 689437 851072
235 3 O 3.33889 143.245 4.11252 -1.2 -9.54672 970996 -3.57011e+06 -6.16352e+06 -1.68601e+06 -978782 -330371
236 3 O 6.06689 138.873 4.32854 -1.2 -9.85563 -3.36997e+06 -3.49063e+06 -2.69871e+06 -2.59849e+06 278106 -667410
237 3 O 5.68787 142.385 2.90074 -1.2 -9.17329 -5.13411e+06 541824 -6.94899e+06 -434849 -2.97985e+06 399373
238 3 O 5.60605 142.117 5.35698 -1.2 -9.222 -2.44752e+06 257280 -3.68527e+06 569037 386174 -248356
239 1 Mg 5.0174 138.379 2.71835 1.2 -7.53575 -558471 2.34324e+06 260739 1.6691e+06 -2.35463e+06 114798
240 1 Mg 4.81303 135.085 4.02417 1.2 -8.37447 2.86513e+06 448742 1.24852e+06 -48348.4 -305863 -1.50771e+06
241 2 Si 6.71656 137.374 4.35929 2.4 -32.9872 9.89635e+06 8.50768e+06 7.45756e+06 1.17489e+06 -1.09974e+06 -1.6034e+06
242 3 O 3.66376 137.522 4.31899 -1.2 -8.92644 1.25159e+06 -1.81372e+06 -3.20829e+06 888031 -613370 663759
243 3 O 5.74197 133.326 3.94533 -1.2 -9.21355 -4.14754e+06 -5.30326e+06 -2.7324e+06 -151209 27291.7 -739329
244 3 O 6.12033 136.776 2.97557 -1.2 -8.82823 -3.69981e+06 -2.08265e+06 -4.50431e+06 1.28265e+06 1.02642e+06 1.26071e+06
245 1 Mg 4.89976 139.026 -0.336884 1.2 -7.41162 -1.27039e+06 3.86027e+06 -2.1885e+06 641471 2.38452e+06 -1.99739e+06
246 3 O 6.11467 136.368 5.3777 -1.2 -8.85695 -3.17409e+06 -349430 -5.92833e+06 1.32692e+06 -349127 1.24633e+06
247 1 Mg 4.84943 141.612 1.51488 1.2 -8.3738 2.52466e+06 -2.17452e+06 488762 -1.26261e+06 -1.60189e+06 -3.90651e+06
248 2 Si 2.74886 139.756 1.32193 2.4 -33.7406 4.16318e+06 1.14687e+07 8.2024e+06 -942799 1.43836e+06 -536079
249 3 O 5.93747 139.672 1.25515 -1.2 -9.52653 -2.89801e+06 -3.50047e+06 -3.23018e+06 -970607 38293.3 417255
250 3 O 3.80171 143.84 1.36682 -1.2 -9.5265 -840521 -5.37932e+06 -5.04251e+06 857052 214566 593413
251 3 O 3.31384 140.673 0.223058 -1.2 -8.83357 -3.51979e+06 -2.00493e+06 -6.17849e+06 -407655 497643 1.64084e+06
252 3 O 3.26587 140.587 2.62289 -1.2 -8.46703 -1.56351e+06 -932418 -4.52883e+06 1.08102e+06 -801046 2.23696e+06
253 1 Mg 2.30927 144.419 0.0595061 1.2 -6.87108 -3.16582e+06 4.07517e+06 -747252 -489732 -1.33495e+06 -2.86458e+06
254 1 Mg 7.12461 147.285 1.50975 1.2 -6.89406 -554017 1.17054e+06 4.92639e+06 629373 -584919 -1.43137e+06
255 2 Si 4.4953 145.261 1.41397 2.4 -30.9274 -1.04051e+06 9.46888e+06 9.77067e+06 476369 1.44219e+06 -2.09545e+06
256 3 O 5.97734 145.243 1.44529 -1.2 -10.917 -4.35578e+06 -3.73021e+06 -4.01003e+06 -599878 1.36841e+06 95620.1
257 3 O 3.28747 149.397 1.75557 -1.2 -10.1336 -827736 -1.28717e+06 -4.99569e+06 -519061 -55672 3.42647e+06
258 3 O 3.67774 145.952 0.0143085 -1.2 -9.77028 -171305 -4.1554e+06 -3.07451e+06 -1.40446e+06 2.81341e+06 2.53837e+06
259 1 Mg 1.52181 154.864 2.02595 1.2 -7.70338 -213487 -2.103e+06 2.35051e+06 -487704 481412 -1.28038e+06
260 3 O 3.81294 145.984 2.64952 -1.2 -9.93942 -1.45879e+06 -2.10918e+06 -4.06239e+06 465096 -464025 3437.96
261 1 Mg 2.06852 154.523 5.25888 1.2 -6.67543 -2.30251e+06 1.48498e+06 897264 741887 76747.9 -2.66017e+06
262 2 Si 4.03861 153.109 3.46959 2.4 -32.484 8.83033e+06 6.63886e+06 1.11037e+07 -2.34487e+06 -670566 -6.19756e+06
263 3 O 2.69555 154.167 3.50426 -1.2 -8.95284 -428830 -1.7712e+06 -5.47531e+06 -3.9465e+06 324345 -550775
264 3 O 5.82887 150.048 4.72702 -1.2 -9.42592 -3.52876e+06 -1.54515e+06 -4.96203e+06 -1.02357e+06 19916.2 3.00667e+06
265 3 O 4.86671 153.631 2.14064 -1.2 -8.7761 -5.44864e+06 -2.78801e+06 -1.00691e+06 -434334 566100 1.89201e+06
266 3 O 4.99359 153.206 4.82476 -1.2 -10.414 -951592 -2.46012e+06 -1.64541e+06 1.11825e+06 2.24362e+06 3.58826e+06
267 1 Mg 4.74681 149.626 3.15821 1.2 -6.6905 -2.18896e+06 1.63595e+06 1.04737e+06 325578 -1.10598e+06 -1.59469e+06
268 1 Mg 4.66364 146.432 4.37487 1.2 -7.74913 2.02427e+06 -1.49579e+06 488652 -483699 -493768 -1.15832e+06