ITEM: TIMESTEP
20100
ITEM: NUMBER OF ATOMS
5600
ITEM: BOX BOUNDS xy xz yz pp pp pp
0.0000000000000000e+00 7.1234999999999999e+00 0.0000000000000000e+00
0.0000000000000000e+00 2.0198500000000001e+02 2.3744999999999998e+00
0.0000000000000000e+00 1.1958400000000000e+02 0.0000000000000000e+00
ITEM: ATOMS id type element xu yu zu q c_pe c_s[1] c_s[2] c_s[3] c_s[4] c_s[5] c_s[6]
1 1 Mg -1.57682 49.6088 -1.21477 1.2 -7.44884 -553082 -1.51686e+06 3.03485e+06 529428 588535 -1.70528e+06
2 1 Mg 3.04524 51.2171 1.94021 1.2 -8.06252 -1.75417e+06 4.27097e+06 962160 222067 -429044 -713828
3 2 Si 0.911142 51.1941 -0.0976097 2.4 -33.5091 8.8676e+06 6.64012e+06 7.68323e+06 -405716 -149713 219596
4 3 O 2.32999 50.5637 0.19271 -1.2 -8.6532 -6.1127e+06 -2.74029e+06 -5.63192e+06 -378044 -471496 1.3483e+06
5 3 O -1.34359 53.9609 1.44277 -1.2 -8.75617 -2.60396e+06 -4.68842e+06 -3.6592e+06 -756363 -271349 286222
6 3 O 0.265897 50.3621 -1.24174 -1.2 -9.0945 -5.49324e+06 185409 -6.58808e+06 1.03401e+06 -904488 740195
7 1 Mg -2.4558 59.5901 3.01128 1.2 -7.21692 -1.7518e+06 3.71362e+06 -242306 -726419 1.24521e+06 1.01584e+06
8 3 O 0.0792714 51.0503 1.24222 -1.2 -8.84811 -6.25925e+06 -3.73571e+06 -3.67373e+06 -619861 -1.56651e+06 -994360
9 1 Mg -2.50552 56.6306 4.42578 1.2 -8.13821 1.51429e+06 -218701 3.18597e+06 1.08456e+06 -357311 311128
10 2 Si 0.246687 58.5359 4.4186 2.4 -32.3421 3.57682e+06 8.11306e+06 1.09199e+07 373699 -11944 -1.20812e+06
11 3 O -1.29301 58.6491 4.42477 -1.2 -9.96437 -1.58445e+06 -3.44573e+06 -5.1214e+06 173514 -216292 337497
12 3 O 1.3643 54.6704 4.22927 -1.2 -9.43124 -5.90819e+06 -2.7465e+06 -3.61836e+06 -829089 517325 615759
13 3 O 0.888747 57.8743 3.1061 -1.2 -9.49968 -3.42571e+06 -2.17525e+06 -3.08574e+06 -14408.2 -520215 210575
14 3 O 0.868071 57.7354 5.67844 -1.2 -9.23068 -3.26898e+06 -1.85198e+06 -3.46864e+06 -34284.6 772993 721592
15 1 Mg -0.0723183 54.4727 2.83447 1.2 -7.68935 -782152 2.55797e+06 -147422 688912 -2.20524e+06 1.23391e+06
16 1 Mg 0.763423 50.3462 2.85483 1.2 -7.62887 1.1362e+06 1.93185e+06 -1.55719e+06 -342924 -810021 838804
17 2 Si 2.05335 53.2522 4.40079 2.4 -33.3024 7.84476e+06 7.04287e+06 9.74072e+06 979677 772485 853939
18 3 O -1.16041 53.5512 4.44854 -1.2 -8.92009 -2.66814e+06 -4.21527e+06 -4.75659e+06 1.46592e+06 -1.57893e+06 -1.04337e+06
19 3 O 2.50404 49.3557 2.93513 -1.2 -7.11951 1.17111e+06 889767 -1.95559e+06 -491602 -878524 -1.09806e+06
20 3 O 1.7266 52.2525 3.18953 -1.2 -8.89721 -3.343e+06 -798702 -3.1495e+06 -1.24856e+06 -179277 1.01886e+06
21 1 Mg -0.000798549 54.5089 -0.119564 1.2 -7.65944 -756351 2.75216e+06 1.1315e+06 1.00504e+06 1.40961e+06 -2.3031e+06
22 3 O 1.25103 52.5523 5.64047 -1.2 -10.5032 -3.92405e+06 -3.82225e+06 -6.44993e+06 1.47216e+06 -1.10059e+06 -429660
23 1 Mg 0.10809 57.2764 1.39074 1.2 -7.91102 2.06812e+06 -1076.41 2.12194e+06 -1.06666e+06 92291.1 -809845
24 2 Si -2.07953 55.3838 1.44101 2.4 -33.5015 1.57314e+06 1.01178e+07 8.87943e+06 51217.3 -641735 -1.1944e+06
25 3 O 1.15373 55.2925 1.43917 -1.2 -9.68 -4.71357e+06 -3.11397e+06 -4.50665e+06 -509792 9084.37 663218
26 3 O -1.14453 59.1358 1.41169 -1.2 -9.58732 -1.14885e+06 -2.76896e+06 -3.76278e+06 1.26839e+06 -384803 268228
27 3 O -1.48739 56.0644 0.145907 -1.2 -9.2207 -1.80529e+06 -3.78896e+06 -3.78636e+06 -13045.9 305009 1.62767e+06
28 3 O -1.48715 56.1079 2.70088 -1.2 -8.95893 -2.72835e+06 -3.90315e+06 -4.11013e+06 -648270 -257696 6792.7
29 1 Mg -2.4874 59.6276 0.0610795 1.2 -7.2204 -1.63916e+06 3.66422e+06 401048 -818111 -1.67321e+06 -2.56859e+06
30 1 Mg 2.24545 62.4599 1.45533 1.2 -7.66709 1.14529e+06 -148959 4.17435e+06 810041 -271185 -364938
31 2 Si -0.387333 60.63 1.44909 2.4 -32.0499 2.51214e+06 1.07789e+07 9.61218e+06 572911 616071 -2.38148e+06
32 3 O 1.15182 60.5167 1.57472 -1.2 -10.2859 -2.10758e+06 -3.36855e+06 -3.99494e+06 514007 419760 418420
33 3 O -1.43484 64.2843 1.58504 -1.2 -10.1422 -1.55993e+06 -4.87313e+06 -3.70085e+06 -436110 -207389 313322
34 3 O -0.996271 61.4276 0.151463 -1.2 -9.39518 -1.24438e+06 -1.81542e+06 -2.00524e+06 -78886.5 600690 143042
35 1 Mg -2.27799 69.9536 3.20088 1.2 -7.47014 -2.16665e+06 3.14969e+06 452208 -794628 1.21542e+06 563236
36 3 O -1.0438 61.2826 2.69638 -1.2 -9.66905 -2.42088e+06 -3.75695e+06 -3.35281e+06 -329817 26545.1 -593570
37 1 Mg -2.22733 67.0037 4.47067 1.2 -7.58396 395310 1.04347e+06 2.30791e+06 929395 580880 -1.39168e+06
38 2 Si 0.353025 68.9228 4.62442 2.4 -32.1671 2.56586e+06 8.41929e+06 1.03088e+07 -101766 21016.2 -2.42557e+06
39 3 O -1.1398 68.9827 4.58202 -1.2 -10.1704 -4.25441e+06 -3.00566e+06 -4.96226e+06 -1.03663e+06 -396744 1.01844e+06
40 3 O 1.35492 65.1717 4.57856 -1.2 -9.76178 -495656 -2.7528e+06 -2.73139e+06 -1.55253e+06 203322 -113477
41 3 O 1.14415 68.3276 3.36321 -1.2 -9.65351 -1.9357e+06 -3.63553e+06 -2.64346e+06 -342778 -544932 -232263
42 3 O 1.0916 68.3229 5.96527 -1.2 -9.44056 -1.89062e+06 -2.88295e+06 -2.48715e+06 -126191 1.21777e+06 1.61775e+06
43 1 Mg 0.0250692 64.764 2.97439 1.2 -7.2237 -2.02709e+06 3.75035e+06 6324.04 925506 -977785 862908
44 1 Mg 0.00183361 61.7999 4.45427 1.2 -7.76891 -42298.1 210477 3.78818e+06 -900303 94907.2 -687317
45 2 Si 2.04704 63.6268 4.58999 2.4 -31.7722 5.43165e+06 9.3002e+06 9.87449e+06 -697364 -415600 -1.43279e+06
46 3 O -1.16781 63.7409 4.52947 -1.2 -10.1693 -1.79049e+06 -2.99769e+06 -4.24356e+06 1.02158e+06 -515202 532755
47 3 O 0.971564 59.9766 4.49279 -1.2 -10.1334 -2.55946e+06 -4.82583e+06 -4.78609e+06 886118 -206188 312280
48 3 O 1.24769 63.0447 3.28244 -1.2 -9.62094 -2.23879e+06 -3.03755e+06 -1.98474e+06 107043 1.68033e+06 -496009
49 1 Mg -0.0934083 64.7269 0.0418686 1.2 -6.98178 -2.34124e+06 4.7456e+06 130357 953860 1.28866e+06 -2.19612e+06
50 3 O 1.2715 62.9594 5.83495 -1.2 -9.66544 -1.43782e+06 -2.4831e+06 -2.71135e+06 375859 -1.1285e+06 1.23783e+06
51 1 Mg 0.0602909 67.6795 1.61084 1.2 -7.59965 1.12938e+06 229528 3.69211e+06 -278837 90552.1 -567241
52 2 Si -2.04741 65.7363 1.53897 2.4 -31.2077 3.79175e+06 1.0223e+07 9.02852e+06 1.36365e+06 548234 -1.69783e+06
53 3 O 1.12528 65.6527 1.55157 -1.2 -10.4978 -191070 -3.10836e+06 -3.37893e+06 1.14847e+06 148482 1.44981e+06
54 3 O -1.01829 69.4067 1.63225 -1.2 -9.75743 -1.67465e+06 -3.89645e+06 -3.24818e+06 1.92886e+06 -58060.6 520104
55 3 O -1.31898 66.4852 0.318934 -1.2 -9.95446 -907972 -2.59069e+06 -2.68304e+06 661103 -544640 1.03581e+06
56 3 O -1.29589 66.4449 2.89071 -1.2 -9.807 -735808 -3.14604e+06 -2.35112e+06 1.16425e+06 2.10026e+06 696154
57 1 Mg -2.27264 69.9373 0.115564 1.2 -7.50877 -2.03501e+06 3.77452e+06 1.1382e+06 -855074 -1.22147e+06 -2.0008e+06
58 1 Mg 2.32923 72.7491 1.84715 1.2 -8.12812 1.25417e+06 709088 2.57016e+06 889164 672012 -998239
59 2 Si -0.244121 70.8878 1.55941 2.4 -32.2694 6.66788e+06 9.90862e+06 9.02567e+06 36270.9 -680470 -2.28827e+06
60 3 O 1.34331 70.8218 1.58493 -1.2 -9.91694 -656714 -3.33086e+06 -3.86506e+06 529764 110806 1.27548e+06
61 3 O -1.28784 74.6396 1.71382 -1.2 -9.09292 -2.79159e+06 -5.12797e+06 -3.31724e+06 -614537 -34204 716479
62 3 O -0.918426 71.5681 0.306179 -1.2 -9.18459 -3.2188e+06 -2.13381e+06 -2.67115e+06 -550506 1.20034e+06 492619
63 1 Mg -2.35536 80.4238 3.22738 1.2 -7.83368 -1.21868e+06 3.45261e+06 335674 -1.07961e+06 1.65608e+06 1.77994e+06
64 3 O -0.955605 71.5987 2.85342 -1.2 -9.54792 -2.06118e+06 -3.16559e+06 -3.00499e+06 -519128 -1.73809e+06 596082
65 1 Mg -2.30961 77.6093 4.72181 1.2 -8.34677 1.25469e+06 429263 4.06252e+06 1.06332e+06 -246709 -384767
66 2 Si 0.349749 79.3263 4.68017 2.4 -32.8812 5.55707e+06 9.82823e+06 8.78589e+06 111654 52219.8 -807567
67 3 O -1.21587 79.4452 4.70249 -1.2 -9.65326 -1.42158e+06 -3.72457e+06 -3.97524e+06 -908607 -362030 1470.1
68 3 O 1.47653 75.5522 4.67566 -1.2 -9.05598 -2.95638e+06 -1.80391e+06 -3.71043e+06 -1.50654e+06 152748 -85003.5
69 3 O 1.04602 78.702 3.43397 -1.2 -9.19283 -3.33559e+06 -3.44467e+06 -3.73768e+06 -63326.6 -569141 -738601
70 3 O 1.055 78.6389 5.98116 -1.2 -9.47637 -2.56207e+06 -2.82727e+06 -2.73038e+06 -244759 1.14106e+06 628729
71 1 Mg 0.116275 74.9799 3.23579 1.2 -7.91079 -630974 3.12876e+06 18326.2 385188 -757496 993382
72 1 Mg -0.0461001 72.1464 4.58827 1.2 -7.9075 872975 -71838.6 2.48624e+06 -395990 156363 -1.28457e+06
73 2 Si 2.16625 74.0386 4.79971 2.4 -32.6592 5.48397e+06 1.05491e+07 9.1096e+06 537363 229924 -2.16697e+06
74 3 O -0.998554 74.1982 4.61992 -1.2 -9.75674 -1.4474e+06 -3.34936e+06 -4.71046e+06 386292 -414021 1.13855e+06
75 3 O 1.02077 70.399 4.61168 -1.2 -9.51284 -1.85306e+06 -5.9027e+06 -4.42988e+06 1.21281e+06 419328 561438
76 3 O 1.50664 73.3321 3.4929 -1.2 -9.3036 -2.88239e+06 -3.41705e+06 -3.65011e+06 535258 1.6799e+06 173022
77 1 Mg 0.0710087 75.0161 0.172845 1.2 -8.06258 -861097 4.13601e+06 -521647 1.26971e+06 1.74726e+06 -1.34125e+06
78 3 O 1.47598 73.3571 6.01189 -1.2 -9.60906 -2.22759e+06 -3.04769e+06 -5.1143e+06 -37879.1 -1.37847e+06 1.27888e+06
79 1 Mg 0.113064 78.0118 1.76601 1.2 -8.77896 2.7655e+06 936266 2.01572e+06 -1.12909e+06 121360 -196604
80 2 Si -1.96533 76.0618 1.7413 2.4 -34.2978 8.17881e+06 8.31887e+06 9.60189e+06 444681 156247 -1.11096e+06
81 3 O 1.20093 75.9775 1.67716 -1.2 -8.99639 -2.53758e+06 -2.43539e+06 -3.575e+06 280199 314799 651642
82 3 O -1.03774 79.9231 1.73141 -1.2 -8.99624 -2.52576e+06 -4.26546e+06 -3.14667e+06 693592 563069 845059
83 3 O -1.34544 76.7759 0.415003 -1.2 -8.25526 -4.46676e+06 -2.39946e+06 -1.95218e+06 -469759 -909423 176297
84 3 O -1.29988 76.8575 2.95289 -1.2 -8.66448 -2.6745e+06 -1.55586e+06 -3.47638e+06 272451 745695 750016
85 1 Mg -2.45068 80.3836 0.246264 1.2 -7.94507 -16207.5 4.3557e+06 -168096 -609048 -1.5942e+06 -2.37218e+06
86 1 Mg 2.34521 83.2389 1.79367 1.2 -8.43834 1.49145e+06 48422.2 3.05868e+06 1.14949e+06 77147.3 184085
87 2 Si -0.351964 81.3936 1.76794 2.4 -33.2343 4.62366e+06 1.03859e+07 9.03422e+06 -134397 185290 -179968
88 3 O 1.16891 81.3091 1.77556 -1.2 -9.59293 -3.21227e+06 -3.50549e+06 -4.0226e+06 -576043 -420267 740078
89 3 O -1.25845 84.9844 1.7577 -1.2 -8.97817 -1.60903e+06 -2.44211e+06 -4.26077e+06 -1.44948e+06 581505 -310685
90 3 O -1.02007 82.0656 0.477483 -1.2 -8.79388 -3.17499e+06 -4.0694e+06 -2.65521e+06 387072 621273 849843
91 1 Mg -2.35641 90.4702 3.14561 1.2 -7.98011 -692298 3.40088e+06 764441 -951568 872957 2.38349e+06
92 3 O -1.07823 82.09 3.07955 -1.2 -9.27402 -2.19338e+06 -3.22254e+06 -2.11432e+06 -104056 -1.00327e+06 398374
93 1 Mg -2.25234 87.7585 4.87918 1.2 -8.5029 2.22398e+06 405546 3.00629e+06 347910 -331777 1.22226e+06
94 2 Si 0.346928 89.635 4.70068 2.4 -33.9073 7.25486e+06 9.86508e+06 9.6343e+06 44958.1 261265 1.32946e+06
95 3 O -1.19933 89.7826 4.72752 -1.2 -9.22515 -3.04064e+06 -3.02224e+06 -3.42898e+06 72649 -909239 -305846
96 3 O 1.44877 85.9926 4.7888 -1.2 -9.19149 -3.91222e+06 -5.57215e+06 -4.37862e+06 -536119 387491 -641706
97 3 O 1.08962 88.9132 3.46475 -1.2 -8.9583 -3.05951e+06 -3.27932e+06 -2.76531e+06 -586900 -1.2802e+06 -1.28459e+06
98 3 O 0.927659 88.9473 6.05031 -1.2 -8.48835 -3.31943e+06 -2.9602e+06 -1.68251e+06 -692532 739453 -51305.7
99 1 Mg 0.121362 85.5229 3.31724 1.2 -7.7578 -560133 3.24057e+06 6929.36 1.50113e+06 -1.80571e+06 2.478e+06
100 1 Mg -0.024707 82.6963 4.70791 1.2 -8.042 1.26031e+06 960806 3.15137e+06 -1.01995e+06 -217943 -310750
101 2 Si 2.04686 84.5038 4.77488 2.4 -32.7357 4.60305e+06 9.32495e+06 8.5409e+06 574435 -1.00233e+06 151220
102 3 O -1.15052 84.6203 4.77374 -1.2 -9.60609 -1.84842e+06 -3.81905e+06 -3.84998e+06 1.31404e+06 -1.00799e+06 -392373
103 3 O 0.987888 80.8398 4.69816 -1.2 -9.27007 -2.80147e+06 -3.03093e+06 -3.00405e+06 792264 312536 -522628
104 3 O 1.40826 83.9424 3.4524 -1.2 -9.36377 -3.77526e+06 -4.41547e+06 -3.16671e+06 338465 577480 -1.56573e+06
105 1 Mg 0.154448 85.5119 0.399263 1.2 -8.04212 -841717 3.41934e+06 -85173.5 961248 1.55005e+06 -1.45895e+06
106 3 O 1.26499 83.8549 6.03596 -1.2 -9.55584 -2.01628e+06 -3.95544e+06 -1.60683e+06 363581 -490256 658255
107 1 Mg 0.149104 88.2921 1.71813 1.2 -8.60244 1.27026e+06 -569400 3.47313e+06 -1.03023e+06 123489 690433
108 2 Si -1.94677 86.5435 1.79565 2.4 -33.3045 5.66317e+06 1.01398e+07 1.01305e+07 -981291 -243560 1.75981e+06
109 3 O 1.23463 86.4863 1.79106 -1.2 -9.56418 -2.00465e+06 -3.77082e+06 -5.25717e+06 216416 -609499 -1.10726e+06
110 3 O -0.861626 90.0983 1.71069 -1.2 -8.88981 -1.87729e+06 -2.17669e+06 -2.93306e+06 1.27519e+06 460109 -1.00162e+06
111 3 O -1.24707 87.2103 0.550315 -1.2 -8.9726 -3.55098e+06 -3.35811e+06 -3.558e+06 -63618.2 -398201 -710233
112 3 O -1.29551 87.1659 3.10901 -1.2 -8.96484 -3.52185e+06 -2.79082e+06 -2.5387e+06 -54678.1 812393 -701012
113 1 Mg -2.39742 90.7047 0.231706 1.2 -7.59418 -436228 3.63069e+06 -552475 -1.03461e+06 -982653 -948217
114 1 Mg 2.26308 93.5843 1.70795 1.2 -8.14748 1.77845e+06 590404 2.09452e+06 104996 -112031 120844
115 2 Si -0.256274 91.7056 1.79306 2.4 -33.471 6.41101e+06 1.09117e+07 7.58989e+06 442807 -462557 1.98242e+06
116 3 O 1.36449 91.5565 1.7412 -1.2 -9.52675 -1.49046e+06 -3.04161e+06 -4.29583e+06 -527510 -407713 -934899
117 3 O -1.38408 95.3056 1.71979 -1.2 -9.41813 -2.51442e+06 -5.90036e+06 -3.63168e+06 -623031 280899 1.21431e+06
118 3 O -0.890278 92.3958 0.581459 -1.2 -9.22665 -3.27008e+06 -3.52112e+06 -4.22582e+06 -191824 1.05423e+06 170341
119 1 Mg -2.42813 100.834 3.21162 1.2 -7.90531 -900809 3.6298e+06 207324 -820773 1.65812e+06 1.61554e+06
120 3 O -0.881738 92.3081 3.06861 -1.2 -8.8912 -3.39064e+06 -2.77809e+06 -4.06734e+06 -572173 -624209 -419936
121 1 Mg -2.36086 98.0789 4.70404 1.2 -8.69171 2.2598e+06 268988 2.82194e+06 712165 611609 -311843
122 2 Si 0.25734 99.976 4.75434 2.4 -33.6646 6.73438e+06 9.57725e+06 8.95228e+06 -701640 -449898 109475
123 3 O -1.3052 100.039 4.77028 -1.2 -9.29538 -2.58118e+06 -3.73922e+06 -4.41138e+06 -586636 48829 369522
124 3 O 1.32369 96.3082 4.81261 -1.2 -9.02623 -3.52126e+06 -3.06649e+06 -3.02825e+06 -1.01679e+06 -241121 115334
125 3 O 0.971472 99.2784 3.46275 -1.2 -8.80665 -3.10564e+06 -3.33123e+06 -2.98805e+06 -409464 -1.21636e+06 -415959
126 3 O 0.989763 99.2899 6.00832 -1.2 -8.75869 -4.15606e+06 -4.19218e+06 -2.98303e+06 -470134 1.31698e+06 681450
127 1 Mg -0.0280198 95.9104 3.28718 1.2 -7.82871 -1.3435e+06 4.02546e+06 69722.4 1.03942e+06 -1.4421e+06 1.97012e+06
128 1 Mg -0.0501877 92.9507 4.78422 1.2 -8.49463 1.59875e+06 870100 2.65339e+06 -1.36015e+06 -267066 188830
129 2 Si 1.99505 94.7748 4.73093 2.4 -33.2097 6.68572e+06 1.1495e+07 7.57231e+06 278341 1.17837e+06 1.3377e+06
130 3 O -1.19521 94.9666 4.79673 -1.2 -9.37002 -1.4024e+06 -3.76257e+06 -3.34001e+06 877622 594177 -415330
131 3 O 1.09047 91.0973 4.76066 -1.2 -8.82514 -3.21586e+06 -3.78538e+06 -2.73227e+06 1.21618e+06 -170724 626265
132 3 O 1.31259 94.1221 3.43303 -1.2 -9.18259 -2.39109e+06 -3.23841e+06 -2.17634e+06 -64097.7 715719 -173110
133 1 Mg -0.0755771 95.6467 0.25014 1.2 -7.51718 -1.58145e+06 3.63852e+06 40468.9 1.22386e+06 1.67483e+06 -1.93294e+06
134 3 O 1.32565 94.0258 5.95466 -1.2 -9.15402 -4.07846e+06 -3.597e+06 -2.5228e+06 -448548 -783778 32492.8
135 1 Mg -0.0485042 98.6895 1.71968 1.2 -8.41713 2.32319e+06 -424693 3.93742e+06 -746101 63365.3 -128677
136 2 Si -2.04618 96.7661 1.78113 2.4 -33.2093 5.9595e+06 8.68669e+06 8.37366e+06 -625376 -294570 688220
137 3 O 1.13387 96.7321 1.89704 -1.2 -9.38746 -1.76186e+06 -3.32572e+06 -3.91775e+06 -234738 284978 -110629
138 3 O -1.02363 100.445 1.83129 -1.2 -9.23854 -3.19364e+06 -4.00131e+06 -4.19422e+06 1.15957e+06 203695 -292598
139 3 O -1.41417 97.384 0.501576 -1.2 -9.09441 -2.87811e+06 -4.27154e+06 -4.23555e+06 354400 -529721 1.62809e+06
140 3 O -1.3979 97.4956 3.06562 -1.2 -9.051 -4.54291e+06 -2.44978e+06 -3.03804e+06 377693 672582 -315263
141 1 Mg -2.42937 100.995 0.271792 1.2 -7.88884 -546660 3.64288e+06 -120794 -1.29338e+06 -1.61298e+06 -1.33616e+06
142 1 Mg 7.16584 103.848 1.85772 1.2 -8.34266 2.19599e+06 -63574.8 3.44287e+06 1.09243e+06 223518 468578
143 2 Si -0.378587 101.934 1.78207 2.4 -33.2485 6.56763e+06 9.05477e+06 9.77516e+06 273487 -129460 239681
144 3 O 1.21565 101.862 1.7297 -1.2 -9.42486 -978659 -3.3607e+06 -4.04607e+06 -330888 354555 -34127.4
145 3 O 3.54313 105.572 1.8558 -1.2 -9.20867 -2.29914e+06 -2.60771e+06 -3.8971e+06 -1.68205e+06 -330682 -831915
146 3 O -1.04822 102.593 0.477294 -1.2 -9.13826 -3.28334e+06 -2.27809e+06 -1.6223e+06 40823.9 630643 -113835
147 1 Mg 2.26033 111.319 3.17319 1.2 -8.39424 -155025 3.70052e+06 -135674 -783511 935639 2.0515e+06
148 3 O -1.00197 102.615 3.07717 -1.2 -9.07385 -2.90688e+06 -3.12921e+06 -2.16114e+06 159607 -548597 -171684
149 1 Mg 2.51383 108.6 4.81116 1.2 -8.53374 3.00204e+06 1.34839e+06 2.67157e+06 256310 -292628 880103
150 2 Si 4.95072 110.512 4.70888 2.4 -34.241 6.02323e+06 1.06654e+07 8.61395e+06 -731061 -169869 755936
151 3 O 3.44016 110.625 4.70679 -1.2 -9.23294 -5.0071e+06 -3.20205e+06 -3.74509e+06 53196.9 -259813 3880.72
152 3 O 6.1042 106.774 4.76812 -1.2 -8.67019 -2.13895e+06 -2.99945e+06 -3.17292e+06 -1.92356e+06 473330 534542
153 3 O 5.6895 109.791 3.4294 -1.2 -8.46638 -2.7528e+06 -3.43621e+06 -2.40873e+06 -577766 -1.45552e+06 45545.3
154 3 O 5.62731 109.8 5.95862 -1.2 -8.60482 -2.88204e+06 -3.29331e+06 -3.23704e+06 -556998 853054 480478
155 1 Mg 4.83922 106.11 3.24317 1.2 -8.145 -1.38223e+06 3.8989e+06 -1.02232e+06 637699 -1.50188e+06 1.98105e+06
156 1 Mg -0.0604986 103.303 4.8076 1.2 -8.28287 2.16039e+06 1.59179e+06 2.4577e+06 -465928 73160.7 399328
157 2 Si 6.86344 105.219 4.85674 2.4 -33.4139 7.90222e+06 1.08294e+07 8.35584e+06 -695637 81812.9 659632
158 3 O 3.70456 105.367 4.74836 -1.2 -9.39815 -1.8209e+06 -2.99559e+06 -4.23022e+06 -105282 -231991 39723.5
159 3 O 0.925455 101.415 4.77775 -1.2 -9.10626 -3.40934e+06 -5.16112e+06 -3.27905e+06 868977 -627643 915885
160 3 O 6.18426 104.513 3.57438 -1.2 -9.01571 -3.0943e+06 -3.06653e+06 -1.89741e+06 1.00342e+06 964514 -794855
161 1 Mg 4.84401 106.21 0.287707 1.2 -7.81244 -1.23977e+06 3.52804e+06 169192 735056 1.04913e+06 -1.5344e+06
162 3 O 6.16736 104.659 6.11184 -1.2 -8.95812 -2.95571e+06 -3.64428e+06 -4.62196e+06 297441 -1.6674e+06 643571
163 1 Mg 4.83317 108.977 1.67967 1.2 -8.56707 2.17757e+06 596358 3.54144e+06 -1.08762e+06 119020 788789
164 2 Si 2.77181 107.079 1.78197 2.4 -33.1363 5.85368e+06 1.02168e+07 9.73841e+06 -840422 -99213.4 257143
165 3 O 5.96883 107.014 1.76791 -1.2 -9.58257 -2.17396e+06 -3.37239e+06 -4.92705e+06 -871704 -205553 -438859
166 3 O 3.75691 110.914 1.76326 -1.2 -8.7723 -3.4146e+06 -4.91254e+06 -3.71124e+06 605698 -413258 -947114
167 3 O 3.44891 107.76 0.461048 -1.2 -9.0052 -3.52561e+06 -2.09084e+06 -3.75192e+06 179297 -1.49521e+06 -1.02164e+06
168 3 O 3.39923 107.835 3.01046 -1.2 -8.8827 -3.70275e+06 -2.60731e+06 -1.99474e+06 26565.3 227423 -15786.5
169 1 Mg 2.33251 111.327 0.22042 1.2 -8.12789 -289869 3.19521e+06 430183 -965865 -1.30816e+06 -473419
170 1 Mg 7.12864 114.336 1.56331 1.2 -8.74275 2.7387e+06 527198 2.66352e+06 832596 -57291.2 613220
171 2 Si 4.38086 112.352 1.67714 2.4 -34.1429 7.66566e+06 8.59615e+06 8.73281e+06 -476137 559952 1.43525e+06
172 3 O 5.94883 112.284 1.68414 -1.2 -9.04589 -2.87018e+06 -3.11828e+06 -3.77579e+06 -941973 587857 -849590
173 3 O 3.49665 116.078 1.61596 -1.2 -8.94716 -3.80187e+06 -3.86642e+06 -3.82854e+06 -924898 83355.1 -1.37963e+06
174 3 O 3.63974 113.031 0.353367 -1.2 -8.88839 -3.45825e+06 -2.51906e+06 -4.75233e+06 -911927 2.14147e+06 -151191
175 1 Mg 2.45871 121.642 3.03113 1.2 -8.11503 -567352 4.95616e+06 -393010 -961486 1.54266e+06 1.94084e+06
176 3 O 3.72358 113.097 2.89964 -1.2 -8.43363 -4.3575e+06 -3.62881e+06 -2.53888e+06 -92888.2 -716775 -1.40042e+06
177 1 Mg 2.51613 118.854 4.80797 1.2 -8.91923 3.16501e+06 960109 2.13624e+06 1.09805e+06 -596760 1.64213e+06
178 2 Si 5.17596 120.82 4.50422 2.4 -33.9426 8.68933e+06 1.09718e+07 7.40109e+06 -1.00556e+06 161974 904931
179 3 O 3.54746 120.865 4.57383 -1.2 -8.97109 -834044 -3.79356e+06 -2.38801e+06 -290387 -551960 -210204
180 3 O 6.13402 117.063 4.73406 -1.2 -8.4835 -2.32748e+06 -4.81398e+06 -2.29696e+06 -1.10932e+06 298036 -89455.4
181 3 O 5.82588 120.061 3.27728 -1.2 -8.76449 -3.518e+06 -3.81125e+06 -1.21285e+06 10425 -896827 -892729
182 3 O 5.82824 120.125 5.88939 -1.2 -8.48952 -3.45289e+06 -3.07879e+06 -101451 -122611 1.20699e+06 -752533
183 1 Mg 4.7942 116.512 3.11857 1.2 -8.35245 -702436 4.08928e+06 -155630 1.175e+06 -1.6617e+06 2.90785e+06
184 1 Mg 4.51931 113.771 4.67536 1.2 -8.88132 2.72239e+06 320933 2.66965e+06 -137848 -15845.2 744298
185 2 Si 6.77739 115.588 4.57858 2.4 -34.1453 8.62342e+06 1.18356e+07 6.84427e+06 154568 -1.03668e+06 1.59046e+06
186 3 O 3.6441 115.613 4.67883 -1.2 -9.17786 -2.44496e+06 -4.23847e+06 -2.63462e+06 490984 -337004 -304907
187 3 O 5.68793 111.969 4.70131 -1.2 -8.54669 -3.20521e+06 -4.75419e+06 -3.07995e+06 776972 -289091 -292626
188 3 O 6.1414 114.991 3.27168 -1.2 -8.63381 -3.33397e+06 -4.37131e+06 -3.23384e+06 572123 723769 -787685
189 1 Mg 4.75903 116.715 0.148947 1.2 -7.97828 -549532 3.28451e+06 -45374.2 758540 2.13278e+06 -678157
190 3 O 6.03135 114.841 5.8103 -1.2 -8.49865 -3.21734e+06 -4.69814e+06 -1.61526e+06 1.10664e+06 -1.34269e+06 385227
191 1 Mg 4.87291 119.491 1.4926 1.2 -8.45883 2.3464e+06 623439 3.1004e+06 -681425 335442 275642
192 2 Si 2.76728 117.553 1.62612 2.4 -33.8064 6.18737e+06 1.02589e+07 9.41099e+06 -76296.8 405311 2.17703e+06
193 3 O 5.96128 117.448 1.66276 -1.2 -9.2144 -2.48529e+06 -3.88895e+06 -3.74929e+06 -494616 38544.2 -1.39615e+06
194 3 O 3.9025 121.297 1.57562 -1.2 -9.03387 -2.89835e+06 -4.66063e+06 -2.92774e+06 1.05508e+06 233937 -1.04676e+06
195 3 O 3.39143 118.315 0.380724 -1.2 -9.0282 -2.4215e+06 -3.06191e+06 -2.14619e+06 65429.5 -217186 -707916
196 3 O 3.39499 118.177 2.97757 -1.2 -8.43156 -4.09879e+06 -3.17415e+06 -527380 322516 431931 -1.25158e+06
197 1 Mg 2.52662 121.773 0.0605512 1.2 -7.90649 91480.9 4.29931e+06 -193534 -890385 -621315 -463644
198 1 Mg 7.11361 124.756 1.51389 1.2 -8.64059 2.46293e+06 1.30947e+06 2.51907e+06 563824 436061 456007
199 2 Si 4.50386 122.822 1.61377 2.4 -33.8775 7.54351e+06 1.0333e+07 8.26662e+06 -313167 -634049 1.89945e+06
200 3 O 6.06748 122.721 1.52714 -1.2 -9.1824 -2.31267e+06 -2.94082e+06 -3.24337e+06 -1.34606e+06 38544.1 -733064
201 3 O 3.37179 126.591 1.48249 -1.2 -8.66811 -3.38317e+06 -4.92527e+06 -3.31889e+06 -1.05995e+06 13886.6 -1.13373e+06
202 3 O 3.77712 123.512 0.353451 -1.2 -9.05621 -3.9828e+06 -2.70184e+06 -2.07962e+06 -323105 1.26949e+06 52694.7
203 1 Mg 2.44592 132.152 2.85819 1.2 -8.43482 1.03905e+06 4.07385e+06 218525 -824381 912309 1.6365e+06
204 3 O 3.82802 123.396 2.93999 -1.2 -8.4868 -3.33332e+06 -4.1256e+06 -1.61421e+06 -241667 -968771 -1.34191e+06
205 1 Mg 2.53616 129.344 4.52109 1.2 -8.99061 2.63632e+06 1.49664e+06 1.13783e+06 1.17815e+06 -184915 464461
206 2 Si 5.12333 131.086 4.40915 2.4 -35.0277 4.17087e+06 1.18744e+07 5.52468e+06 -5459.87 -1.31735e+06 -91613
207 3 O 3.65606 131.193 4.4521 -1.2 -8.64726 -7.05648e+06 -5.55803e+06 -2.47437e+06 -216786 -709601 -119833
208 3 O 6.17856 127.437 4.49111 -1.2 -8.13799 -3.51889e+06 -6.1035e+06 -3.16963e+06 -670458 314015 -462078
209 3 O 5.82621 130.476 3.1168 -1.2 -8.53518 -2.84632e+06 -4.78193e+06 -1.85731e+06 472347 -21632.6 -1.27304e+06
210 3 O 5.73648 130.369 5.64979 -1.2 -8.41381 -4.55686e+06 -5.04852e+06 -2.72173e+06 407847 -274045 1.10614e+06
211 1 Mg 4.80568 127.049 2.94874 1.2 -8.59106 655509 3.96956e+06 -730801 805110 -836550 1.91828e+06
212 1 Mg 4.66024 124.055 4.69411 1.2 -8.92411 2.96566e+06 1.25108e+06 1.51054e+06 -815580 243110 483688
213 2 Si 6.8076 125.952 4.3976 2.4 -35.3015 6.29261e+06 1.02091e+07 5.81719e+06 -232060 -12123.1 948437
214 3 O 3.57002 125.93 4.38344 -1.2 -8.56827 -5.99292e+06 -3.87254e+06 -3.68773e+06 705106 737403 -669467
215 3 O 5.82229 122.239 4.5487 -1.2 -8.97745 -3.82659e+06 -6.1509e+06 -1.82197e+06 441833 -219526 766100
216 3 O 6.10001 125.375 3.1364 -1.2 -8.23823 -5.19245e+06 -4.22238e+06 -4.00282e+06 -437538 86245.7 -1.34989e+06
217 1 Mg 4.67083 126.95 -0.108856 1.2 -8.04071 -135219 3.86556e+06 413858 608116 1.33692e+06 -1.04836e+06
218 3 O 6.15908 125.263 5.63401 -1.2 -8.37494 -4.81728e+06 -4.09265e+06 -4.48259e+06 -183606 -395506 636916
219 1 Mg 4.89872 129.847 1.35533 1.2 -8.57377 2.02048e+06 1.36624e+06 2.69639e+06 -662454 489176 421791
220 2 Si 2.66341 128.052 1.46739 2.4 -34.3127 7.42007e+06 9.43192e+06 9.56141e+06 158547 352868 -534670
221 3 O 5.85444 127.935 1.46572 -1.2 -9.09338 -3.44166e+06 -3.36711e+06 -4.26004e+06 299061 141531 176924
222 3 O 3.8255 131.736 1.2268 -1.2 -8.90119 -2.52161e+06 -4.33312e+06 -3.95723e+06 1.34029e+06 -841108 -1.11203e+06
223 3 O 3.34438 128.775 0.18118 -1.2 -8.7066 -3.72338e+06 -3.01163e+06 -1.65538e+06 168743 -1.2519e+06 633832
224 3 O 3.32648 128.612 2.79476 -1.2 -8.34253 -3.87484e+06 -4.91507e+06 -2.24944e+06 186086 1.32642e+06 -1.54863e+06
225 1 Mg 2.45857 132.122 -0.0931724 1.2 -7.97077 -760075 4.28909e+06 -579661 -634568 -1.40555e+06 -1.35707e+06
226 1 Mg 7.11865 135.121 1.23505 1.2 -8.47298 1.94185e+06 1.12572e+06 2.74634e+06 1.07591e+06 -798841 73100
227 2 Si 4.51695 133.215 1.34494 2.4 -33.8708 7.33872e+06 9.57475e+06 1.10478e+07 14982.1 469046 -388249
228 3 O 6.07578 133.137 1.44724 -1.2 -9.25565 -2.73559e+06 -2.33149e+06 -3.88127e+06 -486747 411094 -184605
229 3 O 3.38811 136.979 1.3641 -1.2 -9.02877 -1.51854e+06 -5.50332e+06 -3.38414e+06 -1.44506e+06 -189626 738472
230 3 O 3.79962 133.991 0.104352 -1.2 -8.75686 -2.50887e+06 -2.91586e+06 -461793 -18744.9 995170 481556
231 1 Mg 2.35419 142.557 2.79743 1.2 -8.03148 -176287 3.8854e+06 540307 -334903 685502 1.3761e+06
232 3 O 3.85773 133.706 2.76566 -1.2 -8.33436 -4.7729e+06 -3.80063e+06 -2.25051e+06 -379704 -1.95423e+06 -836615
233 1 Mg 2.37785 139.718 4.31451 1.2 -8.52944 2.76612e+06 1.55877e+06 1.54501e+06 569567 287842 -502079
234 2 Si 4.95923 141.594 4.32701 2.4 -34.3598 4.66207e+06 9.67737e+06 7.85403e+06 512205 -600931 -798566
235 3 O 3.44754 141.694 4.32472 -1.2 -9.20924 -5.27884e+06 -3.57047e+06 -3.46289e+06 362234 -178756 475668
236 3 O 6.11841 137.842 4.34221 -1.2 -8.92117 -2.92906e+06 -5.27728e+06 -1.85461e+06 -1.33715e+06 134746 -625186
237 3 O 5.6107 140.99 3.01525 -1.2 -8.6584 -3.13251e+06 -3.714e+06 -4.15421e+06 -96056.3 -724415 -641237
238 3 O 5.58615 140.868 5.56585 -1.2 -8.53427 -3.8309e+06 -4.23855e+06 -2.70551e+06 -137894 262500 1.44077e+06
239 1 Mg 4.79047 137.429 2.81998 1.2 -7.98476 -619998 4.93246e+06 -939485 695850 -1.08212e+06 809733
240 1 Mg 4.63378 134.334 4.37546 1.2 -9.2395 3.17542e+06 1.71567e+06 -394026 -728494 -360639 -632672
241 2 Si 6.78861 136.335 4.31283 2.4 -34.3543 8.13271e+06 1.22175e+07 5.21946e+06 243396 -242126 -437062
242 3 O 3.60849 136.365 4.29623 -1.2 -8.95931 -2.9259e+06 -3.85486e+06 -2.60183e+06 324949 187034 -276255
243 3 O 5.81435 132.556 4.4455 -1.2 -8.05879 -5.26598e+06 -5.75606e+06 -2.60236e+06 292368 -231900 -181983
244 3 O 6.09125 135.703 3.07059 -1.2 -8.51262 -3.89617e+06 -3.87897e+06 -2.2547e+06 -223842 332018 -642555
245 1 Mg 4.902 137.362 -0.0152316 1.2 -7.88984 -230799 4.55553e+06 -1.12253e+06 432051 226295 -2.00542e+06
246 3 O 6.14498 135.614 5.58385 -1.2 -8.41629 -3.62793e+06 -3.07586e+06 -2.63874e+06 70628.5 -795595 -165199
247 1 Mg 4.73874 140.247 1.33145 1.2 -8.73108 1.8349e+06 597410 2.44446e+06 -918429 -175672 -582407
248 2 Si 2.675 138.457 1.40678 2.4 -33.5366 6.03939e+06 1.09361e+07 7.97753e+06 -1.11581e+06 -682375 -2.10645e+06
249 3 O 5.84726 138.364 1.36095 -1.2 -9.58186 -3.03859e+06 -4.24814e+06 -4.282e+06 -98443 -472031 801639
250 3 O 3.76367 142.116 1.30057 -1.2 -8.89579 -3.60571e+06 -4.28042e+06 -3.26739e+06 1.7729e+06 -679772 1.23241e+06
251 3 O 3.41695 139.128 0.128683 -1.2 -8.56917 -3.69799e+06 -4.72896e+06 -2.05674e+06 438117 -1.80117e+06 1.11489e+06
252 3 O 3.302 139.087 2.67443 -1.2 -9.03529 -3.18862e+06 -4.35288e+06 -3.99375e+06 -464308 739936 -470827
253 1 Mg 2.37532 142.674 -0.0823004 1.2 -8.42772 -530946 4.32147e+06 -1.06861e+06 -306282 -1.07958e+06 -2.11021e+06
254 1 Mg 7.02126 145.634 1.48224 1.2 -8.42424 2.14393e+06 784740 2.04488e+06 417730 413472 -636092
255 2 Si 4.4715 143.579 1.3873 2.4 -33.7604 7.25114e+06 1.08506e+07 9.54629e+06 -1.05631e+06 -261024 311534
256 3 O 6.04178 143.524 1.31755 -1.2 -9.33742 -2.72844e+06 -3.33115e+06 -4.19233e+06 -111262 137432 59481.6
257 3 O 3.41785 147.358 1.4514 -1.2 -9.37984 -3.38898e+06 -3.83942e+06 -2.33592e+06 -1.17887e+06 -91685.6 -269667
258 3 O 3.78639 144.318 0.151087 -1.2 -8.59421 -2.97983e+06 -2.86821e+06 -1.90114e+06 36406.4 583874 662778
259 1 Mg 1.54943 152.483 1.9111 1.2 -7.30911 -1.9155e+06 -698518 -530387 345493 220480 -159115
260 3 O 3.779 144.316 2.72345 -1.2 -8.72899 -2.19388e+06 -1.34783e+06 -1.45826e+06 -402863 -1.59931e+06 1.06648e+06
261 1 Mg 1.76913 150.503 4.90048 1.2 -7.73185 -2.29147e+06 5.92041e+06 -6879.67 -249373 676160 910672
262 2 Si 3.87982 151.054 3.20603 2.4 -32.5999 6.91117e+06 9.92527e+06 2.22004e+06 -1.10276e+06 -1.70089e+06 -371409
263 3 O 2.39172 151.782 3.46405 -1.2 -8.6187 -2.34203e+06 -3.41856e+06 -4.91447e+06 -463001 1.34613e+06 -1.54075e+06
264 3 O 6.00745 148.313 4.45963 -1.2 -9.47312 -2.06609e+06 -4.44213e+06 -1.90526e+06 -1.4311e+06 -53053.9 205037
265 3 O 4.49127 151.806 1.97092 -1.2 -9.37313 -4.84612e+06 -2.765e+06 -4.38158e+06 -160680 80393.6 -97.7526
266 3 O 4.66678 150.987 4.41207 -1.2 -9.54729 -6.51553e+06 -5.55441e+06 -5.26975e+06 -1.46014e+06 -1.09418e+06 1.51763e+06
267 1 Mg 4.72684 147.719 2.90458 1.2 -7.54793 -1.04446e+06 3.91745e+06 -314048 1.32865e+06 -1.87205e+06 580327
268 1 Mg 4.55123 144.886 4.5299 1.2 -8.55999 2.54462e+06 1.15196e+06 2.24936e+06 -793101 308175 456320
269 2 Si 6.72668 146.853 4.40831 2.4 -33.3558 5.83343e+06 1.16899e+07 7.03921e+06 307362 -1.31396e+06 -1.49975e+06
270 3 O 3.54527 146.923 4.44028 -1.2 -9.54959 -2.10949e+06 -3.22951e+06 -2.84039e+06 113063 -523513 322423
271 3 O 5.68994 143.028 4.37078 -1.2 -8.71896 -3.09207e+06 -6.03539e+06 -3.25465e+06 476755 -641639 595052
272 3 O 6.15635 146.188 3.13945 -1.2 -9.05256 -3.98304e+06 -4.07486e+06 -4.5917e+06 -109429 617358 -242196
273 1 Mg 4.79291 147.919 -0.0650798 1.2 -7.53816 -1.78871e+06 4.83492e+06 -645901 398380 737414 -2.57354e+06