ITEM: TIMESTEP
49300
ITEM: NUMBER OF ATOMS
5600
ITEM: BOX BOUNDS xy xz yz pp pp pp
0.0000000000000000e+00 7.1234999999999999e+00 0.0000000000000000e+00
0.0000000000000000e+00 2.0198500000000001e+02 2.3744999999999998e+00
0.0000000000000000e+00 1.1958400000000000e+02 0.0000000000000000e+00
ITEM: ATOMS id type element xu yu zu q c_pe c_s[1] c_s[2] c_s[3] c_s[4] c_s[5] c_s[6]
1 1 Mg -1.48024 48.5192 -1.10545 1.2 -6.76296 -3.26262e+06 -453776 1.92328e+06 -218743 115028 -1.19076e+06
2 1 Mg 3.15337 49.5151 2.24612 1.2 -7.02825 -3.3972e+06 3.05596e+06 -252042 57724.3 351843 -287637
3 2 Si 0.934338 50.0771 0.15868 2.4 -32.6465 7.88572e+06 5.63676e+06 4.99549e+06 -2.72169e+06 -144518 -78956.2
4 3 O 2.35147 49.2676 0.432436 -1.2 -9.1408 -3.069e+06 -3.31222e+06 -3.3887e+06 -1.02802e+06 644822 1.24112e+06
5 3 O -1.19634 52.8667 1.42705 -1.2 -9.3603 31322 -5.23566e+06 -3.34711e+06 -618722 932686 20276.9
6 3 O 0.186832 49.3408 -0.896193 -1.2 -9.60287 -6.8303e+06 -3.0054e+06 -5.28851e+06 -138219 -2.26945e+06 -599598
7 1 Mg -2.25258 58.598 3.09499 1.2 -7.82478 -1.18837e+06 3.21831e+06 -257360 -1.24073e+06 1.42881e+06 941486
8 3 O 0.202394 50.0207 1.59838 -1.2 -9.69242 -4.10333e+06 -3.07846e+06 -1.78759e+06 319889 -1.90207e+06 -1.3155e+06
9 1 Mg -2.27294 55.3905 4.67551 1.2 -7.57968 800463 1.92192e+06 3.32653e+06 170125 -40650.3 -50929.4
10 2 Si 0.546657 57.6444 4.56743 2.4 -32.4344 2.97676e+06 8.35035e+06 8.48011e+06 -1.2018e+06 429371 -653981
11 3 O -0.918796 57.9963 4.51069 -1.2 -9.62216 -5.22673e+06 -4.24016e+06 -3.98123e+06 -1.72692e+06 128886 -421330
12 3 O 1.85207 53.3357 4.47567 -1.2 -9.0096 -4.05916e+06 21495.3 -739316 -2.43897e+06 312608 1.9224e+06
13 3 O 1.24078 56.9691 3.32344 -1.2 -9.39782 -2.40244e+06 -3.86754e+06 -2.22233e+06 494817 138207 -982987
14 3 O 1.26917 56.9451 5.86879 -1.2 -9.70515 -449583 -2.80632e+06 -3.03834e+06 -521359 1.03087e+06 1.69136e+06
15 1 Mg 0.578849 52.6225 2.54654 1.2 -7.10728 1.33789e+06 3.19655e+06 1.91209e+06 315715 -321717 1.25557e+06
16 1 Mg 0.8928 49.3206 3.28652 1.2 -6.53771 -2.42635e+06 3.11355e+06 -2.45434e+06 -699225 11917 -9816.57
17 2 Si 2.61274 51.8187 4.46155 2.4 -32.5465 8.93913e+06 9.49065e+06 7.43882e+06 -421806 -1.27323e+06 -1.43982e+06
18 3 O -0.602364 52.2343 4.52727 -1.2 -9.30246 -2.24466e+06 -2.78628e+06 -520345 1.91029e+06 -954001 906348
19 3 O 2.44141 48.1042 3.28177 -1.2 -8.09132 1.44628e+06 -1.19626e+06 -3.32854e+06 -1.3241e+06 -544465 -14056.2
20 3 O 2.04405 51.1014 3.23233 -1.2 -10.0105 -1.27165e+06 -2.80267e+06 -5.43075e+06 -1.5242e+06 826370 -1.05038e+06
21 1 Mg 0.105799 53.5159 0.060003 1.2 -7.29006 -1.59289e+06 4.3344e+06 -1.71498e+06 1.77651e+06 2.46175e+06 -301720
22 3 O 1.8181 50.9363 5.71808 -1.2 -10.7521 174801 -2.56885e+06 -2.32698e+06 3.25255e+06 -1.84561e+06 -756211
23 1 Mg 0.152433 56.4218 1.64299 1.2 -8.23254 2.93194e+06 1.11905e+06 2.24013e+06 -1.2806e+06 340167 -758061
24 2 Si -1.80284 54.3327 1.63202 2.4 -33.4914 2.61052e+06 1.06516e+07 9.39092e+06 -279606 273493 -1.221e+06
25 3 O 1.42485 54.2637 1.60016 -1.2 -9.52615 -3.72965e+06 -2.36989e+06 -3.68327e+06 707047 79500.6 426839
26 3 O -0.910959 58.2681 1.49794 -1.2 -9.04353 -2.00887e+06 -3.27457e+06 -2.27297e+06 363520 158704 202967
27 3 O -1.20301 55.1721 0.347145 -1.2 -8.77437 -3.391e+06 -3.22966e+06 -1.63547e+06 -700484 877198 571168
28 3 O -1.29031 55.1014 2.91247 -1.2 -8.79925 -3.40086e+06 -1.9993e+06 -1.56893e+06 412904 -692154 1.80192e+06
29 1 Mg -2.39114 58.7027 -0.0528256 1.2 -7.75718 -273206 4.59522e+06 -44833.8 -613413 -1.07522e+06 -2.25579e+06
30 1 Mg 2.38368 61.6463 1.67404 1.2 -8.56663 1.79383e+06 132434 1.78341e+06 874448 2717.81 -1.0654e+06
31 2 Si -0.242167 59.7883 1.57408 2.4 -33.5431 6.31711e+06 1.05489e+07 9.77772e+06 10371.1 549962 -1.55967e+06
32 3 O 1.26129 59.5723 1.69006 -1.2 -9.42457 -3.64054e+06 -2.86344e+06 -2.52759e+06 -1.15505e+06 -418510 1.07836e+06
33 3 O -1.21552 63.5584 1.52608 -1.2 -9.14144 -1.36582e+06 -2.90642e+06 -2.44945e+06 -1.35349e+06 8160.32 1.05806e+06
34 3 O -0.905612 60.4953 0.243074 -1.2 -8.43211 -3.05985e+06 -3.23925e+06 -1.65678e+06 138233 1.51175e+06 707650
35 1 Mg -2.42307 69.1933 3.12138 1.2 -7.64627 -642871 3.09826e+06 854564 -1.27161e+06 1.81266e+06 1.32852e+06
36 3 O -0.992256 60.4636 2.86754 -1.2 -9.09802 -1.93895e+06 -2.85698e+06 -1.41191e+06 -436455 -854068 526571
37 1 Mg -2.26487 66.2969 4.82302 1.2 -7.71004 1.68897e+06 1.08567e+06 3.18274e+06 839135 -617355 -290388
38 2 Si 0.413088 68.173 4.55773 2.4 -32.3133 3.97416e+06 8.26074e+06 9.65247e+06 636383 919942 -1.8332e+06
39 3 O -1.16653 68.2807 4.58677 -1.2 -9.83084 -292370 -1.86559e+06 -4.88785e+06 -604633 311317 -519961
40 3 O 1.49607 64.3106 4.95603 -1.2 -9.37369 -2.5178e+06 -2.81581e+06 -3.34532e+06 -1.37893e+06 6446.37 958284
41 3 O 1.04995 67.5586 3.36766 -1.2 -9.37705 -3.62199e+06 -3.65031e+06 -6.26663e+06 153102 478830 -1.37292e+06
42 3 O 1.0995 67.5707 5.89828 -1.2 -9.71349 -2.03075e+06 -844521 -3.76374e+06 -775329 1.05693e+06 -395066
43 1 Mg 0.223435 63.9479 3.33383 1.2 -7.49374 -1.53034e+06 3.10523e+06 2.00326e+06 1.33297e+06 -1.27668e+06 2.2141e+06
44 1 Mg -0.0463605 60.8546 4.67385 1.2 -7.91942 1.02469e+06 1.03071e+06 2.97757e+06 -821700 708141 -223506
45 2 Si 2.12329 62.775 4.70456 2.4 -32.1881 6.6629e+06 8.19584e+06 1.07978e+07 49040.8 -348491 2.51029e+06
46 3 O -1.00015 62.863 4.61237 -1.2 -9.7099 761334 -2.29124e+06 -3.86912e+06 803067 -221587 -1.00696e+06
47 3 O 1.21207 59.102 4.61337 -1.2 -9.21779 -5.55368e+06 -3.89232e+06 -5.56976e+06 -518871 -382988 440156
48 3 O 1.48125 62.3661 3.22523 -1.2 -9.38928 -3.93373e+06 -1.64717e+06 -1.43592e+06 871200 1.76465e+06 -786180
49 1 Mg 0.0174658 64.184 0.105887 1.2 -7.78855 -1.14212e+06 4.22059e+06 -437579 884082 2.36096e+06 -479157
50 3 O 1.39943 62.1666 5.92009 -1.2 -9.6577 -1.9523e+06 -6.30302e+06 -1.67727e+06 -181793 -1.01684e+06 1.96232e+06
51 1 Mg 0.00671359 66.6717 1.78466 1.2 -8.38453 321340 158890 2.31087e+06 -1.58416e+06 -176971 -1.05246e+06
52 2 Si -1.95352 65.0145 1.77007 2.4 -32.1946 5.15221e+06 1.21073e+07 9.02649e+06 -1.55424e+06 1.48705e+06 684863
53 3 O 1.25749 65.086 1.76153 -1.2 -9.86384 -1.47429e+06 -4.83543e+06 -2.61152e+06 217906 1.35081e+06 -363560
54 3 O -0.925078 68.7544 1.55748 -1.2 -8.59102 -3.95284e+06 -4.47021e+06 -2.613e+06 1.30748e+06 355341 -732520
55 3 O -1.31258 65.7848 0.474911 -1.2 -9.27597 -4.04406e+06 -6.14267e+06 -1.93658e+06 101177 -2.16176e+06 697609
56 3 O -1.14789 65.6465 3.12153 -1.2 -9.57792 -1.09305e+06 -1.94026e+06 -1.34197e+06 95335.7 1.32139e+06 739040
57 1 Mg -2.3507 69.374 0.0950486 1.2 -8.20435 -35420.6 3.87001e+06 106632 -1.4259e+06 -1.00119e+06 -878949
58 1 Mg 2.42038 72.2017 1.74727 1.2 -8.84203 1.63659e+06 -196641 1.94941e+06 1.59485e+06 -852551 480650
59 2 Si -0.335771 70.2309 1.47383 2.4 -34.1551 7.97072e+06 1.10557e+07 5.127e+06 -281796 11768.1 -116906
60 3 O 1.3019 70.2333 1.60615 -1.2 -8.94027 -1.53987e+06 -3.83996e+06 -2.70891e+06 -731108 479066 -115246
61 3 O -1.35855 74.0288 1.52727 -1.2 -8.85583 -3.55946e+06 -5.94229e+06 -4.17257e+06 -1.07804e+06 -174462 8121
62 3 O -0.989622 70.8458 0.212002 -1.2 -8.4932 -3.99224e+06 -5.22932e+06 -5.94297e+06 249394 1.51763e+06 -45131.5
63 1 Mg -2.16262 79.9404 2.91144 1.2 -7.28428 -2.73186e+06 3.36266e+06 -559670 -1.45745e+06 2.11923e+06 1.86578e+06
64 3 O -1.00984 71.0974 2.58589 -1.2 -8.93322 -4.67372e+06 -2.54869e+06 -6.16608e+06 534707 -1.11082e+06 -376996
65 1 Mg -2.22914 77.0397 4.60094 1.2 -8.27224 2.20784e+06 -370693 4.09654e+06 1.11293e+06 718147 -870047
66 2 Si 0.459703 78.8743 4.38664 2.4 -32.5548 3.48401e+06 1.01318e+07 7.10634e+06 434165 -227937 -285111
67 3 O -1.06672 78.9878 4.46104 -1.2 -9.85457 -2.54344e+06 -3.63169e+06 -3.46009e+06 -274133 982373 -493757
68 3 O 1.38527 75.2047 4.82879 -1.2 -8.89737 -3.2825e+06 -1.73786e+06 -6.29585e+06 -428016 1.05773e+06 1.87554e+06
69 3 O 0.998209 78.1429 3.16679 -1.2 -8.71716 -3.37075e+06 -4.02281e+06 -5.56684e+06 299178 295741 -737583
70 3 O 1.2166 78.2421 5.65458 -1.2 -9.92732 -2.00582e+06 -2.47369e+06 -4.07122e+06 -790253 589831 505488
71 1 Mg 0.015358 74.5147 3.15002 1.2 -8.01704 -1.28136e+06 2.98271e+06 598445 1.36362e+06 -1.12875e+06 1.68379e+06
72 1 Mg -0.0815662 71.5981 4.34651 1.2 -7.97904 2.15095e+06 478762 3.39285e+06 -699515 -680060 207207
73 2 Si 2.03701 73.7107 4.71493 2.4 -33.2062 6.59557e+06 7.97724e+06 1.06051e+07 -98971.5 779751 -312493
74 3 O -1.11721 73.6647 4.69537 -1.2 -9.34326 -804539 -1.90401e+06 -4.84446e+06 -291833 204660 403762
75 3 O 1.00726 69.7985 4.47149 -1.2 -9.41821 -1.46985e+06 -502917 -4.04594e+06 681828 743320 -1.06567e+06
76 3 O 1.39275 73.0601 3.40614 -1.2 -9.34052 -2.51985e+06 -1.74337e+06 -3.69234e+06 880376 491346 -159845
77 1 Mg 0.170757 74.4281 0.185001 1.2 -8.34851 -313597 3.76427e+06 -215379 606143 1.69073e+06 -1.61094e+06
78 3 O 1.43417 73.0249 6.02 -1.2 -8.97676 -4.46171e+06 -3.00611e+06 -3.63872e+06 161251 -1.03321e+06 229749
79 1 Mg -0.0310108 77.4258 1.57753 1.2 -8.89719 3.38711e+06 -169737 3.16034e+06 -798161 -222757 -1.38272e+06
80 2 Si -2.00424 75.4427 1.6092 2.4 -34.1035 7.99561e+06 9.08367e+06 9.33872e+06 -167783 132949 947182
81 3 O 1.15612 75.5067 1.81576 -1.2 -8.91002 -1.71316e+06 -3.50953e+06 -3.84109e+06 -88342.8 1.00756e+06 61140.5
82 3 O -0.911601 79.2823 1.49507 -1.2 -9.0006 -3.76387e+06 -3.5798e+06 -4.18894e+06 1.91249e+06 -630033 2.35247e+06
83 3 O -1.43042 76.2137 0.397092 -1.2 -8.40641 -4.07783e+06 -4.50284e+06 -4.60358e+06 957680 -1.0586e+06 1.46676e+06
84 3 O -1.24453 76.2094 2.9627 -1.2 -8.4804 -4.69423e+06 421068 -2.02694e+06 547380 696644 1.26772e+06
85 1 Mg -2.2078 79.7248 0.109028 1.2 -8.27651 -934369 4.86974e+06 -1.28369e+06 -766157 -1.89089e+06 -1.77788e+06
86 1 Mg 2.3514 82.6114 1.49599 1.2 -8.16337 526202 1.36717e+06 1.85511e+06 777209 -712468 1.37726e+06
87 2 Si -0.200941 80.8585 1.63671 2.4 -32.3478 3.80139e+06 1.23266e+07 6.8879e+06 -544631 1.03423e+06 1.13397e+06
88 3 O 1.30486 80.729 1.50996 -1.2 -9.76855 -3.02035e+06 -5.04045e+06 -5.00427e+06 -1.10399e+06 -145106 566555
89 3 O -1.42158 84.5496 1.48169 -1.2 -9.01712 -3.74568e+06 -6.4038e+06 -2.42622e+06 -508703 281213 279465
90 3 O -0.970652 81.4446 0.383519 -1.2 -9.10344 -3.70532e+06 -5.34574e+06 -2.66765e+06 74244.9 512719 1.14153e+06
91 1 Mg -2.47248 90.3261 3.26864 1.2 -6.75346 -2.2727e+06 2.88704e+06 1.29732e+06 -520397 631780 3.44065e+06
92 3 O -0.960929 81.5267 2.86106 -1.2 -9.88343 -2.99499e+06 -4.32518e+06 -4.81419e+06 -542661 -1.62164e+06 -134969
93 1 Mg -2.41101 87.5078 4.52192 1.2 -7.83904 -285006 -219103 3.46361e+06 1.36557e+06 -411571 1.17851e+06
94 2 Si 0.251846 89.2943 4.70661 2.4 -31.4879 3.19109e+06 9.26265e+06 1.00778e+07 -850275 1.43628e+06 1.07239e+06
95 3 O -1.30056 89.418 4.69762 -1.2 -10.2704 -641568 -4.04859e+06 -4.95033e+06 -957456 372974 -662171
96 3 O 1.44512 85.5121 4.6309 -1.2 -9.56418 -2.56907e+06 -4.23115e+06 -5.64978e+06 -2.16262e+06 -371209 -1.3918e+06
97 3 O 0.933924 88.5348 3.54566 -1.2 -10.3167 -2.5239e+06 -1.33947e+06 -6.65053e+06 1.02872e+06 -1.64465e+06 -353990
98 3 O 1.0426 88.5489 6.0718 -1.2 -9.2129 -2.56987e+06 -3.10344e+06 -1.54366e+06 113821 2.42772e+06 -1.2917e+06
99 1 Mg 0.0947893 85.1796 3.25004 1.2 -7.17535 -1.87928e+06 2.18512e+06 -398621 229088 -1.25977e+06 3.34213e+06
100 1 Mg -0.17448 82.1425 4.52138 1.2 -7.4221 730573 799888 360180 -588447 -245561 411759
101 2 Si 2.12845 84.0358 4.59029 2.4 -32.1077 3.09326e+06 9.72144e+06 1.10067e+07 628503 662776 2.15211e+06
102 3 O -1.02031 84.1153 4.66603 -1.2 -10.3484 -1.17321e+06 -3.34909e+06 -5.01875e+06 75511.3 277249 -948136
103 3 O 1.1165 80.4057 4.27275 -1.2 -9.68739 -1.87249e+06 -3.82355e+06 -3.1885e+06 554468 9826.31 -124343
104 3 O 1.45301 83.4311 3.25152 -1.2 -9.40696 -797062 -3.14681e+06 -2.00399e+06 310892 1.10997e+06 37275.7
105 1 Mg 0.118766 84.9844 0.0938507 1.2 -7.78722 310483 4.11595e+06 654023 404457 541802 -1.22719e+06
106 3 O 1.53056 83.3885 5.89525 -1.2 -9.6596 -1.52952e+06 -4.18405e+06 -1.79296e+06 225691 -675953 148749
107 1 Mg 0.047295 87.8322 1.84456 1.2 -7.94368 1.00868e+06 527532 3.46819e+06 -710706 -420472 298808
108 2 Si -2.03215 85.9573 1.67711 2.4 -33.1216 5.07773e+06 8.65653e+06 6.68814e+06 556796 -896006 -348980
109 3 O 1.07667 85.8221 1.66002 -1.2 -9.66033 -1.65581e+06 -3.91526e+06 -3.33018e+06 350547 -58456.3 869078
110 3 O -0.970534 89.6936 1.81514 -1.2 -9.02748 -1.1361e+06 -1.88853e+06 -4.43186e+06 1.88582e+06 202885 -256530
111 3 O -1.42071 86.7647 0.467917 -1.2 -8.81438 -3.00853e+06 -4.94596e+06 -4.2624e+06 -325757 -947925 1.36191e+06
112 3 O -1.44855 86.5863 2.93595 -1.2 -9.77491 -1.82547e+06 -2.68562e+06 -7.85001e+06 -530645 662661 -1.35409e+06
113 1 Mg -2.30272 90.1051 0.413873 1.2 -8.05845 482221 3.94797e+06 -506435 -985672 -1.61329e+06 -524015
114 1 Mg 2.52365 93.1591 1.77534 1.2 -7.73935 -602095 1.10461e+06 2.46816e+06 1.58408e+06 -503481 3.53662e+06
115 2 Si -0.284444 91.3416 1.82798 2.4 -32.036 2.43676e+06 8.87572e+06 7.32866e+06 1.92745e+06 -116382 3.18733e+06
116 3 O 1.22046 91.1872 1.7518 -1.2 -10.0777 -3.60835e+06 -3.32209e+06 -3.86631e+06 -1.2249e+06 -610808 -1.55342e+06
117 3 O -1.35792 95.2283 1.91485 -1.2 -9.87111 -1.82364e+06 -4.01647e+06 -2.41768e+06 -2.07535e+06 142289 -1.16021e+06
118 3 O -0.993952 91.8604 0.534775 -1.2 -9.02704 -3.71338e+06 -2.54098e+06 -4.177e+06 803913 -82325.6 -1.37069e+06
119 1 Mg -2.37189 100.778 3.46247 1.2 -7.36687 -1.41077e+06 4.49108e+06 -1.68983e+06 -1.52925e+06 2.34956e+06 1.88147e+06
120 3 O -1.01374 91.9853 2.95843 -1.2 -10.2549 -1.97166e+06 -3.21101e+06 -8.86482e+06 1.24037e+06 -146030 -3.53882e+06
121 1 Mg -2.28995 98.061 4.88635 1.2 -8.23302 1.6322e+06 -43282.2 2.96416e+06 969944 277319 -127017
122 2 Si 0.357748 99.8807 4.87878 2.4 -32.7621 826934 9.15419e+06 8.63305e+06 -601690 -1.14688e+06 921428
123 3 O -1.16095 99.8222 4.75431 -1.2 -9.73123 -3.33887e+06 -4.53747e+06 -4.93982e+06 -451906 -273357 -191383
124 3 O 1.53474 96.1826 4.81048 -1.2 -9.06181 -2.35334e+06 -3.93178e+06 -3.85336e+06 -892290 -568802 1.67027e+06
125 3 O 0.950961 99.2259 3.44854 -1.2 -9.05812 -3.94079e+06 -4.17006e+06 -2.21554e+06 -437163 -433146 -554093
126 3 O 1.01039 99.1226 6.04551 -1.2 -9.43514 -3.87621e+06 -4.58963e+06 -5.38898e+06 285592 162611 1.17425e+06
127 1 Mg 0.109786 95.6474 3.2191 1.2 -7.32425 -2.06382e+06 3.52318e+06 -349442 -193625 -387223 2.73009e+06
128 1 Mg 0.00461363 92.6665 4.50256 1.2 -7.56814 1.82708e+06 1.06847e+06 1.06897e+06 -134570 -591949 559665
129 2 Si 2.26364 94.723 4.7375 2.4 -33.3037 3.1533e+06 1.05962e+07 9.76621e+06 -201157 655152 2.40236e+06
130 3 O -0.988868 94.7993 4.75608 -1.2 -9.69262 -4.75583e+06 -3.49692e+06 -4.96798e+06 -433259 704352 -82162.8
131 3 O 0.895256 90.7553 4.84424 -1.2 -10.1137 -3.45038e+06 -4.41707e+06 -1.8238e+06 1.3329e+06 215420 -1.22473e+06
132 3 O 1.55292 93.9014 3.44598 -1.2 -9.48663 -360743 -350809 -2.84595e+06 867854 1.41217e+06 -420899
133 1 Mg 0.0474319 95.7898 0.263958 1.2 -6.83041 -2.39304e+06 4.76186e+06 -254627 886990 1.73148e+06 -209506
134 3 O 1.66939 94.0727 6.03201 -1.2 -8.65382 -4.24558e+06 -4.40496e+06 -3.18156e+06 111309 -961725 -109834
135 1 Mg -0.117153 98.6374 2.04576 1.2 -8.01291 620742 121157 1.56271e+06 -2.20932e+06 -1.06028e+06 -590324
136 2 Si -2.04437 96.6903 1.88685 2.4 -32.219 4.75671e+06 1.09974e+07 8.44565e+06 -56607.8 -977678 797171
137 3 O 1.16617 96.6379 1.96233 -1.2 -9.92877 -2.27076e+06 -4.44222e+06 -4.07738e+06 416744 -276011 -79456.5
138 3 O -1.22994 100.549 1.83359 -1.2 -9.39105 -2.25864e+06 -7.66406e+06 -4.3169e+06 118328 -147111 1.85488e+06
139 3 O -1.22581 97.4317 0.60961 -1.2 -9.43665 -2.18148e+06 -2.3033e+06 -2.97498e+06 763346 -1.80858e+06 -404901
140 3 O -1.35936 97.4752 3.10012 -1.2 -9.09443 -4.20866e+06 -3.15225e+06 -4.14728e+06 -531142 1.30485e+06 -216341
141 1 Mg -2.7129 100.86 0.543465 1.2 -7.61156 -1.21213e+06 3.38698e+06 -523391 -1.10981e+06 -2.41392e+06 -432779
142 1 Mg 6.90825 103.863 1.76046 1.2 -7.87952 453334 2.58423e+06 2.36285e+06 796347 -1.01202e+06 -339388
143 2 Si -0.586802 101.973 1.93929 2.4 -32.8838 6.44404e+06 6.82479e+06 6.73777e+06 358339 -152374 4.26162e+06
144 3 O 1.05513 101.905 2.05317 -1.2 -9.33343 -95671.9 -2.55917e+06 -4.15325e+06 -180849 -173911 -1.43747e+06
145 3 O 2.95826 105.868 1.95546 -1.2 -9.07423 -2.17232e+06 -4.23574e+06 -1.82349e+06 -1.00626e+06 -491715 -507067
146 3 O -1.12798 102.556 0.726645 -1.2 -9.24123 -2.55185e+06 -6.65049e+06 -4.92318e+06 907691 -995402 2.78921e+06
147 1 Mg 2.13523 111.368 3.33217 1.2 -8.58973 1.10212e+06 3.66879e+06 864717 -1.09302e+06 1.48289e+06 805099
148 3 O -1.22876 102.658 3.32497 -1.2 -9.11102 -3.89037e+06 -1.09266e+06 453843 -799694 -1.02962e+06 -165661
149 1 Mg 2.19897 108.548 4.96141 1.2 -8.65833 1.63869e+06 1.45427e+06 2.88904e+06 1.25143e+06 -423009 -980993
150 2 Si 4.89668 110.513 4.92296 2.4 -34.2373 1.12958e+07 1.09995e+07 7.22164e+06 -99086.7 222773 -1.52093e+06
151 3 O 3.26828 110.611 4.86073 -1.2 -8.4931 -731970 -4.4698e+06 -2.69496e+06 -333624 524696 986711
152 3 O 5.90362 106.751 4.78191 -1.2 -9.01286 -3.9326e+06 -3.12388e+06 -3.86623e+06 -1.37611e+06 395557 2.0626e+06
153 3 O 5.53744 109.834 3.60567 -1.2 -8.53333 -4.64963e+06 -2.13526e+06 -774287 108079 -1.44771e+06 720422
154 3 O 5.61763 109.865 6.16963 -1.2 -8.89339 -3.97238e+06 -4.438e+06 -2.5169e+06 -823016 946769 3.16679e+06
155 1 Mg 4.39717 106.502 3.41251 1.2 -7.79796 126296 3.95595e+06 -1.34948e+06 549296 -945006 309395
156 1 Mg -0.190414 103.341 4.96151 1.2 -8.16195 386809 1.36166e+06 2.38357e+06 -1.0422e+06 129268 374583
157 2 Si 6.5976 105.217 4.71476 2.4 -33.0754 5.77494e+06 1.11214e+07 9.62452e+06 825470 6087.21 -1.47187e+06
158 3 O 3.37142 105.555 4.8992 -1.2 -9.59181 -3.57171e+06 -3.27184e+06 -3.94841e+06 1.49032e+06 143397 802472
159 3 O 0.939657 101.294 4.93686 -1.2 -9.591 -1.96254e+06 -6.76437e+06 -4.22263e+06 -752913 -65960.3 1.12054e+06
160 3 O 5.8132 104.474 3.59368 -1.2 -9.05634 -1.12871e+06 -4.22453e+06 -2.39635e+06 -264170 809233 -39223.8
161 1 Mg 4.71301 106.062 0.483064 1.2 -7.39677 540264 3.50103e+06 572625 87506.4 -17038.9 -1.78257e+06
162 3 O 5.92064 104.522 6.07687 -1.2 -8.90842 -1.94699e+06 -1.95475e+06 -2.17755e+06 -609481 -784632 -223925
163 1 Mg 4.55673 109.108 1.73614 1.2 -8.77747 1.54474e+06 1.24176e+06 3.17465e+06 -1.09038e+06 332670 -232676
164 2 Si 2.44898 107.41 1.72615 2.4 -33.616 6.61753e+06 1.06259e+07 8.07917e+06 115897 -490355 -967035
165 3 O 5.54472 107.241 1.83788 -1.2 -9.36029 -1.23546e+06 -3.75476e+06 -3.40166e+06 1.97617e+06 -1.50152e+06 703179
166 3 O 3.56565 111.089 1.80437 -1.2 -8.15 -3.0531e+06 -2.72718e+06 -3.45049e+06 624473 261733 645293
167 3 O 3.17182 107.99 0.532338 -1.2 -8.96728 -3.57397e+06 -3.26341e+06 -4.4565e+06 -725030 -774663 917433
168 3 O 3.07846 108.071 3.0425 -1.2 -8.61752 -3.75984e+06 -5.44911e+06 -1.39343e+06 5057.66 1.30523e+06 -279490
169 1 Mg 2.07458 111.494 0.434334 1.2 -8.4068 1.55174e+06 3.2757e+06 -672474 -875850 -977780 -1.66574e+06
170 1 Mg 6.79165 114.713 1.5789 1.2 -8.32845 2.24611e+06 1.50393e+06 478431 525213 -274430 -1.83993e+06
171 2 Si 4.18017 112.662 1.95098 2.4 -34.9459 7.85704e+06 9.97542e+06 6.50186e+06 287000 -182288 -1.31703e+06
172 3 O 5.71978 112.504 1.71391 -1.2 -8.55014 -4.42307e+06 -2.57913e+06 -3.98688e+06 -1.37009e+06 44184.9 -107396
173 3 O 3.27203 116.326 1.61544 -1.2 -9.31024 -2.32263e+06 -6.38607e+06 -729721 -312784 -825396 -595224
174 3 O 3.47875 113.431 0.772362 -1.2 -8.72838 -4.5157e+06 -4.27102e+06 -2.27584e+06 730245 427465 1.98225e+06
175 1 Mg 2.22449 122.164 3.04763 1.2 -8.56955 243776 4.83492e+06 -1.08579e+06 -463744 1.41444e+06 41467.4
176 3 O 3.62731 113.077 3.29204 -1.2 -8.36578 -4.11116e+06 -3.87421e+06 -5.76153e+06 94074.5 -368314 368047
177 1 Mg 2.35122 119.325 4.44226 1.2 -9.43735 1.76126e+06 -635416 4.06813e+06 684035 31266.4 -1.10169e+06
178 2 Si 4.95013 121.066 4.46004 2.4 -34.3902 1.14046e+07 1.08737e+07 1.00183e+07 -622829 -43205.7 -3.70011e+06
179 3 O 3.27993 121.107 4.61383 -1.2 -8.63845 -1.10014e+06 -3.47261e+06 -4.8315e+06 -1.28349e+06 -1.41191e+06 1.56462e+06
180 3 O 6.13569 117.481 4.36956 -1.2 -8.56127 -2.92096e+06 -844949 -974781 -1.29179e+06 -344844 1.63047e+06
181 3 O 5.77063 120.28 3.3325 -1.2 -8.28693 -4.11024e+06 -3.30659e+06 -3.03976e+06 228342 -1.33088e+06 1.20489e+06
182 3 O 5.59642 120.502 5.89709 -1.2 -7.80006 -5.84259e+06 -2.65601e+06 -2.5027e+06 -612470 3.30078e+06 1.60749e+06
183 1 Mg 4.54837 116.928 3.18007 1.2 -7.88689 -1.14535e+06 4.64712e+06 16103.9 632684 -1.1657e+06 334240
184 1 Mg 4.48605 113.881 4.84985 1.2 -8.80243 2.80479e+06 1.9101e+06 459687 -359913 -150838 -947867
185 2 Si 6.72716 115.84 4.45257 2.4 -32.7523 6.85415e+06 1.60887e+07 6.65208e+06 1.19356e+06 591819 -2.16815e+06
186 3 O 3.53271 115.998 4.61244 -1.2 -9.67288 -1.5375e+06 -5.23927e+06 -2.32254e+06 1.43495e+06 1.46338e+06 749772
187 3 O 5.6203 112.038 4.99249 -1.2 -8.1449 -4.69594e+06 -2.7676e+06 -1.76608e+06 2.14787e+06 -447624 1.18917e+06
188 3 O 5.90005 115.067 3.31974 -1.2 -9.30054 -1.13585e+06 -3.28755e+06 -1.22394e+06 1.00962e+06 1.18012e+06 939711
189 1 Mg 4.58476 116.991 -0.252571 1.2 -8.05129 -1.04156e+06 3.81711e+06 -1.3633e+06 384984 2.04748e+06 -2.52515e+06
190 3 O 6.04182 115.238 5.8946 -1.2 -8.93829 -2.30782e+06 -2.82301e+06 976191 412479 -1.29528e+06 -239414
191 1 Mg 4.62263 119.732 1.47713 1.2 -9.18554 4.52357e+06 232606 2.6924e+06 -1.27112e+06 414706 -882978
192 2 Si 2.61032 117.741 1.46027 2.4 -34.1961 8.66157e+06 1.07202e+07 7.20708e+06 -314091 268414 -1.62333e+06
193 3 O 5.77562 117.772 1.26752 -1.2 -8.75418 -1.92571e+06 -3.46062e+06 -2.40239e+06 -985388 684450 791249
194 3 O 3.6568 121.691 1.6802 -1.2 -8.36961 -2.76265e+06 -2.70305e+06 -1.46297e+06 805064 423565 -576799
195 3 O 3.19801 118.595 0.167868 -1.2 -8.20347 -4.5786e+06 -2.05127e+06 -3.15503e+06 642283 -265606 472786
196 3 O 3.26911 118.582 2.63978 -1.2 -8.27921 -4.41205e+06 -2.60648e+06 -4.4494e+06 1.0805e+06 1.29435e+06 1.28159e+06
197 1 Mg 2.29149 122.233 0.0289569 1.2 -8.3023 -372378 4.29683e+06 -615051 -554802 -481684 -2.87555e+06
198 1 Mg 6.951 125.028 1.47997 1.2 -9.07199 3.52763e+06 1.48664e+06 711865 766763 474103 -1.30821e+06
199 2 Si 4.42996 123.204 1.47341 2.4 -34.6649 5.82515e+06 1.27917e+07 8.46047e+06 1.31956e+06 -1.27522e+06 -683669
200 3 O 5.94497 123.116 1.51969 -1.2 -8.97453 -4.61075e+06 -4.72408e+06 -4.28215e+06 935988 526037 329166
201 3 O 3.33333 126.988 1.43147 -1.2 -8.04799 -4.44929e+06 -4.63347e+06 -1.75549e+06 -2.09749e+06 175777 2.3267e+06
202 3 O 3.77218 123.85 0.26069 -1.2 -8.88272 -4.49635e+06 -2.79977e+06 -3.40892e+06 74366 530243 857600
203 1 Mg 2.34516 132.572 2.84133 1.2 -8.99537 1.73648e+06 4.34486e+06 -661265 -1.06006e+06 791601 577684
204 3 O 3.86727 123.96 2.88723 -1.2 -7.54001 -5.15822e+06 -3.72991e+06 1.62588e+06 270845 -1.26798e+06 2.26248e+06
205 1 Mg 2.30944 129.623 4.38184 1.2 -8.71531 3.46853e+06 2.48931e+06 1.21009e+06 949601 -579806 -949578
206 2 Si 5.01835 131.728 4.49742 2.4 -34.9898 7.12159e+06 1.11225e+07 6.00832e+06 516168 -1.05975e+06 -1.71538e+06
207 3 O 3.46983 131.771 4.40442 -1.2 -8.49489 -4.65825e+06 -4.29404e+06 -5.34338e+06 -130186 1.22639e+06 70702.1
208 3 O 5.93539 127.825 4.51341 -1.2 -8.532 -3.75596e+06 -4.11124e+06 -1.80103e+06 -1.13666e+06 -125561 20190.8
209 3 O 5.69222 131.153 3.15923 -1.2 -8.08545 -5.76948e+06 -4.85245e+06 -1.79228e+06 -195960 -921419 196560
210 3 O 5.66648 131.059 5.67919 -1.2 -8.5334 -5.43934e+06 -4.07057e+06 -5.08204e+06 461387 -503237 2.41997e+06
211 1 Mg 4.62003 127.397 2.90695 1.2 -8.83436 656136 5.39195e+06 -1.04953e+06 417197 -966782 -122421
212 1 Mg 4.56637 124.463 4.72465 1.2 -8.96463 2.55184e+06 1.74083e+06 1.13762e+06 -978019 569904 -991606
213 2 Si 6.76371 126.361 4.47956 2.4 -34.8957 7.41624e+06 1.1474e+07 7.84878e+06 -533793 522946 -1.17394e+06
214 3 O 3.51483 126.549 4.46209 -1.2 -8.80922 -5.75772e+06 -4.176e+06 -3.47821e+06 -817836 199269 -203228
215 3 O 5.60591 122.589 4.39015 -1.2 -8.40908 -3.25639e+06 -3.80387e+06 -2.96504e+06 2.82292e+06 -112282 3.13683e+06
216 3 O 6.15877 125.71 3.10704 -1.2 -7.70734 -5.27174e+06 -4.07849e+06 -922346 -615998 1.20046e+06 1.29167e+06
217 1 Mg 4.62318 127.496 -0.0798743 1.2 -8.66103 -2.00037e+06 3.50697e+06 360204 614591 1.47519e+06 -2.75952e+06
218 3 O 6.13857 125.569 5.68678 -1.2 -8.58581 -2.88754e+06 -3.88655e+06 -2.98414e+06 -81728.7 -1.07306e+06 1.84346e+06
219 1 Mg 4.83521 130.476 1.40176 1.2 -9.1986 2.53285e+06 1.1007e+06 2.11435e+06 749607 -309487 -1.151e+06
220 2 Si 2.60982 128.522 1.34621 2.4 -34.6194 1.0791e+07 1.2703e+07 4.90658e+06 765864 83761.1 -2.42756e+06
221 3 O 5.75756 128.378 1.42843 -1.2 -8.75551 -2.75125e+06 -3.59689e+06 -1.44132e+06 582027 -406689 791670
222 3 O 3.78487 132.066 1.36179 -1.2 -7.89296 -4.85168e+06 -4.55548e+06 -2.48085e+06 2.03315e+06 53716.8 208240
223 3 O 3.298 128.978 0.00976356 -1.2 -8.36902 -3.57995e+06 -5.08872e+06 -2.12099e+06 737106 -632081 2.00014e+06
224 3 O 3.30461 129.23 2.58693 -1.2 -8.37395 -3.13949e+06 -4.91457e+06 -73104 579762 802245 -320633
225 1 Mg 2.44696 132.687 -0.288886 1.2 -9.17942 2.55571e+06 4.95204e+06 -1.09255e+06 -553165 -1.39437e+06 -1.47675e+06
226 1 Mg 7.0101 135.645 1.37428 1.2 -9.79345 4.71579e+06 751729 339898 331199 -442744 -479843
227 2 Si 4.46698 133.588 1.33682 2.4 -36.4719 1.13018e+07 1.12643e+07 7.04315e+06 -337187 -448303 -1.39072e+06
228 3 O 6.05762 133.536 1.34169 -1.2 -7.9129 -3.85416e+06 -3.98626e+06 -2.70975e+06 229004 -716533 974513
229 3 O 3.45114 137.3 1.32946 -1.2 -8.29469 -2.98025e+06 -4.71584e+06 -1.36127e+06 -1.21709e+06 -429108 -1.05413e+06
230 3 O 3.94169 134.347 0.0407365 -1.2 -7.11928 -6.6392e+06 -3.35726e+06 -3.13954e+06 824071 1.27072e+06 187895
231 1 Mg 2.34115 143.369 2.72358 1.2 -7.7157 582144 5.98333e+06 -974111 -488757 925925 2.63846e+06
232 3 O 3.8163 134.322 2.56707 -1.2 -7.56652 -4.78986e+06 -2.23191e+06 -2.23427e+06 58152.8 -729548 1.35579e+06
233 1 Mg 2.51921 140.223 4.47654 1.2 -9.0739 3.91878e+06 1.41513e+06 1.46244e+06 353320 -566904 1.39548e+06
234 2 Si 5.15771 142.292 4.23954 2.4 -34.0929 6.83495e+06 1.11365e+07 6.98122e+06 -636216 18148.1 2.5037e+06
235 3 O 3.57991 142.108 4.42395 -1.2 -8.91584 -2.618e+06 -3.92579e+06 -1.81531e+06 702415 -1.1191e+06 -1.32262e+06
236 3 O 6.42124 138.354 4.40174 -1.2 -8.46213 -5.16518e+06 -6.31885e+06 -3.12934e+06 -742952 42788.3 -763635
237 3 O 5.81093 141.636 2.89623 -1.2 -8.41321 -3.44317e+06 -3.25926e+06 -2.31864e+06 210291 -1.58632e+06 -1.29365e+06
238 3 O 5.76421 141.463 5.55196 -1.2 -8.14539 -4.64742e+06 -4.19942e+06 639970 -641727 685792 -607513
239 1 Mg 4.90278 137.839 3.06418 1.2 -8.49797 -452492 4.67607e+06 -695611 910990 -943578 2.57913e+06
240 1 Mg 4.71927 135.144 4.46375 1.2 -9.12887 2.56552e+06 733762 3.65925e+06 231865 36938.1 847883
241 2 Si 6.99903 136.881 4.46527 2.4 -34.1405 6.35054e+06 1.25258e+07 8.20456e+06 1.73805e+06 462811 433548
242 3 O 3.77292 137.004 4.53415 -1.2 -9.24476 -5.0009e+06 -5.89608e+06 -3.59303e+06 2.01479e+06 -150270 432065
243 3 O 5.65375 133.263 4.44478 -1.2 -8.01114 -4.41482e+06 -4.50048e+06 -3.82151e+06 1.06059e+06 -1.56703e+06 198175
244 3 O 6.19605 136.261 3.11286 -1.2 -8.25479 -2.47874e+06 -4.60002e+06 -767181 544966 1.75354e+06 -893802
245 1 Mg 4.82279 138.053 -0.0584554 1.2 -9.03042 1.86565e+06 5.61721e+06 -1.0122e+06 901816 1.41234e+06 -141231
246 3 O 6.17979 136.207 5.71476 -1.2 -8.39775 -3.22964e+06 -4.67243e+06 -874063 915706 -1.32265e+06 319297
247 1 Mg 4.83102 140.964 1.374 1.2 -9.14255 3.66425e+06 2.18536e+06 414566 -895947 -381907 251768
248 2 Si 2.79549 138.775 1.51673 2.4 -34.7503 1.00706e+07 1.32782e+07 8.19215e+06 -635691 1.05692e+06 1.58524e+06
249 3 O 5.97097 138.912 1.48283 -1.2 -8.45994 -1.91192e+06 -3.78593e+06 -2.66424e+06 -433470 1.5041e+06 -998809
250 3 O 3.94478 142.865 1.35115 -1.2 -8.72037 -3.54316e+06 -5.69561e+06 -1.0447e+06 904501 -984036 -1.04687e+06
251 3 O 3.38748 139.636 0.122336 -1.2 -7.83569 -5.23768e+06 -2.6713e+06 339055 941011 -1.84033e+06 -1.27141e+06
252 3 O 3.58073 139.418 2.79383 -1.2 -8.24022 -4.58259e+06 -2.36705e+06 -798534 31910 1.79438e+06 -567258
253 1 Mg 2.46901 143.218 -0.114666 1.2 -8.22175 -469496 5.41354e+06 -793282 -1.22285e+06 -1.73171e+06 -941997
254 1 Mg 7.07149 146.347 1.4339 1.2 -8.49129 2.41372e+06 498962 2.17353e+06 -252953 802058 1.2336e+06
255 2 Si 4.48746 144.391 1.12584 2.4 -33.8116 6.11135e+06 1.25103e+07 7.05905e+06 -694401 -926260 1.9965e+06
256 3 O 6.0463 144.317 1.26908 -1.2 -9.34323 -2.82795e+06 -4.17754e+06 -2.61655e+06 -1.53869e+06 798491 -974076
257 3 O 3.44662 147.988 1.20696 -1.2 -8.98373 -4.75621e+06 -3.86728e+06 -1.17845e+06 -817199 -79842.8 -2.52312e+06
258 3 O 3.79861 144.831 -0.208604 -1.2 -8.77579 -3.49407e+06 -4.12191e+06 -704871 344320 179768 -612816
259 1 Mg 1.62114 153.215 1.56261 1.2 -7.63199 -2.25437e+06 -2.00227e+06 -124024 504845 -715053 536597
260 3 O 3.78742 145.064 2.46776 -1.2 -8.83504 -1.93299e+06 -4.48876e+06 1.4769e+06 20586.4 -630998 -2.70394e+06
261 1 Mg 1.89517 151.069 4.59367 1.2 -8.29341 -99411.7 5.04797e+06 442787 -1.22251e+06 1.45885e+06 1.03756e+06
262 2 Si 3.82652 151.756 2.77896 2.4 -33.133 7.77238e+06 8.92432e+06 4.5536e+06 -255688 291668 441344
263 3 O 2.39214 152.301 2.98839 -1.2 -8.72587 -6.6255e+06 -3.08079e+06 -5.49862e+06 292186 946520 -632414
264 3 O 6.33382 149.071 4.17967 -1.2 -9.02238 -3.21364e+06 -7.94622e+06 -2.60418e+06 -178855 -1.48137e+06 -3.29723e+06
265 3 O 4.57159 152.729 1.73604 -1.2 -8.94968 -5.82604e+06 -668386 -2.72531e+06 850642 -534857 306099
266 3 O 4.64964 151.567 4.06982 -1.2 -8.85255 -3.86796e+06 -5.22664e+06 -3.26421e+06 -1.60021e+06 280073 -369546
267 1 Mg 4.7599 148.8 2.91838 1.2 -7.73372 -990452 3.53886e+06 344825 1.57059e+06 -1.66777e+06 3.20744e+06
268 1 Mg 4.78688 145.574 4.31585 1.2 -8.55559 2.32547e+06 2.47093e+06 2.5479e+06 -391304 503485 2.1693e+06
269 2 Si 6.88411 147.635 4.32013 2.4 -34.029 7.37868e+06 8.48133e+06 7.56161e+06 1.27366e+06 -1.51719e+06 3.47438e+06
270 3 O 3.66719 147.682 4.36071 -1.2 -9.20926 -5.08889e+06 -3.22343e+06 -2.42458e+06 2.46709e+06 -1.40414e+06 -2.32131e+06