ITEM: TIMESTEP
66400
ITEM: NUMBER OF ATOMS
5600
ITEM: BOX BOUNDS xy xz yz pp pp pp
0.0000000000000000e+00 7.1234999999999999e+00 0.0000000000000000e+00
0.0000000000000000e+00 2.0198500000000001e+02 2.3744999999999998e+00
0.0000000000000000e+00 1.1958400000000000e+02 0.0000000000000000e+00
ITEM: ATOMS id type element xu yu zu q c_pe c_s[1] c_s[2] c_s[3] c_s[4] c_s[5] c_s[6]
1 1 Mg -1.7465 47.8961 -0.630575 1.2 -7.08267 -3.71654e+06 -309310 1.80485e+06 55751.3 1.51438e+06 268085
2 1 Mg 2.66972 50.7016 1.74816 1.2 -8.59338 -294956 2.38464e+06 -385560 411514 -2.23804e+06 -1.30143e+06
3 2 Si 0.462513 49.3896 0.282396 2.4 -33.5069 6.98036e+06 9.79699e+06 8.19126e+06 -2.96758e+06 213632 5603.91
4 3 O 1.42851 48.0911 0.293847 -1.2 -8.35328 -2.45488e+06 -1.31799e+06 -4.83603e+06 -108598 -799667 651042
5 3 O -1.65497 52.7716 1.75461 -1.2 -8.60568 -4.00552e+06 -1.967e+06 -3.23274e+06 -1.2044e+06 -74077.1 -223831
6 3 O -0.314057 49.0462 -1.05924 -1.2 -8.89117 -6.25488e+06 -4.16256e+06 -7.02851e+06 629457 -1.23407e+06 505095
7 1 Mg -2.53761 58.4778 3.5398 1.2 -7.92056 332986 3.70714e+06 735348 -513397 832396 1.77741e+06
8 3 O -0.526444 49.6195 1.43149 -1.2 -8.92213 -5.13821e+06 -3.94332e+06 -5.19832e+06 -1.02907e+06 2.7521e+06 341670
9 1 Mg -2.5892 55.3456 4.70336 1.2 -8.44475 3.26532e+06 584603 2.8475e+06 469744 -117520 -330587
10 2 Si 0.141748 57.54 4.91631 2.4 -34.3976 2.57076e+06 8.29544e+06 9.53546e+06 -582502 1.43377e+06 -1.47309e+06
11 3 O -1.34193 57.607 4.88344 -1.2 -9.02986 -7.10778e+06 -3.26648e+06 -5.26115e+06 -212495 1.82093e+06 -246047
12 3 O 1.13898 53.5593 4.55455 -1.2 -9.01527 -2.95634e+06 -5.48038e+06 -4.58804e+06 -954925 -994066 -1.67663e+06
13 3 O 0.667912 56.9122 3.63024 -1.2 -8.29711 -4.60726e+06 -2.70388e+06 -5.32882e+06 485059 775961 -524282
14 3 O 0.943571 56.6958 6.14449 -1.2 -8.28572 -2.89899e+06 -1.30616e+06 -2.15448e+06 138790 976292 -373111
15 1 Mg -0.310671 53.4383 3.08632 1.2 -8.26859 -1.7099e+06 3.97401e+06 -496793 958826 -1.51753e+06 1.08785e+06
16 1 Mg 0.0182793 49.7991 3.31018 1.2 -8.30604 4.67147e+06 1.25875e+06 -367341 -374568 -640579 -595598
17 2 Si 1.74612 52.1103 4.52968 2.4 -34.0763 1.1781e+07 7.12424e+06 1.03379e+07 -1.23524e+06 2.26801e+06 1.37886e+06
18 3 O -1.40246 52.1407 4.60637 -1.2 -8.53426 -1.37975e+06 -3.21078e+06 -3.23344e+06 899070 1.12601e+06 -418623
19 3 O 2.53486 49.4897 3.51773 -1.2 -6.64996 376869 -1.11963e+06 -2.41554e+06 510696 22292.6 -83697.1
20 3 O 0.916973 51.5877 3.18061 -1.2 -7.96206 -4.52494e+06 -4.46106e+06 -1.79851e+06 1.49467e+06 1.54739e+06 -143615
21 1 Mg -0.30051 53.6294 0.0641513 1.2 -8.02352 -1.69901e+06 1.85092e+06 765524 1.27696e+06 2.26397e+06 -3.04702e+06
22 3 O 1.14222 51.4175 5.90817 -1.2 -9.93073 -7.3027e+06 -6.28437e+06 -4.67284e+06 779938 -1.5228e+06 903300
23 1 Mg -0.168466 56.2626 1.66047 1.2 -8.91879 2.58737e+06 -664415 3.55944e+06 -13852.5 458804 -187668
24 2 Si -2.32503 54.3092 1.73977 2.4 -33.3305 5.78493e+06 1.27582e+07 6.90129e+06 1.09436e+06 -2.48967e+06 -2.4871e+06
25 3 O 0.882154 54.2736 1.72844 -1.2 -9.43437 -3.18633e+06 -3.93838e+06 -3.56501e+06 450263 67087.3 541303
26 3 O -1.20506 57.9606 1.76192 -1.2 -8.32084 -4.95406e+06 -2.22047e+06 -3.4602e+06 2.04536e+06 -1.11724e+06 894216
27 3 O -1.49974 55.0463 0.359907 -1.2 -8.15819 -495837 -3.74372e+06 -4.00105e+06 1.56506e+06 -1.28411e+06 -55752
28 3 O -1.62126 55.0009 2.87277 -1.2 -9.06281 -4.16389e+06 -4.86764e+06 -4.54051e+06 -293042 -141694 -983061
29 1 Mg -2.47394 58.5617 0.371759 1.2 -8.42932 -1.87157e+06 4.44488e+06 -440813 -858796 -1.68857e+06 -1.12893e+06
30 1 Mg 2.18663 61.6179 1.96111 1.2 -8.61111 3.44446e+06 566849 -648065 734145 -308767 605373
31 2 Si -0.403624 59.4803 1.86804 2.4 -33.9211 6.22842e+06 1.26546e+07 7.06575e+06 356038 -192327 583832
32 3 O 1.07481 59.2703 1.85855 -1.2 -9.05831 -5.30517e+06 -5.26204e+06 -2.08069e+06 534477 222178 -109066
33 3 O -1.21724 63.4056 1.95749 -1.2 -8.58681 -1.54989e+06 -2.44273e+06 -2.23027e+06 -2.3009e+06 950561 -618512
34 3 O -1.03647 60.2131 0.609971 -1.2 -8.72256 -3.70561e+06 -4.2233e+06 -2.12391e+06 -478192 462873 329719
35 1 Mg -2.17237 69.2013 3.10561 1.2 -9.08409 708720 1.22079e+06 491604 -1.17593e+06 1.57824e+06 2.00097e+06
36 3 O -1.0601 60.3226 3.16664 -1.2 -8.79566 -1.86585e+06 -640062 -1.84697e+06 -317579 -997979 1.29498e+06
37 1 Mg -2.02579 66.3553 4.84581 1.2 -8.56841 2.48053e+06 991787 1.71353e+06 1.04906e+06 293668 -559854
38 2 Si 0.477091 68.2163 4.80003 2.4 -34.8646 3.5183e+06 1.06299e+07 9.03782e+06 28236.9 -283829 -135834
39 3 O -0.962924 68.2772 4.74562 -1.2 -8.7545 -8.75514e+06 -3.34306e+06 -3.96706e+06 106593 989542 124504
40 3 O 1.384 64.4998 4.90099 -1.2 -8.47471 -2.43392e+06 -5.3281e+06 -3.14569e+06 -765974 820443 -1.35402e+06
41 3 O 1.03468 67.6293 3.36601 -1.2 -8.04853 -4.22772e+06 -2.98703e+06 -1.99854e+06 1.06744e+06 -401641 -182187
42 3 O 1.23609 67.5178 5.97049 -1.2 -8.78975 -3.14738e+06 -4.76121e+06 -2.75658e+06 -139221 -484027 1.1226e+06
43 1 Mg 0.00402591 64.0781 3.48271 1.2 -8.4784 -210339 4.16826e+06 -532559 377922 -918605 1.32518e+06
44 1 Mg -0.310568 60.9524 4.85348 1.2 -8.39546 3.56813e+06 1.69635e+06 1.77975e+06 137229 -192217 -1.16161e+06
45 2 Si 2.12492 63.0557 4.97371 2.4 -34.4808 5.21408e+06 1.07111e+07 7.70552e+06 515181 186455 -715230
46 3 O -1.10662 63.1043 4.96503 -1.2 -9.29497 -6.61774e+06 -2.85736e+06 -5.25531e+06 -824761 -710099 -383752
47 3 O 0.789964 58.9648 4.95775 -1.2 -8.88671 -3.01058e+06 -5.632e+06 -4.05247e+06 -838514 -950646 -1.00345e+06
48 3 O 1.45003 62.3796 3.66161 -1.2 -8.08355 -3.65011e+06 -2.73981e+06 -4.1211e+06 272991 769543 -330915
49 1 Mg -0.208348 63.9964 0.354443 1.2 -7.9012 -1.51592e+06 3.87087e+06 -913610 960424 2.7116e+06 -1.25935e+06
50 3 O 1.44844 62.232 6.10168 -1.2 -8.3046 -1.93039e+06 -2.97867e+06 -6.04046e+06 632760 -611253 961257
51 1 Mg 0.11767 66.7338 1.91886 1.2 -8.83162 1.63565e+06 1.02718e+06 1.72795e+06 -756111 -187647 -711127
52 2 Si -2.17416 64.8917 1.78408 2.4 -33.5356 6.70797e+06 1.21968e+07 8.79359e+06 -1.71644e+06 2.68146e+06 -1.02236e+06
53 3 O 1.04384 64.9441 1.85005 -1.2 -9.14381 -3.26141e+06 -4.69871e+06 -4.93378e+06 -2.08453e+06 1.11311e+06 844549
54 3 O -0.942889 68.8289 1.63204 -1.2 -7.46423 -4.91955e+06 -4.50912e+06 -4.88097e+06 1.80134e+06 1.02554e+06 -2.70888e+06
55 3 O -1.69292 65.5741 0.486395 -1.2 -8.83639 -6.56932e+06 -2.62067e+06 -2.89187e+06 -690348 -829489 -560749
56 3 O -1.48086 65.6241 3.13644 -1.2 -8.63706 -3.51974e+06 -3.72726e+06 -279809 1.30696e+06 1.74723e+06 458414
57 1 Mg -2.2553 69.4023 0.0639648 1.2 -8.32698 1.5747e+06 1.52179e+06 541693 16484 -221091 -1.72574e+06
58 1 Mg 2.38004 72.0478 1.70466 1.2 -8.95837 2.22042e+06 770922 3.02292e+06 484203 -311478 -1.31053e+06
59 2 Si -0.129196 70.2722 1.74209 2.4 -35.6188 7.7395e+06 8.93631e+06 9.43413e+06 613821 -308469 -1.08486e+06
60 3 O 1.40079 70.1168 1.68445 -1.2 -8.4849 -5.89545e+06 -2.98731e+06 -5.1936e+06 337077 -1.64743e+06 5541.41
61 3 O -1.39232 73.9097 1.91048 -1.2 -9.0669 -3.9532e+06 -4.18577e+06 -2.5758e+06 182184 -223053 -2.09934e+06
62 3 O -0.732321 71.1063 0.529159 -1.2 -8.2601 -4.12999e+06 -4.1242e+06 -4.30827e+06 357470 2.21588e+06 1.0989e+06
63 1 Mg -2.32233 79.6848 3.25907 1.2 -6.91147 -3.07764e+06 4.53051e+06 -1.22331e+06 -785342 1.46051e+06 2.05595e+06
64 3 O -0.894235 70.6387 3.0328 -1.2 -7.82432 -6.03493e+06 -6.01536e+06 -6.40878e+06 -1.16631e+06 -830768 -2.53842e+06
65 1 Mg -2.01187 76.9265 4.69933 1.2 -7.85542 1.0827e+06 414529 868921 105267 592852 291302
66 2 Si 0.40364 78.8054 4.5338 2.4 -32.0642 2.5591e+06 1.24022e+07 6.49699e+06 -659099 2.15089e+06 1.58006e+06
67 3 O -1.15116 78.706 4.51352 -1.2 -10.1493 -2.60662e+06 -4.02114e+06 -4.7197e+06 -319394 326715 -135198
68 3 O 1.47377 74.7812 4.72396 -1.2 -9.74741 -4.24791e+06 -5.17779e+06 -3.60174e+06 452767 -553557 -62333.7
69 3 O 1.07355 78.1413 3.34461 -1.2 -9.43848 -3.43426e+06 -3.71142e+06 -5.77423e+06 503242 -286079 67035.4
70 3 O 1.1349 78.0823 5.7913 -1.2 -9.1738 -857530 -3.07716e+06 -2.63134e+06 -827990 351021 -644966
71 1 Mg 0.0336588 74.4691 3.545 1.2 -7.38432 -1.86975e+06 3.9879e+06 -1.60101e+06 1.55437e+06 -2.99622e+06 1.80132e+06
72 1 Mg -0.0669631 71.5804 4.62575 1.2 -9.33663 3.69198e+06 -817094 2.75984e+06 -1.50197e+06 -417577 263312
73 2 Si 2.06874 73.3456 4.77503 2.4 -33.2244 2.59154e+06 1.2686e+07 9.1566e+06 2.73674e+06 1.37884e+06 119800
74 3 O -1.18936 73.4234 4.91499 -1.2 -9.40858 -3.3381e+06 -5.03154e+06 -4.9963e+06 1.6902e+06 -493937 1.01905e+06
75 3 O 1.19549 69.7403 4.84084 -1.2 -7.30919 -4.62646e+06 -3.40434e+06 -6.97233e+06 370032 -2.21405e+06 -957927
76 3 O 1.39083 72.4876 3.43432 -1.2 -8.34035 -1.67891e+06 -2.12998e+06 -3.22857e+06 267575 1.61177e+06 2.41958e+06
77 1 Mg 0.129811 74.4627 0.478994 1.2 -7.66759 -688674 2.83171e+06 -580321 1.47925e+06 2.63754e+06 -1.77285e+06
78 3 O 1.29949 72.4794 5.94684 -1.2 -8.26032 -6.01964e+06 -4.00065e+06 -3.25926e+06 299718 -868065 -1.12489e+06
79 1 Mg 0.0926801 77.4654 1.59207 1.2 -7.71452 527115 1.50025e+06 169703 -1.43993e+06 440940 176551
80 2 Si -1.93508 75.3761 1.93295 2.4 -33.053 5.93396e+06 1.18955e+07 6.51024e+06 1.2705e+06 93935.5 345255
81 3 O 1.22247 75.3429 1.93771 -1.2 -9.36616 -736334 -4.76919e+06 -3.03581e+06 896899 45022.4 -1.37409e+06
82 3 O -0.863786 79.4187 1.9063 -1.2 -9.69837 -5.04787e+06 -4.10969e+06 -4.18839e+06 1.02148e+06 110490 932797
83 3 O -1.32638 76.3822 0.788627 -1.2 -9.66204 -2.01575e+06 -1.19175e+06 -3.11611e+06 363347 -873846 -629555
84 3 O -1.25338 75.9713 3.25837 -1.2 -9.1617 -4.101e+06 -5.3412e+06 -3.90321e+06 8563.41 1.73866e+06 -1.01289e+06
85 1 Mg -2.11773 79.4948 0.449133 1.2 -7.19693 -2.09477e+06 3.32684e+06 -789423 -1.10812e+06 -1.76074e+06 -1.51176e+06
86 1 Mg 2.71971 82.7294 1.77247 1.2 -7.99373 -213095 640801 574297 1.91829e+06 345647 996121
87 2 Si -0.17749 80.9257 1.83467 2.4 -32.164 3.43191e+06 1.05125e+07 7.90248e+06 -43986.9 -1.23382e+06 1.88888e+06
88 3 O 1.29119 80.613 1.72707 -1.2 -9.80328 -3.17699e+06 -4.93476e+06 -2.3892e+06 -1.68831e+06 -632289 -276635
89 3 O -1.33894 84.7923 1.879 -1.2 -8.86582 -3.56809e+06 -1.95961e+06 -2.84692e+06 -762974 -131525 -219914
90 3 O -0.825005 81.6122 0.556012 -1.2 -9.52984 -2.54955e+06 -2.28549e+06 -2.64278e+06 185901 591878 -1.58854e+06
91 1 Mg -2.18597 90.5879 3.46155 1.2 -8.03406 -3.48469e+06 3.48367e+06 -574659 -362278 2.15985e+06 2.32188e+06
92 3 O -0.922769 81.7308 3.04877 -1.2 -9.54494 -2.07681e+06 -3.10164e+06 -2.67091e+06 1.09811e+06 -1.16683e+06 -168233
93 1 Mg -2.47959 87.5315 4.71528 1.2 -9.12 2.02641e+06 -553962 2.45059e+06 997900 176850 -6412.47
94 2 Si 0.380585 89.4963 4.65157 2.4 -33.4917 7.43816e+06 9.02875e+06 8.62897e+06 -29683.4 -864909 1.48131e+06
95 3 O -1.14448 89.6806 4.85516 -1.2 -9.15127 -3.41579e+06 -4.60204e+06 -5.24683e+06 -291118 -614151 -619258
96 3 O 1.66463 85.646 4.6741 -1.2 -8.48697 -5.14911e+06 -3.35559e+06 -3.25338e+06 -2.19097e+06 -637319 1.33987e+06
97 3 O 1.05696 88.6611 3.47447 -1.2 -8.44494 -5.40512e+06 -3.2593e+06 -3.65004e+06 -546773 -974330 -31746.3
98 3 O 1.15246 88.7676 5.94378 -1.2 -8.74385 -4.88997e+06 -3.34509e+06 -3.6317e+06 -297523 1.84344e+06 -984205
99 1 Mg 0.333555 85.0034 3.19029 1.2 -7.58213 -84982.9 2.41285e+06 -622688 176063 -804019 3.58807e+06
100 1 Mg 0.23093 82.3274 4.71858 1.2 -7.67485 1.22963e+06 1.55204e+06 1.21275e+06 -881846 -271335 437870
101 2 Si 2.33565 84.0798 4.58515 2.4 -33.0726 5.04165e+06 1.26827e+07 9.22898e+06 267654 -889072 2.67282e+06
102 3 O -0.819855 84.3813 4.61679 -1.2 -9.40585 -1.36636e+06 -4.09788e+06 -5.09684e+06 942316 547847 -867601
103 3 O 1.03371 80.359 4.73446 -1.2 -10.0053 -339061 -3.68909e+06 -1.87958e+06 1.65196e+06 175858 622026
104 3 O 1.69615 83.3366 3.34697 -1.2 -9.50052 -3.18193e+06 -3.86117e+06 -3.46537e+06 331267 1.74474e+06 -227577
105 1 Mg 0.163366 85.2561 0.296005 1.2 -7.31311 -358809 3.17566e+06 -862622 707010 1.45752e+06 -995105
106 3 O 1.67249 83.5489 5.92354 -1.2 -9.16786 -2.93954e+06 -5.32429e+06 -1.18614e+06 139557 -1.24379e+06 640650
107 1 Mg 0.260175 88.0324 1.73324 1.2 -8.449 2.06071e+06 -445538 3.47724e+06 -759290 -210261 128668
108 2 Si -1.90818 86.3845 1.75996 2.4 -33.5385 2.78511e+06 1.22542e+07 1.1228e+07 604555 21869.7 2.34744e+06
109 3 O 1.3215 86.1713 1.78751 -1.2 -9.59785 -3.24333e+06 -4.6246e+06 -4.12289e+06 1.64851e+06 -455133 -1.98714e+06
110 3 O -0.909866 89.8379 1.62454 -1.2 -8.50846 -3.58922e+06 -3.31855e+06 -2.27633e+06 1.52842e+06 499123 -59179.5
111 3 O -1.19768 86.8085 0.375034 -1.2 -9.10385 -1.59887e+06 -4.57867e+06 -2.34423e+06 -1.30688e+06 -939097 -177575
112 3 O -1.36558 87.2481 3.00224 -1.2 -8.31484 -4.18683e+06 -3.22448e+06 -1.01327e+06 -126406 134461 1.00038e+06
113 1 Mg -2.37555 90.163 0.103119 1.2 -7.9974 -1.01556e+06 1.87261e+06 2.10453e+06 -1.07079e+06 -410285 -1.03074e+06
114 1 Mg 2.53515 93.1103 1.41249 1.2 -8.48498 -763376 818973 2.6795e+06 1.82834e+06 -151871 1.00486e+06
115 2 Si -0.139068 91.2831 1.65633 2.4 -33.3367 8.61133e+06 1.13515e+07 7.50072e+06 -56874.2 696538 1.97116e+06
116 3 O 1.39983 91.0645 1.70097 -1.2 -9.37973 -3.20127e+06 -3.54316e+06 -1.91697e+06 -303024 502430 -942840
117 3 O -1.37474 95.1611 1.62048 -1.2 -8.68813 -3.19192e+06 -1.24948e+06 -2.43915e+06 -2.54636e+06 592622 -598671
118 3 O -0.919216 92.1234 0.50486 -1.2 -9.06637 -2.07464e+06 -3.80469e+06 -4.72179e+06 -89220.3 2.28388e+06 -534582
119 1 Mg -2.24867 101.172 3.27748 1.2 -8.08699 -2.58981e+06 1.50574e+06 -720636 -1.15631e+06 1.39918e+06 1.55596e+06
120 3 O -0.844669 91.9913 3.00963 -1.2 -8.7692 -3.91596e+06 -3.91808e+06 -2.54693e+06 -1.54137e+06 -2.05353e+06 -389533
121 1 Mg -2.24838 98.1375 4.5127 1.2 -8.81156 3.06314e+06 -367167 4.61849e+06 875746 -141648 -581691
122 2 Si 0.400338 99.9852 4.57736 2.4 -34.0669 7.75742e+06 7.90111e+06 1.08184e+07 338419 -204158 -1.20963e+06
123 3 O -1.24488 100.097 4.51587 -1.2 -9.12059 -1.34363e+06 -2.33488e+06 -5.45355e+06 -52095.2 -1.13558e+06 1.51061e+06
124 3 O 1.46615 96.2639 4.6029 -1.2 -8.76809 -3.21964e+06 -1.96841e+06 -3.87357e+06 -1.6885e+06 9171.8 -420185
125 3 O 1.0667 99.2921 3.3364 -1.2 -8.5818 -4.98022e+06 -2.41144e+06 -4.98205e+06 -748668 -986789 404453
126 3 O 0.924128 99.3551 5.89466 -1.2 -8.41378 -4.95586e+06 -2.75217e+06 -3.8151e+06 78706.1 1.15023e+06 801939
127 1 Mg 0.0482196 95.6742 3.15505 1.2 -8.29757 105544 4.19164e+06 239822 558531 -901284 1.49245e+06
128 1 Mg 0.0604728 92.6121 4.62426 1.2 -8.55933 2.47437e+06 -50719 1.84104e+06 -251522 -700683 765104
129 2 Si 2.17709 94.7316 4.60564 2.4 -34.0075 7.94566e+06 9.65684e+06 9.43371e+06 -27691.6 1.37498e+06 1.65638e+06
130 3 O -1.0023 94.8345 4.67326 -1.2 -8.99527 -3.96831e+06 -3.78642e+06 -5.67721e+06 -430164 -1.77824e+06 -204817
131 3 O 1.12271 90.9091 4.58178 -1.2 -9.29734 -5.43554e+06 -6.10698e+06 -4.2038e+06 1.70605e+06 918955 -458903
132 3 O 1.53479 94.0015 3.298 -1.2 -8.21303 -2.77453e+06 -214086 -3.19826e+06 -108096 1.73656e+06 861381
133 1 Mg 0.0041911 95.4756 0.160648 1.2 -7.68737 -994479 3.76743e+06 370401 569809 793610 -1.09301e+06
134 3 O 1.38327 94.0075 5.74551 -1.2 -8.67206 -6.50371e+06 -3.29689e+06 -5.28788e+06 1.88252e+06 -415037 -310322
135 1 Mg 0.0807506 98.679 1.73192 1.2 -9.09183 2.06217e+06 -764679 1.96801e+06 -671704 -394057 -826869
136 2 Si -2.04038 96.7452 1.57651 2.4 -33.796 9.50373e+06 1.1693e+07 8.17658e+06 131284 1.2864e+06 -1.57666e+06
137 3 O 1.13911 96.6766 1.60324 -1.2 -9.03241 -2.16186e+06 -3.04335e+06 -2.98069e+06 1.0585e+06 1.62931e+06 920631
138 3 O -0.840748 100.45 1.66112 -1.2 -8.58637 -5.61217e+06 -6.38126e+06 -4.19642e+06 1.55444e+06 80683.1 725860
139 3 O -1.50453 97.4675 0.269037 -1.2 -8.80197 -4.37385e+06 -892332 -1.29157e+06 292769 -623727 -75026.8
140 3 O -1.13932 97.4157 2.80598 -1.2 -8.60385 -3.2995e+06 -2.42648e+06 -2.47808e+06 617352 1.76003e+06 263186
141 1 Mg -2.21605 100.837 0.23705 1.2 -8.00931 -602189 3.27363e+06 680528 -419286 -1.46416e+06 -2.76808e+06
142 1 Mg 7.35296 103.769 1.40489 1.2 -8.10437 295686 -272306 1.80088e+06 2.2023e+06 433660 -1.53829e+06
143 2 Si -0.241035 101.917 1.6682 2.4 -33.7196 6.21132e+06 8.50329e+06 6.38619e+06 -363287 106922 -2.47252e+06
144 3 O 1.31943 101.858 1.77711 -1.2 -9.12369 -3.31189e+06 -3.62382e+06 -3.64179e+06 -1.05258e+06 -35873.8 1.24609e+06
145 3 O 3.49736 105.658 1.53278 -1.2 -9.42322 -4.00176e+06 -2.89724e+06 -3.3056e+06 -157304 520651 2.55666e+06
146 3 O -0.979472 102.648 0.492247 -1.2 -9.04331 -3.64343e+06 -4.41909e+06 -6.94803e+06 1.40035e+06 1.2672e+06 1.20652e+06
147 1 Mg 2.69163 111.521 2.79659 1.2 -7.74465 -977221 1.83589e+06 -371951 220028 711157 1.39338e+06
148 3 O -0.996676 102.577 2.84698 -1.2 -8.80051 -4.44453e+06 -5.03835e+06 -6.68356e+06 -577323 -333773 275346
149 1 Mg 2.36635 108.68 4.50924 1.2 -7.47685 -344961 -11714.3 1.68539e+06 1.09509e+06 -61649.2 -927293
150 2 Si 5.2856 110.54 4.26141 2.4 -32.2688 706004 5.95608e+06 9.04615e+06 1.1671e+06 776519 -1.23024e+06
151 3 O 3.76738 110.807 4.31036 -1.2 -10.1279 -5.62754e+06 -3.33541e+06 -5.72865e+06 269499 1.73582e+06 -209203
152 3 O 6.36985 106.813 4.67392 -1.2 -9.26176 -1.66998e+06 -3.63722e+06 -5.18231e+06 -2.17154e+06 313878 -489829
153 3 O 5.80628 109.73 3.06516 -1.2 -9.43272 -1.71391e+06 -4.96943e+06 -6.52019e+06 933436 -579921 -902581
154 3 O 5.9906 110.021 5.52967 -1.2 -9.90492 125294 -4.74319e+06 -5.90775e+06 430903 -754368 2.1612e+06
155 1 Mg 4.80422 106.505 3.24611 1.2 -7.09031 -1.44461e+06 3.03668e+06 903492 1.83866e+06 -2.32522e+06 562259
156 1 Mg 0.146996 103.389 4.58868 1.2 -8.18835 763899 85284.2 4.29244e+06 -740554 -572219 -1.06362e+06
157 2 Si 6.90829 105.219 4.54367 2.4 -32.6757 4.17136e+06 9.14216e+06 9.62583e+06 -292026 22557.8 -2.77492e+06
158 3 O 3.678 105.22 4.64796 -1.2 -9.80737 -3.53959e+06 -2.33851e+06 -4.27149e+06 2.32444e+06 583438 1.30868e+06
159 3 O 1.02482 101.517 4.59508 -1.2 -9.09321 -2.83678e+06 -2.15041e+06 -5.43321e+06 1.12572e+06 585451 576641
160 3 O 6.07249 104.812 3.32536 -1.2 -9.08694 -2.25539e+06 -2.93817e+06 -5.67106e+06 -515840 625365 55615.6
161 1 Mg 4.94338 105.963 0.227162 1.2 -7.83579 -1.23569e+06 3.71097e+06 219440 912943 1.68985e+06 -3.44413e+06
162 3 O 6.13206 104.478 5.8085 -1.2 -9.247 -3.53556e+06 -1.93911e+06 -3.82484e+06 302953 -2.35689e+06 1.84213e+06
163 1 Mg 4.95633 109.101 1.44654 1.2 -8.11342 1.10512e+06 2.22703e+06 1.03707e+06 -1.3529e+06 -437948 -353806
164 2 Si 2.91516 107.158 1.64774 2.4 -32.3532 4.6818e+06 9.8583e+06 7.45867e+06 101330 -3.20981e+06 -3.62044e+06
165 3 O 6.10874 107.114 1.54511 -1.2 -9.47999 -711605 -4.45007e+06 -3.71772e+06 826760 -1.93877e+06 2.04799e+06
166 3 O 3.98144 111.134 1.35545 -1.2 -8.27226 -3.97425e+06 -2.14035e+06 -2.36424e+06 2.35256e+06 311043 125781
167 3 O 3.75049 107.848 0.249494 -1.2 -8.93996 -3.69123e+06 -1.78354e+06 5231.2 824268 -1.8755e+06 710666
168 3 O 3.40947 107.803 2.90698 -1.2 -10.0315 -3.96561e+06 -3.64097e+06 -4.78095e+06 -668615 -234156 434502
169 1 Mg 2.76421 111.398 -0.360519 1.2 -7.82744 303533 4.11615e+06 -126908 15299.7 -695985 -2.16392e+06
170 1 Mg 7.23989 114.448 1.69946 1.2 -7.53871 -663065 1.74744e+06 3.29691e+06 1.23296e+06 68327.6 -648567
171 2 Si 4.78701 112.762 1.23011 2.4 -33.1275 6.98203e+06 1.01601e+07 9.2302e+06 -164767 613865 -2.20345e+06
172 3 O 6.26575 112.431 1.43648 -1.2 -9.33658 -4.51672e+06 -2.07722e+06 -4.14336e+06 -1.2907e+06 389826 969710
173 3 O 3.44561 116.581 1.16449 -1.2 -9.29524 -777072 -637914 -1.64426e+06 -246234 220718 -709936
174 3 O 4.07714 113.1 -0.191464 -1.2 -8.56728 -3.38581e+06 -3.76679e+06 -2.81861e+06 1.10442e+06 3.53086e+06 2.25387e+06
175 1 Mg 2.36512 122.61 2.87289 1.2 -7.79656 -1.19889e+06 3.77789e+06 276105 -556884 1.2055e+06 971646
176 3 O 3.96399 113.374 2.40634 -1.2 -9.70255 -2.97332e+06 -5.21365e+06 -2.75097e+06 269127 -2.03237e+06 -1.77668e+06
177 1 Mg 2.39007 119.729 4.3134 1.2 -8.09426 67844.4 1.31829e+06 3.18645e+06 2.03169e+06 -810469 921284
178 2 Si 5.13959 121.598 4.54687 2.4 -32.695 9.07996e+06 7.51403e+06 8.19771e+06 -586609 -1.13599e+06 -206553
179 3 O 3.5024 121.601 4.55973 -1.2 -9.21477 542178 -2.76551e+06 -5.04279e+06 -1.20878e+06 72987.7 -161248
180 3 O 6.06631 117.681 4.33732 -1.2 -9.12955 -3.35645e+06 -2.09974e+06 -3.42619e+06 -411272 404351 912054
181 3 O 5.87627 120.78 3.27734 -1.2 -9.27366 -3.27189e+06 -2.46727e+06 -3.45666e+06 -251293 -2.66436e+06 -163830
182 3 O 5.82455 121.059 5.80763 -1.2 -9.29039 -5.02557e+06 -3.38029e+06 -3.94231e+06 501987 234654 981378
183 1 Mg 4.75741 117.391 2.7208 1.2 -7.29946 -66062.6 3.00391e+06 427000 1.66859e+06 -1.58315e+06 857233
184 1 Mg 4.9634 113.686 4.28332 1.2 -7.36803 1.49561e+06 1.02179e+06 1.521e+06 -101349 1.06421e+06 334175
185 2 Si 6.78296 116.167 4.29555 2.4 -33.403 2.44341e+06 8.79372e+06 8.06037e+06 -464190 -868623 -1.8049e+06
186 3 O 3.47429 116.415 4.33899 -1.2 -9.31638 -7.31076e+06 -4.26384e+06 -3.5885e+06 378708 -240237 -489043
187 3 O 5.94928 111.963 4.09185 -1.2 -9.40371 -2.93277e+06 -5.98549e+06 -6.73326e+06 -700056 113966 606911
188 3 O 6.15364 115.351 3.17485 -1.2 -9.62124 -2.44142e+06 -605535 -4.91553e+06 -997569 -780512 -1.1122e+06
189 1 Mg 5.16871 116.79 -0.169392 1.2 -7.61445 352750 4.88345e+06 321889 1.11937e+06 1.2679e+06 -961119
190 3 O 6.22847 115.477 5.6648 -1.2 -8.6933 -2.89011e+06 -2.74595e+06 -4.96641e+06 269920 -1.51354e+06 1.29703e+06
191 1 Mg 4.98881 120.228 1.6357 1.2 -8.35627 1.4526e+06 908580 661522 -1.42656e+06 -562692 463701
192 2 Si 2.94886 118.168 1.03829 2.4 -33.2716 7.5581e+06 1.11725e+07 8.93559e+06 431888 -2.12916e+06 512108
193 3 O 6.06826 118.071 1.24954 -1.2 -9.2852 77594.6 -3.23651e+06 -2.55125e+06 1.81957e+06 -1.80187e+06 924365
194 3 O 3.80472 122.039 1.60778 -1.2 -8.77881 -1.93849e+06 -2.11079e+06 -2.39172e+06 2.24657e+06 79454.4 347717
195 3 O 3.65293 118.798 -0.196928 -1.2 -8.59496 -2.88448e+06 -2.68019e+06 -2.98783e+06 -705244 -1.13571e+06 -708466
196 3 O 3.56806 118.938 2.35594 -1.2 -9.26438 -2.98543e+06 -1.79577e+06 -1.54055e+06 268325 873267 739751
197 1 Mg 2.58756 122.104 -0.0372122 1.2 -8.06715 -3922.47 3.12539e+06 113059 -1.58443e+06 -1.26999e+06 -1.18783e+06
198 1 Mg 7.11635 125.353 1.34318 1.2 -8.30026 436795 2.12362e+06 2.96359e+06 1.04841e+06 -196662 2.19625e+06
199 2 Si 4.54703 123.671 1.36546 2.4 -32.9918 7.96893e+06 1.10146e+07 7.91251e+06 -345916 -633626 927201
200 3 O 6.14666 123.402 1.29213 -1.2 -9.52745 -1.60939e+06 -2.33995e+06 -2.87862e+06 -1.28588e+06 -802321 176203
201 3 O 3.55374 127.338 1.57015 -1.2 -8.59218 -1.32216e+06 -4.12141e+06 -2.54973e+06 -1.60422e+06 155416 489379
202 3 O 3.88485 124.079 0.00805172 -1.2 -8.72336 -2.85375e+06 -2.59561e+06 -2.25835e+06 645102 891737 -31240.5
203 1 Mg 2.59961 133.148 2.70736 1.2 -8.28622 -278658 3.68779e+06 903026 -513997 918351 1.22093e+06
204 3 O 3.77876 124.424 2.48722 -1.2 -9.09096 -1.30519e+06 -6.07819e+06 -2.70584e+06 -73306.8 -1.00667e+06 -2.1551e+06
205 1 Mg 2.21964 130.059 4.13211 1.2 -8.6561 1.3964e+06 -269154 1.14899e+06 1.30962e+06 1.99467e+06 -736738
206 2 Si 5.14314 132.128 4.31184 2.4 -34.331 9.1133e+06 1.07126e+07 7.29195e+06 896455 -1.92701e+06 -19549.8
207 3 O 3.64399 132.295 4.38005 -1.2 -8.51918 -4.17081e+06 -5.07888e+06 -3.92823e+06 -549895 -163209 974743
208 3 O 6.19897 128.285 4.37278 -1.2 -9.08104 -3.22095e+06 -5.10384e+06 -2.97411e+06 -2.24152e+06 -107849 -1.88388e+06
209 3 O 5.86953 131.385 2.91747 -1.2 -8.47692 -2.92269e+06 -1.38916e+06 -1.59315e+06 -398087 -2.26444e+06 884936
210 3 O 5.77766 131.442 5.52661 -1.2 -8.33259 -8.14005e+06 -2.2724e+06 -2.6354e+06 754087 -19668.1 2.73782e+06
211 1 Mg 4.88338 127.711 2.9968 1.2 -8.07643 -401966 4.51315e+06 -2.3389e+06 794656 -2.01922e+06 1.64462e+06
212 1 Mg 4.83094 124.813 4.4281 1.2 -8.03513 2.1718e+06 184026 1.77411e+06 -592823 352200 -115379
213 2 Si 6.85629 126.752 4.54521 2.4 -33.2652 6.82338e+06 1.14795e+07 8.22886e+06 -589005 -343931 -149902
214 3 O 3.71627 126.802 4.42535 -1.2 -9.16897 -437338 -3.73497e+06 -5.22581e+06 -17003.3 -1.25048e+06 -354838
215 3 O 5.70912 123.07 4.31102 -1.2 -9.70167 -3.41995e+06 -5.49164e+06 -1.71498e+06 1.079e+06 -65908.1 -81531.9
216 3 O 6.26478 126.076 3.24962 -1.2 -8.87972 -5.41423e+06 -4.48154e+06 -241931 316478 797824 -668297
217 1 Mg 4.8797 127.801 0.0628873 1.2 -7.80275 -1.05104e+06 4.89103e+06 -206769 887533 725126 105154
218 3 O 6.06455 126.151 5.81077 -1.2 -9.33494 -4.72519e+06 -4.66754e+06 -2.00878e+06 1.38225e+06 -1.94084e+06 -69941.7
219 1 Mg 4.83862 130.705 1.37282 1.2 -8.95984 1.62346e+06 1.10094e+06 535589 -1.15053e+06 -26746.1 -504662
220 2 Si 2.77464 128.909 1.57926 2.4 -33.7079 5.48467e+06 1.31811e+07 3.01731e+06 -1.901e+06 -88656.7 -939639
221 3 O 6.02007 128.741 1.52493 -1.2 -9.28186 -4.65464e+06 -5.26583e+06 -2.834e+06 -31491.4 -294786 537131
222 3 O 3.92573 132.543 1.24126 -1.2 -8.18385 -3.45263e+06 -2.28778e+06 -2.70694e+06 2.47034e+06 -145427 2.17126e+06
223 3 O 3.47965 129.495 0.301619 -1.2 -8.99999 -4.64344e+06 -5.42514e+06 -2.93225e+06 513827 -429048 1.47952e+06
224 3 O 3.39111 129.579 2.7817 -1.2 -8.7022 -4.97838e+06 -4.80204e+06 -6.16871e+06 135045 973411 -1.71026e+06
225 1 Mg 2.67061 132.929 -0.2153 1.2 -8.36231 -515406 4.26845e+06 -2.22236e+06 -522947 -1.79888e+06 -1.87334e+06
226 1 Mg 7.24007 135.888 1.40032 1.2 -8.45502 24094.5 1.78062e+06 1.86807e+06 973072 94709 -495621
227 2 Si 4.70805 134.222 1.40608 2.4 -33.4276 6.53112e+06 1.1352e+07 7.53296e+06 303632 419442 -807241
228 3 O 6.22922 134.024 1.23873 -1.2 -9.24172 -3.29433e+06 -3.8253e+06 -4.42513e+06 -743457 -1.16287e+06 1.58794e+06
229 3 O 3.65956 137.766 1.36452 -1.2 -9.17312 -3.85007e+06 -3.66107e+06 -2.95425e+06 -1.21422e+06 462074 789275
230 3 O 4.05596 134.762 0.0838907 -1.2 -8.56199 -5.41747e+06 -5.83626e+06 -911245 1.64164e+06 822138 2.50017e+06
231 1 Mg 2.55635 143.575 2.4702 1.2 -7.92889 -2.33591e+06 5.51228e+06 -3.10284e+06 -277806 2.56856e+06 1.06967e+06
232 3 O 3.9545 134.755 2.65102 -1.2 -9.2827 -3.69267e+06 -3.94995e+06 -4.16899e+06 671245 -1.32041e+06 412286
233 1 Mg 2.60185 140.571 4.3326 1.2 -8.58603 1.97212e+06 1.70247e+06 2.25653e+06 473203 184140 -1.75053e+06
234 2 Si 5.27427 142.542 4.07473 2.4 -33.7658 7.15428e+06 1.22838e+07 5.47127e+06 -360664 351015 -1.56061e+06
235 3 O 3.70862 142.711 4.09061 -1.2 -9.35999 -3.54108e+06 -4.88853e+06 -1.43352e+06 636750 -200428 -227193
236 3 O 6.3166 138.794 4.37631 -1.2 -8.78152 -4.03115e+06 -3.28921e+06 -1.60161e+06 -1.60689e+06 -335637 610077
237 3 O 5.92634 141.635 2.94564 -1.2 -8.62749 -3.13474e+06 -4.20891e+06 -2.01939e+06 -357872 -229709 -266468
238 3 O 5.8811 141.889 5.44393 -1.2 -8.81901 -1.63237e+06 -4.27817e+06 -2.826e+06 -156848 1.29601e+06 501418
239 1 Mg 4.95113 138.532 2.89862 1.2 -7.73919 -817671 3.33616e+06 -1.66815e+06 1.05218e+06 -1.32291e+06 1.77291e+06
240 1 Mg 4.82936 135.51 4.26965 1.2 -8.675 1.97302e+06 1.70192e+06 1.17366e+06 -644301 -449049 -1.64694e+06
241 2 Si 7.03129 137.245 4.38298 2.4 -33.5535 6.61763e+06 1.31452e+07 7.20798e+06 468998 454081 -1.19024e+06
242 3 O 3.8276 137.484 4.37543 -1.2 -9.35502 -2.059e+06 -4.45436e+06 -1.70262e+06 781544 -529982 235291
243 3 O 5.91061 133.686 4.20246 -1.2 -8.41966 -4.25604e+06 -2.27278e+06 -1.22437e+06 2.0267e+06 318132 706045
244 3 O 6.46241 136.527 3.05736 -1.2 -8.93575 -2.74853e+06 -4.31748e+06 -1.45839e+06 636466 1.46275e+06 1.64488e+06
245 1 Mg 5.04523 137.911 0.00144509 1.2 -7.95416 355385 3.78302e+06 -594857 1.41297e+06 1.22767e+06 -1.76426e+06
246 3 O 6.28632 136.59 5.65104 -1.2 -8.93567 -3.75176e+06 -5.16572e+06 -459592 -61252.4 -692961 1.1689e+06
247 1 Mg 5.02967 140.857 1.27346 1.2 -8.35061 1.34413e+06 257893 1.71802e+06 -1.89679e+06 58155.7 -235939
248 2 Si 3.01529 139.259 1.38448 2.4 -33.3213 5.0152e+06 1.26615e+07 4.91575e+06 -486885 -1.33476e+06 -1.49957e+06
249 3 O 6.08947 139.058 1.4415 -1.2 -9.26461 -152863 -5.60103e+06 -3.80014e+06 19769 9797.75 964010
250 3 O 3.86722 143.207 1.13475 -1.2 -9.08278 -3.08959e+06 -9.08837e+06 -3.77548e+06 613377 472741 930751
251 3 O 3.55573 140.066 0.179055 -1.2 -8.76407 -4.09146e+06 -4.68663e+06 -3.68136e+06 -344657 93830.6 682084
252 3 O 3.52653 139.999 2.588 -1.2 -9.09717 -4.87571e+06 -5.62474e+06 -6.07454e+06 -361443 -739152 -194093
253 1 Mg 2.71688 143.599 -0.35849 1.2 -7.30914 -3.30705e+06 5.28918e+06 -4.36785e+06 -728486 -3.91295e+06 -1.98055e+06
254 1 Mg 6.83534 146.414 1.21226 1.2 -8.15665 1.88255e+06 1.11891e+06 627567 -353255 292017 -2.07694e+06
255 2 Si 4.56179 144.603 1.15709 2.4 -33.5177 3.77139e+06 1.22351e+07 5.29625e+06 -2.33563e+06 -297314 -105883
256 3 O 6.13098 144.609 1.25304 -1.2 -9.44361 -3.92067e+06 -5.46075e+06 -4.53699e+06 4699.79 -367542 110852
257 3 O 3.26011 148.238 1.14223 -1.2 -8.91459 -2.25127e+06 -3.3296e+06 91455.3 -379434 375210 1.86953e+06
258 3 O 3.94634 145.239 -0.0846382 -1.2 -8.77718 -2.03583e+06 -7.08612e+06 -3.35125e+06 590466 -87436.3 2.3361e+06
259 1 Mg 1.806 153.742 1.4547 1.2 -7.44198 -1.20501e+06 394709 2.38845e+06 -100350 -237639 -366733
260 3 O 3.98184 145.412 2.45187 -1.2 -8.31152 -4.33781e+06 -3.92065e+06 -1.52035e+06 159140 -618212 722731
261 1 Mg 2.14606 151.347 4.45981 1.2 -8.33711 -577781 4.4699e+06 24161.2 -865114 382421 -468962
262 2 Si 4.15318 152.305 2.69922 2.4 -33.5808 1.0223e+07 1.03179e+07 1.87613e+06 -1.40689e+06 439999 418241
263 3 O 2.83981 153.149 3.01517 -1.2 -8.3694 -2.35628e+06 -3.55224e+06 -2.98944e+06 -1.14581e+06 2.09613e+06 -1.56772e+06
264 3 O 6.46528 149.235 4.04974 -1.2 -8.98666 -1.25972e+06 -3.7412e+06 -1.93383e+06 -763313 237276 1.92031e+06
265 3 O 4.85187 152.845 1.46837 -1.2 -9.17849 -5.85678e+06 -3.07932e+06 -5.50749e+06 512721 271460 1.56894e+06
266 3 O 5.10541 151.99 3.8441 -1.2 -8.98497 -4.82294e+06 -4.6387e+06 -2.88494e+06 -1.79551e+06 -730435 902844
267 1 Mg 4.76819 148.38 2.66838 1.2 -7.45125 -39072.4 4.67239e+06 -755454 1.013e+06 532272 260470
268 1 Mg 5.06816 145.773 4.20235 1.2 -8.42702 1.37128e+06 1.09666e+06 1.12325e+06 -1.71274e+06 652104 183616
269 2 Si 7.03862 147.703 4.22768 2.4 -32.8411 4.92136e+06 1.32325e+07 7.91644e+06 -981881 429356 -1.15997e+06
270 3 O 3.86622 147.673 4.18804 -1.2 -9.59306 -1.31864e+06 -5.27408e+06 -4.88185e+06 854548 590769 -8529.03