ITEM: TIMESTEP
6000
ITEM: NUMBER OF ATOMS
756
ITEM: BOX BOUNDS pp pp pp
-4.8435403183999997e+00 9.6870806368999993e+00
-1.0186409263300000e+01 2.0372818526500001e+01
-6.0013959751000003e+00 1.2002791950200001e+01
ITEM: ATOMS id type x y z
1 1 -0.0427273 -10.2402 -0.0622221
2 1 -0.0647791 -7.43044 -4.60892
3 2 -2.80952 -9.14554 -4.54095
4 3 -1.23613 -9.25894 -4.55477
5 3 -3.80281 -5.61288 -4.52498
6 3 -3.45431 -8.58104 -5.85092
7 1 -0.0576261 -10.1007 -3.02221
8 3 -3.54232 -8.47722 -3.33371
9 1 -4.7456 -2.73828 -1.56904
10 2 -2.11222 -1.06929 -1.47591
11 3 -3.65665 -0.978388 -1.52085
12 3 -1.09484 -4.60866 -1.6015
13 3 -1.4391 -1.71919 -2.81162
14 3 -1.38732 -1.68232 -0.240922
15 1 -2.40466 -5.02842 -3.0447
16 1 -2.56568 -7.82823 -1.53994
17 2 -0.372189 -6.12952 -1.55915
18 3 -3.59927 -6.05156 -1.50098
19 3 -1.35393 -9.63551 -1.5058
20 3 -1.06436 -6.76319 -2.79571
21 1 -2.41739 -5.04216 -0.101379
22 3 -1.0724 -6.76155 -0.285715
23 1 -2.36627 -2.30457 -4.50942
24 2 -4.57405 -4.11658 -4.48828
25 3 -1.22602 -4.143 -4.49911
26 3 -3.44497 -0.488388 -4.55628
27 3 -3.8648 -3.46763 -5.79052
28 3 -3.84597 -3.4051 -3.2355
30 1 -0.0480564 -7.33738 1.50656
31 2 -2.72697 -9.17968 1.54788
32 3 -1.17124 -9.29649 1.58231
33 3 -3.83883 -5.60854 1.47718
34 3 -3.4151 -8.61394 0.23739
36 3 -3.50787 -8.5614 2.77854
51 1 -2.39517 -2.25105 1.53948
52 2 -4.48914 -4.13335 1.43046
53 3 -1.28826 -4.13153 1.46765
54 3 -3.37772 -0.509448 1.37642
55 3 -3.77162 -3.50212 0.105289
56 3 -3.8485 -3.49758 2.72281
253 1 4.80482 -10.2439 0.055577
254 1 4.7926 -7.44329 -4.53973
255 2 2.10142 -9.25754 -4.4641
256 3 3.67975 -9.24144 -4.5208
257 3 0.95694 -5.62899 -4.56976
258 3 1.42232 -8.60495 -5.78479
259 1 4.81494 -10.064 -3.0192
260 3 1.3851 -8.57145 -3.21321
261 1 0.112986 -2.80785 -1.58699
262 2 2.86003 -0.998041 -1.57675
263 3 1.22056 -0.980719 -1.58357
264 3 3.86139 -4.58642 -1.5314
265 3 3.59665 -1.67797 -2.8206
266 3 3.53241 -1.64033 -0.308799
267 1 2.56257 -5.08478 -2.97862
268 1 2.3168 -7.93305 -1.45241
269 2 4.51702 -6.09729 -1.53707
270 3 1.2301 -6.02558 -1.55438
271 3 3.46929 -9.63768 -1.49911
272 3 3.78329 -6.73491 -2.79293
273 1 2.40958 -5.03408 0.0302859
274 3 3.83188 -6.72923 -0.258995
275 1 2.38005 -2.29681 -4.61383
276 2 0.330945 -4.119 -4.54933
277 3 3.57184 -4.14957 -4.53177
278 3 1.38438 -0.456152 -4.52894
279 3 0.955307 -3.43475 -5.78963
280 3 1.00763 -3.46241 -3.24579
282 1 4.7804 -7.34043 1.52358
283 2 2.05652 -9.19223 1.51634
284 3 3.64285 -9.27957 1.53602
285 3 1.07033 -5.58829 1.40682
286 3 1.41758 -8.48291 0.212052
288 3 1.37601 -8.55602 2.78854
303 1 2.61217 -2.30619 1.4004
304 2 0.279857 -3.99637 1.45451
305 3 3.62794 -4.15995 1.51919
306 3 1.44173 -0.575103 1.38433
307 3 0.991581 -3.43557 0.217649
308 3 0.957651 -3.43297 2.77577
505 1 9.66991 -10.238 0.116295
506 1 9.55526 -7.27385 -4.56021
507 2 6.88285 -9.13155 -4.53743
508 3 8.41446 -9.10905 -4.5354
509 3 5.83694 -5.57112 -4.5166
510 3 6.12302 -8.5011 -5.85607
511 1 9.57124 -10.1326 -3.09435
512 3 6.23276 -8.41664 -3.3007
513 1 4.98023 -2.86923 -1.47449
514 2 7.62062 -0.961104 -1.52643
515 3 6.02281 -0.870893 -1.5891
516 3 8.69546 -4.55261 -1.48715
517 3 8.31839 -1.65838 -2.76608
518 3 8.35051 -1.56102 -0.233864
519 1 7.18127 -5.15982 -3.14216
520 1 7.19703 -7.87078 -1.57516
521 2 9.37891 -6.07718 -1.51114
522 3 6.06579 -5.99387 -1.55329
523 3 8.24502 -9.67452 -1.45359
524 3 8.57476 -6.71171 -2.80843
525 1 7.28059 -5.11543 -0.0555827
526 3 8.69164 -6.74401 -0.238037
527 1 7.29679 -2.2234 -4.49105
528 2 5.13182 -4.04253 -4.48607
529 3 8.43254 -4.17305 -4.49854
530 3 6.26777 -0.432521 -4.49396
531 3 5.83423 -3.44917 -5.78618
532 3 5.86113 -3.44122 -3.28826
534 1 9.68862 -7.34293 1.4122
535 2 6.92739 -9.09005 1.49149
536 3 8.44781 -9.28119 1.52483
537 3 5.87748 -5.57991 1.43686
538 3 6.25096 -8.43952 0.230756
540 3 6.12542 -8.49112 2.76315
555 1 7.46151 -2.2764 1.39574
556 2 5.22699 -4.10674 1.42983
557 3 8.45698 -4.11796 1.43099
558 3 6.2361 -0.516041 1.42713
559 3 5.88924 -3.44182 0.190054
560 3 5.81909 -3.47583 2.71327
85 1 -0.0393836 0.0217601 0.0479283
86 1 0.000967949 2.82681 -4.4931
87 2 -2.74631 0.994606 -4.52259
88 3 -1.18585 0.949747 -4.55301
89 3 -3.82218 4.58256 -4.47414
90 3 -3.36817 1.70424 -5.82563
91 1 0.0990647 0.0683567 -3.02158
92 3 -3.3729 1.67148 -3.24347
93 1 -4.69857 7.39604 -1.37206
94 2 -2.10602 9.25322 -1.44767
95 3 -3.66676 9.23383 -1.3714
96 3 -1.0036 5.58427 -1.46384
97 3 -1.42979 8.56192 -2.74929
98 3 -1.4412 8.55508 -0.206972
99 1 -2.33426 5.18451 -2.98776
100 1 -2.53101 2.23151 -1.48955
101 2 -0.317261 4.07998 -1.56353
102 3 -3.54452 4.13358 -1.46568
103 3 -1.38047 0.479634 -1.47765
104 3 -1.03907 3.44026 -2.77566
105 1 -2.32779 5.10048 -0.00473363
106 3 -1.04325 3.54376 -0.247699
107 1 -2.32299 7.98118 -4.49359
108 2 -4.49461 6.09252 -4.47895
109 3 -1.30235 6.09217 -4.57359
110 3 -3.34898 9.72062 -4.48938
111 3 -3.86636 6.7592 -5.77808
112 3 -3.84442 6.75915 -3.21547
114 1 -0.0879235 2.88379 1.48411
115 2 -2.73099 0.931826 1.44277
116 3 -1.1871 0.949284 1.46063
117 3 -3.79547 4.5232 1.54761
118 3 -3.43038 1.6277 0.218053
120 3 -3.45899 1.61254 2.6902
135 1 -2.29483 7.91346 1.55246
136 2 -4.49585 6.05443 1.52969
137 3 -1.21058 5.97769 1.54347
138 3 -3.41219 9.70835 1.60819
139 3 -3.79388 6.74598 0.340325
140 3 -3.77196 6.6827 2.90107
337 1 4.88006 -0.0323309 -0.0701374
338 1 4.87266 2.7943 -4.52159
339 2 2.12216 0.990135 -4.58018
340 3 3.64443 0.943893 -4.62234
341 3 1.0343 4.6757 -4.4327
342 3 1.33833 1.69205 -5.86533
343 1 4.91304 0.012751 -3.09616
344 3 1.38506 1.6674 -3.35291
345 1 0.0275743 7.40536 -1.51562
346 2 2.80715 9.2762 -1.54435
347 3 1.18255 9.31685 -1.59269
348 3 3.84964 5.71869 -1.44964
349 3 3.4085 8.5659 -2.78662
350 3 3.46374 8.62236 -0.256339
351 1 2.29066 5.20312 -2.95847
352 1 2.32366 2.27755 -1.60158
353 2 4.53552 4.25017 -1.51849
354 3 1.23644 4.18299 -1.52377
355 3 3.50394 0.518494 -1.54767
356 3 3.80936 3.51942 -2.77517
357 1 2.44242 5.12584 0.0127302
358 3 3.85683 3.54902 -0.275722
359 1 2.43859 7.97066 -4.47783
360 2 0.266648 6.17062 -4.59718
361 3 3.57345 6.06149 -4.45179
362 3 1.33313 9.64693 -4.58189
363 3 0.926787 6.7011 -5.91095
364 3 0.952716 6.83795 -3.29084
366 1 4.77165 2.74737 1.39608
367 2 2.07288 1.01168 1.35668
368 3 3.56374 0.94977 1.34402
369 3 1.06716 4.52846 1.49448
370 3 1.32735 1.64441 0.0852531
372 3 1.34353 1.58523 2.66322
387 1 2.49499 7.98326 1.55302
388 2 0.383051 6.04061 1.53023
389 3 3.52657 6.01076 1.45128
390 3 1.33655 9.67629 1.5292
391 3 1.04387 6.79076 0.286558
392 3 1.07 6.65195 2.85731
589 1 9.68667 0.0319491 -0.0282483
590 1 9.66264 2.88871 -4.3496
591 2 6.95871 1.0571 -4.49657
592 3 8.55109 1.03407 -4.48157
593 3 5.83645 4.6526 -4.42522
594 3 6.17538 1.69976 -5.7721
595 1 9.72053 -0.00225565 -3.04263
596 3 6.27349 1.73246 -3.19791
597 1 5.08655 7.39669 -1.41395
598 2 7.60412 9.22706 -1.40672
599 3 6.0468 9.36901 -1.48847
600 3 8.66398 5.60172 -1.38153
601 3 8.33582 8.63786 -2.74687
602 3 8.26107 8.56134 -0.15383
603 1 7.30782 5.30655 -2.85216
604 1 7.19628 2.37122 -1.49528
605 2 9.38908 4.09623 -1.37014
606 3 6.10584 4.28096 -1.54659
607 3 8.31706 0.532261 -1.42415
608 3 8.70569 3.41586 -2.63832
609 1 7.31533 5.05547 0.123738
610 3 8.61278 3.52146 -0.0815421
611 1 7.4192 7.78268 -4.41726
612 2 5.11194 6.09844 -4.43621
613 3 8.46144 6.06661 -4.39572
614 3 6.1711 9.6257 -4.52016
615 3 5.78496 6.73425 -5.76744
616 3 5.85048 6.84469 -3.19247
618 1 9.68937 2.71867 1.617
619 2 6.95049 1.06076 1.57159
620 3 8.50852 0.955209 1.56176
621 3 5.80476 4.57033 1.56815
622 3 6.27817 1.6938 0.258361
624 3 6.23714 1.63227 2.78994
639 1 7.33141 7.81205 1.5237
640 2 5.11002 6.03666 1.55467
641 3 8.47231 6.04741 1.54613
642 3 6.16293 9.72802 1.59375
643 3 5.89806 6.71969 0.328643
644 3 5.85707 6.62907 2.8638
169 1 -0.00375665 10.1829 -0.0949631
170 1 -0.105693 13.0392 -4.45965
171 2 -2.70391 11.1875 -4.45701
172 3 -1.14961 11.1904 -4.52168
173 3 -3.79927 14.7473 -4.39679
174 3 -3.47925 11.8119 -5.74749
175 1 0.0451186 10.3036 -3.01993
176 3 -3.41706 11.8076 -3.10565
177 1 -4.76757 17.5976 -1.47891
178 2 -2.09839 19.3877 -1.44769
179 3 -3.64213 19.5471 -1.4733
180 3 -1.00659 15.7475 -1.34517
181 3 -1.46877 18.7725 -2.77734
182 3 -1.46135 18.79 -0.183712
183 1 -2.34981 15.2915 -2.97987
184 1 -2.52097 12.4758 -1.45071
185 2 -0.30703 14.2914 -1.40158
186 3 -3.55448 14.3438 -1.50646
187 3 -1.41687 10.6726 -1.43601
188 3 -0.969469 13.6441 -2.73016
189 1 -2.34594 15.2988 0.0714909
190 3 -1.01738 13.605 -0.176814
191 1 -2.40168 18.1744 -4.51718
192 2 -4.50428 16.244 -4.42717
193 3 -1.26832 16.2339 -4.47217
194 3 -3.59307 19.9108 -4.53643
195 3 -3.79723 16.8128 -5.77829
196 3 -3.8099 16.9188 -3.18811
198 1 -0.0223115 12.9787 1.57728
199 2 -2.71719 11.1956 1.57024
200 3 -1.17641 11.0506 1.54274
201 3 -3.74903 14.7748 1.498
202 3 -3.38912 11.8362 0.286466
204 3 -3.37812 11.8334 2.84569
219 1 -2.21481 18.1692 1.53962
220 2 -4.49319 16.2715 1.4478
221 3 -1.09617 16.137 1.60557
222 3 -3.46596 19.8305 1.54003
223 3 -3.69656 16.8688 0.265441
224 3 -3.81098 16.9032 2.80287
421 1 4.84176 10.2134 0.021337
422 1 4.73963 13.0281 -4.56268
423 2 2.05969 11.1272 -4.52339
424 3 3.59543 11.0369 -4.47054
425 3 1.00018 14.74 -4.48009
426 3 1.41283 11.7756 -5.83464
427 1 4.81618 10.1978 -3.08153
428 3 1.36301 11.7968 -3.28856
429 1 0.07734 17.5948 -1.46225
430 2 2.79815 19.4221 -1.55415
431 3 1.20419 19.4762 -1.56094
432 3 3.98393 15.7845 -1.50179
433 3 3.50363 18.8511 -2.84418
434 3 3.48549 18.7215 -0.282612
435 1 2.35112 15.1276 -2.96233
436 1 2.3384 12.4103 -1.46522
437 2 4.54968 14.2296 -1.5479
438 3 1.2961 14.3504 -1.49648
439 3 3.46514 10.724 -1.49551
440 3 3.85258 13.5717 -2.79581
441 1 2.5262 15.2883 0.020054
442 3 3.80643 13.569 -0.229312
443 1 2.56961 18.0653 -4.54047
444 2 0.316682 16.3299 -4.52774
445 3 3.62596 16.1828 -4.47599
446 3 1.40242 19.8608 -4.51385
447 3 0.995683 16.9145 -5.81801
448 3 1.00798 16.9497 -3.25121
450 1 4.73234 12.9482 1.52194
451 2 2.05307 11.1501 1.4969
452 3 3.57436 11.0324 1.51034
453 3 1.15374 14.8328 1.47703
454 3 1.33692 11.799 0.240371
456 3 1.38198 11.8825 2.75772
471 1 2.55972 18.1288 1.55049
472 2 0.450794 16.3149 1.57118
473 3 3.62317 16.2432 1.4575
474 3 1.40808 19.903 1.40626
475 3 1.06182 16.9472 0.226268
476 3 1.14093 16.931 2.82104
673 1 9.76413 10.137 0.17403
674 1 9.70109 12.9532 -4.47429
675 2 6.88409 11.0921 -4.4937
676 3 8.44512 11.1171 -4.45144
677 3 5.78245 14.7544 -4.48483
678 3 6.24183 11.823 -5.75079
679 1 9.63644 10.2334 -2.88918
680 3 6.22812 11.7436 -3.16644
681 1 5.01976 17.679 -1.47837
682 2 7.61172 19.4318 -1.49792
683 3 6.02338 19.4731 -1.4459
684 3 8.67782 15.7604 -1.4612
685 3 8.3334 18.7955 -2.76568
686 3 8.42016 18.7109 -0.277586
687 1 7.30298 15.2266 -2.88889
688 1 7.17998 12.4433 -1.40455
689 2 9.41634 14.2882 -1.48245
690 3 6.11823 14.2822 -1.43287
691 3 8.31457 10.7168 -1.39783
692 3 8.6766 13.6174 -2.78166
693 1 7.26323 15.3264 0.0161464
694 3 8.78461 13.6901 -0.187713
695 1 7.41803 18.1993 -4.53643
696 2 5.25218 16.2729 -4.41191
697 3 8.48147 16.1486 -4.41867
698 3 6.22308 19.9207 -4.48919
699 3 5.89215 16.9576 -5.77119
700 3 5.97721 16.8822 -3.17645
702 1 9.79313 13.0116 1.42619
703 2 6.94788 11.1622 1.64877
704 3 8.50109 11.0889 1.5488
705 3 5.95489 14.8043 1.66696
706 3 6.19613 11.9152 0.384848
708 3 6.30419 11.6929 3.02138
723 1 7.2887 18.1201 1.62668
724 2 5.23646 16.2632 1.55403
725 3 8.43479 16.215 1.3897
726 3 6.18994 19.9065 1.50146
727 3 5.90634 16.9611 0.296015
728 3 5.91333 17.0071 2.77444
29 1 -0.000671785 -10.1357 6.03889
35 1 0.0513522 -10.242 3.01217
37 1 -4.91337 -2.84668 4.47419
38 2 -2.07429 -0.971559 4.55495
39 3 -3.62426 -0.897163 4.46802
40 3 -1.08344 -4.58262 4.52365
41 3 -1.35813 -1.66623 3.31771
42 3 -1.405 -1.62098 5.84006
43 1 -2.45327 -5.0322 2.93409
44 1 -2.44628 -7.92863 4.4516
45 2 -0.369094 -6.03134 4.47502
46 3 -3.61525 -5.97428 4.46551
47 3 -1.37689 -9.67851 4.53718
48 3 -1.0391 -6.7018 3.19873
49 1 -2.47067 -5.0364 5.92613
50 3 -1.06888 -6.7416 5.7214
57 1 0.071351 -10.2317 12.0578
58 1 -0.144942 -7.4412 7.50639
59 2 -2.84638 -9.16888 7.42067
60 3 -1.24987 -9.23576 7.50202
61 3 -3.80521 -5.58084 7.43701
62 3 -3.47982 -8.50957 6.17509
63 1 0.0409898 -10.2149 9.04671
64 3 -3.53553 -8.51925 8.74467
65 1 -4.83749 -2.81298 10.5259
66 2 -2.12811 -0.931978 10.4501
67 3 -3.71554 -0.875956 10.4177
68 3 -1.10341 -4.58633 10.4102
69 3 -1.41431 -1.58857 9.17997
70 3 -1.46532 -1.75905 11.6859
71 1 -2.47707 -5.0642 8.95554
72 1 -2.39953 -8.03048 10.4007
73 2 -0.365258 -6.09223 10.5082
74 3 -3.6863 -5.90238 10.4727
75 3 -1.35429 -9.7182 10.5105
76 3 -1.0849 -6.75299 9.21384
77 1 -2.39422 -4.99071 11.9261
78 3 -1.04989 -6.74202 11.7402
79 1 -2.41968 -2.27705 7.52758
80 2 -4.56384 -4.10086 7.48635
81 3 -1.27884 -4.08455 7.46127
82 3 -3.46599 -0.550201 7.57976
83 3 -3.87301 -3.37802 6.23977
84 3 -3.87295 -3.44418 8.72017
281 1 4.83081 -10.0872 6.0176
287 1 4.81474 -10.0069 3.09863
289 1 0.0317669 -2.85499 4.47866
290 2 2.72838 -0.972397 4.39067
291 3 1.1791 -0.849956 4.40162
292 3 3.76108 -4.62797 4.50839
293 3 3.41046 -1.72604 3.13084
294 3 3.33273 -1.69765 5.64448
295 1 2.45298 -4.97827 2.97823
296 1 2.29634 -7.8417 4.51693
297 2 4.45528 -6.09892 4.50771
298 3 1.15688 -5.99391 4.52455
299 3 3.46971 -9.66601 4.53686
300 3 3.75168 -6.79122 3.21867
301 1 2.38758 -5.10776 5.97942
302 3 3.70582 -6.7948 5.74113
309 1 4.83398 -10.2576 11.9209
310 1 4.71636 -7.4073 7.42461
311 2 2.07744 -9.22653 7.51759
312 3 3.64172 -9.21838 7.51696
313 3 0.958727 -5.57226 7.51435
314 3 1.41008 -8.55763 6.29043
315 1 4.82497 -10.1347 8.98017
316 3 1.39712 -8.60873 8.80897
317 1 -0.0488634 -2.77387 10.398
318 2 2.69245 -0.997239 10.4636
319 3 1.157 -0.815534 10.5015
320 3 3.74042 -4.61016 10.4324
321 3 3.41094 -1.61752 9.17845
322 3 3.36544 -1.6772 11.7358
323 1 2.34012 -5.09706 8.98712
324 1 2.39683 -7.9655 10.5867
325 2 4.4817 -6.07436 10.4682
326 3 1.12884 -5.94927 10.5057
327 3 3.50561 -9.74616 10.5374
328 3 3.79747 -6.78244 9.13604
329 1 2.3548 -5.02042 11.9472
330 3 3.7539 -6.76249 11.7669
331 1 2.32873 -2.30988 7.41683
332 2 0.226725 -4.08742 7.52276
333 3 3.56105 -4.26071 7.47762
334 3 1.28152 -0.517562 7.41734
335 3 1.08089 -3.4681 6.30557
336 3 0.942754 -3.36166 8.77943
533 1 9.56874 -10.2877 6.02656
539 1 9.70512 -10.1555 3.0081
541 1 4.87123 -2.8343 4.37112
542 2 7.61732 -0.930523 4.44897
543 3 6.06076 -0.902499 4.47711
544 3 8.71116 -4.62522 4.48082
545 3 8.35275 -1.57074 3.19124
546 3 8.22886 -1.58711 5.76069
547 1 7.29863 -5.01056 2.97189
548 1 7.14852 -7.90718 4.57054
549 2 9.3912 -6.17835 4.44069
550 3 6.05178 -6.04429 4.54472
551 3 8.2361 -9.67846 4.60342
552 3 8.67558 -6.73186 3.15176
553 1 7.29106 -5.0371 5.93291
554 3 8.68039 -6.85315 5.71813
561 1 9.62747 -10.0867 11.9562
562 1 9.64232 -7.33861 7.43217
563 2 6.95217 -9.25333 7.50598
564 3 8.48992 -9.42078 7.45196
565 3 5.88425 -5.56757 7.46742
566 3 6.2443 -8.49202 6.25095
567 1 9.59848 -10.2722 8.94794
568 3 6.30807 -8.58752 8.8268
569 1 4.80921 -2.80956 10.2999
570 2 7.55562 -0.938925 10.4704
571 3 5.96822 -0.925737 10.4665
572 3 8.56852 -4.58278 10.3834
573 3 8.22223 -1.6389 9.20927
574 3 8.27607 -1.5986 11.8106
575 1 7.17 -5.13698 8.85278
576 1 7.20467 -7.87638 10.5104
577 2 9.26579 -6.01841 10.4373
578 3 6.00963 -5.93572 10.4902
579 3 8.21023 -9.6888 10.4713
580 3 8.65158 -6.78406 9.18301
581 1 7.15544 -5.00221 11.9486
582 3 8.55113 -6.63986 11.7352
583 1 7.21733 -2.15634 7.49207
584 2 5.13055 -4.11567 7.45309
585 3 8.36382 -4.20985 7.442
586 3 6.19531 -0.510248 7.5735
587 3 5.78196 -3.42617 6.15288
588 3 5.86395 -3.38693 8.72371
113 1 -0.0162852 0.00619038 5.98619
119 1 -0.0661289 -0.025932 2.93189
121 1 -4.77529 7.3319 4.56623
122 2 -2.09201 9.11599 4.57259
123 3 -3.63956 9.18146 4.5311
124 3 -0.990366 5.55706 4.46561
125 3 -1.39207 8.47366 3.26143
126 3 -1.32998 8.50379 5.79006
127 1 -2.38247 5.1589 2.9868
128 1 -2.47185 2.16923 4.46815
129 2 -0.293284 4.05391 4.45844
130 3 -3.63091 4.1035 4.47969
131 3 -1.32712 0.517795 4.48943
132 3 -1.12572 3.4326 3.30579
133 1 -2.36666 5.03789 5.98502
134 3 -0.993148 3.45769 5.78491
141 1 -0.0859959 0.0472504 11.9753
142 1 -0.0551533 2.85128 7.45479
143 2 -2.75989 0.977056 7.51801
144 3 -1.21169 0.953349 7.48129
145 3 -3.76228 4.55915 7.5519
146 3 -3.48624 1.53001 6.21738
147 1 -0.0532829 0.0223391 8.99125
148 3 -3.43839 1.6396 8.81932
149 1 -4.7716 7.30848 10.5226
150 2 -2.09135 9.2163 10.4409
151 3 -3.61061 9.28729 10.4217
152 3 -1.04478 5.59427 10.4216
153 3 -1.36932 8.54123 9.2149
154 3 -1.42122 8.48856 11.7573
155 1 -2.4806 5.03525 8.99424
156 1 -2.48737 2.31339 10.5222
157 2 -0.325294 4.13752 10.5574
158 3 -3.55904 4.21572 10.475
159 3 -1.43007 0.486037 10.58
160 3 -1.06918 3.36232 9.33211
161 1 -2.44948 5.1444 12.0235
162 3 -0.936259 3.56658 11.9366
163 1 -2.38808 7.9228 7.425
164 2 -4.50398 6.05715 7.53627
165 3 -1.20361 6.05493 7.49014
166 3 -3.43784 9.65516 7.46026
167 3 -3.88485 6.61703 6.20535
168 3 -3.79735 6.74014 8.79439
365 1 4.74505 -0.0661667 5.94912
371 1 4.81708 -0.00880477 2.9643
373 1 0.151949 7.31942 4.49988
374 2 2.81912 9.16102 4.54946
375 3 1.29772 9.1653 4.46858
376 3 3.83738 5.54227 4.49171
377 3 3.51548 8.51283 3.23241
378 3 3.49846 8.52102 5.82892
379 1 2.52513 5.0417 3.00248
380 1 2.3726 2.26282 4.45829
381 2 4.49017 4.05253 4.58077
382 3 1.28938 4.09319 4.45751
383 3 3.42479 0.471176 4.45336
384 3 3.91539 3.38239 3.25693
385 1 2.38989 4.99628 6.08657
386 3 3.68621 3.45493 5.87155
393 1 4.83605 -0.0928872 11.9725
394 1 4.63346 2.93042 7.59216
395 2 2.03512 0.974052 7.39205
396 3 3.60207 0.945836 7.37583
397 3 0.998067 4.63816 7.55545
398 3 1.2871 1.64609 6.13358
399 1 4.82571 0.166944 9.00489
400 3 1.37189 1.62409 8.68316
401 1 0.0228752 7.36094 10.4329
402 2 2.70845 9.14525 10.4732
403 3 1.14863 9.23842 10.4229
404 3 3.84302 5.58838 10.4839
405 3 3.46192 8.54621 9.20381
406 3 3.35999 8.55272 11.7414
407 1 2.3498 5.15045 8.96674
408 1 2.25806 2.21379 10.3571
409 2 4.44896 4.04631 10.4955
410 3 1.22891 4.20354 10.5108
411 3 3.41322 0.564806 10.4459
412 3 3.70031 3.43889 9.21976
413 1 2.4281 5.00927 12.038
414 3 3.82321 3.47237 11.8001
415 1 2.50029 7.8844 7.58293
416 2 0.340921 6.1506 7.51566
417 3 3.68783 5.88939 7.54444
418 3 1.35809 9.64957 7.43318
419 3 1.13736 6.70767 6.231
420 3 1.08605 6.81858 8.76335
617 1 9.72168 -0.151875 6.06553
623 1 9.66061 0.166459 3.0624
625 1 4.9687 7.33143 4.59586
626 2 7.59576 9.17669 4.56969
627 3 6.01526 9.20595 4.58983
628 3 8.6385 5.54971 4.4811
629 3 8.25481 8.58823 3.25509
630 3 8.25298 8.45576 5.83305
631 1 7.2737 5.07716 3.02429
632 1 7.30342 2.33283 4.59359
633 2 9.31595 4.10295 4.49735
634 3 6.09334 4.16503 4.60421
635 3 8.26942 0.550285 4.47705
636 3 8.59068 3.39916 3.27641
637 1 7.27328 5.18255 6.01331
638 3 8.63528 3.51261 5.86852
645 1 9.71032 0.118729 12.0174
646 1 9.60172 2.83445 7.55299
647 2 6.89107 1.02844 7.46793
648 3 8.49814 0.968893 7.4951
649 3 5.96225 4.57014 7.60553
650 3 6.19565 1.60524 6.16383
651 1 9.69117 0.0168854 8.9083
652 3 6.21744 1.72003 8.68828
653 1 4.88039 7.33636 10.4985
654 2 7.51558 9.12449 10.5685
655 3 5.96386 9.25949 10.4978
656 3 8.67467 5.5394 10.5435
657 3 8.26623 8.43402 9.3205
658 3 8.22131 8.50699 11.8697
659 1 7.2951 5.09468 9.08509
660 1 7.14316 2.30155 10.5301
661 2 9.38592 4.02248 10.5008
662 3 6.00412 4.04186 10.498
663 3 8.26967 0.47301 10.4826
664 3 8.6979 3.42224 9.22975
665 1 7.23218 5.07013 12.0323
666 3 8.65894 3.40901 11.7959
667 1 7.35037 7.82802 7.5485
668 2 5.21145 6.04819 7.60248
669 3 8.41367 5.99563 7.53661
670 3 6.23297 9.63535 7.57928
671 3 5.87953 6.69453 6.30606
672 3 5.84337 6.73023 8.85535
197 1 0.0460983 10.0896 5.98861
203 1 0.00991271 9.95365 2.96108
205 1 -4.84963 17.5409 4.52887
206 2 -2.11316 19.4202 4.5327
207 3 -3.61465 19.4352 4.51705
208 3 -0.907489 15.8084 4.52405
209 3 -1.34884 18.7559 3.22779
210 3 -1.39626 18.7373 5.80372
211 1 -2.35755 15.2599 2.98039
212 1 -2.39035 12.4831 4.63413
213 2 -0.134761 14.3236 4.45526
214 3 -3.5167 14.387 4.45502
215 3 -1.31817 10.6157 4.53474
216 3 -0.92593 13.7171 3.27142
217 1 -2.33175 15.2987 5.94236
218 3 -0.959162 13.591 5.75082
225 1 0.00816152 10.1534 12.012
226 1 -0.0881373 12.9401 7.46348
227 2 -2.72828 11.1447 7.51691
228 3 -1.1822 11.0661 7.50355
229 3 -3.7926 14.7126 7.43316
230 3 -3.37695 11.8517 6.2622
231 1 -0.0322095 10.0934 8.91848
232 3 -3.48225 11.8207 8.76813
233 1 -4.6389 17.5764 10.5615
234 2 -2.06846 19.3837 10.5133
235 3 -3.62306 19.4443 10.4145
236 3 -1.08181 15.8039 10.5356
237 3 -1.36723 18.6634 9.22246
238 3 -1.34631 18.7748 11.8205
239 1 -2.34632 15.3504 9.12707
240 1 -2.6302 12.4315 10.5099
241 2 -0.371097 14.2544 10.5633
242 3 -3.62809 14.2716 10.5516
243 3 -1.39244 10.6909 10.5253
244 3 -1.03706 13.5288 9.29637
245 1 -2.38955 15.2536 12.0565
246 3 -1.07336 13.686 11.8756
247 1 -2.29324 18.1348 7.49458
248 2 -4.40436 16.1885 7.44002
249 3 -1.23092 16.1459 7.52848
250 3 -3.48352 19.8466 7.43204
251 3 -3.7943 16.9704 6.22859
252 3 -3.72179 16.8083 8.7595
449 1 4.94127 10.0863 6.03392
455 1 4.78758 10.1461 2.92821
457 1 0.0922233 17.5668 4.52798
458 2 2.75742 19.4136 4.61609
459 3 1.19646 19.4975 4.59258
460 3 3.87652 15.8189 4.46282
461 3 3.43189 18.7209 3.37744
462 3 3.52077 18.7779 5.90986
463 1 2.47382 15.2809 3.07832
464 1 2.41112 12.3871 4.56108
465 2 4.53468 14.352 4.4481
466 3 1.36065 14.4694 4.47864
467 3 3.47155 10.67 4.49242
468 3 3.85882 13.5875 3.2146
469 1 2.45639 15.2423 6.03199
470 3 3.90168 13.6574 5.72372
477 1 4.74616 10.0421 12.0963
478 1 4.83451 12.9704 7.46458
479 2 2.1046 11.1605 7.48281
480 3 3.64354 10.9595 7.4835
481 3 0.964658 14.8249 7.44176
482 3 1.33982 11.8243 6.26642
483 1 4.76386 10.1992 8.99644
484 3 1.46682 11.8441 8.73966
485 1 0.0447741 17.5006 10.5032
486 2 2.83014 19.3241 10.4677
487 3 1.27274 19.3932 10.3933
488 3 3.92911 15.7015 10.4434
489 3 3.49204 18.6755 9.15573
490 3 3.42822 18.6682 11.7252
491 1 2.46971 15.1657 9.0302
492 1 2.38809 12.423 10.4575
493 2 4.60628 14.2413 10.5102
494 3 1.26129 14.377 10.6007
495 3 3.41449 10.6709 10.5092
496 3 3.8345 13.5023 9.23484
497 1 2.47852 15.2438 12.0369
498 3 3.8829 13.5669 11.7398
499 1 2.53571 18.0692 7.51108
500 2 0.316097 16.322 7.4878
501 3 3.62751 16.1215 7.57367
502 3 1.38236 19.8394 7.43451
503 3 1.03646 16.9246 6.21013
504 3 1.00769 16.9664 8.76712
701 1 9.76126 10.2965 6.13981
707 1 9.71511 10.1937 3.18743
709 1 4.96275 17.5909 4.50659
710 2 7.56899 19.397 4.51839
711 3 5.99929 19.4691 4.52649
712 3 8.64992 15.7277 4.46017
713 3 8.28828 18.8104 3.21728
714 3 8.23288 18.6453 5.71784
715 1 7.34828 15.1477 3.0279
716 1 7.22486 12.3747 4.71268
717 2 9.44497 14.3149 4.42892
718 3 6.16996 14.3724 4.53911
719 3 8.28107 10.6272 4.63966
720 3 8.75643 13.6329 3.11366
721 1 7.29562 15.2937 5.98565
722 3 8.78847 13.5455 5.70911
729 1 9.60785 10.2076 12.1163
730 1 9.50436 12.9494 7.4583
731 2 6.9233 11.08 7.59766
732 3 8.47679 11.0701 7.56802
733 3 5.90204 14.7239 7.52782
734 3 6.2419 11.7588 6.33424
735 1 9.63843 10.1492 9.09564
736 3 6.22171 11.7852 8.85994
737 1 4.97438 17.4685 10.4155
738 2 7.59011 19.417 10.5209
739 3 6.01806 19.3417 10.4919
740 3 8.66104 15.7622 10.5282
741 3 8.22838 18.7975 9.14246
742 3 8.3376 18.8193 11.8053
743 1 7.33934 15.3494 8.96416
744 1 7.24221 12.3992 10.4881
745 2 9.34043 14.2745 10.4971
746 3 6.10556 14.3711 10.5217
747 3 8.2809 10.5957 10.5349
748 3 8.54876 13.6614 9.23309
749 1 7.22129 15.2995 12.0324
750 3 8.65779 13.5442 11.7518
751 1 7.20804 18.0049 7.36804
752 2 5.19247 16.2019 7.5586
753 3 8.55149 16.1383 7.40175
754 3 6.20511 19.8651 7.47704
755 3 5.8764 16.8316 6.23888
756 3 5.99455 16.9207 8.74466
