ITEM: TIMESTEP
1000
ITEM: NUMBER OF ATOMS
141
ITEM: BOX BOUNDS xy xz yz pp pp pp
0.0 8.9688 2.9896
0.0 168.75 0.0
0.0 414.274 0.0
ITEM: ATOMS id type x y z q2 q3 q4 q5 q6 q7 q8 q9 q10 q11 q12
12796 2 4.19826 75.3677 197.652 0.0404844 0.0959067 0.278601 0.0605943 0.173831 0.0544052 0.267697 0.0797785 0.162584 0.0812308 0.163064
12797 2 2.15952 77.2402 194.116 0.0499408 0.078823 0.251812 0.0503597 0.185906 0.0658588 0.258179 0.0777794 0.137791 0.0671748 0.162501
12804 3 0.85464 75.476 202.167 0.019224 0.0464158 0.211785 0.0304225 0.167724 0.0384942 0.228146 0.0505085 0.147788 0.0433755 0.161931
12808 1 0.480024 73.1488 202.03 0.0350598 0.144994 0.126625 0.0536733 0.157864 0.0752349 0.261187 0.0822523 0.115152 0.0714705 0.143342
12812 2 3.92825 77.6104 202.021 0.0379813 0.157597 0.267481 0.0691306 0.192989 0.0855288 0.274467 0.119745 0.18009 0.0995632 0.17819
12817 3 2.14213 72.9829 203.113 0.0268177 0.0941092 0.143728 0.0398834 0.180214 0.0462602 0.264938 0.0549644 0.117791 0.0404942 0.150197
12818 1 3.79972 74.763 203.851 0.0311291 0.176707 0.131545 0.068171 0.105546 0.089223 0.266718 0.104614 0.100086 0.0824143 0.124149
12819 1 2.59014 75.6405 200.631 0.0444391 0.0307331 0.285271 0.0471702 0.203497 0.0582846 0.287364 0.0393415 0.150097 0.0537047 0.135948
12820 3 3.87636 77.4799 206.487 0.0219957 0.0319521 0.223598 0.0405579 0.150016 0.0486149 0.199309 0.0403088 0.147249 0.0470426 0.137387
12823 3 1.132 75.4835 199.234 0.0371849 0.0395382 0.244821 0.0407139 0.164629 0.0313993 0.230905 0.0354348 0.132384 0.0445684 0.138983
12824 1 5.95879 75.0416 206.378 0.0381226 0.129165 0.15699 0.0699777 0.121913 0.0618661 0.203754 0.0729165 0.11653 0.077238 0.109538
12825 3 5.32663 78.365 194.991 0.0401693 0.038709 0.249683 0.044847 0.199992 0.0429952 0.261588 0.0491963 0.133935 0.0538035 0.173077
12831 3 3.60218 71.3342 201.423 0.0203849 0.0340782 0.225442 0.023294 0.177629 0.023688 0.275287 0.0395013 0.124299 0.026297 0.166592
12832 3 7.70317 75.0863 207.424 0.113827 0.084367 0.141241 0.0391582 0.177148 0.0481639 0.188657 0.0646431 0.110959 0.0563112 0.134409
12833 1 -1.18409 72.0792 205.04 0.057826 0.0456472 0.313611 0.0336745 0.157493 0.0476455 0.279536 0.0347264 0.118826 0.0456297 0.150083
12835 1 7.01956 76.8913 208.111 0.0576394 0.0956318 0.150829 0.0534624 0.146082 0.0584659 0.172674 0.0811129 0.120033 0.0739421 0.121863
12836 1 2.51812 77.7901 205.029 0.0325885 0.0650036 0.249016 0.0880695 0.129139 0.0548057 0.258653 0.0530137 0.120617 0.0753424 0.116924
12841 1 5.47472 76.9674 210.724 0.0196307 0.135845 0.212686 0.0548219 0.158236 0.070255 0.199056 0.0887392 0.133776 0.078876 0.138503
12842 3 0.804944 77.7185 203.586 0.0494808 0.0340628 0.224827 0.0359693 0.180801 0.0421325 0.243661 0.0544158 0.155368 0.0360758 0.145951
12843 1 -0.406798 75.5894 200.662 0.0294552 0.0533557 0.293619 0.0500001 0.182696 0.0398341 0.249605 0.0709057 0.141087 0.0521681 0.155092
12845 2 6.14162 71.9477 207.384 0.0512146 0.0503995 0.228673 0.0387662 0.13237 0.050254 0.276155 0.0497397 0.126227 0.0509412 0.154571
12846 1 1.86061 72.1613 205.112 0.0278874 0.0237782 0.24497 0.0382499 0.145087 0.0440476 0.285219 0.0615586 0.122163 0.0494005 0.156398
12848 3 9.31391 73.4771 205.766 0.191743 0.0436574 0.204766 0.0331408 0.168596 0.0520248 0.196971 0.0560711 0.142438 0.0573351 0.127438
12849 3 7.22583 77.0114 211.771 0.0791913 0.0467168 0.19523 0.0482878 0.189971 0.0402242 0.211484 0.0591465 0.141948 0.0592126 0.142216
12850 1 4.34048 74.0079 209.511 0.0286502 0.0722977 0.274141 0.0676137 0.192127 0.0739256 0.249803 0.0643412 0.127718 0.0654483 0.147658
12855 3 -0.411088 75.684 204.525 0.0370786 0.077496 0.174123 0.0430434 0.155902 0.0623357 0.254921 0.0403869 0.117165 0.0514201 0.123238
12856 3 3.3356 71.0659 204.011 0.029359 0.061058 0.200923 0.0281079 0.18302 0.039592 0.287055 0.0419593 0.130938 0.0379991 0.165855
12858 3 2.13696 75.7799 204.439 0.0455272 0.0937048 0.160656 0.0449197 0.15101 0.0666254 0.234646 0.0550942 0.132192 0.0489413 0.122601
12859 1 -0.713791 77.7904 204.993 0.0493192 0.073595 0.251032 0.0466 0.165432 0.0643921 0.247798 0.0590901 0.139169 0.0660799 0.140407
12861 2 5.66234 73.9543 211.79 0.0405881 0.0374804 0.257456 0.0611081 0.166442 0.0631841 0.284369 0.0633855 0.132319 0.0597374 0.173405
12863 1 7.39461 73.8917 209.585 0.077459 0.044457 0.255486 0.0522928 0.13906 0.0527836 0.233132 0.0645918 0.130549 0.0703881 0.115328
12865 3 8.77412 75.2311 210.242 0.14367 0.0693888 0.201596 0.05482 0.164462 0.0523204 0.197296 0.0653245 0.123545 0.0524822 0.132757
12866 1 3.85219 76.1351 213.796 0.0660141 0.092119 0.215773 0.0645191 0.161291 0.0564493 0.256857 0.0760639 0.154514 0.0781592 0.165573
12871 3 2.59951 77.8515 208.756 0.0382602 0.0507953 0.200526 0.0468446 0.178248 0.0457708 0.198308 0.0454277 0.146183 0.0475511 0.152905
12872 3 8.83108 73.0765 208.353 0.133203 0.0630239 0.175406 0.0443776 0.18395 0.0563087 0.239096 0.0497811 0.152926 0.0578702 0.145709
12873 3 6.23795 73.0219 206.146 0.042084 0.0473329 0.238501 0.0345813 0.161219 0.0326033 0.25426 0.0333288 0.143048 0.0450941 0.135543
12874 3 5.30061 77.5752 208.854 0.0425174 0.0660246 0.219519 0.061864 0.171207 0.0369891 0.217893 0.0638615 0.132263 0.0591191 0.139687
12877 2 5.32377 76.1421 216.084 0.0385339 0.066453 0.214206 0.0453147 0.156199 0.0792403 0.26351 0.0535162 0.143451 0.0705237 0.167552
12879 1 6.9247 76.0133 213.807 0.0712306 0.0351707 0.275752 0.0565446 0.166584 0.0494239 0.28372 0.0609673 0.135456 0.0502016 0.153892
12882 3 8.268 77.3352 214.522 0.0742679 0.0508184 0.254937 0.0448672 0.186136 0.055672 0.246459 0.0707198 0.142566 0.0494867 0.153095
12889 3 8.42358 75.0575 212.796 0.11933 0.0455248 0.196429 0.0384139 0.185187 0.0435721 0.248974 0.0494491 0.114785 0.0572501 0.133176
12890 3 5.83259 74.988 210.517 0.038991 0.056223 0.242183 0.0533568 0.173859 0.049106 0.223215 0.0614142 0.13907 0.0631179 0.133962
12906 3 5.39839 77.1206 214.743 0.0458999 0.0537639 0.231683 0.0566112 0.172801 0.0508226 0.26146 0.0530248 0.149949 0.0458622 0.160285
13749 3 4.00602 75.8937 202.026 0.0429916 0.0695575 0.200718 0.0394058 0.176083 0.0413454 0.26232 0.0571238 0.151602 0.0527677 0.162912
13752 2 3.37226 72.1054 202.73 0.0319655 0.0629202 0.29355 0.0470187 0.178138 0.0479505 0.296274 0.0493675 0.150234 0.058667 0.162583
13758 3 6.74616 77.9489 206.413 0.0357645 0.0279817 0.230104 0.0439013 0.178412 0.0334821 0.221377 0.0392981 0.13472 0.0469408 0.133861
13761 2 9.0459 74.2432 207.191 0.210013 0.0931651 0.181842 0.044682 0.169373 0.045588 0.187591 0.0657749 0.121034 0.044981 0.138799
13771 2 8.58018 76.0879 211.538 0.120278 0.0724368 0.252518 0.0553653 0.168666 0.083419 0.224217 0.104941 0.156942 0.0894459 0.139699
13781 2 8.18507 78.2611 215.779 0.0833323 0.0672313 0.282913 0.0551198 0.179447 0.0558601 0.270038 0.0880608 0.130571 0.0710094 0.132975
13794 3 3.82937 78.5641 197.989 0.0265687 0.0736003 0.170983 0.0486098 0.17966 0.0455318 0.219525 0.0509521 0.107247 0.0468784 0.140501
13795 1 1.27841 76.5306 197.441 0.0427963 0.0963822 0.11464 0.0478436 0.163679 0.0556095 0.21295 0.0570511 0.107902 0.055559 0.163011
13812 2 1.20394 73.8687 199.221 0.0309535 0.0746689 0.274511 0.054838 0.174047 0.0464296 0.265353 0.0552501 0.150731 0.0695306 0.148109
13814 3 7.44455 71.0387 207.04 0.110303 0.115818 0.152195 0.0762933 0.189405 0.0589978 0.268553 0.0667877 0.132148 0.0681047 0.17741
13819 1 5.13944 76.3022 194.834 0.0225316 0.105717 0.152581 0.0616059 0.174861 0.0490352 0.230928 0.0635123 0.097741 0.0509611 0.151431
13820 3 0.855671 76.327 193.817 0.0654176 0.0437082 0.219265 0.0539216 0.161211 0.0577098 0.25712 0.0669006 0.109955 0.0591752 0.164598
13822 2 0.857571 76.106 203.606 0.0483003 0.0306437 0.261154 0.0281025 0.174399 0.0420701 0.265597 0.0518584 0.145795 0.0479847 0.141307
13823 3 6.93724 72.998 211.524 0.0678182 0.106889 0.138364 0.0653987 0.191955 0.0509977 0.273582 0.0598509 0.118545 0.0611497 0.152579
13827 1 5.85745 71.3974 210.562 0.0657151 0.101493 0.138673 0.0655346 0.19979 0.0812366 0.30041 0.0598956 0.104917 0.0726191 0.167557
13830 1 5.40265 78.3981 199.229 0.0200502 0.129146 0.185489 0.0652876 0.140215 0.0619817 0.20724 0.0718548 0.12503 0.0578907 0.143494
13831 3 1.21908 78.3212 198.224 0.0285281 0.0691798 0.167253 0.0664011 0.156741 0.0565233 0.187283 0.0588797 0.113917 0.0632689 0.130611
13834 2 3.96942 77.9682 207.957 0.0276926 0.0969931 0.221527 0.0662734 0.142126 0.0656136 0.230044 0.0891407 0.128648 0.0804432 0.132331
13837 3 4.21083 75.8512 199.145 0.0206766 0.0431661 0.236691 0.0289423 0.177181 0.047843 0.222117 0.0566747 0.140151 0.0450604 0.165895
13838 1 5.47592 73.5326 214.943 0.0531429 0.110751 0.105163 0.0611555 0.198432 0.0598073 0.308169 0.0732294 0.0807944 0.0615509 0.181848
13841 1 3.44021 68.9787 203.717 0.0451295 0.119933 0.105033 0.0519504 0.171231 0.0757369 0.312888 0.0816341 0.111026 0.066056 0.170975
13847 3 5.54262 75.7971 196.757 0.0251558 0.0979028 0.210066 0.0521332 0.177798 0.0454652 0.228839 0.0517795 0.11433 0.0418658 0.143333
13848 3 3.8682 78.0197 203.524 0.0255714 0.0695019 0.18679 0.0381001 0.183475 0.0467396 0.227328 0.0560594 0.148032 0.0531751 0.154314
13851 3 2.88852 75.5928 196.856 0.0438293 0.0830517 0.151545 0.0557777 0.190683 0.0445758 0.244063 0.0469407 0.113474 0.0535556 0.139645
13852 1 9.11256 70.9482 208.092 0.195488 0.127131 0.149132 0.0701011 0.154497 0.0729219 0.224183 0.0899236 0.14971 0.0587605 0.156393
13856 3 4.83907 71.1073 206.975 0.0319855 0.0665769 0.211691 0.0421937 0.157701 0.0479291 0.265833 0.0482941 0.113161 0.0501808 0.144072
13858 3 5.2592 77.9151 201.146 0.0386189 0.0695773 0.189702 0.0702755 0.166589 0.0353929 0.230527 0.0687267 0.13484 0.0564829 0.15763
13863 3 2.64071 77.7937 201.186 0.0324271 0.0843559 0.172633 0.054313 0.173716 0.055166 0.229077 0.0544188 0.113377 0.0459279 0.147326
13864 1 8.64872 73.0421 212.581 0.177344 0.0830365 0.177464 0.0663003 0.148953 0.0782774 0.248063 0.0787695 0.111123 0.0788152 0.116473
13867 3 4.37755 73.1189 211.426 0.0492707 0.0531698 0.12619 0.0431801 0.170296 0.0470872 0.252472 0.0454829 0.0976074 0.0452862 0.142985
13870 3 8.70073 70.703 212.294 0.118905 0.0507215 0.224687 0.0370482 0.158056 0.0589734 0.278003 0.0475853 0.121667 0.0579083 0.15057
13878 3 4.08061 75.2665 215.711 0.0515415 0.0493226 0.149022 0.0397535 0.171407 0.0461881 0.258464 0.0606545 0.11829 0.0532852 0.16436
13879 3 10.1168 70.516 209.932 0.273031 0.0458027 0.18514 0.0435554 0.157368 0.0291683 0.202399 0.0651526 0.129246 0.0475684 0.149954
13886 3 7.59081 70.4451 209.975 0.100721 0.100421 0.116996 0.0667944 0.176786 0.0530812 0.280983 0.0592699 0.12447 0.0465049 0.165322
13891 3 9.79593 72.5885 214.317 0.241912 0.0330944 0.235386 0.0335592 0.178846 0.0441337 0.252589 0.0517669 0.134686 0.0486738 0.149411
13942 3 4.67195 73.0788 203.075 0.0166515 0.0939569 0.220141 0.0468417 0.163629 0.0450639 0.273036 0.0465786 0.113369 0.0386303 0.131836
13954 3 10.3921 74.9337 207.642 0.185235 0.0699411 0.18548 0.0601852 0.17843 0.0532277 0.182473 0.0462497 0.10989 0.0496444 0.136368
13964 3 9.87309 76.8968 211.884 0.227557 0.0356312 0.204769 0.0369077 0.182795 0.045019 0.177942 0.0415276 0.111372 0.0551973 0.156178
14269 3 2.17335 78.0353 195.437 0.0257244 0.0312492 0.219432 0.0301901 0.171811 0.0448374 0.227448 0.0605693 0.122908 0.0483898 0.152313
14271 3 0.370972 70.7786 204.353 0.0196317 0.0436815 0.230714 0.0313348 0.15044 0.0308095 0.254412 0.0353204 0.107458 0.030936 0.147383
14272 3 5.97995 72.6532 208.799 0.0196142 0.0542147 0.233978 0.0449921 0.162657 0.0523434 0.238846 0.0289507 0.140387 0.0465841 0.137151
14273 3 5.53234 74.7403 213.144 0.0292316 0.0648055 0.25196 0.0334592 0.174319 0.0461499 0.257688 0.0499048 0.135957 0.0503895 0.148011
14832 3 2.67186 84.732 197.626 0.0223441 0.0603761 0.264876 0.0356103 0.152756 0.0472574 0.257897 0.0600237 0.132398 0.0420756 0.128092
14836 1 2.63904 82.4571 197.354 0.0438266 0.107702 0.133747 0.0685359 0.156053 0.0758892 0.257671 0.0798403 0.121035 0.0524292 0.134073
14842 1 0.898661 79.4774 195.953 0.0306978 0.0424745 0.234474 0.0484612 0.145864 0.0509215 0.216631 0.0698292 0.094684 0.0344227 0.159249
14843 3 4.25886 82.3681 198.395 0.0241612 0.0744291 0.165348 0.0451363 0.171129 0.0530347 0.253182 0.0435905 0.150118 0.0541091 0.126719
14845 1 5.85812 84.1103 199.3 0.0515677 0.102538 0.160547 0.0522369 0.188788 0.0756316 0.293613 0.0716587 0.140138 0.0761091 0.143905
14852 1 3.09884 84.5433 201.779 0.0470922 0.103924 0.140332 0.0465557 0.170866 0.0580914 0.283409 0.0786429 0.11984 0.0575654 0.144538
14857 2 2.45979 79.3414 198.389 0.037941 0.0875542 0.243908 0.0680823 0.162486 0.0720427 0.245354 0.107322 0.151698 0.0741016 0.151985
14858 1 3.83831 79.3258 196.083 0.0434679 0.052357 0.233329 0.0261861 0.192991 0.0469889 0.260196 0.0526521 0.12196 0.0576878 0.130029
14859 3 5.44962 80.7308 196.69 0.0207923 0.063816 0.250824 0.0319302 0.166505 0.0477629 0.242956 0.0506607 0.153759 0.0402845 0.144024
14860 1 1.41912 81.6201 200.236 0.0318411 0.066253 0.196215 0.0692067 0.153387 0.0721526 0.19512 0.0683678 0.130585 0.0545538 0.142154
14861 3 4.82429 84.3907 202.862 0.0347133 0.0975505 0.168221 0.0366489 0.1759 0.0481868 0.285867 0.049215 0.121339 0.0444341 0.148416
14865 3 1.13991 82.9606 195.485 0.0271633 0.0884813 0.17278 0.0507422 0.151631 0.0450411 0.244783 0.0610984 0.133073 0.0451376 0.145973
14872 2 6.87206 79.5743 206.419 0.057534 0.103885 0.233523 0.0777825 0.185222 0.0848933 0.227129 0.106843 0.142374 0.0823018 0.167443
14873 2 2.95793 81.3583 202.773 0.0457309 0.0810956 0.246946 0.0807078 0.150184 0.0597112 0.243745 0.0765353 0.147162 0.0707399 0.142716
14874 1 4.29274 81.3879 200.472 0.0368975 0.0614218 0.271879 0.0405908 0.181644 0.0583943 0.245875 0.0484318 0.139545 0.0645528 0.13108
14875 3 5.94602 82.8425 201.131 0.0141894 0.065245 0.235385 0.0434477 0.160079 0.0440007 0.240138 0.0443492 0.150313 0.0478618 0.157899
14877 1 1.74002 83.4459 204.92 0.0455495 0.0246697 0.25454 0.0568261 0.148471 0.0410168 0.276177 0.0518213 0.128741 0.0549035 0.145336
14878 3 4.07576 79.6019 210.79 0.022026 0.0329663 0.243466 0.0328502 0.174638 0.0451395 0.223596 0.0626163 0.137333 0.041337 0.160093
14881 3 1.55763 85.0517 199.959 0.0310974 0.0894236 0.185943 0.0466193 0.160111 0.0461866 0.24756 0.0565479 0.147328 0.0459677 0.151448
14882 3 5.72455 80.4771 199.347 0.0402014 0.0344614 0.244759 0.0431053 0.155864 0.0438687 0.232137 0.0499308 0.151273 0.0385205 0.143474
14883 3 2.35367 80.3368 197.094 0.0200262 0.0561799 0.173084 0.0543323 0.173205 0.0244168 0.225182 0.058323 0.134219 0.049604 0.138081
14884 3 4.11354 84.9274 199.992 0.0358591 0.0937261 0.146874 0.0496406 0.189225 0.0462965 0.29315 0.0483049 0.125046 0.0528965 0.166105
14888 2 7.01466 81.6901 210.738 0.0522031 0.0418491 0.227103 0.0615422 0.173012 0.0635138 0.257188 0.0823411 0.1275 0.0734046 0.167504
14890 1 4.75482 83.5835 204.776 0.0556246 0.0102318 0.348744 0.024544 0.202359 0.0260364 0.303889 0.0317598 0.151539 0.0380558 0.1534
14891 1 7.14003 78.8955 212.442 0.0545518 0.101162 0.157997 0.0513441 0.171745 0.0535699 0.215265 0.064061 0.126916 0.0534724 0.135354
14895 1 5.49167 79.964 209.353 0.0303271 0.0513682 0.279865 0.0463161 0.186855 0.0333253 0.261638 0.055668 0.137269 0.0438132 0.161051
14897 1 5.17619 79.2497 215.071 0.0367541 0.0854778 0.162807 0.0546067 0.158786 0.0418385 0.232002 0.0544906 0.111003 0.0506821 0.133646
14898 3 4.05046 79.6033 207.923 0.0370616 0.0374308 0.216979 0.0304133 0.183945 0.0316846 0.241301 0.034042 0.14987 0.0369868 0.16085
14900 3 6.18983 82.5271 203.753 0.0337176 0.0287537 0.260037 0.0363693 0.159771 0.0337464 0.252982 0.0456212 0.142463 0.0410822 0.139943
14901 3 2.87284 82.399 201.514 0.031692 0.0584846 0.177557 0.054145 0.166692 0.0324266 0.240994 0.0606364 0.140494 0.0482746 0.148845
14914 3 4.14196 81.7425 212.191 0.0402469 0.0422825 0.183213 0.0259379 0.200365 0.0306605 0.256544 0.0369635 0.136355 0.037553 0.177246
14919 1 2.54155 79.8571 209.35 0.0615463 0.0874234 0.261191 0.0480309 0.190242 0.0788265 0.287353 0.0838451 0.145118 0.0633224 0.16018
14929 3 2.72729 79.8858 213.063 0.0586881 0.0658757 0.155851 0.0579293 0.165277 0.0523556 0.20464 0.0653759 0.142786 0.059538 0.158129
14930 3 5.39636 79.7537 213.121 0.0359566 0.0686835 0.195009 0.0381489 0.17203 0.0373208 0.218624 0.0470804 0.113284 0.0399954 0.139952
15784 3 5.66463 85.2009 197.594 0.0410567 0.055361 0.201505 0.0335725 0.1913 0.0330074 0.293284 0.0354317 0.154259 0.0385869 0.160374
15786 2 5.6267 81.5468 198.041 0.00881215 0.087963 0.272349 0.060183 0.15974 0.0718082 0.287839 0.075479 0.167086 0.0637576 0.168863
15796 2 6.09015 83.5448 202.464 0.0231193 0.0637432 0.238952 0.0377942 0.152048 0.0494771 0.277604 0.0569897 0.151293 0.0468661 0.168242
15813 3 6.9757 80.025 210.721 0.0526081 0.0343199 0.235775 0.0381647 0.196966 0.0385546 0.245201 0.049051 0.138438 0.0489127 0.169889
15848 3 4.35643 80.5938 202.363 0.0335082 0.0865103 0.197346 0.0433061 0.164711 0.0435436 0.216132 0.0394076 0.131062 0.0365532 0.132265
15849 1 1.05397 78.7695 201.695 0.0265545 0.110526 0.158498 0.0497215 0.128009 0.0437102 0.18778 0.0614808 0.118748 0.0659574 0.143179
15856 2 2.85567 85.3235 199.082 0.0273604 0.0658691 0.217223 0.0512575 0.151726 0.0282509 0.255857 0.048921 0.145857 0.0419268 0.145756
15860 1 3.88324 80.7375 206.19 0.0361231 0.121812 0.133979 0.0603643 0.136293 0.055115 0.246705 0.0696138 0.112616 0.0712979 0.110537
15885 1 5.89269 80.572 203.591 0.0254452 0.111306 0.160065 0.064372 0.117018 0.0655072 0.214539 0.0670821 0.130918 0.0699333 0.126326
15887 3 1.61419 80.5171 202.538 0.030151 0.0991253 0.177979 0.0461111 0.123404 0.0566595 0.191333 0.0607496 0.126422 0.0652373 0.118371
15889 2 4.09457 80.1112 212.26 0.051832 0.081516 0.27126 0.0683236 0.175793 0.0543875 0.257293 0.0824221 0.148387 0.0816617 0.160758
15900 3 2.08597 82.5955 206.837 0.0448484 0.0850049 0.149741 0.0512113 0.154987 0.0446533 0.232776 0.0460223 0.119802 0.039126 0.129215
15903 3 6.89682 80.1537 207.87 0.0223295 0.0525923 0.230705 0.0354782 0.183457 0.0531605 0.222409 0.0566442 0.13891 0.037061 0.15285
15912 3 8.19328 79.7964 205.617 0.115413 0.0496753 0.155278 0.0545966 0.181685 0.05399 0.201259 0.0475398 0.112034 0.0536791 0.124838
15918 3 5.61226 79.9745 205.543 0.0229292 0.100791 0.176092 0.0472293 0.145906 0.061497 0.237189 0.04978 0.121075 0.0555534 0.118985
15923 3 8.29628 81.9607 209.864 0.133007 0.0838276 0.146044 0.0654656 0.21633 0.0586989 0.250933 0.0724819 0.137148 0.0569738 0.183006
15961 3 6.41515 80.3328 194.058 0.0406848 0.0924312 0.142919 0.047526 0.187206 0.0526699 0.279967 0.0465379 0.0941437 0.0548938 0.153088
15974 3 6.82058 82.5224 198.335 0.0448268 0.0639529 0.140947 0.0536042 0.165568 0.0556011 0.266255 0.0452312 0.117473 0.052978 0.140127
15986 3 7.38236 84.5518 202.835 0.0735191 0.107447 0.150567 0.0547378 0.175646 0.0457672 0.27537 0.0536012 0.115511 0.0606047 0.178912
16019 3 9.50412 79.0474 216.119 0.177252 0.0578698 0.16475 0.0557146 0.214885 0.0426543 0.223241 0.0508185 0.093451 0.0541512 0.139628
16314 3 2.6331 80.2147 199.662 0.0277295 0.0573502 0.232924 0.032913 0.154066 0.0484485 0.192627 0.0583201 0.139743 0.0504368 0.142945
16315 3 3.2672 82.155 204.124 0.0212724 0.0239915 0.250766 0.0215908 0.175036 0.0359328 0.229668 0.0528563 0.141251 0.0339422 0.13996
