ITEM: TIMESTEP
7000
ITEM: NUMBER OF ATOMS
13888
ITEM: BOX BOUNDS pp pp pp
45.0 100.0
50.0 105.0
-18.06819 30.11365
ITEM: ATOMS id type x y z coord q2 q3 q4 q5 q6 q7 q8 q2_mono q3_mono q4_mono q5_mono q6_mono q7_mono q8_mono
3 3 49.126 50.277 -13.9529 24 0.0395045  0.057903  0.111416  0.0508093  0.0970926  0.0395639  0.10551  0.0111911  0.023793  0.0743744  0.0717224  0.107737  0.0396774  0.0826923  
6 3 52.6203 51.6631 -15.1208 24 0.0383103  0.0308554  0.11304  0.0462832  0.123334  0.0528146  0.0964407  0.0093927  0.0266082  0.0692592  0.074301  0.155283  0.056732  0.0866386  
19 1 45.8765 54.2737 -13.7351 25 0.0391165  0.0862994  0.181426  0.057915  0.0957055  0.078901  0.207163  0.0355369  0.0575112  0.106328  0.0411322  0.110588  0.0833585  0.0985959  
21 1 48.9871 54.5426 -15.0383 26 0.0359844  0.0527622  0.123294  0.0544003  0.0630233  0.0708316  0.158233  0.0219426  0.043535  0.100626  0.0500316  0.142896  0.0900394  0.0992622  
23 1 46.5712 52.8081 -16.1048 23 0.0132414  0.0566837  0.174429  0.034613  0.0822242  0.0455457  0.127628  0.0333021  0.0608141  0.126784  0.0578337  0.104639  0.082899  0.111749  
24 2 46.6201 51.8226 -12.8901 23 0.0180589  0.0413329  0.150399  0.0448921  0.0780466  0.0683257  0.122014  0.03711  0.0394988  0.0888127  0.0422217  0.097656  0.0604686  0.11707  
25 2 46.1306 55.4878 -16.663 26 0.0247841  0.108016  0.191197  0.0554686  0.122946  0.0604396  0.166613  0.017238  0.0251446  0.143946  0.0718496  0.11427  0.0597326  0.119663  
28 3 46.6406 57.364 -13.8142 24 0.0300709  0.0720076  0.142192  0.0317234  0.118873  0.0472294  0.15905  0.0100493  0.0211073  0.0571748  0.0888763  0.254935  0.0990673  0.172493  
29 3 46.6303 50.9674 -16.8632 24 0.0187739  0.0399468  0.146726  0.0467054  0.0887528  0.0503891  0.0863453  0.0116797  0.0223333  0.0795824  0.0715039  0.1206  0.0544881  0.0789187  
31 3 45.9948 54.2037 -17.5354 26 0.0351807  0.0462887  0.159852  0.0477157  0.0944135  0.0595496  0.124601  0.00974018  0.0403392  0.0834991  0.0664028  0.163532  0.0701108  0.110748  
34 3 47.3382 52.4978 -14.2259 25 0.0184617  0.0525321  0.12647  0.040118  0.0695206  0.0450937  0.139167  0.00995971  0.02103  0.054392  0.063674  0.153534  0.080532  0.112144  
35 1 48.7146 51.6125 -15.3867 27 0.0130546  0.0602225  0.164068  0.0470283  0.0852286  0.0716284  0.138859  0.0314111  0.0580275  0.109969  0.0467156  0.140024  0.0496927  0.112643  
36 1 50.6578 57.3886 -14.2721 21 0.0420245  0.0658808  0.0565789  0.0559743  0.111219  0.0425904  0.148426  0.0321172  0.0359065  0.0885646  0.0467689  0.134721  0.0452216  0.137695  
37 1 49.4705 57.3679 -17.0541 23 0.0110336  0.0544975  0.0951384  0.0420813  0.0775884  0.0427553  0.115819  0.0299408  0.0506472  0.121422  0.0583172  0.136899  0.0875436  0.154302  
39 1 53.1599 54.0913 -12.1486 26 0.0408298  0.0456617  0.114538  0.0611806  0.108326  0.0601961  0.126473  0.0228845  0.0635703  0.108077  0.080815  0.106479  0.0692989  0.137553  
41 1 51.7074 52.1592 -16.8461 25 0.0362024  0.0621064  0.109978  0.0547068  0.0642741  0.0461579  0.123562  0.0299407  0.0217524  0.127243  0.0456449  0.140286  0.0851595  0.142484  
43 2 51.8608 52.7255 -14.1819 23 0.0289387  0.0427923  0.12491  0.0509911  0.0870783  0.0523952  0.113516  0.0575502  0.0596328  0.148154  0.0697306  0.11303  0.0361565  0.137286  
44 2 48.2035 57.5643 -13.9207 27 0.0355608  0.059112  0.108026  0.0856669  0.168938  0.0580924  0.155797  0.0239066  0.0269959  0.225936  0.0481086  0.138252  0.0718685  0.161617  
45 2 52.8952 55.1734 -15.3987 28 0.0267539  0.109384  0.119629  0.0813228  0.118835  0.0828273  0.186139  0.0318296  0.0732484  0.218624  0.0664203  0.139808  0.0794466  0.157797  
47 3 51.845 52.2395 -12.6294 21 0.0404712  0.0428453  0.0775933  0.0408954  0.0864684  0.0382027  0.114783  0.0147312  0.0272574  0.112537  0.0867598  0.148201  0.068068  0.124894  
48 3 51.6166 57.4791 -12.5317 23 0.0226426  0.0515108  0.107467  0.0392532  0.0963912  0.0428351  0.164212  0.0198236  0.023931  0.0873034  0.0591732  0.286325  0.084696  0.150648  
49 3 47.007 54.9088 -15.4194 26 0.0301922  0.0703691  0.139431  0.0512511  0.1046  0.0464795  0.1488  0.0182062  0.020145  0.0398255  0.0774349  0.189589  0.0764899  0.133261  
51 3 48.9531 56.02 -13.5906 22 0.0192961  0.0571389  0.0812911  0.0396949  0.132472  0.0583439  0.144414  0.0143312  0.0166782  0.0922992  0.0956809  0.249257  0.0818945  0.161129  
54 3 52.0149 56.3386 -15.2135 25 0.0136114  0.0219056  0.0971417  0.0538362  0.104176  0.0417147  0.14182  0.0132823  0.0431162  0.075238  0.0615231  0.235178  0.0809599  0.135948  
55 3 50.5016 53.0947 -14.8383 24 0.0343623  0.0474129  0.133775  0.0359845  0.0871488  0.0362488  0.116625  0.00654539  0.0258254  0.0723666  0.102205  0.183619  0.0388719  0.120928  
56 3 48.9232 57.9126 -15.2551 23 0.0170261  0.0630918  0.0624639  0.0596453  0.121887  0.0395532  0.117572  0.0145626  0.0281718  0.0510147  0.0700025  0.255824  0.0754662  0.148231  
57 3 52.5875 54.0686 -16.5565 21 0.0218735  0.040714  0.099158  0.0458119  0.0988754  0.0642506  0.136171  0.0113002  0.0249985  0.0657941  0.0888738  0.150009  0.0688758  0.107622  
60 3 52.936 53.9778 -14.1112 21 0.0275533  0.0443505  0.0894467  0.0658638  0.0928316  0.0362999  0.120282  0.0193029  0.0263177  0.0685283  0.0893954  0.197361  0.0776695  0.144979  
62 3 48.5378 53.0137 -16.9185 19 0.0313042  0.0396009  0.174533  0.0433912  0.0940981  0.042812  0.131297  0.0162127  0.0326004  0.058361  0.0871838  0.188695  0.0753719  0.104289  
63 1 52.8887 50.7109 -12.0901 20 0.0357804  0.0770191  0.113317  0.0503445  0.0780365  0.0780806  0.0961921  0.0270564  0.0370776  0.123758  0.0481895  0.105035  0.0445284  0.133261  
72 2 53.0917 57.384 -12.544 24 0.0474934  0.0902844  0.160163  0.0518746  0.138073  0.0679262  0.175942  0.0385469  0.0706392  0.270932  0.04117  0.199999  0.0710798  0.179109  
84 3 53.7136 58.224 -13.7358 22 0.0346698  0.0516734  0.104926  0.0492028  0.129709  0.0471269  0.159225  0.0094636  0.0198559  0.101346  0.0579869  0.306648  0.079827  0.158812  
89 3 53.5691 57.9584 -17.1465 23 0.0215602  0.0598326  0.098811  0.0437752  0.155082  0.0349218  0.170423  0.0137303  0.0238628  0.107465  0.0567568  0.28593  0.0736155  0.144514  
1756 1 45.8197 56.5868 -12.0846 28 0.0274736  0.036083  0.189659  0.065501  0.131349  0.0628568  0.172713  0.0297069  0.0489263  0.0891119  0.070086  0.142402  0.0594865  0.096162  
1767 3 47.6796 51.5013 -11.7915 21 0.0162112  0.0503266  0.12134  0.051725  0.109232  0.0509416  0.118012  0.018404  0.0211703  0.0833432  0.0924825  0.130607  0.0673722  0.123116  
1773 1 50.4234 57.5745 -10.813 25 0.0351436  0.0695784  0.167753  0.0481169  0.122871  0.0589248  0.163493  0.0370989  0.0418685  0.117003  0.0609747  0.155286  0.08147  0.188815  
1774 1 49.617 51.7432 -12.1547 21 0.0554499  0.0873937  0.0662927  0.0562972  0.104913  0.0569621  0.145143  0.0254099  0.0381484  0.117835  0.0469211  0.122627  0.0513224  0.132807  
1793 3 52.038 54.9612 -10.8716 24 0.0152759  0.0539728  0.0911333  0.0499233  0.135319  0.0458052  0.146284  0.0147454  0.033554  0.0884245  0.101958  0.227459  0.0743953  0.123652  
1797 3 48.8232 58.3802 -12.6986 23 0.0229594  0.0387788  0.105004  0.0388104  0.167302  0.0414592  0.162813  0.00850589  0.0267665  0.0893222  0.0591124  0.282643  0.0874152  0.171609  
1798 3 49.499 53.8522 -12.3496 26 0.0256994  0.0372289  0.0658604  0.0507329  0.120886  0.0527116  0.123222  0.0121894  0.0260081  0.0971977  0.0717843  0.197562  0.0636852  0.124225  
1825 3 53.7218 58.1675 -11.2339 23 0.0227552  0.0634644  0.0914054  0.0409456  0.155201  0.0541764  0.170852  0.00632354  0.0118077  0.110153  0.0594423  0.310468  0.0338223  0.175329  
53 3 50.413 50.6199 -16.1466 20 0.0398135  0.0618481  0.160752  0.0646551  0.0611534  0.0551312  0.0843352  0.00676077  0.0202414  0.0765771  0.060131  0.138147  0.0735496  0.0722602  
1759 1 46.4672 53.7445 -10.6608 26 0.0207056  0.0558869  0.136469  0.062277  0.0990178  0.050825  0.117563  0.0248541  0.0138949  0.0817243  0.0348817  0.10419  0.0526836  0.11786  
1761 2 48.7128 55.1925 -12.2232 25 0.0167842  0.0471194  0.135715  0.0716572  0.159254  0.0675957  0.136145  0.0221355  0.0487654  0.17461  0.0475664  0.118391  0.0570153  0.125242  
1766 3 47.1456 55.0436 -12.1368 23 0.0189878  0.032887  0.14254  0.0547765  0.137274  0.0562509  0.147923  0.0163748  0.0370201  0.0935153  0.076391  0.202733  0.0912625  0.167139  
1777 1 50.2659 53.9951 -10.474 26 0.0333446  0.0843696  0.133317  0.0497492  0.139506  0.0845641  0.108836  0.0192993  0.0329286  0.0722065  0.0372444  0.113554  0.0606943  0.10207  
1778 1 47.8791 58.8517 -10.5441 26 0.0208467  0.100233  0.121686  0.0538866  0.172707  0.0886326  0.149605  0.020593  0.0376555  0.104186  0.0660074  0.176381  0.0606383  0.129969  
1785 3 49.3392 55.9063 -10.9341 24 0.0115372  0.0555764  0.108025  0.0445182  0.122132  0.0433903  0.122569  0.0167438  0.0256903  0.121485  0.0605539  0.259511  0.0672941  0.162318  
20 1 45.5564 57.988 -15.5366 22 0.0363672  0.0643347  0.116167  0.0545256  0.117832  0.0802435  0.166326  0.032422  0.0363635  0.0958139  0.0411321  0.143122  0.073699  0.113153  
2825 3 46.86 57.1195 -10.4789 27 0.0351474  0.0400128  0.159915  0.0535181  0.1721  0.0570682  0.139777  0.0196213  0.0194009  0.0859211  0.0841117  0.216981  0.084485  0.145335  
12159 3 53.4414 50.3601 -17.82 22 0.0203322  0.0489685  0.117817  0.0376249  0.0980517  0.0330032  0.112652  0.0185243  0.0244972  0.0841794  0.0352148  0.14066  0.0522316  0.090869  
12203 3 46.8243 56.7639 -17.4789 23 0.0170641  0.0681519  0.110832  0.0378063  0.103552  0.0563835  0.136195  0.0106364  0.0268373  0.0477904  0.082983  0.19494  0.107478  0.111175  
12212 3 49.5822 55.3891 -16.7754 22 0.0208129  0.0521607  0.095021  0.0375284  0.0808447  0.0527176  0.121263  0.0188799  0.0192699  0.071283  0.0740846  0.212082  0.0775422  0.119224  
2815 3 45.621 52.8529 -12.2383 24 0.0294207  0.0491761  0.154607  0.0384137  0.0877847  0.0700271  0.11559  0.0180852  0.0303572  0.0350398  0.0399368  0.126018  0.0869439  0.138764  
27 3 46.1691 50.3864 -13.368 23 0.0328917  0.0258213  0.15246  0.0227148  0.0806328  0.0494059  0.11505  0.0080668  0.0304458  0.0616813  0.0507303  0.121134  0.094421  0.0990905  
79 3 53.8783 55.9883 -12.5259 24 0.0354197  0.0398739  0.0622099  0.0405071  0.143138  0.0545765  0.146028  0.0267442  0.0274467  0.0897326  0.0736892  0.232419  0.0886328  0.14282  
77 3 54.5247 55.5288 -15.4595 24 0.0246786  0.0512177  0.109237  0.0346051  0.124428  0.0600603  0.163344  0.0173301  0.0313245  0.0549987  0.0555956  0.232941  0.0588143  0.152138  
1739 3 48.1902 53.4381 -9.9082 24 0.0382852  0.0435015  0.109364  0.042953  0.116815  0.0516521  0.10947  0.0211288  0.0201482  0.09339  0.049231  0.136815  0.0884582  0.118929  
5662 3 61.1981 77.384 1.23659 26 0.0405738  0.0475416  0.196843  0.0375342  0.197424  0.0316842  0.271209  0.0125127  0.015839  0.123898  0.0816506  0.399506  0.0746459  0.246397  
7 3 54.502 50.4672 -13.1944 22 0.0337668  0.0735576  0.114136  0.0416183  0.0980352  0.0521528  0.0920821  0.0182935  0.0283602  0.0545879  0.076622  0.133119  0.0701174  0.104883  
66 1 54.4497 50.9926 -15.2012 25 0.0322887  0.0463378  0.075526  0.0606095  0.0984745  0.062733  0.114237  0.0438857  0.0347742  0.0998894  0.0739635  0.101785  0.0473943  0.138485  
83 3 56.2983 53.1031 -12.7522 22 0.0289007  0.0663864  0.152557  0.0335444  0.106095  0.0539671  0.150771  0.00706368  0.0297716  0.100151  0.0694822  0.176539  0.0672065  0.138727  
90 3 55.3031 52.7448 -15.6774 24 0.0302372  0.0354199  0.0961044  0.0563968  0.0876895  0.0494886  0.128472  0.0142865  0.0405526  0.060178  0.0721772  0.171523  0.0727068  0.113247  
1826 3 54.3934 53.1136 -10.959 24 0.0352385  0.0592025  0.093339  0.0427782  0.07568  0.0424301  0.114217  0.0120488  0.0181748  0.108739  0.0513443  0.129042  0.0467744  0.120178  
8 2 60.018 51.5138 -15.0521 26 0.0501973  0.0834173  0.142337  0.071777  0.115103  0.0719218  0.0920696  0.0611838  0.0250711  0.226962  0.0762255  0.162328  0.0494916  0.157249  
9 3 59.0928 51.7431 -13.7228 25 0.0297698  0.0635518  0.178373  0.037884  0.0741985  0.0399396  0.131141  0.0222867  0.0294651  0.117056  0.0820347  0.191957  0.0804482  0.131073  
10 3 59.4422 50.5929 -10.7924 24 0.0215402  0.0420621  0.147899  0.0659813  0.101236  0.0495395  0.159716  0.0137824  0.0256685  0.113219  0.0742307  0.190942  0.0588046  0.120342  
64 1 55.3788 57.4339 -14.4753 26 0.0293711  0.0486784  0.0851462  0.049502  0.130465  0.0460954  0.163218  0.0416497  0.0380739  0.0970547  0.0722723  0.162211  0.0714389  0.237018  
65 1 55.0431 56.5037 -17.3032 27 0.0270686  0.0656895  0.139818  0.0372947  0.160303  0.0567565  0.159292  0.0259985  0.0321529  0.0908586  0.0501781  0.127728  0.0785849  0.199012  
67 1 57.4622 54.8645 -12.6605 27 0.0275791  0.0617412  0.102395  0.0666881  0.151013  0.0666072  0.17522  0.0232652  0.0350335  0.0878975  0.0553965  0.124759  0.0840009  0.172867  
69 1 55.1685 54.0158 -14.2334 26 0.0224937  0.099859  0.0988003  0.0745865  0.104271  0.0709207  0.144704  0.0379868  0.0462377  0.106641  0.0670549  0.119761  0.0759795  0.169794  
71 2 55.9514 53.2302 -11.1394 24 0.0362986  0.0676614  0.150612  0.0615181  0.113968  0.0476702  0.18447  0.0629593  0.0997953  0.208067  0.069005  0.145153  0.0595677  0.168346  
73 2 57.2468 55.622 -15.8952 27 0.0553068  0.0775279  0.166322  0.0898811  0.120586  0.113388  0.159309  0.0444209  0.0641875  0.262355  0.0435951  0.199663  0.0742187  0.191951  
76 3 56.4177 57.4402 -12.8151 24 0.0165361  0.0671881  0.134589  0.0466391  0.133802  0.0558636  0.150665  0.0220697  0.0269499  0.0920918  0.059043  0.324256  0.0530829  0.183701  
81 3 56.6192 50.6913 -14.4689 25 0.0330478  0.0290396  0.133622  0.0464292  0.0756088  0.0540823  0.120344  0.0198812  0.0419311  0.059767  0.0733203  0.119038  0.0846036  0.112934  
82 3 56.5905 57.0109 -15.894 26 0.024644  0.0445783  0.120604  0.0405845  0.171189  0.0373331  0.175698  0.0172088  0.0301758  0.0897078  0.0865651  0.320193  0.0834617  0.172943  
85 3 56.5338 54.5983 -17.0694 23 0.0260107  0.0564723  0.0854529  0.0599261  0.108943  0.0326229  0.148702  0.0183805  0.0337034  0.0550766  0.0797931  0.223779  0.0834357  0.131717  
88 3 57.0706 54.6981 -14.5667 22 0.0305815  0.0512546  0.0709596  0.0503625  0.1151  0.0402822  0.154427  0.00871847  0.0214231  0.0834753  0.0668628  0.239043  0.0688805  0.137331  
91 1 58.2429 51.7458 -11.8935 26 0.0412988  0.0713774  0.184957  0.0576526  0.0908847  0.061287  0.189187  0.0328718  0.0458361  0.116066  0.0286461  0.112135  0.0658592  0.112398  
92 1 60.3051 57.915 -14.5519 23 0.0317238  0.058381  0.0499886  0.0576282  0.172087  0.0560618  0.157437  0.0360657  0.0272002  0.0629518  0.0479363  0.219082  0.0333806  0.260648  
93 1 59.7648 56.9436 -17.3244 27 0.0333976  0.0670086  0.177688  0.0593245  0.151906  0.0449355  0.201445  0.017452  0.0313258  0.0857293  0.0480176  0.178235  0.0504287  0.246394  
94 1 57.2572 52.447 -14.7223 25 0.0296966  0.0248472  0.148933  0.0503515  0.105533  0.0547794  0.137766  0.0206173  0.028695  0.113582  0.0359723  0.134343  0.0529185  0.132737  
95 1 62.4563 54.5671 -12.7293 23 0.0359943  0.0846428  0.129382  0.105452  0.118502  0.0696776  0.177147  0.0197769  0.0298253  0.108397  0.0634692  0.124567  0.0696744  0.165749  
97 1 59.3521 54.6542 -14.2906 30 0.022147  0.0743665  0.0674882  0.0368554  0.110107  0.0625324  0.111001  0.0281236  0.0340306  0.126134  0.0480747  0.152374  0.0622864  0.196504  
99 2 60.3801 53.5576 -11.2356 25 0.0411688  0.140284  0.152306  0.0546119  0.115493  0.0799777  0.163505  0.0610537  0.0671657  0.259077  0.0692065  0.182728  0.077164  0.177501  
100 2 57.9843 57.7523 -12.8339 27 0.0157706  0.0671551  0.177425  0.0559074  0.158824  0.0609705  0.186286  0.0491652  0.022371  0.303324  0.0504326  0.278854  0.0611735  0.186013  
101 2 61.8795 55.3836 -15.8141 28 0.0443305  0.0573359  0.1198  0.0755079  0.1568  0.1054  0.171141  0.0432976  0.0395861  0.292063  0.0697911  0.246931  0.0749086  0.186823  
103 3 61.4902 52.5046 -11.969 24 0.0441398  0.054444  0.180449  0.0430674  0.123799  0.05047  0.145136  0.0192103  0.0238376  0.0670023  0.0650736  0.225712  0.0739355  0.122158  
104 3 61.1801 57.6669 -12.6573 23 0.0240014  0.0617638  0.12225  0.039943  0.157795  0.0442864  0.167993  0.0211452  0.021246  0.103395  0.0578114  0.357477  0.0561596  0.232442  
105 3 58.7803 55.7592 -16.0481 25 0.00895033  0.0347118  0.0983457  0.0310526  0.138274  0.0636239  0.141054  0.0208209  0.0239958  0.0903409  0.0623647  0.306014  0.0635923  0.18526  
107 3 58.7135 56.2781 -13.0404 26 0.0331297  0.0300214  0.141995  0.0294477  0.164639  0.0379023  0.165242  0.0170423  0.0279484  0.106788  0.0569726  0.315338  0.0711304  0.21004  
109 3 61.3751 52.2757 -15.465 25 0.0338216  0.0340412  0.128254  0.0440632  0.108727  0.051916  0.105514  0.0129657  0.0338975  0.0729246  0.0560074  0.193583  0.0771447  0.131716  
110 3 61.3327 56.9176 -15.9375 22 0.0496546  0.0492661  0.0974702  0.037164  0.181404  0.04216  0.198218  0.0113043  0.0186078  0.112467  0.0649592  0.355809  0.0754758  0.215774  
111 3 59.0686 53.8501 -12.0562 23 0.0200665  0.0979521  0.126675  0.0576528  0.110116  0.0581857  0.161588  0.0210671  0.0184429  0.116949  0.0562425  0.22655  0.0655725  0.154507  
112 3 58.4874 58.4804 -14.1187 24 0.0181553  0.0524167  0.0900857  0.040113  0.173566  0.0539463  0.167456  0.00908938  0.0263398  0.118886  0.0489549  0.360326  0.0588945  0.20508  
113 3 61.1436 54.5814 -17.0684 22 0.036149  0.0301394  0.114951  0.03685  0.111724  0.0466659  0.145945  0.019575  0.036604  0.108743  0.0589331  0.271361  0.0609919  0.193886  
116 3 61.3399 54.9607 -14.3626 27 0.0236661  0.0481983  0.0723862  0.0416233  0.123587  0.0435981  0.123933  0.0117306  0.0121725  0.110737  0.0612087  0.286262  0.0678175  0.168139  
117 3 58.4065 58.4817 -17.511 23 0.0274709  0.0713675  0.119862  0.0581329  0.157909  0.0590345  0.227653  0.0164983  0.033839  0.12297  0.0682487  0.358134  0.0722908  0.203495  
118 3 59.1255 53.1055 -15.961 25 0.0322943  0.0789518  0.0926805  0.0580393  0.112272  0.0413898  0.115681  0.00781856  0.0209912  0.0709127  0.0609552  0.225738  0.0568774  0.134799  
119 1 62.4637 52.0407 -13.7143 24 0.0231904  0.0421623  0.221772  0.0425936  0.116239  0.0804623  0.140486  0.020348  0.0537609  0.127866  0.0760743  0.0874234  0.0689394  0.111578  
122 1 62.4213 51.7067 -16.981 27 0.0116524  0.0535195  0.113937  0.0657496  0.0950665  0.0573906  0.0968098  0.0187711  0.0554223  0.146217  0.0649925  0.155334  0.0586168  0.145175  
128 2 62.791 57.7425 -12.6226 24 0.0330833  0.060944  0.145354  0.0680581  0.166897  0.0518398  0.191819  0.0459473  0.0224416  0.292417  0.0389343  0.30618  0.0466279  0.169867  
1801 1 55.3756 56.923 -11.1759 29 0.0242542  0.0432854  0.159696  0.0367297  0.139981  0.0720702  0.182216  0.0282104  0.0442959  0.0567913  0.0510688  0.156214  0.0604641  0.215382  
1821 3 56.5491 54.8345 -10.9116 23 0.039489  0.0506342  0.0778155  0.0455503  0.148774  0.0521258  0.174886  0.00561837  0.0386469  0.115978  0.0748101  0.23144  0.0988865  0.193355  
1829 1 60.1146 56.8917 -11.3355 28 0.0335342  0.1008  0.178187  0.0442989  0.151751  0.0671164  0.210937  0.0314486  0.0474405  0.0519951  0.0696592  0.128357  0.0854717  0.206768  
1849 3 61.3483 54.89 -11.0096 23 0.0307924  0.0763072  0.137176  0.0525074  0.132083  0.0589823  0.154727  0.0101365  0.0210857  0.0984464  0.0790915  0.270445  0.0671769  0.176781  
1853 3 58.6403 58.274 -11.5513 23 0.024005  0.0904239  0.147168  0.0587468  0.158138  0.0589704  0.211722  0.01054  0.0218697  0.124973  0.0425183  0.361799  0.037063  0.222195  
1858 1 63.0005 50.9408 -10.8126 25 0.0384585  0.0469536  0.1243  0.0671664  0.110046  0.0660721  0.150956  0.0334811  0.0420181  0.110612  0.067732  0.0763027  0.079175  0.0878066  
903 3 56.8869 50.3276 -11.9597 18 0.0322701  0.0468575  0.160498  0.0580211  0.0840499  0.0600376  0.139815  0.0210886  0.0383956  0.109855  0.0396359  0.14374  0.0746286  0.117195  
12162 3 59.3359 50.5995 -16.0215 23 0.0370411  0.0422864  0.150907  0.0320021  0.0722171  0.0532876  0.0681134  0.0171038  0.0475844  0.0776011  0.0723944  0.12749  0.0859435  0.0943701  
12223 2 55.6647 53.0833 -17.1488 28 0.0384899  0.0898452  0.126448  0.0955198  0.112277  0.0951247  0.164525  0.0478606  0.073259  0.175604  0.060975  0.140833  0.0506555  0.166839  
12227 3 56.6378 51.8399 -17.501 22 0.0330781  0.0314736  0.0829852  0.0604764  0.092324  0.0578781  0.114442  0.0187234  0.0320813  0.0820765  0.0620973  0.157712  0.0634372  0.104488  
12251 2 60.0511 53.3671 -17.39 25 0.0317901  0.0843052  0.160291  0.0842919  0.114489  0.0586882  0.118234  0.048686  0.0879372  0.26419  0.0893878  0.216203  0.0780536  0.207945  
909 3 61.2096 50.3141 -14.1515 25 0.0419828  0.0593037  0.168018  0.0457228  0.0918713  0.0615364  0.112164  0.0204472  0.024838  0.0578669  0.0761385  0.177745  0.0720785  0.114129  
126 1 62.4529 58.9159 -15.8871 26 0.0303658  0.117366  0.138657  0.0507674  0.162365  0.0669392  0.200911  0.0358777  0.0409708  0.0794152  0.0405533  0.239471  0.0641653  0.284667  
75 3 56.9235 52.4048 -10.2925 22 0.0447589  0.0660282  0.0868526  0.0283195  0.12216  0.0497209  0.166247  0.0146303  0.01558  0.12782  0.0620664  0.127346  0.0499318  0.115404  
140 3 63.1859 58.2 -14.0433 25 0.0242514  0.0401841  0.0790922  0.0429586  0.163955  0.064156  0.198312  0.012449  0.0220946  0.11188  0.0634737  0.34914  0.0541639  0.215059  
145 3 63.301 58.2913 -17.4791 23 0.0281428  0.0980192  0.11095  0.0652074  0.212353  0.0573258  0.264556  0.0162748  0.0255843  0.108298  0.0597843  0.377909  0.068053  0.232233  
12 3 63.7496 50.5247 -15.8793 24 0.0142162  0.0595279  0.133401  0.0394826  0.101166  0.0644454  0.110641  0.0185666  0.0372451  0.0364189  0.0837339  0.147582  0.0730765  0.110039  
135 3 63.3456 56.2262 -12.5041 21 0.0397894  0.0466282  0.151674  0.0350594  0.159253  0.0484274  0.174897  0.0134507  0.0251659  0.103783  0.0393308  0.325829  0.0476677  0.205318  
2637 1 57.2558 50.3395 -9.83367 19 0.0239006  0.0608032  0.161093  0.0531903  0.0959872  0.0429982  0.147628  0.0524399  0.0572789  0.115571  0.0433465  0.0726746  0.053013  0.0843877  
901 1 57.2411 50.2532 -16.3593 21 0.0315596  0.0344462  0.158493  0.0420267  0.119892  0.0648031  0.153332  0.0132056  0.047889  0.123456  0.0444531  0.133646  0.0694434  0.136013  
10898 3 65.9952 77.4578 19.1621 25 0.0436373  0.0623996  0.159749  0.0398771  0.208391  0.0477804  0.268774  0.0081204  0.0200515  0.106642  0.052578  0.39488  0.0554578  0.244684  
1881 3 63.3562 58.3525 -11.3548 23 0.0396046  0.105828  0.0948421  0.0497631  0.181587  0.0620185  0.22637  0.00883724  0.0318754  0.113205  0.0356214  0.370405  0.0453126  0.223641  
11 2 64.9653 50.7814 -14.8475 23 0.0328603  0.056761  0.086702  0.0690588  0.0895976  0.073546  0.113459  0.059557  0.0464573  0.261319  0.0587024  0.16781  0.0548787  0.17716  
13 3 64.2383 51.058 -13.1834 24 0.00996332  0.0722251  0.146454  0.0591877  0.0806667  0.0837146  0.150156  0.0141374  0.0285488  0.0710591  0.0518696  0.168873  0.0724334  0.0974049  
14 2 69.2041 50.5177 -15.3416 19 0.0313437  0.0909638  0.112653  0.0615536  0.0886337  0.061452  0.0928486  0.0542639  0.0577044  0.231844  0.0662946  0.188814  0.0587917  0.151633  
15 3 67.9585 51.4471 -15.5583 20 0.0365173  0.0561825  0.110507  0.0537596  0.0820357  0.0533404  0.092548  0.0140484  0.0411903  0.0968884  0.0553348  0.141795  0.0572824  0.0988835  
16 3 68.8554 51.6143 -11.5389 17 0.0435323  0.0496231  0.139921  0.0452752  0.11603  0.043809  0.123613  0.0251073  0.0369506  0.0798571  0.0632984  0.0971751  0.0446685  0.0865597  
120 1 65.0832 57.9075 -14.2638 23 0.0370329  0.0662879  0.0658096  0.0399408  0.184612  0.0489645  0.197349  0.0379973  0.0336853  0.0865935  0.035807  0.186524  0.046418  0.274574  
121 1 64.7346 56.5866 -17.1034 27 0.0258783  0.025  0.180275  0.05435  0.180113  0.0419648  0.233585  0.0292347  0.0614615  0.0926022  0.0689111  0.184812  0.0624496  0.262055  
123 1 67.2292 54.3741 -12.5306 22 0.0509608  0.0552229  0.0853011  0.0358982  0.138696  0.0437158  0.148123  0.0327134  0.0530384  0.0945366  0.0602439  0.118485  0.0495095  0.159347  
125 1 64.6811 54.0009 -15.2805 23 0.0293664  0.062047  0.12417  0.0409509  0.107689  0.0532207  0.140306  0.0214292  0.0257307  0.122636  0.0446635  0.153928  0.0614912  0.195057  
127 2 64.8365 52.5017 -12.4788 20 0.0197729  0.0571936  0.172861  0.0629601  0.100682  0.0750033  0.146836  0.0483919  0.0895582  0.253994  0.0637857  0.186502  0.0771299  0.161966  
129 2 66.8532 55.5971 -15.5048 26 0.0154753  0.049873  0.235549  0.0836973  0.154655  0.0773641  0.181913  0.0449593  0.0485951  0.299053  0.0474183  0.276965  0.0715653  0.186619  
131 3 66.3573 52.4778 -12.6534 21 0.0330457  0.0390738  0.0996657  0.0629185  0.0849419  0.052547  0.113048  0.0193477  0.0124905  0.0676927  0.0523282  0.116701  0.0714687  0.0661048  
132 3 65.9687 57.6363 -12.4504 22 0.028915  0.0667795  0.130307  0.0387772  0.163681  0.0642954  0.197279  0.0156963  0.01737  0.0967953  0.0479883  0.356946  0.0511275  0.234729  
133 3 63.4257 55.3411 -15.7595 24 0.00740707  0.040918  0.134319  0.0229213  0.139921  0.0479546  0.170439  0.0250758  0.016533  0.0954277  0.0447577  0.304683  0.051761  0.205822  
137 3 65.421 52.1672 -15.4208 21 0.0410093  0.0474152  0.0924357  0.0379146  0.0862737  0.0650464  0.121893  0.0192317  0.0366367  0.0853991  0.0648637  0.173543  0.0596066  0.112004  
138 3 66.1177 56.9637 -15.6019 23 0.0318492  0.0617017  0.168336  0.0457771  0.200394  0.0430506  0.20588  0.0120349  0.0271915  0.117185  0.0614133  0.361711  0.0752967  0.219916  
139 3 63.884 53.3629 -13.3655 21 0.0183943  0.0556739  0.132431  0.0438841  0.109761  0.0522984  0.138194  0.0194228  0.0194727  0.0629374  0.0663616  0.239827  0.0930434  0.138287  
141 3 66.2058 54.6691 -16.7285 22 0.0227123  0.0693936  0.1533  0.0419471  0.142106  0.0424534  0.181863  0.0164731  0.0294387  0.13399  0.0656163  0.271192  0.0551681  0.169967  
144 3 66.3264 54.8598 -14.2335 24 0.0296771  0.0343391  0.136409  0.0426294  0.134986  0.0527139  0.147881  0.0166484  0.0310691  0.106977  0.0689915  0.243853  0.0715715  0.142644  
146 3 63.7686 52.9519 -17.8466 25 0.0209801  0.042543  0.128453  0.0528246  0.127317  0.0658772  0.130046  0.0159824  0.0289079  0.0792983  0.0632726  0.262979  0.0757272  0.1658  
147 1 68.0222 51.9275 -13.4012 21 0.0291221  0.0812384  0.129257  0.0768504  0.105591  0.0752951  0.110298  0.0246965  0.0499455  0.110455  0.0641349  0.11276  0.0592573  0.143328  
148 1 69.8497 57.7243 -14.1538 22 0.030814  0.0553912  0.0983266  0.0559072  0.152361  0.04146  0.178345  0.0342431  0.0318723  0.067882  0.0652198  0.193462  0.061705  0.242674  
149 1 69.4838 56.889 -16.8762 28 0.0333069  0.0452066  0.135175  0.045348  0.157459  0.0521455  0.186057  0.0361181  0.0373827  0.0881907  0.0380824  0.199053  0.0464284  0.279736  
150 1 66.7393 52.578 -16.8207 25 0.0345299  0.0952992  0.115282  0.0422578  0.0979614  0.0763533  0.142881  0.0265055  0.0286355  0.146675  0.0786015  0.137802  0.060358  0.159563  
153 1 69.2577 53.7533 -15.7517 25 0.054668  0.0628479  0.205863  0.0370186  0.112923  0.0758034  0.115272  0.0342662  0.0235643  0.0960229  0.0618699  0.129395  0.0583081  0.201964  
155 2 70.2969 53.9019 -12.936 22 0.0326497  0.0610591  0.180133  0.117766  0.105541  0.0612515  0.127993  0.0557951  0.0740992  0.293311  0.0743577  0.265768  0.0882478  0.173976  
156 2 67.5373 57.5658 -12.4236 26 0.019766  0.0696034  0.141032  0.0810967  0.178139  0.0552512  0.18296  0.0472698  0.0275638  0.30281  0.0458316  0.312134  0.0466855  0.173889  
157 2 71.7647 55.5695 -15.208 28 0.0364168  0.0598201  0.224772  0.0800654  0.156976  0.0712557  0.154269  0.0489133  0.0419141  0.325562  0.0591616  0.29546  0.0693712  0.206036  
159 3 71.3587 52.7006 -12.6806 23 0.0513677  0.0501319  0.150604  0.0567611  0.0984316  0.0511384  0.0858954  0.0265969  0.0421969  0.0864057  0.07843  0.11601  0.0565312  0.0799139  
160 3 70.7258 57.6386 -12.3209 24 0.0239739  0.0659962  0.128867  0.0572849  0.164495  0.0571176  0.157261  0.0178978  0.0233602  0.0885938  0.0574092  0.277602  0.0705718  0.167461  
161 3 68.4435 55.603 -15.6375 25 0.0218199  0.0386616  0.117201  0.026148  0.149782  0.0445478  0.174117  0.0170643  0.0215955  0.12643  0.0306958  0.282547  0.0573725  0.17159  
163 3 68.1077 56.1038 -12.4711 23 0.0354092  0.0436974  0.146107  0.0397645  0.187785  0.0356757  0.157708  0.0173489  0.0314778  0.0986755  0.0501187  0.264115  0.0662911  0.168373  
165 3 70.6103 51.3143 -15.4628 22 0.0393538  0.0451439  0.12474  0.0490404  0.0795206  0.0724223  0.0666545  0.0165313  0.0309339  0.0758503  0.0651574  0.151042  0.0876933  0.0766528  
166 3 70.9524 56.8735 -15.4812 24 0.0393768  0.0459291  0.140348  0.0624791  0.175869  0.0465128  0.166962  0.0126662  0.0269048  0.113483  0.0587402  0.330594  0.0716747  0.187749  
167 3 69.0855 53.442 -13.8536 23 0.0258702  0.0792596  0.145225  0.0743277  0.0970818  0.0790399  0.121062  0.0137716  0.0226477  0.118594  0.0610694  0.15693  0.0768839  0.0836481  
168 3 67.9244 58.2169 -13.8666 23 0.02842  0.0363905  0.0944401  0.0824907  0.177609  0.0488915  0.201962  0.0123384  0.0253737  0.113676  0.0476484  0.345669  0.0504049  0.197692  
169 3 71.1868 54.432 -16.3547 23 0.0357808  0.057948  0.159522  0.0352853  0.139307  0.0527384  0.132187  0.0165501  0.0282788  0.103521  0.0702332  0.244807  0.0784732  0.129893  
172 3 71.2954 54.933 -13.7791 24 0.0215638  0.0486429  0.133588  0.0498281  0.118404  0.0335219  0.115894  0.0107317  0.0141931  0.0883914  0.053785  0.183145  0.084907  0.131955  
173 3 68.1128 58.4014 -17.251 24 0.0196565  0.0563592  0.0923031  0.0775285  0.197232  0.0386008  0.227554  0.0167022  0.0276634  0.11523  0.0696252  0.373104  0.081726  0.218835  