ITEM: TIMESTEP
0
ITEM: NUMBER OF ATOMS
2205
ITEM: BOX BOUNDS pp pp pp
0.0 4.84728
0.0 204.08
0.0 120.022
ITEM: ATOMS id type x y z Coordination
2950 2 1.33606 60.3028 34.4827 16
2951 3 -0.228177 60.3846 34.4831 13
2966 3 -0.0412893 60.7955 31.4812 11
2970 1 3.3183 64.1092 31.4819 19
2971 2 0.649944 62.2841 31.4835 15
2972 3 2.21417 62.2029 31.4828 14
2973 3 -0.446565 65.896 31.4861 17
2974 3 -0.0547402 62.9441 30.2081 9
2975 1 -1.43119 61.293 32.9829 19
2976 3 -0.0491538 62.9389 32.7638 22
2977 1 -1.41642 68.6689 34.4922 28
2978 2 1.24511 70.4937 34.4875 25
2979 3 -0.319244 70.5759 34.4882 22
2980 3 2.35109 66.8831 34.4829 24
2981 3 1.94417 69.8436 33.2047 22
2982 3 1.95723 69.8311 35.7574 24
2983 1 0.951678 66.3905 32.9853 26
2984 1 0.907916 63.5674 34.4843 27
2985 2 3.05669 65.4011 34.4815 25
2986 3 -0.226531 65.4813 34.4832 22
2987 3 2.02696 61.7915 34.486 22
2988 3 2.35864 64.7383 33.2055 22
2990 3 2.36876 64.7368 35.7624 24
2991 1 0.988977 69.2149 31.488 19
2992 2 -1.15253 67.3784 31.4874 17
2993 3 2.13088 67.2966 31.4864 16
2994 3 -0.14016 70.9891 31.4865 17
2995 3 -0.462558 68.0422 30.2072 9
2996 3 -0.456415 68.0412 32.7646 23
2998 1 3.19956 74.304 31.4883 19
2999 2 0.544537 72.4806 31.4895 17
3000 3 2.10892 72.3994 31.4889 16
3001 3 -0.583491 76.0977 31.4942 17
3002 3 -0.164729 73.1394 30.2155 9
3003 1 -1.52948 71.4863 32.9883 26
3004 3 -0.157198 73.1328 32.7701 23
3005 1 -1.57041 78.8716 34.5014 29
3006 2 1.07545 80.6949 34.4998 25
3007 3 -0.489094 80.7779 34.4997 22
3008 3 2.21654 77.0793 34.4895 24
3009 3 1.77706 80.0483 33.2161 23
3010 3 1.79419 80.0345 35.7674 24
3011 1 0.81573 76.5893 32.9927 26
3012 1 0.796034 73.7597 34.4898 27
3013 2 2.92937 75.6004 34.4879 25
3014 3 -0.353952 75.6803 34.4898 22
3015 3 1.92946 71.9855 34.4923 25
3016 3 2.23444 74.9339 33.2124 22
3018 3 2.24774 74.933 35.77 24
3019 1 0.827479 79.4204 31.4991 21
3020 2 -1.29677 77.5769 31.4953 17
3021 3 1.98674 77.4953 31.4947 16
3022 3 -0.320489 81.1906 31.4972 20
3023 3 -0.612653 78.2434 30.2139 10
3024 3 -0.60462 78.2437 32.7723 23
3025 1 -1.72042 81.6927 30.0004 14
3026 1 2.99295 84.5061 31.5045 23
3027 2 0.355978 82.6855 31.4999 19
3028 3 1.92068 82.6049 31.5007 17
3029 3 -0.811003 86.3051 31.5108 19
3030 3 -0.358104 83.341 30.2267 12
3031 1 -1.70868 81.689 32.9997 27
3032 3 -0.349054 83.3357 32.7807 24
3033 1 -1.82215 89.0823 34.5195 29
3034 2 0.802667 90.9019 34.5297 25
3035 3 -0.762222 90.9857 34.5268 22
3036 3 1.98785 87.2846 34.508 24
3037 3 1.50887 90.2558 33.2471 23
3038 3 1.52572 90.2501 35.7995 24
3039 1 0.587651 86.7954 33.0102 27
3040 1 0.597657 83.9607 34.5012 27
3041 2 2.71078 85.8102 34.5075 25
3042 3 -0.572628 85.8901 34.5079 22
3043 3 1.75134 82.1908 34.5054 26
3044 3 2.02132 85.1379 33.232 23
3045 1 0.575863 86.7985 30.0079 14
3046 3 2.03761 85.1411 35.7922 24
3047 1 0.571182 89.6308 31.5228 22
3048 2 -1.53373 87.7797 31.5105 19
3049 3 1.7497 87.6988 31.5116 17
3050 3 -0.601879 91.3915 31.5201 20
3051 3 -0.85695 88.4479 30.227 12
3052 3 -0.848325 88.4522 32.788 24
3053 1 -2.00109 91.8956 30.0191 14
3054 1 2.68212 94.7061 31.5349 23
3055 2 0.0657403 92.8898 31.5204 19
3056 3 1.63094 92.8097 31.5239 17
3057 3 -1.1386 96.5041 31.5373 19
3058 3 -0.650622 93.5389 30.2454 12
3059 1 -1.99014 91.8947 33.025 27
3060 3 -0.644026 93.5394 32.8001 24
3061 1 -2.17832 99.2827 34.5483 29
3062 2 0.427231 101.097 34.5517 25
3063 3 -1.13827 101.182 34.5517 22
3064 3 1.64852 97.4867 34.5445 24
3065 3 1.14037 100.451 33.2727 23
3066 3 1.14622 100.452 35.8284 24
3067 1 0.254916 96.9975 33.0417 27
3068 1 0.289358 94.1609 34.5266 27
3069 2 2.3824 96.0172 34.5475 25
3070 3 -0.900944 96.0983 34.5446 22
3071 3 1.46941 92.402 34.5327 26
3072 3 1.70258 95.3399 33.2694 23
3073 1 0.247509 96.9934 30.0302 14
3074 3 1.71621 95.3497 35.8358 24
3075 1 0.219802 99.8298 31.5385 22
3076 2 -1.87061 97.9739 31.5355 19
3077 3 1.41265 97.8933 31.5366 17
3078 3 -0.971731 101.581 31.5351 20
3079 3 -1.19859 98.6444 30.2509 12
3080 3 -1.19489 98.6497 32.816 24
3081 1 2.48061 102.084 30.0306 14
3082 1 7.14963 104.896 31.5035 22
3083 2 4.53859 103.082 31.537 19
3084 3 6.10347 102.997 31.5314 17
3085 3 3.31461 106.705 31.5019 19
3086 3 3.82047 103.732 30.2608 12
3087 1 2.48089 102.09 33.0414 27
3088 3 3.82257 103.726 32.8155 24
3089 1 2.24766 109.497 34.4832 29
3090 2 4.86297 111.314 34.4904 25
3091 3 3.29885 111.396 34.4892 22
3092 3 6.08779 107.683 34.4941 24
3093 3 5.58941 110.657 33.2244 23
3094 3 5.57459 110.673 35.7725 24
3095 1 4.70216 107.185 32.9949 27
3096 1 4.73738 104.349 34.5465 27
3097 2 6.82099 106.213 34.4918 25
3098 3 3.53722 106.291 34.4998 22
3099 3 5.93505 102.6 34.549 25
3100 3 6.14981 105.541 33.2108 23
3101 1 4.70638 107.192 30.0047 14
3102 3 6.14465 105.533 35.7695 24
3103 1 4.66656 110.034 31.5015 22
3104 2 2.58159 108.175 31.4998 19
3105 3 5.86594 108.094 31.5005 17
3106 3 3.49114 111.803 31.5034 20
3107 3 3.26058 108.851 30.2218 12
3108 3 3.25522 108.852 32.7799 24
3109 1 2.0966 112.306 30.0039 14
3110 1 6.77848 115.123 31.5087 23
3111 2 4.15498 113.304 31.4988 19
3112 3 5.71917 113.221 31.501 17
3113 3 2.95756 116.928 31.5022 19
3114 3 3.44143 113.949 30.2212 12
3115 1 2.08607 112.31 32.995 27
3116 3 3.43121 113.959 32.7671 24
3117 1 1.90748 119.716 34.4872 29
3118 2 4.5409 121.535 34.5034 25
3119 3 2.97673 121.617 34.5013 22
3120 3 5.72199 117.912 34.5004 24
3121 3 5.26364 120.875 33.2368 23
3122 3 5.24285 120.891 35.788 24
3123 1 4.34076 117.419 32.9999 27
3124 1 4.35522 114.583 34.4879 27
3125 2 6.44756 116.438 34.5005 25
3126 3 3.16303 116.521 34.4968 22
3127 3 5.5266 112.815 34.484 26
3128 3 5.77396 115.765 33.2172 23
3129 1 4.35394 117.414 30.0076 14
3130 3 5.75771 115.765 35.7742 24
3131 1 4.3381 120.251 31.5082 22
3132 2 2.2325 118.401 31.5013 19
3133 3 5.51645 118.321 31.5041 17
3134 3 3.18069 122.021 31.5126 20
3135 3 2.91853 119.074 30.2259 12
3136 3 2.90909 119.074 32.783 24
3137 1 1.78862 122.524 30.0111 14
3138 1 6.49539 125.338 31.5166 23
3139 2 3.85393 123.518 31.5096 19
3140 3 5.41815 123.435 31.5109 17
3141 3 2.70146 127.132 31.5117 19
3142 3 3.14645 124.167 30.2307 12
3143 1 1.77466 122.528 33.0069 27
3144 3 3.13571 124.175 32.7799 24
3145 1 1.68214 129.914 34.5053 29
3146 2 4.33424 131.734 34.514 25
3147 3 2.77001 131.816 34.5137 22
3148 3 5.46829 128.121 34.5142 24
3149 3 5.04909 131.075 33.2435 23
3150 3 5.03249 131.083 35.7969 24
3151 1 4.0856 127.625 33.0116 27
3152 1 4.06357 124.8 34.5064 27
3153 2 6.18325 126.642 34.5129 25
3154 3 2.89934 126.725 34.5107 22
3155 3 5.21513 123.031 34.4985 26
3156 3 5.50376 125.977 33.2289 23
3157 1 4.09814 127.623 30.0154 14
3158 3 5.48665 125.973 35.7861 24
3159 1 4.11473 130.45 31.5153 22
3160 2 1.98603 128.61 31.5121 19
3161 3 5.26961 128.53 31.5137 17
3162 3 2.97704 132.222 31.5199 20
3163 3 2.67768 129.279 30.2366 12
3164 3 2.66909 129.276 32.7944 24
3165 1 1.58529 132.725 30.0183 14
3166 1 6.31818 135.537 31.5213 23
3167 2 3.65976 133.715 31.5188 19
3168 3 5.22396 133.632 31.519 17
3169 3 2.54642 137.324 31.5187 18
3170 3 2.95659 134.369 30.2399 12
3171 1 1.57407 132.726 33.0168 27
3172 3 2.94865 134.372 32.7923 24
3176 3 5.31894 138.315 34.5225 20
3179 1 3.9332 137.818 33.0194 23
3180 1 3.88533 134.997 34.5199 27
3181 2 6.02553 136.833 34.5201 24
3182 3 2.74203 136.915 34.5197 21
3183 3 5.01786 133.226 34.5123 26
3184 3 5.33947 136.172 33.2369 23
3185 1 3.94257 137.819 30.0212 13
3186 3 5.32595 136.166 35.7936 24
3188 2 1.83917 138.806 31.52 14
3189 3 5.12253 138.725 31.5205 14
3191 3 2.53485 139.471 30.2442 8
3192 3 2.52822 139.467 32.8017 15
3510 2 1.37369 60.2886 40.4834 16
3511 3 -0.190541 60.3702 40.4848 13
3526 3 -0.0152967 60.785 37.4786 16
3529 1 -1.41801 61.287 35.9838 20
3530 1 3.34559 64.0981 37.4754 28
3531 2 0.676528 62.2733 37.4842 22
3532 3 2.24074 62.1921 37.4821 19
3533 3 -0.416782 65.8834 37.4867 24
3534 3 -0.0327916 62.9378 36.2132 23
3535 1 -1.39897 61.2806 38.9837 20
3536 3 -0.0170414 62.9235 38.7692 23
3537 1 -1.36883 68.6498 40.4973 28
3538 2 1.29442 70.4744 40.4859 25
3539 3 -0.269906 70.5565 40.4877 22
3540 3 2.39455 66.8663 40.4806 24
3541 3 1.98659 69.8298 39.1973 24
3542 3 2.01131 69.8063 41.7507 24
3543 1 0.988292 66.3757 38.9845 28
3544 1 0.947814 63.5518 40.4854 27
3545 2 3.09907 65.3839 40.4783 25
3546 3 -0.184155 65.4643 40.4819 22
3547 3 2.06551 61.7768 40.4895 22
3548 3 2.39581 64.7223 39.2046 24
3549 1 0.966797 66.3843 35.9849 28
3550 3 2.41497 64.7199 41.7617 24
3551 1 1.02153 69.2014 37.486 27
3552 2 -1.12201 67.3661 37.4893 25
3553 3 2.16141 67.2842 37.4862 22
3554 3 -0.105853 70.9755 37.481 25
3555 3 -0.436843 68.03 36.2064 24
3556 3 -0.420069 68.0277 38.7637 24
3557 1 -1.51212 71.4788 35.9886 28
3558 1 3.23634 74.2903 37.4782 28
3559 2 0.579778 72.4666 37.4885 25
3560 3 2.14411 72.3853 37.4861 22
3561 3 -0.544167 76.0834 37.4941 24
3562 3 -0.135719 73.1316 36.2206 24
3563 1 -1.48708 71.47 38.987 28
3564 3 -0.114529 73.1128 38.7754 24
3565 1 -1.5071 78.8487 40.5073 28
3566 2 1.14098 80.673 40.4969 25
3567 3 -0.423518 80.7559 40.4982 22
3568 3 2.27539 77.0579 40.4841 24
3569 3 1.8332 80.0344 39.205 24
3570 3 1.8675 80.0034 41.7558 24
3571 1 0.864698 76.5713 38.9901 28
3572 1 0.84969 73.7395 40.4891 27
3573 2 2.9865 75.5783 40.4811 25
3574 3 -0.29683 75.6584 40.4857 22
3575 3 1.98025 71.9655 40.4946 25
3576 3 2.28421 74.9133 39.2091 24
3577 1 0.835767 76.5829 35.9918 28
3578 3 2.30995 74.9109 41.7664 24
3579 1 0.869249 79.4064 37.4974 27
3580 2 -1.2564 77.5631 37.4969 25
3581 3 2.02718 77.4811 37.4937 22
3582 3 -0.275839 81.1785 37.491 25
3583 3 -0.578611 78.2299 36.2119 24
3584 3 -0.556257 78.2289 38.7699 24
3585 1 -1.68661 81.6828 36.0008 28
3586 1 3.03954 84.4954 37.497 29
3587 2 0.401169 82.6734 37.4999 25
3588 3 1.96577 82.5926 37.499 22
3589 3 -0.765694 86.2977 37.5165 24
3590 3 -0.321741 83.3366 36.2347 24
3591 1 -1.65332 81.6721 38.9984 28
3592 3 -0.294626 83.3161 38.7886 24
3593 1 -1.75306 89.0676 40.532 29
3594 2 0.871204 90.8908 40.5374 25
3595 3 -0.693696 90.9753 40.5351 22
3596 3 2.05915 87.2666 40.5044 24
3597 3 1.56728 90.2538 39.2454 24
3598 3 1.60695 90.2286 41.7947 24
3599 1 0.645571 86.782 39.0112 28
3600 1 0.66721 83.9406 40.5011 27
3601 2 2.78101 85.7916 40.5014 25
3602 3 -0.502447 85.8713 40.5052 22
3603 3 1.81771 82.1685 40.5088 26
3604 3 2.08241 85.1195 39.2312 24
3605 1 0.61047 86.7935 36.0117 28
3606 3 2.11573 85.1205 41.7894 24
3607 1 0.614097 89.6263 37.5332 27
3608 2 -1.48823 87.7727 37.5173 25
3609 3 1.79533 87.6912 37.5168 22
3610 3 -0.559111 91.3903 37.5257 26
3611 3 -0.819617 88.4402 36.229 24
3612 3 -0.794419 88.4469 38.7895 24
3613 1 -1.9699 91.8953 36.0315 28
3614 1 2.71979 94.707 37.5528 29
3615 2 0.106954 92.8892 37.5308 25
3616 3 1.67223 92.8101 37.536 22
3617 3 -1.10865 96.5099 37.564 24
3618 3 -0.618379 93.5428 36.2628 24
3619 1 -1.93553 91.888 39.0347 28
3620 3 -0.595061 93.5339 38.8175 24
3621 1 -2.14371 99.2876 40.579 29
3622 2 0.448967 101.104 40.5932 25
3623 3 -1.11717 101.191 40.5921 22
3624 3 1.69644 97.4872 40.5651 24
3625 3 1.15852 100.461 39.3094 24
3626 3 1.17516 100.46 41.8669 24
3627 1 0.293924 97.0008 39.0653 28
3628 1 0.351044 94.1547 40.5377 27
3629 2 2.43489 96.0197 40.5683 25
3630 3 -0.848427 96.1007 40.5655 22
3631 3 1.53518 92.3926 40.5488 26
3632 3 1.75023 95.3368 39.2952 24
3633 1 0.26912 96.9981 36.0532 28
3634 3 1.78158 95.3515 41.8615 24
3635 1 0.239218 99.8395 37.5718 27
3636 2 -1.84363 97.9783 37.5603 25
3637 3 1.43941 97.8984 37.5623 22
3638 3 -0.964601 101.586 37.5624 26
3639 3 -1.1793 98.6463 36.2708 24
3640 3 -1.16653 98.6599 38.837 24
3641 1 2.48676 102.086 36.0579 28
3642 1 7.14283 104.903 37.4831 28
3643 2 4.54218 103.089 37.5692 25
3644 3 6.10738 103.002 37.5549 22
3645 3 3.29564 106.719 37.4788 24
3646 3 3.8204 103.742 36.2944 24
3647 1 2.49069 102.098 39.0745 28
3648 3 3.82791 103.723 38.8525 24
3649 1 2.19646 109.521 40.4442 29
3650 2 4.80118 111.338 40.4683 25
3651 3 3.23736 111.42 40.4638 22
3652 3 6.05657 107.697 40.468 24
3653 3 5.54069 110.672 39.2131 24
3654 3 5.50454 110.71 41.7604 24
3655 1 4.67896 107.187 38.9659 28
3656 1 4.72636 104.348 40.5854 27
3657 2 6.79562 106.229 40.4594 25
3658 3 3.51189 106.307 40.4769 22
3659 3 5.95005 102.61 40.5893 25
3660 3 6.13427 105.56 39.175 24
3661 1 4.6905 107.207 35.9836 28
3662 3 6.12281 105.539 41.732 24
3663 1 4.63323 110.05 37.4825 27
3664 2 2.5581 108.187 37.4753 25
3665 3 5.84265 108.107 37.477 22
3666 3 3.45044 111.818 37.4884 26
3667 3 3.23968 108.865 36.2003 24
3668 3 3.22365 108.866 38.7573 24
3669 1 2.06512 112.319 35.9831 28
3670 1 6.7301 115.139 37.5013 29
3671 2 4.11134 113.32 37.4773 25
3672 3 5.67549 113.237 37.4818 22
3673 3 2.90766 116.942 37.4829 24
3674 3 3.40608 113.956 36.1918 24
3675 1 2.03359 112.331 38.9736 28
3676 3 3.37642 113.983 38.7366 24
3677 1 1.8334 119.733 40.466 28
3678 2 4.4656 121.55 40.494 25
3679 3 2.90143 121.632 40.4907 22
3680 3 5.64493 117.932 40.4907 24
3681 3 5.19775 120.884 39.2349 24
3682 3 5.15536 120.912 41.7869 24
3683 1 4.27757 117.436 38.9851 28
3684 1 4.28294 114.604 40.4667 27
3685 2 6.37107 116.459 40.4896 25
3686 3 3.08626 116.544 40.4826 22
3687 3 5.46135 112.84 40.4539 25
3688 3 5.70801 115.788 39.1997 24
3689 1 4.31567 117.425 35.9923 28
3690 3 5.67074 115.785 41.7564 24
3691 1 4.28813 120.264 37.4961 27
3692 2 2.1818 118.415 37.4826 25
3693 3 5.46576 118.335 37.4883 22
3694 3 3.12986 122.031 37.5081 26
3695 3 2.87605 119.089 36.2126 24
3696 3 2.84933 119.086 38.7704 24
3697 1 1.75008 122.532 36.0011 28
3698 1 6.44545 125.347 37.5155 29
3699 2 3.8038 123.528 37.5019 25
3700 3 5.36799 123.444 37.5034 22
3701 3 2.65576 127.137 37.5021 24
3702 3 3.10606 124.171 36.2153 24
3703 1 1.71194 122.542 38.9985 28
3704 3 3.07723 124.189 38.7657 24
3705 1 1.62127 129.916 40.4985 28
3706 2 4.27524 131.736 40.5106 25
3707 3 2.71099 131.817 40.5108 22
3708 3 5.40086 128.128 40.5139 24
3709 3 4.99607 131.074 39.2444 24
3710 3 4.96485 131.087 41.7986 24
3711 1 4.02893 127.631 39.0067 28
3712 1 3.98925 124.81 40.5039 27
3713 2 6.11419 126.649 40.5106 25
3714 3 2.83039 126.731 40.5074 22
3715 3 5.14106 123.045 40.4862 26
3716 3 5.44238 125.988 39.2204 24
3717 1 4.06274 127.627 36.009 28
3718 3 5.40832 125.979 41.7779 24
3719 1 4.07321 130.452 37.5086 27
3720 2 1.94111 128.615 37.5044 25
3721 3 5.22467 128.535 37.5071 22
3722 3 2.93663 132.223 37.5202 26
3723 3 2.64052 129.285 36.234 24
3724 3 2.61741 129.277 38.7926 24
3725 1 1.55458 132.725 36.0149 28
3726 1 6.28026 135.537 37.5218 29
3727 2 3.6206 133.715 37.518 25
3728 3 5.18478 133.632 37.5174 22
3729 3 2.51201 137.321 37.5138 23
3730 3 2.92486 134.366 36.234 24
3731 1 1.52497 132.727 39.0147 28
3732 3 2.90377 134.374 38.7875 24
3736 3 5.26874 138.311 40.5247 20
3739 1 3.89077 137.815 39.0182 24
3740 1 3.82951 134.996 40.5232 27
3741 2 5.97412 136.829 40.5202 24
3742 3 2.69071 136.911 40.5198 21
3743 3 4.96051 133.227 40.5082 26
3744 3 5.29358 136.173 39.2322 24
3745 1 3.91596 137.817 36.0189 24
3746 3 5.26799 136.16 41.7893 24
3748 2 1.8055 138.803 37.5174 18
3749 3 5.08884 138.722 37.5178 17
3751 3 2.50718 139.471 36.2459 15
3752 3 2.48933 139.46 38.8039 15
4070 2 1.43219 60.2674 46.4861 16
4071 3 -0.132015 60.3489 46.4881 13
4086 3 0.0336861 60.7662 43.478 16
4089 1 -1.37409 61.2702 41.9851 20
4090 1 3.39707 64.0785 43.4713 28
4091 2 0.726574 62.254 43.4862 22
4092 3 2.29078 62.1728 43.483 19
4093 3 -0.360419 65.8606 43.4885 24
4094 3 0.0136731 62.9222 42.2188 23
4095 1 -1.3445 61.2606 44.986 20
4096 3 0.0382836 62.9004 44.7753 23
4097 1 -1.29386 68.6215 46.5027 28
4098 2 1.37257 70.4454 46.4868 25
4099 3 -0.191707 70.5272 46.4893 22
4100 3 2.46271 66.8417 46.4805 24
4101 3 2.05796 69.8048 45.1931 24
4102 3 2.09249 69.7735 47.7481 24
4103 1 1.05061 66.3518 44.9855 28
4104 1 1.01024 63.529 46.4878 27
4105 2 3.16549 65.3585 46.4778 25
4106 3 -0.117734 65.4393 46.4828 22
4107 3 2.12549 61.7549 46.4943 22
4108 3 2.45728 64.6982 45.2062 24
4109 1 1.01685 66.3645 41.9848 28
4110 3 2.48412 64.6959 47.7636 24
4111 1 1.08372 69.1769 43.4856 27
4112 2 -1.06416 67.3439 43.4921 25
4113 3 2.21922 67.2619 43.4872 22
4114 3 -0.0406533 70.9499 43.477 25
4115 3 -0.382958 68.0074 42.2067 24
4116 3 -0.356482 68.004 44.7641 24
4117 1 -1.45383 71.4556 41.9876 28
4118 1 3.3063 74.2639 43.4686 28
4119 2 0.646957 72.44 43.4883 25
4120 3 2.21123 72.3587 43.484 22
4121 3 -0.467079 76.053 43.4933 24
4122 3 -0.0735052 73.1108 42.2255 24
4123 1 -1.41417 71.4427 44.9872 28
4124 3 -0.0394801 73.0808 44.781 24
4125 1 -1.40024 78.8075 46.5128 28
4126 2 1.25203 80.631 46.4931 25
4127 3 -0.312368 80.7135 46.4958 22
4128 3 2.37137 77.0226 46.4798 24
4129 3 1.93337 80.0007 45.1924 24
4130 3 1.98443 79.9534 47.745 24
4131 1 0.951238 76.5387 44.988 28
4132 1 0.935521 73.7078 46.4892 28
4133 2 3.0795 75.5417 46.4762 25
4134 3 -0.203831 75.6225 46.4828 22
4135 3 2.06125 71.935 46.4981 25
4136 3 2.36931 74.879 45.2076 24
4137 1 0.903885 76.5572 41.9891 28
4138 3 2.4069 74.8766 47.7652 24
4139 1 0.953784 79.3746 43.4931 27
4140 2 -1.17696 77.5338 43.4981 25
4141 3 2.10667 77.4512 43.4919 22
4142 3 -0.186409 81.1474 43.4814 25
4143 3 -0.504925 78.2006 42.2097 24
4144 3 -0.467668 78.1968 44.7673 24
4145 1 -1.60834 81.655 41.9984 28
4146 1 3.13385 84.4655 43.4792 28
4147 2 0.492578 82.6415 43.4978 25
4148 3 2.05696 82.56 43.4932 22
4149 3 -0.668701 86.2696 43.5159 24
4150 3 -0.239398 83.3153 42.2421 24
4151 1 -1.55201 81.6359 44.9951 28
4152 3 -0.19158 83.2739 44.7961 24
4153 1 -1.6158 89.0191 46.5437 28
4154 2 1.0089 90.8467 46.5322 25
4155 3 -0.555929 90.932 46.5329 23
4156 3 2.19034 87.2196 46.4931 24
4157 3 1.68826 90.2293 45.2238 24
4158 3 1.76164 90.1634 47.7692 24
4159 1 0.759159 86.7447 45.0059 28
4160 1 0.787976 83.8966 46.4989 27
4161 2 2.90884 85.7429 46.4867 25
4162 3 -0.374738 85.8233 46.4952 22
4163 3 1.93212 82.1247 46.5104 25
4164 3 2.19755 85.0747 45.2224 24
4165 1 0.69461 86.7712 42.0102 28
4166 3 2.25127 85.0706 47.7791 24
4167 1 0.7098 89.6025 43.532 27
4168 2 -1.38968 87.7458 43.5206 25
4169 3 1.89426 87.6622 43.5157 22
4170 3 -0.460151 91.3734 43.5199 25
4171 3 -0.730833 88.4157 42.2277 24
4172 3 -0.683083 88.4178 44.7866 24
4173 1 -1.88839 91.8813 42.0394 28
4174 1 2.81136 94.6954 43.5578 29
4175 2 0.203681 92.8736 43.5371 25
4176 3 1.7689 92.7953 43.5406 23
4177 3 -1.03412 96.512 43.5922 24
4178 3 -0.536836 93.5397 42.2829 24
4179 1 -1.81885 91.8579 45.0359 30
4180 3 -0.485123 93.5044 44.8374 24
4181 1 -2.05786 99.2767 46.6253 29
4182 2 0.510893 101.099 46.6629 25
4183 3 -1.05656 101.193 46.6615 23
4184 3 1.80876 97.4634 46.5785 24
4185 3 1.20867 100.473 45.3631 24
4186 3 1.25854 100.449 47.921 23
4187 1 0.38689 96.9883 45.0855 28
4188 1 0.484536 94.1186 46.546 27
4189 2 2.55334 95.9988 46.5754 25
4190 3 -0.730025 96.0789 46.5781 22
4191 3 1.67034 92.3498 46.5595 26
4192 3 1.85894 95.3118 45.3102 24
4193 1 0.329407 97.0029 42.0768 28
4194 3 1.92113 95.3198 47.8726 24
4195 1 0.288556 99.8542 43.6225 27
4196 2 -1.77502 97.9783 43.5888 25
4197 3 1.50784 97.8982 43.5913 22
4198 3 -0.940978 101.592 43.6056 26
4199 3 -1.12603 98.6454 42.2916 24
4200 3 -1.09566 98.6685 44.8596 24
4201 1 2.50756 102.087 42.1049 28
4202 1 7.12464 104.923 43.4367 26
4203 2 4.55675 103.1 43.6289 25
4204 3 6.12308 103.012 43.5972 22
4205 3 3.25041 106.754 43.4299 24
4206 3 3.82601 103.763 42.3587 24
4207 1 2.52214 102.101 45.1305 28
4208 3 3.85078 103.708 44.9287 25
4209 1 2.078 109.567 46.3796 27
4210 2 4.66138 111.385 46.4411 25
4211 3 3.09809 111.47 46.4312 23
4212 3 5.97517 107.724 46.4331 24
4213 3 5.42541 110.704 45.2061 24
4214 3 5.34037 110.777 47.7518 24
4215 1 4.62314 107.187 44.9112 27
4216 1 4.70086 104.318 46.6703 26
4217 2 6.73047 106.263 46.395 25
4218 3 3.44694 106.35 46.4278 22
4219 3 5.99593 102.613 46.6681 26
4220 3 6.09879 105.611 45.091 23
4221 1 4.64877 107.245 41.9439 28
4222 3 6.07787 105.53 47.6452 25
4223 1 4.55214 110.086 43.4586 27
4224 2 2.49955 108.214 43.4328 25
4225 3 5.78414 108.14 43.437 22
4226 3 3.35242 111.85 43.4753 26
4227 3 3.18394 108.902 42.1653 24
4228 3 3.14408 108.897 44.7232 24
4229 1 1.98479 112.348 41.9598 29
4230 1 6.61846 115.17 43.4968 28
4231 2 4.00829 113.355 43.4567 25
4232 3 5.57233 113.27 43.4625 23
4233 3 2.79887 116.967 43.4644 24
4234 3 3.31707 113.977 42.1586 24
4235 1 1.91246 112.375 44.9505 28
4236 3 3.25592 114.026 44.7035 24
4237 1 1.69862 119.751 46.4551 28
4238 2 4.3332 121.565 46.4891 25
4239 3 2.76894 121.646 46.4873 22
4240 3 5.49661 117.961 46.4894 24
4241 3 5.07473 120.897 45.2365 24
4242 3 5.0066 120.928 47.7903 24
4243 1 4.14901 117.463 44.9743 28
4244 1 4.12677 114.638 46.4567 26
4245 2 6.22022 116.487 46.483 25
4246 3 2.93548 116.572 46.4744 22
4247 3 5.31841 112.888 46.4198 25
4248 3 5.57327 115.826 45.1809 24
4249 1 4.22324 117.446 41.9794 28
4250 3 5.50118 115.809 47.7378 24
4251 1 4.18481 120.282 43.485 27
4252 2 2.0727 118.44 43.4677 25
4253 3 5.35669 118.36 43.4755 22
4254 3 3.02713 122.045 43.5088 25
4255 3 2.7786 119.116 42.2061 24
4256 3 2.7286 119.103 44.7664 24
4257 1 1.6624 122.546 41.9956 28
4258 1 6.34772 125.357 43.5169 29
4259 2 3.70357 123.541 43.5016 25
4260 3 5.26769 123.457 43.5019 22
4261 3 2.56729 127.14 43.4968 24
4262 3 3.01748 124.179 42.2072 24
4263 1 1.59577 122.557 44.9963 28
4264 3 2.96925 124.204 44.7603 24
4265 1 1.52199 129.913 46.4996 29
4266 2 4.18096 131.732 46.5108 25
4267 3 2.61667 131.813 46.5124 22
4268 3 5.29035 128.131 46.5196 24
4269 3 4.90622 131.07 45.2475 24
4270 3 4.86194 131.082 47.8027 24
4271 1 3.9291 127.635 45.0069 28
4272 1 3.86359 124.818 46.5132 27
4273 2 6.00004 126.651 46.5127 25
4274 3 2.71654 126.732 46.5103 22
4275 3 5.01235 123.058 46.4827 26
4276 3 5.33577 125.998 45.2152 24
4277 1 3.98486 127.633 42.0066 28
4278 3 5.28363 125.977 47.7733 24
4279 1 3.99387 130.452 43.5043 27
4280 2 1.85476 128.619 43.5023 25
4281 3 5.13828 128.539 43.5051 22
4282 3 2.8605 132.221 43.5237 25
4283 3 2.56276 129.292 42.2374 24
4284 3 2.52481 129.274 44.7973 24
4285 1 1.48802 132.724 42.015 28
4286 1 6.20972 135.533 43.524 28
4287 2 3.54695 133.712 43.5216 25
4288 3 5.1111 133.629 43.5195 22
4289 3 2.44761 137.314 43.512 23
4290 3 2.8588 134.362 42.233 24
4291 1 1.44104 132.724 45.0167 28
4292 3 2.82578 134.372 44.7879 24
4296 3 5.19061 138.303 46.5297 20
4299 1 3.81926 137.807 45.02 24
4300 1 3.74236 134.99 46.5313 27
4301 2 5.89387 136.82 46.5229 24
4302 3 2.61059 136.901 46.5232 21
4303 3 4.86913 133.221 46.5092 25
4304 3 5.2177 136.168 45.2303 24
4305 1 3.85867 137.811 42.0192 24
4306 3 5.18151 136.149 47.7878 24
4308 2 1.74268 138.796 43.518 18
4309 3 5.02599 138.715 43.5181 17
4311 3 2.45019 139.466 42.2505 15
4312 3 2.42226 139.448 44.809 15
4630 2 1.50613 60.2429 52.491 16
4631 3 -0.0580492 60.3242 52.4932 13
4646 3 0.101493 60.7421 49.4802 16
4649 1 -1.31007 61.2473 47.9882 20
4650 1 3.46889 64.0535 49.4716 28
4651 2 0.795862 62.229 49.4897 22
4652 3 2.36007 62.148 49.4862 19
4653 3 -0.281776 65.8314 49.4928 24
4654 3 0.080822 62.8995 48.2247 23
4655 1 -1.27262 61.2361 50.9903 20
4656 3 0.111956 62.8736 50.7816 23
4657 1 -1.1982 68.5898 52.5084 28
4658 2 1.47353 70.413 52.4922 25
4659 3 -0.0906672 70.4944 52.4944 22
4660 3 2.54983 66.814 52.4837 25
4661 3 2.15318 69.7733 51.1952 24
4662 3 2.19415 69.7397 53.7524 24
4663 1 1.13358 66.323 50.9892 28
4664 1 1.08981 63.5031 52.4913 28
4665 2 3.25021 65.3297 52.4814 25
4666 3 -0.0330099 65.411 52.4867 22
4667 3 2.20132 61.7295 52.5 22
4668 3 2.53782 64.6702 51.2115 24
4669 1 1.09046 66.3376 47.9869 28
4670 3 2.57 64.6698 53.7693 24
4671 1 1.17132 69.145 49.4893 27
4672 2 -0.983281 67.3154 49.4965 25
4673 3 2.3 67.2337 49.4907 22
4674 3 0.0515879 70.9163 49.4773 25
4675 3 -0.304741 67.9771 48.2088 24
4676 3 -0.270532 67.9747 50.7661 24
4677 1 -1.36689 71.4236 47.9889 28
4678 1 3.4065 74.2283 49.4652 28
4679 2 0.742361 72.4049 49.4902 25
4680 3 2.30662 72.3237 49.4853 22
4681 3 -0.353872 76.0091 49.4958 25
4682 3 0.0190777 73.0788 48.2307 24
4683 1 -1.31554 71.4094 50.9909 28
4684 3 0.0634068 73.043 50.7873 24
4685 1 -1.2547 78.7575 52.5186 28
4686 2 1.40646 80.578 52.498 25
4687 3 -0.157758 80.6597 52.5003 22
4688 3 2.49957 76.9819 52.481 25
4689 3 2.07658 79.9504 51.1904 24
4690 3 2.14065 79.8983 53.7478 24
4691 1 1.07205 76.4964 50.9902 28
4692 1 1.04818 73.6721 52.491 28
4693 2 3.20315 75.4991 52.4786 25
4694 3 -0.0801652 75.5806 52.4856 22
4695 3 2.16639 71.9006 52.504 25
4696 3 2.48536 74.8378 51.2131 24
4697 1 1.00875 76.5177 47.9883 28
4698 3 2.5324 74.8396 53.7717 24
4699 1 1.08314 79.3257 49.4937 27
4700 2 -1.05967 77.4914 49.501 25
4701 3 2.22382 77.409 49.4931 22
4702 3 -0.0508167 81.0938 49.4748 25
4703 3 -0.392265 78.1554 48.2089 24
4704 3 -0.341025 78.1518 50.7663 24
4705 1 -1.48235 81.605 47.9955 28
4706 1 3.27951 84.4089 49.46 28
4707 2 0.633104 82.5855 49.4959 25
4708 3 2.19732 82.5037 49.4879 22
4709 3 -0.505109 86.2013 49.5099 24
4710 3 -0.105681 83.2678 48.2478 24
4711 1 -1.40393 81.5826 50.9959 28
4712 3 -0.0364371 83.2096 50.8034 24
4713 1 -1.38199 88.9198 52.5503 27
4714 2 1.24937 90.7394 52.5199 25
4715 3 -0.314947 90.8253 52.5213 23
4716 3 2.39142 87.1427 52.4815 25
4717 3 1.9037 90.1455 51.1902 24
4718 3 2.01456 90.0401 53.7418 24
4719 1 0.941623 86.6742 51.0002 28
4720 1 0.961223 83.8348 52.4962 28
4721 2 3.10299 85.6635 52.4783 25
4722 3 -0.18063 85.7457 52.4884 22
4723 3 2.09419 82.0676 52.5162 25
4724 3 2.37571 84.9989 51.2212 24
4725 1 0.842351 86.7139 48.0028 28
4726 3 2.45208 85.0029 53.7813 24
4727 1 0.887436 89.5325 49.5179 26
4728 2 -1.22055 87.68 49.5197 25
4729 3 2.0639 87.5938 49.5081 22
4730 3 -0.274079 91.3061 49.4951 25
4731 3 -0.57277 88.3527 48.2216 24
4732 3 -0.493171 88.3436 50.7776 24
4733 1 -1.72723 91.8224 48.0362 28
4734 1 2.99497 94.636 49.5232 27
4735 2 0.390478 92.8064 49.5339 25
4736 3 1.95489 92.7257 49.5268 23
4737 3 -0.867123 96.473 49.6144 24
4738 3 -0.373333 93.5 48.3045 24
4739 1 -1.60569 91.7726 51.0257 30
4740 3 -0.272316 93.4072 50.8572 24
4741 1 -1.82031 99.1734 52.6924 27
4742 2 0.723974 100.983 52.766 25
4743 3 -0.841725 101.109 52.7733 23
4744 3 2.06813 97.3448 52.5626 24
4745 3 1.36611 100.428 51.4065 24
4746 3 1.54598 100.297 53.9553 22
4747 1 0.599113 96.9059 51.0891 28
4748 1 0.741046 94.0044 52.541 26
4749 2 2.81256 95.8799 52.5472 25
4750 3 -0.471212 95.9607 52.5644 22
4751 3 1.91619 92.239 52.5583 25
4752 3 2.08968 95.2006 51.2969 23
4753 1 0.466801 96.9805 48.0932 27
4754 3 2.20834 95.1848 53.8527 24
4755 1 0.408011 99.8467 49.6847 27
4756 2 -1.61517 97.9375 49.6177 25
4757 3 1.66901 97.8474 49.6134 22
4758 3 -0.856804 101.583 49.6635 27
4759 3 -0.996091 98.6105 48.3077 24
4760 3 -0.923282 98.6379 50.8742 23
4761 1 2.56994 102.076 48.1944 28
4762 1 7.06739 104.966 49.3413 26
4763 2 4.61634 103.109 49.7453 24
4764 3 6.18629 103.024 49.681 23
4765 3 3.11596 106.83 49.3256 24
4766 3 3.85757 103.799 48.4998 23
4767 1 2.64975 102.032 51.2268 28
4768 3 3.95599 103.614 51.1073 26
4769 1 1.77027 109.602 52.298 27
4770 2 4.35047 111.437 52.4086 25
4771 3 2.7874 111.512 52.4036 23
4772 3 5.69344 107.727 52.4371 24
4773 3 5.15398 110.737 51.208 24
4774 3 4.95561 110.817 53.7465 24
4775 1 4.43846 107.18 50.8254 28
4776 1 4.73751 103.993 52.8921 26
4777 2 6.49657 106.287 52.282 25
4778 3 3.20399 106.496 52.3365 24
4779 3 6.19111 102.499 52.8266 26
4780 3 5.96051 105.732 50.8979 23
4781 1 4.52702 107.337 47.8714 28
4782 3 6.00526 105.365 53.443 22
4783 1 4.35848 110.142 49.4195 26
4784 2 2.33061 108.269 49.3719 25
4785 3 5.61356 108.216 49.3784 22
4786 3 3.13989 111.897 49.4763 25
4787 3 3.02788 108.994 48.1302 23
4788 3 2.91513 108.941 50.6991 24
4789 1 1.81304 112.391 47.9393 30
4790 1 6.40347 115.208 49.497 27
4791 2 3.79401 113.403 49.4549 25
4792 3 5.35764 113.313 49.4577 23
4793 3 2.6068 116.985 49.4538 24
4794 3 3.13105 114.012 48.1385 24
4795 1 1.65339 112.43 50.9388 28
4796 3 3.01908 114.071 50.6906 24
4797 1 1.48706 119.744 52.4656 29
4798 2 4.138 121.559 52.4927 25
4799 3 2.57362 121.639 52.495 22
4800 3 5.25396 117.967 52.5069 24
4801 3 4.8855 120.893 51.2431 24
4802 3 4.7946 120.915 53.7987 24
4803 1 3.93075 117.476 50.9768 28
4804 1 3.83016 114.661 52.4903 26
4805 2 5.96574 116.489 52.49 25
4806 3 2.68247 116.569 52.4854 22
4807 3 5.02044 112.925 52.4045 26
4808 3 5.33937 115.854 51.1673 24
4809 1 4.05349 117.469 47.9747 28
4810 3 5.21938 115.8 53.7267 24
4811 1 4.01561 120.291 49.4773 27
4812 2 1.88504 118.46 49.4669 25
4813 3 5.16897 118.379 49.4733 22
4814 3 2.86579 122.049 49.518 25
4815 3 2.60818 119.143 48.2176 24
4816 3 2.52785 119.102 50.7822 24
4817 1 1.51791 122.553 47.9989 28
4818 1 6.20184 125.358 49.5217 28
4819 2 3.54837 123.542 49.5131 25
4820 3 5.11239 123.458 49.51 22
4821 3 2.43671 127.134 49.4975 24
4822 3 2.8757 124.182 48.2119 24
4823 1 1.42113 122.555 51.0044 28
4824 3 2.8089 124.204 50.7684 24
4825 1 1.38872 129.897 52.5079 28
4826 2 4.05747 131.718 52.5145 25
4827 3 2.49322 131.799 52.5181 22
4828 3 5.14203 128.12 52.5303 24
4829 3 4.78452 131.056 51.2525 24
4830 3 4.73139 131.065 53.8086 24
4831 1 3.78896 127.626 51.013 28
4832 1 3.69107 124.81 52.5334 27
4833 2 5.84544 126.638 52.5192 25
4834 3 2.56227 126.718 52.5192 22
4835 3 4.82493 123.048 52.4909 25
4836 3 5.18603 125.995 51.2148 24
4837 1 3.86443 127.632 48.01 28
4838 3 5.11862 125.96 53.7731 24
4839 1 3.879 130.444 49.5035 27
4840 2 1.72886 128.615 49.5074 25
4841 3 5.0123 128.534 49.5088 22
4842 3 2.75283 132.212 49.5303 25
4843 3 2.44593 129.291 48.2481 24
4844 3 2.39467 129.261 50.8086 24
4845 1 1.38845 132.717 48.0192 28
4846 1 6.11176 135.523 49.5281 28
4847 2 3.44307 133.701 49.5293 25
4848 3 5.00718 133.618 49.5254 22
4849 3 2.35788 137.3 49.5136 23
4850 3 2.76193 134.352 48.2374 24
4851 1 1.32743 132.711 51.0225 28
4852 3 2.71973 134.361 50.7937 24
4856 3 5.09134 138.287 52.5366 20
4859 1 3.72442 137.793 51.0247 24
4860 1 3.63149 134.975 52.5423 27
4861 2 5.7916 136.803 52.5276 24
4862 3 2.50844 136.884 52.529 21
4863 3 4.74987 133.205 52.5146 25
4864 3 5.1177 136.157 51.2316 24
4865 1 3.77475 137.801 48.0225 24
4866 3 5.07407 136.13 53.7892 24
4868 2 1.65556 138.783 49.522 18
4869 3 4.93881 138.702 49.5213 17