ITEM: TIMESTEP
71500
ITEM: NUMBER OF ATOMS
10500
ITEM: BOX BOUNDS xy xz yz pp pp pp
0	15.2977	5.09925
0	118.725	0
0	89.688	0
ITEM: ATOMS id type element xu yu zu q Q_1 Q_2 Q_3 Q_4 Q_5 Q_6 Q_7 Q_8 Q_9 Q_10 Q_11 Q_12 Q_13 Q_14 Q_15 Q_16 Q_17 Q_18 Q_19 Q_20 Q_21
1 1 Mg 6.2404 -6.37941e-06 0 1.2 1 0.0015335 0.00408474 0.00104319 0.00463455 0.0014529 0.00551893 0.00199056 0.0159824 0.00231448 0.00575759 0.00257979 0.0219341 0.00295894 0.0133738 0.00375261 0.0204286 0.00416627 0.0142611 0.00407573 0.039971
2 1 Mg 3.46349 4.70768 1.4948 1.2 1 0.000984025 0.00338714 0.00161077 0.00416242 0.0018089 0.00600369 0.00354313 0.0186942 0.00265809 0.00688877 0.00316903 0.025854 0.00334738 0.0135073 0.00455075 0.0251318 0.0052869 0.016888 0.00547431 0.0438267
3 2 Si 5.2885 2.02354 1.4948 2.4 1 0.000590055 0.00362154 0.00189041 0.00434215 0.00189105 0.0055784 0.00258971 0.0171306 0.00244792 0.00597514 0.00217845 0.0235147 0.0030514 0.0132552 0.00386218 0.021528 0.00402754 0.0153019 0.00428988 0.0410987
4 3 O 5.33628 3.63678 1.4948 -1.2 1 0.000411986 0.00291103 0.00158885 0.00451761 0.00219326 0.00617865 0.00292698 0.017879 0.00203265 0.0065675 0.00217156 0.0254217 0.00279482 0.0133535 0.0044153 0.0239 0.0049556 0.016276 0.00560524 0.0428022
5 3 O 1.67294 1.04952 1.4948 -1.2 1 0.00179187 0.0038086 0.00194146 0.00404929 0.00128751 0.00567367 0.002265 0.0168023 0.00244124 0.00593334 0.00222361 0.0230183 0.00284577 0.0124918 0.00338992 0.0218479 0.00453852 0.0155691 0.00435208 0.0400772
6 3 O 4.59532 1.31737 0.196716 -1.2 1 0.00135042 0.00315484 0.00182588 0.0040606 0.00206882 0.00557826 0.00251494 0.0171777 0.00269958 0.00614505 0.00215383 0.0223878 0.00360153 0.0126298 0.00448616 0.0213438 0.00415724 0.0149007 0.00457515 0.0406134
7 1 Mg 6.18956 -6.37941e-06 2.9896 1.2 1 0.000817332 0.00444954 0.00160392 0.00420086 0.00142497 0.00544819 0.00224867 0.016221 0.0026124 0.00529543 0.00182876 0.0225407 0.00291076 0.0129675 0.00364767 0.0206522 0.0043406 0.0148095 0.00465333 0.0388611
8 3 O 4.55118 1.31737 2.79288 -1.2 1 0.00114007 0.00434437 0.0019486 0.00421374 0.00189505 0.00580515 0.00233426 0.0170191 0.00237659 0.00660357 0.00230581 0.0220725 0.00324995 0.0118925 0.00348143 0.0214865 0.00478653 0.0155647 0.005091 0.040022
9 1 Mg -1.20682 0.0413099 4.4844 1.2 1 0.000701059 0.00289554 0.00146855 0.00474479 0.00146478 0.00545374 0.00188439 0.01617 0.00206039 0.00556133 0.00207361 0.0228978 0.0031829 0.0111605 0.0033078 0.0205462 0.00485115 0.015901 0.0047194 0.038467
10 2 Si -3.0337 2.72544 4.4844 2.4 1 0.000419296 0.0034825 0.00188644 0.00487278 0.00204711 0.00623658 0.00308009 0.0168627 0.00297873 0.00566874 0.00220077 0.0242512 0.00316644 0.0121882 0.0038539 0.0222355 0.00509527 0.0175425 0.0056669 0.0395693
11 3 O -3.08099 1.11221 4.4844 -1.2 1 0.000768769 0.00362508 0.00197829 0.00435154 0.00144153 0.00533956 0.00238653 0.0160406 0.00264995 0.00519418 0.00214069 0.0226531 0.00333405 0.0108385 0.00366405 0.0210905 0.00472813 0.0165616 0.00503731 0.0381027
12 3 O 0.582463 3.69946 4.4844 -1.2 1 0.00170268 0.00439747 0.00225754 0.00427052 0.00227226 0.00672836 0.00323243 0.0173668 0.00327415 0.00627682 0.00331844 0.0251072 0.00421459 0.0122049 0.00421438 0.0239141 0.00676217 0.0182741 0.00769903 0.0414829
13 3 O -2.29524 3.43162 3.18632 -1.2 1 0.000651057 0.00310928 0.00245606 0.0044966 0.00211844 0.00596776 0.00289491 0.0179986 0.00297311 0.00668702 0.00256822 0.0248528 0.00325289 0.0126587 0.00464833 0.0241318 0.00596015 0.017622 0.00615792 0.0422563
14 3 O -2.34216 3.43162 5.78248 -1.2 1 0.00140702 0.00369146 0.0013807 0.00465494 0.00254604 0.00594868 0.00314036 0.0173456 0.00301716 0.00630601 0.00275637 0.0238106 0.00411181 0.0114377 0.00423712 0.0229069 0.00630361 0.0185805 0.00696436 0.0396324
15 1 Mg 1.12778 2.37449 2.9896 1.2 1 0.00152251 0.0037137 0.00244493 0.00431247 0.0021443 0.00605245 0.00289904 0.0168862 0.00268803 0.00602553 0.002516 0.0237925 0.00322776 0.0125854 0.00334897 0.0219039 0.00472773 0.0163027 0.00513573 0.0409099
16 1 Mg 3.92855 2.33318 4.4844 1.2 1 0.00135184 0.00413056 0.00166517 0.00396503 0.00164779 0.00562572 0.00320887 0.0169719 0.00308654 0.00544816 0.00275242 0.0233425 0.00350459 0.0128395 0.00533142 0.0218018 0.00636234 0.0169258 0.0065148 0.0402341
17 2 Si 2.09341 4.39804 4.4844 2.4 1 0.00126891 0.00378982 0.00231031 0.00381101 0.00275809 0.00592451 0.00338496 0.0182947 0.0033096 0.00657679 0.00355999 0.0251619 0.00442611 0.0134426 0.00417074 0.0241719 0.0065956 0.0178272 0.00789046 0.0429548
18 3 O 2.09991 6.01128 4.4844 -1.2 1 0.00180319 0.00401634 0.00181081 0.00386504 0.00274458 0.00635575 0.00290965 0.0194557 0.0023535 0.00695849 0.00327918 0.0269924 0.00383445 0.013913 0.00452177 0.026958 0.0065458 0.0186977 0.00775709 0.044933
19 3 O -4.52137 3.42402 4.4844 -1.2 1 0.00117297 0.00391877 0.00232159 0.00427293 0.00216454 0.00684546 0.00346598 0.0173384 0.0032489 0.00590225 0.00308439 0.0237693 0.00374631 0.0121355 0.00445204 0.0225647 0.00610822 0.0171552 0.00715804 0.0409191
20 3 O 2.80834 3.69187 3.18632 -1.2 1 0.0012102 0.0036 0.00165581 0.00333433 0.00176687 0.00579739 0.00292128 0.017524 0.0029772 0.00619499 0.00296379 0.0244054 0.00364838 0.0126116 0.00475652 0.0236792 0.00559956 0.0166469 0.00601216 0.0425211
21 1 Mg 1.17857 2.37449 0 1.2 1 0.00207032 0.00379907 0.0022554 0.00386002 0.00155062 0.00534686 0.00231709 0.0174366 0.00232277 0.0065903 0.00293419 0.0232045 0.00316248 0.0129883 0.00368296 0.0216812 0.00467389 0.0150776 0.00473467 0.0407857
22 3 O 2.76143 3.69187 5.78248 -1.2 1 0.00157778 0.00405024 0.00189103 0.00384832 0.0019003 0.00541084 0.0025847 0.0177356 0.00330425 0.00637014 0.00288924 0.02351 0.00426344 0.01225 0.00534576 0.0227092 0.00623871 0.0180742 0.00720722 0.0403272
23 1 Mg -1.67381 2.41581 1.4948 1.2 1 0.00134865 0.0028062 0.00253303 0.00463277 0.00138261 0.00589174 0.00244586 0.0166399 0.00259073 0.00621708 0.00214264 0.0243564 0.00258424 0.0138844 0.00279422 0.0223194 0.00453855 0.0159363 0.00487674 0.0416427
24 2 Si 0.16286 0.350945 1.4948 2.4 1 0.00202501 0.00278588 0.0026415 0.00429294 0.00124307 0.00617249 0.00276827 0.0164773 0.00234336 0.00526387 0.00207151 0.023218 0.0025764 0.0131736 0.00301776 0.020731 0.00448153 0.0148104 0.00414458 0.0402387
25 3 O 0.15972 -1.26229 1.4948 -1.2 1 0.00228375 0.0028183 0.00298212 0.00447644 0.0017624 0.00595268 0.0025197 0.016449 0.00238663 0.0053572 0.00263114 0.0228424 0.00299217 0.0135669 0.00286265 0.0214975 0.0040357 0.0148033 0.00395948 0.0405368
26 3 O 6.77654 1.32496 1.4948 -1.2 1 0.00116563 0.00387038 0.00154209 0.00444448 0.00148146 0.00589549 0.00242271 0.0168614 0.00250867 0.00540527 0.00180701 0.0238655 0.00297498 0.0132597 0.0036232 0.0217923 0.00479976 0.0151763 0.00437805 0.0407117
27 3 O -0.508028 1.05712 0.196716 -1.2 1 0.00168761 0.00308386 0.00350673 0.00383162 0.00128406 0.00549922 0.00253515 0.0171259 0.00188023 0.00670451 0.00260502 0.0223522 0.00300016 0.0126547 0.00312939 0.0211779 0.00431971 0.0152027 0.00437891 0.0398785
28 3 O -0.552171 1.05712 2.79288 -1.2 1 0.00102422 0.00264886 0.00275169 0.00467171 0.00146525 0.00632805 0.00214713 0.0163699 0.00241788 0.00596335 0.00183286 0.0231839 0.00275794 0.0115107 0.00345713 0.0215043 0.00501417 0.0158084 0.00452011 0.0397115
29 1 Mg 6.31713 4.74899 0 1.2 1 0.000986025 0.00306324 0.00195997 0.0044931 0.00248613 0.00608176 0.00343136 0.0180677 0.00291471 0.00701858 0.00256549 0.0253106 0.00303919 0.0135682 0.00446473 0.0243415 0.00482475 0.0163351 0.00604927 0.0427698
30 1 Mg 3.54847 9.45668 1.4948 1.2 1 0.000914852 0.00303679 0.00186505 0.00442575 0.00193512 0.00740373 0.0031273 0.0214982 0.00161127 0.00825481 0.0025112 0.0283865 0.00330314 0.0153487 0.00411094 0.0291822 0.00396798 0.017989 0.00374908 0.0489614
31 2 Si 5.36879 6.77254 1.4948 2.4 1 0.000389515 0.00301128 0.00194856 0.00501584 0.00269622 0.00673407 0.00373776 0.0197868 0.00262635 0.00767088 0.0028652 0.0277144 0.00325818 0.0151017 0.00437981 0.0269054 0.00457328 0.0171261 0.00521353 0.0467109
32 3 O 5.41937 8.38578 1.4948 -1.2 1 0.000871848 0.00297301 0.00186556 0.00497432 0.00223925 0.00756535 0.00327167 0.0210928 0.00203608 0.00812611 0.00273103 0.0290058 0.00243337 0.0153135 0.00335521 0.0290843 0.004586 0.0172987 0.00476735 0.0481493
33 3 O 1.75158 5.79852 1.4948 -1.2 1 0.000760556 0.00323268 0.00200113 0.00374368 0.00217538 0.00597121 0.00316873 0.0196395 0.00271596 0.00714741 0.00287793 0.0280518 0.00303925 0.015177 0.00361525 0.0268186 0.00532783 0.0172929 0.00521695 0.0457825
34 3 O 4.67421 6.06637 0.196716 -1.2 1 0.000695815 0.00320299 0.00174406 0.00472677 0.0021158 0.00681164 0.00310446 0.0197906 0.00234863 0.00802107 0.00265555 0.0262602 0.00366376 0.0140873 0.00453418 0.0265829 0.00469742 0.0167497 0.00561708 0.0450884
35 1 Mg 6.26654 4.74899 2.9896 1.2 1 0.00113694 0.00319573 0.00191766 0.00469575 0.00248216 0.00633895 0.00369421 0.0181087 0.00353501 0.00693302 0.00228275 0.0261702 0.00367641 0.0141061 0.00494225 0.0246387 0.00582824 0.0175061 0.0065162 0.0435551
36 3 O 4.63043 6.06637 2.79288 -1.2 1 0.00154995 0.00306095 0.00171858 0.00459162 0.00198566 0.00661251 0.00322548 0.0195134 0.00311766 0.00769858 0.00253869 0.0264448 0.00387703 0.0143732 0.00474579 0.0269404 0.00586298 0.0178842 0.00619161 0.0454121
37 1 Mg -1.12976 4.79031 4.4844 1.2 1 0.00135935 0.00368417 0.00172036 0.00441928 0.00221182 0.00635384 0.00302823 0.0183763 0.00358383 0.00703421 0.00297709 0.0258666 0.00406013 0.0138395 0.00458692 0.0252848 0.00742733 0.0185294 0.00718025 0.0437283
38 2 Si -2.9517 7.47444 4.4844 2.4 1 0.00171112 0.00345971 0.00143844 0.00480453 0.00273677 0.00632396 0.00364891 0.0206196 0.00323553 0.00744456 0.00304576 0.0275674 0.0045622 0.0154361 0.00528126 0.0275245 0.00696024 0.0185947 0.00719941 0.0468995
39 3 O -3.00198 5.86121 4.4844 -1.2 1 0.00143588 0.00378538 0.00124662 0.00451455 0.00302114 0.00630683 0.00407 0.0190966 0.0035264 0.00731388 0.00261223 0.026247 0.00439954 0.0135159 0.00462628 0.0263164 0.0066897 0.0186386 0.00756619 0.0450334
40 3 O 0.666315 8.44846 4.4844 -1.2 1 0.00207215 0.00399317 0.00123689 0.00466413 0.00285115 0.0071913 0.00297288 0.0214671 0.00289967 0.00768544 0.00340811 0.0285082 0.00467083 0.0152945 0.00423074 0.0287883 0.0059451 0.0190688 0.00729876 0.0480574
41 3 O -2.21213 8.18062 3.18632 -1.2 1 0.00143299 0.00380267 0.00138844 0.00442291 0.00247253 0.00620577 0.00277373 0.0209851 0.00260398 0.00799339 0.0029221 0.0277771 0.00408391 0.0153448 0.00483928 0.0288143 0.00574104 0.0185321 0.00614169 0.0484287
42 3 O -2.25864 8.18062 5.78248 -1.2 1 0.0020174 0.00398334 0.00149146 0.00441036 0.00316483 0.00602771 0.00301064 0.0210622 0.00237285 0.00813523 0.00350422 0.026728 0.00430461 0.0156056 0.00526238 0.0285333 0.00687892 0.0199078 0.00769984 0.047686
43 1 Mg 1.20893 7.12349 2.9896 1.2 1 0.00119899 0.00345008 0.00170406 0.00400194 0.00273018 0.00680611 0.00360415 0.0198825 0.00270654 0.00801878 0.00285847 0.028271 0.00347792 0.0152095 0.0038867 0.0272452 0.00558451 0.017912 0.00577736 0.0468636
44 1 Mg 4.00982 7.08218 4.4844 1.2 1 0.00181011 0.003339 0.00173318 0.00437906 0.00246729 0.00628131 0.00349651 0.0202894 0.00317005 0.0072171 0.00325362 0.0276655 0.00421605 0.0160832 0.00574225 0.0277584 0.00694111 0.0186299 0.00754192 0.0468151
45 2 Si 2.17861 9.14704 4.4844 2.4 1 0.00193334 0.0034512 0.00152829 0.00465167 0.00279637 0.00712552 0.00345059 0.021491 0.00253223 0.0078088 0.0031637 0.0280939 0.00452744 0.0161765 0.00425442 0.0292011 0.00522773 0.0188772 0.00661642 0.0495922
46 3 O 2.18828 10.7603 4.4844 -1.2 1 0.0027716 0.00366726 0.00165354 0.00432806 0.00271064 0.00687046 0.00292659 0.0211979 0.00242225 0.00774233 0.00220663 0.0285755 0.00388626 0.0153379 0.00431906 0.030488 0.00538155 0.0191734 0.00596004 0.0496929
47 3 O -4.43805 8.17302 4.4844 -1.2 1 0.00128419 0.00368022 0.0018593 0.00475183 0.00258899 0.0073866 0.00319014 0.0211039 0.00294394 0.00792825 0.00345941 0.0283918 0.0047073 0.0154231 0.00485017 0.0287995 0.00649082 0.0189433 0.00770514 0.0474646
48 3 O 2.89193 8.44087 3.18632 -1.2 1 0.00203642 0.00318096 0.0018094 0.00412369 0.00241606 0.0068656 0.0031648 0.0206681 0.00262983 0.00816242 0.00280589 0.0278264 0.00384508 0.0154949 0.00475008 0.0287964 0.0058081 0.0182369 0.00545349 0.0485207
49 1 Mg 1.25915 7.12349 0 1.2 1 0.00102673 0.00301004 0.00163195 0.00413125 0.0016969 0.00699469 0.00313031 0.0199892 0.00279845 0.00812641 0.00295818 0.0273617 0.00345521 0.0140257 0.00384597 0.0277362 0.00469764 0.0172496 0.00479978 0.0460247
50 3 O 2.84547 8.44087 5.78248 -1.2 1 0.00229751 0.00377242 0.0014555 0.00437593 0.00237232 0.00649089 0.00331151 0.020944 0.00268737 0.00780469 0.00354199 0.027307 0.00542561 0.0159549 0.00552328 0.0289827 0.00586463 0.0199122 0.00702811 0.0479229
51 1 Mg -1.59284 7.16481 1.4948 1.2 1 0.000609797 0.00323967 0.00136907 0.00445041 0.00186965 0.00620622 0.00296313 0.0200021 0.00273378 0.0077767 0.00199672 0.027881 0.00335408 0.0152463 0.00383581 0.0272157 0.00465681 0.0173968 0.00559237 0.0467119
52 2 Si 0.240329 5.09994 1.4948 2.4 1 0.000737047 0.0036817 0.00216528 0.00391729 0.00172649 0.00662599 0.00315909 0.0191001 0.00297952 0.00727916 0.00251882 0.0262379 0.00294089 0.0143589 0.00398573 0.0248672 0.0052287 0.0168064 0.00508818 0.0446848
53 3 O 0.234538 3.48671 1.4948 -1.2 1 0.00148897 0.00389714 0.00260448 0.00411348 0.00180211 0.00627582 0.00260341 0.0179385 0.00324468 0.00682474 0.00258883 0.0247309 0.0033716 0.0133024 0.00383912 0.02401 0.00546789 0.015947 0.00517796 0.0423623
54 3 O 6.85564 6.07396 1.4948 -1.2 1 0.000603179 0.00274953 0.00213807 0.00473668 0.00258863 0.00587736 0.00320577 0.0200461 0.00297845 0.00745208 0.00227677 0.0279062 0.00325546 0.0143523 0.00468308 0.0268639 0.00541275 0.0175048 0.00605221 0.045548
55 3 O -0.429565 5.80612 0.196716 -1.2 1 0.000799434 0.00323528 0.0024472 0.00390942 0.0018476 0.00685248 0.00277938 0.0195028 0.00270433 0.00835876 0.00277161 0.0257797 0.00274239 0.013924 0.00396839 0.0260151 0.00511538 0.0167787 0.0058572 0.0451849
56 3 O -0.473377 5.80612 2.79288 -1.2 1 0.00119362 0.0035839 0.00165782 0.0043522 0.00229948 0.0067169 0.0030613 0.0194496 0.00291337 0.00803604 0.00299541 0.0261766 0.0038295 0.0141152 0.00428097 0.0261735 0.00625409 0.0181612 0.00617785 0.0458673
57 1 Mg 6.40169 9.49799 0 1.2 1 0.000384503 0.00358905 0.00162066 0.0045871 0.00149984 0.00817342 0.00216535 0.0210526 0.00163261 0.00874167 0.00208043 0.0286124 0.0023338 0.0143678 0.00297655 0.0299195 0.00357099 0.0180006 0.00443644 0.0475223
58 1 Mg 3.64209 14.2057 1.4948 1.2 1 0.00130972 0.00303356 0.00152273 0.00472894 0.00166275 0.00854399 0.00184683 0.02158 0.0014378 0.00851368 0.00241064 0.0278809 0.00264576 0.0159133 0.00309992 0.0297097 0.00334201 0.016621 0.00340609 0.0493323
59 2 Si 5.45748 11.5215 1.4948 2.4 1 0.00160766 0.00301319 0.00182796 0.00482606 0.00172236 0.00803106 0.00225037 0.0212019 0.00163014 0.00802673 0.00189909 0.0285356 0.00268895 0.0159024 0.00355592 0.0293322 0.0037943 0.0167508 0.00368172 0.0492428
60 3 O 5.51101 13.1348 1.4948 -1.2 1 0.00146067 0.00296137 0.00188661 0.00475515 0.00156838 0.00891156 0.00185046 0.0210737 0.00175156 0.00843587 0.00175916 0.0290474 0.0023189 0.0158114 0.00298863 0.0300105 0.00354068 0.0164391 0.0033631 0.0489526
61 3 O 1.83851 10.5475 1.4948 -1.2 1 0.000969403 0.00325686 0.00185216 0.00464172 0.00175311 0.00753697 0.0025619 0.0216518 0.00170662 0.00828499 0.00240147 0.0292699 0.00276461 0.0155383 0.00343302 0.029964 0.00368392 0.01762 0.00315471 0.0492144
62 3 O 4.7611 10.8154 0.196716 -1.2 1 0.000511117 0.00315515 0.00204404 0.00464645 0.00155571 0.00834858 0.0022978 0.0213594 0.00142514 0.00847287 0.00217013 0.0278549 0.00302176 0.0151923 0.00396109 0.0296916 0.00354306 0.0171114 0.0037387 0.0485767
63 1 Mg 6.35203 9.49799 2.9896 1.2 1 0.00103418 0.00356769 0.00152795 0.00482014 0.00254732 0.00726516 0.00313845 0.0207642 0.00295861 0.00830408 0.00219744 0.0289384 0.00361787 0.0156989 0.00338095 0.0293717 0.00419617 0.0180715 0.00491717 0.0486936
64 3 O 4.71833 10.8154 2.79288 -1.2 1 0.00220436 0.00317128 0.00160328 0.00448847 0.00211475 0.00803219 0.00221698 0.0213964 0.00192668 0.00869299 0.00218113 0.0281938 0.0035042 0.0155331 0.00408225 0.0302878 0.00473957 0.0181564 0.00473726 0.0497632
65 1 Mg -1.0438 9.53931 4.4844 1.2 1 0.00209482 0.004011 0.00126313 0.00446808 0.00297704 0.00660088 0.0025959 0.0213484 0.00272178 0.00814268 0.00270973 0.0282277 0.00391499 0.0158328 0.00475342 0.0295046 0.00590173 0.0192401 0.00630131 0.0493359
66 2 Si -2.8604 12.2234 4.4844 2.4 1 0.00232951 0.00365197 0.0015018 0.00447437 0.00269083 0.00747645 0.00292401 0.0220245 0.00284716 0.00825857 0.0024988 0.028227 0.00426754 0.016069 0.00476552 0.0301123 0.00526551 0.0187096 0.00579168 0.0506046
67 3 O -2.91391 10.6102 4.4844 -1.2 1 0.00234565 0.00383444 0.00146474 0.00435557 0.00268271 0.00678665 0.00311717 0.020852 0.00276978 0.00759366 0.00198802 0.0285688 0.00411415 0.0152568 0.00413901 0.0306613 0.00537205 0.0190477 0.00579305 0.0499443
68 3 O 0.7596 13.1975 4.4844 -1.2 1 0.00229836 0.00334796 0.00152705 0.00471736 0.00291996 0.00820487 0.00248841 0.0221945 0.00251989 0.00813723 0.00246423 0.0283791 0.00414507 0.015741 0.00391554 0.0302083 0.00537438 0.0188479 0.00621603 0.0496231
69 3 O -2.12001 12.9296 3.18632 -1.2 1 0.00269087 0.00331808 0.00147804 0.00426081 0.00247647 0.0073801 0.00237632 0.0219096 0.00238499 0.00833914 0.00225397 0.0275445 0.00359875 0.0158464 0.00471578 0.0304539 0.0046999 0.0180203 0.00475114 0.0500288
70 3 O -2.16532 12.9296 5.78248 -1.2 1 0.00261292 0.0038679 0.00164855 0.00411819 0.00297878 0.0064077 0.00235683 0.0218945 0.00262546 0.00774597 0.00267308 0.0273847 0.00419744 0.0158668 0.00457723 0.0311536 0.00549895 0.020228 0.00629076 0.0502836
71 1 Mg 1.29891 11.8725 2.9896 1.2 1 0.00197825 0.00312108 0.00154972 0.00464625 0.00235515 0.00789668 0.00281506 0.021134 0.00240344 0.00833794 0.0020323 0.0290809 0.00344776 0.0159024 0.0035727 0.0300724 0.00421537 0.0174803 0.00424569 0.0493045
72 1 Mg 4.10033 11.8312 4.4844 1.2 1 0.0027584 0.00311458 0.00181456 0.00426454 0.00272597 0.00717582 0.00266765 0.0215689 0.00258689 0.00815862 0.00255928 0.0285507 0.00343578 0.0168671 0.00508421 0.0301132 0.00589891 0.0187547 0.00547051 0.0498189
73 2 Si 2.27333 13.896 4.4844 2.4 1 0.0022849 0.00292058 0.00147486 0.00488203 0.00313586 0.0076345 0.00314312 0.0218463 0.00252904 0.00784921 0.00243858 0.0281047 0.00387341 0.0163843 0.00431552 0.0301309 0.00502414 0.018402 0.00576252 0.0505444
74 3 O 2.28634 15.5093 4.4844 -1.2 1 0.00222394 0.00349529 0.00153467 0.00452221 0.00297101 0.00721842 0.00267919 0.0209608 0.00268214 0.00743429 0.00190519 0.0283986 0.00346302 0.0155313 0.00396224 0.0304568 0.00538239 0.0185164 0.00592356 0.0498966
75 3 O -4.34533 12.922 4.4844 -1.2 1 0.00241803 0.00384882 0.00156724 0.00459123 0.00286664 0.00815164 0.0028992 0.0219276 0.00283622 0.00816333 0.00239691 0.0285039 0.00387563 0.0159652 0.00462142 0.030369 0.00562553 0.0189445 0.00632277 0.0498092
76 3 O 2.98455 13.1899 3.18632 -1.2 1 0.00245211 0.00290565 0.00133875 0.00428455 0.00255623 0.00763617 0.00237777 0.0217522 0.00222771 0.00829303 0.00205408 0.0278149 0.00374856 0.015817 0.00431384 0.0300778 0.00500925 0.0179629 0.00481291 0.0498414
77 1 Mg 1.34779 11.8725 0 1.2 1 0.000859643 0.00290338 0.00150794 0.00466033 0.00149804 0.00865963 0.00163555 0.0212253 0.00127945 0.0089488 0.00198168 0.0286185 0.00285796 0.0145964 0.00318072 0.0303415 0.00324293 0.0172419 0.00341965 0.0482851
78 3 O 2.93934 13.1899 5.78248 -1.2 1 0.00295057 0.00377958 0.00154164 0.00450495 0.00284023 0.0067303 0.00259354 0.0220274 0.00236995 0.00801397 0.0028499 0.0271308 0.00429144 0.0162431 0.00489616 0.0310305 0.00553087 0.0205321 0.00606388 0.0506186
79 1 Mg -1.50344 11.9138 1.4948 1.2 1 0.000972905 0.00328016 0.00128606 0.0044253 0.00153087 0.00805735 0.00200132 0.0216073 0.00211827 0.00849499 0.00165103 0.0284968 0.00361893 0.0156595 0.00339813 0.0299902 0.00317507 0.0172786 0.00343831 0.0490927
80 2 Si 0.326006 9.84894 1.4948 2.4 1 0.000374815 0.00338155 0.00127931 0.00470783 0.00184034 0.00798319 0.00223698 0.0210834 0.00202489 0.0083553 0.0018181 0.0286014 0.00306731 0.0154039 0.00374617 0.0292729 0.00361063 0.0175213 0.0033519 0.048648
81 3 O 0.317364 8.23571 1.4948 -1.2 1 0.000873753 0.00335808 0.00114857 0.00433784 0.00174605 0.00755845 0.00226781 0.0203774 0.00232504 0.00792962 0.00215112 0.028745 0.00344997 0.0155169 0.00382401 0.0287418 0.00431797 0.0175368 0.00416686 0.0477588
82 3 O 6.94307 10.823 1.4948 -1.2 1 0.00105765 0.00347444 0.00157338 0.00455495 0.00178194 0.00761262 0.00267328 0.021935 0.00232066 0.00817987 0.0015975 0.0293013 0.00299338 0.0156001 0.00342363 0.0301679 0.00345302 0.017705 0.00387731 0.0493089
83 3 O -0.343122 10.5551 0.196716 -1.2 1 0.000318618 0.00342136 0.0010693 0.00467043 0.00156976 0.0083995 0.00204727 0.0211495 0.00158765 0.0086786 0.00208348 0.0278686 0.00313484 0.0148888 0.00381036 0.0297196 0.00341681 0.017396 0.00376137 0.0483253
84 3 O -0.385966 10.5551 2.79288 -1.2 1 0.00206317 0.00354776 0.000966266 0.00446501 0.00245466 0.00776577 0.00221397 0.0219379 0.00198524 0.00889297 0.00221611 0.0277421 0.00382904 0.0156571 0.00421889 0.0299884 0.00462475 0.0184268 0.00444152 0.0497405
85 1 Mg 6.49448 14.247 0 1.2 1 0.000890685 0.00308149 0.00162698 0.00464263 0.00114339 0.00901671 0.00132365 0.0210215 0.00128809 0.00831239 0.00139487 0.0282944 0.00170402 0.0152805 0.00238478 0.0300384 0.00313211 0.0163516 0.00298932 0.0482032
86 1 Mg 3.74457 18.9547 1.4948 1.2 1 0.0012793 0.00264387 0.00141898 0.00399998 0.00154001 0.00836973 0.00125765 0.0220354 0.00184699 0.00780276 0.0021699 0.0272923 0.00236295 0.0161418 0.00324756 0.0288871 0.00310973 0.0162462 0.00298681 0.0492513
87 2 Si 5.55495 16.2705 1.4948 2.4 1 0.00137637 0.00257252 0.00135153 0.00453986 0.00171573 0.00870916 0.00133024 0.0212704 0.00134082 0.00771774 0.00138722 0.0283946 0.00242839 0.0160151 0.00277467 0.0290415 0.0034237 0.0158466 0.00337774 0.0491307
88 3 O 5.6115 17.8838 1.4948 -1.2 1 0.00110501 0.00244929 0.00143113 0.0043209 0.00154422 0.00908738 0.00135666 0.0215335 0.00187057 0.00763848 0.00149813 0.0284337 0.00211441 0.0163395 0.00263426 0.0289007 0.00300504 0.0157983 0.00329706 0.0490259
89 3 O 1.93416 15.2965 1.4948 -1.2 1 0.00126858 0.00267224 0.00129281 0.00461936 0.00182131 0.00809429 0.00184744 0.0218331 0.0017379 0.00795535 0.00130354 0.0287582 0.00216636 0.0159259 0.00292228 0.0300124 0.00336285 0.0163256 0.00304762 0.0493564
90 3 O 4.85636 15.5644 0.196716 -1.2 1 0.00120288 0.00229229 0.00136591 0.00453788 0.00119907 0.00888632 0.00140455 0.0211903 0.000991929 0.0080037 0.00153528 0.0276617 0.00252255 0.0160734 0.0032388 0.0295583 0.00294582 0.0153957 0.00283337 0.0489143
91 1 Mg 6.44662 14.247 2.9896 1.2 1 0.00150669 0.00319294 0.00141866 0.00461114 0.00230615 0.00822591 0.00271751 0.0208182 0.002574 0.00854316 0.00180994 0.0290294 0.00306672 0.0162047 0.00315524 0.0296445 0.00370408 0.0172331 0.00420678 0.0492162
92 3 O 4.81537 15.5644 2.79288 -1.2 1 0.00198003 0.00301627 0.00125252 0.00436667 0.00216647 0.00853857 0.00135521 0.0218345 0.00164729 0.00832867 0.00165069 0.0277842 0.00285996 0.0161936 0.00357137 0.0295498 0.00414375 0.017128 0.00433225 0.049328
93 1 Mg -0.948271 14.2883 4.4844 1.2 1 0.00239405 0.00321051 0.00144396 0.00433528 0.00279516 0.0073916 0.00254206 0.0217719 0.00278814 0.00809481 0.00272588 0.0277454 0.00327843 0.0164734 0.00498368 0.0302317 0.00525982 0.0184308 0.00597368 0.0500307
94 2 Si -2.75928 16.9724 4.4844 2.4 1 0.00223218 0.00340136 0.00197201 0.00439695 0.00284417 0.00786667 0.00263684 0.0219653 0.00258071 0.00756124 0.00208004 0.0271444 0.0032925 0.0163943 0.00410741 0.0292256 0.0050292 0.018305 0.0059609 0.0499808
95 3 O -2.81617 15.3592 4.4844 -1.2 1 0.00265905 0.00363942 0.00166952 0.00412216 0.00289014 0.00726661 0.0027746 0.0210063 0.00248965 0.00740163 0.0022016 0.0282487 0.0040408 0.0155637 0.00384961 0.0301321 0.00559747 0.0180682 0.00637143 0.0495665
96 3 O 0.862762 17.9465 4.4844 -1.2 1 0.00194328 0.00372121 0.00152777 0.00462484 0.00286989 0.00831355 0.00227224 0.0220968 0.0024973 0.00744648 0.00240876 0.0281376 0.00369275 0.0162008 0.00421159 0.0292748 0.00558266 0.0183121 0.00595738 0.0499074
97 3 O -2.0185 17.6786 3.18632 -1.2 1 0.00188518 0.00297315 0.00170355 0.00392598 0.00241773 0.00741199 0.00205911 0.021983 0.00244658 0.00774233 0.00218988 0.0273345 0.00329279 0.0162398 0.00441794 0.0296816 0.00487847 0.0174354 0.00501347 0.0495653
98 3 O -2.06164 17.6786 5.78248 -1.2 1 0.00262545 0.00385046 0.00160323 0.00431697 0.00295762 0.00670069 0.00243395 0.0217821 0.00253072 0.00734875 0.00267203 0.0268274 0.00349106 0.0164315 0.00470967 0.0306101 0.00576181 0.020045 0.00591899 0.0505853
99 1 Mg 1.39817 16.6215 2.9896 1.2 1 0.00153127 0.00272991 0.00132142 0.00446618 0.0025986 0.0081973 0.00243395 0.0213322 0.00245069 0.00793842 0.00207632 0.0286104 0.00290006 0.0163086 0.00332331 0.0294418 0.00380698 0.0165575 0.00417347 0.048997
100 1 Mg 4.20062 16.5802 4.4844 1.2 1 0.00226842 0.00333905 0.00166216 0.00431519 0.00264431 0.00743342 0.00238862 0.0216032 0.00310341 0.007411 0.00255953 0.0281561 0.00300131 0.0171466 0.00530241 0.0298779 0.00592015 0.0183828 0.00571672 0.0498681
101 2 Si 2.37796 18.645 4.4844 2.4 1 0.00193907 0.00321861 0.00146324 0.00461859 0.00300271 0.0078383 0.00286249 0.0221018 0.00259522 0.00764988 0.00252116 0.0275 0.00361732 0.0167473 0.0044612 0.0288637 0.00498519 0.0181256 0.0053178 0.0506337
102 3 O 2.39434 20.2583 4.4844 -1.2 1 0.00237467 0.00367326 0.0013828 0.00438345 0.00298 0.00696956 0.00263455 0.0210621 0.00294865 0.00696882 0.00198887 0.0280101 0.00317986 0.0161726 0.00412546 0.0294507 0.00557801 0.0181659 0.00600578 0.0501661
103 3 O -4.24274 17.671 4.4844 -1.2 1 0.00180858 0.0036528 0.00174715 0.00440752 0.00285715 0.00846468 0.00261993 0.0219461 0.00273388 0.0075555 0.00224074 0.027918 0.00339718 0.016291 0.00470948 0.0294578 0.00563059 0.018733 0.00614001 0.0491642
104 3 O 3.08659 17.9389 3.18632 -1.2 1 0.00181656 0.00268694 0.00127021 0.00411572 0.0025982 0.00769752 0.00202977 0.0220294 0.00240616 0.00783365 0.00208702 0.0273967 0.00315818 0.0161276 0.00427641 0.0293278 0.0051994 0.017406 0.00508218 0.0498054
105 1 Mg 1.44478 16.6215 0 1.2 1 0.00156458 0.00257841 0.000983621 0.00426232 0.00115522 0.00880008 0.00102169 0.0214065 0.00128278 0.00792301 0.00141578 0.0279493 0.00233776 0.0155846 0.00234914 0.0295218 0.00269637 0.0159138 0.00279849 0.0486498
106 3 O 3.0436 17.9389 5.78248 -1.2 1 0.00239731 0.00392726 0.00154587 0.00449192 0.00284331 0.00703243 0.00246548 0.0218144 0.00233915 0.00753116 0.00271956 0.0267886 0.00377296 0.0163191 0.00473509 0.0299487 0.00575406 0.0204264 0.00578234 0.0501385
107 1 Mg -1.40524 16.6628 1.4948 1.2 1 0.000852259 0.00277937 0.00126669 0.00453911 0.0016393 0.00851227 0.00178176 0.0220934 0.00182272 0.00801461 0.00181533 0.0280619 0.00300051 0.0164374 0.0028577 0.0294251 0.00283813 0.0164055 0.0027736 0.0489785
108 2 Si 0.420358 14.5979 1.4948 2.4 1 0.00131051 0.0027124 0.00121003 0.00483801 0.00196262 0.00887068 0.00171808 0.0214282 0.00154991 0.00808531 0.00120494 0.0281387 0.00288928 0.0162092 0.00356383 0.0289243 0.00327105 0.0160427 0.00307018 0.0489483
109 3 O 0.408732 12.9847 1.4948 -1.2 1 0.00110441 0.00279949 0.00127116 0.00472757 0.00183224 0.0088704 0.00146656 0.0212311 0.00199177 0.00836901 0.00152886 0.0287311 0.00313585 0.0156343 0.00329858 0.0301327 0.00295492 0.0166571 0.00342196 0.0490939
110 3 O 7.03923 15.572 1.4948 -1.2 1 0.00116588 0.00282836 0.00127097 0.00458804 0.00188052 0.00806379 0.00208141 0.0216378 0.00209532 0.00791893 0.00137405 0.0290187 0.00250057 0.0161309 0.00267825 0.0298173 0.00305324 0.0165205 0.00362534 0.0491279
111 3 O -0.248332 15.3041 0.196716 -1.2 1 0.00100687 0.00266383 0.000939919 0.00454864 0.00114321 0.00880161 0.00185791 0.0212395 0.0011886 0.00802209 0.00154594 0.0275712 0.00285527 0.0157541 0.00346812 0.0293374 0.00275615 0.0159614 0.00310155 0.0486423
112 3 O -0.289436 15.3041 2.79288 -1.2 1 0.0023535 0.00299697 0.00108759 0.00445033 0.0024045 0.00837332 0.00168993 0.0219875 0.00171586 0.00842644 0.00179439 0.0273911 0.00272321 0.0161698 0.00341271 0.0298415 0.00412624 0.0173042 0.00438166 0.0493562
113 1 Mg 6.59566 18.996 0 1.2 1 0.000975945 0.00253025 0.00122656 0.00404486 0.0010109 0.00842934 0.00102136 0.0220407 0.0012855 0.00762437 0.00144148 0.0277167 0.00206557 0.0160965 0.00219414 0.0286611 0.00259632 0.0156369 0.00249533 0.0483944
114 1 Mg 3.85574 23.7037 1.4948 1.2 1 0.00195792 0.00262463 0.00119203 0.00433888 0.00152342 0.00749797 0.00124757 0.023251 0.00184149 0.00744784 0.00207596 0.0271756 0.00249445 0.0171942 0.00362735 0.0283451 0.00331143 0.017405 0.00340691 0.0499814
115 2 Si 5.66125 21.0195 1.4948 2.4 1 0.00122685 0.00202783 0.00108196 0.00418756 0.00176551 0.00818815 0.00141191 0.021836 0.0013066 0.00735371 0.00163512 0.0279549 0.002429 0.0169595 0.0026732 0.0281447 0.00345447 0.0159442 0.00367999 0.0496807
116 3 O 5.72074 22.6328 1.4948 -1.2 1 0.00180053 0.00221108 0.0015051 0.00426186 0.0016808 0.00816415 0.00163255 0.0224381 0.00195016 0.00721148 0.00136707 0.0278831 0.00221297 0.0170529 0.0027894 0.0283756 0.00327846 0.0165189 0.00361478 0.0495981
117 3 O 2.03867 20.0455 1.4948 -1.2 1 0.00102218 0.00278103 0.00126943 0.00421945 0.00170943 0.00774408 0.00196111 0.0221249 0.00199903 0.0072875 0.00148533 0.0282808 0.00231682 0.0170293 0.00239021 0.0288141 0.00335717 0.0161297 0.00354495 0.0498981
118 3 O 4.96004 20.3134 0.196716 -1.2 1 0.00154182 0.00180744 0.00112092 0.00404111 0.000991802 0.00822176 0.00121743 0.0217858 0.00106838 0.00730865 0.00151759 0.0273116 0.00253662 0.0163263 0.0036775 0.0286723 0.00273981 0.0151593 0.00269935 0.0490058
119 1 Mg 6.55057 18.996 2.9896 1.2 1 0.000888228 0.00303951 0.00115023 0.00417756 0.00237707 0.00814002 0.00264122 0.0210596 0.00238969 0.00767624 0.00177192 0.0287045 0.00282337 0.0166415 0.00285349 0.0286176 0.00382671 0.0168465 0.00453393 0.0489872