ITEM: TIMESTEP
36100
ITEM: NUMBER OF ATOMS
10500
ITEM: BOX BOUNDS xy xz yz pp pp pp
0	15.2977	5.09925
0	118.725	0
0	89.688	0
ITEM: ATOMS id type element xu yu zu q Q_1 Q_2 Q_3 Q_4 Q_5 Q_6 Q_7 Q_8 Q_9 Q_10 Q_11 Q_12 Q_13 Q_14 Q_15 Q_16 Q_17 Q_18 Q_19 Q_20 Q_21
1 1 Mg 6.2404 -6.37941e-06 0 1.2 1 0.00155063 0.00455759 0.00123622 0.00481662 0.00103927 0.00562609 0.00215292 0.0160407 0.00211094 0.00559761 0.00218757 0.0215212 0.00256994 0.0135378 0.00341007 0.0203863 0.00407729 0.0142248 0.00410622 0.0403995
2 1 Mg 3.46349 4.70768 1.4948 1.2 1 0.00109609 0.00373253 0.00170273 0.0044102 0.0019083 0.0061422 0.00342752 0.0185098 0.00279168 0.00677162 0.0027763 0.0253303 0.00309546 0.0139051 0.0042016 0.0252389 0.00565476 0.0171033 0.00567967 0.0435541
3 2 Si 5.2885 2.02354 1.4948 2.4 1 0.000552446 0.00399761 0.00216789 0.00464632 0.00157747 0.00574862 0.00244608 0.0168839 0.0023195 0.00588324 0.0019506 0.0228735 0.00284296 0.0135632 0.00370227 0.0213342 0.00400959 0.0152807 0.00417195 0.0411355
4 3 O 5.33628 3.63678 1.4948 -1.2 1 0.000681332 0.00329604 0.0017103 0.00489576 0.00199266 0.00623197 0.00289245 0.0176697 0.00231361 0.00656351 0.00186551 0.0248539 0.00251795 0.01375 0.00427327 0.0238941 0.00533373 0.0162415 0.00558705 0.0427596
5 3 O 1.67294 1.04952 1.4948 -1.2 1 0.00151405 0.00377384 0.00194015 0.004254 0.00116657 0.0056534 0.00237392 0.0166211 0.00231903 0.00581152 0.00208641 0.0223076 0.00261996 0.0128951 0.00331813 0.0215435 0.00460435 0.0156784 0.00468861 0.0401191
6 3 O 4.59532 1.31737 0.196716 -1.2 1 0.00111244 0.00366478 0.00193542 0.00437409 0.0017122 0.00565458 0.00242974 0.0169623 0.00267722 0.00601896 0.0019542 0.0219754 0.00322684 0.012836 0.00424768 0.0213402 0.00404781 0.0148899 0.00447558 0.040778
7 1 Mg 6.18956 -6.37941e-06 2.9896 1.2 1 0.000429231 0.00498376 0.00169834 0.00423241 0.00123091 0.00576453 0.002251 0.0159282 0.00260506 0.00531041 0.00190373 0.0219055 0.0026981 0.01331 0.00383316 0.0202045 0.00432882 0.0146416 0.00454399 0.0390798
8 3 O 4.55118 1.31737 2.79288 -1.2 1 0.000742926 0.00485262 0.00216951 0.0043982 0.00173207 0.00594365 0.00234628 0.0167012 0.00251161 0.00660385 0.0023189 0.0213643 0.00321091 0.0123304 0.00351797 0.0212806 0.00492884 0.0153503 0.00507374 0.0400703
9 1 Mg -1.20682 0.0413099 4.4844 1.2 1 0.00084782 0.00306029 0.00196398 0.00470035 0.00122526 0.00565081 0.00206417 0.0159691 0.00230603 0.00556547 0.00193737 0.021866 0.00286755 0.0116184 0.00360831 0.0202459 0.0054574 0.0157572 0.00518715 0.0391733
10 2 Si -3.0337 2.72544 4.4844 2.4 1 0.00103106 0.00398435 0.00198886 0.00478852 0.00204535 0.00611548 0.00306369 0.0162225 0.0030789 0.00606177 0.00223577 0.0234359 0.00308002 0.0131678 0.00387593 0.0219652 0.00574349 0.0174334 0.00638621 0.0398379
11 3 O -3.08099 1.11221 4.4844 -1.2 1 0.00122917 0.00419632 0.0020167 0.00437196 0.0013713 0.0055781 0.00227561 0.0157552 0.00276201 0.00532686 0.00223685 0.0219306 0.00298422 0.0114278 0.00371581 0.0208263 0.00522955 0.016262 0.00544406 0.0386158
12 3 O 0.582463 3.69946 4.4844 -1.2 1 0.00193071 0.00448598 0.0019025 0.00437897 0.00247596 0.00666282 0.00343707 0.016987 0.00336803 0.00639891 0.00307485 0.0245464 0.00406089 0.0131482 0.00448244 0.0240779 0.00743634 0.0181638 0.00808565 0.0416842
13 3 O -2.29524 3.43162 3.18632 -1.2 1 0.000917121 0.0034637 0.00254186 0.004648 0.0020807 0.00607715 0.00288618 0.0175404 0.00305752 0.00655608 0.00267763 0.024192 0.0031791 0.0131265 0.0047081 0.0239809 0.00639009 0.0175011 0.00664113 0.0421201
14 3 O -2.34216 3.43162 5.78248 -1.2 1 0.00202316 0.00410867 0.00138822 0.00475127 0.00270012 0.00605914 0.00313107 0.0166085 0.00307667 0.00690206 0.00282581 0.0228821 0.00414093 0.0127108 0.00404006 0.0229552 0.00673007 0.0187537 0.00781483 0.0401974
15 1 Mg 1.12778 2.37449 2.9896 1.2 1 0.00112107 0.00406776 0.00223304 0.00454557 0.00211067 0.00594805 0.00285997 0.0164604 0.00273418 0.00593254 0.00244953 0.0231595 0.00312952 0.0130304 0.00350776 0.021681 0.00508913 0.0162867 0.00546391 0.0406746
16 1 Mg 3.92855 2.33318 4.4844 1.2 1 0.00135397 0.00467741 0.00157174 0.00416709 0.00170219 0.00567945 0.00325718 0.0166094 0.00313498 0.00580458 0.00300522 0.0226331 0.00370149 0.013628 0.00526178 0.0216552 0.00660938 0.0168256 0.0070567 0.0403584
17 2 Si 2.09341 4.39804 4.4844 2.4 1 0.00163431 0.00422729 0.00193901 0.00409226 0.00299131 0.00613101 0.0037249 0.0178087 0.00339003 0.00664337 0.00344139 0.0242198 0.00434662 0.0142634 0.00437385 0.0242787 0.00710454 0.0180412 0.00831063 0.0429897
18 3 O 2.09991 6.01128 4.4844 -1.2 1 0.00251476 0.00469149 0.00139149 0.00391987 0.00285284 0.00664311 0.00319338 0.0188275 0.00285142 0.00721575 0.00318897 0.0262263 0.00391542 0.0145794 0.00473336 0.027174 0.00710358 0.0190663 0.00828842 0.0447951
19 3 O -4.52137 3.42402 4.4844 -1.2 1 0.00124256 0.004344 0.00232506 0.00435079 0.00214616 0.00704494 0.00333732 0.0167142 0.00343393 0.00612505 0.00310372 0.0230722 0.00375565 0.0129728 0.00420062 0.0225165 0.00674153 0.0172543 0.00779442 0.0410799
20 3 O 2.80834 3.69187 3.18632 -1.2 1 0.00127073 0.00401048 0.00166282 0.00364411 0.00197021 0.00599899 0.00299701 0.0171646 0.00294316 0.00616171 0.00292839 0.0237894 0.0035396 0.0131925 0.0047344 0.0236649 0.00600848 0.0168435 0.00643338 0.0423047
21 1 Mg 1.17857 2.37449 0 1.2 1 0.00206487 0.00390897 0.00209774 0.0041196 0.00138282 0.00552146 0.00248928 0.0170553 0.00233246 0.00656605 0.00279053 0.0229069 0.00294141 0.013223 0.00345212 0.0214281 0.00433556 0.0149942 0.00465345 0.0406518
22 3 O 2.76143 3.69187 5.78248 -1.2 1 0.00183614 0.00470685 0.00183348 0.00387281 0.00208554 0.00567508 0.00265923 0.0173879 0.00314972 0.00685905 0.0029229 0.0226374 0.00457637 0.0131425 0.0053311 0.022994 0.00707283 0.0183003 0.00790431 0.0411808
23 1 Mg -1.67381 2.41581 1.4948 1.2 1 0.00116299 0.00333387 0.00263864 0.00488895 0.00137856 0.00614565 0.00240381 0.0164817 0.00260954 0.00612652 0.00188947 0.0236429 0.00256594 0.0142001 0.00274669 0.0220204 0.00444749 0.0161006 0.00486506 0.0414266
24 2 Si 0.16286 0.350945 1.4948 2.4 1 0.00176914 0.00321552 0.00266191 0.00459368 0.00105325 0.00630644 0.00279034 0.0163108 0.00209549 0.0051004 0.00190351 0.0224996 0.00245087 0.0135318 0.00304963 0.020485 0.00458666 0.0149278 0.00430329 0.0402397
25 3 O 0.15972 -1.26229 1.4948 -1.2 1 0.00161064 0.00300133 0.00283371 0.00467809 0.00168471 0.00609083 0.00251753 0.0161971 0.00231767 0.00519897 0.00236803 0.0224738 0.00256093 0.0139689 0.00314269 0.0215165 0.00419188 0.014867 0.00384681 0.0406617
26 3 O 6.77654 1.32496 1.4948 -1.2 1 0.000885288 0.00429712 0.00172955 0.00470925 0.00119573 0.00602972 0.00235282 0.016596 0.00242497 0.0052802 0.00171377 0.0232939 0.00280567 0.0136038 0.00343639 0.0214862 0.00459769 0.0152732 0.00432269 0.0407566
27 3 O -0.508028 1.05712 0.196716 -1.2 1 0.00180017 0.00327127 0.00326673 0.00429075 0.00129265 0.00556757 0.00238697 0.0167844 0.00165471 0.0065044 0.00253923 0.0218061 0.00281446 0.012868 0.00309962 0.0208733 0.00418306 0.0151841 0.00435605 0.0399222
28 3 O -0.552171 1.05712 2.79288 -1.2 1 0.000673545 0.00301397 0.00272141 0.00463371 0.00136111 0.00626139 0.00227963 0.0161404 0.00246466 0.00590341 0.00191501 0.0224037 0.00276309 0.0120017 0.00369228 0.0212613 0.00553244 0.0157818 0.00486456 0.0399253
29 1 Mg 6.31713 4.74899 0 1.2 1 0.00080963 0.00324936 0.00188386 0.0047112 0.00221852 0.00627463 0.0032064 0.0180145 0.00291391 0.00699996 0.00211845 0.0248874 0.00285362 0.0140357 0.00419127 0.0245422 0.00485751 0.0164604 0.00597458 0.0427836
30 1 Mg 3.54847 9.45668 1.4948 1.2 1 0.00144403 0.00364476 0.00196915 0.00478326 0.00197567 0.00772837 0.00305339 0.0213256 0.00166102 0.00836528 0.00219084 0.028243 0.00309679 0.0158657 0.00351235 0.0293 0.00442421 0.0182933 0.00391595 0.0483797
31 2 Si 5.36879 6.77254 1.4948 2.4 1 0.000911177 0.00354902 0.00212432 0.00525074 0.00257821 0.00703404 0.00370702 0.019617 0.00269704 0.0077442 0.00236271 0.0273303 0.00310735 0.0156185 0.00421908 0.0270742 0.00488382 0.0172833 0.00531018 0.0463846
32 3 O 5.41937 8.38578 1.4948 -1.2 1 0.00132215 0.00357579 0.00182823 0.00522747 0.00212211 0.00776979 0.00308668 0.0209986 0.00219379 0.00835135 0.00232392 0.0287753 0.00234032 0.0159115 0.00310735 0.0292452 0.00479465 0.017532 0.00479903 0.0477622
33 3 O 1.75158 5.79852 1.4948 -1.2 1 0.00109193 0.00385896 0.00193207 0.00410122 0.0024 0.00607258 0.0033057 0.0194971 0.00278128 0.00718091 0.00251276 0.0275117 0.00298026 0.0157716 0.00346765 0.0268432 0.00557045 0.0175794 0.00557167 0.0455221
34 3 O 4.67421 6.06637 0.196716 -1.2 1 0.000779369 0.00354851 0.0017228 0.00484537 0.0018763 0.00701597 0.0029593 0.0196572 0.00246238 0.00813835 0.00210428 0.025997 0.00356178 0.0146424 0.0042123 0.0266635 0.0049714 0.0167001 0.00562027 0.0449422
35 1 Mg 6.26654 4.74899 2.9896 1.2 1 0.00147515 0.00359928 0.00215289 0.00492177 0.00255924 0.00669168 0.00356468 0.0176995 0.00364289 0.00698303 0.00218484 0.0254006 0.00348927 0.0145989 0.0049646 0.0247193 0.00623182 0.0173413 0.00694163 0.0432945
36 3 O 4.63043 6.06637 2.79288 -1.2 1 0.00214647 0.00382592 0.00172842 0.00490251 0.00226058 0.00687435 0.00328917 0.01932 0.00333343 0.00780794 0.00245989 0.0257543 0.00367637 0.0147508 0.00450959 0.0272071 0.00612111 0.0180317 0.00702622 0.0452315
37 1 Mg -1.12976 4.79031 4.4844 1.2 1 0.00225153 0.00408075 0.00174096 0.00474664 0.00224965 0.0063828 0.00315468 0.0174701 0.00340218 0.00697506 0.00298786 0.0252959 0.00400064 0.0145578 0.00458229 0.0253249 0.00782208 0.0185674 0.00823191 0.0436234
38 2 Si -2.9517 7.47444 4.4844 2.4 1 0.00257234 0.0043171 0.00127357 0.00503647 0.00288806 0.00683122 0.00380218 0.0200103 0.00309402 0.0080531 0.00284005 0.0268834 0.00436242 0.0162078 0.00534965 0.0278594 0.00702373 0.0191337 0.00796243 0.0468991
39 3 O -3.00198 5.86121 4.4844 -1.2 1 0.00232345 0.00456741 0.000922125 0.00470064 0.00304286 0.00655666 0.00398757 0.0184977 0.00359187 0.00761437 0.00274268 0.0252688 0.00431201 0.0142999 0.00469229 0.0266467 0.00737617 0.0192675 0.00853434 0.0447907
40 3 O 0.666315 8.44846 4.4844 -1.2 1 0.00299397 0.00507185 0.00120916 0.00489419 0.00283915 0.00764434 0.00283789 0.0209963 0.0030175 0.00794037 0.00313034 0.0279707 0.00429637 0.016117 0.00445743 0.0292196 0.0064525 0.0195844 0.00780938 0.0482636
41 3 O -2.21213 8.18062 3.18632 -1.2 1 0.00245789 0.00429545 0.00153682 0.00460096 0.00250539 0.00653323 0.00277169 0.0206328 0.00272168 0.00815174 0.00267604 0.0273576 0.00415552 0.0161789 0.00487936 0.0289682 0.00588474 0.0185867 0.00661343 0.0482068
42 3 O -2.25864 8.18062 5.78248 -1.2 1 0.00338388 0.00509322 0.00133911 0.00450923 0.00293313 0.00634673 0.00297236 0.0203149 0.00253033 0.00845308 0.00342555 0.0263495 0.00426821 0.016588 0.00534028 0.029203 0.0072042 0.0207742 0.00831139 0.0483449
43 1 Mg 1.20893 7.12349 2.9896 1.2 1 0.00194414 0.00428959 0.00163016 0.00441419 0.00274633 0.00689803 0.00373469 0.0194795 0.00280251 0.00803019 0.00267291 0.0276429 0.00339419 0.0159551 0.00377263 0.02753 0.00567679 0.0183133 0.00643319 0.0466125
44 1 Mg 4.00982 7.08218 4.4844 1.2 1 0.00240443 0.00451208 0.00130852 0.00467853 0.00255753 0.00674685 0.00360328 0.0199285 0.00347117 0.00795106 0.00340593 0.0265442 0.00407165 0.0168113 0.00572447 0.0279694 0.00734344 0.0190511 0.00829692 0.0468748
45 2 Si 2.17861 9.14704 4.4844 2.4 1 0.00298105 0.00458017 0.00134323 0.00489751 0.00283228 0.00759755 0.00370492 0.0210088 0.00287724 0.00815486 0.00319427 0.0279099 0.00448049 0.016638 0.00448405 0.0295013 0.00599329 0.0196778 0.00716927 0.0498379
46 3 O 2.18828 10.7603 4.4844 -1.2 1 0.00369257 0.00479797 0.00167363 0.00468346 0.00265482 0.00731152 0.00290561 0.0206854 0.00238944 0.00809727 0.0023127 0.0283417 0.00417397 0.0157034 0.00444786 0.0305085 0.00589293 0.0199106 0.00674524 0.0504828
47 3 O -4.43805 8.17302 4.4844 -1.2 1 0.00226008 0.00480811 0.00142597 0.0049808 0.00260369 0.00787526 0.00319417 0.0205611 0.00321778 0.00839212 0.00298799 0.0278023 0.00447975 0.0160337 0.00496669 0.0293013 0.00700799 0.0194453 0.00864335 0.0476083
48 3 O 2.89193 8.44087 3.18632 -1.2 1 0.00247754 0.00392373 0.00158938 0.00438069 0.00241394 0.00708344 0.00337393 0.0204608 0.00293588 0.00851184 0.00294181 0.0272425 0.00379113 0.0158953 0.00472448 0.0290553 0.00612158 0.0188178 0.0060213 0.0482186
49 1 Mg 1.25915 7.12349 0 1.2 1 0.00073635 0.00363476 0.00172076 0.00424991 0.00177367 0.00732757 0.00289573 0.0202341 0.00275126 0.00817653 0.00247053 0.0273126 0.00330497 0.0148624 0.00342693 0.027754 0.00476549 0.0175057 0.00460531 0.0458945
50 3 O 2.84547 8.44087 5.78248 -1.2 1 0.0030067 0.00526688 0.00127146 0.00444516 0.0025566 0.00684753 0.00318704 0.0205181 0.00307241 0.00871823 0.00340254 0.0263013 0.00529931 0.0163781 0.00512845 0.0293659 0.00643928 0.0207588 0.00777627 0.0485315
51 1 Mg -1.59284 7.16481 1.4948 1.2 1 0.00126565 0.00370307 0.00143929 0.00473375 0.00179877 0.00646475 0.00268117 0.0199468 0.00286052 0.00778889 0.0017405 0.0274924 0.00322069 0.0159535 0.0037095 0.0272657 0.00472002 0.0175832 0.00558416 0.0465064
52 2 Si 0.240329 5.09994 1.4948 2.4 1 0.000867946 0.00425342 0.00212484 0.0042076 0.00191022 0.00694048 0.00318755 0.0188353 0.00303552 0.00711029 0.0022364 0.0256269 0.00287625 0.01485 0.00401721 0.0246654 0.00537791 0.0169996 0.00521693 0.0444168
53 3 O 0.234538 3.48671 1.4948 -1.2 1 0.00154993 0.00422336 0.00258764 0.00436467 0.00180387 0.00653005 0.0026177 0.0177544 0.0033054 0.00667032 0.00232045 0.0241971 0.00329398 0.0136579 0.00381635 0.0238338 0.00563857 0.0160599 0.00543496 0.0423235
54 3 O 6.85564 6.07396 1.4948 -1.2 1 0.0011892 0.00309521 0.00232882 0.00499176 0.00241364 0.00613147 0.00303915 0.0198356 0.00305118 0.00751795 0.00213514 0.0274426 0.00314358 0.0149657 0.00471062 0.0268766 0.00571595 0.0174959 0.00614997 0.045301
55 3 O -0.429565 5.80612 0.196716 -1.2 1 0.000884298 0.00387111 0.00233239 0.00410815 0.00179956 0.00723629 0.00258495 0.0195773 0.00277009 0.00829193 0.00238158 0.0254885 0.00264789 0.0145216 0.00378982 0.0258788 0.0050875 0.0168008 0.00573697 0.0450122
56 3 O -0.473377 5.80612 2.79288 -1.2 1 0.00191297 0.00386638 0.00181054 0.00449554 0.00230176 0.00678818 0.00305507 0.0189662 0.0030821 0.00773989 0.00276739 0.0255329 0.00375296 0.0146863 0.0045348 0.0263919 0.00668304 0.01834 0.00693317 0.0454691
57 1 Mg 6.40169 9.49799 0 1.2 1 0.000251565 0.00411844 0.00166945 0.00489986 0.00154046 0.00838543 0.00202169 0.0210171 0.00166023 0.00882313 0.00162878 0.0284832 0.00240446 0.0150681 0.00262559 0.0297419 0.00382279 0.0179656 0.0041049 0.0471463
58 1 Mg 3.64209 14.2057 1.4948 1.2 1 0.00180392 0.00335956 0.00158134 0.004789 0.00164986 0.00889069 0.00164716 0.021626 0.00150527 0.00861156 0.00226998 0.0281135 0.00266539 0.0161656 0.00314534 0.0295275 0.00392912 0.016858 0.00382048 0.0491184
59 2 Si 5.45748 11.5215 1.4948 2.4 1 0.00173227 0.00363571 0.00184909 0.00493671 0.00177442 0.00826875 0.00217307 0.0210765 0.00126817 0.00831615 0.0018331 0.0285977 0.00283128 0.0163998 0.00352717 0.0294925 0.00416087 0.0169314 0.00401019 0.0488809
60 3 O 5.51101 13.1348 1.4948 -1.2 1 0.00181322 0.00342665 0.00174739 0.00486072 0.00166773 0.00912992 0.00175812 0.0211219 0.00153494 0.0086173 0.00155975 0.0291085 0.00236478 0.0162567 0.00307484 0.0299445 0.00405578 0.0166705 0.00380459 0.0487814
61 3 O 1.83851 10.5475 1.4948 -1.2 1 0.00132648 0.00396236 0.00164368 0.00506336 0.00170264 0.00787563 0.00238282 0.0216524 0.00176845 0.00830395 0.00221327 0.0290997 0.00254971 0.0161462 0.00317211 0.0299238 0.00430688 0.0178918 0.00353279 0.0489885
62 3 O 4.7611 10.8154 0.196716 -1.2 1 0.000620711 0.00344149 0.00202311 0.00496484 0.00151816 0.00858102 0.00212616 0.0213034 0.00142042 0.00873391 0.00198189 0.0279823 0.00307621 0.0158451 0.00390286 0.029615 0.00381462 0.0171801 0.00368231 0.0481195
63 1 Mg 6.35203 9.49799 2.9896 1.2 1 0.00194668 0.00407452 0.00162722 0.00499602 0.00252779 0.00772235 0.00329416 0.0204697 0.00309807 0.00854261 0.00205159 0.0289428 0.00367193 0.0164642 0.00342424 0.0293501 0.00456566 0.0184672 0.00551988 0.0483604
64 3 O 4.71833 10.8154 2.79288 -1.2 1 0.00275312 0.00391963 0.00149266 0.00480243 0.00206455 0.00840873 0.00217019 0.0213655 0.00202811 0.00880199 0.00210144 0.027978 0.00351407 0.0160967 0.00401957 0.0301471 0.00526855 0.0186258 0.00565782 0.0497407
65 1 Mg -1.0438 9.53931 4.4844 1.2 1 0.0034713 0.00491089 0.00138731 0.00453814 0.00286594 0.00694595 0.00264487 0.0207208 0.00260173 0.00838932 0.00265086 0.0282593 0.00407287 0.0167034 0.00467378 0.0296885 0.00643354 0.0197741 0.00720744 0.0495161
66 2 Si -2.8604 12.2234 4.4844 2.4 1 0.00374902 0.00453289 0.00171894 0.00457908 0.00267681 0.00799896 0.0032223 0.0216606 0.00264257 0.00852456 0.00217024 0.0280344 0.0041135 0.0165841 0.00461487 0.0300056 0.00560229 0.0195196 0.00650967 0.0511133
67 3 O -2.91391 10.6102 4.4844 -1.2 1 0.00359976 0.00474401 0.0016088 0.00442174 0.00276494 0.00734414 0.00324093 0.0205116 0.00263413 0.00794256 0.00197609 0.0282798 0.00420589 0.0160075 0.00447971 0.0306967 0.00585008 0.0196928 0.00669916 0.0501764
68 3 O 0.7596 13.1975 4.4844 -1.2 1 0.00392369 0.00446922 0.00177488 0.00512339 0.00270445 0.008866 0.00254815 0.0220487 0.00268793 0.00841826 0.00276226 0.0286219 0.00414664 0.0163658 0.00430231 0.0299493 0.00581563 0.0196787 0.00658354 0.0510535
69 3 O -2.12001 12.9296 3.18632 -1.2 1 0.00338716 0.00414892 0.00165614 0.00441736 0.00250304 0.00791232 0.00231532 0.0216161 0.00234026 0.00827236 0.00211995 0.0277376 0.00377182 0.0163397 0.00454868 0.0305207 0.00509663 0.0186718 0.00551363 0.0504367
70 3 O -2.16532 12.9296 5.78248 -1.2 1 0.00443765 0.0050565 0.00176546 0.00450477 0.0026609 0.00706848 0.00241742 0.0217639 0.00234135 0.00849104 0.0027413 0.0270897 0.00385883 0.0166604 0.00531545 0.0310432 0.00601177 0.0213144 0.00645701 0.0519588
71 1 Mg 1.29891 11.8725 2.9896 1.2 1 0.00279662 0.00399464 0.00173171 0.00499881 0.00223356 0.00832307 0.00287667 0.0209305 0.00242937 0.00857215 0.00204039 0.0287951 0.00336987 0.0164084 0.00368552 0.0297991 0.00444158 0.0179781 0.00514154 0.0494291
72 1 Mg 4.10033 11.8312 4.4844 1.2 1 0.00343272 0.00449065 0.00193798 0.00450344 0.0024849 0.00764667 0.00279687 0.0211706 0.0025338 0.00840632 0.00256689 0.0285875 0.0038532 0.0173151 0.00504093 0.0300978 0.00647162 0.0194684 0.00635929 0.0508895
73 2 Si 2.27333 13.896 4.4844 2.4 1 0.00347488 0.00392664 0.00165476 0.0051189 0.00289195 0.00815565 0.00330014 0.0217715 0.00248824 0.00831517 0.00269553 0.0280016 0.00377717 0.0165832 0.00444914 0.0298665 0.00540497 0.0194213 0.00611891 0.051903
74 3 O 2.28634 15.5093 4.4844 -1.2 1 0.00382099 0.00396513 0.00177103 0.00466485 0.002912 0.00737572 0.00301519 0.0208442 0.00249997 0.00766933 0.00220509 0.0283757 0.00319462 0.0157917 0.00399018 0.0302827 0.00560555 0.0189932 0.0063934 0.0510478
75 3 O -4.34533 12.922 4.4844 -1.2 1 0.00357148 0.00454799 0.00183703 0.00467641 0.00270959 0.00866172 0.0030926 0.021746 0.00276677 0.00834069 0.00215747 0.0282815 0.00393832 0.0162407 0.0045838 0.0302639 0.00611853 0.0200173 0.00688484 0.0508874
76 3 O 2.98455 13.1899 3.18632 -1.2 1 0.00310427 0.00376336 0.00169298 0.00450612 0.00240894 0.00818714 0.00237047 0.0217137 0.00219796 0.00855309 0.00228215 0.0278348 0.00350346 0.0161169 0.00432233 0.0300768 0.00549041 0.0185537 0.0057595 0.0504929
77 1 Mg 1.34779 11.8725 0 1.2 1 0.000921102 0.00321467 0.00140213 0.00478692 0.00127787 0.00889009 0.00147981 0.021159 0.00134077 0.00896335 0.00192137 0.028612 0.00294007 0.0151341 0.00313585 0.0299731 0.00344711 0.0171438 0.00333024 0.0477854
78 3 O 2.93934 13.1899 5.78248 -1.2 1 0.00420653 0.00463173 0.00146961 0.00478101 0.00251139 0.00731467 0.00271465 0.0217076 0.00250815 0.00830852 0.00295319 0.027092 0.00417969 0.016402 0.00480727 0.0310276 0.00601037 0.0218692 0.00644047 0.0523967
79 1 Mg -1.50344 11.9138 1.4948 1.2 1 0.0013406 0.00387897 0.00140408 0.00456306 0.00148865 0.008374 0.0017918 0.0215685 0.00234231 0.00852243 0.00144397 0.0283607 0.00357093 0.0162583 0.00342163 0.0298114 0.00337114 0.0175918 0.00377945 0.0487453
80 2 Si 0.326006 9.84894 1.4948 2.4 1 0.000984814 0.00390606 0.00137736 0.00511643 0.00176162 0.00824861 0.00208207 0.0211038 0.00212721 0.00829506 0.00152121 0.0282106 0.00292714 0.0160845 0.00359557 0.0289339 0.00381956 0.0177486 0.00355639 0.0483248
81 3 O 0.317364 8.23571 1.4948 -1.2 1 0.00152203 0.00389473 0.00130196 0.00460118 0.00182337 0.0078438 0.00201773 0.0203311 0.00253528 0.00795764 0.0015871 0.0284782 0.00329097 0.016182 0.0037829 0.0286408 0.00448963 0.0177839 0.0041221 0.0474622
82 3 O 6.94307 10.823 1.4948 -1.2 1 0.00136674 0.003945 0.00151775 0.00468351 0.00177649 0.00786848 0.00253111 0.0217689 0.00236143 0.00839085 0.00157119 0.029263 0.0030092 0.0162136 0.0033689 0.0300679 0.0037933 0.0181252 0.00418375 0.0488191
83 3 O -0.343122 10.5551 0.196716 -1.2 1 0.000501973 0.00358537 0.00123329 0.00470454 0.00130132 0.00843925 0.00168463 0.0212645 0.00178051 0.00877975 0.00180797 0.0278604 0.00326081 0.0158413 0.00403474 0.0295124 0.00353475 0.0173803 0.00343104 0.0481627
84 3 O -0.385966 10.5551 2.79288 -1.2 1 0.00285132 0.00413615 0.00127525 0.00473217 0.00252884 0.00830405 0.00209012 0.0213795 0.00196183 0.0088876 0.00231557 0.0275922 0.00367787 0.0160638 0.0040599 0.030147 0.00516832 0.018522 0.00527506 0.0493346
85 1 Mg 6.49448 14.247 0 1.2 1 0.000908673 0.0035384 0.00170481 0.00497879 0.00120692 0.00921303 0.00115903 0.02118 0.00136147 0.00845637 0.00176492 0.0283732 0.0019144 0.0156396 0.00274888 0.0299793 0.00330999 0.0162846 0.00320859 0.0477136
86 1 Mg 3.74457 18.9547 1.4948 1.2 1 0.00173313 0.00297404 0.00146919 0.00388473 0.00177912 0.00850686 0.0013181 0.022198 0.00167376 0.00790309 0.00216829 0.0274535 0.00237071 0.0163587 0.00323519 0.0287422 0.00396322 0.0163369 0.00355917 0.049581
87 2 Si 5.55495 16.2705 1.4948 2.4 1 0.00169758 0.00292169 0.00154185 0.00465054 0.00189037 0.00889322 0.00142274 0.0213125 0.00119328 0.00789247 0.00160762 0.0283576 0.00251932 0.0161848 0.00294405 0.0288267 0.00395269 0.015802 0.00398197 0.0490942
88 3 O 5.6115 17.8838 1.4948 -1.2 1 0.00190496 0.00304403 0.00155728 0.00430924 0.00178321 0.00913025 0.00145574 0.0215839 0.00159224 0.00779023 0.00145296 0.0285166 0.00217554 0.0163852 0.00289802 0.0289315 0.00374897 0.0157209 0.0038102 0.0491871
89 3 O 1.93416 15.2965 1.4948 -1.2 1 0.00182214 0.00323807 0.00154683 0.00462807 0.00176945 0.00839584 0.00191747 0.0218043 0.00170576 0.00807821 0.00152089 0.0288713 0.00217118 0.0161085 0.00313104 0.0296857 0.00414673 0.0164302 0.00374604 0.0494597
90 3 O 4.85636 15.5644 0.196716 -1.2 1 0.00112645 0.00271795 0.00137198 0.00473395 0.00141045 0.00895552 0.00150052 0.0212593 0.00118588 0.00816028 0.00175611 0.0277395 0.00263543 0.0162564 0.00337947 0.0293373 0.00349649 0.0155225 0.00335778 0.0485909
91 1 Mg 6.44662 14.247 2.9896 1.2 1 0.00196528 0.00380759 0.00138571 0.00462565 0.00248817 0.0087099 0.00294962 0.020717 0.00261372 0.00850439 0.00183103 0.0288569 0.00312881 0.0162242 0.00329684 0.0297132 0.00427488 0.0178402 0.0048762 0.0494907
92 3 O 4.81537 15.5644 2.79288 -1.2 1 0.00275157 0.00342123 0.00162511 0.00442165 0.00237368 0.00895341 0.00187922 0.0218039 0.00134962 0.00855452 0.00173847 0.0277978 0.00282523 0.01614 0.00362023 0.0294922 0.00490663 0.0174169 0.00518428 0.0499611
93 1 Mg -0.948271 14.2883 4.4844 1.2 1 0.00398185 0.00407295 0.00155157 0.00450345 0.00267823 0.00802986 0.00276166 0.021342 0.00278745 0.00814759 0.00271957 0.0281368 0.00350093 0.0166981 0.00498969 0.0303616 0.00580654 0.019249 0.00648828 0.0510581
94 2 Si -2.75928 16.9724 4.4844 2.4 1 0.00360204 0.00389558 0.00168629 0.00454211 0.00276418 0.00810682 0.00296974 0.0216704 0.00251801 0.00776863 0.00222683 0.0277177 0.00338924 0.0165739 0.00446891 0.0294109 0.00504123 0.0187725 0.00600178 0.0517034
95 3 O -2.81617 15.3592 4.4844 -1.2 1 0.00415927 0.00421436 0.00184022 0.0044576 0.00288998 0.00788514 0.00297559 0.0208493 0.0026797 0.00760036 0.00217131 0.0282908 0.00337273 0.0158142 0.004358 0.0302159 0.00592232 0.0190541 0.00644263 0.0511212
96 3 O 0.862762 17.9465 4.4844 -1.2 1 0.00351494 0.00384159 0.00142184 0.00452878 0.0029406 0.00845098 0.00269636 0.0220925 0.00263997 0.0077509 0.00230224 0.0281514 0.0035056 0.0165294 0.0043271 0.0290364 0.00564008 0.0191674 0.006202 0.0510188
97 3 O -2.0185 17.6786 3.18632 -1.2 1 0.00316458 0.00348494 0.00170741 0.00398204 0.00255473 0.00764369 0.00221525 0.0220487 0.00224393 0.00771217 0.00209348 0.0273236 0.00336151 0.0163097 0.00459529 0.0296718 0.00508647 0.0178398 0.00529098 0.0507501
98 3 O -2.06164 17.6786 5.78248 -1.2 1 0.00444321 0.00422432 0.00146135 0.00439034 0.00270908 0.00713286 0.00263576 0.0218574 0.0025018 0.00779735 0.00251945 0.0271684 0.00319329 0.0167257 0.00481929 0.0303375 0.00593612 0.0209107 0.0063414 0.0531403
99 1 Mg 1.39817 16.6215 2.9896 1.2 1 0.00262989 0.00352145 0.00180463 0.00468173 0.00252827 0.00855898 0.00266213 0.0212752 0.00248294 0.00819563 0.0018617 0.0286048 0.00268463 0.0163411 0.00376468 0.0292089 0.00447881 0.0169196 0.00472314 0.0498075
100 1 Mg 4.20062 16.5802 4.4844 1.2 1 0.00348612 0.00374467 0.0019514 0.00445641 0.00266862 0.0078174 0.00262414 0.021462 0.00283211 0.00768595 0.00272678 0.0283932 0.00343564 0.0171529 0.00521976 0.0296101 0.00615923 0.0190072 0.00619103 0.0513603
101 2 Si 2.37796 18.645 4.4844 2.4 1 0.00285723 0.00325637 0.0014981 0.00464036 0.00290982 0.00798912 0.00290435 0.0221984 0.00254296 0.00779398 0.00241949 0.0276054 0.00324266 0.0167448 0.00446285 0.0290098 0.00550286 0.0185896 0.00579537 0.0521602
102 3 O 2.39434 20.2583 4.4844 -1.2 1 0.0030171 0.00326538 0.0013054 0.00432641 0.00288961 0.00693177 0.00274747 0.0211987 0.00262594 0.00719658 0.00192213 0.0283022 0.00310617 0.016453 0.00397763 0.0294169 0.00564157 0.0182193 0.00645917 0.0515149
103 3 O -4.24274 17.671 4.4844 -1.2 1 0.00316514 0.00405942 0.00186148 0.00449323 0.00269768 0.00881128 0.00287092 0.0220613 0.00280512 0.00782297 0.00232086 0.028182 0.00311786 0.0162834 0.00489365 0.0295526 0.00600396 0.0192043 0.00649763 0.0513041
104 3 O 3.08659 17.9389 3.18632 -1.2 1 0.00284453 0.00297136 0.00168601 0.00414598 0.00263579 0.00794176 0.00203564 0.0220793 0.00231657 0.00785121 0.00209333 0.0275341 0.00293885 0.0162095 0.00404461 0.029148 0.00541306 0.0175776 0.00551896 0.0506503
105 1 Mg 1.44478 16.6215 0 1.2 1 0.00169425 0.00271303 0.00103412 0.004464 0.00139211 0.00896229 0.00112557 0.0214678 0.00138481 0.00817143 0.0017313 0.028275 0.00234935 0.015691 0.00255586 0.029267 0.0033151 0.0157479 0.00332949 0.0484019
106 3 O 3.0436 17.9389 5.78248 -1.2 1 0.00364845 0.00377441 0.00158238 0.00460483 0.00262829 0.00723637 0.00265506 0.0218519 0.00232705 0.00789277 0.00275435 0.0271296 0.00339985 0.0164497 0.00477164 0.0303965 0.00603373 0.0211819 0.00620866 0.0524686
107 1 Mg -1.40524 16.6628 1.4948 1.2 1 0.00138894 0.00328414 0.00140235 0.00469916 0.00173083 0.00871897 0.00182442 0.0221036 0.00198437 0.00812477 0.00170725 0.028013 0.00312087 0.0165444 0.00330723 0.0292682 0.00334146 0.0164459 0.00355941 0.0490786
108 2 Si 0.420358 14.5979 1.4948 2.4 1 0.00153822 0.00317209 0.00152893 0.00493262 0.00188629 0.00914871 0.001769 0.0213287 0.00167012 0.00823328 0.00157314 0.0283355 0.00302896 0.0164312 0.00372031 0.0288285 0.0037148 0.0163253 0.00372057 0.0489539
109 3 O 0.408732 12.9847 1.4948 -1.2 1 0.00176666 0.003271 0.00131751 0.00492101 0.00167139 0.00915055 0.00140487 0.0211043 0.00226243 0.00841059 0.00138455 0.0288306 0.00312905 0.0161935 0.00315619 0.0297303 0.00327936 0.0168719 0.00379424 0.0488229
110 3 O 7.03923 15.572 1.4948 -1.2 1 0.00151384 0.00339496 0.00135814 0.00470686 0.00191885 0.00838582 0.00214216 0.0216565 0.00221439 0.00796178 0.00177969 0.0288629 0.00281826 0.0161733 0.00313098 0.0296408 0.00376324 0.0167091 0.00410811 0.049172
111 3 O -0.248332 15.3041 0.196716 -1.2 1 0.00134439 0.00290824 0.00103128 0.00476066 0.00104287 0.00920152 0.00175117 0.0212751 0.00132806 0.00824781 0.00201761 0.0276741 0.00293014 0.0157702 0.00405948 0.0291298 0.00360143 0.0158679 0.00359943 0.0482821
112 3 O -0.289436 15.3041 2.79288 -1.2 1 0.00319646 0.00352744 0.0013267 0.00457633 0.00238214 0.00881735 0.00201013 0.0219152 0.00170181 0.00862104 0.00197404 0.0272883 0.00319252 0.0164948 0.00378444 0.0295649 0.00462871 0.017534 0.00475986 0.0499449
113 1 Mg 6.59566 18.996 0 1.2 1 0.000746177 0.00293543 0.00144605 0.00430967 0.00101056 0.00853932 0.00105904 0.0219766 0.00130945 0.00776606 0.00158028 0.0278602 0.0023084 0.0163529 0.00260713 0.0286554 0.00313609 0.0155917 0.00311789 0.04831
114 1 Mg 3.85574 23.7037 1.4948 1.2 1 0.0016988 0.00223112 0.00115663 0.00389586 0.00169586 0.00745476 0.00125787 0.0231618 0.00155342 0.00742379 0.00235952 0.0271523 0.00242682 0.0176202 0.00365968 0.0283702 0.00365235 0.0170226 0.0034751 0.0507251
115 2 Si 5.66125 21.0195 1.4948 2.4 1 0.00177852 0.00241106 0.00114278 0.00395331 0.00193221 0.00811186 0.00150251 0.0218888 0.00121213 0.00737358 0.00163988 0.0279004 0.00254955 0.0172365 0.00278132 0.0280013 0.00378856 0.0156887 0.00419441 0.0500247
116 3 O 5.72074 22.6328 1.4948 -1.2 1 0.00196907 0.00240938 0.00158858 0.00393321 0.00179172 0.00817531 0.00160289 0.0223882 0.00165868 0.00713009 0.00135519 0.0278852 0.00218286 0.0173516 0.00295407 0.0283238 0.00366824 0.0161439 0.00372209 0.050121
117 3 O 2.03867 20.0455 1.4948 -1.2 1 0.00143215 0.00280053 0.00150863 0.00421062 0.00184977 0.00773979 0.00191206 0.0223775 0.0020497 0.00733034 0.00153386 0.0283656 0.00218872 0.0170345 0.00283409 0.0287997 0.00399551 0.0158779 0.00368582 0.0501955
118 3 O 4.96004 20.3134 0.196716 -1.2 1 0.00150933 0.0020621 0.00146102 0.003917 0.00121533 0.00825046 0.00122086 0.0218479 0.00103081 0.00745515 0.00157968 0.0275172 0.00268627 0.0165987 0.00357691 0.0286343 0.00320548 0.0149741 0.00316543 0.0491335
119 1 Mg 6.55057 18.996 2.9896 1.2 1 0.00190216 0.00339835 0.00133617 0.00417059 0.00247739 0.008229 0.00276757 0.0213041 0.00247916 0.00774921 0.00179602 0.0286118 0.00275802 0.0165011 0.00309421 0.0287845 0.0043897 0.0171834 0.00492259 0.0500606