ITEM: TIMESTEP
52000
ITEM: NUMBER OF ATOMS
10500
ITEM: BOX BOUNDS xy xz yz pp pp pp
0	15.2977	5.09925
0	118.725	0
0	89.688	0
ITEM: ATOMS id type element xu yu zu q Q_1 Q_2 Q_3 Q_4 Q_5 Q_6 Q_7 Q_8 Q_9 Q_10 Q_11 Q_12 Q_13 Q_14 Q_15 Q_16 Q_17 Q_18 Q_19 Q_20 Q_21
1 1 Mg 6.2404 -6.37941e-06 0 1.2 1 0.00113959 0.00424085 0.00159287 0.00475568 0.00132168 0.00576488 0.00191545 0.0161049 0.0022161 0.00552496 0.00236226 0.0214839 0.00258335 0.0135471 0.00333485 0.0204462 0.00403076 0.0141497 0.00399727 0.0401868
2 1 Mg 3.46349 4.70768 1.4948 1.2 1 0.00138316 0.00376744 0.00166898 0.00438969 0.00184566 0.00602574 0.00342356 0.0184519 0.00306985 0.00684637 0.00264655 0.0255161 0.0030277 0.0139631 0.0041326 0.0254308 0.00531428 0.0170223 0.00569446 0.0436934
3 2 Si 5.2885 2.02354 1.4948 2.4 1 0.000588391 0.00380661 0.00243786 0.00451123 0.00174582 0.00571052 0.00232467 0.0169599 0.00241279 0.00598639 0.0021274 0.0229997 0.00274308 0.0135786 0.00343201 0.0215995 0.00367194 0.0153386 0.00436329 0.0410147
4 3 O 5.33628 3.63678 1.4948 -1.2 1 0.000625636 0.00315724 0.00179392 0.00466221 0.00189946 0.00617983 0.00265401 0.0176246 0.00241824 0.0065763 0.00184648 0.0249515 0.00245653 0.013677 0.00403796 0.0241777 0.00488506 0.0162926 0.00564783 0.0426298
5 3 O 1.67294 1.04952 1.4948 -1.2 1 0.00150345 0.00387967 0.00175174 0.00434189 0.00128246 0.00567019 0.00224518 0.0167899 0.00254474 0.00589189 0.00213186 0.0223985 0.00269231 0.0128661 0.00317005 0.0217742 0.00472117 0.0155783 0.00483113 0.0398577
6 3 O 4.59532 1.31737 0.196716 -1.2 1 0.00103488 0.00337875 0.00235605 0.00432113 0.00183221 0.00574256 0.0021409 0.0171038 0.00279373 0.00597247 0.00218383 0.022099 0.00314016 0.0127853 0.00409037 0.0213953 0.00393051 0.0149367 0.00430856 0.0406447
7 1 Mg 6.18956 -6.37941e-06 2.9896 1.2 1 0.000869257 0.00490082 0.00162031 0.00438323 0.00145341 0.00567685 0.00213114 0.015889 0.0027854 0.00524074 0.00211237 0.0220343 0.00269349 0.0133701 0.00389316 0.0202638 0.00449076 0.014432 0.00501423 0.0382784
8 3 O 4.55118 1.31737 2.79288 -1.2 1 0.000825971 0.00488388 0.00220188 0.00432119 0.00169992 0.00559792 0.0023597 0.0166952 0.00254505 0.00673113 0.00221814 0.0215655 0.00328815 0.0121758 0.00336087 0.0214053 0.00489857 0.0151763 0.00541778 0.0395326
9 1 Mg -1.20682 0.0413099 4.4844 1.2 1 0.000705648 0.00278546 0.00173581 0.00496318 0.00147699 0.0050188 0.00172598 0.0159887 0.00242379 0.00540761 0.00242135 0.022262 0.00309254 0.0116967 0.00324253 0.0203993 0.00495542 0.0153232 0.00521739 0.037675
10 2 Si -3.0337 2.72544 4.4844 2.4 1 0.000598171 0.00390658 0.00171256 0.00484108 0.00181539 0.00583535 0.00303988 0.0165257 0.00320871 0.00625284 0.00218851 0.0235358 0.00321116 0.0129448 0.00412953 0.0220911 0.0051723 0.0170092 0.00619944 0.0388286
11 3 O -3.08099 1.11221 4.4844 -1.2 1 0.000478736 0.00422544 0.00183155 0.00449062 0.001183 0.00502875 0.00196402 0.0158702 0.0029338 0.00542565 0.00234985 0.0219485 0.00336538 0.0114417 0.00366521 0.0210323 0.00492943 0.0156616 0.00567369 0.0374402
12 3 O 0.582463 3.69946 4.4844 -1.2 1 0.00153178 0.00454617 0.00180271 0.0043999 0.00220869 0.00632711 0.00337144 0.0169994 0.00344357 0.00670315 0.00297265 0.0244824 0.00396462 0.0129965 0.0042456 0.0245016 0.00671922 0.0180832 0.00795147 0.0411419
13 3 O -2.29524 3.43162 3.18632 -1.2 1 0.000929886 0.00334726 0.0023987 0.00459232 0.00207289 0.00577024 0.0027908 0.0176345 0.00316895 0.00666446 0.00258383 0.0241334 0.00321965 0.0129123 0.00461381 0.0242742 0.00560654 0.0175339 0.00666549 0.041437
14 3 O -2.34216 3.43162 5.78248 -1.2 1 0.00169667 0.00374527 0.00126912 0.00468882 0.00213785 0.00554977 0.0030209 0.0166746 0.00266112 0.00710844 0.00267435 0.0229448 0.00418841 0.0122588 0.00400289 0.0233089 0.0061449 0.018456 0.00703189 0.0390926
15 1 Mg 1.12778 2.37449 2.9896 1.2 1 0.00113195 0.00403098 0.00210032 0.00445998 0.00200579 0.00579122 0.00294333 0.0166242 0.00292232 0.00613934 0.00229896 0.0232192 0.0031044 0.0129311 0.00346621 0.0220197 0.00498304 0.0162692 0.00543105 0.0402744
16 1 Mg 3.92855 2.33318 4.4844 1.2 1 0.00129837 0.00471273 0.00159837 0.0042287 0.00139007 0.00548704 0.00325921 0.0163104 0.00305922 0.00576264 0.00290841 0.0227167 0.00371638 0.0134268 0.00481479 0.021961 0.00638384 0.0168787 0.00714816 0.0394627
17 2 Si 2.09341 4.39804 4.4844 2.4 1 0.00154457 0.00442259 0.00165828 0.00413895 0.00255284 0.00579706 0.00338394 0.0178601 0.00342943 0.00695388 0.00321854 0.0244674 0.00443602 0.0140685 0.00425246 0.0250905 0.00675856 0.0180756 0.0084226 0.0428989
18 3 O 2.09991 6.01128 4.4844 -1.2 1 0.00226082 0.0048128 0.00150414 0.00382006 0.0027694 0.00620536 0.00316561 0.0189044 0.00271818 0.00739599 0.00304571 0.0264588 0.00412823 0.0145469 0.00472771 0.0278423 0.00689781 0.0190623 0.00812658 0.0444023
19 3 O -4.52137 3.42402 4.4844 -1.2 1 0.00114252 0.0045714 0.00204224 0.00452668 0.00199482 0.00659024 0.00328904 0.0166526 0.0032513 0.00633094 0.00279636 0.0233538 0.0040508 0.0128745 0.00404274 0.0228577 0.00636191 0.0173608 0.00757779 0.0403091
20 3 O 2.80834 3.69187 3.18632 -1.2 1 0.00112679 0.00415439 0.00156286 0.00361289 0.00182262 0.00551196 0.00286083 0.017117 0.00315537 0.00633438 0.00261305 0.0238854 0.00342231 0.0129893 0.0045221 0.024029 0.00585135 0.0167612 0.00644032 0.0419773
21 1 Mg 1.17857 2.37449 0 1.2 1 0.00183379 0.00399954 0.00168789 0.00417322 0.00137847 0.00559076 0.00223839 0.0171712 0.00255462 0.00648569 0.00262967 0.0228383 0.00262431 0.013317 0.00316718 0.0217984 0.00415941 0.0148767 0.0047142 0.040745
22 3 O 2.76143 3.69187 5.78248 -1.2 1 0.00187564 0.00486785 0.00160669 0.00416536 0.00180805 0.00531265 0.00248515 0.0171112 0.00297572 0.00730631 0.00294552 0.0227578 0.00434225 0.0128204 0.00501542 0.0231464 0.00654458 0.0180552 0.0074003 0.0397911
23 1 Mg -1.67381 2.41581 1.4948 1.2 1 0.000866912 0.00311052 0.00238368 0.00472328 0.00145631 0.0059898 0.00218781 0.0165423 0.00281671 0.00617918 0.00193299 0.023648 0.00253382 0.0139935 0.00238997 0.0223771 0.00414142 0.0160331 0.00472866 0.0412537
24 2 Si 0.16286 0.350945 1.4948 2.4 1 0.00155615 0.00307744 0.00234776 0.00452914 0.00133466 0.00623599 0.00248161 0.0163713 0.00239887 0.00509825 0.00203729 0.0224797 0.00235353 0.0136091 0.00285242 0.0205283 0.00477921 0.0147546 0.00440977 0.0399587
25 3 O 0.15972 -1.26229 1.4948 -1.2 1 0.00145995 0.00279473 0.00261192 0.0045468 0.0018099 0.00593497 0.00222532 0.0163235 0.00248756 0.0053603 0.00250332 0.0223761 0.00273947 0.0138692 0.00293998 0.0213853 0.00433849 0.0143205 0.00398442 0.0402273
26 3 O 6.77654 1.32496 1.4948 -1.2 1 0.000998173 0.00414087 0.00171514 0.00456735 0.00134371 0.00589788 0.00196918 0.0166351 0.00264969 0.0052626 0.00186669 0.0233051 0.00273413 0.0136517 0.00337001 0.0218804 0.00456836 0.0152513 0.00432826 0.0405968
27 3 O -0.508028 1.05712 0.196716 -1.2 1 0.00139069 0.00307065 0.00297841 0.00405376 0.00143676 0.00570937 0.00222149 0.0170104 0.00198178 0.00653234 0.00260474 0.0216668 0.00267114 0.0128965 0.0030466 0.0211171 0.00430359 0.0150248 0.00433226 0.0398517
28 3 O -0.552171 1.05712 2.79288 -1.2 1 0.000694707 0.00274371 0.00267142 0.0047387 0.00132298 0.00607492 0.00197571 0.0161683 0.00267589 0.00606221 0.00188588 0.02249 0.00297016 0.0119831 0.00353779 0.021596 0.00534644 0.0155701 0.00507873 0.0391759
29 1 Mg 6.31713 4.74899 0 1.2 1 0.000850469 0.0031162 0.00182866 0.00430074 0.00226855 0.00615566 0.00297818 0.0180675 0.00293773 0.0068623 0.00205027 0.0249712 0.00274946 0.0137127 0.003873 0.0246701 0.00455041 0.0164321 0.00567837 0.0429823
30 1 Mg 3.54847 9.45668 1.4948 1.2 1 0.0015015 0.00322087 0.00176408 0.00448255 0.00219508 0.00755059 0.00294875 0.0213088 0.0018967 0.00855065 0.00201022 0.0282796 0.00298009 0.0155995 0.0036219 0.0293586 0.0042396 0.0182049 0.00401723 0.0485164
31 2 Si 5.36879 6.77254 1.4948 2.4 1 0.000895106 0.00331671 0.0020188 0.00491355 0.00270839 0.00683605 0.00352481 0.0194582 0.00278026 0.00774783 0.00233844 0.0272581 0.0029022 0.0153809 0.00407683 0.0271375 0.00460131 0.0172061 0.00522776 0.0463204
32 3 O 5.41937 8.38578 1.4948 -1.2 1 0.00148748 0.00324586 0.00171979 0.00492034 0.00234495 0.00770216 0.00294774 0.0207715 0.00236516 0.00848822 0.0022514 0.0288277 0.002026 0.0156641 0.00294171 0.0293417 0.00462118 0.0174579 0.00477752 0.0478559
33 3 O 1.75158 5.79852 1.4948 -1.2 1 0.00128703 0.00364909 0.00152841 0.00395106 0.00239771 0.00586752 0.0030285 0.0193456 0.00293837 0.0071731 0.0025296 0.0275597 0.00265092 0.0155695 0.00337638 0.0271656 0.00535876 0.0175888 0.00545133 0.0454088
34 3 O 4.67421 6.06637 0.196716 -1.2 1 0.00100992 0.00324933 0.00148863 0.00464844 0.00199582 0.00690239 0.00276611 0.0197432 0.00254224 0.00800634 0.00192633 0.026053 0.00327617 0.0142449 0.00405897 0.0268629 0.00457181 0.0167485 0.00530721 0.0452231
35 1 Mg 6.26654 4.74899 2.9896 1.2 1 0.00147821 0.00373581 0.00217952 0.00485399 0.00252519 0.0063566 0.00351168 0.0177097 0.0037928 0.0070247 0.00218543 0.0255358 0.00378545 0.0146246 0.00487533 0.0250273 0.00579282 0.0174003 0.00716798 0.0429373
36 3 O 4.63043 6.06637 2.79288 -1.2 1 0.00210774 0.0035989 0.00179896 0.00476757 0.0022252 0.00663466 0.00322219 0.0192417 0.00347795 0.0079133 0.0022273 0.0258854 0.0037152 0.014662 0.00441375 0.0276503 0.00585273 0.0182009 0.00714533 0.0449257
37 1 Mg -1.12976 4.79031 4.4844 1.2 1 0.00186454 0.00436552 0.00161432 0.00473327 0.00219886 0.00596831 0.00316961 0.0176567 0.00346768 0.00722619 0.0028337 0.0253763 0.00391324 0.0143229 0.00468628 0.026015 0.00724499 0.0188109 0.00788302 0.0433066
38 2 Si -2.9517 7.47444 4.4844 2.4 1 0.00235477 0.0040124 0.00120761 0.00518969 0.00264945 0.00626978 0.00358567 0.02018 0.00324152 0.00801755 0.00273864 0.0269822 0.00427799 0.0160504 0.00523148 0.0284187 0.00692686 0.0191882 0.00822024 0.0467527
39 3 O -3.00198 5.86121 4.4844 -1.2 1 0.00212966 0.0043808 0.000824951 0.0047976 0.00282023 0.00598818 0.00393406 0.0185704 0.00348953 0.00767948 0.0026371 0.0253748 0.00424589 0.0142217 0.00482681 0.0272145 0.00692334 0.0192319 0.00842817 0.0444695
40 3 O 0.666315 8.44846 4.4844 -1.2 1 0.00265347 0.00494665 0.00139843 0.00473698 0.00275607 0.00719615 0.00287402 0.0207798 0.00304683 0.00816373 0.00321484 0.02796 0.00436125 0.0159645 0.00456898 0.0297715 0.0065474 0.0194988 0.0081354 0.0473478
41 3 O -2.21213 8.18062 3.18632 -1.2 1 0.00232999 0.00407568 0.00151645 0.00448335 0.0025304 0.00609009 0.00260408 0.0206768 0.00283545 0.00817372 0.00255109 0.0274512 0.00408255 0.0159706 0.00494129 0.0294091 0.00574432 0.0186098 0.00685863 0.0478651
42 3 O -2.25864 8.18062 5.78248 -1.2 1 0.0031908 0.00442443 0.00134425 0.00430758 0.00261084 0.00589641 0.0029594 0.0201611 0.00238325 0.00844035 0.00362958 0.0263982 0.00447148 0.0165582 0.00544035 0.029714 0.00690832 0.0204589 0.00791723 0.0475181
43 1 Mg 1.20893 7.12349 2.9896 1.2 1 0.00170724 0.00407066 0.00159987 0.00433148 0.00264273 0.00645408 0.00355004 0.0195247 0.00295033 0.00805766 0.00268497 0.0276775 0.00329829 0.0158278 0.00382571 0.0278915 0.00566954 0.0182884 0.00640901 0.0462965
44 1 Mg 4.00982 7.08218 4.4844 1.2 1 0.0023902 0.0038979 0.00143935 0.00473785 0.00237027 0.00645857 0.00382705 0.0198441 0.00347563 0.00807868 0.00335845 0.0266893 0.00413712 0.0167329 0.00580107 0.0283669 0.00706687 0.0191543 0.00836506 0.0461382
45 2 Si 2.17861 9.14704 4.4844 2.4 1 0.00288623 0.00404366 0.00146415 0.00477736 0.00258512 0.00722258 0.00354301 0.0208444 0.0028063 0.00830666 0.00303389 0.0276792 0.00442052 0.0165432 0.00455577 0.0299865 0.00594375 0.0195612 0.00710404 0.0488937
46 3 O 2.18828 10.7603 4.4844 -1.2 1 0.00366823 0.00395273 0.0017601 0.00450886 0.00236099 0.00698274 0.00276194 0.0207754 0.00245576 0.00821373 0.00225597 0.028313 0.00396621 0.0156873 0.00432385 0.0311083 0.00611401 0.0199579 0.00664871 0.0497581
47 3 O -4.43805 8.17302 4.4844 -1.2 1 0.00245037 0.00422779 0.00153899 0.00505388 0.00237454 0.00728219 0.00323344 0.020548 0.00340999 0.00821699 0.00325436 0.0280473 0.00450564 0.0161343 0.00510782 0.0298325 0.00673391 0.0194412 0.00896193 0.0472959
48 3 O 2.89193 8.44087 3.18632 -1.2 1 0.00265562 0.00381949 0.0013291 0.00433896 0.00232905 0.00674523 0.00314904 0.0203024 0.0029546 0.00858428 0.00291037 0.0272702 0.00375412 0.0159116 0.00463839 0.0295034 0.005878 0.0188406 0.0062713 0.0478583
49 1 Mg 1.25915 7.12349 0 1.2 1 0.00119119 0.00331338 0.00135834 0.00417219 0.00180949 0.00720145 0.00284579 0.0201412 0.00277362 0.00795716 0.00249281 0.0274516 0.0033072 0.0144031 0.00329415 0.027568 0.0044566 0.0174478 0.0045519 0.0461424
50 3 O 2.84547 8.44087 5.78248 -1.2 1 0.00305467 0.00469652 0.00184098 0.00446033 0.0023213 0.00655782 0.00346233 0.0204473 0.00287784 0.00862548 0.00343409 0.0263293 0.00556962 0.0164584 0.0054518 0.0302303 0.00632129 0.0209531 0.00774639 0.0477739
51 1 Mg -1.59284 7.16481 1.4948 1.2 1 0.00112938 0.00343973 0.00119339 0.00432231 0.0018129 0.0061551 0.002562 0.0198015 0.00297359 0.00770447 0.00171297 0.0274986 0.0030939 0.0156999 0.0036818 0.0274621 0.00462864 0.0176284 0.00554396 0.0465286
52 2 Si 0.240329 5.09994 1.4948 2.4 1 0.00108872 0.00391527 0.001569 0.00389484 0.00183182 0.00661121 0.00290996 0.0188207 0.00319677 0.00721348 0.0022568 0.0257157 0.00259454 0.0146044 0.00381062 0.0250037 0.00506791 0.0169805 0.00525843 0.0445154
53 3 O 0.234538 3.48671 1.4948 -1.2 1 0.00151293 0.00416156 0.00226432 0.0042514 0.00188936 0.00635484 0.00242903 0.0177834 0.00340825 0.00679048 0.0022453 0.0241858 0.00316197 0.0136492 0.00366537 0.0242304 0.00550536 0.0161547 0.00527161 0.0422144
54 3 O 6.85564 6.07396 1.4948 -1.2 1 0.00119244 0.00295828 0.00226659 0.00460452 0.00248662 0.00600419 0.00290475 0.0197267 0.0031439 0.00753981 0.00194317 0.0274135 0.00307232 0.0148598 0.0046547 0.0270325 0.00543206 0.0175215 0.00614289 0.0452238
55 3 O -0.429565 5.80612 0.196716 -1.2 1 0.000969218 0.00345624 0.00168543 0.00380008 0.00171567 0.0070228 0.00243742 0.0193997 0.00293807 0.00812004 0.00236451 0.0254131 0.00243433 0.0142156 0.00359366 0.0261523 0.00498196 0.0167554 0.00554018 0.0451531
56 3 O -0.473377 5.80612 2.79288 -1.2 1 0.00168582 0.00400165 0.00172794 0.00445418 0.0022402 0.00646765 0.00298404 0.01894 0.00316341 0.00784131 0.00281394 0.0254431 0.00345961 0.0143638 0.00451507 0.0267987 0.00629872 0.0183886 0.0068445 0.0451702
57 1 Mg 6.40169 9.49799 0 1.2 1 0.000622425 0.00364191 0.00161487 0.00468716 0.00160319 0.00829896 0.00183057 0.0209511 0.00157817 0.00881734 0.0016119 0.028679 0.00212334 0.0146968 0.00251245 0.0299745 0.00362625 0.017909 0.00396428 0.0476418
58 1 Mg 3.64209 14.2057 1.4948 1.2 1 0.00166457 0.00307136 0.00149703 0.00450952 0.00160114 0.00861377 0.00156043 0.021601 0.00170422 0.00871076 0.00215212 0.0282351 0.00236768 0.0159333 0.00290712 0.0298366 0.00348357 0.0169623 0.00343222 0.0491768
59 2 Si 5.45748 11.5215 1.4948 2.4 1 0.00164005 0.00319861 0.0017992 0.00469054 0.0017374 0.0081283 0.00201841 0.0210994 0.00161031 0.00834592 0.00164894 0.0287915 0.00245615 0.0161765 0.00328395 0.0296613 0.00411613 0.0169804 0.00365993 0.0490675
60 3 O 5.51101 13.1348 1.4948 -1.2 1 0.00175162 0.00313638 0.0015408 0.00468535 0.0014954 0.0089974 0.00169075 0.0212009 0.00181518 0.00861375 0.00168558 0.0293588 0.00204448 0.0160949 0.00276257 0.0302021 0.00364794 0.0166958 0.00370505 0.0489421
61 3 O 1.83851 10.5475 1.4948 -1.2 1 0.00143603 0.00335202 0.00146105 0.00486027 0.00187291 0.00759371 0.00222442 0.0216717 0.00179418 0.00841735 0.00212283 0.0292732 0.00226653 0.0158342 0.00306588 0.0300782 0.00400966 0.0179271 0.00355875 0.0490082
62 3 O 4.7611 10.8154 0.196716 -1.2 1 0.000291622 0.00295887 0.00188159 0.00466564 0.00176474 0.00840385 0.00208846 0.0212368 0.00154361 0.00868582 0.00186653 0.0282086 0.0028016 0.0154228 0.00353983 0.0297544 0.0035549 0.0172257 0.00343866 0.0485437
63 1 Mg 6.35203 9.49799 2.9896 1.2 1 0.00221079 0.00381344 0.00156147 0.00484696 0.00252895 0.00735193 0.00324131 0.0202565 0.00331307 0.00868535 0.00197633 0.0291147 0.00358139 0.0161592 0.00344375 0.0295698 0.00434207 0.0184356 0.00570175 0.0481136
64 3 O 4.71833 10.8154 2.79288 -1.2 1 0.00314058 0.0033836 0.00148688 0.00458407 0.00211978 0.00801601 0.00224399 0.0214704 0.00211713 0.00903632 0.00204573 0.028118 0.0033139 0.0159227 0.00398414 0.0304387 0.00508597 0.0185514 0.00568617 0.0493846
65 1 Mg -1.0438 9.53931 4.4844 1.2 1 0.0031292 0.00436782 0.00141679 0.00427726 0.00270421 0.00644281 0.00253916 0.0206356 0.0027041 0.00850698 0.0024916 0.0278392 0.0039428 0.0169237 0.00469735 0.0302716 0.00620184 0.0194241 0.00705678 0.0489028
66 2 Si -2.8604 12.2234 4.4844 2.4 1 0.00331192 0.00374258 0.0015449 0.0042918 0.00254918 0.00748669 0.00299462 0.02183 0.00276905 0.00864545 0.00240662 0.0279894 0.0041804 0.0167432 0.0045511 0.0304068 0.00570016 0.0194698 0.00687311 0.0505159
67 3 O -2.91391 10.6102 4.4844 -1.2 1 0.00346219 0.0041125 0.00158036 0.0042271 0.00254576 0.00673211 0.00321632 0.0206059 0.00264902 0.00797893 0.00209297 0.0283662 0.00421089 0.0160283 0.00442579 0.0312657 0.00588891 0.0197707 0.00705523 0.0494369
68 3 O 0.7596 13.1975 4.4844 -1.2 1 0.00339471 0.00359656 0.00181906 0.00466492 0.00260121 0.00835705 0.00256859 0.0220205 0.00275689 0.00841134 0.00293788 0.0283998 0.00414373 0.0163638 0.00395682 0.0304572 0.00580865 0.0195987 0.00670144 0.0501609
69 3 O -2.12001 12.9296 3.18632 -1.2 1 0.0032246 0.00343168 0.0015326 0.00399682 0.00240176 0.00750926 0.00221795 0.0217636 0.00245755 0.00852043 0.00234025 0.0276275 0.00354067 0.0162133 0.00454086 0.0308121 0.00502954 0.0188094 0.00579321 0.0501543
70 3 O -2.16532 12.9296 5.78248 -1.2 1 0.00352228 0.00380906 0.00171968 0.00397609 0.0024874 0.00676932 0.00247761 0.0217341 0.00233461 0.0082169 0.00274355 0.0273534 0.00422206 0.0169168 0.00479638 0.0315936 0.00604129 0.0210734 0.0066457 0.050881
71 1 Mg 1.29891 11.8725 2.9896 1.2 1 0.00256513 0.00320823 0.00157509 0.00476363 0.00225139 0.00782238 0.00268533 0.0211196 0.00249566 0.00868502 0.00223694 0.0289356 0.00331802 0.016308 0.00341438 0.0302296 0.00461731 0.0179964 0.00503297 0.049033
72 1 Mg 4.10033 11.8312 4.4844 1.2 1 0.00390967 0.00359842 0.00182029 0.00440075 0.00238883 0.0072183 0.00284583 0.0213629 0.00260659 0.00851137 0.00284921 0.028507 0.00376086 0.0173135 0.00495721 0.0304344 0.00654323 0.0193776 0.00649957 0.0502457
73 2 Si 2.27333 13.896 4.4844 2.4 1 0.00320345 0.0033341 0.00166065 0.00465358 0.00283777 0.00769539 0.00322323 0.0216922 0.00240946 0.00818035 0.00293424 0.0278425 0.00380486 0.0166902 0.00416933 0.0303702 0.00548458 0.0192602 0.00618705 0.0508697
74 3 O 2.28634 15.5093 4.4844 -1.2 1 0.00325147 0.00359127 0.00161005 0.00438985 0.00293327 0.00724969 0.00283658 0.0208671 0.0026844 0.00760079 0.00232106 0.0281729 0.00320229 0.0159582 0.00367678 0.030975 0.00560999 0.0189855 0.00650758 0.0504104
75 3 O -4.34533 12.922 4.4844 -1.2 1 0.00346978 0.00362674 0.00171915 0.00442349 0.00256961 0.00819104 0.00285773 0.0218752 0.00273876 0.00859274 0.00264474 0.0287348 0.0039622 0.0164672 0.00461671 0.0306911 0.00638721 0.0198404 0.00724959 0.0503714
76 3 O 2.98455 13.1899 3.18632 -1.2 1 0.0033699 0.00313291 0.00145978 0.00436089 0.00234544 0.00767541 0.00224044 0.0217091 0.00217796 0.00859722 0.0022531 0.0277871 0.00321384 0.0160047 0.00397475 0.0304351 0.00552349 0.0185147 0.0056187 0.0499278
77 1 Mg 1.34779 11.8725 0 1.2 1 0.000589895 0.0028741 0.00131474 0.00481165 0.00139664 0.00878404 0.00151404 0.0212491 0.00107523 0.00915915 0.0017936 0.0291329 0.00270788 0.0148997 0.00277541 0.0302597 0.00306886 0.0172634 0.00339997 0.0481363
78 3 O 2.93934 13.1899 5.78248 -1.2 1 0.00388487 0.00374575 0.00153635 0.00437733 0.00249811 0.00684974 0.00267464 0.0217418 0.00245943 0.00831733 0.0033264 0.0271619 0.00454686 0.0167084 0.0047375 0.0316558 0.00627207 0.0214501 0.00654312 0.0514112
79 1 Mg -1.50344 11.9138 1.4948 1.2 1 0.00135144 0.00342122 0.00116977 0.00477828 0.00148338 0.00810046 0.00174363 0.0217329 0.0023724 0.00855724 0.00142565 0.0286357 0.00343312 0.0161561 0.00334186 0.0300054 0.00343322 0.0175996 0.00401757 0.0489071
80 2 Si 0.326006 9.84894 1.4948 2.4 1 0.00126714 0.00344999 0.00127698 0.00506067 0.00197489 0.00797182 0.00194323 0.021088 0.00206763 0.00835996 0.00144825 0.0284117 0.00259868 0.015705 0.0033503 0.0292181 0.00370742 0.0177589 0.00370511 0.0483725
81 3 O 0.317364 8.23571 1.4948 -1.2 1 0.00164086 0.00374526 0.00101309 0.00450861 0.00189128 0.00755317 0.00198867 0.0202248 0.00253703 0.00789893 0.00174745 0.0283735 0.00314553 0.015907 0.00364447 0.0289289 0.00445919 0.0178342 0.00432899 0.047388
82 3 O 6.94307 10.823 1.4948 -1.2 1 0.00156605 0.003568 0.001551 0.00459966 0.0018979 0.00761757 0.00250958 0.0217522 0.0024016 0.00839265 0.00144856 0.0293887 0.00278509 0.0159607 0.00320912 0.030201 0.00379123 0.0179661 0.00421125 0.0490027
83 3 O -0.343122 10.5551 0.196716 -1.2 1 0.000788509 0.00323227 0.00126414 0.00488874 0.00154454 0.00853246 0.00181884 0.0214018 0.00158928 0.00879902 0.00190151 0.0280321 0.00309165 0.0153277 0.00388044 0.0296334 0.00335296 0.0175296 0.00359463 0.0484221
84 3 O -0.385966 10.5551 2.79288 -1.2 1 0.00275815 0.00371217 0.00101773 0.004449 0.00245795 0.00776424 0.00221777 0.0216497 0.00221277 0.00910135 0.00218697 0.0275812 0.00346291 0.0160098 0.00408396 0.0304454 0.00509064 0.0187711 0.00538359 0.0492399
85 1 Mg 6.49448 14.247 0 1.2 1 0.000652529 0.00321407 0.00157149 0.00495277 0.0011095 0.00919606 0.00123421 0.021331 0.00121827 0.00857708 0.00135161 0.02881 0.00157628 0.0153355 0.00237112 0.0302785 0.00315269 0.0164993 0.00289056 0.0481211
86 1 Mg 3.74457 18.9547 1.4948 1.2 1 0.00176679 0.00315622 0.00147814 0.0040103 0.00191155 0.00854688 0.00141353 0.0220899 0.00205087 0.00800896 0.00212926 0.0275696 0.00251079 0.0162305 0.00334297 0.0291341 0.00352707 0.0165342 0.00313663 0.0493794
87 2 Si 5.55495 16.2705 1.4948 2.4 1 0.0018007 0.00295697 0.00130229 0.00455742 0.00181521 0.00893433 0.00133937 0.0214014 0.00129803 0.00786528 0.00117799 0.0285405 0.0021928 0.0161525 0.00274051 0.0291762 0.00369592 0.0161078 0.00343238 0.0492742
88 3 O 5.6115 17.8838 1.4948 -1.2 1 0.00174679 0.00301987 0.00145423 0.00435928 0.0017903 0.00926603 0.00150463 0.0215867 0.00194891 0.00787659 0.00139073 0.0286537 0.00211038 0.016275 0.00264854 0.0292507 0.00340188 0.0158702 0.00336018 0.0492305
89 3 O 1.93416 15.2965 1.4948 -1.2 1 0.00155363 0.00297108 0.00131699 0.00469687 0.00177631 0.00829023 0.00190512 0.0218954 0.00187146 0.00809154 0.0013645 0.029069 0.00179543 0.0161009 0.0026603 0.0299624 0.00378951 0.0166846 0.0033708 0.0495144
90 3 O 4.85636 15.5644 0.196716 -1.2 1 0.00135119 0.00262189 0.00126466 0.00459723 0.00120271 0.00917924 0.00141013 0.0213977 0.00102602 0.00822169 0.00159231 0.0280005 0.00252825 0.0158988 0.00366989 0.0295656 0.00332337 0.0159411 0.00284695 0.0488322
91 1 Mg 6.44662 14.247 2.9896 1.2 1 0.00213957 0.00334843 0.00132473 0.0043938 0.00240333 0.00833377 0.00286571 0.0206824 0.00258059 0.0085795 0.0017382 0.0291031 0.00286257 0.016338 0.00292472 0.029971 0.00395008 0.0176754 0.00497345 0.0493952
92 3 O 4.81537 15.5644 2.79288 -1.2 1 0.002606 0.00297014 0.0012063 0.00426598 0.00223087 0.00859787 0.00180131 0.0218658 0.00176032 0.00869384 0.00191328 0.0278216 0.00278158 0.0164228 0.00346383 0.0297351 0.00480657 0.0175195 0.0050133 0.0497171
93 1 Mg -0.948271 14.2883 4.4844 1.2 1 0.00330335 0.00343099 0.00153947 0.00410833 0.00266856 0.00757022 0.00261672 0.021357 0.00262819 0.00825911 0.00278581 0.0280809 0.00334317 0.0169281 0.00465707 0.0306879 0.0056537 0.018988 0.00632438 0.0504182
94 2 Si -2.75928 16.9724 4.4844 2.4 1 0.00286484 0.003246 0.00179854 0.00441323 0.00276712 0.00784164 0.00278145 0.0217072 0.00274604 0.00772074 0.00248714 0.0277168 0.00326574 0.0167594 0.00407571 0.0299527 0.00528741 0.0186426 0.00625505 0.0508118
95 3 O -2.81617 15.3592 4.4844 -1.2 1 0.00335454 0.00341182 0.00159178 0.00414162 0.00279563 0.00738687 0.00279677 0.0208881 0.00250187 0.00762181 0.00232591 0.0282092 0.00367074 0.0159832 0.00389917 0.030797 0.00600074 0.0187574 0.00665843 0.0501954
96 3 O 0.862762 17.9465 4.4844 -1.2 1 0.00241189 0.00379003 0.00176058 0.0046882 0.00294341 0.00831883 0.00246633 0.0219746 0.00279147 0.00787398 0.00280767 0.0281805 0.00349053 0.016562 0.00399715 0.02951 0.00599461 0.0189196 0.00628126 0.0499678
97 3 O -2.0185 17.6786 3.18632 -1.2 1 0.00247087 0.00317199 0.00170847 0.00397668 0.00266789 0.00772423 0.00213275 0.021856 0.00227763 0.00775961 0.00217056 0.0274068 0.0033093 0.0162872 0.00405969 0.0300206 0.00486657 0.0175407 0.00539643 0.0500569
98 3 O -2.06164 17.6786 5.78248 -1.2 1 0.00295473 0.00334055 0.00165221 0.00431064 0.00275106 0.00672796 0.00225348 0.0215154 0.00251822 0.00801138 0.0030682 0.0271604 0.00336659 0.0169638 0.0044837 0.0307673 0.00619805 0.0203412 0.00600404 0.0510529
99 1 Mg 1.39817 16.6215 2.9896 1.2 1 0.00212735 0.0030934 0.00141626 0.0046054 0.00258363 0.00834691 0.00252993 0.0212261 0.00248694 0.00806474 0.00204872 0.028601 0.00242989 0.0165169 0.0029654 0.0296136 0.0042408 0.0170092 0.00469123 0.0492531
100 1 Mg 4.20062 16.5802 4.4844 1.2 1 0.00277637 0.00319054 0.00168498 0.00425678 0.00282808 0.00761881 0.0026909 0.0215151 0.00292076 0.00775234 0.00309705 0.0280623 0.00324613 0.0171978 0.00531326 0.0298667 0.00641928 0.0188119 0.00669881 0.0501658
101 2 Si 2.37796 18.645 4.4844 2.4 1 0.00183851 0.00349197 0.00162398 0.0046254 0.00311656 0.00780665 0.00274159 0.0219229 0.00266291 0.00775645 0.00268273 0.0273235 0.0031618 0.0166178 0.00429848 0.029512 0.00535348 0.0186303 0.00601752 0.0505922
102 3 O 2.39434 20.2583 4.4844 -1.2 1 0.00157234 0.00372762 0.00159177 0.00461264 0.00312073 0.00697076 0.0023938 0.020869 0.00273996 0.00723096 0.00206698 0.0280032 0.00316061 0.0160192 0.00376044 0.0297174 0.00557734 0.0183495 0.006539 0.0499945
103 3 O -4.24274 17.671 4.4844 -1.2 1 0.00240229 0.0034073 0.00172444 0.00443908 0.00272818 0.00828038 0.00254154 0.0222006 0.00295919 0.00798316 0.00254917 0.0280727 0.00333882 0.01662 0.00454273 0.0296494 0.00590104 0.0190155 0.00675783 0.0500158
104 3 O 3.08659 17.9389 3.18632 -1.2 1 0.00210056 0.00295207 0.00140763 0.00408655 0.0027415 0.0077837 0.00190829 0.0220618 0.00231862 0.00786688 0.00235209 0.0272807 0.00302632 0.0162054 0.00411649 0.0295507 0.00540722 0.0177724 0.00548514 0.0498066
105 1 Mg 1.44478 16.6215 0 1.2 1 0.0020982 0.00280155 0.00112372 0.00452756 0.00133187 0.00899703 0.00109235 0.0213772 0.00133964 0.00819231 0.00139927 0.0285749 0.0021162 0.0155558 0.002367 0.02954 0.00290568 0.0163206 0.00301281 0.0483513
106 3 O 3.0436 17.9389 5.78248 -1.2 1 0.00244903 0.00362564 0.0015591 0.00473587 0.00269654 0.00695911 0.00236464 0.0218449 0.00222883 0.00792538 0.00291966 0.027023 0.00358149 0.0168238 0.00455894 0.0305699 0.00620413 0.0208567 0.00639684 0.0508792
107 1 Mg -1.40524 16.6628 1.4948 1.2 1 0.00140733 0.00317464 0.00107125 0.004431 0.00179481 0.00873514 0.00190957 0.0220202 0.00188095 0.00813715 0.00174069 0.0281721 0.0029295 0.0164986 0.00268226 0.0295875 0.00302944 0.016748 0.00333389 0.0490986
108 2 Si 0.420358 14.5979 1.4948 2.4 1 0.00163653 0.00271638 0.00126155 0.00495498 0.00189731 0.00898265 0.00171386 0.0215003 0.00153841 0.00821669 0.0013022 0.0285038 0.00259765 0.0163592 0.00323937 0.0289575 0.00345554 0.0165648 0.0035131 0.0490238
109 3 O 0.408732 12.9847 1.4948 -1.2 1 0.00171368 0.00288364 0.00114592 0.0049341 0.00191831 0.00896432 0.00145286 0.0212414 0.00205295 0.00842157 0.00147242 0.0290308 0.00294637 0.0159816 0.0029047 0.0300848 0.00326634 0.0169693 0.0038398 0.0490577
110 3 O 7.03923 15.572 1.4948 -1.2 1 0.0016982 0.00311883 0.00133983 0.00448188 0.00193224 0.0083067 0.00222674 0.0216434 0.00210417 0.00807713 0.00155375 0.0292037 0.00242657 0.0162465 0.00274212 0.0298836 0.00354515 0.0168128 0.00383096 0.0492473
111 3 O -0.248332 15.3041 0.196716 -1.2 1 0.00137709 0.00279209 0.00115188 0.00479407 0.00110638 0.00912813 0.00181658 0.021389 0.00130434 0.00822686 0.00161632 0.028022 0.00265354 0.0157316 0.0035561 0.0293822 0.00301378 0.0161872 0.00313363 0.0485229
112 3 O -0.289436 15.3041 2.79288 -1.2 1 0.00304578 0.0032838 0.00104318 0.00438806 0.00252487 0.00856271 0.00192339 0.0219237 0.00196454 0.00859897 0.00199288 0.0273559 0.00299337 0.0165326 0.00329549 0.0299245 0.00444847 0.0178554 0.00480411 0.0496888
113 1 Mg 6.59566 18.996 0 1.2 1 0.00151144 0.00300641 0.00153107 0.00425802 0.00103763 0.00872228 0.00119212 0.0217957 0.00118032 0.00783701 0.0014191 0.0280235 0.00194003 0.0161221 0.00229154 0.0289197 0.00301813 0.0158123 0.0027137 0.048421
114 1 Mg 3.85574 23.7037 1.4948 1.2 1 0.00182706 0.00271016 0.00128009 0.00421511 0.00173018 0.00747203 0.001282 0.0228892 0.00181146 0.00736518 0.00214169 0.0269004 0.00256252 0.0172583 0.00360794 0.0286093 0.00338448 0.0170537 0.00327666 0.049904
115 2 Si 5.66125 21.0195 1.4948 2.4 1 0.00174438 0.00263405 0.00104164 0.00422313 0.00214514 0.00824132 0.00145715 0.0217501 0.00130082 0.00746584 0.00138322 0.0279265 0.00250022 0.0169332 0.00255516 0.0283861 0.00355385 0.0157856 0.00375974 0.049891
116 3 O 5.72074 22.6328 1.4948 -1.2 1 0.00153686 0.00253448 0.00158026 0.00417 0.00201646 0.0081696 0.00154581 0.0222097 0.00190619 0.00733951 0.00148286 0.0277818 0.00242153 0.0169634 0.00285098 0.0285755 0.00317833 0.0162146 0.00353613 0.049707
117 3 O 2.03867 20.0455 1.4948 -1.2 1 0.00151937 0.00330529 0.00123344 0.00444383 0.00207473 0.00785636 0.00201713 0.0221344 0.00215426 0.00740161 0.00141047 0.0283349 0.00204623 0.0169428 0.00236731 0.0290361 0.00357523 0.0160657 0.0034188 0.0495874
118 3 O 4.96004 20.3134 0.196716 -1.2 1 0.00210064 0.00251077 0.00145699 0.00413876 0.00134786 0.00840641 0.00117136 0.0216259 0.00103384 0.0075745 0.00155719 0.0274618 0.00273891 0.0162453 0.00402585 0.0288959 0.00325991 0.0153201 0.00303617 0.0491211
119 1 Mg 6.55057 18.996 2.9896 1.2 1 0.00113238 0.00311383 0.00132772 0.00417318 0.00262527 0.00825727 0.00263644 0.0211671 0.00249896 0.00796512 0.00189532 0.0289045 0.00292875 0.016696 0.00300397 0.0290167 0.00388846 0.0169276 0.00476686 0.0494889