ITEM: TIMESTEP
80000
ITEM: NUMBER OF ATOMS
10500
ITEM: BOX BOUNDS xy xz yz pp pp pp
0	15.2977	5.09925
0	118.725	0
0	89.688	0
ITEM: ATOMS id type element xu yu zu q Q_1 Q_2 Q_3 Q_4 Q_5 Q_6 Q_7 Q_8 Q_9 Q_10 Q_11 Q_12 Q_13 Q_14 Q_15 Q_16 Q_17 Q_18 Q_19 Q_20 Q_21
1 1 Mg 6.2404 -6.37941e-06 0 1.2 1 0.00145169 0.00446923 0.00100054 0.00476621 0.00121957 0.00534696 0.00183458 0.0158301 0.00218103 0.00532542 0.00227532 0.0215459 0.00267186 0.0133676 0.00368549 0.0208984 0.00423496 0.0140218 0.00417258 0.0401658
2 1 Mg 3.46349 4.70768 1.4948 1.2 1 0.0011656 0.00320802 0.00127836 0.00455084 0.00200383 0.00623613 0.00342328 0.0187369 0.00279174 0.006767 0.00298927 0.0254387 0.00371554 0.0138732 0.00452302 0.0253411 0.00548335 0.0167438 0.00554221 0.043885
3 2 Si 5.2885 2.02354 1.4948 2.4 1 0.00116735 0.00337155 0.00178447 0.00465598 0.00189392 0.00586621 0.00229053 0.0169864 0.00223868 0.0057589 0.00203637 0.0228924 0.00291572 0.013371 0.0038071 0.021901 0.00388914 0.0151163 0.00424785 0.0410566
4 3 O 5.33628 3.63678 1.4948 -1.2 1 0.000778853 0.00287373 0.00122696 0.00484799 0.00211653 0.00632817 0.00263722 0.0177183 0.00213202 0.00637323 0.00207009 0.0248726 0.00289636 0.0134775 0.00445971 0.0243078 0.00505775 0.0163151 0.00566327 0.0426442
5 3 O 1.67294 1.04952 1.4948 -1.2 1 0.00195214 0.00330352 0.0019889 0.0041447 0.00137848 0.0056615 0.00245888 0.0167462 0.00230899 0.00553538 0.0021589 0.0222356 0.00289062 0.0126073 0.0035935 0.0222626 0.004726 0.0153663 0.00467821 0.0401094
6 3 O 4.59532 1.31737 0.196716 -1.2 1 0.00164632 0.00300794 0.00199563 0.00430868 0.00191821 0.00550777 0.00215645 0.0168203 0.00258152 0.00577506 0.00217914 0.0221122 0.00347314 0.0126369 0.00427065 0.0216964 0.00447714 0.0146937 0.00450215 0.0405484
7 1 Mg 6.18956 -6.37941e-06 2.9896 1.2 1 0.00151252 0.00480083 0.00105271 0.00431299 0.00117188 0.00567313 0.00226103 0.0158533 0.0024376 0.00486664 0.00211592 0.0219051 0.00306233 0.01323 0.00371507 0.0212976 0.00411643 0.0144982 0.00463377 0.0386215
8 3 O 4.55118 1.31737 2.79288 -1.2 1 0.00149561 0.00433427 0.00170563 0.00438361 0.00186332 0.00547541 0.00252119 0.0167838 0.00235412 0.00629109 0.00226957 0.0210684 0.00356412 0.0121113 0.00337027 0.0222597 0.00435937 0.0154345 0.00504 0.0395228
9 1 Mg -1.20682 0.0413099 4.4844 1.2 1 0.000654971 0.0033167 0.00140001 0.00420828 0.00119711 0.00544145 0.00187485 0.0158811 0.00224849 0.00494965 0.00209152 0.0217893 0.00288567 0.0113252 0.0036017 0.0211923 0.00479358 0.0152764 0.00477357 0.0379445
10 2 Si -3.0337 2.72544 4.4844 2.4 1 0.000409439 0.00315674 0.00129346 0.00474606 0.00213714 0.00604622 0.00313427 0.0164303 0.00301863 0.00539157 0.00238065 0.0234022 0.00320999 0.0125648 0.00426841 0.0229227 0.00496547 0.0173746 0.00591383 0.0389197
11 3 O -3.08099 1.11221 4.4844 -1.2 1 0.000417698 0.00402162 0.00150548 0.00421145 0.00121148 0.00534968 0.00202497 0.0158103 0.00260189 0.00471509 0.0022987 0.0219514 0.00346179 0.0113343 0.00376217 0.0220374 0.00474532 0.01578 0.00514231 0.0380688
12 3 O 0.582463 3.69946 4.4844 -1.2 1 0.00164208 0.00438566 0.00205829 0.0043142 0.00255371 0.00661162 0.00351583 0.0172707 0.00311223 0.00575435 0.00304154 0.0244378 0.0042069 0.0128317 0.00458425 0.0245572 0.00628113 0.0182437 0.0075292 0.0414671
13 3 O -2.29524 3.43162 3.18632 -1.2 1 0.000881599 0.00284135 0.00210606 0.00457862 0.00215786 0.00599345 0.00286677 0.0178739 0.0029218 0.00612 0.00263639 0.0241811 0.00355326 0.0128363 0.00491198 0.0247023 0.00567024 0.0179367 0.00634791 0.0416952
14 3 O -2.34216 3.43162 5.78248 -1.2 1 0.00190369 0.00351766 0.000731395 0.00454197 0.00248348 0.00590949 0.00312485 0.0166287 0.00281302 0.00622384 0.00268768 0.022828 0.00404733 0.011797 0.00430245 0.0237583 0.00549874 0.0190078 0.00679634 0.0393065
15 1 Mg 1.12778 2.37449 2.9896 1.2 1 0.00171274 0.00353903 0.00223587 0.00434295 0.00212494 0.00567768 0.00305747 0.0165915 0.00259926 0.00555055 0.00243688 0.0228898 0.00360685 0.0126495 0.00350487 0.0225122 0.00444228 0.0162934 0.00539636 0.0405625
16 1 Mg 3.92855 2.33318 4.4844 1.2 1 0.00111683 0.00431003 0.00137405 0.00439181 0.00181537 0.00582635 0.00339851 0.0165036 0.00290055 0.00522303 0.00286522 0.0223001 0.00377094 0.0127665 0.00495281 0.0224689 0.00568337 0.0170211 0.00654672 0.0394803
17 2 Si 2.09341 4.39804 4.4844 2.4 1 0.00137809 0.00419234 0.00194386 0.00419704 0.00276956 0.00601518 0.00377925 0.0182849 0.00311399 0.00570992 0.00327083 0.0245251 0.00457974 0.0138307 0.00461977 0.0249052 0.00627257 0.018356 0.00792781 0.0433392
18 3 O 2.09991 6.01128 4.4844 -1.2 1 0.0026617 0.00464132 0.00155259 0.003858 0.00258646 0.00642802 0.00315698 0.0192093 0.00234975 0.00618285 0.00297675 0.0265146 0.0042913 0.0139159 0.00492775 0.0273987 0.00639239 0.0192872 0.0074563 0.0453429
19 3 O -4.52137 3.42402 4.4844 -1.2 1 0.000485785 0.00394492 0.00161085 0.00471592 0.00219602 0.00685002 0.00330729 0.0169857 0.00298899 0.00545004 0.00303426 0.023225 0.00395559 0.0124005 0.00437288 0.0233323 0.00560017 0.0177019 0.00709413 0.0406536
20 3 O 2.80834 3.69187 3.18632 -1.2 1 0.000848102 0.00363299 0.00154386 0.00368329 0.00208586 0.00607766 0.00311095 0.0173934 0.00301996 0.0055582 0.00251752 0.0240957 0.00342308 0.0127315 0.00479896 0.0241936 0.00530822 0.0168709 0.00615773 0.0427007
21 1 Mg 1.17857 2.37449 0 1.2 1 0.00249214 0.00332415 0.00189225 0.00414839 0.0014884 0.00538881 0.00236889 0.0171154 0.00248633 0.0062851 0.00280226 0.0225786 0.00316706 0.0130857 0.00383675 0.0218057 0.00470265 0.0147641 0.00486917 0.0405192
22 3 O 2.76143 3.69187 5.78248 -1.2 1 0.00187371 0.0045199 0.00169197 0.00404588 0.00203922 0.00533207 0.00300661 0.0171236 0.00277576 0.00579104 0.00261576 0.0225809 0.00463934 0.0125234 0.00560581 0.0234816 0.00626629 0.0182586 0.00718703 0.0401572
23 1 Mg -1.67381 2.41581 1.4948 1.2 1 0.00194685 0.00269942 0.002174 0.00473237 0.00135154 0.00594112 0.00230982 0.0165606 0.00250449 0.00579648 0.00214282 0.02386 0.00287855 0.0142388 0.00298705 0.0226314 0.0045564 0.016008 0.00470124 0.041566
24 2 Si 0.16286 0.350945 1.4948 2.4 1 0.00211782 0.0027862 0.00260826 0.00437236 0.00139039 0.00630543 0.00253341 0.0163105 0.00209745 0.00464632 0.00194212 0.0224182 0.00273809 0.0133927 0.00319848 0.0212344 0.00456647 0.0145629 0.00412931 0.0401479
25 3 O 0.15972 -1.26229 1.4948 -1.2 1 0.00217446 0.00319518 0.00288442 0.00434197 0.0016889 0.0059477 0.00217719 0.0163026 0.0020458 0.00488275 0.00262028 0.0220514 0.00299073 0.0137547 0.00298734 0.0222304 0.00419551 0.0145118 0.00362092 0.0405406
26 3 O 6.77654 1.32496 1.4948 -1.2 1 0.00171131 0.00375494 0.00110494 0.00472134 0.00123566 0.00592887 0.00195794 0.0166473 0.00212998 0.00512798 0.00169554 0.0232112 0.00311291 0.0133937 0.00362922 0.0223367 0.00471052 0.0154059 0.0042947 0.0405448
27 3 O -0.508028 1.05712 0.196716 -1.2 1 0.00210418 0.00273546 0.00327981 0.00413638 0.00117843 0.00558628 0.00200855 0.0167871 0.00160529 0.00604958 0.002549 0.0215102 0.00288787 0.0127664 0.00323759 0.0214771 0.00456634 0.0148543 0.00443914 0.0397845
28 3 O -0.552171 1.05712 2.79288 -1.2 1 0.00137188 0.00254209 0.00280702 0.00433673 0.00128192 0.00598566 0.00207941 0.0161036 0.00233515 0.00547399 0.00190561 0.0221699 0.00322026 0.0116798 0.00358151 0.0220756 0.00499549 0.0156353 0.00466984 0.0393651
29 1 Mg 6.31713 4.74899 0 1.2 1 0.00103078 0.0026735 0.00162129 0.00475134 0.00220635 0.0060241 0.00307517 0.0180165 0.00298241 0.00679583 0.00232184 0.0249407 0.00315915 0.0137098 0.00451018 0.0246107 0.00498823 0.016434 0.00593328 0.0424972
30 1 Mg 3.54847 9.45668 1.4948 1.2 1 0.000985333 0.00340619 0.00141135 0.00466158 0.00221054 0.00764167 0.00326341 0.0215499 0.00160949 0.00841342 0.00233582 0.0284318 0.00352217 0.01531 0.00413073 0.0287861 0.00431755 0.0178652 0.0036029 0.0482847
31 2 Si 5.36879 6.77254 1.4948 2.4 1 0.000355251 0.00297174 0.0013519 0.00520163 0.00278253 0.00697923 0.00367965 0.019702 0.0026836 0.00775937 0.00234636 0.0274606 0.00340474 0.0150666 0.00452174 0.0266988 0.00484345 0.0170633 0.00506125 0.0462747
32 3 O 5.41937 8.38578 1.4948 -1.2 1 0.000985182 0.00326024 0.00121058 0.00492478 0.00229685 0.00764993 0.00328242 0.0210767 0.0021402 0.00838401 0.00237054 0.0288979 0.00266326 0.0152722 0.00350521 0.0289212 0.00491896 0.0172954 0.00463307 0.0476024
33 3 O 1.75158 5.79852 1.4948 -1.2 1 0.000890621 0.00327436 0.00171578 0.00406456 0.00233173 0.00603 0.00320993 0.0196274 0.00263987 0.00713984 0.00258253 0.0277231 0.00356122 0.015178 0.00378598 0.0268311 0.00566569 0.0174184 0.00539124 0.0456558
34 3 O 4.67421 6.06637 0.196716 -1.2 1 0.000980406 0.00280257 0.00122143 0.00490077 0.00190581 0.00671423 0.00284794 0.0198243 0.00252647 0.00790889 0.00223131 0.0258358 0.0038071 0.0142517 0.00456068 0.0266247 0.00484472 0.0164668 0.00528945 0.0448184
35 1 Mg 6.26654 4.74899 2.9896 1.2 1 0.000918377 0.00339902 0.00134175 0.00502211 0.00254955 0.00662011 0.0037162 0.0181396 0.00335435 0.00658944 0.00221871 0.0254352 0.00393158 0.0141415 0.00535072 0.0251489 0.00586215 0.0176483 0.00682336 0.0433467
36 3 O 4.63043 6.06637 2.79288 -1.2 1 0.00156227 0.00364237 0.00145558 0.00472463 0.00228796 0.00667443 0.00361962 0.0194769 0.00329947 0.00760381 0.00241547 0.0258878 0.0042631 0.0142456 0.00495703 0.0269627 0.00590864 0.0180202 0.00631166 0.0453088
37 1 Mg -1.12976 4.79031 4.4844 1.2 1 0.00184579 0.00405764 0.00173403 0.00455257 0.00239148 0.00633021 0.00325763 0.0180646 0.00340457 0.0062953 0.0028938 0.0256737 0.00412601 0.0138032 0.00511737 0.0259059 0.00704011 0.0194043 0.00767584 0.0437652
38 2 Si -2.9517 7.47444 4.4844 2.4 1 0.00236768 0.00417709 0.0010492 0.00477248 0.00267424 0.006524 0.00376883 0.0205012 0.00299802 0.00727348 0.00310625 0.0270431 0.00456272 0.0154157 0.00561647 0.0276943 0.00667222 0.0190827 0.0078047 0.04703
39 3 O -3.00198 5.86121 4.4844 -1.2 1 0.00225336 0.00427057 0.000757761 0.00467691 0.00299229 0.00619702 0.00401412 0.0186777 0.00318289 0.00677177 0.00288397 0.0256133 0.00452431 0.0135248 0.00495719 0.0269093 0.0063605 0.0196361 0.00793626 0.0447119
40 3 O 0.666315 8.44846 4.4844 -1.2 1 0.00327491 0.00500433 0.001152 0.00434531 0.00250766 0.00741662 0.00260464 0.0210174 0.00285658 0.00711858 0.00336339 0.0285198 0.00490287 0.0153182 0.00504553 0.0288767 0.00594866 0.0193969 0.00755532 0.0483818
41 3 O -2.21213 8.18062 3.18632 -1.2 1 0.00231259 0.00433139 0.000897761 0.00436159 0.00237641 0.00641873 0.00293061 0.0209334 0.00248354 0.00772216 0.00267871 0.0275873 0.00451252 0.015286 0.005344 0.0285848 0.00577475 0.0187121 0.00628801 0.0484451
42 3 O -2.25864 8.18062 5.78248 -1.2 1 0.00404723 0.00442518 0.00117844 0.00413858 0.00267567 0.00578203 0.0029682 0.0206265 0.00277854 0.00740985 0.00305441 0.0264022 0.00463655 0.0156855 0.005236 0.0287127 0.00654617 0.0203954 0.00793934 0.0477399
43 1 Mg 1.20893 7.12349 2.9896 1.2 1 0.00153378 0.00416747 0.00171798 0.00405143 0.0025765 0.0066802 0.00364448 0.0197822 0.00260285 0.00763736 0.00284932 0.0278646 0.00393851 0.0151014 0.00419924 0.0271392 0.00557325 0.0181606 0.00590912 0.0468049
44 1 Mg 4.00982 7.08218 4.4844 1.2 1 0.00204779 0.00433134 0.00115226 0.00455424 0.00232284 0.00646069 0.0036618 0.0202255 0.00329075 0.00692323 0.00297393 0.0268503 0.00441322 0.0157743 0.00591058 0.0278084 0.00708768 0.0190969 0.00778158 0.046748
45 2 Si 2.17861 9.14704 4.4844 2.4 1 0.00309998 0.00438515 0.00174073 0.00446867 0.0027741 0.00737494 0.00349873 0.0212634 0.00247791 0.00741033 0.00295924 0.0277474 0.00476188 0.0161075 0.00482601 0.0289865 0.00571327 0.0191087 0.00642251 0.0498587
46 3 O 2.18828 10.7603 4.4844 -1.2 1 0.0037581 0.00455621 0.0019377 0.00411491 0.00257175 0.00704683 0.00312487 0.0210528 0.00205284 0.00767193 0.00224831 0.0286593 0.00451483 0.0151655 0.00488532 0.0298051 0.00583742 0.0192808 0.00598897 0.0500452
47 3 O -4.43805 8.17302 4.4844 -1.2 1 0.0019476 0.00454572 0.00141641 0.00501726 0.00232578 0.00767973 0.0031944 0.020785 0.00309893 0.0074744 0.00335117 0.0281005 0.00503511 0.015409 0.00504316 0.0288446 0.00652361 0.0194718 0.00828655 0.0477709
48 3 O 2.89193 8.44087 3.18632 -1.2 1 0.00221855 0.0040342 0.00163296 0.0041317 0.00258735 0.00697785 0.00329718 0.0205288 0.0026942 0.00812478 0.0027025 0.0275049 0.00426033 0.0153492 0.00498671 0.0285253 0.00584383 0.0184508 0.00538938 0.0482031
49 1 Mg 1.25915 7.12349 0 1.2 1 0.00115324 0.00272879 0.000871314 0.00441798 0.00186042 0.00702252 0.00285937 0.0202338 0.00271747 0.00812437 0.00245637 0.0272463 0.00350629 0.0143418 0.003651 0.0274896 0.00471706 0.0171566 0.00453234 0.0457488
50 3 O 2.84547 8.44087 5.78248 -1.2 1 0.00387551 0.00516006 0.00141089 0.00429554 0.0023814 0.0064382 0.00340458 0.0207083 0.00261234 0.00725509 0.00316698 0.0267838 0.00543734 0.0157663 0.00532538 0.0287921 0.00600676 0.0206714 0.00740079 0.0489336
51 1 Mg -1.59284 7.16481 1.4948 1.2 1 0.000701144 0.00332733 0.000836496 0.00450567 0.00180195 0.00626929 0.00291496 0.0199762 0.00274563 0.00757985 0.00188581 0.0274913 0.00376589 0.0151915 0.00419256 0.0269885 0.00490197 0.0174423 0.00542137 0.0465216
52 2 Si 0.240329 5.09994 1.4948 2.4 1 0.00120172 0.00354007 0.00154608 0.00411226 0.00187069 0.00665644 0.00297595 0.0190215 0.00300385 0.00707554 0.00225522 0.0256678 0.00333447 0.014345 0.00433556 0.0248451 0.00529236 0.0168912 0.00522761 0.0445486
53 3 O 0.234538 3.48671 1.4948 -1.2 1 0.0017286 0.00351597 0.00247905 0.00424274 0.00175589 0.00634779 0.00256026 0.0178629 0.00331492 0.00649975 0.00241694 0.0241223 0.00362532 0.0134496 0.00411693 0.0242018 0.00558961 0.0161157 0.00545001 0.042205
54 3 O 6.85564 6.07396 1.4948 -1.2 1 0.000609519 0.00284884 0.00166438 0.00478331 0.00240407 0.00606426 0.00317648 0.019939 0.00292491 0.00735345 0.00213867 0.0275533 0.00357991 0.0143951 0.00503788 0.0267884 0.00574228 0.0175547 0.00599174 0.0452366
55 3 O -0.429565 5.80612 0.196716 -1.2 1 0.00141686 0.00303542 0.00166557 0.00406256 0.00180386 0.00685877 0.00225876 0.019617 0.00290594 0.00813113 0.00248785 0.0255113 0.00317719 0.0141713 0.00417667 0.0259605 0.00524692 0.0167161 0.00554262 0.0449336
56 3 O -0.473377 5.80612 2.79288 -1.2 1 0.00152653 0.00364465 0.00171281 0.00429256 0.00232325 0.00667537 0.00317752 0.0194667 0.00310275 0.00749368 0.00282801 0.025753 0.00417962 0.0142156 0.00466377 0.0262873 0.00617705 0.0186511 0.00654805 0.0455335
57 1 Mg 6.40169 9.49799 0 1.2 1 0.000397489 0.00356536 0.00133282 0.00475653 0.0017761 0.0080441 0.00211255 0.0211588 0.00168347 0.00895975 0.00181325 0.0286705 0.00263341 0.0146375 0.00303567 0.0296653 0.00368978 0.0175752 0.00418157 0.0472102
58 1 Mg 3.64209 14.2057 1.4948 1.2 1 0.00220745 0.00307134 0.0013853 0.00453729 0.00163467 0.00867474 0.00210939 0.0217441 0.00145817 0.00874336 0.00213174 0.02807 0.00252995 0.0159285 0.00294683 0.0295077 0.00310425 0.016906 0.00296953 0.0484411
59 2 Si 5.45748 11.5215 1.4948 2.4 1 0.00192491 0.00332643 0.00155777 0.00469038 0.00183964 0.00806195 0.00246189 0.0213154 0.0016408 0.00822433 0.00170462 0.0286986 0.00263273 0.0160657 0.00366916 0.0290252 0.00396601 0.0167783 0.00331451 0.0485904
60 3 O 5.51101 13.1348 1.4948 -1.2 1 0.00213905 0.00315422 0.00152075 0.00455821 0.00141823 0.00883186 0.00199875 0.0213745 0.0016062 0.00865265 0.00169599 0.0292359 0.00227379 0.0158689 0.00325822 0.02979 0.00337334 0.0165626 0.00322175 0.048387
61 3 O 1.83851 10.5475 1.4948 -1.2 1 0.00121191 0.00360964 0.00154543 0.00492385 0.001875 0.00769818 0.00268883 0.0216686 0.00173593 0.00833845 0.00218182 0.0293957 0.00288942 0.0154781 0.00348991 0.029596 0.00404864 0.0177315 0.00306458 0.0487933
62 3 O 4.7611 10.8154 0.196716 -1.2 1 0.000561022 0.00302689 0.00153942 0.00479658 0.00191463 0.00838354 0.00242967 0.0215455 0.00142421 0.00870311 0.00192658 0.0281483 0.00287073 0.0154658 0.00387804 0.0293971 0.00371159 0.01687 0.0034502 0.0479799
63 1 Mg 6.35203 9.49799 2.9896 1.2 1 0.00193097 0.00410923 0.00130845 0.00478589 0.00258148 0.0076207 0.00357543 0.0206343 0.00289658 0.00835468 0.00188838 0.029087 0.00399245 0.0156705 0.00400042 0.0288786 0.00455992 0.0180332 0.00504225 0.0484528
64 3 O 4.71833 10.8154 2.79288 -1.2 1 0.00265087 0.00376357 0.00162452 0.00436001 0.00225741 0.00813561 0.00228845 0.0215728 0.00186288 0.00870531 0.00193915 0.0281844 0.00348552 0.0155072 0.00422397 0.0297427 0.00495849 0.0180664 0.00494837 0.0494568
65 1 Mg -1.0438 9.53931 4.4844 1.2 1 0.00352401 0.00481157 0.00153591 0.00413965 0.00299449 0.00655445 0.00262001 0.0210066 0.0025893 0.00781302 0.00272294 0.0282514 0.00414445 0.0161534 0.0048077 0.0294484 0.00581589 0.0192703 0.00668665 0.0492875
66 2 Si -2.8604 12.2234 4.4844 2.4 1 0.00384277 0.00420303 0.00147448 0.00425889 0.00275596 0.00768753 0.00315342 0.0217007 0.00274727 0.00818473 0.002495 0.0280278 0.00439158 0.0160197 0.00472136 0.029401 0.00524907 0.0188236 0.00642218 0.0502248
67 3 O -2.91391 10.6102 4.4844 -1.2 1 0.0036094 0.00461901 0.00138447 0.00417754 0.00261224 0.0069692 0.00314994 0.020671 0.00261596 0.007302 0.00204197 0.0283165 0.00445169 0.0155401 0.00446066 0.0300315 0.00545814 0.019066 0.00659908 0.0497433
68 3 O 0.7596 13.1975 4.4844 -1.2 1 0.003952 0.00405442 0.00143425 0.00442551 0.00266983 0.00846865 0.00271243 0.0220754 0.00246226 0.00801433 0.00290837 0.0282556 0.00426705 0.0159347 0.00428443 0.0293822 0.00538726 0.0189012 0.00630198 0.0495402
69 3 O -2.12001 12.9296 3.18632 -1.2 1 0.00391318 0.00374351 0.00154897 0.00390872 0.00252426 0.00750006 0.00246086 0.0219522 0.00212874 0.00824446 0.00234447 0.0276628 0.00389316 0.0159153 0.00501411 0.0298784 0.00477998 0.0181712 0.00513828 0.0497423
70 3 O -2.16532 12.9296 5.78248 -1.2 1 0.00468903 0.00450149 0.00139317 0.00396377 0.00269522 0.00661404 0.00240404 0.0215175 0.00231688 0.00727537 0.0026322 0.0270225 0.00426612 0.0160773 0.00482177 0.0299541 0.00557557 0.019908 0.00659894 0.0502106
71 1 Mg 1.29891 11.8725 2.9896 1.2 1 0.00274282 0.00349394 0.00165415 0.00463288 0.00223994 0.00796231 0.00295792 0.0211913 0.00227495 0.00834464 0.00204515 0.0289189 0.00359451 0.0159747 0.00389553 0.0294769 0.00432416 0.0175649 0.00457195 0.0489779
72 1 Mg 4.10033 11.8312 4.4844 1.2 1 0.00353171 0.00378722 0.00185587 0.00429111 0.00245124 0.00713235 0.00267662 0.0216083 0.00213405 0.00787428 0.00271971 0.0286036 0.00421183 0.0169111 0.00562526 0.0295699 0.00627202 0.0188557 0.00600719 0.0502104
73 2 Si 2.27333 13.896 4.4844 2.4 1 0.00366675 0.00362636 0.00144483 0.00448816 0.00284803 0.0078144 0.00325135 0.0217849 0.00201366 0.00768623 0.00247952 0.0276293 0.00402323 0.0163897 0.00436917 0.0292989 0.00481009 0.0185576 0.00582388 0.0501754
74 3 O 2.28634 15.5093 4.4844 -1.2 1 0.0037819 0.00353097 0.00138237 0.00432063 0.00289653 0.00719834 0.00294389 0.0208105 0.00232764 0.00737416 0.00215899 0.0278911 0.0036676 0.0157322 0.00398015 0.0297811 0.00499073 0.0184438 0.00570029 0.0496404
75 3 O -4.34533 12.922 4.4844 -1.2 1 0.00367111 0.00428268 0.00163531 0.00421401 0.00280645 0.00825909 0.00297486 0.021642 0.00260375 0.0080676 0.00253998 0.0281431 0.00420763 0.0157436 0.00482892 0.0296176 0.00574052 0.0189389 0.00696462 0.0494222
76 3 O 2.98455 13.1899 3.18632 -1.2 1 0.00328341 0.0032867 0.00134199 0.00427678 0.00232928 0.00775674 0.00239344 0.0218763 0.0018557 0.00844703 0.00225898 0.0275679 0.00356476 0.0159271 0.00454478 0.029601 0.00520682 0.0180138 0.00484941 0.0493228
77 1 Mg 1.34779 11.8725 0 1.2 1 0.000687775 0.00282063 0.00101715 0.00507722 0.00150063 0.00873326 0.00185803 0.0213011 0.00132928 0.00899374 0.00189612 0.0286937 0.00279232 0.0148544 0.00290185 0.0301627 0.00296237 0.0172527 0.00326993 0.0474597
78 3 O 2.93934 13.1899 5.78248 -1.2 1 0.00393126 0.00420185 0.00166729 0.00400948 0.00279889 0.00691843 0.00255333 0.0216473 0.00230518 0.00728165 0.00327024 0.026675 0.00438189 0.0157599 0.00504728 0.0300632 0.00552244 0.020637 0.00617332 0.0504625
79 1 Mg -1.50344 11.9138 1.4948 1.2 1 0.00162961 0.00345704 0.00134887 0.0046078 0.0016098 0.00814724 0.00207475 0.0217705 0.00231916 0.00836624 0.00172873 0.0285943 0.00367642 0.0158851 0.00355843 0.0296211 0.00343128 0.0174484 0.0035318 0.0486861
80 2 Si 0.326006 9.84894 1.4948 2.4 1 0.000448422 0.00332589 0.00111419 0.00504727 0.00181854 0.00797325 0.00218255 0.0211837 0.00210629 0.0083987 0.00153302 0.0286618 0.00320626 0.0154082 0.00390626 0.0288161 0.00379693 0.0175813 0.0033275 0.0482726
81 3 O 0.317364 8.23571 1.4948 -1.2 1 0.00106383 0.00369374 0.000801979 0.00446218 0.00185678 0.00752638 0.00231563 0.0204221 0.00241877 0.00786634 0.00178292 0.0285526 0.00379886 0.0154144 0.00418803 0.0283279 0.00451823 0.0174327 0.00418432 0.0475038
82 3 O 6.94307 10.823 1.4948 -1.2 1 0.00196119 0.0036984 0.00115598 0.00451729 0.00171142 0.00757656 0.00273486 0.0220412 0.00224652 0.00840335 0.00135669 0.0292609 0.00307864 0.015529 0.00378906 0.0297008 0.00387305 0.0177656 0.00389755 0.0487663
83 3 O -0.343122 10.5551 0.196716 -1.2 1 0.000665785 0.00318455 0.0010437 0.00486533 0.00171933 0.00815579 0.00219866 0.021225 0.00186988 0.00893331 0.00191526 0.0280845 0.00347904 0.0151994 0.00410414 0.0292098 0.00347914 0.0171734 0.00349141 0.047776
84 3 O -0.385966 10.5551 2.79288 -1.2 1 0.00289436 0.00405788 0.00100247 0.00433075 0.00250523 0.00786654 0.00230112 0.0217377 0.00190124 0.00869473 0.00236204 0.0275609 0.00417306 0.0157013 0.00455445 0.0295227 0.004917 0.0184593 0.00467628 0.0495355
85 1 Mg 6.49448 14.247 0 1.2 1 0.000827476 0.00337942 0.00160787 0.00474872 0.00113899 0.00897689 0.00142609 0.0214518 0.00134081 0.00860045 0.00146496 0.028681 0.00181046 0.0154026 0.00242508 0.0300821 0.00290486 0.0164416 0.00270287 0.0472177
86 1 Mg 3.74457 18.9547 1.4948 1.2 1 0.00255083 0.00288646 0.000988467 0.00425835 0.00154475 0.00837576 0.00131701 0.0223181 0.00174229 0.00801104 0.00241707 0.0275109 0.00251968 0.0164911 0.00364301 0.028696 0.00332051 0.0163602 0.00303895 0.0484961
87 2 Si 5.55495 16.2705 1.4948 2.4 1 0.00250497 0.00260757 0.0013294 0.00459477 0.00164937 0.00868589 0.00159456 0.0215354 0.00129783 0.00798922 0.00134602 0.0283856 0.00244657 0.0159917 0.00297229 0.0289617 0.00330292 0.0159803 0.00322123 0.0484772
88 3 O 5.6115 17.8838 1.4948 -1.2 1 0.00257327 0.00263996 0.0013521 0.00446891 0.00164194 0.00892816 0.00159675 0.0218268 0.00157382 0.00790731 0.00166448 0.0284909 0.00212874 0.016306 0.00299733 0.0288256 0.00289238 0.0159777 0.00326354 0.0482791
89 3 O 1.93416 15.2965 1.4948 -1.2 1 0.00247827 0.00277664 0.0013842 0.0046363 0.00175936 0.00825038 0.00199261 0.0219839 0.00178276 0.00804737 0.00150126 0.0287394 0.00206054 0.0160629 0.00295203 0.0296706 0.00325443 0.0165361 0.00295356 0.0487191
90 3 O 4.85636 15.5644 0.196716 -1.2 1 0.00157794 0.0023963 0.00134321 0.00467139 0.00111957 0.00902719 0.00139806 0.0215782 0.000877993 0.00825055 0.00150322 0.0279494 0.00245015 0.0159412 0.00331262 0.0292841 0.00295829 0.0158768 0.00262655 0.0478272
91 1 Mg 6.44662 14.247 2.9896 1.2 1 0.00261028 0.00342475 0.00112186 0.00460066 0.00250566 0.0085526 0.00298241 0.0209925 0.00257592 0.00860681 0.00175589 0.0290856 0.00321166 0.0161389 0.00322966 0.0290343 0.00337414 0.0173788 0.00425176 0.0489263
92 3 O 4.81537 15.5644 2.79288 -1.2 1 0.00327059 0.0027239 0.00119737 0.00454551 0.0023992 0.00848748 0.00183218 0.0219883 0.00132849 0.00865177 0.00183826 0.0277188 0.00292794 0.0165162 0.00371074 0.0293242 0.00419301 0.0172393 0.0044422 0.0490979
93 1 Mg -0.948271 14.2883 4.4844 1.2 1 0.00416454 0.00361747 0.00147828 0.00383152 0.00259188 0.00756831 0.0028319 0.0214516 0.00249793 0.00815191 0.00289414 0.0276261 0.00338306 0.0165438 0.00516184 0.0297198 0.00524444 0.0183971 0.00587858 0.0494137
94 2 Si -2.75928 16.9724 4.4844 2.4 1 0.00373803 0.00308796 0.00120867 0.00417205 0.00274657 0.00765943 0.00287398 0.0214553 0.00238361 0.00782898 0.00265987 0.0269884 0.00389584 0.0165906 0.00439269 0.0288268 0.00456066 0.0177412 0.00561612 0.0494229
95 3 O -2.81617 15.3592 4.4844 -1.2 1 0.00403839 0.00339134 0.00147835 0.00403293 0.00297975 0.0074513 0.00292318 0.0207396 0.00251722 0.00752186 0.00228384 0.0278786 0.00364783 0.0156587 0.00407072 0.0299269 0.00520819 0.0178716 0.00636411 0.0492194
96 3 O 0.862762 17.9465 4.4844 -1.2 1 0.00356572 0.0034212 0.00108684 0.00448677 0.00282096 0.00837936 0.00263755 0.0219161 0.00239162 0.00763795 0.00275172 0.0276141 0.00355999 0.016695 0.00447482 0.0287125 0.00517045 0.0181661 0.00552925 0.0496133
97 3 O -2.0185 17.6786 3.18632 -1.2 1 0.00364121 0.00301826 0.00142688 0.00385337 0.00251759 0.00744682 0.00238589 0.0220847 0.00213886 0.00787714 0.00219993 0.0270095 0.00363823 0.0162441 0.00452137 0.0296193 0.00437044 0.0174088 0.00473714 0.0494167
98 3 O -2.06164 17.6786 5.78248 -1.2 1 0.00368168 0.00344094 0.00134265 0.00381413 0.00282467 0.00650884 0.00228329 0.0215373 0.0024275 0.00753573 0.00244769 0.0262581 0.00339816 0.0167847 0.00447941 0.029587 0.00536514 0.0192618 0.0058562 0.0495078
99 1 Mg 1.39817 16.6215 2.9896 1.2 1 0.00298224 0.00283708 0.001449 0.00469417 0.00251648 0.00816501 0.00274242 0.0210677 0.00240034 0.00809493 0.0020289 0.0281627 0.00273196 0.0164293 0.0034092 0.0291647 0.00379412 0.0167914 0.00398339 0.0485518
100 1 Mg 4.20062 16.5802 4.4844 1.2 1 0.00355559 0.00279679 0.00149151 0.00419832 0.00276322 0.00755329 0.00248253 0.0214893 0.00291834 0.00762269 0.00276165 0.0276311 0.00351298 0.0171285 0.00576029 0.0291232 0.00575606 0.0182195 0.00564877 0.0492923
101 2 Si 2.37796 18.645 4.4844 2.4 1 0.00309664 0.00284965 0.00131788 0.00471045 0.00288397 0.00781956 0.00281655 0.0216746 0.00242914 0.00783867 0.00266759 0.026991 0.00361345 0.0169582 0.00447473 0.0287753 0.00484034 0.017611 0.00513002 0.0502361
102 3 O 2.39434 20.2583 4.4844 -1.2 1 0.00325769 0.00317613 0.00120618 0.0046501 0.00299967 0.00674973 0.00268597 0.0210008 0.0029114 0.00722958 0.00206803 0.0273075 0.00304921 0.0165269 0.00394816 0.0291765 0.00519474 0.0176829 0.00598297 0.0496904
103 3 O -4.24274 17.671 4.4844 -1.2 1 0.00350196 0.00338934 0.00129596 0.00447393 0.0028851 0.00843201 0.00262292 0.0218729 0.00257388 0.00777579 0.00226807 0.0274265 0.00333441 0.0164773 0.00454683 0.0288696 0.00553781 0.0183388 0.00611288 0.0490464
104 3 O 3.08659 17.9389 3.18632 -1.2 1 0.00309179 0.00253144 0.00121116 0.00419365 0.00264697 0.00759184 0.00218172 0.021834 0.00220084 0.00789609 0.0021565 0.0268946 0.00326413 0.0165777 0.00437597 0.0291417 0.00488556 0.0174601 0.0048605 0.0492132
105 1 Mg 1.44478 16.6215 0 1.2 1 0.00177973 0.0024528 0.00110708 0.00450929 0.00115772 0.00885179 0.00118118 0.02149 0.00128048 0.0081282 0.00145728 0.0281815 0.00239753 0.0156062 0.00238104 0.0293534 0.00264426 0.0160807 0.0030334 0.0478045
106 3 O 3.0436 17.9389 5.78248 -1.2 1 0.00355106 0.00349973 0.0013509 0.00444291 0.00258609 0.00693486 0.00230718 0.0215006 0.00209559 0.00751858 0.00255454 0.0263472 0.00340784 0.0164232 0.00436658 0.02939 0.00537329 0.0195648 0.00575495 0.0498134
107 1 Mg -1.40524 16.6628 1.4948 1.2 1 0.00218345 0.00291033 0.00122612 0.0047626 0.00165954 0.00856608 0.00203323 0.0222941 0.00185329 0.00817363 0.00184737 0.0281684 0.00312552 0.0166034 0.00299069 0.0292146 0.00253569 0.0166517 0.00296826 0.0485581
108 2 Si 0.420358 14.5979 1.4948 2.4 1 0.00231797 0.0028549 0.00132415 0.00528333 0.00200293 0.00903184 0.00199943 0.0215496 0.00157639 0.00816805 0.00156906 0.0281638 0.00298016 0.0163465 0.00362621 0.0286858 0.00322136 0.0163682 0.00305286 0.0483935
109 3 O 0.408732 12.9847 1.4948 -1.2 1 0.00228789 0.00299618 0.000950838 0.00497685 0.00190572 0.00900953 0.00174705 0.0213323 0.00209241 0.00829595 0.00162443 0.0288646 0.00318372 0.0158303 0.00320582 0.0295881 0.00302915 0.0168207 0.00335203 0.0484053
110 3 O 7.03923 15.572 1.4948 -1.2 1 0.00233185 0.00289956 0.00116777 0.00449443 0.00175083 0.00807253 0.00234797 0.0218645 0.00228869 0.0081017 0.00137914 0.0290453 0.00257111 0.0160927 0.00300423 0.0295509 0.00296714 0.0166346 0.00341237 0.0486732
111 3 O -0.248332 15.3041 0.196716 -1.2 1 0.0016324 0.00275364 0.00127977 0.00478255 0.00108791 0.00894209 0.00183073 0.0213084 0.0014431 0.00821861 0.00155736 0.0277946 0.00291428 0.0158174 0.00370767 0.0292643 0.00272637 0.0160971 0.00283867 0.0477513
112 3 O -0.289436 15.3041 2.79288 -1.2 1 0.00377437 0.00317079 0.00120628 0.00428072 0.00246441 0.00848311 0.00223665 0.0219717 0.00164827 0.00852829 0.00204308 0.0272846 0.00308256 0.0163774 0.00376204 0.0293387 0.00404375 0.0173016 0.00431332 0.0492114
113 1 Mg 6.59566 18.996 0 1.2 1 0.00157585 0.00294932 0.00146999 0.00462818 0.000829777 0.00861305 0.00125983 0.0221237 0.00111594 0.00768532 0.00141069 0.0281488 0.00235563 0.0159424 0.00234491 0.0287523 0.00247453 0.0161049 0.0026918 0.0476709
114 1 Mg 3.85574 23.7037 1.4948 1.2 1 0.00248364 0.00232052 0.00119153 0.00426428 0.00142148 0.00745168 0.00130786 0.0230991 0.0017979 0.00740864 0.00202962 0.0268833 0.00236241 0.0170867 0.00334345 0.028236 0.00359372 0.0171056 0.0034366 0.0494078
115 2 Si 5.66125 21.0195 1.4948 2.4 1 0.00225968 0.0024479 0.000929343 0.0046351 0.00186263 0.00811829 0.00155357 0.0220473 0.00142263 0.00747145 0.00174111 0.0279314 0.00238269 0.0171621 0.00282704 0.0279819 0.00333277 0.0159926 0.00365438 0.0489937
116 3 O 5.72074 22.6328 1.4948 -1.2 1 0.00272007 0.00238729 0.00142025 0.00435717 0.00165183 0.00819761 0.00175409 0.0223349 0.00175876 0.00720485 0.0013402 0.0277881 0.00218208 0.0170616 0.00297692 0.0282429 0.003302 0.0163473 0.00354922 0.0488463
117 3 O 2.03867 20.0455 1.4948 -1.2 1 0.00220506 0.00308411 0.00110172 0.0046504 0.00163501 0.00767436 0.00207384 0.0223598 0.00198993 0.00740778 0.0016512 0.0282942 0.00214042 0.0170207 0.0024597 0.0288236 0.00344893 0.0161428 0.00347554 0.0490178
118 3 O 4.96004 20.3134 0.196716 -1.2 1 0.00201546 0.00233293 0.00107588 0.00450045 0.00100606 0.00833734 0.00102251 0.0217404 0.000763531 0.00737736 0.00165117 0.0276493 0.0025857 0.016058 0.00329536 0.0287075 0.00303065 0.0154657 0.00295589 0.0481848
119 1 Mg 6.55057 18.996 2.9896 1.2 1 0.00221407 0.00295625 0.000929253 0.00426923 0.00244453 0.00799143 0.00284349 0.021193 0.00238737 0.00789097 0.00184576 0.0284862 0.00290428 0.017023 0.00291789 0.0286928 0.00342824 0.0166483 0.00434459 0.0487641