ITEM: TIMESTEP
83400
ITEM: NUMBER OF ATOMS
10500
ITEM: BOX BOUNDS xy xz yz pp pp pp
0	15.2977	5.09925
0	118.725	0
0	89.688	0
ITEM: ATOMS id type element xu yu zu q Q_1 Q_2 Q_3 Q_4 Q_5 Q_6 Q_7 Q_8 Q_9 Q_10 Q_11 Q_12 Q_13 Q_14 Q_15 Q_16 Q_17 Q_18 Q_19 Q_20 Q_21
1 1 Mg 6.2404 -6.37941e-06 0 1.2 1 0.000857751 0.00434489 0.00126322 0.00452973 0.00153821 0.00545103 0.00215723 0.0162879 0.00210496 0.00554299 0.00196284 0.0220436 0.00236474 0.013463 0.00341319 0.0208702 0.00394752 0.0139837 0.00401666 0.0408778
2 1 Mg 3.46349 4.70768 1.4948 1.2 1 0.00143418 0.00321381 0.00128746 0.0039525 0.00180032 0.00585367 0.0034522 0.0185181 0.00299139 0.00648227 0.00280187 0.0255442 0.00306643 0.0137665 0.00427095 0.0252355 0.00526395 0.0166216 0.00581934 0.0438782
3 2 Si 5.2885 2.02354 1.4948 2.4 1 0.000772411 0.00360209 0.00200688 0.00416011 0.00182147 0.00547768 0.00245557 0.0168005 0.00265433 0.00572392 0.00183147 0.0230068 0.00276045 0.0133003 0.00317031 0.0216065 0.00368006 0.0149745 0.00412636 0.0411135
4 3 O 5.33628 3.63678 1.4948 -1.2 1 0.000841835 0.00318771 0.00166238 0.00453112 0.00196532 0.00607454 0.00282462 0.0176434 0.00243135 0.00632889 0.00198056 0.0249148 0.00250057 0.0135146 0.00398006 0.0240013 0.00497868 0.0159348 0.00570171 0.0426705
5 3 O 1.67294 1.04952 1.4948 -1.2 1 0.00138058 0.00350478 0.00206446 0.0037501 0.00162772 0.0054196 0.00234516 0.0169329 0.00235111 0.00581381 0.00218723 0.0227622 0.00251481 0.0127016 0.00328638 0.0220824 0.00452068 0.0153193 0.00466098 0.0403346
6 3 O 4.59532 1.31737 0.196716 -1.2 1 0.000747634 0.00340277 0.00204547 0.0039621 0.00200757 0.00541094 0.00235414 0.0171986 0.00265905 0.00589425 0.00173625 0.0225203 0.00302161 0.0126731 0.00408773 0.0216962 0.00401503 0.0146412 0.00454292 0.0411642
7 1 Mg 6.18956 -6.37941e-06 2.9896 1.2 1 0.00149456 0.00478414 0.00174472 0.00432814 0.00139133 0.00546064 0.00232275 0.0157646 0.00283057 0.00504123 0.00228687 0.0221827 0.00254343 0.0133381 0.00334935 0.0209175 0.00451974 0.0141078 0.00484434 0.0390319
8 3 O 4.55118 1.31737 2.79288 -1.2 1 0.0016933 0.00453722 0.00203419 0.00412523 0.00193169 0.00546507 0.00265761 0.0167921 0.00238414 0.00629159 0.00244751 0.0213376 0.00316375 0.0123547 0.00314691 0.0214499 0.00497128 0.0150587 0.00531093 0.0398927
9 1 Mg -1.20682 0.0413099 4.4844 1.2 1 0.00102995 0.00301454 0.00197665 0.00453725 0.00136551 0.00539331 0.00206981 0.015477 0.0023409 0.00534484 0.00208747 0.0216735 0.00282435 0.0112234 0.00341684 0.0204324 0.0052123 0.0147447 0.00538553 0.0378905
10 2 Si -3.0337 2.72544 4.4844 2.4 1 0.00116707 0.00374171 0.00176336 0.00488149 0.00238498 0.00592244 0.0031611 0.0159626 0.00319678 0.00568869 0.00212662 0.0229196 0.00297958 0.012443 0.00366478 0.0220948 0.00538291 0.0167798 0.00604507 0.0383715
11 3 O -3.08099 1.11221 4.4844 -1.2 1 0.00147687 0.00404218 0.00190811 0.00428643 0.00149819 0.00526222 0.00225039 0.0151637 0.00308144 0.00520339 0.00230569 0.0213697 0.0027433 0.0109534 0.00330319 0.0210918 0.00516898 0.0154403 0.00562784 0.0372702
12 3 O 0.582463 3.69946 4.4844 -1.2 1 0.00134187 0.00450587 0.00227027 0.00428529 0.00247434 0.00640033 0.00373102 0.016654 0.0030691 0.00612131 0.00302762 0.0239449 0.00392257 0.0124471 0.00380988 0.0236165 0.00682419 0.017844 0.007964 0.040205
13 3 O -2.29524 3.43162 3.18632 -1.2 1 0.000916071 0.00307864 0.00237296 0.0045479 0.00227 0.00588676 0.00280456 0.0175219 0.00314588 0.00666084 0.00283605 0.0239663 0.00307251 0.0128334 0.00422285 0.023951 0.00592983 0.0169601 0.00640015 0.0413593
14 3 O -2.34216 3.43162 5.78248 -1.2 1 0.000604899 0.00388087 0.00155602 0.0048272 0.00267796 0.00549699 0.00328222 0.0160532 0.00286516 0.00647937 0.00286028 0.0223399 0.00421217 0.011898 0.00395162 0.0227529 0.00621244 0.0182636 0.00710292 0.0382675
15 1 Mg 1.12778 2.37449 2.9896 1.2 1 0.00142749 0.0036267 0.00235715 0.00413388 0.0023222 0.00556349 0.00296605 0.0167018 0.00262491 0.00581469 0.00235466 0.0230988 0.00310837 0.0128348 0.00304048 0.0219482 0.00474677 0.0160111 0.00570215 0.0406644
16 1 Mg 3.92855 2.33318 4.4844 1.2 1 0.00204057 0.00440438 0.00136141 0.00433552 0.00168527 0.00543208 0.00374317 0.0162948 0.00315749 0.00542656 0.00315818 0.0222164 0.00327512 0.0129207 0.00487958 0.0216126 0.00640423 0.0163343 0.00688762 0.039228
17 2 Si 2.09341 4.39804 4.4844 2.4 1 0.00156474 0.00411697 0.00196694 0.00406192 0.00286423 0.00575128 0.00366568 0.0175415 0.00331582 0.00638597 0.00345 0.0239449 0.00426304 0.0138455 0.00398139 0.0238846 0.006499 0.0181078 0.00840695 0.0419082
18 3 O 2.09991 6.01128 4.4844 -1.2 1 0.00186128 0.00443554 0.00142837 0.00369868 0.00296687 0.00627119 0.00342301 0.0183939 0.00262674 0.00681407 0.00327166 0.0259826 0.00380357 0.0140892 0.00424506 0.0266024 0.0064333 0.0189722 0.00806691 0.0439168
19 3 O -4.52137 3.42402 4.4844 -1.2 1 0.00187899 0.00417343 0.00212425 0.00450361 0.0023603 0.00681748 0.00357688 0.0162747 0.00347024 0.00586267 0.00307375 0.0227987 0.00346191 0.0123875 0.00379444 0.022297 0.00633364 0.0167847 0.00731371 0.0398065
20 3 O 2.80834 3.69187 3.18632 -1.2 1 0.00159627 0.00370556 0.00132295 0.00343888 0.00192575 0.00551114 0.0031554 0.0170438 0.00293782 0.00579522 0.00282727 0.0237553 0.00357717 0.0129713 0.00445971 0.0234458 0.00553087 0.016742 0.00659848 0.0419435
21 1 Mg 1.17857 2.37449 0 1.2 1 0.00168982 0.00360109 0.00178714 0.00369411 0.00156373 0.0053355 0.00221462 0.0172426 0.00258703 0.00635661 0.0024201 0.0232312 0.00272509 0.0129599 0.00344236 0.0218154 0.00406534 0.0147563 0.0046368 0.0411098
22 3 O 2.76143 3.69187 5.78248 -1.2 1 0.0022175 0.00442123 0.00166333 0.00423181 0.00215865 0.00517599 0.00284745 0.016278 0.00320878 0.00645284 0.00283714 0.0221793 0.00439724 0.0123364 0.00493791 0.0223009 0.00627815 0.0173915 0.00693105 0.0389146
23 1 Mg -1.67381 2.41581 1.4948 1.2 1 0.000843644 0.00295735 0.00258481 0.00454562 0.00169406 0.00587177 0.00244357 0.0166773 0.00283924 0.00613465 0.00201007 0.0240887 0.00216253 0.0140137 0.00245891 0.0221565 0.00417896 0.0157048 0.00494262 0.0418278
24 2 Si 0.16286 0.350945 1.4948 2.4 1 0.00128304 0.00275851 0.00296028 0.004243 0.00157124 0.00619968 0.00255473 0.0162439 0.00220671 0.00502272 0.00180627 0.0226873 0.00221874 0.0132134 0.00277737 0.0207934 0.0044843 0.0145408 0.00406303 0.0402633
25 3 O 0.15972 -1.26229 1.4948 -1.2 1 0.000875439 0.00283244 0.00298576 0.00420075 0.00172174 0.00575029 0.00240531 0.0165099 0.00234022 0.00537961 0.00252073 0.0226857 0.00220826 0.0135537 0.00280209 0.0218327 0.00425151 0.0144543 0.00379112 0.0408205
26 3 O 6.77654 1.32496 1.4948 -1.2 1 0.000789515 0.00418325 0.00167866 0.00449627 0.00141872 0.00579238 0.00232899 0.0167303 0.00259678 0.00505414 0.00158844 0.0235844 0.00236007 0.0135149 0.00337782 0.0219934 0.00449365 0.014864 0.00439264 0.040963
27 3 O -0.508028 1.05712 0.196716 -1.2 1 0.000700401 0.00297158 0.00347062 0.00395685 0.00156819 0.00551236 0.00231569 0.0170751 0.00181243 0.00664993 0.00235349 0.0223817 0.00240901 0.0127402 0.00306973 0.021561 0.00409482 0.0149708 0.00449875 0.0406157
28 3 O -0.552171 1.05712 2.79288 -1.2 1 0.000763815 0.00260559 0.00289822 0.00416232 0.00156852 0.00584814 0.0021601 0.0160802 0.00244054 0.00578469 0.00202347 0.0224806 0.00277124 0.011548 0.00321941 0.021608 0.00533644 0.0150451 0.00494875 0.039225
29 1 Mg 6.31713 4.74899 0 1.2 1 0.00101847 0.00269828 0.00171839 0.00447121 0.00214312 0.00601811 0.00325995 0.0179565 0.00303847 0.00680577 0.00209488 0.0252694 0.00267001 0.0134925 0.00406833 0.0244307 0.00454081 0.0161875 0.00575505 0.0431023
30 1 Mg 3.54847 9.45668 1.4948 1.2 1 0.0013991 0.0030926 0.00150545 0.00450088 0.00177636 0.00756519 0.00316576 0.0212025 0.00197316 0.00805006 0.00239894 0.0282167 0.00312176 0.0154013 0.00369924 0.0290166 0.0043329 0.0177442 0.00412942 0.0485229
31 2 Si 5.36879 6.77254 1.4948 2.4 1 0.000879147 0.00282568 0.00168925 0.00496889 0.00243979 0.00678286 0.00370163 0.0194798 0.00289218 0.00730237 0.00238145 0.0273065 0.00315054 0.0149877 0.00382286 0.0269282 0.00483102 0.0170284 0.00524969 0.0465169
32 3 O 5.41937 8.38578 1.4948 -1.2 1 0.000988472 0.00287027 0.00122271 0.00504462 0.00202294 0.00759833 0.003135 0.0208229 0.00232494 0.00797448 0.00242932 0.0286514 0.00239595 0.0153697 0.00282535 0.0290041 0.00462539 0.0170094 0.00511379 0.0477632
33 3 O 1.75158 5.79852 1.4948 -1.2 1 0.00129776 0.00311717 0.00150112 0.00364625 0.0023629 0.00580139 0.0031419 0.0195205 0.00289409 0.00688157 0.00255968 0.0275145 0.00266216 0.0153407 0.00313866 0.0267639 0.00518184 0.017297 0.00575959 0.0454113
34 3 O 4.67421 6.06637 0.196716 -1.2 1 0.00135882 0.00266028 0.00143258 0.00442626 0.00175425 0.00664876 0.00275406 0.0195335 0.00263911 0.00767968 0.00204851 0.0260147 0.00328052 0.013962 0.0036873 0.0265799 0.0045599 0.0164726 0.00543053 0.0453171
35 1 Mg 6.26654 4.74899 2.9896 1.2 1 0.00135839 0.00351727 0.00171321 0.00483413 0.00262628 0.00640975 0.00366161 0.0177888 0.00356484 0.00667657 0.0023423 0.0252631 0.00336536 0.014513 0.00465212 0.0244421 0.00598313 0.0169446 0.00707899 0.0428377
36 3 O 4.63043 6.06637 2.79288 -1.2 1 0.00190196 0.00352012 0.00169355 0.00467551 0.00228301 0.00652613 0.00356037 0.0192037 0.0034037 0.00749129 0.00252423 0.0255897 0.00388639 0.0146245 0.0046859 0.0266286 0.0059796 0.017532 0.00690775 0.0446518
37 1 Mg -1.12976 4.79031 4.4844 1.2 1 0.00120828 0.00391462 0.00191426 0.00458678 0.00221283 0.00599797 0.00334208 0.0169893 0.00337647 0.00656189 0.00294608 0.0247825 0.00398807 0.0139017 0.00398209 0.0247561 0.00728126 0.0182124 0.00789907 0.0423868
38 2 Si -2.9517 7.47444 4.4844 2.4 1 0.00177691 0.00386564 0.00139705 0.00496058 0.00306062 0.00655226 0.00384264 0.0195042 0.00296664 0.00750862 0.00328671 0.0264019 0.00440105 0.0158351 0.00527212 0.0270774 0.00657494 0.0187571 0.00823376 0.0454251
39 3 O -3.00198 5.86121 4.4844 -1.2 1 0.0015404 0.00418724 0.000938655 0.00488247 0.00298067 0.00606986 0.00392352 0.018115 0.00330691 0.00722019 0.00294458 0.0250361 0.00446956 0.0139019 0.00463639 0.0259728 0.00696504 0.018925 0.00801055 0.0437963
40 3 O 0.666315 8.44846 4.4844 -1.2 1 0.0021706 0.00466354 0.00155258 0.00461593 0.00279831 0.00740265 0.00320299 0.0203531 0.00281523 0.00757329 0.00330514 0.0275101 0.00434738 0.015511 0.00395891 0.0280657 0.00608564 0.0193432 0.00798206 0.0469618
41 3 O -2.21213 8.18062 3.18632 -1.2 1 0.00111281 0.00378278 0.0013912 0.00450387 0.00237828 0.00622646 0.00282907 0.0202169 0.00250343 0.00783688 0.00306506 0.0272472 0.00411182 0.0157646 0.00476896 0.0285399 0.00580999 0.0185957 0.00693769 0.0472324
42 3 O -2.25864 8.18062 5.78248 -1.2 1 0.00225686 0.0043047 0.00147472 0.0048649 0.0030516 0.00570478 0.00314763 0.0195935 0.00237908 0.00793655 0.0036174 0.0256997 0.00438124 0.0163409 0.00521983 0.0280818 0.00683639 0.0204989 0.00782061 0.046298
43 1 Mg 1.20893 7.12349 2.9896 1.2 1 0.00124647 0.00391139 0.0012528 0.00386495 0.00275098 0.00650248 0.00371571 0.0192932 0.00270395 0.00753952 0.00287449 0.0273096 0.00351749 0.0155279 0.00341244 0.0271211 0.00534634 0.0178827 0.00688684 0.04581
44 1 Mg 4.00982 7.08218 4.4844 1.2 1 0.00198588 0.00424602 0.00162684 0.00456146 0.00262326 0.00624013 0.00404 0.0196141 0.00333418 0.00711571 0.00338581 0.0262427 0.00403438 0.0164719 0.00562072 0.0272349 0.00731077 0.0190031 0.00823436 0.0455765
45 2 Si 2.17861 9.14704 4.4844 2.4 1 0.00201232 0.00425061 0.00185344 0.00455306 0.00282629 0.00708898 0.00399714 0.0203703 0.00261693 0.00785466 0.0033908 0.0273151 0.00461893 0.0163023 0.00457361 0.0286326 0.00551487 0.0193639 0.00701897 0.0482876
46 3 O 2.18828 10.7603 4.4844 -1.2 1 0.00264629 0.00462231 0.00211548 0.00466516 0.00276909 0.00696932 0.00304537 0.0203324 0.00226595 0.00778256 0.00246616 0.0275809 0.00388097 0.015355 0.00429759 0.0299634 0.00593781 0.0197014 0.00690607 0.0489201
47 3 O -4.43805 8.17302 4.4844 -1.2 1 0.0011696 0.00423637 0.00187348 0.00502837 0.0027116 0.00760134 0.00324945 0.0203361 0.00309528 0.00790682 0.00340209 0.0273505 0.0045466 0.0159614 0.0048777 0.0282787 0.00672895 0.0194239 0.00874226 0.0462949
48 3 O 2.89193 8.44087 3.18632 -1.2 1 0.00168338 0.00374438 0.00171414 0.00408108 0.00239899 0.00687594 0.00336099 0.0202563 0.00284575 0.00798045 0.00301802 0.0269066 0.00389083 0.0155521 0.00457997 0.0285035 0.00581605 0.018532 0.00614605 0.0474466
49 1 Mg 1.25915 7.12349 0 1.2 1 0.00199758 0.00245346 0.00112465 0.00391413 0.00172677 0.00700832 0.00291897 0.020319 0.00272569 0.00787215 0.00255882 0.0274825 0.00330613 0.0141304 0.00321877 0.0273645 0.00452072 0.0171828 0.00426283 0.0463059
50 3 O 2.84547 8.44087 5.78248 -1.2 1 0.00217958 0.0046622 0.00168502 0.00462599 0.00257802 0.00625883 0.00342722 0.0199287 0.00275248 0.00836156 0.00345314 0.0258197 0.00524906 0.0159999 0.00506237 0.0282704 0.00594026 0.0206931 0.00733732 0.0467511
51 1 Mg -1.59284 7.16481 1.4948 1.2 1 0.00158051 0.00312747 0.000916221 0.00456494 0.00181423 0.00619462 0.00264238 0.0198873 0.00276358 0.00746514 0.00199212 0.0275982 0.00324151 0.0154986 0.00320591 0.0271171 0.00455848 0.0172962 0.00564301 0.0464888
52 2 Si 0.240329 5.09994 1.4948 2.4 1 0.00112864 0.00341379 0.00163584 0.00395831 0.00196098 0.00651507 0.0029273 0.0189424 0.00319885 0.006932 0.00230453 0.0256957 0.00247323 0.0143509 0.00364805 0.0247582 0.00498417 0.0167358 0.00527144 0.0445312
53 3 O 0.234538 3.48671 1.4948 -1.2 1 0.00128462 0.00372265 0.00258637 0.00387534 0.00191769 0.00613864 0.00243121 0.0180071 0.00346219 0.00670854 0.00238981 0.0244036 0.00284311 0.0134719 0.00360079 0.0241318 0.00530097 0.0157741 0.00550102 0.0424815
54 3 O 6.85564 6.07396 1.4948 -1.2 1 0.00101026 0.00273113 0.00185229 0.00474474 0.00240561 0.00595107 0.00306305 0.0198518 0.0031256 0.00727151 0.00217754 0.0274659 0.00318702 0.0144576 0.00447045 0.0268834 0.00551474 0.0173492 0.00635049 0.0452737
55 3 O -0.429565 5.80612 0.196716 -1.2 1 0.00152264 0.00299825 0.00173389 0.00396424 0.00155828 0.00691413 0.00234127 0.0196273 0.00288697 0.00800036 0.00241489 0.0256522 0.00245094 0.0139801 0.00338834 0.0259322 0.00488808 0.0167779 0.00558481 0.0452867
56 3 O -0.473377 5.80612 2.79288 -1.2 1 0.00161783 0.00361258 0.00167501 0.00418924 0.00221192 0.00656017 0.00318177 0.0188841 0.00315819 0.00768471 0.00289072 0.0252742 0.00355119 0.0144216 0.00377313 0.0259768 0.00617178 0.0179318 0.00685593 0.0448243
57 1 Mg 6.40169 9.49799 0 1.2 1 0.0016061 0.0031619 0.00122757 0.00436971 0.00149833 0.00827648 0.00212082 0.0209024 0.00173129 0.0086975 0.00179293 0.02854 0.00194814 0.0145643 0.00218905 0.0297209 0.00321816 0.0175382 0.00373319 0.0478356
58 1 Mg 3.64209 14.2057 1.4948 1.2 1 0.00213624 0.00385122 0.00124991 0.00463705 0.00157947 0.00895663 0.00155521 0.0214424 0.0017531 0.00831258 0.00231538 0.0276991 0.00228745 0.0159771 0.00305048 0.0294075 0.00356138 0.0166778 0.00371708 0.049191
59 2 Si 5.45748 11.5215 1.4948 2.4 1 0.00200523 0.00328057 0.0012612 0.00463324 0.00168377 0.00818098 0.0022014 0.0209284 0.00178093 0.00788543 0.00196854 0.0283634 0.00254617 0.0160573 0.0028465 0.0291042 0.00411805 0.0165139 0.00396139 0.0489569
60 3 O 5.51101 13.1348 1.4948 -1.2 1 0.00219372 0.0037411 0.00127823 0.00475736 0.00159339 0.00918017 0.00189921 0.0208136 0.00208786 0.0083736 0.00173388 0.0287974 0.00185339 0.015996 0.00275909 0.0297346 0.0037903 0.0164149 0.00406053 0.0487665
61 3 O 1.83851 10.5475 1.4948 -1.2 1 0.00151322 0.00357726 0.00144995 0.00459548 0.00182301 0.00767327 0.00238572 0.0214369 0.0018153 0.00813271 0.00222221 0.0289596 0.00237735 0.0154439 0.00265207 0.029598 0.00419937 0.0176188 0.00405236 0.0488755
62 3 O 4.7611 10.8154 0.196716 -1.2 1 0.00192006 0.00287613 0.00133001 0.00455286 0.00134802 0.00837987 0.0024947 0.0210771 0.00180014 0.00829617 0.00199763 0.0279357 0.00287349 0.0155078 0.00348813 0.0295843 0.00344786 0.0166003 0.00334904 0.0487472
63 1 Mg 6.35203 9.49799 2.9896 1.2 1 0.000679237 0.0036898 0.00151393 0.00498486 0.0025036 0.00744332 0.00320541 0.0202331 0.00284526 0.00809309 0.00226579 0.0284938 0.00371421 0.0160107 0.00331754 0.0288491 0.00449644 0.0181734 0.00616549 0.0478032
64 3 O 4.71833 10.8154 2.79288 -1.2 1 0.0015786 0.00382622 0.0014509 0.00448046 0.00215506 0.00815829 0.00241889 0.0211504 0.00219219 0.00852969 0.00239687 0.0276282 0.00353052 0.0157708 0.00380902 0.0296807 0.00551912 0.018062 0.00603689 0.0490253
65 1 Mg -1.0438 9.53931 4.4844 1.2 1 0.00235163 0.00427564 0.00173419 0.00466836 0.0029644 0.00648326 0.0025043 0.0202754 0.00259286 0.0083403 0.00292885 0.0273743 0.0038214 0.0164506 0.00417156 0.0286301 0.00619153 0.0193125 0.00747433 0.0477943
66 2 Si -2.8604 12.2234 4.4844 2.4 1 0.00272934 0.0043733 0.0020417 0.00446452 0.00268076 0.0076628 0.00295693 0.0211837 0.00262358 0.00819902 0.00244936 0.0273071 0.00366521 0.0161615 0.00431638 0.0291452 0.00537446 0.0195127 0.00691743 0.0497577
67 3 O -2.91391 10.6102 4.4844 -1.2 1 0.00233488 0.00412056 0.00189913 0.00449072 0.00281285 0.00689971 0.00327483 0.020151 0.00263786 0.00757274 0.00249917 0.0277617 0.00386141 0.0156032 0.00422616 0.0297395 0.00596025 0.0195073 0.00710645 0.048755
68 3 O 0.7596 13.1975 4.4844 -1.2 1 0.003484 0.00497935 0.0023687 0.00512853 0.00267169 0.00872312 0.00233544 0.0213441 0.00255093 0.00835728 0.00288428 0.0278662 0.00399268 0.0158003 0.00408071 0.0293764 0.00570684 0.0194337 0.00682446 0.0495529
69 3 O -2.12001 12.9296 3.18632 -1.2 1 0.00283649 0.00392457 0.00154033 0.00429125 0.00246949 0.00754977 0.00189583 0.0213535 0.00221049 0.00815082 0.00228881 0.0273034 0.00322761 0.0161322 0.00421189 0.0297186 0.0052813 0.0181997 0.00598511 0.0494985
70 3 O -2.16532 12.9296 5.78248 -1.2 1 0.00381465 0.00485355 0.00187609 0.00463736 0.00261285 0.00666767 0.00216182 0.0210162 0.00232892 0.00809003 0.00282914 0.0262989 0.00386407 0.016523 0.00482586 0.0303104 0.00598542 0.02148 0.00663216 0.0502589
71 1 Mg 1.29891 11.8725 2.9896 1.2 1 0.00234111 0.00410494 0.00167785 0.00483898 0.00233577 0.0080857 0.00254799 0.0207636 0.00251456 0.00830247 0.00210898 0.028548 0.0030891 0.0158888 0.00295688 0.0296017 0.00450506 0.0178889 0.00541417 0.0489477
72 1 Mg 4.10033 11.8312 4.4844 1.2 1 0.00232331 0.00431544 0.00208274 0.00455657 0.00256519 0.00709664 0.00286722 0.0209348 0.00224384 0.00791555 0.00285371 0.0279351 0.00362793 0.0170729 0.00482426 0.0299582 0.00640481 0.0196763 0.00699513 0.0497325
73 2 Si 2.27333 13.896 4.4844 2.4 1 0.0033508 0.00447614 0.00188605 0.00533028 0.00293404 0.00795881 0.00305673 0.0212774 0.00227376 0.00803275 0.0027946 0.0269162 0.00341756 0.016278 0.00412236 0.0296816 0.00536642 0.0192752 0.00634534 0.050809
74 3 O 2.28634 15.5093 4.4844 -1.2 1 0.00394529 0.00485624 0.00169829 0.00474651 0.00288352 0.00754593 0.00283249 0.0204301 0.00239036 0.00759815 0.00244389 0.0274995 0.00331346 0.0157559 0.00385216 0.0299784 0.00564759 0.0190897 0.00653978 0.0504811
75 3 O -4.34533 12.922 4.4844 -1.2 1 0.00288192 0.00464366 0.00178283 0.00494614 0.00273252 0.00842002 0.00282793 0.0214033 0.00270009 0.00809991 0.00293104 0.0279313 0.00365979 0.0162055 0.00485077 0.0297376 0.00647239 0.0198643 0.00744857 0.0496937
76 3 O 2.98455 13.1899 3.18632 -1.2 1 0.00269175 0.00427244 0.00177304 0.00464389 0.00262166 0.00799825 0.00197265 0.0216388 0.00223775 0.00811711 0.00250333 0.027367 0.00320778 0.0158452 0.00396341 0.0297118 0.0055869 0.0183136 0.00614124 0.049977
77 1 Mg 1.34779 11.8725 0 1.2 1 0.00224674 0.00253645 0.00134642 0.00449274 0.00133202 0.00878148 0.00175181 0.0210433 0.00127197 0.00896039 0.00210575 0.028547 0.00257599 0.0147604 0.0023872 0.0298761 0.00300804 0.0166269 0.00316827 0.0480785
78 3 O 2.93934 13.1899 5.78248 -1.2 1 0.00343856 0.00498218 0.00182113 0.00479138 0.002721 0.00677603 0.00274565 0.0211399 0.00218332 0.00806193 0.00308144 0.0261892 0.00409286 0.0161884 0.00474903 0.030274 0.00588555 0.0214749 0.00651186 0.0503152
79 1 Mg -1.50344 11.9138 1.4948 1.2 1 0.00180146 0.00371955 0.00146197 0.00443777 0.00143819 0.00828824 0.00185693 0.0215004 0.00243183 0.00836326 0.00165244 0.0284179 0.00331911 0.0160346 0.0028022 0.0295778 0.00371787 0.0172726 0.0039483 0.0488675
80 2 Si 0.326006 9.84894 1.4948 2.4 1 0.00143025 0.00314081 0.00134474 0.00455031 0.00192629 0.00797088 0.00209332 0.0210156 0.00202457 0.00824283 0.00170149 0.0284006 0.00267697 0.0154435 0.00288726 0.0288739 0.00386487 0.0174456 0.00370325 0.0484922
81 3 O 0.317364 8.23571 1.4948 -1.2 1 0.00120093 0.00337906 0.00093293 0.0041869 0.00180718 0.00751271 0.00214977 0.0202338 0.00251423 0.00769347 0.00180685 0.028373 0.00321193 0.0155653 0.00337421 0.0285427 0.00460509 0.0175219 0.00446292 0.0473163
82 3 O 6.94307 10.823 1.4948 -1.2 1 0.00139247 0.00360835 0.00104896 0.00442982 0.0018288 0.00767005 0.00256423 0.0216097 0.00235394 0.00808461 0.00171622 0.0290797 0.0028811 0.015699 0.00286296 0.0296715 0.00400344 0.0176864 0.00464599 0.0487958
83 3 O -0.343122 10.5551 0.196716 -1.2 1 0.00166768 0.00262984 0.00123301 0.0043617 0.00143405 0.00833831 0.00209345 0.0211279 0.00180477 0.00861794 0.00202067 0.0279372 0.00295394 0.0152015 0.00330451 0.0293297 0.00354789 0.0169719 0.00345412 0.0485729
84 3 O -0.385966 10.5551 2.79288 -1.2 1 0.00233316 0.00391048 0.00130697 0.00444217 0.00246725 0.00790973 0.00214073 0.0214762 0.00205506 0.00877998 0.00241017 0.0271219 0.00358183 0.0158417 0.00370966 0.0294434 0.00533835 0.0184206 0.00554802 0.0489258
85 1 Mg 6.49448 14.247 0 1.2 1 0.00157132 0.00355564 0.00141478 0.00458733 0.0010776 0.00920226 0.0012586 0.0208776 0.00125149 0.0082208 0.00136583 0.0281906 0.00145388 0.0153786 0.00206463 0.0296183 0.00274884 0.0162271 0.00249395 0.0479866
86 1 Mg 3.74457 18.9547 1.4948 1.2 1 0.00256548 0.00384378 0.000952601 0.00413113 0.00163684 0.00868919 0.00107467 0.0219665 0.00180257 0.00773796 0.00231504 0.0268665 0.00229207 0.0164531 0.00358917 0.0286753 0.00372265 0.0163428 0.00382972 0.0494329
87 2 Si 5.55495 16.2705 1.4948 2.4 1 0.00245192 0.00362297 0.00106626 0.00454649 0.00184478 0.00905704 0.00118347 0.0210505 0.00146054 0.00765449 0.00141817 0.0277403 0.00215965 0.0161437 0.00263766 0.0286305 0.00379925 0.0159383 0.00377067 0.0491899
88 3 O 5.6115 17.8838 1.4948 -1.2 1 0.00270612 0.00394588 0.00120785 0.00436685 0.00163971 0.00925868 0.00122602 0.021238 0.00181144 0.00771417 0.00157032 0.0276908 0.00179916 0.0161482 0.00287478 0.0288082 0.00339114 0.0157963 0.00377741 0.049203
89 3 O 1.93416 15.2965 1.4948 -1.2 1 0.00208892 0.00383735 0.00137198 0.00477445 0.00172181 0.00852202 0.00161084 0.0216049 0.00186359 0.00785637 0.00164878 0.0283581 0.00172672 0.0158916 0.00250158 0.0297462 0.00381648 0.0165688 0.00377682 0.0496053
90 3 O 4.85636 15.5644 0.196716 -1.2 1 0.00174249 0.00322867 0.00123482 0.00452525 0.00128821 0.00904035 0.00145166 0.0209373 0.00118065 0.0079091 0.00165841 0.0274085 0.0026759 0.0160712 0.00343478 0.0291133 0.00318745 0.0155047 0.00267683 0.0486898
91 1 Mg 6.44662 14.247 2.9896 1.2 1 0.00219832 0.00420659 0.00121068 0.00465016 0.00242474 0.00858558 0.00248424 0.0206246 0.0024885 0.0082774 0.00194376 0.0282548 0.00263452 0.0160885 0.00290162 0.0292325 0.004134 0.0176534 0.0050732 0.0492046
92 3 O 4.81537 15.5644 2.79288 -1.2 1 0.00327625 0.00394614 0.00130412 0.00455722 0.00224693 0.00886507 0.00172735 0.0216659 0.00169255 0.008168 0.0019094 0.0269532 0.00275468 0.016067 0.00351891 0.0293383 0.00504317 0.017446 0.00549627 0.0498109
93 1 Mg -0.948271 14.2883 4.4844 1.2 1 0.00391453 0.0045145 0.00196735 0.00452282 0.00256137 0.00787805 0.002447 0.0209135 0.00265863 0.00825126 0.00277364 0.0272728 0.0033824 0.016567 0.00470746 0.0295743 0.00564591 0.0187453 0.00653224 0.0499547
94 2 Si -2.75928 16.9724 4.4844 2.4 1 0.00435246 0.00436643 0.00164923 0.00466478 0.00262366 0.00811405 0.00249962 0.0211749 0.0023483 0.00743483 0.00252243 0.0264167 0.00314067 0.0167076 0.00430984 0.0292409 0.00519829 0.0185638 0.00624003 0.050822
95 3 O -2.81617 15.3592 4.4844 -1.2 1 0.00419573 0.00443173 0.00179299 0.00437457 0.00277918 0.00763111 0.00268428 0.0205528 0.00256683 0.00745539 0.00223531 0.0272184 0.00333701 0.0157683 0.00403155 0.0297746 0.0059993 0.0189769 0.00696421 0.050187
96 3 O 0.862762 17.9465 4.4844 -1.2 1 0.00421759 0.00478734 0.00132895 0.00464169 0.00278045 0.00868131 0.00219589 0.0217646 0.00228035 0.00773102 0.00262629 0.0267207 0.00316754 0.0167851 0.00413149 0.0286074 0.005419 0.0188043 0.00605355 0.0508894
97 3 O -2.0185 17.6786 3.18632 -1.2 1 0.00401094 0.00417813 0.00154441 0.00422928 0.00229328 0.00784952 0.00191437 0.0218788 0.00203216 0.00743728 0.0021966 0.026257 0.00275803 0.0161119 0.00436113 0.0297148 0.00503181 0.0177232 0.0055556 0.0505008
98 3 O -2.06164 17.6786 5.78248 -1.2 1 0.00482091 0.00494406 0.00134536 0.00436667 0.00285374 0.00708066 0.00223544 0.0212056 0.00218173 0.0075498 0.00259566 0.0254643 0.00308822 0.0168346 0.00504511 0.0301758 0.00568495 0.0208817 0.00599221 0.0516088
99 1 Mg 1.39817 16.6215 2.9896 1.2 1 0.00340155 0.00431505 0.00150083 0.00477582 0.00232679 0.00861344 0.00236293 0.0207645 0.00236989 0.00790272 0.0021881 0.0278201 0.0023735 0.0163531 0.00309335 0.0293057 0.00440074 0.0168715 0.00496884 0.0496531
100 1 Mg 4.20062 16.5802 4.4844 1.2 1 0.00397288 0.00421932 0.00161381 0.00462185 0.00254362 0.0077393 0.00239749 0.0211079 0.00257547 0.00762569 0.00280369 0.0268241 0.0029543 0.0172851 0.00479899 0.0296183 0.0061212 0.0188027 0.00656958 0.0509373
101 2 Si 2.37796 18.645 4.4844 2.4 1 0.00433094 0.00449122 0.00128353 0.0047196 0.0028808 0.0082691 0.00255539 0.0215669 0.00235886 0.00783184 0.00250197 0.0259167 0.00283492 0.0168636 0.0042925 0.028823 0.00520444 0.0185678 0.00568783 0.0515453
102 3 O 2.39434 20.2583 4.4844 -1.2 1 0.00473615 0.00458769 0.00127242 0.00439593 0.00306481 0.00716325 0.00271868 0.0205874 0.00256262 0.00743274 0.00178478 0.0265976 0.00268799 0.0166839 0.00389808 0.0294849 0.00557136 0.0183495 0.00628677 0.0510463
103 3 O -4.24274 17.671 4.4844 -1.2 1 0.00415846 0.00477672 0.0014725 0.00470234 0.00252698 0.00889538 0.00235828 0.0217076 0.00264913 0.00765595 0.00264945 0.0268257 0.0028981 0.0165413 0.00480872 0.0294245 0.00596058 0.0192442 0.00671407 0.0507194
104 3 O 3.08659 17.9389 3.18632 -1.2 1 0.00408905 0.00408979 0.00135919 0.0044005 0.00241979 0.00805693 0.00171043 0.0217318 0.00188501 0.00762762 0.00212499 0.0263754 0.00275315 0.01635 0.00392173 0.0293172 0.00535441 0.0175519 0.00578716 0.0506147
105 1 Mg 1.44478 16.6215 0 1.2 1 0.00177476 0.00298552 0.00103422 0.00424438 0.00111415 0.00906069 0.000941712 0.021199 0.00130967 0.00797232 0.00166758 0.0279571 0.00209799 0.0156709 0.00213143 0.0291519 0.00271238 0.0158474 0.00300546 0.0482883
106 3 O 3.0436 17.9389 5.78248 -1.2 1 0.00421222 0.00500001 0.00158768 0.00474468 0.00305386 0.00723879 0.00252586 0.0214376 0.0023662 0.00767364 0.00301062 0.025788 0.00308382 0.0165033 0.00456807 0.03002 0.00559109 0.0209378 0.00617485 0.0515835
107 1 Mg -1.40524 16.6628 1.4948 1.2 1 0.00201632 0.00395442 0.00107318 0.00464855 0.00157855 0.00887015 0.00168216 0.0218775 0.00165943 0.00791349 0.00163782 0.0274504 0.00271108 0.0165066 0.00253064 0.029332 0.00326144 0.0163413 0.00358677 0.0489863
108 2 Si 0.420358 14.5979 1.4948 2.4 1 0.00168634 0.00328616 0.00147203 0.00474975 0.00173626 0.00908248 0.0016238 0.0210974 0.00163195 0.00802722 0.00152 0.0278623 0.00225273 0.0163012 0.00279666 0.0288 0.00364913 0.0163586 0.00351812 0.0489958
109 3 O 0.408732 12.9847 1.4948 -1.2 1 0.00166921 0.00323696 0.00137064 0.00463256 0.00171332 0.00904418 0.00132065 0.0208893 0.00212374 0.00816556 0.00158311 0.0285353 0.00268488 0.0157454 0.00269577 0.0297925 0.00340855 0.0167811 0.00376624 0.0488969
110 3 O 7.03923 15.572 1.4948 -1.2 1 0.00205184 0.0039149 0.00104236 0.00467415 0.00205757 0.0084443 0.00189903 0.0213984 0.00207004 0.00774835 0.00173928 0.0284027 0.00231859 0.016119 0.00272209 0.0295695 0.00377273 0.016629 0.00415705 0.0492642
111 3 O -0.248332 15.3041 0.196716 -1.2 1 0.00183111 0.00303782 0.00132827 0.00442666 0.00104904 0.00912248 0.00191831 0.0211773 0.00122115 0.00812364 0.00168361 0.0272993 0.00254381 0.0156713 0.00320565 0.0291232 0.00301659 0.0157438 0.0030609 0.0484479
112 3 O -0.289436 15.3041 2.79288 -1.2 1 0.00346121 0.00411144 0.00134247 0.00442316 0.00227547 0.00886034 0.00164959 0.0216773 0.00190224 0.00851031 0.00202582 0.0266851 0.00254269 0.0162108 0.00338701 0.0295383 0.00470772 0.0176967 0.00515319 0.0500142
113 1 Mg 6.59566 18.996 0 1.2 1 0.000905939 0.00363869 0.00149005 0.0042091 0.000828477 0.00864406 0.00105175 0.0216521 0.00103636 0.00757379 0.00132036 0.0273765 0.00200455 0.0161613 0.00223784 0.0284428 0.00267964 0.0156441 0.00264325 0.0481584
114 1 Mg 3.85574 23.7037 1.4948 1.2 1 0.00235312 0.00302635 0.000792851 0.00416406 0.00145396 0.0075213 0.00115982 0.0229199 0.00172091 0.00727123 0.00215033 0.0264651 0.00236682 0.0174855 0.00380567 0.0284024 0.00362085 0.0169219 0.00414479 0.0499933
115 2 Si 5.66125 21.0195 1.4948 2.4 1 0.0026945 0.0034285 0.000750434 0.0042101 0.00176537 0.00822278 0.00134077 0.0214145 0.00128375 0.00735249 0.001478 0.0270836 0.00230342 0.0170646 0.00292799 0.0279444 0.00380155 0.0157849 0.00421054 0.0496025
116 3 O 5.72074 22.6328 1.4948 -1.2 1 0.00287928 0.00317822 0.00119592 0.00405908 0.00151931 0.00813772 0.00164474 0.0219249 0.00192265 0.00720402 0.00133446 0.0270027 0.00207904 0.0170251 0.00316571 0.0282258 0.00360708 0.0161624 0.00416958 0.0494405
117 3 O 2.03867 20.0455 1.4948 -1.2 1 0.00249273 0.00369329 0.00108358 0.00431192 0.00171317 0.00793223 0.00179788 0.0220147 0.00200572 0.00731521 0.00173897 0.0274117 0.00204651 0.0169935 0.00266458 0.0288021 0.00376968 0.0161949 0.00392918 0.0498215
118 3 O 4.96004 20.3134 0.196716 -1.2 1 0.0015015 0.00275728 0.00140536 0.00399522 0.00119801 0.00825841 0.00125812 0.0214955 0.0011864 0.00733596 0.0014384 0.0269384 0.00264923 0.0164124 0.00399362 0.0284379 0.00316007 0.0150884 0.00312657 0.0486727
119 1 Mg 6.55057 18.996 2.9896 1.2 1 0.00319911 0.00423752 0.000958425 0.00441921 0.00237701 0.00845431 0.00233991 0.020832 0.00223227 0.00771871 0.00177232 0.0276801 0.00228583 0.0168443 0.0030173 0.0287763 0.00420172 0.0169912 0.00504139 0.050046