ITEM: TIMESTEP
67200
ITEM: NUMBER OF ATOMS
10500
ITEM: BOX BOUNDS xy xz yz pp pp pp
0	15.2977	5.09925
0	118.725	0
0	89.688	0
ITEM: ATOMS id type element xu yu zu q Q_1 Q_2 Q_3 Q_4 Q_5 Q_6 Q_7 Q_8 Q_9 Q_10 Q_11 Q_12 Q_13 Q_14 Q_15 Q_16 Q_17 Q_18 Q_19 Q_20 Q_21
1 1 Mg 6.2404 -6.37941e-06 0 1.2 1 0.00125864 0.00414476 0.00124258 0.00478711 0.00154492 0.00564523 0.00211628 0.0162143 0.00199512 0.00545804 0.00209326 0.0218909 0.00251567 0.0133744 0.0030826 0.0209093 0.00418262 0.0142145 0.00390892 0.0406678
2 1 Mg 3.46349 4.70768 1.4948 1.2 1 0.00157331 0.0030193 0.00180353 0.00433869 0.00201116 0.00601681 0.00342053 0.0188216 0.00297723 0.00671645 0.00275477 0.0256656 0.00304032 0.0137632 0.00440253 0.0250086 0.00528836 0.016923 0.00541808 0.0437994
3 2 Si 5.2885 2.02354 1.4948 2.4 1 0.00136922 0.00320249 0.00212453 0.00450194 0.00191138 0.00566809 0.00250485 0.0168729 0.00243341 0.00581838 0.00196291 0.023177 0.0028507 0.0132872 0.00354586 0.0216863 0.00397279 0.015387 0.00401371 0.0410878
4 3 O 5.33628 3.63678 1.4948 -1.2 1 0.00148515 0.00241051 0.00180318 0.00477498 0.00219237 0.00623718 0.00291266 0.0176821 0.0023608 0.00655827 0.00209258 0.0251523 0.00247288 0.0134235 0.00414071 0.0238807 0.00507236 0.0164162 0.0054108 0.0427142
5 3 O 1.67294 1.04952 1.4948 -1.2 1 0.00146906 0.00306132 0.00189072 0.00410929 0.00115048 0.00570705 0.0023894 0.0167421 0.00224606 0.00581486 0.00211753 0.0226891 0.00242867 0.012798 0.00333872 0.0219014 0.00477538 0.0156453 0.00440415 0.0400513
6 3 O 4.59532 1.31737 0.196716 -1.2 1 0.00110686 0.00279686 0.00191447 0.00428442 0.00210734 0.00567475 0.00242202 0.017039 0.00276573 0.00589859 0.00203336 0.0223233 0.00350317 0.0125427 0.00404744 0.021646 0.00420145 0.014824 0.00412298 0.0409514
7 1 Mg 6.18956 -6.37941e-06 2.9896 1.2 1 0.00165651 0.00433881 0.00145184 0.00396895 0.00133671 0.00585475 0.00238709 0.0157443 0.00271931 0.00509769 0.00194907 0.0218713 0.00241658 0.0133673 0.0035945 0.020547 0.00450183 0.0147707 0.00461392 0.0386593
8 3 O 4.55118 1.31737 2.79288 -1.2 1 0.00190124 0.00385457 0.00197611 0.00399648 0.00185943 0.00568442 0.00266989 0.0167042 0.00242498 0.00629891 0.00238701 0.0213992 0.00304145 0.0122652 0.00339545 0.0214047 0.00482853 0.0155779 0.00497384 0.0395661
9 1 Mg -1.20682 0.0413099 4.4844 1.2 1 0.0022622 0.0027696 0.00145882 0.00452568 0.00124754 0.00576109 0.0019895 0.015536 0.00234186 0.00506524 0.00215959 0.0218595 0.00262306 0.0117554 0.00345389 0.0207061 0.00526178 0.015574 0.00497214 0.0382605
10 2 Si -3.0337 2.72544 4.4844 2.4 1 0.00165095 0.00323507 0.00160365 0.00473637 0.002036 0.00632904 0.00302991 0.0163055 0.0031024 0.00554369 0.00255706 0.0235316 0.0029368 0.0130127 0.00398594 0.0224168 0.00525852 0.0173105 0.00586397 0.0394992
11 3 O -3.08099 1.11221 4.4844 -1.2 1 0.00188324 0.00344411 0.00170562 0.00414316 0.00137003 0.00571508 0.00227142 0.0154243 0.00266116 0.00477289 0.00224483 0.0215104 0.00260346 0.0113499 0.0035055 0.0212303 0.00491436 0.0160517 0.00521746 0.0378618
12 3 O 0.582463 3.69946 4.4844 -1.2 1 0.00163785 0.00387115 0.00200436 0.00436067 0.00251319 0.00658284 0.0034755 0.0168906 0.00340956 0.006062 0.00326217 0.0241998 0.00386176 0.0129701 0.00456034 0.0237325 0.00670327 0.0182378 0.00793803 0.0412395
13 3 O -2.29524 3.43162 3.18632 -1.2 1 0.00168012 0.00240987 0.00261738 0.00457026 0.00210719 0.00608003 0.00291785 0.0175924 0.00302135 0.00625112 0.00268344 0.0240987 0.00289511 0.0130558 0.00455777 0.0239604 0.00610904 0.017649 0.00625879 0.0415112
14 3 O -2.34216 3.43162 5.78248 -1.2 1 0.00180697 0.00377071 0.00142069 0.0046284 0.0025809 0.00603923 0.00309247 0.0163777 0.00320308 0.00642117 0.00339359 0.0225578 0.00431976 0.012379 0.00428506 0.022662 0.00642466 0.0184409 0.00736528 0.0397346
15 1 Mg 1.12778 2.37449 2.9896 1.2 1 0.0012004 0.00316537 0.00220955 0.00455597 0.00208212 0.00598827 0.00301321 0.0166167 0.00269689 0.00588153 0.0025055 0.0233645 0.00302359 0.0129616 0.00346161 0.0219183 0.00481028 0.0162597 0.0053644 0.0407166
16 1 Mg 3.92855 2.33318 4.4844 1.2 1 0.00253264 0.00370135 0.00155156 0.00398767 0.0017165 0.00587294 0.00359162 0.0162732 0.00329273 0.00546199 0.00307758 0.0225116 0.00350577 0.0133816 0.00521004 0.0217041 0.0060844 0.0166148 0.00645438 0.0397884
17 2 Si 2.09341 4.39804 4.4844 2.4 1 0.00241148 0.00372645 0.00175575 0.00431207 0.00279305 0.00594231 0.00375074 0.0179395 0.00340733 0.00614679 0.00353425 0.0242999 0.00425862 0.0142553 0.00443964 0.0244644 0.00649992 0.0181638 0.00833604 0.0429546
18 3 O 2.09991 6.01128 4.4844 -1.2 1 0.00301709 0.00408349 0.0015899 0.00428534 0.00292853 0.00641795 0.00344524 0.0187705 0.00268906 0.00680406 0.00315782 0.0262699 0.00389736 0.0148926 0.00471603 0.0267297 0.00654604 0.0190835 0.00778145 0.0447346
19 3 O -4.52137 3.42402 4.4844 -1.2 1 0.00241329 0.00334551 0.00226623 0.00437058 0.00222184 0.00706101 0.0034622 0.0164716 0.00330092 0.00575982 0.0035903 0.0229603 0.00357683 0.0127367 0.00446488 0.0224452 0.00621602 0.0172014 0.00704364 0.0404038
20 3 O 2.80834 3.69187 3.18632 -1.2 1 0.00217577 0.00331693 0.00157767 0.00364812 0.00194454 0.00597339 0.00327281 0.0172092 0.00306784 0.00593964 0.00273781 0.0239729 0.00330883 0.0130954 0.00469317 0.0236792 0.005748 0.0169012 0.00619385 0.0424388
21 1 Mg 1.17857 2.37449 0 1.2 1 0.00147212 0.00337226 0.00204524 0.00415455 0.00148596 0.005466 0.00234999 0.0170921 0.00249357 0.00644546 0.00276162 0.0234151 0.00276934 0.0126833 0.00346029 0.0217248 0.00463782 0.0151235 0.00463467 0.0407214
22 3 O 2.76143 3.69187 5.78248 -1.2 1 0.00268314 0.00392948 0.00146619 0.00397184 0.00194492 0.00544777 0.0027417 0.0166083 0.00332424 0.0060516 0.00311073 0.0223496 0.00452327 0.0131294 0.00551591 0.0226021 0.00636977 0.0180459 0.0068392 0.0396284
23 1 Mg -1.67381 2.41581 1.4948 1.2 1 0.000829346 0.00220203 0.0026552 0.00480619 0.00127605 0.00616967 0.00262116 0.0165584 0.00275149 0.00619023 0.00201102 0.0243247 0.00230543 0.0138584 0.00268034 0.0223116 0.00454206 0.0161117 0.0044 0.0415702
24 2 Si 0.16286 0.350945 1.4948 2.4 1 0.00132699 0.00233435 0.00263045 0.00441586 0.00113641 0.00648769 0.00275173 0.0162911 0.00214622 0.00495825 0.0018229 0.0228418 0.00226046 0.0133966 0.00313066 0.0209972 0.00479708 0.0148639 0.00403485 0.0402801
25 3 O 0.15972 -1.26229 1.4948 -1.2 1 0.0011001 0.00272461 0.00251035 0.00427162 0.0016043 0.00602783 0.00253158 0.0161951 0.00221548 0.00513945 0.00238363 0.022475 0.00238477 0.0139508 0.00290431 0.0219643 0.00420297 0.0146657 0.00388466 0.0407983
26 3 O 6.77654 1.32496 1.4948 -1.2 1 0.00112492 0.00357066 0.00163796 0.00460749 0.00135059 0.00610328 0.00228276 0.0167292 0.0025114 0.00536218 0.00172366 0.0237029 0.00254059 0.0135122 0.00347558 0.0218777 0.00488629 0.0152404 0.00411511 0.0407216
27 3 O -0.508028 1.05712 0.196716 -1.2 1 0.000692717 0.00245327 0.00322397 0.00416891 0.00126925 0.00567761 0.00262264 0.0170061 0.00165389 0.00656264 0.00252732 0.0223566 0.00259154 0.0126807 0.0031606 0.021548 0.00443174 0.0153181 0.0042461 0.0403051
28 3 O -0.552171 1.05712 2.79288 -1.2 1 0.00117175 0.00204049 0.00297072 0.00448858 0.00127825 0.00616649 0.00246966 0.0161762 0.00234097 0.00571307 0.00184617 0.0225547 0.00261246 0.0116257 0.00360247 0.0217987 0.0052743 0.0155918 0.00447757 0.0395576
29 1 Mg 6.31713 4.74899 0 1.2 1 0.000979231 0.0022321 0.00180582 0.0047039 0.00246777 0.00609344 0.00321816 0.0180878 0.0028349 0.00693781 0.00224445 0.0252901 0.00267988 0.0133304 0.00406102 0.0243482 0.00488044 0.0165108 0.00580952 0.0427437
30 1 Mg 3.54847 9.45668 1.4948 1.2 1 0.00206701 0.003349 0.00180883 0.0047999 0.0019244 0.00762401 0.00317904 0.0213551 0.00164845 0.00831867 0.00214238 0.0283286 0.00298507 0.0157349 0.00390992 0.0289417 0.00399689 0.018382 0.00374356 0.0482916
31 2 Si 5.36879 6.77254 1.4948 2.4 1 0.00148909 0.00281242 0.00213025 0.00506871 0.00273988 0.00680232 0.00368422 0.0195145 0.00271212 0.00762553 0.00250681 0.0275305 0.00304842 0.0152305 0.00415847 0.0267725 0.00451131 0.0173726 0.00505249 0.0461387
32 3 O 5.41937 8.38578 1.4948 -1.2 1 0.00203282 0.00330944 0.00172063 0.0050965 0.00204631 0.00762914 0.00316624 0.0208055 0.00217924 0.0083513 0.00226076 0.0288902 0.00219159 0.0156276 0.00308199 0.0289928 0.0044377 0.0175517 0.00464594 0.0475432
33 3 O 1.75158 5.79852 1.4948 -1.2 1 0.00141755 0.00307086 0.00181002 0.00407012 0.00238722 0.00587558 0.00314507 0.0194712 0.00284791 0.00721122 0.00261402 0.0277365 0.00269184 0.0151927 0.003428 0.0266473 0.00539643 0.0174704 0.00536364 0.045256
34 3 O 4.67421 6.06637 0.196716 -1.2 1 0.00115281 0.00272319 0.00172127 0.00471979 0.00214161 0.0067532 0.00281798 0.0196767 0.00246673 0.00806751 0.00234988 0.0262952 0.00329986 0.0141106 0.00415326 0.0265157 0.00458444 0.0167683 0.00531597 0.0448308
35 1 Mg 6.26654 4.74899 2.9896 1.2 1 0.00204142 0.00259049 0.00227734 0.00497425 0.00267948 0.00663133 0.0037103 0.0178655 0.00367369 0.00694687 0.00226704 0.0256943 0.00348952 0.0144899 0.00505236 0.0247161 0.00590032 0.0175886 0.00669178 0.0433683
36 3 O 4.63043 6.06637 2.79288 -1.2 1 0.00261244 0.00307761 0.00214952 0.00487168 0.00239166 0.00658733 0.00347559 0.0194249 0.00331722 0.00772954 0.00249244 0.0258722 0.00382578 0.014863 0.00480664 0.0268308 0.00549159 0.0181505 0.00658404 0.0451617
37 1 Mg -1.12976 4.79031 4.4844 1.2 1 0.00224929 0.00343668 0.00169061 0.00460608 0.00229759 0.0061706 0.0030318 0.0174417 0.00354636 0.00655586 0.00320978 0.0247463 0.0038561 0.0142996 0.00450199 0.0246443 0.00735672 0.0186056 0.00755494 0.0428178
38 2 Si -2.9517 7.47444 4.4844 2.4 1 0.0029328 0.00392299 0.00152993 0.00525104 0.00306062 0.00661487 0.00380321 0.0200516 0.00324534 0.00740832 0.00294786 0.0268952 0.00426664 0.0161607 0.00531496 0.0275824 0.00650277 0.0192374 0.00771651 0.046777
39 3 O -3.00198 5.86121 4.4844 -1.2 1 0.00272219 0.00404105 0.00143291 0.00488693 0.00314205 0.00643726 0.00396773 0.01853 0.0034712 0.00713281 0.00300246 0.0251793 0.00413785 0.0142872 0.00476408 0.0261604 0.00651869 0.0193017 0.00789595 0.0444249
40 3 O 0.666315 8.44846 4.4844 -1.2 1 0.00326709 0.00447037 0.00139806 0.00503692 0.00294392 0.00715694 0.00284307 0.0210243 0.00305065 0.00749575 0.00314682 0.0274202 0.00429143 0.0162352 0.00430611 0.028399 0.00600217 0.0197565 0.00769072 0.0476603
41 3 O -2.21213 8.18062 3.18632 -1.2 1 0.002883 0.00407767 0.00152086 0.00453697 0.00257079 0.00631653 0.00292176 0.0205951 0.00276126 0.0078589 0.00272613 0.0272115 0.00394286 0.0159584 0.00493913 0.0286851 0.00579292 0.0189367 0.00634911 0.0479537
42 3 O -2.25864 8.18062 5.78248 -1.2 1 0.00315706 0.00435194 0.00169484 0.0050211 0.00319855 0.00597959 0.00303942 0.0203671 0.0024581 0.00764036 0.00361201 0.0263534 0.00455027 0.0168895 0.00521709 0.0285549 0.00669118 0.0205594 0.0076697 0.0479912
43 1 Mg 1.20893 7.12349 2.9896 1.2 1 0.00216424 0.00367016 0.00157981 0.00461233 0.00285035 0.00671399 0.0037528 0.0195519 0.00295893 0.00800825 0.00297932 0.0277341 0.00333819 0.0159274 0.00384832 0.0269831 0.00541804 0.0182647 0.00627359 0.046323
44 1 Mg 4.00982 7.08218 4.4844 1.2 1 0.0028691 0.00394173 0.00163268 0.00499257 0.00274772 0.00642637 0.00380187 0.019913 0.00354134 0.00748943 0.00328821 0.0266921 0.00393798 0.0167227 0.00585377 0.0278096 0.00688269 0.0191505 0.00805323 0.0464836
45 2 Si 2.17861 9.14704 4.4844 2.4 1 0.00322009 0.00402999 0.00145456 0.00502072 0.00298279 0.00702867 0.0037315 0.0210764 0.00280562 0.0078999 0.00292133 0.0273724 0.00444303 0.0169494 0.00440519 0.0289306 0.00557463 0.0197373 0.00671014 0.0492785
46 3 O 2.18828 10.7603 4.4844 -1.2 1 0.00387727 0.00448911 0.00160661 0.00466543 0.00283258 0.00672554 0.00293855 0.020848 0.00226422 0.00803338 0.00235053 0.027769 0.00400701 0.0160862 0.0045104 0.0301893 0.00566671 0.0200368 0.00607902 0.0494975
47 3 O -4.43805 8.17302 4.4844 -1.2 1 0.00231711 0.00440378 0.00172157 0.0052334 0.00282741 0.00747925 0.00333521 0.020467 0.00327194 0.00791417 0.00350583 0.0275677 0.00457095 0.0161348 0.00494359 0.028846 0.00625323 0.0195883 0.00815051 0.0473812
48 3 O 2.89193 8.44087 3.18632 -1.2 1 0.00308464 0.00369724 0.00165922 0.00428913 0.00250995 0.00681569 0.00339398 0.0205564 0.00291263 0.00815858 0.00262719 0.0272448 0.00367331 0.0160253 0.00454489 0.0287007 0.00569424 0.0188079 0.00581143 0.0480387
49 1 Mg 1.25915 7.12349 0 1.2 1 0.000627878 0.00304438 0.001453 0.00423948 0.00168982 0.00706457 0.0028347 0.0202078 0.00281441 0.00841745 0.00250424 0.0276557 0.00323042 0.0139903 0.00353674 0.0276463 0.0045917 0.0176367 0.00443728 0.0457169
50 3 O 2.84547 8.44087 5.78248 -1.2 1 0.00310544 0.00455676 0.00149886 0.00487489 0.00286271 0.00646192 0.00325307 0.0204608 0.00291692 0.00806376 0.00353224 0.0260901 0.00542553 0.0168724 0.00548975 0.0287492 0.00578727 0.0208215 0.00715104 0.0480305
51 1 Mg -1.59284 7.16481 1.4948 1.2 1 0.00157045 0.00319309 0.00136069 0.00481533 0.00183342 0.00633287 0.00277426 0.0198607 0.00291162 0.0079177 0.0018095 0.0277639 0.0031229 0.0154957 0.00364453 0.0271869 0.00446053 0.0177391 0.00546521 0.0462899
52 2 Si 0.240329 5.09994 1.4948 2.4 1 0.00136659 0.00324682 0.00201977 0.00411312 0.00184179 0.00662958 0.00307668 0.0188787 0.0030825 0.00733268 0.00244596 0.0261599 0.00244251 0.0143273 0.00399095 0.0247815 0.00519088 0.0169455 0.00495946 0.0444369
53 3 O 0.234538 3.48671 1.4948 -1.2 1 0.00152202 0.00329396 0.00252403 0.00435663 0.00184841 0.00640873 0.00262614 0.017875 0.00322412 0.00683007 0.00260889 0.024574 0.00282058 0.0132061 0.00375153 0.023885 0.00579896 0.0160451 0.00517211 0.0419962
54 3 O 6.85564 6.07396 1.4948 -1.2 1 0.00166694 0.00240196 0.00238447 0.0049863 0.00251223 0.00603336 0.00318848 0.0198248 0.003123 0.00753136 0.00210827 0.0277084 0.00301967 0.0145725 0.00458112 0.0268235 0.00540944 0.0178374 0.0059735 0.0452029
55 3 O -0.429565 5.80612 0.196716 -1.2 1 0.000894425 0.00287855 0.00224579 0.0042788 0.00179011 0.00700582 0.00260939 0.0194907 0.00282925 0.00840308 0.00236554 0.0259893 0.00244002 0.0136316 0.00380942 0.0259186 0.00509138 0.017017 0.0055275 0.0449607
56 3 O -0.473377 5.80612 2.79288 -1.2 1 0.00236088 0.00309178 0.00176477 0.00468172 0.00230341 0.00683441 0.00320786 0.0190949 0.00301092 0.00778713 0.00284182 0.0256093 0.00330231 0.0144839 0.00450536 0.0260468 0.00638056 0.0181174 0.00665863 0.0450509
57 1 Mg 6.40169 9.49799 0 1.2 1 0.00162918 0.00387347 0.00167563 0.00490097 0.0014894 0.00826639 0.00208452 0.0210428 0.00179495 0.00893221 0.00174725 0.028734 0.00224503 0.014665 0.00292141 0.0294881 0.00363782 0.0181539 0.00419081 0.0471077
58 1 Mg 3.64209 14.2057 1.4948 1.2 1 0.00362406 0.0035626 0.00137888 0.00485967 0.00137936 0.00881574 0.00165663 0.0215818 0.00139941 0.00850748 0.00205597 0.0277484 0.00226589 0.0161268 0.00314123 0.0294952 0.00360777 0.0171736 0.00342861 0.0487238
59 2 Si 5.45748 11.5215 1.4948 2.4 1 0.00338619 0.00376518 0.00164234 0.00490244 0.00160489 0.00814316 0.00224247 0.021039 0.00137879 0.00822625 0.00155425 0.0284933 0.00242292 0.0162099 0.00349442 0.0292624 0.00394311 0.0172344 0.00370004 0.0486697
60 3 O 5.51101 13.1348 1.4948 -1.2 1 0.00372823 0.00371385 0.00163393 0.00484113 0.00126003 0.00904405 0.00188183 0.0211281 0.00155171 0.00856127 0.00138296 0.0288401 0.00194553 0.016119 0.00297332 0.0297782 0.00380335 0.0169514 0.0033858 0.0485014
61 3 O 1.83851 10.5475 1.4948 -1.2 1 0.00236125 0.00367395 0.0016193 0.00482214 0.00160512 0.00765395 0.00246176 0.0216078 0.00180491 0.00841314 0.00198342 0.0290555 0.00232988 0.0158095 0.00322725 0.0296034 0.0038682 0.0182535 0.00322803 0.0486199
62 3 O 4.7611 10.8154 0.196716 -1.2 1 0.00209948 0.0034678 0.001873 0.00507088 0.00141929 0.00853279 0.00227197 0.0213369 0.00145207 0.00861901 0.00181856 0.0280215 0.00281795 0.0155521 0.0039107 0.0295083 0.00366754 0.0174778 0.00351428 0.048167
63 1 Mg 6.35203 9.49799 2.9896 1.2 1 0.00244926 0.00387019 0.00144216 0.0048209 0.00256637 0.0074733 0.00326963 0.0204356 0.00308483 0.0084344 0.00218844 0.0286058 0.00349437 0.0163508 0.00331007 0.0288836 0.00407136 0.0186176 0.00517891 0.0483377
64 3 O 4.71833 10.8154 2.79288 -1.2 1 0.00364318 0.003687 0.00144853 0.00454294 0.00192891 0.0080682 0.00229572 0.0213952 0.00199335 0.00890533 0.00207737 0.0277619 0.00328968 0.0162566 0.00408598 0.0298156 0.00489005 0.0186097 0.0052893 0.0491776
65 1 Mg -1.0438 9.53931 4.4844 1.2 1 0.00372331 0.00456178 0.00136533 0.00450796 0.00302903 0.00651289 0.00260526 0.0208637 0.00289855 0.00804384 0.00287411 0.0275394 0.00382046 0.016756 0.0044701 0.0291561 0.00627546 0.0200685 0.00671359 0.0490702
66 2 Si -2.8604 12.2234 4.4844 2.4 1 0.00383605 0.00447847 0.00150505 0.00433829 0.00269591 0.0072136 0.00294101 0.0216384 0.00253656 0.00846415 0.00230045 0.026925 0.00409396 0.0167743 0.00417339 0.0297943 0.00545135 0.0196123 0.00606425 0.0503923
67 3 O -2.91391 10.6102 4.4844 -1.2 1 0.00391728 0.00458874 0.00152515 0.00449976 0.00291042 0.00680454 0.00327071 0.0204823 0.00269835 0.00765977 0.00212773 0.0277043 0.00412638 0.0163299 0.00406763 0.0301087 0.00564009 0.0197689 0.00641253 0.0497086
68 3 O 0.7596 13.1975 4.4844 -1.2 1 0.00424734 0.00463246 0.00148134 0.00498343 0.00288097 0.0080631 0.00224058 0.022098 0.00235769 0.00852953 0.0029284 0.0274378 0.00391621 0.0166849 0.00411285 0.0296894 0.00581299 0.0198097 0.00615958 0.0499067
69 3 O -2.12001 12.9296 3.18632 -1.2 1 0.00441117 0.00402378 0.00148802 0.00424532 0.0023464 0.00725259 0.00231665 0.0216116 0.00229254 0.00833334 0.00233225 0.0270846 0.00358847 0.0164097 0.00464794 0.0301651 0.0050154 0.0185268 0.00508091 0.0497382
70 3 O -2.16532 12.9296 5.78248 -1.2 1 0.00435033 0.00495134 0.00149602 0.00431446 0.00296561 0.00631888 0.00221622 0.0213778 0.00241128 0.00819207 0.00263461 0.026275 0.00398101 0.0169681 0.00450765 0.0307347 0.00605536 0.0209138 0.00649709 0.0507535
71 1 Mg 1.29891 11.8725 2.9896 1.2 1 0.00384459 0.00385649 0.00156936 0.00487998 0.00214983 0.00788354 0.00282799 0.0209914 0.00236382 0.00857785 0.0020437 0.0284447 0.0030862 0.0166241 0.00360672 0.0295065 0.00451789 0.0182191 0.00450552 0.0486782
72 1 Mg 4.10033 11.8312 4.4844 1.2 1 0.00372325 0.00409491 0.0014038 0.00448307 0.00257841 0.00693184 0.0026201 0.0211621 0.00248766 0.0083895 0.00277621 0.0277016 0.00358792 0.0179015 0.00530425 0.0299493 0.00585777 0.0195236 0.00583352 0.0496835
73 2 Si 2.27333 13.896 4.4844 2.4 1 0.00418817 0.00408906 0.00123483 0.00499069 0.00305185 0.00760713 0.00289666 0.0215132 0.00223772 0.00811854 0.0025417 0.0269192 0.00353254 0.0169127 0.00415986 0.0297711 0.00538767 0.0191622 0.00584517 0.0505007
74 3 O 2.28634 15.5093 4.4844 -1.2 1 0.00427461 0.00456166 0.00129585 0.00456044 0.00295112 0.00686212 0.00263923 0.0206997 0.00241558 0.00767248 0.00208194 0.0275192 0.00323124 0.0159223 0.00403648 0.0303578 0.00560995 0.0188349 0.00619991 0.0499928
75 3 O -4.34533 12.922 4.4844 -1.2 1 0.00377326 0.00455506 0.00152936 0.00472134 0.00286886 0.00796401 0.00278496 0.0214766 0.00275845 0.00861988 0.00252233 0.027594 0.00401055 0.0166816 0.00475955 0.0298351 0.00597044 0.0196001 0.00672182 0.0497064
76 3 O 2.98455 13.1899 3.18632 -1.2 1 0.00423329 0.00366482 0.0011887 0.00432819 0.00239517 0.00761878 0.00195977 0.0216742 0.00210047 0.00859072 0.00232591 0.0271036 0.00313809 0.016285 0.00452844 0.0297791 0.00534976 0.0186518 0.00527205 0.0493171
77 1 Mg 1.34779 11.8725 0 1.2 1 0.00205457 0.00333689 0.0013063 0.00508102 0.00137292 0.0088554 0.00170156 0.0212445 0.00123173 0.00907057 0.0019033 0.0287702 0.00275528 0.0149228 0.00306035 0.0300676 0.00323527 0.0176357 0.00334329 0.0476107
78 3 O 2.93934 13.1899 5.78248 -1.2 1 0.00385832 0.00509364 0.0014144 0.00463092 0.003156 0.00651807 0.00260615 0.0217992 0.00231629 0.00819188 0.00285723 0.0260209 0.00423366 0.0168453 0.00479864 0.0309133 0.0059897 0.0213681 0.00659591 0.0510636
79 1 Mg -1.50344 11.9138 1.4948 1.2 1 0.00293177 0.00366564 0.00135133 0.00451902 0.00129214 0.00805964 0.0018733 0.0216655 0.00219956 0.00855166 0.00140814 0.0282672 0.00331798 0.016117 0.00320761 0.0297427 0.00331919 0.017789 0.00340309 0.0485344
80 2 Si 0.326006 9.84894 1.4948 2.4 1 0.00200272 0.00356094 0.00119324 0.0049978 0.00167177 0.00811213 0.00234619 0.021088 0.00226351 0.00837084 0.00142751 0.0285025 0.00269284 0.0157096 0.0034903 0.0288425 0.00350579 0.0179522 0.00329158 0.0481359
81 3 O 0.317364 8.23571 1.4948 -1.2 1 0.00201964 0.00344648 0.0011271 0.00465278 0.00186654 0.00762191 0.00211016 0.0201958 0.00262221 0.00795618 0.00189066 0.0286946 0.00320518 0.0158281 0.00382174 0.0285855 0.00424676 0.0177316 0.00404174 0.0474208
82 3 O 6.94307 10.823 1.4948 -1.2 1 0.00290526 0.00379289 0.00148471 0.00459331 0.00161225 0.00770352 0.00256723 0.0217534 0.00241453 0.00835967 0.00139498 0.029102 0.00275556 0.0159785 0.00337934 0.0297781 0.00365667 0.0181184 0.00396509 0.0486665
83 3 O -0.343122 10.5551 0.196716 -1.2 1 0.00239701 0.00330193 0.00123799 0.00484084 0.00134104 0.00835207 0.00194239 0.0213476 0.0017707 0.00889707 0.00181489 0.0281072 0.00331822 0.0154291 0.00404054 0.0293777 0.00337202 0.0177159 0.00345629 0.0479716
84 3 O -0.385966 10.5551 2.79288 -1.2 1 0.00377786 0.00381068 0.00120836 0.00449814 0.00235005 0.00774041 0.00220086 0.0213742 0.00192217 0.00886641 0.00229688 0.027357 0.0036659 0.016065 0.00409432 0.0297063 0.00504893 0.0187435 0.00490168 0.0489287
85 1 Mg 6.49448 14.247 0 1.2 1 0.00245829 0.00362155 0.00165846 0.00488961 0.00099105 0.00919105 0.00121543 0.0212243 0.0012044 0.00841095 0.00132238 0.0284839 0.00181982 0.015328 0.00252974 0.0300312 0.00316411 0.0166837 0.00298876 0.0477458
86 1 Mg 3.74457 18.9547 1.4948 1.2 1 0.00307325 0.00296259 0.00099044 0.00416882 0.00169003 0.00847365 0.0010756 0.0220775 0.00173441 0.00784567 0.00188269 0.0272592 0.00216037 0.0163998 0.0032108 0.0289353 0.0034708 0.016406 0.00311653 0.0491201
87 2 Si 5.55495 16.2705 1.4948 2.4 1 0.00371865 0.00332551 0.0012526 0.00453047 0.00160497 0.00882836 0.00138319 0.0213974 0.00123204 0.00778694 0.00102352 0.0281149 0.0020811 0.0162164 0.00285246 0.0288886 0.00371744 0.01597 0.00340605 0.0487982
88 3 O 5.6115 17.8838 1.4948 -1.2 1 0.00328095 0.00284103 0.00119102 0.00438969 0.00157442 0.00899875 0.00117225 0.021653 0.00169098 0.00769165 0.00119279 0.0283434 0.00196958 0.0163084 0.00287918 0.0290638 0.00337512 0.015759 0.00331698 0.0488673
89 3 O 1.93416 15.2965 1.4948 -1.2 1 0.00358021 0.00349489 0.00133877 0.00472847 0.00156494 0.00837126 0.00182946 0.0217691 0.0015815 0.00800876 0.00140469 0.0285516 0.00189093 0.0162413 0.00297699 0.0297726 0.00375015 0.0166485 0.00312943 0.0489266
90 3 O 4.85636 15.5644 0.196716 -1.2 1 0.00270263 0.00298408 0.00142568 0.00478197 0.00122569 0.00917302 0.0012512 0.0213914 0.00114077 0.00806571 0.00164267 0.0276553 0.00253585 0.0159861 0.00362344 0.0292377 0.00325646 0.0159664 0.00304415 0.0483619
91 1 Mg 6.44662 14.247 2.9896 1.2 1 0.00334141 0.00382562 0.00114304 0.00459024 0.00229707 0.00826914 0.00284851 0.0207073 0.00256157 0.00868775 0.00178931 0.0284156 0.0030025 0.0166035 0.00320568 0.0294138 0.00390025 0.0176255 0.00451323 0.0488349
92 3 O 4.81537 15.5644 2.79288 -1.2 1 0.00417824 0.00346759 0.00106114 0.00445868 0.00200276 0.00850331 0.00150643 0.0217236 0.00129904 0.00849813 0.00159095 0.0272973 0.00231031 0.0162351 0.00350145 0.0295973 0.00465139 0.0173326 0.00484538 0.0490625
93 1 Mg -0.948271 14.2883 4.4844 1.2 1 0.00456575 0.00433024 0.00144872 0.00444424 0.00280697 0.00727508 0.00254359 0.0212669 0.00252233 0.00832481 0.00286874 0.0271353 0.00329671 0.0171067 0.00485195 0.0297916 0.00573752 0.0186535 0.00612782 0.0500308
94 2 Si -2.75928 16.9724 4.4844 2.4 1 0.00385086 0.00392135 0.0011624 0.00429235 0.00261327 0.00742312 0.00255227 0.0216066 0.002423 0.00781985 0.00233051 0.026617 0.00331889 0.0166433 0.00394666 0.0292497 0.00488384 0.0184701 0.00609677 0.0504308
95 3 O -2.81617 15.3592 4.4844 -1.2 1 0.00459409 0.00430526 0.00115129 0.00414307 0.00279094 0.00702317 0.00258894 0.0206685 0.00248723 0.00772923 0.00204607 0.0271216 0.00332769 0.01601 0.00394374 0.0300018 0.00568881 0.0184907 0.00657591 0.049641
96 3 O 0.862762 17.9465 4.4844 -1.2 1 0.00387503 0.00421257 0.001227 0.0047082 0.00265591 0.00792401 0.00238721 0.0219025 0.00249986 0.00800953 0.00232372 0.0274996 0.00333191 0.0165822 0.00435984 0.0291717 0.00561899 0.0184164 0.00604995 0.0496399
97 3 O -2.0185 17.6786 3.18632 -1.2 1 0.00402872 0.00354974 0.00142809 0.00396325 0.00237808 0.00723968 0.00207336 0.0219571 0.00209617 0.00772628 0.00206427 0.0269373 0.00315781 0.0163127 0.00417767 0.0299412 0.00462907 0.0174898 0.00507689 0.0501543
98 3 O -2.06164 17.6786 5.78248 -1.2 1 0.00393111 0.00466061 0.00130235 0.00411126 0.00273234 0.00637203 0.00200375 0.0212163 0.00252695 0.00774039 0.0025982 0.0261408 0.00281551 0.016462 0.00448057 0.0299256 0.00534415 0.0197763 0.00624254 0.0501252
99 1 Mg 1.39817 16.6215 2.9896 1.2 1 0.00396406 0.00365419 0.00132553 0.00471858 0.00234005 0.00829467 0.00237931 0.0209301 0.00224985 0.00803138 0.00193186 0.0280458 0.00241933 0.016504 0.00320411 0.0293032 0.00420799 0.0168597 0.0042831 0.0490951
100 1 Mg 4.20062 16.5802 4.4844 1.2 1 0.00415614 0.00369806 0.00122126 0.00437838 0.00243351 0.00719619 0.00211426 0.0212447 0.00272802 0.0077271 0.00261388 0.0271963 0.00288647 0.0172093 0.00541078 0.0296618 0.00631381 0.0184397 0.00610903 0.0500551
101 2 Si 2.37796 18.645 4.4844 2.4 1 0.003721 0.0037263 0.00121531 0.00454718 0.00274196 0.00752179 0.00273426 0.0218916 0.00243368 0.007937 0.002485 0.0269656 0.00318913 0.0167518 0.00443654 0.0290633 0.00508652 0.0178092 0.0055481 0.0503736
102 3 O 2.39434 20.2583 4.4844 -1.2 1 0.00345907 0.00379395 0.00120963 0.00434884 0.00288187 0.00660158 0.00245019 0.0210116 0.00272236 0.00727756 0.00194281 0.0277098 0.00300131 0.0163044 0.00419261 0.0296015 0.00540066 0.0177665 0.00643424 0.0500164
103 3 O -4.24274 17.671 4.4844 -1.2 1 0.00360472 0.00422598 0.00120333 0.00455946 0.00245052 0.00822498 0.00245238 0.0217634 0.00270567 0.00792739 0.00241972 0.0272772 0.00305675 0.0162652 0.004806 0.0292499 0.00579208 0.0186687 0.00636891 0.0497203
104 3 O 3.08659 17.9389 3.18632 -1.2 1 0.00416096 0.00325332 0.00112521 0.00419202 0.00238079 0.00776983 0.0018158 0.0217184 0.00206221 0.00775441 0.00214094 0.0267843 0.00266639 0.0162647 0.00441673 0.0293612 0.00511579 0.0172256 0.00514334 0.0497505
105 1 Mg 1.44478 16.6215 0 1.2 1 0.00270807 0.00294869 0.00123458 0.00451015 0.00126348 0.00890538 0.00108566 0.0214717 0.0013044 0.00797014 0.00145806 0.0280681 0.00226346 0.01554 0.00248579 0.0293458 0.00290542 0.0160759 0.00305843 0.0480168
106 3 O 3.0436 17.9389 5.78248 -1.2 1 0.00367678 0.00451789 0.00111961 0.00454424 0.00258729 0.00641196 0.0021748 0.0215028 0.00221398 0.00801462 0.00278133 0.0258564 0.00330346 0.0164591 0.00461382 0.0301998 0.00590839 0.0204809 0.00660354 0.0501608
107 1 Mg -1.40524 16.6628 1.4948 1.2 1 0.00326959 0.0032974 0.00117565 0.00445627 0.00155394 0.0085444 0.00180592 0.0221304 0.00160819 0.00803296 0.00171722 0.0278064 0.00268719 0.0165756 0.00285447 0.0294209 0.00297 0.0165601 0.00315682 0.0488831
108 2 Si 0.420358 14.5979 1.4948 2.4 1 0.00351727 0.00340484 0.00143069 0.00493686 0.00171578 0.00896974 0.00186266 0.021392 0.00156985 0.00821002 0.00133199 0.0278687 0.00276119 0.016446 0.00355664 0.0288221 0.0033437 0.0166573 0.00331396 0.0485243
109 3 O 0.408732 12.9847 1.4948 -1.2 1 0.00343677 0.00350245 0.00125811 0.00481184 0.00147906 0.00894471 0.00145654 0.0211671 0.00205943 0.00841833 0.00132064 0.028629 0.00284313 0.0161908 0.00310917 0.0297069 0.00312729 0.0171921 0.0034412 0.048509
110 3 O 7.03923 15.572 1.4948 -1.2 1 0.00359968 0.00342459 0.00136271 0.00450315 0.0017644 0.00815963 0.00214993 0.0217211 0.00188505 0.00794353 0.00140799 0.0286441 0.00266824 0.0162356 0.00302799 0.0297241 0.00341537 0.0167621 0.00348635 0.0489798
111 3 O -0.248332 15.3041 0.196716 -1.2 1 0.00289964 0.00306443 0.00134445 0.00477335 0.001098 0.00902297 0.00166787 0.021351 0.00126501 0.00821902 0.00180725 0.0276137 0.00284361 0.0157244 0.00367444 0.0292235 0.00291946 0.0162951 0.00318265 0.0481792
112 3 O -0.289436 15.3041 2.79288 -1.2 1 0.0046204 0.00374799 0.00130655 0.00449238 0.00214367 0.00846265 0.00176657 0.0218106 0.00159597 0.00844583 0.00195908 0.0266908 0.00283424 0.0165395 0.00344337 0.0295917 0.00435528 0.0176869 0.00450306 0.0493317
113 1 Mg 6.59566 18.996 0 1.2 1 0.00184888 0.00301968 0.00133562 0.00434015 0.000739376 0.00857491 0.00102254 0.021917 0.00128817 0.00775588 0.00125858 0.0278512 0.00203925 0.0161533 0.00232914 0.0286254 0.00291644 0.0157147 0.00285481 0.048094
114 1 Mg 3.85574 23.7037 1.4948 1.2 1 0.00178714 0.002219 0.00106951 0.00422998 0.00170355 0.00736886 0.00126522 0.0230216 0.00171267 0.00739692 0.00212828 0.0271658 0.00229685 0.017382 0.00356066 0.0285609 0.00342512 0.0171205 0.00321999 0.0499977
115 2 Si 5.66125 21.0195 1.4948 2.4 1 0.00243442 0.00230942 0.000993692 0.00436691 0.00181563 0.00803099 0.00136888 0.0217801 0.00119163 0.00721743 0.00130479 0.027747 0.00224029 0.0170821 0.00271509 0.0281024 0.00356816 0.0156804 0.00371939 0.0496481
116 3 O 5.72074 22.6328 1.4948 -1.2 1 0.00223886 0.00235175 0.00135434 0.00424294 0.00161188 0.00807187 0.00154215 0.0222218 0.00166248 0.00709781 0.00104588 0.0277465 0.00199693 0.0171199 0.00284777 0.028514 0.00325656 0.0161529 0.00340639 0.0496215
117 3 O 2.03867 20.0455 1.4948 -1.2 1 0.00276906 0.00291474 0.000967816 0.00437784 0.00157597 0.00767562 0.00167616 0.022219 0.00194673 0.00724693 0.00138764 0.028025 0.00188024 0.0169845 0.00243156 0.0289867 0.00353992 0.0160734 0.00343423 0.0496743
118 3 O 4.96004 20.3134 0.196716 -1.2 1 0.00197803 0.00208875 0.00113582 0.00430565 0.00116836 0.00827731 0.00113688 0.0218104 0.00109031 0.00739763 0.00148182 0.0273025 0.00253128 0.0163799 0.0036263 0.0286807 0.00310276 0.0152414 0.00292083 0.0488729
119 1 Mg 6.55057 18.996 2.9896 1.2 1 0.00307217 0.00338087 0.00106486 0.00421231 0.00241915 0.00785385 0.00253154 0.0212038 0.0023601 0.0076888 0.0014304 0.0284378 0.00262204 0.0168467 0.00300833 0.0287934 0.00383123 0.0167046 0.00449092 0.0493651