ITEM: TIMESTEP
42700
ITEM: NUMBER OF ATOMS
10500
ITEM: BOX BOUNDS xy xz yz pp pp pp
0	15.2977	5.09925
0	118.725	0
0	89.688	0
ITEM: ATOMS id type element xu yu zu q Q_1 Q_2 Q_3 Q_4 Q_5 Q_6 Q_7 Q_8 Q_9 Q_10 Q_11 Q_12 Q_13 Q_14 Q_15 Q_16 Q_17 Q_18 Q_19 Q_20 Q_21
1 1 Mg 6.2404 -6.37941e-06 0 1.2 1 0.0019733 0.00400667 0.00143135 0.00475053 0.00135161 0.0054855 0.00199098 0.0158613 0.00217735 0.00572398 0.00227541 0.0218331 0.00267363 0.0133481 0.00355497 0.0205232 0.00405406 0.0141907 0.00388539 0.0399567
2 1 Mg 3.46349 4.70768 1.4948 1.2 1 0.001907 0.00347313 0.00155991 0.00440285 0.00210776 0.00621535 0.00364477 0.0185198 0.00295288 0.00670774 0.00286813 0.0259844 0.00364791 0.0138289 0.00461271 0.0250065 0.00528618 0.0169812 0.00559941 0.0437014
3 2 Si 5.2885 2.02354 1.4948 2.4 1 0.00172753 0.00330983 0.00218673 0.00439259 0.00192952 0.00575053 0.00256549 0.0169008 0.00234482 0.00601053 0.00204091 0.023371 0.00305891 0.0132762 0.00369783 0.021435 0.00397526 0.015176 0.00439788 0.0409427
4 3 O 5.33628 3.63678 1.4948 -1.2 1 0.00133642 0.00288825 0.00167885 0.00457724 0.00208985 0.00636037 0.00303325 0.0176395 0.00222083 0.00660868 0.00203537 0.0252348 0.00271843 0.0133799 0.00431042 0.0237026 0.00514991 0.0162648 0.00585909 0.0423938
5 3 O 1.67294 1.04952 1.4948 -1.2 1 0.00270882 0.00331569 0.00197602 0.00393692 0.00130385 0.00587369 0.00249848 0.0166641 0.00227993 0.00597501 0.00211702 0.0227271 0.00286589 0.0125484 0.00329548 0.0217451 0.00454093 0.0155142 0.00466534 0.0397874
6 3 O 4.59532 1.31737 0.196716 -1.2 1 0.00216536 0.00287816 0.00213309 0.00430768 0.00196162 0.00564467 0.00234357 0.0168967 0.00272337 0.00615781 0.00206048 0.0223756 0.00350008 0.0126388 0.00438942 0.0212386 0.00410763 0.0147399 0.00451011 0.0404055
7 1 Mg 6.18956 -6.37941e-06 2.9896 1.2 1 0.00200202 0.00437844 0.00133567 0.00406845 0.00141426 0.00579618 0.00248108 0.015938 0.00250342 0.00524958 0.00195094 0.0225452 0.00306099 0.0131832 0.00360639 0.0203149 0.00441386 0.014544 0.00481561 0.0390017
8 3 O 4.55118 1.31737 2.79288 -1.2 1 0.00220111 0.00439873 0.00182864 0.00409373 0.00189006 0.00582773 0.00252494 0.0167899 0.00238711 0.00670064 0.00241645 0.0217797 0.00358034 0.0120142 0.00335044 0.0212841 0.00473162 0.0153081 0.00526354 0.0398347
9 1 Mg -1.20682 0.0413099 4.4844 1.2 1 0.00119584 0.00285109 0.00162228 0.00438233 0.00147285 0.00539811 0.00209639 0.0161605 0.00215199 0.00546689 0.0021879 0.0225372 0.00336627 0.0115469 0.00389016 0.020594 0.0051151 0.0154161 0.00517249 0.0386546
10 2 Si -3.0337 2.72544 4.4844 2.4 1 0.00101443 0.00352392 0.0016557 0.00459997 0.00193644 0.00606141 0.0031883 0.0165744 0.00320057 0.0059059 0.00226638 0.0241247 0.00332247 0.0128112 0.00407138 0.0222881 0.00547009 0.0172247 0.00623256 0.0399182
11 3 O -3.08099 1.11221 4.4844 -1.2 1 0.000901386 0.00379635 0.00155736 0.00410351 0.00135522 0.00545283 0.00246182 0.0159531 0.00271755 0.00509578 0.00230461 0.0224058 0.00352376 0.0111641 0.00364495 0.0211038 0.00512778 0.0158973 0.00526102 0.0383629
12 3 O 0.582463 3.69946 4.4844 -1.2 1 0.00250438 0.00460696 0.00183716 0.00434988 0.00237905 0.00655764 0.00352409 0.0170564 0.00325459 0.00610401 0.00339952 0.0246526 0.0041363 0.0126807 0.00430311 0.0240993 0.00704629 0.0184091 0.00834147 0.0414267
13 3 O -2.29524 3.43162 3.18632 -1.2 1 0.00156374 0.00302078 0.00231391 0.00446354 0.00211024 0.00592104 0.00301194 0.0175748 0.00311137 0.00655849 0.00284877 0.0245887 0.00344106 0.0127809 0.00477177 0.0239461 0.00597824 0.0175813 0.00654444 0.0418577
14 3 O -2.34216 3.43162 5.78248 -1.2 1 0.00145063 0.00400623 0.00113038 0.00467048 0.00246694 0.00567855 0.00321156 0.0169862 0.00292279 0.00673679 0.00280576 0.0235677 0.00431849 0.0124318 0.00405864 0.0231222 0.00639143 0.0186521 0.00775355 0.0399213
15 1 Mg 1.12778 2.37449 2.9896 1.2 1 0.00267132 0.0036955 0.00219451 0.00426938 0.00207438 0.00601911 0.00291328 0.0165047 0.00271184 0.00594286 0.00233606 0.0233801 0.00344613 0.0126584 0.00328008 0.0218809 0.00490053 0.016291 0.00561151 0.0405894
16 1 Mg 3.92855 2.33318 4.4844 1.2 1 0.00160932 0.00441924 0.00132883 0.00409143 0.00173149 0.00578984 0.00354248 0.0165597 0.00298148 0.0057153 0.00306189 0.0230234 0.00374066 0.0131353 0.0051309 0.0216967 0.00626836 0.0169216 0.0070825 0.0399026
17 2 Si 2.09341 4.39804 4.4844 2.4 1 0.00164095 0.00442804 0.00172984 0.00402769 0.00277338 0.0059422 0.00363661 0.0178213 0.00349541 0.00648612 0.00361945 0.0250291 0.00464388 0.0138792 0.00449521 0.0245248 0.00665512 0.0183088 0.0082475 0.0429976
18 3 O 2.09991 6.01128 4.4844 -1.2 1 0.00209846 0.00484395 0.0013732 0.00389117 0.00290695 0.00644303 0.00316144 0.0190549 0.00284458 0.00692425 0.00321217 0.0265318 0.00399317 0.014249 0.00474546 0.0271455 0.00691552 0.0192474 0.00820881 0.0447323
19 3 O -4.52137 3.42402 4.4844 -1.2 1 0.000934507 0.00395769 0.00190197 0.00435789 0.00219727 0.00700318 0.00340573 0.0167319 0.00333119 0.00598781 0.00313681 0.0236976 0.0039452 0.0126634 0.00428456 0.0227339 0.00617325 0.0173141 0.0076312 0.0408104
20 3 O 2.80834 3.69187 3.18632 -1.2 1 0.00153533 0.00389743 0.00163076 0.00353362 0.00196626 0.006039 0.00309063 0.0172306 0.00297897 0.00609932 0.00282185 0.0241976 0.00375269 0.012762 0.00469375 0.0236959 0.0057043 0.0169576 0.0064291 0.0422164
21 1 Mg 1.17857 2.37449 0 1.2 1 0.0027546 0.00353006 0.00206381 0.00393894 0.00159055 0.0056734 0.00241883 0.0170036 0.00241376 0.00652631 0.00272829 0.0232168 0.00297022 0.0130123 0.00343271 0.0215302 0.00431246 0.0147925 0.00470321 0.0402681
22 3 O 2.76143 3.69187 5.78248 -1.2 1 0.00189654 0.00434381 0.00167429 0.0040675 0.00207933 0.00546178 0.00281228 0.0171884 0.00313657 0.00667814 0.00315718 0.0237136 0.00472708 0.0131448 0.00558762 0.0231947 0.00672481 0.0183626 0.00803779 0.0406558
23 1 Mg -1.67381 2.41581 1.4948 1.2 1 0.00250951 0.00263165 0.00222784 0.00461729 0.0013666 0.00606028 0.00253164 0.0163792 0.00267959 0.00611641 0.00217104 0.0243307 0.00278234 0.0140192 0.00299859 0.0221039 0.00451492 0.0160545 0.00482188 0.0414928
24 2 Si 0.16286 0.350945 1.4948 2.4 1 0.00310263 0.00248116 0.00248793 0.00441062 0.0011896 0.00637802 0.00282953 0.0161722 0.00216482 0.00502965 0.00190942 0.0229117 0.00260067 0.0132896 0.00299854 0.0205974 0.00463146 0.0147378 0.00426436 0.0400098
25 3 O 0.15972 -1.26229 1.4948 -1.2 1 0.00290622 0.0025341 0.00265935 0.00445284 0.00169608 0.00615936 0.00258454 0.0161412 0.00230411 0.00521893 0.0024733 0.022774 0.00283892 0.0138642 0.00284426 0.0216363 0.00428672 0.0147038 0.00384768 0.0405075
26 3 O 6.77654 1.32496 1.4948 -1.2 1 0.00230275 0.00362627 0.00149517 0.00438728 0.00125735 0.00603286 0.00239824 0.0165945 0.00241445 0.00534945 0.00176186 0.0237498 0.00307935 0.013392 0.0036122 0.0215709 0.0047063 0.0151578 0.00454633 0.0406398
27 3 O -0.508028 1.05712 0.196716 -1.2 1 0.00265171 0.00262622 0.00307959 0.00400633 0.00127441 0.00571189 0.00238671 0.0168259 0.00175895 0.00658756 0.00240471 0.0222329 0.00278017 0.0126748 0.00306384 0.0211499 0.00418456 0.0150945 0.00429229 0.0398216
28 3 O -0.552171 1.05712 2.79288 -1.2 1 0.00224449 0.00229171 0.0026311 0.00431592 0.0012866 0.00614193 0.00250414 0.0160123 0.00237756 0.00599338 0.00174783 0.0228449 0.00319389 0.0115924 0.00357302 0.0215241 0.00532303 0.0155869 0.00485617 0.0393472
29 1 Mg 6.31713 4.74899 0 1.2 1 0.001727 0.00258785 0.00181444 0.00464317 0.00238229 0.00622336 0.00329253 0.0178448 0.0028451 0.00695147 0.00224335 0.0253188 0.00306149 0.0134856 0.00440987 0.0244792 0.0048353 0.0161262 0.00619199 0.0422199
30 1 Mg 3.54847 9.45668 1.4948 1.2 1 0.00114781 0.00382922 0.00171498 0.00480836 0.00204486 0.00774995 0.00314501 0.0213171 0.00162365 0.00833397 0.00240451 0.0285774 0.00325724 0.0156112 0.00406135 0.0290593 0.00428035 0.0182114 0.00381051 0.0484169
31 2 Si 5.36879 6.77254 1.4948 2.4 1 0.000824815 0.00345601 0.00192074 0.00514462 0.00277207 0.00702615 0.00375286 0.0194926 0.00278321 0.00778926 0.00252901 0.0276212 0.00320411 0.0152553 0.00441277 0.0266198 0.0046666 0.017228 0.00539008 0.0460979
32 3 O 5.41937 8.38578 1.4948 -1.2 1 0.000744181 0.0036614 0.00157024 0.00514743 0.00229834 0.00782692 0.00326894 0.0208695 0.00230785 0.00836785 0.00254257 0.0290535 0.00235657 0.0156337 0.00336407 0.0289831 0.00473615 0.0175666 0.00482406 0.0476709
33 3 O 1.75158 5.79852 1.4948 -1.2 1 0.00150933 0.00365552 0.00151468 0.00409926 0.00247436 0.00615378 0.00337405 0.0194022 0.00283891 0.00716535 0.00277886 0.0278944 0.00310619 0.0153259 0.00376403 0.0265458 0.00556103 0.0176321 0.00569914 0.045338
34 3 O 4.67421 6.06637 0.196716 -1.2 1 0.00149712 0.00320801 0.00158261 0.00482685 0.00211865 0.00703121 0.00304917 0.0196143 0.00242225 0.00816902 0.00223006 0.0262945 0.00371159 0.0142746 0.0046706 0.0263388 0.00472859 0.0166184 0.00570703 0.0445589
35 1 Mg 6.26654 4.74899 2.9896 1.2 1 0.00169574 0.00342237 0.00213281 0.00475714 0.00250867 0.00656308 0.00380001 0.0177153 0.0037087 0.00676454 0.00235449 0.0259827 0.00369901 0.0143442 0.00505102 0.0246103 0.00589476 0.0174753 0.00715742 0.0430719
36 3 O 4.63043 6.06637 2.79288 -1.2 1 0.00160643 0.00378815 0.00172547 0.00469598 0.00230365 0.00694178 0.0034829 0.0192931 0.00343477 0.00777835 0.00255892 0.0261315 0.00393617 0.0145254 0.0047805 0.0269736 0.00582485 0.018068 0.00692014 0.0452001
37 1 Mg -1.12976 4.79031 4.4844 1.2 1 0.00197175 0.00429328 0.00173384 0.00473779 0.00228857 0.00625039 0.00324792 0.0179142 0.00369722 0.00678768 0.00306361 0.0259154 0.00393579 0.0140021 0.0047334 0.0253663 0.0076416 0.0189205 0.00814077 0.0437941
38 2 Si -2.9517 7.47444 4.4844 2.4 1 0.0020467 0.00465397 0.00159622 0.00506049 0.00279454 0.00655579 0.00380318 0.0201352 0.00320816 0.00753104 0.00310913 0.0273718 0.00433429 0.0157184 0.00541008 0.0279093 0.00691384 0.019268 0.00792032 0.0470418
39 3 O -3.00198 5.86121 4.4844 -1.2 1 0.00145088 0.00458537 0.00142315 0.00483388 0.00304657 0.0063938 0.00411803 0.0186974 0.00351451 0.00735575 0.00291527 0.0260369 0.00429535 0.0138858 0.00487079 0.0266085 0.00685655 0.0192762 0.0083504 0.0448481
40 3 O 0.666315 8.44846 4.4844 -1.2 1 0.00295876 0.0053514 0.00149212 0.00488487 0.0029332 0.00734656 0.00292971 0.0209327 0.00319782 0.00786708 0.00316879 0.0284229 0.00445037 0.0157146 0.00444806 0.0291895 0.00652748 0.0195642 0.00798815 0.047992
41 3 O -2.21213 8.18062 3.18632 -1.2 1 0.00167383 0.00467957 0.00168488 0.00457858 0.0025737 0.00638822 0.00293084 0.0207254 0.00286306 0.00809869 0.00280528 0.0276484 0.00419367 0.0156798 0.00506182 0.0286991 0.00591542 0.0188578 0.0065559 0.0480411
42 3 O -2.25864 8.18062 5.78248 -1.2 1 0.00305061 0.00504548 0.0018364 0.00486427 0.00288227 0.00586381 0.00297995 0.0203987 0.00240456 0.0084403 0.00370913 0.0267904 0.00443489 0.0163491 0.00545662 0.0291918 0.0070203 0.0206168 0.00789411 0.0480479
43 1 Mg 1.20893 7.12349 2.9896 1.2 1 0.0015885 0.00441657 0.00160699 0.00432425 0.00282825 0.00686999 0.00374767 0.0195651 0.00286238 0.00787098 0.00288473 0.0280322 0.00360762 0.0154804 0.00405336 0.0273131 0.00577087 0.0182471 0.00631727 0.0465479
44 1 Mg 4.00982 7.08218 4.4844 1.2 1 0.00188389 0.00461493 0.00136957 0.00460399 0.00249435 0.00639192 0.00371482 0.0199465 0.0035697 0.00731034 0.00336695 0.0272242 0.00429133 0.0162885 0.00595778 0.0281254 0.00726594 0.0192831 0.00854009 0.0465889
45 2 Si 2.17861 9.14704 4.4844 2.4 1 0.00273507 0.00489851 0.0016468 0.00490382 0.00299693 0.00729206 0.00359369 0.0212564 0.00283727 0.00801771 0.00317233 0.0280464 0.00450366 0.0163578 0.00462703 0.0295423 0.00599602 0.0196256 0.00702653 0.0498917
46 3 O 2.18828 10.7603 4.4844 -1.2 1 0.00327046 0.00497522 0.00192622 0.00471172 0.00282179 0.00702316 0.00322664 0.0207523 0.00256901 0.00814462 0.0025863 0.0286891 0.00417534 0.0156175 0.00442028 0.0305284 0.00607951 0.0196916 0.00660168 0.0502226
47 3 O -4.43805 8.17302 4.4844 -1.2 1 0.00130702 0.0050324 0.00190417 0.00510878 0.00255226 0.00761552 0.00315189 0.0206334 0.00333282 0.00786115 0.00330668 0.0283568 0.00490515 0.0157442 0.00513388 0.0291591 0.0067215 0.0197124 0.0086462 0.0476848
48 3 O 2.89193 8.44087 3.18632 -1.2 1 0.00198456 0.00437874 0.0015229 0.00435747 0.00243201 0.00682982 0.00328861 0.0204352 0.0028677 0.00835993 0.00311383 0.0276054 0.0040275 0.0156962 0.00491254 0.0288756 0.00587363 0.0188176 0.0059289 0.0482662
49 1 Mg 1.25915 7.12349 0 1.2 1 0.00181504 0.0031879 0.00114212 0.00414728 0.00191296 0.00717611 0.00301088 0.0199706 0.00278658 0.0082055 0.00282871 0.0276693 0.00366937 0.0144336 0.00403943 0.0273511 0.0047865 0.0172416 0.0047114 0.0455017
50 3 O 2.84547 8.44087 5.78248 -1.2 1 0.00284653 0.00511906 0.00151092 0.0046062 0.00272828 0.00626555 0.00339878 0.0205809 0.0032427 0.00850532 0.00362449 0.0270367 0.00550333 0.0162793 0.00543743 0.0293296 0.00640028 0.0205717 0.00774428 0.0483746
51 1 Mg -1.59284 7.16481 1.4948 1.2 1 0.00163512 0.00350973 0.00119955 0.00459417 0.00184748 0.00641225 0.00282685 0.0197931 0.00292038 0.00784146 0.0019504 0.0278153 0.00350951 0.0154295 0.00402094 0.0270511 0.00474524 0.0176832 0.00569386 0.046176
52 2 Si 0.240329 5.09994 1.4948 2.4 1 0.00162211 0.00380657 0.00177972 0.00398477 0.00197152 0.00686973 0.00314495 0.0187708 0.00315143 0.0072307 0.00235052 0.0260672 0.00314756 0.0144089 0.00433305 0.0245506 0.0051633 0.0170188 0.0054443 0.0442926
53 3 O 0.234538 3.48671 1.4948 -1.2 1 0.00246478 0.00383389 0.00245811 0.00416408 0.00193646 0.00650536 0.00257204 0.0176728 0.00336124 0.00677941 0.0024302 0.0245624 0.00344121 0.0133049 0.00416821 0.0238453 0.00554791 0.0160375 0.0054902 0.0420166
54 3 O 6.85564 6.07396 1.4948 -1.2 1 0.00114394 0.00305273 0.00209867 0.00475038 0.00242168 0.00620932 0.00319705 0.0197478 0.0031238 0.00744128 0.00219429 0.0277187 0.00337185 0.0145268 0.00491378 0.0267698 0.00556427 0.0176864 0.00632078 0.0449731
55 3 O -0.429565 5.80612 0.196716 -1.2 1 0.00160832 0.00324145 0.00210928 0.0039562 0.0019248 0.0070928 0.00257631 0.0195161 0.00279326 0.00841424 0.00252176 0.0257649 0.00299708 0.0140983 0.0040528 0.0255892 0.00517819 0.0166255 0.00590749 0.0446306
56 3 O -0.473377 5.80612 2.79288 -1.2 1 0.00193368 0.00398028 0.00180647 0.00449154 0.0023747 0.00687095 0.00313061 0.019 0.00316599 0.00785263 0.00303985 0.0258629 0.00388522 0.0143185 0.00459184 0.0261618 0.00643568 0.0184833 0.00668059 0.0453653
57 1 Mg 6.40169 9.49799 0 1.2 1 0.000606408 0.00390058 0.00142912 0.00478217 0.00161549 0.00829223 0.00215075 0.0211259 0.00164049 0.00890397 0.00194121 0.0288639 0.00256082 0.0148581 0.00295193 0.0295796 0.00375021 0.0178841 0.00415888 0.0471319
58 1 Mg 3.64209 14.2057 1.4948 1.2 1 0.0021879 0.00347851 0.00149641 0.00474868 0.00163084 0.00885979 0.00169333 0.0217101 0.00155861 0.00876366 0.00228889 0.0283239 0.00257379 0.0163214 0.00333493 0.0294988 0.00351575 0.0170043 0.00339213 0.0491159
59 2 Si 5.45748 11.5215 1.4948 2.4 1 0.00188368 0.00366696 0.0016779 0.00488606 0.00191461 0.00825202 0.00238661 0.021113 0.00153864 0.00835051 0.00186144 0.0289183 0.00252002 0.0162801 0.00362336 0.0292768 0.0040661 0.0169818 0.00361264 0.0488091
60 3 O 5.51101 13.1348 1.4948 -1.2 1 0.00206309 0.00349018 0.00167049 0.00490261 0.00155388 0.0090843 0.00200247 0.021261 0.0017701 0.00872468 0.00176131 0.029385 0.00205102 0.0162739 0.00298126 0.029796 0.00365302 0.0167728 0.00351549 0.0487654
61 3 O 1.83851 10.5475 1.4948 -1.2 1 0.00103354 0.00391836 0.00168751 0.00484865 0.00186432 0.00778953 0.00258429 0.0216127 0.00180476 0.00844304 0.00228126 0.0294946 0.00266522 0.0158819 0.00320315 0.0298358 0.00400034 0.0179138 0.00325103 0.0490151
62 3 O 4.7611 10.8154 0.196716 -1.2 1 0.00070068 0.00345091 0.00163713 0.00476233 0.00156927 0.00847989 0.00223131 0.0213297 0.00143273 0.00872263 0.00202688 0.0282852 0.00303529 0.0157617 0.00400117 0.0294031 0.00363739 0.0171969 0.00360769 0.0482054
63 1 Mg 6.35203 9.49799 2.9896 1.2 1 0.00124097 0.00430341 0.00166631 0.00494742 0.00267389 0.0074945 0.00346059 0.0203748 0.00325669 0.00859628 0.00220436 0.0292869 0.0038003 0.016116 0.00347141 0.0290048 0.00444561 0.0184611 0.00527637 0.0483119
64 3 O 4.71833 10.8154 2.79288 -1.2 1 0.0024062 0.00409563 0.00169569 0.00468434 0.00210785 0.00807186 0.00227273 0.021471 0.00213897 0.00908198 0.00220141 0.0282716 0.00359417 0.015885 0.004216 0.0299153 0.00511768 0.018488 0.00530969 0.0496599
65 1 Mg -1.0438 9.53931 4.4844 1.2 1 0.00299335 0.00530471 0.00193292 0.00462061 0.00287484 0.00665055 0.00281285 0.0207376 0.00288809 0.00823147 0.0026773 0.028322 0.004026 0.0165721 0.00435461 0.0298252 0.00620542 0.0198471 0.00710087 0.0493748
66 2 Si -2.8604 12.2234 4.4844 2.4 1 0.00323259 0.00461434 0.00174368 0.00472943 0.0028256 0.00756365 0.00318867 0.0216525 0.00287345 0.00862765 0.00245523 0.0281291 0.00426618 0.0165425 0.00440322 0.0302178 0.00565835 0.0192011 0.00653951 0.0508589
67 3 O -2.91391 10.6102 4.4844 -1.2 1 0.00326091 0.00489586 0.00197299 0.00466747 0.00276269 0.00698779 0.00322118 0.0204747 0.00251968 0.00779726 0.00215396 0.0284824 0.0042828 0.0158726 0.00429821 0.0306422 0.00574768 0.0195592 0.00666912 0.0497838
68 3 O 0.7596 13.1975 4.4844 -1.2 1 0.00346049 0.00473498 0.00195264 0.00500729 0.00273079 0.00851013 0.00260367 0.0219625 0.00280225 0.00829849 0.00277965 0.0285321 0.0041027 0.0163488 0.00413073 0.0303556 0.00597595 0.0193482 0.00661154 0.0505262
69 3 O -2.12001 12.9296 3.18632 -1.2 1 0.00347998 0.00405546 0.00167632 0.00429298 0.00239099 0.00759798 0.00224915 0.0217205 0.0024946 0.00851872 0.00234929 0.0277805 0.00348548 0.0162022 0.00465161 0.0304773 0.00515466 0.018614 0.00534574 0.0502609
70 3 O -2.16532 12.9296 5.78248 -1.2 1 0.00470869 0.00485374 0.00161552 0.00484639 0.00258809 0.0068197 0.00235058 0.0214304 0.0024474 0.00856067 0.00295474 0.0271967 0.00395411 0.0168851 0.00509259 0.0312504 0.00638968 0.0204995 0.00680383 0.0516228
71 1 Mg 1.29891 11.8725 2.9896 1.2 1 0.00253305 0.00406336 0.00184352 0.00490618 0.00231307 0.00798575 0.0029411 0.0209185 0.00244632 0.00859523 0.00222369 0.0290565 0.00362251 0.0164187 0.00339533 0.0300947 0.00447781 0.0178957 0.00481232 0.0494101
72 1 Mg 4.10033 11.8312 4.4844 1.2 1 0.00311396 0.00446648 0.00205834 0.00468293 0.00240237 0.00716305 0.00277782 0.021359 0.00267393 0.00822647 0.00293225 0.0287674 0.00365596 0.0171179 0.00504063 0.0302792 0.00654398 0.019394 0.00625404 0.0505826
73 2 Si 2.27333 13.896 4.4844 2.4 1 0.0037925 0.00403969 0.001747 0.00519678 0.00284745 0.00785439 0.00325174 0.0218069 0.00237133 0.00844373 0.00276759 0.0279585 0.00374644 0.0168501 0.0043211 0.0300178 0.00546221 0.0186644 0.00585102 0.0513762
74 3 O 2.28634 15.5093 4.4844 -1.2 1 0.00436872 0.00432732 0.0015645 0.00474023 0.00289011 0.00742118 0.00274555 0.0209492 0.00258732 0.00781832 0.00202678 0.0282706 0.00341693 0.0161704 0.00401942 0.030738 0.00589526 0.0186532 0.00630798 0.0507901
75 3 O -4.34533 12.922 4.4844 -1.2 1 0.00330931 0.00450254 0.00192155 0.00500907 0.00264246 0.00837685 0.00311555 0.0216769 0.00289832 0.00857108 0.00248047 0.0286138 0.00390895 0.0162523 0.00475729 0.0305077 0.00649208 0.0195802 0.00704279 0.0505884
76 3 O 2.98455 13.1899 3.18632 -1.2 1 0.00325583 0.00400625 0.00157542 0.00466945 0.00234165 0.00797392 0.00230996 0.0217999 0.00213356 0.00867709 0.00234202 0.0280447 0.0034272 0.0162193 0.00426909 0.0301251 0.00543303 0.0183829 0.00537509 0.0502602
77 1 Mg 1.34779 11.8725 0 1.2 1 0.00090081 0.0031229 0.00118266 0.00495953 0.0013579 0.00892862 0.00164901 0.0211935 0.00129976 0.00922745 0.00205821 0.0290024 0.00292257 0.0149717 0.00309131 0.030004 0.00328154 0.0173202 0.00311687 0.0476909
78 3 O 2.93934 13.1899 5.78248 -1.2 1 0.00350736 0.00477287 0.00188821 0.00502166 0.00263626 0.00702412 0.00273547 0.0218325 0.00270825 0.00854333 0.00322906 0.0272048 0.00458039 0.0165828 0.00511275 0.0313353 0.00630151 0.0213629 0.00640537 0.0517635
79 1 Mg -1.50344 11.9138 1.4948 1.2 1 0.00147981 0.00380756 0.00137016 0.0046036 0.00134836 0.00824292 0.00187567 0.0216721 0.00231979 0.00864963 0.00161514 0.0287702 0.00356143 0.0162247 0.00328423 0.0296688 0.00337721 0.0176119 0.00346513 0.0488139
80 2 Si 0.326006 9.84894 1.4948 2.4 1 0.000473823 0.00372092 0.00116466 0.00489922 0.00190382 0.00825406 0.0021897 0.0210723 0.00209419 0.00847138 0.00168313 0.0286778 0.00293707 0.0157162 0.00351119 0.0287415 0.00368753 0.0177708 0.0034344 0.0482623
81 3 O 0.317364 8.23571 1.4948 -1.2 1 0.000799335 0.003888 0.00097277 0.00441436 0.0019081 0.00777285 0.0022182 0.0201998 0.0025364 0.00798648 0.00200821 0.0287514 0.00361414 0.0157273 0.00396761 0.0284097 0.00447975 0.0176145 0.00426134 0.0472632
82 3 O 6.94307 10.823 1.4948 -1.2 1 0.00127732 0.00397525 0.0013382 0.00477336 0.00194353 0.00765519 0.00258554 0.0218219 0.00243898 0.00853279 0.00157922 0.0293907 0.00299654 0.0158069 0.00354068 0.0298019 0.00368415 0.0180998 0.00393729 0.0488133
83 3 O -0.343122 10.5551 0.196716 -1.2 1 0.000558893 0.00328877 0.00104744 0.00475631 0.00150046 0.00854351 0.00199524 0.0212428 0.0015827 0.00897373 0.00210377 0.0282934 0.00322779 0.0153407 0.00372471 0.0293932 0.00357319 0.0174374 0.00349583 0.0479658
84 3 O -0.385966 10.5551 2.79288 -1.2 1 0.00260503 0.0044326 0.00137198 0.00466457 0.00249817 0.00802007 0.00224958 0.0213378 0.00212586 0.00892655 0.00242991 0.0279 0.00374909 0.0159227 0.00405243 0.0300183 0.00495957 0.0186205 0.00509562 0.0495396
85 1 Mg 6.49448 14.247 0 1.2 1 0.00099135 0.00329612 0.00173537 0.00482707 0.0011455 0.00941583 0.00133388 0.0212948 0.00117257 0.00847104 0.00160175 0.0288143 0.00180113 0.0156915 0.00272798 0.0299033 0.00320732 0.0167342 0.00302072 0.0477366
86 1 Mg 3.74457 18.9547 1.4948 1.2 1 0.00272321 0.00307333 0.00122824 0.0041063 0.00175348 0.00858924 0.00130787 0.0221356 0.00193427 0.00789393 0.00217568 0.0277072 0.00237677 0.0165998 0.00382204 0.0289412 0.00360097 0.0162521 0.00332056 0.0494958
87 2 Si 5.55495 16.2705 1.4948 2.4 1 0.00284653 0.00309088 0.00130018 0.0047183 0.00181628 0.00895195 0.00143735 0.0213761 0.00129566 0.0079706 0.00130366 0.0286234 0.0021801 0.0164326 0.00295834 0.0289137 0.00375435 0.0160174 0.00352564 0.0490727
88 3 O 5.6115 17.8838 1.4948 -1.2 1 0.00309481 0.00313579 0.0014121 0.00437574 0.00182089 0.00930259 0.00168263 0.0216419 0.0017836 0.00779756 0.00134276 0.0286921 0.00183929 0.0166089 0.0029652 0.0289636 0.00330126 0.0158422 0.0035949 0.0491477
89 3 O 1.93416 15.2965 1.4948 -1.2 1 0.00242044 0.00318637 0.00143403 0.00459472 0.00172298 0.008316 0.0018898 0.0218898 0.00187957 0.00814627 0.00151487 0.0290728 0.00180098 0.0162918 0.00279882 0.0297101 0.00368816 0.0167785 0.0032839 0.0494182
90 3 O 4.85636 15.5644 0.196716 -1.2 1 0.00171971 0.00281545 0.00140861 0.00478914 0.00116771 0.00928882 0.00132067 0.0212801 0.00101769 0.00805 0.00177135 0.0280462 0.00253684 0.0160712 0.00349416 0.0292527 0.0032148 0.0159817 0.00289577 0.0484394
91 1 Mg 6.44662 14.247 2.9896 1.2 1 0.00264926 0.00376486 0.00131082 0.00462486 0.00239889 0.00845278 0.00287808 0.0207141 0.00262445 0.00877653 0.00170446 0.0292767 0.00295541 0.0165881 0.00311245 0.0295592 0.00393634 0.0175555 0.00454986 0.0493465
92 3 O 4.81537 15.5644 2.79288 -1.2 1 0.00380391 0.00341898 0.00127731 0.00459775 0.00203956 0.00880048 0.00160513 0.0218494 0.00160145 0.00867784 0.0016201 0.028027 0.00264397 0.0165056 0.00370596 0.029626 0.00469522 0.0173575 0.00491596 0.0499698
93 1 Mg -0.948271 14.2883 4.4844 1.2 1 0.00416952 0.00427064 0.00155941 0.00448092 0.00262025 0.00768555 0.00246638 0.0213581 0.00268894 0.00837581 0.00287628 0.0280435 0.00341061 0.0171841 0.00497583 0.0304606 0.00608063 0.0187156 0.00667984 0.0508111
94 2 Si -2.75928 16.9724 4.4844 2.4 1 0.00454173 0.00371171 0.00130883 0.00476842 0.00261446 0.00793413 0.00270688 0.0216155 0.00275774 0.00798194 0.00248443 0.0276308 0.00314967 0.0171985 0.00438211 0.0295861 0.00520435 0.0182416 0.00611464 0.0512772
95 3 O -2.81617 15.3592 4.4844 -1.2 1 0.00448513 0.00408564 0.00153876 0.00460266 0.00270233 0.00754042 0.00275243 0.0207795 0.0026151 0.00789267 0.00220448 0.0282694 0.00351553 0.0162347 0.00424794 0.0304937 0.00618203 0.0183145 0.00670994 0.0504851
96 3 O 0.862762 17.9465 4.4844 -1.2 1 0.00449797 0.00417118 0.00146745 0.00464664 0.00285988 0.00833262 0.00244102 0.0222194 0.00248314 0.00804794 0.00229172 0.0279664 0.00343655 0.0169171 0.00412271 0.0294185 0.0057866 0.0183139 0.00621829 0.0506719
97 3 O -2.0185 17.6786 3.18632 -1.2 1 0.00432841 0.00343358 0.00144125 0.00414377 0.00237922 0.0076204 0.00211156 0.0219858 0.00222751 0.00796347 0.00218063 0.0273436 0.00320307 0.0168089 0.00440378 0.0298934 0.00492497 0.017411 0.00528019 0.0504549
98 3 O -2.06164 17.6786 5.78248 -1.2 1 0.00491649 0.00421222 0.00115617 0.00466099 0.00288532 0.00714524 0.00250137 0.0215714 0.00250384 0.00800248 0.00250875 0.0271638 0.0032534 0.0169245 0.00485225 0.0306641 0.00575103 0.0201564 0.00616621 0.0522238
99 1 Mg 1.39817 16.6215 2.9896 1.2 1 0.00371098 0.00343832 0.00151075 0.00464465 0.00248733 0.0086016 0.00257918 0.0212658 0.00259476 0.00817869 0.00202325 0.028794 0.00243085 0.0165881 0.00335736 0.0294824 0.0042714 0.0167288 0.00451173 0.0497035
100 1 Mg 4.20062 16.5802 4.4844 1.2 1 0.00445763 0.00363798 0.00145475 0.00465757 0.00249165 0.00762465 0.00253297 0.0214166 0.00293696 0.00809136 0.00261486 0.0282038 0.00327201 0.017558 0.00551651 0.0298418 0.0063009 0.018315 0.00614718 0.0510524
101 2 Si 2.37796 18.645 4.4844 2.4 1 0.00432323 0.00348861 0.00118858 0.00461618 0.00290703 0.00786209 0.00280794 0.0219461 0.00253698 0.00809981 0.00251964 0.0276637 0.00329573 0.0170544 0.00463766 0.0293517 0.00539896 0.0179021 0.0057811 0.0517185
102 3 O 2.39434 20.2583 4.4844 -1.2 1 0.00446155 0.00379452 0.00125048 0.00447198 0.0029427 0.00700223 0.00279117 0.0210048 0.00273499 0.00729428 0.00183729 0.0281811 0.00302661 0.0167248 0.00394908 0.0296236 0.00565929 0.0179251 0.00669328 0.051266
103 3 O -4.24274 17.671 4.4844 -1.2 1 0.00442852 0.00390007 0.00128241 0.0047844 0.00262552 0.00846173 0.00268419 0.0220228 0.00291205 0.00800693 0.00226811 0.028259 0.00302381 0.0168261 0.00485627 0.0296734 0.00591453 0.0187195 0.00652876 0.0508696
104 3 O 3.08659 17.9389 3.18632 -1.2 1 0.00402452 0.00311393 0.00134722 0.0041328 0.00257402 0.00777076 0.00190455 0.0220084 0.00223169 0.00806071 0.00212098 0.0275891 0.00298527 0.0165997 0.00438215 0.0295243 0.00548807 0.017338 0.00549436 0.0504246
105 1 Mg 1.44478 16.6215 0 1.2 1 0.00211991 0.0027032 0.00113601 0.00457807 0.00141733 0.0090579 0.00124824 0.0215032 0.00141867 0.0082163 0.00153568 0.0285611 0.00227258 0.0157522 0.00241146 0.0291246 0.00291593 0.0161459 0.00294507 0.0481028
106 3 O 3.0436 17.9389 5.78248 -1.2 1 0.00442257 0.00429434 0.00129912 0.00482776 0.00272634 0.00704264 0.00246421 0.0217842 0.00246672 0.00811574 0.00261641 0.0270236 0.00355581 0.0168963 0.00481205 0.0305496 0.00599941 0.0206162 0.0063952 0.0523381
107 1 Mg -1.40524 16.6628 1.4948 1.2 1 0.00242095 0.00332463 0.00124686 0.00454718 0.00161194 0.00878511 0.00171655 0.0221464 0.00173997 0.00818578 0.0016389 0.028393 0.00288921 0.0167736 0.00276008 0.0294825 0.00315226 0.0166574 0.00302865 0.0491175
108 2 Si 0.420358 14.5979 1.4948 2.4 1 0.00197534 0.00308768 0.00152289 0.00495682 0.00193533 0.00909063 0.00193252 0.0214043 0.00165834 0.0082503 0.00146241 0.0285631 0.00276718 0.0165323 0.00340085 0.0289256 0.0035258 0.0165541 0.00331734 0.0488924
109 3 O 0.408732 12.9847 1.4948 -1.2 1 0.00171488 0.00346668 0.00138772 0.00483698 0.00180218 0.00914819 0.0015514 0.0211375 0.00211413 0.00845848 0.00160119 0.0290942 0.00302516 0.0161871 0.00294072 0.0298353 0.00319001 0.0170688 0.00334738 0.0489634
110 3 O 7.03923 15.572 1.4948 -1.2 1 0.00258798 0.00334063 0.00132312 0.00465774 0.00189009 0.00847286 0.00230502 0.0217467 0.00207665 0.00807655 0.00160565 0.0292965 0.00243293 0.0166118 0.00282726 0.0295192 0.00349133 0.0168238 0.00374839 0.0492134
111 3 O -0.248332 15.3041 0.196716 -1.2 1 0.00166 0.00272003 0.00124311 0.00465692 0.00114725 0.0091117 0.00172301 0.0214051 0.0011388 0.00841074 0.00173613 0.0280908 0.00268618 0.0159238 0.00347496 0.0291992 0.00313622 0.0162084 0.00314136 0.0483262
112 3 O -0.289436 15.3041 2.79288 -1.2 1 0.00389029 0.00374622 0.0013254 0.0044074 0.00226383 0.00874942 0.00184038 0.0217296 0.00181461 0.00874523 0.00205751 0.0274801 0.00281228 0.0166593 0.0033933 0.0296621 0.00462055 0.0176283 0.0046923 0.0499678
113 1 Mg 6.59566 18.996 0 1.2 1 0.00137362 0.00290388 0.0015555 0.00422635 0.00112436 0.00875693 0.0011542 0.0220202 0.00119281 0.00761689 0.00148699 0.0280667 0.00201695 0.0163946 0.00240621 0.0287252 0.00281195 0.016024 0.00286239 0.0482885
114 1 Mg 3.85574 23.7037 1.4948 1.2 1 0.00205658 0.00246682 0.0012539 0.004115 0.00159603 0.00732232 0.00138211 0.0231234 0.00167534 0.00750596 0.00220265 0.0269227 0.00243934 0.0175595 0.00383943 0.0284453 0.00346004 0.0169679 0.00346087 0.0507173
115 2 Si 5.66125 21.0195 1.4948 2.4 1 0.00261363 0.00281333 0.000950552 0.00412544 0.00201234 0.00821153 0.00150896 0.0219157 0.00134202 0.00747492 0.00137288 0.0276911 0.00241495 0.017352 0.00300797 0.0281111 0.00366009 0.0158524 0.00393133 0.0499891
116 3 O 5.72074 22.6328 1.4948 -1.2 1 0.00245747 0.00278364 0.00140855 0.0039983 0.00179149 0.00816502 0.00162575 0.0222444 0.00177347 0.00722125 0.00123052 0.0276782 0.00202825 0.0173098 0.00303639 0.0284897 0.00336034 0.0161818 0.00381129 0.0500851
117 3 O 2.03867 20.0455 1.4948 -1.2 1 0.00250308 0.00322073 0.00137603 0.00435348 0.00188157 0.0078247 0.00192118 0.022275 0.0022004 0.00742148 0.00146643 0.0282533 0.00187648 0.0171638 0.00269944 0.0290127 0.00347844 0.0160878 0.00343797 0.0499954
118 3 O 4.96004 20.3134 0.196716 -1.2 1 0.00189722 0.00241975 0.00146856 0.00409811 0.00126084 0.00841301 0.00113868 0.0217887 0.0012049 0.00743189 0.00168139 0.0274396 0.00283413 0.016628 0.00422593 0.0287397 0.00320304 0.0152455 0.00294972 0.0491626
119 1 Mg 6.55057 18.996 2.9896 1.2 1 0.00332938 0.00335425 0.00106733 0.00422727 0.00248996 0.00816305 0.00278486 0.0212513 0.00245258 0.00797261 0.00152319 0.0287116 0.0026352 0.0170241 0.00311978 0.028881 0.00407282 0.01688 0.00491903 0.0498444