ITEM: TIMESTEP
74500
ITEM: NUMBER OF ATOMS
10500
ITEM: BOX BOUNDS xy xz yz pp pp pp
0	15.2977	5.09925
0	118.725	0
0	89.688	0
ITEM: ATOMS id type element xu yu zu q Q_1 Q_2 Q_3 Q_4 Q_5 Q_6 Q_7 Q_8 Q_9 Q_10 Q_11 Q_12 Q_13 Q_14 Q_15 Q_16 Q_17 Q_18 Q_19 Q_20 Q_21
1 1 Mg 6.2404 -6.37941e-06 0 1.2 1 0.00117239 0.00396196 0.00149136 0.00476334 0.00159205 0.00551995 0.00190472 0.0162385 0.00211064 0.00565667 0.00228502 0.0218684 0.00252787 0.0133189 0.00320079 0.0208676 0.00428888 0.0140971 0.00412944 0.0404629
2 1 Mg 3.46349 4.70768 1.4948 1.2 1 0.000932019 0.00375741 0.00135367 0.00429081 0.00196616 0.00606245 0.00355453 0.0185244 0.00295247 0.00664433 0.00280107 0.0253242 0.00313897 0.0142284 0.00428625 0.0252157 0.00518288 0.0168145 0.00561831 0.0440282
3 2 Si 5.2885 2.02354 1.4948 2.4 1 0.0008324 0.00350656 0.00203112 0.00445804 0.00182143 0.00558885 0.00247855 0.017026 0.00244321 0.00590433 0.00186803 0.0230301 0.00267579 0.0135879 0.00334909 0.0216643 0.00396753 0.0151308 0.00435857 0.0414067
4 3 O 5.33628 3.63678 1.4948 -1.2 1 0.000932512 0.00328325 0.00133612 0.00459579 0.00209464 0.0061847 0.00296257 0.0177241 0.0023688 0.00652048 0.00179248 0.0248317 0.00245556 0.0138848 0.00401102 0.0241271 0.00499917 0.0161105 0.00560018 0.0430056
5 3 O 1.67294 1.04952 1.4948 -1.2 1 0.00121905 0.00358092 0.00196441 0.00432874 0.00125731 0.00566453 0.00243692 0.0169196 0.00246847 0.00564463 0.00213856 0.0225608 0.00250869 0.0129173 0.00333727 0.0218693 0.00482674 0.0154314 0.00483221 0.0402942
6 3 O 4.59532 1.31737 0.196716 -1.2 1 0.000760224 0.00319368 0.00216685 0.00428854 0.0019397 0.00554858 0.00239832 0.01709 0.0027998 0.00603486 0.00202642 0.0222149 0.00311034 0.0127678 0.00377413 0.0216368 0.00424649 0.0145181 0.00457958 0.0409872
7 1 Mg 6.18956 -6.37941e-06 2.9896 1.2 1 0.000803309 0.00458472 0.0015758 0.00421622 0.00128098 0.00580997 0.00238747 0.0160509 0.00277435 0.00509802 0.00185112 0.0221601 0.00247003 0.0135068 0.00336835 0.0202649 0.00465152 0.0144338 0.00482251 0.0389581
8 3 O 4.55118 1.31737 2.79288 -1.2 1 0.00119951 0.00453015 0.00170159 0.00390363 0.00187761 0.00560757 0.00251848 0.0170234 0.00235696 0.00650078 0.00229101 0.0214939 0.00304789 0.0125268 0.0034928 0.0214622 0.00508467 0.0151374 0.00534322 0.0398944
9 1 Mg -1.20682 0.0413099 4.4844 1.2 1 0.00119511 0.00307269 0.00192919 0.00476859 0.00107521 0.00543215 0.00201345 0.0164868 0.00213396 0.00512578 0.0021193 0.0220463 0.00287811 0.0117329 0.00340132 0.0201719 0.00526935 0.0154268 0.00530233 0.0383586
10 2 Si -3.0337 2.72544 4.4844 2.4 1 0.00104883 0.00363037 0.00140805 0.00458698 0.00194743 0.00606188 0.00311789 0.0167845 0.00304749 0.00566633 0.00219721 0.0233557 0.00332469 0.0131316 0.00413762 0.0220403 0.00550129 0.0173843 0.00619269 0.0390732
11 3 O -3.08099 1.11221 4.4844 -1.2 1 0.001335 0.00385151 0.00155014 0.00414842 0.00119293 0.00520219 0.00222496 0.0160358 0.00283793 0.00486457 0.00195011 0.0218153 0.00304479 0.0115268 0.00352321 0.0210372 0.00523383 0.015899 0.00557792 0.0377595
12 3 O 0.582463 3.69946 4.4844 -1.2 1 0.00175342 0.00478652 0.00209295 0.00407706 0.00223107 0.00683631 0.00364295 0.0172209 0.00336901 0.00632665 0.00319964 0.0241277 0.004129 0.0132781 0.00458404 0.0242897 0.00688486 0.0185792 0.00809013 0.0411165
13 3 O -2.29524 3.43162 3.18632 -1.2 1 0.00115478 0.00306393 0.00243397 0.00432001 0.00204384 0.00590213 0.00290402 0.0176449 0.00296177 0.00623605 0.00258855 0.0241069 0.00321336 0.0132498 0.00461255 0.0242458 0.00599944 0.0175931 0.00644396 0.0417178
14 3 O -2.34216 3.43162 5.78248 -1.2 1 0.00196395 0.00399596 0.000974388 0.00440463 0.00238385 0.00599345 0.00324586 0.0169061 0.00286031 0.00637186 0.00296246 0.0226658 0.00448551 0.0125733 0.00425499 0.0231744 0.0061845 0.018797 0.00739404 0.0393313
15 1 Mg 1.12778 2.37449 2.9896 1.2 1 0.000995917 0.00391857 0.00226004 0.00445922 0.00201183 0.00590489 0.00316666 0.0167578 0.00258878 0.00577675 0.00231024 0.0232471 0.00309704 0.0131917 0.00356642 0.0221187 0.0048736 0.0163959 0.00556003 0.0406534
16 1 Mg 3.92855 2.33318 4.4844 1.2 1 0.00155256 0.00445341 0.00123262 0.00381502 0.00156305 0.00575277 0.00355005 0.0167817 0.00300145 0.00523409 0.00306302 0.0225042 0.00361063 0.0137734 0.00533885 0.0216591 0.00623567 0.0168583 0.00695178 0.0396295
17 2 Si 2.09341 4.39804 4.4844 2.4 1 0.00182777 0.00434663 0.00171432 0.00375788 0.00269833 0.00606476 0.00380154 0.0180513 0.00350856 0.00643552 0.00330087 0.0241639 0.0043896 0.0143767 0.00455017 0.0247853 0.00664692 0.0184013 0.00836344 0.0423836
18 3 O 2.09991 6.01128 4.4844 -1.2 1 0.00281858 0.00506668 0.00133475 0.00358201 0.00276634 0.00650417 0.00344077 0.0188139 0.00266321 0.00694883 0.00296063 0.0260109 0.00402056 0.0147437 0.00475286 0.0275212 0.0066587 0.0193521 0.00774032 0.0441733
19 3 O -4.52137 3.42402 4.4844 -1.2 1 0.00168452 0.00422444 0.00178957 0.00418273 0.00211797 0.00692085 0.00336684 0.0168892 0.00333727 0.00586487 0.00312433 0.0229633 0.00385008 0.0131678 0.00443815 0.0225209 0.00627382 0.0173057 0.00762836 0.0402439
20 3 O 2.80834 3.69187 3.18632 -1.2 1 0.00157752 0.00412323 0.00148344 0.00337194 0.00183715 0.00576266 0.00318501 0.017325 0.00320264 0.00582516 0.00266749 0.0236123 0.00340547 0.0132071 0.00493642 0.0239094 0.00574272 0.0170031 0.00652361 0.041946
21 1 Mg 1.17857 2.37449 0 1.2 1 0.00113284 0.00373298 0.00184071 0.00429376 0.00142628 0.00527581 0.00246018 0.0170682 0.00238067 0.00630154 0.00270029 0.0230026 0.0027619 0.0132883 0.00323427 0.0217583 0.0044132 0.0147896 0.00483134 0.0408967
22 3 O 2.76143 3.69187 5.78248 -1.2 1 0.00209256 0.00469982 0.00139804 0.00372647 0.00209211 0.00577671 0.00284649 0.0173814 0.00306896 0.00622885 0.00288715 0.0224077 0.00452365 0.0129469 0.00535544 0.0231069 0.00644385 0.0184999 0.00715918 0.039921
23 1 Mg -1.67381 2.41581 1.4948 1.2 1 0.000377666 0.00304723 0.00254776 0.00468718 0.00120626 0.00584966 0.00258067 0.0165965 0.00273051 0.0060227 0.00208985 0.0237282 0.00237646 0.0142709 0.00246552 0.0223809 0.00438501 0.0159337 0.00482508 0.0416124
24 2 Si 0.16286 0.350945 1.4948 2.4 1 0.000799779 0.00274617 0.00248938 0.00476342 0.00116752 0.00641875 0.0027628 0.0164706 0.00207408 0.00484059 0.0020013 0.0225772 0.00215931 0.0134681 0.00279828 0.0206446 0.00483426 0.0146371 0.00429816 0.0402322
25 3 O 0.15972 -1.26229 1.4948 -1.2 1 0.000878659 0.00259113 0.00262571 0.00462734 0.00160744 0.00597831 0.00245748 0.0164783 0.00230036 0.00519549 0.0024489 0.0224421 0.00251428 0.0138677 0.00269915 0.0215375 0.00435928 0.0144588 0.00408181 0.0406328
26 3 O 6.77654 1.32496 1.4948 -1.2 1 0.000690953 0.00387099 0.00135668 0.00460887 0.0012147 0.00601433 0.00224708 0.0167137 0.00248187 0.0053878 0.0016102 0.0235007 0.00248856 0.0135125 0.0032129 0.0217915 0.00478605 0.015064 0.00416986 0.0407448
27 3 O -0.508028 1.05712 0.196716 -1.2 1 0.000414463 0.00254827 0.00313645 0.00433544 0.00129845 0.00550901 0.00242247 0.0170571 0.00173016 0.00641118 0.0025093 0.0220399 0.00275757 0.012788 0.00307995 0.0212909 0.00455876 0.0149745 0.00459278 0.0401749
28 3 O -0.552171 1.05712 2.79288 -1.2 1 0.000690988 0.00257957 0.00286084 0.00458877 0.00110299 0.00616481 0.00245804 0.0162116 0.00250366 0.00555938 0.00178983 0.0224112 0.00261135 0.0119627 0.00346963 0.0213614 0.00537936 0.01555 0.00488539 0.0391865
29 1 Mg 6.31713 4.74899 0 1.2 1 0.000479928 0.00306122 0.00162074 0.00455667 0.0023033 0.00599365 0.00339765 0.0178603 0.00282157 0.00685479 0.0021703 0.0249635 0.0028099 0.0139517 0.00399145 0.0247972 0.0048671 0.0159964 0.00618364 0.0430181
30 1 Mg 3.54847 9.45668 1.4948 1.2 1 0.000783193 0.00376014 0.00191515 0.00471763 0.00197975 0.00753736 0.00306017 0.0211492 0.00180025 0.00823235 0.00232928 0.0277897 0.00314453 0.0157727 0.0036113 0.0292411 0.00427399 0.0178795 0.00391059 0.0485128
31 2 Si 5.36879 6.77254 1.4948 2.4 1 0.000595051 0.00347902 0.00156325 0.00498765 0.00271815 0.00687924 0.00369327 0.0194487 0.00270143 0.00759382 0.0024786 0.0269865 0.00301886 0.0157446 0.00417833 0.0270651 0.00461965 0.0171848 0.00536953 0.0465037
32 3 O 5.41937 8.38578 1.4948 -1.2 1 0.000762258 0.00343147 0.00160508 0.00492698 0.00232334 0.0077212 0.00303902 0.0207053 0.00225666 0.00822228 0.00247336 0.0283376 0.00230787 0.0158538 0.00310982 0.0292812 0.00462032 0.0172162 0.00489478 0.0479395
33 3 O 1.75158 5.79852 1.4948 -1.2 1 0.0010286 0.0037965 0.00180833 0.00405029 0.00244954 0.00593404 0.00333508 0.0192847 0.0027885 0.00711169 0.0026964 0.0272807 0.00283521 0.015834 0.00350254 0.0269909 0.00528754 0.0175109 0.00545295 0.0455718
34 3 O 4.67421 6.06637 0.196716 -1.2 1 0.000603293 0.00335217 0.00134762 0.00471401 0.00195029 0.00693863 0.0028566 0.0195954 0.00251614 0.00790878 0.00217473 0.0257608 0.00353852 0.0146002 0.00409473 0.0266931 0.00455689 0.0165768 0.00561232 0.0453407
35 1 Mg 6.26654 4.74899 2.9896 1.2 1 0.00172856 0.00356566 0.00157773 0.00478533 0.0024424 0.00636675 0.00373844 0.0177619 0.00370443 0.00693583 0.00227889 0.025466 0.00357571 0.0149732 0.004841 0.0249172 0.00572394 0.0174898 0.00691425 0.0433188
36 3 O 4.63043 6.06637 2.79288 -1.2 1 0.00193722 0.00387143 0.00160194 0.00485035 0.00229147 0.00658194 0.00345606 0.0192365 0.00312707 0.00765799 0.00244338 0.0253744 0.00377411 0.014878 0.00438837 0.0274049 0.00572782 0.0180496 0.00707174 0.0450278
37 1 Mg -1.12976 4.79031 4.4844 1.2 1 0.00223355 0.00407636 0.00168999 0.00433834 0.00225354 0.00608985 0.00319627 0.0175187 0.003399 0.00683222 0.00290972 0.0246554 0.00402522 0.0144195 0.00462799 0.0252101 0.00727893 0.0187141 0.00768823 0.042816
38 2 Si -2.9517 7.47444 4.4844 2.4 1 0.00250816 0.00382393 0.00137434 0.00501572 0.0028051 0.00620136 0.00393611 0.0198684 0.00303006 0.00741725 0.00304633 0.0264688 0.00466754 0.0160564 0.00528864 0.0281918 0.00645746 0.0190433 0.00798114 0.0461078
39 3 O -3.00198 5.86121 4.4844 -1.2 1 0.0025298 0.00434849 0.0010452 0.00466937 0.00300526 0.00622988 0.00425278 0.0185365 0.0034826 0.00736132 0.00265704 0.0250591 0.00447618 0.0144712 0.00475058 0.0268858 0.00652834 0.0192429 0.00836079 0.0443289
40 3 O 0.666315 8.44846 4.4844 -1.2 1 0.00292434 0.00497448 0.00132389 0.00483658 0.00276299 0.00723106 0.00308007 0.0206801 0.00305363 0.00772105 0.00308863 0.0272546 0.00442669 0.0158865 0.00458501 0.0290518 0.00621737 0.0194612 0.00738922 0.046871
41 3 O -2.21213 8.18062 3.18632 -1.2 1 0.00207529 0.00425516 0.00159682 0.00430383 0.00256196 0.00609885 0.0030512 0.0203843 0.00273741 0.00784331 0.00291156 0.0269977 0.00429049 0.016214 0.00490164 0.0290299 0.00558297 0.0184482 0.00663512 0.0480465
42 3 O -2.25864 8.18062 5.78248 -1.2 1 0.00307155 0.00416319 0.0012646 0.00445312 0.00293743 0.00566316 0.00318488 0.0199499 0.00251537 0.00770722 0.00340033 0.0257116 0.00435982 0.0160392 0.00505847 0.0291004 0.00653378 0.0205779 0.00774051 0.0465188
43 1 Mg 1.20893 7.12349 2.9896 1.2 1 0.00168832 0.00433678 0.00163926 0.00428768 0.00265463 0.0066347 0.00378446 0.0193966 0.00290589 0.00791295 0.00272378 0.0270074 0.00339377 0.0160999 0.00383482 0.0276432 0.00533706 0.0182928 0.00609326 0.0462002
44 1 Mg 4.00982 7.08218 4.4844 1.2 1 0.00242465 0.00412672 0.00155147 0.00465162 0.0024524 0.00639295 0.00383182 0.0197366 0.00335183 0.00735148 0.00311015 0.026012 0.00411997 0.0164957 0.00573244 0.0280231 0.00691256 0.0190073 0.00799213 0.0457203
45 2 Si 2.17861 9.14704 4.4844 2.4 1 0.00249724 0.00448843 0.00177211 0.00486509 0.00298512 0.00727887 0.00360927 0.0207103 0.00272846 0.00785126 0.00294251 0.0269178 0.00419028 0.016305 0.00449304 0.0294809 0.00570419 0.0194523 0.00677099 0.0483458
46 3 O 2.18828 10.7603 4.4844 -1.2 1 0.00276947 0.00437604 0.00200235 0.00455381 0.00285699 0.00698945 0.00293829 0.0203967 0.00232731 0.00787785 0.00240153 0.027436 0.00411092 0.0155226 0.00443099 0.0303506 0.00573119 0.0195691 0.00650139 0.0489157
47 3 O -4.43805 8.17302 4.4844 -1.2 1 0.00225413 0.00431598 0.00174246 0.00514084 0.00258888 0.0073659 0.00337321 0.0203098 0.0030449 0.00789073 0.00324486 0.0273794 0.00468837 0.0159859 0.00512521 0.0291709 0.00633926 0.0192568 0.00834245 0.0466335
48 3 O 2.89193 8.44087 3.18632 -1.2 1 0.00210779 0.00401621 0.001664 0.00437332 0.00239165 0.0067564 0.00330329 0.0202514 0.002971 0.0083761 0.00270138 0.0265204 0.00383108 0.0159144 0.00475754 0.0291245 0.00583361 0.0187353 0.00568398 0.0474947
49 1 Mg 1.25915 7.12349 0 1.2 1 0.000987649 0.00337531 0.00129766 0.0042483 0.00189235 0.00721979 0.00281989 0.0201098 0.002912 0.00807626 0.00250263 0.026917 0.00333666 0.0146156 0.00339312 0.0274551 0.00460938 0.0171745 0.00449786 0.0463093
50 3 O 2.84547 8.44087 5.78248 -1.2 1 0.00316774 0.00482562 0.00152161 0.00449706 0.00266884 0.00654066 0.00332312 0.0201254 0.00274524 0.00797904 0.00319831 0.025573 0.00501923 0.0158847 0.00504663 0.0292676 0.00603557 0.0208443 0.00750239 0.0469353
51 1 Mg -1.59284 7.16481 1.4948 1.2 1 0.000859116 0.00382444 0.00117782 0.0044882 0.00182408 0.00630149 0.00264966 0.0197193 0.00293833 0.0076599 0.0018879 0.0270823 0.00330033 0.0159707 0.00362751 0.0273267 0.00450353 0.0176752 0.00554721 0.04661
52 2 Si 0.240329 5.09994 1.4948 2.4 1 0.000773969 0.00408825 0.00173791 0.00410806 0.00185111 0.00669025 0.00313086 0.0187293 0.00308623 0.00702074 0.00230112 0.0255091 0.00278617 0.0149333 0.00402983 0.0249637 0.0050325 0.0168992 0.00534055 0.0447132
53 3 O 0.234538 3.48671 1.4948 -1.2 1 0.00116549 0.00402681 0.00257596 0.00436355 0.00174532 0.00640731 0.00273985 0.0177531 0.00333005 0.00656116 0.00240241 0.0242227 0.00303763 0.0139139 0.00392945 0.0242192 0.00558867 0.0160266 0.00540019 0.0424193
54 3 O 6.85564 6.07396 1.4948 -1.2 1 0.000989384 0.00312396 0.00204188 0.00463052 0.00241461 0.00600085 0.003095 0.0196314 0.00315571 0.00738957 0.0021332 0.0270286 0.00322466 0.0149582 0.00477276 0.0271519 0.00545168 0.0178841 0.0063459 0.045363
55 3 O -0.429565 5.80612 0.196716 -1.2 1 0.000660017 0.00353828 0.00192794 0.00410797 0.00185244 0.0069239 0.00252431 0.0193747 0.00284526 0.0080927 0.00246249 0.0253017 0.00266215 0.0145428 0.00378121 0.0260372 0.00499442 0.0166634 0.0056015 0.0454115
56 3 O -0.473377 5.80612 2.79288 -1.2 1 0.00198023 0.0039489 0.00182616 0.00454997 0.00215624 0.00662097 0.00316104 0.018963 0.00299241 0.0076552 0.0029181 0.0252572 0.00369262 0.0148641 0.00460578 0.0265133 0.00625413 0.0184805 0.00675378 0.0451618
57 1 Mg 6.40169 9.49799 0 1.2 1 0.000907347 0.00417605 0.00149405 0.00460011 0.00153412 0.00834977 0.00207056 0.0208717 0.00162855 0.0087086 0.00171058 0.0282619 0.00250241 0.0148369 0.0024976 0.0297422 0.0036752 0.0176628 0.00383784 0.0476402
58 1 Mg 3.64209 14.2057 1.4948 1.2 1 0.00127134 0.00333643 0.00173677 0.00457652 0.00161189 0.0087428 0.00152413 0.0215306 0.00177725 0.00852002 0.00221564 0.0279036 0.00236289 0.0160428 0.0028648 0.0295156 0.00340773 0.0166176 0.00300115 0.0490383
59 2 Si 5.45748 11.5215 1.4948 2.4 1 0.00103236 0.00372128 0.00183248 0.00456414 0.00177795 0.00813947 0.00207477 0.0210175 0.00168171 0.00814993 0.00184794 0.0282163 0.00259188 0.0162633 0.00335162 0.0293447 0.00387669 0.0166232 0.00351865 0.0489493
60 3 O 5.51101 13.1348 1.4948 -1.2 1 0.000979493 0.00344219 0.00187366 0.00455751 0.00154556 0.00914817 0.00164862 0.020991 0.0018791 0.00853706 0.00182254 0.0289496 0.00213374 0.0159329 0.00299824 0.0300241 0.00365231 0.0164735 0.00329193 0.048794
61 3 O 1.83851 10.5475 1.4948 -1.2 1 0.00060674 0.00397518 0.00180377 0.0048077 0.00186107 0.00762357 0.00223497 0.0214439 0.00180341 0.00830103 0.00221667 0.0288273 0.00272935 0.0159325 0.0031572 0.0299428 0.00406009 0.0175172 0.00354444 0.0490523
62 3 O 4.7611 10.8154 0.196716 -1.2 1 0.000789553 0.00365614 0.00188994 0.00467773 0.00141097 0.0085886 0.00212333 0.0212618 0.00163801 0.0085118 0.0019616 0.0276682 0.00285232 0.0156432 0.00368227 0.0295519 0.00352906 0.0169092 0.00334192 0.0485749
63 1 Mg 6.35203 9.49799 2.9896 1.2 1 0.00162792 0.00390938 0.00158293 0.00472428 0.00263425 0.00743905 0.00331814 0.0203715 0.00309517 0.00866184 0.00228438 0.0283347 0.0037832 0.0162666 0.00365857 0.0292706 0.00440049 0.0181771 0.00567618 0.0479354
64 3 O 4.71833 10.8154 2.79288 -1.2 1 0.00215754 0.00374499 0.00187974 0.004649 0.00226291 0.0079905 0.0022331 0.021097 0.0019958 0.00868256 0.00215467 0.0275673 0.00339848 0.0157898 0.00387216 0.0301341 0.00516068 0.0179787 0.00555738 0.0490452
65 1 Mg -1.0438 9.53931 4.4844 1.2 1 0.00276671 0.00450394 0.00160317 0.0045562 0.00298616 0.00641096 0.00275389 0.0204329 0.00265713 0.0082428 0.00272006 0.0269704 0.00371711 0.0167045 0.00444459 0.0296337 0.00597833 0.019516 0.00671237 0.0481624
66 2 Si -2.8604 12.2234 4.4844 2.4 1 0.00280132 0.00390555 0.00166509 0.00456113 0.00277055 0.00717925 0.00305584 0.0212137 0.00258983 0.00838404 0.00242333 0.027112 0.00415822 0.0164827 0.00432053 0.0292616 0.00533938 0.0190702 0.00617059 0.0490431
67 3 O -2.91391 10.6102 4.4844 -1.2 1 0.00306976 0.00420906 0.00166513 0.00448118 0.00289872 0.00672335 0.00340079 0.0200181 0.00280893 0.00751406 0.00228913 0.027268 0.00414493 0.0158188 0.004229 0.0301425 0.00554346 0.0193265 0.00650496 0.0481082
68 3 O 0.7596 13.1975 4.4844 -1.2 1 0.00246491 0.00412042 0.00176786 0.00503732 0.00304807 0.00827117 0.00245262 0.0216877 0.00286454 0.00824921 0.00305839 0.0277983 0.00400782 0.01605 0.00423969 0.0297995 0.00575909 0.0191326 0.00650995 0.049109
69 3 O -2.12001 12.9296 3.18632 -1.2 1 0.00272394 0.00390978 0.00162286 0.00425559 0.00251715 0.00742477 0.00226697 0.0216286 0.00238272 0.0081694 0.00240704 0.0271085 0.00348891 0.0161472 0.00459921 0.030173 0.00500643 0.0181732 0.00526331 0.0496216
70 3 O -2.16532 12.9296 5.78248 -1.2 1 0.00299324 0.00419661 0.00144915 0.00469522 0.00297435 0.00631449 0.00223992 0.0211446 0.00242145 0.0078529 0.00282196 0.0262707 0.00401489 0.0163732 0.00499464 0.0302004 0.00580117 0.0206312 0.00644377 0.0490267
71 1 Mg 1.29891 11.8725 2.9896 1.2 1 0.00168482 0.00364039 0.00211991 0.00496345 0.0025181 0.007902 0.00280034 0.0209388 0.00247357 0.00843559 0.00189612 0.028352 0.00327276 0.0163546 0.00339106 0.0296907 0.00435976 0.017707 0.00467748 0.0488178
72 1 Mg 4.10033 11.8312 4.4844 1.2 1 0.00252297 0.00367272 0.00209101 0.00471784 0.00275922 0.00711185 0.00274266 0.0209526 0.0025571 0.00819353 0.00269011 0.0276714 0.0037709 0.0169285 0.00533823 0.0299179 0.00619163 0.0192238 0.00623988 0.0490016
73 2 Si 2.27333 13.896 4.4844 2.4 1 0.00225895 0.00337747 0.00167065 0.00507443 0.00325123 0.00761419 0.00312125 0.0213027 0.0023622 0.00813419 0.00295644 0.0275724 0.00394677 0.0164372 0.00436984 0.0296923 0.00514139 0.0184296 0.00600218 0.0501004
74 3 O 2.28634 15.5093 4.4844 -1.2 1 0.00237228 0.00374216 0.00160551 0.0048699 0.00331255 0.00709735 0.00287182 0.0204422 0.0026556 0.0077501 0.00240172 0.0281541 0.00334118 0.0155583 0.00382931 0.0301678 0.00528767 0.0186501 0.00609596 0.049616
75 3 O -4.34533 12.922 4.4844 -1.2 1 0.00273694 0.00381964 0.00177505 0.0048917 0.00302964 0.00799297 0.0028273 0.0214856 0.00269755 0.00840116 0.00271301 0.0276285 0.00399189 0.0161374 0.00467925 0.0296567 0.0060336 0.0194824 0.00676051 0.0489035
76 3 O 2.98455 13.1899 3.18632 -1.2 1 0.00221046 0.00331892 0.00171399 0.00466274 0.0026603 0.00763405 0.00219044 0.0215545 0.00216972 0.00841644 0.0022778 0.027303 0.00338785 0.0158816 0.00437294 0.0299949 0.00524913 0.0180963 0.00522324 0.049246
77 1 Mg 1.34779 11.8725 0 1.2 1 0.000966949 0.00332223 0.00109104 0.00461427 0.00117449 0.00889637 0.00150961 0.0209948 0.00127969 0.00910313 0.00202254 0.0283987 0.0026762 0.0147725 0.00270948 0.0301109 0.00288798 0.0168976 0.00305287 0.0482703
78 3 O 2.93934 13.1899 5.78248 -1.2 1 0.00264976 0.00400672 0.00162986 0.00495854 0.00306743 0.00653729 0.00260145 0.0213509 0.0024053 0.00812198 0.00324179 0.0262214 0.00415348 0.016052 0.00430478 0.0306346 0.0057185 0.0213555 0.00653141 0.0493971
79 1 Mg -1.50344 11.9138 1.4948 1.2 1 0.000871979 0.00391521 0.00162196 0.00446322 0.00145926 0.00818167 0.00179147 0.0214884 0.00242327 0.00836197 0.00167816 0.0281496 0.00353251 0.0161299 0.00320975 0.0298119 0.00343521 0.0172429 0.0036295 0.0489464
80 2 Si 0.326006 9.84894 1.4948 2.4 1 0.000247516 0.00409759 0.00148709 0.00488027 0.00194274 0.00807046 0.00210954 0.0209438 0.00205008 0.00830828 0.00177541 0.0279476 0.00293427 0.0157692 0.00349691 0.0288777 0.00366168 0.0174674 0.00355307 0.0485283
81 3 O 0.317364 8.23571 1.4948 -1.2 1 0.000884883 0.00405577 0.00125667 0.00454466 0.00184906 0.00770183 0.00219158 0.0200604 0.00260505 0.00772548 0.0019221 0.0280198 0.00351179 0.0160608 0.00376315 0.0286498 0.00438902 0.0176984 0.00435435 0.047619
82 3 O 6.94307 10.823 1.4948 -1.2 1 0.000865777 0.00399291 0.00137828 0.00442039 0.00180536 0.00760766 0.00244852 0.021704 0.00227816 0.00831548 0.00161132 0.0288203 0.00296137 0.0158921 0.00337455 0.030078 0.00374021 0.0176982 0.00413455 0.0489473
83 3 O -0.343122 10.5551 0.196716 -1.2 1 0.000707996 0.003812 0.00128429 0.00465245 0.00144296 0.00865327 0.0018495 0.0212061 0.00179466 0.00880759 0.00214842 0.0275738 0.00333476 0.0153113 0.00409678 0.0293708 0.00355071 0.0170833 0.0034405 0.0486073
84 3 O -0.385966 10.5551 2.79288 -1.2 1 0.00220782 0.00429442 0.00132 0.00450714 0.00247271 0.00776217 0.00215551 0.0212976 0.00207306 0.00871505 0.00227079 0.0269107 0.00367668 0.0160621 0.00407146 0.0301432 0.00476008 0.0186137 0.00489007 0.0489198
85 1 Mg 6.49448 14.247 0 1.2 1 0.00112293 0.00338876 0.0014565 0.00458454 0.000870775 0.0092621 0.00130283 0.0210478 0.00134758 0.00849062 0.00143035 0.0284957 0.00161131 0.0154438 0.00223946 0.0299227 0.00283083 0.0163233 0.00254773 0.0481867
86 1 Mg 3.74457 18.9547 1.4948 1.2 1 0.0016375 0.00304417 0.00127499 0.00444391 0.00170682 0.00851264 0.00119725 0.0220148 0.00194559 0.00802206 0.00227505 0.0277133 0.00234295 0.0163706 0.00343926 0.0289519 0.00340865 0.0165837 0.00309406 0.0491499
87 2 Si 5.55495 16.2705 1.4948 2.4 1 0.00147724 0.00300611 0.00144538 0.00472017 0.00176878 0.00882721 0.00141362 0.0212973 0.00142973 0.00785306 0.00134464 0.0283757 0.00203948 0.016041 0.00251569 0.0289045 0.00335467 0.0158722 0.00315681 0.0489441
88 3 O 5.6115 17.8838 1.4948 -1.2 1 0.00144804 0.00293742 0.00148937 0.00459676 0.00165171 0.00912376 0.00152854 0.0215393 0.00193696 0.00772563 0.00134898 0.0286046 0.00195189 0.0163104 0.0025745 0.0290661 0.00299496 0.0159581 0.00311843 0.0486918
89 3 O 1.93416 15.2965 1.4948 -1.2 1 0.00118553 0.00291268 0.00158408 0.00473454 0.00182553 0.00824847 0.00184616 0.021651 0.0019609 0.00804284 0.00141594 0.0288469 0.00186097 0.0161096 0.00263096 0.029844 0.00343811 0.0164687 0.00297899 0.0493817
90 3 O 4.85636 15.5644 0.196716 -1.2 1 0.00116357 0.00269309 0.00128674 0.00461482 0.00102248 0.00901645 0.00124267 0.0211116 0.00125805 0.00804036 0.00161019 0.0278421 0.00234819 0.0161044 0.00299095 0.0293957 0.00287422 0.0154714 0.002591 0.0486533
91 1 Mg 6.44662 14.247 2.9896 1.2 1 0.00139611 0.00361348 0.00140468 0.00460578 0.00256984 0.00820264 0.00274161 0.0206931 0.0025721 0.00845392 0.00195481 0.0286947 0.00285667 0.016173 0.00296734 0.0295945 0.00399563 0.0173773 0.00437059 0.0489995
92 3 O 4.81537 15.5644 2.79288 -1.2 1 0.00209779 0.00300516 0.00148406 0.00457265 0.0024301 0.00851287 0.00173911 0.0218299 0.00160288 0.00839124 0.00177329 0.027781 0.00263167 0.0160035 0.00328932 0.0296204 0.00437707 0.0172987 0.00459108 0.0493184
93 1 Mg -0.948271 14.2883 4.4844 1.2 1 0.00289183 0.00377968 0.00141284 0.00445149 0.00286132 0.00743395 0.00249418 0.0213051 0.00281252 0.00815807 0.00281494 0.0276117 0.00334276 0.0165322 0.00507609 0.030156 0.00588374 0.0187378 0.00603519 0.0498773
94 2 Si -2.75928 16.9724 4.4844 2.4 1 0.0026075 0.0035575 0.00155485 0.00474641 0.00306436 0.00762456 0.0028051 0.0216474 0.00249101 0.00762279 0.00244032 0.02745 0.00345697 0.0163555 0.0042564 0.0291672 0.00493996 0.0183432 0.00537492 0.0500535
95 3 O -2.81617 15.3592 4.4844 -1.2 1 0.0030093 0.00366408 0.00155887 0.00453892 0.00327981 0.00718843 0.00277787 0.0208579 0.00250973 0.00746183 0.00226452 0.0277427 0.00350061 0.0155893 0.00424301 0.0298053 0.00559721 0.0183373 0.00608799 0.0494518
96 3 O 0.862762 17.9465 4.4844 -1.2 1 0.00242353 0.00397985 0.00150005 0.00493668 0.00326242 0.00818814 0.00252745 0.0219004 0.00261172 0.00761804 0.00260934 0.027823 0.00328277 0.016116 0.00411129 0.0288856 0.00540293 0.018829 0.00575919 0.0496261
97 3 O -2.0185 17.6786 3.18632 -1.2 1 0.00218965 0.00324288 0.00164402 0.00426872 0.00261804 0.00744062 0.00209059 0.0218971 0.00231869 0.0078326 0.00242132 0.0273608 0.00336045 0.0162244 0.00440831 0.0298582 0.00475221 0.0177597 0.0046194 0.0499893
98 3 O -2.06164 17.6786 5.78248 -1.2 1 0.00248128 0.00401373 0.00157768 0.00465328 0.0031645 0.00671741 0.0024885 0.021448 0.00231747 0.00768849 0.00259697 0.0269572 0.0035101 0.0164092 0.00439725 0.0302787 0.00560847 0.0205679 0.00596758 0.0502384
99 1 Mg 1.39817 16.6215 2.9896 1.2 1 0.00171043 0.00325287 0.00149214 0.00469962 0.00262193 0.00822654 0.00238605 0.0210289 0.00250977 0.00808128 0.00220563 0.0283582 0.00267658 0.0161504 0.00352418 0.0293393 0.00385184 0.0168398 0.00412331 0.0489063
100 1 Mg 4.20062 16.5802 4.4844 1.2 1 0.00226009 0.00332446 0.00173707 0.00462623 0.00302989 0.00741271 0.0023783 0.0212375 0.00297587 0.00772125 0.00283317 0.0280332 0.00325212 0.016779 0.00522097 0.0295295 0.00586913 0.0185942 0.00571408 0.0498914
101 2 Si 2.37796 18.645 4.4844 2.4 1 0.00195179 0.0033629 0.00155335 0.00484699 0.00335033 0.00769577 0.00286132 0.0218404 0.00252764 0.00768211 0.00262437 0.0273953 0.00317731 0.0164163 0.00430207 0.0288879 0.00478008 0.0185459 0.00551923 0.050555
102 3 O 2.39434 20.2583 4.4844 -1.2 1 0.00166917 0.00344426 0.00139015 0.0047337 0.00332304 0.00681962 0.00235278 0.0210822 0.00277165 0.00710622 0.00177179 0.0280552 0.00316221 0.0160165 0.00395821 0.0296836 0.00525689 0.0189814 0.00608553 0.050387
103 3 O -4.24274 17.671 4.4844 -1.2 1 0.00212489 0.00387296 0.00183223 0.00470993 0.00295842 0.00855286 0.00257252 0.0218301 0.00275314 0.00781082 0.0024828 0.0281011 0.00318591 0.0160784 0.00469845 0.0290811 0.0056985 0.0188617 0.00585976 0.0497994
104 3 O 3.08659 17.9389 3.18632 -1.2 1 0.00204143 0.00294235 0.00134278 0.00439149 0.00291408 0.00769835 0.00182751 0.0218761 0.00241609 0.0079134 0.00219754 0.0273608 0.00311883 0.0158817 0.00417561 0.0291795 0.00508196 0.0175673 0.00507659 0.0497149
105 1 Mg 1.44478 16.6215 0 1.2 1 0.00162499 0.00264288 0.000897485 0.00471854 0.00120283 0.00891479 0.00110032 0.0213179 0.00137688 0.00817042 0.0015631 0.0283396 0.00198355 0.0155799 0.00201058 0.0294232 0.00254167 0.0158599 0.00249179 0.0481581
106 3 O 3.0436 17.9389 5.78248 -1.2 1 0.00224124 0.00381568 0.00160075 0.00525113 0.00324467 0.00685612 0.00236172 0.0213931 0.00252513 0.00809174 0.00295712 0.0268698 0.00361672 0.01621 0.00507031 0.0299935 0.00542214 0.0211286 0.00575206 0.0507823
107 1 Mg -1.40524 16.6628 1.4948 1.2 1 0.000991404 0.00298949 0.00120822 0.00471389 0.00161586 0.00864695 0.00175338 0.0219315 0.00193616 0.00807662 0.00176531 0.0281385 0.00283992 0.0164489 0.00273001 0.0295378 0.00271835 0.0165405 0.002845 0.048959
108 2 Si 0.420358 14.5979 1.4948 2.4 1 0.00100559 0.00287775 0.00136274 0.00481982 0.00194043 0.00896613 0.00171809 0.0211837 0.00168324 0.00821999 0.00152317 0.0281703 0.00267816 0.016336 0.00329064 0.0290289 0.00331952 0.0162109 0.00301357 0.0489346
109 3 O 0.408732 12.9847 1.4948 -1.2 1 0.000834556 0.00321413 0.00130312 0.00477703 0.00177348 0.00900198 0.00137159 0.0209421 0.00210961 0.0083558 0.00160685 0.0285158 0.00284734 0.0159954 0.00308077 0.0298822 0.00313862 0.0166436 0.00342997 0.0488299
110 3 O 7.03923 15.572 1.4948 -1.2 1 0.0011764 0.00320303 0.00142609 0.0046566 0.001924 0.00822213 0.00214905 0.0215845 0.00210592 0.0079928 0.00148125 0.0289405 0.00216341 0.0162368 0.00251857 0.0297369 0.00309165 0.0165363 0.00347752 0.0491034
111 3 O -0.248332 15.3041 0.196716 -1.2 1 0.000741861 0.00278721 0.000838226 0.0046345 0.00101598 0.00909094 0.00167513 0.0210166 0.00125829 0.00812456 0.00173332 0.0277401 0.00265619 0.0155533 0.00333123 0.0294242 0.00277161 0.0159156 0.0028214 0.0485658
112 3 O -0.289436 15.3041 2.79288 -1.2 1 0.00237061 0.00347013 0.00122352 0.00445477 0.00250596 0.00843884 0.00185804 0.0218442 0.00202104 0.00855538 0.00195066 0.027113 0.00287706 0.0164198 0.00363804 0.0294764 0.00443843 0.0175717 0.00424136 0.0496817
113 1 Mg 6.59566 18.996 0 1.2 1 0.00114508 0.00299498 0.00146777 0.00443073 0.000775157 0.00853399 0.00112683 0.0217552 0.00129371 0.00783768 0.00136075 0.0280405 0.00198013 0.0160249 0.00211043 0.0288249 0.00246636 0.0159086 0.00250055 0.0478046
114 1 Mg 3.85574 23.7037 1.4948 1.2 1 0.00182037 0.00252074 0.00139513 0.00445152 0.00171125 0.00747679 0.00121815 0.0230833 0.00171671 0.00756051 0.00207019 0.0271492 0.00230717 0.017191 0.00347905 0.0285628 0.00335289 0.0173679 0.00313919 0.0496676
115 2 Si 5.66125 21.0195 1.4948 2.4 1 0.00128231 0.00234448 0.00118691 0.00460608 0.00196265 0.00805544 0.0015426 0.0218126 0.00128554 0.00753324 0.00155457 0.0280531 0.00244696 0.0170858 0.00260988 0.0283892 0.00326768 0.0161291 0.00355324 0.0492655
116 3 O 5.72074 22.6328 1.4948 -1.2 1 0.00157231 0.00231946 0.00140549 0.0043951 0.00182836 0.00809871 0.00154159 0.0222731 0.00175404 0.00730799 0.00127799 0.0279199 0.00211858 0.0168374 0.00291385 0.0285356 0.00314545 0.0166661 0.00341476 0.0491638
117 3 O 2.03867 20.0455 1.4948 -1.2 1 0.00139184 0.00312115 0.00119666 0.00480606 0.00180332 0.00773711 0.00205585 0.0220028 0.00235716 0.00751025 0.001483 0.028365 0.00212644 0.0168185 0.00240296 0.0291238 0.00333006 0.0162941 0.00335311 0.0493328
118 3 O 4.96004 20.3134 0.196716 -1.2 1 0.00164945 0.00255682 0.00131441 0.00444823 0.00111052 0.00831828 0.000959627 0.0217211 0.00102077 0.00756798 0.00182015 0.0275416 0.00261815 0.0162571 0.00371765 0.0288771 0.00269455 0.0155924 0.00268155 0.0485128
119 1 Mg 6.55057 18.996 2.9896 1.2 1 0.00117008 0.00297057 0.00135683 0.00459489 0.0025642 0.00793715 0.00267476 0.0212084 0.00237393 0.00780223 0.00161973 0.0289679 0.00273606 0.0166589 0.00288394 0.0288944 0.00385518 0.0172432 0.00425004 0.0495075