ITEM: TIMESTEP
48200
ITEM: NUMBER OF ATOMS
10500
ITEM: BOX BOUNDS xy xz yz pp pp pp
0	15.2977	5.09925
0	118.725	0
0	89.688	0
ITEM: ATOMS id type element xu yu zu q Q_1 Q_2 Q_3 Q_4 Q_5 Q_6 Q_7 Q_8 Q_9 Q_10 Q_11 Q_12 Q_13 Q_14 Q_15 Q_16 Q_17 Q_18 Q_19 Q_20 Q_21
1 1 Mg 6.2404 -6.37941e-06 0 1.2 1 0.000795838 0.00375088 0.00123252 0.00473718 0.00165342 0.00557698 0.00200652 0.0162825 0.00201526 0.00600584 0.00215075 0.0220627 0.00258686 0.0131826 0.00328205 0.0209574 0.00417679 0.0140881 0.0041946 0.0406995
2 1 Mg 3.46349 4.70768 1.4948 1.2 1 0.00110743 0.00354106 0.00133013 0.00427249 0.0020411 0.00614574 0.00353462 0.0185586 0.00272575 0.00690455 0.00282877 0.0256375 0.00296067 0.0137711 0.00404242 0.0252839 0.00553686 0.0167249 0.00593424 0.0439484
3 2 Si 5.2885 2.02354 1.4948 2.4 1 0.000417725 0.0031611 0.00221723 0.00453644 0.00192197 0.00583076 0.00246606 0.0170939 0.00234093 0.00635462 0.00207592 0.0234122 0.00273636 0.0133877 0.00343422 0.0218502 0.00399685 0.0152466 0.00444178 0.0413999
4 3 O 5.33628 3.63678 1.4948 -1.2 1 0.00101495 0.00274554 0.00164146 0.00470362 0.00226752 0.0064025 0.00299176 0.0176684 0.00221876 0.00663557 0.00196245 0.0252155 0.00248222 0.0134946 0.00403116 0.0242193 0.00524391 0.0161549 0.00593003 0.0430666
5 3 O 1.67294 1.04952 1.4948 -1.2 1 0.00102589 0.00342882 0.00171315 0.00395534 0.00150821 0.00587697 0.00236818 0.0167452 0.00227796 0.00612778 0.00214735 0.0228803 0.00252674 0.0126594 0.0034295 0.0221345 0.00478659 0.0155612 0.00489089 0.0403553
6 3 O 4.59532 1.31737 0.196716 -1.2 1 0.000380389 0.00255048 0.00210356 0.00407946 0.00209174 0.00573692 0.00240465 0.0171581 0.00255585 0.00656521 0.00192347 0.0225638 0.00319205 0.0125945 0.00421584 0.0217667 0.00425129 0.0147635 0.0045166 0.0410394
7 1 Mg 6.18956 -6.37941e-06 2.9896 1.2 1 0.000450445 0.00424488 0.00164555 0.00437339 0.00131505 0.0058974 0.00248753 0.0160843 0.00260418 0.005641 0.00186094 0.0226974 0.00245702 0.0131585 0.00366917 0.0211598 0.00465612 0.0146646 0.00471035 0.0394811
8 3 O 4.55118 1.31737 2.79288 -1.2 1 0.000719736 0.00434003 0.00209574 0.00444366 0.00202733 0.00607288 0.00248413 0.0169023 0.0023415 0.0069554 0.00233636 0.0219328 0.00314188 0.0121765 0.00343662 0.0218876 0.00506343 0.0154312 0.00557108 0.0402448
9 1 Mg -1.20682 0.0413099 4.4844 1.2 1 0.000933463 0.002823 0.00169611 0.00459822 0.00132791 0.00586078 0.00199308 0.0159152 0.00196727 0.00519434 0.00203969 0.0229216 0.00290614 0.0116044 0.00354318 0.021364 0.00528497 0.0158023 0.00476423 0.0390205
10 2 Si -3.0337 2.72544 4.4844 2.4 1 0.00137904 0.00348288 0.00178743 0.00499225 0.00229929 0.0063117 0.00323173 0.0165811 0.00320056 0.00570549 0.00213101 0.0240448 0.00291826 0.0127899 0.00393043 0.0228004 0.0055275 0.0174977 0.00635942 0.0398473
11 3 O -3.08099 1.11221 4.4844 -1.2 1 0.00153704 0.00358941 0.00192494 0.00439955 0.00131219 0.00544545 0.0022921 0.0158249 0.00275049 0.00514165 0.00207815 0.0224869 0.00308209 0.0112413 0.00356983 0.0219405 0.00524037 0.0160938 0.00549686 0.0383811
12 3 O 0.582463 3.69946 4.4844 -1.2 1 0.00258966 0.00511894 0.00184872 0.00453657 0.00280853 0.00680985 0.00355625 0.0170673 0.00344791 0.00586665 0.00300402 0.0250189 0.00366928 0.0130265 0.00433958 0.0243608 0.00699522 0.0185367 0.00804389 0.0417363
13 3 O -2.29524 3.43162 3.18632 -1.2 1 0.00141177 0.00321388 0.00230458 0.0047676 0.00242141 0.00624456 0.00294753 0.0178563 0.00297584 0.00634225 0.00270689 0.0246667 0.00292548 0.0130326 0.00452641 0.0244928 0.00629432 0.0177266 0.00690844 0.0423305
14 3 O -2.34216 3.43162 5.78248 -1.2 1 0.00248721 0.00436621 0.00133791 0.0049913 0.00240486 0.0062581 0.00314329 0.0167923 0.0028008 0.00629013 0.00275986 0.0235685 0.00402765 0.0123763 0.00384781 0.0235382 0.00644171 0.0192375 0.00779088 0.0401198
15 1 Mg 1.12778 2.37449 2.9896 1.2 1 0.0014875 0.00380213 0.00208665 0.00439481 0.00226498 0.00615167 0.00303301 0.0165211 0.00269527 0.00587093 0.00253058 0.0235766 0.00294553 0.0128896 0.00330737 0.0221783 0.00505775 0.0163335 0.00576782 0.040959
16 1 Mg 3.92855 2.33318 4.4844 1.2 1 0.00126755 0.00451241 0.00142637 0.00454394 0.00187864 0.00612059 0.0035448 0.0166322 0.00316813 0.00562573 0.0028784 0.0231732 0.0033749 0.013162 0.00504398 0.022412 0.00648677 0.0170009 0.0070782 0.0403929
17 2 Si 2.09341 4.39804 4.4844 2.4 1 0.00195542 0.00486177 0.00171197 0.00435201 0.00312264 0.00624307 0.00368189 0.0178461 0.00343918 0.00609399 0.00333177 0.0246837 0.00415619 0.0141634 0.00414828 0.024644 0.00678346 0.0183641 0.00856516 0.0432978
18 3 O 2.09991 6.01128 4.4844 -1.2 1 0.00268219 0.00529046 0.00126956 0.00418274 0.00316703 0.00669035 0.00332915 0.0189238 0.002596 0.00678654 0.00315066 0.0265868 0.00397915 0.0145891 0.00464793 0.0273576 0.00698344 0.0193461 0.00834825 0.0453078
19 3 O -4.52137 3.42402 4.4844 -1.2 1 0.00123952 0.00414022 0.00223368 0.00489939 0.00223849 0.00726086 0.00352723 0.0167903 0.00320094 0.00607197 0.00313852 0.0235326 0.00360189 0.012554 0.00404068 0.0229217 0.00646424 0.0175792 0.00760141 0.0410089
20 3 O 2.80834 3.69187 3.18632 -1.2 1 0.00164194 0.00401838 0.00153604 0.00375857 0.00217817 0.0061517 0.00318348 0.0172087 0.00299546 0.00607689 0.00276103 0.0241648 0.00336603 0.0129175 0.00441528 0.0239454 0.00604475 0.0168274 0.00668645 0.0427783
21 1 Mg 1.17857 2.37449 0 1.2 1 0.00130848 0.00334435 0.00149241 0.00386203 0.00164558 0.00547594 0.00237919 0.0171241 0.00247812 0.00679322 0.00238994 0.0234916 0.00260787 0.0128376 0.0033961 0.0220216 0.00438755 0.0149157 0.00481287 0.0410251
22 3 O 2.76143 3.69187 5.78248 -1.2 1 0.0022909 0.00513642 0.00184967 0.00461282 0.00232927 0.00603236 0.00288539 0.0171782 0.00335868 0.00631576 0.00310179 0.0236629 0.00455638 0.0129203 0.00543259 0.0236329 0.00669615 0.0186037 0.00800158 0.0410592
23 1 Mg -1.67381 2.41581 1.4948 1.2 1 0.000645934 0.00258399 0.0023002 0.0048476 0.00170145 0.00604327 0.00228236 0.0165145 0.0026374 0.00643428 0.00194547 0.0241167 0.00220813 0.0139091 0.00268366 0.0225036 0.00460003 0.0158786 0.00508078 0.0417932
24 2 Si 0.16286 0.350945 1.4948 2.4 1 0.00121625 0.00239244 0.00245308 0.00423503 0.00162845 0.00650465 0.00279352 0.0163975 0.00213351 0.00543272 0.00172602 0.0232019 0.00228835 0.0133455 0.0031073 0.0211395 0.00472775 0.0147131 0.00431613 0.0408373
25 3 O 0.15972 -1.26229 1.4948 -1.2 1 0.00122715 0.00230991 0.00284738 0.00441543 0.00187583 0.0061763 0.00230255 0.016433 0.00214275 0.00558756 0.00223876 0.0228885 0.00248419 0.0136321 0.00310762 0.0218858 0.00423349 0.0146328 0.00395038 0.0409034
26 3 O 6.77654 1.32496 1.4948 -1.2 1 0.000473861 0.00354793 0.0016804 0.00462786 0.00144696 0.00591518 0.00226302 0.0167954 0.00236319 0.00579918 0.00169639 0.0238327 0.00270776 0.0131683 0.00328049 0.0221686 0.00487996 0.0153065 0.00443905 0.040971
27 3 O -0.508028 1.05712 0.196716 -1.2 1 0.000834311 0.00244489 0.00295982 0.00387115 0.00156121 0.00555051 0.00233054 0.0171327 0.00166652 0.00694971 0.00236757 0.0223112 0.00264103 0.012503 0.00317577 0.0214888 0.004447 0.0152388 0.00462058 0.04028
28 3 O -0.552171 1.05712 2.79288 -1.2 1 0.000628501 0.00257949 0.00278376 0.00457119 0.00138392 0.0066132 0.00224732 0.0162539 0.00229205 0.00601534 0.00189888 0.0229004 0.00266751 0.0118522 0.00361617 0.0221216 0.00560402 0.015751 0.00511962 0.0401349
29 1 Mg 6.31713 4.74899 0 1.2 1 0.000687868 0.00246291 0.00168188 0.00454759 0.00244451 0.00618774 0.00340158 0.0179853 0.00273251 0.00725136 0.00200088 0.0253116 0.00264121 0.0134782 0.00385377 0.0247123 0.00470142 0.0161789 0.00582087 0.0431949
30 1 Mg 3.54847 9.45668 1.4948 1.2 1 0.00183726 0.00357387 0.00133114 0.00463623 0.00183209 0.00777979 0.0031765 0.0212343 0.00178744 0.00819764 0.00212802 0.0283138 0.00298802 0.0156134 0.00363176 0.0290625 0.00451282 0.0180361 0.00396154 0.0490305
31 2 Si 5.36879 6.77254 1.4948 2.4 1 0.00128718 0.00316568 0.00147251 0.00509434 0.00264861 0.00703309 0.00371983 0.0195248 0.00264444 0.00761768 0.00252279 0.0275741 0.00303674 0.0151487 0.0037821 0.0268661 0.00490815 0.0170897 0.00534605 0.0468103
32 3 O 5.41937 8.38578 1.4948 -1.2 1 0.00159878 0.00328838 0.00116359 0.00490494 0.0020831 0.00785822 0.00320556 0.0207473 0.00232419 0.00814438 0.00247988 0.0288471 0.00219785 0.0153112 0.00291878 0.0291488 0.00479838 0.0174195 0.00489069 0.0482836
33 3 O 1.75158 5.79852 1.4948 -1.2 1 0.00157288 0.00380504 0.00151321 0.00400231 0.00244131 0.00614379 0.00342167 0.0193609 0.0027035 0.00712305 0.00267236 0.027702 0.0027768 0.0153918 0.0030349 0.0268279 0.00546574 0.0173551 0.0056478 0.0460496
34 3 O 4.67421 6.06637 0.196716 -1.2 1 0.00112632 0.00290536 0.0011899 0.00472404 0.00194454 0.0068419 0.00291142 0.0198628 0.00258296 0.0081424 0.00212274 0.0263261 0.0032796 0.0141808 0.00382235 0.0266989 0.0047847 0.0165802 0.00534893 0.0455682
35 1 Mg 6.26654 4.74899 2.9896 1.2 1 0.00118885 0.00357498 0.00191159 0.00514977 0.00283755 0.00674665 0.00376834 0.0177168 0.00367611 0.00682937 0.00235489 0.0259895 0.00371997 0.0145301 0.00484558 0.0249249 0.00603074 0.0174613 0.00724746 0.0434779
36 3 O 4.63043 6.06637 2.79288 -1.2 1 0.00232623 0.00406435 0.00158124 0.00492399 0.00233777 0.00698807 0.00351343 0.019302 0.00311466 0.00734568 0.00243694 0.0260186 0.00382353 0.0145701 0.00431102 0.0273119 0.00627285 0.0181551 0.00721295 0.0456947
37 1 Mg -1.12976 4.79031 4.4844 1.2 1 0.00255054 0.00452203 0.0015552 0.00482795 0.0024442 0.00656359 0.00315664 0.0175001 0.0032903 0.0066655 0.00302579 0.0254335 0.0038162 0.0141195 0.00425087 0.025198 0.0074994 0.0188797 0.00800477 0.0437156
38 2 Si -2.9517 7.47444 4.4844 2.4 1 0.00277158 0.00507638 0.0013189 0.00547329 0.00321159 0.00708248 0.004018 0.0199633 0.00306643 0.00735698 0.00291901 0.027252 0.00424619 0.0157874 0.00529868 0.0277747 0.00691716 0.0194963 0.00793343 0.0475571
39 3 O -3.00198 5.86121 4.4844 -1.2 1 0.00235928 0.00487347 0.000926422 0.00509011 0.00340564 0.00668838 0.00427828 0.0185756 0.00335295 0.00719642 0.00287157 0.0258084 0.00394479 0.0140463 0.00483694 0.0267307 0.00700968 0.0195342 0.00847698 0.0453581
40 3 O 0.666315 8.44846 4.4844 -1.2 1 0.00342918 0.00566209 0.00109437 0.00500188 0.00303496 0.0078198 0.00314153 0.0208686 0.002876 0.00759487 0.0030469 0.0277907 0.00426973 0.0158428 0.00434762 0.0288929 0.00639943 0.0198043 0.00794548 0.0485864
41 3 O -2.21213 8.18062 3.18632 -1.2 1 0.00257101 0.00486216 0.00131903 0.00482804 0.00267211 0.00671922 0.00296686 0.0205439 0.00268807 0.00770402 0.00283459 0.027364 0.00410282 0.0156468 0.00515054 0.0288347 0.00619673 0.0188804 0.00667973 0.0486936
42 3 O -2.25864 8.18062 5.78248 -1.2 1 0.00359161 0.00560622 0.00151476 0.00510658 0.00315141 0.00646524 0.00311852 0.0201251 0.00244323 0.00802865 0.00361949 0.0267373 0.00404392 0.0163455 0.00554724 0.0289332 0.0072436 0.0209182 0.00824819 0.048335
43 1 Mg 1.20893 7.12349 2.9896 1.2 1 0.00217615 0.00458467 0.00159219 0.00430524 0.00295657 0.00717067 0.00389166 0.0194187 0.00279997 0.00780321 0.00266727 0.0276956 0.00330308 0.0155997 0.003638 0.027404 0.0058831 0.01835 0.0065174 0.0470745
44 1 Mg 4.00982 7.08218 4.4844 1.2 1 0.00244695 0.00496172 0.00128547 0.00486307 0.00264334 0.00666909 0.00386017 0.0196142 0.0033679 0.00719636 0.00299986 0.0272155 0.00443205 0.0166664 0.00545082 0.0281502 0.00730805 0.0192987 0.00851751 0.0471038
45 2 Si 2.17861 9.14704 4.4844 2.4 1 0.0032516 0.00506456 0.00133507 0.00494819 0.00311296 0.00759301 0.00377721 0.0209698 0.00264446 0.0077819 0.00290518 0.0277308 0.00429249 0.0165457 0.00437672 0.0293694 0.00602398 0.019807 0.00691784 0.0501108
46 3 O 2.18828 10.7603 4.4844 -1.2 1 0.00384337 0.00513621 0.00173896 0.00467696 0.00287297 0.00752569 0.00308674 0.0206672 0.00244385 0.00787916 0.00244166 0.0282118 0.00385009 0.0156862 0.00451641 0.0304452 0.0062039 0.0200546 0.00655338 0.0506036
47 3 O -4.43805 8.17302 4.4844 -1.2 1 0.00214283 0.00542585 0.00156314 0.0054124 0.00266527 0.00819895 0.00346508 0.0204084 0.00304377 0.00774159 0.00320785 0.0281949 0.00462496 0.015934 0.00522611 0.0293189 0.0069316 0.0196622 0.00888382 0.0481793
48 3 O 2.89193 8.44087 3.18632 -1.2 1 0.00293481 0.00457048 0.00123749 0.00436205 0.0024206 0.00704901 0.00326982 0.0203885 0.00273554 0.00805211 0.0027851 0.0273548 0.00369371 0.0160182 0.00456127 0.0288618 0.00607228 0.0185605 0.00625763 0.0487125
49 1 Mg 1.25915 7.12349 0 1.2 1 0.00105412 0.00297093 0.00113134 0.00428759 0.00180224 0.00718565 0.00308253 0.0201325 0.00288706 0.00818003 0.0025941 0.0275481 0.00306672 0.0142229 0.0031851 0.0275978 0.0045402 0.0171924 0.00448283 0.0466506
50 3 O 2.84547 8.44087 5.78248 -1.2 1 0.00341158 0.00562839 0.00149123 0.00497758 0.00268343 0.00696589 0.00319367 0.020534 0.00288776 0.00831465 0.00346757 0.0264875 0.00529317 0.0164024 0.00548738 0.0292993 0.00619233 0.021243 0.00759088 0.0489692
51 1 Mg -1.59284 7.16481 1.4948 1.2 1 0.00179328 0.00361767 0.000951872 0.00465363 0.00187863 0.00654807 0.00270551 0.0198411 0.00284385 0.00760357 0.00195659 0.0275932 0.00315744 0.0155209 0.00344291 0.0271665 0.00483064 0.0175497 0.00568163 0.0470932
52 2 Si 0.240329 5.09994 1.4948 2.4 1 0.00116265 0.00368468 0.00143505 0.0040587 0.0020306 0.00687926 0.00315667 0.0187931 0.00307073 0.00725591 0.00229304 0.0260942 0.00258314 0.0144211 0.00371323 0.0249421 0.00522892 0.0167978 0.00531109 0.0451021
53 3 O 0.234538 3.48671 1.4948 -1.2 1 0.00132077 0.0036967 0.00222378 0.00422341 0.00204773 0.00652734 0.00249426 0.0177477 0.00327721 0.0069408 0.00243176 0.024622 0.00304174 0.013385 0.00371031 0.0242463 0.005639 0.0159148 0.00557323 0.0427075
54 3 O 6.85564 6.07396 1.4948 -1.2 1 0.00137715 0.00309118 0.00194277 0.00491262 0.00257483 0.00623952 0.00306803 0.0197393 0.00310282 0.00743478 0.00232326 0.0275602 0.00321862 0.0144145 0.0046129 0.0270433 0.00576539 0.0176942 0.00647182 0.0457427
55 3 O -0.429565 5.80612 0.196716 -1.2 1 0.000932808 0.00335802 0.00174595 0.00422954 0.00181309 0.0072025 0.00258205 0.019467 0.002971 0.00839993 0.00242596 0.0257313 0.00232938 0.013896 0.00355771 0.0261577 0.00514972 0.0166646 0.00562804 0.0457031
56 3 O -0.473377 5.80612 2.79288 -1.2 1 0.00243745 0.00415969 0.00169798 0.00452227 0.00245236 0.0069594 0.00315222 0.0188905 0.00313715 0.00758766 0.00293194 0.0257874 0.00346897 0.0144366 0.00411822 0.0263878 0.00655672 0.0182816 0.00696548 0.0457849
57 1 Mg 6.40169 9.49799 0 1.2 1 0.000877441 0.00345804 0.00118398 0.00446499 0.00148818 0.00827102 0.00207645 0.0210787 0.00172002 0.00881346 0.00162407 0.028687 0.00208213 0.0147361 0.0024046 0.0296619 0.00349482 0.0176225 0.00374006 0.0480764
58 1 Mg 3.64209 14.2057 1.4948 1.2 1 0.00208755 0.00334423 0.00135773 0.00467558 0.00159914 0.00899654 0.00151886 0.0213836 0.00175452 0.00843133 0.00211394 0.0280495 0.00238019 0.0160869 0.00295025 0.0294988 0.00381314 0.0168771 0.00364959 0.0492758
59 2 Si 5.45748 11.5215 1.4948 2.4 1 0.00197485 0.00331093 0.00139465 0.00464699 0.00187814 0.00841829 0.00223032 0.0208569 0.00151087 0.00812079 0.00166253 0.0286824 0.00222465 0.0161752 0.00305362 0.0292411 0.00422666 0.0168488 0.00383834 0.0494703
60 3 O 5.51101 13.1348 1.4948 -1.2 1 0.0021575 0.00346939 0.00139313 0.00474653 0.00155109 0.00927432 0.00180172 0.0209224 0.00180387 0.00845675 0.00157347 0.0289767 0.00194017 0.0159826 0.00283132 0.0299448 0.00395173 0.0166521 0.00366686 0.0490445
61 3 O 1.83851 10.5475 1.4948 -1.2 1 0.00154532 0.00363157 0.00129165 0.00474026 0.00180445 0.00788687 0.00232103 0.0214675 0.00182088 0.00823988 0.00194092 0.0290797 0.00225632 0.0156802 0.00318056 0.0298169 0.00442816 0.0178124 0.00363668 0.0493701
62 3 O 4.7611 10.8154 0.196716 -1.2 1 0.00109032 0.00279678 0.00141488 0.00439727 0.00148881 0.00849172 0.0022185 0.0211254 0.00175409 0.00851609 0.00148926 0.02814 0.00263509 0.0155646 0.00337307 0.0294314 0.00381447 0.0168672 0.00336529 0.0488666
63 1 Mg 6.35203 9.49799 2.9896 1.2 1 0.00209846 0.0044714 0.00140066 0.00507761 0.00273354 0.00795894 0.00346856 0.0202042 0.00296619 0.00825304 0.00214857 0.0289593 0.00360034 0.0160002 0.00344362 0.0290091 0.00450151 0.0183384 0.00547562 0.0489162
64 3 O 4.71833 10.8154 2.79288 -1.2 1 0.00294788 0.00404338 0.00148531 0.00473558 0.002187 0.00857689 0.00239479 0.0211943 0.00201006 0.00869686 0.00202039 0.0280819 0.00329891 0.0158106 0.00400071 0.030118 0.00541326 0.018327 0.00564167 0.0499789
65 1 Mg -1.0438 9.53931 4.4844 1.2 1 0.00367373 0.00560147 0.00125606 0.00467558 0.00295642 0.00698144 0.00274566 0.0206863 0.00284328 0.00806859 0.00256687 0.0279101 0.00378423 0.0164805 0.00450959 0.0298036 0.00657881 0.0198625 0.00749249 0.0497707
66 2 Si -2.8604 12.2234 4.4844 2.4 1 0.00382646 0.00494908 0.00173944 0.00476942 0.00276881 0.00802221 0.00315826 0.0212963 0.00268074 0.00822358 0.00239579 0.027791 0.00411286 0.0165029 0.004424 0.030011 0.00588905 0.0194116 0.00691573 0.0509761
67 3 O -2.91391 10.6102 4.4844 -1.2 1 0.00380056 0.00516936 0.00170923 0.00475615 0.00306557 0.00741955 0.00346279 0.0204197 0.00262539 0.00764751 0.00189821 0.0281397 0.00409574 0.0158791 0.00451407 0.030386 0.00607912 0.0196543 0.00706566 0.0502629
68 3 O 0.7596 13.1975 4.4844 -1.2 1 0.00390131 0.00481607 0.00178446 0.00511983 0.0028042 0.00901784 0.00271087 0.0219285 0.00276929 0.00827495 0.00298991 0.0281104 0.00398581 0.016341 0.00415179 0.0301947 0.00606249 0.0198749 0.00693872 0.0507711
69 3 O -2.12001 12.9296 3.18632 -1.2 1 0.00352356 0.00428267 0.00159263 0.00441198 0.00239551 0.00785274 0.00227199 0.021425 0.00237765 0.00813093 0.00227479 0.0276209 0.00350838 0.0162963 0.00455892 0.0304165 0.00535948 0.0184874 0.00563244 0.0504673
70 3 O -2.16532 12.9296 5.78248 -1.2 1 0.00438286 0.0052482 0.00153599 0.00487476 0.00280377 0.0073944 0.00246644 0.0213585 0.00226885 0.00841719 0.00283765 0.0268998 0.00402048 0.0168133 0.00523834 0.030967 0.0063001 0.0213168 0.00689137 0.05173
71 1 Mg 1.29891 11.8725 2.9896 1.2 1 0.00282931 0.00403836 0.00156926 0.00484124 0.0023117 0.00840657 0.00288803 0.0208367 0.00250469 0.00835136 0.00209213 0.0286732 0.00328847 0.0164046 0.00370024 0.029752 0.00492902 0.0179535 0.00506516 0.0495417
72 1 Mg 4.10033 11.8312 4.4844 1.2 1 0.00380146 0.00468585 0.00190447 0.0046474 0.00248072 0.00775905 0.00285033 0.021038 0.00255114 0.00816708 0.00264247 0.0284865 0.00356324 0.0173471 0.00513031 0.0302773 0.00651276 0.0196746 0.00641698 0.0506687
73 2 Si 2.27333 13.896 4.4844 2.4 1 0.00387634 0.00422002 0.0014618 0.00517314 0.00293261 0.00833222 0.00341022 0.0214694 0.00237846 0.00814037 0.0026712 0.0277594 0.00361131 0.0165452 0.00431304 0.0302427 0.00553691 0.0192392 0.0065776 0.0512106
74 3 O 2.28634 15.5093 4.4844 -1.2 1 0.00375754 0.00444302 0.00155308 0.00485724 0.00311654 0.00770269 0.00283991 0.0205462 0.00255851 0.00767685 0.00212599 0.0280073 0.00329508 0.0160698 0.00426601 0.030732 0.00599285 0.0190238 0.00676829 0.050585
75 3 O -4.34533 12.922 4.4844 -1.2 1 0.00373734 0.00481672 0.00187457 0.00504796 0.00279887 0.00876285 0.00308964 0.0213424 0.00273593 0.00849117 0.00251308 0.0283826 0.0038866 0.0162725 0.00511534 0.0302313 0.00643999 0.0198316 0.00734266 0.0504801
76 3 O 2.98455 13.1899 3.18632 -1.2 1 0.00341894 0.00398782 0.00150792 0.00456129 0.00242633 0.00810741 0.00219751 0.0215521 0.00214732 0.00832353 0.00243294 0.0277176 0.00320545 0.0162395 0.00418636 0.0301091 0.00564654 0.018279 0.00576825 0.050192
77 1 Mg 1.34779 11.8725 0 1.2 1 0.00144702 0.00277322 0.00110565 0.00468677 0.00126888 0.00897824 0.0016914 0.0211534 0.00140612 0.00895197 0.00178927 0.028759 0.00252808 0.0148495 0.00275981 0.0300022 0.00317562 0.017177 0.00313066 0.0484198
78 3 O 2.93934 13.1899 5.78248 -1.2 1 0.00407036 0.0050831 0.00160817 0.00498671 0.00295747 0.00742504 0.00274229 0.0214135 0.00254712 0.00843912 0.00297451 0.0266985 0.00424649 0.0166229 0.00505713 0.0309321 0.00624857 0.0214944 0.00688126 0.0513385
79 1 Mg -1.50344 11.9138 1.4948 1.2 1 0.00177377 0.00386091 0.00144367 0.00451165 0.0013939 0.00840087 0.00171296 0.0214731 0.00239754 0.0082994 0.00137577 0.028425 0.00332346 0.0161371 0.00326288 0.0296649 0.00366208 0.0172875 0.00363624 0.0493043
80 2 Si 0.326006 9.84894 1.4948 2.4 1 0.00104141 0.00356347 0.00115325 0.00477546 0.0017194 0.00832141 0.00194264 0.0210405 0.00199221 0.00831243 0.00151476 0.0282621 0.00256076 0.0157198 0.00338347 0.0288704 0.00403293 0.0175401 0.00344104 0.0488453
81 3 O 0.317364 8.23571 1.4948 -1.2 1 0.00165946 0.00401221 0.00080699 0.00453823 0.00183732 0.00782169 0.00210704 0.0201914 0.00259281 0.00780183 0.00165873 0.0283116 0.00307578 0.0156412 0.00357779 0.0286754 0.00467271 0.0176901 0.0042791 0.0480151
82 3 O 6.94307 10.823 1.4948 -1.2 1 0.00163161 0.00392089 0.00107601 0.00448193 0.00186806 0.00790394 0.00254364 0.0215724 0.00229666 0.00818749 0.00153582 0.0291847 0.00278637 0.0157891 0.0031448 0.0299194 0.00399523 0.0178541 0.0042074 0.0493838
83 3 O -0.343122 10.5551 0.196716 -1.2 1 0.000979642 0.00310915 0.00109739 0.00464207 0.00125798 0.00871472 0.00182809 0.0211412 0.00173064 0.0086842 0.00205455 0.0279166 0.00289356 0.0152416 0.00380763 0.0294396 0.00377531 0.0173105 0.00326952 0.0488476
84 3 O -0.385966 10.5551 2.79288 -1.2 1 0.00343932 0.00454414 0.0010869 0.00458143 0.00231926 0.00830939 0.00215354 0.0213506 0.00199528 0.00866172 0.00235381 0.0275182 0.0035888 0.0158932 0.00416882 0.0298439 0.00554858 0.0185351 0.00515831 0.0499341
85 1 Mg 6.49448 14.247 0 1.2 1 0.0015321 0.00304904 0.00155928 0.00457682 0.00122467 0.00938542 0.00131738 0.0210922 0.00118936 0.00845524 0.00139836 0.0286034 0.00166939 0.015408 0.00248692 0.0300427 0.00321982 0.0165119 0.00273123 0.0483477
86 1 Mg 3.74457 18.9547 1.4948 1.2 1 0.00180854 0.00342188 0.00134149 0.00399605 0.00190086 0.00860969 0.00134095 0.0220503 0.00204117 0.00801666 0.00198744 0.0273669 0.00238273 0.0163694 0.00315534 0.0290277 0.003772 0.0163566 0.00352373 0.0495737
87 2 Si 5.55495 16.2705 1.4948 2.4 1 0.00209837 0.00305371 0.00125738 0.0044542 0.00184591 0.0090184 0.00139158 0.0212236 0.00131641 0.0078469 0.00121212 0.0282738 0.00209587 0.0163371 0.00276785 0.0289123 0.00394206 0.0159056 0.00370965 0.0493521
88 3 O 5.6115 17.8838 1.4948 -1.2 1 0.00183942 0.00318293 0.00147816 0.00417487 0.00193892 0.00917409 0.00161501 0.0214541 0.00183521 0.00783743 0.00128021 0.0284201 0.00209641 0.0164366 0.00261298 0.0290009 0.00362706 0.0157615 0.0037639 0.0491489
89 3 O 1.93416 15.2965 1.4948 -1.2 1 0.00208456 0.0033271 0.00130039 0.00467391 0.00195296 0.00854238 0.00188383 0.0216511 0.00185362 0.00791836 0.00141319 0.028741 0.00190347 0.0162943 0.00275109 0.029792 0.00426662 0.0165329 0.00359855 0.0496151
90 3 O 4.85636 15.5644 0.196716 -1.2 1 0.00178598 0.00262817 0.0013751 0.0045446 0.00119012 0.00919092 0.00147679 0.021122 0.00135756 0.00796593 0.0015082 0.027837 0.00255729 0.0161588 0.00327859 0.0293865 0.00338944 0.0156914 0.00295749 0.0489844
91 1 Mg 6.44662 14.247 2.9896 1.2 1 0.00242415 0.0038813 0.00132805 0.00472112 0.00250415 0.00867099 0.00275895 0.0204627 0.00239031 0.00841432 0.00171902 0.0289221 0.00287027 0.0163077 0.00308598 0.0296215 0.00401369 0.0175649 0.00500469 0.0494443
92 3 O 4.81537 15.5644 2.79288 -1.2 1 0.00309844 0.00359337 0.00143135 0.00444526 0.00228632 0.00896004 0.00186798 0.0216455 0.00169422 0.00850728 0.00174392 0.0275805 0.00266686 0.0163799 0.0035795 0.0294896 0.00508423 0.0173649 0.0051625 0.0496999
93 1 Mg -0.948271 14.2883 4.4844 1.2 1 0.00408308 0.00423776 0.00143518 0.00455541 0.00270335 0.00808393 0.0027019 0.021081 0.00248489 0.00828538 0.00279556 0.0278725 0.00339186 0.017103 0.005 0.0302992 0.00605264 0.0191121 0.00668056 0.050787
94 2 Si -2.75928 16.9724 4.4844 2.4 1 0.00352549 0.003937 0.00163997 0.00489702 0.00284359 0.00815412 0.00275189 0.021522 0.00269152 0.0078057 0.00250991 0.0275904 0.00342693 0.017067 0.00470926 0.0295527 0.00534548 0.0186053 0.00631647 0.0510625
95 3 O -2.81617 15.3592 4.4844 -1.2 1 0.00419026 0.00435238 0.00172502 0.00465717 0.00290609 0.00792167 0.00292405 0.0205907 0.00260677 0.00762268 0.00221644 0.0281613 0.00348092 0.0161029 0.00441238 0.030298 0.00589444 0.0186355 0.00694587 0.0504428
96 3 O 0.862762 17.9465 4.4844 -1.2 1 0.00328369 0.0045073 0.00152757 0.00496174 0.00318083 0.00860404 0.00232105 0.0220432 0.00235767 0.00791534 0.00248916 0.0281976 0.00352357 0.0171339 0.00445401 0.029518 0.00600895 0.0187226 0.00631206 0.0506109
97 3 O -2.0185 17.6786 3.18632 -1.2 1 0.00306187 0.00358207 0.00165884 0.00415826 0.00274661 0.0077274 0.00223135 0.0218663 0.00214696 0.00776611 0.00205261 0.027342 0.00327868 0.0166485 0.00427128 0.0299508 0.00498416 0.0174261 0.00541031 0.0504466
98 3 O -2.06164 17.6786 5.78248 -1.2 1 0.00375532 0.00442848 0.00141624 0.00489096 0.00281067 0.00729469 0.00221982 0.021676 0.00245495 0.0081229 0.0027365 0.0271986 0.00327073 0.017353 0.00500476 0.0310241 0.00591645 0.0208519 0.00621898 0.0518877
99 1 Mg 1.39817 16.6215 2.9896 1.2 1 0.0027184 0.00377112 0.00157133 0.00479389 0.00272629 0.00861393 0.00252075 0.0209671 0.00252946 0.00812178 0.0021891 0.0285234 0.00257229 0.0166882 0.00335655 0.0295292 0.00444221 0.0168082 0.00475306 0.0494273
100 1 Mg 4.20062 16.5802 4.4844 1.2 1 0.00368411 0.00415345 0.00187861 0.00473861 0.00270708 0.00800074 0.00255118 0.0211801 0.00272914 0.00784496 0.00269547 0.0281341 0.00321234 0.0175561 0.00525988 0.0299051 0.0064279 0.0186963 0.00645212 0.0507139
101 2 Si 2.37796 18.645 4.4844 2.4 1 0.00278681 0.00413344 0.00146147 0.00507287 0.00307964 0.00809906 0.00270035 0.0220258 0.00248221 0.00801555 0.00240053 0.0273177 0.00318263 0.0172438 0.00419447 0.0297778 0.00532227 0.0184054 0.00601782 0.0515857
102 3 O 2.39434 20.2583 4.4844 -1.2 1 0.00286459 0.00437025 0.00134222 0.00480407 0.00304742 0.00711324 0.00251001 0.0212986 0.00277563 0.00740109 0.0018238 0.0281196 0.00304213 0.0168589 0.00402748 0.0302794 0.00602778 0.0185515 0.0066653 0.0510281
103 3 O -4.24274 17.671 4.4844 -1.2 1 0.00321482 0.00432145 0.00152913 0.00482372 0.00272825 0.00881779 0.002442 0.0219537 0.0027325 0.0078464 0.00237884 0.0280905 0.00331785 0.016753 0.00496838 0.0299115 0.00615701 0.0190218 0.00683586 0.050727
104 3 O 3.08659 17.9389 3.18632 -1.2 1 0.00315136 0.00370758 0.00145337 0.00440897 0.00275382 0.00808421 0.00202751 0.0218164 0.00212213 0.00791726 0.0020761 0.0274288 0.00292796 0.0166547 0.00412482 0.0297159 0.00536187 0.0176083 0.00566368 0.0503168
105 1 Mg 1.44478 16.6215 0 1.2 1 0.00240235 0.00272318 0.000903481 0.00427258 0.00151536 0.00895583 0.00118155 0.0213583 0.00129758 0.00806329 0.00141381 0.0282472 0.0021668 0.015658 0.00214787 0.0291609 0.00298836 0.0157762 0.00310583 0.0486223
106 3 O 3.0436 17.9389 5.78248 -1.2 1 0.00345001 0.00448894 0.00155484 0.00504642 0.0028973 0.00738644 0.00227079 0.0219305 0.0022692 0.00801153 0.00253891 0.0268919 0.00339025 0.0169698 0.00472339 0.0308255 0.0062577 0.0211198 0.00657637 0.0518165
107 1 Mg -1.40524 16.6628 1.4948 1.2 1 0.00177672 0.00332912 0.00129915 0.0044606 0.00172779 0.00879989 0.00188705 0.0220146 0.00187903 0.0081161 0.00175073 0.0278849 0.00290939 0.0166166 0.00281794 0.0295018 0.00324635 0.0165134 0.00354876 0.0493107
108 2 Si 0.420358 14.5979 1.4948 2.4 1 0.0018273 0.0032105 0.00155364 0.00495863 0.00204243 0.00915241 0.00173793 0.0212876 0.00161615 0.00807972 0.00143287 0.0280101 0.0026082 0.0164287 0.00334289 0.0288306 0.00388891 0.0162999 0.00338239 0.0492625
109 3 O 0.408732 12.9847 1.4948 -1.2 1 0.00188471 0.00312116 0.00123366 0.00479437 0.00174418 0.00919859 0.00149161 0.020925 0.00212103 0.00830957 0.00141357 0.0288107 0.00280071 0.0160492 0.00301555 0.0298592 0.00362799 0.0167716 0.00382573 0.0492099
110 3 O 7.03923 15.572 1.4948 -1.2 1 0.00184099 0.00328658 0.00124602 0.00452264 0.00207531 0.00843826 0.00232724 0.0214779 0.00199443 0.0079331 0.00168438 0.0289788 0.00238256 0.016376 0.00278423 0.029665 0.00378322 0.0165743 0.00409095 0.0494948
111 3 O -0.248332 15.3041 0.196716 -1.2 1 0.00205927 0.00274764 0.0011668 0.00448267 0.00125205 0.00916423 0.00189339 0.0212911 0.0012525 0.0081809 0.00179937 0.0276831 0.00273042 0.0157078 0.00384561 0.0291109 0.00340543 0.01585 0.00309929 0.0488996
112 3 O -0.289436 15.3041 2.79288 -1.2 1 0.00310169 0.00383159 0.00145776 0.00446365 0.00233703 0.00893091 0.00189995 0.0216771 0.00194122 0.00847218 0.00188731 0.0271151 0.00286813 0.016562 0.00371351 0.0297908 0.00482957 0.0177003 0.00490288 0.0497384
113 1 Mg 6.59566 18.996 0 1.2 1 0.00179414 0.00293628 0.00149155 0.0039591 0.0013493 0.00860965 0.00114045 0.0216793 0.000985821 0.00760064 0.001417 0.0278873 0.00211202 0.0162549 0.002404 0.0286513 0.00299085 0.0156037 0.00284979 0.0484258
114 1 Mg 3.85574 23.7037 1.4948 1.2 1 0.00183776 0.0029414 0.00124542 0.00418776 0.00176637 0.0075294 0.00132107 0.0229887 0.00188197 0.00728509 0.00222974 0.0270629 0.00251483 0.0175464 0.00381529 0.0288551 0.00343223 0.0170227 0.00378976 0.0505635
115 2 Si 5.66125 21.0195 1.4948 2.4 1 0.00150322 0.00288864 0.00108741 0.00407748 0.00223789 0.00826408 0.00164163 0.021692 0.00141508 0.00738734 0.00157032 0.0277311 0.00258597 0.0171661 0.00273693 0.0283042 0.00389871 0.0157064 0.00405812 0.0499153
116 3 O 5.72074 22.6328 1.4948 -1.2 1 0.00180299 0.00284308 0.00153173 0.00409083 0.0018766 0.00826627 0.00161155 0.0221776 0.00192828 0.00713524 0.00137443 0.0277558 0.00230963 0.0173225 0.00294423 0.0286545 0.00350863 0.0162161 0.00387252 0.0499717
117 3 O 2.03867 20.0455 1.4948 -1.2 1 0.00156716 0.00357082 0.00124972 0.00428539 0.00213147 0.00794371 0.00212871 0.0220615 0.00212499 0.00737225 0.00144576 0.028204 0.00213444 0.0172593 0.00250251 0.0290556 0.00385473 0.016084 0.00382656 0.0500313
118 3 O 4.96004 20.3134 0.196716 -1.2 1 0.00220991 0.00245887 0.00129104 0.00380688 0.00144082 0.00836533 0.00139461 0.0213864 0.00112658 0.00716648 0.00171473 0.0273719 0.00260037 0.0163854 0.00350487 0.0287713 0.00326036 0.0150598 0.00328374 0.0491953
119 1 Mg 6.55057 18.996 2.9896 1.2 1 0.00215418 0.00352726 0.00111025 0.00435869 0.00261464 0.0082642 0.00276665 0.0211124 0.0023334 0.00789431 0.00159896 0.0287602 0.00280813 0.0168858 0.00306041 0.0289087 0.00421112 0.016971 0.00508744 0.0496755