ITEM: TIMESTEP
75700
ITEM: NUMBER OF ATOMS
10500
ITEM: BOX BOUNDS xy xz yz pp pp pp
0	15.2977	5.09925
0	118.725	0
0	89.688	0
ITEM: ATOMS id type element xu yu zu q Q_1 Q_2 Q_3 Q_4 Q_5 Q_6 Q_7 Q_8 Q_9 Q_10 Q_11 Q_12 Q_13 Q_14 Q_15 Q_16 Q_17 Q_18 Q_19 Q_20 Q_21
1 1 Mg 6.2404 -6.37941e-06 0 1.2 1 0.00152298 0.00402147 0.00148767 0.0047348 0.00133155 0.00530165 0.00202968 0.0157818 0.00212851 0.00562756 0.00196258 0.0218604 0.00252788 0.0132256 0.002991 0.0206111 0.00420791 0.0139269 0.00385163 0.0402758
2 1 Mg 3.46349 4.70768 1.4948 1.2 1 0.0020372 0.00302216 0.00169227 0.00416561 0.00217964 0.00606621 0.00358817 0.0183278 0.0029178 0.00680604 0.00282376 0.0255553 0.0032376 0.0139139 0.00423168 0.0250339 0.00518395 0.0167815 0.00573556 0.0437685
3 2 Si 5.2885 2.02354 1.4948 2.4 1 0.00167783 0.00303735 0.00213958 0.00441698 0.00217157 0.00577892 0.00265647 0.0166481 0.00242366 0.00586442 0.00204679 0.0231509 0.00275639 0.0133776 0.00320721 0.0214812 0.00369505 0.0149687 0.00439008 0.0411507
4 3 O 5.33628 3.63678 1.4948 -1.2 1 0.00166789 0.00246766 0.00173049 0.00464907 0.00231402 0.00631953 0.00288871 0.0172676 0.0023958 0.00644249 0.00210484 0.025101 0.00251206 0.0134589 0.00401199 0.0238938 0.00494836 0.0159559 0.00573541 0.0426514
5 3 O 1.67294 1.04952 1.4948 -1.2 1 0.00224638 0.00312491 0.00167845 0.00417197 0.00164826 0.00565614 0.00249024 0.0163059 0.00260907 0.00574755 0.0021001 0.0226289 0.00244308 0.0129201 0.00325944 0.0221054 0.00459832 0.0152987 0.00466964 0.04037
6 3 O 4.59532 1.31737 0.196716 -1.2 1 0.0020128 0.00261171 0.00223197 0.00441973 0.00211963 0.00562275 0.00245922 0.0167279 0.00265573 0.00603315 0.00162634 0.0223998 0.00320687 0.0125623 0.00351096 0.021591 0.00396999 0.0144296 0.00431055 0.0407721
7 1 Mg 6.18956 -6.37941e-06 2.9896 1.2 1 0.00199926 0.00444348 0.00147296 0.00435852 0.00166709 0.00572505 0.00252768 0.0155288 0.00273832 0.00545703 0.00195189 0.0220974 0.00256425 0.013242 0.003519 0.0202739 0.00439195 0.0142008 0.00498358 0.0385137
8 3 O 4.55118 1.31737 2.79288 -1.2 1 0.00205334 0.0039564 0.00203982 0.00412663 0.00208983 0.00577388 0.00256183 0.0160963 0.00255978 0.00635818 0.0024021 0.0215199 0.00314462 0.0123068 0.00304949 0.0210681 0.00463782 0.0146218 0.00563549 0.0395888
9 1 Mg -1.20682 0.0413099 4.4844 1.2 1 0.00113807 0.00286566 0.00184146 0.00476409 0.00161944 0.00531953 0.00163636 0.015223 0.00232378 0.00554632 0.00239386 0.0218196 0.00285291 0.011898 0.00346791 0.020056 0.00498051 0.0148803 0.00536881 0.0372367
10 2 Si -3.0337 2.72544 4.4844 2.4 1 0.00105231 0.00328437 0.00174963 0.00469744 0.00209464 0.00600491 0.00335846 0.0156581 0.00319668 0.00590356 0.00241585 0.0230854 0.00293794 0.0126462 0.00398185 0.0217292 0.00510093 0.0163871 0.00618941 0.0381489
11 3 O -3.08099 1.11221 4.4844 -1.2 1 0.00140664 0.00355473 0.00202034 0.00433655 0.00140494 0.00533515 0.0024499 0.0150499 0.00283764 0.0052503 0.0022991 0.0215445 0.00286957 0.0114656 0.00363775 0.0205838 0.00466341 0.0149742 0.00572227 0.0369775
12 3 O 0.582463 3.69946 4.4844 -1.2 1 0.0019 0.00467144 0.00208862 0.00412221 0.00251244 0.00639679 0.00365109 0.0162372 0.00359636 0.00620146 0.00313516 0.0237236 0.00373791 0.0127765 0.00416569 0.0235281 0.00703524 0.0177228 0.00825023 0.0395923
13 3 O -2.29524 3.43162 3.18632 -1.2 1 0.00154589 0.00296436 0.00233998 0.00440506 0.00237591 0.00565691 0.00307497 0.0173466 0.00329877 0.00635268 0.00293738 0.0238957 0.00313486 0.0129324 0.00439569 0.0235892 0.00582829 0.0170859 0.00653963 0.041295
14 3 O -2.34216 3.43162 5.78248 -1.2 1 0.00129633 0.00371415 0.00111389 0.00434692 0.00255635 0.0054965 0.00341832 0.0157283 0.00316598 0.00620611 0.00281239 0.0221342 0.00398798 0.0118795 0.00382131 0.0222513 0.00608967 0.0178476 0.00742745 0.0373151
15 1 Mg 1.12778 2.37449 2.9896 1.2 1 0.00241083 0.00344892 0.0022712 0.00433535 0.00219485 0.00574364 0.00300872 0.0160336 0.00284517 0.00594061 0.00245873 0.0230386 0.00311291 0.0131451 0.00313555 0.0216786 0.00476439 0.0157338 0.00539236 0.040198
16 1 Mg 3.92855 2.33318 4.4844 1.2 1 0.0015043 0.00407053 0.00134593 0.00432067 0.00178504 0.00555993 0.00346128 0.015844 0.00330198 0.00569501 0.00299352 0.0222539 0.00342699 0.0130817 0.00494778 0.0210676 0.00612099 0.0159218 0.00693317 0.0382769
17 2 Si 2.09341 4.39804 4.4844 2.4 1 0.00120839 0.00431529 0.00194268 0.00397248 0.00274703 0.00568348 0.00383906 0.017384 0.00349286 0.00637904 0.00317495 0.0241324 0.00431917 0.0139193 0.00418369 0.0240284 0.00671355 0.0175333 0.00822583 0.0419418
18 3 O 2.09991 6.01128 4.4844 -1.2 1 0.00129709 0.0044308 0.00158469 0.00380973 0.00288374 0.00643943 0.00338579 0.01821 0.00296743 0.00673331 0.00322292 0.0257282 0.00367917 0.0142062 0.00421484 0.0265952 0.00694001 0.0185388 0.00819419 0.043607
19 3 O -4.52137 3.42402 4.4844 -1.2 1 0.00104396 0.00383339 0.00205993 0.00447522 0.00233055 0.00674313 0.00338013 0.0161774 0.00343042 0.00612934 0.00335199 0.0224039 0.00388081 0.0121554 0.00424197 0.0220192 0.00610831 0.0169353 0.00759042 0.0393939
20 3 O 2.80834 3.69187 3.18632 -1.2 1 0.00159102 0.00350664 0.00166399 0.00353084 0.0020881 0.00571656 0.00315272 0.0166957 0.00312506 0.00607307 0.00275585 0.0236101 0.00338496 0.0129181 0.00427227 0.0233662 0.00568853 0.0163752 0.00633835 0.0418507
21 1 Mg 1.17857 2.37449 0 1.2 1 0.00264043 0.00303214 0.00171063 0.00418306 0.00155035 0.00538741 0.00271804 0.0166861 0.00229738 0.00637376 0.00268249 0.0230359 0.00270746 0.0129239 0.00316619 0.021913 0.00420063 0.0144756 0.00471216 0.0407207
22 3 O 2.76143 3.69187 5.78248 -1.2 1 0.00126041 0.00466596 0.00174586 0.00399878 0.00215939 0.00524415 0.00313837 0.0160141 0.00329004 0.00673393 0.00310614 0.0224673 0.00432912 0.012637 0.0055075 0.0224054 0.0066283 0.0174359 0.00760161 0.0380251
23 1 Mg -1.67381 2.41581 1.4948 1.2 1 0.00244717 0.00254728 0.00204514 0.0046744 0.00163733 0.00576113 0.00243209 0.0163365 0.00273989 0.00607098 0.00195628 0.0240021 0.00236749 0.0140742 0.00245943 0.0222342 0.00449439 0.0157416 0.0048269 0.0415856
24 2 Si 0.16286 0.350945 1.4948 2.4 1 0.00247083 0.0024834 0.00216064 0.00445589 0.00158485 0.00626406 0.00274879 0.0159473 0.00228223 0.00498092 0.00175334 0.0227838 0.00228178 0.0135185 0.00280173 0.0209081 0.00477164 0.0145936 0.00434932 0.0405027
25 3 O 0.15972 -1.26229 1.4948 -1.2 1 0.00248866 0.0026479 0.00252978 0.00471261 0.00196184 0.00608424 0.00243585 0.0158349 0.00223198 0.00507281 0.00247461 0.0225139 0.00245881 0.0138715 0.00288621 0.0217772 0.00451996 0.0144587 0.00393564 0.0406374
26 3 O 6.77654 1.32496 1.4948 -1.2 1 0.0022153 0.00345405 0.00138991 0.00445594 0.00154863 0.00580235 0.0023036 0.0163699 0.00258449 0.00535209 0.00165515 0.0235941 0.00275141 0.0134874 0.0030298 0.0217813 0.00463801 0.0149577 0.00450751 0.0406774
27 3 O -0.508028 1.05712 0.196716 -1.2 1 0.00209662 0.00240276 0.00287173 0.00408939 0.00162116 0.00548796 0.00236577 0.0166265 0.0018302 0.00644076 0.0022804 0.0219255 0.00255125 0.0128593 0.00295542 0.021291 0.00443366 0.0149188 0.00436382 0.0400315
28 3 O -0.552171 1.05712 2.79288 -1.2 1 0.00171711 0.00245234 0.00261748 0.00447212 0.00156891 0.0059871 0.00234687 0.01537 0.00261729 0.00587399 0.00181279 0.0222712 0.00259616 0.0118745 0.00340246 0.0212116 0.00523532 0.0152624 0.00511275 0.0390623
29 1 Mg 6.31713 4.74899 0 1.2 1 0.00232086 0.00240237 0.00156465 0.00440081 0.00234866 0.00603819 0.00338213 0.0176137 0.00295459 0.00681936 0.00213955 0.0254131 0.00284071 0.0134951 0.00379673 0.024505 0.00460416 0.016062 0.00572308 0.0426541
30 1 Mg 3.54847 9.45668 1.4948 1.2 1 0.00171536 0.00278967 0.00162698 0.00430376 0.00200735 0.00744907 0.00310882 0.0212419 0.00199309 0.00817416 0.00235405 0.0283574 0.00318949 0.0155607 0.00362466 0.0288246 0.00433293 0.017936 0.00386818 0.0486111
31 2 Si 5.36879 6.77254 1.4948 2.4 1 0.00176461 0.00262809 0.00176941 0.00462864 0.00282648 0.00671358 0.00388255 0.019272 0.00277919 0.0076178 0.00261877 0.027538 0.00312499 0.0151016 0.00376896 0.0266781 0.00458374 0.0168981 0.0053212 0.0464359
32 3 O 5.41937 8.38578 1.4948 -1.2 1 0.00154415 0.00288732 0.00151615 0.0046475 0.00219981 0.00765676 0.00322063 0.0207224 0.00233605 0.00801846 0.00243076 0.0286982 0.00235808 0.015376 0.00268548 0.0287211 0.0044265 0.0173593 0.00477506 0.0477946
33 3 O 1.75158 5.79852 1.4948 -1.2 1 0.00197397 0.00300133 0.00165375 0.00376039 0.00242661 0.00582259 0.00334794 0.0192989 0.00284045 0.00716792 0.00259191 0.0277076 0.00292315 0.0152772 0.00315232 0.0266245 0.00514079 0.0172979 0.0055137 0.0454994
34 3 O 4.67421 6.06637 0.196716 -1.2 1 0.00245447 0.00214184 0.0014773 0.00423961 0.00211743 0.00678404 0.00302604 0.0195317 0.00252348 0.00789123 0.00226119 0.026153 0.00354621 0.0140584 0.00396664 0.0264767 0.00450755 0.0163652 0.00529321 0.0452855
35 1 Mg 6.26654 4.74899 2.9896 1.2 1 0.00181442 0.00317914 0.00207676 0.00474487 0.0027596 0.00642195 0.00386613 0.0174003 0.00371993 0.00665734 0.00230744 0.0253612 0.00348965 0.0142487 0.00484032 0.0242622 0.00578536 0.0170003 0.00695503 0.042657
36 3 O 4.63043 6.06637 2.79288 -1.2 1 0.00167089 0.00332605 0.00174861 0.00465472 0.00241134 0.0067215 0.00372185 0.0190704 0.00344634 0.00741966 0.00241981 0.0257111 0.00380496 0.0144317 0.00441491 0.0265044 0.00595387 0.0177209 0.00702444 0.0445678
37 1 Mg -1.12976 4.79031 4.4844 1.2 1 0.00154858 0.00407809 0.00177278 0.00450571 0.0024456 0.00600103 0.00336341 0.0171586 0.00347854 0.00664074 0.00311024 0.0250516 0.00393981 0.0137589 0.00444398 0.0249225 0.00725195 0.018509 0.00747598 0.0423382
38 2 Si -2.9517 7.47444 4.4844 2.4 1 0.00169437 0.00406158 0.00142452 0.00482818 0.00266246 0.00637699 0.00379209 0.0197079 0.00331127 0.00724422 0.00282673 0.0268124 0.00416473 0.0152384 0.00468812 0.0272495 0.00686069 0.0187436 0.00767293 0.0457429
39 3 O -3.00198 5.86121 4.4844 -1.2 1 0.000671307 0.00424245 0.00111679 0.00464545 0.00308139 0.00614169 0.00405681 0.0179131 0.00356681 0.00684689 0.00278113 0.024909 0.00420316 0.0133271 0.00443455 0.0257309 0.00681501 0.018391 0.00778706 0.0434023
40 3 O 0.666315 8.44846 4.4844 -1.2 1 0.00185451 0.00475164 0.00111062 0.00469097 0.00271178 0.00750905 0.00293497 0.0205575 0.00312192 0.00729965 0.00322068 0.0276041 0.00442357 0.0155613 0.00400073 0.0279697 0.00659526 0.0193295 0.00779536 0.0462352
41 3 O -2.21213 8.18062 3.18632 -1.2 1 0.000954263 0.00408181 0.00150256 0.00434948 0.0026324 0.00633263 0.00288404 0.0205215 0.00288864 0.00768004 0.00292467 0.0271908 0.00389607 0.0151153 0.00444281 0.0284076 0.00614574 0.0187274 0.00667786 0.0474431
42 3 O -2.25864 8.18062 5.78248 -1.2 1 0.00240237 0.00485768 0.00158715 0.0042718 0.00286594 0.005684 0.00310782 0.0196835 0.00261911 0.00773006 0.00304131 0.0259519 0.00447495 0.015455 0.00473911 0.0280148 0.00714984 0.0202601 0.00796598 0.0452544
43 1 Mg 1.20893 7.12349 2.9896 1.2 1 0.00148041 0.00377695 0.00165351 0.00409247 0.00276032 0.00662516 0.00372804 0.0191549 0.00298683 0.00773407 0.00289457 0.0274057 0.00351954 0.0154645 0.00333758 0.0268963 0.00565675 0.0178285 0.0063326 0.0457825
44 1 Mg 4.00982 7.08218 4.4844 1.2 1 0.00143429 0.0042661 0.0013942 0.00446835 0.00253572 0.00628241 0.00388641 0.019339 0.00341377 0.00698318 0.00339365 0.0265067 0.00409513 0.0162394 0.00545856 0.0269162 0.00725477 0.0183911 0.00801095 0.0450454
45 2 Si 2.17861 9.14704 4.4844 2.4 1 0.00114756 0.00429114 0.00151672 0.00452816 0.00293802 0.00730529 0.00373405 0.0205939 0.00279105 0.00753166 0.00321826 0.0273929 0.00442164 0.0162937 0.00393273 0.0285309 0.00597339 0.0192855 0.00703498 0.0479346
46 3 O 2.18828 10.7603 4.4844 -1.2 1 0.00179611 0.00425414 0.00180106 0.00439886 0.00273513 0.00701695 0.00299367 0.0206249 0.00266791 0.00777134 0.00259053 0.0281503 0.00401205 0.0154866 0.00392428 0.0298212 0.00624569 0.0200601 0.00683139 0.0485215
47 3 O -4.43805 8.17302 4.4844 -1.2 1 0.000936969 0.00454323 0.00171447 0.00467166 0.00255789 0.00771029 0.00333144 0.0200342 0.0033435 0.0075734 0.00323507 0.0275321 0.00459048 0.0152403 0.00467242 0.0280963 0.00695541 0.018796 0.00865465 0.0459311
48 3 O 2.89193 8.44087 3.18632 -1.2 1 0.0011711 0.00370291 0.00145961 0.00396847 0.00255066 0.00685695 0.00338453 0.0201846 0.00286196 0.00801655 0.00293361 0.0270637 0.00375307 0.0155718 0.00411857 0.0280069 0.00605906 0.0183756 0.00588355 0.0473033
49 1 Mg 1.25915 7.12349 0 1.2 1 0.0030317 0.00224505 0.00143725 0.00383717 0.0017988 0.00680151 0.00306991 0.0200751 0.00294805 0.00802667 0.00282194 0.0275395 0.00332864 0.0142064 0.0031622 0.0272449 0.00445638 0.0169351 0.00444062 0.0461913
50 3 O 2.84547 8.44087 5.78248 -1.2 1 0.00193712 0.00467259 0.0012739 0.00421803 0.00250999 0.00643857 0.00337714 0.0199031 0.00299579 0.00792945 0.00358494 0.0259116 0.00515248 0.0158076 0.00492959 0.0279991 0.00656537 0.0205298 0.00783944 0.0459165
51 1 Mg -1.59284 7.16481 1.4948 1.2 1 0.00235914 0.00290364 0.00135804 0.0043717 0.00205473 0.00628506 0.00280589 0.019685 0.00297762 0.0075232 0.00205519 0.027678 0.00329577 0.0154046 0.0033187 0.0269073 0.00462652 0.017241 0.00551214 0.0464847
52 2 Si 0.240329 5.09994 1.4948 2.4 1 0.00242524 0.00316287 0.00153279 0.00392143 0.00206553 0.0066776 0.00316613 0.0186804 0.00307896 0.00717655 0.00247533 0.025804 0.00276012 0.0144722 0.00376288 0.0246105 0.00497182 0.0166542 0.00520811 0.0445193
53 3 O 0.234538 3.48671 1.4948 -1.2 1 0.00235372 0.003366 0.00209626 0.00417237 0.0021022 0.0062434 0.00266336 0.0175527 0.00341106 0.00676636 0.00258703 0.0244542 0.00303916 0.0135559 0.00344254 0.0240539 0.00534665 0.0159112 0.00543012 0.042339
54 3 O 6.85564 6.07396 1.4948 -1.2 1 0.00189942 0.00262073 0.00208278 0.0045649 0.00278234 0.00603464 0.00325226 0.0195564 0.00301072 0.00727422 0.00225207 0.027486 0.00301858 0.0143949 0.0044439 0.026615 0.00537307 0.0173618 0.00645433 0.0452001
55 3 O -0.429565 5.80612 0.196716 -1.2 1 0.00264175 0.00279898 0.00186543 0.00387193 0.00179739 0.00695076 0.00258918 0.0192072 0.0028718 0.00806853 0.00254021 0.0256739 0.00253612 0.0140086 0.00347955 0.0259755 0.00503763 0.016381 0.00552771 0.0451593
56 3 O -0.473377 5.80612 2.79288 -1.2 1 0.00151667 0.00367744 0.00173514 0.00413743 0.00232771 0.00659757 0.00329898 0.0188288 0.00324796 0.00765569 0.00299058 0.0253485 0.00369262 0.0140533 0.0041305 0.0259193 0.00635991 0.0180469 0.0067599 0.0449027
57 1 Mg 6.40169 9.49799 0 1.2 1 0.00240949 0.00306204 0.00167597 0.00450158 0.00164809 0.00824766 0.00195226 0.0208994 0.00189104 0.00862498 0.00183704 0.0285836 0.00267696 0.014663 0.00243562 0.0294758 0.00322606 0.0175717 0.00350894 0.0477323
58 1 Mg 3.64209 14.2057 1.4948 1.2 1 0.0019439 0.00344847 0.00130825 0.00455496 0.00158358 0.00880241 0.00148739 0.0215618 0.00185665 0.00852694 0.00218902 0.0282964 0.00252993 0.0160537 0.00272859 0.0296263 0.00364259 0.0168756 0.00341416 0.0490656
59 2 Si 5.45748 11.5215 1.4948 2.4 1 0.00164957 0.00305687 0.00175904 0.00454999 0.00184787 0.00818638 0.00217266 0.0209371 0.00171897 0.00807606 0.00192367 0.0286632 0.00256069 0.0160656 0.002827 0.029133 0.00402209 0.0168159 0.00354935 0.0490122
60 3 O 5.51101 13.1348 1.4948 -1.2 1 0.00171593 0.0032519 0.00170641 0.00473192 0.00165729 0.00907586 0.00168019 0.0210755 0.00198429 0.00847007 0.00172771 0.0292016 0.00218942 0.0160828 0.00257393 0.0297661 0.00371603 0.0167721 0.00361825 0.0488137
61 3 O 1.83851 10.5475 1.4948 -1.2 1 0.00173758 0.00312451 0.00171308 0.0044797 0.00180606 0.00771842 0.00235396 0.0214889 0.00205321 0.00812491 0.00223876 0.0291976 0.00270375 0.0158368 0.00290302 0.0294103 0.00425987 0.0178165 0.00363947 0.0489462
62 3 O 4.7611 10.8154 0.196716 -1.2 1 0.00237347 0.00254292 0.00177675 0.00434464 0.00150185 0.00844156 0.00221232 0.0212148 0.00164827 0.00848376 0.00187061 0.0280884 0.00282738 0.0155062 0.00346552 0.0293798 0.00348817 0.016976 0.00326445 0.048686
63 1 Mg 6.35203 9.49799 2.9896 1.2 1 0.00077713 0.0036875 0.00165556 0.00458055 0.00256158 0.00758686 0.0035264 0.020276 0.00308158 0.00806117 0.00219838 0.0289306 0.00347289 0.0157388 0.00300378 0.0286055 0.00432035 0.0183778 0.0055372 0.0477789
64 3 O 4.71833 10.8154 2.79288 -1.2 1 0.00123364 0.00360854 0.00169443 0.00420549 0.00208207 0.00811243 0.00225773 0.0213188 0.00223266 0.00857445 0.00224611 0.0280383 0.00362263 0.0157305 0.00353105 0.0294951 0.00516353 0.0183867 0.00556751 0.0489828
65 1 Mg -1.0438 9.53931 4.4844 1.2 1 0.00183979 0.00450307 0.00133007 0.00432779 0.00293017 0.0066781 0.0027016 0.0205863 0.00282055 0.00779792 0.0028885 0.0277544 0.00383063 0.0159757 0.00443443 0.0289952 0.00683262 0.0198357 0.00699902 0.0479539
66 2 Si -2.8604 12.2234 4.4844 2.4 1 0.00178025 0.00388412 0.0018597 0.00460812 0.00283524 0.00760304 0.00306235 0.0216027 0.00295803 0.00806148 0.00236647 0.0281571 0.00413484 0.0160492 0.00401926 0.0295805 0.0057807 0.0195257 0.00668523 0.0496026
67 3 O -2.91391 10.6102 4.4844 -1.2 1 0.00170564 0.00422678 0.00166656 0.00431689 0.00286558 0.00701023 0.00327952 0.0204406 0.00270337 0.00734321 0.00205164 0.0282752 0.00416067 0.0153053 0.00383968 0.029924 0.00578691 0.0195732 0.00666109 0.0484543
68 3 O 0.7596 13.1975 4.4844 -1.2 1 0.00246502 0.00415265 0.00193297 0.0050471 0.00288299 0.00856716 0.00263971 0.0219398 0.00305501 0.00799178 0.00272714 0.0283948 0.00391477 0.016023 0.00379865 0.0297045 0.00609305 0.0197379 0.00684852 0.0493951
69 3 O -2.12001 12.9296 3.18632 -1.2 1 0.00160864 0.00371581 0.00191856 0.00427806 0.00256068 0.00752057 0.00225858 0.0216968 0.00261263 0.00821873 0.00229512 0.0276878 0.00378842 0.0160168 0.00408094 0.0298931 0.00537611 0.0186551 0.00544662 0.0495451
70 3 O -2.16532 12.9296 5.78248 -1.2 1 0.00291153 0.004261 0.00163838 0.00487005 0.00278568 0.00686406 0.00219416 0.0212282 0.00241748 0.00793607 0.00296441 0.0272692 0.00389325 0.0162316 0.00463604 0.0301364 0.00623435 0.0210579 0.00647585 0.0497591
71 1 Mg 1.29891 11.8725 2.9896 1.2 1 0.00159306 0.00349384 0.00163597 0.00473891 0.00243725 0.00791443 0.00259396 0.0208912 0.0026882 0.00828655 0.00215272 0.0288015 0.00338591 0.0160964 0.00317872 0.0295611 0.00479709 0.0181256 0.00496019 0.0487123
72 1 Mg 4.10033 11.8312 4.4844 1.2 1 0.00160475 0.00399407 0.0021038 0.00431986 0.0024855 0.00723558 0.00259582 0.0213446 0.00255758 0.0078779 0.00278976 0.02822 0.00347368 0.0169446 0.00472133 0.0296915 0.00657969 0.0197246 0.00643974 0.0492399
73 2 Si 2.27333 13.896 4.4844 2.4 1 0.00248121 0.00393114 0.001598 0.00495892 0.00311665 0.00781449 0.00320168 0.0217591 0.00263694 0.00796104 0.00283474 0.0280003 0.00350924 0.0163359 0.00377333 0.0298248 0.00559169 0.0193295 0.00636748 0.0504004
74 3 O 2.28634 15.5093 4.4844 -1.2 1 0.00276784 0.0042866 0.00168025 0.00473673 0.00307512 0.00752757 0.00284337 0.0206479 0.00274347 0.0075695 0.00213356 0.0284388 0.00337107 0.0156669 0.00373984 0.0304347 0.00582748 0.0190273 0.00658895 0.0499827
75 3 O -4.34533 12.922 4.4844 -1.2 1 0.00178582 0.00411142 0.00203343 0.00483175 0.0027421 0.00832007 0.00270534 0.0216824 0.00271242 0.00816955 0.00243484 0.0284629 0.00398735 0.0160341 0.00414476 0.0298725 0.00654103 0.0201064 0.00709575 0.0491736
76 3 O 2.98455 13.1899 3.18632 -1.2 1 0.00171287 0.00353056 0.00151583 0.00426767 0.00243178 0.00772914 0.00223583 0.0218376 0.0024924 0.00835199 0.0024649 0.0278078 0.0034473 0.0159434 0.004029 0.0297933 0.00570595 0.0186999 0.00565776 0.04943
77 1 Mg 1.34779 11.8725 0 1.2 1 0.0027956 0.00226948 0.00133306 0.00440588 0.00126631 0.00883885 0.00156228 0.021235 0.00152491 0.00884073 0.00200651 0.0286203 0.0027209 0.0148667 0.00251971 0.0298554 0.0028374 0.0169501 0.00293384 0.0481824
78 3 O 2.93934 13.1899 5.78248 -1.2 1 0.00252417 0.00424796 0.00163281 0.00485538 0.00280254 0.00699492 0.00243444 0.0215102 0.00250891 0.00811579 0.00296351 0.027325 0.00386369 0.0163678 0.00434353 0.0304492 0.00628384 0.0218348 0.00663525 0.0495772
79 1 Mg -1.50344 11.9138 1.4948 1.2 1 0.00209415 0.00335397 0.00162423 0.00442238 0.00150333 0.00813759 0.00173883 0.021598 0.00264563 0.00823147 0.00169559 0.0284421 0.00354459 0.0161889 0.00287296 0.0295457 0.00334019 0.0175263 0.00354977 0.0488721
80 2 Si 0.326006 9.84894 1.4948 2.4 1 0.00207369 0.00302188 0.00139783 0.00453911 0.0019409 0.00801866 0.00217689 0.0209687 0.00230307 0.00818474 0.00180336 0.02841 0.00290325 0.0155494 0.00313678 0.0286372 0.00394573 0.0176615 0.0032388 0.0483825
81 3 O 0.317364 8.23571 1.4948 -1.2 1 0.00160655 0.003093 0.00122236 0.00424099 0.00186732 0.00756863 0.00220138 0.020169 0.00271167 0.0078311 0.00196908 0.0283456 0.00327365 0.0155259 0.00346611 0.0282478 0.00444637 0.0174034 0.00425108 0.0474441
82 3 O 6.94307 10.823 1.4948 -1.2 1 0.00145174 0.00341513 0.00150656 0.00440015 0.00205045 0.00767426 0.00255481 0.0216887 0.00243506 0.00814727 0.00146026 0.0292209 0.00305056 0.0157508 0.00291412 0.0294971 0.00379491 0.0178305 0.00404334 0.0489258
83 3 O -0.343122 10.5551 0.196716 -1.2 1 0.00205622 0.00266228 0.00128549 0.0043958 0.00136361 0.00833646 0.00197746 0.0211429 0.00195474 0.0083933 0.00202496 0.0278202 0.00313407 0.0152507 0.00343201 0.0290994 0.0036578 0.0171733 0.00310446 0.0485181
84 3 O -0.385966 10.5551 2.79288 -1.2 1 0.00170252 0.00376255 0.0012521 0.00442818 0.00244463 0.0079021 0.00228752 0.021365 0.00248066 0.00869594 0.00244408 0.0273768 0.0039195 0.015794 0.00369532 0.0293595 0.00547881 0.0185274 0.00494973 0.048744
85 1 Mg 6.49448 14.247 0 1.2 1 0.0020317 0.00271425 0.00162206 0.00424582 0.0011725 0.0092564 0.00124936 0.0211706 0.00149993 0.00843377 0.00164755 0.0284897 0.00159048 0.0156279 0.00209364 0.0296328 0.00257794 0.0163835 0.00256035 0.0481397
86 1 Mg 3.74457 18.9547 1.4948 1.2 1 0.00233783 0.00326225 0.000971959 0.00420842 0.00165759 0.00855789 0.00117754 0.0220944 0.00190207 0.00784896 0.00238415 0.0273156 0.00223505 0.0164052 0.00325398 0.0288003 0.00370933 0.016352 0.00321244 0.049367
87 2 Si 5.55495 16.2705 1.4948 2.4 1 0.0021008 0.00301571 0.0011409 0.0045085 0.00193419 0.00881533 0.00134119 0.021267 0.00138833 0.0078306 0.00146504 0.0283534 0.00200423 0.0161389 0.00250069 0.0289867 0.00376283 0.0159552 0.00347463 0.0490935
88 3 O 5.6115 17.8838 1.4948 -1.2 1 0.00216598 0.00312106 0.00126045 0.00428815 0.00183551 0.00911166 0.00151513 0.0215781 0.00185945 0.00784697 0.0013649 0.0284339 0.00198393 0.0163014 0.00263235 0.0290828 0.00341217 0.0157625 0.00345102 0.0491286
89 3 O 1.93416 15.2965 1.4948 -1.2 1 0.00196147 0.00333005 0.00131988 0.00465592 0.00190246 0.00830467 0.00191167 0.0217725 0.00186693 0.00793455 0.00150395 0.0288535 0.00182999 0.0161853 0.00253036 0.0297284 0.00386298 0.016767 0.00349222 0.0494116
90 3 O 4.85636 15.5644 0.196716 -1.2 1 0.00203257 0.00251917 0.00131327 0.00439947 0.00123718 0.00909952 0.00137251 0.0212293 0.00134113 0.00797841 0.00165854 0.027737 0.00239586 0.0161746 0.00313119 0.0292929 0.00288986 0.0157275 0.00272341 0.0488002
91 1 Mg 6.44662 14.247 2.9896 1.2 1 0.00115469 0.00370115 0.00142036 0.00457156 0.00263228 0.00838676 0.00290996 0.0207956 0.00272866 0.00853501 0.00171067 0.0290531 0.00309831 0.0162804 0.00280593 0.0294784 0.00416566 0.0177894 0.00491894 0.0487989
92 3 O 4.81537 15.5644 2.79288 -1.2 1 0.00226226 0.00362208 0.0012538 0.00451673 0.00216617 0.0086527 0.00170719 0.021782 0.00163599 0.00844447 0.00185825 0.0277927 0.00255918 0.0162684 0.00336468 0.0296422 0.00500471 0.0176524 0.00524849 0.0494906
93 1 Mg -0.948271 14.2883 4.4844 1.2 1 0.00314407 0.0038645 0.00163027 0.00469578 0.00295844 0.00779485 0.00274213 0.0212004 0.00277999 0.00799065 0.00278009 0.0285076 0.00370901 0.0166623 0.00454044 0.0298485 0.00603613 0.0189872 0.00657769 0.0500507
94 2 Si -2.75928 16.9724 4.4844 2.4 1 0.00283683 0.00383306 0.00163382 0.00468823 0.00297392 0.00784882 0.0027076 0.0217027 0.00269066 0.00769698 0.00240442 0.0279617 0.00340153 0.0161841 0.00431741 0.029234 0.00514072 0.0186835 0.00595724 0.0507136
95 3 O -2.81617 15.3592 4.4844 -1.2 1 0.00288165 0.00397462 0.00161355 0.00458712 0.00299946 0.00748463 0.0028074 0.0209314 0.00262225 0.00752585 0.0020681 0.0285478 0.00353807 0.0155082 0.00391873 0.0300214 0.00597798 0.0189412 0.00649537 0.0499228
96 3 O 0.862762 17.9465 4.4844 -1.2 1 0.0033199 0.00411506 0.0014416 0.00465149 0.00300145 0.00850558 0.00216202 0.0219282 0.00251488 0.0077062 0.00248848 0.0283559 0.00370357 0.0165239 0.0043151 0.0290043 0.00576762 0.0189937 0.00623483 0.0503738
97 3 O -2.0185 17.6786 3.18632 -1.2 1 0.00292108 0.00346962 0.00157603 0.00411682 0.00280415 0.00760844 0.00217764 0.0218973 0.00220249 0.00772822 0.00209629 0.0275326 0.00335791 0.0161749 0.00408017 0.029714 0.00488552 0.0177813 0.00507856 0.0502494
98 3 O -2.06164 17.6786 5.78248 -1.2 1 0.00340348 0.00423533 0.00162819 0.00469399 0.00298919 0.00676619 0.00243001 0.0217967 0.00251359 0.00806094 0.00253401 0.0272566 0.0034178 0.0165061 0.00453065 0.0304589 0.00581781 0.020979 0.00591229 0.0512707
99 1 Mg 1.39817 16.6215 2.9896 1.2 1 0.00300681 0.00379391 0.00142612 0.00471105 0.00251746 0.00836051 0.00269771 0.0209573 0.00253116 0.00799677 0.00191363 0.0286911 0.00259147 0.0163715 0.00322353 0.0293892 0.00430205 0.016943 0.00439814 0.0494079
100 1 Mg 4.20062 16.5802 4.4844 1.2 1 0.00264563 0.00371345 0.00179722 0.00459189 0.00272975 0.00752842 0.00235664 0.0212188 0.00296135 0.00761775 0.00261122 0.0283711 0.00323397 0.0169932 0.00503632 0.0301021 0.00623661 0.0189572 0.00622644 0.0500051
101 2 Si 2.37796 18.645 4.4844 2.4 1 0.00293148 0.00358541 0.00147817 0.00466171 0.00295187 0.00777867 0.00278887 0.0219983 0.00257531 0.00796082 0.00258669 0.0275781 0.00350107 0.0169193 0.00436661 0.0294174 0.00539456 0.0186898 0.00586544 0.0514492
102 3 O 2.39434 20.2583 4.4844 -1.2 1 0.00246653 0.0038983 0.00140002 0.00430863 0.0029372 0.00671556 0.00254979 0.0210785 0.0024558 0.00731404 0.00188145 0.0281993 0.00343071 0.0160451 0.00395559 0.0295874 0.00571248 0.0186403 0.00649949 0.0507819
103 3 O -4.24274 17.671 4.4844 -1.2 1 0.00251272 0.0041607 0.00175916 0.00476867 0.00294427 0.0084617 0.00246321 0.0219473 0.00287846 0.00789135 0.0023919 0.0285621 0.00328531 0.0160703 0.00490531 0.0299132 0.00588775 0.0193153 0.00640665 0.0505695
104 3 O 3.08659 17.9389 3.18632 -1.2 1 0.00301918 0.00345856 0.0015155 0.00431853 0.00262284 0.00786935 0.00194724 0.0220068 0.00229013 0.00790285 0.00208845 0.0276012 0.00289273 0.0162704 0.00410952 0.0296313 0.00529073 0.0177246 0.00548851 0.0500935
105 1 Mg 1.44478 16.6215 0 1.2 1 0.00236707 0.0026899 0.00101764 0.00426906 0.00118797 0.00897613 0.000968113 0.0213237 0.00154637 0.00801773 0.00158355 0.0281504 0.00184584 0.0156642 0.00198638 0.0292811 0.00259131 0.0160532 0.00258887 0.0485439
106 3 O 3.0436 17.9389 5.78248 -1.2 1 0.00234949 0.00412831 0.00163244 0.00473353 0.00301676 0.00710406 0.00237183 0.0216569 0.00253573 0.00787879 0.00263033 0.0271973 0.00393792 0.016151 0.00489 0.0302979 0.00573664 0.0209998 0.00626912 0.0513232
107 1 Mg -1.40524 16.6628 1.4948 1.2 1 0.00183557 0.0031891 0.00118353 0.00439599 0.00169242 0.00866579 0.00185017 0.0219524 0.00212734 0.0079993 0.00191875 0.0279927 0.00297392 0.0164617 0.00286826 0.0293537 0.00282999 0.0165747 0.00310273 0.0491293
108 2 Si 0.420358 14.5979 1.4948 2.4 1 0.00158166 0.00279574 0.00151407 0.00466569 0.00198334 0.00892764 0.00180423 0.0212901 0.00179186 0.00803699 0.00162488 0.0281655 0.00269232 0.0162632 0.0032254 0.028833 0.00346787 0.0165303 0.00311673 0.049091
109 3 O 0.408732 12.9847 1.4948 -1.2 1 0.00141624 0.00286917 0.00147746 0.00470172 0.0018456 0.00895074 0.00141894 0.0210495 0.00236301 0.00820402 0.00160404 0.028836 0.00299776 0.0159827 0.00263493 0.0296239 0.00323264 0.016969 0.00342542 0.0489734
110 3 O 7.03923 15.572 1.4948 -1.2 1 0.00164427 0.003144 0.00109051 0.00455951 0.00215581 0.00824491 0.00217363 0.0215833 0.00229077 0.00792068 0.00154419 0.0290044 0.00231076 0.016375 0.00260538 0.0296439 0.00343485 0.0167979 0.00375401 0.0493071
111 3 O -0.248332 15.3041 0.196716 -1.2 1 0.00191056 0.00252209 0.00114242 0.00434204 0.00102737 0.00900242 0.00176884 0.0210654 0.00147494 0.00794009 0.00175366 0.0276751 0.00245406 0.0159101 0.00322338 0.0292783 0.00283587 0.0159271 0.00287589 0.0487858
112 3 O -0.289436 15.3041 2.79288 -1.2 1 0.00267374 0.00355421 0.00116844 0.00450591 0.00231683 0.00861817 0.00191242 0.0219085 0.0020215 0.00850683 0.00196743 0.027322 0.00306136 0.0164522 0.00346131 0.0293179 0.00463532 0.0178981 0.00455696 0.0496293
113 1 Mg 6.59566 18.996 0 1.2 1 0.00130992 0.00298363 0.00121147 0.00417056 0.000890382 0.00877303 0.000995988 0.0218278 0.00115481 0.00761596 0.00131767 0.027752 0.00180596 0.0162617 0.00224062 0.0287809 0.00263393 0.0157552 0.0025629 0.0486451
114 1 Mg 3.85574 23.7037 1.4948 1.2 1 0.00230491 0.00255081 0.000879172 0.00422023 0.00144911 0.00735488 0.00133726 0.0228767 0.00161985 0.00736267 0.0020001 0.026889 0.00234231 0.0173809 0.00351259 0.0282903 0.00353 0.0171165 0.00340962 0.0502498
115 2 Si 5.66125 21.0195 1.4948 2.4 1 0.00228141 0.00260588 0.000759712 0.00414454 0.00192805 0.00822329 0.00142383 0.0218359 0.00146585 0.00745726 0.00156968 0.027658 0.00248515 0.0171026 0.00282679 0.0280452 0.00362097 0.0159426 0.00377904 0.0498947
116 3 O 5.72074 22.6328 1.4948 -1.2 1 0.00245153 0.00267614 0.00125768 0.00404291 0.00154335 0.00815337 0.00153661 0.0221776 0.00178653 0.007233 0.00127723 0.0277278 0.0021175 0.0169863 0.00301456 0.0284681 0.00347789 0.0163682 0.00361115 0.0499332
117 3 O 2.03867 20.0455 1.4948 -1.2 1 0.00211867 0.00321616 0.00114051 0.00446467 0.00173275 0.0078074 0.00193207 0.0220858 0.00212327 0.00737503 0.00148688 0.0282753 0.00203873 0.0170555 0.00248242 0.0290582 0.00364593 0.016168 0.00356108 0.0497745
118 3 O 4.96004 20.3134 0.196716 -1.2 1 0.00205939 0.00224419 0.00111779 0.00405033 0.000950818 0.00828831 0.000981496 0.0216251 0.00106249 0.00735721 0.00167457 0.027353 0.00248544 0.0165297 0.00354297 0.0288207 0.00293046 0.0151251 0.00287417 0.0491469
119 1 Mg 6.55057 18.996 2.9896 1.2 1 0.00188072 0.00340985 0.00121693 0.00451073 0.00264803 0.00814386 0.00254748 0.0212402 0.00246409 0.00786821 0.00167615 0.0287862 0.0027948 0.0166231 0.00279599 0.0286688 0.00397739 0.0171587 0.00472192 0.0495156