ITEM: TIMESTEP
28000
ITEM: NUMBER OF ATOMS
10500
ITEM: BOX BOUNDS xy xz yz pp pp pp
0	15.2977	5.09925
0	118.725	0
0	89.688	0
ITEM: ATOMS id type element xu yu zu q Q_1 Q_2 Q_3 Q_4 Q_5 Q_6 Q_7 Q_8 Q_9 Q_10 Q_11 Q_12 Q_13 Q_14 Q_15 Q_16 Q_17 Q_18 Q_19 Q_20 Q_21
1 1 Mg 6.2404 -6.37941e-06 0 1.2 1 0.00208358 0.00419387 0.00121183 0.00462803 0.00114054 0.00554998 0.00221109 0.016129 0.00216261 0.00565096 0.00226098 0.0218165 0.00230444 0.0135288 0.00330495 0.0204871 0.00407729 0.0141055 0.00369803 0.0407195
2 1 Mg 3.46349 4.70768 1.4948 1.2 1 0.00199074 0.00342127 0.00168612 0.00438412 0.00194709 0.00596895 0.00353108 0.0185448 0.00301685 0.00698628 0.00294077 0.025763 0.00315789 0.0138783 0.00437213 0.025096 0.0057075 0.016986 0.00605999 0.0438649
3 2 Si 5.2885 2.02354 1.4948 2.4 1 0.00179777 0.00337804 0.00216178 0.00449911 0.00182129 0.00565861 0.00255967 0.0168785 0.00256293 0.00604092 0.002248 0.0233544 0.00281933 0.013431 0.00347609 0.0214961 0.00415509 0.015377 0.00442977 0.041229
4 3 O 5.33628 3.63678 1.4948 -1.2 1 0.0013709 0.00294927 0.00177415 0.00475369 0.0020268 0.00617914 0.00282658 0.0176708 0.00247146 0.00666084 0.00199804 0.0251085 0.00255946 0.0136154 0.00411692 0.0238807 0.00536292 0.0163894 0.00601658 0.0427912
5 3 O 1.67294 1.04952 1.4948 -1.2 1 0.00266382 0.00362457 0.00209351 0.00404052 0.0014497 0.00574187 0.00247629 0.0167183 0.00248038 0.00608811 0.00205505 0.0226662 0.00269183 0.0127271 0.00330384 0.021635 0.00487485 0.015624 0.00508514 0.0401197
6 3 O 4.59532 1.31737 0.196716 -1.2 1 0.00218931 0.00297043 0.00220515 0.00420705 0.0017827 0.00573271 0.00238727 0.0170226 0.00279814 0.00605301 0.00202391 0.0224467 0.00308628 0.0126497 0.00387262 0.0216037 0.00414884 0.0148647 0.00442017 0.0410308
7 1 Mg 6.18956 -6.37941e-06 2.9896 1.2 1 0.00146904 0.0047105 0.00143242 0.00422963 0.00146012 0.0057002 0.00252482 0.0159564 0.00288202 0.00547455 0.00185066 0.0222085 0.00285528 0.0134055 0.00351626 0.0202659 0.00472526 0.0147793 0.00519278 0.0389128
8 3 O 4.55118 1.31737 2.79288 -1.2 1 0.00178366 0.0045884 0.00198047 0.00418991 0.00188606 0.00562871 0.00259357 0.016798 0.00267752 0.00691274 0.00243556 0.0216953 0.00352432 0.0123716 0.00331722 0.0212678 0.00514031 0.0155519 0.00573397 0.0398271
9 1 Mg -1.20682 0.0413099 4.4844 1.2 1 0.000464982 0.00326955 0.00176762 0.00459195 0.00151506 0.00542532 0.0019094 0.0161572 0.00231085 0.00582655 0.00199335 0.022487 0.00306214 0.0119549 0.00371902 0.0204093 0.00547401 0.016212 0.0052673 0.0383465
10 2 Si -3.0337 2.72544 4.4844 2.4 1 0.000318635 0.00386328 0.00163842 0.0048546 0.00240616 0.0058547 0.00329232 0.0165699 0.00330204 0.00606951 0.00234968 0.0241683 0.0033391 0.0130819 0.0040851 0.0223628 0.0057299 0.017959 0.00642109 0.0391602
11 3 O -3.08099 1.11221 4.4844 -1.2 1 0.000532318 0.0043541 0.00174091 0.00436153 0.00147945 0.00528724 0.00232005 0.0158757 0.0029835 0.00553771 0.00224334 0.0221305 0.00327998 0.0115045 0.00352396 0.020929 0.00539472 0.0166591 0.00560975 0.0378465
12 3 O 0.582463 3.69946 4.4844 -1.2 1 0.00173257 0.00461213 0.00203446 0.00455624 0.00275002 0.00643745 0.00348808 0.0172052 0.00347437 0.006613 0.00325485 0.0248033 0.00426928 0.0132014 0.00449945 0.0241028 0.00716355 0.0190029 0.00854395 0.0411888
13 3 O -2.29524 3.43162 3.18632 -1.2 1 0.00113656 0.00307256 0.00222472 0.00472931 0.00227537 0.00573587 0.00286784 0.0177541 0.00330819 0.00687315 0.00268353 0.0245566 0.00345993 0.0131239 0.0048278 0.0239954 0.0062572 0.0177783 0.00682071 0.0415747
14 3 O -2.34216 3.43162 5.78248 -1.2 1 0.00117358 0.00419135 0.00113061 0.00511395 0.00263032 0.00575784 0.00323146 0.0169414 0.00304895 0.00719597 0.00272297 0.023742 0.0043765 0.0128936 0.00413426 0.0232857 0.00661334 0.0201218 0.00747186 0.0397587
15 1 Mg 1.12778 2.37449 2.9896 1.2 1 0.00215106 0.00396069 0.00231564 0.00435695 0.00237653 0.00585659 0.00299212 0.0166426 0.00282673 0.00618802 0.0024858 0.0234605 0.00345806 0.0130946 0.0034116 0.0216907 0.00524223 0.0166934 0.00597366 0.0403611
16 1 Mg 3.92855 2.33318 4.4844 1.2 1 0.00143888 0.00493405 0.00159144 0.00446572 0.00191241 0.00543131 0.0034523 0.0167062 0.00334373 0.00625259 0.00302875 0.0229429 0.00379311 0.0136549 0.00516044 0.0216384 0.00658589 0.0177009 0.00732408 0.039716
17 2 Si 2.09341 4.39804 4.4844 2.4 1 0.00138037 0.00465661 0.00193616 0.00432053 0.00306729 0.0057509 0.00371818 0.0180705 0.00351587 0.00680594 0.0032363 0.0248721 0.00460354 0.0142757 0.00450692 0.0246228 0.00708588 0.0190027 0.00865745 0.0425605
18 3 O 2.09991 6.01128 4.4844 -1.2 1 0.00185622 0.00490798 0.00156392 0.00416249 0.00301385 0.00630013 0.00329225 0.0191323 0.00286216 0.00736322 0.00302939 0.0267247 0.00424183 0.0146144 0.0047935 0.027304 0.00725162 0.0199366 0.00838632 0.0443911
19 3 O -4.52137 3.42402 4.4844 -1.2 1 0.000661776 0.00445792 0.002069 0.00483652 0.00238702 0.00676906 0.00350045 0.0168575 0.00339078 0.00629978 0.00303323 0.0238837 0.0039901 0.013002 0.00401414 0.0227085 0.00651937 0.0181255 0.00768891 0.0404687
20 3 O 2.80834 3.69187 3.18632 -1.2 1 0.00125027 0.00419606 0.00171496 0.00372496 0.00225664 0.00573555 0.00300872 0.0173486 0.00334979 0.00638636 0.00295089 0.0241401 0.00364727 0.0130465 0.00468872 0.0235095 0.00608852 0.0173779 0.00675916 0.0419702
21 1 Mg 1.17857 2.37449 0 1.2 1 0.00301055 0.00358168 0.00162384 0.00390272 0.00139695 0.00554498 0.00241146 0.0172639 0.0024467 0.00647288 0.00263825 0.0233144 0.0026498 0.0131038 0.00316009 0.0218019 0.00440355 0.014793 0.00467642 0.0413452
22 3 O 2.76143 3.69187 5.78248 -1.2 1 0.0018848 0.005187 0.0017603 0.00449872 0.0022788 0.00518117 0.00298308 0.0173415 0.00329383 0.00725064 0.00273679 0.0234446 0.00475888 0.0134961 0.00546924 0.0231711 0.00699753 0.0192534 0.00789934 0.0405317
23 1 Mg -1.67381 2.41581 1.4948 1.2 1 0.00234309 0.00295032 0.00229334 0.00467506 0.00155978 0.00597441 0.0024575 0.0165501 0.00279016 0.00635132 0.00184768 0.0240927 0.00262581 0.0140588 0.00273678 0.0220414 0.00463256 0.016094 0.00510356 0.0417391
24 2 Si 0.16286 0.350945 1.4948 2.4 1 0.00271607 0.00289523 0.00257954 0.00431933 0.00128207 0.00630062 0.00275019 0.0163309 0.00228904 0.0052023 0.00191098 0.0227111 0.00235145 0.0135367 0.00292491 0.0205821 0.00484318 0.0147286 0.00440921 0.0403333
25 3 O 0.15972 -1.26229 1.4948 -1.2 1 0.00245141 0.00303584 0.00287131 0.00429928 0.00165544 0.00602812 0.00255134 0.0163802 0.00229715 0.00539879 0.00243148 0.0225618 0.00253871 0.0137881 0.00261573 0.021405 0.00430004 0.0145279 0.00404247 0.0407448
26 3 O 6.77654 1.32496 1.4948 -1.2 1 0.00202921 0.0038927 0.00153746 0.00446265 0.00142548 0.00593273 0.00235592 0.0166347 0.00262085 0.00545311 0.00184007 0.0235829 0.00273794 0.0135012 0.00350306 0.0216667 0.00488745 0.0152333 0.00460727 0.0408487
27 3 O -0.508028 1.05712 0.196716 -1.2 1 0.00258601 0.00279365 0.00309086 0.00387201 0.00125337 0.00554169 0.00240853 0.0170426 0.0018172 0.0065174 0.00267741 0.0220894 0.00276329 0.0128525 0.00300227 0.0211166 0.00438269 0.0150131 0.00422256 0.040377
28 3 O -0.552171 1.05712 2.79288 -1.2 1 0.00173232 0.00274943 0.0028084 0.00438742 0.00161848 0.00611197 0.00231798 0.01609 0.00263581 0.00621951 0.00207281 0.0226874 0.00327784 0.0121523 0.00379667 0.0214467 0.0057167 0.0158429 0.00524321 0.0394627
29 1 Mg 6.31713 4.74899 0 1.2 1 0.00188831 0.00268591 0.00203404 0.00450824 0.00232924 0.00619497 0.00329745 0.0180246 0.00284306 0.00703751 0.00216582 0.0252949 0.002852 0.0136229 0.00397986 0.0246936 0.00478233 0.0163282 0.00592418 0.0434082
30 1 Mg 3.54847 9.45668 1.4948 1.2 1 0.000679074 0.00318653 0.00172783 0.00482006 0.00212796 0.00758006 0.00307467 0.0213564 0.00195046 0.00844441 0.002543 0.0285981 0.00349241 0.0155794 0.00387416 0.0290583 0.00439578 0.0181359 0.00393276 0.0487803
31 2 Si 5.36879 6.77254 1.4948 2.4 1 0.000880491 0.00314605 0.00174367 0.00500516 0.002769 0.00676395 0.00363769 0.0196409 0.00278458 0.00785455 0.00263057 0.0275551 0.00319146 0.015232 0.00388675 0.0268914 0.00493941 0.0172947 0.0054506 0.0465935
32 3 O 5.41937 8.38578 1.4948 -1.2 1 0.000537979 0.0031291 0.00147221 0.00507059 0.00237176 0.00768072 0.00310842 0.0209099 0.00234722 0.00838666 0.0026373 0.0290384 0.00249099 0.0155064 0.00290646 0.0290811 0.00461915 0.0175265 0.00498942 0.0480179
33 3 O 1.75158 5.79852 1.4948 -1.2 1 0.00169675 0.00342501 0.00160015 0.00401843 0.00260704 0.0058947 0.00319546 0.01948 0.00293256 0.00737982 0.00281297 0.0278763 0.00308962 0.0153196 0.00344617 0.0266537 0.00557043 0.0175898 0.00584282 0.0455604
34 3 O 4.67421 6.06637 0.196716 -1.2 1 0.00157445 0.00292396 0.00149593 0.00457995 0.00196255 0.00685415 0.00284162 0.0198021 0.00265871 0.0080906 0.0023206 0.0262514 0.00344633 0.0141597 0.00398313 0.0267037 0.00475229 0.0167376 0.00535795 0.0456712
35 1 Mg 6.26654 4.74899 2.9896 1.2 1 0.00157174 0.00341572 0.00177341 0.00511608 0.00260924 0.00655376 0.00369718 0.0178612 0.00380304 0.00715553 0.00232111 0.0256359 0.00386766 0.0144021 0.00510166 0.0246503 0.0062785 0.0176059 0.00744647 0.0429653
36 3 O 4.63043 6.06637 2.79288 -1.2 1 0.00166274 0.00370941 0.00185781 0.00488322 0.00235245 0.0065265 0.00347924 0.0194753 0.00347528 0.00804107 0.00275194 0.0260104 0.0040966 0.0147996 0.0048124 0.0271162 0.00626685 0.0182939 0.0072466 0.0449631
37 1 Mg -1.12976 4.79031 4.4844 1.2 1 0.00130808 0.00422789 0.00161649 0.00484836 0.00255337 0.00603216 0.00321526 0.0176941 0.00362399 0.00708858 0.00305161 0.0258119 0.0041226 0.0144143 0.00474623 0.02546 0.0078866 0.0193447 0.00824264 0.043127
38 2 Si -2.9517 7.47444 4.4844 2.4 1 0.00188239 0.00422032 0.00103341 0.00521349 0.00308867 0.00638718 0.00388583 0.0202443 0.00328383 0.00789239 0.00304118 0.0276815 0.00457384 0.0159726 0.00548116 0.0279682 0.00707895 0.0195524 0.00860262 0.0465481
39 3 O -3.00198 5.86121 4.4844 -1.2 1 0.00128491 0.0045016 0.000923923 0.00503768 0.00323481 0.00615061 0.00405217 0.0186933 0.00351061 0.00766646 0.00285127 0.0260106 0.00458942 0.0141668 0.00481609 0.0267962 0.00716388 0.0197075 0.00861745 0.0444133
40 3 O 0.666315 8.44846 4.4844 -1.2 1 0.00249217 0.00504102 0.00116931 0.00488548 0.00299401 0.00728608 0.00309029 0.0210709 0.00291597 0.00807418 0.00324438 0.0286533 0.00486173 0.0159271 0.00456605 0.0290784 0.00678178 0.0199224 0.0080976 0.0476436
41 3 O -2.21213 8.18062 3.18632 -1.2 1 0.0013035 0.00417583 0.00137571 0.00458046 0.00267079 0.00623444 0.00290521 0.0207468 0.00282227 0.00821527 0.00288108 0.0277699 0.0045246 0.0157728 0.00500107 0.0288486 0.00617267 0.0189755 0.00705349 0.0479947
42 3 O -2.25864 8.18062 5.78248 -1.2 1 0.00335332 0.00492279 0.0012003 0.00490655 0.00302442 0.00585016 0.00306802 0.0202944 0.00256016 0.00836658 0.00348897 0.0271286 0.00461138 0.0165848 0.00553713 0.0290464 0.00745725 0.021152 0.00856035 0.0478477
43 1 Mg 1.20893 7.12349 2.9896 1.2 1 0.00121372 0.00404543 0.00159249 0.00446682 0.00290791 0.00659651 0.00371026 0.0196516 0.0029063 0.00819681 0.0029228 0.0279666 0.00387532 0.0157312 0.00380111 0.0275365 0.00603095 0.0185428 0.00661445 0.0463719
44 1 Mg 4.00982 7.08218 4.4844 1.2 1 0.00173455 0.00458673 0.00156688 0.00499973 0.0027113 0.00641767 0.00381783 0.0201166 0.00329716 0.00777442 0.00333857 0.0272503 0.00431448 0.0165873 0.00581443 0.0282343 0.00753951 0.019826 0.00880319 0.0462036
45 2 Si 2.17861 9.14704 4.4844 2.4 1 0.00218093 0.00471818 0.00145526 0.00499486 0.00307423 0.00731153 0.00379105 0.0211738 0.00275415 0.00818326 0.00305884 0.0283496 0.00478847 0.0165377 0.00461464 0.0295723 0.00640011 0.0199704 0.00735688 0.0493642
46 3 O 2.18828 10.7603 4.4844 -1.2 1 0.00293674 0.00477383 0.00182298 0.00475423 0.0030059 0.00723368 0.00323635 0.0209787 0.00244039 0.00825324 0.00222329 0.0289168 0.00443039 0.0159069 0.00460497 0.0305297 0.00643738 0.0202057 0.00700856 0.0502169
47 3 O -4.43805 8.17302 4.4844 -1.2 1 0.00148308 0.00459784 0.00132551 0.005198 0.00285216 0.00761459 0.00328826 0.020618 0.0032042 0.00827058 0.00320688 0.0286589 0.00463286 0.016119 0.00503574 0.0292902 0.00709045 0.0197703 0.00897678 0.0471961
48 3 O 2.89193 8.44087 3.18632 -1.2 1 0.00175995 0.00404397 0.00150743 0.00455926 0.00259955 0.00671671 0.00330595 0.0205589 0.00276228 0.00854732 0.00303767 0.0276704 0.00413457 0.0159598 0.00460892 0.0290054 0.00620773 0.0189231 0.00619845 0.0480645
49 1 Mg 1.25915 7.12349 0 1.2 1 0.00179778 0.00278871 0.00126358 0.00406358 0.00187763 0.0071271 0.00285403 0.0202558 0.00282345 0.00832727 0.00259413 0.0277123 0.00330553 0.0141902 0.00331795 0.0275296 0.00453752 0.0174199 0.00416019 0.0466359
50 3 O 2.84547 8.44087 5.78248 -1.2 1 0.00288167 0.00540331 0.00141447 0.00476668 0.00282083 0.00640699 0.00342851 0.0207124 0.00288587 0.00859583 0.00326572 0.0270351 0.00550419 0.0165838 0.0053729 0.0294575 0.00684442 0.0213177 0.00801511 0.0480129
51 1 Mg -1.59284 7.16481 1.4948 1.2 1 0.00140998 0.00335921 0.00118943 0.00462741 0.00187202 0.00622781 0.00262015 0.0199019 0.00297123 0.00795698 0.00187271 0.0275888 0.003686 0.0154012 0.00362293 0.0272554 0.00487234 0.0178081 0.00563354 0.0466423
52 2 Si 0.240329 5.09994 1.4948 2.4 1 0.00188237 0.00358045 0.00162476 0.00403054 0.00207993 0.0067033 0.0029729 0.0188972 0.00315926 0.00742719 0.00240699 0.0260495 0.00300775 0.0143546 0.004056 0.0246663 0.00531805 0.0169467 0.00542065 0.0447905
53 3 O 0.234538 3.48671 1.4948 -1.2 1 0.00231345 0.00384196 0.00223005 0.00418916 0.00193522 0.00634598 0.0026015 0.0178672 0.00344589 0.00698042 0.00240268 0.0244657 0.00324124 0.013399 0.0038848 0.0239217 0.00578993 0.0160614 0.00556042 0.0423516
54 3 O 6.85564 6.07396 1.4948 -1.2 1 0.00116253 0.00274515 0.00202617 0.00491021 0.00253549 0.00600921 0.00305759 0.0198651 0.00312497 0.00762206 0.00232565 0.0276727 0.0034875 0.0146335 0.00462509 0.0268018 0.00576821 0.0177137 0.00673802 0.0453855
55 3 O -0.429565 5.80612 0.196716 -1.2 1 0.00173171 0.00316358 0.0018925 0.00408659 0.00173945 0.0070669 0.00256575 0.0194386 0.00295254 0.00834319 0.00250594 0.0257268 0.00262561 0.0138646 0.00364395 0.0260742 0.00509469 0.0168335 0.00564376 0.0455667
56 3 O -0.473377 5.80612 2.79288 -1.2 1 0.0014374 0.0036692 0.00154505 0.00456555 0.00242433 0.00659904 0.0031115 0.0191976 0.00321126 0.00816962 0.0029977 0.0258122 0.00410144 0.0145535 0.00444 0.0262117 0.00661712 0.0184876 0.00719577 0.0452428
57 1 Mg 6.40169 9.49799 0 1.2 1 0.00126423 0.00369859 0.00142385 0.00455514 0.00161662 0.00827881 0.00203006 0.021128 0.00172252 0.00893059 0.00166781 0.0287434 0.00260998 0.0147277 0.00244357 0.0298517 0.00351486 0.0179146 0.0035864 0.0479256
58 1 Mg 3.64209 14.2057 1.4948 1.2 1 0.00197391 0.00326383 0.00153646 0.00467173 0.00169855 0.00897739 0.00169411 0.0215869 0.00171696 0.00866221 0.00227222 0.0283265 0.00271817 0.0160982 0.00314765 0.0295448 0.00362021 0.0169827 0.00334185 0.0494181
59 2 Si 5.45748 11.5215 1.4948 2.4 1 0.001441 0.00339315 0.00177581 0.00471401 0.00202331 0.00824934 0.00219594 0.0211714 0.00155023 0.00834268 0.00187186 0.0288355 0.00280881 0.0162747 0.00324684 0.029154 0.00406713 0.0169844 0.00365851 0.0492853
60 3 O 5.51101 13.1348 1.4948 -1.2 1 0.00179037 0.00335804 0.00171656 0.00473652 0.0017365 0.00919512 0.0018811 0.0211266 0.00183792 0.00866345 0.00172917 0.0293539 0.00233885 0.0161494 0.00286317 0.0298029 0.0037862 0.0166891 0.00349711 0.0490876
61 3 O 1.83851 10.5475 1.4948 -1.2 1 0.000829004 0.00353804 0.00161484 0.00511995 0.00207588 0.00771462 0.0024681 0.0216313 0.00182726 0.00849613 0.00221224 0.0294574 0.00297797 0.0157033 0.00323101 0.0297889 0.00434875 0.0179687 0.00368344 0.0492247
62 3 O 4.7611 10.8154 0.196716 -1.2 1 0.00126083 0.00310089 0.00167483 0.00463844 0.00149475 0.00853085 0.00218741 0.0213679 0.00147818 0.00876807 0.00187585 0.028217 0.00306172 0.0155878 0.00364659 0.0295134 0.0036025 0.0172196 0.00328854 0.0487661
63 1 Mg 6.35203 9.49799 2.9896 1.2 1 0.000701389 0.00390843 0.00153126 0.00494177 0.00284098 0.00751634 0.00349382 0.020465 0.00318414 0.00881686 0.00224968 0.0293634 0.00405296 0.0160581 0.00359632 0.0291189 0.00461294 0.0184915 0.00588803 0.048272
64 3 O 4.71833 10.8154 2.79288 -1.2 1 0.00171516 0.00352007 0.00152232 0.00472179 0.0023699 0.0081386 0.00251852 0.0213882 0.00204355 0.00902577 0.0022048 0.0283887 0.00380068 0.0159861 0.00416026 0.0300645 0.00541056 0.0185181 0.00577768 0.0496012
65 1 Mg -1.0438 9.53931 4.4844 1.2 1 0.0030707 0.00501529 0.00133305 0.00463056 0.00309812 0.00658284 0.00272311 0.0209192 0.00272296 0.00844122 0.00269971 0.0286591 0.00402921 0.016711 0.00451713 0.0296519 0.00685598 0.0199648 0.00756269 0.049189
66 2 Si -2.8604 12.2234 4.4844 2.4 1 0.00333711 0.00438229 0.00161236 0.00464016 0.00277395 0.00791241 0.00320556 0.0218355 0.0028894 0.00847113 0.00236956 0.0284897 0.00414794 0.0166305 0.00444113 0.029801 0.00594126 0.0196252 0.00673868 0.0511055
67 3 O -2.91391 10.6102 4.4844 -1.2 1 0.00318409 0.00471447 0.00140409 0.00464209 0.00286541 0.00703046 0.00333375 0.0205366 0.0026991 0.00788408 0.00221683 0.0289367 0.00431271 0.015836 0.00434221 0.0304387 0.00626404 0.0198812 0.0073111 0.0496118
68 3 O 0.7596 13.1975 4.4844 -1.2 1 0.0037283 0.00444582 0.00184904 0.00523194 0.00293533 0.00886835 0.00277786 0.0220316 0.00280534 0.00836946 0.00274733 0.028965 0.00439685 0.0163814 0.00421576 0.0300697 0.00616536 0.0196 0.00678659 0.0510167
69 3 O -2.12001 12.9296 3.18632 -1.2 1 0.00307059 0.00403158 0.0018351 0.00424768 0.00261934 0.00773126 0.00246185 0.0218978 0.00241926 0.00845413 0.00228585 0.0280245 0.00373953 0.0162648 0.00469311 0.0301878 0.00545875 0.0186168 0.00561622 0.0504988
70 3 O -2.16532 12.9296 5.78248 -1.2 1 0.00480094 0.00479032 0.00167521 0.00482095 0.00285368 0.00719312 0.00250074 0.0215721 0.00261705 0.00808518 0.00279702 0.0279891 0.0041181 0.0170747 0.00497661 0.0309105 0.00654163 0.0212077 0.00701387 0.0523084
71 1 Mg 1.29891 11.8725 2.9896 1.2 1 0.00218276 0.00372235 0.00168925 0.00513737 0.00266115 0.00824408 0.0029064 0.021032 0.00248641 0.00851444 0.00214803 0.0292174 0.00359172 0.0162209 0.00342129 0.0298311 0.0047845 0.0180899 0.00503925 0.0495924
72 1 Mg 4.10033 11.8312 4.4844 1.2 1 0.00287172 0.00397672 0.00183249 0.00480622 0.00265116 0.00756188 0.00291692 0.0214175 0.00253355 0.00845211 0.00283196 0.0289893 0.0038095 0.0173248 0.00553181 0.0302346 0.0067744 0.019818 0.00654723 0.0507246
73 2 Si 2.27333 13.896 4.4844 2.4 1 0.00359122 0.00388108 0.00180799 0.00531181 0.0031617 0.00831534 0.00333641 0.0216959 0.00243628 0.0082007 0.00294675 0.0283463 0.00403789 0.0168084 0.0044473 0.0299897 0.00563652 0.0194286 0.0062576 0.0522045
74 3 O 2.28634 15.5093 4.4844 -1.2 1 0.00401662 0.00417022 0.00199555 0.00481954 0.00301196 0.00779641 0.00290525 0.0208082 0.00260358 0.00763251 0.00230572 0.0287034 0.00342809 0.0161159 0.00413937 0.0303549 0.00573206 0.0190015 0.00637689 0.0519334
75 3 O -4.34533 12.922 4.4844 -1.2 1 0.00346701 0.00438334 0.00176237 0.00488576 0.00280873 0.00872113 0.00292485 0.0217647 0.0027312 0.00843875 0.00249871 0.0290539 0.00408149 0.0165677 0.00478187 0.0301111 0.00653873 0.0200432 0.00732404 0.050956
76 3 O 2.98455 13.1899 3.18632 -1.2 1 0.00298394 0.00369202 0.00166423 0.0046944 0.00260549 0.00807459 0.0022521 0.02173 0.00214673 0.00859391 0.00242929 0.0280877 0.00364408 0.016068 0.00449464 0.0300483 0.00563265 0.0186081 0.00550035 0.0503352
77 1 Mg 1.34779 11.8725 0 1.2 1 0.00164436 0.00294633 0.0011327 0.00474929 0.00131214 0.00892178 0.00161487 0.021227 0.00131757 0.00903748 0.00191763 0.0289046 0.00272522 0.0148765 0.00267852 0.0301155 0.00293807 0.0173379 0.00286035 0.0483673
78 3 O 2.93934 13.1899 5.78248 -1.2 1 0.00349256 0.00476416 0.00179912 0.00517819 0.00278303 0.00748568 0.00269822 0.0219799 0.00240256 0.00823512 0.00295973 0.027724 0.00443757 0.016894 0.00461145 0.0311638 0.00614281 0.0219646 0.00669626 0.052722
79 1 Mg -1.50344 11.9138 1.4948 1.2 1 0.00130692 0.00370457 0.00143305 0.00457742 0.00156552 0.0083471 0.00175315 0.0216313 0.00233542 0.00846931 0.001709 0.0287984 0.00372264 0.0160757 0.00329068 0.0298462 0.00363067 0.0175607 0.00360824 0.0492038
80 2 Si 0.326006 9.84894 1.4948 2.4 1 0.000783892 0.00342232 0.00131797 0.00508148 0.00206702 0.0081655 0.00208831 0.0210848 0.0021155 0.00845404 0.0016977 0.0286429 0.00316727 0.0155388 0.00343179 0.0289384 0.00397037 0.0178806 0.00353137 0.0486542
81 3 O 0.317364 8.23571 1.4948 -1.2 1 0.00089879 0.00351398 0.00117676 0.00464539 0.0020168 0.00759212 0.00214355 0.0203491 0.00260573 0.00809962 0.00195053 0.0287278 0.00373529 0.0155943 0.00378591 0.0286779 0.00469224 0.0178139 0.00438915 0.0476633
82 3 O 6.94307 10.823 1.4948 -1.2 1 0.000714512 0.00375024 0.00146032 0.00457094 0.00206643 0.00778235 0.00258785 0.0217509 0.00229686 0.00838262 0.00157682 0.0295043 0.0032337 0.0159311 0.00322308 0.0298875 0.00394011 0.0179541 0.00411256 0.0491296
83 3 O -0.343122 10.5551 0.196716 -1.2 1 0.000982697 0.00322335 0.00126987 0.00476465 0.00149592 0.00861006 0.00181553 0.0214878 0.00177184 0.00892981 0.00194928 0.028137 0.00329082 0.0152837 0.00381695 0.0294326 0.00356296 0.0174381 0.00315801 0.0486552
84 3 O -0.385966 10.5551 2.79288 -1.2 1 0.00254243 0.00416839 0.00116117 0.00460724 0.00262717 0.00805765 0.00232716 0.0216547 0.00210464 0.00904366 0.00229452 0.0278952 0.00401233 0.0160471 0.0041666 0.0297797 0.00546417 0.0189003 0.0052335 0.049606
85 1 Mg 6.49448 14.247 0 1.2 1 0.00134702 0.00339321 0.00147295 0.0045276 0.00110255 0.00930677 0.00136061 0.0212218 0.00122191 0.00860805 0.00134292 0.0288034 0.0015181 0.0156245 0.00225102 0.0299659 0.00287116 0.0166114 0.00263473 0.0483179
86 1 Mg 3.74457 18.9547 1.4948 1.2 1 0.00226358 0.00308864 0.00125948 0.00400617 0.00165857 0.00862146 0.00124621 0.0220318 0.0019641 0.00794883 0.00225887 0.0275696 0.0025388 0.0165783 0.00361342 0.0286708 0.00343392 0.0162945 0.0033172 0.0498691
87 2 Si 5.55495 16.2705 1.4948 2.4 1 0.00231765 0.00299513 0.00133039 0.00433926 0.00182277 0.00901035 0.00152375 0.0213425 0.00144855 0.00790182 0.00126947 0.0285562 0.00227007 0.0163517 0.00286092 0.0287051 0.00371116 0.0159531 0.00345769 0.0495461
88 3 O 5.6115 17.8838 1.4948 -1.2 1 0.00241225 0.00300896 0.00139139 0.00427037 0.00174613 0.00928871 0.00153727 0.0215096 0.00193666 0.00780656 0.00148054 0.0286385 0.00193189 0.0165659 0.00264632 0.0288584 0.00327147 0.0157082 0.00347745 0.0495402
89 3 O 1.93416 15.2965 1.4948 -1.2 1 0.00212147 0.00335957 0.00156568 0.00462094 0.00192455 0.00847597 0.00208757 0.0218638 0.00192002 0.00806819 0.0015095 0.0290329 0.00204619 0.016268 0.00282755 0.0296818 0.00381082 0.0166193 0.00335169 0.0498375
90 3 O 4.85636 15.5644 0.196716 -1.2 1 0.00156596 0.00264934 0.00129493 0.00448624 0.00118372 0.0091728 0.00149285 0.0212774 0.00119412 0.0081807 0.00154593 0.0281367 0.00261441 0.016207 0.00336136 0.029259 0.00309756 0.0157888 0.00280031 0.0489747
91 1 Mg 6.44662 14.247 2.9896 1.2 1 0.00211253 0.00375346 0.00161205 0.00451718 0.00252571 0.00863133 0.00302292 0.0207654 0.00262362 0.0086717 0.00205313 0.029476 0.0032955 0.0163873 0.00327117 0.0294874 0.00417954 0.0175975 0.0048166 0.0496864
92 3 O 4.81537 15.5644 2.79288 -1.2 1 0.0032998 0.00329514 0.00146889 0.00435897 0.0024008 0.00900004 0.00187287 0.0216664 0.00166169 0.00844726 0.00188095 0.0280824 0.00299935 0.0163126 0.00359778 0.0294763 0.00486532 0.0173178 0.00510815 0.0503141
93 1 Mg -0.948271 14.2883 4.4844 1.2 1 0.00429932 0.00434254 0.00164864 0.00450254 0.00282867 0.00803652 0.00268886 0.0214044 0.00267181 0.00811284 0.0027205 0.0285643 0.00337658 0.0171271 0.00472456 0.0301828 0.00578359 0.0189983 0.00645577 0.0514163
94 2 Si -2.75928 16.9724 4.4844 2.4 1 0.00402933 0.00364741 0.00163478 0.00456397 0.0027986 0.0080982 0.00298357 0.0218704 0.00273387 0.00779557 0.00278189 0.0280605 0.0036346 0.0171268 0.00449111 0.029417 0.00522408 0.0185752 0.00616548 0.0523292
95 3 O -2.81617 15.3592 4.4844 -1.2 1 0.00419797 0.00402434 0.0018046 0.00445198 0.00289605 0.0077642 0.0030682 0.0209582 0.00265305 0.00751869 0.00233785 0.0286207 0.00370464 0.0162344 0.00417102 0.0302139 0.00595085 0.0187183 0.00680694 0.0515359
96 3 O 0.862762 17.9465 4.4844 -1.2 1 0.00390696 0.0038748 0.0016515 0.00471851 0.00299569 0.0087699 0.00261253 0.022174 0.00254547 0.00779151 0.00265282 0.0284411 0.00369198 0.0169763 0.00422651 0.0292509 0.00571518 0.0187151 0.00620649 0.0522268
97 3 O -2.0185 17.6786 3.18632 -1.2 1 0.00382506 0.00338731 0.00166417 0.00398987 0.00253035 0.0078545 0.00239619 0.0221683 0.00227291 0.00767184 0.00215391 0.0275424 0.00331584 0.0166193 0.00424857 0.0295839 0.00489409 0.0175249 0.00541514 0.0515444
98 3 O -2.06164 17.6786 5.78248 -1.2 1 0.00444819 0.00410687 0.00153669 0.00465025 0.00265542 0.00741409 0.00237712 0.022046 0.00235767 0.00783881 0.00278045 0.0275018 0.00331542 0.0174741 0.00484962 0.0305671 0.00604688 0.0204951 0.00646378 0.0540498
99 1 Mg 1.39817 16.6215 2.9896 1.2 1 0.00329813 0.00346155 0.00171284 0.00459662 0.00257439 0.00857384 0.00278424 0.0211606 0.00259576 0.0079524 0.00199075 0.0287318 0.00272553 0.0167472 0.00308838 0.0293821 0.00421042 0.0169208 0.00447342 0.0504065
100 1 Mg 4.20062 16.5802 4.4844 1.2 1 0.0036487 0.00375131 0.0018054 0.0046161 0.00276397 0.00805467 0.002631 0.0216615 0.00303296 0.00767309 0.00309149 0.0283103 0.00352272 0.0173216 0.00547982 0.0296894 0.00648396 0.0189245 0.00626019 0.0521277
101 2 Si 2.37796 18.645 4.4844 2.4 1 0.00374519 0.0034396 0.00170091 0.00467595 0.00287468 0.0083081 0.0030243 0.0220516 0.00255732 0.00782105 0.00272818 0.0277294 0.00351544 0.0173318 0.00435232 0.0290983 0.00530125 0.0180275 0.0057534 0.0531076
102 3 O 2.39434 20.2583 4.4844 -1.2 1 0.00395473 0.00393356 0.00152423 0.00435607 0.0027244 0.00724015 0.00262848 0.0213113 0.00276488 0.00718676 0.00193404 0.0281392 0.00308575 0.0169079 0.00396991 0.0296571 0.00573175 0.0180931 0.00675691 0.052728
103 3 O -4.24274 17.671 4.4844 -1.2 1 0.00348461 0.00398813 0.00175356 0.00460669 0.00276999 0.00893285 0.00293926 0.0221506 0.00281628 0.00788839 0.00253609 0.0284325 0.00340779 0.0167973 0.00448543 0.0295344 0.0061408 0.0191392 0.00664558 0.0522084
104 3 O 3.08659 17.9389 3.18632 -1.2 1 0.00369637 0.00321145 0.00151677 0.00414439 0.0026396 0.00807868 0.00209212 0.0218985 0.00223294 0.00784717 0.00236037 0.0275372 0.00322651 0.0166289 0.00431985 0.0294457 0.00527187 0.0175759 0.00530454 0.0514393
105 1 Mg 1.44478 16.6215 0 1.2 1 0.00223209 0.00290194 0.00108311 0.00436644 0.00123955 0.00906707 0.00111012 0.0213722 0.00137146 0.00811356 0.00144942 0.0285064 0.00222417 0.0157502 0.00219475 0.0292041 0.00270344 0.0160932 0.00281702 0.0486971
106 3 O 3.0436 17.9389 5.78248 -1.2 1 0.00342144 0.00423434 0.00178757 0.00503256 0.00262608 0.00744344 0.0024896 0.0220575 0.00237997 0.00794751 0.00312113 0.0273865 0.00377285 0.0170069 0.00463254 0.0305196 0.00606417 0.0208178 0.00628574 0.0540927
107 1 Mg -1.40524 16.6628 1.4948 1.2 1 0.00190579 0.00324866 0.00138105 0.00432411 0.00150973 0.00875565 0.00183538 0.0221391 0.00173527 0.00810861 0.00172687 0.0281622 0.0030811 0.0166966 0.00281774 0.0291629 0.00296171 0.0166369 0.00317838 0.0495625
108 2 Si 0.420358 14.5979 1.4948 2.4 1 0.00161715 0.00306345 0.00159246 0.00485177 0.00198545 0.00919437 0.00190901 0.0213741 0.0014908 0.00821745 0.00148687 0.0284265 0.00283721 0.0164327 0.00332804 0.0288182 0.00351004 0.0164928 0.00342037 0.0493563
109 3 O 0.408732 12.9847 1.4948 -1.2 1 0.00115462 0.00322838 0.00144996 0.00490203 0.00189521 0.00924819 0.00146189 0.0211766 0.0021111 0.00840915 0.00153046 0.0290451 0.00326558 0.016072 0.00287426 0.0297581 0.00334081 0.0170909 0.00354224 0.049239
110 3 O 7.03923 15.572 1.4948 -1.2 1 0.00200265 0.0033797 0.00140808 0.00433784 0.00185407 0.00835901 0.00228611 0.0216883 0.00207855 0.00800596 0.0015882 0.0290913 0.00261683 0.0163249 0.00298971 0.0295442 0.00342933 0.0167504 0.00387155 0.0495517
111 3 O -0.248332 15.3041 0.196716 -1.2 1 0.00168316 0.0029549 0.00114109 0.00439767 0.000969496 0.00912046 0.00186044 0.0211835 0.00130492 0.00823148 0.00158178 0.0279657 0.00272548 0.0160227 0.00353576 0.0291924 0.00281391 0.0161873 0.00285598 0.0489057
112 3 O -0.289436 15.3041 2.79288 -1.2 1 0.00367215 0.00357044 0.00144169 0.00426857 0.00239828 0.00885778 0.00199762 0.0219205 0.00183664 0.00855887 0.00193642 0.0275069 0.00298536 0.0168085 0.00364941 0.0294233 0.00458674 0.0176882 0.00469144 0.0504278
113 1 Mg 6.59566 18.996 0 1.2 1 0.00114337 0.00305336 0.0014934 0.00417542 0.000874139 0.0086478 0.00106006 0.0218513 0.00115501 0.00779651 0.0011923 0.0281045 0.00185756 0.0163575 0.00221169 0.0286219 0.00293003 0.0158398 0.00281216 0.0486287
114 1 Mg 3.85574 23.7037 1.4948 1.2 1 0.00185715 0.00276016 0.00120072 0.00401047 0.00157519 0.00740854 0.0012467 0.0229747 0.00182327 0.00735044 0.00206869 0.0269093 0.00242289 0.017683 0.00379492 0.0283072 0.00309086 0.0170229 0.00356253 0.0510142
115 2 Si 5.66125 21.0195 1.4948 2.4 1 0.0021604 0.00268624 0.00113872 0.00399184 0.00196292 0.00810607 0.00155404 0.0217628 0.00134942 0.00738844 0.00134382 0.0279059 0.00234154 0.0172718 0.00268379 0.0280044 0.00358071 0.015628 0.00404377 0.050292
116 3 O 5.72074 22.6328 1.4948 -1.2 1 0.00215447 0.00273961 0.00153255 0.00390433 0.00181632 0.00812132 0.00165087 0.0221967 0.00195251 0.00715929 0.00124367 0.027716 0.00197229 0.017384 0.00274033 0.0282207 0.0030971 0.0161487 0.0037634 0.0503371
117 3 O 2.03867 20.0455 1.4948 -1.2 1 0.00216227 0.00314632 0.00131055 0.0043082 0.00186152 0.00784869 0.0020384 0.0221112 0.00226455 0.00738509 0.00150002 0.0284391 0.00191664 0.0172556 0.00246773 0.0288719 0.00343579 0.0159825 0.00346585 0.0504407
118 3 O 4.96004 20.3134 0.196716 -1.2 1 0.00166452 0.0024372 0.00143952 0.00403434 0.00127858 0.00826889 0.000978833 0.0216507 0.00107668 0.00745915 0.00154512 0.0275828 0.00272006 0.0166169 0.0039778 0.0285875 0.00306351 0.0152246 0.00281477 0.0494145
119 1 Mg 6.55057 18.996 2.9896 1.2 1 0.002683 0.00329236 0.00120423 0.00410271 0.00245803 0.00816072 0.00285455 0.0211862 0.00247143 0.00782831 0.00189635 0.0287831 0.00282122 0.0170455 0.00291814 0.0288148 0.00387486 0.0168177 0.00477421 0.0507104