ITEM: TIMESTEP
61000
ITEM: NUMBER OF ATOMS
10500
ITEM: BOX BOUNDS xy xz yz pp pp pp
0	15.2977	5.09925
0	118.725	0
0	89.688	0
ITEM: ATOMS id type element xu yu zu q Q_1 Q_2 Q_3 Q_4 Q_5 Q_6 Q_7 Q_8 Q_9 Q_10 Q_11 Q_12 Q_13 Q_14 Q_15 Q_16 Q_17 Q_18 Q_19 Q_20 Q_21
1 1 Mg 6.2404 -6.37941e-06 0 1.2 1 0.00184992 0.0042616 0.00118085 0.00454981 0.00139894 0.00559552 0.00209661 0.0159554 0.0021251 0.00550078 0.00211587 0.0219053 0.00237814 0.013649 0.00327977 0.0206193 0.0039197 0.0138807 0.00409316 0.0407595
2 1 Mg 3.46349 4.70768 1.4948 1.2 1 0.0019547 0.00304654 0.00158797 0.00414057 0.00205736 0.00600464 0.00356091 0.0186066 0.00296296 0.00675219 0.00274739 0.0258252 0.00315239 0.0133891 0.00434412 0.0250097 0.00528002 0.0169229 0.00587685 0.044275
3 2 Si 5.2885 2.02354 1.4948 2.4 1 0.00147646 0.00304931 0.00214413 0.00416049 0.0018407 0.0054824 0.00241788 0.0166299 0.00258674 0.00592157 0.00187658 0.0231398 0.00264142 0.0133529 0.00344022 0.0214245 0.00386715 0.0150545 0.00412413 0.0412906
4 3 O 5.33628 3.63678 1.4948 -1.2 1 0.00145471 0.00252783 0.0018068 0.00453413 0.00212144 0.00613933 0.00271608 0.0176084 0.00245089 0.006534 0.00183017 0.0253557 0.00247703 0.0133073 0.00414363 0.0238969 0.00498666 0.0163325 0.00576856 0.0431652
5 3 O 1.67294 1.04952 1.4948 -1.2 1 0.00244134 0.00342195 0.00202662 0.00402071 0.00143239 0.00563416 0.00249519 0.0167446 0.00239818 0.00584986 0.00198254 0.022754 0.00264678 0.0127683 0.00340035 0.0219177 0.00463896 0.0154381 0.00473092 0.0404299
6 3 O 4.59532 1.31737 0.196716 -1.2 1 0.00185511 0.00302924 0.00212058 0.00405088 0.00208059 0.00565792 0.00215672 0.0167819 0.00263407 0.00593328 0.00187749 0.022591 0.00289002 0.0127645 0.00378181 0.0214669 0.00400857 0.0144584 0.00458629 0.0412291
7 1 Mg 6.18956 -6.37941e-06 2.9896 1.2 1 0.00129154 0.00418377 0.0015195 0.00408422 0.00142464 0.00538013 0.00242756 0.0159119 0.00283441 0.00544818 0.00162955 0.0223459 0.002787 0.0131293 0.00362715 0.0206446 0.00440755 0.0144145 0.00490215 0.0389213
8 3 O 4.55118 1.31737 2.79288 -1.2 1 0.00179399 0.00414634 0.00161391 0.00402811 0.00172494 0.00538172 0.00267201 0.0168141 0.00244771 0.006575 0.00214927 0.0217106 0.00333914 0.0121365 0.00345894 0.0212636 0.00495966 0.0154434 0.00536595 0.0400911
9 1 Mg -1.20682 0.0413099 4.4844 1.2 1 0.000366815 0.00274512 0.00179771 0.00449298 0.00148213 0.00516202 0.00213958 0.0159776 0.00239589 0.00580641 0.00197649 0.022462 0.0030448 0.01142 0.00363039 0.0204989 0.00508098 0.0154412 0.00527106 0.0383444
10 2 Si -3.0337 2.72544 4.4844 2.4 1 0.000558342 0.00342216 0.00173585 0.00463368 0.00192679 0.00583404 0.00313803 0.0167196 0.00341374 0.00597566 0.00254437 0.0239384 0.00310589 0.0128072 0.00440349 0.0222017 0.00572134 0.0174877 0.00661883 0.0401125
11 3 O -3.08099 1.11221 4.4844 -1.2 1 0.000463128 0.0035818 0.00168975 0.00405798 0.00124028 0.00495606 0.00241265 0.0158947 0.00298497 0.00534433 0.00224239 0.0221101 0.00294342 0.0111978 0.00352821 0.0210095 0.00524161 0.0160111 0.00585816 0.0383464
12 3 O 0.582463 3.69946 4.4844 -1.2 1 0.00148106 0.00467139 0.00188986 0.00425154 0.0024235 0.00639866 0.00373896 0.017185 0.00346951 0.00631258 0.00304195 0.0245355 0.00394343 0.0123502 0.00443405 0.0240392 0.00714023 0.0185641 0.00812588 0.0417809
13 3 O -2.29524 3.43162 3.18632 -1.2 1 0.00109332 0.00309393 0.00256608 0.00431033 0.00208882 0.00577164 0.0028907 0.017876 0.00322926 0.00636859 0.00267172 0.0244495 0.00308103 0.0126512 0.00472393 0.0238743 0.00618312 0.0177444 0.00682164 0.0421976
14 3 O -2.34216 3.43162 5.78248 -1.2 1 0.00101794 0.00424685 0.000846939 0.00477082 0.00242177 0.00544832 0.00321415 0.0170918 0.00304871 0.00655923 0.00297968 0.0232684 0.00416637 0.0119471 0.00459448 0.0230553 0.00657121 0.0193646 0.00743498 0.0403998
15 1 Mg 1.12778 2.37449 2.9896 1.2 1 0.0017272 0.00380006 0.00222724 0.00426665 0.00223876 0.00566489 0.00303716 0.0166595 0.00269027 0.00596315 0.00222953 0.023362 0.00310862 0.0126797 0.00361127 0.0217039 0.00498186 0.0162685 0.00561382 0.0408064
16 1 Mg 3.92855 2.33318 4.4844 1.2 1 0.00168519 0.00433473 0.00125408 0.00428976 0.00163552 0.00538915 0.00352937 0.0168227 0.00312673 0.00586538 0.00290758 0.0227965 0.0035716 0.0130027 0.00510461 0.0215327 0.00672071 0.0170218 0.00707594 0.0403609
17 2 Si 2.09341 4.39804 4.4844 2.4 1 0.00152632 0.00425487 0.00172085 0.00417022 0.00284859 0.00570162 0.00390214 0.0182193 0.00359106 0.00651997 0.0032314 0.0249229 0.004369 0.0135649 0.00461617 0.02427 0.00679813 0.0186329 0.00808809 0.0438811
18 3 O 2.09991 6.01128 4.4844 -1.2 1 0.00211774 0.00463989 0.00150457 0.00420225 0.0030265 0.0063164 0.00351818 0.0191891 0.0026689 0.00668456 0.0029442 0.0267516 0.00376561 0.0138415 0.00475394 0.0270138 0.00677527 0.0194637 0.00813049 0.0457568
19 3 O -4.52137 3.42402 4.4844 -1.2 1 0.00119885 0.00371202 0.00196614 0.00453372 0.0022268 0.00663272 0.00331945 0.0169577 0.00334528 0.00592927 0.00310692 0.023853 0.0036567 0.0125345 0.00419148 0.0224642 0.0064108 0.0175934 0.00763303 0.0413696
20 3 O 2.80834 3.69187 3.18632 -1.2 1 0.00158536 0.00364357 0.00141412 0.00369307 0.00200749 0.00566252 0.00319542 0.017378 0.00313107 0.00619027 0.0027393 0.0242244 0.00345101 0.0126173 0.00494532 0.023571 0.00594247 0.0170988 0.00637926 0.0428134
21 1 Mg 1.17857 2.37449 0 1.2 1 0.00289197 0.00354223 0.00201154 0.00396906 0.00147432 0.00535221 0.00237873 0.0169011 0.00227065 0.00624239 0.00257726 0.0232824 0.00274879 0.0130232 0.00348418 0.0217032 0.00401023 0.0143985 0.00462064 0.0410892
22 3 O 2.76143 3.69187 5.78248 -1.2 1 0.00191981 0.00468184 0.00150153 0.00428383 0.00221841 0.00536056 0.00299415 0.017377 0.0033295 0.00676637 0.00259843 0.0229963 0.0045523 0.0124437 0.00534017 0.0226453 0.00690395 0.0184901 0.00773722 0.0411934
23 1 Mg -1.67381 2.41581 1.4948 1.2 1 0.00211149 0.00262398 0.00231767 0.00460841 0.00157864 0.00609265 0.00227041 0.0164885 0.00266887 0.00618141 0.00187625 0.0244538 0.00243676 0.0141773 0.00271755 0.0221124 0.00443329 0.0159161 0.00472801 0.0419908
24 2 Si 0.16286 0.350945 1.4948 2.4 1 0.00224494 0.00260257 0.0027531 0.00432216 0.00151168 0.00620869 0.00255982 0.0163365 0.00207233 0.00518327 0.00174408 0.022977 0.00234422 0.0135513 0.0031166 0.0207469 0.00470798 0.0146115 0.00434188 0.0405083
25 3 O 0.15972 -1.26229 1.4948 -1.2 1 0.002042 0.00277893 0.00305739 0.00433073 0.00190387 0.0057162 0.00236268 0.0161364 0.00193085 0.00538448 0.00252132 0.0224181 0.00276494 0.0137091 0.00298295 0.0217578 0.00409096 0.0144503 0.00391687 0.0406779
26 3 O 6.77654 1.32496 1.4948 -1.2 1 0.00207606 0.00356384 0.00165259 0.00432681 0.00147329 0.00589175 0.00223823 0.0165793 0.00248102 0.00544282 0.00172553 0.023789 0.0026891 0.0135238 0.00357426 0.02177 0.00452468 0.0150877 0.00437883 0.041023
27 3 O -0.508028 1.05712 0.196716 -1.2 1 0.00234062 0.00277753 0.00319867 0.00392281 0.00149741 0.00557006 0.00204301 0.0168733 0.00164005 0.00647147 0.00219077 0.0221007 0.00265806 0.0127694 0.00319093 0.021147 0.00424533 0.0148424 0.00423995 0.0402073
28 3 O -0.552171 1.05712 2.79288 -1.2 1 0.00143568 0.00231046 0.00267967 0.00425576 0.00153512 0.00587776 0.00222 0.016139 0.00257951 0.00612167 0.00147756 0.0226899 0.00272103 0.0116716 0.00389818 0.0215303 0.0054486 0.0156876 0.00507606 0.0395642
29 1 Mg 6.31713 4.74899 0 1.2 1 0.00192671 0.00255067 0.00203004 0.00446351 0.00239536 0.00624565 0.00317232 0.0178641 0.0028221 0.00696107 0.00209154 0.0254875 0.00270409 0.0133689 0.00394356 0.0245631 0.00457671 0.0161637 0.00605105 0.0432186
30 1 Mg 3.54847 9.45668 1.4948 1.2 1 0.000817087 0.00320368 0.00196338 0.00477397 0.00205396 0.00754756 0.00319796 0.0214269 0.00192732 0.00834933 0.00224768 0.0285096 0.00311141 0.0154238 0.00345816 0.0291279 0.0041802 0.0182272 0.00383632 0.0491436
31 2 Si 5.36879 6.77254 1.4948 2.4 1 0.000825762 0.0028024 0.00184936 0.00484393 0.00268085 0.00691217 0.00387824 0.0195309 0.0027612 0.00758444 0.00248131 0.0277896 0.00314163 0.0149515 0.00388366 0.0267184 0.00460444 0.0171779 0.00522022 0.0470995
32 3 O 5.41937 8.38578 1.4948 -1.2 1 0.00066456 0.00288822 0.0016124 0.00484317 0.00223331 0.00778991 0.00332366 0.0208839 0.00224067 0.00815603 0.00245223 0.0290267 0.00229253 0.0153684 0.00268105 0.0290044 0.00442583 0.0174846 0.00482101 0.0484122
33 3 O 1.75158 5.79852 1.4948 -1.2 1 0.00153592 0.00323902 0.00168361 0.0039127 0.00279138 0.00605293 0.00330773 0.0193391 0.0028733 0.00717819 0.00267853 0.0280538 0.00291716 0.0151108 0.00362405 0.0266369 0.00540158 0.0175014 0.00584834 0.0460848
34 3 O 4.67421 6.06637 0.196716 -1.2 1 0.00181447 0.00243037 0.00166992 0.00456826 0.00199397 0.00689799 0.00302905 0.0197201 0.00252698 0.00803346 0.00218491 0.026366 0.00351905 0.0140472 0.00425808 0.0265527 0.00451746 0.016609 0.00538731 0.0458677
35 1 Mg 6.26654 4.74899 2.9896 1.2 1 0.00186372 0.0029355 0.00204357 0.00479844 0.00257463 0.00626785 0.00371897 0.0180225 0.00376066 0.00687113 0.00218435 0.0260944 0.00352502 0.0141736 0.00487007 0.0245268 0.00598341 0.017645 0.00721867 0.0439581
36 3 O 4.63043 6.06637 2.79288 -1.2 1 0.00180365 0.00326854 0.00165017 0.00481462 0.00248503 0.00667722 0.00342411 0.0193992 0.00332395 0.00762027 0.0024383 0.0262474 0.00380626 0.0141377 0.00444078 0.0267335 0.00577205 0.0182824 0.00704792 0.0457134
37 1 Mg -1.12976 4.79031 4.4844 1.2 1 0.00109408 0.00399505 0.00170181 0.00463104 0.0022992 0.00604023 0.00326453 0.0178256 0.00358209 0.00689945 0.00304907 0.0253187 0.00405282 0.0136658 0.00479078 0.0249365 0.00765639 0.0191454 0.00797803 0.0438161
38 2 Si -2.9517 7.47444 4.4844 2.4 1 0.0022638 0.00388415 0.00150453 0.00511296 0.00277095 0.00654184 0.0038479 0.0202745 0.00298579 0.00745496 0.00330157 0.0274289 0.00436925 0.0153873 0.00574754 0.0275185 0.00677589 0.0192566 0.00788941 0.0475947
39 3 O -3.00198 5.86121 4.4844 -1.2 1 0.00169569 0.00433052 0.00122859 0.00490031 0.00297245 0.00618703 0.00415046 0.0188166 0.00352666 0.00724797 0.00301881 0.02578 0.00435881 0.0136281 0.0049101 0.0263394 0.00688852 0.0194915 0.00843609 0.0454837
40 3 O 0.666315 8.44846 4.4844 -1.2 1 0.00294739 0.00471756 0.00138332 0.00504644 0.00296487 0.00735392 0.00301046 0.0210316 0.00299867 0.00747254 0.00315491 0.0282039 0.00430636 0.0150989 0.00443172 0.0288784 0.00633585 0.019862 0.00811659 0.0488266
41 3 O -2.21213 8.18062 3.18632 -1.2 1 0.00178538 0.00398033 0.00172826 0.00460629 0.00260592 0.00637623 0.0030079 0.0207366 0.00251608 0.00795341 0.00294511 0.0278046 0.00397253 0.0153954 0.00480737 0.0285629 0.00579848 0.0189036 0.00640517 0.0487313
42 3 O -2.25864 8.18062 5.78248 -1.2 1 0.00346943 0.00441839 0.0016798 0.00488874 0.00275203 0.00593962 0.00304155 0.020549 0.00233241 0.00775727 0.00340533 0.0267103 0.00409443 0.0156425 0.00554912 0.0289516 0.007213 0.0208534 0.00816807 0.0492558
43 1 Mg 1.20893 7.12349 2.9896 1.2 1 0.00117458 0.00391027 0.00175963 0.00442186 0.00294876 0.006622 0.00387077 0.0196948 0.00286395 0.00783924 0.00276459 0.0280396 0.00345324 0.0152176 0.00375219 0.0272393 0.00561407 0.0183449 0.00659638 0.0471352
44 1 Mg 4.00982 7.08218 4.4844 1.2 1 0.00196752 0.00394538 0.00160912 0.00491331 0.00267687 0.00635966 0.00394006 0.0201606 0.00330389 0.007155 0.00327892 0.0272766 0.0040753 0.0161008 0.00554667 0.0277446 0.00735384 0.0194184 0.00846338 0.047679
45 2 Si 2.17861 9.14704 4.4844 2.4 1 0.00266597 0.00430663 0.00162523 0.00504379 0.00287419 0.0072536 0.00348054 0.0212227 0.00263771 0.00764602 0.00287668 0.0278564 0.00427708 0.0158019 0.00427421 0.0295622 0.00580786 0.0199477 0.00707735 0.0505241
46 3 O 2.18828 10.7603 4.4844 -1.2 1 0.00349654 0.00425207 0.00193183 0.00483678 0.00270314 0.00709291 0.00294382 0.0207735 0.00233451 0.00763586 0.0021263 0.02836 0.00399119 0.0153289 0.00410383 0.0303478 0.00601706 0.0197727 0.00662436 0.0507842
47 3 O -4.43805 8.17302 4.4844 -1.2 1 0.00182972 0.00432843 0.00173487 0.00515327 0.00244079 0.00767995 0.00323446 0.0207803 0.00316841 0.00785521 0.00328992 0.0279749 0.00434619 0.0152433 0.00474256 0.0288629 0.00662902 0.0197454 0.0085634 0.0482388
48 3 O 2.89193 8.44087 3.18632 -1.2 1 0.00188497 0.00365519 0.00170574 0.00456685 0.00252927 0.00681875 0.003457 0.0205687 0.00283965 0.00814584 0.0028387 0.0275727 0.00386939 0.0154972 0.00444729 0.0287543 0.00579632 0.0189514 0.00607279 0.0488702
49 1 Mg 1.25915 7.12349 0 1.2 1 0.00212646 0.00263035 0.00156158 0.0040234 0.00179666 0.00707105 0.00285491 0.0201708 0.00280784 0.00804438 0.00230689 0.0277753 0.0032404 0.0141081 0.0031414 0.0275448 0.00432964 0.0173788 0.00430281 0.0467285
50 3 O 2.84547 8.44087 5.78248 -1.2 1 0.00317589 0.00443904 0.00142244 0.00517756 0.00253053 0.00670919 0.00325948 0.0208186 0.00285359 0.00797759 0.00322795 0.0267206 0.00486903 0.0156893 0.00495514 0.0291907 0.00622086 0.0212048 0.00742078 0.0496841
51 1 Mg -1.59284 7.16481 1.4948 1.2 1 0.00132039 0.00314886 0.0013125 0.00456487 0.00193895 0.00630806 0.00271958 0.01986 0.00293776 0.00769505 0.00194093 0.0279483 0.00333688 0.0152224 0.00346055 0.0271965 0.00454978 0.0176188 0.00559497 0.0469208
52 2 Si 0.240329 5.09994 1.4948 2.4 1 0.00164641 0.0033956 0.00178499 0.00393674 0.00217097 0.00664438 0.00305868 0.0188326 0.00307594 0.00725586 0.00229259 0.0262128 0.00271058 0.0142534 0.00399075 0.024783 0.00514523 0.0169341 0.00534889 0.0450071
53 3 O 0.234538 3.48671 1.4948 -1.2 1 0.0022318 0.00372149 0.00249931 0.00414976 0.00200926 0.00643248 0.0025343 0.0178179 0.00336236 0.00674964 0.00224452 0.0246117 0.00309756 0.0133896 0.00399426 0.0239227 0.00554141 0.0160953 0.00552628 0.0427005
54 3 O 6.85564 6.07396 1.4948 -1.2 1 0.00134102 0.00255153 0.0021613 0.00467944 0.00255764 0.00610475 0.00316862 0.0198303 0.00303076 0.00735787 0.00222106 0.0279528 0.00320294 0.0143046 0.00452756 0.0266699 0.00557965 0.0177166 0.00637756 0.0457146
55 3 O -0.429565 5.80612 0.196716 -1.2 1 0.00192741 0.0029209 0.00199911 0.00400364 0.00179706 0.00701275 0.00242362 0.0193322 0.00276944 0.00820004 0.00238796 0.0258851 0.00252946 0.0138468 0.00342478 0.0259245 0.00487539 0.016685 0.0056118 0.0455784
56 3 O -0.473377 5.80612 2.79288 -1.2 1 0.00142254 0.0034311 0.00180403 0.00440829 0.0024712 0.00659992 0.00320896 0.0192827 0.00312032 0.00799296 0.00290917 0.0259951 0.00385214 0.0142983 0.00429867 0.0260045 0.006397 0.0185951 0.00691244 0.0460185
57 1 Mg 6.40169 9.49799 0 1.2 1 0.000948335 0.00326551 0.00165061 0.00472648 0.00148742 0.00835431 0.00209625 0.0211303 0.0015626 0.0088881 0.0017807 0.0287776 0.00215218 0.014615 0.00234322 0.0296872 0.00338162 0.0179738 0.00353678 0.0480313
58 1 Mg 3.64209 14.2057 1.4948 1.2 1 0.0026541 0.00302711 0.00136381 0.00495638 0.00148235 0.00881999 0.00158519 0.021641 0.00171745 0.00861932 0.0020196 0.0281958 0.00219673 0.0161863 0.00284046 0.0297242 0.00349677 0.0170675 0.00342268 0.0493903
59 2 Si 5.45748 11.5215 1.4948 2.4 1 0.00168711 0.00322425 0.00171213 0.00482388 0.00176768 0.00828698 0.00232072 0.0210506 0.00143033 0.00820103 0.00166312 0.0288017 0.0023839 0.0160252 0.00297349 0.0294017 0.0039344 0.0171028 0.00357002 0.0494366
60 3 O 5.51101 13.1348 1.4948 -1.2 1 0.00243446 0.00315934 0.00147332 0.00493542 0.00145688 0.00914939 0.00194107 0.0211312 0.00168111 0.00863402 0.00138137 0.0292131 0.00172693 0.0160657 0.00259783 0.0300125 0.00370741 0.0167642 0.00355701 0.0490515
61 3 O 1.83851 10.5475 1.4948 -1.2 1 0.000917577 0.00350153 0.00182043 0.00499498 0.00198082 0.00776841 0.00255504 0.0215996 0.00178746 0.00836945 0.00205873 0.0293535 0.00236959 0.0156752 0.00283948 0.0299525 0.00412381 0.0179979 0.00349619 0.0495794
62 3 O 4.7611 10.8154 0.196716 -1.2 1 0.000507297 0.00285379 0.00173858 0.00472913 0.00151718 0.00852072 0.00228878 0.0212662 0.00146004 0.00853941 0.0019218 0.0282728 0.00272967 0.015424 0.00338925 0.0296753 0.00328222 0.0171717 0.00318372 0.048902
63 1 Mg 6.35203 9.49799 2.9896 1.2 1 0.00130894 0.00369484 0.00167066 0.00495369 0.00260375 0.00760811 0.00340533 0.0204113 0.0029368 0.00823719 0.0019907 0.0290444 0.00357785 0.0158211 0.00310122 0.0291843 0.00438425 0.0185199 0.00539014 0.0489184
64 3 O 4.71833 10.8154 2.79288 -1.2 1 0.00222847 0.00362583 0.00189647 0.00468492 0.00212387 0.00820729 0.00234578 0.0213661 0.00211424 0.00882336 0.00202557 0.0281362 0.00330709 0.0156306 0.00373052 0.030163 0.00525777 0.0184912 0.00540758 0.050119
65 1 Mg -1.0438 9.53931 4.4844 1.2 1 0.00361077 0.00471653 0.00166237 0.00490817 0.00284371 0.00660622 0.00269363 0.0207696 0.00290003 0.00791347 0.00270094 0.0281984 0.00378199 0.01624 0.0045128 0.029482 0.00621379 0.0198691 0.00705485 0.0500172
66 2 Si -2.8604 12.2234 4.4844 2.4 1 0.0036585 0.00439129 0.00179652 0.00470724 0.00253659 0.00768545 0.00301342 0.0215483 0.00265398 0.00819076 0.00232642 0.0277877 0.00390854 0.0162433 0.0041491 0.0304063 0.00564403 0.0193012 0.00648734 0.0512351
67 3 O -2.91391 10.6102 4.4844 -1.2 1 0.00340008 0.0044192 0.00188593 0.00475088 0.00268719 0.00714876 0.00317736 0.0204826 0.00264864 0.00754929 0.0021947 0.0284039 0.00390341 0.0155262 0.00409108 0.0305515 0.00559073 0.0196211 0.00678262 0.0504557
68 3 O 0.7596 13.1975 4.4844 -1.2 1 0.00407848 0.00411176 0.00168845 0.00528395 0.0028923 0.00853713 0.00267593 0.0220215 0.00268788 0.00823433 0.00266082 0.0281325 0.00386755 0.0161622 0.0038972 0.030104 0.00571108 0.0194947 0.0068949 0.0508573
69 3 O -2.12001 12.9296 3.18632 -1.2 1 0.00371808 0.00396888 0.0016808 0.00448561 0.00242734 0.00765427 0.00205383 0.02165 0.00230318 0.00812649 0.00224474 0.0275913 0.00323753 0.0161251 0.00441454 0.0306155 0.00513757 0.0185091 0.00536719 0.0506962
70 3 O -2.16532 12.9296 5.78248 -1.2 1 0.00479628 0.00487197 0.00173073 0.00469863 0.00279277 0.00682208 0.00216654 0.0215604 0.00222259 0.00779499 0.00280373 0.026899 0.00395226 0.0164338 0.00502682 0.0313019 0.00593869 0.020875 0.00648444 0.0523096
71 1 Mg 1.29891 11.8725 2.9896 1.2 1 0.00275557 0.00361494 0.00179948 0.00503632 0.00239333 0.00807839 0.00280768 0.0210488 0.00238051 0.00840253 0.0019102 0.0289874 0.0031637 0.0160176 0.00323118 0.0300096 0.00457066 0.0179225 0.00510083 0.0497835
72 1 Mg 4.10033 11.8312 4.4844 1.2 1 0.00320115 0.00384898 0.00205017 0.00463016 0.00260108 0.007437 0.00268408 0.0212336 0.00246806 0.00791736 0.00258467 0.028286 0.00351241 0.0168803 0.00470592 0.0302877 0.00651146 0.0193333 0.00628935 0.0511989
73 2 Si 2.27333 13.896 4.4844 2.4 1 0.00395329 0.00344453 0.00160005 0.00530606 0.0029729 0.00798472 0.00299244 0.0214851 0.00243854 0.00785847 0.00262776 0.0277046 0.00339129 0.0164009 0.00414151 0.030192 0.0054568 0.0187118 0.00656343 0.051699
74 3 O 2.28634 15.5093 4.4844 -1.2 1 0.00439806 0.00363668 0.00152936 0.00486118 0.00298591 0.00735739 0.00278046 0.0206206 0.00226934 0.00760872 0.00210832 0.0280765 0.00336596 0.0158853 0.00396434 0.0304933 0.00551406 0.0183317 0.00631558 0.0506632
75 3 O -4.34533 12.922 4.4844 -1.2 1 0.00340772 0.00437663 0.00190181 0.00472511 0.00266106 0.0084628 0.00270682 0.0216596 0.00270047 0.00807174 0.00246823 0.0281039 0.00396637 0.0160787 0.00453304 0.0305444 0.00647053 0.0197281 0.00694746 0.0510175
76 3 O 2.98455 13.1899 3.18632 -1.2 1 0.00341425 0.00329912 0.00160157 0.00469715 0.00247345 0.00787619 0.00214494 0.021528 0.00215987 0.00832597 0.00213383 0.0277998 0.00319121 0.0159381 0.00391157 0.0302078 0.00530489 0.0181843 0.00578114 0.050424
77 1 Mg 1.34779 11.8725 0 1.2 1 0.000921599 0.00254771 0.00128933 0.00493467 0.00131402 0.00888553 0.0016394 0.021243 0.00126199 0.00910309 0.00192285 0.0289779 0.00263673 0.0150186 0.00256917 0.0303142 0.00288291 0.0173252 0.00305871 0.0483689
78 3 O 2.93934 13.1899 5.78248 -1.2 1 0.0039326 0.00419705 0.00183831 0.00500455 0.00260042 0.00702673 0.0026598 0.0215967 0.00248684 0.00802612 0.00314853 0.0265803 0.00415275 0.0164432 0.0045407 0.0311994 0.00581663 0.0210514 0.0062695 0.0522332
79 1 Mg -1.50344 11.9138 1.4948 1.2 1 0.00156276 0.00368985 0.001417 0.00477296 0.00142119 0.00840016 0.00185514 0.0215056 0.00234778 0.00839493 0.00148872 0.0286804 0.00333215 0.0160106 0.00307385 0.0300186 0.00337036 0.0175003 0.00346756 0.0492475
80 2 Si 0.326006 9.84894 1.4948 2.4 1 0.000464825 0.00329228 0.00147628 0.00496855 0.0020211 0.00811736 0.00219675 0.021022 0.00206268 0.00837881 0.00163362 0.0286564 0.00275942 0.0155477 0.00320488 0.0290454 0.00370072 0.0178267 0.00331554 0.048849
81 3 O 0.317364 8.23571 1.4948 -1.2 1 0.000870166 0.00350284 0.00135744 0.00449912 0.00199348 0.00758006 0.00217306 0.0202661 0.0025042 0.00791253 0.00190841 0.0287966 0.00331153 0.0154482 0.00354826 0.0285773 0.00440404 0.0178285 0.00441302 0.0479955
82 3 O 6.94307 10.823 1.4948 -1.2 1 0.00125597 0.00359326 0.00151119 0.0047246 0.00194833 0.00779142 0.0026781 0.0218468 0.00217249 0.00829419 0.00141881 0.0293823 0.00279116 0.0156699 0.00306449 0.0300452 0.00373812 0.0180023 0.00396535 0.0495565
83 3 O -0.343122 10.5551 0.196716 -1.2 1 0.000420467 0.0030279 0.0014552 0.00479229 0.00143208 0.00845881 0.00191143 0.0212899 0.00185291 0.00877595 0.0019523 0.02814 0.00321239 0.0152781 0.00366144 0.0296245 0.00349103 0.0174093 0.00322641 0.0487634
84 3 O -0.385966 10.5551 2.79288 -1.2 1 0.00292003 0.00408988 0.00128648 0.00485379 0.0024875 0.00812402 0.00216173 0.0215345 0.00208773 0.00891424 0.00235228 0.0277472 0.00365741 0.0157048 0.00383839 0.0300622 0.00509176 0.0186237 0.00504748 0.0500234
85 1 Mg 6.49448 14.247 0 1.2 1 0.000979275 0.00312129 0.00139438 0.00505331 0.000883878 0.00922853 0.00123836 0.021279 0.00120266 0.00859519 0.00133253 0.0288293 0.00153345 0.0156226 0.00232645 0.0301728 0.0028142 0.0165987 0.0026246 0.0482186
86 1 Mg 3.74457 18.9547 1.4948 1.2 1 0.00352498 0.00307871 0.000889406 0.00443986 0.00155054 0.00872325 0.00118833 0.0221283 0.00177843 0.00782534 0.00204111 0.0275138 0.00228451 0.0164995 0.00313287 0.029079 0.00368406 0.016487 0.00345311 0.0494075
87 2 Si 5.55495 16.2705 1.4948 2.4 1 0.00324769 0.00286192 0.00130451 0.00490979 0.00158133 0.00897228 0.00137843 0.0214172 0.00123148 0.00791624 0.00111589 0.0283728 0.00205106 0.0164087 0.00278375 0.0290773 0.0035818 0.0160969 0.00357127 0.0491537
88 3 O 5.6115 17.8838 1.4948 -1.2 1 0.00367014 0.00299666 0.00120573 0.00480683 0.00151157 0.00932674 0.00134183 0.0216241 0.00169668 0.00773388 0.00135992 0.0286192 0.00195526 0.0165544 0.00268123 0.029177 0.00328359 0.0158665 0.0034748 0.0490388
89 3 O 1.93416 15.2965 1.4948 -1.2 1 0.00297158 0.00282908 0.00118893 0.0048358 0.00165194 0.00843827 0.00177773 0.021802 0.00183624 0.00804447 0.0013158 0.0288238 0.00171208 0.0161189 0.00276029 0.030006 0.00376482 0.016683 0.00345737 0.0495595
90 3 O 4.85636 15.5644 0.196716 -1.2 1 0.00198032 0.00243875 0.001207 0.00498342 0.00112191 0.0092179 0.0012755 0.0214794 0.00106405 0.00819863 0.00170345 0.0280477 0.00249056 0.0162226 0.00334307 0.0295429 0.00302397 0.0160638 0.0028429 0.048875
91 1 Mg 6.44662 14.247 2.9896 1.2 1 0.00273644 0.00368214 0.0014784 0.00468601 0.00230804 0.00853095 0.00272997 0.0205411 0.00246202 0.00847176 0.00160169 0.0290295 0.00282849 0.0164622 0.002776 0.0298559 0.00407507 0.0175011 0.00452779 0.0494419
92 3 O 4.81537 15.5644 2.79288 -1.2 1 0.00400987 0.00316969 0.00131229 0.00469822 0.00221615 0.0089457 0.00170207 0.0215186 0.00168457 0.0083206 0.00162287 0.0276777 0.00253569 0.0162234 0.00343342 0.0298664 0.00468339 0.0171948 0.00489441 0.0498139
93 1 Mg -0.948271 14.2883 4.4844 1.2 1 0.00448637 0.00410627 0.001437 0.00471968 0.00269354 0.00767355 0.00247678 0.0213305 0.00263346 0.00803551 0.00272005 0.027778 0.00312664 0.0168198 0.00504797 0.0305684 0.00568767 0.018873 0.00645404 0.0511254
94 2 Si -2.75928 16.9724 4.4844 2.4 1 0.00438427 0.00417163 0.00155231 0.00487205 0.00268633 0.00812893 0.00258081 0.0213336 0.00244391 0.00761297 0.00256737 0.0273079 0.00345234 0.0167938 0.00465166 0.0295271 0.00521959 0.018209 0.0056764 0.0510145
95 3 O -2.81617 15.3592 4.4844 -1.2 1 0.00444734 0.00426201 0.00158301 0.00453621 0.00292656 0.00767945 0.00262867 0.0207241 0.0025293 0.0074548 0.00215476 0.0280027 0.00359995 0.0158548 0.00414761 0.0304831 0.00562442 0.0185024 0.00637301 0.0508211
96 3 O 0.862762 17.9465 4.4844 -1.2 1 0.00446484 0.00380548 0.00130261 0.00493486 0.00287975 0.00847381 0.00241275 0.0218587 0.00237237 0.00768435 0.00240875 0.0279266 0.00352098 0.0167592 0.00438365 0.0294636 0.00566484 0.0182242 0.00615349 0.0505317
97 3 O -2.0185 17.6786 3.18632 -1.2 1 0.00435573 0.0036494 0.00161706 0.00453 0.00253966 0.0078339 0.00210566 0.0218453 0.0022556 0.00762524 0.00199744 0.027085 0.00318332 0.01638 0.00443374 0.0300032 0.00473999 0.0175431 0.00519614 0.0504188
98 3 O -2.06164 17.6786 5.78248 -1.2 1 0.0047387 0.00408938 0.0013132 0.00451088 0.00286094 0.00705292 0.0024447 0.0215582 0.00223452 0.00776841 0.00240739 0.0266673 0.00343946 0.0168952 0.00427665 0.0306853 0.00577148 0.0200822 0.00569389 0.0517184
99 1 Mg 1.39817 16.6215 2.9896 1.2 1 0.00378564 0.00333011 0.00115463 0.005005 0.00255897 0.00843896 0.00246663 0.0210761 0.00248494 0.00800905 0.00199247 0.0284576 0.00257249 0.0165499 0.00357949 0.0295275 0.00408674 0.0165709 0.00464823 0.0494445
100 1 Mg 4.20062 16.5802 4.4844 1.2 1 0.004125 0.00353702 0.00176826 0.00460419 0.00263857 0.00785956 0.00235793 0.0214197 0.00293604 0.00779853 0.00269603 0.027535 0.00326129 0.0172588 0.00521362 0.0296398 0.00607434 0.0181761 0.00573911 0.0506483
101 2 Si 2.37796 18.645 4.4844 2.4 1 0.00447304 0.00342365 0.00119181 0.00483704 0.00261204 0.00796482 0.00269022 0.0220173 0.0023017 0.00769184 0.00240192 0.0269946 0.00341587 0.0170859 0.00449675 0.0292007 0.00531147 0.0177707 0.00559997 0.0509749
102 3 O 2.39434 20.2583 4.4844 -1.2 1 0.00460624 0.00372281 0.00124845 0.00445129 0.00253272 0.00706102 0.00234706 0.0210089 0.00250104 0.00695969 0.00198012 0.027445 0.00307557 0.0164481 0.00396938 0.0298658 0.00590442 0.017985 0.0063746 0.0504162
103 3 O -4.24274 17.671 4.4844 -1.2 1 0.00406792 0.00408986 0.0014681 0.0046705 0.00259414 0.00865144 0.00231717 0.0217092 0.00262224 0.0077169 0.00228298 0.0279376 0.00356596 0.0165368 0.00484686 0.0296255 0.00595003 0.0185796 0.00599448 0.0501935
104 3 O 3.08659 17.9389 3.18632 -1.2 1 0.00441625 0.00317051 0.00118879 0.00447001 0.00251284 0.00785722 0.00201374 0.0217928 0.0021824 0.00771109 0.00196163 0.027221 0.00293978 0.0165619 0.00400775 0.0295847 0.00519312 0.0172029 0.00540096 0.0500199
105 1 Mg 1.44478 16.6215 0 1.2 1 0.00227552 0.00254155 0.000969286 0.00473755 0.00115306 0.0090925 0.00108574 0.021473 0.00139762 0.00822297 0.00145595 0.0285169 0.00203996 0.0158353 0.00210753 0.029407 0.00277773 0.0162478 0.00290467 0.0484254
106 3 O 3.0436 17.9389 5.78248 -1.2 1 0.00409434 0.00391872 0.00133876 0.0047004 0.00248111 0.00696204 0.0021423 0.0216658 0.00211031 0.00759287 0.00269383 0.0265731 0.00351222 0.0167624 0.00484806 0.0304376 0.00588189 0.0201532 0.00582091 0.051532
107 1 Mg -1.40524 16.6628 1.4948 1.2 1 0.00278398 0.00336548 0.00100229 0.00501036 0.00148126 0.00887188 0.00165853 0.0220767 0.00198766 0.00805644 0.00155255 0.0280583 0.00282041 0.0166927 0.00296043 0.029609 0.00288915 0.0165898 0.00331774 0.0491838
108 2 Si 0.420358 14.5979 1.4948 2.4 1 0.00253564 0.00290258 0.00127882 0.00517326 0.00180168 0.00928797 0.00167169 0.0212632 0.00156341 0.00811913 0.00131083 0.0283606 0.00247761 0.0163406 0.0033089 0.0290715 0.00332506 0.0164959 0.00326236 0.0491463
109 3 O 0.408732 12.9847 1.4948 -1.2 1 0.00218803 0.00315963 0.00130263 0.00513671 0.00171432 0.00926179 0.00142215 0.0211817 0.00216331 0.00838917 0.00130703 0.0289929 0.00271584 0.0160678 0.00281725 0.0300474 0.00305868 0.0169886 0.003429 0.0492763
110 3 O 7.03923 15.572 1.4948 -1.2 1 0.00291994 0.00328684 0.00122283 0.00486842 0.00180847 0.00836374 0.00206018 0.0217231 0.00202095 0.00800715 0.00136398 0.0290905 0.00214659 0.0163871 0.00266798 0.0298694 0.00337949 0.0167764 0.00378898 0.0493156
111 3 O -0.248332 15.3041 0.196716 -1.2 1 0.00211212 0.00265769 0.00123219 0.00496857 0.00101043 0.00911874 0.00170937 0.0212867 0.00142594 0.00817511 0.00160508 0.0278797 0.00267783 0.0158839 0.00360909 0.0294578 0.00290325 0.0160548 0.00288043 0.048728
112 3 O -0.289436 15.3041 2.79288 -1.2 1 0.00401396 0.00362509 0.00121513 0.00478404 0.00236329 0.00866599 0.00180007 0.0218019 0.00190522 0.00836327 0.00173116 0.0271512 0.00257636 0.0164132 0.00338951 0.0297514 0.00439049 0.0176375 0.00486793 0.0499533
113 1 Mg 6.59566 18.996 0 1.2 1 0.00208855 0.00298914 0.00119029 0.00481312 0.000684121 0.008774 0.00103658 0.0220954 0.00132966 0.0075712 0.00153442 0.0280403 0.00237265 0.016312 0.00250847 0.0289512 0.00282625 0.0160241 0.00278247 0.0484352
114 1 Mg 3.85574 23.7037 1.4948 1.2 1 0.00313242 0.00269853 0.000902164 0.00446332 0.00144343 0.00755188 0.00128358 0.0230653 0.0016282 0.00715612 0.00213391 0.0270641 0.00252879 0.0174371 0.00368013 0.0287605 0.00360169 0.0171099 0.00400543 0.0500223
115 2 Si 5.66125 21.0195 1.4948 2.4 1 0.00353497 0.00263831 0.000954574 0.00468266 0.00160684 0.00835519 0.00142644 0.0218616 0.00121615 0.00731954 0.00141626 0.027939 0.00248775 0.0172967 0.00282285 0.0283269 0.00343841 0.0159327 0.0040374 0.0496503
116 3 O 5.72074 22.6328 1.4948 -1.2 1 0.00357699 0.00243975 0.00122777 0.00452363 0.00148111 0.00824019 0.00161904 0.0223578 0.00174567 0.00710736 0.00139297 0.0278142 0.00229648 0.0172743 0.00299684 0.0285631 0.00341829 0.0164419 0.00398849 0.0496336
117 3 O 2.03867 20.0455 1.4948 -1.2 1 0.00340204 0.00322917 0.00102606 0.0048626 0.00154977 0.00795936 0.00175749 0.0221988 0.00190106 0.00728762 0.001503 0.0283161 0.00215672 0.0170377 0.00274055 0.0291514 0.00360131 0.0162044 0.0035969 0.049665
118 3 O 4.96004 20.3134 0.196716 -1.2 1 0.00268244 0.00261542 0.00118849 0.00472412 0.0010581 0.00865997 0.00106497 0.0219126 0.000999869 0.00733878 0.00147744 0.0276411 0.00271312 0.0165553 0.00378432 0.0289395 0.00307164 0.0156398 0.00304315 0.048984
119 1 Mg 6.55057 18.996 2.9896 1.2 1 0.00351945 0.00346146 0.00104781 0.00458585 0.00229407 0.0082741 0.00264345 0.0209261 0.00236854 0.00780414 0.00172022 0.0287405 0.0029604 0.0171799 0.00298253 0.0290075 0.00410015 0.0169562 0.00458287 0.0494253