ITEM: TIMESTEP
71600
ITEM: NUMBER OF ATOMS
10500
ITEM: BOX BOUNDS xy xz yz pp pp pp
0	15.2977	5.09925
0	118.725	0
0	89.688	0
ITEM: ATOMS id type element xu yu zu q Q_1 Q_2 Q_3 Q_4 Q_5 Q_6 Q_7 Q_8 Q_9 Q_10 Q_11 Q_12 Q_13 Q_14 Q_15 Q_16 Q_17 Q_18 Q_19 Q_20 Q_21
1 1 Mg 6.2404 -6.37941e-06 0 1.2 1 0.00140438 0.00434568 0.00122041 0.00426391 0.00125471 0.00565666 0.00195149 0.016073 0.00215069 0.00549098 0.002096 0.0215049 0.00281611 0.0133999 0.00363785 0.0208812 0.00394093 0.0137679 0.00392591 0.0408426
2 1 Mg 3.46349 4.70768 1.4948 1.2 1 0.00120069 0.00325509 0.00168156 0.00403045 0.00187018 0.00609286 0.00336787 0.018685 0.00279574 0.00678456 0.00284508 0.0256264 0.00330694 0.0139866 0.00441546 0.0250006 0.00550446 0.0165622 0.00546513 0.0440555
3 2 Si 5.2885 2.02354 1.4948 2.4 1 0.000688325 0.00316483 0.00205457 0.00398357 0.001779 0.00583833 0.0022817 0.0170169 0.00246707 0.00587119 0.00193813 0.022869 0.00288667 0.0133577 0.00379565 0.0215077 0.00391082 0.0147463 0.00384228 0.0413162
4 3 O 5.33628 3.63678 1.4948 -1.2 1 0.00087186 0.00279621 0.00173555 0.0043038 0.00186762 0.00634736 0.00271113 0.017878 0.0023222 0.00647163 0.00193112 0.0250426 0.00262258 0.0136307 0.00448402 0.0240016 0.00497161 0.0159428 0.00539 0.0428445
5 3 O 1.67294 1.04952 1.4948 -1.2 1 0.00187488 0.00330903 0.00211654 0.00388471 0.00145143 0.00584207 0.00236937 0.0169659 0.00231648 0.00573459 0.00189154 0.0225488 0.00271529 0.0127314 0.00343449 0.0220427 0.00464312 0.015119 0.00429138 0.0405073
6 3 O 4.59532 1.31737 0.196716 -1.2 1 0.00123495 0.00287344 0.00205301 0.00391752 0.00183537 0.00575633 0.00229086 0.0171129 0.00278629 0.00606457 0.00194469 0.0221131 0.0032959 0.0127716 0.00446944 0.021626 0.00409886 0.0143937 0.00443818 0.0410819
7 1 Mg 6.18956 -6.37941e-06 2.9896 1.2 1 0.00145274 0.00432799 0.00138004 0.00387369 0.0013249 0.00602148 0.00231872 0.0160799 0.00252744 0.00507005 0.00195284 0.0221312 0.00262238 0.0133377 0.00367161 0.0210369 0.00406702 0.014325 0.00426417 0.0394148
8 3 O 4.55118 1.31737 2.79288 -1.2 1 0.00147019 0.00388151 0.00180043 0.00382025 0.00190867 0.00590481 0.00251562 0.0170401 0.00246743 0.00628225 0.00222906 0.0215429 0.00338236 0.0121158 0.00376017 0.021595 0.00471119 0.0149529 0.00462742 0.0401469
9 1 Mg -1.20682 0.0413099 4.4844 1.2 1 0.000596197 0.00258812 0.00189237 0.00467227 0.00131635 0.00594916 0.00196714 0.0161581 0.00239784 0.00519182 0.00223862 0.0220761 0.00271041 0.0115111 0.00317311 0.0208097 0.00517095 0.0149852 0.00483247 0.0386356
10 2 Si -3.0337 2.72544 4.4844 2.4 1 0.000219827 0.00268692 0.00183084 0.00477062 0.00238807 0.00643741 0.00337684 0.0167448 0.00305449 0.00531716 0.00252519 0.0239609 0.00282477 0.0126038 0.00415741 0.0225503 0.00531067 0.0164787 0.00548651 0.0396921
11 3 O -3.08099 1.11221 4.4844 -1.2 1 0.000637398 0.0031207 0.00192708 0.00427836 0.00144427 0.00588108 0.00235084 0.0160212 0.00276194 0.00478776 0.00231295 0.0223233 0.00289757 0.0113309 0.0033307 0.0215296 0.00493194 0.0154445 0.00475004 0.0385528
12 3 O 0.582463 3.69946 4.4844 -1.2 1 0.00137456 0.00414968 0.00204829 0.00441167 0.00239462 0.00691408 0.00338147 0.0172592 0.00325248 0.00589161 0.00334612 0.0245834 0.00408403 0.0127508 0.00473256 0.0239811 0.00703418 0.0176112 0.00737807 0.0415672
13 3 O -2.29524 3.43162 3.18632 -1.2 1 0.000590395 0.00268272 0.00251694 0.00424797 0.00208369 0.00602572 0.00269216 0.0178187 0.00304005 0.00642896 0.00280685 0.0242953 0.00320599 0.0128589 0.00482824 0.0239917 0.00604182 0.0169138 0.00579892 0.0419594
14 3 O -2.34216 3.43162 5.78248 -1.2 1 0.00102735 0.00312963 0.00155277 0.00476678 0.00265799 0.00627313 0.00330901 0.0170413 0.00313982 0.00577211 0.00289824 0.0232031 0.00444834 0.012043 0.00407892 0.0228167 0.00649666 0.0175405 0.00700523 0.0395155
15 1 Mg 1.12778 2.37449 2.9896 1.2 1 0.00125287 0.00346614 0.00256261 0.00432611 0.00232115 0.00608029 0.0029639 0.0167339 0.00264869 0.00576859 0.00235589 0.0233828 0.00331353 0.0128717 0.00370034 0.0219476 0.00494851 0.0157684 0.00485302 0.0409949
16 1 Mg 3.92855 2.33318 4.4844 1.2 1 0.00133404 0.00351922 0.00147715 0.00404255 0.00164147 0.00602052 0.00325812 0.0168266 0.0030714 0.00515792 0.0031014 0.0227668 0.00357138 0.013037 0.0050708 0.0219466 0.00623241 0.0162498 0.00626756 0.0399435
17 2 Si 2.09341 4.39804 4.4844 2.4 1 0.00115736 0.00380916 0.00200376 0.0039966 0.00301603 0.00624379 0.00354249 0.0182907 0.00335911 0.00599313 0.00347239 0.0248035 0.00454104 0.013968 0.0045257 0.0245477 0.00683858 0.0174158 0.0077326 0.0432005
18 3 O 2.09991 6.01128 4.4844 -1.2 1 0.00182009 0.00435528 0.0015217 0.00387276 0.00293536 0.00651785 0.00322123 0.0193474 0.00261078 0.00684734 0.00315311 0.0268558 0.00433724 0.0143791 0.00489797 0.0274798 0.00685152 0.018528 0.00764769 0.044797
19 3 O -4.52137 3.42402 4.4844 -1.2 1 0.000939106 0.00323143 0.00211226 0.004431 0.00217598 0.0074017 0.00342123 0.0173403 0.00328956 0.00554603 0.00329768 0.0234963 0.00385515 0.0126709 0.00447658 0.0229986 0.00638345 0.0166461 0.00696755 0.0413423
20 3 O 2.80834 3.69187 3.18632 -1.2 1 0.00130834 0.00333605 0.00178439 0.00347611 0.00214399 0.0059957 0.0029718 0.0174926 0.00307846 0.00594385 0.00271916 0.0240083 0.00361274 0.0128986 0.00479074 0.0238064 0.00587345 0.016355 0.00590321 0.0426499
21 1 Mg 1.17857 2.37449 0 1.2 1 0.00236502 0.00329847 0.0020407 0.00381176 0.00135912 0.00543131 0.00218619 0.0170708 0.00235809 0.00649305 0.00255824 0.0228229 0.00295307 0.0128265 0.00377744 0.0217395 0.00431416 0.0144278 0.00482888 0.0410297
22 3 O 2.76143 3.69187 5.78248 -1.2 1 0.00110414 0.00375124 0.00175621 0.00420816 0.00212815 0.00588366 0.00277098 0.0175354 0.0029407 0.0059875 0.0034312 0.0229607 0.00471524 0.0126703 0.00569228 0.0229278 0.00669406 0.0171019 0.0072894 0.0403157
23 1 Mg -1.67381 2.41581 1.4948 1.2 1 0.00123388 0.00249785 0.00255919 0.0043519 0.00137741 0.00613636 0.00231149 0.016635 0.00252125 0.00602699 0.00176077 0.0241322 0.00259663 0.0142487 0.00304282 0.0223721 0.00449898 0.0157549 0.00459404 0.0422034
24 2 Si 0.16286 0.350945 1.4948 2.4 1 0.00191055 0.00263861 0.00267972 0.00414908 0.00142896 0.00650164 0.00274056 0.0164313 0.00219033 0.00497013 0.00168489 0.022717 0.00254235 0.013485 0.00320024 0.0211957 0.00458192 0.0144128 0.00391483 0.0407943
25 3 O 0.15972 -1.26229 1.4948 -1.2 1 0.00187125 0.00294256 0.00291852 0.00429335 0.00182421 0.00626616 0.00252088 0.016298 0.00215559 0.00503325 0.00235865 0.0224168 0.0024979 0.0137314 0.002956 0.0221125 0.00417158 0.0143746 0.00335645 0.0410227
26 3 O 6.77654 1.32496 1.4948 -1.2 1 0.00125497 0.00362451 0.00152643 0.00417574 0.00124184 0.00613883 0.00219543 0.0168246 0.00242758 0.00520813 0.00161836 0.0234654 0.00270565 0.0135601 0.00375521 0.0219989 0.00452699 0.0149077 0.00404155 0.0411449
27 3 O -0.508028 1.05712 0.196716 -1.2 1 0.0016056 0.00263666 0.00322032 0.0040254 0.00142909 0.00570449 0.0023959 0.0169269 0.00169486 0.00642451 0.00242819 0.0217739 0.00276477 0.0126315 0.00336984 0.0214221 0.00427292 0.0148543 0.00440661 0.0405519
28 3 O -0.552171 1.05712 2.79288 -1.2 1 0.00112707 0.0023765 0.00274586 0.00440722 0.00138655 0.00648066 0.00241956 0.0162301 0.00238292 0.00580221 0.00181979 0.0224311 0.00269595 0.0118121 0.00364304 0.0217315 0.00539701 0.0153496 0.00453129 0.0397167
29 1 Mg 6.31713 4.74899 0 1.2 1 0.00115402 0.00251774 0.00173885 0.00436001 0.00213017 0.00617884 0.00309979 0.0181313 0.00282997 0.00725792 0.00210252 0.0251779 0.0028266 0.0135879 0.00430219 0.0243619 0.00491624 0.0160719 0.00600142 0.0430325
30 1 Mg 3.54847 9.45668 1.4948 1.2 1 0.00140673 0.00329357 0.00174235 0.00453885 0.00198193 0.00755767 0.00312159 0.0214694 0.00179423 0.00870975 0.0021706 0.0285737 0.00316739 0.0156536 0.00370066 0.0291846 0.00408398 0.0182388 0.00356301 0.0483961
31 2 Si 5.36879 6.77254 1.4948 2.4 1 0.00106796 0.00304712 0.0018489 0.00491199 0.00253823 0.00694411 0.00355755 0.0197874 0.00267445 0.00785549 0.00241122 0.0276224 0.00307569 0.015307 0.00435086 0.0268525 0.00476978 0.0170516 0.00462326 0.0465169
32 3 O 5.41937 8.38578 1.4948 -1.2 1 0.00144104 0.00324719 0.00169112 0.00485254 0.00213219 0.00773751 0.0030423 0.0211395 0.00225765 0.00855277 0.00240448 0.0291258 0.00225603 0.0156521 0.00322601 0.0290605 0.00461012 0.0175054 0.00441055 0.0477811
33 3 O 1.75158 5.79852 1.4948 -1.2 1 0.000969303 0.00330909 0.00169651 0.00388876 0.00224191 0.00596034 0.00298053 0.0196081 0.00267958 0.00726433 0.00263607 0.027926 0.00303388 0.0155018 0.00356799 0.026712 0.00553426 0.0172535 0.0052394 0.0456971
34 3 O 4.67421 6.06637 0.196716 -1.2 1 0.000926789 0.00288742 0.00152873 0.00455099 0.00180775 0.00690384 0.00286491 0.0198757 0.00252958 0.00826826 0.00207433 0.0261805 0.00340021 0.0142569 0.00441612 0.0264282 0.00484207 0.0163601 0.00540042 0.0452894
35 1 Mg 6.26654 4.74899 2.9896 1.2 1 0.00125012 0.00313168 0.00224042 0.00448006 0.00258405 0.00656982 0.00350346 0.0180398 0.0037032 0.0069237 0.00230471 0.0260039 0.0039776 0.0145921 0.00517169 0.0248601 0.00592463 0.0169606 0.00657446 0.0434768
36 3 O 4.63043 6.06637 2.79288 -1.2 1 0.00203047 0.00344553 0.00171926 0.00454307 0.0023021 0.00674682 0.00328199 0.0196025 0.00337873 0.00777728 0.00248221 0.0260228 0.00394707 0.0147988 0.00501145 0.0270792 0.00568716 0.0178466 0.00633214 0.0452862
37 1 Mg -1.12976 4.79031 4.4844 1.2 1 0.00138058 0.00364634 0.00179346 0.00450301 0.00250061 0.00638661 0.00317065 0.0179972 0.00344302 0.006579 0.00312423 0.0255444 0.00411615 0.0141405 0.00492628 0.025287 0.00757904 0.0179919 0.00723398 0.0436696
38 2 Si -2.9517 7.47444 4.4844 2.4 1 0.00189114 0.00395033 0.00135534 0.00503573 0.00306029 0.00647989 0.00375606 0.0204638 0.00313531 0.00779009 0.00295907 0.0273818 0.00442651 0.0159076 0.00534434 0.0278957 0.00667036 0.0187061 0.00768007 0.0466982
39 3 O -3.00198 5.86121 4.4844 -1.2 1 0.00166023 0.0040904 0.00127212 0.00466937 0.00314114 0.00640837 0.00393518 0.0189184 0.00347507 0.00723711 0.0025367 0.0257391 0.00455163 0.0138869 0.00476145 0.0267906 0.00658993 0.0186373 0.00796949 0.0447625
40 3 O 0.666315 8.44846 4.4844 -1.2 1 0.00274015 0.00495053 0.00122004 0.00495774 0.00296746 0.00746761 0.00283609 0.0211478 0.00282878 0.00782613 0.00324001 0.0285505 0.00461814 0.0159757 0.0046203 0.0294142 0.00631826 0.0195033 0.00759702 0.0475635
41 3 O -2.21213 8.18062 3.18632 -1.2 1 0.00209665 0.00426696 0.00157801 0.0044715 0.00259804 0.00623632 0.00262177 0.0210605 0.00253201 0.0082179 0.0028204 0.0278085 0.00409658 0.0158514 0.00507884 0.0289967 0.00573291 0.0186855 0.00618963 0.0479234
42 3 O -2.25864 8.18062 5.78248 -1.2 1 0.00265789 0.00446019 0.00173726 0.00471539 0.0032061 0.00590036 0.00317048 0.0202762 0.00241746 0.00790834 0.00336244 0.026785 0.00468324 0.0160881 0.00544151 0.0291616 0.00680167 0.0201904 0.0081801 0.0469226
43 1 Mg 1.20893 7.12349 2.9896 1.2 1 0.00189098 0.00397567 0.00153634 0.00429311 0.00270872 0.00686466 0.00355702 0.019809 0.0027949 0.00799488 0.00274927 0.0279771 0.00344871 0.0158313 0.00390452 0.0273529 0.00561344 0.0182726 0.00600138 0.046472
44 1 Mg 4.00982 7.08218 4.4844 1.2 1 0.00206486 0.00397509 0.00153067 0.00482581 0.00275853 0.0066099 0.00370021 0.0201603 0.00353725 0.00739413 0.00330584 0.0272934 0.00442633 0.0166139 0.00605551 0.028016 0.00710022 0.0186661 0.00830433 0.0464949
45 2 Si 2.17861 9.14704 4.4844 2.4 1 0.00284842 0.00447264 0.00122728 0.00498632 0.0029912 0.00741898 0.00362928 0.0209171 0.00268678 0.00813834 0.00307571 0.0283642 0.00480864 0.0164886 0.00455446 0.0297101 0.00572388 0.0196783 0.00681988 0.0489322
46 3 O 2.18828 10.7603 4.4844 -1.2 1 0.00365714 0.0047192 0.00144575 0.0047837 0.00287524 0.00720413 0.00292922 0.0205939 0.00232855 0.00819488 0.00210932 0.0288331 0.00417545 0.0157453 0.00439814 0.0305538 0.00571594 0.0205395 0.00647332 0.0492549
47 3 O -4.43805 8.17302 4.4844 -1.2 1 0.00174108 0.00455556 0.00161283 0.00496171 0.00272357 0.00763627 0.00324821 0.0207252 0.00312199 0.0081091 0.00317787 0.0281475 0.00471163 0.0159375 0.00471701 0.029269 0.00629125 0.0191631 0.00852441 0.0469264
48 3 O 2.89193 8.44087 3.18632 -1.2 1 0.00270815 0.00371244 0.0014499 0.00428982 0.00251953 0.00701043 0.00304231 0.0207246 0.00273212 0.0086053 0.00284842 0.0276517 0.0040131 0.0158012 0.00492108 0.028951 0.00595714 0.0187456 0.00573712 0.0479011
49 1 Mg 1.25915 7.12349 0 1.2 1 0.000696336 0.00279474 0.00138968 0.00399069 0.00164597 0.00717863 0.00282187 0.020246 0.00267505 0.00840134 0.0023873 0.0274658 0.00315365 0.0142616 0.0034437 0.0274148 0.00461024 0.0173091 0.00420174 0.0463127
50 3 O 2.84547 8.44087 5.78248 -1.2 1 0.00259709 0.00474412 0.00143703 0.00479147 0.00278664 0.00659057 0.00338203 0.0206947 0.00287604 0.00838414 0.00335642 0.0267605 0.00567815 0.016383 0.00549362 0.0294003 0.00598927 0.0206796 0.00773606 0.0475877
51 1 Mg -1.59284 7.16481 1.4948 1.2 1 0.00109363 0.00339279 0.00150565 0.00442305 0.00169655 0.00651648 0.00257503 0.0201535 0.00282804 0.00804836 0.00178588 0.0276726 0.00312292 0.0154567 0.00375184 0.0269505 0.00468379 0.017521 0.00512269 0.0465912
52 2 Si 0.240329 5.09994 1.4948 2.4 1 0.00101685 0.00368063 0.00205632 0.00388747 0.00169993 0.00676637 0.00290326 0.018999 0.00302091 0.00730966 0.00226672 0.0259374 0.002789 0.0145102 0.00403656 0.0247552 0.00533403 0.0166315 0.00495959 0.0449024
53 3 O 0.234538 3.48671 1.4948 -1.2 1 0.00150361 0.00370767 0.00257297 0.00393458 0.00183377 0.00647632 0.00244115 0.0180083 0.00334463 0.00679574 0.00228795 0.0244943 0.0032589 0.0135534 0.00400088 0.0240003 0.00566602 0.0156478 0.00529365 0.0428006
54 3 O 6.85564 6.07396 1.4948 -1.2 1 0.00129069 0.00282899 0.00237783 0.00461574 0.00237269 0.00616186 0.00295148 0.0201403 0.00298174 0.00759336 0.00207148 0.0277244 0.00303494 0.0145652 0.00491843 0.0266698 0.00565419 0.0173587 0.00583259 0.045403
55 3 O -0.429565 5.80612 0.196716 -1.2 1 0.000883449 0.00326479 0.00234542 0.00397038 0.00158923 0.00708368 0.00253322 0.0195722 0.00280624 0.00846219 0.00241949 0.0256187 0.00256156 0.0140405 0.00385151 0.0258385 0.00520351 0.016581 0.00571234 0.0453912
56 3 O -0.473377 5.80612 2.79288 -1.2 1 0.00166804 0.00349974 0.0017987 0.00419739 0.00241009 0.0067181 0.00291357 0.0193307 0.00310792 0.00768152 0.00282622 0.025917 0.00380014 0.014453 0.00455975 0.0263436 0.00662469 0.017958 0.00633159 0.0455727
57 1 Mg 6.40169 9.49799 0 1.2 1 0.000703895 0.00380537 0.00120646 0.00454068 0.00134377 0.00839468 0.00198606 0.0213016 0.00185431 0.00915694 0.00172846 0.0288287 0.00212629 0.0148737 0.00267606 0.0296165 0.00352166 0.0179403 0.00370895 0.0475829
58 1 Mg 3.64209 14.2057 1.4948 1.2 1 0.00191112 0.0033551 0.00130513 0.00479518 0.00139563 0.00896427 0.00153194 0.0216248 0.00160408 0.00891331 0.00215845 0.0285332 0.00255709 0.0162333 0.00315252 0.0294029 0.00352626 0.0171764 0.00342478 0.048618
59 2 Si 5.45748 11.5215 1.4948 2.4 1 0.00173342 0.00320107 0.00130569 0.00459928 0.00159444 0.00824706 0.00204561 0.0211731 0.00153073 0.0085459 0.00182809 0.02911 0.00263148 0.0161781 0.00329153 0.0293668 0.00393806 0.0172408 0.00329217 0.0486732
60 3 O 5.51101 13.1348 1.4948 -1.2 1 0.00187172 0.00333473 0.00133983 0.00476231 0.00143722 0.0092152 0.00174862 0.0211879 0.0017675 0.00878845 0.00160108 0.0295771 0.00218179 0.0161202 0.00292603 0.0299021 0.00353703 0.0171857 0.00355983 0.0483784
61 3 O 1.83851 10.5475 1.4948 -1.2 1 0.00156915 0.00356184 0.00130182 0.00482823 0.00177556 0.0077662 0.00229289 0.0217081 0.0018134 0.0086706 0.00209897 0.0294858 0.00260993 0.0158193 0.00320123 0.0297966 0.00407527 0.0180232 0.00344603 0.0488415
62 3 O 4.7611 10.8154 0.196716 -1.2 1 0.000642167 0.00311058 0.00141624 0.00454847 0.00116737 0.00848674 0.00222318 0.0214309 0.00165651 0.00884693 0.00190711 0.028402 0.00275739 0.0158098 0.00358502 0.0294699 0.00349411 0.0172415 0.0031391 0.0483761
63 1 Mg 6.35203 9.49799 2.9896 1.2 1 0.00190564 0.00383454 0.00159009 0.00478714 0.00262831 0.00748817 0.00312597 0.0206237 0.00299085 0.0088089 0.00203545 0.0294652 0.00386043 0.0162607 0.00350394 0.0292897 0.00411224 0.0184486 0.00527225 0.048174
64 3 O 4.71833 10.8154 2.79288 -1.2 1 0.002873 0.00359295 0.00127862 0.00454194 0.00207899 0.00808617 0.00224582 0.0213039 0.00194643 0.00922579 0.00195312 0.0285608 0.00357612 0.0159473 0.00411391 0.0301412 0.00489533 0.0187172 0.00531803 0.0489068
65 1 Mg -1.0438 9.53931 4.4844 1.2 1 0.00298208 0.00478546 0.00165514 0.00475226 0.00313258 0.00673379 0.00261927 0.020973 0.00256287 0.00847479 0.00261383 0.0283206 0.00397222 0.0167745 0.0047 0.0297604 0.00602095 0.0198201 0.00681908 0.0487908
66 2 Si -2.8604 12.2234 4.4844 2.4 1 0.00305057 0.0043946 0.00158842 0.00444018 0.00281469 0.00778742 0.00309586 0.0214228 0.00270827 0.00887736 0.00229819 0.0281655 0.00418765 0.0166242 0.00452955 0.0296123 0.005209 0.0197353 0.00617847 0.0493638
67 3 O -2.91391 10.6102 4.4844 -1.2 1 0.00322061 0.00450005 0.00175456 0.00441079 0.00301518 0.00706664 0.00333368 0.0204268 0.00268505 0.00801732 0.00210785 0.0287152 0.00416665 0.0159799 0.00445046 0.0307267 0.00563682 0.0197561 0.00648714 0.0489294
68 3 O 0.7596 13.1975 4.4844 -1.2 1 0.0033724 0.00433043 0.00163602 0.0051404 0.00286586 0.00894345 0.00253223 0.021646 0.00273378 0.00858354 0.00279522 0.0288756 0.00425167 0.0163659 0.00434192 0.0298338 0.00583381 0.0203395 0.00660644 0.0495208
69 3 O -2.12001 12.9296 3.18632 -1.2 1 0.00331325 0.00401298 0.00165244 0.00428481 0.00250871 0.0077561 0.00230269 0.0216867 0.00224157 0.00879003 0.00223316 0.0279448 0.00380437 0.0162128 0.00473931 0.0301136 0.00498038 0.0188845 0.00526835 0.0492198
70 3 O -2.16532 12.9296 5.78248 -1.2 1 0.00357288 0.00462839 0.00172906 0.00446393 0.00298162 0.00693706 0.00263278 0.0211375 0.00250472 0.0085565 0.00281565 0.0276405 0.00416565 0.0168923 0.0047482 0.0308002 0.00569125 0.021486 0.00634692 0.0501321
71 1 Mg 1.29891 11.8725 2.9896 1.2 1 0.00250091 0.00371009 0.00127009 0.00469697 0.00228447 0.00827193 0.00259963 0.0207271 0.00236806 0.00891363 0.0020376 0.0288515 0.00319573 0.0162048 0.00351148 0.0297658 0.00445211 0.0185274 0.00487559 0.0484227
72 1 Mg 4.10033 11.8312 4.4844 1.2 1 0.00338475 0.00405797 0.00172514 0.00443865 0.0026364 0.0074332 0.00296041 0.0209901 0.00255976 0.00869835 0.0025883 0.0289373 0.00372408 0.0173045 0.00513384 0.0300659 0.00589686 0.0198093 0.00605352 0.0492279
73 2 Si 2.27333 13.896 4.4844 2.4 1 0.00327375 0.00357703 0.00159472 0.00511367 0.00306595 0.00820171 0.00311185 0.0211483 0.00237994 0.00866252 0.0026641 0.0282917 0.00389428 0.0166186 0.00439637 0.0296633 0.00544954 0.0199059 0.00587536 0.0501468
74 3 O 2.28634 15.5093 4.4844 -1.2 1 0.00313121 0.00387227 0.00184357 0.00483723 0.00315097 0.00759282 0.00284986 0.0203668 0.00256757 0.00794771 0.00223599 0.0286456 0.00329116 0.0157744 0.00398368 0.0300174 0.00564458 0.0195616 0.00606579 0.0496681
75 3 O -4.34533 12.922 4.4844 -1.2 1 0.003204 0.00411276 0.00176431 0.00464842 0.00286555 0.00845983 0.00300038 0.0213187 0.00267218 0.00887556 0.00232862 0.0285591 0.0040803 0.0163299 0.00467422 0.0299163 0.00592608 0.0203918 0.00650929 0.0489619
76 3 O 2.98455 13.1899 3.18632 -1.2 1 0.0030282 0.00346394 0.00156574 0.00441352 0.00254523 0.00803686 0.00231428 0.0215373 0.00206796 0.00905599 0.00195791 0.0281152 0.00347406 0.0162618 0.00438641 0.0298726 0.00547066 0.0190041 0.00532926 0.0490895
77 1 Mg 1.34779 11.8725 0 1.2 1 0.000847964 0.00301765 0.00103744 0.00475939 0.00124389 0.00893868 0.00149637 0.0212584 0.00119008 0.00932639 0.00187209 0.0290919 0.00267387 0.0151078 0.00293052 0.0299785 0.00278765 0.0173508 0.00282799 0.0477419
78 3 O 2.93934 13.1899 5.78248 -1.2 1 0.00331379 0.0044685 0.00146905 0.00492884 0.0028482 0.00724712 0.00265642 0.0215277 0.00250669 0.00865578 0.00334234 0.0275156 0.00477453 0.0166161 0.00533653 0.0305718 0.00588997 0.0222592 0.00649459 0.0502335
79 1 Mg -1.50344 11.9138 1.4948 1.2 1 0.00138972 0.00358059 0.00101085 0.00441896 0.00135229 0.00831344 0.00174122 0.0215261 0.00236091 0.00883171 0.00164006 0.0287558 0.00345373 0.016058 0.00324363 0.0298039 0.00324605 0.0178183 0.00354667 0.0484014
80 2 Si 0.326006 9.84894 1.4948 2.4 1 0.00118194 0.0034635 0.00092028 0.00481496 0.0018746 0.0082492 0.00184512 0.0210577 0.00205788 0.00868765 0.00157291 0.0287164 0.00277836 0.0157418 0.0036676 0.0289799 0.00377557 0.0178139 0.00316752 0.0482938
81 3 O 0.317364 8.23571 1.4948 -1.2 1 0.0015746 0.00373536 0.000925853 0.00439481 0.00169149 0.00778325 0.00189725 0.0203842 0.0024838 0.00808177 0.00183152 0.028795 0.00327529 0.0158807 0.00383299 0.0285169 0.00446477 0.0177182 0.00390001 0.0475089
82 3 O 6.94307 10.823 1.4948 -1.2 1 0.00152088 0.00374953 0.00131686 0.00438729 0.00167284 0.00770792 0.00238056 0.021928 0.00243096 0.00868638 0.00157682 0.0296175 0.0029201 0.0159924 0.00323147 0.0299472 0.00354414 0.0181183 0.00373796 0.0486491
83 3 O -0.343122 10.5551 0.196716 -1.2 1 0.00090538 0.00307059 0.000920207 0.00459086 0.00135948 0.00858042 0.00183562 0.0214661 0.00179535 0.00917901 0.00203213 0.0283454 0.00317757 0.0154384 0.00421084 0.0293704 0.00332272 0.0175656 0.00308134 0.0482256
84 3 O -0.385966 10.5551 2.79288 -1.2 1 0.00296264 0.00422626 0.00108253 0.00450421 0.00249932 0.00808568 0.00213199 0.0214707 0.00197401 0.00917402 0.00221536 0.0278501 0.00350433 0.0159998 0.00416365 0.0300702 0.00506167 0.0188525 0.00506351 0.0488941
85 1 Mg 6.49448 14.247 0 1.2 1 0.0012265 0.00325003 0.00140833 0.0047988 0.000953072 0.00940249 0.00130296 0.0213362 0.00125344 0.00865941 0.00150918 0.028888 0.00150942 0.0155586 0.0023358 0.0297759 0.00302752 0.0168141 0.0026958 0.0475793
86 1 Mg 3.74457 18.9547 1.4948 1.2 1 0.00218141 0.00304489 0.00163904 0.00408054 0.00195386 0.00856171 0.00134904 0.0220653 0.00193904 0.00803435 0.00239199 0.0275574 0.00243138 0.0162982 0.00356301 0.0285138 0.00385847 0.016488 0.00355175 0.0490469
87 2 Si 5.55495 16.2705 1.4948 2.4 1 0.00215097 0.0030138 0.00143091 0.00464379 0.00179844 0.00905169 0.00135326 0.0213217 0.00130718 0.00796913 0.00149515 0.0286743 0.00216308 0.0161028 0.00282215 0.0287472 0.00389265 0.0162608 0.00354835 0.0487023
88 3 O 5.6115 17.8838 1.4948 -1.2 1 0.00215802 0.00304262 0.00158252 0.00429577 0.00184602 0.00919602 0.00164359 0.0214759 0.0019166 0.00789421 0.00149015 0.02872 0.00191656 0.0162284 0.00267844 0.0286359 0.00354957 0.0160254 0.00368178 0.0487107
89 3 O 1.93416 15.2965 1.4948 -1.2 1 0.00180833 0.00316845 0.00137173 0.00480579 0.00174405 0.00858458 0.00195329 0.021671 0.00178054 0.00826057 0.00142009 0.0292835 0.00212395 0.0161169 0.00276341 0.0295697 0.00405812 0.0169284 0.00361939 0.0486225
90 3 O 4.85636 15.5644 0.196716 -1.2 1 0.00197529 0.00257769 0.00134577 0.00467455 0.00111202 0.00914322 0.00146387 0.0213768 0.00119648 0.00826508 0.00173793 0.0281575 0.00247837 0.0161042 0.00327709 0.0291689 0.0033858 0.0159483 0.00312517 0.0482684
91 1 Mg 6.44662 14.247 2.9896 1.2 1 0.00198567 0.00362511 0.00132122 0.00461302 0.0024338 0.00861811 0.00294491 0.0207127 0.00247025 0.00887119 0.00183314 0.0291367 0.00325261 0.0162858 0.00305612 0.0293137 0.00394537 0.0179969 0.00461111 0.0482677
92 3 O 4.81537 15.5644 2.79288 -1.2 1 0.00247872 0.00328706 0.0014743 0.0045065 0.00241495 0.00892096 0.00187449 0.0215143 0.00160786 0.00892683 0.00169773 0.0280701 0.00279824 0.0161084 0.0035619 0.0292813 0.00471976 0.0176646 0.00500178 0.0487643
93 1 Mg -0.948271 14.2883 4.4844 1.2 1 0.00338538 0.00402187 0.00148538 0.00445453 0.00285481 0.00805626 0.00255315 0.0210142 0.00270509 0.00850523 0.00281141 0.0285132 0.0037476 0.0166383 0.00519847 0.0299291 0.00561004 0.0198971 0.00601482 0.0495134
94 2 Si -2.75928 16.9724 4.4844 2.4 1 0.00293802 0.00363582 0.00178032 0.00462202 0.0029568 0.0081007 0.00273805 0.0215441 0.00260919 0.0080758 0.00257227 0.0280918 0.00376943 0.0166657 0.00470781 0.0292314 0.00506944 0.0191312 0.00562156 0.0503003
95 3 O -2.81617 15.3592 4.4844 -1.2 1 0.00344151 0.00383504 0.00179464 0.0044061 0.00311349 0.00785376 0.0029187 0.020485 0.00261981 0.00808329 0.00226401 0.0287176 0.00375972 0.0157894 0.00428333 0.030021 0.0055727 0.0192219 0.00607654 0.0494108
96 3 O 0.862762 17.9465 4.4844 -1.2 1 0.00270505 0.00373323 0.00163999 0.00470694 0.00297047 0.00855865 0.00237501 0.0217578 0.00258643 0.00794619 0.00227746 0.0281993 0.00364064 0.0165529 0.00421711 0.0286227 0.00558068 0.0194215 0.00568685 0.0496804
97 3 O -2.0185 17.6786 3.18632 -1.2 1 0.00267371 0.00329494 0.00182976 0.00403417 0.00275209 0.0078785 0.00216202 0.0218429 0.00244231 0.00805202 0.00225394 0.0274915 0.00330668 0.0161431 0.00446062 0.0293841 0.00501622 0.01807 0.00500781 0.0496058
98 3 O -2.06164 17.6786 5.78248 -1.2 1 0.00332688 0.00404842 0.00155263 0.00470541 0.00295852 0.00708751 0.00245018 0.0213229 0.00256094 0.00810674 0.00258551 0.0274171 0.00367709 0.0166686 0.00481397 0.0298331 0.00566818 0.0208923 0.00574544 0.050481
99 1 Mg 1.39817 16.6215 2.9896 1.2 1 0.00251009 0.00329741 0.00170684 0.00471493 0.00248584 0.0087207 0.00243979 0.0209099 0.0024897 0.00826169 0.00172937 0.0289351 0.00244576 0.0163542 0.00318421 0.0290683 0.00436645 0.0171543 0.00460042 0.0487287
100 1 Mg 4.20062 16.5802 4.4844 1.2 1 0.00277281 0.00345188 0.00204849 0.0047678 0.00287669 0.00790551 0.00261631 0.0214174 0.00303508 0.00815084 0.00257164 0.0283845 0.00323708 0.0170237 0.00502396 0.0293725 0.00613647 0.0191881 0.00603569 0.0498183
101 2 Si 2.37796 18.645 4.4844 2.4 1 0.00260172 0.00323584 0.00166091 0.00482353 0.00307544 0.00801624 0.00274796 0.021771 0.00267424 0.00807186 0.00241861 0.0277241 0.00354204 0.0165445 0.00443947 0.0288154 0.00521357 0.0184598 0.00565395 0.0504924
102 3 O 2.39434 20.2583 4.4844 -1.2 1 0.00233506 0.00355267 0.0015092 0.00452322 0.00295671 0.00691919 0.00264804 0.0208658 0.00276714 0.00755011 0.00190224 0.0280281 0.0032848 0.0161557 0.00392006 0.0290769 0.00542956 0.0182412 0.00627588 0.0497138
103 3 O -4.24274 17.671 4.4844 -1.2 1 0.00245792 0.00393896 0.00200362 0.0048271 0.00290248 0.00882207 0.002676 0.0217648 0.0029273 0.00811089 0.00255737 0.028345 0.0034014 0.016124 0.00498466 0.0292117 0.0060023 0.0193751 0.00605551 0.0497426
104 3 O 3.08659 17.9389 3.18632 -1.2 1 0.00253009 0.00296732 0.00175081 0.00430212 0.00278919 0.00800279 0.00199071 0.0217304 0.00232195 0.00810161 0.00207315 0.0277178 0.00303923 0.0162173 0.00418347 0.0290755 0.00521252 0.0176277 0.00526658 0.0494208
105 1 Mg 1.44478 16.6215 0 1.2 1 0.00267885 0.00290756 0.00109982 0.00448014 0.00135748 0.0090496 0.00103733 0.0214843 0.00135665 0.008446 0.00167169 0.0285161 0.00223269 0.0157456 0.00238846 0.0289513 0.00282999 0.0160204 0.00305652 0.048028
106 3 O 3.0436 17.9389 5.78248 -1.2 1 0.00257169 0.00377871 0.00155322 0.00508443 0.00273206 0.007127 0.00234119 0.0213874 0.00239243 0.00803284 0.00267202 0.0272813 0.00362864 0.0160633 0.00467882 0.0299723 0.00600607 0.0212061 0.00581776 0.0505881
107 1 Mg -1.40524 16.6628 1.4948 1.2 1 0.00171128 0.00330604 0.00135634 0.00457933 0.00166247 0.0089833 0.00183923 0.0219742 0.00201436 0.00823809 0.00182806 0.0282837 0.00307697 0.0163655 0.00295731 0.0291408 0.00321555 0.0168787 0.00352277 0.0484029
108 2 Si 0.420358 14.5979 1.4948 2.4 1 0.00153279 0.00320781 0.00140906 0.00501059 0.00179146 0.00928707 0.00167429 0.0211607 0.00160543 0.00848895 0.00152904 0.0286956 0.00284336 0.0163025 0.00339918 0.0286673 0.00363137 0.0168009 0.003503 0.048305
109 3 O 0.408732 12.9847 1.4948 -1.2 1 0.00164037 0.00323823 0.00116188 0.00493173 0.00173412 0.00917327 0.00141567 0.0210938 0.00215854 0.00874247 0.00154917 0.0292065 0.0030044 0.0161334 0.00309177 0.0297089 0.00332614 0.0172916 0.00366607 0.0484998
110 3 O 7.03923 15.572 1.4948 -1.2 1 0.00171326 0.00321114 0.00129541 0.00453489 0.00197596 0.00851846 0.00227426 0.0216715 0.00208964 0.00816658 0.00169165 0.0293 0.00258004 0.0162753 0.00277129 0.0294887 0.00366146 0.0172093 0.00408802 0.0487811
111 3 O -0.248332 15.3041 0.196716 -1.2 1 0.00193558 0.00284976 0.00117653 0.00478639 0.00110125 0.0092692 0.00183665 0.0213428 0.00134838 0.00843075 0.00196139 0.0280576 0.00289621 0.0158147 0.00372241 0.0289327 0.00315835 0.0162367 0.00321672 0.0481661
112 3 O -0.289436 15.3041 2.79288 -1.2 1 0.00311648 0.00369637 0.0013773 0.00449258 0.00238598 0.00897148 0.00184201 0.0215535 0.00182631 0.00885666 0.00194329 0.0275893 0.00313303 0.016403 0.00367869 0.0293321 0.00455879 0.0180317 0.00471713 0.0487883
113 1 Mg 6.59566 18.996 0 1.2 1 0.00205744 0.00295665 0.0013431 0.00407931 0.00107926 0.00866635 0.00110905 0.0217843 0.00124391 0.00769804 0.00158279 0.0277385 0.0023428 0.0160884 0.0025549 0.0285286 0.00332785 0.0158069 0.00309272 0.0485058
114 1 Mg 3.85574 23.7037 1.4948 1.2 1 0.00173668 0.00260866 0.00137128 0.00402809 0.00176865 0.00728691 0.00130656 0.0227985 0.00162921 0.00748163 0.00237798 0.0265224 0.0026613 0.0173717 0.00387386 0.028293 0.00357768 0.0167544 0.00370618 0.0503732
115 2 Si 5.66125 21.0195 1.4948 2.4 1 0.00184175 0.00262314 0.00130093 0.00404266 0.00198207 0.0081307 0.00144569 0.0217046 0.00125974 0.00746278 0.00148672 0.0275981 0.00250026 0.0169424 0.00281413 0.027745 0.00384418 0.0158078 0.00415693 0.0497565
116 3 O 5.72074 22.6328 1.4948 -1.2 1 0.00180215 0.00275742 0.00162316 0.00389834 0.00182984 0.00805476 0.00169274 0.0221004 0.00164329 0.00718719 0.00140429 0.0273744 0.00225446 0.0170857 0.0030144 0.028147 0.00345579 0.015966 0.00380695 0.0497862
117 3 O 2.03867 20.0455 1.4948 -1.2 1 0.0018578 0.00306353 0.0015662 0.00431835 0.00195205 0.00787131 0.00191667 0.0221489 0.0022028 0.00750311 0.00153819 0.0282453 0.00199781 0.0168374 0.0025302 0.0287956 0.00376436 0.0160804 0.00383857 0.0496256
118 3 O 4.96004 20.3134 0.196716 -1.2 1 0.0025815 0.00227906 0.00136595 0.00391298 0.0012979 0.00819491 0.00116996 0.0215006 0.00100179 0.00738911 0.0016655 0.0271695 0.00271568 0.0162396 0.00393397 0.0284891 0.00358053 0.0151874 0.00334103 0.0490823
119 1 Mg 6.55057 18.996 2.9896 1.2 1 0.00150963 0.00331155 0.00157508 0.00440026 0.00263071 0.00831576 0.00264663 0.0209954 0.00249564 0.00808479 0.00195735 0.0287309 0.00297475 0.0164648 0.00326895 0.0284726 0.00399422 0.0174292 0.00475393 0.04908