ITEM: TIMESTEP
69200
ITEM: NUMBER OF ATOMS
10500
ITEM: BOX BOUNDS xy xz yz pp pp pp
0	15.2977	5.09925
0	118.725	0
0	89.688	0
ITEM: ATOMS id type element xu yu zu q Q_1 Q_2 Q_3 Q_4 Q_5 Q_6 Q_7 Q_8 Q_9 Q_10 Q_11 Q_12 Q_13 Q_14 Q_15 Q_16 Q_17 Q_18 Q_19 Q_20 Q_21
1 1 Mg 6.2404 -6.37941e-06 0 1.2 1 0.00147364 0.0040435 0.00126994 0.00466099 0.0013834 0.00549905 0.00205041 0.0161696 0.00222164 0.00575973 0.00205207 0.0219971 0.0025197 0.0130259 0.00332 0.0209685 0.00395215 0.0140541 0.00389445 0.0404501
2 1 Mg 3.46349 4.70768 1.4948 1.2 1 0.00200166 0.0026264 0.00164374 0.00402701 0.00202655 0.00598195 0.00353823 0.0186943 0.00270755 0.00674767 0.0028867 0.0258818 0.00326461 0.0130761 0.00421885 0.0249903 0.00528586 0.0171973 0.00564965 0.0434321
3 2 Si 5.2885 2.02354 1.4948 2.4 1 0.00144604 0.00285977 0.00192237 0.00434997 0.00187483 0.0056402 0.00252639 0.016987 0.00253868 0.00590525 0.00212468 0.0235004 0.00307785 0.0129089 0.00349262 0.0216825 0.003731 0.0154237 0.00396269 0.0410795
4 3 O 5.33628 3.63678 1.4948 -1.2 1 0.00113931 0.00233529 0.0014678 0.0044044 0.00199859 0.0062234 0.00278476 0.0176881 0.00221693 0.00655075 0.00203979 0.0253792 0.00275242 0.0130241 0.00422085 0.0239142 0.00492648 0.0165446 0.0053996 0.0425036
5 3 O 1.67294 1.04952 1.4948 -1.2 1 0.00237011 0.00306282 0.00200087 0.00402264 0.00148047 0.00554472 0.00220355 0.0168608 0.00236447 0.0058523 0.00212876 0.0227754 0.0026949 0.0123683 0.00335211 0.0219821 0.00442612 0.0155836 0.00452961 0.0399714
6 3 O 4.59532 1.31737 0.196716 -1.2 1 0.00135405 0.00278447 0.00207567 0.00415437 0.00203161 0.00549717 0.00229971 0.0169354 0.00278345 0.00601968 0.0017087 0.0225733 0.00329826 0.0124111 0.00401476 0.0217704 0.00371875 0.0148538 0.00412515 0.0407535
7 1 Mg 6.18956 -6.37941e-06 2.9896 1.2 1 0.0021334 0.00409243 0.001253 0.00397552 0.00136199 0.0054765 0.00214098 0.0159688 0.00277954 0.00508865 0.00188754 0.0224672 0.00291217 0.0127399 0.0035592 0.0207353 0.00426983 0.014785 0.00456825 0.0386252
8 3 O 4.55118 1.31737 2.79288 -1.2 1 0.00212555 0.00359746 0.00160403 0.00396467 0.00193194 0.00572869 0.00241385 0.0168097 0.00226412 0.00637936 0.00231933 0.0215207 0.00334523 0.0116159 0.00319665 0.021313 0.00461955 0.0155991 0.00484159 0.0392773
9 1 Mg -1.20682 0.0413099 4.4844 1.2 1 0.00223404 0.00265364 0.00166739 0.00430034 0.00181259 0.00536326 0.00203473 0.0161355 0.00228353 0.00565742 0.00197526 0.0225276 0.00336409 0.0109423 0.00357165 0.0204436 0.00464119 0.0156901 0.00553441 0.0378899
10 2 Si -3.0337 2.72544 4.4844 2.4 1 0.00177494 0.0028891 0.00133912 0.0044929 0.00230751 0.00609127 0.00301354 0.0167375 0.00321841 0.00618046 0.00210888 0.0239285 0.00288688 0.0119424 0.00416056 0.0218765 0.00501982 0.0173717 0.0057948 0.0385726
11 3 O -3.08099 1.11221 4.4844 -1.2 1 0.00211422 0.00324234 0.00145282 0.00406864 0.00156322 0.00520729 0.00222713 0.0158679 0.00280526 0.00532317 0.00187508 0.0222913 0.0031896 0.010444 0.00385353 0.0210351 0.0046721 0.016111 0.00557582 0.0375648
12 3 O 0.582463 3.69946 4.4844 -1.2 1 0.00203637 0.00375387 0.00218444 0.00391255 0.00257376 0.00653147 0.0034603 0.017223 0.00325814 0.00661825 0.00292431 0.0248661 0.00372189 0.0122503 0.0040376 0.0237523 0.00674266 0.0186478 0.00761392 0.0404045
13 3 O -2.29524 3.43162 3.18632 -1.2 1 0.00142864 0.00260494 0.00214137 0.00431703 0.00233297 0.00590298 0.00275461 0.0179263 0.00294867 0.006563 0.00270946 0.0245811 0.00299845 0.0124824 0.00444887 0.0238774 0.00569161 0.0178285 0.00640011 0.041311
14 3 O -2.34216 3.43162 5.78248 -1.2 1 0.00120306 0.00327353 0.000568358 0.00449167 0.00269923 0.00579607 0.0031735 0.0164788 0.00295004 0.00695488 0.00267721 0.0230284 0.00375804 0.0113027 0.0040198 0.0223362 0.00610066 0.0185258 0.00717851 0.0380655
15 1 Mg 1.12778 2.37449 2.9896 1.2 1 0.0025673 0.00312307 0.0023317 0.0042072 0.00217872 0.00592184 0.00294533 0.0167723 0.00255222 0.00601649 0.00242413 0.0236956 0.00296841 0.0124656 0.00315189 0.0217806 0.00473526 0.0165616 0.00534125 0.040534
16 1 Mg 3.92855 2.33318 4.4844 1.2 1 0.0023148 0.00354142 0.00145769 0.00413509 0.00196852 0.00573508 0.00335082 0.0167803 0.00284566 0.00602594 0.00270499 0.0225135 0.00351579 0.0123722 0.00497938 0.0214059 0.00595437 0.0170297 0.00635628 0.0390953
17 2 Si 2.09341 4.39804 4.4844 2.4 1 0.00153023 0.00357679 0.00214826 0.00388789 0.00293286 0.00580895 0.00351957 0.0182005 0.00327467 0.00672775 0.00349717 0.0249543 0.00425218 0.0134283 0.00425298 0.0238963 0.00642904 0.0184731 0.00792616 0.04223
18 3 O 2.09991 6.01128 4.4844 -1.2 1 0.000730781 0.0037558 0.0015629 0.00378463 0.0029637 0.00633015 0.00315111 0.0192526 0.00259751 0.0070714 0.00337229 0.026539 0.0036232 0.013918 0.0044868 0.0265089 0.0065399 0.0193209 0.00765564 0.0436189
19 3 O -4.52137 3.42402 4.4844 -1.2 1 0.00163319 0.00315999 0.0016726 0.00435456 0.0023352 0.00683361 0.00316534 0.0169439 0.00301822 0.00631024 0.00306701 0.0234167 0.00362756 0.0119097 0.00394514 0.0220338 0.00597305 0.0175481 0.00710718 0.0397754
20 3 O 2.80834 3.69187 3.18632 -1.2 1 0.0018451 0.00300416 0.00171939 0.00366569 0.00213884 0.00595152 0.00284504 0.0173118 0.00292477 0.00615388 0.00286465 0.0241429 0.00342095 0.0123607 0.00461164 0.0234636 0.00560435 0.0171485 0.00605037 0.0417958
21 1 Mg 1.17857 2.37449 0 1.2 1 0.00224016 0.00314624 0.00186791 0.00395839 0.00146438 0.0053819 0.00218813 0.0170456 0.00231476 0.00658471 0.00249476 0.0232152 0.00285028 0.0125073 0.00332356 0.0217678 0.00400094 0.0150563 0.00458353 0.0404782
22 3 O 2.76143 3.69187 5.78248 -1.2 1 0.00188638 0.00398451 0.0016983 0.00403285 0.00236158 0.00533827 0.00265606 0.0171876 0.00308873 0.00700379 0.00278901 0.0225657 0.004185 0.012022 0.00510245 0.0222771 0.00623366 0.0182012 0.0073527 0.038716
23 1 Mg -1.67381 2.41581 1.4948 1.2 1 0.00194438 0.00233746 0.00241866 0.00461884 0.00134864 0.00597184 0.00247934 0.0165938 0.00264308 0.00624655 0.00203253 0.0244262 0.00253192 0.0137514 0.00279858 0.0223237 0.00420276 0.0163092 0.00455 0.0414208
24 2 Si 0.16286 0.350945 1.4948 2.4 1 0.00245079 0.00214882 0.00281817 0.00429563 0.00124452 0.0062389 0.00253497 0.016376 0.00236394 0.00509508 0.00175884 0.0230441 0.00249412 0.0129428 0.00298155 0.0209116 0.00440549 0.0150899 0.00423235 0.0401461
25 3 O 0.15972 -1.26229 1.4948 -1.2 1 0.00234323 0.00215582 0.00290405 0.0042665 0.00185521 0.00579592 0.00238907 0.0163439 0.00255773 0.00536226 0.00234385 0.0227348 0.00276563 0.0134717 0.00286475 0.021812 0.00404604 0.0147851 0.00389084 0.0405346
26 3 O 6.77654 1.32496 1.4948 -1.2 1 0.00200542 0.00338241 0.00147596 0.00441816 0.00131998 0.00585611 0.00219309 0.0167425 0.00255195 0.00542653 0.0017304 0.023828 0.00294315 0.0129648 0.00357334 0.0218602 0.00445064 0.0154118 0.00410364 0.0405415
27 3 O -0.508028 1.05712 0.196716 -1.2 1 0.00179936 0.00221408 0.00335529 0.00397069 0.00134929 0.00556546 0.00224181 0.0170046 0.00188327 0.00664642 0.00221985 0.0220806 0.0026799 0.0123111 0.0030811 0.0214014 0.00421164 0.0152635 0.00415266 0.039716
28 3 O -0.552171 1.05712 2.79288 -1.2 1 0.0023464 0.0019298 0.00277619 0.00412597 0.0014925 0.00579961 0.00224423 0.0162906 0.00254438 0.00594325 0.00150457 0.0227461 0.00271702 0.0110688 0.00324595 0.0215462 0.00487233 0.0158254 0.00498741 0.0393209
29 1 Mg 6.31713 4.74899 0 1.2 1 0.00134555 0.00252536 0.00185734 0.0044413 0.00223785 0.00607845 0.00315639 0.0181998 0.00287881 0.00707703 0.00199876 0.0254671 0.00279475 0.013303 0.00408281 0.0245642 0.00461024 0.0165783 0.00579573 0.0425709
30 1 Mg 3.54847 9.45668 1.4948 1.2 1 0.00102912 0.00250123 0.00172752 0.00473373 0.00222886 0.0075508 0.00318151 0.0215124 0.00182156 0.00836013 0.00238491 0.0285301 0.00341891 0.0153349 0.0039425 0.0289781 0.00398274 0.0181981 0.00386769 0.0481512
31 2 Si 5.36879 6.77254 1.4948 2.4 1 0.00123872 0.00228222 0.00184929 0.00486642 0.00269057 0.00682537 0.00374897 0.0196547 0.00263566 0.00775237 0.00269037 0.0278292 0.00320442 0.0148497 0.00434602 0.026632 0.00454486 0.0173343 0.00523492 0.0460867
32 3 O 5.41937 8.38578 1.4948 -1.2 1 0.00108165 0.00255036 0.00164192 0.00498123 0.0024369 0.00765062 0.00321936 0.0209926 0.00218819 0.00832328 0.00269739 0.0291331 0.00247686 0.0152107 0.00323825 0.02892 0.00448879 0.0175943 0.00495843 0.0474362
33 3 O 1.75158 5.79852 1.4948 -1.2 1 0.00187589 0.00275418 0.00180685 0.00397504 0.00231792 0.00593453 0.00320473 0.0195231 0.00270932 0.00722649 0.00279169 0.0280034 0.00295161 0.0150886 0.00356098 0.026526 0.00532521 0.0176745 0.00553923 0.045095
34 3 O 4.67421 6.06637 0.196716 -1.2 1 0.00160158 0.00222938 0.00180613 0.00456739 0.00188021 0.00672442 0.00294683 0.0200147 0.00252796 0.00801012 0.00232638 0.0263052 0.00365469 0.0141361 0.00423024 0.0266102 0.00447408 0.0165939 0.00538637 0.0448153
35 1 Mg 6.26654 4.74899 2.9896 1.2 1 0.00192577 0.00257613 0.00168877 0.00462696 0.00257064 0.0064051 0.00362564 0.0180478 0.00340016 0.00691228 0.00232126 0.0260708 0.00339621 0.0139296 0.00476364 0.024316 0.00549379 0.017749 0.00679408 0.0429603
36 3 O 4.63043 6.06637 2.79288 -1.2 1 0.00183052 0.00279235 0.00169537 0.00467203 0.00236422 0.00672825 0.00347927 0.0194062 0.00327977 0.00766471 0.00273152 0.0261703 0.00378285 0.0140962 0.00450523 0.0265375 0.00566587 0.018433 0.00678663 0.0446235
37 1 Mg -1.12976 4.79031 4.4844 1.2 1 0.00103925 0.00337883 0.00162151 0.00432039 0.00256952 0.00599397 0.00320015 0.0177209 0.00330076 0.00697591 0.00296591 0.0253251 0.00372214 0.0133712 0.00417357 0.0245018 0.00705011 0.0189153 0.00752517 0.0419555
38 2 Si -2.9517 7.47444 4.4844 2.4 1 0.00143142 0.00338232 0.00107294 0.00504627 0.00284535 0.00623075 0.00363665 0.0203853 0.00299932 0.0076957 0.00325882 0.0276097 0.00439844 0.0152877 0.00521571 0.0271221 0.00663348 0.0193241 0.00780073 0.0459855
39 3 O -3.00198 5.86121 4.4844 -1.2 1 0.000523464 0.00354273 0.000710449 0.0047721 0.00310714 0.00599508 0.00399919 0.018705 0.00337066 0.00751361 0.00290991 0.0257423 0.00417224 0.0134311 0.00455686 0.0257064 0.00655454 0.0193418 0.00773684 0.0434567
40 3 O 0.666315 8.44846 4.4844 -1.2 1 0.00142833 0.00397987 0.000997026 0.00493084 0.00297057 0.00721274 0.0029731 0.021266 0.00286377 0.00777288 0.00368611 0.0283205 0.00458205 0.0154444 0.00447513 0.0282528 0.00652209 0.0198572 0.00757434 0.0464514
41 3 O -2.21213 8.18062 3.18632 -1.2 1 0.000511231 0.00372956 0.00127477 0.00461554 0.00261092 0.00617947 0.00290577 0.0211359 0.00248399 0.00812942 0.00291858 0.0278104 0.00440289 0.0154931 0.00478294 0.0281412 0.00560491 0.0189042 0.00639142 0.0474943
42 3 O -2.25864 8.18062 5.78248 -1.2 1 0.00211747 0.00383486 0.00132748 0.00477171 0.00318102 0.00581187 0.00312307 0.0206986 0.00227053 0.00827439 0.00334863 0.026752 0.00397993 0.0156117 0.00496728 0.0278219 0.00743132 0.0207793 0.00793453 0.0460078
43 1 Mg 1.20893 7.12349 2.9896 1.2 1 0.000760103 0.00287446 0.00175757 0.00437706 0.00292702 0.00678123 0.00373004 0.019859 0.00279301 0.00799078 0.00262765 0.027958 0.00324105 0.0151486 0.00389912 0.0269434 0.00560835 0.0185278 0.00631117 0.0455618
44 1 Mg 4.00982 7.08218 4.4844 1.2 1 0.00134913 0.00317123 0.00143155 0.00467074 0.00281608 0.00644152 0.00380353 0.0201153 0.00336673 0.00763662 0.00349567 0.0270835 0.00394702 0.015722 0.00592513 0.0270152 0.00728113 0.019301 0.00833442 0.0449466
45 2 Si 2.17861 9.14704 4.4844 2.4 1 0.00100045 0.00336252 0.00139869 0.00489074 0.00304813 0.00719314 0.00388431 0.0213375 0.00271826 0.00801974 0.00322105 0.0279861 0.00463757 0.0159182 0.00436227 0.0286324 0.00582366 0.0197366 0.00691305 0.0478061
46 3 O 2.18828 10.7603 4.4844 -1.2 1 0.00188501 0.00364601 0.00188934 0.00484484 0.00291471 0.00721384 0.0032283 0.0210693 0.0026226 0.00781134 0.00226124 0.0287706 0.0039071 0.0153098 0.0041548 0.0297384 0.00590466 0.0200414 0.00670745 0.0485362
47 3 O -4.43805 8.17302 4.4844 -1.2 1 0.000822414 0.00360803 0.0013546 0.00485452 0.00258992 0.00750414 0.00332554 0.0207973 0.00313437 0.00821679 0.00302863 0.0282546 0.00465003 0.0151024 0.00440967 0.0280396 0.00649751 0.0196484 0.00826522 0.0461145
48 3 O 2.89193 8.44087 3.18632 -1.2 1 0.000687457 0.00284636 0.00163163 0.00447895 0.00277066 0.00689153 0.00331582 0.0205316 0.00272593 0.00829682 0.00293902 0.027579 0.0041101 0.0154554 0.00466298 0.0283158 0.00574961 0.0188559 0.00586846 0.0471937
49 1 Mg 1.25915 7.12349 0 1.2 1 0.00203411 0.00221329 0.00162288 0.0041836 0.00181145 0.0071322 0.00285766 0.020413 0.00278621 0.00842756 0.00255728 0.0275458 0.00335432 0.0141017 0.00355113 0.0273366 0.00450453 0.0173716 0.00425422 0.0457191
50 3 O 2.84547 8.44087 5.78248 -1.2 1 0.00177248 0.00401171 0.00133874 0.00450718 0.00268193 0.0062457 0.00346567 0.0207008 0.00271345 0.00825038 0.00354217 0.0265958 0.0052056 0.0154762 0.00508852 0.0282103 0.006297 0.0209056 0.00769963 0.0463219
51 1 Mg -1.59284 7.16481 1.4948 1.2 1 0.00171888 0.00273858 0.00111086 0.00452247 0.00187218 0.00626669 0.00276953 0.0200372 0.00284436 0.00785091 0.00193064 0.0279352 0.00322754 0.0151288 0.00372355 0.0270095 0.00450099 0.0176995 0.00546445 0.0460198
52 2 Si 0.240329 5.09994 1.4948 2.4 1 0.00180762 0.00293183 0.00175789 0.00391278 0.0018437 0.00667291 0.00293604 0.0189342 0.00297535 0.00721409 0.00246396 0.0261597 0.00275576 0.0142016 0.00396592 0.0246189 0.00494628 0.0171052 0.00504237 0.0442319
53 3 O 0.234538 3.48671 1.4948 -1.2 1 0.00202043 0.00312384 0.00243909 0.00417714 0.00195105 0.00630214 0.00253339 0.0179013 0.00323049 0.00676949 0.00246069 0.0246457 0.00310076 0.0131081 0.0037563 0.0239607 0.00542219 0.0162346 0.00528405 0.042115
54 3 O 6.85564 6.07396 1.4948 -1.2 1 0.00124109 0.00200662 0.00203699 0.00462504 0.00247566 0.0060534 0.00315717 0.0200238 0.00283418 0.00756886 0.00227327 0.0279544 0.00302149 0.0141417 0.00470613 0.026579 0.00535562 0.017892 0.0061951 0.044903
55 3 O -0.429565 5.80612 0.196716 -1.2 1 0.00179694 0.00264776 0.00201939 0.00402728 0.00196152 0.00695759 0.00242697 0.0195919 0.00279004 0.00842903 0.00256919 0.0258726 0.00257438 0.0137308 0.00378841 0.0258583 0.00493465 0.0168975 0.0054507 0.0448916
56 3 O -0.473377 5.80612 2.79288 -1.2 1 0.00100651 0.00301472 0.00172088 0.00423564 0.00241404 0.00653667 0.00301976 0.0194661 0.0030345 0.00788223 0.0029223 0.0259804 0.00365558 0.0141094 0.00424571 0.0259088 0.00609058 0.01875 0.00647902 0.0448825
57 1 Mg 6.40169 9.49799 0 1.2 1 0.00201963 0.00302014 0.00135505 0.00461879 0.00157038 0.00818748 0.0018542 0.0212511 0.0016972 0.00894996 0.00196477 0.0288796 0.00248239 0.0144844 0.00254259 0.0297848 0.0034838 0.0175643 0.00388814 0.0471362
58 1 Mg 3.64209 14.2057 1.4948 1.2 1 0.00221928 0.00268017 0.00135432 0.00466668 0.00174578 0.00874087 0.00194026 0.0217287 0.00167198 0.00867586 0.00223623 0.0281274 0.00279992 0.0159381 0.00295562 0.0296125 0.0035361 0.0167519 0.00317758 0.0488241
59 2 Si 5.45748 11.5215 1.4948 2.4 1 0.00164212 0.00273149 0.00148192 0.004683 0.00197825 0.00809993 0.00230512 0.0212319 0.00161618 0.00831764 0.00191947 0.0288858 0.00283781 0.0160033 0.00333194 0.0292829 0.00397127 0.0169558 0.00353281 0.0486606
60 3 O 5.51101 13.1348 1.4948 -1.2 1 0.00183245 0.00292762 0.00155168 0.00467773 0.00178308 0.00900137 0.00202211 0.0213068 0.00166601 0.00863125 0.00163342 0.0291982 0.00238062 0.0159389 0.00295629 0.0298651 0.00363074 0.0166742 0.00334894 0.048572
61 3 O 1.83851 10.5475 1.4948 -1.2 1 0.00110977 0.00277808 0.00164523 0.00499625 0.00212474 0.00769927 0.00250995 0.0218179 0.00174791 0.0084322 0.00233371 0.0294443 0.00281635 0.0155076 0.00331529 0.0296998 0.00406421 0.0178216 0.00354987 0.048665
62 3 O 4.7611 10.8154 0.196716 -1.2 1 0.00208154 0.00246687 0.0015893 0.00457459 0.00145604 0.00830312 0.0022124 0.021405 0.00183064 0.00868071 0.00196824 0.0281562 0.00305102 0.0155272 0.00365299 0.0295287 0.00360063 0.016857 0.00353158 0.0481259
63 1 Mg 6.35203 9.49799 2.9896 1.2 1 0.000689124 0.00337462 0.00145281 0.00500003 0.00275834 0.00733445 0.00351365 0.0206509 0.00291426 0.00839417 0.00215535 0.0291896 0.00392966 0.0157971 0.00331545 0.0288347 0.0041272 0.0187406 0.00543688 0.0478516
64 3 O 4.71833 10.8154 2.79288 -1.2 1 0.000609621 0.00293061 0.00148061 0.00479776 0.00217194 0.00817961 0.00240913 0.0215263 0.00208723 0.00885996 0.00215797 0.0282601 0.00375572 0.0154037 0.0038971 0.0297333 0.004802 0.0185227 0.00537531 0.0487981
65 1 Mg -1.0438 9.53931 4.4844 1.2 1 0.00182687 0.00387801 0.00138045 0.00470708 0.00317418 0.00644586 0.00276247 0.0212093 0.00258715 0.00837074 0.00263634 0.0282212 0.00379291 0.0158096 0.00440191 0.0289475 0.00647669 0.0201588 0.0069005 0.0478008
66 2 Si -2.8604 12.2234 4.4844 2.4 1 0.00187748 0.00387686 0.00156518 0.00492543 0.00295117 0.00732976 0.00325612 0.0219986 0.00266405 0.00849217 0.00234596 0.0281215 0.00447501 0.0160489 0.00410665 0.0296311 0.00549322 0.0195587 0.006627 0.0494498
67 3 O -2.91391 10.6102 4.4844 -1.2 1 0.00177947 0.0039132 0.00157181 0.00466916 0.00281561 0.00685493 0.00333483 0.0208939 0.00246452 0.00774795 0.00196965 0.0285727 0.00463545 0.0152363 0.00390341 0.0296434 0.00587531 0.0197591 0.00677857 0.0483525
68 3 O 0.7596 13.1975 4.4844 -1.2 1 0.00244035 0.00342783 0.00191108 0.00510961 0.00274117 0.0086228 0.00260446 0.0222601 0.00284501 0.00835043 0.00273067 0.0285489 0.00416071 0.0158578 0.00402762 0.0296716 0.0058659 0.0197756 0.00695264 0.048668
69 3 O -2.12001 12.9296 3.18632 -1.2 1 0.00170908 0.00361025 0.00161777 0.0046245 0.00275866 0.00751409 0.00257051 0.022061 0.002291 0.00837031 0.00215648 0.0279539 0.00358543 0.0157931 0.00394326 0.0298525 0.0050879 0.0184954 0.00540971 0.0493117
70 3 O -2.16532 12.9296 5.78248 -1.2 1 0.00339284 0.00412807 0.00177454 0.00466527 0.00291686 0.00666079 0.00238062 0.0217095 0.00233184 0.0081768 0.00220544 0.027237 0.00388859 0.0159139 0.00416143 0.0302201 0.00599058 0.0212466 0.00687994 0.0490256
71 1 Mg 1.29891 11.8725 2.9896 1.2 1 0.00129028 0.00266517 0.00155813 0.00499186 0.00260344 0.00803762 0.00293102 0.0212284 0.00245682 0.00852641 0.00206709 0.0292149 0.00363826 0.0157515 0.00321989 0.0297496 0.00456361 0.0179837 0.00500783 0.0485043
72 1 Mg 4.10033 11.8312 4.4844 1.2 1 0.00131643 0.00322752 0.00209057 0.0046877 0.00259181 0.0073219 0.00288106 0.0214394 0.00253884 0.0082669 0.00267574 0.0290361 0.00395527 0.016864 0.00503166 0.0293736 0.0064119 0.0194794 0.0065835 0.0488227
73 2 Si 2.27333 13.896 4.4844 2.4 1 0.0021335 0.00301869 0.00176772 0.0051732 0.00309268 0.00793294 0.00324567 0.021786 0.00238991 0.00816449 0.00263589 0.027912 0.00384873 0.0160724 0.00422375 0.0297509 0.00546326 0.0193388 0.00636137 0.0496714
74 3 O 2.28634 15.5093 4.4844 -1.2 1 0.00275301 0.00351517 0.00151475 0.00460896 0.00301212 0.00733376 0.00270613 0.0208497 0.00255678 0.00762559 0.00197013 0.0280754 0.00307564 0.0155893 0.00380246 0.0301132 0.00549511 0.0188879 0.00615762 0.0488406
75 3 O -4.34533 12.922 4.4844 -1.2 1 0.00185049 0.00380064 0.00182153 0.00507302 0.00293915 0.00831908 0.00302075 0.0218492 0.00286824 0.00849411 0.00228066 0.0283886 0.00382136 0.0156461 0.00459455 0.0296731 0.00632179 0.0199828 0.00713982 0.0487497
76 3 O 2.98455 13.1899 3.18632 -1.2 1 0.00136075 0.00275079 0.00145131 0.0044905 0.00257013 0.00791042 0.00239463 0.0218613 0.00218511 0.00856216 0.00223744 0.0279435 0.00371956 0.015801 0.00403255 0.0295041 0.00523432 0.018545 0.00536831 0.0489364
77 1 Mg 1.34779 11.8725 0 1.2 1 0.00257146 0.00217817 0.00108104 0.00491292 0.00150544 0.00882027 0.00169233 0.0213155 0.0012921 0.00917652 0.00202822 0.0287862 0.00293604 0.0147621 0.00302746 0.0298553 0.00335664 0.0169399 0.00284357 0.0476113
78 3 O 2.93934 13.1899 5.78248 -1.2 1 0.00276437 0.00361446 0.00164688 0.00500098 0.00288806 0.00715114 0.00271654 0.0217541 0.00240477 0.00818494 0.00292427 0.0269345 0.00422288 0.0160081 0.00462288 0.0300523 0.00612944 0.0214755 0.00705813 0.0490165
79 1 Mg -1.50344 11.9138 1.4948 1.2 1 0.00182129 0.00315944 0.00127592 0.00467405 0.0015579 0.00830233 0.00201278 0.0217568 0.00232859 0.00850997 0.00169554 0.0287624 0.00365367 0.0159009 0.00306722 0.0297207 0.00342606 0.0174561 0.0035964 0.0488065
80 2 Si 0.326006 9.84894 1.4948 2.4 1 0.00153416 0.00272034 0.00103114 0.00496519 0.00207808 0.00806502 0.00210312 0.0213094 0.00201783 0.00849972 0.00160624 0.0285946 0.00299382 0.0154089 0.00348594 0.0287238 0.00379406 0.0176216 0.00350991 0.0480643
81 3 O 0.317364 8.23571 1.4948 -1.2 1 0.00114219 0.00267749 0.00120152 0.00461782 0.00200266 0.00761579 0.00213897 0.0205353 0.00235677 0.00804655 0.00191825 0.0288504 0.0032869 0.0154424 0.00365959 0.028359 0.00429355 0.0177754 0.00410767 0.0470196
82 3 O 6.94307 10.823 1.4948 -1.2 1 0.00128579 0.00322411 0.00109713 0.00472994 0.00210915 0.00764418 0.00271014 0.0219427 0.00227137 0.00836791 0.00157682 0.0294631 0.00311252 0.0156117 0.00329974 0.0297863 0.00367757 0.0179829 0.00409222 0.0486576
83 3 O -0.343122 10.5551 0.196716 -1.2 1 0.00182488 0.00262413 0.00102609 0.00478705 0.00158532 0.00843946 0.00207023 0.0213117 0.00165149 0.00882686 0.00200056 0.0281847 0.00318965 0.0152222 0.00361976 0.0294605 0.00359475 0.0171432 0.00325732 0.0481305
84 3 O -0.385966 10.5551 2.79288 -1.2 1 0.00131632 0.00323159 0.00107268 0.00483525 0.00266698 0.00777773 0.00238449 0.0218392 0.00196459 0.00890155 0.00233277 0.0276981 0.00384851 0.015494 0.00379443 0.0296445 0.00499055 0.0187696 0.00486157 0.048653
85 1 Mg 6.49448 14.247 0 1.2 1 0.00273377 0.00278372 0.00137127 0.00459511 0.00102855 0.00912836 0.00142552 0.0213766 0.00127128 0.00850023 0.00179017 0.028448 0.00173167 0.0154445 0.00239895 0.0298792 0.00281469 0.016196 0.00265504 0.0477206
86 1 Mg 3.74457 18.9547 1.4948 1.2 1 0.00218161 0.00302973 0.00143218 0.00427915 0.00169156 0.00868051 0.00126947 0.0219595 0.0017422 0.00794026 0.0022021 0.0273572 0.00218768 0.01632 0.00321246 0.0290048 0.00352081 0.0161391 0.00285154 0.0490353
87 2 Si 5.55495 16.2705 1.4948 2.4 1 0.00223201 0.00274357 0.00152252 0.00455078 0.00183083 0.00890727 0.00140993 0.021349 0.00127213 0.00790664 0.00129811 0.028414 0.0021913 0.0159972 0.0026801 0.0289601 0.00353245 0.0159806 0.00321646 0.0489133
88 3 O 5.6115 17.8838 1.4948 -1.2 1 0.00199477 0.00292537 0.0015211 0.00446833 0.00183785 0.00920909 0.00163134 0.0215298 0.00159897 0.00781597 0.00132249 0.0282767 0.00192986 0.0163845 0.00257812 0.0290355 0.00311152 0.0157941 0.00321958 0.0488405
89 3 O 1.93416 15.2965 1.4948 -1.2 1 0.00178614 0.00270375 0.0013238 0.0047197 0.00200286 0.00839507 0.00206702 0.0218656 0.00175968 0.00797746 0.00143506 0.028932 0.00212875 0.0161101 0.00269537 0.0295912 0.00379482 0.0164461 0.00325197 0.0491661
90 3 O 4.85636 15.5644 0.196716 -1.2 1 0.0026959 0.00218096 0.00112447 0.0046065 0.00114404 0.00892887 0.00132519 0.0213257 0.00110741 0.00813993 0.0018434 0.0275858 0.00241744 0.0159658 0.00286159 0.0293717 0.00287391 0.0157282 0.0026581 0.048516
91 1 Mg 6.44662 14.247 2.9896 1.2 1 0.00118071 0.00360349 0.00142773 0.00483633 0.00263724 0.00836244 0.00294913 0.0209518 0.00252924 0.00862109 0.00180204 0.0289859 0.00296352 0.0160086 0.00270263 0.0295733 0.00379959 0.01771 0.0045327 0.0486966
92 3 O 4.81537 15.5644 2.79288 -1.2 1 0.00192189 0.00300756 0.00126376 0.00459206 0.00218433 0.00880457 0.00160071 0.0216976 0.00170395 0.00856182 0.00183556 0.0274619 0.00273596 0.0160585 0.00324 0.029383 0.00448457 0.01744 0.00466287 0.0489261
93 1 Mg -0.948271 14.2883 4.4844 1.2 1 0.00288632 0.00363715 0.00166707 0.00465577 0.00285784 0.00757734 0.00256238 0.0215019 0.00263897 0.00811462 0.00258104 0.0281421 0.0031548 0.0163622 0.00443389 0.0299967 0.00555089 0.019082 0.0063031 0.0491946
94 2 Si -2.75928 16.9724 4.4844 2.4 1 0.00265769 0.00343602 0.00166557 0.00448261 0.00291568 0.00782236 0.00279901 0.021486 0.00251101 0.00782216 0.00236232 0.0272772 0.00314759 0.0162417 0.00388825 0.0294123 0.00514744 0.018458 0.00575473 0.0493866
95 3 O -2.81617 15.3592 4.4844 -1.2 1 0.00277215 0.00369757 0.00165782 0.00455416 0.00304243 0.00765029 0.00302167 0.0207755 0.0026251 0.00760467 0.00210055 0.0280656 0.00345121 0.0153365 0.00363386 0.0300733 0.00566325 0.01856 0.00640186 0.0490555
96 3 O 0.862762 17.9465 4.4844 -1.2 1 0.00316303 0.00341903 0.00122808 0.00487976 0.00285521 0.00859134 0.00245946 0.0218257 0.0025404 0.00783022 0.00206948 0.0278474 0.00346342 0.0164912 0.00418753 0.0289431 0.0057658 0.018458 0.00618333 0.0490064
97 3 O -2.0185 17.6786 3.18632 -1.2 1 0.00243217 0.00342877 0.00193583 0.00438618 0.00298394 0.00772716 0.0023511 0.0219757 0.00233232 0.0076791 0.0018217 0.0272356 0.00305017 0.0161489 0.00367476 0.0294988 0.00480334 0.0173923 0.00504363 0.0497817
98 3 O -2.06164 17.6786 5.78248 -1.2 1 0.003594 0.00395841 0.00140216 0.00438756 0.00286395 0.00698679 0.00234466 0.02146 0.00238952 0.00780285 0.00241159 0.0265118 0.00303115 0.0163014 0.00438597 0.0301406 0.00597822 0.0203231 0.00618958 0.0491452
99 1 Mg 1.39817 16.6215 2.9896 1.2 1 0.00226408 0.00284919 0.00144892 0.00457102 0.00251961 0.00848174 0.00276532 0.0211752 0.00249078 0.00805403 0.0018146 0.0282552 0.00261441 0.0164016 0.00307723 0.0294787 0.00417114 0.0166628 0.00456023 0.0486426
100 1 Mg 4.20062 16.5802 4.4844 1.2 1 0.0022197 0.00333122 0.00176838 0.00450932 0.00275542 0.00776169 0.00241257 0.0213713 0.00288259 0.00787523 0.00286457 0.0273398 0.00317959 0.0168768 0.00519498 0.0295648 0.00629141 0.0186638 0.00614964 0.0490189
101 2 Si 2.37796 18.645 4.4844 2.4 1 0.00291258 0.00312208 0.00139435 0.00451344 0.00294508 0.00779829 0.00287854 0.0217709 0.0025597 0.0078511 0.00230285 0.0270199 0.00331253 0.0168388 0.0041757 0.0291806 0.00517955 0.0180811 0.00591855 0.0496982
102 3 O 2.39434 20.2583 4.4844 -1.2 1 0.00305281 0.00349943 0.0013463 0.00436316 0.00286403 0.00684766 0.00271418 0.0207865 0.00276943 0.007573 0.00184165 0.0272691 0.0028675 0.0164801 0.00388114 0.0295249 0.00557111 0.0177837 0.00654528 0.0489921
103 3 O -4.24274 17.671 4.4844 -1.2 1 0.00241778 0.00392073 0.00169623 0.00448136 0.00299978 0.00869484 0.00258732 0.0216154 0.00285439 0.00794906 0.00220685 0.0276139 0.00318278 0.0160998 0.00444399 0.029442 0.00610296 0.018616 0.00626855 0.0488966
104 3 O 3.08659 17.9389 3.18632 -1.2 1 0.00251426 0.00268727 0.00133333 0.00416521 0.00257644 0.00784706 0.00194964 0.0217434 0.00240226 0.00802039 0.00197861 0.0268658 0.00298887 0.0163141 0.00397255 0.0296429 0.00518186 0.0173813 0.00527373 0.0491735
105 1 Mg 1.44478 16.6215 0 1.2 1 0.00273785 0.00227577 0.00113586 0.00472718 0.00128989 0.00900395 0.00128762 0.0213799 0.00151473 0.0080675 0.00159846 0.0280119 0.00230469 0.0155837 0.00217272 0.0293803 0.00271132 0.0157726 0.00262674 0.0484229
106 3 O 3.0436 17.9389 5.78248 -1.2 1 0.00291971 0.00385898 0.00135305 0.00477307 0.00280091 0.00713293 0.00237143 0.0213057 0.0024937 0.00780899 0.00259896 0.0260432 0.00337704 0.0163814 0.00490163 0.0299114 0.00631867 0.0205389 0.00637905 0.0489502
107 1 Mg -1.40524 16.6628 1.4948 1.2 1 0.00169023 0.00291864 0.00144178 0.00464155 0.00177418 0.00877342 0.00185589 0.0220972 0.00207973 0.00806849 0.00195448 0.0280506 0.00296462 0.0164554 0.00290874 0.0293745 0.00260269 0.016392 0.00300426 0.0489265
108 2 Si 0.420358 14.5979 1.4948 2.4 1 0.00151775 0.0025597 0.0012999 0.00505707 0.00230046 0.00906827 0.00208431 0.0214475 0.00170866 0.00820925 0.00164618 0.0283032 0.00284921 0.0163789 0.00335055 0.0287239 0.00336101 0.0161694 0.0032295 0.0487379
109 3 O 0.408732 12.9847 1.4948 -1.2 1 0.00118196 0.00244295 0.00113784 0.00506357 0.00204328 0.0091013 0.00158581 0.0213272 0.00211745 0.00846981 0.00162209 0.0289892 0.00308597 0.015905 0.00281719 0.029497 0.00323756 0.0167791 0.0036738 0.0486001
110 3 O 7.03923 15.572 1.4948 -1.2 1 0.0014751 0.00312675 0.00140205 0.00461763 0.00205815 0.00841634 0.0023389 0.0217885 0.00213619 0.00801062 0.00155881 0.0291132 0.00237833 0.0161597 0.00258085 0.0295979 0.00302912 0.0166817 0.00354679 0.049134
111 3 O -0.248332 15.3041 0.196716 -1.2 1 0.00211418 0.00235871 0.000961707 0.00490354 0.00123527 0.00899092 0.00185061 0.0210779 0.00158731 0.00816163 0.00182056 0.0276842 0.00257904 0.0157975 0.00339911 0.0292562 0.0027831 0.0156831 0.00282704 0.0484944
112 3 O -0.289436 15.3041 2.79288 -1.2 1 0.00247056 0.00311819 0.00130535 0.00456841 0.0024792 0.00868656 0.00210914 0.0220218 0.00187804 0.0085804 0.00186535 0.0274289 0.0029018 0.0161313 0.00330977 0.0293062 0.00448174 0.0175964 0.00474039 0.0491365
113 1 Mg 6.59566 18.996 0 1.2 1 0.00193525 0.00279022 0.00133892 0.0043427 0.000832413 0.00868102 0.00114935 0.0217884 0.00129188 0.00773761 0.00150621 0.0276537 0.00194357 0.0162615 0.00216228 0.0286261 0.00254568 0.0157167 0.00275242 0.0482852
114 1 Mg 3.85574 23.7037 1.4948 1.2 1 0.00254393 0.00278352 0.00108335 0.00420381 0.00170511 0.0075707 0.00128461 0.0228097 0.0016328 0.00747232 0.0017496 0.0266008 0.00210907 0.0171961 0.00344746 0.028625 0.00347696 0.0170175 0.00344997 0.049774
115 2 Si 5.66125 21.0195 1.4948 2.4 1 0.00223886 0.00281779 0.00107641 0.00418083 0.00188467 0.00811926 0.00145058 0.0216689 0.00125833 0.00742406 0.00145439 0.0273536 0.00224953 0.0170679 0.0026083 0.0282305 0.00346084 0.0157681 0.00382965 0.0493322
116 3 O 5.72074 22.6328 1.4948 -1.2 1 0.00256601 0.00289147 0.00127929 0.0041683 0.0016666 0.00829647 0.0015904 0.0220196 0.00169143 0.00722689 0.00118869 0.027256 0.00217946 0.0170147 0.00302795 0.0285899 0.00339995 0.016223 0.00359239 0.0492989
117 3 O 2.03867 20.0455 1.4948 -1.2 1 0.00199711 0.00313783 0.00157244 0.00446153 0.00174454 0.00805635 0.00199143 0.0219668 0.00202334 0.0073992 0.00129395 0.0280367 0.00196556 0.0170891 0.00236349 0.028954 0.00355302 0.016011 0.00346632 0.0494849
118 3 O 4.96004 20.3134 0.196716 -1.2 1 0.00187372 0.00247012 0.00111357 0.0041791 0.00110306 0.00835397 0.000901461 0.0215727 0.00111944 0.00734591 0.00154613 0.0272195 0.0023607 0.0164696 0.00340761 0.0288468 0.00290946 0.0152201 0.00281477 0.0487639
119 1 Mg 6.55057 18.996 2.9896 1.2 1 0.00180725 0.00335119 0.001444 0.00436665 0.00265315 0.00812632 0.00271956 0.0210705 0.002514 0.00814591 0.0016643 0.0282655 0.00246194 0.0165473 0.00281921 0.0288367 0.00385788 0.0168698 0.00430494 0.0489262