ITEM: TIMESTEP
58800
ITEM: NUMBER OF ATOMS
10500
ITEM: BOX BOUNDS xy xz yz pp pp pp
0	15.2977	5.09925
0	118.725	0
0	89.688	0
ITEM: ATOMS id type element xu yu zu q Q_1 Q_2 Q_3 Q_4 Q_5 Q_6 Q_7 Q_8 Q_9 Q_10 Q_11 Q_12 Q_13 Q_14 Q_15 Q_16 Q_17 Q_18 Q_19 Q_20 Q_21
1 1 Mg 6.2404 -6.37941e-06 0 1.2 1 0.00148876 0.00438139 0.00139872 0.00467137 0.00106702 0.00539487 0.00209575 0.0160531 0.00228541 0.00559568 0.00210004 0.0216811 0.00233367 0.0136293 0.00306894 0.0208371 0.00407378 0.0139404 0.00376628 0.0406723
2 1 Mg 3.46349 4.70768 1.4948 1.2 1 0.0014249 0.00361684 0.00179297 0.00429025 0.00181639 0.00592176 0.00329856 0.0186896 0.00296584 0.00689143 0.00285026 0.02553 0.0027978 0.0139653 0.00433329 0.0252275 0.00554475 0.0168857 0.00586595 0.0440478
3 2 Si 5.2885 2.02354 1.4948 2.4 1 0.00112444 0.00362028 0.00223881 0.00440197 0.00167814 0.00573756 0.002338 0.0169172 0.00242191 0.00597173 0.0021927 0.0230672 0.00253328 0.0136008 0.0033784 0.0216358 0.0039248 0.015137 0.00423983 0.0413575
4 3 O 5.33628 3.63678 1.4948 -1.2 1 0.000927393 0.00310441 0.0019459 0.00460978 0.00191265 0.00610337 0.00269736 0.017783 0.00238871 0.00665037 0.00192643 0.0249817 0.00234961 0.0136647 0.00421979 0.0241476 0.0051584 0.0161907 0.00571851 0.0429514
5 3 O 1.67294 1.04952 1.4948 -1.2 1 0.00226413 0.00377393 0.00181401 0.00399931 0.00110685 0.00565168 0.00234586 0.0167951 0.00232206 0.00588159 0.00210311 0.0223404 0.00229551 0.012963 0.00321466 0.021891 0.00467192 0.0152422 0.00489638 0.0401808
6 3 O 4.59532 1.31737 0.196716 -1.2 1 0.00162914 0.00305074 0.00224038 0.00413735 0.00177326 0.00555871 0.0022326 0.0170886 0.00287667 0.00602135 0.00194469 0.0222104 0.00300162 0.0129137 0.00388907 0.0216267 0.00395684 0.0146034 0.00431771 0.0411754
7 1 Mg 6.18956 -6.37941e-06 2.9896 1.2 1 0.00112613 0.00471246 0.00127352 0.00386106 0.00123275 0.0055168 0.00245468 0.0159829 0.0027122 0.00548728 0.00190719 0.0218714 0.00271717 0.0135207 0.00345575 0.0205496 0.00456753 0.0141624 0.00509717 0.0387523
8 3 O 4.55118 1.31737 2.79288 -1.2 1 0.00144537 0.00469154 0.00181893 0.00405631 0.00169738 0.0053994 0.00258194 0.016653 0.00254727 0.00668294 0.00239696 0.0212643 0.0031897 0.0123554 0.0033344 0.0214526 0.00502666 0.015127 0.00548634 0.0395057
9 1 Mg -1.20682 0.0413099 4.4844 1.2 1 0.000675225 0.00341587 0.0015123 0.0043842 0.00114658 0.00523551 0.00204893 0.0159426 0.00215701 0.00583346 0.00213393 0.0219883 0.00273793 0.0115644 0.00338711 0.0204471 0.00522095 0.0147584 0.00499438 0.0380139
10 2 Si -3.0337 2.72544 4.4844 2.4 1 0.000731074 0.0037876 0.00147795 0.00462843 0.0020395 0.00571868 0.00308768 0.016402 0.00315569 0.00613244 0.00229703 0.0235851 0.00290064 0.0130497 0.00404225 0.0224429 0.0053509 0.0170482 0.0061045 0.0390737
11 3 O -3.08099 1.11221 4.4844 -1.2 1 0.000567763 0.00409332 0.00155054 0.00405976 0.00120579 0.00499039 0.00215456 0.015814 0.00266321 0.00571567 0.00221784 0.0218301 0.00314903 0.011447 0.00356576 0.0212658 0.00495842 0.0156174 0.00534694 0.0376598
12 3 O 0.582463 3.69946 4.4844 -1.2 1 0.00187216 0.00484738 0.00206053 0.00433624 0.00239768 0.00641542 0.00346125 0.0169241 0.00355818 0.00653692 0.00321301 0.0244927 0.00400313 0.0132131 0.00457131 0.0240062 0.00700764 0.0181167 0.00800445 0.0410949
13 3 O -2.29524 3.43162 3.18632 -1.2 1 0.000824012 0.00340132 0.00232679 0.00427572 0.00207599 0.00580535 0.00272018 0.0175764 0.00311818 0.00662271 0.00267108 0.024089 0.00300842 0.0130065 0.00460606 0.0242162 0.00593757 0.0175808 0.00666569 0.0415354
14 3 O -2.34216 3.43162 5.78248 -1.2 1 0.00214171 0.00397023 0.000957012 0.00459599 0.00235718 0.00537428 0.00322648 0.0165569 0.0029637 0.00679301 0.00271895 0.0230928 0.00390521 0.0124466 0.00434173 0.0233599 0.00637295 0.0186505 0.00715372 0.0394071
15 1 Mg 1.12778 2.37449 2.9896 1.2 1 0.00164044 0.00407222 0.00213037 0.00439722 0.00199845 0.00568477 0.0027997 0.0165415 0.0027524 0.00614435 0.00226034 0.0231025 0.0028396 0.0131731 0.00331444 0.0218276 0.00503998 0.0159819 0.00562839 0.0405652
16 1 Mg 3.92855 2.33318 4.4844 1.2 1 0.00166674 0.00468431 0.00145192 0.00406588 0.00166137 0.00535912 0.00343751 0.0165025 0.0031849 0.00627422 0.00304059 0.0223961 0.0035188 0.0135363 0.0050747 0.0217362 0.00639095 0.0165815 0.00714147 0.0396604
17 2 Si 2.09341 4.39804 4.4844 2.4 1 0.00173926 0.00442349 0.00194039 0.00401359 0.00265004 0.00579154 0.00353039 0.0178607 0.00357866 0.00674866 0.00315226 0.0245014 0.00413753 0.0140591 0.00430775 0.0244228 0.00693406 0.0180846 0.00843096 0.0428937
18 3 O 2.09991 6.01128 4.4844 -1.2 1 0.00287805 0.00479991 0.00151097 0.00371077 0.00254242 0.00641217 0.00316004 0.0188851 0.00280691 0.00709445 0.00302854 0.0262681 0.00387247 0.014312 0.00473659 0.0271818 0.00687928 0.0191042 0.0080996 0.0448381
19 3 O -4.52137 3.42402 4.4844 -1.2 1 0.00160552 0.00416932 0.0019368 0.00428708 0.00208868 0.00666549 0.00337905 0.0166848 0.00317021 0.00627763 0.00307545 0.0234061 0.00376634 0.0128903 0.00415113 0.0227326 0.00616907 0.0171236 0.00726241 0.0405256
20 3 O 2.80834 3.69187 3.18632 -1.2 1 0.00156697 0.00394054 0.00177814 0.00355481 0.00178967 0.00563773 0.00298116 0.0172792 0.00307381 0.00643577 0.00264884 0.0239107 0.00326385 0.0130131 0.00455849 0.0236773 0.0058581 0.0165237 0.00648962 0.0421952
21 1 Mg 1.17857 2.37449 0 1.2 1 0.00266337 0.00357899 0.00164055 0.00387896 0.00145549 0.00532479 0.00235618 0.0171273 0.00241332 0.00646178 0.00264136 0.0230106 0.00245613 0.0131916 0.00318852 0.0219347 0.00425203 0.0145668 0.00469271 0.0412167
22 3 O 2.76143 3.69187 5.78248 -1.2 1 0.00204926 0.00491658 0.00189156 0.00398843 0.00201331 0.00523697 0.00274009 0.0168707 0.00347729 0.00711561 0.00307997 0.0226779 0.00431678 0.0130987 0.0058193 0.0229962 0.00684557 0.0182404 0.00760431 0.0400034
23 1 Mg -1.67381 2.41581 1.4948 1.2 1 0.00181264 0.00297181 0.00223176 0.0045857 0.00134862 0.00588269 0.00226022 0.0164923 0.00294071 0.00625875 0.00184129 0.0236997 0.00221929 0.014135 0.00267813 0.0223083 0.00458138 0.0158748 0.00510379 0.0416288
24 2 Si 0.16286 0.350945 1.4948 2.4 1 0.00234031 0.00301932 0.00237082 0.0041942 0.00117074 0.00626951 0.00266587 0.0163742 0.00229277 0.00519546 0.00191037 0.0226129 0.00210692 0.013732 0.00284269 0.0209061 0.00475666 0.0145014 0.00447461 0.04059
25 3 O 0.15972 -1.26229 1.4948 -1.2 1 0.00195151 0.00311928 0.00261407 0.00425246 0.00163956 0.00594109 0.00252523 0.0162821 0.00224482 0.00540588 0.00249134 0.0222216 0.00256975 0.0139785 0.0026424 0.0217226 0.00436092 0.0142684 0.0039543 0.0407787
26 3 O 6.77654 1.32496 1.4948 -1.2 1 0.00155083 0.00391465 0.00150702 0.00428542 0.0010784 0.00592781 0.00224382 0.0166543 0.00254331 0.00539012 0.00176759 0.0233761 0.00258326 0.0137088 0.00330414 0.0219396 0.00483505 0.0150901 0.00454481 0.040761
27 3 O -0.508028 1.05712 0.196716 -1.2 1 0.00203339 0.00292993 0.00279998 0.00390519 0.0012907 0.00548028 0.00238472 0.0170723 0.0018401 0.00651904 0.00250828 0.0217183 0.00250017 0.0130619 0.00288831 0.0214461 0.00435232 0.0147775 0.00423387 0.0403447
28 3 O -0.552171 1.05712 2.79288 -1.2 1 0.00110966 0.00300367 0.00246644 0.00420478 0.00128392 0.00582936 0.00227837 0.0160363 0.00244171 0.00629757 0.00169566 0.0221264 0.0025318 0.0119102 0.00321977 0.0214773 0.00543595 0.0153318 0.00523073 0.0390987
29 1 Mg 6.31713 4.74899 0 1.2 1 0.00136264 0.00267633 0.00191696 0.0047715 0.00216374 0.00605829 0.0032526 0.01792 0.0028708 0.00687439 0.00210233 0.0253011 0.00254404 0.0136005 0.00393255 0.024828 0.00462219 0.0162158 0.00581603 0.0433023
30 1 Mg 3.54847 9.45668 1.4948 1.2 1 0.00134722 0.00350454 0.00158775 0.0043951 0.00214213 0.00752036 0.00299876 0.021399 0.00176089 0.00837312 0.00219512 0.0282492 0.00303795 0.0155455 0.00377132 0.0292572 0.00411914 0.0179768 0.00385021 0.0487247
31 2 Si 5.36879 6.77254 1.4948 2.4 1 0.00070947 0.00315461 0.00180855 0.00507653 0.00267851 0.00668825 0.00354406 0.0196097 0.00283835 0.00783755 0.00258582 0.0275196 0.00299047 0.0151328 0.00413738 0.0271299 0.00482861 0.0171268 0.00523854 0.046688
32 3 O 5.41937 8.38578 1.4948 -1.2 1 0.00131136 0.00340943 0.00142734 0.00490628 0.00220419 0.00771214 0.00290532 0.0209624 0.00237347 0.00823519 0.00244505 0.0287785 0.00224089 0.0154263 0.00328321 0.0293518 0.00470973 0.0175751 0.00482456 0.0480855
33 3 O 1.75158 5.79852 1.4948 -1.2 1 0.00140414 0.00347982 0.00169687 0.00406812 0.00239899 0.00587947 0.00302253 0.0194717 0.0029198 0.00724764 0.0025705 0.027677 0.00266294 0.0154073 0.00349272 0.0267901 0.00543883 0.0174216 0.00556029 0.0458016
34 3 O 4.67421 6.06637 0.196716 -1.2 1 0.00103596 0.00294069 0.00149772 0.00472533 0.00188028 0.00678753 0.00280478 0.0197782 0.00258208 0.00795549 0.00211064 0.0262456 0.00311895 0.0141951 0.00385705 0.0268101 0.00462284 0.0165859 0.0053153 0.0455818
35 1 Mg 6.26654 4.74899 2.9896 1.2 1 0.00144589 0.0035648 0.00205079 0.00467253 0.00241344 0.00630902 0.00351129 0.0178689 0.00381694 0.00710805 0.00231554 0.0257474 0.00351013 0.0144691 0.00506146 0.0248891 0.00600709 0.017504 0.00711446 0.0433572
36 3 O 4.63043 6.06637 2.79288 -1.2 1 0.00207636 0.00376786 0.00199332 0.00472224 0.00222948 0.00653956 0.0032383 0.0195282 0.00342841 0.00775347 0.00230466 0.0258849 0.00371074 0.0145226 0.00462836 0.027268 0.00608511 0.0179938 0.00700385 0.0453521
37 1 Mg -1.12976 4.79031 4.4844 1.2 1 0.00213311 0.00421494 0.00161566 0.0045592 0.00219169 0.00608682 0.00311341 0.0177441 0.00349249 0.0070513 0.00307244 0.0254385 0.0037816 0.0142275 0.00467095 0.0255464 0.00759912 0.0188514 0.00779495 0.0435481
38 2 Si -2.9517 7.47444 4.4844 2.4 1 0.0029231 0.00426802 0.00142257 0.00487289 0.0027085 0.00637566 0.00368331 0.020005 0.00318624 0.00770999 0.00296411 0.0271531 0.00445694 0.015788 0.00538839 0.0279635 0.00681908 0.0188273 0.00802857 0.0468504
39 3 O -3.00198 5.86121 4.4844 -1.2 1 0.0022846 0.00448 0.00138858 0.00455846 0.00289752 0.00615426 0.00385663 0.0185506 0.00342495 0.00751522 0.00272536 0.025528 0.00431046 0.0138859 0.00478773 0.0267787 0.00710261 0.0192454 0.00800215 0.044653
40 3 O 0.666315 8.44846 4.4844 -1.2 1 0.00342616 0.00491649 0.00143354 0.00450878 0.00258462 0.00741936 0.00273555 0.0209367 0.00294115 0.0077569 0.00332521 0.0278609 0.00445408 0.0156836 0.00461247 0.0288711 0.0064337 0.0195582 0.00790851 0.0480131
41 3 O -2.21213 8.18062 3.18632 -1.2 1 0.00249626 0.00440821 0.00155506 0.00428905 0.00248365 0.00625366 0.00272168 0.0207049 0.00280957 0.00790004 0.00281101 0.0273024 0.00421118 0.0156776 0.00495962 0.0288453 0.00598677 0.0187078 0.00664945 0.0482602
42 3 O -2.25864 8.18062 5.78248 -1.2 1 0.00409104 0.00448592 0.00148841 0.00444453 0.002924 0.00591536 0.00321947 0.0199359 0.0023508 0.00797416 0.00374199 0.0263613 0.00436092 0.0159068 0.00582368 0.0292837 0.00710155 0.0204822 0.00804356 0.0479258
43 1 Mg 1.20893 7.12349 2.9896 1.2 1 0.0019243 0.00414365 0.0018386 0.00429399 0.00259922 0.00658562 0.00356197 0.0194387 0.00282317 0.00791312 0.00262653 0.0277563 0.00341568 0.015807 0.00386364 0.0274268 0.00564698 0.018059 0.00624137 0.0466633
44 1 Mg 4.00982 7.08218 4.4844 1.2 1 0.00257894 0.00439711 0.00168654 0.00432907 0.00247331 0.00636214 0.00373586 0.0198525 0.00336114 0.00743498 0.00321017 0.0267904 0.00414405 0.0162537 0.0058655 0.0281923 0.00724457 0.0189669 0.00816893 0.0466762
45 2 Si 2.17861 9.14704 4.4844 2.4 1 0.00353275 0.00437992 0.00175921 0.00448009 0.00267562 0.00724298 0.00362247 0.0208739 0.00274382 0.00782647 0.0031957 0.0276363 0.00447045 0.0165268 0.00467686 0.0293145 0.00588968 0.0191474 0.00705291 0.0495582
46 3 O 2.18828 10.7603 4.4844 -1.2 1 0.00437464 0.004575 0.00207842 0.00404044 0.00251233 0.00705562 0.00307783 0.0208548 0.00222866 0.00790271 0.00228669 0.0281723 0.00422063 0.0157521 0.00479942 0.0303112 0.00574898 0.0194617 0.00658082 0.0502272
47 3 O -4.43805 8.17302 4.4844 -1.2 1 0.00277062 0.00463029 0.00174288 0.0047027 0.00243956 0.00754144 0.0033258 0.0204619 0.00318757 0.00818637 0.00324635 0.0277162 0.00448594 0.0156557 0.00490161 0.0292567 0.00673885 0.019262 0.00854015 0.0476166
48 3 O 2.89193 8.44087 3.18632 -1.2 1 0.0027812 0.00398813 0.00180125 0.00419369 0.00239383 0.00687839 0.00309268 0.0203871 0.00278858 0.00828071 0.0026891 0.0272876 0.00368748 0.0158492 0.00467773 0.02909 0.00594661 0.0184185 0.00570633 0.0485856
49 1 Mg 1.25915 7.12349 0 1.2 1 0.00111819 0.00268258 0.00121343 0.00401923 0.00177112 0.00708178 0.00279598 0.0202012 0.00299085 0.00797007 0.00249214 0.0275133 0.00323958 0.0141776 0.0033185 0.0275792 0.00442749 0.0174198 0.0041299 0.0465438
50 3 O 2.84547 8.44087 5.78248 -1.2 1 0.00376673 0.00488883 0.0016516 0.00412949 0.00227318 0.00641033 0.00321771 0.020545 0.00297373 0.00819411 0.00314097 0.0261542 0.00523931 0.015962 0.0053349 0.029241 0.00633601 0.0206077 0.00780874 0.0482445
51 1 Mg -1.59284 7.16481 1.4948 1.2 1 0.00105038 0.00366647 0.00126994 0.0045127 0.00193256 0.0063499 0.00255451 0.0198998 0.0029994 0.00764496 0.0017971 0.0276018 0.00326024 0.0154285 0.00373315 0.0272117 0.0047214 0.0175462 0.0056145 0.0467089
52 2 Si 0.240329 5.09994 1.4948 2.4 1 0.00158087 0.00378241 0.00165173 0.0039099 0.00189772 0.00667208 0.0028768 0.0188828 0.00313749 0.00714587 0.00225472 0.0258378 0.00252617 0.0144748 0.00399254 0.02486 0.00519093 0.0167901 0.00534924 0.0448968
53 3 O 0.234538 3.48671 1.4948 -1.2 1 0.00197587 0.00404653 0.00209621 0.00418025 0.00183406 0.00635522 0.00242232 0.0177555 0.0033977 0.00679794 0.00224707 0.0241696 0.0028593 0.0137007 0.00363859 0.0240973 0.00557849 0.0159087 0.00554133 0.0424547
54 3 O 6.85564 6.07396 1.4948 -1.2 1 0.00105771 0.0032361 0.00200932 0.00478111 0.00241247 0.00591773 0.00277664 0.0199159 0.00322994 0.00747338 0.00213097 0.0274247 0.00322991 0.0144883 0.00484744 0.0270794 0.00560667 0.0177144 0.00638979 0.0454817
55 3 O -0.429565 5.80612 0.196716 -1.2 1 0.00125287 0.00318453 0.00177721 0.00400723 0.00177587 0.0069852 0.00244117 0.0193349 0.00293642 0.00811794 0.00235619 0.0257193 0.00238614 0.0139624 0.00368984 0.0261334 0.00511864 0.0166863 0.00569319 0.0454854
56 3 O -0.473377 5.80612 2.79288 -1.2 1 0.00188557 0.00396923 0.00162427 0.00417319 0.00221379 0.00658354 0.00286221 0.0190475 0.00319749 0.007816 0.00299842 0.0255627 0.00355507 0.0143744 0.00441984 0.0263406 0.00649906 0.0183214 0.00678892 0.0453648
57 1 Mg 6.40169 9.49799 0 1.2 1 0.000486971 0.0035102 0.00132035 0.00444815 0.00155197 0.00827629 0.00196203 0.0210055 0.00167683 0.00881118 0.00183908 0.0286184 0.00221254 0.0147835 0.0027636 0.0298029 0.00357724 0.0178321 0.00359809 0.0479481
58 1 Mg 3.64209 14.2057 1.4948 1.2 1 0.00223074 0.00338921 0.00141153 0.00432062 0.00159008 0.00874311 0.0016592 0.0214623 0.00155218 0.00857016 0.00223436 0.0278117 0.00264813 0.016119 0.00312921 0.0297241 0.003411 0.0167507 0.00325879 0.0493935
59 2 Si 5.45748 11.5215 1.4948 2.4 1 0.00236483 0.00330237 0.00155256 0.00444966 0.00179832 0.00823341 0.00209235 0.0210073 0.00147026 0.00819085 0.00176621 0.0285459 0.00257611 0.0161778 0.00333947 0.0294046 0.00409874 0.0167945 0.00357983 0.0492215
60 3 O 5.51101 13.1348 1.4948 -1.2 1 0.0024924 0.00344621 0.00153549 0.0044538 0.0015748 0.00903671 0.00176889 0.0211253 0.00175166 0.00863335 0.00168651 0.0289077 0.00221223 0.0162791 0.00289773 0.0299371 0.00362617 0.0165407 0.00332414 0.049106
61 3 O 1.83851 10.5475 1.4948 -1.2 1 0.0014351 0.00357486 0.00162403 0.00456288 0.0018276 0.0077275 0.00226777 0.021661 0.00178286 0.00838745 0.00217671 0.0291165 0.00255534 0.0158687 0.00346644 0.0298871 0.00416433 0.0175837 0.00330198 0.0493332
62 3 O 4.7611 10.8154 0.196716 -1.2 1 0.00069028 0.00304694 0.00178848 0.00438017 0.00160071 0.00848737 0.00206407 0.0212683 0.00155122 0.00870855 0.00188619 0.027941 0.0027805 0.0156023 0.00381853 0.0296217 0.0036846 0.0171056 0.00325497 0.0485592
63 1 Mg 6.35203 9.49799 2.9896 1.2 1 0.00228076 0.00400752 0.00141526 0.0046329 0.00263046 0.00753649 0.00313994 0.0204878 0.00302005 0.00849664 0.00222638 0.028923 0.00375007 0.016028 0.00350516 0.029251 0.00462694 0.0183927 0.00549181 0.0485352
64 3 O 4.71833 10.8154 2.79288 -1.2 1 0.00346151 0.00371045 0.00167014 0.00430888 0.00209388 0.00822379 0.00225174 0.0213889 0.00198544 0.008829 0.00207006 0.0279047 0.00360238 0.0160095 0.00421718 0.0303174 0.00521362 0.0181748 0.005254 0.0499532
65 1 Mg -1.0438 9.53931 4.4844 1.2 1 0.00390978 0.00469598 0.00159832 0.00428998 0.00280087 0.00654303 0.00265001 0.0207117 0.00263992 0.00809932 0.00281588 0.0280852 0.00409306 0.0165036 0.00455952 0.0297548 0.00649452 0.0194827 0.00697321 0.0497472
66 2 Si -2.8604 12.2234 4.4844 2.4 1 0.00435117 0.00403869 0.00173363 0.00422954 0.00263517 0.00762978 0.00317253 0.0217451 0.00268388 0.00826441 0.00243392 0.0277469 0.00415929 0.0164622 0.00478103 0.0300196 0.00569272 0.0191182 0.00637127 0.0513772
67 3 O -2.91391 10.6102 4.4844 -1.2 1 0.004215 0.00435242 0.00176822 0.00432307 0.00275693 0.0069881 0.0031186 0.0204666 0.00248413 0.00762506 0.0021284 0.0281196 0.0042216 0.0157503 0.00443062 0.0305321 0.00579914 0.0194285 0.00657938 0.0501707
68 3 O 0.7596 13.1975 4.4844 -1.2 1 0.00485536 0.00394988 0.00197577 0.00423767 0.00262129 0.00842884 0.00249992 0.0221588 0.00244848 0.00824633 0.00301684 0.0280456 0.00440955 0.0162794 0.0042596 0.0298566 0.00576416 0.0190877 0.00626903 0.0509347
69 3 O -2.12001 12.9296 3.18632 -1.2 1 0.00414584 0.00379529 0.00155152 0.00382098 0.00234509 0.00748959 0.00223773 0.0216354 0.00217538 0.0082155 0.00252647 0.0274896 0.00379899 0.0162433 0.00479388 0.0301813 0.00526557 0.0182303 0.00540498 0.0505711
70 3 O -2.16532 12.9296 5.78248 -1.2 1 0.00546695 0.00408429 0.00177595 0.0039206 0.00270475 0.00653204 0.00242957 0.0214943 0.00218247 0.00774271 0.00255998 0.0270156 0.00397401 0.01664 0.00458486 0.0308432 0.00566534 0.0203349 0.00630586 0.0517963
71 1 Mg 1.29891 11.8725 2.9896 1.2 1 0.00322538 0.00357083 0.00188866 0.00439859 0.00231247 0.00797662 0.00270725 0.02095 0.00234751 0.00854501 0.0023273 0.0287673 0.00360803 0.0161495 0.00379675 0.0298123 0.00451792 0.0176744 0.00454833 0.0494769
72 1 Mg 4.10033 11.8312 4.4844 1.2 1 0.00434214 0.00381012 0.00209588 0.00395022 0.00223152 0.00734435 0.00269599 0.0214085 0.00247997 0.00817548 0.00279918 0.0281594 0.00398433 0.0170915 0.00566751 0.0301114 0.00643862 0.019093 0.00610065 0.0505961
73 2 Si 2.27333 13.896 4.4844 2.4 1 0.00486794 0.00351675 0.00167294 0.00442398 0.00267872 0.0078112 0.00307625 0.0214832 0.00239148 0.00799406 0.00302703 0.0275419 0.00411803 0.016584 0.00461336 0.0298041 0.00550576 0.0186793 0.00588983 0.0513961
74 3 O 2.28634 15.5093 4.4844 -1.2 1 0.00525519 0.00390157 0.00165533 0.00400388 0.00288155 0.00713388 0.00285934 0.020603 0.00242804 0.00739253 0.00227003 0.0277313 0.00321994 0.0160134 0.00398971 0.0301909 0.00547012 0.0182348 0.00613757 0.0507737
75 3 O -4.34533 12.922 4.4844 -1.2 1 0.00455872 0.00405986 0.0018704 0.00426368 0.00251977 0.00838723 0.0029093 0.0215754 0.00256777 0.00816825 0.00265395 0.0281128 0.00402039 0.0164165 0.00502578 0.030117 0.00628299 0.0192677 0.00689899 0.0506126
76 3 O 2.98455 13.1899 3.18632 -1.2 1 0.004013 0.00355196 0.00167404 0.00389848 0.00235177 0.00771403 0.00215367 0.0217315 0.00201916 0.00844107 0.00238236 0.0274019 0.00373354 0.0159166 0.00457706 0.0300651 0.00549858 0.018251 0.00536832 0.0502105
77 1 Mg 1.34779 11.8725 0 1.2 1 0.00122026 0.00290536 0.00126932 0.00460157 0.00135158 0.00886216 0.00154863 0.0213895 0.00114382 0.00919488 0.00188684 0.0285331 0.00271306 0.0150675 0.00311353 0.0300195 0.00308406 0.0172471 0.00296761 0.048009
78 3 O 2.93934 13.1899 5.78248 -1.2 1 0.00516051 0.00391907 0.00184995 0.00395657 0.00249493 0.00685144 0.00263235 0.0214237 0.00223115 0.00786206 0.00269307 0.0268099 0.00407671 0.0166523 0.00461971 0.0306349 0.00559347 0.0206269 0.00640727 0.0515449
79 1 Mg -1.50344 11.9138 1.4948 1.2 1 0.00174695 0.00338861 0.00130448 0.00414998 0.00155616 0.00819581 0.00178568 0.0216208 0.0023155 0.00852163 0.00152242 0.0283365 0.00361449 0.0160582 0.00329592 0.0297216 0.00351288 0.0174422 0.00357347 0.0490011
80 2 Si 0.326006 9.84894 1.4948 2.4 1 0.000889249 0.00336501 0.0013309 0.0047517 0.00191042 0.00812015 0.00189507 0.0210872 0.00205634 0.00835814 0.00163797 0.0284443 0.00293976 0.0156905 0.00365401 0.0290751 0.0040009 0.0176418 0.00335617 0.0487766
81 3 O 0.317364 8.23571 1.4948 -1.2 1 0.00156719 0.00374738 0.00100529 0.00443054 0.00188539 0.00769912 0.00194072 0.0202945 0.00257501 0.00789349 0.00179918 0.0284375 0.00348205 0.015709 0.00384657 0.0286854 0.00452404 0.0176538 0.00429289 0.0477934
82 3 O 6.94307 10.823 1.4948 -1.2 1 0.0019603 0.00361569 0.00126732 0.00423223 0.00190385 0.0077604 0.00257542 0.021781 0.0023079 0.00834397 0.00152093 0.0292412 0.00295482 0.0159377 0.00343732 0.0298916 0.00407778 0.0178336 0.00412184 0.0492768
83 3 O -0.343122 10.5551 0.196716 -1.2 1 0.000641805 0.00310513 0.00124353 0.00454607 0.00142352 0.00851579 0.00178273 0.0213966 0.00179818 0.00878548 0.00189791 0.0279947 0.00321362 0.0153003 0.0040834 0.0293733 0.00355443 0.017274 0.00323283 0.0485711
84 3 O -0.385966 10.5551 2.79288 -1.2 1 0.00340285 0.00404202 0.00128714 0.00437756 0.00254182 0.00800889 0.00212831 0.0215911 0.00194613 0.00883223 0.00236995 0.0275838 0.00384531 0.0157277 0.00425931 0.0299462 0.00516448 0.018494 0.00502229 0.0498348
85 1 Mg 6.49448 14.247 0 1.2 1 0.00136411 0.00317523 0.00149465 0.00435264 0.00119443 0.00920664 0.00113289 0.0212396 0.00124851 0.00856266 0.00143177 0.0284238 0.00159276 0.0155607 0.00244721 0.0297891 0.00294343 0.0163461 0.00268989 0.0479269
86 1 Mg 3.74457 18.9547 1.4948 1.2 1 0.00242872 0.00338221 0.00106526 0.00370379 0.00176501 0.00849468 0.00129534 0.0217798 0.00181482 0.0078522 0.00232393 0.0269486 0.00269531 0.0164826 0.00371948 0.0288772 0.00354774 0.0161188 0.00305133 0.0494288
87 2 Si 5.55495 16.2705 1.4948 2.4 1 0.00273032 0.00327248 0.00127397 0.00426317 0.00174178 0.00889457 0.00135936 0.0212465 0.00115945 0.00784786 0.00110165 0.028068 0.00234207 0.0162121 0.00287592 0.0290148 0.00363323 0.0157143 0.00332311 0.0493643
88 3 O 5.6115 17.8838 1.4948 -1.2 1 0.0027964 0.00329884 0.00143122 0.00395972 0.00182389 0.00918237 0.0016242 0.0214521 0.00174962 0.00770307 0.00143723 0.0280199 0.00220996 0.0164705 0.00292757 0.0290059 0.0032482 0.0156243 0.00322086 0.0491647
89 3 O 1.93416 15.2965 1.4948 -1.2 1 0.00240885 0.003164 0.00151886 0.00412304 0.00177392 0.00828011 0.00192713 0.0217232 0.00180077 0.00803327 0.00152737 0.0284403 0.00212429 0.0161404 0.0028814 0.0297487 0.00357021 0.0165182 0.0030769 0.0496605
90 3 O 4.85636 15.5644 0.196716 -1.2 1 0.00195495 0.00293008 0.00128131 0.00440064 0.00116381 0.00903444 0.00136739 0.021173 0.000992852 0.0080793 0.00154114 0.0275288 0.00254357 0.0161966 0.00338001 0.0292811 0.00296023 0.015577 0.00272595 0.0487862
91 1 Mg 6.44662 14.247 2.9896 1.2 1 0.0030362 0.00364591 0.00120886 0.00414177 0.00227324 0.00841003 0.00280042 0.0208008 0.0024376 0.00854946 0.00169611 0.0287225 0.00315913 0.0165037 0.00330354 0.0296526 0.00402554 0.0173613 0.00471406 0.0496808
92 3 O 4.81537 15.5644 2.79288 -1.2 1 0.00373908 0.00339561 0.00130064 0.00391113 0.0021615 0.00875017 0.00166032 0.0216566 0.00136675 0.00846663 0.00177892 0.0273058 0.00289312 0.0163944 0.003645 0.0296158 0.00461885 0.0169967 0.00467417 0.0499569
93 1 Mg -0.948271 14.2883 4.4844 1.2 1 0.00492531 0.00355181 0.00162309 0.00381643 0.00261827 0.00749972 0.00248019 0.021472 0.00246644 0.0080537 0.0028944 0.0275663 0.0037867 0.0170055 0.00509667 0.0299623 0.00566984 0.0183963 0.0059902 0.0514332
94 2 Si -2.75928 16.9724 4.4844 2.4 1 0.00472088 0.00352675 0.0016034 0.00383422 0.00273456 0.00769061 0.00276029 0.0216667 0.00248643 0.00778188 0.00246297 0.0269701 0.00363377 0.0167785 0.00435287 0.0291665 0.00507599 0.0179017 0.00571695 0.0513603
95 3 O -2.81617 15.3592 4.4844 -1.2 1 0.0050297 0.00366655 0.00153633 0.00369241 0.00272196 0.00728128 0.00270317 0.0209197 0.00210051 0.00760013 0.00237944 0.0277621 0.00403002 0.0161352 0.00437348 0.030129 0.00587145 0.0181711 0.00629665 0.0510542
96 3 O 0.862762 17.9465 4.4844 -1.2 1 0.00477429 0.00373908 0.00145625 0.00382117 0.002894 0.00796938 0.00253102 0.0217373 0.00247211 0.00771265 0.00251718 0.0273924 0.00358052 0.0168625 0.00405033 0.0290897 0.00543411 0.0180316 0.00595682 0.0507805
97 3 O -2.0185 17.6786 3.18632 -1.2 1 0.00418245 0.00334792 0.001664 0.00344304 0.00245977 0.0074082 0.00230525 0.0217549 0.00205159 0.00770762 0.00225746 0.0268677 0.00360011 0.0164563 0.00446749 0.0296512 0.00467048 0.0170834 0.00499474 0.0504566
98 3 O -2.06164 17.6786 5.78248 -1.2 1 0.00556962 0.00375133 0.00131963 0.00359751 0.00284321 0.00649807 0.00255526 0.021335 0.00226351 0.00722603 0.00263768 0.0263246 0.00333241 0.0168449 0.00457526 0.0304227 0.0058049 0.0195418 0.00576909 0.0527134
99 1 Mg 1.39817 16.6215 2.9896 1.2 1 0.00359537 0.0032937 0.0015964 0.0040091 0.00251542 0.00818316 0.00266132 0.0210557 0.00238777 0.00807259 0.00228231 0.0281163 0.00299377 0.016521 0.00351012 0.0291962 0.00425614 0.0164442 0.00416465 0.0496798
100 1 Mg 4.20062 16.5802 4.4844 1.2 1 0.00491656 0.00339834 0.00168799 0.00381519 0.00244682 0.00735847 0.00238001 0.0213796 0.00278015 0.00773197 0.00283758 0.0273374 0.00354761 0.0172745 0.00568029 0.0297416 0.00619842 0.0180969 0.00577054 0.0509781
101 2 Si 2.37796 18.645 4.4844 2.4 1 0.00461015 0.00367364 0.00134188 0.00374781 0.00274916 0.00756025 0.0028847 0.0216691 0.00241707 0.0075174 0.00226201 0.0264737 0.00319061 0.01691 0.00403243 0.0292139 0.00512899 0.0176984 0.00566042 0.0519159
102 3 O 2.39434 20.2583 4.4844 -1.2 1 0.0046571 0.0037736 0.00133482 0.00361949 0.00272311 0.00667276 0.00267907 0.0206874 0.0026422 0.00699691 0.00185636 0.0272409 0.0030841 0.0165615 0.00387494 0.0297201 0.00576303 0.017502 0.00648317 0.0511739
103 3 O -4.24274 17.671 4.4844 -1.2 1 0.00458784 0.00396032 0.00161827 0.00391489 0.00270552 0.00824001 0.00277166 0.0217059 0.00254714 0.00775416 0.00272683 0.0272116 0.00350721 0.0165414 0.00479244 0.0294566 0.00581816 0.0183132 0.00596673 0.0509959
104 3 O 3.08659 17.9389 3.18632 -1.2 1 0.00424896 0.00322376 0.00134134 0.00352117 0.00244647 0.00750917 0.00198074 0.0215836 0.00203315 0.00772318 0.00233019 0.0267254 0.00315831 0.0163142 0.00440171 0.0293407 0.00521405 0.0170407 0.00535747 0.0505483
105 1 Mg 1.44478 16.6215 0 1.2 1 0.00241063 0.00276097 0.00100631 0.00405703 0.00139397 0.00902186 0.000977819 0.0213433 0.0012977 0.00824449 0.00142775 0.0279611 0.0021504 0.0157721 0.00225623 0.0292203 0.00270403 0.015728 0.00279544 0.0484662
106 3 O 3.0436 17.9389 5.78248 -1.2 1 0.00515307 0.00358034 0.00134642 0.00386378 0.00263251 0.00646482 0.00247527 0.0214253 0.00216182 0.00758004 0.00259341 0.0261771 0.00346387 0.0166464 0.00433033 0.0305052 0.00579036 0.0198215 0.0060984 0.0522827
107 1 Mg -1.40524 16.6628 1.4948 1.2 1 0.00222414 0.0030946 0.00114337 0.00399615 0.00167073 0.00854013 0.00183008 0.0220922 0.00169395 0.00813957 0.00192297 0.0276508 0.00322963 0.016705 0.0029657 0.0292708 0.00286255 0.0162821 0.00307127 0.0492644
108 2 Si 0.420358 14.5979 1.4948 2.4 1 0.00212961 0.00289115 0.00143178 0.00445056 0.00191987 0.00906058 0.00174578 0.0213514 0.00161025 0.00824506 0.00151146 0.0279495 0.00301349 0.0163637 0.0034802 0.0287808 0.00341664 0.0162126 0.00327446 0.0490726
109 3 O 0.408732 12.9847 1.4948 -1.2 1 0.00211669 0.00301465 0.0012498 0.0043409 0.00180322 0.00904404 0.00130277 0.0211522 0.00216276 0.00839409 0.00167004 0.0285891 0.00310789 0.0159322 0.00315034 0.0298526 0.0033463 0.0167689 0.00348795 0.049062
110 3 O 7.03923 15.572 1.4948 -1.2 1 0.00250197 0.00321443 0.00128956 0.00407909 0.00191389 0.00827208 0.00220385 0.0216499 0.00194568 0.00802232 0.00138247 0.0287061 0.00260772 0.0165419 0.00292924 0.0296609 0.00338414 0.0163793 0.00363268 0.0495199
111 3 O -0.248332 15.3041 0.196716 -1.2 1 0.00182851 0.0026906 0.00104783 0.0041864 0.00113325 0.00903069 0.00170893 0.0211911 0.0013119 0.00824297 0.00157827 0.0274963 0.0028703 0.0159829 0.00359462 0.0291776 0.00275471 0.0157544 0.00296605 0.0486269
112 3 O -0.289436 15.3041 2.79288 -1.2 1 0.00396753 0.00336458 0.00147992 0.00375686 0.00248987 0.0085355 0.00197346 0.0218637 0.00158935 0.00858762 0.00209162 0.0270583 0.00323335 0.0164854 0.00373878 0.0295284 0.00432078 0.0172149 0.00444444 0.0501967
113 1 Mg 6.59566 18.996 0 1.2 1 0.00172099 0.00311134 0.00131561 0.00394043 0.00110101 0.00855552 0.00117111 0.0216759 0.00123945 0.00768196 0.00132321 0.0274946 0.00203273 0.0163807 0.00234151 0.0288544 0.00272426 0.0155127 0.00264871 0.0485356
114 1 Mg 3.85574 23.7037 1.4948 1.2 1 0.00209512 0.00319965 0.00124847 0.00393605 0.00162929 0.00745457 0.0012569 0.0227201 0.00194782 0.00714068 0.00216406 0.0264267 0.00237168 0.0173912 0.00366529 0.0286493 0.00348615 0.0167694 0.00339962 0.0505696
115 2 Si 5.66125 21.0195 1.4948 2.4 1 0.00230901 0.00311977 0.00102007 0.00382264 0.00208429 0.00815708 0.00156113 0.0217066 0.00128732 0.00728291 0.00127295 0.0271553 0.00240525 0.0172507 0.00279301 0.0282365 0.00351092 0.0155994 0.00375047 0.0498588
116 3 O 5.72074 22.6328 1.4948 -1.2 1 0.00216356 0.00316698 0.00148752 0.00384262 0.00182731 0.00821963 0.00169495 0.0220414 0.00192228 0.00704155 0.00125372 0.0272135 0.001983 0.0172338 0.00285103 0.0285854 0.0033417 0.0159992 0.00351079 0.0499839
117 3 O 2.03867 20.0455 1.4948 -1.2 1 0.00215739 0.00351106 0.00127653 0.00392744 0.00178261 0.00762965 0.00193481 0.0218937 0.00221037 0.00734466 0.00140312 0.0275885 0.00205517 0.0170809 0.00257015 0.0290809 0.00354801 0.0157648 0.00362072 0.0497821
118 3 O 4.96004 20.3134 0.196716 -1.2 1 0.00235245 0.00266405 0.00133696 0.00377075 0.00129536 0.00822506 0.00112143 0.0214853 0.00124298 0.00729525 0.00161199 0.0269253 0.0028239 0.0165691 0.00393764 0.0288718 0.00309388 0.0150176 0.00268096 0.0491525
119 1 Mg 6.55057 18.996 2.9896 1.2 1 0.00316405 0.00355551 0.0013529 0.00373315 0.00246718 0.00810409 0.00291851 0.0209104 0.00223417 0.00781213 0.00172923 0.0282305 0.00293835 0.0168976 0.00309464 0.0288374 0.00399736 0.0165356 0.00462924 0.0498214