ITEM: TIMESTEP
34300
ITEM: NUMBER OF ATOMS
10500
ITEM: BOX BOUNDS xy xz yz pp pp pp
0	15.2977	5.09925
0	118.725	0
0	89.688	0
ITEM: ATOMS id type element xu yu zu q Q_1 Q_2 Q_3 Q_4 Q_5 Q_6 Q_7 Q_8 Q_9 Q_10 Q_11 Q_12 Q_13 Q_14 Q_15 Q_16 Q_17 Q_18 Q_19 Q_20 Q_21
1 1 Mg 6.2404 -6.37941e-06 0 1.2 1 0.0016272 0.0042326 0.00127731 0.00498303 0.00122222 0.00563645 0.00216516 0.0161575 0.00211835 0.00572067 0.0021176 0.0218649 0.00262277 0.013602 0.00356343 0.0206544 0.00408095 0.0141784 0.00393732 0.0404341
2 1 Mg 3.46349 4.70768 1.4948 1.2 1 0.000808924 0.003376 0.00153083 0.00428369 0.00177098 0.00593526 0.00356634 0.0185985 0.00288374 0.00690059 0.00284098 0.0254775 0.00330485 0.0136704 0.00456663 0.0251526 0.00549408 0.0170186 0.00550185 0.0434496
3 2 Si 5.2885 2.02354 1.4948 2.4 1 0.00128403 0.00328904 0.00186551 0.00469717 0.0017162 0.00557473 0.00250782 0.017063 0.00246968 0.00599426 0.00209018 0.0230989 0.00304223 0.0135539 0.00375796 0.0216147 0.00398235 0.0153174 0.00421643 0.0410746
4 3 O 5.33628 3.63678 1.4948 -1.2 1 0.000703318 0.00288847 0.00161103 0.00484845 0.00195005 0.00611186 0.00287501 0.0177314 0.00235546 0.00661491 0.0020463 0.0248944 0.00269803 0.0136838 0.00442648 0.0239663 0.00512708 0.0164301 0.00556187 0.0425018
5 3 O 1.67294 1.04952 1.4948 -1.2 1 0.00195448 0.00318109 0.00220346 0.00438423 0.00130856 0.00575457 0.00246935 0.0167444 0.00243252 0.00580873 0.00207571 0.0225298 0.00271577 0.0128547 0.00347743 0.0219342 0.00470596 0.0157897 0.00469731 0.0399964
6 3 O 4.59532 1.31737 0.196716 -1.2 1 0.00161392 0.00301412 0.00194573 0.00450828 0.00190917 0.00561151 0.00238887 0.0171447 0.0027045 0.0061565 0.0019406 0.0222884 0.00344566 0.0129406 0.00434958 0.0214714 0.00413301 0.0148738 0.0044927 0.0407153
7 1 Mg 6.18956 -6.37941e-06 2.9896 1.2 1 0.00124286 0.00432879 0.00150807 0.00443231 0.00129561 0.00562996 0.00237259 0.0159443 0.00272751 0.00524265 0.0017753 0.022124 0.0028352 0.0133219 0.00370481 0.0206381 0.00443941 0.0147572 0.00481238 0.0385858
8 3 O 4.55118 1.31737 2.79288 -1.2 1 0.00155168 0.00396752 0.00176843 0.0043435 0.0018114 0.00554458 0.00255429 0.0167024 0.00252455 0.00656988 0.00238757 0.0212564 0.00358972 0.0121079 0.00345161 0.0214276 0.00470393 0.0156395 0.00498249 0.0392798
9 1 Mg -1.20682 0.0413099 4.4844 1.2 1 0.000555521 0.00238925 0.00171746 0.00463733 0.00147838 0.00568897 0.00187586 0.0157845 0.00224815 0.00560357 0.00201121 0.0222698 0.00310659 0.0113398 0.00357468 0.0209126 0.00525492 0.0157157 0.00508445 0.0381095
10 2 Si -3.0337 2.72544 4.4844 2.4 1 0.000736849 0.00301742 0.00183143 0.00497417 0.00198998 0.00599121 0.0031893 0.0164692 0.00334625 0.00601958 0.00219762 0.0234114 0.00323882 0.0126546 0.00391797 0.0224812 0.00516584 0.017503 0.00592274 0.0391732
11 3 O -3.08099 1.11221 4.4844 -1.2 1 0.000976362 0.00329484 0.00185509 0.00430738 0.00126194 0.0052219 0.00224502 0.0156934 0.00291075 0.00533907 0.00207841 0.0218973 0.00311474 0.0111788 0.00346212 0.0214327 0.00495077 0.0162105 0.00527549 0.0377165
12 3 O 0.582463 3.69946 4.4844 -1.2 1 0.00220824 0.0040889 0.00204771 0.00452213 0.00240627 0.00650767 0.00343578 0.0171006 0.00353528 0.00651265 0.00297909 0.024401 0.00429788 0.0129152 0.0044058 0.0241625 0.00652338 0.0184734 0.00760806 0.0412466
13 3 O -2.29524 3.43162 3.18632 -1.2 1 0.00101814 0.00287346 0.00250577 0.00466807 0.00216032 0.0057172 0.0029598 0.017696 0.00329154 0.00651279 0.00257056 0.0241536 0.00327344 0.0128879 0.00454953 0.0240704 0.00580536 0.0177845 0.00618655 0.0414475
14 3 O -2.34216 3.43162 5.78248 -1.2 1 0.00172834 0.00347393 0.00129535 0.00490181 0.00245395 0.00579045 0.00319261 0.0167558 0.00298006 0.00693983 0.00275982 0.0229404 0.00433585 0.0121693 0.00410095 0.0232365 0.00609661 0.0191447 0.00699247 0.0396792
15 1 Mg 1.12778 2.37449 2.9896 1.2 1 0.00184915 0.00327561 0.00245223 0.00448066 0.00205859 0.00578357 0.00302832 0.0163878 0.00276265 0.00585799 0.00235192 0.0230698 0.00330107 0.0128078 0.00346246 0.0218993 0.00468467 0.0166081 0.00526615 0.0401854
16 1 Mg 3.92855 2.33318 4.4844 1.2 1 0.00127533 0.00378669 0.00171865 0.00439575 0.0016912 0.00565415 0.0036305 0.0165413 0.00333124 0.00594086 0.00295993 0.0224909 0.00375559 0.0131354 0.00512149 0.0216649 0.00609694 0.016994 0.00660093 0.0395417
17 2 Si 2.09341 4.39804 4.4844 2.4 1 0.00176166 0.00400462 0.00195591 0.00428624 0.00285546 0.00579894 0.00367161 0.0179594 0.00362029 0.00663651 0.00316091 0.024327 0.00431235 0.0140602 0.00424436 0.024456 0.00642451 0.0183733 0.00793617 0.0428934
18 3 O 2.09991 6.01128 4.4844 -1.2 1 0.00249895 0.00440513 0.00174109 0.00413422 0.00281451 0.00628048 0.00317172 0.0190438 0.00273837 0.00724391 0.00281264 0.0263175 0.00403959 0.0144702 0.0045347 0.0270664 0.00667982 0.0190779 0.00740665 0.0449788
19 3 O -4.52137 3.42402 4.4844 -1.2 1 0.000916082 0.00339306 0.0021296 0.00476468 0.00221362 0.00670026 0.00355731 0.0168131 0.00326458 0.00592017 0.0031839 0.0231807 0.0037111 0.0125651 0.00411624 0.0226673 0.00591788 0.017652 0.00711495 0.0406044
20 3 O 2.80834 3.69187 3.18632 -1.2 1 0.00112177 0.00352522 0.00174684 0.00369987 0.00199293 0.0057328 0.00313719 0.0172978 0.00337015 0.00614125 0.0027538 0.0237133 0.00357603 0.0129195 0.00469469 0.0237636 0.00550142 0.0170912 0.00599448 0.0422012
21 1 Mg 1.17857 2.37449 0 1.2 1 0.00226458 0.00335937 0.00222909 0.00432719 0.00150618 0.00544442 0.00253097 0.0171418 0.0023723 0.00651654 0.0026707 0.0231357 0.00291506 0.0130971 0.00358276 0.0216867 0.00432213 0.0149856 0.00463694 0.0405851
22 3 O 2.76143 3.69187 5.78248 -1.2 1 0.00230266 0.00400418 0.00189182 0.00436032 0.00213108 0.00524516 0.0026698 0.0172231 0.0034309 0.0069874 0.00276148 0.0227042 0.00483092 0.0128617 0.00552141 0.0229273 0.00622166 0.0183808 0.00699899 0.0402856
23 1 Mg -1.67381 2.41581 1.4948 1.2 1 0.00194793 0.00280269 0.00282692 0.00487803 0.00147887 0.00599871 0.00261105 0.0165963 0.00273477 0.00616559 0.00189064 0.0240913 0.00266339 0.0142975 0.00282685 0.0222424 0.00446107 0.0160875 0.00472635 0.0416363
24 2 Si 0.16286 0.350945 1.4948 2.4 1 0.00217471 0.0024245 0.00296735 0.00462917 0.00126354 0.00634887 0.00284866 0.0164445 0.00236236 0.00516558 0.001834 0.0228555 0.00241188 0.0136141 0.00310986 0.0209364 0.00458604 0.0148308 0.00420742 0.0403312
25 3 O 0.15972 -1.26229 1.4948 -1.2 1 0.0020702 0.00259895 0.00306514 0.00476712 0.00173375 0.00601523 0.00245166 0.0164018 0.00240559 0.00530121 0.00236491 0.0225894 0.00249464 0.0138026 0.00290029 0.021701 0.00419482 0.0146945 0.00382466 0.0405921
26 3 O 6.77654 1.32496 1.4948 -1.2 1 0.00166961 0.00362787 0.00168296 0.00482141 0.00137311 0.00594234 0.00237503 0.0167584 0.00252569 0.00545342 0.00175695 0.0235181 0.00282847 0.0136634 0.00359847 0.0218701 0.00470053 0.0153029 0.00434236 0.0406362
27 3 O -0.508028 1.05712 0.196716 -1.2 1 0.00205103 0.00266688 0.00349939 0.00438417 0.00137978 0.00561495 0.00239383 0.0171174 0.00189526 0.00663612 0.0023605 0.022069 0.00274827 0.0128365 0.00317006 0.0212168 0.00433035 0.0151831 0.00441784 0.0400209
28 3 O -0.552171 1.05712 2.79288 -1.2 1 0.00144655 0.00201484 0.00309623 0.00466414 0.00127345 0.00617255 0.0024244 0.0161449 0.00259242 0.00596288 0.00167656 0.0224814 0.00312768 0.0117069 0.0036852 0.0215906 0.00526667 0.0159898 0.00491236 0.0392324
29 1 Mg 6.31713 4.74899 0 1.2 1 0.00090297 0.00302711 0.00185879 0.00466851 0.00229945 0.00599719 0.00326067 0.0181109 0.00276376 0.00708852 0.0022212 0.0251367 0.00307352 0.0138241 0.0044379 0.024541 0.00489492 0.0163761 0.00587853 0.0426778
30 1 Mg 3.54847 9.45668 1.4948 1.2 1 0.00157969 0.00361712 0.00193857 0.00454982 0.0020949 0.00753432 0.00325605 0.021068 0.00152148 0.00837767 0.00232157 0.0281319 0.00311264 0.0154207 0.00394381 0.0291811 0.00425157 0.0177285 0.00373288 0.0484321
31 2 Si 5.36879 6.77254 1.4948 2.4 1 0.000519248 0.00330031 0.00186236 0.00508058 0.00266529 0.00671836 0.00370342 0.0194759 0.0027185 0.00774581 0.00254757 0.0273328 0.00316659 0.0152109 0.00449148 0.0268703 0.00480548 0.017022 0.00515618 0.0460908
32 3 O 5.41937 8.38578 1.4948 -1.2 1 0.001213 0.00340961 0.00193103 0.00494354 0.00225509 0.00758732 0.0031922 0.0207379 0.00216644 0.00832396 0.00242861 0.0287313 0.0024038 0.0154206 0.00343163 0.0291421 0.00478182 0.0170563 0.00474531 0.0476949
33 3 O 1.75158 5.79852 1.4948 -1.2 1 0.000723781 0.00339213 0.00164149 0.00388782 0.00228587 0.00589464 0.00320484 0.0194071 0.00283487 0.00717375 0.0027854 0.0276385 0.00298603 0.0153993 0.00378011 0.0267105 0.00549656 0.0175329 0.00542993 0.045307
34 3 O 4.67421 6.06637 0.196716 -1.2 1 0.000389839 0.00338503 0.00155076 0.00470484 0.00193675 0.00672609 0.00285936 0.0196479 0.00236691 0.00802906 0.00223353 0.0260355 0.00359139 0.0142191 0.00437751 0.0266971 0.00485594 0.0166147 0.00537867 0.0449102
35 1 Mg 6.26654 4.74899 2.9896 1.2 1 0.000728805 0.00324751 0.00208702 0.00520459 0.00259897 0.00636344 0.00378082 0.01792 0.00396052 0.00714676 0.00221054 0.0256266 0.00379191 0.0142844 0.00507732 0.024717 0.00580447 0.0175749 0.00669112 0.0430319
36 3 O 4.63043 6.06637 2.79288 -1.2 1 0.00159143 0.00335552 0.00177669 0.00491484 0.00231079 0.00659582 0.00332144 0.0192911 0.00340139 0.00777731 0.0024582 0.0257963 0.00375669 0.0144859 0.00461725 0.0269563 0.00572616 0.0179962 0.00659337 0.0450447
37 1 Mg -1.12976 4.79031 4.4844 1.2 1 0.00220713 0.00388841 0.00157532 0.00467116 0.00226138 0.00585688 0.00311618 0.0174481 0.00354605 0.00682462 0.00299891 0.0250365 0.00408913 0.0139419 0.00438051 0.0251285 0.00715935 0.0189075 0.007128 0.0431162
38 2 Si -2.9517 7.47444 4.4844 2.4 1 0.00241824 0.00412012 0.00130531 0.00504682 0.00283459 0.00626477 0.00366241 0.0199315 0.00330493 0.00765861 0.00308121 0.027108 0.00428489 0.0156991 0.00510058 0.027681 0.00672586 0.0184112 0.007926 0.0467424
39 3 O -3.00198 5.86121 4.4844 -1.2 1 0.00191847 0.00395377 0.00126564 0.00500726 0.00311896 0.00598066 0.00403406 0.0187152 0.00357218 0.00729228 0.00277409 0.0253134 0.00434315 0.0137515 0.00449174 0.0264628 0.00652586 0.0191601 0.00775663 0.044554
40 3 O 0.666315 8.44846 4.4844 -1.2 1 0.00321311 0.00484204 0.00152594 0.00457227 0.00277925 0.00715064 0.00277261 0.0208277 0.00312331 0.00794388 0.00322552 0.0276782 0.00446892 0.0156037 0.00437986 0.0288614 0.00618376 0.0189991 0.00743341 0.0478477
41 3 O -2.21213 8.18062 3.18632 -1.2 1 0.00228546 0.00420408 0.00162331 0.00433253 0.00246811 0.00630509 0.00304795 0.020547 0.00269976 0.00804637 0.0027243 0.0274475 0.00407077 0.0155199 0.00490561 0.0285649 0.00594754 0.0182189 0.00635331 0.048315
42 3 O -2.25864 8.18062 5.78248 -1.2 1 0.00345465 0.00442989 0.0016278 0.0046069 0.00288219 0.00578115 0.00290821 0.0203149 0.00274022 0.00828502 0.00335062 0.0262737 0.00428154 0.0159799 0.00513356 0.028702 0.00685421 0.019876 0.00791399 0.0478145
43 1 Mg 1.20893 7.12349 2.9896 1.2 1 0.00170615 0.00394502 0.00179855 0.00413549 0.00263335 0.00667011 0.00372354 0.0194905 0.00282371 0.00790815 0.00279342 0.0276065 0.00341215 0.015569 0.0040298 0.0272237 0.00564822 0.0181017 0.00599612 0.0465418
44 1 Mg 4.00982 7.08218 4.4844 1.2 1 0.00216537 0.00416813 0.00160846 0.00479169 0.00263113 0.00621587 0.00383256 0.0200008 0.00365737 0.00758219 0.00319673 0.0266272 0.0041776 0.0160416 0.00581547 0.0278634 0.00724551 0.0189324 0.00794323 0.0464783
45 2 Si 2.17861 9.14704 4.4844 2.4 1 0.00313622 0.00444591 0.00182227 0.0047007 0.00287541 0.0070396 0.00367219 0.0209954 0.00265283 0.00811076 0.00294386 0.0275054 0.00454295 0.0162542 0.0046115 0.0292712 0.0058576 0.0186448 0.00655707 0.0494838
46 3 O 2.18828 10.7603 4.4844 -1.2 1 0.00413663 0.00483011 0.00192959 0.00422264 0.00258721 0.00681888 0.00301106 0.0205801 0.00229841 0.00816446 0.00217997 0.0282344 0.00410575 0.0154732 0.00467872 0.0303904 0.00608927 0.0187173 0.00621406 0.0500544
47 3 O -4.43805 8.17302 4.4844 -1.2 1 0.00210421 0.00443071 0.00181228 0.00509051 0.00264467 0.00742454 0.00339862 0.0204298 0.00337739 0.00806834 0.00328569 0.0276927 0.0045038 0.0155233 0.00476852 0.0290481 0.00674549 0.0189863 0.00861396 0.0475339
48 3 O 2.89193 8.44087 3.18632 -1.2 1 0.00258066 0.00390357 0.00173677 0.00418197 0.00233565 0.00660528 0.0033287 0.0203315 0.00281143 0.00847782 0.00280342 0.027071 0.00399568 0.0155881 0.00490438 0.0287854 0.00592438 0.0182104 0.00562917 0.0481704
49 1 Mg 1.25915 7.12349 0 1.2 1 0.000424512 0.00313426 0.0012938 0.00416116 0.00174267 0.00702546 0.00275246 0.0200984 0.00278571 0.00830407 0.00261701 0.0272672 0.00350187 0.0143746 0.00388894 0.0275572 0.00478777 0.0174597 0.00463601 0.0459382
50 3 O 2.84547 8.44087 5.78248 -1.2 1 0.0034552 0.00480984 0.00196606 0.00467221 0.00263332 0.00615337 0.00340672 0.0205269 0.00288363 0.00838005 0.00316221 0.0263811 0.00538676 0.0160854 0.00528195 0.0291214 0.00644837 0.0199381 0.00762134 0.0485718
51 1 Mg -1.59284 7.16481 1.4948 1.2 1 0.000854625 0.00344501 0.00157435 0.0044369 0.00180461 0.00625398 0.00280174 0.0198788 0.00287616 0.00772202 0.00184098 0.0273977 0.00329421 0.0154181 0.00397987 0.0269465 0.00466958 0.0174836 0.00553701 0.0463795
52 2 Si 0.240329 5.09994 1.4948 2.4 1 0.000740958 0.00358082 0.00198578 0.00397473 0.0018776 0.00665311 0.00311532 0.0189224 0.00306579 0.00723114 0.00231987 0.0258276 0.00298259 0.0144465 0.00419158 0.0247372 0.00512836 0.0170212 0.00521627 0.044459
53 3 O 0.234538 3.48671 1.4948 -1.2 1 0.0015228 0.00346919 0.00276996 0.00433435 0.00180708 0.0064128 0.00278788 0.0178136 0.00329041 0.00680201 0.00230751 0.0243487 0.00335369 0.0135258 0.00396528 0.0240007 0.00553576 0.0162426 0.00538121 0.0421813
54 3 O 6.85564 6.07396 1.4948 -1.2 1 0.000421288 0.00282153 0.00219863 0.00496694 0.00239262 0.00600475 0.00319438 0.0198178 0.00308456 0.00753713 0.0022096 0.0275239 0.00335247 0.0146057 0.00483357 0.0268265 0.00557449 0.0176435 0.00606586 0.0451067
55 3 O -0.429565 5.80612 0.196716 -1.2 1 0.00052394 0.00339831 0.00229306 0.00406982 0.00182222 0.00696855 0.00260527 0.0194 0.00279261 0.00840315 0.00248633 0.0255042 0.00279921 0.0140461 0.00408395 0.0258495 0.00519061 0.0168212 0.0057916 0.0450065
56 3 O -0.473377 5.80612 2.79288 -1.2 1 0.00191385 0.00335984 0.00196279 0.00429301 0.0022297 0.00665056 0.00322086 0.0190022 0.00324292 0.00791593 0.00289016 0.0256701 0.00367794 0.0144147 0.00444355 0.0261782 0.00612668 0.018236 0.00638043 0.0452423
57 1 Mg 6.40169 9.49799 0 1.2 1 0.000751247 0.00409207 0.00170892 0.00445887 0.00160203 0.0081167 0.00209964 0.0209161 0.00153779 0.00892106 0.00182531 0.0285459 0.00250678 0.0147215 0.00312049 0.0298816 0.00386981 0.0176482 0.00419071 0.0473312
58 1 Mg 3.64209 14.2057 1.4948 1.2 1 0.00298175 0.00339968 0.00158882 0.00428393 0.00176874 0.00883668 0.00201993 0.0214188 0.00151197 0.00864024 0.00217411 0.0278997 0.00253152 0.0158134 0.00320807 0.02957 0.00341441 0.0167156 0.00341919 0.049165
59 2 Si 5.45748 11.5215 1.4948 2.4 1 0.00274888 0.00352577 0.00178273 0.00454708 0.00186662 0.00817442 0.00241385 0.0208369 0.00155168 0.00828714 0.00166343 0.0285727 0.00261136 0.0159964 0.00368543 0.0293824 0.00403188 0.016509 0.00372059 0.0488744
60 3 O 5.51101 13.1348 1.4948 -1.2 1 0.0031172 0.00353031 0.00181313 0.00452346 0.00162034 0.00914852 0.00206167 0.0209245 0.0016749 0.00870709 0.00164838 0.0290896 0.00213723 0.0159262 0.00322624 0.0299144 0.00360705 0.0162127 0.00352955 0.0488844
61 3 O 1.83851 10.5475 1.4948 -1.2 1 0.00198364 0.00383734 0.00180435 0.00456816 0.00186188 0.00760242 0.00254351 0.021443 0.00166374 0.00834504 0.00214074 0.029089 0.00268882 0.0156336 0.00355816 0.0298713 0.00397279 0.0174613 0.00321468 0.0491329
62 3 O 4.7611 10.8154 0.196716 -1.2 1 0.00146732 0.00329484 0.0018886 0.00461054 0.00153453 0.00853232 0.00229913 0.0211545 0.00131818 0.00870171 0.00186348 0.0280614 0.00301493 0.0154571 0.00413729 0.0294915 0.00372662 0.0168943 0.00375649 0.0482665
63 1 Mg 6.35203 9.49799 2.9896 1.2 1 0.00169392 0.00397339 0.00161969 0.0048387 0.00262731 0.00735086 0.00333591 0.0200998 0.00304947 0.00853425 0.0020613 0.0288879 0.00378723 0.0158931 0.00333007 0.02917 0.00453062 0.017827 0.00536511 0.0482683
64 3 O 4.71833 10.8154 2.79288 -1.2 1 0.00329165 0.00384058 0.00164071 0.00440403 0.00207137 0.00808362 0.00232548 0.0210947 0.00177253 0.00879059 0.00192468 0.0279003 0.00334737 0.0155159 0.00418132 0.0301563 0.00491338 0.0176304 0.00522717 0.0495289
65 1 Mg -1.0438 9.53931 4.4844 1.2 1 0.00363781 0.00487866 0.00173131 0.00429326 0.00292786 0.00653545 0.00268965 0.0206578 0.00293888 0.00839914 0.00276703 0.0277218 0.00365796 0.0162851 0.00449167 0.029333 0.00622035 0.0189403 0.00675832 0.0491092
66 2 Si -2.8604 12.2234 4.4844 2.4 1 0.00432736 0.00429307 0.00167271 0.00424918 0.00262891 0.00749766 0.00323302 0.0213845 0.00271367 0.00856407 0.00221288 0.0274995 0.00399358 0.0163901 0.00418694 0.0297439 0.0055421 0.0182351 0.00636358 0.0508077
67 3 O -2.91391 10.6102 4.4844 -1.2 1 0.00383273 0.00457053 0.00161242 0.00434104 0.00274334 0.00695403 0.00318663 0.0202818 0.00269372 0.00785552 0.00187296 0.0280251 0.00404738 0.0156716 0.00406389 0.0301514 0.00573169 0.0187084 0.00675537 0.0497951
68 3 O 0.7596 13.1975 4.4844 -1.2 1 0.0048561 0.00469883 0.00188764 0.00453384 0.00267717 0.0084284 0.00275085 0.0217215 0.00270865 0.00838971 0.00285975 0.0280372 0.00378192 0.0160274 0.00452681 0.0299584 0.00570477 0.0182543 0.00623938 0.0504107
69 3 O -2.12001 12.9296 3.18632 -1.2 1 0.00471813 0.00400313 0.00169207 0.00382016 0.00242591 0.00736193 0.00252668 0.0214394 0.00224358 0.00839667 0.00214846 0.0273657 0.00351178 0.0158654 0.00485513 0.0303031 0.00498033 0.0176452 0.00513165 0.050165
70 3 O -2.16532 12.9296 5.78248 -1.2 1 0.005174 0.00482358 0.00143728 0.00418813 0.00263677 0.00666141 0.00240106 0.0214805 0.00259956 0.00828066 0.00296694 0.0269458 0.00378234 0.0166166 0.00514996 0.0310313 0.00598111 0.0199495 0.00662038 0.0519257
71 1 Mg 1.29891 11.8725 2.9896 1.2 1 0.0037055 0.00391047 0.00194667 0.00443005 0.00222696 0.00793215 0.00300646 0.0207474 0.00250934 0.00858101 0.00215307 0.0287272 0.0034523 0.016071 0.00382554 0.0298681 0.00458631 0.0172049 0.00434526 0.0493618
72 1 Mg 4.10033 11.8312 4.4844 1.2 1 0.00410732 0.00415404 0.00168568 0.00422601 0.00226681 0.00713833 0.00272087 0.0210489 0.00230942 0.00838605 0.00271124 0.0282428 0.00372274 0.0170504 0.00537015 0.0301967 0.0062281 0.018445 0.00593705 0.0505283
73 2 Si 2.27333 13.896 4.4844 2.4 1 0.00488943 0.00404748 0.0016673 0.00456427 0.00279774 0.00778102 0.00323753 0.021361 0.00230587 0.00827792 0.00290258 0.0277988 0.00399721 0.0164464 0.00461582 0.0301516 0.00552007 0.0179001 0.00541074 0.0513471
74 3 O 2.28634 15.5093 4.4844 -1.2 1 0.00529377 0.00413505 0.00161949 0.00432689 0.00296119 0.00720501 0.0028546 0.0207942 0.00257321 0.00757152 0.00213712 0.0280019 0.00324489 0.0157215 0.00403762 0.0307638 0.00557891 0.0179169 0.00576373 0.0515346
75 3 O -4.34533 12.922 4.4844 -1.2 1 0.00456145 0.00441435 0.00161562 0.00446423 0.00274991 0.00826203 0.00307531 0.0215438 0.00259108 0.00848974 0.00254752 0.0282028 0.00376576 0.0161955 0.00488561 0.0302458 0.00609771 0.0185727 0.00694993 0.0506744
76 3 O 2.98455 13.1899 3.18632 -1.2 1 0.00436499 0.00383387 0.00137871 0.00419655 0.0023718 0.00770171 0.00232723 0.0213544 0.00191939 0.00850198 0.00241872 0.0275112 0.00350719 0.0158904 0.00465019 0.0302093 0.00529808 0.0174859 0.0051003 0.0503013
77 1 Mg 1.34779 11.8725 0 1.2 1 0.00125906 0.00309817 0.00132622 0.00477246 0.00133243 0.00891125 0.00168356 0.0210506 0.00116065 0.00903808 0.00196038 0.0287016 0.00296627 0.0148346 0.00321453 0.0300186 0.00334472 0.0171373 0.0035717 0.0480221
78 3 O 2.93934 13.1899 5.78248 -1.2 1 0.00473673 0.0046927 0.00172881 0.00441364 0.00271595 0.00677979 0.00253041 0.0216865 0.00240393 0.00828338 0.00299479 0.0267693 0.00400858 0.0163762 0.0049234 0.0309779 0.00593513 0.0201299 0.0063541 0.0518184
79 1 Mg -1.50344 11.9138 1.4948 1.2 1 0.00235099 0.00368451 0.00150296 0.00409897 0.00163131 0.00805422 0.00215301 0.0214214 0.00209356 0.00854378 0.00141765 0.0283773 0.00352411 0.0159097 0.00329478 0.029875 0.00350448 0.017162 0.00356936 0.0489687
80 2 Si 0.326006 9.84894 1.4948 2.4 1 0.00129844 0.00369139 0.00145138 0.00458934 0.00206107 0.00791861 0.0022925 0.0208956 0.00198328 0.00839764 0.00160839 0.0283891 0.0031292 0.0154899 0.00388783 0.0290381 0.00381022 0.0174438 0.0033963 0.0484519
81 3 O 0.317364 8.23571 1.4948 -1.2 1 0.00137507 0.00376734 0.00132638 0.00421218 0.0018562 0.00751634 0.00229386 0.0201854 0.00244109 0.00797383 0.00200039 0.0284467 0.00361148 0.0156124 0.00408794 0.0285768 0.00456992 0.0174845 0.0042634 0.0474686
82 3 O 6.94307 10.823 1.4948 -1.2 1 0.00221971 0.0038498 0.00171886 0.00440573 0.00192152 0.0075887 0.00281828 0.0215473 0.00223606 0.00841055 0.00136534 0.0292056 0.00286497 0.0157569 0.00361741 0.0299741 0.00386873 0.0174449 0.00397811 0.0489098
83 3 O -0.343122 10.5551 0.196716 -1.2 1 0.00113995 0.00354144 0.00132158 0.00444806 0.00167994 0.00839029 0.00211634 0.0211883 0.00155666 0.00897958 0.00189295 0.0279064 0.00340027 0.0152252 0.00420989 0.0295113 0.00366728 0.0172688 0.00371627 0.0482491
84 3 O -0.385966 10.5551 2.79288 -1.2 1 0.00347056 0.00398761 0.00144065 0.00427033 0.00256318 0.00783718 0.00239048 0.0213641 0.00185733 0.00886376 0.00223991 0.0274738 0.0037409 0.0156074 0.00426592 0.0298713 0.00490813 0.0179888 0.00468902 0.0496018
85 1 Mg 6.49448 14.247 0 1.2 1 0.00140628 0.00349936 0.00169315 0.00451334 0.00112918 0.00919309 0.00134098 0.0210452 0.00122299 0.00855897 0.00153053 0.02873 0.00175092 0.0154541 0.00274748 0.0301651 0.00334538 0.0164717 0.00316327 0.047881
86 1 Mg 3.74457 18.9547 1.4948 1.2 1 0.00290421 0.00295003 0.00136395 0.00383006 0.0018928 0.00850293 0.00171885 0.0219998 0.00192559 0.00793042 0.00229395 0.0275786 0.00260491 0.0164287 0.00386209 0.0289131 0.00352971 0.0160651 0.00337374 0.0495666
87 2 Si 5.55495 16.2705 1.4948 2.4 1 0.00334173 0.00312262 0.00140573 0.00428706 0.00186057 0.00898196 0.00181961 0.0211796 0.00134041 0.00787504 0.00127056 0.0284711 0.00237684 0.0160582 0.00320322 0.0289945 0.00361127 0.0156407 0.00376579 0.0491777
88 3 O 5.6115 17.8838 1.4948 -1.2 1 0.00327157 0.00309274 0.0016178 0.00407989 0.00171502 0.00915295 0.00172754 0.0215689 0.0018023 0.00782629 0.00154206 0.0285545 0.00210201 0.0164636 0.00309237 0.0288922 0.00335506 0.0155 0.003627 0.0493096
89 3 O 1.93416 15.2965 1.4948 -1.2 1 0.0033438 0.00328564 0.0015995 0.00432164 0.00182606 0.00835622 0.0022585 0.0217246 0.00185143 0.00802259 0.00152073 0.0288267 0.00218703 0.0160885 0.00306053 0.029787 0.00339452 0.0162784 0.00338041 0.0495882
90 3 O 4.85636 15.5644 0.196716 -1.2 1 0.00212329 0.00279061 0.00166001 0.00443297 0.00143788 0.00919246 0.00146717 0.0211788 0.00102298 0.0081977 0.0016235 0.0279438 0.00267661 0.015882 0.00374925 0.0293685 0.0033245 0.015759 0.00324818 0.0485996
91 1 Mg 6.44662 14.247 2.9896 1.2 1 0.00359383 0.00378744 0.00147783 0.00408307 0.00233022 0.00833272 0.0029282 0.0205737 0.00244927 0.00864446 0.00171462 0.0288222 0.00285221 0.0161271 0.00332601 0.0297402 0.00403342 0.0168564 0.00452113 0.049523
92 3 O 4.81537 15.5644 2.79288 -1.2 1 0.00433606 0.00337708 0.00146264 0.00415364 0.00244583 0.00860441 0.00195873 0.0215919 0.00140985 0.00854185 0.00168359 0.0276354 0.00285893 0.0162083 0.00379103 0.0295476 0.00446123 0.0166933 0.00462825 0.0500501
93 1 Mg -0.948271 14.2883 4.4844 1.2 1 0.00506921 0.004057 0.00159462 0.00405378 0.00274157 0.00755419 0.00253261 0.021405 0.00257158 0.00837233 0.00270568 0.027637 0.00339755 0.0167553 0.00547304 0.03013 0.00568622 0.0179288 0.00599646 0.0509641
94 2 Si -2.75928 16.9724 4.4844 2.4 1 0.00534333 0.00379245 0.00151786 0.00410949 0.00276154 0.00773561 0.00287554 0.0217165 0.00266107 0.00783966 0.002669 0.0272355 0.00338088 0.0170577 0.00448996 0.0296346 0.00517006 0.0174307 0.00571693 0.0522398
95 3 O -2.81617 15.3592 4.4844 -1.2 1 0.00544674 0.00416021 0.00150835 0.00398313 0.00280184 0.0073179 0.00273061 0.0208845 0.00236583 0.00770168 0.00200002 0.0279355 0.00345102 0.0160315 0.00420104 0.0305201 0.005648 0.0176685 0.00623463 0.0509805
96 3 O 0.862762 17.9465 4.4844 -1.2 1 0.00484497 0.00364994 0.00129876 0.00429915 0.00314241 0.00825419 0.00243355 0.0220751 0.00242511 0.00775149 0.00258919 0.0279113 0.00370491 0.0167395 0.00440331 0.0293878 0.00550182 0.0177608 0.00570945 0.0516054
97 3 O -2.0185 17.6786 3.18632 -1.2 1 0.00486518 0.00326469 0.00152157 0.00364107 0.00267462 0.00751573 0.00254559 0.0220913 0.00237185 0.00783395 0.00230747 0.027265 0.00341747 0.0163687 0.00463787 0.0298361 0.004631 0.0169624 0.00522824 0.0513117
98 3 O -2.06164 17.6786 5.78248 -1.2 1 0.00530965 0.00391081 0.00107875 0.00407631 0.00272284 0.00679661 0.00257073 0.0217955 0.00236074 0.00757417 0.00265706 0.026777 0.00334843 0.017166 0.0047652 0.0307096 0.00564488 0.0193887 0.00594687 0.0532027
99 1 Mg 1.39817 16.6215 2.9896 1.2 1 0.00408028 0.00332814 0.00145306 0.00424995 0.00256289 0.00827286 0.00265385 0.0211152 0.00252918 0.00810294 0.0022835 0.0284134 0.00280297 0.0164571 0.00357761 0.0295553 0.00418248 0.0163624 0.00419741 0.049986
100 1 Mg 4.20062 16.5802 4.4844 1.2 1 0.00521912 0.0033558 0.00177224 0.00416482 0.00279312 0.00757731 0.00271386 0.0215589 0.00299689 0.00770858 0.00276689 0.0279438 0.00335043 0.0172695 0.0053717 0.0299643 0.00613041 0.0177099 0.00550741 0.0516215
101 2 Si 2.37796 18.645 4.4844 2.4 1 0.00444431 0.00304774 0.00133448 0.00424244 0.00292013 0.00783031 0.00290943 0.0223235 0.00259559 0.00764106 0.00277304 0.0273642 0.00344186 0.0172368 0.00447357 0.029393 0.00505139 0.0173704 0.00543974 0.0526713
102 3 O 2.39434 20.2583 4.4844 -1.2 1 0.00470381 0.00352257 0.00131327 0.0040486 0.00270091 0.00689035 0.00281873 0.0211479 0.00266902 0.00713507 0.00210588 0.0280904 0.00337262 0.016784 0.00416203 0.0296752 0.00530705 0.0175278 0.00592864 0.0522282
103 3 O -4.24274 17.671 4.4844 -1.2 1 0.00499279 0.00388669 0.00160273 0.00419411 0.00267145 0.00845557 0.0028056 0.022024 0.00292397 0.00796151 0.00277348 0.0279222 0.00346154 0.0167364 0.00481197 0.0297242 0.00564594 0.0179913 0.00591749 0.051784
104 3 O 3.08659 17.9389 3.18632 -1.2 1 0.00440189 0.00282067 0.00146567 0.00382054 0.00269169 0.00767482 0.00237594 0.0218858 0.00218441 0.00778092 0.00230359 0.027414 0.00313164 0.0165872 0.0044152 0.0294012 0.00504731 0.0168838 0.00511591 0.0511426
105 1 Mg 1.44478 16.6215 0 1.2 1 0.00213643 0.00284092 0.00113495 0.00437729 0.00135194 0.00900474 0.00132707 0.0213479 0.00130815 0.00818185 0.00150043 0.0284658 0.00242026 0.0156599 0.00271684 0.0293691 0.00307367 0.0159348 0.00334287 0.0484276
106 3 O 3.0436 17.9389 5.78248 -1.2 1 0.00501048 0.00379389 0.00157701 0.00449567 0.00264443 0.0068787 0.00237727 0.0220932 0.00216641 0.00779587 0.00297088 0.0268507 0.00343528 0.0168707 0.00486786 0.0307508 0.00577251 0.0195942 0.00565208 0.0531083
107 1 Mg -1.40524 16.6628 1.4948 1.2 1 0.00298655 0.00317125 0.00125271 0.00417016 0.00180106 0.00861515 0.00217168 0.0220383 0.00153812 0.00819463 0.00191893 0.028101 0.00298762 0.0166168 0.00312119 0.0293483 0.00306666 0.0162865 0.00330604 0.0492354
108 2 Si 0.420358 14.5979 1.4948 2.4 1 0.00309923 0.00329696 0.00160778 0.00459918 0.00201042 0.00899721 0.00192386 0.0212482 0.00147538 0.00822657 0.00143408 0.0281165 0.00294472 0.0163143 0.00372283 0.0288894 0.00335357 0.0161018 0.00349225 0.049112
109 3 O 0.408732 12.9847 1.4948 -1.2 1 0.00278986 0.00334693 0.00142772 0.00445585 0.0018923 0.00895784 0.00166495 0.0209341 0.00190371 0.00840111 0.00152959 0.0287608 0.00310319 0.0158914 0.00334176 0.0299119 0.00326527 0.0165512 0.00356854 0.0490371
110 3 O 7.03923 15.572 1.4948 -1.2 1 0.0031929 0.00351124 0.00146519 0.00411797 0.0019211 0.00825693 0.0024721 0.0215256 0.00216612 0.00808082 0.00152671 0.0289181 0.00261461 0.0161287 0.00324937 0.0296977 0.00343553 0.0163317 0.00393326 0.0493088
111 3 O -0.248332 15.3041 0.196716 -1.2 1 0.00211055 0.00302553 0.0012798 0.00444227 0.00116748 0.00916453 0.00189459 0.0211756 0.00105977 0.00833368 0.00183065 0.0278129 0.00289119 0.0158078 0.00372641 0.0293849 0.00300616 0.0160301 0.00353677 0.0485015
112 3 O -0.289436 15.3041 2.79288 -1.2 1 0.00482933 0.00383316 0.00141061 0.00396597 0.00258331 0.00859437 0.00213742 0.0215304 0.00156587 0.00842726 0.00195354 0.0272978 0.00286935 0.0160567 0.00375187 0.0298297 0.00417007 0.0168695 0.00451287 0.0501184
113 1 Mg 6.59566 18.996 0 1.2 1 0.00151292 0.00304296 0.00174986 0.00422016 0.000979871 0.00863747 0.00116429 0.0218325 0.0012394 0.0077776 0.0013337 0.0281058 0.00200357 0.0162228 0.00246796 0.0287987 0.00308439 0.0158888 0.00317927 0.0483664
114 1 Mg 3.85574 23.7037 1.4948 1.2 1 0.00231472 0.00232633 0.00127399 0.00415022 0.00174566 0.00737381 0.00157756 0.0230526 0.00181074 0.00749682 0.00204334 0.0270462 0.00238874 0.0175385 0.00387614 0.0284846 0.00331135 0.0168835 0.00343695 0.0505822
115 2 Si 5.66125 21.0195 1.4948 2.4 1 0.00270417 0.00246845 0.00109513 0.00405573 0.00189975 0.00806332 0.00180148 0.0218062 0.00150408 0.00750238 0.00139408 0.0279635 0.0024685 0.0172608 0.00307009 0.0282103 0.00358009 0.0154599 0.00409532 0.0500244
116 3 O 5.72074 22.6328 1.4948 -1.2 1 0.00264332 0.00237946 0.00157669 0.00408258 0.00179684 0.00807226 0.00188908 0.0222807 0.00196474 0.00732143 0.00130751 0.0278501 0.00206547 0.0172498 0.00313351 0.0284194 0.00330954 0.0159975 0.00372049 0.0500698
117 3 O 2.03867 20.0455 1.4948 -1.2 1 0.00282499 0.00293399 0.00136937 0.00416775 0.00178821 0.0077362 0.00230362 0.0222142 0.00236886 0.00742878 0.00151153 0.0283099 0.00214359 0.017239 0.0027242 0.0289578 0.00339104 0.0158724 0.00351339 0.0501854
118 3 O 4.96004 20.3134 0.196716 -1.2 1 0.00188982 0.00244648 0.00153706 0.00414785 0.00127909 0.00825688 0.00120741 0.0217303 0.00122839 0.00751422 0.00159339 0.0275773 0.00270059 0.0165361 0.00401384 0.0286951 0.00319978 0.0151431 0.002995 0.0491344
119 1 Mg 6.55057 18.996 2.9896 1.2 1 0.00365878 0.00314877 0.00148138 0.00385485 0.00245442 0.00804333 0.00304428 0.0212037 0.00255842 0.00801002 0.00182702 0.0287542 0.00284336 0.0169462 0.00344908 0.028734 0.00387068 0.0163271 0.00470386 0.0502984