ITEM: TIMESTEP
71900
ITEM: NUMBER OF ATOMS
10500
ITEM: BOX BOUNDS xy xz yz pp pp pp
0	15.2977	5.09925
0	118.725	0
0	89.688	0
ITEM: ATOMS id type element xu yu zu q Q_1 Q_2 Q_3 Q_4 Q_5 Q_6 Q_7 Q_8 Q_9 Q_10 Q_11 Q_12 Q_13 Q_14 Q_15 Q_16 Q_17 Q_18 Q_19 Q_20 Q_21
1 1 Mg 6.2404 -6.37941e-06 0 1.2 1 0.000417801 0.00412786 0.00106649 0.00476578 0.00133196 0.00562298 0.00212051 0.0162192 0.00231217 0.00562418 0.00230104 0.0221295 0.00248486 0.0133186 0.00376082 0.0207351 0.00432046 0.0142077 0.00429445 0.0403799
2 1 Mg 3.46349 4.70768 1.4948 1.2 1 0.00166134 0.0032483 0.00138552 0.00419675 0.00187788 0.00601173 0.0035589 0.0186038 0.00289966 0.00671662 0.00269235 0.0256563 0.00291852 0.0139273 0.00441743 0.0250125 0.00542647 0.0166056 0.00550553 0.0440994
3 2 Si 5.2885 2.02354 1.4948 2.4 1 0.000726416 0.0034101 0.00179584 0.00440748 0.00190492 0.00584211 0.00265515 0.0170491 0.00247293 0.00589899 0.00191434 0.0234712 0.00265511 0.0133501 0.00368577 0.0215791 0.00390422 0.0151908 0.00440431 0.0414919
4 3 O 5.33628 3.63678 1.4948 -1.2 1 0.00138693 0.00282579 0.00138428 0.00457377 0.00200578 0.00631641 0.00310374 0.0177212 0.00226131 0.00646921 0.00185754 0.0252084 0.00234454 0.0136119 0.00427497 0.0239655 0.0050591 0.016094 0.00569517 0.0430046
5 3 O 1.67294 1.04952 1.4948 -1.2 1 0.000800129 0.00337159 0.0020838 0.0042712 0.00145597 0.00576062 0.00257265 0.0168974 0.0023359 0.00579723 0.0021786 0.0228619 0.00252868 0.01259 0.00361059 0.0218542 0.0047989 0.01556 0.00454781 0.0403903
6 3 O 4.59532 1.31737 0.196716 -1.2 1 0.00045777 0.0029502 0.00181183 0.00399959 0.00183602 0.00581825 0.00259414 0.0171944 0.00262514 0.00605462 0.0020321 0.0225588 0.00315338 0.0125945 0.00425248 0.0215031 0.00436973 0.0147769 0.00457654 0.041146
7 1 Mg 6.18956 -6.37941e-06 2.9896 1.2 1 0.000272846 0.00439003 0.00144112 0.00432422 0.00155479 0.00592766 0.00276301 0.0161149 0.00284113 0.00516011 0.00195764 0.0227756 0.00255889 0.0129587 0.0036637 0.0209846 0.0042717 0.0146647 0.00432118 0.0396526
8 3 O 4.55118 1.31737 2.79288 -1.2 1 0.0010419 0.00421732 0.00176986 0.00428135 0.00194287 0.0059536 0.00259377 0.0169455 0.00231624 0.00659963 0.00230391 0.0220102 0.00330735 0.011972 0.00349372 0.021606 0.00479176 0.0153389 0.00476544 0.0402883
9 1 Mg -1.20682 0.0413099 4.4844 1.2 1 0.00188743 0.00287389 0.00160416 0.00471498 0.00127728 0.00601371 0.00259271 0.0159659 0.00255751 0.00522641 0.00209843 0.0230829 0.00298444 0.0113263 0.00351523 0.0212263 0.00480952 0.0157827 0.0043989 0.0392439
10 2 Si -3.0337 2.72544 4.4844 2.4 1 0.00230338 0.00320676 0.00162274 0.00484612 0.00221636 0.00607754 0.00340854 0.0164662 0.00304628 0.00541912 0.00228721 0.0243933 0.00293301 0.0127554 0.00393644 0.0223929 0.00503666 0.0170117 0.00532272 0.0404105
11 3 O -3.08099 1.11221 4.4844 -1.2 1 0.00220517 0.00355552 0.00170173 0.00448974 0.00140656 0.0056099 0.00249648 0.0157501 0.00293335 0.00490366 0.00201862 0.0226253 0.00298524 0.0110956 0.00344883 0.0213858 0.00464101 0.0160185 0.00463889 0.0389356
12 3 O 0.582463 3.69946 4.4844 -1.2 1 0.00274247 0.00444083 0.00217451 0.00413396 0.00233562 0.00674945 0.00341257 0.0169028 0.0031342 0.00564262 0.00307483 0.0246303 0.00346061 0.0127304 0.00423741 0.0239118 0.00657846 0.0181543 0.00729743 0.0420058
13 3 O -2.29524 3.43162 3.18632 -1.2 1 0.00160032 0.00278509 0.00242311 0.004526 0.00224329 0.00603311 0.0030384 0.0177703 0.00287288 0.00628817 0.00270441 0.0247152 0.0029468 0.012931 0.00480557 0.0241704 0.00606884 0.0174403 0.00597721 0.0425357
14 3 O -2.34216 3.43162 5.78248 -1.2 1 0.00300752 0.00364969 0.00120302 0.00452253 0.00228103 0.00582525 0.00303911 0.0163798 0.00290796 0.00583739 0.00294999 0.0236746 0.00375955 0.0117275 0.00363082 0.0229538 0.00621184 0.0182764 0.00673667 0.0401528
15 1 Mg 1.12778 2.37449 2.9896 1.2 1 0.00129017 0.00350419 0.00248129 0.00449651 0.00220206 0.00599619 0.00301376 0.0166963 0.00268773 0.00563491 0.00242038 0.0236101 0.00292041 0.0127926 0.00320151 0.0218712 0.00460995 0.0162186 0.00498574 0.0411572
16 1 Mg 3.92855 2.33318 4.4844 1.2 1 0.00202033 0.0043974 0.00140972 0.00417355 0.00158329 0.005943 0.00348494 0.0164298 0.00292092 0.00531195 0.00278206 0.0232615 0.00342391 0.0129097 0.00494393 0.0219977 0.0060773 0.0166186 0.00591821 0.0405059
17 2 Si 2.09341 4.39804 4.4844 2.4 1 0.00270152 0.00428231 0.00223214 0.00398299 0.00294744 0.00599763 0.00355571 0.0178792 0.00323088 0.00595493 0.00334626 0.0248351 0.00413726 0.0137555 0.00427639 0.0243393 0.00671355 0.0177031 0.00772348 0.0435412
18 3 O 2.09991 6.01128 4.4844 -1.2 1 0.00369076 0.00452081 0.00178921 0.00365649 0.00285893 0.00638977 0.0029533 0.0186301 0.00258026 0.00654768 0.0032042 0.0262983 0.00351786 0.0140631 0.00460642 0.0269259 0.00689384 0.0183378 0.00778246 0.045055
19 3 O -4.52137 3.42402 4.4844 -1.2 1 0.00222732 0.00378696 0.0020256 0.00455316 0.00233243 0.0069024 0.00343789 0.0166311 0.00323609 0.00553684 0.00337177 0.0237044 0.00348454 0.0125581 0.00427685 0.0225466 0.00627598 0.016988 0.00671661 0.0413824
20 3 O 2.80834 3.69187 3.18632 -1.2 1 0.00226138 0.0039698 0.00168672 0.00358122 0.0018579 0.00577413 0.00298033 0.0171773 0.00295082 0.00585962 0.00270344 0.0240821 0.00333039 0.012879 0.00452161 0.0235854 0.00561385 0.0166189 0.00579571 0.0426339
21 1 Mg 1.17857 2.37449 0 1.2 1 0.00112754 0.0034596 0.00184921 0.00410491 0.00155722 0.00561473 0.00243961 0.0176596 0.00242876 0.00641142 0.00254902 0.0234815 0.00259519 0.0131065 0.00358255 0.0219347 0.00468369 0.0147039 0.00470031 0.0414482
22 3 O 2.76143 3.69187 5.78248 -1.2 1 0.00316063 0.00445115 0.00186898 0.00413619 0.00215035 0.00562605 0.00273435 0.0167277 0.00306985 0.00617078 0.00282731 0.0236144 0.00445553 0.0126114 0.0055929 0.0231038 0.00671787 0.0174164 0.00691244 0.0413622
23 1 Mg -1.67381 2.41581 1.4948 1.2 1 0.000535962 0.00272318 0.00275569 0.0047455 0.00161194 0.00596313 0.00247132 0.0167672 0.00272183 0.00617958 0.00204512 0.0242619 0.00236876 0.0140399 0.00272188 0.0222466 0.00445834 0.0157182 0.0046312 0.0421122
24 2 Si 0.16286 0.350945 1.4948 2.4 1 0.000994598 0.0025788 0.00294041 0.00470955 0.00146694 0.00651577 0.00286427 0.016432 0.00241962 0.00490731 0.00189771 0.0229324 0.00240927 0.0131685 0.00319791 0.0208942 0.00480872 0.014811 0.00416444 0.0405943
25 3 O 0.15972 -1.26229 1.4948 -1.2 1 0.000753608 0.00255308 0.00313334 0.00461959 0.00188214 0.0061504 0.00260812 0.0165161 0.00255985 0.00521035 0.00248215 0.0229434 0.00250268 0.0134675 0.00312168 0.0219176 0.0043662 0.0148664 0.00386078 0.0411162
26 3 O 6.77654 1.32496 1.4948 -1.2 1 0.000277001 0.00385948 0.00152711 0.00451368 0.00158592 0.00598647 0.00252183 0.0168215 0.00267335 0.00525028 0.00180244 0.0238141 0.00271862 0.0132588 0.00372607 0.0219417 0.00471794 0.0151317 0.00434011 0.0410511
27 3 O -0.508028 1.05712 0.196716 -1.2 1 0.000881964 0.00262835 0.00354563 0.00417665 0.00168712 0.00561844 0.00259209 0.017384 0.00209131 0.0065185 0.0023714 0.022424 0.00264307 0.0126094 0.00315814 0.0214059 0.0046482 0.0149165 0.00459914 0.0404211
28 3 O -0.552171 1.05712 2.79288 -1.2 1 0.000901208 0.00232451 0.00307378 0.004657 0.00136909 0.00641837 0.00245452 0.0162173 0.00255809 0.00583099 0.00177854 0.0230833 0.00280827 0.0114715 0.00344658 0.0216911 0.00510511 0.0156997 0.00427923 0.0401118
29 1 Mg 6.31713 4.74899 0 1.2 1 0.000792735 0.00267919 0.001675 0.00451777 0.00240182 0.00630205 0.00332119 0.0181526 0.00280365 0.00703876 0.00194464 0.0253808 0.00266588 0.0138424 0.00422189 0.0243389 0.00488463 0.0161294 0.00592718 0.0432826
30 1 Mg 3.54847 9.45668 1.4948 1.2 1 0.00171504 0.00311083 0.00161649 0.00433969 0.00204269 0.00740232 0.00312061 0.0212772 0.00185328 0.00841872 0.00213271 0.0283049 0.00310744 0.0156528 0.0038113 0.0290139 0.00423148 0.0178214 0.00375485 0.0489524
31 2 Si 5.36879 6.77254 1.4948 2.4 1 0.00142202 0.00298286 0.00170342 0.00486494 0.00260912 0.00681234 0.00377415 0.0195381 0.00265341 0.00763805 0.00220243 0.027509 0.00302518 0.0152719 0.00406144 0.0267389 0.00480685 0.0170344 0.00521767 0.0466578
32 3 O 5.41937 8.38578 1.4948 -1.2 1 0.00173887 0.00311257 0.00139892 0.00473434 0.00216168 0.00761095 0.00313112 0.020799 0.00233272 0.00826493 0.00238416 0.0285787 0.00199119 0.0153949 0.00313954 0.029055 0.00474422 0.0172512 0.00475048 0.0482256
33 3 O 1.75158 5.79852 1.4948 -1.2 1 0.00185698 0.0034654 0.00181317 0.00380482 0.00220128 0.00597799 0.00320355 0.0193719 0.00276389 0.00710323 0.00246684 0.0275971 0.00272665 0.0155347 0.00339044 0.0267623 0.00547996 0.0172802 0.00532184 0.0459372
34 3 O 4.67421 6.06637 0.196716 -1.2 1 0.000906857 0.0027221 0.00133481 0.00453309 0.00197157 0.00691903 0.00299147 0.0197579 0.00251026 0.00812815 0.00184328 0.0262826 0.00337282 0.0142924 0.00435376 0.026377 0.00485613 0.0164616 0.00560097 0.0453145
35 1 Mg 6.26654 4.74899 2.9896 1.2 1 0.00202789 0.00317516 0.00184668 0.00467445 0.00260561 0.00643702 0.00371306 0.0177433 0.00353284 0.00664079 0.00221152 0.0256186 0.00326794 0.0143468 0.00503843 0.0247772 0.00595849 0.0173053 0.00658947 0.043762
36 3 O 4.63043 6.06637 2.79288 -1.2 1 0.00297068 0.00342435 0.00163643 0.00449283 0.00211479 0.00665076 0.00340955 0.0191716 0.00314475 0.0073816 0.00252425 0.0259351 0.0035678 0.0146122 0.00473612 0.0269614 0.0059412 0.0176343 0.00638747 0.0457318
37 1 Mg -1.12976 4.79031 4.4844 1.2 1 0.00311797 0.00396624 0.00157707 0.00442989 0.00233337 0.0061948 0.00302358 0.0174865 0.0033328 0.00640821 0.00284947 0.0254973 0.00368691 0.0139214 0.0042818 0.0250893 0.00716946 0.0182167 0.00699658 0.0439936
38 2 Si -2.9517 7.47444 4.4844 2.4 1 0.00388621 0.00444414 0.00129094 0.00477383 0.00268533 0.00656959 0.00351106 0.0197152 0.00300467 0.00724048 0.00319654 0.0267103 0.00410797 0.0154589 0.00555652 0.0277388 0.00689917 0.0184008 0.0075138 0.0471576
39 3 O -3.00198 5.86121 4.4844 -1.2 1 0.00343255 0.00451325 0.00115149 0.00453191 0.00309634 0.00618071 0.00402944 0.018286 0.00351157 0.00684065 0.00296588 0.0254041 0.00399936 0.013704 0.00462738 0.0263297 0.00677991 0.0187147 0.00776712 0.0451925
40 3 O 0.666315 8.44846 4.4844 -1.2 1 0.00377152 0.00478365 0.00105033 0.00455549 0.00278761 0.00719166 0.00276445 0.0204953 0.00296477 0.00716548 0.00339935 0.0276441 0.00416354 0.0154159 0.00417547 0.0288693 0.006214 0.0186831 0.00768482 0.047784
41 3 O -2.21213 8.18062 3.18632 -1.2 1 0.00317854 0.00435531 0.00139828 0.00425296 0.00260699 0.00625914 0.00266284 0.0205026 0.00264903 0.0078512 0.00293503 0.0272876 0.00374225 0.0154594 0.00503783 0.0291239 0.00614865 0.0184968 0.00623283 0.0486105
42 3 O -2.25864 8.18062 5.78248 -1.2 1 0.00439949 0.00454979 0.00117138 0.00418584 0.00287849 0.00580372 0.002933 0.0195447 0.00283046 0.00762314 0.00345906 0.0258602 0.00419178 0.0156673 0.0049289 0.0283218 0.00695594 0.0191545 0.00826378 0.0473615
43 1 Mg 1.20893 7.12349 2.9896 1.2 1 0.00292717 0.00392772 0.00167473 0.0040634 0.00266308 0.00665118 0.00361186 0.0193539 0.00274754 0.0077758 0.00298833 0.0275135 0.00316932 0.0157019 0.00366354 0.0271507 0.00552225 0.0177126 0.00588539 0.0468783
44 1 Mg 4.00982 7.08218 4.4844 1.2 1 0.00378396 0.0038334 0.00151729 0.0043484 0.00238341 0.00632582 0.00368576 0.0194437 0.00344261 0.00701413 0.00336214 0.0268189 0.00418922 0.0163429 0.00569855 0.0275492 0.00706323 0.0182772 0.00777594 0.0467639
45 2 Si 2.17861 9.14704 4.4844 2.4 1 0.00386495 0.00395835 0.00150961 0.00437649 0.00291116 0.00707326 0.00369994 0.0205844 0.00274797 0.00749779 0.0033134 0.0274836 0.00437599 0.0161443 0.00447065 0.0290738 0.00567386 0.0185521 0.00660014 0.0494882
46 3 O 2.18828 10.7603 4.4844 -1.2 1 0.00405898 0.00409696 0.00154954 0.00424853 0.0026468 0.00694112 0.00275669 0.0201154 0.00220148 0.00767197 0.00251718 0.027772 0.00398417 0.0151741 0.00445945 0.0301963 0.00575508 0.0189899 0.00616506 0.0498997
47 3 O -4.43805 8.17302 4.4844 -1.2 1 0.0037129 0.00430281 0.00151916 0.00467959 0.00223837 0.0075643 0.00320522 0.0200201 0.0030465 0.00747982 0.00354181 0.0277852 0.00424203 0.0155591 0.0050724 0.0291217 0.00666469 0.0184799 0.00817402 0.047519
48 3 O 2.89193 8.44087 3.18632 -1.2 1 0.00354192 0.00356575 0.00143747 0.00400712 0.00236338 0.00680763 0.00328281 0.0202006 0.00273284 0.00805342 0.00291913 0.0271422 0.00367814 0.0155286 0.0045894 0.0286627 0.00589873 0.0181009 0.00553607 0.0483208
49 1 Mg 1.25915 7.12349 0 1.2 1 0.000625871 0.0029718 0.00125897 0.00383957 0.00172539 0.0071804 0.00294615 0.0202136 0.00273174 0.00823567 0.00234975 0.0274622 0.00338078 0.014331 0.00334074 0.0272559 0.00473957 0.0173456 0.00442846 0.0462221
50 3 O 2.84547 8.44087 5.78248 -1.2 1 0.00451709 0.00443659 0.00128249 0.00423741 0.00234121 0.00639295 0.00328616 0.0199395 0.00291235 0.0074234 0.00377425 0.0259242 0.00513752 0.0156355 0.00523809 0.0288842 0.0060157 0.019932 0.00729955 0.0484131
51 1 Mg -1.59284 7.16481 1.4948 1.2 1 0.00154559 0.00360513 0.00117614 0.0043301 0.00174683 0.00635512 0.00270164 0.0197963 0.00273026 0.00761204 0.0019448 0.0274846 0.00333302 0.0155025 0.00373221 0.0270924 0.00492699 0.0173569 0.00540285 0.0468834
52 2 Si 0.240329 5.09994 1.4948 2.4 1 0.00135069 0.00371908 0.00184227 0.00407451 0.00174981 0.00677401 0.00301923 0.0188142 0.00299897 0.00711065 0.00227876 0.0259663 0.00265334 0.0146451 0.00387728 0.0247474 0.0053557 0.0166519 0.0050922 0.0450442
53 3 O 0.234538 3.48671 1.4948 -1.2 1 0.00121187 0.00360459 0.00262461 0.00436853 0.00194134 0.00642306 0.0024848 0.0178694 0.00323117 0.00671652 0.00251898 0.0246241 0.00306446 0.013487 0.00376301 0.0239735 0.00557645 0.0157721 0.00520915 0.0427446
54 3 O 6.85564 6.07396 1.4948 -1.2 1 0.00178586 0.00291184 0.00203611 0.00450734 0.00244513 0.00607649 0.00312973 0.0197708 0.00303947 0.00740587 0.00203381 0.0274778 0.00314215 0.0145633 0.00493404 0.0268321 0.00570337 0.017513 0.00622123 0.0456131
55 3 O -0.429565 5.80612 0.196716 -1.2 1 0.000866248 0.0031721 0.00203567 0.0039059 0.00167882 0.00706162 0.00265632 0.0196029 0.00272823 0.00841816 0.00227044 0.0256895 0.00257307 0.0141878 0.00383226 0.0257935 0.00522875 0.0165936 0.0056026 0.045498
56 3 O -0.473377 5.80612 2.79288 -1.2 1 0.00268048 0.00382954 0.00176159 0.00426198 0.00232107 0.00665254 0.00301908 0.0190193 0.00302336 0.00758772 0.00301229 0.025702 0.00342302 0.0143494 0.0043707 0.026298 0.00631222 0.0180408 0.006365 0.0461586
57 1 Mg 6.40169 9.49799 0 1.2 1 0.000235475 0.00358596 0.00152102 0.00430243 0.00171111 0.00813007 0.00192486 0.0208961 0.00170805 0.00891353 0.00170799 0.0286298 0.00220927 0.0147821 0.00262999 0.0296321 0.00371645 0.0175543 0.00397851 0.0478166
58 1 Mg 3.64209 14.2057 1.4948 1.2 1 0.00133663 0.00308845 0.00157288 0.00439332 0.00154514 0.0086175 0.00162287 0.0213429 0.00175573 0.00862487 0.00218355 0.027997 0.00243132 0.0157371 0.00276023 0.0298198 0.00345763 0.0166978 0.00340463 0.0488826
59 2 Si 5.45748 11.5215 1.4948 2.4 1 0.00141719 0.00308491 0.00173471 0.00434194 0.00179452 0.00804764 0.0022054 0.0208553 0.00150308 0.00833936 0.0016999 0.0285566 0.00236397 0.0159662 0.00327931 0.0294936 0.00406502 0.016554 0.00353188 0.049249
60 3 O 5.51101 13.1348 1.4948 -1.2 1 0.00126689 0.00307597 0.0016374 0.00441477 0.00148522 0.00895975 0.00160958 0.0209309 0.00177248 0.00861163 0.00184102 0.0289866 0.00218866 0.0157455 0.00307662 0.0300836 0.00365875 0.0166214 0.00348939 0.0489854
61 3 O 1.83851 10.5475 1.4948 -1.2 1 0.00150571 0.0033358 0.00153731 0.00453429 0.00182584 0.00751893 0.00219609 0.0215122 0.00174102 0.00834862 0.00193013 0.0289654 0.00235495 0.0156549 0.00325103 0.0297502 0.00405239 0.0174967 0.00332036 0.0493172
62 3 O 4.7611 10.8154 0.196716 -1.2 1 0.000640076 0.00276289 0.00188944 0.00427861 0.00163658 0.00837427 0.00219261 0.0211769 0.00153287 0.00876409 0.00159984 0.0280235 0.00270748 0.0153586 0.00370682 0.0293855 0.00373954 0.0168801 0.00341424 0.0486697
63 1 Mg 6.35203 9.49799 2.9896 1.2 1 0.0025844 0.00385584 0.00148967 0.00469403 0.0024901 0.00740762 0.00329391 0.0202503 0.00313815 0.00832944 0.00217273 0.0290785 0.00361336 0.0159465 0.00338778 0.0292063 0.0043179 0.0179305 0.00518074 0.0487461
64 3 O 4.71833 10.8154 2.79288 -1.2 1 0.00302163 0.00346414 0.00157083 0.00425699 0.00215864 0.00798601 0.00234373 0.0213789 0.00206565 0.00871602 0.002194 0.027937 0.00343702 0.0157498 0.00402585 0.0301433 0.00486365 0.0181131 0.00514048 0.0500274
65 1 Mg -1.0438 9.53931 4.4844 1.2 1 0.00355236 0.00441973 0.00115608 0.00420543 0.00290523 0.00646864 0.00236221 0.020555 0.00282249 0.00781819 0.00300024 0.027576 0.00366116 0.0159382 0.0044319 0.0298652 0.00649123 0.019094 0.00690942 0.0492745
66 2 Si -2.8604 12.2234 4.4844 2.4 1 0.00356913 0.00404341 0.0016827 0.00426581 0.00291204 0.0075318 0.00320685 0.0214844 0.00258491 0.00826151 0.00242099 0.0273347 0.00405945 0.0163015 0.00437367 0.0296195 0.00548493 0.0189232 0.00590263 0.0503299
67 3 O -2.91391 10.6102 4.4844 -1.2 1 0.00394494 0.00424801 0.0017428 0.00403011 0.00284103 0.00680918 0.00322225 0.0201602 0.00250207 0.00752868 0.00245543 0.0278868 0.00420974 0.0155406 0.00425031 0.0304446 0.00580458 0.0187906 0.00643009 0.0493216
68 3 O 0.7596 13.1975 4.4844 -1.2 1 0.00373682 0.00412366 0.00174361 0.00457098 0.00268753 0.00840762 0.00250121 0.0215525 0.0024757 0.00808908 0.00289085 0.0276839 0.00366983 0.0159881 0.0040735 0.0301054 0.0058012 0.0191783 0.00612821 0.0500433
69 3 O -2.12001 12.9296 3.18632 -1.2 1 0.00303742 0.0037853 0.00188322 0.003996 0.00251248 0.00749592 0.00239827 0.0214962 0.00223422 0.00827992 0.00248909 0.0273224 0.00363281 0.0160395 0.0047144 0.0304224 0.00515415 0.0182589 0.00505104 0.0501886
70 3 O -2.16532 12.9296 5.78248 -1.2 1 0.00433845 0.00422997 0.00171714 0.00420944 0.00278878 0.00662031 0.002638 0.0206879 0.00225976 0.00770596 0.00266752 0.0262115 0.00359156 0.0162261 0.0044406 0.0307952 0.00597446 0.0202443 0.00610289 0.0505678
71 1 Mg 1.29891 11.8725 2.9896 1.2 1 0.00230515 0.00340392 0.00163558 0.00445176 0.00231981 0.00789337 0.00269726 0.0206639 0.00234521 0.00838666 0.00224446 0.0284474 0.00321877 0.0159745 0.00376984 0.0297319 0.00447399 0.0173318 0.00471542 0.049117
72 1 Mg 4.10033 11.8312 4.4844 1.2 1 0.0039532 0.00367407 0.00184679 0.00404532 0.00259358 0.00710415 0.00259754 0.0208496 0.002678 0.00793828 0.0029478 0.0279357 0.00380697 0.0169383 0.00534945 0.0299803 0.00618571 0.0186372 0.0061234 0.0502162
73 2 Si 2.27333 13.896 4.4844 2.4 1 0.00318718 0.00356205 0.00178082 0.00459652 0.00298372 0.00766928 0.00318973 0.0214632 0.00235262 0.00810192 0.00299031 0.0272528 0.00358437 0.0164229 0.00457359 0.0299764 0.00545791 0.0185223 0.00590829 0.0510387
74 3 O 2.28634 15.5093 4.4844 -1.2 1 0.0029987 0.00389274 0.00169561 0.00442122 0.00301664 0.00719199 0.00293422 0.0205733 0.00259965 0.00757313 0.00228562 0.0277893 0.00296426 0.0156397 0.00396638 0.0305443 0.00568307 0.0186392 0.00609668 0.0500908
75 3 O -4.34533 12.922 4.4844 -1.2 1 0.00361584 0.00377758 0.00188174 0.00442559 0.00279609 0.00815031 0.00289052 0.0212726 0.00265139 0.00824551 0.00253553 0.0279548 0.00379671 0.0159766 0.00496869 0.0300249 0.00607665 0.0190373 0.00663513 0.0498438
76 3 O 2.98455 13.1899 3.18632 -1.2 1 0.00261102 0.00323283 0.00147788 0.00398426 0.00243717 0.007615 0.00203904 0.0215108 0.002231 0.00840824 0.00255958 0.0273024 0.00335666 0.0158115 0.00453001 0.0300683 0.0054812 0.0182549 0.00543069 0.0500071
77 1 Mg 1.34779 11.8725 0 1.2 1 0.00128616 0.00260216 0.00132664 0.00435451 0.00153447 0.00873561 0.00155586 0.0210471 0.00134302 0.00908895 0.00179682 0.0286255 0.00256437 0.0147498 0.00276826 0.0300281 0.00292837 0.0169284 0.0033192 0.0482766
78 3 O 2.93934 13.1899 5.78248 -1.2 1 0.0044563 0.00415832 0.00158743 0.00442543 0.00270984 0.00688171 0.00256406 0.021321 0.00236579 0.00781251 0.00332322 0.0261714 0.00425088 0.0159923 0.00518897 0.0306756 0.00610207 0.020858 0.00650078 0.0507662
79 1 Mg -1.50344 11.9138 1.4948 1.2 1 0.000985839 0.00338342 0.00149557 0.00411748 0.00140546 0.00811833 0.00159589 0.0214065 0.00240588 0.00844178 0.00170967 0.0283814 0.00348593 0.0158495 0.00328495 0.0298302 0.00342974 0.0171864 0.00365333 0.0492907
80 2 Si 0.326006 9.84894 1.4948 2.4 1 0.00102425 0.00353157 0.00119822 0.00446031 0.00186603 0.00792153 0.00182956 0.0209241 0.0021127 0.0084086 0.00160151 0.0282469 0.00280296 0.0155476 0.00345037 0.0289186 0.00388052 0.0173492 0.00328766 0.0487778
81 3 O 0.317364 8.23571 1.4948 -1.2 1 0.00198137 0.00374698 0.000956314 0.00411347 0.00179304 0.0075379 0.00194514 0.0201606 0.00251864 0.00791154 0.00173262 0.0282934 0.00330363 0.0156318 0.00371265 0.0287023 0.00453517 0.0174852 0.00407196 0.047965
82 3 O 6.94307 10.823 1.4948 -1.2 1 0.00138955 0.00355654 0.001271 0.00410504 0.00176932 0.00756111 0.00238544 0.0215776 0.00231506 0.00835806 0.0016052 0.0290745 0.00290179 0.0156645 0.00334258 0.0299634 0.00378966 0.0176554 0.00392778 0.0493994
83 3 O -0.343122 10.5551 0.196716 -1.2 1 0.000225012 0.00322815 0.00126261 0.00426927 0.00141655 0.00845624 0.00186644 0.0212932 0.0018546 0.00896193 0.00197588 0.0278424 0.00327476 0.0151957 0.00412026 0.0293734 0.00357397 0.0170037 0.00329706 0.0486568
84 3 O -0.385966 10.5551 2.79288 -1.2 1 0.00327474 0.00400433 0.0010201 0.00413493 0.0024123 0.0078602 0.00213284 0.0212723 0.00209071 0.0086792 0.0025303 0.0273589 0.00354932 0.0156397 0.0040131 0.0299964 0.00530175 0.0181538 0.00481405 0.0497403
85 1 Mg 6.49448 14.247 0 1.2 1 0.00188072 0.00296764 0.00168874 0.00440543 0.00112661 0.00924214 0.00116057 0.0208915 0.00117764 0.00856284 0.00145987 0.0286088 0.00164208 0.0150248 0.00240039 0.0300103 0.00310434 0.0161917 0.00265456 0.0483214
86 1 Mg 3.74457 18.9547 1.4948 1.2 1 0.00207852 0.00323265 0.00172225 0.00424894 0.00182347 0.00841256 0.00127858 0.0219018 0.00205293 0.00797958 0.00207079 0.027367 0.00236815 0.0160728 0.00295515 0.0291002 0.00353317 0.0161432 0.00319786 0.0490821
87 2 Si 5.55495 16.2705 1.4948 2.4 1 0.00159328 0.00273452 0.0016389 0.00462227 0.00184603 0.00876196 0.00124857 0.0211159 0.00149694 0.00787644 0.00130154 0.0283418 0.00202453 0.0158971 0.00264431 0.0292369 0.00355283 0.0158216 0.00339604 0.0491623
88 3 O 5.6115 17.8838 1.4948 -1.2 1 0.00143556 0.00274833 0.00177251 0.00445153 0.00183594 0.00910208 0.00141511 0.0213887 0.0019191 0.00789695 0.00131198 0.0285507 0.00211616 0.0161768 0.00257349 0.0292106 0.00320054 0.0157557 0.00338202 0.0490132
89 3 O 1.93416 15.2965 1.4948 -1.2 1 0.00108716 0.0030653 0.00146741 0.00447684 0.00176174 0.00830979 0.00190305 0.0215145 0.00189487 0.00801295 0.00153623 0.0286702 0.00192313 0.0160111 0.00285678 0.0298027 0.0038559 0.0166278 0.00343949 0.0492973
90 3 O 4.85636 15.5644 0.196716 -1.2 1 0.00214276 0.00242608 0.0015445 0.00436953 0.00121763 0.00910969 0.00129777 0.021022 0.00109212 0.00818168 0.00137335 0.027753 0.00237401 0.0157204 0.00325676 0.029536 0.00315123 0.0157409 0.00287118 0.0488909
91 1 Mg 6.44662 14.247 2.9896 1.2 1 0.00129521 0.00331526 0.00160545 0.00439791 0.00244904 0.00828663 0.00283655 0.0206127 0.00248081 0.00845857 0.00185325 0.0286667 0.00295334 0.0162718 0.00297282 0.0297192 0.00401001 0.0173343 0.00456769 0.0491963
92 3 O 4.81537 15.5644 2.79288 -1.2 1 0.00172963 0.00309377 0.00160467 0.00419045 0.00227498 0.0085761 0.00165914 0.0216434 0.00165013 0.00867335 0.00174299 0.0276322 0.00275159 0.0160153 0.00338849 0.0295967 0.00466466 0.0171337 0.00506413 0.0493077
93 1 Mg -0.948271 14.2883 4.4844 1.2 1 0.00327601 0.00360962 0.00170163 0.00424651 0.00266821 0.00757229 0.00269032 0.0210484 0.00265207 0.00811052 0.0029209 0.0274284 0.00320982 0.016515 0.00485904 0.0301296 0.00592435 0.0185612 0.00581067 0.0499776
94 2 Si -2.75928 16.9724 4.4844 2.4 1 0.0023418 0.00317828 0.00194896 0.00452388 0.00308571 0.00765889 0.00288463 0.0215297 0.00273151 0.00788284 0.00239712 0.0274238 0.00325756 0.0162561 0.00448634 0.0299183 0.00498782 0.0182999 0.00596211 0.0501985
95 3 O -2.81617 15.3592 4.4844 -1.2 1 0.00311621 0.00350556 0.00200493 0.00429586 0.00301175 0.00733545 0.00289236 0.0204712 0.00255286 0.00762302 0.00193101 0.0277189 0.00338737 0.0157354 0.00424455 0.0303863 0.00578917 0.0183757 0.00601859 0.0498554
96 3 O 0.862762 17.9465 4.4844 -1.2 1 0.00266327 0.00396296 0.00190409 0.00465616 0.00309122 0.00838083 0.00259373 0.0219741 0.00261098 0.00796878 0.00224207 0.0279059 0.00324316 0.0165854 0.00424021 0.0291331 0.00559987 0.0188069 0.0055515 0.050022
97 3 O -2.0185 17.6786 3.18632 -1.2 1 0.00167741 0.00297133 0.00206743 0.00414227 0.00280383 0.00734198 0.00227478 0.0218991 0.00226996 0.00808137 0.00212079 0.0272287 0.00347621 0.0162502 0.00428144 0.0299245 0.00465879 0.0175652 0.0049691 0.04983
98 3 O -2.06164 17.6786 5.78248 -1.2 1 0.00315466 0.00364662 0.00167864 0.00426544 0.00297605 0.00680619 0.00251886 0.0214246 0.00251669 0.00780988 0.00233842 0.0266845 0.00302087 0.016558 0.00456674 0.0303011 0.00575896 0.0203897 0.00575562 0.0503094
99 1 Mg 1.39817 16.6215 2.9896 1.2 1 0.00167768 0.00338876 0.00156301 0.00452434 0.0025783 0.00833241 0.00261995 0.0210405 0.00270573 0.00829377 0.00215676 0.0282036 0.00226473 0.0159719 0.0035307 0.0296718 0.00422336 0.016957 0.00421467 0.0490895
100 1 Mg 4.20062 16.5802 4.4844 1.2 1 0.00262108 0.00337779 0.00174248 0.00428116 0.00277919 0.00747766 0.0026326 0.0212267 0.0030312 0.00785529 0.00255508 0.0279449 0.00329679 0.0171277 0.00531925 0.0296318 0.00586017 0.018548 0.0058918 0.0499296
101 2 Si 2.37796 18.645 4.4844 2.4 1 0.00234011 0.00362993 0.00161455 0.00464383 0.00311042 0.00776846 0.00305811 0.0219733 0.00269769 0.00799246 0.00224855 0.0272767 0.00303677 0.0166349 0.00434978 0.0291847 0.00513445 0.0183582 0.00540245 0.0505066
102 3 O 2.39434 20.2583 4.4844 -1.2 1 0.00240737 0.00387057 0.00159466 0.00443565 0.0030723 0.00691513 0.00284779 0.0210286 0.00279388 0.00745315 0.00157993 0.0280962 0.00305849 0.0161147 0.00398298 0.029408 0.00546975 0.0184151 0.00616309 0.0497394
103 3 O -4.24274 17.671 4.4844 -1.2 1 0.00202652 0.00370419 0.00182806 0.00459025 0.0029426 0.00835514 0.00282828 0.0218499 0.00280083 0.00789396 0.00213639 0.0278329 0.00319643 0.0161584 0.00462801 0.029596 0.00554791 0.0188833 0.00632659 0.0495384
104 3 O 3.08659 17.9389 3.18632 -1.2 1 0.00180985 0.00327925 0.00158391 0.00409624 0.00280099 0.00770127 0.00219334 0.022062 0.00244055 0.00804507 0.00192957 0.0273011 0.00282155 0.016247 0.00392569 0.0294036 0.00522885 0.017442 0.00530474 0.0497489
105 1 Mg 1.44478 16.6215 0 1.2 1 0.00305977 0.00253185 0.00128411 0.00415654 0.00134524 0.00900681 0.00104369 0.0211593 0.00148081 0.00814194 0.00154494 0.0282754 0.00196237 0.0154836 0.00207082 0.0295003 0.00266117 0.0159196 0.00300821 0.0485307
106 3 O 3.0436 17.9389 5.78248 -1.2 1 0.00300081 0.00410836 0.00165205 0.00462648 0.00279619 0.00692654 0.00264246 0.0215012 0.00238289 0.00778572 0.00264809 0.0264699 0.00334854 0.0163909 0.00509379 0.0304074 0.00601454 0.0210045 0.00601643 0.0506803
107 1 Mg -1.40524 16.6628 1.4948 1.2 1 0.00133961 0.00304262 0.00170964 0.00421845 0.00176851 0.00857079 0.00173021 0.0217914 0.00210708 0.00823804 0.00195392 0.0278162 0.00290055 0.0163064 0.00295545 0.0294961 0.00302243 0.0166478 0.00321148 0.048856
108 2 Si 0.420358 14.5979 1.4948 2.4 1 0.000801095 0.00289551 0.00155282 0.00453724 0.00197945 0.00903338 0.0017327 0.0210282 0.00169149 0.00818402 0.001646 0.0281053 0.00273426 0.0160386 0.003398 0.0290498 0.00352146 0.0163953 0.00335989 0.0489729
109 3 O 0.408732 12.9847 1.4948 -1.2 1 0.0010916 0.00308252 0.00128198 0.00445242 0.00171445 0.00895199 0.001299 0.020945 0.0022448 0.008368 0.00160092 0.0286427 0.00294118 0.0157792 0.00299375 0.0298027 0.00331228 0.0166669 0.00354652 0.0491443
110 3 O 7.03923 15.572 1.4948 -1.2 1 0.000801941 0.0028547 0.00161288 0.00438882 0.00209604 0.00823343 0.00223015 0.0213921 0.00215797 0.00802469 0.00165201 0.0289586 0.00237559 0.0161467 0.00277845 0.0297757 0.00348921 0.0166922 0.00382456 0.0493272
111 3 O -0.248332 15.3041 0.196716 -1.2 1 0.00204092 0.00251528 0.00127975 0.00435521 0.00104326 0.00913931 0.0016913 0.0210536 0.00143303 0.00820581 0.00177537 0.0276647 0.00306513 0.0154875 0.00378616 0.0293217 0.00301754 0.0158541 0.00315458 0.0486093
112 3 O -0.289436 15.3041 2.79288 -1.2 1 0.00206854 0.00333378 0.00152684 0.00413104 0.00241808 0.0083441 0.00182391 0.0217031 0.00191792 0.00863703 0.00222446 0.0269797 0.00306192 0.0163634 0.00371711 0.029856 0.0047269 0.0174122 0.00444393 0.0494644
113 1 Mg 6.59566 18.996 0 1.2 1 0.00265812 0.00273058 0.00154949 0.00433526 0.00114718 0.00861413 0.00115748 0.0216432 0.0012953 0.00777414 0.00164777 0.0279293 0.00196551 0.0160976 0.00215644 0.0288989 0.00271109 0.0157242 0.00238094 0.0484693
114 1 Mg 3.85574 23.7037 1.4948 1.2 1 0.00213668 0.00295689 0.00122769 0.00410422 0.00153378 0.00751899 0.00131013 0.0229837 0.00179217 0.00721618 0.00217029 0.0270202 0.00250118 0.0173335 0.00347221 0.028544 0.00353752 0.0168382 0.00333331 0.0500431
115 2 Si 5.66125 21.0195 1.4948 2.4 1 0.00182956 0.00254974 0.0013546 0.0042715 0.00194064 0.00812034 0.00137455 0.0218024 0.00141538 0.00750052 0.00154326 0.0279514 0.00235596 0.0169955 0.00250257 0.0283418 0.0035342 0.0157603 0.00352779 0.0497119
116 3 O 5.72074 22.6328 1.4948 -1.2 1 0.00187234 0.00284472 0.00141622 0.0040624 0.00168534 0.00817747 0.00150935 0.0222231 0.00174731 0.00723545 0.00133562 0.0276583 0.00239109 0.0169504 0.00291074 0.0285244 0.00341478 0.016286 0.003398 0.0495872
117 3 O 2.03867 20.0455 1.4948 -1.2 1 0.00179328 0.00327935 0.00141024 0.00445335 0.00194183 0.00769249 0.00190333 0.0220954 0.00222663 0.00743882 0.00159185 0.0283874 0.00212181 0.0168739 0.00231969 0.0291256 0.00387393 0.0160287 0.00345315 0.0497462
118 3 O 4.96004 20.3134 0.196716 -1.2 1 0.00284113 0.00226374 0.00131061 0.00424052 0.00100757 0.00822948 0.00119472 0.0214924 0.00119296 0.00742765 0.00166196 0.0273817 0.0023984 0.0164089 0.00372459 0.0288998 0.00302887 0.0150857 0.002693 0.0491745
119 1 Mg 6.55057 18.996 2.9896 1.2 1 0.000640711 0.00306843 0.00158303 0.00439595 0.00274198 0.00807139 0.0027385 0.0211812 0.00245897 0.0080414 0.00147867 0.0285401 0.00270758 0.0166852 0.00295123 0.0289439 0.00394213 0.0170471 0.00447525 0.0489748