ITEM: TIMESTEP
26700
ITEM: NUMBER OF ATOMS
10500
ITEM: BOX BOUNDS xy xz yz pp pp pp
0	15.2977	5.09925
0	118.725	0
0	89.688	0
ITEM: ATOMS id type element xu yu zu q Q_1 Q_2 Q_3 Q_4 Q_5 Q_6 Q_7 Q_8 Q_9 Q_10 Q_11 Q_12 Q_13 Q_14 Q_15 Q_16 Q_17 Q_18 Q_19 Q_20 Q_21
1 1 Mg 6.2404 -6.37941e-06 0 1.2 1 0.000732292 0.00423851 0.00139832 0.00485811 0.00141701 0.00558251 0.00213087 0.0160326 0.00202324 0.00558248 0.00205416 0.0216346 0.00248254 0.0136413 0.00328731 0.020716 0.00398439 0.0140519 0.00389282 0.0407257
2 1 Mg 3.46349 4.70768 1.4948 1.2 1 0.0015726 0.00339686 0.00164965 0.00448551 0.00211649 0.00607593 0.00357758 0.0186645 0.00292641 0.00686182 0.00283678 0.0256949 0.00327116 0.0139043 0.00426577 0.0252407 0.00533416 0.0173 0.00563936 0.0437081
3 2 Si 5.2885 2.02354 1.4948 2.4 1 0.000747766 0.00340944 0.00199031 0.00441914 0.00188459 0.00569851 0.00252802 0.0167634 0.00247657 0.00592667 0.00186736 0.0229795 0.00262653 0.0134873 0.00336349 0.0214717 0.00372915 0.0151985 0.00401857 0.0409688
4 3 O 5.33628 3.63678 1.4948 -1.2 1 0.000746743 0.00297107 0.00161916 0.0048586 0.00221592 0.00621779 0.00290056 0.0177602 0.0023262 0.00662897 0.00196642 0.0249962 0.00256976 0.013684 0.00419083 0.0239991 0.00496315 0.0164954 0.00554295 0.0426858
5 3 O 1.67294 1.04952 1.4948 -1.2 1 0.00177749 0.00351829 0.00215089 0.00412524 0.0013393 0.00576083 0.00257468 0.0168573 0.00231494 0.00584002 0.00192733 0.0225194 0.00243794 0.0128705 0.00314929 0.0218079 0.00469109 0.0155835 0.00468454 0.0402589
6 3 O 4.59532 1.31737 0.196716 -1.2 1 0.000983179 0.00319322 0.00200748 0.00432221 0.00201508 0.00566301 0.00237624 0.0169984 0.00269543 0.00604223 0.00186954 0.0221279 0.00312194 0.0129274 0.00405542 0.0215475 0.00407764 0.0148556 0.00428839 0.040912
7 1 Mg 6.18956 -6.37941e-06 2.9896 1.2 1 0.00118722 0.00434217 0.0015838 0.00430429 0.00133793 0.005795 0.00262046 0.0159545 0.00277864 0.00535084 0.0017368 0.0221602 0.0024373 0.0135111 0.00344569 0.0205295 0.00449622 0.0145039 0.0049739 0.0390093
8 3 O 4.55118 1.31737 2.79288 -1.2 1 0.00148808 0.00415422 0.00189906 0.0042596 0.00189602 0.00578779 0.00255689 0.0169143 0.00263287 0.00659068 0.00217771 0.0214256 0.00316241 0.0122826 0.00321156 0.0214452 0.00482648 0.015469 0.00537819 0.0398355
9 1 Mg -1.20682 0.0413099 4.4844 1.2 1 0.000863954 0.00282762 0.00175309 0.0047047 0.00137488 0.00556997 0.00200974 0.01613 0.00235941 0.00551162 0.001902 0.0222396 0.0027291 0.0117529 0.00334345 0.0204086 0.0053433 0.0157729 0.00532286 0.0387327
10 2 Si -3.0337 2.72544 4.4844 2.4 1 0.00107724 0.00324022 0.00157581 0.00494656 0.00222764 0.00614811 0.00311315 0.0167334 0.00331015 0.00610235 0.00229118 0.0236573 0.00328984 0.0128657 0.00399181 0.0221503 0.00548543 0.017848 0.00646602 0.0395395
11 3 O -3.08099 1.11221 4.4844 -1.2 1 0.000753285 0.00354603 0.00168534 0.00444718 0.00148727 0.00551448 0.00232207 0.0160799 0.00303845 0.00527695 0.00227902 0.0220659 0.00307749 0.0114108 0.00348791 0.0210297 0.0050619 0.0163519 0.00601701 0.0383045
12 3 O 0.582463 3.69946 4.4844 -1.2 1 0.00138439 0.00453061 0.00208044 0.00453344 0.00245782 0.00664386 0.00344371 0.017268 0.00349352 0.00643224 0.00324838 0.0246064 0.00400451 0.0126306 0.00415021 0.0240902 0.00699722 0.0189074 0.00844857 0.0414515
13 3 O -2.29524 3.43162 3.18632 -1.2 1 0.000975406 0.00273837 0.00251711 0.00460322 0.00229963 0.00586438 0.00305659 0.0177309 0.00329893 0.00656204 0.00273424 0.0244361 0.0033921 0.0129331 0.00456576 0.0241243 0.00591149 0.0179784 0.00673167 0.0418093
14 3 O -2.34216 3.43162 5.78248 -1.2 1 0.000512119 0.00383679 0.00112889 0.00493517 0.00275967 0.00594008 0.00326029 0.0170856 0.00307818 0.00712811 0.00277889 0.023477 0.00437795 0.0120886 0.00422189 0.0230174 0.00642694 0.0195315 0.00741398 0.0398313
15 1 Mg 1.12778 2.37449 2.9896 1.2 1 0.00160755 0.00364737 0.00234872 0.00462379 0.00226355 0.00588527 0.00308546 0.0167631 0.00294842 0.0060048 0.00242304 0.023323 0.0032029 0.0128509 0.00322404 0.0219565 0.00486475 0.016657 0.00570856 0.0408458
16 1 Mg 3.92855 2.33318 4.4844 1.2 1 0.00192009 0.00417193 0.00131399 0.00435936 0.00168395 0.0057177 0.00359255 0.0168543 0.00337051 0.00599338 0.00309397 0.0226768 0.00354786 0.0131878 0.00509248 0.0217084 0.00619895 0.0173152 0.00699977 0.0400862
17 2 Si 2.09341 4.39804 4.4844 2.4 1 0.00143194 0.004349 0.00192205 0.00415996 0.00303381 0.00572933 0.00386187 0.0180458 0.00373925 0.00656104 0.00344782 0.0248685 0.00438172 0.0137011 0.00434762 0.0246475 0.006768 0.0187679 0.0086565 0.042932
18 3 O 2.09991 6.01128 4.4844 -1.2 1 0.00158237 0.00445243 0.00158979 0.00408547 0.00299312 0.00627741 0.0031502 0.0191881 0.00286702 0.00723185 0.00313567 0.0265957 0.00397743 0.0140654 0.00462794 0.0273421 0.00682187 0.0198886 0.00826806 0.0449347
19 3 O -4.52137 3.42402 4.4844 -1.2 1 0.00153129 0.00365316 0.0019313 0.00453413 0.00238344 0.00698041 0.00358423 0.0169951 0.00343382 0.0061901 0.00306732 0.0237399 0.00395164 0.0127598 0.00389449 0.0226241 0.00630873 0.0179454 0.00754188 0.0408698
20 3 O 2.80834 3.69187 3.18632 -1.2 1 0.0013614 0.00388936 0.00163813 0.00381612 0.00212319 0.0056766 0.00325445 0.0173805 0.0032106 0.00614945 0.00292648 0.0240833 0.00359648 0.0128806 0.00459337 0.0237771 0.00570107 0.017321 0.00657323 0.0422983
21 1 Mg 1.17857 2.37449 0 1.2 1 0.00192663 0.00373863 0.00210529 0.00406447 0.00157915 0.00557007 0.00256551 0.017109 0.0023773 0.00651193 0.00257163 0.0231479 0.00283125 0.013367 0.00340738 0.0217033 0.00450876 0.0149868 0.00456111 0.0406383
22 3 O 2.76143 3.69187 5.78248 -1.2 1 0.00186055 0.00437155 0.0018204 0.00430431 0.00219845 0.00557248 0.00273452 0.0176236 0.00339649 0.00696647 0.0029866 0.0233506 0.0045044 0.0126248 0.00542523 0.0228338 0.00655321 0.0188644 0.00740476 0.0405867
23 1 Mg -1.67381 2.41581 1.4948 1.2 1 0.00124308 0.0028783 0.00266304 0.0050003 0.00154659 0.00610913 0.00264847 0.0165425 0.00257452 0.0061368 0.0019473 0.024059 0.00249559 0.014285 0.00274415 0.0221327 0.00444522 0.0161576 0.0046689 0.0417142
24 2 Si 0.16286 0.350945 1.4948 2.4 1 0.0015844 0.00289228 0.00290054 0.00466957 0.00133096 0.00646618 0.00270877 0.0163854 0.00202609 0.00500586 0.0017336 0.022527 0.0022245 0.0135736 0.00293839 0.0206208 0.00475395 0.0147095 0.00433801 0.0402753
25 3 O 0.15972 -1.26229 1.4948 -1.2 1 0.00125497 0.00288469 0.00312196 0.00449575 0.00173205 0.00605611 0.00251759 0.0163061 0.00213582 0.00525921 0.00224844 0.0225054 0.00228839 0.0139282 0.0027395 0.02164 0.00426445 0.0143704 0.00403765 0.0409124
26 3 O 6.77654 1.32496 1.4948 -1.2 1 0.00113784 0.00390361 0.00156968 0.00469344 0.00131332 0.00600853 0.00244443 0.0166422 0.00260184 0.00531362 0.00166133 0.0234442 0.00266353 0.0136758 0.00336299 0.0217674 0.00461944 0.0152209 0.00424174 0.0408425
27 3 O -0.508028 1.05712 0.196716 -1.2 1 0.00118471 0.00291804 0.00343608 0.00417491 0.00137824 0.00560048 0.00245227 0.0169411 0.00177224 0.00646933 0.00236987 0.0219806 0.00265346 0.0129844 0.00298132 0.0212646 0.00430202 0.0150821 0.00415531 0.0402078
28 3 O -0.552171 1.05712 2.79288 -1.2 1 0.00105147 0.002481 0.0027537 0.00456673 0.00130329 0.00607139 0.0023773 0.0161505 0.00258236 0.00590057 0.00185601 0.0224953 0.00290873 0.0116966 0.00354932 0.0215566 0.00548945 0.0157895 0.00496974 0.0394669
29 1 Mg 6.31713 4.74899 0 1.2 1 0.00122088 0.00278604 0.00193304 0.00490731 0.00253537 0.00615802 0.00327883 0.01804 0.00279688 0.00699301 0.00216451 0.0251927 0.00297487 0.0137186 0.00419207 0.0244881 0.00482765 0.0164867 0.00588896 0.0427716
30 1 Mg 3.54847 9.45668 1.4948 1.2 1 0.000721113 0.0032211 0.00176633 0.00472388 0.00228475 0.00742768 0.00306636 0.0213602 0.00169791 0.00842564 0.00231653 0.0287699 0.00326796 0.0154396 0.00396866 0.0292099 0.00432775 0.0182809 0.00404108 0.0485657
31 2 Si 5.36879 6.77254 1.4948 2.4 1 0.00064435 0.00303018 0.00201656 0.00528331 0.0029453 0.00674727 0.00371788 0.0195573 0.00269777 0.00785405 0.00243855 0.02775 0.00325191 0.0151891 0.00414029 0.0269671 0.00474003 0.0174571 0.00526062 0.0462314
32 3 O 5.41937 8.38578 1.4948 -1.2 1 0.000555724 0.00302537 0.00172284 0.00518115 0.00244762 0.00752452 0.00306985 0.0208734 0.00224823 0.00843216 0.00239346 0.029165 0.00237747 0.0154414 0.00310521 0.0291027 0.00473755 0.0177033 0.00496246 0.0478325
33 3 O 1.75158 5.79852 1.4948 -1.2 1 0.00133389 0.00334759 0.00187438 0.00406246 0.00252422 0.00589047 0.00325156 0.0195324 0.00289243 0.00722924 0.00265886 0.027889 0.00302029 0.0153241 0.00352281 0.0268745 0.0053502 0.0177733 0.00555881 0.0455835
34 3 O 4.67421 6.06637 0.196716 -1.2 1 0.00104965 0.00307959 0.00168752 0.00496369 0.00219745 0.00692871 0.00290465 0.0197252 0.00253226 0.00806199 0.00210014 0.0261992 0.00351986 0.0142867 0.00425885 0.0266394 0.0048142 0.0168907 0.00549247 0.0448979
35 1 Mg 6.26654 4.74899 2.9896 1.2 1 0.00173607 0.00294351 0.00200752 0.00505992 0.00277098 0.00638574 0.00372229 0.0178877 0.00379828 0.00705852 0.00222947 0.0258365 0.0038196 0.0143827 0.00490713 0.0249293 0.00587078 0.0178077 0.00715504 0.0431951
36 3 O 4.63043 6.06637 2.79288 -1.2 1 0.00197337 0.00328138 0.00187549 0.00496855 0.00242202 0.00653748 0.00339486 0.019425 0.00335465 0.00786183 0.00260874 0.0261674 0.00403737 0.0144756 0.00474863 0.0271878 0.0059061 0.0184843 0.00686656 0.0452284
37 1 Mg -1.12976 4.79031 4.4844 1.2 1 0.00101693 0.00389099 0.00180501 0.00478831 0.00250392 0.0058647 0.00336765 0.0178357 0.00351519 0.00701763 0.00327444 0.0257855 0.00437886 0.0141341 0.00441214 0.0254935 0.00744746 0.0193272 0.00819969 0.0434501
38 2 Si -2.9517 7.47444 4.4844 2.4 1 0.00164868 0.00398262 0.0014456 0.00521129 0.00312158 0.00640394 0.00372357 0.0203951 0.00326141 0.00789472 0.00313787 0.0277868 0.00465078 0.0155584 0.00539481 0.0279976 0.00683396 0.0198523 0.00826387 0.0470765
39 3 O -3.00198 5.86121 4.4844 -1.2 1 0.0012915 0.00420531 0.00113414 0.00507205 0.00330743 0.00631608 0.00416478 0.0188178 0.0036463 0.0076585 0.0029458 0.0261511 0.00444379 0.0138746 0.00472015 0.026781 0.00686403 0.0199997 0.00839491 0.0448227
40 3 O 0.666315 8.44846 4.4844 -1.2 1 0.0020463 0.00476184 0.00127816 0.0051297 0.00314853 0.00733163 0.00288443 0.0212383 0.00318813 0.00806956 0.0032711 0.0287397 0.00483627 0.0155554 0.00459489 0.0290095 0.00660503 0.0202681 0.00803045 0.0480125
41 3 O -2.21213 8.18062 3.18632 -1.2 1 0.00108646 0.00389285 0.00155318 0.00458767 0.00279129 0.00619563 0.00274784 0.0207852 0.00286447 0.00819538 0.00290515 0.0278912 0.00425775 0.0156458 0.00492447 0.0289067 0.00576891 0.0191632 0.00690708 0.0481318
42 3 O -2.25864 8.18062 5.78248 -1.2 1 0.00193868 0.00473875 0.00157432 0.00509137 0.00347018 0.00574788 0.00314202 0.0207434 0.00271017 0.0083413 0.00329535 0.0277038 0.00503568 0.0161635 0.00519117 0.0291636 0.00690744 0.0214456 0.00805719 0.048453
43 1 Mg 1.20893 7.12349 2.9896 1.2 1 0.00108543 0.00397654 0.0017631 0.0044311 0.00291542 0.00656594 0.00369056 0.0197452 0.00295613 0.0080834 0.00279081 0.0280509 0.00369549 0.0154952 0.00382144 0.0275472 0.00552311 0.018666 0.00645178 0.0466988
44 1 Mg 4.00982 7.08218 4.4844 1.2 1 0.00217469 0.00416423 0.00167175 0.00496476 0.00295524 0.0062096 0.00384699 0.0201769 0.00353725 0.00761023 0.00334317 0.0274368 0.00439954 0.0162658 0.00577405 0.0281861 0.00722074 0.0199386 0.00848784 0.0467144
45 2 Si 2.17861 9.14704 4.4844 2.4 1 0.00164968 0.00445576 0.00157054 0.0050918 0.00313287 0.00699847 0.00365221 0.0213634 0.00297938 0.00812645 0.00312755 0.0284278 0.0047992 0.0161661 0.00464498 0.0297653 0.00602805 0.0201192 0.00730992 0.0496769
46 3 O 2.18828 10.7603 4.4844 -1.2 1 0.00205141 0.00432743 0.00181409 0.00493108 0.00291823 0.00691276 0.00291123 0.0211537 0.00259872 0.00827022 0.00226606 0.0289738 0.00445261 0.0154806 0.00442339 0.0305491 0.00599385 0.0202951 0.00678227 0.0504962
47 3 O -4.43805 8.17302 4.4844 -1.2 1 0.00142196 0.00418699 0.00163214 0.00526803 0.00282516 0.00740322 0.00317124 0.0208507 0.00334094 0.00841303 0.0032223 0.0285736 0.00486271 0.0155836 0.00495077 0.0292335 0.00678624 0.0201465 0.00894875 0.0477029
48 3 O 2.89193 8.44087 3.18632 -1.2 1 0.00160066 0.00381025 0.00158093 0.00450343 0.00266437 0.00668267 0.00334802 0.0206956 0.00290051 0.0084643 0.00277295 0.0277926 0.00407511 0.0156069 0.0046479 0.028925 0.0059094 0.0191413 0.00598619 0.048322
49 1 Mg 1.25915 7.12349 0 1.2 1 0.00131924 0.00308637 0.0015638 0.00438945 0.00185277 0.00710952 0.00291049 0.0201854 0.00279834 0.00822975 0.00264678 0.0277205 0.00356559 0.0142688 0.00370478 0.0273286 0.00477006 0.0175238 0.00451615 0.0457135
50 3 O 2.84547 8.44087 5.78248 -1.2 1 0.00212462 0.0047331 0.00174497 0.00484498 0.0030832 0.00642886 0.00352505 0.0210902 0.00315497 0.00878433 0.00345841 0.0273805 0.00571987 0.0161314 0.0055415 0.0294513 0.00645204 0.0217079 0.0077859 0.0487143
51 1 Mg -1.59284 7.16481 1.4948 1.2 1 0.00102396 0.00312191 0.00126319 0.00471433 0.00198622 0.00628489 0.00263402 0.0199491 0.00296501 0.00796613 0.00187184 0.0278352 0.00339068 0.0154408 0.00373182 0.0271839 0.00465458 0.0178399 0.00558347 0.0464215
52 2 Si 0.240329 5.09994 1.4948 2.4 1 0.00135474 0.00365551 0.00194631 0.00406015 0.00202333 0.00667507 0.00311651 0.018876 0.00312819 0.00729938 0.00234102 0.0260751 0.00293919 0.0145061 0.00407588 0.0248028 0.00508678 0.0170829 0.00521929 0.0446127
53 3 O 0.234538 3.48671 1.4948 -1.2 1 0.00157082 0.00366614 0.00268048 0.00434898 0.0019356 0.00647311 0.00274506 0.0178997 0.00334942 0.00687922 0.00241362 0.0244554 0.00321905 0.0135698 0.00387061 0.0239629 0.00562738 0.0162093 0.00529411 0.0424355
54 3 O 6.85564 6.07396 1.4948 -1.2 1 0.00105819 0.00256896 0.00216714 0.00504261 0.00272614 0.0060325 0.00309423 0.0198999 0.00313358 0.00752343 0.00217004 0.0277504 0.00342891 0.0145747 0.00471732 0.0268982 0.00559895 0.0178992 0.00624217 0.0452854
55 3 O -0.429565 5.80612 0.196716 -1.2 1 0.00116595 0.0032035 0.0021922 0.00424476 0.00181998 0.00701181 0.00253817 0.0196116 0.00283771 0.00843148 0.00244258 0.0257938 0.00278273 0.0140876 0.00387125 0.025806 0.00497776 0.0168457 0.0055328 0.0449758
56 3 O -0.473377 5.80612 2.79288 -1.2 1 0.00119893 0.0035737 0.00186539 0.00453605 0.00250021 0.00648584 0.00317603 0.0191935 0.00319956 0.00797637 0.00299692 0.0259382 0.00401705 0.014342 0.00445157 0.0263613 0.0063213 0.0186691 0.00686294 0.0454487
57 1 Mg 6.40169 9.49799 0 1.2 1 0.000560717 0.00372242 0.00168287 0.00486405 0.0016661 0.00829288 0.00193076 0.0209338 0.00172655 0.00894909 0.00175417 0.0289084 0.00252299 0.014712 0.00274078 0.0298984 0.00378608 0.0180118 0.0041122 0.0472607
58 1 Mg 3.64209 14.2057 1.4948 1.2 1 0.00193944 0.00309647 0.00146785 0.00483025 0.00187774 0.00875006 0.00164949 0.0216583 0.00158419 0.00868206 0.0023338 0.0284731 0.0027523 0.0160555 0.00336032 0.0296216 0.00361123 0.0168359 0.00353511 0.0492728
59 2 Si 5.45748 11.5215 1.4948 2.4 1 0.00147473 0.00307513 0.00170053 0.0048595 0.00202452 0.00804502 0.0021434 0.0211797 0.00151416 0.00844205 0.00171613 0.0290359 0.0027474 0.016115 0.0035049 0.0293786 0.00418486 0.0170514 0.00392004 0.0490139
60 3 O 5.51101 13.1348 1.4948 -1.2 1 0.00179329 0.00304662 0.00169792 0.00487764 0.00182807 0.00893626 0.00172443 0.0212906 0.00169288 0.00873857 0.00162483 0.0294094 0.00241388 0.0160933 0.00304003 0.0298552 0.00381569 0.0166219 0.00369374 0.0489555
61 3 O 1.83851 10.5475 1.4948 -1.2 1 0.000543569 0.00345018 0.00166447 0.00494 0.00210247 0.00758449 0.00245041 0.0216767 0.00178992 0.00849933 0.00221249 0.0296221 0.00278833 0.0157004 0.00343284 0.0298335 0.00412752 0.0180619 0.00344709 0.0490378
62 3 O 4.7611 10.8154 0.196716 -1.2 1 0.00082411 0.00296593 0.0018351 0.00489375 0.00170762 0.00845773 0.0021574 0.0212941 0.00137763 0.008848 0.00186472 0.0284443 0.00305427 0.0155235 0.00397446 0.0294998 0.00385105 0.0172621 0.00366251 0.0483607
63 1 Mg 6.35203 9.49799 2.9896 1.2 1 0.000963395 0.00367868 0.00158206 0.00488026 0.00281922 0.00728391 0.00325186 0.0205615 0.00314733 0.00869506 0.00197744 0.0294524 0.00381831 0.0159066 0.00343953 0.0292408 0.00452671 0.0187138 0.00570373 0.048487
64 3 O 4.71833 10.8154 2.79288 -1.2 1 0.00182251 0.00361319 0.00157537 0.00473916 0.0022617 0.00790152 0.00214511 0.0215954 0.00206769 0.00908317 0.00210508 0.0284259 0.00369717 0.0157727 0.00421069 0.0301122 0.00536104 0.018632 0.00549792 0.0496872
65 1 Mg -1.0438 9.53931 4.4844 1.2 1 0.0019159 0.00463718 0.00160544 0.00473716 0.0032465 0.0066064 0.00247488 0.0211857 0.00287349 0.00851357 0.00272301 0.0287908 0.00418826 0.0161393 0.00457691 0.0297426 0.00650449 0.0203722 0.00724854 0.0495875
66 2 Si -2.8604 12.2234 4.4844 2.4 1 0.00210167 0.00403506 0.00183915 0.004727 0.00301259 0.00739625 0.0029895 0.0221059 0.00282068 0.00859647 0.00233161 0.0287286 0.00449033 0.0165212 0.00458992 0.0300884 0.00577449 0.019658 0.00664585 0.0512843
67 3 O -2.91391 10.6102 4.4844 -1.2 1 0.00209562 0.00439218 0.00167155 0.00470101 0.00316376 0.00687612 0.00313848 0.0210234 0.00271506 0.00797396 0.00200495 0.0289203 0.00449294 0.0156041 0.0042417 0.0305147 0.006036 0.0202386 0.00698581 0.0501618
68 3 O 0.7596 13.1975 4.4844 -1.2 1 0.00246076 0.00405617 0.00197484 0.0053262 0.003058 0.00840239 0.00261784 0.0224453 0.00278147 0.00853147 0.00280292 0.0291642 0.00446412 0.0161475 0.0044014 0.0300617 0.00597932 0.0198095 0.00666573 0.0510223
69 3 O -2.12001 12.9296 3.18632 -1.2 1 0.00203953 0.00373385 0.00179803 0.00446271 0.00277088 0.0074684 0.0022982 0.0219413 0.00242674 0.0085719 0.00216877 0.0282582 0.00399205 0.0162448 0.00470203 0.0303819 0.00516377 0.0187022 0.00528561 0.0504651
70 3 O -2.16532 12.9296 5.78248 -1.2 1 0.00272692 0.00433404 0.00185166 0.00507644 0.00306511 0.00668347 0.00239917 0.0222837 0.00241822 0.00847426 0.00279837 0.0280231 0.00438211 0.0169264 0.00502175 0.0309291 0.00617941 0.0214616 0.00678488 0.052561
71 1 Mg 1.29891 11.8725 2.9896 1.2 1 0.00170952 0.00355397 0.00168833 0.00519571 0.00269833 0.00797989 0.00276874 0.0212291 0.00250208 0.00857124 0.00210122 0.0293429 0.00366769 0.0160626 0.00352155 0.029904 0.00460313 0.0182738 0.00501326 0.0496115
72 1 Mg 4.10033 11.8312 4.4844 1.2 1 0.00181013 0.00398281 0.001824 0.00471009 0.0027393 0.00703212 0.00271786 0.0218079 0.002561 0.00841676 0.0027861 0.0291384 0.0039747 0.017015 0.00544666 0.0303698 0.00650912 0.0199405 0.00648774 0.0508436
73 2 Si 2.27333 13.896 4.4844 2.4 1 0.00242412 0.00348637 0.0017666 0.00543034 0.00324488 0.00769838 0.00317763 0.0222686 0.00243383 0.00827107 0.00273776 0.028614 0.00418415 0.0165744 0.00451473 0.03001 0.00540327 0.019326 0.00628174 0.051887
74 3 O 2.28634 15.5093 4.4844 -1.2 1 0.00286492 0.00386817 0.00182057 0.00504511 0.0031887 0.00711586 0.00286485 0.021364 0.00252125 0.0077802 0.00234108 0.0289665 0.00372215 0.0160682 0.00416302 0.0304721 0.00558402 0.0190973 0.00625962 0.0515671
75 3 O -4.34533 12.922 4.4844 -1.2 1 0.0019737 0.00408639 0.00192222 0.00507772 0.0030576 0.00818635 0.00289346 0.0221858 0.00277333 0.00863293 0.0024476 0.0292086 0.00420311 0.0162595 0.00511026 0.0302871 0.00648385 0.0200568 0.00717328 0.051049
76 3 O 2.98455 13.1899 3.18632 -1.2 1 0.0021717 0.00341948 0.00165186 0.00479264 0.00276805 0.00769981 0.00227205 0.0221201 0.00228536 0.00860102 0.00231915 0.0282618 0.0037805 0.0160505 0.0044809 0.0299666 0.00554319 0.018636 0.00549996 0.0504805
77 1 Mg 1.34779 11.8725 0 1.2 1 0.00126374 0.00287035 0.00138047 0.0049896 0.00160525 0.00883861 0.00142355 0.0212375 0.0012743 0.00914497 0.00190342 0.0290881 0.00297887 0.0148668 0.00316818 0.0301713 0.00341938 0.0172862 0.0033165 0.047901
78 3 O 2.93934 13.1899 5.78248 -1.2 1 0.00229828 0.00450549 0.00182321 0.00536864 0.002991 0.00688483 0.00279885 0.02247 0.0026315 0.00858097 0.00310206 0.0279646 0.00485012 0.0168001 0.00518557 0.0308721 0.00607196 0.0216882 0.00654793 0.0527024
79 1 Mg -1.50344 11.9138 1.4948 1.2 1 0.00117658 0.00340417 0.00150789 0.00479143 0.00166299 0.00824012 0.00176168 0.0216574 0.00256847 0.00867646 0.00170996 0.0289786 0.00363715 0.0160017 0.00347803 0.029727 0.00354518 0.0176821 0.00375457 0.0489748
80 2 Si 0.326006 9.84894 1.4948 2.4 1 0.00024255 0.00338463 0.00134445 0.0050499 0.0020947 0.00804781 0.0021195 0.0211439 0.00218572 0.00843416 0.00170133 0.0288205 0.003098 0.0156278 0.0036616 0.0288891 0.00374216 0.0179246 0.00350041 0.0484057
81 3 O 0.317364 8.23571 1.4948 -1.2 1 0.000961452 0.00350102 0.00114606 0.00454202 0.00203433 0.00757839 0.00201829 0.0203237 0.00265244 0.00805277 0.0018637 0.0288544 0.00354947 0.0156283 0.00391716 0.0286315 0.00444111 0.0178561 0.00428167 0.0475034
82 3 O 6.94307 10.823 1.4948 -1.2 1 0.000612506 0.00353215 0.00154542 0.00467707 0.00212027 0.00753007 0.00252748 0.0217999 0.00245559 0.00851734 0.00151101 0.0296764 0.00312461 0.0157385 0.00337413 0.0299446 0.00373798 0.0180616 0.00419069 0.0490178
83 3 O -0.343122 10.5551 0.196716 -1.2 1 0.000589898 0.00313499 0.00130515 0.00492859 0.00161664 0.00855448 0.00179009 0.0212964 0.00175388 0.00896032 0.00203952 0.0283963 0.00339931 0.0152879 0.00418583 0.0294395 0.0035738 0.0175883 0.00357381 0.0481783
84 3 O -0.385966 10.5551 2.79288 -1.2 1 0.00182612 0.00376157 0.00123917 0.00457592 0.00271462 0.00783796 0.00204862 0.0217707 0.00216394 0.00929144 0.0023519 0.028047 0.00401777 0.01582 0.00421411 0.0300048 0.00513713 0.0188869 0.00506666 0.0495225
85 1 Mg 6.49448 14.247 0 1.2 1 0.00164228 0.00304388 0.00161175 0.00489433 0.00124231 0.00922904 0.00124623 0.0213079 0.00125311 0.00868733 0.00161875 0.0287995 0.00199188 0.0155719 0.00267022 0.0300269 0.00323551 0.0162707 0.00307727 0.04812
86 1 Mg 3.74457 18.9547 1.4948 1.2 1 0.00222626 0.00295326 0.00150939 0.00405738 0.00190845 0.00855261 0.00141049 0.0221234 0.00182129 0.00806454 0.00233094 0.0278043 0.0028398 0.01647 0.00380186 0.0288286 0.00381827 0.016239 0.00346843 0.0496678
87 2 Si 5.55495 16.2705 1.4948 2.4 1 0.00231812 0.00269585 0.0013864 0.00464176 0.00194841 0.00885769 0.00131192 0.0213918 0.00134546 0.00799331 0.00140791 0.0286746 0.00259964 0.0162905 0.00298045 0.0289255 0.00378572 0.0157551 0.00377474 0.049329
88 3 O 5.6115 17.8838 1.4948 -1.2 1 0.00196872 0.00280718 0.00164453 0.00438736 0.00192198 0.00916254 0.00143864 0.0216441 0.0018252 0.00791747 0.00151016 0.028704 0.00256883 0.0165109 0.00310041 0.0289478 0.00348967 0.0157258 0.00363652 0.0493194
89 3 O 1.93416 15.2965 1.4948 -1.2 1 0.00188718 0.00305363 0.00147866 0.00466888 0.00199849 0.00827686 0.0020138 0.0219874 0.00175024 0.00814413 0.00146827 0.0291868 0.00244635 0.0162022 0.00309086 0.029665 0.00385019 0.0166279 0.0034406 0.0497845
90 3 O 4.85636 15.5644 0.196716 -1.2 1 0.00216285 0.00250341 0.0013407 0.00469553 0.00133699 0.00920644 0.00146517 0.0213404 0.00104457 0.00827716 0.00162914 0.0279875 0.00269767 0.0161457 0.00357551 0.0294201 0.00327619 0.015679 0.00313938 0.0487993
91 1 Mg 6.44662 14.247 2.9896 1.2 1 0.00131902 0.00330354 0.00143187 0.00477931 0.0026429 0.00834057 0.00281196 0.020988 0.00258727 0.00880008 0.00187976 0.0295292 0.00336005 0.0163442 0.00326946 0.0295322 0.00402875 0.0177384 0.00474983 0.0495518
92 3 O 4.81537 15.5644 2.79288 -1.2 1 0.00225023 0.00317967 0.00142149 0.00463192 0.00243544 0.00864573 0.00168533 0.0218362 0.00155094 0.00864943 0.0018363 0.0281958 0.00307273 0.0163036 0.00378165 0.0296344 0.00477083 0.0174282 0.00494012 0.0501863
93 1 Mg -0.948271 14.2883 4.4844 1.2 1 0.00300662 0.0037604 0.00188376 0.00471675 0.00313982 0.00757049 0.00261887 0.0219305 0.00283239 0.00836104 0.00270776 0.0288478 0.00361373 0.0169084 0.00504465 0.0302008 0.00599167 0.0193632 0.00641639 0.0514074
94 2 Si -2.75928 16.9724 4.4844 2.4 1 0.00262655 0.00342966 0.00182052 0.00480362 0.00299013 0.00772906 0.00289004 0.0223124 0.00258825 0.00787405 0.00241716 0.0282062 0.00367748 0.016932 0.0045843 0.0295131 0.00511783 0.0188601 0.00572279 0.0522078
95 3 O -2.81617 15.3592 4.4844 -1.2 1 0.00299517 0.00371246 0.00182972 0.00476438 0.00315454 0.00735532 0.00299014 0.0214261 0.00263793 0.00780438 0.00211573 0.0290088 0.00390276 0.0161385 0.00428522 0.0303235 0.00590766 0.01903 0.00629217 0.0515216
96 3 O 0.862762 17.9465 4.4844 -1.2 1 0.00290873 0.0038764 0.00162827 0.00493127 0.00318902 0.00821405 0.00263338 0.0225431 0.0026513 0.00788754 0.00248908 0.0288272 0.00399964 0.0168698 0.00448636 0.0292954 0.00553292 0.0190201 0.00597747 0.051885
97 3 O -2.0185 17.6786 3.18632 -1.2 1 0.00231592 0.00306992 0.0017087 0.00409897 0.00274705 0.00731653 0.00225566 0.0223914 0.00231792 0.00788855 0.00194167 0.027806 0.00372607 0.0165131 0.00462173 0.0297347 0.00485416 0.0177423 0.00496625 0.0511063
98 3 O -2.06164 17.6786 5.78248 -1.2 1 0.00328022 0.00379279 0.00136875 0.00493864 0.00303952 0.00684108 0.00242843 0.0226841 0.00250925 0.00798803 0.002715 0.0279834 0.00377918 0.0175165 0.00496327 0.0305826 0.00576439 0.020945 0.00591674 0.0538285
99 1 Mg 1.39817 16.6215 2.9896 1.2 1 0.0026429 0.00319932 0.00167717 0.0046935 0.00279493 0.00821143 0.00264662 0.0213901 0.0024591 0.00816839 0.00198761 0.0289724 0.0029032 0.0165038 0.00336833 0.0294718 0.00421688 0.0170011 0.00447503 0.0502634
100 1 Mg 4.20062 16.5802 4.4844 1.2 1 0.0024003 0.00329553 0.0018895 0.00468978 0.00295801 0.00745358 0.00271741 0.0220405 0.00293982 0.00784502 0.00277514 0.0287214 0.00352861 0.0174444 0.0055416 0.0299231 0.00618022 0.0191056 0.00609128 0.0518966
101 2 Si 2.37796 18.645 4.4844 2.4 1 0.00241699 0.00306606 0.00160898 0.00494442 0.003225 0.00782428 0.00284176 0.0226408 0.00256514 0.00810873 0.00269957 0.0279225 0.00370975 0.0174138 0.00478584 0.0291326 0.00532041 0.0185099 0.00545967 0.0531095
102 3 O 2.39434 20.2583 4.4844 -1.2 1 0.00199644 0.00314062 0.00154732 0.00459486 0.00312124 0.00688141 0.0027217 0.0215679 0.00289503 0.00748461 0.00201241 0.0287656 0.00344801 0.0167887 0.00427488 0.0297514 0.00547212 0.0185378 0.00611116 0.0523908
103 3 O -4.24274 17.671 4.4844 -1.2 1 0.00219975 0.0035374 0.00189178 0.00478818 0.00296682 0.00839689 0.00271004 0.0225687 0.00277084 0.00792171 0.00234832 0.0288432 0.00359156 0.0168734 0.00507728 0.0297272 0.00578716 0.0193133 0.00625358 0.0519798
104 3 O 3.08659 17.9389 3.18632 -1.2 1 0.0024579 0.00302823 0.00164161 0.00429152 0.00293783 0.00777535 0.0021469 0.0223034 0.00232045 0.0080526 0.00223803 0.0278482 0.00338553 0.0165383 0.00448836 0.0294077 0.00525383 0.0176812 0.00527802 0.051194
105 1 Mg 1.44478 16.6215 0 1.2 1 0.00260515 0.00270775 0.00115206 0.00446849 0.00134311 0.00893264 0.00114223 0.0214997 0.00138238 0.00830476 0.001708 0.0285522 0.00255173 0.0156898 0.00263104 0.0292011 0.00319187 0.0157659 0.00312217 0.0485222
106 3 O 3.0436 17.9389 5.78248 -1.2 1 0.00238001 0.00382098 0.00159953 0.00524479 0.00288084 0.00694839 0.00245429 0.0226826 0.00228148 0.00811094 0.00276094 0.0278674 0.00404419 0.0174159 0.0051629 0.030554 0.00591306 0.0210893 0.00607131 0.0535618
107 1 Mg -1.40524 16.6628 1.4948 1.2 1 0.00177882 0.00288042 0.00136039 0.00449753 0.00173925 0.00858851 0.00170756 0.0221366 0.0020227 0.00824862 0.00190335 0.0283668 0.00346642 0.0166322 0.00327334 0.0292818 0.00299263 0.016625 0.00308502 0.0494912
108 2 Si 0.420358 14.5979 1.4948 2.4 1 0.00148864 0.00296509 0.00154815 0.00505548 0.00219657 0.00908294 0.00180026 0.0214608 0.00171429 0.00827916 0.00157776 0.0286063 0.00320026 0.0163788 0.00376503 0.028771 0.00358425 0.0165662 0.00340743 0.0492496
109 3 O 0.408732 12.9847 1.4948 -1.2 1 0.00112053 0.00303189 0.00126178 0.00505457 0.00204636 0.00905509 0.00146416 0.0211859 0.00216755 0.00848637 0.00163441 0.0293105 0.00331543 0.0158696 0.00319041 0.0298145 0.00320451 0.0170491 0.00363409 0.0490315
110 3 O 7.03923 15.572 1.4948 -1.2 1 0.00161475 0.00301117 0.00136275 0.00467101 0.0021412 0.00827637 0.00227328 0.021714 0.00217722 0.00808557 0.00149265 0.0292716 0.00279735 0.0163409 0.00294457 0.0296421 0.00340252 0.0167075 0.0038453 0.0494817
111 3 O -0.248332 15.3041 0.196716 -1.2 1 0.00208383 0.00261562 0.00122971 0.00475713 0.00119093 0.00900459 0.00177621 0.0213038 0.00147424 0.00839265 0.00171285 0.0281667 0.00306454 0.0158954 0.00374555 0.0291667 0.00305141 0.0158963 0.0032001 0.04862
112 3 O -0.289436 15.3041 2.79288 -1.2 1 0.00273423 0.00341679 0.00149661 0.00471797 0.00264786 0.00849713 0.0018844 0.0219918 0.00194311 0.00865345 0.00193868 0.0276531 0.00325523 0.0164423 0.00372461 0.0295244 0.0045091 0.0178209 0.00446345 0.0502036
113 1 Mg 6.59566 18.996 0 1.2 1 0.002135 0.00304978 0.00151236 0.00427108 0.00119497 0.0087415 0.00109908 0.0216942 0.00119632 0.0077793 0.00161241 0.028033 0.00224895 0.0163697 0.0025386 0.0287431 0.0030585 0.0158359 0.0031008 0.0486273
114 1 Mg 3.85574 23.7037 1.4948 1.2 1 0.00179261 0.00216932 0.00126494 0.00415514 0.00171991 0.00746726 0.00126893 0.0231164 0.00182972 0.00753611 0.00226516 0.0272811 0.0027781 0.0176272 0.00383602 0.0282866 0.00345582 0.0171748 0.00362676 0.0506766
115 2 Si 5.66125 21.0195 1.4948 2.4 1 0.00180162 0.00220949 0.00126267 0.00417805 0.00208058 0.00825769 0.00145378 0.0218665 0.00143183 0.00752453 0.00163642 0.0279797 0.00283412 0.0173943 0.00306603 0.0278769 0.00369902 0.0158382 0.00406996 0.0501098
116 3 O 5.72074 22.6328 1.4948 -1.2 1 0.00154924 0.0022003 0.00150478 0.00411338 0.00189493 0.00820342 0.00153685 0.0222872 0.0019621 0.00732335 0.00151911 0.0280585 0.00263599 0.0172823 0.00318307 0.0282793 0.00343311 0.0162301 0.00382229 0.0500336
117 3 O 2.03867 20.0455 1.4948 -1.2 1 0.00179474 0.00299722 0.00141809 0.00433403 0.0020467 0.00775493 0.00215932 0.0222991 0.00218423 0.00758916 0.00159242 0.0285559 0.00255365 0.0172002 0.00281605 0.0288544 0.00366841 0.0160814 0.00370231 0.0501502
118 3 O 4.96004 20.3134 0.196716 -1.2 1 0.00237921 0.00225604 0.00156941 0.00411455 0.00133769 0.00840182 0.0011463 0.0216078 0.00108057 0.00748877 0.00158418 0.0275573 0.00282092 0.0166374 0.00372068 0.0286265 0.00318176 0.0151772 0.00314824 0.0493733
119 1 Mg 6.55057 18.996 2.9896 1.2 1 0.00110231 0.00306309 0.00147833 0.00439013 0.00263531 0.00809646 0.00270716 0.0215386 0.00250667 0.00801202 0.00182713 0.0288857 0.00315083 0.016742 0.00347311 0.0288226 0.00403361 0.0171577 0.00466963 0.0502615