ITEM: TIMESTEP
61100
ITEM: NUMBER OF ATOMS
10500
ITEM: BOX BOUNDS xy xz yz pp pp pp
0	15.2977	5.09925
0	118.725	0
0	89.688	0
ITEM: ATOMS id type element xu yu zu q Q_1 Q_2 Q_3 Q_4 Q_5 Q_6 Q_7 Q_8 Q_9 Q_10 Q_11 Q_12 Q_13 Q_14 Q_15 Q_16 Q_17 Q_18 Q_19 Q_20 Q_21
1 1 Mg 6.2404 -6.37941e-06 0 1.2 1 0.00118375 0.00432615 0.00130435 0.00457711 0.00135712 0.00574668 0.00189749 0.015929 0.00208985 0.00557638 0.0022929 0.0215759 0.00247256 0.0135069 0.00362514 0.020545 0.00414773 0.014021 0.00411831 0.0405115
2 1 Mg 3.46349 4.70768 1.4948 1.2 1 0.00120997 0.00382946 0.00149068 0.00410461 0.00170393 0.006107 0.00351733 0.0185672 0.00276615 0.00689988 0.00284435 0.0253155 0.00315027 0.0140408 0.00417486 0.0252953 0.005292 0.0167934 0.00546404 0.0437481
3 2 Si 5.2885 2.02354 1.4948 2.4 1 0.000531745 0.00396827 0.00173459 0.00424667 0.00177891 0.00577694 0.00246615 0.0167921 0.00225892 0.00586099 0.0021643 0.0230065 0.00282457 0.0137537 0.00355895 0.02166 0.00384278 0.0150405 0.00434938 0.0414038
4 3 O 5.33628 3.63678 1.4948 -1.2 1 0.00087979 0.0033316 0.00147572 0.00445703 0.00200406 0.00634233 0.00287024 0.0176365 0.00216758 0.00657204 0.00187336 0.0249416 0.00252664 0.0138659 0.00428694 0.0242513 0.00498999 0.0161702 0.00544716 0.0428631
5 3 O 1.67294 1.04952 1.4948 -1.2 1 0.00151981 0.00417598 0.00215368 0.00411643 0.0012917 0.00571645 0.00247892 0.0169085 0.00219303 0.00584031 0.00226082 0.0225399 0.00281229 0.0129867 0.00334262 0.0219858 0.00458843 0.0152402 0.00478785 0.0406035
6 3 O 4.59532 1.31737 0.196716 -1.2 1 0.000958307 0.00356536 0.0018579 0.00409324 0.00194794 0.00580497 0.00227295 0.0168891 0.00276204 0.00597465 0.00204928 0.0220979 0.00315196 0.0130363 0.00432322 0.0216134 0.00411772 0.0147801 0.00461504 0.0409028
7 1 Mg 6.18956 -6.37941e-06 2.9896 1.2 1 0.00047176 0.0049964 0.00144971 0.00424164 0.00133146 0.00562417 0.00238149 0.015828 0.00277257 0.00529105 0.00179468 0.0220465 0.00274539 0.0133598 0.00362642 0.0206751 0.00456084 0.0145406 0.00493258 0.0389862
8 3 O 4.55118 1.31737 2.79288 -1.2 1 0.000955576 0.00488333 0.00175212 0.00410939 0.00179364 0.00579679 0.00231538 0.0167727 0.00229177 0.00662153 0.00209374 0.02156 0.00320266 0.0122343 0.00339841 0.0215949 0.00473104 0.0150195 0.00524462 0.0400789
9 1 Mg -1.20682 0.0413099 4.4844 1.2 1 0.000633613 0.00299632 0.00193864 0.00453454 0.0012383 0.00542023 0.00185646 0.015806 0.0020947 0.00560709 0.00212388 0.0216969 0.00309956 0.0113421 0.00373107 0.0203792 0.00511672 0.0151706 0.00511851 0.0381353
10 2 Si -3.0337 2.72544 4.4844 2.4 1 0.000713051 0.00392983 0.00171468 0.00473081 0.00217355 0.00623528 0.00330956 0.0165866 0.00299525 0.00608589 0.00235396 0.0235773 0.00346448 0.0130362 0.00421702 0.0224944 0.00524808 0.0172944 0.00620029 0.0393816
11 3 O -3.08099 1.11221 4.4844 -1.2 1 0.000851079 0.00408849 0.00179784 0.00421826 0.00132535 0.00540963 0.00240827 0.0159066 0.00284166 0.00561666 0.00217972 0.0218611 0.00317122 0.0113584 0.00382281 0.0213837 0.00505608 0.0157972 0.00546169 0.038199
12 3 O 0.582463 3.69946 4.4844 -1.2 1 0.00178412 0.00468859 0.00222464 0.0040145 0.00225601 0.00672903 0.00346585 0.0170475 0.00340024 0.00657095 0.00300777 0.0244941 0.00424568 0.0131856 0.00448434 0.0244429 0.00676945 0.0182835 0.00805888 0.0410873
13 3 O -2.29524 3.43162 3.18632 -1.2 1 0.000869429 0.00339385 0.00233898 0.00431863 0.00198134 0.00617978 0.00291508 0.0177246 0.00307535 0.00651814 0.00238068 0.0244174 0.00321297 0.0131852 0.00494465 0.0244671 0.00595275 0.0176942 0.0062138 0.0418906
14 3 O -2.34216 3.43162 5.78248 -1.2 1 0.00154035 0.0039417 0.00124372 0.00456492 0.00234452 0.0059838 0.00321622 0.0167469 0.00263133 0.00713848 0.00254581 0.0227463 0.0045183 0.0123106 0.00448113 0.0233213 0.00631674 0.0186448 0.00711252 0.0390856
15 1 Mg 1.12778 2.37449 2.9896 1.2 1 0.00135261 0.00429036 0.00243064 0.00406383 0.00209931 0.00582492 0.00309869 0.0165912 0.00272795 0.00613111 0.00228577 0.0231374 0.00325815 0.0130579 0.00344919 0.0221093 0.00474727 0.0159548 0.00548287 0.040789
16 1 Mg 3.92855 2.33318 4.4844 1.2 1 0.00135844 0.00476329 0.00160294 0.00383978 0.00161504 0.00588641 0.00345026 0.0165219 0.00318693 0.00589764 0.00280374 0.0226496 0.00366228 0.0133187 0.00511509 0.0220241 0.00641157 0.0169883 0.0067966 0.0398464
17 2 Si 2.09341 4.39804 4.4844 2.4 1 0.00153131 0.00444296 0.00200807 0.00364717 0.00261126 0.0060181 0.00369743 0.0179507 0.00345056 0.00674235 0.00325019 0.0243418 0.00439336 0.0141737 0.00446472 0.0246633 0.00670829 0.0179865 0.00803284 0.0425022
18 3 O 2.09991 6.01128 4.4844 -1.2 1 0.0022079 0.0046542 0.00153415 0.00352384 0.00279925 0.00626714 0.00339209 0.0189202 0.00269592 0.00720938 0.00311608 0.0263307 0.00426453 0.0144454 0.00498608 0.027326 0.00676736 0.0187365 0.00775485 0.0442912
19 3 O -4.52137 3.42402 4.4844 -1.2 1 0.00106122 0.00430173 0.00199145 0.00422995 0.00207464 0.00710307 0.00331119 0.0168581 0.00321208 0.00623435 0.00274226 0.0232688 0.00391618 0.0126633 0.00419381 0.0227212 0.00645439 0.0174627 0.00701847 0.0405134
20 3 O 2.80834 3.69187 3.18632 -1.2 1 0.0012638 0.00435938 0.00145489 0.00324861 0.00182942 0.00575708 0.00307651 0.0172313 0.00313323 0.00631958 0.00261176 0.0238281 0.00359873 0.0132191 0.00473503 0.0239207 0.00555565 0.0166515 0.006275 0.0422986
21 1 Mg 1.17857 2.37449 0 1.2 1 0.0019541 0.00433153 0.00203214 0.00417375 0.00123334 0.00538381 0.00245288 0.016935 0.00247446 0.00640892 0.00294499 0.0230527 0.0027865 0.0135733 0.00351445 0.0218491 0.00428497 0.014566 0.00461236 0.0410263
22 3 O 2.76143 3.69187 5.78248 -1.2 1 0.00169451 0.0047216 0.00165173 0.00363739 0.00195099 0.00564005 0.00269678 0.0170531 0.00287408 0.00716917 0.00295352 0.0228433 0.00449625 0.0130019 0.00527 0.023118 0.0065549 0.018349 0.00731035 0.0400755
23 1 Mg -1.67381 2.41581 1.4948 1.2 1 0.000925638 0.00332001 0.00262368 0.00461401 0.00138755 0.00619424 0.00226665 0.0164594 0.0024777 0.00607059 0.00188025 0.0239743 0.00255614 0.0145335 0.00282086 0.0222711 0.00429009 0.0158989 0.00483521 0.0417243
24 2 Si 0.16286 0.350945 1.4948 2.4 1 0.0014811 0.00358455 0.00275136 0.0043735 0.00130082 0.00637828 0.00262047 0.0162275 0.00210128 0.00492436 0.00197831 0.0224094 0.00260375 0.0136045 0.00301835 0.0207241 0.0045988 0.0145011 0.00418525 0.0402308
25 3 O 0.15972 -1.26229 1.4948 -1.2 1 0.00159286 0.00328928 0.00304903 0.00433973 0.00175976 0.00597847 0.0024298 0.0162421 0.00234974 0.00521502 0.00240242 0.0224274 0.00271807 0.0137869 0.00296722 0.0215734 0.00443373 0.0143025 0.00383702 0.0408416
26 3 O 6.77654 1.32496 1.4948 -1.2 1 0.00079602 0.00424665 0.00154573 0.00454517 0.00123934 0.00605675 0.00199593 0.0165915 0.00238227 0.00535794 0.00183684 0.0234776 0.00275809 0.0136509 0.00350408 0.0219273 0.00460868 0.0149644 0.00431718 0.0409354
27 3 O -0.508028 1.05712 0.196716 -1.2 1 0.00165658 0.00339524 0.00323986 0.00420446 0.00139462 0.00565667 0.00227716 0.0167643 0.00187121 0.00631813 0.00272804 0.0219045 0.00263906 0.0129658 0.00306627 0.0211328 0.00435497 0.0148763 0.00453744 0.0401963
28 3 O -0.552171 1.05712 2.79288 -1.2 1 0.000864556 0.00324452 0.00291254 0.00407473 0.00115349 0.00599548 0.00247451 0.0159255 0.00242797 0.00594254 0.00182121 0.0222308 0.00281641 0.0117923 0.00339429 0.0216151 0.00500755 0.0154144 0.00461547 0.039377
29 1 Mg 6.31713 4.74899 0 1.2 1 0.000841534 0.00308095 0.00170834 0.00424231 0.00226635 0.00629917 0.00321917 0.0178819 0.00290487 0.00701486 0.002218 0.0251122 0.0026999 0.0140083 0.00426093 0.0246361 0.00468554 0.0162463 0.00578236 0.0428554
30 1 Mg 3.54847 9.45668 1.4948 1.2 1 0.00165508 0.00307923 0.00189843 0.0044944 0.00196681 0.0075789 0.00306476 0.0212896 0.0016764 0.00857321 0.00209277 0.0283707 0.00304275 0.0156037 0.00375873 0.029048 0.00431392 0.0181713 0.00373146 0.0483718
31 2 Si 5.36879 6.77254 1.4948 2.4 1 0.00103137 0.00311045 0.00203102 0.00491431 0.00259546 0.00697251 0.00370754 0.0193695 0.00267136 0.00782742 0.00249272 0.0274673 0.00309889 0.0154409 0.0043753 0.0270819 0.00460617 0.0172032 0.00512642 0.0462949
32 3 O 5.41937 8.38578 1.4948 -1.2 1 0.00150959 0.00291831 0.00203002 0.00488985 0.00210376 0.007714 0.00311655 0.0208669 0.00218012 0.00848936 0.00231404 0.028965 0.00228321 0.0156812 0.0032543 0.0290656 0.00466955 0.0174133 0.00464902 0.0477153
33 3 O 1.75158 5.79852 1.4948 -1.2 1 0.00128654 0.00357073 0.00205941 0.00377522 0.00223302 0.00609931 0.00312792 0.0193583 0.00290615 0.00725942 0.00257657 0.0275823 0.00293202 0.0158202 0.00374777 0.0269558 0.00512153 0.017388 0.0051859 0.0454756
34 3 O 4.67421 6.06637 0.196716 -1.2 1 0.000695165 0.0032403 0.00167362 0.00456591 0.00188206 0.00694976 0.00289033 0.0196633 0.00249241 0.00817888 0.00213341 0.0260815 0.00335603 0.0145604 0.00429775 0.0265965 0.00473061 0.0166935 0.00528937 0.0451166
35 1 Mg 6.26654 4.74899 2.9896 1.2 1 0.00131555 0.00356111 0.00189814 0.00465678 0.00248099 0.00661099 0.00379796 0.0177774 0.00364285 0.0070333 0.00217297 0.025799 0.00408757 0.0147667 0.00507891 0.0249192 0.00562248 0.0173999 0.00651594 0.0430881
36 3 O 4.63043 6.06637 2.79288 -1.2 1 0.00198706 0.00343982 0.00154976 0.00461627 0.00205969 0.00676921 0.00329256 0.0190845 0.00324605 0.00791104 0.00221365 0.0259558 0.00376808 0.0147374 0.00446698 0.0273692 0.00578101 0.0180455 0.00651221 0.0450529
37 1 Mg -1.12976 4.79031 4.4844 1.2 1 0.00162993 0.00416487 0.00171303 0.00455873 0.00218145 0.00611977 0.00341946 0.0176736 0.00339178 0.00714926 0.00291282 0.0252051 0.00436666 0.0144347 0.00479583 0.0255847 0.00730756 0.0186079 0.00735489 0.0431662
38 2 Si -2.9517 7.47444 4.4844 2.4 1 0.00226172 0.00375036 0.00119433 0.00486348 0.00278926 0.0063122 0.00399319 0.0200598 0.00299032 0.00770165 0.00293204 0.0272636 0.00459185 0.0158506 0.00557459 0.0278216 0.00710469 0.0186973 0.00749919 0.0465248
39 3 O -3.00198 5.86121 4.4844 -1.2 1 0.00177229 0.0042546 0.00115185 0.00472743 0.00297219 0.00636687 0.00414223 0.0186365 0.00356599 0.00759354 0.00252205 0.0254917 0.00447672 0.0140711 0.00496664 0.0267854 0.00689604 0.0191228 0.00747947 0.0446107
40 3 O 0.666315 8.44846 4.4844 -1.2 1 0.00268814 0.00443893 0.00090081 0.0046092 0.002801 0.00726945 0.00292784 0.0209905 0.00282046 0.00793627 0.00305056 0.0279241 0.00452859 0.0156416 0.0046922 0.0290437 0.00634781 0.0191721 0.00692008 0.047374
41 3 O -2.21213 8.18062 3.18632 -1.2 1 0.00217995 0.00379851 0.00129276 0.00438329 0.00252864 0.00612672 0.00293097 0.020544 0.0027893 0.00803762 0.00250071 0.0274942 0.00419872 0.0158755 0.00510916 0.0287687 0.00595821 0.0185889 0.00612158 0.048001
42 3 O -2.25864 8.18062 5.78248 -1.2 1 0.00242992 0.00393318 0.00116142 0.00406676 0.0028688 0.00580756 0.00295821 0.0205431 0.00228345 0.00843185 0.00349169 0.0264806 0.00445005 0.0160191 0.00553552 0.0285588 0.00706697 0.0195747 0.00745608 0.0467776
43 1 Mg 1.20893 7.12349 2.9896 1.2 1 0.0019677 0.00394488 0.00188373 0.00413209 0.00256229 0.0066898 0.00368208 0.0196122 0.00274068 0.00813462 0.00251072 0.0276139 0.00336851 0.0159319 0.00426335 0.0276049 0.00559455 0.0178946 0.00598878 0.0463346
44 1 Mg 4.00982 7.08218 4.4844 1.2 1 0.00204249 0.00362411 0.00144632 0.00430687 0.00243739 0.00607256 0.0037184 0.0198092 0.00324403 0.00765383 0.00308192 0.0269452 0.00445459 0.0164618 0.00579264 0.0279226 0.00722039 0.018597 0.00761665 0.0459555
45 2 Si 2.17861 9.14704 4.4844 2.4 1 0.00276713 0.00368309 0.00111328 0.00455544 0.00289871 0.00716518 0.00378378 0.0211483 0.00270213 0.00831473 0.0028503 0.0279042 0.00469005 0.0162426 0.00489821 0.0290488 0.00591073 0.019 0.0061251 0.0492104
46 3 O 2.18828 10.7603 4.4844 -1.2 1 0.00346888 0.0037201 0.00142986 0.00426538 0.00265899 0.00687448 0.0031426 0.0208844 0.00231897 0.00818606 0.00229019 0.0287436 0.00421101 0.0152799 0.00445502 0.0301023 0.00599652 0.0192011 0.00580953 0.0495654
47 3 O -4.43805 8.17302 4.4844 -1.2 1 0.00193516 0.00396847 0.00162264 0.00474363 0.00257395 0.00737982 0.00337784 0.020582 0.00330875 0.00815054 0.00312969 0.0279069 0.0047925 0.0157382 0.00512948 0.0289587 0.00680527 0.0190458 0.00821925 0.0471434
48 3 O 2.89193 8.44087 3.18632 -1.2 1 0.00249337 0.0035044 0.00156049 0.00418915 0.00228246 0.00682013 0.00336812 0.0205406 0.00267334 0.00850323 0.00271103 0.0271408 0.00379531 0.0156567 0.00511596 0.0288953 0.00615895 0.0183579 0.00538815 0.0478267
49 1 Mg 1.25915 7.12349 0 1.2 1 0.000802368 0.00319439 0.00179294 0.00417276 0.0018572 0.00733728 0.00286123 0.0201752 0.00286465 0.00831493 0.00253719 0.0274286 0.00337281 0.0146741 0.00368434 0.0275279 0.00454605 0.0175936 0.00432005 0.0460473
50 3 O 2.84547 8.44087 5.78248 -1.2 1 0.00266005 0.0042107 0.00102027 0.0042327 0.00250773 0.00628373 0.00335928 0.0207769 0.0027245 0.00862425 0.00330056 0.0265262 0.00561655 0.0159448 0.00572259 0.0291164 0.00635919 0.0202266 0.00693948 0.0475007
51 1 Mg -1.59284 7.16481 1.4948 1.2 1 0.000921231 0.00337717 0.00164948 0.0043171 0.00169627 0.00630221 0.00284236 0.0197735 0.00286254 0.00790468 0.00165196 0.0276083 0.00327646 0.0155862 0.00392482 0.0273452 0.00446364 0.0175158 0.00518897 0.0465102
52 2 Si 0.240329 5.09994 1.4948 2.4 1 0.00100957 0.00419771 0.00212842 0.00385241 0.00175723 0.00677794 0.00303972 0.0186529 0.00309749 0.00729549 0.00217735 0.025778 0.00284714 0.0148559 0.00418598 0.0248862 0.00508053 0.0168735 0.00502353 0.0446763
53 3 O 0.234538 3.48671 1.4948 -1.2 1 0.00139533 0.00440479 0.00265159 0.00403273 0.00168766 0.00651381 0.002527 0.0176014 0.00323813 0.00685486 0.00229706 0.0242597 0.00336472 0.013909 0.00401589 0.0241044 0.00538338 0.0158908 0.00539585 0.042503
54 3 O 6.85564 6.07396 1.4948 -1.2 1 0.00118031 0.00284328 0.00221753 0.00436915 0.00230619 0.00619388 0.00320244 0.0196936 0.00304376 0.00769363 0.00203718 0.0275464 0.00328698 0.0149492 0.00487073 0.0270534 0.00535164 0.0175377 0.00604743 0.0452154
55 3 O -0.429565 5.80612 0.196716 -1.2 1 0.000963489 0.0036674 0.00237909 0.00392697 0.00171096 0.00718433 0.00250599 0.0193268 0.0028547 0.00838693 0.00242524 0.0255822 0.00265638 0.0144913 0.0038369 0.0259237 0.00490026 0.0169174 0.00539492 0.0451667
56 3 O -0.473377 5.80612 2.79288 -1.2 1 0.00160583 0.00382023 0.0018451 0.00428443 0.00206259 0.00675026 0.00317031 0.0189266 0.00296311 0.00795768 0.00273293 0.0256797 0.00369961 0.0145226 0.00481817 0.0266041 0.00620718 0.0180884 0.00653362 0.0453231
57 1 Mg 6.40169 9.49799 0 1.2 1 0.00103825 0.00351997 0.00175044 0.00442591 0.00146252 0.00823608 0.00189522 0.0210462 0.00161535 0.00909693 0.00180384 0.0287039 0.00232325 0.0148081 0.00299148 0.0296164 0.00374556 0.0178992 0.00413092 0.0474754
58 1 Mg 3.64209 14.2057 1.4948 1.2 1 0.00201725 0.00244766 0.00138112 0.00443116 0.00162676 0.00865595 0.00167615 0.0217414 0.00138296 0.00888444 0.0021841 0.0282849 0.0025283 0.0158293 0.0029673 0.0293523 0.00367152 0.0166451 0.00354373 0.0490997
59 2 Si 5.45748 11.5215 1.4948 2.4 1 0.00242668 0.00279154 0.00173872 0.00457959 0.00152641 0.00813009 0.0021838 0.0211569 0.00156978 0.00848026 0.00153829 0.0288257 0.00261077 0.016007 0.00367143 0.0291093 0.0040564 0.0168202 0.00382889 0.0488675
60 3 O 5.51101 13.1348 1.4948 -1.2 1 0.00250724 0.00277119 0.00177391 0.00459203 0.00146467 0.00901957 0.00174754 0.0212216 0.00166487 0.00878619 0.00171685 0.0294 0.00230366 0.0158875 0.00313489 0.0297565 0.00374252 0.0163682 0.00364926 0.0487882
61 3 O 1.83851 10.5475 1.4948 -1.2 1 0.00198438 0.00307583 0.00165341 0.00480972 0.00159725 0.00771291 0.00232314 0.0215707 0.0016679 0.00861461 0.00207609 0.0294041 0.00245619 0.015788 0.0035463 0.0297787 0.00415689 0.0177036 0.00321538 0.0488678
62 3 O 4.7611 10.8154 0.196716 -1.2 1 0.00130226 0.00275096 0.00204495 0.00469887 0.00151921 0.008494 0.00204568 0.0213729 0.00149859 0.00897444 0.00181773 0.0282604 0.00286098 0.0155258 0.00399491 0.0293949 0.00379467 0.0171848 0.00366667 0.048268
63 1 Mg 6.35203 9.49799 2.9896 1.2 1 0.00188715 0.00341894 0.00130672 0.00465728 0.00248217 0.0073612 0.0032257 0.0204017 0.00307599 0.00861974 0.0020457 0.0291745 0.00371631 0.0160419 0.00358239 0.0291354 0.00445327 0.0184083 0.00498967 0.0483873
64 3 O 4.71833 10.8154 2.79288 -1.2 1 0.00297671 0.00302552 0.00141368 0.0042538 0.00201299 0.00800036 0.00221103 0.0216297 0.0017976 0.0089551 0.0018796 0.0282551 0.00339456 0.0156324 0.00418363 0.0298796 0.00507943 0.01808 0.00498079 0.0493202
65 1 Mg -1.0438 9.53931 4.4844 1.2 1 0.00310079 0.00408875 0.00120268 0.00431955 0.00305759 0.00653955 0.00278464 0.0207469 0.00243876 0.00834666 0.00261803 0.028292 0.00422928 0.0163477 0.00457042 0.0292365 0.00617023 0.0188728 0.00636527 0.0488718
66 2 Si -2.8604 12.2234 4.4844 2.4 1 0.00343365 0.00377427 0.00147393 0.00412142 0.00271235 0.00741355 0.00313313 0.0216076 0.00268049 0.0083797 0.00233019 0.0283511 0.00433658 0.0159734 0.00445859 0.0294762 0.00565309 0.018499 0.00603779 0.0505128
67 3 O -2.91391 10.6102 4.4844 -1.2 1 0.00318459 0.00392164 0.00140716 0.00402115 0.00277636 0.0068343 0.00318934 0.0206204 0.00275711 0.00767765 0.00188973 0.0282274 0.00445175 0.0153986 0.00422556 0.030115 0.00603207 0.0190331 0.00624688 0.0493466
68 3 O 0.7596 13.1975 4.4844 -1.2 1 0.00360189 0.00351809 0.00123692 0.004666 0.002698 0.00852468 0.00267957 0.0221271 0.00255094 0.00824728 0.00284243 0.0287168 0.00413571 0.0158216 0.00423227 0.0296037 0.00599123 0.0187842 0.00605032 0.0499542
69 3 O -2.12001 12.9296 3.18632 -1.2 1 0.00351988 0.00311453 0.00153641 0.00404621 0.00239619 0.00746248 0.00231788 0.021808 0.00222121 0.00845181 0.00245069 0.0279669 0.00375834 0.0158773 0.00461504 0.0300781 0.00497468 0.0180831 0.00498056 0.0504209
70 3 O -2.16532 12.9296 5.78248 -1.2 1 0.0038116 0.00379903 0.00134462 0.00409158 0.00263443 0.00659071 0.00225432 0.0218026 0.00230444 0.00811149 0.0026715 0.0273502 0.00414296 0.01607 0.00507837 0.030137 0.00608868 0.0201577 0.00579409 0.0507048
71 1 Mg 1.29891 11.8725 2.9896 1.2 1 0.00287672 0.00284993 0.00158975 0.00464385 0.00217538 0.00792702 0.00279426 0.0211571 0.00239494 0.00862871 0.00191239 0.0289778 0.00318091 0.0158488 0.00365939 0.0296038 0.00472013 0.0175215 0.00453738 0.0491333
72 1 Mg 4.10033 11.8312 4.4844 1.2 1 0.00340452 0.00338145 0.00142661 0.00398584 0.00242251 0.00706173 0.00260607 0.0213125 0.00242515 0.00818514 0.00273734 0.0286277 0.00381566 0.0165465 0.00528695 0.0297858 0.00637744 0.0187529 0.00574056 0.0499055
73 2 Si 2.27333 13.896 4.4844 2.4 1 0.00346852 0.00292449 0.00126292 0.00474305 0.00285074 0.00787155 0.00309452 0.021867 0.00236088 0.00797866 0.00254553 0.0280485 0.00370298 0.0160649 0.00432478 0.0298199 0.00546437 0.0183631 0.00562802 0.0511523
74 3 O 2.28634 15.5093 4.4844 -1.2 1 0.00351472 0.00337184 0.00144675 0.0043516 0.00294314 0.00715887 0.00286495 0.020974 0.0023819 0.00759821 0.00206028 0.0283867 0.00350458 0.015287 0.00388137 0.030264 0.00543704 0.0183971 0.0057786 0.0506249
75 3 O -4.34533 12.922 4.4844 -1.2 1 0.00342242 0.00372506 0.00169865 0.00433949 0.0028346 0.00832197 0.00306107 0.0217979 0.00268973 0.00825542 0.00248091 0.0286932 0.00394655 0.0157058 0.00495467 0.0298277 0.0060657 0.0191787 0.00646472 0.0503205
76 3 O 2.98455 13.1899 3.18632 -1.2 1 0.00323287 0.00261189 0.0012896 0.00409518 0.00236037 0.0077176 0.00217294 0.0217658 0.00212356 0.00865494 0.00227899 0.0279196 0.00347258 0.0154262 0.00446241 0.0297815 0.00556389 0.0180644 0.00512639 0.0498681
77 1 Mg 1.34779 11.8725 0 1.2 1 0.00130096 0.00245631 0.00117696 0.00473222 0.00130091 0.00885095 0.00147189 0.021287 0.00129147 0.00929102 0.00170549 0.0290158 0.00276505 0.0148822 0.00313986 0.0299534 0.00337033 0.017218 0.00348521 0.0479222
78 3 O 2.93934 13.1899 5.78248 -1.2 1 0.00384924 0.00383872 0.00136978 0.00439394 0.00282188 0.00682585 0.00278281 0.0215741 0.00239694 0.00812007 0.00296825 0.0274484 0.00430204 0.0158549 0.00491543 0.0308468 0.00579723 0.0205181 0.00588665 0.0511822
79 1 Mg -1.50344 11.9138 1.4948 1.2 1 0.00206 0.00313312 0.00145482 0.00450551 0.00143663 0.00817714 0.00188059 0.0215627 0.00217169 0.00872132 0.00145982 0.0287905 0.00342568 0.0159022 0.00355804 0.0296354 0.00352314 0.0172811 0.0037023 0.0488979
80 2 Si 0.326006 9.84894 1.4948 2.4 1 0.00164837 0.00326198 0.00133893 0.00492844 0.00177438 0.00807915 0.00193712 0.0210454 0.0020938 0.00858203 0.00157287 0.028539 0.00281987 0.0156466 0.0038674 0.0289621 0.00388943 0.0176239 0.00335389 0.0482641
81 3 O 0.317364 8.23571 1.4948 -1.2 1 0.00177339 0.00358357 0.0013403 0.00435256 0.00177788 0.00772704 0.0020069 0.0201802 0.00253424 0.0080721 0.00171045 0.0284342 0.00341137 0.0159576 0.00408138 0.028654 0.00440899 0.0177789 0.0039001 0.0473436
82 3 O 6.94307 10.823 1.4948 -1.2 1 0.00202541 0.00327209 0.00159064 0.00443275 0.00166003 0.00762638 0.00257958 0.0217614 0.00231669 0.00854251 0.00139785 0.0295109 0.00290168 0.0158087 0.00354829 0.0297517 0.00372962 0.0177793 0.00406176 0.0488492
83 3 O -0.343122 10.5551 0.196716 -1.2 1 0.00126686 0.00307676 0.00144141 0.00461938 0.00153919 0.00845689 0.0018087 0.0211754 0.00163347 0.00883035 0.00191308 0.0281314 0.00324563 0.0153513 0.00394927 0.0293797 0.00358069 0.017289 0.0034403 0.0482765
84 3 O -0.385966 10.5551 2.79288 -1.2 1 0.00301475 0.0034173 0.00103157 0.0044219 0.00234082 0.00783226 0.00214242 0.021583 0.00196406 0.00930197 0.00232984 0.0277634 0.00375636 0.015823 0.00435415 0.0297483 0.00513647 0.0184811 0.00459712 0.0495043
85 1 Mg 6.49448 14.247 0 1.2 1 0.00152433 0.00294539 0.00157919 0.00461769 0.00108659 0.00920305 0.00114609 0.0213353 0.00105734 0.00875632 0.00146275 0.0287297 0.00184747 0.0152422 0.00261881 0.0297933 0.0033649 0.0164732 0.0030898 0.0477733
86 1 Mg 3.74457 18.9547 1.4948 1.2 1 0.0020017 0.00264305 0.00136327 0.00383556 0.0018382 0.00845053 0.0014549 0.0220664 0.00179432 0.00809046 0.00203861 0.0274175 0.00241219 0.0162444 0.00318495 0.0288884 0.00351729 0.0163349 0.00318055 0.0495024
87 2 Si 5.55495 16.2705 1.4948 2.4 1 0.00248077 0.00238465 0.00140126 0.00450624 0.00182739 0.00883007 0.00135935 0.0214859 0.00122429 0.00805074 0.00111767 0.0284716 0.00238273 0.015996 0.00302709 0.0287673 0.00381064 0.0156461 0.00358719 0.0491977
88 3 O 5.6115 17.8838 1.4948 -1.2 1 0.00203963 0.00267097 0.00171914 0.00425354 0.00175722 0.0091138 0.00146099 0.0216965 0.00166516 0.00794075 0.00134873 0.0285961 0.00221504 0.0162872 0.00268614 0.028876 0.00338487 0.0156812 0.00335604 0.0491904
89 3 O 1.93416 15.2965 1.4948 -1.2 1 0.00224711 0.00218823 0.00146497 0.00446856 0.00176003 0.00817734 0.0018959 0.0219845 0.00169283 0.00819247 0.00143591 0.0290277 0.00206008 0.0158284 0.00294726 0.0296147 0.00383216 0.0162471 0.00339643 0.0495691
90 3 O 4.85636 15.5644 0.196716 -1.2 1 0.00211195 0.00194434 0.00134834 0.00453292 0.00128218 0.00906224 0.00128697 0.0215675 0.000838764 0.00833729 0.00148014 0.0280361 0.00245525 0.015901 0.00343216 0.0292289 0.00327338 0.0155774 0.00318458 0.0486717
91 1 Mg 6.44662 14.247 2.9896 1.2 1 0.00213356 0.00287962 0.00150871 0.00425518 0.00237897 0.00839906 0.00292381 0.020834 0.00256722 0.00864722 0.00175017 0.0292987 0.00330758 0.0160822 0.00303057 0.0294473 0.00391757 0.0170621 0.00453402 0.0493383
92 3 O 4.81537 15.5644 2.79288 -1.2 1 0.00248654 0.00257042 0.00140286 0.00425942 0.0022684 0.00869509 0.00177755 0.0220198 0.00158113 0.00873215 0.00161965 0.0279015 0.00269821 0.01608 0.00349346 0.0292576 0.00459257 0.0169699 0.00472708 0.0499129
93 1 Mg -0.948271 14.2883 4.4844 1.2 1 0.00362099 0.00318802 0.00150312 0.00420593 0.00268443 0.0075936 0.00246011 0.0216182 0.00260409 0.00835885 0.00288285 0.0280677 0.00348503 0.0163933 0.00504737 0.0299811 0.00558017 0.0184898 0.00581835 0.0508688
94 2 Si -2.75928 16.9724 4.4844 2.4 1 0.00324841 0.0030004 0.00171895 0.00434974 0.00295113 0.00786877 0.00284743 0.0219867 0.00274567 0.00794948 0.00256816 0.0277774 0.00333466 0.0163736 0.00418813 0.0293785 0.00493931 0.018237 0.00566649 0.051686
95 3 O -2.81617 15.3592 4.4844 -1.2 1 0.00367532 0.00311568 0.00168125 0.00414082 0.00288204 0.00750357 0.0029878 0.0211671 0.00264601 0.00774163 0.00226858 0.0286339 0.0036754 0.0155054 0.00389136 0.0301716 0.00561891 0.018213 0.00602515 0.0507838
96 3 O 0.862762 17.9465 4.4844 -1.2 1 0.00299348 0.00357187 0.00144293 0.00447332 0.00311102 0.00824839 0.00252773 0.022216 0.00252423 0.00789002 0.0027839 0.028168 0.00359873 0.0163427 0.00401466 0.0290036 0.00544387 0.0183244 0.00556769 0.0509056
97 3 O -2.0185 17.6786 3.18632 -1.2 1 0.00284648 0.00286143 0.0016801 0.00382168 0.0027666 0.00745624 0.00236105 0.022206 0.00223771 0.00787482 0.00226685 0.0274159 0.00340214 0.0160325 0.00419386 0.0296215 0.0046981 0.0173339 0.0049511 0.0507123
98 3 O -2.06164 17.6786 5.78248 -1.2 1 0.00354352 0.00374353 0.00116138 0.00407826 0.00294554 0.00669908 0.00228736 0.0220026 0.00236492 0.00775273 0.00289605 0.0272033 0.00324639 0.0164261 0.00492488 0.0305594 0.0054223 0.0202027 0.00566671 0.0520114
99 1 Mg 1.39817 16.6215 2.9896 1.2 1 0.00276921 0.00257334 0.00143361 0.00445623 0.0025215 0.00824813 0.00253957 0.0213709 0.00250488 0.00825459 0.0019854 0.0286542 0.0025182 0.0159401 0.00350788 0.029211 0.00421512 0.0166268 0.00426156 0.0494549
100 1 Mg 4.20062 16.5802 4.4844 1.2 1 0.00350979 0.00269402 0.00154486 0.00439667 0.00273844 0.00763233 0.00263844 0.0216942 0.00305902 0.00758745 0.00254397 0.0282586 0.00329787 0.0166061 0.0051026 0.029394 0.00608867 0.0181605 0.00571669 0.0510695
101 2 Si 2.37796 18.645 4.4844 2.4 1 0.00274252 0.00297135 0.00115014 0.00456284 0.00307459 0.00771675 0.00303071 0.0221733 0.00257421 0.00783459 0.00260576 0.027467 0.00327961 0.0166108 0.0042009 0.0289879 0.00510754 0.0180234 0.0052959 0.0516769
102 3 O 2.39434 20.2583 4.4844 -1.2 1 0.00255384 0.00328398 0.00113858 0.00432124 0.00315046 0.00684226 0.00293518 0.0208968 0.00262661 0.00721822 0.00187793 0.0282642 0.00321882 0.0162162 0.00397076 0.029463 0.00503929 0.0179794 0.00583597 0.0506392
103 3 O -4.24274 17.671 4.4844 -1.2 1 0.00300026 0.00331332 0.00148871 0.0043777 0.00292804 0.00850102 0.00291293 0.0221992 0.00269819 0.00771314 0.00245133 0.0281404 0.0032958 0.0160949 0.0043806 0.0293342 0.00552742 0.0185044 0.00617373 0.0511701
104 3 O 3.08659 17.9389 3.18632 -1.2 1 0.00261652 0.00254574 0.00141691 0.00407454 0.00270569 0.00777264 0.00224994 0.0221312 0.00219763 0.00785242 0.00209652 0.027455 0.00299137 0.0160646 0.00405173 0.029178 0.0052168 0.0172806 0.0051468 0.0506776
105 1 Mg 1.44478 16.6215 0 1.2 1 0.00271346 0.00215568 0.00111915 0.00425911 0.00119995 0.00897198 0.00109411 0.0215077 0.00131983 0.00828629 0.00129329 0.0285392 0.0022983 0.0156057 0.00242282 0.0293306 0.00306973 0.0156413 0.00320957 0.0485048
106 3 O 3.0436 17.9389 5.78248 -1.2 1 0.00320573 0.00370216 0.00110246 0.00452733 0.00284112 0.00676164 0.00246165 0.0218294 0.00220444 0.00778402 0.00261177 0.0268426 0.00341162 0.0160259 0.0044508 0.0302789 0.00560736 0.0206391 0.00582003 0.051863
107 1 Mg -1.40524 16.6628 1.4948 1.2 1 0.00213966 0.00263519 0.00140298 0.00424854 0.0017472 0.00855646 0.00184682 0.0222457 0.00171102 0.00832455 0.00184578 0.0281679 0.00307894 0.0164212 0.00298344 0.0293407 0.00304045 0.0162424 0.0030954 0.0493224
108 2 Si 0.420358 14.5979 1.4948 2.4 1 0.00228474 0.00220673 0.00148134 0.00475941 0.00199876 0.00901597 0.00186294 0.0214449 0.00158085 0.00834676 0.00148176 0.0284973 0.0028506 0.0160916 0.00350282 0.028745 0.00365238 0.016147 0.00350054 0.0490776
109 3 O 0.408732 12.9847 1.4948 -1.2 1 0.00228347 0.00251564 0.00111103 0.0047205 0.00172439 0.00903685 0.00145658 0.0212 0.00208579 0.00855679 0.00153259 0.0290303 0.00296505 0.0158051 0.00324718 0.029553 0.00341777 0.0166109 0.0037562 0.0488029
110 3 O 7.03923 15.572 1.4948 -1.2 1 0.00213041 0.00267245 0.00136291 0.00434948 0.00191616 0.00827505 0.00218907 0.0218004 0.00213221 0.008233 0.00143783 0.0291907 0.00267181 0.0161422 0.00308862 0.0296033 0.00347089 0.0163595 0.00373049 0.0493852
111 3 O -0.248332 15.3041 0.196716 -1.2 1 0.00231849 0.00222555 0.00117068 0.0043617 0.00104559 0.00901144 0.00168245 0.0213069 0.00122813 0.00845977 0.00177421 0.0280002 0.00301667 0.0157719 0.00376069 0.0291155 0.00331396 0.015698 0.003101 0.0486452
112 3 O -0.289436 15.3041 2.79288 -1.2 1 0.00334866 0.00286912 0.0013348 0.00429735 0.00254808 0.00843278 0.00187617 0.0220399 0.00172198 0.00867346 0.002004 0.0275476 0.00299597 0.0159798 0.00336687 0.0297053 0.00441118 0.0172588 0.00448471 0.0499801
113 1 Mg 6.59566 18.996 0 1.2 1 0.00175397 0.00252204 0.00138509 0.00416628 0.00101242 0.00855625 0.000984269 0.0218005 0.00113433 0.00799106 0.00129403 0.0281221 0.00205591 0.0162761 0.00235378 0.0288565 0.00283333 0.0157572 0.00265466 0.0486105
114 1 Mg 3.85574 23.7037 1.4948 1.2 1 0.00173409 0.00226009 0.00137628 0.00401535 0.00160976 0.00749318 0.00119724 0.0228659 0.00198462 0.00738885 0.00209081 0.0270318 0.0022416 0.01759 0.00349503 0.0285122 0.00322417 0.0171182 0.00316353 0.050585
115 2 Si 5.66125 21.0195 1.4948 2.4 1 0.00170119 0.00239233 0.00126878 0.00405064 0.00203324 0.00825672 0.00159028 0.0217986 0.00127726 0.00750098 0.00137672 0.0278055 0.00240071 0.0173372 0.00244677 0.028004 0.00348438 0.0159098 0.00355701 0.049937
116 3 O 5.72074 22.6328 1.4948 -1.2 1 0.001576 0.00240763 0.00162532 0.00391866 0.00171922 0.0082694 0.00165054 0.0221592 0.0018794 0.0072181 0.00116388 0.0279113 0.00206057 0.017224 0.00280715 0.0283869 0.0032476 0.0163483 0.0032769 0.0498923
117 3 O 2.03867 20.0455 1.4948 -1.2 1 0.00170433 0.00261783 0.00132694 0.0040592 0.00177563 0.00762918 0.00205769 0.022198 0.00213289 0.00751834 0.0013649 0.0282192 0.00195628 0.0169016 0.0023706 0.0290144 0.00359667 0.0161565 0.00339902 0.0500395
118 3 O 4.96004 20.3134 0.196716 -1.2 1 0.00203955 0.00220703 0.0014047 0.00396273 0.00121993 0.00829675 0.00105744 0.0215663 0.00095795 0.00747552 0.00149412 0.0274588 0.00270402 0.0165892 0.00369517 0.0289129 0.0031253 0.0152822 0.00273185 0.0494728
119 1 Mg 6.55057 18.996 2.9896 1.2 1 0.00169391 0.00314074 0.0014315 0.00411265 0.00258935 0.00810867 0.0028008 0.0212559 0.00245944 0.0079916 0.00180371 0.0287453 0.00282172 0.016625 0.00303182 0.0287066 0.00401863 0.0169666 0.00444399 0.0499705