ITEM: TIMESTEP
1700
ITEM: NUMBER OF ATOMS
10500
ITEM: BOX BOUNDS xy xz yz pp pp pp
0	15.2977	5.09925
0	118.725	0
0	89.688	0
ITEM: ATOMS id type element xu yu zu q Q_1 Q_2 Q_3 Q_4 Q_5 Q_6 Q_7 Q_8 Q_9 Q_10 Q_11 Q_12 Q_13 Q_14 Q_15 Q_16 Q_17 Q_18 Q_19 Q_20 Q_21
1 1 Mg 6.2404 -6.37941e-06 0 1.2 1 0.00142296 0.004115 0.00116639 0.00479934 0.00119689 0.00562595 0.00221632 0.0160735 0.00219159 0.00568468 0.00222658 0.0219142 0.00250612 0.0134356 0.0034392 0.0206926 0.00404461 0.0143009 0.00395617 0.0406191
2 1 Mg 3.46349 4.70768 1.4948 1.2 1 0.0013035 0.00335822 0.00177207 0.00434393 0.00193104 0.00611332 0.0035486 0.0186919 0.00279931 0.00705701 0.00294351 0.0258103 0.00328483 0.0136745 0.0044053 0.0252888 0.00539354 0.0172486 0.00585205 0.0438089
3 2 Si 5.2885 2.02354 1.4948 2.4 1 0.000970707 0.00331523 0.0021061 0.00452268 0.00177461 0.00570342 0.00255758 0.0169396 0.00245005 0.00612393 0.00208389 0.0234331 0.00288428 0.0133545 0.00370587 0.0216676 0.00387537 0.0154391 0.00438487 0.0413132
4 3 O 5.33628 3.63678 1.4948 -1.2 1 0.000764026 0.00273947 0.00182286 0.00474075 0.00208715 0.00626578 0.00288487 0.0177958 0.00228055 0.00676435 0.00197018 0.025281 0.00261841 0.0135493 0.00431922 0.0240661 0.0050169 0.0165334 0.00586715 0.0428942
5 3 O 1.67294 1.04952 1.4948 -1.2 1 0.00202568 0.00343098 0.00214658 0.00409974 0.00129064 0.00574793 0.00251184 0.0168823 0.00237533 0.00608605 0.00212722 0.022858 0.00269714 0.0126462 0.00338808 0.02192 0.00459346 0.0157402 0.00479436 0.0403125
6 3 O 4.59532 1.31737 0.196716 -1.2 1 0.00144426 0.0030178 0.00196918 0.00435606 0.00188259 0.00569137 0.00241843 0.017082 0.00278177 0.0061645 0.0020314 0.0224691 0.00329739 0.0127399 0.00430184 0.0215741 0.00411879 0.0150349 0.00454509 0.040944
7 1 Mg 6.18956 -6.37941e-06 2.9896 1.2 1 0.00145032 0.00450883 0.00151521 0.00410612 0.0012252 0.0056775 0.0025065 0.0160264 0.00273597 0.0055661 0.00179007 0.0224793 0.00277171 0.0132313 0.00365885 0.0206754 0.00447986 0.0148248 0.00501959 0.03902
8 3 O 4.55118 1.31737 2.79288 -1.2 1 0.00155424 0.00441717 0.00186927 0.00414123 0.00174395 0.00556262 0.00265819 0.0168178 0.00245815 0.00695617 0.00239784 0.0218023 0.00358012 0.012047 0.00351495 0.0215397 0.0047295 0.0156325 0.00536392 0.0399139
9 1 Mg -1.20682 0.0413099 4.4844 1.2 1 0.000337848 0.00298644 0.00184971 0.00444743 0.00123913 0.00550312 0.00208753 0.0162004 0.00205818 0.00608882 0.00216741 0.0229666 0.00309764 0.0115273 0.00372214 0.0209656 0.00537701 0.0157473 0.00532453 0.0389175
10 2 Si -3.0337 2.72544 4.4844 2.4 1 0.00068517 0.00334463 0.00189877 0.00483141 0.00214015 0.0062272 0.00332944 0.0168054 0.00325692 0.00648545 0.00240824 0.0242681 0.00330442 0.0127772 0.00416568 0.022631 0.0054882 0.0178158 0.00656691 0.0400162
11 3 O -3.08099 1.11221 4.4844 -1.2 1 0.000386579 0.00379277 0.00185793 0.0041385 0.00126247 0.0053984 0.00245148 0.0161452 0.00282941 0.00580536 0.0022008 0.0226539 0.00337015 0.0111549 0.0035705 0.0214489 0.00507126 0.0163037 0.00569673 0.0387047
12 3 O 0.582463 3.69946 4.4844 -1.2 1 0.00202758 0.00456996 0.00219465 0.00426244 0.00256267 0.00663614 0.00359333 0.0174918 0.0033008 0.0067675 0.00320581 0.0250823 0.00431085 0.0128119 0.00451211 0.0245379 0.00692594 0.0188587 0.00844235 0.0422606
13 3 O -2.29524 3.43162 3.18632 -1.2 1 0.000974564 0.00284783 0.00275519 0.00455631 0.00214922 0.00604961 0.00300832 0.0178985 0.00325821 0.00686762 0.00270439 0.024744 0.00343835 0.01283 0.00486913 0.0243879 0.00603601 0.0180283 0.00681639 0.0421416
14 3 O -2.34216 3.43162 5.78248 -1.2 1 0.00145901 0.00388518 0.00133137 0.00480587 0.00272771 0.00609492 0.00337915 0.017226 0.00300851 0.00760028 0.0027502 0.0239989 0.00462984 0.0124387 0.00425624 0.0236948 0.0065439 0.0196049 0.00799869 0.0410547
15 1 Mg 1.12778 2.37449 2.9896 1.2 1 0.00180024 0.00376613 0.00237498 0.00435583 0.00215866 0.00588552 0.00312518 0.0168004 0.00266351 0.00634122 0.00246426 0.0237832 0.00344737 0.0128057 0.00354121 0.0220272 0.00487169 0.0166112 0.00568363 0.0410359
16 1 Mg 3.92855 2.33318 4.4844 1.2 1 0.00159086 0.00452394 0.00169072 0.00407179 0.00185399 0.0056395 0.00353022 0.016898 0.00315528 0.0063144 0.00293931 0.0231464 0.00376515 0.013174 0.00520822 0.0221017 0.00638795 0.0173337 0.00714572 0.0404073
17 2 Si 2.09341 4.39804 4.4844 2.4 1 0.0015402 0.00429819 0.00206032 0.00410463 0.00295349 0.00601369 0.00383505 0.018446 0.00342189 0.00692556 0.00342454 0.025258 0.00464678 0.0139511 0.00457914 0.0248394 0.00682781 0.0187611 0.00854515 0.0439921
18 3 O 2.09991 6.01128 4.4844 -1.2 1 0.00182312 0.00449681 0.00172079 0.00409779 0.0029386 0.00649596 0.00327895 0.0194481 0.00278998 0.00749383 0.00319217 0.0270783 0.00436253 0.0143966 0.00492629 0.0276543 0.00693326 0.0197813 0.00826678 0.0459972
19 3 O -4.52137 3.42402 4.4844 -1.2 1 0.00096648 0.003747 0.00213453 0.00454352 0.00228422 0.00700145 0.00364925 0.0171487 0.00327058 0.0064922 0.00298415 0.0241484 0.00407168 0.012753 0.00429194 0.0231288 0.00626701 0.0180402 0.00768238 0.0416508
20 3 O 2.80834 3.69187 3.18632 -1.2 1 0.00133209 0.00380442 0.00182047 0.0036809 0.00198897 0.00586703 0.00314789 0.0175186 0.00299758 0.0065587 0.00290595 0.0244045 0.00372918 0.0128631 0.00480211 0.023949 0.00575825 0.0172675 0.00653688 0.0428438
21 1 Mg 1.17857 2.37449 0 1.2 1 0.00241549 0.00355134 0.00220132 0.0040517 0.00143101 0.0055132 0.00249129 0.0172303 0.00243078 0.00663749 0.00283122 0.0232582 0.0029341 0.0131648 0.00368186 0.0216714 0.00437423 0.0150203 0.00471924 0.0409433
22 3 O 2.76143 3.69187 5.78248 -1.2 1 0.00205579 0.00453331 0.00195603 0.00412511 0.00233216 0.00550557 0.00303677 0.017735 0.00323251 0.00743615 0.00285834 0.0237225 0.00483839 0.0129398 0.00556025 0.023607 0.00680421 0.0188572 0.00795917 0.0417999
23 1 Mg -1.67381 2.41581 1.4948 1.2 1 0.00172627 0.00266691 0.00262059 0.0048051 0.00143998 0.0059583 0.00238443 0.0166739 0.00279499 0.00636767 0.00199911 0.024246 0.00259377 0.0140033 0.00291462 0.0223366 0.00442049 0.0161791 0.00482382 0.04172
24 2 Si 0.16286 0.350945 1.4948 2.4 1 0.00224984 0.00282345 0.0028558 0.00452956 0.0012527 0.00633905 0.00282488 0.0163717 0.00215167 0.00524859 0.00202153 0.0228721 0.00249463 0.0133459 0.00305989 0.0207612 0.00457265 0.0148883 0.0042772 0.0402149
25 3 O 0.15972 -1.26229 1.4948 -1.2 1 0.002163 0.00278413 0.00298626 0.00435588 0.00187699 0.00595109 0.00262577 0.0163893 0.00236651 0.00546964 0.00252269 0.0227733 0.00258484 0.0137661 0.00287854 0.021756 0.00418765 0.0146567 0.00390274 0.0407741
26 3 O 6.77654 1.32496 1.4948 -1.2 1 0.00155323 0.00372239 0.00165863 0.00456763 0.00131317 0.00597633 0.00239023 0.0166904 0.00250106 0.00548283 0.00179724 0.0237608 0.00280657 0.0134317 0.0035435 0.0219414 0.00459031 0.0153869 0.0045033 0.0408475
27 3 O -0.508028 1.05712 0.196716 -1.2 1 0.00183879 0.00281495 0.0033402 0.00408273 0.00141147 0.00562088 0.00244799 0.0170632 0.00180727 0.0065984 0.0026573 0.022124 0.00274158 0.0127462 0.00314691 0.0212478 0.00424464 0.0151909 0.00435152 0.0401951
28 3 O -0.552171 1.05712 2.79288 -1.2 1 0.00143896 0.00242851 0.00283921 0.0042829 0.001282 0.00605417 0.00253494 0.016173 0.00255957 0.00641776 0.00173917 0.0229227 0.00311992 0.0115924 0.00364259 0.0217864 0.00535016 0.0159631 0.00508273 0.0395892
29 1 Mg 6.31713 4.74899 0 1.2 1 0.00110003 0.00265358 0.00207118 0.00473128 0.00231616 0.00618513 0.00327848 0.0180535 0.00278538 0.007065 0.00227476 0.0253905 0.00294807 0.0136403 0.00435412 0.024806 0.00481303 0.0165004 0.00598199 0.0429281
30 1 Mg 3.54847 9.45668 1.4948 1.2 1 0.000627634 0.00330788 0.00211504 0.00468792 0.00211867 0.00774635 0.00309953 0.021421 0.00178133 0.00841944 0.00253934 0.0286921 0.00337655 0.0156254 0.00397338 0.0292509 0.00428483 0.0183098 0.0039812 0.0489553
31 2 Si 5.36879 6.77254 1.4948 2.4 1 0.000278881 0.00311205 0.00216979 0.00510845 0.00273653 0.00691692 0.0037686 0.0195961 0.00274531 0.00791874 0.00256582 0.0278075 0.00328691 0.0152537 0.00430233 0.0270365 0.00472675 0.017383 0.00538092 0.04662
32 3 O 5.41937 8.38578 1.4948 -1.2 1 0.000351411 0.0032625 0.00200896 0.00500172 0.00226584 0.00775809 0.00313304 0.0209815 0.00230939 0.00843724 0.00256098 0.0291631 0.00247416 0.015558 0.00319196 0.0291865 0.00466926 0.0176032 0.00499213 0.048203
33 3 O 1.75158 5.79852 1.4948 -1.2 1 0.00113415 0.00352987 0.0017751 0.00405006 0.00243233 0.0059731 0.00327625 0.0195981 0.00285329 0.00739334 0.00273535 0.0280188 0.00307449 0.0153195 0.00366214 0.0269075 0.00541928 0.0177657 0.00564019 0.0458258
34 3 O 4.67421 6.06637 0.196716 -1.2 1 0.000846018 0.00308527 0.00179972 0.00485841 0.00204173 0.00690457 0.00299027 0.0198009 0.00248642 0.00829465 0.00222031 0.0264023 0.00357732 0.0142781 0.00433965 0.0267391 0.00476619 0.0168507 0.00565322 0.0452306
35 1 Mg 6.26654 4.74899 2.9896 1.2 1 0.00144469 0.00311998 0.00229937 0.00489357 0.00253792 0.00661201 0.00379124 0.0180189 0.00377629 0.00720567 0.00229461 0.0261115 0.00386313 0.0143514 0.00506807 0.0250829 0.00586256 0.0177638 0.00717555 0.0438172
36 3 O 4.63043 6.06637 2.79288 -1.2 1 0.00164054 0.00339518 0.00181141 0.00482947 0.00230549 0.00683687 0.00342845 0.0195115 0.00338431 0.00805585 0.00257339 0.026342 0.00400916 0.0145591 0.00458734 0.0273901 0.00584741 0.0183958 0.00706342 0.0457959
37 1 Mg -1.12976 4.79031 4.4844 1.2 1 0.00170589 0.00417501 0.00176069 0.00468745 0.00240344 0.00625725 0.0033518 0.0181854 0.00356432 0.00725346 0.00316089 0.0262549 0.00430798 0.0141775 0.00481011 0.0259343 0.00763436 0.0194785 0.00834766 0.0445291
38 2 Si -2.9517 7.47444 4.4844 2.4 1 0.00201491 0.00411353 0.00160096 0.00523466 0.00297572 0.00670112 0.00383423 0.0206677 0.00336205 0.00803913 0.00316033 0.0279527 0.004689 0.0159615 0.005585 0.0282559 0.00707424 0.0195575 0.0083204 0.0483525
39 3 O -3.00198 5.86121 4.4844 -1.2 1 0.0014845 0.00419742 0.00151556 0.00500461 0.00320534 0.0065422 0.00420154 0.0190712 0.00361864 0.00783356 0.0029353 0.0263133 0.00461202 0.0141524 0.00500237 0.0271911 0.00706116 0.0198968 0.00860168 0.0459849
40 3 O 0.666315 8.44846 4.4844 -1.2 1 0.00234109 0.00494103 0.00146917 0.00500458 0.00304156 0.00743988 0.00302855 0.0213143 0.00327794 0.00812383 0.00340156 0.0290189 0.00494025 0.0159163 0.00475922 0.0294829 0.00666653 0.0199976 0.00816696 0.0492155
41 3 O -2.21213 8.18062 3.18632 -1.2 1 0.00137118 0.00425634 0.00174584 0.00455882 0.00267968 0.00634687 0.0029327 0.0209192 0.00288505 0.00831667 0.00294994 0.0279934 0.0044499 0.0159633 0.00515381 0.0290999 0.00589509 0.0189789 0.00679752 0.0489836
42 3 O -2.25864 8.18062 5.78248 -1.2 1 0.0026959 0.00472209 0.00187868 0.00502863 0.00321858 0.00621947 0.00309157 0.0210899 0.00263329 0.00875311 0.00372192 0.0274604 0.00482701 0.0166417 0.0057937 0.029619 0.00742542 0.0211134 0.00854278 0.0500924
43 1 Mg 1.20893 7.12349 2.9896 1.2 1 0.00130713 0.00396879 0.00189409 0.00442395 0.00284878 0.00675901 0.00368716 0.0198296 0.00291042 0.00818653 0.00278121 0.0282632 0.00364967 0.0156374 0.00397397 0.027626 0.00570165 0.0185737 0.00649388 0.0472371
44 1 Mg 4.00982 7.08218 4.4844 1.2 1 0.00203767 0.00414744 0.00176835 0.0049191 0.00269052 0.00659209 0.00385534 0.0203637 0.00348108 0.00773866 0.00336234 0.0277694 0.00450486 0.0166187 0.00585139 0.0284684 0.007339 0.019657 0.00868246 0.0477587
45 2 Si 2.17861 9.14704 4.4844 2.4 1 0.0020398 0.00431461 0.00184597 0.00494109 0.00306135 0.00741443 0.003719 0.0214728 0.00298295 0.00837168 0.00328454 0.0285886 0.00497405 0.016669 0.00480528 0.0297908 0.0060487 0.0200096 0.00717839 0.0508066
46 3 O 2.18828 10.7603 4.4844 -1.2 1 0.0025426 0.00455509 0.0021757 0.00470126 0.00284901 0.00719599 0.0030207 0.0213413 0.00260733 0.00830631 0.00241036 0.0292359 0.00448076 0.0158909 0.00456189 0.0309487 0.00621529 0.0202382 0.0068896 0.0515992
47 3 O -4.43805 8.17302 4.4844 -1.2 1 0.00134928 0.00450097 0.00195116 0.00526443 0.00268487 0.00780444 0.00328599 0.0210712 0.00337412 0.00829904 0.00337133 0.0290653 0.00503216 0.0160886 0.00536571 0.0295496 0.00697932 0.019824 0.00903061 0.0491377
48 3 O 2.89193 8.44087 3.18632 -1.2 1 0.00173508 0.0037948 0.00198875 0.00445054 0.00260039 0.00703034 0.0033247 0.0207832 0.00295327 0.00861349 0.0029821 0.0278732 0.00408133 0.0158592 0.0048395 0.0291401 0.00595596 0.0190259 0.00603532 0.0489672
49 1 Mg 1.25915 7.12349 0 1.2 1 0.00113778 0.0031277 0.00159156 0.00430235 0.00188642 0.00732457 0.00283245 0.0202645 0.00286223 0.00830984 0.00251422 0.0277218 0.00343345 0.0143172 0.00356664 0.0277161 0.00468272 0.017539 0.00455342 0.0462609
50 3 O 2.84547 8.44087 5.78248 -1.2 1 0.00252449 0.00501247 0.00179337 0.00492771 0.00281238 0.00671981 0.00341708 0.021329 0.00318473 0.00903176 0.00352953 0.0275673 0.00579382 0.0166093 0.00551522 0.0300425 0.00653879 0.0215263 0.0080896 0.0504072
51 1 Mg -1.59284 7.16481 1.4948 1.2 1 0.00103745 0.00341216 0.00160173 0.00470963 0.00180037 0.00644978 0.00273107 0.0199993 0.0029532 0.00798528 0.00187762 0.0278669 0.0034243 0.0154643 0.00383592 0.0272671 0.00471025 0.0178052 0.00565867 0.0468108
52 2 Si 0.240329 5.09994 1.4948 2.4 1 0.00128244 0.00371421 0.0022333 0.00408844 0.00189061 0.00674863 0.00304877 0.018997 0.00316174 0.00741365 0.00233856 0.0261443 0.00298805 0.0143848 0.00424495 0.0248726 0.00514762 0.0171529 0.00533472 0.044802
53 3 O 0.234538 3.48671 1.4948 -1.2 1 0.00179901 0.00383711 0.00275946 0.00424125 0.00180816 0.00641842 0.00265439 0.0179636 0.00339189 0.00702993 0.00242034 0.0246344 0.00335271 0.0134125 0.00409144 0.0240702 0.00556023 0.0162553 0.00550271 0.0424938
54 3 O 6.85564 6.07396 1.4948 -1.2 1 0.000729779 0.00268861 0.00246577 0.00482535 0.00249452 0.00616719 0.00314398 0.0199683 0.0031064 0.00763016 0.00220208 0.0278546 0.00336453 0.0145764 0.00481328 0.0269974 0.00562215 0.017825 0.00637824 0.0455921
55 3 O -0.429565 5.80612 0.196716 -1.2 1 0.00110762 0.00339217 0.00237433 0.00421556 0.00186134 0.00715386 0.00250154 0.0196432 0.00283692 0.00852547 0.00252719 0.0258273 0.00276096 0.014099 0.00396816 0.0259706 0.00509012 0.0169421 0.00578553 0.0452667
56 3 O -0.473377 5.80612 2.79288 -1.2 1 0.00146468 0.00356359 0.00213729 0.00444286 0.00238019 0.00670249 0.003129 0.0192722 0.00322043 0.00813639 0.00302772 0.0261859 0.00402748 0.0144221 0.00468809 0.0265772 0.00644754 0.0186251 0.00689498 0.0459862
57 1 Mg 6.40169 9.49799 0 1.2 1 0.000668097 0.00391292 0.00164413 0.00463495 0.00146667 0.00829368 0.00203835 0.0211694 0.00169566 0.008968 0.00184623 0.0289813 0.00256181 0.0147688 0.00270165 0.0299038 0.00369283 0.0179716 0.00404489 0.0477397
58 1 Mg 3.64209 14.2057 1.4948 1.2 1 0.00160302 0.00319605 0.00171134 0.00441233 0.00179407 0.00880378 0.00168012 0.0218113 0.00167828 0.00875725 0.00235052 0.0286593 0.00272414 0.0161715 0.0031506 0.0295526 0.00361192 0.0170417 0.00339037 0.0496326
59 2 Si 5.45748 11.5215 1.4948 2.4 1 0.00149892 0.00337411 0.00188623 0.00453471 0.00177857 0.00822934 0.00219007 0.0212214 0.00163309 0.00837424 0.00185334 0.0291003 0.00279079 0.0162227 0.00348936 0.0293605 0.00412354 0.0170113 0.00378831 0.0493767
60 3 O 5.51101 13.1348 1.4948 -1.2 1 0.00152707 0.00327998 0.00191206 0.00449987 0.00166846 0.00906777 0.00183046 0.0213407 0.00181094 0.00869658 0.00174072 0.02966 0.00234123 0.0161181 0.00297356 0.0299147 0.00378707 0.0167182 0.00350959 0.0493134
61 3 O 1.83851 10.5475 1.4948 -1.2 1 0.000562522 0.00359093 0.00193253 0.00486474 0.00188235 0.00780196 0.00238485 0.0217307 0.00184431 0.00844055 0.00231641 0.0295938 0.00282307 0.0157941 0.0033954 0.0299202 0.00413752 0.0179508 0.00349668 0.0494897
62 3 O 4.7611 10.8154 0.196716 -1.2 1 0.000778262 0.00314014 0.0019501 0.00467844 0.00158554 0.00854483 0.00222559 0.0214473 0.00148176 0.00878032 0.00200771 0.0284868 0.00308123 0.0156094 0.00393571 0.0295231 0.00375161 0.0172439 0.00360622 0.0486641
63 1 Mg 6.35203 9.49799 2.9896 1.2 1 0.000847467 0.00389369 0.00188955 0.00477515 0.00271233 0.00753786 0.00345617 0.0205858 0.00318457 0.00865126 0.00222956 0.0294505 0.00402672 0.0161388 0.00357171 0.0293924 0.00446665 0.0185845 0.00566442 0.0491313
64 3 O 4.71833 10.8154 2.79288 -1.2 1 0.00169334 0.00368274 0.00180877 0.00451096 0.00224456 0.00825567 0.0022827 0.0213962 0.00218284 0.00899707 0.00228175 0.0285986 0.00367547 0.0158736 0.0041416 0.0303461 0.0053124 0.0184754 0.00555935 0.0503351
65 1 Mg -1.0438 9.53931 4.4844 1.2 1 0.00227656 0.00482525 0.00181353 0.0046629 0.00313444 0.00684935 0.00271618 0.0212628 0.00296926 0.0085225 0.00290367 0.0289342 0.0041778 0.016668 0.0048718 0.0300921 0.00662071 0.0201691 0.00734061 0.0506525
66 2 Si -2.8604 12.2234 4.4844 2.4 1 0.00246687 0.00426532 0.00209071 0.00457396 0.00282936 0.00779118 0.00314169 0.0222036 0.00299428 0.00861417 0.00245419 0.02884 0.00438109 0.0167814 0.00469017 0.0303546 0.00581486 0.0195857 0.00661153 0.052369
67 3 O -2.91391 10.6102 4.4844 -1.2 1 0.0025559 0.00463085 0.00193007 0.00460227 0.00294331 0.00718163 0.00330885 0.0210123 0.00276295 0.00799353 0.0023102 0.0291022 0.00454134 0.0160065 0.00457282 0.0308925 0.00602974 0.0199143 0.00691512 0.0512712
68 3 O 0.7596 13.1975 4.4844 -1.2 1 0.00266196 0.00422971 0.00227774 0.00496883 0.0029191 0.0086686 0.0027135 0.0225597 0.00298569 0.00844053 0.00301748 0.0294073 0.0044097 0.0166373 0.00445388 0.0304741 0.00600779 0.0198492 0.00673373 0.0521479
69 3 O -2.12001 12.9296 3.18632 -1.2 1 0.00237657 0.00392096 0.00197364 0.00424539 0.00265227 0.00774709 0.00237025 0.0220853 0.0025793 0.00860214 0.00233239 0.0284099 0.00387548 0.016365 0.00473591 0.0305192 0.00516855 0.0186142 0.00538316 0.0512704
70 3 O -2.16532 12.9296 5.78248 -1.2 1 0.00336186 0.00453547 0.00184315 0.00465004 0.00293792 0.00698383 0.00240626 0.0225663 0.00252341 0.00855764 0.00272001 0.0284881 0.00434266 0.0174083 0.00505205 0.0315845 0.00641773 0.0214038 0.00701328 0.0541498
71 1 Mg 1.29891 11.8725 2.9896 1.2 1 0.00191634 0.00355737 0.00210002 0.00479345 0.00250989 0.00810607 0.00280928 0.0212668 0.00262532 0.00860325 0.002209 0.0294736 0.00358232 0.0162981 0.00358763 0.0301092 0.0046659 0.0180398 0.00491616 0.0502167
72 1 Mg 4.10033 11.8312 4.4844 1.2 1 0.00236906 0.0040785 0.00227177 0.00437027 0.00267423 0.00735259 0.00276165 0.0216937 0.00264822 0.00827861 0.00284341 0.0293899 0.00399866 0.0175057 0.00518712 0.0306768 0.00658953 0.0196772 0.00652609 0.0520176
73 2 Si 2.27333 13.896 4.4844 2.4 1 0.00255427 0.00371742 0.00210681 0.00493048 0.00304154 0.00802455 0.00309427 0.0221798 0.00262637 0.00836554 0.00301258 0.0289199 0.00414189 0.016983 0.00456007 0.0303669 0.00557513 0.019262 0.00621207 0.0530046
74 3 O 2.28634 15.5093 4.4844 -1.2 1 0.00265235 0.00381107 0.00215287 0.00465286 0.00313048 0.00732423 0.00279973 0.0214844 0.00281844 0.00779895 0.00237049 0.0293709 0.0036483 0.0162868 0.00410518 0.030986 0.00579908 0.0190032 0.00636827 0.0527018
75 3 O -4.34533 12.922 4.4844 -1.2 1 0.00239833 0.00423533 0.00234342 0.00462716 0.00287933 0.00844667 0.0030256 0.0221915 0.00297048 0.00852561 0.00258805 0.0294051 0.00430392 0.0165488 0.00499539 0.0307748 0.00639192 0.020004 0.00724296 0.0522114
76 3 O 2.98455 13.1899 3.18632 -1.2 1 0.0023665 0.00362142 0.00200641 0.00431359 0.00263735 0.00804398 0.00217833 0.0219999 0.00229273 0.00865895 0.00247955 0.0285063 0.00368178 0.0162486 0.00441775 0.0302612 0.00556195 0.0185842 0.00548791 0.0510483
77 1 Mg 1.34779 11.8725 0 1.2 1 0.00103643 0.00307825 0.00137421 0.00473883 0.00147388 0.00894138 0.00162015 0.0213672 0.00131963 0.00912895 0.00202286 0.0292282 0.00287296 0.0148946 0.00303167 0.0301997 0.0031728 0.0172909 0.00313616 0.0483533
78 3 O 2.93934 13.1899 5.78248 -1.2 1 0.00275877 0.00449609 0.00210255 0.0050345 0.00285748 0.00713195 0.00262905 0.0224913 0.00275857 0.00855623 0.00321253 0.0284696 0.00476917 0.0172022 0.005094 0.031499 0.00626539 0.0214737 0.00685729 0.0542947
79 1 Mg -1.50344 11.9138 1.4948 1.2 1 0.00108677 0.0036306 0.00152879 0.00446677 0.00143641 0.00832993 0.0018384 0.0217543 0.00250776 0.00860748 0.00164753 0.0289667 0.00361392 0.0161382 0.0034162 0.0297836 0.00349456 0.0176096 0.00368669 0.0493717
80 2 Si 0.326006 9.84894 1.4948 2.4 1 0.000256947 0.00350446 0.00138312 0.00493211 0.00194967 0.00818703 0.00211697 0.0211674 0.00222153 0.00856079 0.00173122 0.0288215 0.00309147 0.0157032 0.0037414 0.0290391 0.00379642 0.0178179 0.00351365 0.0487953
81 3 O 0.317364 8.23571 1.4948 -1.2 1 0.000792174 0.00366456 0.00123618 0.0044514 0.00190601 0.00769925 0.00219043 0.0204172 0.00268616 0.0081121 0.00189038 0.028867 0.00354717 0.0156953 0.00393532 0.0286888 0.00450301 0.017824 0.00433111 0.0478589
82 3 O 6.94307 10.823 1.4948 -1.2 1 0.00078595 0.00381548 0.00171024 0.00441826 0.00194647 0.00776794 0.00260902 0.021909 0.00244386 0.0084215 0.00154774 0.0296795 0.00310292 0.0158697 0.00340587 0.0299803 0.00377822 0.0180252 0.0041372 0.0494199
83 3 O -0.343122 10.5551 0.196716 -1.2 1 0.000489941 0.0032294 0.0011974 0.00466543 0.00149601 0.00863425 0.00191474 0.0214472 0.00178629 0.00909182 0.00199741 0.0283505 0.0033333 0.0153574 0.00419814 0.0294472 0.00353569 0.0174803 0.003489 0.0486395
84 3 O -0.385966 10.5551 2.79288 -1.2 1 0.00214001 0.00398283 0.00151114 0.00454434 0.00259467 0.00805893 0.00221019 0.0216732 0.00226511 0.00920706 0.00251156 0.028055 0.00401872 0.0160485 0.00433522 0.030183 0.0051609 0.0187277 0.00504726 0.0502036
85 1 Mg 6.49448 14.247 0 1.2 1 0.00134381 0.00345946 0.00166473 0.00450592 0.00120125 0.00919686 0.00128134 0.0213822 0.00124384 0.00861667 0.00147537 0.0291454 0.00172886 0.01546 0.00255472 0.0300392 0.00316798 0.0165781 0.00287472 0.0483223
86 1 Mg 3.74457 18.9547 1.4948 1.2 1 0.001781 0.00304584 0.00157315 0.00377675 0.00197394 0.00841724 0.00126103 0.0223536 0.00189396 0.00816239 0.00240113 0.0281525 0.00260415 0.0166509 0.00357043 0.0287803 0.00359306 0.0165468 0.00330048 0.0500046
87 2 Si 5.55495 16.2705 1.4948 2.4 1 0.00194476 0.00290134 0.00163581 0.00415465 0.00194029 0.00885115 0.00135974 0.0214973 0.00142636 0.00796129 0.00141283 0.029032 0.00241433 0.0162867 0.00298348 0.0288957 0.00375821 0.0159901 0.00359715 0.0496024
88 3 O 5.6115 17.8838 1.4948 -1.2 1 0.00174949 0.00297725 0.00178677 0.00395311 0.00193197 0.00909527 0.00153355 0.0217506 0.00182088 0.00791418 0.00160579 0.02913 0.00215479 0.0165224 0.00282635 0.0289583 0.00336919 0.0159172 0.00346713 0.0496623
89 3 O 1.93416 15.2965 1.4948 -1.2 1 0.00163569 0.00303014 0.00175254 0.00431274 0.00192693 0.0084065 0.00201084 0.0220182 0.0018819 0.00812616 0.00154861 0.0294592 0.00220825 0.0162619 0.00297773 0.0297258 0.00376808 0.0166615 0.00325599 0.0500347
90 3 O 4.85636 15.5644 0.196716 -1.2 1 0.00161621 0.00270147 0.00141495 0.00434202 0.00138337 0.0091386 0.00138169 0.0214787 0.000953783 0.00827512 0.00172901 0.0284418 0.00266398 0.0160778 0.00361182 0.0292612 0.00328242 0.0159426 0.00306719 0.0490305
91 1 Mg 6.44662 14.247 2.9896 1.2 1 0.00121453 0.00359672 0.00184356 0.00434901 0.00259972 0.00849272 0.00285146 0.021051 0.00269227 0.00866158 0.00187767 0.0297332 0.0032645 0.0164634 0.00311376 0.0298001 0.00400851 0.0176798 0.00460121 0.0502845
92 3 O 4.81537 15.5644 2.79288 -1.2 1 0.00200194 0.00312773 0.00178247 0.0040827 0.00248589 0.0087458 0.0017112 0.0220121 0.00179423 0.00869287 0.00197475 0.0284169 0.0030228 0.0165559 0.00367954 0.0297193 0.00476097 0.0174046 0.0048656 0.0507495
93 1 Mg -0.948271 14.2883 4.4844 1.2 1 0.00298181 0.00384408 0.00190438 0.00438097 0.00293416 0.00774698 0.00268935 0.0219768 0.00286497 0.00842035 0.00286863 0.0292061 0.00362167 0.0171816 0.00513546 0.0306841 0.00590302 0.0192016 0.00644538 0.0524237
94 2 Si -2.75928 16.9724 4.4844 2.4 1 0.00241701 0.00339158 0.00208926 0.00444268 0.00298994 0.00791003 0.00282505 0.0224484 0.00278927 0.00793096 0.00263482 0.0287605 0.00364952 0.0172374 0.0046311 0.0299075 0.00515228 0.0187592 0.00593979 0.0532659
95 3 O -2.81617 15.3592 4.4844 -1.2 1 0.0029932 0.00385153 0.00202906 0.00429967 0.00305633 0.00749847 0.00279027 0.0215609 0.002621 0.0078268 0.00234306 0.0293885 0.00398863 0.0164212 0.0042409 0.0307318 0.00595469 0.0189384 0.00657061 0.0525212
96 3 O 0.862762 17.9465 4.4844 -1.2 1 0.00245167 0.00364589 0.0019955 0.00455871 0.00318925 0.00827552 0.00256161 0.0227843 0.00271794 0.00797601 0.00271725 0.0294094 0.00395907 0.0172856 0.00452182 0.0296263 0.00559379 0.0188815 0.00609874 0.0528927
97 3 O -2.0185 17.6786 3.18632 -1.2 1 0.00232878 0.00316564 0.00204369 0.00383907 0.00287159 0.00755242 0.00229203 0.0225019 0.00239962 0.00801663 0.00215755 0.0282229 0.00357374 0.016709 0.00448311 0.0299258 0.00477817 0.017746 0.00504584 0.0517727
98 3 O -2.06164 17.6786 5.78248 -1.2 1 0.00298972 0.00392522 0.00166358 0.00472574 0.00300867 0.00688501 0.00240161 0.0229052 0.00248579 0.00813399 0.00281039 0.0287344 0.00377469 0.0178634 0.00516206 0.0312017 0.00591979 0.0206095 0.00630603 0.0552679
99 1 Mg 1.39817 16.6215 2.9896 1.2 1 0.00229096 0.00309869 0.00192887 0.00427056 0.00271363 0.00831869 0.00253227 0.0214661 0.00265332 0.00815138 0.0021861 0.0292893 0.00287729 0.0167527 0.00336496 0.0295892 0.00409173 0.0169131 0.00436512 0.0506863
100 1 Mg 4.20062 16.5802 4.4844 1.2 1 0.00238968 0.00345226 0.00213345 0.00423651 0.00286308 0.00761761 0.00239735 0.0221011 0.00309753 0.00786025 0.00302609 0.0290631 0.00357151 0.017556 0.00555319 0.0302794 0.00633572 0.0189144 0.0061264 0.052704
101 2 Si 2.37796 18.645 4.4844 2.4 1 0.00212619 0.00322523 0.00183967 0.00435759 0.00305104 0.00785582 0.00265929 0.0227047 0.0027266 0.00805955 0.00286 0.0285334 0.00369329 0.0174755 0.0045437 0.0296217 0.00528907 0.018439 0.00574161 0.0537415
102 3 O 2.39434 20.2583 4.4844 -1.2 1 0.00214002 0.00354039 0.0018524 0.00438878 0.00303661 0.00678779 0.00258264 0.0219019 0.00297682 0.00749591 0.00220295 0.0292626 0.00349639 0.0170174 0.00406523 0.0301464 0.00567934 0.0184157 0.00639112 0.0533513
103 3 O -4.24274 17.671 4.4844 -1.2 1 0.00198261 0.00364664 0.00223752 0.00438118 0.0029678 0.00844094 0.00276308 0.0227476 0.00290097 0.008006 0.00252147 0.0292691 0.00364352 0.0170535 0.00487693 0.0300596 0.00578796 0.0191461 0.00639086 0.0529615
104 3 O 3.08659 17.9389 3.18632 -1.2 1 0.00220522 0.00295149 0.00183764 0.00379501 0.00279172 0.00785237 0.00188922 0.0223458 0.0023956 0.00815632 0.00245342 0.0281566 0.00340844 0.0166866 0.00452582 0.0296842 0.00525065 0.0177204 0.00541913 0.0516982
105 1 Mg 1.44478 16.6215 0 1.2 1 0.00215236 0.00287298 0.00125452 0.00410393 0.00148292 0.00896497 0.00109938 0.0215595 0.00139074 0.0082553 0.00152156 0.0289459 0.00222427 0.0157632 0.00240671 0.0292575 0.00294504 0.0161299 0.00291043 0.0488167
106 3 O 3.0436 17.9389 5.78248 -1.2 1 0.00240004 0.00380685 0.00200562 0.00485549 0.00292084 0.00691796 0.00248861 0.0228615 0.00240715 0.00831621 0.00304065 0.0285091 0.00400345 0.0175355 0.00496611 0.031037 0.00596462 0.0208218 0.00621198 0.0552136
107 1 Mg -1.40524 16.6628 1.4948 1.2 1 0.00151408 0.003058 0.00160572 0.00407336 0.00183795 0.00862892 0.00175694 0.0222423 0.00201884 0.00828265 0.00192032 0.0286329 0.00316559 0.0167083 0.00302841 0.0293476 0.00295444 0.0167289 0.0030988 0.0497109
108 2 Si 0.420358 14.5979 1.4948 2.4 1 0.00140602 0.0029883 0.00164201 0.00462758 0.00203648 0.00912489 0.00179051 0.0214184 0.00174383 0.00829108 0.00151336 0.0287997 0.0029601 0.0164442 0.00355568 0.0289083 0.00347959 0.0165445 0.00332317 0.0495105
109 3 O 0.408732 12.9847 1.4948 -1.2 1 0.00112635 0.00313902 0.00155887 0.00463244 0.00191315 0.00909311 0.00150919 0.021253 0.0023035 0.00849841 0.00164404 0.0293582 0.00316532 0.0160402 0.00311107 0.029857 0.00323647 0.0169675 0.00358641 0.0494482
110 3 O 7.03923 15.572 1.4948 -1.2 1 0.00144343 0.0032297 0.00180501 0.00417012 0.00215426 0.00832814 0.00227182 0.021788 0.00223568 0.00805972 0.00153486 0.0296146 0.00264223 0.0163557 0.00295944 0.029651 0.0033663 0.0168074 0.00373305 0.0497891
111 3 O -0.248332 15.3041 0.196716 -1.2 1 0.00171091 0.00278874 0.00128549 0.00432265 0.00125807 0.00900487 0.00178947 0.0213311 0.00137118 0.00836623 0.00161484 0.0283806 0.00280707 0.015973 0.00374455 0.0292641 0.0029707 0.0161055 0.00301823 0.0489863
112 3 O -0.289436 15.3041 2.79288 -1.2 1 0.00261563 0.00333361 0.00173674 0.00416423 0.00267277 0.00866121 0.00199598 0.0221114 0.00202789 0.00880009 0.00214346 0.0280376 0.00323238 0.0167248 0.00384201 0.0298065 0.00445051 0.0176468 0.00448767 0.0508215
113 1 Mg 6.59566 18.996 0 1.2 1 0.00149259 0.00308796 0.00147835 0.00392746 0.00116049 0.00857351 0.00108198 0.0220292 0.00114205 0.00785206 0.00138569 0.0285712 0.00189643 0.0163854 0.00230764 0.0286662 0.00291575 0.0159906 0.00288088 0.0488146
114 1 Mg 3.85574 23.7037 1.4948 1.2 1 0.00179867 0.00261938 0.00134014 0.00403557 0.00173869 0.00726522 0.0011805 0.0233075 0.00178537 0.00770765 0.0022567 0.027642 0.0024567 0.0176726 0.00375899 0.0283476 0.00340992 0.017187 0.00342429 0.0509628
115 2 Si 5.66125 21.0195 1.4948 2.4 1 0.00172803 0.00245117 0.00130456 0.00385831 0.0020774 0.00809079 0.00143342 0.022 0.00139421 0.00759148 0.00157669 0.0284605 0.00252745 0.0173833 0.00277715 0.0280575 0.00361024 0.015852 0.00396677 0.0503507
116 3 O 5.72074 22.6328 1.4948 -1.2 1 0.00175764 0.00257831 0.00164311 0.00394116 0.00186022 0.00804115 0.00149561 0.0224972 0.00183784 0.0074078 0.00143829 0.0284198 0.00209632 0.0173547 0.00289771 0.0283155 0.00332496 0.0163435 0.0036363 0.0503615
117 3 O 2.03867 20.0455 1.4948 -1.2 1 0.00156197 0.00300571 0.00159119 0.00396796 0.00198469 0.00766179 0.00202371 0.0224094 0.00220847 0.00757024 0.00155781 0.0289413 0.00228397 0.0172499 0.00264323 0.0288595 0.00358325 0.0161797 0.00345861 0.0505077
118 3 O 4.96004 20.3134 0.196716 -1.2 1 0.00181654 0.00234583 0.00141353 0.00384999 0.00140012 0.00822982 0.00107534 0.0218385 0.00105533 0.00762388 0.00164763 0.0281037 0.00272238 0.0166708 0.00388957 0.0286252 0.00312401 0.0153547 0.00293131 0.0495476
119 1 Mg 6.55057 18.996 2.9896 1.2 1 0.00112891 0.00315624 0.00174597 0.00386186 0.00263952 0.00808604 0.00272407 0.0215792 0.00253436 0.0079846 0.00184521 0.0295534 0.00301782 0.017093 0.003059 0.0289274 0.00392588 0.0170921 0.00459023 0.0508706