ITEM: TIMESTEP
30600
ITEM: NUMBER OF ATOMS
10500
ITEM: BOX BOUNDS xy xz yz pp pp pp
0	15.2977	5.09925
0	118.725	0
0	89.688	0
ITEM: ATOMS id type element xu yu zu q Q_1 Q_2 Q_3 Q_4 Q_5 Q_6 Q_7 Q_8 Q_9 Q_10 Q_11 Q_12 Q_13 Q_14 Q_15 Q_16 Q_17 Q_18 Q_19 Q_20 Q_21
1 1 Mg 6.2404 -6.37941e-06 0 1.2 1 0.000727812 0.00431907 0.00130943 0.00485578 0.00139412 0.00561933 0.00214796 0.016365 0.0023103 0.00581237 0.00211658 0.021892 0.0023902 0.0135213 0.00317683 0.0205411 0.00411238 0.0142293 0.00419809 0.0406027
2 1 Mg 3.46349 4.70768 1.4948 1.2 1 0.00148221 0.00370313 0.00156547 0.00448464 0.00187165 0.00612122 0.00350019 0.0186997 0.00284096 0.00689482 0.00270923 0.0255163 0.00296863 0.0138152 0.00425198 0.025329 0.00529873 0.0171336 0.00578194 0.0438529
3 2 Si 5.2885 2.02354 1.4948 2.4 1 0.000868092 0.00383529 0.00196096 0.00466886 0.00188946 0.00579123 0.00244857 0.0170722 0.00238783 0.0060931 0.0020639 0.0230916 0.00270076 0.013573 0.00356271 0.0215749 0.00369149 0.0154153 0.00459617 0.0413525
4 3 O 5.33628 3.63678 1.4948 -1.2 1 0.00134104 0.0032846 0.00164261 0.00476238 0.00212587 0.00629322 0.0028694 0.0176955 0.0022937 0.00662112 0.00183774 0.0250451 0.00245268 0.0136845 0.00421961 0.0242202 0.00479235 0.0164863 0.00583283 0.0429378
5 3 O 1.67294 1.04952 1.4948 -1.2 1 0.00111514 0.00378449 0.00208055 0.00434134 0.00132597 0.00568982 0.00246448 0.0169714 0.00251152 0.00597937 0.00210354 0.0226421 0.00242829 0.0128225 0.0033599 0.0218004 0.00452325 0.0156385 0.00489626 0.0403745
6 3 O 4.59532 1.31737 0.196716 -1.2 1 0.000583655 0.00338992 0.00190064 0.00431353 0.00206079 0.0055468 0.00252275 0.0172209 0.00266764 0.00630614 0.00198697 0.0223944 0.00303935 0.0128539 0.00402176 0.0214136 0.00421245 0.0148854 0.00475511 0.041027
7 1 Mg 6.18956 -6.37941e-06 2.9896 1.2 1 0.000792246 0.0047694 0.00147445 0.00435747 0.00143666 0.00587475 0.00241054 0.015992 0.00271996 0.0053667 0.00181151 0.0221901 0.0026509 0.0132926 0.00370402 0.0204842 0.00428534 0.0147513 0.00512125 0.0389415
8 3 O 4.55118 1.31737 2.79288 -1.2 1 0.00116785 0.00442569 0.00148765 0.00432841 0.00171653 0.00571578 0.00249357 0.0167543 0.00247173 0.00669209 0.00210148 0.0216324 0.00330738 0.0121248 0.00337735 0.0215853 0.00454762 0.015553 0.00528837 0.0399626
9 1 Mg -1.20682 0.0413099 4.4844 1.2 1 0.00132396 0.00315554 0.00158161 0.00486087 0.00135853 0.00570543 0.00198884 0.0161784 0.00238259 0.00569132 0.0020801 0.0225782 0.00278988 0.0113524 0.00361024 0.0205472 0.00512197 0.0156209 0.00535618 0.0389103
10 2 Si -3.0337 2.72544 4.4844 2.4 1 0.00172142 0.00351117 0.00172066 0.00496708 0.00206625 0.00601592 0.00324936 0.0166356 0.003162 0.00613772 0.00231805 0.0240526 0.00324921 0.0130175 0.0042042 0.0225541 0.00520704 0.0175296 0.00619904 0.0402852
11 3 O -3.08099 1.11221 4.4844 -1.2 1 0.00152757 0.00407497 0.00179097 0.00433936 0.00126983 0.00538114 0.00225278 0.016134 0.00295618 0.00547484 0.00210622 0.0222704 0.00317574 0.0112065 0.00383866 0.0211797 0.00478622 0.016148 0.00561486 0.0387981
12 3 O 0.582463 3.69946 4.4844 -1.2 1 0.00186844 0.0048182 0.00200541 0.00439711 0.00230435 0.00671597 0.00343586 0.0172169 0.00339153 0.00681443 0.00300996 0.0247138 0.0040811 0.0126753 0.00435204 0.0247796 0.0067755 0.0187912 0.00815623 0.0422321
13 3 O -2.29524 3.43162 3.18632 -1.2 1 0.00168404 0.00320508 0.00272379 0.00456364 0.00216861 0.00601311 0.00290877 0.0178202 0.00319506 0.0066245 0.00244904 0.0243998 0.00317291 0.0129355 0.00491596 0.0245258 0.00573048 0.0179256 0.00641797 0.0424197
14 3 O -2.34216 3.43162 5.78248 -1.2 1 0.00187192 0.00374839 0.00107856 0.00478994 0.00236597 0.00594598 0.00323898 0.0170807 0.00294564 0.00736307 0.00271251 0.0235878 0.00428948 0.0122897 0.00438063 0.0237272 0.00624152 0.0191141 0.00737785 0.0411588
15 1 Mg 1.12778 2.37449 2.9896 1.2 1 0.0011229 0.00400668 0.00239924 0.00450527 0.00212329 0.00601267 0.00312345 0.0168339 0.00277054 0.00607205 0.00220579 0.0235758 0.00305761 0.0129369 0.00350743 0.022048 0.00475868 0.0166227 0.00545616 0.0412405
16 1 Mg 3.92855 2.33318 4.4844 1.2 1 0.0016238 0.0043605 0.00137194 0.00419731 0.00157044 0.00565057 0.00340614 0.0167912 0.00316736 0.00607468 0.00275109 0.0229228 0.00372606 0.0133369 0.00510843 0.0221821 0.00631676 0.0172186 0.00678779 0.0406411
17 2 Si 2.09341 4.39804 4.4844 2.4 1 0.00210539 0.00444233 0.00187243 0.00430641 0.00278105 0.00604818 0.00368541 0.0183351 0.00345254 0.0069066 0.00316137 0.0248267 0.00435044 0.0139074 0.00460979 0.0249546 0.00666842 0.0184312 0.00826695 0.0439868
18 3 O 2.09991 6.01128 4.4844 -1.2 1 0.00292802 0.0047511 0.00158533 0.00408881 0.00271206 0.00647995 0.00337733 0.0192328 0.00267834 0.00730688 0.00295451 0.0267834 0.00426495 0.0142857 0.00491122 0.0278785 0.00677004 0.0196016 0.00779065 0.0459182
19 3 O -4.52137 3.42402 4.4844 -1.2 1 0.00191409 0.00364324 0.00185054 0.00449629 0.0019999 0.00686803 0.00340021 0.0169629 0.00339079 0.00612467 0.00266831 0.023833 0.0039217 0.0127823 0.00416075 0.0230338 0.00609218 0.0177164 0.0071935 0.0416453
20 3 O 2.80834 3.69187 3.18632 -1.2 1 0.00182976 0.00407792 0.00160062 0.00376579 0.00170103 0.00574287 0.00299367 0.017449 0.00321081 0.00636028 0.00252816 0.0241963 0.0034391 0.0130405 0.00477268 0.0241283 0.00558767 0.0172466 0.00633177 0.0428905
21 1 Mg 1.17857 2.37449 0 1.2 1 0.00145904 0.00394549 0.00210304 0.00424292 0.00153982 0.00541761 0.00247677 0.0173878 0.00244061 0.00657647 0.00251794 0.0230749 0.00261832 0.0132782 0.00358567 0.0216981 0.00450185 0.0149744 0.00496538 0.0410638
22 3 O 2.76143 3.69187 5.78248 -1.2 1 0.00207146 0.00456885 0.00182468 0.00424413 0.00187354 0.00554427 0.00279675 0.0177386 0.00322626 0.00703351 0.00293202 0.0233265 0.00473393 0.0126752 0.00585661 0.0234971 0.00668365 0.0185242 0.00721601 0.0420588
23 1 Mg -1.67381 2.41581 1.4948 1.2 1 0.000658206 0.00321802 0.00262982 0.00490402 0.00134122 0.00602106 0.00243928 0.0167531 0.00270549 0.00615169 0.00192073 0.0239171 0.00230657 0.014154 0.00277596 0.0222683 0.00436826 0.0161455 0.00500103 0.0417308
24 2 Si 0.16286 0.350945 1.4948 2.4 1 0.000909275 0.00330724 0.00265109 0.00472317 0.00131169 0.00627995 0.00284197 0.0164681 0.00225704 0.00511677 0.00192613 0.0225811 0.00222462 0.0134906 0.0030089 0.020599 0.00463654 0.0148229 0.00447892 0.0401892
25 3 O 0.15972 -1.26229 1.4948 -1.2 1 0.000835764 0.00293996 0.00272677 0.00472168 0.00181968 0.0060373 0.00258022 0.0164153 0.00237738 0.0053649 0.0024135 0.0226764 0.00249818 0.0138342 0.00302301 0.0216617 0.00429828 0.0147469 0.00405153 0.0406082
26 3 O 6.77654 1.32496 1.4948 -1.2 1 0.00061766 0.00405691 0.00137999 0.00470107 0.00121544 0.00600377 0.00233266 0.0168096 0.00254934 0.00544457 0.00179567 0.0235611 0.00266586 0.0135782 0.00337378 0.0218591 0.00446823 0.0153158 0.0045806 0.0408915
27 3 O -0.508028 1.05712 0.196716 -1.2 1 0.000638245 0.00325027 0.00312351 0.00434935 0.00136714 0.00558684 0.00248904 0.0172 0.00200606 0.00662525 0.00234058 0.021928 0.00247498 0.0127472 0.00309936 0.0213316 0.00423951 0.0150207 0.00451098 0.0403299
28 3 O -0.552171 1.05712 2.79288 -1.2 1 0.000579323 0.00291114 0.00283946 0.00454166 0.00154378 0.00619258 0.00240307 0.0162688 0.00278325 0.00614707 0.00165458 0.022678 0.00270644 0.0116497 0.00365323 0.0215042 0.00514018 0.0159548 0.00499688 0.0397307
29 1 Mg 6.31713 4.74899 0 1.2 1 0.00115495 0.00307441 0.00180838 0.0047706 0.00229661 0.00617725 0.00341103 0.0179452 0.00277576 0.00700696 0.00221589 0.0250874 0.00270816 0.0138979 0.00431899 0.0248064 0.00490196 0.0164123 0.00611995 0.0429469
30 1 Mg 3.54847 9.45668 1.4948 1.2 1 0.00148856 0.0032704 0.00204495 0.00486314 0.00213091 0.00755075 0.00319019 0.0211207 0.00172667 0.008315 0.00227219 0.0283602 0.00311793 0.0155313 0.00377026 0.0294136 0.00419906 0.0182709 0.00400367 0.0485314
31 2 Si 5.36879 6.77254 1.4948 2.4 1 0.00158842 0.00311831 0.00198514 0.00519349 0.00270184 0.00693803 0.00379271 0.0193756 0.00267043 0.00770371 0.00239373 0.0275055 0.00305508 0.0153405 0.00436038 0.0271837 0.0046014 0.0174175 0.00529327 0.0465761
32 3 O 5.41937 8.38578 1.4948 -1.2 1 0.0017445 0.00304287 0.00183477 0.00509457 0.00213832 0.00771908 0.00320314 0.0207775 0.00224376 0.0083133 0.00247182 0.0288743 0.00230771 0.0156568 0.00333763 0.0292774 0.00461093 0.0175508 0.00493795 0.0480219
33 3 O 1.75158 5.79852 1.4948 -1.2 1 0.00162859 0.00367421 0.00191046 0.00414765 0.00219282 0.00599905 0.00323969 0.019432 0.00282059 0.00717912 0.0026172 0.0276704 0.0028297 0.015491 0.00366347 0.0271355 0.00533715 0.0176954 0.00552139 0.0457778
34 3 O 4.67421 6.06637 0.196716 -1.2 1 0.00120109 0.00340909 0.00165389 0.00497028 0.00190688 0.0069538 0.00300897 0.0196194 0.002461 0.00807119 0.00205027 0.0260547 0.00349482 0.0144117 0.00439914 0.0268087 0.00470556 0.0169497 0.00569307 0.0451848
35 1 Mg 6.26654 4.74899 2.9896 1.2 1 0.0021231 0.00343469 0.00200409 0.00494166 0.00247492 0.00651992 0.00373472 0.0179385 0.00377088 0.00705497 0.00219571 0.0259104 0.00376506 0.0144677 0.00505083 0.0252239 0.00568038 0.0177181 0.0067744 0.0440442
36 3 O 4.63043 6.06637 2.79288 -1.2 1 0.00258647 0.00358297 0.00157755 0.00490588 0.0019953 0.00684392 0.00328326 0.0193138 0.0032591 0.00768575 0.00222896 0.0260707 0.00365278 0.0144841 0.00435982 0.0276414 0.00579649 0.0183067 0.00700773 0.0455896
37 1 Mg -1.12976 4.79031 4.4844 1.2 1 0.00221562 0.00403563 0.00187021 0.00475952 0.00240492 0.00614986 0.00335352 0.0179135 0.00338492 0.00708102 0.00288438 0.0259694 0.00413805 0.0142474 0.00465041 0.0262252 0.00734365 0.0192019 0.00791007 0.0445774
38 2 Si -2.9517 7.47444 4.4844 2.4 1 0.00302952 0.0038933 0.00119719 0.00500107 0.00284621 0.00649006 0.00384475 0.0203121 0.00338953 0.00798165 0.00282374 0.027441 0.00438118 0.0157733 0.00541318 0.0284375 0.00697795 0.0192406 0.00822193 0.0479695
39 3 O -3.00198 5.86121 4.4844 -1.2 1 0.00280662 0.00420675 0.00118991 0.00492009 0.00298429 0.0063257 0.00417647 0.0187827 0.00366592 0.00770475 0.00247477 0.0258197 0.00447211 0.014069 0.00479682 0.0273333 0.00678946 0.0196636 0.00815913 0.045818
40 3 O 0.666315 8.44846 4.4844 -1.2 1 0.00319133 0.00480602 0.00120109 0.00487772 0.00277648 0.00733707 0.00293512 0.0210828 0.00300912 0.00785248 0.00323988 0.0281469 0.00433549 0.0157573 0.00463283 0.0295578 0.00659151 0.0197294 0.00785372 0.0486616
41 3 O -2.21213 8.18062 3.18632 -1.2 1 0.0027128 0.00403128 0.00146083 0.00449189 0.00245681 0.00626061 0.0028793 0.0206257 0.00273201 0.00806767 0.00278759 0.0276245 0.00420372 0.0158458 0.00503209 0.0291771 0.00586557 0.0187684 0.00665099 0.0486427
42 3 O -2.25864 8.18062 5.78248 -1.2 1 0.00345987 0.00450947 0.00130232 0.00447993 0.00287464 0.00589441 0.00300965 0.0205979 0.00255646 0.00834878 0.003438 0.0267954 0.00429839 0.0162688 0.005866 0.0297054 0.00722851 0.0208489 0.00798849 0.0495032
43 1 Mg 1.20893 7.12349 2.9896 1.2 1 0.002189 0.00402729 0.00188248 0.00448475 0.00265593 0.00672936 0.00381417 0.0195359 0.00283619 0.00800549 0.00275325 0.0278214 0.00344515 0.0157143 0.00409967 0.0278193 0.00569186 0.0184673 0.0061439 0.0468814
44 1 Mg 4.00982 7.08218 4.4844 1.2 1 0.00294616 0.00406762 0.00141093 0.00478136 0.00234299 0.00646453 0.00381508 0.0199699 0.00340105 0.007563 0.00313075 0.027363 0.00416499 0.0163809 0.00583417 0.0284607 0.00713524 0.0193051 0.00794689 0.0475062
45 2 Si 2.17861 9.14704 4.4844 2.4 1 0.00304991 0.0040806 0.00146916 0.00492299 0.00260623 0.00727982 0.00363011 0.0209917 0.00283052 0.00801923 0.0030618 0.0280377 0.00459426 0.0163477 0.00472018 0.0297696 0.00609352 0.0195526 0.0068636 0.0501931
46 3 O 2.18828 10.7603 4.4844 -1.2 1 0.00372785 0.00428692 0.00158507 0.00450496 0.00255806 0.00685954 0.00289513 0.020775 0.0024849 0.00804837 0.00220738 0.0286329 0.00407723 0.0155866 0.00437504 0.0307358 0.00601653 0.0198321 0.00648087 0.0507956
47 3 O -4.43805 8.17302 4.4844 -1.2 1 0.00270136 0.00430572 0.00146999 0.0051609 0.00246111 0.00753808 0.00324209 0.0206686 0.00327252 0.00823295 0.0030323 0.0284343 0.00448765 0.0158438 0.00520459 0.0297261 0.00689805 0.0195469 0.00876294 0.0487255
48 3 O 2.89193 8.44087 3.18632 -1.2 1 0.00280792 0.00366299 0.00164339 0.00445637 0.00225375 0.00683853 0.00338402 0.0205163 0.00292993 0.00847187 0.00272709 0.0273058 0.00372428 0.0156421 0.00498255 0.0293624 0.00612444 0.0188792 0.00577746 0.0485841
49 1 Mg 1.25915 7.12349 0 1.2 1 0.00057827 0.00336861 0.00150871 0.00445236 0.00178485 0.00725563 0.00293969 0.0201339 0.00285339 0.00808573 0.00243214 0.0274358 0.00336744 0.0144208 0.00351364 0.0277437 0.0048144 0.0177366 0.00477823 0.0460695
50 3 O 2.84547 8.44087 5.78248 -1.2 1 0.0036113 0.00480313 0.00144071 0.00465253 0.00246676 0.00657609 0.00338448 0.0209434 0.00298705 0.00877995 0.00333887 0.0269568 0.00539619 0.0161666 0.00541279 0.0303132 0.00642849 0.0214 0.00752704 0.0499299
51 1 Mg -1.59284 7.16481 1.4948 1.2 1 0.00134047 0.00352607 0.00151448 0.00473608 0.00164077 0.00640764 0.00273632 0.0197764 0.00289996 0.00783071 0.00173587 0.0275352 0.00319602 0.0155834 0.00380977 0.0274836 0.00470675 0.017701 0.00563363 0.0466994
52 2 Si 0.240329 5.09994 1.4948 2.4 1 0.00136197 0.00407915 0.0021523 0.00430005 0.00174239 0.00674663 0.00310418 0.0188501 0.0030976 0.00721551 0.00220401 0.0258178 0.00272562 0.0145944 0.00419946 0.0250752 0.00506465 0.0170581 0.00541576 0.0447698
53 3 O 0.234538 3.48671 1.4948 -1.2 1 0.00147749 0.00402879 0.0026847 0.0044266 0.00182922 0.00647768 0.00264915 0.0179007 0.00329999 0.006872 0.00230921 0.024385 0.00303255 0.0136665 0.00402371 0.0241444 0.00539012 0.0161172 0.00558807 0.0426782
54 3 O 6.85564 6.07396 1.4948 -1.2 1 0.00191857 0.00302558 0.00228427 0.00489134 0.00246843 0.0062231 0.0031894 0.019792 0.0030768 0.0074874 0.00210328 0.027527 0.00309049 0.0147712 0.0048943 0.0271282 0.00553556 0.0177261 0.00620633 0.0455504
55 3 O -0.429565 5.80612 0.196716 -1.2 1 0.00109249 0.00372171 0.00235851 0.00434095 0.00176428 0.00714735 0.00261244 0.0194455 0.00274946 0.00830904 0.00246093 0.0256244 0.00262723 0.0141722 0.00388167 0.0260685 0.00518176 0.0169685 0.00592954 0.045236
56 3 O -0.473377 5.80612 2.79288 -1.2 1 0.00225826 0.00360557 0.00191427 0.00449573 0.00236318 0.00667044 0.00317458 0.0190952 0.00290446 0.00784276 0.00292466 0.0257538 0.00358595 0.0144014 0.00472088 0.0267847 0.00639177 0.0184153 0.00670191 0.0459594
57 1 Mg 6.40169 9.49799 0 1.2 1 0.000353098 0.00384499 0.00172384 0.00487667 0.00148282 0.00824215 0.00200855 0.0208926 0.00169482 0.00888197 0.00176886 0.0288292 0.00241392 0.014697 0.0028156 0.0299717 0.00388538 0.0180027 0.00403516 0.0475831
58 1 Mg 3.64209 14.2057 1.4948 1.2 1 0.00193985 0.00317986 0.00167326 0.00466864 0.00165873 0.00865016 0.00170347 0.0216705 0.00161833 0.00884159 0.00220485 0.0283554 0.00259695 0.0159958 0.00299873 0.0296456 0.00354322 0.0170442 0.00319182 0.0492707
59 2 Si 5.45748 11.5215 1.4948 2.4 1 0.00177315 0.00312338 0.00181312 0.00485667 0.00162836 0.00813153 0.00205385 0.0211246 0.00162779 0.00830232 0.00181235 0.0288337 0.00270331 0.0161593 0.00363969 0.0292865 0.00404144 0.0170063 0.00358281 0.0491512
60 3 O 5.51101 13.1348 1.4948 -1.2 1 0.00210155 0.00316776 0.00180409 0.00479734 0.00144634 0.00898367 0.00168979 0.0212768 0.00177064 0.00863864 0.00170152 0.0295503 0.00226044 0.0160933 0.00307945 0.0299041 0.00381883 0.0166391 0.00339543 0.0489514
61 3 O 1.83851 10.5475 1.4948 -1.2 1 0.00129935 0.00358965 0.00180654 0.00511047 0.00170154 0.00769962 0.00243561 0.0215558 0.00177607 0.0083696 0.00217697 0.0293257 0.00262422 0.0157676 0.00343355 0.0299723 0.0041495 0.0179495 0.00333357 0.0491859
62 3 O 4.7611 10.8154 0.196716 -1.2 1 0.000634779 0.00308538 0.00198274 0.00486594 0.00146116 0.00847128 0.00212281 0.021267 0.00146282 0.0087687 0.00183236 0.028301 0.00297901 0.0155097 0.00409318 0.0295873 0.00373723 0.017192 0.00358413 0.0484727
63 1 Mg 6.35203 9.49799 2.9896 1.2 1 0.00231993 0.00351632 0.00162931 0.00485425 0.0025294 0.00742291 0.00333945 0.0203378 0.00308437 0.008577 0.00205581 0.0291283 0.0036076 0.0161701 0.00347658 0.0294753 0.00441436 0.0182688 0.00556944 0.0487425
64 3 O 4.71833 10.8154 2.79288 -1.2 1 0.0029381 0.00337981 0.00164546 0.00474343 0.00212273 0.00804531 0.00224839 0.0212753 0.00197607 0.00894378 0.0020466 0.0282917 0.00357134 0.0158177 0.00418857 0.0303262 0.00520417 0.018439 0.00536298 0.0499178
65 1 Mg -1.0438 9.53931 4.4844 1.2 1 0.00334055 0.00463314 0.00138223 0.00438045 0.00288984 0.00651212 0.00252646 0.0210504 0.00284964 0.00858037 0.00276425 0.0281101 0.00370528 0.0164679 0.00470367 0.0300069 0.00660459 0.0199664 0.00702353 0.049994
66 2 Si -2.8604 12.2234 4.4844 2.4 1 0.00335836 0.00422266 0.00174412 0.00430309 0.00268916 0.00750298 0.00310777 0.0218036 0.00280094 0.00847828 0.00220168 0.028168 0.0038819 0.0165273 0.00452351 0.0299899 0.00573092 0.01938 0.00643346 0.0514605
67 3 O -2.91391 10.6102 4.4844 -1.2 1 0.0035414 0.00439348 0.0015593 0.00424041 0.00276183 0.00680882 0.00319804 0.0205785 0.00269154 0.00784327 0.0019685 0.0284941 0.00399775 0.0156669 0.00448761 0.0307864 0.00600342 0.0196246 0.00689546 0.0504683
68 3 O 0.7596 13.1975 4.4844 -1.2 1 0.0036204 0.00421053 0.00152975 0.00483326 0.00280584 0.00832908 0.00264925 0.0221901 0.00264437 0.00819661 0.00276268 0.0287084 0.00399541 0.0161462 0.00417879 0.0302549 0.0060238 0.0195086 0.00641763 0.0511962
69 3 O -2.12001 12.9296 3.18632 -1.2 1 0.00329668 0.00393235 0.00155308 0.00421137 0.00243319 0.00729967 0.00227009 0.0218604 0.00229623 0.00849381 0.00239892 0.0280697 0.00365567 0.016204 0.00461961 0.0305025 0.00513327 0.0185118 0.0052619 0.0506462
70 3 O -2.16532 12.9296 5.78248 -1.2 1 0.00407706 0.00482487 0.00141598 0.00410131 0.00280162 0.00644878 0.00245079 0.021974 0.00244258 0.00789933 0.00248081 0.0277175 0.00393192 0.0164702 0.00486987 0.0311292 0.00630882 0.0211891 0.0067569 0.0526465
71 1 Mg 1.29891 11.8725 2.9896 1.2 1 0.00248017 0.00359325 0.00163789 0.00483844 0.00233909 0.00791315 0.00279942 0.0210202 0.00253105 0.00849297 0.00207061 0.0290555 0.00332778 0.016125 0.00358577 0.0299637 0.00452291 0.0180283 0.00471666 0.0496382
72 1 Mg 4.10033 11.8312 4.4844 1.2 1 0.00361182 0.00388996 0.00168772 0.00443643 0.00240706 0.00714997 0.00261721 0.021259 0.00255914 0.0080212 0.00267463 0.0287183 0.00368463 0.0170313 0.00533147 0.0305744 0.00657301 0.0194866 0.00625127 0.0510048
73 2 Si 2.27333 13.896 4.4844 2.4 1 0.00366849 0.00372011 0.00131826 0.00482965 0.00287021 0.0076912 0.00297389 0.021758 0.00234934 0.00827695 0.00287304 0.0283005 0.00387602 0.0165812 0.00464123 0.0299557 0.0056394 0.0189387 0.00582035 0.0520252
74 3 O 2.28634 15.5093 4.4844 -1.2 1 0.00386434 0.00400798 0.00147677 0.00436036 0.00301848 0.00718481 0.00280103 0.0210914 0.00247777 0.00754468 0.00217146 0.0287752 0.00357316 0.0158793 0.00400936 0.0304458 0.00560201 0.0189879 0.00603683 0.051574
75 3 O -4.34533 12.922 4.4844 -1.2 1 0.00336359 0.00440223 0.00156736 0.00443608 0.00260567 0.00828726 0.00280483 0.0218189 0.00275336 0.00808942 0.00241999 0.0287124 0.00386107 0.0161162 0.00483076 0.0302457 0.00627006 0.0197784 0.0069338 0.051202
76 3 O 2.98455 13.1899 3.18632 -1.2 1 0.00328415 0.00352078 0.00142888 0.00439763 0.00238241 0.00771681 0.00204299 0.0217617 0.00215944 0.00858229 0.00238911 0.0280453 0.00350546 0.0158698 0.00450323 0.0301056 0.00568631 0.0185355 0.00537742 0.0504073
77 1 Mg 1.34779 11.8725 0 1.2 1 0.000673119 0.00328639 0.00135406 0.00505925 0.00143678 0.00884875 0.00154591 0.0212561 0.0012492 0.0090787 0.00191892 0.0290901 0.00277038 0.0147906 0.00311528 0.0302264 0.00343936 0.0172589 0.00325454 0.0479523
78 3 O 2.93934 13.1899 5.78248 -1.2 1 0.00417381 0.00453233 0.00147974 0.00455652 0.00271648 0.00680583 0.00265139 0.0218111 0.00252934 0.00819083 0.00287159 0.0274711 0.00400863 0.0164202 0.00473675 0.0310991 0.00611505 0.0213445 0.00642953 0.0527441
79 1 Mg -1.50344 11.9138 1.4948 1.2 1 0.00148603 0.00353505 0.00140466 0.00470525 0.00146925 0.00815614 0.00169279 0.0216926 0.00227977 0.00855047 0.00154441 0.0288067 0.00351557 0.0160867 0.00348703 0.0298088 0.00357926 0.0176111 0.00365014 0.049072
80 2 Si 0.326006 9.84894 1.4948 2.4 1 0.00103389 0.00356401 0.00126525 0.00515553 0.00184135 0.0081343 0.00212041 0.0210985 0.00213136 0.00840113 0.00160407 0.0284816 0.00298268 0.0157073 0.00374476 0.0290441 0.00389159 0.0177811 0.00340698 0.0485029
81 3 O 0.317364 8.23571 1.4948 -1.2 1 0.00176573 0.00367055 0.00121314 0.00464029 0.00178941 0.00772152 0.00216221 0.0202686 0.00253722 0.0079879 0.00190741 0.0285766 0.00337818 0.0156757 0.00392908 0.0288755 0.00450249 0.0178341 0.00436347 0.0476229
82 3 O 6.94307 10.823 1.4948 -1.2 1 0.00169703 0.00365292 0.00164449 0.00464273 0.00168114 0.00764659 0.00250977 0.0217586 0.00234774 0.00842424 0.00148894 0.0294673 0.00295184 0.0158915 0.00342213 0.030087 0.0038299 0.0178951 0.00399546 0.0491559
83 3 O -0.343122 10.5551 0.196716 -1.2 1 0.000696219 0.00325113 0.00118948 0.00499087 0.00155213 0.00858854 0.00174949 0.0213432 0.00165372 0.00894152 0.00198407 0.0282058 0.00329336 0.0153437 0.00421877 0.0295697 0.00368773 0.0175209 0.00357444 0.0483065
84 3 O -0.385966 10.5551 2.79288 -1.2 1 0.0029077 0.00383779 0.00116097 0.00461313 0.00239976 0.00791142 0.00207926 0.0214923 0.00194906 0.00906125 0.00241653 0.0277697 0.00372272 0.0158574 0.004111 0.0301429 0.00518592 0.0187484 0.00500717 0.0498932
85 1 Mg 6.49448 14.247 0 1.2 1 0.000925061 0.00329651 0.00169853 0.00478466 0.000997419 0.00905069 0.00128692 0.0213641 0.00117545 0.00874967 0.00154075 0.0288195 0.00180541 0.0155465 0.00256383 0.0300276 0.00317011 0.016481 0.00291708 0.0479372
86 1 Mg 3.74457 18.9547 1.4948 1.2 1 0.00211851 0.00308141 0.00131107 0.00406344 0.00176859 0.00850865 0.00129897 0.0223245 0.00173436 0.00821289 0.00236259 0.0278908 0.00262772 0.0164886 0.00352441 0.0288112 0.00358565 0.0165835 0.00317874 0.0496651
87 2 Si 5.55495 16.2705 1.4948 2.4 1 0.00224963 0.00281518 0.00138645 0.00453822 0.0017487 0.00874043 0.00131849 0.0214793 0.001262 0.00801668 0.00138513 0.0288772 0.0024266 0.0161756 0.00315538 0.028939 0.00382339 0.0159909 0.00350715 0.0491159
88 3 O 5.6115 17.8838 1.4948 -1.2 1 0.00244354 0.00310005 0.00158149 0.00432417 0.00171704 0.00910101 0.00149218 0.0217341 0.00164277 0.00794106 0.00141726 0.0289318 0.00223759 0.0163881 0.002849 0.0289929 0.00339247 0.0159553 0.00341814 0.0491858
89 3 O 1.93416 15.2965 1.4948 -1.2 1 0.00207436 0.00314393 0.00155936 0.0047042 0.00190192 0.00820208 0.00205519 0.0219621 0.00179956 0.00815495 0.00147715 0.0291298 0.00226637 0.0161934 0.00305917 0.0297396 0.00376524 0.0166176 0.00313852 0.0495873
90 3 O 4.85636 15.5644 0.196716 -1.2 1 0.00156574 0.0026481 0.00158297 0.00468023 0.00120608 0.00897203 0.00138105 0.021476 0.000919759 0.00839783 0.00179609 0.0281839 0.0025971 0.0160094 0.00360087 0.0293335 0.00333918 0.0158859 0.00302087 0.0485859
91 1 Mg 6.44662 14.247 2.9896 1.2 1 0.00223113 0.00361242 0.00143871 0.00441955 0.00241198 0.00832878 0.0027695 0.0209218 0.00248399 0.0086662 0.00169965 0.0294104 0.0030528 0.0162712 0.00315566 0.0296579 0.00415638 0.0175627 0.00438628 0.0497249
92 3 O 4.81537 15.5644 2.79288 -1.2 1 0.0029008 0.00325303 0.00138764 0.00432294 0.0023054 0.00863372 0.00176315 0.0219341 0.00159441 0.00859014 0.00188818 0.0281798 0.00288702 0.0163435 0.00368689 0.0295562 0.00480567 0.0173024 0.00461816 0.0501588
93 1 Mg -0.948271 14.2883 4.4844 1.2 1 0.00378529 0.0039 0.00147662 0.00423972 0.00269702 0.0075323 0.00261028 0.0217176 0.00266415 0.00828968 0.00281898 0.0285695 0.00339206 0.0168035 0.00497874 0.0302443 0.00580959 0.0190331 0.00603316 0.0516505
94 2 Si -2.75928 16.9724 4.4844 2.4 1 0.00332049 0.00379083 0.00153454 0.00442939 0.00276632 0.00770303 0.00282478 0.0220322 0.00253792 0.00776074 0.00266045 0.0280309 0.00370689 0.0168654 0.00469561 0.0293293 0.00507067 0.0184538 0.0053949 0.0520476
95 3 O -2.81617 15.3592 4.4844 -1.2 1 0.00379836 0.00406866 0.00165445 0.00414513 0.0029465 0.00737553 0.00298836 0.0211551 0.00254713 0.00750195 0.00229916 0.028846 0.00354445 0.0158393 0.00428329 0.0302277 0.00584767 0.0186867 0.0061305 0.0513691
96 3 O 0.862762 17.9465 4.4844 -1.2 1 0.00340168 0.00405804 0.00129796 0.00448601 0.003144 0.00832814 0.00268414 0.0224367 0.0024691 0.00781556 0.00279444 0.0287274 0.00399845 0.0167871 0.00449768 0.0292113 0.0056006 0.0189123 0.00569279 0.051745
97 3 O -2.0185 17.6786 3.18632 -1.2 1 0.0032206 0.00336103 0.00179009 0.00384007 0.00271496 0.00751076 0.00236091 0.0222914 0.00223889 0.00779808 0.00212727 0.0278673 0.00362639 0.0164369 0.00451688 0.0297473 0.00474845 0.0177037 0.00485748 0.0510961
98 3 O -2.06164 17.6786 5.78248 -1.2 1 0.00400138 0.00423858 0.00143414 0.00435169 0.00292929 0.00657622 0.00250584 0.0222635 0.00232435 0.007682 0.00252461 0.0276478 0.00360262 0.0168805 0.00469224 0.0305234 0.00576058 0.0204807 0.00598483 0.0531757
99 1 Mg 1.39817 16.6215 2.9896 1.2 1 0.00268417 0.00336707 0.00146895 0.00452423 0.00270526 0.00821819 0.00262157 0.0213822 0.00247312 0.00813019 0.00212264 0.0288142 0.00288003 0.0165898 0.00353105 0.0293644 0.00419075 0.0168233 0.0040932 0.0500723
100 1 Mg 4.20062 16.5802 4.4844 1.2 1 0.00329269 0.00357957 0.00163862 0.00417659 0.00266655 0.00765027 0.00240258 0.0217222 0.00292299 0.00763191 0.00276192 0.0286715 0.00355139 0.0171844 0.0056243 0.029709 0.00619962 0.0187441 0.00574722 0.0514188
101 2 Si 2.37796 18.645 4.4844 2.4 1 0.00290019 0.00352577 0.00131584 0.00439046 0.00302037 0.00787731 0.00278903 0.0225282 0.00236913 0.00788751 0.00268013 0.0280751 0.00378937 0.0171719 0.00465369 0.0292642 0.00508863 0.0182946 0.00533404 0.0522599
102 3 O 2.39434 20.2583 4.4844 -1.2 1 0.00311704 0.00383578 0.00122141 0.00412389 0.0029299 0.00689673 0.00260771 0.0215835 0.00254976 0.0073525 0.001954 0.0286704 0.00360473 0.0167641 0.00421689 0.0297971 0.00556019 0.0182309 0.00610662 0.0518215
103 3 O -4.24274 17.671 4.4844 -1.2 1 0.00285538 0.0039351 0.00151514 0.00428659 0.0027654 0.00847174 0.0026319 0.0224222 0.00264319 0.00779759 0.00233135 0.0285312 0.00347617 0.0163954 0.004776 0.0297477 0.00582688 0.0190898 0.00611299 0.0515928
104 3 O 3.08659 17.9389 3.18632 -1.2 1 0.00283519 0.00308959 0.00139026 0.00401878 0.00271382 0.00776371 0.00203329 0.0220916 0.00216861 0.00799858 0.00238041 0.027855 0.00332461 0.0165573 0.0042988 0.0294374 0.00519518 0.017503 0.00501537 0.0508313
105 1 Mg 1.44478 16.6215 0 1.2 1 0.00195964 0.00281689 0.00114919 0.00451715 0.00126506 0.00887757 0.00119871 0.021415 0.00132097 0.00827468 0.00147615 0.0287183 0.00222753 0.0156137 0.00251216 0.0293561 0.00299889 0.0160396 0.00291305 0.0483663
106 3 O 3.0436 17.9389 5.78248 -1.2 1 0.00371152 0.00412383 0.00128149 0.00435795 0.00278343 0.00686938 0.00232317 0.0222271 0.00210695 0.00768436 0.00287856 0.0276922 0.00393269 0.0168599 0.00510476 0.0304541 0.00583109 0.0205382 0.00609269 0.0534729
107 1 Mg -1.40524 16.6628 1.4948 1.2 1 0.00187508 0.00311831 0.00123086 0.00452815 0.00161312 0.00860039 0.001745 0.0222027 0.0018951 0.00820083 0.00188261 0.0283714 0.00318213 0.0165893 0.00317956 0.0292796 0.00287415 0.0166132 0.00307911 0.0492249
108 2 Si 0.420358 14.5979 1.4948 2.4 1 0.00198323 0.00306528 0.0014907 0.00498794 0.00203447 0.00892664 0.00183349 0.0214219 0.00162577 0.00832101 0.0015921 0.0285607 0.00300194 0.0163142 0.00369361 0.0288805 0.00348835 0.0164598 0.0031805 0.0490828
109 3 O 0.408732 12.9847 1.4948 -1.2 1 0.00179445 0.0031281 0.00132429 0.00497364 0.00196329 0.00896205 0.00147009 0.0212379 0.00208153 0.00843139 0.00152929 0.0291469 0.00307463 0.0159919 0.0032041 0.0298297 0.00338149 0.016929 0.0035389 0.0490596
110 3 O 7.03923 15.572 1.4948 -1.2 1 0.00191502 0.00326935 0.00145465 0.00451343 0.00195368 0.00815543 0.00216211 0.0218218 0.00211251 0.008084 0.00160359 0.0292968 0.00265691 0.016202 0.00316033 0.0296713 0.0034521 0.0168225 0.00348389 0.0493224
111 3 O -0.248332 15.3041 0.196716 -1.2 1 0.00174896 0.00287339 0.00124277 0.0047698 0.00112465 0.00902073 0.00169113 0.0213713 0.00125097 0.00848602 0.00176164 0.0281287 0.00288979 0.0157199 0.00389115 0.0292624 0.00314625 0.0161176 0.00307678 0.0485199
112 3 O -0.289436 15.3041 2.79288 -1.2 1 0.00328171 0.0035874 0.00119117 0.00440982 0.00255125 0.00845286 0.00196774 0.0220438 0.00183158 0.00875138 0.0020921 0.0277524 0.00318698 0.0164665 0.00384159 0.0296315 0.00451878 0.0175423 0.00423007 0.0501526
113 1 Mg 6.59566 18.996 0 1.2 1 0.00124938 0.00319951 0.00151622 0.00427036 0.000966338 0.00852786 0.00102391 0.0220871 0.00116096 0.00796577 0.00133516 0.0282895 0.00205203 0.0162323 0.00232901 0.0287792 0.00290802 0.0159527 0.00300772 0.048389
114 1 Mg 3.85574 23.7037 1.4948 1.2 1 0.00154358 0.00247657 0.00131138 0.00411168 0.00181495 0.00744668 0.00126719 0.0232058 0.00151628 0.0075724 0.00225025 0.0274368 0.00254105 0.0174717 0.0035421 0.0284207 0.00329332 0.0173306 0.00356153 0.0505053
115 2 Si 5.66125 21.0195 1.4948 2.4 1 0.00194181 0.00266217 0.00121673 0.00421044 0.00190319 0.00817256 0.00151293 0.0219365 0.0011801 0.0075451 0.00156076 0.0282684 0.00265057 0.0171759 0.00285029 0.0281487 0.003442 0.0159036 0.00396958 0.0499443
116 3 O 5.72074 22.6328 1.4948 -1.2 1 0.00190049 0.00255374 0.0016411 0.00407562 0.00198129 0.00826694 0.00164669 0.0224361 0.00159421 0.0072818 0.00134558 0.0282689 0.00230984 0.017215 0.00290768 0.0283592 0.00318621 0.0164 0.00367357 0.049966
117 3 O 2.03867 20.0455 1.4948 -1.2 1 0.00170449 0.00308585 0.00138412 0.00425829 0.00179755 0.0078373 0.00197511 0.0223987 0.00206405 0.00755247 0.00150451 0.0286789 0.00240432 0.017207 0.0027455 0.0289469 0.00347647 0.0162207 0.00330737 0.0500874
118 3 O 4.96004 20.3134 0.196716 -1.2 1 0.00160908 0.0026361 0.00142956 0.00418334 0.00118442 0.00835844 0.00105376 0.0219654 0.000912817 0.00765926 0.00166828 0.0277372 0.00269277 0.0163559 0.00372892 0.0287061 0.00310125 0.0154793 0.00308878 0.0490184
119 1 Mg 6.55057 18.996 2.9896 1.2 1 0.00196944 0.00333724 0.00140658 0.00423055 0.00260969 0.00822308 0.00279733 0.0214558 0.00237824 0.00781302 0.00165475 0.0291272 0.00314143 0.0168656 0.00304677 0.028698 0.0038679 0.0171013 0.00439764 0.0501736