ITEM: TIMESTEP
45100
ITEM: NUMBER OF ATOMS
10500
ITEM: BOX BOUNDS xy xz yz pp pp pp
0	15.2977	5.09925
0	118.725	0
0	89.688	0
ITEM: ATOMS id type element xu yu zu q Q_1 Q_2 Q_3 Q_4 Q_5 Q_6 Q_7 Q_8 Q_9 Q_10 Q_11 Q_12 Q_13 Q_14 Q_15 Q_16 Q_17 Q_18 Q_19 Q_20 Q_21
1 1 Mg 6.2404 -6.37941e-06 0 1.2 1 0.000704419 0.00422203 0.00110576 0.00485608 0.00110498 0.00558453 0.00214771 0.0160655 0.00224595 0.00573041 0.00222852 0.0218214 0.00257643 0.0134856 0.00349332 0.0207754 0.00418013 0.0142158 0.00420556 0.0406969
2 1 Mg 3.46349 4.70768 1.4948 1.2 1 0.00153274 0.00337153 0.00153762 0.00444026 0.0019526 0.00614249 0.0035966 0.018498 0.00285091 0.00680915 0.00286268 0.0256679 0.00318902 0.0138979 0.00443576 0.0253926 0.005167 0.0168851 0.00562758 0.044034
3 2 Si 5.2885 2.02354 1.4948 2.4 1 0.00063987 0.00329849 0.00182568 0.00465142 0.00179075 0.00569767 0.0025007 0.0169959 0.00240415 0.00608251 0.00206668 0.0232342 0.00279402 0.0134497 0.00364558 0.0216675 0.00382176 0.0152353 0.00441905 0.041391
4 3 O 5.33628 3.63678 1.4948 -1.2 1 0.000963241 0.00283178 0.0013743 0.00478834 0.00212872 0.00632312 0.00300931 0.0177122 0.00232328 0.00659971 0.00190168 0.0250522 0.002545 0.0136002 0.00426819 0.0241654 0.0048605 0.0162134 0.00579593 0.0428963
5 3 O 1.67294 1.04952 1.4948 -1.2 1 0.00113004 0.00341916 0.00196937 0.00421936 0.00125488 0.0056146 0.00235448 0.0168147 0.00235404 0.0060228 0.00218227 0.0228478 0.00269136 0.0126504 0.00354123 0.0220516 0.00465668 0.0154708 0.00466229 0.040485
6 3 O 4.59532 1.31737 0.196716 -1.2 1 0.000500638 0.00316864 0.0018886 0.00436874 0.00187147 0.00550362 0.00248116 0.0170694 0.00276955 0.00619956 0.00205233 0.0223931 0.00336716 0.012796 0.00427246 0.0216438 0.00426209 0.0149092 0.00468236 0.0410001
7 1 Mg 6.18956 -6.37941e-06 2.9896 1.2 1 0.00078128 0.00442246 0.00150434 0.00430142 0.00107286 0.00545594 0.0026216 0.015999 0.00274485 0.00561081 0.00199207 0.0225441 0.00285567 0.0131893 0.00371787 0.0207923 0.00452689 0.0144602 0.00500861 0.039332
8 3 O 4.55118 1.31737 2.79288 -1.2 1 0.00109834 0.00412268 0.00180868 0.00422675 0.00176387 0.00575837 0.00252263 0.0167273 0.00238629 0.00671343 0.00230963 0.0218603 0.00332665 0.0120864 0.00316301 0.0217044 0.00468578 0.0150975 0.00518528 0.0403
9 1 Mg -1.20682 0.0413099 4.4844 1.2 1 0.000562419 0.00281255 0.00202396 0.00440314 0.00132398 0.00533852 0.00215336 0.0161848 0.00216671 0.00580806 0.00198525 0.0225848 0.00317479 0.0114732 0.00375488 0.0207187 0.0052789 0.0153337 0.00519475 0.0390684
10 2 Si -3.0337 2.72544 4.4844 2.4 1 0.00107645 0.00320751 0.00203479 0.00487612 0.00214807 0.00593642 0.00335941 0.01652 0.0031337 0.00608673 0.0023664 0.023819 0.00339752 0.0128343 0.00410897 0.022379 0.00509655 0.0171722 0.00623351 0.03961
11 3 O -3.08099 1.11221 4.4844 -1.2 1 0.000933328 0.0034681 0.00200598 0.00419433 0.00126232 0.00517897 0.00256776 0.0161372 0.00287691 0.00555324 0.00215301 0.0224052 0.00326453 0.0112315 0.00377712 0.0213056 0.00495333 0.0155824 0.00553372 0.0389248
12 3 O 0.582463 3.69946 4.4844 -1.2 1 0.00200385 0.00473605 0.00192126 0.00437613 0.00255594 0.00650246 0.00350748 0.0171397 0.00345266 0.00665117 0.00306198 0.024342 0.0040774 0.0126889 0.00424339 0.0242715 0.00622283 0.0182504 0.00803932 0.0418629
13 3 O -2.29524 3.43162 3.18632 -1.2 1 0.00135348 0.00301513 0.00269467 0.00454167 0.00224309 0.00582084 0.00300643 0.0176549 0.00322822 0.00656903 0.00293386 0.0242902 0.00324309 0.0129195 0.00483739 0.0243206 0.00572776 0.0175908 0.00656785 0.0421452
14 3 O -2.34216 3.43162 5.78248 -1.2 1 0.00195377 0.00373188 0.00129048 0.00465628 0.00240099 0.00570181 0.00319523 0.0167395 0.00308716 0.00671598 0.00265164 0.0230112 0.00423468 0.0120981 0.00416128 0.0234095 0.00605385 0.0187089 0.00762027 0.0402261
15 1 Mg 1.12778 2.37449 2.9896 1.2 1 0.00147603 0.0036927 0.00214159 0.00434816 0.00199481 0.00580949 0.00312381 0.0165273 0.00273373 0.00616938 0.0023328 0.0235772 0.00328259 0.012855 0.0034712 0.0221349 0.00456494 0.0161967 0.00528835 0.0411232
16 1 Mg 3.92855 2.33318 4.4844 1.2 1 0.00131442 0.00398926 0.00170232 0.00419255 0.00169225 0.0055508 0.00352071 0.0166146 0.00329119 0.00607965 0.00307944 0.0227275 0.00383167 0.0130389 0.00527322 0.0221323 0.00610182 0.0164355 0.00708466 0.040394
17 2 Si 2.09341 4.39804 4.4844 2.4 1 0.00204751 0.00437769 0.00175034 0.004208 0.00304154 0.00575205 0.00375461 0.0178833 0.00346599 0.00676096 0.0031697 0.0245508 0.00450873 0.0139114 0.00447244 0.0247712 0.00630319 0.0180173 0.00803156 0.0435468
18 3 O 2.09991 6.01128 4.4844 -1.2 1 0.00298991 0.00466617 0.00131996 0.00403341 0.00288333 0.00645764 0.00316249 0.018736 0.00279149 0.00718923 0.00308282 0.0262482 0.00405032 0.0143894 0.00473079 0.0275544 0.00664244 0.0191993 0.00800394 0.0453883
19 3 O -4.52137 3.42402 4.4844 -1.2 1 0.00141701 0.00354183 0.00233633 0.00465266 0.00216289 0.0069482 0.00354898 0.0167413 0.00337187 0.00632898 0.00311685 0.0233638 0.00409366 0.0126086 0.00430108 0.0227359 0.00592231 0.0173681 0.00745882 0.0408955
20 3 O 2.80834 3.69187 3.18632 -1.2 1 0.00180343 0.00365198 0.00152341 0.00373551 0.00197696 0.00553781 0.00313654 0.0171544 0.00300511 0.00650387 0.002708 0.0239937 0.00370658 0.0129109 0.00488092 0.0239918 0.00545203 0.0167194 0.00630743 0.0425886
21 1 Mg 1.17857 2.37449 0 1.2 1 0.00125404 0.00390905 0.00206963 0.00414903 0.00145864 0.00548477 0.00239979 0.0172743 0.00244983 0.00652287 0.00266282 0.0232395 0.00274026 0.0132782 0.00351048 0.0219899 0.00475825 0.0150475 0.00493382 0.0410099
22 3 O 2.76143 3.69187 5.78248 -1.2 1 0.00181206 0.00443779 0.00170559 0.00418349 0.00214361 0.00548638 0.0027243 0.0171921 0.00341401 0.00698874 0.00299472 0.0228491 0.00487822 0.0127152 0.00566803 0.0233217 0.00638381 0.0179614 0.00777329 0.0411393
23 1 Mg -1.67381 2.41581 1.4948 1.2 1 0.000513796 0.00278858 0.00273651 0.00459556 0.00128727 0.00574506 0.00252639 0.0165448 0.00295103 0.00627609 0.00189089 0.0239645 0.00243247 0.0140151 0.00276212 0.022397 0.00443992 0.0158646 0.00491522 0.0418348
24 2 Si 0.16286 0.350945 1.4948 2.4 1 0.000896923 0.00271746 0.00277391 0.00448496 0.00118097 0.00617359 0.00290549 0.0164958 0.00229434 0.00522592 0.0020192 0.0229918 0.00233018 0.0134201 0.00308097 0.0209993 0.00466246 0.0146906 0.00421917 0.0408315
25 3 O 0.15972 -1.26229 1.4948 -1.2 1 0.000959575 0.00273511 0.00298868 0.00448598 0.0017763 0.0058881 0.00260327 0.0164747 0.00220127 0.00544542 0.00250711 0.0226035 0.00260419 0.013749 0.00300259 0.0217761 0.00437659 0.0144386 0.0038182 0.040841
26 3 O 6.77654 1.32496 1.4948 -1.2 1 0.000439902 0.00362535 0.0014913 0.00463672 0.00118361 0.00587416 0.00238909 0.0167069 0.00243438 0.0053796 0.00182772 0.0237063 0.00287775 0.0134032 0.00343943 0.021949 0.00468048 0.0151245 0.00453388 0.0409962
27 3 O -0.508028 1.05712 0.196716 -1.2 1 0.000690272 0.00279103 0.00339238 0.00417726 0.00140261 0.00552329 0.00254593 0.0170055 0.00185719 0.00651354 0.00258398 0.0221259 0.00273746 0.0128596 0.00324216 0.0212981 0.00447801 0.0151622 0.00462275 0.0402497
28 3 O -0.552171 1.05712 2.79288 -1.2 1 0.000721873 0.00248127 0.00311278 0.0043747 0.00130214 0.00587296 0.00246794 0.0162537 0.00241975 0.00636613 0.00166155 0.0227326 0.00276674 0.0118289 0.00350622 0.0216335 0.00521582 0.0154632 0.0048118 0.0399676
29 1 Mg 6.31713 4.74899 0 1.2 1 0.000677291 0.00300903 0.00172772 0.00461934 0.00230827 0.00607775 0.00340763 0.0179777 0.00291923 0.00693072 0.00218979 0.0251785 0.00283427 0.0137488 0.00403396 0.0247501 0.00482763 0.01645 0.00601673 0.0430516
30 1 Mg 3.54847 9.45668 1.4948 1.2 1 0.00185355 0.00347182 0.00170551 0.00460939 0.00192523 0.00756318 0.0031917 0.0210909 0.00179951 0.00817907 0.00222352 0.0282712 0.00314216 0.0156525 0.00383525 0.0292938 0.00413162 0.0180874 0.00400472 0.0487648
31 2 Si 5.36879 6.77254 1.4948 2.4 1 0.00118929 0.00312003 0.00189214 0.00510891 0.00272597 0.00689665 0.00380974 0.0194175 0.00274325 0.00770494 0.00242224 0.0274935 0.00305294 0.0152109 0.00406478 0.0271419 0.00457589 0.0171872 0.00536009 0.0464991
32 3 O 5.41937 8.38578 1.4948 -1.2 1 0.00174411 0.00327025 0.00157955 0.00493413 0.00212948 0.0077808 0.00319937 0.0207264 0.00229284 0.00822591 0.00234609 0.028768 0.00216119 0.0155454 0.00305602 0.0292507 0.00452417 0.0174754 0.0050026 0.0480201
33 3 O 1.75158 5.79852 1.4948 -1.2 1 0.00143016 0.00364713 0.00171773 0.00393014 0.00235555 0.00591489 0.00342158 0.0192396 0.00282573 0.00722452 0.00260063 0.0277205 0.00287827 0.015446 0.00351975 0.0270295 0.00527651 0.0175424 0.00551896 0.0456965
34 3 O 4.67421 6.06637 0.196716 -1.2 1 0.000941359 0.00302912 0.00154302 0.00476839 0.00195422 0.00688751 0.0029305 0.0196597 0.00253462 0.00796616 0.00216456 0.0261832 0.00345395 0.014173 0.00412411 0.0267903 0.0046815 0.0166755 0.00552564 0.0451442
35 1 Mg 6.26654 4.74899 2.9896 1.2 1 0.00172737 0.00328117 0.00211884 0.00488089 0.00267316 0.00647948 0.00384323 0.0177584 0.00373634 0.00697205 0.00243621 0.0255552 0.00382714 0.0144591 0.00517845 0.0250711 0.00556423 0.017289 0.00709349 0.0437297
36 3 O 4.63043 6.06637 2.79288 -1.2 1 0.00233268 0.00366329 0.00159115 0.00476038 0.00226591 0.00675479 0.00348634 0.0190567 0.00321822 0.00776428 0.0024981 0.0257992 0.00390072 0.0145546 0.00457102 0.0275054 0.00576911 0.018062 0.00719511 0.045283
37 1 Mg -1.12976 4.79031 4.4844 1.2 1 0.00235521 0.00414605 0.00183603 0.00468912 0.00235145 0.00588408 0.00326655 0.017706 0.00348652 0.00684913 0.00319646 0.0254971 0.00429736 0.0143386 0.00469866 0.0257809 0.00688078 0.0187971 0.00784164 0.0439891
38 2 Si -2.9517 7.47444 4.4844 2.4 1 0.00277822 0.00435638 0.0012506 0.00493716 0.00316605 0.00635922 0.0037266 0.0198553 0.0031688 0.00776484 0.00334657 0.026957 0.00463308 0.0157875 0.00560314 0.0278886 0.0067222 0.0190218 0.00782939 0.0468663
39 3 O -3.00198 5.86121 4.4844 -1.2 1 0.00254868 0.00424837 0.00121817 0.00488143 0.00314778 0.00607997 0.00415606 0.0184371 0.00350001 0.00745405 0.00301914 0.0254215 0.00450367 0.0140622 0.00493682 0.0268749 0.00644185 0.0191193 0.00806186 0.0449417
40 3 O 0.666315 8.44846 4.4844 -1.2 1 0.00332955 0.00518283 0.00120373 0.00467852 0.00272891 0.00737278 0.00267824 0.0205927 0.00316627 0.00781721 0.00331873 0.02795 0.00471105 0.0158285 0.0046541 0.0294481 0.00615986 0.0197078 0.0080285 0.0481428
41 3 O -2.21213 8.18062 3.18632 -1.2 1 0.00267084 0.00439417 0.00156973 0.00440996 0.00246278 0.00621733 0.00273495 0.0205201 0.00266502 0.0079507 0.0030679 0.0273391 0.00420274 0.0159517 0.00518883 0.0291688 0.00578827 0.0187011 0.00682032 0.0482888
42 3 O -2.25864 8.18062 5.78248 -1.2 1 0.00355298 0.0048597 0.00156039 0.00468389 0.00312233 0.00579677 0.00287069 0.0201657 0.00241139 0.00822956 0.0036394 0.0262423 0.0048159 0.0165661 0.00546096 0.0293276 0.00674903 0.0203655 0.00799519 0.0485485
43 1 Mg 1.20893 7.12349 2.9896 1.2 1 0.00217468 0.00403479 0.00172995 0.00419044 0.00274113 0.00676238 0.00377014 0.0192559 0.00278085 0.00800691 0.00279056 0.0276778 0.00358969 0.0158303 0.00376152 0.0276492 0.00536681 0.0182443 0.00633392 0.0465565
44 1 Mg 4.00982 7.08218 4.4844 1.2 1 0.00289529 0.00418996 0.00130747 0.0047024 0.00245185 0.00628138 0.00389102 0.0195695 0.00331649 0.00770326 0.00316254 0.0267625 0.00427599 0.0165478 0.00598017 0.0281931 0.00680914 0.0189782 0.00811185 0.0467564
45 2 Si 2.17861 9.14704 4.4844 2.4 1 0.00324131 0.00439042 0.00139897 0.00479027 0.00294177 0.0072534 0.0038209 0.0207364 0.00289734 0.00813439 0.00320822 0.0275506 0.00465888 0.0165546 0.00472946 0.0297887 0.0056325 0.0197769 0.00705475 0.0495056
46 3 O 2.18828 10.7603 4.4844 -1.2 1 0.00401204 0.00468095 0.00158502 0.00453976 0.0027189 0.00700148 0.0029509 0.0204714 0.00250222 0.00814894 0.00242284 0.02817 0.00409983 0.0156864 0.00453822 0.0309688 0.00577983 0.0200902 0.00678721 0.0505015
47 3 O -4.43805 8.17302 4.4844 -1.2 1 0.00277579 0.00462642 0.00138878 0.0049443 0.00254216 0.00757116 0.00317238 0.0203128 0.00317713 0.00828733 0.00322118 0.0278368 0.00473915 0.0159872 0.00506653 0.0293802 0.00643279 0.0194595 0.00844689 0.0477788
48 3 O 2.89193 8.44087 3.18632 -1.2 1 0.00298496 0.0039206 0.00142567 0.00429419 0.00244823 0.00676073 0.00337501 0.0201619 0.00288998 0.00844699 0.00278188 0.0271469 0.00377927 0.0158277 0.00471119 0.0291168 0.00568845 0.0186256 0.00608372 0.0479808
49 1 Mg 1.25915 7.12349 0 1.2 1 0.000951172 0.00345782 0.00147266 0.00409443 0.00177172 0.00707275 0.00295974 0.0200039 0.00283656 0.00807012 0.00255232 0.0274995 0.00333171 0.0143975 0.00349505 0.0275795 0.0047029 0.0174133 0.00462642 0.0461071
50 3 O 2.84547 8.44087 5.78248 -1.2 1 0.00345233 0.00499663 0.0012924 0.00470393 0.002562 0.00647665 0.00321669 0.0204314 0.00302327 0.00851106 0.00339243 0.026442 0.00528876 0.0164348 0.00568572 0.0297246 0.00590373 0.0210838 0.00740959 0.0488611
51 1 Mg -1.59284 7.16481 1.4948 1.2 1 0.00124838 0.00352663 0.00141509 0.00443257 0.00178742 0.0063027 0.00266856 0.0197459 0.00292032 0.00782574 0.00171192 0.0274111 0.00338068 0.0153731 0.0035915 0.0273932 0.00443969 0.0177075 0.00558158 0.0463828
52 2 Si 0.240329 5.09994 1.4948 2.4 1 0.00117625 0.00397161 0.00196547 0.00401214 0.00181257 0.00667993 0.00318347 0.0186535 0.00320961 0.007225 0.00223616 0.0258928 0.00275634 0.0145372 0.00395975 0.0249106 0.00496167 0.0169357 0.00542989 0.044667
53 3 O 0.234538 3.48671 1.4948 -1.2 1 0.00134943 0.00394041 0.00266341 0.0041722 0.00181166 0.00632853 0.00263569 0.0177372 0.00337637 0.00684424 0.00231526 0.0244874 0.00316855 0.0136322 0.00387893 0.0241781 0.0055309 0.0159997 0.00554254 0.0425433
54 3 O 6.85564 6.07396 1.4948 -1.2 1 0.00131243 0.0030044 0.00230441 0.00474628 0.00254973 0.00616595 0.00320648 0.0197037 0.00308671 0.00741212 0.00210152 0.0274211 0.00328634 0.0146594 0.00481957 0.0270052 0.00540294 0.0176232 0.00647708 0.0454988
55 3 O -0.429565 5.80612 0.196716 -1.2 1 0.000732622 0.00355588 0.00231278 0.00403152 0.00167981 0.00706273 0.00259254 0.0195151 0.00282258 0.00830227 0.00234927 0.025599 0.00250954 0.0143386 0.00384005 0.0260071 0.00510787 0.0168487 0.00561428 0.0453036
56 3 O -0.473377 5.80612 2.79288 -1.2 1 0.00222506 0.00375509 0.0020437 0.00425373 0.00230405 0.00663704 0.00312884 0.0189132 0.00313006 0.00779395 0.00301457 0.0256861 0.0037746 0.0146063 0.00444048 0.0265826 0.00600268 0.0182984 0.00681762 0.0456419
57 1 Mg 6.40169 9.49799 0 1.2 1 0.000503019 0.0036112 0.00136767 0.00474981 0.00140482 0.00826861 0.00211619 0.0209804 0.00166171 0.008826 0.00153745 0.0286396 0.00232746 0.0147426 0.00249874 0.0298202 0.00364242 0.0180026 0.0038571 0.0476931
58 1 Mg 3.64209 14.2057 1.4948 1.2 1 0.00191689 0.00330991 0.00134367 0.00464861 0.00161579 0.00872363 0.00168739 0.021519 0.00172698 0.00868125 0.00200759 0.0280074 0.00234685 0.0160259 0.00297583 0.0296521 0.00370765 0.0170438 0.00350911 0.0492245
59 2 Si 5.45748 11.5215 1.4948 2.4 1 0.00187608 0.00328605 0.00165055 0.00470482 0.00173665 0.00818195 0.0021238 0.0209875 0.00153395 0.00823973 0.00182264 0.0286652 0.00256036 0.0160682 0.0033085 0.0295587 0.004076 0.0170051 0.00370569 0.0491422
60 3 O 5.51101 13.1348 1.4948 -1.2 1 0.00191672 0.00335824 0.00145665 0.00474895 0.00150195 0.00914415 0.00186296 0.0211158 0.00174869 0.00855544 0.00162278 0.0291246 0.0020939 0.016138 0.00290846 0.0300096 0.00384107 0.0166877 0.00367165 0.0490019
61 3 O 1.83851 10.5475 1.4948 -1.2 1 0.00156921 0.0036295 0.00160756 0.00496347 0.00181749 0.00772291 0.00237834 0.0214925 0.00180583 0.00840461 0.00213801 0.029188 0.00234914 0.0158601 0.00320379 0.0300124 0.00412701 0.0178141 0.00366705 0.0491115
62 3 O 4.7611 10.8154 0.196716 -1.2 1 0.000727334 0.0030561 0.00173482 0.00466402 0.00139305 0.00848591 0.00237037 0.0212737 0.00156725 0.00864864 0.00184809 0.0280794 0.00284072 0.0155959 0.00367115 0.0295908 0.00367489 0.0171409 0.0033196 0.0485347
63 1 Mg 6.35203 9.49799 2.9896 1.2 1 0.00234135 0.00412179 0.00162033 0.00477367 0.00253867 0.00757234 0.00333091 0.0202215 0.00314603 0.00852968 0.00216982 0.028813 0.00370437 0.0160992 0.00350842 0.0291481 0.00415394 0.0183448 0.00565092 0.0482659
64 3 O 4.71833 10.8154 2.79288 -1.2 1 0.00334112 0.00367521 0.00155077 0.00445529 0.00206576 0.00812428 0.00235269 0.0211148 0.00217405 0.00882947 0.00219585 0.0279663 0.00340425 0.0158172 0.00419657 0.030437 0.0051271 0.0184026 0.00572712 0.0496236
65 1 Mg -1.0438 9.53931 4.4844 1.2 1 0.00337633 0.00497579 0.00132839 0.00447607 0.00290473 0.00646431 0.00232563 0.0206446 0.00285742 0.00834158 0.00290585 0.0277779 0.00418663 0.0169546 0.00462983 0.0302471 0.00604873 0.019672 0.00727604 0.0496277
66 2 Si -2.8604 12.2234 4.4844 2.4 1 0.00397445 0.00450576 0.00169776 0.00446162 0.00267569 0.00753091 0.00304848 0.0215188 0.00275289 0.00848246 0.002403 0.0278116 0.00419981 0.0166331 0.0046561 0.0302235 0.00547343 0.0196554 0.00650662 0.0507785
67 3 O -2.91391 10.6102 4.4844 -1.2 1 0.00412154 0.00477594 0.00170564 0.00443924 0.00284575 0.00689744 0.00305115 0.0203727 0.00261081 0.00779369 0.00240136 0.0280906 0.00424533 0.0159322 0.00464262 0.0309737 0.00560228 0.0196835 0.00679728 0.049911
68 3 O 0.7596 13.1975 4.4844 -1.2 1 0.00415498 0.00463977 0.00160287 0.00512356 0.00291233 0.00860013 0.00275059 0.0220193 0.00282023 0.0082123 0.00278894 0.028332 0.00410558 0.0163804 0.00422351 0.0304742 0.00579862 0.0199286 0.00681812 0.0510388
69 3 O -2.12001 12.9296 3.18632 -1.2 1 0.00369375 0.00412585 0.00165188 0.00441286 0.00240774 0.00760708 0.00217198 0.0217615 0.00264923 0.00827511 0.00240435 0.02773 0.00353574 0.0162523 0.00455395 0.0306263 0.00528954 0.0186946 0.00569918 0.0504029
70 3 O -2.16532 12.9296 5.78248 -1.2 1 0.00483439 0.00509016 0.00171443 0.00453308 0.00282147 0.00659437 0.00239373 0.0214326 0.00249827 0.00811725 0.002956 0.0272283 0.00408318 0.017057 0.00545751 0.0314346 0.0059531 0.0211634 0.00640235 0.0521427
71 1 Mg 1.29891 11.8725 2.9896 1.2 1 0.00302587 0.00372641 0.00160817 0.00497463 0.00242819 0.00812493 0.0028447 0.0207264 0.002475 0.00853926 0.00207669 0.0288575 0.0031971 0.0162683 0.0035007 0.0301822 0.00465383 0.0180152 0.00516878 0.0494978
72 1 Mg 4.10033 11.8312 4.4844 1.2 1 0.00390125 0.00401497 0.00184655 0.00453161 0.00258202 0.00736539 0.00283774 0.0211268 0.0025079 0.00849092 0.00290452 0.028289 0.00391387 0.0172572 0.00541926 0.030413 0.0061532 0.0195843 0.00622511 0.0505276
73 2 Si 2.27333 13.896 4.4844 2.4 1 0.00392529 0.00408056 0.0014712 0.00528899 0.00310862 0.00808229 0.00321194 0.0216229 0.00247965 0.00823252 0.00280803 0.0277386 0.00372336 0.0168276 0.00465977 0.0302124 0.00546603 0.0194243 0.00617903 0.0519821
74 3 O 2.28634 15.5093 4.4844 -1.2 1 0.00414047 0.00446258 0.00146446 0.00475686 0.00311326 0.00728792 0.00285753 0.0208646 0.00256407 0.00753471 0.00220661 0.0280947 0.00330194 0.0159856 0.0041769 0.0308046 0.0056148 0.0191758 0.00644357 0.0514401
75 3 O -4.34533 12.922 4.4844 -1.2 1 0.00412595 0.00447035 0.00186652 0.00472447 0.00272303 0.0083123 0.00298449 0.0217298 0.00258291 0.00850301 0.00251113 0.0282835 0.0038482 0.0164233 0.00490655 0.030608 0.00600573 0.0199939 0.00686411 0.0508761
76 3 O 2.98455 13.1899 3.18632 -1.2 1 0.00357235 0.00378886 0.00148587 0.0046283 0.00256924 0.00793758 0.00238895 0.0215851 0.0022516 0.00849566 0.00241954 0.027744 0.00331636 0.0160527 0.00440388 0.0304288 0.00559915 0.0186441 0.00572634 0.0503061
77 1 Mg 1.34779 11.8725 0 1.2 1 0.00101853 0.00305639 0.00116676 0.00480803 0.00128272 0.00885548 0.00170182 0.0210694 0.00143858 0.0090728 0.0020271 0.0287859 0.00254893 0.0148599 0.00275539 0.0301266 0.00302184 0.017181 0.00307731 0.0483241
78 3 O 2.93934 13.1899 5.78248 -1.2 1 0.00437976 0.00495996 0.00164753 0.00498952 0.00269133 0.00688981 0.00263824 0.0216125 0.00243027 0.00822329 0.00320633 0.0270059 0.00443227 0.0166258 0.00511557 0.0317777 0.00575397 0.0218336 0.00627318 0.0522617
79 1 Mg -1.50344 11.9138 1.4948 1.2 1 0.00161111 0.003736 0.00133897 0.00474972 0.00129602 0.00833798 0.00177276 0.0216271 0.00263726 0.00847934 0.00159158 0.0285717 0.00331322 0.0161009 0.00328749 0.0298035 0.00361088 0.0175522 0.00372501 0.0490093
80 2 Si 0.326006 9.84894 1.4948 2.4 1 0.00108007 0.00346962 0.00127875 0.00490866 0.0018444 0.00811382 0.00210912 0.0209352 0.0021982 0.00831319 0.00156195 0.0284178 0.00264906 0.0156822 0.00350589 0.0290249 0.00369062 0.0177085 0.00362976 0.0485108
81 3 O 0.317364 8.23571 1.4948 -1.2 1 0.00165501 0.00370776 0.00116352 0.0044013 0.00189822 0.00761042 0.00213999 0.0200128 0.00264542 0.0078703 0.00183133 0.0284918 0.00333247 0.0157861 0.00385064 0.028795 0.0043179 0.0176744 0.00438027 0.0475582
82 3 O 6.94307 10.823 1.4948 -1.2 1 0.0016708 0.00381282 0.0014101 0.0046907 0.00174592 0.0077504 0.00244345 0.0217023 0.00244186 0.0082607 0.00174182 0.0291197 0.00290692 0.0156874 0.00332616 0.0301413 0.0038193 0.018109 0.00429771 0.0491238
83 3 O -0.343122 10.5551 0.196716 -1.2 1 0.000703257 0.00336728 0.00114958 0.0048986 0.00136367 0.00861649 0.00189834 0.0212037 0.00186174 0.00884186 0.00182749 0.0280157 0.00296326 0.015306 0.00400533 0.0294085 0.00356547 0.0174182 0.00345807 0.0485587
84 3 O -0.385966 10.5551 2.79288 -1.2 1 0.00312035 0.00431283 0.001133 0.00458996 0.0023684 0.00800944 0.00215208 0.0213955 0.00213063 0.00894311 0.00223363 0.0275175 0.0036824 0.0161554 0.00415832 0.0302512 0.00502333 0.0186766 0.00533506 0.0494414
85 1 Mg 6.49448 14.247 0 1.2 1 0.001271 0.00310963 0.00139761 0.00467352 0.00125061 0.00915779 0.00128976 0.0211859 0.00126606 0.00851531 0.00149103 0.0286642 0.00151381 0.0155404 0.00251626 0.0300348 0.00315979 0.0165707 0.00278503 0.0483358
86 1 Mg 3.74457 18.9547 1.4948 1.2 1 0.00177291 0.00313229 0.0013835 0.00401672 0.00182848 0.008483 0.00132255 0.0221304 0.00180555 0.00792611 0.00230373 0.0273692 0.00259372 0.0165542 0.00349665 0.0288348 0.0037237 0.0164106 0.00352778 0.0495838
87 2 Si 5.55495 16.2705 1.4948 2.4 1 0.00204594 0.00305093 0.00135923 0.00446884 0.00192628 0.00891734 0.00144262 0.0213289 0.001138 0.00786784 0.00143537 0.0282565 0.00227585 0.0162814 0.00272213 0.028955 0.00398558 0.0160888 0.0036381 0.0493509
88 3 O 5.6115 17.8838 1.4948 -1.2 1 0.00172626 0.00317571 0.00166697 0.0042524 0.00199866 0.00911148 0.00153468 0.0214709 0.00170923 0.00779726 0.00134437 0.0284624 0.00203826 0.0164352 0.00261168 0.0289836 0.00351091 0.0159066 0.00364363 0.0492445
89 3 O 1.93416 15.2965 1.4948 -1.2 1 0.00184983 0.00317111 0.00120334 0.00487435 0.00201658 0.00830367 0.00194273 0.0218345 0.00183709 0.00804719 0.00158797 0.0289191 0.00193857 0.0161317 0.0027772 0.0298522 0.00407707 0.0166905 0.00343468 0.0495926
90 3 O 4.85636 15.5644 0.196716 -1.2 1 0.00177667 0.00245474 0.00122142 0.00452659 0.00126815 0.00904951 0.00151367 0.0210941 0.00118819 0.00813588 0.00162872 0.0278835 0.00262997 0.0162042 0.00352701 0.0294851 0.0033197 0.0158006 0.00290242 0.0489823
91 1 Mg 6.44662 14.247 2.9896 1.2 1 0.00232581 0.00381297 0.00123978 0.00474048 0.0024834 0.00850616 0.00272364 0.0207635 0.00276456 0.00846339 0.00203039 0.0290335 0.00299447 0.0163569 0.00298695 0.0298179 0.0041055 0.0177456 0.00498087 0.0496112
92 3 O 4.81537 15.5644 2.79288 -1.2 1 0.00301065 0.00344236 0.00124142 0.00455003 0.00231191 0.00881347 0.00193019 0.0218717 0.00157632 0.00846669 0.0017881 0.0275533 0.00282276 0.0164471 0.00368486 0.0296913 0.00498 0.0177321 0.00511961 0.0498943
93 1 Mg -0.948271 14.2883 4.4844 1.2 1 0.00430425 0.00451363 0.00149571 0.00468324 0.00284369 0.00764194 0.00263636 0.021373 0.00263906 0.00813436 0.00285485 0.0280597 0.00356395 0.0171951 0.00462484 0.0305405 0.00595241 0.0190434 0.00628418 0.0512356
94 2 Si -2.75928 16.9724 4.4844 2.4 1 0.00367426 0.00413171 0.00157603 0.00492655 0.00292516 0.00779098 0.00287085 0.0217027 0.00270484 0.00776265 0.00256942 0.0274696 0.00346689 0.0169499 0.0043394 0.0296176 0.00514301 0.0189078 0.0058625 0.0516344
95 3 O -2.81617 15.3592 4.4844 -1.2 1 0.00434849 0.00424233 0.00168965 0.0045746 0.00297142 0.00743743 0.00306707 0.020849 0.00265021 0.00749212 0.00245798 0.0281869 0.00360126 0.0160059 0.00423405 0.0306547 0.00608422 0.0189892 0.00670238 0.0509638
96 3 O 0.862762 17.9465 4.4844 -1.2 1 0.00342674 0.00448463 0.00128576 0.00483543 0.003143 0.00834305 0.00261893 0.022248 0.00250992 0.00756534 0.00250682 0.0277494 0.00352584 0.016734 0.0038835 0.0294777 0.00580081 0.0191764 0.0061519 0.0514012
97 3 O -2.0185 17.6786 3.18632 -1.2 1 0.00270446 0.00366342 0.00184872 0.0043655 0.00278547 0.00741347 0.00222395 0.0221458 0.00228487 0.00765798 0.00211027 0.0272287 0.00327953 0.0165997 0.00401331 0.030006 0.00490251 0.0177284 0.00521966 0.0507671
98 3 O -2.06164 17.6786 5.78248 -1.2 1 0.00424997 0.00458916 0.00149225 0.00471955 0.00303447 0.00694643 0.0025772 0.0216906 0.00263854 0.00764916 0.00290827 0.0267305 0.00347117 0.0169507 0.00481887 0.030771 0.00593497 0.0208754 0.00593239 0.052613
99 1 Mg 1.39817 16.6215 2.9896 1.2 1 0.0025652 0.00347676 0.00148861 0.00480306 0.00273479 0.00832548 0.0026127 0.0211308 0.00252578 0.00798128 0.00195967 0.0285363 0.00247567 0.0166069 0.00313975 0.0295633 0.00450992 0.0169161 0.00461929 0.049818
100 1 Mg 4.20062 16.5802 4.4844 1.2 1 0.00353481 0.00404061 0.00159008 0.00456724 0.00278245 0.0075401 0.00275324 0.0215576 0.00290587 0.00782061 0.00288376 0.0279775 0.00360948 0.0174844 0.00560439 0.029832 0.00611011 0.0190043 0.00608378 0.0513379
101 2 Si 2.37796 18.645 4.4844 2.4 1 0.00296432 0.00379314 0.00131939 0.00490914 0.00318945 0.00781082 0.00303512 0.0221035 0.00264547 0.0077422 0.00272745 0.0273923 0.00359665 0.0170288 0.00443165 0.029166 0.00520501 0.018239 0.00578948 0.0520396
102 3 O 2.39434 20.2583 4.4844 -1.2 1 0.00283052 0.0040869 0.00142503 0.00461107 0.00306204 0.00685216 0.00275057 0.0212747 0.00276054 0.00702712 0.00224203 0.0279441 0.00307563 0.0165008 0.00396921 0.0297137 0.00562983 0.0182818 0.00650052 0.0515843
103 3 O -4.24274 17.671 4.4844 -1.2 1 0.00307663 0.00435759 0.0016237 0.00491176 0.00302403 0.00862804 0.00289626 0.0221415 0.00297032 0.00775245 0.00238754 0.0280276 0.00332998 0.0166195 0.00474138 0.0295936 0.00591008 0.0192351 0.00644938 0.0514581
104 3 O 3.08659 17.9389 3.18632 -1.2 1 0.00257665 0.00339565 0.00127905 0.004267 0.00280869 0.00776764 0.00200854 0.0220488 0.00228297 0.00787249 0.00234226 0.0273297 0.00329557 0.0165697 0.00418469 0.0294178 0.00540131 0.01765 0.00564573 0.0506268
105 1 Mg 1.44478 16.6215 0 1.2 1 0.00245553 0.00253341 0.000978811 0.00431677 0.00136847 0.00888999 0.00113585 0.0215147 0.00137019 0.00823181 0.00163837 0.0284087 0.00219086 0.0157446 0.00222258 0.0292261 0.00296763 0.0159438 0.00298644 0.0486295
106 3 O 3.0436 17.9389 5.78248 -1.2 1 0.00385114 0.00445078 0.0013858 0.00496427 0.00301541 0.00682769 0.00276707 0.0219617 0.00237322 0.00772924 0.0028538 0.0269235 0.00387379 0.0167248 0.00517284 0.0304646 0.00589615 0.0209115 0.0061114 0.052774
107 1 Mg -1.40524 16.6628 1.4948 1.2 1 0.00152452 0.00318543 0.00143988 0.00463786 0.00172568 0.00860801 0.00159277 0.0220686 0.0021426 0.00804996 0.00162716 0.0280216 0.00292931 0.0165939 0.00271385 0.0294612 0.00323025 0.016608 0.0032687 0.0493908
108 2 Si 0.420358 14.5979 1.4948 2.4 1 0.00173319 0.00291991 0.00138925 0.00506112 0.00204907 0.00899688 0.00178508 0.0213436 0.00177602 0.00821815 0.00149986 0.0282489 0.00256343 0.0163919 0.00324377 0.028931 0.00366353 0.0165942 0.00331227 0.0491785
109 3 O 0.408732 12.9847 1.4948 -1.2 1 0.00196587 0.00312448 0.00134972 0.00505592 0.00178235 0.00902856 0.00137597 0.0210857 0.00228492 0.00843416 0.00152564 0.0289841 0.00276889 0.0159905 0.0028206 0.0299351 0.00342311 0.0169049 0.00365034 0.0490339
110 3 O 7.03923 15.572 1.4948 -1.2 1 0.00156004 0.0031518 0.0011122 0.0046072 0.00209573 0.00830985 0.00216532 0.021634 0.00213994 0.00799427 0.00187231 0.0290612 0.00244286 0.0163455 0.00267667 0.02979 0.00379801 0.016816 0.00400616 0.0494629
111 3 O -0.248332 15.3041 0.196716 -1.2 1 0.00185017 0.00265183 0.00102082 0.00462375 0.00108441 0.00895613 0.0019434 0.0212022 0.00148031 0.00825258 0.00167111 0.027802 0.00265282 0.0158872 0.00370074 0.029316 0.003159 0.0159688 0.00290166 0.0489338
112 3 O -0.289436 15.3041 2.79288 -1.2 1 0.00316447 0.00366889 0.00122948 0.00459526 0.00246753 0.0085616 0.0019308 0.0218349 0.00208652 0.00855473 0.00197078 0.027341 0.00283689 0.016455 0.00346936 0.0297751 0.00487547 0.0176509 0.00495224 0.0499754
113 1 Mg 6.59566 18.996 0 1.2 1 0.00198658 0.00277167 0.00162769 0.00403093 0.00119326 0.00864107 0.00125604 0.0217541 0.00118151 0.00773396 0.00134759 0.0278975 0.00212746 0.0163775 0.00232381 0.0285979 0.00281034 0.0156267 0.00274095 0.0485856
114 1 Mg 3.85574 23.7037 1.4948 1.2 1 0.00191153 0.00276183 0.00147507 0.00416595 0.00163592 0.0074862 0.00119284 0.0229522 0.00188869 0.00724982 0.00226306 0.0270462 0.00249462 0.0175396 0.00362851 0.028459 0.00335077 0.0171486 0.00355717 0.0503497
115 2 Si 5.66125 21.0195 1.4948 2.4 1 0.00147077 0.00272618 0.00134138 0.00406862 0.00215548 0.00825885 0.00148088 0.0216947 0.00129359 0.00732208 0.00144139 0.0277503 0.00258464 0.0172974 0.00268353 0.0281118 0.00370881 0.0159192 0.00388968 0.0499716
116 3 O 5.72074 22.6328 1.4948 -1.2 1 0.00163783 0.00273267 0.00182962 0.00413352 0.00192714 0.00822347 0.00163736 0.0221997 0.00191127 0.00704467 0.00126976 0.0277348 0.00221957 0.0172847 0.00271266 0.0282929 0.00328724 0.0164066 0.00374068 0.0498125
117 3 O 2.03867 20.0455 1.4948 -1.2 1 0.00125428 0.00320628 0.00144373 0.00433204 0.00216509 0.00781768 0.00200158 0.0222768 0.00208552 0.00738579 0.00141813 0.0282455 0.00213819 0.0173002 0.00250369 0.0288347 0.00386915 0.0161287 0.00371265 0.050053
118 3 O 4.96004 20.3134 0.196716 -1.2 1 0.00225729 0.00234645 0.00142123 0.00399755 0.00105114 0.008313 0.00103805 0.0214444 0.00112155 0.00726094 0.00174058 0.0273009 0.002709 0.0164222 0.00349638 0.0286525 0.00304065 0.0152373 0.00306207 0.0492157
119 1 Mg 6.55057 18.996 2.9896 1.2 1 0.00136246 0.00347949 0.00135644 0.00449541 0.00287741 0.00812261 0.00279709 0.0214341 0.00249995 0.00777606 0.00182042 0.028495 0.00274285 0.0165548 0.00294654 0.0288803 0.00412225 0.0172162 0.00495 0.0498833