ITEM: TIMESTEP
37700
ITEM: NUMBER OF ATOMS
10500
ITEM: BOX BOUNDS xy xz yz pp pp pp
0	15.2977	5.09925
0	118.725	0
0	89.688	0
ITEM: ATOMS id type element xu yu zu q Q_1 Q_2 Q_3 Q_4 Q_5 Q_6 Q_7 Q_8 Q_9 Q_10 Q_11 Q_12 Q_13 Q_14 Q_15 Q_16 Q_17 Q_18 Q_19 Q_20 Q_21
1 1 Mg 6.2404 -6.37941e-06 0 1.2 1 0.00155512 0.00413795 0.00101664 0.0047864 0.00126382 0.00549303 0.00204512 0.0161643 0.0020831 0.00566059 0.00237531 0.0217353 0.00260236 0.0135618 0.00351375 0.02069 0.00407499 0.0139559 0.00392227 0.0405199
2 1 Mg 3.46349 4.70768 1.4948 1.2 1 0.001167 0.00330534 0.00134425 0.00429195 0.00214286 0.00615477 0.00345058 0.0186187 0.00282805 0.00691693 0.00289552 0.025664 0.00323471 0.0137711 0.00441132 0.0253042 0.00520722 0.0172292 0.00555924 0.0435715
3 2 Si 5.2885 2.02354 1.4948 2.4 1 0.00103654 0.00325044 0.00181146 0.00456251 0.00189936 0.00563393 0.00243329 0.016946 0.00240449 0.00603494 0.00205434 0.0233872 0.00297122 0.0133802 0.00374541 0.0218165 0.00374829 0.0152524 0.0042813 0.0410707
4 3 O 5.33628 3.63678 1.4948 -1.2 1 0.000708998 0.00296844 0.00158808 0.00475039 0.00226478 0.00633036 0.0028153 0.0176578 0.00235949 0.00664318 0.00193552 0.0251356 0.00264845 0.0136377 0.00436909 0.0241729 0.00487757 0.0165674 0.00571985 0.0426838
5 3 O 1.67294 1.04952 1.4948 -1.2 1 0.00205705 0.0034118 0.00222082 0.0042971 0.00136614 0.00564163 0.00248543 0.0168446 0.00234782 0.00606828 0.00230202 0.0228088 0.0029341 0.0127129 0.00343422 0.0220028 0.00432851 0.0155545 0.00469524 0.0401689
6 3 O 4.59532 1.31737 0.196716 -1.2 1 0.00164669 0.00327542 0.00193653 0.00432311 0.00199383 0.00556609 0.00236282 0.0171117 0.00260152 0.00606638 0.00215214 0.0223729 0.00316495 0.0129062 0.00416882 0.0215275 0.0041155 0.0147561 0.00442223 0.0407906
7 1 Mg 6.18956 -6.37941e-06 2.9896 1.2 1 0.00120519 0.00436548 0.00129069 0.00418643 0.00120841 0.00565532 0.00259337 0.0159472 0.00261988 0.00539987 0.00170079 0.0224714 0.00288116 0.0131401 0.00377255 0.0206315 0.00414064 0.0144819 0.00476746 0.0388753
8 3 O 4.55118 1.31737 2.79288 -1.2 1 0.00150278 0.00402951 0.00157239 0.00435278 0.00201274 0.00559692 0.00249036 0.0164892 0.00249337 0.0067563 0.00237789 0.0218292 0.00353105 0.0121879 0.00340958 0.0215353 0.00457225 0.0152527 0.00512765 0.0396065
9 1 Mg -1.20682 0.0413099 4.4844 1.2 1 0.000809384 0.00293647 0.00151228 0.0045474 0.00143039 0.00533677 0.00203201 0.0160705 0.00224189 0.00614191 0.00205365 0.0227716 0.00326952 0.0114564 0.00373493 0.0207147 0.0048452 0.0154364 0.00522531 0.0383822
10 2 Si -3.0337 2.72544 4.4844 2.4 1 0.000843075 0.00334974 0.00160941 0.00489935 0.00208961 0.00587304 0.00328217 0.0164188 0.00324322 0.00634125 0.00234794 0.0240655 0.00361478 0.0129319 0.00408846 0.0226105 0.00515778 0.017537 0.00625482 0.0396125
11 3 O -3.08099 1.11221 4.4844 -1.2 1 0.000920214 0.00368293 0.00159736 0.00432447 0.00138953 0.00509955 0.00242902 0.0159097 0.00291568 0.00577557 0.00215135 0.022617 0.00347056 0.0113192 0.0037617 0.0212988 0.0049188 0.0158897 0.00551992 0.0383313
12 3 O 0.582463 3.69946 4.4844 -1.2 1 0.00220635 0.00495199 0.00192837 0.00449949 0.00268789 0.00656778 0.00335605 0.017044 0.0034574 0.00687424 0.00324662 0.0249772 0.00449138 0.0129166 0.00430953 0.0245552 0.0067032 0.0186921 0.00824862 0.0416939
13 3 O -2.29524 3.43162 3.18632 -1.2 1 0.000976161 0.00319458 0.00254704 0.00457806 0.00229305 0.00588468 0.00295564 0.017676 0.00312441 0.0066979 0.00269518 0.0244643 0.00344045 0.0128773 0.00478699 0.0244176 0.00571777 0.0179199 0.00665785 0.0417916
14 3 O -2.34216 3.43162 5.78248 -1.2 1 0.00223387 0.00410299 0.000963847 0.00505551 0.0027471 0.00577872 0.00313983 0.0167054 0.00297345 0.00745171 0.00272901 0.0234231 0.00461897 0.0122721 0.00414122 0.0235346 0.00624051 0.0192437 0.00738508 0.0401479
15 1 Mg 1.12778 2.37449 2.9896 1.2 1 0.00180923 0.00360976 0.00229938 0.00459447 0.0022429 0.00591989 0.00292341 0.0166035 0.00268545 0.00621615 0.00238291 0.0237492 0.00349919 0.0128662 0.00347448 0.0220659 0.00455089 0.0165338 0.00541757 0.0407175
16 1 Mg 3.92855 2.33318 4.4844 1.2 1 0.00128173 0.00414763 0.00143885 0.00433 0.00186134 0.00566634 0.00353345 0.0165275 0.00321099 0.00616785 0.00301954 0.0230721 0.00398804 0.0132618 0.0050909 0.0220859 0.00601043 0.0169673 0.00709969 0.0401991
17 2 Si 2.09341 4.39804 4.4844 2.4 1 0.00160617 0.00450137 0.00159121 0.00426759 0.00303862 0.00579831 0.00371901 0.0179618 0.00350286 0.00691974 0.00332643 0.0249304 0.00468245 0.0140802 0.00443822 0.0247939 0.00654906 0.0186247 0.00823015 0.0433101
18 3 O 2.09991 6.01128 4.4844 -1.2 1 0.00248403 0.0047088 0.00126451 0.00405144 0.00288841 0.0065903 0.00315797 0.0188032 0.00267467 0.00730102 0.00309673 0.0265665 0.00411111 0.0143876 0.00456188 0.0275331 0.00661687 0.0195985 0.0080876 0.0453251
19 3 O -4.52137 3.42402 4.4844 -1.2 1 0.000865729 0.00376873 0.00198136 0.00459082 0.00233166 0.00687488 0.00347534 0.0167581 0.00343109 0.00640661 0.00294929 0.0235673 0.00425154 0.0127938 0.00412544 0.0229465 0.00615816 0.0177881 0.0073254 0.0409324
20 3 O 2.80834 3.69187 3.18632 -1.2 1 0.00120832 0.00373626 0.0014196 0.00380575 0.00212783 0.00578291 0.00304286 0.017119 0.00305675 0.00641146 0.00282623 0.0243882 0.00382575 0.0130826 0.00476181 0.0240045 0.00544273 0.0169659 0.00623854 0.0424294
21 1 Mg 1.17857 2.37449 0 1.2 1 0.0022633 0.00350247 0.00230587 0.00409945 0.00134452 0.00543599 0.00244334 0.0171309 0.00244625 0.00650738 0.0029286 0.0231173 0.00296403 0.0131698 0.00354673 0.0216679 0.00442591 0.014755 0.00470659 0.0404331
22 3 O 2.76143 3.69187 5.78248 -1.2 1 0.00227052 0.00465653 0.00160013 0.00429967 0.00223949 0.00560872 0.00297315 0.0171365 0.0031765 0.00738177 0.00287463 0.0233228 0.00492294 0.0128708 0.00531064 0.0233586 0.00656401 0.0186643 0.00762841 0.0411809
23 1 Mg -1.67381 2.41581 1.4948 1.2 1 0.00155461 0.00272114 0.00261424 0.00467537 0.0015101 0.00592719 0.00233668 0.0166118 0.0027558 0.00624199 0.00218223 0.0242168 0.00246578 0.0142211 0.00278408 0.0223387 0.00424535 0.0160139 0.00488252 0.0414198
24 2 Si 0.16286 0.350945 1.4948 2.4 1 0.0021738 0.00271065 0.0029676 0.00463029 0.00122915 0.00641371 0.00270582 0.016344 0.00199335 0.00515343 0.00213162 0.0228253 0.00254499 0.0134019 0.00311907 0.0206421 0.00432327 0.0147311 0.00423795 0.0400112
25 3 O 0.15972 -1.26229 1.4948 -1.2 1 0.00202888 0.00260906 0.00314075 0.00452907 0.00173187 0.0060188 0.00250155 0.016353 0.00222625 0.00536477 0.00270138 0.0226025 0.00275323 0.013812 0.00298643 0.0215589 0.00402016 0.0144641 0.00396801 0.0405885
26 3 O 6.77654 1.32496 1.4948 -1.2 1 0.00143025 0.00365766 0.00147347 0.00459403 0.00128551 0.00590667 0.00233858 0.0167097 0.00241923 0.0053984 0.00188754 0.0237372 0.00281632 0.0135747 0.0035748 0.021939 0.00443556 0.0151553 0.00428772 0.0406715
27 3 O -0.508028 1.05712 0.196716 -1.2 1 0.00194302 0.00276425 0.00356144 0.00410315 0.00132104 0.00554898 0.00240246 0.0169753 0.00167378 0.00654364 0.00258402 0.0220053 0.00284309 0.0128184 0.00312109 0.0211486 0.0041425 0.0149998 0.00436974 0.0398838
28 3 O -0.552171 1.05712 2.79288 -1.2 1 0.00154532 0.00260607 0.00286694 0.0044357 0.00127489 0.00594564 0.00229284 0.016005 0.00257081 0.0062646 0.0017759 0.0228417 0.00312286 0.0116759 0.003744 0.0217894 0.00504105 0.0157079 0.00487636 0.0393436
29 1 Mg 6.31713 4.74899 0 1.2 1 0.00106662 0.00296322 0.00179043 0.00460927 0.00228133 0.00611746 0.00332843 0.0180645 0.00289258 0.00697627 0.00225876 0.0252027 0.00293881 0.0138519 0.00424084 0.0246936 0.00469008 0.0164261 0.00588331 0.0424214
30 1 Mg 3.54847 9.45668 1.4948 1.2 1 0.000933014 0.00344267 0.00172116 0.00470467 0.00212265 0.00764373 0.00327152 0.0212516 0.00165485 0.00835187 0.00238477 0.0284638 0.00317275 0.0154837 0.0037046 0.0293357 0.00420073 0.0181976 0.00400223 0.0483745
31 2 Si 5.36879 6.77254 1.4948 2.4 1 0.000385797 0.00307601 0.00191602 0.00510013 0.00283505 0.00701469 0.00378466 0.0195313 0.00278121 0.00780906 0.00251695 0.0276683 0.0031685 0.0152803 0.0042555 0.0270082 0.00470738 0.0175229 0.00536276 0.0462641
32 3 O 5.41937 8.38578 1.4948 -1.2 1 0.00072734 0.00311374 0.00164281 0.0049329 0.00225985 0.00780734 0.00324446 0.0209586 0.002294 0.008436 0.00254218 0.0289102 0.00233025 0.0156029 0.00316928 0.0291823 0.00473308 0.0176011 0.00496125 0.0477042
33 3 O 1.75158 5.79852 1.4948 -1.2 1 0.000999603 0.00341484 0.0016823 0.00391925 0.00256737 0.00609565 0.0032922 0.0194345 0.00280475 0.00728854 0.00260273 0.0278492 0.0028987 0.015391 0.00365169 0.0268409 0.00529504 0.0176619 0.00557264 0.0455258
34 3 O 4.67421 6.06637 0.196716 -1.2 1 0.00073869 0.00320955 0.00151664 0.00475322 0.00204313 0.00694241 0.00290529 0.0196838 0.00252204 0.0080575 0.00214844 0.0261784 0.0034504 0.0142931 0.00415905 0.026666 0.00474092 0.0168374 0.00559257 0.0448524
35 1 Mg 6.26654 4.74899 2.9896 1.2 1 0.00129805 0.00345134 0.00198481 0.00495741 0.00279745 0.00662994 0.00376419 0.0177105 0.00373189 0.00708299 0.00228768 0.0257916 0.00373952 0.0144707 0.00499006 0.0250506 0.00575945 0.0177893 0.00702558 0.0434765
36 3 O 4.63043 6.06637 2.79288 -1.2 1 0.00182963 0.00354357 0.00147584 0.00486288 0.00245317 0.00701722 0.00341054 0.0191763 0.00327891 0.00781115 0.00248974 0.0259974 0.00392093 0.0145394 0.00444894 0.0273561 0.00575508 0.0185541 0.00696226 0.0452285
37 1 Mg -1.12976 4.79031 4.4844 1.2 1 0.00217885 0.00426116 0.00169585 0.00481235 0.00261788 0.00606571 0.00332049 0.017773 0.00345286 0.0071876 0.00310726 0.0258258 0.00443393 0.014264 0.00466386 0.0258504 0.00721943 0.0193729 0.00786884 0.043775
38 2 Si -2.9517 7.47444 4.4844 2.4 1 0.00259485 0.00427641 0.00126867 0.00522922 0.00297562 0.00659678 0.00379902 0.0200102 0.00322232 0.00796243 0.00314542 0.0272407 0.00469385 0.015897 0.00531033 0.0281813 0.00672221 0.0195632 0.00799229 0.0474266
39 3 O -3.00198 5.86121 4.4844 -1.2 1 0.00236555 0.00456365 0.00127668 0.00501606 0.00326987 0.00647384 0.00413672 0.0185876 0.00347564 0.00764618 0.00276842 0.0257269 0.00455885 0.0140489 0.00474354 0.026996 0.00673675 0.0198027 0.00806787 0.0451842
40 3 O 0.666315 8.44846 4.4844 -1.2 1 0.0031259 0.00479928 0.00131598 0.00497228 0.00282516 0.00763566 0.00280708 0.0208986 0.00304587 0.00805815 0.00319883 0.027935 0.00463375 0.015768 0.00442166 0.029138 0.00609646 0.0202181 0.00776649 0.0482513
41 3 O -2.21213 8.18062 3.18632 -1.2 1 0.0021635 0.00419021 0.00153549 0.00456075 0.002592 0.00647215 0.00290933 0.0206186 0.00272655 0.00813703 0.00289582 0.0275449 0.00422624 0.0158328 0.00492284 0.028893 0.00566483 0.0189816 0.00669227 0.0482953
42 3 O -2.25864 8.18062 5.78248 -1.2 1 0.00364014 0.00462009 0.00153502 0.00496265 0.00292687 0.00627473 0.00291731 0.0203652 0.00235953 0.00849732 0.00355443 0.0267526 0.00475417 0.0162917 0.00535988 0.0292471 0.00695893 0.0212145 0.0078587 0.0487879
43 1 Mg 1.20893 7.12349 2.9896 1.2 1 0.00153032 0.00396334 0.00173445 0.00427999 0.00290384 0.00690055 0.00365948 0.0195848 0.00285018 0.00819441 0.00266915 0.0280144 0.00348324 0.0156571 0.00386872 0.027579 0.00540348 0.0184412 0.00640914 0.0466192
44 1 Mg 4.00982 7.08218 4.4844 1.2 1 0.00253626 0.00410303 0.001212 0.00496037 0.00265602 0.00658682 0.00375654 0.0197789 0.00341449 0.00788238 0.00308849 0.0270274 0.00447828 0.016608 0.00576626 0.0278746 0.00691295 0.0193898 0.00814893 0.0466294
45 2 Si 2.17861 9.14704 4.4844 2.4 1 0.00271993 0.00408215 0.00161992 0.00495495 0.00294855 0.00755041 0.00358882 0.0211262 0.00280998 0.00827971 0.00299837 0.0277372 0.00454193 0.0164228 0.00462364 0.0295341 0.00576338 0.0197153 0.00721191 0.0497714
46 3 O 2.18828 10.7603 4.4844 -1.2 1 0.00341966 0.00434381 0.00190134 0.00461292 0.00258937 0.00725105 0.00300024 0.0209182 0.00248213 0.00821263 0.00233692 0.028412 0.00425098 0.0156939 0.00458577 0.0306117 0.00588635 0.02016 0.00672488 0.0505258
47 3 O -4.43805 8.17302 4.4844 -1.2 1 0.00207425 0.00439801 0.00155658 0.0052893 0.00257095 0.00785149 0.00332085 0.020353 0.00334807 0.00838616 0.00318809 0.0279667 0.00484608 0.0156605 0.00500225 0.029278 0.00651481 0.0199463 0.00874558 0.0478275
48 3 O 2.89193 8.44087 3.18632 -1.2 1 0.00241637 0.00370259 0.00148525 0.00436229 0.00252682 0.00706232 0.00335157 0.0204782 0.00291495 0.00853795 0.00276318 0.0275268 0.00387276 0.0157679 0.00473462 0.0290518 0.00572782 0.0190624 0.00601399 0.0481649
49 1 Mg 1.25915 7.12349 0 1.2 1 0.0010793 0.00318629 0.0012907 0.0040972 0.00200832 0.0072307 0.00286776 0.0201023 0.00281551 0.008138 0.00276481 0.0275406 0.00349296 0.0144485 0.00371097 0.0274761 0.00485243 0.0175237 0.00477617 0.0456535
50 3 O 2.84547 8.44087 5.78248 -1.2 1 0.00360924 0.00487646 0.00142749 0.00501794 0.00255858 0.00696944 0.00326545 0.0205692 0.00282463 0.00861725 0.00343666 0.0266102 0.00562577 0.016303 0.00568864 0.0294759 0.00621203 0.021453 0.00757029 0.0489457
51 1 Mg -1.59284 7.16481 1.4948 1.2 1 0.000784712 0.00354593 0.00133459 0.00463027 0.001957 0.00651272 0.00278844 0.0198977 0.00285273 0.00782224 0.00184796 0.0277277 0.00330357 0.0154871 0.00379274 0.0273009 0.0045513 0.0178407 0.00575329 0.0463008
52 2 Si 0.240329 5.09994 1.4948 2.4 1 0.000892316 0.00367894 0.0020025 0.0039227 0.00198608 0.00680719 0.00312578 0.0188825 0.00299697 0.00724386 0.00228335 0.0260579 0.00281426 0.0145401 0.00412644 0.024952 0.00501413 0.0171108 0.00539313 0.0443957
53 3 O 0.234538 3.48671 1.4948 -1.2 1 0.0015595 0.00372027 0.00266632 0.00428349 0.00192614 0.00647185 0.00256126 0.0178301 0.00325427 0.00689305 0.00239393 0.0246102 0.00334401 0.0135849 0.00408951 0.024059 0.00538265 0.0161441 0.00548286 0.0421773
54 3 O 6.85564 6.07396 1.4948 -1.2 1 0.000751347 0.00295495 0.00214303 0.00479901 0.00269602 0.00629787 0.00317315 0.0197918 0.00310989 0.00754258 0.00221662 0.0276344 0.00322953 0.014688 0.00485673 0.0269492 0.00560195 0.0179879 0.00626798 0.0452247
55 3 O -0.429565 5.80612 0.196716 -1.2 1 0.000993564 0.0033909 0.0021701 0.0040823 0.00195638 0.0071638 0.00253363 0.0195245 0.00285686 0.00830562 0.00253148 0.0257848 0.0025531 0.0143132 0.00385782 0.0259715 0.00506811 0.0169533 0.00585903 0.0448656
56 3 O -0.473377 5.80612 2.79288 -1.2 1 0.00162048 0.00368761 0.00194282 0.00437123 0.00253813 0.00680864 0.00309853 0.0190539 0.00308472 0.00806832 0.00299932 0.0259152 0.00387918 0.014502 0.00450454 0.0264391 0.00618014 0.0185804 0.00683434 0.0454611
57 1 Mg 6.40169 9.49799 0 1.2 1 0.00059141 0.00388321 0.00149033 0.0047542 0.00164266 0.00829041 0.00214135 0.021064 0.00166816 0.0088062 0.00187242 0.0287505 0.00254936 0.0147881 0.00276464 0.0297986 0.00388387 0.0179786 0.00424737 0.0472063
58 1 Mg 3.64209 14.2057 1.4948 1.2 1 0.00171473 0.00319252 0.00141974 0.00477738 0.00167348 0.00880404 0.00181312 0.0215411 0.00176501 0.00863569 0.00233792 0.028381 0.00265696 0.0160469 0.00318972 0.0297927 0.0034676 0.0169566 0.00351675 0.04901
59 2 Si 5.45748 11.5215 1.4948 2.4 1 0.00144467 0.00329502 0.00165986 0.00478007 0.00172153 0.00826052 0.00231514 0.0210659 0.00159561 0.00823638 0.00181616 0.0287752 0.00267503 0.0161257 0.00342587 0.0295494 0.00414348 0.0170517 0.00385254 0.0488776
60 3 O 5.51101 13.1348 1.4948 -1.2 1 0.00158941 0.0034165 0.00169199 0.00486787 0.00149278 0.0090928 0.00190974 0.0212163 0.00196526 0.00866395 0.00179534 0.0293229 0.00222693 0.0160708 0.00301047 0.0300387 0.00361014 0.0167275 0.00357759 0.0488915
61 3 O 1.83851 10.5475 1.4948 -1.2 1 0.000641593 0.00354837 0.0015049 0.00494756 0.00190231 0.00777096 0.00250177 0.0216715 0.00178482 0.00836834 0.00223346 0.0293887 0.00269453 0.0158433 0.00324677 0.029974 0.00402183 0.0179622 0.00356759 0.0490167
62 3 O 4.7611 10.8154 0.196716 -1.2 1 0.000422956 0.00306626 0.00168767 0.00476707 0.00154124 0.00836581 0.00237671 0.0212975 0.00149413 0.00858307 0.00189908 0.0282167 0.00309005 0.0156572 0.003792 0.0296686 0.00368861 0.0171003 0.00361375 0.0482267
63 1 Mg 6.35203 9.49799 2.9896 1.2 1 0.00168539 0.00368348 0.0016983 0.00479594 0.00260339 0.00767831 0.00342292 0.0203462 0.00318699 0.00873593 0.00231381 0.0291447 0.00387507 0.0160732 0.00346197 0.0292096 0.00433049 0.0186478 0.00552333 0.0483134
64 3 O 4.71833 10.8154 2.79288 -1.2 1 0.00242686 0.00349521 0.00147162 0.00469144 0.00202949 0.00833664 0.00234586 0.0212618 0.00218522 0.00892578 0.00218938 0.0282052 0.00356973 0.0157867 0.00403418 0.0302818 0.00505807 0.018462 0.00567129 0.0496309
65 1 Mg -1.0438 9.53931 4.4844 1.2 1 0.00321819 0.00446125 0.00171076 0.0045509 0.00303818 0.00704145 0.00261913 0.0208979 0.00278665 0.00843003 0.00296202 0.0280769 0.00404963 0.0165104 0.00442452 0.0297275 0.00632789 0.0201476 0.00715554 0.0497411
66 2 Si -2.8604 12.2234 4.4844 2.4 1 0.00337301 0.00396091 0.00173087 0.00464632 0.00263376 0.00788441 0.00306873 0.0217262 0.00287379 0.00862476 0.00250936 0.0278281 0.00427158 0.0165496 0.00444142 0.0299306 0.00552579 0.019717 0.00647889 0.0512235
67 3 O -2.91391 10.6102 4.4844 -1.2 1 0.00356644 0.00432009 0.00176664 0.00449506 0.00260336 0.00737121 0.00321089 0.0203882 0.00257364 0.0078338 0.00226715 0.0282857 0.00452741 0.0158151 0.00424231 0.0305414 0.00576158 0.0199292 0.00674589 0.0501966
68 3 O 0.7596 13.1975 4.4844 -1.2 1 0.00369527 0.00406307 0.00177039 0.00499652 0.0027994 0.00871636 0.00271819 0.0220459 0.0027679 0.0083969 0.0027817 0.0283262 0.00421593 0.0164013 0.00436703 0.0302242 0.00585438 0.0195395 0.00678293 0.0510986
69 3 O -2.12001 12.9296 3.18632 -1.2 1 0.00299045 0.00377726 0.0017799 0.00431232 0.0024692 0.00773562 0.00238656 0.0217486 0.00246132 0.00844129 0.00242263 0.0278901 0.00389078 0.0164728 0.00443047 0.0303487 0.00507684 0.0184042 0.00523911 0.0505778
70 3 O -2.16532 12.9296 5.78248 -1.2 1 0.0050728 0.00444363 0.00155864 0.00455107 0.00261156 0.0069628 0.00238569 0.0217177 0.00242081 0.00796861 0.00265045 0.0271465 0.00424262 0.0171232 0.0048078 0.0311144 0.00605792 0.0210066 0.00695812 0.0526064
71 1 Mg 1.29891 11.8725 2.9896 1.2 1 0.00229095 0.00347913 0.00164066 0.0048968 0.0022951 0.00804669 0.0029567 0.0209437 0.00248458 0.00846184 0.00216326 0.0289908 0.00355988 0.0163924 0.00338237 0.0300593 0.00446048 0.0180677 0.00506522 0.0495317
72 1 Mg 4.10033 11.8312 4.4844 1.2 1 0.00330245 0.00380839 0.00203508 0.00460934 0.00238685 0.00741121 0.00265589 0.0214893 0.00256573 0.00841116 0.0028406 0.0283216 0.00390487 0.0174442 0.00535488 0.0301112 0.00630533 0.0196389 0.00620219 0.0509879
73 2 Si 2.27333 13.896 4.4844 2.4 1 0.00368578 0.00365124 0.00165833 0.00501592 0.00285077 0.00790952 0.00318404 0.0215945 0.00247761 0.00825963 0.00284826 0.028052 0.00405843 0.0169516 0.00469738 0.0301918 0.00551594 0.0190721 0.00619328 0.0518635
74 3 O 2.28634 15.5093 4.4844 -1.2 1 0.00426144 0.00405196 0.00157131 0.0046111 0.00288493 0.00749508 0.00283403 0.0209362 0.00266135 0.00768028 0.00220751 0.0282666 0.0035251 0.0161507 0.00420414 0.030642 0.00559426 0.0187511 0.00622476 0.0516675
75 3 O -4.34533 12.922 4.4844 -1.2 1 0.00333219 0.0040647 0.00189394 0.00466859 0.00264615 0.00853132 0.00291158 0.0217822 0.00284479 0.00855517 0.00264439 0.0285914 0.00422704 0.0164707 0.00483872 0.0303497 0.00634447 0.0198997 0.0072919 0.0510635
76 3 O 2.98455 13.1899 3.18632 -1.2 1 0.00296078 0.00350397 0.00159012 0.00463537 0.00247291 0.00797705 0.00232808 0.0218769 0.00223234 0.00856962 0.00225857 0.0279191 0.00360214 0.0162472 0.00444694 0.0299969 0.00531702 0.0184743 0.0056035 0.0503162
77 1 Mg 1.34779 11.8725 0 1.2 1 0.000949536 0.00311388 0.000995211 0.00488285 0.00138576 0.00883227 0.00152837 0.021282 0.00126126 0.0093054 0.00200569 0.0290988 0.00289172 0.0148794 0.00306699 0.0299533 0.0034601 0.0172986 0.00330158 0.0476175
78 3 O 2.93934 13.1899 5.78248 -1.2 1 0.00409364 0.00437399 0.00177053 0.00471483 0.00279857 0.00703558 0.00258335 0.0216363 0.00260125 0.00844789 0.00312258 0.0269443 0.00457963 0.0169729 0.00512302 0.031129 0.00612922 0.0214396 0.0064423 0.0526574
79 1 Mg -1.50344 11.9138 1.4948 1.2 1 0.000838821 0.003744 0.00123311 0.00463845 0.00143191 0.0082324 0.00194094 0.021716 0.00245609 0.00853402 0.00160266 0.0287869 0.00358374 0.0161623 0.0033705 0.029882 0.00352783 0.0175567 0.00369862 0.0488943
80 2 Si 0.326006 9.84894 1.4948 2.4 1 0.000268755 0.00358151 0.00106248 0.00505697 0.00192583 0.00819369 0.00220118 0.0211175 0.00220532 0.00849538 0.00163567 0.0286687 0.0030427 0.0157511 0.0036387 0.0289582 0.00365894 0.0178298 0.00361766 0.0483328
81 3 O 0.317364 8.23571 1.4948 -1.2 1 0.00106104 0.00357281 0.00107929 0.00445827 0.00193341 0.00775331 0.00223058 0.0202963 0.00254913 0.00802391 0.00181253 0.0287744 0.00342969 0.0157557 0.00388586 0.0286505 0.00438352 0.0178162 0.00435132 0.0474649
82 3 O 6.94307 10.823 1.4948 -1.2 1 0.000951547 0.00380111 0.00141704 0.00458661 0.00176833 0.00775655 0.0026316 0.0218922 0.00245295 0.00838608 0.00162725 0.0293644 0.00300057 0.0157143 0.00346661 0.0300954 0.00381569 0.0180914 0.00421497 0.0489359
83 3 O -0.343122 10.5551 0.196716 -1.2 1 0.000214748 0.00336532 0.000998578 0.00475866 0.00147532 0.0084658 0.00200409 0.0213683 0.00178854 0.00901931 0.00199049 0.0283073 0.0033426 0.015358 0.00406651 0.0294812 0.00367502 0.0174886 0.00356475 0.048029
84 3 O -0.385966 10.5551 2.79288 -1.2 1 0.00267239 0.0039441 0.00125758 0.00452895 0.00246142 0.00806334 0.00229702 0.0214308 0.0020372 0.00894834 0.00244162 0.0277394 0.00376028 0.0158722 0.00404027 0.0300717 0.00496893 0.0186798 0.00519246 0.0494751
85 1 Mg 6.49448 14.247 0 1.2 1 0.00110306 0.00324058 0.00156652 0.00475525 0.00104858 0.00918362 0.0012804 0.0212231 0.00131182 0.00858105 0.00153087 0.0289034 0.00181127 0.0154394 0.00239263 0.0301372 0.0030827 0.0164948 0.00261665 0.0477763
86 1 Mg 3.74457 18.9547 1.4948 1.2 1 0.00239484 0.00322062 0.00138541 0.00421231 0.00180731 0.00855698 0.00140856 0.0221753 0.00191882 0.00793721 0.00238146 0.027635 0.00262262 0.0166129 0.00357642 0.0289221 0.00353498 0.0163353 0.00311926 0.0495083
87 2 Si 5.55495 16.2705 1.4948 2.4 1 0.00220938 0.00309488 0.00130826 0.00468479 0.00184087 0.00892845 0.00154898 0.0214448 0.00153909 0.00798076 0.0014819 0.0286466 0.00240093 0.0163064 0.00290439 0.0291178 0.00357295 0.0158707 0.00350976 0.0490929
88 3 O 5.6115 17.8838 1.4948 -1.2 1 0.00243973 0.00311363 0.00155779 0.00442642 0.00165465 0.00922136 0.00157263 0.0216803 0.00196964 0.00785337 0.00163712 0.0286545 0.00214313 0.0165574 0.00277136 0.0290098 0.00314751 0.0157872 0.00339841 0.0492521
89 3 O 1.93416 15.2965 1.4948 -1.2 1 0.00175519 0.00320012 0.00151284 0.00480516 0.00186732 0.00840106 0.00214068 0.0219098 0.00189949 0.00810735 0.00154126 0.0291465 0.00227842 0.016179 0.00298927 0.0298364 0.00353347 0.0166491 0.00320678 0.0496596
90 3 O 4.85636 15.5644 0.196716 -1.2 1 0.00159318 0.00258245 0.00143187 0.00478887 0.00132349 0.00917025 0.00143801 0.0213558 0.00113511 0.00814779 0.00175573 0.0281118 0.00261661 0.0159548 0.00345242 0.0294894 0.00312718 0.0158652 0.00288026 0.0485576
91 1 Mg 6.44662 14.247 2.9896 1.2 1 0.0018621 0.00367344 0.00149873 0.00464132 0.00239136 0.00859393 0.00282196 0.0208212 0.00275446 0.00871476 0.0018175 0.0291812 0.00311899 0.0164413 0.00314434 0.0297279 0.00399087 0.017685 0.00463076 0.0496543
92 3 O 4.81537 15.5644 2.79288 -1.2 1 0.00299466 0.00327645 0.00146365 0.00449224 0.00235971 0.00880177 0.0017979 0.0219384 0.0017354 0.00857189 0.00182921 0.0279661 0.00300486 0.0165157 0.00384362 0.0297116 0.00466018 0.0173553 0.00497211 0.050213
93 1 Mg -0.948271 14.2883 4.4844 1.2 1 0.00416841 0.00366238 0.00165584 0.00436474 0.00279573 0.00793529 0.00271812 0.0215423 0.00276934 0.00836562 0.00294247 0.0283025 0.00372535 0.0172177 0.00492331 0.030273 0.00595311 0.0188757 0.00649434 0.0514125
94 2 Si -2.75928 16.9724 4.4844 2.4 1 0.00403735 0.00382027 0.00163767 0.00445112 0.00270604 0.00800334 0.00293476 0.0219412 0.00276516 0.00777824 0.00240544 0.0276821 0.00352505 0.0170644 0.00440085 0.0297338 0.00497634 0.0185634 0.00582306 0.0523461
95 3 O -2.81617 15.3592 4.4844 -1.2 1 0.0043749 0.00379634 0.00170908 0.00438021 0.00283967 0.00754649 0.00293862 0.0210717 0.0027203 0.00772238 0.00209077 0.0283853 0.00363086 0.0163809 0.00414268 0.0306548 0.00591467 0.0186692 0.00678041 0.0516519
96 3 O 0.862762 17.9465 4.4844 -1.2 1 0.00441659 0.00416417 0.00149256 0.00451048 0.00286139 0.00850911 0.00268562 0.0221584 0.00257803 0.00772623 0.00270138 0.028353 0.0037801 0.0170187 0.0044421 0.0296589 0.0056935 0.018474 0.00609834 0.0519562
97 3 O -2.0185 17.6786 3.18632 -1.2 1 0.00358672 0.00361491 0.00176852 0.00389496 0.00246697 0.00755913 0.00221404 0.0221361 0.0023678 0.00790906 0.00230635 0.027529 0.00351475 0.0167147 0.00445709 0.0300683 0.0048251 0.0176743 0.00484855 0.0512571
98 3 O -2.06164 17.6786 5.78248 -1.2 1 0.00516719 0.00428229 0.00129043 0.00429682 0.00280751 0.00691447 0.00236458 0.0219686 0.00252724 0.00765425 0.0028576 0.0272136 0.00349237 0.0173343 0.00520078 0.0311075 0.00582263 0.0202348 0.00621811 0.0538282
99 1 Mg 1.39817 16.6215 2.9896 1.2 1 0.0029024 0.00336552 0.001729 0.00468293 0.00258434 0.00839948 0.00280827 0.0212253 0.00258767 0.00810009 0.0019624 0.0286732 0.0027002 0.0166453 0.00338159 0.0296218 0.00396581 0.0169 0.00441021 0.050068
100 1 Mg 4.20062 16.5802 4.4844 1.2 1 0.00389583 0.00366485 0.00183863 0.00434825 0.0025645 0.00766685 0.00247336 0.0215795 0.00302784 0.00763458 0.00278823 0.0280864 0.00353724 0.0176838 0.0055425 0.0301475 0.00621947 0.0187535 0.0060527 0.0519279
101 2 Si 2.37796 18.645 4.4844 2.4 1 0.00419577 0.00356269 0.00146731 0.00448166 0.0029048 0.00785522 0.00292178 0.0224184 0.00256436 0.00794759 0.00255061 0.0276679 0.00355537 0.0174364 0.00455716 0.0295077 0.00524974 0.018002 0.00559321 0.0527568
102 3 O 2.39434 20.2583 4.4844 -1.2 1 0.00437154 0.0040005 0.00136737 0.00428117 0.00279777 0.0069361 0.00253878 0.0214256 0.00261717 0.00724223 0.00191473 0.0282215 0.00334027 0.0168784 0.00412707 0.0301106 0.00562364 0.0179693 0.00644233 0.0522228
103 3 O -4.24274 17.671 4.4844 -1.2 1 0.00409699 0.00419316 0.00166753 0.00449606 0.00266057 0.00858655 0.00270962 0.0222582 0.0027701 0.00781193 0.00243009 0.028123 0.00337597 0.0168873 0.00471054 0.0300921 0.00586869 0.0190567 0.00639889 0.0521889
104 3 O 3.08659 17.9389 3.18632 -1.2 1 0.00338465 0.00314785 0.00165259 0.00399459 0.00253951 0.00778015 0.00206616 0.0221995 0.00240266 0.00800282 0.00219806 0.0274749 0.00318236 0.0166377 0.00443882 0.0296152 0.00529231 0.0175935 0.00533522 0.0510575
105 1 Mg 1.44478 16.6215 0 1.2 1 0.00206578 0.00297181 0.00116396 0.00461328 0.00140337 0.00899972 0.00123325 0.0214515 0.00126768 0.00815113 0.00153689 0.0284896 0.00237186 0.0156566 0.00231532 0.0294651 0.00285814 0.0159526 0.0027775 0.048207
106 3 O 3.0436 17.9389 5.78248 -1.2 1 0.00473262 0.00413259 0.00137615 0.00464008 0.0025652 0.00700048 0.00246293 0.0221332 0.00229485 0.00771841 0.00271001 0.027217 0.00382297 0.0172866 0.00507955 0.0309735 0.00611151 0.0204712 0.0063805 0.053846
107 1 Mg -1.40524 16.6628 1.4948 1.2 1 0.00175678 0.00335416 0.00138237 0.00447237 0.00168584 0.00872493 0.00189066 0.0221921 0.00187514 0.00827246 0.00193121 0.0281835 0.00311472 0.0166815 0.00295212 0.0294554 0.00273166 0.0165945 0.00294313 0.0493096
108 2 Si 0.420358 14.5979 1.4948 2.4 1 0.00146287 0.00303324 0.00156713 0.00492418 0.00203518 0.00907461 0.00192166 0.0213531 0.00160713 0.0082513 0.00154651 0.0285459 0.00302661 0.016361 0.003533 0.0290348 0.00331566 0.0164898 0.00329838 0.0491237
109 3 O 0.408732 12.9847 1.4948 -1.2 1 0.00129929 0.00307186 0.00119559 0.00489817 0.001879 0.00914664 0.00167491 0.0211589 0.00213756 0.00840167 0.00161727 0.0290954 0.0031046 0.0160679 0.00303098 0.0299188 0.0030998 0.0170221 0.00360397 0.0489804
110 3 O 7.03923 15.572 1.4948 -1.2 1 0.00157116 0.00335019 0.0014095 0.00447939 0.00190791 0.00821426 0.00223727 0.021764 0.00223031 0.00815841 0.00164498 0.029114 0.00260635 0.016287 0.00292643 0.0297743 0.00329544 0.016782 0.00381102 0.0493263
111 3 O -0.248332 15.3041 0.196716 -1.2 1 0.00155106 0.00299875 0.00113168 0.00466858 0.00116778 0.00908656 0.00174077 0.0213369 0.00127823 0.00829784 0.00185473 0.0280238 0.0029793 0.0158145 0.0037624 0.0294509 0.00299335 0.0161057 0.00293321 0.0484861
112 3 O -0.289436 15.3041 2.79288 -1.2 1 0.00327714 0.00343964 0.00130353 0.00438057 0.0025143 0.00872551 0.00204772 0.0219508 0.00184612 0.00876467 0.00196521 0.0275199 0.00313815 0.0165948 0.00365232 0.0296938 0.00431664 0.0175472 0.00459867 0.050165
113 1 Mg 6.59566 18.996 0 1.2 1 0.00142717 0.00304635 0.00166846 0.00435335 0.000880344 0.00869604 0.00102574 0.0218911 0.00116159 0.00779083 0.00147358 0.0280883 0.00209839 0.0162891 0.00220209 0.0287124 0.00266904 0.015787 0.00260156 0.0481783
114 1 Mg 3.85574 23.7037 1.4948 1.2 1 0.0023236 0.00295701 0.00129984 0.00405616 0.00173595 0.00749659 0.00143063 0.0230514 0.00175754 0.00748662 0.00204552 0.0269797 0.00254741 0.0176718 0.00383614 0.0284967 0.00342084 0.0170143 0.00344408 0.0503794
115 2 Si 5.66125 21.0195 1.4948 2.4 1 0.0024113 0.00278843 0.00120628 0.00427685 0.00194084 0.00821622 0.00156694 0.021818 0.00144233 0.00743499 0.00144362 0.0278574 0.00257849 0.0173818 0.00286223 0.028053 0.00346041 0.0157642 0.00377983 0.0499053
116 3 O 5.72074 22.6328 1.4948 -1.2 1 0.00267515 0.00295348 0.00158557 0.00401447 0.00179656 0.00822858 0.00170084 0.022238 0.00182404 0.00724952 0.00120022 0.027683 0.00216157 0.017414 0.00297226 0.0283824 0.00324891 0.0160778 0.00360918 0.0498136
117 3 O 2.03867 20.0455 1.4948 -1.2 1 0.00222054 0.00325457 0.00153673 0.00422886 0.00176806 0.00777349 0.00208573 0.0223042 0.00220603 0.00743853 0.00158346 0.0282404 0.00221122 0.0172261 0.00253898 0.0290046 0.00346135 0.0161394 0.00345103 0.0499066
118 3 O 4.96004 20.3134 0.196716 -1.2 1 0.00199459 0.00241351 0.00138718 0.00415956 0.00123408 0.00827983 0.00111474 0.0217572 0.000975006 0.0074739 0.00155885 0.0275629 0.00258843 0.0165747 0.00381209 0.0286663 0.00294034 0.0151665 0.00271244 0.0488767
119 1 Mg 6.55057 18.996 2.9896 1.2 1 0.00246862 0.003582 0.00137566 0.00416727 0.00237762 0.00816808 0.00262884 0.0213635 0.00255384 0.00796333 0.00171511 0.0287174 0.00290444 0.0169795 0.0031878 0.0290077 0.00400007 0.0169918 0.00457729 0.0503024