ITEM: TIMESTEP
25200
ITEM: NUMBER OF ATOMS
10500
ITEM: BOX BOUNDS xy xz yz pp pp pp
0	15.2977	5.09925
0	118.725	0
0	89.688	0
ITEM: ATOMS id type element xu yu zu q Q_1 Q_2 Q_3 Q_4 Q_5 Q_6 Q_7 Q_8 Q_9 Q_10 Q_11 Q_12 Q_13 Q_14 Q_15 Q_16 Q_17 Q_18 Q_19 Q_20 Q_21
1 1 Mg 6.2404 -6.37941e-06 0 1.2 1 0.00177684 0.00417728 0.00128834 0.00485368 0.00131379 0.00537203 0.00200178 0.0161353 0.00214394 0.00578198 0.00232241 0.0217334 0.00254211 0.0135785 0.00363103 0.0207099 0.00416183 0.0140507 0.00391109 0.0405604
2 1 Mg 3.46349 4.70768 1.4948 1.2 1 0.00105838 0.00352341 0.00138015 0.00429261 0.00191333 0.00613941 0.00351956 0.0186107 0.00287599 0.0070122 0.00296705 0.0257217 0.00341745 0.0139846 0.00453139 0.0253877 0.00532258 0.017016 0.00542469 0.043891
3 2 Si 5.2885 2.02354 1.4948 2.4 1 0.00080679 0.0033161 0.00191189 0.0045173 0.00179923 0.00563872 0.00245477 0.0167284 0.00243772 0.00608718 0.00206716 0.0229273 0.00284516 0.0135693 0.00364719 0.0216531 0.00395655 0.0151829 0.00421387 0.0409941
4 3 O 5.33628 3.63678 1.4948 -1.2 1 0.000486911 0.0028083 0.00140965 0.00462484 0.00207558 0.00624936 0.00289215 0.0176542 0.00227444 0.00666999 0.00204272 0.0251084 0.00267211 0.0136435 0.00435752 0.024204 0.00503356 0.0163441 0.0056934 0.0427892
5 3 O 1.67294 1.04952 1.4948 -1.2 1 0.00191001 0.00348047 0.00194819 0.00413109 0.00126957 0.00559844 0.00236626 0.0167537 0.00236243 0.00620126 0.00211719 0.0226022 0.0026285 0.0128978 0.00361805 0.0220727 0.00450813 0.0155365 0.00467637 0.040187
6 3 O 4.59532 1.31737 0.196716 -1.2 1 0.00145575 0.00298329 0.00193113 0.00443514 0.00188886 0.00551265 0.0023155 0.0170888 0.00261611 0.00619623 0.00213767 0.022241 0.00330175 0.0129422 0.00430261 0.0216833 0.00409308 0.0147008 0.00450906 0.0410725
7 1 Mg 6.18956 -6.37941e-06 2.9896 1.2 1 0.00126201 0.00460687 0.00125901 0.00423646 0.00107275 0.00563189 0.00234659 0.0159589 0.0025539 0.00558241 0.00204197 0.0222415 0.0026318 0.0134857 0.00358026 0.020872 0.00450079 0.0147744 0.00504342 0.0390394
8 3 O 4.55118 1.31737 2.79288 -1.2 1 0.00118125 0.0043432 0.00187865 0.00416758 0.00171517 0.00561194 0.00265124 0.0167505 0.00234406 0.00694794 0.00236154 0.0216017 0.0033204 0.0124156 0.00346542 0.0218182 0.00486226 0.0154594 0.00515035 0.0399838
9 1 Mg -1.20682 0.0413099 4.4844 1.2 1 0.000857425 0.00320022 0.00158669 0.0045146 0.00119354 0.00523076 0.00197725 0.0160959 0.00213038 0.0059598 0.00215286 0.022625 0.0028687 0.0119586 0.00348112 0.0209753 0.00499821 0.0155566 0.00505521 0.0384683
10 2 Si -3.0337 2.72544 4.4844 2.4 1 0.000961653 0.00344932 0.00164765 0.00483264 0.00209558 0.00589566 0.00328766 0.0164512 0.0031085 0.0062386 0.00250813 0.0241275 0.00343468 0.01305 0.00381697 0.0228463 0.00537615 0.017376 0.00638351 0.039746
11 3 O -3.08099 1.11221 4.4844 -1.2 1 0.00117613 0.00410885 0.00161477 0.00413739 0.00121427 0.00519397 0.00237169 0.0159299 0.00280579 0.00560988 0.00231517 0.0222873 0.00316885 0.0115288 0.00345451 0.0215121 0.00492193 0.016005 0.00545595 0.0383305
12 3 O 0.582463 3.69946 4.4844 -1.2 1 0.00194686 0.00443799 0.00210629 0.00404975 0.00261787 0.00650886 0.00337772 0.0170176 0.00356995 0.00668512 0.00324404 0.0250761 0.00430609 0.01289 0.0044074 0.0245316 0.00693326 0.018547 0.00813828 0.041561
13 3 O -2.29524 3.43162 3.18632 -1.2 1 0.000648905 0.00300822 0.00239686 0.00444985 0.00210196 0.00586184 0.00293024 0.0176256 0.00310868 0.00672755 0.00259318 0.0245597 0.00341648 0.0130219 0.00475446 0.024408 0.00603533 0.0176859 0.00653849 0.0419242
14 3 O -2.34216 3.43162 5.78248 -1.2 1 0.001937 0.00359268 0.00122035 0.00458628 0.00244001 0.00581801 0.00330967 0.0166024 0.00311369 0.00709914 0.0026677 0.0237323 0.00455633 0.0124346 0.00405724 0.0235962 0.00621156 0.0189377 0.00748097 0.0400476
15 1 Mg 1.12778 2.37449 2.9896 1.2 1 0.00169298 0.00368176 0.00222363 0.00424559 0.00215208 0.00578355 0.00301616 0.0165996 0.00273666 0.00632329 0.00232363 0.023469 0.00342097 0.013038 0.00354695 0.022205 0.00481756 0.0163943 0.0054958 0.0408418
16 1 Mg 3.92855 2.33318 4.4844 1.2 1 0.00101415 0.00451205 0.0013746 0.00393889 0.00168547 0.00546043 0.00350075 0.0166307 0.00313651 0.00628842 0.00298314 0.0227906 0.00373175 0.0132563 0.00518744 0.022076 0.00637627 0.0169795 0.00693867 0.0397908
17 2 Si 2.09341 4.39804 4.4844 2.4 1 0.0014447 0.00410674 0.00192426 0.00382167 0.00288917 0.00595658 0.00390964 0.0180122 0.00340564 0.00667414 0.00346277 0.0249134 0.00466372 0.0141244 0.00472241 0.024734 0.00661873 0.0184414 0.00800749 0.0433287
18 3 O 2.09991 6.01128 4.4844 -1.2 1 0.00226515 0.00451308 0.00149674 0.00365459 0.00273978 0.00646584 0.00323713 0.0190074 0.00265894 0.00719996 0.0029563 0.0267425 0.0042155 0.0144001 0.00477437 0.0274977 0.00688392 0.0193738 0.00796679 0.0451746
19 3 O -4.52137 3.42402 4.4844 -1.2 1 0.000846636 0.00388967 0.00199446 0.00455316 0.00221351 0.00695959 0.00351328 0.0166531 0.00319518 0.00617711 0.00297015 0.0239176 0.00414388 0.0128428 0.00407137 0.0229858 0.0062362 0.017618 0.00727614 0.0408365
20 3 O 2.80834 3.69187 3.18632 -1.2 1 0.000831809 0.00382944 0.00159792 0.00341704 0.00200141 0.00565055 0.00299968 0.0172219 0.00315285 0.00654634 0.00287532 0.0242356 0.00369515 0.0129252 0.00495001 0.023872 0.00575162 0.0169368 0.00615953 0.0422305
21 1 Mg 1.17857 2.37449 0 1.2 1 0.00201408 0.00340056 0.00193509 0.00409443 0.00149916 0.0053951 0.00241649 0.0171337 0.00242169 0.00658374 0.00282332 0.0231028 0.00284467 0.013279 0.00351612 0.021909 0.00427246 0.0147488 0.00468808 0.0409838
22 3 O 2.76143 3.69187 5.78248 -1.2 1 0.00209232 0.00441716 0.00147886 0.00386833 0.00214019 0.00540799 0.0028773 0.0173109 0.003253 0.00715176 0.00291637 0.0235805 0.00472546 0.0131318 0.00527152 0.0234264 0.00662628 0.0184828 0.00775778 0.0409175
23 1 Mg -1.67381 2.41581 1.4948 1.2 1 0.00163359 0.00278807 0.00246053 0.00481974 0.00145239 0.0059173 0.00240007 0.0165184 0.00254928 0.00636499 0.0020693 0.0239275 0.00255279 0.0141794 0.00280383 0.022428 0.0046418 0.0160267 0.00480494 0.041561
24 2 Si 0.16286 0.350945 1.4948 2.4 1 0.0022849 0.00270822 0.00239036 0.00433687 0.0011738 0.00623642 0.00276787 0.0163209 0.00204917 0.00529354 0.00191615 0.0226827 0.00242632 0.0135983 0.00314811 0.0209836 0.00468692 0.0147439 0.00434648 0.0403111
25 3 O 0.15972 -1.26229 1.4948 -1.2 1 0.00258885 0.00284193 0.00260026 0.00436817 0.00172451 0.00584811 0.00251471 0.0163633 0.00211078 0.00551963 0.00244457 0.0224641 0.00259947 0.0138818 0.00293695 0.0218509 0.00421061 0.0146102 0.00399125 0.0405889
26 3 O 6.77654 1.32496 1.4948 -1.2 1 0.00122936 0.00374565 0.00121096 0.0046592 0.00107087 0.00589919 0.00231508 0.0166968 0.00236318 0.00551383 0.00181487 0.0234802 0.00271832 0.0136898 0.00359069 0.0219849 0.00474295 0.0152245 0.00459888 0.0408169
27 3 O -0.508028 1.05712 0.196716 -1.2 1 0.00186829 0.0026952 0.00313692 0.00408824 0.00124869 0.0055074 0.00239984 0.0170058 0.0018219 0.00660962 0.00259259 0.0219215 0.00274877 0.0129649 0.00327665 0.0214994 0.00444352 0.0149237 0.00446023 0.0403035
28 3 O -0.552171 1.05712 2.79288 -1.2 1 0.00138837 0.00239191 0.00273612 0.00415766 0.00136835 0.00575564 0.00238553 0.0161926 0.00240282 0.00633643 0.00163815 0.0227577 0.00296457 0.0118803 0.00349593 0.0218165 0.00510956 0.0157866 0.00478289 0.0396293
29 1 Mg 6.31713 4.74899 0 1.2 1 0.0010155 0.0027386 0.00166154 0.00441157 0.00239426 0.00599762 0.0033388 0.018033 0.00276833 0.00709665 0.00220912 0.0251605 0.00310647 0.0138116 0.00429623 0.0248319 0.00477808 0.0161769 0.00581527 0.0430207
30 1 Mg 3.54847 9.45668 1.4948 1.2 1 0.00136568 0.00311748 0.00186173 0.00439132 0.00216787 0.00765128 0.00305809 0.0212517 0.00162145 0.00835193 0.00212136 0.0285042 0.00324691 0.015526 0.00371596 0.0292054 0.00419796 0.0180752 0.00361609 0.0488287
31 2 Si 5.36879 6.77254 1.4948 2.4 1 0.000447563 0.00304538 0.00182384 0.00488685 0.00273385 0.00687136 0.00369051 0.0195549 0.0028215 0.00778906 0.00245475 0.0276236 0.0032495 0.0152715 0.00435624 0.0269971 0.0046152 0.0172575 0.00501325 0.0466397
32 3 O 5.41937 8.38578 1.4948 -1.2 1 0.000947948 0.00305641 0.00175991 0.00477729 0.00229552 0.00768294 0.00307525 0.0208943 0.00230478 0.00837367 0.00242272 0.0290367 0.00251007 0.0154883 0.00321952 0.0291083 0.0046255 0.0173438 0.00462859 0.0480946
33 3 O 1.75158 5.79852 1.4948 -1.2 1 0.000856172 0.00359873 0.00173537 0.00386562 0.00234703 0.00592737 0.00325528 0.0195219 0.00277048 0.00729207 0.00264985 0.0278093 0.00308905 0.0154561 0.00366291 0.0268637 0.00539682 0.017491 0.00541523 0.0457511
34 3 O 4.67421 6.06637 0.196716 -1.2 1 0.000623929 0.00310597 0.00156063 0.00465022 0.00201404 0.006805 0.00301579 0.0198802 0.00244178 0.00815193 0.0022164 0.0261614 0.00364899 0.014319 0.00428563 0.0267429 0.00465826 0.0166142 0.00536299 0.0452281
35 1 Mg 6.26654 4.74899 2.9896 1.2 1 0.000888 0.00335369 0.00174988 0.00487713 0.0026842 0.00665236 0.00378253 0.0177647 0.00362705 0.00704807 0.00232839 0.0257979 0.00384441 0.0143864 0.00521347 0.0249608 0.00606252 0.0174416 0.00691824 0.0434101
36 3 O 4.63043 6.06637 2.79288 -1.2 1 0.00153039 0.00337114 0.00170244 0.00468058 0.00218449 0.00679323 0.00351569 0.0193006 0.00321452 0.00778539 0.00247377 0.0262193 0.00421017 0.0145491 0.00478424 0.0271031 0.00588891 0.0181063 0.00664499 0.0454918
37 1 Mg -1.12976 4.79031 4.4844 1.2 1 0.00183817 0.003806 0.00174253 0.00440315 0.00235486 0.00597026 0.00332308 0.0176518 0.00348635 0.00712515 0.00311995 0.0259113 0.00428622 0.0141559 0.00474402 0.0257108 0.00745945 0.0191996 0.00778496 0.0436586
38 2 Si -2.9517 7.47444 4.4844 2.4 1 0.00238318 0.00362392 0.00157103 0.00481212 0.00276883 0.00644995 0.00371359 0.0201295 0.00313414 0.00781525 0.00297407 0.0277648 0.00461778 0.0157394 0.00522924 0.027894 0.0066752 0.0190392 0.00808925 0.0473106
39 3 O -3.00198 5.86121 4.4844 -1.2 1 0.00213643 0.00391403 0.00117736 0.00478373 0.0030307 0.00631976 0.00415496 0.0184649 0.00340169 0.00760575 0.00281151 0.0261564 0.00463423 0.0139517 0.00479755 0.026969 0.00683969 0.0193428 0.00831493 0.045046
40 3 O 0.666315 8.44846 4.4844 -1.2 1 0.0030011 0.0045481 0.00148145 0.00443309 0.00276598 0.00749306 0.00300971 0.0207395 0.00299939 0.00794242 0.0031396 0.0286316 0.00479575 0.015779 0.00442712 0.0291087 0.00645402 0.0195563 0.00768229 0.0480784
41 3 O -2.21213 8.18062 3.18632 -1.2 1 0.00208448 0.00387859 0.00157301 0.00399132 0.00248636 0.00630665 0.00294452 0.0206926 0.00265876 0.00805562 0.00261006 0.027809 0.0044926 0.0156217 0.00499521 0.0288884 0.00586284 0.0185603 0.00647616 0.048551
42 3 O -2.25864 8.18062 5.78248 -1.2 1 0.00352845 0.00409463 0.00146922 0.00436958 0.0028868 0.00596556 0.00307911 0.0200912 0.0024395 0.00827278 0.00334351 0.02728 0.00455415 0.0162072 0.00528268 0.0289186 0.00708748 0.0203801 0.00813725 0.0480376
43 1 Mg 1.20893 7.12349 2.9896 1.2 1 0.00156155 0.00398548 0.00185791 0.00409903 0.00260065 0.00673194 0.00369283 0.0194738 0.0027769 0.00801156 0.00261258 0.027992 0.00372458 0.0155747 0.00392985 0.02752 0.00553765 0.0183815 0.00602723 0.0468445
44 1 Mg 4.00982 7.08218 4.4844 1.2 1 0.00218522 0.00381797 0.00165625 0.00458409 0.00248992 0.00657431 0.00378626 0.0197879 0.00339861 0.00754738 0.00314607 0.0273074 0.00438945 0.0160952 0.00603091 0.0281863 0.00727883 0.0189948 0.00822329 0.0469207
45 2 Si 2.17861 9.14704 4.4844 2.4 1 0.00305629 0.00402404 0.00169293 0.00441734 0.00287863 0.0073939 0.00383337 0.020924 0.00260454 0.00807221 0.00274931 0.0282568 0.00470542 0.0163972 0.00447795 0.0295342 0.00582449 0.0194643 0.00676841 0.0497247
46 3 O 2.18828 10.7603 4.4844 -1.2 1 0.00353914 0.00421265 0.00195645 0.00419342 0.00259293 0.0070756 0.00300625 0.0207987 0.00237603 0.00812379 0.00193521 0.0287939 0.00417775 0.0157454 0.00444336 0.0306606 0.00594804 0.0197706 0.00656792 0.0502847
47 3 O -4.43805 8.17302 4.4844 -1.2 1 0.00195371 0.00395129 0.00185999 0.00482418 0.0024546 0.00758426 0.00334397 0.020357 0.00320112 0.00821347 0.00287635 0.0285679 0.00475623 0.0155446 0.00486829 0.0291875 0.00674351 0.0194093 0.00879756 0.0476709
48 3 O 2.89193 8.44087 3.18632 -1.2 1 0.00241173 0.00354412 0.00171257 0.00412197 0.0023865 0.00686447 0.00332655 0.0202512 0.00279996 0.00847108 0.00281609 0.0276281 0.00407427 0.0157212 0.00486257 0.0290897 0.00588024 0.0186265 0.00570684 0.0484239
49 1 Mg 1.25915 7.12349 0 1.2 1 0.000731527 0.00288255 0.00124578 0.00412256 0.00188478 0.00711656 0.00281762 0.0202305 0.00281206 0.00829143 0.00242884 0.0274435 0.00336164 0.014434 0.00358217 0.0276656 0.00462564 0.0174254 0.00425916 0.046308
50 3 O 2.84547 8.44087 5.78248 -1.2 1 0.00311484 0.00438725 0.00170225 0.0043945 0.0027047 0.00646226 0.00346675 0.0205491 0.00282742 0.0085523 0.00311779 0.0271632 0.00551153 0.0163537 0.00535266 0.0294225 0.00635256 0.0206765 0.00800452 0.0485196
51 1 Mg -1.59284 7.16481 1.4948 1.2 1 0.000722544 0.00336752 0.00125793 0.00423667 0.00182768 0.00627631 0.00270526 0.0198636 0.00282164 0.00779621 0.00169083 0.0277348 0.00359837 0.0154573 0.0038811 0.0271819 0.00465689 0.0174698 0.00546098 0.0468507
52 2 Si 0.240329 5.09994 1.4948 2.4 1 0.000848862 0.00366103 0.00187428 0.00393241 0.00187537 0.00667502 0.00311126 0.0188944 0.00297539 0.00727896 0.00225826 0.0259535 0.00316856 0.0145192 0.00422789 0.0248329 0.00514729 0.0169581 0.00524287 0.0448176
53 3 O 0.234538 3.48671 1.4948 -1.2 1 0.00143242 0.00362089 0.00255519 0.0041567 0.00184226 0.0063235 0.00262616 0.0177586 0.00325884 0.00704647 0.00226552 0.024366 0.00336677 0.0136909 0.00395947 0.0241125 0.00546443 0.0160285 0.00546455 0.0424083
54 3 O 6.85564 6.07396 1.4948 -1.2 1 0.000678858 0.00279001 0.00201912 0.00455516 0.00252381 0.00605008 0.00315525 0.0197434 0.00299849 0.00750392 0.00221882 0.0277521 0.00354255 0.0145625 0.00488877 0.0270046 0.00564718 0.0176377 0.00610994 0.0455523
55 3 O -0.429565 5.80612 0.196716 -1.2 1 0.000777146 0.0032859 0.00213585 0.00395258 0.00186575 0.00699289 0.00249213 0.0194506 0.00282292 0.00841339 0.00246847 0.0256434 0.00286507 0.0141445 0.00394666 0.0260855 0.00502283 0.0167968 0.00559868 0.0453962
56 3 O -0.473377 5.80612 2.79288 -1.2 1 0.00160362 0.00354465 0.00202972 0.00417221 0.00228939 0.00663069 0.00318532 0.0190622 0.00301476 0.00800678 0.0030186 0.025904 0.00403575 0.0145744 0.00463671 0.026394 0.00636931 0.0185449 0.00644861 0.0456463
57 1 Mg 6.40169 9.49799 0 1.2 1 0.000325125 0.00374059 0.00155973 0.00445453 0.00159389 0.00822674 0.00186744 0.0210882 0.00163003 0.00884452 0.00182752 0.0287355 0.00253906 0.0148328 0.00274118 0.029912 0.00353663 0.0178706 0.00395245 0.047739
58 1 Mg 3.64209 14.2057 1.4948 1.2 1 0.00215109 0.00314422 0.00166765 0.00436868 0.00167734 0.00874229 0.00169686 0.0215186 0.00154624 0.00866589 0.00214842 0.0283089 0.00249344 0.0160828 0.00302319 0.0296527 0.0034638 0.0169672 0.00326344 0.0493182
59 2 Si 5.45748 11.5215 1.4948 2.4 1 0.00185321 0.00310766 0.00193264 0.00440608 0.00177547 0.00826687 0.00207837 0.021002 0.00148684 0.00818269 0.00159029 0.0288598 0.0025688 0.0161507 0.00335231 0.0292138 0.00395752 0.0168155 0.00346888 0.0492056
60 3 O 5.51101 13.1348 1.4948 -1.2 1 0.0021376 0.00320409 0.00189268 0.00442442 0.00156613 0.00904461 0.00175686 0.0210704 0.00166434 0.00860635 0.00147043 0.0293377 0.00210452 0.0160971 0.00279156 0.0299383 0.00359549 0.0166049 0.00335039 0.0490024
61 3 O 1.83851 10.5475 1.4948 -1.2 1 0.00120596 0.00330895 0.00173547 0.00456796 0.00183341 0.00769466 0.00234659 0.0215005 0.0017522 0.00833359 0.00200865 0.0294495 0.00273584 0.0158184 0.00333939 0.0298955 0.00398182 0.0176712 0.00324299 0.0493823
62 3 O 4.7611 10.8154 0.196716 -1.2 1 0.000652734 0.00295381 0.00181548 0.00443294 0.00153803 0.00837206 0.00208795 0.0212436 0.00145433 0.00857615 0.0017736 0.0283325 0.0030694 0.0156668 0.00383565 0.0295863 0.00351885 0.0170388 0.00331889 0.0486146
63 1 Mg 6.35203 9.49799 2.9896 1.2 1 0.00178616 0.0035549 0.00177382 0.00454531 0.0025985 0.00750907 0.00333924 0.0202745 0.00299888 0.0084632 0.00187477 0.0293011 0.00377687 0.0160086 0.00344878 0.0292203 0.00426831 0.0181342 0.00526419 0.0485515
64 3 O 4.71833 10.8154 2.79288 -1.2 1 0.00281995 0.0032692 0.00183421 0.00426562 0.00209453 0.00814109 0.00221947 0.0212705 0.00193047 0.00894505 0.00193301 0.0283633 0.00354938 0.0158024 0.00400541 0.0301969 0.0050938 0.0182591 0.00519214 0.0498055
65 1 Mg -1.0438 9.53931 4.4844 1.2 1 0.00321666 0.00437875 0.00161312 0.00400811 0.00290073 0.00665304 0.00260816 0.0208162 0.00292558 0.00844737 0.00255064 0.0284287 0.00376048 0.0165144 0.00471851 0.0296797 0.00631062 0.019643 0.00699575 0.0494421
66 2 Si -2.8604 12.2234 4.4844 2.4 1 0.00334035 0.0039451 0.00199162 0.00407326 0.00267531 0.00754804 0.00313026 0.0216857 0.00286191 0.00864885 0.00222057 0.0283737 0.00395349 0.0165805 0.00435884 0.0301037 0.00552213 0.0191722 0.00643698 0.0510419
67 3 O -2.91391 10.6102 4.4844 -1.2 1 0.00333377 0.00406626 0.00179987 0.00404615 0.00274838 0.00695578 0.00321131 0.0203303 0.00259702 0.00784973 0.00203579 0.0288186 0.00410797 0.0157685 0.00423283 0.0304941 0.00558187 0.0193951 0.00663999 0.049723
68 3 O 0.7596 13.1975 4.4844 -1.2 1 0.00352349 0.00406529 0.00197758 0.00475925 0.00280827 0.00840174 0.0026761 0.0220759 0.00283229 0.00836471 0.00262741 0.0287889 0.00396575 0.0164517 0.00423314 0.0302041 0.00588418 0.019512 0.00675047 0.0506741
69 3 O -2.12001 12.9296 3.18632 -1.2 1 0.00350296 0.00381587 0.00177611 0.00380357 0.00239605 0.00744119 0.00221846 0.0216152 0.00238845 0.0083774 0.00212729 0.0280972 0.00361176 0.0162527 0.0046651 0.0305012 0.00498892 0.0183141 0.00522479 0.0503891
70 3 O -2.16532 12.9296 5.78248 -1.2 1 0.00416505 0.00443608 0.00172624 0.00428515 0.00277283 0.0066906 0.00229982 0.0214996 0.00236641 0.00836262 0.00235445 0.0279448 0.00385509 0.0168431 0.00455409 0.0311531 0.00599655 0.0206827 0.00694113 0.0518665
71 1 Mg 1.29891 11.8725 2.9896 1.2 1 0.00270018 0.00333348 0.00189844 0.00453511 0.00236657 0.00797919 0.00291297 0.0209907 0.00250522 0.00854705 0.00193637 0.0292274 0.00340715 0.0162886 0.00345931 0.0299688 0.00440756 0.0179102 0.00457601 0.0497128
72 1 Mg 4.10033 11.8312 4.4844 1.2 1 0.00342027 0.00345622 0.0021102 0.00414932 0.00240179 0.00726317 0.00268504 0.0213367 0.00252294 0.00844904 0.00274486 0.0287298 0.00372679 0.0172396 0.0051233 0.0302741 0.00630523 0.0194382 0.00622339 0.0507142
73 2 Si 2.27333 13.896 4.4844 2.4 1 0.00358319 0.00348155 0.00171492 0.00476574 0.00290159 0.00774561 0.00318136 0.0216858 0.00235227 0.00819802 0.00269718 0.0282764 0.00364443 0.0167409 0.00424151 0.0303401 0.00551066 0.0189019 0.00616812 0.0516454
74 3 O 2.28634 15.5093 4.4844 -1.2 1 0.00367808 0.00393912 0.0016896 0.00440522 0.00292143 0.0072377 0.0027673 0.0209831 0.00240196 0.00786696 0.00218626 0.0288326 0.00350313 0.016175 0.0040401 0.0308316 0.00567734 0.0188756 0.00624345 0.0512582
75 3 O -4.34533 12.922 4.4844 -1.2 1 0.00330994 0.00418732 0.0021002 0.00433856 0.00270073 0.00823927 0.00293247 0.0216629 0.00285076 0.00851194 0.00249154 0.0290384 0.00393024 0.0163505 0.0048768 0.0305233 0.0061419 0.0195578 0.00705702 0.0506654
76 3 O 2.98455 13.1899 3.18632 -1.2 1 0.0033053 0.00324714 0.00160406 0.00417394 0.00236169 0.00780842 0.00212334 0.0216819 0.00216023 0.0086893 0.0021891 0.0280655 0.0034103 0.0160091 0.00431042 0.0301635 0.00549879 0.0185664 0.00526163 0.0502807
77 1 Mg 1.34779 11.8725 0 1.2 1 0.000686626 0.00291693 0.00131711 0.00459184 0.00137383 0.00876687 0.00152459 0.0212796 0.00125765 0.00906317 0.00191574 0.0289631 0.00274414 0.0148987 0.00302483 0.0301731 0.0031322 0.0172007 0.00305798 0.0482549
78 3 O 2.93934 13.1899 5.78248 -1.2 1 0.00366208 0.0041346 0.00181407 0.00448371 0.00269318 0.00703049 0.00261447 0.021973 0.00240941 0.00848496 0.00279626 0.0279133 0.00413507 0.016846 0.00483663 0.0313659 0.00595689 0.0213311 0.00672802 0.0518319
79 1 Mg -1.50344 11.9138 1.4948 1.2 1 0.00135854 0.00334771 0.00151419 0.00420676 0.00150338 0.00814342 0.00184853 0.0216584 0.00226169 0.00851565 0.00150175 0.0286556 0.00338997 0.0162584 0.00337976 0.0296747 0.00321506 0.0173512 0.0033165 0.0491783
80 2 Si 0.326006 9.84894 1.4948 2.4 1 0.000802745 0.00339757 0.00118267 0.00463713 0.00190834 0.00804668 0.00211262 0.0209907 0.00211068 0.00843578 0.00151248 0.0285936 0.00303504 0.0156787 0.00373861 0.0290448 0.0036991 0.017591 0.00322462 0.0487533
81 3 O 0.317364 8.23571 1.4948 -1.2 1 0.00115992 0.00363349 0.00111472 0.00418458 0.00188804 0.00757096 0.00213659 0.0202743 0.00245532 0.0079406 0.00173224 0.0286953 0.00361516 0.0157286 0.00398954 0.0286045 0.00444871 0.0176178 0.00415356 0.0478353
82 3 O 6.94307 10.823 1.4948 -1.2 1 0.00157005 0.00358998 0.00164167 0.00415889 0.00179359 0.00770029 0.00242945 0.021708 0.00237151 0.00837095 0.00138953 0.0294175 0.00299629 0.0157674 0.00339152 0.0299702 0.00346429 0.0178397 0.00392517 0.0492384
83 3 O -0.343122 10.5551 0.196716 -1.2 1 0.000627673 0.00314173 0.00121633 0.00444293 0.00162187 0.00853738 0.0017708 0.0212642 0.00154793 0.00887992 0.00197114 0.0281207 0.00316663 0.0153112 0.00385975 0.0294997 0.00357846 0.0173265 0.00333444 0.0485811
84 3 O -0.385966 10.5551 2.79288 -1.2 1 0.00268082 0.00393093 0.00138676 0.00410962 0.00237624 0.00795748 0.00223489 0.0214145 0.00196549 0.00884947 0.00196047 0.0278487 0.00380174 0.0159914 0.00415462 0.0299707 0.0049255 0.0185474 0.00479035 0.0498504
85 1 Mg 6.49448 14.247 0 1.2 1 0.000828564 0.00337636 0.00163141 0.00453658 0.00104527 0.00913055 0.00114992 0.0212648 0.00122526 0.00857291 0.00146052 0.0288156 0.0016592 0.0155597 0.00237854 0.0300027 0.00306239 0.0165036 0.00282579 0.048145
86 1 Mg 3.74457 18.9547 1.4948 1.2 1 0.00217815 0.00325965 0.00143997 0.00402756 0.00184322 0.0085303 0.00132659 0.0222755 0.00181284 0.00812936 0.00227311 0.027876 0.00258604 0.0165424 0.00373432 0.0290118 0.00333496 0.0165931 0.00329539 0.0495973
87 2 Si 5.55495 16.2705 1.4948 2.4 1 0.00245424 0.00304132 0.0015231 0.00445157 0.00175784 0.00883552 0.00148797 0.0213568 0.00125787 0.00790806 0.00126901 0.0286558 0.00222769 0.0162426 0.00286258 0.0291336 0.00369613 0.0159783 0.00347961 0.0492181
88 3 O 5.6115 17.8838 1.4948 -1.2 1 0.00243024 0.00318523 0.00179127 0.00422788 0.00180156 0.00908674 0.00151284 0.0217217 0.00181414 0.00785126 0.00130144 0.0288632 0.00211582 0.0164983 0.00279032 0.0291199 0.00317157 0.0159633 0.00350422 0.0492844
89 3 O 1.93416 15.2965 1.4948 -1.2 1 0.00229523 0.00317023 0.00166756 0.00452446 0.00180405 0.00830775 0.00203782 0.021892 0.00167133 0.00806701 0.00135386 0.0291187 0.00208498 0.0162971 0.00288041 0.0299722 0.00344498 0.016676 0.00327866 0.0497558
90 3 O 4.85636 15.5644 0.196716 -1.2 1 0.00142048 0.00260242 0.00155686 0.0044549 0.00124918 0.00897315 0.00137337 0.0213273 0.00102825 0.00821887 0.0016102 0.0280985 0.0024854 0.0162717 0.00335596 0.0295271 0.0031102 0.015758 0.00290967 0.0489027
91 1 Mg 6.44662 14.247 2.9896 1.2 1 0.00245055 0.0035304 0.00167138 0.00418626 0.00234789 0.00836149 0.0028137 0.0208525 0.00257363 0.00863542 0.00173965 0.0294188 0.00296753 0.0164921 0.0029928 0.0294991 0.00384359 0.0174842 0.00448586 0.0495677
92 3 O 4.81537 15.5644 2.79288 -1.2 1 0.00343627 0.0030894 0.00162386 0.00417662 0.00223013 0.00866078 0.00177787 0.0218041 0.00161827 0.00860524 0.00176236 0.0281169 0.00286005 0.016403 0.00360442 0.0298295 0.00460123 0.0174533 0.0047808 0.0501394
93 1 Mg -0.948271 14.2883 4.4844 1.2 1 0.0037354 0.00389357 0.00161145 0.00409119 0.00267475 0.0075379 0.00239506 0.0215056 0.00273415 0.00850094 0.00279337 0.0285124 0.00326562 0.0169512 0.00530205 0.0305293 0.00589146 0.0189283 0.00639494 0.0510924
94 2 Si -2.75928 16.9724 4.4844 2.4 1 0.00357429 0.003669 0.00154502 0.00435927 0.00268267 0.0077048 0.00259179 0.0219671 0.00262606 0.00804196 0.00262001 0.0282023 0.00336626 0.0173585 0.00469235 0.0299379 0.00515612 0.0183798 0.0060142 0.0519149
95 3 O -2.81617 15.3592 4.4844 -1.2 1 0.00396357 0.00401331 0.00181772 0.00413118 0.00289793 0.0074427 0.00297019 0.0208656 0.00260867 0.00782865 0.00220185 0.0289 0.00360762 0.0163052 0.00406695 0.0306944 0.00588042 0.0184229 0.0066474 0.0509332
96 3 O 0.862762 17.9465 4.4844 -1.2 1 0.0032182 0.00403905 0.00141423 0.00455704 0.00300698 0.00827464 0.00246459 0.0222571 0.00247033 0.00798844 0.00250388 0.0288198 0.00375138 0.0170329 0.00444016 0.0298835 0.00565872 0.0185832 0.00593454 0.0514814
97 3 O -2.0185 17.6786 3.18632 -1.2 1 0.00336678 0.00337672 0.00173588 0.003811 0.00253 0.00756756 0.00215361 0.0222414 0.00227278 0.00791023 0.00206053 0.0276526 0.00328557 0.0165386 0.0045648 0.0302443 0.00478855 0.0177017 0.00502283 0.0509413
98 3 O -2.06164 17.6786 5.78248 -1.2 1 0.00382719 0.0041438 0.00146232 0.0044481 0.00278916 0.00687128 0.00229679 0.0221655 0.00240811 0.00820733 0.00270763 0.0277591 0.00339037 0.0174137 0.00496989 0.0310121 0.00591024 0.0203979 0.00616735 0.0528874
99 1 Mg 1.39817 16.6215 2.9896 1.2 1 0.00295851 0.00340847 0.00166011 0.00450902 0.00259136 0.008269 0.00255602 0.0212381 0.00234988 0.00808116 0.00200661 0.0288204 0.00259707 0.0166639 0.00317506 0.0298828 0.00391457 0.0169435 0.00438028 0.0500512
100 1 Mg 4.20062 16.5802 4.4844 1.2 1 0.00366803 0.00346685 0.00177394 0.00431525 0.0027117 0.00769863 0.00250929 0.0217452 0.00303741 0.00792268 0.00296213 0.0284132 0.00334671 0.0174246 0.00540937 0.0300878 0.0062067 0.018728 0.00603083 0.0515337
101 2 Si 2.37796 18.645 4.4844 2.4 1 0.00300374 0.00357133 0.00133069 0.00459671 0.00303667 0.00795752 0.00283358 0.0224057 0.00234617 0.00805299 0.0025857 0.0280956 0.00360528 0.0172943 0.00462746 0.0295649 0.00519546 0.0184572 0.00561121 0.0525199
102 3 O 2.39434 20.2583 4.4844 -1.2 1 0.00314401 0.00393463 0.00138421 0.00453333 0.00297774 0.00715307 0.00254701 0.0215781 0.00271537 0.00737006 0.00192021 0.0288177 0.00334775 0.0168734 0.00420964 0.0300177 0.00558949 0.0186055 0.00646541 0.0522448
103 3 O -4.24274 17.671 4.4844 -1.2 1 0.00324805 0.00392378 0.00157986 0.00435204 0.00271029 0.00846845 0.00258826 0.0223677 0.00284292 0.00802812 0.00241271 0.0286529 0.00317499 0.0169296 0.00478853 0.0300279 0.0059289 0.0190231 0.00650354 0.0516254
104 3 O 3.08659 17.9389 3.18632 -1.2 1 0.00318917 0.00312634 0.00147744 0.00412109 0.00272158 0.00778847 0.00209937 0.0221349 0.00209057 0.00802974 0.00222761 0.0278325 0.00326413 0.0166439 0.00449693 0.0298955 0.00525512 0.0176518 0.00522473 0.0509171
105 1 Mg 1.44478 16.6215 0 1.2 1 0.0019008 0.00290081 0.00129642 0.00442262 0.001347 0.00890322 0.00134833 0.021588 0.0012618 0.00828877 0.00149714 0.0285693 0.00227703 0.0157535 0.00232984 0.0294442 0.00283328 0.0160808 0.00285113 0.0485544
106 3 O 3.0436 17.9389 5.78248 -1.2 1 0.00331029 0.00420921 0.00151506 0.00481885 0.00274079 0.00718965 0.00246138 0.0222917 0.00223496 0.00828955 0.00321219 0.0277265 0.00398793 0.0172356 0.00529919 0.0308135 0.00602435 0.0208605 0.00613106 0.0532895
107 1 Mg -1.40524 16.6628 1.4948 1.2 1 0.00195154 0.00319073 0.00145396 0.00434358 0.00167285 0.0086699 0.00182429 0.0222729 0.00170366 0.00815807 0.00182298 0.0283432 0.0029633 0.0167278 0.00292666 0.0295227 0.00284347 0.0166445 0.00302691 0.0494567
108 2 Si 0.420358 14.5979 1.4948 2.4 1 0.00210206 0.0029794 0.00165108 0.00465204 0.00200252 0.00901906 0.00190251 0.0214294 0.00153404 0.00821863 0.00134274 0.0284248 0.00283676 0.0164824 0.00353991 0.0289298 0.00330299 0.0164118 0.0033398 0.0493204
109 3 O 0.408732 12.9847 1.4948 -1.2 1 0.0020457 0.00299645 0.00137647 0.00454277 0.00184171 0.00902107 0.00152296 0.0210709 0.00196967 0.0084159 0.0015104 0.0291494 0.00299549 0.0161123 0.003084 0.029984 0.00300605 0.0168364 0.00346072 0.0492464
110 3 O 7.03923 15.572 1.4948 -1.2 1 0.00241015 0.00333832 0.00173559 0.00439943 0.0018605 0.00829935 0.00238803 0.0216684 0.00204066 0.00799398 0.00148057 0.0292618 0.00233314 0.0163929 0.00279078 0.0297993 0.00332258 0.0166832 0.00369814 0.0494139
111 3 O -0.248332 15.3041 0.196716 -1.2 1 0.00176465 0.00290433 0.00135532 0.00446265 0.00118429 0.00895206 0.00180056 0.0212462 0.00110449 0.00829103 0.00156531 0.0280339 0.00288081 0.0159768 0.00373169 0.0294699 0.00279105 0.0160759 0.00303449 0.0488101
112 3 O -0.289436 15.3041 2.79288 -1.2 1 0.00333867 0.00362812 0.00146188 0.00417721 0.00241104 0.00855242 0.00193012 0.0217398 0.00176688 0.00863034 0.00183809 0.0277022 0.00272731 0.0164606 0.00357848 0.0300133 0.00432851 0.0175589 0.00456092 0.0500512
113 1 Mg 6.59566 18.996 0 1.2 1 0.00124378 0.00311442 0.00179905 0.00425773 0.000998192 0.00855805 0.00112006 0.0221664 0.00117291 0.00787241 0.00137467 0.0282904 0.00197584 0.0164033 0.00217235 0.0288646 0.00287867 0.0158454 0.00277294 0.0484683
114 1 Mg 3.85574 23.7037 1.4948 1.2 1 0.00178214 0.00267413 0.00133331 0.00423367 0.00174271 0.00754031 0.00125837 0.0233788 0.00186994 0.00762776 0.0020998 0.0273996 0.00236705 0.0174401 0.00363283 0.0285215 0.00320955 0.0174039 0.00331807 0.0505668
115 2 Si 5.66125 21.0195 1.4948 2.4 1 0.00184525 0.0027172 0.00128563 0.0041484 0.00205134 0.00812387 0.00152928 0.0221468 0.0013693 0.00757508 0.00161755 0.0282202 0.00259683 0.0173447 0.00287867 0.0280297 0.0035268 0.0160567 0.0037816 0.050049
116 3 O 5.72074 22.6328 1.4948 -1.2 1 0.00186121 0.00260211 0.0015144 0.00414296 0.00182079 0.00822113 0.0015434 0.022506 0.00190402 0.00727205 0.00128143 0.0282799 0.00218408 0.0172499 0.00296007 0.0283732 0.00331453 0.0164929 0.00362261 0.0499795
117 3 O 2.03867 20.0455 1.4948 -1.2 1 0.00174499 0.00323056 0.00158378 0.00431865 0.00194031 0.00778062 0.00203584 0.0224093 0.00211478 0.00756108 0.00148605 0.0287406 0.00226554 0.0171842 0.00258552 0.0290097 0.00343631 0.0162806 0.00344859 0.0501325
118 3 O 4.96004 20.3134 0.196716 -1.2 1 0.00178686 0.00259082 0.00152449 0.0041794 0.00132674 0.00827458 0.00110677 0.0220125 0.00104842 0.00756066 0.00161988 0.0278567 0.00262743 0.0166656 0.003851 0.0287927 0.00311451 0.0152866 0.00282433 0.0491487
119 1 Mg 6.55057 18.996 2.9896 1.2 1 0.00216006 0.00345188 0.00138505 0.00417455 0.00258397 0.0081051 0.00278446 0.0213872 0.00227219 0.00786002 0.00161259 0.0291531 0.00285021 0.01694 0.00317513 0.0291407 0.00390781 0.0170452 0.00462183 0.0501927