ITEM: TIMESTEP
12000
ITEM: NUMBER OF ATOMS
10500
ITEM: BOX BOUNDS xy xz yz pp pp pp
0	15.2977	5.09925
0	118.725	0
0	89.688	0
ITEM: ATOMS id type element xu yu zu q Q_1 Q_2 Q_3 Q_4 Q_5 Q_6 Q_7 Q_8 Q_9 Q_10 Q_11 Q_12 Q_13 Q_14 Q_15 Q_16 Q_17 Q_18 Q_19 Q_20 Q_21
1 1 Mg 6.2404 -6.37941e-06 0 1.2 1 0.00124626 0.00399447 0.00107356 0.00480895 0.00116048 0.0056856 0.00219595 0.0162358 0.00213352 0.00582198 0.00212013 0.0220692 0.00259788 0.0135029 0.0034443 0.020723 0.00411153 0.01433 0.00406714 0.0406001
2 1 Mg 3.46349 4.70768 1.4948 1.2 1 0.00111951 0.00285542 0.0016815 0.00437863 0.00180566 0.00623318 0.00367575 0.018732 0.00286377 0.00703567 0.00291804 0.025887 0.00325287 0.0138893 0.00441515 0.025152 0.00541764 0.017071 0.00573838 0.0437555
3 2 Si 5.2885 2.02354 1.4948 2.4 1 0.000864917 0.00287185 0.00188988 0.00454764 0.00168055 0.00574862 0.00256021 0.0170549 0.00248307 0.0062287 0.00207242 0.0234817 0.00292463 0.0133232 0.00370978 0.0215706 0.00393582 0.0152835 0.0042463 0.0412076
4 3 O 5.33628 3.63678 1.4948 -1.2 1 0.000646021 0.0023831 0.00172463 0.00480989 0.00200373 0.00637206 0.00301054 0.0177969 0.0023104 0.00677637 0.00197915 0.0253051 0.00256525 0.0135551 0.00428796 0.0239321 0.00507025 0.0163641 0.00572692 0.042658
5 3 O 1.67294 1.04952 1.4948 -1.2 1 0.00186953 0.00286736 0.00222644 0.00430139 0.0012699 0.0057637 0.00255462 0.0169186 0.00237781 0.00609957 0.00206196 0.0228959 0.00270472 0.0126309 0.00333804 0.0218571 0.00463953 0.0156431 0.0047819 0.0402204
6 3 O 4.59532 1.31737 0.196716 -1.2 1 0.00114219 0.00266617 0.00181165 0.00435913 0.00178575 0.0057215 0.00240816 0.0171431 0.00274228 0.00632971 0.00192366 0.022572 0.00334359 0.0127469 0.00420409 0.0215694 0.00418854 0.014951 0.00454848 0.0408548
7 1 Mg 6.18956 -6.37941e-06 2.9896 1.2 1 0.00122192 0.00394537 0.00135647 0.00432288 0.00127471 0.00585407 0.00245704 0.0161066 0.00270906 0.00556545 0.00174646 0.0226118 0.00297511 0.0130563 0.00360798 0.020651 0.00440259 0.0149184 0.0049262 0.0389446
8 3 O 4.55118 1.31737 2.79288 -1.2 1 0.00147525 0.00384825 0.00187441 0.0043176 0.00172833 0.00582398 0.00263722 0.0168712 0.00249235 0.0069327 0.00220553 0.0218812 0.00349782 0.012108 0.00342318 0.0215466 0.00482896 0.0154912 0.00527961 0.0399935
9 1 Mg -1.20682 0.0413099 4.4844 1.2 1 0.000730404 0.00255403 0.00162415 0.00470486 0.00143593 0.00567564 0.00190485 0.0160531 0.0022143 0.00590817 0.00202111 0.023027 0.00329121 0.0111258 0.0035479 0.0210019 0.00522238 0.0158745 0.00534161 0.0386459
10 2 Si -3.0337 2.72544 4.4844 2.4 1 0.000428646 0.00281784 0.00171075 0.00487842 0.00207688 0.00609664 0.00332305 0.0164391 0.00330882 0.00642105 0.00236832 0.0242023 0.00347353 0.0127684 0.00404809 0.0224556 0.00556304 0.0176467 0.00653429 0.0395627
11 3 O -3.08099 1.11221 4.4844 -1.2 1 0.000603602 0.00322822 0.00174554 0.00440613 0.00125337 0.00546275 0.00232149 0.0159352 0.00287761 0.00573023 0.00227869 0.0225802 0.00353422 0.011037 0.00369239 0.0213318 0.00507508 0.01646 0.00557161 0.0382945
12 3 O 0.582463 3.69946 4.4844 -1.2 1 0.00171142 0.00407725 0.00226153 0.00455327 0.00255555 0.00673604 0.0036615 0.0172585 0.003377 0.00658895 0.00317933 0.0248532 0.00432419 0.0127328 0.00451978 0.0242169 0.00702525 0.018573 0.00845064 0.0414387
13 3 O -2.29524 3.43162 3.18632 -1.2 1 0.000761034 0.00238128 0.00266709 0.00455632 0.00211132 0.00610522 0.00302288 0.0178026 0.00333086 0.00672745 0.00260945 0.0246457 0.00326696 0.012818 0.00472661 0.024184 0.00612667 0.0178629 0.00666519 0.0418116
14 3 O -2.34216 3.43162 5.78248 -1.2 1 0.00109543 0.00354008 0.00132543 0.00502623 0.00268209 0.006021 0.0033717 0.0168985 0.00280505 0.0076577 0.00285072 0.0235579 0.00448495 0.0122789 0.0042421 0.0235341 0.00676151 0.0194076 0.00781745 0.0398323
15 1 Mg 1.12778 2.37449 2.9896 1.2 1 0.00168143 0.00310275 0.00259742 0.004546 0.00221463 0.00597491 0.00316264 0.0166809 0.00280707 0.00620821 0.00230634 0.0236749 0.00337584 0.0127845 0.00357634 0.0218835 0.00499044 0.016433 0.00564327 0.0406396
16 1 Mg 3.92855 2.33318 4.4844 1.2 1 0.00129705 0.00372675 0.00167636 0.00438671 0.00175813 0.00587855 0.00356272 0.0166705 0.00318906 0.0061937 0.00298184 0.0231181 0.00382122 0.013108 0.0052618 0.0218663 0.00651852 0.0172406 0.00720176 0.0398542
17 2 Si 2.09341 4.39804 4.4844 2.4 1 0.00108458 0.0037597 0.00221919 0.00429299 0.00294736 0.00598088 0.00395508 0.0181303 0.00349718 0.00675186 0.00331914 0.0249822 0.00455907 0.0139051 0.00459761 0.0246993 0.00682443 0.0183867 0.0086536 0.0429832
18 3 O 2.09991 6.01128 4.4844 -1.2 1 0.00150128 0.00406494 0.00179196 0.00413363 0.00296275 0.00638816 0.00340244 0.0191016 0.00279297 0.00741249 0.00308189 0.0267905 0.0041712 0.0142648 0.00483608 0.0274268 0.00688192 0.0194132 0.00828898 0.0449014
19 3 O -4.52137 3.42402 4.4844 -1.2 1 0.000882943 0.00308447 0.00202042 0.00451435 0.00219321 0.00709641 0.00357173 0.0169448 0.00353424 0.00647385 0.00306703 0.0237377 0.00404788 0.0126129 0.00442524 0.0229207 0.00657029 0.017813 0.00778523 0.0409422
20 3 O 2.80834 3.69187 3.18632 -1.2 1 0.00103525 0.00318129 0.00192226 0.00374151 0.00200512 0.00587797 0.00322314 0.0173816 0.00303365 0.00643956 0.00286175 0.0243391 0.0036941 0.0129235 0.00488775 0.0237907 0.00584601 0.0170243 0.00657369 0.0423202
21 1 Mg 1.17857 2.37449 0 1.2 1 0.0019534 0.00328215 0.00214722 0.00422428 0.00134441 0.00562012 0.00257548 0.0174243 0.00234268 0.00670077 0.00254941 0.0234897 0.00281523 0.0131213 0.00342357 0.0217852 0.00444777 0.0149877 0.00492356 0.0409844
22 3 O 2.76143 3.69187 5.78248 -1.2 1 0.00153145 0.00379457 0.00181326 0.00443966 0.00221378 0.00563738 0.00292244 0.0173769 0.00324015 0.00726976 0.00291589 0.0236789 0.00500377 0.0130312 0.00564415 0.0235814 0.00666922 0.0188477 0.00796331 0.0407483
23 1 Mg -1.67381 2.41581 1.4948 1.2 1 0.00150389 0.00215202 0.00264041 0.00491897 0.00141204 0.00616799 0.00258341 0.0166567 0.00277697 0.00633124 0.00191026 0.0244865 0.00261252 0.0141085 0.00287637 0.0221486 0.00443584 0.0160866 0.00474362 0.0417974
24 2 Si 0.16286 0.350945 1.4948 2.4 1 0.0021317 0.00213354 0.00292382 0.00457543 0.00120024 0.00637472 0.0028481 0.0165492 0.00225593 0.00534141 0.00195208 0.0231613 0.00255231 0.0133093 0.00304175 0.0207833 0.00470878 0.0148508 0.00432364 0.0403958
25 3 O 0.15972 -1.26229 1.4948 -1.2 1 0.00220063 0.00229527 0.00307302 0.00465277 0.00181429 0.00606881 0.00254593 0.0164665 0.00233846 0.00550743 0.00235399 0.0229776 0.00280355 0.0135527 0.00277536 0.0217269 0.00421341 0.0148955 0.00397168 0.04083
26 3 O 6.77654 1.32496 1.4948 -1.2 1 0.00137133 0.00336136 0.00155805 0.00467436 0.00126183 0.00609849 0.0024155 0.0167946 0.00256757 0.00562135 0.00172718 0.0238607 0.00284053 0.0133831 0.00355705 0.0217925 0.00470981 0.0152928 0.00442723 0.0407826
27 3 O -0.508028 1.05712 0.196716 -1.2 1 0.0017127 0.00254256 0.00364673 0.00421247 0.00130393 0.00556417 0.00250098 0.0171296 0.0018419 0.00669004 0.00251771 0.0223112 0.00273726 0.0127706 0.00313099 0.0212261 0.00423293 0.0152248 0.00442067 0.0401846
28 3 O -0.552171 1.05712 2.79288 -1.2 1 0.00126611 0.00177884 0.00285504 0.00454335 0.00127021 0.00619351 0.00239996 0.0159925 0.0025678 0.00628242 0.00162153 0.0229265 0.00321883 0.0113889 0.00372641 0.0215945 0.00541588 0.015852 0.00484051 0.0392611
29 1 Mg 6.31713 4.74899 0 1.2 1 0.000653932 0.00234503 0.00195961 0.00487975 0.00214609 0.00620447 0.00341184 0.0182169 0.00277913 0.00715315 0.00220383 0.0254053 0.00281674 0.013699 0.00422441 0.0246995 0.00481123 0.0163332 0.00594971 0.0428772
30 1 Mg 3.54847 9.45668 1.4948 1.2 1 0.00127838 0.00313884 0.00187034 0.00469523 0.00209063 0.00764813 0.0031484 0.0214246 0.00172847 0.00849762 0.00238053 0.028727 0.00320107 0.0156485 0.0039159 0.0291678 0.00426649 0.0182841 0.00403103 0.0487499
31 2 Si 5.36879 6.77254 1.4948 2.4 1 0.000667592 0.00276456 0.00200818 0.00516778 0.00266117 0.00692596 0.00385948 0.0196793 0.00264958 0.00792546 0.00253685 0.0277946 0.00317604 0.0152876 0.00417496 0.026904 0.00472476 0.0172474 0.00544182 0.0464181
32 3 O 5.41937 8.38578 1.4948 -1.2 1 0.00104152 0.00317336 0.00176135 0.0050548 0.0022586 0.00776329 0.00328457 0.0209576 0.00210688 0.00841852 0.00235784 0.0291296 0.00229355 0.0156379 0.00305552 0.0291022 0.00468846 0.0175687 0.00501318 0.0479772
33 3 O 1.75158 5.79852 1.4948 -1.2 1 0.000803602 0.00298406 0.00191002 0.00403073 0.00233466 0.00610073 0.00344208 0.019609 0.00278797 0.007405 0.00265263 0.0280363 0.00292191 0.0153921 0.00351361 0.0267527 0.00544015 0.0176127 0.00565763 0.0455574
34 3 O 4.67421 6.06637 0.196716 -1.2 1 0.00055711 0.00260687 0.00163905 0.00489363 0.00201123 0.00685637 0.00305028 0.019913 0.00247084 0.00827493 0.00214821 0.0264483 0.00348547 0.014317 0.00425184 0.0265934 0.0048189 0.0167343 0.00564005 0.0450805
35 1 Mg 6.26654 4.74899 2.9896 1.2 1 0.00119517 0.00262398 0.00223222 0.004893 0.00246423 0.00665024 0.00392122 0.0179051 0.0038324 0.00707608 0.00221176 0.0259836 0.00367808 0.01436 0.00495675 0.0248955 0.00594429 0.0175974 0.00698733 0.0433879
36 3 O 4.63043 6.06637 2.79288 -1.2 1 0.00156373 0.00295727 0.0019813 0.00485937 0.00235333 0.00691398 0.00365493 0.0193515 0.00343706 0.00801302 0.00256045 0.026208 0.00394637 0.0145967 0.00482576 0.0271419 0.00583393 0.0182174 0.0069744 0.0453408
37 1 Mg -1.12976 4.79031 4.4844 1.2 1 0.00131523 0.00356212 0.00184757 0.0047044 0.00234925 0.00634647 0.00340227 0.0179646 0.00353607 0.00708137 0.00312998 0.0259797 0.0040829 0.0141321 0.00467068 0.0256008 0.00770485 0.0192169 0.0081684 0.0436863
38 2 Si -2.9517 7.47444 4.4844 2.4 1 0.00186647 0.00386377 0.00150355 0.00510846 0.00291029 0.00665341 0.00392664 0.020366 0.00337413 0.00790958 0.00308194 0.0275481 0.00444885 0.0157752 0.00532393 0.0281257 0.0070831 0.0195192 0.0083571 0.047283
39 3 O -3.00198 5.86121 4.4844 -1.2 1 0.00115914 0.00388706 0.00150353 0.00493053 0.0032508 0.00657536 0.00433601 0.0187317 0.00367897 0.00772512 0.00294264 0.0260821 0.00441573 0.014057 0.00489156 0.0269276 0.00713193 0.0196473 0.00860436 0.0450255
40 3 O 0.666315 8.44846 4.4844 -1.2 1 0.00227341 0.0044868 0.0013211 0.00482705 0.00293619 0.00739769 0.00322882 0.0212145 0.00318325 0.00811212 0.00319067 0.0286528 0.00463256 0.0159992 0.00457357 0.0291106 0.00652799 0.0199397 0.00800345 0.0480918
41 3 O -2.21213 8.18062 3.18632 -1.2 1 0.00154795 0.00398513 0.00160072 0.00460583 0.0026043 0.0065107 0.00292037 0.0208141 0.0028055 0.00836003 0.00286005 0.0276883 0.00411593 0.0156687 0.00506847 0.0290091 0.00605925 0.0191046 0.00673533 0.0482759
42 3 O -2.25864 8.18062 5.78248 -1.2 1 0.002432 0.00447127 0.00184567 0.00487383 0.00322485 0.00610703 0.00331556 0.0207455 0.00284383 0.00861946 0.00319971 0.0272194 0.00478145 0.016452 0.00510587 0.0291979 0.0076128 0.0209319 0.00889225 0.0483387
43 1 Mg 1.20893 7.12349 2.9896 1.2 1 0.0012479 0.00364568 0.00189162 0.00438355 0.00280602 0.00676745 0.00386702 0.0197213 0.00295638 0.00820889 0.00272457 0.0281287 0.00353833 0.0156341 0.00391432 0.0275124 0.00565434 0.0183857 0.00659072 0.0466158
44 1 Mg 4.00982 7.08218 4.4844 1.2 1 0.00169271 0.0037691 0.00182627 0.00484629 0.00279314 0.00651847 0.00396256 0.0200492 0.00354235 0.00774194 0.00329203 0.0274697 0.00423794 0.0165243 0.00581779 0.0282067 0.00725932 0.0193935 0.00865742 0.0467649
45 2 Si 2.17861 9.14704 4.4844 2.4 1 0.00206365 0.00420653 0.00163169 0.00491002 0.00307325 0.00734016 0.00389748 0.0212008 0.00287305 0.00841587 0.00308461 0.0282881 0.00472527 0.0166645 0.00461633 0.0295357 0.00602612 0.0197937 0.00718065 0.0496457
46 3 O 2.18828 10.7603 4.4844 -1.2 1 0.0028431 0.0045087 0.00183873 0.00462851 0.00282611 0.0071268 0.00313782 0.0210126 0.0026246 0.00836531 0.00232036 0.0288306 0.00403772 0.0158851 0.00433199 0.0306651 0.0062166 0.0198744 0.00683184 0.0504058
47 3 O -4.43805 8.17302 4.4844 -1.2 1 0.00138882 0.00443642 0.00184961 0.00524597 0.00271338 0.00776724 0.00347061 0.0206447 0.00341358 0.00830673 0.00314825 0.0285722 0.00478187 0.0159563 0.00503986 0.0293706 0.00704692 0.0196274 0.00899099 0.0477204
48 3 O 2.89193 8.44087 3.18632 -1.2 1 0.0018527 0.0035132 0.00175496 0.00442911 0.00255368 0.00698803 0.00346098 0.0206611 0.00287568 0.00859534 0.00287429 0.0277228 0.00391456 0.0158209 0.00466915 0.0289274 0.00589381 0.018819 0.00608499 0.048317
49 1 Mg 1.25915 7.12349 0 1.2 1 0.000535767 0.0027525 0.0015902 0.00425888 0.00187599 0.00723149 0.00304305 0.020271 0.00278156 0.00832798 0.00259588 0.0278831 0.00361476 0.0144026 0.00368038 0.0275316 0.00479053 0.0174456 0.00468917 0.0460371
50 3 O 2.84547 8.44087 5.78248 -1.2 1 0.00201927 0.00462641 0.00166794 0.00478698 0.00275996 0.00663903 0.00345119 0.0210777 0.00310507 0.00902092 0.00350121 0.0271205 0.00548343 0.0165648 0.00540923 0.0297649 0.00658661 0.0214134 0.00802055 0.0487046
51 1 Mg -1.59284 7.16481 1.4948 1.2 1 0.000896115 0.00300653 0.00160012 0.00467715 0.00178192 0.00646286 0.00288665 0.0200286 0.00291168 0.00803067 0.00168349 0.0277982 0.00332741 0.0153072 0.00366178 0.0272106 0.0045863 0.0177426 0.00552732 0.0465044
52 2 Si 0.240329 5.09994 1.4948 2.4 1 0.000811319 0.00310932 0.0022558 0.00414709 0.00181652 0.00684849 0.00322909 0.0190233 0.003113 0.00746713 0.00231696 0.0262338 0.00283846 0.0144264 0.00414347 0.0247583 0.00522867 0.0169781 0.00530427 0.0446291
53 3 O 0.234538 3.48671 1.4948 -1.2 1 0.00152178 0.00320388 0.00281711 0.00443234 0.00176126 0.00656388 0.00279985 0.0179359 0.00345785 0.00701195 0.00230479 0.0247036 0.00321958 0.01341 0.00399811 0.0239713 0.00566204 0.0160767 0.00547649 0.042373
54 3 O 6.85564 6.07396 1.4948 -1.2 1 0.000722894 0.00239132 0.00230399 0.00491551 0.00238691 0.00625366 0.00322852 0.0199411 0.00307929 0.00752014 0.00218167 0.0278161 0.00322555 0.0145619 0.00466207 0.026832 0.00564731 0.0177714 0.00635313 0.0452917
55 3 O -0.429565 5.80612 0.196716 -1.2 1 0.000621024 0.00290201 0.00249553 0.00428496 0.00185396 0.00722478 0.00267205 0.0196856 0.00280932 0.00857913 0.00239156 0.0259168 0.00271593 0.0141418 0.00384673 0.025862 0.00504156 0.0168201 0.00574021 0.0451463
56 3 O -0.473377 5.80612 2.79288 -1.2 1 0.00139323 0.00314622 0.00189618 0.00445651 0.00229531 0.00680748 0.00327545 0.0191583 0.0032343 0.00802218 0.00291572 0.0260637 0.00376583 0.0143944 0.00450011 0.0264508 0.00650256 0.0184205 0.00692998 0.0455142
57 1 Mg 6.40169 9.49799 0 1.2 1 0.000363175 0.00366428 0.00146662 0.00477567 0.00162059 0.00828857 0.00206542 0.0212218 0.00169275 0.00894874 0.00166333 0.0291283 0.00246631 0.0147105 0.00280893 0.0298074 0.00376005 0.0179203 0.00422468 0.047552
58 1 Mg 3.64209 14.2057 1.4948 1.2 1 0.00191412 0.0034782 0.00164491 0.00469112 0.00162711 0.00888186 0.00164404 0.0217466 0.00158148 0.00867716 0.00226385 0.0284287 0.00267584 0.0162488 0.00309573 0.0296673 0.00360504 0.0170134 0.00336371 0.0494233
59 2 Si 5.45748 11.5215 1.4948 2.4 1 0.00186876 0.00339966 0.00187381 0.00471615 0.00183015 0.00819936 0.00224191 0.0212577 0.00153611 0.00837337 0.00169603 0.0289353 0.00269036 0.0162879 0.00341668 0.0293024 0.00405209 0.0170617 0.00384146 0.0491597
60 3 O 5.51101 13.1348 1.4948 -1.2 1 0.00200958 0.00341832 0.00180819 0.0047311 0.00157151 0.00908492 0.00187982 0.0212357 0.00175821 0.00864853 0.00160278 0.0294523 0.00220913 0.0162275 0.00286276 0.030005 0.0036979 0.0167111 0.00351697 0.0490873
61 3 O 1.83851 10.5475 1.4948 -1.2 1 0.00101743 0.00347314 0.00181238 0.00489459 0.00188655 0.00767178 0.00246095 0.0217782 0.00174792 0.00853999 0.0021919 0.0295571 0.00266072 0.0158279 0.0033498 0.0298886 0.00411481 0.0179073 0.00346958 0.0492277
62 3 O 4.7611 10.8154 0.196716 -1.2 1 0.000774085 0.00314391 0.00185833 0.00478742 0.0015556 0.00853418 0.00219957 0.0214664 0.00137674 0.00876548 0.00190843 0.0284842 0.00305769 0.0155896 0.00397323 0.0295299 0.00376251 0.0172153 0.00364975 0.0484539
63 1 Mg 6.35203 9.49799 2.9896 1.2 1 0.00130305 0.00376042 0.0017329 0.0048773 0.00263334 0.00758008 0.00347568 0.0204441 0.00308643 0.00864931 0.00206539 0.0292709 0.0037278 0.0162261 0.0034525 0.029281 0.0044291 0.0185681 0.00564074 0.0486301
64 3 O 4.71833 10.8154 2.79288 -1.2 1 0.00241544 0.00364565 0.00168603 0.0045355 0.00214683 0.00817847 0.00226771 0.0213181 0.00210261 0.00906304 0.00202112 0.0283867 0.00349938 0.0159939 0.00396693 0.0302978 0.00514994 0.0183484 0.00551405 0.0498216
65 1 Mg -1.0438 9.53931 4.4844 1.2 1 0.00250308 0.00464674 0.00154039 0.00460664 0.00303836 0.00681098 0.00290427 0.021097 0.00293976 0.00849633 0.00279309 0.0286213 0.00388443 0.0166342 0.00457499 0.0298645 0.00675117 0.0199352 0.00743986 0.0495989
66 2 Si -2.8604 12.2234 4.4844 2.4 1 0.00298276 0.00443798 0.0017373 0.00439483 0.0028078 0.00776994 0.00325298 0.0219027 0.00292348 0.00859012 0.00231997 0.0284559 0.00411752 0.0167554 0.00433942 0.0301852 0.00593534 0.0194631 0.00659355 0.0512767
67 3 O -2.91391 10.6102 4.4844 -1.2 1 0.00283842 0.00456267 0.00164566 0.00453364 0.0029512 0.00710067 0.00339829 0.0208305 0.00278249 0.00804651 0.00200962 0.0288067 0.00440843 0.016088 0.00422901 0.0307276 0.00621977 0.0197999 0.00700524 0.0501313
68 3 O 0.7596 13.1975 4.4844 -1.2 1 0.00317939 0.00453469 0.00171777 0.00496476 0.00283832 0.00858818 0.00274547 0.0222838 0.00287956 0.00854549 0.00264859 0.0288666 0.00398233 0.0166279 0.00417487 0.0303327 0.00620292 0.0196288 0.00677625 0.0510552
69 3 O -2.12001 12.9296 3.18632 -1.2 1 0.00313725 0.00393757 0.00168166 0.00410472 0.00246882 0.00763224 0.00252736 0.0218883 0.00244275 0.00858315 0.00225481 0.0280854 0.00377626 0.0166625 0.00447318 0.0304953 0.00521625 0.0184456 0.0053738 0.0506939
70 3 O -2.16532 12.9296 5.78248 -1.2 1 0.00359296 0.00474013 0.00160189 0.00462943 0.00295319 0.00708815 0.00259434 0.021968 0.00265447 0.00865685 0.00253787 0.027936 0.00390984 0.0172512 0.00459575 0.0312158 0.00665123 0.020954 0.00710121 0.0524747
71 1 Mg 1.29891 11.8725 2.9896 1.2 1 0.00232054 0.00358731 0.00171372 0.00481075 0.00251409 0.00801217 0.00291341 0.0211608 0.00248939 0.00870227 0.00213718 0.0294098 0.00345951 0.0163622 0.00362649 0.0299807 0.00471694 0.0179127 0.00485002 0.0496426
72 1 Mg 4.10033 11.8312 4.4844 1.2 1 0.00288288 0.00416545 0.00188645 0.00435128 0.00257325 0.0072684 0.00276653 0.0214555 0.00261283 0.00840371 0.00273556 0.0289321 0.00369349 0.0174505 0.00510211 0.0305432 0.00665366 0.0194972 0.00655361 0.0509094
73 2 Si 2.27333 13.896 4.4844 2.4 1 0.00314589 0.0039715 0.00179564 0.00489797 0.00303852 0.0078029 0.00320617 0.0219241 0.00258491 0.00841879 0.00277068 0.028561 0.00377256 0.0169316 0.00441509 0.0303391 0.00566957 0.0188736 0.00639604 0.0519537
74 3 O 2.28634 15.5093 4.4844 -1.2 1 0.00336512 0.00439272 0.00187468 0.00451336 0.00302829 0.00742784 0.00270057 0.0212465 0.00269584 0.00783059 0.0021604 0.0288863 0.00337125 0.0163151 0.00405544 0.0308068 0.00600543 0.0188142 0.00661384 0.0517211
75 3 O -4.34533 12.922 4.4844 -1.2 1 0.00286283 0.00438319 0.00188122 0.00467026 0.00277379 0.00839989 0.00297568 0.0219313 0.00292088 0.00856284 0.00248211 0.0290353 0.00393398 0.0166577 0.00484553 0.0306124 0.00653565 0.0198226 0.0072724 0.0512045
76 3 O 2.98455 13.1899 3.18632 -1.2 1 0.00284167 0.00368026 0.00157735 0.0043582 0.00249607 0.00787759 0.00214088 0.0219656 0.00229862 0.008823 0.00239064 0.0281186 0.00349794 0.0162391 0.0043461 0.0302338 0.00558702 0.018506 0.00547753 0.0505069
77 1 Mg 1.34779 11.8725 0 1.2 1 0.000993514 0.00301999 0.00133782 0.00478479 0.00145658 0.00885666 0.00170586 0.0213282 0.0011949 0.00910819 0.00196128 0.0291893 0.0029176 0.0149502 0.00299696 0.0301979 0.00316748 0.0172931 0.00326989 0.0481102
78 3 O 2.93934 13.1899 5.78248 -1.2 1 0.00285437 0.0046412 0.00188481 0.00480552 0.00294003 0.00713836 0.00265783 0.0220958 0.00275392 0.00856834 0.00307847 0.0279331 0.00444906 0.0171417 0.00497762 0.0312566 0.00660618 0.0211976 0.00710954 0.0525472
79 1 Mg -1.50344 11.9138 1.4948 1.2 1 0.00134933 0.00351729 0.00141271 0.00455688 0.00143314 0.00822956 0.00189459 0.0217577 0.00238737 0.00867821 0.00152701 0.0288593 0.00358573 0.0162015 0.0033318 0.0297884 0.00335753 0.0176103 0.00369016 0.0491079
80 2 Si 0.326006 9.84894 1.4948 2.4 1 0.000594954 0.00330677 0.00136909 0.00496719 0.00191262 0.00814179 0.00216957 0.0212766 0.00214392 0.00854695 0.00162583 0.0287358 0.00295901 0.0156837 0.00365786 0.0288421 0.00374729 0.0178531 0.00349642 0.0485028
81 3 O 0.317364 8.23571 1.4948 -1.2 1 0.00102629 0.00327169 0.00130537 0.0045009 0.00188704 0.00769132 0.00228923 0.0204272 0.00260175 0.00815552 0.00177248 0.0289048 0.00348028 0.0156733 0.00391683 0.0285842 0.0044207 0.0177593 0.00431844 0.0475237
82 3 O 6.94307 10.823 1.4948 -1.2 1 0.00138372 0.00371732 0.0015833 0.00458434 0.00191598 0.00777451 0.00265941 0.0218885 0.00234829 0.00845642 0.00142888 0.029618 0.00302758 0.0159473 0.00334099 0.0299154 0.00365322 0.0180452 0.00410012 0.0491451
83 3 O -0.343122 10.5551 0.196716 -1.2 1 0.000671942 0.00300171 0.00127766 0.00466787 0.00147254 0.0085249 0.00191693 0.021504 0.00170756 0.00907431 0.00191914 0.0283937 0.00333458 0.0153798 0.00415642 0.0294487 0.00347736 0.0174615 0.00359552 0.0484164
84 3 O -0.385966 10.5551 2.79288 -1.2 1 0.00252194 0.00389624 0.00124456 0.00466411 0.00249567 0.00800654 0.00239858 0.0215988 0.00213716 0.00922851 0.00229493 0.02782 0.00378367 0.0160564 0.004141 0.0300256 0.00519106 0.0187918 0.00505491 0.0496478
85 1 Mg 6.49448 14.247 0 1.2 1 0.0011463 0.00337518 0.00174681 0.00460153 0.00115892 0.00913966 0.00140118 0.021423 0.00120323 0.00863548 0.00141931 0.0290151 0.00174305 0.0155398 0.00244884 0.0300745 0.00313131 0.0165836 0.00296399 0.0480884
86 1 Mg 3.74457 18.9547 1.4948 1.2 1 0.00236232 0.00339592 0.00131181 0.00402556 0.00176361 0.00857877 0.00133473 0.0221252 0.00183309 0.00804448 0.00231933 0.0277812 0.00254944 0.0166062 0.00354556 0.0289519 0.00357946 0.0165494 0.00333222 0.0499051
87 2 Si 5.55495 16.2705 1.4948 2.4 1 0.00235518 0.00320315 0.00136624 0.00447765 0.00180347 0.00888612 0.0013656 0.0215033 0.00129866 0.00793822 0.00127966 0.0286106 0.00231653 0.0164127 0.00290531 0.0289639 0.00373093 0.0160869 0.0035937 0.0494533
88 3 O 5.6115 17.8838 1.4948 -1.2 1 0.00231113 0.00321155 0.00159482 0.00424934 0.00179112 0.00918132 0.00158193 0.0216956 0.00177963 0.00786629 0.0015089 0.0287808 0.00203193 0.0166078 0.00275533 0.0290881 0.00334203 0.0159085 0.00348166 0.0495269
89 3 O 1.93416 15.2965 1.4948 -1.2 1 0.00212995 0.00344815 0.00155108 0.0045598 0.00184321 0.0084233 0.00203883 0.0219163 0.00173708 0.00808871 0.00144248 0.0292062 0.00198661 0.0163441 0.00282873 0.0298177 0.00374691 0.0166461 0.00332862 0.0498823
90 3 O 4.85636 15.5644 0.196716 -1.2 1 0.00162594 0.00279036 0.00151566 0.00461765 0.00118137 0.00913477 0.00135102 0.0214399 0.000889939 0.00829631 0.00166975 0.0281889 0.00263224 0.0161298 0.00354588 0.0293987 0.00324506 0.0159233 0.00304038 0.0488681
91 1 Mg 6.44662 14.247 2.9896 1.2 1 0.00199076 0.00377494 0.00139004 0.00446966 0.00252791 0.0084919 0.00289986 0.0209472 0.00263469 0.0086671 0.00171767 0.0293782 0.0031257 0.0165987 0.00298234 0.0297969 0.0040183 0.0176361 0.0046948 0.0497213
92 3 O 4.81537 15.5644 2.79288 -1.2 1 0.00284564 0.00357515 0.00138381 0.00439104 0.00225799 0.00879862 0.00168038 0.0218283 0.0016609 0.00858612 0.00186285 0.0281048 0.00283101 0.0165277 0.0034907 0.0298396 0.00480204 0.0173924 0.00501503 0.0503492
93 1 Mg -0.948271 14.2883 4.4844 1.2 1 0.00360064 0.00409623 0.00161219 0.00445124 0.00272135 0.00791771 0.002689 0.0216771 0.002769 0.00852772 0.0027523 0.0285941 0.00328299 0.0173173 0.00497291 0.0304527 0.00609682 0.0190336 0.0064578 0.0515631
94 2 Si -2.75928 16.9724 4.4844 2.4 1 0.00346399 0.00384629 0.00186121 0.0044755 0.00284869 0.00807389 0.00295038 0.0221143 0.00274417 0.00803898 0.00253731 0.0280997 0.00335169 0.0173035 0.00449753 0.0297674 0.00529053 0.0185805 0.00603212 0.0524146
95 3 O -2.81617 15.3592 4.4844 -1.2 1 0.00366715 0.00424496 0.00184562 0.00433887 0.00295406 0.00760312 0.00291732 0.0211836 0.00267141 0.00787699 0.00219694 0.0288056 0.00359111 0.0164586 0.00422305 0.030584 0.00609735 0.0187053 0.00655329 0.0514109
96 3 O 0.862762 17.9465 4.4844 -1.2 1 0.00335448 0.00448688 0.00171321 0.00461079 0.00291221 0.00849425 0.00240413 0.0224084 0.00264095 0.00780457 0.00250395 0.0286456 0.00356779 0.0171319 0.00426693 0.0299231 0.00597946 0.0186444 0.00638891 0.0522794
97 3 O -2.0185 17.6786 3.18632 -1.2 1 0.00320241 0.00367472 0.00181503 0.00395043 0.00252662 0.00780471 0.00235515 0.0222159 0.0022587 0.00788791 0.00211736 0.0277768 0.0034704 0.0167621 0.00430978 0.029956 0.00487272 0.0176236 0.00520761 0.0512656
98 3 O -2.06164 17.6786 5.78248 -1.2 1 0.00370044 0.00463064 0.00175437 0.00461314 0.00289434 0.00723487 0.00245972 0.0223722 0.00258973 0.008077 0.00279406 0.0277655 0.0032975 0.0177517 0.005135 0.0313837 0.00616943 0.0204882 0.00633575 0.0540851
99 1 Mg 1.39817 16.6215 2.9896 1.2 1 0.00303645 0.00371047 0.00173131 0.00452717 0.00256974 0.00847562 0.00274617 0.0212698 0.0025288 0.00807118 0.00198522 0.0289193 0.00259388 0.0168142 0.00314022 0.029629 0.00422221 0.0169353 0.00448528 0.0504078
100 1 Mg 4.20062 16.5802 4.4844 1.2 1 0.00317641 0.00392735 0.00192303 0.00439865 0.0026816 0.00788051 0.00249308 0.0218582 0.00308088 0.00788674 0.00293972 0.0284557 0.00333167 0.0177278 0.0053533 0.0301245 0.00652258 0.0187806 0.00634264 0.0521381
101 2 Si 2.37796 18.645 4.4844 2.4 1 0.00311002 0.00396925 0.0017201 0.00461474 0.00293819 0.0081387 0.00275531 0.0223791 0.00261982 0.00791361 0.00274941 0.0278961 0.00337112 0.0174001 0.00429064 0.0298053 0.00553608 0.0183836 0.00597951 0.053302
102 3 O 2.39434 20.2583 4.4844 -1.2 1 0.00309761 0.00424147 0.0016407 0.00449966 0.00286943 0.00721087 0.00251662 0.0215559 0.0027885 0.00734792 0.00199764 0.0284887 0.00315814 0.0170055 0.00397884 0.0302538 0.00586583 0.0183299 0.00664195 0.0529223
103 3 O -4.24274 17.671 4.4844 -1.2 1 0.00297426 0.00416534 0.00193334 0.00446493 0.00279213 0.0086918 0.00282147 0.0223374 0.00284848 0.0079564 0.00238538 0.0286766 0.00335506 0.0170358 0.00479427 0.0300411 0.00600918 0.0189794 0.00668079 0.0520718
104 3 O 3.08659 17.9389 3.18632 -1.2 1 0.00313936 0.00356878 0.00170645 0.00410687 0.00260014 0.00809165 0.00186817 0.0221378 0.00234071 0.00798545 0.00229725 0.0276825 0.00317957 0.0166886 0.00431755 0.0298087 0.00548379 0.0176991 0.00551175 0.0513477
105 1 Mg 1.44478 16.6215 0 1.2 1 0.00215105 0.00302524 0.00111485 0.00432302 0.00128416 0.00892923 0.00123773 0.0215042 0.00131166 0.00831489 0.00144089 0.0287383 0.00221019 0.015755 0.00235474 0.0294382 0.00282397 0.0161861 0.00294038 0.0486235
106 3 O 3.0436 17.9389 5.78248 -1.2 1 0.00306392 0.00462544 0.00189866 0.00478941 0.00283481 0.00727534 0.0024109 0.0223661 0.00242858 0.00825149 0.00266361 0.0277724 0.00368388 0.0173186 0.00489537 0.0310586 0.00630467 0.0207836 0.00668998 0.053944
107 1 Mg -1.40524 16.6628 1.4948 1.2 1 0.00192621 0.00347039 0.00135724 0.00434843 0.00157262 0.00867076 0.00193268 0.0221997 0.00183371 0.00822696 0.0017948 0.0283588 0.00309306 0.0167947 0.0028416 0.0295237 0.00284382 0.01675 0.00319787 0.0495736
108 2 Si 0.420358 14.5979 1.4948 2.4 1 0.00177495 0.00312568 0.00159123 0.00475324 0.00200378 0.00908406 0.00204623 0.0214039 0.00159949 0.00825236 0.0014156 0.0286515 0.00286943 0.0165305 0.00342541 0.0289722 0.00338222 0.0165084 0.00340218 0.0493065
109 3 O 0.408732 12.9847 1.4948 -1.2 1 0.00166891 0.00305294 0.0013507 0.00472536 0.00188385 0.00901658 0.00167061 0.0212833 0.00213585 0.00851556 0.0015377 0.0292603 0.00308101 0.0161681 0.00299573 0.0298403 0.00310046 0.0169473 0.00355283 0.0492617
110 3 O 7.03923 15.572 1.4948 -1.2 1 0.00187422 0.00342044 0.00143356 0.0044067 0.00192275 0.00828075 0.00242198 0.0217722 0.00210272 0.00810482 0.00150198 0.0293332 0.00253572 0.0165238 0.00284644 0.0297589 0.00334049 0.0167597 0.00378435 0.0495301
111 3 O -0.248332 15.3041 0.196716 -1.2 1 0.00185973 0.0029153 0.00136184 0.00444448 0.00110308 0.00892843 0.00181085 0.0213488 0.00131097 0.00841151 0.00153463 0.028243 0.00281783 0.016014 0.00363444 0.029365 0.00282821 0.0161461 0.00307141 0.0487594
112 3 O -0.289436 15.3041 2.79288 -1.2 1 0.00335272 0.00358996 0.00149956 0.00418297 0.00237211 0.00872086 0.00209859 0.0220713 0.00191647 0.00877347 0.00185656 0.0276295 0.00304395 0.0169351 0.00378091 0.0297008 0.00458905 0.0176874 0.00454114 0.050487
113 1 Mg 6.59566 18.996 0 1.2 1 0.00138141 0.00325434 0.00138015 0.00416912 0.00103647 0.0086043 0.00122525 0.0220366 0.00113922 0.00788313 0.00128842 0.0283314 0.00176945 0.0163557 0.00223949 0.0287052 0.00283944 0.0159964 0.00291192 0.0486239
114 1 Mg 3.85574 23.7037 1.4948 1.2 1 0.00224852 0.00276604 0.00111909 0.00416989 0.00176531 0.00747967 0.0012869 0.0231934 0.00173809 0.00756629 0.00215076 0.0273106 0.00247329 0.0176732 0.00375613 0.0285097 0.00349239 0.01706 0.0036701 0.0509002
115 2 Si 5.66125 21.0195 1.4948 2.4 1 0.00226904 0.00280075 0.00117216 0.00407435 0.002054 0.00822011 0.00152156 0.021982 0.00125604 0.00748436 0.00150234 0.0280661 0.00240724 0.0174306 0.00272881 0.0280367 0.00369004 0.0158991 0.00392154 0.0503182
116 3 O 5.72074 22.6328 1.4948 -1.2 1 0.00257247 0.00286648 0.00149191 0.00405499 0.00188833 0.00821698 0.00164348 0.0223613 0.00182537 0.00725449 0.00141243 0.0280431 0.00206066 0.0173638 0.00286364 0.0284575 0.0035384 0.0162267 0.00390153 0.0502796
117 3 O 2.03867 20.0455 1.4948 -1.2 1 0.00219082 0.00349191 0.0013727 0.00425402 0.00180149 0.00785836 0.00204356 0.0222233 0.00209753 0.0074339 0.00141473 0.0285788 0.00204185 0.0172457 0.00251572 0.0289728 0.0036873 0.0162025 0.00362999 0.0503554
118 3 O 4.96004 20.3134 0.196716 -1.2 1 0.00186241 0.00253543 0.0012501 0.00408457 0.00128655 0.0083019 0.00100975 0.0217246 0.000975379 0.00761201 0.00149611 0.027816 0.00264376 0.0166289 0.00384545 0.0286966 0.00320184 0.0152816 0.0030132 0.0493934
119 1 Mg 6.55057 18.996 2.9896 1.2 1 0.0021102 0.00367702 0.00148577 0.00417405 0.00251872 0.00829508 0.00277804 0.0213644 0.00240539 0.00792118 0.0016762 0.0291139 0.00290767 0.0171618 0.00302222 0.029024 0.00405806 0.0169834 0.00463879 0.0504723