ITEM: TIMESTEP
30500
ITEM: NUMBER OF ATOMS
10500
ITEM: BOX BOUNDS xy xz yz pp pp pp
0	15.2977	5.09925
0	118.725	0
0	89.688	0
ITEM: ATOMS id type element xu yu zu q Q_1 Q_2 Q_3 Q_4 Q_5 Q_6 Q_7 Q_8 Q_9 Q_10 Q_11 Q_12 Q_13 Q_14 Q_15 Q_16 Q_17 Q_18 Q_19 Q_20 Q_21
1 1 Mg 6.2404 -6.37941e-06 0 1.2 1 0.00183099 0.00413127 0.00130085 0.00480515 0.00134314 0.00550059 0.00204584 0.0160154 0.00215613 0.00570277 0.00216804 0.0216288 0.00256438 0.0135004 0.00355902 0.0207691 0.00384247 0.014059 0.00388806 0.0405201
2 1 Mg 3.46349 4.70768 1.4948 1.2 1 0.000774643 0.00359208 0.00139005 0.00441447 0.00189346 0.00613845 0.00365145 0.0185529 0.00282067 0.00673525 0.00279318 0.0254924 0.00318448 0.013627 0.00409494 0.0253026 0.00556827 0.0171669 0.00578024 0.0440375
3 2 Si 5.2885 2.02354 1.4948 2.4 1 0.000863294 0.00332666 0.0018701 0.00457336 0.00188812 0.00567305 0.00244981 0.0167503 0.00247592 0.00590761 0.00204278 0.0229506 0.00307503 0.0134175 0.00369689 0.0216256 0.00389985 0.0151365 0.00424737 0.0411542
4 3 O 5.33628 3.63678 1.4948 -1.2 1 0.000496629 0.00308099 0.00155688 0.00490068 0.0021406 0.00632121 0.00296252 0.0176469 0.00227369 0.0064418 0.00195457 0.024954 0.00266202 0.0135857 0.00423585 0.0240744 0.00512379 0.0164025 0.00564011 0.0429698
5 3 O 1.67294 1.04952 1.4948 -1.2 1 0.00198634 0.00329658 0.00217086 0.00400301 0.00134371 0.00572846 0.00246377 0.0168362 0.00230069 0.0059779 0.00211314 0.0225729 0.00271952 0.0128453 0.00335366 0.0221276 0.00454926 0.0156633 0.00469352 0.040279
6 3 O 4.59532 1.31737 0.196716 -1.2 1 0.00172508 0.00307467 0.00199692 0.00447419 0.00195243 0.0056 0.00234392 0.0170578 0.00275418 0.00605472 0.00205525 0.0221041 0.00338143 0.0127919 0.00437233 0.0216108 0.00407688 0.0148237 0.00448404 0.0408458
7 1 Mg 6.18956 -6.37941e-06 2.9896 1.2 1 0.00138497 0.00431787 0.00158215 0.00414136 0.00133514 0.0057076 0.00245895 0.0159961 0.00264601 0.00538752 0.00176956 0.0224149 0.00275313 0.0133794 0.00384701 0.0207143 0.0043995 0.0149188 0.00470345 0.0391623
8 3 O 4.55118 1.31737 2.79288 -1.2 1 0.00116555 0.00425948 0.00180707 0.00404691 0.00197026 0.00576353 0.00247985 0.0167041 0.00247046 0.00664839 0.0022155 0.021698 0.00346868 0.012195 0.00338676 0.021743 0.00463958 0.0155208 0.0049816 0.0402153
9 1 Mg -1.20682 0.0413099 4.4844 1.2 1 0.000960022 0.00279958 0.00178905 0.0045132 0.00145348 0.0055673 0.0020451 0.0160404 0.00214601 0.00565771 0.00200188 0.0228308 0.00300785 0.0118624 0.00346823 0.0211048 0.0050497 0.0157997 0.00503049 0.038952
10 2 Si -3.0337 2.72544 4.4844 2.4 1 0.000723797 0.00337345 0.00187567 0.00488883 0.00238387 0.00638265 0.00346192 0.0166573 0.00311306 0.00595854 0.00229141 0.0239642 0.00311273 0.0128555 0.00398031 0.0227046 0.00528799 0.0177394 0.0060583 0.0402784
11 3 O -3.08099 1.11221 4.4844 -1.2 1 0.00112378 0.00358514 0.0018717 0.00420585 0.00172994 0.00554861 0.00252548 0.0158891 0.00271795 0.00538407 0.0021472 0.02266 0.00318624 0.0113866 0.00364282 0.0217454 0.00496299 0.0163351 0.00541099 0.038743
12 3 O 0.582463 3.69946 4.4844 -1.2 1 0.00219347 0.00460373 0.00204892 0.00446956 0.00249131 0.00685145 0.00372148 0.0171818 0.00339268 0.00620349 0.00302155 0.0248786 0.00410362 0.0129729 0.00430999 0.0246522 0.00667225 0.0187855 0.00782445 0.042573
13 3 O -2.29524 3.43162 3.18632 -1.2 1 0.000931561 0.00294591 0.00262625 0.0047259 0.00228815 0.00601204 0.00300288 0.0177389 0.00315511 0.00637372 0.00258815 0.0245033 0.00304383 0.0130371 0.00456762 0.0243274 0.0058514 0.0179795 0.00639837 0.0424469
14 3 O -2.34216 3.43162 5.78248 -1.2 1 0.00211543 0.00384177 0.00129806 0.00475861 0.00276934 0.0063451 0.00346122 0.0169806 0.00305796 0.00669321 0.00263094 0.0235674 0.00453113 0.0122275 0.0038328 0.0234483 0.00625816 0.0193835 0.0073708 0.0412982
15 1 Mg 1.12778 2.37449 2.9896 1.2 1 0.00154531 0.00359426 0.00239944 0.00440301 0.00225523 0.00599801 0.00309 0.0165963 0.00269721 0.0059065 0.00228285 0.0235847 0.00329475 0.0129684 0.00350419 0.0222657 0.00475591 0.016581 0.00546294 0.0410779
16 1 Mg 3.92855 2.33318 4.4844 1.2 1 0.00103105 0.00427814 0.00162504 0.00413801 0.00194251 0.0059005 0.00353338 0.0166277 0.00319661 0.00589377 0.00290222 0.0230524 0.00378181 0.013156 0.00513892 0.0220751 0.00607129 0.0172039 0.00666179 0.0408862
17 2 Si 2.09341 4.39804 4.4844 2.4 1 0.00174919 0.00427233 0.00214105 0.00411736 0.00279324 0.00622439 0.00378539 0.0178726 0.00353512 0.00615271 0.00332321 0.0249153 0.00441211 0.0139111 0.00418452 0.0250076 0.00664285 0.0184785 0.00833145 0.0442902
18 3 O 2.09991 6.01128 4.4844 -1.2 1 0.00276754 0.00454071 0.00156414 0.00404626 0.00279244 0.00677929 0.00330985 0.0188991 0.00287194 0.0068032 0.00297626 0.0265987 0.00404779 0.0144181 0.00457464 0.0273592 0.00677517 0.0193248 0.00784623 0.0462237
19 3 O -4.52137 3.42402 4.4844 -1.2 1 0.00104018 0.00382038 0.00217757 0.00457967 0.00238815 0.00729097 0.00353128 0.0171094 0.00328992 0.0059815 0.0031956 0.0236104 0.00401726 0.0128411 0.00423898 0.0230856 0.00617359 0.0178944 0.00753235 0.0420961
20 3 O 2.80834 3.69187 3.18632 -1.2 1 0.00118406 0.00382071 0.00165183 0.00364892 0.00212091 0.00606983 0.00317778 0.0171668 0.00304722 0.00602268 0.00272995 0.0242448 0.00356096 0.0128944 0.00464373 0.0239981 0.00570224 0.0170671 0.00631534 0.0429976
21 1 Mg 1.17857 2.37449 0 1.2 1 0.00215343 0.00369706 0.00231842 0.00409103 0.00148088 0.00554507 0.00252637 0.0169422 0.00240369 0.00655396 0.00277259 0.022898 0.00288824 0.0130252 0.00333678 0.0217986 0.0043605 0.0147726 0.00483783 0.0406323
22 3 O 2.76143 3.69187 5.78248 -1.2 1 0.00200813 0.00418531 0.00170891 0.00423529 0.00213171 0.00581607 0.00298589 0.0172805 0.00337228 0.00677653 0.00297872 0.0233142 0.00470677 0.0128626 0.00537528 0.0234316 0.00635063 0.0186273 0.00723092 0.0421387
23 1 Mg -1.67381 2.41581 1.4948 1.2 1 0.00144287 0.00271656 0.00250656 0.00485185 0.00152553 0.00610147 0.00250406 0.0164308 0.00259078 0.00610276 0.00186916 0.0240791 0.00246761 0.0142124 0.0028917 0.0223971 0.00426765 0.0161492 0.00483235 0.0416997
24 2 Si 0.16286 0.350945 1.4948 2.4 1 0.00221614 0.00263951 0.00279253 0.00445645 0.00119793 0.00633129 0.00272546 0.0162906 0.00199225 0.00515992 0.00186543 0.0226688 0.00244532 0.0135357 0.00310153 0.0208958 0.00445811 0.0148465 0.00435158 0.0401328
25 3 O 0.15972 -1.26229 1.4948 -1.2 1 0.00257982 0.00275621 0.00295041 0.00440445 0.00181783 0.00597798 0.00249956 0.0163353 0.00212927 0.00542993 0.00239278 0.022573 0.00266346 0.013953 0.0029655 0.0218831 0.00419283 0.0145882 0.00384914 0.0408034
26 3 O 6.77654 1.32496 1.4948 -1.2 1 0.00149127 0.00372344 0.0016656 0.00459608 0.00132255 0.00594361 0.00223733 0.0166418 0.00245832 0.00545578 0.0017999 0.0235655 0.0027815 0.0135593 0.00365429 0.0220082 0.00455791 0.0152282 0.00423647 0.0407868
27 3 O -0.508028 1.05712 0.196716 -1.2 1 0.00203558 0.00289555 0.00338114 0.00406252 0.00139715 0.00561422 0.00242795 0.0168211 0.00166321 0.00659652 0.00258923 0.0218342 0.00267978 0.0128931 0.0031444 0.0213491 0.00406381 0.0150182 0.00426816 0.0399929
28 3 O -0.552171 1.05712 2.79288 -1.2 1 0.00135344 0.00239799 0.00292286 0.00443142 0.00145885 0.00611803 0.00237177 0.0161218 0.0025807 0.00588389 0.0018729 0.0229695 0.00307221 0.012117 0.00389405 0.0220094 0.005285 0.016078 0.00491627 0.0399528
29 1 Mg 6.31713 4.74899 0 1.2 1 0.000808352 0.0030604 0.00186639 0.00484976 0.00218057 0.00617693 0.00336147 0.0179838 0.00283412 0.00686188 0.00224353 0.0248875 0.00300638 0.013701 0.00412505 0.0247108 0.00476552 0.0163276 0.00602043 0.0427489
30 1 Mg 3.54847 9.45668 1.4948 1.2 1 0.00223392 0.00349089 0.00173346 0.00468093 0.00203324 0.00765723 0.00313575 0.0212579 0.00171801 0.0082071 0.00223303 0.0283916 0.00305194 0.0155318 0.00390094 0.0290486 0.00457774 0.0181103 0.00410888 0.048944
31 2 Si 5.36879 6.77254 1.4948 2.4 1 0.00106732 0.0034546 0.00177441 0.00524374 0.00265259 0.00693664 0.0038302 0.0194086 0.00273101 0.00759504 0.0025096 0.0275039 0.00315483 0.0152043 0.00422351 0.0269418 0.00484545 0.0172001 0.00546366 0.0467067
32 3 O 5.41937 8.38578 1.4948 -1.2 1 0.00191677 0.0035233 0.00168152 0.00514356 0.00221302 0.00780403 0.00321487 0.0208061 0.00221296 0.00818497 0.0023505 0.0287951 0.0021488 0.015508 0.00311984 0.0291275 0.00488271 0.0173812 0.0050063 0.0482134
33 3 O 1.75158 5.79852 1.4948 -1.2 1 0.00103438 0.00364086 0.00176132 0.00415541 0.00231782 0.00615971 0.00342263 0.0193494 0.00282218 0.00705156 0.00258489 0.0277218 0.00281993 0.0154037 0.00337253 0.0268763 0.00554553 0.0174268 0.00562775 0.0460345
34 3 O 4.67421 6.06637 0.196716 -1.2 1 0.000633208 0.00329069 0.00135889 0.00491154 0.00194325 0.00691535 0.00293656 0.0196185 0.00249681 0.00799837 0.00209121 0.026005 0.00340938 0.0141306 0.0040554 0.0265804 0.00490128 0.016613 0.00570038 0.0451342
35 1 Mg 6.26654 4.74899 2.9896 1.2 1 0.00127808 0.00337424 0.00216741 0.00509238 0.00269754 0.0066266 0.00389 0.0178363 0.00375733 0.00679184 0.00217218 0.0257466 0.00349358 0.0142933 0.00488376 0.0250449 0.0059016 0.0177709 0.00692482 0.0438316
36 3 O 4.63043 6.06637 2.79288 -1.2 1 0.00215885 0.00379313 0.00177344 0.005039 0.002404 0.00698054 0.00346116 0.0192979 0.00325457 0.00738687 0.00233732 0.0259629 0.00383132 0.0145425 0.0043833 0.0273351 0.00604305 0.0182416 0.00704343 0.0461418
37 1 Mg -1.12976 4.79031 4.4844 1.2 1 0.00216856 0.00405857 0.00174613 0.00485252 0.0023264 0.00659779 0.0033686 0.0179345 0.00377301 0.00671108 0.00302695 0.0258149 0.00386043 0.0142582 0.00467492 0.0258071 0.0074772 0.0194307 0.00783394 0.0449284
38 2 Si -2.9517 7.47444 4.4844 2.4 1 0.0028466 0.0044518 0.00136451 0.00529329 0.00296076 0.00698174 0.00380364 0.0201813 0.00328284 0.00722023 0.00303193 0.0272859 0.00442283 0.0159542 0.0054151 0.0279084 0.00697381 0.0190985 0.00762365 0.0483825
39 3 O -3.00198 5.86121 4.4844 -1.2 1 0.00239214 0.00432329 0.00127123 0.00494846 0.00336112 0.00678255 0.00423305 0.0188637 0.00360286 0.0071172 0.00285663 0.0259272 0.00429124 0.014066 0.00470179 0.0267697 0.00693355 0.019373 0.00820561 0.0462944
40 3 O 0.666315 8.44846 4.4844 -1.2 1 0.00356813 0.0052138 0.00108634 0.00483678 0.00274588 0.00785172 0.00295692 0.0209677 0.003181 0.00738603 0.0032591 0.0281105 0.00457424 0.0161229 0.00462863 0.0290685 0.00620916 0.0195639 0.00772432 0.0495269
41 3 O -2.21213 8.18062 3.18632 -1.2 1 0.00295169 0.00445399 0.00149704 0.00464193 0.00257372 0.0065023 0.00294738 0.0206238 0.00285692 0.00766375 0.00287549 0.0274848 0.00398815 0.0158986 0.00490243 0.0289123 0.00598758 0.018727 0.00655336 0.0491814
42 3 O -2.25864 8.18062 5.78248 -1.2 1 0.00383239 0.00507529 0.0013316 0.00468449 0.00296791 0.0063598 0.00317342 0.0207162 0.0026686 0.00776273 0.00332644 0.0266046 0.00440409 0.016466 0.00543151 0.0290748 0.00706447 0.0205156 0.00779925 0.050233
43 1 Mg 1.20893 7.12349 2.9896 1.2 1 0.00234352 0.00426799 0.00170641 0.00430167 0.00281619 0.00700141 0.00378703 0.0195586 0.00295527 0.00767457 0.00258202 0.0277234 0.00334028 0.0157122 0.00373091 0.0273976 0.0057008 0.0181611 0.00626942 0.047483
44 1 Mg 4.00982 7.08218 4.4844 1.2 1 0.00281347 0.00439004 0.00167922 0.00489831 0.00268928 0.00693379 0.00375064 0.0198308 0.00346085 0.00713005 0.00313446 0.0270646 0.00429609 0.0165634 0.00547221 0.0280631 0.00725477 0.0190731 0.00810277 0.0480334
45 2 Si 2.17861 9.14704 4.4844 2.4 1 0.00372983 0.0046408 0.00137143 0.00477697 0.00278987 0.0076119 0.0037236 0.0210777 0.00300797 0.00779591 0.0031316 0.0276908 0.0044992 0.0167137 0.00464268 0.0292522 0.00587884 0.0192233 0.00695369 0.0509258
46 3 O 2.18828 10.7603 4.4844 -1.2 1 0.00445646 0.00507691 0.00161146 0.00435766 0.00257715 0.00729052 0.00293489 0.0207922 0.00238175 0.00772181 0.00222781 0.028256 0.00399879 0.0158815 0.00452285 0.0304783 0.00603607 0.0195976 0.00648821 0.0513711
47 3 O -4.43805 8.17302 4.4844 -1.2 1 0.00259265 0.00499862 0.00153074 0.00516076 0.00254526 0.00807737 0.00325947 0.020489 0.00325122 0.00758268 0.00312501 0.0279528 0.00468805 0.0158473 0.00485689 0.0293502 0.00683445 0.0194327 0.00837804 0.0490569
48 3 O 2.89193 8.44087 3.18632 -1.2 1 0.0032994 0.00408778 0.00169189 0.00429628 0.00250669 0.0071058 0.00338304 0.0203465 0.00284583 0.00803911 0.00271123 0.027394 0.00375857 0.0159348 0.0046823 0.0288245 0.0058894 0.0185498 0.0059409 0.0493045
49 1 Mg 1.25915 7.12349 0 1.2 1 0.000615419 0.00339532 0.00162408 0.00431581 0.00180863 0.00722746 0.00295994 0.0199387 0.0027963 0.00801806 0.00263652 0.0274676 0.00347963 0.0140515 0.00359238 0.0275558 0.00479734 0.01729 0.0048235 0.0459899
50 3 O 2.84547 8.44087 5.78248 -1.2 1 0.00362739 0.00501287 0.00154879 0.00460733 0.00232883 0.00688914 0.00339518 0.0206931 0.00321707 0.00796585 0.00347064 0.0268373 0.00533849 0.0164138 0.0052071 0.0292269 0.0060773 0.0207198 0.00729067 0.0501385
51 1 Mg -1.59284 7.16481 1.4948 1.2 1 0.00137384 0.00366106 0.00143346 0.00472312 0.0019757 0.0064824 0.00281287 0.0198616 0.00284722 0.00766022 0.0018407 0.0274884 0.00309368 0.0155139 0.00368236 0.0271196 0.00472101 0.0175396 0.00571559 0.0467911
52 2 Si 0.240329 5.09994 1.4948 2.4 1 0.000836391 0.00375911 0.00206344 0.00407448 0.00192969 0.00685328 0.00315297 0.0188069 0.00312638 0.00712516 0.00235819 0.0258603 0.00276423 0.0144589 0.00399113 0.024895 0.00516368 0.0168724 0.00537317 0.0448783
53 3 O 0.234538 3.48671 1.4948 -1.2 1 0.00144229 0.0037057 0.00261966 0.00427871 0.00185897 0.00651442 0.00266659 0.017755 0.00343965 0.00678151 0.00229697 0.0243538 0.00317048 0.0135681 0.00384528 0.0241275 0.00541282 0.0161012 0.00547116 0.0424961
54 3 O 6.85564 6.07396 1.4948 -1.2 1 0.00123574 0.0031942 0.00221621 0.0050876 0.00256054 0.00620695 0.0032476 0.0198446 0.00308559 0.00732899 0.00203712 0.0274725 0.00312544 0.0146255 0.00461822 0.0269173 0.00565181 0.0176975 0.00627199 0.045715
55 3 O -0.429565 5.80612 0.196716 -1.2 1 0.000777272 0.00360272 0.00229012 0.00415736 0.001842 0.00716469 0.00278986 0.0193196 0.00285717 0.00812776 0.00261267 0.0254229 0.0026425 0.013964 0.00378231 0.0260767 0.00518706 0.0167241 0.00587759 0.0451209
56 3 O -0.473377 5.80612 2.79288 -1.2 1 0.00220008 0.00384116 0.00191367 0.00448056 0.00241232 0.0068885 0.00314975 0.0190422 0.00317286 0.00761287 0.00285067 0.0257088 0.00361336 0.0144251 0.0044327 0.0263575 0.00629921 0.0185163 0.0066912 0.0462584
57 1 Mg 6.40169 9.49799 0 1.2 1 0.00110062 0.00408953 0.00142674 0.00487605 0.00146934 0.00824542 0.00212461 0.0209088 0.00169648 0.00880762 0.00177726 0.0286701 0.00240027 0.0146957 0.00278627 0.0297966 0.0040815 0.0180402 0.00422181 0.047657
58 1 Mg 3.64209 14.2057 1.4948 1.2 1 0.00283078 0.00337556 0.00135169 0.00457627 0.00153117 0.00885078 0.00165744 0.0215633 0.00133986 0.00860384 0.00217467 0.0282971 0.00235312 0.016114 0.00301746 0.0294766 0.0038024 0.0169501 0.0035199 0.0495215
59 2 Si 5.45748 11.5215 1.4948 2.4 1 0.00288845 0.00356429 0.00163838 0.00477011 0.00159502 0.0082348 0.0021988 0.020884 0.00156758 0.00813451 0.00168622 0.0287364 0.00245859 0.0161243 0.00357154 0.0293059 0.00414323 0.0169067 0.00392955 0.0492087
60 3 O 5.51101 13.1348 1.4948 -1.2 1 0.00298985 0.00346708 0.00169889 0.00470772 0.00142096 0.00907047 0.00185851 0.0210487 0.00160443 0.00848729 0.00163396 0.0293052 0.0019643 0.016096 0.0028978 0.0297904 0.00391486 0.0166403 0.00361634 0.0491837
61 3 O 1.83851 10.5475 1.4948 -1.2 1 0.00225609 0.00367707 0.00173721 0.00469992 0.00165537 0.00770542 0.00230219 0.0214655 0.00180196 0.00820347 0.00204655 0.0292048 0.00238311 0.0156861 0.00346629 0.0297365 0.00435619 0.0178515 0.00358362 0.0493666
62 3 O 4.7611 10.8154 0.196716 -1.2 1 0.00166663 0.00330106 0.00179365 0.0048234 0.00161811 0.00846688 0.00220081 0.0213132 0.00147696 0.0086115 0.00186306 0.028177 0.0029047 0.0155062 0.00395466 0.0294869 0.00391054 0.0172401 0.00363059 0.0484994
63 1 Mg 6.35203 9.49799 2.9896 1.2 1 0.00253621 0.00416404 0.00143161 0.00484583 0.00248016 0.00771495 0.00353505 0.0203323 0.00321776 0.0082627 0.00210591 0.029014 0.00364871 0.0161993 0.00341133 0.029102 0.00453288 0.0183773 0.00529091 0.0491675
64 3 O 4.71833 10.8154 2.79288 -1.2 1 0.00379219 0.00402898 0.00150713 0.00440731 0.00200301 0.0083438 0.00214942 0.0211989 0.00198531 0.00851866 0.00200379 0.0281369 0.00319511 0.0157441 0.00402026 0.0301681 0.00525761 0.0182854 0.00554156 0.0503477
65 1 Mg -1.0438 9.53931 4.4844 1.2 1 0.00424995 0.0051364 0.00126238 0.00444103 0.00271884 0.00686044 0.00265349 0.0208061 0.00295791 0.00777819 0.00260136 0.028018 0.00385432 0.0166708 0.00477652 0.0297487 0.00619252 0.0195528 0.00675437 0.0507136
66 2 Si -2.8604 12.2234 4.4844 2.4 1 0.00463857 0.0048735 0.0015669 0.00425233 0.00260158 0.00792352 0.00334055 0.0216908 0.00270686 0.00805906 0.00247783 0.0279794 0.00412539 0.0165671 0.00469415 0.0297776 0.00582128 0.0188868 0.00626021 0.0520035
67 3 O -2.91391 10.6102 4.4844 -1.2 1 0.00452753 0.00508804 0.00157323 0.00437369 0.00272952 0.00740282 0.00335721 0.0205352 0.00262232 0.00730281 0.00192028 0.0282664 0.00408073 0.0159371 0.0046013 0.0303905 0.00579865 0.019504 0.00642191 0.051334
68 3 O 0.7596 13.1975 4.4844 -1.2 1 0.00456244 0.00448905 0.00161997 0.00448653 0.00255137 0.00864632 0.00265218 0.0220777 0.00268076 0.0078177 0.00280338 0.028342 0.00401217 0.0163936 0.00439704 0.0299803 0.00584215 0.019078 0.00663415 0.0516757
69 3 O -2.12001 12.9296 3.18632 -1.2 1 0.0047261 0.00429204 0.00152137 0.00403493 0.00230522 0.00766276 0.00248841 0.0217104 0.0022911 0.00805506 0.00229727 0.0277236 0.00352997 0.0161979 0.00468346 0.0302099 0.00524425 0.0182025 0.00538273 0.0510222
70 3 O -2.16532 12.9296 5.78248 -1.2 1 0.00511424 0.00497035 0.00153641 0.00416302 0.00274256 0.00692631 0.00245944 0.021745 0.00231032 0.00770889 0.00242893 0.0271674 0.00413911 0.0169446 0.00498066 0.030625 0.00594596 0.0202445 0.00655672 0.0530811
71 1 Mg 1.29891 11.8725 2.9896 1.2 1 0.00370529 0.00390827 0.00173471 0.00467044 0.002246 0.00819963 0.00285251 0.0207897 0.00245207 0.00826844 0.00211783 0.0289637 0.00329512 0.016222 0.00383515 0.029641 0.00470116 0.0177425 0.00479714 0.0501046
72 1 Mg 4.10033 11.8312 4.4844 1.2 1 0.00423453 0.0044063 0.00182331 0.00414467 0.00225785 0.00764232 0.00254585 0.0213532 0.00263179 0.00799757 0.00277451 0.0282298 0.00375146 0.0172229 0.00529032 0.0299294 0.00639561 0.0191569 0.00609595 0.0515295
73 2 Si 2.27333 13.896 4.4844 2.4 1 0.00432099 0.0039615 0.00160426 0.00450951 0.00270135 0.0081259 0.00323134 0.0217932 0.00237882 0.00782857 0.00276997 0.0277546 0.00374565 0.0168465 0.00445584 0.0296552 0.00547119 0.0186873 0.00590632 0.0524172
74 3 O 2.28634 15.5093 4.4844 -1.2 1 0.00456634 0.00427188 0.00166186 0.00413438 0.00281859 0.00728324 0.00291203 0.0209632 0.00243185 0.0074327 0.00220395 0.0284015 0.0032974 0.0159499 0.00408611 0.0304713 0.00574436 0.0184728 0.00612763 0.0517842
75 3 O -4.34533 12.922 4.4844 -1.2 1 0.00454828 0.00478415 0.00177565 0.00412593 0.00257264 0.00855057 0.00293414 0.0216924 0.00269731 0.00806723 0.00241998 0.0282503 0.00392239 0.0163072 0.00456573 0.0301888 0.00617302 0.0193838 0.0069821 0.0515482
76 3 O 2.98455 13.1899 3.18632 -1.2 1 0.00425325 0.00381891 0.00147292 0.00413652 0.00224337 0.00794007 0.00215097 0.0216761 0.00208095 0.00827333 0.00239752 0.0277435 0.00334717 0.0159781 0.00462008 0.0300202 0.00559832 0.0183568 0.00545319 0.0507646
77 1 Mg 1.34779 11.8725 0 1.2 1 0.00160634 0.00318976 0.00110681 0.00480386 0.00122042 0.00884416 0.00161897 0.0211218 0.00135909 0.00902455 0.00181544 0.0290555 0.0027322 0.0148328 0.00300719 0.0300637 0.00343124 0.0172922 0.00342101 0.0482034
78 3 O 2.93934 13.1899 5.78248 -1.2 1 0.0045254 0.00487986 0.00156069 0.00431953 0.00243294 0.00724783 0.00249261 0.021963 0.00243967 0.00765573 0.00291869 0.0272833 0.00403787 0.0169278 0.00470002 0.0308315 0.00601474 0.0207413 0.00642063 0.0531516
79 1 Mg -1.50344 11.9138 1.4948 1.2 1 0.00262055 0.00374234 0.00141802 0.00451293 0.00147145 0.00828138 0.00200541 0.0214448 0.0022723 0.00833334 0.00147813 0.0286697 0.00342706 0.0159894 0.00342694 0.0296513 0.00356323 0.0174896 0.00382395 0.0492635
80 2 Si 0.326006 9.84894 1.4948 2.4 1 0.00174058 0.00369542 0.00117887 0.00490683 0.0017408 0.00819758 0.00213963 0.0210045 0.00219423 0.00822605 0.00160767 0.0284872 0.00275685 0.0156431 0.00366733 0.0288068 0.0038864 0.0176852 0.00353542 0.04882
81 3 O 0.317364 8.23571 1.4948 -1.2 1 0.00206696 0.00389787 0.00102789 0.00447687 0.00186296 0.00773488 0.00226873 0.0201446 0.00260567 0.00776444 0.00185273 0.0285297 0.00324481 0.0156974 0.00380413 0.0285163 0.00450058 0.0175842 0.00434601 0.0480112
82 3 O 6.94307 10.823 1.4948 -1.2 1 0.00245265 0.00401265 0.00136197 0.00459786 0.00159087 0.00769903 0.00256517 0.0216452 0.00252633 0.00820961 0.0015049 0.0292193 0.00293021 0.0157052 0.00351882 0.0298637 0.0037435 0.017977 0.00418745 0.0493175
83 3 O -0.343122 10.5551 0.196716 -1.2 1 0.00153419 0.00334817 0.00127113 0.00464549 0.00154151 0.00842866 0.00193179 0.0210878 0.00182124 0.00869018 0.00183746 0.0282413 0.00332968 0.0153262 0.00418635 0.029367 0.00364102 0.0174107 0.00357409 0.0485609
84 3 O -0.385966 10.5551 2.79288 -1.2 1 0.00407596 0.00423584 0.00114596 0.00442019 0.00236013 0.00807114 0.00228122 0.0215334 0.00212255 0.00866467 0.00217092 0.0275852 0.00372017 0.0160581 0.00436605 0.0297744 0.00517693 0.0185133 0.00505279 0.0502655
85 1 Mg 6.49448 14.247 0 1.2 1 0.00144361 0.00342913 0.00158276 0.0048142 0.00112069 0.00919631 0.00127463 0.0212486 0.00122459 0.00848607 0.00136933 0.0289197 0.00163624 0.0154544 0.00253112 0.0299078 0.00327586 0.0166554 0.00295136 0.0480852
86 1 Mg 3.74457 18.9547 1.4948 1.2 1 0.00268069 0.00316156 0.00117373 0.00407453 0.00171905 0.00848491 0.00123626 0.0220495 0.00185242 0.00794807 0.00215148 0.0275211 0.00232187 0.0165094 0.00354044 0.0289028 0.00368096 0.016518 0.00341597 0.0498143
87 2 Si 5.55495 16.2705 1.4948 2.4 1 0.00301907 0.00305352 0.00118033 0.00452852 0.00169869 0.00890836 0.00134374 0.0213702 0.00124976 0.00784457 0.0012027 0.0285443 0.00216237 0.0163119 0.00287855 0.028808 0.00376592 0.0159549 0.0038241 0.0495809
88 3 O 5.6115 17.8838 1.4948 -1.2 1 0.0029347 0.0031427 0.00152455 0.00430611 0.00173853 0.00909189 0.00149383 0.0215487 0.00175285 0.00778646 0.00136648 0.0286886 0.00196157 0.0164302 0.00275544 0.0289855 0.00338146 0.0158647 0.00354757 0.0494872
89 3 O 1.93416 15.2965 1.4948 -1.2 1 0.0028487 0.00324583 0.00149309 0.00455283 0.00164985 0.00844277 0.00204538 0.0217803 0.00170933 0.00797143 0.00139789 0.0291335 0.0018023 0.0161556 0.00284656 0.0296641 0.00372855 0.0165944 0.00322747 0.0498097
90 3 O 4.85636 15.5644 0.196716 -1.2 1 0.00204546 0.00270492 0.00137605 0.00464236 0.0012445 0.00917699 0.00131266 0.0213321 0.000946788 0.00809895 0.00161782 0.0281741 0.0025582 0.0160575 0.0033119 0.0292593 0.00323517 0.0158966 0.0031066 0.0488526
91 1 Mg 6.44662 14.247 2.9896 1.2 1 0.00336976 0.00401624 0.00123776 0.00444199 0.00219163 0.00853046 0.00294148 0.0207197 0.00258898 0.0083389 0.00173253 0.0291637 0.00278983 0.0163984 0.00307547 0.0294692 0.00409965 0.0173315 0.00473758 0.050103
92 3 O 4.81537 15.5644 2.79288 -1.2 1 0.00389209 0.00320785 0.0013256 0.00417628 0.00221941 0.00871045 0.00161774 0.021843 0.00148121 0.00837664 0.00169918 0.0279909 0.00262473 0.0162749 0.00352407 0.0294872 0.00460174 0.0172635 0.00487078 0.0503813
93 1 Mg -0.948271 14.2883 4.4844 1.2 1 0.00485338 0.00409762 0.00143141 0.00410544 0.00259692 0.00764737 0.00272 0.0214728 0.00245928 0.00788812 0.00268411 0.0279484 0.00352007 0.0172198 0.00510725 0.0301104 0.00583147 0.0182734 0.00623737 0.0520004
94 2 Si -2.75928 16.9724 4.4844 2.4 1 0.00436331 0.00357437 0.00163194 0.00421284 0.00276193 0.0077795 0.00294548 0.0219541 0.00241034 0.00760404 0.00252355 0.0277429 0.00350171 0.0169604 0.00440254 0.0296573 0.00514213 0.018075 0.00589119 0.0524566
95 3 O -2.81617 15.3592 4.4844 -1.2 1 0.00503537 0.00413765 0.00170013 0.00407451 0.0028897 0.00756833 0.00318766 0.0209621 0.00247034 0.00729096 0.00222491 0.0284289 0.00366534 0.016079 0.00411115 0.0303287 0.0058003 0.0181811 0.00652482 0.0517412
96 3 O 0.862762 17.9465 4.4844 -1.2 1 0.00416836 0.00408223 0.0013809 0.00430317 0.00288944 0.00827558 0.00266324 0.0222984 0.00232929 0.007711 0.00234838 0.0282752 0.00357155 0.0167451 0.00428637 0.0295003 0.00559178 0.0185194 0.00586495 0.0518519
97 3 O -2.0185 17.6786 3.18632 -1.2 1 0.00412895 0.00338895 0.00156707 0.00370875 0.00250063 0.00744439 0.00240674 0.02223 0.00207687 0.00769995 0.00208941 0.0274006 0.00334429 0.0163742 0.00443007 0.0299044 0.00474506 0.0174629 0.00505468 0.0511579
98 3 O -2.06164 17.6786 5.78248 -1.2 1 0.00463236 0.00409718 0.00167095 0.00392559 0.00281282 0.00678146 0.00266092 0.0221214 0.00216604 0.00743945 0.00238851 0.0274435 0.00348216 0.0169819 0.004694 0.0307567 0.00600239 0.0199765 0.00608914 0.0536338
99 1 Mg 1.39817 16.6215 2.9896 1.2 1 0.00363934 0.00345823 0.00156578 0.00431646 0.00246942 0.00839593 0.00270894 0.0212208 0.00247766 0.0080116 0.00177476 0.0285531 0.00233072 0.0163141 0.00343884 0.0293897 0.00417049 0.016802 0.00434588 0.0501591
100 1 Mg 4.20062 16.5802 4.4844 1.2 1 0.00437558 0.00357405 0.00161311 0.00403817 0.00253262 0.00770122 0.00239217 0.0217244 0.00278127 0.00761707 0.00273627 0.0281293 0.00328306 0.0172762 0.00549786 0.0295615 0.00626529 0.0181748 0.0059493 0.0518174
101 2 Si 2.37796 18.645 4.4844 2.4 1 0.00383954 0.00354379 0.00132657 0.00431363 0.00282878 0.0080117 0.00291968 0.0220994 0.00257211 0.00769726 0.00243572 0.0274705 0.00325045 0.0168923 0.00444088 0.0294275 0.00543909 0.0183015 0.00565978 0.0528352
102 3 O 2.39434 20.2583 4.4844 -1.2 1 0.00366595 0.00371357 0.00136059 0.00410847 0.0028374 0.00691679 0.00274789 0.0212705 0.00274957 0.00720023 0.00167403 0.0281806 0.00319054 0.0164796 0.00403902 0.0299437 0.00558117 0.0182447 0.00631736 0.0520822
103 3 O -4.24274 17.671 4.4844 -1.2 1 0.0039846 0.00384908 0.00185377 0.00400423 0.00277884 0.00856795 0.00300623 0.0222194 0.00270119 0.00774054 0.00233205 0.0282516 0.00319127 0.0163965 0.0046286 0.0296545 0.0058273 0.0186498 0.00641252 0.0518482
104 3 O 3.08659 17.9389 3.18632 -1.2 1 0.00392417 0.00316794 0.00130537 0.00379883 0.00256994 0.00781951 0.00200981 0.0218494 0.00217016 0.0077123 0.00208513 0.0274272 0.0030012 0.0163454 0.00432035 0.0296059 0.00534952 0.0173821 0.00538501 0.0510073
105 1 Mg 1.44478 16.6215 0 1.2 1 0.0021249 0.00279012 0.00109288 0.00448905 0.00114963 0.0090184 0.00101691 0.0214117 0.00144942 0.00813424 0.00148047 0.0286875 0.0022605 0.0157394 0.00227039 0.029252 0.00307936 0.016183 0.00305101 0.0486011
106 3 O 3.0436 17.9389 5.78248 -1.2 1 0.00384834 0.00432216 0.0015181 0.00425124 0.00264864 0.0069471 0.00249898 0.0221725 0.00211148 0.00774329 0.00283101 0.0270448 0.00352293 0.0167483 0.00474138 0.03078 0.00587289 0.0203951 0.00598923 0.0534522
107 1 Mg -1.40524 16.6628 1.4948 1.2 1 0.00240349 0.00335063 0.0011452 0.00435191 0.00168355 0.0086018 0.00188385 0.0221561 0.00184441 0.00806951 0.00168768 0.0282258 0.00284955 0.016641 0.00286899 0.0292524 0.00287773 0.016622 0.00317886 0.0494959
108 2 Si 0.420358 14.5979 1.4948 2.4 1 0.00271682 0.00320905 0.00144526 0.00479132 0.00180462 0.00913781 0.00191196 0.0211897 0.00169929 0.00806997 0.00133169 0.0285292 0.00265532 0.0163307 0.003432 0.0288301 0.00343035 0.0164744 0.00340617 0.0492585
109 3 O 0.408732 12.9847 1.4948 -1.2 1 0.00282713 0.00329323 0.00121525 0.0046787 0.00177857 0.00913702 0.00162593 0.0209806 0.0022502 0.0082592 0.00146079 0.0290154 0.00289894 0.015997 0.0031185 0.0297624 0.00317917 0.0169334 0.00373117 0.0493065
110 3 O 7.03923 15.572 1.4948 -1.2 1 0.00286664 0.00345219 0.00130874 0.0044774 0.00176077 0.00829498 0.00233026 0.0216394 0.0021693 0.00791104 0.00143712 0.0292569 0.00237699 0.0163358 0.00282702 0.0294986 0.00329228 0.0167005 0.00385724 0.0496328
111 3 O -0.248332 15.3041 0.196716 -1.2 1 0.0022207 0.00296853 0.00127682 0.0045466 0.00113181 0.00914495 0.00182368 0.0212301 0.00125437 0.00828377 0.00168289 0.0281163 0.00282157 0.015785 0.00374568 0.0291707 0.00307485 0.0162366 0.00316778 0.0487064
112 3 O -0.289436 15.3041 2.79288 -1.2 1 0.00442481 0.00381718 0.00119676 0.00417137 0.00238692 0.00860148 0.00202532 0.0220271 0.00171592 0.00846898 0.00179148 0.0274231 0.00295828 0.0166269 0.00377494 0.0295289 0.00439936 0.0176713 0.00470015 0.0507514
113 1 Mg 6.59566 18.996 0 1.2 1 0.00156746 0.00307071 0.00156112 0.00424412 0.000879794 0.008567 0.000980516 0.0219799 0.00101487 0.00777196 0.00132793 0.0281753 0.00193412 0.0163143 0.00225172 0.0287479 0.00297566 0.0160251 0.00298415 0.0485517
114 1 Mg 3.85574 23.7037 1.4948 1.2 1 0.00226412 0.00271175 0.00121119 0.00401996 0.00178252 0.0074319 0.00129602 0.0230663 0.00180066 0.0075067 0.00201681 0.0269641 0.00237453 0.0172214 0.0034347 0.0286022 0.00341769 0.0171218 0.00359081 0.0506492
115 2 Si 5.66125 21.0195 1.4948 2.4 1 0.00259932 0.0025995 0.00108261 0.00425682 0.00187458 0.00809228 0.00146713 0.0217927 0.00132057 0.0073809 0.0013505 0.0279838 0.00241107 0.0170573 0.00273659 0.028181 0.00364899 0.0157834 0.00411753 0.0501132
116 3 O 5.72074 22.6328 1.4948 -1.2 1 0.00259812 0.00277667 0.00161083 0.0040979 0.00174154 0.00818558 0.0015782 0.0222628 0.00188634 0.00723928 0.00137326 0.0277786 0.00215963 0.0170124 0.00299773 0.0285095 0.00339464 0.0162199 0.00384763 0.0501267
117 3 O 2.03867 20.0455 1.4948 -1.2 1 0.00231582 0.00326466 0.00128355 0.00432443 0.00178138 0.00776931 0.00203602 0.0221469 0.00225398 0.00740049 0.00148846 0.0282622 0.00203828 0.0171276 0.00239619 0.0289243 0.0036313 0.0160116 0.00357454 0.0503024
118 3 O 4.96004 20.3134 0.196716 -1.2 1 0.00203791 0.00245466 0.00150055 0.0041559 0.00113213 0.00835291 0.000945848 0.0217812 0.00090679 0.0074227 0.00160657 0.0274167 0.00262496 0.0163032 0.00390935 0.0286936 0.00311515 0.0153825 0.00301523 0.049234
119 1 Mg 6.55057 18.996 2.9896 1.2 1 0.00294937 0.00328407 0.00117095 0.00407722 0.00237699 0.00808947 0.00289373 0.0213145 0.00238988 0.00778214 0.00150202 0.0288197 0.00266269 0.0168335 0.00298199 0.028976 0.00405119 0.0169079 0.00476811 0.0504081