ITEM: TIMESTEP
76700
ITEM: NUMBER OF ATOMS
10500
ITEM: BOX BOUNDS xy xz yz pp pp pp
0	15.2977	5.09925
0	118.725	0
0	89.688	0
ITEM: ATOMS id type element xu yu zu q Q_1 Q_2 Q_3 Q_4 Q_5 Q_6 Q_7 Q_8 Q_9 Q_10 Q_11 Q_12 Q_13 Q_14 Q_15 Q_16 Q_17 Q_18 Q_19 Q_20 Q_21
1 1 Mg 6.2404 -6.37941e-06 0 1.2 1 0.00181676 0.00444614 0.00109713 0.00457013 0.00129213 0.00518174 0.00185228 0.0159435 0.00227728 0.00556474 0.00225841 0.0216644 0.00263854 0.0134567 0.00349008 0.0205266 0.00388889 0.0137846 0.00354938 0.0400705
2 1 Mg 3.46349 4.70768 1.4948 1.2 1 0.00177515 0.00336357 0.00181422 0.00421165 0.00228043 0.0058552 0.00338042 0.0185575 0.00299366 0.00672822 0.00302498 0.0256005 0.00322465 0.0138312 0.00449413 0.0249146 0.00527013 0.0165522 0.00564487 0.043545
3 2 Si 5.2885 2.02354 1.4948 2.4 1 0.00177886 0.00314274 0.00207031 0.00427503 0.00193218 0.00557096 0.00241435 0.0168401 0.00253643 0.00585695 0.00211419 0.02322 0.00291067 0.013653 0.00377383 0.0213816 0.00383816 0.0150436 0.00424657 0.0410747
4 3 O 5.33628 3.63678 1.4948 -1.2 1 0.0010278 0.00274343 0.00187645 0.00453298 0.00225845 0.00617809 0.00273027 0.0176587 0.0023063 0.00635131 0.00205759 0.0249206 0.00257776 0.0136524 0.00441554 0.0238721 0.00488375 0.0160392 0.00561036 0.0424955
5 3 O 1.67294 1.04952 1.4948 -1.2 1 0.00315358 0.0033244 0.00235038 0.00403613 0.00140529 0.00549641 0.00234278 0.0167709 0.0024171 0.00602012 0.00218101 0.0228217 0.00301537 0.0128059 0.00331943 0.0217223 0.00451229 0.0153622 0.0045218 0.0401268
6 3 O 4.59532 1.31737 0.196716 -1.2 1 0.00197706 0.0029657 0.00206027 0.00418073 0.00195623 0.00548452 0.00230803 0.0170424 0.00277683 0.00606101 0.00208743 0.0223681 0.00299145 0.0127495 0.00391694 0.0214551 0.00401876 0.0143312 0.00427248 0.0405712
7 1 Mg 6.18956 -6.37941e-06 2.9896 1.2 1 0.00227021 0.00425663 0.00139626 0.00388957 0.00120553 0.0053625 0.00232389 0.0159479 0.0026476 0.00555479 0.00185161 0.0224498 0.00315724 0.0135053 0.00341997 0.0203864 0.00439391 0.0146476 0.00489896 0.0391452
8 3 O 4.55118 1.31737 2.79288 -1.2 1 0.00248283 0.00386747 0.00179701 0.00398438 0.00185737 0.00550904 0.00244661 0.0167621 0.00240226 0.00672814 0.00222226 0.0219038 0.0036263 0.0123371 0.00356304 0.0210419 0.00471513 0.0152572 0.00505232 0.0399575
9 1 Mg -1.20682 0.0413099 4.4844 1.2 1 0.00198374 0.00233443 0.00201602 0.00424851 0.0015402 0.00536902 0.00210525 0.0157806 0.00214408 0.00606821 0.00238694 0.0227451 0.00347524 0.0114793 0.00354129 0.0201341 0.00462773 0.0154309 0.00533915 0.0380582
10 2 Si -3.0337 2.72544 4.4844 2.4 1 0.00156147 0.0024706 0.00179522 0.00449688 0.00230505 0.00592821 0.00311207 0.0163288 0.0030887 0.0061639 0.00232267 0.0242448 0.00354824 0.012948 0.00416177 0.0220726 0.0051469 0.0175512 0.0064134 0.0391614
11 3 O -3.08099 1.11221 4.4844 -1.2 1 0.00165048 0.0031262 0.00177652 0.00387801 0.00148473 0.00499495 0.00236508 0.0159243 0.00272984 0.00587908 0.00233884 0.0224245 0.00344941 0.0114024 0.0037947 0.0209412 0.00506205 0.0160743 0.00548649 0.0380997
12 3 O 0.582463 3.69946 4.4844 -1.2 1 0.00266593 0.00460124 0.00213481 0.00412356 0.00246711 0.00665508 0.00353739 0.0168078 0.00348534 0.006593 0.003239 0.0246074 0.00445262 0.0126888 0.00400779 0.0238015 0.00655872 0.0184458 0.00820065 0.0409571
13 3 O -2.29524 3.43162 3.18632 -1.2 1 0.00148844 0.00252273 0.00264668 0.00437173 0.00219668 0.00585095 0.00284179 0.0174138 0.00304164 0.00659185 0.00271051 0.0243604 0.00358229 0.0128946 0.00479688 0.0238497 0.00569502 0.0176292 0.00681134 0.041177
14 3 O -2.34216 3.43162 5.78248 -1.2 1 0.00205324 0.00339716 0.00110848 0.00461143 0.00250867 0.00575986 0.00305941 0.0166905 0.0030031 0.00717913 0.00313326 0.0234634 0.00428627 0.0122935 0.00412257 0.0224773 0.00618166 0.0191402 0.00745214 0.0391671
15 1 Mg 1.12778 2.37449 2.9896 1.2 1 0.00299881 0.00374274 0.0026428 0.00419271 0.00231292 0.00585941 0.00287605 0.016543 0.00276996 0.00612567 0.00242293 0.0235963 0.0035147 0.0129144 0.00353708 0.0215795 0.00475347 0.0162071 0.00552761 0.0404817
16 1 Mg 3.92855 2.33318 4.4844 1.2 1 0.00209537 0.00400598 0.00150124 0.00406683 0.00186332 0.00548259 0.00335918 0.016264 0.00312478 0.00576491 0.00288128 0.0231272 0.0039833 0.0133886 0.00515554 0.0215079 0.00609745 0.0168896 0.00723644 0.0395882
17 2 Si 2.09341 4.39804 4.4844 2.4 1 0.00169657 0.0041518 0.0018924 0.00413625 0.00275354 0.00594692 0.00369138 0.0177072 0.00343458 0.00667641 0.00346741 0.0246608 0.00468466 0.0139687 0.00435755 0.0240856 0.00635128 0.0183055 0.00789922 0.0426636
18 3 O 2.09991 6.01128 4.4844 -1.2 1 0.00167185 0.00447201 0.00154524 0.00422243 0.00279718 0.00648132 0.00311163 0.0185946 0.00278602 0.00698442 0.00301335 0.0262869 0.00396224 0.0140144 0.00418566 0.026847 0.00668831 0.0191101 0.00801425 0.0438343
19 3 O -4.52137 3.42402 4.4844 -1.2 1 0.00113855 0.00343437 0.0018901 0.00437067 0.00226905 0.00683493 0.00317451 0.0165755 0.00338907 0.00622936 0.0029477 0.0235421 0.00409529 0.0127726 0.00428057 0.0223342 0.00602031 0.0175336 0.00759446 0.0402365
20 3 O 2.80834 3.69187 3.18632 -1.2 1 0.00175735 0.00360828 0.0016958 0.00366133 0.00198746 0.00591039 0.00295234 0.0171875 0.00318803 0.00616317 0.00275359 0.0242471 0.00356265 0.0129232 0.00475542 0.0235829 0.00550076 0.0168418 0.00640832 0.0422003
21 1 Mg 1.17857 2.37449 0 1.2 1 0.00263143 0.00337139 0.00197051 0.00405897 0.00159268 0.00530082 0.0024434 0.017166 0.00254182 0.00646041 0.00277933 0.0232718 0.00288294 0.0133867 0.00337179 0.0216155 0.00422731 0.0145071 0.00471099 0.0407708
22 3 O 2.76143 3.69187 5.78248 -1.2 1 0.00227237 0.00430984 0.0018854 0.00416252 0.00207923 0.00560254 0.00287719 0.0168063 0.00309527 0.00692942 0.00313401 0.023169 0.00509575 0.0129418 0.00538353 0.0226833 0.00620253 0.0184113 0.00770039 0.0398236
23 1 Mg -1.67381 2.41581 1.4948 1.2 1 0.00264512 0.0025342 0.00250387 0.00458176 0.00135878 0.00587551 0.00220743 0.016492 0.00269973 0.00606561 0.00201492 0.024063 0.00281451 0.0142361 0.00300114 0.0219273 0.00424894 0.0158875 0.00457341 0.0411544
24 2 Si 0.16286 0.350945 1.4948 2.4 1 0.00308261 0.00254927 0.00310459 0.00426941 0.00137511 0.00604021 0.00254843 0.0162035 0.00208526 0.00514867 0.00192937 0.0228333 0.00276926 0.0135837 0.00319464 0.0206287 0.00444558 0.0145233 0.00399785 0.0399244
25 3 O 0.15972 -1.26229 1.4948 -1.2 1 0.00283065 0.00274107 0.00316661 0.00412575 0.00193612 0.00564114 0.00229923 0.01628 0.00233204 0.00545818 0.00253788 0.0226125 0.00300493 0.0138941 0.0028239 0.0215432 0.00410606 0.0144519 0.0036101 0.0406495
26 3 O 6.77654 1.32496 1.4948 -1.2 1 0.00243724 0.00347866 0.00151408 0.0041725 0.00123712 0.00574279 0.00204123 0.0165678 0.00242841 0.00529862 0.00177315 0.0236543 0.00297694 0.0136027 0.00367172 0.0216272 0.00448188 0.0150098 0.00407578 0.0406027
27 3 O -0.508028 1.05712 0.196716 -1.2 1 0.00282048 0.00266013 0.00331704 0.00386226 0.00145479 0.00541138 0.00217047 0.0169183 0.0018635 0.00643001 0.00252609 0.0220014 0.0027557 0.0131251 0.0032522 0.0212482 0.00408677 0.0147951 0.00400794 0.0399799
28 3 O -0.552171 1.05712 2.79288 -1.2 1 0.00293085 0.00240107 0.00321624 0.00393839 0.00157277 0.0057919 0.00213749 0.0160147 0.00249583 0.006238 0.00181098 0.0227857 0.00326383 0.0119257 0.00349755 0.0213323 0.00496436 0.015431 0.00493782 0.0394463
29 1 Mg 6.31713 4.74899 0 1.2 1 0.00141518 0.0027726 0.00181787 0.00442277 0.00227107 0.00601284 0.00328525 0.0179185 0.00295371 0.00692492 0.00230499 0.0250003 0.00325048 0.0138037 0.00429713 0.0244216 0.0046099 0.0159778 0.00570104 0.0425621
30 1 Mg 3.54847 9.45668 1.4948 1.2 1 0.000554888 0.00302731 0.00162311 0.00496421 0.00222291 0.00764531 0.00306126 0.0213319 0.00180979 0.00822928 0.00237976 0.0281171 0.00296936 0.0155519 0.00362065 0.0288748 0.00419485 0.0179854 0.00390215 0.04828
31 2 Si 5.36879 6.77254 1.4948 2.4 1 0.000682338 0.00278848 0.00199454 0.00517994 0.00282711 0.00683692 0.00364986 0.0195439 0.00280122 0.00764446 0.00260028 0.0274 0.00303764 0.0152568 0.00414373 0.0266853 0.00466712 0.0168702 0.00519788 0.0462299
32 3 O 5.41937 8.38578 1.4948 -1.2 1 0.000728791 0.00290431 0.00160472 0.00520551 0.00241476 0.00773322 0.00317607 0.0209422 0.0023644 0.00834255 0.00261113 0.0288126 0.00216524 0.0155874 0.00310328 0.0288748 0.00466877 0.0171162 0.00490618 0.0476701
33 3 O 1.75158 5.79852 1.4948 -1.2 1 0.00147951 0.0035585 0.00178123 0.00416131 0.00259874 0.0060102 0.00324803 0.0193911 0.00274913 0.00716542 0.00272273 0.0276823 0.0028087 0.0154746 0.00353385 0.026699 0.00527486 0.0170703 0.00542708 0.0451982
34 3 O 4.67421 6.06637 0.196716 -1.2 1 0.00113161 0.00282269 0.00168425 0.00467733 0.00206492 0.00672985 0.00286261 0.0197086 0.00266631 0.00789449 0.0020991 0.0259927 0.0034121 0.014285 0.0041666 0.0264303 0.00466 0.0163196 0.00530004 0.0451162
35 1 Mg 6.26654 4.74899 2.9896 1.2 1 0.0015277 0.00302739 0.00223617 0.00479141 0.0027605 0.00655363 0.00366485 0.0176396 0.00360167 0.00692323 0.00240272 0.0255735 0.0037273 0.0145773 0.00504555 0.02447 0.00565875 0.0173949 0.00715289 0.0427666
36 3 O 4.63043 6.06637 2.79288 -1.2 1 0.00177611 0.00324961 0.00193009 0.00502222 0.00254395 0.00687 0.00344199 0.0191921 0.00326385 0.00767151 0.00268183 0.0258158 0.00372761 0.0147189 0.00463872 0.0267522 0.00564927 0.0178505 0.00687625 0.0447216
37 1 Mg -1.12976 4.79031 4.4844 1.2 1 0.00158183 0.00365086 0.0019159 0.00475287 0.00216983 0.00633794 0.00305161 0.0177081 0.00356075 0.00720984 0.00303247 0.0253787 0.00412853 0.014237 0.00457545 0.0249498 0.00704275 0.018748 0.0082171 0.0430181
38 2 Si -2.9517 7.47444 4.4844 2.4 1 0.00128521 0.00379558 0.00140022 0.0053322 0.0028452 0.00660656 0.0037236 0.0199519 0.00323923 0.00777218 0.00312453 0.0269335 0.00450872 0.0156931 0.00512157 0.0273774 0.00672013 0.0189255 0.00821925 0.0458744
39 3 O -3.00198 5.86121 4.4844 -1.2 1 0.000758517 0.00403506 0.00129566 0.00500963 0.00309215 0.00631778 0.00388159 0.0183935 0.00374472 0.00757512 0.00297524 0.025525 0.00436005 0.0139259 0.00467476 0.0261127 0.00662135 0.0191575 0.00852757 0.0440224
40 3 O 0.666315 8.44846 4.4844 -1.2 1 0.00155343 0.0045716 0.00135668 0.00525457 0.00288219 0.00728901 0.00304828 0.0207101 0.00296678 0.00799639 0.00325435 0.0274961 0.00464172 0.0154993 0.00410997 0.0285318 0.00597453 0.0196195 0.00775918 0.0464764
41 3 O -2.21213 8.18062 3.18632 -1.2 1 0.00086789 0.00373866 0.0012823 0.00481289 0.0024269 0.00629664 0.00275931 0.0205694 0.00267238 0.00805232 0.00298597 0.0272846 0.00426025 0.0159037 0.00477013 0.0284536 0.00560323 0.0183662 0.00668561 0.0474797
42 3 O -2.25864 8.18062 5.78248 -1.2 1 0.00180457 0.00451577 0.00166785 0.00493198 0.00294795 0.0059308 0.00284113 0.0200305 0.00250548 0.00806353 0.00364816 0.0261372 0.00464733 0.0158705 0.00507249 0.0281646 0.00669591 0.0205925 0.00825228 0.0460013
43 1 Mg 1.20893 7.12349 2.9896 1.2 1 0.00098972 0.00380635 0.00182686 0.00461326 0.00303087 0.00680712 0.00368385 0.0192842 0.00287382 0.00804146 0.00305711 0.0276986 0.00348808 0.015579 0.00384833 0.0270497 0.00552019 0.0178815 0.00630874 0.0457424
44 1 Mg 4.00982 7.08218 4.4844 1.2 1 0.00163662 0.00412709 0.00166637 0.00522582 0.00260202 0.00666031 0.00372172 0.0195486 0.00351555 0.0072868 0.00323938 0.0268772 0.00416965 0.0162778 0.00556972 0.0275333 0.00695988 0.0189318 0.00859031 0.0454237
45 2 Si 2.17861 9.14704 4.4844 2.4 1 0.00132036 0.00412555 0.00132324 0.00544279 0.0029054 0.00721105 0.00359635 0.0207153 0.00267418 0.007872 0.00314031 0.027407 0.00457714 0.0163378 0.00417251 0.0290945 0.0055162 0.019447 0.0067991 0.0477468
46 3 O 2.18828 10.7603 4.4844 -1.2 1 0.00187159 0.00413821 0.0013634 0.00516403 0.00275768 0.00690418 0.00284962 0.0206516 0.00257829 0.00776086 0.00241272 0.0280946 0.00379068 0.0156493 0.0039377 0.0301694 0.00590283 0.0197883 0.00670006 0.0484642
47 3 O -4.43805 8.17302 4.4844 -1.2 1 0.000995663 0.00433288 0.00154191 0.00545239 0.00246267 0.00785563 0.00310655 0.0202686 0.00315221 0.0080765 0.00331547 0.0276859 0.00461499 0.0155346 0.00477571 0.0287021 0.00658217 0.0192535 0.00897506 0.046184
48 3 O 2.89193 8.44087 3.18632 -1.2 1 0.00139659 0.0035377 0.00143586 0.00489664 0.00269226 0.00691414 0.00324996 0.0201304 0.00275739 0.00813611 0.00293286 0.0272485 0.00386759 0.0157183 0.00454485 0.0285615 0.00572594 0.0185236 0.00597403 0.0471408
49 1 Mg 1.25915 7.12349 0 1.2 1 0.00171994 0.00277396 0.00161882 0.00412538 0.00182812 0.00710293 0.00275602 0.0203107 0.00278119 0.00806302 0.00248947 0.0274743 0.00321442 0.0143883 0.00320306 0.0273161 0.00439161 0.0170686 0.00433977 0.0458772
50 3 O 2.84547 8.44087 5.78248 -1.2 1 0.00193319 0.00453232 0.00148155 0.00518092 0.00255201 0.00657727 0.00353395 0.0200203 0.00290591 0.00813316 0.00345807 0.0262944 0.0056141 0.0159768 0.00515169 0.0287301 0.00591268 0.0206456 0.00791071 0.0463185
51 1 Mg -1.59284 7.16481 1.4948 1.2 1 0.00105038 0.00292129 0.0014396 0.00464329 0.00199289 0.00641259 0.00284849 0.0199234 0.00278622 0.0076468 0.00184784 0.0277151 0.00332753 0.0155843 0.00377855 0.0268625 0.00462809 0.0170845 0.00541133 0.0463691
52 2 Si 0.240329 5.09994 1.4948 2.4 1 0.00162186 0.00360746 0.00214259 0.00386552 0.00198533 0.00668002 0.0030557 0.0189124 0.00302458 0.00723527 0.00233574 0.0259572 0.0028052 0.0145084 0.00393038 0.0246342 0.00505056 0.0166443 0.00514658 0.0443831
53 3 O 0.234538 3.48671 1.4948 -1.2 1 0.00242469 0.00359992 0.00270994 0.00407089 0.00189151 0.00625059 0.0024977 0.0177583 0.00340836 0.00684957 0.00233474 0.0245259 0.00344315 0.0136124 0.00405859 0.0238084 0.00544047 0.0157809 0.0052031 0.0421342
54 3 O 6.85564 6.07396 1.4948 -1.2 1 0.000949088 0.0024584 0.00231531 0.00479332 0.00274799 0.00601547 0.0032062 0.0198624 0.00304276 0.00741269 0.00230512 0.0275337 0.00319797 0.0145932 0.00476011 0.0265743 0.00558493 0.0172829 0.00621427 0.0451242
55 3 O -0.429565 5.80612 0.196716 -1.2 1 0.00150414 0.00309279 0.00216607 0.00394077 0.00177882 0.00690437 0.00252267 0.019431 0.00291613 0.00812563 0.00249739 0.0255578 0.00271084 0.0140848 0.00368348 0.0258154 0.00498338 0.016427 0.00555173 0.04476
56 3 O -0.473377 5.80612 2.79288 -1.2 1 0.00132403 0.00355297 0.00205299 0.00442061 0.00238548 0.00659044 0.00305531 0.0188855 0.00305714 0.00800447 0.00297607 0.0256512 0.00366971 0.0145018 0.00442026 0.0260066 0.00623045 0.0180566 0.00686807 0.0449141
57 1 Mg 6.40169 9.49799 0 1.2 1 0.000599809 0.00321001 0.0013176 0.00480551 0.00152991 0.00817006 0.00187221 0.021186 0.00172356 0.00872614 0.00162932 0.0286487 0.00234035 0.0147704 0.00244905 0.0296611 0.00355891 0.0175003 0.00377038 0.0474872
58 1 Mg 3.64209 14.2057 1.4948 1.2 1 0.0015398 0.00267189 0.00133152 0.00487574 0.00161694 0.00870323 0.00170128 0.0216818 0.0016543 0.00873413 0.00247458 0.0281315 0.00252404 0.0160034 0.0029155 0.0294407 0.00364786 0.0170295 0.00354004 0.0486361
59 2 Si 5.45748 11.5215 1.4948 2.4 1 0.000995086 0.00272304 0.00146017 0.00514394 0.00184982 0.00819575 0.00203191 0.0211116 0.00146922 0.00825653 0.0018265 0.0287648 0.00256659 0.0160754 0.00323678 0.0293074 0.00420197 0.0168231 0.00372785 0.0487599
60 3 O 5.51101 13.1348 1.4948 -1.2 1 0.00131851 0.00279707 0.00158801 0.00501584 0.00155995 0.00901739 0.00170234 0.0212244 0.00182487 0.00862277 0.0020669 0.0292637 0.00218744 0.0160038 0.00277705 0.0298818 0.00378711 0.0167522 0.00366584 0.048385
61 3 O 1.83851 10.5475 1.4948 -1.2 1 0.00035897 0.00294247 0.00151963 0.00519517 0.00199326 0.00773653 0.00236562 0.0215978 0.00182717 0.00821135 0.00219605 0.0292806 0.00255135 0.0158181 0.00304843 0.0299207 0.00406733 0.017815 0.0034767 0.0487396
62 3 O 4.7611 10.8154 0.196716 -1.2 1 0.000504517 0.00236311 0.00158122 0.00492338 0.00161997 0.00834796 0.00223992 0.0213914 0.00163045 0.00856014 0.00178897 0.0282668 0.00286249 0.0155937 0.00364386 0.0293997 0.00371366 0.0168975 0.00350912 0.0483804
63 1 Mg 6.35203 9.49799 2.9896 1.2 1 0.000932821 0.00349147 0.00125671 0.00522275 0.002567 0.00755559 0.00324655 0.020462 0.00304754 0.00843899 0.00240264 0.0286984 0.0035699 0.0160707 0.00335108 0.0288634 0.00422068 0.0180523 0.00565054 0.0477478
64 3 O 4.71833 10.8154 2.79288 -1.2 1 0.00148866 0.00337394 0.00131879 0.00494298 0.00208552 0.00820961 0.00222776 0.0214075 0.00213998 0.00893601 0.00223598 0.0277991 0.00349743 0.0159284 0.00402883 0.0297498 0.00498447 0.0182991 0.00551304 0.0486661
65 1 Mg -1.0438 9.53931 4.4844 1.2 1 0.00175717 0.00418976 0.00140807 0.00507638 0.00287563 0.00674234 0.00268689 0.0206367 0.00264034 0.00818093 0.00281922 0.0276738 0.00389791 0.0163703 0.00423123 0.029034 0.00630265 0.0195437 0.00729619 0.0479054
66 2 Si -2.8604 12.2234 4.4844 2.4 1 0.00230194 0.00400022 0.00120929 0.00491756 0.00258578 0.00759176 0.00297244 0.0215824 0.00271679 0.00835845 0.00239398 0.0276059 0.00404738 0.0164489 0.0040844 0.0297695 0.00554341 0.019288 0.00661931 0.0490343
67 3 O -2.91391 10.6102 4.4844 -1.2 1 0.00212511 0.00434104 0.00134185 0.0050408 0.00279568 0.00714275 0.00326207 0.0203006 0.0025032 0.00756161 0.00225099 0.0279585 0.00438736 0.0156367 0.00395534 0.029983 0.00569658 0.0195143 0.00687665 0.0483922
68 3 O 0.7596 13.1975 4.4844 -1.2 1 0.00208545 0.00367546 0.00135305 0.00554616 0.00289596 0.00839627 0.0026573 0.0218915 0.00254683 0.00818432 0.00297181 0.0280971 0.0038214 0.0162147 0.00386654 0.0297196 0.00616336 0.0195733 0.00670787 0.0484784
69 3 O -2.12001 12.9296 3.18632 -1.2 1 0.00204902 0.00341636 0.00143588 0.00478055 0.00236526 0.00742019 0.00214068 0.0216289 0.00230851 0.00836717 0.00244474 0.0275223 0.00350363 0.0163657 0.00429602 0.030165 0.00496887 0.018294 0.00534316 0.0489113
70 3 O -2.16532 12.9296 5.78248 -1.2 1 0.00310714 0.00462993 0.00152095 0.00514242 0.00291608 0.00681143 0.00215995 0.0213845 0.00260521 0.00813873 0.00275033 0.0265969 0.00395441 0.0165195 0.00422299 0.0302411 0.00654983 0.0207816 0.00723844 0.048854
71 1 Mg 1.29891 11.8725 2.9896 1.2 1 0.00107626 0.00297361 0.00132532 0.00523809 0.00260041 0.00805649 0.00273685 0.0208832 0.00244191 0.00839334 0.00204182 0.0285827 0.00329004 0.0161986 0.00322165 0.0297767 0.00434991 0.0179635 0.00526244 0.0484108
72 1 Mg 4.10033 11.8312 4.4844 1.2 1 0.0022735 0.00368747 0.00173693 0.00474587 0.00250291 0.00716544 0.00271072 0.0209924 0.00249329 0.00811218 0.00289109 0.0280821 0.00324186 0.0169982 0.00489149 0.0299126 0.00617516 0.0193023 0.00626503 0.0485136
73 2 Si 2.27333 13.896 4.4844 2.4 1 0.0018819 0.00315851 0.00128714 0.00550614 0.00312388 0.00770078 0.003287 0.0216857 0.00237145 0.00796398 0.00290624 0.0273409 0.00348211 0.0165236 0.00379663 0.029468 0.00546849 0.0189277 0.00625572 0.049309
74 3 O 2.28634 15.5093 4.4844 -1.2 1 0.00235963 0.00339735 0.00142865 0.00513266 0.00318397 0.00714559 0.00271646 0.0207475 0.00273143 0.00755065 0.00240135 0.0280327 0.00290867 0.0159182 0.00368823 0.0300879 0.00600286 0.0185627 0.00654454 0.0489887
75 3 O -4.34533 12.922 4.4844 -1.2 1 0.00235836 0.00389687 0.00160719 0.00490231 0.00268498 0.00816822 0.00293261 0.0215855 0.00274019 0.00839138 0.00252686 0.0281125 0.00392896 0.0163879 0.0044798 0.0297811 0.00621482 0.0195342 0.00683474 0.0484077
76 3 O 2.98455 13.1899 3.18632 -1.2 1 0.00157943 0.00307635 0.00145028 0.00488699 0.00269283 0.0077905 0.00244003 0.021695 0.00202745 0.00838791 0.00242424 0.0277497 0.00348472 0.0161256 0.00388686 0.0296814 0.00552086 0.0182292 0.00559661 0.0489473
77 1 Mg 1.34779 11.8725 0 1.2 1 0.000785447 0.00234252 0.00123351 0.00500417 0.0014461 0.00888808 0.00146878 0.0212329 0.00113116 0.0090167 0.00181674 0.0289505 0.00284936 0.0148155 0.00288967 0.0301007 0.00331835 0.0171946 0.00317014 0.0478763
78 3 O 2.93934 13.1899 5.78248 -1.2 1 0.00272236 0.00398652 0.00138966 0.00506302 0.00270777 0.00716176 0.00259916 0.0218029 0.00228885 0.00791475 0.00305003 0.0265172 0.00390923 0.0163652 0.00401459 0.0303418 0.00621113 0.0215214 0.00677657 0.0488665
79 1 Mg -1.50344 11.9138 1.4948 1.2 1 0.00062852 0.00322574 0.00123377 0.00507744 0.00165921 0.00826304 0.0019658 0.0216178 0.00213142 0.00855664 0.00167347 0.028621 0.00354628 0.0161743 0.00321058 0.0296826 0.00346487 0.0173103 0.00371679 0.0486214
80 2 Si 0.326006 9.84894 1.4948 2.4 1 0.000588747 0.00296402 0.00117563 0.00517315 0.00201753 0.00821882 0.00206935 0.0211077 0.00201451 0.00827854 0.00156815 0.0284636 0.00281292 0.015727 0.00340904 0.0287414 0.00365315 0.0174261 0.00328318 0.048155
81 3 O 0.317364 8.23571 1.4948 -1.2 1 0.00106798 0.00326141 0.00113909 0.0046044 0.00197417 0.00772376 0.00221053 0.0202618 0.00249661 0.00785681 0.00175493 0.0285508 0.00323993 0.0157625 0.00364809 0.0284839 0.00441414 0.0173291 0.00439829 0.0472064
82 3 O 6.94307 10.823 1.4948 -1.2 1 0.000473091 0.00331135 0.00113411 0.00505127 0.0019368 0.00768148 0.00241863 0.021878 0.00225339 0.00832174 0.00160875 0.029315 0.002882 0.0157437 0.00313084 0.029908 0.00382286 0.0176459 0.00426944 0.0487939
83 3 O -0.343122 10.5551 0.196716 -1.2 1 0.000467599 0.00281406 0.0012471 0.00508315 0.00142374 0.00855944 0.00186985 0.0214644 0.00160613 0.00880495 0.0019206 0.0280895 0.00321152 0.0154171 0.00395621 0.0293457 0.003688 0.0171397 0.00323662 0.0482215
84 3 O -0.385966 10.5551 2.79288 -1.2 1 0.00155066 0.00355908 0.000691881 0.00505082 0.0025516 0.00787942 0.00223396 0.0214124 0.00197769 0.00886005 0.00236947 0.0274431 0.00377141 0.0158655 0.00375737 0.0299112 0.00503089 0.018429 0.0052534 0.0484618
85 1 Mg 6.49448 14.247 0 1.2 1 0.0015193 0.00270554 0.00140401 0.00500904 0.00117947 0.00915002 0.00124836 0.0212972 0.00124095 0.00845459 0.00138448 0.0288192 0.00163717 0.0152946 0.002605 0.0297729 0.00316246 0.0166367 0.00282624 0.0477558
86 1 Mg 3.74457 18.9547 1.4948 1.2 1 0.00251915 0.00240473 0.00131988 0.0042743 0.00159061 0.00856962 0.00111994 0.0221748 0.00207758 0.00791273 0.00229746 0.0276108 0.00255588 0.0163846 0.00344698 0.0289297 0.00366284 0.0164345 0.00340847 0.0492108
87 2 Si 5.55495 16.2705 1.4948 2.4 1 0.00205645 0.00228122 0.00141572 0.00465244 0.00176863 0.00874628 0.00121405 0.0215139 0.0014572 0.00792925 0.00152291 0.0286127 0.00228369 0.0161815 0.00268261 0.0288712 0.00354593 0.0160846 0.00336263 0.048792
88 3 O 5.6115 17.8838 1.4948 -1.2 1 0.00215708 0.00247796 0.00138834 0.0045591 0.00158672 0.00918234 0.00145435 0.0216511 0.00192874 0.00783147 0.00163499 0.028613 0.00205211 0.0163568 0.00257535 0.0289655 0.00330903 0.0161056 0.00336962 0.0488481
89 3 O 1.93416 15.2965 1.4948 -1.2 1 0.00148777 0.00245716 0.00143833 0.00487669 0.00190944 0.00827696 0.00174336 0.0219868 0.00174713 0.00809594 0.0016013 0.0289203 0.00215754 0.0162424 0.00279798 0.0296749 0.00393268 0.0166246 0.00340727 0.0490141
90 3 O 4.85636 15.5644 0.196716 -1.2 1 0.0021524 0.00197249 0.00127716 0.00472017 0.00128512 0.00891307 0.00150861 0.021384 0.00132368 0.00808118 0.00147664 0.0281513 0.00256608 0.016036 0.00327465 0.0292581 0.00309864 0.0158562 0.00292209 0.0483817
91 1 Mg 6.44662 14.247 2.9896 1.2 1 0.000976186 0.00301939 0.00130624 0.00483337 0.00243655 0.0084759 0.00270139 0.0209347 0.00255232 0.0087141 0.00208692 0.0288582 0.00281716 0.0162232 0.00283352 0.0294796 0.00398799 0.017758 0.00465202 0.0482873
92 3 O 4.81537 15.5644 2.79288 -1.2 1 0.00175869 0.00285021 0.00124165 0.00453648 0.00231688 0.00866125 0.00177632 0.021674 0.00183353 0.00869517 0.00186608 0.0275432 0.00274 0.016367 0.00328035 0.0292932 0.00454036 0.0175003 0.00483101 0.0485135
93 1 Mg -0.948271 14.2883 4.4844 1.2 1 0.00253378 0.00351185 0.00160427 0.00500444 0.00279409 0.00772792 0.00259972 0.0215287 0.00273715 0.00815626 0.00308323 0.0277808 0.00330665 0.01693 0.00479291 0.0298364 0.00624019 0.0189007 0.00659523 0.0487451
94 2 Si -2.75928 16.9724 4.4844 2.4 1 0.00253476 0.00343594 0.00170409 0.00485984 0.00291541 0.00800399 0.00261351 0.021918 0.00260785 0.00775646 0.0025418 0.0272059 0.00303076 0.0170101 0.00429205 0.0292349 0.00548927 0.0188231 0.00606088 0.0495874
95 3 O -2.81617 15.3592 4.4844 -1.2 1 0.00264714 0.00359498 0.00159217 0.00476136 0.00304138 0.00756615 0.00289715 0.0208124 0.00279283 0.00751714 0.00226925 0.027937 0.00346844 0.0161221 0.00392252 0.0299111 0.00608651 0.0185225 0.00667435 0.0488978
96 3 O 0.862762 17.9465 4.4844 -1.2 1 0.0027295 0.0038228 0.00141351 0.0051089 0.00301574 0.00837484 0.00239523 0.0221917 0.00265901 0.00790338 0.00254756 0.0275888 0.0033464 0.0168628 0.00407881 0.0287525 0.00625974 0.0187165 0.00642471 0.0492452
97 3 O -2.0185 17.6786 3.18632 -1.2 1 0.00214533 0.00315299 0.00174701 0.00441997 0.00259498 0.00772732 0.00207955 0.0221559 0.00241354 0.00787329 0.00233153 0.0270684 0.00306753 0.0164319 0.00404209 0.0295852 0.00504347 0.0177964 0.00515158 0.0495257
98 3 O -2.06164 17.6786 5.78248 -1.2 1 0.0034302 0.00413427 0.00156117 0.00469256 0.00278792 0.00707519 0.00223554 0.021821 0.0024851 0.0079564 0.00284004 0.0261717 0.00311754 0.0171578 0.00490666 0.0296812 0.00654288 0.0204352 0.00662703 0.0493814
99 1 Mg 1.39817 16.6215 2.9896 1.2 1 0.00195022 0.00268889 0.00143525 0.00505956 0.00283165 0.00834684 0.00239696 0.0212381 0.00246916 0.00808955 0.00193034 0.0283612 0.00260246 0.0165636 0.00306631 0.0293029 0.00431077 0.0167786 0.00477367 0.0486494
100 1 Mg 4.20062 16.5802 4.4844 1.2 1 0.0019233 0.00333765 0.00164121 0.00469228 0.00278526 0.00765458 0.00233412 0.0215328 0.00311746 0.00771523 0.00299368 0.0276728 0.00302286 0.0173048 0.0049446 0.0292863 0.00672645 0.0187077 0.00640776 0.0491679
101 2 Si 2.37796 18.645 4.4844 2.4 1 0.00246706 0.00333242 0.0013814 0.00505288 0.00320647 0.00787919 0.00271538 0.0223768 0.0025864 0.00810608 0.00254686 0.0265984 0.00327755 0.0170257 0.00419396 0.0286159 0.00547506 0.0183169 0.00603431 0.0502535
102 3 O 2.39434 20.2583 4.4844 -1.2 1 0.00279054 0.00365164 0.00138637 0.00482041 0.00322026 0.00705597 0.00251554 0.0210534 0.0029227 0.00752545 0.002027 0.0275683 0.00284231 0.0164497 0.00403728 0.0291958 0.00586373 0.01788 0.00686004 0.0499586
103 3 O -4.24274 17.671 4.4844 -1.2 1 0.00194935 0.00373838 0.00156593 0.00470728 0.00282777 0.00846673 0.00237188 0.0221913 0.00297434 0.00771082 0.00260851 0.0275993 0.00303981 0.0166958 0.0048027 0.0291969 0.0062522 0.0191486 0.00667346 0.0491628
104 3 O 3.08659 17.9389 3.18632 -1.2 1 0.00226251 0.00274345 0.00139671 0.00440709 0.00289904 0.00786469 0.0019549 0.0219459 0.00241018 0.00784335 0.00231606 0.0272197 0.0030121 0.0164881 0.00384465 0.0289419 0.00531229 0.0173156 0.00560329 0.0496447
105 1 Mg 1.44478 16.6215 0 1.2 1 0.0026848 0.00194192 0.00117805 0.00444922 0.00139874 0.00886606 0.0010624 0.0215433 0.0012779 0.00820267 0.00146564 0.0284324 0.00226724 0.0155757 0.00235471 0.0291287 0.00283833 0.0159291 0.0028748 0.0480693
106 3 O 3.0436 17.9389 5.78248 -1.2 1 0.00257113 0.00373309 0.001282 0.00518606 0.00297697 0.00693532 0.00240223 0.0216504 0.00247502 0.00807584 0.00292536 0.0261525 0.00340763 0.0168632 0.00483061 0.0298243 0.00663117 0.0206962 0.00655121 0.0495394
107 1 Mg -1.40524 16.6628 1.4948 1.2 1 0.00180909 0.00266936 0.001487 0.00477069 0.00173415 0.00872187 0.00180286 0.0220452 0.00186591 0.00822292 0.00215482 0.0282607 0.00304132 0.01667 0.00307619 0.0294399 0.00294046 0.016585 0.00323847 0.0488295
108 2 Si 0.420358 14.5979 1.4948 2.4 1 0.000943784 0.00248033 0.00139676 0.0052658 0.00199367 0.00904307 0.00161332 0.021384 0.0016628 0.00824735 0.00156785 0.0283086 0.00278128 0.0163191 0.00346966 0.0287247 0.00348536 0.0164967 0.00319705 0.048582
109 3 O 0.408732 12.9847 1.4948 -1.2 1 0.000700894 0.0025808 0.000986475 0.00532761 0.00185747 0.00906488 0.00148538 0.021127 0.00197417 0.00836742 0.00171973 0.0289394 0.00298306 0.0160194 0.00304402 0.0298125 0.00327727 0.0169473 0.00367719 0.048406
110 3 O 7.03923 15.572 1.4948 -1.2 1 0.00124134 0.00268018 0.00130936 0.00478746 0.0020475 0.00818313 0.00199861 0.0218113 0.00215978 0.00811216 0.00171797 0.0290923 0.00245008 0.0163483 0.00261297 0.0295625 0.00329772 0.0170229 0.00370505 0.0487031
111 3 O -0.248332 15.3041 0.196716 -1.2 1 0.00196072 0.00219919 0.0011149 0.00480056 0.0011269 0.00919114 0.0018153 0.0213593 0.00113506 0.00828088 0.00186789 0.027867 0.00287863 0.0156115 0.00379086 0.0293182 0.00307395 0.0161531 0.00301337 0.048261
112 3 O -0.289436 15.3041 2.79288 -1.2 1 0.0019871 0.00289125 0.00123937 0.00498056 0.00250921 0.00862045 0.00196194 0.0219619 0.00191189 0.00852638 0.00219088 0.027217 0.00294572 0.0165507 0.00348666 0.0295147 0.00452836 0.0176941 0.00472995 0.0488594
113 1 Mg 6.59566 18.996 0 1.2 1 0.00203128 0.00219019 0.00132556 0.0044021 0.000981071 0.00862926 0.00116536 0.0220148 0.00133446 0.00766035 0.00126723 0.0280502 0.0021207 0.0161976 0.00239012 0.0285821 0.00271649 0.016006 0.00268521 0.0483896
114 1 Mg 3.85574 23.7037 1.4948 1.2 1 0.00251926 0.00264626 0.0011237 0.00420579 0.00131008 0.00749536 0.00111929 0.0230958 0.00203112 0.00762814 0.00190092 0.0267523 0.00225895 0.0174999 0.00340274 0.0286347 0.00348837 0.0171211 0.00328979 0.0503166
115 2 Si 5.66125 21.0195 1.4948 2.4 1 0.002117 0.00222412 0.00101552 0.0043755 0.00176303 0.00830582 0.00131387 0.0219641 0.00142363 0.00741456 0.00139886 0.0277559 0.00228163 0.0172264 0.00257243 0.0280159 0.00364246 0.0160138 0.00360666 0.0497684
116 3 O 5.72074 22.6328 1.4948 -1.2 1 0.00218743 0.00254723 0.00137371 0.00430156 0.00153778 0.00832695 0.0017729 0.0223362 0.00206453 0.00728113 0.00118447 0.0276109 0.0019702 0.0172443 0.00272603 0.0284961 0.00352789 0.0163239 0.00345327 0.0497243
117 3 O 2.03867 20.0455 1.4948 -1.2 1 0.00220343 0.0025861 0.00106326 0.00460412 0.00187853 0.0079093 0.00202285 0.0222948 0.0023055 0.00743509 0.0015018 0.0283571 0.00201481 0.0171592 0.00238903 0.0288686 0.0038066 0.0161863 0.00353814 0.0497731
118 3 O 4.96004 20.3134 0.196716 -1.2 1 0.002326 0.0018729 0.00115058 0.00429209 0.00113225 0.00828297 0.00125665 0.0216148 0.00120731 0.00731965 0.00138827 0.027481 0.00248543 0.0162538 0.00332081 0.0286281 0.00288875 0.0153464 0.00284199 0.0488967
119 1 Mg 6.55057 18.996 2.9896 1.2 1 0.00145175 0.00313463 0.00111148 0.00449003 0.0026475 0.00822038 0.00240263 0.0213507 0.00250939 0.00786993 0.00206521 0.0283968 0.00264788 0.0167672 0.00281463 0.0288739 0.00403849 0.01733 0.00459802 0.049145