ITEM: TIMESTEP
19400
ITEM: NUMBER OF ATOMS
10500
ITEM: BOX BOUNDS xy xz yz pp pp pp
0	15.2977	5.09925
0	118.725	0
0	89.688	0
ITEM: ATOMS id type element xu yu zu q Q_1 Q_2 Q_3 Q_4 Q_5 Q_6 Q_7 Q_8 Q_9 Q_10 Q_11 Q_12 Q_13 Q_14 Q_15 Q_16 Q_17 Q_18 Q_19 Q_20 Q_21
1 1 Mg 6.2404 -6.37941e-06 0 1.2 1 0.000982278 0.00402067 0.00107682 0.00496944 0.00127566 0.00561087 0.00211252 0.0163164 0.00205889 0.00579005 0.00232154 0.021988 0.00253704 0.0134701 0.00362284 0.0207482 0.0041763 0.0141416 0.00403184 0.0408381
2 1 Mg 3.46349 4.70768 1.4948 1.2 1 0.00122044 0.0032403 0.00166654 0.00462753 0.00195464 0.0062077 0.00356436 0.0186991 0.00292468 0.0069768 0.00298173 0.0258957 0.00325113 0.0138796 0.00447577 0.0254293 0.00526626 0.0169229 0.00552666 0.0441411
3 2 Si 5.2885 2.02354 1.4948 2.4 1 0.000456701 0.0032995 0.00206317 0.00479878 0.00181204 0.00589457 0.00240695 0.0171979 0.00232822 0.00613157 0.00216095 0.0234295 0.00290586 0.0134229 0.00376716 0.0217058 0.00389984 0.0152606 0.00427345 0.0415214
4 3 O 5.33628 3.63678 1.4948 -1.2 1 0.000807177 0.00275764 0.00163275 0.0049734 0.00211829 0.00637252 0.00291767 0.0178596 0.00224754 0.00666482 0.00200189 0.0252673 0.00256797 0.0135064 0.00431737 0.0241629 0.00500157 0.016322 0.00562542 0.0430199
5 3 O 1.67294 1.04952 1.4948 -1.2 1 0.00154041 0.00342492 0.00221486 0.0043452 0.00128037 0.00569914 0.0023862 0.0169225 0.00245467 0.00608788 0.00222418 0.0229571 0.00278867 0.0127501 0.00353831 0.0221169 0.00448979 0.0154744 0.00462579 0.0405014
6 3 O 4.59532 1.31737 0.196716 -1.2 1 0.000870926 0.00306225 0.0019193 0.00452191 0.00187665 0.0056842 0.00234594 0.0172679 0.0027874 0.00622845 0.00213222 0.0224298 0.00333995 0.0127989 0.00433074 0.0216448 0.00427869 0.0148235 0.0045421 0.0411384
7 1 Mg 6.18956 -6.37941e-06 2.9896 1.2 1 0.000985598 0.00432341 0.00159119 0.0044178 0.00137534 0.00593373 0.00238087 0.0160828 0.00258965 0.00561155 0.00183318 0.0226421 0.00276201 0.0131589 0.00374116 0.0209735 0.00439022 0.0146814 0.00491407 0.0392528
8 3 O 4.55118 1.31737 2.79288 -1.2 1 0.00104808 0.00416299 0.00180507 0.00447871 0.00190549 0.00573674 0.00257464 0.016916 0.00237746 0.00686449 0.00247928 0.0219564 0.00357266 0.0120485 0.00362724 0.0217808 0.00451572 0.0154884 0.00494723 0.0402698
9 1 Mg -1.20682 0.0413099 4.4844 1.2 1 0.000710253 0.0026847 0.00169154 0.00482598 0.00129102 0.00563017 0.00189554 0.0161057 0.00223883 0.00592953 0.00209682 0.0230169 0.00315064 0.0116453 0.00365612 0.0212875 0.00501174 0.0155028 0.00514017 0.0389426
10 2 Si -3.0337 2.72544 4.4844 2.4 1 0.000844601 0.00327894 0.00180707 0.0050933 0.00222716 0.00621546 0.00332102 0.0167081 0.00333159 0.00607232 0.00224556 0.0242124 0.00320185 0.0125861 0.00420975 0.0227006 0.00527068 0.0172745 0.00603637 0.0400115
11 3 O -3.08099 1.11221 4.4844 -1.2 1 0.000984184 0.00352199 0.00187776 0.00443315 0.00133919 0.00556335 0.00244591 0.0160061 0.00290038 0.00549035 0.00224196 0.0227464 0.00323728 0.0111976 0.0036652 0.021854 0.00482408 0.0159685 0.0055125 0.0388888
12 3 O 0.582463 3.69946 4.4844 -1.2 1 0.00192183 0.00438855 0.00199094 0.00466527 0.00257587 0.00671783 0.00345937 0.0171034 0.00383274 0.00642597 0.00330862 0.025315 0.00434018 0.0127638 0.00459838 0.0245559 0.00679452 0.0184154 0.00801472 0.0420448
13 3 O -2.29524 3.43162 3.18632 -1.2 1 0.000838859 0.00276126 0.00251424 0.00475296 0.00224979 0.00601136 0.00298737 0.0179012 0.00321402 0.00661071 0.00268878 0.0247876 0.00324626 0.0128706 0.0049513 0.02451 0.00600425 0.0176659 0.00638864 0.0422559
14 3 O -2.34216 3.43162 5.78248 -1.2 1 0.0018626 0.0037749 0.00140791 0.00517173 0.00260445 0.00582172 0.00312179 0.0170903 0.00292849 0.00718173 0.0028566 0.0237341 0.00437237 0.0119734 0.00438982 0.0238554 0.00638098 0.0190974 0.00764506 0.0407468
15 1 Mg 1.12778 2.37449 2.9896 1.2 1 0.00135285 0.00364803 0.00219338 0.0046712 0.00214668 0.00589115 0.00302947 0.0167088 0.00274699 0.00618374 0.00246947 0.0237957 0.00342664 0.0127735 0.00363539 0.0223163 0.00465813 0.0164482 0.00529016 0.0411702
16 1 Mg 3.92855 2.33318 4.4844 1.2 1 0.000946994 0.00405954 0.00147479 0.00448416 0.00183405 0.00583626 0.00343889 0.0166797 0.00316822 0.00600651 0.00287728 0.0232785 0.00375855 0.0128205 0.00527815 0.0223552 0.00614451 0.016966 0.00679886 0.0405345
17 2 Si 2.09341 4.39804 4.4844 2.4 1 0.00162742 0.00420579 0.00178114 0.00442228 0.00297894 0.00601566 0.00374474 0.0181848 0.00361329 0.00660598 0.00333287 0.025203 0.00450504 0.0137811 0.00450129 0.0250141 0.00662414 0.0182929 0.00803004 0.0439622
18 3 O 2.09991 6.01128 4.4844 -1.2 1 0.00240027 0.0046139 0.00150412 0.00435777 0.00303567 0.00646438 0.00320029 0.0193079 0.00284253 0.00713953 0.00298716 0.0268869 0.00409759 0.014232 0.00483006 0.0278449 0.00695072 0.0194681 0.00797612 0.0459446
19 3 O -4.52137 3.42402 4.4844 -1.2 1 0.000914937 0.00381562 0.00199043 0.00489456 0.00227616 0.00715834 0.00347267 0.01699 0.00344324 0.00612213 0.0030442 0.0239866 0.00403176 0.0125915 0.00429515 0.0231508 0.00614674 0.0174864 0.00746397 0.0414403
20 3 O 2.80834 3.69187 3.18632 -1.2 1 0.00127989 0.00371902 0.00166417 0.00401387 0.00214546 0.00579302 0.00304008 0.0172877 0.00300633 0.00636719 0.00280315 0.0244631 0.00378794 0.0129457 0.00491751 0.0242586 0.00554209 0.0169648 0.00614116 0.0429307
21 1 Mg 1.17857 2.37449 0 1.2 1 0.00168807 0.00370507 0.00215743 0.00426359 0.00144428 0.00542197 0.00248654 0.0173441 0.00247685 0.00661794 0.00281365 0.0232986 0.00279697 0.0132368 0.0035569 0.0218421 0.00437795 0.0147101 0.00477511 0.0410712
22 3 O 2.76143 3.69187 5.78248 -1.2 1 0.0019311 0.00455643 0.00163862 0.00451534 0.00216978 0.00551751 0.00300584 0.0176051 0.00340357 0.00691946 0.00291202 0.0235553 0.00478301 0.0127146 0.00556034 0.0236227 0.00650474 0.0185295 0.00738706 0.0416058
23 1 Mg -1.67381 2.41581 1.4948 1.2 1 0.000987139 0.00251293 0.00272566 0.00499226 0.00136262 0.00602845 0.00248916 0.0167454 0.00274512 0.00621561 0.00208543 0.0243127 0.00256418 0.0140561 0.00289032 0.0224253 0.0044689 0.015889 0.00480009 0.0419914
24 2 Si 0.16286 0.350945 1.4948 2.4 1 0.00174813 0.00263532 0.00297063 0.00482787 0.00121749 0.00639752 0.00271566 0.0164239 0.00214324 0.0052586 0.00206869 0.0230006 0.00257006 0.0133408 0.00313417 0.0209749 0.00458216 0.014701 0.00414316 0.0404299
25 3 O 0.15972 -1.26229 1.4948 -1.2 1 0.00171318 0.00263697 0.00312745 0.004657 0.00181721 0.00603272 0.00244627 0.0164684 0.0022343 0.00555414 0.00260761 0.0228517 0.00270297 0.013723 0.00297338 0.0219382 0.00432395 0.014597 0.00377392 0.0409663
26 3 O 6.77654 1.32496 1.4948 -1.2 1 0.000995575 0.00353901 0.00153859 0.00484228 0.0011957 0.00611628 0.00232899 0.0169004 0.00244012 0.0054779 0.00187445 0.0238415 0.00281536 0.0134347 0.00363257 0.022017 0.00466861 0.0151963 0.00439156 0.0410569
27 3 O -0.508028 1.05712 0.196716 -1.2 1 0.00126935 0.00270959 0.00357465 0.00429103 0.00132076 0.00559118 0.00246856 0.0172125 0.00185078 0.0066396 0.00267874 0.0222047 0.00282542 0.0128402 0.00327352 0.0213775 0.00436601 0.0150657 0.00439557 0.0403717
28 3 O -0.552171 1.05712 2.79288 -1.2 1 0.000992309 0.00221826 0.00295445 0.00474742 0.00143481 0.00620412 0.00232384 0.016304 0.00250666 0.00630938 0.00184878 0.0230236 0.00311516 0.0118195 0.00387781 0.0219846 0.00513849 0.0158439 0.00477611 0.0399665
29 1 Mg 6.31713 4.74899 0 1.2 1 0.000844886 0.00268859 0.00186913 0.00496135 0.00221027 0.00611477 0.00327683 0.0180956 0.00285303 0.00702565 0.0022151 0.0253195 0.00273797 0.013614 0.00405704 0.0246211 0.00484522 0.0162136 0.00597149 0.0429856
30 1 Mg 3.54847 9.45668 1.4948 1.2 1 0.00132429 0.00309419 0.00192219 0.00489964 0.00216166 0.00765339 0.00315778 0.0213978 0.00171456 0.00829232 0.00233662 0.0286466 0.00316073 0.0155529 0.00387865 0.0292729 0.00418385 0.0182557 0.00383875 0.0489896
31 2 Si 5.36879 6.77254 1.4948 2.4 1 0.000936872 0.00287489 0.00202227 0.00533006 0.00268167 0.00696818 0.00375284 0.0196939 0.00273548 0.00772836 0.00254291 0.0277332 0.00305294 0.0151989 0.00417031 0.0269993 0.00470405 0.0173147 0.00517857 0.0467674
32 3 O 5.41937 8.38578 1.4948 -1.2 1 0.0013952 0.00308421 0.00173119 0.005258 0.00230048 0.00771542 0.00320987 0.0209707 0.0022534 0.00835085 0.0024766 0.0291482 0.00214649 0.0154631 0.00308627 0.0292683 0.00465297 0.0175228 0.00478891 0.0482559
33 3 O 1.75158 5.79852 1.4948 -1.2 1 0.00120454 0.00335702 0.00158556 0.00430163 0.00234259 0.00605257 0.0033104 0.0194712 0.00275843 0.00728212 0.00270368 0.028022 0.00300588 0.0153378 0.00349891 0.027047 0.00538912 0.01756 0.00544954 0.0459652
34 3 O 4.67421 6.06637 0.196716 -1.2 1 0.00080527 0.00285613 0.00155106 0.00504296 0.00197731 0.00685638 0.00295634 0.0198894 0.00244822 0.00804808 0.00216094 0.0263664 0.00332313 0.014179 0.0041813 0.026631 0.00471624 0.0166509 0.00557715 0.0452565
35 1 Mg 6.26654 4.74899 2.9896 1.2 1 0.00143621 0.00310979 0.00208979 0.00508161 0.00272611 0.00660279 0.00382766 0.0179729 0.00380726 0.00702947 0.00223296 0.0261278 0.00370421 0.0143211 0.00503372 0.0251921 0.00580761 0.0174491 0.00673443 0.0439539
36 3 O 4.63043 6.06637 2.79288 -1.2 1 0.00201267 0.00334012 0.00176147 0.00513633 0.00242883 0.00681194 0.00345834 0.0194035 0.00330418 0.00783035 0.00240886 0.0263961 0.00383368 0.0144174 0.0046333 0.0275439 0.00580822 0.0181858 0.00665053 0.0458473
37 1 Mg -1.12976 4.79031 4.4844 1.2 1 0.00200803 0.0038688 0.00173648 0.00493652 0.00251875 0.00632114 0.00330454 0.0181127 0.00367495 0.00719901 0.00322183 0.0257869 0.00414825 0.0140637 0.00483585 0.025729 0.00743795 0.0191622 0.00771519 0.0441986
38 2 Si -2.9517 7.47444 4.4844 2.4 1 0.00234755 0.00397919 0.00125181 0.00548666 0.00302572 0.00651957 0.00378917 0.0204952 0.0033141 0.00797617 0.00305708 0.0276316 0.00447776 0.0158491 0.00545094 0.028169 0.00697058 0.0192022 0.0079553 0.048023
39 3 O -3.00198 5.86121 4.4844 -1.2 1 0.00189255 0.00410356 0.00104952 0.00516093 0.00332936 0.00641221 0.00427062 0.0188317 0.0036505 0.00751974 0.00305496 0.0262793 0.00447233 0.0139528 0.00494862 0.0271576 0.00688794 0.0193493 0.00836365 0.0457276
40 3 O 0.666315 8.44846 4.4844 -1.2 1 0.00273035 0.00484871 0.00133988 0.00529652 0.00303495 0.00744686 0.00306291 0.0211511 0.00323728 0.00789172 0.00345106 0.0288469 0.00486907 0.0156768 0.00478112 0.0294771 0.00645411 0.0196641 0.00767708 0.0488964
41 3 O -2.21213 8.18062 3.18632 -1.2 1 0.00211223 0.00417662 0.00148464 0.00479874 0.00269019 0.00645299 0.00291347 0.0209653 0.00281369 0.00815378 0.00277698 0.0278545 0.00418967 0.0156128 0.00516022 0.0291456 0.00589731 0.0188858 0.00654816 0.0488569
42 3 O -2.25864 8.18062 5.78248 -1.2 1 0.00306264 0.00470085 0.0015786 0.00513442 0.00326341 0.00617005 0.00319432 0.0206888 0.00254237 0.00843197 0.00335931 0.0271495 0.00479991 0.0163486 0.00532966 0.0295573 0.0071246 0.0206578 0.00813219 0.049372
43 1 Mg 1.20893 7.12349 2.9896 1.2 1 0.00185551 0.00389125 0.00166055 0.0046022 0.00275084 0.00669305 0.00374081 0.0195603 0.0028784 0.00798424 0.00270315 0.0281372 0.00353796 0.0155905 0.00390808 0.027716 0.00558205 0.0182983 0.00627154 0.047106
44 1 Mg 4.00982 7.08218 4.4844 1.2 1 0.00237529 0.00414632 0.00137977 0.0052341 0.00277938 0.00658635 0.00369595 0.0201906 0.00351319 0.00770119 0.00334616 0.0274711 0.00419021 0.0163234 0.00607226 0.0283799 0.00728791 0.0192135 0.00825391 0.0475909
45 2 Si 2.17861 9.14704 4.4844 2.4 1 0.00257188 0.00417439 0.00168159 0.00514797 0.00302062 0.00732024 0.00367505 0.0212046 0.00301398 0.008272 0.00317503 0.0283871 0.00481488 0.016365 0.00469349 0.0297913 0.00592829 0.0195237 0.00669085 0.0503648
46 3 O 2.18828 10.7603 4.4844 -1.2 1 0.00295953 0.00436767 0.0019444 0.00477373 0.00279767 0.00715212 0.0030486 0.0211386 0.00256609 0.00816603 0.00222418 0.0289788 0.0041934 0.0155906 0.00438461 0.0308116 0.00597625 0.0199525 0.0063848 0.0511264
47 3 O -4.43805 8.17302 4.4844 -1.2 1 0.00211697 0.00433163 0.00152247 0.00546147 0.00276642 0.00755715 0.00329773 0.020799 0.00335164 0.00828811 0.00319116 0.0287008 0.00472562 0.0158633 0.00493834 0.0294213 0.00667523 0.0194422 0.00858871 0.0485982
48 3 O 2.89193 8.44087 3.18632 -1.2 1 0.00256827 0.00373387 0.00154148 0.00462086 0.00252481 0.00679579 0.00332406 0.0204807 0.00295068 0.0084583 0.00291298 0.0277444 0.0039559 0.0157176 0.00488382 0.0292874 0.00585202 0.0186693 0.0058497 0.0487808
49 1 Mg 1.25915 7.12349 0 1.2 1 0.000638041 0.00303916 0.00145034 0.0044782 0.00178128 0.00721599 0.00295602 0.0202628 0.00279515 0.00809505 0.00237637 0.027624 0.00334837 0.0143086 0.00349555 0.0276687 0.00466867 0.0174272 0.00456985 0.0463929
50 3 O 2.84547 8.44087 5.78248 -1.2 1 0.0028548 0.0048297 0.00166756 0.00507471 0.00293259 0.00656693 0.00334495 0.0209219 0.00320332 0.00869935 0.00350999 0.0273753 0.00563013 0.0162779 0.0057086 0.0297694 0.00636986 0.0209898 0.00770539 0.0495676
51 1 Mg -1.59284 7.16481 1.4948 1.2 1 0.0010157 0.00336745 0.00123281 0.00486542 0.00174443 0.00637584 0.00283104 0.0198837 0.00291586 0.00779079 0.00169666 0.0278759 0.00331956 0.0153634 0.00378033 0.0272507 0.00469307 0.0176029 0.00554294 0.0469071
52 2 Si 0.240329 5.09994 1.4948 2.4 1 0.000989994 0.00369892 0.00185785 0.00438335 0.00175832 0.00677131 0.00312548 0.0188702 0.00315583 0.00726769 0.00215845 0.0261163 0.00291453 0.0144483 0.00407607 0.0249727 0.00518949 0.016913 0.00525227 0.04491
53 3 O 0.234538 3.48671 1.4948 -1.2 1 0.00139446 0.00375672 0.00265306 0.00454074 0.0017778 0.00644148 0.00265562 0.0179322 0.00339411 0.00691746 0.00240303 0.0246926 0.00334204 0.0134696 0.00402964 0.0242102 0.00547404 0.0159984 0.00544055 0.0426504
54 3 O 6.85564 6.07396 1.4948 -1.2 1 0.00113481 0.00273399 0.00230607 0.00502997 0.00251297 0.00613289 0.00323102 0.0199533 0.0030903 0.00752264 0.00214004 0.0277985 0.00316104 0.0145107 0.00472423 0.0270565 0.00563855 0.017638 0.00616908 0.0456461
55 3 O -0.429565 5.80612 0.196716 -1.2 1 0.000877505 0.00331201 0.00223922 0.00440891 0.0017886 0.00706889 0.00266204 0.0195831 0.00287597 0.00838905 0.00243767 0.0258168 0.00259963 0.0141428 0.00384574 0.0259455 0.00511295 0.0166918 0.00565719 0.0453671
56 3 O -0.473377 5.80612 2.79288 -1.2 1 0.001929 0.0035387 0.00189179 0.00472136 0.00234006 0.00677911 0.0031526 0.0192606 0.00317324 0.00794375 0.00288383 0.0260691 0.00385221 0.0144775 0.00461771 0.0266151 0.00637751 0.0185384 0.00654828 0.0461365
57 1 Mg 6.40169 9.49799 0 1.2 1 0.000256779 0.00348977 0.00152681 0.00476598 0.00160108 0.00830787 0.00213935 0.0211577 0.00170237 0.00882195 0.00177432 0.0289568 0.0023117 0.0146771 0.00263588 0.0298493 0.00376119 0.0179027 0.00409288 0.0477579
58 1 Mg 3.64209 14.2057 1.4948 1.2 1 0.00154296 0.00308907 0.00162741 0.00448294 0.00169458 0.00880041 0.00178611 0.0217063 0.001641 0.00865878 0.00237629 0.0285435 0.00265146 0.0160913 0.00309697 0.0295114 0.00348759 0.0168362 0.00335691 0.0494069
59 2 Si 5.45748 11.5215 1.4948 2.4 1 0.0014061 0.00312866 0.00189203 0.0046999 0.00191609 0.00820025 0.00227576 0.0211645 0.00159498 0.00832658 0.00182717 0.0290593 0.00261161 0.0161407 0.00335468 0.0294208 0.00404608 0.0169353 0.00372445 0.0493549
60 3 O 5.51101 13.1348 1.4948 -1.2 1 0.00164934 0.00319038 0.00178739 0.00470645 0.00163513 0.00909899 0.00193073 0.0212295 0.00174043 0.00861512 0.00173231 0.0294988 0.00214505 0.0161174 0.00282212 0.0298779 0.00367946 0.0167714 0.00346448 0.04922
61 3 O 1.83851 10.5475 1.4948 -1.2 1 0.0011541 0.00344683 0.00178489 0.00503599 0.00197727 0.0078111 0.0024477 0.0217021 0.00175963 0.00833811 0.00222397 0.0294862 0.00254254 0.0157302 0.00319621 0.0299088 0.00413408 0.0178246 0.0032734 0.0495272
62 3 O 4.7611 10.8154 0.196716 -1.2 1 0.000570842 0.00284084 0.00187144 0.00469574 0.00159662 0.00852824 0.00225751 0.0215066 0.00153518 0.00865689 0.00198147 0.0284388 0.00287146 0.0155444 0.00379258 0.0295341 0.00367363 0.0171709 0.0034973 0.0487168
63 1 Mg 6.35203 9.49799 2.9896 1.2 1 0.00165997 0.00370015 0.00163587 0.00513266 0.00268252 0.00754229 0.00347074 0.0205115 0.00326293 0.00867911 0.00222921 0.0295187 0.00380041 0.0160468 0.00344857 0.0293149 0.00435102 0.0184785 0.00532721 0.0489962
64 3 O 4.71833 10.8154 2.79288 -1.2 1 0.00242648 0.00357704 0.00168736 0.00475243 0.0022098 0.0081883 0.002217 0.0215049 0.00195812 0.00889647 0.00211688 0.0284101 0.00338557 0.0158787 0.00403621 0.03019 0.00512111 0.0185485 0.00529604 0.0502896
65 1 Mg -1.0438 9.53931 4.4844 1.2 1 0.00283953 0.00462288 0.00150343 0.00489679 0.0030609 0.0068439 0.0026778 0.0212442 0.00294142 0.00842926 0.00270894 0.0284507 0.00384871 0.0164432 0.00467 0.0300702 0.00628879 0.0198606 0.0067831 0.0502875
66 2 Si -2.8604 12.2234 4.4844 2.4 1 0.00295641 0.00425355 0.00177659 0.00468011 0.0028601 0.00778912 0.00317507 0.0220608 0.00281716 0.00854905 0.00235516 0.0285664 0.00416089 0.0165293 0.00444533 0.0303151 0.00566773 0.0194808 0.00655481 0.0519592
67 3 O -2.91391 10.6102 4.4844 -1.2 1 0.00291308 0.00454111 0.00170814 0.00474258 0.00292385 0.00716386 0.00321028 0.0208372 0.00275952 0.00787667 0.00213203 0.0287688 0.00426789 0.0158425 0.00420553 0.0309988 0.00587714 0.019858 0.00687705 0.0509524
68 3 O 0.7596 13.1975 4.4844 -1.2 1 0.00290599 0.00410665 0.00205404 0.00505344 0.00288748 0.00876234 0.00262251 0.0223746 0.00274715 0.00846561 0.0030485 0.0291607 0.00427714 0.0163509 0.00460271 0.030321 0.00606132 0.0194894 0.00642701 0.0514382
69 3 O -2.12001 12.9296 3.18632 -1.2 1 0.00280137 0.00385501 0.0018998 0.00422942 0.00256674 0.00773068 0.00240118 0.0218848 0.00243082 0.00852027 0.00239696 0.0281669 0.00371695 0.0162934 0.00475032 0.0305394 0.00508767 0.018649 0.00525777 0.0510893
70 3 O -2.16532 12.9296 5.78248 -1.2 1 0.00358049 0.00458414 0.00178229 0.00463612 0.00303884 0.00690672 0.00243971 0.0222597 0.00273549 0.00838302 0.00290175 0.0282158 0.00409561 0.0168651 0.00522321 0.0313785 0.0062304 0.0208515 0.00672678 0.0528694
71 1 Mg 1.29891 11.8725 2.9896 1.2 1 0.00221877 0.00347089 0.00189484 0.0049007 0.00246676 0.00813894 0.00289775 0.0211115 0.00249703 0.00855379 0.00218907 0.0293028 0.00343431 0.0162063 0.00342831 0.0300298 0.00450506 0.0178872 0.00467686 0.0499465
72 1 Mg 4.10033 11.8312 4.4844 1.2 1 0.00281793 0.0039491 0.0020531 0.00447074 0.0026672 0.00732882 0.00275985 0.0214728 0.00259851 0.00821598 0.00277627 0.0291214 0.00373216 0.0171181 0.00496913 0.0305452 0.00657549 0.0194368 0.00621361 0.0515319
73 2 Si 2.27333 13.896 4.4844 2.4 1 0.00273345 0.00373611 0.00183605 0.00501871 0.00300513 0.00798163 0.00325338 0.0218872 0.0025296 0.00838215 0.0029626 0.0286034 0.00393578 0.0166645 0.00444054 0.0303131 0.00550477 0.0188099 0.00591155 0.0521955
74 3 O 2.28634 15.5093 4.4844 -1.2 1 0.00332149 0.00415752 0.00192015 0.00466686 0.00306754 0.00735772 0.00289923 0.0210608 0.00276065 0.00788087 0.00223606 0.0288961 0.00310524 0.0160422 0.00402377 0.0307333 0.00584695 0.0187269 0.00614144 0.0518193
75 3 O -4.34533 12.922 4.4844 -1.2 1 0.00267318 0.00429751 0.00194368 0.00470488 0.00289272 0.0084796 0.00297866 0.0220125 0.00277998 0.00853339 0.00238399 0.0289943 0.00410696 0.016275 0.00467959 0.0306769 0.00644113 0.0198055 0.00706649 0.051764
76 3 O 2.98455 13.1899 3.18632 -1.2 1 0.00261944 0.00349354 0.00180385 0.00441789 0.00258419 0.00795202 0.00235258 0.0218387 0.00220631 0.00862112 0.00241167 0.0283076 0.00351766 0.0161624 0.00444476 0.030182 0.00542518 0.0184705 0.00529919 0.0509394
77 1 Mg 1.34779 11.8725 0 1.2 1 0.00108501 0.00281334 0.00137307 0.00481765 0.00143984 0.00887724 0.00167021 0.021318 0.00121343 0.00900953 0.00178672 0.0290997 0.00275926 0.01489 0.00293251 0.030115 0.00314933 0.0173244 0.00320072 0.0483426
78 3 O 2.93934 13.1899 5.78248 -1.2 1 0.00300404 0.00439803 0.00180621 0.00484129 0.0027929 0.00718501 0.00253988 0.0222522 0.00250607 0.00845754 0.00292007 0.0278897 0.00436586 0.0166378 0.00426533 0.0312546 0.00623467 0.0213289 0.00634372 0.0532026
79 1 Mg -1.50344 11.9138 1.4948 1.2 1 0.00123992 0.00340008 0.00147901 0.00462098 0.00156186 0.00832301 0.00194458 0.0216856 0.00234079 0.00853416 0.00150519 0.0288546 0.00355796 0.0160984 0.00330614 0.029774 0.0033491 0.0175382 0.00357357 0.0492727
80 2 Si 0.326006 9.84894 1.4948 2.4 1 0.000549247 0.00344609 0.00126052 0.00514578 0.00201915 0.00824594 0.00211748 0.0211331 0.00204566 0.00837872 0.00160255 0.0286105 0.0028656 0.0156799 0.00354083 0.0289782 0.00379317 0.0177375 0.00340556 0.0487618
81 3 O 0.317364 8.23571 1.4948 -1.2 1 0.00138884 0.00363147 0.00106531 0.00468884 0.00184183 0.0077546 0.0022012 0.0202939 0.00257743 0.00792896 0.00178851 0.0287354 0.00341886 0.0157353 0.00380299 0.0286814 0.00441019 0.0177137 0.00423181 0.0478725
82 3 O 6.94307 10.823 1.4948 -1.2 1 0.00113583 0.00357412 0.00157658 0.00464276 0.00202738 0.00779911 0.00265002 0.0218336 0.00230808 0.00835299 0.00161349 0.0296366 0.00292621 0.0158169 0.00324588 0.0299996 0.00368964 0.0179957 0.00404835 0.0493647
83 3 O -0.343122 10.5551 0.196716 -1.2 1 0.000395615 0.0031566 0.00117998 0.00481005 0.00150814 0.00862254 0.00198875 0.0214141 0.00168677 0.00891261 0.00197477 0.028321 0.00321158 0.0153299 0.00414313 0.0295471 0.00349047 0.0174803 0.00343289 0.0486215
84 3 O -0.385966 10.5551 2.79288 -1.2 1 0.00263643 0.00396821 0.00131021 0.00465131 0.0025872 0.00809472 0.00231485 0.0216388 0.00208634 0.00904481 0.00235087 0.0279589 0.00383704 0.0159239 0.00430288 0.0301451 0.00505683 0.0186576 0.00494191 0.0500589
85 1 Mg 6.49448 14.247 0 1.2 1 0.00140779 0.00318277 0.00158319 0.00453038 0.00119114 0.00917814 0.00139439 0.0213719 0.0011036 0.00858518 0.00148576 0.0289514 0.0015554 0.0155728 0.00237178 0.0300666 0.00310165 0.016625 0.00282128 0.0482912
86 1 Mg 3.74457 18.9547 1.4948 1.2 1 0.00178537 0.0031998 0.00152013 0.00386352 0.0019431 0.00845926 0.0014401 0.0221994 0.0018863 0.00800672 0.00237328 0.0277843 0.00261231 0.0165556 0.00365845 0.0289426 0.00344103 0.0163779 0.0032442 0.0497516
87 2 Si 5.55495 16.2705 1.4948 2.4 1 0.00197084 0.00294988 0.0015232 0.00438585 0.00193267 0.00892244 0.00146865 0.0214139 0.00137842 0.00794693 0.00144984 0.0287191 0.00232727 0.0162995 0.00273879 0.0288863 0.00371829 0.0160266 0.00357738 0.0495156
88 3 O 5.6115 17.8838 1.4948 -1.2 1 0.00193686 0.00312248 0.00170638 0.00411305 0.00181311 0.00915287 0.00162083 0.0217333 0.001787 0.00793071 0.00149803 0.0287241 0.00218063 0.0166017 0.00275132 0.0288788 0.00319725 0.0158738 0.00339646 0.0494863
89 3 O 1.93416 15.2965 1.4948 -1.2 1 0.00162942 0.00311565 0.00157864 0.00438087 0.00185905 0.00835262 0.00202894 0.0219663 0.0018203 0.0080818 0.00159855 0.0291487 0.00211937 0.0162448 0.00282127 0.0296356 0.003661 0.0168125 0.00338977 0.0498462
90 3 O 4.85636 15.5644 0.196716 -1.2 1 0.00178088 0.0024652 0.00141354 0.00430513 0.00118589 0.00905285 0.00141073 0.0213703 0.00109645 0.00819194 0.00159457 0.0281744 0.002572 0.0163197 0.00325561 0.029344 0.0031799 0.0158637 0.00285934 0.0490848
91 1 Mg 6.44662 14.247 2.9896 1.2 1 0.00163196 0.00370409 0.00165149 0.00456955 0.00250487 0.00855897 0.00294349 0.0209327 0.00253594 0.00865876 0.00188515 0.0293771 0.00312421 0.0164084 0.00295811 0.0296355 0.00404452 0.0176653 0.0045891 0.0501334
92 3 O 4.81537 15.5644 2.79288 -1.2 1 0.00265435 0.00338156 0.00153562 0.00426382 0.00237051 0.00880333 0.00183339 0.0219418 0.00155542 0.00867376 0.00183719 0.0282048 0.00289236 0.0164793 0.00356119 0.0296248 0.00479304 0.0174838 0.00483037 0.0505092
93 1 Mg -0.948271 14.2883 4.4844 1.2 1 0.00340379 0.00403881 0.0018047 0.00447805 0.00283261 0.00792588 0.0027374 0.0218469 0.00270464 0.00843789 0.00280628 0.0288398 0.00338344 0.016872 0.00497361 0.030513 0.00600218 0.0190141 0.0063199 0.0518172
94 2 Si -2.75928 16.9724 4.4844 2.4 1 0.00312024 0.00383822 0.00176563 0.0044548 0.00296556 0.00801864 0.00290266 0.022204 0.00269302 0.00794639 0.00250662 0.0282201 0.00323323 0.0168502 0.00451704 0.0297139 0.00522579 0.0186822 0.00594717 0.0526511
95 3 O -2.81617 15.3592 4.4844 -1.2 1 0.00349225 0.00415951 0.00189947 0.00443021 0.00311296 0.00769772 0.00299548 0.0212312 0.00265932 0.00777951 0.00227395 0.0289497 0.00363418 0.0161384 0.00422253 0.0305554 0.00595858 0.0186862 0.00640251 0.0518787
96 3 O 0.862762 17.9465 4.4844 -1.2 1 0.00297237 0.00443289 0.00156938 0.00452004 0.00303741 0.00847015 0.0026186 0.0225078 0.00254341 0.00802387 0.00243084 0.0287509 0.00358783 0.0169212 0.00437013 0.0293884 0.00595198 0.0188673 0.00621466 0.0519506
97 3 O -2.0185 17.6786 3.18632 -1.2 1 0.00276424 0.00344586 0.00183959 0.00385028 0.00267483 0.00764111 0.00233272 0.0224144 0.00234375 0.00807261 0.00213144 0.0277597 0.00338187 0.0164932 0.00455077 0.0297334 0.00485406 0.0176633 0.00506933 0.0512116
98 3 O -2.06164 17.6786 5.78248 -1.2 1 0.00320216 0.00433243 0.00164014 0.00440431 0.00292587 0.0070008 0.00251142 0.0223432 0.00253902 0.00806445 0.00290283 0.0280155 0.00342013 0.0172957 0.00501025 0.0308499 0.00632253 0.0205877 0.00640216 0.0537512
99 1 Mg 1.39817 16.6215 2.9896 1.2 1 0.00252326 0.00359917 0.00163711 0.00441174 0.00263784 0.00833202 0.00279033 0.0213894 0.00247281 0.00815256 0.00198114 0.0289249 0.00262328 0.0166481 0.00325195 0.0295135 0.00415697 0.0169508 0.00434727 0.0502811
100 1 Mg 4.20062 16.5802 4.4844 1.2 1 0.00315132 0.00383783 0.0018137 0.00427556 0.00280214 0.00764929 0.0025505 0.0219984 0.00303685 0.00797933 0.00284307 0.0287368 0.00327427 0.0173725 0.00547112 0.0300038 0.00641707 0.0188784 0.00604276 0.0518755
101 2 Si 2.37796 18.645 4.4844 2.4 1 0.00287604 0.00376946 0.00150972 0.00451971 0.00302002 0.00787032 0.0029446 0.022456 0.00262853 0.00803422 0.00254287 0.0280649 0.00328764 0.0171027 0.00449066 0.0296904 0.00548791 0.0184083 0.00578404 0.0527283
102 3 O 2.39434 20.2583 4.4844 -1.2 1 0.00264543 0.00405957 0.00173937 0.00446296 0.00305939 0.00705073 0.00276641 0.0215746 0.00279543 0.00747663 0.00188561 0.0286446 0.00325397 0.0167112 0.00412901 0.0299954 0.00593721 0.0186022 0.00653756 0.0523943
103 3 O -4.24274 17.671 4.4844 -1.2 1 0.00277287 0.0040537 0.001842 0.00454537 0.00295204 0.0086415 0.0029102 0.0225129 0.00284749 0.00805895 0.00238567 0.0286954 0.00327343 0.0168054 0.00480485 0.0297637 0.00594941 0.019091 0.00641087 0.0522118
104 3 O 3.08659 17.9389 3.18632 -1.2 1 0.00265932 0.0033483 0.00147202 0.00400693 0.00268574 0.00784863 0.00215987 0.0223046 0.00233443 0.00812385 0.00217918 0.0277566 0.00308672 0.0164547 0.0043566 0.029567 0.00550929 0.0176951 0.00534312 0.0510907
105 1 Mg 1.44478 16.6215 0 1.2 1 0.00240822 0.00275793 0.0011 0.00411359 0.00145002 0.00898467 0.00117666 0.0215677 0.00132583 0.00819055 0.00162039 0.0286568 0.00224728 0.0159641 0.00233256 0.0292573 0.00284651 0.0161231 0.0030294 0.0487234
106 3 O 3.0436 17.9389 5.78248 -1.2 1 0.00319021 0.00435232 0.001689 0.00470164 0.00297838 0.00711087 0.00255803 0.0224075 0.00241828 0.00828181 0.00285566 0.0278489 0.0037358 0.0171012 0.00509218 0.0308147 0.00630514 0.0207493 0.00646355 0.0538529
107 1 Mg -1.40524 16.6628 1.4948 1.2 1 0.00156533 0.00323351 0.00141545 0.00428631 0.00174665 0.00859463 0.00190003 0.022258 0.00183085 0.00824436 0.00182921 0.0283655 0.00311697 0.0167692 0.00290429 0.0293272 0.00296589 0.0168103 0.00310251 0.0495348
108 2 Si 0.420358 14.5979 1.4948 2.4 1 0.00152379 0.00302697 0.00155543 0.00471558 0.00205403 0.00907669 0.00192892 0.021418 0.00160069 0.00825684 0.00147698 0.0286606 0.00287505 0.0165025 0.00345868 0.0289041 0.0033913 0.0165438 0.00336285 0.0494124
109 3 O 0.408732 12.9847 1.4948 -1.2 1 0.00136871 0.00287021 0.00154723 0.00478705 0.00201454 0.00918431 0.00156512 0.0211719 0.00209128 0.00844203 0.00155604 0.0292285 0.00304158 0.0160605 0.00296735 0.0298197 0.00315312 0.0169012 0.00352727 0.0493962
110 3 O 7.03923 15.572 1.4948 -1.2 1 0.00154766 0.00337269 0.00150389 0.00434637 0.00199016 0.0082944 0.00235514 0.0217738 0.00207131 0.00812499 0.00158509 0.0293167 0.00257781 0.0164358 0.00272769 0.0296067 0.0034442 0.0168484 0.00378 0.0496779
111 3 O -0.248332 15.3041 0.196716 -1.2 1 0.00179279 0.00268037 0.00109416 0.0043087 0.00114665 0.00903365 0.00188945 0.0213203 0.00131407 0.00825612 0.00160457 0.0281351 0.00282879 0.0161121 0.00358701 0.0292118 0.00292898 0.0161341 0.00308189 0.0489022
112 3 O -0.289436 15.3041 2.79288 -1.2 1 0.00294627 0.00361481 0.00151595 0.00431983 0.0025304 0.00869279 0.00209844 0.0219963 0.00176505 0.00874028 0.00205463 0.0277057 0.00309621 0.0166009 0.00370047 0.0296426 0.00448969 0.0175966 0.00456213 0.0505241
113 1 Mg 6.59566 18.996 0 1.2 1 0.00166797 0.00309961 0.00155324 0.00394953 0.0010133 0.00855936 0.00108267 0.0219598 0.00110354 0.00790456 0.00146124 0.028099 0.0020147 0.0165492 0.00227882 0.0286933 0.0027945 0.0159122 0.00274059 0.0486769
114 1 Mg 3.85574 23.7037 1.4948 1.2 1 0.00165456 0.00273002 0.0013523 0.00408681 0.00169566 0.00757373 0.00122582 0.0231225 0.00191532 0.00752787 0.00226281 0.0272449 0.00251665 0.017639 0.00385427 0.0285118 0.00315237 0.0171792 0.00337762 0.0507817
115 2 Si 5.66125 21.0195 1.4948 2.4 1 0.00155736 0.00267489 0.00133373 0.00398232 0.00210363 0.00823693 0.00151677 0.0219635 0.00140779 0.00747966 0.00157881 0.0280959 0.00259292 0.0174175 0.00280921 0.0281403 0.00352397 0.0159206 0.00379023 0.0501412
116 3 O 5.72074 22.6328 1.4948 -1.2 1 0.00145508 0.00268573 0.00173351 0.00403666 0.00199141 0.00828265 0.00158513 0.0223726 0.00191625 0.00730205 0.0014839 0.027998 0.00232563 0.0173697 0.00296522 0.0284423 0.00307257 0.0162661 0.00355906 0.050187
117 3 O 2.03867 20.0455 1.4948 -1.2 1 0.00139795 0.00331012 0.00148026 0.00421955 0.00213115 0.00767385 0.00220229 0.0223898 0.00216437 0.00748289 0.00150323 0.0285547 0.00226407 0.0172605 0.00250678 0.0289735 0.00347887 0.0161313 0.00347644 0.0503076
118 3 O 4.96004 20.3134 0.196716 -1.2 1 0.00201443 0.00238426 0.00146816 0.00383386 0.00121627 0.00828306 0.00110458 0.0217985 0.0010838 0.00754144 0.0017001 0.0276213 0.00272844 0.0167775 0.00378009 0.0287304 0.00300659 0.0153252 0.0028524 0.0494031
119 1 Mg 6.55057 18.996 2.9896 1.2 1 0.00155458 0.00337708 0.00149819 0.00405778 0.00273599 0.00825049 0.00287377 0.0214289 0.00247447 0.00811713 0.00191379 0.0292633 0.00297046 0.0169979 0.00314046 0.0287328 0.00390874 0.0170502 0.00462963 0.050422