ITEM: TIMESTEP
51900
ITEM: NUMBER OF ATOMS
10500
ITEM: BOX BOUNDS xy xz yz pp pp pp
0	15.2977	5.09925
0	118.725	0
0	89.688	0
ITEM: ATOMS id type element xu yu zu q Q_1 Q_2 Q_3 Q_4 Q_5 Q_6 Q_7 Q_8 Q_9 Q_10 Q_11 Q_12 Q_13 Q_14 Q_15 Q_16 Q_17 Q_18 Q_19 Q_20 Q_21
1 1 Mg 6.2404 -6.37941e-06 0 1.2 1 0.00126262 0.0036356 0.0010758 0.00458388 0.00141763 0.00566566 0.00195148 0.0161331 0.00209058 0.00580803 0.00211896 0.0217028 0.00251895 0.0132521 0.00315689 0.0206509 0.00409364 0.0140502 0.00408552 0.0403906
2 1 Mg 3.46349 4.70768 1.4948 1.2 1 0.00102081 0.00323774 0.00156968 0.00445026 0.00206321 0.00614411 0.00348658 0.0186064 0.00272436 0.00700804 0.0030961 0.0255842 0.00311824 0.0137896 0.00430317 0.0252013 0.00545844 0.0174001 0.00611166 0.0434224
3 2 Si 5.2885 2.02354 1.4948 2.4 1 0.000575226 0.00307086 0.00184596 0.00427197 0.00199646 0.00567488 0.00241672 0.0168607 0.00258719 0.00598814 0.00226184 0.0231983 0.00293209 0.0133664 0.0034028 0.0214448 0.00379504 0.0152973 0.00438389 0.0409976
4 3 O 5.33628 3.63678 1.4948 -1.2 1 0.000571795 0.00264726 0.00156551 0.00468872 0.00216534 0.00626638 0.00286299 0.0177185 0.00227654 0.00664407 0.00215722 0.0250771 0.00258732 0.0135875 0.0041698 0.0240965 0.00503172 0.0166433 0.0058994 0.042628
5 3 O 1.67294 1.04952 1.4948 -1.2 1 0.00152903 0.00336197 0.00200622 0.00396052 0.00143022 0.00577801 0.00235815 0.0168475 0.00229031 0.00617366 0.002212 0.0228881 0.00263819 0.0126824 0.00323131 0.0217601 0.00465194 0.0155933 0.00508203 0.0402375
6 3 O 4.59532 1.31737 0.196716 -1.2 1 0.00120819 0.00276031 0.00185219 0.00395652 0.00213332 0.00561093 0.00245052 0.0171469 0.0024549 0.00625943 0.00199204 0.0224424 0.00319945 0.0126417 0.00391272 0.0215454 0.00418341 0.0149248 0.00469341 0.0407305
7 1 Mg 6.18956 -6.37941e-06 2.9896 1.2 1 0.00110036 0.00423848 0.00142828 0.00408124 0.00137449 0.00591443 0.00231471 0.0161196 0.00260433 0.00571344 0.00191341 0.0226951 0.00290751 0.0132862 0.00342744 0.020829 0.00437284 0.0147061 0.00511055 0.0396118
8 3 O 4.55118 1.31737 2.79288 -1.2 1 0.00140286 0.00430117 0.00177556 0.00404405 0.00203836 0.00582989 0.00253416 0.0169092 0.0025163 0.00684147 0.00221673 0.0218948 0.00338221 0.0122604 0.00352575 0.021627 0.00472473 0.0156041 0.00543248 0.040442
9 1 Mg -1.20682 0.0413099 4.4844 1.2 1 0.000648828 0.00326735 0.0016805 0.00464904 0.00120589 0.0054837 0.0018128 0.0161954 0.00222739 0.00600259 0.00225115 0.0229649 0.00336061 0.0117071 0.00391714 0.0207283 0.00495426 0.0157428 0.00512601 0.0395453
10 2 Si -3.0337 2.72544 4.4844 2.4 1 0.000724945 0.00384637 0.00183386 0.00504967 0.0023631 0.00627967 0.00317552 0.016741 0.00300215 0.00620366 0.00238471 0.0244293 0.00338252 0.0132032 0.00402994 0.0225831 0.0053071 0.0182631 0.00643486 0.0406019
11 3 O -3.08099 1.11221 4.4844 -1.2 1 0.000805115 0.00408247 0.00186529 0.00436335 0.00152087 0.00554536 0.00227562 0.0159816 0.00267224 0.005746 0.00225241 0.0227366 0.00320321 0.0114573 0.00363282 0.0215496 0.0050668 0.0165774 0.00543056 0.0392965
12 3 O 0.582463 3.69946 4.4844 -1.2 1 0.00173939 0.00424918 0.00236424 0.00453303 0.00272272 0.00651508 0.00363435 0.017303 0.00334689 0.00667255 0.00310714 0.0251403 0.00427124 0.0130284 0.00434842 0.0244047 0.00676542 0.0190727 0.00806244 0.0420161
13 3 O -2.29524 3.43162 3.18632 -1.2 1 0.000715874 0.00300939 0.00236763 0.00487067 0.0024101 0.00624319 0.00289937 0.0177119 0.00309771 0.0066737 0.0025275 0.0247499 0.00334292 0.0130712 0.00474145 0.0243952 0.00580161 0.0184292 0.00681496 0.0421484
14 3 O -2.34216 3.43162 5.78248 -1.2 1 0.00152836 0.0042776 0.00151449 0.00508739 0.00281592 0.00588716 0.0033469 0.0170673 0.00291934 0.00697309 0.00298703 0.0236801 0.00455172 0.0123978 0.00448837 0.0236334 0.00633 0.0201554 0.00731489 0.0410723
15 1 Mg 1.12778 2.37449 2.9896 1.2 1 0.00143771 0.00368987 0.00238254 0.00437161 0.00242429 0.00583394 0.00302094 0.0166988 0.00273033 0.00625314 0.0025205 0.0236683 0.00333761 0.012997 0.0033333 0.0219195 0.00483801 0.0165134 0.00567404 0.0408465
16 1 Mg 3.92855 2.33318 4.4844 1.2 1 0.00131389 0.00457825 0.00169005 0.00451761 0.00189423 0.00559797 0.00356239 0.0167364 0.00326226 0.00605749 0.00281661 0.0234305 0.00374322 0.0135817 0.00515169 0.0221998 0.00618677 0.0175167 0.0069288 0.0407982
17 2 Si 2.09341 4.39804 4.4844 2.4 1 0.00142459 0.00391177 0.00207772 0.00435413 0.00315212 0.00608395 0.00381609 0.0179339 0.00349574 0.00688443 0.00326722 0.0250042 0.00467312 0.0141046 0.00441705 0.0245158 0.00661989 0.0190485 0.00820646 0.0434162
18 3 O 2.09991 6.01128 4.4844 -1.2 1 0.0017833 0.00420726 0.00163273 0.00413569 0.00311447 0.00643436 0.00328 0.0188383 0.00293889 0.00725032 0.00309132 0.0267166 0.00422931 0.0143785 0.00493316 0.0272586 0.00666202 0.0201805 0.00789034 0.0449299
19 3 O -4.52137 3.42402 4.4844 -1.2 1 0.00104085 0.00414661 0.00200169 0.00477165 0.00239015 0.00715391 0.0034145 0.0170206 0.00337081 0.00627142 0.0029924 0.0239864 0.00397749 0.0129984 0.0042818 0.0229272 0.00599221 0.0183953 0.00763899 0.041732
20 3 O 2.80834 3.69187 3.18632 -1.2 1 0.00118834 0.00372076 0.00175833 0.00378634 0.00224083 0.00589027 0.00309607 0.017226 0.00300629 0.00647335 0.00292244 0.0244143 0.00377474 0.0132015 0.00487638 0.0239928 0.00562051 0.0172931 0.00666878 0.0425118
21 1 Mg 1.17857 2.37449 0 1.2 1 0.00185941 0.0035874 0.00187872 0.00389516 0.00156621 0.00543694 0.00244312 0.0171216 0.00230817 0.00671157 0.00280879 0.0233162 0.00272146 0.013223 0.00329637 0.021891 0.00429786 0.0149869 0.00500481 0.040815
22 3 O 2.76143 3.69187 5.78248 -1.2 1 0.00180398 0.00463556 0.00199319 0.00430811 0.00229186 0.0054623 0.00321312 0.0172978 0.00324715 0.00710538 0.00285662 0.0238483 0.00461092 0.0133222 0.0054983 0.0236733 0.00633314 0.019448 0.00733272 0.0418005
23 1 Mg -1.67381 2.41581 1.4948 1.2 1 0.00127672 0.00264355 0.00234015 0.00483918 0.00149588 0.00608322 0.00241482 0.0165153 0.00261274 0.00633797 0.00182909 0.024213 0.00263642 0.0141947 0.00261328 0.0222729 0.00423666 0.0162983 0.00522176 0.0415626
24 2 Si 0.16286 0.350945 1.4948 2.4 1 0.0017152 0.00271382 0.00275216 0.00430629 0.00139418 0.00637583 0.00260015 0.0162738 0.00198111 0.00537047 0.00190586 0.0228725 0.00224111 0.0134035 0.00282907 0.0207344 0.00475546 0.0147449 0.00450821 0.0403551
25 3 O 0.15972 -1.26229 1.4948 -1.2 1 0.00202127 0.00252502 0.00287707 0.00417602 0.00184112 0.00596903 0.00237429 0.0163664 0.00221241 0.00561449 0.00254592 0.0228378 0.00275346 0.0135546 0.00287604 0.0217498 0.00436279 0.0144357 0.00404476 0.0409168
26 3 O 6.77654 1.32496 1.4948 -1.2 1 0.00129259 0.00353943 0.00147333 0.00453999 0.00139059 0.00604248 0.00220052 0.0166644 0.00244653 0.00560191 0.00188218 0.0236885 0.00290129 0.0133367 0.00333595 0.0218701 0.00454486 0.0154345 0.00451955 0.0407435
27 3 O -0.508028 1.05712 0.196716 -1.2 1 0.00144886 0.0026344 0.003198 0.00400737 0.00143643 0.00544247 0.00234634 0.0169489 0.0018125 0.00682136 0.0025954 0.0221786 0.00262569 0.0127236 0.00295396 0.0212567 0.0043376 0.0150774 0.00456686 0.040051
28 3 O -0.552171 1.05712 2.79288 -1.2 1 0.00093233 0.00254576 0.00262744 0.00444715 0.00148063 0.00617072 0.00218051 0.0162758 0.0024397 0.00640432 0.00189932 0.0230533 0.00310253 0.0119025 0.0034042 0.0217586 0.00530746 0.0159333 0.00518984 0.0400291
29 1 Mg 6.31713 4.74899 0 1.2 1 0.000706747 0.00267084 0.00176455 0.00467577 0.00244461 0.00626034 0.00331631 0.017934 0.00269425 0.00704315 0.00219427 0.0250789 0.002771 0.013798 0.00406997 0.0247517 0.00468843 0.0165007 0.00585519 0.0427108
30 1 Mg 3.54847 9.45668 1.4948 1.2 1 0.000349818 0.00309014 0.00180354 0.00481461 0.00212627 0.00765404 0.00305133 0.0212892 0.00170516 0.00841326 0.00248629 0.0283846 0.00333363 0.0156152 0.00393186 0.0291037 0.00445122 0.0183053 0.00411247 0.0482335
31 2 Si 5.36879 6.77254 1.4948 2.4 1 0.000149359 0.0029459 0.00191574 0.00527234 0.00283152 0.00691365 0.00380113 0.0195218 0.00265669 0.00770324 0.0026048 0.0276323 0.0032801 0.0153893 0.00418613 0.0269585 0.00487089 0.0174254 0.00561015 0.0461814
32 3 O 5.41937 8.38578 1.4948 -1.2 1 0.000100736 0.00295836 0.00167243 0.00515989 0.00236626 0.00774267 0.00307077 0.020835 0.0021634 0.00821957 0.00255655 0.0289884 0.00253341 0.015722 0.00332083 0.0290812 0.00488881 0.017647 0.00513614 0.0475219
33 3 O 1.75158 5.79852 1.4948 -1.2 1 0.000734786 0.00317656 0.00169408 0.00422123 0.00262427 0.00594823 0.0032493 0.0194521 0.00273498 0.0072712 0.00277074 0.0278598 0.0030193 0.0154596 0.00346646 0.0268742 0.00556978 0.0177729 0.00575412 0.0453093
34 3 O 4.67421 6.06637 0.196716 -1.2 1 0.000799424 0.00302265 0.00159181 0.00487633 0.00217169 0.00687084 0.00298086 0.0197437 0.00244193 0.00805286 0.00218866 0.0261813 0.00349879 0.0145112 0.00415413 0.0267322 0.00481579 0.0169297 0.00563028 0.0449684
35 1 Mg 6.26654 4.74899 2.9896 1.2 1 0.00129257 0.00309353 0.00203887 0.00505024 0.0027647 0.00664986 0.00366728 0.0178505 0.00364468 0.00715981 0.00222426 0.02593 0.00384865 0.0145485 0.00498611 0.0249626 0.00579329 0.0181665 0.00732902 0.0432683
36 3 O 4.63043 6.06637 2.79288 -1.2 1 0.00151275 0.00332807 0.00188188 0.00502919 0.00238226 0.0067767 0.00339803 0.0192563 0.00327892 0.0077904 0.00255622 0.0260739 0.00402927 0.0146156 0.00447951 0.0273775 0.00603809 0.0187718 0.00706842 0.0450762
37 1 Mg -1.12976 4.79031 4.4844 1.2 1 0.00167575 0.00375632 0.00168605 0.00502517 0.00249879 0.00625575 0.00328638 0.0178654 0.00338629 0.00709757 0.00301156 0.0261852 0.00430329 0.014379 0.00471423 0.0258686 0.00734995 0.0200333 0.0081318 0.0441084
38 2 Si -2.9517 7.47444 4.4844 2.4 1 0.00171335 0.00380597 0.00127431 0.00528318 0.00306689 0.00655389 0.00381659 0.0200214 0.00334476 0.00766923 0.00301867 0.0276906 0.00478538 0.0158486 0.0055942 0.0280138 0.0069624 0.0200524 0.00818543 0.0469218
39 3 O -3.00198 5.86121 4.4844 -1.2 1 0.00150146 0.00429333 0.00110102 0.00512203 0.00321923 0.00654246 0.00400914 0.0186458 0.00358502 0.00762149 0.00270726 0.0259957 0.00454541 0.0140754 0.00485793 0.0269436 0.00672648 0.0204007 0.0083053 0.045289
40 3 O 0.666315 8.44846 4.4844 -1.2 1 0.00205466 0.00428327 0.00142803 0.00510349 0.00309925 0.00729447 0.0031216 0.0209979 0.00301911 0.00796387 0.00338601 0.0283543 0.00493777 0.0158217 0.00474802 0.0288428 0.00666258 0.0207285 0.00793523 0.0475783
41 3 O -2.21213 8.18062 3.18632 -1.2 1 0.00110984 0.0038976 0.00145516 0.00482327 0.00278592 0.00636385 0.00294105 0.0205423 0.00284666 0.00803027 0.00292489 0.0277879 0.00448607 0.0158445 0.0051107 0.0288068 0.00592483 0.0192957 0.00688471 0.0479875
42 3 O -2.25864 8.18062 5.78248 -1.2 1 0.00246058 0.00440491 0.00157184 0.00504072 0.00320758 0.00603165 0.00308343 0.0202692 0.00266098 0.00829453 0.00346168 0.0268357 0.00465406 0.0162269 0.00549063 0.0290567 0.0070185 0.0215018 0.00829718 0.0480378
43 1 Mg 1.20893 7.12349 2.9896 1.2 1 0.000960171 0.00381704 0.0016514 0.00454924 0.00300014 0.00665853 0.00365349 0.0195712 0.00276311 0.00806397 0.00280692 0.0279194 0.00365929 0.0156426 0.00385456 0.0275646 0.00579188 0.0187242 0.00664652 0.0462942
44 1 Mg 4.00982 7.08218 4.4844 1.2 1 0.00169996 0.00386756 0.00189408 0.00492196 0.00288232 0.00638657 0.00381724 0.0198354 0.00350716 0.00763831 0.00315493 0.0273492 0.00434028 0.0165026 0.00608727 0.0279567 0.00718569 0.0200787 0.00810054 0.0464535
45 2 Si 2.17861 9.14704 4.4844 2.4 1 0.00169277 0.00371205 0.0017534 0.00511799 0.00321543 0.00714768 0.00374481 0.0210396 0.00294666 0.00822718 0.00334082 0.0281647 0.00503646 0.0164251 0.00480514 0.0292389 0.00617119 0.0201239 0.00729919 0.0488744
46 3 O 2.18828 10.7603 4.4844 -1.2 1 0.00244063 0.00413169 0.00188791 0.00486473 0.00308279 0.00695934 0.00296105 0.0208872 0.00259413 0.00793799 0.00226978 0.0284848 0.00431215 0.015601 0.00447579 0.0302136 0.0062977 0.0201752 0.00701109 0.0491929
47 3 O -4.43805 8.17302 4.4844 -1.2 1 0.00131266 0.00410956 0.00172103 0.00526487 0.00283976 0.00769233 0.00326853 0.0206533 0.00327348 0.0083066 0.00309626 0.0283731 0.00485539 0.0158282 0.0049701 0.0289306 0.00705437 0.0202804 0.00867048 0.0473722
48 3 O 2.89193 8.44087 3.18632 -1.2 1 0.00136093 0.00344494 0.00181351 0.00453419 0.00270858 0.00672654 0.00338889 0.0204471 0.00279203 0.00846339 0.0029772 0.0276248 0.00412218 0.0158656 0.00492642 0.0289008 0.00613886 0.0192254 0.00623822 0.0478299
49 1 Mg 1.25915 7.12349 0 1.2 1 0.00135843 0.00333065 0.00147297 0.0043841 0.00190964 0.00726766 0.00287522 0.0200828 0.00270075 0.00797968 0.0028459 0.0275625 0.00357318 0.0146283 0.00360466 0.0275582 0.00464458 0.0175406 0.0046252 0.045926
50 3 O 2.84547 8.44087 5.78248 -1.2 1 0.00233008 0.00455124 0.00174696 0.00482722 0.00302887 0.00643127 0.00351391 0.0207194 0.00325536 0.00857792 0.00336958 0.0268149 0.0055915 0.0163692 0.00552219 0.029143 0.00635981 0.0218996 0.00791204 0.0480601
51 1 Mg -1.59284 7.16481 1.4948 1.2 1 0.000681938 0.00339989 0.00143452 0.00480682 0.00203235 0.00638026 0.00273279 0.0198489 0.00295013 0.00780095 0.00186745 0.0277001 0.00348086 0.0156834 0.00367172 0.0272394 0.00472494 0.0178358 0.00591867 0.0463362
52 2 Si 0.240329 5.09994 1.4948 2.4 1 0.000666412 0.00363383 0.00198972 0.00429056 0.00214739 0.00679001 0.00305661 0.0188949 0.00295932 0.00727742 0.00249391 0.026056 0.00294768 0.0147159 0.00406081 0.0247993 0.00515216 0.017238 0.00556634 0.0443755
53 3 O 0.234538 3.48671 1.4948 -1.2 1 0.00130393 0.00367882 0.00247145 0.00435039 0.00194599 0.00639639 0.00257573 0.0178817 0.00330429 0.00703252 0.00237945 0.0246682 0.00328014 0.0136271 0.0037078 0.0241573 0.00543266 0.016266 0.00577053 0.0422488
54 3 O 6.85564 6.07396 1.4948 -1.2 1 0.000456553 0.0027522 0.00215899 0.00506042 0.00263648 0.00617814 0.00311138 0.0198197 0.00298395 0.00752463 0.00213721 0.0276546 0.00348246 0.0147695 0.00471391 0.0270119 0.00565326 0.0180067 0.00663731 0.0450802
55 3 O -0.429565 5.80612 0.196716 -1.2 1 0.000647602 0.00329821 0.00230035 0.00422866 0.00187571 0.00718345 0.00251774 0.0195537 0.00277585 0.00828222 0.00270477 0.0257631 0.0028073 0.0143462 0.00382606 0.0260266 0.00498916 0.0170461 0.00574315 0.0450605
56 3 O -0.473377 5.80612 2.79288 -1.2 1 0.00142841 0.00364588 0.00156463 0.00476048 0.00259726 0.00668311 0.00322502 0.0190294 0.00296449 0.00802727 0.00310304 0.0259502 0.00386946 0.0143787 0.00452773 0.0264136 0.0063209 0.0188776 0.00728836 0.0451987
57 1 Mg 6.40169 9.49799 0 1.2 1 0.000845624 0.00368498 0.00151413 0.00476179 0.00151809 0.00838577 0.00191196 0.0210304 0.00163265 0.00883846 0.00190528 0.0287199 0.0026153 0.0150061 0.00281344 0.0297179 0.0039205 0.0179231 0.00416812 0.0474241
58 1 Mg 3.64209 14.2057 1.4948 1.2 1 0.00183616 0.00320221 0.00155163 0.0044929 0.00168324 0.00869299 0.00167815 0.0217301 0.00155147 0.00874544 0.00222056 0.0280721 0.00275042 0.0159962 0.00289508 0.0296348 0.0034736 0.0169899 0.00338905 0.0490837
59 2 Si 5.45748 11.5215 1.4948 2.4 1 0.00140167 0.00316597 0.0016766 0.0046249 0.00184738 0.00815654 0.00206925 0.0211634 0.00166316 0.0081851 0.00196684 0.0287506 0.00295803 0.0162553 0.00361425 0.0291128 0.00405955 0.0169047 0.00391749 0.0488601
60 3 O 5.51101 13.1348 1.4948 -1.2 1 0.001588 0.00331411 0.00165841 0.00470881 0.00164755 0.00898438 0.00167828 0.0211839 0.001689 0.00855375 0.00171387 0.0292016 0.00247934 0.0160856 0.00291812 0.0299329 0.00376909 0.0165946 0.00355624 0.0487844
61 3 O 1.83851 10.5475 1.4948 -1.2 1 0.00056772 0.00338359 0.00171951 0.00495637 0.00198114 0.00763791 0.0023116 0.0216932 0.00178957 0.008376 0.00237745 0.0293116 0.00291826 0.0158482 0.00355011 0.0297473 0.00430422 0.017816 0.00371045 0.0488001
62 3 O 4.7611 10.8154 0.196716 -1.2 1 0.00128043 0.00307295 0.00173442 0.00475128 0.00149584 0.00845784 0.00214804 0.0213069 0.00165466 0.00864641 0.00209129 0.0281641 0.00316417 0.0157662 0.0039015 0.0295336 0.00391969 0.0169243 0.00379407 0.0483348
63 1 Mg 6.35203 9.49799 2.9896 1.2 1 0.000600226 0.00374402 0.00158805 0.0050661 0.00289576 0.00734448 0.00328747 0.0203869 0.00295125 0.00841973 0.00220941 0.0290333 0.00404303 0.0161716 0.00347823 0.0292133 0.00468488 0.0189109 0.00577976 0.0480625
64 3 O 4.71833 10.8154 2.79288 -1.2 1 0.0012593 0.00344463 0.00163078 0.00458486 0.00241159 0.00801439 0.0021793 0.0212888 0.00220116 0.00891114 0.00209198 0.02822 0.00381989 0.0157933 0.00412299 0.0298605 0.00552383 0.0184899 0.00557589 0.0490314
65 1 Mg -1.0438 9.53931 4.4844 1.2 1 0.00238258 0.00442717 0.00144728 0.00485557 0.00323658 0.00644271 0.00275958 0.0207383 0.00274759 0.008235 0.00271216 0.0284495 0.00438303 0.0166162 0.00474642 0.0296108 0.00669348 0.0203216 0.0073524 0.0487624
66 2 Si -2.8604 12.2234 4.4844 2.4 1 0.00236895 0.00413348 0.00174117 0.00464626 0.00282245 0.00762076 0.00300994 0.0217278 0.00268536 0.00837585 0.00234002 0.0282195 0.00429363 0.0163366 0.00463728 0.029538 0.00593126 0.0195917 0.00657936 0.050243
67 3 O -2.91391 10.6102 4.4844 -1.2 1 0.0022505 0.00411469 0.00172797 0.00472261 0.00306647 0.00701104 0.00336101 0.0204777 0.00268186 0.00768536 0.00218523 0.0286166 0.00453346 0.0156246 0.00433168 0.0300701 0.0060579 0.0199604 0.00692521 0.0493066
68 3 O 0.7596 13.1975 4.4844 -1.2 1 0.00280125 0.00401503 0.00197844 0.00501864 0.00288834 0.00849178 0.00244198 0.0220384 0.00273888 0.00834 0.00286689 0.0287805 0.0043622 0.0161639 0.00435136 0.0294152 0.0061249 0.0194302 0.00686211 0.0494707
69 3 O -2.12001 12.9296 3.18632 -1.2 1 0.00234722 0.00379974 0.00177734 0.00432612 0.00258367 0.00766075 0.00219664 0.0219183 0.00237738 0.00836201 0.00235918 0.0277767 0.00375108 0.0160769 0.00457188 0.0300144 0.00532333 0.0185544 0.00547531 0.0497672
70 3 O -2.16532 12.9296 5.78248 -1.2 1 0.00358655 0.0044021 0.00151714 0.00469926 0.00269476 0.00677055 0.00218423 0.0217293 0.0025325 0.00840047 0.00306688 0.0275397 0.00423071 0.0167067 0.0052647 0.0303194 0.00655409 0.0212175 0.00699185 0.0508647
71 1 Mg 1.29891 11.8725 2.9896 1.2 1 0.00166315 0.00332847 0.00188233 0.00495977 0.00258586 0.0078862 0.00270885 0.0212074 0.00245864 0.00851836 0.00207262 0.0291484 0.00368205 0.0161423 0.00359915 0.0297567 0.00467678 0.0179484 0.00508897 0.0490119
72 1 Mg 4.10033 11.8312 4.4844 1.2 1 0.00234348 0.00378956 0.00212884 0.00447691 0.00292202 0.00721352 0.00272416 0.0215483 0.00252893 0.00816381 0.00277916 0.0287756 0.00390568 0.0169595 0.00525042 0.0299373 0.00683137 0.0196208 0.00648215 0.0498124
73 2 Si 2.27333 13.896 4.4844 2.4 1 0.00298441 0.00359323 0.00163933 0.00498613 0.00295531 0.00775717 0.00301568 0.0217375 0.00232129 0.00819124 0.00271864 0.0279228 0.00384517 0.0165453 0.00439283 0.0296245 0.00556902 0.019027 0.00631363 0.0507505
74 3 O 2.28634 15.5093 4.4844 -1.2 1 0.00359584 0.00414629 0.00168251 0.00463899 0.00284333 0.00718914 0.00287037 0.0208045 0.00233777 0.00783416 0.00228506 0.0284928 0.00362771 0.015928 0.00417268 0.0299558 0.00590711 0.0186466 0.00631917 0.0501279
75 3 O -4.34533 12.922 4.4844 -1.2 1 0.00244422 0.00408479 0.00199524 0.00464209 0.00279951 0.00827375 0.00275595 0.0219175 0.00267939 0.00833884 0.00242107 0.0286385 0.00427151 0.0160885 0.00469014 0.0298016 0.00658991 0.0200113 0.00708688 0.0499963
76 3 O 2.98455 13.1899 3.18632 -1.2 1 0.00223967 0.0032614 0.00171123 0.00436667 0.00269599 0.00772273 0.0021647 0.0218933 0.0022334 0.00860488 0.00233452 0.0279861 0.00380129 0.0159533 0.00444152 0.029672 0.00552724 0.0182568 0.00533868 0.049652
77 1 Mg 1.34779 11.8725 0 1.2 1 0.00171889 0.003099 0.00120783 0.00487636 0.00147703 0.00905163 0.00153775 0.0210963 0.00125019 0.00914843 0.00216379 0.0288635 0.00308042 0.0149728 0.00327088 0.0300706 0.00332631 0.0169831 0.00344707 0.0478008
78 3 O 2.93934 13.1899 5.78248 -1.2 1 0.00291518 0.00414879 0.00180075 0.00495589 0.00276148 0.00688365 0.00254167 0.0217402 0.0024864 0.00834278 0.00301578 0.0273802 0.00439533 0.0166726 0.00488141 0.0303575 0.00639435 0.0212557 0.00698803 0.0509694
79 1 Mg -1.50344 11.9138 1.4948 1.2 1 0.00124029 0.00364505 0.00152544 0.00459563 0.00166333 0.00820321 0.00174091 0.0216771 0.00244519 0.00848209 0.00163611 0.0287541 0.00379288 0.0161014 0.00351477 0.0297993 0.00364459 0.0173897 0.00380209 0.0488443
80 2 Si 0.326006 9.84894 1.4948 2.4 1 0.000767269 0.00340061 0.00138989 0.00512215 0.00203103 0.00810876 0.00203969 0.0212045 0.00208261 0.00837148 0.00184778 0.0285691 0.00322388 0.0157482 0.00387682 0.0287902 0.00393986 0.0177104 0.0038244 0.0483052
81 3 O 0.317364 8.23571 1.4948 -1.2 1 0.000329577 0.00355675 0.00113947 0.00471008 0.00203831 0.00762863 0.00208874 0.0202977 0.00255365 0.00789619 0.00192387 0.0287055 0.00356962 0.0157675 0.00400847 0.0285703 0.00447445 0.0178138 0.00476172 0.0472689
82 3 O 6.94307 10.823 1.4948 -1.2 1 0.000524172 0.00354538 0.00139589 0.00459073 0.00213061 0.00771088 0.00252132 0.0218324 0.00241933 0.00835784 0.00152941 0.0294638 0.00323056 0.0158697 0.00347882 0.0297983 0.00386696 0.017958 0.00436067 0.0488409
83 3 O -0.343122 10.5551 0.196716 -1.2 1 0.00108086 0.00329995 0.00130177 0.00477476 0.00154746 0.00858418 0.00186877 0.0213189 0.00176035 0.00886059 0.0021088 0.0280505 0.00345665 0.0154263 0.00434771 0.0294142 0.00361617 0.0173797 0.00365554 0.0482314
84 3 O -0.385966 10.5551 2.79288 -1.2 1 0.00171149 0.00370241 0.00110072 0.00489907 0.0027594 0.00785423 0.00206572 0.0216 0.00210374 0.00901049 0.00246354 0.0277181 0.00411002 0.0159731 0.00434342 0.0297393 0.00521852 0.0188456 0.00514891 0.0491974
85 1 Mg 6.49448 14.247 0 1.2 1 0.00153543 0.00341944 0.00155341 0.00458548 0.00117132 0.00919637 0.00116346 0.0211699 0.00130872 0.00861148 0.00169122 0.0285763 0.00206288 0.0154599 0.0027037 0.0301732 0.00330239 0.0164293 0.00309945 0.0480713
86 1 Mg 3.74457 18.9547 1.4948 1.2 1 0.00241488 0.00341765 0.00105976 0.00407965 0.00164144 0.00859754 0.00116137 0.0220727 0.00189508 0.00803836 0.00239497 0.0274158 0.00253053 0.0163971 0.00342446 0.0290082 0.00340218 0.0162668 0.00328554 0.0497976
87 2 Si 5.55495 16.2705 1.4948 2.4 1 0.00227484 0.00317064 0.00131941 0.00437563 0.00183585 0.00882843 0.00139994 0.0214796 0.00133531 0.00792127 0.00129149 0.0283233 0.00247374 0.0162552 0.00283429 0.0288239 0.00356541 0.0158736 0.00358304 0.0493455
88 3 O 5.6115 17.8838 1.4948 -1.2 1 0.0024296 0.00331481 0.00141635 0.00430037 0.00175037 0.00920618 0.00151524 0.0215684 0.00172491 0.00787448 0.00156912 0.0284989 0.00224265 0.0163581 0.00264919 0.0289984 0.0031533 0.0157614 0.00331142 0.0493238
89 3 O 1.93416 15.2965 1.4948 -1.2 1 0.00190512 0.0031707 0.00156322 0.00438288 0.00186966 0.00827294 0.0017807 0.0218755 0.00174721 0.00814608 0.00142163 0.0289313 0.00240999 0.0159711 0.0029647 0.0298749 0.00350115 0.0165359 0.00323145 0.0495678
90 3 O 4.85636 15.5644 0.196716 -1.2 1 0.00180337 0.00274684 0.00140826 0.00439402 0.00123248 0.00903524 0.00139128 0.0212659 0.00114456 0.00820951 0.00162114 0.0279141 0.00280351 0.0161177 0.00332016 0.0295602 0.00322449 0.0156466 0.00303053 0.0488216
91 1 Mg 6.44662 14.247 2.9896 1.2 1 0.00142545 0.00377134 0.00146316 0.00457521 0.00254775 0.00849778 0.00271799 0.0210225 0.00251404 0.00881748 0.00178496 0.0291391 0.00333179 0.016126 0.00313889 0.0294726 0.00410797 0.0177048 0.00459478 0.0492209
92 3 O 4.81537 15.5644 2.79288 -1.2 1 0.00265713 0.00341257 0.00143003 0.00433018 0.00239137 0.00866721 0.0017813 0.0219182 0.00149932 0.00865973 0.00174065 0.0278866 0.00295963 0.0163058 0.00372169 0.0295995 0.00459579 0.0173069 0.00456858 0.0498936
93 1 Mg -0.948271 14.2883 4.4844 1.2 1 0.00351149 0.00384509 0.00172347 0.00449116 0.00263519 0.00777495 0.00246962 0.0214697 0.00256716 0.00818127 0.00291806 0.0285462 0.00360449 0.0166808 0.00523335 0.029698 0.00598061 0.0187636 0.00662331 0.0503522
94 2 Si -2.75928 16.9724 4.4844 2.4 1 0.00367262 0.00404924 0.00173505 0.00468272 0.00269644 0.00787216 0.00273401 0.0213549 0.00234425 0.00801944 0.0027943 0.0278303 0.00371233 0.0166824 0.00492272 0.0291915 0.00537492 0.0180992 0.00563042 0.050643
95 3 O -2.81617 15.3592 4.4844 -1.2 1 0.00377639 0.00398966 0.00175499 0.00438857 0.00282543 0.0075422 0.0026986 0.0210456 0.00239363 0.0076825 0.00223039 0.0284383 0.00370653 0.0158051 0.00407079 0.029945 0.006145 0.0185707 0.00650039 0.0504271
96 3 O 0.862762 17.9465 4.4844 -1.2 1 0.00383735 0.00419678 0.00143904 0.00465743 0.00278022 0.00840781 0.00222327 0.0219789 0.00215012 0.00789191 0.00244341 0.0281961 0.00352731 0.0166253 0.00406761 0.0289741 0.00566281 0.0184053 0.00607221 0.0507912
97 3 O -2.0185 17.6786 3.18632 -1.2 1 0.00330208 0.00377521 0.00168099 0.00425421 0.00256542 0.0078473 0.00211869 0.0220241 0.00211579 0.0077989 0.0022248 0.0273303 0.00337456 0.0162354 0.00444904 0.0298016 0.00475432 0.0174568 0.00495749 0.0506872
98 3 O -2.06164 17.6786 5.78248 -1.2 1 0.00439068 0.00454604 0.00152491 0.00463069 0.0025338 0.00697258 0.00221333 0.0215711 0.00203576 0.00794778 0.00298828 0.0273376 0.00318148 0.0168934 0.00522188 0.0302412 0.00625201 0.0202668 0.0061925 0.051515
99 1 Mg 1.39817 16.6215 2.9896 1.2 1 0.00289369 0.00356846 0.00158683 0.0046837 0.00239652 0.00851682 0.00256436 0.02119 0.00232023 0.00812788 0.00193673 0.0285094 0.00266619 0.0161893 0.00328771 0.0294437 0.00407731 0.0166268 0.00442533 0.0496769
100 1 Mg 4.20062 16.5802 4.4844 1.2 1 0.00334665 0.00383822 0.00185053 0.00440173 0.0026605 0.00761179 0.00242013 0.0215599 0.00280833 0.00808823 0.00274149 0.0279841 0.00338743 0.0172479 0.00525261 0.0296386 0.00637836 0.0183855 0.00578602 0.0505076
101 2 Si 2.37796 18.645 4.4844 2.4 1 0.00357386 0.0037284 0.00137451 0.00471787 0.00276983 0.00791789 0.00273963 0.0218472 0.00237614 0.00804111 0.00263211 0.0274408 0.00344544 0.0169996 0.00421643 0.0292386 0.00507792 0.017953 0.00575835 0.0518246
102 3 O 2.39434 20.2583 4.4844 -1.2 1 0.00345659 0.00425645 0.00145273 0.004636 0.00281438 0.00720391 0.00238743 0.0207437 0.00254613 0.00743091 0.0019016 0.0278802 0.00300251 0.0164249 0.00391803 0.0298198 0.00566302 0.0181653 0.00642911 0.050952
103 3 O -4.24274 17.671 4.4844 -1.2 1 0.00324446 0.0045168 0.00180419 0.00465924 0.0026953 0.00866253 0.00263839 0.0217659 0.00262133 0.0080094 0.00243638 0.0279582 0.00332635 0.0164866 0.00483224 0.0294519 0.00604096 0.0186398 0.00610943 0.0502737
104 3 O 3.08659 17.9389 3.18632 -1.2 1 0.00348483 0.00359558 0.00139835 0.00422083 0.00251157 0.00790604 0.00193391 0.0217928 0.00196703 0.00797512 0.00222086 0.0273272 0.00309014 0.0163828 0.00404208 0.0294951 0.00520787 0.0173569 0.0051987 0.0506136
105 1 Mg 1.44478 16.6215 0 1.2 1 0.00217913 0.00286452 0.00112426 0.00420277 0.00132816 0.0090529 0.00104214 0.0213966 0.00140434 0.00828196 0.00160877 0.0282735 0.00230638 0.0157716 0.00234947 0.0295807 0.00277105 0.015826 0.00309215 0.0486961
106 3 O 3.0436 17.9389 5.78248 -1.2 1 0.00325062 0.00449913 0.00152946 0.00479463 0.00263036 0.00695409 0.0021602 0.0217846 0.00207445 0.00812723 0.00277585 0.0269661 0.00351388 0.0166076 0.00484499 0.0301961 0.00575255 0.0205357 0.00609891 0.051523
107 1 Mg -1.40524 16.6628 1.4948 1.2 1 0.00170571 0.00342728 0.0012442 0.00441138 0.00170148 0.00875848 0.00171937 0.0220595 0.00179865 0.00813818 0.00188945 0.0280243 0.00319126 0.0165208 0.00290544 0.0295256 0.00288347 0.0163803 0.00306833 0.0493968
108 2 Si 0.420358 14.5979 1.4948 2.4 1 0.00161027 0.0031117 0.00164434 0.00485602 0.00204829 0.0091333 0.00174551 0.0213329 0.00172532 0.00821338 0.00152432 0.0283427 0.00312044 0.0163792 0.0035696 0.0290708 0.00341235 0.0163315 0.00319594 0.0491826
109 3 O 0.408732 12.9847 1.4948 -1.2 1 0.00103366 0.00300937 0.0014495 0.00491935 0.00198854 0.00907234 0.00145215 0.0212538 0.00213652 0.00841952 0.0015827 0.0290158 0.00329323 0.0160155 0.00318943 0.0298365 0.00319446 0.0167983 0.00372256 0.049009
110 3 O 7.03923 15.572 1.4948 -1.2 1 0.00168983 0.0034915 0.00140116 0.00447837 0.00197592 0.00829379 0.0022066 0.0217094 0.00209271 0.00795335 0.0014167 0.029101 0.00261818 0.0162767 0.00282081 0.0297112 0.00329733 0.0166279 0.00378354 0.0493967
111 3 O -0.248332 15.3041 0.196716 -1.2 1 0.00180253 0.00305261 0.00117682 0.00443239 0.00105296 0.00906855 0.00179509 0.0211998 0.00139006 0.00833446 0.00171926 0.0277582 0.00301389 0.0159815 0.00377331 0.0294502 0.0029257 0.015868 0.00332655 0.0488648
112 3 O -0.289436 15.3041 2.79288 -1.2 1 0.00313169 0.00365805 0.0014062 0.00451797 0.00251575 0.00871516 0.00194347 0.0219992 0.00171222 0.00866319 0.00192847 0.0272798 0.00300447 0.0163994 0.00366656 0.0293883 0.00441089 0.017599 0.00458606 0.0499824
113 1 Mg 6.59566 18.996 0 1.2 1 0.00109204 0.00315771 0.00146599 0.00422646 0.000875999 0.00871784 0.0010439 0.0218378 0.00108802 0.00779266 0.00143459 0.0278433 0.00213749 0.016223 0.00225265 0.0288468 0.00274747 0.0158014 0.00277759 0.0485197
114 1 Mg 3.85574 23.7037 1.4948 1.2 1 0.00210642 0.0027036 0.00116894 0.0042473 0.00146481 0.00764618 0.00118809 0.0228726 0.00202765 0.00741061 0.00215933 0.0269662 0.00237052 0.017371 0.00360037 0.0287649 0.00344309 0.0169448 0.00343254 0.0503457
115 2 Si 5.66125 21.0195 1.4948 2.4 1 0.0022554 0.00291245 0.000862245 0.00425394 0.00186629 0.0082277 0.00146284 0.0217441 0.00135336 0.00740865 0.00139548 0.0276616 0.00233735 0.0171359 0.00263637 0.028288 0.00344961 0.0157601 0.00370812 0.049796
116 3 O 5.72074 22.6328 1.4948 -1.2 1 0.00223139 0.00271802 0.00142074 0.00417338 0.00163273 0.00838137 0.00164818 0.0221184 0.00197898 0.00713417 0.00139665 0.0276375 0.0020416 0.0171321 0.00275248 0.0286783 0.00329453 0.016111 0.00354947 0.0497295
117 3 O 2.03867 20.0455 1.4948 -1.2 1 0.00232815 0.00352316 0.00102156 0.00438443 0.00166715 0.00789733 0.00172583 0.0220621 0.00202943 0.00747563 0.00141068 0.0281162 0.00198439 0.0169342 0.00267736 0.0292197 0.00347289 0.0160118 0.00363935 0.0500588
118 3 O 4.96004 20.3134 0.196716 -1.2 1 0.00171521 0.00257092 0.00127903 0.00410403 0.00115898 0.00848474 0.00108401 0.0217624 0.000875264 0.00743229 0.00159607 0.027411 0.00265728 0.0162666 0.00366921 0.0289308 0.00294962 0.0151887 0.00275897 0.0492167
119 1 Mg 6.55057 18.996 2.9896 1.2 1 0.00239369 0.00373578 0.0011577 0.0043603 0.00250764 0.00822429 0.00256922 0.0210048 0.00233449 0.00795602 0.00173615 0.0286439 0.00284016 0.0168158 0.00294802 0.0290961 0.00399861 0.0167986 0.00440132 0.0500885