ITEM: TIMESTEP
16500
ITEM: NUMBER OF ATOMS
10500
ITEM: BOX BOUNDS xy xz yz pp pp pp
0	15.2977	5.09925
0	118.725	0
0	89.688	0
ITEM: ATOMS id type element xu yu zu q Q_1 Q_2 Q_3 Q_4 Q_5 Q_6 Q_7 Q_8 Q_9 Q_10 Q_11 Q_12 Q_13 Q_14 Q_15 Q_16 Q_17 Q_18 Q_19 Q_20 Q_21
1 1 Mg 6.2404 -6.37941e-06 0 1.2 1 0.00126645 0.00427722 0.00105192 0.00494102 0.00105346 0.00566158 0.00209672 0.0160709 0.00204382 0.00585545 0.00202388 0.0219768 0.00254462 0.0134594 0.00341671 0.0206152 0.00401962 0.0142599 0.00398619 0.0405898
2 1 Mg 3.46349 4.70768 1.4948 1.2 1 0.000937588 0.00306065 0.00162949 0.00435501 0.00185411 0.00610058 0.00353473 0.0186256 0.00271555 0.00705834 0.00291306 0.0257696 0.00308492 0.0139591 0.00440449 0.0251903 0.00553884 0.0170641 0.00583078 0.0434241
3 2 Si 5.2885 2.02354 1.4948 2.4 1 0.000683535 0.00324112 0.00201722 0.00471785 0.00164242 0.00573204 0.00247391 0.0169845 0.00236349 0.0061208 0.0020177 0.0234414 0.00287533 0.0134162 0.00361774 0.0215027 0.0039356 0.0152942 0.00434472 0.0410748
4 3 O 5.33628 3.63678 1.4948 -1.2 1 0.000479501 0.00254815 0.00162946 0.00471867 0.00190901 0.00624949 0.00293047 0.0177592 0.00223689 0.00669781 0.0019485 0.0252503 0.00259407 0.0136922 0.00424085 0.023952 0.00516 0.0162756 0.00574377 0.0425718
5 3 O 1.67294 1.04952 1.4948 -1.2 1 0.00179998 0.00310864 0.0021442 0.00416883 0.00114616 0.00573298 0.00237648 0.0168721 0.00230103 0.00608384 0.00204729 0.022759 0.00264473 0.0128116 0.00334362 0.0216111 0.0046951 0.0155452 0.0047795 0.0400766
6 3 O 4.59532 1.31737 0.196716 -1.2 1 0.00114007 0.00296179 0.00186105 0.00448082 0.00170284 0.00571047 0.00233375 0.0171257 0.00265781 0.00626385 0.00185985 0.0224731 0.00332955 0.0128269 0.00423481 0.0215005 0.00412219 0.0148448 0.00443547 0.0407736
7 1 Mg 6.18956 -6.37941e-06 2.9896 1.2 1 0.00103806 0.0044435 0.00146835 0.0042083 0.00129958 0.00576416 0.00233194 0.0159912 0.00258824 0.00559954 0.00177283 0.0225207 0.0028164 0.0132588 0.00371209 0.0203833 0.00438446 0.0147177 0.00484946 0.0389632
8 3 O 4.55118 1.31737 2.79288 -1.2 1 0.00113674 0.00400218 0.00199439 0.00426102 0.00174433 0.00571976 0.00248796 0.0169913 0.00250171 0.00695398 0.00225145 0.0220013 0.00342831 0.0122664 0.00350057 0.0213222 0.00499649 0.0153865 0.00524219 0.0400654
9 1 Mg -1.20682 0.0413099 4.4844 1.2 1 0.000469224 0.0026699 0.00176326 0.00445384 0.00139649 0.00528013 0.00181681 0.016256 0.00213925 0.00588538 0.00194702 0.0227195 0.00297665 0.0114402 0.00377741 0.0204849 0.00538827 0.0156078 0.00508643 0.0384353
10 2 Si -3.0337 2.72544 4.4844 2.4 1 0.000492781 0.00317773 0.00164702 0.00467422 0.00235949 0.00612434 0.00324011 0.0166668 0.00314035 0.00617143 0.00224956 0.0243042 0.00322008 0.0127498 0.0042113 0.0223492 0.00563834 0.0174545 0.0062633 0.0394212
11 3 O -3.08099 1.11221 4.4844 -1.2 1 0.000666868 0.00343122 0.00178553 0.00421379 0.00151448 0.00531622 0.00224962 0.0159869 0.00284629 0.00568779 0.00216144 0.0227217 0.00316905 0.0111295 0.0036558 0.0212966 0.0052477 0.0160612 0.00553973 0.0381485
12 3 O 0.582463 3.69946 4.4844 -1.2 1 0.00182051 0.00428001 0.00221295 0.00450538 0.00250117 0.00672943 0.00354156 0.0172179 0.00338878 0.00664339 0.00308065 0.0249525 0.00428836 0.0130764 0.00463223 0.0241347 0.00709549 0.0183527 0.00816218 0.0415704
13 3 O -2.29524 3.43162 3.18632 -1.2 1 0.000759383 0.00264255 0.0023204 0.00443395 0.00210605 0.00598683 0.00285467 0.0177659 0.00314959 0.00682709 0.00253481 0.0246726 0.00324633 0.0129769 0.00477235 0.0242191 0.00613098 0.0177499 0.00670271 0.0417521
14 3 O -2.34216 3.43162 5.78248 -1.2 1 0.00169374 0.00351054 0.00117521 0.00488829 0.00253066 0.00596801 0.00327169 0.0169974 0.00307891 0.00750496 0.00256854 0.0236155 0.00436113 0.0124897 0.00430848 0.0232707 0.00657907 0.0190409 0.00748855 0.0400715
15 1 Mg 1.12778 2.37449 2.9896 1.2 1 0.00144794 0.00348035 0.00245625 0.00444958 0.00213552 0.0059153 0.00294692 0.0166934 0.00264997 0.0061932 0.00230797 0.0236416 0.00330273 0.013002 0.00352994 0.0217567 0.005136 0.0163734 0.00560703 0.0405463
16 1 Mg 3.92855 2.33318 4.4844 1.2 1 0.00111315 0.00409864 0.00155123 0.00418146 0.0017893 0.00589517 0.00344476 0.0166102 0.00311971 0.00627174 0.00287052 0.0231206 0.0037567 0.0133708 0.00523641 0.0217844 0.00645907 0.0170133 0.00705814 0.0401011
17 2 Si 2.09341 4.39804 4.4844 2.4 1 0.00126247 0.00397559 0.0020785 0.00432292 0.00272029 0.00610376 0.00367061 0.0180772 0.00355259 0.00686134 0.00322587 0.0250925 0.00446622 0.014244 0.00454136 0.0246853 0.00686786 0.0183958 0.00833852 0.0434818
18 3 O 2.09991 6.01128 4.4844 -1.2 1 0.00218248 0.00439631 0.00167904 0.00422198 0.0028013 0.00658517 0.00333582 0.0191836 0.00277544 0.00738793 0.00299537 0.0267878 0.00412359 0.0146705 0.00479021 0.0275863 0.00686832 0.0195114 0.00816851 0.0452528
19 3 O -4.52137 3.42402 4.4844 -1.2 1 0.000710848 0.00347695 0.00207651 0.00451422 0.00212844 0.00709135 0.00333776 0.0170572 0.00328468 0.00657673 0.00294968 0.0238833 0.00383691 0.0129149 0.00439382 0.0228825 0.00643138 0.0174571 0.00768505 0.0412438
20 3 O 2.80834 3.69187 3.18632 -1.2 1 0.000958965 0.00345712 0.00178915 0.00379529 0.00194763 0.00608763 0.00311883 0.0174676 0.0030306 0.00641916 0.00265883 0.024554 0.00340624 0.0131617 0.00480285 0.0238784 0.00586915 0.0170505 0.00650533 0.0425771
21 1 Mg 1.17857 2.37449 0 1.2 1 0.00224617 0.00326246 0.00219273 0.00410225 0.00136304 0.00556854 0.00243216 0.0171573 0.00234659 0.00672794 0.0027482 0.0232716 0.00292031 0.0133056 0.0035932 0.0215681 0.00433223 0.01499 0.00463721 0.0407944
22 3 O 2.76143 3.69187 5.78248 -1.2 1 0.00171417 0.00431431 0.00189187 0.0043529 0.00218225 0.00553364 0.00289416 0.0172355 0.00323189 0.00743604 0.00286602 0.02367 0.00463109 0.0133018 0.00552756 0.0232848 0.00667796 0.0183983 0.00780965 0.0411249
23 1 Mg -1.67381 2.41581 1.4948 1.2 1 0.00159573 0.00255113 0.00262519 0.00468325 0.0012311 0.00602094 0.00243302 0.0165645 0.00271933 0.00627728 0.00184761 0.0242589 0.00257883 0.0141523 0.00280285 0.0221719 0.00437577 0.0161298 0.00489469 0.0415187
24 2 Si 0.16286 0.350945 1.4948 2.4 1 0.0021281 0.00257043 0.00287833 0.00436436 0.00102077 0.00633844 0.00272104 0.0163163 0.00208231 0.00521955 0.00188612 0.0229043 0.00248832 0.013498 0.00301121 0.0206668 0.00462953 0.0147493 0.00431757 0.040151
25 3 O 0.15972 -1.26229 1.4948 -1.2 1 0.00201664 0.00262105 0.00314378 0.00438097 0.00179305 0.00602298 0.00254618 0.0164267 0.00216296 0.00554614 0.00245727 0.0228127 0.002625 0.0138449 0.00283132 0.0216132 0.00417585 0.0147419 0.00398485 0.0406791
26 3 O 6.77654 1.32496 1.4948 -1.2 1 0.00122362 0.00369778 0.00154439 0.0046605 0.00115783 0.00602479 0.002134 0.016726 0.00233034 0.00556079 0.00170097 0.0237969 0.0027562 0.0134615 0.00346426 0.0216893 0.0046638 0.0152373 0.00435811 0.0406814
27 3 O -0.508028 1.05712 0.196716 -1.2 1 0.00176793 0.00264487 0.00351997 0.00418813 0.00126336 0.00564 0.00244554 0.0169172 0.00167074 0.00666984 0.00255549 0.022114 0.00271083 0.0128551 0.00307774 0.0210583 0.00423747 0.0151395 0.0043282 0.04009
28 3 O -0.552171 1.05712 2.79288 -1.2 1 0.00111983 0.00218568 0.00297941 0.00440952 0.00116889 0.00608121 0.00234293 0.0161564 0.00242413 0.00615952 0.00177965 0.022938 0.00308178 0.0117681 0.00365926 0.0214671 0.00535574 0.0157749 0.00484448 0.0393434
29 1 Mg 6.31713 4.74899 0 1.2 1 0.000787086 0.00254007 0.00177311 0.00452724 0.00223339 0.00622954 0.00313974 0.0180949 0.00276714 0.00719594 0.00208888 0.0253442 0.00291746 0.0138843 0.00411111 0.0245825 0.00478293 0.016441 0.00599772 0.0426202
30 1 Mg 3.54847 9.45668 1.4948 1.2 1 0.00145821 0.00318999 0.00179725 0.00466357 0.00193515 0.00759882 0.00310222 0.0213327 0.00178084 0.00854343 0.0022475 0.0285321 0.00300387 0.0157018 0.00379878 0.0292018 0.00437129 0.0181661 0.00417368 0.0484453
31 2 Si 5.36879 6.77254 1.4948 2.4 1 0.00051817 0.00288153 0.00184212 0.00496813 0.00258227 0.00690638 0.00368513 0.0196416 0.00272525 0.00795187 0.00246684 0.027659 0.00312456 0.0155937 0.00421232 0.0269545 0.00471524 0.017293 0.0054079 0.0462411
32 3 O 5.41937 8.38578 1.4948 -1.2 1 0.000995729 0.00300225 0.00172834 0.00500499 0.00215292 0.00769167 0.00316433 0.0209299 0.00225943 0.00846678 0.00234379 0.0291017 0.00229771 0.0157942 0.00311932 0.0291666 0.00474813 0.017513 0.00514119 0.0477383
33 3 O 1.75158 5.79852 1.4948 -1.2 1 0.000965114 0.00330081 0.00157949 0.00410323 0.00237269 0.00598789 0.00323723 0.0194765 0.00276855 0.00743466 0.00262511 0.0279434 0.00294568 0.0156549 0.00353506 0.0268134 0.00550443 0.0176308 0.00569133 0.0453566
34 3 O 4.67421 6.06637 0.196716 -1.2 1 0.00066131 0.00289644 0.00162612 0.00471296 0.00198149 0.00686893 0.00287279 0.0197651 0.00246133 0.0082741 0.00205288 0.0263163 0.00352766 0.0145535 0.00424754 0.026622 0.0048181 0.0167761 0.00565018 0.0448228
35 1 Mg 6.26654 4.74899 2.9896 1.2 1 0.00106912 0.00286962 0.00199265 0.00489425 0.0024476 0.006591 0.00375278 0.0178632 0.00381582 0.00714613 0.00226817 0.0261151 0.00385254 0.0146573 0.00507964 0.0248969 0.00584755 0.0174926 0.00705442 0.0432425
36 3 O 4.63043 6.06637 2.79288 -1.2 1 0.00158253 0.00334078 0.00179882 0.00490991 0.00218915 0.00681503 0.00347312 0.0193991 0.0033902 0.0079677 0.00243085 0.0261921 0.00391755 0.0148804 0.004551 0.0272975 0.00594255 0.0181505 0.00723999 0.0451683
37 1 Mg -1.12976 4.79031 4.4844 1.2 1 0.00189777 0.00383775 0.00155446 0.00468933 0.00215153 0.00621785 0.00327577 0.0178105 0.00328403 0.00712001 0.00294384 0.0261005 0.0040623 0.0145319 0.00473484 0.0257967 0.00760996 0.0191187 0.00811128 0.0440023
38 2 Si -2.9517 7.47444 4.4844 2.4 1 0.00221746 0.00384075 0.00119927 0.00518416 0.0027792 0.00661955 0.00390893 0.020257 0.00330627 0.00812163 0.00295645 0.027627 0.00456789 0.0162112 0.00547588 0.0282065 0.00690817 0.0193938 0.00831365 0.0473676
39 3 O -3.00198 5.86121 4.4844 -1.2 1 0.00184935 0.00396428 0.00109546 0.00496166 0.00297028 0.00645339 0.00411555 0.0188041 0.00353351 0.00789248 0.0026364 0.0260142 0.00431448 0.0142905 0.00500315 0.0269229 0.00695149 0.0195781 0.00832752 0.045168
40 3 O 0.666315 8.44846 4.4844 -1.2 1 0.00267032 0.00501098 0.00129706 0.00501441 0.00278251 0.00754751 0.00288443 0.0211406 0.00312737 0.00811126 0.00311402 0.0283619 0.00440113 0.0160993 0.00461495 0.0295276 0.00653688 0.019954 0.00789048 0.0485593
41 3 O -2.21213 8.18062 3.18632 -1.2 1 0.00189567 0.00403419 0.00141772 0.00455772 0.00243768 0.00634013 0.00298996 0.0206986 0.00292693 0.00827267 0.00275793 0.0277621 0.00430102 0.0161166 0.00507223 0.0290665 0.00591924 0.0188928 0.00681114 0.048284
42 3 O -2.25864 8.18062 5.78248 -1.2 1 0.00296764 0.00451916 0.00146788 0.00493137 0.00294657 0.00635171 0.00316588 0.0205305 0.00245255 0.00890537 0.00344701 0.0269203 0.00447454 0.016768 0.00566181 0.0294694 0.00715067 0.0208954 0.00826293 0.0488128
43 1 Mg 1.20893 7.12349 2.9896 1.2 1 0.00145209 0.00383072 0.00163253 0.00439307 0.00270055 0.00681662 0.00369418 0.0195515 0.00281582 0.00824129 0.00262351 0.028066 0.00343485 0.0159287 0.00389709 0.0275748 0.0056579 0.0184084 0.00639577 0.0466156
44 1 Mg 4.00982 7.08218 4.4844 1.2 1 0.00189455 0.00410312 0.00153504 0.00484398 0.00245268 0.00645273 0.00380076 0.0198792 0.00338862 0.0078 0.00322911 0.0274464 0.00436538 0.0169703 0.00569152 0.0284986 0.00714372 0.0194567 0.00856691 0.0469473
45 2 Si 2.17861 9.14704 4.4844 2.4 1 0.00266596 0.00464032 0.00151357 0.00493485 0.00283408 0.00749003 0.00367741 0.0210897 0.00294088 0.00837025 0.00313289 0.0282227 0.00463075 0.0168005 0.00470047 0.0298836 0.00615606 0.0199184 0.00716416 0.050033
46 3 O 2.18828 10.7603 4.4844 -1.2 1 0.00333537 0.00460475 0.00197055 0.00476787 0.00269093 0.00724593 0.00308815 0.0207959 0.00259525 0.00838745 0.0024327 0.0287868 0.00397561 0.0159121 0.00456832 0.0309938 0.0062447 0.0199712 0.00691914 0.0506534
47 3 O -4.43805 8.17302 4.4844 -1.2 1 0.00183386 0.00425929 0.00149944 0.00515368 0.00242957 0.00769539 0.0033174 0.0206188 0.0032545 0.00859601 0.00293203 0.0284261 0.00468728 0.0161873 0.00484552 0.0294407 0.00684374 0.0198161 0.00877637 0.0478551
48 3 O 2.89193 8.44087 3.18632 -1.2 1 0.00239518 0.00382908 0.00169861 0.00446845 0.00235791 0.00688279 0.00338722 0.0203817 0.00277881 0.00864027 0.00284412 0.0277268 0.00375886 0.0161481 0.00468685 0.0291984 0.00596373 0.0187655 0.0061141 0.0484005
49 1 Mg 1.25915 7.12349 0 1.2 1 0.000791872 0.00287057 0.00143178 0.0043176 0.00180914 0.00714444 0.0028123 0.0202598 0.00271853 0.00833923 0.00245285 0.0277046 0.00341587 0.0145855 0.00341919 0.0276075 0.00465896 0.0174412 0.00460903 0.0459046
50 3 O 2.84547 8.44087 5.78248 -1.2 1 0.0029326 0.00491283 0.00151651 0.00480048 0.00253886 0.00676128 0.00351549 0.0207856 0.00297045 0.00908502 0.0034304 0.0270788 0.00551439 0.0166856 0.00551164 0.0299512 0.00650109 0.0213775 0.00791517 0.0490713
51 1 Mg -1.59284 7.16481 1.4948 1.2 1 0.000892493 0.00317722 0.00132854 0.00448582 0.00173628 0.00636239 0.00274382 0.019901 0.00294947 0.00801535 0.0016449 0.0277158 0.00346016 0.0156036 0.00376308 0.0272809 0.00468302 0.0177675 0.0056639 0.046263
52 2 Si 0.240329 5.09994 1.4948 2.4 1 0.000880232 0.00347544 0.00184004 0.0040811 0.00179828 0.00677103 0.00303926 0.0189838 0.00302932 0.00745792 0.0022628 0.0260991 0.0028716 0.0146801 0.00409708 0.0247756 0.00524037 0.0169777 0.00540614 0.0444183
53 3 O 0.234538 3.48671 1.4948 -1.2 1 0.00153911 0.00346972 0.00257525 0.00424958 0.00174083 0.00647402 0.00248349 0.0178893 0.00331408 0.00698947 0.00234715 0.0246065 0.00327608 0.0136623 0.00393183 0.0239369 0.00567165 0.0160976 0.00552568 0.042226
54 3 O 6.85564 6.07396 1.4948 -1.2 1 0.000575654 0.00250117 0.00210567 0.00475253 0.0023309 0.00618401 0.00312055 0.0199119 0.0030785 0.00763931 0.00213596 0.0277335 0.00340578 0.0149281 0.00468381 0.026877 0.00564004 0.0176638 0.00644151 0.0450693
55 3 O -0.429565 5.80612 0.196716 -1.2 1 0.000829564 0.00306516 0.00211606 0.00408303 0.00184282 0.00709859 0.0024705 0.0196167 0.00274372 0.00855404 0.00239472 0.0258246 0.00273575 0.0143767 0.00384048 0.0259245 0.00500479 0.0168564 0.0058103 0.0448838
56 3 O -0.473377 5.80612 2.79288 -1.2 1 0.00164466 0.00335777 0.00160501 0.00446227 0.00224554 0.00683381 0.00302008 0.0191981 0.00314912 0.00807774 0.00284038 0.0259331 0.00367838 0.0147205 0.00451929 0.02634 0.00640696 0.018419 0.00676136 0.0453989
57 1 Mg 6.40169 9.49799 0 1.2 1 0.000374684 0.00362655 0.00164876 0.00475984 0.00149621 0.00824094 0.00206939 0.0211416 0.00167886 0.00895272 0.00175268 0.0289363 0.00239241 0.014904 0.0027516 0.0297979 0.00374825 0.0179468 0.00423979 0.0473624
58 1 Mg 3.64209 14.2057 1.4948 1.2 1 0.001983 0.0031933 0.00156641 0.0047645 0.00164008 0.00881056 0.00161747 0.021739 0.001712 0.00879292 0.00225528 0.0284966 0.00253102 0.0161678 0.0032269 0.0296111 0.00364803 0.0170005 0.00364323 0.0494227
59 2 Si 5.45748 11.5215 1.4948 2.4 1 0.00190194 0.00315268 0.00167105 0.00492365 0.00168558 0.00823466 0.00223754 0.0211547 0.00149842 0.00835328 0.0018548 0.028999 0.00264075 0.0162473 0.00331868 0.0294015 0.00422778 0.017025 0.00396686 0.0490096
60 3 O 5.51101 13.1348 1.4948 -1.2 1 0.00203757 0.00322215 0.00171601 0.00500629 0.00155626 0.00908446 0.00177137 0.0212547 0.00177943 0.00873071 0.00169787 0.0295414 0.00219677 0.0161573 0.00294159 0.0299913 0.00390848 0.0167341 0.00385617 0.0490462
61 3 O 1.83851 10.5475 1.4948 -1.2 1 0.00135911 0.00346934 0.00167724 0.00497531 0.00170595 0.00766012 0.00239672 0.0215954 0.00180831 0.00854887 0.00224005 0.0294803 0.00255288 0.0159195 0.00334658 0.0299431 0.00420737 0.0179122 0.00365379 0.0490829
62 3 O 4.7611 10.8154 0.196716 -1.2 1 0.000779053 0.00280662 0.00198898 0.00492121 0.00160065 0.00850712 0.00213753 0.0214434 0.00150343 0.00878291 0.00205933 0.0284213 0.00294691 0.0156553 0.00389383 0.0294916 0.00382041 0.0172089 0.00378222 0.0483575
63 1 Mg 6.35203 9.49799 2.9896 1.2 1 0.00147947 0.00378621 0.00153188 0.00478362 0.00250663 0.00752825 0.00343198 0.0204501 0.00318431 0.00872187 0.00210979 0.0292679 0.00384652 0.016334 0.00358939 0.0294115 0.00454356 0.018552 0.00591471 0.0484369
64 3 O 4.71833 10.8154 2.79288 -1.2 1 0.00278256 0.00352757 0.00161696 0.00462397 0.00210096 0.00816498 0.00240215 0.0213491 0.00205605 0.00915271 0.00225895 0.0283988 0.00354491 0.0160596 0.00420991 0.0303327 0.00549812 0.0184946 0.00573864 0.0496622
65 1 Mg -1.0438 9.53931 4.4844 1.2 1 0.00304174 0.00472759 0.00159343 0.00470247 0.00300064 0.00679494 0.00281297 0.0208126 0.00277925 0.00855857 0.00262845 0.028563 0.00401244 0.0169469 0.00462695 0.0300113 0.00656661 0.0198768 0.00732578 0.0498401
66 2 Si -2.8604 12.2234 4.4844 2.4 1 0.00331794 0.00437865 0.00178128 0.00485031 0.00281482 0.00787787 0.00315782 0.0217818 0.00290476 0.00871303 0.00241845 0.0284801 0.00425458 0.0167534 0.00462632 0.030267 0.00592637 0.0196198 0.00684922 0.051391
67 3 O -2.91391 10.6102 4.4844 -1.2 1 0.00323514 0.00456866 0.00173453 0.00468601 0.00276841 0.00715911 0.00337598 0.0205768 0.00273137 0.00814377 0.00214376 0.0286407 0.00425758 0.0160823 0.00434141 0.0308211 0.00614142 0.0198723 0.00716518 0.050259
68 3 O 0.7596 13.1975 4.4844 -1.2 1 0.00347672 0.00434595 0.00207223 0.00511023 0.0028902 0.00872897 0.00265085 0.0221642 0.00282722 0.0085127 0.0029416 0.028878 0.00400652 0.0164949 0.0045522 0.0305685 0.00616929 0.0196736 0.00691171 0.0512289
69 3 O -2.12001 12.9296 3.18632 -1.2 1 0.00339691 0.00383749 0.00176693 0.00452766 0.00253003 0.00770032 0.00225683 0.0216976 0.00238216 0.00862032 0.00237753 0.0281009 0.00361046 0.0165115 0.00478658 0.0306502 0.00526744 0.0186965 0.00572575 0.0506355
70 3 O -2.16532 12.9296 5.78248 -1.2 1 0.00377827 0.00459863 0.00185739 0.00507299 0.00281825 0.00730704 0.00252438 0.0220526 0.00254105 0.0087723 0.00299219 0.0278048 0.00422138 0.0172141 0.00504393 0.031601 0.00635186 0.0215505 0.00702863 0.0528993
71 1 Mg 1.29891 11.8725 2.9896 1.2 1 0.00255166 0.00364044 0.00189908 0.00499145 0.00232452 0.00803542 0.00289157 0.0210803 0.00260114 0.00873321 0.00215098 0.0292437 0.00343826 0.0163531 0.00354047 0.0301757 0.00470409 0.0179577 0.00508781 0.0495635
72 1 Mg 4.10033 11.8312 4.4844 1.2 1 0.00346147 0.00411598 0.00203156 0.00457297 0.00250464 0.00742155 0.00292258 0.0213553 0.0025913 0.00858995 0.00279501 0.0290346 0.00380204 0.0175054 0.00512383 0.0305546 0.00672249 0.0196999 0.00673981 0.0508622
73 2 Si 2.27333 13.896 4.4844 2.4 1 0.00351747 0.00383565 0.00194785 0.00520366 0.00287928 0.00817915 0.00323602 0.0218138 0.00250169 0.00834495 0.00287718 0.0282793 0.00377826 0.0168518 0.00454299 0.030444 0.00566358 0.0191453 0.00646501 0.0521532
74 3 O 2.28634 15.5093 4.4844 -1.2 1 0.00372797 0.00420305 0.00193357 0.00480547 0.0029792 0.00753417 0.00293253 0.0211113 0.00259414 0.0078035 0.00219896 0.0289057 0.00347243 0.016132 0.00406156 0.0309181 0.00580012 0.0190241 0.00655048 0.0517947
75 3 O -4.34533 12.922 4.4844 -1.2 1 0.00320151 0.00436621 0.001946 0.00499705 0.00281832 0.00865824 0.00308097 0.0218335 0.00286647 0.00858425 0.0027229 0.0290398 0.00407243 0.0165166 0.00502562 0.0307823 0.00652944 0.0199534 0.00759132 0.0512672
76 3 O 2.98455 13.1899 3.18632 -1.2 1 0.00309352 0.00381342 0.00175234 0.00466069 0.0024395 0.00798307 0.00226966 0.0218085 0.00222915 0.00869486 0.00238456 0.0282382 0.00350512 0.0161555 0.00440053 0.0303609 0.00562546 0.0185066 0.00574189 0.0503247
77 1 Mg 1.34779 11.8725 0 1.2 1 0.000860231 0.00282011 0.00127522 0.0049984 0.0014895 0.00877532 0.00150775 0.0212963 0.00120746 0.00914957 0.00201835 0.0291837 0.00283362 0.0149504 0.00295852 0.0300818 0.00325407 0.017179 0.00345488 0.0480353
78 3 O 2.93934 13.1899 5.78248 -1.2 1 0.00373293 0.00466643 0.00208711 0.00517248 0.002755 0.00734005 0.00275818 0.0219946 0.00268215 0.00865812 0.00316825 0.0276593 0.0043272 0.0169397 0.00499759 0.0316101 0.00629857 0.0217174 0.00693891 0.0529781
79 1 Mg -1.50344 11.9138 1.4948 1.2 1 0.00142466 0.00352125 0.00140166 0.00469783 0.00130594 0.00821936 0.00184811 0.0216688 0.00235715 0.00867982 0.00152052 0.0288551 0.00353256 0.0162013 0.00345719 0.0298617 0.00361929 0.0175483 0.00393202 0.0488953
80 2 Si 0.326006 9.84894 1.4948 2.4 1 0.000912716 0.00341447 0.00135057 0.00503956 0.00179207 0.00802427 0.00217865 0.0210173 0.00209781 0.00856549 0.00164164 0.0287687 0.00295877 0.0158102 0.00362739 0.0290714 0.00383193 0.0177864 0.00373805 0.0483275
81 3 O 0.317364 8.23571 1.4948 -1.2 1 0.00126586 0.00352407 0.00104712 0.00445679 0.00183229 0.00761599 0.00211613 0.0202572 0.00250893 0.00817237 0.00174051 0.0287953 0.00349483 0.0159465 0.00389158 0.0286669 0.00458086 0.0177736 0.00447046 0.0473085
82 3 O 6.94307 10.823 1.4948 -1.2 1 0.00158776 0.00359855 0.00147406 0.00462639 0.00182112 0.00772039 0.00268189 0.0217901 0.00238616 0.00851278 0.00160142 0.0296127 0.0029915 0.0159656 0.0033719 0.0300262 0.0039293 0.0180169 0.00444566 0.0489207
83 3 O -0.343122 10.5551 0.196716 -1.2 1 0.000757107 0.00311905 0.00122258 0.00481238 0.00148617 0.0084189 0.00189753 0.0214075 0.0016506 0.00908534 0.00200971 0.0283029 0.00339189 0.0154608 0.00416305 0.0294324 0.00365811 0.0173419 0.00368604 0.0481628
84 3 O -0.385966 10.5551 2.79288 -1.2 1 0.00280108 0.00388005 0.00125701 0.00460727 0.00246953 0.00795798 0.00216977 0.0215112 0.00209125 0.00928629 0.00237332 0.0279032 0.00386838 0.0161195 0.00426989 0.0302368 0.00519224 0.0186703 0.00529702 0.0496138
85 1 Mg 6.49448 14.247 0 1.2 1 0.000870226 0.00333743 0.00160233 0.00489302 0.0012373 0.00919787 0.00123995 0.0213229 0.00118868 0.00863553 0.00149705 0.0290812 0.00164203 0.015454 0.00248971 0.0300509 0.00321784 0.0164735 0.00296292 0.0480839
86 1 Mg 3.74457 18.9547 1.4948 1.2 1 0.00232733 0.00303506 0.0013482 0.00398325 0.00182554 0.00851209 0.00142755 0.0222656 0.00183942 0.00814643 0.00220054 0.0279142 0.00224087 0.0164381 0.00334055 0.0289163 0.00350263 0.0165132 0.00340274 0.0500023
87 2 Si 5.55495 16.2705 1.4948 2.4 1 0.00227838 0.00287046 0.00139573 0.00465421 0.00189823 0.00883767 0.00141072 0.0214754 0.00131958 0.00804319 0.00138242 0.0288735 0.00228953 0.0162539 0.00274776 0.0289913 0.00382689 0.0158945 0.00372787 0.0495212
88 3 O 5.6115 17.8838 1.4948 -1.2 1 0.00245716 0.00297561 0.00155006 0.00425326 0.00181271 0.00911429 0.00155747 0.0217503 0.00179719 0.00790573 0.00149979 0.0289733 0.00193294 0.0164759 0.00271851 0.0290125 0.00336173 0.0158621 0.00360448 0.0496248
89 3 O 1.93416 15.2965 1.4948 -1.2 1 0.00212937 0.00301847 0.00144721 0.00467761 0.00184102 0.00831481 0.00187559 0.0219779 0.00188145 0.00821839 0.00152432 0.0292552 0.00193719 0.0161185 0.00292323 0.0298271 0.00379986 0.0166435 0.00348958 0.0497773
90 3 O 4.85636 15.5644 0.196716 -1.2 1 0.00157848 0.00259516 0.00137973 0.00475185 0.0014099 0.00914138 0.00134332 0.0215237 0.00106675 0.00834552 0.00166844 0.0283447 0.00258198 0.0160623 0.00354118 0.0293465 0.00326603 0.0158087 0.00303148 0.0489647
91 1 Mg 6.44662 14.247 2.9896 1.2 1 0.00223053 0.00356297 0.00160247 0.00479847 0.00261219 0.00854818 0.00291327 0.0208257 0.00264445 0.00867159 0.00179056 0.0294675 0.00304602 0.0164325 0.00312946 0.0298401 0.00419939 0.0176592 0.00503293 0.0498197
92 3 O 4.81537 15.5644 2.79288 -1.2 1 0.00309666 0.00319654 0.00147289 0.00448429 0.00233297 0.00880322 0.00181148 0.021943 0.00167863 0.0086763 0.00190168 0.0282525 0.0027974 0.0165133 0.00363323 0.0297237 0.00486732 0.0173211 0.00507284 0.0504729
93 1 Mg -0.948271 14.2883 4.4844 1.2 1 0.00363806 0.00401403 0.00169095 0.00463217 0.00285724 0.0079592 0.00267086 0.0216222 0.00264847 0.00843041 0.00276666 0.0287719 0.00348805 0.0170221 0.00494256 0.0307666 0.00607846 0.0192723 0.00680616 0.0516892
94 2 Si -2.75928 16.9724 4.4844 2.4 1 0.00355011 0.00387267 0.00181995 0.00467505 0.00292665 0.00808703 0.00284572 0.0219755 0.00263239 0.00788467 0.00251652 0.0283046 0.00348722 0.0171662 0.00444689 0.0299264 0.00518752 0.0185673 0.00629702 0.0527216
95 3 O -2.81617 15.3592 4.4844 -1.2 1 0.00387321 0.00406551 0.0019197 0.00468653 0.00302303 0.00784437 0.00299648 0.0211566 0.00262229 0.00783467 0.00238368 0.0289583 0.0037662 0.016263 0.00420679 0.0307337 0.00611496 0.0189115 0.0069005 0.0517421
96 3 O 0.862762 17.9465 4.4844 -1.2 1 0.00335748 0.00412192 0.00164871 0.00468238 0.00310721 0.00854453 0.00277145 0.0224935 0.00262282 0.00793807 0.00260287 0.0289094 0.0036325 0.0170301 0.0043833 0.0296059 0.00566834 0.018778 0.00627948 0.052251
97 3 O -2.0185 17.6786 3.18632 -1.2 1 0.00327097 0.00342582 0.00172806 0.00412021 0.00268803 0.00763465 0.00237081 0.0222106 0.00227603 0.00794707 0.00202855 0.0279532 0.00334314 0.0167455 0.00427069 0.0299565 0.00485269 0.0175729 0.0053693 0.0515264
98 3 O -2.06164 17.6786 5.78248 -1.2 1 0.00405937 0.00430917 0.0017701 0.00477272 0.00288979 0.00712143 0.00257013 0.0224212 0.00243859 0.00801661 0.00287393 0.0279422 0.00340987 0.0174023 0.00519814 0.0312374 0.00590141 0.0207737 0.00628373 0.0542158
99 1 Mg 1.39817 16.6215 2.9896 1.2 1 0.00292594 0.00320173 0.00156598 0.00449334 0.0025832 0.00844034 0.00260947 0.0213717 0.0026481 0.00825398 0.00209488 0.0291214 0.00273118 0.0166952 0.00341843 0.0294982 0.00426717 0.0167591 0.00456773 0.0502587
100 1 Mg 4.20062 16.5802 4.4844 1.2 1 0.00351197 0.00386463 0.00197424 0.00468781 0.0027749 0.00778289 0.00246655 0.0217242 0.00296775 0.00781751 0.00276977 0.0288891 0.00327709 0.01764 0.00530861 0.030191 0.00622065 0.0186581 0.00638577 0.0521951
101 2 Si 2.37796 18.645 4.4844 2.4 1 0.00312141 0.00348973 0.0014928 0.00455137 0.00309797 0.00798421 0.00294895 0.022557 0.00263775 0.00805905 0.00260789 0.0282331 0.00346463 0.0172547 0.004602 0.0294521 0.0052709 0.0184532 0.0059374 0.0531199
102 3 O 2.39434 20.2583 4.4844 -1.2 1 0.00316474 0.00374159 0.00155281 0.00450586 0.0030915 0.00710159 0.00286969 0.0216191 0.00275535 0.00745819 0.00193133 0.0288871 0.00319175 0.0168421 0.00414842 0.0299561 0.00569634 0.0184159 0.00651595 0.0527718
103 3 O -4.24274 17.671 4.4844 -1.2 1 0.00311295 0.00414351 0.00194699 0.00463877 0.00289264 0.0087712 0.00289018 0.0223585 0.00291764 0.00802586 0.00247154 0.0288325 0.00347249 0.0168007 0.00499976 0.0298428 0.0058983 0.0190166 0.00667251 0.0524135
104 3 O 3.08659 17.9389 3.18632 -1.2 1 0.00312798 0.00314011 0.00170402 0.00404884 0.00280534 0.0079385 0.00219769 0.0222389 0.00236899 0.00807795 0.00217773 0.0278784 0.00306887 0.0166341 0.00428075 0.0294811 0.00534157 0.0175546 0.00564133 0.0513774
105 1 Mg 1.44478 16.6215 0 1.2 1 0.00205183 0.00242185 0.00110186 0.00442818 0.0014091 0.00890958 0.00106567 0.021618 0.00138588 0.00831588 0.00153797 0.0290241 0.00230536 0.0157125 0.00238833 0.0292329 0.00290265 0.0160429 0.00307559 0.0487565
106 3 O 3.0436 17.9389 5.78248 -1.2 1 0.00348556 0.00424764 0.00174464 0.00513851 0.00289808 0.00727895 0.00246594 0.0222642 0.00238392 0.00816081 0.00281524 0.02817 0.00384 0.0171216 0.00480376 0.030916 0.00594594 0.0206569 0.00645636 0.0543729
107 1 Mg -1.40524 16.6628 1.4948 1.2 1 0.00193044 0.00301702 0.00129476 0.00450542 0.00167752 0.00862849 0.00180377 0.0222427 0.00198848 0.00836424 0.00172825 0.028522 0.00295608 0.0166664 0.00289468 0.0293092 0.00314912 0.0165038 0.00340783 0.0495442
108 2 Si 0.420358 14.5979 1.4948 2.4 1 0.00187126 0.00286635 0.00146081 0.00494897 0.00195224 0.00905494 0.00179984 0.0215333 0.00165349 0.00838696 0.00142832 0.0286312 0.00280703 0.0165309 0.00346215 0.028796 0.00348495 0.0164062 0.0035268 0.049245
109 3 O 0.408732 12.9847 1.4948 -1.2 1 0.00186306 0.00297778 0.00135613 0.00495319 0.00176349 0.00904071 0.00154882 0.0211959 0.00221763 0.00858827 0.00151228 0.0292427 0.00303024 0.0160719 0.00313105 0.0299019 0.00328754 0.0168787 0.00385948 0.0489974
110 3 O 7.03923 15.572 1.4948 -1.2 1 0.00192095 0.00313449 0.00143662 0.00466417 0.00208221 0.00834357 0.00224451 0.0217653 0.00224989 0.00813526 0.00165788 0.0294765 0.00260739 0.0163794 0.00284169 0.0297253 0.00359098 0.0167172 0.00397573 0.049665
111 3 O -0.248332 15.3041 0.196716 -1.2 1 0.00162759 0.00252209 0.00123932 0.00468354 0.00114767 0.00890387 0.00181598 0.0214285 0.00141491 0.0084569 0.00170311 0.028379 0.00294093 0.0159022 0.00371036 0.0292256 0.00308122 0.0159603 0.00315969 0.0487984
112 3 O -0.289436 15.3041 2.79288 -1.2 1 0.00328628 0.0035156 0.00133831 0.00447303 0.00248199 0.00867593 0.00196104 0.021915 0.00187001 0.00878716 0.00200746 0.0277101 0.00290657 0.0166188 0.00360652 0.0297833 0.00454008 0.0177009 0.00484786 0.0503649
113 1 Mg 6.59566 18.996 0 1.2 1 0.00140509 0.00282276 0.00157373 0.0042646 0.00102644 0.00855822 0.00105626 0.0221291 0.00119015 0.00790786 0.00139634 0.0284682 0.00200619 0.0163028 0.00220171 0.028766 0.00277066 0.0157784 0.0028183 0.0488098
114 1 Mg 3.85574 23.7037 1.4948 1.2 1 0.00202982 0.00256211 0.00122296 0.00422471 0.00171282 0.00733741 0.00134243 0.0231542 0.00182174 0.00755655 0.00215723 0.0275378 0.00234068 0.0174765 0.00372344 0.0286485 0.00335609 0.0171002 0.00352632 0.0508212
115 2 Si 5.66125 21.0195 1.4948 2.4 1 0.00213562 0.00248804 0.00108699 0.00405003 0.0019034 0.00810163 0.00136731 0.0219734 0.00131551 0.00754468 0.00151123 0.0282746 0.00236019 0.0173391 0.00266602 0.0281584 0.00368038 0.0158872 0.00397497 0.0503712
116 3 O 5.72074 22.6328 1.4948 -1.2 1 0.00208997 0.00243669 0.00156992 0.00411598 0.00178783 0.00802904 0.0015495 0.022504 0.00180927 0.00733756 0.00133086 0.028207 0.00202337 0.0173051 0.00278981 0.0284336 0.00332559 0.0163659 0.00357773 0.0503921
117 3 O 2.03867 20.0455 1.4948 -1.2 1 0.00202569 0.00290449 0.00117953 0.00421724 0.00183813 0.00777514 0.00200743 0.0223807 0.00218526 0.00754365 0.00157106 0.0287572 0.00209101 0.017239 0.00244021 0.0289158 0.00377688 0.0161607 0.00364231 0.0505314
118 3 O 4.96004 20.3134 0.196716 -1.2 1 0.00211861 0.00209816 0.00141889 0.00408991 0.00123841 0.00826862 0.0010315 0.0218918 0.001068 0.00756889 0.00158805 0.027957 0.00261289 0.0166383 0.00371441 0.028727 0.00302542 0.0152082 0.00285868 0.0495778
119 1 Mg 6.55057 18.996 2.9896 1.2 1 0.00243566 0.00352384 0.0014321 0.00416213 0.0026217 0.00824704 0.00288025 0.0214038 0.00255273 0.00800975 0.00174469 0.029268 0.00283255 0.0170738 0.00311789 0.0287669 0.00399095 0.0171053 0.00483582 0.0507623