ITEM: TIMESTEP
57500
ITEM: NUMBER OF ATOMS
10500
ITEM: BOX BOUNDS xy xz yz pp pp pp
0	15.2977	5.09925
0	118.725	0
0	89.688	0
ITEM: ATOMS id type element xu yu zu q Q_1 Q_2 Q_3 Q_4 Q_5 Q_6 Q_7 Q_8 Q_9 Q_10 Q_11 Q_12 Q_13 Q_14 Q_15 Q_16 Q_17 Q_18 Q_19 Q_20 Q_21
1 1 Mg 6.2404 -6.37941e-06 0 1.2 1 0.000923783 0.00373554 0.00141332 0.00450041 0.00132234 0.00555478 0.00191689 0.0163349 0.00201747 0.00585547 0.00198684 0.0218775 0.00244807 0.0132976 0.00321709 0.020505 0.00415835 0.0140256 0.00398422 0.0402027
2 1 Mg 3.46349 4.70768 1.4948 1.2 1 0.000992514 0.00306285 0.00116116 0.00418339 0.00184889 0.00596815 0.00344119 0.0187956 0.00289291 0.00711285 0.00273931 0.0256183 0.00301331 0.0136365 0.00417258 0.0250639 0.0054542 0.0170587 0.0058943 0.0437323
3 2 Si 5.2885 2.02354 1.4948 2.4 1 0.000598553 0.0027897 0.00191772 0.00445352 0.00175294 0.00571156 0.00244446 0.0171957 0.00241678 0.00625969 0.00211642 0.023283 0.00281157 0.0133593 0.00341917 0.0215146 0.0039414 0.0152519 0.00452809 0.0411343
4 3 O 5.33628 3.63678 1.4948 -1.2 1 0.000975869 0.00247843 0.0014002 0.00474286 0.00200179 0.00613335 0.00279106 0.0178451 0.00244397 0.00683763 0.00202125 0.0251069 0.00257961 0.0134972 0.00421912 0.0239318 0.00505542 0.0162402 0.00587048 0.042831
5 3 O 1.67294 1.04952 1.4948 -1.2 1 0.00133023 0.00303983 0.00193713 0.00409697 0.00130808 0.00563461 0.00234707 0.0170243 0.0023197 0.00603542 0.00210856 0.022734 0.00267156 0.0126628 0.00317284 0.0218124 0.00482447 0.0155501 0.00497975 0.0401252
6 3 O 4.59532 1.31737 0.196716 -1.2 1 0.000599462 0.00250166 0.00208788 0.00409805 0.00195262 0.00554929 0.00230848 0.0172127 0.00263495 0.00636993 0.00200015 0.0224325 0.00326 0.0126867 0.00415952 0.0213993 0.00413245 0.014784 0.00451815 0.0407877
7 1 Mg 6.18956 -6.37941e-06 2.9896 1.2 1 0.000750632 0.00392255 0.00128366 0.00413596 0.00145163 0.00569287 0.00225136 0.0161565 0.00259421 0.00552806 0.00198967 0.0222057 0.00291962 0.0132238 0.00361393 0.0203294 0.00457924 0.0146647 0.00513408 0.0384822
8 3 O 4.55118 1.31737 2.79288 -1.2 1 0.000977759 0.00357907 0.00168673 0.00406043 0.00186603 0.00567497 0.00239674 0.0169583 0.00240592 0.00689378 0.00223534 0.0216249 0.00325556 0.01212 0.00297342 0.0215228 0.00467438 0.0151773 0.00543342 0.0397726
9 1 Mg -1.20682 0.0413099 4.4844 1.2 1 0.000512824 0.00272335 0.00156146 0.00447977 0.00154556 0.00522856 0.00185237 0.0161842 0.00212121 0.00592815 0.00224271 0.0224136 0.00347955 0.0115753 0.00358292 0.0205154 0.00525654 0.015701 0.00570988 0.0383393
10 2 Si -3.0337 2.72544 4.4844 2.4 1 0.000402709 0.00294706 0.00157174 0.00475069 0.00217714 0.00600406 0.00318495 0.0168697 0.00311471 0.00662398 0.00244821 0.0236267 0.00382239 0.012714 0.00446963 0.022091 0.00522778 0.0176903 0.00632249 0.03968
11 3 O -3.08099 1.11221 4.4844 -1.2 1 0.00059241 0.00343344 0.0016114 0.00421163 0.00133412 0.00520807 0.00214323 0.0161233 0.00264126 0.00570177 0.0023509 0.0219663 0.0037369 0.0111987 0.00397466 0.0210384 0.00492956 0.016331 0.0059236 0.0380293
12 3 O 0.582463 3.69946 4.4844 -1.2 1 0.0019228 0.00449421 0.00180221 0.00426209 0.00244725 0.00641171 0.00361118 0.0173283 0.00340593 0.00688878 0.00320541 0.0244511 0.00444655 0.0125852 0.00471269 0.0241778 0.00660956 0.0186231 0.00790491 0.0415009
13 3 O -2.29524 3.43162 3.18632 -1.2 1 0.000845055 0.00250434 0.00238504 0.00444717 0.00212373 0.00585379 0.00283838 0.0179457 0.00313493 0.00678779 0.00274931 0.0243146 0.00346426 0.0127642 0.00486762 0.0241387 0.00583584 0.0179812 0.00683923 0.0419734
14 3 O -2.34216 3.43162 5.78248 -1.2 1 0.00129961 0.00372228 0.00109092 0.00444946 0.00254516 0.00566251 0.00347826 0.0171628 0.00285761 0.00701739 0.00293112 0.0232507 0.00501717 0.0122209 0.00466513 0.0231661 0.00587305 0.0188738 0.00730938 0.0403173
15 1 Mg 1.12778 2.37449 2.9896 1.2 1 0.00130054 0.00354586 0.00227787 0.00432845 0.00214818 0.00573483 0.00309933 0.0168414 0.00279672 0.00620595 0.00242346 0.0234255 0.00342883 0.0127347 0.00351718 0.0220007 0.00488002 0.0163518 0.00576151 0.0407253
16 1 Mg 3.92855 2.33318 4.4844 1.2 1 0.0013027 0.00392446 0.00141059 0.00414486 0.0016935 0.00536393 0.00345268 0.016921 0.00305206 0.00620662 0.00315412 0.0227238 0.00398568 0.0131588 0.00502169 0.0218173 0.00603252 0.0169781 0.00704994 0.039851
17 2 Si 2.09341 4.39804 4.4844 2.4 1 0.00150154 0.00419423 0.00155534 0.00389599 0.00268012 0.0057581 0.00377044 0.0180931 0.00361901 0.00678129 0.00344147 0.0248424 0.00481302 0.0138546 0.00473931 0.0248293 0.00657689 0.0185283 0.00846567 0.0435599
18 3 O 2.09991 6.01128 4.4844 -1.2 1 0.00201949 0.00428574 0.00141807 0.00367435 0.00273981 0.00627366 0.00332507 0.019253 0.00267431 0.00721096 0.00327013 0.026559 0.00469869 0.0141941 0.00527095 0.0273325 0.00653513 0.0194132 0.00786442 0.0452503
19 3 O -4.52137 3.42402 4.4844 -1.2 1 0.000599659 0.00346779 0.00179722 0.00443448 0.00223179 0.00681596 0.00329904 0.017227 0.00315441 0.00644188 0.00304932 0.0235191 0.00442681 0.0125897 0.00442507 0.022719 0.00590028 0.0179961 0.00745675 0.0410346
20 3 O 2.80834 3.69187 3.18632 -1.2 1 0.00126452 0.0035794 0.00143798 0.00351651 0.00187244 0.00581422 0.00314614 0.017578 0.00325789 0.0064176 0.0026667 0.0242332 0.00346107 0.0127953 0.00477079 0.0239893 0.0056751 0.0170846 0.00664226 0.0427187
21 1 Mg 1.17857 2.37449 0 1.2 1 0.000914953 0.00305828 0.0016969 0.00388871 0.00150269 0.00544418 0.00233706 0.0175241 0.00238796 0.00670987 0.0024068 0.0232713 0.00266489 0.0130532 0.00347338 0.0218309 0.00448698 0.0148498 0.00490062 0.0410082
22 3 O 2.76143 3.69187 5.78248 -1.2 1 0.00171168 0.00414956 0.00192672 0.00390268 0.00212365 0.00541172 0.00286228 0.0173911 0.003056 0.00691537 0.00289181 0.0230135 0.00505033 0.0125716 0.00577511 0.0227588 0.00626095 0.0183943 0.00710275 0.0409165
23 1 Mg -1.67381 2.41581 1.4948 1.2 1 0.000505175 0.0022653 0.00250738 0.00461915 0.00138321 0.00589299 0.00232157 0.0168285 0.00281086 0.00648431 0.00179701 0.0239756 0.00258838 0.0137818 0.00286982 0.0221405 0.00431084 0.0160758 0.00513194 0.0412292
24 2 Si 0.16286 0.350945 1.4948 2.4 1 0.00106529 0.00227701 0.00268628 0.00446524 0.00132803 0.00638835 0.00259609 0.0165489 0.00212639 0.00525498 0.00195358 0.0227658 0.00239039 0.013349 0.0030681 0.0205702 0.00494068 0.0147897 0.00464108 0.0398454
25 3 O 0.15972 -1.26229 1.4948 -1.2 1 0.00104501 0.0021862 0.00291149 0.00441469 0.00189414 0.00612843 0.00234502 0.0163652 0.00224701 0.00541248 0.00241617 0.0227918 0.00241096 0.0137044 0.00281867 0.0215411 0.00460944 0.0146684 0.00411848 0.0402424
26 3 O 6.77654 1.32496 1.4948 -1.2 1 0.000649969 0.00318202 0.00137849 0.00440101 0.00132667 0.00586986 0.00211666 0.0168865 0.00245678 0.0056208 0.00164456 0.0237436 0.00272093 0.0133932 0.00366145 0.0217077 0.00472267 0.0152188 0.00456505 0.0406133
27 3 O -0.508028 1.05712 0.196716 -1.2 1 0.000308282 0.00213999 0.00315179 0.00384027 0.00132068 0.00554194 0.0022919 0.0172925 0.00177494 0.00665741 0.00244727 0.0221804 0.00263644 0.0126678 0.00321704 0.0211751 0.00441345 0.0150366 0.00437608 0.0399328
28 3 O -0.552171 1.05712 2.79288 -1.2 1 0.00109203 0.0020891 0.00273122 0.00438276 0.00139744 0.0059167 0.0022311 0.0162878 0.00253903 0.00644749 0.00182613 0.0226694 0.0031713 0.0117119 0.00371229 0.0213577 0.00538145 0.0157792 0.00540192 0.0392036
29 1 Mg 6.31713 4.74899 0 1.2 1 0.000962776 0.00236773 0.00133719 0.00450391 0.0022296 0.00609086 0.00321146 0.0182756 0.00284678 0.00738149 0.00198391 0.0253118 0.0028039 0.0136739 0.00404708 0.0244229 0.00465736 0.0163042 0.00603742 0.0428497
30 1 Mg 3.54847 9.45668 1.4948 1.2 1 0.0026189 0.00304266 0.00167412 0.00452782 0.0019219 0.00728499 0.00302634 0.0214311 0.00163014 0.00863607 0.00207978 0.0285435 0.00291313 0.0153897 0.00380689 0.0291362 0.00451629 0.0182884 0.00409912 0.0483713
31 2 Si 5.36879 6.77254 1.4948 2.4 1 0.00155932 0.00259572 0.00143163 0.00498804 0.00241332 0.00668536 0.00367066 0.0196657 0.00274683 0.00800132 0.00230392 0.027628 0.00316263 0.015066 0.00422831 0.0269193 0.00481734 0.0172115 0.00554009 0.0463995
32 3 O 5.41937 8.38578 1.4948 -1.2 1 0.00223244 0.00289988 0.00157299 0.00486027 0.00200106 0.00741901 0.00301793 0.0210301 0.00223213 0.00849912 0.00223699 0.0290014 0.00220891 0.0153504 0.00317 0.0291897 0.00482553 0.0174304 0.00491393 0.0478592
33 3 O 1.75158 5.79852 1.4948 -1.2 1 0.0010602 0.00305249 0.00179598 0.00396521 0.00227977 0.00583826 0.00325054 0.0195191 0.00295017 0.00734115 0.00256977 0.0278838 0.00284819 0.0152451 0.00362054 0.0269173 0.00543958 0.0175812 0.00579908 0.0456707
34 3 O 4.67421 6.06637 0.196716 -1.2 1 0.00126004 0.00255473 0.00116655 0.0047312 0.00176225 0.0068451 0.00282799 0.0199112 0.00256865 0.00833881 0.00194489 0.0262985 0.00331958 0.0140827 0.00417278 0.0265664 0.00474523 0.0166546 0.00564084 0.0451127
35 1 Mg 6.26654 4.74899 2.9896 1.2 1 0.00121453 0.00291759 0.0017234 0.00486018 0.00250634 0.00636908 0.00366951 0.0180153 0.00369768 0.00719833 0.00239882 0.025718 0.0038989 0.014384 0.00517759 0.0247676 0.00577581 0.0177416 0.00727565 0.0432783
36 3 O 4.63043 6.06637 2.79288 -1.2 1 0.00187163 0.00314508 0.00163832 0.00466987 0.00207896 0.00641899 0.003535 0.0196435 0.00326042 0.00800678 0.00254638 0.0260601 0.00391827 0.0145595 0.00492055 0.0271292 0.00575312 0.0182748 0.00719304 0.0452092
37 1 Mg -1.12976 4.79031 4.4844 1.2 1 0.00174948 0.00394244 0.00173977 0.00449401 0.00254058 0.00599936 0.00343074 0.0181039 0.00351179 0.00718051 0.00310955 0.0256607 0.00442789 0.0140025 0.00492889 0.0257531 0.00707166 0.0192082 0.00804322 0.0440604
38 2 Si -2.9517 7.47444 4.4844 2.4 1 0.00218637 0.00383942 0.00109618 0.00474456 0.00291265 0.0062885 0.00370889 0.0204734 0.00318111 0.0077754 0.00326211 0.0272434 0.00481341 0.0157608 0.00571103 0.027872 0.00693777 0.0193522 0.00808802 0.0472759
39 3 O -3.00198 5.86121 4.4844 -1.2 1 0.00161163 0.00390056 0.00125407 0.00473115 0.00309718 0.00625869 0.00412623 0.0189709 0.0035139 0.00756667 0.0028325 0.0257877 0.00462367 0.013907 0.00494222 0.0267931 0.0064565 0.0197109 0.00819795 0.0453815
40 3 O 0.666315 8.44846 4.4844 -1.2 1 0.00316573 0.00458887 0.00117608 0.00465081 0.00271772 0.00732456 0.00285975 0.0210419 0.00309405 0.00770904 0.00351496 0.0283815 0.00492393 0.0158047 0.00526005 0.0289856 0.00617017 0.0196338 0.00774187 0.0481205
41 3 O -2.21213 8.18062 3.18632 -1.2 1 0.00261832 0.00362415 0.00139907 0.00418456 0.0025955 0.00610451 0.00290459 0.0207846 0.00254531 0.00818121 0.00300489 0.0276768 0.00420647 0.0156695 0.00524212 0.0289559 0.0058184 0.0190024 0.00680279 0.0482873
42 3 O -2.25864 8.18062 5.78248 -1.2 1 0.00319598 0.0041841 0.00134751 0.00447412 0.00287264 0.00575266 0.00303772 0.0203707 0.00250354 0.00826765 0.0036605 0.0266444 0.0050404 0.0160268 0.00580127 0.0290122 0.00686022 0.0204059 0.00754361 0.0483371
43 1 Mg 1.20893 7.12349 2.9896 1.2 1 0.00189739 0.00353616 0.00173141 0.00419717 0.00250576 0.00659554 0.00363703 0.0198036 0.00281794 0.00799977 0.00269291 0.0279657 0.00347443 0.01557 0.00421248 0.0274169 0.00554861 0.0183557 0.00646687 0.0467639
44 1 Mg 4.00982 7.08218 4.4844 1.2 1 0.00187629 0.00363387 0.00133014 0.0045774 0.00246965 0.00620792 0.00385435 0.0199843 0.00343717 0.00750229 0.00320614 0.0270582 0.00447094 0.0161965 0.0063726 0.0279145 0.00714761 0.0193589 0.00808707 0.0468416
45 2 Si 2.17861 9.14704 4.4844 2.4 1 0.00316874 0.00401636 0.00137103 0.00472636 0.00274257 0.00714477 0.00369454 0.0211801 0.00270388 0.00796582 0.00312663 0.0279773 0.00470667 0.0164519 0.00496261 0.0293769 0.00581212 0.0194752 0.00676138 0.0495324
46 3 O 2.18828 10.7603 4.4844 -1.2 1 0.00396092 0.00415254 0.0014803 0.00430132 0.00264708 0.00688046 0.003113 0.0209067 0.00230229 0.00787817 0.00228245 0.0287191 0.0044834 0.0155186 0.00482998 0.0305825 0.00559097 0.0196277 0.00617982 0.0500525
47 3 O -4.43805 8.17302 4.4844 -1.2 1 0.00213083 0.00413377 0.00157428 0.00502111 0.00258563 0.00743104 0.00331515 0.0206795 0.00317483 0.00796293 0.00338037 0.0282687 0.00488803 0.015874 0.00555647 0.0293322 0.00657021 0.0195511 0.00864356 0.048058
48 3 O 2.89193 8.44087 3.18632 -1.2 1 0.0028622 0.00343463 0.001419 0.00427752 0.00230747 0.00676547 0.00328218 0.0205641 0.00276632 0.00846718 0.00290996 0.0274689 0.00383646 0.0156021 0.00513339 0.0288793 0.00589823 0.0188679 0.00605502 0.0482637
49 1 Mg 1.25915 7.12349 0 1.2 1 0.000832142 0.0026944 0.00124651 0.00423394 0.00168879 0.00702486 0.0028027 0.0203932 0.0028608 0.00836251 0.00227252 0.0276943 0.00324958 0.0140077 0.00321585 0.0275285 0.00461934 0.0175733 0.00458217 0.0461068
50 3 O 2.84547 8.44087 5.78248 -1.2 1 0.00268897 0.00439099 0.00145724 0.00450537 0.00253239 0.00627322 0.00351678 0.0210547 0.00284545 0.00788956 0.0035035 0.0268965 0.00581378 0.016111 0.0058849 0.0295053 0.00583032 0.0209277 0.00718628 0.0489793
51 1 Mg -1.59284 7.16481 1.4948 1.2 1 0.00128227 0.00285113 0.00121364 0.00430105 0.00172781 0.00614888 0.0025768 0.0200491 0.00295279 0.00800803 0.00176006 0.027684 0.00324179 0.0153714 0.0038139 0.0271259 0.00477053 0.0175409 0.00569077 0.046536
52 2 Si 0.240329 5.09994 1.4948 2.4 1 0.000851881 0.00327012 0.00179217 0.00408271 0.00178899 0.0066727 0.00305044 0.019022 0.00317396 0.00734903 0.00225465 0.0259502 0.00271815 0.0142852 0.00425169 0.0248351 0.00510803 0.0169997 0.0057195 0.0446938
53 3 O 0.234538 3.48671 1.4948 -1.2 1 0.00113321 0.00332816 0.00238157 0.00422739 0.00182432 0.00628591 0.00262896 0.0180714 0.00340324 0.00699908 0.00223597 0.0245418 0.00314801 0.0134073 0.0040539 0.0240832 0.00549788 0.0160623 0.0056875 0.0423958
54 3 O 6.85564 6.07396 1.4948 -1.2 1 0.00125275 0.0023083 0.00185578 0.00470331 0.00217466 0.00591744 0.00309805 0.0199171 0.00318575 0.00775796 0.00205027 0.0276755 0.00329902 0.0146001 0.00486724 0.0268862 0.0056082 0.0175835 0.00649749 0.0453459
55 3 O -0.429565 5.80612 0.196716 -1.2 1 0.000867389 0.00291363 0.00193509 0.00409073 0.00179118 0.00688688 0.00241252 0.0197357 0.00297795 0.00867696 0.00225827 0.0258283 0.00258202 0.0138854 0.0037796 0.025925 0.00509826 0.0168314 0.0058241 0.045204
56 3 O -0.473377 5.80612 2.79288 -1.2 1 0.0018044 0.003233 0.00170026 0.00417775 0.00220265 0.00654004 0.00312799 0.0191058 0.00305584 0.00803288 0.00295513 0.0258769 0.00381851 0.0142544 0.00473085 0.0265751 0.00623765 0.0184498 0.00695693 0.0455383
57 1 Mg 6.40169 9.49799 0 1.2 1 0.00158948 0.003407 0.0014469 0.00441221 0.00144867 0.00801914 0.00190544 0.0212044 0.00169497 0.00904074 0.00167749 0.0289441 0.00218875 0.014398 0.00279236 0.0297562 0.00401958 0.0178624 0.00418263 0.0474473
58 1 Mg 3.64209 14.2057 1.4948 1.2 1 0.00351323 0.0028148 0.00165458 0.00439069 0.00173047 0.00856136 0.00173007 0.0217073 0.00148597 0.0087986 0.00214783 0.0282449 0.00260766 0.015951 0.00320734 0.0296162 0.00373562 0.0168823 0.00352706 0.0489685
59 2 Si 5.45748 11.5215 1.4948 2.4 1 0.00323114 0.00304307 0.0018005 0.00444202 0.0017299 0.00794947 0.00205128 0.0213017 0.00166829 0.00848935 0.00180314 0.028752 0.00264491 0.0159548 0.00358656 0.0293783 0.00416852 0.0169054 0.00391107 0.0488321
60 3 O 5.51101 13.1348 1.4948 -1.2 1 0.00337361 0.00313689 0.00186962 0.00458252 0.00147573 0.00878502 0.00165894 0.0212814 0.00176604 0.00869585 0.00168294 0.0292023 0.00224624 0.0157598 0.00317273 0.0300408 0.00391483 0.0166653 0.00351205 0.0486345
61 3 O 1.83851 10.5475 1.4948 -1.2 1 0.00226674 0.00327254 0.0017845 0.00466539 0.00166267 0.0075633 0.00221262 0.0218005 0.0017453 0.00861508 0.002189 0.0294522 0.00243869 0.0156435 0.00341933 0.0298902 0.0044291 0.0178246 0.00343117 0.0490398
62 3 O 4.7611 10.8154 0.196716 -1.2 1 0.00197116 0.00281721 0.00185341 0.00445966 0.0015784 0.00830671 0.00208591 0.0215636 0.0015231 0.00878211 0.00199604 0.0282535 0.00275003 0.0153022 0.00375457 0.0293973 0.0039569 0.0171663 0.00373444 0.0481774
63 1 Mg 6.35203 9.49799 2.9896 1.2 1 0.00240516 0.00362394 0.00140178 0.00470155 0.00255783 0.0072183 0.00340149 0.0205417 0.0032056 0.00859025 0.00214498 0.0291182 0.00389723 0.0161518 0.00372651 0.0291284 0.00431377 0.0183677 0.00567586 0.048368
64 3 O 4.71833 10.8154 2.79288 -1.2 1 0.00375069 0.00330418 0.00154314 0.00449552 0.00206431 0.0078441 0.00226734 0.02139 0.00205361 0.00904221 0.001909 0.0283234 0.00341671 0.0156498 0.00427275 0.0302371 0.00504767 0.018165 0.00540235 0.0494557
65 1 Mg -1.0438 9.53931 4.4844 1.2 1 0.00382177 0.00439081 0.00161045 0.00430949 0.00284191 0.00635554 0.0025032 0.0209482 0.00272068 0.00827534 0.00302053 0.0279934 0.0040126 0.0163101 0.00477958 0.0300506 0.00617284 0.0199216 0.00676389 0.0492681
66 2 Si -2.8604 12.2234 4.4844 2.4 1 0.00416691 0.00393585 0.00151388 0.00408429 0.00266388 0.00709035 0.00320119 0.0216023 0.00269558 0.00850199 0.00259738 0.0279119 0.00427459 0.0163736 0.00432179 0.0303246 0.00544752 0.0189354 0.00650393 0.0504303
67 3 O -2.91391 10.6102 4.4844 -1.2 1 0.00415673 0.00413369 0.0016278 0.00424272 0.0028497 0.00663365 0.00326705 0.0204624 0.00262247 0.00787198 0.00237114 0.0284646 0.00434686 0.0157264 0.00441 0.0309473 0.0057719 0.0193189 0.00659462 0.0496336
68 3 O 0.7596 13.1975 4.4844 -1.2 1 0.00428222 0.00390839 0.00174102 0.00454912 0.00292567 0.00833196 0.00269555 0.0221327 0.00264988 0.008351 0.00290263 0.028678 0.00436468 0.0162975 0.00449563 0.0302336 0.0057697 0.0189341 0.00622438 0.0500915
69 3 O -2.12001 12.9296 3.18632 -1.2 1 0.00462664 0.00346858 0.00165309 0.00377815 0.00237526 0.00736883 0.00245971 0.0217454 0.00237697 0.00851151 0.00230284 0.0277197 0.00370843 0.0158561 0.00472222 0.0306522 0.00526487 0.0182472 0.00519279 0.0498311
70 3 O -2.16532 12.9296 5.78248 -1.2 1 0.00428127 0.00380785 0.00133267 0.00415614 0.002797 0.00634173 0.00251394 0.021764 0.00242399 0.00808132 0.0030198 0.0272745 0.00398811 0.0165866 0.00496176 0.0313703 0.00554119 0.0207137 0.0063602 0.0512829
71 1 Mg 1.29891 11.8725 2.9896 1.2 1 0.00364103 0.00336044 0.00187689 0.0046064 0.00240703 0.00794137 0.00279006 0.021248 0.00234815 0.00884464 0.00191606 0.0290645 0.00318676 0.0158878 0.00388267 0.0298449 0.0046832 0.0180106 0.00438261 0.0491258
72 1 Mg 4.10033 11.8312 4.4844 1.2 1 0.00392543 0.0035117 0.00144804 0.00415591 0.00252906 0.00697047 0.00278072 0.0214603 0.00251763 0.00832793 0.00262191 0.0287059 0.00389888 0.0170284 0.00555408 0.0303237 0.00598185 0.0189456 0.0058392 0.0504071
73 2 Si 2.27333 13.896 4.4844 2.4 1 0.00421107 0.00350047 0.00137709 0.00454872 0.00302957 0.0076063 0.0032321 0.0218695 0.00238615 0.00834863 0.00249762 0.0282764 0.00412547 0.0162859 0.00448025 0.0302785 0.00518214 0.0183174 0.00559154 0.0506908
74 3 O 2.28634 15.5093 4.4844 -1.2 1 0.00462883 0.00370741 0.00144213 0.00402104 0.00310516 0.00714659 0.00303278 0.0209677 0.00226438 0.00767067 0.00182338 0.0284549 0.00349964 0.0158263 0.00384068 0.0306062 0.00531673 0.0180684 0.00577938 0.0505248
75 3 O -4.34533 12.922 4.4844 -1.2 1 0.00424322 0.00384259 0.00146469 0.0043415 0.0027952 0.00802083 0.00326146 0.0217918 0.00278855 0.00851936 0.00258833 0.0284781 0.00393723 0.0161369 0.00483434 0.0303204 0.00584384 0.0192031 0.00676799 0.0499077
76 3 O 2.98455 13.1899 3.18632 -1.2 1 0.0045378 0.00312208 0.0014814 0.00414695 0.00249278 0.00766359 0.00226478 0.0218911 0.00200384 0.00868352 0.00225033 0.027922 0.00344861 0.0157869 0.00459118 0.0301304 0.00536085 0.0181895 0.00504196 0.0499096
77 1 Mg 1.34779 11.8725 0 1.2 1 0.00214582 0.00256153 0.00136185 0.00463648 0.00135561 0.00875927 0.00154087 0.0212551 0.00127921 0.00912073 0.0017603 0.0290446 0.00258248 0.014649 0.00294655 0.0300292 0.00338522 0.0173748 0.00355416 0.0477305
78 3 O 2.93934 13.1899 5.78248 -1.2 1 0.00391041 0.00407897 0.00135569 0.00427897 0.00292417 0.00672734 0.00270698 0.0218896 0.00238602 0.00817125 0.00288161 0.0270179 0.00445237 0.0162406 0.0048522 0.0311279 0.00564181 0.0209127 0.00635169 0.0510723
79 1 Mg -1.50344 11.9138 1.4948 1.2 1 0.00263376 0.0031759 0.00148862 0.00420483 0.00161245 0.00810288 0.00172286 0.0217301 0.00218172 0.00873357 0.00155811 0.0286177 0.00347233 0.0158576 0.00324241 0.0297842 0.0036678 0.0174596 0.00364264 0.0488328
80 2 Si 0.326006 9.84894 1.4948 2.4 1 0.00183094 0.00312327 0.00131239 0.00472449 0.00174323 0.00803328 0.00181567 0.0212479 0.00204888 0.00850832 0.00154046 0.0285941 0.00286972 0.0154289 0.00360193 0.0288113 0.00401285 0.0178302 0.00361591 0.0484186
81 3 O 0.317364 8.23571 1.4948 -1.2 1 0.00191368 0.00325223 0.00105604 0.00422601 0.00171126 0.00756154 0.00201608 0.0204158 0.00250193 0.00813013 0.00169833 0.0287264 0.00342802 0.0155049 0.00385188 0.0285763 0.00439251 0.0177411 0.00445894 0.047559
82 3 O 6.94307 10.823 1.4948 -1.2 1 0.00277186 0.00354291 0.00144131 0.00436478 0.00174511 0.00742161 0.0022926 0.0219496 0.00242578 0.00851511 0.00162154 0.0293688 0.00310002 0.015582 0.00353021 0.0300489 0.00396148 0.0179008 0.00423348 0.0489916
83 3 O -0.343122 10.5551 0.196716 -1.2 1 0.00180113 0.00289123 0.0014007 0.00455432 0.00149519 0.00846075 0.00163837 0.0213627 0.00166057 0.00905973 0.00207674 0.0282771 0.00343438 0.0149587 0.00414346 0.0294497 0.00383051 0.0175796 0.00356924 0.0483339
84 3 O -0.385966 10.5551 2.79288 -1.2 1 0.00370767 0.00372989 0.00134963 0.00435406 0.00257084 0.00768452 0.00212213 0.0217284 0.00176998 0.00895846 0.00247326 0.0277065 0.00393849 0.015813 0.00420314 0.0300754 0.00510703 0.0188346 0.00491396 0.0495225
85 1 Mg 6.49448 14.247 0 1.2 1 0.00175831 0.00278617 0.00192589 0.00461306 0.00100579 0.00916437 0.000950661 0.021183 0.0013411 0.00860522 0.001649 0.0286895 0.00181528 0.0154138 0.00263052 0.0298487 0.00328172 0.01666 0.00299357 0.047651
86 1 Mg 3.74457 18.9547 1.4948 1.2 1 0.00263481 0.00258039 0.00137488 0.00367731 0.00190788 0.00843573 0.00170227 0.0221057 0.00180231 0.00809459 0.00207997 0.0274257 0.00226407 0.0163222 0.00344962 0.0288934 0.00365387 0.0164885 0.00312838 0.04936
87 2 Si 5.55495 16.2705 1.4948 2.4 1 0.00344416 0.00255418 0.00143513 0.00444482 0.0017455 0.00877133 0.00163112 0.0213493 0.00138118 0.00799349 0.00128389 0.0283429 0.00231773 0.0161538 0.00289505 0.0289302 0.00367974 0.015871 0.00347445 0.0489231
88 3 O 5.6115 17.8838 1.4948 -1.2 1 0.00294876 0.00249712 0.00160946 0.00406921 0.0017368 0.00911013 0.00172024 0.0216034 0.00175861 0.0079512 0.00138139 0.0285284 0.00201886 0.0164315 0.00292164 0.0289962 0.00346339 0.0157883 0.00325072 0.0488871
89 3 O 1.93416 15.2965 1.4948 -1.2 1 0.00369557 0.00274858 0.00159008 0.00434761 0.00176776 0.00814049 0.00195164 0.0218939 0.00188055 0.00820859 0.00132749 0.0288856 0.00194831 0.0159216 0.00298184 0.0298477 0.00387062 0.0165894 0.00326096 0.0492165
90 3 O 4.85636 15.5644 0.196716 -1.2 1 0.00244732 0.00213643 0.00158708 0.00456331 0.0013774 0.00906274 0.00138049 0.0212507 0.00118144 0.00819529 0.00167738 0.027944 0.00265563 0.0160618 0.00343398 0.0293312 0.00332837 0.0158979 0.00298983 0.0486346
91 1 Mg 6.44662 14.247 2.9896 1.2 1 0.00349506 0.0032034 0.00134691 0.00408906 0.00227588 0.00815796 0.00271841 0.0208537 0.00261126 0.00878132 0.00179756 0.0289359 0.00299077 0.016084 0.00314667 0.0299907 0.00407761 0.0171905 0.0045284 0.0490318
92 3 O 4.81537 15.5644 2.79288 -1.2 1 0.00444382 0.00275308 0.00139996 0.00414226 0.00235286 0.00846234 0.00191517 0.0216002 0.00142859 0.00879591 0.00164042 0.0278208 0.00262736 0.0160528 0.00355041 0.0297027 0.00456526 0.0169933 0.00463049 0.0493972
93 1 Mg -0.948271 14.2883 4.4844 1.2 1 0.00430925 0.00328605 0.00140505 0.00404637 0.00276524 0.00737711 0.00259115 0.0215982 0.0026761 0.00836776 0.00263807 0.0280948 0.00354774 0.0168118 0.00519133 0.0304837 0.00564122 0.0184283 0.00592134 0.0503975
94 2 Si -2.75928 16.9724 4.4844 2.4 1 0.00386044 0.00296314 0.0012608 0.00403196 0.00283884 0.00766359 0.00301178 0.0218845 0.00271842 0.00810366 0.00231226 0.0276429 0.00353319 0.0166477 0.00456827 0.0296463 0.00485465 0.0179943 0.00516158 0.0505967
95 3 O -2.81617 15.3592 4.4844 -1.2 1 0.0045481 0.00328444 0.00131254 0.00396349 0.00297566 0.00718129 0.00310044 0.0209393 0.00269717 0.00779527 0.00209682 0.0285049 0.00348362 0.0158435 0.0041029 0.0307668 0.00559308 0.0180948 0.00612071 0.0501763
96 3 O 0.862762 17.9465 4.4844 -1.2 1 0.00391654 0.00352349 0.00112584 0.00405781 0.00306757 0.00807417 0.00256538 0.0221381 0.00233291 0.00780113 0.00219593 0.0279771 0.00357706 0.0165392 0.00424618 0.0294415 0.00539647 0.0181767 0.00563399 0.0503264
97 3 O -2.0185 17.6786 3.18632 -1.2 1 0.00406575 0.00274804 0.00135613 0.00358462 0.00269841 0.00736585 0.00239211 0.0219918 0.00218343 0.00791764 0.00205637 0.0273217 0.00338648 0.0164311 0.00466513 0.0299962 0.00459523 0.0172452 0.00469732 0.0502074
98 3 O -2.06164 17.6786 5.78248 -1.2 1 0.00398393 0.00340656 0.00100663 0.00384945 0.00287615 0.00649953 0.0024964 0.0216907 0.00231436 0.0077449 0.0022472 0.0269346 0.00336818 0.0165672 0.0044002 0.0308458 0.0055029 0.0197226 0.00579616 0.0513722
99 1 Mg 1.39817 16.6215 2.9896 1.2 1 0.0039761 0.00279443 0.00149523 0.00420758 0.00257989 0.00831945 0.00279874 0.0212131 0.00249194 0.00825474 0.00174816 0.028631 0.00251281 0.0163657 0.00358663 0.0294687 0.00417341 0.016681 0.0039811 0.0493614
100 1 Mg 4.20062 16.5802 4.4844 1.2 1 0.00446949 0.00289072 0.00143353 0.00400617 0.00271568 0.00726066 0.00258347 0.0215325 0.00281894 0.00793314 0.00242834 0.027972 0.0033543 0.017019 0.00553502 0.0299719 0.00592031 0.0181714 0.005562 0.0502863
101 2 Si 2.37796 18.645 4.4844 2.4 1 0.00338821 0.00255223 0.00125531 0.00427379 0.00304029 0.00748416 0.00287871 0.0220546 0.00259305 0.00793072 0.00236394 0.0272411 0.00355151 0.0169306 0.00432077 0.0294176 0.00525034 0.0179237 0.00538207 0.0512704
102 3 O 2.39434 20.2583 4.4844 -1.2 1 0.00324264 0.00282913 0.00147186 0.00398487 0.00305737 0.0066838 0.00289665 0.0211568 0.00293966 0.00716994 0.00177768 0.0279536 0.00318753 0.0164414 0.00376928 0.0298864 0.00536254 0.0179169 0.00600752 0.0507193
103 3 O -4.24274 17.671 4.4844 -1.2 1 0.00370672 0.00328571 0.00155356 0.00417182 0.00299334 0.00828385 0.00273057 0.0220671 0.00296119 0.00808639 0.00244056 0.0282687 0.00348857 0.0164855 0.00514233 0.0297818 0.00576151 0.0182527 0.00582297 0.0500479
104 3 O 3.08659 17.9389 3.18632 -1.2 1 0.00390759 0.00226019 0.00144625 0.0036716 0.00285151 0.00750236 0.00239082 0.0220619 0.00239311 0.00813713 0.00193309 0.0273877 0.00306268 0.0162204 0.00416633 0.0294239 0.00511864 0.0172251 0.00510174 0.0499206
105 1 Mg 1.44478 16.6215 0 1.2 1 0.00263944 0.00242112 0.00121292 0.00426673 0.00123212 0.00891682 0.00122484 0.0214646 0.00127062 0.00822844 0.00140058 0.0284536 0.0022306 0.0156163 0.00215817 0.0293116 0.00303009 0.0162216 0.00307388 0.0483339
106 3 O 3.0436 17.9389 5.78248 -1.2 1 0.00356454 0.00315935 0.00127876 0.0042493 0.00293952 0.00638204 0.00252356 0.0219008 0.00221897 0.00769162 0.00254185 0.0269061 0.00357329 0.0164548 0.00460143 0.0304838 0.00558318 0.0201179 0.00612037 0.0512667
107 1 Mg -1.40524 16.6628 1.4948 1.2 1 0.00295482 0.00260864 0.00113476 0.00416463 0.00188428 0.00854128 0.00195659 0.0221974 0.00190862 0.0083364 0.00168864 0.0279723 0.00300785 0.016565 0.0030288 0.0295281 0.00309153 0.0165318 0.00305252 0.0488132
108 2 Si 0.420358 14.5979 1.4948 2.4 1 0.00345044 0.0026308 0.00164455 0.00468163 0.00193115 0.00900424 0.00183098 0.0214594 0.00158499 0.00840067 0.00145151 0.0283012 0.00267647 0.0162398 0.00345582 0.0289169 0.00358048 0.0165074 0.00341689 0.048806
109 3 O 0.408732 12.9847 1.4948 -1.2 1 0.00319747 0.00287815 0.00143454 0.00458017 0.00197321 0.00898854 0.00143548 0.0211937 0.00192407 0.00854533 0.00146512 0.0290988 0.00297186 0.015868 0.00316378 0.0298561 0.00352515 0.0169511 0.00363636 0.0488184
110 3 O 7.03923 15.572 1.4948 -1.2 1 0.00337864 0.00272816 0.00145043 0.00418996 0.00183908 0.00824079 0.00232222 0.0216342 0.00219573 0.00819463 0.00155297 0.0291232 0.00253428 0.0162327 0.00292995 0.0297956 0.00349642 0.0165215 0.00368799 0.0490954
111 3 O -0.248332 15.3041 0.196716 -1.2 1 0.0028385 0.0023738 0.00130008 0.0045557 0.00122968 0.00908024 0.00180768 0.0213631 0.00125748 0.0083202 0.00191648 0.0279225 0.00290825 0.0156913 0.00358768 0.0291852 0.0032192 0.0163001 0.00322432 0.0482907
112 3 O -0.289436 15.3041 2.79288 -1.2 1 0.00458458 0.00295997 0.00133253 0.00398974 0.00255578 0.00844743 0.00205273 0.0217926 0.00155393 0.00879482 0.00184982 0.0273636 0.00282124 0.0162016 0.00352485 0.0298864 0.00425261 0.0173113 0.0041106 0.0496865
113 1 Mg 6.59566 18.996 0 1.2 1 0.00118102 0.00242766 0.00139973 0.00405185 0.000922129 0.00864047 0.00109854 0.0219556 0.00133252 0.00769067 0.00161162 0.027902 0.0022514 0.0162091 0.00235018 0.0287541 0.00303576 0.0159715 0.00274784 0.0483425
114 1 Mg 3.85574 23.7037 1.4948 1.2 1 0.00145806 0.00205075 0.0012771 0.00368716 0.00185587 0.00732604 0.00148456 0.0230066 0.00167395 0.00751806 0.00217161 0.027036 0.00243745 0.0173013 0.0037577 0.028544 0.00337076 0.0173269 0.00330285 0.0501703
115 2 Si 5.66125 21.0195 1.4948 2.4 1 0.00171796 0.00216093 0.00114512 0.00396795 0.00195199 0.00819306 0.00164931 0.0218077 0.00139772 0.00740601 0.00140779 0.0277608 0.00242435 0.0171646 0.00278101 0.0280534 0.00359399 0.0158693 0.00381339 0.0497535
116 3 O 5.72074 22.6328 1.4948 -1.2 1 0.00153571 0.00214007 0.00151649 0.00374682 0.00188726 0.00813538 0.00170411 0.0221725 0.0017404 0.00723619 0.00134212 0.0279379 0.00224823 0.0170722 0.00312938 0.028407 0.00329405 0.0164186 0.00359491 0.0496681
117 3 O 2.03867 20.0455 1.4948 -1.2 1 0.00183054 0.00252973 0.00137368 0.00414522 0.00190737 0.00766618 0.00220379 0.022277 0.002291 0.00745861 0.00145245 0.0283466 0.00212123 0.0171176 0.00247678 0.0291317 0.00340604 0.0161297 0.00334371 0.0497941
118 3 O 4.96004 20.3134 0.196716 -1.2 1 0.00146133 0.00185073 0.00127329 0.00393313 0.0011522 0.00834219 0.00116994 0.0216731 0.00116514 0.00740298 0.00172653 0.0274978 0.00256885 0.0164874 0.00361312 0.0286209 0.00307003 0.0152969 0.00278637 0.0490124
119 1 Mg 6.55057 18.996 2.9896 1.2 1 0.00289028 0.00261531 0.00124617 0.00395748 0.00258329 0.00782403 0.00300283 0.0212984 0.00258757 0.00795618 0.00158987 0.0286242 0.00274184 0.0168092 0.00310007 0.0290667 0.00394781 0.0168271 0.0044075 0.0495079