ITEM: TIMESTEP
56800
ITEM: NUMBER OF ATOMS
10500
ITEM: BOX BOUNDS xy xz yz pp pp pp
0	15.2977	5.09925
0	118.725	0
0	89.688	0
ITEM: ATOMS id type element xu yu zu q Q_1 Q_2 Q_3 Q_4 Q_5 Q_6 Q_7 Q_8 Q_9 Q_10 Q_11 Q_12 Q_13 Q_14 Q_15 Q_16 Q_17 Q_18 Q_19 Q_20 Q_21
1 1 Mg 6.2404 -6.37941e-06 0 1.2 1 0.000816755 0.00421419 0.00139636 0.00481285 0.00133606 0.00551839 0.00203853 0.0156639 0.00206873 0.00540938 0.00227251 0.0213314 0.00247294 0.0134112 0.00335957 0.020709 0.00394536 0.0138445 0.00386602 0.0402185
2 1 Mg 3.46349 4.70768 1.4948 1.2 1 0.00139627 0.00333765 0.00135343 0.0044122 0.00185014 0.00611546 0.0035965 0.0183798 0.0027728 0.00685902 0.0028014 0.0253797 0.00288969 0.0138323 0.004147 0.0250898 0.00570717 0.0170414 0.00576685 0.0432665
3 2 Si 5.2885 2.02354 1.4948 2.4 1 0.000540651 0.00346892 0.00196094 0.00446484 0.00178319 0.00567834 0.00241473 0.0166997 0.0024605 0.00576084 0.00195299 0.0229512 0.00284099 0.0134449 0.0034728 0.0216856 0.00389609 0.0150889 0.00398407 0.0410484
4 3 O 5.33628 3.63678 1.4948 -1.2 1 0.000771343 0.00291766 0.00152638 0.00481156 0.00197448 0.00636588 0.00295133 0.0175593 0.00227397 0.0064806 0.00189338 0.0249071 0.00238811 0.013715 0.00410466 0.0239619 0.00526815 0.0162153 0.00561619 0.0424974
5 3 O 1.67294 1.04952 1.4948 -1.2 1 0.00149401 0.00353219 0.00195245 0.00409604 0.00138641 0.00568082 0.00231366 0.0165757 0.00234832 0.00564168 0.00204372 0.0223068 0.00263256 0.01282 0.00304634 0.0218548 0.00469625 0.0152691 0.0046817 0.0401445
6 3 O 4.59532 1.31737 0.196716 -1.2 1 0.000912508 0.00311667 0.00208719 0.00429888 0.00198061 0.00564625 0.00235717 0.0168866 0.00263111 0.00577153 0.00208284 0.0219869 0.00306291 0.0127851 0.00391571 0.021727 0.00413387 0.0146033 0.00431696 0.0407584
7 1 Mg 6.18956 -6.37941e-06 2.9896 1.2 1 0.000814435 0.00470049 0.00146574 0.0040479 0.0013505 0.00562352 0.0023893 0.0156145 0.00264938 0.00513628 0.00201943 0.0218834 0.00253009 0.0133529 0.00346954 0.020515 0.00449815 0.0144074 0.00500982 0.0387079
8 3 O 4.55118 1.31737 2.79288 -1.2 1 0.00114792 0.00444719 0.00179256 0.00405211 0.00178483 0.00577538 0.00250672 0.0165094 0.00230173 0.00620103 0.00210077 0.0213453 0.00307836 0.0122698 0.00325807 0.0213007 0.00511299 0.0150972 0.00574184 0.0395809
9 1 Mg -1.20682 0.0413099 4.4844 1.2 1 0.000490064 0.00334231 0.00160804 0.00468884 0.00124573 0.00544487 0.0019604 0.0158283 0.00225519 0.00546909 0.00218633 0.0215415 0.00277532 0.0116446 0.00330443 0.0199927 0.00542098 0.0153413 0.00547104 0.0379379
10 2 Si -3.0337 2.72544 4.4844 2.4 1 0.00083004 0.0037451 0.00164376 0.00486266 0.00241849 0.00630742 0.0033759 0.0162135 0.00308127 0.00596529 0.00242617 0.0232091 0.0029654 0.0129692 0.00406568 0.0218237 0.00559654 0.0176 0.0063819 0.0385435
11 3 O -3.08099 1.11221 4.4844 -1.2 1 0.000710401 0.0041207 0.00183164 0.00425335 0.00146478 0.00547748 0.00245676 0.0156445 0.00266665 0.00525994 0.00239259 0.0215644 0.00281716 0.0114832 0.00345995 0.0209276 0.00524431 0.0159173 0.00598707 0.0377185
12 3 O 0.582463 3.69946 4.4844 -1.2 1 0.00131137 0.00482905 0.00185467 0.00441554 0.00233248 0.0068392 0.00361183 0.0167619 0.00333465 0.0063695 0.00314144 0.0242047 0.00403886 0.0130093 0.00412111 0.0236824 0.00705913 0.0185611 0.00875934 0.0407187
13 3 O -2.29524 3.43162 3.18632 -1.2 1 0.000915276 0.00307523 0.00218309 0.00464359 0.00213603 0.00605311 0.00295843 0.0174141 0.00314514 0.00637083 0.00271574 0.0241171 0.00311443 0.0130362 0.00441018 0.0237555 0.00642064 0.0178423 0.00683226 0.0411346
14 3 O -2.34216 3.43162 5.78248 -1.2 1 0.00109547 0.00435149 0.00139038 0.00473076 0.00257895 0.00596254 0.00334186 0.0166821 0.00297965 0.00680922 0.00303272 0.0225123 0.00430457 0.0125783 0.00431987 0.0227611 0.00622319 0.0195917 0.00775328 0.038844
15 1 Mg 1.12778 2.37449 2.9896 1.2 1 0.00105785 0.00373986 0.00210239 0.00441431 0.00206127 0.00584957 0.00312764 0.0164022 0.00273239 0.00577593 0.00239781 0.0229763 0.00316193 0.0130958 0.00319243 0.0216813 0.00510475 0.0162158 0.00590252 0.0402616
16 1 Mg 3.92855 2.33318 4.4844 1.2 1 0.0014061 0.00449605 0.00156267 0.0040458 0.001647 0.00562205 0.00348152 0.0163825 0.00309747 0.00596133 0.00296476 0.0223436 0.00361503 0.0133456 0.00508557 0.0213382 0.00642032 0.0171103 0.00739085 0.0394328
17 2 Si 2.09341 4.39804 4.4844 2.4 1 0.00147366 0.00448852 0.00167727 0.0039919 0.00263648 0.00591654 0.00371415 0.0177797 0.00336413 0.0065077 0.00314676 0.024084 0.00422901 0.0139893 0.00407178 0.0241911 0.00694225 0.0187229 0.0087991 0.0421761
18 3 O 2.09991 6.01128 4.4844 -1.2 1 0.00208162 0.00507294 0.00128776 0.0038277 0.00275251 0.00648078 0.00323143 0.0187264 0.00280342 0.00711004 0.00302225 0.0263123 0.00369925 0.0144351 0.00435877 0.0268864 0.00693672 0.019716 0.00838501 0.0441246
19 3 O -4.52137 3.42402 4.4844 -1.2 1 0.00143605 0.00428172 0.00205666 0.00434878 0.002221 0.00707153 0.0033376 0.0166392 0.00326804 0.00626367 0.00304623 0.0229521 0.00373562 0.0128359 0.00415895 0.0222595 0.00648971 0.0176317 0.00789868 0.0399628
20 3 O 2.80834 3.69187 3.18632 -1.2 1 0.00148844 0.00399834 0.00148609 0.00362058 0.00178283 0.00572632 0.00313064 0.0171004 0.0028754 0.00619236 0.00273105 0.0238778 0.00352646 0.0133163 0.00439104 0.0234483 0.00584572 0.0167846 0.00669514 0.0422057
21 1 Mg 1.17857 2.37449 0 1.2 1 0.00174134 0.00360814 0.00204301 0.00403426 0.00154054 0.00555835 0.00241872 0.0167897 0.00249643 0.00641306 0.0025791 0.0227502 0.00255769 0.0130955 0.00313072 0.0219854 0.00430185 0.0146634 0.00469333 0.0406883
22 3 O 2.76143 3.69187 5.78248 -1.2 1 0.00152317 0.00514114 0.00154144 0.00411758 0.00214349 0.00557472 0.00280355 0.017049 0.00305744 0.00688381 0.00288367 0.0223299 0.00437676 0.0129769 0.00507119 0.0226874 0.00625738 0.0189483 0.00791422 0.0397543
23 1 Mg -1.67381 2.41581 1.4948 1.2 1 0.000768868 0.00278861 0.0022509 0.00473739 0.00141731 0.00600835 0.00245867 0.0162997 0.00259963 0.00594247 0.00199346 0.0240362 0.00226525 0.0143055 0.00273861 0.0222209 0.0045723 0.0159761 0.00465824 0.0416775
24 2 Si 0.16286 0.350945 1.4948 2.4 1 0.00142052 0.00290161 0.0026476 0.00439457 0.00136652 0.00643956 0.00273806 0.0159958 0.00206783 0.00481398 0.00188415 0.0224319 0.00237281 0.0135282 0.00290764 0.0208717 0.00458377 0.0144817 0.00434714 0.0403326
25 3 O 0.15972 -1.26229 1.4948 -1.2 1 0.00148365 0.00307347 0.0028507 0.00418803 0.00187559 0.00609751 0.00248781 0.0161478 0.00211808 0.00509786 0.00251268 0.0221916 0.00269255 0.013876 0.00279952 0.0217616 0.00426357 0.0143002 0.00391743 0.0406995
26 3 O 6.77654 1.32496 1.4948 -1.2 1 0.000887137 0.00395719 0.00152495 0.00448295 0.00132611 0.00599702 0.00217094 0.0163908 0.00239858 0.00513902 0.00157513 0.0233025 0.00269914 0.0135442 0.00342432 0.0218523 0.00467409 0.0150504 0.00413192 0.0407669
27 3 O -0.508028 1.05712 0.196716 -1.2 1 0.000923981 0.0027004 0.00305452 0.00397381 0.00154138 0.00564142 0.00233569 0.0167388 0.00158348 0.00632975 0.00244738 0.0216583 0.00261261 0.0127196 0.00290309 0.0213667 0.00415164 0.0147449 0.0042238 0.0399828
28 3 O -0.552171 1.05712 2.79288 -1.2 1 0.000640085 0.00262954 0.00266533 0.00456739 0.00141566 0.00613614 0.00235129 0.015746 0.0024273 0.00593752 0.00197944 0.0220266 0.00264245 0.0117305 0.00359187 0.0213642 0.0055282 0.0156182 0.00511993 0.0389999
29 1 Mg 6.31713 4.74899 0 1.2 1 0.000883003 0.00252861 0.00172322 0.00477228 0.00221071 0.00614261 0.00341416 0.0178726 0.00289217 0.00691492 0.00206298 0.025157 0.00262678 0.0137222 0.00399297 0.0247657 0.00481911 0.0162482 0.00576713 0.0427364
30 1 Mg 3.54847 9.45668 1.4948 1.2 1 0.00099638 0.0032863 0.00146577 0.00495765 0.00182839 0.00762637 0.00309522 0.0213102 0.0018047 0.00851691 0.00236762 0.0286495 0.00301679 0.015344 0.00377805 0.0289894 0.00458808 0.0186856 0.00400252 0.0480232
31 2 Si 5.36879 6.77254 1.4948 2.4 1 0.000755802 0.003031 0.00175107 0.00528724 0.00255328 0.00686714 0.00379148 0.0194145 0.00274971 0.00789219 0.00251023 0.0274494 0.0031592 0.0151024 0.00402488 0.0268613 0.005112 0.0174478 0.00530838 0.0458877
32 3 O 5.41937 8.38578 1.4948 -1.2 1 0.000923144 0.00305183 0.00130434 0.00515905 0.00208608 0.0075992 0.00310451 0.0208894 0.00226735 0.00840953 0.00249164 0.0289367 0.00219731 0.0152895 0.0030561 0.0289733 0.00495129 0.0179743 0.00501333 0.0472521
33 3 O 1.75158 5.79852 1.4948 -1.2 1 0.0012429 0.00345433 0.0015434 0.00413675 0.00225825 0.00590411 0.0034029 0.0193107 0.00285225 0.00719269 0.0025672 0.0276847 0.00268933 0.0155346 0.00325342 0.0266644 0.00563707 0.0175603 0.0056049 0.0452465
34 3 O 4.67421 6.06637 0.196716 -1.2 1 0.000911862 0.00281369 0.00133304 0.00493508 0.00191656 0.00682517 0.00300324 0.0196289 0.00258478 0.00813534 0.00208744 0.026178 0.00323784 0.0141621 0.00404418 0.02659 0.00484431 0.0167438 0.00538968 0.0448288
35 1 Mg 6.26654 4.74899 2.9896 1.2 1 0.00165834 0.00352898 0.00181618 0.00494607 0.00259958 0.00672251 0.00377117 0.0175125 0.00372838 0.00676415 0.00239962 0.0256178 0.00368095 0.0146073 0.00500864 0.0245344 0.00634559 0.0176919 0.00722366 0.0427134
36 3 O 4.63043 6.06637 2.79288 -1.2 1 0.00193994 0.00376651 0.00161598 0.00502717 0.00224245 0.00680475 0.00350665 0.0192164 0.00319112 0.00768254 0.00251735 0.0256574 0.00381825 0.014639 0.00428473 0.0270355 0.00636617 0.018538 0.00739477 0.0444631
37 1 Mg -1.12976 4.79031 4.4844 1.2 1 0.00151708 0.00445291 0.00155201 0.00461573 0.00207833 0.00604029 0.00337737 0.0175227 0.00331801 0.00684525 0.00335802 0.0251413 0.00417452 0.0144409 0.00451944 0.0250639 0.00754484 0.0192092 0.00838476 0.042503
38 2 Si -2.9517 7.47444 4.4844 2.4 1 0.00211428 0.00438959 0.000911199 0.00519204 0.00305426 0.00655078 0.0037871 0.0200076 0.00310073 0.00775193 0.00304903 0.026792 0.00407031 0.015659 0.00523235 0.027448 0.0071237 0.0197802 0.00843505 0.0456591
39 3 O -3.00198 5.86121 4.4844 -1.2 1 0.00188359 0.00468719 0.000901373 0.00472884 0.00324949 0.00646429 0.00421158 0.0183297 0.00330904 0.00732079 0.00301966 0.0253535 0.00426966 0.0141571 0.0046904 0.0263558 0.00713902 0.0197497 0.00852415 0.0438521
40 3 O 0.666315 8.44846 4.4844 -1.2 1 0.00247489 0.00500989 0.00102291 0.00487788 0.00266241 0.00754643 0.00283196 0.0206898 0.00309942 0.00775571 0.00337876 0.0281896 0.00439898 0.0156022 0.00435738 0.0287345 0.00659096 0.0202272 0.00832515 0.0469262
41 3 O -2.21213 8.18062 3.18632 -1.2 1 0.00179919 0.0043833 0.00117081 0.00469395 0.00247992 0.0063716 0.0028563 0.0205373 0.00276563 0.0079389 0.00299048 0.0273753 0.00399232 0.015846 0.00482988 0.0286774 0.006127 0.0192113 0.00694488 0.0473359
42 3 O -2.25864 8.18062 5.78248 -1.2 1 0.00263078 0.00490981 0.00127937 0.00475901 0.00297317 0.00586542 0.00300708 0.0199595 0.00238765 0.00838798 0.00350456 0.0260875 0.00432921 0.016143 0.00486307 0.0284747 0.00714544 0.021246 0.00815836 0.0463449
43 1 Mg 1.20893 7.12349 2.9896 1.2 1 0.00157459 0.00423084 0.00153062 0.00448681 0.00260905 0.00673478 0.00377953 0.0194387 0.0028695 0.00810946 0.00267198 0.0276971 0.00339022 0.0156038 0.00346439 0.0271918 0.00579598 0.0186201 0.00648115 0.0459463
44 1 Mg 4.00982 7.08218 4.4844 1.2 1 0.00211484 0.00445231 0.00125613 0.00471781 0.00250521 0.00640631 0.00380542 0.0198349 0.0034629 0.0074929 0.00323027 0.0267422 0.00391225 0.0164055 0.00547023 0.0276926 0.00755886 0.0197459 0.00880417 0.0455608
45 2 Si 2.17861 9.14704 4.4844 2.4 1 0.00233285 0.00479489 0.00122797 0.0047978 0.00290804 0.00741524 0.00368284 0.0208798 0.00280557 0.00817325 0.00314148 0.0277607 0.004312 0.0162825 0.00435603 0.0289325 0.0061685 0.0203765 0.00720889 0.0484129
46 3 O 2.18828 10.7603 4.4844 -1.2 1 0.00279182 0.00473696 0.00133194 0.00441271 0.00269098 0.00718488 0.00296789 0.0208353 0.00252245 0.0081723 0.00251026 0.0283222 0.00382957 0.0154935 0.00411978 0.0301529 0.00659865 0.0208846 0.00702942 0.049134
47 3 O -4.43805 8.17302 4.4844 -1.2 1 0.00178737 0.00477033 0.0012437 0.00503782 0.00256906 0.00760644 0.00318762 0.020461 0.00313753 0.00829078 0.00315691 0.0276665 0.00433629 0.0156805 0.00462709 0.0287359 0.00715471 0.0201981 0.00909764 0.046235
48 3 O 2.89193 8.44087 3.18632 -1.2 1 0.00217048 0.00403212 0.00118767 0.00455845 0.00238282 0.00696603 0.00328789 0.0204448 0.00286156 0.00850288 0.00288126 0.0273057 0.00362208 0.0156545 0.00432707 0.0286355 0.00623788 0.0193079 0.00624971 0.0472801
49 1 Mg 1.25915 7.12349 0 1.2 1 0.00105091 0.0029518 0.00105835 0.00429613 0.00173357 0.00708156 0.0030387 0.020081 0.00282008 0.0082155 0.00238431 0.0275766 0.00329045 0.0142459 0.0034705 0.0275 0.0047676 0.0174934 0.0042902 0.0457262
50 3 O 2.84547 8.44087 5.78248 -1.2 1 0.00270995 0.00531398 0.00132731 0.00429677 0.00268736 0.00642561 0.00333972 0.0203935 0.00307113 0.0085054 0.00353962 0.0262265 0.00530139 0.0161452 0.00524543 0.0288091 0.00652192 0.0217136 0.0081477 0.0467851
51 1 Mg -1.59284 7.16481 1.4948 1.2 1 0.000975118 0.00340211 0.00085134 0.004895 0.00172615 0.00637569 0.00262856 0.0198341 0.00287868 0.00781048 0.00183813 0.0276178 0.00315966 0.0156233 0.00352926 0.0269452 0.00491093 0.0178111 0.00547718 0.0462088
52 2 Si 0.240329 5.09994 1.4948 2.4 1 0.00117282 0.00367791 0.00150476 0.00417338 0.00180912 0.00672291 0.00317807 0.0187049 0.0031637 0.00722331 0.00223502 0.0258728 0.00261686 0.0146147 0.00394713 0.024698 0.00543644 0.0169038 0.00510581 0.044385
53 3 O 0.234538 3.48671 1.4948 -1.2 1 0.00132179 0.00371572 0.00235196 0.00429079 0.00188226 0.00639586 0.00265075 0.0176405 0.00338461 0.00665514 0.00229504 0.0242444 0.00300309 0.0137005 0.00369808 0.0239511 0.00572408 0.0160105 0.0053636 0.0421641
54 3 O 6.85564 6.07396 1.4948 -1.2 1 0.00110619 0.00276621 0.00195957 0.00504831 0.0023317 0.00621899 0.00312908 0.0197491 0.00309552 0.00747593 0.00221073 0.0273416 0.00320045 0.0146415 0.00455187 0.0267277 0.00585328 0.0178732 0.00641715 0.0448871
55 3 O -0.429565 5.80612 0.196716 -1.2 1 0.000873173 0.00319983 0.00174268 0.00426533 0.00174249 0.0071182 0.00251772 0.0194552 0.00294211 0.00825325 0.00236367 0.0255707 0.0023383 0.0142058 0.00367409 0.0259521 0.00517091 0.0169191 0.00541539 0.0449838
56 3 O -0.473377 5.80612 2.79288 -1.2 1 0.00176468 0.00378704 0.00143725 0.00453514 0.00212139 0.00679531 0.00323336 0.0188443 0.00313782 0.00778199 0.00299126 0.0256493 0.00370525 0.0145946 0.00422759 0.0260708 0.00677464 0.018432 0.00719523 0.0448453
57 1 Mg 6.40169 9.49799 0 1.2 1 0.000713411 0.00340637 0.00130347 0.00482927 0.00137106 0.00816393 0.0021446 0.0211702 0.00174551 0.00910061 0.00151995 0.0288675 0.0021686 0.0144787 0.00250908 0.0295444 0.00382788 0.0180821 0.00396072 0.0470261
58 1 Mg 3.64209 14.2057 1.4948 1.2 1 0.00149561 0.0030887 0.00138219 0.0049107 0.00136842 0.00885155 0.00144025 0.0214702 0.00171905 0.0086312 0.00225492 0.0284475 0.00227189 0.0156127 0.00280324 0.0297482 0.00398322 0.0172547 0.00374855 0.0487616
59 2 Si 5.45748 11.5215 1.4948 2.4 1 0.00110789 0.00304041 0.00139968 0.00494519 0.00164586 0.00819484 0.0021032 0.0210324 0.00144855 0.00842983 0.00189323 0.0290212 0.00243927 0.0158003 0.00310493 0.0292282 0.00439277 0.0174179 0.00391831 0.0485755
60 3 O 5.51101 13.1348 1.4948 -1.2 1 0.00136595 0.00304128 0.00153323 0.00493587 0.00134898 0.00902082 0.00162394 0.0210696 0.00181726 0.00870591 0.00181223 0.0294884 0.00191324 0.0157978 0.00264936 0.0299206 0.00424833 0.0171361 0.00388114 0.0483521
61 3 O 1.83851 10.5475 1.4948 -1.2 1 0.00097245 0.0034446 0.00123923 0.00513412 0.0016784 0.00771835 0.00226261 0.0215617 0.00181481 0.00845492 0.00222493 0.029485 0.00219834 0.0155199 0.00303313 0.0297025 0.00465563 0.0184932 0.00383611 0.0484497
62 3 O 4.7611 10.8154 0.196716 -1.2 1 0.000805462 0.00271137 0.00146967 0.00486453 0.00134612 0.00841738 0.00209749 0.0212113 0.001535 0.00874983 0.00188629 0.0284888 0.00266431 0.0151202 0.00334631 0.0293837 0.00378487 0.0175608 0.00364329 0.0479193
63 1 Mg 6.35203 9.49799 2.9896 1.2 1 0.00127982 0.00392998 0.00124309 0.00505741 0.00259583 0.00756355 0.00331613 0.0204005 0.00297933 0.00843501 0.00225865 0.0290211 0.00351714 0.0160368 0.00319515 0.0288734 0.00468295 0.0188963 0.00595779 0.0475971
64 3 O 4.71833 10.8154 2.79288 -1.2 1 0.00204299 0.00374457 0.00116426 0.00475158 0.00205741 0.00809544 0.00215306 0.0213111 0.00202955 0.00891383 0.00224148 0.0282323 0.00320743 0.0156465 0.00353156 0.0297688 0.00562968 0.019132 0.00585276 0.0488301
65 1 Mg -1.0438 9.53931 4.4844 1.2 1 0.00257393 0.0048637 0.00105308 0.00455078 0.00275436 0.00676501 0.00272156 0.0205896 0.00276978 0.00840062 0.00290177 0.0279623 0.00373414 0.0164702 0.00430316 0.0292707 0.00667327 0.0203972 0.00756851 0.0481814
66 2 Si -2.8604 12.2234 4.4844 2.4 1 0.00252448 0.00432305 0.00144679 0.00453034 0.0027396 0.00765755 0.00287953 0.0216866 0.00265522 0.00867938 0.00262065 0.0281037 0.003794 0.0164649 0.0042471 0.029503 0.00596439 0.0202722 0.00684056 0.0496692
67 3 O -2.91391 10.6102 4.4844 -1.2 1 0.00284543 0.0046446 0.00125113 0.00459995 0.00284574 0.00706495 0.00310991 0.0203687 0.00268054 0.00785137 0.00260644 0.0282809 0.00397244 0.0156152 0.00400692 0.0300355 0.00614594 0.0203075 0.00730805 0.0486439
68 3 O 0.7596 13.1975 4.4844 -1.2 1 0.00262867 0.00453718 0.00132148 0.00486185 0.00266509 0.00858156 0.00244923 0.0219657 0.00280164 0.00853518 0.00304539 0.0285637 0.00394408 0.0161496 0.00409423 0.029547 0.00642985 0.0206489 0.00685789 0.0491991
69 3 O -2.12001 12.9296 3.18632 -1.2 1 0.00245236 0.00380324 0.00142034 0.00427561 0.00235466 0.00767861 0.00215335 0.0217061 0.00232839 0.00853167 0.00246472 0.0278799 0.00332565 0.0159659 0.00434632 0.030052 0.00567247 0.0193043 0.00583983 0.049351
70 3 O -2.16532 12.9296 5.78248 -1.2 1 0.00315124 0.00470838 0.00120978 0.00455866 0.00279455 0.00656314 0.00212108 0.0216211 0.00242826 0.00862428 0.00307778 0.0272912 0.00353217 0.0166069 0.0048814 0.0305965 0.00658569 0.0222469 0.00658675 0.0500874
71 1 Mg 1.29891 11.8725 2.9896 1.2 1 0.00184929 0.00357836 0.00136257 0.00501131 0.00216829 0.0080693 0.00262481 0.0210858 0.00247923 0.00859434 0.00220127 0.0291041 0.00316351 0.016053 0.00336419 0.0295655 0.00505986 0.0188619 0.00542629 0.0486374
72 1 Mg 4.10033 11.8312 4.4844 1.2 1 0.00250435 0.00427236 0.00139807 0.00456403 0.00257157 0.00721776 0.00262598 0.0213077 0.00247138 0.00843426 0.00296254 0.0286631 0.00342457 0.01713 0.00480433 0.0296335 0.00688478 0.0202941 0.00675505 0.049412
73 2 Si 2.27333 13.896 4.4844 2.4 1 0.00250353 0.00371886 0.00140532 0.00503628 0.00279346 0.00775255 0.00320645 0.0218552 0.00242525 0.00830371 0.0031526 0.0281453 0.0033586 0.0164048 0.00417044 0.0300562 0.00611931 0.0200474 0.00663911 0.0503957
74 3 O 2.28634 15.5093 4.4844 -1.2 1 0.00292299 0.00389401 0.00140715 0.00470228 0.00268526 0.00726023 0.00279355 0.0209102 0.00270333 0.00782187 0.00244441 0.0283795 0.0027307 0.0158424 0.00389705 0.0303538 0.00650366 0.0196924 0.00684567 0.0498919
75 3 O -4.34533 12.922 4.4844 -1.2 1 0.00247423 0.00420953 0.00140188 0.00474291 0.00272919 0.00825925 0.00272817 0.0218641 0.00264591 0.00869439 0.00275562 0.0286799 0.00364851 0.0162013 0.00483433 0.0298714 0.00696971 0.0207236 0.00746121 0.0493947
76 3 O 2.98455 13.1899 3.18632 -1.2 1 0.00228203 0.00366694 0.00123753 0.00469674 0.00223191 0.00790224 0.00205541 0.0218271 0.00232443 0.00860969 0.00267953 0.0279599 0.00316069 0.0157766 0.00409839 0.0298159 0.00600531 0.0191961 0.00591041 0.0492986
77 1 Mg 1.34779 11.8725 0 1.2 1 0.00108205 0.0026079 0.00106457 0.00504729 0.0011354 0.00882116 0.00154384 0.0211907 0.00145278 0.00918123 0.00186921 0.029179 0.00249831 0.01462 0.00263507 0.0299216 0.00331523 0.017541 0.00318072 0.0475908
78 3 O 2.93934 13.1899 5.78248 -1.2 1 0.00277683 0.00473485 0.00123596 0.00482105 0.00280019 0.00701848 0.00234591 0.0217817 0.00259066 0.00847329 0.00309275 0.0271431 0.00391407 0.0164234 0.00442573 0.0305437 0.00679649 0.0226147 0.00707754 0.0502034
79 1 Mg -1.50344 11.9138 1.4948 1.2 1 0.000909418 0.0033607 0.00116263 0.00484628 0.00131459 0.00825933 0.00169803 0.0215998 0.00255003 0.00853271 0.00154258 0.0289441 0.00333808 0.0158434 0.00301176 0.0297005 0.00383537 0.0179913 0.00410529 0.048418
80 2 Si 0.326006 9.84894 1.4948 2.4 1 0.000563327 0.00343863 0.000941472 0.0052219 0.00165602 0.00809258 0.00209338 0.0210501 0.00221529 0.00839452 0.00156497 0.0285712 0.00247194 0.0155029 0.00319917 0.0286871 0.00406701 0.0181458 0.00371754 0.0478365
81 3 O 0.317364 8.23571 1.4948 -1.2 1 0.00131256 0.00370115 0.000698083 0.0046769 0.00171527 0.00755167 0.00223334 0.0201937 0.00276354 0.00801799 0.00171765 0.0285926 0.00321586 0.0156206 0.00356741 0.0284283 0.00472831 0.0179419 0.00430837 0.047051
82 3 O 6.94307 10.823 1.4948 -1.2 1 0.000614239 0.00350931 0.00113469 0.00487156 0.00172552 0.00767612 0.00258929 0.0217824 0.00235549 0.00843488 0.00165162 0.0295946 0.00277726 0.0156337 0.00298597 0.0298588 0.00407248 0.0185267 0.00443596 0.0484444
83 3 O -0.343122 10.5551 0.196716 -1.2 1 0.00038312 0.00316652 0.00102637 0.00509035 0.00120248 0.00832652 0.00181403 0.0213038 0.00197267 0.0088605 0.00182711 0.0282875 0.00297381 0.0151613 0.00375572 0.0293798 0.00378512 0.0176307 0.00339812 0.0478999
84 3 O -0.385966 10.5551 2.79288 -1.2 1 0.00224954 0.00417139 0.00066999 0.00462063 0.00235407 0.00800411 0.00208454 0.0214842 0.00227148 0.00897098 0.00248857 0.0277439 0.00370262 0.0158707 0.00399445 0.0296977 0.00561053 0.01917 0.00549719 0.048779
85 1 Mg 6.49448 14.247 0 1.2 1 0.00132298 0.00296336 0.00140078 0.0050124 0.000915779 0.009161 0.00129453 0.0211298 0.00131374 0.00868346 0.00135623 0.0288762 0.00171224 0.0151774 0.00239366 0.0300449 0.0031524 0.0166797 0.00289329 0.0475987
86 1 Mg 3.74457 18.9547 1.4948 1.2 1 0.00231553 0.00318374 0.00100371 0.00411145 0.00157731 0.00862606 0.00108848 0.0220492 0.00204011 0.00795128 0.00233616 0.0276631 0.00243923 0.016297 0.00347672 0.028984 0.0040085 0.0164572 0.00365554 0.0494136
87 2 Si 5.55495 16.2705 1.4948 2.4 1 0.00181143 0.00258253 0.00135651 0.00474294 0.00173074 0.00888874 0.0012218 0.0211997 0.00149955 0.00797904 0.00139154 0.0286957 0.00217578 0.0159862 0.00261295 0.0290193 0.00417 0.0162627 0.00386679 0.0488929
88 3 O 5.6115 17.8838 1.4948 -1.2 1 0.00187951 0.00286731 0.0013829 0.00454583 0.00161015 0.00916345 0.0014782 0.0215366 0.00188948 0.0078638 0.0014159 0.0286878 0.00209072 0.0163595 0.00270781 0.0291366 0.0037929 0.0160112 0.00394778 0.0490892
89 3 O 1.93416 15.2965 1.4948 -1.2 1 0.00145077 0.00299674 0.00132477 0.00485402 0.00164083 0.00836381 0.00166918 0.0218066 0.001894 0.00803547 0.00168581 0.0290056 0.00180836 0.0158445 0.00267674 0.0296773 0.00427771 0.0170893 0.00385414 0.0490953
90 3 O 4.85636 15.5644 0.196716 -1.2 1 0.00164049 0.00223627 0.00114458 0.00481202 0.0010225 0.00912441 0.00125261 0.0212641 0.00121622 0.00822354 0.00165964 0.0280906 0.00251839 0.0157683 0.00338449 0.0294924 0.00347511 0.0159092 0.0032157 0.0484724
91 1 Mg 6.44662 14.247 2.9896 1.2 1 0.00147691 0.00350861 0.00126035 0.00477765 0.00234793 0.008515 0.00267193 0.0207015 0.00257749 0.00867997 0.00194512 0.0292189 0.00271137 0.0161068 0.00281203 0.029473 0.0047342 0.0183319 0.00512601 0.0487146
92 3 O 4.81537 15.5644 2.79288 -1.2 1 0.00243315 0.00331085 0.00122838 0.00468767 0.00205638 0.00885517 0.00161156 0.0217567 0.00194915 0.00856587 0.00200598 0.0278519 0.0027624 0.016205 0.00347255 0.029494 0.00555501 0.0180739 0.00547665 0.0492918
93 1 Mg -0.948271 14.2883 4.4844 1.2 1 0.0027276 0.00392629 0.00139185 0.00456276 0.00273313 0.00775498 0.00249543 0.0214206 0.0028267 0.00841061 0.00280808 0.0283976 0.00313639 0.0166226 0.00483143 0.030014 0.0064264 0.0201936 0.00695203 0.0498325
94 2 Si -2.75928 16.9724 4.4844 2.4 1 0.0026407 0.00356648 0.00137197 0.00485226 0.00283355 0.00802472 0.0024708 0.0218132 0.00258372 0.00786081 0.00257926 0.0280136 0.00291198 0.01671 0.00431953 0.0293208 0.00567667 0.0195291 0.00651292 0.0509069
95 3 O -2.81617 15.3592 4.4844 -1.2 1 0.00283036 0.00384802 0.00142021 0.00460725 0.0028759 0.00745592 0.00258437 0.0208637 0.00241218 0.00782804 0.00233401 0.0284208 0.00322541 0.0157882 0.00402305 0.0301182 0.00645806 0.0198244 0.0067602 0.0497545
96 3 O 0.862762 17.9465 4.4844 -1.2 1 0.0031026 0.00410219 0.00132123 0.00480021 0.00264456 0.00849055 0.0021526 0.0222156 0.00258495 0.0079211 0.00254276 0.0282713 0.00303644 0.0165737 0.00420556 0.0290276 0.00629824 0.0196445 0.00663032 0.0501766
97 3 O -2.0185 17.6786 3.18632 -1.2 1 0.00234271 0.00335901 0.00154138 0.00431073 0.00247259 0.00774889 0.00192467 0.0220597 0.00226792 0.00792539 0.00239646 0.0276589 0.00306113 0.0164383 0.00435159 0.0297431 0.0053998 0.0182913 0.00555882 0.0502781
98 3 O -2.06164 17.6786 5.78248 -1.2 1 0.00296222 0.00416933 0.00130608 0.00469642 0.00265385 0.00684495 0.00193028 0.021883 0.00222655 0.00815539 0.00247183 0.0276498 0.00252559 0.0169362 0.00406967 0.030367 0.00663388 0.0216977 0.0067317 0.051059
99 1 Mg 1.39817 16.6215 2.9896 1.2 1 0.00244807 0.00325607 0.00135193 0.00474629 0.00236115 0.00858221 0.00239732 0.0212184 0.00248668 0.00818829 0.00221809 0.0287047 0.00231415 0.0162095 0.00325155 0.0292874 0.00477098 0.017387 0.00506531 0.049164
100 1 Mg 4.20062 16.5802 4.4844 1.2 1 0.00275397 0.00378289 0.0015514 0.00476151 0.00237367 0.00760038 0.00223737 0.0215264 0.00299344 0.00799265 0.00296847 0.0282211 0.00301276 0.0173106 0.00511813 0.0295075 0.00695149 0.019639 0.00661459 0.0498994
101 2 Si 2.37796 18.645 4.4844 2.4 1 0.00266343 0.0037245 0.00121307 0.00489299 0.00261882 0.0080588 0.00262378 0.0220899 0.00252491 0.00795699 0.00259196 0.0276258 0.00320073 0.0167257 0.00443954 0.0291405 0.00576608 0.0190875 0.00638919 0.0510117
102 3 O 2.39434 20.2583 4.4844 -1.2 1 0.00257367 0.00406902 0.00119877 0.00456287 0.00286247 0.00728608 0.00239075 0.0211854 0.00267607 0.00738902 0.0019418 0.0282976 0.00306691 0.0164453 0.00424925 0.0295205 0.00606887 0.0190429 0.00703839 0.0507587
103 3 O -4.24274 17.671 4.4844 -1.2 1 0.00225433 0.00396866 0.00145091 0.00493887 0.00266446 0.00853687 0.00236048 0.022224 0.00286353 0.00796409 0.0025453 0.0282494 0.0030411 0.0165538 0.00472113 0.0292536 0.00652467 0.0198533 0.00703668 0.0501364
104 3 O 3.08659 17.9389 3.18632 -1.2 1 0.00262033 0.00330088 0.0012548 0.00441704 0.00238459 0.00807026 0.00176548 0.0220326 0.00243874 0.00788861 0.00228314 0.0274446 0.00294417 0.0162413 0.00390677 0.0291315 0.0057385 0.0180077 0.00588359 0.0499131
105 1 Mg 1.44478 16.6215 0 1.2 1 0.00230941 0.00246998 0.00085568 0.00451354 0.0012264 0.00890658 0.0009759 0.0213557 0.00151248 0.00825774 0.00153402 0.0285295 0.00210955 0.0154659 0.00206288 0.0294146 0.0031501 0.0161788 0.00299981 0.0482474
106 3 O 3.0436 17.9389 5.78248 -1.2 1 0.00292892 0.0043243 0.00140485 0.00502183 0.00267354 0.00704913 0.00210698 0.0216254 0.00233057 0.00830412 0.00286188 0.0271826 0.00311315 0.0166097 0.00487516 0.0305205 0.00647696 0.0218001 0.00648417 0.0513715
107 1 Mg -1.40524 16.6628 1.4948 1.2 1 0.00158298 0.00288923 0.00120152 0.00482656 0.00148762 0.00870794 0.00168487 0.022099 0.00215747 0.00834016 0.00182454 0.0281712 0.00300612 0.0164445 0.00270549 0.0294183 0.00334786 0.0170494 0.00356195 0.048709
108 2 Si 0.420358 14.5979 1.4948 2.4 1 0.00114497 0.00275629 0.00128606 0.00513824 0.00180932 0.00903323 0.00162665 0.0213109 0.00188444 0.00829905 0.00164335 0.0285217 0.00254923 0.0161314 0.00304177 0.028747 0.00387934 0.0168428 0.00370054 0.048557
109 3 O 0.408732 12.9847 1.4948 -1.2 1 0.00120708 0.00292598 0.00101147 0.00510034 0.00161911 0.00900003 0.00143622 0.021174 0.00240561 0.00843384 0.00148201 0.0291229 0.00284442 0.0157491 0.00279813 0.0295904 0.00362904 0.0174712 0.00404473 0.048228
110 3 O 7.03923 15.572 1.4948 -1.2 1 0.00128733 0.00291939 0.00115787 0.0047978 0.0018593 0.00836192 0.00200541 0.0216322 0.002198 0.00808796 0.00173551 0.0292937 0.00250151 0.0161096 0.00272194 0.0295398 0.00401358 0.0171345 0.00424768 0.0488788
111 3 O -0.248332 15.3041 0.196716 -1.2 1 0.00165271 0.00247952 0.00091217 0.00474169 0.000883052 0.00892475 0.00172698 0.0212087 0.0015578 0.0083476 0.00154593 0.0282019 0.0025816 0.0155707 0.00336166 0.0292855 0.00345778 0.0163116 0.0032136 0.0482128
112 3 O -0.289436 15.3041 2.79288 -1.2 1 0.00242102 0.00321953 0.00124945 0.00458677 0.00228003 0.0086767 0.00185767 0.0218812 0.00208143 0.00875772 0.00208425 0.0275472 0.00293426 0.0163611 0.00353702 0.0294938 0.00529417 0.0183365 0.00511991 0.04926
113 1 Mg 6.59566 18.996 0 1.2 1 0.00190437 0.0028757 0.0011109 0.00430204 0.00102666 0.00868377 0.00117167 0.0218296 0.00132811 0.00784548 0.00156071 0.0278049 0.00223896 0.0162133 0.00243341 0.029038 0.00302168 0.0157726 0.0028146 0.0485378
114 1 Mg 3.85574 23.7037 1.4948 1.2 1 0.00169982 0.00289543 0.00106967 0.00436885 0.00147986 0.00767554 0.00124954 0.0231112 0.0018213 0.00740229 0.00213593 0.0270778 0.00236923 0.0175819 0.0037485 0.0285166 0.00363919 0.0173291 0.00353775 0.0503213
115 2 Si 5.66125 21.0195 1.4948 2.4 1 0.00187294 0.00264007 0.000981215 0.00444715 0.00185139 0.00834168 0.0013535 0.0217728 0.00134566 0.00742851 0.00152406 0.0279538 0.00237654 0.0172328 0.0026926 0.0282305 0.00405366 0.0160011 0.00403239 0.0498328
116 3 O 5.72074 22.6328 1.4948 -1.2 1 0.00182761 0.00296096 0.00121075 0.00436965 0.0016887 0.00838733 0.00151008 0.0222975 0.00188213 0.0071201 0.00133346 0.0277785 0.00216576 0.0171776 0.00311228 0.0285533 0.0036295 0.0165318 0.00361943 0.0498162
117 3 O 2.03867 20.0455 1.4948 -1.2 1 0.00193314 0.0032306 0.00113705 0.00445429 0.00182046 0.00783518 0.00187277 0.0221434 0.00214562 0.00747628 0.00150724 0.028344 0.00201812 0.0169216 0.00247811 0.0290694 0.00399066 0.0164042 0.00388652 0.0500214
118 3 O 4.96004 20.3134 0.196716 -1.2 1 0.00218371 0.00251364 0.00106536 0.00425239 0.00109666 0.00839547 0.00107787 0.0217011 0.00114562 0.00746053 0.00158084 0.0273752 0.00266255 0.0165803 0.00370236 0.0289436 0.00340162 0.0151215 0.00306589 0.049232
119 1 Mg 6.55057 18.996 2.9896 1.2 1 0.00153942 0.00337447 0.00121522 0.00459488 0.00249565 0.00831355 0.00261312 0.021206 0.00246967 0.00793025 0.00170629 0.0289481 0.00280699 0.0168409 0.0030537 0.028846 0.00455934 0.0175865 0.00503202 0.0495816