ITEM: TIMESTEP
32600
ITEM: NUMBER OF ATOMS
10500
ITEM: BOX BOUNDS xy xz yz pp pp pp
0	15.2977	5.09925
0	118.725	0
0	89.688	0
ITEM: ATOMS id type element xu yu zu q Q_1 Q_2 Q_3 Q_4 Q_5 Q_6 Q_7 Q_8 Q_9 Q_10 Q_11 Q_12 Q_13 Q_14 Q_15 Q_16 Q_17 Q_18 Q_19 Q_20 Q_21
1 1 Mg 6.2404 -6.37941e-06 0 1.2 1 0.000950682 0.00441205 0.00140278 0.00484322 0.00112617 0.00562678 0.00216327 0.0160847 0.00215787 0.00536295 0.00220782 0.0216395 0.00217565 0.0136943 0.00315085 0.0204364 0.00400826 0.0141559 0.00379117 0.0403646
2 1 Mg 3.46349 4.70768 1.4948 1.2 1 0.00123283 0.00360425 0.0017003 0.00451587 0.00186162 0.00605731 0.00364118 0.0185588 0.00291901 0.00678391 0.00294509 0.0252949 0.00292845 0.0143626 0.0042255 0.0249752 0.00544455 0.0167704 0.00602568 0.0435607
3 2 Si 5.2885 2.02354 1.4948 2.4 1 0.000422812 0.00379201 0.00229528 0.0045293 0.00181832 0.0057606 0.00246309 0.0167893 0.00256133 0.00587257 0.00217833 0.0226102 0.00255075 0.0137942 0.00332182 0.0211345 0.00384049 0.0151656 0.00442039 0.0405964
4 3 O 5.33628 3.63678 1.4948 -1.2 1 0.000754881 0.00324952 0.00177197 0.00482962 0.00207591 0.00628719 0.00295556 0.0175881 0.00246151 0.00647542 0.00207049 0.024708 0.0024418 0.0140354 0.00413297 0.0237311 0.00516505 0.0160423 0.00602849 0.042375
5 3 O 1.67294 1.04952 1.4948 -1.2 1 0.00122276 0.00392531 0.00191224 0.00435293 0.00131697 0.00562313 0.00253919 0.0165539 0.00232914 0.00562779 0.00213829 0.0221848 0.00236742 0.0130827 0.00312385 0.021508 0.00469253 0.0154897 0.00494891 0.039903
6 3 O 4.59532 1.31737 0.196716 -1.2 1 0.000702073 0.00334112 0.00217969 0.00432846 0.00189126 0.00557641 0.0024099 0.0172155 0.00282962 0.0058868 0.00205808 0.0220787 0.0030024 0.0130425 0.00392484 0.0213774 0.00410102 0.0147892 0.00436659 0.0407322
7 1 Mg 6.18956 -6.37941e-06 2.9896 1.2 1 0.000428356 0.00510669 0.00147996 0.00427012 0.00132554 0.00571319 0.0023867 0.0158856 0.00295724 0.00511486 0.00210971 0.0219058 0.00260503 0.013709 0.00356766 0.0200962 0.00464882 0.0145162 0.00520415 0.0387257
8 3 O 4.55118 1.31737 2.79288 -1.2 1 0.000959812 0.00489189 0.00229934 0.00434854 0.00161253 0.00565303 0.00260486 0.0166303 0.00251709 0.00660232 0.00246736 0.0210566 0.00313231 0.0126676 0.00342557 0.0210961 0.00491075 0.014992 0.00564727 0.0393686
9 1 Mg -1.20682 0.0413099 4.4844 1.2 1 0.000909826 0.00334027 0.0018659 0.00476964 0.00154363 0.00538096 0.00200724 0.0158392 0.00225564 0.00549428 0.00229621 0.0221652 0.0032201 0.0121745 0.00346412 0.0201704 0.00542483 0.0153678 0.00556456 0.0383143
10 2 Si -3.0337 2.72544 4.4844 2.4 1 0.00101696 0.00370228 0.00178541 0.00511816 0.00224044 0.00609691 0.00323011 0.0164843 0.00328963 0.00633241 0.0022326 0.0233151 0.00325283 0.0135765 0.0042537 0.0215363 0.00547915 0.017072 0.00654462 0.0388068
11 3 O -3.08099 1.11221 4.4844 -1.2 1 0.00113623 0.00423582 0.00187994 0.0044739 0.00126449 0.0052288 0.00239818 0.015803 0.00306219 0.00541922 0.00227227 0.0218366 0.00319248 0.0120101 0.00371777 0.0207681 0.0050528 0.0156258 0.0058172 0.0377212
12 3 O 0.582463 3.69946 4.4844 -1.2 1 0.00186175 0.00470962 0.00195037 0.0046024 0.00247341 0.00654378 0.00350466 0.016884 0.00339426 0.00664895 0.00300523 0.0242252 0.00399018 0.0134078 0.00446815 0.0238245 0.00728111 0.0182836 0.00852697 0.0407155
13 3 O -2.29524 3.43162 3.18632 -1.2 1 0.000922862 0.00321842 0.00249309 0.00484764 0.00224755 0.00596475 0.00287578 0.0176893 0.003304 0.00638372 0.00278674 0.0240212 0.0032158 0.0133892 0.00459738 0.0235553 0.00622606 0.0173847 0.00707371 0.0411961
14 3 O -2.34216 3.43162 5.78248 -1.2 1 0.00168048 0.00410777 0.00119646 0.00504484 0.00248638 0.0058501 0.00334917 0.0165662 0.00300958 0.00717815 0.00254775 0.0229248 0.00423599 0.0130981 0.00420546 0.0226071 0.00641187 0.0187662 0.00766747 0.0395137
15 1 Mg 1.12778 2.37449 2.9896 1.2 1 0.00129866 0.00408281 0.00226509 0.0047351 0.00212052 0.00585912 0.00303624 0.0164522 0.00281177 0.0059821 0.00240164 0.0227832 0.0029385 0.0134067 0.00337476 0.021379 0.00513896 0.0161031 0.00601979 0.0400303
16 1 Mg 3.92855 2.33318 4.4844 1.2 1 0.00133832 0.00470975 0.00180042 0.00459574 0.00156618 0.00567685 0.00347971 0.0164492 0.00319622 0.00603092 0.00298013 0.0223758 0.00366727 0.0138869 0.00517002 0.0212604 0.00658115 0.0165925 0.00745138 0.0392402
17 2 Si 2.09341 4.39804 4.4844 2.4 1 0.001839 0.00463235 0.00196807 0.00437414 0.00295734 0.00582094 0.00374652 0.0178757 0.00351286 0.00690165 0.00325931 0.0240942 0.00420562 0.0145601 0.00423873 0.0241823 0.00709571 0.0180948 0.00891973 0.0424077
18 3 O 2.09991 6.01128 4.4844 -1.2 1 0.00232995 0.0046228 0.00155571 0.00424856 0.00284016 0.00633427 0.00325021 0.0188101 0.00280524 0.00748448 0.00307536 0.0260572 0.00385546 0.0148889 0.00476862 0.0268097 0.00719366 0.0188994 0.00843239 0.0443158
19 3 O -4.52137 3.42402 4.4844 -1.2 1 0.00121491 0.0040098 0.00215072 0.00497953 0.00217784 0.00685926 0.00343153 0.0167725 0.00334541 0.00662049 0.00309879 0.0230209 0.00377698 0.0133226 0.00421315 0.0220239 0.00650957 0.0172512 0.00783504 0.0400968
20 3 O 2.80834 3.69187 3.18632 -1.2 1 0.00160363 0.00408949 0.00178001 0.00403399 0.00192761 0.00565426 0.00317386 0.0171345 0.00293313 0.00640784 0.00280255 0.0235665 0.00336183 0.0135662 0.00448413 0.0233352 0.00598101 0.0166066 0.00679472 0.0418229
21 1 Mg 1.17857 2.37449 0 1.2 1 0.00161573 0.00397836 0.00164575 0.00431045 0.00150311 0.00542712 0.00251974 0.0172498 0.0023912 0.00632217 0.00273213 0.0228878 0.00259308 0.0133955 0.00326381 0.0216411 0.0044523 0.0148743 0.00485727 0.0410105
22 3 O 2.76143 3.69187 5.78248 -1.2 1 0.00188452 0.00463122 0.00199309 0.00450983 0.00216813 0.00528992 0.00280753 0.0171813 0.00316917 0.00729882 0.00281453 0.022896 0.00452233 0.0137114 0.00532513 0.0228387 0.00688745 0.0181658 0.00774802 0.0400893
23 1 Mg -1.67381 2.41581 1.4948 1.2 1 0.000809468 0.00336007 0.00243933 0.00492665 0.00139522 0.00593006 0.0023602 0.0165359 0.00283924 0.00601572 0.00191305 0.023576 0.00245574 0.014263 0.00276417 0.0219358 0.00455484 0.0159437 0.00520473 0.0411817
24 2 Si 0.16286 0.350945 1.4948 2.4 1 0.00130498 0.00329405 0.00256194 0.00460956 0.00141376 0.0062291 0.00285212 0.0163033 0.00238924 0.00489172 0.00200357 0.0225304 0.00212037 0.0137179 0.00287487 0.0204785 0.00479061 0.0146915 0.00457657 0.0402613
25 3 O 0.15972 -1.26229 1.4948 -1.2 1 0.00133216 0.00313621 0.00279498 0.00467159 0.00190926 0.0060359 0.00245668 0.0162434 0.00245208 0.0050685 0.00241483 0.0223166 0.00237714 0.0138665 0.00275147 0.0213196 0.00439219 0.014491 0.00419839 0.0404639
26 3 O 6.77654 1.32496 1.4948 -1.2 1 0.000634694 0.00426336 0.00151591 0.00456028 0.00136417 0.00601311 0.00224198 0.0165608 0.00266258 0.00507411 0.00201202 0.0232088 0.00258482 0.0138233 0.00335268 0.0213329 0.00465564 0.0151703 0.00472142 0.0403307
27 3 O -0.508028 1.05712 0.196716 -1.2 1 0.00121087 0.00348525 0.00314133 0.00439033 0.0015563 0.00562308 0.00247219 0.0169831 0.00192013 0.00624994 0.00252838 0.0216604 0.00242734 0.0129697 0.00281857 0.0210363 0.00428157 0.01494 0.00438824 0.0399827
28 3 O -0.552171 1.05712 2.79288 -1.2 1 0.000818633 0.0031069 0.0027675 0.00465936 0.00133131 0.00622384 0.00231396 0.0158378 0.00263391 0.00582489 0.00202849 0.0221017 0.00291279 0.0122835 0.00362615 0.0210694 0.00566888 0.0155017 0.005498 0.0389784
29 1 Mg 6.31713 4.74899 0 1.2 1 0.000886224 0.00299966 0.00199458 0.00470012 0.00223078 0.00607914 0.0034325 0.0180326 0.00274877 0.00678581 0.00211713 0.0249318 0.00262732 0.0140617 0.00406753 0.0246453 0.00485443 0.016264 0.00597811 0.0429289
30 1 Mg 3.54847 9.45668 1.4948 1.2 1 0.000979248 0.00322565 0.0017064 0.00457421 0.00209026 0.00760549 0.00316328 0.0213736 0.0016659 0.0085156 0.00223198 0.0282372 0.00291554 0.0157335 0.00360972 0.028971 0.00457269 0.0180163 0.00406994 0.0485448
31 2 Si 5.36879 6.77254 1.4948 2.4 1 0.000754799 0.00304766 0.00195889 0.00509226 0.00268473 0.00688362 0.00378091 0.0196594 0.00270944 0.00766188 0.00251611 0.0272182 0.00305195 0.0155639 0.00402309 0.0267365 0.0049857 0.01702 0.00554682 0.046346
32 3 O 5.41937 8.38578 1.4948 -1.2 1 0.00096856 0.00300962 0.00166046 0.00498815 0.0022823 0.00776608 0.00317815 0.0209715 0.00215018 0.00835413 0.00237168 0.0288385 0.00216238 0.0158091 0.00291298 0.0288985 0.00488721 0.0172414 0.00520157 0.0478851
33 3 O 1.75158 5.79852 1.4948 -1.2 1 0.00130165 0.00375087 0.0015371 0.00424386 0.00236002 0.00590855 0.00331361 0.0194843 0.0028624 0.00720314 0.0027219 0.0273611 0.00281218 0.0157551 0.00344483 0.0266148 0.00562021 0.0173358 0.0058481 0.0453525
34 3 O 4.67421 6.06637 0.196716 -1.2 1 0.000788041 0.00307117 0.00170376 0.00475433 0.00198199 0.00681558 0.00291675 0.0198668 0.002495 0.0079855 0.00216378 0.0258622 0.00333156 0.0145447 0.0039107 0.0265423 0.00495767 0.0165101 0.00570594 0.0451838
35 1 Mg 6.26654 4.74899 2.9896 1.2 1 0.00147398 0.00335404 0.00204911 0.00502485 0.00261482 0.00652177 0.00376634 0.0177467 0.00390317 0.00707217 0.00243038 0.0253879 0.00358424 0.0149362 0.00495165 0.0243541 0.00616697 0.0171007 0.00739085 0.042596
36 3 O 4.63043 6.06637 2.79288 -1.2 1 0.00178598 0.00350408 0.0017945 0.00498344 0.00218668 0.00672191 0.00351373 0.0193535 0.00343772 0.00782552 0.00261648 0.0256773 0.00377873 0.0149602 0.00454069 0.026845 0.00641833 0.0176851 0.0075728 0.0447534
37 1 Mg -1.12976 4.79031 4.4844 1.2 1 0.00195687 0.00420364 0.00165519 0.00499587 0.00230337 0.00599289 0.0033424 0.017473 0.00337648 0.00709985 0.00322477 0.0252488 0.00420027 0.0147409 0.00460461 0.024925 0.00767207 0.0186205 0.00844105 0.0428908
38 2 Si -2.9517 7.47444 4.4844 2.4 1 0.00221599 0.00389548 0.00162071 0.00530406 0.00295732 0.00671167 0.00398691 0.0199628 0.00333948 0.00788673 0.00295361 0.0273313 0.0042937 0.0162135 0.0053523 0.0273185 0.00720915 0.0189197 0.00845937 0.0466502
39 3 O -3.00198 5.86121 4.4844 -1.2 1 0.00174348 0.00420583 0.00118432 0.00506938 0.00313706 0.00626945 0.00414463 0.0185049 0.00372053 0.0076907 0.00270194 0.0252473 0.00425489 0.014325 0.0049759 0.0259227 0.00737459 0.0190256 0.00861348 0.0440775
40 3 O 0.666315 8.44846 4.4844 -1.2 1 0.00239532 0.00494561 0.00119965 0.0048747 0.00282044 0.00750659 0.0032325 0.0209211 0.00308781 0.00821163 0.00309971 0.0278037 0.00422 0.0162519 0.00460681 0.0286597 0.00679867 0.0195139 0.00819372 0.0473647
41 3 O -2.21213 8.18062 3.18632 -1.2 1 0.00197814 0.00423127 0.00141798 0.00461561 0.00255954 0.00652916 0.00299333 0.0206462 0.00288315 0.00814277 0.00280593 0.0272486 0.00406366 0.0159422 0.00505643 0.0286117 0.00632439 0.018639 0.00715457 0.0480556
42 3 O -2.25864 8.18062 5.78248 -1.2 1 0.00248941 0.00460144 0.00159922 0.00493909 0.00310537 0.00601623 0.00328559 0.0203095 0.00258925 0.00868516 0.00349885 0.0262973 0.00439905 0.0168439 0.00551357 0.0285158 0.00752613 0.0203707 0.00873687 0.0474753
43 1 Mg 1.20893 7.12349 2.9896 1.2 1 0.00165877 0.00416039 0.00148786 0.00449646 0.00266591 0.00673035 0.00382679 0.0193538 0.00287356 0.00804185 0.00285261 0.0274667 0.00372467 0.015974 0.00393815 0.0271066 0.00591842 0.018017 0.00675387 0.0462274
44 1 Mg 4.00982 7.08218 4.4844 1.2 1 0.00233272 0.00414251 0.00151361 0.00479733 0.00248929 0.00629437 0.0039366 0.0198286 0.00351076 0.00792304 0.00329712 0.0268392 0.00418313 0.0170342 0.00554369 0.0274316 0.00768234 0.0187262 0.00880691 0.0461182
45 2 Si 2.17861 9.14704 4.4844 2.4 1 0.00208157 0.00434412 0.00143503 0.00496625 0.00295271 0.00736543 0.00383296 0.0211438 0.00285734 0.00832945 0.00309186 0.02779 0.00454306 0.0169081 0.00464716 0.0290219 0.0063634 0.0194354 0.00737929 0.0494002
46 3 O 2.18828 10.7603 4.4844 -1.2 1 0.00263487 0.00446696 0.00174726 0.00476633 0.00285124 0.00714497 0.00310727 0.0211964 0.00257089 0.0082485 0.00225769 0.0284419 0.00399648 0.0161243 0.00458395 0.0302361 0.00640697 0.0199 0.00714449 0.0502714
47 3 O -4.43805 8.17302 4.4844 -1.2 1 0.00188374 0.00437211 0.00160636 0.00507272 0.00253237 0.00776227 0.00344927 0.0205539 0.00325624 0.00835038 0.00325178 0.0278997 0.00439515 0.0162964 0.00515438 0.0287621 0.00723701 0.0191551 0.00913721 0.0473393
48 3 O 2.89193 8.44087 3.18632 -1.2 1 0.00223781 0.0038859 0.00140117 0.00458291 0.00240665 0.0069199 0.00333472 0.0204939 0.00285897 0.00857242 0.00283304 0.027211 0.00375661 0.0160988 0.00462807 0.0285652 0.0062659 0.0184078 0.00629143 0.0480491
49 1 Mg 1.25915 7.12349 0 1.2 1 0.00110654 0.00303903 0.00139645 0.00417137 0.00190364 0.00691878 0.00298141 0.0203454 0.00275741 0.00802851 0.00256691 0.027196 0.00322384 0.01462 0.00331268 0.0273857 0.00493074 0.0171097 0.00462129 0.0462107
50 3 O 2.84547 8.44087 5.78248 -1.2 1 0.00259892 0.0048386 0.00156414 0.00470671 0.00262832 0.0065011 0.00326414 0.0205816 0.00294515 0.00897694 0.00327442 0.0264137 0.00503659 0.0167575 0.00514387 0.0287988 0.00677705 0.0207773 0.00808246 0.048117
51 1 Mg -1.59284 7.16481 1.4948 1.2 1 0.00100872 0.00347465 0.0012059 0.0046536 0.00189864 0.00622288 0.00268625 0.0198473 0.00297429 0.00780372 0.00180552 0.0274301 0.00333853 0.0157917 0.00378265 0.0271206 0.00502261 0.0173326 0.00586387 0.0465089
52 2 Si 0.240329 5.09994 1.4948 2.4 1 0.00113452 0.00395278 0.00167789 0.00425838 0.00186162 0.00665518 0.00309579 0.0188708 0.00316326 0.00718517 0.00226275 0.0255715 0.00280469 0.0148072 0.00411409 0.0245427 0.00539999 0.016752 0.00562714 0.0444542
53 3 O 0.234538 3.48671 1.4948 -1.2 1 0.00124905 0.00433318 0.00243256 0.00456722 0.0017673 0.00631671 0.00260254 0.0176654 0.00335871 0.00666054 0.00238365 0.0239582 0.0031759 0.0138906 0.00379327 0.0237079 0.00566557 0.0159389 0.00570036 0.0419771
54 3 O 6.85564 6.07396 1.4948 -1.2 1 0.00122355 0.0029988 0.0022331 0.00487356 0.00251834 0.00605337 0.00320675 0.0197669 0.00301902 0.00743303 0.00223801 0.0273039 0.00335848 0.0150132 0.00476228 0.0267434 0.0058609 0.0173572 0.0067445 0.0450738
55 3 O -0.429565 5.80612 0.196716 -1.2 1 0.00101723 0.00347048 0.00201399 0.00422534 0.00178206 0.006847 0.00249306 0.0196333 0.00293499 0.00812313 0.00245012 0.0252532 0.00257472 0.0143944 0.00372045 0.0258254 0.00518084 0.0165726 0.00585814 0.045276
56 3 O -0.473377 5.80612 2.79288 -1.2 1 0.00178003 0.00394649 0.00178216 0.00465542 0.0022268 0.00672686 0.00304258 0.0189618 0.00320715 0.0078913 0.00292365 0.0252885 0.00373264 0.0147504 0.0046764 0.0259594 0.0066429 0.0181719 0.00717149 0.0449977
57 1 Mg 6.40169 9.49799 0 1.2 1 0.000476423 0.00355742 0.00135828 0.00455692 0.0016463 0.00822691 0.00193447 0.0211992 0.00168905 0.0088683 0.00163203 0.0285851 0.00245592 0.0149069 0.00263212 0.0297145 0.00367023 0.0176911 0.00398365 0.0478146
58 1 Mg 3.64209 14.2057 1.4948 1.2 1 0.00170715 0.00314702 0.00147938 0.00456092 0.00172488 0.00889768 0.00154063 0.0217293 0.00165503 0.00885021 0.0021336 0.0283326 0.00252345 0.0161002 0.00268427 0.0296023 0.00347633 0.0171258 0.00322732 0.0492695
59 2 Si 5.45748 11.5215 1.4948 2.4 1 0.00131266 0.00318026 0.00165947 0.00479683 0.00196239 0.00833052 0.00213639 0.0210709 0.00139385 0.00834951 0.00182219 0.028868 0.00252333 0.0162121 0.00309473 0.0292939 0.00415053 0.0168237 0.00379769 0.0492659
60 3 O 5.51101 13.1348 1.4948 -1.2 1 0.0016275 0.00322237 0.00165373 0.00478296 0.00173536 0.00921326 0.0016739 0.0212122 0.00165409 0.0086508 0.00165471 0.0293904 0.00221144 0.0161999 0.00266709 0.0298687 0.00374528 0.0167357 0.00344815 0.0490334
61 3 O 1.83851 10.5475 1.4948 -1.2 1 0.000783527 0.00332234 0.00156673 0.00484631 0.0020288 0.00772071 0.00228623 0.0216645 0.00166747 0.00844994 0.00214315 0.0292276 0.0024498 0.015867 0.00323972 0.0296303 0.00432242 0.0176878 0.00363031 0.0491929
62 3 O 4.7611 10.8154 0.196716 -1.2 1 0.000727892 0.00281098 0.00164114 0.0046573 0.00163176 0.00847626 0.0021897 0.0212041 0.00160587 0.00853379 0.0017101 0.0282882 0.00278467 0.0156678 0.00323473 0.0295533 0.00365967 0.0169809 0.00340788 0.0487098
63 1 Mg 6.35203 9.49799 2.9896 1.2 1 0.00146766 0.00382437 0.00158551 0.00496334 0.00270284 0.00764771 0.00347147 0.0204037 0.00301336 0.00860846 0.00210256 0.0289864 0.0035442 0.0163148 0.00354626 0.028901 0.00465349 0.0181992 0.00581665 0.0484441
64 3 O 4.71833 10.8154 2.79288 -1.2 1 0.00225411 0.00361067 0.00143749 0.00462731 0.00225963 0.00833928 0.00220281 0.0213152 0.00199724 0.00901336 0.00219644 0.0282698 0.00337653 0.0160374 0.00396404 0.0299046 0.00545603 0.018247 0.00554858 0.0497653
65 1 Mg -1.0438 9.53931 4.4844 1.2 1 0.00265006 0.00481336 0.00147426 0.00454315 0.00289817 0.00684986 0.00290369 0.0208098 0.00278714 0.00839466 0.00270022 0.028172 0.00380467 0.0170155 0.00469902 0.0293913 0.00687228 0.0196824 0.00760782 0.0492162
66 2 Si -2.8604 12.2234 4.4844 2.4 1 0.00284231 0.00438384 0.00153913 0.00477957 0.00284817 0.00795497 0.00312491 0.021956 0.00271467 0.00860897 0.00234925 0.0282164 0.00387267 0.016782 0.00452975 0.0298133 0.00598411 0.019533 0.0068735 0.0512437
67 3 O -2.91391 10.6102 4.4844 -1.2 1 0.00275015 0.00449595 0.00166506 0.0046134 0.00293486 0.00729217 0.00330504 0.0206364 0.00263566 0.00798494 0.00222946 0.0283933 0.00400541 0.0161089 0.00441085 0.0301492 0.00614968 0.0195469 0.00704797 0.0499472
68 3 O 0.7596 13.1975 4.4844 -1.2 1 0.00242629 0.00448863 0.00178328 0.0052327 0.00288033 0.00874262 0.00273658 0.0222786 0.00276186 0.00850612 0.00289276 0.028732 0.00411466 0.0165812 0.00441314 0.0299933 0.00620976 0.0198275 0.00697674 0.0509097
69 3 O -2.12001 12.9296 3.18632 -1.2 1 0.00266267 0.00397128 0.00175647 0.00455759 0.00264077 0.00788782 0.00216891 0.0220079 0.00236863 0.00855034 0.00243448 0.0279436 0.00353375 0.0163281 0.00480067 0.030193 0.00534127 0.018626 0.0055938 0.0504799
70 3 O -2.16532 12.9296 5.78248 -1.2 1 0.00333606 0.00483808 0.00162801 0.00475209 0.00294841 0.00711315 0.00240747 0.0220405 0.00254963 0.00851591 0.00290925 0.0277192 0.00402875 0.0174014 0.00496436 0.0308803 0.00656826 0.021298 0.00706831 0.0521142
71 1 Mg 1.29891 11.8725 2.9896 1.2 1 0.00186802 0.00359854 0.00160002 0.00497696 0.00258731 0.0080782 0.00270315 0.0211394 0.0024652 0.00863066 0.00215454 0.0292003 0.00337214 0.0163798 0.00364476 0.02966 0.00484332 0.017855 0.00509097 0.0495414
72 1 Mg 4.10033 11.8312 4.4844 1.2 1 0.00286404 0.00438551 0.00192937 0.00449584 0.00246249 0.00746086 0.00261169 0.0214723 0.00259564 0.00847515 0.00282051 0.0289182 0.00379256 0.0175371 0.00521897 0.0299871 0.00673955 0.0195708 0.00664511 0.0506737
73 2 Si 2.27333 13.896 4.4844 2.4 1 0.00263447 0.00407459 0.00167907 0.005341 0.00302408 0.00813505 0.00321256 0.0220631 0.00236831 0.00820776 0.00291771 0.0281593 0.00364541 0.0169138 0.00433 0.0300815 0.00556517 0.0194676 0.00647204 0.0519479
74 3 O 2.28634 15.5093 4.4844 -1.2 1 0.00270692 0.00455609 0.00182948 0.00508333 0.00305531 0.00766671 0.00293426 0.0211508 0.00256358 0.00788654 0.00252029 0.0286527 0.0032785 0.0162511 0.00413392 0.0305799 0.00588047 0.0191097 0.00648623 0.0513749
75 3 O -4.34533 12.922 4.4844 -1.2 1 0.00266849 0.00463424 0.00176207 0.00496467 0.00280477 0.00863961 0.00284579 0.0219378 0.00273754 0.00861248 0.00256149 0.0287946 0.00406046 0.0166273 0.00488228 0.0299588 0.00663926 0.01994 0.00746052 0.0509603
76 3 O 2.98455 13.1899 3.18632 -1.2 1 0.00224824 0.003844 0.00162037 0.00462218 0.00260778 0.00803233 0.00211437 0.0220081 0.00219176 0.00862069 0.00237151 0.0280603 0.00343793 0.016285 0.00418698 0.0298968 0.00565156 0.0184957 0.00569641 0.0503898
77 1 Mg 1.34779 11.8725 0 1.2 1 0.00141771 0.00255551 0.00131412 0.00443112 0.00154231 0.0088307 0.00153081 0.0213269 0.00122728 0.00924669 0.00187391 0.0289632 0.0025719 0.0150055 0.00271282 0.0300651 0.00305024 0.0171718 0.00309484 0.0484002
78 3 O 2.93934 13.1899 5.78248 -1.2 1 0.00284452 0.00503271 0.00183422 0.00502734 0.00271201 0.0074164 0.00264781 0.0222982 0.00246998 0.00866927 0.00319905 0.027245 0.00415218 0.017268 0.00487476 0.0308519 0.00623664 0.0217748 0.00702969 0.0522574
79 1 Mg -1.50344 11.9138 1.4948 1.2 1 0.00116524 0.00352884 0.00137612 0.00470687 0.00155473 0.00835853 0.00174969 0.0218119 0.00238069 0.00849009 0.00150176 0.028659 0.00340306 0.0162101 0.00333737 0.029515 0.00365896 0.0174428 0.00378932 0.0492923
80 2 Si 0.326006 9.84894 1.4948 2.4 1 0.000512252 0.0033156 0.00121424 0.00492796 0.00204629 0.00810367 0.0020107 0.021176 0.00204454 0.00846933 0.00165032 0.0284255 0.00285032 0.0157412 0.00352652 0.0287812 0.00402451 0.0174301 0.00365366 0.0486563
81 3 O 0.317364 8.23571 1.4948 -1.2 1 0.00126038 0.00361116 0.00100728 0.00451362 0.0019374 0.00756421 0.00205032 0.0203297 0.00258785 0.00792046 0.00176157 0.0282589 0.00342272 0.0159054 0.00380764 0.0283351 0.00482786 0.0173337 0.00457011 0.0475989
82 3 O 6.94307 10.823 1.4948 -1.2 1 0.000962906 0.003619 0.00130522 0.00461868 0.00209277 0.00776834 0.00244821 0.0218553 0.00222847 0.00836506 0.00164574 0.0292499 0.00291337 0.0158196 0.00330284 0.0297774 0.0040046 0.017894 0.00426409 0.0492257
83 3 O -0.343122 10.5551 0.196716 -1.2 1 0.000402187 0.00300251 0.00107998 0.00455527 0.00149753 0.00838847 0.00189846 0.0213366 0.00174464 0.00895604 0.00204459 0.0280029 0.00312185 0.0152931 0.00393425 0.0294287 0.0037227 0.0171666 0.00342666 0.0486553
84 3 O -0.385966 10.5551 2.79288 -1.2 1 0.00219801 0.00392535 0.00112404 0.00467319 0.0024888 0.00809502 0.00223373 0.0214958 0.00195749 0.00894157 0.00242487 0.0276177 0.00367237 0.0159838 0.00424847 0.0297583 0.00565742 0.0184425 0.00541321 0.0495754
85 1 Mg 6.49448 14.247 0 1.2 1 0.00130862 0.00322361 0.00146188 0.00478337 0.00106459 0.00933542 0.00108844 0.0213424 0.00123771 0.00859944 0.00139105 0.0289367 0.00166521 0.0155167 0.002402 0.0299045 0.00284337 0.0165144 0.00264504 0.048121
86 1 Mg 3.74457 18.9547 1.4948 1.2 1 0.00202327 0.00328332 0.00148067 0.00419708 0.00170219 0.00870666 0.00113977 0.022183 0.00195351 0.00815568 0.00203213 0.0276973 0.00235109 0.0163774 0.0031514 0.0289734 0.0038675 0.0166982 0.00355632 0.0496308
87 2 Si 5.55495 16.2705 1.4948 2.4 1 0.00181116 0.00310855 0.00143048 0.00457316 0.00186431 0.00906949 0.00125671 0.0214172 0.00128931 0.00801054 0.00134257 0.0287896 0.00225283 0.0162474 0.00258592 0.0290106 0.00370823 0.0162068 0.00351425 0.0493403
88 3 O 5.6115 17.8838 1.4948 -1.2 1 0.0018854 0.00320424 0.00149593 0.00446371 0.00169983 0.00936847 0.00144268 0.0216935 0.00186829 0.00795364 0.00135727 0.0287864 0.00211287 0.0164471 0.00267976 0.0290604 0.00349525 0.0161312 0.00352877 0.0493176
89 3 O 1.93416 15.2965 1.4948 -1.2 1 0.00172024 0.00309194 0.00132775 0.00461091 0.00188671 0.00854321 0.00174196 0.0219516 0.00177637 0.00814035 0.00151293 0.0291805 0.00216854 0.016333 0.00277009 0.0296261 0.00392082 0.0167813 0.00342803 0.0496708
90 3 O 4.85636 15.5644 0.196716 -1.2 1 0.00156027 0.00261882 0.00117956 0.00462896 0.00113193 0.0093378 0.00140994 0.0214371 0.00102543 0.00824593 0.00151717 0.0282125 0.00243629 0.0160833 0.00321391 0.0292546 0.00305759 0.0160525 0.00280839 0.0488433
91 1 Mg 6.44662 14.247 2.9896 1.2 1 0.00173951 0.00388863 0.00157085 0.00482401 0.00264182 0.00882158 0.00272024 0.0210445 0.00241989 0.00872594 0.00180036 0.0292444 0.00282746 0.016299 0.00303469 0.0296359 0.00421833 0.0177841 0.00473351 0.0496691
92 3 O 4.81537 15.5644 2.79288 -1.2 1 0.00231919 0.00364414 0.00151326 0.00466843 0.00232907 0.00896847 0.00165147 0.0218132 0.00163416 0.00863246 0.00190936 0.0278915 0.00283122 0.0163908 0.00337929 0.0296191 0.00483053 0.0176719 0.00496939 0.0500692
93 1 Mg -0.948271 14.2883 4.4844 1.2 1 0.00285442 0.00426905 0.00165148 0.00466519 0.00280839 0.00792923 0.00271242 0.0216983 0.00270218 0.00847439 0.00277237 0.0284506 0.003348 0.0171205 0.00512691 0.0302698 0.0061971 0.0192533 0.00673194 0.0511428
94 2 Si -2.75928 16.9724 4.4844 2.4 1 0.00288988 0.00410327 0.00170636 0.00499955 0.00288619 0.0081051 0.00271022 0.0220249 0.00249369 0.00805401 0.00255535 0.0277707 0.00324779 0.0172607 0.00451656 0.0298152 0.00544931 0.018995 0.00622492 0.052
95 3 O -2.81617 15.3592 4.4844 -1.2 1 0.00322336 0.00435155 0.00177214 0.00464903 0.00311589 0.00779074 0.00291016 0.0212126 0.00246299 0.0078783 0.00234328 0.0285605 0.00359685 0.0164361 0.0043442 0.0303992 0.0060882 0.0190376 0.00666758 0.0511153
96 3 O 0.862762 17.9465 4.4844 -1.2 1 0.00276462 0.0046036 0.00161636 0.00517871 0.00301689 0.00871048 0.00261674 0.0223554 0.00269726 0.00813424 0.0025663 0.0284048 0.00360317 0.0170661 0.00452151 0.0295437 0.00611939 0.019359 0.00646726 0.0514915
97 3 O -2.0185 17.6786 3.18632 -1.2 1 0.00258426 0.00399873 0.0017637 0.00453953 0.00267355 0.00796676 0.0021133 0.0222955 0.00233397 0.00801782 0.00206643 0.0275245 0.00331518 0.016495 0.00445329 0.0300753 0.0051297 0.0179613 0.00538901 0.0509547
98 3 O -2.06164 17.6786 5.78248 -1.2 1 0.00339078 0.00474113 0.00162548 0.00492511 0.00273625 0.00735154 0.0021996 0.02224 0.00232653 0.00829772 0.00262442 0.0275496 0.00314078 0.0175537 0.00491199 0.0309979 0.00634402 0.0210413 0.00649605 0.0529674
99 1 Mg 1.39817 16.6215 2.9896 1.2 1 0.0022163 0.00359207 0.00152955 0.0047265 0.0026285 0.00862281 0.00242323 0.0212974 0.00243934 0.00827468 0.00209683 0.0289062 0.00271736 0.0166472 0.00347125 0.029569 0.00427729 0.0170747 0.00481746 0.0497919
100 1 Mg 4.20062 16.5802 4.4844 1.2 1 0.00268501 0.00411591 0.0018676 0.00481827 0.00285086 0.00792223 0.00238893 0.0218835 0.00299161 0.00801283 0.00297362 0.0283017 0.00315995 0.017636 0.00528478 0.0300891 0.0066695 0.0192955 0.00655879 0.0514631
101 2 Si 2.37796 18.645 4.4844 2.4 1 0.00255431 0.00400623 0.00156904 0.00506754 0.00303991 0.008234 0.00276747 0.0223179 0.00253835 0.00825188 0.00270203 0.027799 0.00342118 0.0173198 0.0046248 0.0296367 0.00550492 0.0188199 0.00624726 0.0522274
102 3 O 2.39434 20.2583 4.4844 -1.2 1 0.00284657 0.00430894 0.00144863 0.00493543 0.00295763 0.0072311 0.00237402 0.0213043 0.00266091 0.00764661 0.00193376 0.0282524 0.00305897 0.016711 0.00422498 0.0302898 0.00630275 0.0187279 0.00693389 0.0517547
103 3 O -4.24274 17.671 4.4844 -1.2 1 0.0024332 0.00429423 0.00174315 0.00500063 0.00285916 0.00876581 0.00264897 0.0224602 0.0027066 0.00817548 0.00248585 0.028284 0.00319921 0.0169395 0.00488398 0.0299554 0.00624893 0.0196207 0.00679455 0.0514756
104 3 O 3.08659 17.9389 3.18632 -1.2 1 0.00259258 0.0035611 0.00154829 0.0043613 0.00263821 0.00803485 0.00181104 0.0221048 0.00234301 0.00810111 0.00231301 0.0276281 0.00304549 0.0167168 0.00420165 0.0297335 0.00555353 0.0178304 0.00572837 0.0507332
105 1 Mg 1.44478 16.6215 0 1.2 1 0.00196758 0.00262117 0.000810608 0.00436685 0.00136059 0.00904636 0.00102727 0.0215009 0.00138672 0.00827256 0.00158304 0.0288184 0.00221963 0.0157585 0.00213632 0.0292079 0.00275406 0.016188 0.00300249 0.0485688
106 3 O 3.0436 17.9389 5.78248 -1.2 1 0.00269499 0.00483875 0.00142678 0.00532563 0.00269406 0.00729253 0.0022477 0.022114 0.00227654 0.00856138 0.0029321 0.0270677 0.00338602 0.0172097 0.00478027 0.030889 0.00641092 0.0211525 0.006554 0.0531316
107 1 Mg -1.40524 16.6628 1.4948 1.2 1 0.00171123 0.00356015 0.00129586 0.00478529 0.00158536 0.00892922 0.00169863 0.0221692 0.00198547 0.00826028 0.00186921 0.0283428 0.00306796 0.0167242 0.00300527 0.0294013 0.00298845 0.0168235 0.00332071 0.0493627
108 2 Si 0.420358 14.5979 1.4948 2.4 1 0.00124261 0.00290272 0.00135932 0.0048867 0.00214356 0.00931142 0.00162479 0.0214279 0.00166445 0.00824537 0.0016185 0.0284836 0.0028666 0.0165179 0.00338457 0.0286873 0.00345586 0.0164544 0.00332383 0.0492817
109 3 O 0.408732 12.9847 1.4948 -1.2 1 0.00115144 0.00291915 0.00134496 0.00478763 0.00191548 0.00920353 0.00140631 0.0211625 0.00219657 0.00844597 0.00144437 0.0291214 0.00299538 0.0161512 0.00298734 0.0296241 0.00340462 0.0168259 0.00355575 0.0492883
110 3 O 7.03923 15.572 1.4948 -1.2 1 0.00146107 0.00356868 0.00132906 0.00467917 0.00208858 0.0085553 0.00209904 0.0217467 0.00208524 0.00808207 0.00160827 0.0292757 0.00249153 0.0163904 0.00261409 0.0296915 0.00345063 0.0169823 0.00378172 0.0494531
111 3 O -0.248332 15.3041 0.196716 -1.2 1 0.0016308 0.00263502 0.00090522 0.00467522 0.00102536 0.00916944 0.00182094 0.021343 0.00150821 0.00825574 0.00170437 0.0282015 0.00280934 0.0160497 0.00372685 0.0290533 0.0029665 0.0160704 0.00289226 0.0488177
112 3 O -0.289436 15.3041 2.79288 -1.2 1 0.00250361 0.00379866 0.00142182 0.00468385 0.0024667 0.00878504 0.00188542 0.021875 0.00190473 0.00865656 0.00210827 0.0275314 0.00300577 0.0165958 0.00373625 0.0297617 0.00476427 0.0177497 0.00466504 0.0501164
113 1 Mg 6.59566 18.996 0 1.2 1 0.00124802 0.0030496 0.00142762 0.00440921 0.00104357 0.0087316 0.00119687 0.0219194 0.00125888 0.00787296 0.0014321 0.0282511 0.0021252 0.0162961 0.00225542 0.0287637 0.00283564 0.0160259 0.00276592 0.0485422
114 1 Mg 3.85574 23.7037 1.4948 1.2 1 0.0023232 0.00281962 0.00116627 0.00433754 0.00150689 0.00745691 0.00108814 0.0230271 0.0018421 0.00751897 0.00194447 0.0270937 0.00231868 0.017234 0.00343856 0.0288944 0.00394674 0.0171829 0.00395781 0.0507316
115 2 Si 5.66125 21.0195 1.4948 2.4 1 0.00198436 0.00272354 0.00120045 0.00432119 0.00200295 0.00830935 0.00118123 0.0219013 0.00131399 0.00753535 0.00161163 0.0280107 0.00235132 0.0171813 0.00274767 0.0283288 0.0041007 0.0160632 0.00416769 0.0500705
116 3 O 5.72074 22.6328 1.4948 -1.2 1 0.00235405 0.002856 0.00148296 0.00429792 0.00157965 0.00824712 0.0013879 0.0223448 0.0018579 0.00731346 0.00131254 0.0277808 0.0021557 0.0171772 0.00295552 0.0286861 0.00380628 0.016443 0.0041347 0.0501652
117 3 O 2.03867 20.0455 1.4948 -1.2 1 0.00168897 0.00332415 0.00122679 0.00462324 0.00186682 0.00791817 0.00178363 0.0223123 0.00209283 0.00757907 0.00152075 0.0285475 0.00217427 0.0171208 0.00255741 0.0290926 0.00415266 0.016362 0.00391796 0.0501381
118 3 O 4.96004 20.3134 0.196716 -1.2 1 0.00185563 0.00222518 0.00138083 0.00423766 0.00128214 0.00838442 0.0012341 0.0217467 0.00117541 0.00754347 0.00153468 0.0277088 0.00258291 0.0165586 0.0038363 0.0287795 0.00330882 0.0153598 0.00321806 0.0493087
119 1 Mg 6.55057 18.996 2.9896 1.2 1 0.00159536 0.00383553 0.00135378 0.00458083 0.00271905 0.00843623 0.00246115 0.0213152 0.00243952 0.0080433 0.00182118 0.0288474 0.00284042 0.016852 0.0030006 0.0290752 0.00435758 0.0173756 0.00489346 0.050133