ITEM: TIMESTEP
27800
ITEM: NUMBER OF ATOMS
10500
ITEM: BOX BOUNDS xy xz yz pp pp pp
0	15.2977	5.09925
0	118.725	0
0	89.688	0
ITEM: ATOMS id type element xu yu zu q Q_1 Q_2 Q_3 Q_4 Q_5 Q_6 Q_7 Q_8 Q_9 Q_10 Q_11 Q_12 Q_13 Q_14 Q_15 Q_16 Q_17 Q_18 Q_19 Q_20 Q_21
1 1 Mg 6.2404 -6.37941e-06 0 1.2 1 0.00137866 0.00424412 0.00106166 0.00501477 0.00135059 0.00569582 0.0021394 0.0160766 0.00220911 0.00552272 0.00217825 0.0219493 0.00267899 0.0133803 0.00373587 0.0204631 0.00424825 0.014248 0.00394188 0.0405915
2 1 Mg 3.46349 4.70768 1.4948 1.2 1 0.00117807 0.00355099 0.00169987 0.00451252 0.00209018 0.0063207 0.00352884 0.0187265 0.00291209 0.00678618 0.00294856 0.0258083 0.00359411 0.0138046 0.00444801 0.0252241 0.00526079 0.017088 0.00552974 0.0439715
3 2 Si 5.2885 2.02354 1.4948 2.4 1 0.000533842 0.00350132 0.00196484 0.00458084 0.00181319 0.00588091 0.00255117 0.016823 0.00253909 0.00599647 0.00198147 0.0231268 0.00297656 0.0134206 0.00378107 0.0214838 0.00394754 0.0153489 0.00408322 0.0410619
4 3 O 5.33628 3.63678 1.4948 -1.2 1 0.000653854 0.00304906 0.00173436 0.00488518 0.00210012 0.00661348 0.00291523 0.0176735 0.00237622 0.00653775 0.00210762 0.0251947 0.00277931 0.0135716 0.00445128 0.024012 0.0050909 0.016493 0.00562539 0.0428313
5 3 O 1.67294 1.04952 1.4948 -1.2 1 0.00153767 0.00381585 0.00187395 0.00441566 0.00135642 0.00601575 0.0026686 0.0167917 0.00230462 0.00591352 0.00210223 0.0227541 0.0028109 0.012819 0.00365586 0.0218938 0.0045667 0.0157207 0.00451426 0.040248
6 3 O 4.59532 1.31737 0.196716 -1.2 1 0.00122304 0.00322015 0.00193224 0.00454374 0.00199518 0.00582032 0.00239056 0.0170935 0.00274576 0.0060226 0.00199858 0.0225104 0.00353009 0.0126642 0.00460511 0.0214811 0.00432352 0.0148993 0.00445628 0.0408389
7 1 Mg 6.18956 -6.37941e-06 2.9896 1.2 1 0.000696809 0.00447769 0.00127143 0.00434413 0.00131828 0.0060679 0.00249812 0.0160104 0.00278932 0.00527871 0.00175755 0.0223801 0.00294 0.0133042 0.00384507 0.0207387 0.00440174 0.0149768 0.00470537 0.0389863
8 3 O 4.55118 1.31737 2.79288 -1.2 1 0.00115614 0.0044617 0.00177019 0.00445512 0.00197934 0.00605217 0.00267863 0.0166055 0.00249652 0.00663182 0.00232978 0.0216713 0.0036848 0.0120612 0.00343775 0.0215071 0.00466133 0.0156711 0.00493426 0.0397703
9 1 Mg -1.20682 0.0413099 4.4844 1.2 1 0.000710075 0.00330325 0.00157438 0.0044694 0.00124471 0.00609815 0.00215961 0.0160208 0.00228881 0.00531413 0.00214313 0.0223556 0.00306963 0.0114788 0.00357792 0.0209589 0.00507617 0.0159814 0.0051303 0.0385674
10 2 Si -3.0337 2.72544 4.4844 2.4 1 0.00110282 0.00360656 0.00142193 0.00481289 0.00221017 0.00653555 0.00345935 0.0164828 0.00335462 0.00581666 0.00222948 0.0238757 0.00331625 0.0126022 0.00436042 0.0223783 0.00510203 0.0176124 0.0059881 0.0395312
11 3 O -3.08099 1.11221 4.4844 -1.2 1 0.000900848 0.00381606 0.00153509 0.00416912 0.001188 0.00586548 0.00247803 0.015794 0.00296234 0.00515741 0.00200755 0.0222888 0.00318943 0.0112185 0.00378944 0.0213939 0.00489433 0.0163461 0.00544623 0.0382024
12 3 O 0.582463 3.69946 4.4844 -1.2 1 0.00176398 0.00480313 0.00194036 0.00444049 0.00251319 0.00709142 0.00365277 0.0170401 0.00319032 0.00604537 0.00327589 0.0249999 0.00429082 0.0126986 0.00447555 0.0244629 0.00680796 0.0189287 0.00802879 0.0418088
13 3 O -2.29524 3.43162 3.18632 -1.2 1 0.000921064 0.00311815 0.00228245 0.00462416 0.00221611 0.00627355 0.00309887 0.0176947 0.00309674 0.00644132 0.0028279 0.0246035 0.00354504 0.0128119 0.00498851 0.0242607 0.00598859 0.0179718 0.00639318 0.0418791
14 3 O -2.34216 3.43162 5.78248 -1.2 1 0.00213863 0.00410108 0.00106161 0.00483494 0.00241359 0.00650291 0.0031761 0.0167858 0.00296532 0.00668175 0.00291127 0.0235897 0.00431965 0.0118806 0.00426021 0.0236462 0.00644714 0.0196185 0.0077214 0.04042
15 1 Mg 1.12778 2.37449 2.9896 1.2 1 0.00139485 0.00404723 0.00222449 0.00453092 0.00218943 0.00631645 0.00319802 0.0165681 0.00266694 0.00581758 0.00257046 0.0236206 0.00341017 0.0128669 0.0036226 0.0220418 0.00473341 0.0166862 0.00523613 0.040923
16 1 Mg 3.92855 2.33318 4.4844 1.2 1 0.00159515 0.00452614 0.00162542 0.00439007 0.00192332 0.0062318 0.00362045 0.0164774 0.00319171 0.00563108 0.0030069 0.023095 0.00382229 0.0129079 0.00518405 0.0220786 0.00618344 0.0173822 0.00689525 0.0402716
17 2 Si 2.09341 4.39804 4.4844 2.4 1 0.00181393 0.00455719 0.00199186 0.00429843 0.0028496 0.0063104 0.0038491 0.0179701 0.00343612 0.00622868 0.00335904 0.025176 0.00459391 0.0137332 0.00455269 0.0248431 0.00666178 0.0188675 0.0081398 0.0435112
18 3 O 2.09991 6.01128 4.4844 -1.2 1 0.00266019 0.00465595 0.00165116 0.00414758 0.00277225 0.00680637 0.00323277 0.0189114 0.00281718 0.00685131 0.00312919 0.0269377 0.00415357 0.0141086 0.00474781 0.0275354 0.00680564 0.0198374 0.0080212 0.0453729
19 3 O -4.52137 3.42402 4.4844 -1.2 1 0.00173951 0.004064 0.00211402 0.00478725 0.00225161 0.00742039 0.00366366 0.0165693 0.00333543 0.00585499 0.00313891 0.023745 0.00401275 0.0124351 0.00435856 0.0230363 0.00621892 0.0179149 0.00744076 0.0409538
20 3 O 2.80834 3.69187 3.18632 -1.2 1 0.00162106 0.00406131 0.00163236 0.00388812 0.0022298 0.00617161 0.00310889 0.0172606 0.00309406 0.00599624 0.00287817 0.0243253 0.00373212 0.0128385 0.00475823 0.0240271 0.00574083 0.017315 0.00613567 0.0427741
21 1 Mg 1.17857 2.37449 0 1.2 1 0.00203769 0.00373675 0.00204094 0.00432279 0.00136643 0.00561636 0.00255267 0.0173211 0.00227693 0.00641455 0.00276743 0.0232974 0.00313493 0.0132264 0.00397861 0.0217685 0.00454786 0.0148485 0.00478983 0.0408696
22 3 O 2.76143 3.69187 5.78248 -1.2 1 0.00210669 0.00463187 0.00187875 0.00436259 0.00222778 0.00603795 0.00312154 0.0172417 0.00323459 0.00633847 0.00306539 0.0234593 0.00502231 0.0123998 0.00576576 0.0233699 0.00655017 0.0188034 0.00771914 0.0408657
23 1 Mg -1.67381 2.41581 1.4948 1.2 1 0.00131805 0.00283911 0.00238901 0.00491427 0.00154993 0.00622584 0.0024982 0.0165212 0.00271333 0.00613972 0.00199174 0.0243992 0.0027041 0.0141982 0.00309322 0.0221463 0.00447563 0.0160808 0.00468316 0.0418641
24 2 Si 0.16286 0.350945 1.4948 2.4 1 0.00171083 0.00303208 0.00270241 0.00464375 0.00128101 0.00655259 0.00280066 0.016311 0.00214246 0.00505398 0.00179618 0.022878 0.00262354 0.0134748 0.00339185 0.0207417 0.00465445 0.01473 0.00412486 0.0403486
25 3 O 0.15972 -1.26229 1.4948 -1.2 1 0.00145679 0.00284076 0.0029231 0.00470697 0.00171904 0.00639067 0.00258198 0.0162935 0.00231568 0.00525108 0.00250376 0.0227733 0.00260519 0.0138303 0.00326404 0.0215788 0.00432274 0.0147661 0.00382817 0.0407295
26 3 O 6.77654 1.32496 1.4948 -1.2 1 0.00102234 0.00371462 0.00142336 0.00475493 0.0013084 0.00621281 0.00245095 0.0166836 0.00255901 0.00537488 0.00167373 0.0237876 0.0028193 0.0134472 0.00375299 0.0218107 0.00476397 0.0153371 0.004382 0.0408726
27 3 O -0.508028 1.05712 0.196716 -1.2 1 0.00170976 0.00297645 0.00347358 0.00422052 0.00131837 0.00562537 0.00238117 0.0170433 0.00181449 0.00647591 0.00249496 0.0221714 0.00292977 0.0127854 0.00342115 0.0211146 0.00437249 0.0151574 0.00440797 0.0400116
28 3 O -0.552171 1.05712 2.79288 -1.2 1 0.00100149 0.00266888 0.00278135 0.0045643 0.00125629 0.00643214 0.00238315 0.0161051 0.00238738 0.00579458 0.00182176 0.0228399 0.00312594 0.0117532 0.0039211 0.0217076 0.00514301 0.0160178 0.00470974 0.0396377
29 1 Mg 6.31713 4.74899 0 1.2 1 0.000996318 0.00272822 0.00190781 0.00483263 0.0023093 0.00622975 0.00338393 0.0181645 0.00275832 0.00700476 0.00232947 0.0254063 0.00307207 0.0136834 0.00440029 0.024599 0.00473849 0.016338 0.00601145 0.042762
30 1 Mg 3.54847 9.45668 1.4948 1.2 1 0.00110075 0.00334108 0.00172183 0.00480915 0.00187426 0.00769522 0.00314768 0.021422 0.00193844 0.00832721 0.00244087 0.028621 0.00338263 0.0156228 0.00389333 0.0292609 0.00433457 0.0183773 0.00381989 0.0487389
31 2 Si 5.36879 6.77254 1.4948 2.4 1 0.000761418 0.00306105 0.00170295 0.00533393 0.00263571 0.0070607 0.00390793 0.019587 0.00272844 0.00774973 0.00262223 0.0278276 0.00333599 0.0151891 0.00425262 0.0269745 0.00478395 0.0174022 0.00513667 0.0465174
32 3 O 5.41937 8.38578 1.4948 -1.2 1 0.00101935 0.00312567 0.0014633 0.00518112 0.00207856 0.0078753 0.00324942 0.0209515 0.00231828 0.00822764 0.00243347 0.0291072 0.0024875 0.0154594 0.00311719 0.0290581 0.00467415 0.0176882 0.00473429 0.0479603
33 3 O 1.75158 5.79852 1.4948 -1.2 1 0.00125095 0.00363501 0.00162141 0.00414975 0.0024223 0.00619795 0.00333139 0.0194267 0.00279397 0.00711292 0.0027112 0.0279419 0.0031829 0.0153314 0.00368296 0.0268682 0.00543804 0.017704 0.00539331 0.045729
34 3 O 4.67421 6.06637 0.196716 -1.2 1 0.000610978 0.00295294 0.00162127 0.005117 0.00188238 0.00701646 0.00301475 0.0197177 0.00239511 0.00804776 0.00219705 0.0263518 0.00360776 0.0142222 0.00411061 0.0265845 0.00471398 0.0167655 0.00545169 0.0451142
35 1 Mg 6.26654 4.74899 2.9896 1.2 1 0.00131249 0.00344856 0.00196247 0.004935 0.00270368 0.00689842 0.00387758 0.0178319 0.00370122 0.00680398 0.00225047 0.0260907 0.00397564 0.0143285 0.00514629 0.0248868 0.00590462 0.017832 0.00681779 0.0436193
36 3 O 4.63043 6.06637 2.79288 -1.2 1 0.00209207 0.00360025 0.00181297 0.00491416 0.00241969 0.00713642 0.00368318 0.0193338 0.00340051 0.00750282 0.00256184 0.0262691 0.00419806 0.0144848 0.00487192 0.0271562 0.00593649 0.0184843 0.00662379 0.0456467
37 1 Mg -1.12976 4.79031 4.4844 1.2 1 0.00193318 0.0042617 0.00146941 0.0046473 0.00233868 0.00662506 0.00329029 0.0175818 0.00345693 0.00665176 0.00324085 0.0256233 0.00425579 0.013746 0.00455425 0.0254037 0.00752476 0.0194473 0.00774066 0.0435701
38 2 Si -2.9517 7.47444 4.4844 2.4 1 0.00267518 0.00417467 0.00118077 0.00536995 0.00305215 0.00691098 0.00389335 0.0203553 0.00310045 0.0075803 0.00315813 0.0277528 0.00450234 0.0156059 0.00554387 0.0278224 0.00687917 0.0196576 0.00796546 0.0473555
39 3 O -3.00198 5.86121 4.4844 -1.2 1 0.00233208 0.00447314 0.00114522 0.00499238 0.00319448 0.00659797 0.00414503 0.0185452 0.00346958 0.0071969 0.00304843 0.0261426 0.00450103 0.0136631 0.00496552 0.0268181 0.00694318 0.0198062 0.00833092 0.0450311
40 3 O 0.666315 8.44846 4.4844 -1.2 1 0.0032918 0.00492222 0.0011008 0.00506417 0.00289812 0.00753249 0.00307794 0.0210161 0.00297987 0.0075891 0.00314636 0.0286241 0.00471016 0.0156078 0.004337 0.029116 0.00642531 0.0201697 0.00782521 0.0483913
41 3 O -2.21213 8.18062 3.18632 -1.2 1 0.00213151 0.00418453 0.001328 0.00470232 0.00265379 0.00654141 0.00289263 0.0207306 0.00280782 0.00788 0.00293111 0.0279147 0.00432444 0.0156449 0.00480518 0.0288324 0.00588658 0.0190998 0.00650479 0.0483366
42 3 O -2.25864 8.18062 5.78248 -1.2 1 0.00370862 0.00455567 0.00147857 0.005157 0.0030866 0.00647283 0.00316869 0.0205566 0.00248861 0.00806872 0.00363705 0.0273426 0.004521 0.0160512 0.00555103 0.0289564 0.00724168 0.0210249 0.00836816 0.0487459
43 1 Mg 1.20893 7.12349 2.9896 1.2 1 0.00178521 0.00427462 0.00171774 0.0044876 0.00281716 0.006987 0.00388312 0.0194993 0.00279409 0.00778691 0.00283182 0.0280945 0.003736 0.0154961 0.00375055 0.0274989 0.00560618 0.0185758 0.00619746 0.0468041
44 1 Mg 4.00982 7.08218 4.4844 1.2 1 0.0027881 0.00432168 0.00162345 0.00497078 0.00268137 0.00693368 0.00397733 0.0198955 0.00349582 0.00712237 0.00325553 0.0275344 0.00428753 0.0160996 0.00570049 0.0282112 0.00740332 0.0196889 0.00822722 0.0470832
45 2 Si 2.17861 9.14704 4.4844 2.4 1 0.00303399 0.00423921 0.00146793 0.00507122 0.00282174 0.00763294 0.00378548 0.0211847 0.00286222 0.00788711 0.00315162 0.0281242 0.00448121 0.0164298 0.0043646 0.0294213 0.0060574 0.0199787 0.00718085 0.0501827
46 3 O 2.18828 10.7603 4.4844 -1.2 1 0.0037994 0.00462067 0.00168113 0.00468469 0.00262297 0.00727358 0.00308044 0.0210246 0.0026161 0.0077972 0.00229216 0.0288038 0.00398496 0.0156513 0.00435065 0.0307833 0.00629019 0.0204374 0.006929 0.0506274
47 3 O -4.43805 8.17302 4.4844 -1.2 1 0.00233669 0.00460115 0.00165095 0.00521443 0.00244629 0.00808417 0.00346903 0.0206054 0.00324635 0.00766485 0.00317704 0.0284436 0.00477847 0.0154622 0.00481173 0.029278 0.00685111 0.0201096 0.00862842 0.0478488
48 3 O 2.89193 8.44087 3.18632 -1.2 1 0.00254321 0.00399692 0.0015666 0.00447945 0.00240227 0.00714838 0.00340278 0.0204906 0.00292435 0.00820641 0.00287234 0.0277682 0.00408281 0.01557 0.00452787 0.0289066 0.00605822 0.0191036 0.00580166 0.0485104
49 1 Mg 1.25915 7.12349 0 1.2 1 0.000744262 0.00299189 0.00146718 0.00442243 0.00193011 0.00713667 0.002964 0.0201578 0.00274245 0.00819107 0.00263702 0.0276594 0.00363499 0.0144106 0.00384823 0.0274179 0.00477555 0.0174992 0.00448922 0.045813
50 3 O 2.84547 8.44087 5.78248 -1.2 1 0.00399866 0.00495495 0.00146496 0.00491979 0.0026124 0.00689808 0.00346925 0.0205766 0.00304203 0.00805281 0.0033788 0.0273818 0.00550248 0.0159883 0.00538443 0.0295942 0.00634028 0.0215762 0.00796769 0.0490537
51 1 Mg -1.59284 7.16481 1.4948 1.2 1 0.000753781 0.00343142 0.0012906 0.00480577 0.00185273 0.00654158 0.00279517 0.0198915 0.00288846 0.00774994 0.00187005 0.0278376 0.00359743 0.0153905 0.00391171 0.0271932 0.0047684 0.0177563 0.00543311 0.0465835
52 2 Si 0.240329 5.09994 1.4948 2.4 1 0.00111155 0.00372639 0.00197105 0.00420561 0.00195252 0.00691866 0.00315831 0.018896 0.00305701 0.00720202 0.00237315 0.0260352 0.0031146 0.0144931 0.00427151 0.024779 0.00518594 0.0169867 0.00513661 0.0446625
53 3 O 0.234538 3.48671 1.4948 -1.2 1 0.00148829 0.00398504 0.00248287 0.00444447 0.00192083 0.00664947 0.00266413 0.0177899 0.00326543 0.00683081 0.00250903 0.0245887 0.00348964 0.013527 0.00411187 0.0239852 0.00560813 0.016121 0.00522682 0.0424526
54 3 O 6.85564 6.07396 1.4948 -1.2 1 0.000867054 0.00285962 0.00202947 0.00489314 0.00253268 0.00636757 0.00325074 0.0199006 0.00304732 0.00737404 0.00223547 0.0277565 0.00348671 0.0145323 0.0048575 0.0269111 0.00574718 0.0178162 0.00614726 0.0454659
55 3 O -0.429565 5.80612 0.196716 -1.2 1 0.0008688 0.00332232 0.00215589 0.00438135 0.00181567 0.00713193 0.00260628 0.0194561 0.00277576 0.00823032 0.0025638 0.0258164 0.00287168 0.0140947 0.0039944 0.0259502 0.00520154 0.0167736 0.00572369 0.0450245
56 3 O -0.473377 5.80612 2.79288 -1.2 1 0.00176073 0.00379202 0.00181134 0.00445586 0.00230029 0.00697197 0.00325423 0.0190817 0.00314466 0.00771235 0.00303108 0.026054 0.00406609 0.0143087 0.00450042 0.0263997 0.00646959 0.0186545 0.00655066 0.0457603
57 1 Mg 6.40169 9.49799 0 1.2 1 0.00019702 0.00353984 0.00154562 0.00492968 0.00149047 0.00835446 0.00205633 0.021093 0.00180587 0.0089487 0.00173031 0.0289606 0.00259799 0.014776 0.00272306 0.0298756 0.00361944 0.017993 0.00405443 0.0476021
58 1 Mg 3.64209 14.2057 1.4948 1.2 1 0.00203262 0.00321123 0.0013895 0.00462235 0.00150015 0.00881976 0.00161915 0.0218138 0.00167193 0.00871205 0.00232954 0.0283169 0.00261731 0.0162083 0.00303076 0.0296891 0.00369871 0.016985 0.00343954 0.0493416
59 2 Si 5.45748 11.5215 1.4948 2.4 1 0.00188865 0.00320709 0.00152508 0.00474944 0.00176484 0.00833107 0.00229838 0.0212196 0.00157677 0.00819643 0.00183824 0.0288757 0.00273853 0.0163244 0.00339147 0.0292343 0.00418898 0.0171568 0.0036079 0.0492338
60 3 O 5.51101 13.1348 1.4948 -1.2 1 0.00223172 0.00330528 0.00158424 0.00470813 0.00147668 0.00912424 0.00187035 0.0212965 0.00184437 0.00857589 0.00170919 0.029337 0.00215286 0.0162675 0.00287743 0.0299528 0.00387265 0.0167861 0.00357696 0.0491012
61 3 O 1.83851 10.5475 1.4948 -1.2 1 0.000936228 0.00354594 0.00163003 0.00488989 0.0018747 0.00772215 0.00244175 0.0216656 0.00191777 0.00832138 0.00219909 0.0294549 0.00280541 0.0158192 0.00329557 0.0298491 0.00430003 0.0180267 0.00352815 0.0492048
62 3 O 4.7611 10.8154 0.196716 -1.2 1 0.000658399 0.00300421 0.00175083 0.00480481 0.00142135 0.00852223 0.00225464 0.0212914 0.00157215 0.00867747 0.00179798 0.0284115 0.00290301 0.0154879 0.0037405 0.0297535 0.00374397 0.0173171 0.0035096 0.0484759
63 1 Mg 6.35203 9.49799 2.9896 1.2 1 0.00184849 0.00382329 0.00137746 0.00497483 0.00270031 0.00770295 0.00352301 0.0204703 0.00316685 0.00827022 0.0021031 0.0293041 0.00372584 0.0159257 0.00347007 0.0291977 0.00448806 0.0186915 0.00551935 0.0488401
64 3 O 4.71833 10.8154 2.79288 -1.2 1 0.00247746 0.00373798 0.00162798 0.00464146 0.0021063 0.00829674 0.00241937 0.021397 0.00221212 0.00878062 0.00219783 0.028342 0.00373758 0.01585 0.00401528 0.0300917 0.00527663 0.0186032 0.0054336 0.0499444
65 1 Mg -1.0438 9.53931 4.4844 1.2 1 0.00355945 0.00470097 0.00130643 0.00463233 0.00296634 0.00697458 0.00264821 0.0209139 0.00284758 0.00797141 0.00274417 0.0285806 0.00389011 0.0162916 0.00441361 0.029731 0.00666877 0.0202419 0.00728015 0.0496742
66 2 Si -2.8604 12.2234 4.4844 2.4 1 0.00383783 0.00423372 0.00163046 0.00459915 0.00262897 0.00786767 0.00322318 0.0218603 0.00287108 0.00822721 0.00245273 0.0283558 0.00409401 0.0164665 0.00419412 0.0301003 0.00580768 0.0197037 0.00687311 0.0510071
67 3 O -2.91391 10.6102 4.4844 -1.2 1 0.00373168 0.00443072 0.00141665 0.00464258 0.00272624 0.00722242 0.00332794 0.0206356 0.00253071 0.00756472 0.00226371 0.0287643 0.00435904 0.0157067 0.00423157 0.0306147 0.00608823 0.0200661 0.00698346 0.0500646
68 3 O 0.7596 13.1975 4.4844 -1.2 1 0.00419658 0.00432669 0.00169254 0.00494751 0.00259229 0.00870318 0.0026971 0.0222779 0.00261215 0.00814343 0.00281205 0.0285876 0.00388969 0.0163546 0.00400371 0.0303363 0.0061575 0.0199564 0.00703569 0.0512986
69 3 O -2.12001 12.9296 3.18632 -1.2 1 0.00373287 0.00397655 0.00146489 0.00433256 0.00229459 0.00779267 0.00222925 0.0218606 0.00234366 0.0082359 0.00240992 0.0279722 0.00364392 0.0162175 0.00449349 0.0303614 0.00526507 0.0186734 0.00559394 0.0504611
70 3 O -2.16532 12.9296 5.78248 -1.2 1 0.0047258 0.0045421 0.00141724 0.00465569 0.00259237 0.00705514 0.00214512 0.0219694 0.00231047 0.00811215 0.00324542 0.0277159 0.00377479 0.0168914 0.00516129 0.0312973 0.00644963 0.0214534 0.00697823 0.052674
71 1 Mg 1.29891 11.8725 2.9896 1.2 1 0.00272017 0.00365516 0.0017019 0.00488654 0.00236319 0.00812607 0.00286101 0.0211022 0.00238764 0.00831206 0.00213878 0.0291541 0.00345647 0.0163706 0.00336551 0.0301065 0.0048031 0.0182088 0.00500291 0.0497215
72 1 Mg 4.10033 11.8312 4.4844 1.2 1 0.00370104 0.0041559 0.00172551 0.00463511 0.00234503 0.00756033 0.00272907 0.0215796 0.00243507 0.00801041 0.00296256 0.0287956 0.00372203 0.017161 0.00546172 0.0307011 0.0067337 0.019941 0.00672798 0.0510631
73 2 Si 2.27333 13.896 4.4844 2.4 1 0.00391041 0.00383127 0.00144847 0.00503489 0.00284855 0.00805311 0.00327585 0.021914 0.00233986 0.00815967 0.00289657 0.02818 0.00383771 0.0167941 0.00429594 0.0303514 0.00576372 0.0195027 0.0064815 0.0521849
74 3 O 2.28634 15.5093 4.4844 -1.2 1 0.00398787 0.00415637 0.0016058 0.00455154 0.00285103 0.00742291 0.00280982 0.0210564 0.00236884 0.00760586 0.00237106 0.0285171 0.00341129 0.0162275 0.00412038 0.0308442 0.0057732 0.0191171 0.00650639 0.0517629
75 3 O -4.34533 12.922 4.4844 -1.2 1 0.00372532 0.00433238 0.00169981 0.00477588 0.00263614 0.00849422 0.00303018 0.0218495 0.00281635 0.00822164 0.00258964 0.0289075 0.00396612 0.0164958 0.00488944 0.03064 0.00642277 0.0200858 0.00740366 0.0509557
76 3 O 2.98455 13.1899 3.18632 -1.2 1 0.00322723 0.00364207 0.00123052 0.00453183 0.002275 0.00783331 0.00212599 0.0218587 0.00210114 0.00845206 0.00260168 0.0280171 0.00361008 0.0163106 0.00433915 0.0304683 0.00571749 0.0187322 0.00562291 0.050616
77 1 Mg 1.34779 11.8725 0 1.2 1 0.000989288 0.00278421 0.00126257 0.00481873 0.00121434 0.00878745 0.00175024 0.0213479 0.00127188 0.00917968 0.00194765 0.0290909 0.00290745 0.014961 0.00295468 0.0301753 0.00328775 0.0173435 0.00315225 0.0479805
78 3 O 2.93934 13.1899 5.78248 -1.2 1 0.00446278 0.00460672 0.00169208 0.00488644 0.00267861 0.00719994 0.00274128 0.0219116 0.00234235 0.00818906 0.00297547 0.0276589 0.00424224 0.0166204 0.00488356 0.031373 0.00616708 0.0218783 0.00684141 0.052546
79 1 Mg -1.50344 11.9138 1.4948 1.2 1 0.00132529 0.00346842 0.00134189 0.00450692 0.00129096 0.00823859 0.00180558 0.0217172 0.00239643 0.00847168 0.00154803 0.028809 0.0036469 0.0162175 0.00333498 0.0297951 0.00357043 0.0177005 0.00380557 0.0491158
80 2 Si 0.326006 9.84894 1.4948 2.4 1 0.000421584 0.0034386 0.00116334 0.00496306 0.00196036 0.00812647 0.00210709 0.0210796 0.00221982 0.00840777 0.00161223 0.0287031 0.00310196 0.0156585 0.00364574 0.0289418 0.00399343 0.0179495 0.00350622 0.0485306
81 3 O 0.317364 8.23571 1.4948 -1.2 1 0.00118721 0.00362704 0.00105874 0.00455253 0.00187303 0.00779953 0.00221257 0.0202646 0.00260094 0.00794049 0.00191647 0.0288466 0.00358587 0.0156924 0.00386274 0.0286833 0.00453153 0.0178828 0.0041585 0.0477478
82 3 O 6.94307 10.823 1.4948 -1.2 1 0.00144345 0.00380322 0.00118084 0.00462855 0.00186581 0.00777304 0.00263004 0.0218292 0.00236826 0.0083128 0.0015427 0.0294209 0.00314162 0.0157393 0.00346082 0.0300505 0.00381251 0.018213 0.00408279 0.0492271
83 3 O -0.343122 10.5551 0.196716 -1.2 1 0.000659649 0.00308425 0.00118075 0.00470552 0.00136669 0.0084747 0.00191232 0.0214914 0.00170701 0.00904008 0.00193051 0.028268 0.0034374 0.0154032 0.00415157 0.029469 0.00366767 0.0175466 0.00350083 0.0483325
84 3 O -0.385966 10.5551 2.79288 -1.2 1 0.00282423 0.00398628 0.000983763 0.00463767 0.00248073 0.00823093 0.00227751 0.0214853 0.00213473 0.00885441 0.00254711 0.0278806 0.00384006 0.0159057 0.00393171 0.029991 0.00528485 0.0189246 0.00514557 0.0497386
85 1 Mg 6.49448 14.247 0 1.2 1 0.00115319 0.00311537 0.00165788 0.00452403 0.00109603 0.00916281 0.00142313 0.0213695 0.0012598 0.00861862 0.00153416 0.0288478 0.00172404 0.0155039 0.002363 0.0300223 0.00314001 0.0165275 0.00287716 0.0480233
86 1 Mg 3.74457 18.9547 1.4948 1.2 1 0.00228309 0.00288021 0.00125892 0.00375476 0.00174172 0.00846011 0.00119913 0.0222283 0.00189708 0.00815885 0.00232284 0.0276359 0.00243688 0.0165625 0.00352679 0.0289458 0.0037734 0.0163997 0.00373649 0.0499687
87 2 Si 5.55495 16.2705 1.4948 2.4 1 0.00245628 0.00285811 0.00133484 0.00430567 0.00177504 0.00881567 0.00135117 0.0214993 0.00127685 0.00796613 0.00141819 0.0285344 0.00231009 0.0162943 0.00272565 0.0290727 0.00385389 0.0159259 0.00366629 0.0494781
88 3 O 5.6115 17.8838 1.4948 -1.2 1 0.00233492 0.00285523 0.00152334 0.00408303 0.00175739 0.00907914 0.00162614 0.0217266 0.00181238 0.00790092 0.00154701 0.028708 0.00204474 0.0165002 0.00276273 0.0291122 0.00352037 0.01587 0.00381712 0.049461
89 3 O 1.93416 15.2965 1.4948 -1.2 1 0.00228312 0.00305059 0.00137611 0.004501 0.00177623 0.00837729 0.00191912 0.0220368 0.00166979 0.0081539 0.00159426 0.0290337 0.0020639 0.0163089 0.00286257 0.0298668 0.003981 0.016614 0.00354967 0.0498202
90 3 O 4.85636 15.5644 0.196716 -1.2 1 0.00179922 0.00237822 0.00145114 0.00438706 0.0011427 0.0090922 0.00127035 0.0215231 0.00102561 0.00828122 0.0017108 0.0280243 0.00246764 0.0161139 0.00332958 0.0293594 0.00332182 0.0158166 0.0030206 0.0488662
91 1 Mg 6.44662 14.247 2.9896 1.2 1 0.00256268 0.00371188 0.00112401 0.0046068 0.00247072 0.00864166 0.00274979 0.0210797 0.00256275 0.00864951 0.00204171 0.0290947 0.00291866 0.0163603 0.00317136 0.0296323 0.00420995 0.0178925 0.00491196 0.0497818
92 3 O 4.81537 15.5644 2.79288 -1.2 1 0.0031086 0.00316027 0.00133754 0.00432707 0.00224555 0.00874058 0.00172949 0.0219156 0.00162853 0.00857953 0.00191366 0.0279287 0.00288156 0.0164395 0.00369389 0.0298403 0.00492247 0.017386 0.0052527 0.0504033
93 1 Mg -0.948271 14.2883 4.4844 1.2 1 0.00440636 0.00419002 0.00139021 0.00433025 0.00251058 0.00767572 0.00249649 0.0216301 0.00253913 0.00793966 0.00274805 0.0285179 0.00335212 0.0170894 0.00463713 0.0305658 0.00599725 0.0192078 0.00672086 0.0516298
94 2 Si -2.75928 16.9724 4.4844 2.4 1 0.00386225 0.00391961 0.00163872 0.00435898 0.00277308 0.00789988 0.00275904 0.0221556 0.00272805 0.00788385 0.00263628 0.027895 0.00336833 0.0170231 0.00467699 0.0299213 0.00521759 0.0188003 0.00609981 0.0522443
95 3 O -2.81617 15.3592 4.4844 -1.2 1 0.00455522 0.00409024 0.00161918 0.00426547 0.00282486 0.00756906 0.00284136 0.0211904 0.00265773 0.00762117 0.00240235 0.0285633 0.00335405 0.0162107 0.0042271 0.0307885 0.00601679 0.0189538 0.00688147 0.0516846
96 3 O 0.862762 17.9465 4.4844 -1.2 1 0.00366222 0.00414622 0.00134386 0.00450299 0.00281568 0.0083294 0.00244559 0.0224927 0.00248297 0.00789474 0.00258466 0.0283714 0.00372368 0.0170939 0.00417776 0.0296608 0.00578553 0.0190346 0.00648171 0.0519586
97 3 O -2.0185 17.6786 3.18632 -1.2 1 0.00350855 0.00350363 0.00168294 0.00386566 0.00264727 0.00764637 0.00219198 0.0224241 0.00227281 0.00797947 0.00228475 0.0274809 0.00319133 0.0166098 0.00467405 0.030289 0.00494404 0.017859 0.00530161 0.0516084
98 3 O -2.06164 17.6786 5.78248 -1.2 1 0.00444618 0.00427026 0.0016161 0.00442702 0.00260192 0.0068496 0.00236879 0.0224403 0.0022582 0.00787001 0.00275689 0.0273896 0.00324043 0.0175711 0.00479807 0.0312372 0.00587605 0.0208621 0.00624464 0.053559
99 1 Mg 1.39817 16.6215 2.9896 1.2 1 0.00299405 0.0032486 0.00148401 0.00439537 0.00246149 0.00837028 0.00263882 0.0213029 0.00243854 0.00808073 0.00214328 0.0286752 0.00271101 0.0166804 0.00330983 0.0296541 0.00432657 0.0168699 0.00479069 0.0502353
100 1 Mg 4.20062 16.5802 4.4844 1.2 1 0.00378736 0.00363324 0.00186284 0.00455038 0.00258178 0.00787074 0.00244399 0.0217914 0.00293975 0.00776297 0.00299978 0.0284925 0.00333235 0.0176761 0.00544684 0.0301788 0.00650706 0.018898 0.00645066 0.0517921
101 2 Si 2.37796 18.645 4.4844 2.4 1 0.00348983 0.00325393 0.0014957 0.00459993 0.00292728 0.00795984 0.0029054 0.0225007 0.00248085 0.00799771 0.00269235 0.0276739 0.00356357 0.017514 0.00454703 0.0296088 0.00538815 0.0184994 0.00614145 0.0530943
102 3 O 2.39434 20.2583 4.4844 -1.2 1 0.00349968 0.00366322 0.00148745 0.0043283 0.00304509 0.00681994 0.00277431 0.0215334 0.00273977 0.0074843 0.00207418 0.028381 0.00316069 0.0170196 0.00431278 0.0302121 0.00574462 0.0184336 0.00680176 0.0526281
103 3 O -4.24274 17.671 4.4844 -1.2 1 0.00357603 0.00418835 0.00178153 0.00439396 0.00267183 0.008565 0.00258202 0.0224225 0.00272391 0.00794479 0.00243315 0.0282581 0.00322727 0.0168478 0.0048187 0.0301957 0.00601099 0.0193943 0.00658505 0.05206
104 3 O 3.08659 17.9389 3.18632 -1.2 1 0.00332614 0.0030751 0.00153301 0.00410595 0.00259979 0.00792127 0.00210699 0.0222257 0.00229343 0.00798849 0.0023746 0.0275802 0.00311494 0.0166619 0.00418806 0.0297583 0.00553374 0.0176421 0.00592392 0.0512631
105 1 Mg 1.44478 16.6215 0 1.2 1 0.00221763 0.00229661 0.00118162 0.00398561 0.00135402 0.00875603 0.00114822 0.0216798 0.00135252 0.00831068 0.0015248 0.0286466 0.00237117 0.015666 0.00230465 0.0292808 0.0029427 0.0158631 0.0030305 0.0486864
106 3 O 3.0436 17.9389 5.78248 -1.2 1 0.00384864 0.00428119 0.00148537 0.00467948 0.00252102 0.00707999 0.00223957 0.0222584 0.00214116 0.00805361 0.0027171 0.0273935 0.00341328 0.0171441 0.00459521 0.0309823 0.00589505 0.0210853 0.00625865 0.0534772
107 1 Mg -1.40524 16.6628 1.4948 1.2 1 0.002129 0.00308988 0.00123449 0.00427634 0.00160126 0.00869097 0.00177662 0.0222407 0.001877 0.00822692 0.00179161 0.0282059 0.0030843 0.0166327 0.00301683 0.0295249 0.00311192 0.0165506 0.0034739 0.0494973
108 2 Si 0.420358 14.5979 1.4948 2.4 1 0.00203139 0.00275779 0.00149579 0.00481569 0.00197131 0.00903334 0.00186666 0.0214076 0.00154069 0.00829803 0.00159695 0.0285471 0.00289457 0.0164301 0.00342839 0.028947 0.00363794 0.0163899 0.00346261 0.0492645
109 3 O 0.408732 12.9847 1.4948 -1.2 1 0.00170174 0.00308998 0.00112696 0.00480706 0.0016659 0.00904134 0.0013499 0.0211524 0.00214591 0.00839558 0.0015342 0.029068 0.00314982 0.0161409 0.00298906 0.0299009 0.0033418 0.0170488 0.00360837 0.0491195
110 3 O 7.03923 15.572 1.4948 -1.2 1 0.00220086 0.00303928 0.00111055 0.00434968 0.00196913 0.00825536 0.00221207 0.0218455 0.00207315 0.00803152 0.00167773 0.0291853 0.00255418 0.0164772 0.00284889 0.0297719 0.00370331 0.0167257 0.00398352 0.0496285
111 3 O -0.248332 15.3041 0.196716 -1.2 1 0.00177333 0.00240488 0.00138765 0.00435131 0.00108051 0.008847 0.00193401 0.0213931 0.00135693 0.00835971 0.00158715 0.0281227 0.00284116 0.0158993 0.00359366 0.0292401 0.00308892 0.0158883 0.00318366 0.0487576
112 3 O -0.289436 15.3041 2.79288 -1.2 1 0.00358403 0.00355072 0.00112808 0.00426967 0.00223517 0.0086856 0.00204083 0.0221048 0.00182284 0.00868698 0.00213039 0.0274906 0.00291551 0.0166938 0.00361823 0.0297916 0.00469882 0.0178416 0.00485579 0.0503746
113 1 Mg 6.59566 18.996 0 1.2 1 0.00123776 0.00271909 0.00151677 0.00404135 0.00096544 0.0085806 0.00120268 0.0220327 0.00120957 0.00780623 0.00144674 0.028112 0.00206474 0.0162386 0.00241594 0.0287849 0.00295581 0.0156693 0.0029173 0.0487558
114 1 Mg 3.85574 23.7037 1.4948 1.2 1 0.0018787 0.00238922 0.00116956 0.0040139 0.00160159 0.00741895 0.00121265 0.0231403 0.00184801 0.00759193 0.00210774 0.0271028 0.00231625 0.0175543 0.00366284 0.028718 0.00360729 0.0172838 0.00391674 0.0509022
115 2 Si 5.66125 21.0195 1.4948 2.4 1 0.00197526 0.00242573 0.00116153 0.00393508 0.00200061 0.00816549 0.00145621 0.0218975 0.00134296 0.00749415 0.00157421 0.0280247 0.00246724 0.0173331 0.0029005 0.0283377 0.00385489 0.0157831 0.00418012 0.0503104
116 3 O 5.72074 22.6328 1.4948 -1.2 1 0.00210222 0.00245037 0.00154804 0.00396666 0.00172762 0.00815409 0.0015644 0.0223671 0.0018943 0.0072916 0.00142624 0.027911 0.002178 0.0173767 0.00305996 0.0285902 0.00356478 0.0163625 0.00393539 0.0503442
117 3 O 2.03867 20.0455 1.4948 -1.2 1 0.00179818 0.00284434 0.00127669 0.00411454 0.00187455 0.00770194 0.00190379 0.0222797 0.00220065 0.00751086 0.00171605 0.0284549 0.00219701 0.0171128 0.00270086 0.0291424 0.0039315 0.0161969 0.00394166 0.0503592
118 3 O 4.96004 20.3134 0.196716 -1.2 1 0.00165049 0.00208797 0.00137156 0.0038172 0.00115991 0.00824832 0.00109427 0.0218546 0.00107018 0.00747205 0.0017233 0.027557 0.00273282 0.0163995 0.00379087 0.0287469 0.00330245 0.0152177 0.00318661 0.0494856
119 1 Mg 6.55057 18.996 2.9896 1.2 1 0.0023839 0.00343661 0.00131473 0.00405401 0.00263604 0.00823362 0.00279897 0.0214407 0.0024771 0.00796804 0.00180935 0.0288602 0.00283583 0.0170924 0.00319053 0.029223 0.00415884 0.0170605 0.0049794 0.050733