ITEM: TIMESTEP
26500
ITEM: NUMBER OF ATOMS
10500
ITEM: BOX BOUNDS xy xz yz pp pp pp
0	15.2977	5.09925
0	118.725	0
0	89.688	0
ITEM: ATOMS id type element xu yu zu q Q_1 Q_2 Q_3 Q_4 Q_5 Q_6 Q_7 Q_8 Q_9 Q_10 Q_11 Q_12 Q_13 Q_14 Q_15 Q_16 Q_17 Q_18 Q_19 Q_20 Q_21
1 1 Mg 6.2404 -6.37941e-06 0 1.2 1 0.0026338 0.00396882 0.000984637 0.00443656 0.00139276 0.00545411 0.00202737 0.016145 0.0021391 0.0058305 0.00232035 0.0222345 0.00279522 0.0132927 0.0037485 0.0208275 0.00391622 0.0145047 0.00387867 0.0404431
2 1 Mg 3.46349 4.70768 1.4948 1.2 1 0.00179286 0.00286508 0.00135634 0.00407735 0.00189427 0.00597351 0.00372854 0.01856 0.00281052 0.00688709 0.00305072 0.0262357 0.00350992 0.0135297 0.00469317 0.0253278 0.00521411 0.0170328 0.00549561 0.0435705
3 2 Si 5.2885 2.02354 1.4948 2.4 1 0.00221698 0.0028728 0.00177222 0.0042491 0.00172767 0.00548599 0.00253863 0.0170282 0.0022424 0.00623821 0.00216996 0.0237859 0.00311252 0.0130999 0.00406856 0.0218138 0.00394308 0.0154189 0.00436011 0.0411135
4 3 O 5.33628 3.63678 1.4948 -1.2 1 0.00148848 0.00229848 0.00141505 0.00450299 0.00196386 0.00604069 0.0029815 0.0178381 0.00210894 0.00668786 0.00210638 0.0255455 0.00272351 0.0132242 0.0045839 0.0241524 0.00512686 0.0164115 0.00556454 0.0426278
5 3 O 1.67294 1.04952 1.4948 -1.2 1 0.00294635 0.00288583 0.00205055 0.00397759 0.00143121 0.00547667 0.00234672 0.0168282 0.00202488 0.00609047 0.00220935 0.023289 0.00308005 0.0122894 0.00359247 0.0222083 0.00431545 0.0158735 0.0046487 0.0401601
6 3 O 4.59532 1.31737 0.196716 -1.2 1 0.00252034 0.00257839 0.0018162 0.00402588 0.00203937 0.00544811 0.00240336 0.0171574 0.00259277 0.006384 0.00210494 0.0226898 0.00344262 0.0125427 0.00458011 0.0217405 0.00412924 0.0149841 0.00449161 0.0407841
7 1 Mg 6.18956 -6.37941e-06 2.9896 1.2 1 0.00251906 0.00363056 0.00135063 0.00401642 0.00131574 0.00552371 0.0023881 0.0161303 0.00255285 0.00568144 0.00163933 0.0231651 0.00321608 0.0127698 0.00378206 0.0211143 0.00420819 0.0150752 0.00468209 0.039009
8 3 O 4.55118 1.31737 2.79288 -1.2 1 0.00257629 0.00368793 0.00170299 0.00404869 0.00183771 0.00553111 0.00247725 0.0169733 0.00232877 0.0070113 0.0024336 0.0225193 0.00367496 0.0117912 0.00367685 0.0218682 0.0045324 0.015823 0.00517072 0.0400002
9 1 Mg -1.20682 0.0413099 4.4844 1.2 1 0.00220333 0.0022726 0.00141951 0.00420636 0.00118617 0.00501581 0.00205662 0.0161521 0.00218109 0.00587283 0.00207871 0.0237057 0.00359557 0.0109349 0.00363173 0.0215719 0.00499948 0.0160134 0.00496642 0.0387577
10 2 Si -3.0337 2.72544 4.4844 2.4 1 0.00158912 0.00272678 0.00156124 0.004601 0.00188899 0.00599493 0.00299061 0.0167901 0.00316201 0.00604826 0.00221586 0.0248656 0.00364447 0.0122845 0.00418675 0.0228626 0.00527476 0.0179186 0.00586267 0.0400668
11 3 O -3.08099 1.11221 4.4844 -1.2 1 0.00182493 0.00304073 0.00164086 0.00407169 0.00115752 0.00513016 0.0023547 0.0159879 0.00277843 0.00548126 0.00213086 0.0233589 0.00356052 0.0106266 0.00364165 0.0218937 0.0049539 0.016485 0.00510328 0.0384575
12 3 O 0.582463 3.69946 4.4844 -1.2 1 0.00240425 0.00410751 0.00201827 0.00418303 0.00238862 0.00643002 0.00355215 0.0174313 0.00333451 0.00626549 0.00306592 0.025531 0.00430184 0.0123322 0.00446692 0.0245516 0.00682998 0.0187131 0.00786547 0.0418057
13 3 O -2.29524 3.43162 3.18632 -1.2 1 0.00178274 0.00238515 0.00222635 0.00434793 0.00211931 0.0059172 0.00296402 0.017969 0.003131 0.00665004 0.00272775 0.0251433 0.00360645 0.0124925 0.0049536 0.0245207 0.00582193 0.0179918 0.00639426 0.0420315
14 3 O -2.34216 3.43162 5.78248 -1.2 1 0.00191683 0.003286 0.00101691 0.00449439 0.00235334 0.00581832 0.00316626 0.0169662 0.00292015 0.00683084 0.00270728 0.0243496 0.00478454 0.0116303 0.00450706 0.0238077 0.00620008 0.0193115 0.00694357 0.04013
15 1 Mg 1.12778 2.37449 2.9896 1.2 1 0.00275256 0.00324872 0.00224981 0.00426564 0.00208031 0.00568248 0.00304652 0.0165755 0.00249077 0.00622058 0.00245342 0.0242601 0.003693 0.0124091 0.00370222 0.0222809 0.00461668 0.0166149 0.00536675 0.0407255
16 1 Mg 3.92855 2.33318 4.4844 1.2 1 0.00209007 0.00364596 0.00131026 0.00402729 0.00171555 0.00567065 0.00320621 0.01687 0.00303314 0.00574616 0.00288639 0.0238951 0.00384031 0.0125163 0.00520068 0.0224354 0.00609634 0.0174677 0.00684906 0.0402368
17 2 Si 2.09341 4.39804 4.4844 2.4 1 0.00165553 0.00391609 0.00187249 0.00410506 0.00269296 0.00581125 0.00345989 0.0181157 0.00347313 0.00658592 0.00342758 0.0255286 0.00485335 0.0136033 0.00462186 0.0249031 0.00657555 0.0186142 0.00774919 0.0435231
18 3 O 2.09991 6.01128 4.4844 -1.2 1 0.00186315 0.0043118 0.00156637 0.00383991 0.0028909 0.00635235 0.00313039 0.0192135 0.00268323 0.00681611 0.00318546 0.0271472 0.00428641 0.0139131 0.00492629 0.0275413 0.00667273 0.0194088 0.00776632 0.0451071
19 3 O -4.52137 3.42402 4.4844 -1.2 1 0.00135505 0.00341948 0.00186579 0.00436457 0.00224378 0.00697902 0.00328742 0.0171415 0.0032011 0.00615824 0.00310498 0.0244039 0.00413228 0.0122244 0.00463044 0.0233179 0.00600346 0.0181428 0.0073484 0.0414517
20 3 O 2.80834 3.69187 3.18632 -1.2 1 0.0017274 0.00342829 0.00155757 0.00359422 0.002044 0.00566181 0.00303019 0.01732 0.00300903 0.00636885 0.00282677 0.0247984 0.00380462 0.0124315 0.00478467 0.0241646 0.00554018 0.0172197 0.00618222 0.0424707
21 1 Mg 1.17857 2.37449 0 1.2 1 0.00310774 0.00284177 0.00225819 0.00399713 0.00139518 0.00528192 0.00240733 0.0173335 0.00235662 0.00664849 0.00289902 0.0234386 0.003295 0.0128831 0.00378653 0.0217468 0.00441271 0.0151766 0.00486082 0.0406887
22 3 O 2.76143 3.69187 5.78248 -1.2 1 0.0020148 0.00396281 0.00182346 0.00392976 0.00201431 0.00553452 0.00268391 0.0175607 0.00308518 0.00654535 0.00285756 0.0244841 0.00490216 0.0125696 0.00577815 0.0238332 0.00660329 0.018686 0.00750521 0.0412512
23 1 Mg -1.67381 2.41581 1.4948 1.2 1 0.00283953 0.00225445 0.00254249 0.00462217 0.00143292 0.00583504 0.00254684 0.0166153 0.00263888 0.00636434 0.0021049 0.024824 0.00299183 0.0138959 0.00315624 0.0224245 0.00429993 0.0162511 0.00486071 0.0416408
24 2 Si 0.16286 0.350945 1.4948 2.4 1 0.00339898 0.00214832 0.00273566 0.00416813 0.00129686 0.00605554 0.00261851 0.0164553 0.0020068 0.00541013 0.00200178 0.0234905 0.0027989 0.0130887 0.00324967 0.0210399 0.00432422 0.0151056 0.00437477 0.0402479
25 3 O 0.15972 -1.26229 1.4948 -1.2 1 0.0034505 0.00244771 0.00290581 0.00425785 0.00160462 0.00589231 0.00235743 0.0164133 0.00225984 0.00556214 0.00256966 0.0233391 0.00291021 0.0134077 0.00328516 0.0220368 0.0039746 0.0150502 0.00396861 0.0407027
26 3 O 6.77654 1.32496 1.4948 -1.2 1 0.00270133 0.00331233 0.00149836 0.00431414 0.00123279 0.00581606 0.00234073 0.0167967 0.00228596 0.00560252 0.00187104 0.0242405 0.00316939 0.0130899 0.00381813 0.0220899 0.00455451 0.0154322 0.0044573 0.0407258
27 3 O -0.508028 1.05712 0.196716 -1.2 1 0.00284533 0.00239541 0.00354702 0.00395714 0.00128243 0.00534188 0.00248937 0.0170308 0.00162501 0.0068137 0.00259221 0.0226552 0.00301128 0.0126385 0.00342656 0.0215055 0.00405394 0.0156056 0.00458968 0.0401292
28 3 O -0.552171 1.05712 2.79288 -1.2 1 0.0028017 0.00186033 0.00266353 0.00420287 0.00130777 0.00598829 0.00233545 0.0162378 0.00243465 0.00633585 0.00170132 0.0236202 0.00349028 0.0114247 0.003681 0.0222651 0.00500775 0.0160971 0.0048761 0.0397729
29 1 Mg 6.31713 4.74899 0 1.2 1 0.00145709 0.00250732 0.00183477 0.00453131 0.00231996 0.00601501 0.00336607 0.0181002 0.00290374 0.00710871 0.00244111 0.0255031 0.0032059 0.0134863 0.00455415 0.0244176 0.00491411 0.0163862 0.00599099 0.0424991
30 1 Mg 3.54847 9.45668 1.4948 1.2 1 0.000680734 0.00305502 0.00146158 0.00444967 0.00203729 0.0075799 0.00319487 0.0214303 0.00166228 0.00847164 0.00247553 0.0286575 0.00337139 0.0153394 0.0038905 0.0290264 0.00414233 0.0180803 0.00371302 0.0485902
31 2 Si 5.36879 6.77254 1.4948 2.4 1 0.000667506 0.00271423 0.00162697 0.00491994 0.00265077 0.00682424 0.00380431 0.0196915 0.00267503 0.00776695 0.00261112 0.0278543 0.00325036 0.0150456 0.00448094 0.0267968 0.00470726 0.0173248 0.00508098 0.0463529
32 3 O 5.41937 8.38578 1.4948 -1.2 1 0.00049651 0.00287855 0.00145161 0.00488894 0.00222806 0.00768257 0.00328658 0.0210696 0.00218172 0.00836662 0.00265263 0.0292402 0.00249156 0.0153599 0.00340159 0.0289055 0.00466874 0.017424 0.00466247 0.0479069
33 3 O 1.75158 5.79852 1.4948 -1.2 1 0.00138644 0.00304994 0.00170836 0.00386426 0.00223601 0.00597507 0.00333248 0.0195856 0.00273461 0.00724833 0.00279193 0.0282408 0.00314915 0.0151065 0.00369635 0.0266861 0.00540708 0.0175135 0.00531397 0.0454932
34 3 O 4.67421 6.06637 0.196716 -1.2 1 0.00111186 0.00260071 0.00141339 0.00460227 0.00199933 0.00670055 0.00311908 0.0198385 0.00240008 0.00813574 0.00229766 0.0264542 0.00364477 0.0141369 0.00458459 0.0265215 0.00487153 0.0167684 0.00552228 0.0448899
35 1 Mg 6.26654 4.74899 2.9896 1.2 1 0.00158104 0.00260773 0.00180361 0.00477972 0.00260749 0.00647445 0.00382937 0.0179933 0.00376578 0.00697261 0.00227553 0.0262845 0.00393672 0.0138126 0.0052565 0.0250184 0.00575722 0.0177262 0.00664532 0.043337
36 3 O 4.63043 6.06637 2.79288 -1.2 1 0.00154756 0.00313021 0.00139488 0.00474768 0.00226303 0.00668672 0.00330374 0.019431 0.00340552 0.00788271 0.00255311 0.026496 0.00402803 0.0142693 0.00471202 0.0272876 0.00572028 0.018199 0.00651073 0.0454213
37 1 Mg -1.12976 4.79031 4.4844 1.2 1 0.00171751 0.00357989 0.00168963 0.00457659 0.00240146 0.00649267 0.00321895 0.0180279 0.0035614 0.00700618 0.00310763 0.0264549 0.0043646 0.0135353 0.0048684 0.0258484 0.00731781 0.0192691 0.00761336 0.0440879
38 2 Si -2.9517 7.47444 4.4844 2.4 1 0.00176557 0.0037973 0.00120374 0.00510295 0.00281392 0.00664891 0.00381109 0.0204752 0.00343053 0.00779235 0.00310887 0.0278099 0.00484013 0.0154658 0.00550524 0.0281356 0.00691398 0.0193409 0.00758262 0.0475332
39 3 O -3.00198 5.86121 4.4844 -1.2 1 0.0012375 0.00394776 0.00101497 0.00482857 0.00309001 0.00642643 0.00418047 0.0188074 0.0036432 0.00749548 0.00291892 0.0265108 0.00473471 0.013465 0.00506734 0.0270661 0.00680071 0.019573 0.00810593 0.045415
40 3 O 0.666315 8.44846 4.4844 -1.2 1 0.00253215 0.00478035 0.00123189 0.00457539 0.00286087 0.00732915 0.00286093 0.0211418 0.00306549 0.00764377 0.00330902 0.028674 0.00488215 0.0154315 0.00444798 0.0291978 0.00621522 0.0196435 0.00765462 0.0481773
41 3 O -2.21213 8.18062 3.18632 -1.2 1 0.00137863 0.00395897 0.00124006 0.00444551 0.00254266 0.00642053 0.00288511 0.0208927 0.00282131 0.00817994 0.00297458 0.0277788 0.00448673 0.0153518 0.0053889 0.0289158 0.0059237 0.0188424 0.00644188 0.0482825
42 3 O -2.25864 8.18062 5.78248 -1.2 1 0.00294349 0.00457571 0.00165812 0.00452018 0.00310565 0.00594161 0.00314783 0.0207018 0.00261136 0.0080109 0.00362265 0.0275357 0.00514195 0.0160888 0.00554805 0.0291361 0.00696016 0.02059 0.00811317 0.0485275
43 1 Mg 1.20893 7.12349 2.9896 1.2 1 0.00121264 0.00364666 0.00160378 0.00420379 0.00263186 0.00664542 0.00381046 0.0197945 0.00290475 0.00794046 0.00288164 0.0283452 0.00364976 0.0152635 0.0040923 0.0273437 0.00562072 0.0182742 0.00608477 0.0468218
44 1 Mg 4.00982 7.08218 4.4844 1.2 1 0.00143418 0.00393508 0.00139725 0.00459993 0.0026499 0.00660277 0.00385741 0.0202422 0.00357975 0.00730934 0.00331292 0.0278079 0.00476377 0.016102 0.00594156 0.0281967 0.00719151 0.0192671 0.00800103 0.047002
45 2 Si 2.17861 9.14704 4.4844 2.4 1 0.00212694 0.00415688 0.0016293 0.00456429 0.00286927 0.00724085 0.00360748 0.0212959 0.00284516 0.00785809 0.00325618 0.0284924 0.00507379 0.0163878 0.00474197 0.0293341 0.00577845 0.0195734 0.00655065 0.0496689
46 3 O 2.18828 10.7603 4.4844 -1.2 1 0.00270703 0.00407751 0.00203805 0.00435656 0.00272542 0.00697321 0.00299304 0.0210285 0.00243316 0.00785958 0.00250987 0.0289522 0.00435199 0.0153933 0.00441993 0.030299 0.00579699 0.0195424 0.00632786 0.0504027
47 3 O -4.43805 8.17302 4.4844 -1.2 1 0.00122583 0.00423813 0.00165607 0.00490286 0.00241507 0.00764359 0.00341 0.0207528 0.00341509 0.00797449 0.00315608 0.0285724 0.00511828 0.0155639 0.0051397 0.0293884 0.00667092 0.0195655 0.00835688 0.0477527
48 3 O 2.89193 8.44087 3.18632 -1.2 1 0.00166959 0.00348853 0.00160533 0.00418038 0.00235576 0.00682263 0.00335527 0.0208012 0.00284027 0.0083007 0.00294226 0.027906 0.00420472 0.0155334 0.00478805 0.0287567 0.00585374 0.018746 0.00544297 0.0484051
49 1 Mg 1.25915 7.12349 0 1.2 1 0.00135884 0.00238974 0.00127092 0.00418913 0.00175819 0.00711775 0.00293436 0.0201661 0.00293312 0.00823232 0.00271716 0.0277285 0.00348154 0.0141703 0.00394612 0.0274633 0.00487894 0.0174117 0.00463897 0.0460767
50 3 O 2.84547 8.44087 5.78248 -1.2 1 0.00252228 0.00461093 0.00165404 0.00430722 0.00238528 0.00652314 0.00332901 0.0208643 0.00297068 0.00809031 0.00356407 0.0273621 0.00593131 0.0162857 0.00568374 0.0293997 0.00614056 0.020841 0.0075539 0.0485613
51 1 Mg -1.59284 7.16481 1.4948 1.2 1 0.0013391 0.00291597 0.00124593 0.00454136 0.00180192 0.00622011 0.00299222 0.0199271 0.00295341 0.00774148 0.00197887 0.0280914 0.00363317 0.015136 0.00410173 0.0271417 0.00476315 0.0175307 0.00548741 0.0466255
52 2 Si 0.240329 5.09994 1.4948 2.4 1 0.00178858 0.00316705 0.0019534 0.00411561 0.00181699 0.00666155 0.00326484 0.0189604 0.00304033 0.00729872 0.00234513 0.0264019 0.00324599 0.0141805 0.00417622 0.0248272 0.00514855 0.0170002 0.0052134 0.0445502
53 3 O 0.234538 3.48671 1.4948 -1.2 1 0.00244081 0.00322039 0.00266052 0.00418799 0.00194274 0.00627129 0.00263186 0.0178696 0.00329324 0.0069464 0.00248207 0.0249663 0.00365958 0.013178 0.00422682 0.0241467 0.00532705 0.0161823 0.0054782 0.0422626
54 3 O 6.85564 6.07396 1.4948 -1.2 1 0.000929564 0.00239136 0.0019506 0.00478722 0.00248553 0.00602789 0.00322237 0.01997 0.00308617 0.00751743 0.00220319 0.0280365 0.00341327 0.0142521 0.00491415 0.0269322 0.00561681 0.0176156 0.00609286 0.0452774
55 3 O -0.429565 5.80612 0.196716 -1.2 1 0.00152753 0.00270469 0.00222681 0.00406584 0.00176349 0.00691946 0.00276743 0.0195408 0.00283399 0.00838818 0.00258427 0.0258691 0.00306766 0.0137896 0.00417643 0.0257929 0.00530422 0.0167224 0.00580736 0.0450491
56 3 O -0.473377 5.80612 2.79288 -1.2 1 0.0015321 0.00335859 0.00182634 0.00440637 0.0022275 0.00662799 0.00322575 0.0192034 0.00318341 0.0079034 0.00297454 0.0263237 0.00415056 0.0139805 0.00452146 0.026361 0.00621911 0.0184297 0.00642938 0.0455342
57 1 Mg 6.40169 9.49799 0 1.2 1 0.000422603 0.00323272 0.00140068 0.00457586 0.00151231 0.00829799 0.00197226 0.0211527 0.00161121 0.00893259 0.00193032 0.0289696 0.00255476 0.0146899 0.00295357 0.0295963 0.0037206 0.0178233 0.00413592 0.0475567
58 1 Mg 3.64209 14.2057 1.4948 1.2 1 0.00190342 0.00298717 0.00154133 0.00432508 0.00159499 0.00866251 0.00173543 0.0217272 0.00163808 0.00862946 0.0024487 0.0283554 0.00277311 0.0162004 0.00320449 0.0294112 0.00344872 0.0169886 0.00330568 0.0491847
59 2 Si 5.45748 11.5215 1.4948 2.4 1 0.00166408 0.00295912 0.00148646 0.00452658 0.0017116 0.00811329 0.00233986 0.0211548 0.0016766 0.00829874 0.00195021 0.0290483 0.00270529 0.0160647 0.00361475 0.0291972 0.00395443 0.0169261 0.00355185 0.0491064
60 3 O 5.51101 13.1348 1.4948 -1.2 1 0.00183552 0.00304075 0.00165444 0.00441996 0.001473 0.00895084 0.00194406 0.0212364 0.00187138 0.0086188 0.00186714 0.0294832 0.00245538 0.0160675 0.00308207 0.0297809 0.00360272 0.0166627 0.00340288 0.0490039
61 3 O 1.83851 10.5475 1.4948 -1.2 1 0.000544726 0.00319063 0.0015974 0.00467073 0.00174897 0.00765815 0.00241537 0.02171 0.00181083 0.00839503 0.00237596 0.0296114 0.00298436 0.0156322 0.00352996 0.0297201 0.00400536 0.0177391 0.00316713 0.0491805
62 3 O 4.7611 10.8154 0.196716 -1.2 1 0.000698613 0.00261794 0.00170679 0.00463533 0.00153062 0.0084505 0.00223352 0.0214241 0.00145613 0.0088144 0.00203729 0.0284263 0.00301908 0.0154947 0.00398876 0.0293998 0.00371061 0.0171313 0.00348733 0.0485653
63 1 Mg 6.35203 9.49799 2.9896 1.2 1 0.000847384 0.00377735 0.00137319 0.00466095 0.00257008 0.00758349 0.00350406 0.0205093 0.0030505 0.00849379 0.0022482 0.0294496 0.0040903 0.0158961 0.00355779 0.0291211 0.00427526 0.0184309 0.00524358 0.0486563
64 3 O 4.71833 10.8154 2.79288 -1.2 1 0.00204792 0.00335347 0.00161907 0.00428881 0.00209755 0.0080539 0.00238871 0.0214711 0.0019513 0.00896408 0.00230407 0.0285264 0.00379837 0.0158815 0.00427647 0.0298625 0.00488949 0.0182894 0.00503858 0.0496705
65 1 Mg -1.0438 9.53931 4.4844 1.2 1 0.00274425 0.00440125 0.00157769 0.0043796 0.00292713 0.00679983 0.00263531 0.0210416 0.00280019 0.00814306 0.00286624 0.0285414 0.00421387 0.0161678 0.00491746 0.0293992 0.00632313 0.0196269 0.0068175 0.0494354
66 2 Si -2.8604 12.2234 4.4844 2.4 1 0.00291448 0.00390437 0.00199635 0.00423253 0.00278411 0.00766964 0.00321058 0.0218333 0.00298257 0.00844875 0.00243749 0.0284732 0.00452102 0.0164624 0.00449125 0.0298701 0.00557143 0.0191072 0.00622568 0.0509031
67 3 O -2.91391 10.6102 4.4844 -1.2 1 0.00285203 0.00429641 0.00180045 0.00418577 0.00294065 0.0070928 0.00340197 0.0206898 0.00269161 0.00767603 0.00194845 0.0289222 0.00470013 0.0157136 0.00424206 0.0304919 0.005673 0.0193517 0.00661992 0.0502075
68 3 O 0.7596 13.1975 4.4844 -1.2 1 0.0031597 0.00338902 0.00203406 0.00474585 0.00283637 0.00837767 0.00277874 0.0222331 0.00286859 0.00818057 0.00298123 0.0289644 0.00432035 0.0163067 0.00418415 0.029824 0.00572863 0.0192664 0.00652201 0.050646
69 3 O -2.12001 12.9296 3.18632 -1.2 1 0.00299206 0.00363252 0.00181101 0.00381872 0.00252289 0.00745061 0.00255664 0.0216003 0.00243733 0.00833643 0.00244058 0.0282634 0.00415848 0.0162887 0.0046264 0.0299943 0.00496615 0.0181928 0.00500874 0.0504816
70 3 O -2.16532 12.9296 5.78248 -1.2 1 0.00381331 0.00389991 0.00176096 0.00429256 0.00291651 0.0067839 0.00251315 0.0221018 0.00253571 0.00809944 0.00258811 0.0280354 0.00430474 0.0169041 0.00472917 0.0306738 0.00621157 0.0206172 0.00689545 0.0521626
71 1 Mg 1.29891 11.8725 2.9896 1.2 1 0.0022211 0.0031478 0.00173058 0.00458636 0.00238218 0.00784301 0.00301684 0.0211411 0.00266775 0.00855553 0.00236756 0.0293205 0.00384158 0.0161535 0.00380879 0.0296818 0.00435304 0.0176598 0.00451658 0.0494197
72 1 Mg 4.10033 11.8312 4.4844 1.2 1 0.0027083 0.00356724 0.0021616 0.00421284 0.00253359 0.00723121 0.00285318 0.0214777 0.00258613 0.00811182 0.00268671 0.0292287 0.00411164 0.017279 0.00523307 0.0299475 0.00617091 0.0191346 0.00597603 0.050601
73 2 Si 2.27333 13.896 4.4844 2.4 1 0.00296663 0.00289721 0.00177991 0.00474524 0.00293107 0.00774479 0.00326424 0.0220787 0.00259579 0.00806609 0.00274729 0.0283726 0.00400571 0.016695 0.00425029 0.0298463 0.00515435 0.0185433 0.00588271 0.0515854
74 3 O 2.28634 15.5093 4.4844 -1.2 1 0.00318878 0.00340909 0.00182141 0.00422441 0.00299438 0.00724473 0.00300787 0.0211818 0.00277755 0.00752183 0.00208646 0.028834 0.00366362 0.0161025 0.00394966 0.0304587 0.00540754 0.0185821 0.00601003 0.0510406
75 3 O -4.34533 12.922 4.4844 -1.2 1 0.00276573 0.00392405 0.00217567 0.00447221 0.00288901 0.0083164 0.00306105 0.0218502 0.00288901 0.00840373 0.00267628 0.0292764 0.00451854 0.0164703 0.00514414 0.0299831 0.00620699 0.019286 0.00680905 0.0506193
76 3 O 2.98455 13.1899 3.18632 -1.2 1 0.00254857 0.00296098 0.00166369 0.00411231 0.00251802 0.00772319 0.00245766 0.0219583 0.00229501 0.00852687 0.00240108 0.0282114 0.00375422 0.0160995 0.00430459 0.029831 0.00521583 0.0181887 0.00511206 0.0501611
77 1 Mg 1.34779 11.8725 0 1.2 1 0.00120104 0.00266667 0.00117434 0.0046123 0.00145547 0.0088032 0.00160063 0.021317 0.00137515 0.00920571 0.00200865 0.0290447 0.00299007 0.0147814 0.00316423 0.030056 0.00325609 0.0172282 0.0031552 0.048031
78 3 O 2.93934 13.1899 5.78248 -1.2 1 0.00300266 0.00378039 0.00192845 0.00450475 0.00278907 0.00699277 0.00273878 0.0222491 0.00259767 0.00806228 0.00318207 0.027949 0.00458827 0.0167686 0.00481662 0.030835 0.00575654 0.0210659 0.00661937 0.0520677
79 1 Mg -1.50344 11.9138 1.4948 1.2 1 0.00122111 0.00330089 0.00131129 0.00435066 0.00134447 0.00812343 0.00191069 0.0217063 0.00235089 0.00854599 0.0017958 0.0288431 0.00378435 0.016055 0.00366409 0.0296516 0.00342187 0.017489 0.00343709 0.0491356
80 2 Si 0.326006 9.84894 1.4948 2.4 1 0.000224903 0.00314634 0.00113514 0.00478657 0.00178349 0.00803536 0.00220124 0.0212019 0.00215636 0.00850421 0.00178421 0.0288153 0.0032716 0.0154647 0.00391073 0.0289451 0.00373705 0.0176412 0.00329598 0.0486196
81 3 O 0.317364 8.23571 1.4948 -1.2 1 0.000556718 0.00339507 0.000998748 0.00431625 0.00176628 0.00768811 0.00226875 0.0203738 0.00261865 0.00795856 0.00196961 0.0289082 0.00367492 0.0154491 0.00412751 0.0284918 0.00449717 0.0176415 0.00410568 0.0475274
82 3 O 6.94307 10.823 1.4948 -1.2 1 0.00104713 0.00342306 0.00120817 0.00431199 0.00179496 0.00764118 0.00272424 0.0218382 0.00233482 0.00842444 0.00154776 0.0296736 0.00308599 0.0157522 0.00349797 0.0297646 0.00362857 0.0178998 0.00388362 0.0491692
83 3 O -0.343122 10.5551 0.196716 -1.2 1 0.000453817 0.00297434 0.00102572 0.00458504 0.00142884 0.00850656 0.0020452 0.0212982 0.00166262 0.00892847 0.00212056 0.0282438 0.00335584 0.0151158 0.00406983 0.0293769 0.0035811 0.0174309 0.00349323 0.0483857
84 3 O -0.385966 10.5551 2.79288 -1.2 1 0.00241324 0.00371637 0.00114064 0.00430831 0.00242472 0.00789257 0.00234034 0.021619 0.00210589 0.00898414 0.00253417 0.0280266 0.00409747 0.0157267 0.00434283 0.0298226 0.00490119 0.0185876 0.00475915 0.0496281
85 1 Mg 6.49448 14.247 0 1.2 1 0.00137867 0.00320607 0.00160618 0.00455981 0.000999515 0.00916244 0.0013618 0.0213274 0.0012057 0.00859987 0.00146698 0.0288191 0.00173687 0.0154058 0.00247002 0.0300134 0.0031172 0.0165592 0.00282865 0.0482127
86 1 Mg 3.74457 18.9547 1.4948 1.2 1 0.00210516 0.00283051 0.0013431 0.00386115 0.00181415 0.00845454 0.00135868 0.0222101 0.00180147 0.00804522 0.00231602 0.0278054 0.00268496 0.0165597 0.00363559 0.0288367 0.00347256 0.016391 0.00306325 0.0498199
87 2 Si 5.55495 16.2705 1.4948 2.4 1 0.00229586 0.00284117 0.00128003 0.00429402 0.00174553 0.00884297 0.00145395 0.0213961 0.00135727 0.00786311 0.00139526 0.0287766 0.00243721 0.0162508 0.00297158 0.0288812 0.00355462 0.0159225 0.00353889 0.0493685
88 3 O 5.6115 17.8838 1.4948 -1.2 1 0.00226169 0.00278638 0.00156067 0.00400584 0.00175685 0.00918266 0.00168325 0.0216568 0.00181142 0.00778898 0.00148256 0.0288818 0.00233675 0.0164961 0.00289521 0.0289493 0.00318135 0.0158156 0.00332537 0.0494417
89 3 O 1.93416 15.2965 1.4948 -1.2 1 0.00184356 0.00285037 0.00148041 0.00426873 0.00185593 0.00829812 0.00212452 0.0219628 0.00195816 0.00802687 0.00166112 0.0291761 0.00231235 0.0162632 0.00303105 0.0295915 0.00345648 0.0165226 0.00311441 0.0497107
90 3 O 4.85636 15.5644 0.196716 -1.2 1 0.00179882 0.00255686 0.00126318 0.00441333 0.00127348 0.00911117 0.00134403 0.0214065 0.000832534 0.00822065 0.00167669 0.0280034 0.00256926 0.016095 0.00355741 0.0293413 0.0032433 0.0159409 0.00301165 0.0488564
91 1 Mg 6.44662 14.247 2.9896 1.2 1 0.00204424 0.00342444 0.00155114 0.00408268 0.00239876 0.0083403 0.00297857 0.0209221 0.00261597 0.00857565 0.00187698 0.0294216 0.00329301 0.0163892 0.00306792 0.029406 0.00362236 0.0174883 0.00439135 0.049451
92 3 O 4.81537 15.5644 2.79288 -1.2 1 0.0026356 0.00298193 0.0015966 0.00403249 0.00224398 0.00870865 0.00178276 0.0217953 0.00156766 0.00855051 0.00184156 0.0281822 0.00301767 0.0164197 0.00367297 0.0295013 0.00433225 0.0172716 0.00469419 0.0499902
93 1 Mg -0.948271 14.2883 4.4844 1.2 1 0.00361208 0.00329533 0.00172548 0.00403363 0.00271696 0.00759809 0.00267279 0.0216906 0.00282506 0.00813574 0.00293821 0.0286205 0.00364958 0.0168519 0.00519477 0.0300297 0.00570631 0.0188506 0.0061796 0.0508522
94 2 Si -2.75928 16.9724 4.4844 2.4 1 0.00316282 0.00274823 0.00176906 0.00427099 0.00272027 0.0079337 0.00291019 0.0221544 0.00272507 0.00781438 0.00248115 0.0282285 0.00375671 0.0173022 0.00446629 0.0292987 0.00495623 0.0182796 0.0055421 0.0517563
95 3 O -2.81617 15.3592 4.4844 -1.2 1 0.00354616 0.00342013 0.00191723 0.00403863 0.00292079 0.00744843 0.00306414 0.0212442 0.00282824 0.00757265 0.00209955 0.0288737 0.00381718 0.0162933 0.00386764 0.0301289 0.00572597 0.018415 0.00638426 0.0510036
96 3 O 0.862762 17.9465 4.4844 -1.2 1 0.00269666 0.00302677 0.00179386 0.00423695 0.00307249 0.00837824 0.00281501 0.0223835 0.00269702 0.00780973 0.00237368 0.0287951 0.00393236 0.0170393 0.00412844 0.029148 0.00523316 0.0185918 0.00578135 0.0511852
97 3 O -2.0185 17.6786 3.18632 -1.2 1 0.0028725 0.0029849 0.00166958 0.00371734 0.00247766 0.00770957 0.00232726 0.0222183 0.00233987 0.00789794 0.00227506 0.0278445 0.00370294 0.0165662 0.00458036 0.0297337 0.00459115 0.017586 0.00475798 0.0508982
98 3 O -2.06164 17.6786 5.78248 -1.2 1 0.00315639 0.0030707 0.0015401 0.00395358 0.00281017 0.00692644 0.00244751 0.0223835 0.00250963 0.00760663 0.00283781 0.0281224 0.00376595 0.017513 0.00497155 0.030581 0.00600975 0.0203979 0.00633977 0.0527296
99 1 Mg 1.39817 16.6215 2.9896 1.2 1 0.00265567 0.00284588 0.00158018 0.00424228 0.00255754 0.00830126 0.00268887 0.0214013 0.00257806 0.00800228 0.00201369 0.0289024 0.00284147 0.016653 0.0032502 0.0293913 0.00379555 0.0167304 0.00404801 0.0499943
100 1 Mg 4.20062 16.5802 4.4844 1.2 1 0.00300573 0.00281645 0.0018246 0.00397324 0.00262804 0.00765686 0.0026228 0.0219441 0.00308552 0.0077347 0.00281431 0.0285462 0.00339687 0.0174794 0.00536601 0.0297654 0.00600157 0.0185633 0.00586699 0.0511808
101 2 Si 2.37796 18.645 4.4844 2.4 1 0.00254227 0.00271774 0.00151257 0.00408516 0.00300509 0.00793227 0.00281141 0.0223515 0.00261875 0.00785743 0.00256703 0.0280579 0.00353936 0.0172741 0.00434748 0.0293302 0.0049704 0.0181833 0.00537673 0.0522025
102 3 O 2.39434 20.2583 4.4844 -1.2 1 0.00260973 0.00328364 0.0014788 0.00407756 0.00301125 0.00708571 0.00270049 0.0213776 0.00282101 0.00733395 0.00193365 0.0288002 0.0034309 0.0167909 0.00400578 0.0299192 0.00542647 0.0182518 0.00618978 0.0519818
103 3 O -4.24274 17.671 4.4844 -1.2 1 0.00272053 0.00320435 0.00186982 0.00410289 0.00273689 0.00857617 0.00303063 0.0225259 0.00290987 0.00785107 0.00246619 0.0288401 0.0037456 0.0169637 0.00478693 0.02936 0.00540575 0.0187967 0.00605677 0.0510725
104 3 O 3.08659 17.9389 3.18632 -1.2 1 0.00262592 0.00255038 0.00155666 0.00373282 0.00261782 0.00784398 0.00215423 0.0221234 0.00235016 0.00795539 0.00217175 0.0278106 0.00339475 0.016501 0.00445586 0.0294254 0.00511063 0.0175067 0.00501699 0.0506839
105 1 Mg 1.44478 16.6215 0 1.2 1 0.0023596 0.00273393 0.00104149 0.00420245 0.00135632 0.00883837 0.00102522 0.0215751 0.00138624 0.00821134 0.00153383 0.0286351 0.00224951 0.0156921 0.00256713 0.0294273 0.002985 0.0160342 0.00292817 0.0487258
106 3 O 3.0436 17.9389 5.78248 -1.2 1 0.00277436 0.00315255 0.00160435 0.00444223 0.002839 0.00709757 0.00265436 0.0225978 0.00229137 0.00781392 0.00283701 0.0280189 0.0041065 0.0173329 0.00507222 0.0303049 0.0056133 0.020671 0.00603411 0.0529376
107 1 Mg -1.40524 16.6628 1.4948 1.2 1 0.00168124 0.00313586 0.00117838 0.0041507 0.00170185 0.00866939 0.00188861 0.0221345 0.00183174 0.0081925 0.00193962 0.0283051 0.00324761 0.0166576 0.00314819 0.0293077 0.00282291 0.0165376 0.00299036 0.0494952
108 2 Si 0.420358 14.5979 1.4948 2.4 1 0.00163018 0.00286844 0.00139012 0.00458947 0.00190979 0.00895285 0.00186942 0.0214604 0.00180278 0.00823091 0.00164284 0.0284983 0.00311291 0.0163806 0.00377398 0.0287584 0.00333948 0.0164296 0.00306488 0.0493406
109 3 O 0.408732 12.9847 1.4948 -1.2 1 0.00138539 0.00278206 0.0011149 0.00455669 0.00173444 0.00894342 0.00149256 0.0211524 0.00229992 0.0083988 0.00191432 0.0292245 0.00320354 0.0158649 0.00332486 0.0296806 0.00312206 0.0168653 0.00341808 0.0491496
110 3 O 7.03923 15.572 1.4948 -1.2 1 0.00193785 0.00319709 0.00146555 0.00419384 0.0018786 0.00824431 0.00234121 0.0217734 0.00216379 0.00798915 0.00148661 0.0293372 0.00261614 0.0164127 0.00285256 0.0295695 0.00311592 0.0166539 0.00368016 0.0495779
111 3 O -0.248332 15.3041 0.196716 -1.2 1 0.00194229 0.00264718 0.00121951 0.00426602 0.001158 0.00890726 0.00184059 0.0213583 0.00134067 0.00830622 0.00166012 0.0281088 0.00292174 0.0158333 0.00389175 0.0293328 0.00296825 0.0160467 0.00299897 0.0488306
112 3 O -0.289436 15.3041 2.79288 -1.2 1 0.00295597 0.00310421 0.00129736 0.00406473 0.00237368 0.0085237 0.00198274 0.0219309 0.00185268 0.00861577 0.00207747 0.0276637 0.00326296 0.0166252 0.00370704 0.0293648 0.00417734 0.0174617 0.00429621 0.0500377
113 1 Mg 6.59566 18.996 0 1.2 1 0.00144228 0.00304395 0.00155088 0.0042245 0.0010372 0.0086332 0.000968178 0.0219439 0.00128143 0.00781856 0.00133288 0.0280928 0.00209024 0.0162904 0.00235664 0.0287312 0.00292769 0.0158244 0.00270256 0.0487295
114 1 Mg 3.85574 23.7037 1.4948 1.2 1 0.00158571 0.00261287 0.0011431 0.00404715 0.00162389 0.00744246 0.00121696 0.0231602 0.00170562 0.00749895 0.00234112 0.0274129 0.00249391 0.0175665 0.00371233 0.0285112 0.00328512 0.017359 0.00327603 0.0508292
115 2 Si 5.66125 21.0195 1.4948 2.4 1 0.00194873 0.00255528 0.00102068 0.0038461 0.00196243 0.00818061 0.00150581 0.0219395 0.00124001 0.00744715 0.00144862 0.0280954 0.00254499 0.0173465 0.0028528 0.0281099 0.00337839 0.0159431 0.00378451 0.0502023
116 3 O 5.72074 22.6328 1.4948 -1.2 1 0.00168935 0.00260105 0.0014091 0.0038933 0.00168535 0.00820162 0.0015609 0.0223156 0.00183288 0.00720183 0.00135441 0.0281756 0.00218082 0.0172904 0.00291297 0.0284617 0.00323124 0.0164708 0.00356027 0.0501157
117 3 O 2.03867 20.0455 1.4948 -1.2 1 0.0017607 0.00297225 0.00135918 0.00400351 0.00182655 0.00775946 0.00202564 0.0222803 0.00216738 0.00747227 0.00138417 0.0286458 0.00236901 0.0171657 0.00253275 0.0289779 0.00323723 0.0160653 0.00324506 0.0502811
118 3 O 4.96004 20.3134 0.196716 -1.2 1 0.00191501 0.00232734 0.00130572 0.00388311 0.00127127 0.00824288 0.00103886 0.0217332 0.00095658 0.00751297 0.0015908 0.0276933 0.00276425 0.0166145 0.0038576 0.0287971 0.00301767 0.0152135 0.00278676 0.04953
119 1 Mg 6.55057 18.996 2.9896 1.2 1 0.00173287 0.00301226 0.00130397 0.00386096 0.00241563 0.00814968 0.00272278 0.0213475 0.00241569 0.00785286 0.00182855 0.0291821 0.00302042 0.0169301 0.00308858 0.0288921 0.00374807 0.0170671 0.00438996 0.0501989