ITEM: TIMESTEP
71100
ITEM: NUMBER OF ATOMS
10500
ITEM: BOX BOUNDS xy xz yz pp pp pp
0	15.2977	5.09925
0	118.725	0
0	89.688	0
ITEM: ATOMS id type element xu yu zu q Q_1 Q_2 Q_3 Q_4 Q_5 Q_6 Q_7 Q_8 Q_9 Q_10 Q_11 Q_12 Q_13 Q_14 Q_15 Q_16 Q_17 Q_18 Q_19 Q_20 Q_21
1 1 Mg 6.2404 -6.37941e-06 0 1.2 1 0.000789722 0.00431517 0.00120297 0.00448156 0.00138735 0.00540046 0.00214968 0.0162527 0.00218661 0.00564024 0.00208443 0.0219533 0.00232096 0.0133747 0.00366668 0.0203056 0.00406079 0.0142718 0.00382133 0.0400554
2 1 Mg 3.46349 4.70768 1.4948 1.2 1 0.00129157 0.00370529 0.00152301 0.00422135 0.00188015 0.00610564 0.00350488 0.0184908 0.00277232 0.00677977 0.00288283 0.0253268 0.00311827 0.0138902 0.00458236 0.0248275 0.00507236 0.0168649 0.00545437 0.0433455
3 2 Si 5.2885 2.02354 1.4948 2.4 1 0.000553298 0.0036976 0.00192477 0.00442099 0.00187918 0.00572049 0.0024256 0.0169807 0.00226119 0.00600902 0.00219548 0.0232773 0.00269628 0.0134593 0.00358225 0.0213311 0.00366839 0.0152653 0.00412056 0.0409646
4 3 O 5.33628 3.63678 1.4948 -1.2 1 0.000524744 0.00336671 0.00149305 0.00459838 0.00207289 0.00628027 0.00289658 0.0175635 0.00226265 0.00661969 0.002072 0.0250199 0.00242513 0.0136774 0.00431874 0.0238465 0.00470961 0.0161838 0.00533115 0.0425808
5 3 O 1.67294 1.04952 1.4948 -1.2 1 0.00142571 0.00354938 0.00174739 0.00419447 0.00128002 0.00579141 0.00245331 0.0167892 0.00232844 0.00582427 0.002053 0.0226681 0.00236369 0.012682 0.00319273 0.0213299 0.00454418 0.0155469 0.00464831 0.0398898
6 3 O 4.59532 1.31737 0.196716 -1.2 1 0.000889197 0.00330806 0.00191891 0.004102 0.00188732 0.00553379 0.00239747 0.0171439 0.00247928 0.00613127 0.00202626 0.0224869 0.00305359 0.0126786 0.00423356 0.0212725 0.00399058 0.0148679 0.0043035 0.0405828
7 1 Mg 6.18956 -6.37941e-06 2.9896 1.2 1 0.00117483 0.00488647 0.00130884 0.00400578 0.0010818 0.00578369 0.00236344 0.0159761 0.00268419 0.00518336 0.00200106 0.0222458 0.00273783 0.0133316 0.00355336 0.0201488 0.00454389 0.0146377 0.00480462 0.0388174
8 3 O 4.55118 1.31737 2.79288 -1.2 1 0.00118437 0.00464436 0.00189357 0.00417725 0.00183939 0.00587095 0.00245504 0.0166761 0.00239927 0.00642574 0.00231167 0.0216297 0.00313081 0.0122134 0.00332621 0.0211291 0.00461914 0.0152527 0.00523607 0.0398498
9 1 Mg -1.20682 0.0413099 4.4844 1.2 1 0.00136241 0.00339404 0.00170113 0.00437058 0.0013157 0.00574163 0.00192665 0.0160031 0.00226286 0.00514007 0.00228563 0.0219875 0.00314582 0.0116151 0.00351252 0.0200108 0.0052869 0.0153846 0.0051307 0.0381475
10 2 Si -3.0337 2.72544 4.4844 2.4 1 0.00123078 0.00379689 0.00161198 0.00467705 0.00198012 0.00619233 0.00333971 0.0163588 0.00319974 0.00593898 0.00228161 0.0233381 0.00320188 0.0128659 0.00421536 0.0218659 0.00543482 0.0172929 0.00574337 0.0392056
11 3 O -3.08099 1.11221 4.4844 -1.2 1 0.00100017 0.00399434 0.00178224 0.00413248 0.00125797 0.00560854 0.00231933 0.0159111 0.00281074 0.00517405 0.00216791 0.0218397 0.00323793 0.0114464 0.00355526 0.0207973 0.00509983 0.0159391 0.00514601 0.0380625
12 3 O 0.582463 3.69946 4.4844 -1.2 1 0.0013644 0.00453081 0.00186915 0.00438786 0.00226788 0.00656084 0.00347936 0.0167213 0.00340971 0.00632226 0.00308955 0.0239475 0.00407109 0.0129012 0.00460306 0.0237106 0.00683614 0.017942 0.00753978 0.0409655
13 3 O -2.29524 3.43162 3.18632 -1.2 1 0.000808473 0.00337936 0.0024106 0.00453668 0.00202794 0.00594906 0.00287606 0.0174898 0.00310548 0.00646781 0.00258294 0.0241609 0.00344997 0.0130779 0.00487861 0.0237236 0.00602234 0.0174836 0.00614805 0.041735
14 3 O -2.34216 3.43162 5.78248 -1.2 1 0.00163727 0.00379114 0.00115276 0.00458459 0.00211384 0.00614605 0.00330922 0.0163531 0.00293984 0.00677527 0.00244902 0.0225591 0.00435472 0.0123306 0.00428103 0.0222785 0.00638898 0.0184758 0.00674322 0.038817
15 1 Mg 1.12778 2.37449 2.9896 1.2 1 0.000900338 0.0038303 0.00197717 0.0044509 0.00214509 0.00602146 0.00299707 0.0165143 0.00283855 0.00594732 0.00240126 0.0231311 0.00315152 0.0128839 0.00337556 0.0215287 0.0049247 0.0160807 0.00538155 0.0404001
16 1 Mg 3.92855 2.33318 4.4844 1.2 1 0.00134799 0.00440962 0.00151515 0.00403568 0.00148452 0.00572059 0.00338432 0.0162013 0.00310903 0.00581647 0.00282639 0.0222307 0.00372957 0.0134886 0.00508872 0.0213286 0.00618364 0.0166337 0.00639071 0.0395287
17 2 Si 2.09341 4.39804 4.4844 2.4 1 0.00151601 0.00420048 0.00187961 0.00398559 0.00256913 0.00603534 0.0036492 0.0176253 0.00358866 0.00646622 0.00322746 0.0243616 0.00440829 0.0139715 0.00466666 0.0241454 0.00714862 0.0178128 0.00771952 0.0425113
18 3 O 2.09991 6.01128 4.4844 -1.2 1 0.00234612 0.00431396 0.00166681 0.00386374 0.00271127 0.00647868 0.00311552 0.0184334 0.00282769 0.00712592 0.00294256 0.0259938 0.00370932 0.0142575 0.00466913 0.0265838 0.00730312 0.0183134 0.00768945 0.0440002
19 3 O -4.52137 3.42402 4.4844 -1.2 1 0.00135595 0.00406223 0.00201036 0.00432454 0.00199683 0.00699863 0.00355288 0.0163199 0.00324155 0.00596141 0.00286307 0.0230432 0.00381546 0.0125286 0.00421145 0.0220711 0.00628305 0.0170126 0.0068165 0.0400643
20 3 O 2.80834 3.69187 3.18632 -1.2 1 0.00137202 0.00387778 0.0017276 0.00349015 0.00178748 0.00595618 0.00304243 0.0169445 0.00313612 0.00602796 0.0026579 0.0236544 0.00335947 0.0128548 0.00482242 0.0234908 0.00584197 0.0165178 0.00596318 0.041926
21 1 Mg 1.17857 2.37449 0 1.2 1 0.00165089 0.00360095 0.00176365 0.00407429 0.00134803 0.00541661 0.00255497 0.0170314 0.00244198 0.00651036 0.00278942 0.0231919 0.00284807 0.0131712 0.00371848 0.0215492 0.00420437 0.014883 0.00457011 0.0405543
22 3 O 2.76143 3.69187 5.78248 -1.2 1 0.00167754 0.00447628 0.00177184 0.0038075 0.00172933 0.00558962 0.00271625 0.0166896 0.00305612 0.00668854 0.00278637 0.0222271 0.00448226 0.0132152 0.00542779 0.0223067 0.00662106 0.0177778 0.00690388 0.0395446
23 1 Mg -1.67381 2.41581 1.4948 1.2 1 0.000947398 0.00315057 0.00230234 0.0046337 0.00141007 0.00593112 0.00227633 0.0165214 0.00274214 0.00613298 0.0018916 0.0238999 0.00249872 0.0139533 0.00258448 0.0220788 0.00405894 0.0161075 0.00460188 0.0412563
24 2 Si 0.16286 0.350945 1.4948 2.4 1 0.00136098 0.00285766 0.00252725 0.00431053 0.00134848 0.00634736 0.00270338 0.0164435 0.00214195 0.00507439 0.00186571 0.0228113 0.00226157 0.0134884 0.00301917 0.0203414 0.00465616 0.0148418 0.0041322 0.0400143
25 3 O 0.15972 -1.26229 1.4948 -1.2 1 0.00117311 0.00300308 0.00271881 0.00427125 0.00165139 0.00598586 0.00248141 0.0164943 0.00223945 0.00537913 0.00246165 0.022628 0.00250526 0.0138968 0.00281923 0.0211541 0.00443091 0.0145775 0.003876 0.0404836
26 3 O 6.77654 1.32496 1.4948 -1.2 1 0.00107063 0.00420739 0.00146339 0.00445928 0.00125749 0.00586183 0.00217842 0.0166568 0.00235843 0.00533204 0.0018492 0.0235453 0.00283573 0.0134237 0.00346026 0.0216149 0.00453384 0.0152353 0.00420863 0.0406383
27 3 O -0.508028 1.05712 0.196716 -1.2 1 0.000821692 0.00293109 0.00301023 0.00402815 0.00137644 0.00557858 0.00238794 0.017011 0.00191056 0.00649282 0.00259162 0.0221939 0.00250478 0.0127158 0.00308594 0.0209134 0.00432916 0.0150593 0.00429352 0.0398497
28 3 O -0.552171 1.05712 2.79288 -1.2 1 0.000838389 0.00288127 0.00260661 0.00452914 0.00133673 0.00629621 0.00236391 0.0161216 0.00240541 0.0058856 0.00181057 0.022393 0.002759 0.0120591 0.00365032 0.0211507 0.00555044 0.0156271 0.00484524 0.0393492
29 1 Mg 6.31713 4.74899 0 1.2 1 0.00100745 0.00304823 0.00172986 0.00433227 0.00243488 0.00596947 0.00319739 0.0179761 0.00280151 0.00687959 0.0021938 0.0251721 0.00283539 0.0136001 0.00436923 0.0245066 0.00456151 0.0161053 0.0057179 0.042589
30 1 Mg 3.54847 9.45668 1.4948 1.2 1 0.000820792 0.00316825 0.00177864 0.00441929 0.00222256 0.00753388 0.00327106 0.0212073 0.00173756 0.00837849 0.00224609 0.0280309 0.00324277 0.0154955 0.00383039 0.0288607 0.0042641 0.017779 0.00378809 0.0483154
31 2 Si 5.36879 6.77254 1.4948 2.4 1 0.000458383 0.00300891 0.00191659 0.00505903 0.00288156 0.00693712 0.00385573 0.019319 0.00274188 0.00766183 0.00251479 0.0272428 0.00315784 0.0152698 0.00449076 0.02677 0.00457917 0.0168964 0.00521604 0.0460077
32 3 O 5.41937 8.38578 1.4948 -1.2 1 0.000689186 0.00291494 0.00159098 0.00491482 0.00242919 0.00774259 0.00328444 0.0207197 0.0023263 0.00831127 0.00254182 0.0286824 0.00238822 0.0155516 0.00329133 0.0288326 0.0045899 0.0170519 0.00484348 0.047553
33 3 O 1.75158 5.79852 1.4948 -1.2 1 0.0011659 0.00364363 0.00177487 0.00402702 0.00234159 0.00603593 0.00325731 0.0192254 0.00285869 0.00700594 0.0026397 0.0274866 0.00300188 0.0154752 0.00390983 0.0266188 0.00516965 0.017243 0.005114 0.0451513
34 3 O 4.67421 6.06637 0.196716 -1.2 1 0.000551452 0.00302518 0.00147533 0.00462065 0.00219372 0.00682551 0.002979 0.0196261 0.00246447 0.00804494 0.00233272 0.0260605 0.00359786 0.014279 0.00447771 0.0265197 0.00435544 0.0164144 0.00551038 0.0447279
35 1 Mg 6.26654 4.74899 2.9896 1.2 1 0.0014307 0.00381958 0.00207492 0.00488487 0.00250401 0.0065818 0.0037476 0.0175071 0.00359054 0.00692654 0.00220117 0.0254064 0.00367672 0.0145637 0.00514186 0.0246009 0.00581797 0.0173008 0.00657033 0.0430649
36 3 O 4.63043 6.06637 2.79288 -1.2 1 0.00194124 0.00374783 0.00183101 0.00471542 0.00224231 0.00698383 0.00355055 0.0192172 0.00314621 0.0077132 0.00221933 0.0256192 0.00386461 0.014653 0.00479226 0.0267955 0.00583967 0.0177837 0.00645016 0.0448491
37 1 Mg -1.12976 4.79031 4.4844 1.2 1 0.00195464 0.00401338 0.00163866 0.00459444 0.00205314 0.00612274 0.00344653 0.0171559 0.00358787 0.00684395 0.00281617 0.0248294 0.00411264 0.0140238 0.00472331 0.0249662 0.0076962 0.0183708 0.00705766 0.0429664
38 2 Si -2.9517 7.47444 4.4844 2.4 1 0.00214257 0.00360318 0.00146503 0.00516557 0.00282765 0.00673643 0.00368588 0.0195603 0.00343048 0.00759938 0.00285064 0.0263981 0.00436683 0.0154965 0.00557947 0.0270778 0.00744895 0.0181442 0.00787408 0.045961
39 3 O -3.00198 5.86121 4.4844 -1.2 1 0.00209584 0.0039373 0.00135779 0.00486368 0.00295602 0.00644191 0.00402638 0.0179762 0.00353931 0.00735857 0.0023562 0.0250119 0.00421055 0.0137328 0.00499588 0.0260251 0.00720153 0.0186056 0.0074097 0.0440151
40 3 O 0.666315 8.44846 4.4844 -1.2 1 0.00257976 0.00421238 0.00147153 0.00460146 0.00271468 0.00748809 0.00276105 0.0205144 0.00306985 0.0076922 0.0030141 0.0274836 0.00432342 0.0156965 0.00443388 0.0284744 0.00664452 0.0187657 0.00724989 0.0468112
41 3 O -2.21213 8.18062 3.18632 -1.2 1 0.00187609 0.00394027 0.00145418 0.00454265 0.00253706 0.00652477 0.003023 0.0203769 0.00283977 0.00796218 0.00258959 0.0269694 0.00430348 0.0156477 0.00504617 0.0283407 0.00615379 0.0181556 0.00646755 0.0475492
42 3 O -2.25864 8.18062 5.78248 -1.2 1 0.00306494 0.00379302 0.00171403 0.00438017 0.00295767 0.00614009 0.00305316 0.0196929 0.00268362 0.00791965 0.00338938 0.0261473 0.00451789 0.0159108 0.00561842 0.028092 0.00748478 0.0194788 0.00760767 0.0461904
43 1 Mg 1.20893 7.12349 2.9896 1.2 1 0.0013467 0.00396139 0.0017964 0.0042297 0.0026277 0.00679551 0.00376248 0.0192387 0.00292798 0.0079685 0.00273584 0.0275663 0.00372396 0.0156125 0.00431967 0.0270803 0.00572033 0.0178347 0.00593687 0.0462491
44 1 Mg 4.00982 7.08218 4.4844 1.2 1 0.00254358 0.00389424 0.00169273 0.00451693 0.00244302 0.00681793 0.00376194 0.0194647 0.00343172 0.00764915 0.00314784 0.0267008 0.00443605 0.0163676 0.00568078 0.0269869 0.00752671 0.0183013 0.00762207 0.0455048
45 2 Si 2.17861 9.14704 4.4844 2.4 1 0.00286755 0.00378271 0.00172893 0.004585 0.00298114 0.00741773 0.00376477 0.0208619 0.00284791 0.00801238 0.00288836 0.0274043 0.00444385 0.016468 0.00454972 0.028701 0.0061272 0.0186952 0.00644676 0.048325
46 3 O 2.18828 10.7603 4.4844 -1.2 1 0.00347842 0.00384633 0.00195317 0.0042577 0.00270036 0.00707079 0.002958 0.0205681 0.00262838 0.0079636 0.00211136 0.0281205 0.003891 0.0157601 0.00428801 0.0298711 0.00606062 0.019102 0.00650734 0.049034
47 3 O -4.43805 8.17302 4.4844 -1.2 1 0.00192237 0.0037735 0.00203536 0.00504452 0.00248748 0.00781509 0.00318317 0.0200558 0.00335965 0.00799545 0.00327254 0.027725 0.00449161 0.0156136 0.0051543 0.0284697 0.00723003 0.0185533 0.00828607 0.0467357
48 3 O 2.89193 8.44087 3.18632 -1.2 1 0.00216292 0.00360072 0.00167847 0.00407427 0.00242895 0.00691231 0.00329282 0.0200956 0.00280776 0.00833396 0.00274748 0.0271775 0.00392952 0.0158419 0.00471839 0.0283317 0.0060907 0.017967 0.00554394 0.047539
49 1 Mg 1.25915 7.12349 0 1.2 1 0.00096957 0.00280178 0.00145635 0.0040763 0.00179994 0.00709052 0.00290486 0.0199965 0.00268863 0.0081137 0.00265163 0.0273816 0.00357951 0.0140129 0.00369688 0.0274329 0.0045152 0.0168727 0.00461079 0.0455156
50 3 O 2.84547 8.44087 5.78248 -1.2 1 0.00301255 0.00386293 0.00175242 0.00440256 0.00244452 0.00662858 0.0034294 0.0197751 0.00281442 0.00843194 0.00313617 0.0258728 0.00518985 0.0162765 0.00521182 0.0285405 0.00682122 0.0198833 0.00728073 0.0461034
51 1 Mg -1.59284 7.16481 1.4948 1.2 1 0.000560037 0.00334914 0.00108444 0.0045246 0.00191259 0.00628247 0.00284375 0.0195008 0.00278901 0.00772865 0.0019812 0.0276026 0.00368489 0.0154765 0.00403039 0.0270806 0.00456909 0.0172742 0.00543829 0.0460671
52 2 Si 0.240329 5.09994 1.4948 2.4 1 0.00104057 0.00393942 0.00160141 0.0040646 0.00185047 0.00678392 0.00305123 0.0186473 0.00308751 0.00707453 0.00224284 0.0257834 0.00297871 0.014471 0.00433769 0.0247711 0.00493534 0.0166913 0.00513627 0.0442875
53 3 O 0.234538 3.48671 1.4948 -1.2 1 0.00137637 0.00397951 0.00208364 0.004267 0.00192624 0.00642121 0.00253206 0.0176939 0.00324878 0.00666265 0.00235122 0.0243229 0.00321999 0.0135057 0.00393792 0.0238489 0.00525608 0.0159936 0.00514516 0.0420036
54 3 O 6.85564 6.07396 1.4948 -1.2 1 0.00098256 0.0031789 0.00199367 0.00475048 0.00253408 0.00601167 0.00328989 0.0195881 0.00304166 0.00747981 0.0021423 0.0274045 0.00340357 0.0147257 0.00506715 0.0266771 0.00533495 0.0173097 0.00609647 0.0449547
55 3 O -0.429565 5.80612 0.196716 -1.2 1 0.000880352 0.00329836 0.00181456 0.00391538 0.00183401 0.00705587 0.00258394 0.0192473 0.00273872 0.00812179 0.00252434 0.0255896 0.0027973 0.0140081 0.00391714 0.0259224 0.00493896 0.0164519 0.00561642 0.0445664
56 3 O -0.473377 5.80612 2.79288 -1.2 1 0.0014526 0.00392347 0.00176767 0.00453698 0.00225908 0.00677784 0.00316228 0.0188655 0.00317859 0.00774012 0.00275385 0.0253953 0.00400748 0.0144538 0.00480723 0.0258886 0.00644789 0.0180937 0.00625163 0.045201
57 1 Mg 6.40169 9.49799 0 1.2 1 0.000286307 0.00320173 0.00154551 0.00458724 0.00165394 0.00828509 0.00189713 0.0209335 0.0018054 0.00882381 0.00199854 0.0284176 0.00262258 0.0145996 0.00303289 0.0295224 0.00362202 0.0174732 0.00436859 0.046986
58 1 Mg 3.64209 14.2057 1.4948 1.2 1 0.00222953 0.00314672 0.00132114 0.00453386 0.00177221 0.00881572 0.00192403 0.0216548 0.00161522 0.00869392 0.00244572 0.0280276 0.00266727 0.0160977 0.00322092 0.0294324 0.00359226 0.0167063 0.00331889 0.0488583
59 2 Si 5.45748 11.5215 1.4948 2.4 1 0.0019992 0.00300471 0.00148017 0.00464039 0.0017633 0.00828901 0.00235787 0.0210371 0.00175548 0.00820188 0.00180111 0.0285928 0.00262322 0.0159665 0.00359514 0.0292209 0.00388668 0.0164616 0.00361783 0.0486738
60 3 O 5.51101 13.1348 1.4948 -1.2 1 0.00225263 0.00302556 0.0014086 0.00453246 0.00157815 0.00916545 0.00210362 0.021167 0.00179866 0.00865239 0.00184617 0.0291525 0.00222087 0.0160091 0.00301601 0.0297997 0.00373308 0.0163964 0.00339461 0.0486349
61 3 O 1.83851 10.5475 1.4948 -1.2 1 0.000882335 0.00327828 0.00154083 0.00459244 0.00191206 0.00769703 0.00257932 0.0215214 0.00194229 0.00835207 0.00232485 0.02918 0.0027728 0.0157171 0.00348202 0.0295522 0.00391963 0.0174073 0.00317541 0.0488426
62 3 O 4.7611 10.8154 0.196716 -1.2 1 0.000800601 0.00268235 0.00175454 0.00465091 0.0016851 0.0083729 0.00229519 0.0212888 0.00159789 0.00857536 0.00191565 0.0278909 0.00310794 0.0155988 0.00410024 0.0293241 0.00350989 0.0166821 0.0035345 0.048081
63 1 Mg 6.35203 9.49799 2.9896 1.2 1 0.00161538 0.00349479 0.00156019 0.0047906 0.00261599 0.00758105 0.00354152 0.0200562 0.00307109 0.00842469 0.00203923 0.0287853 0.00364222 0.0160838 0.00333526 0.0287238 0.0045607 0.0179114 0.00527171 0.047826
64 3 O 4.71833 10.8154 2.79288 -1.2 1 0.00241989 0.00342752 0.00157006 0.00422995 0.00220258 0.00822275 0.00242163 0.0211388 0.00199394 0.00897275 0.00216489 0.0279791 0.00370123 0.0158038 0.00401263 0.0297395 0.00500023 0.0178554 0.00497 0.0491965
65 1 Mg -1.0438 9.53931 4.4844 1.2 1 0.00302559 0.00379137 0.0015375 0.00441791 0.00286105 0.00691309 0.0025985 0.0205876 0.00287148 0.00837067 0.00264784 0.0275292 0.00391599 0.0164659 0.00474256 0.0288633 0.00663496 0.0190058 0.00667208 0.0485773
66 2 Si -2.8604 12.2234 4.4844 2.4 1 0.00375098 0.00356475 0.00165064 0.00416433 0.00270682 0.00759859 0.00327466 0.0214399 0.00278171 0.0084663 0.00244386 0.0276656 0.00436773 0.01673 0.00426724 0.0293806 0.0055791 0.0187615 0.0059989 0.0497199
67 3 O -2.91391 10.6102 4.4844 -1.2 1 0.00325848 0.00376036 0.00167746 0.00426095 0.0027687 0.00702465 0.00335674 0.0201706 0.0025983 0.00766863 0.00197107 0.0279217 0.00432083 0.0155811 0.00422367 0.0299586 0.00585019 0.0186135 0.00638755 0.0486616
68 3 O 0.7596 13.1975 4.4844 -1.2 1 0.00397093 0.00334402 0.00201133 0.0046421 0.00281708 0.00831491 0.00280123 0.0217534 0.00289813 0.0085273 0.00279353 0.0284395 0.00411243 0.0162244 0.00421624 0.0297201 0.0058912 0.0189073 0.0062813 0.0493954
69 3 O -2.12001 12.9296 3.18632 -1.2 1 0.0037329 0.0032412 0.00159491 0.00387493 0.00260731 0.00765797 0.00256282 0.0217186 0.00235743 0.00837877 0.00222466 0.0277747 0.00376179 0.016262 0.00465512 0.0300026 0.00500217 0.017984 0.00475947 0.0497979
70 3 O -2.16532 12.9296 5.78248 -1.2 1 0.00431361 0.00374355 0.00156651 0.00418382 0.0027991 0.00674794 0.00252345 0.0212112 0.00260797 0.00816645 0.00269469 0.0269589 0.00401797 0.0166778 0.00479504 0.0302211 0.00627672 0.0200818 0.00634022 0.0499515
71 1 Mg 1.29891 11.8725 2.9896 1.2 1 0.00259709 0.00316563 0.00169084 0.00460553 0.00242951 0.00796861 0.00287678 0.0208086 0.00283198 0.00849948 0.0022133 0.0287717 0.00347907 0.0160991 0.00347233 0.0296038 0.0044325 0.0175004 0.00447656 0.0488146
72 1 Mg 4.10033 11.8312 4.4844 1.2 1 0.00325028 0.00338599 0.00189525 0.00393621 0.00238768 0.00730071 0.00276193 0.0210626 0.00280634 0.00826133 0.00260841 0.0283437 0.0036933 0.0168434 0.00518383 0.0299625 0.00652293 0.0188268 0.00599326 0.0491597
73 2 Si 2.27333 13.896 4.4844 2.4 1 0.00348313 0.00331635 0.00176772 0.00473454 0.0027864 0.00788695 0.00321226 0.0215274 0.00264363 0.0081225 0.00288167 0.0275754 0.00374864 0.0166233 0.00403989 0.0298312 0.00548154 0.0187566 0.00567595 0.0504047
74 3 O 2.28634 15.5093 4.4844 -1.2 1 0.00378474 0.00359701 0.00170766 0.00433428 0.00281083 0.00728808 0.00296174 0.0206578 0.00281427 0.00745079 0.00214397 0.0283004 0.00341232 0.0159113 0.00380075 0.030338 0.00571033 0.0185342 0.00581343 0.0501147
75 3 O -4.34533 12.922 4.4844 -1.2 1 0.00348624 0.00384233 0.0017995 0.00423046 0.00271152 0.00832564 0.00297507 0.0216744 0.00271642 0.00858068 0.00278245 0.02826 0.00425118 0.0165596 0.00478089 0.0298533 0.0059368 0.0191024 0.00623552 0.0494471
76 3 O 2.98455 13.1899 3.18632 -1.2 1 0.00313866 0.00318042 0.00158369 0.00411825 0.00236314 0.00780284 0.00229879 0.0214296 0.00238112 0.0084621 0.00253964 0.027765 0.00362861 0.0161276 0.00430408 0.0298256 0.00533283 0.0180582 0.00513269 0.0495204
77 1 Mg 1.34779 11.8725 0 1.2 1 0.00122968 0.00262814 0.00110487 0.00475156 0.00148228 0.00888947 0.00166629 0.0211671 0.00120972 0.00903612 0.00209452 0.0286595 0.00297167 0.0148141 0.00302689 0.0298989 0.00329696 0.0167658 0.00321015 0.0475688
78 3 O 2.93934 13.1899 5.78248 -1.2 1 0.00406605 0.00358529 0.00191522 0.00432281 0.0026196 0.00701424 0.002704 0.0215808 0.00242284 0.00794533 0.00273929 0.0271417 0.0040514 0.0163474 0.00417329 0.0304154 0.00584049 0.0206184 0.00618831 0.0501438
79 1 Mg -1.50344 11.9138 1.4948 1.2 1 0.00145075 0.00321429 0.00126845 0.00442084 0.00158087 0.00830772 0.00200774 0.0215619 0.00228765 0.0084339 0.00179998 0.0284204 0.00373292 0.0161155 0.00348253 0.0295993 0.00333124 0.0173035 0.00360301 0.0485663
80 2 Si 0.326006 9.84894 1.4948 2.4 1 0.000434844 0.00339938 0.00122728 0.00481411 0.00198523 0.00809972 0.00209729 0.0208873 0.00202773 0.00829557 0.0017479 0.0283267 0.00329035 0.0155938 0.00376355 0.0289047 0.00375303 0.0173437 0.00331939 0.048151
81 3 O 0.317364 8.23571 1.4948 -1.2 1 0.00110279 0.00361001 0.00107317 0.0043519 0.00189985 0.00762818 0.00219372 0.0200918 0.00243957 0.00782305 0.00200554 0.0282357 0.00372478 0.0156292 0.00410554 0.0283684 0.00450832 0.0172572 0.00432294 0.0470343
82 3 O 6.94307 10.823 1.4948 -1.2 1 0.00130191 0.00332207 0.00132578 0.00434331 0.00188044 0.0077912 0.00273893 0.0217016 0.00243293 0.0083054 0.00149789 0.029204 0.00289374 0.015871 0.0033777 0.0296502 0.00354536 0.0175453 0.00392846 0.0487096
83 3 O -0.343122 10.5551 0.196716 -1.2 1 0.00041338 0.00298377 0.00106321 0.00456901 0.00157798 0.00847296 0.00192224 0.0210503 0.00149827 0.0086919 0.00213778 0.0278785 0.00328057 0.0150516 0.00373083 0.0293136 0.00362647 0.0168479 0.00360972 0.04768
84 3 O -0.385966 10.5551 2.79288 -1.2 1 0.00279614 0.00363693 0.00100748 0.00424633 0.00255271 0.00796028 0.00228688 0.021334 0.0019859 0.00893587 0.00221494 0.0273169 0.0039078 0.0158401 0.00425743 0.0296734 0.00513359 0.0180216 0.00470519 0.0490305
85 1 Mg 6.49448 14.247 0 1.2 1 0.00164406 0.00294945 0.00149328 0.00476457 0.00117452 0.00927486 0.00126976 0.0213188 0.00113028 0.00845882 0.00163185 0.0285319 0.00163992 0.0155137 0.00241343 0.0299675 0.00315948 0.0162546 0.00304012 0.0476875
86 1 Mg 3.74457 18.9547 1.4948 1.2 1 0.00208361 0.00301789 0.00136868 0.00385151 0.00179819 0.00859529 0.00157169 0.0221621 0.00188688 0.00798502 0.00222453 0.0271768 0.00267134 0.0162161 0.0033658 0.0287774 0.00367646 0.0162482 0.0034786 0.0493645
87 2 Si 5.55495 16.2705 1.4948 2.4 1 0.00231715 0.00276914 0.00123437 0.00440676 0.00177827 0.00899379 0.00153476 0.0214513 0.00146791 0.00791705 0.00145676 0.0282203 0.00234614 0.016225 0.00299557 0.0287139 0.00370261 0.015785 0.00356773 0.0490732
88 3 O 5.6115 17.8838 1.4948 -1.2 1 0.001997 0.0030005 0.00149878 0.00414986 0.00178664 0.00925911 0.00165928 0.0216237 0.00190946 0.00778637 0.00161762 0.0282709 0.00224953 0.0163797 0.00289613 0.0288997 0.00340263 0.015636 0.00345372 0.0490527
89 3 O 1.93416 15.2965 1.4948 -1.2 1 0.00237082 0.00289925 0.00123029 0.00456977 0.00172982 0.0084858 0.00216973 0.0218897 0.00198966 0.00806301 0.00169389 0.0288228 0.00216397 0.016216 0.00296641 0.0296092 0.00358349 0.0165105 0.00330404 0.0493841
90 3 O 4.85636 15.5644 0.196716 -1.2 1 0.00201351 0.00229533 0.0012073 0.00459698 0.00145641 0.00910056 0.00148422 0.0214288 0.00118269 0.00812377 0.00163835 0.0277913 0.00245025 0.0162157 0.00335794 0.0292549 0.00310217 0.015497 0.00304847 0.0484429
91 1 Mg 6.44662 14.247 2.9896 1.2 1 0.00228884 0.00335694 0.00137366 0.00436164 0.00235077 0.00862593 0.00297051 0.0207171 0.00259424 0.00853346 0.00192234 0.0288507 0.00312301 0.0163599 0.00310883 0.0297014 0.00388185 0.0172608 0.00428065 0.0491164
92 3 O 4.81537 15.5644 2.79288 -1.2 1 0.00282709 0.00325789 0.00137963 0.00409314 0.0021928 0.00884203 0.00193856 0.0218494 0.00159751 0.00867001 0.00185941 0.0275391 0.00289383 0.0164105 0.00356941 0.0295045 0.00437602 0.0172627 0.00453594 0.0495631
93 1 Mg -0.948271 14.2883 4.4844 1.2 1 0.00436009 0.00310318 0.0017612 0.0040468 0.00272935 0.00757137 0.00276424 0.0212586 0.0027929 0.00810981 0.00284183 0.0281696 0.0035778 0.0168471 0.00485 0.0298817 0.00557638 0.0185021 0.00574663 0.05023
94 2 Si -2.75928 16.9724 4.4844 2.4 1 0.0035262 0.00279428 0.00167775 0.00419812 0.00276147 0.00796233 0.00293702 0.0216953 0.00273165 0.00781534 0.00248324 0.027783 0.00356866 0.0165538 0.00433124 0.0293817 0.00488681 0.0183557 0.00540144 0.0506567
95 3 O -2.81617 15.3592 4.4844 -1.2 1 0.00423081 0.00320464 0.00185373 0.00404938 0.00288052 0.00760854 0.00307226 0.0207194 0.00263732 0.00752596 0.0021627 0.0283242 0.00364499 0.0159448 0.00384145 0.0300871 0.00554585 0.0183321 0.00580322 0.0502277
96 3 O 0.862762 17.9465 4.4844 -1.2 1 0.00304893 0.00332236 0.00168104 0.00419214 0.00283459 0.00854314 0.00250273 0.0220063 0.00268766 0.00762972 0.00238111 0.0278938 0.0034848 0.0164814 0.00410846 0.0288702 0.00529148 0.0188591 0.00532177 0.0502886
97 3 O -2.0185 17.6786 3.18632 -1.2 1 0.00280371 0.00295636 0.00145768 0.00386455 0.00244315 0.00765258 0.0023555 0.0221403 0.00242649 0.0077869 0.00206897 0.0272035 0.00346333 0.0159822 0.00437632 0.0296109 0.00467322 0.0177301 0.00479868 0.050145
98 3 O -2.06164 17.6786 5.78248 -1.2 1 0.00405837 0.00308688 0.00134931 0.00385265 0.00266194 0.00692927 0.00230187 0.0218764 0.00261718 0.00758851 0.0028261 0.0272816 0.00359089 0.0166679 0.00523062 0.0300558 0.00569933 0.0203454 0.00560536 0.0513054
99 1 Mg 1.39817 16.6215 2.9896 1.2 1 0.0028983 0.00315223 0.00145637 0.00440703 0.00239219 0.00845032 0.00275689 0.0212231 0.00271427 0.00804732 0.00212508 0.0283525 0.00276004 0.0165023 0.00341462 0.0291113 0.0041354 0.016755 0.00391197 0.0493513
100 1 Mg 4.20062 16.5802 4.4844 1.2 1 0.00338764 0.00312969 0.00160381 0.00410638 0.00248665 0.00758822 0.00255943 0.0215284 0.00312902 0.00753787 0.0027754 0.0279425 0.00341157 0.0170857 0.00517126 0.0297944 0.00591919 0.0184405 0.00532387 0.0503016
101 2 Si 2.37796 18.645 4.4844 2.4 1 0.00263615 0.00302607 0.00144178 0.00433735 0.00286158 0.00809417 0.00282045 0.0220764 0.00280962 0.00760328 0.00258342 0.0273268 0.00355174 0.0165748 0.00449686 0.0291227 0.00529441 0.018169 0.00525533 0.0512862
102 3 O 2.39434 20.2583 4.4844 -1.2 1 0.0025008 0.00338285 0.00148669 0.00404894 0.00286999 0.0070471 0.00264556 0.0212756 0.00264024 0.00707342 0.00182874 0.0278253 0.00348023 0.0160273 0.0039856 0.0294371 0.00527603 0.0183233 0.00583142 0.0507975
103 3 O -4.24274 17.671 4.4844 -1.2 1 0.00283746 0.00343349 0.00158848 0.00446328 0.0027362 0.00873199 0.00277498 0.0221934 0.00288795 0.00782973 0.00252784 0.02829 0.00336909 0.0163449 0.00467277 0.0293505 0.00568796 0.0187747 0.00580201 0.0505962
104 3 O 3.08659 17.9389 3.18632 -1.2 1 0.00251514 0.00291889 0.00161615 0.00387778 0.00254676 0.0079591 0.0023315 0.0220702 0.00248834 0.00781885 0.00222762 0.0272833 0.00312451 0.0161871 0.00409118 0.0291632 0.00515271 0.0172455 0.00493225 0.0501441
105 1 Mg 1.44478 16.6215 0 1.2 1 0.00295447 0.0023908 0.00108288 0.00430451 0.00132379 0.00909481 0.00126473 0.0215474 0.00132926 0.0080951 0.00144534 0.0281731 0.00253257 0.0157573 0.00250184 0.0291362 0.00308041 0.0157548 0.0031835 0.0481743
106 3 O 3.0436 17.9389 5.78248 -1.2 1 0.00321946 0.00319866 0.00162605 0.00450679 0.00279113 0.00713854 0.00262369 0.0217078 0.00245928 0.00789928 0.00290741 0.0270162 0.00372678 0.0163963 0.00504442 0.0301874 0.0057819 0.0206293 0.0056889 0.0513154
107 1 Mg -1.40524 16.6628 1.4948 1.2 1 0.00186078 0.00293185 0.00109166 0.00443235 0.00161219 0.00878432 0.00184569 0.0221584 0.00181959 0.00802138 0.00198441 0.0279655 0.00305525 0.0165231 0.00298359 0.0292847 0.00300467 0.0165354 0.00305384 0.0490831
108 2 Si 0.420358 14.5979 1.4948 2.4 1 0.00224061 0.00272516 0.00126764 0.00481321 0.0019788 0.00926281 0.00192443 0.0213318 0.00142877 0.00812588 0.00162067 0.0282349 0.00297162 0.0164249 0.00350782 0.0286962 0.00338109 0.0163475 0.00320731 0.0489123
109 3 O 0.408732 12.9847 1.4948 -1.2 1 0.00171269 0.00283301 0.00116999 0.00470159 0.00193982 0.00907449 0.00164245 0.0211255 0.00201003 0.00837751 0.00196475 0.0289029 0.00323115 0.0160055 0.00310096 0.0296262 0.00303894 0.0166261 0.00338481 0.0487821
110 3 O 7.03923 15.572 1.4948 -1.2 1 0.00210393 0.00303366 0.00114836 0.00456916 0.00184451 0.008426 0.00235923 0.0217169 0.00218839 0.00802833 0.00149731 0.028845 0.00252517 0.0164008 0.00289289 0.029656 0.00326781 0.016589 0.00356958 0.0491552
111 3 O -0.248332 15.3041 0.196716 -1.2 1 0.00227443 0.00259181 0.0011705 0.00456805 0.00121144 0.00918434 0.00184036 0.021249 0.00127366 0.00813548 0.00200422 0.0277583 0.00291183 0.0158876 0.00353513 0.0292443 0.00294536 0.015883 0.00321084 0.0482981
112 3 O -0.289436 15.3041 2.79288 -1.2 1 0.00334341 0.00307086 0.001258 0.00411517 0.00237637 0.00874396 0.00199592 0.0219612 0.00188975 0.00863827 0.00212914 0.0272053 0.00305334 0.0164926 0.00367312 0.0294938 0.00431735 0.0177603 0.00421575 0.0498179
113 1 Mg 6.59566 18.996 0 1.2 1 0.00177395 0.00283591 0.00128878 0.00420611 0.000955539 0.00868368 0.00107088 0.0218506 0.00130443 0.00771781 0.00158921 0.0274946 0.0022842 0.0162634 0.00252458 0.0288074 0.00304993 0.015601 0.00313759 0.0484365
114 1 Mg 3.85574 23.7037 1.4948 1.2 1 0.00125116 0.00253401 0.00102808 0.00392059 0.00170033 0.00749493 0.00138729 0.0230299 0.00169851 0.00747766 0.00220452 0.0267259 0.00249161 0.0172339 0.00378863 0.0282374 0.00350223 0.0167693 0.00370294 0.0505115
115 2 Si 5.66125 21.0195 1.4948 2.4 1 0.0014657 0.00266044 0.00106951 0.00390899 0.00190244 0.00828287 0.0016464 0.0218344 0.00127203 0.00733681 0.00144756 0.0276248 0.00255839 0.0170535 0.00292662 0.0280305 0.00356831 0.0155103 0.00424051 0.0497956
116 3 O 5.72074 22.6328 1.4948 -1.2 1 0.00129164 0.00254783 0.0013752 0.00392833 0.00179713 0.00824346 0.00172256 0.0222748 0.00182207 0.00723492 0.00128963 0.0275999 0.00227004 0.0170026 0.00317689 0.0281748 0.0034141 0.0159889 0.00382668 0.0498444
117 3 O 2.03867 20.0455 1.4948 -1.2 1 0.00148872 0.0031193 0.00130959 0.00419563 0.00175418 0.0078698 0.00217971 0.0222095 0.00227222 0.00727594 0.00151258 0.0281527 0.00239524 0.0169014 0.0025592 0.0289028 0.0036111 0.0157202 0.0037169 0.0499186
118 3 O 4.96004 20.3134 0.196716 -1.2 1 0.00197016 0.00233168 0.00128431 0.0038212 0.00124228 0.00836984 0.00102412 0.0216467 0.00119113 0.00736437 0.00163718 0.0270982 0.00266543 0.0164495 0.00379873 0.0287345 0.00317564 0.0148668 0.00324074 0.0491505
119 1 Mg 6.55057 18.996 2.9896 1.2 1 0.00145842 0.00321283 0.00117153 0.00403367 0.00254119 0.00838374 0.0028475 0.021242 0.0025856 0.00799453 0.00197629 0.0285916 0.00292091 0.0165246 0.00322557 0.0286191 0.00397512 0.0171347 0.00445282 0.0495668