ITEM: TIMESTEP
42800
ITEM: NUMBER OF ATOMS
10500
ITEM: BOX BOUNDS xy xz yz pp pp pp
0	15.2977	5.09925
0	118.725	0
0	89.688	0
ITEM: ATOMS id type element xu yu zu q Q_1 Q_2 Q_3 Q_4 Q_5 Q_6 Q_7 Q_8 Q_9 Q_10 Q_11 Q_12 Q_13 Q_14 Q_15 Q_16 Q_17 Q_18 Q_19 Q_20 Q_21
1 1 Mg 6.2404 -6.37941e-06 0 1.2 1 0.00115987 0.00388545 0.00124207 0.00456496 0.00157358 0.00553609 0.00195137 0.0160698 0.00219138 0.00558392 0.0020941 0.0217895 0.00281817 0.0131343 0.00359868 0.0208625 0.00391771 0.0143787 0.00409525 0.0404916
2 1 Mg 3.46349 4.70768 1.4948 1.2 1 0.000951905 0.00316671 0.00175641 0.00438712 0.00202245 0.00613957 0.00369173 0.0187672 0.00262496 0.00683133 0.00301376 0.0256926 0.00334539 0.0139258 0.00431198 0.0252768 0.00517811 0.0168244 0.00554488 0.0439689
3 2 Si 5.2885 2.02354 1.4948 2.4 1 0.000777572 0.00289686 0.00172599 0.00427423 0.00185116 0.00581011 0.00259471 0.0170226 0.00240409 0.00579635 0.00194289 0.0232065 0.00302465 0.0132887 0.00358103 0.0215514 0.00367004 0.0152386 0.0042363 0.0413136
4 3 O 5.33628 3.63678 1.4948 -1.2 1 0.000608387 0.00254589 0.00156984 0.00465563 0.00221639 0.00637827 0.0031459 0.0179524 0.00207247 0.00654489 0.0020122 0.0250611 0.00276275 0.0136339 0.00424236 0.0240924 0.00488168 0.0162897 0.00551051 0.0428912
5 3 O 1.67294 1.04952 1.4948 -1.2 1 0.00199629 0.00327168 0.00210069 0.00407614 0.00130958 0.00576745 0.00229593 0.0171171 0.00211355 0.0058591 0.00213474 0.0229015 0.00284788 0.0125848 0.00347034 0.0220386 0.00453658 0.0155344 0.0045542 0.0406823
6 3 O 4.59532 1.31737 0.196716 -1.2 1 0.00100971 0.00274742 0.00178005 0.0041877 0.00219255 0.00558248 0.00252836 0.0171346 0.00268042 0.00608042 0.00206719 0.0222187 0.00335948 0.0125116 0.00429641 0.0217132 0.00395833 0.0150074 0.00452355 0.040726
7 1 Mg 6.18956 -6.37941e-06 2.9896 1.2 1 0.00127096 0.00397434 0.001476 0.00393342 0.00139469 0.00597729 0.00251871 0.0163374 0.00265023 0.00530128 0.00194487 0.022847 0.00291233 0.0131771 0.00368188 0.0208723 0.0044189 0.0147338 0.00457201 0.0399149
8 3 O 4.55118 1.31737 2.79288 -1.2 1 0.001633 0.00377793 0.00177429 0.00409131 0.0018767 0.00605224 0.00251436 0.0172007 0.00222055 0.00664317 0.00218527 0.0220392 0.00330788 0.0123372 0.00328513 0.021718 0.00472801 0.0153893 0.00519253 0.0405964
9 1 Mg -1.20682 0.0413099 4.4844 1.2 1 0.000800848 0.00318305 0.00160738 0.00471518 0.0015539 0.00604666 0.00204325 0.0166056 0.00221497 0.00533859 0.00204955 0.0226355 0.00339241 0.0113771 0.00363019 0.0207688 0.00488928 0.0155756 0.00495859 0.0400991
10 2 Si -3.0337 2.72544 4.4844 2.4 1 0.000576699 0.00323104 0.00146686 0.00498642 0.00245082 0.00648574 0.00326757 0.0169843 0.00312497 0.00562813 0.00245739 0.0241695 0.0032927 0.0126988 0.00404 0.0223263 0.00527161 0.0172717 0.00596831 0.0406017
11 3 O -3.08099 1.11221 4.4844 -1.2 1 0.000888926 0.00359043 0.00170155 0.00422938 0.00153214 0.00574179 0.00235272 0.0163455 0.00274761 0.00528661 0.00218013 0.0225058 0.00369227 0.0112645 0.00376949 0.0212108 0.00482791 0.0158797 0.00505689 0.0394561
12 3 O 0.582463 3.69946 4.4844 -1.2 1 0.00201533 0.00449082 0.00215849 0.00457421 0.0024008 0.00698852 0.00360985 0.0176363 0.00331659 0.00615153 0.0031842 0.0247008 0.00412129 0.0129007 0.00449984 0.0242185 0.00667543 0.0183063 0.00792149 0.0424803
13 3 O -2.29524 3.43162 3.18632 -1.2 1 0.000678024 0.00287433 0.00246739 0.00463948 0.0022999 0.00619152 0.00281149 0.0179589 0.00300948 0.00634938 0.00286168 0.0243359 0.00320665 0.0129241 0.00472227 0.0241128 0.0059573 0.0175466 0.00638096 0.042602
14 3 O -2.34216 3.43162 5.78248 -1.2 1 0.00169623 0.00365622 0.00131964 0.00513599 0.00237574 0.00647491 0.00327298 0.0175426 0.00271659 0.006525 0.00312214 0.0236414 0.00461322 0.0126828 0.0043764 0.023196 0.00623392 0.0189872 0.00736716 0.0416595
15 1 Mg 1.12778 2.37449 2.9896 1.2 1 0.00161231 0.00354929 0.00228084 0.00461125 0.00217281 0.00606782 0.00321134 0.0168891 0.00246549 0.00603594 0.00244903 0.0236113 0.00334621 0.0128986 0.0036173 0.0220089 0.00464048 0.01628 0.00534746 0.0414022
16 1 Mg 3.92855 2.33318 4.4844 1.2 1 0.00131394 0.00382464 0.00163328 0.00417357 0.0017169 0.00591884 0.00340907 0.0171821 0.00301364 0.00563475 0.00313575 0.0231483 0.00388052 0.0134135 0.00532768 0.0220958 0.00615173 0.0168944 0.00664972 0.0410798
17 2 Si 2.09341 4.39804 4.4844 2.4 1 0.00136243 0.0039702 0.00206008 0.00420788 0.00289321 0.00620156 0.00368929 0.0184425 0.0034225 0.00631959 0.00340543 0.0247972 0.00443757 0.0141902 0.00465805 0.0245689 0.00677464 0.0183318 0.00799772 0.0440134
18 3 O 2.09991 6.01128 4.4844 -1.2 1 0.00209165 0.00429496 0.00168556 0.00399206 0.00282169 0.00669741 0.00322691 0.0194727 0.0026633 0.00688453 0.00321368 0.0263976 0.00416584 0.0145439 0.00494092 0.0273071 0.00682455 0.0192748 0.00777498 0.0459705
19 3 O -4.52137 3.42402 4.4844 -1.2 1 0.000751481 0.00348724 0.00184359 0.00459359 0.00231061 0.00747585 0.0033002 0.0173885 0.00320855 0.00598104 0.00334566 0.0235711 0.00403655 0.0128487 0.00450579 0.0228837 0.0061019 0.0175273 0.00709606 0.0420569
20 3 O 2.80834 3.69187 3.18632 -1.2 1 0.00117513 0.00363038 0.00163159 0.00359754 0.00201293 0.00600709 0.00316005 0.017528 0.0029359 0.00618984 0.00281084 0.0241135 0.00354115 0.0130864 0.00479842 0.0238044 0.00563977 0.0168056 0.00636546 0.0429165
21 1 Mg 1.17857 2.37449 0 1.2 1 0.00187714 0.00344496 0.00224304 0.00410016 0.00152645 0.00546972 0.00249967 0.0172045 0.00232614 0.00663344 0.00286757 0.02303 0.00290727 0.0129444 0.00342713 0.0217944 0.00427183 0.014963 0.00502935 0.040647
22 3 O 2.76143 3.69187 5.78248 -1.2 1 0.00167854 0.00414975 0.00175346 0.00418654 0.0020995 0.00626897 0.00286919 0.0181173 0.00319927 0.00663277 0.00308468 0.0232005 0.00469652 0.0129616 0.00579304 0.0233617 0.00657529 0.0184377 0.00741366 0.0423193
23 1 Mg -1.67381 2.41581 1.4948 1.2 1 0.00109508 0.00234729 0.00259313 0.00472103 0.00138603 0.00593557 0.00252021 0.0166173 0.00256077 0.00619366 0.00187302 0.0242316 0.00248996 0.0140163 0.00283591 0.0224887 0.00440417 0.0161426 0.0047813 0.0418097
24 2 Si 0.16286 0.350945 1.4948 2.4 1 0.00192441 0.00256274 0.00264658 0.00451762 0.00136755 0.00635745 0.00289494 0.0165334 0.00207662 0.00521257 0.00183475 0.02311 0.00263581 0.0131468 0.00313984 0.021084 0.00456463 0.0149219 0.00415089 0.0407294
25 3 O 0.15972 -1.26229 1.4948 -1.2 1 0.00219254 0.00261917 0.00274607 0.00447453 0.00168919 0.00592951 0.00258735 0.0163898 0.00216738 0.00540822 0.00225385 0.0229973 0.00300904 0.01338 0.0032897 0.0220507 0.00422293 0.0148116 0.00381288 0.0412376
26 3 O 6.77654 1.32496 1.4948 -1.2 1 0.0011659 0.00324748 0.00160584 0.00437827 0.00131749 0.00599992 0.00242045 0.0168482 0.00233955 0.00536276 0.00157547 0.023432 0.00282274 0.0131871 0.00333597 0.0218081 0.00451759 0.0151209 0.00420194 0.0408411
27 3 O -0.508028 1.05712 0.196716 -1.2 1 0.00158125 0.00268225 0.00329819 0.00407408 0.00148417 0.00565275 0.0026473 0.016943 0.00166249 0.00648675 0.00242752 0.022043 0.00283778 0.0126364 0.00315356 0.0214218 0.00422667 0.0151758 0.00445013 0.0400723
28 3 O -0.552171 1.05712 2.79288 -1.2 1 0.00134731 0.00266359 0.00281715 0.00470803 0.00139162 0.00658062 0.0024557 0.0165158 0.0023295 0.00593265 0.00165817 0.0228295 0.00288993 0.011704 0.00350821 0.0218698 0.00534845 0.0156592 0.00492035 0.0405171
29 1 Mg 6.31713 4.74899 0 1.2 1 0.000906746 0.00253484 0.00198936 0.00458286 0.00211514 0.00603223 0.00339109 0.0180458 0.00266969 0.00703128 0.00217296 0.0250081 0.00297093 0.013678 0.0042353 0.0245953 0.00469554 0.0164221 0.00605594 0.0424284
30 1 Mg 3.54847 9.45668 1.4948 1.2 1 0.00162364 0.00325784 0.00185789 0.00480613 0.00203715 0.00768519 0.00332166 0.0214238 0.00162256 0.008258 0.00220117 0.0282759 0.00309503 0.0155523 0.00387334 0.0291947 0.00428992 0.0180753 0.00377158 0.0486592
31 2 Si 5.36879 6.77254 1.4948 2.4 1 0.00100139 0.00289472 0.00202564 0.00522469 0.00267501 0.00689371 0.00371202 0.0196656 0.00265613 0.0077591 0.00252482 0.0275093 0.00322919 0.0152446 0.0044418 0.0268433 0.00467889 0.0173182 0.00521017 0.0465171
32 3 O 5.41937 8.38578 1.4948 -1.2 1 0.00159301 0.00296665 0.00180287 0.00508422 0.00209627 0.00773133 0.0032892 0.0209311 0.00216675 0.00830502 0.00234875 0.0288977 0.00227285 0.01559 0.00324866 0.0290299 0.00469557 0.0173845 0.00477358 0.0480139
33 3 O 1.75158 5.79852 1.4948 -1.2 1 0.000950014 0.00339119 0.00175861 0.00410023 0.00217648 0.00596681 0.00337727 0.0195624 0.00259532 0.00717788 0.00279113 0.0276749 0.00295059 0.015477 0.00354493 0.0268608 0.00521739 0.0174811 0.00553462 0.0456851
34 3 O 4.67421 6.06637 0.196716 -1.2 1 0.000662216 0.0028867 0.00156665 0.00478724 0.00195535 0.00674734 0.00301899 0.0198503 0.00231092 0.00822063 0.00213744 0.0261304 0.00355157 0.0142082 0.00427188 0.0264455 0.00468815 0.0166551 0.00561471 0.0448406
35 1 Mg 6.26654 4.74899 2.9896 1.2 1 0.00105483 0.00300837 0.00210656 0.00498973 0.00280953 0.00667047 0.0038405 0.0180341 0.00355636 0.00688095 0.00230193 0.0257829 0.00392355 0.0144996 0.00508692 0.0250247 0.00580159 0.0174961 0.00669343 0.043855
36 3 O 4.63043 6.06637 2.79288 -1.2 1 0.00176606 0.00324685 0.00174821 0.00493232 0.00240214 0.00689529 0.00354447 0.0196423 0.00328142 0.00763585 0.00249796 0.0258612 0.00404526 0.0148167 0.00482911 0.0272044 0.00587622 0.0180122 0.00664017 0.0458675
37 1 Mg -1.12976 4.79031 4.4844 1.2 1 0.0018965 0.00396143 0.00159296 0.00482607 0.00247062 0.00652734 0.00313184 0.0181671 0.00330698 0.00685719 0.00312204 0.0255255 0.00428941 0.0142804 0.00481575 0.0255907 0.00744397 0.0188443 0.00751299 0.0445887
38 2 Si -2.9517 7.47444 4.4844 2.4 1 0.00187697 0.00416137 0.00140259 0.00525898 0.00303793 0.00684245 0.00372193 0.0202441 0.00311892 0.00749518 0.00311238 0.0271392 0.00468822 0.0159424 0.00544157 0.0278522 0.00712891 0.0191657 0.0078503 0.0480111
39 3 O -3.00198 5.86121 4.4844 -1.2 1 0.00150128 0.004132 0.0013928 0.00499443 0.0032875 0.00656642 0.00408532 0.0190187 0.00332378 0.00734377 0.00278953 0.0255435 0.00472339 0.0141477 0.00503019 0.026787 0.00706303 0.0192895 0.00788231 0.0459082
40 3 O 0.666315 8.44846 4.4844 -1.2 1 0.00281083 0.00484702 0.0011625 0.00499202 0.00299839 0.00767382 0.00308707 0.0210902 0.00301782 0.0077046 0.00348917 0.0280845 0.00480723 0.0158986 0.00494028 0.0289924 0.00661921 0.019716 0.00757427 0.0490834
41 3 O -2.21213 8.18062 3.18632 -1.2 1 0.00213433 0.00416406 0.00158715 0.00459108 0.00251561 0.00651473 0.00274975 0.0208849 0.00263674 0.00793592 0.00294443 0.0273698 0.00425008 0.01595 0.00505577 0.0288836 0.00610445 0.0187496 0.00650516 0.0488195
42 3 O -2.25864 8.18062 5.78248 -1.2 1 0.00284789 0.00461538 0.00131211 0.00489897 0.00335476 0.00612366 0.00312398 0.0209847 0.0023231 0.00830465 0.0032107 0.0261961 0.00482673 0.0164536 0.00549529 0.0290982 0.00746338 0.0208503 0.00792022 0.0495375
43 1 Mg 1.20893 7.12349 2.9896 1.2 1 0.00174615 0.003817 0.00172646 0.00442819 0.00275684 0.0068224 0.00381974 0.0197086 0.00274653 0.00777236 0.00278509 0.0276978 0.00356416 0.0157685 0.00412596 0.0275257 0.00566571 0.0181044 0.00622592 0.0470811
44 1 Mg 4.00982 7.08218 4.4844 1.2 1 0.00178764 0.00384727 0.00154814 0.00496176 0.00263376 0.00667179 0.00364514 0.0200228 0.00332342 0.00723683 0.00323687 0.0269636 0.00444581 0.016519 0.006026 0.0279339 0.00729212 0.0191129 0.00803255 0.0473052
45 2 Si 2.17861 9.14704 4.4844 2.4 1 0.00260385 0.00434013 0.00134297 0.00508553 0.00307307 0.00764703 0.00355768 0.0212778 0.00275271 0.0077746 0.0029913 0.0277713 0.00463722 0.0165493 0.00481557 0.0294106 0.00602274 0.0194109 0.00673128 0.0504519
46 3 O 2.18828 10.7603 4.4844 -1.2 1 0.00301496 0.00465819 0.00170391 0.00460089 0.00277184 0.00733882 0.00304916 0.0210288 0.00226839 0.00794525 0.002258 0.0284188 0.00435432 0.0155973 0.00461619 0.0304578 0.00600618 0.0197806 0.00672295 0.0508225
47 3 O -4.43805 8.17302 4.4844 -1.2 1 0.0014501 0.00445851 0.00157109 0.00518256 0.00278353 0.00787309 0.00309355 0.0208049 0.00313286 0.00804427 0.00305658 0.0278805 0.00494369 0.0160565 0.00491886 0.0291486 0.00696446 0.0193975 0.0085782 0.0485171
48 3 O 2.89193 8.44087 3.18632 -1.2 1 0.00238575 0.00362998 0.00170136 0.00455092 0.00260813 0.00715946 0.00322705 0.0206862 0.00275113 0.00818967 0.00273798 0.0273683 0.00385057 0.0158581 0.00485764 0.028906 0.00603968 0.0186395 0.00577325 0.0487716
49 1 Mg 1.25915 7.12349 0 1.2 1 0.000349911 0.00306114 0.00164698 0.00424842 0.00176213 0.00718467 0.00302772 0.0200847 0.00276725 0.00817136 0.00291427 0.027472 0.00358153 0.0142684 0.00371573 0.0273911 0.00467762 0.0173311 0.00475737 0.0456579
50 3 O 2.84547 8.44087 5.78248 -1.2 1 0.00269 0.00487449 0.00134822 0.0046646 0.00266625 0.00680175 0.00310886 0.0210816 0.00288412 0.00820307 0.00349231 0.0261956 0.00535391 0.0164604 0.00554451 0.0293545 0.00637551 0.0210574 0.00752051 0.0498453
51 1 Mg -1.59284 7.16481 1.4948 1.2 1 0.00121211 0.00320615 0.00171161 0.00466253 0.00188247 0.00640997 0.0028258 0.0200649 0.00275602 0.00775312 0.00183067 0.0276073 0.00332258 0.0155431 0.0038192 0.0271368 0.00449152 0.0175188 0.00571703 0.046682
52 2 Si 0.240329 5.09994 1.4948 2.4 1 0.000808623 0.0036062 0.00219417 0.00406854 0.00181316 0.00675051 0.00323288 0.0189189 0.00290552 0.0072916 0.0024444 0.0259154 0.00287298 0.0145425 0.00409061 0.0248813 0.00507531 0.0168467 0.00537753 0.044687
53 3 O 0.234538 3.48671 1.4948 -1.2 1 0.00139571 0.00361471 0.00272543 0.00435433 0.0019295 0.00645396 0.00271824 0.0179717 0.0032681 0.00692041 0.00233924 0.0245405 0.00329596 0.0135096 0.00386271 0.0241144 0.00530884 0.0160719 0.0054916 0.0424457
54 3 O 6.85564 6.07396 1.4948 -1.2 1 0.00103932 0.00259083 0.00241896 0.00499401 0.00252949 0.00613835 0.00324149 0.0200666 0.00296535 0.00754036 0.00214142 0.0275984 0.00329997 0.0146742 0.00478917 0.0269055 0.00538679 0.0176207 0.00617987 0.0455334
55 3 O -0.429565 5.80612 0.196716 -1.2 1 0.000807108 0.00309463 0.00244349 0.00419692 0.00189797 0.00707744 0.00282546 0.0194951 0.00273136 0.00830195 0.00265328 0.0255363 0.0027043 0.0140262 0.00399204 0.0259067 0.00500325 0.0167211 0.0059825 0.0449084
56 3 O -0.473377 5.80612 2.79288 -1.2 1 0.00178451 0.00364697 0.00196307 0.00441012 0.00249919 0.00670022 0.00308171 0.0193346 0.00306509 0.00793925 0.00297172 0.0256894 0.00389452 0.0144784 0.00457969 0.0264826 0.00648424 0.0182189 0.00667153 0.04598
57 1 Mg 6.40169 9.49799 0 1.2 1 0.00106666 0.00360341 0.00159238 0.00470089 0.00140896 0.00824653 0.00218945 0.0210515 0.00187975 0.00909552 0.00174241 0.0287435 0.00266859 0.0147844 0.00297704 0.0296385 0.00376689 0.0176389 0.00420641 0.0470528
58 1 Mg 3.64209 14.2057 1.4948 1.2 1 0.00206594 0.00313405 0.00156433 0.00463542 0.00171816 0.00882877 0.00168725 0.0218372 0.00144498 0.00872088 0.00216695 0.0282116 0.00265602 0.0160587 0.00321246 0.0294411 0.00380101 0.0166966 0.0035095 0.0493052
59 2 Si 5.45748 11.5215 1.4948 2.4 1 0.00219069 0.00311384 0.00173883 0.00470494 0.00156285 0.00826697 0.00220542 0.021244 0.00158248 0.00834773 0.00169834 0.0287149 0.00269229 0.0162289 0.00368895 0.0292041 0.00397644 0.0167254 0.00373493 0.049141
60 3 O 5.51101 13.1348 1.4948 -1.2 1 0.00209807 0.00302677 0.00174861 0.00474214 0.00150373 0.00910972 0.00183601 0.0213577 0.00160429 0.00872839 0.00152282 0.0293043 0.00232022 0.016155 0.00309811 0.0298508 0.00381707 0.0164031 0.00346407 0.0490859
61 3 O 1.83851 10.5475 1.4948 -1.2 1 0.00145224 0.00337881 0.00171395 0.00488839 0.00165751 0.00790349 0.00255077 0.0216846 0.00166756 0.00835652 0.00201647 0.0292729 0.00268785 0.0158218 0.00356527 0.029839 0.00420512 0.0176956 0.00348026 0.0491953
62 3 O 4.7611 10.8154 0.196716 -1.2 1 0.00126712 0.0027959 0.00182904 0.00470092 0.00158364 0.00852555 0.00232756 0.0214253 0.00143321 0.00870889 0.00183685 0.0280591 0.00303557 0.0156566 0.00403517 0.0294308 0.0037239 0.0168508 0.00368379 0.0482652
63 1 Mg 6.35203 9.49799 2.9896 1.2 1 0.00145734 0.0038617 0.00163116 0.00494306 0.00249721 0.00777107 0.00329949 0.0205648 0.00309231 0.00842153 0.00206521 0.0289554 0.00379465 0.0162202 0.00358128 0.0290305 0.00449629 0.0183195 0.0052289 0.048918
64 3 O 4.71833 10.8154 2.79288 -1.2 1 0.00235192 0.00359591 0.00157678 0.00460869 0.00216691 0.00827491 0.00224212 0.0214374 0.00194234 0.00874408 0.00200278 0.0281431 0.00346039 0.0157981 0.00415775 0.0302076 0.0052772 0.018156 0.00547199 0.0500114
65 1 Mg -1.0438 9.53931 4.4844 1.2 1 0.00295434 0.00480535 0.00151914 0.00455517 0.00312547 0.00690545 0.00254284 0.0212003 0.00268377 0.00832473 0.00276163 0.0281726 0.00407338 0.01647 0.00488899 0.0296231 0.00658789 0.0197555 0.00681281 0.0501745
66 2 Si -2.8604 12.2234 4.4844 2.4 1 0.00272356 0.00432466 0.00164141 0.00439097 0.00270667 0.0078673 0.00311379 0.0218969 0.00274511 0.00832971 0.00244746 0.0281086 0.00429907 0.016358 0.00451989 0.0299191 0.00576004 0.0193129 0.00644263 0.0516605
67 3 O -2.91391 10.6102 4.4844 -1.2 1 0.00281423 0.00465497 0.00151695 0.00453999 0.0029066 0.00725163 0.00306608 0.020864 0.00267923 0.00764435 0.00180093 0.0282526 0.00432895 0.0157912 0.00434057 0.0304351 0.00586141 0.0198133 0.00681363 0.050772
68 3 O 0.7596 13.1975 4.4844 -1.2 1 0.00288468 0.00428103 0.0016585 0.00480072 0.00286335 0.00903615 0.00270203 0.0222795 0.00280448 0.00831496 0.00283248 0.0284771 0.00419327 0.0160558 0.00433925 0.0300399 0.00577008 0.0194518 0.00645434 0.0511851
69 3 O -2.12001 12.9296 3.18632 -1.2 1 0.00278559 0.0037788 0.00173881 0.0041725 0.00250615 0.00772261 0.00235789 0.0219063 0.00243898 0.00844701 0.00225176 0.0278545 0.00378664 0.0159989 0.00469954 0.0302605 0.00515277 0.0182656 0.00538131 0.050799
70 3 O -2.16532 12.9296 5.78248 -1.2 1 0.00352298 0.00461096 0.00145151 0.00434279 0.00289735 0.00712479 0.00240049 0.0221673 0.00241306 0.00812776 0.00268622 0.0272671 0.00419684 0.0166215 0.00498868 0.0307836 0.00596821 0.0210248 0.00679801 0.0527402
71 1 Mg 1.29891 11.8725 2.9896 1.2 1 0.00245584 0.00350192 0.00176011 0.00488161 0.00236861 0.00826632 0.00288988 0.0211679 0.00249009 0.00843791 0.00191174 0.0289686 0.00337699 0.0161681 0.00368676 0.0299752 0.004646 0.0177816 0.00492031 0.0499644
72 1 Mg 4.10033 11.8312 4.4844 1.2 1 0.00255648 0.00389027 0.0016609 0.00445717 0.00248419 0.00750818 0.00246127 0.0214744 0.00247841 0.00812954 0.00270265 0.0285948 0.00389013 0.0170595 0.00524395 0.0303372 0.00656787 0.019407 0.00641894 0.0512007
73 2 Si 2.27333 13.896 4.4844 2.4 1 0.00291728 0.00354235 0.00170549 0.00496943 0.00288147 0.00819548 0.00305708 0.0219944 0.00237743 0.00829688 0.00280234 0.0280922 0.00395714 0.0164942 0.00451034 0.0300939 0.00539965 0.0189477 0.00611773 0.0519885
74 3 O 2.28634 15.5093 4.4844 -1.2 1 0.00305216 0.00361694 0.00169316 0.00446125 0.00299565 0.00748761 0.00266731 0.0211529 0.00261975 0.00775452 0.00222657 0.0284762 0.00339605 0.0155779 0.00397758 0.0303896 0.0055886 0.0183745 0.00605196 0.0512743
75 3 O -4.34533 12.922 4.4844 -1.2 1 0.0025782 0.00413505 0.00175496 0.00452126 0.00274308 0.00860498 0.00292254 0.0220759 0.00264712 0.00849215 0.00241518 0.028357 0.00411077 0.0160524 0.00458416 0.0302069 0.00615786 0.0197384 0.00690322 0.0512951
76 3 O 2.98455 13.1899 3.18632 -1.2 1 0.0027087 0.00332958 0.00156212 0.00442385 0.00247522 0.00803092 0.00212749 0.0219049 0.00229164 0.00856997 0.00225554 0.0277694 0.00355652 0.0158994 0.00447006 0.0300498 0.00552779 0.0182923 0.00543636 0.0505841
77 1 Mg 1.34779 11.8725 0 1.2 1 0.00154419 0.00285515 0.00120357 0.00488223 0.0012715 0.00890993 0.00167562 0.0212725 0.00137337 0.00907292 0.00195921 0.0288296 0.00297705 0.0149454 0.00319906 0.0300541 0.00337993 0.0169422 0.00328274 0.0479469
78 3 O 2.93934 13.1899 5.78248 -1.2 1 0.00293563 0.00455095 0.00145458 0.00468387 0.00280532 0.00730472 0.00268982 0.0220522 0.00247569 0.00821975 0.00302186 0.0271044 0.00431432 0.0161983 0.00467318 0.0312722 0.00592959 0.0215059 0.00656278 0.0528077
79 1 Mg -1.50344 11.9138 1.4948 1.2 1 0.00162221 0.00339967 0.00148261 0.00459995 0.00146906 0.00838441 0.0021027 0.0216654 0.00236166 0.00848984 0.00147354 0.0286346 0.00358757 0.0161397 0.00353536 0.0297077 0.00366537 0.0173988 0.00378407 0.0492847
80 2 Si 0.326006 9.84894 1.4948 2.4 1 0.000988016 0.00335322 0.00125806 0.00504462 0.00170485 0.00835215 0.0022243 0.0212316 0.00207687 0.00836405 0.00157613 0.0284953 0.00314299 0.015746 0.00385952 0.0289357 0.00376545 0.0176039 0.00354455 0.0486037
81 3 O 0.317364 8.23571 1.4948 -1.2 1 0.00152566 0.00364474 0.00116468 0.00464057 0.00185314 0.00778525 0.00234111 0.0203924 0.00247873 0.00791386 0.00181388 0.0285849 0.0036236 0.0157855 0.00407998 0.0286006 0.00441659 0.0176105 0.00431882 0.0475911
82 3 O 6.94307 10.823 1.4948 -1.2 1 0.00160427 0.00352185 0.0014909 0.00456936 0.00159294 0.00775412 0.00263035 0.0217866 0.0025045 0.00838348 0.00151602 0.0292746 0.00316474 0.0157401 0.00367234 0.0300362 0.00384964 0.0178932 0.00408248 0.0492265
83 3 O -0.343122 10.5551 0.196716 -1.2 1 0.00122404 0.00325856 0.00128863 0.00486121 0.00135267 0.00859442 0.00210937 0.0213034 0.00178941 0.0087677 0.00169995 0.0281544 0.00340196 0.0154602 0.00420057 0.0294601 0.00362157 0.0172835 0.00343024 0.0483531
84 3 O -0.385966 10.5551 2.79288 -1.2 1 0.00294766 0.00381011 0.00129366 0.00453046 0.00253145 0.00815814 0.00227566 0.0217835 0.00216387 0.00902561 0.00218815 0.0276525 0.00395432 0.0160626 0.00438298 0.0298633 0.00511333 0.0185687 0.00487882 0.0500149
85 1 Mg 6.49448 14.247 0 1.2 1 0.00148503 0.0030453 0.00162971 0.00477947 0.00107776 0.00920951 0.00131363 0.0213797 0.00126949 0.0086336 0.0015408 0.0286292 0.00198517 0.0156299 0.00269672 0.0298815 0.00322803 0.0160709 0.00289391 0.0478652
86 1 Mg 3.74457 18.9547 1.4948 1.2 1 0.0019852 0.00289834 0.00127155 0.00399636 0.00186972 0.00845432 0.00133062 0.0223958 0.00175003 0.00808743 0.0023896 0.0275753 0.00272138 0.0163434 0.00362029 0.0286585 0.00369953 0.0160731 0.00321568 0.0494163
87 2 Si 5.55495 16.2705 1.4948 2.4 1 0.00223705 0.00278582 0.00151485 0.00453101 0.00189019 0.00885994 0.00145747 0.0216002 0.00122915 0.00803022 0.00129993 0.0284269 0.00244812 0.0161864 0.00314682 0.0288179 0.00358541 0.0156635 0.00363373 0.0493708
88 3 O 5.6115 17.8838 1.4948 -1.2 1 0.00211697 0.00263185 0.00173395 0.00431065 0.00191037 0.00907042 0.00151389 0.021841 0.00159109 0.00790167 0.00160762 0.0286879 0.00239087 0.0163913 0.00300518 0.0287783 0.00318895 0.0154755 0.00329881 0.0491927
89 3 O 1.93416 15.2965 1.4948 -1.2 1 0.0021438 0.00294579 0.0017081 0.00457203 0.0018681 0.00831655 0.00192725 0.0221197 0.00170174 0.00806489 0.00134931 0.0290558 0.00220441 0.016183 0.00302489 0.0296595 0.00355818 0.0162415 0.00322296 0.0497115
90 3 O 4.85636 15.5644 0.196716 -1.2 1 0.00204578 0.0023685 0.00123975 0.00461732 0.00130674 0.00914632 0.00142265 0.0213739 0.00078556 0.00815094 0.00167703 0.0279054 0.00255811 0.0157916 0.00327778 0.0291838 0.00326882 0.0155741 0.00318574 0.0487088
91 1 Mg 6.44662 14.247 2.9896 1.2 1 0.00152203 0.00350542 0.00163723 0.00457078 0.00251432 0.00865834 0.00286682 0.0209915 0.00274574 0.00891001 0.00185795 0.02922 0.00321261 0.0161329 0.00340466 0.0295572 0.00402346 0.0173397 0.00471958 0.0497056
92 3 O 4.81537 15.5644 2.79288 -1.2 1 0.00227896 0.00308592 0.00163264 0.00451873 0.00235097 0.00875058 0.00157108 0.0221477 0.00146608 0.00866774 0.00169184 0.0278793 0.00275217 0.0162566 0.00366623 0.0297244 0.00461605 0.0172306 0.00479897 0.0502559
93 1 Mg -0.948271 14.2883 4.4844 1.2 1 0.00312918 0.00389624 0.00157679 0.00430305 0.00293978 0.00796022 0.00268855 0.0215723 0.0027176 0.00812022 0.00267255 0.0283623 0.00358271 0.0165365 0.00479837 0.0302493 0.00558115 0.0186547 0.00617566 0.051535
94 2 Si -2.75928 16.9724 4.4844 2.4 1 0.00247453 0.00332365 0.0019807 0.0043374 0.0029435 0.0079042 0.00272757 0.0220901 0.00258107 0.00781206 0.00261175 0.0278125 0.00353059 0.0164195 0.00444381 0.0293249 0.00498202 0.0178897 0.00557429 0.051693
95 3 O -2.81617 15.3592 4.4844 -1.2 1 0.00299613 0.00368972 0.00166969 0.00420341 0.00292847 0.00775409 0.00283193 0.021275 0.00243652 0.00769426 0.00232543 0.0283106 0.00385422 0.0155331 0.00415325 0.0301062 0.00568494 0.0183201 0.00637387 0.05111
96 3 O 0.862762 17.9465 4.4844 -1.2 1 0.00252688 0.00337908 0.00165117 0.00443993 0.00305273 0.00853997 0.0024585 0.0222793 0.00259187 0.00769893 0.00260538 0.0285438 0.00382364 0.0165092 0.00436998 0.0289517 0.00545554 0.0181606 0.00580434 0.0510529
97 3 O -2.0185 17.6786 3.18632 -1.2 1 0.00246392 0.00295465 0.00184785 0.00392393 0.00276956 0.00761313 0.00225705 0.0223892 0.00238292 0.00790179 0.0022081 0.0274627 0.00363323 0.016059 0.00458502 0.0296675 0.00448088 0.0172169 0.00474659 0.0508306
98 3 O -2.06164 17.6786 5.78248 -1.2 1 0.00307727 0.00373383 0.00172524 0.00400626 0.00299429 0.00699661 0.00250848 0.0223637 0.0024772 0.00771008 0.00251266 0.0273764 0.00330362 0.0163991 0.00459804 0.0301413 0.00568721 0.0200233 0.0062316 0.0522513
99 1 Mg 1.39817 16.6215 2.9896 1.2 1 0.00249999 0.00282328 0.00181345 0.00449321 0.00264228 0.00850152 0.00267866 0.021549 0.0024635 0.00806573 0.00191397 0.0286079 0.00275615 0.0163424 0.00343761 0.0292465 0.00392958 0.0164339 0.00416873 0.0499575
100 1 Mg 4.20062 16.5802 4.4844 1.2 1 0.00265247 0.00321084 0.00185128 0.00434361 0.00277607 0.00777667 0.0022795 0.0220161 0.00291789 0.00766992 0.00274531 0.0282253 0.00335984 0.0169778 0.00545851 0.0296497 0.00616765 0.0182096 0.00591996 0.05126
101 2 Si 2.37796 18.645 4.4844 2.4 1 0.00232781 0.00299345 0.0015957 0.00431519 0.00300765 0.007941 0.00289276 0.0224195 0.00247111 0.00775678 0.00264887 0.0277479 0.00364665 0.0168332 0.00436116 0.028832 0.00505556 0.0176454 0.00527188 0.0516562
102 3 O 2.39434 20.2583 4.4844 -1.2 1 0.00238257 0.0031665 0.00151297 0.00404546 0.00284983 0.00680595 0.00258009 0.0216367 0.00261043 0.00725997 0.00213586 0.0282356 0.00331161 0.0162854 0.00395296 0.029244 0.00532342 0.0177424 0.0061765 0.0507175
103 3 O -4.24274 17.671 4.4844 -1.2 1 0.00227781 0.00363963 0.00205685 0.00446654 0.00295763 0.00864221 0.00274039 0.0224806 0.00283553 0.00789772 0.00256368 0.0283886 0.00335182 0.0161863 0.00483804 0.0293499 0.00566973 0.0183399 0.00621861 0.0510001
104 3 O 3.08659 17.9389 3.18632 -1.2 1 0.00231458 0.00262158 0.00166315 0.0040311 0.00263617 0.00782694 0.00208992 0.0224078 0.00225738 0.00803406 0.0023028 0.0273698 0.00321637 0.0162272 0.00427295 0.0293112 0.00503496 0.0172364 0.00510789 0.0505405
105 1 Mg 1.44478 16.6215 0 1.2 1 0.00233903 0.00265817 0.00124278 0.00431074 0.00135119 0.00889178 0.00118196 0.021608 0.00132816 0.00819209 0.00145028 0.0283331 0.0024326 0.0156249 0.00250827 0.0290291 0.0031152 0.0158101 0.00317157 0.0484568
106 3 O 3.0436 17.9389 5.78248 -1.2 1 0.00268937 0.00356068 0.00169434 0.00444636 0.00283392 0.00706124 0.00236909 0.0224939 0.00234205 0.00776699 0.00282831 0.0272373 0.00369408 0.0163475 0.00478994 0.0299738 0.00573168 0.0199748 0.00601805 0.0523949
107 1 Mg -1.40524 16.6628 1.4948 1.2 1 0.00179834 0.00282053 0.00155208 0.00450927 0.00174938 0.0086494 0.00187939 0.0223159 0.00181844 0.00816029 0.0019083 0.0280709 0.00329826 0.0165159 0.00317714 0.0292302 0.00283706 0.0162503 0.00303666 0.0493476
108 2 Si 0.420358 14.5979 1.4948 2.4 1 0.00195158 0.00284412 0.00162395 0.00502792 0.00196859 0.00907477 0.0017793 0.0215712 0.0016151 0.00819404 0.00142039 0.0282794 0.00307175 0.0164205 0.00366223 0.0287438 0.00340941 0.0162071 0.00340062 0.0492699
109 3 O 0.408732 12.9847 1.4948 -1.2 1 0.00178399 0.00297168 0.00146113 0.00497526 0.00182502 0.00919773 0.00165175 0.0212059 0.00223241 0.00836942 0.00151368 0.0289896 0.00315045 0.0160295 0.00323914 0.0297953 0.00323583 0.0167123 0.00364056 0.0491915
110 3 O 7.03923 15.572 1.4948 -1.2 1 0.00186464 0.0029801 0.00148296 0.00458377 0.0019578 0.00824971 0.00225894 0.0218121 0.00214011 0.00808253 0.00148166 0.0291593 0.00265981 0.0163387 0.00309799 0.0296163 0.00317832 0.0163396 0.00383947 0.0495189
111 3 O -0.248332 15.3041 0.196716 -1.2 1 0.0020803 0.00252123 0.00142866 0.00456071 0.00121972 0.00901084 0.00179117 0.0213907 0.00131306 0.00827601 0.00168885 0.0278873 0.00295806 0.0159197 0.00378461 0.0291021 0.00298501 0.015779 0.00312928 0.0486839
112 3 O -0.289436 15.3041 2.79288 -1.2 1 0.00267107 0.00325653 0.00141107 0.00444667 0.0025573 0.0086639 0.00195906 0.0219915 0.00180038 0.00864956 0.00193342 0.0274523 0.0030369 0.0162608 0.00361393 0.0295331 0.00421107 0.0174641 0.00444395 0.0503268
113 1 Mg 6.59566 18.996 0 1.2 1 0.0014057 0.00277574 0.00143826 0.0043614 0.000922267 0.00854645 0.00101315 0.0221319 0.00114936 0.00789972 0.00151037 0.0280141 0.00211653 0.0161827 0.00256118 0.0286539 0.00295802 0.0156612 0.00294534 0.0484726
114 1 Mg 3.85574 23.7037 1.4948 1.2 1 0.00155394 0.0025245 0.00123777 0.00404228 0.00184721 0.00742101 0.00127399 0.0233716 0.00167784 0.00754049 0.00213992 0.0271418 0.00243641 0.0173271 0.00340039 0.028287 0.00316379 0.017344 0.00305562 0.0499917
115 2 Si 5.66125 21.0195 1.4948 2.4 1 0.00179545 0.00240855 0.00113139 0.00419011 0.00207068 0.00806641 0.001671 0.0220706 0.00128164 0.00747158 0.00163867 0.0279822 0.00261378 0.0170296 0.00300399 0.027961 0.00334429 0.0156331 0.00380956 0.049602
116 3 O 5.72074 22.6328 1.4948 -1.2 1 0.00174648 0.00252229 0.00155605 0.00415665 0.00191414 0.00822296 0.00162234 0.0225728 0.00171832 0.00718227 0.00147503 0.0279035 0.0023866 0.0171453 0.0031182 0.0282044 0.00320037 0.0162808 0.0033628 0.0494491
117 3 O 2.03867 20.0455 1.4948 -1.2 1 0.0017711 0.00279127 0.00152417 0.00424112 0.0018133 0.00765276 0.00187344 0.022547 0.00208274 0.00743813 0.00142142 0.0282883 0.00232341 0.0168921 0.00282627 0.028862 0.00349752 0.0159045 0.00336706 0.0497979
118 3 O 4.96004 20.3134 0.196716 -1.2 1 0.00179995 0.00216979 0.00120883 0.00412679 0.00120255 0.0082603 0.00117121 0.0219647 0.00102644 0.0075129 0.00153211 0.0276128 0.00256717 0.0164632 0.00364741 0.028713 0.00317577 0.0150625 0.00285932 0.0490361
119 1 Mg 6.55057 18.996 2.9896 1.2 1 0.0015245 0.00307943 0.00138282 0.00414975 0.00267765 0.00811848 0.00286812 0.0215089 0.00236626 0.00790267 0.00163344 0.0288639 0.00300175 0.0165643 0.00304584 0.0287009 0.00367672 0.016518 0.00435525 0.0498356