ITEM: TIMESTEP
60700
ITEM: NUMBER OF ATOMS
10500
ITEM: BOX BOUNDS xy xz yz pp pp pp
0	15.2977	5.09925
0	118.725	0
0	89.688	0
ITEM: ATOMS id type element xu yu zu q Q_1 Q_2 Q_3 Q_4 Q_5 Q_6 Q_7 Q_8 Q_9 Q_10 Q_11 Q_12 Q_13 Q_14 Q_15 Q_16 Q_17 Q_18 Q_19 Q_20 Q_21
1 1 Mg 6.2404 -6.37941e-06 0 1.2 1 0.00104655 0.00432792 0.00131952 0.00470518 0.0012488 0.00557991 0.0020353 0.0158157 0.00218111 0.00584422 0.00207638 0.0218051 0.00262547 0.0135745 0.00349883 0.0205656 0.00398783 0.0141095 0.00385203 0.0400981
2 1 Mg 3.46349 4.70768 1.4948 1.2 1 0.00103702 0.00326957 0.00163237 0.00445599 0.00165034 0.00602521 0.00349174 0.0183993 0.00289707 0.00696094 0.00301693 0.025303 0.00324116 0.0143403 0.00439982 0.0250562 0.00572154 0.0169079 0.00590823 0.0430305
3 2 Si 5.2885 2.02354 1.4948 2.4 1 0.000516981 0.00355813 0.00212705 0.00459944 0.00181986 0.00566584 0.00241609 0.0168391 0.00239931 0.00595265 0.00218771 0.0230319 0.00288641 0.0137302 0.00363842 0.0214653 0.00376786 0.0152744 0.00425404 0.0408483
4 3 O 5.33628 3.63678 1.4948 -1.2 1 0.000421253 0.00292851 0.00166791 0.00486109 0.00196613 0.00621576 0.00285177 0.0175731 0.00233727 0.00660752 0.00214336 0.0248555 0.00254742 0.0138837 0.00419721 0.0237757 0.00515853 0.0162544 0.00583421 0.0419719
5 3 O 1.67294 1.04952 1.4948 -1.2 1 0.00162256 0.00334471 0.00203913 0.00440695 0.00116397 0.00576433 0.00233402 0.0168692 0.00226968 0.00600289 0.00229322 0.0226493 0.00266156 0.0132323 0.00357692 0.0217097 0.00470419 0.0153839 0.004887 0.0400194
6 3 O 4.59532 1.31737 0.196716 -1.2 1 0.000879345 0.00326843 0.00201444 0.00429624 0.00183657 0.0056474 0.00226647 0.0169889 0.0026099 0.00626051 0.00183615 0.0222243 0.00340213 0.0129989 0.00407168 0.0214981 0.00397559 0.0147933 0.00430266 0.04044
7 1 Mg 6.18956 -6.37941e-06 2.9896 1.2 1 0.00107469 0.00474506 0.00132947 0.00441635 0.0012246 0.00557319 0.00239711 0.0158781 0.00273417 0.00543334 0.00199943 0.0219874 0.00266005 0.0137072 0.00358041 0.0204375 0.00460196 0.0144378 0.004826 0.0387037
8 3 O 4.55118 1.31737 2.79288 -1.2 1 0.00120714 0.00442379 0.00205383 0.00444053 0.00173209 0.00562635 0.00236116 0.0165455 0.00252448 0.00641218 0.00243958 0.021285 0.00320147 0.0126188 0.00336457 0.0212588 0.0051215 0.0149156 0.00548646 0.0392186
9 1 Mg -1.20682 0.0413099 4.4844 1.2 1 0.000699613 0.0031541 0.00121153 0.00487979 0.00132807 0.00513959 0.00181734 0.0158165 0.00210372 0.00566475 0.00229352 0.0218308 0.00275054 0.0121232 0.00345356 0.0204137 0.00533327 0.0151294 0.00535456 0.0380595
10 2 Si -3.0337 2.72544 4.4844 2.4 1 0.000577539 0.00354025 0.00164396 0.00490785 0.00199988 0.00567368 0.00301901 0.0162366 0.00300976 0.00601253 0.0022928 0.0229288 0.00300464 0.0134128 0.00394931 0.0219379 0.00541563 0.0172042 0.00625562 0.03822
11 3 O -3.08099 1.11221 4.4844 -1.2 1 0.00078149 0.00401121 0.00178293 0.00443534 0.00115386 0.00504863 0.00212443 0.0157188 0.0027546 0.00548931 0.00232188 0.0214707 0.00301653 0.0120847 0.00338401 0.0210162 0.00523767 0.0157627 0.00551392 0.0375271
12 3 O 0.582463 3.69946 4.4844 -1.2 1 0.00124063 0.00420645 0.00217004 0.00459938 0.00233511 0.00625383 0.00338691 0.016854 0.00343148 0.00644286 0.00325702 0.0236181 0.00376041 0.0135564 0.00428252 0.0239164 0.00712998 0.0181495 0.00820472 0.0398922
13 3 O -2.29524 3.43162 3.18632 -1.2 1 0.000544755 0.00277401 0.00199264 0.00474657 0.00191844 0.00579455 0.00274835 0.0177231 0.00324302 0.00638015 0.00276942 0.0238715 0.00304043 0.0134346 0.00474218 0.0238566 0.0062806 0.0176122 0.00681917 0.0409006
14 3 O -2.34216 3.43162 5.78248 -1.2 1 0.00111173 0.00400246 0.00174206 0.00483719 0.00253016 0.00533677 0.00301024 0.0164081 0.0029236 0.00684065 0.00305007 0.0219212 0.00390432 0.0132655 0.00410185 0.0229202 0.00642954 0.0186518 0.00747899 0.038247
15 1 Mg 1.12778 2.37449 2.9896 1.2 1 0.00129429 0.0036246 0.00217965 0.00453639 0.00208046 0.00582122 0.00287232 0.0162794 0.00273102 0.00606425 0.00261405 0.0228414 0.00326802 0.0134118 0.00342178 0.0216381 0.00504791 0.0159878 0.00586206 0.0396015
16 1 Mg 3.92855 2.33318 4.4844 1.2 1 0.00156088 0.00473779 0.00162086 0.00430058 0.00162823 0.00540265 0.00344849 0.0162814 0.00348353 0.00581106 0.00322139 0.0220781 0.00361439 0.0139916 0.00510761 0.0215009 0.00638746 0.0164696 0.0072278 0.038572
17 2 Si 2.09341 4.39804 4.4844 2.4 1 0.0011383 0.00419994 0.00194836 0.00420906 0.00265524 0.00561577 0.00336827 0.0178473 0.00349071 0.00659193 0.00339295 0.0237273 0.00425932 0.0145057 0.00422438 0.0243321 0.00705116 0.0182493 0.00875508 0.0413301
18 3 O 2.09991 6.01128 4.4844 -1.2 1 0.00165409 0.00444357 0.00148653 0.00402377 0.00281151 0.00609331 0.00312836 0.0187965 0.00296044 0.00713474 0.00326503 0.0254677 0.0040201 0.0147891 0.00457986 0.0268349 0.0072036 0.0192887 0.00865056 0.0429369
19 3 O -4.52137 3.42402 4.4844 -1.2 1 0.00107323 0.00404265 0.00229014 0.00472523 0.00193456 0.00658515 0.00324655 0.0165799 0.0035115 0.00618363 0.00328419 0.0226796 0.00384504 0.0132808 0.00448929 0.022472 0.00650634 0.0173209 0.00785703 0.039447
20 3 O 2.80834 3.69187 3.18632 -1.2 1 0.00112532 0.00364061 0.00182052 0.00385093 0.00178715 0.00561642 0.00294237 0.0169903 0.00301852 0.00623698 0.00301383 0.0234204 0.00357402 0.013406 0.00474369 0.0235288 0.00595356 0.0167082 0.00686875 0.0410556
21 1 Mg 1.17857 2.37449 0 1.2 1 0.00200852 0.00368756 0.0020946 0.00431312 0.00142697 0.00546443 0.00239211 0.0170743 0.00237366 0.00664914 0.0028111 0.0229623 0.00287386 0.0133503 0.0036827 0.0215666 0.00451345 0.0148216 0.00437701 0.0402504
22 3 O 2.76143 3.69187 5.78248 -1.2 1 0.00142708 0.00490738 0.00169214 0.0040939 0.00184719 0.00518931 0.00233662 0.0173573 0.00343354 0.0071308 0.00313654 0.022164 0.00465789 0.0137057 0.00535414 0.0228528 0.00671809 0.0184252 0.00772701 0.0389911
23 1 Mg -1.67381 2.41581 1.4948 1.2 1 0.00110215 0.00291746 0.00244693 0.00483539 0.00137547 0.00590081 0.00219724 0.0165364 0.00271549 0.00624895 0.00198713 0.0238593 0.0024542 0.014557 0.0030603 0.0218412 0.00471284 0.0158676 0.00483428 0.0411473
24 2 Si 0.16286 0.350945 1.4948 2.4 1 0.00157237 0.00299301 0.00270564 0.00465145 0.00118808 0.00634257 0.0025886 0.0162038 0.00209062 0.00517713 0.00179805 0.0225733 0.00245261 0.0138386 0.00329019 0.0205911 0.00473051 0.0144691 0.00416426 0.0401349
25 3 O 0.15972 -1.26229 1.4948 -1.2 1 0.00137316 0.00310879 0.00290997 0.00446787 0.00168386 0.00606688 0.00243741 0.0162746 0.00234036 0.00532759 0.00246829 0.0224921 0.00239936 0.013901 0.00298449 0.0215697 0.00427912 0.0143629 0.00385666 0.0407076
26 3 O 6.77654 1.32496 1.4948 -1.2 1 0.00103462 0.00411911 0.00158001 0.00465233 0.0013087 0.00584648 0.0021706 0.0165625 0.00239125 0.00539041 0.00169735 0.023474 0.00284379 0.0137714 0.00342991 0.0216105 0.00454989 0.0151127 0.0043731 0.0404184
27 3 O -0.508028 1.05712 0.196716 -1.2 1 0.00135463 0.00325566 0.00328267 0.00433968 0.00123966 0.00569793 0.00246404 0.0169293 0.00182149 0.0067684 0.00250742 0.0221389 0.0024934 0.0129277 0.00330446 0.0211582 0.00427042 0.014977 0.00424898 0.0400618
28 3 O -0.552171 1.05712 2.79288 -1.2 1 0.000598544 0.00246996 0.00264101 0.00468467 0.00131696 0.00586894 0.00217992 0.0159855 0.00228662 0.00605285 0.00199856 0.0221633 0.00285152 0.012297 0.00358084 0.0211821 0.00545939 0.0152952 0.00507594 0.0388673
29 1 Mg 6.31713 4.74899 0 1.2 1 0.000733429 0.00271787 0.00164152 0.00484195 0.00228162 0.00593989 0.00330832 0.0179732 0.00285988 0.00729654 0.00216166 0.0250527 0.00280497 0.0139962 0.00417493 0.0243931 0.00479617 0.0162975 0.00606268 0.0423906
30 1 Mg 3.54847 9.45668 1.4948 1.2 1 0.00110873 0.00367217 0.00151825 0.00444913 0.00183165 0.00757021 0.0032033 0.0211631 0.00191381 0.00839274 0.00224876 0.0280347 0.00301021 0.0158693 0.00374504 0.0290365 0.00475219 0.0182562 0.0042829 0.0478298
31 2 Si 5.36879 6.77254 1.4948 2.4 1 0.000270847 0.00313517 0.00164614 0.00518954 0.00260562 0.00674644 0.00373734 0.0193956 0.00276273 0.00782773 0.00270286 0.0272804 0.00320566 0.0155971 0.00408432 0.0267571 0.00510457 0.0172509 0.00552486 0.0456315
32 3 O 5.41937 8.38578 1.4948 -1.2 1 0.000838429 0.00349789 0.00132754 0.00506089 0.00206263 0.00769872 0.00325098 0.0207078 0.00229565 0.00840961 0.00240151 0.0286588 0.00221852 0.0158687 0.00301032 0.0290138 0.00504585 0.0175601 0.00532566 0.0472307
33 3 O 1.75158 5.79852 1.4948 -1.2 1 0.000814735 0.00338654 0.00163151 0.00415447 0.00233741 0.00590368 0.00323467 0.0193058 0.00280091 0.00735827 0.00267364 0.0274448 0.0029509 0.0158656 0.00333832 0.0265656 0.00569307 0.0175499 0.005729 0.0446358
34 3 O 4.67421 6.06637 0.196716 -1.2 1 0.000622186 0.00304269 0.00152609 0.0049177 0.00188336 0.00668307 0.00271807 0.0194685 0.0025269 0.00816263 0.00218043 0.0261291 0.00331674 0.0143921 0.00390608 0.0266334 0.00493627 0.0166259 0.00574281 0.04438
35 1 Mg 6.26654 4.74899 2.9896 1.2 1 0.00108717 0.00319658 0.00198263 0.00501218 0.00233399 0.0063575 0.00365785 0.0177248 0.00379512 0.00704842 0.00238459 0.0251753 0.00367073 0.0148784 0.00502061 0.0245968 0.00620658 0.0174084 0.00739205 0.0423627
36 3 O 4.63043 6.06637 2.79288 -1.2 1 0.00135853 0.00353809 0.00174938 0.0049554 0.0020899 0.0066881 0.00352947 0.0191976 0.00337166 0.00784868 0.00259346 0.0253577 0.00408869 0.0149061 0.00463533 0.0268353 0.00640467 0.0182293 0.00746975 0.0437358
37 1 Mg -1.12976 4.79031 4.4844 1.2 1 0.00124698 0.00387915 0.00149125 0.00474417 0.00212923 0.00583616 0.00320979 0.0176958 0.00358507 0.00698092 0.00324969 0.0248149 0.00384856 0.0148927 0.00453075 0.025074 0.00788059 0.018824 0.00849071 0.0422175
38 2 Si -2.9517 7.47444 4.4844 2.4 1 0.00171584 0.0043475 0.00107537 0.00512431 0.00286242 0.00635459 0.00382905 0.0198158 0.00325859 0.00777908 0.00290281 0.0261689 0.00395863 0.0159707 0.0051242 0.0272866 0.00729316 0.0196362 0.00863648 0.0448909
39 3 O -3.00198 5.86121 4.4844 -1.2 1 0.00113013 0.00433637 0.00112051 0.00494732 0.00297748 0.0060868 0.0039469 0.0183002 0.0036082 0.00741247 0.00288197 0.0245973 0.0041377 0.0144838 0.00456699 0.0260776 0.00724359 0.0195689 0.00873904 0.0429489
40 3 O 0.666315 8.44846 4.4844 -1.2 1 0.00255351 0.00491324 0.00108241 0.0049369 0.00271442 0.00726957 0.00293561 0.0207145 0.0030887 0.00793992 0.00327656 0.0272777 0.00420696 0.0162044 0.00432447 0.0284386 0.00691365 0.0199933 0.00857137 0.0460128
41 3 O -2.21213 8.18062 3.18632 -1.2 1 0.00156434 0.00449494 0.00130727 0.00473809 0.00245257 0.00635285 0.0028975 0.020383 0.00288946 0.0079827 0.00289394 0.026928 0.00389708 0.0160383 0.0047573 0.0283666 0.00649447 0.018981 0.00729763 0.046732
42 3 O -2.25864 8.18062 5.78248 -1.2 1 0.00274201 0.00489992 0.00165214 0.00481108 0.00287382 0.0056507 0.00294389 0.0198518 0.00249173 0.00833945 0.00365528 0.0253782 0.00416481 0.0165393 0.00491814 0.0281893 0.00746876 0.0209317 0.00889419 0.045363
43 1 Mg 1.20893 7.12349 2.9896 1.2 1 0.00124136 0.00407365 0.00164322 0.00456181 0.00274916 0.0066327 0.00358675 0.0193074 0.00289199 0.00791976 0.00289625 0.0272211 0.0035081 0.0160222 0.00376887 0.0270157 0.00609277 0.0183616 0.00698508 0.0450151
44 1 Mg 4.00982 7.08218 4.4844 1.2 1 0.00162159 0.00442765 0.00129784 0.00475336 0.0025217 0.00609134 0.003749 0.0195449 0.00352503 0.00758398 0.00343471 0.0260503 0.00423542 0.0167332 0.00593317 0.0272813 0.00752353 0.0191793 0.00912075 0.0443969
45 2 Si 2.17861 9.14704 4.4844 2.4 1 0.00221624 0.00475245 0.00120276 0.00500788 0.00276101 0.00734927 0.00370042 0.0207544 0.00272112 0.00821333 0.00305171 0.0269621 0.00437879 0.0167807 0.00429241 0.0287823 0.00648976 0.0200352 0.00766576 0.0474343
46 3 O 2.18828 10.7603 4.4844 -1.2 1 0.00285771 0.00476084 0.00150881 0.00467858 0.00260612 0.00719628 0.00314058 0.0202325 0.00258897 0.00819371 0.00265715 0.0278012 0.00371787 0.0159746 0.00433533 0.0299801 0.00670462 0.0201697 0.00727192 0.0483124
47 3 O -4.43805 8.17302 4.4844 -1.2 1 0.00145669 0.00487228 0.00134944 0.00516972 0.00247048 0.00748511 0.00327972 0.020187 0.00319497 0.00816484 0.00328285 0.0270781 0.00411024 0.0161067 0.00479055 0.0284771 0.0072665 0.0197722 0.00923656 0.0455625
48 3 O 2.89193 8.44087 3.18632 -1.2 1 0.00199703 0.00409828 0.00116902 0.00453293 0.00236123 0.00685976 0.00327049 0.020232 0.0026817 0.00828441 0.00301496 0.0266846 0.00371425 0.0161934 0.00444071 0.0284101 0.00629184 0.018767 0.00663203 0.0465954
49 1 Mg 1.25915 7.12349 0 1.2 1 0.00111979 0.0030844 0.00137032 0.0042669 0.00186733 0.0070389 0.00293513 0.0200324 0.00283531 0.00830064 0.00270287 0.0272875 0.0034156 0.0145746 0.00349298 0.0272624 0.00484272 0.0174093 0.00459836 0.0453244
50 3 O 2.84547 8.44087 5.78248 -1.2 1 0.00219937 0.00526874 0.00137339 0.00449417 0.0023118 0.00632812 0.00304231 0.0204435 0.00302173 0.00875895 0.00356515 0.025209 0.00519901 0.0164209 0.00548569 0.0285202 0.00666109 0.0214169 0.00819517 0.0456238
51 1 Mg -1.59284 7.16481 1.4948 1.2 1 0.000999464 0.00357894 0.00110535 0.0047519 0.00178458 0.00615736 0.0026979 0.0197728 0.00292618 0.00776289 0.00180756 0.0272121 0.00338282 0.0157628 0.0036229 0.0269658 0.00500725 0.017763 0.00582835 0.0455981
52 2 Si 0.240329 5.09994 1.4948 2.4 1 0.000945494 0.00355227 0.00173617 0.00427341 0.00183295 0.00665253 0.00310055 0.0188326 0.00302074 0.00741501 0.0023671 0.0256724 0.00281217 0.0148856 0.00402416 0.0245719 0.00537202 0.0169054 0.00537949 0.0438191
53 3 O 0.234538 3.48671 1.4948 -1.2 1 0.00134625 0.00359141 0.00238105 0.00447064 0.00179045 0.00634038 0.00256467 0.0177391 0.00328737 0.00695938 0.00240123 0.0241663 0.00315721 0.0140513 0.00402782 0.0237324 0.00587321 0.0158876 0.00558693 0.0417008
54 3 O 6.85564 6.07396 1.4948 -1.2 1 0.000536035 0.00275399 0.00198338 0.00499784 0.0023748 0.00596902 0.00318496 0.0196852 0.00299672 0.00757362 0.00233108 0.0272027 0.0033302 0.0150199 0.00465219 0.0266734 0.00592152 0.0176812 0.00676377 0.0444425
55 3 O -0.429565 5.80612 0.196716 -1.2 1 0.000867343 0.00327459 0.00203248 0.00435086 0.0018108 0.00699558 0.00249595 0.0193679 0.00282727 0.00850663 0.00253793 0.0254151 0.00242788 0.0144071 0.00372449 0.0257091 0.00530524 0.016829 0.00573164 0.0445159
56 3 O -0.473377 5.80612 2.79288 -1.2 1 0.00131583 0.00348371 0.00139497 0.00449217 0.00213622 0.00647157 0.00315586 0.0189746 0.00323454 0.00781388 0.00321987 0.0251727 0.00367414 0.014792 0.0045066 0.0259843 0.00690621 0.0184029 0.00727143 0.0440414
57 1 Mg 6.40169 9.49799 0 1.2 1 0.000350454 0.00392895 0.00142986 0.00479954 0.00148652 0.00815554 0.0021841 0.0209253 0.00163592 0.00902395 0.00162497 0.0285995 0.00243919 0.0149917 0.00285764 0.0297995 0.00395508 0.0178164 0.00402752 0.0469849
58 1 Mg 3.64209 14.2057 1.4948 1.2 1 0.0021861 0.00365389 0.00129193 0.00456905 0.00134308 0.00890145 0.00156784 0.0215065 0.00159506 0.00862981 0.00229603 0.0279591 0.00247472 0.0162678 0.0032463 0.0295388 0.00385048 0.0167031 0.00368574 0.0492483
59 2 Si 5.45748 11.5215 1.4948 2.4 1 0.00194937 0.00371026 0.00154575 0.00459599 0.00162378 0.00822636 0.00233121 0.0209249 0.00149666 0.00824494 0.00172219 0.0284077 0.00252888 0.0162991 0.00336541 0.0292206 0.00446119 0.0169715 0.00395708 0.0487908
60 3 O 5.51101 13.1348 1.4948 -1.2 1 0.00223461 0.00361213 0.00160176 0.00457319 0.00142705 0.00916086 0.00189088 0.0208957 0.00176675 0.008657 0.00154688 0.0291057 0.0019056 0.0161496 0.00279612 0.0298811 0.00395876 0.0165357 0.00379741 0.048827
61 3 O 1.83851 10.5475 1.4948 -1.2 1 0.00130103 0.00396651 0.0013797 0.00474434 0.00177898 0.00772166 0.0024287 0.0213804 0.00177305 0.00840506 0.00214727 0.0290661 0.00234211 0.0160284 0.00327076 0.0296091 0.00448584 0.0178468 0.00404613 0.048551
62 3 O 4.7611 10.8154 0.196716 -1.2 1 0.000773056 0.00342536 0.00156953 0.00467701 0.00139728 0.00842391 0.0022726 0.0211528 0.00149431 0.008663 0.00181764 0.0279888 0.003044 0.0157103 0.00410182 0.0294654 0.00398095 0.0171375 0.00369276 0.0482149
63 1 Mg 6.35203 9.49799 2.9896 1.2 1 0.0012839 0.00435806 0.00134772 0.00506339 0.00241952 0.00774132 0.00339577 0.0201601 0.00304905 0.00855641 0.00217068 0.0283639 0.00327516 0.0163134 0.00360864 0.0287387 0.00497195 0.0185636 0.00611587 0.0472691
64 3 O 4.71833 10.8154 2.79288 -1.2 1 0.00242502 0.00408571 0.0013088 0.00443593 0.00177654 0.00828366 0.00230574 0.0209828 0.0021411 0.00877763 0.00220635 0.0275714 0.00330524 0.0160549 0.00409025 0.0297295 0.00581447 0.0183754 0.00608388 0.0486821
65 1 Mg -1.0438 9.53931 4.4844 1.2 1 0.00303481 0.00511851 0.000997292 0.00463739 0.00277709 0.00667642 0.00274801 0.0203015 0.00272151 0.00831704 0.00284001 0.0273414 0.0037058 0.0169561 0.00404994 0.0291294 0.00708994 0.0199899 0.00790048 0.0475399
66 2 Si -2.8604 12.2234 4.4844 2.4 1 0.00322535 0.00487319 0.00136058 0.00449364 0.00273954 0.00779588 0.00308454 0.0209391 0.00269292 0.00824668 0.00263552 0.0274836 0.00378123 0.0165031 0.00416987 0.0293734 0.00614689 0.0196205 0.00724993 0.0494504
67 3 O -2.91391 10.6102 4.4844 -1.2 1 0.00306028 0.00488814 0.00124124 0.00455124 0.00277981 0.00717642 0.00327662 0.0200522 0.00266083 0.00779184 0.00218124 0.0275255 0.00391859 0.0159556 0.0040947 0.0299521 0.00653703 0.0198982 0.00749421 0.0481243
68 3 O 0.7596 13.1975 4.4844 -1.2 1 0.00333659 0.00456198 0.00160003 0.00479584 0.00268028 0.00896689 0.00246464 0.0217232 0.00260462 0.00818922 0.00282217 0.0278138 0.00372122 0.0164286 0.00389304 0.0295909 0.0064421 0.0200915 0.00701807 0.0493267
69 3 O -2.12001 12.9296 3.18632 -1.2 1 0.00346431 0.00434414 0.00144416 0.00415746 0.00227129 0.00789595 0.00225801 0.0214548 0.0022798 0.00829837 0.00245509 0.0274784 0.00321623 0.0162127 0.004233 0.0301704 0.00580381 0.01859 0.00599151 0.0498705
70 3 O -2.16532 12.9296 5.78248 -1.2 1 0.00402261 0.00482104 0.00138911 0.0044575 0.00272451 0.00710223 0.00236056 0.020909 0.00239009 0.00837246 0.00287481 0.0262737 0.00360564 0.0168292 0.00448773 0.030142 0.00671618 0.0213911 0.00726784 0.0495345
71 1 Mg 1.29891 11.8725 2.9896 1.2 1 0.00254753 0.0040069 0.00147299 0.00471775 0.00227603 0.00817176 0.00273895 0.020732 0.002484 0.00847603 0.00209458 0.0284314 0.00314878 0.016371 0.00338908 0.0295464 0.0051385 0.0180671 0.00559054 0.0484127
72 1 Mg 4.10033 11.8312 4.4844 1.2 1 0.0029199 0.00456713 0.00151511 0.00435838 0.00224321 0.00749022 0.00257501 0.0209062 0.00230796 0.00853582 0.00323333 0.0276293 0.00353756 0.017204 0.00514988 0.0296573 0.00712209 0.0197221 0.00689526 0.0486252
73 2 Si 2.27333 13.896 4.4844 2.4 1 0.00353029 0.00402273 0.00161972 0.00485547 0.00298667 0.00808843 0.00308774 0.0212858 0.00220202 0.00814832 0.00289144 0.0275129 0.00362175 0.0167542 0.00436214 0.0298589 0.00590501 0.0192722 0.00663392 0.0503392
74 3 O 2.28634 15.5093 4.4844 -1.2 1 0.00397613 0.00436764 0.00164927 0.00457979 0.00302979 0.0077134 0.00271097 0.0205667 0.0023749 0.00754384 0.00229551 0.0278534 0.00311124 0.0160941 0.00419535 0.0303525 0.00611332 0.0190389 0.00690785 0.0503305
75 3 O -4.34533 12.922 4.4844 -1.2 1 0.00323977 0.00476964 0.00149396 0.00462276 0.00276508 0.00858037 0.00296323 0.021194 0.00275215 0.00846733 0.00260802 0.0279801 0.00362915 0.0163188 0.00465117 0.0299927 0.00702171 0.020039 0.00783523 0.0493166
76 3 O 2.98455 13.1899 3.18632 -1.2 1 0.00321198 0.0040627 0.00141338 0.00434308 0.00229812 0.00794075 0.00204582 0.0214064 0.00210538 0.00846949 0.0025264 0.0274475 0.00326705 0.0162414 0.00412082 0.0299116 0.00582546 0.0183925 0.00585802 0.0493534
77 1 Mg 1.34779 11.8725 0 1.2 1 0.00115601 0.00297732 0.00117863 0.00453976 0.00125868 0.00876484 0.00177152 0.0209882 0.00127572 0.00912891 0.00196454 0.0288086 0.00273025 0.0150656 0.00299491 0.0299421 0.00333034 0.017042 0.00332885 0.0479882
78 3 O 2.93934 13.1899 5.78248 -1.2 1 0.00340053 0.00487114 0.00148255 0.00451303 0.00287325 0.00729159 0.00268074 0.021042 0.00256067 0.00828429 0.00330079 0.0265203 0.00426785 0.0167496 0.00496879 0.0302693 0.00687036 0.0215558 0.00732193 0.0498437
79 1 Mg -1.50344 11.9138 1.4948 1.2 1 0.00171189 0.00412559 0.00130424 0.0045336 0.00128374 0.00827779 0.00188302 0.0214361 0.00237906 0.00847469 0.0014364 0.0283963 0.00333515 0.0162292 0.00329225 0.0295484 0.00390719 0.0174081 0.00409413 0.0484942
80 2 Si 0.326006 9.84894 1.4948 2.4 1 0.000675355 0.00369056 0.00111289 0.00486336 0.00188815 0.00810286 0.00211499 0.020844 0.00205915 0.00831885 0.00157654 0.0283691 0.00273498 0.0158597 0.00348037 0.0286493 0.00418995 0.0177481 0.003908 0.0478763
81 3 O 0.317364 8.23571 1.4948 -1.2 1 0.000810672 0.00366932 0.000899706 0.0045355 0.00182408 0.00755266 0.00215893 0.0200705 0.00267615 0.00796354 0.00184745 0.0283624 0.00341253 0.0161093 0.00374803 0.0283507 0.00487025 0.0177734 0.00471294 0.0466497
82 3 O 6.94307 10.823 1.4948 -1.2 1 0.0012924 0.00417511 0.00125901 0.00450083 0.00172795 0.00775282 0.00260965 0.0214789 0.00230865 0.00822199 0.00157555 0.0290816 0.00287571 0.0160246 0.0032594 0.0296432 0.00427682 0.0180076 0.00465124 0.0486001
83 3 O -0.343122 10.5551 0.196716 -1.2 1 0.000655856 0.00334018 0.00110063 0.00455783 0.00136387 0.00837529 0.00207775 0.021079 0.00183259 0.00886668 0.0018665 0.0280407 0.00307228 0.0156966 0.003928 0.0293344 0.00395022 0.0172894 0.00358041 0.0480106
84 3 O -0.385966 10.5551 2.79288 -1.2 1 0.00284621 0.00435568 0.000959827 0.00457177 0.00235717 0.00808641 0.002377 0.021299 0.0022088 0.00896514 0.00229177 0.0271617 0.0035592 0.016254 0.00397147 0.029425 0.00564101 0.0187764 0.00566273 0.048569
85 1 Mg 6.49448 14.247 0 1.2 1 0.00100145 0.00340959 0.00148611 0.00455316 0.00110497 0.0092481 0.00152432 0.0211027 0.00102379 0.00859932 0.00132405 0.0286409 0.00157665 0.0156965 0.00248402 0.0300679 0.00324698 0.0162046 0.00284833 0.0481974
86 1 Mg 3.74457 18.9547 1.4948 1.2 1 0.00276439 0.00350913 0.00118776 0.00407436 0.00167892 0.00860793 0.00120261 0.0218843 0.00189296 0.00793945 0.00224186 0.0271669 0.00229265 0.0165316 0.00347665 0.029033 0.00345303 0.0162235 0.00367221 0.0497155
87 2 Si 5.55495 16.2705 1.4948 2.4 1 0.00281338 0.00329316 0.00123733 0.00446724 0.00185802 0.00894813 0.00120606 0.0211593 0.00125392 0.00792251 0.00123243 0.0282383 0.00217983 0.0163582 0.00286767 0.0289838 0.00374496 0.015758 0.00369212 0.0493347
88 3 O 5.6115 17.8838 1.4948 -1.2 1 0.00312402 0.00327742 0.00118813 0.00438583 0.00170277 0.00917833 0.0012435 0.0214502 0.00188794 0.00785358 0.00160082 0.0282187 0.00188559 0.0164859 0.00289092 0.0291465 0.0034098 0.0157877 0.00390504 0.0493979
89 3 O 1.93416 15.2965 1.4948 -1.2 1 0.00247316 0.00350036 0.00133948 0.00459831 0.00165973 0.0085054 0.00168056 0.0217615 0.00172845 0.0081238 0.00156682 0.0286824 0.00168817 0.0163182 0.00289833 0.029667 0.00391964 0.0164734 0.00361219 0.0494984
90 3 O 4.85636 15.5644 0.196716 -1.2 1 0.00153667 0.0026984 0.00111099 0.00432097 0.00127424 0.0091692 0.00147711 0.0211438 0.00115465 0.00819418 0.00162719 0.0278193 0.00265428 0.0163182 0.00364464 0.0293647 0.00314528 0.0155162 0.0028921 0.0490927
91 1 Mg 6.44662 14.247 2.9896 1.2 1 0.00270446 0.00424111 0.00115946 0.00450226 0.00242314 0.00870379 0.00269664 0.0205288 0.0024687 0.0086129 0.00191339 0.0288455 0.00282252 0.0164684 0.00289641 0.0294648 0.00437439 0.0176334 0.00524655 0.0491982
92 3 O 4.81537 15.5644 2.79288 -1.2 1 0.00378926 0.00392223 0.00117836 0.00442557 0.00218315 0.00895088 0.0016438 0.021696 0.00179741 0.00856092 0.00193973 0.0273314 0.0026218 0.0164808 0.00379514 0.0295087 0.00506093 0.0174808 0.00540924 0.0498606
93 1 Mg -0.948271 14.2883 4.4844 1.2 1 0.0038615 0.00416371 0.00135675 0.00425696 0.00268441 0.00784437 0.00253286 0.0208648 0.00248929 0.00806827 0.00277249 0.0277379 0.00335211 0.0171922 0.0046404 0.0301473 0.00617736 0.0190048 0.00703515 0.0501103
94 2 Si -2.75928 16.9724 4.4844 2.4 1 0.00420614 0.0037459 0.00137188 0.00469219 0.00290594 0.00832225 0.00262311 0.0215081 0.00245433 0.00788525 0.00244984 0.02699 0.00302166 0.0170766 0.00410244 0.0295112 0.00552101 0.0188299 0.00678278 0.0511101
95 3 O -2.81617 15.3592 4.4844 -1.2 1 0.00422571 0.00421702 0.00140722 0.00440646 0.00293923 0.00787937 0.00258151 0.0205905 0.00249375 0.00768593 0.00256124 0.0277233 0.00340555 0.0161077 0.00404281 0.0301014 0.00642103 0.0189426 0.00718734 0.0502361
96 3 O 0.862762 17.9465 4.4844 -1.2 1 0.00410832 0.00397549 0.00157857 0.00467704 0.00288333 0.00870874 0.00233487 0.021947 0.0022725 0.00773711 0.00248238 0.0276723 0.00313281 0.0169036 0.00438534 0.0294423 0.00587216 0.0188839 0.00646829 0.0510339
97 3 O -2.0185 17.6786 3.18632 -1.2 1 0.0040276 0.00332284 0.00141118 0.00431725 0.00243732 0.00796987 0.00192064 0.0218695 0.00217234 0.00782156 0.00225259 0.0268738 0.00303428 0.0166664 0.00439984 0.0298395 0.00510188 0.0177005 0.0058901 0.0505389
98 3 O -2.06164 17.6786 5.78248 -1.2 1 0.00424796 0.00374752 0.00124333 0.00429598 0.00294384 0.00717861 0.00217326 0.0214615 0.00208141 0.00788198 0.00259898 0.0264955 0.0028209 0.0172277 0.00447673 0.0303628 0.00592619 0.0206489 0.00645311 0.0519814
99 1 Mg 1.39817 16.6215 2.9896 1.2 1 0.00362885 0.00349959 0.00161986 0.00466911 0.0024472 0.00858707 0.00245139 0.0209877 0.00230182 0.00804938 0.00208556 0.0283281 0.00227101 0.0167951 0.00328829 0.0294602 0.00439914 0.0167468 0.00490715 0.0497039
100 1 Mg 4.20062 16.5802 4.4844 1.2 1 0.00419883 0.00386931 0.00154969 0.00456394 0.00261565 0.0079853 0.00229999 0.0212476 0.00269272 0.00784757 0.00309635 0.0273732 0.00311776 0.0175479 0.00510772 0.0299216 0.00660817 0.0189671 0.00668638 0.0509673
101 2 Si 2.37796 18.645 4.4844 2.4 1 0.00423181 0.00357125 0.0014601 0.00464636 0.00277635 0.0082955 0.00266803 0.0217292 0.00229722 0.00780535 0.00267851 0.0270105 0.00305573 0.0171845 0.00458615 0.0292269 0.00517116 0.0183522 0.00604436 0.05196
102 3 O 2.39434 20.2583 4.4844 -1.2 1 0.00419084 0.00364983 0.00129877 0.00446947 0.00292037 0.00714667 0.00230029 0.0210026 0.0025921 0.00725065 0.00183803 0.027353 0.00267457 0.0168855 0.00398508 0.0298078 0.00583221 0.0181453 0.00661465 0.0515453
103 3 O -4.24274 17.671 4.4844 -1.2 1 0.00428944 0.00416506 0.00139152 0.0047834 0.00274522 0.00890337 0.00244262 0.0218407 0.0026105 0.00779893 0.00246494 0.0276058 0.00295467 0.0168854 0.00455599 0.0297158 0.00628476 0.0192365 0.00723487 0.0509521
104 3 O 3.08659 17.9389 3.18632 -1.2 1 0.00435381 0.00360507 0.00161443 0.00420702 0.00251001 0.00818781 0.0016432 0.0219154 0.00200436 0.00778104 0.00237968 0.0269476 0.00283155 0.0165524 0.00451192 0.029671 0.00549698 0.0176449 0.00574855 0.0507687
105 1 Mg 1.44478 16.6215 0 1.2 1 0.00199742 0.00301908 0.00101688 0.00427278 0.00126204 0.00892471 0.000846138 0.0213903 0.00131463 0.00822958 0.00160464 0.0283671 0.00218987 0.0158037 0.00229608 0.0294207 0.00281496 0.0158309 0.00298203 0.0487199
106 3 O 3.0436 17.9389 5.78248 -1.2 1 0.00364394 0.00417052 0.00149164 0.00461924 0.0027594 0.00753047 0.00222793 0.0214755 0.00196921 0.00776073 0.0025733 0.0262787 0.00322458 0.0167627 0.00423585 0.030233 0.00605785 0.0208931 0.0066949 0.0516025
107 1 Mg -1.40524 16.6628 1.4948 1.2 1 0.0024668 0.00349328 0.00114085 0.0045144 0.00167024 0.00873166 0.00175653 0.0220108 0.0018268 0.00817537 0.00157689 0.0279114 0.00276672 0.0167246 0.00272701 0.029398 0.0033063 0.0165258 0.00346616 0.0494242
108 2 Si 0.420358 14.5979 1.4948 2.4 1 0.00215174 0.00330177 0.00140075 0.00474485 0.00183353 0.00915633 0.00177512 0.021239 0.00145768 0.00827003 0.0014852 0.0282043 0.00251145 0.0165113 0.00318467 0.0287112 0.00378561 0.0162769 0.00348202 0.0489454
109 3 O 0.408732 12.9847 1.4948 -1.2 1 0.00201998 0.00356182 0.00112695 0.00467517 0.00167858 0.00910638 0.00150659 0.0208918 0.00202199 0.00835162 0.00148945 0.028792 0.0027324 0.0160559 0.00298814 0.0297172 0.00371538 0.0168225 0.00388054 0.0486849
110 3 O 7.03923 15.572 1.4948 -1.2 1 0.00235053 0.00360797 0.000985325 0.00449169 0.00194925 0.00836959 0.00204828 0.0215196 0.00191012 0.00806581 0.00163081 0.0288006 0.00245928 0.0163223 0.00306248 0.0297241 0.00373001 0.0167105 0.00405901 0.0493637
111 3 O -0.248332 15.3041 0.196716 -1.2 1 0.00165582 0.00298394 0.00118723 0.00447404 0.000995111 0.00913691 0.00204209 0.0212189 0.00132684 0.0083822 0.00167661 0.0278379 0.0026823 0.0158476 0.00354986 0.0292497 0.00318581 0.015843 0.00319893 0.0486332
112 3 O -0.289436 15.3041 2.79288 -1.2 1 0.00381196 0.00363435 0.00122671 0.00443025 0.00232628 0.00879689 0.00195275 0.0216373 0.00193494 0.00853272 0.00205385 0.0272109 0.00250995 0.0166607 0.00358489 0.029779 0.00497908 0.0175615 0.00518395 0.0497439
113 1 Mg 6.59566 18.996 0 1.2 1 0.00144453 0.00314415 0.00131145 0.00424866 0.00107025 0.00868902 0.00116781 0.0217572 0.00116092 0.00779047 0.00129061 0.0278238 0.00188937 0.016379 0.0020704 0.028611 0.00257137 0.0157588 0.00260624 0.0487169
114 1 Mg 3.85574 23.7037 1.4948 1.2 1 0.00275862 0.0028603 0.000915287 0.00435198 0.00137908 0.00756908 0.00103159 0.0229418 0.00177658 0.00736171 0.00199411 0.0268684 0.00235302 0.0175238 0.00375797 0.0285502 0.00339901 0.01711 0.00361187 0.0506572
115 2 Si 5.66125 21.0195 1.4948 2.4 1 0.00284911 0.00285757 0.000798479 0.0042038 0.00182309 0.00821089 0.00127865 0.0216932 0.00119347 0.00755327 0.00143662 0.0275466 0.00227716 0.017435 0.00273064 0.028091 0.0036538 0.0158153 0.00417806 0.0503321
116 3 O 5.72074 22.6328 1.4948 -1.2 1 0.00312206 0.00289696 0.00117228 0.00422073 0.00148425 0.00832569 0.00147475 0.021997 0.00181891 0.00730191 0.00115217 0.027586 0.00213115 0.0173304 0.00294187 0.0285481 0.00339582 0.0161881 0.00400028 0.050213
117 3 O 2.03867 20.0455 1.4948 -1.2 1 0.002774 0.00341799 0.00121856 0.00436331 0.00160679 0.00784878 0.00167414 0.0221323 0.00202332 0.00748511 0.00158653 0.0278793 0.00194451 0.0172514 0.00267872 0.0290345 0.00358263 0.0160914 0.0038615 0.0501453
118 3 O 4.96004 20.3134 0.196716 -1.2 1 0.00193629 0.00280887 0.00114653 0.00420812 0.00100897 0.00840462 0.00117152 0.0215218 0.00113473 0.00745727 0.00150834 0.0272658 0.0026619 0.0166629 0.00368995 0.0287092 0.0029056 0.0151795 0.00294428 0.0495119
119 1 Mg 6.55057 18.996 2.9896 1.2 1 0.00334867 0.00356058 0.00097225 0.00452625 0.00253572 0.00838212 0.00235813 0.0210626 0.00212126 0.00791313 0.00191552 0.0282797 0.00252731 0.0169864 0.0031351 0.0289626 0.00416572 0.0170411 0.00527832 0.0501922