ITEM: TIMESTEP
39900
ITEM: NUMBER OF ATOMS
10500
ITEM: BOX BOUNDS xy xz yz pp pp pp
0	15.2977	5.09925
0	118.725	0
0	89.688	0
ITEM: ATOMS id type element xu yu zu q Q_1 Q_2 Q_3 Q_4 Q_5 Q_6 Q_7 Q_8 Q_9 Q_10 Q_11 Q_12 Q_13 Q_14 Q_15 Q_16 Q_17 Q_18 Q_19 Q_20 Q_21
1 1 Mg 6.2404 -6.37941e-06 0 1.2 1 0.00139376 0.00399984 0.00128296 0.00471004 0.00139738 0.0053404 0.00228403 0.0159991 0.00216917 0.0056518 0.00240048 0.0218961 0.00263521 0.0135464 0.00369686 0.0205779 0.0041093 0.0142166 0.00423389 0.0403345
2 1 Mg 3.46349 4.70768 1.4948 1.2 1 0.00127171 0.00325356 0.00157637 0.00425398 0.00205495 0.00611429 0.00346858 0.0184832 0.0028357 0.00674436 0.0028275 0.0255773 0.00309372 0.0138614 0.00424742 0.0250477 0.00524174 0.0168367 0.00583851 0.0439055
3 2 Si 5.2885 2.02354 1.4948 2.4 1 0.000490479 0.0030516 0.00195663 0.00442815 0.00183405 0.00564844 0.0026235 0.0166769 0.00250397 0.00595785 0.00187232 0.0231184 0.0028133 0.0134143 0.00351137 0.0214474 0.00390713 0.0150932 0.00453394 0.0410956
4 3 O 5.33628 3.63678 1.4948 -1.2 1 0.000796454 0.00257573 0.00166636 0.00463354 0.00214603 0.00627312 0.00294466 0.0175624 0.00224018 0.00652814 0.00183284 0.0250947 0.00252618 0.0136923 0.00413339 0.0239067 0.00502575 0.0161923 0.00605261 0.0428848
5 3 O 1.67294 1.04952 1.4948 -1.2 1 0.00167504 0.0034582 0.00213496 0.00411379 0.00154373 0.00555979 0.00261111 0.0166455 0.0025964 0.00586665 0.0020698 0.0228293 0.00261876 0.0127863 0.00338414 0.0219669 0.00448749 0.0155169 0.00495169 0.0404038
6 3 O 4.59532 1.31737 0.196716 -1.2 1 0.00128111 0.00289635 0.00212384 0.00432222 0.00203408 0.00559399 0.00251522 0.0169111 0.00277593 0.00609316 0.00191342 0.0224383 0.00309018 0.0128571 0.00409794 0.021574 0.00410794 0.014638 0.00482898 0.0409676
7 1 Mg 6.18956 -6.37941e-06 2.9896 1.2 1 0.000722112 0.00410163 0.00161668 0.0044076 0.00144171 0.00566598 0.00267407 0.0157817 0.00286211 0.00523293 0.00193294 0.0225216 0.00279411 0.0131232 0.00358599 0.0206592 0.00441358 0.0147182 0.00501887 0.0389935
8 3 O 4.55118 1.31737 2.79288 -1.2 1 0.000744045 0.00398488 0.00168109 0.00444655 0.00185876 0.00565734 0.00253829 0.016171 0.00252749 0.00638783 0.00228302 0.0215731 0.00336695 0.0119632 0.00322097 0.021253 0.00461285 0.0153295 0.00553429 0.039329
9 1 Mg -1.20682 0.0413099 4.4844 1.2 1 0.00102924 0.00269321 0.00186234 0.00499965 0.0013883 0.00546094 0.00215737 0.0155927 0.00244379 0.00549647 0.00209986 0.0226247 0.00300631 0.0110136 0.00364384 0.0209687 0.0049291 0.0155937 0.0054132 0.0380213
10 2 Si -3.0337 2.72544 4.4844 2.4 1 0.000945287 0.00318269 0.00176643 0.00493117 0.00213603 0.006013 0.00338696 0.0158802 0.00316815 0.00564406 0.0022888 0.0239733 0.00317171 0.0124684 0.00382052 0.0221426 0.00520167 0.0174204 0.00629153 0.0387386
11 3 O -3.08099 1.11221 4.4844 -1.2 1 0.00114202 0.0034046 0.00186592 0.00450939 0.00124316 0.00538008 0.00252209 0.01524 0.00301803 0.00495442 0.00223536 0.0221695 0.00324314 0.0108396 0.00369621 0.0212571 0.00487134 0.0160878 0.00577657 0.0375752
12 3 O 0.582463 3.69946 4.4844 -1.2 1 0.00166402 0.00444708 0.00186589 0.00470312 0.00249884 0.00666998 0.00346422 0.0166582 0.00338128 0.00601974 0.00321646 0.0244718 0.00387219 0.0124854 0.00420248 0.0239448 0.00689835 0.0187424 0.00841279 0.0406522
13 3 O -2.29524 3.43162 3.18632 -1.2 1 0.000915317 0.00290738 0.00226844 0.00469958 0.00215923 0.00601961 0.00306633 0.0173357 0.00312801 0.00622092 0.00265463 0.0243045 0.00311759 0.0127514 0.00462951 0.0239435 0.0060118 0.017638 0.00665077 0.0415342
14 3 O -2.34216 3.43162 5.78248 -1.2 1 0.00191702 0.00340733 0.00108115 0.0050994 0.00259416 0.00615433 0.00319093 0.0159397 0.00289081 0.00641934 0.00284463 0.0234816 0.00397658 0.0120095 0.00423094 0.0228211 0.00634443 0.0189981 0.00750845 0.0388596
15 1 Mg 1.12778 2.37449 2.9896 1.2 1 0.00104181 0.00370026 0.00233902 0.00459398 0.00226676 0.00589459 0.00304286 0.0163948 0.00262111 0.00573751 0.00233869 0.0235364 0.00315795 0.0127691 0.00342583 0.0218606 0.00470608 0.0164076 0.00563719 0.0405326
16 1 Mg 3.92855 2.33318 4.4844 1.2 1 0.000769337 0.00407392 0.00141467 0.0046106 0.00170752 0.00575823 0.00359503 0.0161481 0.00290141 0.00537063 0.00295276 0.0229397 0.00356353 0.0128388 0.00510279 0.021835 0.00633351 0.016908 0.0071813 0.0392439
17 2 Si 2.09341 4.39804 4.4844 2.4 1 0.00153133 0.00410992 0.00189149 0.0044736 0.00309524 0.00593696 0.00370694 0.0177461 0.00322285 0.00611962 0.00323046 0.0246134 0.00423859 0.0137969 0.00429532 0.0241897 0.00673855 0.018443 0.00837787 0.0424984
18 3 O 2.09991 6.01128 4.4844 -1.2 1 0.00248296 0.00412794 0.00158285 0.00439694 0.00300188 0.00647845 0.00307235 0.0186724 0.00256584 0.00661829 0.00297867 0.0263811 0.0037255 0.0141492 0.00468357 0.0267639 0.00684868 0.0193496 0.00777879 0.044397
19 3 O -4.52137 3.42402 4.4844 -1.2 1 0.000908963 0.00352312 0.00196536 0.00484589 0.00234114 0.00695805 0.00353459 0.0161447 0.00315321 0.00568242 0.0029163 0.0234151 0.00373694 0.0123066 0.0040638 0.0224777 0.00619208 0.0177207 0.00728368 0.0400184
20 3 O 2.80834 3.69187 3.18632 -1.2 1 0.00123658 0.00372523 0.00172462 0.00402907 0.00213665 0.00587761 0.00304679 0.0169499 0.00285651 0.00593687 0.00269368 0.0240892 0.00350369 0.0128999 0.00467105 0.0235827 0.00560522 0.0171113 0.00645125 0.0422406
21 1 Mg 1.17857 2.37449 0 1.2 1 0.0020701 0.00369611 0.00196066 0.00401877 0.00145837 0.00552075 0.0024613 0.0171075 0.00243015 0.00647498 0.00243676 0.0231646 0.00292702 0.0132272 0.00336388 0.0218037 0.00429108 0.0147452 0.00504639 0.0411468
22 3 O 2.76143 3.69187 5.78248 -1.2 1 0.00185897 0.00416666 0.00153976 0.00466649 0.00198773 0.0055857 0.0028773 0.0167616 0.00322266 0.00624051 0.00275175 0.0228841 0.00435129 0.0123251 0.00514442 0.0228847 0.00658327 0.0186791 0.00735605 0.0393068
23 1 Mg -1.67381 2.41581 1.4948 1.2 1 0.00109251 0.00252926 0.00259149 0.00480641 0.00152572 0.00598763 0.00250282 0.0164517 0.00284382 0.0061539 0.00198433 0.0241727 0.00248799 0.0141017 0.0028363 0.0222132 0.00445085 0.0158897 0.00502893 0.0417499
24 2 Si 0.16286 0.350945 1.4948 2.4 1 0.00175799 0.00274329 0.00289884 0.00444279 0.00156814 0.00618981 0.00302076 0.0161889 0.00240428 0.00515349 0.00192475 0.0230944 0.00248303 0.0134429 0.00307911 0.0209041 0.004531 0.0147356 0.00437527 0.0406013
25 3 O 0.15972 -1.26229 1.4948 -1.2 1 0.00202464 0.00278995 0.0032505 0.0045659 0.00204394 0.00586327 0.00260254 0.016142 0.00236183 0.00533201 0.0024465 0.0227993 0.00271695 0.0136528 0.00305408 0.0216961 0.00405161 0.0146558 0.00403488 0.0406655
26 3 O 6.77654 1.32496 1.4948 -1.2 1 0.00112133 0.00351408 0.00162146 0.00458054 0.00141335 0.00590889 0.0024252 0.0164968 0.00251444 0.00533327 0.00176669 0.0237245 0.00280435 0.0134732 0.0034936 0.0218481 0.00465264 0.0151196 0.00466296 0.0407924
27 3 O -0.508028 1.05712 0.196716 -1.2 1 0.0017831 0.00278499 0.00350399 0.00427147 0.00153232 0.00555798 0.00262636 0.0168935 0.00186955 0.00655886 0.00243119 0.0222001 0.00275521 0.0127287 0.00329113 0.0213974 0.00436433 0.0150789 0.00469993 0.0404659
28 3 O -0.552171 1.05712 2.79288 -1.2 1 0.000687932 0.00243463 0.00298443 0.00455591 0.00146649 0.00600782 0.00245193 0.0156934 0.00260207 0.00597753 0.00164844 0.0227064 0.00286645 0.0112522 0.00357211 0.021602 0.00494254 0.015608 0.00494416 0.0391802
29 1 Mg 6.31713 4.74899 0 1.2 1 0.00101934 0.00269803 0.00184644 0.004385 0.00235902 0.00607099 0.00330843 0.0178259 0.00284223 0.00690814 0.00205261 0.0252368 0.00287536 0.0139472 0.00402587 0.0247951 0.00477507 0.0160502 0.0061061 0.043246
30 1 Mg 3.54847 9.45668 1.4948 1.2 1 0.000764344 0.0032448 0.00197203 0.00454889 0.00208287 0.00781638 0.00310525 0.0213002 0.00179201 0.00826929 0.00222452 0.0284525 0.00321522 0.0156871 0.00390268 0.029053 0.00414341 0.0180786 0.00374449 0.0490882
31 2 Si 5.36879 6.77254 1.4948 2.4 1 0.000582218 0.00293467 0.00185367 0.00483738 0.00279537 0.00692905 0.00373522 0.0194438 0.0026855 0.00755753 0.00251299 0.0275665 0.00312445 0.0154226 0.00408848 0.0267454 0.00470338 0.0170548 0.00535369 0.0467259
32 3 O 5.41937 8.38578 1.4948 -1.2 1 0.000665719 0.0030725 0.00161931 0.0047821 0.00224296 0.00783488 0.00322555 0.0208098 0.00221167 0.00819847 0.00233771 0.0289085 0.00234421 0.0156999 0.00301763 0.0289597 0.00454809 0.0173072 0.00481545 0.0482719
33 3 O 1.75158 5.79852 1.4948 -1.2 1 0.00128352 0.00340158 0.00159776 0.00398647 0.00256563 0.00611368 0.00324519 0.0193702 0.00271394 0.00714513 0.00267845 0.0277354 0.00289332 0.0154829 0.00347738 0.0266417 0.00535204 0.0173565 0.00566158 0.0458265
34 3 O 4.67421 6.06637 0.196716 -1.2 1 0.000768839 0.00293041 0.0016993 0.00450977 0.00201248 0.00685655 0.00293892 0.01971 0.00257895 0.00794278 0.00212351 0.02616 0.00343035 0.0145325 0.00405724 0.0266063 0.00476119 0.0164387 0.00560877 0.0455315
35 1 Mg 6.26654 4.74899 2.9896 1.2 1 0.00150586 0.00292176 0.00189815 0.00494074 0.00261775 0.00668205 0.00372851 0.0176504 0.00362899 0.00683358 0.00218961 0.0255992 0.00351411 0.0142644 0.00500526 0.0245795 0.00589145 0.0173639 0.00705092 0.0432091
36 3 O 4.63043 6.06637 2.79288 -1.2 1 0.00205656 0.00300699 0.00174266 0.00483297 0.00244586 0.00701951 0.00337705 0.0190886 0.00322594 0.00768027 0.00234929 0.0261457 0.00378731 0.0146006 0.00459073 0.0268664 0.005918 0.0179946 0.00704455 0.0451982
37 1 Mg -1.12976 4.79031 4.4844 1.2 1 0.00186512 0.00381076 0.00148803 0.0049589 0.00237586 0.00609238 0.00320353 0.0171459 0.00352093 0.00652009 0.00308573 0.0251749 0.00397386 0.0138267 0.00434986 0.0247259 0.00747246 0.0189211 0.00764812 0.0426626
38 2 Si -2.9517 7.47444 4.4844 2.4 1 0.00279768 0.00402943 0.00110972 0.00516699 0.00294645 0.00670834 0.00380067 0.0199166 0.00322168 0.00753557 0.00287501 0.0269664 0.00418844 0.0154571 0.00532568 0.0273445 0.00723856 0.0190291 0.008168 0.0465822
39 3 O -3.00198 5.86121 4.4844 -1.2 1 0.0024833 0.00401491 0.00109886 0.00510272 0.00322004 0.00642118 0.00422932 0.018086 0.0035196 0.00714935 0.00265086 0.0258291 0.00427001 0.0138938 0.00467169 0.0261629 0.00707968 0.019127 0.0083989 0.0446135
40 3 O 0.666315 8.44846 4.4844 -1.2 1 0.00286521 0.00463033 0.00133744 0.00500201 0.00296439 0.00758595 0.00308787 0.0210246 0.00286473 0.00759981 0.00323781 0.0280944 0.00430332 0.0157049 0.00430366 0.0286024 0.00644352 0.0198083 0.00763564 0.0477635
41 3 O -2.21213 8.18062 3.18632 -1.2 1 0.00232632 0.00411686 0.0014033 0.00450902 0.00264667 0.0066923 0.0028898 0.0206352 0.0027146 0.00783933 0.00265083 0.0274544 0.00397942 0.0155625 0.00487743 0.0284815 0.00609201 0.0186208 0.00650048 0.0483393
42 3 O -2.25864 8.18062 5.78248 -1.2 1 0.00333981 0.0045043 0.00167012 0.00502316 0.00310616 0.00625071 0.00310246 0.0202329 0.00251644 0.00807092 0.00345299 0.026575 0.00422512 0.0160306 0.00489105 0.0282851 0.00729005 0.0204797 0.00827294 0.0473551
43 1 Mg 1.20893 7.12349 2.9896 1.2 1 0.00173883 0.00381991 0.00168832 0.00432072 0.00293963 0.00689392 0.00375015 0.0193668 0.00278129 0.00778714 0.00276306 0.027901 0.00336329 0.015675 0.00391331 0.0271182 0.00572462 0.0181052 0.00623627 0.0464715
44 1 Mg 4.00982 7.08218 4.4844 1.2 1 0.00276442 0.00357579 0.00164167 0.0048662 0.00272877 0.00681147 0.00373609 0.0197299 0.00331212 0.00732305 0.00312964 0.0271601 0.00411832 0.0161228 0.00569032 0.0274177 0.00743242 0.0190523 0.00824545 0.0462912
45 2 Si 2.17861 9.14704 4.4844 2.4 1 0.00270514 0.00398524 0.0017302 0.00494114 0.00300405 0.00772224 0.0036551 0.0211672 0.00263134 0.00785068 0.00300164 0.0281528 0.00437589 0.0164536 0.00440948 0.0289382 0.00601616 0.0195423 0.00687266 0.0496405
46 3 O 2.18828 10.7603 4.4844 -1.2 1 0.00325567 0.00425062 0.00178294 0.00472423 0.0027248 0.00753145 0.002979 0.0210369 0.00230864 0.00778398 0.00204883 0.0287576 0.00395263 0.0156186 0.00430977 0.0302111 0.00620245 0.0197989 0.00673785 0.0503066
47 3 O -4.43805 8.17302 4.4844 -1.2 1 0.00255921 0.00422138 0.00166141 0.00516695 0.00267105 0.00788726 0.00332313 0.0204278 0.00323782 0.00788253 0.00306109 0.0280607 0.00438663 0.0156183 0.00475561 0.0286122 0.00693019 0.0191747 0.00895468 0.047345
48 3 O 2.89193 8.44087 3.18632 -1.2 1 0.00224471 0.00336575 0.00167495 0.00441938 0.00267116 0.00723514 0.00324611 0.0205627 0.00272353 0.00817321 0.00267465 0.0275657 0.00368346 0.0158201 0.00451402 0.0284187 0.00593337 0.0186463 0.00586677 0.0482963
49 1 Mg 1.25915 7.12349 0 1.2 1 0.00137301 0.00290104 0.00151486 0.00387164 0.00178692 0.00726222 0.00293306 0.0201481 0.00287576 0.00821881 0.00242807 0.0274254 0.00326548 0.014694 0.00362555 0.027456 0.00448017 0.0172131 0.0043798 0.0466648
50 3 O 2.84547 8.44087 5.78248 -1.2 1 0.0034752 0.00458728 0.0015963 0.00490739 0.00270711 0.00681091 0.00329236 0.0202804 0.0027358 0.00825104 0.00351195 0.0267286 0.00491152 0.0159987 0.00496258 0.0288135 0.0062768 0.0210298 0.00772937 0.0478621
51 1 Mg -1.59284 7.16481 1.4948 1.2 1 0.000925571 0.00326736 0.00121522 0.00441259 0.00184938 0.00648848 0.00271646 0.0197603 0.00287668 0.00767809 0.00178998 0.0276176 0.00318945 0.0156849 0.00383336 0.0270101 0.00482815 0.0172879 0.00566745 0.0469328
52 2 Si 0.240329 5.09994 1.4948 2.4 1 0.000980533 0.0035603 0.00186844 0.00404918 0.00202174 0.0068094 0.00305988 0.0187433 0.00299059 0.00717292 0.00229271 0.025964 0.00278099 0.0146064 0.00416681 0.024711 0.00512303 0.0167375 0.00541525 0.0449966
53 3 O 0.234538 3.48671 1.4948 -1.2 1 0.00117147 0.0037697 0.00258247 0.00434006 0.00194652 0.00637168 0.00270001 0.0176066 0.00336543 0.00670131 0.00243163 0.0244034 0.00326595 0.013482 0.00395539 0.0240802 0.00538471 0.015925 0.00546639 0.0424225
54 3 O 6.85564 6.07396 1.4948 -1.2 1 0.00121996 0.00259248 0.00201135 0.00458057 0.00253938 0.00614988 0.00309969 0.0197844 0.00300107 0.00739487 0.00218166 0.0275317 0.00316583 0.0147896 0.00460762 0.0267779 0.00563906 0.0174486 0.00647814 0.0456011
55 3 O -0.429565 5.80612 0.196716 -1.2 1 0.000858525 0.00319218 0.00210798 0.00389787 0.00184261 0.00710759 0.00257204 0.0193192 0.00289665 0.00837753 0.00248635 0.0256598 0.00252737 0.0142992 0.00401537 0.0259382 0.00496657 0.0166397 0.00585512 0.0457007
56 3 O -0.473377 5.80612 2.79288 -1.2 1 0.00180004 0.00357745 0.00157495 0.00449762 0.0024055 0.00687383 0.00317246 0.0189172 0.00311794 0.00750868 0.00298814 0.0256587 0.00369835 0.0142679 0.00443822 0.0261009 0.00642657 0.018285 0.00673371 0.0454558
57 1 Mg 6.40169 9.49799 0 1.2 1 0.000956875 0.00363966 0.00146739 0.00448538 0.00154784 0.00842682 0.00197611 0.0210646 0.00170716 0.00878217 0.00156531 0.0287549 0.00252496 0.0148835 0.00275319 0.0297849 0.00360628 0.0177109 0.00373232 0.0480806
58 1 Mg 3.64209 14.2057 1.4948 1.2 1 0.00121072 0.00321158 0.00158395 0.00465934 0.00163986 0.00884288 0.00170451 0.0216837 0.00164439 0.00852266 0.00207971 0.0282132 0.002645 0.0161428 0.00282979 0.0295034 0.00321558 0.0171063 0.00315245 0.0495049
59 2 Si 5.45748 11.5215 1.4948 2.4 1 0.000857664 0.00325274 0.00184277 0.00464504 0.00186755 0.00840302 0.00223646 0.0211625 0.00152962 0.00814929 0.00156916 0.0288006 0.00266877 0.0163435 0.00353184 0.0291081 0.00388946 0.0169123 0.00360382 0.0495813
60 3 O 5.51101 13.1348 1.4948 -1.2 1 0.00116836 0.00337923 0.00174309 0.00478656 0.00163059 0.00921286 0.00185363 0.0212194 0.00176373 0.00844116 0.00151859 0.0293353 0.0022646 0.0161984 0.00283074 0.0298052 0.0035455 0.0168161 0.00329727 0.0492583
61 3 O 1.83851 10.5475 1.4948 -1.2 1 0.000412748 0.00340045 0.00194185 0.00477905 0.0019588 0.00786546 0.00238936 0.0215978 0.00178516 0.00825302 0.0021314 0.0293569 0.00270929 0.015932 0.00337814 0.0298387 0.00400587 0.0177273 0.00332253 0.0495647
62 3 O 4.7611 10.8154 0.196716 -1.2 1 0.00089653 0.0029339 0.00174075 0.00459211 0.00155488 0.00863426 0.00226469 0.0211876 0.00153395 0.00848837 0.00179958 0.0282106 0.0027175 0.0155661 0.00351631 0.0295524 0.00351093 0.0171468 0.00333903 0.048949
63 1 Mg 6.35203 9.49799 2.9896 1.2 1 0.00157644 0.00369083 0.00164669 0.00478243 0.0025496 0.00781545 0.00329116 0.0202714 0.00308037 0.00847137 0.00209446 0.0290907 0.00363885 0.0160899 0.00339895 0.028914 0.00435607 0.0183436 0.00534936 0.0487186
64 3 O 4.71833 10.8154 2.79288 -1.2 1 0.00198437 0.00356794 0.00173748 0.00460876 0.00218577 0.00846787 0.00225293 0.0213555 0.00196826 0.00864139 0.00193953 0.0283113 0.00339526 0.0159407 0.00385326 0.0298246 0.00507379 0.0183605 0.00527627 0.0500254
65 1 Mg -1.0438 9.53931 4.4844 1.2 1 0.00290299 0.00472456 0.00141253 0.00459233 0.00303507 0.00691458 0.0026185 0.0209106 0.00281366 0.00797448 0.00270201 0.0280369 0.00365878 0.0162609 0.00439355 0.0293389 0.00648238 0.0196303 0.00718776 0.0492706
66 2 Si -2.8604 12.2234 4.4844 2.4 1 0.00282693 0.00444607 0.00172702 0.00464589 0.00270953 0.00795069 0.00314171 0.021714 0.00273835 0.00820353 0.00229338 0.0281956 0.00405722 0.0164773 0.0039509 0.0297796 0.00581386 0.0193441 0.00664338 0.0509874
67 3 O -2.91391 10.6102 4.4844 -1.2 1 0.00289694 0.00456998 0.00176926 0.00454967 0.00291165 0.00737428 0.0033219 0.0206971 0.00289168 0.00757035 0.00203525 0.0284208 0.00404839 0.0156488 0.00393907 0.0301581 0.00601044 0.0195172 0.00694647 0.050071
68 3 O 0.7596 13.1975 4.4844 -1.2 1 0.00309361 0.00442408 0.00171356 0.00519282 0.00264358 0.0089068 0.00249801 0.0221853 0.00259901 0.0079943 0.00253588 0.0286524 0.00396455 0.0162516 0.00395192 0.0299687 0.00632836 0.019511 0.00683096 0.0507053
69 3 O -2.12001 12.9296 3.18632 -1.2 1 0.00258855 0.00421837 0.00176924 0.00446837 0.00242016 0.0079891 0.00214891 0.021826 0.00239815 0.0082681 0.00237994 0.0279082 0.00359305 0.0160805 0.00453554 0.030414 0.00512071 0.0186258 0.00531754 0.0507512
70 3 O -2.16532 12.9296 5.78248 -1.2 1 0.00366336 0.00465288 0.00160822 0.00493402 0.0028505 0.00721479 0.00234007 0.0219752 0.00267718 0.00806635 0.00271367 0.0277276 0.00390694 0.0168065 0.00454153 0.0307521 0.00645179 0.0209903 0.00719716 0.0516457
71 1 Mg 1.29891 11.8725 2.9896 1.2 1 0.00176824 0.00361922 0.00190057 0.00496959 0.00249306 0.00816915 0.00280169 0.0211078 0.00243205 0.00830698 0.00202489 0.0291959 0.00338331 0.0162538 0.00337786 0.0299419 0.00456473 0.017779 0.00490362 0.0497172
72 1 Mg 4.10033 11.8312 4.4844 1.2 1 0.00287146 0.00399023 0.00208308 0.00469423 0.00253489 0.00770349 0.00264277 0.0213506 0.00250378 0.00796206 0.00264068 0.0288402 0.00362982 0.0171872 0.00494064 0.0300111 0.00674927 0.019346 0.00635476 0.0506034
73 2 Si 2.27333 13.896 4.4844 2.4 1 0.00298768 0.00390156 0.00168039 0.00544514 0.00298274 0.00812345 0.00323851 0.0218762 0.00233434 0.00807394 0.0027207 0.0282346 0.00382713 0.0167033 0.00431482 0.0300631 0.00561462 0.0191006 0.00628361 0.0515612
74 3 O 2.28634 15.5093 4.4844 -1.2 1 0.00321396 0.00413655 0.00168977 0.00500642 0.00302903 0.00750967 0.0029186 0.0208845 0.00255888 0.00760154 0.00223819 0.0286706 0.00339035 0.0159239 0.00403991 0.0305184 0.00584139 0.0187186 0.00639876 0.0511746
75 3 O -4.34533 12.922 4.4844 -1.2 1 0.0026947 0.00453874 0.00204393 0.00495617 0.00270145 0.00870771 0.00288443 0.0217805 0.0028654 0.00831096 0.00233218 0.0286949 0.00390441 0.0161657 0.00461383 0.0303225 0.00644081 0.0198495 0.00718298 0.0507362
76 3 O 2.98455 13.1899 3.18632 -1.2 1 0.00235251 0.00350382 0.00173006 0.00469011 0.00247859 0.00816361 0.00214717 0.0218437 0.00218541 0.0083981 0.00226947 0.0280654 0.00349651 0.0161305 0.00421419 0.0299546 0.00554424 0.0184778 0.00550684 0.0503879
77 1 Mg 1.34779 11.8725 0 1.2 1 0.00141239 0.00297215 0.00126178 0.00454159 0.00124261 0.00905924 0.00165026 0.0212081 0.0013059 0.00903204 0.00183896 0.0288244 0.00275132 0.0150688 0.00304659 0.0301785 0.00281775 0.0172541 0.00301205 0.048678
78 3 O 2.93934 13.1899 5.78248 -1.2 1 0.00356548 0.00458904 0.00167442 0.00520969 0.00266566 0.00751511 0.00246333 0.0219894 0.00252323 0.00789953 0.00279091 0.0277035 0.00427039 0.0164188 0.00474074 0.030808 0.00643496 0.0212767 0.00694791 0.0518861
79 1 Mg -1.50344 11.9138 1.4948 1.2 1 0.000782876 0.00381306 0.00156458 0.00469643 0.0014604 0.00843044 0.0018138 0.0216323 0.0024434 0.00832067 0.00155447 0.0286251 0.00360022 0.0161546 0.00330813 0.0297367 0.0034258 0.0175209 0.0035215 0.0494583
80 2 Si 0.326006 9.84894 1.4948 2.4 1 0.000342354 0.00331381 0.00149803 0.00480506 0.0019912 0.00831973 0.00205854 0.0211087 0.00207156 0.00830678 0.00156583 0.0284752 0.00301121 0.0157658 0.00370442 0.0287267 0.00374961 0.017523 0.00333566 0.0489486
81 3 O 0.317364 8.23571 1.4948 -1.2 1 0.00109707 0.00335138 0.0012278 0.00432404 0.00197007 0.00784118 0.0021189 0.0202026 0.00255084 0.00785787 0.00172453 0.028601 0.00336751 0.0158222 0.00390496 0.0284618 0.00445522 0.017408 0.00425801 0.0479599
82 3 O 6.94307 10.823 1.4948 -1.2 1 0.000611552 0.00371432 0.00149847 0.00460037 0.00190505 0.00795636 0.00259246 0.0217046 0.00226344 0.00824507 0.00130525 0.0294783 0.00295903 0.0159317 0.00341722 0.0297838 0.00375721 0.0178489 0.0040195 0.0495371
83 3 O -0.343122 10.5551 0.196716 -1.2 1 0.000769224 0.00327305 0.00116723 0.00463952 0.00139615 0.00872004 0.00198513 0.0212046 0.00188482 0.00874933 0.00195429 0.0280894 0.00340586 0.0155565 0.00411389 0.0294652 0.00338404 0.0172163 0.00318313 0.0492012
84 3 O -0.385966 10.5551 2.79288 -1.2 1 0.00199325 0.00395593 0.00127697 0.00467718 0.00257162 0.00821242 0.00214833 0.021522 0.00210403 0.00880227 0.00232532 0.0277166 0.00375602 0.0158762 0.00407737 0.029772 0.00507961 0.0184997 0.0048053 0.049958
85 1 Mg 6.49448 14.247 0 1.2 1 0.00144965 0.00340622 0.00148733 0.0047406 0.00109072 0.00931094 0.00132328 0.0211786 0.0013031 0.00839211 0.00139574 0.028734 0.00176605 0.0155279 0.0023782 0.0300947 0.00281349 0.0166315 0.00251683 0.0484218
86 1 Mg 3.74457 18.9547 1.4948 1.2 1 0.00168317 0.00330211 0.00132992 0.00410647 0.0017449 0.00864735 0.00135415 0.0221329 0.00191914 0.00792334 0.0022795 0.0275519 0.00251214 0.0165245 0.00349356 0.0288643 0.00350113 0.016384 0.00322445 0.0497129
87 2 Si 5.55495 16.2705 1.4948 2.4 1 0.00161879 0.00322527 0.00136374 0.00460935 0.00188205 0.00894433 0.00161188 0.021467 0.0013035 0.00775711 0.00108737 0.0284182 0.00227767 0.0163621 0.00284563 0.0288061 0.0034924 0.0161253 0.00341922 0.0495215
88 3 O 5.6115 17.8838 1.4948 -1.2 1 0.0017356 0.0032726 0.00150085 0.00440916 0.00178969 0.00926299 0.00173048 0.0216937 0.00186761 0.0077776 0.00143187 0.0285647 0.00213476 0.0165275 0.00271306 0.0289761 0.00308471 0.0158646 0.00340733 0.049457
89 3 O 1.93416 15.2965 1.4948 -1.2 1 0.00125761 0.00314556 0.00141593 0.0046375 0.00180615 0.00838262 0.00188578 0.0219008 0.00181384 0.0079248 0.00136817 0.0289286 0.00209503 0.0161627 0.00285723 0.0297368 0.00348226 0.0168086 0.00335686 0.0498065
90 3 O 4.85636 15.5644 0.196716 -1.2 1 0.00140898 0.00274394 0.00106209 0.00467195 0.00103493 0.0092044 0.00138854 0.0212563 0.000979212 0.00798878 0.0015018 0.0278807 0.00238732 0.0159756 0.00307196 0.0294082 0.00306128 0.0159482 0.00273767 0.049026
91 1 Mg 6.44662 14.247 2.9896 1.2 1 0.00146376 0.00396589 0.00158955 0.00481775 0.00260084 0.00877146 0.00282711 0.0209822 0.0026141 0.00849712 0.00163034 0.029161 0.00303388 0.0162343 0.00310619 0.0296469 0.00397415 0.0177706 0.00461419 0.0499026
92 3 O 4.81537 15.5644 2.79288 -1.2 1 0.00225231 0.00347642 0.00145305 0.00471732 0.00237555 0.0087866 0.00176835 0.0217793 0.00174098 0.00843779 0.00165903 0.0279141 0.00275793 0.0163423 0.00356025 0.0296848 0.00465045 0.0173846 0.00493493 0.0501189
93 1 Mg -0.948271 14.2883 4.4844 1.2 1 0.00341194 0.00426933 0.00156582 0.00465496 0.00266833 0.00808066 0.00262772 0.0215245 0.00267295 0.00800607 0.00286159 0.0284221 0.00330936 0.016723 0.00489906 0.0302608 0.00610244 0.0190684 0.00669759 0.0511613
94 2 Si -2.75928 16.9724 4.4844 2.4 1 0.00308584 0.00396145 0.00167353 0.00494306 0.00279564 0.00814705 0.00276821 0.0220255 0.00291026 0.00781151 0.00245368 0.0276731 0.00324015 0.0168402 0.00414709 0.029605 0.00523317 0.0187813 0.00618752 0.0517374
95 3 O -2.81617 15.3592 4.4844 -1.2 1 0.00354439 0.00437204 0.00179159 0.00474398 0.00292376 0.00785081 0.00285471 0.0210466 0.00266171 0.00758353 0.00224319 0.02863 0.00366043 0.0160462 0.00412889 0.0302998 0.00607547 0.0186323 0.00673449 0.0510416
96 3 O 0.862762 17.9465 4.4844 -1.2 1 0.00324954 0.00434134 0.00162579 0.00495087 0.00283941 0.00873788 0.0024414 0.022069 0.0024885 0.00770417 0.00255334 0.0284562 0.00360589 0.0168367 0.00423964 0.0293528 0.0058669 0.0187535 0.00620408 0.0512651
97 3 O -2.0185 17.6786 3.18632 -1.2 1 0.00287509 0.00371316 0.00161006 0.00428606 0.00266089 0.0078557 0.00227235 0.022136 0.00237855 0.00770432 0.00197538 0.0274588 0.00343896 0.0164979 0.00417978 0.0297782 0.00473915 0.0176004 0.00532212 0.050902
98 3 O -2.06164 17.6786 5.78248 -1.2 1 0.00398559 0.0043521 0.00157751 0.00473872 0.00260154 0.00716754 0.00225552 0.021913 0.00255473 0.00749465 0.00294945 0.0277503 0.0033807 0.017096 0.00487446 0.0305735 0.00642798 0.0202891 0.00648641 0.0525491
99 1 Mg 1.39817 16.6215 2.9896 1.2 1 0.0023361 0.00351087 0.00150856 0.00481656 0.00254905 0.00844191 0.00263939 0.0212653 0.00259675 0.00794959 0.00189159 0.0286381 0.00265504 0.0166303 0.00322478 0.0294542 0.00415617 0.016891 0.00450643 0.0498742
100 1 Mg 4.20062 16.5802 4.4844 1.2 1 0.00315616 0.00391879 0.00175513 0.00480331 0.00271673 0.00788653 0.00260695 0.0216631 0.00301259 0.00766517 0.00274775 0.028455 0.00327616 0.0174584 0.00532283 0.0297604 0.00634546 0.0186548 0.00617667 0.0512353
101 2 Si 2.37796 18.645 4.4844 2.4 1 0.00301509 0.00377575 0.00143397 0.00483067 0.00298642 0.008117 0.00301996 0.0221207 0.00265691 0.0076102 0.00256967 0.0278244 0.00346537 0.0169538 0.00411124 0.0293927 0.00522019 0.0183189 0.00581986 0.051976
102 3 O 2.39434 20.2583 4.4844 -1.2 1 0.00317415 0.00414676 0.00141532 0.00462477 0.00286465 0.00714714 0.00261784 0.0212071 0.00264897 0.00708171 0.00203421 0.0282757 0.00327496 0.0164166 0.00395273 0.0296073 0.00576283 0.0182862 0.00649831 0.0514837
103 3 O -4.24274 17.671 4.4844 -1.2 1 0.00305113 0.00419692 0.00156641 0.0048709 0.00279608 0.00876839 0.00267072 0.0221517 0.0030442 0.00768838 0.00225825 0.0283832 0.00330937 0.0167427 0.00478625 0.0295792 0.00618024 0.0189234 0.00667606 0.0512473
104 3 O 3.08659 17.9389 3.18632 -1.2 1 0.0026613 0.00338327 0.00158131 0.00441572 0.00265906 0.00805039 0.00216703 0.0220371 0.00233686 0.007763 0.00200599 0.0275013 0.00306689 0.0165268 0.00407885 0.0294148 0.0053842 0.017571 0.00528673 0.0507682
105 1 Mg 1.44478 16.6215 0 1.2 1 0.00182796 0.00308487 0.000916648 0.00445552 0.00106603 0.00893358 0.0012049 0.0214564 0.00144042 0.00811672 0.00153475 0.0283164 0.00225185 0.0157974 0.00224998 0.0293458 0.00274982 0.0161654 0.00272487 0.0486723
106 3 O 3.0436 17.9389 5.78248 -1.2 1 0.00334639 0.00440915 0.00158304 0.00505656 0.00270068 0.00734345 0.0023495 0.0221093 0.0024375 0.00767221 0.00290332 0.0273929 0.00374499 0.0167236 0.00494582 0.0306529 0.00618526 0.0206679 0.00635611 0.0528056
107 1 Mg -1.40524 16.6628 1.4948 1.2 1 0.00122594 0.00360865 0.00128195 0.00467257 0.0016099 0.00875093 0.0018169 0.0221043 0.0018652 0.00800243 0.00176963 0.0281657 0.0031091 0.0166568 0.00283093 0.0295717 0.00285534 0.0166825 0.00308658 0.0495041
108 2 Si 0.420358 14.5979 1.4948 2.4 1 0.000955689 0.00339142 0.00136806 0.00497987 0.00201278 0.00921775 0.00175422 0.0213087 0.00154985 0.00815051 0.00142448 0.0283057 0.00288332 0.0164828 0.00350782 0.0289154 0.00325549 0.0165124 0.00328325 0.0494335
109 3 O 0.408732 12.9847 1.4948 -1.2 1 0.000743715 0.00329866 0.00144133 0.00497838 0.00196852 0.00921608 0.00141212 0.0211199 0.00209939 0.00828474 0.00147063 0.0289868 0.00306202 0.0161114 0.00290759 0.0298595 0.00306469 0.0169003 0.00340953 0.0494989
110 3 O 7.03923 15.572 1.4948 -1.2 1 0.00098635 0.00364993 0.00135131 0.00471247 0.00202046 0.00840563 0.00237958 0.0217132 0.00219228 0.00787025 0.00131586 0.0291322 0.00252329 0.0163994 0.00282844 0.0296934 0.00329922 0.0168555 0.00361987 0.0496467
111 3 O -0.248332 15.3041 0.196716 -1.2 1 0.00139464 0.00313889 0.0010013 0.00468819 0.000887977 0.00907613 0.00188835 0.0212164 0.00141478 0.00808168 0.00155576 0.0278809 0.00284591 0.0160362 0.00360088 0.0293418 0.00265143 0.0162097 0.00271544 0.0489633
112 3 O -0.289436 15.3041 2.79288 -1.2 1 0.00268218 0.0039496 0.00124494 0.00478654 0.00241275 0.00879341 0.00193027 0.0218973 0.00184105 0.00842311 0.00197335 0.0274285 0.00290617 0.0164587 0.00343584 0.0296684 0.004517 0.0178027 0.00480911 0.0502601
113 1 Mg 6.59566 18.996 0 1.2 1 0.000928325 0.00326791 0.00146374 0.00427868 0.000895879 0.00859512 0.00117164 0.0219597 0.00126472 0.00781748 0.00134374 0.0279246 0.00190564 0.0163896 0.00214832 0.0288219 0.0027769 0.0156995 0.00271655 0.0485861
114 1 Mg 3.85574 23.7037 1.4948 1.2 1 0.00200035 0.00300575 0.00116263 0.00415405 0.0015892 0.00751503 0.00134403 0.0230174 0.00169931 0.00730518 0.00212235 0.0270664 0.00239162 0.0173983 0.00374423 0.0284126 0.00338606 0.0171296 0.00352024 0.0505321
115 2 Si 5.66125 21.0195 1.4948 2.4 1 0.00178432 0.002972 0.00106744 0.00421107 0.00199124 0.00817151 0.00162253 0.0218125 0.0012738 0.00741771 0.00137498 0.0279581 0.00240586 0.0171778 0.00276257 0.0281809 0.00365765 0.0158341 0.00391462 0.0500334
116 3 O 5.72074 22.6328 1.4948 -1.2 1 0.00219129 0.00298107 0.00153273 0.00412005 0.0017336 0.00827932 0.00170287 0.0222436 0.00171028 0.00716499 0.00135347 0.027877 0.00208038 0.0171716 0.00287386 0.0283839 0.00328296 0.0162753 0.00375221 0.050011
117 3 O 2.03867 20.0455 1.4948 -1.2 1 0.00143653 0.00338038 0.00134185 0.00446494 0.00187584 0.00791728 0.00203742 0.0222343 0.00209694 0.00733612 0.00138799 0.0283905 0.00208899 0.0170805 0.00250403 0.0289693 0.00357812 0.0160632 0.00349804 0.0501742
118 3 O 4.96004 20.3134 0.196716 -1.2 1 0.00143633 0.00270125 0.00133773 0.00422793 0.00117253 0.00837477 0.00123878 0.021664 0.00103496 0.00744815 0.00151784 0.0275455 0.00263323 0.0164883 0.00372431 0.028844 0.00305214 0.0151486 0.00291344 0.0493474
119 1 Mg 6.55057 18.996 2.9896 1.2 1 0.00198095 0.00363501 0.00117669 0.00426047 0.00260833 0.00831377 0.00284052 0.0212455 0.00254163 0.00791591 0.00175973 0.0289518 0.00306918 0.0169375 0.00302574 0.0287879 0.00379894 0.0170577 0.00465754 0.0501297