ITEM: TIMESTEP
30900
ITEM: NUMBER OF ATOMS
10500
ITEM: BOX BOUNDS xy xz yz pp pp pp
0	15.2977	5.09925
0	118.725	0
0	89.688	0
ITEM: ATOMS id type element xu yu zu q Q_1 Q_2 Q_3 Q_4 Q_5 Q_6 Q_7 Q_8 Q_9 Q_10 Q_11 Q_12 Q_13 Q_14 Q_15 Q_16 Q_17 Q_18 Q_19 Q_20 Q_21
1 1 Mg 6.2404 -6.37941e-06 0 1.2 1 0.00118011 0.00428201 0.00129836 0.00492084 0.00139109 0.00545984 0.00204758 0.0161956 0.00225726 0.00581449 0.00219257 0.0217108 0.00260176 0.013624 0.00325455 0.020371 0.00412285 0.0142109 0.00400103 0.0403564
2 1 Mg 3.46349 4.70768 1.4948 1.2 1 0.00126481 0.00355291 0.00128282 0.00442033 0.00184805 0.00596037 0.00354764 0.0186848 0.00269269 0.00702282 0.003122 0.0255145 0.00295971 0.0138833 0.0042615 0.0250677 0.00538351 0.0174329 0.00572242 0.0433122
3 2 Si 5.2885 2.02354 1.4948 2.4 1 0.000694862 0.00347354 0.00197399 0.00461652 0.00179958 0.00558616 0.00251801 0.0170427 0.00240728 0.00609271 0.00218919 0.0231664 0.0028431 0.0135537 0.00353151 0.0214534 0.00381257 0.0154684 0.00432813 0.0409884
4 3 O 5.33628 3.63678 1.4948 -1.2 1 0.00121367 0.00310511 0.0015634 0.00483584 0.00207081 0.00615901 0.00298109 0.0178392 0.00220086 0.00677311 0.00214374 0.0250127 0.00252907 0.0137793 0.00409492 0.0238912 0.00486285 0.0166007 0.00568888 0.0424256
5 3 O 1.67294 1.04952 1.4948 -1.2 1 0.00141797 0.00338175 0.00221766 0.00423168 0.00124767 0.00557119 0.002315 0.0169954 0.00220617 0.00606688 0.00226279 0.0225987 0.00261066 0.012909 0.00330963 0.0215987 0.0046935 0.0157082 0.0047497 0.0399731
6 3 O 4.59532 1.31737 0.196716 -1.2 1 0.000892674 0.00336954 0.00198807 0.00441634 0.00199145 0.0054961 0.00247932 0.0172269 0.00266184 0.00626001 0.00201842 0.0222343 0.00309664 0.012962 0.00396301 0.0212293 0.0042161 0.0150421 0.00448527 0.0406693
7 1 Mg 6.18956 -6.37941e-06 2.9896 1.2 1 0.00100688 0.00428705 0.00177871 0.00411366 0.00140786 0.00562358 0.00232524 0.0160474 0.00249373 0.00564498 0.00179231 0.0221265 0.00286399 0.0134434 0.00348284 0.0204908 0.00443475 0.0147764 0.00494359 0.0387579
8 3 O 4.55118 1.31737 2.79288 -1.2 1 0.001281 0.00439357 0.00189341 0.00412702 0.00172567 0.0056786 0.00246451 0.0169066 0.00231529 0.00667232 0.00228489 0.0215167 0.00322748 0.0125103 0.00346975 0.0214606 0.00507248 0.0156694 0.00546786 0.0398756
9 1 Mg -1.20682 0.0413099 4.4844 1.2 1 0.000251723 0.00286828 0.00204046 0.0047464 0.00132471 0.00558124 0.00177135 0.0160749 0.00211746 0.00607035 0.00203319 0.0223097 0.00307868 0.0119844 0.00340951 0.0206986 0.00541747 0.0156438 0.00512256 0.0387479
10 2 Si -3.0337 2.72544 4.4844 2.4 1 0.000886315 0.00379565 0.00189301 0.0048623 0.00221217 0.00604842 0.00319867 0.016593 0.00300857 0.00643318 0.00221212 0.0236108 0.0030454 0.0132786 0.00390419 0.0223896 0.0056622 0.0178368 0.00638694 0.039785
11 3 O -3.08099 1.11221 4.4844 -1.2 1 0.000452499 0.0039455 0.00193758 0.00424152 0.00139559 0.00534025 0.00237538 0.0159745 0.00262535 0.00581641 0.0019586 0.0221004 0.00319317 0.0117338 0.00365675 0.0213885 0.00537239 0.0165719 0.00575274 0.0384641
12 3 O 0.582463 3.69946 4.4844 -1.2 1 0.00183784 0.00468692 0.00218412 0.00440517 0.0024845 0.00645552 0.0034661 0.0171442 0.00335337 0.00654056 0.00321437 0.0244229 0.00422987 0.0132842 0.00446037 0.024111 0.00691049 0.0187869 0.00795013 0.0414107
13 3 O -2.29524 3.43162 3.18632 -1.2 1 0.00117186 0.00308978 0.00236265 0.00466655 0.00214193 0.00587891 0.00293217 0.0178359 0.00302693 0.0068092 0.00260747 0.0243116 0.00307691 0.0132109 0.00463331 0.0242295 0.00617315 0.0181408 0.00662861 0.0419013
14 3 O -2.34216 3.43162 5.78248 -1.2 1 0.00201724 0.00465413 0.00146874 0.00458823 0.0026413 0.00583723 0.00341547 0.0168483 0.00278278 0.00740707 0.00279947 0.0231665 0.0040925 0.0128565 0.00399086 0.0233572 0.00638276 0.0194724 0.00723528 0.0398738
15 1 Mg 1.12778 2.37449 2.9896 1.2 1 0.00112315 0.00367635 0.0023545 0.00444204 0.00211334 0.00580768 0.00305794 0.0166263 0.00270504 0.00611555 0.00250556 0.0232896 0.00318283 0.0130937 0.00345943 0.0217393 0.00489756 0.0166979 0.00551149 0.040469
16 1 Mg 3.92855 2.33318 4.4844 1.2 1 0.00170786 0.00445297 0.00145063 0.00390298 0.00179848 0.00573567 0.00357332 0.0166388 0.00328434 0.00613164 0.00291948 0.0226381 0.00379561 0.0137106 0.00504483 0.0218469 0.00658153 0.0174095 0.00700548 0.0401606
17 2 Si 2.09341 4.39804 4.4844 2.4 1 0.00183012 0.00428908 0.00202212 0.00404834 0.002708 0.0059136 0.00351467 0.0177772 0.00344359 0.00673908 0.00344416 0.0244062 0.00440975 0.0141402 0.00442838 0.0244107 0.00696743 0.0186139 0.00829214 0.0428209
18 3 O 2.09991 6.01128 4.4844 -1.2 1 0.00281298 0.00463234 0.00149633 0.00379437 0.00272362 0.00633717 0.00306809 0.0189845 0.00283697 0.0072941 0.00311355 0.0262831 0.00380546 0.0146057 0.00469493 0.0272824 0.00691242 0.0196145 0.00821801 0.0450433
19 3 O -4.52137 3.42402 4.4844 -1.2 1 0.00147836 0.0041433 0.00204662 0.00435368 0.00217917 0.00691341 0.00348462 0.017026 0.00319538 0.00629936 0.00287921 0.0234224 0.00365036 0.0131928 0.00407677 0.0227031 0.00635581 0.0179373 0.00733536 0.0411622
20 3 O 2.80834 3.69187 3.18632 -1.2 1 0.00182401 0.00382149 0.00173068 0.00353798 0.0017502 0.00570091 0.00320299 0.0173301 0.00295003 0.00636607 0.0029634 0.0239628 0.00358105 0.0133236 0.00480929 0.0237121 0.00561158 0.0172279 0.0063738 0.0423295
21 1 Mg 1.17857 2.37449 0 1.2 1 0.00157619 0.00365348 0.00224512 0.00409726 0.00152735 0.00555918 0.00239539 0.0173776 0.00243893 0.00667959 0.00283423 0.0230818 0.0027801 0.0132724 0.00351003 0.0215561 0.00456343 0.0152979 0.00478107 0.0406291
22 3 O 2.76143 3.69187 5.78248 -1.2 1 0.00215239 0.00461688 0.00176537 0.0039505 0.00230543 0.00546658 0.00276948 0.0172868 0.00332182 0.0070873 0.00296534 0.0228757 0.00459377 0.0134173 0.00539752 0.0230986 0.00677931 0.0186064 0.00730856 0.0409228
23 1 Mg -1.67381 2.41581 1.4948 1.2 1 0.000653693 0.0026618 0.00253707 0.0051245 0.00135172 0.00595729 0.00245324 0.0166358 0.00266177 0.00635207 0.00202559 0.0239862 0.00238741 0.014163 0.0027814 0.0220072 0.00440669 0.0163981 0.00502553 0.0412023
24 2 Si 0.16286 0.350945 1.4948 2.4 1 0.00153885 0.00265719 0.00276114 0.00467871 0.00121634 0.00629098 0.00278848 0.0163934 0.00204574 0.00526839 0.00200025 0.0226306 0.00240007 0.0135648 0.00309683 0.0205232 0.00471232 0.0148981 0.0043256 0.0398728
25 3 O 0.15972 -1.26229 1.4948 -1.2 1 0.00145511 0.00259945 0.00302727 0.00443089 0.00170733 0.00592406 0.00264377 0.0164694 0.00219418 0.00555319 0.00245133 0.0226965 0.00247702 0.0139098 0.00293162 0.0215178 0.00418746 0.0146562 0.00402486 0.04049
26 3 O 6.77654 1.32496 1.4948 -1.2 1 0.00109499 0.00374639 0.00170256 0.00473862 0.00135078 0.00590354 0.00236786 0.0168224 0.00238783 0.00548901 0.00175036 0.0235671 0.00276752 0.0135955 0.00338829 0.0216164 0.00462998 0.0154218 0.00437109 0.0405217
27 3 O -0.508028 1.05712 0.196716 -1.2 1 0.00111376 0.00293565 0.0034317 0.00424736 0.00131335 0.00558064 0.00255751 0.0170138 0.00173727 0.00669109 0.00268702 0.0220973 0.0026521 0.0129525 0.00306568 0.0210241 0.00422814 0.01526 0.00437811 0.0397974
28 3 O -0.552171 1.05712 2.79288 -1.2 1 0.000584774 0.00239834 0.00274281 0.00446864 0.0015037 0.00590289 0.00244433 0.0162021 0.0023968 0.00633744 0.00183929 0.0225992 0.00287514 0.0119659 0.00332187 0.0214513 0.00528614 0.0157629 0.00510326 0.039496
29 1 Mg 6.31713 4.74899 0 1.2 1 0.000816346 0.00312867 0.00174923 0.0048844 0.00225087 0.00614934 0.00334305 0.0180687 0.00273534 0.0070362 0.00230795 0.0250953 0.00284485 0.0138805 0.00421516 0.0245381 0.00477731 0.0166753 0.00613449 0.0424186
30 1 Mg 3.54847 9.45668 1.4948 1.2 1 0.00199381 0.00344271 0.00168419 0.0045437 0.002141 0.00743096 0.00316537 0.02149 0.00151453 0.00852766 0.00228822 0.0284187 0.00322414 0.0155632 0.00387497 0.0293138 0.00437391 0.0183918 0.0039877 0.0482996
31 2 Si 5.36879 6.77254 1.4948 2.4 1 0.00122479 0.00332954 0.00173536 0.00521983 0.00269812 0.00674715 0.00373445 0.0197249 0.00263128 0.0079114 0.00262235 0.0274494 0.00324422 0.0153536 0.0043434 0.0269969 0.00482816 0.0175806 0.00525474 0.0460472
32 3 O 5.41937 8.38578 1.4948 -1.2 1 0.00170958 0.0033737 0.00155669 0.00497484 0.00231062 0.00761966 0.00311559 0.0211315 0.00218934 0.00842695 0.0024811 0.0288784 0.00233022 0.0156636 0.00334096 0.0291473 0.00487211 0.0177104 0.00488679 0.0476781
33 3 O 1.75158 5.79852 1.4948 -1.2 1 0.00137328 0.00349027 0.00167639 0.00414819 0.00224435 0.00590019 0.0032241 0.0195937 0.00282974 0.00724518 0.00266076 0.027736 0.00288929 0.0155442 0.00357232 0.0266714 0.00552265 0.0179232 0.00550973 0.0452556
34 3 O 4.67421 6.06637 0.196716 -1.2 1 0.000636013 0.00337857 0.00146058 0.00482098 0.00207495 0.00672286 0.00298947 0.0198917 0.00237121 0.00832466 0.00237848 0.0260801 0.00364587 0.0144144 0.00447134 0.0265631 0.00488731 0.0169395 0.00571209 0.0445848
35 1 Mg 6.26654 4.74899 2.9896 1.2 1 0.00168585 0.00333491 0.00197162 0.00496084 0.00251029 0.0064084 0.00376716 0.0179009 0.00367552 0.0071216 0.00220942 0.0256488 0.00352232 0.01457 0.00492142 0.0247682 0.00600468 0.0178974 0.00696477 0.0432427
36 3 O 4.63043 6.06637 2.79288 -1.2 1 0.00235166 0.00352476 0.00150738 0.00476888 0.00218637 0.00670635 0.00339886 0.0193359 0.00318584 0.00798414 0.00255077 0.0259302 0.00368694 0.0146584 0.00450107 0.0271541 0.00593397 0.0184511 0.00691082 0.0450074
37 1 Mg -1.12976 4.79031 4.4844 1.2 1 0.00252695 0.00436148 0.00165214 0.00479042 0.00219479 0.00611082 0.00330302 0.0178583 0.00338407 0.00705745 0.00286788 0.0255175 0.00411435 0.014578 0.00456781 0.0254798 0.00733416 0.0193715 0.00739307 0.0437567
38 2 Si -2.9517 7.47444 4.4844 2.4 1 0.00295903 0.00436818 0.000867853 0.00507649 0.00286664 0.00652542 0.00364871 0.0202084 0.00317685 0.00785106 0.0030123 0.0271263 0.00407224 0.0157886 0.00536387 0.0278608 0.00730013 0.0195007 0.00796308 0.047101
39 3 O -3.00198 5.86121 4.4844 -1.2 1 0.00270193 0.00446144 0.00117224 0.00477974 0.00301621 0.00638723 0.00408574 0.0186853 0.00341951 0.00776263 0.00266078 0.0256266 0.00416987 0.0142346 0.00469734 0.0266643 0.00699513 0.019748 0.00779858 0.0449336
40 3 O 0.666315 8.44846 4.4844 -1.2 1 0.00345384 0.00496565 0.00107057 0.00487703 0.00271058 0.00746333 0.00273403 0.0210742 0.00289624 0.00788173 0.00336735 0.0283234 0.00451144 0.0160567 0.00450342 0.0291345 0.00634544 0.0198091 0.00773255 0.0484008
41 3 O -2.21213 8.18062 3.18632 -1.2 1 0.00297463 0.00420673 0.00134409 0.00455503 0.00245684 0.0062459 0.00290631 0.0208143 0.00262729 0.00814969 0.00270348 0.0276295 0.00410248 0.0159176 0.00492084 0.0288298 0.00596252 0.018995 0.00656273 0.0483073
42 3 O -2.25864 8.18062 5.78248 -1.2 1 0.00399913 0.00476125 0.00134356 0.00455484 0.00292055 0.00606046 0.00314759 0.0204611 0.00237921 0.00817351 0.00340717 0.0268879 0.00431242 0.0162788 0.00504099 0.0290208 0.00719138 0.020669 0.00783219 0.0485509
43 1 Mg 1.20893 7.12349 2.9896 1.2 1 0.00232122 0.00402779 0.00168421 0.00427041 0.00266858 0.00663151 0.00372217 0.0197031 0.0027348 0.00804313 0.00281893 0.0277259 0.00353072 0.0157394 0.0038558 0.0273712 0.00563842 0.0185377 0.00637925 0.0465245
44 1 Mg 4.00982 7.08218 4.4844 1.2 1 0.00275598 0.004182 0.00134101 0.00449567 0.00240752 0.00634295 0.0037877 0.0199469 0.00349266 0.00766695 0.00328122 0.0270402 0.00433472 0.0165612 0.00593347 0.0279747 0.0072475 0.0195293 0.00815146 0.0465973
45 2 Si 2.17861 9.14704 4.4844 2.4 1 0.00372234 0.00442734 0.00141379 0.00465124 0.00279437 0.00741159 0.00362937 0.021221 0.00265471 0.0080357 0.00328992 0.027998 0.00450098 0.0166794 0.00452259 0.0295354 0.00593167 0.0196858 0.00699594 0.0497921
46 3 O 2.18828 10.7603 4.4844 -1.2 1 0.00401683 0.00451853 0.00180475 0.00456546 0.00271104 0.00712836 0.0030309 0.0210721 0.00230136 0.00801857 0.00226522 0.0288917 0.00426266 0.0159523 0.00448756 0.0306249 0.0058896 0.0198905 0.00654761 0.0504892
47 3 O -4.43805 8.17302 4.4844 -1.2 1 0.00289443 0.00470077 0.00147018 0.00503198 0.00237939 0.00763042 0.00317478 0.0205492 0.00301343 0.00817689 0.00314328 0.0282235 0.0043725 0.0159366 0.0048706 0.0292271 0.00695015 0.0197489 0.00853324 0.0477633
48 3 O 2.89193 8.44087 3.18632 -1.2 1 0.00311206 0.0038892 0.00153755 0.00413031 0.0023378 0.00680853 0.00330631 0.020584 0.00271647 0.00860136 0.00286548 0.0272795 0.00386886 0.0157452 0.00477107 0.0290286 0.0059926 0.0190644 0.0059552 0.0480077
49 1 Mg 1.25915 7.12349 0 1.2 1 0.000529548 0.00320095 0.00124829 0.00409778 0.00183256 0.00714165 0.00286516 0.0202443 0.00280827 0.00827753 0.00260751 0.0274188 0.00350521 0.0144667 0.00366457 0.0275021 0.00491325 0.0176342 0.00472899 0.0455344
50 3 O 2.84547 8.44087 5.78248 -1.2 1 0.00360782 0.00482956 0.00147615 0.00449205 0.00263109 0.00667173 0.00327301 0.0208574 0.00290333 0.00846118 0.00333691 0.0268402 0.0052054 0.0166041 0.00514308 0.0293268 0.00615144 0.0210419 0.00773805 0.0489757
51 1 Mg -1.59284 7.16481 1.4948 1.2 1 0.00148841 0.00341521 0.00114847 0.00457224 0.00185209 0.00629267 0.00278972 0.0200542 0.00279566 0.00787701 0.001796 0.0275582 0.00337467 0.01566 0.00373185 0.0271296 0.00481943 0.0179388 0.00576075 0.0462661
52 2 Si 0.240329 5.09994 1.4948 2.4 1 0.00100219 0.0037632 0.00200715 0.00421819 0.00177032 0.00676559 0.00310731 0.0189795 0.00303823 0.00728696 0.00235875 0.0258922 0.0027206 0.0146759 0.00407555 0.0246216 0.00519125 0.0172964 0.00539798 0.0441522
53 3 O 0.234538 3.48671 1.4948 -1.2 1 0.00127804 0.00375374 0.00272536 0.00454446 0.00181561 0.00634539 0.00270786 0.0179733 0.00320108 0.00695133 0.00234143 0.024373 0.00315856 0.0137012 0.00381073 0.0238748 0.00553911 0.0163613 0.00549707 0.0420411
54 3 O 6.85564 6.07396 1.4948 -1.2 1 0.00151733 0.00292871 0.00207163 0.00493063 0.00243682 0.00597559 0.00322861 0.0200069 0.00302557 0.00761618 0.00212941 0.0274644 0.00327865 0.0147879 0.00470842 0.0269018 0.00558659 0.0180378 0.00622829 0.0449596
55 3 O -0.429565 5.80612 0.196716 -1.2 1 0.000778 0.00341575 0.00218783 0.00423515 0.00178705 0.00701529 0.00272547 0.0195478 0.00280841 0.00835131 0.00261346 0.0256245 0.00254012 0.0142403 0.00380373 0.0258825 0.00520739 0.0170332 0.00589893 0.044474
56 3 O -0.473377 5.80612 2.79288 -1.2 1 0.00227798 0.00369544 0.00169433 0.00464867 0.00219138 0.00661951 0.00307758 0.0191661 0.00310355 0.00807469 0.00289054 0.0257075 0.00358123 0.0145353 0.00456528 0.0263016 0.00641779 0.0189476 0.00664925 0.0454574
57 1 Mg 6.40169 9.49799 0 1.2 1 0.000628145 0.00393488 0.00150209 0.00457642 0.0015894 0.00828973 0.00200995 0.0213183 0.00170659 0.00906876 0.00177925 0.0286709 0.00267341 0.0149122 0.00310259 0.0295772 0.00394373 0.0179248 0.0045759 0.0470252
58 1 Mg 3.64209 14.2057 1.4948 1.2 1 0.00223318 0.00325632 0.00157501 0.00477329 0.00160181 0.00877236 0.00174399 0.0218449 0.00141022 0.00880954 0.00223475 0.0283239 0.00273787 0.0161344 0.00338363 0.0296043 0.00359458 0.0169468 0.0034924 0.04903
59 2 Si 5.45748 11.5215 1.4948 2.4 1 0.00243866 0.00348812 0.00167825 0.00449353 0.00175402 0.0081217 0.002168 0.021311 0.0016603 0.0083405 0.00184969 0.0287296 0.00276355 0.0161862 0.00367159 0.0292156 0.00414842 0.0169999 0.00395702 0.0488921
60 3 O 5.51101 13.1348 1.4948 -1.2 1 0.00249071 0.00330745 0.00166294 0.0046158 0.00143849 0.00889574 0.00174616 0.0213395 0.00166412 0.00870126 0.00179688 0.0292889 0.00227605 0.0160316 0.00340714 0.0299551 0.00387812 0.016731 0.00364224 0.048879
61 3 O 1.83851 10.5475 1.4948 -1.2 1 0.00172078 0.00373237 0.00162654 0.00468025 0.00177908 0.00764946 0.00242204 0.0217644 0.00170481 0.00856735 0.00224182 0.0293075 0.00267272 0.0158635 0.00344519 0.029878 0.00413572 0.0178861 0.00343267 0.0489784
62 3 O 4.7611 10.8154 0.196716 -1.2 1 0.00101349 0.00315774 0.00185594 0.00463271 0.00150943 0.00840899 0.00227664 0.0215684 0.00152405 0.00886934 0.00198335 0.0281575 0.00315573 0.015654 0.00414986 0.0294279 0.00383838 0.0172185 0.00402466 0.0479442
63 1 Mg 6.35203 9.49799 2.9896 1.2 1 0.00262035 0.00404078 0.00160421 0.00479482 0.00253216 0.00741042 0.00329864 0.0204866 0.00302375 0.00858353 0.00201244 0.0291871 0.00374081 0.0161991 0.00352507 0.0292796 0.00438205 0.0185638 0.00532107 0.0484971
64 3 O 4.71833 10.8154 2.79288 -1.2 1 0.00343639 0.00364756 0.0016447 0.00449896 0.00206857 0.00807573 0.0022026 0.021408 0.00189409 0.00897363 0.002077 0.028283 0.00357933 0.0157885 0.00414515 0.0302613 0.00499794 0.0185303 0.00531636 0.0497375
65 1 Mg -1.0438 9.53931 4.4844 1.2 1 0.00405982 0.00491 0.00141504 0.00439468 0.00281613 0.0065551 0.00270984 0.0210109 0.00272199 0.00822298 0.00273339 0.0283885 0.00384528 0.0166912 0.00439866 0.0298544 0.00634086 0.0198676 0.00691263 0.0497462
66 2 Si -2.8604 12.2234 4.4844 2.4 1 0.00394635 0.004284 0.00198365 0.00447684 0.00270923 0.00761128 0.00310721 0.0220521 0.00266178 0.00853083 0.00220739 0.028198 0.00407454 0.016552 0.00456654 0.0299513 0.00545922 0.0192491 0.00614521 0.05133
67 3 O -2.91391 10.6102 4.4844 -1.2 1 0.00421565 0.00467494 0.00181515 0.00439991 0.00270192 0.00697789 0.00323948 0.0208386 0.00258781 0.00770435 0.0018736 0.0285086 0.00420841 0.0158908 0.00421114 0.030687 0.00577432 0.0196862 0.00667893 0.0503328
68 3 O 0.7596 13.1975 4.4844 -1.2 1 0.00404558 0.00384606 0.00181864 0.00486705 0.00279338 0.00867348 0.00268599 0.0223282 0.00267631 0.00818499 0.00294936 0.0288926 0.00424857 0.0164433 0.00436556 0.0301555 0.00574911 0.0193117 0.00650024 0.0512155
69 3 O -2.12001 12.9296 3.18632 -1.2 1 0.00400651 0.00374198 0.00180996 0.00404245 0.00245673 0.00753547 0.0024167 0.0220874 0.00237795 0.00842596 0.00223275 0.0279904 0.00376463 0.0161946 0.00460798 0.030347 0.00499803 0.0183576 0.005257 0.0506672
70 3 O -2.16532 12.9296 5.78248 -1.2 1 0.00461708 0.00435809 0.001888 0.00429928 0.00284268 0.00689553 0.00263209 0.0219236 0.00240129 0.00810255 0.00250877 0.0276457 0.00400725 0.0168532 0.00466327 0.0310552 0.00596882 0.0207605 0.00629357 0.0525088
71 1 Mg 1.29891 11.8725 2.9896 1.2 1 0.00322069 0.00353582 0.00172473 0.00471451 0.00229754 0.00808836 0.00287946 0.02118 0.00237073 0.00851735 0.00216987 0.0291121 0.00346751 0.0163195 0.00352244 0.029899 0.00449997 0.01801 0.00474784 0.0496668
72 1 Mg 4.10033 11.8312 4.4844 1.2 1 0.0037987 0.00379453 0.00202371 0.00430037 0.00252171 0.00743288 0.00275105 0.0215575 0.00240845 0.00822536 0.00285683 0.0289135 0.00388872 0.0170713 0.00558493 0.0303979 0.00627071 0.019478 0.00608641 0.05083
73 2 Si 2.27333 13.896 4.4844 2.4 1 0.0036105 0.00311234 0.00163368 0.00499233 0.0029684 0.00809094 0.00321853 0.0221202 0.00227676 0.00802668 0.00279028 0.0282219 0.00392326 0.0168773 0.00442196 0.0300179 0.00539146 0.0190736 0.00589756 0.0522968
74 3 O 2.28634 15.5093 4.4844 -1.2 1 0.00366322 0.00341505 0.00173883 0.00452346 0.00297504 0.00745663 0.00280445 0.0211914 0.0023799 0.00753722 0.00231833 0.0287774 0.00360809 0.0160554 0.00424354 0.0305205 0.00550127 0.0188945 0.00603979 0.0516212
75 3 O -4.34533 12.922 4.4844 -1.2 1 0.00364048 0.00440861 0.00208052 0.00452038 0.00274888 0.0084546 0.00286938 0.0219094 0.00270149 0.00820497 0.00244497 0.0289092 0.00396483 0.0163795 0.00492191 0.0304132 0.00609375 0.0196846 0.00683921 0.0512153
76 3 O 2.98455 13.1899 3.18632 -1.2 1 0.00355499 0.00327645 0.00165855 0.00446843 0.00244217 0.00790229 0.00229175 0.0219247 0.00201323 0.0085554 0.00239098 0.0280154 0.00364402 0.0160852 0.00464469 0.0301142 0.00544338 0.0185231 0.00527796 0.0505746
77 1 Mg 1.34779 11.8725 0 1.2 1 0.00117351 0.00310364 0.00128012 0.00477854 0.0015482 0.00890997 0.00167001 0.0213133 0.00129187 0.0091949 0.00191883 0.0288236 0.00306163 0.0150733 0.00331865 0.0300753 0.00332492 0.0173952 0.00382658 0.0477146
78 3 O 2.93934 13.1899 5.78248 -1.2 1 0.00391396 0.00400526 0.00166064 0.00462979 0.00273338 0.00717319 0.00264541 0.0222243 0.00231125 0.00798358 0.00303392 0.0278258 0.0044178 0.0168087 0.00497827 0.0312249 0.00583134 0.0213406 0.00636708 0.052783
79 1 Mg -1.50344 11.9138 1.4948 1.2 1 0.00202606 0.0036301 0.00147262 0.00430785 0.00145533 0.00815369 0.00195731 0.0217269 0.00222989 0.00856221 0.00148274 0.0286438 0.00369357 0.0161877 0.00350194 0.0296583 0.00353477 0.0175362 0.00384723 0.0489876
80 2 Si 0.326006 9.84894 1.4948 2.4 1 0.00148038 0.00358748 0.00111277 0.00479005 0.00184589 0.00805589 0.00217667 0.0211208 0.00210802 0.00849146 0.00169498 0.0285407 0.00305981 0.0157767 0.00371389 0.0289525 0.00388363 0.0178805 0.00381446 0.0482272
81 3 O 0.317364 8.23571 1.4948 -1.2 1 0.00198103 0.00368227 0.000897523 0.00435887 0.00179314 0.00752226 0.00220128 0.0204001 0.00249733 0.00801699 0.00196956 0.0285986 0.00349712 0.0157622 0.00399034 0.0285825 0.00459461 0.0179207 0.00443243 0.0472925
82 3 O 6.94307 10.823 1.4948 -1.2 1 0.00221598 0.0038498 0.00159705 0.00436667 0.00180367 0.00755188 0.00250368 0.0219326 0.00239314 0.00842248 0.00154131 0.029273 0.00316321 0.0157962 0.00363117 0.0299763 0.00377441 0.0180729 0.00417306 0.049056
83 3 O -0.343122 10.5551 0.196716 -1.2 1 0.00124691 0.00342367 0.00121895 0.00452091 0.00165564 0.00849035 0.00203712 0.0214433 0.00165394 0.00905961 0.00197307 0.0280416 0.00344492 0.0155208 0.00424719 0.0293603 0.0035808 0.0174842 0.00406077 0.0480285
84 3 O -0.385966 10.5551 2.79288 -1.2 1 0.00382 0.00399742 0.00117967 0.00434771 0.00243935 0.00790511 0.0022867 0.0217381 0.00194382 0.00903517 0.00225005 0.0276387 0.00379191 0.0160664 0.00422838 0.029921 0.00501289 0.0187457 0.00497727 0.049733
85 1 Mg 6.49448 14.247 0 1.2 1 0.00103048 0.00322003 0.00161678 0.00465717 0.00117478 0.00913696 0.00125141 0.0213765 0.00127773 0.00864815 0.00148747 0.0289264 0.00182005 0.0155168 0.00282067 0.0299249 0.00332456 0.0165063 0.00327751 0.0476478
86 1 Mg 3.74457 18.9547 1.4948 1.2 1 0.00168807 0.00276424 0.00137072 0.00419374 0.00182098 0.00865853 0.00132184 0.0222397 0.00181819 0.00793061 0.00232332 0.0278772 0.00273915 0.0164767 0.00374286 0.0287832 0.00350217 0.0164427 0.00327736 0.0494738
87 2 Si 5.55495 16.2705 1.4948 2.4 1 0.00237861 0.00284013 0.00121633 0.00455565 0.00171678 0.00883741 0.00140633 0.0216075 0.00133045 0.00779901 0.00127967 0.0286183 0.00250419 0.0162853 0.00310818 0.0287928 0.00372466 0.0160037 0.00362435 0.0491797
88 3 O 5.6115 17.8838 1.4948 -1.2 1 0.00214648 0.00281857 0.00156664 0.00436769 0.00180311 0.00919999 0.00155979 0.0216555 0.00181366 0.00768108 0.00156841 0.0288811 0.00222268 0.0164073 0.00292936 0.0289284 0.00323751 0.0159023 0.0034786 0.0491426
89 3 O 1.93416 15.2965 1.4948 -1.2 1 0.00233331 0.00311619 0.00139884 0.0047849 0.00175793 0.00841006 0.0020146 0.0220813 0.00164598 0.00803706 0.00149501 0.0290944 0.00226338 0.0162654 0.00289543 0.0296926 0.00354444 0.0164546 0.0032526 0.0495792
90 3 O 4.85636 15.5644 0.196716 -1.2 1 0.0016036 0.00261396 0.00148092 0.0048066 0.0014028 0.00916083 0.00141857 0.0215404 0.000886071 0.0081737 0.00164974 0.0282013 0.00279617 0.016035 0.00379602 0.0292806 0.00327293 0.0158769 0.00329436 0.0484531
91 1 Mg 6.44662 14.247 2.9896 1.2 1 0.00241661 0.00353363 0.00165981 0.00439548 0.0023857 0.00847609 0.00282566 0.0209563 0.00253803 0.00866973 0.00188826 0.0294742 0.00325978 0.0163432 0.00331494 0.0296979 0.00395105 0.0174163 0.00450446 0.0497498
92 3 O 4.81537 15.5644 2.79288 -1.2 1 0.00306433 0.00283132 0.00141889 0.00444381 0.00220221 0.0088706 0.0016092 0.021945 0.00150324 0.0084801 0.00175468 0.0280827 0.00290117 0.0163034 0.00375252 0.0296362 0.00454024 0.0174388 0.00473093 0.0502878
93 1 Mg -0.948271 14.2883 4.4844 1.2 1 0.00430315 0.00365262 0.00178986 0.0042131 0.00273839 0.00771059 0.00266196 0.0217832 0.00268616 0.00807895 0.00255324 0.0284364 0.0033694 0.0169049 0.00476847 0.0305243 0.00559872 0.0189399 0.00590802 0.0515267
94 2 Si -2.75928 16.9724 4.4844 2.4 1 0.0036344 0.00319014 0.00184832 0.00438475 0.00279588 0.00792556 0.0027914 0.0220337 0.00257599 0.0077625 0.00248979 0.0279967 0.00359006 0.0170818 0.00446927 0.0295245 0.0048515 0.0182634 0.00550904 0.0520309
95 3 O -2.81617 15.3592 4.4844 -1.2 1 0.00416749 0.00357675 0.00201794 0.00414083 0.00292011 0.00760098 0.00281008 0.0210893 0.00260273 0.00759573 0.0022741 0.0285855 0.00370714 0.0160297 0.00424019 0.0304597 0.0058178 0.0184413 0.00618717 0.0514112
96 3 O 0.862762 17.9465 4.4844 -1.2 1 0.00297672 0.0031468 0.00153839 0.00453119 0.00287003 0.00849611 0.00239718 0.0223427 0.00230316 0.00764918 0.00269166 0.028626 0.00383072 0.0168966 0.00428217 0.0292744 0.00563616 0.0187066 0.00578851 0.0514953
97 3 O -2.0185 17.6786 3.18632 -1.2 1 0.00319886 0.00290904 0.00172993 0.00377784 0.00265723 0.00779538 0.00219499 0.0223025 0.00223245 0.00772887 0.00229971 0.0276051 0.00355174 0.0163986 0.00462138 0.0298229 0.00464241 0.01756 0.00476965 0.0510032
98 3 O -2.06164 17.6786 5.78248 -1.2 1 0.00373924 0.00332698 0.00162293 0.00428743 0.00280827 0.00710426 0.00259483 0.0220809 0.00246681 0.00748454 0.00294692 0.0277088 0.00372244 0.0170918 0.00502903 0.030681 0.00568901 0.0201875 0.00601521 0.052692
99 1 Mg 1.39817 16.6215 2.9896 1.2 1 0.00288009 0.00291607 0.00154527 0.00465739 0.00248411 0.00842033 0.00266001 0.0213774 0.00229207 0.00794667 0.00194185 0.0288633 0.00285325 0.0166489 0.00331213 0.0294782 0.00399552 0.0166195 0.00428772 0.0499864
100 1 Mg 4.20062 16.5802 4.4844 1.2 1 0.00355197 0.00274701 0.00190019 0.0042997 0.00260657 0.00777409 0.00247311 0.0218148 0.00295411 0.00767437 0.00293506 0.0284881 0.00356949 0.0174068 0.00578839 0.029702 0.00609428 0.0184982 0.00579202 0.0516269
101 2 Si 2.37796 18.645 4.4844 2.4 1 0.00269325 0.00260197 0.00157415 0.0046029 0.00287153 0.00805184 0.002863 0.0220832 0.00256078 0.00771943 0.0027364 0.0281129 0.00365803 0.0171256 0.00468153 0.0292009 0.00518985 0.0180573 0.00539889 0.0521686
102 3 O 2.39434 20.2583 4.4844 -1.2 1 0.00279294 0.00280878 0.00146831 0.00444887 0.00289322 0.00699572 0.00265372 0.0214652 0.00272705 0.00711263 0.00192706 0.0285926 0.00327237 0.0166345 0.00385296 0.0296397 0.00546267 0.0180189 0.00624098 0.0515167
103 3 O -4.24274 17.671 4.4844 -1.2 1 0.00305079 0.00319249 0.00185779 0.00427475 0.00280245 0.00859711 0.00270325 0.0223101 0.00282108 0.00768874 0.00240319 0.0284271 0.00344146 0.0166145 0.00461221 0.0296826 0.00549421 0.0188541 0.0061104 0.0513963
104 3 O 3.08659 17.9389 3.18632 -1.2 1 0.00275292 0.00249414 0.00153676 0.00411394 0.00260547 0.00797538 0.00208599 0.0221347 0.00214934 0.0078618 0.00219402 0.0278106 0.00334948 0.0163982 0.0045891 0.0295535 0.0052903 0.0175528 0.00526818 0.0508995
105 1 Mg 1.44478 16.6215 0 1.2 1 0.00181197 0.00289014 0.00114404 0.004574 0.00149283 0.00910228 0.00111099 0.0215518 0.0013093 0.00816744 0.00147402 0.0286628 0.00243018 0.0157046 0.00265122 0.0292026 0.00302817 0.0160515 0.00323727 0.0483081
106 3 O 3.0436 17.9389 5.78248 -1.2 1 0.0030261 0.00311941 0.00171283 0.00470892 0.00289787 0.00718869 0.00249476 0.0221343 0.00224202 0.00769522 0.00261336 0.0275745 0.00370114 0.0169941 0.00470023 0.0303441 0.00581041 0.0205059 0.00590312 0.0529214
107 1 Mg -1.40524 16.6628 1.4948 1.2 1 0.00180631 0.00294054 0.00109813 0.00437462 0.00181772 0.00874817 0.00182346 0.02234 0.00173582 0.00810053 0.00178556 0.0283289 0.00319529 0.0166956 0.00305323 0.0292659 0.00291206 0.0165342 0.0031805 0.0492706
108 2 Si 0.420358 14.5979 1.4948 2.4 1 0.00229369 0.00315969 0.00137553 0.00490929 0.00199412 0.00916279 0.00182251 0.0215251 0.00150779 0.00818072 0.00132887 0.0283714 0.00304702 0.0164589 0.003538 0.0287653 0.00339476 0.0164098 0.00359393 0.0490587
109 3 O 0.408732 12.9847 1.4948 -1.2 1 0.00230151 0.00315179 0.00134191 0.00473348 0.00187397 0.00905867 0.00152673 0.0212944 0.00204473 0.00846262 0.00154427 0.0290517 0.00326592 0.0160906 0.00316093 0.0297466 0.00320592 0.0168793 0.00372 0.048956
110 3 O 7.03923 15.572 1.4948 -1.2 1 0.00220687 0.00317653 0.00148066 0.0043989 0.00188479 0.0083061 0.00221706 0.0218686 0.00206244 0.00804498 0.00145863 0.0292992 0.00263355 0.0164043 0.00303967 0.0296809 0.00331839 0.0165672 0.00372138 0.0493362
111 3 O -0.248332 15.3041 0.196716 -1.2 1 0.00164572 0.00287887 0.00115916 0.00454828 0.00135201 0.00914384 0.00178636 0.0214045 0.00115765 0.00843921 0.0016277 0.0280024 0.00288599 0.0158793 0.00364252 0.0292281 0.00305188 0.0160639 0.0035074 0.0482924
112 3 O -0.289436 15.3041 2.79288 -1.2 1 0.00347991 0.00333781 0.00134064 0.00438179 0.00245509 0.00863274 0.00184836 0.0222532 0.00160084 0.00853407 0.00184484 0.027638 0.00324088 0.0165647 0.00365227 0.0298049 0.00436006 0.0175505 0.00450103 0.0502921
113 1 Mg 6.59566 18.996 0 1.2 1 0.000906507 0.002988 0.00157044 0.00454394 0.00104482 0.00880612 0.00103843 0.0220224 0.00124941 0.00768241 0.00134811 0.0283268 0.0019594 0.0162462 0.00247941 0.0286811 0.00297293 0.0159781 0.00312256 0.0482087
114 1 Mg 3.85574 23.7037 1.4948 1.2 1 0.00152467 0.00213772 0.00121654 0.00407812 0.00188733 0.00755067 0.00146949 0.0231522 0.00174478 0.00749326 0.00216771 0.0272678 0.00246183 0.0173422 0.0037081 0.0283809 0.0032384 0.0173499 0.00333792 0.0502248
115 2 Si 5.66125 21.0195 1.4948 2.4 1 0.0017657 0.00225401 0.00112014 0.00424752 0.00189437 0.00825938 0.00148327 0.0219905 0.00128139 0.00736586 0.0014873 0.0283079 0.00262752 0.0171057 0.0028486 0.0280518 0.00352546 0.0158444 0.00393269 0.0497531
116 3 O 5.72074 22.6328 1.4948 -1.2 1 0.00176417 0.00217907 0.00145375 0.00418273 0.00185004 0.00821169 0.00165149 0.0224153 0.00187832 0.00720206 0.00148815 0.0282063 0.0022735 0.0171552 0.00303285 0.0283059 0.00317443 0.0163383 0.00364735 0.0495743
117 3 O 2.03867 20.0455 1.4948 -1.2 1 0.00145834 0.00278558 0.0013443 0.00432926 0.0018751 0.00790047 0.00206795 0.0223375 0.0021709 0.00739909 0.00159263 0.028722 0.00231712 0.0171338 0.00264722 0.0288663 0.00343201 0.016055 0.00341181 0.0498998
118 3 O 4.96004 20.3134 0.196716 -1.2 1 0.00138164 0.00218053 0.00142219 0.0044123 0.00134382 0.0085311 0.00101946 0.0219181 0.00105204 0.00740281 0.00173044 0.0278255 0.00283322 0.0163271 0.00424182 0.0285475 0.00313657 0.0154164 0.00302453 0.0489239
119 1 Mg 6.55057 18.996 2.9896 1.2 1 0.00200301 0.00298904 0.00137588 0.00402541 0.00250207 0.00831669 0.0027143 0.0212954 0.00239879 0.00782413 0.00177739 0.0290045 0.00292978 0.016679 0.00314361 0.0289451 0.00394062 0.0169447 0.00446362 0.0500337