ITEM: TIMESTEP
66100
ITEM: NUMBER OF ATOMS
10500
ITEM: BOX BOUNDS xy xz yz pp pp pp
0	15.2977	5.09925
0	118.725	0
0	89.688	0
ITEM: ATOMS id type element xu yu zu q Q_1 Q_2 Q_3 Q_4 Q_5 Q_6 Q_7 Q_8 Q_9 Q_10 Q_11 Q_12 Q_13 Q_14 Q_15 Q_16 Q_17 Q_18 Q_19 Q_20 Q_21
1 1 Mg 6.2404 -6.37941e-06 0 1.2 1 0.00113323 0.00424851 0.00102457 0.0046355 0.00127365 0.00563771 0.00172173 0.016441 0.00212082 0.00586063 0.0022616 0.0219872 0.00268265 0.0135375 0.00362577 0.0208036 0.00432798 0.0139443 0.00431448 0.0406719
2 1 Mg 3.46349 4.70768 1.4948 1.2 1 0.00154252 0.00306848 0.00168979 0.0044194 0.0018952 0.00610383 0.00341733 0.0187779 0.00285301 0.00692016 0.00297427 0.0258413 0.00324525 0.0138572 0.0044135 0.0254596 0.00500515 0.0167684 0.00540076 0.0442669
3 2 Si 5.2885 2.02354 1.4948 2.4 1 0.00102618 0.00339865 0.00165847 0.00431915 0.00170793 0.00572442 0.00226916 0.0171935 0.002372 0.00611883 0.00221648 0.0234296 0.00301469 0.0134419 0.00383544 0.021852 0.00393186 0.014998 0.00432453 0.0414951
4 3 O 5.33628 3.63678 1.4948 -1.2 1 0.00119567 0.0027146 0.00158662 0.00457733 0.00201772 0.00622944 0.00283863 0.017834 0.00225581 0.00664425 0.00186576 0.0253178 0.00270435 0.0135554 0.00436829 0.0242874 0.00488502 0.0159988 0.00547653 0.0432437
5 3 O 1.67294 1.04952 1.4948 -1.2 1 0.00161273 0.00336845 0.00199796 0.00426244 0.00132969 0.0056506 0.00222508 0.0169433 0.00223891 0.00616204 0.0022725 0.023043 0.00283886 0.0125833 0.00359636 0.0224085 0.00457506 0.0152081 0.00459932 0.0404752
6 3 O 4.59532 1.31737 0.196716 -1.2 1 0.000892145 0.00338819 0.00179466 0.00406794 0.00194377 0.00563392 0.00224737 0.0173013 0.00253903 0.00627534 0.00201414 0.0225392 0.00326392 0.0128244 0.00433969 0.0217653 0.00444283 0.0146009 0.00458293 0.041013
7 1 Mg 6.18956 -6.37941e-06 2.9896 1.2 1 0.00140141 0.00407319 0.00130693 0.00419143 0.00128266 0.00559685 0.00229681 0.0161744 0.00248354 0.00573185 0.00175576 0.0226239 0.00301331 0.0131286 0.00368706 0.0209462 0.00450176 0.0141504 0.00463567 0.0393759
8 3 O 4.55118 1.31737 2.79288 -1.2 1 0.00140942 0.00407038 0.00149421 0.00408572 0.00175004 0.00580718 0.00228106 0.0169905 0.00233847 0.00674701 0.00230412 0.0223104 0.00326894 0.0121457 0.00347883 0.0221051 0.00467898 0.0150121 0.00486672 0.0405814
9 1 Mg -1.20682 0.0413099 4.4844 1.2 1 0.000589769 0.00239571 0.00152615 0.00483888 0.00136223 0.00532269 0.00200403 0.0161767 0.00221776 0.00603276 0.00220194 0.0231183 0.00325999 0.0111752 0.00383796 0.0211617 0.00504702 0.0149761 0.00489455 0.038816
10 2 Si -3.0337 2.72544 4.4844 2.4 1 0.000938008 0.0026191 0.00151269 0.00511504 0.00208792 0.00608493 0.00293403 0.0167726 0.00320067 0.0059157 0.00247038 0.0243598 0.00329097 0.0121925 0.00423069 0.0229307 0.00533271 0.0166579 0.005961 0.0401934
11 3 O -3.08099 1.11221 4.4844 -1.2 1 0.000890666 0.00308648 0.0016768 0.00453501 0.00139458 0.0053433 0.00213487 0.016196 0.00268776 0.0055459 0.00223535 0.0226567 0.00351134 0.0108518 0.00381472 0.0215521 0.00482854 0.0152197 0.00512386 0.0385645
12 3 O 0.582463 3.69946 4.4844 -1.2 1 0.00123403 0.00394922 0.0020432 0.00466354 0.00255051 0.00664445 0.00340045 0.0171992 0.00357864 0.00615954 0.00332686 0.0250171 0.00410018 0.0122317 0.00477115 0.0244636 0.0064195 0.0181332 0.00783766 0.0418273
13 3 O -2.29524 3.43162 3.18632 -1.2 1 0.00135802 0.00231157 0.00241001 0.0045177 0.00216907 0.00590874 0.00284559 0.0180624 0.00329752 0.00647873 0.00275962 0.0247095 0.00348513 0.0127098 0.00492388 0.0245349 0.00560992 0.0173225 0.00597518 0.0425949
14 3 O -2.34216 3.43162 5.78248 -1.2 1 0.000825653 0.00298866 0.00130152 0.00521703 0.0026876 0.00605026 0.00319509 0.0167759 0.00304451 0.00645003 0.00305201 0.0240463 0.0043687 0.0116479 0.00471227 0.02343 0.00607482 0.0180356 0.0073084 0.0403893
15 1 Mg 1.12778 2.37449 2.9896 1.2 1 0.00122902 0.00324222 0.00222681 0.00488234 0.00223405 0.00603652 0.00285967 0.0170462 0.00260648 0.00615591 0.00239487 0.0239108 0.00315321 0.0126469 0.00370104 0.0224986 0.00468478 0.0160132 0.00514762 0.0413977
16 1 Mg 3.92855 2.33318 4.4844 1.2 1 0.00182697 0.00401951 0.0012591 0.00443548 0.00174049 0.00560208 0.00344814 0.0168754 0.00320672 0.00555399 0.00302817 0.0233821 0.00372068 0.012885 0.00547502 0.0222852 0.00619055 0.0162477 0.00655892 0.0405778
17 2 Si 2.09341 4.39804 4.4844 2.4 1 0.00156175 0.00383667 0.0019618 0.00437701 0.00302052 0.00590508 0.00366896 0.0185078 0.00328669 0.00629217 0.00350119 0.0250608 0.00427268 0.0136539 0.00466157 0.024966 0.00625955 0.0178913 0.00800151 0.0438726
18 3 O 2.09991 6.01128 4.4844 -1.2 1 0.00195813 0.0040853 0.00165377 0.00428024 0.00292668 0.00638476 0.00312426 0.0192169 0.00246255 0.00715822 0.00317975 0.02673 0.00434849 0.01388 0.0048362 0.0274992 0.00613975 0.0190062 0.00756869 0.0454478
19 3 O -4.52137 3.42402 4.4844 -1.2 1 0.00192414 0.00318562 0.00174216 0.00475836 0.00229476 0.00679567 0.0032907 0.0171038 0.00340479 0.00597646 0.00297929 0.0241382 0.00399542 0.0123472 0.00417973 0.0231029 0.00586227 0.0168599 0.00673333 0.0416383
20 3 O 2.80834 3.69187 3.18632 -1.2 1 0.00199306 0.00355056 0.00163337 0.00375048 0.00207075 0.00587239 0.00300009 0.0176276 0.00303563 0.00623961 0.00280494 0.0244942 0.00349944 0.0126985 0.00485755 0.0242212 0.00543517 0.0167399 0.00575614 0.0430889
21 1 Mg 1.17857 2.37449 0 1.2 1 0.00157915 0.00382646 0.00190965 0.00416397 0.00150068 0.00550875 0.00226222 0.0173919 0.00235597 0.00673238 0.00265442 0.0231825 0.00308914 0.0133521 0.00367972 0.0220695 0.00480102 0.0149685 0.00477756 0.0409216
22 3 O 2.76143 3.69187 5.78248 -1.2 1 0.00167198 0.00410324 0.00179873 0.00464119 0.00205179 0.00549867 0.00272049 0.0176039 0.00305046 0.00650797 0.00303927 0.0230901 0.00475925 0.0122592 0.00597427 0.0230361 0.00636291 0.0178044 0.00717302 0.0409735
23 1 Mg -1.67381 2.41581 1.4948 1.2 1 0.00100038 0.00258434 0.00244183 0.0046627 0.0013856 0.00605294 0.00221371 0.0168058 0.00264935 0.00636854 0.00201603 0.0244363 0.00260081 0.0140992 0.00287744 0.0227489 0.00448133 0.0157684 0.00482325 0.0420528
24 2 Si 0.16286 0.350945 1.4948 2.4 1 0.00159253 0.00261266 0.00251721 0.00446281 0.00125582 0.0062602 0.00248225 0.0165569 0.00222018 0.00543813 0.00202148 0.0232692 0.00254316 0.0133351 0.00318011 0.0213118 0.00489088 0.0144837 0.00422101 0.040829
25 3 O 0.15972 -1.26229 1.4948 -1.2 1 0.00131589 0.00257918 0.00253102 0.00464068 0.00171471 0.00594819 0.00237089 0.0164335 0.00206892 0.00566979 0.0026362 0.0228658 0.00276992 0.0135784 0.00322013 0.0219141 0.00435532 0.0142059 0.0036098 0.040992
26 3 O 6.77654 1.32496 1.4948 -1.2 1 0.00130628 0.00366764 0.00138846 0.00449624 0.00122706 0.00607255 0.00198434 0.0167819 0.00234066 0.00573137 0.0017507 0.0238937 0.00288394 0.0134333 0.00357667 0.0222984 0.00473976 0.0149669 0.00434887 0.0411374
27 3 O -0.508028 1.05712 0.196716 -1.2 1 0.000766261 0.00300791 0.00309669 0.00420554 0.00125512 0.00570924 0.00224762 0.0172402 0.00174591 0.00668215 0.00251801 0.0221988 0.00285185 0.0128721 0.00345271 0.0214921 0.00453584 0.0149847 0.00453721 0.0402132
28 3 O -0.552171 1.05712 2.79288 -1.2 1 0.00100986 0.00217657 0.00267235 0.00465904 0.00133883 0.006028 0.00225436 0.0163385 0.00232 0.0063353 0.00178097 0.0228771 0.0029015 0.0113734 0.0036485 0.022099 0.00521793 0.0152785 0.0044545 0.0400428
29 1 Mg 6.31713 4.74899 0 1.2 1 0.00069782 0.00265914 0.00171691 0.00469211 0.00221642 0.00621508 0.00330567 0.0180217 0.00287209 0.00705347 0.00235191 0.0251829 0.00296041 0.0138868 0.00428304 0.0247627 0.00474819 0.0162353 0.0059626 0.0427319
30 1 Mg 3.54847 9.45668 1.4948 1.2 1 0.000848768 0.00259541 0.00193619 0.00491798 0.00211863 0.0075476 0.00304761 0.0212146 0.00189485 0.00835558 0.00252209 0.0285669 0.00320303 0.0157389 0.00381903 0.0292934 0.00378313 0.0183388 0.00384648 0.0488053
31 2 Si 5.36879 6.77254 1.4948 2.4 1 0.000989473 0.00237079 0.00200624 0.00521892 0.0027513 0.00697095 0.00373323 0.0196054 0.00269178 0.00773979 0.00255478 0.0276782 0.00311923 0.0152917 0.00424468 0.0270745 0.00425826 0.0173467 0.00507919 0.0467732
32 3 O 5.41937 8.38578 1.4948 -1.2 1 0.000942647 0.00240128 0.00169381 0.00528807 0.00232177 0.00780852 0.00316145 0.0209037 0.00221519 0.00835638 0.00260447 0.0290963 0.00236775 0.015645 0.00315364 0.0291451 0.00417178 0.0175322 0.00469526 0.0481202
33 3 O 1.75158 5.79852 1.4948 -1.2 1 0.00157764 0.00304727 0.00189499 0.00440744 0.00250873 0.00609741 0.00317449 0.0195538 0.00278848 0.00729681 0.00263821 0.0278842 0.00291093 0.0154485 0.00354104 0.0270999 0.00495295 0.0174554 0.00519313 0.0460129
34 3 O 4.67421 6.06637 0.196716 -1.2 1 0.000851986 0.00253193 0.00158155 0.00489638 0.00192075 0.0068929 0.00295903 0.0198188 0.00246741 0.00817579 0.00222508 0.0261694 0.00351012 0.0144735 0.00421549 0.0266317 0.00460043 0.016622 0.00545605 0.0450852
35 1 Mg 6.26654 4.74899 2.9896 1.2 1 0.00187379 0.00270355 0.00202099 0.00491284 0.0025585 0.00642617 0.00348275 0.01808 0.00371125 0.00697225 0.00232191 0.0261476 0.00382659 0.0141035 0.00494943 0.0250981 0.00545176 0.0172288 0.0064335 0.0441314
36 3 O 4.63043 6.06637 2.79288 -1.2 1 0.00236821 0.00292584 0.00192243 0.00511071 0.00235061 0.00668734 0.00336165 0.0195773 0.00320933 0.00771623 0.00250496 0.0262715 0.00383779 0.0144056 0.00458156 0.0273246 0.00516881 0.0181192 0.00646381 0.0459645
37 1 Mg -1.12976 4.79031 4.4844 1.2 1 0.00148509 0.003183 0.00203202 0.00498599 0.00251838 0.00625333 0.00317734 0.0179376 0.0034494 0.0069222 0.00306277 0.0257992 0.00423635 0.0137024 0.00494355 0.0256856 0.00675813 0.0185807 0.00746262 0.044188
38 2 Si -2.9517 7.47444 4.4844 2.4 1 0.00255773 0.00337547 0.00171974 0.00554122 0.00323453 0.00649205 0.00379175 0.0205704 0.00311448 0.00773511 0.00327062 0.0276123 0.00483179 0.0156604 0.0054815 0.0279881 0.00618049 0.0192288 0.00726109 0.0476965
39 3 O -3.00198 5.86121 4.4844 -1.2 1 0.00232925 0.0035088 0.0016102 0.00527374 0.00306495 0.00632215 0.00385445 0.0188451 0.00339725 0.00760541 0.002795 0.0260528 0.00428362 0.0136302 0.00495294 0.0272078 0.00622554 0.0191902 0.00775509 0.0457968
40 3 O 0.666315 8.44846 4.4844 -1.2 1 0.00238664 0.00409393 0.00160121 0.00536604 0.0030924 0.007486 0.00291359 0.0210818 0.00296807 0.00780897 0.00344547 0.0282993 0.00489773 0.0155896 0.00478538 0.0290671 0.00560778 0.0197207 0.00731933 0.0482888
41 3 O -2.21213 8.18062 3.18632 -1.2 1 0.00161769 0.00350309 0.0018682 0.0048899 0.00274563 0.00632883 0.00280384 0.020895 0.00265354 0.00811486 0.00313994 0.0276901 0.00433219 0.0155228 0.00526592 0.0290273 0.00533983 0.0189372 0.00623993 0.0487265
42 3 O -2.25864 8.18062 5.78248 -1.2 1 0.00276625 0.00387605 0.00202927 0.00533288 0.00332735 0.0061761 0.00300194 0.0205249 0.00219329 0.00814126 0.00364757 0.0268903 0.00503215 0.0161169 0.00589969 0.0290775 0.0060099 0.0206547 0.00755467 0.048315
43 1 Mg 1.20893 7.12349 2.9896 1.2 1 0.00192042 0.00336909 0.00201366 0.00488004 0.00285616 0.00668125 0.00374117 0.0195888 0.00278306 0.00797095 0.002905 0.0280917 0.00340476 0.0156581 0.00390797 0.0278051 0.0050273 0.0183596 0.00600311 0.0472536
44 1 Mg 4.00982 7.08218 4.4844 1.2 1 0.00278261 0.00342313 0.00153778 0.00512678 0.00277699 0.00656345 0.00367376 0.0203793 0.00333026 0.00764109 0.00318491 0.0271863 0.00407791 0.0161635 0.00570207 0.0280746 0.00647347 0.0190927 0.00752375 0.0474166
45 2 Si 2.17861 9.14704 4.4844 2.4 1 0.00211786 0.00365067 0.00185727 0.00553102 0.00314906 0.00740129 0.003783 0.0211274 0.00257221 0.00815459 0.00322798 0.0281096 0.00496591 0.0163418 0.0049324 0.0294548 0.00527692 0.0196881 0.00642413 0.0501511
46 3 O 2.18828 10.7603 4.4844 -1.2 1 0.00254309 0.00382587 0.00192274 0.00518544 0.00296314 0.00718086 0.00298099 0.0205781 0.0023619 0.0080919 0.00210621 0.0285584 0.00429235 0.0153756 0.00469269 0.0304069 0.00524485 0.0200501 0.00587331 0.0503381
47 3 O -4.43805 8.17302 4.4844 -1.2 1 0.00217278 0.00383772 0.00187789 0.00549624 0.00274734 0.0076945 0.00314361 0.0207576 0.00310514 0.00805175 0.00316621 0.0280736 0.00487166 0.0155169 0.00511273 0.0292955 0.00570933 0.0197706 0.0080553 0.0480826
48 3 O 2.89193 8.44087 3.18632 -1.2 1 0.00217455 0.00317557 0.00164237 0.00498906 0.00270869 0.00695394 0.003353 0.0206705 0.00283008 0.00834547 0.00290194 0.027651 0.00398079 0.0156343 0.00488668 0.0290562 0.00544234 0.0190776 0.00560578 0.0488675
49 1 Mg 1.25915 7.12349 0 1.2 1 0.000687313 0.00266891 0.00141843 0.00437901 0.00177522 0.00722363 0.00278865 0.0201246 0.00282321 0.00819832 0.00249236 0.0272863 0.00329779 0.0144495 0.00358655 0.0276398 0.00443232 0.0173693 0.00466517 0.0459624
50 3 O 2.84547 8.44087 5.78248 -1.2 1 0.00270003 0.00420866 0.00193394 0.0051468 0.00276464 0.00649591 0.00316317 0.0206363 0.00266743 0.00843744 0.00332455 0.0264485 0.00538361 0.0157099 0.0055722 0.0292287 0.00545677 0.0207912 0.00704582 0.0483813
51 1 Mg -1.59284 7.16481 1.4948 1.2 1 0.000982979 0.00287007 0.00149663 0.00472488 0.00181053 0.00631924 0.00273672 0.0198912 0.0028921 0.00774517 0.00195129 0.0277017 0.00324659 0.0154596 0.00374488 0.0273757 0.00428248 0.0176391 0.00536162 0.0469032
52 2 Si 0.240329 5.09994 1.4948 2.4 1 0.00130977 0.0034694 0.00192142 0.00434121 0.00193288 0.00678164 0.00310973 0.0188692 0.00298735 0.00740358 0.00228875 0.026078 0.00279228 0.0145142 0.00406141 0.0250474 0.00500325 0.0169198 0.0050309 0.044903
53 3 O 0.234538 3.48671 1.4948 -1.2 1 0.00168472 0.0035798 0.00245376 0.00447172 0.00187988 0.00658139 0.00258851 0.0178512 0.0032246 0.00700731 0.00259211 0.0246975 0.00333838 0.0135273 0.00399217 0.0244202 0.00529915 0.0159528 0.0054839 0.0426689
54 3 O 6.85564 6.07396 1.4948 -1.2 1 0.00133819 0.00216027 0.00218396 0.00489706 0.00252044 0.00611242 0.00313398 0.0199723 0.0031111 0.00754307 0.00213635 0.0277434 0.00332577 0.0143961 0.00492992 0.0271286 0.00506431 0.0177206 0.00598646 0.0457784
55 3 O -0.429565 5.80612 0.196716 -1.2 1 0.000999499 0.00296572 0.00219731 0.00414383 0.00175978 0.00699524 0.00248863 0.0193615 0.00273449 0.00839713 0.00245655 0.0257868 0.00264842 0.0142595 0.00403718 0.0260754 0.0049452 0.016774 0.00561015 0.045169
56 3 O -0.473377 5.80612 2.79288 -1.2 1 0.00183089 0.00318409 0.00191624 0.00483407 0.00237897 0.00677463 0.00315301 0.0194347 0.00292408 0.00769954 0.00294903 0.0261835 0.00379774 0.0142819 0.00459688 0.026841 0.00593319 0.0185456 0.0063588 0.0461964
57 1 Mg 6.40169 9.49799 0 1.2 1 0.000538433 0.00299948 0.0016177 0.00483078 0.00153315 0.00829404 0.00209185 0.0208518 0.00162883 0.00897541 0.00179393 0.0288196 0.00227781 0.0149124 0.00259072 0.0297073 0.00367615 0.018009 0.00385913 0.0473292
58 1 Mg 3.64209 14.2057 1.4948 1.2 1 0.0016265 0.00276768 0.00160392 0.0049884 0.00165734 0.00869885 0.00159627 0.021423 0.00176544 0.0085996 0.00233075 0.0285083 0.00268207 0.0159671 0.00316344 0.0297116 0.00366114 0.0168097 0.00352465 0.0488705
59 2 Si 5.45748 11.5215 1.4948 2.4 1 0.00112448 0.00246779 0.0017055 0.00506425 0.00190464 0.00823742 0.00227336 0.0209035 0.00147212 0.00829644 0.00185335 0.0290012 0.00264745 0.0161755 0.00347563 0.0294683 0.00377454 0.0170686 0.00370152 0.0490497
60 3 O 5.51101 13.1348 1.4948 -1.2 1 0.00136422 0.00269529 0.00163656 0.00509242 0.00160171 0.00905776 0.00177692 0.0209649 0.00184339 0.0086325 0.00162157 0.0294934 0.00232436 0.0159959 0.00300666 0.030048 0.00369637 0.0167312 0.00356732 0.0486952
61 3 O 1.83851 10.5475 1.4948 -1.2 1 0.000628046 0.00283527 0.00173781 0.00497146 0.00194137 0.00761917 0.00237043 0.0214406 0.00177901 0.0084694 0.00228907 0.0295906 0.002665 0.0157192 0.00313854 0.0300493 0.00366292 0.0180455 0.00335508 0.049242
62 3 O 4.7611 10.8154 0.196716 -1.2 1 0.000620652 0.00230509 0.00168162 0.00501403 0.00143605 0.00859154 0.00219481 0.0210949 0.00144863 0.00868756 0.00187208 0.0283269 0.00289366 0.015685 0.00370808 0.0296006 0.00356231 0.0172789 0.00345698 0.0483814
63 1 Mg 6.35203 9.49799 2.9896 1.2 1 0.00141918 0.00319115 0.00183461 0.00528148 0.00277756 0.00752052 0.00320293 0.0204536 0.00306299 0.0085682 0.00225781 0.0292701 0.00387474 0.0160114 0.00345875 0.0293845 0.00383227 0.0186748 0.00536173 0.048777
64 3 O 4.71833 10.8154 2.79288 -1.2 1 0.00194266 0.00295065 0.00170908 0.004977 0.00227792 0.00810251 0.00229651 0.021489 0.00195522 0.00902207 0.00236143 0.0283595 0.00360153 0.0156925 0.00418452 0.0302758 0.00485347 0.0187419 0.0053747 0.0497891
65 1 Mg -1.0438 9.53931 4.4844 1.2 1 0.00206345 0.00395775 0.00183594 0.00490448 0.00306934 0.00677679 0.00251786 0.0209235 0.0026987 0.00835274 0.0027523 0.0284095 0.00430971 0.0162661 0.00484518 0.029668 0.00549605 0.0200148 0.00656074 0.0493362
66 2 Si -2.8604 12.2234 4.4844 2.4 1 0.00194075 0.00358481 0.00163366 0.0049173 0.00285514 0.00775638 0.00312719 0.02156 0.00272839 0.0083845 0.00242245 0.0283488 0.00451473 0.0160796 0.00469026 0.030084 0.00514181 0.0198472 0.00637606 0.0507588
67 3 O -2.91391 10.6102 4.4844 -1.2 1 0.00227803 0.00361037 0.00180789 0.00505353 0.00319093 0.0070909 0.00331255 0.020553 0.00263159 0.00789213 0.00221656 0.0285685 0.00453574 0.0155803 0.00436634 0.0307408 0.00528874 0.0200368 0.00639997 0.0499344
68 3 O 0.7596 13.1975 4.4844 -1.2 1 0.00219014 0.00370886 0.00191928 0.00506364 0.00287687 0.00853565 0.00275353 0.0220135 0.00249585 0.00836287 0.002714 0.0285174 0.00440693 0.0162009 0.00439448 0.029824 0.00557968 0.0199194 0.00587924 0.0506577
69 3 O -2.12001 12.9296 3.18632 -1.2 1 0.00183537 0.00315209 0.00172347 0.00459439 0.00254274 0.00767782 0.00223892 0.021497 0.00226601 0.00842744 0.0022963 0.028057 0.00380823 0.0161226 0.00460256 0.0305422 0.00482644 0.0187794 0.00512995 0.0502705
70 3 O -2.16532 12.9296 5.78248 -1.2 1 0.00243021 0.00407179 0.0015468 0.0048642 0.00278033 0.00682623 0.00262715 0.0214399 0.00252252 0.00823092 0.0025449 0.0272884 0.0044293 0.016451 0.00497887 0.0309874 0.00556753 0.0214664 0.00606962 0.0510155
71 1 Mg 1.29891 11.8725 2.9896 1.2 1 0.0013072 0.0029904 0.00188262 0.00501097 0.00263845 0.00802335 0.00290603 0.0209953 0.00240027 0.00868922 0.00207687 0.0291703 0.00336697 0.0158551 0.00370325 0.0300829 0.0043237 0.0182647 0.00478335 0.0493009
72 1 Mg 4.10033 11.8312 4.4844 1.2 1 0.00242699 0.00345483 0.00193041 0.0048657 0.00261402 0.00723994 0.00276505 0.0210213 0.00243371 0.00821661 0.00256504 0.02882 0.00402901 0.0169156 0.00527537 0.0302201 0.00583153 0.0197537 0.00564914 0.0506114
73 2 Si 2.27333 13.896 4.4844 2.4 1 0.0022505 0.00308652 0.00171593 0.00513264 0.00295552 0.00786338 0.00330294 0.0215261 0.00232923 0.00813085 0.00274842 0.0281179 0.0040323 0.016343 0.00471149 0.0298105 0.00536495 0.0192124 0.0055034 0.0511511
74 3 O 2.28634 15.5093 4.4844 -1.2 1 0.00254539 0.00346056 0.00176217 0.00458072 0.00301044 0.00719103 0.00299527 0.0205972 0.00258661 0.00747657 0.00222707 0.0284309 0.00348289 0.0153792 0.00432226 0.0301501 0.00532877 0.0187689 0.00590818 0.0506841
75 3 O -4.34533 12.922 4.4844 -1.2 1 0.00215924 0.00352398 0.0018636 0.00499631 0.00291581 0.00843459 0.00298234 0.021487 0.0027238 0.00832716 0.0024732 0.0286944 0.00409354 0.0157375 0.00498276 0.0305368 0.0058697 0.0201132 0.00659542 0.0505451
76 3 O 2.98455 13.1899 3.18632 -1.2 1 0.00192014 0.00310281 0.00172594 0.0045265 0.00255671 0.00767479 0.0023838 0.0217066 0.00210484 0.00862657 0.00231193 0.0281013 0.00371749 0.0160463 0.00462581 0.0300343 0.00542403 0.0186341 0.00524421 0.050058
77 1 Mg 1.34779 11.8725 0 1.2 1 0.00124294 0.00247039 0.00113267 0.00507872 0.00128931 0.00872274 0.00154333 0.0209586 0.00105641 0.0092202 0.00196563 0.0290656 0.00270294 0.0148357 0.00304354 0.0302032 0.00310379 0.0171758 0.00318974 0.0477447
78 3 O 2.93934 13.1899 5.78248 -1.2 1 0.00296031 0.00408442 0.00181129 0.0050117 0.00271319 0.00689986 0.00294008 0.0214999 0.00245174 0.00840044 0.00309366 0.0272584 0.00456644 0.0162357 0.0053811 0.0309255 0.00575133 0.0215336 0.00590273 0.0513803
79 1 Mg -1.50344 11.9138 1.4948 1.2 1 0.001115 0.00295299 0.00143928 0.00476846 0.00150034 0.00819685 0.00174848 0.0214278 0.00239076 0.00858235 0.0014629 0.0288909 0.00337948 0.0158305 0.00319655 0.0300338 0.00320247 0.0176279 0.00356345 0.0489165
80 2 Si 0.326006 9.84894 1.4948 2.4 1 0.000514846 0.00277923 0.0013186 0.00502902 0.00208825 0.00800421 0.00207132 0.0209992 0.00206377 0.00852975 0.00163372 0.028812 0.00278422 0.0155649 0.00355138 0.0291606 0.00344933 0.0178263 0.00327509 0.0485933
81 3 O 0.317364 8.23571 1.4948 -1.2 1 0.00136475 0.00291922 0.00133075 0.00469547 0.00200908 0.00756423 0.00201617 0.0203272 0.0025148 0.00801353 0.00187827 0.028628 0.00326703 0.0157736 0.0039101 0.0288246 0.00406278 0.0177851 0.00405346 0.0478324
82 3 O 6.94307 10.823 1.4948 -1.2 1 0.00055121 0.00290286 0.00150761 0.00479867 0.0020012 0.00778337 0.00262716 0.0216919 0.00227031 0.00843308 0.001531 0.029579 0.00287193 0.0158925 0.00326232 0.0300545 0.00350912 0.0181898 0.00403518 0.0490639
83 3 O -0.343122 10.5551 0.196716 -1.2 1 0.0003948 0.00257426 0.00102467 0.00486818 0.00157475 0.00842501 0.00179567 0.0211268 0.00155264 0.00882835 0.00188331 0.0281611 0.00291131 0.015172 0.00394847 0.0297095 0.00324543 0.0175474 0.00339361 0.048169
84 3 O -0.385966 10.5551 2.79288 -1.2 1 0.00179006 0.00315117 0.00140761 0.00487977 0.00264757 0.00787508 0.0021115 0.0214218 0.00189042 0.00899821 0.00255319 0.0279592 0.00376395 0.0158551 0.0042164 0.0302595 0.00463055 0.0187935 0.0050499 0.0496703
85 1 Mg 6.49448 14.247 0 1.2 1 0.00182563 0.00267242 0.00145614 0.00506747 0.00116599 0.00924817 0.00120562 0.0210111 0.0012949 0.00856116 0.0015247 0.0288238 0.00179299 0.0155225 0.00255156 0.0299914 0.00334242 0.016444 0.00296554 0.0479266
86 1 Mg 3.74457 18.9547 1.4948 1.2 1 0.00250194 0.00288248 0.0014156 0.00403262 0.00182538 0.00835503 0.00145276 0.0218979 0.00184546 0.00793591 0.00207257 0.0271366 0.00241665 0.0162816 0.00328242 0.0288369 0.00374317 0.0160765 0.00327858 0.0494738
87 2 Si 5.55495 16.2705 1.4948 2.4 1 0.0021315 0.0024582 0.00157584 0.00470225 0.00182595 0.00870694 0.0012991 0.0211892 0.00148094 0.00794838 0.00126312 0.0284452 0.00240389 0.0161949 0.00296896 0.0289753 0.00376884 0.0157868 0.00355312 0.0491171
88 3 O 5.6115 17.8838 1.4948 -1.2 1 0.00227571 0.00271812 0.00160921 0.00437594 0.00171874 0.00902204 0.00148191 0.0213433 0.00181234 0.00777743 0.00119492 0.0283943 0.00221698 0.0162674 0.00278478 0.0290343 0.00357109 0.0154381 0.00359789 0.0491212
89 3 O 1.93416 15.2965 1.4948 -1.2 1 0.00169581 0.00277518 0.00154513 0.00486377 0.00183157 0.0082066 0.00206747 0.0217406 0.00189866 0.00812668 0.00139139 0.0289962 0.00213761 0.0159705 0.00286463 0.0298596 0.0038773 0.0165791 0.0032499 0.0492448
90 3 O 4.85636 15.5644 0.196716 -1.2 1 0.00203644 0.00213136 0.00128083 0.00488255 0.0012704 0.00892908 0.00135084 0.0210872 0.00128757 0.00801338 0.00156699 0.0279674 0.00257886 0.0161916 0.00347593 0.0294188 0.0034312 0.0155584 0.00305706 0.0487409
91 1 Mg 6.44662 14.247 2.9896 1.2 1 0.00100432 0.00295935 0.00152727 0.00489354 0.00244145 0.00847899 0.0029142 0.0207392 0.00259998 0.00867986 0.0018044 0.0291922 0.00304317 0.0159149 0.00330108 0.0297368 0.00397705 0.0176293 0.00473804 0.0491947
92 3 O 4.81537 15.5644 2.79288 -1.2 1 0.00184329 0.00287501 0.00175053 0.00455895 0.00233629 0.0085924 0.00183552 0.0216716 0.00171629 0.00849705 0.0017445 0.0279734 0.00300732 0.0161206 0.00384107 0.0296444 0.00472588 0.0171285 0.00484768 0.0496372
93 1 Mg -0.948271 14.2883 4.4844 1.2 1 0.00221624 0.00340065 0.00175374 0.00451008 0.00294274 0.0077529 0.00287454 0.0213124 0.00279054 0.00827235 0.00263021 0.0284922 0.00383078 0.0165051 0.00526127 0.0303819 0.00563481 0.0192777 0.00590277 0.0506339
94 2 Si -2.75928 16.9724 4.4844 2.4 1 0.00223516 0.00317812 0.00177989 0.00460285 0.00299063 0.00774255 0.0029079 0.0216156 0.00271918 0.00771322 0.00238326 0.0277695 0.00374152 0.0165473 0.00479629 0.0293277 0.0048796 0.0182563 0.00558394 0.051226
95 3 O -2.81617 15.3592 4.4844 -1.2 1 0.00253214 0.00323552 0.00184178 0.0045122 0.00311253 0.00768768 0.00312494 0.0208553 0.00263964 0.00769235 0.00211437 0.0284784 0.00362783 0.0154153 0.00452465 0.0302368 0.00564476 0.0185783 0.00624395 0.0505641
96 3 O 0.862762 17.9465 4.4844 -1.2 1 0.00260142 0.0036899 0.00143231 0.00443038 0.00308281 0.0083182 0.00239978 0.0220521 0.00260487 0.00771947 0.0022218 0.0280349 0.00373534 0.0163709 0.00457991 0.0288917 0.00556972 0.0185065 0.00577289 0.0509681
97 3 O -2.0185 17.6786 3.18632 -1.2 1 0.00239817 0.00283558 0.00178726 0.00402871 0.00277413 0.007387 0.0024778 0.0220372 0.00247357 0.00782136 0.00184609 0.0274262 0.00338681 0.0161892 0.00461852 0.0297235 0.00473012 0.0172782 0.00497364 0.0505562
98 3 O -2.06164 17.6786 5.78248 -1.2 1 0.00258341 0.00360694 0.00141553 0.00435355 0.00316483 0.00654831 0.00255011 0.0217585 0.00263827 0.00776628 0.00265086 0.0267069 0.00371811 0.0164716 0.00503525 0.0301237 0.00554345 0.0202177 0.00580558 0.0520146
99 1 Mg 1.39817 16.6215 2.9896 1.2 1 0.00243423 0.00305088 0.00165031 0.00488979 0.00260573 0.00834796 0.00266575 0.0211182 0.00254393 0.00792089 0.00174088 0.028535 0.00265518 0.0164786 0.0033388 0.0293823 0.00428973 0.0166064 0.00431749 0.0496606
100 1 Mg 4.20062 16.5802 4.4844 1.2 1 0.00203305 0.00305437 0.00199245 0.00451585 0.00285708 0.00761189 0.00284247 0.0215203 0.00284139 0.00756207 0.00262126 0.0281267 0.00345086 0.0166993 0.00574883 0.0298138 0.00602247 0.0184529 0.00583162 0.0508585
101 2 Si 2.37796 18.645 4.4844 2.4 1 0.00248339 0.00316585 0.00160624 0.00448909 0.00308507 0.00788922 0.0029696 0.0220258 0.00269394 0.00772243 0.00240812 0.0272785 0.00367737 0.0166487 0.00468063 0.0288112 0.00512467 0.0178155 0.00557408 0.051771
102 3 O 2.39434 20.2583 4.4844 -1.2 1 0.00262575 0.00354331 0.00147643 0.00416389 0.00304355 0.00694219 0.00274041 0.0210589 0.00258719 0.00712848 0.00172309 0.0276789 0.00353408 0.0162092 0.00419025 0.0293268 0.00533256 0.0176071 0.00622706 0.0512649
103 3 O -4.24274 17.671 4.4844 -1.2 1 0.00191118 0.00350283 0.00197231 0.00454665 0.00304499 0.00844147 0.00297373 0.0221144 0.00281552 0.00773307 0.00225281 0.0278929 0.00330884 0.0160539 0.00508942 0.0294144 0.00549719 0.0184147 0.00593908 0.050832
104 3 O 3.08659 17.9389 3.18632 -1.2 1 0.00245897 0.00270009 0.00164368 0.00420772 0.00281411 0.00772032 0.00217793 0.021846 0.00226395 0.00772526 0.00192383 0.0273756 0.00320573 0.0163216 0.00443017 0.0292995 0.00515995 0.0170235 0.00516704 0.0505335
105 1 Mg 1.44478 16.6215 0 1.2 1 0.00262091 0.00224015 0.00133171 0.00444992 0.00136638 0.0089683 0.00106564 0.0210435 0.00147634 0.00805807 0.00161483 0.0284573 0.00220317 0.0155797 0.00224852 0.0292361 0.00306065 0.0157223 0.00312768 0.0482052
106 3 O 3.0436 17.9389 5.78248 -1.2 1 0.00190305 0.00385265 0.00167665 0.00445789 0.00314573 0.00677967 0.0027541 0.0215377 0.00245826 0.00754843 0.0026317 0.026717 0.00380924 0.0161544 0.00512886 0.0300974 0.00561566 0.0202756 0.00599928 0.0516165
107 1 Mg -1.40524 16.6628 1.4948 1.2 1 0.00187803 0.00275677 0.00148781 0.00463675 0.001802 0.00863712 0.00184123 0.021966 0.00210797 0.00823741 0.00153303 0.0280463 0.00301777 0.0164045 0.00277971 0.0293526 0.00321628 0.0163085 0.00333475 0.0490201
108 2 Si 0.420358 14.5979 1.4948 2.4 1 0.00139119 0.00252627 0.00169782 0.00506767 0.00194435 0.00906074 0.00186173 0.0212345 0.00176082 0.00829767 0.00143251 0.028578 0.00288973 0.0163545 0.00352429 0.0290039 0.00345873 0.016304 0.00332409 0.0489719
109 3 O 0.408732 12.9847 1.4948 -1.2 1 0.000876937 0.00248779 0.00146252 0.00501533 0.00185247 0.00894411 0.00147681 0.021025 0.00214682 0.00854693 0.00141814 0.0291835 0.00302323 0.0159688 0.00308378 0.0300119 0.00317644 0.0169865 0.0036053 0.0489566
110 3 O 7.03923 15.572 1.4948 -1.2 1 0.0014087 0.00279809 0.00136513 0.00478619 0.00189194 0.00819706 0.00227399 0.0215089 0.00226715 0.00815314 0.00155719 0.0292406 0.00268825 0.0161807 0.00288796 0.0297813 0.00361055 0.0166061 0.00380386 0.0491267
111 3 O -0.248332 15.3041 0.196716 -1.2 1 0.002132 0.00227015 0.00125127 0.00484394 0.00112527 0.00909988 0.0018116 0.021079 0.00147252 0.00838571 0.00180285 0.0280022 0.00284826 0.0156858 0.00365776 0.0292151 0.00312199 0.0158861 0.00308993 0.0483947
112 3 O -0.289436 15.3041 2.79288 -1.2 1 0.00241627 0.003022 0.00131754 0.00468841 0.00246475 0.00846645 0.00186992 0.0218595 0.0018284 0.00873972 0.00192419 0.0275384 0.00299412 0.0163359 0.00351793 0.0296515 0.00444127 0.0177744 0.00439588 0.0497468
113 1 Mg 6.59566 18.996 0 1.2 1 0.00179403 0.00284468 0.00142421 0.00421758 0.00102254 0.00859375 0.00101932 0.021606 0.00119748 0.00769358 0.0014714 0.0277333 0.00198422 0.0163216 0.002235 0.0288018 0.00312907 0.015472 0.00294279 0.0486118
114 1 Mg 3.85574 23.7037 1.4948 1.2 1 0.00227147 0.00270975 0.00110216 0.00391392 0.00160799 0.00736602 0.00125769 0.0227944 0.00160576 0.00740619 0.00214819 0.0265449 0.00242089 0.0173558 0.00360193 0.0284833 0.00335695 0.0166597 0.00334704 0.0506785
115 2 Si 5.66125 21.0195 1.4948 2.4 1 0.00234669 0.0026347 0.00122241 0.00410241 0.00188254 0.00809251 0.00154834 0.0215892 0.0012017 0.00736339 0.0014066 0.0274869 0.00256006 0.0170916 0.00273229 0.0280395 0.00352977 0.0152043 0.00406649 0.0500566
116 3 O 5.72074 22.6328 1.4948 -1.2 1 0.00245052 0.00282858 0.00163524 0.00388839 0.00174413 0.00807542 0.00149711 0.0220229 0.00178421 0.00711834 0.00138084 0.0273589 0.0021833 0.0169895 0.00304953 0.0284411 0.00325006 0.0157968 0.0035922 0.0500233
117 3 O 2.03867 20.0455 1.4948 -1.2 1 0.00233792 0.00306411 0.00130145 0.0042276 0.00181288 0.00775886 0.00200417 0.0219717 0.00228945 0.00736049 0.00141925 0.0279569 0.00211365 0.0169254 0.00264475 0.0288719 0.00362016 0.0156549 0.00351099 0.0499909
118 3 O 4.96004 20.3134 0.196716 -1.2 1 0.00220913 0.00240521 0.00135098 0.00401877 0.00134341 0.00819962 0.00112384 0.0214448 0.00102188 0.00743117 0.00176833 0.0272323 0.00274683 0.0163444 0.00379205 0.0287214 0.00332232 0.0147744 0.00315659 0.0492597
119 1 Mg 6.55057 18.996 2.9896 1.2 1 0.00165655 0.0032002 0.00141613 0.0041406 0.00256007 0.0079469 0.00283825 0.0210196 0.00268195 0.00791567 0.00189716 0.0286598 0.00305873 0.0165971 0.00322675 0.0288672 0.00395621 0.0165772 0.00459529 0.0496312