ITEM: TIMESTEP
37000
ITEM: NUMBER OF ATOMS
10500
ITEM: BOX BOUNDS xy xz yz pp pp pp
0	15.2977	5.09925
0	118.725	0
0	89.688	0
ITEM: ATOMS id type element xu yu zu q Q_1 Q_2 Q_3 Q_4 Q_5 Q_6 Q_7 Q_8 Q_9 Q_10 Q_11 Q_12 Q_13 Q_14 Q_15 Q_16 Q_17 Q_18 Q_19 Q_20 Q_21
1 1 Mg 6.2404 -6.37941e-06 0 1.2 1 0.00138551 0.00467765 0.00133094 0.0047087 0.00146737 0.00573148 0.00212916 0.0160299 0.0024475 0.00548309 0.00233428 0.0216811 0.0029176 0.0137859 0.00358736 0.0206509 0.00412565 0.0142938 0.00412229 0.0404391
2 1 Mg 3.46349 4.70768 1.4948 1.2 1 0.00109476 0.00369171 0.00166582 0.00452265 0.00198603 0.00620067 0.00347265 0.0187683 0.00277377 0.00691707 0.00292452 0.0254482 0.00327002 0.0139518 0.00439852 0.0252149 0.00536394 0.0168489 0.0054498 0.0439468
3 2 Si 5.2885 2.02354 1.4948 2.4 1 0.000370264 0.00369815 0.00204463 0.0045645 0.0020025 0.00590917 0.00252693 0.0171761 0.00251442 0.00609232 0.00225082 0.0231197 0.00289972 0.0137326 0.00370829 0.0215935 0.00386399 0.0151909 0.00421224 0.0414783
4 3 O 5.33628 3.63678 1.4948 -1.2 1 0.000655412 0.00313145 0.0016821 0.00481122 0.00223477 0.00640286 0.00287184 0.0178728 0.00224482 0.00666399 0.00204497 0.0250235 0.00270034 0.0138309 0.00440926 0.0240659 0.00497596 0.0160797 0.00561714 0.0430345
5 3 O 1.67294 1.04952 1.4948 -1.2 1 0.00129663 0.00372115 0.00217797 0.0043197 0.00145055 0.00593261 0.0022515 0.0170884 0.00246588 0.00600339 0.00216609 0.0226999 0.00257959 0.0129778 0.00327975 0.0219476 0.0046242 0.0155243 0.00456834 0.0405541
6 3 O 4.59532 1.31737 0.196716 -1.2 1 0.000982087 0.00376717 0.00208762 0.00420718 0.0022719 0.00580968 0.0025922 0.0171299 0.00273871 0.00602569 0.00199438 0.0221059 0.00340352 0.0130671 0.00418223 0.02157 0.0041024 0.0148186 0.00463208 0.040958
7 1 Mg 6.18956 -6.37941e-06 2.9896 1.2 1 0.00055049 0.00430193 0.00161487 0.00432752 0.00160107 0.00581561 0.00244103 0.0162141 0.00266126 0.00543422 0.00185443 0.022508 0.00267163 0.0133368 0.00377617 0.020596 0.00455049 0.0147468 0.00464141 0.039376
8 3 O 4.55118 1.31737 2.79288 -1.2 1 0.000909928 0.00417163 0.00189904 0.00430752 0.0020589 0.00602981 0.0024242 0.0171522 0.00252608 0.0068056 0.00219437 0.021879 0.00316134 0.0124003 0.00347176 0.0216302 0.00473859 0.0153297 0.0049375 0.0406772
9 1 Mg -1.20682 0.0413099 4.4844 1.2 1 0.000416236 0.00269138 0.0019277 0.0050215 0.00154151 0.00574983 0.00194878 0.016266 0.00207182 0.00569943 0.00202726 0.0226687 0.00303813 0.0116178 0.00357629 0.0204864 0.0052318 0.0157672 0.00483536 0.039142
10 2 Si -3.0337 2.72544 4.4844 2.4 1 0.000313357 0.0030089 0.00176952 0.00522089 0.00255377 0.00635043 0.00324937 0.0168965 0.00304128 0.00604672 0.0021812 0.0242439 0.00323829 0.0128529 0.00406987 0.022375 0.00525496 0.0175923 0.0058486 0.0405551
11 3 O -3.08099 1.11221 4.4844 -1.2 1 0.000447109 0.00301227 0.00181528 0.0046596 0.00151182 0.00562478 0.00225266 0.0163238 0.0025183 0.00553044 0.00211983 0.022392 0.00339307 0.0113142 0.00367675 0.0210879 0.00503968 0.0161997 0.00523107 0.0391211
12 3 O 0.582463 3.69946 4.4844 -1.2 1 0.00147213 0.00415156 0.00217851 0.00475565 0.00266319 0.00709268 0.00361368 0.0175218 0.00337649 0.00651542 0.00299119 0.0251774 0.004034 0.0129846 0.00428544 0.024404 0.00672924 0.0183215 0.00771456 0.0425838
13 3 O -2.29524 3.43162 3.18632 -1.2 1 0.000768793 0.00286883 0.00266477 0.00472579 0.00230895 0.00625126 0.00289203 0.0181743 0.00308717 0.00665135 0.0026048 0.0247056 0.00312567 0.013136 0.00476311 0.0243572 0.00599918 0.0176225 0.00631816 0.0428903
14 3 O -2.34216 3.43162 5.78248 -1.2 1 0.000665338 0.00326646 0.00106055 0.00533951 0.00271909 0.00636851 0.00314419 0.0172472 0.00275128 0.00700176 0.00287939 0.02383 0.0044533 0.0121294 0.00420319 0.0232829 0.00602501 0.0191174 0.00750533 0.041269
15 1 Mg 1.12778 2.37449 2.9896 1.2 1 0.00131822 0.00367311 0.00249763 0.00477934 0.00219145 0.00621645 0.00306192 0.0169225 0.00245178 0.00604541 0.00239468 0.023661 0.00326734 0.0130016 0.00342946 0.0220408 0.0046872 0.0163686 0.0052527 0.0413856
16 1 Mg 3.92855 2.33318 4.4844 1.2 1 0.00120002 0.00390713 0.00131835 0.00449863 0.0018185 0.00623545 0.00334661 0.0170725 0.00308819 0.00622975 0.00276345 0.0231927 0.00347294 0.0132822 0.00513977 0.0219789 0.00613976 0.0171385 0.00630908 0.0411311
17 2 Si 2.09341 4.39804 4.4844 2.4 1 0.00118793 0.00402183 0.00200241 0.00450199 0.00284751 0.00638282 0.00370122 0.0185134 0.00333637 0.00658626 0.00326377 0.0251898 0.00436382 0.0140864 0.00451298 0.0248433 0.00655648 0.0181343 0.0079066 0.0443879
18 3 O 2.09991 6.01128 4.4844 -1.2 1 0.001668 0.00426521 0.00165927 0.00432049 0.00285607 0.00679109 0.00314348 0.0194317 0.00260893 0.00725977 0.00313075 0.0270038 0.0041019 0.0143479 0.00483801 0.0274966 0.00664678 0.0190214 0.00775731 0.0461069
19 3 O -4.52137 3.42402 4.4844 -1.2 1 0.00106669 0.00339348 0.00217571 0.00473621 0.00242382 0.00723577 0.00338759 0.0172922 0.00336107 0.00621924 0.00302935 0.0239397 0.00380385 0.0127945 0.0043517 0.0231215 0.00619432 0.0175851 0.0073467 0.0421403
20 3 O 2.80834 3.69187 3.18632 -1.2 1 0.0013441 0.0039107 0.00178664 0.00393065 0.00201871 0.00621777 0.00299315 0.0176681 0.0031002 0.00635608 0.00261642 0.0242585 0.00342709 0.0130342 0.00477415 0.0239758 0.0055211 0.0168288 0.00598605 0.0432029
21 1 Mg 1.17857 2.37449 0 1.2 1 0.00192674 0.0040184 0.00225126 0.00412924 0.00164267 0.00572076 0.00245241 0.0173801 0.0024778 0.00657789 0.00267796 0.0229956 0.00295141 0.0134644 0.00358953 0.0218244 0.00454727 0.0149809 0.00474314 0.0408639
22 3 O 2.76143 3.69187 5.78248 -1.2 1 0.00150476 0.00403196 0.00173793 0.00466483 0.0022674 0.00593881 0.00285657 0.0179632 0.00328308 0.00692032 0.00324299 0.0238197 0.0048136 0.0128028 0.00549888 0.0233145 0.00647346 0.0184966 0.00743455 0.0421362
23 1 Mg -1.67381 2.41581 1.4948 1.2 1 0.00100725 0.00284393 0.00283647 0.00484795 0.00153285 0.00613504 0.00233806 0.0167409 0.00267795 0.00628364 0.00201037 0.0240623 0.00253944 0.0142791 0.00276132 0.0223203 0.00443716 0.0159284 0.00477186 0.0419701
24 2 Si 0.16286 0.350945 1.4948 2.4 1 0.00156315 0.00313753 0.00287996 0.00454918 0.00147645 0.0065818 0.00271253 0.0165186 0.00218664 0.00511319 0.00188719 0.0229168 0.00246401 0.0135586 0.00306527 0.0208811 0.0046433 0.0148165 0.00434962 0.040635
25 3 O 0.15972 -1.26229 1.4948 -1.2 1 0.00173677 0.00297837 0.00295807 0.00452533 0.00179444 0.00636209 0.00257469 0.0164091 0.00227585 0.00519993 0.00246103 0.0227438 0.00257566 0.0138877 0.00313962 0.0218278 0.00441076 0.0147354 0.00391949 0.0409285
26 3 O 6.77654 1.32496 1.4948 -1.2 1 0.000875059 0.00402353 0.00180103 0.00461992 0.00136525 0.00600769 0.00228944 0.0168663 0.00257881 0.00552849 0.00185551 0.0234912 0.00284961 0.0135569 0.00354492 0.0219263 0.00466713 0.0151742 0.00436887 0.0410611
27 3 O -0.508028 1.05712 0.196716 -1.2 1 0.00155973 0.00335313 0.00348114 0.00413529 0.00131842 0.00582118 0.00246335 0.0171378 0.00183385 0.00649706 0.0024384 0.0221423 0.0027146 0.0129894 0.00309036 0.0214102 0.00429135 0.0151306 0.00446852 0.0402214
28 3 O -0.552171 1.05712 2.79288 -1.2 1 0.000633521 0.00247039 0.00318969 0.00479964 0.00159417 0.00636221 0.00233694 0.0164709 0.0023658 0.00615132 0.00176288 0.0228989 0.00292022 0.0119373 0.00368192 0.0216045 0.0051851 0.0157292 0.00457785 0.0402579
29 1 Mg 6.31713 4.74899 0 1.2 1 0.000794006 0.0034323 0.00196148 0.00463929 0.0024047 0.00617362 0.00335207 0.0180206 0.00276291 0.00690611 0.00239606 0.0248566 0.0030538 0.01397 0.00442194 0.0246732 0.00485596 0.016207 0.00583689 0.0427933
30 1 Mg 3.54847 9.45668 1.4948 1.2 1 0.000932321 0.00304195 0.00193562 0.00481525 0.00201231 0.00777448 0.00314718 0.0213489 0.00164758 0.00843281 0.00241099 0.0284732 0.00345806 0.0157234 0.00402374 0.0292355 0.00421398 0.0179409 0.0038754 0.0487611
31 2 Si 5.36879 6.77254 1.4948 2.4 1 0.000639033 0.00325068 0.00215614 0.00524005 0.00282384 0.00697808 0.00368838 0.019502 0.00264317 0.00765933 0.00252742 0.0274545 0.00325276 0.0154535 0.00444594 0.0270577 0.00466844 0.0169405 0.00504178 0.0465438
32 3 O 5.41937 8.38578 1.4948 -1.2 1 0.000753275 0.00316827 0.00196513 0.0051904 0.00228754 0.0078669 0.0031431 0.0209027 0.00211212 0.0082272 0.00253455 0.0288642 0.00249039 0.0157149 0.0033881 0.0291288 0.00469608 0.0172228 0.00480956 0.0480508
33 3 O 1.75158 5.79852 1.4948 -1.2 1 0.00112409 0.00362082 0.00197293 0.00429412 0.00234082 0.00620562 0.00326737 0.0196251 0.00280027 0.00722781 0.00272709 0.0277335 0.00309092 0.0156154 0.00365161 0.0268975 0.00524959 0.0173135 0.00527481 0.0458286
34 3 O 4.67421 6.06637 0.196716 -1.2 1 0.0005501 0.00367134 0.00174773 0.00487956 0.00210184 0.00693849 0.00297734 0.0196767 0.00242823 0.00801361 0.00234978 0.0259189 0.00370767 0.0145394 0.00438915 0.0266906 0.00486963 0.0164545 0.00546273 0.0449436
35 1 Mg 6.26654 4.74899 2.9896 1.2 1 0.00139711 0.0031942 0.00224171 0.00506994 0.00272669 0.00668713 0.00369751 0.018133 0.00378916 0.00713742 0.00235194 0.0260256 0.00382713 0.0146249 0.00510391 0.0249871 0.00587767 0.0172614 0.00667134 0.0440432
36 3 O 4.63043 6.06637 2.79288 -1.2 1 0.00208116 0.00334224 0.00182512 0.00501555 0.00233744 0.00699656 0.00341524 0.0194973 0.0032591 0.00789612 0.0025058 0.0260008 0.00400778 0.0147784 0.00497687 0.0273439 0.005718 0.0178439 0.00644718 0.0459386
37 1 Mg -1.12976 4.79031 4.4844 1.2 1 0.00124548 0.00362827 0.00193559 0.0050241 0.00252564 0.00652506 0.00329564 0.018199 0.00343801 0.00693363 0.00298814 0.0263015 0.0041432 0.0143395 0.0047139 0.0257634 0.00711344 0.0188281 0.0076433 0.0449076
38 2 Si -2.9517 7.47444 4.4844 2.4 1 0.0019189 0.00380242 0.00146313 0.00543076 0.00303243 0.00684366 0.00387145 0.0203245 0.00312611 0.00781533 0.00304322 0.0276748 0.00461785 0.0158942 0.00531202 0.0283185 0.00677324 0.0190719 0.00782544 0.047918
39 3 O -3.00198 5.86121 4.4844 -1.2 1 0.00122793 0.00389688 0.00127631 0.00504453 0.00332314 0.00669756 0.0042819 0.0189703 0.00354336 0.00760502 0.00273483 0.0260376 0.00447947 0.0140863 0.00465011 0.0269976 0.00666329 0.0193547 0.0080684 0.0459752
40 3 O 0.666315 8.44846 4.4844 -1.2 1 0.00180475 0.00457825 0.00148036 0.00518575 0.00306614 0.0077611 0.00303788 0.0212267 0.00285694 0.00781481 0.00342994 0.0287075 0.00484445 0.0156035 0.00458825 0.0294456 0.0063244 0.0197018 0.00780219 0.0489734
41 3 O -2.21213 8.18062 3.18632 -1.2 1 0.00153145 0.00389171 0.00159702 0.00478737 0.00262042 0.00665808 0.00284746 0.0208135 0.00262948 0.008135 0.00288065 0.0276115 0.00430092 0.0156556 0.00507867 0.02911 0.00606549 0.0185314 0.00651511 0.0484756
42 3 O -2.25864 8.18062 5.78248 -1.2 1 0.00193635 0.0045773 0.00159874 0.00498641 0.00335705 0.00628121 0.0030008 0.0206546 0.00244152 0.00821282 0.00376774 0.0271617 0.00489885 0.0161481 0.00573612 0.0294454 0.00715718 0.0206559 0.00812433 0.0491931
43 1 Mg 1.20893 7.12349 2.9896 1.2 1 0.00120982 0.00382243 0.00193816 0.00451989 0.0029322 0.00698051 0.00384689 0.0197303 0.00268363 0.00797003 0.00294593 0.0279804 0.00373203 0.0157788 0.00417971 0.0275452 0.00552543 0.0181925 0.00602814 0.0470508
44 1 Mg 4.00982 7.08218 4.4844 1.2 1 0.0018923 0.00377231 0.0015141 0.00496523 0.00254995 0.0067716 0.00373231 0.0202228 0.00344736 0.00780158 0.00335566 0.0273597 0.00440268 0.0165011 0.00615172 0.0283142 0.00699749 0.0192678 0.00798834 0.0476002
45 2 Si 2.17861 9.14704 4.4844 2.4 1 0.00154617 0.00393367 0.00165069 0.00521366 0.00297282 0.00772898 0.00373461 0.0213057 0.00262519 0.00812238 0.00314462 0.0284309 0.00518028 0.0163459 0.004765 0.0296365 0.00564385 0.019432 0.00678631 0.0501256
46 3 O 2.18828 10.7603 4.4844 -1.2 1 0.00251866 0.00423467 0.00182557 0.00488623 0.00276524 0.00736373 0.00278526 0.0209255 0.00228357 0.00810077 0.00235577 0.0288364 0.00444882 0.0154981 0.00450406 0.030857 0.0057914 0.0197402 0.00657354 0.0505983
47 3 O -4.43805 8.17302 4.4844 -1.2 1 0.00140931 0.00423177 0.00155861 0.00528288 0.00250043 0.00803498 0.00325643 0.0206089 0.00299936 0.00822881 0.00315386 0.0283367 0.00482839 0.0157259 0.00487327 0.0294516 0.00660699 0.0193805 0.00843801 0.0481466
48 3 O 2.89193 8.44087 3.18632 -1.2 1 0.00184028 0.00347447 0.00165342 0.00454054 0.00249561 0.00710525 0.00323899 0.0206571 0.00265663 0.00844683 0.00305496 0.0276455 0.0042575 0.0158363 0.00511425 0.0292903 0.00570004 0.0185476 0.00583021 0.0487579
49 1 Mg 1.25915 7.12349 0 1.2 1 0.00075958 0.00331152 0.00172078 0.00429791 0.00171307 0.00728932 0.00295807 0.0202715 0.00287572 0.00829828 0.00282184 0.0271068 0.00348434 0.0146625 0.00380899 0.0275502 0.0048278 0.0172904 0.00453444 0.0458596
50 3 O 2.84547 8.44087 5.78248 -1.2 1 0.0019247 0.00457756 0.00156629 0.00485538 0.00275195 0.00695359 0.00335826 0.0210207 0.00298077 0.00873528 0.00344677 0.027129 0.00563942 0.0159996 0.0055316 0.0295383 0.00611417 0.0208437 0.00753316 0.0494031
51 1 Mg -1.59284 7.16481 1.4948 1.2 1 0.000867502 0.00343188 0.00166661 0.0047301 0.00188052 0.0064965 0.00281012 0.0199133 0.00278968 0.00780886 0.00201546 0.0276157 0.00347333 0.0156737 0.00390578 0.0273348 0.00468784 0.0173371 0.00548593 0.0466747
52 2 Si 0.240329 5.09994 1.4948 2.4 1 0.000927438 0.00392346 0.00225515 0.00425473 0.00194598 0.0069877 0.00313955 0.0190412 0.0031002 0.00734362 0.0023508 0.0258716 0.00304001 0.0146937 0.00416563 0.0248985 0.00498889 0.0166571 0.00520108 0.0447353
53 3 O 0.234538 3.48671 1.4948 -1.2 1 0.0014096 0.0040094 0.00286651 0.00441271 0.00199075 0.00664133 0.00263448 0.0179973 0.00337877 0.00687549 0.00245378 0.0244585 0.00327451 0.0137609 0.00386599 0.0240931 0.0053963 0.0159423 0.00545978 0.0427394
54 3 O 6.85564 6.07396 1.4948 -1.2 1 0.00117736 0.00296718 0.00244193 0.0049925 0.00258154 0.00627704 0.0030946 0.0199587 0.00300711 0.00751787 0.00213136 0.0274952 0.00325066 0.0148526 0.00483219 0.0270441 0.00551288 0.0173338 0.00603536 0.0456267
55 3 O -0.429565 5.80612 0.196716 -1.2 1 0.000904164 0.0036495 0.0024399 0.00413332 0.001884 0.00721332 0.00258542 0.0195504 0.00284411 0.00840145 0.00262015 0.0254269 0.00275633 0.0143708 0.00407828 0.0259379 0.00514282 0.0166286 0.00570354 0.0450886
56 3 O -0.473377 5.80612 2.79288 -1.2 1 0.00122786 0.00343082 0.00217517 0.00462982 0.00250574 0.00694672 0.00323271 0.0192797 0.0029175 0.00774999 0.00307665 0.0261066 0.00375682 0.0144547 0.00451721 0.0264904 0.00617969 0.0181597 0.00648169 0.0460316
57 1 Mg 6.40169 9.49799 0 1.2 1 0.000393086 0.00383842 0.00164937 0.00491029 0.00147172 0.00843469 0.0019719 0.0209739 0.00165068 0.00884404 0.00193741 0.0284304 0.00273775 0.0150017 0.00286249 0.0299182 0.00387445 0.0176358 0.00406158 0.0472752
58 1 Mg 3.64209 14.2057 1.4948 1.2 1 0.00183246 0.00313129 0.00166296 0.00461448 0.00155593 0.00892252 0.00168451 0.021552 0.00169705 0.00869696 0.00241612 0.0282351 0.00291137 0.0160322 0.00323723 0.029587 0.00381151 0.0166847 0.00348338 0.0495846
59 2 Si 5.45748 11.5215 1.4948 2.4 1 0.00162499 0.00315173 0.00184046 0.00487028 0.00173833 0.00844075 0.00217538 0.0210662 0.00152775 0.00830619 0.0018836 0.0287738 0.00277349 0.0162137 0.00366518 0.0292996 0.00409067 0.0167276 0.00379439 0.0491698
60 3 O 5.51101 13.1348 1.4948 -1.2 1 0.00196562 0.00313428 0.0018512 0.00479763 0.00153252 0.00924367 0.00189227 0.0211013 0.00182606 0.00872552 0.00183797 0.0293014 0.00251186 0.0160794 0.00314166 0.0299363 0.00391558 0.0164166 0.00347912 0.0491028
61 3 O 1.83851 10.5475 1.4948 -1.2 1 0.000684472 0.00313758 0.00185652 0.00486501 0.00172313 0.00784925 0.00245098 0.0215494 0.00170669 0.00843463 0.00225815 0.0293685 0.00291086 0.015895 0.0035013 0.0299398 0.00397336 0.0176512 0.00327994 0.0492035
62 3 O 4.7611 10.8154 0.196716 -1.2 1 0.00087733 0.00285524 0.0017703 0.004751 0.001554 0.00853195 0.0021374 0.0211643 0.00142068 0.00859284 0.00182971 0.0280465 0.00287875 0.0155359 0.00379608 0.029569 0.00395327 0.0169502 0.00374987 0.0482471
63 1 Mg 6.35203 9.49799 2.9896 1.2 1 0.00116606 0.00356578 0.00171451 0.0051399 0.00250602 0.00783435 0.0033516 0.0205768 0.00296 0.00863835 0.00210013 0.0289821 0.00375882 0.015837 0.00367287 0.0293522 0.00446429 0.0182101 0.00520399 0.0487678
64 3 O 4.71833 10.8154 2.79288 -1.2 1 0.00205873 0.00321328 0.001838 0.00479274 0.00212713 0.00834746 0.00217458 0.0213068 0.0018389 0.00902539 0.00216859 0.0283674 0.00379521 0.0158734 0.00443886 0.0301539 0.00503562 0.0180924 0.00511038 0.0499263
65 1 Mg -1.0438 9.53931 4.4844 1.2 1 0.0022348 0.00456576 0.0016037 0.0047605 0.00297876 0.00705824 0.00274743 0.021097 0.00273434 0.00833497 0.00278712 0.0285625 0.00411709 0.0163997 0.00502818 0.0299128 0.00639668 0.0195628 0.0068323 0.0497362
66 2 Si -2.8604 12.2234 4.4844 2.4 1 0.00260769 0.00423573 0.00179998 0.00463323 0.00251983 0.00806473 0.00312164 0.0216958 0.00276709 0.00850591 0.00252109 0.0284266 0.00438743 0.0162664 0.00478582 0.0301193 0.00574643 0.0192898 0.00628018 0.0513806
67 3 O -2.91391 10.6102 4.4844 -1.2 1 0.00258441 0.00438798 0.00164463 0.00474611 0.00277148 0.00737113 0.00330751 0.020587 0.00248663 0.00791765 0.00212597 0.0287389 0.0045292 0.0156338 0.00467944 0.0307516 0.00579803 0.0193396 0.00660571 0.0503261
68 3 O 0.7596 13.1975 4.4844 -1.2 1 0.00306977 0.00427552 0.00190859 0.00511266 0.00255911 0.00898307 0.0027148 0.02203 0.00273935 0.00837494 0.00289728 0.0289216 0.00455375 0.0162523 0.00447173 0.030116 0.00578678 0.019418 0.0064813 0.0509971
69 3 O -2.12001 12.9296 3.18632 -1.2 1 0.00264794 0.00387625 0.00177377 0.00442617 0.00223363 0.00783983 0.00227614 0.0217831 0.00234638 0.00849552 0.00263103 0.0279391 0.00392693 0.0160595 0.00510751 0.0304713 0.00526607 0.0184021 0.00521766 0.0506804
70 3 O -2.16532 12.9296 5.78248 -1.2 1 0.00338601 0.00486682 0.00144664 0.00453996 0.00263149 0.0071167 0.00257921 0.0218855 0.00227296 0.00814141 0.00262331 0.0280124 0.00457149 0.0166041 0.00506493 0.0312193 0.00614052 0.0211806 0.006885 0.0524402
71 1 Mg 1.29891 11.8725 2.9896 1.2 1 0.00205167 0.00329591 0.00190758 0.00500552 0.00232831 0.00826894 0.00284556 0.0210368 0.00242592 0.00867921 0.00236212 0.0292148 0.00392502 0.0162849 0.00396942 0.0300211 0.00451487 0.0176374 0.00469474 0.0494551
72 1 Mg 4.10033 11.8312 4.4844 1.2 1 0.00243488 0.00392346 0.00196461 0.00463085 0.00237841 0.00768155 0.00269337 0.0214731 0.00234421 0.00830894 0.00275725 0.0290808 0.00410041 0.0170276 0.00544731 0.030484 0.00626396 0.0192963 0.00596073 0.0509108
73 2 Si 2.27333 13.896 4.4844 2.4 1 0.00289456 0.00378339 0.00187904 0.00534128 0.00286659 0.00829083 0.00316898 0.0217936 0.00236548 0.00820511 0.0029653 0.0283072 0.00414336 0.0166317 0.00457558 0.0302535 0.00533182 0.0187739 0.0061349 0.0518866
74 3 O 2.28634 15.5093 4.4844 -1.2 1 0.00313138 0.00434765 0.00197315 0.00474642 0.0029278 0.00764389 0.00282574 0.0208662 0.00253555 0.00759454 0.00261303 0.0287995 0.00385116 0.015913 0.00438348 0.0305567 0.00560878 0.0185304 0.00609205 0.0514349
75 3 O -4.34533 12.922 4.4844 -1.2 1 0.00253593 0.00433015 0.00184371 0.00482514 0.00253692 0.00876852 0.00289938 0.0216784 0.00260586 0.00842153 0.0027402 0.028965 0.00460541 0.0160427 0.00498806 0.0303874 0.00626574 0.0196719 0.00662856 0.050948
76 3 O 2.98455 13.1899 3.18632 -1.2 1 0.00253934 0.00337413 0.00189438 0.00453874 0.00236645 0.00816637 0.00230763 0.0218028 0.00209409 0.00865934 0.00238703 0.0282009 0.00377688 0.0160443 0.00468799 0.0300449 0.00540318 0.0181318 0.00530249 0.0503554
77 1 Mg 1.34779 11.8725 0 1.2 1 0.00164 0.00282787 0.0011936 0.00466405 0.00135008 0.00890134 0.00170746 0.0210964 0.00121116 0.0091709 0.00202091 0.0287562 0.00284637 0.0150573 0.00326972 0.0299912 0.00364086 0.0169045 0.00343209 0.0479293
78 3 O 2.93934 13.1899 5.78248 -1.2 1 0.00289946 0.00470968 0.00170602 0.00474851 0.00253029 0.00733069 0.0026063 0.0217277 0.00235611 0.00813239 0.00327391 0.027903 0.00439519 0.0164666 0.00476914 0.031187 0.00592277 0.0213143 0.00628658 0.0522342
79 1 Mg -1.50344 11.9138 1.4948 1.2 1 0.00124147 0.0036087 0.00154248 0.00476161 0.00130715 0.00840993 0.00193416 0.0215013 0.00229771 0.00845269 0.00172181 0.0285862 0.00377278 0.016184 0.00371142 0.0298622 0.00356607 0.01728 0.00368975 0.0490497
80 2 Si 0.326006 9.84894 1.4948 2.4 1 0.00028997 0.00314115 0.00142256 0.00504609 0.00188363 0.00827591 0.00201603 0.0210711 0.00215334 0.00844446 0.00175351 0.0284231 0.00323317 0.0158713 0.00392195 0.0289245 0.00377135 0.0174622 0.00354159 0.0484994
81 3 O 0.317364 8.23571 1.4948 -1.2 1 0.000965569 0.00339297 0.00145852 0.00458683 0.0018705 0.00777599 0.00223292 0.0202712 0.00257113 0.00807726 0.00205793 0.0285501 0.0036034 0.0159997 0.0039947 0.0287411 0.00440566 0.0174298 0.00411763 0.0476667
82 3 O 6.94307 10.823 1.4948 -1.2 1 0.00092173 0.00357389 0.00163181 0.00476655 0.00173687 0.00789919 0.00270251 0.0216824 0.00227235 0.0083401 0.00155657 0.0294728 0.00306273 0.0159255 0.00356137 0.0300203 0.0037882 0.0177438 0.00406405 0.0492239
83 3 O -0.343122 10.5551 0.196716 -1.2 1 0.000641409 0.00318255 0.00128281 0.00480037 0.00147598 0.0086022 0.00189395 0.0211783 0.00179221 0.00886105 0.00207137 0.0279992 0.00340952 0.0157413 0.00427516 0.0294674 0.00363343 0.0171161 0.00366657 0.0484395
84 3 O -0.385966 10.5551 2.79288 -1.2 1 0.00223447 0.00365753 0.00147817 0.00459826 0.00243703 0.00818276 0.00230218 0.02149 0.00189803 0.00899723 0.00233756 0.0277697 0.00392271 0.0159632 0.00425791 0.029982 0.00501412 0.0183711 0.00499539 0.0495692
85 1 Mg 6.49448 14.247 0 1.2 1 0.00206217 0.00335024 0.00177408 0.00477126 0.00122069 0.0093948 0.00118756 0.0210588 0.00140022 0.00858753 0.00177474 0.0285056 0.00195355 0.0155962 0.00250579 0.0300809 0.003304 0.0163145 0.00291352 0.0482429
86 1 Mg 3.74457 18.9547 1.4948 1.2 1 0.00208303 0.00351441 0.00128403 0.00398402 0.00164462 0.00867 0.00121193 0.0220345 0.00195116 0.00790267 0.00231212 0.0274579 0.00260469 0.0164207 0.00350942 0.0288719 0.00362377 0.016225 0.00341033 0.0500225
87 2 Si 5.55495 16.2705 1.4948 2.4 1 0.00229877 0.00300553 0.00168256 0.00450961 0.00181958 0.00904366 0.00139994 0.0212429 0.00143002 0.00794302 0.00147943 0.0284717 0.00252844 0.0162348 0.00302449 0.0290999 0.00378557 0.0157892 0.0036695 0.0495092
88 3 O 5.6115 17.8838 1.4948 -1.2 1 0.00189247 0.0032201 0.00166933 0.00418389 0.0017959 0.00926434 0.00158832 0.0215194 0.00192308 0.00779365 0.00160152 0.0285425 0.00230893 0.0163879 0.00289935 0.0291255 0.00334898 0.015603 0.00345919 0.0496422
89 3 O 1.93416 15.2965 1.4948 -1.2 1 0.00189359 0.00313944 0.00180634 0.00460153 0.00176271 0.00848451 0.00212871 0.0217763 0.00185327 0.00803681 0.0016668 0.029013 0.00245264 0.0161951 0.00304243 0.0298187 0.00379773 0.0163385 0.00341443 0.0498278
90 3 O 4.85636 15.5644 0.196716 -1.2 1 0.00228237 0.00274604 0.00140989 0.00449168 0.00125659 0.00929605 0.0014431 0.0211902 0.00122091 0.00824775 0.00173018 0.0277461 0.00258776 0.0160291 0.00341271 0.0294672 0.00350263 0.0156403 0.00321308 0.0490582
91 1 Mg 6.44662 14.247 2.9896 1.2 1 0.00151323 0.0036069 0.00166122 0.00456938 0.002303 0.00870663 0.00296438 0.0207768 0.00259549 0.00871183 0.00228274 0.0294116 0.00351106 0.0162972 0.0035294 0.0297085 0.0039491 0.0174116 0.00451084 0.0497041
92 3 O 4.81537 15.5644 2.79288 -1.2 1 0.00247354 0.00344743 0.00161828 0.00435506 0.00212 0.00889924 0.00173751 0.0218182 0.00162335 0.00856172 0.00197727 0.0279678 0.00293637 0.0162393 0.0036885 0.0296867 0.0046671 0.0171946 0.0047605 0.0502789
93 1 Mg -0.948271 14.2883 4.4844 1.2 1 0.00335719 0.00417398 0.0017711 0.00448466 0.00255718 0.0080762 0.00267719 0.0215592 0.00269718 0.00815805 0.00294649 0.0286796 0.00369157 0.0166751 0.00535964 0.0302998 0.00569242 0.0188248 0.00616629 0.0513902
94 2 Si -2.75928 16.9724 4.4844 2.4 1 0.00306831 0.00415036 0.00178036 0.00464893 0.00282556 0.00827497 0.00289012 0.0218772 0.00273171 0.00768063 0.00283437 0.0280378 0.00388593 0.0165963 0.00500119 0.0295536 0.00507102 0.0183679 0.00548649 0.0522006
95 3 O -2.81617 15.3592 4.4844 -1.2 1 0.00339276 0.00419852 0.00174908 0.00447576 0.00278181 0.007901 0.0029591 0.0210461 0.00267931 0.00752981 0.00236672 0.0286963 0.00386753 0.0158117 0.00448175 0.0304617 0.00580752 0.0186613 0.00628891 0.0516175
96 3 O 0.862762 17.9465 4.4844 -1.2 1 0.00300367 0.00427503 0.00156047 0.00463157 0.00304056 0.00866309 0.00243602 0.0222223 0.0025697 0.00775001 0.00273175 0.0286009 0.00398539 0.0166738 0.00468786 0.0294147 0.00564129 0.0184281 0.00596356 0.0517791
97 3 O -2.0185 17.6786 3.18632 -1.2 1 0.00272001 0.0036288 0.00183575 0.00404532 0.00256682 0.00759314 0.00228178 0.0220404 0.00222508 0.00778492 0.00230979 0.0275588 0.00376764 0.0164023 0.00464066 0.0298768 0.0047668 0.0174031 0.00498377 0.0513374
98 3 O -2.06164 17.6786 5.78248 -1.2 1 0.00391722 0.00446361 0.00136268 0.00453792 0.00277931 0.00716386 0.00241864 0.02219 0.00239587 0.00771451 0.00265289 0.027668 0.00375089 0.0170099 0.00496264 0.0305437 0.00570156 0.0204292 0.00614959 0.0534177
99 1 Mg 1.39817 16.6215 2.9896 1.2 1 0.00260072 0.00347677 0.00188808 0.0045399 0.00256637 0.0085878 0.00267692 0.0211514 0.00252862 0.00791733 0.00205018 0.0287955 0.00289817 0.0165114 0.00354722 0.0295144 0.00411947 0.0165502 0.00426205 0.0504775
100 1 Mg 4.20062 16.5802 4.4844 1.2 1 0.00288207 0.00390689 0.0017518 0.004508 0.00251162 0.00785376 0.00246486 0.0217561 0.0028192 0.00767385 0.00289715 0.0284343 0.00356622 0.0173469 0.00537649 0.0300284 0.00617212 0.0185288 0.00574212 0.0517392
101 2 Si 2.37796 18.645 4.4844 2.4 1 0.00295135 0.0037999 0.00147162 0.00458237 0.00294122 0.00814709 0.00292523 0.0222367 0.00258042 0.00769093 0.00267244 0.027966 0.00365132 0.0170498 0.00456084 0.0293167 0.00519442 0.0179818 0.00565794 0.0527926
102 3 O 2.39434 20.2583 4.4844 -1.2 1 0.00293779 0.00432048 0.00148111 0.00433612 0.00298779 0.00711372 0.00243203 0.0214918 0.00277298 0.00710492 0.00206428 0.0286456 0.00338808 0.0165621 0.00416868 0.0298572 0.00566607 0.0181142 0.00633712 0.0523862
103 3 O -4.24274 17.671 4.4844 -1.2 1 0.00260809 0.00425721 0.00170598 0.00468048 0.0027882 0.00889829 0.00255645 0.0221772 0.0027795 0.00787134 0.0026529 0.0287421 0.00375224 0.0164756 0.00492436 0.0298177 0.00592299 0.0187795 0.00623712 0.0518823
104 3 O 3.08659 17.9389 3.18632 -1.2 1 0.00274656 0.00355147 0.00162928 0.00408572 0.00263687 0.00805931 0.00195857 0.0220895 0.0023327 0.00782222 0.00235705 0.0276587 0.00324021 0.0163503 0.00449472 0.0295584 0.0051994 0.0173822 0.00524235 0.0512794
105 1 Mg 1.44478 16.6215 0 1.2 1 0.00303442 0.00303327 0.00123882 0.00423924 0.00118593 0.00901717 0.00112062 0.0212708 0.00156919 0.0081902 0.00169462 0.0283223 0.00234476 0.0155973 0.0024518 0.0294508 0.00306502 0.0158691 0.00316314 0.0488957
106 3 O 3.0436 17.9389 5.78248 -1.2 1 0.00297887 0.00452635 0.00149835 0.00477885 0.0027969 0.00733972 0.00238533 0.022216 0.00228785 0.00772412 0.0030753 0.0279349 0.00387651 0.0170455 0.00503443 0.0304085 0.00598116 0.0205249 0.0060833 0.0533983
107 1 Mg -1.40524 16.6628 1.4948 1.2 1 0.00187124 0.00321833 0.00166142 0.00442613 0.001631 0.00877823 0.00191878 0.0219928 0.00202685 0.00811912 0.00205626 0.0281106 0.00329537 0.0165407 0.00318864 0.0294173 0.00306567 0.0164089 0.00319393 0.0495792
108 2 Si 0.420358 14.5979 1.4948 2.4 1 0.00167187 0.00305026 0.00177569 0.00485541 0.00201257 0.00923465 0.00185155 0.0213535 0.00164321 0.00823324 0.00178444 0.0283758 0.00305523 0.0164196 0.00377187 0.0288499 0.00346031 0.0162319 0.00332241 0.0493426
109 3 O 0.408732 12.9847 1.4948 -1.2 1 0.00122183 0.00307028 0.00158706 0.0049667 0.00175189 0.00921209 0.00156847 0.0211173 0.00211721 0.00842031 0.00171703 0.0289894 0.00328756 0.016097 0.00327198 0.029834 0.00330964 0.0166844 0.00363101 0.0492058
110 3 O 7.03923 15.572 1.4948 -1.2 1 0.00173779 0.00328887 0.00148824 0.00453893 0.00198422 0.00846752 0.00214795 0.02158 0.00222293 0.008076 0.00175104 0.0290775 0.002657 0.0161891 0.00316593 0.0298353 0.00327248 0.0166349 0.00387613 0.0496055
111 3 O -0.248332 15.3041 0.196716 -1.2 1 0.00235228 0.00294445 0.00132233 0.00452645 0.00103101 0.00920616 0.00191659 0.021206 0.00141359 0.00829983 0.00188112 0.0277074 0.0029264 0.0157443 0.00385211 0.0292717 0.00326544 0.0158452 0.00332668 0.0488321
112 3 O -0.289436 15.3041 2.79288 -1.2 1 0.00281854 0.00349653 0.00176539 0.00450557 0.002353 0.00879433 0.00204511 0.0218707 0.00184165 0.00859692 0.00213536 0.0275545 0.00321495 0.0164415 0.00394935 0.0295785 0.00427066 0.0173785 0.00445919 0.0503571
113 1 Mg 6.59566 18.996 0 1.2 1 0.00213854 0.00315473 0.00148152 0.0039481 0.00104347 0.00857821 0.00120194 0.0217287 0.00118347 0.00780334 0.00148819 0.0277148 0.0019977 0.0162314 0.0021934 0.0287992 0.00303915 0.0156841 0.00283828 0.0489039
114 1 Mg 3.85574 23.7037 1.4948 1.2 1 0.00158513 0.00310043 0.00130862 0.00408936 0.00152796 0.00732358 0.00115655 0.0229617 0.0018796 0.00730036 0.00215521 0.0270639 0.002455 0.0174416 0.00360554 0.0286416 0.0031416 0.0170286 0.003358 0.0506505
115 2 Si 5.66125 21.0195 1.4948 2.4 1 0.00171032 0.00307336 0.00123653 0.004044 0.00195672 0.00814735 0.00142957 0.0217343 0.00141197 0.00747687 0.00154818 0.0278469 0.00240059 0.0171453 0.00277519 0.0283492 0.00356381 0.0156271 0.00386739 0.0502777
116 3 O 5.72074 22.6328 1.4948 -1.2 1 0.00151469 0.0031272 0.00158644 0.0039502 0.00171402 0.00814993 0.00153497 0.0221549 0.00180617 0.00716329 0.00136167 0.0277283 0.0021252 0.0171832 0.00294705 0.0285608 0.00319686 0.0162441 0.00357125 0.0502947
117 3 O 2.03867 20.0455 1.4948 -1.2 1 0.0017318 0.00365461 0.00168511 0.00423089 0.00183265 0.00783011 0.00186045 0.022109 0.00233475 0.00733092 0.00160883 0.0282216 0.0021552 0.0169507 0.00263353 0.029118 0.00364781 0.0159683 0.00346584 0.0505311
118 3 O 4.96004 20.3134 0.196716 -1.2 1 0.00237791 0.00281166 0.00140255 0.00379757 0.00108935 0.00830588 0.00114142 0.0214987 0.00124127 0.00741945 0.00158247 0.0272825 0.00266826 0.016414 0.00353772 0.0289735 0.00313544 0.01516 0.00289355 0.0496267
119 1 Mg 6.55057 18.996 2.9896 1.2 1 0.00151522 0.00375471 0.00146623 0.00417293 0.00260583 0.00826917 0.0028271 0.021233 0.00253487 0.00785697 0.00202271 0.0290456 0.00315625 0.0167531 0.00318862 0.0288811 0.00385748 0.0168584 0.00461328 0.0505093