ITEM: TIMESTEP
48300
ITEM: NUMBER OF ATOMS
10500
ITEM: BOX BOUNDS xy xz yz pp pp pp
0	15.2977	5.09925
0	118.725	0
0	89.688	0
ITEM: ATOMS id type element xu yu zu q Q_1 Q_2 Q_3 Q_4 Q_5 Q_6 Q_7 Q_8 Q_9 Q_10 Q_11 Q_12 Q_13 Q_14 Q_15 Q_16 Q_17 Q_18 Q_19 Q_20 Q_21
1 1 Mg 6.2404 -6.37941e-06 0 1.2 1 0.000830574 0.00419667 0.00129454 0.00473285 0.0013073 0.00580679 0.00211933 0.0161437 0.0020698 0.00573119 0.00188345 0.0220656 0.00230694 0.013449 0.00348247 0.0206509 0.00414568 0.0141673 0.00388777 0.0407243
2 1 Mg 3.46349 4.70768 1.4948 1.2 1 0.00139134 0.00332427 0.0017644 0.00437687 0.00211184 0.00623084 0.00333677 0.0185297 0.00279082 0.00682934 0.00297847 0.0255914 0.00313006 0.0140399 0.00450085 0.0249156 0.00532093 0.0169452 0.00608898 0.043819
3 2 Si 5.2885 2.02354 1.4948 2.4 1 0.000771037 0.00337587 0.00216551 0.00455099 0.00186514 0.00585358 0.00237068 0.0167138 0.00253479 0.005976 0.00205579 0.0231078 0.00264608 0.0134232 0.0035102 0.0212976 0.00383848 0.0153294 0.00426453 0.0408571
4 3 O 5.33628 3.63678 1.4948 -1.2 1 0.000864748 0.00297723 0.00182245 0.00472339 0.00212777 0.00630294 0.00272296 0.0176669 0.00233977 0.00655553 0.00213187 0.0250492 0.00239583 0.0137034 0.00426706 0.0236919 0.0050237 0.0162726 0.0059956 0.0426311
5 3 O 1.67294 1.04952 1.4948 -1.2 1 0.0012572 0.00365104 0.00183277 0.00396592 0.00132514 0.00593082 0.00223788 0.0167706 0.00255218 0.00585651 0.00205184 0.0226603 0.00231394 0.0129871 0.00343942 0.0218285 0.00474691 0.0157019 0.00485352 0.0401455
6 3 O 4.59532 1.31737 0.196716 -1.2 1 0.000822944 0.00301145 0.00226873 0.00412287 0.00202074 0.0058803 0.00234718 0.0171026 0.00248292 0.00613137 0.0019829 0.0224878 0.00315716 0.0127979 0.00412168 0.0213888 0.00411178 0.0148766 0.0044893 0.0409381
7 1 Mg 6.18956 -6.37941e-06 2.9896 1.2 1 0.00143954 0.00490411 0.00142131 0.00442213 0.0012741 0.00594953 0.00227684 0.0159154 0.00258279 0.00533032 0.00189216 0.022084 0.00255667 0.0134384 0.00359776 0.0204664 0.00473881 0.0149141 0.00474522 0.0389646
8 3 O 4.55118 1.31737 2.79288 -1.2 1 0.0014106 0.0043835 0.00214502 0.00440615 0.00188111 0.0059038 0.00247409 0.0167296 0.00240758 0.00627286 0.00226907 0.0215464 0.00301706 0.0124021 0.00351441 0.0213345 0.00519102 0.0157292 0.00533968 0.0397138
9 1 Mg -1.20682 0.0413099 4.4844 1.2 1 0.0016006 0.00350437 0.00180971 0.00469296 0.00128048 0.00563849 0.00188251 0.0160021 0.00215353 0.0056081 0.00211422 0.0221449 0.00275128 0.011955 0.00346842 0.0203764 0.00528213 0.0157721 0.00511888 0.0382566
10 2 Si -3.0337 2.72544 4.4844 2.4 1 0.00145481 0.0035886 0.00148771 0.00491361 0.00202363 0.00603835 0.00309232 0.0164933 0.00309152 0.00606637 0.00233244 0.0232818 0.00287831 0.0129432 0.00390091 0.0217343 0.00579957 0.0174902 0.00628047 0.0385735
11 3 O -3.08099 1.11221 4.4844 -1.2 1 0.00148249 0.0039832 0.00172504 0.0044481 0.00134944 0.00544487 0.00218187 0.0157642 0.00288585 0.00542826 0.00230446 0.0217137 0.00286504 0.0114439 0.00343819 0.0207799 0.00524737 0.0161918 0.00549019 0.03751
12 3 O 0.582463 3.69946 4.4844 -1.2 1 0.00169807 0.00443002 0.00208278 0.00463176 0.00249278 0.00662224 0.00333383 0.0169947 0.00342143 0.00621311 0.00331377 0.0242791 0.00365642 0.013098 0.00445463 0.0235282 0.00744374 0.0186163 0.00826045 0.0409433
13 3 O -2.29524 3.43162 3.18632 -1.2 1 0.00121682 0.00307914 0.00226845 0.00465312 0.00204732 0.00605848 0.00267714 0.0177199 0.00303564 0.00636349 0.00284673 0.0242125 0.00302539 0.0130603 0.00460195 0.0236013 0.00647733 0.0177395 0.00683556 0.0415073
14 3 O -2.34216 3.43162 5.78248 -1.2 1 0.0021286 0.00387388 0.000735882 0.00492478 0.00242246 0.00584575 0.00315985 0.0166673 0.00291576 0.00697476 0.00271233 0.022835 0.00357082 0.0124557 0.00397221 0.0223937 0.00687041 0.0194793 0.00759125 0.0389934
15 1 Mg 1.12778 2.37449 2.9896 1.2 1 0.0011071 0.00393131 0.00216411 0.00448247 0.00204523 0.00597354 0.0028281 0.0164814 0.00269137 0.00585784 0.00260534 0.0232098 0.00291186 0.0131286 0.00350407 0.021607 0.00534022 0.0164504 0.00573804 0.0401838
16 1 Mg 3.92855 2.33318 4.4844 1.2 1 0.00205056 0.00454088 0.00134522 0.00449987 0.00171802 0.00578588 0.00340451 0.0165304 0.00302445 0.00589999 0.0029247 0.0223444 0.00344483 0.0134646 0.00509801 0.0213172 0.00681923 0.0171673 0.00697772 0.0392458
17 2 Si 2.09341 4.39804 4.4844 2.4 1 0.00183496 0.00419365 0.00197959 0.00447146 0.00292274 0.00590952 0.00356136 0.0181001 0.00341891 0.00653962 0.00348439 0.0245095 0.00398602 0.0141864 0.00435457 0.0239501 0.00750502 0.0182743 0.008388 0.0425534
18 3 O 2.09991 6.01128 4.4844 -1.2 1 0.0023507 0.00438729 0.00157753 0.00426976 0.0028881 0.00639205 0.00307844 0.0191059 0.00270443 0.00721447 0.00312944 0.0262118 0.0037947 0.0145191 0.00457253 0.0267311 0.00767624 0.0193172 0.00824408 0.0443477
19 3 O -4.52137 3.42402 4.4844 -1.2 1 0.00198759 0.00375001 0.00193808 0.00500323 0.002143 0.00692791 0.00342073 0.0167156 0.00310443 0.00614466 0.00305377 0.0232987 0.00348124 0.0129354 0.00402552 0.0221594 0.0069043 0.0175567 0.00763697 0.0400807
20 3 O 2.80834 3.69187 3.18632 -1.2 1 0.00154891 0.00376246 0.00175069 0.00393519 0.00202599 0.0059077 0.00289737 0.0173371 0.00298835 0.00623703 0.00284073 0.023788 0.00333453 0.0130957 0.00463413 0.0233446 0.00631599 0.0170083 0.00644916 0.0419787
21 1 Mg 1.17857 2.37449 0 1.2 1 0.00160478 0.00344754 0.00168958 0.00396926 0.00158775 0.00556189 0.00217443 0.0171413 0.00251364 0.00651768 0.00260925 0.0232592 0.00262839 0.0131852 0.0034526 0.0216814 0.00418552 0.0148929 0.00481784 0.0409225
22 3 O 2.76143 3.69187 5.78248 -1.2 1 0.00234904 0.00440207 0.00161188 0.0044874 0.00205544 0.00536832 0.00269249 0.0171925 0.0030504 0.00713157 0.00285238 0.0227203 0.00426339 0.0131942 0.00516802 0.0225601 0.00715447 0.0186868 0.00798104 0.0397906
23 1 Mg -1.67381 2.41581 1.4948 1.2 1 0.00064998 0.00292808 0.00223281 0.00466234 0.00149422 0.00597093 0.00201698 0.0166137 0.00265354 0.00608354 0.00200685 0.0240191 0.00220523 0.0141848 0.00278502 0.022102 0.00472838 0.0160382 0.00479894 0.0416491
24 2 Si 0.16286 0.350945 1.4948 2.4 1 0.00104475 0.00301818 0.00249284 0.00449276 0.0013899 0.00654082 0.00249279 0.0161426 0.00219492 0.00496545 0.00188736 0.0226738 0.00208674 0.0135841 0.00323541 0.0207791 0.00486461 0.014899 0.00423436 0.0402285
25 3 O 0.15972 -1.26229 1.4948 -1.2 1 0.000800005 0.00328093 0.00276008 0.00443318 0.00179338 0.00618408 0.00237459 0.0161913 0.00228574 0.00536533 0.00246857 0.0224792 0.00237232 0.0139239 0.00301481 0.0218027 0.00440927 0.0147713 0.00378176 0.0407089
26 3 O 6.77654 1.32496 1.4948 -1.2 1 0.00113479 0.00392573 0.00154505 0.00459824 0.00124663 0.00613116 0.00212474 0.0165153 0.00242095 0.00538313 0.0018225 0.0235179 0.00271504 0.0135557 0.00361406 0.0216101 0.00475362 0.0154243 0.00428641 0.0407182
27 3 O -0.508028 1.05712 0.196716 -1.2 1 0.000656658 0.00276832 0.00314638 0.00406961 0.0016098 0.0057482 0.00218272 0.0169086 0.00184024 0.00650676 0.00248557 0.0221468 0.00231874 0.0128307 0.00316527 0.0211024 0.00436591 0.0150989 0.00440743 0.0400269
28 3 O -0.552171 1.05712 2.79288 -1.2 1 0.000787782 0.00288307 0.00272973 0.0045084 0.00129544 0.00624552 0.00204526 0.0162135 0.00238842 0.00592845 0.00190711 0.0224499 0.00263735 0.0120401 0.00355811 0.0212524 0.00558197 0.0158655 0.00498748 0.039237
29 1 Mg 6.31713 4.74899 0 1.2 1 0.00114256 0.00267515 0.00193918 0.00446564 0.00248838 0.00622659 0.00311569 0.0180336 0.00305788 0.00698703 0.00216895 0.0253779 0.00284133 0.0136499 0.00408406 0.0244429 0.00454793 0.0164909 0.00598207 0.0429175
30 1 Mg 3.54847 9.45668 1.4948 1.2 1 0.000952537 0.00314461 0.00208132 0.00432169 0.00234101 0.00747148 0.00306101 0.0212922 0.00191529 0.00841447 0.00227094 0.0280739 0.00318405 0.0154057 0.00372226 0.0290972 0.00449343 0.0178155 0.0042349 0.0487317
31 2 Si 5.36879 6.77254 1.4948 2.4 1 0.000735378 0.0030038 0.00203204 0.00481784 0.00290858 0.00684184 0.00358045 0.0195305 0.00284645 0.00776642 0.00270234 0.0273957 0.00307118 0.015186 0.00403941 0.0266819 0.0046681 0.0170522 0.00556972 0.0465479
32 3 O 5.41937 8.38578 1.4948 -1.2 1 0.000787581 0.00288919 0.00180352 0.00468962 0.00250901 0.00768461 0.00307976 0.0208709 0.00239398 0.00838506 0.00252379 0.0286588 0.00223835 0.0154778 0.00278268 0.0289419 0.00466906 0.0172884 0.00527807 0.0479507
33 3 O 1.75158 5.79852 1.4948 -1.2 1 0.00122836 0.00351571 0.00148419 0.00394227 0.00255976 0.00601276 0.00307339 0.019461 0.00280345 0.00721289 0.00280122 0.0276554 0.00285497 0.0154778 0.00350845 0.0265797 0.00542845 0.0175687 0.00592309 0.0456065
34 3 O 4.67421 6.06637 0.196716 -1.2 1 0.0012747 0.00282011 0.00179849 0.0044613 0.00214171 0.00697031 0.00277667 0.0197354 0.00261445 0.0079951 0.00225962 0.0261233 0.00333157 0.0142375 0.00427093 0.0264812 0.00454183 0.0166298 0.00578852 0.045314
35 1 Mg 6.26654 4.74899 2.9896 1.2 1 0.00180972 0.00332428 0.00213812 0.00498886 0.00262392 0.00651365 0.00345615 0.017946 0.00356819 0.0068186 0.00240252 0.0256024 0.00350951 0.0145368 0.00500464 0.0243475 0.00627821 0.0173594 0.00746043 0.0430956
36 3 O 4.63043 6.06637 2.79288 -1.2 1 0.0018771 0.00357363 0.0019007 0.00498733 0.00247177 0.00677473 0.00331337 0.0195172 0.00327889 0.00766057 0.00257002 0.0258074 0.00378092 0.0145151 0.00440065 0.0266787 0.0064046 0.0180468 0.00753049 0.0449525
37 1 Mg -1.12976 4.79031 4.4844 1.2 1 0.00178376 0.00402616 0.00141001 0.00467633 0.0023004 0.00611089 0.00302474 0.0175972 0.00341266 0.00695872 0.00335354 0.0248402 0.00371279 0.0142016 0.00462779 0.0245013 0.00820527 0.0188548 0.00798384 0.0427454
38 2 Si -2.9517 7.47444 4.4844 2.4 1 0.00243995 0.00387343 0.00118869 0.0051025 0.00269767 0.00642152 0.00364654 0.0201036 0.00315226 0.00785672 0.00312462 0.0270763 0.00396497 0.0158574 0.00519386 0.0273343 0.00756251 0.0191189 0.00834571 0.0464894
39 3 O -3.00198 5.86121 4.4844 -1.2 1 0.00238472 0.00426764 0.000906199 0.00505612 0.00292941 0.00633423 0.0038472 0.0186465 0.00338591 0.00751921 0.00285346 0.0252794 0.00387471 0.0141416 0.00471352 0.0258682 0.00772993 0.0192625 0.0084781 0.0443238
40 3 O 0.666315 8.44846 4.4844 -1.2 1 0.00224204 0.00441556 0.00124882 0.00506601 0.00285743 0.00712665 0.00284517 0.0209068 0.0030704 0.00805741 0.00314457 0.0279648 0.00410899 0.0156943 0.00416708 0.0287933 0.00714852 0.0196113 0.00809879 0.0473905
41 3 O -2.21213 8.18062 3.18632 -1.2 1 0.0016154 0.00399813 0.00154089 0.00450404 0.0025789 0.00634693 0.00276067 0.0208318 0.00278977 0.00819847 0.0028786 0.0272493 0.00381877 0.015577 0.00474392 0.0284885 0.00642794 0.0188798 0.00689892 0.0480236
42 3 O -2.25864 8.18062 5.78248 -1.2 1 0.00287101 0.00396467 0.00150636 0.00482365 0.00276754 0.00600373 0.00298536 0.0201039 0.00241028 0.00871468 0.00336418 0.0262955 0.00399587 0.0160397 0.00500403 0.028278 0.00792516 0.0207072 0.00827788 0.047224
43 1 Mg 1.20893 7.12349 2.9896 1.2 1 0.00117797 0.00386682 0.00163951 0.00439707 0.00293245 0.00672409 0.00353011 0.0194737 0.00285579 0.00794643 0.00304079 0.0276786 0.00345587 0.0156693 0.00376176 0.0271352 0.00601343 0.0182194 0.00660416 0.0463046
44 1 Mg 4.00982 7.08218 4.4844 1.2 1 0.00250036 0.00388524 0.0015858 0.00510549 0.00246497 0.00635287 0.00363125 0.0199432 0.00340582 0.00764892 0.00336471 0.0268418 0.00401043 0.0163984 0.00533362 0.0274225 0.00804625 0.0192254 0.008424 0.0459053
45 2 Si 2.17861 9.14704 4.4844 2.4 1 0.00207468 0.00394975 0.00146799 0.00507346 0.00289925 0.00705312 0.00352179 0.0211466 0.00280612 0.00835386 0.0030343 0.0276608 0.00422442 0.0164555 0.00423432 0.0290315 0.006627 0.0196029 0.00724227 0.0489255
46 3 O 2.18828 10.7603 4.4844 -1.2 1 0.00243074 0.00400354 0.00161989 0.00465569 0.00285486 0.00691735 0.00301949 0.0207929 0.00259917 0.00831929 0.00233649 0.0280236 0.00365207 0.0156276 0.00413894 0.0302882 0.00653391 0.019977 0.00702972 0.0495719
47 3 O -4.43805 8.17302 4.4844 -1.2 1 0.00203095 0.00409181 0.00155203 0.00529767 0.00249735 0.00756402 0.00315471 0.0205925 0.00316111 0.00825794 0.00317201 0.0279466 0.00416588 0.0157297 0.00459051 0.0285781 0.00771743 0.0194812 0.00879901 0.0469878
48 3 O 2.89193 8.44087 3.18632 -1.2 1 0.00160946 0.0035984 0.0015088 0.00457206 0.00262826 0.00663064 0.00307663 0.0205007 0.00285731 0.00841299 0.00301053 0.0272049 0.00376118 0.0158547 0.00428147 0.0286115 0.00631236 0.0186551 0.00615577 0.0478516
49 1 Mg 1.25915 7.12349 0 1.2 1 0.00193082 0.00302216 0.00136359 0.00388287 0.00192452 0.00717897 0.00284574 0.0201024 0.00270257 0.00812491 0.00247544 0.0273659 0.00337642 0.0142515 0.00323861 0.0273554 0.00434979 0.017335 0.0045768 0.0462996
50 3 O 2.84547 8.44087 5.78248 -1.2 1 0.00291724 0.00459751 0.00158504 0.00488319 0.00234008 0.0065128 0.00316618 0.0207758 0.00282614 0.00896646 0.00348119 0.0264195 0.00505288 0.0161419 0.00517384 0.0287 0.00718725 0.0212941 0.0080834 0.0474516
51 1 Mg -1.59284 7.16481 1.4948 1.2 1 0.00113936 0.00336037 0.00133739 0.00444812 0.00196702 0.00630092 0.00249235 0.0198484 0.00292027 0.00772929 0.0020566 0.0274693 0.0033914 0.0154601 0.00364961 0.0269482 0.00493951 0.0176802 0.00584452 0.0464771
52 2 Si 0.240329 5.09994 1.4948 2.4 1 0.00114777 0.00365325 0.00147342 0.00387016 0.00201743 0.00677311 0.00275131 0.0188552 0.00318175 0.00717242 0.00246803 0.0258608 0.00276202 0.0145379 0.00405614 0.0245619 0.00524722 0.0169971 0.00551008 0.0445523
53 3 O 0.234538 3.48671 1.4948 -1.2 1 0.00137963 0.00388914 0.00205505 0.00416337 0.00193078 0.00647612 0.00222868 0.0177547 0.00342733 0.0066422 0.00251203 0.0244067 0.00301994 0.0136362 0.00386635 0.0238665 0.00573279 0.0161245 0.00558842 0.0421805
54 3 O 6.85564 6.07396 1.4948 -1.2 1 0.00111236 0.00288481 0.00234728 0.00469412 0.00267121 0.00611423 0.00290921 0.0199201 0.00303182 0.00749004 0.00229785 0.0274561 0.00316281 0.0146132 0.00471169 0.0265599 0.00563657 0.0176723 0.0067531 0.0452253
55 3 O -0.429565 5.80612 0.196716 -1.2 1 0.00131485 0.00310129 0.0016677 0.00393918 0.00195115 0.00713995 0.00225488 0.0195371 0.00298125 0.00828462 0.0025712 0.0256853 0.00248211 0.0141014 0.00360119 0.0258722 0.0048721 0.016835 0.00584438 0.0452291
56 3 O -0.473377 5.80612 2.79288 -1.2 1 0.0015573 0.00363793 0.00149083 0.00439192 0.00239819 0.00658913 0.00288379 0.0190604 0.00310273 0.0077175 0.00316256 0.025548 0.00364336 0.0144028 0.0044795 0.0259937 0.007009 0.0182167 0.00699083 0.0453266
57 1 Mg 6.40169 9.49799 0 1.2 1 0.00209317 0.00342669 0.00175693 0.00426054 0.00174721 0.00826602 0.00193778 0.0209358 0.00172326 0.00882278 0.00195125 0.0283695 0.00244141 0.0147085 0.00266434 0.0297213 0.00367365 0.0176372 0.00414446 0.0480947
58 1 Mg 3.64209 14.2057 1.4948 1.2 1 0.00176915 0.00280994 0.00161058 0.00451974 0.0016927 0.00858718 0.00143503 0.0214214 0.00190232 0.00873043 0.00222845 0.0277146 0.00276729 0.0161547 0.0031482 0.0297858 0.00387674 0.0168194 0.00372258 0.0494578
59 2 Si 5.45748 11.5215 1.4948 2.4 1 0.00124485 0.00303737 0.00195923 0.00440741 0.00209116 0.00812182 0.0020925 0.0210468 0.00153902 0.00835916 0.00184093 0.0282777 0.00265908 0.0161645 0.00313848 0.0293264 0.00435511 0.0167451 0.0039106 0.0494376
60 3 O 5.51101 13.1348 1.4948 -1.2 1 0.00148402 0.00288716 0.00187288 0.00467252 0.00176262 0.00901422 0.00170789 0.0208952 0.00191758 0.00866422 0.00162098 0.0287738 0.00236008 0.0161698 0.0029284 0.0301627 0.00407962 0.0166031 0.00377274 0.0492596
61 3 O 1.83851 10.5475 1.4948 -1.2 1 0.00099766 0.00331448 0.00199739 0.00460932 0.00220176 0.00752033 0.0023203 0.0216101 0.00196806 0.00842765 0.00224334 0.0289854 0.00258104 0.0158353 0.00316528 0.0298517 0.00451344 0.017693 0.00385965 0.049327
62 3 O 4.7611 10.8154 0.196716 -1.2 1 0.00222268 0.00268896 0.00195209 0.00414855 0.00173085 0.00837438 0.00211563 0.0210248 0.00171974 0.00859815 0.00202665 0.0276868 0.00301097 0.0155168 0.00340772 0.029662 0.00391667 0.0167326 0.00383962 0.0490533
63 1 Mg 6.35203 9.49799 2.9896 1.2 1 0.000974171 0.00359437 0.00186824 0.00488141 0.00269978 0.00720341 0.0033475 0.020386 0.00317266 0.00860424 0.00206299 0.0287645 0.00357184 0.016212 0.00332446 0.0290445 0.00482778 0.0183595 0.00601819 0.0482362
64 3 O 4.71833 10.8154 2.79288 -1.2 1 0.00149596 0.00323544 0.00177394 0.0044911 0.00220923 0.00789685 0.00226899 0.0212522 0.00226469 0.00902925 0.00213749 0.0278053 0.00344892 0.015895 0.00395331 0.0301305 0.00568176 0.0183527 0.00581504 0.0494699
65 1 Mg -1.0438 9.53931 4.4844 1.2 1 0.00237828 0.00434436 0.00131323 0.00451274 0.00301221 0.00649623 0.00273551 0.0208319 0.00294657 0.00843485 0.00287429 0.0277776 0.00372449 0.0163777 0.00441616 0.029581 0.00708512 0.0197565 0.00753506 0.0488062
66 2 Si -2.8604 12.2234 4.4844 2.4 1 0.00236451 0.00386816 0.00173856 0.00468164 0.00284662 0.00751649 0.00319861 0.0215315 0.00274516 0.00874566 0.00241084 0.0277882 0.00395294 0.0164122 0.00439505 0.0299204 0.00635043 0.0195757 0.00677022 0.050216
67 3 O -2.91391 10.6102 4.4844 -1.2 1 0.0025539 0.00404827 0.00168343 0.00456635 0.00283541 0.00686198 0.00324178 0.0204822 0.0026284 0.00807659 0.00228862 0.028121 0.00388494 0.0156014 0.00421711 0.0302542 0.00644761 0.0198293 0.00703318 0.0491061
68 3 O 0.7596 13.1975 4.4844 -1.2 1 0.00269577 0.00409481 0.00176999 0.00506219 0.00286824 0.00857613 0.00272134 0.0218626 0.00284783 0.00854901 0.00274213 0.0283086 0.00400678 0.0162748 0.00421283 0.0300484 0.00644413 0.0194807 0.00703031 0.0499682
69 3 O -2.12001 12.9296 3.18632 -1.2 1 0.00205042 0.00345563 0.00183871 0.00434212 0.00258498 0.00751547 0.0023571 0.0216312 0.00240124 0.00852015 0.00235058 0.0273598 0.00350607 0.0160865 0.0045963 0.0304217 0.00573657 0.0186487 0.00580679 0.0499659
70 3 O -2.16532 12.9296 5.78248 -1.2 1 0.00328331 0.00435982 0.0017969 0.00474178 0.00306047 0.0065543 0.0024536 0.0214776 0.00246581 0.0085871 0.00274188 0.0270351 0.00401693 0.0166555 0.00463565 0.0309826 0.00646761 0.0217009 0.00667073 0.0505853
71 1 Mg 1.29891 11.8725 2.9896 1.2 1 0.00133713 0.00335546 0.00186997 0.00486626 0.00271102 0.0078089 0.00283425 0.0209226 0.00257726 0.00866409 0.00200899 0.0285955 0.00334494 0.0162286 0.00340997 0.0300172 0.00500388 0.0178785 0.00529779 0.049352
72 1 Mg 4.10033 11.8312 4.4844 1.2 1 0.00242355 0.00381777 0.00199482 0.00455406 0.00268029 0.00719048 0.00300557 0.0212837 0.00260321 0.00845092 0.00267322 0.0282551 0.00348487 0.0171584 0.00495757 0.0300401 0.00718904 0.0196974 0.0068438 0.0500031
73 2 Si 2.27333 13.896 4.4844 2.4 1 0.00261885 0.00375849 0.00178598 0.00497197 0.00314667 0.00769214 0.00340733 0.0216845 0.00235354 0.00843087 0.00266506 0.0276465 0.00372547 0.016727 0.00435322 0.0300773 0.00578421 0.0190124 0.00640615 0.0510503
74 3 O 2.28634 15.5093 4.4844 -1.2 1 0.00267755 0.00427031 0.00164229 0.00472095 0.00315508 0.00719111 0.00316409 0.020858 0.00277995 0.00773008 0.00209742 0.0280942 0.00330275 0.0160285 0.00390754 0.0306929 0.00595365 0.0190165 0.00654827 0.0506618
75 3 O -4.34533 12.922 4.4844 -1.2 1 0.00242793 0.00418101 0.00181284 0.00478685 0.00283599 0.00829239 0.00306434 0.021584 0.00282884 0.00853651 0.00243216 0.028222 0.00387704 0.0162273 0.00485795 0.0303515 0.00680689 0.0200548 0.0073067 0.0500294
76 3 O 2.98455 13.1899 3.18632 -1.2 1 0.00213138 0.00350171 0.00168612 0.00442613 0.00263445 0.00768399 0.00224824 0.0216838 0.00219597 0.00868642 0.00220786 0.0275735 0.00332093 0.016112 0.00422193 0.0300489 0.00583579 0.0183599 0.00579693 0.0500054
77 1 Mg 1.34779 11.8725 0 1.2 1 0.00239024 0.0025996 0.00173149 0.00429453 0.00159425 0.00868694 0.00155646 0.0211028 0.00122595 0.00899559 0.00194714 0.0285367 0.00296109 0.0148766 0.00290914 0.0301422 0.00340069 0.0169773 0.00342588 0.0486851
78 3 O 2.93934 13.1899 5.78248 -1.2 1 0.00311808 0.00439563 0.00151987 0.00492642 0.0028004 0.00701695 0.00267968 0.0215198 0.00239499 0.0085893 0.00290732 0.0268176 0.00416847 0.0165895 0.00466669 0.030712 0.00648718 0.0216597 0.00677272 0.0507678
79 1 Mg -1.50344 11.9138 1.4948 1.2 1 0.00156706 0.00326958 0.00176067 0.00449688 0.00154698 0.00814491 0.00173414 0.0215224 0.00255071 0.00850019 0.00162133 0.0283604 0.00359102 0.0161151 0.00325458 0.0298574 0.00391629 0.0173805 0.003976 0.0493099
80 2 Si 0.326006 9.84894 1.4948 2.4 1 0.00102967 0.00334657 0.00172209 0.00473115 0.00214539 0.00801108 0.00203793 0.0210244 0.00212081 0.00839306 0.00174702 0.0281768 0.00290633 0.0156172 0.00336214 0.0287672 0.00407551 0.0175519 0.00382503 0.0487188
81 3 O 0.317364 8.23571 1.4948 -1.2 1 0.000983537 0.00351194 0.00139155 0.00434796 0.00205624 0.00762642 0.00203504 0.0202635 0.00262066 0.00797696 0.00193168 0.0284551 0.0034205 0.0156672 0.00362834 0.0284304 0.00458619 0.0175874 0.00458078 0.0476715
82 3 O 6.94307 10.823 1.4948 -1.2 1 0.000805414 0.0032811 0.00167578 0.00442255 0.00222576 0.00759275 0.00245323 0.0217183 0.00227357 0.00844868 0.00159265 0.0290463 0.00311114 0.0158491 0.00317332 0.0299157 0.00420718 0.0177849 0.00449633 0.0492597
83 3 O -0.343122 10.5551 0.196716 -1.2 1 0.00164429 0.00295527 0.00161154 0.00434771 0.00143577 0.00826758 0.00174303 0.0211684 0.00186056 0.00875472 0.00199729 0.0278721 0.00345104 0.0154096 0.00379695 0.0295391 0.00392259 0.0171238 0.00374024 0.0489067
84 3 O -0.385966 10.5551 2.79288 -1.2 1 0.00174353 0.00387505 0.00128665 0.00464017 0.00263481 0.00786974 0.00224762 0.0214052 0.00226759 0.008964 0.00246103 0.0272888 0.00364778 0.0157318 0.00388396 0.029867 0.00570703 0.0186828 0.00539503 0.0495254
85 1 Mg 6.49448 14.247 0 1.2 1 0.00245134 0.00264871 0.00158046 0.00449114 0.0012667 0.00917739 0.00130984 0.0209151 0.0013326 0.00848434 0.00170052 0.0280213 0.00204416 0.0154919 0.00251072 0.0302855 0.00329378 0.0161314 0.00294596 0.0486169
86 1 Mg 3.74457 18.9547 1.4948 1.2 1 0.00194358 0.00314651 0.00135232 0.0040854 0.00161252 0.00844451 0.00105011 0.0220219 0.00202634 0.00792641 0.00206389 0.0271285 0.00256485 0.0163807 0.00312832 0.0290788 0.00382321 0.0164969 0.00345835 0.0497821
87 2 Si 5.55495 16.2705 1.4948 2.4 1 0.00183238 0.00266251 0.00165267 0.00454082 0.00189886 0.00879885 0.00140937 0.0211111 0.00148873 0.0079214 0.00150677 0.02805 0.00237626 0.0162171 0.00271012 0.0293267 0.00412206 0.0158919 0.00351531 0.049588
88 3 O 5.6115 17.8838 1.4948 -1.2 1 0.00167081 0.00283511 0.00151128 0.00440245 0.00171487 0.00911922 0.0013577 0.0213155 0.00202587 0.00775656 0.00155892 0.0282256 0.00231794 0.0164707 0.00275224 0.029315 0.00354895 0.0158696 0.00350763 0.0496104
89 3 O 1.93416 15.2965 1.4948 -1.2 1 0.00145355 0.0028786 0.00130371 0.00453142 0.00193702 0.0082747 0.00198685 0.0215845 0.00209819 0.00814274 0.00152748 0.0284721 0.00221426 0.0162886 0.00299825 0.0299227 0.00422011 0.0164587 0.00375702 0.0498483
90 3 O 4.85636 15.5644 0.196716 -1.2 1 0.00225427 0.00212559 0.00140337 0.00435335 0.00118723 0.00913936 0.00125202 0.0208395 0.00125369 0.0079295 0.00183378 0.0273162 0.00258497 0.0159688 0.00316261 0.0296959 0.00374176 0.015629 0.00312588 0.0492824
91 1 Mg 6.44662 14.247 2.9896 1.2 1 0.00118767 0.0033871 0.00160407 0.00471435 0.00259183 0.00837805 0.00285106 0.0205901 0.00261867 0.00870666 0.00174201 0.0288481 0.0031002 0.0162803 0.00314998 0.0298304 0.00445395 0.017513 0.00501504 0.0493947
92 3 O 4.81537 15.5644 2.79288 -1.2 1 0.00205351 0.00322628 0.00147335 0.00449229 0.00232934 0.00856819 0.00178693 0.0216784 0.00189769 0.00866197 0.00176538 0.0274332 0.0028906 0.0163572 0.00371155 0.0296886 0.00513542 0.0172532 0.00514639 0.0500815
93 1 Mg -0.948271 14.2883 4.4844 1.2 1 0.00295403 0.0036055 0.00151759 0.00450108 0.00283664 0.00758347 0.00262395 0.0212471 0.00260688 0.00839365 0.00291351 0.0279886 0.00341329 0.0168901 0.00487597 0.0306365 0.00636678 0.0192935 0.0066113 0.0503958
94 2 Si -2.75928 16.9724 4.4844 2.4 1 0.0025065 0.00378119 0.0016929 0.00464197 0.00305728 0.00797403 0.00285665 0.0218011 0.0027184 0.00784231 0.00249618 0.0276859 0.00345205 0.0167998 0.00455623 0.0295697 0.00525608 0.018887 0.00602952 0.0514077
95 3 O -2.81617 15.3592 4.4844 -1.2 1 0.00277552 0.00383621 0.00171852 0.00459736 0.00323658 0.0074574 0.00302563 0.0209473 0.00248395 0.00795987 0.00231307 0.0283883 0.0038111 0.0161125 0.00416868 0.0304257 0.00627624 0.0190119 0.00668253 0.0505689
96 3 O 0.862762 17.9465 4.4844 -1.2 1 0.00253944 0.00437244 0.00150773 0.00469841 0.0030941 0.00824045 0.00248307 0.0222653 0.00249804 0.00784224 0.00237801 0.027823 0.00336021 0.0169835 0.00391035 0.0295186 0.00582195 0.0192805 0.0061328 0.051096
97 3 O -2.0185 17.6786 3.18632 -1.2 1 0.00190572 0.00356109 0.00150717 0.0041816 0.00265444 0.0076037 0.00217635 0.0219305 0.00225104 0.00787827 0.00216399 0.0272594 0.00341341 0.0166399 0.00435775 0.030006 0.00512142 0.017661 0.00518535 0.0507854
98 3 O -2.06164 17.6786 5.78248 -1.2 1 0.00320499 0.00401829 0.00160345 0.00472846 0.00302672 0.0068393 0.00241559 0.0215137 0.00246975 0.00775357 0.00230432 0.0270975 0.00331461 0.017254 0.00419266 0.0304268 0.0060586 0.0209451 0.00639548 0.0521412
99 1 Mg 1.39817 16.6215 2.9896 1.2 1 0.00207674 0.00348146 0.00145962 0.00449375 0.00266311 0.00820917 0.0026015 0.0209593 0.00273627 0.00818437 0.0019888 0.0283085 0.00293414 0.0166456 0.00348806 0.0294252 0.00451554 0.016937 0.00470174 0.0497138
100 1 Mg 4.20062 16.5802 4.4844 1.2 1 0.00240469 0.00400547 0.00162395 0.004528 0.00280116 0.00748116 0.00262766 0.0214768 0.00291727 0.00787654 0.00270325 0.0279711 0.00324739 0.0175511 0.00513429 0.0301549 0.00632748 0.0188875 0.00630739 0.0509322
101 2 Si 2.37796 18.645 4.4844 2.4 1 0.00196336 0.00373733 0.00140054 0.00477352 0.00307528 0.0075339 0.00297555 0.022121 0.00255947 0.0078662 0.00251775 0.0272648 0.00343739 0.0174084 0.00425741 0.0295744 0.00530336 0.0185844 0.00579545 0.0519383
102 3 O 2.39434 20.2583 4.4844 -1.2 1 0.00174043 0.00415871 0.00149714 0.00447068 0.00300869 0.00689502 0.0026588 0.0213329 0.00284029 0.00715023 0.00206309 0.0278983 0.00318773 0.0167268 0.00402151 0.0298526 0.00574561 0.0188375 0.00654059 0.051433
103 3 O -4.24274 17.671 4.4844 -1.2 1 0.00196272 0.00405121 0.00174246 0.00480127 0.00290412 0.00853693 0.00276511 0.0221335 0.00293243 0.00805241 0.00244691 0.028292 0.00366455 0.0167513 0.00485548 0.029709 0.00590746 0.0191872 0.00660021 0.0510403
104 3 O 3.08659 17.9389 3.18632 -1.2 1 0.00208944 0.00335596 0.00143176 0.00417547 0.00273819 0.00771282 0.00210189 0.0220147 0.00236413 0.00790517 0.00205703 0.0272122 0.00297262 0.0165706 0.00398897 0.0296682 0.00547022 0.0177272 0.00563839 0.050676
105 1 Mg 1.44478 16.6215 0 1.2 1 0.00303355 0.0024763 0.000990989 0.00407339 0.00139283 0.00887452 0.00122579 0.0210969 0.00145686 0.00809564 0.00151309 0.0278712 0.00240494 0.0157144 0.00227528 0.0295422 0.00301912 0.0158679 0.00302075 0.0491098
106 3 O 3.0436 17.9389 5.78248 -1.2 1 0.00252174 0.00443448 0.00158117 0.00492802 0.00310557 0.00701169 0.00243249 0.0222014 0.00237459 0.00797923 0.00301291 0.0268617 0.00396494 0.0170615 0.00516486 0.0304964 0.00576419 0.0212667 0.00612389 0.0520681
107 1 Mg -1.40524 16.6628 1.4948 1.2 1 0.00166471 0.00311031 0.00135753 0.00455157 0.00165287 0.00868642 0.00163924 0.0218957 0.00220919 0.00810504 0.00184134 0.0275778 0.00318382 0.0166259 0.00316208 0.0295901 0.00338766 0.0164462 0.00346085 0.0496505
108 2 Si 0.420358 14.5979 1.4948 2.4 1 0.00129653 0.00274773 0.001543 0.00469057 0.00213809 0.00895884 0.00189618 0.0211159 0.00171529 0.00817228 0.00156794 0.0278833 0.00293129 0.0164082 0.00340919 0.0290257 0.00388132 0.0162318 0.00363008 0.0495216
109 3 O 0.408732 12.9847 1.4948 -1.2 1 0.000990118 0.00285828 0.00165944 0.00468778 0.00204368 0.00891451 0.00150355 0.0210038 0.00219947 0.00843127 0.00136665 0.0285887 0.00304844 0.0160749 0.00297179 0.0298808 0.00373072 0.0167187 0.00389779 0.049291
110 3 O 7.03923 15.572 1.4948 -1.2 1 0.00124678 0.00303433 0.00135561 0.00457492 0.0021683 0.00829334 0.00219976 0.0213927 0.00216179 0.00807583 0.00167349 0.0286565 0.00257966 0.0163598 0.00297462 0.029932 0.003896 0.0166053 0.00409067 0.0497178
111 3 O -0.248332 15.3041 0.196716 -1.2 1 0.0024883 0.00264693 0.00105917 0.00435304 0.00118813 0.00890883 0.00186414 0.0209853 0.00166556 0.00806868 0.00188987 0.0273183 0.00305341 0.0158736 0.0039186 0.0294474 0.00356298 0.0157092 0.00318418 0.0492661
112 3 O -0.289436 15.3041 2.79288 -1.2 1 0.00227516 0.00329891 0.00123852 0.00440064 0.00249235 0.00848933 0.00200156 0.0216293 0.00196837 0.00867605 0.00207345 0.0271013 0.00293776 0.0162631 0.0035389 0.0298946 0.00498135 0.0176779 0.00506281 0.0499076
113 1 Mg 6.59566 18.996 0 1.2 1 0.00177834 0.0027746 0.00133322 0.0042472 0.00099044 0.00862633 0.00115771 0.0215512 0.00143415 0.00766061 0.00168081 0.027387 0.00222176 0.0163215 0.0024128 0.0290241 0.00296621 0.015751 0.00253744 0.0490353
114 1 Mg 3.85574 23.7037 1.4948 1.2 1 0.002046 0.00297532 0.00115026 0.00409648 0.00139337 0.0074334 0.000950522 0.0230509 0.0017978 0.00754688 0.00198512 0.0268922 0.00231622 0.0172932 0.00337651 0.0285106 0.00375306 0.0173345 0.00350097 0.0503552
115 2 Si 5.66125 21.0195 1.4948 2.4 1 0.00160148 0.00275764 0.000979139 0.00420534 0.00180263 0.00816594 0.00137731 0.0216354 0.00142551 0.00733767 0.00165051 0.0276918 0.0024807 0.0173076 0.00267766 0.028376 0.0037224 0.0159494 0.00371789 0.0501354
116 3 O 5.72074 22.6328 1.4948 -1.2 1 0.00183652 0.00279586 0.00147602 0.00413616 0.0015806 0.00815356 0.00140212 0.0222 0.00186433 0.00716677 0.0014904 0.0275978 0.00232882 0.0172256 0.00277562 0.0284918 0.00369683 0.0165446 0.00350736 0.0499188
117 3 O 2.03867 20.0455 1.4948 -1.2 1 0.00150237 0.00327468 0.00128614 0.00438921 0.0018165 0.00777332 0.00178036 0.0221364 0.00219699 0.0073677 0.00157992 0.0280128 0.00231735 0.0170752 0.0027294 0.0291287 0.00397834 0.0162401 0.00358475 0.0502503
118 3 O 4.96004 20.3134 0.196716 -1.2 1 0.00239271 0.00236488 0.00113365 0.0040962 0.00101949 0.00837704 0.00104942 0.0214457 0.00124861 0.00731814 0.0015779 0.0270725 0.0027092 0.0165016 0.00360147 0.0290106 0.00335109 0.015167 0.00276151 0.0495494
119 1 Mg 6.55057 18.996 2.9896 1.2 1 0.000949291 0.00342954 0.00112738 0.00438459 0.00258429 0.00814705 0.00271209 0.0211244 0.00248628 0.00794597 0.00180522 0.0285749 0.0028932 0.017005 0.00312751 0.0290955 0.00405194 0.0171786 0.00464237 0.0500088