ITEM: TIMESTEP
53500
ITEM: NUMBER OF ATOMS
10500
ITEM: BOX BOUNDS xy xz yz pp pp pp
0	15.2977	5.09925
0	118.725	0
0	89.688	0
ITEM: ATOMS id type element xu yu zu q Q_1 Q_2 Q_3 Q_4 Q_5 Q_6 Q_7 Q_8 Q_9 Q_10 Q_11 Q_12 Q_13 Q_14 Q_15 Q_16 Q_17 Q_18 Q_19 Q_20 Q_21
1 1 Mg 6.2404 -6.37941e-06 0 1.2 1 0.00224447 0.00397433 0.00139341 0.00443361 0.00134329 0.00533876 0.00180404 0.0160204 0.00212875 0.00558713 0.00227284 0.0216674 0.00272277 0.0134291 0.00348007 0.0204377 0.00398612 0.0140474 0.0037117 0.0400762
2 1 Mg 3.46349 4.70768 1.4948 1.2 1 0.00177468 0.00319264 0.00196033 0.00412233 0.00195164 0.0061792 0.0035138 0.0185983 0.0028509 0.0068372 0.00295602 0.0256537 0.00329136 0.0137786 0.00437973 0.0250503 0.00526845 0.0169373 0.00578075 0.0438133
3 2 Si 5.2885 2.02354 1.4948 2.4 1 0.00183669 0.00331339 0.00213385 0.0042595 0.00184565 0.00572942 0.00241175 0.0169092 0.00233089 0.00596528 0.0021106 0.023239 0.00296617 0.013429 0.0036246 0.0215045 0.00372882 0.0153019 0.0042406 0.0411984
4 3 O 5.33628 3.63678 1.4948 -1.2 1 0.00112474 0.00299868 0.00185234 0.00444046 0.00204064 0.00638658 0.00278589 0.0175722 0.0022156 0.00655866 0.00193455 0.0251072 0.00260345 0.0134671 0.00431429 0.0240269 0.00496888 0.0163702 0.0056682 0.0428549
5 3 O 1.67294 1.04952 1.4948 -1.2 1 0.00277605 0.00363576 0.00203395 0.00379369 0.00119875 0.00574915 0.00223239 0.0167457 0.00215776 0.00588348 0.00202226 0.0226089 0.00267959 0.0127384 0.0032921 0.0217656 0.00448731 0.0157911 0.0049113 0.0399822
6 3 O 4.59532 1.31737 0.196716 -1.2 1 0.00231903 0.0027225 0.00230904 0.0041491 0.00198914 0.00558818 0.00218631 0.016972 0.00269917 0.00603221 0.00189973 0.0222784 0.00335393 0.0126763 0.00408007 0.021555 0.00390519 0.0147237 0.00434402 0.0407188
7 1 Mg 6.18956 -6.37941e-06 2.9896 1.2 1 0.00188671 0.00465269 0.00147586 0.00368567 0.00120942 0.00544579 0.00215818 0.0159186 0.00271177 0.00546647 0.00190967 0.0220493 0.00308683 0.0131175 0.00364078 0.0202264 0.0044877 0.0147598 0.00504163 0.0385021
8 3 O 4.55118 1.31737 2.79288 -1.2 1 0.00187792 0.00473059 0.00210973 0.0036964 0.00177501 0.00554169 0.00249807 0.0168169 0.00233554 0.00684016 0.00243898 0.0217036 0.00356671 0.0122787 0.00346925 0.0213036 0.00473119 0.0155357 0.00547726 0.039807
9 1 Mg -1.20682 0.0413099 4.4844 1.2 1 0.000892945 0.00343965 0.00189082 0.00381507 0.001141 0.00499955 0.00190123 0.0159644 0.0023211 0.00562081 0.00209114 0.0224565 0.00319869 0.0116263 0.00356109 0.0205222 0.00520637 0.0156276 0.00546734 0.0381415
10 2 Si -3.0337 2.72544 4.4844 2.4 1 0.000311102 0.00404494 0.00193821 0.00416151 0.00199593 0.00590709 0.00336507 0.0163337 0.00317913 0.00603407 0.00221057 0.0238617 0.00341138 0.0129489 0.00398898 0.0224976 0.00523679 0.0177206 0.00614741 0.0391328
11 3 O -3.08099 1.11221 4.4844 -1.2 1 0.000555359 0.00441695 0.00204884 0.00368694 0.00114422 0.00524052 0.00230515 0.015753 0.00271919 0.00541755 0.00220385 0.022272 0.00328835 0.0114189 0.00342677 0.0211531 0.00495498 0.0164272 0.00564008 0.0380452
12 3 O 0.582463 3.69946 4.4844 -1.2 1 0.00120237 0.00440189 0.0022119 0.00394608 0.00254351 0.00655509 0.00362114 0.0168513 0.00347155 0.00625692 0.00327421 0.0246601 0.00403694 0.0126767 0.00452389 0.0241479 0.00676666 0.0188556 0.00801739 0.0409252
13 3 O -2.29524 3.43162 3.18632 -1.2 1 0.00078105 0.00329327 0.00267471 0.00409116 0.00213535 0.00605525 0.00290847 0.0175373 0.00307482 0.00652684 0.00265738 0.0244414 0.00334411 0.0128858 0.00468049 0.024149 0.00583338 0.0177604 0.00643307 0.0416644
14 3 O -2.34216 3.43162 5.78248 -1.2 1 0.00122051 0.00382483 0.00125777 0.00434998 0.00259272 0.00572972 0.00319268 0.0164399 0.00310252 0.00670989 0.00284097 0.0232976 0.00421931 0.012465 0.00396868 0.0231258 0.00642609 0.0192247 0.00734593 0.0394597
15 1 Mg 1.12778 2.37449 2.9896 1.2 1 0.00232818 0.0039678 0.00257935 0.0040247 0.00194719 0.00582054 0.00302117 0.0166257 0.00269737 0.00603987 0.00243906 0.02341 0.00345012 0.0128546 0.00346739 0.0219378 0.00482892 0.0164757 0.00565334 0.0404722
16 1 Mg 3.92855 2.33318 4.4844 1.2 1 0.00113248 0.00470614 0.0016804 0.00370265 0.00162003 0.00551844 0.00344075 0.0165075 0.00310358 0.0057536 0.0030101 0.0228686 0.00390562 0.0133473 0.00521001 0.0219262 0.00635816 0.0174198 0.00730089 0.0397713
17 2 Si 2.09341 4.39804 4.4844 2.4 1 0.00104241 0.00421902 0.00233121 0.00372806 0.0028499 0.00592229 0.0037825 0.0179691 0.00354504 0.00634566 0.00342068 0.0248764 0.00451477 0.0139604 0.00471683 0.0245887 0.00670156 0.0186562 0.00805569 0.042744
18 3 O 2.09991 6.01128 4.4844 -1.2 1 0.00156126 0.00419605 0.00173804 0.00374982 0.00281374 0.00665469 0.00331126 0.018941 0.00281515 0.00689232 0.00321816 0.0265639 0.0040614 0.0141604 0.00488782 0.0271649 0.00679035 0.0195162 0.00778899 0.0447046
19 3 O -4.52137 3.42402 4.4844 -1.2 1 0.00105883 0.00434775 0.00222983 0.00421825 0.00213457 0.00697218 0.00339178 0.0166334 0.00350676 0.00596441 0.00301606 0.0235419 0.00400101 0.0125905 0.0041344 0.0225866 0.00614353 0.0177611 0.00734696 0.0406147
20 3 O 2.80834 3.69187 3.18632 -1.2 1 0.000926008 0.00391817 0.00207545 0.00331786 0.00182186 0.0057553 0.00299987 0.0172153 0.00307149 0.00609559 0.00280708 0.0240952 0.00356737 0.0128529 0.00473533 0.023619 0.00585514 0.0170876 0.00639815 0.0420792
21 1 Mg 1.17857 2.37449 0 1.2 1 0.00311996 0.00354928 0.00193104 0.00391301 0.0014088 0.00543962 0.00223218 0.01698 0.00235426 0.00653374 0.00270897 0.0228516 0.00282975 0.0129976 0.0033873 0.0217564 0.00419679 0.0147858 0.00470304 0.0405937
22 3 O 2.76143 3.69187 5.78248 -1.2 1 0.00188072 0.00474874 0.00180584 0.00374059 0.00202715 0.00562384 0.00293702 0.0170609 0.00338594 0.00650997 0.0030418 0.0230347 0.00490179 0.0126638 0.00577754 0.0230263 0.00662899 0.0188549 0.00766107 0.0404517
23 1 Mg -1.67381 2.41581 1.4948 1.2 1 0.00279056 0.0028215 0.00250336 0.00458816 0.00128888 0.00608562 0.0022228 0.0165626 0.00268843 0.00611723 0.00192646 0.0239747 0.00270978 0.0140223 0.002864 0.022319 0.0043076 0.0160804 0.00493933 0.0415766
24 2 Si 0.16286 0.350945 1.4948 2.4 1 0.00322063 0.00294926 0.00278103 0.00410661 0.00129084 0.00623063 0.00254227 0.0162704 0.00203047 0.00504327 0.00173839 0.0227084 0.00266852 0.0134669 0.00303049 0.0207248 0.00457731 0.0148144 0.00443879 0.0401237
25 3 O 0.15972 -1.26229 1.4948 -1.2 1 0.00294571 0.00307015 0.0028803 0.00397551 0.00177997 0.00595028 0.00227553 0.0162727 0.00215352 0.00538735 0.00245791 0.0225815 0.00282084 0.0137491 0.00282259 0.0215788 0.00427495 0.0145438 0.00401848 0.0404861
26 3 O 6.77654 1.32496 1.4948 -1.2 1 0.00237782 0.00377113 0.00161533 0.00429053 0.00113551 0.0059643 0.00211551 0.0166624 0.00238345 0.00529695 0.0017864 0.0235492 0.00302593 0.0135402 0.00346979 0.0218442 0.00451847 0.0152699 0.00444725 0.0407445
27 3 O -0.508028 1.05712 0.196716 -1.2 1 0.00291065 0.00272788 0.00324093 0.00386182 0.00141746 0.00558313 0.00218085 0.0169834 0.00159495 0.00649004 0.00245828 0.0218868 0.00286624 0.012761 0.00308768 0.0212172 0.00416286 0.0151587 0.00416317 0.0397897
28 3 O -0.552171 1.05712 2.79288 -1.2 1 0.00206001 0.00295798 0.00288024 0.00384251 0.00120233 0.00605538 0.00213654 0.0158904 0.00243218 0.00597116 0.00185828 0.0227592 0.00339101 0.0118096 0.00369989 0.0216303 0.00547687 0.0159391 0.00506283 0.0391907
29 1 Mg 6.31713 4.74899 0 1.2 1 0.00192486 0.00265479 0.00203819 0.00461037 0.00231604 0.00615861 0.00322667 0.017909 0.00290632 0.00685101 0.00227903 0.025093 0.00290671 0.0133694 0.00420168 0.0246615 0.00464002 0.0161088 0.00601746 0.0428203
30 1 Mg 3.54847 9.45668 1.4948 1.2 1 0.000406671 0.00293894 0.00203347 0.0044067 0.00219464 0.00785927 0.00327503 0.0212586 0.00193952 0.00833556 0.00217172 0.0284583 0.00334243 0.0153027 0.00385173 0.0290233 0.00424541 0.0177472 0.00388209 0.0489614
31 2 Si 5.36879 6.77254 1.4948 2.4 1 0.000522856 0.0029374 0.00200676 0.00493173 0.0027289 0.00709857 0.0037917 0.0194856 0.00277609 0.00764756 0.00259051 0.0275189 0.00315543 0.0150353 0.00430634 0.0268532 0.00466562 0.0170372 0.00539539 0.0466657
32 3 O 5.41937 8.38578 1.4948 -1.2 1 0.000259513 0.00284647 0.0018415 0.00475554 0.00234288 0.00803696 0.00328984 0.0208953 0.00242955 0.00826224 0.00247669 0.0289335 0.00241653 0.0153511 0.00316284 0.0290027 0.00465191 0.0173161 0.00496067 0.0481555
33 3 O 1.75158 5.79852 1.4948 -1.2 1 0.00128263 0.00317576 0.00183831 0.00391925 0.00238021 0.00618364 0.00322648 0.0194017 0.00276765 0.00703684 0.00264882 0.0277922 0.00303005 0.0152666 0.00372822 0.0267096 0.0055412 0.017412 0.00551536 0.0457572
34 3 O 4.67421 6.06637 0.196716 -1.2 1 0.0012982 0.00278427 0.00169503 0.00459396 0.00202455 0.0070146 0.0028617 0.0197819 0.00262838 0.00786589 0.00210093 0.0260661 0.00339544 0.0140172 0.0040248 0.0265336 0.00464457 0.0164559 0.00553942 0.045382
35 1 Mg 6.26654 4.74899 2.9896 1.2 1 0.00153309 0.00358828 0.00221081 0.00453483 0.00256174 0.00687266 0.0038127 0.0176971 0.00371085 0.00690202 0.00239942 0.0258462 0.00387724 0.0141802 0.00514016 0.0247664 0.00568007 0.0176182 0.00673448 0.0433565
36 3 O 4.63043 6.06637 2.79288 -1.2 1 0.00137689 0.00333127 0.0020528 0.00450765 0.0021321 0.00706259 0.00361067 0.0193803 0.00313977 0.00759977 0.00255869 0.0261951 0.00405331 0.0144406 0.00485643 0.0271761 0.00587301 0.0182127 0.00662819 0.0454652
37 1 Mg -1.12976 4.79031 4.4844 1.2 1 0.00139614 0.0039933 0.00188761 0.00456581 0.00247212 0.0064912 0.0032544 0.0177004 0.00360507 0.00663001 0.00309376 0.0257979 0.00385398 0.0139314 0.0046315 0.0254523 0.00746952 0.0192584 0.00753611 0.0435943
38 2 Si -2.9517 7.47444 4.4844 2.4 1 0.00201326 0.00384314 0.00150091 0.0049411 0.00288441 0.00672631 0.00376064 0.0199199 0.00322444 0.00743255 0.003144 0.0275029 0.00459805 0.015636 0.00525362 0.0277406 0.00676995 0.0191992 0.00782524 0.0471043
39 3 O -3.00198 5.86121 4.4844 -1.2 1 0.00163959 0.00414783 0.00154332 0.0047327 0.0029935 0.00654266 0.00401873 0.0184446 0.00353979 0.00743763 0.00279393 0.0257563 0.00430793 0.0138993 0.00478942 0.0267182 0.00662902 0.0193009 0.00785493 0.04504
40 3 O 0.666315 8.44846 4.4844 -1.2 1 0.00227269 0.0042954 0.00161152 0.00461754 0.00292376 0.00757805 0.00311249 0.0210187 0.00293132 0.00768215 0.00347026 0.0283089 0.00479157 0.015769 0.00463567 0.0290554 0.00639587 0.019655 0.00738932 0.0477044
41 3 O -2.21213 8.18062 3.18632 -1.2 1 0.00119965 0.00408212 0.00173821 0.00455975 0.00264279 0.006682 0.00299992 0.0206593 0.00278768 0.00786911 0.00296181 0.0276196 0.00439441 0.0154402 0.00534334 0.0287948 0.00600322 0.0189277 0.00636053 0.0485274
42 3 O -2.25864 8.18062 5.78248 -1.2 1 0.00283448 0.00408266 0.00152059 0.00442885 0.0030679 0.00608704 0.00314387 0.0203567 0.00272835 0.00773525 0.00328497 0.0267077 0.00478832 0.0160807 0.00512164 0.0287633 0.00691816 0.0203841 0.00796514 0.047653
43 1 Mg 1.20893 7.12349 2.9896 1.2 1 0.00095317 0.0034999 0.0018346 0.0042631 0.00284898 0.00685562 0.00378475 0.0195923 0.00291363 0.00790035 0.00289251 0.0279848 0.0036156 0.0155466 0.00418655 0.0273501 0.0057707 0.0182083 0.00633759 0.0467176
44 1 Mg 4.00982 7.08218 4.4844 1.2 1 0.00181986 0.0035991 0.00186079 0.00441509 0.00263293 0.00675593 0.00374405 0.019854 0.00338737 0.00735475 0.00334842 0.0271564 0.00442134 0.0160581 0.00595189 0.0277923 0.00724134 0.0191988 0.00805107 0.0463076
45 2 Si 2.17861 9.14704 4.4844 2.4 1 0.00168469 0.00371259 0.001866 0.00477393 0.00309928 0.00743387 0.00376972 0.0210632 0.00273279 0.0077563 0.00338337 0.0280445 0.00495604 0.0162748 0.00473423 0.02943 0.00589764 0.0192975 0.0068132 0.0490613
46 3 O 2.18828 10.7603 4.4844 -1.2 1 0.00227287 0.00398006 0.00205985 0.00473584 0.00292362 0.0072706 0.00308842 0.0209049 0.00257065 0.00783797 0.00269846 0.0288059 0.00439247 0.0155289 0.00464708 0.0304602 0.00582718 0.0198035 0.00643781 0.050126
47 3 O -4.43805 8.17302 4.4844 -1.2 1 0.00144551 0.00403006 0.00162364 0.00488601 0.00250996 0.0079349 0.00314376 0.0203419 0.00322286 0.00775862 0.00325888 0.028153 0.0048857 0.0154837 0.00500717 0.0289687 0.00673025 0.0195436 0.00868219 0.0474376
48 3 O 2.89193 8.44087 3.18632 -1.2 1 0.00129548 0.00314161 0.0019835 0.0042745 0.0025753 0.00701718 0.00339809 0.020364 0.00284825 0.00828412 0.00308809 0.0275926 0.00421506 0.0156587 0.00496429 0.0288452 0.00604117 0.0185733 0.00597046 0.0481134
49 1 Mg 1.25915 7.12349 0 1.2 1 0.00181708 0.00286021 0.0015575 0.0040318 0.00193383 0.00727261 0.00291174 0.0201043 0.00278757 0.00813291 0.00258603 0.0273746 0.00343768 0.0140896 0.00348653 0.0272332 0.00459855 0.0171265 0.00471694 0.046273
50 3 O 2.84547 8.44087 5.78248 -1.2 1 0.00237957 0.00433283 0.00167372 0.00440636 0.00273032 0.00667974 0.00341339 0.0205734 0.00290397 0.00797252 0.00358179 0.0265102 0.00539779 0.0161584 0.0052837 0.0291667 0.00615914 0.0207873 0.0077534 0.0479395
51 1 Mg -1.59284 7.16481 1.4948 1.2 1 0.00100191 0.00339099 0.00162418 0.00447617 0.00184817 0.00643456 0.00274636 0.0199293 0.00300482 0.00775575 0.00199081 0.0274768 0.00342308 0.0152605 0.00385427 0.0271663 0.00463592 0.0175539 0.00553748 0.0467628
52 2 Si 0.240329 5.09994 1.4948 2.4 1 0.0016897 0.00351275 0.00210825 0.00393743 0.00190031 0.00693023 0.00302942 0.0188358 0.00304402 0.00708648 0.00233359 0.0259394 0.00293478 0.0144139 0.00414054 0.0247639 0.00504711 0.0169386 0.00537921 0.0447409
53 3 O 0.234538 3.48671 1.4948 -1.2 1 0.00226978 0.00384015 0.00263791 0.00409292 0.00179947 0.00655423 0.00248739 0.0177191 0.00324288 0.00659442 0.00248111 0.0243518 0.00336375 0.0134987 0.00390589 0.0239479 0.00538763 0.0161875 0.00542642 0.0422222
54 3 O 6.85564 6.07396 1.4948 -1.2 1 0.000755027 0.00283044 0.00244863 0.0046639 0.0025475 0.0062514 0.00322565 0.0198117 0.00307988 0.00742999 0.00210211 0.0276413 0.00330489 0.0144422 0.00488112 0.0268123 0.00560194 0.0176382 0.00639805 0.0454814
55 3 O -0.429565 5.80612 0.196716 -1.2 1 0.00157774 0.00323228 0.00228768 0.00400596 0.00180453 0.00711733 0.00257236 0.0193002 0.00286773 0.00805418 0.00251071 0.0255335 0.00271704 0.0139082 0.0037714 0.0260309 0.00501415 0.0165339 0.0057517 0.0453536
56 3 O -0.473377 5.80612 2.79288 -1.2 1 0.00108419 0.00369259 0.00197846 0.00427946 0.00236448 0.00679228 0.0031706 0.0190988 0.00311356 0.00772413 0.00309483 0.0258786 0.00381359 0.0144933 0.00466898 0.0262781 0.00629891 0.0182976 0.00658112 0.0454025
57 1 Mg 6.40169 9.49799 0 1.2 1 0.000964047 0.00332175 0.00156264 0.00438757 0.00165058 0.00832518 0.00195661 0.0211507 0.00184503 0.00890412 0.00177959 0.0286634 0.0025305 0.014604 0.00271434 0.0296827 0.0035638 0.0175518 0.00391967 0.0480112
58 1 Mg 3.64209 14.2057 1.4948 1.2 1 0.00164655 0.00268807 0.001288 0.00439079 0.00175866 0.00880158 0.00167495 0.0216965 0.00177321 0.00873349 0.00217751 0.0283583 0.00265252 0.0160533 0.00298997 0.0296933 0.00327653 0.0167459 0.00327499 0.0493966
59 2 Si 5.45748 11.5215 1.4948 2.4 1 0.00126154 0.00284017 0.00167736 0.00433371 0.00199825 0.00833632 0.00229329 0.0210691 0.00163689 0.00827637 0.00169036 0.028839 0.00265186 0.0160503 0.00326938 0.0294171 0.00380117 0.0166967 0.00348793 0.0494387
60 3 O 5.51101 13.1348 1.4948 -1.2 1 0.00160052 0.00279587 0.00167762 0.00442857 0.00185882 0.00913833 0.00195704 0.0211766 0.00188036 0.0086353 0.00152935 0.0292644 0.00227545 0.0160886 0.00274487 0.0298761 0.00343074 0.0165638 0.0032678 0.0492123
61 3 O 1.83851 10.5475 1.4948 -1.2 1 0.000302681 0.00301796 0.00164968 0.00467156 0.00207571 0.00781883 0.00250525 0.0216868 0.00192284 0.00844543 0.0019732 0.0293375 0.00277213 0.0155331 0.00344356 0.0298192 0.00407496 0.0176625 0.00348246 0.0493065
62 3 O 4.7611 10.8154 0.196716 -1.2 1 0.000967346 0.00282813 0.0018339 0.00437696 0.00150904 0.00857249 0.00227567 0.0214079 0.00166544 0.00870911 0.00175036 0.0280687 0.0028474 0.0155032 0.00367532 0.0295108 0.00353364 0.0168464 0.00329745 0.0488946
63 1 Mg 6.35203 9.49799 2.9896 1.2 1 0.000754681 0.00355722 0.00172544 0.00481936 0.00278223 0.00787995 0.00356847 0.0204355 0.00314216 0.00840372 0.00215882 0.0291057 0.00363981 0.015771 0.00361276 0.029083 0.00426947 0.0184024 0.00547671 0.0486447
64 3 O 4.71833 10.8154 2.79288 -1.2 1 0.0014168 0.00318712 0.00151713 0.0044803 0.00228032 0.00837581 0.00232853 0.0212674 0.00215906 0.00880797 0.002137 0.0283201 0.00363274 0.0157771 0.00401704 0.0301165 0.00493072 0.0182347 0.00531447 0.0497625
65 1 Mg -1.0438 9.53931 4.4844 1.2 1 0.00222664 0.00411745 0.00157275 0.00455475 0.00318157 0.00692923 0.00289774 0.0209791 0.00295771 0.00818892 0.00291566 0.02837 0.00405326 0.0163959 0.00486262 0.0295418 0.00652696 0.0197721 0.00719391 0.0495371
66 2 Si -2.8604 12.2234 4.4844 2.4 1 0.00193846 0.00360093 0.00187857 0.00463236 0.00306903 0.00789766 0.00318817 0.0218554 0.00290376 0.00853633 0.00242645 0.0283046 0.00446109 0.0164089 0.00458517 0.0297992 0.00540108 0.0193232 0.00627726 0.0508152
67 3 O -2.91391 10.6102 4.4844 -1.2 1 0.00218492 0.00397856 0.00162862 0.00453218 0.00308797 0.00726511 0.00345251 0.0205772 0.002751 0.00763215 0.00216131 0.0287492 0.00463264 0.0155927 0.00446497 0.0304694 0.00564568 0.0196464 0.0068628 0.0498633
68 3 O 0.7596 13.1975 4.4844 -1.2 1 0.00248288 0.00374091 0.00196407 0.00498838 0.00296341 0.00868003 0.00270598 0.0222834 0.00293461 0.0083376 0.00286211 0.0286595 0.00444766 0.0162712 0.00414707 0.0299432 0.00556547 0.0193701 0.00653937 0.0506489
69 3 O -2.12001 12.9296 3.18632 -1.2 1 0.00195475 0.00327812 0.00172056 0.00414209 0.00269072 0.00766995 0.00235899 0.0218759 0.00247206 0.00854381 0.00245172 0.0279069 0.00396164 0.0162033 0.00479414 0.0303438 0.00497292 0.0182825 0.00529465 0.0502358
70 3 O -2.16532 12.9296 5.78248 -1.2 1 0.00288566 0.00380748 0.00149668 0.00473511 0.00294335 0.00693604 0.00229651 0.0219599 0.00255541 0.00836053 0.00305743 0.0276799 0.00438392 0.0168815 0.00549626 0.0309093 0.00592345 0.020993 0.00665958 0.0518197
71 1 Mg 1.29891 11.8725 2.9896 1.2 1 0.00154507 0.00306449 0.00166527 0.00478872 0.00257995 0.00804709 0.00285863 0.0211818 0.00260721 0.00860815 0.00238213 0.0292711 0.00375609 0.0161148 0.00373894 0.0298736 0.00440567 0.0177493 0.00470582 0.0494709
72 1 Mg 4.10033 11.8312 4.4844 1.2 1 0.00209254 0.00337132 0.00198761 0.00450529 0.00265885 0.00766259 0.00278132 0.0214065 0.00271311 0.0082193 0.00290226 0.0290157 0.00406032 0.0169524 0.00536122 0.0302575 0.00624471 0.019292 0.00612081 0.0503982
73 2 Si 2.27333 13.896 4.4844 2.4 1 0.00223978 0.00314415 0.0018108 0.00536603 0.00324909 0.00799157 0.00326493 0.0219429 0.0026606 0.00823366 0.00307542 0.0280859 0.00397115 0.0168001 0.00452277 0.0301338 0.00511348 0.0191086 0.00606774 0.0515488
74 3 O 2.28634 15.5093 4.4844 -1.2 1 0.0025771 0.00355256 0.0017915 0.00477499 0.00328122 0.00734162 0.00296752 0.0209615 0.00262793 0.00783104 0.00249343 0.0286793 0.00370804 0.0160785 0.00407418 0.0305552 0.00537729 0.0188871 0.00595173 0.0507207
75 3 O -4.34533 12.922 4.4844 -1.2 1 0.00192653 0.00367992 0.00184431 0.00480459 0.00295988 0.00859947 0.00291035 0.0217977 0.00278113 0.00834922 0.00286745 0.0291178 0.0043934 0.0163646 0.00512844 0.0302705 0.00603008 0.0196273 0.00681619 0.0505256
76 3 O 2.98455 13.1899 3.18632 -1.2 1 0.00179123 0.003098 0.001618 0.00447 0.0027752 0.00800179 0.00237245 0.0218756 0.00236029 0.00861985 0.00246739 0.0280764 0.00381028 0.0160313 0.00428009 0.0300638 0.00523449 0.0182452 0.00534256 0.0501607
77 1 Mg 1.34779 11.8725 0 1.2 1 0.00148312 0.00250939 0.00117184 0.00443213 0.00146094 0.00893288 0.00164084 0.0213477 0.00130457 0.00915672 0.00182425 0.0290073 0.00256575 0.0149533 0.00266016 0.0300622 0.00291356 0.0170277 0.00299385 0.0485172
78 3 O 2.93934 13.1899 5.78248 -1.2 1 0.0025123 0.00377002 0.00192917 0.00493946 0.00299237 0.00710318 0.00263145 0.021955 0.00262275 0.00813811 0.00330252 0.0276229 0.00450215 0.0166815 0.00506401 0.0307711 0.00566471 0.0212452 0.00664133 0.051606
79 1 Mg -1.50344 11.9138 1.4948 1.2 1 0.0010244 0.00314575 0.00138981 0.00444189 0.00174014 0.00822629 0.00194046 0.0217868 0.00249754 0.00854461 0.00164798 0.0287434 0.00365773 0.0161274 0.00336524 0.0296896 0.00328656 0.0173017 0.00366304 0.0493209
80 2 Si 0.326006 9.84894 1.4948 2.4 1 0.000569466 0.00312786 0.00130452 0.00487888 0.00217819 0.00819418 0.0021122 0.0211174 0.00216465 0.00843061 0.00164032 0.0285816 0.00306934 0.0155716 0.00377778 0.028923 0.0038404 0.0174545 0.00348265 0.0488486
81 3 O 0.317364 8.23571 1.4948 -1.2 1 0.000619282 0.00337286 0.00133857 0.00448982 0.00203999 0.00771184 0.00215858 0.0203358 0.00257563 0.00793886 0.0019837 0.0286008 0.00343693 0.0156075 0.00407012 0.0285641 0.00457243 0.0174456 0.00446423 0.0478015
82 3 O 6.94307 10.823 1.4948 -1.2 1 0.000542135 0.00330865 0.00149545 0.00425252 0.00221059 0.00776981 0.00271274 0.0218497 0.00247782 0.0083736 0.00142612 0.0294913 0.003037 0.0158006 0.00329651 0.0299169 0.003673 0.0176755 0.00399946 0.0494085
83 3 O -0.343122 10.5551 0.196716 -1.2 1 0.000833851 0.00287711 0.00115948 0.00457902 0.0015496 0.00855202 0.00200983 0.0214616 0.00192701 0.00891017 0.0019922 0.0282233 0.00331831 0.0153113 0.00418195 0.0293001 0.00356158 0.0171128 0.00331098 0.0489461
84 3 O -0.385966 10.5551 2.79288 -1.2 1 0.0016577 0.00350203 0.00138588 0.00441337 0.00267846 0.00793192 0.00233899 0.021705 0.00209853 0.00895597 0.00233201 0.0277888 0.0039433 0.0159016 0.00433561 0.0298657 0.00499548 0.0184299 0.00477099 0.0497292
85 1 Mg 6.49448 14.247 0 1.2 1 0.00158883 0.00275883 0.00163126 0.00432008 0.00129399 0.00915784 0.00131119 0.0213423 0.00135807 0.00869549 0.00159028 0.02888 0.00168507 0.0155928 0.00214227 0.0299857 0.00282387 0.0163751 0.00236259 0.0482681
86 1 Mg 3.74457 18.9547 1.4948 1.2 1 0.00208927 0.00284667 0.00135502 0.00391003 0.00185566 0.0084792 0.00129728 0.0222474 0.00208749 0.00806736 0.00238943 0.027596 0.00266809 0.0165921 0.00328974 0.0288365 0.00325443 0.0164087 0.0031929 0.0494682
87 2 Si 5.55495 16.2705 1.4948 2.4 1 0.00192196 0.00236653 0.00136343 0.00426056 0.00205983 0.00888648 0.00148098 0.0214716 0.00137775 0.00799171 0.00124519 0.0286028 0.00224949 0.0164424 0.00245542 0.0289632 0.00348761 0.0158751 0.00322898 0.049344
88 3 O 5.6115 17.8838 1.4948 -1.2 1 0.00187054 0.002726 0.00155938 0.00415356 0.00192451 0.00916212 0.00165164 0.0216455 0.00205175 0.00784273 0.00161251 0.0285959 0.0021319 0.0165783 0.0024929 0.0289807 0.00300305 0.0158967 0.00332731 0.0491491
89 3 O 1.93416 15.2965 1.4948 -1.2 1 0.00160359 0.0026802 0.00145455 0.00436616 0.0020986 0.00837106 0.00215886 0.0219801 0.00209602 0.00817812 0.0014331 0.0290544 0.00228504 0.0163124 0.00275426 0.029813 0.00353896 0.0166307 0.00320857 0.0495839
90 3 O 4.85636 15.5644 0.196716 -1.2 1 0.00191497 0.00195789 0.00136214 0.00421451 0.00122077 0.00908979 0.00139631 0.0213747 0.00140238 0.00822795 0.00156326 0.028044 0.00237334 0.0162843 0.00303383 0.0294028 0.00285341 0.0156622 0.00240775 0.0489455
91 1 Mg 6.44662 14.247 2.9896 1.2 1 0.00110232 0.00287037 0.00149931 0.00457996 0.00282218 0.00861588 0.00308554 0.0209627 0.00264934 0.00856754 0.00176262 0.0291914 0.00330101 0.0166302 0.00304647 0.0295858 0.00369139 0.0175698 0.0046024 0.0495386
92 3 O 4.81537 15.5644 2.79288 -1.2 1 0.00199853 0.00285466 0.00133285 0.00430264 0.00248316 0.00874045 0.00192678 0.021896 0.00173919 0.0087703 0.00192261 0.0278582 0.0030302 0.0166594 0.00344359 0.0295908 0.00444368 0.0174423 0.0048163 0.0500209
93 1 Mg -0.948271 14.2883 4.4844 1.2 1 0.00277746 0.00336925 0.00178378 0.00431154 0.00301542 0.00787667 0.00268405 0.0216313 0.00286248 0.00819874 0.00286664 0.0285412 0.00382944 0.0168394 0.00524281 0.0303132 0.00548291 0.0189506 0.00610172 0.0508267
94 2 Si -2.75928 16.9724 4.4844 2.4 1 0.0024436 0.00325413 0.00168398 0.00466395 0.0028874 0.00798654 0.00280986 0.0218992 0.00277535 0.00799129 0.0027932 0.0280463 0.00403548 0.0171668 0.0045527 0.0296846 0.00479725 0.0186241 0.00574698 0.0515024
95 3 O -2.81617 15.3592 4.4844 -1.2 1 0.00235676 0.00332737 0.00174803 0.00443435 0.00302162 0.00769486 0.00277139 0.0211531 0.00263973 0.00769024 0.00247507 0.0285365 0.00393339 0.0160919 0.00421839 0.0306625 0.00561352 0.0186456 0.00633287 0.0508979
96 3 O 0.862762 17.9465 4.4844 -1.2 1 0.00262532 0.00357231 0.0017759 0.00474783 0.00309084 0.00846534 0.00257216 0.0222216 0.0027358 0.007966 0.00280342 0.0286508 0.00402065 0.0168778 0.00431043 0.0292499 0.00537747 0.0188867 0.00586701 0.0508961
97 3 O -2.0185 17.6786 3.18632 -1.2 1 0.00231105 0.0031474 0.00178715 0.00402024 0.00263882 0.00771203 0.00211317 0.0221746 0.00234832 0.00799911 0.00242842 0.0274391 0.0036064 0.0165186 0.00450792 0.0298518 0.00458964 0.017845 0.00506809 0.0505054
98 3 O -2.06164 17.6786 5.78248 -1.2 1 0.00313024 0.00351723 0.00159875 0.00475526 0.00299331 0.00699631 0.00225504 0.0220932 0.00244262 0.00795945 0.00273014 0.0275452 0.00385476 0.017498 0.00498396 0.0306091 0.00552127 0.0204062 0.00597516 0.0524252
99 1 Mg 1.39817 16.6215 2.9896 1.2 1 0.00214638 0.00289328 0.0016254 0.00464485 0.00263529 0.00844755 0.00265998 0.0213022 0.00276942 0.00824242 0.00220277 0.0286422 0.00288117 0.0166404 0.00320348 0.029579 0.0038714 0.0170203 0.00445184 0.0496723
100 1 Mg 4.20062 16.5802 4.4844 1.2 1 0.0022145 0.00312698 0.00189521 0.00466066 0.00293555 0.00784318 0.00281732 0.0217303 0.00307974 0.00791296 0.00311925 0.0284404 0.00369017 0.017526 0.00502918 0.0298616 0.00616047 0.0188197 0.0059966 0.0507557
101 2 Si 2.37796 18.645 4.4844 2.4 1 0.00231749 0.00278641 0.00157971 0.0047493 0.00302456 0.00788538 0.00293847 0.0222107 0.00287547 0.00816742 0.00279299 0.0275593 0.00371934 0.0171892 0.00450821 0.0291234 0.00490517 0.0182808 0.00552837 0.0513398
102 3 O 2.39434 20.2583 4.4844 -1.2 1 0.00250733 0.0033372 0.00146142 0.00454367 0.00317223 0.00693921 0.00278273 0.0212857 0.00296195 0.00734794 0.00207637 0.0281792 0.00346984 0.0166941 0.00357378 0.029626 0.00533392 0.0182529 0.00622965 0.0510988
103 3 O -4.24274 17.671 4.4844 -1.2 1 0.00216956 0.00350709 0.00183769 0.00474762 0.00285988 0.00868892 0.00284859 0.0222923 0.00306969 0.00808372 0.00268949 0.0281705 0.00369925 0.0169622 0.00460443 0.0297739 0.00554402 0.0192361 0.00612007 0.0509059
104 3 O 3.08659 17.9389 3.18632 -1.2 1 0.00226751 0.00284793 0.0015217 0.00419105 0.00270884 0.00791815 0.00215969 0.0221467 0.00258641 0.00813412 0.00228999 0.0275025 0.0032861 0.0166434 0.00392561 0.0294771 0.00504702 0.0177879 0.00540637 0.0504812
105 1 Mg 1.44478 16.6215 0 1.2 1 0.00238077 0.0023282 0.00111339 0.00415672 0.00142679 0.00895204 0.00108302 0.0215382 0.00147355 0.00822398 0.00128964 0.0284713 0.00208342 0.0158583 0.00203669 0.0292153 0.0023933 0.0160599 0.00263329 0.048617
106 3 O 3.0436 17.9389 5.78248 -1.2 1 0.00257456 0.00354721 0.00153905 0.00476619 0.00290865 0.00717537 0.0024735 0.0222039 0.00239032 0.00810486 0.00286128 0.0272859 0.00374251 0.0169946 0.00434131 0.0303538 0.0056159 0.0210223 0.00568352 0.0520499
107 1 Mg -1.40524 16.6628 1.4948 1.2 1 0.00157839 0.00268949 0.00138164 0.00431087 0.00175976 0.00866781 0.00184897 0.0222104 0.00201848 0.00834218 0.00194775 0.028068 0.00313237 0.0166984 0.00278907 0.0294266 0.00267535 0.0168303 0.00315262 0.0490632
108 2 Si 0.420358 14.5979 1.4948 2.4 1 0.00115239 0.0026672 0.00146551 0.00457062 0.00213644 0.00908989 0.00200615 0.0215076 0.00162299 0.00835681 0.00148103 0.028449 0.00287135 0.0164516 0.00340267 0.0288683 0.00316398 0.0164594 0.00304196 0.0492469
109 3 O 0.408732 12.9847 1.4948 -1.2 1 0.000758315 0.00257898 0.00141443 0.00458729 0.00198698 0.0090628 0.00172495 0.0212223 0.00217146 0.00849099 0.00153115 0.0290692 0.00312282 0.0160595 0.00301568 0.0298924 0.00299654 0.0167809 0.00353542 0.0492377
110 3 O 7.03923 15.572 1.4948 -1.2 1 0.00135967 0.00270986 0.00130661 0.00430612 0.00229124 0.00841283 0.00235816 0.0218098 0.00223714 0.00812615 0.00156934 0.0292249 0.00255151 0.01649 0.00263904 0.0296986 0.00312832 0.0167486 0.00370968 0.0494983
111 3 O -0.248332 15.3041 0.196716 -1.2 1 0.00178909 0.00218632 0.00119765 0.00427732 0.00120292 0.0089526 0.00189165 0.0213633 0.00152661 0.00833156 0.00176789 0.0280155 0.00273747 0.0160407 0.00358452 0.0292072 0.00274162 0.0159949 0.00272304 0.0489179
112 3 O -0.289436 15.3041 2.79288 -1.2 1 0.00227862 0.0028682 0.00144058 0.00435232 0.00255454 0.00881332 0.002025 0.0220552 0.0020228 0.00869933 0.00203391 0.027549 0.00319308 0.0166636 0.00387876 0.0297514 0.00427684 0.0176721 0.00453876 0.0498314
113 1 Mg 6.59566 18.996 0 1.2 1 0.00188634 0.00259234 0.00142296 0.00411897 0.000986219 0.00859367 0.00112677 0.0218807 0.00119573 0.0078301 0.00143698 0.0281213 0.00195192 0.0164065 0.00207872 0.0287039 0.00258109 0.0157335 0.00255004 0.0485246
114 1 Mg 3.85574 23.7037 1.4948 1.2 1 0.00176864 0.0026899 0.0011865 0.00413209 0.00173906 0.00730572 0.00126137 0.023054 0.001902 0.00743138 0.0022746 0.0270157 0.00260903 0.0175316 0.0037947 0.0283274 0.00346099 0.0170851 0.00361807 0.0500088
115 2 Si 5.66125 21.0195 1.4948 2.4 1 0.00190198 0.00242353 0.00125857 0.00414704 0.00212198 0.00807609 0.00149964 0.0219105 0.00141349 0.0074986 0.00144896 0.0279702 0.00251085 0.0172763 0.00265307 0.0280907 0.00347713 0.015807 0.00376541 0.0496618
116 3 O 5.72074 22.6328 1.4948 -1.2 1 0.00180898 0.00275103 0.00161815 0.003979 0.00193914 0.00807513 0.00163825 0.0222686 0.00195764 0.0073325 0.00148833 0.027847 0.00214677 0.0172273 0.0029255 0.0282876 0.00329096 0.0162079 0.00362001 0.0495873
117 3 O 2.03867 20.0455 1.4948 -1.2 1 0.00178992 0.00291411 0.00143702 0.00416365 0.00199331 0.00771564 0.00198078 0.0222746 0.00236518 0.00748536 0.00169218 0.0283773 0.00226353 0.0171113 0.00237285 0.0289937 0.00354008 0.0163257 0.0035662 0.0497229
118 3 O 4.96004 20.3134 0.196716 -1.2 1 0.00235266 0.00226532 0.00130611 0.00393827 0.00116197 0.00820793 0.00110688 0.0216348 0.00114251 0.00750516 0.00151989 0.0274504 0.00254523 0.0166163 0.00373911 0.0286172 0.00287648 0.0151658 0.00291301 0.0490783
119 1 Mg 6.55057 18.996 2.9896 1.2 1 0.00150923 0.00318422 0.00132605 0.004233 0.00272555 0.00823108 0.0028364 0.021348 0.00259618 0.00789767 0.00198039 0.0287123 0.00307094 0.0170817 0.00282962 0.0288227 0.00370263 0.0172878 0.00471211 0.0497287