ITEM: TIMESTEP
67500
ITEM: NUMBER OF ATOMS
10500
ITEM: BOX BOUNDS xy xz yz pp pp pp
0	15.2977	5.09925
0	118.725	0
0	89.688	0
ITEM: ATOMS id type element xu yu zu q Q_1 Q_2 Q_3 Q_4 Q_5 Q_6 Q_7 Q_8 Q_9 Q_10 Q_11 Q_12 Q_13 Q_14 Q_15 Q_16 Q_17 Q_18 Q_19 Q_20 Q_21
1 1 Mg 6.2404 -6.37941e-06 0 1.2 1 0.00157044 0.0037193 0.00126166 0.00420539 0.00157183 0.00551604 0.00214095 0.0159176 0.00200837 0.00556571 0.00223522 0.0216958 0.00261032 0.0132364 0.00318657 0.0205836 0.00423567 0.0141402 0.00416279 0.040294
2 1 Mg 3.46349 4.70768 1.4948 1.2 1 0.00115994 0.00339255 0.00164356 0.00407483 0.00178796 0.0059579 0.00347231 0.0185211 0.00280722 0.00674966 0.00293329 0.0254872 0.00295158 0.0139771 0.00437272 0.0251017 0.00529834 0.0169065 0.00568895 0.0436077
3 2 Si 5.2885 2.02354 1.4948 2.4 1 0.000638529 0.0030783 0.00199985 0.00409257 0.00179154 0.00557214 0.00240211 0.0169285 0.00253128 0.00583355 0.00216219 0.0229257 0.00287488 0.0133184 0.00341686 0.0212142 0.00414131 0.0151877 0.00420897 0.0407803
4 3 O 5.33628 3.63678 1.4948 -1.2 1 0.000642408 0.00256572 0.0015973 0.00442013 0.00202506 0.00618194 0.00290181 0.0176304 0.00224903 0.00651481 0.00212098 0.0249352 0.00252758 0.0135823 0.00417768 0.0239611 0.0050554 0.0162058 0.00557064 0.042391
5 3 O 1.67294 1.04952 1.4948 -1.2 1 0.00212983 0.00344582 0.00187222 0.0039548 0.00127125 0.00551198 0.00234191 0.0169252 0.0024076 0.00584766 0.00209839 0.0226065 0.00270853 0.0126209 0.00332751 0.0217617 0.00489862 0.0153252 0.00481232 0.0398447
6 3 O 4.59532 1.31737 0.196716 -1.2 1 0.00125705 0.00255219 0.00187154 0.00389522 0.00180778 0.0054665 0.00244619 0.0169585 0.00271926 0.00609099 0.00201439 0.02214 0.00332035 0.0127199 0.00405877 0.0215533 0.00414295 0.0149176 0.00447571 0.040545
7 1 Mg 6.18956 -6.37941e-06 2.9896 1.2 1 0.00124271 0.00444628 0.00125468 0.00418758 0.00152537 0.00563608 0.00247801 0.0160035 0.00268128 0.00513456 0.00212953 0.0223928 0.00276871 0.0132259 0.00358053 0.0202785 0.00505211 0.0148199 0.00524803 0.0384861
8 3 O 4.55118 1.31737 2.79288 -1.2 1 0.00122819 0.00419013 0.00193948 0.00404583 0.00178262 0.00559663 0.00255268 0.0169853 0.00258929 0.00660905 0.00234543 0.0215391 0.00327607 0.0122483 0.00345643 0.0212383 0.00520564 0.0151331 0.00556153 0.0395064
9 1 Mg -1.20682 0.0413099 4.4844 1.2 1 0.00197931 0.00282079 0.00173919 0.00454908 0.0015551 0.00503554 0.00204806 0.0162457 0.00221677 0.00566531 0.00207634 0.0228581 0.00373994 0.0115185 0.0036787 0.0201111 0.00531466 0.0156524 0.00543124 0.0382734
10 2 Si -3.0337 2.72544 4.4844 2.4 1 0.00148588 0.0033625 0.0016986 0.00480583 0.0021855 0.00583769 0.00304625 0.0167054 0.0031159 0.00609617 0.0024402 0.0236554 0.0033571 0.0127849 0.00420992 0.021848 0.00542992 0.017351 0.00632053 0.0390585
11 3 O -3.08099 1.11221 4.4844 -1.2 1 0.00197888 0.0037404 0.00172733 0.00429026 0.00140595 0.0049839 0.00239446 0.0160492 0.00278983 0.00524276 0.00239632 0.0223179 0.00325496 0.0113067 0.003587 0.0210829 0.00546216 0.0161898 0.00581042 0.0379188
12 3 O 0.582463 3.69946 4.4844 -1.2 1 0.00257666 0.00469828 0.00186509 0.0043333 0.00206486 0.00643962 0.00333103 0.017156 0.00328136 0.00664748 0.00316992 0.024273 0.00432647 0.0127024 0.0046168 0.0242798 0.00671468 0.0181159 0.00797578 0.0409899
13 3 O -2.29524 3.43162 3.18632 -1.2 1 0.00111882 0.00298998 0.00240167 0.00430562 0.00203605 0.00577425 0.00291776 0.0176734 0.0033286 0.00657495 0.00272334 0.0240411 0.00327911 0.012818 0.00495256 0.0237191 0.00595799 0.0172765 0.0062134 0.0415713
14 3 O -2.34216 3.43162 5.78248 -1.2 1 0.0022475 0.00378431 0.00134739 0.00506099 0.0022659 0.00574764 0.00309084 0.0169046 0.00290129 0.00690938 0.00288469 0.0232068 0.00466299 0.0123266 0.0044164 0.0228404 0.00623418 0.0185623 0.00754347 0.039456
15 1 Mg 1.12778 2.37449 2.9896 1.2 1 0.00228266 0.00389504 0.0022649 0.0043653 0.00205954 0.00574416 0.00282622 0.0168268 0.00262003 0.00606621 0.00246458 0.0232116 0.00328301 0.0129212 0.00334777 0.0217134 0.00503553 0.016104 0.00574797 0.040308
16 1 Mg 3.92855 2.33318 4.4844 1.2 1 0.00135839 0.00441018 0.0017672 0.00431663 0.00155767 0.00568665 0.00348753 0.0167087 0.0030284 0.00579683 0.00291885 0.0227165 0.00354649 0.0132154 0.00521767 0.0216296 0.00657332 0.0168609 0.00702184 0.0395335
17 2 Si 2.09341 4.39804 4.4844 2.4 1 0.00200182 0.00442809 0.00189626 0.00409163 0.00270112 0.00586293 0.00370825 0.0178809 0.00349512 0.00666405 0.00333918 0.02416 0.00449882 0.0141309 0.00449714 0.0244161 0.00657554 0.0178932 0.0083302 0.0423435
18 3 O 2.09991 6.01128 4.4844 -1.2 1 0.00235065 0.00460811 0.00157124 0.00396279 0.0028673 0.00635006 0.00351396 0.0188426 0.00280535 0.00718922 0.0033275 0.0261761 0.00428599 0.0145578 0.00495831 0.0271412 0.00663082 0.0189777 0.00813276 0.0439604
19 3 O -4.52137 3.42402 4.4844 -1.2 1 0.000940705 0.00382783 0.00219393 0.00461032 0.00210485 0.00682984 0.0033385 0.0168673 0.0032285 0.00622365 0.00309217 0.023445 0.00404346 0.0129266 0.00417553 0.0225503 0.00630649 0.0173137 0.007497 0.0406034
20 3 O 2.80834 3.69187 3.18632 -1.2 1 0.00149835 0.00398334 0.00170558 0.00362971 0.00175065 0.00561497 0.00295718 0.0172592 0.00288722 0.00615749 0.00288792 0.0238854 0.00350105 0.0131074 0.00479706 0.0237065 0.00568519 0.0165229 0.00661976 0.0418431
21 1 Mg 1.17857 2.37449 0 1.2 1 0.00186708 0.00329382 0.00185233 0.00379024 0.00139979 0.00533322 0.00232286 0.0170686 0.00242866 0.00639707 0.00281429 0.0227887 0.0027079 0.0129509 0.00335709 0.0215995 0.00441152 0.0148691 0.00468434 0.0405993
22 3 O 2.76143 3.69187 5.78248 -1.2 1 0.00219964 0.0041494 0.00203148 0.00435456 0.00201105 0.00570967 0.00290552 0.0172979 0.00315919 0.00697619 0.00281373 0.0228444 0.00461022 0.0130921 0.0056794 0.0231465 0.00670098 0.0182093 0.0081333 0.0402716
23 1 Mg -1.67381 2.41581 1.4948 1.2 1 0.00151931 0.00281861 0.00222694 0.00442841 0.00128807 0.005882 0.00244888 0.016393 0.00278612 0.00608532 0.00180583 0.0238889 0.0025328 0.013983 0.00263058 0.0221392 0.00470374 0.0159373 0.00488734 0.0412057
24 2 Si 0.16286 0.350945 1.4948 2.4 1 0.00254751 0.00247599 0.00236823 0.00430155 0.00122968 0.00630407 0.00259434 0.016308 0.00205509 0.00508171 0.00187327 0.0227972 0.00256761 0.0132825 0.00308607 0.0206331 0.00517581 0.0147522 0.00468806 0.0397748
25 3 O 0.15972 -1.26229 1.4948 -1.2 1 0.00290605 0.0023498 0.00241735 0.00430594 0.00195147 0.00602076 0.00253483 0.0161858 0.00217131 0.00511784 0.00250827 0.0227524 0.00275024 0.0137423 0.00296336 0.0216212 0.00494057 0.0146079 0.00421855 0.040199
26 3 O 6.77654 1.32496 1.4948 -1.2 1 0.00107668 0.00356407 0.00121983 0.00415506 0.00140179 0.00575635 0.00221057 0.0165143 0.00249383 0.00524278 0.00183408 0.0234788 0.0028585 0.0133271 0.00341126 0.0217468 0.00496172 0.015105 0.00453122 0.0405143
27 3 O -0.508028 1.05712 0.196716 -1.2 1 0.0020521 0.0023288 0.00284927 0.00369054 0.0014116 0.00551084 0.00233027 0.0167958 0.00166694 0.00642385 0.00262244 0.0218625 0.00271909 0.0125467 0.00338132 0.0211913 0.00472739 0.0149755 0.00428277 0.0398875
28 3 O -0.552171 1.05712 2.79288 -1.2 1 0.00203028 0.00259804 0.00258154 0.00437071 0.00130101 0.00601378 0.0024561 0.0162795 0.00248498 0.00602681 0.00169849 0.0226306 0.00298582 0.0116097 0.00354181 0.0214606 0.00578015 0.0156151 0.00535871 0.039356
29 1 Mg 6.31713 4.74899 0 1.2 1 0.000871872 0.00251423 0.00151993 0.00424782 0.00211231 0.00602023 0.00330378 0.0179414 0.00290797 0.0070214 0.00216081 0.0250917 0.00273489 0.0137866 0.00380323 0.024579 0.00459034 0.0163853 0.00583779 0.0427465
30 1 Mg 3.54847 9.45668 1.4948 1.2 1 0.00199735 0.00292202 0.00169397 0.00437453 0.00198961 0.00743807 0.00308188 0.0210367 0.00164272 0.00850477 0.00223775 0.0283577 0.0029447 0.0155914 0.00370469 0.0289472 0.00410367 0.0182255 0.00396124 0.0480931
31 2 Si 5.36879 6.77254 1.4948 2.4 1 0.0012915 0.00297356 0.00173515 0.00483416 0.00265093 0.00671396 0.00370389 0.0193383 0.00271435 0.00775862 0.00245143 0.0274639 0.0030553 0.015396 0.00420464 0.0268964 0.00459305 0.0171473 0.00505602 0.0459965
32 3 O 5.41937 8.38578 1.4948 -1.2 1 0.0021097 0.00307964 0.00166957 0.00480576 0.00218653 0.00769494 0.00315817 0.0205716 0.00200671 0.0083349 0.00245445 0.0289026 0.00201583 0.0157384 0.00300881 0.0289941 0.00447087 0.0175279 0.00477764 0.0474372
33 3 O 1.75158 5.79852 1.4948 -1.2 1 0.001256 0.00342797 0.00185266 0.0038222 0.00224439 0.00588982 0.00321573 0.0193568 0.00268837 0.00726244 0.00269651 0.0275841 0.00273049 0.015448 0.00333231 0.0268763 0.00528488 0.0175552 0.00556598 0.0452476
34 3 O 4.67421 6.06637 0.196716 -1.2 1 0.000895423 0.00290187 0.00142173 0.00438636 0.00187381 0.00686716 0.00289332 0.019624 0.00245508 0.00796218 0.00214257 0.0260003 0.00332097 0.0143342 0.00410287 0.0265641 0.00462895 0.0165875 0.00541545 0.0449204
35 1 Mg 6.26654 4.74899 2.9896 1.2 1 0.0013373 0.00310272 0.00196807 0.00470049 0.00247724 0.00649345 0.00367073 0.0176834 0.00365795 0.0069896 0.00248667 0.0254272 0.00379223 0.0145726 0.00508119 0.0247019 0.0059224 0.017271 0.00704118 0.0428401
36 3 O 4.63043 6.06637 2.79288 -1.2 1 0.00222802 0.00349329 0.00172681 0.00466489 0.002009 0.00667373 0.0033599 0.0189829 0.00335078 0.0077697 0.00250403 0.0256506 0.00384297 0.0146106 0.00456311 0.0270048 0.00591426 0.017963 0.00711903 0.0446607
37 1 Mg -1.12976 4.79031 4.4844 1.2 1 0.00240709 0.00412711 0.00148441 0.00454994 0.00223349 0.00594431 0.00314291 0.017641 0.00348351 0.00698425 0.00289088 0.0252545 0.00408517 0.0143273 0.0046387 0.0255232 0.0073459 0.0185275 0.0078796 0.043164
38 2 Si -2.9517 7.47444 4.4844 2.4 1 0.00235438 0.00427769 0.00148352 0.00489513 0.00270913 0.00657372 0.00362792 0.0197737 0.00311279 0.00785065 0.00274224 0.0263148 0.00444335 0.0160266 0.00514113 0.0278127 0.00666175 0.0190989 0.00788414 0.0458844
39 3 O -3.00198 5.86121 4.4844 -1.2 1 0.00215685 0.00444196 0.00127978 0.00492505 0.00294382 0.00616639 0.0039346 0.0182065 0.00353644 0.00771313 0.00263417 0.0250524 0.00446487 0.014215 0.00476917 0.0266358 0.0067245 0.0191828 0.00833502 0.0439756
40 3 O 0.666315 8.44846 4.4844 -1.2 1 0.00272215 0.00458602 0.00125631 0.00477649 0.00286828 0.00745677 0.00323148 0.0204879 0.00300469 0.00811455 0.00325129 0.0275915 0.00439858 0.0159613 0.00446403 0.0289641 0.00624742 0.0193019 0.0080024 0.0469807
41 3 O -2.21213 8.18062 3.18632 -1.2 1 0.00259997 0.00402547 0.00148009 0.00437268 0.00236789 0.00621438 0.00285949 0.0202397 0.00238037 0.00817056 0.0027307 0.0273433 0.00413204 0.0160562 0.00486993 0.0289625 0.00585951 0.0188454 0.00666281 0.0475514
42 3 O -2.25864 8.18062 5.78248 -1.2 1 0.00264107 0.00454104 0.0015254 0.00466933 0.00308726 0.00595988 0.00296708 0.0197503 0.0023006 0.00837042 0.00374456 0.0260615 0.00447266 0.0167612 0.00570098 0.029064 0.00676686 0.0202453 0.00845308 0.0466677
43 1 Mg 1.20893 7.12349 2.9896 1.2 1 0.00198283 0.00390646 0.0016641 0.00424799 0.00262147 0.00669282 0.00350096 0.019517 0.0026318 0.00817647 0.00282588 0.0274565 0.00349838 0.015873 0.00398051 0.0273417 0.00562865 0.0181596 0.00646413 0.0459069
44 1 Mg 4.00982 7.08218 4.4844 1.2 1 0.00205539 0.00379987 0.00164279 0.0048414 0.00242909 0.00655335 0.00371277 0.019438 0.00334578 0.00785433 0.003311 0.0263056 0.00434727 0.016968 0.00584193 0.0278388 0.00695366 0.0189031 0.00857214 0.045848
45 2 Si 2.17861 9.14704 4.4844 2.4 1 0.00255866 0.00406178 0.00137608 0.00477445 0.00298668 0.00727569 0.00357061 0.0205465 0.00271567 0.00823303 0.00291021 0.0276941 0.00458791 0.0165075 0.00432601 0.0294355 0.00581465 0.0195548 0.00719502 0.0486472
46 3 O 2.18828 10.7603 4.4844 -1.2 1 0.00350565 0.00394192 0.00158351 0.00458991 0.00296535 0.00698166 0.00296517 0.0201572 0.00219221 0.00814717 0.00194953 0.0283694 0.00405559 0.0157917 0.00416352 0.0304298 0.00590629 0.0194994 0.00650465 0.049233
47 3 O -4.43805 8.17302 4.4844 -1.2 1 0.00174775 0.00428645 0.00175764 0.0049906 0.00260165 0.00764382 0.00328587 0.0201306 0.00298758 0.00836196 0.00320605 0.0276785 0.00463903 0.0162899 0.00498996 0.0292685 0.0067427 0.0193721 0.00860675 0.0464972
48 3 O 2.89193 8.44087 3.18632 -1.2 1 0.00264734 0.00356055 0.00149794 0.00426741 0.00247115 0.00683219 0.00322297 0.0201568 0.00266372 0.00842654 0.0029503 0.027039 0.00374872 0.0158548 0.00495748 0.02894 0.0059761 0.0186924 0.0059721 0.0476628
49 1 Mg 1.25915 7.12349 0 1.2 1 0.00103913 0.00278221 0.00160342 0.00391701 0.00176519 0.0071197 0.00299655 0.0201756 0.00260456 0.00828871 0.00248659 0.027439 0.00332238 0.0144197 0.00324905 0.0273252 0.0043893 0.017417 0.00440724 0.0459867
50 3 O 2.84547 8.44087 5.78248 -1.2 1 0.0022638 0.00434197 0.00160008 0.00461127 0.00250557 0.00651594 0.003166 0.0200254 0.00297467 0.00866944 0.00341728 0.0260811 0.00548061 0.0164112 0.00520705 0.0292651 0.00612211 0.0204319 0.0074976 0.0471893
51 1 Mg -1.59284 7.16481 1.4948 1.2 1 0.00133979 0.0032346 0.00145851 0.00424214 0.00169273 0.00628084 0.0026531 0.0196898 0.00282303 0.00799297 0.0017254 0.0273809 0.00311932 0.0154887 0.00361262 0.0272409 0.00454262 0.0177581 0.00532398 0.0459314
52 2 Si 0.240329 5.09994 1.4948 2.4 1 0.000806449 0.00383026 0.00181977 0.00387242 0.00170491 0.00672039 0.00302875 0.0187578 0.00308772 0.0072199 0.00244064 0.0256918 0.0026244 0.0145091 0.00394226 0.0246959 0.0052028 0.016911 0.00518139 0.0441531
53 3 O 0.234538 3.48671 1.4948 -1.2 1 0.00154863 0.00401326 0.00248257 0.0039516 0.00175062 0.00627765 0.00260479 0.0177983 0.00355131 0.00682949 0.00240508 0.0242294 0.0031357 0.013493 0.00375752 0.0239704 0.00575668 0.0158616 0.00546395 0.0420823
54 3 O 6.85564 6.07396 1.4948 -1.2 1 0.0013481 0.00288004 0.00207612 0.00454986 0.00233624 0.00598888 0.00306735 0.0197088 0.0031 0.00766626 0.00219049 0.0274644 0.00324251 0.0147275 0.00478502 0.0268611 0.00547361 0.0175244 0.00616038 0.0448634
55 3 O -0.429565 5.80612 0.196716 -1.2 1 0.000808799 0.00322337 0.00225564 0.00375512 0.00176074 0.00702037 0.00253411 0.0193647 0.00283072 0.00828911 0.00246534 0.0254606 0.00247675 0.0140012 0.00346484 0.0258958 0.00494902 0.0168082 0.00545141 0.0449651
56 3 O -0.473377 5.80612 2.79288 -1.2 1 0.00205151 0.00363237 0.00189322 0.00430501 0.0023367 0.00646374 0.00311347 0.0188295 0.00321421 0.00795322 0.00291393 0.0256012 0.003691 0.0143251 0.00472181 0.0263721 0.00648422 0.0181031 0.0068589 0.044766
57 1 Mg 6.40169 9.49799 0 1.2 1 0.00128443 0.00364745 0.00147507 0.00438795 0.00134463 0.00824188 0.00193045 0.02077 0.00168536 0.00887248 0.00174432 0.0287079 0.00225005 0.014741 0.00269679 0.0296237 0.00358837 0.0180547 0.00376985 0.0471732
58 1 Mg 3.64209 14.2057 1.4948 1.2 1 0.00240552 0.00279212 0.00133971 0.00495383 0.00156594 0.00882683 0.00142162 0.0214823 0.00145276 0.00857548 0.00225504 0.0283745 0.00240307 0.0158991 0.00295017 0.0294924 0.00339894 0.0170237 0.00351836 0.0488741
59 2 Si 5.45748 11.5215 1.4948 2.4 1 0.00269464 0.00302705 0.00162369 0.00456447 0.00154645 0.00812433 0.00206225 0.0208407 0.00141706 0.00832217 0.00184906 0.0288108 0.00239081 0.0160944 0.00317684 0.0291092 0.0038762 0.0171067 0.00369539 0.0485259
60 3 O 5.51101 13.1348 1.4948 -1.2 1 0.0026046 0.00297355 0.00149787 0.00475628 0.00136162 0.00900055 0.00160033 0.0209339 0.0017566 0.00865295 0.00175941 0.0293395 0.00209012 0.0160301 0.00278215 0.0297031 0.00353305 0.016647 0.0035532 0.0484194
61 3 O 1.83851 10.5475 1.4948 -1.2 1 0.00203004 0.00325042 0.00143606 0.00482983 0.00181668 0.0074177 0.00225441 0.0213634 0.00166054 0.00859215 0.00215243 0.0291645 0.00235558 0.0156441 0.00314852 0.0297708 0.0040342 0.0178954 0.00348986 0.0484796
62 3 O 4.7611 10.8154 0.196716 -1.2 1 0.00166904 0.00281327 0.00180888 0.00453458 0.00145706 0.00844624 0.00200549 0.0210729 0.00142877 0.00880803 0.00193315 0.0282633 0.00286424 0.0155074 0.00358401 0.0293681 0.00356342 0.0173965 0.00328204 0.0478708
63 1 Mg 6.35203 9.49799 2.9896 1.2 1 0.00234296 0.0037843 0.00160398 0.00479779 0.00249905 0.00746826 0.00334422 0.0200422 0.0029389 0.0086612 0.00206725 0.0287586 0.00358757 0.0164381 0.00344091 0.0290909 0.00444799 0.018488 0.00552626 0.0477247
64 3 O 4.71833 10.8154 2.79288 -1.2 1 0.00344393 0.00302841 0.00153232 0.00447462 0.00216363 0.00801745 0.00227938 0.0208666 0.00194156 0.00907341 0.00221453 0.0280959 0.00341226 0.0160396 0.00388839 0.0300094 0.00504494 0.0182743 0.00546963 0.0489649
65 1 Mg -1.0438 9.53931 4.4844 1.2 1 0.00318079 0.00437013 0.00138806 0.00455982 0.00293403 0.00650202 0.0025964 0.0203761 0.00249586 0.00857501 0.00264956 0.0278151 0.0038331 0.0167698 0.00462301 0.0296972 0.00637592 0.0194483 0.00721093 0.0482802
66 2 Si -2.8604 12.2234 4.4844 2.4 1 0.00323476 0.00397437 0.00166525 0.00456379 0.0028688 0.00753187 0.00287616 0.0213881 0.00268779 0.00864567 0.00229989 0.0278988 0.00410589 0.0166091 0.00431752 0.029971 0.00545592 0.0190838 0.00651921 0.0502336
67 3 O -2.91391 10.6102 4.4844 -1.2 1 0.00339442 0.00425531 0.00175466 0.00445208 0.00297752 0.00693161 0.00332614 0.0200419 0.00264282 0.00791446 0.00207338 0.0281535 0.00411248 0.015998 0.00416905 0.0306602 0.00566547 0.0192595 0.00678304 0.0490935
68 3 O 0.7596 13.1975 4.4844 -1.2 1 0.0030847 0.00371185 0.00167177 0.00511615 0.0029991 0.00843984 0.0024019 0.021611 0.00243672 0.00843772 0.00245725 0.0284432 0.00406626 0.0162019 0.00402968 0.0299644 0.00596736 0.0192564 0.00629781 0.0496567
69 3 O -2.12001 12.9296 3.18632 -1.2 1 0.00371815 0.00355854 0.00169927 0.00424215 0.0024957 0.00745361 0.00206784 0.021381 0.00212388 0.0083553 0.0022815 0.0276374 0.00353748 0.0162278 0.00453707 0.0304255 0.00497144 0.0183988 0.00541647 0.0497374
70 3 O -2.16532 12.9296 5.78248 -1.2 1 0.00353975 0.00414692 0.00152347 0.00456219 0.00284585 0.0068897 0.00242837 0.0213271 0.00270478 0.0084056 0.00275215 0.0272128 0.0043791 0.016776 0.004597 0.0307977 0.00629597 0.0207234 0.00686916 0.0505086
71 1 Mg 1.29891 11.8725 2.9896 1.2 1 0.00277361 0.00320306 0.00151745 0.00488923 0.00259528 0.00791572 0.0026994 0.0206808 0.00232334 0.00870695 0.00210047 0.0288949 0.00320982 0.016175 0.00334256 0.0298031 0.00430619 0.0178459 0.00470609 0.0488871
72 1 Mg 4.10033 11.8312 4.4844 1.2 1 0.00329983 0.00344508 0.00186983 0.0043622 0.00279992 0.00716604 0.00272555 0.0208015 0.00246687 0.00849609 0.00245922 0.0284642 0.00359358 0.0173749 0.00491262 0.0301343 0.00622765 0.019226 0.0060701 0.049462
73 2 Si 2.27333 13.896 4.4844 2.4 1 0.00328169 0.00300768 0.00157904 0.0051485 0.00323149 0.00780003 0.00326787 0.0214294 0.00226939 0.00829893 0.00236212 0.0278347 0.00359379 0.0165159 0.00407963 0.0297892 0.00525283 0.0188162 0.00576945 0.050221
74 3 O 2.28634 15.5093 4.4844 -1.2 1 0.00346109 0.00343137 0.00157447 0.00488497 0.00313448 0.00728099 0.00279315 0.020678 0.00248157 0.00765802 0.00204884 0.0284503 0.00324235 0.0156235 0.00389394 0.0304519 0.00557036 0.018781 0.00608497 0.0496701
75 3 O -4.34533 12.922 4.4844 -1.2 1 0.00336788 0.00380098 0.0016668 0.0046977 0.00282884 0.00821861 0.00273816 0.0213323 0.0026639 0.00851881 0.00222845 0.0285648 0.00389382 0.016223 0.00452253 0.0303187 0.00624706 0.0196818 0.00702634 0.0498409
76 3 O 2.98455 13.1899 3.18632 -1.2 1 0.00339873 0.00296563 0.0013761 0.00446996 0.00263441 0.00777307 0.00220895 0.0213476 0.00198326 0.00857533 0.00208559 0.0279641 0.003304 0.015847 0.00409404 0.0301213 0.00527702 0.0184293 0.00522427 0.0495957
77 1 Mg 1.34779 11.8725 0 1.2 1 0.00148936 0.00278024 0.0011095 0.00501957 0.00125238 0.00883837 0.00145511 0.0210046 0.00113214 0.00913751 0.00195277 0.02896 0.00277636 0.0147999 0.00293743 0.0300384 0.00309672 0.0173211 0.00327503 0.0476982
78 3 O 2.93934 13.1899 5.78248 -1.2 1 0.00324743 0.00386576 0.00158867 0.00484715 0.00296443 0.00679168 0.00245235 0.0212693 0.00235989 0.0082959 0.00282833 0.0270519 0.00386461 0.0165799 0.00458472 0.0308522 0.00603978 0.0210416 0.0065654 0.0499129
79 1 Mg -1.50344 11.9138 1.4948 1.2 1 0.00206606 0.00350457 0.00143223 0.00458736 0.00151437 0.00817527 0.00167707 0.0213621 0.00209465 0.00862222 0.0016188 0.0284224 0.00344281 0.0160345 0.00320405 0.029602 0.00322906 0.0175588 0.00338977 0.0484435
80 2 Si 0.326006 9.84894 1.4948 2.4 1 0.00165012 0.00344855 0.0013516 0.00495601 0.00188684 0.00797892 0.00193867 0.0208609 0.00200614 0.00853125 0.00170401 0.0283976 0.00279306 0.0156443 0.00360604 0.0288983 0.00363325 0.0178205 0.00338022 0.0479707
81 3 O 0.317364 8.23571 1.4948 -1.2 1 0.00211411 0.00352122 0.00110114 0.00437158 0.00175219 0.00755339 0.00205549 0.0201151 0.00246891 0.00808474 0.00180773 0.028461 0.0033372 0.0156998 0.00381583 0.0286128 0.00427082 0.0177513 0.00420261 0.0470253
82 3 O 6.94307 10.823 1.4948 -1.2 1 0.00224447 0.00341354 0.00156719 0.00441997 0.00171996 0.00764705 0.00235553 0.0215203 0.00215407 0.00845764 0.00154715 0.029305 0.00278617 0.0159739 0.00322211 0.0297027 0.00363137 0.0180328 0.00402705 0.0484293
83 3 O -0.343122 10.5551 0.196716 -1.2 1 0.00139996 0.00311983 0.00137925 0.0048117 0.00143074 0.00852488 0.00167494 0.0210386 0.00148441 0.00886063 0.00200185 0.0280839 0.00317468 0.0151405 0.0039375 0.0295446 0.00334923 0.0176144 0.00329842 0.0480091
84 3 O -0.385966 10.5551 2.79288 -1.2 1 0.00300442 0.0037792 0.00101315 0.00458299 0.00252858 0.00778165 0.00213241 0.0211578 0.00180746 0.00907574 0.0023074 0.0274464 0.0036936 0.0159668 0.00391487 0.0299205 0.0051435 0.0185384 0.00508151 0.0487094
85 1 Mg 6.49448 14.247 0 1.2 1 0.00132829 0.00301641 0.00155117 0.0049384 0.00094473 0.00932827 0.00108154 0.0210421 0.00133326 0.00855315 0.00152652 0.0289062 0.00189505 0.0153677 0.00251636 0.0298032 0.0031301 0.0166698 0.00305865 0.0476773
86 1 Mg 3.74457 18.9547 1.4948 1.2 1 0.00181856 0.00247868 0.00137753 0.00443312 0.00183337 0.00857344 0.00133588 0.0221156 0.00180776 0.00787137 0.00231199 0.0279854 0.00244261 0.0162312 0.00345662 0.0288091 0.00328389 0.0164842 0.00360194 0.0490254
87 2 Si 5.55495 16.2705 1.4948 2.4 1 0.00236324 0.00240077 0.0012073 0.00483564 0.00181614 0.00890246 0.00143617 0.0212494 0.00130949 0.00781737 0.00128062 0.0288143 0.00227528 0.0159872 0.00271369 0.0288145 0.00358346 0.0159473 0.0036804 0.0488063
88 3 O 5.6115 17.8838 1.4948 -1.2 1 0.00232121 0.00244832 0.00152406 0.00462716 0.0019003 0.00907801 0.00142368 0.0216757 0.0019033 0.00780142 0.00154385 0.0289493 0.00219731 0.016226 0.00261021 0.0288367 0.00302842 0.0158234 0.00373039 0.0487417
89 3 O 1.93416 15.2965 1.4948 -1.2 1 0.00241465 0.00263992 0.00142031 0.00484942 0.00184275 0.00837329 0.00179903 0.021705 0.0017997 0.00794096 0.0015587 0.0291118 0.00202737 0.0158842 0.00282351 0.0297799 0.00358107 0.0167725 0.00338536 0.0491858
90 3 O 4.85636 15.5644 0.196716 -1.2 1 0.00172378 0.00207313 0.00114842 0.00495591 0.00108608 0.00911906 0.00133721 0.021272 0.00114969 0.00818452 0.00156611 0.0283499 0.00241689 0.0161161 0.00317316 0.0291399 0.00301764 0.0159189 0.00308832 0.0484331
91 1 Mg 6.44662 14.247 2.9896 1.2 1 0.0026014 0.00323846 0.00121108 0.00473595 0.00249143 0.00845457 0.00281917 0.0207168 0.00242824 0.0087292 0.00164093 0.0290218 0.00291632 0.0159707 0.00301759 0.0295867 0.00385472 0.0174597 0.00469464 0.0487125
92 3 O 4.81537 15.5644 2.79288 -1.2 1 0.00336814 0.00287568 0.00119827 0.00478085 0.00231103 0.00868946 0.0016607 0.0217096 0.00152546 0.0085671 0.00176937 0.0279184 0.00260523 0.0161704 0.00331896 0.0295123 0.00451849 0.0173421 0.00500202 0.0491806
93 1 Mg -0.948271 14.2883 4.4844 1.2 1 0.00353404 0.00344937 0.00147683 0.00441096 0.00284938 0.00777649 0.00264013 0.0211412 0.00262534 0.00822407 0.00277058 0.0282156 0.00344333 0.0165705 0.00506872 0.0303367 0.00592511 0.0189224 0.00650377 0.0500947
94 2 Si -2.75928 16.9724 4.4844 2.4 1 0.00344649 0.00309489 0.00155653 0.0046833 0.00276736 0.00787823 0.00267593 0.0217494 0.00255557 0.0077018 0.00230901 0.0277654 0.00339211 0.0167186 0.00433336 0.0292995 0.0051041 0.018416 0.00589096 0.0504479
95 3 O -2.81617 15.3592 4.4844 -1.2 1 0.00373564 0.00352432 0.00167222 0.00450586 0.00299065 0.00752026 0.00286841 0.0206486 0.00248985 0.00759569 0.00210819 0.0285216 0.00353397 0.0158025 0.00385088 0.0301343 0.00584517 0.0183431 0.00645825 0.05001
96 3 O 0.862762 17.9465 4.4844 -1.2 1 0.00293275 0.00318918 0.00148179 0.00482113 0.00292319 0.00824853 0.00258623 0.0220392 0.00254931 0.00780828 0.00238419 0.0284751 0.00325607 0.0163658 0.00434264 0.0289558 0.00575652 0.0185262 0.00618116 0.0497252
97 3 O -2.0185 17.6786 3.18632 -1.2 1 0.00322909 0.00269599 0.00165392 0.00415501 0.00271966 0.00775724 0.00261739 0.0220703 0.00239829 0.00769164 0.00206747 0.0277886 0.00339699 0.0162615 0.00396257 0.0294422 0.00459533 0.017288 0.00515533 0.0499369
98 3 O -2.06164 17.6786 5.78248 -1.2 1 0.00341171 0.00339492 0.0013596 0.00452939 0.00281119 0.00697115 0.00246052 0.0217879 0.0023973 0.00776101 0.00252217 0.0275367 0.0032038 0.0167543 0.0048776 0.0302591 0.00599207 0.0203476 0.00607989 0.0508676
99 1 Mg 1.39817 16.6215 2.9896 1.2 1 0.00287409 0.00282385 0.00152893 0.00486713 0.00252875 0.00846979 0.00266266 0.0211877 0.00262683 0.00809894 0.00214829 0.0288563 0.002552 0.0162765 0.00326032 0.0293792 0.00417431 0.0170372 0.00431821 0.0490742
100 1 Mg 4.20062 16.5802 4.4844 1.2 1 0.0034948 0.00300547 0.0016355 0.00471408 0.00270883 0.00754599 0.00246566 0.0215433 0.0029287 0.00779285 0.00278358 0.0282811 0.00313517 0.0169512 0.00521617 0.0297638 0.00619773 0.0186752 0.0060531 0.0501054
101 2 Si 2.37796 18.645 4.4844 2.4 1 0.00259127 0.00302959 0.0014854 0.00492001 0.00301998 0.00771787 0.00284984 0.022183 0.002583 0.00792963 0.00249194 0.027709 0.00308621 0.0167362 0.00431022 0.0290418 0.00538649 0.0181696 0.00558559 0.050895
102 3 O 2.39434 20.2583 4.4844 -1.2 1 0.00278909 0.0031099 0.00144342 0.0046706 0.00284394 0.00694441 0.00254354 0.021306 0.00289837 0.00727986 0.00175011 0.0282586 0.00293255 0.016312 0.00398456 0.029562 0.00572658 0.0184195 0.00656792 0.0503128
103 3 O -4.24274 17.671 4.4844 -1.2 1 0.0031178 0.00307379 0.00162668 0.00474089 0.00282806 0.00853919 0.00275374 0.0219906 0.00268068 0.00799219 0.00214604 0.0284264 0.00300068 0.0163601 0.00445145 0.029299 0.00601169 0.018671 0.00633502 0.0497511
104 3 O 3.08659 17.9389 3.18632 -1.2 1 0.00289001 0.00248393 0.00142454 0.00456303 0.00281178 0.00783452 0.00212975 0.0218996 0.00217579 0.00784047 0.00197716 0.0277097 0.00276712 0.0163617 0.00400363 0.0292814 0.00519506 0.0173622 0.00530707 0.0498106
105 1 Mg 1.44478 16.6215 0 1.2 1 0.00182821 0.00238764 0.00104494 0.00477916 0.00119833 0.00900908 0.00113739 0.0213676 0.00125188 0.00817961 0.00153569 0.0288058 0.00231317 0.0154313 0.00225203 0.0290825 0.00287273 0.0161 0.00323871 0.0480944
106 3 O 3.0436 17.9389 5.78248 -1.2 1 0.00290629 0.0033814 0.00168406 0.00490296 0.00286028 0.0070414 0.00241236 0.0220674 0.00226052 0.00793109 0.00275951 0.0272825 0.00337469 0.0164436 0.00524778 0.0302134 0.00585484 0.0207931 0.00632688 0.0505339
107 1 Mg -1.40524 16.6628 1.4948 1.2 1 0.00171549 0.00277618 0.00120852 0.00469033 0.00174234 0.00862851 0.00184237 0.0221278 0.0018242 0.00815972 0.00172615 0.0283531 0.0031163 0.0164793 0.00286173 0.0293617 0.00281616 0.0166325 0.00327703 0.0488584
108 2 Si 0.420358 14.5979 1.4948 2.4 1 0.00242234 0.00268907 0.00137485 0.00511799 0.00188562 0.0091009 0.00180788 0.0211438 0.0015965 0.0082323 0.0013687 0.0285281 0.00290968 0.0161915 0.00353464 0.0289078 0.00331591 0.0164568 0.00345734 0.0486659
109 3 O 0.408732 12.9847 1.4948 -1.2 1 0.00246956 0.0027596 0.00118822 0.00502749 0.00184047 0.00901776 0.0014298 0.0208502 0.00200971 0.00847926 0.00157733 0.0290099 0.00309021 0.0158978 0.00306873 0.0298722 0.00314476 0.0169153 0.0036513 0.0484174
110 3 O 7.03923 15.572 1.4948 -1.2 1 0.00228155 0.00279946 0.00113774 0.00477778 0.00186501 0.00835332 0.00233838 0.0215772 0.00209948 0.00800625 0.00152792 0.0293326 0.00247065 0.0161145 0.00270434 0.0295336 0.00327676 0.0166752 0.00383413 0.0489384
111 3 O -0.248332 15.3041 0.196716 -1.2 1 0.00170484 0.00252744 0.00113125 0.00490557 0.00102531 0.00918744 0.00176593 0.0211011 0.00131855 0.00835025 0.00176445 0.0281145 0.00312211 0.0156178 0.0037473 0.0290515 0.00281823 0.0161461 0.0034623 0.0482272
112 3 O -0.289436 15.3041 2.79288 -1.2 1 0.00342643 0.00287364 0.00125052 0.00442738 0.00252441 0.00855 0.00187487 0.0218149 0.00164194 0.00866066 0.0018742 0.0274188 0.00303285 0.0162983 0.00363324 0.0297133 0.00420875 0.0175841 0.00458849 0.0491612
113 1 Mg 6.59566 18.996 0 1.2 1 0.00105711 0.00254142 0.0015299 0.00442749 0.000830262 0.00865289 0.000947992 0.0219334 0.001388 0.00779695 0.00134024 0.0285826 0.00205337 0.0160999 0.00206365 0.0285008 0.00277985 0.0159208 0.00296987 0.0478309
114 1 Mg 3.85574 23.7037 1.4948 1.2 1 0.00200396 0.00198403 0.00126373 0.00443793 0.00165725 0.00746228 0.00139232 0.0233055 0.00173171 0.00752687 0.00218629 0.0275076 0.00232465 0.0173234 0.00354521 0.0284631 0.00332119 0.0173078 0.00329043 0.0501053
115 2 Si 5.66125 21.0195 1.4948 2.4 1 0.00183929 0.00198536 0.0012099 0.0044797 0.0020471 0.00807903 0.00165038 0.0219825 0.00126533 0.007455 0.00137966 0.028339 0.00250037 0.0170041 0.00261466 0.028049 0.00346431 0.0158706 0.00402041 0.0493845
116 3 O 5.72074 22.6328 1.4948 -1.2 1 0.00191078 0.00214741 0.00168918 0.00441734 0.00188204 0.00817431 0.00168996 0.0225126 0.00173257 0.00717192 0.00131017 0.0282235 0.0023553 0.0170478 0.00278844 0.0284292 0.00323751 0.0164572 0.00355659 0.0494058
117 3 O 2.03867 20.0455 1.4948 -1.2 1 0.00167878 0.00262839 0.00150098 0.00460944 0.00196283 0.0078846 0.00200338 0.0223112 0.00216378 0.00741527 0.00161181 0.0287497 0.00214274 0.0169552 0.00223564 0.0288555 0.00337266 0.016201 0.00364565 0.0495568
118 3 O 4.96004 20.3134 0.196716 -1.2 1 0.00188894 0.00193358 0.00153478 0.00458523 0.00114828 0.00848924 0.00106248 0.021802 0.000913722 0.0074479 0.00152491 0.0278901 0.00257836 0.0162645 0.0034624 0.0286336 0.00297462 0.0154148 0.00296211 0.0486242
119 1 Mg 6.55057 18.996 2.9896 1.2 1 0.00187549 0.00266377 0.00112264 0.00430681 0.00258107 0.00801999 0.00270875 0.0213408 0.00238098 0.00795202 0.00175297 0.0289964 0.00286752 0.0164748 0.00290908 0.0288523 0.00379429 0.0168292 0.00477203 0.0492881