ITEM: TIMESTEP
40800
ITEM: NUMBER OF ATOMS
10500
ITEM: BOX BOUNDS xy xz yz pp pp pp
0	15.2977	5.09925
0	118.725	0
0	89.688	0
ITEM: ATOMS id type element xu yu zu q Q_1 Q_2 Q_3 Q_4 Q_5 Q_6 Q_7 Q_8 Q_9 Q_10 Q_11 Q_12 Q_13 Q_14 Q_15 Q_16 Q_17 Q_18 Q_19 Q_20 Q_21
1 1 Mg 6.2404 -6.37941e-06 0 1.2 1 0.00119662 0.00427582 0.00140029 0.00474515 0.00132088 0.0055489 0.00208405 0.0161753 0.0022797 0.00554234 0.00217037 0.02186 0.00243416 0.0134663 0.00363409 0.0208671 0.00419153 0.0142604 0.00394547 0.0404054
2 1 Mg 3.46349 4.70768 1.4948 1.2 1 0.00112807 0.00352739 0.00162483 0.00423811 0.00202766 0.006171 0.00350214 0.0187667 0.00292325 0.00666264 0.00277237 0.0258469 0.0031623 0.0136474 0.00421046 0.0253611 0.00532429 0.0171622 0.00564698 0.0437008
3 2 Si 5.2885 2.02354 1.4948 2.4 1 0.00069372 0.00353492 0.00224779 0.00456319 0.00208632 0.00584688 0.00256416 0.0171014 0.00255191 0.00597968 0.00191776 0.0233763 0.00266945 0.013489 0.00346726 0.0217557 0.00379462 0.0154023 0.00423455 0.0413183
4 3 O 5.33628 3.63678 1.4948 -1.2 1 0.000896768 0.00309756 0.00173755 0.00471766 0.00210331 0.00641351 0.00295625 0.0178232 0.00221107 0.00651627 0.00191671 0.0251844 0.00242811 0.0136102 0.00397257 0.0240972 0.00494099 0.0165844 0.00569351 0.0426966
5 3 O 1.67294 1.04952 1.4948 -1.2 1 0.00157962 0.00359419 0.00216602 0.00416378 0.00133467 0.00591018 0.0025796 0.0169906 0.0024176 0.00595059 0.00203463 0.022747 0.00250814 0.0127946 0.00339718 0.0219765 0.00467849 0.0156006 0.00469871 0.0402154
6 3 O 4.59532 1.31737 0.196716 -1.2 1 0.00110073 0.00330009 0.00221425 0.00435163 0.00202007 0.00567448 0.00241463 0.0171492 0.00282739 0.00602914 0.00186 0.0224265 0.0030496 0.01274 0.00427818 0.0217643 0.00410206 0.0148994 0.0044663 0.0409342
7 1 Mg 6.18956 -6.37941e-06 2.9896 1.2 1 0.00106023 0.00459913 0.00149626 0.00414038 0.00162011 0.0057321 0.00248127 0.0159859 0.00273061 0.00514028 0.00186218 0.0224389 0.00259493 0.0134569 0.00372733 0.0210007 0.00455354 0.0145607 0.00475911 0.0389314
8 3 O 4.55118 1.31737 2.79288 -1.2 1 0.00114844 0.00460343 0.00208147 0.00407388 0.00204837 0.00585205 0.00265756 0.0169646 0.00245034 0.00667396 0.0022498 0.0216632 0.00318307 0.012327 0.00325302 0.0216755 0.00485264 0.0154623 0.00529552 0.0398262
9 1 Mg -1.20682 0.0413099 4.4844 1.2 1 0.00049184 0.00275315 0.0020466 0.0046838 0.00146044 0.00585723 0.00202075 0.0161882 0.00213123 0.0053542 0.00208928 0.0223177 0.00280256 0.0115326 0.00348323 0.0204961 0.00507916 0.0153506 0.0049777 0.0384376
10 2 Si -3.0337 2.72544 4.4844 2.4 1 0.000727329 0.00346188 0.00202018 0.00491467 0.00227762 0.00638026 0.00333716 0.0165583 0.00330309 0.00600687 0.00208409 0.0235417 0.00296789 0.012916 0.00387949 0.0221554 0.00543892 0.0176815 0.00641004 0.0389601
11 3 O -3.08099 1.11221 4.4844 -1.2 1 0.000757841 0.00364119 0.00198554 0.00426171 0.00157517 0.00558002 0.00246699 0.015797 0.00288914 0.00538557 0.0021166 0.0220362 0.00311998 0.0113894 0.00361832 0.0211633 0.0050526 0.0158876 0.0056395 0.0376849
12 3 O 0.582463 3.69946 4.4844 -1.2 1 0.0015348 0.00444898 0.00199798 0.00437435 0.00249519 0.00688091 0.00366193 0.0173586 0.00330107 0.00607557 0.00329562 0.0247865 0.00387696 0.012861 0.00423688 0.0241182 0.00691513 0.0187634 0.0081861 0.0411822
13 3 O -2.29524 3.43162 3.18632 -1.2 1 0.000854006 0.00302982 0.00241638 0.00468781 0.00220878 0.00619138 0.00304837 0.0177383 0.00319517 0.00657951 0.00270003 0.0244836 0.00300176 0.013017 0.00449063 0.0240839 0.00606403 0.018009 0.00656018 0.041712
14 3 O -2.34216 3.43162 5.78248 -1.2 1 0.00147027 0.00359328 0.00134846 0.0049895 0.00275946 0.006341 0.00348913 0.0169356 0.00299036 0.00682337 0.00265634 0.0232542 0.00409022 0.0122437 0.00391814 0.0228608 0.00654997 0.0192057 0.00769126 0.0393476
15 1 Mg 1.12778 2.37449 2.9896 1.2 1 0.00117882 0.00382888 0.00244391 0.00438722 0.00210861 0.00622295 0.00317046 0.0168189 0.00266618 0.00590768 0.00239613 0.023506 0.00293059 0.0130438 0.00330585 0.0219585 0.00496384 0.0165631 0.00557435 0.0405788
16 1 Mg 3.92855 2.33318 4.4844 1.2 1 0.00122043 0.00449644 0.00152203 0.00423326 0.00184643 0.00607784 0.0037075 0.0166496 0.00319025 0.00579661 0.00302255 0.022806 0.00347567 0.0133245 0.00507518 0.0218025 0.0065645 0.0171151 0.00713789 0.039586
17 2 Si 2.09341 4.39804 4.4844 2.4 1 0.00177138 0.00427252 0.00185931 0.00416005 0.00279763 0.00631707 0.00379176 0.018104 0.00348563 0.0063273 0.00346979 0.0247785 0.00432221 0.0138772 0.00424975 0.024477 0.00674176 0.0188049 0.0083318 0.0426699
18 3 O 2.09991 6.01128 4.4844 -1.2 1 0.00262368 0.00455397 0.00130635 0.00406126 0.00286277 0.00652214 0.00320714 0.0190634 0.00285335 0.00690027 0.0032085 0.0265411 0.00375058 0.0141275 0.00456314 0.0272125 0.00708049 0.0198007 0.00816708 0.0444948
19 3 O -4.52137 3.42402 4.4844 -1.2 1 0.0013224 0.00395493 0.00220843 0.0046043 0.00217322 0.00721451 0.00359897 0.0168031 0.00341727 0.00618958 0.00302119 0.0234876 0.00368957 0.0126477 0.00408399 0.022652 0.00650796 0.0179017 0.00764234 0.0402236
20 3 O 2.80834 3.69187 3.18632 -1.2 1 0.00140863 0.00390599 0.00170092 0.00355325 0.00200065 0.00615348 0.00325373 0.0173826 0.00316009 0.00605052 0.00269915 0.0240861 0.00344517 0.0128923 0.0045131 0.0237697 0.00572978 0.0172736 0.0064518 0.0420376
21 1 Mg 1.17857 2.37449 0 1.2 1 0.00232805 0.00390712 0.00188064 0.00418136 0.00148387 0.00561923 0.00262117 0.0174347 0.00232224 0.0063999 0.00240456 0.0232855 0.00276434 0.0130421 0.00345672 0.0221057 0.00436661 0.014983 0.00479221 0.0410853
22 3 O 2.76143 3.69187 5.78248 -1.2 1 0.00205311 0.00444524 0.00172891 0.00431206 0.0023225 0.00581579 0.00292572 0.0172102 0.00334971 0.00664433 0.00319002 0.023037 0.00475238 0.0126404 0.00557213 0.022743 0.00680178 0.0186268 0.00784253 0.0397991
23 1 Mg -1.67381 2.41581 1.4948 1.2 1 0.00116231 0.00292212 0.002666 0.00481607 0.00150957 0.00609233 0.00240242 0.0166504 0.00278125 0.00627356 0.00188779 0.0239789 0.00222931 0.0139252 0.00262891 0.022361 0.00434849 0.0161935 0.00465052 0.041458
24 2 Si 0.16286 0.350945 1.4948 2.4 1 0.00177858 0.00276694 0.00293555 0.00444776 0.00137851 0.0064314 0.00287729 0.0165129 0.00222458 0.00518505 0.00176852 0.0229257 0.00227092 0.0134781 0.00307177 0.0209213 0.00464115 0.0148142 0.00406591 0.0403669
25 3 O 0.15972 -1.26229 1.4948 -1.2 1 0.00180027 0.00285925 0.00298324 0.00438331 0.0017857 0.00604174 0.00260586 0.016435 0.00241348 0.00530451 0.00251323 0.0226151 0.00243784 0.0138233 0.00296662 0.0217743 0.00433803 0.0145658 0.00378402 0.0407601
26 3 O 6.77654 1.32496 1.4948 -1.2 1 0.0011227 0.00401502 0.00165774 0.00464092 0.0014191 0.00605169 0.00228588 0.0168381 0.00256397 0.00538927 0.00171794 0.0237799 0.00242686 0.0136285 0.00340253 0.0220246 0.00468388 0.0153405 0.00431533 0.0408521
27 3 O -0.508028 1.05712 0.196716 -1.2 1 0.0017352 0.00291851 0.00343111 0.0041861 0.0014679 0.00559833 0.00239644 0.017144 0.00184687 0.00654816 0.00219797 0.022206 0.00257995 0.0127676 0.00317584 0.0214961 0.00444464 0.0151015 0.00433599 0.0401927
28 3 O -0.552171 1.05712 2.79288 -1.2 1 0.000582947 0.00253321 0.00316769 0.0042738 0.00148745 0.00612528 0.00238017 0.0162595 0.00239796 0.00587559 0.00167121 0.0226059 0.00272315 0.0116082 0.00337911 0.0215592 0.00533091 0.0155686 0.00471515 0.0394261
29 1 Mg 6.31713 4.74899 0 1.2 1 0.00104964 0.00283535 0.00185319 0.00470462 0.00247053 0.00622094 0.00324828 0.0181265 0.00283605 0.00708582 0.0020553 0.0253068 0.00271319 0.0136022 0.00408929 0.0247795 0.00463665 0.0165851 0.00591321 0.0429923
30 1 Mg 3.54847 9.45668 1.4948 1.2 1 0.00104822 0.0032073 0.00199474 0.00459751 0.00198492 0.00769763 0.00310502 0.02131 0.00197428 0.00835214 0.0023618 0.028452 0.00323035 0.0155783 0.00390428 0.0292448 0.00430372 0.0183525 0.00390196 0.0485626
31 2 Si 5.36879 6.77254 1.4948 2.4 1 0.000703284 0.00308703 0.0017834 0.00501923 0.00278629 0.00702753 0.00376031 0.0195279 0.00271127 0.00767283 0.00259341 0.0276009 0.0031446 0.0150853 0.00407373 0.0269347 0.00473504 0.0174898 0.0053398 0.0462732
32 3 O 5.41937 8.38578 1.4948 -1.2 1 0.00103015 0.00330429 0.00164261 0.00508606 0.00231442 0.0078402 0.00319977 0.0208954 0.00238639 0.00825933 0.00247503 0.0289391 0.00226879 0.0154311 0.00307835 0.0291477 0.00466213 0.017793 0.00496284 0.0478357
33 3 O 1.75158 5.79852 1.4948 -1.2 1 0.00105061 0.00355 0.00166005 0.00389789 0.00240646 0.0061435 0.00326889 0.0194941 0.00287534 0.00709759 0.00265351 0.0278372 0.0028042 0.0153577 0.00344562 0.0268183 0.00538654 0.0178421 0.00550433 0.0454498
34 3 O 4.67421 6.06637 0.196716 -1.2 1 0.000827234 0.00307995 0.00165442 0.0048361 0.00210914 0.00697307 0.00299083 0.0198672 0.00250171 0.00807367 0.00207184 0.0262209 0.00339275 0.0140618 0.00418932 0.0267762 0.00464806 0.016963 0.00552368 0.0450109
35 1 Mg 6.26654 4.74899 2.9896 1.2 1 0.00147988 0.00335785 0.00208708 0.00498424 0.00262288 0.00683437 0.0037725 0.0180007 0.00367489 0.00682777 0.00224838 0.0258081 0.00363099 0.0144839 0.0049215 0.0247502 0.00596396 0.0180475 0.00692956 0.0430746
36 3 O 4.63043 6.06637 2.79288 -1.2 1 0.00212688 0.0036146 0.00176096 0.00474664 0.00225065 0.00705407 0.00350342 0.0194155 0.00336842 0.0076413 0.00254843 0.0260583 0.00385817 0.0144501 0.00466586 0.0271406 0.00603191 0.0186829 0.00670224 0.0451132
37 1 Mg -1.12976 4.79031 4.4844 1.2 1 0.0021009 0.0042649 0.00149694 0.00479138 0.00237883 0.00641036 0.00347359 0.0179131 0.00352619 0.00675535 0.00326127 0.0256089 0.00385916 0.0141042 0.00430257 0.0251638 0.00772996 0.0194266 0.00791301 0.0432192
38 2 Si -2.9517 7.47444 4.4844 2.4 1 0.0025933 0.00442675 0.00121851 0.00524731 0.00294986 0.00686271 0.00393658 0.0203298 0.00313179 0.00758733 0.00292346 0.0272927 0.00408497 0.0156011 0.0051383 0.0277267 0.00715866 0.01988 0.00802372 0.0469147
39 3 O -3.00198 5.86121 4.4844 -1.2 1 0.00210727 0.00433817 0.000942372 0.00495495 0.00309211 0.00666899 0.00429427 0.0188006 0.00361311 0.00735062 0.00281926 0.025802 0.00401835 0.0140176 0.00468137 0.0266229 0.00711281 0.0199801 0.00818053 0.0445394
40 3 O 0.666315 8.44846 4.4844 -1.2 1 0.00299072 0.00495572 0.00103134 0.00507076 0.00291532 0.00747199 0.00307872 0.0209156 0.00306274 0.00783031 0.00340931 0.0283898 0.00463316 0.0157543 0.00448941 0.0286414 0.00681688 0.0203286 0.00787081 0.0473832
41 3 O -2.21213 8.18062 3.18632 -1.2 1 0.00227443 0.00423547 0.00135507 0.00471377 0.00264906 0.00643999 0.00289179 0.0207368 0.00278859 0.0079529 0.00287187 0.0276151 0.00407066 0.0156339 0.00473912 0.0287495 0.00600564 0.0192157 0.00667352 0.0478246
42 3 O -2.25864 8.18062 5.78248 -1.2 1 0.00298642 0.00511246 0.00155539 0.00482204 0.00320058 0.00611506 0.003147 0.020457 0.00259061 0.00830034 0.0036494 0.0267267 0.00430245 0.0159986 0.00519623 0.0289168 0.00768807 0.021687 0.00840363 0.0474639
43 1 Mg 1.20893 7.12349 2.9896 1.2 1 0.00175185 0.0042231 0.00175361 0.0043484 0.00289024 0.00681937 0.00372309 0.0195578 0.00289843 0.00784189 0.00269639 0.0279363 0.00323863 0.0155732 0.00385292 0.027417 0.00574269 0.0187199 0.00630571 0.0463407
44 1 Mg 4.00982 7.08218 4.4844 1.2 1 0.00273038 0.00445645 0.00143134 0.00472427 0.0025504 0.00664912 0.0038289 0.0198578 0.00348364 0.00747735 0.00321966 0.0272454 0.00406985 0.0163324 0.00580531 0.0277829 0.00743289 0.0197068 0.00831938 0.0461372
45 2 Si 2.17861 9.14704 4.4844 2.4 1 0.00267096 0.00443092 0.00143547 0.00489189 0.00290459 0.00727619 0.0037565 0.0209788 0.00283447 0.00800151 0.0032435 0.028154 0.00445475 0.0161934 0.00453893 0.0293646 0.00605633 0.020114 0.00721396 0.049131
46 3 O 2.18828 10.7603 4.4844 -1.2 1 0.00329258 0.00464991 0.0017235 0.00455925 0.00266572 0.00714753 0.00304508 0.0206787 0.00253192 0.0081268 0.00227166 0.0287744 0.00399938 0.0154839 0.00435724 0.0302876 0.00614507 0.0203178 0.00680038 0.0497678
47 3 O -4.43805 8.17302 4.4844 -1.2 1 0.0023437 0.00493958 0.00149203 0.00506887 0.00257626 0.00783392 0.00324272 0.0206545 0.0031795 0.00808468 0.0031984 0.0280882 0.00450768 0.0157702 0.00483329 0.0290767 0.00691193 0.0202259 0.00871839 0.0476079
48 3 O 2.89193 8.44087 3.18632 -1.2 1 0.00246725 0.00397481 0.00157765 0.00438051 0.00252548 0.00697536 0.003328 0.020395 0.00283124 0.00831636 0.00285304 0.0276316 0.00380795 0.0157577 0.00460519 0.0287783 0.00596448 0.019046 0.00602581 0.0479339
49 1 Mg 1.25915 7.12349 0 1.2 1 0.000848361 0.00296915 0.00137754 0.00424196 0.00189549 0.0073308 0.00285291 0.0202828 0.00288467 0.00814902 0.0024273 0.0275271 0.00329251 0.0143569 0.00350014 0.02766 0.00448499 0.0176493 0.00444303 0.0461405
50 3 O 2.84547 8.44087 5.78248 -1.2 1 0.00338248 0.00496054 0.00143235 0.00467121 0.00262536 0.00673434 0.00344415 0.0206017 0.00296848 0.00843532 0.00338685 0.0268721 0.00498915 0.0161932 0.00525748 0.0289335 0.00654304 0.0215597 0.00795432 0.0479173
51 1 Mg -1.59284 7.16481 1.4948 1.2 1 0.00101247 0.00338422 0.00123153 0.00470817 0.00193451 0.00648346 0.00272939 0.0199023 0.00295582 0.00771931 0.00187242 0.0277099 0.00323124 0.0154376 0.00361389 0.0271966 0.00470596 0.0179557 0.0055252 0.046376
52 2 Si 0.240329 5.09994 1.4948 2.4 1 0.000968057 0.0036506 0.00203933 0.0040763 0.00193811 0.00692676 0.00319027 0.01892 0.00309683 0.00723213 0.00222085 0.0259482 0.00272742 0.0144451 0.00409134 0.0247628 0.00507306 0.0172424 0.00508796 0.0443561
53 3 O 0.234538 3.48671 1.4948 -1.2 1 0.0014416 0.00388356 0.00269893 0.00424242 0.00184508 0.00659044 0.00265255 0.0178597 0.00343041 0.00678302 0.0023588 0.0245992 0.00302193 0.0134875 0.00388852 0.0241152 0.00554603 0.0162075 0.0052836 0.0423681
54 3 O 6.85564 6.07396 1.4948 -1.2 1 0.00110293 0.00281654 0.00202199 0.00479788 0.00254725 0.00629674 0.00314901 0.0198848 0.00303682 0.00733941 0.0021744 0.0276027 0.00324923 0.0145501 0.00458799 0.0268335 0.00558842 0.0179866 0.00624813 0.0451405
55 3 O -0.429565 5.80612 0.196716 -1.2 1 0.000706908 0.00322207 0.00215251 0.00404534 0.00181881 0.00710351 0.00257386 0.0195929 0.00275827 0.00837261 0.00241313 0.0257678 0.00260723 0.0141193 0.00378005 0.0260498 0.00488312 0.0170092 0.00564341 0.0451259
56 3 O -0.473377 5.80612 2.79288 -1.2 1 0.00186489 0.00383779 0.00161022 0.00451351 0.00235909 0.00688272 0.00321087 0.0189895 0.0030522 0.00766026 0.00303735 0.0257796 0.00363513 0.0142361 0.00430929 0.0262935 0.00648806 0.0186984 0.00679178 0.0450761
57 1 Mg 6.40169 9.49799 0 1.2 1 0.000492031 0.00362533 0.00152023 0.00479378 0.00156989 0.00831703 0.00198595 0.0209663 0.00166421 0.00882678 0.0017799 0.0288059 0.00228099 0.0145996 0.00259475 0.0299436 0.00370115 0.0179966 0.00406014 0.0475744
58 1 Mg 3.64209 14.2057 1.4948 1.2 1 0.00146505 0.00306264 0.00156589 0.00474533 0.00161385 0.00886148 0.00169908 0.0216409 0.00182303 0.00880713 0.00214149 0.0282617 0.00252965 0.0160039 0.00278124 0.0298557 0.00328255 0.0171446 0.00326936 0.0491748
59 2 Si 5.45748 11.5215 1.4948 2.4 1 0.00132921 0.00334285 0.00180069 0.00483292 0.00178751 0.00831611 0.00226757 0.0210478 0.00166022 0.00829436 0.00176132 0.0289018 0.00258769 0.0160641 0.00330214 0.0294942 0.00412209 0.0171067 0.00365106 0.0490243
60 3 O 5.51101 13.1348 1.4948 -1.2 1 0.00133995 0.00330357 0.00177929 0.00489752 0.00159922 0.00916385 0.00180689 0.0211364 0.00192004 0.00862829 0.00168471 0.0294084 0.00211667 0.0159839 0.00277495 0.0300916 0.00359555 0.016865 0.00348704 0.0489383
61 3 O 1.83851 10.5475 1.4948 -1.2 1 0.000851624 0.00348582 0.00181033 0.00475287 0.00190755 0.00778227 0.00249417 0.0215313 0.00198474 0.00840522 0.00224641 0.0293727 0.00263226 0.0158606 0.00327121 0.0298583 0.00425297 0.0180615 0.00359843 0.0489984
62 3 O 4.7611 10.8154 0.196716 -1.2 1 0.000663656 0.00302862 0.00181648 0.00473364 0.0016152 0.00859871 0.00209129 0.0212735 0.00171937 0.00868152 0.00204674 0.0281935 0.00284636 0.0155055 0.00379146 0.0295733 0.00373592 0.0171995 0.0035775 0.0485841
63 1 Mg 6.35203 9.49799 2.9896 1.2 1 0.00177198 0.00417474 0.00156508 0.00498009 0.00264294 0.00771993 0.00347123 0.0203349 0.00311215 0.00834551 0.00214764 0.0290849 0.00357829 0.015964 0.00327643 0.0290929 0.00452248 0.0186889 0.00558996 0.0482856
64 3 O 4.71833 10.8154 2.79288 -1.2 1 0.00264589 0.00393561 0.00170828 0.00450329 0.00214674 0.00836038 0.00242681 0.0212375 0.00217931 0.00887406 0.00222091 0.0281691 0.00355141 0.0158428 0.00413051 0.0300818 0.00539342 0.0186557 0.00550645 0.0495181
65 1 Mg -1.0438 9.53931 4.4844 1.2 1 0.00307558 0.00487233 0.00124511 0.00468215 0.00294462 0.00685404 0.00282933 0.0207191 0.00282123 0.00817143 0.00286722 0.0284829 0.00386566 0.016366 0.00435102 0.0294891 0.00679536 0.0202897 0.00742058 0.0489394
66 2 Si -2.8604 12.2234 4.4844 2.4 1 0.00303132 0.00452019 0.00162076 0.00481494 0.00281832 0.00800651 0.00319127 0.0216228 0.00269207 0.00846514 0.00235305 0.0284222 0.0041301 0.0164551 0.00439782 0.0296695 0.00602432 0.0199085 0.00686174 0.0505141
67 3 O -2.91391 10.6102 4.4844 -1.2 1 0.00313853 0.00494879 0.00151938 0.00459672 0.00294432 0.0073572 0.00332247 0.0205836 0.0025801 0.00768661 0.00206512 0.028631 0.00423118 0.0155889 0.00418182 0.0303269 0.0064546 0.0202453 0.0069656 0.0496045
68 3 O 0.7596 13.1975 4.4844 -1.2 1 0.00325426 0.00417881 0.00155504 0.0051747 0.00283002 0.00883656 0.00258198 0.0220757 0.00253549 0.00839483 0.00280699 0.0289779 0.00422511 0.0163666 0.00426313 0.0297408 0.00609503 0.0200433 0.00669384 0.0504974
69 3 O -2.12001 12.9296 3.18632 -1.2 1 0.00272181 0.00402892 0.00163109 0.0045081 0.00240251 0.00789356 0.00235902 0.0217895 0.00232302 0.00849132 0.00220754 0.0280547 0.00349755 0.0160467 0.0045594 0.0303811 0.00544257 0.0189779 0.00551975 0.0500282
70 3 O -2.16532 12.9296 5.78248 -1.2 1 0.00378775 0.00501017 0.00159871 0.00481439 0.00279916 0.00716952 0.00237153 0.0215576 0.00233809 0.00807483 0.00264946 0.0278647 0.0039698 0.0164375 0.00491208 0.0308173 0.00662508 0.021867 0.00688078 0.0515383
71 1 Mg 1.29891 11.8725 2.9896 1.2 1 0.00186928 0.00369443 0.00172725 0.00479394 0.00242725 0.00816662 0.0029122 0.0209459 0.00255403 0.0085952 0.00211336 0.0291543 0.0035117 0.0160949 0.00345838 0.0299936 0.00485633 0.0183183 0.00534537 0.0490473
72 1 Mg 4.10033 11.8312 4.4844 1.2 1 0.00321317 0.00453266 0.0020952 0.00450611 0.00256146 0.00764026 0.00280191 0.0214407 0.00249212 0.00827745 0.00282425 0.0286688 0.0035447 0.0170444 0.00524735 0.0299999 0.00667201 0.0200478 0.00657376 0.0504201
73 2 Si 2.27333 13.896 4.4844 2.4 1 0.00302747 0.00381512 0.00156999 0.00510885 0.00300442 0.00802713 0.00336646 0.0215752 0.00240592 0.00829606 0.00275832 0.0284088 0.00382668 0.01647 0.00441118 0.030003 0.00560454 0.0193922 0.00604837 0.0511067
74 3 O 2.28634 15.5093 4.4844 -1.2 1 0.0031533 0.00401229 0.00147254 0.00471462 0.00284428 0.00737044 0.0028354 0.0208312 0.00257991 0.0077348 0.00206936 0.0286657 0.00316169 0.0157092 0.00402693 0.0304002 0.00587013 0.0191899 0.00602953 0.050709
75 3 O -4.34533 12.922 4.4844 -1.2 1 0.00290082 0.00473341 0.00202958 0.00477725 0.00271164 0.00864521 0.00301917 0.0217284 0.00277227 0.00838454 0.00236161 0.0288395 0.00391661 0.0158909 0.00467212 0.03028 0.00659808 0.020429 0.00738789 0.050309
76 3 O 2.98455 13.1899 3.18632 -1.2 1 0.00232095 0.00362424 0.00164478 0.00431519 0.0024684 0.00798387 0.00230661 0.0216743 0.00226558 0.00859874 0.00229078 0.0281337 0.00354408 0.0159566 0.00431619 0.0300973 0.00568201 0.0187706 0.00558975 0.0499565
77 1 Mg 1.34779 11.8725 0 1.2 1 0.00122654 0.00278221 0.00138617 0.00467445 0.00141648 0.00894734 0.00158139 0.021149 0.0012349 0.00911496 0.00190961 0.0288836 0.00272428 0.0149949 0.00277631 0.0301766 0.00292124 0.0172278 0.00298163 0.0481711
78 3 O 2.93934 13.1899 5.78248 -1.2 1 0.00380231 0.00483807 0.00151486 0.00496668 0.00271922 0.00731641 0.0026673 0.0216023 0.00247807 0.00819548 0.00291451 0.0276705 0.00414315 0.0164748 0.00477939 0.0305369 0.00631783 0.0219943 0.00669449 0.0514622
79 1 Mg -1.50344 11.9138 1.4948 1.2 1 0.000994809 0.00368868 0.00154453 0.00471063 0.00143319 0.00843678 0.00182828 0.0214375 0.00255764 0.00849582 0.00158625 0.0288322 0.00356063 0.0160066 0.00321765 0.0299356 0.0035496 0.0176131 0.00379399 0.0489159
80 2 Si 0.326006 9.84894 1.4948 2.4 1 0.000553307 0.00362677 0.00136535 0.00483051 0.0019021 0.00822884 0.0021376 0.0210552 0.00210968 0.00839291 0.00168876 0.0285323 0.00280453 0.0157019 0.00352039 0.0288377 0.00385807 0.0179332 0.00357671 0.0483862
81 3 O 0.317364 8.23571 1.4948 -1.2 1 0.00123695 0.00358758 0.00103998 0.00433984 0.00195527 0.00777948 0.00216176 0.0202789 0.00264072 0.00792145 0.00179317 0.0286637 0.00336732 0.0157395 0.00374418 0.0286077 0.00455935 0.0179352 0.00431365 0.0473343
82 3 O 6.94307 10.823 1.4948 -1.2 1 0.00100671 0.00395291 0.001519 0.00474763 0.00197653 0.00783657 0.00261231 0.0217463 0.00231941 0.00832852 0.00150006 0.0295059 0.00291644 0.0157257 0.00330226 0.0299531 0.00400464 0.0181713 0.00424276 0.048977
83 3 O -0.343122 10.5551 0.196716 -1.2 1 0.000450388 0.0032874 0.00143117 0.00467188 0.00150047 0.00845439 0.00186898 0.0211114 0.00175967 0.00880824 0.00195992 0.0281861 0.00318607 0.0153682 0.00380431 0.0296865 0.00359419 0.0174639 0.00335261 0.0483605
84 3 O -0.385966 10.5551 2.79288 -1.2 1 0.00239373 0.00403536 0.00113639 0.00456774 0.00256875 0.00804185 0.00234874 0.0214777 0.00213012 0.00901972 0.00237014 0.0278866 0.00380883 0.0158639 0.00415911 0.0300114 0.00549254 0.0189327 0.00514805 0.0492548
85 1 Mg 6.49448 14.247 0 1.2 1 0.00136219 0.0031528 0.00145937 0.00478866 0.00123848 0.00933871 0.00141426 0.0211491 0.00126597 0.00855037 0.00140842 0.0288645 0.00151642 0.0154173 0.00231894 0.0302528 0.00287564 0.0164816 0.00269366 0.048132
86 1 Mg 3.74457 18.9547 1.4948 1.2 1 0.00190844 0.00304381 0.00136096 0.00424561 0.00175136 0.00864903 0.00129294 0.0220455 0.00198325 0.00804082 0.00227016 0.0279112 0.00244749 0.0163894 0.00345849 0.0289895 0.00361857 0.0163674 0.00338768 0.0494097
87 2 Si 5.55495 16.2705 1.4948 2.4 1 0.00173702 0.00284992 0.00142046 0.00482648 0.0018962 0.00903708 0.00144072 0.0213186 0.00138705 0.00790206 0.00131268 0.0287892 0.00220542 0.016096 0.00255322 0.0290758 0.00370397 0.0160427 0.00339281 0.0491784
88 3 O 5.6115 17.8838 1.4948 -1.2 1 0.00167794 0.00285166 0.00153745 0.00450168 0.00177115 0.00929567 0.00160325 0.0215664 0.00186904 0.00788026 0.00141158 0.0288852 0.00209186 0.0163934 0.00257506 0.0289706 0.00327877 0.015943 0.00336935 0.0490878
89 3 O 1.93416 15.2965 1.4948 -1.2 1 0.00126331 0.00289011 0.00157986 0.0047766 0.00188691 0.00854104 0.0021182 0.021768 0.00200675 0.00816716 0.00144053 0.0292481 0.00203575 0.0161037 0.00266931 0.0297884 0.00365395 0.0166559 0.00327708 0.0494885
90 3 O 4.85636 15.5644 0.196716 -1.2 1 0.00152706 0.00241294 0.00137139 0.00469701 0.001301 0.00917924 0.00134824 0.0212975 0.00128679 0.00810579 0.00158799 0.0282299 0.00254899 0.0161542 0.00329429 0.0295916 0.00311151 0.0157942 0.0025683 0.0488414
91 1 Mg 6.44662 14.247 2.9896 1.2 1 0.00161623 0.00374214 0.00149111 0.00479927 0.00252046 0.00867322 0.00300918 0.0207645 0.00257463 0.0086899 0.00172931 0.0294582 0.00299626 0.016226 0.00282713 0.0297554 0.00406937 0.0179878 0.00459275 0.0493588
92 3 O 4.81537 15.5644 2.79288 -1.2 1 0.00229482 0.0032147 0.00155333 0.00464534 0.00215545 0.00891271 0.00179937 0.0217837 0.00173423 0.00869764 0.00183544 0.0281421 0.00281045 0.016264 0.00348993 0.0296269 0.00492627 0.0176694 0.00487671 0.0496349
93 1 Mg -0.948271 14.2883 4.4844 1.2 1 0.00302893 0.00381674 0.00138299 0.00466136 0.00284193 0.00789788 0.00275083 0.021389 0.00252963 0.00827729 0.0026549 0.0287867 0.00341879 0.0167502 0.00473611 0.0303325 0.00609203 0.0194158 0.00650371 0.0507517
94 2 Si -2.75928 16.9724 4.4844 2.4 1 0.0028123 0.0036102 0.0016829 0.00487926 0.00281492 0.00813449 0.00289559 0.021821 0.00260784 0.00801467 0.00236213 0.0283271 0.00340727 0.0167071 0.00450213 0.0294146 0.00530452 0.0190229 0.00585542 0.0513354
95 3 O -2.81617 15.3592 4.4844 -1.2 1 0.00309041 0.00407684 0.00174842 0.0045828 0.00300174 0.00777144 0.00287018 0.0209633 0.00256829 0.00779186 0.0021335 0.0287766 0.00364186 0.0158415 0.00406948 0.0302638 0.00625956 0.0193696 0.00663357 0.0506697
96 3 O 0.862762 17.9465 4.4844 -1.2 1 0.00299545 0.00378072 0.00134107 0.00487212 0.00291616 0.00851743 0.00268666 0.0222852 0.00246 0.00798871 0.00244043 0.0287269 0.00355028 0.0169153 0.00447581 0.0290539 0.00585834 0.0190973 0.00580821 0.05089
97 3 O -2.0185 17.6786 3.18632 -1.2 1 0.00240044 0.0032073 0.00172805 0.00434917 0.00265987 0.00778218 0.0022499 0.0221765 0.00228595 0.00796756 0.00207379 0.0277581 0.00326741 0.0162813 0.00440833 0.029739 0.00493504 0.0178638 0.00510953 0.0506169
98 3 O -2.06164 17.6786 5.78248 -1.2 1 0.00346715 0.00403451 0.00136743 0.00477231 0.00286808 0.00723157 0.0022715 0.0219032 0.0025456 0.00790633 0.00237388 0.0278354 0.0033231 0.0168853 0.00463612 0.0302586 0.00634574 0.0212412 0.0062573 0.0521061
99 1 Mg 1.39817 16.6215 2.9896 1.2 1 0.002212 0.00306589 0.001563 0.00472074 0.00261285 0.00848986 0.00281881 0.0211102 0.0025069 0.00818983 0.00187031 0.0290035 0.0025391 0.0163772 0.00318736 0.0294306 0.00428452 0.0170394 0.00443165 0.0496853
100 1 Mg 4.20062 16.5802 4.4844 1.2 1 0.00280361 0.00355768 0.00190953 0.00470051 0.00271801 0.00778985 0.00271925 0.0217291 0.00284327 0.00780495 0.00276242 0.028631 0.00329196 0.0170476 0.00533989 0.0297831 0.00647037 0.019315 0.00598762 0.0508533
101 2 Si 2.37796 18.645 4.4844 2.4 1 0.00259627 0.00341819 0.00153299 0.00492789 0.00293147 0.00803877 0.00293941 0.0222093 0.00266098 0.0078422 0.00253837 0.0280149 0.00328884 0.0168609 0.00445744 0.0292941 0.0054323 0.0188901 0.00562518 0.0520364
102 3 O 2.39434 20.2583 4.4844 -1.2 1 0.00280368 0.00343398 0.00144782 0.00481566 0.00297361 0.00711676 0.00274155 0.0212483 0.00273025 0.00735721 0.0019328 0.0284863 0.00309172 0.0164806 0.00401664 0.0294198 0.00560371 0.0184348 0.00605797 0.0512092
103 3 O -4.24274 17.671 4.4844 -1.2 1 0.00262002 0.00373009 0.00177475 0.00482912 0.00278793 0.00873753 0.00256204 0.0221558 0.00273406 0.00801647 0.0022692 0.0287332 0.00330387 0.01665 0.00461904 0.0294137 0.00614951 0.0192806 0.00612997 0.0510342
104 3 O 3.08659 17.9389 3.18632 -1.2 1 0.00248421 0.00284672 0.00152391 0.00443085 0.00276392 0.00804951 0.00213141 0.0220366 0.00230679 0.008029 0.00206897 0.0277777 0.00308767 0.0163803 0.00428978 0.0292733 0.00541406 0.0177822 0.00521062 0.0503668
105 1 Mg 1.44478 16.6215 0 1.2 1 0.002004 0.00255249 0.00118724 0.00452578 0.00133891 0.00907561 0.00116114 0.0214273 0.00148079 0.0081678 0.00138108 0.0286095 0.00206605 0.0156913 0.00222072 0.0296029 0.00269077 0.0160431 0.00268323 0.0486164
106 3 O 3.0436 17.9389 5.78248 -1.2 1 0.00311015 0.00408578 0.00148736 0.00500874 0.00266302 0.00717099 0.00254473 0.022167 0.00217395 0.00787609 0.00289855 0.0276375 0.00367985 0.0168435 0.00494925 0.0306106 0.00621662 0.0213411 0.00595173 0.0522414
107 1 Mg -1.40524 16.6628 1.4948 1.2 1 0.00135473 0.00301172 0.00130081 0.00459032 0.00180449 0.00872735 0.00196725 0.0221477 0.0019467 0.0082249 0.00166313 0.0283806 0.00296671 0.0163964 0.00262916 0.0294913 0.00295556 0.0167078 0.00307046 0.0490656
108 2 Si 0.420358 14.5979 1.4948 2.4 1 0.00107072 0.00300715 0.00143054 0.00496069 0.00205209 0.00914834 0.0018904 0.0212754 0.00169826 0.00832654 0.00144698 0.0286165 0.00268609 0.0163503 0.0032305 0.0291094 0.00347186 0.0165517 0.0032344 0.0489458
109 3 O 0.408732 12.9847 1.4948 -1.2 1 0.00108334 0.00307865 0.00129076 0.00493175 0.0017899 0.00916717 0.00150831 0.0210511 0.00218777 0.00846415 0.00143483 0.0291028 0.00298237 0.016045 0.00283306 0.0299084 0.00343335 0.0170169 0.00380537 0.048935
110 3 O 7.03923 15.572 1.4948 -1.2 1 0.00109337 0.0032205 0.00149504 0.00473174 0.00212108 0.0084604 0.00237637 0.021638 0.00214756 0.00807695 0.00152099 0.0293742 0.00241842 0.0162496 0.0025857 0.0298329 0.00353358 0.0169221 0.00379381 0.0492703
111 3 O -0.248332 15.3041 0.196716 -1.2 1 0.00154976 0.00251846 0.0010812 0.00466524 0.00105239 0.00915351 0.00171254 0.0212592 0.00148348 0.00840093 0.00190239 0.0280398 0.00276788 0.0158581 0.00361235 0.0295437 0.00296794 0.0160244 0.00302106 0.04867
112 3 O -0.289436 15.3041 2.79288 -1.2 1 0.00254626 0.00331612 0.00126144 0.00459133 0.00254475 0.00878218 0.00215117 0.0218532 0.00196676 0.00871565 0.001864 0.0277714 0.00300841 0.0163537 0.0035505 0.0297218 0.00482224 0.0178567 0.004744 0.0497321
113 1 Mg 6.59566 18.996 0 1.2 1 0.0012875 0.00290735 0.0015118 0.00440952 0.000990771 0.00873372 0.00107179 0.0219155 0.00120974 0.00768766 0.00129185 0.0282665 0.00199128 0.0162456 0.00214197 0.0288841 0.00271873 0.0158861 0.00258493 0.0483985
114 1 Mg 3.85574 23.7037 1.4948 1.2 1 0.00196248 0.0026091 0.00115255 0.00419157 0.00178571 0.00750055 0.00124393 0.023122 0.00183998 0.00755791 0.00201745 0.0269673 0.00239897 0.0174425 0.00364587 0.0285595 0.00329628 0.0171289 0.00342827 0.0503025
115 2 Si 5.66125 21.0195 1.4948 2.4 1 0.00185924 0.00238191 0.00111782 0.00420164 0.00195814 0.0082315 0.00149728 0.0219382 0.00135043 0.00753406 0.00136644 0.0279572 0.00242834 0.0172673 0.00260892 0.0280452 0.00360294 0.0158321 0.00401196 0.0499305
116 3 O 5.72074 22.6328 1.4948 -1.2 1 0.00192371 0.00245209 0.00134687 0.0041806 0.00181031 0.00817599 0.00153825 0.0222635 0.00188547 0.00728653 0.00128918 0.0278458 0.0023381 0.0172333 0.00298389 0.0284824 0.00324862 0.0161495 0.00372115 0.0498047
117 3 O 2.03867 20.0455 1.4948 -1.2 1 0.00169366 0.00308357 0.001314 0.00457178 0.00181351 0.00786477 0.0020728 0.0222497 0.00231414 0.00749358 0.00147854 0.0285341 0.00211903 0.0171431 0.0024103 0.0290396 0.00367291 0.0161296 0.00350676 0.049858
118 3 O 4.96004 20.3134 0.196716 -1.2 1 0.00190093 0.00230019 0.00139363 0.00427339 0.00124549 0.00851092 0.000984572 0.0217969 0.00104103 0.00741253 0.00152611 0.0275953 0.0026269 0.0163841 0.0038163 0.0288046 0.00316768 0.0152608 0.00296173 0.0490134
119 1 Mg 6.55057 18.996 2.9896 1.2 1 0.0015036 0.00315362 0.00131953 0.00450478 0.00245081 0.00825117 0.00281924 0.0213248 0.00251636 0.00800627 0.0017495 0.0290834 0.00277684 0.0167842 0.00289226 0.0287486 0.00391136 0.0171094 0.00464062 0.0499188