ITEM: TIMESTEP
65900
ITEM: NUMBER OF ATOMS
10500
ITEM: BOX BOUNDS xy xz yz pp pp pp
0	15.2977	5.09925
0	118.725	0
0	89.688	0
ITEM: ATOMS id type element xu yu zu q Q_1 Q_2 Q_3 Q_4 Q_5 Q_6 Q_7 Q_8 Q_9 Q_10 Q_11 Q_12 Q_13 Q_14 Q_15 Q_16 Q_17 Q_18 Q_19 Q_20 Q_21
1 1 Mg 6.2404 -6.37941e-06 0 1.2 1 0.00179014 0.00454302 0.000993095 0.00467397 0.00132137 0.00549544 0.00208589 0.0160608 0.00217716 0.00555872 0.00251797 0.0218756 0.00265454 0.0131487 0.00360088 0.0209705 0.00417832 0.0140506 0.00410415 0.0403224
2 1 Mg 3.46349 4.70768 1.4948 1.2 1 0.00107826 0.00341919 0.0015842 0.00454799 0.00204029 0.00605823 0.00368416 0.0186267 0.00293415 0.00664739 0.00300616 0.0257521 0.00361257 0.013619 0.00445744 0.0252557 0.00525389 0.0167205 0.00537582 0.0437031
3 2 Si 5.2885 2.02354 1.4948 2.4 1 0.000768309 0.00362627 0.00151115 0.00460021 0.00159582 0.00570674 0.00262025 0.0169291 0.002184 0.00580265 0.00213447 0.0230706 0.00279995 0.0131429 0.00375964 0.0218498 0.00415449 0.0152343 0.00446553 0.0411851
4 3 O 5.33628 3.63678 1.4948 -1.2 1 0.000500914 0.00307291 0.00130842 0.00463323 0.0020347 0.00627755 0.00305643 0.0176243 0.00213051 0.0064049 0.0020069 0.0250372 0.00281128 0.013163 0.00427573 0.0242004 0.00516955 0.0162184 0.00566285 0.0424374
5 3 O 1.67294 1.04952 1.4948 -1.2 1 0.00214686 0.00345899 0.0021923 0.00399177 0.00132909 0.00550465 0.00266624 0.0166401 0.00241947 0.00563617 0.00243836 0.0228541 0.00274239 0.0125143 0.00343915 0.022431 0.0044713 0.0155286 0.00450688 0.0405508
6 3 O 4.59532 1.31737 0.196716 -1.2 1 0.00161774 0.00331818 0.00142487 0.00425397 0.00184905 0.00550977 0.00252223 0.0170036 0.00284929 0.00601171 0.00217261 0.0222374 0.00340858 0.0125217 0.00426971 0.0218338 0.00440636 0.0147764 0.00462713 0.0404551
7 1 Mg 6.18956 -6.37941e-06 2.9896 1.2 1 0.00136854 0.00475085 0.00116142 0.00417631 0.00100133 0.00574229 0.00266376 0.0157665 0.00247317 0.00502241 0.00193201 0.0225351 0.00275581 0.012757 0.00344059 0.0213926 0.00427599 0.0150924 0.00442805 0.0393055
8 3 O 4.55118 1.31737 2.79288 -1.2 1 0.00127096 0.00446495 0.00149443 0.00417824 0.00172527 0.00567831 0.00278345 0.0164258 0.00226115 0.00631794 0.00234853 0.0215976 0.00326442 0.0117007 0.00342169 0.0221892 0.0044544 0.0155713 0.00466318 0.0397704
9 1 Mg -1.20682 0.0413099 4.4844 1.2 1 0.000582222 0.0030272 0.00160715 0.0042604 0.00116521 0.00557663 0.00240991 0.0157633 0.00255976 0.00527999 0.00219453 0.0226053 0.003079 0.011034 0.00330585 0.021548 0.00474671 0.01579 0.0045105 0.0387806
10 2 Si -3.0337 2.72544 4.4844 2.4 1 0.000243253 0.0028811 0.00172176 0.00479571 0.00199176 0.00579845 0.00337242 0.0163016 0.00316223 0.00541072 0.00218885 0.0241354 0.00318997 0.0120261 0.00382431 0.0231961 0.00488905 0.0172181 0.00552994 0.0394645
11 3 O -3.08099 1.11221 4.4844 -1.2 1 0.000669964 0.00366383 0.00182666 0.0041559 0.00116224 0.0054688 0.00270067 0.0155343 0.00293305 0.00485677 0.00224215 0.0226429 0.00320272 0.010919 0.00344308 0.0222976 0.00432147 0.0160654 0.00476907 0.0385375
12 3 O 0.582463 3.69946 4.4844 -1.2 1 0.00179571 0.00454733 0.00193428 0.00419302 0.00230451 0.00664493 0.00347228 0.016822 0.00335195 0.00579756 0.00315864 0.024865 0.00408841 0.0118451 0.00404442 0.0247236 0.00633111 0.0181717 0.0071532 0.0408788
13 3 O -2.29524 3.43162 3.18632 -1.2 1 0.000419592 0.00254586 0.00263903 0.00434608 0.00219975 0.0056444 0.00314852 0.0175695 0.00308077 0.00621265 0.00275946 0.0243672 0.0033875 0.0121967 0.00475484 0.0246371 0.00558377 0.017628 0.00581638 0.0418234
14 3 O -2.34216 3.43162 5.78248 -1.2 1 0.00088701 0.0028785 0.00126889 0.00465847 0.00233491 0.00579999 0.00290225 0.0162451 0.00308012 0.00582672 0.00269269 0.0238166 0.00385373 0.0110892 0.00402163 0.0235546 0.00567778 0.0186955 0.00666998 0.0387755
15 1 Mg 1.12778 2.37449 2.9896 1.2 1 0.00148983 0.00354709 0.00211025 0.00434581 0.00183413 0.00576773 0.00322861 0.0164017 0.00265676 0.005631 0.00236409 0.0234543 0.0034407 0.0121688 0.00341523 0.0225303 0.00441388 0.0163297 0.00468397 0.0405999
16 1 Mg 3.92855 2.33318 4.4844 1.2 1 0.000876552 0.00421054 0.00140543 0.00425385 0.00166964 0.00574487 0.00352998 0.0163108 0.00327076 0.00546555 0.00285621 0.0229528 0.00342901 0.0120731 0.00490067 0.0225282 0.00579557 0.0169747 0.00598331 0.0394892
17 2 Si 2.09341 4.39804 4.4844 2.4 1 0.00119223 0.00411939 0.00198188 0.00427822 0.0028596 0.00590795 0.003767 0.0178392 0.00336523 0.00606295 0.00336532 0.0247853 0.00442338 0.0129694 0.00438785 0.0247799 0.00602082 0.0181197 0.0070563 0.0427636
18 3 O 2.09991 6.01128 4.4844 -1.2 1 0.00187424 0.00422855 0.00197522 0.00398541 0.00272611 0.00638061 0.00328401 0.0186756 0.00261321 0.00648756 0.00297476 0.0268494 0.00407367 0.0134261 0.00464289 0.0273636 0.00615412 0.0190296 0.00718301 0.0442818
19 3 O -4.52137 3.42402 4.4844 -1.2 1 0.000462384 0.00351715 0.00195499 0.00472446 0.00223864 0.00667859 0.0035738 0.0164912 0.0032645 0.00548681 0.00320403 0.023546 0.00387548 0.0117166 0.00420076 0.0233207 0.0056515 0.0176529 0.00662995 0.0404678
20 3 O 2.80834 3.69187 3.18632 -1.2 1 0.000847701 0.00385773 0.0015137 0.00376564 0.0019241 0.00589631 0.00320839 0.0169446 0.00303929 0.00571826 0.00255141 0.0242834 0.00349842 0.0123208 0.00448076 0.0238866 0.00528787 0.0168149 0.00545219 0.042162
21 1 Mg 1.17857 2.37449 0 1.2 1 0.00200984 0.0031334 0.00216814 0.00410666 0.00143901 0.00545835 0.00260153 0.0168168 0.00260349 0.00641741 0.00281052 0.0229738 0.00285997 0.0127744 0.00365737 0.0218967 0.00489005 0.0147416 0.00500269 0.0403261
22 3 O 2.76143 3.69187 5.78248 -1.2 1 0.00138712 0.00439722 0.00197701 0.00413817 0.00208951 0.00528734 0.00311591 0.0167504 0.00327557 0.00590618 0.0031484 0.0230728 0.00449265 0.011485 0.00553697 0.0236525 0.00616342 0.0185048 0.00704601 0.0398582
23 1 Mg -1.67381 2.41581 1.4948 1.2 1 0.00165601 0.00295771 0.00253392 0.0045762 0.00133972 0.00570843 0.00267627 0.016412 0.00265329 0.00597138 0.00220918 0.0240772 0.00273945 0.0136761 0.00283928 0.0226252 0.00452127 0.0158639 0.0046624 0.0416645
24 2 Si 0.16286 0.350945 1.4948 2.4 1 0.00245962 0.00270907 0.00281922 0.0041298 0.00129188 0.00606571 0.00301921 0.0162301 0.00219697 0.00484468 0.00209704 0.0230704 0.00262634 0.0131364 0.00310915 0.0213134 0.00432591 0.0149354 0.00399134 0.0407476
25 3 O 0.15972 -1.26229 1.4948 -1.2 1 0.00261663 0.00296727 0.0030185 0.00414982 0.00191277 0.0059285 0.00260714 0.016117 0.002136 0.00514665 0.00258134 0.0227255 0.00272258 0.0135485 0.00299253 0.0222191 0.00406569 0.0148422 0.00357166 0.0409851
26 3 O 6.77654 1.32496 1.4948 -1.2 1 0.0017533 0.00391872 0.00121456 0.00443309 0.00124125 0.00595391 0.00239934 0.0165526 0.00224741 0.00514336 0.00191391 0.0236624 0.00290254 0.01311 0.00353289 0.0223196 0.00472798 0.0153815 0.00436038 0.0407302
27 3 O -0.508028 1.05712 0.196716 -1.2 1 0.00206076 0.0028063 0.00334547 0.00399241 0.00143032 0.00556334 0.00248949 0.0167961 0.00173486 0.00632209 0.00246726 0.0219703 0.00281909 0.0124623 0.00321205 0.0215812 0.00446979 0.0151009 0.00462318 0.0401154
28 3 O -0.552171 1.05712 2.79288 -1.2 1 0.00114762 0.00234431 0.00288799 0.00420247 0.00116451 0.00600171 0.00262419 0.015829 0.00247325 0.00552436 0.00189947 0.0227688 0.00305349 0.011043 0.0034237 0.0222858 0.00472834 0.0158721 0.00407964 0.0396539
29 1 Mg 6.31713 4.74899 0 1.2 1 0.00106915 0.00279809 0.0017621 0.00482015 0.00206153 0.00609055 0.00340014 0.0179517 0.00285845 0.00677591 0.00246572 0.0250229 0.00332797 0.0132904 0.00447053 0.0245132 0.00506296 0.0160703 0.00613712 0.0424062
30 1 Mg 3.54847 9.45668 1.4948 1.2 1 0.000673847 0.00296396 0.00233531 0.00437371 0.00228127 0.0074736 0.0032532 0.0212203 0.00160337 0.00823823 0.00239511 0.0283198 0.00338715 0.015175 0.00402503 0.0288696 0.0043236 0.0178599 0.00365266 0.0481399
31 2 Si 5.36879 6.77254 1.4948 2.4 1 0.000224811 0.00300738 0.00196509 0.00510342 0.00276268 0.00678177 0.00378013 0.0195201 0.00271478 0.00760616 0.0024767 0.0275267 0.00336439 0.0148696 0.00442076 0.0266231 0.00478836 0.0169048 0.00519433 0.045858
32 3 O 5.41937 8.38578 1.4948 -1.2 1 0.000270446 0.0028297 0.0020673 0.00475547 0.0022588 0.00763134 0.00313743 0.0209142 0.00239424 0.00825718 0.00260089 0.0288467 0.00273571 0.0150064 0.00381144 0.0289251 0.00487704 0.0171361 0.00471035 0.0474477
33 3 O 1.75158 5.79852 1.4948 -1.2 1 0.000871256 0.00342461 0.00188134 0.00408909 0.00226981 0.00588519 0.00343555 0.0195293 0.00279588 0.00705815 0.00272533 0.0278031 0.00333774 0.0148503 0.00382405 0.0267442 0.00536829 0.017272 0.00522611 0.0453388
34 3 O 4.67421 6.06637 0.196716 -1.2 1 0.00075386 0.00296313 0.00128694 0.00483777 0.00200893 0.006856 0.00296218 0.0196267 0.00246572 0.00783096 0.00212013 0.0261188 0.00379136 0.0138468 0.004307 0.0265784 0.00493735 0.0164302 0.00560351 0.0445355
35 1 Mg 6.26654 4.74899 2.9896 1.2 1 0.00107685 0.00283798 0.00214026 0.00491352 0.00259963 0.00630692 0.00390303 0.0177168 0.00358747 0.00657217 0.00218321 0.0259162 0.0038979 0.0137182 0.00521939 0.024937 0.00537577 0.0173593 0.00635191 0.042835
36 3 O 4.63043 6.06637 2.79288 -1.2 1 0.0014902 0.00318371 0.00194949 0.00469722 0.00225841 0.00654949 0.0037978 0.0194621 0.00310517 0.00754011 0.00241954 0.0261667 0.0042685 0.0139395 0.00488925 0.0270008 0.00559055 0.0179113 0.0060525 0.044952
37 1 Mg -1.12976 4.79031 4.4844 1.2 1 0.00143377 0.00347471 0.00190623 0.00456737 0.00236368 0.00593325 0.00336289 0.0176919 0.0034483 0.00636478 0.00315409 0.0257156 0.00412885 0.0130691 0.0044642 0.0256929 0.00689814 0.0188719 0.00700031 0.0430238
38 2 Si -2.9517 7.47444 4.4844 2.4 1 0.00185814 0.00314301 0.00164573 0.00487397 0.0028239 0.00630817 0.00365402 0.0201075 0.00313073 0.00737883 0.00309795 0.0271377 0.00462368 0.0147023 0.00555198 0.0273799 0.00667687 0.0187086 0.00703168 0.0463472
39 3 O -3.00198 5.86121 4.4844 -1.2 1 0.00119776 0.00318411 0.00167201 0.00481535 0.00306947 0.00591055 0.00405661 0.0183611 0.00344546 0.00696402 0.00276139 0.0257975 0.00450238 0.0128193 0.00482767 0.026707 0.00638892 0.0191112 0.00751846 0.0441158
40 3 O 0.666315 8.44846 4.4844 -1.2 1 0.00230575 0.00398527 0.00166799 0.00456407 0.0028329 0.00716764 0.00291542 0.0204524 0.00303583 0.00756875 0.00338225 0.0282067 0.00467381 0.0148713 0.00471863 0.0289653 0.00605152 0.0192919 0.0070923 0.0470937
41 3 O -2.21213 8.18062 3.18632 -1.2 1 0.00150869 0.00342297 0.00174571 0.00419712 0.00254064 0.00626426 0.00285591 0.0206391 0.0025452 0.00781303 0.00290507 0.0275924 0.00445269 0.0148956 0.00528729 0.0285467 0.00582276 0.0184865 0.00597411 0.0478738
42 3 O -2.25864 8.18062 5.78248 -1.2 1 0.00235766 0.0033812 0.00141137 0.0044814 0.00273737 0.00545651 0.0029908 0.0198701 0.00219824 0.00773993 0.00360418 0.0264145 0.00470465 0.0149781 0.00570547 0.0287212 0.00675679 0.0201563 0.0072512 0.0463844
43 1 Mg 1.20893 7.12349 2.9896 1.2 1 0.00123888 0.00356519 0.0021518 0.00421991 0.00255112 0.00657741 0.00385387 0.0195366 0.00286021 0.00777271 0.00280143 0.0279037 0.00362673 0.0148946 0.00415075 0.0271943 0.00549422 0.0179896 0.00548199 0.046308
44 1 Mg 4.00982 7.08218 4.4844 1.2 1 0.00169321 0.00309777 0.00174737 0.00466841 0.00246914 0.00638765 0.00376733 0.0197871 0.00337987 0.00700874 0.00292469 0.0271664 0.00460724 0.0152 0.00600235 0.0277976 0.00688642 0.0189694 0.00741758 0.0461899
45 2 Si 2.17861 9.14704 4.4844 2.4 1 0.0022902 0.00365081 0.00190589 0.0045208 0.00285779 0.00704824 0.00360852 0.0205326 0.00268096 0.0077005 0.00320876 0.027835 0.0046464 0.0155418 0.00485098 0.0290479 0.00561876 0.018744 0.00615141 0.048974
46 3 O 2.18828 10.7603 4.4844 -1.2 1 0.00270157 0.00353142 0.0020786 0.00425637 0.00271403 0.00684156 0.00301397 0.0204046 0.00247599 0.007757 0.00220045 0.0285779 0.00451713 0.0147712 0.00462085 0.0300304 0.00560097 0.0191357 0.00541952 0.0493681
47 3 O -4.43805 8.17302 4.4844 -1.2 1 0.00151625 0.0031784 0.00193956 0.00491568 0.00265923 0.00725139 0.00305442 0.0205418 0.00305118 0.00770863 0.00354917 0.0282436 0.00493526 0.0150472 0.00530458 0.0287874 0.00632271 0.0190909 0.00749653 0.0473088
48 3 O 2.89193 8.44087 3.18632 -1.2 1 0.00189083 0.00314466 0.00198486 0.0042056 0.0024938 0.00670165 0.00327137 0.0202442 0.00286741 0.00819919 0.00265655 0.0275152 0.00401702 0.0148478 0.00514573 0.0285343 0.00601084 0.0184128 0.00514841 0.047965
49 1 Mg 1.25915 7.12349 0 1.2 1 0.00115375 0.00307466 0.0013464 0.00418565 0.00166653 0.00707369 0.00294141 0.0201578 0.00289473 0.00793088 0.00267839 0.0273872 0.00378752 0.0140097 0.00400062 0.0274038 0.00493924 0.017197 0.00481503 0.0453942
50 3 O 2.84547 8.44087 5.78248 -1.2 1 0.0024724 0.00373887 0.00181949 0.00463374 0.00237541 0.0061782 0.00343462 0.0200227 0.00286377 0.00778203 0.0033837 0.0267727 0.00553806 0.015202 0.00555387 0.0284186 0.00594917 0.0205007 0.00711811 0.0468038
51 1 Mg -1.59284 7.16481 1.4948 1.2 1 0.000656439 0.00315025 0.00164582 0.00444683 0.00172766 0.00619555 0.00298655 0.0199875 0.00282862 0.00764337 0.00195684 0.0275726 0.00359158 0.0150159 0.00420202 0.0269096 0.00478795 0.0172886 0.00553283 0.0462517
52 2 Si 0.240329 5.09994 1.4948 2.4 1 0.000687175 0.00337699 0.00210762 0.00401796 0.00188891 0.0065869 0.00315961 0.0188986 0.00322015 0.00700247 0.00223325 0.02594 0.00323007 0.013952 0.00439691 0.0248863 0.00520412 0.0168086 0.00516923 0.044414
53 3 O 0.234538 3.48671 1.4948 -1.2 1 0.00137784 0.00360298 0.00263457 0.00426967 0.00189172 0.00626344 0.00277914 0.0177035 0.00335831 0.00651348 0.00252405 0.0244658 0.00361143 0.0129752 0.00400811 0.0243432 0.00535752 0.0160329 0.00522938 0.0423153
54 3 O 6.85564 6.07396 1.4948 -1.2 1 0.000560893 0.00261224 0.00240225 0.00471414 0.00243248 0.00591791 0.00317125 0.0199241 0.00311474 0.00730333 0.00211335 0.0275075 0.00354745 0.0140381 0.00521179 0.026912 0.00559904 0.0173602 0.00596151 0.0450821
55 3 O -0.429565 5.80612 0.196716 -1.2 1 0.000786672 0.0031506 0.00223015 0.00409003 0.00163832 0.00693819 0.0027533 0.0193365 0.00287542 0.00797991 0.00260312 0.0255212 0.00302083 0.0135905 0.00412685 0.0259319 0.00537731 0.0165115 0.00592756 0.0445539
56 3 O -0.473377 5.80612 2.79288 -1.2 1 0.0012515 0.00330587 0.00223117 0.00421195 0.00228235 0.00662638 0.00328455 0.0191724 0.00304874 0.00768963 0.00301843 0.0256953 0.00395667 0.0136299 0.00462478 0.0264272 0.00590022 0.0181559 0.00581258 0.0451324
57 1 Mg 6.40169 9.49799 0 1.2 1 0.000950033 0.00356799 0.00196552 0.00470986 0.00154287 0.00828854 0.00201657 0.0209265 0.00168742 0.00876328 0.001874 0.0286395 0.00278584 0.0146443 0.00315136 0.0296731 0.00388731 0.0179877 0.00419147 0.0468455
58 1 Mg 3.64209 14.2057 1.4948 1.2 1 0.00135552 0.00288707 0.00193953 0.00449787 0.00177042 0.00864338 0.00204409 0.0213682 0.0018658 0.00867565 0.00240742 0.0279426 0.0027187 0.0156898 0.00319367 0.0295896 0.00362816 0.0168344 0.00304949 0.0487542
59 2 Si 5.45748 11.5215 1.4948 2.4 1 0.00134507 0.00293931 0.00222157 0.00465484 0.00190536 0.00818689 0.00227631 0.0208282 0.00178124 0.00821106 0.00188204 0.0285949 0.00283954 0.0157505 0.00398821 0.0291211 0.00405958 0.0167826 0.00350684 0.0483762
60 3 O 5.51101 13.1348 1.4948 -1.2 1 0.00121164 0.00315286 0.00217676 0.00464242 0.00160197 0.00902028 0.00206442 0.0208949 0.00207672 0.00861118 0.00183808 0.029103 0.00250173 0.0157454 0.00334452 0.029766 0.00384169 0.0165829 0.00324259 0.0484368
61 3 O 1.83851 10.5475 1.4948 -1.2 1 0.000260934 0.00308453 0.00217939 0.00469499 0.00194054 0.00768184 0.00256855 0.0215462 0.001963 0.00827036 0.00224249 0.0292665 0.00293893 0.0155026 0.0037977 0.029753 0.00405027 0.0176697 0.00312197 0.0486608
62 3 O 4.7611 10.8154 0.196716 -1.2 1 0.000901166 0.00296555 0.00225611 0.00462762 0.00175087 0.0084914 0.00223204 0.020996 0.00147714 0.00845979 0.00205863 0.0279955 0.00293253 0.0151789 0.00397002 0.0293325 0.00396799 0.0170706 0.00364724 0.0479537
63 1 Mg 6.35203 9.49799 2.9896 1.2 1 0.00102434 0.00319254 0.001649 0.00452373 0.0026457 0.0072252 0.00328416 0.0204017 0.00304231 0.00835107 0.00234168 0.0290792 0.00388993 0.015348 0.00375057 0.0289215 0.00445353 0.0179129 0.00474328 0.0479271
64 3 O 4.71833 10.8154 2.79288 -1.2 1 0.00186224 0.00296803 0.00207096 0.00440742 0.00239548 0.0079123 0.00243231 0.0213936 0.00194996 0.00873325 0.00236048 0.0280772 0.00383102 0.0153638 0.00447364 0.0297323 0.00495989 0.0179392 0.00442366 0.0493197
65 1 Mg -1.0438 9.53931 4.4844 1.2 1 0.00262595 0.00376417 0.00184503 0.00416808 0.00309555 0.00650037 0.00241492 0.0204699 0.00277707 0.00810764 0.00276341 0.0282933 0.00440969 0.015632 0.00507093 0.0292928 0.00601203 0.0193798 0.00546693 0.0486551
66 2 Si -2.8604 12.2234 4.4844 2.4 1 0.00271296 0.00330904 0.00194645 0.00407799 0.0028051 0.00746592 0.00319543 0.0214784 0.00289043 0.0082185 0.00249749 0.0280848 0.00450348 0.0157402 0.0046363 0.029742 0.00551158 0.0187365 0.00548996 0.050425
67 3 O -2.91391 10.6102 4.4844 -1.2 1 0.00268982 0.00342171 0.00182185 0.00419871 0.00281763 0.00675893 0.00312737 0.0202192 0.0026387 0.00751921 0.00221212 0.0285481 0.00450425 0.0150069 0.00453819 0.0300982 0.00552187 0.0190456 0.0054614 0.0491008
68 3 O 0.7596 13.1975 4.4844 -1.2 1 0.00282199 0.00288073 0.001661 0.00444994 0.00289023 0.00822259 0.0025961 0.0214492 0.00267137 0.00804264 0.00299615 0.0284161 0.00463584 0.0154925 0.00439952 0.0296543 0.00563526 0.0188218 0.00543541 0.0495699
69 3 O -2.12001 12.9296 3.18632 -1.2 1 0.00252924 0.0032025 0.00169113 0.00391221 0.00255822 0.0074693 0.00244644 0.0215892 0.00249282 0.00819849 0.00251853 0.0277756 0.00419695 0.0156348 0.00507433 0.0300502 0.00514729 0.0180141 0.00448768 0.049902
70 3 O -2.16532 12.9296 5.78248 -1.2 1 0.00329546 0.0033808 0.00174325 0.0040664 0.00291736 0.00639773 0.00220764 0.0210475 0.0022574 0.00774678 0.0029469 0.0274269 0.00448474 0.0156811 0.00518163 0.0303957 0.00560248 0.0204255 0.00587071 0.050415
71 1 Mg 1.29891 11.8725 2.9896 1.2 1 0.0016353 0.00291333 0.0021734 0.00445778 0.00234538 0.0078318 0.00275774 0.0208253 0.00266111 0.00840525 0.00230066 0.0289742 0.00386362 0.0159358 0.00399882 0.0298041 0.00447186 0.0174942 0.00401971 0.0490897
72 1 Mg 4.10033 11.8312 4.4844 1.2 1 0.00276218 0.00282252 0.00215981 0.00406079 0.00272679 0.00704448 0.00273155 0.0210603 0.00250662 0.00786138 0.00249959 0.0287785 0.00417782 0.0164247 0.00549145 0.029738 0.00599685 0.0187027 0.00517999 0.0499027
73 2 Si 2.27333 13.896 4.4844 2.4 1 0.00287697 0.00245784 0.00159876 0.00445608 0.00314975 0.0075974 0.00333095 0.0214651 0.00230619 0.00779256 0.00263341 0.0279661 0.00438235 0.0159684 0.00464937 0.0295375 0.00516864 0.0183523 0.00495298 0.0505709
74 3 O 2.28634 15.5093 4.4844 -1.2 1 0.00292813 0.00237762 0.00150107 0.0039182 0.00303864 0.007121 0.00289131 0.0206653 0.00246772 0.00736992 0.00214599 0.0286872 0.0041111 0.0152001 0.00439891 0.0302159 0.00533849 0.0181316 0.00526505 0.0501645
75 3 O -4.34533 12.922 4.4844 -1.2 1 0.00274533 0.00329389 0.00189134 0.00410732 0.00290992 0.00829357 0.00304628 0.0214138 0.00273833 0.00817962 0.00273636 0.028478 0.00447345 0.0154412 0.00484853 0.030053 0.00577135 0.0190427 0.00611756 0.0499642
76 3 O 2.98455 13.1899 3.18632 -1.2 1 0.00235809 0.00259247 0.00180954 0.00396744 0.00250137 0.00763162 0.00243691 0.0215194 0.00218275 0.00847892 0.00228969 0.027954 0.00396511 0.0155865 0.00474358 0.0297854 0.00527682 0.0179345 0.00451707 0.0497256
77 1 Mg 1.34779 11.8725 0 1.2 1 0.00115909 0.00302014 0.00169632 0.00470775 0.00152959 0.00891808 0.0016422 0.0210817 0.00151902 0.00905585 0.00201959 0.0286706 0.00287979 0.0146369 0.00329485 0.0299215 0.00354524 0.0172726 0.00351397 0.0475824
78 3 O 2.93934 13.1899 5.78248 -1.2 1 0.00324269 0.00289651 0.00159862 0.00417719 0.00277547 0.00682389 0.00267935 0.0212268 0.00205553 0.00769294 0.00318281 0.0270718 0.0046825 0.01578 0.00505874 0.0304216 0.00559066 0.0206732 0.00544151 0.0500965
79 1 Mg -1.50344 11.9138 1.4948 1.2 1 0.000607458 0.00323643 0.00188775 0.00454552 0.00168815 0.00829026 0.00200176 0.021518 0.00241084 0.00837079 0.00185331 0.0285529 0.00377017 0.0157913 0.00364136 0.0296286 0.00360359 0.0172723 0.00342964 0.0485148
80 2 Si 0.326006 9.84894 1.4948 2.4 1 0.000294929 0.00332927 0.00162452 0.004886 0.00203934 0.00800279 0.00224583 0.0210711 0.00226216 0.00823417 0.00174144 0.0283971 0.0032028 0.0153137 0.00403851 0.028687 0.00379929 0.0175086 0.00335155 0.0480413
81 3 O 0.317364 8.23571 1.4948 -1.2 1 0.000668667 0.00328572 0.00144209 0.00430597 0.0018975 0.00756722 0.00245874 0.0202769 0.00257624 0.00778817 0.00200665 0.0285423 0.00366206 0.0152712 0.00416398 0.0283114 0.00446839 0.0174752 0.00418601 0.047284
82 3 O 6.94307 10.823 1.4948 -1.2 1 0.000665998 0.00327417 0.00204585 0.0044836 0.00204427 0.00766855 0.00270513 0.0217492 0.00250834 0.00836242 0.00159396 0.0294111 0.00301842 0.0154806 0.00374453 0.0297946 0.00371192 0.0176224 0.00383197 0.0486083
83 3 O -0.343122 10.5551 0.196716 -1.2 1 0.000703156 0.00330054 0.00152337 0.00479843 0.00164934 0.00854617 0.0019323 0.0212161 0.00181886 0.0087412 0.00191796 0.0279215 0.00336003 0.014973 0.00437362 0.0293793 0.00376726 0.0173156 0.0036301 0.0478458
84 3 O -0.385966 10.5551 2.79288 -1.2 1 0.00203461 0.00334094 0.00149657 0.00417037 0.00267427 0.0078041 0.00213395 0.021502 0.00213724 0.00891544 0.0025638 0.027866 0.00413166 0.0154697 0.00456197 0.0297472 0.00499582 0.0181444 0.00423109 0.049187
85 1 Mg 6.49448 14.247 0 1.2 1 0.00134274 0.00328793 0.001807 0.00482788 0.00109113 0.00921075 0.00126052 0.0209358 0.00137841 0.0084905 0.00162893 0.0285096 0.00178736 0.015224 0.00273131 0.0300652 0.0034393 0.0165513 0.00299208 0.0476919
86 1 Mg 3.74457 18.9547 1.4948 1.2 1 0.00185864 0.00282901 0.00153318 0.00389093 0.00173839 0.00862179 0.00161651 0.0219015 0.0019222 0.00796768 0.00220655 0.0275818 0.00263172 0.0163115 0.00371834 0.0287951 0.00350868 0.0161907 0.00290365 0.0492332
87 2 Si 5.55495 16.2705 1.4948 2.4 1 0.00187295 0.00274874 0.00162525 0.00452025 0.00177336 0.00883341 0.00168983 0.0211092 0.00166843 0.00788955 0.00138081 0.0284743 0.00247159 0.0159112 0.00331653 0.0289404 0.00353818 0.0157379 0.00347446 0.0487553
88 3 O 5.6115 17.8838 1.4948 -1.2 1 0.00197055 0.00260195 0.00185448 0.00416716 0.00168591 0.00924189 0.00183673 0.0214094 0.00196451 0.0078992 0.00157837 0.0286416 0.00221863 0.0161889 0.00312517 0.0288889 0.00323133 0.0155914 0.00322549 0.0489577
89 3 O 1.93416 15.2965 1.4948 -1.2 1 0.00145216 0.0026225 0.00193682 0.00448142 0.00176822 0.00835619 0.00221373 0.0216906 0.00222 0.00813668 0.0015687 0.0289546 0.00240097 0.0159049 0.00319587 0.0296731 0.00343908 0.0163628 0.0030316 0.0493176
90 3 O 4.85636 15.5644 0.196716 -1.2 1 0.00134448 0.00251121 0.00174514 0.00467333 0.00123419 0.00919606 0.00146967 0.0212139 0.00114753 0.00815841 0.00169808 0.0278264 0.0027577 0.0157965 0.0038157 0.0294988 0.00349953 0.0158524 0.00310691 0.0484526
91 1 Mg 6.44662 14.247 2.9896 1.2 1 0.0014863 0.00298406 0.00162465 0.00412113 0.00247074 0.00838648 0.00315399 0.0206137 0.00269078 0.00857387 0.00197053 0.0291473 0.00333585 0.0159843 0.00344321 0.0293975 0.00390999 0.0171318 0.0039317 0.0489219
92 3 O 4.81537 15.5644 2.79288 -1.2 1 0.00214412 0.00251603 0.00168098 0.00398944 0.00245075 0.00855425 0.00188748 0.0217026 0.00160588 0.00849258 0.00174278 0.0279798 0.00311094 0.0159113 0.00388035 0.0295064 0.00430091 0.0169128 0.00413957 0.0496542
93 1 Mg -0.948271 14.2883 4.4844 1.2 1 0.00294224 0.00271491 0.00133369 0.00382656 0.00278087 0.00762763 0.00246732 0.0211223 0.00283658 0.00825109 0.00274211 0.0280401 0.00367696 0.0160975 0.00515931 0.0297755 0.00542537 0.0184006 0.00522451 0.0500284
94 2 Si -2.75928 16.9724 4.4844 2.4 1 0.00272098 0.00245693 0.00159032 0.00395441 0.00284112 0.00779924 0.00306132 0.0215241 0.00266898 0.00750744 0.00246334 0.027793 0.00384702 0.0162224 0.00434506 0.0291743 0.00491098 0.017845 0.00507031 0.0509749
95 3 O -2.81617 15.3592 4.4844 -1.2 1 0.00317048 0.00276227 0.00176118 0.00390467 0.0030375 0.00737792 0.00320095 0.0205186 0.00248567 0.00749719 0.00225429 0.0285484 0.004306 0.0152923 0.00423198 0.0299015 0.00540145 0.0177639 0.00549497 0.0499797
96 3 O 0.862762 17.9465 4.4844 -1.2 1 0.00277817 0.00258976 0.00114854 0.00416013 0.00298866 0.00846887 0.00264336 0.0217428 0.00266329 0.00740098 0.00264009 0.0281887 0.00396742 0.0160493 0.00431322 0.0288123 0.00538045 0.0178884 0.00519647 0.0503289
97 3 O -2.0185 17.6786 3.18632 -1.2 1 0.00285468 0.00246244 0.00158599 0.00349659 0.00254818 0.00744293 0.00248385 0.0218753 0.00239028 0.00790521 0.00228754 0.0275808 0.00372234 0.0160762 0.00458231 0.0294659 0.00463776 0.0171644 0.00424073 0.0505402
98 3 O -2.06164 17.6786 5.78248 -1.2 1 0.00315123 0.00268638 0.00123567 0.00399393 0.00311182 0.00682435 0.0025584 0.0216339 0.00244128 0.00701403 0.00247229 0.0272352 0.00366443 0.015954 0.00445737 0.0297794 0.00559227 0.0199145 0.00549913 0.0512609
99 1 Mg 1.39817 16.6215 2.9896 1.2 1 0.00226391 0.00234754 0.0016968 0.00419205 0.00257753 0.00816179 0.00293697 0.020883 0.00281511 0.00792798 0.00231388 0.0286772 0.00326109 0.0162073 0.00362745 0.0292613 0.00394976 0.0163543 0.00354591 0.0493153
100 1 Mg 4.20062 16.5802 4.4844 1.2 1 0.00282932 0.00208384 0.0018801 0.00384762 0.00290057 0.00750066 0.00250392 0.0213186 0.00295486 0.00730249 0.00262889 0.0284073 0.00377789 0.0168027 0.00598826 0.0296641 0.00593167 0.0179731 0.00500444 0.05076
101 2 Si 2.37796 18.645 4.4844 2.4 1 0.00234472 0.00207798 0.00144837 0.00413492 0.00309675 0.00779585 0.00303228 0.0216955 0.00277019 0.00747019 0.00274639 0.0280996 0.00411233 0.0165496 0.00471949 0.0288754 0.00518583 0.0175604 0.00473124 0.0514577
102 3 O 2.39434 20.2583 4.4844 -1.2 1 0.00217388 0.00237677 0.00157864 0.003912 0.00318608 0.00703939 0.00290748 0.0211961 0.00290682 0.00684927 0.00199473 0.0286035 0.00351329 0.0160704 0.0042148 0.0292636 0.00504489 0.0181335 0.00570874 0.0514451
103 3 O -4.24274 17.671 4.4844 -1.2 1 0.00257158 0.0028423 0.00170039 0.00408823 0.00289795 0.00855029 0.00278985 0.022092 0.00267171 0.00777096 0.00246648 0.0284351 0.00385546 0.0163285 0.00469247 0.0290484 0.0054739 0.0181346 0.00516528 0.0505881
104 3 O 3.08659 17.9389 3.18632 -1.2 1 0.00251717 0.00191313 0.0014775 0.00363017 0.00282442 0.00762842 0.00223168 0.0217195 0.00236715 0.00766222 0.00215047 0.0274359 0.00334962 0.0161202 0.00452507 0.0292292 0.005137 0.0171588 0.00464618 0.0503976
105 1 Mg 1.44478 16.6215 0 1.2 1 0.00198253 0.00275089 0.00149652 0.00456975 0.00121737 0.00902334 0.00121334 0.0213412 0.00157637 0.00830771 0.00149476 0.0282391 0.0023058 0.0154854 0.00277804 0.0295802 0.00310587 0.0160778 0.00303329 0.0480721
106 3 O 3.0436 17.9389 5.78248 -1.2 1 0.00231614 0.00251956 0.00153045 0.00407965 0.00312774 0.00694418 0.00285818 0.0220434 0.0023115 0.00731057 0.00254985 0.0272322 0.00393957 0.015967 0.00502442 0.0298776 0.00540663 0.0201729 0.00560852 0.0517752
107 1 Mg -1.40524 16.6628 1.4948 1.2 1 0.00126986 0.00264941 0.0015773 0.00419197 0.00180029 0.00864298 0.00196274 0.0219082 0.00198203 0.00814987 0.0019694 0.0281891 0.00321638 0.0162788 0.00313921 0.0294657 0.00311179 0.016407 0.00268859 0.0490722
108 2 Si 0.420358 14.5979 1.4948 2.4 1 0.00109998 0.00270464 0.00186029 0.00478481 0.00198798 0.00909765 0.00194387 0.0212392 0.00198279 0.00825912 0.001578 0.0283394 0.00305076 0.0160452 0.00390615 0.0290125 0.0034484 0.0162222 0.00302092 0.0487874
109 3 O 0.408732 12.9847 1.4948 -1.2 1 0.000662625 0.00267912 0.0017809 0.0047231 0.00209904 0.00916683 0.00169689 0.0210859 0.00224444 0.00831676 0.00187039 0.0289778 0.00328665 0.0157495 0.00350906 0.0298372 0.00332976 0.0167396 0.00332725 0.0486584
110 3 O 7.03923 15.572 1.4948 -1.2 1 0.00149594 0.00299305 0.0016854 0.00440084 0.00180448 0.00828259 0.00247528 0.0213684 0.00243982 0.0080241 0.00139511 0.0290332 0.00246084 0.0160398 0.00321054 0.0296444 0.00329945 0.0164907 0.00351192 0.0489318
111 3 O -0.248332 15.3041 0.196716 -1.2 1 0.00144081 0.00287769 0.00147144 0.00468819 0.00114556 0.00918418 0.00176677 0.0210955 0.00138499 0.00832552 0.00177829 0.0277103 0.00282021 0.0154587 0.00392522 0.0293852 0.00335444 0.0161707 0.00333227 0.0481924
112 3 O -0.289436 15.3041 2.79288 -1.2 1 0.00264151 0.00270957 0.00127887 0.00414356 0.00261409 0.00857243 0.00213387 0.0217236 0.00187102 0.00855178 0.00192733 0.0273515 0.0033079 0.0161424 0.00370348 0.029361 0.00411888 0.0172453 0.00396215 0.0497441
113 1 Mg 6.59566 18.996 0 1.2 1 0.00113383 0.00286892 0.00172161 0.00431047 0.00100533 0.00859364 0.00118951 0.0217661 0.00144662 0.00779333 0.00126152 0.0278999 0.0021397 0.0161557 0.00255031 0.0288925 0.00311094 0.0158496 0.00282652 0.048139
114 1 Mg 3.85574 23.7037 1.4948 1.2 1 0.00143819 0.00225866 0.00128002 0.00407065 0.00184754 0.00752034 0.00170159 0.022949 0.00170241 0.00750553 0.00191771 0.0272146 0.00249378 0.0172817 0.00357353 0.0285127 0.00288611 0.0172454 0.0029263 0.0501587
115 2 Si 5.66125 21.0195 1.4948 2.4 1 0.00198222 0.00236426 0.00128879 0.00406027 0.00187138 0.00826569 0.00181257 0.0217412 0.00151465 0.00748234 0.00145113 0.0281282 0.00259006 0.0170468 0.00305313 0.0281062 0.00342442 0.0157458 0.00365642 0.0496277
116 3 O 5.72074 22.6328 1.4948 -1.2 1 0.00167396 0.00217471 0.00152627 0.00402814 0.00180634 0.0081924 0.00175508 0.022264 0.00190687 0.00730261 0.00136338 0.0280204 0.00237961 0.016986 0.00329786 0.0283952 0.0031823 0.0163765 0.00338078 0.0497196
117 3 O 2.03867 20.0455 1.4948 -1.2 1 0.00166384 0.00273586 0.00155945 0.00419755 0.00180726 0.00780398 0.00239694 0.0220588 0.00242337 0.00736492 0.00154654 0.0284182 0.00230661 0.0169615 0.00272457 0.0289292 0.00317463 0.015976 0.0031412 0.0498888
118 3 O 4.96004 20.3134 0.196716 -1.2 1 0.00172278 0.00233751 0.00176704 0.00410784 0.00118339 0.00831028 0.00114099 0.021561 0.00126076 0.00755694 0.00152924 0.0276154 0.00271337 0.0164455 0.00392205 0.0287814 0.00303605 0.0151634 0.00259672 0.0488968
119 1 Mg 6.55057 18.996 2.9896 1.2 1 0.00171336 0.00268776 0.00161922 0.00394945 0.00250894 0.00816659 0.0031052 0.0210929 0.00277466 0.00771224 0.00147799 0.0288892 0.00292931 0.0164702 0.00324709 0.0286407 0.00374262 0.0165328 0.00398104 0.0498324