ITEM: TIMESTEP
87300
ITEM: NUMBER OF ATOMS
10500
ITEM: BOX BOUNDS xy xz yz pp pp pp
0	15.2977	5.09925
0	118.725	0
0	89.688	0
ITEM: ATOMS id type element xu yu zu q Q_1 Q_2 Q_3 Q_4 Q_5 Q_6 Q_7 Q_8 Q_9 Q_10 Q_11 Q_12 Q_13 Q_14 Q_15 Q_16 Q_17 Q_18 Q_19 Q_20 Q_21
1 1 Mg 6.2404 -6.37941e-06 0 1.2 1 0.000880677 0.00445733 0.00141162 0.00483089 0.001531 0.00571065 0.00201959 0.0161193 0.00215406 0.00566323 0.00207036 0.0220069 0.002526 0.013288 0.00347138 0.0208942 0.00419855 0.0139927 0.00433849 0.0404424
2 1 Mg 3.46349 4.70768 1.4948 1.2 1 0.00141681 0.00297494 0.00160485 0.00470608 0.00190613 0.0064272 0.00369613 0.018418 0.00276746 0.00667284 0.00296814 0.025478 0.00305391 0.0137917 0.00446246 0.0247856 0.00547774 0.0165673 0.00577109 0.0432053
3 2 Si 5.2885 2.02354 1.4948 2.4 1 0.000862187 0.00326282 0.00203508 0.00483207 0.0019665 0.00599462 0.00242273 0.0168881 0.0024566 0.00593444 0.00218534 0.023015 0.00282425 0.0132434 0.00357772 0.021421 0.00419093 0.0150628 0.00433957 0.0407369
4 3 O 5.33628 3.63678 1.4948 -1.2 1 0.00122 0.00272363 0.00159724 0.00490869 0.00209764 0.00652837 0.00301812 0.0176189 0.00237386 0.00656952 0.00207673 0.0250708 0.00257717 0.0134869 0.00424391 0.023804 0.0052331 0.0159417 0.00575519 0.042273
5 3 O 1.67294 1.04952 1.4948 -1.2 1 0.00111734 0.00308709 0.00197721 0.00442283 0.00145495 0.00584269 0.00246262 0.0167046 0.00220404 0.00598468 0.00205529 0.0226442 0.00244274 0.0127336 0.00341471 0.0218897 0.00493239 0.0153867 0.0047009 0.0400306
6 3 O 4.59532 1.31737 0.196716 -1.2 1 0.000578293 0.00328955 0.00201133 0.00433214 0.00226843 0.00583325 0.00243085 0.0170781 0.00280804 0.00615262 0.00195229 0.022484 0.00327546 0.0126809 0.00411814 0.0216111 0.00446788 0.0146509 0.00461998 0.0405943
7 1 Mg 6.18956 -6.37941e-06 2.9896 1.2 1 0.000560988 0.00444259 0.00131754 0.00462518 0.00155192 0.00614879 0.00228805 0.0158025 0.00271814 0.00532394 0.00185619 0.0226634 0.00268077 0.0132566 0.0034499 0.0207213 0.00470752 0.0147047 0.00503015 0.0389309
8 3 O 4.55118 1.31737 2.79288 -1.2 1 0.00101142 0.0038172 0.00216923 0.00475144 0.00209141 0.00626432 0.00259662 0.0166958 0.00250329 0.00644241 0.00210629 0.0218814 0.00305221 0.0123065 0.0033763 0.0215654 0.00522579 0.01535 0.00537812 0.0395766
9 1 Mg -1.20682 0.0413099 4.4844 1.2 1 0.000993826 0.00272103 0.00151531 0.00526146 0.00160573 0.00570247 0.00201707 0.0157669 0.00241165 0.00543005 0.00219284 0.0223678 0.00316032 0.011365 0.0033426 0.0202359 0.00501267 0.015827 0.00501541 0.0381491
10 2 Si -3.0337 2.72544 4.4844 2.4 1 0.000723383 0.00245096 0.00164996 0.00530042 0.00233369 0.00638664 0.00334332 0.0160132 0.00325113 0.00558803 0.00216935 0.0237346 0.00290257 0.0125482 0.00396762 0.0219209 0.00555485 0.0173077 0.00633742 0.0382882
11 3 O -3.08099 1.11221 4.4844 -1.2 1 0.00118533 0.00310854 0.00177764 0.00489662 0.00149869 0.00576058 0.0022894 0.0156764 0.00288486 0.00512584 0.00225091 0.0224026 0.00303859 0.0113093 0.00363812 0.021172 0.00501017 0.016168 0.00562272 0.0376162
12 3 O 0.582463 3.69946 4.4844 -1.2 1 0.00118438 0.00354532 0.00224793 0.0049735 0.00242924 0.00665282 0.00343234 0.0166415 0.00340742 0.00613559 0.00315004 0.0240704 0.00391668 0.0125463 0.00440538 0.0236548 0.00710591 0.0183611 0.00789574 0.0402817
13 3 O -2.29524 3.43162 3.18632 -1.2 1 0.00131729 0.00238535 0.00243915 0.00500372 0.00225226 0.0060245 0.00295857 0.0173788 0.0032163 0.00623492 0.00277508 0.0242734 0.00313319 0.0128441 0.0046694 0.0238751 0.00645077 0.0175159 0.00685607 0.0409212
14 3 O -2.34216 3.43162 5.78248 -1.2 1 0.00103834 0.00291804 0.00130208 0.00536502 0.00258821 0.00594763 0.00312222 0.0162159 0.00295081 0.00653356 0.00273386 0.0228833 0.00402304 0.0120197 0.00417571 0.0229323 0.00658609 0.0189094 0.00716158 0.0384578
15 1 Mg 1.12778 2.37449 2.9896 1.2 1 0.00103501 0.00303827 0.00222959 0.00483215 0.00231282 0.00598631 0.00321072 0.0163186 0.00262869 0.00588994 0.00236006 0.0232812 0.00294321 0.0127039 0.00346572 0.0215568 0.00506693 0.0160859 0.00552654 0.0399271
16 1 Mg 3.92855 2.33318 4.4844 1.2 1 0.0014522 0.00342975 0.00159051 0.00492415 0.00185466 0.00585978 0.00339356 0.0160858 0.00311993 0.00565856 0.00287647 0.0226207 0.00344408 0.0131845 0.00512073 0.021554 0.00625826 0.0166121 0.0069503 0.0388376
17 2 Si 2.09341 4.39804 4.4844 2.4 1 0.00158695 0.00314832 0.0020066 0.00476769 0.00314669 0.00591251 0.0036546 0.0175334 0.00355803 0.00646387 0.00337906 0.024276 0.00416644 0.0137482 0.00433665 0.0241351 0.00696959 0.0181774 0.00826207 0.0419562
18 3 O 2.09991 6.01128 4.4844 -1.2 1 0.00228395 0.00335182 0.00170601 0.00465864 0.00304504 0.00646474 0.00316158 0.0184543 0.00264179 0.0069677 0.00330346 0.0259437 0.00391944 0.014028 0.00470272 0.0266989 0.00698628 0.0190767 0.00791695 0.0436122
19 3 O -4.52137 3.42402 4.4844 -1.2 1 0.0011982 0.00277027 0.0020116 0.00514206 0.00236736 0.00738035 0.00344329 0.0164084 0.00316542 0.00586617 0.00300881 0.0232099 0.00352895 0.0126345 0.00441327 0.0224502 0.00652445 0.0173598 0.00772848 0.0396869
20 3 O 2.80834 3.69187 3.18632 -1.2 1 0.00175841 0.00307685 0.00170405 0.00437393 0.00233639 0.00592509 0.00314297 0.0168938 0.00294652 0.00610823 0.0028477 0.0238628 0.00331084 0.0128946 0.00471712 0.0235573 0.00608149 0.0168165 0.00637193 0.0415301
21 1 Mg 1.17857 2.37449 0 1.2 1 0.00119082 0.00327173 0.00204377 0.00409261 0.00161143 0.00548449 0.00261776 0.0171326 0.00228703 0.00655874 0.00268754 0.0231264 0.00266664 0.0129848 0.00350731 0.0217221 0.00472077 0.014642 0.00484354 0.0405151
22 3 O 2.76143 3.69187 5.78248 -1.2 1 0.00174194 0.00323666 0.0017876 0.00474639 0.00209823 0.00555993 0.00288972 0.0164966 0.0032045 0.00652395 0.00302435 0.0225253 0.00451336 0.012671 0.00559813 0.0225753 0.00677395 0.0181009 0.00723729 0.0385998
23 1 Mg -1.67381 2.41581 1.4948 1.2 1 0.000565436 0.00285926 0.00234177 0.00490102 0.00156669 0.00617368 0.00241824 0.0165106 0.00254163 0.00615504 0.0019177 0.0242578 0.0023101 0.0141806 0.00292218 0.0221965 0.00481523 0.0157732 0.00489353 0.0415662
24 2 Si 0.16286 0.350945 1.4948 2.4 1 0.000872209 0.00258218 0.00255176 0.00459482 0.00162224 0.00648244 0.00284317 0.0162755 0.00225473 0.00514385 0.0017109 0.0230596 0.00236579 0.0133762 0.00325847 0.0211254 0.00487671 0.0147834 0.00434708 0.0404547
25 3 O 0.15972 -1.26229 1.4948 -1.2 1 0.00079401 0.00267371 0.0028645 0.00468465 0.00210281 0.00632559 0.00253833 0.0162182 0.00238851 0.00524385 0.00226316 0.0228545 0.00262973 0.0136521 0.00328721 0.0221174 0.00443987 0.0146499 0.00408028 0.0408513
26 3 O 6.77654 1.32496 1.4948 -1.2 1 0.000729355 0.00393464 0.00161311 0.00474318 0.00155241 0.00621453 0.00220214 0.0167213 0.00245153 0.00539861 0.00168193 0.0237169 0.00274316 0.0134356 0.0036235 0.0218872 0.00497252 0.0150359 0.00455728 0.0405997
27 3 O -0.508028 1.05712 0.196716 -1.2 1 0.000457227 0.0030142 0.00318719 0.00424354 0.00145361 0.00565415 0.00242253 0.0169504 0.00175528 0.00650786 0.00237709 0.022229 0.0024696 0.0127156 0.00312666 0.0213749 0.00445024 0.0148855 0.00466615 0.0398533
28 3 O -0.552171 1.05712 2.79288 -1.2 1 0.000561407 0.00213852 0.00280825 0.00482477 0.00152517 0.00626237 0.00234425 0.015858 0.00255164 0.00570661 0.00191528 0.0226962 0.00281064 0.0117003 0.00384199 0.0214869 0.00540501 0.0156848 0.00494019 0.0389093
29 1 Mg 6.31713 4.74899 0 1.2 1 0.000880968 0.00296403 0.00155683 0.00477691 0.00240479 0.0061699 0.00329057 0.0180477 0.0029018 0.00705195 0.002117 0.0251658 0.00291288 0.0134611 0.00427454 0.024432 0.00478513 0.0160378 0.00590428 0.0424173
30 1 Mg 3.54847 9.45668 1.4948 1.2 1 0.00160475 0.00278617 0.00166665 0.00467684 0.00203369 0.00762322 0.0030872 0.0211403 0.00173862 0.00808179 0.00231544 0.0281233 0.00306366 0.0154699 0.0037291 0.0287544 0.0041007 0.0178384 0.00392859 0.0478582
31 2 Si 5.36879 6.77254 1.4948 2.4 1 0.0013391 0.00251833 0.00182021 0.00518616 0.00280338 0.00691777 0.00383806 0.019372 0.00271795 0.00762401 0.002586 0.0274924 0.00307129 0.0151402 0.00407376 0.0266835 0.00471639 0.0168032 0.00525841 0.0457777
32 3 O 5.41937 8.38578 1.4948 -1.2 1 0.00141987 0.0026552 0.00160074 0.00504977 0.00225647 0.0078015 0.00322725 0.0205205 0.00219061 0.00810526 0.00237842 0.0288424 0.00221249 0.0153556 0.00288947 0.0288101 0.00472976 0.0171167 0.00505914 0.0471956
33 3 O 1.75158 5.79852 1.4948 -1.2 1 0.0014825 0.00292387 0.00135509 0.0043657 0.00260895 0.00612507 0.00345795 0.0192654 0.00277437 0.00715105 0.00277608 0.0276105 0.00281389 0.0153224 0.00348477 0.0264487 0.00546554 0.0171943 0.00579275 0.0448301
34 3 O 4.67421 6.06637 0.196716 -1.2 1 0.000903542 0.00284764 0.00150018 0.0048032 0.0020849 0.00679553 0.00291876 0.0196865 0.00254913 0.00795278 0.0021348 0.0261636 0.00335453 0.0142872 0.00407055 0.0265185 0.00471646 0.0163447 0.0053586 0.0445433
35 1 Mg 6.26654 4.74899 2.9896 1.2 1 0.00172309 0.0026315 0.0020591 0.00514741 0.00277341 0.00672988 0.00374734 0.0175191 0.00373841 0.00676552 0.00248272 0.0255442 0.00365257 0.0143846 0.00526729 0.0243178 0.00615723 0.0172459 0.00715556 0.0424589
36 3 O 4.63043 6.06637 2.79288 -1.2 1 0.00230437 0.00287762 0.00181581 0.00496678 0.00240036 0.006899 0.00351648 0.0189318 0.00326507 0.00740592 0.00267264 0.0256684 0.00374631 0.0144454 0.00460385 0.0268154 0.00619049 0.017691 0.00729049 0.0442084
37 1 Mg -1.12976 4.79031 4.4844 1.2 1 0.00160158 0.00303553 0.00178233 0.00516587 0.00254812 0.00616219 0.00325617 0.0172234 0.00310467 0.00652029 0.00323471 0.0252324 0.00395407 0.0138504 0.00437556 0.0246022 0.00769153 0.0187112 0.00788169 0.0419272
38 2 Si -2.9517 7.47444 4.4844 2.4 1 0.00222761 0.00341931 0.00124539 0.00545752 0.003155 0.00671092 0.00367982 0.0194408 0.00317425 0.00748837 0.00301391 0.0265311 0.0040831 0.0152444 0.00522206 0.0269207 0.00726776 0.0192269 0.00808213 0.0453775
39 3 O -3.00198 5.86121 4.4844 -1.2 1 0.00186895 0.00346057 0.0011453 0.00532928 0.00330516 0.00639563 0.00408185 0.0179642 0.00341244 0.00714989 0.00301406 0.0252455 0.00428637 0.013687 0.00474121 0.0261464 0.0075189 0.0189556 0.00847739 0.0433844
40 3 O 0.666315 8.44846 4.4844 -1.2 1 0.00200257 0.00380831 0.00131464 0.00510442 0.00298025 0.00758126 0.00300899 0.0206041 0.00285133 0.0075804 0.00319196 0.0275274 0.00445358 0.0153747 0.00427875 0.0282993 0.00648086 0.0195721 0.00805102 0.0464249
41 3 O -2.21213 8.18062 3.18632 -1.2 1 0.00195693 0.00347295 0.0014123 0.00474985 0.00265481 0.0064575 0.00283061 0.0203039 0.00272803 0.00769711 0.00295494 0.0272075 0.00403727 0.015381 0.00473701 0.028298 0.00602375 0.0185642 0.00693746 0.0470624
42 3 O -2.25864 8.18062 5.78248 -1.2 1 0.00178658 0.00377294 0.00147604 0.00515228 0.00325222 0.00587662 0.00303026 0.0196207 0.00232432 0.00785413 0.00334407 0.025858 0.00428757 0.015651 0.00547187 0.0280009 0.00764197 0.0205094 0.00826697 0.0456577
43 1 Mg 1.20893 7.12349 2.9896 1.2 1 0.00192697 0.00321556 0.0014551 0.00467138 0.00293489 0.0068215 0.00376811 0.0191846 0.00284341 0.00777727 0.00283728 0.0275124 0.00343684 0.0154915 0.00374603 0.027037 0.00585205 0.0180186 0.00659083 0.0453526
44 1 Mg 4.00982 7.08218 4.4844 1.2 1 0.00255445 0.0029344 0.00162888 0.00527164 0.00285507 0.00652595 0.00382961 0.0191808 0.00342277 0.00745762 0.00347222 0.0265469 0.00401721 0.0162249 0.0058511 0.0272321 0.00748916 0.0189946 0.00854983 0.0449764
45 2 Si 2.17861 9.14704 4.4844 2.4 1 0.00200179 0.00330169 0.00143138 0.00504662 0.00302934 0.00745395 0.00359046 0.0205452 0.00263018 0.00789188 0.00297482 0.0275255 0.00448007 0.015943 0.00421796 0.0286041 0.00597561 0.0192329 0.00727147 0.0477585
46 3 O 2.18828 10.7603 4.4844 -1.2 1 0.00255764 0.00351868 0.00164331 0.00481688 0.00285476 0.00712066 0.00270214 0.0202958 0.00226632 0.00771889 0.00210919 0.0278334 0.00379991 0.0151161 0.00404779 0.0295419 0.00605395 0.0195546 0.00700745 0.0482861
47 3 O -4.43805 8.17302 4.4844 -1.2 1 0.00177155 0.00361863 0.00191252 0.00541782 0.00286914 0.00781921 0.00317447 0.019626 0.00322442 0.00800313 0.00318992 0.0275081 0.00436939 0.0152265 0.00504882 0.0283625 0.00707879 0.019035 0.00906916 0.0458015
48 3 O 2.89193 8.44087 3.18632 -1.2 1 0.00223064 0.00275594 0.0014809 0.00464168 0.00269049 0.00694329 0.00319237 0.0201471 0.00276173 0.0081723 0.00284996 0.0271434 0.00358738 0.0156478 0.00450259 0.0283728 0.00612409 0.018318 0.00608039 0.0468459
49 1 Mg 1.25915 7.12349 0 1.2 1 0.000682412 0.00263046 0.00116433 0.00425612 0.00186721 0.00708491 0.00300055 0.0198916 0.00277296 0.00819295 0.00277359 0.0273557 0.00332589 0.0144074 0.00366028 0.0273074 0.00459835 0.0172135 0.0044322 0.0455177
50 3 O 2.84547 8.44087 5.78248 -1.2 1 0.00234537 0.0036969 0.00162432 0.0052176 0.00284504 0.00638335 0.00313951 0.0199713 0.00272604 0.00828896 0.00322167 0.0259194 0.00506905 0.0156899 0.005201 0.0284906 0.00660854 0.0208612 0.00803091 0.0463243
51 1 Mg -1.59284 7.16481 1.4948 1.2 1 0.00134831 0.002779 0.0012089 0.00468649 0.00204289 0.00643257 0.00267309 0.0195953 0.00289477 0.00764308 0.00174836 0.027444 0.00331686 0.0151102 0.00376508 0.0268971 0.00482336 0.0171905 0.00570082 0.0457595
52 2 Si 0.240329 5.09994 1.4948 2.4 1 0.00135094 0.00313217 0.00169665 0.00431523 0.00206167 0.00680967 0.00322489 0.0186121 0.00305223 0.00716964 0.00250506 0.0258735 0.00261935 0.0143806 0.00407125 0.0246135 0.00547434 0.0165165 0.00552215 0.0440351
53 3 O 0.234538 3.48671 1.4948 -1.2 1 0.00145422 0.00317874 0.00243848 0.00441855 0.00201804 0.00644459 0.00249047 0.0177059 0.00328516 0.00683526 0.00249958 0.0244138 0.00306276 0.0135491 0.00390843 0.0239155 0.00596436 0.0157441 0.00566754 0.0418785
54 3 O 6.85564 6.07396 1.4948 -1.2 1 0.00158604 0.00222781 0.00205728 0.0049999 0.0025981 0.00619292 0.00314644 0.019668 0.00303115 0.00738932 0.00235163 0.027467 0.00322177 0.0145192 0.00481959 0.0264706 0.0058037 0.017297 0.00653168 0.0446999
55 3 O -0.429565 5.80612 0.196716 -1.2 1 0.000902529 0.00280303 0.00190522 0.00415943 0.00191457 0.00707705 0.00254752 0.01925 0.00287278 0.00829139 0.00249509 0.0255032 0.00257867 0.013955 0.0040187 0.0257585 0.00528595 0.0165436 0.00569483 0.0447435
56 3 O -0.473377 5.80612 2.79288 -1.2 1 0.00208473 0.00278261 0.00167253 0.0048301 0.00248838 0.00670046 0.00318702 0.0187014 0.00287417 0.00753238 0.00309395 0.0255525 0.00358464 0.0141491 0.00455364 0.025783 0.0066693 0.0179306 0.00708657 0.0443233
57 1 Mg 6.40169 9.49799 0 1.2 1 0.00033642 0.00332306 0.0015719 0.00457123 0.00154328 0.00820235 0.0019996 0.0208331 0.00176737 0.00857822 0.00164113 0.0285513 0.00243513 0.0146535 0.00255638 0.029754 0.00345903 0.0174563 0.00371311 0.0470392
58 1 Mg 3.64209 14.2057 1.4948 1.2 1 0.00086798 0.00278692 0.00148913 0.00461803 0.00171701 0.00872808 0.0014202 0.0215622 0.00157291 0.00862366 0.00217861 0.0279732 0.00245875 0.0159333 0.00308557 0.0293933 0.00366086 0.0166495 0.0033559 0.0485797
59 2 Si 5.45748 11.5215 1.4948 2.4 1 0.00112593 0.00288749 0.00176903 0.00478651 0.00191042 0.00818984 0.0019983 0.0208329 0.00151245 0.00799346 0.00165859 0.0284898 0.00250262 0.0159959 0.00327326 0.0290138 0.00401091 0.0166994 0.00370016 0.0483249
60 3 O 5.51101 13.1348 1.4948 -1.2 1 0.000776716 0.00299034 0.00171121 0.00477202 0.00165721 0.00903724 0.00151946 0.0210039 0.00163033 0.0084599 0.00163041 0.0290648 0.00216751 0.0159133 0.00293047 0.0297283 0.00382542 0.0164617 0.00347294 0.0481908
61 3 O 1.83851 10.5475 1.4948 -1.2 1 0.000897198 0.00303104 0.0016389 0.00481706 0.0019344 0.00778293 0.00221623 0.0213668 0.00168814 0.00813159 0.00213885 0.0290083 0.00247888 0.0155823 0.00305379 0.0294495 0.00397544 0.0174 0.00341276 0.0482696
62 3 O 4.7611 10.8154 0.196716 -1.2 1 0.000308517 0.00257257 0.00180634 0.00478303 0.00159347 0.00847387 0.00210692 0.0210964 0.00159934 0.00850545 0.00169012 0.0278456 0.00290651 0.0154524 0.00368595 0.0294742 0.00355385 0.0168723 0.00335723 0.0479401
63 1 Mg 6.35203 9.49799 2.9896 1.2 1 0.00173114 0.00307701 0.00162535 0.00499044 0.00275729 0.00771423 0.00315554 0.0200066 0.00292526 0.00820851 0.00212723 0.0287283 0.00333141 0.015601 0.0032288 0.0286241 0.00446788 0.0181213 0.00567994 0.0473353
64 3 O 4.71833 10.8154 2.79288 -1.2 1 0.00243387 0.00303449 0.00176996 0.00463397 0.00234711 0.00824591 0.00214012 0.0207966 0.00206573 0.00861991 0.00213151 0.0278676 0.0032991 0.0156632 0.00397329 0.0295061 0.00531316 0.017943 0.00548888 0.0483924
65 1 Mg -1.0438 9.53931 4.4844 1.2 1 0.00203999 0.00381721 0.0014181 0.00481281 0.00312418 0.00681039 0.00260395 0.0201931 0.00263725 0.00807981 0.00267181 0.0277118 0.00396387 0.0161292 0.00435852 0.0286718 0.00661551 0.0193719 0.00730176 0.0477414
66 2 Si -2.8604 12.2234 4.4844 2.4 1 0.00239289 0.00390918 0.00193014 0.0046643 0.00280739 0.00773735 0.00289346 0.0209511 0.00239687 0.00809427 0.00253908 0.0273434 0.0038635 0.0157984 0.00437222 0.0290797 0.00583287 0.0189821 0.00649621 0.0487927
67 3 O -2.91391 10.6102 4.4844 -1.2 1 0.00230785 0.00394549 0.00176387 0.00475476 0.00310038 0.00713092 0.00299164 0.0200898 0.00275386 0.00743208 0.00217952 0.0277855 0.0037634 0.0151299 0.00424724 0.029712 0.0060806 0.0194539 0.00691275 0.048391
68 3 O 0.7596 13.1975 4.4844 -1.2 1 0.00223095 0.00333582 0.00178583 0.00503642 0.00306677 0.00859446 0.00247378 0.0215423 0.00235331 0.00841087 0.00263315 0.0278909 0.00406674 0.0156538 0.00395055 0.0289722 0.00577289 0.0191339 0.00659959 0.0482517
69 3 O -2.12001 12.9296 3.18632 -1.2 1 0.00218972 0.00346291 0.00176753 0.00441941 0.00262144 0.00758352 0.00203305 0.0214314 0.0022152 0.00820332 0.00238654 0.0273591 0.00338275 0.0156936 0.00455616 0.0297589 0.00530551 0.0183575 0.00537577 0.0490471
70 3 O -2.16532 12.9296 5.78248 -1.2 1 0.00247343 0.0040253 0.00171519 0.00472046 0.00303471 0.00668658 0.00220554 0.021202 0.00219783 0.00781682 0.00246471 0.0268056 0.00395661 0.0160071 0.00486153 0.030003 0.00623291 0.0208746 0.00699559 0.0490881
71 1 Mg 1.29891 11.8725 2.9896 1.2 1 0.00139922 0.00320972 0.00168359 0.00486198 0.00260542 0.00809965 0.00258377 0.020598 0.00234622 0.00821213 0.00202743 0.0286205 0.00336901 0.0158981 0.00335665 0.0292168 0.00452622 0.0175421 0.00517484 0.0482535
72 1 Mg 4.10033 11.8312 4.4844 1.2 1 0.0026083 0.00339233 0.00197204 0.00444341 0.00277348 0.00743274 0.00244334 0.0206117 0.00246016 0.00797005 0.00285171 0.0282855 0.00369684 0.0167151 0.00498427 0.0291383 0.00678162 0.0190303 0.00662327 0.0487129
73 2 Si 2.27333 13.896 4.4844 2.4 1 0.00203178 0.003044 0.0017383 0.00496759 0.00315914 0.00791659 0.0027553 0.0212047 0.00219282 0.00797061 0.0024784 0.0272576 0.00354267 0.0161304 0.00418357 0.0290635 0.00544981 0.0186456 0.00605775 0.0493367
74 3 O 2.28634 15.5093 4.4844 -1.2 1 0.00239794 0.00360954 0.00168571 0.00458637 0.00318338 0.00729326 0.00246761 0.0204338 0.0026432 0.0075538 0.00197443 0.027666 0.0029288 0.0153084 0.00374075 0.0299035 0.0059239 0.0185981 0.00640877 0.0488693
75 3 O -4.34533 12.922 4.4844 -1.2 1 0.0024136 0.00410091 0.00200252 0.0047021 0.00283083 0.00851371 0.00247316 0.0210983 0.00264405 0.00819503 0.00244628 0.0279206 0.00396047 0.0154794 0.00451125 0.0292855 0.0066438 0.0195928 0.00698103 0.0485099
76 3 O 2.98455 13.1899 3.18632 -1.2 1 0.00201015 0.00289431 0.00137938 0.00438565 0.00269474 0.00782135 0.0018971 0.0213209 0.00212102 0.00825251 0.00250898 0.0276945 0.00356957 0.0158852 0.00414725 0.0293187 0.00533196 0.01798 0.00562619 0.0490123
77 1 Mg 1.34779 11.8725 0 1.2 1 0.000653219 0.00236942 0.00127859 0.00477847 0.00124464 0.00879902 0.00142411 0.02107 0.00123881 0.00898436 0.00191004 0.028648 0.00281827 0.0147402 0.00295986 0.0297166 0.00307591 0.0169419 0.00316974 0.0474382
78 3 O 2.93934 13.1899 5.78248 -1.2 1 0.00294396 0.00395077 0.00163983 0.00491813 0.0027593 0.00698247 0.00223946 0.0210182 0.00248703 0.00806765 0.0030561 0.0263928 0.00425976 0.0158109 0.00469162 0.0298242 0.0063705 0.0209027 0.00629748 0.0486827
79 1 Mg -1.50344 11.9138 1.4948 1.2 1 0.00053754 0.00319268 0.0015047 0.00465621 0.00155975 0.00823886 0.00170937 0.0214597 0.00234835 0.0082543 0.00146741 0.0283965 0.00346043 0.0157518 0.0033554 0.0295416 0.00334543 0.0171355 0.00367027 0.0483028
80 2 Si 0.326006 9.84894 1.4948 2.4 1 0.000623404 0.00291303 0.00127042 0.00503795 0.00196928 0.00812032 0.00191023 0.0208485 0.0021899 0.00818264 0.00160295 0.0282343 0.00287961 0.0153663 0.00354488 0.028621 0.00372328 0.01737 0.00338297 0.0477231
81 3 O 0.317364 8.23571 1.4948 -1.2 1 0.00155354 0.00291113 0.000853195 0.00470687 0.00214567 0.00764138 0.00212286 0.0200279 0.00259849 0.00776817 0.00179897 0.0283894 0.00341604 0.0155429 0.00381346 0.0282532 0.00449592 0.0173717 0.0044585 0.0467855
82 3 O 6.94307 10.823 1.4948 -1.2 1 0.000863089 0.00329013 0.00163387 0.00467305 0.00204253 0.00767893 0.00252543 0.0216182 0.00229609 0.00800868 0.00140564 0.0291588 0.00277525 0.0155243 0.00325539 0.0296311 0.00385859 0.0175788 0.00410015 0.0483703
83 3 O -0.343122 10.5551 0.196716 -1.2 1 0.00041474 0.00283 0.00111768 0.00474456 0.00146695 0.00838154 0.00183072 0.0212217 0.00195565 0.00858884 0.0018522 0.0279518 0.00316792 0.0153449 0.00395669 0.029279 0.00345578 0.0171657 0.00340336 0.0479399
84 3 O -0.385966 10.5551 2.79288 -1.2 1 0.00212523 0.00331002 0.00113801 0.00464541 0.00259201 0.00812061 0.00205094 0.0212686 0.00202913 0.00878327 0.00238062 0.0273566 0.00363837 0.0155129 0.0039732 0.0292138 0.00499828 0.0180875 0.005214 0.0483807
85 1 Mg 6.49448 14.247 0 1.2 1 0.00122321 0.00294809 0.00155385 0.00483328 0.00119508 0.00919513 0.000977252 0.0210216 0.00128367 0.00839004 0.00162704 0.0284091 0.00182151 0.0154416 0.0026254 0.0299379 0.00290885 0.0162991 0.00296466 0.047488
86 1 Mg 3.74457 18.9547 1.4948 1.2 1 0.00192803 0.00320839 0.0013781 0.00412047 0.00184991 0.00838109 0.0012047 0.0221183 0.0019537 0.00799244 0.00202619 0.0270771 0.00222852 0.016182 0.00305305 0.0289101 0.00374319 0.0162952 0.00324479 0.0488198
87 2 Si 5.55495 16.2705 1.4948 2.4 1 0.00133586 0.00270288 0.00160269 0.00455595 0.00200483 0.00884262 0.00117013 0.0212479 0.00132609 0.00765097 0.0012145 0.0281722 0.00207402 0.0160104 0.00281246 0.0289025 0.00366258 0.0157613 0.00368694 0.048477
88 3 O 5.6115 17.8838 1.4948 -1.2 1 0.00152379 0.00297143 0.00164278 0.00445968 0.0018333 0.00911313 0.0012629 0.0215067 0.00167842 0.00769922 0.0012689 0.0283094 0.0020076 0.0162196 0.00272091 0.029078 0.00325309 0.0156964 0.00356275 0.0485749
89 3 O 1.93416 15.2965 1.4948 -1.2 1 0.000821854 0.00294012 0.00127653 0.00471596 0.00202604 0.00833569 0.00190911 0.0217024 0.00176499 0.0078638 0.00138053 0.0286679 0.00198056 0.0161244 0.00273979 0.0297477 0.00378244 0.0164767 0.00349327 0.0489376
90 3 O 4.85636 15.5644 0.196716 -1.2 1 0.00141099 0.00244893 0.00134659 0.00467709 0.0014719 0.00897368 0.00147534 0.021195 0.00121365 0.00797202 0.00159211 0.02763 0.00249692 0.0160662 0.00324479 0.0292447 0.0029621 0.0155497 0.00304412 0.0481773
91 1 Mg 6.44662 14.247 2.9896 1.2 1 0.000941857 0.00339273 0.00160248 0.00467132 0.00262469 0.00843835 0.00260068 0.0207673 0.0022045 0.00837692 0.00169231 0.0286522 0.00270181 0.0156937 0.00297724 0.0295077 0.00413204 0.0173663 0.00460353 0.0485561
92 3 O 4.81537 15.5644 2.79288 -1.2 1 0.00151851 0.00308179 0.00150042 0.0043956 0.00236792 0.00872116 0.00163495 0.0216435 0.00155511 0.00836604 0.00161278 0.0274717 0.00261802 0.0158939 0.00334346 0.0293578 0.00478899 0.0169423 0.00482683 0.04878
93 1 Mg -0.948271 14.2883 4.4844 1.2 1 0.00244323 0.00326291 0.00160303 0.00453197 0.0029653 0.00754084 0.00247849 0.0209329 0.00239058 0.00811518 0.00271932 0.0275367 0.00339441 0.0164455 0.0047603 0.0294599 0.00566756 0.0186377 0.00637688 0.0485919
94 2 Si -2.75928 16.9724 4.4844 2.4 1 0.00252112 0.00351222 0.0015901 0.00421704 0.00277268 0.00768683 0.00269254 0.0215787 0.00237819 0.00781782 0.00236441 0.0269455 0.00340852 0.0160743 0.00415515 0.0290797 0.00524925 0.0184168 0.00598502 0.0494401
95 3 O -2.81617 15.3592 4.4844 -1.2 1 0.00264509 0.00350934 0.00165577 0.00426528 0.00300866 0.00758662 0.00277282 0.0205203 0.00240164 0.00749118 0.00205054 0.0278079 0.00356154 0.0153462 0.00396235 0.0294443 0.00585794 0.0184718 0.00648178 0.0487186
96 3 O 0.862762 17.9465 4.4844 -1.2 1 0.0026671 0.00380073 0.00161745 0.00439987 0.00316182 0.00822833 0.00254687 0.0218507 0.0023957 0.00784985 0.00253511 0.0274886 0.00344694 0.0163184 0.00433776 0.0288151 0.00560131 0.0186486 0.00592978 0.0488357
97 3 O -2.0185 17.6786 3.18632 -1.2 1 0.00227858 0.00322713 0.00177856 0.00383004 0.00269409 0.00749716 0.00228912 0.0219859 0.00210907 0.00748476 0.00193814 0.0268032 0.00324713 0.015983 0.00415342 0.0295066 0.00474722 0.0173419 0.00526457 0.0494493
98 3 O -2.06164 17.6786 5.78248 -1.2 1 0.00338972 0.00383212 0.00146811 0.00418901 0.00291034 0.0067651 0.00235213 0.0211432 0.00207047 0.00766094 0.00242279 0.0260363 0.003148 0.0159814 0.00460377 0.0293984 0.00611851 0.0201689 0.00602271 0.0487829
99 1 Mg 1.39817 16.6215 2.9896 1.2 1 0.00167428 0.00320409 0.00143817 0.00449683 0.00271186 0.0082585 0.00235829 0.0210297 0.00242661 0.00802942 0.0021536 0.028087 0.00273466 0.0163055 0.00343673 0.0291157 0.00430142 0.0168296 0.00465106 0.048512
100 1 Mg 4.20062 16.5802 4.4844 1.2 1 0.00243425 0.00350815 0.00185615 0.00408304 0.00265255 0.00749701 0.00219809 0.0213995 0.00286431 0.00769869 0.00268682 0.0274199 0.00291074 0.0166245 0.00531112 0.0292524 0.0063966 0.0184901 0.00589305 0.0493742
101 2 Si 2.37796 18.645 4.4844 2.4 1 0.00253534 0.00340737 0.00157781 0.00418056 0.00309502 0.00768208 0.00266564 0.0220816 0.00232269 0.00764421 0.00233118 0.0265119 0.00297033 0.0165478 0.00434255 0.0290105 0.00552871 0.0185397 0.00563736 0.0501353
102 3 O 2.39434 20.2583 4.4844 -1.2 1 0.00288272 0.00407699 0.00143732 0.00381465 0.00300317 0.00663517 0.00223193 0.0209791 0.00269525 0.00720558 0.00179105 0.0270596 0.00312963 0.0159273 0.00401664 0.0293849 0.0058757 0.0182963 0.00611289 0.0493106
103 3 O -4.24274 17.671 4.4844 -1.2 1 0.00220824 0.00377996 0.00169994 0.00425999 0.0026341 0.0083704 0.0023808 0.0219518 0.00252533 0.00804543 0.0022928 0.0274273 0.00312894 0.0159858 0.00446193 0.0291893 0.00622457 0.0189775 0.00608608 0.0491841
104 3 O 3.08659 17.9389 3.18632 -1.2 1 0.00220651 0.00318296 0.00143869 0.00394307 0.0026393 0.00763408 0.00184835 0.0218246 0.00221246 0.00785059 0.0020391 0.0266615 0.0027802 0.0162119 0.00410532 0.029383 0.00527751 0.0174527 0.0050779 0.049307
105 1 Mg 1.44478 16.6215 0 1.2 1 0.00190959 0.0024553 0.00106412 0.00444555 0.0015137 0.00890109 0.0010813 0.0214864 0.00146715 0.00815047 0.00155865 0.0282334 0.00205651 0.015673 0.00229056 0.0292656 0.00299538 0.0157914 0.00303947 0.048015
106 3 O 3.0436 17.9389 5.78248 -1.2 1 0.00270661 0.00399313 0.00140781 0.00430908 0.00273547 0.00687525 0.00197888 0.0215901 0.00208991 0.00797372 0.00276245 0.0260853 0.00339488 0.016082 0.00465428 0.0296005 0.00592779 0.0206922 0.00598268 0.0493355
107 1 Mg -1.40524 16.6628 1.4948 1.2 1 0.000888484 0.00312874 0.00133993 0.00456458 0.00174386 0.00859178 0.0018065 0.0220533 0.00172622 0.00790568 0.00185545 0.0277088 0.00304175 0.0164316 0.00300454 0.0293572 0.00280488 0.0164377 0.00336237 0.0487842
108 2 Si 0.420358 14.5979 1.4948 2.4 1 0.000450615 0.00282333 0.00123739 0.00485996 0.00209103 0.0089318 0.00166321 0.0212917 0.00171313 0.00808612 0.00144034 0.0281045 0.00293774 0.0162405 0.00352618 0.0288355 0.00335822 0.0161932 0.00334993 0.0486461
109 3 O 0.408732 12.9847 1.4948 -1.2 1 0.000865999 0.00273403 0.00125948 0.00480889 0.00190798 0.00897624 0.00132244 0.0210752 0.00213325 0.00829731 0.00143592 0.0287371 0.0030444 0.0158859 0.0028924 0.0296116 0.00315506 0.0166595 0.00367403 0.0482939
110 3 O 7.03923 15.572 1.4948 -1.2 1 0.000417006 0.00304873 0.00154221 0.00464844 0.00216806 0.00831002 0.00205508 0.021548 0.00177816 0.00775288 0.00145883 0.0288363 0.00241299 0.0160791 0.00276833 0.0295484 0.0032764 0.0165312 0.00385592 0.048666
111 3 O -0.248332 15.3041 0.196716 -1.2 1 0.0012327 0.00251987 0.000927269 0.00450272 0.00104453 0.00878673 0.00185614 0.0210346 0.00137838 0.00807511 0.0017289 0.0274987 0.00288947 0.0157755 0.00371247 0.029294 0.00292672 0.0157896 0.00314023 0.0481248
112 3 O -0.289436 15.3041 2.79288 -1.2 1 0.00180322 0.00322381 0.00128534 0.00450889 0.0026126 0.0085431 0.00193866 0.0217334 0.00157384 0.00840286 0.00199205 0.0269498 0.00273843 0.0161958 0.00350939 0.029242 0.00435759 0.0176887 0.00459171 0.0486328
113 1 Mg 6.59566 18.996 0 1.2 1 0.00142885 0.00300762 0.00126607 0.00430809 0.000727119 0.00859911 0.000903864 0.0217964 0.00115631 0.00769487 0.00141526 0.0277278 0.00193261 0.01605 0.00220666 0.0287104 0.00268246 0.0155031 0.00296147 0.048069
114 1 Mg 3.85574 23.7037 1.4948 1.2 1 0.00204163 0.0033026 0.000962543 0.00414759 0.00164445 0.00748643 0.00136439 0.0230361 0.00174428 0.00737404 0.00185647 0.0267943 0.0023971 0.0169573 0.00340648 0.0284147 0.00347544 0.0170408 0.00356448 0.0498411
115 2 Si 5.66125 21.0195 1.4948 2.4 1 0.00194367 0.00289265 0.00109728 0.00418939 0.00181437 0.00813332 0.00135621 0.0217941 0.0011174 0.00740396 0.00123988 0.0276358 0.00228352 0.0168609 0.00260706 0.0280324 0.00350372 0.01577 0.00397736 0.0493918
116 3 O 5.72074 22.6328 1.4948 -1.2 1 0.00215079 0.00315992 0.00148328 0.00408356 0.00159588 0.00829497 0.00159429 0.0220954 0.00175112 0.0072299 0.00104546 0.0275056 0.00210867 0.0167764 0.0028188 0.0282603 0.00355417 0.0161988 0.00372075 0.0493852
117 3 O 2.03867 20.0455 1.4948 -1.2 1 0.00159809 0.00349534 0.00111931 0.00441371 0.00186055 0.00778716 0.00191348 0.022177 0.00207365 0.00737463 0.00141951 0.0279886 0.00207732 0.0169258 0.00250946 0.0289502 0.00374098 0.0160226 0.00377238 0.0496459
118 3 O 4.96004 20.3134 0.196716 -1.2 1 0.00193934 0.00268572 0.00116525 0.00429081 0.00094511 0.008335 0.00095599 0.021593 0.00103488 0.00733239 0.00142406 0.0272358 0.00244911 0.0162734 0.0035122 0.0287918 0.00291861 0.0149485 0.00300113 0.048824
119 1 Mg 6.55057 18.996 2.9896 1.2 1 0.00139848 0.00345243 0.00142061 0.00415777 0.00251725 0.00808808 0.00267622 0.0210614 0.00204701 0.00797509 0.00153609 0.0283228 0.00280684 0.0165389 0.00298996 0.0287071 0.00412786 0.016687 0.00456649 0.0486255