ITEM: TIMESTEP
63000
ITEM: NUMBER OF ATOMS
10500
ITEM: BOX BOUNDS xy xz yz pp pp pp
0	15.2977	5.09925
0	118.725	0
0	89.688	0
ITEM: ATOMS id type element xu yu zu q Q_1 Q_2 Q_3 Q_4 Q_5 Q_6 Q_7 Q_8 Q_9 Q_10 Q_11 Q_12 Q_13 Q_14 Q_15 Q_16 Q_17 Q_18 Q_19 Q_20 Q_21
1 1 Mg 6.2404 -6.37941e-06 0 1.2 1 0.000654609 0.00388284 0.0013054 0.00446143 0.00116708 0.00574785 0.00198594 0.0159967 0.00208459 0.00566824 0.00224431 0.0216113 0.00265921 0.0134674 0.00339005 0.0207037 0.00407026 0.0142268 0.00410424 0.0405728
2 1 Mg 3.46349 4.70768 1.4948 1.2 1 0.000489865 0.00311791 0.00129266 0.00420077 0.00184157 0.00606316 0.00355035 0.0183568 0.00286515 0.00681633 0.00265038 0.025435 0.00321441 0.0138177 0.0041435 0.0254589 0.00545902 0.0169337 0.00526213 0.0439037
3 2 Si 5.2885 2.02354 1.4948 2.4 1 0.000453936 0.00321991 0.00194196 0.00442247 0.00167385 0.00578116 0.00244108 0.0169279 0.00232787 0.00597987 0.00184182 0.0230776 0.0028325 0.0135847 0.00351853 0.021921 0.00387182 0.0150476 0.00390591 0.041562
4 3 O 5.33628 3.63678 1.4948 -1.2 1 0.000809566 0.00274045 0.00145426 0.00476205 0.00199328 0.00628153 0.00275793 0.0176475 0.00229047 0.00659778 0.00182586 0.0249231 0.00259813 0.0136882 0.00406354 0.0242976 0.00497601 0.0161856 0.00531083 0.0429935
5 3 O 1.67294 1.04952 1.4948 -1.2 1 0.00109258 0.00319306 0.00204065 0.00402266 0.00122956 0.00589319 0.00243553 0.016747 0.0023665 0.00588509 0.00204388 0.0225872 0.00255443 0.0129453 0.00346371 0.0219192 0.00470716 0.0152754 0.00453535 0.0406822
6 3 O 4.59532 1.31737 0.196716 -1.2 1 0.000375724 0.00291444 0.0020014 0.00410475 0.00168601 0.0056988 0.00236329 0.0169624 0.00272402 0.0061441 0.00191961 0.0221205 0.00326156 0.012911 0.00421532 0.0216588 0.00422735 0.0148846 0.00426346 0.0409658
7 1 Mg 6.18956 -6.37941e-06 2.9896 1.2 1 0.000785714 0.00450376 0.00130907 0.00399204 0.0012052 0.00582302 0.0024207 0.0158405 0.00269102 0.00552899 0.00183895 0.0222653 0.0026378 0.0136693 0.00350343 0.020936 0.00423548 0.014173 0.00458536 0.0394535
8 3 O 4.55118 1.31737 2.79288 -1.2 1 0.000588343 0.0041608 0.00184054 0.00414111 0.00190652 0.00595881 0.00243502 0.0165111 0.00239638 0.00659589 0.0022094 0.0216101 0.00315728 0.0124093 0.00324261 0.0215912 0.00476152 0.0150681 0.00502136 0.040179
9 1 Mg -1.20682 0.0413099 4.4844 1.2 1 0.000785654 0.00264471 0.00176411 0.00430176 0.00147372 0.00580964 0.0020514 0.0156768 0.00221489 0.00562996 0.00203858 0.0226063 0.0030239 0.0115475 0.00338408 0.0207021 0.00536792 0.015168 0.00513132 0.0387696
10 2 Si -3.0337 2.72544 4.4844 2.4 1 0.000732487 0.00304035 0.00156594 0.00492821 0.00205312 0.00607113 0.00292897 0.0164232 0.00316548 0.00591657 0.00213208 0.0236923 0.00294594 0.0126424 0.00383271 0.0225117 0.00539345 0.0171133 0.00614443 0.0397165
11 3 O -3.08099 1.11221 4.4844 -1.2 1 0.00106236 0.00351114 0.00165628 0.00416771 0.00147523 0.00552483 0.00213704 0.0156702 0.00271791 0.00538206 0.00204486 0.0223583 0.00325644 0.011306 0.00346725 0.021483 0.00502879 0.0157746 0.00540529 0.038404
12 3 O 0.582463 3.69946 4.4844 -1.2 1 0.00217442 0.00411036 0.00215749 0.00429293 0.00223019 0.00675474 0.00316493 0.0169441 0.00333628 0.00642097 0.00304516 0.0246336 0.00418225 0.0124891 0.00414789 0.0240581 0.00676307 0.0178739 0.00797741 0.0417286
13 3 O -2.29524 3.43162 3.18632 -1.2 1 0.000888637 0.00275877 0.00240974 0.00452298 0.00210892 0.00588788 0.00276217 0.0177373 0.00317744 0.00670496 0.00257919 0.0243745 0.00321975 0.012989 0.00457789 0.0244404 0.00571048 0.0173722 0.00618366 0.0423812
14 3 O -2.34216 3.43162 5.78248 -1.2 1 0.00202442 0.00318841 0.00122803 0.00477405 0.00239385 0.00614415 0.00305402 0.0164172 0.00288882 0.0068119 0.00270424 0.0235104 0.00390763 0.0119359 0.004033 0.0230698 0.00639506 0.0185436 0.00712095 0.0395366
15 1 Mg 1.12778 2.37449 2.9896 1.2 1 0.00130595 0.00335359 0.00241822 0.00432664 0.00197288 0.00596121 0.00301759 0.0165005 0.00267902 0.00593474 0.00248956 0.0235423 0.00308891 0.0129452 0.00350801 0.0221646 0.00490161 0.0160365 0.00526728 0.0412297
16 1 Mg 3.92855 2.33318 4.4844 1.2 1 0.000904908 0.00393798 0.00125691 0.00421326 0.00170544 0.00562724 0.00334002 0.0163782 0.00314012 0.00585883 0.00289723 0.0229403 0.00360798 0.0130572 0.00488883 0.0220312 0.0062901 0.0163492 0.00652257 0.0401454
17 2 Si 2.09341 4.39804 4.4844 2.4 1 0.00145436 0.00391301 0.00203486 0.00430524 0.00269133 0.00605119 0.00360023 0.0178559 0.00338126 0.00650951 0.0030567 0.0248165 0.00420797 0.0138862 0.00402628 0.0244789 0.0066006 0.0177718 0.00809713 0.0433055
18 3 O 2.09991 6.01128 4.4844 -1.2 1 0.00241677 0.00440767 0.00162203 0.00405318 0.00253213 0.00638455 0.00288423 0.0187996 0.00263797 0.00708742 0.00293113 0.0264218 0.00393431 0.0141934 0.00449648 0.0271928 0.00677708 0.0186951 0.00743147 0.0447355
19 3 O -4.52137 3.42402 4.4844 -1.2 1 0.000573972 0.00355191 0.00212598 0.00461948 0.00194447 0.00701286 0.00339741 0.0167386 0.00302448 0.00591256 0.00316052 0.023441 0.00381606 0.0126624 0.00425136 0.0229563 0.0062463 0.017166 0.00716591 0.0410987
20 3 O 2.80834 3.69187 3.18632 -1.2 1 0.00121814 0.00346548 0.00164456 0.00366102 0.00199899 0.00582113 0.00298783 0.017173 0.00312635 0.00624628 0.0026973 0.0239876 0.00336214 0.0128904 0.00450769 0.0239632 0.00588073 0.0165536 0.00603557 0.0427128
21 1 Mg 1.17857 2.37449 0 1.2 1 0.00108004 0.00338707 0.00183394 0.00398955 0.00127238 0.00554552 0.00239037 0.0170187 0.00257174 0.00644256 0.00265594 0.0227704 0.00280261 0.0134023 0.00358427 0.0217328 0.00434452 0.014856 0.00444461 0.0411114
22 3 O 2.76143 3.69187 5.78248 -1.2 1 0.00173965 0.00412823 0.00159362 0.0040726 0.00193889 0.00547212 0.0025483 0.0169776 0.00318861 0.00662705 0.00277023 0.023141 0.00469038 0.0123489 0.00542149 0.0228311 0.00668117 0.0177182 0.0072024 0.0403801
23 1 Mg -1.67381 2.41581 1.4948 1.2 1 0.000487629 0.00265463 0.00239574 0.00440573 0.00127562 0.00595705 0.00233723 0.0164878 0.00275138 0.00613007 0.00205471 0.0238494 0.00246802 0.0140972 0.00273318 0.0225417 0.00452064 0.0157157 0.00450975 0.0420866
24 2 Si 0.16286 0.350945 1.4948 2.4 1 0.00132276 0.00246876 0.00264099 0.00427306 0.00115465 0.00642769 0.00276983 0.0163562 0.00211816 0.00511529 0.00179658 0.0227805 0.00242837 0.013548 0.0030015 0.0208767 0.00454059 0.0146972 0.00403799 0.0407185
25 3 O 0.15972 -1.26229 1.4948 -1.2 1 0.00107316 0.00260029 0.00290508 0.00422635 0.00157848 0.00608481 0.00239988 0.0162446 0.00211607 0.00531167 0.0024363 0.022497 0.00255108 0.0139595 0.00302145 0.021835 0.00427613 0.0143438 0.00364925 0.0409622
26 3 O 6.77654 1.32496 1.4948 -1.2 1 0.000466738 0.00360971 0.00146339 0.00426775 0.00124767 0.00614253 0.0022242 0.0165855 0.00238075 0.00539293 0.00173277 0.0235689 0.00267585 0.0136398 0.00330671 0.0220267 0.00457371 0.0150143 0.00419393 0.0411193
27 3 O -0.508028 1.05712 0.196716 -1.2 1 0.000805278 0.00258336 0.00328157 0.00392229 0.00121827 0.00554596 0.00239656 0.016815 0.00162318 0.00655355 0.00242892 0.0218014 0.00283135 0.0127957 0.00326554 0.0212268 0.00432764 0.0150737 0.00423376 0.0402004
28 3 O -0.552171 1.05712 2.79288 -1.2 1 0.000677426 0.0020678 0.0028419 0.00424588 0.00120571 0.0062193 0.00230072 0.0159972 0.00248755 0.00603023 0.00166616 0.0226696 0.00281292 0.0117655 0.00351854 0.021841 0.00541907 0.0153944 0.00473342 0.0399785
29 1 Mg 6.31713 4.74899 0 1.2 1 0.000337953 0.00259333 0.00147308 0.00452116 0.00196076 0.00619693 0.00339652 0.0180087 0.00285011 0.00701908 0.00214076 0.0248824 0.00290842 0.0139105 0.00406241 0.0247026 0.00479548 0.0164046 0.00550166 0.0430744
30 1 Mg 3.54847 9.45668 1.4948 1.2 1 0.00149049 0.00356059 0.00173875 0.00475763 0.00202895 0.0074791 0.00306998 0.0210371 0.00165983 0.00843775 0.00222172 0.0280911 0.0030365 0.0156773 0.00345746 0.0291756 0.00434798 0.0182557 0.00368732 0.0480892
31 2 Si 5.36879 6.77254 1.4948 2.4 1 0.00100151 0.0031609 0.0015336 0.00522804 0.00254993 0.00696566 0.00364767 0.0194572 0.00275542 0.00766437 0.00233967 0.0272724 0.00304666 0.0154658 0.00391751 0.0269989 0.00459082 0.0173088 0.00482831 0.0464636
32 3 O 5.41937 8.38578 1.4948 -1.2 1 0.00145265 0.00357317 0.00156794 0.00517327 0.00204581 0.00760575 0.00313734 0.0207002 0.00229504 0.0084275 0.00250154 0.0286301 0.00230351 0.01565 0.00305764 0.0291171 0.00462478 0.0174393 0.00438083 0.0474001
33 3 O 1.75158 5.79852 1.4948 -1.2 1 0.000497206 0.00348005 0.00184229 0.00410793 0.00243091 0.00600584 0.00313409 0.0193359 0.00291638 0.00719473 0.0026038 0.0275117 0.00295586 0.0155162 0.00314839 0.0270132 0.00534438 0.0174985 0.004868 0.0456282
34 3 O 4.67421 6.06637 0.196716 -1.2 1 0.000328603 0.00309625 0.00123135 0.00475141 0.00181902 0.00701308 0.00294122 0.0196378 0.00251926 0.00807611 0.0020238 0.0259054 0.00344021 0.0144243 0.00393508 0.0268243 0.00485615 0.0168187 0.0049323 0.0451444
35 1 Mg 6.26654 4.74899 2.9896 1.2 1 0.000981096 0.00322277 0.00194208 0.00502433 0.00250681 0.00642067 0.00358766 0.0178667 0.00376988 0.00717756 0.00207243 0.0257034 0.00359725 0.0144979 0.0047876 0.025106 0.00576371 0.017371 0.00672909 0.0438277
36 3 O 4.63043 6.06637 2.79288 -1.2 1 0.00164465 0.00336586 0.00182338 0.00513908 0.00218195 0.00669297 0.00331329 0.0192167 0.00330135 0.00780723 0.0022599 0.0259999 0.00386438 0.0145647 0.0044871 0.027203 0.00567485 0.0180637 0.00617243 0.0453631
37 1 Mg -1.12976 4.79031 4.4844 1.2 1 0.0021559 0.00363978 0.001611 0.00475471 0.00236823 0.00623859 0.00324113 0.0176967 0.0036123 0.00700046 0.00297902 0.0254535 0.00381188 0.013904 0.00462741 0.0256231 0.00734155 0.0185248 0.00772683 0.0437986
38 2 Si -2.9517 7.47444 4.4844 2.4 1 0.00217084 0.00409147 0.00118385 0.00532575 0.00273254 0.00635224 0.00359801 0.0201057 0.0030878 0.00779252 0.00264974 0.0270322 0.00431924 0.0155324 0.00494387 0.0278176 0.00668925 0.0188572 0.00721217 0.0468776
39 3 O -3.00198 5.86121 4.4844 -1.2 1 0.0019969 0.00398417 0.000955221 0.00484944 0.00295083 0.00617647 0.00410605 0.0183854 0.00346077 0.00742305 0.00255501 0.0254811 0.00430904 0.0138563 0.00459451 0.0266789 0.00676669 0.0192202 0.00774056 0.0447378
40 3 O 0.666315 8.44846 4.4844 -1.2 1 0.00282231 0.00475022 0.00121497 0.00504538 0.00267075 0.00715145 0.00277332 0.0206795 0.00299641 0.00786553 0.00302424 0.0280512 0.00425515 0.0156699 0.00455065 0.0291541 0.00634287 0.0193571 0.00722895 0.0474086
41 3 O -2.21213 8.18062 3.18632 -1.2 1 0.00242723 0.00428067 0.00128628 0.00470174 0.0024355 0.00608875 0.00274332 0.0205 0.00259176 0.00808846 0.00269287 0.0272908 0.00397973 0.0158746 0.00481962 0.0290733 0.00561273 0.0186879 0.00604341 0.0478797
42 3 O -2.25864 8.18062 5.78248 -1.2 1 0.00298916 0.00436475 0.00140722 0.00466863 0.00282504 0.00589682 0.00301182 0.0202805 0.00261128 0.0082595 0.00297522 0.0266223 0.00434268 0.0160675 0.0050114 0.0289287 0.00713365 0.020374 0.0074454 0.0470724
43 1 Mg 1.20893 7.12349 2.9896 1.2 1 0.00190497 0.00394982 0.00187839 0.00435891 0.00266935 0.00665122 0.00364061 0.0194727 0.0029105 0.00801325 0.00256271 0.0276688 0.0032642 0.0157471 0.00380931 0.0275937 0.00543976 0.0181764 0.00574878 0.0464036
44 1 Mg 4.00982 7.08218 4.4844 1.2 1 0.00188299 0.0039987 0.00162385 0.0050159 0.00243598 0.00625342 0.00366894 0.0195712 0.00323579 0.00759085 0.00299735 0.0271587 0.00430326 0.0163078 0.00561828 0.0281321 0.00696891 0.018873 0.00724284 0.0462617
45 2 Si 2.17861 9.14704 4.4844 2.4 1 0.00281005 0.0041344 0.0013368 0.00498158 0.00265603 0.00719207 0.00324274 0.0207548 0.00265407 0.00802688 0.00266 0.0278431 0.00436109 0.0164841 0.00429718 0.0296147 0.00588701 0.019312 0.00640611 0.0488191
46 3 O 2.18828 10.7603 4.4844 -1.2 1 0.00343536 0.00417742 0.00160529 0.00458046 0.00253779 0.00678332 0.00291297 0.0204341 0.00224242 0.00818004 0.00219631 0.0284081 0.00412627 0.0155992 0.00434013 0.0303917 0.00589577 0.0195279 0.00603258 0.0487898
47 3 O -4.43805 8.17302 4.4844 -1.2 1 0.00158124 0.0043272 0.00149101 0.00542617 0.00243792 0.00747162 0.00310924 0.0202522 0.00306702 0.00809282 0.00317523 0.0280949 0.00462014 0.0156996 0.00481212 0.029231 0.00649096 0.0192618 0.00797807 0.04723
48 3 O 2.89193 8.44087 3.18632 -1.2 1 0.00257424 0.00373777 0.00142069 0.00453795 0.00228088 0.00680662 0.00311731 0.0201936 0.00280152 0.0084563 0.0025522 0.0274131 0.00377101 0.0158118 0.00464748 0.0291254 0.00579044 0.0184771 0.00558246 0.0478512
49 1 Mg 1.25915 7.12349 0 1.2 1 0.000455549 0.0033947 0.00118424 0.00422031 0.00180091 0.00732518 0.00276029 0.0200059 0.00295914 0.00810377 0.00256739 0.0272001 0.00332349 0.0145419 0.00356925 0.0277661 0.00464489 0.0176061 0.00424513 0.0460917
50 3 O 2.84547 8.44087 5.78248 -1.2 1 0.00247492 0.00432725 0.00167904 0.00487876 0.00248719 0.00634133 0.00310536 0.0204999 0.00306723 0.00848498 0.00355959 0.0265751 0.00537334 0.0160061 0.00579074 0.0294052 0.00625126 0.0203261 0.00705164 0.0473867
51 1 Mg -1.59284 7.16481 1.4948 1.2 1 0.000809564 0.00351121 0.00152401 0.00457471 0.00163431 0.00634695 0.00275508 0.0198263 0.00296065 0.00776047 0.00182362 0.0272922 0.00329662 0.0155098 0.00355396 0.0273736 0.00439431 0.0176197 0.00508174 0.0464945
52 2 Si 0.240329 5.09994 1.4948 2.4 1 0.000522139 0.00373614 0.00200218 0.0040197 0.00186581 0.00682184 0.00295471 0.018793 0.00321638 0.0071554 0.00223683 0.0256143 0.00274219 0.0145751 0.00381563 0.0250295 0.00506878 0.0167935 0.00457125 0.0448178
53 3 O 0.234538 3.48671 1.4948 -1.2 1 0.000956084 0.00350026 0.00245161 0.00406839 0.00175022 0.00653144 0.00257673 0.0177609 0.00341353 0.00675349 0.00233561 0.0242547 0.00313048 0.0137147 0.00383379 0.0241737 0.00546449 0.0158525 0.00495925 0.0428457
54 3 O 6.85564 6.07396 1.4948 -1.2 1 0.000929355 0.00294357 0.00194386 0.00501806 0.00224224 0.00607166 0.00302933 0.0197744 0.00322002 0.00751686 0.00203468 0.0273595 0.00316863 0.0147798 0.00451476 0.0270037 0.00536037 0.0176054 0.00574137 0.0454323
55 3 O -0.429565 5.80612 0.196716 -1.2 1 0.000319534 0.00325874 0.0023717 0.00406807 0.00173913 0.00720198 0.00275026 0.0192996 0.00291815 0.00820854 0.00248366 0.0253617 0.00266677 0.0142545 0.0037081 0.0260847 0.0051872 0.0169887 0.00526601 0.0452728
56 3 O -0.473377 5.80612 2.79288 -1.2 1 0.00193347 0.0035276 0.00172172 0.00438639 0.00219102 0.00660117 0.00311247 0.019055 0.00303964 0.00784067 0.00287222 0.0256975 0.00343808 0.0144548 0.00439077 0.0264366 0.00627103 0.0181614 0.00648101 0.0456004
57 1 Mg 6.40169 9.49799 0 1.2 1 0.000361009 0.00418026 0.00156507 0.00461619 0.00140112 0.00832848 0.00188001 0.0207617 0.00170758 0.00879503 0.00180785 0.0284351 0.0023598 0.0148747 0.00264498 0.0295793 0.00371806 0.0179709 0.00364921 0.0472851
58 1 Mg 3.64209 14.2057 1.4948 1.2 1 0.00177939 0.00300305 0.00143159 0.00430785 0.00181295 0.00845119 0.00178765 0.0214517 0.00158182 0.00869028 0.00216569 0.0280353 0.0024687 0.0161189 0.00268294 0.0294914 0.00339506 0.0168988 0.00340694 0.0484125
59 2 Si 5.45748 11.5215 1.4948 2.4 1 0.00205686 0.0035975 0.00159886 0.00460707 0.00159775 0.00811095 0.00210877 0.0208196 0.00153218 0.00820032 0.00176248 0.0283961 0.00245554 0.016157 0.003332 0.0292448 0.00398906 0.0170047 0.00354115 0.0483904
60 3 O 5.51101 13.1348 1.4948 -1.2 1 0.00188186 0.0033692 0.00162222 0.00477317 0.00155821 0.00896467 0.00174867 0.0208989 0.0017968 0.00847271 0.00170336 0.0290446 0.00226494 0.0161141 0.00281761 0.0298441 0.00358685 0.0166016 0.00341515 0.0482187
61 3 O 1.83851 10.5475 1.4948 -1.2 1 0.00142474 0.00367503 0.00178956 0.00491555 0.00170539 0.00759127 0.00238254 0.0212548 0.00196158 0.0083886 0.00223519 0.0289303 0.00265656 0.0159825 0.00315118 0.0299768 0.00409247 0.0178239 0.00323423 0.0485088
62 3 O 4.7611 10.8154 0.196716 -1.2 1 0.000512034 0.00325768 0.001868 0.00474848 0.00159013 0.00849265 0.0022285 0.0210555 0.00141236 0.00848502 0.00182518 0.0279366 0.00261049 0.0155676 0.00353718 0.0294615 0.00369946 0.017142 0.00336502 0.0479585
63 1 Mg 6.35203 9.49799 2.9896 1.2 1 0.00183506 0.00394568 0.00135029 0.00503995 0.00243688 0.00730267 0.00308623 0.020226 0.00308495 0.00865807 0.0021657 0.0287159 0.00352963 0.0161414 0.00331199 0.0292272 0.00428781 0.0183564 0.00499513 0.0478315
64 3 O 4.71833 10.8154 2.79288 -1.2 1 0.0030008 0.0035012 0.00163996 0.00453621 0.0021932 0.00787221 0.00228243 0.0210193 0.00202739 0.00899799 0.00210844 0.0279765 0.00325643 0.0159195 0.00394536 0.0301906 0.00503031 0.0181967 0.00514067 0.0488255
65 1 Mg -1.0438 9.53931 4.4844 1.2 1 0.00326509 0.00456554 0.00135738 0.00472047 0.00281586 0.00634815 0.00249364 0.0205276 0.00268228 0.00827507 0.00266741 0.0278515 0.00380405 0.0166099 0.00460524 0.0299688 0.0062611 0.0195369 0.00651343 0.0484148
66 2 Si -2.8604 12.2234 4.4844 2.4 1 0.00329376 0.00395303 0.00138855 0.00438173 0.00253213 0.00718799 0.00306614 0.0211843 0.00277594 0.00856498 0.00232828 0.0276207 0.0039515 0.0165036 0.00402041 0.0299759 0.00533421 0.0189914 0.00614401 0.049135
67 3 O -2.91391 10.6102 4.4844 -1.2 1 0.00326144 0.00434462 0.00129587 0.00468767 0.00263013 0.00687983 0.00299185 0.0202154 0.00267936 0.00777453 0.00192589 0.0281478 0.00407915 0.0159754 0.00412001 0.0304302 0.00563964 0.0195269 0.00647266 0.0487835
68 3 O 0.7596 13.1975 4.4844 -1.2 1 0.00320652 0.00362622 0.00159709 0.0046391 0.0027708 0.00814994 0.00249003 0.021723 0.0027723 0.00827345 0.00288203 0.0282472 0.00397905 0.0163723 0.00444382 0.0298964 0.00567409 0.0190336 0.00647236 0.0490105
69 3 O -2.12001 12.9296 3.18632 -1.2 1 0.00330681 0.00378582 0.00142251 0.00409193 0.00231068 0.00732043 0.00220478 0.0215132 0.00246559 0.00832306 0.00225121 0.0275508 0.00362899 0.0161452 0.0046706 0.0304239 0.00505072 0.0183562 0.00509332 0.049363
70 3 O -2.16532 12.9296 5.78248 -1.2 1 0.00342213 0.00387309 0.00135125 0.00420296 0.00260444 0.0062206 0.0022687 0.0210277 0.00245525 0.00830461 0.00282131 0.0266383 0.00397427 0.016548 0.00459174 0.0307412 0.00562583 0.0203378 0.00609856 0.0489537
71 1 Mg 1.29891 11.8725 2.9896 1.2 1 0.00274804 0.00339264 0.00187884 0.00476392 0.00225928 0.00774397 0.00266531 0.0208289 0.00249614 0.00851452 0.00212558 0.0286638 0.00318499 0.0162647 0.00345841 0.0299383 0.00457273 0.0176723 0.00486742 0.0485701
72 1 Mg 4.10033 11.8312 4.4844 1.2 1 0.00346191 0.00368341 0.00167686 0.00431367 0.00249713 0.00704848 0.00236166 0.0208947 0.00244857 0.00821842 0.00264367 0.0285589 0.00369529 0.0172473 0.0049319 0.0302071 0.00628928 0.0189683 0.00596847 0.0491466
73 2 Si 2.27333 13.896 4.4844 2.4 1 0.0033542 0.00294921 0.00148989 0.00459015 0.00281152 0.0075052 0.0030505 0.0215171 0.00233438 0.00815739 0.00279556 0.0276841 0.00376842 0.0166906 0.00430976 0.0296521 0.00514761 0.0185029 0.005806 0.0496273
74 3 O 2.28634 15.5093 4.4844 -1.2 1 0.00358611 0.00310977 0.0015614 0.00402462 0.00276372 0.0069452 0.0028577 0.0205933 0.00241424 0.00750503 0.00231932 0.0281145 0.00347794 0.0159355 0.0041649 0.0302825 0.00550141 0.0183862 0.00604947 0.0488735
75 3 O -4.34533 12.922 4.4844 -1.2 1 0.00343635 0.00398133 0.00160955 0.00443898 0.00271246 0.00791019 0.00273874 0.0211988 0.002788 0.008555 0.00240874 0.027941 0.003754 0.0161372 0.00439765 0.0303303 0.00614895 0.019432 0.00648813 0.0485698
76 3 O 2.98455 13.1899 3.18632 -1.2 1 0.00314382 0.00317433 0.00163354 0.00406939 0.00254982 0.00765202 0.00213009 0.0215651 0.00211125 0.0084161 0.00219845 0.0276894 0.00332749 0.0160848 0.00422728 0.0300137 0.00544004 0.018014 0.00534293 0.0490371
77 1 Mg 1.34779 11.8725 0 1.2 1 0.000507717 0.00301703 0.00113187 0.00455717 0.00127889 0.00885973 0.00139928 0.0208706 0.00132903 0.00892283 0.00189864 0.0287097 0.00262456 0.01477 0.00289499 0.0298761 0.00311809 0.0171471 0.00331334 0.0474755
78 3 O 2.93934 13.1899 5.78248 -1.2 1 0.00317168 0.00352254 0.00142097 0.00435726 0.00262283 0.00666824 0.00232778 0.0209158 0.00235142 0.00822415 0.00288749 0.0269323 0.00401152 0.0163847 0.00453338 0.0304879 0.00551207 0.0209504 0.00596027 0.048816
79 1 Mg -1.50344 11.9138 1.4948 1.2 1 0.00141337 0.00383009 0.00154354 0.00449953 0.00152756 0.00816925 0.00181607 0.0214445 0.0022909 0.00831514 0.00168519 0.0283003 0.00348812 0.016067 0.00352848 0.0297317 0.00339989 0.0174176 0.00355249 0.0483853
80 2 Si 0.326006 9.84894 1.4948 2.4 1 0.00082985 0.00365959 0.0013064 0.00484653 0.00185372 0.0080463 0.00197323 0.0209054 0.00229028 0.00834278 0.00166156 0.0281464 0.00289345 0.0158 0.00363453 0.028976 0.00373209 0.0176563 0.00317672 0.0481057
81 3 O 0.317364 8.23571 1.4948 -1.2 1 0.00118902 0.00379432 0.00123114 0.00445714 0.00180298 0.00763388 0.00204153 0.0201494 0.00266537 0.00797854 0.00190584 0.028295 0.00337324 0.0159756 0.00374398 0.0287932 0.00432693 0.017733 0.00389048 0.0473932
82 3 O 6.94307 10.823 1.4948 -1.2 1 0.00153417 0.00399098 0.0014748 0.00457437 0.0016516 0.00759015 0.0024851 0.021501 0.00239621 0.00839763 0.00148954 0.0290267 0.00275263 0.0158638 0.0032229 0.0300092 0.00368459 0.0178101 0.00390548 0.0485154
83 3 O -0.343122 10.5551 0.196716 -1.2 1 0.000619343 0.00356185 0.00114785 0.00463856 0.00152336 0.00842722 0.00180585 0.0208844 0.0016923 0.00863408 0.00204674 0.0277918 0.00315133 0.0154037 0.00387912 0.029364 0.00338141 0.0173101 0.00332179 0.0479957
84 3 O -0.385966 10.5551 2.79288 -1.2 1 0.00280068 0.0041603 0.00116294 0.00459191 0.00232836 0.00769701 0.00207466 0.0211566 0.0019457 0.0089018 0.00243836 0.0273477 0.00382041 0.0159423 0.004279 0.0300913 0.00501289 0.0184899 0.00466875 0.0488053
85 1 Mg 6.49448 14.247 0 1.2 1 0.000679476 0.00342868 0.00150488 0.00480568 0.00105551 0.00920941 0.000955303 0.0210701 0.00135463 0.00835001 0.00155074 0.0286408 0.00184618 0.0152966 0.00260763 0.0297444 0.00325064 0.0163501 0.00284307 0.0474282
86 1 Mg 3.74457 18.9547 1.4948 1.2 1 0.00180011 0.00285418 0.00101753 0.00382614 0.00188723 0.00832561 0.00142984 0.0222412 0.0017167 0.00799167 0.00252156 0.027703 0.00251894 0.016506 0.00336442 0.0287164 0.00339317 0.0163893 0.00333592 0.0489039
87 2 Si 5.55495 16.2705 1.4948 2.4 1 0.00217538 0.00286247 0.00124288 0.0044264 0.00185752 0.00867835 0.00150767 0.0212541 0.00129573 0.00772989 0.00126798 0.0284921 0.00229958 0.0161803 0.00278737 0.028846 0.00350395 0.015744 0.00347309 0.0484854
88 3 O 5.6115 17.8838 1.4948 -1.2 1 0.00208065 0.00284493 0.0014854 0.00405164 0.00176409 0.0089287 0.00146116 0.0216797 0.00188956 0.00772619 0.00173358 0.0287565 0.00196595 0.0163111 0.00264746 0.028859 0.00316465 0.01578 0.00325933 0.0485485
89 3 O 1.93416 15.2965 1.4948 -1.2 1 0.00222664 0.0027756 0.00135269 0.00428169 0.00170293 0.00805868 0.00182802 0.0218845 0.00192822 0.00802494 0.00161387 0.0288422 0.00202053 0.0160089 0.00275477 0.0294722 0.00354844 0.0164134 0.00327939 0.04888
90 3 O 4.85636 15.5644 0.196716 -1.2 1 0.00111038 0.00264133 0.0011741 0.00467374 0.00140473 0.00905617 0.0014308 0.0211837 0.000918693 0.00802375 0.00171169 0.0279809 0.00258134 0.0159089 0.00339211 0.029234 0.00328486 0.0157884 0.00300543 0.0481798
91 1 Mg 6.44662 14.247 2.9896 1.2 1 0.00230524 0.00354115 0.00123283 0.00444897 0.00232773 0.00821218 0.00277594 0.0205593 0.00268074 0.00850537 0.00173404 0.0288393 0.00299981 0.016375 0.0030627 0.0296739 0.00381298 0.0175056 0.00440222 0.0484288
92 3 O 4.81537 15.5644 2.79288 -1.2 1 0.00289133 0.00289757 0.00123207 0.00410868 0.00225764 0.00845412 0.00170495 0.0217725 0.00172192 0.0084147 0.00189904 0.0276446 0.00282008 0.0163908 0.0034458 0.0293677 0.00467092 0.0171661 0.00473437 0.0488166
93 1 Mg -0.948271 14.2883 4.4844 1.2 1 0.00326166 0.0033307 0.00135699 0.00406886 0.00270372 0.00723918 0.0026055 0.0209484 0.00269463 0.00833113 0.00284276 0.0276803 0.00361034 0.0168121 0.00501353 0.0300925 0.00560168 0.0185543 0.00602004 0.048965
94 2 Si -2.75928 16.9724 4.4844 2.4 1 0.00334447 0.00319115 0.00143689 0.00383135 0.00257863 0.00748053 0.00278569 0.0216282 0.00276876 0.00758628 0.00260993 0.0276257 0.00363829 0.0166057 0.00445051 0.0292763 0.00487812 0.0179818 0.00553226 0.0495744
95 3 O -2.81617 15.3592 4.4844 -1.2 1 0.0034871 0.00331649 0.00139523 0.00373423 0.00275971 0.00700802 0.00279202 0.020589 0.00261425 0.00784426 0.00240122 0.0280936 0.00378641 0.0158503 0.00403938 0.030101 0.00573383 0.0180311 0.00618289 0.0486199
96 3 O 0.862762 17.9465 4.4844 -1.2 1 0.00290704 0.00295284 0.00134053 0.00393897 0.00287622 0.00809084 0.00236569 0.0219292 0.00237541 0.00770041 0.00252899 0.02803 0.00374708 0.0165032 0.00402111 0.028692 0.00567471 0.0182396 0.00578064 0.0487809
97 3 O -2.0185 17.6786 3.18632 -1.2 1 0.00318605 0.00292757 0.00137813 0.003541 0.00252706 0.00746691 0.0022311 0.0219197 0.00232352 0.00771198 0.00226818 0.0271189 0.00347568 0.0162683 0.00430055 0.0295153 0.00471348 0.0174414 0.00483165 0.0494802
98 3 O -2.06164 17.6786 5.78248 -1.2 1 0.00315753 0.00324922 0.00124481 0.0037065 0.00271171 0.00637957 0.00230724 0.0214234 0.00233403 0.00774621 0.0025543 0.0270652 0.0034306 0.0170635 0.00433995 0.0297644 0.00555044 0.0195055 0.00610472 0.0487027
99 1 Mg 1.39817 16.6215 2.9896 1.2 1 0.00268068 0.00255558 0.00148932 0.00400314 0.00232379 0.00794787 0.00243379 0.0210884 0.00261738 0.00795636 0.00229936 0.0285707 0.00280097 0.0165668 0.00317117 0.0290946 0.00391939 0.0162764 0.00441833 0.0484914
100 1 Mg 4.20062 16.5802 4.4844 1.2 1 0.00330415 0.00261715 0.00177437 0.00369671 0.00266101 0.00734687 0.00241227 0.0211408 0.00290935 0.00754583 0.0029347 0.0280401 0.00363546 0.0174458 0.00513498 0.0291295 0.00622025 0.0177411 0.0059076 0.0490556
101 2 Si 2.37796 18.645 4.4844 2.4 1 0.00258897 0.00243864 0.00139584 0.00385694 0.00284579 0.00746692 0.00273626 0.0221392 0.00257076 0.00769067 0.0027378 0.0271932 0.00351871 0.0171171 0.00413003 0.028606 0.00512971 0.0177306 0.00538737 0.0497967
102 3 O 2.39434 20.2583 4.4844 -1.2 1 0.00275278 0.00285222 0.00125167 0.00388826 0.0027942 0.00655605 0.00258882 0.0210802 0.00291458 0.00700197 0.00214063 0.027677 0.00315363 0.0163513 0.00370393 0.0291721 0.00546365 0.017808 0.00620895 0.049169
103 3 O -4.24274 17.671 4.4844 -1.2 1 0.00296148 0.0030972 0.0015957 0.00391206 0.00250027 0.00806323 0.00273905 0.021772 0.00297407 0.00779113 0.0024203 0.0280541 0.00359428 0.0166414 0.00455598 0.0293926 0.00574267 0.0183 0.00573793 0.0487359
104 3 O 3.08659 17.9389 3.18632 -1.2 1 0.00303856 0.00236237 0.00148098 0.00352513 0.00258288 0.00753137 0.00203737 0.0219883 0.00220495 0.00778949 0.00224309 0.0273288 0.00328374 0.0165072 0.00399116 0.029042 0.00517066 0.0171856 0.00516881 0.0493088
105 1 Mg 1.44478 16.6215 0 1.2 1 0.00141443 0.0025569 0.00106947 0.00436434 0.00116594 0.00879579 0.00100474 0.02145 0.00132564 0.00809241 0.00135774 0.0285963 0.00242723 0.0155791 0.00225295 0.02921 0.00282138 0.0158355 0.00309686 0.0480009
106 3 O 3.0436 17.9389 5.78248 -1.2 1 0.00317319 0.00297134 0.0014478 0.00383414 0.00271981 0.00641098 0.00236571 0.0212466 0.00226151 0.00741853 0.00257079 0.0267487 0.00373501 0.0162474 0.00454929 0.0297895 0.00581192 0.0198811 0.00567169 0.0491096
107 1 Mg -1.40524 16.6628 1.4948 1.2 1 0.00169043 0.00303079 0.00122892 0.00455859 0.00192238 0.00870237 0.00209135 0.0221354 0.00180949 0.00813164 0.00186439 0.0281017 0.00313593 0.0165778 0.00299004 0.0293196 0.00299525 0.0164113 0.00312007 0.048541
108 2 Si 0.420358 14.5979 1.4948 2.4 1 0.00185184 0.00285576 0.00134726 0.00477913 0.00191448 0.00889397 0.00171304 0.0212362 0.00166249 0.0081312 0.00161528 0.028297 0.00295086 0.0162206 0.00353791 0.0287976 0.00358369 0.0162513 0.00326305 0.0483969
109 3 O 0.408732 12.9847 1.4948 -1.2 1 0.00178756 0.00319612 0.00123698 0.00482964 0.00186852 0.00900869 0.00150877 0.0208306 0.00216617 0.00826163 0.00167287 0.0287234 0.00298376 0.0158796 0.0031215 0.0298076 0.00332415 0.0167965 0.00358943 0.0484214
110 3 O 7.03923 15.572 1.4948 -1.2 1 0.00194377 0.00317164 0.00120599 0.00455975 0.00189478 0.00821602 0.00217327 0.0216509 0.00227238 0.00786311 0.00170678 0.0290218 0.00251099 0.0164154 0.00276194 0.0295213 0.00344403 0.0166031 0.0037188 0.0486308
111 3 O -0.248332 15.3041 0.196716 -1.2 1 0.00114244 0.00272383 0.00119684 0.00462209 0.00115801 0.00900253 0.00185812 0.0211589 0.00117631 0.0081712 0.0017178 0.0280147 0.00318599 0.015768 0.00393328 0.0291732 0.00291688 0.015868 0.00300647 0.0480911
112 3 O -0.289436 15.3041 2.79288 -1.2 1 0.00343847 0.00311182 0.00121007 0.00413094 0.00249713 0.00838907 0.00192628 0.0218109 0.00182811 0.00844817 0.00204431 0.0272384 0.00310515 0.0163299 0.00353286 0.0295417 0.00432504 0.0173735 0.00452501 0.0489135
113 1 Mg 6.59566 18.996 0 1.2 1 0.000780717 0.00284223 0.00137355 0.00430022 0.000915526 0.00846375 0.000938158 0.0220042 0.00126477 0.00761506 0.00138349 0.0283016 0.00215579 0.0161401 0.00224793 0.0286285 0.00274769 0.0159013 0.00286267 0.0477974
114 1 Mg 3.85574 23.7037 1.4948 1.2 1 0.00209737 0.0023719 0.00092718 0.00427147 0.00169759 0.00748032 0.00140109 0.0231383 0.00154179 0.00738083 0.00235656 0.0275701 0.0025478 0.0175398 0.00358434 0.0285223 0.00318982 0.0174459 0.00337592 0.0494756
115 2 Si 5.66125 21.0195 1.4948 2.4 1 0.00209565 0.00243425 0.000884993 0.0041229 0.00185944 0.00802638 0.00155163 0.0218923 0.00123092 0.00739093 0.00152245 0.0282336 0.00251742 0.0171721 0.00266256 0.028194 0.0033588 0.0159752 0.00392097 0.0490983
116 3 O 5.72074 22.6328 1.4948 -1.2 1 0.00247789 0.00230306 0.00135023 0.00408627 0.00166316 0.00808561 0.00148429 0.0222529 0.00178136 0.0071838 0.00151702 0.028169 0.00215024 0.0172197 0.00283697 0.0284435 0.00313848 0.0166078 0.00369042 0.0489577
117 3 O 2.03867 20.0455 1.4948 -1.2 1 0.00179797 0.00276082 0.00126762 0.00415118 0.0016941 0.00763771 0.00184267 0.022322 0.00210362 0.00736647 0.00151855 0.0284527 0.00220708 0.0169313 0.00242626 0.0288757 0.00348192 0.0162139 0.0035558 0.049216
118 3 O 4.96004 20.3134 0.196716 -1.2 1 0.00127118 0.00225923 0.00101468 0.0041418 0.0011176 0.00812614 0.00117552 0.0218261 0.000964689 0.00736045 0.00163145 0.0279171 0.00263729 0.0165185 0.0036655 0.0287325 0.002804 0.0153143 0.00276747 0.0485936
119 1 Mg 6.55057 18.996 2.9896 1.2 1 0.00213528 0.00300383 0.0010645 0.00388798 0.00252754 0.00806972 0.00274439 0.0211105 0.00253843 0.00772037 0.00178374 0.0286313 0.00302194 0.0168293 0.00279978 0.0286402 0.00380947 0.0167573 0.00436995 0.0488834