ITEM: TIMESTEP
16900
ITEM: NUMBER OF ATOMS
10500
ITEM: BOX BOUNDS xy xz yz pp pp pp
0	15.2977	5.09925
0	118.725	0
0	89.688	0
ITEM: ATOMS id type element xu yu zu q Q_1 Q_2 Q_3 Q_4 Q_5 Q_6 Q_7 Q_8 Q_9 Q_10 Q_11 Q_12 Q_13 Q_14 Q_15 Q_16 Q_17 Q_18 Q_19 Q_20 Q_21
1 1 Mg 6.2404 -6.37941e-06 0 1.2 1 0.00145831 0.00432447 0.00131721 0.00493284 0.00120444 0.00558836 0.00211852 0.016134 0.00228872 0.00576377 0.00228826 0.0219009 0.00260741 0.0135306 0.00342005 0.0206413 0.00425898 0.0141153 0.00413677 0.0405079
2 1 Mg 3.46349 4.70768 1.4948 1.2 1 0.00120396 0.00344854 0.00167096 0.00456835 0.00191358 0.00615033 0.00357861 0.0186063 0.00284653 0.00702402 0.00289813 0.0257474 0.0030977 0.013976 0.00428333 0.0252739 0.00546308 0.0171141 0.00585146 0.0435857
3 2 Si 5.2885 2.02354 1.4948 2.4 1 0.000757413 0.00351607 0.00221842 0.00470884 0.00173645 0.00570168 0.00254563 0.0169895 0.00260924 0.00620617 0.00211756 0.023339 0.00279367 0.0134951 0.0035463 0.0215577 0.00411258 0.0153138 0.00450463 0.0410642
4 3 O 5.33628 3.63678 1.4948 -1.2 1 0.000646121 0.00290523 0.00170666 0.00489905 0.00201006 0.0062888 0.00296509 0.017736 0.00231083 0.00685182 0.00190317 0.0251248 0.00248042 0.0137414 0.00414652 0.0239978 0.00521389 0.0164508 0.00593959 0.0425506
5 3 O 1.67294 1.04952 1.4948 -1.2 1 0.00162195 0.00344844 0.00206515 0.00435092 0.00126791 0.00578222 0.00247561 0.0168397 0.00241039 0.00614486 0.00213245 0.0227316 0.00265771 0.0128441 0.00335826 0.0217346 0.00485429 0.0155262 0.00492995 0.0400807
6 3 O 4.59532 1.31737 0.196716 -1.2 1 0.00123809 0.00306362 0.00207933 0.00450352 0.00184482 0.00573307 0.00239741 0.0171077 0.00288444 0.00630015 0.00201955 0.0224078 0.00318324 0.0129021 0.00421418 0.02149 0.00434784 0.0148625 0.00467599 0.0407653
7 1 Mg 6.18956 -6.37941e-06 2.9896 1.2 1 0.000725304 0.0047713 0.00152694 0.00452692 0.00140268 0.00579086 0.0024082 0.0161513 0.00282926 0.00567961 0.00200827 0.0225116 0.00272292 0.0132296 0.00359295 0.0204238 0.00470779 0.0147288 0.0050729 0.038985
8 3 O 4.55118 1.31737 2.79288 -1.2 1 0.00101951 0.00466773 0.00215826 0.00440408 0.00177384 0.00576463 0.00249105 0.0168666 0.0026013 0.0070013 0.00232877 0.0217812 0.00329397 0.0122613 0.00335375 0.0215571 0.00509363 0.0153742 0.00551975 0.0398964
9 1 Mg -1.20682 0.0413099 4.4844 1.2 1 0.000679414 0.00317748 0.00171399 0.00488724 0.00126919 0.00544374 0.00188927 0.0162839 0.00237686 0.00600144 0.00219251 0.023027 0.00323995 0.011536 0.00353682 0.0206691 0.00549989 0.0154749 0.00549538 0.0386855
10 2 Si -3.0337 2.72544 4.4844 2.4 1 0.00077607 0.00371772 0.00178047 0.00500772 0.00226983 0.00625086 0.00331899 0.0167667 0.00329045 0.00637661 0.00235989 0.0240169 0.00332426 0.0129523 0.00401965 0.0222325 0.00572089 0.017576 0.00654035 0.0393348
11 3 O -3.08099 1.11221 4.4844 -1.2 1 0.000915684 0.00416316 0.00173124 0.00458108 0.00131426 0.00546894 0.00232078 0.0162287 0.00294336 0.00576742 0.0023408 0.022465 0.00340409 0.0113008 0.00349719 0.0212231 0.00530948 0.0160394 0.00583203 0.038292
12 3 O 0.582463 3.69946 4.4844 -1.2 1 0.00199811 0.00476618 0.00207809 0.00467178 0.00257673 0.0066729 0.00365146 0.0173778 0.00347402 0.00679663 0.00320662 0.0247147 0.00418856 0.0130581 0.00435224 0.0241767 0.00701953 0.0184925 0.008637 0.0414866
13 3 O -2.29524 3.43162 3.18632 -1.2 1 0.000856377 0.00308792 0.00256345 0.00482154 0.00217696 0.00599636 0.00297665 0.0178353 0.00341305 0.00689361 0.00269026 0.0244832 0.00324126 0.0130389 0.00456143 0.0240383 0.00616447 0.0179791 0.00692764 0.0415429
14 3 O -2.34216 3.43162 5.78248 -1.2 1 0.00210614 0.00424566 0.00137292 0.00507028 0.00268111 0.00601561 0.00329301 0.0171513 0.00289404 0.00749606 0.00278095 0.0234066 0.00451881 0.0126369 0.0041704 0.0233152 0.00657442 0.0193067 0.00766572 0.04006
15 1 Mg 1.12778 2.37449 2.9896 1.2 1 0.00159848 0.00390425 0.00214884 0.00456695 0.00203597 0.00597889 0.00304768 0.016655 0.00271352 0.00625379 0.00248897 0.0235127 0.00323841 0.0129893 0.00329947 0.0218805 0.00504703 0.0163373 0.00587707 0.0405366
16 1 Mg 3.92855 2.33318 4.4844 1.2 1 0.00115733 0.00471061 0.00145005 0.00443789 0.00172786 0.00558734 0.00355092 0.0168457 0.00324935 0.00642737 0.00315834 0.0230109 0.00375946 0.0135523 0.00507819 0.0218342 0.00642458 0.0170071 0.00736704 0.0400349
17 2 Si 2.09341 4.39804 4.4844 2.4 1 0.00152884 0.00455482 0.00195497 0.00425774 0.00300676 0.00591471 0.00385389 0.0181241 0.00358874 0.00704055 0.00339827 0.0246699 0.00446317 0.0141728 0.00451699 0.0246115 0.00683984 0.018533 0.00889453 0.0429843
18 3 O 2.09991 6.01128 4.4844 -1.2 1 0.00241939 0.0047864 0.00159049 0.00413343 0.00300088 0.00649293 0.00335292 0.019066 0.00284351 0.00755221 0.00314055 0.0264466 0.00404632 0.0144851 0.00483349 0.0273102 0.00689074 0.0195194 0.0084822 0.0449158
19 3 O -4.52137 3.42402 4.4844 -1.2 1 0.0010294 0.00407458 0.00217715 0.00476397 0.00230594 0.00710547 0.00352256 0.0170281 0.00349882 0.00666962 0.00322171 0.0235242 0.00399155 0.0129256 0.0043437 0.0228634 0.00646981 0.0177562 0.00802199 0.0409081
20 3 O 2.80834 3.69187 3.18632 -1.2 1 0.00130293 0.0039515 0.00168612 0.00391089 0.00195304 0.00577211 0.00312528 0.0173542 0.0030095 0.00661685 0.00290574 0.0241386 0.00351188 0.0131711 0.00463638 0.0238409 0.00578574 0.0169498 0.00685491 0.0422589
21 1 Mg 1.17857 2.37449 0 1.2 1 0.00204076 0.00360076 0.00218482 0.00429634 0.00136796 0.00556168 0.00254854 0.0171369 0.00247256 0.00671127 0.00279286 0.0233345 0.00277556 0.0132726 0.00340936 0.021767 0.00444135 0.014953 0.00479933 0.0407369
22 3 O 2.76143 3.69187 5.78248 -1.2 1 0.0019662 0.00457005 0.00167931 0.00448815 0.00226796 0.00549253 0.00285864 0.0176006 0.00329322 0.00763639 0.00306333 0.0234182 0.00451585 0.0131858 0.00531222 0.0232032 0.00653184 0.0187142 0.00763763 0.0408534
23 1 Mg -1.67381 2.41581 1.4948 1.2 1 0.00122714 0.00270456 0.00263844 0.00497743 0.00138999 0.00602137 0.00234973 0.0166492 0.00284207 0.0064724 0.00193161 0.0242171 0.00240346 0.014224 0.00282773 0.0221781 0.00460697 0.0160705 0.00495148 0.0414919
24 2 Si 0.16286 0.350945 1.4948 2.4 1 0.00187063 0.00271927 0.00273817 0.00463247 0.00119866 0.00637828 0.00266424 0.0164594 0.00225378 0.00542412 0.0020658 0.0230002 0.00244972 0.0134754 0.00305305 0.0206004 0.00481991 0.0147529 0.00444097 0.0402333
25 3 O 0.15972 -1.26229 1.4948 -1.2 1 0.00201856 0.00274687 0.00293694 0.00457584 0.00181662 0.00603524 0.00245405 0.016416 0.00236557 0.00560236 0.00251747 0.0227612 0.00270435 0.0137062 0.0029065 0.0215597 0.00444428 0.0145498 0.004058 0.0406796
26 3 O 6.77654 1.32496 1.4948 -1.2 1 0.00109762 0.00400911 0.00174344 0.00477088 0.00124101 0.0060136 0.00230795 0.0167299 0.00269561 0.00553391 0.00179051 0.0237377 0.00270113 0.013558 0.00347221 0.0217207 0.00482539 0.0152904 0.00456377 0.040669
27 3 O -0.508028 1.05712 0.196716 -1.2 1 0.0017385 0.00290987 0.00330861 0.00438776 0.00131501 0.00567474 0.00237365 0.0169878 0.00185438 0.00675401 0.00262842 0.0221455 0.00277845 0.0129252 0.00314162 0.0211101 0.00442283 0.0151 0.00446846 0.0399702
28 3 O -0.552171 1.05712 2.79288 -1.2 1 0.000998272 0.00261519 0.00288574 0.00470998 0.00141096 0.00617695 0.00229898 0.016248 0.0025793 0.00625118 0.001959 0.0228832 0.00300495 0.0118075 0.00359365 0.0215112 0.00558088 0.0157296 0.00524798 0.0396049
29 1 Mg 6.31713 4.74899 0 1.2 1 0.000761448 0.00250815 0.00192022 0.00489953 0.00215243 0.00624728 0.0033945 0.018002 0.0028908 0.00715833 0.00211643 0.0253087 0.0026963 0.0137709 0.00411149 0.0246603 0.00488046 0.0164304 0.0060018 0.0426997
30 1 Mg 3.54847 9.45668 1.4948 1.2 1 0.00130084 0.00319931 0.00166924 0.0047068 0.00204551 0.00781269 0.00302213 0.0213744 0.00182373 0.00849471 0.00240169 0.0286952 0.00310316 0.0155664 0.00386849 0.0290722 0.00449459 0.0181722 0.00415971 0.0487296
31 2 Si 5.36879 6.77254 1.4948 2.4 1 0.000586316 0.00299355 0.00192673 0.0052357 0.00266217 0.00701138 0.00376738 0.0196537 0.00269004 0.00792866 0.00257832 0.0276816 0.00308807 0.015338 0.00404022 0.0269095 0.00477328 0.0174509 0.00550546 0.0463413
32 3 O 5.41937 8.38578 1.4948 -1.2 1 0.00102438 0.00308358 0.00161648 0.00503898 0.00219898 0.00788124 0.0030966 0.0209234 0.00223696 0.0084174 0.00240624 0.0291646 0.00226003 0.0155599 0.00300911 0.0290622 0.00477765 0.0175876 0.00510661 0.0479226
33 3 O 1.75158 5.79852 1.4948 -1.2 1 0.00105813 0.00340309 0.00158692 0.00414543 0.00237891 0.00603939 0.003347 0.0195225 0.00284439 0.00744658 0.00266544 0.0278144 0.00285461 0.0155437 0.00337515 0.0268031 0.00540309 0.0176454 0.00577486 0.0454803
34 3 O 4.67421 6.06637 0.196716 -1.2 1 0.000535906 0.00286556 0.00161016 0.00494091 0.00192709 0.0068844 0.00290811 0.0197971 0.00252656 0.00825911 0.00212784 0.0263879 0.0033499 0.0143268 0.00411604 0.0266693 0.00484295 0.0168101 0.00560532 0.0450148
35 1 Mg 6.26654 4.74899 2.9896 1.2 1 0.0012606 0.00317754 0.00223567 0.00506148 0.00259861 0.00660717 0.0038137 0.0178334 0.00399096 0.00727933 0.00231057 0.0259281 0.00385596 0.0145481 0.00500506 0.0248557 0.00602136 0.0176869 0.0073216 0.0430786
36 3 O 4.63043 6.06637 2.79288 -1.2 1 0.00211696 0.00341443 0.00172816 0.00495283 0.00237803 0.00681422 0.00343723 0.0193189 0.00341753 0.00806446 0.00262447 0.0259581 0.00382225 0.0146819 0.00449518 0.027256 0.00604995 0.0183012 0.00737824 0.0451353
37 1 Mg -1.12976 4.79031 4.4844 1.2 1 0.00205598 0.00436004 0.00173883 0.00499838 0.00241794 0.00627955 0.00341439 0.0179682 0.00357388 0.00728531 0.00321713 0.0258522 0.004307 0.0144869 0.00456318 0.0256328 0.00747959 0.0193615 0.00842392 0.0436945
38 2 Si -2.9517 7.47444 4.4844 2.4 1 0.0023365 0.00427386 0.00132121 0.00519875 0.00313525 0.00673413 0.00392043 0.0202474 0.00325776 0.00806444 0.00298983 0.0274055 0.0044509 0.0158903 0.0054332 0.0278154 0.00716378 0.019625 0.00830435 0.0470701
39 3 O -3.00198 5.86121 4.4844 -1.2 1 0.00201657 0.0044276 0.00118169 0.00511795 0.00326964 0.00652752 0.00411481 0.0188589 0.00363397 0.00786897 0.00284412 0.0257018 0.00434063 0.0142149 0.00484499 0.0267895 0.00707741 0.0197914 0.00858253 0.0448958
40 3 O 0.666315 8.44846 4.4844 -1.2 1 0.00302198 0.00506982 0.00116671 0.00496745 0.00300318 0.00767776 0.00302296 0.0210011 0.00301116 0.00802409 0.0031782 0.0281514 0.00450055 0.0158874 0.00447439 0.0291294 0.00678314 0.0201663 0.00836289 0.0481505
41 3 O -2.21213 8.18062 3.18632 -1.2 1 0.00221365 0.00431248 0.00145063 0.00465207 0.00271102 0.00648082 0.00284575 0.0206831 0.00282973 0.00826216 0.00280838 0.0275855 0.00416581 0.0159111 0.00500394 0.0288849 0.00606218 0.0191254 0.00698368 0.0483304
42 3 O -2.25864 8.18062 5.78248 -1.2 1 0.00330346 0.00492084 0.00148465 0.00482565 0.00310196 0.00630163 0.00299808 0.0205796 0.00238536 0.00874862 0.00360968 0.0267687 0.00446067 0.0165451 0.00552358 0.0291136 0.00746768 0.0211541 0.00832706 0.0483949
43 1 Mg 1.20893 7.12349 2.9896 1.2 1 0.00169579 0.00407695 0.00159537 0.00440249 0.00286494 0.00685008 0.00381034 0.0196056 0.00287953 0.00818779 0.00268782 0.0278063 0.00351308 0.0157658 0.00380045 0.0274877 0.00580568 0.0184422 0.00671454 0.0466052
44 1 Mg 4.00982 7.08218 4.4844 1.2 1 0.00232263 0.00426148 0.00154158 0.00476699 0.00267136 0.00656361 0.00397917 0.0199268 0.00344578 0.0079101 0.00332668 0.0271525 0.00433669 0.0166102 0.00581007 0.0280447 0.00745282 0.0196133 0.00865766 0.0466354
45 2 Si 2.17861 9.14704 4.4844 2.4 1 0.00275486 0.004465 0.00143639 0.00482931 0.00307271 0.00748268 0.0038053 0.021189 0.00276095 0.00826904 0.0031239 0.0280592 0.00461835 0.016561 0.00462147 0.0294596 0.00629522 0.0199896 0.00733908 0.049871
46 3 O 2.18828 10.7603 4.4844 -1.2 1 0.00342021 0.00461164 0.0018408 0.00457406 0.00283208 0.0072471 0.00306308 0.0209658 0.00257195 0.00829666 0.00239888 0.0286681 0.00402717 0.0157812 0.00459369 0.0306085 0.00638124 0.0201169 0.00704514 0.0507935
47 3 O -4.43805 8.17302 4.4844 -1.2 1 0.00206036 0.00473269 0.00166851 0.00509059 0.00276813 0.00775487 0.00339768 0.0208279 0.00334871 0.00846614 0.00317227 0.0282285 0.00470007 0.0160561 0.00501787 0.0291741 0.00701723 0.0198469 0.00894449 0.0479535
48 3 O 2.89193 8.44087 3.18632 -1.2 1 0.00233252 0.00389561 0.00157209 0.00444215 0.00255162 0.00703485 0.00342104 0.0205905 0.00278531 0.00861506 0.00288002 0.0274873 0.00380056 0.0158778 0.00466742 0.0288963 0.00611143 0.0189139 0.00628455 0.0482879
49 1 Mg 1.25915 7.12349 0 1.2 1 0.000607927 0.00290386 0.00120468 0.00430463 0.00173374 0.00731086 0.00288929 0.0201727 0.00286198 0.00827794 0.00241675 0.0276935 0.00326229 0.0144001 0.0033238 0.0276071 0.00475261 0.0175405 0.00450541 0.0460527
50 3 O 2.84547 8.44087 5.78248 -1.2 1 0.0031256 0.00511822 0.0015144 0.00461255 0.0026389 0.00665578 0.00331505 0.0208725 0.00302509 0.00894198 0.00363358 0.0268241 0.00558906 0.0165264 0.00576944 0.0294365 0.00667676 0.0214584 0.00783313 0.0488622
51 1 Mg -1.59284 7.16481 1.4948 1.2 1 0.00110176 0.00327473 0.0013031 0.00473828 0.00187745 0.00636974 0.002678 0.0199204 0.00300409 0.00798052 0.00177386 0.0277192 0.00332417 0.0155329 0.00373276 0.027196 0.00478557 0.0177953 0.00582717 0.0464908
52 2 Si 0.240329 5.09994 1.4948 2.4 1 0.000942637 0.00366085 0.00192373 0.00416793 0.00185625 0.00676897 0.00313278 0.018929 0.00318458 0.00752505 0.00233016 0.0260746 0.00274441 0.0145674 0.00405455 0.0247527 0.00521677 0.0170564 0.00551282 0.0445127
53 3 O 0.234538 3.48671 1.4948 -1.2 1 0.00156634 0.00380131 0.00260897 0.00445265 0.00177212 0.00650024 0.00267297 0.0179061 0.00345763 0.00707012 0.00241078 0.0245555 0.00316311 0.0136451 0.00384066 0.0239495 0.00563977 0.0161306 0.00559476 0.0421737
54 3 O 6.85564 6.07396 1.4948 -1.2 1 0.000908008 0.00275343 0.00224286 0.0050013 0.0025426 0.00619383 0.00315897 0.01987 0.0031372 0.00764367 0.00219113 0.0276199 0.00334149 0.0147506 0.00463056 0.0269098 0.00565899 0.0178546 0.0065857 0.0451896
55 3 O -0.429565 5.80612 0.196716 -1.2 1 0.000835222 0.0031426 0.00217872 0.00423863 0.00173796 0.007104 0.00259763 0.0195634 0.00287219 0.00855724 0.00238853 0.0258148 0.00264593 0.0141914 0.00384793 0.0258808 0.00514179 0.0169233 0.00583085 0.0450396
56 3 O -0.473377 5.80612 2.79288 -1.2 1 0.00173923 0.00364073 0.00186776 0.00472704 0.00240913 0.00686597 0.00313544 0.0191523 0.00319888 0.00814753 0.00300694 0.0257747 0.00382111 0.0145206 0.00442144 0.0262518 0.00645058 0.0186348 0.00718401 0.0453212
57 1 Mg 6.40169 9.49799 0 1.2 1 0.000134556 0.00360758 0.00129925 0.00473578 0.0014235 0.00835797 0.00199102 0.0211163 0.00159997 0.00897216 0.0017202 0.0290053 0.00234518 0.0146591 0.00273171 0.0298309 0.00380165 0.0178915 0.00407546 0.0476791
58 1 Mg 3.64209 14.2057 1.4948 1.2 1 0.00189164 0.00294026 0.00153719 0.00452967 0.001682 0.00888242 0.00161563 0.0216674 0.0016113 0.00874858 0.00230516 0.028541 0.0025003 0.0160834 0.00314398 0.0295756 0.0036985 0.0169848 0.00350458 0.0495659
59 2 Si 5.45748 11.5215 1.4948 2.4 1 0.00185488 0.00301257 0.00153321 0.00452812 0.00170043 0.00834994 0.00215461 0.0211135 0.00153454 0.00829711 0.00180733 0.0290191 0.00252131 0.0161057 0.00330965 0.0292084 0.00415799 0.0169568 0.00388754 0.0493408
60 3 O 5.51101 13.1348 1.4948 -1.2 1 0.00197978 0.00303879 0.00165938 0.00456035 0.00158161 0.00918848 0.00180203 0.0211703 0.00173344 0.00864491 0.00170126 0.0295779 0.00213051 0.0160319 0.00279875 0.0299221 0.00388497 0.0166769 0.00363152 0.0492524
61 3 O 1.83851 10.5475 1.4948 -1.2 1 0.00124169 0.00339743 0.00142179 0.00480822 0.00183542 0.00790016 0.00235097 0.0216126 0.00169719 0.00842543 0.00221379 0.0295461 0.00255047 0.0157069 0.00328647 0.0298292 0.00440142 0.0179391 0.00373235 0.049295
62 3 O 4.7611 10.8154 0.196716 -1.2 1 0.000807446 0.00276782 0.00158775 0.00470024 0.00147951 0.00861765 0.00214953 0.0213783 0.00151774 0.00875203 0.00189064 0.0284989 0.0029191 0.0154129 0.0038861 0.0294887 0.00379644 0.0171641 0.0036177 0.0485772
63 1 Mg 6.35203 9.49799 2.9896 1.2 1 0.00180927 0.00400059 0.00155936 0.00480531 0.00270474 0.00768778 0.00349672 0.0204076 0.00308672 0.00861381 0.00217216 0.0292296 0.00365623 0.0160818 0.00347551 0.0291758 0.00462714 0.018674 0.00581985 0.0486402
64 3 O 4.71833 10.8154 2.79288 -1.2 1 0.00265801 0.00350623 0.00149432 0.00450059 0.00217221 0.00836749 0.00230739 0.0212586 0.00209793 0.0089305 0.00211483 0.0284784 0.00349782 0.015826 0.00400643 0.0300847 0.00548603 0.0184815 0.00573182 0.0498731
65 1 Mg -1.0438 9.53931 4.4844 1.2 1 0.00340508 0.00499923 0.00129716 0.00459597 0.00305317 0.00688695 0.00274397 0.020886 0.00278003 0.00839203 0.00281704 0.0283848 0.00399793 0.0166456 0.00451216 0.0297057 0.0068584 0.0200374 0.00750163 0.0496886
66 2 Si -2.8604 12.2234 4.4844 2.4 1 0.00350178 0.00437353 0.00171097 0.00449733 0.00273535 0.00785554 0.00315356 0.0219366 0.00279871 0.00838756 0.00229893 0.0284048 0.00401309 0.0165132 0.00454129 0.0300701 0.00603276 0.0197015 0.00678121 0.0517257
67 3 O -2.91391 10.6102 4.4844 -1.2 1 0.00360849 0.00469908 0.00166397 0.00445054 0.00296456 0.00718804 0.00338469 0.0206003 0.00262221 0.00788585 0.00213819 0.0286892 0.00415507 0.0158356 0.00434049 0.0304919 0.00627614 0.0198691 0.00701 0.0502805
68 3 O 0.7596 13.1975 4.4844 -1.2 1 0.00333109 0.00419805 0.00188961 0.00488351 0.00284773 0.00869008 0.00274929 0.0223774 0.00277893 0.00837999 0.00288901 0.0290135 0.00413622 0.0163668 0.00444822 0.0304293 0.00629092 0.0198128 0.00694933 0.0515515
69 3 O -2.12001 12.9296 3.18632 -1.2 1 0.00331673 0.00389677 0.00176332 0.00420464 0.00253137 0.00779798 0.002308 0.0219668 0.00243745 0.00837998 0.00234575 0.028082 0.00358389 0.0161274 0.00462076 0.0303948 0.00542507 0.0186897 0.005646 0.0509899
70 3 O -2.16532 12.9296 5.78248 -1.2 1 0.00388138 0.00447568 0.00165616 0.00455265 0.00277248 0.0070234 0.00243637 0.0220052 0.00248805 0.00837864 0.00285911 0.0278241 0.00417386 0.0168928 0.00494365 0.03121 0.0068079 0.0212161 0.00705369 0.0530045
71 1 Mg 1.29891 11.8725 2.9896 1.2 1 0.00247935 0.00338898 0.00161767 0.00481807 0.00250985 0.00820722 0.00279909 0.0210904 0.00240972 0.00850817 0.00209163 0.0293291 0.00341055 0.016204 0.00352735 0.0300067 0.00496198 0.018053 0.00514442 0.0499461
72 1 Mg 4.10033 11.8312 4.4844 1.2 1 0.00305125 0.00398295 0.0019337 0.00439508 0.00252768 0.00759566 0.00276545 0.0215655 0.00253211 0.00851276 0.00286925 0.0288062 0.00395234 0.0171763 0.005519 0.0301978 0.00680101 0.0198853 0.00648349 0.051226
73 2 Si 2.27333 13.896 4.4844 2.4 1 0.00308958 0.00356093 0.00187813 0.00494735 0.00293983 0.00811216 0.00325256 0.0220307 0.0024019 0.00831704 0.00294422 0.0283717 0.00380535 0.0167795 0.00447101 0.0301546 0.00577871 0.0191989 0.00644465 0.0526081
74 3 O 2.28634 15.5093 4.4844 -1.2 1 0.00322315 0.00395301 0.00197483 0.00459087 0.00292154 0.00750483 0.00273769 0.021301 0.00268822 0.00767654 0.00222494 0.0287907 0.00338847 0.0160327 0.0041196 0.030962 0.00607274 0.0190495 0.00654377 0.0523318
75 3 O -4.34533 12.922 4.4844 -1.2 1 0.00328718 0.00433742 0.00202295 0.00454942 0.00269085 0.00847817 0.00288309 0.022041 0.00274707 0.00851611 0.00250702 0.0290067 0.00394647 0.016428 0.0048346 0.0304849 0.00665752 0.0200416 0.00725655 0.0516689
76 3 O 2.98455 13.1899 3.18632 -1.2 1 0.00278306 0.00328545 0.00156588 0.00438152 0.002473 0.00807239 0.00208538 0.0219422 0.00211736 0.00866023 0.00251446 0.0282756 0.00349324 0.0159999 0.00449619 0.0302041 0.00583071 0.0185739 0.00563386 0.0507066
77 1 Mg 1.34779 11.8725 0 1.2 1 0.00113054 0.00281839 0.00108619 0.00478887 0.00135083 0.00898265 0.00162442 0.0211904 0.0012065 0.00911646 0.00200638 0.0292583 0.00275918 0.0147573 0.00298824 0.0300575 0.00337764 0.0173314 0.0032776 0.0483252
78 3 O 2.93934 13.1899 5.78248 -1.2 1 0.0035223 0.00464852 0.00191751 0.00483553 0.00269112 0.00727971 0.00276664 0.0222539 0.00248676 0.00849235 0.00310579 0.0276718 0.00432263 0.0169565 0.00503641 0.0315199 0.00640579 0.0219348 0.00686494 0.053383
79 1 Mg -1.50344 11.9138 1.4948 1.2 1 0.00147299 0.00342122 0.00133224 0.00441816 0.00136365 0.00838696 0.00178958 0.0216083 0.00245219 0.00843806 0.00159412 0.0289301 0.00355581 0.0159986 0.00338598 0.0298112 0.0037111 0.0175641 0.00379766 0.0492051
80 2 Si 0.326006 9.84894 1.4948 2.4 1 0.000829331 0.00324207 0.00109588 0.00493416 0.00184419 0.00822932 0.00208334 0.0210703 0.00210786 0.00848527 0.00159733 0.0287783 0.00298472 0.0156641 0.00359951 0.0289553 0.00396899 0.0178633 0.00373444 0.0486097
81 3 O 0.317364 8.23571 1.4948 -1.2 1 0.00115475 0.00361168 0.000839243 0.00452634 0.00192464 0.00767734 0.00218062 0.0203014 0.00261236 0.00810663 0.00176191 0.0287078 0.00351226 0.0157743 0.00384774 0.0286164 0.00455702 0.0177567 0.00446528 0.0475733
82 3 O 6.94307 10.823 1.4948 -1.2 1 0.00140909 0.00366795 0.00122546 0.00436326 0.00179863 0.00783644 0.00250048 0.0217748 0.00237248 0.00837367 0.00164027 0.0295074 0.00301354 0.015633 0.00343969 0.0299068 0.00394138 0.0181338 0.00434301 0.0492079
83 3 O -0.343122 10.5551 0.196716 -1.2 1 0.000785171 0.00300162 0.00101426 0.0046306 0.00139183 0.00866609 0.00188261 0.0213288 0.00175521 0.00900288 0.00194286 0.0283353 0.00328392 0.0152742 0.00405868 0.0294556 0.00366731 0.0174897 0.00355832 0.048536
84 3 O -0.385966 10.5551 2.79288 -1.2 1 0.00292254 0.00394685 0.00107247 0.00446855 0.00254926 0.00815726 0.00226958 0.0215783 0.00213279 0.0091023 0.00244469 0.0277688 0.00384424 0.0159609 0.00425792 0.0299104 0.00547543 0.0188094 0.00528155 0.0498553
85 1 Mg 6.49448 14.247 0 1.2 1 0.00114347 0.00317838 0.00165199 0.00464465 0.00115454 0.0093611 0.00121054 0.0212319 0.00119566 0.00858755 0.00149027 0.0289958 0.00168514 0.0154072 0.00250068 0.0300055 0.00319119 0.0165554 0.00292535 0.0483547
86 1 Mg 3.74457 18.9547 1.4948 1.2 1 0.00210486 0.00307746 0.00132654 0.00397889 0.00182224 0.00852618 0.00129868 0.0222349 0.00179047 0.00797581 0.00222234 0.0277815 0.00243247 0.0165951 0.00355592 0.0288781 0.00354653 0.0162947 0.00334524 0.0502098
87 2 Si 5.55495 16.2705 1.4948 2.4 1 0.00222837 0.002851 0.00145406 0.00445546 0.00191911 0.00892243 0.00140159 0.0213608 0.0013706 0.00786237 0.00134411 0.0287536 0.00231828 0.0162351 0.00293409 0.0289877 0.00378128 0.0158151 0.00365848 0.0497078
88 3 O 5.6115 17.8838 1.4948 -1.2 1 0.00223454 0.00292717 0.00161304 0.00425197 0.00187472 0.00916152 0.00149483 0.0216982 0.00174485 0.00776017 0.00151202 0.0287831 0.00204103 0.0164934 0.0028029 0.0290521 0.0033469 0.0157154 0.00351106 0.0498263
89 3 O 1.93416 15.2965 1.4948 -1.2 1 0.00178934 0.00291561 0.00154693 0.00460106 0.00186092 0.00847185 0.00199947 0.0218952 0.00179489 0.00804197 0.00158986 0.0292679 0.00203132 0.0161494 0.00290984 0.029709 0.00383997 0.016581 0.00333617 0.050135
90 3 O 4.85636 15.5644 0.196716 -1.2 1 0.0014853 0.00244791 0.00142333 0.00456881 0.00137217 0.00919018 0.00136231 0.0213378 0.00104938 0.00819447 0.00170914 0.0281798 0.00255332 0.0160016 0.00359295 0.0293528 0.00324829 0.0158404 0.00304071 0.0491456
91 1 Mg 6.44662 14.247 2.9896 1.2 1 0.00200641 0.00357283 0.00157348 0.00430702 0.00242336 0.00855845 0.00275066 0.0209825 0.00255388 0.00857909 0.00194704 0.0293745 0.00291829 0.0162838 0.00310247 0.0297866 0.00417969 0.0177097 0.00478838 0.0501284
92 3 O 4.81537 15.5644 2.79288 -1.2 1 0.00270288 0.00308222 0.00155717 0.00429275 0.00231347 0.00888136 0.00169208 0.0218886 0.00166787 0.00853184 0.00188056 0.0282159 0.00286225 0.016369 0.00366545 0.0297903 0.00489165 0.0172867 0.00499688 0.0508528
93 1 Mg -0.948271 14.2883 4.4844 1.2 1 0.00366717 0.00383496 0.0016494 0.00438163 0.00271838 0.0078639 0.00259482 0.0218452 0.00259853 0.00848134 0.00282861 0.0287064 0.00348697 0.0169728 0.0049769 0.0305398 0.00629113 0.0192278 0.00662077 0.0520335
94 2 Si -2.75928 16.9724 4.4844 2.4 1 0.00327938 0.00351731 0.00189959 0.00460589 0.00281613 0.00804457 0.00285656 0.0223195 0.00257991 0.0078545 0.00261732 0.0282512 0.003537 0.0170151 0.00475441 0.0297161 0.00521337 0.0184951 0.00591435 0.0530286
95 3 O -2.81617 15.3592 4.4844 -1.2 1 0.00368636 0.00375891 0.00192199 0.00438372 0.00289703 0.0076265 0.00291302 0.0213076 0.00258372 0.00762701 0.00231672 0.028925 0.0035931 0.0160809 0.0043315 0.0307229 0.00614234 0.0186952 0.00666448 0.0522283
96 3 O 0.862762 17.9465 4.4844 -1.2 1 0.00327139 0.00389024 0.00172272 0.00462865 0.00293927 0.00833692 0.00244525 0.0225312 0.00250802 0.00780027 0.00248912 0.0287967 0.00368172 0.016849 0.00432012 0.0298779 0.00599363 0.0187153 0.00624918 0.0525199
97 3 O -2.0185 17.6786 3.18632 -1.2 1 0.00306826 0.00334485 0.00192056 0.00398507 0.00261473 0.0077216 0.00227333 0.0223922 0.00226279 0.00785363 0.0022404 0.0278012 0.00340321 0.0164436 0.00461297 0.0300826 0.00497157 0.0176818 0.00517736 0.0518996
98 3 O -2.06164 17.6786 5.78248 -1.2 1 0.0037743 0.00403737 0.00170528 0.00461545 0.00280536 0.00708167 0.0024984 0.022538 0.00242377 0.00778916 0.00273089 0.0280907 0.00347762 0.0173421 0.00489295 0.0311534 0.00611721 0.020508 0.00636289 0.0544455
99 1 Mg 1.39817 16.6215 2.9896 1.2 1 0.00270125 0.00327512 0.00175501 0.00459619 0.00256467 0.00846632 0.00253336 0.0213406 0.00242109 0.0079408 0.0020648 0.0289547 0.00258953 0.0165376 0.00327817 0.0296179 0.00435587 0.0167699 0.0044399 0.0507788
100 1 Mg 4.20062 16.5802 4.4844 1.2 1 0.00320219 0.00329206 0.00200541 0.00449547 0.00259604 0.00781474 0.00239845 0.0219142 0.00297292 0.00777822 0.00291161 0.0286443 0.00355139 0.0174039 0.00564578 0.0301485 0.00654251 0.0186998 0.00629322 0.0525654
101 2 Si 2.37796 18.645 4.4844 2.4 1 0.00299527 0.00337677 0.00174373 0.00458326 0.00295858 0.0079157 0.00287022 0.0225008 0.00250648 0.00789959 0.00269341 0.0279549 0.00338201 0.0171984 0.00450249 0.0297445 0.00556096 0.0182196 0.00592563 0.0536058
102 3 O 2.39434 20.2583 4.4844 -1.2 1 0.00333211 0.00381256 0.00163583 0.00451329 0.00291293 0.00705012 0.00268873 0.0215591 0.00281612 0.00732574 0.00186684 0.0285213 0.00311729 0.0168088 0.00419014 0.0302535 0.00591854 0.0181401 0.00667324 0.0532493
103 3 O -4.24274 17.671 4.4844 -1.2 1 0.00293026 0.00383984 0.00206005 0.0045155 0.00273996 0.0086185 0.00276296 0.0225039 0.00276818 0.00791437 0.00245717 0.0287896 0.00345275 0.016703 0.0048642 0.0300947 0.00602549 0.0189173 0.00651105 0.0528307
104 3 O 3.08659 17.9389 3.18632 -1.2 1 0.00297478 0.00309934 0.00175274 0.00409529 0.00264438 0.00797297 0.00187386 0.0221894 0.00225948 0.00793854 0.00231289 0.0277195 0.00318102 0.0164855 0.00451969 0.0297843 0.0055391 0.0175359 0.00545085 0.0517326
105 1 Mg 1.44478 16.6215 0 1.2 1 0.00200248 0.00272106 0.00110867 0.00445817 0.00139509 0.00902511 0.00113363 0.0214564 0.0014256 0.00808089 0.00148571 0.0287562 0.00225077 0.015575 0.00234469 0.0293585 0.00301384 0.0160539 0.00304884 0.0488835
106 3 O 3.0436 17.9389 5.78248 -1.2 1 0.00339039 0.0037716 0.001758 0.00492279 0.00266725 0.00716665 0.00230361 0.0224269 0.00223096 0.00807013 0.00288136 0.0279241 0.00388434 0.0171073 0.00516112 0.0310677 0.00629858 0.0204548 0.00657214 0.0546443
107 1 Mg -1.40524 16.6628 1.4948 1.2 1 0.00173631 0.00304119 0.00143126 0.00440291 0.0017921 0.00871535 0.00184282 0.0221866 0.00186505 0.00805383 0.00176131 0.0283611 0.00306552 0.0165821 0.0030106 0.0293729 0.00303451 0.016585 0.00318505 0.0498414
108 2 Si 0.420358 14.5979 1.4948 2.4 1 0.00171206 0.0027433 0.00150764 0.00493439 0.00198127 0.0091835 0.00186269 0.0213269 0.00169006 0.00812886 0.00153217 0.0286902 0.0028545 0.0162392 0.00344778 0.0289164 0.0035896 0.0164398 0.00342945 0.0496256
109 3 O 0.408732 12.9847 1.4948 -1.2 1 0.00167534 0.00294896 0.00127254 0.00479909 0.00182271 0.00922569 0.00141306 0.0211278 0.00226505 0.00837445 0.00154488 0.0292546 0.00307097 0.0158792 0.00305488 0.0298061 0.0034382 0.0169924 0.00370097 0.0494301
110 3 O 7.03923 15.572 1.4948 -1.2 1 0.00174926 0.00316852 0.00142564 0.00440627 0.0020186 0.00838039 0.00220742 0.021753 0.0021827 0.00799493 0.0016997 0.0293084 0.00265053 0.0161649 0.00300894 0.029742 0.0034605 0.0168281 0.00390476 0.0498811
111 3 O -0.248332 15.3041 0.196716 -1.2 1 0.00169491 0.00266169 0.00128101 0.00461636 0.00117038 0.00918181 0.00179675 0.0212863 0.00126098 0.00826237 0.00180618 0.0281772 0.00284582 0.0156374 0.0037414 0.0292436 0.00318423 0.0160534 0.00331989 0.0490154
112 3 O -0.289436 15.3041 2.79288 -1.2 1 0.00322871 0.00340533 0.00139668 0.00438355 0.00247726 0.00884399 0.00202473 0.0221475 0.00184164 0.00870553 0.00206976 0.0276771 0.00306231 0.0166363 0.00374496 0.0296985 0.00469733 0.0177985 0.00463328 0.0508972
113 1 Mg 6.59566 18.996 0 1.2 1 0.00115574 0.00296888 0.00133538 0.00421187 0.00101526 0.00858126 0.00107413 0.0219848 0.00112341 0.00773251 0.00141837 0.0281691 0.00192869 0.0163019 0.00217844 0.0287287 0.00282538 0.015816 0.00281608 0.0488435
114 1 Mg 3.85574 23.7037 1.4948 1.2 1 0.00236042 0.00264215 0.00126292 0.00419924 0.00193726 0.007403 0.00137213 0.0231707 0.00175157 0.00748363 0.00202491 0.0272429 0.0024304 0.0176285 0.00382682 0.028518 0.00331196 0.0171284 0.00351607 0.0509366
115 2 Si 5.66125 21.0195 1.4948 2.4 1 0.0021709 0.00261204 0.00123986 0.00412887 0.00207097 0.008104 0.00153808 0.0220598 0.00133873 0.00738036 0.00143174 0.0279997 0.00244925 0.0173671 0.0027976 0.0280915 0.00351064 0.0157613 0.00394008 0.050536
116 3 O 5.72074 22.6328 1.4948 -1.2 1 0.00242251 0.00266683 0.00160657 0.00412295 0.00190662 0.00816168 0.00157214 0.0223957 0.00182775 0.00720263 0.00133105 0.0279659 0.00209047 0.017344 0.00292357 0.0284478 0.00329608 0.0161897 0.0036409 0.050419
117 3 O 2.03867 20.0455 1.4948 -1.2 1 0.00193925 0.00322331 0.00149169 0.00419285 0.00185817 0.00786154 0.00203785 0.022223 0.00223318 0.00738524 0.00148769 0.028541 0.00211012 0.0172039 0.00252036 0.0289805 0.00351291 0.0160059 0.00342571 0.0506111
118 3 O 4.96004 20.3134 0.196716 -1.2 1 0.00182855 0.00232559 0.00130741 0.00411057 0.00129697 0.00828391 0.00108047 0.0218489 0.00103507 0.00739106 0.00162671 0.0276993 0.00258414 0.0166162 0.00379162 0.0287377 0.00292902 0.0151156 0.00286427 0.0495877
119 1 Mg 6.55057 18.996 2.9896 1.2 1 0.00209225 0.00333189 0.00150013 0.00413677 0.00263294 0.00815629 0.00279897 0.0214574 0.0024353 0.00785209 0.00168431 0.0291432 0.00291589 0.0169714 0.00304284 0.0290535 0.00398907 0.0168656 0.00476695 0.0510214