ITEM: TIMESTEP
9500
ITEM: NUMBER OF ATOMS
228
ITEM: BOX BOUNDS pp pp pp
45.0 100.0
50.0 105.0
-18.06819 30.11365
ITEM: ATOMS id type x y z coord q2 q3 q4 q5 q6 q7 q8 q2_mono q3_mono q4_mono q5_mono q6_mono q7_mono q8_mono
467 1 67.0686 74.8996 -13.783 27.0 0.0340079 0.0814279 0.167413 0.0781567 0.17699 0.0589169 0.220517 0.04197 0.0301184 0.0894125 0.0387107 0.296142 0.0515031 0.306645
469 1 64.7129 74.0996 -16.2352 26.0 0.0390278 0.162167 0.130973 0.0724352 0.155385 0.0893307 0.241658 0.0456072 0.0208596 0.0838573 0.0326579 0.306781 0.0514634 0.319821
473 2 66.7654 75.9045 -16.8578 25.0 0.0355275 0.0220866 0.266089 0.0759178 0.167636 0.0540732 0.236298 0.0465705 0.0132602 0.27969 0.0170762 0.336219 0.0145127 0.165542
475 3 65.9435 72.7687 -13.1212 25.0 0.0272424 0.0512567 0.228716 0.0333277 0.176865 0.042559 0.238289 0.0177765 0.0215362 0.100749 0.0456466 0.369329 0.0619052 0.246997
483 3 63.8267 73.6332 -14.3488 25.0 0.0253118 0.0988982 0.186047 0.0470549 0.174123 0.0557297 0.247608 0.00913148 0.0104694 0.112279 0.0314576 0.371435 0.0513068 0.237947
488 3 66.212 75.132 -15.5294 25.0 0.0253895 0.0852178 0.173819 0.0524368 0.18167 0.046555 0.218887 0.0106933 0.0155672 0.102541 0.0267721 0.347643 0.047871 0.215749
495 1 71.7759 74.8231 -13.9802 27.0 0.0206675 0.12976 0.186869 0.0627734 0.131504 0.0669911 0.191799 0.0311834 0.0249741 0.12822 0.0364941 0.272243 0.0496746 0.297863
497 1 69.3671 74.0408 -15.8883 25.0 0.0267736 0.0990593 0.189847 0.0464789 0.163193 0.0464742 0.203217 0.04364 0.0204192 0.114008 0.0345156 0.305081 0.0494114 0.305021
501 2 71.3625 75.9571 -17.1143 28.0 0.0389678 0.158746 0.282579 0.0600096 0.199222 0.0859597 0.243928 0.0401629 0.0199884 0.263117 0.0253367 0.288052 0.0356842 0.128743
503 3 70.5546 72.6056 -12.6609 24.0 0.0246414 0.0816374 0.230843 0.0272626 0.170707 0.0493599 0.22259 0.0175985 0.0219545 0.0816007 0.0552572 0.376897 0.0494472 0.254351
505 3 68.3497 76.0546 -16.977 23.0 0.0297288 0.0483891 0.240032 0.0427563 0.179693 0.0470374 0.22562 0.0192488 0.0240552 0.0804575 0.0541876 0.362822 0.0617532 0.238118
509 3 70.5931 72.3699 -15.6164 23.0 0.0398303 0.0530295 0.258508 0.038931 0.179122 0.0557411 0.249168 0.010299 0.0443602 0.10403 0.063118 0.379179 0.0843837 0.2475
511 3 68.4825 73.5207 -14.0493 24.0 0.0252167 0.0762866 0.196504 0.0573285 0.183405 0.0481043 0.23102 0.0114825 0.0166939 0.0990966 0.0246532 0.358944 0.0261352 0.215175
516 3 70.8458 75.3665 -15.7608 25.0 0.0258433 0.0827985 0.203058 0.0616486 0.168864 0.0379536 0.20857 0.0105944 0.0162164 0.101495 0.0265104 0.367937 0.0202738 0.225274
518 3 68.3749 73.5035 -17.4984 27.0 0.0245517 0.0918405 0.172383 0.0568073 0.176614 0.0401344 0.220896 0.00978326 0.015891 0.08887 0.0329036 0.358655 0.0390055 0.229194
2209 2 66.816 75.9806 -10.8667 23.0 0.0437951 0.0749301 0.229111 0.0725584 0.189262 0.0654814 0.245961 0.0479859 0.0147794 0.28828 0.0178288 0.332183 0.0187497 0.171104
2213 3 63.602 76.0846 -10.5115 24.0 0.0241209 0.0582488 0.232504 0.0405244 0.16959 0.0431218 0.246565 0.016865 0.0168598 0.104519 0.0274741 0.377783 0.0431112 0.253658
2221 3 66.0215 75.4444 -12.2008 25.0 0.0328171 0.0986515 0.157887 0.0582358 0.18969 0.0498153 0.222988 0.00947466 0.0193311 0.0930633 0.048407 0.347326 0.0613682 0.212346
2241 3 68.3668 76.1278 -10.9243 24.0 0.0306062 0.0447645 0.242044 0.047219 0.175857 0.0424571 0.244206 0.0147316 0.0255569 0.0729914 0.0584616 0.357594 0.0575459 0.235039
2249 3 70.7781 75.4433 -12.4929 28.0 0.0429926 0.104716 0.14195 0.057316 0.169952 0.0636191 0.218517 0.00811099 0.0214714 0.0868491 0.0561658 0.370573 0.050677 0.232962
2254 3 68.3594 73.3705 -11.3837 24.0 0.0333401 0.0954756 0.163017 0.0456688 0.196417 0.0543047 0.233997 0.00862388 0.0168565 0.084723 0.0358228 0.351958 0.0373941 0.21908
2258 1 71.6883 72.0803 -11.1091 28.0 0.0347585 0.063388 0.213858 0.044435 0.164914 0.0595331 0.23117 0.0276052 0.0213484 0.0823449 0.0407582 0.25113 0.0487143 0.300717
2252 3 70.9008 75.3309 -9.91126 24.0 0.0401317 0.0580315 0.19242 0.0675351 0.172071 0.0361594 0.216373 0.00939987 0.016894 0.0889246 0.0208164 0.365069 0.0175789 0.229315
2233 1 69.2618 74.1783 -9.92428 25.0 0.0281323 0.0993052 0.157727 0.0537186 0.166097 0.0514561 0.196672 0.0570082 0.0398442 0.121188 0.0446211 0.309424 0.05748 0.307334
2203 1 66.9689 74.7688 -7.75409 25.0 0.0254581 0.14364 0.14316 0.0640819 0.150162 0.0595109 0.219648 0.0431923 0.0253146 0.10507 0.0424823 0.287219 0.0648337 0.31362
2211 3 65.959 72.8031 -7.07858 23.0 0.0234064 0.0373661 0.21901 0.0341566 0.174298 0.0299737 0.247168 0.0174436 0.0195121 0.0961525 0.0463259 0.35739 0.0636184 0.243598
2224 3 66.266 75.1053 -9.65038 25.0 0.0247113 0.0864536 0.164194 0.0566565 0.177022 0.0556436 0.225275 0.0119744 0.0126447 0.100464 0.023459 0.350724 0.0455466 0.217632
2231 1 71.5738 74.8904 -8.03415 24.0 0.0197862 0.124801 0.16673 0.0435086 0.146881 0.0602066 0.191577 0.0440966 0.0105762 0.134691 0.0212297 0.282252 0.0396305 0.300446
2235 2 69.1266 72.9577 -6.7363 26.0 0.0383924 0.0635556 0.290886 0.0574969 0.171805 0.058089 0.239083 0.0476381 0.019853 0.284449 0.0293092 0.317805 0.0380248 0.159197
2239 3 70.6106 72.6573 -6.62861 26.0 0.0286853 0.0577123 0.24072 0.031552 0.166747 0.0499131 0.206676 0.0158263 0.0209659 0.070387 0.0515213 0.365567 0.0467873 0.244735
2243 3 68.0392 76.6289 -7.88148 26.0 0.0306102 0.0220231 0.223032 0.0312616 0.181727 0.0453144 0.241178 0.00966092 0.0348852 0.0851757 0.049089 0.362581 0.0683593 0.233251
2245 3 70.5418 72.294 -9.52287 22.0 0.0399519 0.0491046 0.244789 0.0362351 0.179611 0.0633102 0.227064 0.0113569 0.043059 0.0922406 0.066854 0.372649 0.0864901 0.238318
2247 3 68.4804 73.5653 -8.04677 22.0 0.0224432 0.0878931 0.213445 0.0521119 0.172314 0.0519882 0.215495 0.0132998 0.0152071 0.0852061 0.0311044 0.347656 0.044977 0.215308
2255 1 71.9515 71.9208 -7.78349 27.0 0.0339031 0.0647899 0.236128 0.0541062 0.163093 0.0795136 0.219039 0.0306387 0.0248492 0.111661 0.0426354 0.260343 0.0533924 0.303488
3806 3 68.2634 70.8096 -3.60126 25.0 0.0175 0.0547961 0.229736 0.0427936 0.181239 0.0349754 0.236705 0.0143121 0.0219954 0.0889754 0.0487305 0.373145 0.0533141 0.252035
3941 1 64.7198 74.1517 -4.08152 26.0 0.0328457 0.103855 0.144122 0.0640355 0.169501 0.0502828 0.248183 0.0512376 0.024712 0.0906635 0.0309731 0.292403 0.0437303 0.328917
3953 3 65.7458 72.3161 -3.86558 24.0 0.0333606 0.0461759 0.226044 0.0372324 0.186709 0.0326144 0.246435 0.00469727 0.0211752 0.102005 0.0497197 0.366693 0.056593 0.233697
3960 3 66.1845 75.2546 -3.50556 27.0 0.0231812 0.0897884 0.225654 0.040877 0.18059 0.0486032 0.235444 0.0110557 0.0116475 0.101374 0.0336027 0.362359 0.0582007 0.235254
3969 1 69.3746 74.1914 -3.82207 27.0 0.0300371 0.101905 0.169993 0.0443664 0.169288 0.0540296 0.193146 0.0424122 0.0184267 0.137522 0.0375362 0.287352 0.0525927 0.316006
3977 3 68.2977 76.2553 -4.80798 25.0 0.0329137 0.0406537 0.23142 0.0326165 0.176299 0.0529984 0.233931 0.0182039 0.0256953 0.0810166 0.0645394 0.367923 0.0655757 0.251366
3981 3 70.4172 72.3764 -3.50454 22.0 0.039079 0.0413513 0.245074 0.0403671 0.187128 0.0576076 0.246309 0.0109734 0.0427552 0.0817045 0.0583147 0.362299 0.080946 0.229233
3985 3 70.7013 75.4728 -6.42491 26.0 0.0329833 0.079835 0.171754 0.0457409 0.174242 0.0500066 0.237224 0.00647617 0.026362 0.0777697 0.0594524 0.367713 0.0521967 0.238189
3988 3 70.8568 75.365 -3.81602 24.0 0.0274797 0.0915569 0.184243 0.0581939 0.164762 0.0343974 0.204423 0.0119176 0.019376 0.0828333 0.0189811 0.362437 0.0212748 0.225646
3990 3 68.4102 73.4783 -5.41746 26.0 0.0231971 0.0904252 0.173213 0.0491242 0.184399 0.0445142 0.225211 0.00914073 0.0202134 0.0771411 0.0543836 0.347593 0.0568203 0.227815
3955 3 63.8038 73.4748 -2.28871 25.0 0.0231081 0.095156 0.176636 0.0431506 0.178637 0.038843 0.247946 0.00791208 0.0111204 0.107493 0.0232193 0.380327 0.0459793 0.248693
3963 1 67.0996 71.8078 -2.24537 28.0 0.026752 0.0579681 0.268564 0.0281104 0.183141 0.0422706 0.245781 0.0264238 0.017549 0.12521 0.0254648 0.252066 0.0434347 0.320907
3967 1 71.6056 74.888 -1.93904 24.0 0.0102585 0.160515 0.168579 0.0615748 0.144483 0.0585975 0.188626 0.0421591 0.0285984 0.114214 0.0327576 0.289938 0.0461037 0.30451
3979 3 68.1138 76.655 -1.91246 25.0 0.0370732 0.0381504 0.236113 0.0254936 0.194765 0.06096 0.228449 0.00994832 0.0393972 0.090441 0.0500102 0.376737 0.0718319 0.246599
12640 3 66.1174 75.225 26.6101 25.0 0.0210269 0.105434 0.178633 0.0492194 0.174608 0.0445066 0.235206 0.0152102 0.0130168 0.107398 0.023123 0.365233 0.0472101 0.237219
3983 3 68.5906 73.6999 -1.99909 23.0 0.0255004 0.0983693 0.195153 0.0483893 0.184539 0.0423397 0.200705 0.012022 0.0183482 0.0852996 0.0282573 0.353347 0.0385188 0.22433
3939 1 66.9624 74.9218 -1.79012 26.0 0.032243 0.104881 0.19934 0.0440582 0.175047 0.0475144 0.228059 0.0318987 0.0279792 0.13297 0.0405004 0.267932 0.0669099 0.325664
3947 3 65.8731 72.6088 -0.959677 24.0 0.0334416 0.0440928 0.225223 0.0265385 0.172189 0.0383148 0.236439 0.0173472 0.0205849 0.0944484 0.0457983 0.364237 0.0509966 0.250709
3975 3 70.6693 72.8327 -0.557109 24.0 0.0256609 0.0443638 0.21082 0.0348071 0.196517 0.0262748 0.212457 0.0177271 0.0233511 0.0679328 0.0539832 0.367595 0.0539912 0.239965
5542 3 68.2578 71.0097 2.17086 24.0 0.0237506 0.0551121 0.24152 0.0245183 0.166234 0.027031 0.239024 0.0171333 0.0165457 0.101353 0.0508179 0.383609 0.0563096 0.25023
5675 1 66.8965 74.767 4.42458 26.0 0.0363592 0.0982974 0.190957 0.0614575 0.176312 0.061163 0.249274 0.0425803 0.0282641 0.115901 0.0414872 0.297531 0.0646366 0.318818
5683 3 65.8708 72.7038 4.89205 25.0 0.0291217 0.0309021 0.226763 0.0259992 0.177457 0.0260553 0.238798 0.0196356 0.0186302 0.102534 0.038618 0.373688 0.0459818 0.257361
5691 3 63.6768 73.5525 3.69549 25.0 0.0235847 0.0927732 0.176215 0.0510267 0.17452 0.041466 0.247715 0.0120879 0.0110223 0.112575 0.0214889 0.386101 0.041453 0.252957
5693 3 66.0254 75.3311 -0.0614622 26.0 0.0336565 0.0898674 0.168508 0.0433917 0.18902 0.04258 0.241419 0.00714089 0.0187753 0.0975289 0.0323131 0.369354 0.0551873 0.242789
5696 3 66.154 75.1649 2.57322 27.0 0.0290025 0.0931413 0.169811 0.0438547 0.179143 0.0445188 0.224947 0.0137359 0.0146269 0.106218 0.0285478 0.370382 0.0470473 0.243972
5699 1 67.0601 71.9864 3.5485 28.0 0.0290376 0.0112535 0.269206 0.0211262 0.158492 0.041421 0.238356 0.0400979 0.0266371 0.115221 0.0402859 0.292344 0.0455089 0.326197
5703 1 71.5863 74.8507 4.06286 24.0 0.0190285 0.130261 0.176732 0.0545368 0.146585 0.062261 0.198793 0.0335893 0.0222364 0.131968 0.0276261 0.25717 0.047302 0.290144
5705 1 69.2619 74.0859 2.32214 26.0 0.025335 0.107563 0.156465 0.0644232 0.148714 0.0549606 0.18618 0.0436923 0.0152273 0.143265 0.0355684 0.310223 0.0531272 0.313595
5707 2 69.1167 72.8581 5.27684 25.0 0.0388629 0.0654669 0.244379 0.0768313 0.170752 0.0656632 0.22745 0.0489972 0.0188757 0.282512 0.0252788 0.31912 0.0374239 0.159164
5713 3 68.2302 76.321 1.23426 26.0 0.0353858 0.0505866 0.246892 0.0431308 0.179274 0.0497932 0.226129 0.0205146 0.0286205 0.0850589 0.0623476 0.37027 0.0714007 0.258078
5715 3 68.0091 76.4613 4.16052 26.0 0.0366591 0.0497248 0.220307 0.0410047 0.182094 0.050575 0.246657 0.0083384 0.0255893 0.0943665 0.0529537 0.36341 0.0625988 0.241609
5717 3 70.5248 72.3466 2.47567 23.0 0.0411074 0.0465265 0.255175 0.0394998 0.179965 0.0518985 0.248498 0.0136187 0.0479252 0.0887111 0.0570604 0.370584 0.0871525 0.234195
5719 3 68.5057 73.6031 3.99574 26.0 0.0278779 0.0517708 0.215842 0.0535661 0.173962 0.0578363 0.225127 0.014029 0.0149169 0.0920988 0.0260547 0.355376 0.0392961 0.237278
5721 3 70.7296 75.5291 -0.41677 25.0 0.0337612 0.104666 0.164651 0.0565609 0.178747 0.0453048 0.222401 0.00796955 0.0267871 0.0815162 0.0625511 0.365402 0.0553962 0.236418
5724 3 70.8667 75.3303 2.26135 24.0 0.037778 0.0545588 0.186733 0.0719415 0.164913 0.0338688 0.228245 0.0125722 0.0183244 0.0927664 0.0207291 0.361613 0.0203183 0.22806
5726 3 68.4291 73.601 0.658223 24.0 0.0398905 0.078623 0.164802 0.0505754 0.184641 0.0372069 0.221421 0.00954846 0.0189904 0.0876202 0.0381607 0.359087 0.049604 0.2326
7457 3 70.6226 75.3653 5.80426 25.0 0.036881 0.0788688 0.197092 0.0571756 0.174086 0.0445493 0.245878 0.00907505 0.0194496 0.0798144 0.0432113 0.356745 0.0456234 0.238378
5711 3 70.6409 72.5704 5.41832 23.0 0.0302711 0.0542716 0.249388 0.0361357 0.171137 0.0587991 0.221841 0.0183614 0.0248183 0.0720749 0.0513479 0.362313 0.0441898 0.247056
12657 3 68.2671 76.0392 25.3623 24.0 0.0318309 0.0402577 0.234807 0.027169 0.180819 0.0477394 0.229129 0.0181412 0.0224285 0.0886162 0.0542089 0.363365 0.0663938 0.246381
10935 1 71.8982 71.9179 22.0104 29.0 0.0291497 0.0405832 0.285445 0.0366438 0.168008 0.0549191 0.212033 0.0219911 0.0186141 0.124228 0.0223232 0.247888 0.0502582 0.310656
12659 3 68.1318 76.4543 28.2002 26.0 0.0311828 0.0366899 0.220252 0.0330081 0.188462 0.0447335 0.231816 0.0100624 0.0311955 0.0916455 0.0461358 0.369011 0.0614986 0.229464
12674 1 71.9105 71.9235 25.0402 27.0 0.0367712 0.0613115 0.238636 0.0419826 0.174616 0.0736439 0.240189 0.0262929 0.0154082 0.092204 0.0318772 0.263483 0.0503859 0.302236
7411 1 66.8752 74.7342 10.4386 28.0 0.0257353 0.123804 0.147182 0.0677733 0.15813 0.0523004 0.240238 0.044201 0.0315933 0.102444 0.0386704 0.281518 0.0571642 0.307166
7432 3 66.0931 75.152 8.62556 25.0 0.0205339 0.0932932 0.173037 0.0512131 0.173297 0.0459736 0.243742 0.011998 0.0153062 0.107783 0.025383 0.376889 0.0446069 0.241394
7439 1 71.6749 74.7976 10.0979 26.0 0.0204535 0.106748 0.160625 0.0486256 0.140307 0.0600348 0.174634 0.0378878 0.0238613 0.125616 0.0323675 0.25966 0.0469045 0.289457
7441 1 69.2882 74.2447 8.03947 25.0 0.0263132 0.114788 0.164901 0.0564746 0.159588 0.0648821 0.21477 0.0512454 0.0246557 0.108864 0.0411521 0.296873 0.0635533 0.300762
7443 2 69.1935 72.9127 11.2167 26.0 0.0508438 0.0624327 0.240572 0.0933034 0.151984 0.0718112 0.206136 0.0505963 0.016654 0.285395 0.0246735 0.318297 0.0373146 0.157274
7447 3 70.6686 72.5603 11.506 24.0 0.0255166 0.0377491 0.254874 0.022964 0.177909 0.0312202 0.213666 0.0179004 0.0255275 0.0817327 0.0548022 0.364987 0.0527312 0.24253
7451 3 68.1031 76.5047 10.2014 27.0 0.0354038 0.0388765 0.244812 0.0492233 0.187538 0.0465353 0.244832 0.00697298 0.030257 0.0927062 0.0515872 0.374269 0.0656244 0.233975
7455 3 68.4871 73.6627 10.042 25.0 0.0253974 0.0947416 0.198308 0.0524755 0.158453 0.0472241 0.210403 0.0134785 0.0156994 0.0945577 0.0285396 0.354061 0.045726 0.224716
7460 3 70.915 75.3604 8.35012 23.0 0.0270167 0.0866522 0.206883 0.0548168 0.162088 0.0322336 0.213747 0.0127072 0.0169328 0.0905035 0.0227789 0.36164 0.025344 0.224033
7462 3 68.3062 73.3984 6.53406 26.0 0.0289727 0.0871172 0.15867 0.0484135 0.174489 0.048363 0.235422 0.00921689 0.0153045 0.0875864 0.0371815 0.351696 0.0434595 0.23353
9185 3 68.2956 76.0936 13.3586 24.0 0.0321067 0.0460804 0.224931 0.0326665 0.17142 0.0488271 0.246835 0.016266 0.0242357 0.0909862 0.0560792 0.367138 0.063626 0.238004
9193 3 70.8251 75.3787 11.6616 25.0 0.0312373 0.103843 0.166684 0.0539287 0.158178 0.0525343 0.216749 0.00712148 0.023934 0.0885272 0.0666393 0.367831 0.0671627 0.226477
9198 3 68.5039 73.3964 12.5731 27.0 0.0363979 0.0737993 0.167584 0.0474292 0.171012 0.0542527 0.23533 0.010135 0.0176101 0.0956946 0.0428463 0.360093 0.0532945 0.222126
10700 3 58.5569 68.4685 21.6633 24.0 0.0212232 0.0870609 0.19382 0.0547016 0.169412 0.0676937 0.249863 0.0097981 0.0214202 0.112825 0.0283123 0.401277 0.0439419 0.255546
10705 3 58.701 68.6294 18.1947 23.0 0.0269175 0.105466 0.130411 0.040405 0.187843 0.0463408 0.245614 0.00684254 0.0230941 0.115223 0.0318421 0.407055 0.0473609 0.250401
9196 3 70.8422 75.289 14.2343 24.0 0.0310792 0.0744032 0.178645 0.0698533 0.158212 0.0283632 0.223688 0.00975014 0.0173265 0.0912018 0.0213186 0.356425 0.0279198 0.218436
9177 1 69.3582 74.0226 14.2564 26.0 0.0173234 0.1377 0.200287 0.0508079 0.129413 0.0497267 0.218653 0.045224 0.0394349 0.118338 0.0573998 0.282332 0.0748864 0.302314
9147 1 67.0163 74.6565 16.3866 26.0 0.0347735 0.0992146 0.126789 0.0606289 0.177961 0.0652439 0.246751 0.0462769 0.0307653 0.091046 0.0362844 0.301515 0.0535185 0.304688
9168 3 66.0993 75.1775 14.5458 26.0 0.0234642 0.0993468 0.174795 0.0458747 0.168649 0.049822 0.247629 0.0109224 0.0123566 0.110074 0.0227844 0.374816 0.0467994 0.23995
9175 1 71.7801 74.7337 15.9072 26.0 0.0162238 0.108832 0.147362 0.0509959 0.139992 0.0649001 0.193578 0.0331163 0.0308953 0.134482 0.0396974 0.265692 0.0552096 0.292828
9179 2 69.0941 72.8358 17.2758 25.0 0.04057 0.0272556 0.284413 0.0592239 0.183319 0.0476844 0.238903 0.051157 0.0211135 0.28211 0.0274026 0.319928 0.0380773 0.153903
9183 3 70.6464 72.594 17.4616 26.0 0.0328336 0.0459613 0.240327 0.0254316 0.168403 0.0388813 0.2121 0.0170152 0.0240665 0.0796006 0.051691 0.367853 0.0505181 0.244281
9189 3 70.4243 72.3014 14.5411 23.0 0.0363787 0.0295596 0.261681 0.0405541 0.169465 0.0500625 0.248613 0.0104331 0.0429963 0.101537 0.0671736 0.367978 0.082715 0.237324
9191 3 68.5464 73.4813 15.9404 25.0 0.0276227 0.0785976 0.203317 0.0511104 0.164341 0.0413877 0.227419 0.0107682 0.0139832 0.0932931 0.0362915 0.353646 0.0471791 0.223359
10750 3 68.3058 70.9572 20.2062 24.0 0.0287876 0.0531376 0.248682 0.027672 0.169021 0.0333079 0.248734 0.0169417 0.019981 0.0977429 0.0491986 0.387895 0.0541765 0.2499
10889 2 66.6844 75.9403 19.2895 24.0 0.0375497 0.0591741 0.265453 0.0602413 0.19607 0.0512459 0.249888 0.0497189 0.0213256 0.287498 0.0199408 0.335787 0.026824 0.169743
10904 3 66.026 75.2599 20.552 25.0 0.02271 0.108035 0.188187 0.0468021 0.181939 0.0500967 0.232642 0.0139674 0.0134855 0.0988022 0.019575 0.368032 0.0432221 0.232352
10913 1 69.2585 74.0852 20.3049 27.0 0.0177355 0.123403 0.157329 0.0575887 0.154087 0.0590736 0.187385 0.0412919 0.0139149 0.139259 0.032383 0.301532 0.04985 0.308986
10921 3 68.2076 76.1352 19.2225 24.0 0.0317528 0.051312 0.237757 0.0418172 0.169389 0.0492212 0.23462 0.0176594 0.0226749 0.0848025 0.0508892 0.365932 0.0621867 0.241774
10925 3 70.5529 72.314 20.5621 23.0 0.0445114 0.0448007 0.244992 0.0447295 0.179194 0.0520782 0.231314 0.0115017 0.0446211 0.0930298 0.0623469 0.372242 0.0818777 0.236839
10929 3 70.9021 75.5142 17.4801 25.0 0.0301986 0.0712993 0.168866 0.0469317 0.155866 0.0497347 0.224142 0.00765078 0.0254189 0.0816416 0.0650547 0.35971 0.0531275 0.229549
10932 3 70.799 75.2702 20.1982 23.0 0.0377224 0.0537908 0.182029 0.0683097 0.158682 0.0452114 0.193346 0.0108472 0.0155216 0.0920131 0.0224641 0.362362 0.0341691 0.230771
10934 3 68.4546 73.3727 18.5911 25.0 0.0391861 0.0756932 0.16465 0.048963 0.187189 0.0384028 0.245714 0.008157 0.0162127 0.0841301 0.04283 0.356811 0.0487883 0.227704
10911 1 71.7614 74.925 21.9925 25.0 0.0147625 0.115885 0.155441 0.0601249 0.148321 0.0567228 0.155013 0.0271612 0.0324136 0.133561 0.03738 0.25808 0.04892 0.294112
10923 3 68.0649 76.506 22.04 23.0 0.0377485 0.03591 0.231309 0.0338386 0.192717 0.0522638 0.222156 0.00898416 0.0286296 0.0887325 0.03726 0.373663 0.0603484 0.235728
12668 3 70.8199 75.4169 26.3416 24.0 0.0312171 0.0691626 0.22983 0.0445823 0.184063 0.0406626 0.234466 0.0132446 0.0176642 0.0849361 0.0344612 0.358861 0.03225 0.22909
485 3 66.0155 75.3739 30.0637 25.0 0.0297013 0.0890176 0.164925 0.0396783 0.187726 0.0438224 0.235922 0.0124078 0.0171267 0.0962106 0.0555121 0.35223 0.0605687 0.225082
10927 3 68.4988 73.5176 22.0079 24.0 0.0317812 0.0683994 0.205247 0.053541 0.178793 0.0441728 0.218222 0.0150745 0.0137606 0.0902224 0.0259102 0.363497 0.0387731 0.23108
12619 1 67.0731 74.7956 28.3643 27.0 0.0242591 0.127369 0.132215 0.067398 0.166475 0.0692411 0.217259 0.0514496 0.019733 0.101899 0.0330005 0.316722 0.0545929 0.320724
10915 2 69.0833 72.7851 23.3022 24.0 0.044869 0.0603214 0.273266 0.0577534 0.20139 0.0561557 0.239907 0.0494573 0.0161037 0.275913 0.0284481 0.322661 0.0275675 0.149688
10919 3 70.5749 72.4876 23.4802 24.0 0.0313979 0.0311457 0.25689 0.0346504 0.171072 0.0364104 0.207244 0.015724 0.0274985 0.0811436 0.0606928 0.370955 0.0597685 0.241182
12621 1 64.5857 74.1153 25.9717 26.0 0.0279122 0.17208 0.143235 0.0569947 0.188724 0.0937261 0.239974 0.0449006 0.021674 0.0964668 0.0328586 0.309871 0.049102 0.328452
12629 3 63.4678 76.0277 25.4861 23.0 0.0271622 0.0320875 0.219019 0.0230014 0.18515 0.0225745 0.239997 0.0183572 0.0194263 0.101426 0.0327597 0.39137 0.0450604 0.266161
12637 3 66.019 75.3239 24.0072 25.0 0.0264191 0.0858422 0.161459 0.0461558 0.189832 0.0462757 0.239997 0.0104105 0.0194745 0.0991647 0.0469457 0.368748 0.0552068 0.238178
12655 3 70.5848 72.537 29.5836 24.0 0.0298868 0.0496456 0.254378 0.0322299 0.176197 0.0272428 0.213979 0.013448 0.0250755 0.0832107 0.0526105 0.371737 0.0483214 0.244189
12635 3 63.8249 73.6003 27.7553 23.0 0.0255085 0.0776747 0.169905 0.047907 0.184954 0.0535845 0.247307 0.0103706 0.0119374 0.116707 0.0199297 0.377025 0.0403445 0.243994
10883 1 66.9274 74.7495 22.3694 26.0 0.0316074 0.106406 0.175954 0.0533948 0.181856 0.0585984 0.246048 0.043697 0.0247 0.102093 0.035765 0.308316 0.056348 0.315883
12627 3 65.9934 72.7071 29.1228 25.0 0.0276539 0.062665 0.248599 0.0386426 0.176004 0.0435652 0.241566 0.0190434 0.0163267 0.0951681 0.0458793 0.371326 0.0605136 0.253669
12671 1 71.8621 71.7243 28.193 26.0 0.0309509 0.0404687 0.249651 0.0490676 0.170662 0.0498459 0.241807 0.0267152 0.0140221 0.123705 0.0390341 0.267132 0.0413707 0.310457
12647 1 71.6667 74.9349 28.118 24.0 0.0184848 0.122581 0.193789 0.0385027 0.153902 0.0573454 0.210172 0.033948 0.0138026 0.147192 0.02828 0.293519 0.0480626 0.302527
12649 1 69.2979 74.0903 26.1374 24.0 0.0211195 0.116901 0.190472 0.0495337 0.167872 0.0477132 0.220817 0.0432487 0.0170696 0.122743 0.0342228 0.302119 0.0470363 0.308882
12663 3 68.5927 73.6025 28.0414 25.0 0.0261182 0.0935684 0.230119 0.0513067 0.175866 0.0453285 0.229549 0.0130377 0.0126503 0.0912328 0.0236736 0.363872 0.0355585 0.233373
12665 3 70.8216 75.3309 23.7489 26.0 0.033196 0.0705417 0.146239 0.0574099 0.174638 0.0430782 0.199948 0.00973556 0.0213362 0.0823959 0.0423522 0.361799 0.044981 0.232725
12651 2 69.1243 72.8991 29.3547 25.0 0.0516453 0.0799107 0.279593 0.0641799 0.203883 0.0635343 0.24829 0.0487684 0.0246784 0.281416 0.0424828 0.320833 0.0317306 0.155219
12661 3 70.6072 72.319 26.5528 22.0 0.0399733 0.0674485 0.258648 0.0444262 0.173933 0.052447 0.237477 0.00962752 0.0372802 0.0848066 0.0524919 0.363584 0.0591909 0.241114
513 3 70.7265 75.3557 29.7382 26.0 0.0361108 0.0917007 0.147675 0.0504718 0.18204 0.0498438 0.222346 0.00941027 0.021269 0.0883322 0.0581314 0.360343 0.0485094 0.228729
476 3 65.803 77.9463 -13.7481 23.0 0.0219333 0.0580501 0.23225 0.0320776 0.170492 0.0390948 0.249112 0.0243049 0.0113964 0.0966453 0.046636 0.374689 0.0471918 0.252472
7448 3 70.5902 77.9132 10.066 25.0 0.0232105 0.0669614 0.233126 0.0326732 0.153962 0.0448701 0.239998 0.0119933 0.0227093 0.0883968 0.0718671 0.386948 0.0734941 0.246906
7470 2 72.1514 77.9154 9.86922 25.0 0.0213246 0.0765757 0.258004 0.0458096 0.156892 0.071671 0.245305 0.0367435 0.0419345 0.253977 0.05831 0.281792 0.0258503 0.133949
10940 1 71.8507 79.2505 18.7227 28.0 0.0586858 0.0853653 0.140626 0.0715898 0.144436 0.059291 0.247954 0.0551011 0.0404577 0.0845912 0.0419438 0.318409 0.0608577 0.31583
10920 3 70.626 77.809 21.9373 24.0 0.0209527 0.0674594 0.242019 0.0217386 0.162752 0.0547835 0.221613 0.0126138 0.0217797 0.0931112 0.0566671 0.385699 0.0715565 0.252488
10942 2 72.1654 77.8957 21.7535 25.0 0.0274451 0.0887286 0.230385 0.0474528 0.137376 0.0753539 0.236445 0.0358884 0.0312965 0.251528 0.0421968 0.28276 0.0201945 0.13701
10926 3 70.7417 77.5407 18.9913 24.0 0.0487426 0.0663459 0.17849 0.0458002 0.171811 0.0395844 0.248241 0.00776471 0.0200115 0.101639 0.0899885 0.381932 0.0766815 0.239432
523 1 74.1356 74.0489 -15.3955 26.0 0.0224618 0.156593 0.175179 0.0495838 0.127024 0.0636578 0.210012 0.0285836 0.0260774 0.104242 0.0193016 0.276464 0.0324229 0.302698
525 2 73.8429 73.0369 -12.2626 28.0 0.0319751 0.0691205 0.253746 0.0742706 0.167165 0.0389968 0.248335 0.0379381 0.034083 0.264797 0.0333152 0.297461 0.035555 0.134694
527 3 72.915 76.1879 -17.3621 24.0 0.0286501 0.0570291 0.198664 0.0478036 0.174828 0.0324314 0.209582 0.0158992 0.0241693 0.0906982 0.0530641 0.391824 0.0565523 0.253747
529 3 72.9646 76.4239 -14.4214 24.0 0.0334626 0.0350755 0.242919 0.0513771 0.166901 0.0497491 0.223439 0.00990276 0.030616 0.0956825 0.0538157 0.393315 0.0612764 0.247713
531 3 73.2143 73.5958 -13.579 26.0 0.040011 0.0677939 0.191431 0.0442954 0.156875 0.0326858 0.224115 0.00850085 0.0132894 0.107666 0.0268059 0.386196 0.0253282 0.241276
534 3 73.2125 73.485 -17.0371 28.0 0.0295281 0.0676068 0.201913 0.0458281 0.174922 0.0489724 0.215263 0.00873288 0.0118553 0.109063 0.0336786 0.383663 0.0337417 0.23834
1245 1 76.4245 75.0691 -17.5318 26.0 0.0411651 0.149638 0.123731 0.0626384 0.127288 0.0780043 0.240948 0.0326028 0.0266403 0.0949175 0.0294249 0.30364 0.0534534 0.30458
1253 3 75.4864 75.4151 -15.8465 25.0 0.0216116 0.0849946 0.195407 0.0532256 0.138367 0.0554456 0.234849 0.0112342 0.0124281 0.117727 0.0167132 0.399165 0.0285163 0.249837
1256 3 75.5879 75.5037 -13.2322 27.0 0.026221 0.103478 0.136848 0.0395477 0.15941 0.055404 0.211363 0.00549877 0.0150525 0.109025 0.0296655 0.406648 0.0366056 0.256195
2257 1 74.1964 76.9199 -12.7736 31.0 0.0204783 0.0604858 0.20129 0.0460099 0.134441 0.0692111 0.217888 0.0271588 0.0212841 0.074579 0.0470862 0.286897 0.0636781 0.301391
2270 3 73.19 73.5869 -10.9231 28.0 0.0327769 0.0777913 0.190454 0.0391643 0.179064 0.0442318 0.208246 0.00514039 0.0141582 0.095753 0.0345953 0.385406 0.032941 0.249131
2263 3 72.8929 76.3623 -11.3871 25.0 0.027331 0.0644233 0.208456 0.0416173 0.154457 0.0282384 0.216867 0.00921155 0.0252665 0.0983368 0.0497343 0.400453 0.0525786 0.258982
2989 3 75.5307 75.6136 -9.99504 25.0 0.0204148 0.0986136 0.189323 0.0269652 0.16107 0.0561742 0.249997 0.0102986 0.0137175 0.106484 0.0280999 0.410926 0.0309408 0.26515
2092 3 73.1338 70.9714 -9.19016 25.0 0.0240699 0.0522423 0.225539 0.0258767 0.170456 0.0421723 0.236795 0.0173276 0.0234096 0.0958781 0.0565176 0.392683 0.0627527 0.255831
2259 1 74.1686 74.1719 -9.21423 25.0 0.0300108 0.158644 0.135359 0.046346 0.116019 0.0764568 0.213619 0.0429442 0.045385 0.109608 0.0505146 0.288198 0.0614239 0.299681
2267 3 73.1105 73.6697 -7.61582 23.0 0.0300205 0.111545 0.164681 0.0424353 0.153468 0.0581825 0.206681 0.00633645 0.0153359 0.0955777 0.0261804 0.377294 0.0324783 0.235657
2992 3 75.5596 75.5641 -7.42389 25.0 0.0364283 0.0798873 0.147681 0.0531831 0.168534 0.0548762 0.240859 0.00713852 0.0122747 0.109191 0.0250312 0.406595 0.0239637 0.255903
3995 1 74.0658 74.2839 -3.26198 25.0 0.0287892 0.155011 0.134105 0.0494215 0.118564 0.0752475 0.225488 0.0376054 0.0264606 0.105014 0.0330501 0.272653 0.0462408 0.299309
3999 3 72.9079 76.3845 -5.34308 26.0 0.0274131 0.0560553 0.203308 0.0436114 0.165885 0.0413002 0.232368 0.0182252 0.0242001 0.0903124 0.0455167 0.395952 0.0481693 0.261449
4006 3 73.0994 73.6523 -4.925 28.0 0.0292366 0.0825002 0.198904 0.0549916 0.178936 0.0374291 0.231122 0.00962272 0.014761 0.0958324 0.0236069 0.375937 0.0278864 0.234569
4721 3 75.3578 73.0317 -6.17681 24.0 0.0184404 0.0282574 0.235018 0.0222862 0.182272 0.0343981 0.234066 0.0242541 0.0123434 0.0957507 0.0457964 0.396972 0.0603666 0.263445
4001 3 72.8857 76.5304 -2.39627 23.0 0.0349047 0.0480749 0.262437 0.0508776 0.169599 0.0637304 0.245002 0.0120125 0.0308925 0.0904453 0.0573814 0.391755 0.0542426 0.255219
4003 3 73.1233 73.6872 -1.63065 25.0 0.0268921 0.0891469 0.169539 0.0521207 0.160917 0.0513299 0.212899 0.0107951 0.017476 0.0963772 0.0224764 0.374059 0.0308415 0.224537
4728 3 75.5238 75.5863 -1.25815 26.0 0.02985 0.099637 0.137661 0.0477784 0.163947 0.0591953 0.231689 0.00717691 0.0133374 0.106677 0.0323243 0.403855 0.0348516 0.249024
5564 3 73.0611 71.0181 2.63506 24.0 0.0181026 0.063727 0.251482 0.0231095 0.170152 0.0509283 0.247499 0.0189253 0.0233213 0.0876385 0.0612085 0.3856 0.0720635 0.252561
5731 1 74.2102 74.1827 2.67742 26.0 0.0303498 0.152233 0.137653 0.0548038 0.122585 0.0775816 0.211983 0.0269821 0.0287799 0.102672 0.0250873 0.260312 0.039059 0.292016
5735 3 72.9587 76.3006 0.675938 25.0 0.0225662 0.0582862 0.186569 0.0410418 0.16324 0.0328129 0.22108 0.0159247 0.0225196 0.100817 0.0432457 0.389185 0.0620163 0.255262
5737 3 72.8844 76.3959 3.82996 24.0 0.0337548 0.0324519 0.241018 0.0525156 0.163437 0.0549174 0.236808 0.00829167 0.0247832 0.0981027 0.0367033 0.383131 0.0558242 0.248517
5739 3 73.1598 73.6435 4.41258 25.0 0.0283291 0.0849606 0.201001 0.0487361 0.15582 0.0500494 0.226316 0.00882971 0.0139257 0.0962521 0.0315352 0.371299 0.0303359 0.230565
5742 3 73.1019 73.5823 1.00802 28.0 0.0301255 0.0714961 0.174756 0.0543413 0.180207 0.049651 0.210071 0.0105013 0.0208884 0.0952607 0.032517 0.374657 0.0458241 0.232035
6457 3 75.4072 73.1014 -0.11835 23.0 0.0164116 0.0426287 0.242075 0.0325799 0.17567 0.0407409 0.242675 0.0179552 0.0140992 0.0935962 0.0362653 0.391616 0.0447487 0.258316
6464 3 75.5172 75.5926 4.71835 26.0 0.0257956 0.100243 0.137766 0.052774 0.174763 0.0531991 0.235412 0.00915729 0.014342 0.107097 0.0230351 0.398165 0.0195096 0.254284
8193 3 75.3731 73.0331 5.99638 23.0 0.0237762 0.0427722 0.245315 0.0230657 0.172684 0.0420212 0.241021 0.0244028 0.0154476 0.0897858 0.0472511 0.39378 0.0526642 0.270079
7300 3 72.9941 71.0291 8.7464 24.0 0.0249242 0.0539334 0.235599 0.0288803 0.176357 0.0429895 0.246882 0.0187937 0.0226745 0.0938393 0.0620719 0.380539 0.072426 0.252576
7467 1 74.1323 74.2435 8.67016 25.0 0.0270408 0.130419 0.151206 0.0360006 0.134803 0.0664727 0.193884 0.0349691 0.0267357 0.0810674 0.0203742 0.263323 0.0309714 0.294192
7469 2 73.801 73.0229 11.7441 28.0 0.0323314 0.0812256 0.246361 0.0793808 0.146235 0.0413799 0.225241 0.041938 0.032761 0.277144 0.0310513 0.294849 0.0367142 0.138165