ITEM: TIMESTEP
4000
ITEM: NUMBER OF ATOMS
182
ITEM: BOX BOUNDS pp pp pp
45.0 100.0
50.0 105.0
-18.06819 30.11365
ITEM: ATOMS id type x y z coord q2 q3 q4 q5 q6 q7 q8 q2_mono q3_mono q4_mono q5_mono q6_mono q7_mono q8_mono
495 1 71.6624 74.981 -14.0429 26.0 0.0296533 0.107641 0.177442 0.0474385 0.159791 0.0517999 0.200731 0.046158 0.0186343 0.108709 0.0297267 0.296916 0.0566772 0.310652
497 1 69.3945 74.091 -16.0902 26.0 0.0340867 0.123431 0.168011 0.0492566 0.179861 0.0558086 0.231279 0.0495371 0.0305129 0.124043 0.0371005 0.313663 0.0555299 0.324054
503 3 70.6885 72.8159 -12.8817 26.0 0.0289842 0.0445658 0.232793 0.03722 0.186685 0.0326726 0.239141 0.0176261 0.0229534 0.0778143 0.0564586 0.360675 0.0595609 0.239956
505 3 68.2287 76.0548 -16.8752 24.0 0.0273092 0.0391414 0.234275 0.0290526 0.185069 0.0364463 0.245653 0.0175689 0.0207566 0.0863098 0.0556154 0.365194 0.0683091 0.249862
511 3 68.54 73.6614 -14.2875 26.0 0.0226484 0.109816 0.191735 0.0533073 0.179901 0.0530773 0.241073 0.0110369 0.0147849 0.101998 0.0260973 0.362298 0.0491017 0.227575
516 3 70.848 75.3591 -15.7907 25.0 0.0304321 0.0799025 0.206655 0.0509228 0.182759 0.0457789 0.226259 0.0115326 0.015483 0.0860845 0.0342924 0.351986 0.0346077 0.221841
2249 3 70.7502 75.5761 -12.4617 26.0 0.0396034 0.0882326 0.166294 0.0474642 0.182016 0.0536639 0.230547 0.00744715 0.0220568 0.0847622 0.0653263 0.354654 0.0592561 0.223389
2252 3 70.9197 75.3761 -9.84515 25.0 0.0269965 0.0828659 0.169504 0.0630315 0.167262 0.0466008 0.211661 0.00948561 0.0156723 0.0966143 0.0215465 0.356198 0.0293076 0.220738
2231 1 71.6404 74.8362 -8.04756 26.0 0.0143155 0.14013 0.147199 0.0525827 0.156246 0.0611455 0.191984 0.0451346 0.0199064 0.103934 0.0278553 0.282116 0.0598967 0.301039
2233 1 69.3277 74.1619 -10.0801 26.0 0.0196198 0.115109 0.16913 0.0511005 0.17265 0.0525665 0.236548 0.0512932 0.0250868 0.102436 0.0381558 0.302799 0.0502854 0.308385
2239 3 70.6945 72.6865 -6.92441 26.0 0.0298527 0.0377976 0.240531 0.0335543 0.180872 0.0373885 0.23959 0.0188465 0.0244939 0.0833924 0.0547204 0.365121 0.0494332 0.243909
2255 1 71.8938 71.7064 -8.10248 26.0 0.0288872 0.0421062 0.221587 0.0498287 0.16684 0.0504421 0.246264 0.0260366 0.0196685 0.104471 0.0353981 0.254544 0.0599216 0.312245
3960 3 66.0556 75.2556 -3.5389 26.0 0.0244542 0.106438 0.181219 0.0426801 0.186416 0.0498986 0.241767 0.0126027 0.0149652 0.110297 0.0211283 0.371762 0.0432383 0.242968
3969 1 69.3423 74.1343 -4.07054 25.0 0.0193685 0.110493 0.180238 0.0448347 0.167065 0.0479689 0.209287 0.0510863 0.0235577 0.10435 0.0359574 0.294934 0.05678 0.309153
3973 2 71.4878 76.0581 -5.10391 25.0 0.0353458 0.113384 0.255691 0.0725828 0.198947 0.0726987 0.241552 0.039725 0.0165424 0.27217 0.0197631 0.28726 0.0170822 0.131862
3977 3 68.2779 76.1117 -4.80667 25.0 0.0255155 0.0403771 0.224547 0.030659 0.17681 0.0415673 0.239579 0.0188497 0.023223 0.0919507 0.0520857 0.365675 0.0588264 0.253258
3985 3 70.7648 75.4975 -6.43896 25.0 0.0371619 0.0849549 0.157579 0.0549444 0.173153 0.0457412 0.229336 0.0113685 0.0220311 0.0847685 0.0553649 0.357415 0.0601667 0.233571
3988 3 70.8959 75.3518 -3.81671 24.0 0.0252413 0.0682444 0.207967 0.0633416 0.173303 0.0394824 0.217413 0.0112202 0.0160659 0.0910676 0.0194548 0.35135 0.0316446 0.225268
3967 1 71.6086 74.9282 -2.05631 23.0 0.0216314 0.122956 0.154118 0.0480724 0.163408 0.0614833 0.196652 0.0441673 0.0132102 0.128449 0.0262437 0.287514 0.04726 0.310217
3979 3 67.9454 76.6057 -1.89274 25.0 0.0355812 0.0390027 0.246416 0.0444822 0.199267 0.0474773 0.242053 0.0091423 0.0276247 0.0967683 0.0403024 0.372192 0.0538539 0.238311
3983 3 68.6453 73.6081 -2.23403 25.0 0.0186742 0.0916278 0.216021 0.0459746 0.180554 0.0438599 0.241529 0.0133128 0.0155203 0.0988403 0.0251073 0.360269 0.046061 0.234018
3939 1 67.122 74.8343 -1.77096 26.0 0.025848 0.126386 0.135044 0.0622363 0.176556 0.0513461 0.228759 0.045039 0.0289488 0.082891 0.0322624 0.299394 0.0525772 0.319464
3975 3 70.7433 72.6744 -0.878106 25.0 0.0337666 0.0507204 0.246021 0.0378201 0.175208 0.0512047 0.236262 0.0180892 0.0288079 0.0781123 0.0644473 0.361619 0.0654543 0.242769
5675 1 66.9209 74.5946 4.31875 26.0 0.0271777 0.167868 0.138045 0.0678571 0.187615 0.087282 0.242763 0.0515649 0.0211855 0.108803 0.0299785 0.313158 0.0532606 0.327487
5693 3 66.092 75.4039 -0.145637 25.0 0.029849 0.0793588 0.162856 0.0495519 0.196272 0.044756 0.245295 0.00826313 0.0155042 0.103291 0.0354647 0.367021 0.0511804 0.235499
5696 3 66.0694 75.187 2.49785 26.0 0.0242253 0.0904855 0.162045 0.0509937 0.186383 0.0475446 0.24339 0.0126944 0.00896718 0.109312 0.0271852 0.365027 0.04535 0.24041
5703 1 71.647 75.011 3.91448 25.0 0.0138768 0.115557 0.170712 0.0499246 0.159475 0.0537601 0.202677 0.0371381 0.0207185 0.139811 0.037006 0.276312 0.0491773 0.313917
5705 1 69.3578 74.1668 1.98046 25.0 0.0218196 0.14843 0.152068 0.0525731 0.163145 0.0715568 0.220139 0.0516609 0.0210653 0.114087 0.0350201 0.309452 0.0534988 0.316206
5707 2 69.1705 72.9142 5.05676 25.0 0.0376463 0.074023 0.287585 0.0822908 0.210065 0.0626704 0.22999 0.0493678 0.0252348 0.280979 0.0428886 0.323874 0.0370506 0.153882
5713 3 68.2422 76.1205 1.22814 26.0 0.0277219 0.0534523 0.241088 0.0394794 0.179727 0.043781 0.240049 0.0188165 0.0202325 0.0937113 0.0468799 0.365729 0.0571894 0.252577
5719 3 68.6224 73.6553 3.77611 26.0 0.0193778 0.11028 0.187849 0.049355 0.173275 0.0468165 0.231195 0.0123766 0.013256 0.0970698 0.0234033 0.359857 0.042315 0.236307
5721 3 70.6739 75.4861 -0.448109 26.0 0.0283757 0.0827248 0.142879 0.0612902 0.184482 0.0372713 0.22655 0.00793416 0.0180017 0.0842577 0.0320818 0.3536 0.0364092 0.233934
5724 3 70.8249 75.462 2.19466 24.0 0.0281574 0.0850188 0.22819 0.0464614 0.184641 0.0406559 0.229777 0.0109954 0.0128192 0.0838218 0.0280916 0.355854 0.0295555 0.231153
7457 3 70.733 75.506 5.61847 24.0 0.0294424 0.114339 0.164334 0.0451503 0.173909 0.0440573 0.226317 0.00928579 0.0201697 0.0800488 0.0496221 0.351392 0.0496423 0.234279
5711 3 70.6923 72.6288 5.10258 24.0 0.0292218 0.0367697 0.249507 0.0346907 0.181595 0.0288123 0.229312 0.0174148 0.0256472 0.0794382 0.05339 0.359945 0.0622728 0.240802
7411 1 67.0172 74.7446 10.3627 25.0 0.0291816 0.127921 0.13045 0.0609088 0.182667 0.0748986 0.247482 0.0538645 0.0204919 0.101587 0.0294087 0.307877 0.0378593 0.323077
7439 1 71.6631 74.8363 9.96643 26.0 0.0151749 0.140398 0.145931 0.059094 0.155408 0.0643245 0.205785 0.0502063 0.0146574 0.11884 0.0231284 0.293704 0.0414714 0.316797
7441 1 69.3158 74.1735 8.00251 27.0 0.012222 0.13999 0.150097 0.0497826 0.162336 0.0636055 0.21547 0.0522635 0.0251121 0.113707 0.0369554 0.307583 0.0517839 0.318068
7447 3 70.6915 72.6564 11.0963 26.0 0.0334025 0.0523066 0.243306 0.0402723 0.177899 0.052533 0.242359 0.0184347 0.0239981 0.0822858 0.0552383 0.358891 0.0555299 0.247148
7453 3 70.5079 72.3861 8.20189 23.0 0.038974 0.0770702 0.23564 0.0390477 0.193187 0.0578633 0.248127 0.00387319 0.0276822 0.0930417 0.0605279 0.370709 0.0576536 0.237075
7455 3 68.5051 73.5759 9.77007 27.0 0.0183489 0.0970629 0.233687 0.0498299 0.186505 0.0461976 0.249298 0.0118553 0.0144491 0.103602 0.0236822 0.370761 0.0479709 0.240396
7460 3 70.8985 75.3443 8.27327 26.0 0.0275693 0.0831215 0.198104 0.0493923 0.177599 0.0397697 0.2296 0.00877914 0.0158603 0.090406 0.0268421 0.358248 0.0340173 0.226778
7462 3 68.4842 73.4623 6.3675 26.0 0.0285718 0.10117 0.153888 0.0474427 0.186453 0.0434694 0.242919 0.00898031 0.0119102 0.0930977 0.0355782 0.365441 0.0452632 0.241516
9153 2 66.7477 75.9238 13.3524 25.0 0.0403213 0.0742171 0.254882 0.0560768 0.184181 0.0515612 0.248043 0.0496229 0.0113593 0.278383 0.0149179 0.344366 0.0140551 0.162224
9185 3 68.304 76.0865 13.3735 24.0 0.0268893 0.0465641 0.222759 0.0292608 0.173064 0.0375537 0.229891 0.0189283 0.0236748 0.0959056 0.0548364 0.368812 0.0635719 0.247516
9193 3 70.8105 75.4928 11.5767 25.0 0.0373893 0.0887687 0.15823 0.0511561 0.183832 0.0459843 0.239682 0.0089216 0.0191732 0.0834796 0.0428358 0.355614 0.0471482 0.230308
9198 3 68.5592 73.3958 12.4359 26.0 0.028939 0.0865 0.159133 0.0474333 0.188689 0.04289 0.248949 0.00728009 0.0136637 0.098231 0.0361087 0.363431 0.0477529 0.238447
10935 1 71.8608 71.9802 21.7793 29.0 0.0287875 0.0472282 0.2755 0.0347092 0.184525 0.0412743 0.243815 0.0263796 0.0166741 0.10767 0.0297059 0.26941 0.0439894 0.318942
10919 3 70.6604 72.6978 23.1806 26.0 0.0329542 0.0514313 0.244682 0.0418247 0.175041 0.0552762 0.230805 0.0192559 0.0256898 0.0787187 0.059849 0.362879 0.0695944 0.246876
9196 3 70.9968 75.3459 14.1978 25.0 0.0272312 0.0801739 0.191477 0.0512725 0.177486 0.0452021 0.21927 0.00977955 0.0179301 0.0887771 0.0224294 0.347971 0.0374934 0.221776
9175 1 71.6552 74.8478 16.0202 25.0 0.0200043 0.156385 0.170073 0.045402 0.145191 0.0617761 0.197365 0.0468004 0.0172883 0.103448 0.0272594 0.28979 0.0561886 0.321528
9177 1 69.4063 74.2437 14.0495 26.0 0.028712 0.135465 0.136189 0.0407584 0.166612 0.0588225 0.208462 0.0489217 0.0322446 0.116578 0.0388584 0.296927 0.0586055 0.318388
9183 3 70.6264 72.7826 17.1481 25.0 0.0299334 0.0601315 0.230992 0.0346029 0.174882 0.0510257 0.226481 0.0179686 0.0250024 0.0790965 0.0582681 0.361971 0.058521 0.249383
9187 3 67.9939 76.6009 16.1297 25.0 0.0304674 0.0361833 0.222024 0.0335315 0.194817 0.0403957 0.248585 0.00703839 0.0322337 0.101209 0.0449332 0.373707 0.0567251 0.237445
9191 3 68.5243 73.693 15.8701 27.0 0.0215577 0.0992451 0.166654 0.0471663 0.178287 0.0388112 0.232383 0.0120195 0.0142388 0.1027 0.0202773 0.360764 0.0443792 0.232446
10913 1 69.2351 74.2511 20.0571 26.0 0.0175342 0.121539 0.153297 0.0562674 0.157799 0.0563247 0.211287 0.0488999 0.0319653 0.12143 0.0433296 0.30054 0.0575459 0.318921
10921 3 68.2572 76.1709 19.2201 25.0 0.0295261 0.0514516 0.242378 0.0450095 0.180779 0.0451505 0.247275 0.021114 0.0276795 0.0879751 0.0565456 0.367469 0.0615645 0.250426
10925 3 70.5413 72.4655 20.2211 26.0 0.0350318 0.0448055 0.248247 0.041403 0.188506 0.0566055 0.241306 0.00955276 0.0317728 0.0882718 0.0519572 0.372144 0.0680127 0.239219
10929 3 70.7694 75.5457 17.6022 25.0 0.0371777 0.0932811 0.151508 0.0510763 0.181571 0.0461624 0.232992 0.0112824 0.0199859 0.0837317 0.0413193 0.353928 0.0421064 0.230213
10932 3 70.9106 75.3775 20.2257 25.0 0.0316818 0.072016 0.173283 0.0585677 0.178668 0.0456216 0.211551 0.0133751 0.0155943 0.0905998 0.0180844 0.356321 0.0265114 0.22806
10911 1 71.6156 74.8705 21.9818 25.0 0.0194918 0.134296 0.164002 0.0467529 0.158859 0.0543543 0.181935 0.0485298 0.0165931 0.117166 0.0305566 0.293217 0.0514847 0.312539
10923 3 68.0365 76.5788 22.0719 26.0 0.0326134 0.0348229 0.233627 0.0347133 0.201282 0.0499617 0.246171 0.0084314 0.030372 0.0903335 0.047878 0.372358 0.0648061 0.243891
12655 3 70.6253 72.5777 29.2618 24.0 0.0306177 0.0347259 0.250083 0.0365951 0.189111 0.0393552 0.245402 0.021424 0.0287927 0.08414 0.068093 0.361889 0.0655706 0.249172
12619 1 66.9687 74.8727 28.326 27.0 0.0243452 0.136761 0.152119 0.0611894 0.161954 0.063634 0.244678 0.0426359 0.0247387 0.103352 0.0294077 0.309323 0.0492234 0.324144
10883 1 66.9458 74.8365 22.3555 26.0 0.0201624 0.128748 0.157885 0.0617123 0.160467 0.0555397 0.238827 0.0455472 0.0197494 0.10122 0.0315727 0.300371 0.0514505 0.321272
12647 1 71.6334 74.8501 28.0859 26.0 0.0190722 0.136876 0.151035 0.0506041 0.157193 0.062316 0.19908 0.048432 0.0141269 0.115181 0.0262342 0.295857 0.0520081 0.31174
12653 2 71.402 75.9825 24.9536 26.0 0.0335509 0.108391 0.264616 0.0705351 0.208294 0.0692466 0.242357 0.0393172 0.0237079 0.270378 0.0278085 0.293674 0.0218173 0.129053
12665 3 70.7206 75.4067 23.6723 26.0 0.0299577 0.0863941 0.155564 0.0496445 0.182573 0.0365282 0.217729 0.0116019 0.0169453 0.080474 0.0331488 0.356521 0.0350218 0.238339
12663 3 68.4733 73.5877 27.9175 26.0 0.018279 0.106689 0.206562 0.0472096 0.178473 0.049056 0.236274 0.012422 0.0136083 0.0951678 0.0255992 0.359653 0.0420587 0.236692
12649 1 69.2025 74.2484 26.1394 27.0 0.0164413 0.13228 0.151189 0.0456163 0.171234 0.0604878 0.21514 0.0422352 0.0216937 0.125103 0.0358327 0.296792 0.0628893 0.316166
12640 3 66.0943 75.3355 26.5761 26.0 0.022193 0.0969438 0.173768 0.0470596 0.180153 0.0498175 0.245958 0.0103744 0.012586 0.106873 0.0267695 0.377931 0.0505287 0.24507
12659 3 68.0172 76.527 28.1014 26.0 0.0331101 0.0352249 0.236827 0.0309481 0.198822 0.0495306 0.248181 0.00789716 0.0233325 0.0889079 0.0556255 0.370902 0.0608198 0.237997
12668 3 70.8683 75.3014 26.287 24.0 0.0322275 0.0645915 0.194236 0.0450789 0.177417 0.0369407 0.216953 0.0115739 0.016552 0.0844749 0.0319218 0.357438 0.0306965 0.234417
12657 3 68.2695 76.156 25.3606 25.0 0.0307124 0.0390482 0.227381 0.0302502 0.18346 0.0411316 0.242251 0.0178784 0.0228815 0.0815982 0.0570165 0.366938 0.0635301 0.254061
513 3 70.7423 75.4262 29.7335 25.0 0.0312218 0.0594432 0.161352 0.0528088 0.194297 0.0392477 0.225644 0.00918513 0.0257169 0.0805557 0.0565076 0.355336 0.0656157 0.234398
10927 3 68.5398 73.7192 21.9176 25.0 0.026347 0.0841112 0.192381 0.0466809 0.176266 0.0460128 0.226635 0.0145985 0.0147592 0.0980781 0.0245788 0.361252 0.0444763 0.23803
3976 3 70.5246 78.011 -2.15387 24.0 0.0210229 0.0654565 0.234561 0.0337462 0.164656 0.0483795 0.248554 0.0144232 0.0204314 0.0968467 0.060989 0.385253 0.0705406 0.255498
523 1 74.0186 74.2795 -15.6436 26.0 0.022973 0.113282 0.161348 0.03409 0.159529 0.0614377 0.186825 0.0392584 0.0266372 0.0942418 0.0187971 0.290112 0.0347455 0.307983
525 2 73.8203 73.116 -12.5283 27.0 0.0384422 0.0723627 0.2177 0.085187 0.16039 0.055228 0.222314 0.0416554 0.0364602 0.274161 0.0274132 0.297175 0.0421144 0.136552
527 3 72.9573 76.3669 -17.3002 25.0 0.0232126 0.0574346 0.190971 0.0396972 0.167534 0.0335536 0.213056 0.0176043 0.0244205 0.0821597 0.0516132 0.373959 0.0506008 0.249492
529 3 72.7654 76.6178 -14.3364 24.0 0.0318324 0.0255649 0.245765 0.0415697 0.167958 0.0529186 0.234351 0.0106268 0.0314072 0.08813 0.0578529 0.378852 0.0609424 0.242319
531 3 73.2332 73.7923 -13.8745 23.0 0.0281398 0.0877687 0.176801 0.0529072 0.157369 0.0512694 0.21239 0.0091903 0.0149789 0.0933505 0.0209518 0.36082 0.01879 0.221539
534 3 73.1344 73.5429 -17.2875 27.0 0.0307371 0.071265 0.19703 0.040885 0.193685 0.0458012 0.220999 0.00873194 0.0160572 0.0907291 0.0333337 0.364298 0.0321425 0.237377
1245 1 76.4368 75.1763 -17.5584 27.0 0.0357038 0.115115 0.142461 0.0463221 0.13676 0.0579215 0.212942 0.0459813 0.0254353 0.0845541 0.0320487 0.299856 0.0520051 0.307578
1253 3 75.4052 75.5914 -15.8329 25.0 0.0210761 0.0878037 0.224095 0.0534125 0.151107 0.0436972 0.224977 0.0131051 0.0128685 0.107098 0.0299965 0.390275 0.0304779 0.243988
1256 3 75.5763 75.5994 -13.2737 25.0 0.0296984 0.103416 0.142936 0.0463576 0.156806 0.0455446 0.207723 0.00946507 0.0136456 0.107383 0.0296955 0.391132 0.0240895 0.237449
1277 3 78.0344 73.921 -13.4863 24.0 0.030099 0.102691 0.152378 0.0513832 0.177076 0.0506386 0.249961 0.00606215 0.014353 0.118889 0.0211075 0.404849 0.0267186 0.242711
2257 1 74.1498 77.0175 -12.7733 31.0 0.0291132 0.0855148 0.197974 0.0475218 0.169235 0.0899068 0.214166 0.0170082 0.0188711 0.0673312 0.0459615 0.264963 0.0627438 0.309141
2270 3 73.1308 73.6134 -11.1814 27.0 0.028943 0.0691188 0.19048 0.0456217 0.187358 0.0494714 0.210213 0.00956747 0.0168297 0.0916809 0.0404033 0.368966 0.0397116 0.229775
2981 1 76.5064 75.0522 -11.5992 26.0 0.0276069 0.111977 0.163618 0.0604048 0.143716 0.0605975 0.222561 0.0405921 0.0233248 0.0846634 0.0317416 0.287697 0.0613698 0.308753
2985 3 75.3927 73.0032 -12.3255 23.0 0.0241341 0.0474534 0.253375 0.0276936 0.182221 0.0338 0.234045 0.0183488 0.0161994 0.099386 0.0466273 0.395736 0.050213 0.250886
2263 3 72.937 76.4529 -11.3026 25.0 0.0271546 0.0808232 0.194564 0.0423257 0.172566 0.0490068 0.203572 0.0180854 0.0235165 0.0889836 0.0559912 0.382498 0.0590002 0.249327
2256 1 74.2298 77.3985 -10.2242 28.0 0.0357542 0.0759986 0.250224 0.035919 0.148435 0.0859552 0.242555 0.00892824 0.0393651 0.0766145 0.0360603 0.267173 0.0620761 0.30421
4592 3 80.2603 68.0032 -6.14896 24.0 0.0275287 0.0581871 0.226538 0.0340483 0.17247 0.0313431 0.216945 0.0156025 0.0190986 0.102815 0.0327149 0.399577 0.0300036 0.260335
4616 2 81.7757 68.2807 -6.06563 25.0 0.0186068 0.113582 0.2456 0.0557747 0.173754 0.071882 0.249748 0.0451374 0.0119183 0.305113 0.0226123 0.351179 0.0246639 0.193654
2259 1 74.0407 74.2457 -9.53586 26.0 0.0195712 0.133065 0.154504 0.0475808 0.129764 0.062156 0.177427 0.0327815 0.0253262 0.0959445 0.0240476 0.267167 0.0421365 0.301404
2261 2 73.8733 73.091 -6.52034 28.0 0.0352808 0.0476856 0.209884 0.089961 0.138031 0.0425567 0.204329 0.0406419 0.034899 0.269784 0.0316864 0.300253 0.0358465 0.133186
2265 3 72.856 76.4989 -8.34291 24.0 0.0337816 0.0351738 0.236059 0.0537509 0.165872 0.050351 0.219502 0.00855383 0.0307204 0.087495 0.0474599 0.380828 0.0619016 0.24375
2267 3 73.2486 73.7338 -7.82717 25.0 0.0294405 0.0919857 0.165319 0.0444409 0.161038 0.0560451 0.1999 0.00855508 0.0155396 0.0957978 0.0292466 0.362329 0.0322192 0.223069
2983 2 76.139 76.2533 -8.7118 26.0 0.0336204 0.0821061 0.243026 0.0473594 0.178572 0.0574759 0.249546 0.0333741 0.0201918 0.253828 0.0518129 0.27607 0.0572972 0.133616
2989 3 75.4815 75.5521 -9.94814 27.0 0.0213527 0.0881088 0.190243 0.0448815 0.135465 0.0515262 0.20869 0.012805 0.0185291 0.110198 0.0218844 0.395645 0.0264735 0.244933
2992 3 75.621 75.603 -7.34683 26.0 0.0300872 0.0831506 0.135171 0.0515186 0.171632 0.0420232 0.203607 0.0100279 0.0164809 0.102215 0.036406 0.391082 0.0348164 0.245229
3013 3 78.0562 73.9418 -7.41086 25.0 0.0323022 0.0749428 0.120143 0.0497586 0.190394 0.0489979 0.243429 0.00551051 0.0175044 0.115893 0.0238106 0.404668 0.0330427 0.253243
3992 1 74.161 77.4621 -4.11297 27.0 0.0320206 0.0479187 0.204867 0.0520039 0.165163 0.0664245 0.233526 0.00873111 0.0430507 0.0744826 0.0356406 0.264918 0.060978 0.300737
3993 1 74.1741 76.9945 -6.80503 31.0 0.0247709 0.0836869 0.205841 0.0551431 0.169188 0.0731645 0.21563 0.0169287 0.0234774 0.0637077 0.0468195 0.256729 0.0637116 0.302782
3995 1 74.0727 74.1906 -3.59923 26.0 0.0236399 0.109796 0.158042 0.0332879 0.159138 0.057062 0.18137 0.0419235 0.0267457 0.0998114 0.0219453 0.283393 0.0342259 0.307278
3999 3 73.0168 76.3621 -5.28977 25.0 0.0277372 0.0572849 0.18268 0.0384167 0.166742 0.030396 0.205493 0.0174691 0.0234127 0.0798052 0.0481298 0.37193 0.0468726 0.249672
4006 3 73.1847 73.5638 -5.20513 26.0 0.0302363 0.0549331 0.194033 0.0466322 0.18167 0.0457925 0.20648 0.0063883 0.0191314 0.0836908 0.0604806 0.361951 0.0561825 0.228138
4717 1 76.4233 75.1626 -5.55844 26.0 0.0384293 0.116776 0.142999 0.0521001 0.149175 0.0540854 0.210366 0.0377395 0.0238848 0.0843977 0.03133 0.284163 0.0628125 0.305792
4721 3 75.4412 73.0409 -6.31941 23.0 0.0342353 0.0494002 0.249141 0.0307691 0.172874 0.062885 0.2237 0.0187637 0.0180157 0.0960566 0.0444054 0.390672 0.047925 0.254667
4723 3 75.2746 72.4858 -3.34694 25.0 0.0361169 0.0356794 0.254092 0.0437823 0.190937 0.0377356 0.244861 0.00580386 0.0276356 0.102743 0.0453063 0.388757 0.0463272 0.237132
4725 3 75.4896 75.5649 -3.83416 27.0 0.0315318 0.0799363 0.208045 0.0361888 0.173772 0.0422429 0.203375 0.0118965 0.0124659 0.10254 0.0296439 0.389019 0.0290186 0.24405
4001 3 72.7383 76.6063 -2.19713 24.0 0.0354567 0.0445337 0.242138 0.0539273 0.190575 0.0669756 0.219003 0.0133767 0.0444478 0.0881207 0.0574906 0.380906 0.0898937 0.246843
4719 2 76.0889 76.3089 -2.52786 27.0 0.0344073 0.0796501 0.219981 0.0511225 0.195113 0.0487201 0.245212 0.0350281 0.0139772 0.246839 0.0410999 0.280923 0.0477425 0.132932
3997 2 73.9011 73.1268 -0.544931 26.0 0.040041 0.094945 0.205967 0.0808295 0.166099 0.056595 0.220361 0.0429264 0.033827 0.27163 0.0288786 0.297327 0.0388232 0.132879
4003 3 73.2701 73.7629 -1.8983 23.0 0.0288038 0.0921619 0.178918 0.0469736 0.155507 0.0557448 0.208074 0.00903289 0.0163751 0.08801 0.0229201 0.353323 0.0229031 0.221641
4728 3 75.5139 75.6146 -1.19639 25.0 0.0299866 0.099797 0.139219 0.0490866 0.1632 0.0459552 0.204257 0.00816603 0.0135369 0.100268 0.0332988 0.381684 0.0263296 0.23801
5729 1 74.1245 77.0086 -0.699165 29.0 0.0237528 0.0643858 0.169503 0.064825 0.148997 0.0737472 0.232907 0.018077 0.0211948 0.0677463 0.0493491 0.261394 0.0672014 0.30768
5731 1 74.1267 74.194 2.49558 26.0 0.0242411 0.121571 0.17688 0.0527636 0.134177 0.0620153 0.213528 0.0338145 0.0241008 0.108926 0.0262542 0.278826 0.0477454 0.306382
5735 3 72.8694 76.417 0.735929 26.0 0.0239594 0.0564617 0.19013 0.0370478 0.174905 0.0297282 0.218151 0.0196495 0.0260968 0.0865671 0.0611451 0.378481 0.0651407 0.251398
5737 3 72.792 76.6621 3.72052 23.0 0.0367774 0.0519541 0.251749 0.0535002 0.200602 0.0653137 0.24647 0.00759257 0.0321703 0.0825371 0.05326 0.374979 0.0640091 0.2431
5739 3 73.2156 73.7577 4.21107 24.0 0.0290554 0.103924 0.175335 0.057246 0.15818 0.0489329 0.220242 0.0071903 0.0165221 0.0888358 0.0292099 0.35364 0.0302197 0.217892
5742 3 73.2093 73.5919 0.827735 26.0 0.0280591 0.0683371 0.201315 0.0513423 0.188654 0.0458936 0.226043 0.00885453 0.0164511 0.0835689 0.0417674 0.362982 0.046476 0.227373
6453 1 76.4787 74.9991 0.452675 26.0 0.0365208 0.119467 0.130972 0.0542685 0.13695 0.0666662 0.236171 0.0355447 0.0269513 0.0850551 0.0253961 0.285023 0.0550002 0.307566
6457 3 75.448 73.0155 -0.357359 24.0 0.024908 0.0308376 0.254646 0.0351147 0.178883 0.0423134 0.241054 0.0160001 0.0227014 0.0872841 0.0505679 0.384239 0.0567862 0.247655
6461 3 75.4547 75.6005 2.20291 25.0 0.0154234 0.101639 0.2148 0.0344737 0.160085 0.0518539 0.23294 0.0105741 0.0138995 0.105391 0.0336873 0.387823 0.0314898 0.24622
6464 3 75.5486 75.7384 4.75748 26.0 0.0278609 0.102147 0.13659 0.0497197 0.17512 0.048212 0.225915 0.00609055 0.013869 0.0972268 0.037709 0.378986 0.0345239 0.240124
7467 1 74.122 74.1962 8.41942 24.0 0.0193877 0.131331 0.168841 0.0451683 0.142408 0.0676757 0.197993 0.0327446 0.0282093 0.102085 0.0244125 0.277933 0.049995 0.304253
7469 2 73.8655 73.0386 11.4471 26.0 0.0428089 0.0800644 0.239541 0.0800654 0.163574 0.0526017 0.238996 0.0405147 0.0316912 0.269786 0.0356047 0.296831 0.032459 0.136268
7471 3 73.0048 76.2834 6.80543 25.0 0.0285894 0.0570494 0.19083 0.0326131 0.168077 0.0441843 0.206126 0.0156549 0.0190787 0.0798238 0.0503604 0.372637 0.0468896 0.246123
7473 3 72.9116 76.586 9.72659 23.0 0.0373452 0.0477315 0.244935 0.0487287 0.200794 0.0642523 0.235112 0.0117968 0.0421689 0.0868075 0.0629837 0.383213 0.0830927 0.242756
7475 3 73.2068 73.6802 10.145 24.0 0.0288687 0.0940084 0.171702 0.0473077 0.154999 0.0596153 0.220319 0.00705251 0.0135937 0.0943593 0.0247587 0.361527 0.0321713 0.221762
7478 3 73.2329 73.4296 6.83411 25.0 0.0285163 0.0805771 0.189671 0.0428216 0.174765 0.0414645 0.229837 0.0066777 0.0223843 0.0822156 0.0659661 0.360727 0.0682734 0.228696
8189 1 76.4958 74.9717 6.37211 26.0 0.0394584 0.116412 0.121493 0.0581662 0.147276 0.0649775 0.239939 0.0392453 0.0247357 0.0811228 0.0267508 0.299695 0.0534183 0.304589
8197 3 75.6203 75.4501 8.14277 25.0 0.0266958 0.096431 0.19556 0.0321163 0.171366 0.0487434 0.226302 0.0099436 0.0154244 0.101954 0.0213375 0.382769 0.030762 0.240013
8200 3 75.6002 75.4969 10.7603 27.0 0.0315862 0.088031 0.13625 0.0428981 0.167842 0.0531684 0.215532 0.0105868 0.0143909 0.0986743 0.0265035 0.389873 0.030321 0.243456
8221 3 78.0005 73.8 10.5477 26.0 0.030949 0.10442 0.146278 0.0458862 0.179449 0.0487212 0.241073 0.00409328 0.0125256 0.107192 0.0221447 0.398699 0.03317 0.249874
9201 1 74.2523 76.9787 11.3165 29.0 0.030633 0.05835 0.208854 0.0664025 0.139527 0.0685797 0.247162 0.0194958 0.0416096 0.0658177 0.0683653 0.28175 0.0964667 0.305395
9214 3 73.1524 73.5446 12.7774 26.0 0.0366643 0.0632078 0.198912 0.0447075 0.189383 0.0479233 0.228296 0.00860634 0.0162108 0.0864206 0.0422022 0.363778 0.0375993 0.237171
9925 1 76.4174 74.9793 12.445 26.0 0.0323013 0.11666 0.14466 0.0549288 0.143738 0.0565486 0.22998 0.0469246 0.0229986 0.0806805 0.0273743 0.293103 0.0540695 0.311708
9929 3 75.3988 72.8513 11.6815 23.0 0.0319939 0.0336068 0.261198 0.0256955 0.178944 0.0463985 0.247666 0.0191253 0.0193208 0.0907217 0.0505244 0.390812 0.053192 0.255577
9207 3 73.0464 76.3265 12.7095 25.0 0.0265341 0.0563345 0.184252 0.0417925 0.174789 0.0395407 0.221324 0.0177012 0.0272476 0.0825656 0.0587503 0.380199 0.0603138 0.252314
9203 1 74.0803 74.221 14.3782 24.0 0.0198414 0.130228 0.169974 0.0443141 0.138423 0.0633447 0.202573 0.0442224 0.0250722 0.094213 0.021819 0.284304 0.0380666 0.314455
9205 2 73.8329 73.0995 17.4804 26.0 0.0392941 0.0524014 0.234921 0.0771365 0.150174 0.0503592 0.241013 0.04068 0.0351616 0.270391 0.0308193 0.297997 0.0374032 0.135063
9209 3 72.9156 76.6023 15.717 22.0 0.0322612 0.0401177 0.245069 0.0529335 0.182538 0.0574766 0.248068 0.00962443 0.0333646 0.0843736 0.0590624 0.375788 0.0629757 0.24402
9211 3 73.202 73.7268 16.1455 25.0 0.0309475 0.0962574 0.174079 0.042846 0.163944 0.0594904 0.227173 0.0101433 0.015096 0.0905895 0.0315272 0.359476 0.030222 0.229107
9933 3 75.55 75.5013 14.2281 26.0 0.0254497 0.0642234 0.211312 0.0505066 0.162332 0.0400586 0.231761 0.0115917 0.0137147 0.0996893 0.0308044 0.391511 0.0303133 0.251222
9936 3 75.5583 75.6082 16.8804 25.0 0.0286953 0.107269 0.141119 0.0442735 0.169493 0.0527639 0.215573 0.0088844 0.0150964 0.102755 0.032797 0.388375 0.0289043 0.244159
9957 3 77.984 73.7486 16.5718 25.0 0.0316126 0.101672 0.14611 0.0522363 0.185805 0.0483002 0.243009 0.005482 0.0116288 0.105501 0.0279817 0.394448 0.0290285 0.248551
10772 3 73.0284 71.0959 20.4994 24.0 0.0279494 0.0581811 0.23291 0.0317703 0.175014 0.0397489 0.238354 0.0172741 0.0239306 0.0907316 0.068327 0.386562 0.0731243 0.253229
10939 1 74.0627 74.136 20.4707 25.0 0.0189609 0.125667 0.180431 0.047552 0.142906 0.0613643 0.197285 0.0372149 0.0248094 0.0830077 0.0244382 0.285354 0.0388716 0.311089
10943 3 72.9535 76.3177 18.7203 25.0 0.0259101 0.0572533 0.192317 0.0388278 0.176784 0.0373265 0.230351 0.0201324 0.0243979 0.0883567 0.0597948 0.378752 0.0598833 0.250295
10950 3 73.1656 73.5834 18.8401 27.0 0.0308554 0.0567505 0.200307 0.0494036 0.186089 0.0398192 0.219088 0.0103356 0.0187285 0.0867223 0.0359757 0.367864 0.0377447 0.232466
11661 1 76.434 74.9991 18.4825 26.0 0.0378987 0.125515 0.13398 0.0524376 0.145433 0.0724779 0.236041 0.0354399 0.028125 0.0817592 0.0308275 0.285292 0.0549685 0.313093
11665 3 75.3725 72.8791 17.7205 23.0 0.0322006 0.0305544 0.26301 0.0326435 0.187156 0.0430518 0.243399 0.017012 0.0227158 0.0915837 0.0517499 0.390558 0.055906 0.254799
11667 3 75.2637 72.5064 20.8046 24.0 0.0287995 0.0306723 0.229311 0.0330472 0.173938 0.0458083 0.24735 0.00889218 0.0327785 0.10267 0.0468945 0.391565 0.0596639 0.248414
11669 3 75.4404 75.4785 20.2565 25.0 0.0189123 0.10202 0.224452 0.0402627 0.151807 0.0530721 0.236404 0.0110264 0.0126043 0.112712 0.0258348 0.391593 0.0234944 0.243114
10945 3 72.7666 76.5547 21.7783 23.0 0.0329742 0.0202205 0.251889 0.0527053 0.172416 0.0538834 0.243903 0.011473 0.0288219 0.0877439 0.0490704 0.379203 0.0599917 0.245703
1249 3 75.3799 72.8844 29.8059 23.0 0.0303505 0.0318297 0.242947 0.0326083 0.178126 0.0470198 0.234907 0.0184748 0.0160226 0.0997429 0.0467623 0.387208 0.0491278 0.258333
12677 2 73.8508 72.9822 29.5533 25.0 0.0461617 0.102226 0.214787 0.0793674 0.180177 0.0717414 0.231152 0.041451 0.0342838 0.265762 0.0317125 0.301205 0.0346017 0.128297
521 1 74.2008 76.9958 29.4055 30.0 0.0231691 0.0871375 0.213221 0.0522103 0.163218 0.0827086 0.229527 0.0191118 0.0160686 0.0605035 0.0544296 0.262453 0.0574972 0.312739
10941 2 73.8187 73.1165 23.5558 26.0 0.0494458 0.113198 0.212741 0.0695408 0.171403 0.0688228 0.230357 0.0411712 0.0351197 0.267748 0.0313864 0.299338 0.038734 0.132064
10947 3 73.1576 73.6856 22.1807 23.0 0.0283428 0.094564 0.182861 0.047055 0.157253 0.0498809 0.204377 0.010973 0.0189052 0.0923831 0.0288516 0.36621 0.0315674 0.226534
11672 3 75.5476 75.6241 22.8445 25.0 0.0306839 0.100948 0.145034 0.049831 0.161648 0.0461942 0.216864 0.00784964 0.0178326 0.111084 0.0435629 0.397115 0.0447593 0.241672
12672 1 74.1062 77.4984 25.838 28.0 0.0284482 0.0497152 0.198693 0.0527016 0.144269 0.0586357 0.248307 0.0145175 0.0366105 0.084857 0.0456149 0.279096 0.058718 0.308037
12673 1 74.0814 77.005 23.312 30.0 0.0279376 0.0847617 0.204855 0.0526573 0.168315 0.0826998 0.23328 0.015807 0.0260195 0.0626018 0.0504894 0.259617 0.0628253 0.310448
12675 1 74.0135 74.3304 26.5269 25.0 0.0188003 0.108579 0.14075 0.0400299 0.146136 0.0606187 0.185454 0.0384878 0.0247618 0.0865638 0.0227113 0.284894 0.0431578 0.30277
12679 3 72.9186 76.3349 24.7426 25.0 0.0260394 0.0558479 0.185229 0.0386319 0.165743 0.0348607 0.209545 0.0186434 0.0249917 0.0890454 0.0555417 0.381794 0.0580207 0.251137
12681 3 72.8498 76.4476 27.7829 22.0 0.0349555 0.0464647 0.242955 0.05048 0.180353 0.0649783 0.219779 0.0101517 0.0330571 0.0875103 0.0589131 0.375173 0.0605775 0.244098
12683 3 73.2123 73.6108 28.2211 23.0 0.0296209 0.091005 0.173993 0.0480136 0.162848 0.0614974 0.224191 0.0086701 0.0151476 0.0993486 0.0301059 0.361776 0.0254619 0.234329
12686 3 73.126 73.6101 24.8858 26.0 0.0292636 0.0695467 0.194837 0.0419353 0.18616 0.0427421 0.225212 0.00857626 0.0160662 0.0940136 0.0398803 0.368409 0.0376538 0.23365
13397 1 76.4593 75.1075 24.5268 26.0 0.0379368 0.12031 0.128216 0.0519279 0.131318 0.0623606 0.235743 0.0526345 0.0458435 0.0956307 0.037166 0.299168 0.0473807 0.309468
13399 2 76.1067 76.3386 27.485 25.0 0.0313147 0.0705364 0.244018 0.0499735 0.180061 0.0416962 0.234591 0.0344676 0.0205863 0.251729 0.0537562 0.279347 0.0606918 0.123749
13401 3 75.3562 72.9643 23.8203 24.0 0.0304088 0.0351749 0.256532 0.0292762 0.178839 0.0458378 0.247696 0.0251256 0.0198219 0.0989481 0.0581593 0.392261 0.0641542 0.254262
13405 3 75.4415 75.6566 26.2171 25.0 0.0210759 0.0886888 0.203577 0.0345222 0.153306 0.045939 0.201547 0.0114728 0.0144938 0.110608 0.0324396 0.396323 0.0339876 0.247124