ITEM: TIMESTEP
0
ITEM: NUMBER OF ATOMS
10500
ITEM: BOX BOUNDS xy xz yz pp pp pp
0.0000000000000000e+00 1.5297450000000000e+01 5.0990000000000002e+00
0.0000000000000000e+00 1.1872499999999999e+02 0.0000000000000000e+00
0.0000000000000000e+00 8.9688000000000002e+01 0.0000000000000000e+00
ITEM: ATOMS id type element xu yu zu q c_pe c_s[1] c_s[2] c_s[3] c_s[4] c_s[5] c_s[6]
1 1 Mg 6.2404 -6.37941e-06 0 1.2 -4.45328 7.92437e+06 -1.90955e+06 -6.14085e+06 -17262.1 2.61715e+06 -236638
2 1 Mg 3.46349 4.70768 1.4948 1.2 -8.53306 -244334 2.67647e+06 4.33543e+06 -934797 -627763 77422.5
3 2 Si 5.2885 2.02354 1.4948 2.4 -35.3101 1.00837e+07 1.09006e+07 1.13812e+07 8.86104e+06 694554 -3.12911e+06
4 3 O 5.33628 3.63678 1.4948 -1.2 -4.68147 -880194 -1.42438e+06 -3.36933e+07 -332804 3.81261e+06 -3.86088e+06
5 3 O 1.67294 1.04952 1.4948 -1.2 -1.02534 -2.0363e+07 -7.93799e+07 -2.14013e+06 -2.41307e+07 -117494 -61516.3
6 3 O 4.59532 1.31737 0.196716 -1.2 -3.00122 -1.99426e+06 -6.63248e+06 -3.05441e+07 -6.02926e+06 6.24693e+06 -2.62223e+06
7 1 Mg 6.18956 -6.37941e-06 2.9896 1.2 -4.95709 1.59089e+06 -2.82613e+07 -2.93192e+06 -8.84392e+06 2.46869e+06 4.00912e+06
8 3 O 4.55118 1.31737 2.79288 -1.2 -7.47684 92934.7 -4.66071e+06 -3.1937e+06 -2.96184e+06 -3.40812e+06 -1.09436e+06
9 1 Mg -1.20682 0.0413099 4.4844 1.2 8.88182 -3.07291e+07 -9.34727e+07 -152847 -2.85021e+07 -1.23498e+06 133945
10 2 Si -3.0337 2.72544 4.4844 2.4 -33.2083 1.44682e+07 6.8548e+06 8.25658e+06 1.5893e+06 154495 -645541
11 3 O -3.08099 1.11221 4.4844 -1.2 -9.57338 -6.21534e+06 109504 -2.25897e+06 -1.21025e+06 -248210 281638
12 3 O 0.582463 3.69946 4.4844 -1.2 -8.92662 -3.30257e+06 -5.40917e+06 -2.95129e+06 -569065 -142192 -100634
13 3 O -2.29524 3.43162 3.18632 -1.2 -9.01869 -4.27488e+06 -2.46704e+06 -644262 1.09513e+06 -839217 -931060
14 3 O -2.34216 3.43162 5.78248 -1.2 -8.79715 -3.97818e+06 -3.11372e+06 -1.71438e+06 798089 551794 1.31626e+06
15 1 Mg 1.12778 2.37449 2.9896 1.2 -7.6347 5.2275e+06 -1.69892e+06 -616576 -3.2784e+06 -4.205e+06 -2.26028e+06
16 1 Mg 3.92855 2.33318 4.4844 1.2 -8.49883 -4.0929e+06 4.85964e+06 4.87662e+06 1.38885e+06 294706 485610
17 2 Si 2.09341 4.39804 4.4844 2.4 -32.4686 1.21259e+07 6.67079e+06 9.14992e+06 200686 -294065 549915
18 3 O 2.09991 6.01128 4.4844 -1.2 -9.43429 -4.07611e+06 66070.9 -4.03137e+06 540680 -144014 -119168
19 3 O -4.52137 3.42402 4.4844 -1.2 -9.13413 -2.98362e+06 -2.81823e+06 -3.66058e+06 -2.41506e+06 -879761 54594.8
20 3 O 2.80834 3.69187 3.18632 -1.2 -9.29037 -2.18497e+06 -2.76813e+06 -483272 456993 -478739 -488425
21 1 Mg 1.17857 2.37449 0 1.2 -5.1642 -549274 -1.48738e+07 -6.3865e+06 6.52053e+06 1.20393e+06 4.54238e+06
22 3 O 2.76143 3.69187 5.78248 -1.2 -9.30625 -2.83459e+06 -2.3595e+06 -1.31753e+06 527645 62354 -33812.2
23 1 Mg -1.67381 2.41581 1.4948 1.2 -7.61353 1.60711e+06 -263740 4.12103e+06 1.35316e+06 -581089 986277
24 2 Si 0.16286 0.350945 1.4948 2.4 -24.5972 -8.14108e+06 1.23383e+07 1.15099e+07 1.58169e+06 2.8286e+06 1.12959e+06
25 3 O 0.15972 -1.26229 1.4948 -1.2 -4.75199 -1.06896e+07 -7.95295e+06 -2.90166e+07 -5.59616e+06 -8.53043e+06 -2.60822e+06
26 3 O 6.77654 1.32496 1.4948 -1.2 -10.3294 -5.77438e+06 1.8166e+06 -1.4374e+06 -641527 -652998 1.10376e+06
27 3 O -0.508028 1.05712 0.196716 -1.2 -9.50205 62934.8 -4.62153e+06 -748485 -549765 193072 -4.50207e+06
28 3 O -0.552171 1.05712 2.79288 -1.2 -6.77377 -5.3607e+06 -4.54524e+06 -2.47202e+07 1.42203e+06 -6.78114e+06 -5.4954e+06
29 1 Mg 6.31713 4.74899 0 1.2 -5.00035 468111 -1.29139e+07 -6.09511e+06 -7.31065e+06 1.43203e+06 -3.6196e+06
30 1 Mg 3.54847 9.45668 1.4948 1.2 -8.41913 413564 1.68325e+06 4.46682e+06 -957180 -926415 -291456
31 2 Si 5.36879 6.77254 1.4948 2.4 -34.4448 7.54197e+06 1.20068e+07 1.1586e+07 1.66427e+06 160638 -1.90609e+06
32 3 O 5.41937 8.38578 1.4948 -1.2 -4.67514 -466923 -905485 -3.52399e+07 766219 1.0997e+06 -4.26249e+06
33 3 O 1.75158 5.79852 1.4948 -1.2 -9.43457 -4.09995e+06 -2.33976e+06 -1.45713e+06 1.96762e+06 -1.5846e+06 -1.35748e+06
34 3 O 4.67421 6.06637 0.196716 -1.2 -3.69744 26986.6 -1.01135e+07 -3.14696e+07 -2.00891e+06 1.29777e+06 -4.44237e+06
35 1 Mg 6.26654 4.74899 2.9896 1.2 -8.07993 4.20816e+06 -1.70909e+06 16285.8 1.80111e+06 -832136 1.92976e+06
36 3 O 4.63043 6.06637 2.79288 -1.2 -8.787 -1.72538e+06 -3.93013e+06 -2.22403e+06 935441 -113335 -1.47779e+06
37 1 Mg -1.12976 4.79031 4.4844 1.2 -8.85005 -533720 2.70496e+06 2.87705e+06 -698826 -420705 -103680
38 2 Si -2.9517 7.47444 4.4844 2.4 -33.0032 1.15564e+07 8.76536e+06 8.71225e+06 46119.2 -1041.68 -26109.1
39 3 O -3.00198 5.86121 4.4844 -1.2 -9.37826 -4.10657e+06 -97144.7 -3.78813e+06 55687.1 -244538 40784.3
40 3 O 0.666315 8.44846 4.4844 -1.2 -9.18716 -3.48896e+06 -2.55783e+06 -3.30803e+06 2.13202e+06 -460996 18092.5
41 3 O -2.21213 8.18062 3.18632 -1.2 -9.0107 -3.06952e+06 -3.32995e+06 -705011 1.1042e+06 -307831 -1.46346e+06
42 3 O -2.25864 8.18062 5.78248 -1.2 -8.90325 -3.08308e+06 -3.61329e+06 -1.73287e+06 1.0506e+06 -85787.4 1.33645e+06
43 1 Mg 1.20893 7.12349 2.9896 1.2 -8.07034 4.23548e+06 -1.66322e+06 -92641.6 -1.28527e+06 -1.34381e+06 -1.65519e+06
44 1 Mg 4.00982 7.08218 4.4844 1.2 -8.73844 -715006 2.46542e+06 3.16966e+06 1.02175e+06 -267486 135128
45 2 Si 2.17861 9.14704 4.4844 2.4 -33.004 1.14738e+07 8.76055e+06 8.76979e+06 574558 -78561.3 114101
46 3 O 2.18828 10.7603 4.4844 -1.2 -9.37458 -4.07225e+06 -103700 -3.94044e+06 445895 -181764 -15403.8
47 3 O -4.43805 8.17302 4.4844 -1.2 -9.22363 -3.49967e+06 -2.544e+06 -3.21814e+06 -1.52984e+06 -500838 -70941
48 3 O 2.89193 8.44087 3.18632 -1.2 -9.02507 -2.92932e+06 -3.50956e+06 -796026 -924022 -224364 1.2439e+06
49 1 Mg 1.25915 7.12349 0 1.2 -5.39668 1.10604e+06 -7.60299e+06 -6.30479e+06 5.8979e+06 1.36566e+06 2.62119e+06
50 3 O 2.84547 8.44087 5.78248 -1.2 -8.91764 -3.00585e+06 -3.71273e+06 -1.83992e+06 -880281 -144495 -1.21432e+06
51 1 Mg -1.59284 7.16481 1.4948 1.2 -8.32647 943226 1.32626e+06 4.34432e+06 1.45794e+06 -912480 352537
52 2 Si 0.240329 5.09994 1.4948 2.4 -34.1812 8.48079e+06 1.08732e+07 1.13591e+07 -1.95996e+06 -1.07324e+06 1.94711e+06
53 3 O 0.234538 3.48671 1.4948 -1.2 -5.18144 -1.84395e+06 441942 -3.38306e+07 399036 5.18837e+06 3.97821e+06
54 3 O 6.85564 6.07396 1.4948 -1.2 -9.51287 -4.52277e+06 -1.78883e+06 -1.42177e+06 -1.34249e+06 -1.84087e+06 1.15624e+06
55 3 O -0.429565 5.80612 0.196716 -1.2 -3.95159 -790474 -8.7534e+06 -3.15612e+07 1.85065e+06 1.19655e+06 4.55637e+06
56 3 O -0.473377 5.80612 2.79288 -1.2 -8.87412 -2.24117e+06 -3.50369e+06 -2.09489e+06 -780741 314319 1.30307e+06
57 1 Mg 6.40169 9.49799 0 1.2 -5.3694 1.70808e+06 -6.48118e+06 -6.55946e+06 -5.48872e+06 1.00308e+06 -2.4251e+06
58 1 Mg 3.64209 14.2057 1.4948 1.2 -8.49073 332129 1.72494e+06 4.58038e+06 -1.03326e+06 -971971 -290904
59 2 Si 5.45748 11.5215 1.4948 2.4 -34.4489 7.86617e+06 1.15651e+07 1.16862e+07 895100 348327 -2.13115e+06
60 3 O 5.51101 13.1348 1.4948 -1.2 -4.7031 -664414 -798075 -3.4925e+07 467303 -2.53915e+06 -4.34185e+06
61 3 O 1.83851 10.5475 1.4948 -1.2 -9.48483 -4.36446e+06 -1.80727e+06 -1.3728e+06 1.53866e+06 -1.57562e+06 -1.10707e+06
62 3 O 4.7611 10.8154 0.196716 -1.2 -3.52928 419307 -1.14141e+07 -3.20533e+07 -2.46944e+06 -1.76178e+06 -4.31028e+06
63 1 Mg 6.35203 9.49799 2.9896 1.2 -8.0575 4.25043e+06 -1.67962e+06 -93690 1.31371e+06 -1.17766e+06 2.01805e+06
64 3 O 4.71833 10.8154 2.79288 -1.2 -8.78643 -1.98056e+06 -3.69859e+06 -2.21118e+06 1.05011e+06 26486.7 -1.32334e+06
65 1 Mg -1.0438 9.53931 4.4844 1.2 -8.76616 -727816 2.42122e+06 3.1832e+06 -571426 -291232 -19606.9
66 2 Si -2.8604 12.2234 4.4844 2.4 -33.0356 1.16271e+07 8.70837e+06 8.75163e+06 -54691.4 -60307.9 29796.5
67 3 O -2.91391 10.6102 4.4844 -1.2 -9.38231 -4.0742e+06 -86394.3 -3.83286e+06 226130 -190115 -36004.2
68 3 O 0.7596 13.1975 4.4844 -1.2 -9.15873 -3.49674e+06 -2.60397e+06 -3.30416e+06 2.14475e+06 -486752 38584
69 3 O -2.12001 12.9296 3.18632 -1.2 -8.98246 -3.03927e+06 -3.37193e+06 -743834 1.15733e+06 -228939 -1.51381e+06
70 3 O -2.16532 12.9296 5.78248 -1.2 -8.87471 -3.10694e+06 -3.60216e+06 -1.76265e+06 1.11837e+06 -90189 1.36231e+06
71 1 Mg 1.29891 11.8725 2.9896 1.2 -8.08775 4.31519e+06 -1.63454e+06 -176370 -1.17778e+06 -1.22493e+06 -1.68386e+06
72 1 Mg 4.10033 11.8312 4.4844 1.2 -8.76383 -576362 2.4277e+06 3.11137e+06 1.12071e+06 -300317 80181.5
73 2 Si 2.27333 13.896 4.4844 2.4 -33.0478 1.15829e+07 8.78657e+06 8.70186e+06 671857 -77384.8 51562.7
74 3 O 2.28634 15.5093 4.4844 -1.2 -9.35623 -4.11859e+06 -116983 -3.91322e+06 464293 -169969 -5306.44
75 3 O -4.34533 12.922 4.4844 -1.2 -9.20777 -3.59737e+06 -2.49548e+06 -3.1931e+06 -1.4657e+06 -472557 -68494.5
76 3 O 2.98455 13.1899 3.18632 -1.2 -9.00609 -3.00952e+06 -3.48279e+06 -795997 -957271 -151011 1.29491e+06
77 1 Mg 1.34779 11.8725 0 1.2 -5.61584 2.96158e+06 -2.88988e+06 -6.62344e+06 3.56444e+06 801900 1.6012e+06
78 3 O 2.93934 13.1899 5.78248 -1.2 -8.88862 -3.05801e+06 -3.72208e+06 -1.83761e+06 -924367 -155943 -1.19917e+06
79 1 Mg -1.50344 11.9138 1.4948 1.2 -8.4315 657660 1.64478e+06 4.46342e+06 1.56202e+06 -942492 416183
80 2 Si 0.326006 9.84894 1.4948 2.4 -34.4102 7.90371e+06 1.16121e+07 1.1512e+07 -606380 105660 2.31739e+06
81 3 O 0.317364 8.23571 1.4948 -1.2 -4.67875 -593288 -771357 -3.53712e+07 -123899 1.18276e+06 4.16252e+06
82 3 O 6.94307 10.823 1.4948 -1.2 -9.52239 -4.50847e+06 -1.62688e+06 -1.30862e+06 -984333 -1.53448e+06 1.03749e+06
83 3 O -0.343122 10.5551 0.196716 -1.2 -3.62761 123003 -1.0873e+07 -3.21053e+07 2.46276e+06 -2.0474e+06 4.48652e+06
84 3 O -0.385966 10.5551 2.79288 -1.2 -8.8196 -2.01989e+06 -3.74786e+06 -2.21439e+06 -858565 91542.5 1.10687e+06
85 1 Mg 6.49448 14.247 0 1.2 -5.58755 3.43629e+06 -2.08565e+06 -6.7614e+06 -2.96648e+06 254229 -1.51759e+06
86 1 Mg 3.74457 18.9547 1.4948 1.2 -8.57529 139243 1.87572e+06 4.68079e+06 -1.11719e+06 -975527 -239415
87 2 Si 5.55495 16.2705 1.4948 2.4 -34.445 8.15958e+06 1.1281e+07 1.16892e+07 528828 790744 -2.25195e+06
88 3 O 5.6115 17.8838 1.4948 -1.2 -5.01263 -1.69622e+06 -719121 -3.22453e+07 77243.2 -6.05254e+06 -4.15979e+06
89 3 O 1.93416 15.2965 1.4948 -1.2 -9.51052 -4.45439e+06 -1.48685e+06 -1.31236e+06 1.53561e+06 -1.37311e+06 -1.04647e+06
90 3 O 4.85636 15.5644 0.196716 -1.2 -3.53999 412256 -1.31125e+07 -3.04975e+07 -3.03485e+06 -5.1243e+06 -3.74579e+06
91 1 Mg 6.44662 14.247 2.9896 1.2 -8.06117 4.36486e+06 -1.70288e+06 -179936 1.29028e+06 -1.19104e+06 2.01511e+06
92 3 O 4.81537 15.5644 2.79288 -1.2 -8.76041 -1.99936e+06 -3.71727e+06 -2.24629e+06 1.06814e+06 -18216.3 -1.29705e+06
93 1 Mg -0.948271 14.2883 4.4844 1.2 -8.79214 -752384 2.44964e+06 3.21305e+06 -555360 -278250 -19145.8
94 2 Si -2.75928 16.9724 4.4844 2.4 -33.0684 1.1694e+07 8.73138e+06 8.71603e+06 -31342.3 -93920 43448.1
95 3 O -2.81617 15.3592 4.4844 -1.2 -9.36319 -4.10631e+06 -96089.5 -3.8141e+06 280218 -163999 -34617.3
96 3 O 0.862762 17.9465 4.4844 -1.2 -9.14309 -3.53216e+06 -2.62636e+06 -3.27678e+06 2.17519e+06 -480707 31904.4
97 3 O -2.0185 17.6786 3.18632 -1.2 -8.96024 -3.0449e+06 -3.39278e+06 -772686 1.16361e+06 -147736 -1.52552e+06
98 3 O -2.06164 17.6786 5.78248 -1.2 -8.85527 -3.11848e+06 -3.60958e+06 -1.75866e+06 1.13169e+06 -72965.1 1.36209e+06
99 1 Mg 1.39817 16.6215 2.9896 1.2 -8.09057 4.42463e+06 -1.63367e+06 -284323 -1.16629e+06 -1.22706e+06 -1.65136e+06
100 1 Mg 4.20062 16.5802 4.4844 1.2 -8.7824 -550397 2.43428e+06 3.11035e+06 1.1499e+06 -287050 74972.7
101 2 Si 2.37796 18.645 4.4844 2.4 -33.0729 1.16517e+07 8.81119e+06 8.64735e+06 703406 -96848.8 57450
102 3 O 2.39434 20.2583 4.4844 -1.2 -9.34455 -4.14517e+06 -132229 -3.89438e+06 497723 -147314 -16887.5
103 3 O -4.24274 17.671 4.4844 -1.2 -9.19506 -3.64298e+06 -2.50315e+06 -3.16179e+06 -1.42726e+06 -464658 -72706.2
104 3 O 3.08659 17.9389 3.18632 -1.2 -8.98797 -3.02552e+06 -3.50585e+06 -825533 -941917 -66964.8 1.2839e+06
105 1 Mg 1.44478 16.6215 0 1.2 -5.73322 4.63224e+06 91312.4 -6.64409e+06 1.39663e+06 -56317.7 900407
106 3 O 3.0436 17.9389 5.78248 -1.2 -8.87311 -3.07302e+06 -3.73438e+06 -1.83213e+06 -917320 -155108 -1.20403e+06
107 1 Mg -1.40524 16.6628 1.4948 1.2 -8.51583 488131 1.7955e+06 4.56973e+06 1.68917e+06 -965670 377683
108 2 Si 0.420358 14.5979 1.4948 2.4 -34.4412 8.03509e+06 1.14614e+07 1.15652e+07 -135745 563775 2.50184e+06
109 3 O 0.408732 12.9847 1.4948 -1.2 -4.69201 -693637 -784360 -3.50616e+07 225499 -2.55981e+06 4.24793e+06
110 3 O 7.03923 15.572 1.4948 -1.2 -9.54866 -4.5814e+06 -1.33601e+06 -1.24326e+06 -946083 -1.30845e+06 1.00675e+06
111 3 O -0.248332 15.3041 0.196716 -1.2 -3.6431 81150.7 -1.26405e+07 -3.05264e+07 3.25602e+06 -5.41579e+06 3.991e+06
112 3 O -0.289436 15.3041 2.79288 -1.2 -8.7924 -1.996e+06 -3.81856e+06 -2.25371e+06 -853599 38396.3 1.07027e+06
113 1 Mg 6.59566 18.996 0 1.2 -5.71809 4.83489e+06 531980 -6.52524e+06 -914239 -673958 -894747
114 1 Mg 3.85574 23.7037 1.4948 1.2 -8.66518 -123515 2.06236e+06 4.7611e+06 -1.18868e+06 -921786 -161940
115 2 Si 5.66125 21.0195 1.4948 2.4 -34.3815 8.63293e+06 1.08757e+07 1.15813e+07 182918 1.21637e+06 -2.27256e+06
116 3 O 5.72074 22.6328 1.4948 -1.2 -5.60756 -3.38748e+06 -611259 -2.73677e+07 -216694 -8.50785e+06 -3.72256e+06
117 3 O 2.03867 20.0455 1.4948 -1.2 -9.53026 -4.48136e+06 -1.23305e+06 -1.30513e+06 1.57127e+06 -1.14766e+06 -1.0068e+06
118 3 O 4.96004 20.3134 0.196716 -1.2 -3.85792 -322120 -1.45312e+07 -2.66488e+07 -3.1836e+06 -7.93635e+06 -2.77015e+06
119 1 Mg 6.55057 18.996 2.9896 1.2 -8.05812 4.4682e+06 -1.7074e+06 -283095 1.30149e+06 -1.20463e+06 2.01055e+06
120 3 O 4.92172 20.3134 2.79288 -1.2 -8.74182 -2.00937e+06 -3.75586e+06 -2.26427e+06 1.08103e+06 -80479.5 -1.28548e+06
121 1 Mg -0.84282 19.0373 4.4844 1.2 -8.80915 -763486 2.46773e+06 3.22522e+06 -525424 -265485 -5714.36
122 2 Si -2.64823 21.7214 4.4844 2.4 -33.0898 1.17379e+07 8.7558e+06 8.68475e+06 4864.78 -122179 72059.9
123 3 O -2.70847 20.1082 4.4844 -1.2 -9.35086 -4.12623e+06 -112107 -3.79033e+06 318093 -138676 -40389.1
124 3 O 0.97581 22.6955 4.4844 -1.2 -9.13292 -3.5648e+06 -2.64505e+06 -3.24766e+06 2.20806e+06 -461531 17490.5
125 3 O -1.9076 22.4276 3.18632 -1.2 -8.93999 -3.03677e+06 -3.41505e+06 -828745 1.16433e+06 -64124.2 -1.53969e+06
126 3 O -1.9475 22.4276 5.78248 -1.2 -8.84165 -3.11561e+06 -3.61266e+06 -1.74958e+06 1.14381e+06 -49697.3 1.3548e+06
127 1 Mg 1.50678 21.3705 2.9896 1.2 -8.08701 4.52672e+06 -1.63024e+06 -395508 -1.16093e+06 -1.25622e+06 -1.60504e+06
128 1 Mg 4.31086 21.3292 4.4844 1.2 -8.79505 -542598 2.4475e+06 3.11124e+06 1.1756e+06 -266362 82231.6
129 2 Si 2.49243 23.394 4.4844 2.4 -33.0904 1.16896e+07 8.83658e+06 8.61131e+06 728518 -121194 75446.5
130 3 O 2.51204 25.0073 4.4844 -1.2 -9.33578 -4.15879e+06 -146156 -3.88478e+06 529665 -118624 -31321.5
131 3 O -4.13026 22.42 4.4844 -1.2 -9.18866 -3.68305e+06 -2.51259e+06 -3.12423e+06 -1.39362e+06 -446577 -84880.2
132 3 O 3.19799 22.6879 3.18632 -1.2 -8.97088 -3.0189e+06 -3.53809e+06 -884893 -921678 22116 1.26098e+06
133 1 Mg 1.5501 21.3705 0 1.2 -5.80429 5.52659e+06 1.62775e+06 -6.18257e+06 -67007.2 -975686 471993
134 3 O 3.1583 22.6879 5.78248 -1.2 -8.86247 -3.06746e+06 -3.74569e+06 -1.82551e+06 -909190 -141243 -1.21437e+06
135 1 Mg -1.29822 21.4118 1.4948 1.2 -8.60507 261095 1.96787e+06 4.66298e+06 1.80607e+06 -939876 320235
136 2 Si 0.523568 19.3469 1.4948 2.4 -34.4093 8.39152e+06 1.11375e+07 1.15097e+07 306670 995806 2.62883e+06
137 3 O 0.508934 17.7337 1.4948 -1.2 -5.00215 -1.72877e+06 -711675 -3.2372e+07 669083 -6.08263e+06 4.05646e+06
138 3 O 7.14425 20.321 1.4948 -1.2 -9.57028 -4.61041e+06 -1.0894e+06 -1.23531e+06 -937676 -1.07288e+06 983396
139 3 O -0.145107 20.0531 0.196716 -1.2 -3.96188 -693769 -1.41991e+07 -2.66466e+07 3.67992e+06 -8.20226e+06 3.05185e+06
140 3 O -0.183601 20.0531 2.79288 -1.2 -8.7759 -2.00101e+06 -3.87125e+06 -2.27157e+06 -842975 -14985.1 1.0236e+06
141 1 Mg 6.70502 23.745 0 1.2 -5.82414 5.36228e+06 1.81698e+06 -5.78396e+06 411807 -1.49345e+06 -535607
142 1 Mg 3.97493 28.4527 1.4948 1.2 -8.75462 -444493 2.26244e+06 4.79265e+06 -1.22475e+06 -783542 -75327.7
143 2 Si 5.77602 25.7685 1.4948 2.4 -34.2603 9.28847e+06 1.03224e+07 1.13725e+07 -119304 1.53707e+06 -2.18975e+06
144 3 O 5.83821 27.3818 1.4948 -1.2 -6.4004 -5.13688e+06 -484452 -2.12395e+07 -338351 -9.2919e+06 -3.12555e+06
145 3 O 2.15175 24.7945 1.4948 -1.2 -9.53902 -4.46177e+06 -1.04264e+06 -1.36703e+06 1.61455e+06 -921137 -979269
146 3 O 5.07184 25.0624 0.196716 -1.2 -4.47787 -1.6011e+06 -1.51962e+07 -2.10904e+07 -2.78261e+06 -9.4237e+06 -1.50918e+06
147 1 Mg 6.66374 23.745 2.9896 1.2 -8.05043 4.56322e+06 -1.70968e+06 -385251 1.31103e+06 -1.24035e+06 2.00781e+06
148 3 O 5.03707 25.0624 2.79288 -1.2 -8.73122 -2.03925e+06 -3.78337e+06 -2.26367e+06 1.09497e+06 -148447 -1.27743e+06
149 1 Mg -0.727559 23.7863 4.4844 1.2 -8.82175 -778548 2.48122e+06 3.23913e+06 -496244 -242976 13574
150 2 Si -2.5277 26.4704 4.4844 2.4 -33.106 1.17603e+07 8.77671e+06 8.67138e+06 39309.7 -147866 99412.3
151 3 O -2.59107 24.8572 4.4844 -1.2 -9.34201 -4.1361e+06 -125827 -3.77347e+06 353498 -109994 -47992.1
152 3 O 1.09817 27.4445 4.4844 -1.2 -9.12614 -3.59636e+06 -2.66094e+06 -3.21699e+06 2.23842e+06 -428299 3798.71
153 3 O -1.78784 27.1766 3.18632 -1.2 -8.91902 -3.01275e+06 -3.43887e+06 -920541 1.16277e+06 16750.8 -1.54912e+06
154 3 O -1.82343 27.1766 5.78248 -1.2 -8.83062 -3.10001e+06 -3.6124e+06 -1.7393e+06 1.1565e+06 -19958.8 1.34889e+06
155 1 Mg 1.62435 26.1195 2.9896 1.2 -8.0809 4.61637e+06 -1.62574e+06 -496389 -1.15109e+06 -1.30994e+06 -1.55881e+06
156 1 Mg 4.43064 26.0782 4.4844 1.2 -8.80439 -539131 2.4576e+06 3.11396e+06 1.1993e+06 -237486 88634.9
157 2 Si 2.61607 28.143 4.4844 2.4 -33.1045 1.17047e+07 8.86018e+06 8.59577e+06 749435 -143888 89370
158 3 O 2.63853 29.7563 4.4844 -1.2 -9.32843 -4.16234e+06 -158428 -3.88361e+06 557367 -86617.3 -42435.4
159 3 O -4.00841 27.169 4.4844 -1.2 -9.18561 -3.72236e+06 -2.51937e+06 -3.08516e+06 -1.36361e+06 -414674 -95426.8
160 3 O 3.3182 27.4369 3.18632 -1.2 -8.95267 -2.99553e+06 -3.57204e+06 -979658 -900498 108527 1.23577e+06
161 1 Mg 1.66335 26.1195 0 1.2 -5.89275 5.38391e+06 2.24532e+06 -5.2962e+06 -894172 -1.5803e+06 298857
162 3 O 3.28288 27.4369 5.78248 -1.2 -8.85411 -3.04856e+06 -3.75398e+06 -1.81712e+06 -902986 -118831 -1.22269e+06
163 1 Mg -1.18278 26.1608 1.4948 1.2 -8.69659 -35652.6 2.15921e+06 4.72282e+06 1.8869e+06 -834571 248982
164 2 Si 0.635424 24.0959 1.4948 2.4 -34.3186 8.94438e+06 1.0657e+07 1.13594e+07 749206 1.36547e+06 2.6615e+06
165 3 O 0.617906 22.4827 1.4948 -1.2 -5.59852 -3.42918e+06 -602612 -2.74845e+07 1.01153e+06 -8.53801e+06 3.60122e+06
166 3 O 7.25781 25.07 1.4948 -1.2 -9.58048 -4.59375e+06 -907218 -1.29796e+06 -934171 -839159 968221
167 3 O -0.0337363 24.8021 0.196716 -1.2 -4.56902 -1.94561e+06 -1.51534e+07 -2.10551e+07 3.50118e+06 -9.64071e+06 1.78594e+06
168 3 O -0.0687235 24.8021 2.79288 -1.2 -8.7672 -2.02706e+06 -3.91032e+06 -2.27274e+06 -836354 -74005.1 972136
169 1 Mg 6.82195 28.494 0 1.2 -5.95304 4.91874e+06 2.29341e+06 -4.73079e+06 1.1537e+06 -1.82759e+06 -439589
170 1 Mg 4.10106 33.2017 1.4948 1.2 -8.83305 -785257 2.4486e+06 4.73245e+06 -1.20415e+06 -544713 -3465.64
171 2 Si 5.89839 30.5175 1.4948 2.4 -34.0947 1.0051e+07 9.65376e+06 1.10963e+07 -327435 1.67779e+06 -2.01918e+06
172 3 O 5.96289 32.1308 1.4948 -1.2 -7.24618 -6.29435e+06 -362621 -1.51936e+07 -291009 -8.45155e+06 -2.5115e+06
173 3 O 2.27266 29.5435 1.4948 -1.2 -9.53222 -4.40915e+06 -925820 -1.49938e+06 1.65822e+06 -707424 -962044
174 3 O 5.19102 29.8114 0.196716 -1.2 -5.31281 -2.97449e+06 -1.47425e+07 -1.50307e+07 -1.93693e+06 -9.28117e+06 -194747
175 1 Mg 6.78546 28.494 2.9896 1.2 -8.04177 4.64423e+06 -1.71012e+06 -474276 1.31467e+06 -1.29987e+06 2.00133e+06
176 3 O 5.16061 29.8114 2.79288 -1.2 -8.72825 -2.09854e+06 -3.79175e+06 -2.2402e+06 1.10925e+06 -213941 -1.26824e+06
177 1 Mg -0.603205 28.5353 4.4844 1.2 -8.83168 -793359 2.49099e+06 3.25288e+06 -469549 -211481 31463.8
178 2 Si -2.39877 31.2194 4.4844 2.4 -33.1203 1.17617e+07 8.79592e+06 8.67809e+06 69146.4 -168424 115010
179 3 O -2.46483 29.6062 4.4844 -1.2 -9.33466 -4.13694e+06 -137909 -3.76557e+06 384961 -78691.7 -51593.5
180 3 O 1.22864 32.1935 4.4844 -1.2 -9.12165 -3.62698e+06 -2.67362e+06 -3.18587e+06 2.264e+06 -381009 -5140.52
181 3 O -1.66032 31.9256 3.18632 -1.2 -8.8965 -2.97383e+06 -3.46346e+06 -1.04896e+06 1.15879e+06 86091.6 -1.54816e+06
182 3 O -1.69072 31.9256 5.78248 -1.2 -8.82118 -3.07451e+06 -3.61009e+06 -1.72851e+06 1.16842e+06 13915.4 1.34824e+06
183 1 Mg 1.7499 30.8685 2.9896 1.2 -8.07529 4.68731e+06 -1.61907e+06 -576409 -1.13622e+06 -1.38623e+06 -1.52103e+06
184 1 Mg 4.55894 30.8272 4.4844 1.2 -8.81154 -535451 2.46431e+06 3.11614e+06 1.21876e+06 -200421 89144.8
185 2 Si 2.7476 32.892 4.4844 2.4 -33.1173 1.16992e+07 8.88246e+06 8.60109e+06 764775 -160473 92979.9
186 3 O 2.77235 34.5053 4.4844 -1.2 -9.32185 -4.15702e+06 -169824 -3.88994e+06 579102 -54304.3 -47532.6
187 3 O -3.87837 31.918 4.4844 -1.2 -9.1843 -3.76005e+06 -2.52417e+06 -3.04696e+06 -1.33906e+06 -368572 -99570.2
188 3 O 3.44611 32.1859 3.18632 -1.2 -8.93246 -2.95718e+06 -3.60539e+06 -1.10985e+06 -879623 182247 1.21219e+06
189 1 Mg 1.7837 30.8685 0 1.2 -6.02037 4.43215e+06 2.37062e+06 -4.32585e+06 -1.35241e+06 -1.53436e+06 407101
190 3 O 3.41602 32.1859 5.78248 -1.2 -8.84701 -3.02064e+06 -3.75896e+06 -1.80728e+06 -898716 -90952.7 -1.226e+06
191 1 Mg -1.05984 30.9098 1.4948 1.2 -8.7813 -375064 2.34614e+06 4.70922e+06 1.90665e+06 -625992 177946
192 2 Si 0.755243 28.8449 1.4948 2.4 -34.1768 9.64957e+06 1.00369e+07 1.11321e+07 1.13525e+06 1.59677e+06 2.573e+06
193 3 O 0.735127 27.2317 1.4948 -1.2 -6.39265 -5.18512e+06 -475180 -2.13508e+07 1.17448e+06 -9.31848e+06 2.9922e+06
194 3 O 7.37914 29.819 1.4948 -1.2 -9.57439 -4.54219e+06 -800445 -1.43326e+06 -933473 -620842 967980
195 3 O 0.0850649 29.5511 0.196716 -1.2 -5.37824 -3.22593e+06 -1.50921e+07 -1.49719e+07 2.70259e+06 -9.43853e+06 438363
196 3 O 0.0543974 29.5511 2.79288 -1.2 -8.76567 -2.0818e+06 -3.92927e+06 -2.25286e+06 -836121 -131671 924822
197 1 Mg 6.94543 33.243 0 1.2 -6.10533 3.85151e+06 2.34674e+06 -3.79936e+06 1.58442e+06 -1.44169e+06 -651950
198 1 Mg 4.23267 37.9507 1.4948 1.2 -8.88742 -1.07525e+06 2.59522e+06 4.54843e+06 -1.12274e+06 -223664 35140.4
199 2 Si 6.02709 35.2665 1.4948 2.4 -33.9075 1.07981e+07 8.9381e+06 1.08149e+07 -410005 1.60055e+06 -1.79507e+06
200 3 O 6.09339 36.8798 1.4948 -1.2 -8.00531 -6.57114e+06 -267310 -1.02891e+07 -141444 -6.61006e+06 -1.99543e+06
201 3 O 2.40018 34.2925 1.4948 -1.2 -9.50704 -4.33722e+06 -891817 -1.6977e+06 1.69493e+06 -514303 -954289
202 3 O 5.31645 34.5604 0.196716 -1.2 -6.22511 -4.01147e+06 -1.31253e+07 -9.71274e+06 -951736 -7.83589e+06 941095
203 1 Mg 6.91449 33.243 2.9896 1.2 -8.03502 4.70402e+06 -1.70611e+06 -540613 1.31124e+06 -1.38056e+06 1.98931e+06
204 3 O 5.291 34.5604 2.79288 -1.2 -8.73259 -2.18972e+06 -3.7778e+06 -2.19185e+06 1.12199e+06 -266076 -1.25614e+06
205 1 Mg -0.471101 33.2843 4.4844 1.2 -8.83939 -803223 2.49746e+06 3.26281e+06 -446776 -172602 43772.3
206 2 Si -2.26307 35.9684 4.4844 2.4 -33.1338 1.17433e+07 8.81531e+06 8.70323e+06 92595.3 -179685 115711
207 3 O -2.33122 34.3552 4.4844 -1.2 -9.32809 -4.12955e+06 -149428 -3.76614e+06 410535 -47185.8 -48929
208 3 O 1.36549 36.9425 4.4844 -1.2 -9.11885 -3.65508e+06 -2.68342e+06 -3.15641e+06 2.28331e+06 -321495 -7975.74
209 3 O -1.52658 36.6746 3.18632 -1.2 -8.87299 -2.92274e+06 -3.48776e+06 -1.20803e+06 1.15293e+06 132182 -1.53477e+06
210 3 O -1.55122 36.6746 5.78248 -1.2 -8.81312 -3.04197e+06 -3.6068e+06 -1.71707e+06 1.17883e+06 48760.5 1.35328e+06
211 1 Mg 1.882 35.6175 2.9896 1.2 -8.07255 4.73294e+06 -1.60823e+06 -627153 -1.11719e+06 -1.47983e+06 -1.49672e+06
212 1 Mg 4.69415 35.5762 4.4844 1.2 -8.8168 -528605 2.46829e+06 3.11462e+06 1.23292e+06 -157514 82499.2
213 2 Si 2.88522 37.641 4.4844 2.4 -33.1295 1.16752e+07 8.90447e+06 8.62509e+06 773836 -166703 85255.8
214 3 O 2.91159 39.2543 4.4844 -1.2 -9.31588 -4.1442e+06 -180907 -3.90195e+06 594066 -25182.5 -46229.3
215 3 O -3.74183 36.667 4.4844 -1.2 -9.18387 -3.79367e+06 -2.52809e+06 -3.01206e+06 -1.32135e+06 -310098 -96295.8
216 3 O 3.58014 36.9349 3.18632 -1.2 -8.91075 -2.90671e+06 -3.63659e+06 -1.2689e+06 -860629 231333 1.19164e+06
217 1 Mg 1.90997 35.6175 0 1.2 -6.15925 3.21341e+06 2.24789e+06 -3.74044e+06 -1.65794e+06 -775014 852161
218 3 O 3.55582 36.9349 5.78248 -1.2 -8.84099 -2.98726e+06 -3.76107e+06 -1.79595e+06 -896624 -60532.5 -1.22367e+06
219 1 Mg -0.93068 35.6588 1.4948 1.2 -8.84631 -692944 2.50275e+06 4.58259e+06 1.85566e+06 -318978 125596
220 2 Si 0.881882 33.5939 1.4948 2.4 -34.0016 1.04057e+07 9.33048e+06 1.08728e+07 1.40636e+06 1.63069e+06 2.36895e+06
221 3 O 0.859602 31.9807 1.4948 -1.2 -7.23915 -6.34736e+06 -353842 -1.53044e+07 1.16073e+06 -8.47528e+06 2.38108e+06
222 3 O 7.507 34.568 1.4948 -1.2 -9.54936 -4.46826e+06 -778157 -1.63631e+06 -933661 -426546 986601
223 3 O 0.210186 34.3001 0.196716 -1.2 -6.25976 -4.15314e+06 -1.38402e+07 -9.64983e+06 1.53341e+06 -7.94321e+06 -729532
224 3 O 0.184454 34.3001 2.79288 -1.2 -8.77089 -2.16835e+06 -3.92395e+06 -2.20969e+06 -842369 -177928 887834
225 1 Mg 7.07415 37.992 0 1.2 -6.24258 2.7092e+06 2.19202e+06 -3.43172e+06 1.87347e+06 -410638 -1.22242e+06
226 1 Mg 4.36817 42.6997 1.4948 1.2 -8.90732 -1.23912e+06 2.69882e+06 4.25872e+06 -998994 122067 50794.7
227 2 Si 6.16058 40.0155 1.4948 2.4 -33.7266 1.1408e+07 8.25906e+06 1.06016e+07 -369665 1.32578e+06 -1.56057e+06
228 3 O 6.22815 41.6288 1.4948 -1.2 -8.59493 -6.1264e+06 -209840 -6.93765e+06 32276.5 -4.52339e+06 -1.62258e+06
229 3 O 2.53282 39.0415 1.4948 -1.2 -9.46258 -4.25196e+06 -950133 -1.95601e+06 1.71786e+06 -344475 -953661
230 3 O 5.44674 39.3094 0.196716 -1.2 -7.07863 -4.49897e+06 -1.07026e+07 -5.84022e+06 -148181 -5.77467e+06 1.77856e+06
231 1 Mg 7.04922 37.992 2.9896 1.2 -8.03241 4.73641e+06 -1.69539e+06 -576965 1.30052e+06 -1.47603e+06 1.97337e+06
232 3 O 5.42658 39.3094 2.79288 -1.2 -8.74326 -2.30749e+06 -3.74237e+06 -2.12239e+06 1.13147e+06 -294018 -1.24116e+06
233 1 Mg -0.333062 38.0333 4.4844 1.2 -8.8449 -805066 2.50095e+06 3.26582e+06 -429097 -129583 48956
234 2 Si -2.12255 40.7174 4.4844 2.4 -33.1466 1.17081e+07 8.83561e+06 8.74293e+06 108370 -178259 101728
235 3 O -2.19212 39.1042 4.4844 -1.2 -9.32205 -4.11524e+06 -160803 -3.77419e+06 429363 -18516.2 -40457.3
236 3 O 1.50676 41.6915 4.4844 -1.2 -9.11721 -3.67783e+06 -2.69112e+06 -3.13104e+06 2.29619e+06 -253664 -5106.26
237 3 O -1.3884 41.4236 3.18632 -1.2 -8.85021 -2.86565e+06 -3.51056e+06 -1.38293e+06 1.14638e+06 143212 -1.50972e+06
238 3 O -1.40713 41.4236 5.78248 -1.2 -8.80672 -3.00625e+06 -3.6035e+06 -1.70465e+06 1.1872e+06 81645.3 1.36368e+06
239 1 Mg 2.01892 40.3665 2.9896 1.2 -8.07445 4.74843e+06 -1.59153e+06 -643093 -1.09534e+06 -1.58261e+06 -1.48797e+06
240 1 Mg 4.83434 40.3252 4.4844 1.2 -8.82015 -516771 2.46997e+06 3.10703e+06 1.24154e+06 -112410 69823.9
241 2 Si 3.02698 42.39 4.4844 2.4 -33.1412 1.16361e+07 8.92716e+06 8.66294e+06 777466 -158408 68838.9
242 3 O 3.05433 44.0033 4.4844 -1.2 -9.31052 -4.12564e+06 -192089 -3.91746e+06 602861 -2441.57 -39924.2
243 3 O -3.60077 41.416 4.4844 -1.2 -9.18366 -3.82004e+06 -2.53179e+06 -2.98344e+06 -1.31052e+06 -242883 -86136.7
244 3 O 3.71851 41.6839 3.18632 -1.2 -8.88919 -2.85039e+06 -3.66419e+06 -1.44238e+06 -845148 244000 1.17386e+06
245 1 Mg 2.04077 40.3665 0 1.2 -6.26455 2.24779e+06 2.03828e+06 -3.81769e+06 -1.8369e+06 427345 1.60706e+06
246 3 O 3.70011 41.6839 5.78248 -1.2 -8.83604 -2.95191e+06 -3.76124e+06 -1.78349e+06 -896521 -31277.9 -1.21647e+06
247 1 Mg -0.796865 40.4078 1.4948 1.2 -8.87947 -907994 2.62e+06 4.34188e+06 1.74989e+06 38786.9 90697.6
248 2 Si 1.01387 38.3429 1.4948 2.4 -33.8184 1.10849e+07 8.61793e+06 1.06477e+07 1.53102e+06 1.45614e+06 2.08586e+06
249 3 O 0.989947 36.7297 1.4948 -1.2 -7.99897 -6.63009e+06 -260281 -1.03992e+07 1.03763e+06 -6.63224e+06 1.88419e+06
250 3 O 7.63988 39.317 1.4948 -1.2 -9.50471 -4.37806e+06 -849773 -1.89991e+06 -930721 -260047 1.02458e+06
251 3 O 0.340253 39.0491 0.196716 -1.2 -7.08833 -4.57312e+06 -1.16181e+07 -5.79047e+06 386476 -5.85726e+06 -1.56929e+06
252 3 O 0.319795 39.0491 2.79288 -1.2 -8.78196 -2.28233e+06 -3.89444e+06 -2.14605e+06 -853948 -202385 864531
253 1 Mg 7.20667 42.741 0 1.2 -6.32469 1.91444e+06 1.99798e+06 -3.7751e+06 1.99253e+06 919591 -2.07274e+06
254 1 Mg 4.50613 47.4487 1.4948 1.2 -8.88899 -1.23612e+06 2.7832e+06 3.93878e+06 -851984 431826 84620.9
255 2 Si 6.29731 44.7645 1.4948 2.4 -33.5777 1.18058e+07 7.68911e+06 1.0512e+07 -236408 922310 -1.35182e+06
256 3 O 6.36567 46.3778 1.4948 -1.2 -8.99712 -5.34149e+06 -191199 -4.99572e+06 181329 -2.70648e+06 -1.38146e+06
257 3 O 2.669 43.7905 1.4948 -1.2 -9.39964 -4.14739e+06 -1.11317e+06 -2.26832e+06 1.72174e+06 -202119 -955549
258 3 O 5.58048 44.0584 0.196716 -1.2 -7.77886 -4.4512e+06 -8.05511e+06 -3.44921e+06 322288 -3.72567e+06 2.34333e+06
259 1 Mg 7.1879 42.741 2.9896 1.2 -8.03531 4.73793e+06 -1.67651e+06 -579362 1.28337e+06 -1.57775e+06 1.95693e+06
260 3 O 5.56564 44.0584 2.79288 -1.2 -8.75848 -2.43996e+06 -3.69071e+06 -2.04147e+06 1.13693e+06 -290076 -1.22374e+06
261 1 Mg -0.19105 42.7823 4.4844 1.2 -8.848 -797360 2.5022e+06 3.25926e+06 -416541 -86623.9 47314
262 2 Si -1.97909 45.4664 4.4844 2.4 -33.1582 1.16615e+07 8.85671e+06 8.79069e+06 117294 -160840 77537.6
263 3 O -2.04947 43.8532 4.4844 -1.2 -9.3167 -4.09604e+06 -172451 -3.78703e+06 441555 4394.65 -27961.8
264 3 O 1.65063 46.4405 4.4844 -1.2 -9.11616 -3.69296e+06 -2.69711e+06 -3.11285e+06 2.30388e+06 -182196 1577.66
265 3 O -1.24745 46.1726 3.18632 -1.2 -8.83041 -2.81312e+06 -3.53036e+06 -1.55089e+06 1.1407e+06 111307 -1.47647e+06
266 3 O -1.26044 46.1726 5.78248 -1.2 -8.80191 -2.97081e+06 -3.60026e+06 -1.69178e+06 1.19365e+06 110120 1.3771e+06
267 1 Mg 2.15896 45.1155 2.9896 1.2 -8.08195 4.73199e+06 -1.56819e+06 -622227 -1.07239e+06 -1.68512e+06 -1.49424e+06
268 1 Mg 4.97763 45.0742 4.4844 1.2 -8.82163 -499350 2.46989e+06 3.09221e+06 1.24554e+06 -69805.7 53527.9
269 2 Si 3.1711 47.139 4.4844 2.4 -33.152 1.15875e+07 8.94919e+06 8.7095e+06 777191 -133495 47287