ITEM: TIMESTEP
1800
ITEM: NUMBER OF ATOMS
10500
ITEM: BOX BOUNDS xy xz yz pp pp pp
0.0000000000000000e+00 1.5297450000000000e+01 5.0990000000000002e+00
0.0000000000000000e+00 1.1872499999999999e+02 0.0000000000000000e+00
0.0000000000000000e+00 8.9688000000000002e+01 0.0000000000000000e+00
ITEM: ATOMS id type element xu yu zu q c_pe c_s[1] c_s[2] c_s[3] c_s[4] c_s[5] c_s[6]
1 1 Mg 6.2404 -6.37941e-06 0 1.2 -4.22531 7.58093e+06 -1.94746e+06 -6.12477e+06 -20382.8 2.60791e+06 -237076
2 1 Mg 3.46349 4.70768 1.4948 1.2 -8.33459 -557097 2.57162e+06 4.43508e+06 -920437 -639733 3030.44
3 2 Si 5.2885 2.02354 1.4948 2.4 -34.9191 9.51648e+06 1.07654e+07 1.14573e+07 8.87655e+06 661439 -3.1873e+06
4 3 O 5.33628 3.63678 1.4948 -1.2 -4.87889 -581616 -1.33232e+06 -3.37679e+07 -339809 3.82878e+06 -3.80131e+06
5 3 O 1.67294 1.04952 1.4948 -1.2 -1.21072 -2.00312e+07 -7.93362e+07 -2.21838e+06 -2.41325e+07 -110592 -40046.3
6 3 O 4.59532 1.31737 0.196716 -1.2 -3.22653 -1.6506e+06 -6.562e+06 -3.05974e+07 -6.03504e+06 6.26248e+06 -2.57421e+06
7 1 Mg 6.18956 -6.37941e-06 2.9896 1.2 -4.79079 1.42254e+06 -2.829e+07 -3.00136e+06 -8.82953e+06 2.45915e+06 4.06872e+06
8 3 O 4.55118 1.31737 2.79288 -1.2 -7.64163 316397 -4.62557e+06 -3.18976e+06 -2.98568e+06 -3.35987e+06 -1.10458e+06
9 1 Mg -1.20682 0.0413099 4.4844 1.2 8.98101 -3.08985e+07 -9.34405e+07 -171941 -2.8562e+07 -1.09489e+06 240526
10 2 Si -3.0337 2.72544 4.4844 2.4 -32.9575 1.42463e+07 6.72419e+06 8.20936e+06 1.47132e+06 217331 -625381
11 3 O -3.08099 1.11221 4.4844 -1.2 -9.70221 -6.14342e+06 155798 -2.16938e+06 -1.196e+06 -316752 188487
12 3 O 0.582463 3.69946 4.4844 -1.2 -9.03488 -3.04667e+06 -5.40587e+06 -3.03732e+06 -589066 -183388 -42606.9
13 3 O -2.29524 3.43162 3.18632 -1.2 -9.17454 -4.05336e+06 -2.40743e+06 -674602 1.12557e+06 -865787 -885768
14 3 O -2.34216 3.43162 5.78248 -1.2 -8.89978 -4.00469e+06 -3.10351e+06 -1.53031e+06 931286 576413 1.39289e+06
15 1 Mg 1.12778 2.37449 2.9896 1.2 -7.48943 4.93388e+06 -1.72716e+06 -527392 -3.27471e+06 -4.20773e+06 -2.29862e+06
16 1 Mg 3.92855 2.33318 4.4844 1.2 -8.36901 -4.2685e+06 4.85923e+06 4.84327e+06 1.44508e+06 220011 527428
17 2 Si 2.09341 4.39804 4.4844 2.4 -32.2211 1.16081e+07 6.62984e+06 9.31057e+06 309946 -303891 475838
18 3 O 2.09991 6.01128 4.4844 -1.2 -9.57236 -3.82042e+06 111267 -4.11386e+06 497870 -185621 -68196.2
19 3 O -4.52137 3.42402 4.4844 -1.2 -9.27017 -2.82927e+06 -2.75698e+06 -3.66245e+06 -2.39871e+06 -847205 26898.7
20 3 O 2.80834 3.69187 3.18632 -1.2 -9.44467 -1.91557e+06 -2.72145e+06 -553854 427038 -453829 -451182
21 1 Mg 1.17857 2.37449 0 1.2 -4.93676 -924797 -1.49703e+07 -6.27887e+06 6.51897e+06 1.20913e+06 4.46289e+06
22 3 O 2.76143 3.69187 5.78248 -1.2 -9.39733 -2.62201e+06 -2.33691e+06 -1.3682e+06 431957 118511 -85938.5
23 1 Mg -1.67381 2.41581 1.4948 1.2 -7.4224 1.29886e+06 -334138 4.19346e+06 1.33955e+06 -557246 937313
24 2 Si 0.16286 0.350945 1.4948 2.4 -24.2312 -8.80535e+06 1.22696e+07 1.16565e+07 1.56519e+06 2.88041e+06 1.14309e+06
25 3 O 0.15972 -1.26229 1.4948 -1.2 -4.93171 -1.03594e+07 -7.93251e+06 -2.9079e+07 -5.59206e+06 -8.56766e+06 -2.6685e+06
26 3 O 6.77654 1.32496 1.4948 -1.2 -10.5234 -5.49652e+06 1.87313e+06 -1.46082e+06 -638928 -660294 1.11224e+06
27 3 O -0.508028 1.05712 0.196716 -1.2 -9.72216 435586 -4.56472e+06 -824833 -544585 176978 -4.46569e+06
28 3 O -0.552171 1.05712 2.79288 -1.2 -6.92183 -5.08226e+06 -4.51619e+06 -2.47877e+07 1.44596e+06 -6.83213e+06 -5.50358e+06
29 1 Mg 6.31713 4.74899 0 1.2 -4.77099 95873.1 -1.30516e+07 -5.95255e+06 -7.29953e+06 1.41419e+06 -3.72665e+06
30 1 Mg 3.54847 9.45668 1.4948 1.2 -8.20368 99745.1 1.53205e+06 4.58667e+06 -946060 -908639 -466779
31 2 Si 5.36879 6.77254 1.4948 2.4 -34.0395 6.88419e+06 1.17577e+07 1.18435e+07 1.69042e+06 111441 -2.09643e+06
32 3 O 5.41937 8.38578 1.4948 -1.2 -4.88137 -123616 -765583 -3.53927e+07 749020 1.12032e+06 -4.13637e+06
33 3 O 1.75158 5.79852 1.4948 -1.2 -9.63558 -3.78292e+06 -2.22518e+06 -1.56684e+06 1.96544e+06 -1.6e+06 -1.25948e+06
34 3 O 4.67421 6.06637 0.196716 -1.2 -3.9265 378614 -9.96485e+06 -3.16032e+07 -2.02593e+06 1.32476e+06 -4.34219e+06
35 1 Mg 6.26654 4.74899 2.9896 1.2 -7.91074 3.95929e+06 -1.77901e+06 64019.8 1.79007e+06 -853218 1.88348e+06
36 3 O 4.63043 6.06637 2.79288 -1.2 -8.96115 -1.43666e+06 -3.83937e+06 -2.32541e+06 917044 -91451 -1.42103e+06
37 1 Mg -1.12976 4.79031 4.4844 1.2 -8.71286 -719368 2.70024e+06 2.84838e+06 -738242 -361905 -166210
38 2 Si -2.9517 7.47444 4.4844 2.4 -32.6965 1.11172e+07 8.63296e+06 8.79008e+06 5380.62 -115536 -24297.9
39 3 O -3.00198 5.86121 4.4844 -1.2 -9.53034 -3.91481e+06 -70106.9 -3.76919e+06 87700.3 -200717 57116.6
40 3 O 0.666315 8.44846 4.4844 -1.2 -9.34895 -3.30305e+06 -2.39254e+06 -3.40168e+06 2.19851e+06 -480517 107696
41 3 O -2.21213 8.18062 3.18632 -1.2 -9.18617 -2.78244e+06 -3.22275e+06 -819115 1.12328e+06 -279821 -1.3929e+06
42 3 O -2.25864 8.18062 5.78248 -1.2 -9.05557 -2.94695e+06 -3.52282e+06 -1.6651e+06 1.08574e+06 -73749.2 1.28883e+06
43 1 Mg 1.20893 7.12349 2.9896 1.2 -7.89312 3.96732e+06 -1.77361e+06 1962.4 -1.29114e+06 -1.31271e+06 -1.7545e+06
44 1 Mg 4.00982 7.08218 4.4844 1.2 -8.60592 -998847 2.38468e+06 3.32194e+06 1.07869e+06 -272528 127533
45 2 Si 2.17861 9.14704 4.4844 2.4 -32.6822 1.11592e+07 8.30608e+06 9.02442e+06 552966 62475.4 -254238
46 3 O 2.18828 10.7603 4.4844 -1.2 -9.58136 -3.96087e+06 80775.3 -3.90149e+06 483847 -229299 300423
47 3 O -4.43805 8.17302 4.4844 -1.2 -9.35679 -3.21649e+06 -2.44129e+06 -3.39194e+06 -1.57336e+06 -434813 -63595.1
48 3 O 2.89193 8.44087 3.18632 -1.2 -9.20111 -2.66522e+06 -3.35294e+06 -933987 -944728 -264720 1.37735e+06
49 1 Mg 1.25915 7.12349 0 1.2 -5.16115 754326 -7.75237e+06 -6.18108e+06 5.88409e+06 1.40399e+06 2.49572e+06
50 3 O 2.84547 8.44087 5.78248 -1.2 -9.00626 -2.86835e+06 -3.46865e+06 -2.10355e+06 -951099 -292672 -1.16197e+06
51 1 Mg -1.59284 7.16481 1.4948 1.2 -8.12326 603436 1.20653e+06 4.47827e+06 1.44438e+06 -912048 239081
52 2 Si 0.240329 5.09994 1.4948 2.4 -33.7857 7.83208e+06 1.06709e+07 1.15764e+07 -1.97836e+06 -1.03153e+06 1.74933e+06
53 3 O 0.234538 3.48671 1.4948 -1.2 -5.37327 -1.517e+06 523700 -3.39317e+07 405975 5.17205e+06 4.05649e+06
54 3 O 6.85564 6.07396 1.4948 -1.2 -9.71366 -4.1943e+06 -1.67683e+06 -1.54076e+06 -1.34115e+06 -1.82288e+06 1.24983e+06
55 3 O -0.429565 5.80612 0.196716 -1.2 -4.17666 -414587 -8.61732e+06 -3.17128e+07 1.86771e+06 1.16959e+06 4.67705e+06
56 3 O -0.473377 5.80612 2.79288 -1.2 -9.04935 -1.96443e+06 -3.42861e+06 -2.16595e+06 -762241 289891 1.39033e+06
57 1 Mg 6.40169 9.49799 0 1.2 -5.13621 1.2992e+06 -6.62867e+06 -6.37669e+06 -5.48121e+06 956952 -2.58461e+06
58 1 Mg 3.64209 14.2057 1.4948 1.2 -8.24067 -4703.47 1.61986e+06 4.62167e+06 -1.04333e+06 -942084 -537295
59 2 Si 5.45748 11.5215 1.4948 2.4 -34.0057 7.11932e+06 1.13004e+07 1.19877e+07 924189 375692 -2.55812e+06
60 3 O 5.51101 13.1348 1.4948 -1.2 -4.93641 -275565 -685452 -3.50523e+07 462260 -2.56746e+06 -4.09828e+06
61 3 O 1.83851 10.5475 1.4948 -1.2 -9.70962 -4.05957e+06 -1.66295e+06 -1.46168e+06 1.54918e+06 -1.59443e+06 -897909
62 3 O 4.7611 10.8154 0.196716 -1.2 -3.77131 780271 -1.12703e+07 -3.21702e+07 -2.472e+06 -1.74447e+06 -4.11002e+06
63 1 Mg 6.35203 9.49799 2.9896 1.2 -7.88143 3.9113e+06 -1.81428e+06 98069.3 1.34429e+06 -1.19839e+06 1.90478e+06
64 3 O 4.71833 10.8154 2.79288 -1.2 -8.9824 -1.65177e+06 -3.55501e+06 -2.36793e+06 1.01194e+06 -29281.3 -1.11352e+06
65 1 Mg -1.0438 9.53931 4.4844 1.2 -8.60784 -986407 2.28349e+06 3.32599e+06 -658311 -340316 -86449.7
66 2 Si -2.8604 12.2234 4.4844 2.4 -32.7581 1.07293e+07 8.50626e+06 9.41257e+06 54981.3 -77367.3 -287016
67 3 O -2.91391 10.6102 4.4844 -1.2 -9.51822 -3.72893e+06 33094.5 -4.07484e+06 187998 -146757 42017.3
68 3 O 0.7596 13.1975 4.4844 -1.2 -9.39904 -3.26254e+06 -2.509e+06 -3.24371e+06 2.1756e+06 -270197 214463
69 3 O -2.12001 12.9296 3.18632 -1.2 -9.17709 -2.59434e+06 -3.27064e+06 -974582 1.13926e+06 -185697 -1.30242e+06
70 3 O -2.16532 12.9296 5.78248 -1.2 -8.93329 -2.59492e+06 -3.56133e+06 -2.27416e+06 1.04278e+06 8181.71 1.49177e+06
71 1 Mg 1.29891 11.8725 2.9896 1.2 -7.86405 4.0629e+06 -1.75609e+06 -160964 -1.21305e+06 -1.26708e+06 -1.91834e+06
72 1 Mg 4.10033 11.8312 4.4844 1.2 -8.56746 -841465 2.31748e+06 3.1724e+06 1.16837e+06 -90201 -211301
73 2 Si 2.27333 13.896 4.4844 2.4 -32.4923 1.12967e+07 8.54718e+06 8.3358e+06 557746 -128729 -330382
74 3 O 2.28634 15.5093 4.4844 -1.2 -9.64722 -3.8899e+06 -38401.9 -3.75684e+06 491803 -105531 169516
75 3 O -4.34533 12.922 4.4844 -1.2 -9.37835 -3.1682e+06 -2.40382e+06 -3.43044e+06 -1.5226e+06 -627491 183568
76 3 O 2.98455 13.1899 3.18632 -1.2 -9.24864 -2.76331e+06 -3.38051e+06 -755664 -933839 -204308 1.54385e+06
77 1 Mg 1.34779 11.8725 0 1.2 -5.3656 2.59739e+06 -3.02575e+06 -6.52431e+06 3.56441e+06 833599 1.37771e+06
78 3 O 2.93934 13.1899 5.78248 -1.2 -9.23113 -3.03134e+06 -3.55803e+06 -1.42317e+06 -784838 -411558 -1.0793e+06
79 1 Mg -1.50344 11.9138 1.4948 1.2 -8.21077 249373 1.52251e+06 4.64036e+06 1.56066e+06 -973068 214676
80 2 Si 0.326006 9.84894 1.4948 2.4 -33.9767 7.24103e+06 1.13273e+07 1.1765e+07 -644375 115926 1.96194e+06
81 3 O 0.317364 8.23571 1.4948 -1.2 -4.88801 -269344 -634659 -3.54966e+07 -106676 1.16267e+06 4.30325e+06
82 3 O 6.94307 10.823 1.4948 -1.2 -9.73547 -4.11221e+06 -1.49254e+06 -1.49741e+06 -995054 -1.5166e+06 1.21627e+06
83 3 O -0.343122 10.5551 0.196716 -1.2 -3.86243 526026 -1.07333e+07 -3.22716e+07 2.46591e+06 -2.06723e+06 4.6754e+06
84 3 O -0.385966 10.5551 2.79288 -1.2 -9.01888 -1.70501e+06 -3.61159e+06 -2.34568e+06 -818655 141903 1.27921e+06
85 1 Mg 6.49448 14.247 0 1.2 -5.33665 3.00211e+06 -2.2011e+06 -6.61369e+06 -2.9686e+06 236573 -1.7643e+06
86 1 Mg 3.74457 18.9547 1.4948 1.2 -8.3163 -235754 1.7522e+06 4.76438e+06 -1.12833e+06 -968771 -372477
87 2 Si 5.55495 16.2705 1.4948 2.4 -33.9405 7.35437e+06 1.1092e+07 1.18752e+07 504175 848295 -2.69414e+06
88 3 O 5.6115 17.8838 1.4948 -1.2 -5.26839 -1.29387e+06 -611169 -3.2346e+07 93540.4 -6.07411e+06 -3.98659e+06
89 3 O 1.93416 15.2965 1.4948 -1.2 -9.7656 -4.10381e+06 -1.38605e+06 -1.35527e+06 1.53857e+06 -1.36287e+06 -822014
90 3 O 4.85636 15.5644 0.196716 -1.2 -3.79844 796241 -1.29857e+07 -3.05944e+07 -3.02537e+06 -5.12492e+06 -3.50345e+06
91 1 Mg 6.44662 14.247 2.9896 1.2 -7.84246 3.92124e+06 -1.7777e+06 -11860.8 1.30161e+06 -1.12583e+06 1.75446e+06
92 3 O 4.81537 15.5644 2.79288 -1.2 -9.0129 -1.63247e+06 -3.65379e+06 -2.27276e+06 1.09134e+06 -94868.9 -1.06435e+06
93 1 Mg -0.948271 14.2883 4.4844 1.2 -8.6032 -1.23197e+06 2.38556e+06 3.45547e+06 -505153 -440518 -248116
94 2 Si -2.75928 16.9724 4.4844 2.4 -32.5996 1.05916e+07 8.84735e+06 8.95119e+06 -36211.5 10467.9 -340652
95 3 O -2.81617 15.3592 4.4844 -1.2 -9.56551 -3.55728e+06 -115588 -4.01192e+06 258348 -222481 253644
96 3 O 0.862762 17.9465 4.4844 -1.2 -9.40933 -3.11937e+06 -2.5861e+06 -3.30594e+06 2.12114e+06 -373374 103069
97 3 O -2.0185 17.6786 3.18632 -1.2 -9.20435 -2.55935e+06 -3.35153e+06 -908127 1.14955e+06 -147716 -1.35451e+06
98 3 O -2.06164 17.6786 5.78248 -1.2 -9.08371 -2.50109e+06 -3.7593e+06 -1.84437e+06 1.11219e+06 -68101.5 1.42521e+06
99 1 Mg 1.39817 16.6215 2.9896 1.2 -7.82944 4.06416e+06 -1.70161e+06 -274303 -1.15281e+06 -1.28982e+06 -1.81915e+06
100 1 Mg 4.20062 16.5802 4.4844 1.2 -8.48715 -862732 2.4168e+06 2.96543e+06 1.08867e+06 -183528 -74993
101 2 Si 2.37796 18.645 4.4844 2.4 -32.5081 1.09687e+07 8.59684e+06 8.63806e+06 707272 -213438 -3840.13
102 3 O 2.39434 20.2583 4.4844 -1.2 -9.60934 -3.76346e+06 21460.4 -4.01102e+06 490939 -85464.9 36826.9
103 3 O -4.24274 17.671 4.4844 -1.2 -9.45839 -3.18408e+06 -2.49307e+06 -3.20981e+06 -1.37723e+06 -581570 44244.2
104 3 O 3.08659 17.9389 3.18632 -1.2 -9.25933 -2.68364e+06 -3.42049e+06 -820305 -927076 -62960.4 1.39908e+06
105 1 Mg 1.44478 16.6215 0 1.2 -5.47509 4.23932e+06 -50791.2 -6.52267e+06 1.40247e+06 -41309.6 678512
106 3 O 3.0436 17.9389 5.78248 -1.2 -9.21457 -2.80989e+06 -3.61047e+06 -1.67449e+06 -888815 -139790 -1.27692e+06
107 1 Mg -1.40524 16.6628 1.4948 1.2 -8.26969 37099.7 1.70227e+06 4.71962e+06 1.70243e+06 -982240 168625
108 2 Si 0.420358 14.5979 1.4948 2.4 -33.9503 7.26093e+06 1.12624e+07 1.17517e+07 -125978 495786 2.04089e+06
109 3 O 0.408732 12.9847 1.4948 -1.2 -4.92866 -329029 -671899 -3.51592e+07 231084 -2.53032e+06 4.47541e+06
110 3 O 7.03923 15.572 1.4948 -1.2 -9.79144 -4.13709e+06 -1.24622e+06 -1.38815e+06 -948016 -1.31899e+06 1.24397e+06
111 3 O -0.248332 15.3041 0.196716 -1.2 -3.89478 514680 -1.25238e+07 -3.06734e+07 3.24716e+06 -5.41418e+06 4.23063e+06
112 3 O -0.289436 15.3041 2.79288 -1.2 -9.03029 -1.57526e+06 -3.74948e+06 -2.3615e+06 -876289 117647 1.29021e+06
113 1 Mg 6.59566 18.996 0 1.2 -5.46487 4.42488e+06 370010 -6.35893e+06 -926019 -683011 -1.03062e+06
114 1 Mg 3.85574 23.7037 1.4948 1.2 -8.4306 -497449 1.98912e+06 4.83243e+06 -1.18254e+06 -928175 -254250
115 2 Si 5.66125 21.0195 1.4948 2.4 -33.8747 7.84646e+06 1.06641e+07 1.17674e+07 153538 1.22985e+06 -2.47356e+06
116 3 O 5.72074 22.6328 1.4948 -1.2 -5.8532 -3.00231e+06 -533015 -2.74378e+07 -206779 -8.50587e+06 -3.63332e+06
117 3 O 2.03867 20.0455 1.4948 -1.2 -9.78446 -4.08758e+06 -1.10863e+06 -1.41639e+06 1.56275e+06 -1.13904e+06 -902512
118 3 O 4.96004 20.3134 0.196716 -1.2 -4.11275 64765.7 -1.4382e+07 -2.67767e+07 -3.1721e+06 -7.94016e+06 -2.67746e+06
119 1 Mg 6.55057 18.996 2.9896 1.2 -7.80291 4.03434e+06 -1.79517e+06 -170349 1.28194e+06 -1.16353e+06 1.8699e+06
120 3 O 4.92172 20.3134 2.79288 -1.2 -9.00241 -1.62633e+06 -3.64576e+06 -2.34142e+06 1.10778e+06 -97803.1 -1.17095e+06
121 1 Mg -0.84282 19.0373 4.4844 1.2 -8.56558 -1.25331e+06 2.39607e+06 3.39663e+06 -471602 -307457 -96669.3
122 2 Si -2.64823 21.7214 4.4844 2.4 -32.5588 1.08779e+07 8.5353e+06 8.91292e+06 -42539.7 -49892.8 -337209
123 3 O -2.70847 20.1082 4.4844 -1.2 -9.60212 -3.66098e+06 15420.8 -3.98086e+06 324577 -178963 111175
124 3 O 0.97581 22.6955 4.4844 -1.2 -9.37808 -3.12574e+06 -2.51764e+06 -3.42365e+06 2.16342e+06 -472732 191366
125 3 O -1.9076 22.4276 3.18632 -1.2 -9.18997 -2.63161e+06 -3.33239e+06 -916798 1.17229e+06 -82429.8 -1.38921e+06
126 3 O -1.9475 22.4276 5.78248 -1.2 -9.1463 -2.66468e+06 -3.50154e+06 -1.74554e+06 1.14907e+06 -120274 1.64267e+06
127 1 Mg 1.50678 21.3705 2.9896 1.2 -7.83667 4.1161e+06 -1.74352e+06 -272751 -1.13743e+06 -1.27574e+06 -1.71262e+06
128 1 Mg 4.31086 21.3292 4.4844 1.2 -8.51916 -904560 2.30773e+06 3.16951e+06 1.13178e+06 -278628 -28546.7
129 2 Si 2.49243 23.394 4.4844 2.4 -32.6031 1.08468e+07 8.5957e+06 8.91148e+06 842203 -153599 -212172
130 3 O 2.51204 25.0073 4.4844 -1.2 -9.55253 -3.78599e+06 355.723 -4.05265e+06 487921 -163126 131624
131 3 O -4.13026 22.42 4.4844 -1.2 -9.46186 -3.28063e+06 -2.42074e+06 -3.18299e+06 -1.33495e+06 -448704 73473.6
132 3 O 3.19799 22.6879 3.18632 -1.2 -9.21738 -2.62715e+06 -3.43781e+06 -983922 -934701 41415.2 1.36951e+06
133 1 Mg 1.5501 21.3705 0 1.2 -5.55419 5.12429e+06 1.49331e+06 -6.04653e+06 -56058.2 -971267 422880
134 3 O 3.1583 22.6879 5.78248 -1.2 -9.13733 -2.63492e+06 -3.58153e+06 -1.91185e+06 -992558 -14971.5 -1.08597e+06
135 1 Mg -1.29822 21.4118 1.4948 1.2 -8.35682 -154810 1.8702e+06 4.77882e+06 1.80916e+06 -937619 219297
136 2 Si 0.523568 19.3469 1.4948 2.4 -33.9048 7.55818e+06 1.08965e+07 1.17757e+07 340838 968044 2.38027e+06
137 3 O 0.508934 17.7337 1.4948 -1.2 -5.25541 -1.31538e+06 -602873 -3.24885e+07 652868 -6.06105e+06 4.22529e+06
138 3 O 7.14425 20.321 1.4948 -1.2 -9.82248 -4.19479e+06 -979340 -1.35702e+06 -928860 -1.08033e+06 1.10028e+06
139 3 O -0.145107 20.0531 0.196716 -1.2 -4.21115 -270417 -1.40489e+07 -2.68211e+07 3.66787e+06 -8.20016e+06 3.14703e+06
140 3 O -0.183601 20.0531 2.79288 -1.2 -9.02632 -1.5661e+06 -3.76647e+06 -2.41027e+06 -870380 2055.05 1.14287e+06
141 1 Mg 6.70502 23.745 0 1.2 -5.5814 4.97127e+06 1.76918e+06 -5.73404e+06 404197 -1.49637e+06 -597696
142 1 Mg 3.97493 28.4527 1.4948 1.2 -8.61181 -669347 2.10377e+06 4.94738e+06 -1.22205e+06 -790762 -280732
143 2 Si 5.77602 25.7685 1.4948 2.4 -33.8555 8.62432e+06 1.01471e+07 1.15635e+07 -113087 1.51513e+06 -2.48576e+06
144 3 O 5.83821 27.3818 1.4948 -1.2 -6.5673 -4.85734e+06 -354299 -2.13814e+07 -346509 -9.28137e+06 -2.93088e+06
145 3 O 2.15175 24.7945 1.4948 -1.2 -9.75887 -4.11095e+06 -969611 -1.43856e+06 1.60671e+06 -924842 -859337
146 3 O 5.07184 25.0624 0.196716 -1.2 -4.70126 -1.23737e+06 -1.51507e+07 -2.11419e+07 -2.78893e+06 -9.41431e+06 -1.4001e+06
147 1 Mg 6.66374 23.745 2.9896 1.2 -7.81117 4.19183e+06 -1.78868e+06 -318175 1.29106e+06 -1.24958e+06 1.88668e+06
148 3 O 5.03707 25.0624 2.79288 -1.2 -8.94451 -1.68666e+06 -3.67293e+06 -2.38389e+06 1.09078e+06 -132420 -1.14694e+06
149 1 Mg -0.727559 23.7863 4.4844 1.2 -8.57053 -1.17436e+06 2.38448e+06 3.32873e+06 -512734 -205455 -174881
150 2 Si -2.5277 26.4704 4.4844 2.4 -32.7234 1.11978e+07 8.36773e+06 9.03135e+06 46069.3 -236572 -248804
151 3 O -2.59107 24.8572 4.4844 -1.2 -9.58009 -3.79671e+06 5142.06 -3.85983e+06 391755 -84796 80984
152 3 O 1.09817 27.4445 4.4844 -1.2 -9.29672 -3.36454e+06 -2.44474e+06 -3.38526e+06 2.27609e+06 -445828 250541
153 3 O -1.78784 27.1766 3.18632 -1.2 -9.09283 -2.74119e+06 -3.27772e+06 -1.07295e+06 1.16343e+06 26844.6 -1.35295e+06
154 3 O -1.82343 27.1766 5.78248 -1.2 -9.00177 -2.8656e+06 -3.34175e+06 -1.96429e+06 1.12071e+06 24350.6 1.54531e+06
155 1 Mg 1.62435 26.1195 2.9896 1.2 -7.88623 4.31129e+06 -1.7568e+06 -372136 -1.15224e+06 -1.28778e+06 -1.73749e+06
156 1 Mg 4.43064 26.0782 4.4844 1.2 -8.62322 -895572 2.23917e+06 3.39982e+06 1.22053e+06 -239203 -88161.2
157 2 Si 2.61607 28.143 4.4844 2.4 -32.7982 1.12478e+07 8.44671e+06 8.98082e+06 690793 -66560.5 -560581
158 3 O 2.63853 29.7563 4.4844 -1.2 -9.46982 -3.96866e+06 -39030.4 -3.96985e+06 580086 -91707.9 250723
159 3 O -4.00841 27.169 4.4844 -1.2 -9.3516 -3.4368e+06 -2.28359e+06 -3.33085e+06 -1.39601e+06 -372897 147674
160 3 O 3.3182 27.4369 3.18632 -1.2 -9.11785 -2.72331e+06 -3.39955e+06 -1.15631e+06 -899787 92827.9 1.46963e+06
161 1 Mg 1.66335 26.1195 0 1.2 -5.6856 5.07147e+06 2.18856e+06 -5.25889e+06 -894470 -1.58049e+06 160042
162 3 O 3.28288 27.4369 5.78248 -1.2 -8.97782 -2.77785e+06 -3.4389e+06 -2.30936e+06 -880904 -199209 -804812
163 1 Mg -1.18278 26.1608 1.4948 1.2 -8.50045 -346963 2.07238e+06 4.80671e+06 1.87972e+06 -828361 88536.7
164 2 Si 0.635424 24.0959 1.4948 2.4 -33.8592 8.20666e+06 1.05243e+07 1.14937e+07 756636 1.3817e+06 2.44619e+06
165 3 O 0.617906 22.4827 1.4948 -1.2 -5.84192 -3.03005e+06 -516609 -2.75798e+07 1.00142e+06 -8.5401e+06 3.69082e+06
166 3 O 7.25781 25.07 1.4948 -1.2 -9.79675 -4.24599e+06 -838205 -1.36817e+06 -927552 -834923 1.09712e+06
167 3 O -0.0337363 24.8021 0.196716 -1.2 -4.79755 -1.58306e+06 -1.51146e+07 -2.10906e+07 3.50666e+06 -9.65089e+06 1.87627e+06
168 3 O -0.0687235 24.8021 2.79288 -1.2 -8.98792 -1.67971e+06 -3.82187e+06 -2.35505e+06 -832433 -88407.2 1.12207e+06
169 1 Mg 6.82195 28.494 0 1.2 -5.81866 4.6722e+06 2.13494e+06 -4.5411e+06 1.1656e+06 -1.8334e+06 -639092
170 1 Mg 4.10106 33.2017 1.4948 1.2 -8.80239 -822405 2.21093e+06 4.95814e+06 -1.20484e+06 -548615 -15504.8
171 2 Si 5.89839 30.5175 1.4948 2.4 -33.9135 9.73906e+06 9.25721e+06 1.15146e+07 -318128 1.65455e+06 -2.32775e+06
172 3 O 5.96289 32.1308 1.4948 -1.2 -7.29818 -6.19942e+06 -139734 -1.54282e+07 -289719 -8.43597e+06 -2.44311e+06
173 3 O 2.27266 29.5435 1.4948 -1.2 -9.64979 -4.24098e+06 -742774 -1.66204e+06 1.66437e+06 -710298 -772155
174 3 O 5.19102 29.8114 0.196716 -1.2 -5.41102 -2.81363e+06 -1.45264e+07 -1.52502e+07 -1.94525e+06 -9.2533e+06 -38989.2
175 1 Mg 6.78546 28.494 2.9896 1.2 -7.89774 4.40227e+06 -1.88274e+06 -290372 1.32917e+06 -1.30638e+06 1.7644e+06
176 3 O 5.16061 29.8114 2.79288 -1.2 -8.8475 -1.90347e+06 -3.63261e+06 -2.40294e+06 1.10356e+06 -214049 -1.04603e+06
177 1 Mg -0.603205 28.5353 4.4844 1.2 -8.68815 -1.02748e+06 2.28293e+06 3.46631e+06 -481128 -234638 -230448
178 2 Si -2.39877 31.2194 4.4844 2.4 -32.903 1.13488e+07 8.61824e+06 8.91964e+06 27387.7 -146388 -319428
179 3 O -2.46483 29.6062 4.4844 -1.2 -9.46442 -3.90561e+06 22878.7 -3.94601e+06 368140 -93143.5 245249
180 3 O 1.22864 32.1935 4.4844 -1.2 -9.21513 -3.49789e+06 -2.53135e+06 -3.31541e+06 2.23434e+06 -385209 148097
181 3 O -1.66032 31.9256 3.18632 -1.2 -8.97282 -2.83821e+06 -3.29753e+06 -1.22894e+06 1.16908e+06 92927.6 -1.41582e+06
182 3 O -1.69072 31.9256 5.78248 -1.2 -8.94745 -2.85814e+06 -3.60822e+06 -1.70565e+06 1.24094e+06 37346.6 1.56323e+06
183 1 Mg 1.7499 30.8685 2.9896 1.2 -7.97417 4.54319e+06 -1.78388e+06 -429510 -1.1348e+06 -1.38814e+06 -1.69957e+06
184 1 Mg 4.55894 30.8272 4.4844 1.2 -8.6822 -730067 2.39537e+06 3.17175e+06 1.21658e+06 -193277 -146460
185 2 Si 2.7476 32.892 4.4844 2.4 -32.9612 1.14688e+07 8.60529e+06 8.85541e+06 844846 -130171 -71967.6
186 3 O 2.77235 34.5053 4.4844 -1.2 -9.34752 -4.09874e+06 1306.09 -4.08352e+06 551365 -111383 -53100.2
187 3 O -3.87837 31.918 4.4844 -1.2 -9.28257 -3.57888e+06 -2.44589e+06 -3.15146e+06 -1.31945e+06 -383475 19872.1
188 3 O 3.44611 32.1859 3.18632 -1.2 -9.00778 -2.84782e+06 -3.4435e+06 -1.2627e+06 -888658 177088 1.30923e+06
189 1 Mg 1.7837 30.8685 0 1.2 -5.95085 4.35691e+06 2.11103e+06 -4.1024e+06 -1.36278e+06 -1.51257e+06 294513
190 3 O 3.41602 32.1859 5.78248 -1.2 -8.98116 -2.83419e+06 -3.66537e+06 -1.84352e+06 -956051 -48033.5 -1.12158e+06
191 1 Mg -1.05984 30.9098 1.4948 1.2 -8.70143 -517257 2.13483e+06 4.93477e+06 1.90605e+06 -618701 33403.7
192 2 Si 0.755243 28.8449 1.4948 2.4 -33.9092 9.24619e+06 9.7034e+06 1.14402e+07 1.11809e+06 1.61498e+06 2.16829e+06
193 3 O 0.735127 27.2317 1.4948 -1.2 -6.5657 -4.9204e+06 -355811 -2.14573e+07 1.18228e+06 -9.32823e+06 3.18076e+06
194 3 O 7.37914 29.819 1.4948 -1.2 -9.68069 -4.3514e+06 -612123 -1.64194e+06 -938931 -618182 1.1522e+06
195 3 O 0.0850649 29.5511 0.196716 -1.2 -5.48482 -3.06025e+06 -1.48874e+07 -1.51714e+07 2.7112e+06 -9.4653e+06 621125
196 3 O 0.0543974 29.5511 2.79288 -1.2 -8.88901 -1.88791e+06 -3.75612e+06 -2.42153e+06 -830514 -128717 1.14329e+06
197 1 Mg 6.94543 33.243 0 1.2 -6.10211 3.81145e+06 2.07463e+06 -3.49238e+06 1.58436e+06 -1.47288e+06 -620549
198 1 Mg 4.23267 37.9507 1.4948 1.2 -8.94086 -996927 2.33215e+06 4.81882e+06 -1.12967e+06 -239906 75229.1
199 2 Si 6.02709 35.2665 1.4948 2.4 -33.9348 1.08152e+07 8.42539e+06 1.13542e+07 -427360 1.54886e+06 -1.7031e+06
200 3 O 6.09339 36.8798 1.4948 -1.2 -7.96603 -6.62401e+06 -5444.56 -1.05608e+07 -133424 -6.58031e+06 -2.04443e+06
201 3 O 2.40018 34.2925 1.4948 -1.2 -9.51569 -4.3421e+06 -642986 -1.92794e+06 1.69012e+06 -533975 -981787
202 3 O 5.31645 34.5604 0.196716 -1.2 -6.21307 -4.03569e+06 -1.28632e+07 -9.96972e+06 -946460 -7.80177e+06 868918
203 1 Mg 6.91449 33.243 2.9896 1.2 -7.99307 4.61303e+06 -1.90453e+06 -318379 1.29632e+06 -1.3957e+06 1.94975e+06
204 3 O 5.291 34.5604 2.79288 -1.2 -8.74135 -2.15453e+06 -3.54275e+06 -2.44796e+06 1.13549e+06 -257580 -1.27155e+06
205 1 Mg -0.471101 33.2843 4.4844 1.2 -8.77151 -866684 2.33578e+06 3.37874e+06 -458533 -198715 -59070.9
206 2 Si -2.26307 35.9684 4.4844 2.4 -33.1618 1.18238e+07 8.28902e+06 9.19821e+06 117384 -318933 42294.8
207 3 O -2.33122 34.3552 4.4844 -1.2 -9.35184 -4.07218e+06 69554.5 -4.00326e+06 434606 21209 -11164.8
208 3 O 1.36549 36.9425 4.4844 -1.2 -9.07749 -3.7418e+06 -2.39864e+06 -3.41702e+06 2.26818e+06 -424547 -62461.4
209 3 O -1.52658 36.6746 3.18632 -1.2 -8.84666 -2.99733e+06 -3.21579e+06 -1.44557e+06 1.13647e+06 148977 -1.54797e+06
210 3 O -1.55122 36.6746 5.78248 -1.2 -8.79272 -3.1644e+06 -3.33875e+06 -1.96592e+06 1.07993e+06 155427 1.41505e+06
211 1 Mg 1.882 35.6175 2.9896 1.2 -8.08171 4.75631e+06 -1.85376e+06 -390288 -1.10574e+06 -1.43897e+06 -1.45584e+06
212 1 Mg 4.69415 35.5762 4.4844 1.2 -8.83691 -557786 2.23425e+06 3.41017e+06 1.18553e+06 -155170 112937
213 2 Si 2.88522 37.641 4.4844 2.4 -33.2843 1.17241e+07 8.27672e+06 9.45568e+06 713954 -62537.3 113229
214 3 O 2.91159 39.2543 4.4844 -1.2 -9.21983 -4.19615e+06 100662 -4.28124e+06 627894 -38273.8 33509.9
215 3 O -3.74183 36.667 4.4844 -1.2 -9.14792 -3.83897e+06 -2.24931e+06 -3.29702e+06 -1.29325e+06 -239811 -64222.4
216 3 O 3.58014 36.9349 3.18632 -1.2 -8.86739 -2.93513e+06 -3.35669e+06 -1.58863e+06 -844625 222982 1.15643e+06
217 1 Mg 1.90997 35.6175 0 1.2 -6.18595 3.2856e+06 1.99065e+06 -3.51263e+06 -1.65163e+06 -742001 947650
218 3 O 3.55582 36.9349 5.78248 -1.2 -8.72247 -2.93549e+06 -3.47095e+06 -2.39408e+06 -845460 -61420.9 -1.35743e+06
219 1 Mg -0.93068 35.6588 1.4948 1.2 -8.86534 -662968 2.24606e+06 4.83979e+06 1.86147e+06 -313900 176151
220 2 Si 0.881882 33.5939 1.4948 2.4 -33.9575 1.03613e+07 8.84229e+06 1.13346e+07 1.41829e+06 1.67253e+06 2.35621e+06
221 3 O 0.859602 31.9807 1.4948 -1.2 -7.29665 -6.26682e+06 -125899 -1.5521e+07 1.15963e+06 -8.49084e+06 2.46945e+06
222 3 O 7.507 34.568 1.4948 -1.2 -9.54809 -4.45136e+06 -526773 -1.90649e+06 -929162 -406543 957762
223 3 O 0.210186 34.3001 0.196716 -1.2 -6.24994 -4.16332e+06 -1.3573e+07 -9.9226e+06 1.5284e+06 -7.97632e+06 -790920
224 3 O 0.184454 34.3001 2.79288 -1.2 -8.79237 -2.15893e+06 -3.69948e+06 -2.40966e+06 -853675 -186307 899711
225 1 Mg 7.07415 37.992 0 1.2 -6.30364 2.78248e+06 1.95836e+06 -3.17352e+06 1.86362e+06 -431865 -1.14465e+06
226 1 Mg 4.36817 42.6997 1.4948 1.2 -9.00011 -1.10124e+06 2.47107e+06 4.49721e+06 -994813 125144 45239.9
227 2 Si 6.16058 40.0155 1.4948 2.4 -33.8727 1.16382e+07 7.77122e+06 1.10933e+07 -373675 1.28914e+06 -1.51936e+06
228 3 O 6.22815 41.6288 1.4948 -1.2 -8.50994 -6.26095e+06 19615.4 -7.16911e+06 32066.7 -4.51769e+06 -1.63762e+06
229 3 O 2.53282 39.0415 1.4948 -1.2 -9.39709 -4.35193e+06 -691811 -2.21902e+06 1.71862e+06 -353263 -980981
230 3 O 5.44674 39.3094 0.196716 -1.2 -7.00883 -4.60397e+06 -1.04684e+07 -6.08119e+06 -136179 -5.74848e+06 1.72882e+06
231 1 Mg 7.04922 37.992 2.9896 1.2 -8.08189 4.83137e+06 -1.97376e+06 -314225 1.30473e+06 -1.51116e+06 1.97248e+06
232 3 O 5.42658 39.3094 2.79288 -1.2 -8.67527 -2.40894e+06 -3.47764e+06 -2.39476e+06 1.12993e+06 -256767 -1.22375e+06
233 1 Mg -0.333062 38.0333 4.4844 1.2 -8.89598 -640592 2.19024e+06 3.4946e+06 -396549 -80421.1 51998.7
234 2 Si -2.12255 40.7174 4.4844 2.4 -33.2893 1.20376e+07 8.35929e+06 9.11511e+06 108718 -179982 14820.5
235 3 O -2.19212 39.1042 4.4844 -1.2 -9.26623 -4.2829e+06 128516 -3.98419e+06 403658 -269.333 1283.49
236 3 O 1.50676 41.6915 4.4844 -1.2 -9.01503 -3.81001e+06 -2.44671e+06 -3.40491e+06 2.311e+06 -306519 95309
237 3 O -1.3884 41.4236 3.18632 -1.2 -8.76686 -3.02368e+06 -3.27126e+06 -1.59914e+06 1.16177e+06 137033 -1.49679e+06
238 3 O -1.40713 41.4236 5.78248 -1.2 -8.7355 -3.21292e+06 -3.39146e+06 -1.76089e+06 1.26583e+06 111692 1.43711e+06
239 1 Mg 2.01892 40.3665 2.9896 1.2 -8.15811 4.85483e+06 -1.85119e+06 -355787 -1.10289e+06 -1.56329e+06 -1.51978e+06
240 1 Mg 4.83434 40.3252 4.4844 1.2 -8.89968 -401478 2.23955e+06 3.34876e+06 1.25978e+06 -181198 -40532
241 2 Si 3.02698 42.39 4.4844 2.4 -33.3483 1.18448e+07 8.50889e+06 9.20612e+06 857674 -181579 -115310
242 3 O 3.05433 44.0033 4.4844 -1.2 -9.20558 -4.27962e+06 -300.54 -4.12269e+06 545078 -52752.5 26865.3
243 3 O -3.60077 41.416 4.4844 -1.2 -9.10627 -3.96825e+06 -2.33342e+06 -3.16532e+06 -1.34015e+06 -235288 -49292.6
244 3 O 3.71851 41.6839 3.18632 -1.2 -8.79855 -2.97025e+06 -3.43638e+06 -1.69622e+06 -861139 259996 1.21798e+06
245 1 Mg 2.04077 40.3665 0 1.2 -6.34015 2.37827e+06 1.81414e+06 -3.6029e+06 -1.82792e+06 431035 1.63825e+06
246 3 O 3.70011 41.6839 5.78248 -1.2 -8.72683 -3.0175e+06 -3.58591e+06 -2.10062e+06 -941314 155327 -1.12547e+06
247 1 Mg -0.796865 40.4078 1.4948 1.2 -8.95494 -775973 2.37552e+06 4.57525e+06 1.75131e+06 52897.3 115351
248 2 Si 1.01387 38.3429 1.4948 2.4 -33.9321 1.12799e+07 8.09375e+06 1.11592e+07 1.54186e+06 1.51306e+06 2.18038e+06
249 3 O 0.989947 36.7297 1.4948 -1.2 -7.964 -6.69731e+06 1628.03 -1.06498e+07 1.02949e+06 -6.66259e+06 1.82088e+06
250 3 O 7.63988 39.317 1.4948 -1.2 -9.43851 -4.48853e+06 -598718 -2.14656e+06 -931307 -253262 990212
251 3 O 0.340253 39.0491 0.196716 -1.2 -7.02265 -4.68521e+06 -1.1383e+07 -6.0185e+06 374760 -5.88433e+06 -1.6352e+06
252 3 O 0.319795 39.0491 2.79288 -1.2 -8.7166 -2.4012e+06 -3.61664e+06 -2.40895e+06 -855412 -240889 854063
253 1 Mg 7.20667 42.741 0 1.2 -6.41495 2.06708e+06 1.78688e+06 -3.572e+06 1.99097e+06 927723 -2.04207e+06
254 1 Mg 4.50613 47.4487 1.4948 1.2 -8.98768 -1.07816e+06 2.55449e+06 4.16765e+06 -857244 463548 44396.1
255 2 Si 6.29731 44.7645 1.4948 2.4 -33.7809 1.21158e+07 7.2164e+06 1.10004e+07 -228696 939059 -1.35785e+06
256 3 O 6.36567 46.3778 1.4948 -1.2 -8.89431 -5.49938e+06 49716.7 -5.24351e+06 176096 -2.71089e+06 -1.35332e+06
257 3 O 2.669 43.7905 1.4948 -1.2 -9.3022 -4.29842e+06 -883966 -2.50257e+06 1.72011e+06 -211131 -931079
258 3 O 5.58048 44.0584 0.196716 -1.2 -7.68082 -4.60691e+06 -7.83291e+06 -3.67297e+06 325850 -3.74666e+06 2.34013e+06
259 1 Mg 7.1879 42.741 2.9896 1.2 -8.12964 4.88373e+06 -1.89694e+06 -353635 1.28135e+06 -1.58307e+06 1.96715e+06
260 3 O 5.56564 44.0584 2.79288 -1.2 -8.65441 -2.58701e+06 -3.46182e+06 -2.2912e+06 1.12176e+06 -305258 -1.23053e+06
261 1 Mg -0.19105 42.7823 4.4844 1.2 -8.94387 -581130 2.27668e+06 3.42186e+06 -486071 -89817.4 -23136.7
262 2 Si -1.97909 45.4664 4.4844 2.4 -33.4347 1.19481e+07 8.37929e+06 9.42741e+06 57889.4 -384349 108473
263 3 O -2.04947 43.8532 4.4844 -1.2 -9.1987 -4.23425e+06 26395.6 -4.03769e+06 492778 69041.8 -46042.7
264 3 O 1.65063 46.4405 4.4844 -1.2 -9.02044 -3.96956e+06 -2.46528e+06 -3.21737e+06 2.3084e+06 -233826 12566.7
265 3 O -1.24745 46.1726 3.18632 -1.2 -8.71986 -2.99079e+06 -3.28161e+06 -1.7977e+06 1.1425e+06 181288 -1.44708e+06
266 3 O -1.26044 46.1726 5.78248 -1.2 -8.62922 -3.21493e+06 -3.34371e+06 -2.06811e+06 1.20254e+06 428116 1.36134e+06
267 1 Mg 2.15896 45.1155 2.9896 1.2 -8.18273 4.92274e+06 -1.79735e+06 -422328 -1.06854e+06 -1.65716e+06 -1.53098e+06
268 1 Mg 4.97763 45.0742 4.4844 1.2 -8.94759 -338046 2.24228e+06 3.35962e+06 1.2893e+06 -8296.34 86258.1
269 2 Si 3.1711 47.139 4.4844 2.4 -33.3738 1.19958e+07 8.44858e+06 9.15817e+06 727060 65775.7 -5943.01