ITEM: TIMESTEP
11400
ITEM: NUMBER OF ATOMS
10500
ITEM: BOX BOUNDS xy xz yz pp pp pp
0.0000000000000000e+00 1.5297450000000000e+01 5.0990000000000002e+00
0.0000000000000000e+00 1.1872499999999999e+02 0.0000000000000000e+00
0.0000000000000000e+00 8.9688000000000002e+01 0.0000000000000000e+00
ITEM: ATOMS id type element xu yu zu q c_pe c_s[1] c_s[2] c_s[3] c_s[4] c_s[5] c_s[6]
1 1 Mg 6.2404 -6.37941e-06 0 1.2 -3.73975 6.74426e+06 -2.51959e+06 -5.49391e+06 -15377.4 2.59466e+06 -784846
2 1 Mg 3.46349 4.70768 1.4948 1.2 -7.63576 -1.69287e+06 2.27556e+06 4.74727e+06 -931827 -625775 -314597
3 2 Si 5.2885 2.02354 1.4948 2.4 -33.6559 7.36966e+06 9.60702e+06 1.27385e+07 8.8759e+06 633958 -4.20329e+06
4 3 O 5.33628 3.63678 1.4948 -1.2 -5.55101 543573 -914472 -3.42336e+07 -340910 3.83356e+06 -3.39865e+06
5 3 O 1.67294 1.04952 1.4948 -1.2 -1.83145 -1.90802e+07 -7.86654e+07 -2.84601e+06 -2.41279e+07 -142337 493709
6 3 O 4.59532 1.31737 0.196716 -1.2 -3.74787 -771919 -6.02137e+06 -3.11811e+07 -6.03027e+06 6.28157e+06 -2.08078e+06
7 1 Mg 6.18956 -6.37941e-06 2.9896 1.2 -4.12708 259043 -2.91927e+07 -1.99852e+06 -8.83908e+06 2.40245e+06 3.50919e+06
8 3 O 4.55118 1.31737 2.79288 -1.2 -8.34234 1.53817e+06 -3.85684e+06 -4.05519e+06 -2.97718e+06 -3.37322e+06 -517391
9 1 Mg -1.20682 0.0413099 4.4844 1.2 9.80659 -3.20529e+07 -9.46619e+07 876434 -2.85394e+07 -1.16384e+06 -382633
10 2 Si -3.0337 2.72544 4.4844 2.4 -31.1221 1.12211e+07 5.13336e+06 9.87868e+06 1.64424e+06 67193.4 -1.88076e+06
11 3 O -3.08099 1.11221 4.4844 -1.2 -10.5372 -4.75927e+06 1.15963e+06 -3.22034e+06 -1.22748e+06 -171916 845321
12 3 O 0.582463 3.69946 4.4844 -1.2 -10.0259 -1.62105e+06 -4.65887e+06 -3.62157e+06 -529327 -152832 570298
13 3 O -2.29524 3.43162 3.18632 -1.2 -9.99991 -2.73009e+06 -1.82351e+06 -1.26312e+06 1.0953e+06 -818228 -375336
14 3 O -2.34216 3.43162 5.78248 -1.2 -9.98644 -2.13348e+06 -2.08252e+06 -2.64588e+06 798064 486311 1.98297e+06
15 1 Mg 1.12778 2.37449 2.9896 1.2 -6.70299 3.75583e+06 -2.43494e+06 98335.4 -3.29542e+06 -4.15938e+06 -2.86149e+06
16 1 Mg 3.92855 2.33318 4.4844 1.2 -7.50884 -5.81091e+06 4.01057e+06 5.85768e+06 1.42065e+06 280632 -200135
17 2 Si 2.09341 4.39804 4.4844 2.4 -30.255 8.61398e+06 5.43981e+06 1.03486e+07 173543 -161115 -792816
18 3 O 2.09991 6.01128 4.4844 -1.2 -10.5887 -2.26534e+06 450437 -4.37542e+06 554945 -196439 465242
19 3 O -4.52137 3.42402 4.4844 -1.2 -10.1862 -1.2522e+06 -2.0883e+06 -4.43567e+06 -2.45724e+06 -825948 706324
20 3 O 2.80834 3.69187 3.18632 -1.2 -10.2709 -586494 -2.17819e+06 -1.09889e+06 456229 -510040 97635.5
21 1 Mg 1.17857 2.37449 0 1.2 -4.40078 -1.73311e+06 -1.54514e+07 -5.84819e+06 6.51808e+06 1.22346e+06 4.04267e+06
22 3 O 2.76143 3.69187 5.78248 -1.2 -10.4685 -874390 -1.52406e+06 -2.28965e+06 507962 -65944 771421
23 1 Mg -1.67381 2.41581 1.4948 1.2 -6.76822 272277 -890730 4.7285e+06 1.35046e+06 -575981 467052
24 2 Si 0.16286 0.350945 1.4948 2.4 -23.018 -1.06097e+07 1.08382e+07 1.29486e+07 1.57098e+06 2.90496e+06 59439.7
25 3 O 0.15972 -1.26229 1.4948 -1.2 -5.49471 -9.52785e+06 -7.15569e+06 -2.97859e+07 -5.5961e+06 -8.56976e+06 -2.17483e+06
26 3 O 6.77654 1.32496 1.4948 -1.2 -11.1406 -4.46614e+06 2.51074e+06 -2.14019e+06 -645257 -628076 1.6441e+06
27 3 O -0.508028 1.05712 0.196716 -1.2 -10.2509 1.23802e+06 -3.99877e+06 -1.34632e+06 -548196 155618 -3.95304e+06
28 3 O -0.552171 1.05712 2.79288 -1.2 -7.65013 -4.01308e+06 -3.69988e+06 -2.55108e+07 1.43917e+06 -6.81892e+06 -4.93161e+06
29 1 Mg 6.31713 4.74899 0 1.2 -4.19991 -847560 -1.32869e+07 -5.68886e+06 -7.30791e+06 1.41811e+06 -3.88536e+06
30 1 Mg 3.54847 9.45668 1.4948 1.2 -7.46648 -1.10725e+06 1.75924e+06 4.38533e+06 -951314 -913735 -298119
31 2 Si 5.36879 6.77254 1.4948 2.4 -32.5776 4.48685e+06 1.16956e+07 1.19609e+07 1.68076e+06 148317 -2.32194e+06
32 3 O 5.41937 8.38578 1.4948 -1.2 -5.62299 1.08792e+06 -912028 -3.52697e+07 758918 1.09887e+06 -4.18952e+06
33 3 O 1.75158 5.79852 1.4948 -1.2 -10.3588 -2.64453e+06 -2.05611e+06 -1.71527e+06 1.97155e+06 -1.59788e+06 -1.0588e+06
34 3 O 4.67421 6.06637 0.196716 -1.2 -4.539 1.39461e+06 -9.88858e+06 -3.17132e+07 -2.01362e+06 1.31358e+06 -4.28521e+06
35 1 Mg 6.26654 4.74899 2.9896 1.2 -7.08337 2.58282e+06 -2.15934e+06 495187 1.8163e+06 -857489 1.4357e+06
36 3 O 4.63043 6.06637 2.79288 -1.2 -9.79729 -68467.4 -3.66191e+06 -2.53039e+06 920238 -116918 -1.08271e+06
37 1 Mg -1.12976 4.79031 4.4844 1.2 -7.71872 -2.29979e+06 2.10362e+06 3.43094e+06 -724179 -450010 -739670
38 2 Si -2.9517 7.47444 4.4844 2.4 -30.6861 7.71837e+06 8.51964e+06 9.08391e+06 33378.6 -68246.5 -854408
39 3 O -3.00198 5.86121 4.4844 -1.2 -10.5176 -2.25352e+06 291065 -4.20801e+06 51399.8 -218639 618026
40 3 O 0.666315 8.44846 4.4844 -1.2 -10.3804 -1.67952e+06 -2.46736e+06 -3.29945e+06 2.15918e+06 -453056 360650
41 3 O -2.21213 8.18062 3.18632 -1.2 -10.074 -1.34193e+06 -3.28318e+06 -776781 1.11541e+06 -272519 -1.2456e+06
42 3 O -2.25864 8.18062 5.78248 -1.2 -10.1769 -977699 -3.59521e+06 -1.87988e+06 1.12045e+06 -3018.93 1.8071e+06
43 1 Mg 1.20893 7.12349 2.9896 1.2 -7.01731 2.59795e+06 -1.83731e+06 31822.7 -1.29633e+06 -1.33076e+06 -1.98174e+06
44 1 Mg 4.00982 7.08218 4.4844 1.2 -7.5801 -2.6169e+06 2.27914e+06 3.40173e+06 1.05144e+06 -237178 -366325
45 2 Si 2.17861 9.14704 4.4844 2.4 -30.6277 7.85135e+06 8.70184e+06 8.64257e+06 580217 3621.79 -407936
46 3 O 2.18828 10.7603 4.4844 -1.2 -10.5337 -2.34713e+06 -81057.3 -3.83443e+06 449758 -225063 37404.4
47 3 O -4.43805 8.17302 4.4844 -1.2 -10.377 -1.55196e+06 -2.51491e+06 -3.35094e+06 -1.56145e+06 -514194 247693
48 3 O 2.89193 8.44087 3.18632 -1.2 -10.0962 -1.2392e+06 -3.47257e+06 -808227 -933620 -258987 1.4654e+06
49 1 Mg 1.25915 7.12349 0 1.2 -4.54123 -223955 -7.71408e+06 -6.23435e+06 5.89758e+06 1.37359e+06 2.57923e+06
50 3 O 2.84547 8.44087 5.78248 -1.2 -10.2331 -952955 -3.60915e+06 -1.90847e+06 -920963 -203003 -700378
51 1 Mg -1.59284 7.16481 1.4948 1.2 -7.38381 -566898 1.20442e+06 4.46597e+06 1.45163e+06 -918903 183682
52 2 Si 0.240329 5.09994 1.4948 2.4 -32.3583 5.62226e+06 1.01376e+07 1.20326e+07 -1.97578e+06 -1.04791e+06 1.2406e+06
53 3 O 0.234538 3.48671 1.4948 -1.2 -6.05578 -474422 980233 -3.43378e+07 407193 5.16745e+06 4.45352e+06
54 3 O 6.85564 6.07396 1.4948 -1.2 -10.4363 -3.01756e+06 -1.54975e+06 -1.68663e+06 -1.34591e+06 -1.82886e+06 1.41991e+06
55 3 O -0.429565 5.80612 0.196716 -1.2 -4.79216 537479 -8.48459e+06 -3.18106e+07 1.8548e+06 1.17928e+06 4.7328e+06
56 3 O -0.473377 5.80612 2.79288 -1.2 -9.89159 -648715 -3.17725e+06 -2.38475e+06 -767140 320645 1.71136e+06
57 1 Mg 6.40169 9.49799 0 1.2 -4.50012 269214 -6.35055e+06 -6.64395e+06 -5.49003e+06 1.00203e+06 -2.32336e+06
58 1 Mg 3.64209 14.2057 1.4948 1.2 -7.63313 -1.03109e+06 1.82309e+06 4.47145e+06 -1.03833e+06 -944725 -235893
59 2 Si 5.45748 11.5215 1.4948 2.4 -32.6057 4.82823e+06 1.18425e+07 1.14935e+07 901283 377896 -1.95287e+06
60 3 O 5.51101 13.1348 1.4948 -1.2 -5.58573 790954 -920661 -3.48437e+07 466569 -2.55934e+06 -4.43163e+06
61 3 O 1.83851 10.5475 1.4948 -1.2 -10.4332 -2.89078e+06 -1.92309e+06 -1.21152e+06 1.54004e+06 -1.57986e+06 -1.15555e+06
62 3 O 4.7611 10.8154 0.196716 -1.2 -4.40502 1.84861e+06 -1.16035e+07 -3.18902e+07 -2.46802e+06 -1.75712e+06 -4.43635e+06
63 1 Mg 6.35203 9.49799 2.9896 1.2 -7.02216 2.51781e+06 -1.62818e+06 -71312.8 1.32148e+06 -1.1795e+06 1.94506e+06
64 3 O 4.71833 10.8154 2.79288 -1.2 -9.79234 -331227 -3.77364e+06 -2.17505e+06 1.0379e+06 -19469.4 -1.34022e+06
65 1 Mg -1.0438 9.53931 4.4844 1.2 -7.59633 -2.56436e+06 2.43015e+06 3.13607e+06 -608263 -374282 -185107
66 2 Si -2.8604 12.2234 4.4844 2.4 -30.9526 7.98386e+06 8.5906e+06 9.1713e+06 -31807.4 -193283 154281
67 3 O -2.91391 10.6102 4.4844 -1.2 -10.4908 -2.162e+06 -124714 -3.93497e+06 227026 -121552 -21938.9
68 3 O 0.7596 13.1975 4.4844 -1.2 -10.2066 -1.95798e+06 -2.38013e+06 -3.39248e+06 2.16556e+06 -417657 8114.71
69 3 O -2.12001 12.9296 3.18632 -1.2 -9.94153 -1.44431e+06 -3.36015e+06 -815901 1.15371e+06 -173726 -1.57937e+06
70 3 O -2.16532 12.9296 5.78248 -1.2 -9.95351 -1.24408e+06 -3.3287e+06 -2.0625e+06 1.09342e+06 55539.4 1.29113e+06
71 1 Mg 1.29891 11.8725 2.9896 1.2 -7.07896 2.78413e+06 -1.61067e+06 -285467 -1.18616e+06 -1.23331e+06 -1.63534e+06
72 1 Mg 4.10033 11.8312 4.4844 1.2 -7.67885 -2.31121e+06 2.36518e+06 3.16972e+06 1.13872e+06 -171820 106973
73 2 Si 2.27333 13.896 4.4844 2.4 -31.0312 8.69573e+06 8.2575e+06 8.88418e+06 649640 -27201.4 -7914.28
74 3 O 2.28634 15.5093 4.4844 -1.2 -10.2741 -2.81928e+06 199461 -4.05995e+06 480206 -188607 181532
75 3 O -4.34533 12.922 4.4844 -1.2 -10.2062 -1.82605e+06 -2.38415e+06 -3.47795e+06 -1.48476e+06 -542249 -104437
76 3 O 2.98455 13.1899 3.18632 -1.2 -9.97185 -1.52784e+06 -3.43932e+06 -775143 -953840 -202721 1.25521e+06
77 1 Mg 1.34779 11.8725 0 1.2 -4.75288 1.62417e+06 -2.66914e+06 -6.88935e+06 3.56435e+06 795744 1.73691e+06
78 3 O 2.93934 13.1899 5.78248 -1.2 -10.025 -1.51756e+06 -3.28662e+06 -1.95192e+06 -912327 -225587 -1.15371e+06
79 1 Mg -1.50344 11.9138 1.4948 1.2 -7.51374 -821437 1.77907e+06 4.33782e+06 1.56215e+06 -963782 513275
80 2 Si 0.326006 9.84894 1.4948 2.4 -32.501 4.92493e+06 1.17939e+07 1.12501e+07 -617361 92239.7 2.35574e+06
81 3 O 0.317364 8.23571 1.4948 -1.2 -5.63454 901823 -750653 -3.53558e+07 -116794 1.1824e+06 4.25114e+06
82 3 O 6.94307 10.823 1.4948 -1.2 -10.4556 -2.96641e+06 -1.75895e+06 -1.22374e+06 -985787 -1.52937e+06 963266
83 3 O -0.343122 10.5551 0.196716 -1.2 -4.51111 1.51213e+06 -1.10504e+07 -3.19013e+07 2.46206e+06 -2.05504e+06 4.36538e+06
84 3 O -0.385966 10.5551 2.79288 -1.2 -9.84323 -418763 -3.81006e+06 -2.1144e+06 -846097 131407 1.10461e+06
85 1 Mg 6.49448 14.247 0 1.2 -4.78552 2.11986e+06 -1.85946e+06 -6.95615e+06 -2.96726e+06 261332 -1.40091e+06
86 1 Mg 3.74457 18.9547 1.4948 1.2 -7.83534 -1.04657e+06 2.17879e+06 4.37804e+06 -1.12231e+06 -949350 -413833
87 2 Si 5.55495 16.2705 1.4948 2.4 -32.8612 5.55935e+06 1.15079e+07 1.15252e+07 517728 843068 -2.33953e+06
88 3 O 5.6115 17.8838 1.4948 -1.2 -5.76769 -460035 -926221 -3.2064e+07 84712.8 -6.07549e+06 -4.02925e+06
89 3 O 1.93416 15.2965 1.4948 -1.2 -10.3393 -3.169e+06 -1.57193e+06 -1.1849e+06 1.53833e+06 -1.3726e+06 -1.05578e+06
90 3 O 4.85636 15.5644 0.196716 -1.2 -4.31519 1.67274e+06 -1.33219e+07 -3.03066e+07 -3.02597e+06 -5.14146e+06 -3.81195e+06
91 1 Mg 6.44662 14.247 2.9896 1.2 -7.16907 2.84418e+06 -1.74438e+06 -47011 1.2976e+06 -1.17517e+06 2.02249e+06
92 3 O 4.81537 15.5644 2.79288 -1.2 -9.60544 -617618 -3.67547e+06 -2.31465e+06 1.07579e+06 -78652.2 -1.20871e+06
93 1 Mg -0.948271 14.2883 4.4844 1.2 -7.83343 -2.29473e+06 2.19162e+06 3.47606e+06 -561308 -405198 -46144.4
94 2 Si -2.75928 16.9724 4.4844 2.4 -31.4821 8.87394e+06 8.29034e+06 9.44015e+06 3302.23 -91366.3 -878497
95 3 O -2.81617 15.3592 4.4844 -1.2 -10.2253 -2.55832e+06 175514 -4.2475e+06 253206 -141416 141316
96 3 O 0.862762 17.9465 4.4844 -1.2 -9.95862 -2.33207e+06 -2.44347e+06 -3.34864e+06 2.14395e+06 -400638 575147
97 3 O -2.0185 17.6786 3.18632 -1.2 -9.74555 -1.73542e+06 -3.40332e+06 -810093 1.15409e+06 -117109 -1.18129e+06
98 3 O -2.06164 17.6786 5.78248 -1.2 -9.58806 -1.74401e+06 -3.28382e+06 -2.33879e+06 1.05894e+06 -103039 2.28889e+06
99 1 Mg 1.39817 16.6215 2.9896 1.2 -7.25992 3.17183e+06 -1.69779e+06 -298277 -1.16469e+06 -1.2506e+06 -1.83591e+06
100 1 Mg 4.20062 16.5802 4.4844 1.2 -7.94549 -1.8721e+06 2.18915e+06 3.33722e+06 1.11394e+06 -169550 -283857
101 2 Si 2.37796 18.645 4.4844 2.4 -31.4626 9.3149e+06 8.72072e+06 8.49597e+06 747855 -56049.6 -1.15868e+06
102 3 O 2.39434 20.2583 4.4844 -1.2 -10.1362 -2.96158e+06 -398226 -3.53913e+06 451452 -204871 682793
103 3 O -4.24274 17.671 4.4844 -1.2 -9.97771 -2.29039e+06 -2.39266e+06 -3.36009e+06 -1.38857e+06 -524622 483687
104 3 O 3.08659 17.9389 3.18632 -1.2 -9.78251 -1.80065e+06 -3.53545e+06 -745908 -936473 -103769 1.61884e+06
105 1 Mg 1.44478 16.6215 0 1.2 -4.98627 3.45484e+06 330140 -6.9023e+06 1.39944e+06 -69372.1 950750
106 3 O 3.0436 17.9389 5.78248 -1.2 -9.69862 -1.94579e+06 -3.39646e+06 -1.97812e+06 -915118 -232689 -425889
107 1 Mg -1.40524 16.6628 1.4948 1.2 -7.73129 -777360 1.91523e+06 4.45853e+06 1.69722e+06 -992546 314060
108 2 Si 0.420358 14.5979 1.4948 2.4 -32.7428 5.38757e+06 1.1635e+07 1.13179e+07 -132415 515812 2.58929e+06
109 3 O 0.408732 12.9847 1.4948 -1.2 -5.5892 702774 -898666 -3.49065e+07 226663 -2.54084e+06 4.15932e+06
110 3 O 7.03923 15.572 1.4948 -1.2 -10.3589 -3.24244e+06 -1.4333e+06 -1.1864e+06 -948737 -1.30876e+06 1.00975e+06
111 3 O -0.248332 15.3041 0.196716 -1.2 -4.42863 1.32121e+06 -1.2839e+07 -3.03092e+07 3.24732e+06 -5.40134e+06 3.91684e+06
112 3 O -0.289436 15.3041 2.79288 -1.2 -9.65685 -638358 -3.75794e+06 -2.28766e+06 -858283 98631 1.12269e+06
113 1 Mg 6.59566 18.996 0 1.2 -5.01422 3.70374e+06 950736 -6.9406e+06 -912265 -661987 -885668
114 1 Mg 3.85574 23.7037 1.4948 1.2 -7.9958 -1.20258e+06 2.80696e+06 4.02309e+06 -1.19549e+06 -890738 -441491
115 2 Si 5.66125 21.0195 1.4948 2.4 -32.9617 6.3123e+06 1.1967e+07 1.0536e+07 175857 1.23319e+06 -2.75739e+06
116 3 O 5.72074 22.6328 1.4948 -1.2 -6.29481 -2.26503e+06 -1.30116e+06 -2.66986e+07 -216853 -8.50986e+06 -3.45143e+06
117 3 O 2.03867 20.0455 1.4948 -1.2 -10.2576 -3.33617e+06 -1.65455e+06 -863070 1.56835e+06 -1.15877e+06 -784249
118 3 O 4.96004 20.3134 0.196716 -1.2 -4.55272 799451 -1.50766e+07 -2.61113e+07 -3.18127e+06 -7.95867e+06 -2.71815e+06
119 1 Mg 6.55057 18.996 2.9896 1.2 -7.30016 3.20017e+06 -1.49576e+06 -441046 1.28529e+06 -1.1992e+06 1.602e+06
120 3 O 4.92172 20.3134 2.79288 -1.2 -9.48315 -782623 -4.15445e+06 -1.90206e+06 1.0898e+06 -107321 -881354
121 1 Mg -0.84282 19.0373 4.4844 1.2 -8.03056 -2.03041e+06 2.51469e+06 3.19909e+06 -504026 -323768 -722973
122 2 Si -2.64823 21.7214 4.4844 2.4 -31.5634 9.18063e+06 9.9416e+06 7.6157e+06 -89355.5 -297391 -1.23974e+06
123 3 O -2.70847 20.1082 4.4844 -1.2 -10.1183 -2.8391e+06 -440252 -3.50758e+06 362646 -112170 690011
124 3 O 0.97581 22.6955 4.4844 -1.2 -9.93354 -2.43968e+06 -3.31815e+06 -2.41864e+06 2.19616e+06 -502100 638063
125 3 O -1.9076 22.4276 3.18632 -1.2 -9.67188 -1.86172e+06 -4.0641e+06 -180260 1.16911e+06 2847.63 -1.07795e+06
126 3 O -1.9475 22.4276 5.78248 -1.2 -9.66541 -1.7926e+06 -4.36745e+06 -1.03309e+06 1.22994e+06 147861 2.16082e+06
127 1 Mg 1.50678 21.3705 2.9896 1.2 -7.33849 3.38648e+06 -1.12225e+06 -962568 -1.14565e+06 -1.23076e+06 -2.07159e+06
128 1 Mg 4.31086 21.3292 4.4844 1.2 -8.0369 -1.8516e+06 2.96408e+06 2.69009e+06 1.18729e+06 -203222 -557233
129 2 Si 2.49243 23.394 4.4844 2.4 -31.5543 9.3359e+06 1.02825e+07 7.05895e+06 701523 179591 -981189
130 3 O 2.51204 25.0073 4.4844 -1.2 -10.0594 -3.03875e+06 -880604 -3.1057e+06 619732 -220424 339135
131 3 O -4.13026 22.42 4.4844 -1.2 -9.93032 -2.36284e+06 -3.17103e+06 -2.5849e+06 -1.38016e+06 -400166 483951
132 3 O 3.19799 22.6879 3.18632 -1.2 -9.69783 -1.85079e+06 -4.18728e+06 -236810 -921459 -50813.6 1.70312e+06
133 1 Mg 1.5501 21.3705 0 1.2 -5.12375 4.43308e+06 2.29503e+06 -6.84666e+06 -73446.1 -971345 386583
134 3 O 3.1583 22.6879 5.78248 -1.2 -9.66708 -1.72149e+06 -4.45841e+06 -1.22873e+06 -975806 -410229 -490723
135 1 Mg -1.29822 21.4118 1.4948 1.2 -7.89656 -867784 2.55428e+06 4.07028e+06 1.80752e+06 -971134 52939.5
136 2 Si 0.523568 19.3469 1.4948 2.4 -32.9356 6.07821e+06 1.18168e+07 1.07826e+07 320100 959927 2.21881e+06
137 3 O 0.508934 17.7337 1.4948 -1.2 -5.76667 -530786 -890606 -3.21658e+07 662008 -6.05857e+06 4.17985e+06
138 3 O 7.14425 20.321 1.4948 -1.2 -10.2893 -3.44077e+06 -1.55819e+06 -783434 -934940 -1.06031e+06 1.21749e+06
139 3 O -0.145107 20.0531 0.196716 -1.2 -4.65985 416627 -1.47173e+07 -2.61203e+07 3.67683e+06 -8.18041e+06 3.11574e+06
140 3 O -0.183601 20.0531 2.79288 -1.2 -9.53048 -824486 -4.20999e+06 -1.89901e+06 -852733 17443.7 1.45904e+06
141 1 Mg 6.70502 23.745 0 1.2 -5.17675 4.333e+06 2.62773e+06 -6.60267e+06 415801 -1.50652e+06 -719408
142 1 Mg 3.97493 28.4527 1.4948 1.2 -8.23241 -1.25391e+06 2.9521e+06 4.07576e+06 -1.23859e+06 -787095 -335027
143 2 Si 5.77602 25.7685 1.4948 2.4 -33.0282 7.31339e+06 1.18507e+07 9.84522e+06 -106884 1.55042e+06 -2.76975e+06
144 3 O 5.83821 27.3818 1.4948 -1.2 -6.96352 -4.25235e+06 -1.21009e+06 -2.04963e+07 -344726 -9.3074e+06 -2.84433e+06
145 3 O 2.15175 24.7945 1.4948 -1.2 -10.1846 -3.43664e+06 -1.81622e+06 -584002 1.62823e+06 -940803 -709629
146 3 O 5.07184 25.0624 0.196716 -1.2 -5.09662 -618551 -1.60066e+07 -2.0271e+07 -2.78185e+06 -9.43592e+06 -1.27851e+06
147 1 Mg 6.66374 23.745 2.9896 1.2 -7.35586 3.40128e+06 -987487 -1.05828e+06 1.32445e+06 -1.27741e+06 1.61514e+06
148 3 O 5.03707 25.0624 2.79288 -1.2 -9.39185 -955545 -4.51848e+06 -1.55253e+06 1.09803e+06 -167039 -914231
149 1 Mg -0.727559 23.7863 4.4844 1.2 -8.04739 -1.92164e+06 3.26438e+06 2.35763e+06 -482002 -344943 -457638
150 2 Si -2.5277 26.4704 4.4844 2.4 -31.7916 9.54017e+06 1.01443e+07 7.41821e+06 282837 -137421 -513956
151 3 O -2.59107 24.8572 4.4844 -1.2 -10.0536 -2.94244e+06 -893091 -3.0581e+06 269895 -18214.5 349757
152 3 O 1.09817 27.4445 4.4844 -1.2 -9.74763 -2.58454e+06 -3.26834e+06 -2.62134e+06 2.31558e+06 -358540 276055
153 3 O -1.78784 27.1766 3.18632 -1.2 -9.51972 -2.0113e+06 -4.12292e+06 -274969 1.11305e+06 8277.94 -1.26569e+06
154 3 O -1.82343 27.1766 5.78248 -1.2 -9.45848 -1.92016e+06 -4.17704e+06 -1.38625e+06 964212 -48830.6 1.48332e+06
155 1 Mg 1.62435 26.1195 2.9896 1.2 -7.44071 3.61079e+06 -903121 -1.2391e+06 -1.19214e+06 -1.30767e+06 -1.84704e+06
156 1 Mg 4.43064 26.0782 4.4844 1.2 -8.12701 -1.6235e+06 3.12552e+06 2.4453e+06 1.15145e+06 -211570 -344342
157 2 Si 2.61607 28.143 4.4844 2.4 -31.8743 9.81799e+06 1.00977e+07 7.27765e+06 551243 -337188 -668384
158 3 O 2.63853 29.7563 4.4844 -1.2 -9.88761 -3.28971e+06 -781351 -3.24193e+06 591881 67529.3 238517
159 3 O -4.00841 27.169 4.4844 -1.2 -9.83327 -2.70863e+06 -3.14024e+06 -2.4419e+06 -1.44282e+06 -485361 306177
160 3 O 3.3182 27.4369 3.18632 -1.2 -9.55561 -2.06493e+06 -4.249e+06 -266539 -851610 126160 1.57301e+06
161 1 Mg 1.66335 26.1195 0 1.2 -5.312 4.44318e+06 3.05352e+06 -6.09417e+06 -897244 -1.57951e+06 79507.9
162 3 O 3.28288 27.4369 5.78248 -1.2 -9.51601 -2.05536e+06 -4.23348e+06 -1.45834e+06 -731677 -41782.3 -656095
163 1 Mg -1.18278 26.1608 1.4948 1.2 -8.09427 -1.01001e+06 2.92508e+06 3.96627e+06 1.9011e+06 -849311 -5118.69
164 2 Si 0.635424 24.0959 1.4948 2.4 -32.991 6.85041e+06 1.21909e+07 9.79253e+06 743064 1.36214e+06 2.12886e+06
165 3 O 0.617906 22.4827 1.4948 -1.2 -6.29415 -2.33728e+06 -1.28333e+06 -2.6781e+07 1.01105e+06 -8.53508e+06 3.87556e+06
166 3 O 7.25781 25.07 1.4948 -1.2 -10.2159 -3.56705e+06 -1.68122e+06 -532399 -949195 -822853 1.24639e+06
167 3 O -0.0337363 24.8021 0.196716 -1.2 -5.19111 -941549 -1.59736e+07 -2.02421e+07 3.50081e+06 -9.62884e+06 1.98968e+06
168 3 O -0.0687235 24.8021 2.79288 -1.2 -9.44548 -973407 -4.67038e+06 -1.47997e+06 -839614 -51549.2 1.27954e+06
169 1 Mg 6.82195 28.494 0 1.2 -5.46217 4.15229e+06 2.99891e+06 -5.45634e+06 1.16081e+06 -1.81716e+06 -655059
170 1 Mg 4.10106 33.2017 1.4948 1.2 -8.5453 -1.21075e+06 2.85871e+06 4.28682e+06 -1.20348e+06 -564707 1178.93
171 2 Si 5.89839 30.5175 1.4948 2.4 -33.2346 8.76296e+06 1.08353e+07 9.82478e+06 -330612 1.70809e+06 -2.40085e+06
172 3 O 5.96289 32.1308 1.4948 -1.2 -7.59306 -5.78746e+06 -849932 -1.46577e+07 -288187 -8.45424e+06 -2.42058e+06
173 3 O 2.27266 29.5435 1.4948 -1.2 -10.002 -3.64806e+06 -1.56955e+06 -864244 1.66892e+06 -681635 -744470
174 3 O 5.19102 29.8114 0.196716 -1.2 -5.7476 -2.31199e+06 -1.53686e+07 -1.43703e+07 -1.93743e+06 -9.29352e+06 -7486.69
175 1 Mg 6.78546 28.494 2.9896 1.2 -7.48542 3.77142e+06 -1.06033e+06 -1.14259e+06 1.3415e+06 -1.23968e+06 1.68198e+06
176 3 O 5.16061 29.8114 2.79288 -1.2 -9.23348 -1.36977e+06 -4.41582e+06 -1.53768e+06 1.12365e+06 -226370 -1.00209e+06
177 1 Mg -0.603205 28.5353 4.4844 1.2 -8.27138 -1.84192e+06 3.05615e+06 2.83933e+06 -425409 -228806 -268907
178 2 Si -2.39877 31.2194 4.4844 2.4 -32.1527 1.01984e+07 9.95669e+06 7.52749e+06 26573.4 102293 -591587
179 3 O -2.46483 29.6062 4.4844 -1.2 -9.8815 -3.20891e+06 -701764 -3.25701e+06 353592 -228892 340202
180 3 O 1.22864 32.1935 4.4844 -1.2 -9.52132 -2.82182e+06 -3.23579e+06 -2.79506e+06 2.20989e+06 -360364 242459
181 3 O -1.66032 31.9256 3.18632 -1.2 -9.29116 -2.30967e+06 -4.02324e+06 -523377 1.15873e+06 20438.9 -1.3561e+06
182 3 O -1.69072 31.9256 5.78248 -1.2 -9.31204 -2.23184e+06 -4.23031e+06 -1.1289e+06 1.19073e+06 -150293 1.86766e+06
183 1 Mg 1.7499 30.8685 2.9896 1.2 -7.63373 3.92814e+06 -1.03365e+06 -1.11016e+06 -1.12577e+06 -1.44343e+06 -1.72105e+06
184 1 Mg 4.55894 30.8272 4.4844 1.2 -8.26832 -1.21418e+06 3.02239e+06 2.36456e+06 1.16626e+06 -264610 -157040
185 2 Si 2.7476 32.892 4.4844 2.4 -32.3661 1.03585e+07 9.93152e+06 7.68731e+06 838205 -388450 -256386
186 3 O 2.77235 34.5053 4.4844 -1.2 -9.58658 -3.65893e+06 -714968 -3.41926e+06 556183 33381.5 -10273.9
187 3 O -3.87837 31.918 4.4844 -1.2 -9.65701 -3.15877e+06 -3.06526e+06 -2.35593e+06 -1.2815e+06 -428048 156729
188 3 O 3.44611 32.1859 3.18632 -1.2 -9.32198 -2.35954e+06 -4.12776e+06 -563343 -881917 254615 1.33132e+06
189 1 Mg 1.7837 30.8685 0 1.2 -5.65167 3.81511e+06 2.92747e+06 -4.85637e+06 -1.36483e+06 -1.5357e+06 258163
190 3 O 3.41602 32.1859 5.78248 -1.2 -9.33323 -2.27261e+06 -4.14014e+06 -1.37676e+06 -942095 204303 -949704
191 1 Mg -1.05984 30.9098 1.4948 1.2 -8.38158 -1.05177e+06 2.919e+06 4.17266e+06 1.9135e+06 -612176 -2706.54
192 2 Si 0.755243 28.8449 1.4948 2.4 -33.1825 7.99206e+06 1.13869e+07 9.84635e+06 1.13005e+06 1.55792e+06 2.10665e+06
193 3 O 0.735127 27.2317 1.4948 -1.2 -6.9568 -4.26676e+06 -1.2109e+06 -2.06293e+07 1.18093e+06 -9.30422e+06 3.23933e+06
194 3 O 7.37914 29.819 1.4948 -1.2 -10.033 -3.8158e+06 -1.42936e+06 -796229 -942497 -647233 1.19333e+06
195 3 O 0.0850649 29.5511 0.196716 -1.2 -5.81637 -2.49184e+06 -1.57489e+07 -1.43471e+07 2.70203e+06 -9.42578e+06 638887
196 3 O 0.0543974 29.5511 2.79288 -1.2 -9.2577 -1.22016e+06 -4.55474e+06 -1.70101e+06 -850287 -117150 1.18005e+06
197 1 Mg 6.94543 33.243 0 1.2 -5.86033 3.48045e+06 2.68385e+06 -4.15797e+06 1.59116e+06 -1.46499e+06 -659371
198 1 Mg 4.23267 37.9507 1.4948 1.2 -8.83607 -1.14826e+06 2.72384e+06 4.41056e+06 -1.1218e+06 -249740 390476
199 2 Si 6.02709 35.2665 1.4948 2.4 -33.5524 1.03154e+07 9.4679e+06 1.01988e+07 -425575 1.57592e+06 -1.4227e+06
200 3 O 6.09339 36.8798 1.4948 -1.2 -8.10452 -6.44962e+06 -441217 -1.00774e+07 -129587 -6.60149e+06 -2.30548e+06
201 3 O 2.40018 34.2925 1.4948 -1.2 -9.73 -3.96454e+06 -1.2315e+06 -1.37348e+06 1.68835e+06 -507346 -1.0533e+06
202 3 O 5.31645 34.5604 0.196716 -1.2 -6.41291 -3.75961e+06 -1.33613e+07 -9.42735e+06 -951802 -7.81513e+06 810686
203 1 Mg 6.91449 33.243 2.9896 1.2 -7.70891 4.24013e+06 -1.2251e+06 -1.08017e+06 1.29674e+06 -1.34832e+06 1.93983e+06
204 3 O 5.291 34.5604 2.79288 -1.2 -8.9758 -1.86894e+06 -4.16656e+06 -1.73435e+06 1.12796e+06 -239507 -1.34915e+06
205 1 Mg -0.471101 33.2843 4.4844 1.2 -8.49513 -1.45235e+06 3.10476e+06 2.75185e+06 -448435 -85820.2 -133305
206 2 Si -2.26307 35.9684 4.4844 2.4 -32.8075 1.13124e+07 9.6566e+06 7.7731e+06 74742.5 7363.92 390756
207 3 O -2.33122 34.3552 4.4844 -1.2 -9.61774 -3.7085e+06 -683550 -3.18902e+06 425264 -140991 -23205.9
208 3 O 1.36549 36.9425 4.4844 -1.2 -9.18767 -3.43079e+06 -3.09873e+06 -2.84736e+06 2.26205e+06 -326150 -246080
209 3 O -1.52658 36.6746 3.18632 -1.2 -8.98131 -2.74605e+06 -3.78505e+06 -911642 1.15294e+06 77178.4 -1.7867e+06
210 3 O -1.55122 36.6746 5.78248 -1.2 -8.88472 -2.88045e+06 -4.12154e+06 -1.33481e+06 1.16803e+06 -79246.5 1.31338e+06
211 1 Mg 1.882 35.6175 2.9896 1.2 -7.90598 4.4086e+06 -1.24175e+06 -936174 -1.10589e+06 -1.49725e+06 -1.31511e+06
212 1 Mg 4.69415 35.5762 4.4844 1.2 -8.61005 -769330 2.9329e+06 2.55934e+06 1.22754e+06 -246298 209149
213 2 Si 2.88522 37.641 4.4844 2.4 -33.0849 1.14276e+07 9.54094e+06 8.1697e+06 791119 -262038 704895
214 3 O 2.91159 39.2543 4.4844 -1.2 -9.23891 -4.17433e+06 -362229 -3.80094e+06 602625 30742.5 -349943
215 3 O -3.74183 36.667 4.4844 -1.2 -9.31106 -3.74322e+06 -2.87093e+06 -2.51125e+06 -1.29096e+06 -319393 -299024
216 3 O 3.58014 36.9349 3.18632 -1.2 -9.00468 -2.74682e+06 -3.91052e+06 -1.00175e+06 -862822 285245 906465
217 1 Mg 1.90997 35.6175 0 1.2 -6.03016 2.99433e+06 2.40488e+06 -3.88519e+06 -1.64094e+06 -748237 1.09499e+06
218 3 O 3.55582 36.9349 5.78248 -1.2 -8.89752 -2.77927e+06 -4.3091e+06 -1.40475e+06 -935422 46207 -1.56026e+06
219 1 Mg -0.93068 35.6588 1.4948 1.2 -8.69684 -959758 2.75027e+06 4.36242e+06 1.8541e+06 -297373 351827
220 2 Si 0.881882 33.5939 1.4948 2.4 -33.4888 9.48994e+06 1.01129e+07 1.01844e+07 1.41307e+06 1.64868e+06 2.42341e+06
221 3 O 0.859602 31.9807 1.4948 -1.2 -7.58234 -5.74922e+06 -857513 -1.48493e+07 1.15804e+06 -8.47262e+06 2.48672e+06
222 3 O 7.507 34.568 1.4948 -1.2 -9.75973 -4.14592e+06 -1.09195e+06 -1.30766e+06 -926719 -433672 867843
223 3 O 0.210186 34.3001 0.196716 -1.2 -6.44696 -3.80311e+06 -1.40958e+07 -9.44355e+06 1.53545e+06 -7.96377e+06 -833878
224 3 O 0.184454 34.3001 2.79288 -1.2 -9.01299 -1.71509e+06 -4.35734e+06 -1.84228e+06 -846832 -203223 833349
225 1 Mg 7.07415 37.992 0 1.2 -6.19187 2.64345e+06 2.27428e+06 -3.52941e+06 1.84172e+06 -401791 -806407
226 1 Mg 4.36817 42.6997 1.4948 1.2 -9.00903 -1.0764e+06 2.6351e+06 4.32268e+06 -990119 108679 367633
227 2 Si 6.16058 40.0155 1.4948 2.4 -33.7693 1.15283e+07 8.37651e+06 1.04324e+07 -374772 1.35082e+06 -805164
228 3 O 6.22815 41.6288 1.4948 -1.2 -8.52404 -6.25857e+06 -200703 -6.92782e+06 27593.1 -4.54442e+06 -1.96678e+06
229 3 O 2.53282 39.0415 1.4948 -1.2 -9.46898 -4.21766e+06 -1.04271e+06 -1.88671e+06 1.70809e+06 -317684 -1.33339e+06
230 3 O 5.44674 39.3094 0.196716 -1.2 -7.09334 -4.47241e+06 -1.07678e+07 -5.77751e+06 -135904 -5.78631e+06 1.38205e+06
231 1 Mg 7.04922 37.992 2.9896 1.2 -7.98774 4.73243e+06 -1.50321e+06 -836698 1.29534e+06 -1.45324e+06 2.29597e+06
232 3 O 5.42658 39.3094 2.79288 -1.2 -8.7281 -2.3848e+06 -3.85429e+06 -1.95609e+06 1.12767e+06 -260942 -1.59156e+06
233 1 Mg -0.333062 38.0333 4.4844 1.2 -8.8512 -881105 2.83848e+06 3.01591e+06 -413008 -45320.9 346747
234 2 Si -2.12255 40.7174 4.4844 2.4 -33.4066 1.21842e+07 9.11073e+06 8.41352e+06 59843 76429 843425
235 3 O -2.19212 39.1042 4.4844 -1.2 -9.28073 -4.25763e+06 -401562 -3.45153e+06 417914 -135321 -363905
236 3 O 1.50676 41.6915 4.4844 -1.2 -8.93119 -3.89928e+06 -2.79739e+06 -3.08867e+06 2.30818e+06 -231896 -248380
237 3 O -1.3884 41.4236 3.18632 -1.2 -8.73134 -3.04031e+06 -3.5594e+06 -1.34591e+06 1.1687e+06 91943.5 -1.85307e+06
238 3 O -1.40713 41.4236 5.78248 -1.2 -8.53459 -3.27371e+06 -3.77128e+06 -1.87591e+06 1.33671e+06 -18713.2 1.03727e+06
239 1 Mg 2.01892 40.3665 2.9896 1.2 -8.15296 4.82383e+06 -1.51036e+06 -673814 -1.09681e+06 -1.61236e+06 -1.15484e+06
240 1 Mg 4.83434 40.3252 4.4844 1.2 -8.91616 -286975 2.60228e+06 2.89886e+06 1.28432e+06 -244390 356935
241 2 Si 3.02698 42.39 4.4844 2.4 -33.5281 1.22025e+07 9.12083e+06 8.52406e+06 848326 -279828 563413
242 3 O 3.05433 44.0033 4.4844 -1.2 -9.07402 -4.50776e+06 -259899 -3.83539e+06 570668 26895.8 -321438
243 3 O -3.60077 41.416 4.4844 -1.2 -9.04643 -4.17457e+06 -2.61184e+06 -2.76566e+06 -1.33443e+06 -294249 -452461
244 3 O 3.71851 41.6839 3.18632 -1.2 -8.76807 -3.04712e+06 -3.69969e+06 -1.40179e+06 -865803 294283 861866
245 1 Mg 2.04077 40.3665 0 1.2 -6.27115 2.24139e+06 2.08465e+06 -3.84704e+06 -1.82272e+06 379060 1.98989e+06
246 3 O 3.70011 41.6839 5.78248 -1.2 -8.629 -3.23039e+06 -3.9314e+06 -1.63198e+06 -988586 129963 -1.36912e+06
247 1 Mg -0.796865 40.4078 1.4948 1.2 -8.91636 -848493 2.67506e+06 4.28645e+06 1.74321e+06 61528.2 469032
248 2 Si 1.01387 38.3429 1.4948 2.4 -33.756 1.09252e+07 8.86551e+06 1.046e+07 1.55117e+06 1.45533e+06 2.85456e+06
249 3 O 0.989947 36.7297 1.4948 -1.2 -8.09719 -6.43677e+06 -453292 -1.02416e+07 1.02637e+06 -6.64128e+06 1.57248e+06
250 3 O 7.63988 39.317 1.4948 -1.2 -9.50631 -4.40003e+06 -939189 -1.78542e+06 -921575 -291052 631364
251 3 O 0.340253 39.0491 0.196716 -1.2 -7.11174 -4.53569e+06 -1.16973e+07 -5.71055e+06 372383 -5.84848e+06 -2.00776e+06
252 3 O 0.319795 39.0491 2.79288 -1.2 -8.7628 -2.2629e+06 -4.03955e+06 -2.04785e+06 -852009 -226871 501129
253 1 Mg 7.20667 42.741 0 1.2 -6.38635 2.02294e+06 1.91415e+06 -3.70091e+06 2.0082e+06 961969 -1.80812e+06
254 1 Mg 4.50613 47.4487 1.4948 1.2 -9.06665 -951137 2.52166e+06 4.19999e+06 -846927 428718 486448
255 2 Si 6.29731 44.7645 1.4948 2.4 -33.8719 1.22911e+07 7.33355e+06 1.08537e+07 -226929 939592 -747326
256 3 O 6.36567 46.3778 1.4948 -1.2 -8.82707 -5.61598e+06 49949.8 -5.23408e+06 183180 -2.70178e+06 -1.72403e+06
257 3 O 2.669 43.7905 1.4948 -1.2 -9.27084 -4.34731e+06 -994252 -2.39295e+06 1.72188e+06 -181761 -1.24964e+06
258 3 O 5.58048 44.0584 0.196716 -1.2 -7.67758 -4.60724e+06 -7.86771e+06 -3.64247e+06 305176 -3.73278e+06 2.07343e+06
259 1 Mg 7.1879 42.741 2.9896 1.2 -8.18171 4.99664e+06 -1.70035e+06 -579648 1.2779e+06 -1.53617e+06 2.29116e+06
260 3 O 5.56564 44.0584 2.79288 -1.2 -8.58811 -2.74116e+06 -3.60893e+06 -2.09292e+06 1.13121e+06 -299554 -1.54499e+06
261 1 Mg -0.19105 42.7823 4.4844 1.2 -9.07111 -506345 2.60027e+06 3.22818e+06 -461031 -100840 312696
262 2 Si -1.97909 45.4664 4.4844 2.4 -33.7016 1.24122e+07 8.84699e+06 8.92819e+06 77718.6 -87195.2 681814
263 3 O -2.04947 43.8532 4.4844 -1.2 -9.07347 -4.43458e+06 -203087 -3.79672e+06 470542 -36776.1 -342260
264 3 O 1.65063 46.4405 4.4844 -1.2 -8.84391 -4.15143e+06 -2.727e+06 -3.04759e+06 2.26002e+06 -173883 -338100
265 3 O -1.24745 46.1726 3.18632 -1.2 -8.61157 -3.14713e+06 -3.4211e+06 -1.67227e+06 1.15356e+06 109920 -1.79837e+06
266 3 O -1.26044 46.1726 5.78248 -1.2 -8.42492 -3.34484e+06 -3.71584e+06 -1.97346e+06 1.19716e+06 183520 1.15177e+06
267 1 Mg 2.15896 45.1155 2.9896 1.2 -8.28375 5.05228e+06 -1.6543e+06 -533022 -1.05871e+06 -1.69937e+06 -1.17929e+06
268 1 Mg 4.97763 45.0742 4.4844 1.2 -9.07399 -39833.6 2.48449e+06 3.02373e+06 1.24226e+06 -66759.7 373245
269 2 Si 3.1711 47.139 4.4844 2.4 -33.7095 1.24095e+07 9.09263e+06 8.64625e+06 867802 -118819 862566