ITEM: TIMESTEP
12600
ITEM: NUMBER OF ATOMS
10500
ITEM: BOX BOUNDS xy xz yz pp pp pp
0.0000000000000000e+00 1.5297450000000000e+01 5.0990000000000002e+00
0.0000000000000000e+00 1.1872499999999999e+02 0.0000000000000000e+00
0.0000000000000000e+00 8.9688000000000002e+01 0.0000000000000000e+00
ITEM: ATOMS id type element xu yu zu q c_pe c_s[1] c_s[2] c_s[3] c_s[4] c_s[5] c_s[6]
1 1 Mg 6.2404 -6.37941e-06 0 1.2 -4.30989 7.59699e+06 -1.99226e+06 -5.96047e+06 -13270.1 2.62949e+06 -496667
2 1 Mg 3.46349 4.70768 1.4948 1.2 -8.28688 -630118 3.10596e+06 3.89731e+06 -948067 -658769 59938.1
3 2 Si 5.2885 2.02354 1.4948 2.4 -34.9582 9.39214e+06 1.14188e+07 1.09909e+07 8.88715e+06 651841 -3.49006e+06
4 3 O 5.33628 3.63678 1.4948 -1.2 -4.89696 -491382 -1.79745e+06 -3.33631e+07 -346190 3.82064e+06 -3.79329e+06
5 3 O 1.67294 1.04952 1.4948 -1.2 -1.19085 -2.01389e+07 -7.95589e+07 -1.91964e+06 -2.41155e+07 -122579 184372
6 3 O 4.59532 1.31737 0.196716 -1.2 -3.17569 -1.62872e+06 -6.70834e+06 -3.05541e+07 -6.03506e+06 6.30212e+06 -2.46096e+06
7 1 Mg 6.18956 -6.37941e-06 2.9896 1.2 -4.84631 1.35795e+06 -2.80003e+07 -3.13748e+06 -8.82255e+06 2.39924e+06 3.56852e+06
8 3 O 4.55118 1.31737 2.79288 -1.2 -7.61484 394951 -5.00983e+06 -2.92233e+06 -2.96977e+06 -3.39228e+06 -782735
9 1 Mg -1.20682 0.0413099 4.4844 1.2 9.02457 -3.0776e+07 -9.29937e+07 -813817 -2.85106e+07 -1.28684e+06 -372839
10 2 Si -3.0337 2.72544 4.4844 2.4 -32.9047 1.3963e+07 8.13021e+06 7.00352e+06 1.84109e+06 93087.1 -953409
11 3 O -3.08099 1.11221 4.4844 -1.2 -9.7033 -6.01623e+06 -452801 -1.67753e+06 -1.28925e+06 -117983 632714
12 3 O 0.582463 3.69946 4.4844 -1.2 -9.09531 -3.04356e+06 -6.02684e+06 -2.314e+06 -487582 -126639 -131901
13 3 O -2.29524 3.43162 3.18632 -1.2 -9.20638 -3.96594e+06 -2.97564e+06 -140653 1.0489e+06 -851295 -862559
14 3 O -2.34216 3.43162 5.78248 -1.2 -8.9151 -3.70762e+06 -3.90819e+06 -1.079e+06 569618 508268 1.29774e+06
15 1 Mg 1.12778 2.37449 2.9896 1.2 -7.46041 4.9921e+06 -1.25884e+06 -1.10052e+06 -3.32448e+06 -4.17979e+06 -2.42045e+06
16 1 Mg 3.92855 2.33318 4.4844 1.2 -8.37453 -4.39734e+06 5.48874e+06 4.35446e+06 1.34705e+06 317512 179338
17 2 Si 2.09341 4.39804 4.4844 2.4 -32.0981 1.15855e+07 7.91261e+06 7.85698e+06 -14395.6 -439532 487577
18 3 O 2.09991 6.01128 4.4844 -1.2 -9.67205 -3.76431e+06 -576047 -3.31802e+06 567643 -6910.92 -98797.4
19 3 O -4.52137 3.42402 4.4844 -1.2 -9.29975 -2.71162e+06 -3.4931e+06 -2.98048e+06 -2.50386e+06 -879519 239047
20 3 O 2.80834 3.69187 3.18632 -1.2 -9.4852 -1.88353e+06 -3.28298e+06 45391.1 503364 -462073 -379124
21 1 Mg 1.17857 2.37449 0 1.2 -4.93725 -809803 -1.47264e+07 -6.63692e+06 6.50747e+06 1.18222e+06 4.45507e+06
22 3 O 2.76143 3.69187 5.78248 -1.2 -9.44865 -2.60867e+06 -3.16372e+06 -508276 787132 90250 59653.5
23 1 Mg -1.67381 2.41581 1.4948 1.2 -7.41881 1.31351e+06 22095 3.81681e+06 1.36553e+06 -551325 863021
24 2 Si 0.16286 0.350945 1.4948 2.4 -24.2889 -8.48391e+06 1.25668e+07 1.11304e+07 1.55795e+06 2.88559e+06 528690
25 3 O 0.15972 -1.26229 1.4948 -1.2 -4.86979 -1.05728e+07 -7.89981e+06 -2.89975e+07 -5.58749e+06 -8.561e+06 -2.15039e+06
26 3 O 6.77654 1.32496 1.4948 -1.2 -10.4925 -5.4727e+06 1.61543e+06 -1.2759e+06 -658855 -650293 1.32902e+06
27 3 O -0.508028 1.05712 0.196716 -1.2 -9.69169 279580 -4.66538e+06 -617482 -541997 136099 -4.33555e+06
28 3 O -0.552171 1.05712 2.79288 -1.2 -6.93008 -5.19281e+06 -4.88049e+06 -2.43013e+07 1.43111e+06 -6.795e+06 -5.21437e+06
29 1 Mg 6.31713 4.74899 0 1.2 -4.74045 -22078.7 -1.25785e+07 -6.35669e+06 -7.29219e+06 1.45408e+06 -3.56676e+06
30 1 Mg 3.54847 9.45668 1.4948 1.2 -8.0634 -124264 2.37474e+06 3.74322e+06 -955174 -909877 -51291.1
31 2 Si 5.36879 6.77254 1.4948 2.4 -33.8592 6.5788e+06 1.31185e+07 1.04992e+07 1.67958e+06 196966 -1.69993e+06
32 3 O 5.41937 8.38578 1.4948 -1.2 -5.0044 70708.9 -1.55089e+06 -3.46045e+07 764496 1.07303e+06 -4.44975e+06
33 3 O 1.75158 5.79852 1.4948 -1.2 -9.70925 -3.69509e+06 -2.81865e+06 -942796 1.98536e+06 -1.55311e+06 -1.38605e+06
34 3 O 4.67421 6.06637 0.196716 -1.2 -3.99045 523283 -1.05394e+07 -3.10705e+07 -2.00031e+06 1.31695e+06 -4.54399e+06
35 1 Mg 6.26654 4.74899 2.9896 1.2 -7.85937 3.83827e+06 -1.14741e+06 -528817 1.84088e+06 -796339 1.90997e+06
36 3 O 4.63043 6.06637 2.79288 -1.2 -9.05026 -1.33344e+06 -4.53459e+06 -1.58833e+06 916249 -130906 -1.51142e+06
37 1 Mg -1.12976 4.79031 4.4844 1.2 -8.67625 -887125 3.33739e+06 2.32047e+06 -690751 -386639 -34799.7
38 2 Si -2.9517 7.47444 4.4844 2.4 -32.4913 1.04898e+07 1.03122e+07 7.41412e+06 -13096.4 164089 192226
39 3 O -3.00198 5.86121 4.4844 -1.2 -9.59175 -3.70001e+06 -809635 -3.12945e+06 34307.4 -352444 -49395.8
40 3 O 0.666315 8.44846 4.4844 -1.2 -9.51053 -2.99252e+06 -3.39608e+06 -2.45211e+06 2.13513e+06 -322939 -13147.6
41 3 O -2.21213 8.18062 3.18632 -1.2 -9.30853 -2.50757e+06 -4.08022e+06 -38581.5 1.12594e+06 -318206 -1.59038e+06
42 3 O -2.25864 8.18062 5.78248 -1.2 -9.14716 -2.422e+06 -4.48249e+06 -1.11393e+06 1.14661e+06 -100064 1.2664e+06
43 1 Mg 1.20893 7.12349 2.9896 1.2 -7.78303 3.80211e+06 -1.01592e+06 -766913 -1.29504e+06 -1.40811e+06 -1.61296e+06
44 1 Mg 4.00982 7.08218 4.4844 1.2 -8.44621 -1.02762e+06 3.20931e+06 2.2701e+06 1.08511e+06 -222304 194306
45 2 Si 2.17861 9.14704 4.4844 2.4 -32.2642 1.06351e+07 1.05121e+07 6.66765e+06 679796 -179922 355415
46 3 O 2.18828 10.7603 4.4844 -1.2 -9.77548 -3.60516e+06 -1.08819e+06 -2.78354e+06 413968 -169178 -294831
47 3 O -4.43805 8.17302 4.4844 -1.2 -9.5204 -2.99014e+06 -3.36284e+06 -2.42897e+06 -1.53371e+06 -636216 -208655
48 3 O 2.89193 8.44087 3.18632 -1.2 -9.35561 -2.49122e+06 -4.26735e+06 51890 -948000 -217976 1.11772e+06
49 1 Mg 1.25915 7.12349 0 1.2 -5.0687 621924 -7.15507e+06 -6.79409e+06 5.8846e+06 1.35388e+06 2.72892e+06
50 3 O 2.84547 8.44087 5.78248 -1.2 -9.32316 -2.72749e+06 -4.53726e+06 -572728 -1.022e+06 -120527 -1.32135e+06
51 1 Mg -1.59284 7.16481 1.4948 1.2 -8.02697 434055 1.89051e+06 3.8094e+06 1.46061e+06 -903172 460479
52 2 Si 0.240329 5.09994 1.4948 2.4 -33.668 7.70908e+06 1.17466e+07 1.04353e+07 -1.98304e+06 -1.08195e+06 1.96627e+06
53 3 O 0.234538 3.48671 1.4948 -1.2 -5.40319 -1.53501e+06 92546.7 -3.34345e+07 412169 5.17918e+06 4.03927e+06
54 3 O 6.85564 6.07396 1.4948 -1.2 -9.78629 -4.04939e+06 -2.3014e+06 -943984 -1.35804e+06 -1.8713e+06 1.08294e+06
55 3 O -0.429565 5.80612 0.196716 -1.2 -4.246 -349573 -9.14296e+06 -3.11406e+07 1.8416e+06 1.17327e+06 4.50284e+06
56 3 O -0.473377 5.80612 2.79288 -1.2 -9.12006 -1.81963e+06 -4.06077e+06 -1.56373e+06 -763840 324480 1.26992e+06
57 1 Mg 6.40169 9.49799 0 1.2 -4.99979 1.09835e+06 -5.89692e+06 -7.12614e+06 -5.48849e+06 1.00669e+06 -2.15562e+06
58 1 Mg 3.64209 14.2057 1.4948 1.2 -8.09058 -302776 2.47466e+06 3.82446e+06 -1.03422e+06 -953097 164344
59 2 Si 5.45748 11.5215 1.4948 2.4 -33.6905 6.61726e+06 1.3086e+07 1.0199e+07 880481 400111 -1.38078e+06
60 3 O 5.51101 13.1348 1.4948 -1.2 -5.09455 -15570.4 -1.56531e+06 -3.41792e+07 477210 -2.55374e+06 -4.78051e+06
61 3 O 1.83851 10.5475 1.4948 -1.2 -9.86 -3.80193e+06 -2.53526e+06 -606573 1.53217e+06 -1.56794e+06 -1.41413e+06
62 3 O 4.7611 10.8154 0.196716 -1.2 -3.92266 1.04568e+06 -1.20502e+07 -3.14131e+07 -2.46562e+06 -1.77998e+06 -4.6446e+06
63 1 Mg 6.35203 9.49799 2.9896 1.2 -7.72636 3.66014e+06 -857067 -856454 1.30318e+06 -1.12758e+06 2.24273e+06
64 3 O 4.71833 10.8154 2.79288 -1.2 -9.14585 -1.4087e+06 -4.55579e+06 -1.34975e+06 1.0551e+06 -33900.5 -1.65221e+06
65 1 Mg -1.0438 9.53931 4.4844 1.2 -8.43386 -1.36975e+06 3.3731e+06 2.34001e+06 -606979 -396085 113543
66 2 Si -2.8604 12.2234 4.4844 2.4 -32.3965 1.03043e+07 1.07893e+07 6.97208e+06 -108712 -38760.1 823261
67 3 O -2.91391 10.6102 4.4844 -1.2 -9.70971 -3.37975e+06 -1.10931e+06 -2.97819e+06 253749 -216274 -290753
68 3 O 0.7596 13.1975 4.4844 -1.2 -9.51688 -3.01456e+06 -3.52372e+06 -2.29487e+06 2.06922e+06 -425406 -519231
69 3 O -2.12001 12.9296 3.18632 -1.2 -9.33118 -2.42683e+06 -4.25352e+06 84134.1 1.16199e+06 -197192 -1.94958e+06
70 3 O -2.16532 12.9296 5.78248 -1.2 -9.14055 -2.4722e+06 -4.74035e+06 -906225 1.1221e+06 -80103.7 971738
71 1 Mg 1.29891 11.8725 2.9896 1.2 -7.71016 3.77934e+06 -756441 -1.12363e+06 -1.15722e+06 -1.25505e+06 -1.27524e+06
72 1 Mg 4.10033 11.8312 4.4844 1.2 -8.39706 -1.11004e+06 3.46902e+06 2.0161e+06 1.09684e+06 -194579 492057
73 2 Si 2.27333 13.896 4.4844 2.4 -32.3812 1.06861e+07 1.05031e+07 6.8129e+06 746099 -48244.2 1.32453e+06
74 3 O 2.28634 15.5093 4.4844 -1.2 -9.63342 -3.69654e+06 -779613 -3.22473e+06 426426 -226655 -512799
75 3 O -4.34533 12.922 4.4844 -1.2 -9.52091 -3.00278e+06 -3.52746e+06 -2.25137e+06 -1.39885e+06 -542864 -560691
76 3 O 2.98455 13.1899 3.18632 -1.2 -9.37003 -2.47495e+06 -4.34489e+06 114538 -960370 -183206 781943
77 1 Mg 1.34779 11.8725 0 1.2 -5.19899 2.30797e+06 -2.25531e+06 -7.27227e+06 3.56842e+06 800678 1.99148e+06
78 3 O 2.93934 13.1899 5.78248 -1.2 -9.27169 -2.61991e+06 -4.83571e+06 -485912 -905423 -165075 -1.9007e+06
79 1 Mg -1.50344 11.9138 1.4948 1.2 -8.04775 21035.5 2.40634e+06 3.72362e+06 1.56149e+06 -967563 800140
80 2 Si 0.326006 9.84894 1.4948 2.4 -33.6881 6.77037e+06 1.30183e+07 1.00822e+07 -600446 46671.2 2.81962e+06
81 3 O 0.317364 8.23571 1.4948 -1.2 -5.00747 -75985.2 -1.39192e+06 -3.47414e+07 -121410 1.20861e+06 4.01845e+06
82 3 O 6.94307 10.823 1.4948 -1.2 -9.89103 -3.88001e+06 -2.37351e+06 -599723 -977584 -1.5407e+06 708529
83 3 O -0.343122 10.5551 0.196716 -1.2 -4.01597 749846 -1.14904e+07 -3.14924e+07 2.45854e+06 -2.03038e+06 4.17415e+06
84 3 O -0.385966 10.5551 2.79288 -1.2 -9.17861 -1.4371e+06 -4.59656e+06 -1.37457e+06 -860663 153410 824158
85 1 Mg 6.49448 14.247 0 1.2 -5.13939 2.69951e+06 -1.39176e+06 -7.4365e+06 -2.96728e+06 244652 -1.09784e+06
86 1 Mg 3.74457 18.9547 1.4948 1.2 -8.16335 -527468 2.67902e+06 3.8842e+06 -1.1113e+06 -964346 -64291.5
87 2 Si 5.55495 16.2705 1.4948 2.4 -33.6414 6.8149e+06 1.27804e+07 1.0247e+07 520750 771550 -1.54534e+06
88 3 O 5.6115 17.8838 1.4948 -1.2 -5.41912 -1.01271e+06 -1.49767e+06 -3.14986e+07 75257.1 -6.04201e+06 -4.40184e+06
89 3 O 1.93416 15.2965 1.4948 -1.2 -9.91688 -3.828e+06 -2.22029e+06 -554154 1.52861e+06 -1.39038e+06 -1.46265e+06
90 3 O 4.85636 15.5644 0.196716 -1.2 -3.9954 1.14894e+06 -1.38323e+07 -2.97845e+07 -3.03617e+06 -5.11909e+06 -4.1406e+06
91 1 Mg 6.44662 14.247 2.9896 1.2 -7.71963 3.7635e+06 -879763 -948846 1.26167e+06 -1.19908e+06 2.48061e+06
92 3 O 4.81537 15.5644 2.79288 -1.2 -9.104 -1.40808e+06 -4.46914e+06 -1.53387e+06 1.08155e+06 -24882.6 -1.72019e+06
93 1 Mg -0.948271 14.2883 4.4844 1.2 -8.48297 -1.21132e+06 3.28526e+06 2.34067e+06 -507620 -310411 456705
94 2 Si -2.75928 16.9724 4.4844 2.4 -32.5452 1.08367e+07 1.01983e+07 7.2678e+06 -41109.7 -292407 638520
95 3 O -2.81617 15.3592 4.4844 -1.2 -9.63005 -3.64873e+06 -898938 -3.04094e+06 320910 -90208 -480227
96 3 O 0.862762 17.9465 4.4844 -1.2 -9.43648 -3.15567e+06 -3.33623e+06 -2.46777e+06 2.20835e+06 -539255 -95154.7
97 3 O -2.0185 17.6786 3.18632 -1.2 -9.29893 -2.51449e+06 -4.1588e+06 6375.52 1.16591e+06 -103153 -1.75554e+06
98 3 O -2.06164 17.6786 5.78248 -1.2 -9.06032 -2.88108e+06 -4.25938e+06 -1.02323e+06 1.1386e+06 73324.9 1.11953e+06
99 1 Mg 1.39817 16.6215 2.9896 1.2 -7.74318 3.90882e+06 -921394 -1.03732e+06 -1.15894e+06 -1.18877e+06 -1.3296e+06
100 1 Mg 4.20062 16.5802 4.4844 1.2 -8.54374 -1.02342e+06 3.10143e+06 2.53488e+06 1.15268e+06 -273443 414214
101 2 Si 2.37796 18.645 4.4844 2.4 -32.4885 1.0784e+07 1.03696e+07 7.02258e+06 666129 49545.9 105714
102 3 O 2.39434 20.2583 4.4844 -1.2 -9.68661 -3.67863e+06 -1.08903e+06 -2.85243e+06 520182 -194490 9922.22
103 3 O -4.24274 17.671 4.4844 -1.2 -9.44409 -3.1374e+06 -3.24699e+06 -2.51905e+06 -1.44864e+06 -407903 -263373
104 3 O 3.08659 17.9389 3.18632 -1.2 -9.32355 -2.48022e+06 -4.25603e+06 -80609.7 -944835 -109177 1.10486e+06
105 1 Mg 1.44478 16.6215 0 1.2 -5.25807 3.89517e+06 812586 -7.38954e+06 1.39935e+06 -39095.2 1.24587e+06
106 3 O 3.0436 17.9389 5.78248 -1.2 -9.04709 -2.73365e+06 -4.39547e+06 -1.23405e+06 -942266 -251615 -1.14028e+06
107 1 Mg -1.40524 16.6628 1.4948 1.2 -8.10768 -159392 2.54598e+06 3.81282e+06 1.68724e+06 -978479 702989
108 2 Si 0.420358 14.5979 1.4948 2.4 -33.6315 6.78779e+06 1.29457e+07 1.00309e+07 -117045 561797 3.36719e+06
109 3 O 0.408732 12.9847 1.4948 -1.2 -5.08971 -77981 -1.54179e+06 -3.42828e+07 215489 -2.54405e+06 3.81314e+06
110 3 O 7.03923 15.572 1.4948 -1.2 -9.94933 -3.91498e+06 -2.08717e+06 -516291 -939541 -1.28907e+06 619887
111 3 O -0.248332 15.3041 0.196716 -1.2 -4.0988 803487 -1.33519e+07 -2.98071e+07 3.25717e+06 -5.42097e+06 3.59332e+06
112 3 O -0.289436 15.3041 2.79288 -1.2 -9.1515 -1.45988e+06 -4.56839e+06 -1.46499e+06 -869559 44750 655744
113 1 Mg 6.59566 18.996 0 1.2 -5.24848 4.04934e+06 1.31938e+06 -7.27948e+06 -920917 -682625 -677198
114 1 Mg 3.85574 23.7037 1.4948 1.2 -8.27677 -743685 2.84591e+06 3.97542e+06 -1.19144e+06 -910748 77739.4
115 2 Si 5.66125 21.0195 1.4948 2.4 -33.5659 7.24516e+06 1.25986e+07 9.93948e+06 198021 1.22215e+06 -2.00244e+06
116 3 O 5.72074 22.6328 1.4948 -1.2 -6.00427 -2.70838e+06 -1.44906e+06 -2.65731e+07 -220291 -8.51211e+06 -3.89954e+06
117 3 O 2.03867 20.0455 1.4948 -1.2 -9.94787 -3.84402e+06 -2.06503e+06 -441077 1.57259e+06 -1.15752e+06 -1.14773e+06
118 3 O 4.96004 20.3134 0.196716 -1.2 -4.31148 431807 -1.53358e+07 -2.58713e+07 -3.1901e+06 -7.92759e+06 -2.92898e+06
119 1 Mg 6.55057 18.996 2.9896 1.2 -7.70825 3.85622e+06 -868868 -1.07018e+06 1.3144e+06 -1.23263e+06 2.14612e+06
120 3 O 4.92172 20.3134 2.79288 -1.2 -9.11184 -1.37167e+06 -4.66307e+06 -1.40037e+06 1.06391e+06 -103296 -1.37861e+06
121 1 Mg -0.84282 19.0373 4.4844 1.2 -8.49638 -1.18432e+06 3.29256e+06 2.32063e+06 -550252 -309209 76021.1
122 2 Si -2.64823 21.7214 4.4844 2.4 -32.3914 1.04109e+07 1.0998e+07 6.65262e+06 4265.66 -232826 403782
123 3 O -2.70847 20.1082 4.4844 -1.2 -9.67081 -3.55361e+06 -1.09526e+06 -2.86011e+06 298964 -75176.6 -91638.3
124 3 O 0.97581 22.6955 4.4844 -1.2 -9.53637 -3.04017e+06 -3.76594e+06 -2.00499e+06 2.21799e+06 -397068 -205509
125 3 O -1.9076 22.4276 3.18632 -1.2 -9.31659 -2.40136e+06 -4.38111e+06 106821 1.17074e+06 -14596.8 -1.74332e+06
126 3 O -1.9475 22.4276 5.78248 -1.2 -9.20591 -2.41177e+06 -4.93123e+06 -542125 1.21422e+06 104766 1.05855e+06
127 1 Mg 1.50678 21.3705 2.9896 1.2 -7.69898 3.97068e+06 -688366 -1.40304e+06 -1.17253e+06 -1.25624e+06 -1.49703e+06
128 1 Mg 4.31086 21.3292 4.4844 1.2 -8.44303 -1.13421e+06 3.5578e+06 2.02941e+06 1.21639e+06 -160081 115238
129 2 Si 2.49243 23.394 4.4844 2.4 -32.2749 1.06609e+07 1.11339e+07 6.03347e+06 743704 -66608.5 777152
130 3 O 2.51204 25.0073 4.4844 -1.2 -9.71786 -3.63652e+06 -1.12457e+06 -2.81849e+06 510741 -159099 -706044
131 3 O -4.13026 22.42 4.4844 -1.2 -9.53944 -2.96147e+06 -3.68129e+06 -2.11054e+06 -1.42037e+06 -509435 -322566
132 3 O 3.19799 22.6879 3.18632 -1.2 -9.35766 -2.44154e+06 -4.53115e+06 150409 -925096 -24803.6 1.05179e+06
133 1 Mg 1.5501 21.3705 0 1.2 -5.3473 4.84017e+06 2.41592e+06 -7.01652e+06 -70162.5 -979663 624494
134 3 O 3.1583 22.6879 5.78248 -1.2 -9.32021 -2.60965e+06 -5.13733e+06 -104706 -925389 -241542 -1.3731e+06
135 1 Mg -1.29822 21.4118 1.4948 1.2 -8.1936 -396538 2.82272e+06 3.8065e+06 1.80059e+06 -950682 463629
136 2 Si 0.523568 19.3469 1.4948 2.4 -33.573 7.12233e+06 1.27594e+07 9.81721e+06 294365 1.00519e+06 2.97107e+06
137 3 O 0.508934 17.7337 1.4948 -1.2 -5.41629 -1.09681e+06 -1.47195e+06 -3.15799e+07 670681 -6.09371e+06 3.79891e+06
138 3 O 7.14425 20.321 1.4948 -1.2 -9.98096 -3.9194e+06 -1.9402e+06 -417115 -938987 -1.06325e+06 838940
139 3 O -0.145107 20.0531 0.196716 -1.2 -4.42502 21726.6 -1.5e+07 -2.58192e+07 3.68585e+06 -8.21128e+06 2.8656e+06
140 3 O -0.183601 20.0531 2.79288 -1.2 -9.1558 -1.43557e+06 -4.74251e+06 -1.35582e+06 -826803 2495.73 911110
141 1 Mg 6.70502 23.745 0 1.2 -5.42297 4.6662e+06 2.50074e+06 -6.41436e+06 422445 -1.50346e+06 -375401
142 1 Mg 3.97493 28.4527 1.4948 1.2 -8.46616 -935876 2.49074e+06 4.5936e+06 -1.24549e+06 -819960 375515
143 2 Si 5.77602 25.7685 1.4948 2.4 -33.5644 8.09818e+06 1.14851e+07 1.0285e+07 -150122 1.49213e+06 -1.50608e+06
144 3 O 5.83821 27.3818 1.4948 -1.2 -6.71473 -4.60585e+06 -859753 -2.08915e+07 -319144 -9.25092e+06 -3.5312e+06
145 3 O 2.15175 24.7945 1.4948 -1.2 -9.91371 -3.89805e+06 -1.73078e+06 -642333 1.61262e+06 -936340 -1.28892e+06
146 3 O 5.07184 25.0624 0.196716 -1.2 -4.84994 -981898 -1.57834e+07 -2.05263e+07 -2.78331e+06 -9.38906e+06 -1.74221e+06
147 1 Mg 6.66374 23.745 2.9896 1.2 -7.6839 3.897e+06 -812879 -1.20303e+06 1.30048e+06 -1.24408e+06 2.31567e+06
148 3 O 5.03707 25.0624 2.79288 -1.2 -9.08581 -1.42157e+06 -4.54832e+06 -1.54742e+06 1.1277e+06 -172978 -1.70346e+06
149 1 Mg -0.727559 23.7863 4.4844 1.2 -8.43287 -1.35588e+06 3.51861e+06 2.15587e+06 -478723 -367921 418388
150 2 Si -2.5277 26.4704 4.4844 2.4 -32.4033 1.06702e+07 1.00601e+07 7.35057e+06 43552.6 -362729 1.36934e+06
151 3 O -2.59107 24.8572 4.4844 -1.2 -9.69559 -3.47633e+06 -1.03083e+06 -2.9587e+06 368558 -20196.5 -564633
152 3 O 1.09817 27.4445 4.4844 -1.2 -9.45214 -3.10442e+06 -3.17007e+06 -2.67718e+06 2.15156e+06 -540310 -873773
153 3 O -1.78784 27.1766 3.18632 -1.2 -9.2549 -2.53316e+06 -3.90389e+06 -398081 1.12661e+06 42711.5 -2.10999e+06
154 3 O -1.82343 27.1766 5.78248 -1.2 -9.24794 -2.66795e+06 -4.16648e+06 -857487 1.04282e+06 139928 489417
155 1 Mg 1.62435 26.1195 2.9896 1.2 -7.73322 4.09166e+06 -988477 -1.16593e+06 -1.12286e+06 -1.27415e+06 -999346
156 1 Mg 4.43064 26.0782 4.4844 1.2 -8.47586 -1.14656e+06 3.2451e+06 2.40819e+06 1.08643e+06 -158123 881948
157 2 Si 2.61607 28.143 4.4844 2.4 -32.5597 1.05429e+07 9.57148e+06 8.17935e+06 681787 54540.8 1.99561e+06
158 3 O 2.63853 29.7563 4.4844 -1.2 -9.56018 -3.56913e+06 -172556 -4.08457e+06 659889 -131084 -936056
159 3 O -4.00841 27.169 4.4844 -1.2 -9.50631 -3.14883e+06 -3.04119e+06 -2.62129e+06 -1.26445e+06 -319564 -825693
160 3 O 3.3182 27.4369 3.18632 -1.2 -9.25887 -2.44185e+06 -4.00602e+06 -606705 -864610 88356.1 565205
161 1 Mg 1.66335 26.1195 0 1.2 -5.53735 4.86795e+06 2.70351e+06 -5.80784e+06 -891763 -1.54955e+06 568651
162 3 O 3.28288 27.4369 5.78248 -1.2 -9.08427 -2.4368e+06 -4.35542e+06 -1.62176e+06 -827882 -248470 -2.56227e+06
163 1 Mg -1.18278 26.1608 1.4948 1.2 -8.35056 -578227 2.68371e+06 4.18649e+06 1.90151e+06 -828585 605431
164 2 Si 0.635424 24.0959 1.4948 2.4 -33.5436 7.78483e+06 1.21417e+07 9.7926e+06 759049 1.37472e+06 3.16555e+06
165 3 O 0.617906 22.4827 1.4948 -1.2 -6.00663 -2.81716e+06 -1.43719e+06 -2.6608e+07 1.01551e+06 -8.53415e+06 3.43368e+06
166 3 O 7.25781 25.07 1.4948 -1.2 -9.94278 -3.97837e+06 -1.55763e+06 -682301 -931947 -820999 675699
167 3 O -0.0337363 24.8021 0.196716 -1.2 -4.95205 -1.35466e+06 -1.57463e+07 -2.04394e+07 3.50313e+06 -9.67305e+06 1.57881e+06
168 3 O -0.0687235 24.8021 2.79288 -1.2 -9.1401 -1.47764e+06 -4.68375e+06 -1.45145e+06 -864495 -52144.6 583594
169 1 Mg 6.82195 28.494 0 1.2 -5.6719 4.42238e+06 2.49529e+06 -4.88675e+06 1.13566e+06 -1.84363e+06 -125851
170 1 Mg 4.10106 33.2017 1.4948 1.2 -8.63909 -1.11056e+06 2.19595e+06 4.99965e+06 -1.20972e+06 -615112 524514
171 2 Si 5.89839 30.5175 1.4948 2.4 -33.6 9.27122e+06 9.57339e+06 1.11639e+07 -335158 1.59368e+06 -1.08715e+06
172 3 O 5.96289 32.1308 1.4948 -1.2 -7.4638 -5.97263e+06 -170364 -1.5359e+07 -296724 -8.42643e+06 -3.0144e+06
173 3 O 2.27266 29.5435 1.4948 -1.2 -9.7965 -3.96356e+06 -1.008e+06 -1.43898e+06 1.66646e+06 -707532 -1.44814e+06
174 3 O 5.19102 29.8114 0.196716 -1.2 -5.55987 -2.54157e+06 -1.47803e+07 -1.50295e+07 -1.91909e+06 -9.22997e+06 -540485
175 1 Mg 6.78546 28.494 2.9896 1.2 -7.73725 4.19737e+06 -1.47175e+06 -753659 1.31353e+06 -1.3664e+06 2.58021e+06
176 3 O 5.16061 29.8114 2.79288 -1.2 -8.9962 -1.65779e+06 -3.82118e+06 -2.22189e+06 1.13416e+06 -118503 -1.83873e+06
177 1 Mg -0.603205 28.5353 4.4844 1.2 -8.49751 -1.19097e+06 2.77661e+06 2.82875e+06 -355385 -117715 902569
178 2 Si -2.39877 31.2194 4.4844 2.4 -32.5117 1.13287e+07 8.29706e+06 8.63062e+06 339634 41506.5 1.63744e+06
179 3 O -2.46483 29.6062 4.4844 -1.2 -9.66126 -3.84836e+06 -159925 -3.5146e+06 280476 -58765.6 -843031
180 3 O 1.22864 32.1935 4.4844 -1.2 -9.32114 -3.03997e+06 -2.34495e+06 -3.77617e+06 2.35796e+06 -421328 -751229
181 3 O -1.66032 31.9256 3.18632 -1.2 -9.14651 -2.65083e+06 -3.23386e+06 -1.20189e+06 1.11538e+06 -41047.6 -2.1903e+06
182 3 O -1.69072 31.9256 5.78248 -1.2 -9.13685 -2.85929e+06 -3.15176e+06 -1.81265e+06 940878 -433203 311546
183 1 Mg 1.7499 30.8685 2.9896 1.2 -7.83839 4.20467e+06 -1.71805e+06 -374325 -1.17583e+06 -1.36097e+06 -873889
184 1 Mg 4.55894 30.8272 4.4844 1.2 -8.56407 -998892 2.26247e+06 3.38564e+06 1.15684e+06 -425636 754378
185 2 Si 2.7476 32.892 4.4844 2.4 -32.6903 1.06036e+07 8.20528e+06 9.68893e+06 634305 -547302 1.24919e+06
186 3 O 2.77235 34.5053 4.4844 -1.2 -9.54201 -3.65702e+06 194267 -4.40186e+06 533000 132737 -538388
187 3 O -3.87837 31.918 4.4844 -1.2 -9.48654 -3.5709e+06 -2.1985e+06 -3.08421e+06 -1.43251e+06 -279215 -709801
188 3 O 3.44611 32.1859 3.18632 -1.2 -9.15855 -2.51709e+06 -3.37657e+06 -1.41625e+06 -842714 304392 652029
189 1 Mg 1.7837 30.8685 0 1.2 -5.79557 4.09975e+06 2.27989e+06 -4.26283e+06 -1.3431e+06 -1.56015e+06 791932
190 3 O 3.41602 32.1859 5.78248 -1.2 -9.06415 -2.39686e+06 -3.38059e+06 -2.37156e+06 -695591 276368 -1.8072e+06
191 1 Mg -1.05984 30.9098 1.4948 1.2 -8.53956 -733176 2.26743e+06 4.75876e+06 1.92535e+06 -558828 692458
192 2 Si 0.755243 28.8449 1.4948 2.4 -33.6066 8.76439e+06 1.03935e+07 1.07472e+07 1.16429e+06 1.69225e+06 3.54697e+06
193 3 O 0.735127 27.2317 1.4948 -1.2 -6.7163 -4.69453e+06 -869744 -2.09282e+07 1.15566e+06 -9.35815e+06 2.55805e+06
194 3 O 7.37914 29.819 1.4948 -1.2 -9.83989 -4.1434e+06 -848074 -1.3592e+06 -943611 -625525 497543
195 3 O 0.0850649 29.5511 0.196716 -1.2 -5.64128 -2.84151e+06 -1.51616e+07 -1.48653e+07 2.68477e+06 -9.49106e+06 49363.6
196 3 O 0.0543974 29.5511 2.79288 -1.2 -9.04366 -1.65084e+06 -4.02133e+06 -2.1464e+06 -863220 -219140 273131
197 1 Mg 6.94543 33.243 0 1.2 -5.94168 3.58513e+06 2.06865e+06 -3.51712e+06 1.59573e+06 -1.40197e+06 -120439
198 1 Mg 4.23267 37.9507 1.4948 1.2 -8.78003 -1.25353e+06 2.3603e+06 4.78959e+06 -1.10696e+06 -246916 741194
199 2 Si 6.02709 35.2665 1.4948 2.4 -33.574 1.03415e+07 8.36181e+06 1.13136e+07 -399150 1.5869e+06 -545820
200 3 O 6.09339 36.8798 1.4948 -1.2 -8.14144 -6.38148e+06 -7247.56 -1.05209e+07 -143410 -6.60246e+06 -2.67733e+06
201 3 O 2.40018 34.2925 1.4948 -1.2 -9.67946 -4.01896e+06 -604508 -2.02695e+06 1.70029e+06 -467791 -1.51208e+06
202 3 O 5.31645 34.5604 0.196716 -1.2 -6.36792 -3.77153e+06 -1.28215e+07 -1.00277e+07 -952548 -7.8204e+06 315363
203 1 Mg 6.91449 33.243 2.9896 1.2 -7.79432 4.45754e+06 -2.00251e+06 -383395 1.33769e+06 -1.33836e+06 2.56547e+06
204 3 O 5.291 34.5604 2.79288 -1.2 -8.94728 -1.92487e+06 -3.47405e+06 -2.41715e+06 1.10386e+06 -200051 -1.83406e+06
205 1 Mg -0.471101 33.2843 4.4844 1.2 -8.63063 -1.30473e+06 2.0572e+06 3.87141e+06 -479951 60105.4 710328
206 2 Si -2.26307 35.9684 4.4844 2.4 -32.6255 1.11937e+07 7.92118e+06 9.33145e+06 -117621 150962 1.14502e+06
207 3 O -2.33122 34.3552 4.4844 -1.2 -9.59716 -3.87948e+06 311261 -4.04741e+06 447903 -302220 -647005
208 3 O 1.36549 36.9425 4.4844 -1.2 -9.32203 -3.19462e+06 -2.36922e+06 -3.60691e+06 2.23021e+06 -316289 -420757
209 3 O -1.52658 36.6746 3.18632 -1.2 -9.05821 -2.64798e+06 -3.18326e+06 -1.4916e+06 1.20077e+06 52620.9 -2.07702e+06
210 3 O -1.55122 36.6746 5.78248 -1.2 -9.10823 -2.60607e+06 -3.04834e+06 -2.20893e+06 1.38697e+06 -175612 1.01407e+06
211 1 Mg 1.882 35.6175 2.9896 1.2 -7.89189 4.3512e+06 -1.90819e+06 -234913 -1.0997e+06 -1.52142e+06 -972465
212 1 Mg 4.69415 35.5762 4.4844 1.2 -8.55765 -859383 2.07082e+06 3.42846e+06 1.30779e+06 -314336 669876
213 2 Si 2.88522 37.641 4.4844 2.4 -32.7304 1.0859e+07 8.26304e+06 9.44229e+06 952079 -222169 1.05962e+06
214 3 O 2.91159 39.2543 4.4844 -1.2 -9.47242 -3.82367e+06 71659.6 -4.22601e+06 531992 -59729.1 -520167
215 3 O -3.74183 36.667 4.4844 -1.2 -9.4422 -3.57222e+06 -2.09069e+06 -3.25998e+06 -1.27763e+06 -290712 -659142
216 3 O 3.58014 36.9349 3.18632 -1.2 -9.08593 -2.59657e+06 -3.35397e+06 -1.58145e+06 -906406 292199 615455
217 1 Mg 1.90997 35.6175 0 1.2 -6.03779 3.00972e+06 1.93336e+06 -3.41684e+06 -1.6699e+06 -795526 1.52195e+06
218 3 O 3.55582 36.9349 5.78248 -1.2 -9.11418 -2.45534e+06 -3.34259e+06 -2.27378e+06 -1.04259e+06 -13486.6 -1.76535e+06
219 1 Mg -0.93068 35.6588 1.4948 1.2 -8.69146 -940730 2.20951e+06 4.87551e+06 1.8456e+06 -270802 733374
220 2 Si 0.881882 33.5939 1.4948 2.4 -33.6346 9.74349e+06 8.77382e+06 1.15036e+07 1.38955e+06 1.6518e+06 3.45054e+06
221 3 O 0.859602 31.9807 1.4948 -1.2 -7.4525 -5.98127e+06 -169981 -1.55123e+07 1.16609e+06 -8.49979e+06 1.86045e+06
222 3 O 7.507 34.568 1.4948 -1.2 -9.72724 -4.22637e+06 -483148 -1.88836e+06 -936880 -473101 394412
223 3 O 0.210186 34.3001 0.196716 -1.2 -6.41029 -3.92572e+06 -1.35242e+07 -9.95215e+06 1.53352e+06 -7.95996e+06 -1.29811e+06
224 3 O 0.184454 34.3001 2.79288 -1.2 -8.96253 -1.77589e+06 -3.59962e+06 -2.61877e+06 -824341 -237701 343952
225 1 Mg 7.07415 37.992 0 1.2 -6.16148 2.58625e+06 1.96156e+06 -3.20827e+06 1.87163e+06 -405517 -432194
226 1 Mg 4.36817 42.6997 1.4948 1.2 -9.00376 -1.08339e+06 2.24524e+06 4.71109e+06 -997663 126249 896969
227 2 Si 6.16058 40.0155 1.4948 2.4 -33.6514 1.12844e+07 7.75959e+06 1.11042e+07 -357998 1.3122e+06 -6026.78
228 3 O 6.22815 41.6288 1.4948 -1.2 -8.55509 -6.18051e+06 140631 -7.29759e+06 22792.1 -4.52175e+06 -2.44696e+06
229 3 O 2.53282 39.0415 1.4948 -1.2 -9.53676 -4.12016e+06 -725430 -2.1938e+06 1.70751e+06 -341120 -1.67747e+06
230 3 O 5.44674 39.3094 0.196716 -1.2 -7.1256 -4.41703e+06 -1.04755e+07 -6.07381e+06 -153721 -5.76907e+06 984192
231 1 Mg 7.04922 37.992 2.9896 1.2 -7.87832 4.54532e+06 -1.95306e+06 -375107 1.27688e+06 -1.47622e+06 2.59912e+06
232 3 O 5.42658 39.3094 2.79288 -1.2 -8.83932 -2.15414e+06 -3.50936e+06 -2.35587e+06 1.11153e+06 -267417 -1.93417e+06
233 1 Mg -0.333062 38.0333 4.4844 1.2 -8.64125 -1.15641e+06 2.22818e+06 3.56311e+06 -482054 -51065.7 447595
234 2 Si -2.12255 40.7174 4.4844 2.4 -32.9813 1.1485e+07 8.45063e+06 9.08676e+06 28806.3 -286095 1.5059e+06
235 3 O -2.19212 39.1042 4.4844 -1.2 -9.50583 -3.89421e+06 63078 -3.92886e+06 503061 -18312.4 -572094
236 3 O 1.50676 41.6915 4.4844 -1.2 -9.14505 -3.67392e+06 -2.48198e+06 -3.29978e+06 2.33341e+06 -290193 -751912
237 3 O -1.3884 41.4236 3.18632 -1.2 -8.84619 -2.88322e+06 -3.23614e+06 -1.64636e+06 1.15991e+06 166215 -2.31273e+06
238 3 O -1.40713 41.4236 5.78248 -1.2 -8.89311 -2.94497e+06 -3.46235e+06 -1.82416e+06 1.25596e+06 236121 695676
239 1 Mg 2.01892 40.3665 2.9896 1.2 -8.01898 4.65611e+06 -1.8137e+06 -417470 -1.09397e+06 -1.56076e+06 -791781
240 1 Mg 4.83434 40.3252 4.4844 1.2 -8.71812 -737196 2.25476e+06 3.37829e+06 1.31682e+06 -137860 675499
241 2 Si 3.02698 42.39 4.4844 2.4 -33.2256 1.18234e+07 8.30159e+06 9.23634e+06 705450 -72373.8 1.65515e+06
242 3 O 3.05433 44.0033 4.4844 -1.2 -9.1171 -4.48737e+06 329393 -4.38544e+06 679116 19681.7 -884140
243 3 O -3.60077 41.416 4.4844 -1.2 -9.19745 -3.75165e+06 -2.2771e+06 -3.28492e+06 -1.34441e+06 -203644 -852932
244 3 O 3.71851 41.6839 3.18632 -1.2 -8.86859 -2.87761e+06 -3.35959e+06 -1.75283e+06 -852636 220715 388561
245 1 Mg 2.04077 40.3665 0 1.2 -6.25258 2.23263e+06 1.77682e+06 -3.5602e+06 -1.83654e+06 421016 2.40298e+06
246 3 O 3.70011 41.6839 5.78248 -1.2 -8.91892 -2.79747e+06 -3.61525e+06 -1.87084e+06 -907936 -126903 -1.78354e+06
247 1 Mg -0.796865 40.4078 1.4948 1.2 -8.85658 -936094 2.36572e+06 4.58756e+06 1.73766e+06 42404.5 870858
248 2 Si 1.01387 38.3429 1.4948 2.4 -33.6266 1.07515e+07 8.16642e+06 1.11255e+07 1.52727e+06 1.47306e+06 3.47447e+06
249 3 O 0.989947 36.7297 1.4948 -1.2 -8.13135 -6.38937e+06 3246.15 -1.06915e+07 1.0395e+06 -6.63787e+06 1.24847e+06
250 3 O 7.63988 39.317 1.4948 -1.2 -9.57114 -4.28334e+06 -621158 -2.11696e+06 -920901 -262936 271992
251 3 O 0.340253 39.0491 0.196716 -1.2 -7.14557 -4.48608e+06 -1.1393e+07 -6.01071e+06 391441 -5.86284e+06 -2.35899e+06
252 3 O 0.319795 39.0491 2.79288 -1.2 -8.88867 -2.10608e+06 -3.68503e+06 -2.36163e+06 -836603 -226763 233966
253 1 Mg 7.20667 42.741 0 1.2 -6.42111 2.05839e+06 1.51302e+06 -3.27961e+06 2.00555e+06 922480 -1.26602e+06
254 1 Mg 4.50613 47.4487 1.4948 1.2 -9.24185 -642062 1.83406e+06 4.85921e+06 -856738 410312 925212
255 2 Si 6.29731 44.7645 1.4948 2.4 -34.0088 1.24949e+07 6.3315e+06 1.18713e+07 -216524 930789 392492
256 3 O 6.36567 46.3778 1.4948 -1.2 -8.69504 -5.83271e+06 652319 -5.83173e+06 177718 -2.71115e+06 -2.24378e+06
257 3 O 2.669 43.7905 1.4948 -1.2 -9.24291 -4.41162e+06 -542599 -2.82554e+06 1.73503e+06 -200197 -1.83084e+06
258 3 O 5.58048 44.0584 0.196716 -1.2 -7.61707 -4.71155e+06 -7.41524e+06 -4.08738e+06 312206 -3.72022e+06 1.50328e+06
259 1 Mg 7.1879 42.741 2.9896 1.2 -8.13867 4.88192e+06 -2.09744e+06 -136766 1.30373e+06 -1.58905e+06 2.81689e+06
260 3 O 5.56564 44.0584 2.79288 -1.2 -8.56835 -2.74792e+06 -3.12276e+06 -2.60432e+06 1.13039e+06 -304773 -2.0864e+06
261 1 Mg -0.19105 42.7823 4.4844 1.2 -8.93083 -627189 2.16173e+06 3.56228e+06 -415424 -106707 932320
262 2 Si -1.97909 45.4664 4.4844 2.4 -33.8536 1.26762e+07 7.60199e+06 1.01485e+07 259631 -46008.4 1.80584e+06
263 3 O -2.04947 43.8532 4.4844 -1.2 -9.11083 -4.39581e+06 313169 -4.29919e+06 368052 25166.2 -886044
264 3 O 1.65063 46.4405 4.4844 -1.2 -8.701 -4.29479e+06 -1.9972e+06 -3.87889e+06 2.31343e+06 -99877.3 -873358
265 3 O -1.24745 46.1726 3.18632 -1.2 -8.47938 -3.33197e+06 -2.76285e+06 -2.36075e+06 1.11613e+06 81958.6 -2.37187e+06
266 3 O -1.26044 46.1726 5.78248 -1.2 -8.30392 -3.59975e+06 -2.99659e+06 -2.54294e+06 1.14551e+06 19743.1 539563
267 1 Mg 2.15896 45.1155 2.9896 1.2 -8.34457 5.15928e+06 -2.2352e+06 38233.6 -1.09759e+06 -1.71454e+06 -587837
268 1 Mg 4.97763 45.0742 4.4844 1.2 -9.11079 37698.9 1.87366e+06 3.61607e+06 1.21763e+06 -44146.9 818922
269 2 Si 3.1711 47.139 4.4844 2.4 -34.0502 1.30962e+07 7.45693e+06 1.01277e+07 733206 -349482 1.86607e+06