ITEM: TIMESTEP
1000
ITEM: NUMBER OF ATOMS
10500
ITEM: BOX BOUNDS xy xz yz pp pp pp
0.0000000000000000e+00 1.5297450000000000e+01 5.0990000000000002e+00
0.0000000000000000e+00 1.1872499999999999e+02 0.0000000000000000e+00
0.0000000000000000e+00 8.9688000000000002e+01 0.0000000000000000e+00
ITEM: ATOMS id type element xu yu zu q c_pe c_s[1] c_s[2] c_s[3] c_s[4] c_s[5] c_s[6]
1 1 Mg 6.2404 -6.37941e-06 0 1.2 -4.57686 8.12569e+06 -2.283e+06 -5.77071e+06 -13771.8 2.61823e+06 -579683
2 1 Mg 3.46349 4.70768 1.4948 1.2 -8.61339 -117836 2.63293e+06 4.38119e+06 -933671 -601793 -274100
3 2 Si 5.2885 2.02354 1.4948 2.4 -35.6232 1.05877e+07 1.04281e+07 1.18514e+07 8.85668e+06 733631 -3.9643e+06
4 3 O 5.33628 3.63678 1.4948 -1.2 -4.56929 -1.05781e+06 -1.30739e+06 -3.3812e+07 -325697 3.79469e+06 -3.46842e+06
5 3 O 1.67294 1.04952 1.4948 -1.2 -0.847828 -2.06553e+07 -7.90894e+07 -2.4223e+06 -2.41292e+07 -109100 348761
6 3 O 4.59532 1.31737 0.196716 -1.2 -2.88078 -2.19216e+06 -6.29546e+06 -3.08765e+07 -6.02557e+06 6.23518e+06 -2.23747e+06
7 1 Mg 6.18956 -6.37941e-06 2.9896 1.2 -5.24038 2.03508e+06 -2.85758e+07 -2.60771e+06 -8.82133e+06 2.49492e+06 3.65418e+06
8 3 O 4.55118 1.31737 2.79288 -1.2 -7.24368 -292551 -4.44626e+06 -3.3947e+06 -2.96844e+06 -3.44244e+06 -648981
9 1 Mg -1.20682 0.0413099 4.4844 1.2 8.46458 -3.01328e+07 -9.37744e+07 222496 -2.85335e+07 -1.29117e+06 -205342
10 2 Si -3.0337 2.72544 4.4844 2.4 -33.7396 1.51545e+07 6.99577e+06 8.28254e+06 1.50705e+06 233426 -1.71523e+06
11 3 O -3.08099 1.11221 4.4844 -1.2 -9.20479 -6.72387e+06 292201 -2.52163e+06 -1.21405e+06 -308580 779996
12 3 O 0.582463 3.69946 4.4844 -1.2 -8.74966 -3.66223e+06 -5.55249e+06 -2.72463e+06 -626302 -88702.3 358879
13 3 O -2.29524 3.43162 3.18632 -1.2 -8.84615 -4.51497e+06 -2.47312e+06 -673161 1.1127e+06 -823811 -462206
14 3 O -2.34216 3.43162 5.78248 -1.2 -8.5346 -4.21494e+06 -3.51e+06 -1.51003e+06 875372 569176 1.81735e+06
15 1 Mg 1.12778 2.37449 2.9896 1.2 -7.83831 5.58377e+06 -1.81617e+06 -529327 -3.26476e+06 -4.2365e+06 -2.73802e+06
16 1 Mg 3.92855 2.33318 4.4844 1.2 -8.76318 -3.6263e+06 4.89922e+06 4.79467e+06 1.38576e+06 354227 4066.36
17 2 Si 2.09341 4.39804 4.4844 2.4 -32.7428 1.26942e+07 7.03825e+06 8.6564e+06 320135 -182168 -134646
18 3 O 2.09991 6.01128 4.4844 -1.2 -9.3754 -4.21765e+06 -167821 -3.74439e+06 512613 -244944 121182
19 3 O -4.52137 3.42402 4.4844 -1.2 -8.92666 -3.2885e+06 -2.98117e+06 -3.52094e+06 -2.36514e+06 -929357 494211
20 3 O 2.80834 3.69187 3.18632 -1.2 -9.13848 -2.45372e+06 -2.79259e+06 -430540 439327 -504637 -75384.7
21 1 Mg 1.17857 2.37449 0 1.2 -5.2648 -397124 -1.517e+07 -6.08126e+06 6.52393e+06 1.19734e+06 4.14929e+06
22 3 O 2.76143 3.69187 5.78248 -1.2 -9.11801 -3.18507e+06 -2.66923e+06 -960760 453435 -47495.4 192260
23 1 Mg -1.67381 2.41581 1.4948 1.2 -7.76202 1.83482e+06 -478695 4.34619e+06 1.35211e+06 -596328 558510
24 2 Si 0.16286 0.350945 1.4948 2.4 -24.9777 -7.535e+06 1.16878e+07 1.21641e+07 1.56466e+06 2.79878e+06 384537
25 3 O 0.15972 -1.26229 1.4948 -1.2 -4.55143 -1.10091e+07 -7.61612e+06 -2.9355e+07 -5.5786e+06 -8.52817e+06 -2.35765e+06
26 3 O 6.77654 1.32496 1.4948 -1.2 -10.1556 -6.04557e+06 2.10374e+06 -1.73155e+06 -641794 -661589 1.50858e+06
27 3 O -0.508028 1.05712 0.196716 -1.2 -9.37667 -134152 -4.274e+06 -1.10044e+06 -552612 202585 -4.11659e+06
28 3 O -0.552171 1.05712 2.79288 -1.2 -6.52602 -5.74175e+06 -4.28748e+06 -2.49914e+07 1.43229e+06 -6.74415e+06 -5.0603e+06
29 1 Mg 6.31713 4.74899 0 1.2 -5.04578 562172 -1.30636e+07 -5.96666e+06 -7.31241e+06 1.43695e+06 -3.93079e+06
30 1 Mg 3.54847 9.45668 1.4948 1.2 -8.38234 359869 1.85854e+06 4.28628e+06 -951923 -897272 -405905
31 2 Si 5.36879 6.77254 1.4948 2.4 -34.4894 7.59581e+06 1.21652e+07 1.14453e+07 1.66851e+06 180801 -2.40435e+06
32 3 O 5.41937 8.38578 1.4948 -1.2 -4.69055 -432200 -1.053e+06 -3.51022e+07 756608 1.09061e+06 -4.09375e+06
33 3 O 1.75158 5.79852 1.4948 -1.2 -9.38686 -4.17981e+06 -2.36322e+06 -1.4299e+06 1.96362e+06 -1.59999e+06 -1.05105e+06
34 3 O 4.67421 6.06637 0.196716 -1.2 -3.67662 -13109.6 -1.00591e+07 -3.15173e+07 -2.00852e+06 1.26747e+06 -4.18025e+06
35 1 Mg 6.26654 4.74899 2.9896 1.2 -8.18991 4.35565e+06 -1.61464e+06 -49461.7 1.7798e+06 -833526 1.56417e+06
36 3 O 4.63043 6.06637 2.79288 -1.2 -8.72763 -1.79117e+06 -4.06479e+06 -2.11709e+06 935707 -134882 -1.19794e+06
37 1 Mg -1.12976 4.79031 4.4844 1.2 -8.96946 -334664 2.94603e+06 2.62849e+06 -707392 -494317 -498023
38 2 Si -2.9517 7.47444 4.4844 2.4 -33.0286 1.14788e+07 9.38562e+06 8.20969e+06 51051.5 -168809 -344799
39 3 O -3.00198 5.86121 4.4844 -1.2 -9.30143 -4.17099e+06 -378077 -3.56589e+06 96868.1 -187206 297456
40 3 O 0.666315 8.44846 4.4844 -1.2 -9.23016 -3.52813e+06 -2.82452e+06 -2.93231e+06 2.16672e+06 -482031 114357
41 3 O -2.21213 8.18062 3.18632 -1.2 -9.02055 -3.0425e+06 -3.58138e+06 -464551 1.10124e+06 -255006 -1.31004e+06
42 3 O -2.25864 8.18062 5.78248 -1.2 -8.9454 -2.9774e+06 -3.98609e+06 -1.36278e+06 1.0147e+06 91513.5 1.39767e+06
43 1 Mg 1.20893 7.12349 2.9896 1.2 -8.08564 4.30239e+06 -1.47649e+06 -321737 -1.28698e+06 -1.31718e+06 -1.8819e+06
44 1 Mg 4.00982 7.08218 4.4844 1.2 -8.77961 -727617 2.7229e+06 2.99204e+06 1.03179e+06 -211800 -60962.4
45 2 Si 2.17861 9.14704 4.4844 2.4 -32.9011 1.14336e+07 9.30635e+06 8.10106e+06 496341 37851 -115437
46 3 O 2.18828 10.7603 4.4844 -1.2 -9.47306 -4.01501e+06 -421334 -3.52561e+06 485815 -205417 23920.6
47 3 O -4.43805 8.17302 4.4844 -1.2 -9.22126 -3.40491e+06 -2.85443e+06 -3.00209e+06 -1.56112e+06 -490894 71956.9
48 3 O 2.89193 8.44087 3.18632 -1.2 -9.04118 -2.91272e+06 -3.73818e+06 -556542 -918382 -273811 1.40763e+06
49 1 Mg 1.25915 7.12349 0 1.2 -5.397 1.08295e+06 -7.61284e+06 -6.27136e+06 5.89232e+06 1.3703e+06 2.408e+06
50 3 O 2.84547 8.44087 5.78248 -1.2 -8.9446 -2.96359e+06 -3.99857e+06 -1.57061e+06 -817121 -241312 -1.10383e+06
51 1 Mg -1.59284 7.16481 1.4948 1.2 -8.33627 963970 1.43e+06 4.23555e+06 1.45506e+06 -945825 119311
52 2 Si 0.240329 5.09994 1.4948 2.4 -34.3158 8.71065e+06 1.08439e+07 1.13741e+07 -1.9493e+06 -1.10278e+06 1.24645e+06
53 3 O 0.234538 3.48671 1.4948 -1.2 -5.06487 -2.03362e+06 572508 -3.39579e+07 392026 5.2078e+06 4.39455e+06
54 3 O 6.85564 6.07396 1.4948 -1.2 -9.47302 -4.58375e+06 -1.83668e+06 -1.37665e+06 -1.33933e+06 -1.82554e+06 1.44551e+06
55 3 O -0.429565 5.80612 0.196716 -1.2 -3.92277 -829678 -8.68938e+06 -3.16323e+07 1.84901e+06 1.2266e+06 4.84551e+06
56 3 O -0.473377 5.80612 2.79288 -1.2 -8.81551 -2.36364e+06 -3.63646e+06 -1.93318e+06 -783418 342633 1.62598e+06
57 1 Mg 6.40169 9.49799 0 1.2 -5.32329 1.64468e+06 -6.38532e+06 -6.6658e+06 -5.48057e+06 992543 -2.53775e+06
58 1 Mg 3.64209 14.2057 1.4948 1.2 -8.41664 243631 1.90126e+06 4.37387e+06 -1.03678e+06 -962078 -169011
59 2 Si 5.45748 11.5215 1.4948 2.4 -34.3276 7.65066e+06 1.19811e+07 1.12913e+07 918185 378717 -2.14964e+06
60 3 O 5.51101 13.1348 1.4948 -1.2 -4.77186 -544501 -994090 -3.47389e+07 462644 -2.55575e+06 -4.41374e+06
61 3 O 1.83851 10.5475 1.4948 -1.2 -9.53953 -4.29847e+06 -2.005e+06 -1.15347e+06 1.54698e+06 -1.58574e+06 -1.05783e+06
62 3 O 4.7611 10.8154 0.196716 -1.2 -3.58748 501876 -1.15496e+07 -3.19072e+07 -2.48534e+06 -1.77136e+06 -4.26117e+06
63 1 Mg 6.35203 9.49799 2.9896 1.2 -8.02434 4.14923e+06 -1.41186e+06 -313320 1.33591e+06 -1.18457e+06 1.92506e+06
64 3 O 4.71833 10.8154 2.79288 -1.2 -8.8454 -1.87567e+06 -3.96755e+06 -1.95199e+06 1.03433e+06 -14009 -1.28367e+06
65 1 Mg -1.0438 9.53931 4.4844 1.2 -8.70454 -791228 2.73635e+06 2.83288e+06 -589753 -365327 -39912.3
66 2 Si -2.8604 12.2234 4.4844 2.4 -32.8953 1.11098e+07 9.40983e+06 8.34701e+06 17383 -67323.2 267258
67 3 O -2.91391 10.6102 4.4844 -1.2 -9.44121 -3.86806e+06 -444280 -3.5802e+06 185915 -158053 -64154.2
68 3 O 0.7596 13.1975 4.4844 -1.2 -9.27293 -3.38385e+06 -2.90879e+06 -2.93502e+06 2.15979e+06 -399572 -172063
69 3 O -2.12001 12.9296 3.18632 -1.2 -9.05249 -2.85833e+06 -3.63832e+06 -545155 1.14414e+06 -203616 -1.63313e+06
70 3 O -2.16532 12.9296 5.78248 -1.2 -8.93953 -2.73934e+06 -4.02714e+06 -1.66543e+06 1.07495e+06 482.974 1.16481e+06
71 1 Mg 1.29891 11.8725 2.9896 1.2 -8.00568 4.23695e+06 -1.36068e+06 -503498 -1.1986e+06 -1.24616e+06 -1.63876e+06
72 1 Mg 4.10033 11.8312 4.4844 1.2 -8.65822 -694180 2.774e+06 2.71367e+06 1.1293e+06 -199302 109662
73 2 Si 2.27333 13.896 4.4844 2.4 -32.798 1.14396e+07 9.2949e+06 7.93137e+06 615679 -139303 560164
74 3 O 2.28634 15.5093 4.4844 -1.2 -9.44964 -4.06349e+06 -215043 -3.72816e+06 468690 -127316 -292371
75 3 O -4.34533 12.922 4.4844 -1.2 -9.29393 -3.37845e+06 -2.83069e+06 -2.9423e+06 -1.48893e+06 -575107 -214459
76 3 O 2.98455 13.1899 3.18632 -1.2 -9.09925 -2.93044e+06 -3.74194e+06 -470047 -942990 -169435 1.17019e+06
77 1 Mg 1.34779 11.8725 0 1.2 -5.55016 2.86965e+06 -2.7485e+06 -6.77811e+06 3.559e+06 811718 1.62081e+06
78 3 O 2.93934 13.1899 5.78248 -1.2 -9.10208 -2.96375e+06 -4.06753e+06 -1.17453e+06 -862181 -189778 -1.45676e+06
79 1 Mg -1.50344 11.9138 1.4948 1.2 -8.36923 535480 1.85179e+06 4.27882e+06 1.55926e+06 -962833 442430
80 2 Si 0.326006 9.84894 1.4948 2.4 -34.3218 7.78379e+06 1.19843e+07 1.1118e+07 -632806 83796.6 2.15703e+06
81 3 O 0.317364 8.23571 1.4948 -1.2 -4.69373 -580043 -911034 -3.52207e+07 -115136 1.1914e+06 4.3324e+06
82 3 O 6.94307 10.823 1.4948 -1.2 -9.57514 -4.40003e+06 -1.83182e+06 -1.12732e+06 -992506 -1.52574e+06 1.07639e+06
83 3 O -0.343122 10.5551 0.196716 -1.2 -3.68111 219482 -1.1007e+07 -3.19821e+07 2.47889e+06 -2.03679e+06 4.5306e+06
84 3 O -0.385966 10.5551 2.79288 -1.2 -8.87914 -1.93976e+06 -4.00943e+06 -1.93706e+06 -842567 129358 1.1296e+06
85 1 Mg 6.49448 14.247 0 1.2 -5.52274 3.30872e+06 -1.96243e+06 -6.86086e+06 -2.96699e+06 246298 -1.41516e+06
86 1 Mg 3.74457 18.9547 1.4948 1.2 -8.52059 69707.4 2.01484e+06 4.52355e+06 -1.11864e+06 -972344 -90350.2
87 2 Si 5.55495 16.2705 1.4948 2.4 -34.3154 7.94243e+06 1.15642e+07 1.14156e+07 516347 813661 -1.93109e+06
88 3 O 5.6115 17.8838 1.4948 -1.2 -5.07069 -1.59859e+06 -856180 -3.21133e+07 82483.9 -6.06007e+06 -4.31845e+06
89 3 O 1.93416 15.2965 1.4948 -1.2 -9.58216 -4.36981e+06 -1.63726e+06 -1.13208e+06 1.53548e+06 -1.36548e+06 -1.20263e+06
90 3 O 4.85636 15.5644 0.196716 -1.2 -3.60659 512269 -1.32372e+07 -3.03662e+07 -3.03027e+06 -5.11823e+06 -3.89184e+06
91 1 Mg 6.44662 14.247 2.9896 1.2 -7.99015 4.20172e+06 -1.4877e+06 -345757 1.29221e+06 -1.15482e+06 2.16678e+06
92 3 O 4.81537 15.5644 2.79288 -1.2 -8.83397 -1.89918e+06 -3.8736e+06 -2.07469e+06 1.08139e+06 -52560.6 -1.47535e+06
93 1 Mg -0.948271 14.2883 4.4844 1.2 -8.71856 -941303 2.67893e+06 3.05579e+06 -516462 -357672 230608
94 2 Si -2.75928 16.9724 4.4844 2.4 -32.9667 1.13905e+07 8.94695e+06 8.63755e+06 -55551.6 -80010.6 328435
95 3 O -2.81617 15.3592 4.4844 -1.2 -9.41982 -3.90572e+06 -257610 -3.77115e+06 277534 -179213 -237398
96 3 O 0.862762 17.9465 4.4844 -1.2 -9.19693 -3.45608e+06 -2.67261e+06 -3.22428e+06 2.15805e+06 -453826 -61786.4
97 3 O -2.0185 17.6786 3.18632 -1.2 -9.01299 -2.92102e+06 -3.51723e+06 -689942 1.16542e+06 -144007 -1.66117e+06
98 3 O -2.06164 17.6786 5.78248 -1.2 -8.90247 -3.00093e+06 -3.70391e+06 -1.62905e+06 1.16048e+06 -53571 1.23987e+06
99 1 Mg 1.39817 16.6215 2.9896 1.2 -8.02358 4.34261e+06 -1.52535e+06 -417932 -1.15577e+06 -1.25275e+06 -1.47263e+06
100 1 Mg 4.20062 16.5802 4.4844 1.2 -8.70328 -596112 2.4789e+06 2.98353e+06 1.12276e+06 -249799 293245
101 2 Si 2.37796 18.645 4.4844 2.4 -32.9543 1.15641e+07 8.92271e+06 8.43202e+06 740847 -130678 192466
102 3 O 2.39434 20.2583 4.4844 -1.2 -9.39839 -4.10926e+06 -264018 -3.71696e+06 490562 -145896 -66621
103 3 O -4.24274 17.671 4.4844 -1.2 -9.24832 -3.52448e+06 -2.58489e+06 -3.12117e+06 -1.40865e+06 -506806 -202110
104 3 O 3.08659 17.9389 3.18632 -1.2 -9.04936 -2.96851e+06 -3.59923e+06 -692706 -944888 -66129.3 1.14185e+06
105 1 Mg 1.44478 16.6215 0 1.2 -5.66692 4.54692e+06 210351 -6.78404e+06 1.39992e+06 -51716.7 1.06656e+06
106 3 O 3.0436 17.9389 5.78248 -1.2 -8.93614 -3.09165e+06 -3.63641e+06 -1.80261e+06 -949721 -97863 -1.24483e+06
107 1 Mg -1.40524 16.6628 1.4948 1.2 -8.45496 366344 1.93469e+06 4.45482e+06 1.69321e+06 -969229 536903
108 2 Si 0.420358 14.5979 1.4948 2.4 -34.3003 7.82268e+06 1.17932e+07 1.12201e+07 -131005 535134 2.78227e+06
109 3 O 0.408732 12.9847 1.4948 -1.2 -4.76279 -590203 -982632 -3.48534e+07 230840 -2.54411e+06 4.16648e+06
110 3 O 7.03923 15.572 1.4948 -1.2 -9.61276 -4.44875e+06 -1.48808e+06 -1.12149e+06 -945219 -1.31523e+06 856725
111 3 O -0.248332 15.3041 0.196716 -1.2 -3.70909 194320 -1.27672e+07 -3.0407e+07 3.25197e+06 -5.42321e+06 3.8489e+06
112 3 O -0.289436 15.3041 2.79288 -1.2 -8.86091 -1.87069e+06 -3.97848e+06 -2.10964e+06 -866903 70593.5 889702
113 1 Mg 6.59566 18.996 0 1.2 -5.66176 4.72826e+06 685286 -6.66222e+06 -915426 -679592 -722863
114 1 Mg 3.85574 23.7037 1.4948 1.2 -8.66112 -127207 2.19407e+06 4.62659e+06 -1.19381e+06 -922659 -71445
115 2 Si 5.66125 21.0195 1.4948 2.4 -34.3079 8.50594e+06 1.11886e+07 1.12774e+07 172785 1.22417e+06 -2.02914e+06
116 3 O 5.72074 22.6328 1.4948 -1.2 -5.62619 -3.35495e+06 -760294 -2.72218e+07 -209381 -8.51341e+06 -3.82668e+06
117 3 O 2.03867 20.0455 1.4948 -1.2 -9.57796 -4.42234e+06 -1.38392e+06 -1.13725e+06 1.56882e+06 -1.14695e+06 -1.14121e+06
118 3 O 4.96004 20.3134 0.196716 -1.2 -3.90768 -246633 -1.46937e+07 -2.64827e+07 -3.18041e+06 -7.92857e+06 -2.92424e+06
119 1 Mg 6.55057 18.996 2.9896 1.2 -8.01053 4.36616e+06 -1.57745e+06 -387247 1.29553e+06 -1.19087e+06 2.12888e+06
120 3 O 4.92172 20.3134 2.79288 -1.2 -8.7831 -1.9484e+06 -3.89748e+06 -2.11843e+06 1.08663e+06 -98076.6 -1.38899e+06
121 1 Mg -0.84282 19.0373 4.4844 1.2 -8.76056 -863253 2.57521e+06 3.13882e+06 -537266 -301037 62043.4
122 2 Si -2.64823 21.7214 4.4844 2.4 -33.0426 1.15487e+07 9.07548e+06 8.47551e+06 39846.4 -100064 163384
123 3 O -2.70847 20.1082 4.4844 -1.2 -9.38521 -4.00279e+06 -241373 -3.73612e+06 316249 -138381 -96885.7
124 3 O 0.97581 22.6955 4.4844 -1.2 -9.15561 -3.55576e+06 -2.78824e+06 -3.08318e+06 2.20249e+06 -431386 -83558.7
125 3 O -1.9076 22.4276 3.18632 -1.2 -8.95589 -2.98523e+06 -3.56803e+06 -704982 1.15384e+06 -62907.7 -1.62989e+06
126 3 O -1.9475 22.4276 5.78248 -1.2 -8.86292 -2.96205e+06 -3.81578e+06 -1.60747e+06 1.08267e+06 -57064.1 1.30467e+06
127 1 Mg 1.50678 21.3705 2.9896 1.2 -8.0521 4.49068e+06 -1.47691e+06 -568754 -1.15803e+06 -1.26547e+06 -1.50531e+06
128 1 Mg 4.31086 21.3292 4.4844 1.2 -8.75851 -574079 2.59259e+06 2.93911e+06 1.15357e+06 -236875 141137
129 2 Si 2.49243 23.394 4.4844 2.4 -33.0786 1.1701e+07 9.07784e+06 8.34003e+06 698027 -131703 277571
130 3 O 2.51204 25.0073 4.4844 -1.2 -9.30312 -4.20914e+06 -225697 -3.8137e+06 538618 -97270.9 -107531
131 3 O -4.13026 22.42 4.4844 -1.2 -9.20545 -3.65736e+06 -2.66216e+06 -2.9804e+06 -1.38768e+06 -486440 -127428
132 3 O 3.19799 22.6879 3.18632 -1.2 -8.98701 -3.00927e+06 -3.68025e+06 -727617 -911762 22335.5 1.166e+06
133 1 Mg 1.5501 21.3705 0 1.2 -5.76107 5.46933e+06 1.79274e+06 -6.35956e+06 -60816.5 -968393 611728
134 3 O 3.1583 22.6879 5.78248 -1.2 -8.88494 -3.03224e+06 -3.90064e+06 -1.70957e+06 -865484 -149485 -1.33164e+06
135 1 Mg -1.29822 21.4118 1.4948 1.2 -8.57232 197150 2.12456e+06 4.51778e+06 1.8097e+06 -942981 442165
136 2 Si 0.523568 19.3469 1.4948 2.4 -34.3067 8.23627e+06 1.14294e+07 1.12086e+07 314578 986632 2.90941e+06
137 3 O 0.508934 17.7337 1.4948 -1.2 -5.06159 -1.63754e+06 -843600 -3.22363e+07 663646 -6.07582e+06 3.89949e+06
138 3 O 7.14425 20.321 1.4948 -1.2 -9.61216 -4.52571e+06 -1.24463e+06 -1.09816e+06 -935639 -1.07389e+06 853457
139 3 O -0.145107 20.0531 0.196716 -1.2 -4.01274 -608124 -1.43576e+07 -2.64931e+07 3.6768e+06 -8.20856e+06 2.89493e+06
140 3 O -0.183601 20.0531 2.79288 -1.2 -8.81996 -1.92753e+06 -4.01763e+06 -2.12977e+06 -846460 2465.08 919300
141 1 Mg 6.70502 23.745 0 1.2 -5.81197 5.33823e+06 1.95276e+06 -5.91517e+06 396031 -1.48593e+06 -426358
142 1 Mg 3.97493 28.4527 1.4948 1.2 -8.82806 -345480 2.25725e+06 4.81652e+06 -1.22216e+06 -781613 -68805.9
143 2 Si 5.77602 25.7685 1.4948 2.4 -34.3199 9.38299e+06 1.04811e+07 1.12147e+07 -134831 1.57328e+06 -2.05384e+06
144 3 O 5.83821 27.3818 1.4948 -1.2 -6.34374 -5.22412e+06 -510786 -2.12169e+07 -332456 -9.31587e+06 -3.16258e+06
145 3 O 2.15175 24.7945 1.4948 -1.2 -9.52546 -4.48282e+06 -1.14454e+06 -1.26615e+06 1.60944e+06 -908135 -1.06055e+06
146 3 O 5.07184 25.0624 0.196716 -1.2 -4.46722 -1.606e+06 -1.5305e+07 -2.09937e+07 -2.76782e+06 -9.4378e+06 -1.57738e+06
147 1 Mg 6.66374 23.745 2.9896 1.2 -8.0533 4.56522e+06 -1.57769e+06 -514652 1.31208e+06 -1.21947e+06 2.08885e+06
148 3 O 5.03707 25.0624 2.79288 -1.2 -8.70688 -2.09126e+06 -3.88157e+06 -2.15425e+06 1.10008e+06 -153742 -1.35327e+06
149 1 Mg -0.727559 23.7863 4.4844 1.2 -8.82865 -810142 2.60599e+06 3.15622e+06 -478887 -266345 109831
150 2 Si -2.5277 26.4704 4.4844 2.4 -33.254 1.19239e+07 8.91411e+06 8.60537e+06 7221.03 -20048 241292
151 3 O -2.59107 24.8572 4.4844 -1.2 -9.30969 -4.15304e+06 -242240 -3.70109e+06 340529 -176849 -112316
152 3 O 1.09817 27.4445 4.4844 -1.2 -9.03044 -3.76351e+06 -2.66477e+06 -3.20721e+06 2.22782e+06 -407378 -25779
153 3 O -1.78784 27.1766 3.18632 -1.2 -8.84482 -3.11499e+06 -3.46146e+06 -916291 1.17085e+06 4915.7 -1.60157e+06
154 3 O -1.82343 27.1766 5.78248 -1.2 -8.6962 -3.16777e+06 -3.71019e+06 -1.78854e+06 1.2168e+06 -65568.8 1.31701e+06
155 1 Mg 1.62435 26.1195 2.9896 1.2 -8.12874 4.69372e+06 -1.57282e+06 -550034 -1.14705e+06 -1.32966e+06 -1.49184e+06
156 1 Mg 4.43064 26.0782 4.4844 1.2 -8.8548 -418619 2.53457e+06 2.99637e+06 1.20705e+06 -275370 155659
157 2 Si 2.61607 28.143 4.4844 2.4 -33.3244 1.20613e+07 8.82178e+06 8.62674e+06 801729 -148264 160285
158 3 O 2.63853 29.7563 4.4844 -1.2 -9.18553 -4.3861e+06 -77605.4 -3.97372e+06 544884 -108410 -2363.83
159 3 O -4.00841 27.169 4.4844 -1.2 -9.10036 -3.89607e+06 -2.54929e+06 -3.02582e+06 -1.35256e+06 -459531 -183857
160 3 O 3.3182 27.4369 3.18632 -1.2 -8.87735 -3.11847e+06 -3.58282e+06 -969566 -909364 119731 1.18801e+06
161 1 Mg 1.66335 26.1195 0 1.2 -5.91853 5.41556e+06 2.31825e+06 -5.35954e+06 -876605 -1.61369e+06 350920
162 3 O 3.28288 27.4369 5.78248 -1.2 -8.74543 -3.19233e+06 -3.81505e+06 -1.74361e+06 -965407 -68267.4 -1.28538e+06
163 1 Mg -1.18278 26.1608 1.4948 1.2 -8.73197 28574.5 2.2212e+06 4.65329e+06 1.88739e+06 -834886 318786
164 2 Si 0.635424 24.0959 1.4948 2.4 -34.3221 8.95491e+06 1.08943e+07 1.11173e+07 765975 1.34373e+06 2.85787e+06
165 3 O 0.617906 22.4827 1.4948 -1.2 -5.62034 -3.39823e+06 -751665 -2.73319e+07 1.00455e+06 -8.53233e+06 3.48712e+06
166 3 O 7.25781 25.07 1.4948 -1.2 -9.56273 -4.62314e+06 -1.00606e+06 -1.1986e+06 -928880 -855574 883281
167 3 O -0.0337363 24.8021 0.196716 -1.2 -4.56559 -1.96331e+06 -1.52588e+07 -2.09377e+07 3.48646e+06 -9.62726e+06 1.6912e+06
168 3 O -0.0687235 24.8021 2.79288 -1.2 -8.74551 -2.05443e+06 -4.00719e+06 -2.18505e+06 -841757 -61406 881376
169 1 Mg 6.82195 28.494 0 1.2 -6.00943 5.02024e+06 2.3077e+06 -4.75625e+06 1.14584e+06 -1.78026e+06 -440655
170 1 Mg 4.10106 33.2017 1.4948 1.2 -8.92736 -657836 2.49958e+06 4.70515e+06 -1.20258e+06 -545899 -119962
171 2 Si 5.89839 30.5175 1.4948 2.4 -34.2787 1.0324e+07 9.60011e+06 1.11718e+07 -330047 1.72247e+06 -2.1481e+06
172 3 O 5.96289 32.1308 1.4948 -1.2 -7.15073 -6.43551e+06 -369538 -1.51984e+07 -291807 -8.47003e+06 -2.40415e+06
173 3 O 2.27266 29.5435 1.4948 -1.2 -9.4479 -4.53477e+06 -901451 -1.53325e+06 1.6537e+06 -687325 -934099
174 3 O 5.19102 29.8114 0.196716 -1.2 -5.23474 -3.06343e+06 -1.47364e+07 -1.50722e+07 -1.93912e+06 -9.31202e+06 -162314
175 1 Mg 6.78546 28.494 2.9896 1.2 -8.13554 4.79322e+06 -1.73854e+06 -444600 1.30516e+06 -1.27651e+06 2.017e+06
176 3 O 5.16061 29.8114 2.79288 -1.2 -8.62221 -2.26318e+06 -3.73827e+06 -2.29969e+06 1.11268e+06 -224681 -1.2232e+06
177 1 Mg -0.603205 28.5353 4.4844 1.2 -8.96038 -608247 2.45694e+06 3.30822e+06 -475869 -248899 31978.3
178 2 Si -2.39877 31.2194 4.4844 2.4 -33.427 1.22203e+07 8.68708e+06 8.82154e+06 66065.5 -151288 -234871
179 3 O -2.46483 29.6062 4.4844 -1.2 -9.1832 -4.35041e+06 -57178.3 -3.87666e+06 399910 -90034.8 7844.78
180 3 O 1.22864 32.1935 4.4844 -1.2 -8.98624 -3.85962e+06 -2.63919e+06 -3.20348e+06 2.26251e+06 -397072 198442
181 3 O -1.66032 31.9256 3.18632 -1.2 -8.78164 -3.16205e+06 -3.44899e+06 -1.05849e+06 1.1581e+06 85130.9 -1.38643e+06
182 3 O -1.69072 31.9256 5.78248 -1.2 -8.62746 -3.34003e+06 -3.61596e+06 -1.79612e+06 1.15351e+06 16440.4 1.58368e+06
183 1 Mg 1.7499 30.8685 2.9896 1.2 -8.18811 4.8726e+06 -1.66821e+06 -531796 -1.13177e+06 -1.39202e+06 -1.61955e+06
184 1 Mg 4.55894 30.8272 4.4844 1.2 -8.9639 -295813 2.36934e+06 3.2155e+06 1.20827e+06 -214454 -45944.3
185 2 Si 2.7476 32.892 4.4844 2.4 -33.3704 1.20603e+07 8.93737e+06 8.59008e+06 764058 -167965 -407224
186 3 O 2.77235 34.5053 4.4844 -1.2 -9.23197 -4.28968e+06 -336055 -3.73496e+06 569959 -57599.2 190417
187 3 O -3.87837 31.918 4.4844 -1.2 -9.04137 -3.9976e+06 -2.4993e+06 -3.06326e+06 -1.3349e+06 -376108 114256
188 3 O 3.44611 32.1859 3.18632 -1.2 -8.81789 -3.12742e+06 -3.59816e+06 -1.13087e+06 -879042 186700 1.37717e+06
189 1 Mg 1.7837 30.8685 0 1.2 -6.10063 4.55187e+06 2.36285e+06 -4.3092e+06 -1.35357e+06 -1.58048e+06 362169
190 3 O 3.41602 32.1859 5.78248 -1.2 -8.65951 -3.24531e+06 -3.72696e+06 -1.90556e+06 -873293 -16653 -923988
191 1 Mg -1.05984 30.9098 1.4948 1.2 -8.8709 -207994 2.32143e+06 4.71044e+06 1.9053e+06 -627918 98389.7
192 2 Si 0.755243 28.8449 1.4948 2.4 -34.3269 9.90933e+06 1.00066e+07 1.11432e+07 1.14263e+06 1.54613e+06 2.5597e+06
193 3 O 0.735127 27.2317 1.4948 -1.2 -6.33939 -5.27581e+06 -501269 -2.13196e+07 1.16842e+06 -9.29454e+06 2.95187e+06
194 3 O 7.37914 29.819 1.4948 -1.2 -9.4893 -4.68711e+06 -772714 -1.45228e+06 -929339 -642377 1.01073e+06
195 3 O 0.0850649 29.5511 0.196716 -1.2 -5.3123 -3.36842e+06 -1.50809e+07 -1.49458e+07 2.70401e+06 -9.40582e+06 461440
196 3 O 0.0543974 29.5511 2.79288 -1.2 -8.66387 -2.25451e+06 -3.88452e+06 -2.28816e+06 -839595 -114918 965560
197 1 Mg 6.94543 33.243 0 1.2 -6.19017 3.99005e+06 2.38687e+06 -3.84212e+06 1.59054e+06 -1.40419e+06 -717490
198 1 Mg 4.23267 37.9507 1.4948 1.2 -8.96614 -966818 2.83445e+06 4.3269e+06 -1.11107e+06 -219161 -60750.9
199 2 Si 6.02709 35.2665 1.4948 2.4 -34.0751 1.10391e+07 9.24344e+06 1.0537e+07 -402516 1.62391e+06 -2.01752e+06
200 3 O 6.09339 36.8798 1.4948 -1.2 -7.9266 -6.67967e+06 -485520 -1.00888e+07 -147303 -6.62139e+06 -1.90041e+06
201 3 O 2.40018 34.2925 1.4948 -1.2 -9.41915 -4.47061e+06 -991456 -1.60554e+06 1.69558e+06 -501187 -835552
202 3 O 5.31645 34.5604 0.196716 -1.2 -6.13678 -4.12034e+06 -1.32357e+07 -9.63483e+06 -957788 -7.85236e+06 998411
203 1 Mg 6.91449 33.243 2.9896 1.2 -8.13693 4.86686e+06 -1.64903e+06 -597220 1.30914e+06 -1.37144e+06 1.80601e+06
204 3 O 5.291 34.5604 2.79288 -1.2 -8.64373 -2.31948e+06 -3.90961e+06 -2.07298e+06 1.11983e+06 -268193 -1.08881e+06
205 1 Mg -0.471101 33.2843 4.4844 1.2 -8.95264 -607604 2.55454e+06 3.19113e+06 -445127 -177635 -206645
206 2 Si -2.26307 35.9684 4.4844 2.4 -33.2446 1.19295e+07 9.30115e+06 8.20646e+06 87322.9 -170050 -219312
207 3 O -2.33122 34.3552 4.4844 -1.2 -9.23764 -4.27407e+06 -300577 -3.61714e+06 415950 -52733.5 189201
208 3 O 1.36549 36.9425 4.4844 -1.2 -9.06804 -3.77355e+06 -2.88908e+06 -2.91432e+06 2.29336e+06 -320653 128923
209 3 O -1.52658 36.6746 3.18632 -1.2 -8.80741 -3.03149e+06 -3.70821e+06 -985526 1.16429e+06 133014 -1.40858e+06
210 3 O -1.55122 36.6746 5.78248 -1.2 -8.80287 -3.0467e+06 -3.914e+06 -1.39886e+06 1.19049e+06 -4888.85 1.44328e+06
211 1 Mg 1.882 35.6175 2.9896 1.2 -8.14936 4.86196e+06 -1.43373e+06 -807625 -1.11745e+06 -1.48124e+06 -1.65517e+06
212 1 Mg 4.69415 35.5762 4.4844 1.2 -8.88919 -434368 2.68593e+06 2.91919e+06 1.23881e+06 -164654 -93099.7
213 2 Si 2.88522 37.641 4.4844 2.4 -33.2291 1.1855e+07 9.31952e+06 8.19148e+06 818605 -121489 -168364
214 3 O 2.91159 39.2543 4.4844 -1.2 -9.27549 -4.25876e+06 -361390 -3.67986e+06 546134 -79689 51690.9
215 3 O -3.74183 36.667 4.4844 -1.2 -9.13404 -3.86598e+06 -2.79072e+06 -2.7639e+06 -1.3312e+06 -301106 26130.2
216 3 O 3.58014 36.9349 3.18632 -1.2 -8.84285 -3.0074e+06 -3.8519e+06 -1.06238e+06 -873968 226033 1.32236e+06
217 1 Mg 1.90997 35.6175 0 1.2 -6.24171 3.34541e+06 2.40004e+06 -3.89249e+06 -1.66197e+06 -801899 811121
218 3 O 3.55582 36.9349 5.78248 -1.2 -8.78305 -3.01309e+06 -3.99198e+06 -1.74222e+06 -919672 -64211.5 -1.14748e+06
219 1 Mg -0.93068 35.6588 1.4948 1.2 -8.92444 -547300 2.66457e+06 4.4003e+06 1.85069e+06 -318867 15167.4
220 2 Si 0.881882 33.5939 1.4948 2.4 -34.1785 1.07155e+07 9.45576e+06 1.07212e+07 1.40157e+06 1.60081e+06 2.12338e+06
221 3 O 0.859602 31.9807 1.4948 -1.2 -7.14677 -6.5083e+06 -352632 -1.52926e+07 1.16136e+06 -8.45642e+06 2.48441e+06
222 3 O 7.507 34.568 1.4948 -1.2 -9.46475 -4.61026e+06 -892868 -1.51523e+06 -934195 -440159 1.10708e+06
223 3 O 0.210186 34.3001 0.196716 -1.2 -6.17965 -4.31506e+06 -1.39203e+07 -9.53609e+06 1.53953e+06 -7.92428e+06 -660775
224 3 O 0.184454 34.3001 2.79288 -1.2 -8.68308 -2.3236e+06 -4.03375e+06 -2.08593e+06 -840382 -173628 1.06328e+06
225 1 Mg 7.07415 37.992 0 1.2 -6.32681 2.83245e+06 2.45964e+06 -3.68763e+06 1.87581e+06 -384852 -1.28133e+06
226 1 Mg 4.36817 42.6997 1.4948 1.2 -9.00433 -1.09888e+06 2.92109e+06 4.05167e+06 -996429 144376 -106992
227 2 Si 6.16058 40.0155 1.4948 2.4 -33.8999 1.16113e+07 8.74984e+06 1.01851e+07 -356216 1.35042e+06 -1.78009e+06
228 3 O 6.22815 41.6288 1.4948 -1.2 -8.49887 -6.23315e+06 -438022 -6.75678e+06 27785.9 -4.52987e+06 -1.47834e+06
229 3 O 2.53282 39.0415 1.4948 -1.2 -9.38495 -4.3912e+06 -1.1918e+06 -1.69973e+06 1.71297e+06 -341216 -843111
230 3 O 5.44674 39.3094 0.196716 -1.2 -6.98453 -4.61312e+06 -1.09923e+07 -5.58664e+06 -160027 -5.78576e+06 1.86671e+06
231 1 Mg 7.04922 37.992 2.9896 1.2 -8.09805 4.81855e+06 -1.45842e+06 -790937 1.30017e+06 -1.47131e+06 1.888e+06
232 3 O 5.42658 39.3094 2.79288 -1.2 -8.67259 -2.38483e+06 -3.96516e+06 -1.93806e+06 1.11259e+06 -317874 -1.15775e+06
233 1 Mg -0.333062 38.0333 4.4844 1.2 -8.89045 -720943 2.70468e+06 3.05106e+06 -485114 -167594 -36764.3
234 2 Si -2.12255 40.7174 4.4844 2.4 -33.2917 1.17349e+07 9.04905e+06 8.73592e+06 -23063.9 -366703 -32958
235 3 O -2.19212 39.1042 4.4844 -1.2 -9.26549 -4.13718e+06 -352076 -3.65684e+06 481390 10114.6 -31265.1
236 3 O 1.50676 41.6915 4.4844 -1.2 -9.09668 -3.89438e+06 -2.76845e+06 -2.88047e+06 2.27897e+06 -272867 142463
237 3 O -1.3884 41.4236 3.18632 -1.2 -8.78147 -2.96367e+06 -3.6629e+06 -1.2439e+06 1.16754e+06 215991 -1.36535e+06
238 3 O -1.40713 41.4236 5.78248 -1.2 -8.72888 -3.07173e+06 -3.63206e+06 -1.78843e+06 1.27505e+06 367287 1.5225e+06
239 1 Mg 2.01892 40.3665 2.9896 1.2 -8.13353 4.9066e+06 -1.41189e+06 -886266 -1.08447e+06 -1.56928e+06 -1.62177e+06
240 1 Mg 4.83434 40.3252 4.4844 1.2 -8.87707 -481561 2.6219e+06 3.00919e+06 1.29989e+06 -20145.4 56249.2
241 2 Si 3.02698 42.39 4.4844 2.4 -33.1997 1.1922e+07 9.06272e+06 8.332e+06 814506 131711 -221855
242 3 O 3.05433 44.0033 4.4844 -1.2 -9.30268 -4.22163e+06 -307400 -3.72515e+06 635379 -129216 135308
243 3 O -3.60077 41.416 4.4844 -1.2 -9.09704 -3.78195e+06 -2.62103e+06 -3.07524e+06 -1.28252e+06 -236220 -23363.8
244 3 O 3.71851 41.6839 3.18632 -1.2 -8.82499 -2.96308e+06 -3.81501e+06 -1.28486e+06 -864023 169534 1.30808e+06
245 1 Mg 2.04077 40.3665 0 1.2 -6.36187 2.43043e+06 2.33168e+06 -4.13779e+06 -1.8436e+06 408956 1.49467e+06
246 3 O 3.70011 41.6839 5.78248 -1.2 -8.79154 -3.06564e+06 -3.74499e+06 -1.74835e+06 -996394 -317229 -1.17973e+06
247 1 Mg -0.796865 40.4078 1.4948 1.2 -8.96236 -759663 2.85526e+06 4.09108e+06 1.73731e+06 21315 -44761.1
248 2 Si 1.01387 38.3429 1.4948 2.4 -33.9679 1.13771e+07 9.08508e+06 1.01279e+07 1.5164e+06 1.43005e+06 1.87402e+06
249 3 O 0.989947 36.7297 1.4948 -1.2 -7.9231 -6.76942e+06 -459868 -1.01819e+07 1.04333e+06 -6.62045e+06 1.98634e+06
250 3 O 7.63988 39.317 1.4948 -1.2 -9.42328 -4.4911e+06 -1.09649e+06 -1.67092e+06 -925528 -262914 1.12808e+06
251 3 O 0.340253 39.0491 0.196716 -1.2 -7.005 -4.7435e+06 -1.18949e+07 -5.47653e+06 398241 -5.84512e+06 -1.48023e+06
252 3 O 0.319795 39.0491 2.79288 -1.2 -8.71835 -2.42045e+06 -4.09847e+06 -1.90651e+06 -835512 -177501 983352
253 1 Mg 7.20667 42.741 0 1.2 -6.45626 2.08533e+06 2.28084e+06 -4.01804e+06 2.00321e+06 920612 -2.23297e+06
254 1 Mg 4.50613 47.4487 1.4948 1.2 -8.99374 -1.07461e+06 3.01344e+06 3.71486e+06 -859432 431036 56793.5
255 2 Si 6.29731 44.7645 1.4948 2.4 -33.7906 1.20567e+07 8.14954e+06 1.01419e+07 -233159 903621 -1.66588e+06
256 3 O 6.36567 46.3778 1.4948 -1.2 -8.88968 -5.47782e+06 -428813 -4.79411e+06 180582 -2.68962e+06 -1.28578e+06
257 3 O 2.669 43.7905 1.4948 -1.2 -9.30501 -4.3339e+06 -1.33466e+06 -2.01225e+06 1.72693e+06 -222749 -797042
258 3 O 5.58048 44.0584 0.196716 -1.2 -7.6397 -4.64315e+06 -8.32326e+06 -3.21167e+06 315834 -3.71392e+06 2.4918e+06
259 1 Mg 7.1879 42.741 2.9896 1.2 -8.11427 4.78227e+06 -1.51935e+06 -654334 1.27846e+06 -1.61388e+06 1.78366e+06
260 3 O 5.56564 44.0584 2.79288 -1.2 -8.68317 -2.4895e+06 -3.87716e+06 -1.92674e+06 1.14555e+06 -313078 -1.03896e+06
261 1 Mg -0.19105 42.7823 4.4844 1.2 -8.86759 -643347 2.59403e+06 3.04385e+06 -403921 -208998 -123717
262 2 Si -1.97909 45.4664 4.4844 2.4 -33.1682 1.16047e+07 9.22996e+06 8.48883e+06 211621 -334765 -323692
263 3 O -2.04947 43.8532 4.4844 -1.2 -9.27412 -4.09536e+06 -296481 -3.73642e+06 409908 137219 184019
264 3 O 1.65063 46.4405 4.4844 -1.2 -9.14734 -3.73345e+06 -2.87479e+06 -2.85099e+06 2.29124e+06 -218689 58505.7
265 3 O -1.24745 46.1726 3.18632 -1.2 -8.79085 -2.88712e+06 -3.74633e+06 -1.32694e+06 1.11627e+06 151271 -1.3584e+06
266 3 O -1.26044 46.1726 5.78248 -1.2 -8.88912 -2.87014e+06 -3.76278e+06 -1.48092e+06 1.10288e+06 210575 1.58804e+06
267 1 Mg 2.15896 45.1155 2.9896 1.2 -8.12632 4.86531e+06 -1.37739e+06 -875296 -1.07923e+06 -1.65056e+06 -1.62579e+06
268 1 Mg 4.97763 45.0742 4.4844 1.2 -8.84399 -574696 2.67049e+06 3.00264e+06 1.19075e+06 8276.94 -159495
269 2 Si 3.1711 47.139 4.4844 2.4 -33.1141 1.15194e+07 9.37047e+06 8.2936e+06 717907 -24126.2 25444.6