ITEM: TIMESTEP
12500
ITEM: NUMBER OF ATOMS
10500
ITEM: BOX BOUNDS xy xz yz pp pp pp
0.0000000000000000e+00 1.5297450000000000e+01 5.0990000000000002e+00
0.0000000000000000e+00 1.1872499999999999e+02 0.0000000000000000e+00
0.0000000000000000e+00 8.9688000000000002e+01 0.0000000000000000e+00
ITEM: ATOMS id type element xu yu zu q c_pe c_s[1] c_s[2] c_s[3] c_s[4] c_s[5] c_s[6]
1 1 Mg 6.2404 -6.37941e-06 0 1.2 -4.1221 7.41956e+06 -2.39386e+06 -5.68232e+06 -9887.54 2.59284e+06 267316
2 1 Mg 3.46349 4.70768 1.4948 1.2 -8.15542 -918169 2.22338e+06 4.85731e+06 -938181 -613451 484191
3 2 Si 5.2885 2.02354 1.4948 2.4 -34.7141 9.0734e+06 1.01252e+07 1.22121e+07 8.8672e+06 557426 -1.87657e+06
4 3 O 5.33628 3.63678 1.4948 -1.2 -5.03405 -286711 -1.0004e+06 -3.41455e+07 -340413 3.88052e+06 -4.38179e+06
5 3 O 1.67294 1.04952 1.4948 -1.2 -1.28663 -1.98986e+07 -7.90247e+07 -2.54042e+06 -2.41419e+07 -179616 -707000
6 3 O 4.59532 1.31737 0.196716 -1.2 -3.36691 -1.39178e+06 -6.14252e+06 -3.105e+07 -6.03906e+06 6.27274e+06 -3.17005e+06
7 1 Mg 6.18956 -6.37941e-06 2.9896 1.2 -4.82653 1.43126e+06 -2.84449e+07 -2.79771e+06 -8.88849e+06 2.35155e+06 4.8466e+06
8 3 O 4.55118 1.31737 2.79288 -1.2 -7.643 475341 -4.40228e+06 -3.56469e+06 -2.96793e+06 -3.32069e+06 -1.8829e+06
9 1 Mg -1.20682 0.0413099 4.4844 1.2 8.95213 -3.05602e+07 -9.35778e+07 -329219 -2.85359e+07 -1.09985e+06 1.06423e+06
10 2 Si -3.0337 2.72544 4.4844 2.4 -32.8826 1.44219e+07 6.2418e+06 8.39005e+06 1.5261e+06 -333149 1.1424e+06
11 3 O -3.08099 1.11221 4.4844 -1.2 -9.6801 -6.30202e+06 293837 -2.18247e+06 -1.1287e+06 -54725.3 -707291
12 3 O 0.582463 3.69946 4.4844 -1.2 -9.10966 -3.14368e+06 -5.13342e+06 -3.09508e+06 -541521 -407419 -900984
13 3 O -2.29524 3.43162 3.18632 -1.2 -9.27121 -4.04487e+06 -2.10814e+06 -832059 1.10013e+06 -751287 -1.62516e+06
14 3 O -2.34216 3.43162 5.78248 -1.2 -9.01365 -4.18814e+06 -2.64874e+06 -1.5416e+06 873832 815924 318402
15 1 Mg 1.12778 2.37449 2.9896 1.2 -7.42835 4.87949e+06 -1.98032e+06 -317752 -3.27058e+06 -4.04807e+06 -1.55814e+06
16 1 Mg 3.92855 2.33318 4.4844 1.2 -8.47089 -4.53777e+06 4.69093e+06 5.448e+06 1.43767e+06 230068 1.38833e+06
17 2 Si 2.09341 4.39804 4.4844 2.4 -32.2097 1.13022e+07 6.07772e+06 1.01539e+07 71536.6 217857 2.036e+06
18 3 O 2.09991 6.01128 4.4844 -1.2 -9.57826 -3.66483e+06 576639 -4.71941e+06 656548 -289682 -682070
19 3 O -4.52137 3.42402 4.4844 -1.2 -9.24699 -2.69174e+06 -2.51078e+06 -4.0772e+06 -2.45179e+06 -600115 -779296
20 3 O 2.80834 3.69187 3.18632 -1.2 -9.49638 -1.6791e+06 -2.44806e+06 -975739 460861 -570483 -1.13454e+06
21 1 Mg 1.17857 2.37449 0 1.2 -4.73709 -1.2488e+06 -1.53696e+07 -5.87544e+06 6.51273e+06 1.25598e+06 5.02968e+06
22 3 O 2.76143 3.69187 5.78248 -1.2 -9.25619 -2.30419e+06 -2.284e+06 -2.04882e+06 572344 -321476 -942569
23 1 Mg -1.67381 2.41581 1.4948 1.2 -7.28677 1.16163e+06 -664582 4.44383e+06 1.34561e+06 -590380 1.57607e+06
24 2 Si 0.16286 0.350945 1.4948 2.4 -24.1091 -8.89189e+06 1.16581e+07 1.2159e+07 1.58889e+06 2.94045e+06 2.41867e+06
25 3 O 0.15972 -1.26229 1.4948 -1.2 -4.94106 -1.03874e+07 -7.68894e+06 -2.92793e+07 -5.60852e+06 -8.56298e+06 -3.28254e+06
26 3 O 6.77654 1.32496 1.4948 -1.2 -10.6115 -5.36754e+06 2.19333e+06 -1.76848e+06 -632350 -588359 464566
27 3 O -0.508028 1.05712 0.196716 -1.2 -9.86185 623443 -4.13884e+06 -1.21469e+06 -538264 170703 -5.02329e+06
28 3 O -0.552171 1.05712 2.79288 -1.2 -6.96628 -5.16118e+06 -4.27905e+06 -2.4877e+07 1.42803e+06 -6.86681e+06 -6.22666e+06
29 1 Mg 6.31713 4.74899 0 1.2 -4.47643 -352098 -1.34301e+07 -5.59812e+06 -7.30903e+06 1.3771e+06 -3.31681e+06
30 1 Mg 3.54847 9.45668 1.4948 1.2 -8.00424 -280429 796004 5.38334e+06 -961353 -917114 -457279
31 2 Si 5.36879 6.77254 1.4948 2.4 -33.6099 6.18253e+06 1.07999e+07 1.28147e+07 1.68727e+06 85031.8 -1.58279e+06
32 3 O 5.41937 8.38578 1.4948 -1.2 -5.09824 210450 -134276 -3.60105e+07 756626 1.11693e+06 -4.2241e+06
33 3 O 1.75158 5.79852 1.4948 -1.2 -9.83906 -3.41752e+06 -1.81784e+06 -2.0134e+06 1.98293e+06 -1.64275e+06 -1.6488e+06
34 3 O 4.67421 6.06637 0.196716 -1.2 -4.23206 885058 -9.54465e+06 -3.20398e+07 -2.00415e+06 1.30877e+06 -4.56368e+06
35 1 Mg 6.26654 4.74899 2.9896 1.2 -7.81115 3.78977e+06 -2.14121e+06 436140 1.83489e+06 -971579 2.48212e+06
36 3 O 4.63043 6.06637 2.79288 -1.2 -9.07512 -1.17662e+06 -3.41679e+06 -2.8235e+06 918732 -56034.7 -1.83266e+06
37 1 Mg -1.12976 4.79031 4.4844 1.2 -8.61053 -570202 2.27466e+06 2.95725e+06 -692363 -387065 672179
38 2 Si -2.9517 7.47444 4.4844 2.4 -32.6257 1.11923e+07 7.36598e+06 9.8704e+06 239725 -110501 821380
39 3 O -3.00198 5.86121 4.4844 -1.2 -9.57981 -3.94208e+06 438447 -4.17266e+06 -54682 -79216.7 -579198
40 3 O 0.666315 8.44846 4.4844 -1.2 -9.35362 -3.21303e+06 -1.77935e+06 -4.09492e+06 2.21899e+06 -522808 -189916
41 3 O -2.21213 8.18062 3.18632 -1.2 -9.29472 -2.68834e+06 -2.5773e+06 -1.3845e+06 1.08257e+06 -297424 -1.66406e+06
42 3 O -2.25864 8.18062 5.78248 -1.2 -8.98069 -3.11331e+06 -2.72623e+06 -2.52287e+06 981643 -140969 902245
43 1 Mg 1.20893 7.12349 2.9896 1.2 -7.78095 3.74695e+06 -2.29517e+06 564174 -1.33369e+06 -1.26915e+06 -1.37167e+06
44 1 Mg 4.00982 7.08218 4.4844 1.2 -8.5968 -1.11448e+06 1.90526e+06 3.90269e+06 1.034e+06 -346592 453186
45 2 Si 2.17861 9.14704 4.4844 2.4 -32.691 1.08336e+07 7.26377e+06 1.04057e+07 511083 -49831.9 281863
46 3 O 2.18828 10.7603 4.4844 -1.2 -9.52752 -3.79686e+06 771828 -4.8422e+06 457804 -192546 22116.7
47 3 O -4.43805 8.17302 4.4844 -1.2 -9.39114 -3.24559e+06 -1.85505e+06 -3.88937e+06 -1.61289e+06 -431819 -327786
48 3 O 2.89193 8.44087 3.18632 -1.2 -9.29117 -2.43282e+06 -2.78883e+06 -1.5856e+06 -907879 -232137 1.15387e+06
49 1 Mg 1.25915 7.12349 0 1.2 -4.83079 172736 -8.27133e+06 -5.60982e+06 5.90335e+06 1.39053e+06 2.58037e+06
50 3 O 2.84547 8.44087 5.78248 -1.2 -8.95791 -2.77378e+06 -3.09722e+06 -2.58442e+06 -887861 -91355.6 -1.35789e+06
51 1 Mg -1.59284 7.16481 1.4948 1.2 -7.89861 304347 670278 4.95365e+06 1.46319e+06 -920668 501752
52 2 Si 0.240329 5.09994 1.4948 2.4 -33.3827 7.24971e+06 9.90686e+06 1.22771e+07 -1.97978e+06 -958047 2.72711e+06
53 3 O 0.234538 3.48671 1.4948 -1.2 -5.53875 -1.30092e+06 855914 -3.42153e+07 405937 5.12052e+06 3.4512e+06
54 3 O 6.85564 6.07396 1.4948 -1.2 -9.92832 -3.89037e+06 -1.23476e+06 -1.94284e+06 -1.35824e+06 -1.78631e+06 883325
55 3 O -0.429565 5.80612 0.196716 -1.2 -4.48273 56194.6 -8.19328e+06 -3.21172e+07 1.84651e+06 1.18202e+06 4.36998e+06
56 3 O -0.473377 5.80612 2.79288 -1.2 -9.1883 -1.83467e+06 -2.98306e+06 -2.5211e+06 -765384 254196 835675
57 1 Mg 6.40169 9.49799 0 1.2 -4.80747 845423 -7.4746e+06 -5.60368e+06 -5.48942e+06 1.00218e+06 -2.7377e+06
58 1 Mg 3.64209 14.2057 1.4948 1.2 -8.12635 -267015 406703 5.91401e+06 -1.0337e+06 -947440 -812634
59 2 Si 5.45748 11.5215 1.4948 2.4 -33.6541 6.62509e+06 9.31321e+06 1.39057e+07 898238 356330 -2.78676e+06
60 3 O 5.51101 13.1348 1.4948 -1.2 -5.08205 -80712.4 463601 -3.6163e+07 467085 -2.54105e+06 -3.8992e+06
61 3 O 1.83851 10.5475 1.4948 -1.2 -9.88972 -3.68551e+06 -793771 -2.41633e+06 1.54706e+06 -1.58497e+06 -843541
62 3 O 4.7611 10.8154 0.196716 -1.2 -4.04895 1.24249e+06 -1.02663e+07 -3.31912e+07 -2.46229e+06 -1.78909e+06 -3.91933e+06
63 1 Mg 6.35203 9.49799 2.9896 1.2 -7.76978 3.81361e+06 -2.53567e+06 738242 1.33813e+06 -1.19757e+06 2.01326e+06
64 3 O 4.71833 10.8154 2.79288 -1.2 -9.07782 -1.50305e+06 -2.72215e+06 -3.19723e+06 1.04513e+06 31808.9 -1.15698e+06
65 1 Mg -1.0438 9.53931 4.4844 1.2 -8.59904 -949512 1.55445e+06 4.00373e+06 -598140 -271734 101121
66 2 Si -2.8604 12.2234 4.4844 2.4 -32.7535 1.12636e+07 6.53129e+06 1.08392e+07 -63390.3 -38300.4 -320915
67 3 O -2.91391 10.6102 4.4844 -1.2 -9.53788 -3.86986e+06 852359 -4.72533e+06 210776 -201524 -41581.9
68 3 O 0.7596 13.1975 4.4844 -1.2 -9.28414 -3.28899e+06 -1.42441e+06 -4.48397e+06 2.11198e+06 -511546 294603
69 3 O -2.12001 12.9296 3.18632 -1.2 -9.22507 -2.68086e+06 -2.19001e+06 -1.89535e+06 1.15793e+06 -225513 -1.1712e+06
70 3 O -2.16532 12.9296 5.78248 -1.2 -8.90098 -3.12269e+06 -2.43762e+06 -2.82316e+06 1.13536e+06 -129555 1.54691e+06
71 1 Mg 1.29891 11.8725 2.9896 1.2 -7.8227 3.8717e+06 -2.71144e+06 919337 -1.17932e+06 -1.21597e+06 -1.92744e+06
72 1 Mg 4.10033 11.8312 4.4844 1.2 -8.62629 -835995 1.45168e+06 4.12736e+06 1.1115e+06 -314035 -34739
73 2 Si 2.27333 13.896 4.4844 2.4 -32.8303 1.11094e+07 6.31491e+06 1.13008e+07 733625 -11544.2 -575555
74 3 O 2.28634 15.5093 4.4844 -1.2 -9.46179 -3.88498e+06 1.20661e+06 -5.28939e+06 432406 -245263 616824
75 3 O -4.34533 12.922 4.4844 -1.2 -9.34065 -3.41702e+06 -1.36588e+06 -4.28835e+06 -1.4407e+06 -446913 167627
76 3 O 2.98455 13.1899 3.18632 -1.2 -9.23932 -2.59857e+06 -2.29963e+06 -2.01421e+06 -959045 -159883 1.63455e+06
77 1 Mg 1.34779 11.8725 0 1.2 -5.10564 2.08869e+06 -4.15469e+06 -5.30313e+06 3.5546e+06 799582 1.12235e+06
78 3 O 2.93934 13.1899 5.78248 -1.2 -8.89039 -2.94378e+06 -2.6516e+06 -2.97117e+06 -931252 -154763 -1.21578e+06
79 1 Mg -1.50344 11.9138 1.4948 1.2 -8.0386 45758.6 476185 5.6144e+06 1.56799e+06 -959735 51401.8
80 2 Si 0.326006 9.84894 1.4948 2.4 -33.5811 6.5618e+06 9.72779e+06 1.34099e+07 -618383 110317 1.93404e+06
81 3 O 0.317364 8.23571 1.4948 -1.2 -5.10359 85854 -10234.4 -3.61309e+07 -113585 1.16379e+06 4.16782e+06
82 3 O 6.94307 10.823 1.4948 -1.2 -9.92975 -3.88695e+06 -567359 -2.33687e+06 -992314 -1.52549e+06 1.3087e+06
83 3 O -0.343122 10.5551 0.196716 -1.2 -4.15096 967570 -9.77113e+06 -3.3213e+07 2.45547e+06 -2.02326e+06 4.87194e+06
84 3 O -0.385966 10.5551 2.79288 -1.2 -9.11661 -1.55457e+06 -2.77403e+06 -3.17748e+06 -851213 88370.5 1.24241e+06
85 1 Mg 6.49448 14.247 0 1.2 -5.10076 2.72708e+06 -3.50208e+06 -5.41564e+06 -2.95711e+06 236629 -2.06792e+06
86 1 Mg 3.74457 18.9547 1.4948 1.2 -8.20729 -465624 612003 5.95978e+06 -1.11008e+06 -947430 -1.07848e+06
87 2 Si 5.55495 16.2705 1.4948 2.4 -33.7276 7.05575e+06 8.57588e+06 1.43489e+07 534727 779217 -3.62619e+06
88 3 O 5.6115 17.8838 1.4948 -1.2 -5.37502 -1.1318e+06 596167 -3.35438e+07 76084.5 -6.04689e+06 -3.36279e+06
89 3 O 1.93416 15.2965 1.4948 -1.2 -9.86531 -3.85174e+06 -137509 -2.69534e+06 1.53456e+06 -1.40135e+06 -430774
90 3 O 4.85636 15.5644 0.196716 -1.2 -3.99511 1.09952e+06 -1.17011e+07 -3.18668e+07 -3.04037e+06 -5.15581e+06 -3.12371e+06
91 1 Mg 6.44662 14.247 2.9896 1.2 -7.81202 3.99532e+06 -2.96738e+06 1.05492e+06 1.28295e+06 -1.21537e+06 1.53802e+06
92 3 O 4.81537 15.5644 2.79288 -1.2 -9.01819 -1.57338e+06 -2.40537e+06 -3.56905e+06 1.06247e+06 -2881.97 -679948
93 1 Mg -0.948271 14.2883 4.4844 1.2 -8.66831 -905463 1.18945e+06 4.42753e+06 -559515 -247415 -468053
94 2 Si -2.75928 16.9724 4.4844 2.4 -32.7969 1.13373e+07 6.20236e+06 1.1174e+07 -65707.9 -172222 -1.47578e+06
95 3 O -2.81617 15.3592 4.4844 -1.2 -9.48875 -3.96572e+06 1.18043e+06 -5.02498e+06 303088 -139268 531445
96 3 O 0.862762 17.9465 4.4844 -1.2 -9.31609 -3.325e+06 -1.45673e+06 -4.36353e+06 2.18885e+06 -523868 941900
97 3 O -2.0185 17.6786 3.18632 -1.2 -9.21126 -2.67175e+06 -2.13333e+06 -1.99828e+06 1.17447e+06 -115352 -703822
98 3 O -2.06164 17.6786 5.78248 -1.2 -8.86594 -3.08752e+06 -2.40262e+06 -3.1942e+06 1.16905e+06 -3983.21 2.29554e+06
99 1 Mg 1.39817 16.6215 2.9896 1.2 -7.84153 4.01871e+06 -2.9339e+06 1.02286e+06 -1.16577e+06 -1.18805e+06 -2.40022e+06
100 1 Mg 4.20062 16.5802 4.4844 1.2 -8.66966 -840151 1.16593e+06 4.48916e+06 1.19159e+06 -317953 -674674
101 2 Si 2.37796 18.645 4.4844 2.4 -32.6943 1.1025e+07 6.65035e+06 1.08315e+07 705838 101590 -1.83977e+06
102 3 O 2.39434 20.2583 4.4844 -1.2 -9.60189 -3.71625e+06 769934 -4.80169e+06 492305 -238376 902223
103 3 O -4.24274 17.671 4.4844 -1.2 -9.34388 -3.39207e+06 -1.28928e+06 -4.37624e+06 -1.43571e+06 -397344 768018
104 3 O 3.08659 17.9389 3.18632 -1.2 -9.23981 -2.58407e+06 -2.28125e+06 -2.08425e+06 -952389 -110073 2.13908e+06
105 1 Mg 1.44478 16.6215 0 1.2 -5.28893 3.85594e+06 -1.30551e+06 -5.18281e+06 1.39802e+06 -29371.8 223431
106 3 O 3.0436 17.9389 5.78248 -1.2 -8.92051 -2.83659e+06 -2.69482e+06 -3.02603e+06 -956373 -374176 -196756
107 1 Mg -1.40524 16.6628 1.4948 1.2 -8.15946 -71882.1 446534 5.90774e+06 1.68206e+06 -995166 -340968
108 2 Si 0.420358 14.5979 1.4948 2.4 -33.722 6.83482e+06 8.78884e+06 1.42857e+07 -138847 567209 1.36968e+06
109 3 O 0.408732 12.9847 1.4948 -1.2 -5.06771 -70025.1 467881 -3.63352e+07 225775 -2.55662e+06 4.69452e+06
110 3 O 7.03923 15.572 1.4948 -1.2 -9.90958 -4.03748e+06 18642.7 -2.56315e+06 -944593 -1.2809e+06 1.64157e+06
111 3 O -0.248332 15.3041 0.196716 -1.2 -4.08772 834631 -1.12299e+07 -3.19777e+07 3.26081e+06 -5.38351e+06 4.60576e+06
112 3 O -0.289436 15.3041 2.79288 -1.2 -9.05298 -1.59035e+06 -2.50501e+06 -3.55395e+06 -848261 30442.5 1.681e+06
113 1 Mg 6.59566 18.996 0 1.2 -5.26888 4.16399e+06 -825321 -5.21677e+06 -924841 -694075 -1.6991e+06
114 1 Mg 3.85574 23.7037 1.4948 1.2 -8.22902 -865364 1.00256e+06 5.86395e+06 -1.18437e+06 -921305 -838999
115 2 Si 5.66125 21.0195 1.4948 2.4 -33.5923 7.3688e+06 8.52752e+06 1.39292e+07 168939 1.19926e+06 -3.9409e+06
116 3 O 5.72074 22.6328 1.4948 -1.2 -6.02749 -2.70699e+06 494510 -2.84809e+07 -207386 -8.49193e+06 -2.96597e+06
117 3 O 2.03867 20.0455 1.4948 -1.2 -9.9092 -3.85431e+06 -20640.7 -2.5368e+06 1.56171e+06 -1.17431e+06 -165939
118 3 O 4.96004 20.3134 0.196716 -1.2 -4.29653 364836 -1.32261e+07 -2.7938e+07 -3.18656e+06 -7.95506e+06 -1.94512e+06
119 1 Mg 6.55057 18.996 2.9896 1.2 -7.77069 4.01138e+06 -2.88815e+06 894037 1.29616e+06 -1.23847e+06 1.12443e+06
120 3 O 4.92172 20.3134 2.79288 -1.2 -9.06869 -1.45222e+06 -2.66921e+06 -3.383e+06 1.08701e+06 -76400.7 -405852
121 1 Mg -0.84282 19.0373 4.4844 1.2 -8.60658 -1.02734e+06 1.39169e+06 4.2429e+06 -521870 -297898 -955833
122 2 Si -2.64823 21.7214 4.4844 2.4 -32.4553 1.08366e+07 7.10869e+06 1.02169e+07 -31436.3 -264997 -1.64583e+06
123 3 O -2.70847 20.1082 4.4844 -1.2 -9.59735 -3.76703e+06 849696 -4.70856e+06 329737 -71067.5 910822
124 3 O 0.97581 22.6955 4.4844 -1.2 -9.48641 -3.051e+06 -1.87592e+06 -3.95328e+06 2.156e+06 -563657 737001
125 3 O -1.9076 22.4276 3.18632 -1.2 -9.31619 -2.49416e+06 -2.47127e+06 -1.71103e+06 1.16715e+06 -34802.6 -747455
126 3 O -1.9475 22.4276 5.78248 -1.2 -9.18068 -2.74658e+06 -2.95811e+06 -2.22085e+06 1.14953e+06 60084.3 2.13451e+06
127 1 Mg 1.50678 21.3705 2.9896 1.2 -7.73814 3.9689e+06 -2.63191e+06 605059 -1.14356e+06 -1.2146e+06 -2.43309e+06
128 1 Mg 4.31086 21.3292 4.4844 1.2 -8.50703 -1.11838e+06 1.66206e+06 4.01072e+06 1.14599e+06 -268092 -767013
129 2 Si 2.49243 23.394 4.4844 2.4 -32.3921 1.03391e+07 7.37661e+06 1.03079e+07 770945 90780 -1.17401e+06
130 3 O 2.51204 25.0073 4.4844 -1.2 -9.71555 -3.39847e+06 597573 -4.76923e+06 520325 -234888 489622
131 3 O -4.13026 22.42 4.4844 -1.2 -9.52183 -3.12208e+06 -1.74611e+06 -3.9171e+06 -1.34904e+06 -357902 693532
132 3 O 3.19799 22.6879 3.18632 -1.2 -9.34015 -2.35638e+06 -2.63185e+06 -1.85915e+06 -923417 -8409.4 1.98936e+06
133 1 Mg 1.5501 21.3705 0 1.2 -5.3625 4.78759e+06 341795 -4.86543e+06 -52201.8 -966097 -301001
134 3 O 3.1583 22.6879 5.78248 -1.2 -9.14254 -2.31682e+06 -3.21395e+06 -2.71705e+06 -896886 -224980 -631491
135 1 Mg -1.29822 21.4118 1.4948 1.2 -8.20332 -357225 805487 5.80002e+06 1.80087e+06 -956614 -494395
136 2 Si 0.523568 19.3469 1.4948 2.4 -33.6672 7.18718e+06 8.63948e+06 1.40231e+07 311963 1.00278e+06 950399
137 3 O 0.508934 17.7337 1.4948 -1.2 -5.35932 -1.14109e+06 603890 -3.37022e+07 670589 -6.08678e+06 4.84266e+06
138 3 O 7.14425 20.321 1.4948 -1.2 -9.95636 -4.01259e+06 122048 -2.42547e+06 -927448 -1.04769e+06 1.83352e+06
139 3 O -0.145107 20.0531 0.196716 -1.2 -4.39264 14280.8 -1.28928e+07 -2.79704e+07 3.68299e+06 -8.18202e+06 3.85608e+06
140 3 O -0.183601 20.0531 2.79288 -1.2 -9.10124 -1.50918e+06 -2.75231e+06 -3.3579e+06 -848397 -12982.7 1.90699e+06
141 1 Mg 6.70502 23.745 0 1.2 -5.35144 4.61542e+06 609513 -4.58698e+06 396475 -1.49047e+06 -1.20534e+06
142 1 Mg 3.97493 28.4527 1.4948 1.2 -8.20406 -1.37325e+06 1.48204e+06 5.61971e+06 -1.21727e+06 -797045 -601779
143 2 Si 5.77602 25.7685 1.4948 2.4 -33.2937 7.69803e+06 8.38352e+06 1.33532e+07 -122385 1.47604e+06 -3.34516e+06
144 3 O 5.83821 27.3818 1.4948 -1.2 -6.92464 -4.27405e+06 382707 -2.21292e+07 -345093 -9.25704e+06 -2.59312e+06
145 3 O 2.15175 24.7945 1.4948 -1.2 -9.99932 -3.6993e+06 -27428.7 -2.40667e+06 1.60576e+06 -941318 -371495
146 3 O 5.07184 25.0624 0.196716 -1.2 -4.96751 -781671 -1.40816e+07 -2.22393e+07 -2.78755e+06 -9.41694e+06 -921056
147 1 Mg 6.66374 23.745 2.9896 1.2 -7.64116 3.92656e+06 -2.62181e+06 507791 1.29233e+06 -1.29919e+06 1.31636e+06
148 3 O 5.03707 25.0624 2.79288 -1.2 -9.1655 -1.28447e+06 -2.89013e+06 -3.21451e+06 1.10471e+06 -95352.2 -676197
149 1 Mg -0.727559 23.7863 4.4844 1.2 -8.42386 -1.26642e+06 1.71215e+06 3.859e+06 -463369 -209952 -643501
150 2 Si -2.5277 26.4704 4.4844 2.4 -32.1776 1.06037e+07 7.14978e+06 9.96755e+06 24401.1 -325851 -952751
151 3 O -2.59107 24.8572 4.4844 -1.2 -9.76576 -3.5944e+06 646367 -4.40683e+06 366232 -25753 539184
152 3 O 1.09817 27.4445 4.4844 -1.2 -9.58189 -2.86261e+06 -1.83787e+06 -4.03859e+06 2.24837e+06 -597183 540459
153 3 O -1.78784 27.1766 3.18632 -1.2 -9.41867 -2.3201e+06 -2.60914e+06 -1.6423e+06 1.16754e+06 28747 -988740
154 3 O -1.82343 27.1766 5.78248 -1.2 -9.32956 -2.67519e+06 -2.72896e+06 -2.21839e+06 1.16071e+06 41739 1.8002e+06
155 1 Mg 1.62435 26.1195 2.9896 1.2 -7.62331 3.85581e+06 -2.48918e+06 394503 -1.14607e+06 -1.23381e+06 -2.11721e+06
156 1 Mg 4.43064 26.0782 4.4844 1.2 -8.41166 -1.36057e+06 1.69472e+06 4.06998e+06 1.19182e+06 -334798 -428515
157 2 Si 2.61607 28.143 4.4844 2.4 -32.215 9.94216e+06 7.32103e+06 1.04743e+07 737681 -1588.82 -1.15532e+06
158 3 O 2.63853 29.7563 4.4844 -1.2 -9.83191 -3.23814e+06 472359 -4.63314e+06 539511 -152710 717311
159 3 O -4.00841 27.169 4.4844 -1.2 -9.63957 -3.00238e+06 -1.73312e+06 -3.85998e+06 -1.37317e+06 -253347 443946
160 3 O 3.3182 27.4369 3.18632 -1.2 -9.42699 -2.12652e+06 -2.77214e+06 -1.88643e+06 -904395 98651.4 1.80551e+06
161 1 Mg 1.66335 26.1195 0 1.2 -5.37051 4.55347e+06 1.20016e+06 -4.25732e+06 -893804 -1.59228e+06 -214195
162 3 O 3.28288 27.4369 5.78248 -1.2 -9.18175 -2.13346e+06 -2.99075e+06 -2.96649e+06 -858688 -108445 -689628
163 1 Mg -1.18278 26.1608 1.4948 1.2 -8.1958 -785173 1.21041e+06 5.61883e+06 1.88304e+06 -821675 -315361
164 2 Si 0.635424 24.0959 1.4948 2.4 -33.4192 7.53594e+06 8.56258e+06 1.34213e+07 764705 1.4113e+06 1.36368e+06
165 3 O 0.617906 22.4827 1.4948 -1.2 -6.01658 -2.76736e+06 510239 -2.85887e+07 1.00217e+06 -8.55254e+06 4.3493e+06
166 3 O 7.25781 25.07 1.4948 -1.2 -10.0526 -3.8627e+06 98308.8 -2.27783e+06 -926219 -820462 1.58117e+06
167 3 O -0.0337363 24.8021 0.196716 -1.2 -5.0597 -1.19206e+06 -1.40315e+07 -2.2144e+07 3.50556e+06 -9.64568e+06 2.36541e+06
168 3 O -0.0687235 24.8021 2.79288 -1.2 -9.21002 -1.37719e+06 -2.99778e+06 -3.12435e+06 -848048 -119919 1.58903e+06
169 1 Mg 6.82195 28.494 0 1.2 -5.36564 3.96182e+06 1.4562e+06 -3.87775e+06 1.17283e+06 -1.83099e+06 -898175
170 1 Mg 4.10106 33.2017 1.4948 1.2 -8.16956 -1.87612e+06 2.12509e+06 5.08378e+06 -1.19315e+06 -532512 -666017
171 2 Si 5.89839 30.5175 1.4948 2.4 -32.8752 8.03615e+06 8.5098e+06 1.23013e+07 -299953 1.60356e+06 -3.11095e+06
172 3 O 5.96289 32.1308 1.4948 -1.2 -7.8916 -5.22121e+06 49051.2 -1.56447e+07 -299627 -8.41804e+06 -1.91296e+06
173 3 O 2.27266 29.5435 1.4948 -1.2 -10.1171 -3.46205e+06 -243362 -2.1918e+06 1.66253e+06 -735752 -416158
174 3 O 5.19102 29.8114 0.196716 -1.2 -5.93695 -1.95002e+06 -1.40579e+07 -1.57393e+07 -1.95323e+06 -9.25337e+06 252554
175 1 Mg 6.78546 28.494 2.9896 1.2 -7.51382 3.81892e+06 -2.45125e+06 246349 1.32128e+06 -1.37183e+06 1.42888e+06
176 3 O 5.16061 29.8114 2.79288 -1.2 -9.28411 -1.14361e+06 -3.17559e+06 -2.92077e+06 1.08427e+06 -170542 -661787
177 1 Mg -0.603205 28.5353 4.4844 1.2 -8.30947 -1.44237e+06 1.68314e+06 3.8723e+06 -505288 -122031 -576154
178 2 Si -2.39877 31.2194 4.4844 2.4 -31.9417 9.99586e+06 7.72997e+06 9.61535e+06 15716.5 -389558 -1.28232e+06
179 3 O -2.46483 29.6062 4.4844 -1.2 -9.88397 -3.37396e+06 550211 -4.34147e+06 402413 13742.7 577580
180 3 O 1.22864 32.1935 4.4844 -1.2 -9.73326 -2.76525e+06 -2.23433e+06 -3.51744e+06 2.28226e+06 -461088 832250
181 3 O -1.66032 31.9256 3.18632 -1.2 -9.51194 -2.04537e+06 -3.01012e+06 -1.4495e+06 1.18697e+06 140460 -865898
182 3 O -1.69072 31.9256 5.78248 -1.2 -9.46364 -2.21669e+06 -3.03231e+06 -2.01567e+06 1.27886e+06 159147 2.09804e+06
183 1 Mg 1.7499 30.8685 2.9896 1.2 -7.48742 3.75496e+06 -2.15275e+06 -52249.8 -1.14155e+06 -1.32134e+06 -2.20736e+06
184 1 Mg 4.55894 30.8272 4.4844 1.2 -8.27915 -1.53976e+06 1.9856e+06 3.74628e+06 1.28731e+06 -200141 -653332
185 2 Si 2.7476 32.892 4.4844 2.4 -31.9219 9.74918e+06 8.19547e+06 9.32203e+06 854379 122016 -1.54735e+06
186 3 O 2.77235 34.5053 4.4844 -1.2 -9.93204 -3.1902e+06 108734 -4.16326e+06 564879 -235183 833249
187 3 O -3.87837 31.918 4.4844 -1.2 -9.75456 -2.73533e+06 -2.10949e+06 -3.58066e+06 -1.36569e+06 -291926 620258
188 3 O 3.44611 32.1859 3.18632 -1.2 -9.53378 -1.93857e+06 -3.21689e+06 -1.55535e+06 -907986 126076 1.93231e+06
189 1 Mg 1.7837 30.8685 0 1.2 -5.35381 3.38962e+06 1.79081e+06 -3.77143e+06 -1.36531e+06 -1.50169e+06 -58554.1
190 3 O 3.41602 32.1859 5.78248 -1.2 -9.3893 -1.9989e+06 -3.4573e+06 -2.31097e+06 -1.01484e+06 -251168 -422942
191 1 Mg -1.05984 30.9098 1.4948 1.2 -8.15492 -1.34571e+06 1.79581e+06 5.22663e+06 1.89322e+06 -625403 -389740
192 2 Si 0.755243 28.8449 1.4948 2.4 -33.0381 7.8752e+06 8.52598e+06 1.2593e+07 1.11013e+06 1.6722e+06 1.48995e+06
193 3 O 0.735127 27.2317 1.4948 -1.2 -6.91735 -4.36736e+06 407975 -2.22108e+07 1.18016e+06 -9.3532e+06 3.53113e+06
194 3 O 7.37914 29.819 1.4948 -1.2 -10.1697 -3.59534e+06 -148066 -2.07884e+06 -937266 -590827 1.50466e+06
195 3 O 0.0850649 29.5511 0.196716 -1.2 -5.99765 -2.25978e+06 -1.43647e+07 -1.56727e+07 2.71868e+06 -9.4643e+06 919664
196 3 O 0.0543974 29.5511 2.79288 -1.2 -9.33162 -1.23988e+06 -3.25075e+06 -2.86807e+06 -812532 -181689 1.54035e+06
197 1 Mg 6.94543 33.243 0 1.2 -5.38752 2.66235e+06 2.02432e+06 -3.43784e+06 1.57431e+06 -1.47254e+06 -1.23397e+06
198 1 Mg 4.23267 37.9507 1.4948 1.2 -8.25052 -2.12547e+06 2.31461e+06 4.85884e+06 -1.13018e+06 -215997 -769542
199 2 Si 6.02709 35.2665 1.4948 2.4 -32.5704 8.54805e+06 8.45341e+06 1.14075e+07 -410855 1.56751e+06 -3.33017e+06
200 3 O 6.09339 36.8798 1.4948 -1.2 -8.65842 -5.47357e+06 -19739.3 -1.0588e+07 -141929 -6.60143e+06 -1.17766e+06
201 3 O 2.40018 34.2925 1.4948 -1.2 -10.1854 -3.27389e+06 -621987 -1.94447e+06 1.69007e+06 -550434 -231049
202 3 O 5.31645 34.5604 0.196716 -1.2 -6.94991 -2.81522e+06 -1.28673e+07 -1.00058e+07 -945506 -7.81669e+06 1.65327e+06
203 1 Mg 6.91449 33.243 2.9896 1.2 -7.41486 3.65802e+06 -2.03904e+06 -155314 1.31193e+06 -1.44503e+06 1.27683e+06
204 3 O 5.291 34.5604 2.79288 -1.2 -9.35629 -1.099e+06 -3.52543e+06 -2.53681e+06 1.11208e+06 -268966 -476857
205 1 Mg -0.471101 33.2843 4.4844 1.2 -8.19946 -1.6447e+06 2.0963e+06 3.47817e+06 -504954 -252136 -791540
206 2 Si -2.26307 35.9684 4.4844 2.4 -31.9745 9.82159e+06 8.43353e+06 9.14855e+06 161374 -512058 -1.82668e+06
207 3 O -2.33122 34.3552 4.4844 -1.2 -9.92459 -3.13754e+06 167780 -4.1279e+06 427150 114181 805492
208 3 O 1.36549 36.9425 4.4844 -1.2 -9.72695 -2.8355e+06 -2.56119e+06 -3.12933e+06 2.32079e+06 -400335 903638
209 3 O -1.52658 36.6746 3.18632 -1.2 -9.48394 -1.9737e+06 -3.31474e+06 -1.35242e+06 1.12953e+06 202589 -686047
210 3 O -1.55122 36.6746 5.78248 -1.2 -9.38625 -2.2457e+06 -3.53776e+06 -1.6786e+06 1.04269e+06 301058 2.56783e+06
211 1 Mg 1.882 35.6175 2.9896 1.2 -7.43421 3.77761e+06 -1.82118e+06 -481649 -1.12814e+06 -1.41461e+06 -2.32279e+06
212 1 Mg 4.69415 35.5762 4.4844 1.2 -8.25442 -1.61471e+06 2.25081e+06 3.51693e+06 1.23437e+06 -82449.9 -871758
213 2 Si 2.88522 37.641 4.4844 2.4 -31.9926 9.88253e+06 8.79807e+06 8.69804e+06 627964 45495.8 -1.79831e+06
214 3 O 2.91159 39.2543 4.4844 -1.2 -9.82232 -3.34311e+06 -164948 -3.90689e+06 648352 -65177.8 799908
215 3 O -3.74183 36.667 4.4844 -1.2 -9.72954 -2.76248e+06 -2.41596e+06 -3.28224e+06 -1.34718e+06 -230172 928659
216 3 O 3.58014 36.9349 3.18632 -1.2 -9.51217 -1.91188e+06 -3.47891e+06 -1.45956e+06 -836313 165174 2.06081e+06
217 1 Mg 1.90997 35.6175 0 1.2 -5.41748 2.06341e+06 1.97651e+06 -3.50751e+06 -1.64396e+06 -772913 69387.4
218 3 O 3.55582 36.9349 5.78248 -1.2 -9.40091 -1.97544e+06 -3.70411e+06 -1.88023e+06 -759250 -255238 54498.7
219 1 Mg -0.93068 35.6588 1.4948 1.2 -8.16984 -1.74522e+06 2.26079e+06 4.79303e+06 1.85614e+06 -336310 -642259
220 2 Si 0.881882 33.5939 1.4948 2.4 -32.6489 8.33574e+06 8.70752e+06 1.13983e+07 1.40028e+06 1.68366e+06 1.00771e+06
221 3 O 0.859602 31.9807 1.4948 -1.2 -7.89003 -5.34254e+06 86919.9 -1.57077e+07 1.17002e+06 -8.50947e+06 2.99138e+06
222 3 O 7.507 34.568 1.4948 -1.2 -10.222 -3.36586e+06 -515230 -1.92442e+06 -929600 -392423 1.70796e+06
223 3 O 0.210186 34.3001 0.196716 -1.2 -6.98974 -3.01728e+06 -1.35666e+07 -9.8899e+06 1.52841e+06 -7.96341e+06 -64271
224 3 O 0.184454 34.3001 2.79288 -1.2 -9.42122 -1.22074e+06 -3.64529e+06 -2.39685e+06 -830355 -173907 1.66035e+06
225 1 Mg 7.07415 37.992 0 1.2 -5.54673 1.55975e+06 1.778e+06 -2.98308e+06 1.87433e+06 -395253 -2.06265e+06
226 1 Mg 4.36817 42.6997 1.4948 1.2 -8.3811 -2.1044e+06 2.34976e+06 4.62996e+06 -1.00237e+06 109110 -443481
227 2 Si 6.16058 40.0155 1.4948 2.4 -32.5515 9.4568e+06 7.56518e+06 1.1364e+07 -366652 1.31679e+06 -2.961e+06
228 3 O 6.22815 41.6288 1.4948 -1.2 -9.14428 -5.21826e+06 155046 -7.32991e+06 32609 -4.51842e+06 -1.0481e+06
229 3 O 2.53282 39.0415 1.4948 -1.2 -10.0801 -3.27795e+06 -620840 -2.26982e+06 1.72647e+06 -348566 -206912
230 3 O 5.44674 39.3094 0.196716 -1.2 -7.73431 -3.40371e+06 -1.02044e+07 -6.38273e+06 -150562 -5.76943e+06 2.53493e+06
231 1 Mg 7.04922 37.992 2.9896 1.2 -7.45303 3.76362e+06 -1.8445e+06 -383293 1.32109e+06 -1.51133e+06 1.12811e+06
232 3 O 5.42658 39.3094 2.79288 -1.2 -9.29601 -1.37281e+06 -3.57525e+06 -2.33776e+06 1.13763e+06 -290648 -458786
233 1 Mg -0.333062 38.0333 4.4844 1.2 -8.2824 -1.60202e+06 2.44902e+06 3.21361e+06 -388887 -164249 -791090
234 2 Si -2.12255 40.7174 4.4844 2.4 -32.2553 1.03269e+07 8.82072e+06 8.71418e+06 147753 -149428 -1.51856e+06
235 3 O -2.19212 39.1042 4.4844 -1.2 -9.82605 -3.31896e+06 -152850 -3.76633e+06 362657 8452.63 822658
236 3 O 1.50676 41.6915 4.4844 -1.2 -9.53359 -3.04182e+06 -2.70524e+06 -3.08372e+06 2.28717e+06 -262057 763844
237 3 O -1.3884 41.4236 3.18632 -1.2 -9.33292 -2.10901e+06 -3.36624e+06 -1.50879e+06 1.13672e+06 139174 -834169
238 3 O -1.40713 41.4236 5.78248 -1.2 -9.1772 -2.42325e+06 -3.75012e+06 -1.52936e+06 1.21445e+06 -3706.56 2.34158e+06
239 1 Mg 2.01892 40.3665 2.9896 1.2 -7.55087 3.93303e+06 -1.77645e+06 -481622 -1.10389e+06 -1.57226e+06 -2.1944e+06
240 1 Mg 4.83434 40.3252 4.4844 1.2 -8.37232 -1.30203e+06 2.50869e+06 3.13721e+06 1.21562e+06 -121829 -754078
241 2 Si 3.02698 42.39 4.4844 2.4 -32.3855 1.03804e+07 9.05509e+06 8.58299e+06 765777 -102598 -1.3611e+06
242 3 O 3.05433 44.0033 4.4844 -1.2 -9.63342 -3.58748e+06 -284470 -3.84231e+06 635904 -12427.6 600294
243 3 O -3.60077 41.416 4.4844 -1.2 -9.5989 -3.15518e+06 -2.57659e+06 -2.92899e+06 -1.31087e+06 -219153 696725
244 3 O 3.71851 41.6839 3.18632 -1.2 -9.35719 -2.07779e+06 -3.5354e+06 -1.59115e+06 -835768 241310 1.82901e+06
245 1 Mg 2.04077 40.3665 0 1.2 -5.6162 1.24175e+06 1.43404e+06 -3.24618e+06 -1.84135e+06 412824 956125
246 3 O 3.70011 41.6839 5.78248 -1.2 -9.14696 -2.35543e+06 -4.02365e+06 -1.71817e+06 -877959 -54462.5 -331392
247 1 Mg -0.796865 40.4078 1.4948 1.2 -8.29512 -1.82206e+06 2.24676e+06 4.69293e+06 1.75537e+06 45729 -571243
248 2 Si 1.01387 38.3429 1.4948 2.4 -32.5448 9.13277e+06 8.00592e+06 1.11714e+07 1.52648e+06 1.46328e+06 541877
249 3 O 0.989947 36.7297 1.4948 -1.2 -8.667 -5.61211e+06 -8686.93 -1.05989e+07 1.03822e+06 -6.64117e+06 2.67952e+06
250 3 O 7.63988 39.317 1.4948 -1.2 -10.1115 -3.39196e+06 -518344 -2.24496e+06 -939115 -257755 1.768e+06
251 3 O 0.340253 39.0491 0.196716 -1.2 -7.76075 -3.5426e+06 -1.11236e+07 -6.23812e+06 388476 -5.86139e+06 -797834
252 3 O 0.319795 39.0491 2.79288 -1.2 -9.35457 -1.41419e+06 -3.69204e+06 -2.29884e+06 -858928 -201570 1.61585e+06
253 1 Mg 7.20667 42.741 0 1.2 -5.72681 924643 1.40818e+06 -3.15341e+06 1.98625e+06 939118 -2.46557e+06
254 1 Mg 4.50613 47.4487 1.4948 1.2 -8.45724 -1.94468e+06 2.65169e+06 4.08714e+06 -850623 418559 -174768
255 2 Si 6.29731 44.7645 1.4948 2.4 -32.6098 1.02142e+07 7.15645e+06 1.10856e+07 -235325 931389 -2.11028e+06
256 3 O 6.36567 46.3778 1.4948 -1.2 -9.45018 -4.59943e+06 -9482.96 -5.19301e+06 179208 -2.71718e+06 -1.06872e+06
257 3 O 2.669 43.7905 1.4948 -1.2 -9.90671 -3.33937e+06 -796241 -2.58063e+06 1.72471e+06 -189047 -532775
258 3 O 5.58048 44.0584 0.196716 -1.2 -8.34703 -3.49496e+06 -7.56969e+06 -3.98043e+06 328742 -3.72095e+06 2.65789e+06
259 1 Mg 7.1879 42.741 2.9896 1.2 -7.58597 4.01658e+06 -1.80955e+06 -444870 1.28893e+06 -1.58453e+06 1.36913e+06
260 3 O 5.56564 44.0584 2.79288 -1.2 -9.18099 -1.74508e+06 -3.56762e+06 -2.17966e+06 1.13617e+06 -277020 -706530
261 1 Mg -0.19105 42.7823 4.4844 1.2 -8.46294 -1.38988e+06 2.59034e+06 3.14544e+06 -410584 -83097.3 -655485
262 2 Si -1.97909 45.4664 4.4844 2.4 -32.5969 1.08185e+07 9.13265e+06 8.46539e+06 198174 -28622.5 -1.14497e+06
263 3 O -2.04947 43.8532 4.4844 -1.2 -9.65275 -3.58364e+06 -268742 -3.65749e+06 410718 -17797.8 610961
264 3 O 1.65063 46.4405 4.4844 -1.2 -9.37798 -3.24188e+06 -2.88847e+06 -2.94702e+06 2.32283e+06 -135580 591008
265 3 O -1.24745 46.1726 3.18632 -1.2 -9.18447 -2.24841e+06 -3.55403e+06 -1.52047e+06 1.13225e+06 76364.1 -1.00908e+06
266 3 O -1.26044 46.1726 5.78248 -1.2 -8.92935 -2.68283e+06 -3.90788e+06 -1.65444e+06 1.11674e+06 -127210 2.16052e+06
267 1 Mg 2.15896 45.1155 2.9896 1.2 -7.69141 4.10754e+06 -1.62878e+06 -562934 -1.0874e+06 -1.69556e+06 -1.97345e+06
268 1 Mg 4.97763 45.0742 4.4844 1.2 -8.53799 -975656 2.60789e+06 2.97806e+06 1.24262e+06 -103726 -609159
269 2 Si 3.1711 47.139 4.4844 2.4 -32.6329 1.07812e+07 9.53597e+06 8.09739e+06 780762 -248816 -1.11969e+06