ITEM: TIMESTEP
14800
ITEM: NUMBER OF ATOMS
10500
ITEM: BOX BOUNDS xy xz yz pp pp pp
0.0000000000000000e+00 1.5297450000000000e+01 5.0990000000000002e+00
0.0000000000000000e+00 1.1872499999999999e+02 0.0000000000000000e+00
0.0000000000000000e+00 8.9688000000000002e+01 0.0000000000000000e+00
ITEM: ATOMS id type element xu yu zu q c_pe c_s[1] c_s[2] c_s[3] c_s[4] c_s[5] c_s[6]
1 1 Mg 6.2404 -6.37941e-06 0 1.2 -5.31805 9.31479e+06 -2.32811e+06 -5.72722e+06 -15384.4 2.58996e+06 -162266
2 1 Mg 3.46349 4.70768 1.4948 1.2 -9.58762 1.42073e+06 1.98598e+06 5.05044e+06 -947877 -585519 482027
3 2 Si 5.2885 2.02354 1.4948 2.4 -37.1664 1.29635e+07 9.82655e+06 1.25497e+07 8.86857e+06 670294 -2.79442e+06
4 3 O 5.33628 3.63678 1.4948 -1.2 -3.67558 -2.45673e+06 -798961 -3.43532e+07 -334658 3.8209e+06 -4.16817e+06
5 3 O 1.67294 1.04952 1.4948 -1.2 -0.154234 -2.17733e+07 -7.88968e+07 -2.60865e+06 -2.41287e+07 -179743 -151053
6 3 O 4.59532 1.31737 0.196716 -1.2 -2.0691 -3.47886e+06 -6.10762e+06 -3.10775e+07 -6.02796e+06 6.23332e+06 -2.7663e+06
7 1 Mg 6.18956 -6.37941e-06 2.9896 1.2 -5.74479 2.76668e+06 -2.87178e+07 -2.38912e+06 -8.85623e+06 2.37082e+06 4.00195e+06
8 3 O 4.55118 1.31737 2.79288 -1.2 -6.61548 -1.16331e+06 -4.19035e+06 -3.78553e+06 -2.96925e+06 -3.43517e+06 -1.14465e+06
9 1 Mg -1.20682 0.0413099 4.4844 1.2 8.21733 -2.93863e+07 -9.39709e+07 64135.6 -2.85543e+07 -1.36112e+06 -66501.1
10 2 Si -3.0337 2.72544 4.4844 2.4 -34.9309 1.70821e+07 5.9783e+06 9.27995e+06 1.75185e+06 -263701 -428272
11 3 O -3.08099 1.11221 4.4844 -1.2 -8.79843 -7.3955e+06 542215 -2.74763e+06 -1.22778e+06 18038.9 340831
12 3 O 0.582463 3.69946 4.4844 -1.2 -8.05881 -4.90671e+06 -4.90759e+06 -3.23547e+06 -534837 -186379 -422006
13 3 O -2.29524 3.43162 3.18632 -1.2 -8.08551 -5.8e+06 -1.9178e+06 -1.16261e+06 1.05619e+06 -730199 -1.20039e+06
14 3 O -2.34216 3.43162 5.78248 -1.2 -7.95936 -5.35172e+06 -2.64216e+06 -2.18801e+06 605973 844985 1.20921e+06
15 1 Mg 1.12778 2.37449 2.9896 1.2 -8.5073 6.71506e+06 -2.19201e+06 -213094 -3.30155e+06 -4.12033e+06 -2.10111e+06
16 1 Mg 3.92855 2.33318 4.4844 1.2 -9.36772 -2.92904e+06 4.51387e+06 5.45109e+06 1.37029e+06 447341 464632
17 2 Si 2.09341 4.39804 4.4844 2.4 -34.3641 1.52565e+07 5.63897e+06 1.00931e+07 42079.6 -6936.44 1.29821e+06
18 3 O 2.09991 6.01128 4.4844 -1.2 -8.36782 -5.79957e+06 739460 -4.67679e+06 606525 -226048 -618999
19 3 O -4.52137 3.42402 4.4844 -1.2 -8.20281 -4.25672e+06 -2.41052e+06 -4.27765e+06 -2.44372e+06 -828885 -78288.6
20 3 O 2.80834 3.69187 3.18632 -1.2 -8.33498 -3.68549e+06 -2.2375e+06 -1.04071e+06 495124 -582970 -770982
21 1 Mg 1.17857 2.37449 0 1.2 -6.15923 1.03478e+06 -1.54732e+07 -5.77697e+06 6.51544e+06 1.23896e+06 4.76304e+06
22 3 O 2.76143 3.69187 5.78248 -1.2 -8.44451 -4.13127e+06 -2.07895e+06 -1.75201e+06 674323 -228096 -297002
23 1 Mg -1.67381 2.41581 1.4948 1.2 -8.55053 3.14202e+06 -826902 4.6505e+06 1.36088e+06 -637540 1.20061e+06
24 2 Si 0.16286 0.350945 1.4948 2.4 -26.2595 -5.38021e+06 1.14441e+07 1.23064e+07 1.5792e+06 2.86034e+06 1.22129e+06
25 3 O 0.15972 -1.26229 1.4948 -1.2 -3.99966 -1.19306e+07 -7.58251e+06 -2.93518e+07 -5.60029e+06 -8.5436e+06 -2.61511e+06
26 3 O 6.77654 1.32496 1.4948 -1.2 -9.44065 -7.18335e+06 2.31992e+06 -1.95543e+06 -645781 -590024 984232
27 3 O -0.508028 1.05712 0.196716 -1.2 -8.58537 -1.41514e+06 -4.12546e+06 -1.23476e+06 -550822 204625 -4.61234e+06
28 3 O -0.552171 1.05712 2.79288 -1.2 -5.96482 -6.78283e+06 -4.07718e+06 -2.50644e+07 1.43137e+06 -6.75781e+06 -5.53609e+06
29 1 Mg 6.31713 4.74899 0 1.2 -6.09464 2.24344e+06 -1.36595e+07 -5.37158e+06 -7.31397e+06 1.40657e+06 -3.19437e+06
30 1 Mg 3.54847 9.45668 1.4948 1.2 -9.62675 2.3356e+06 766861 5.396e+06 -958442 -915999 334262
31 2 Si 5.36879 6.77254 1.4948 2.4 -36.7211 1.11708e+07 1.03672e+07 1.32439e+07 1.66348e+06 157888 -836404
32 3 O 5.41937 8.38578 1.4948 -1.2 -3.48951 -2.36627e+06 -11861.5 -3.61332e+07 764920 1.09756e+06 -4.86174e+06
33 3 O 1.75158 5.79852 1.4948 -1.2 -8.33519 -5.85935e+06 -1.57095e+06 -2.22717e+06 1.97743e+06 -1.61587e+06 -1.85956e+06
34 3 O 4.67421 6.06637 0.196716 -1.2 -2.55994 -1.79961e+06 -9.30094e+06 -3.22777e+07 -2.00423e+06 1.27758e+06 -4.93777e+06
35 1 Mg 6.26654 4.74899 2.9896 1.2 -9.10527 5.79902e+06 -2.32834e+06 687515 1.82274e+06 -883243 2.29904e+06
36 3 O 4.63043 6.06637 2.79288 -1.2 -7.68985 -3.43238e+06 -3.21126e+06 -2.99095e+06 947093 -119818 -1.95591e+06
37 1 Mg -1.12976 4.79031 4.4844 1.2 -9.81443 1.13842e+06 2.10517e+06 3.35074e+06 -627007 -490025 307294
38 2 Si -2.9517 7.47444 4.4844 2.4 -35.3372 1.5357e+07 7.27541e+06 1.01431e+07 138864 -61046.2 1.03541e+06
39 3 O -3.00198 5.86121 4.4844 -1.2 -8.31593 -5.81491e+06 515080 -4.38774e+06 -11486.9 -171810 -378639
40 3 O 0.666315 8.44846 4.4844 -1.2 -7.96674 -5.46571e+06 -1.70892e+06 -4.11952e+06 2.15062e+06 -487907 -522017
41 3 O -2.21213 8.18062 3.18632 -1.2 -7.82522 -4.98976e+06 -2.48542e+06 -1.52553e+06 1.08408e+06 -295221 -2.04632e+06
42 3 O -2.25864 8.18062 5.78248 -1.2 -7.65695 -5.15411e+06 -2.81746e+06 -2.47513e+06 1.02588e+06 -110422 828872
43 1 Mg 1.20893 7.12349 2.9896 1.2 -9.20852 6.07485e+06 -2.47556e+06 703908 -1.30176e+06 -1.31827e+06 -1.08331e+06
44 1 Mg 4.00982 7.08218 4.4844 1.2 -9.89483 1.05259e+06 1.76244e+06 3.95909e+06 983020 -267674 623241
45 2 Si 2.17861 9.14704 4.4844 2.4 -35.5238 1.54694e+07 7.08364e+06 1.04939e+07 523419 -38877.1 1.11476e+06
46 3 O 2.18828 10.7603 4.4844 -1.2 -8.07173 -6.15351e+06 657285 -4.69299e+06 450535 -199732 -472248
47 3 O -4.43805 8.17302 4.4844 -1.2 -8.01145 -5.42585e+06 -1.76399e+06 -4.00886e+06 -1.55311e+06 -462960 -588422
48 3 O 2.89193 8.44087 3.18632 -1.2 -7.82606 -4.82905e+06 -2.65617e+06 -1.66612e+06 -905389 -238339 671785
49 1 Mg 1.25915 7.12349 0 1.2 -6.57339 2.96605e+06 -8.46909e+06 -5.41341e+06 5.90218e+06 1.37239e+06 3.18578e+06
50 3 O 2.84547 8.44087 5.78248 -1.2 -7.63633 -4.96643e+06 -2.91021e+06 -2.75481e+06 -836117 -139961 -1.6504e+06
51 1 Mg -1.59284 7.16481 1.4948 1.2 -9.47554 2.8012e+06 476468 5.17713e+06 1.46673e+06 -933970 929225
52 2 Si 0.240329 5.09994 1.4948 2.4 -36.3147 1.19435e+07 9.41475e+06 1.27732e+07 -1.95936e+06 -1.06524e+06 2.87377e+06
53 3 O 0.234538 3.48671 1.4948 -1.2 -4.192 -3.4658e+06 1.06691e+06 -3.44188e+07 401522 5.17957e+06 3.65872e+06
54 3 O 6.85564 6.07396 1.4948 -1.2 -8.40257 -6.30628e+06 -1.00644e+06 -2.19904e+06 -1.35176e+06 -1.81248e+06 651173
55 3 O -0.429565 5.80612 0.196716 -1.2 -2.82037 -2.59743e+06 -7.95466e+06 -3.23651e+07 1.84541e+06 1.21647e+06 4.04403e+06
56 3 O -0.473377 5.80612 2.79288 -1.2 -7.80385 -4.00772e+06 -2.7681e+06 -2.77657e+06 -792990 325189 790300
57 1 Mg 6.40169 9.49799 0 1.2 -6.57338 3.66317e+06 -7.43626e+06 -5.63046e+06 -5.49254e+06 1.00919e+06 -1.78945e+06
58 1 Mg 3.64209 14.2057 1.4948 1.2 -9.68453 2.2312e+06 896405 5.42253e+06 -1.02447e+06 -961814 366476
59 2 Si 5.45748 11.5215 1.4948 2.4 -36.8854 1.17719e+07 9.78142e+06 1.3468e+07 900228 372746 -812416
60 3 O 5.51101 13.1348 1.4948 -1.2 -3.4954 -2.59318e+06 52869.3 -3.57818e+07 465318 -2.55818e+06 -5.01461e+06
61 3 O 1.83851 10.5475 1.4948 -1.2 -8.26571 -6.30627e+06 -889838 -2.30069e+06 1.53836e+06 -1.57491e+06 -1.75617e+06
62 3 O 4.7611 10.8154 0.196716 -1.2 -2.32439 -1.50729e+06 -1.04681e+07 -3.30028e+07 -2.47105e+06 -1.78262e+06 -4.96824e+06
63 1 Mg 6.35203 9.49799 2.9896 1.2 -9.28335 6.22213e+06 -2.54328e+06 762333 1.32584e+06 -1.18451e+06 2.60265e+06
64 3 O 4.71833 10.8154 2.79288 -1.2 -7.5424 -3.97028e+06 -2.85322e+06 -3.05827e+06 1.04299e+06 26495.7 -1.92352e+06
65 1 Mg -1.0438 9.53931 4.4844 1.2 -10.041 1.32549e+06 1.5964e+06 3.99905e+06 -568833 -276145 496166
66 2 Si -2.8604 12.2234 4.4844 2.4 -35.6698 1.58187e+07 7.50128e+06 9.99284e+06 -76957.4 -27046.9 1.18646e+06
67 3 O -2.91391 10.6102 4.4844 -1.2 -8.08648 -6.16864e+06 658726 -4.55229e+06 209753 -197747 -517010
68 3 O 0.7596 13.1975 4.4844 -1.2 -7.84174 -5.66529e+06 -2.02381e+06 -3.81553e+06 2.15323e+06 -477458 -545361
69 3 O -2.12001 12.9296 3.18632 -1.2 -7.71084 -5.06391e+06 -2.6349e+06 -1.48922e+06 1.17323e+06 -221798 -2.16703e+06
70 3 O -2.16532 12.9296 5.78248 -1.2 -7.48112 -5.2173e+06 -3.29407e+06 -2.29026e+06 1.21637e+06 -40772.2 720056
71 1 Mg 1.29891 11.8725 2.9896 1.2 -9.34827 6.34001e+06 -2.43674e+06 620655 -1.18108e+06 -1.22976e+06 -1.08007e+06
72 1 Mg 4.10033 11.8312 4.4844 1.2 -10.0707 1.5007e+06 1.77901e+06 3.77762e+06 1.14828e+06 -313935 583769
73 2 Si 2.27333 13.896 4.4844 2.4 -35.6794 1.58596e+07 7.63338e+06 9.79566e+06 722786 15445.2 1.36173e+06
74 3 O 2.28634 15.5093 4.4844 -1.2 -8.02393 -6.29747e+06 582772 -4.56681e+06 432352 -243795 -716250
75 3 O -4.34533 12.922 4.4844 -1.2 -7.89631 -5.69676e+06 -1.91171e+06 -3.77408e+06 -1.48732e+06 -484772 -702586
76 3 O 2.98455 13.1899 3.18632 -1.2 -7.74064 -5.03927e+06 -2.75052e+06 -1.52398e+06 -972490 -163655 654327
77 1 Mg 1.34779 11.8725 0 1.2 -6.8097 4.85733e+06 -3.82641e+06 -5.66989e+06 3.57611e+06 783238 2.28564e+06
78 3 O 2.93934 13.1899 5.78248 -1.2 -7.53517 -5.17285e+06 -3.40188e+06 -2.24849e+06 -972590 -244576 -1.75551e+06
79 1 Mg -1.50344 11.9138 1.4948 1.2 -9.64938 2.61837e+06 757305 5.34146e+06 1.5544e+06 -950003 1.09099e+06
80 2 Si 0.326006 9.84894 1.4948 2.4 -36.8361 1.17845e+07 9.76082e+06 1.33693e+07 -611121 91963.7 3.61051e+06
81 3 O 0.317364 8.23571 1.4948 -1.2 -3.49637 -2.48844e+06 126885 -3.62678e+07 -122762 1.18508e+06 3.5471e+06
82 3 O 6.94307 10.823 1.4948 -1.2 -8.30492 -6.47102e+06 -717409 -2.20553e+06 -983465 -1.53775e+06 381290
83 3 O -0.343122 10.5551 0.196716 -1.2 -2.42007 -1.81233e+06 -9.91327e+06 -3.30635e+07 2.46427e+06 -2.02596e+06 3.81164e+06
84 3 O -0.385966 10.5551 2.79288 -1.2 -7.57544 -4.01594e+06 -2.88051e+06 -3.07491e+06 -851304 95155.8 496801
85 1 Mg 6.49448 14.247 0 1.2 -6.72133 5.25789e+06 -2.96209e+06 -5.89002e+06 -2.97383e+06 293488 -879239
86 1 Mg 3.74457 18.9547 1.4948 1.2 -9.65307 1.85945e+06 1.18755e+06 5.37553e+06 -1.12105e+06 -953731 -1219.19
87 2 Si 5.55495 16.2705 1.4948 2.4 -36.755 1.18201e+07 9.68402e+06 1.33267e+07 534648 833257 -1.14605e+06
88 3 O 5.6115 17.8838 1.4948 -1.2 -3.89976 -3.45892e+06 29782.4 -3.30144e+07 72088.8 -6.06613e+06 -4.536e+06
89 3 O 1.93416 15.2965 1.4948 -1.2 -8.33708 -6.33977e+06 -676858 -2.11678e+06 1.53162e+06 -1.36399e+06 -1.66041e+06
90 3 O 4.85636 15.5644 0.196716 -1.2 -2.43467 -1.32704e+06 -1.22775e+07 -3.13639e+07 -3.04003e+06 -5.15199e+06 -4.32563e+06
91 1 Mg 6.44662 14.247 2.9896 1.2 -9.32185 6.36386e+06 -2.44558e+06 583571 1.28645e+06 -1.17738e+06 2.69804e+06
92 3 O 4.81537 15.5644 2.79288 -1.2 -7.51885 -3.96733e+06 -2.9444e+06 -3.04066e+06 1.06224e+06 -43842.4 -1.93854e+06
93 1 Mg -0.948271 14.2883 4.4844 1.2 -10.1299 1.38901e+06 1.85683e+06 3.80897e+06 -589106 -362674 669082
94 2 Si -2.75928 16.9724 4.4844 2.4 -35.818 1.59522e+07 7.14823e+06 1.04498e+07 -86778.6 -204814 1.15655e+06
95 3 O -2.81617 15.3592 4.4844 -1.2 -8.00676 -6.20283e+06 574531 -4.55361e+06 310300 -135259 -748717
96 3 O 0.862762 17.9465 4.4844 -1.2 -7.80774 -5.80819e+06 -1.7897e+06 -3.96867e+06 2.17187e+06 -494646 -327225
97 3 O -2.0185 17.6786 3.18632 -1.2 -7.71331 -5.02774e+06 -2.61343e+06 -1.56372e+06 1.16782e+06 -100214 -1.92297e+06
98 3 O -2.06164 17.6786 5.78248 -1.2 -7.31659 -5.47892e+06 -2.74114e+06 -2.83198e+06 1.16581e+06 61860.1 895647
99 1 Mg 1.39817 16.6215 2.9896 1.2 -9.329 6.45418e+06 -2.42019e+06 456889 -1.1602e+06 -1.21844e+06 -1.11343e+06
100 1 Mg 4.20062 16.5802 4.4844 1.2 -10.1381 1.57075e+06 1.63769e+06 3.9567e+06 1.16945e+06 -235017 729016
101 2 Si 2.37796 18.645 4.4844 2.4 -35.7319 1.60335e+07 7.19615e+06 1.01413e+07 687438 122918 474788
102 3 O 2.39434 20.2583 4.4844 -1.2 -8.07301 -6.23174e+06 468031 -4.43718e+06 525901 -230297 64815.1
103 3 O -4.24274 17.671 4.4844 -1.2 -7.82268 -5.74929e+06 -1.66088e+06 -4.09109e+06 -1.41373e+06 -446133 -517506
104 3 O 3.08659 17.9389 3.18632 -1.2 -7.75229 -5.00972e+06 -2.72106e+06 -1.60503e+06 -944838 -119855 916235
105 1 Mg 1.44478 16.6215 0 1.2 -6.7885 6.32441e+06 -693919 -5.86028e+06 1.38548e+06 -91667.4 1.39036e+06
106 3 O 3.0436 17.9389 5.78248 -1.2 -7.37509 -5.42311e+06 -2.76089e+06 -2.85695e+06 -952457 -432058 -1.51122e+06
107 1 Mg -1.40524 16.6628 1.4948 1.2 -9.6593 2.33291e+06 1.01305e+06 5.33945e+06 1.68636e+06 -983714 878677
108 2 Si 0.420358 14.5979 1.4948 2.4 -36.8135 1.18683e+07 9.82247e+06 1.31717e+07 -139331 517166 3.79069e+06
109 3 O 0.408732 12.9847 1.4948 -1.2 -3.48213 -2.63906e+06 72259.3 -3.59104e+07 227320 -2.54084e+06 3.57467e+06
110 3 O 7.03923 15.572 1.4948 -1.2 -8.37921 -6.44871e+06 -528546 -2.05677e+06 -942834 -1.31878e+06 405704
111 3 O -0.248332 15.3041 0.196716 -1.2 -2.53584 -1.7243e+06 -1.18109e+07 -3.13242e+07 3.26071e+06 -5.38716e+06 3.39749e+06
112 3 O -0.289436 15.3041 2.79288 -1.2 -7.54943 -4.01147e+06 -3.0522e+06 -2.99395e+06 -846852 70993.8 438354
113 1 Mg 6.59566 18.996 0 1.2 -6.68218 6.37968e+06 -140481 -5.85293e+06 -887349 -670528 -661756
114 1 Mg 3.85574 23.7037 1.4948 1.2 -9.56941 1.33583e+06 1.73333e+06 5.07953e+06 -1.18495e+06 -906640 -415831
115 2 Si 5.66125 21.0195 1.4948 2.4 -36.3899 1.1837e+07 9.83427e+06 1.26366e+07 195160 1.20267e+06 -2.34243e+06
116 3 O 5.72074 22.6328 1.4948 -1.2 -4.66357 -4.89653e+06 -218218 -2.77638e+07 -219488 -8.49319e+06 -3.53419e+06
117 3 O 2.03867 20.0455 1.4948 -1.2 -8.49151 -6.15743e+06 -626233 -1.8998e+06 1.58224e+06 -1.16705e+06 -1.09447e+06
118 3 O 4.96004 20.3134 0.196716 -1.2 -2.92979 -1.82051e+06 -1.39485e+07 -2.72203e+07 -3.19431e+06 -7.93918e+06 -2.85949e+06
119 1 Mg 6.55057 18.996 2.9896 1.2 -9.25801 6.35057e+06 -2.42155e+06 471105 1.30312e+06 -1.22195e+06 2.19516e+06
120 3 O 4.92172 20.3134 2.79288 -1.2 -7.60713 -3.79904e+06 -3.17386e+06 -2.87393e+06 1.08503e+06 -95330 -1.28438e+06
121 1 Mg -0.84282 19.0373 4.4844 1.2 -10.1334 1.40889e+06 1.71254e+06 3.93047e+06 -505495 -355061 122518
122 2 Si -2.64823 21.7214 4.4844 2.4 -35.4945 1.55384e+07 8.11088e+06 9.38114e+06 58462.3 -177451 -415591
123 3 O -2.70847 20.1082 4.4844 -1.2 -8.05768 -6.15142e+06 494377 -4.438e+06 291421 -71501.8 55452
124 3 O 0.97581 22.6955 4.4844 -1.2 -7.98869 -5.46803e+06 -2.40059e+06 -3.41578e+06 2.21723e+06 -446686 271494
125 3 O -1.9076 22.4276 3.18632 -1.2 -7.8689 -4.74554e+06 -3.07433e+06 -1.17486e+06 1.15939e+06 -39813.6 -1.3334e+06
126 3 O -1.9475 22.4276 5.78248 -1.2 -7.59427 -5.08241e+06 -3.52742e+06 -1.83883e+06 1.08294e+06 -70977.9 1.63796e+06
127 1 Mg 1.50678 21.3705 2.9896 1.2 -9.18823 6.32394e+06 -2.10399e+06 45394.7 -1.16756e+06 -1.23669e+06 -1.71751e+06
128 1 Mg 4.31086 21.3292 4.4844 1.2 -10.0255 1.37342e+06 2.06194e+06 3.55212e+06 1.15371e+06 -235412 -152088
129 2 Si 2.49243 23.394 4.4844 2.4 -35.3142 1.53342e+07 8.58936e+06 8.7818e+06 742406 -36233.8 -475229
130 3 O 2.51204 25.0073 4.4844 -1.2 -8.31183 -5.83701e+06 -150144 -3.83923e+06 498823 -179812 169938
131 3 O -4.13026 22.42 4.4844 -1.2 -8.02252 -5.50966e+06 -2.31297e+06 -3.36015e+06 -1.39777e+06 -437186 189076
132 3 O 3.19799 22.6879 3.18632 -1.2 -7.91065 -4.72057e+06 -3.23024e+06 -1.18693e+06 -920077 -8902.23 1.48178e+06
133 1 Mg 1.5501 21.3705 0 1.2 -6.68426 6.9336e+06 1.10908e+06 -5.66107e+06 -86674.8 -940076 423207
134 3 O 3.1583 22.6879 5.78248 -1.2 -7.60288 -5.04438e+06 -3.708e+06 -2.01474e+06 -897111 -251386 -824503
135 1 Mg -1.29822 21.4118 1.4948 1.2 -9.59577 1.84045e+06 1.47194e+06 5.16685e+06 1.80915e+06 -958810 234960
136 2 Si 0.523568 19.3469 1.4948 2.4 -36.5356 1.18305e+07 9.82193e+06 1.27929e+07 293435 985285 2.9662e+06
137 3 O 0.508934 17.7337 1.4948 -1.2 -3.88854 -3.53511e+06 36033.5 -3.30971e+07 674119 -6.06747e+06 3.67578e+06
138 3 O 7.14425 20.321 1.4948 -1.2 -8.53951 -6.25038e+06 -508020 -1.82803e+06 -948378 -1.05298e+06 943650
139 3 O -0.145107 20.0531 0.196716 -1.2 -3.01949 -2.19655e+06 -1.35969e+07 -2.72559e+07 3.6906e+06 -8.19652e+06 2.97316e+06
140 3 O -0.183601 20.0531 2.79288 -1.2 -7.63725 -3.8545e+06 -3.25766e+06 -2.85442e+06 -847164 5426.88 980133
141 1 Mg 6.70502 23.745 0 1.2 -6.63187 6.64909e+06 1.41929e+06 -5.37894e+06 407406 -1.54276e+06 -809707
142 1 Mg 3.97493 28.4527 1.4948 1.2 -9.48222 715597 2.13492e+06 4.92581e+06 -1.22824e+06 -777211 -384254
143 2 Si 5.77602 25.7685 1.4948 2.4 -35.9251 1.19286e+07 9.82876e+06 1.18933e+07 -130193 1.50279e+06 -2.82941e+06
144 3 O 5.83821 27.3818 1.4948 -1.2 -5.62842 -6.35544e+06 -299585 -2.14421e+07 -334533 -9.2784e+06 -2.80376e+06
145 3 O 2.15175 24.7945 1.4948 -1.2 -8.67404 -5.8637e+06 -759137 -1.63398e+06 1.60647e+06 -949213 -681999
146 3 O 5.07184 25.0624 0.196716 -1.2 -3.69503 -2.87423e+06 -1.48453e+07 -2.14223e+07 -2.78085e+06 -9.40287e+06 -1.16922e+06
147 1 Mg 6.66374 23.745 2.9896 1.2 -9.05067 6.14306e+06 -1.93861e+06 -133576 1.30522e+06 -1.25921e+06 1.76031e+06
148 3 O 5.03707 25.0624 2.79288 -1.2 -7.79927 -3.50396e+06 -3.60994e+06 -2.4628e+06 1.09613e+06 -152480 -1.01115e+06
149 1 Mg -0.727559 23.7863 4.4844 1.2 -9.91113 977537 2.35155e+06 3.35961e+06 -508356 -282254 -252222
150 2 Si -2.5277 26.4704 4.4844 2.4 -34.9945 1.47349e+07 8.77036e+06 8.73099e+06 -1979.38 -314718 -276156
151 3 O -2.59107 24.8572 4.4844 -1.2 -8.30896 -5.76593e+06 -96273.4 -3.81967e+06 391005 -71983 161637
152 3 O 1.09817 27.4445 4.4844 -1.2 -8.25205 -5.09512e+06 -2.65766e+06 -3.1272e+06 2.23026e+06 -486558 184488
153 3 O -1.78784 27.1766 3.18632 -1.2 -8.07613 -4.37222e+06 -3.367e+06 -982898 1.16292e+06 61845.7 -1.27926e+06
154 3 O -1.82343 27.1766 5.78248 -1.2 -7.89023 -4.61242e+06 -3.67509e+06 -1.63545e+06 1.1582e+06 151518 1.38994e+06
155 1 Mg 1.62435 26.1195 2.9896 1.2 -8.96743 6.07099e+06 -1.75132e+06 -405032 -1.1401e+06 -1.27591e+06 -1.83227e+06
156 1 Mg 4.43064 26.0782 4.4844 1.2 -9.79231 960869 2.46929e+06 3.18693e+06 1.1954e+06 -183708 -55214.2
157 2 Si 2.61607 28.143 4.4844 2.4 -34.8071 1.44195e+07 8.8694e+06 8.60114e+06 697786 52430.2 -334146
158 3 O 2.63853 29.7563 4.4844 -1.2 -8.59093 -5.3343e+06 -297676 -3.75802e+06 621236 -135180 224868
159 3 O -4.00841 27.169 4.4844 -1.2 -8.26713 -5.11309e+06 -2.51157e+06 -3.16284e+06 -1.35978e+06 -372908 91020.8
160 3 O 3.3182 27.4369 3.18632 -1.2 -8.11427 -4.32303e+06 -3.49777e+06 -1.06791e+06 -895556 65671.1 1.50448e+06
161 1 Mg 1.66335 26.1195 0 1.2 -6.64076 6.59862e+06 1.90867e+06 -4.97582e+06 -876252 -1.55133e+06 -43765.7
162 3 O 3.28288 27.4369 5.78248 -1.2 -7.84587 -4.55734e+06 -3.77967e+06 -2.00144e+06 -881180 -269862 -1.26925e+06
163 1 Mg -1.18278 26.1608 1.4948 1.2 -9.51268 1.27042e+06 1.92817e+06 4.95532e+06 1.88337e+06 -846012 -67400.5
164 2 Si 0.635424 24.0959 1.4948 2.4 -36.1007 1.18136e+07 1.00175e+07 1.19851e+07 753220 1.39696e+06 2.11685e+06
165 3 O 0.617906 22.4827 1.4948 -1.2 -4.64833 -4.95583e+06 -184770 -2.78976e+07 1.01482e+06 -8.55064e+06 3.77589e+06
166 3 O 7.25781 25.07 1.4948 -1.2 -8.72301 -5.95153e+06 -634395 -1.58624e+06 -925529 -811893 1.27382e+06
167 3 O -0.0337363 24.8021 0.196716 -1.2 -3.77319 -3.20186e+06 -1.47936e+07 -2.14333e+07 3.50047e+06 -9.66099e+06 2.09267e+06
168 3 O -0.0687235 24.8021 2.79288 -1.2 -7.83113 -3.55165e+06 -3.70906e+06 -2.44787e+06 -837743 -66082.5 1.25452e+06
169 1 Mg 6.82195 28.494 0 1.2 -6.6373 5.99587e+06 2.0596e+06 -4.47783e+06 1.14372e+06 -1.83237e+06 -725972
170 1 Mg 4.10106 33.2017 1.4948 1.2 -9.3605 78897.2 2.63652e+06 4.52546e+06 -1.21586e+06 -553798 -156522
171 2 Si 5.89839 30.5175 1.4948 2.4 -35.3724 1.20833e+07 9.71079e+06 1.10541e+07 -316496 1.68426e+06 -2.51427e+06
172 3 O 5.96289 32.1308 1.4948 -1.2 -6.67622 -7.21376e+06 -503141 -1.50469e+07 -296746 -8.46006e+06 -2.31893e+06
173 3 O 2.27266 29.5435 1.4948 -1.2 -8.85322 -5.50692e+06 -881033 -1.53439e+06 1.66679e+06 -713900 -691036
174 3 O 5.19102 29.8114 0.196716 -1.2 -4.67152 -3.99134e+06 -1.46223e+07 -1.51611e+07 -1.93276e+06 -9.27786e+06 51338.7
175 1 Mg 6.78546 28.494 2.9896 1.2 -8.81637 5.85662e+06 -1.73401e+06 -421670 1.32925e+06 -1.32747e+06 1.71641e+06
176 3 O 5.16061 29.8114 2.79288 -1.2 -8.0283 -3.20633e+06 -3.84615e+06 -2.1992e+06 1.10569e+06 -218686 -979632
177 1 Mg -0.603205 28.5353 4.4844 1.2 -9.62989 577033 2.54409e+06 3.10661e+06 -465504 -267458 -180073
178 2 Si -2.39877 31.2194 4.4844 2.4 -34.4387 1.37344e+07 9.36916e+06 8.24761e+06 224342 -154575 -254055
179 3 O -2.46483 29.6062 4.4844 -1.2 -8.58366 -5.29509e+06 -276027 -3.6721e+06 325810 -25714.4 182650
180 3 O 1.22864 32.1935 4.4844 -1.2 -8.52743 -4.57845e+06 -3.03147e+06 -2.82798e+06 2.30072e+06 -360544 89253.6
181 3 O -1.66032 31.9256 3.18632 -1.2 -8.28967 -3.91488e+06 -3.70038e+06 -842068 1.12734e+06 81750.9 -1.38874e+06
182 3 O -1.69072 31.9256 5.78248 -1.2 -8.15161 -3.94776e+06 -4.08341e+06 -1.60982e+06 1.04129e+06 86564.8 1.42775e+06
183 1 Mg 1.7499 30.8685 2.9896 1.2 -8.7216 5.73352e+06 -1.45962e+06 -746609 -1.16464e+06 -1.38492e+06 -1.73808e+06
184 1 Mg 4.55894 30.8272 4.4844 1.2 -9.47093 548084 2.71621e+06 2.83613e+06 1.1968e+06 -196398 -198265
185 2 Si 2.7476 32.892 4.4844 2.4 -34.2202 1.3459e+07 9.67636e+06 7.81516e+06 676881 -245938 -3193.27
186 3 O 2.77235 34.5053 4.4844 -1.2 -8.81704 -4.9382e+06 -535993 -3.54624e+06 599282 1123.61 -162312
187 3 O -3.87837 31.918 4.4844 -1.2 -8.5817 -4.75193e+06 -2.85354e+06 -2.69304e+06 -1.37618e+06 -436413 94975.9
188 3 O 3.44611 32.1859 3.18632 -1.2 -8.34975 -3.90962e+06 -3.86496e+06 -832299 -850586 199731 1.37712e+06
189 1 Mg 1.7837 30.8685 0 1.2 -6.61346 5.39226e+06 2.34155e+06 -4.30662e+06 -1.35892e+06 -1.54425e+06 204607
190 3 O 3.41602 32.1859 5.78248 -1.2 -8.29631 -3.87324e+06 -4.23327e+06 -1.40217e+06 -825468 -9403.67 -1.13159e+06
191 1 Mg -1.05984 30.9098 1.4948 1.2 -9.40293 617084 2.41179e+06 4.64741e+06 1.91629e+06 -626893 -36872.9
192 2 Si 0.755243 28.8449 1.4948 2.4 -35.5921 1.19538e+07 9.85584e+06 1.12763e+07 1.13383e+06 1.61076e+06 2.01241e+06
193 3 O 0.735127 27.2317 1.4948 -1.2 -5.61916 -6.44379e+06 -290065 -2.15165e+07 1.16991e+06 -9.33229e+06 3.30421e+06
194 3 O 7.37914 29.819 1.4948 -1.2 -8.90523 -5.60269e+06 -778917 -1.46628e+06 -943561 -617714 1.22666e+06
195 3 O 0.0850649 29.5511 0.196716 -1.2 -4.73097 -4.27597e+06 -1.49635e+07 -1.5087e+07 2.69769e+06 -9.44215e+06 678947
196 3 O 0.0543974 29.5511 2.79288 -1.2 -8.05811 -3.24202e+06 -3.97682e+06 -2.18041e+06 -832647 -126731 1.17298e+06
197 1 Mg 6.94543 33.243 0 1.2 -6.60986 4.65841e+06 2.48192e+06 -3.93318e+06 1.60159e+06 -1.43931e+06 -840995
198 1 Mg 4.23267 37.9507 1.4948 1.2 -9.27616 -425315 2.70405e+06 4.41252e+06 -1.11686e+06 -231596 -57492.3
199 2 Si 6.02709 35.2665 1.4948 2.4 -34.8264 1.23321e+07 9.33056e+06 1.03606e+07 -410202 1.6022e+06 -2.01746e+06
200 3 O 6.09339 36.8798 1.4948 -1.2 -7.59019 -7.26982e+06 -418437 -1.01042e+07 -139827 -6.60998e+06 -1.90562e+06
201 3 O 2.40018 34.2925 1.4948 -1.2 -9.01375 -5.12588e+06 -1.09578e+06 -1.49515e+06 1.70567e+06 -502170 -831070
202 3 O 5.31645 34.5604 0.196716 -1.2 -5.76331 -4.778e+06 -1.32883e+07 -9.5231e+06 -952386 -7.82729e+06 1.12125e+06
203 1 Mg 6.91449 33.243 2.9896 1.2 -8.57801 5.58618e+06 -1.43409e+06 -824791 1.32553e+06 -1.34138e+06 1.86998e+06
204 3 O 5.291 34.5604 2.79288 -1.2 -8.24282 -3.02899e+06 -4.03922e+06 -1.87626e+06 1.13351e+06 -260157 -1.20449e+06
205 1 Mg -0.471101 33.2843 4.4844 1.2 -9.40984 29496.8 2.88412e+06 2.95933e+06 -406845 -194968 41928.2
206 2 Si -2.26307 35.9684 4.4844 2.4 -34.0736 1.32546e+07 9.45775e+06 8.05657e+06 100902 28378.2 332521
207 3 O -2.33122 34.3552 4.4844 -1.2 -8.81087 -4.92731e+06 -525163 -3.4169e+06 383973 -139384 -64595.4
208 3 O 1.36549 36.9425 4.4844 -1.2 -8.63695 -4.34153e+06 -2.89204e+06 -3.02249e+06 2.29465e+06 -306446 -132856
209 3 O -1.52658 36.6746 3.18632 -1.2 -8.42156 -3.61489e+06 -3.71475e+06 -1.00914e+06 1.15595e+06 83507.2 -1.57244e+06
210 3 O -1.55122 36.6746 5.78248 -1.2 -8.33433 -3.70936e+06 -3.98242e+06 -1.42201e+06 1.1678e+06 -117479 1.09529e+06
211 1 Mg 1.882 35.6175 2.9896 1.2 -8.54988 5.46457e+06 -1.36928e+06 -832932 -1.11776e+06 -1.50533e+06 -1.48541e+06
212 1 Mg 4.69415 35.5762 4.4844 1.2 -9.27603 309738 2.73616e+06 2.7436e+06 1.20828e+06 -249270 223563
213 2 Si 2.88522 37.641 4.4844 2.4 -34.0391 1.30824e+07 9.25654e+06 8.32715e+06 814061 -311862 241536
214 3 O 2.91159 39.2543 4.4844 -1.2 -8.90357 -4.82648e+06 -351546 -3.69964e+06 546804 14429.8 -133262
215 3 O -3.74183 36.667 4.4844 -1.2 -8.75165 -4.62003e+06 -2.77482e+06 -2.62521e+06 -1.32126e+06 -341296 -234991
216 3 O 3.58014 36.9349 3.18632 -1.2 -8.47156 -3.62837e+06 -3.81969e+06 -1.06549e+06 -867905 279999 1.16018e+06
217 1 Mg 1.90997 35.6175 0 1.2 -6.59126 3.89544e+06 2.39056e+06 -3.87299e+06 -1.66672e+06 -755123 639314
218 3 O 3.55582 36.9349 5.78248 -1.2 -8.33866 -3.71355e+06 -3.89175e+06 -1.82788e+06 -922932 107165 -1.35969e+06
219 1 Mg -0.93068 35.6588 1.4948 1.2 -9.30261 8315.18 2.6895e+06 4.42565e+06 1.86151e+06 -307018 15770.9
220 2 Si 0.881882 33.5939 1.4948 2.4 -35.0392 1.20337e+07 9.7268e+06 1.0511e+07 1.39954e+06 1.61826e+06 2.08617e+06
221 3 O 0.859602 31.9807 1.4948 -1.2 -6.66191 -7.26953e+06 -490496 -1.51703e+07 1.16692e+06 -8.46798e+06 2.56419e+06
222 3 O 7.507 34.568 1.4948 -1.2 -9.06512 -5.24525e+06 -982363 -1.43072e+06 -943379 -440757 1.11617e+06
223 3 O 0.210186 34.3001 0.196716 -1.2 -5.78423 -4.89117e+06 -1.40013e+07 -9.51235e+06 1.53475e+06 -7.94906e+06 -526200
224 3 O 0.184454 34.3001 2.79288 -1.2 -8.25607 -2.94953e+06 -4.19316e+06 -1.98189e+06 -853160 -175173 939019
225 1 Mg 7.07415 37.992 0 1.2 -6.60836 3.31025e+06 2.25933e+06 -3.51396e+06 1.86002e+06 -426047 -1.41732e+06
226 1 Mg 4.36817 42.6997 1.4948 1.2 -9.15411 -839382 2.73773e+06 4.21548e+06 -992371 121028 -87544.9
227 2 Si 6.16058 40.0155 1.4948 2.4 -34.396 1.25119e+07 8.34205e+06 1.04871e+07 -379119 1.35193e+06 -1.74279e+06
228 3 O 6.22815 41.6288 1.4948 -1.2 -8.3093 -6.58759e+06 -233537 -6.90998e+06 36737.4 -4.53584e+06 -1.50025e+06
229 3 O 2.53282 39.0415 1.4948 -1.2 -9.09844 -4.83382e+06 -1.02189e+06 -1.88533e+06 1.70635e+06 -335107 -856738
230 3 O 5.44674 39.3094 0.196716 -1.2 -6.74596 -5.05536e+06 -1.07343e+07 -5.78525e+06 -142447 -5.78149e+06 1.97109e+06
231 1 Mg 7.04922 37.992 2.9896 1.2 -8.44201 5.42144e+06 -1.54092e+06 -760196 1.2956e+06 -1.4403e+06 2.02365e+06
232 3 O 5.42658 39.3094 2.79288 -1.2 -8.36921 -2.94742e+06 -3.82883e+06 -1.99399e+06 1.12087e+06 -305730 -1.26459e+06
233 1 Mg -0.333062 38.0333 4.4844 1.2 -9.30654 -167762 2.70449e+06 3.16554e+06 -482038 -108437 179165
234 2 Si -2.12255 40.7174 4.4844 2.4 -33.958 1.28522e+07 8.9027e+06 8.83733e+06 29615.9 -146540 345981
235 3 O -2.19212 39.1042 4.4844 -1.2 -8.89502 -4.74942e+06 -302683 -3.67042e+06 478955 -82587.2 -237050
236 3 O 1.50676 41.6915 4.4844 -1.2 -8.7594 -4.28761e+06 -2.7343e+06 -3.03825e+06 2.26207e+06 -225044 -94848.7
237 3 O -1.3884 41.4236 3.18632 -1.2 -8.51526 -3.37012e+06 -3.54078e+06 -1.38057e+06 1.15835e+06 149605 -1.48153e+06
238 3 O -1.40713 41.4236 5.78248 -1.2 -8.32514 -3.59798e+06 -3.61573e+06 -1.95348e+06 1.18068e+06 202199 1.22614e+06
239 1 Mg 2.01892 40.3665 2.9896 1.2 -8.43136 5.32468e+06 -1.51904e+06 -719953 -1.08052e+06 -1.60505e+06 -1.49077e+06
240 1 Mg 4.83434 40.3252 4.4844 1.2 -9.20385 168695 2.54577e+06 2.9603e+06 1.27042e+06 -75405.1 243941
241 2 Si 3.02698 42.39 4.4844 2.4 -33.8022 1.27477e+07 8.93997e+06 8.60242e+06 819821 -115430 195155
242 3 O 3.05433 44.0033 4.4844 -1.2 -9.06567 -4.51294e+06 -252757 -3.8554e+06 590607 -41281.9 24208.9
243 3 O -3.60077 41.416 4.4844 -1.2 -8.81146 -4.40843e+06 -2.51539e+06 -2.99845e+06 -1.26974e+06 -295201 -174755
244 3 O 3.71851 41.6839 3.18632 -1.2 -8.57253 -3.37887e+06 -3.69216e+06 -1.39045e+06 -856732 238199 1.18107e+06
245 1 Mg 2.04077 40.3665 0 1.2 -6.56868 2.72497e+06 2.04208e+06 -3.8114e+06 -1.81925e+06 418506 1.4185e+06
246 3 O 3.70011 41.6839 5.78248 -1.2 -8.42213 -3.63918e+06 -3.78209e+06 -1.78669e+06 -919822 -94788.9 -1.52345e+06
247 1 Mg -0.796865 40.4078 1.4948 1.2 -9.2069 -399799 2.6612e+06 4.3171e+06 1.74063e+06 34966.2 -7059.5
248 2 Si 1.01387 38.3429 1.4948 2.4 -34.59 1.22684e+07 8.80746e+06 1.05112e+07 1.53691e+06 1.44527e+06 1.9018e+06
249 3 O 0.989947 36.7297 1.4948 -1.2 -7.5709 -7.28428e+06 -410805 -1.02798e+07 1.0363e+06 -6.63275e+06 1.98192e+06
250 3 O 7.63988 39.317 1.4948 -1.2 -9.14865 -4.94859e+06 -913566 -1.83566e+06 -918470 -271076 1.10508e+06
251 3 O 0.340253 39.0491 0.196716 -1.2 -6.74236 -5.10161e+06 -1.16559e+07 -5.77844e+06 380120 -5.85167e+06 -1.39934e+06
252 3 O 0.319795 39.0491 2.79288 -1.2 -8.38854 -2.87435e+06 -4.0026e+06 -2.07358e+06 -842881 -189283 866642
253 1 Mg 7.20667 42.741 0 1.2 -6.55108 2.26959e+06 2.03965e+06 -3.80918e+06 1.99155e+06 934901 -2.27591e+06
254 1 Mg 4.50613 47.4487 1.4948 1.2 -8.9382 -1.15749e+06 3.02371e+06 3.69848e+06 -849918 404024 -146838
255 2 Si 6.29731 44.7645 1.4948 2.4 -33.9049 1.23076e+07 7.95617e+06 1.02675e+07 -231973 907858 -1.75426e+06
256 3 O 6.36567 46.3778 1.4948 -1.2 -8.90184 -5.47761e+06 -400199 -4.80346e+06 179473 -2.69391e+06 -1.15456e+06
257 3 O 2.669 43.7905 1.4948 -1.2 -9.19666 -4.48238e+06 -1.1951e+06 -2.17612e+06 1.71675e+06 -197223 -795755
258 3 O 5.58048 44.0584 0.196716 -1.2 -7.59882 -4.72598e+06 -8.15577e+06 -3.36202e+06 305366 -3.71609e+06 2.54088e+06
259 1 Mg 7.1879 42.741 2.9896 1.2 -8.31034 5.17083e+06 -1.64192e+06 -606189 1.26794e+06 -1.56956e+06 1.85371e+06
260 3 O 5.56564 44.0584 2.79288 -1.2 -8.54921 -2.77262e+06 -3.7755e+06 -1.95905e+06 1.14379e+06 -282926 -1.07739e+06
261 1 Mg -0.19105 42.7823 4.4844 1.2 -9.17114 -293971 2.52844e+06 3.24908e+06 -383556 -117035 4828.15
262 2 Si -1.97909 45.4664 4.4844 2.4 -33.4499 1.21511e+07 9.25869e+06 8.36557e+06 130027 -182887 -150591
263 3 O -2.04947 43.8532 4.4844 -1.2 -9.06336 -4.49505e+06 -266394 -3.69544e+06 452069 12824.1 94152.5
264 3 O 1.65063 46.4405 4.4844 -1.2 -9.03025 -3.84033e+06 -2.9187e+06 -2.88167e+06 2.31554e+06 -219186 62084.2
265 3 O -1.24745 46.1726 3.18632 -1.2 -8.72458 -2.9829e+06 -3.73986e+06 -1.34144e+06 1.13627e+06 102222 -1.32018e+06
266 3 O -1.26044 46.1726 5.78248 -1.2 -8.71343 -3.14238e+06 -3.90942e+06 -1.33259e+06 1.13718e+06 150885 1.33152e+06
267 1 Mg 2.15896 45.1155 2.9896 1.2 -8.24084 4.99314e+06 -1.42166e+06 -775306 -1.06923e+06 -1.67436e+06 -1.6496e+06
268 1 Mg 4.97763 45.0742 4.4844 1.2 -8.99646 -249878 2.60304e+06 2.98936e+06 1.2329e+06 -102537 -57655.2