ITEM: TIMESTEP
12800
ITEM: NUMBER OF ATOMS
10500
ITEM: BOX BOUNDS xy xz yz pp pp pp
0.0000000000000000e+00 1.5297450000000000e+01 5.0990000000000002e+00
0.0000000000000000e+00 1.1872499999999999e+02 0.0000000000000000e+00
0.0000000000000000e+00 8.9688000000000002e+01 0.0000000000000000e+00
ITEM: ATOMS id type element xu yu zu q c_pe c_s[1] c_s[2] c_s[3] c_s[4] c_s[5] c_s[6]
1 1 Mg 6.2404 -6.37941e-06 0 1.2 -4.45866 7.90906e+06 -1.57979e+06 -6.44666e+06 -16405.7 2.63231e+06 -120160
2 1 Mg 3.46349 4.70768 1.4948 1.2 -8.6756 -15209.9 2.46257e+06 4.54858e+06 -942468 -623690 428798
3 2 Si 5.2885 2.02354 1.4948 2.4 -35.3591 1.01174e+07 1.12044e+07 1.11224e+07 8.88523e+06 649605 -2.75879e+06
4 3 O 5.33628 3.63678 1.4948 -1.2 -4.5899 -1.01555e+06 -1.37067e+06 -3.3758e+07 -351929 3.82655e+06 -4.15085e+06
5 3 O 1.67294 1.04952 1.4948 -1.2 -1.03447 -2.03375e+07 -7.96098e+07 -1.92083e+06 -2.41278e+07 -130803 -171081
6 3 O 4.59532 1.31737 0.196716 -1.2 -2.96083 -2.02184e+06 -6.86203e+06 -3.03509e+07 -6.02975e+06 6.26031e+06 -2.73243e+06
7 1 Mg 6.18956 -6.37941e-06 2.9896 1.2 -4.86143 1.45633e+06 -2.80113e+07 -3.20053e+06 -8.86006e+06 2.40835e+06 4.04117e+06
8 3 O 4.55118 1.31737 2.79288 -1.2 -7.52417 222449 -4.8834e+06 -3.02329e+06 -2.97779e+06 -3.36622e+06 -1.25171e+06
9 1 Mg -1.20682 0.0413099 4.4844 1.2 9.08537 -3.08858e+07 -9.31923e+07 -602737 -2.85416e+07 -1.13762e+06 -19731.5
10 2 Si -3.0337 2.72544 4.4844 2.4 -32.9884 1.42196e+07 7.17389e+06 7.83268e+06 1.69759e+06 -107373 337720
11 3 O -3.08099 1.11221 4.4844 -1.2 -9.75919 -6.03097e+06 -232322 -1.80328e+06 -1.18022e+06 -115666 127711
12 3 O 0.582463 3.69946 4.4844 -1.2 -8.97155 -3.29539e+06 -5.42406e+06 -2.87134e+06 -459422 -200205 -641913
13 3 O -2.29524 3.43162 3.18632 -1.2 -9.01151 -4.32067e+06 -2.47545e+06 -601621 1.07729e+06 -804041 -1.37199e+06
14 3 O -2.34216 3.43162 5.78248 -1.2 -8.96689 -3.78568e+06 -3.12735e+06 -1.60406e+06 681590 755322 415881
15 1 Mg 1.12778 2.37449 2.9896 1.2 -7.60751 5.18255e+06 -1.53525e+06 -778841 -3.30456e+06 -4.14317e+06 -2.01106e+06
16 1 Mg 3.92855 2.33318 4.4844 1.2 -8.41441 -4.37299e+06 5.05675e+06 4.82541e+06 1.43899e+06 289203 780855
17 2 Si 2.09341 4.39804 4.4844 2.4 -32.5011 1.2167e+07 6.45132e+06 9.38366e+06 27042.5 -191700 1.56954e+06
18 3 O 2.09991 6.01128 4.4844 -1.2 -9.31067 -4.31003e+06 447057 -4.37492e+06 606547 -118424 -760114
19 3 O -4.52137 3.42402 4.4844 -1.2 -9.17737 -2.85828e+06 -2.82508e+06 -3.70401e+06 -2.52089e+06 -823480 -421931
20 3 O 2.80834 3.69187 3.18632 -1.2 -9.25743 -2.20566e+06 -2.74656e+06 -534698 476213 -507936 -863914
21 1 Mg 1.17857 2.37449 0 1.2 -5.24261 -409855 -1.47598e+07 -6.51431e+06 6.50015e+06 1.20072e+06 4.64685e+06
22 3 O 2.76143 3.69187 5.78248 -1.2 -9.37103 -2.60838e+06 -2.38919e+06 -1.51493e+06 630215 -38951.8 -501804
23 1 Mg -1.67381 2.41581 1.4948 1.2 -7.64595 1.68897e+06 -143296 3.97067e+06 1.35437e+06 -577769 1.19368e+06
24 2 Si 0.16286 0.350945 1.4948 2.4 -24.5349 -8.19417e+06 1.28558e+07 1.09457e+07 1.58207e+06 2.88427e+06 1.28533e+06
25 3 O 0.15972 -1.26229 1.4948 -1.2 -4.80607 -1.06206e+07 -8.17051e+06 -2.87812e+07 -5.607e+06 -8.55482e+06 -2.67032e+06
26 3 O 6.77654 1.32496 1.4948 -1.2 -10.3329 -5.77815e+06 1.59856e+06 -1.20974e+06 -647274 -638080 959315
27 3 O -0.508028 1.05712 0.196716 -1.2 -9.48131 -8187.78 -4.88013e+06 -452034 -549990 178271 -4.58719e+06
28 3 O -0.552171 1.05712 2.79288 -1.2 -6.84481 -5.30281e+06 -4.80055e+06 -2.44091e+07 1.43695e+06 -6.82959e+06 -5.60023e+06
29 1 Mg 6.31713 4.74899 0 1.2 -5.19083 771721 -1.31514e+07 -5.85603e+06 -7.2809e+06 1.41184e+06 -3.37544e+06
30 1 Mg 3.54847 9.45668 1.4948 1.2 -8.77318 1.00286e+06 790974 5.33706e+06 -953139 -934555 198356
31 2 Si 5.36879 6.77254 1.4948 2.4 -34.932 8.35697e+06 1.09115e+07 1.26468e+07 1.67655e+06 146156 -994047
32 3 O 5.41937 8.38578 1.4948 -1.2 -4.36002 -992965 -130217 -3.59938e+07 769332 1.11345e+06 -4.7544e+06
33 3 O 1.75158 5.79852 1.4948 -1.2 -9.23712 -4.42088e+06 -1.94692e+06 -1.84528e+06 1.9871e+06 -1.59446e+06 -1.77688e+06
34 3 O 4.67421 6.06637 0.196716 -1.2 -3.45458 -392403 -9.67402e+06 -3.18786e+07 -2.01608e+06 1.31115e+06 -4.77782e+06
35 1 Mg 6.26654 4.74899 2.9896 1.2 -8.17586 4.35452e+06 -1.93352e+06 248088 1.84484e+06 -836457 2.40825e+06
36 3 O 4.63043 6.06637 2.79288 -1.2 -8.61198 -2.02303e+06 -3.50556e+06 -2.63112e+06 933130 -121914 -1.99166e+06
37 1 Mg -1.12976 4.79031 4.4844 1.2 -8.89305 -456350 2.44921e+06 3.12473e+06 -710564 -489333 604436
38 2 Si -2.9517 7.47444 4.4844 2.4 -33.4946 1.23079e+07 7.37775e+06 1.01372e+07 82609.1 198406 1.19045e+06
39 3 O -3.00198 5.86121 4.4844 -1.2 -9.24768 -4.26745e+06 368558 -4.29752e+06 -20730.5 -298207 -586097
40 3 O 0.666315 8.44846 4.4844 -1.2 -8.8565 -3.97956e+06 -1.67711e+06 -4.22418e+06 2.08207e+06 -412503 -664096
41 3 O -2.21213 8.18062 3.18632 -1.2 -8.71192 -3.52416e+06 -2.53999e+06 -1.51639e+06 1.09916e+06 -339895 -2.03803e+06
42 3 O -2.25864 8.18062 5.78248 -1.2 -8.58181 -3.47715e+06 -2.83731e+06 -2.63241e+06 1.0109e+06 -335677 759130
43 1 Mg 1.20893 7.12349 2.9896 1.2 -8.30863 4.61435e+06 -2.27435e+06 521372 -1.29313e+06 -1.36593e+06 -1.05578e+06
44 1 Mg 4.00982 7.08218 4.4844 1.2 -8.93256 -341665 1.9025e+06 3.6693e+06 979104 -268811 807061
45 2 Si 2.17861 9.14704 4.4844 2.4 -33.7524 1.26441e+07 6.78761e+06 1.07715e+07 666267 -139524 1.48468e+06
46 3 O 2.18828 10.7603 4.4844 -1.2 -8.90548 -4.78212e+06 1.09574e+06 -5.17828e+06 397115 -213446 -459832
47 3 O -4.43805 8.17302 4.4844 -1.2 -8.94753 -4.02474e+06 -1.76717e+06 -3.90665e+06 -1.47953e+06 -529664 -719483
48 3 O 2.89193 8.44087 3.18632 -1.2 -8.71638 -3.43652e+06 -2.69447e+06 -1.59823e+06 -924089 -201991 623228
49 1 Mg 1.25915 7.12349 0 1.2 -5.69646 1.58164e+06 -8.21441e+06 -5.68867e+06 5.88625e+06 1.40754e+06 2.9819e+06
50 3 O 2.84547 8.44087 5.78248 -1.2 -8.59399 -3.53832e+06 -2.87162e+06 -2.64423e+06 -891386 -75511.4 -2.09615e+06
51 1 Mg -1.59284 7.16481 1.4948 1.2 -8.59447 1.34603e+06 703693 4.99352e+06 1.46347e+06 -912379 823057
52 2 Si 0.240329 5.09994 1.4948 2.4 -34.5066 8.99868e+06 1.03067e+07 1.19291e+07 -1.99375e+06 -1.05893e+06 2.71401e+06
53 3 O 0.234538 3.48671 1.4948 -1.2 -5.10015 -1.98758e+06 464967 -3.38402e+07 418160 5.17298e+06 3.70402e+06
54 3 O 6.85564 6.07396 1.4948 -1.2 -9.30102 -4.8575e+06 -1.34226e+06 -1.8728e+06 -1.36017e+06 -1.83307e+06 727337
55 3 O -0.429565 5.80612 0.196716 -1.2 -3.71336 -1.14562e+06 -8.3415e+06 -3.19995e+07 1.85805e+06 1.1847e+06 4.25818e+06
56 3 O -0.473377 5.80612 2.79288 -1.2 -8.70839 -2.49567e+06 -3.09966e+06 -2.50948e+06 -774259 328656 756336
57 1 Mg 6.40169 9.49799 0 1.2 -5.74387 2.3033e+06 -7.34107e+06 -5.69481e+06 -5.49988e+06 963445 -1.99611e+06
58 1 Mg 3.64209 14.2057 1.4948 1.2 -8.88681 966721 910265 5.39505e+06 -1.04311e+06 -988967 -173013
59 2 Si 5.45748 11.5215 1.4948 2.4 -35.247 9.15872e+06 9.6069e+06 1.36306e+07 884099 306700 -1.38393e+06
60 3 O 5.51101 13.1348 1.4948 -1.2 -4.29885 -1.31472e+06 117583 -3.58374e+07 473964 -2.51944e+06 -4.56079e+06
61 3 O 1.83851 10.5475 1.4948 -1.2 -9.10006 -4.98489e+06 -847000 -2.32877e+06 1.52729e+06 -1.58709e+06 -1.55061e+06
62 3 O 4.7611 10.8154 0.196716 -1.2 -3.13935 -228074 -1.05019e+07 -3.29422e+07 -2.46916e+06 -1.73198e+06 -4.73648e+06
63 1 Mg 6.35203 9.49799 2.9896 1.2 -8.41449 4.84764e+06 -2.6274e+06 828882 1.2941e+06 -1.17451e+06 2.56031e+06
64 3 O 4.71833 10.8154 2.79288 -1.2 -8.38305 -2.6378e+06 -2.63913e+06 -3.25793e+06 1.05112e+06 50519.1 -1.7636e+06
65 1 Mg -1.0438 9.53931 4.4844 1.2 -9.168 -144180 1.39608e+06 4.26971e+06 -571874 -254173 519329
66 2 Si -2.8604 12.2234 4.4844 2.4 -34.0142 1.32147e+07 6.236e+06 1.12102e+07 -81489.7 -92424.4 520475
67 3 O -2.91391 10.6102 4.4844 -1.2 -8.94405 -4.81492e+06 1.05955e+06 -4.9263e+06 281073 -211624 -530208
68 3 O 0.7596 13.1975 4.4844 -1.2 -8.67765 -4.29394e+06 -1.48719e+06 -4.38974e+06 2.15482e+06 -507729 -4299.01
69 3 O -2.12001 12.9296 3.18632 -1.2 -8.54611 -3.74516e+06 -2.29116e+06 -1.81331e+06 1.15589e+06 -223179 -1.66811e+06
70 3 O -2.16532 12.9296 5.78248 -1.2 -8.28473 -3.97077e+06 -2.2859e+06 -3.22961e+06 1.10982e+06 3835.77 1.21947e+06
71 1 Mg 1.29891 11.8725 2.9896 1.2 -8.51774 4.99915e+06 -2.71057e+06 904654 -1.16914e+06 -1.20373e+06 -1.39479e+06
72 1 Mg 4.10033 11.8312 4.4844 1.2 -9.26217 183116 1.17288e+06 4.40605e+06 1.14888e+06 -325692 343921
73 2 Si 2.27333 13.896 4.4844 2.4 -33.9932 1.30372e+07 6.74967e+06 1.07987e+07 624540 -15786.1 -80649.5
74 3 O 2.28634 15.5093 4.4844 -1.2 -8.93805 -4.69418e+06 666943 -4.79001e+06 485565 -173491 180152
75 3 O -4.34533 12.922 4.4844 -1.2 -8.71691 -4.40127e+06 -1.25881e+06 -4.40062e+06 -1.47795e+06 -459464 -155568
76 3 O 2.98455 13.1899 3.18632 -1.2 -8.56738 -3.69318e+06 -2.44949e+06 -1.84714e+06 -951666 -157373 1.18858e+06
77 1 Mg 1.34779 11.8725 0 1.2 -6.01272 3.61539e+06 -3.75653e+06 -5.77472e+06 3.57829e+06 824059 2.0174e+06
78 3 O 2.93934 13.1899 5.78248 -1.2 -8.31424 -3.9002e+06 -2.59972e+06 -2.99864e+06 -906858 -239846 -1.02694e+06
79 1 Mg -1.50344 11.9138 1.4948 1.2 -8.83534 1.29414e+06 683196 5.43554e+06 1.5583e+06 -931987 759059
80 2 Si 0.326006 9.84894 1.4948 2.4 -35.1503 9.0595e+06 9.7632e+06 1.33909e+07 -593897 140982 3.26554e+06
81 3 O 0.317364 8.23571 1.4948 -1.2 -4.36375 -1.07811e+06 -2254.94 -3.61598e+07 -126185 1.17141e+06 3.66508e+06
82 3 O 6.94307 10.823 1.4948 -1.2 -9.13261 -5.12945e+06 -659101 -2.27923e+06 -973167 -1.52493e+06 613455
83 3 O -0.343122 10.5551 0.196716 -1.2 -3.23504 -481150 -9.97081e+06 -3.30317e+07 2.46296e+06 -2.07548e+06 4.02869e+06
84 3 O -0.385966 10.5551 2.79288 -1.2 -8.42064 -2.64569e+06 -2.71639e+06 -3.25726e+06 -861181 75550.6 671416
85 1 Mg 6.49448 14.247 0 1.2 -5.97626 4.04129e+06 -2.7776e+06 -6.05163e+06 -2.9681e+06 240138 -1.29518e+06
86 1 Mg 3.74457 18.9547 1.4948 1.2 -8.89803 629562 1.49943e+06 5.08383e+06 -1.12567e+06 -1.02518e+06 -183681
87 2 Si 5.55495 16.2705 1.4948 2.4 -35.1695 9.35682e+06 1.00654e+07 1.28683e+07 496625 717828 -2.32591e+06
88 3 O 5.6115 17.8838 1.4948 -1.2 -4.68039 -2.25867e+06 -266183 -3.26678e+07 93921.7 -6.00168e+06 -4.13253e+06
89 3 O 1.93416 15.2965 1.4948 -1.2 -9.12771 -5.05474e+06 -790046 -2.02192e+06 1.53644e+06 -1.38029e+06 -1.08189e+06
90 3 O 4.85636 15.5644 0.196716 -1.2 -3.16527 -194760 -1.25139e+07 -3.1089e+07 -3.02524e+06 -5.08924e+06 -3.84845e+06
91 1 Mg 6.44662 14.247 2.9896 1.2 -8.47536 5.04976e+06 -2.66466e+06 760616 1.28365e+06 -1.20041e+06 1.98767e+06
92 3 O 4.81537 15.5644 2.79288 -1.2 -8.3803 -2.61659e+06 -2.96616e+06 -2.98835e+06 1.10478e+06 22980.4 -1.18066e+06
93 1 Mg -0.948271 14.2883 4.4844 1.2 -9.25163 -5568.61 1.37165e+06 4.2818e+06 -500861 -306198 -134021
94 2 Si -2.75928 16.9724 4.4844 2.4 -33.6407 1.29653e+07 7.5481e+06 9.54496e+06 -2961.13 -21616.7 -883790
95 3 O -2.81617 15.3592 4.4844 -1.2 -8.96221 -4.8154e+06 864284 -4.70008e+06 260545 -182901 312916
96 3 O 0.862762 17.9465 4.4844 -1.2 -8.84264 -3.84346e+06 -2.32187e+06 -3.74635e+06 2.10997e+06 -620162 249893
97 3 O -2.0185 17.6786 3.18632 -1.2 -8.66439 -3.61387e+06 -2.94666e+06 -1.12317e+06 1.13732e+06 -208778 -1.32645e+06
98 3 O -2.06164 17.6786 5.78248 -1.2 -8.70681 -3.6574e+06 -3.20652e+06 -1.86912e+06 1.00515e+06 -245716 2.06029e+06
99 1 Mg 1.39817 16.6215 2.9896 1.2 -8.45082 4.9312e+06 -2.21585e+06 368500 -1.14675e+06 -1.1954e+06 -1.77874e+06
100 1 Mg 4.20062 16.5802 4.4844 1.2 -9.13103 -35739.3 1.82352e+06 3.76505e+06 1.03792e+06 -410740 -233348
101 2 Si 2.37796 18.645 4.4844 2.4 -33.6522 1.20156e+07 8.48124e+06 9.54555e+06 696185 -147791 -180219
102 3 O 2.39434 20.2583 4.4844 -1.2 -9.09065 -4.2468e+06 -130813 -4.1879e+06 473323 -115927 -158927
103 3 O -4.24274 17.671 4.4844 -1.2 -8.95137 -4.22056e+06 -2.08841e+06 -3.38925e+06 -1.34468e+06 -336740 308315
104 3 O 3.08659 17.9389 3.18632 -1.2 -8.66898 -3.42848e+06 -3.12395e+06 -1.31335e+06 -920179 -4887.57 1.38724e+06
105 1 Mg 1.44478 16.6215 0 1.2 -6.10127 5.22565e+06 -422278 -6.13421e+06 1.39481e+06 -29337.9 947332
106 3 O 3.0436 17.9389 5.78248 -1.2 -8.56266 -3.14182e+06 -3.54137e+06 -2.46824e+06 -847795 -6807.23 -867626
107 1 Mg -1.40524 16.6628 1.4948 1.2 -8.87253 1.06978e+06 1.22631e+06 5.12877e+06 1.7072e+06 -932101 326349
108 2 Si 0.420358 14.5979 1.4948 2.4 -35.2252 9.28107e+06 9.92141e+06 1.31153e+07 -114013 610282 2.66932e+06
109 3 O 0.408732 12.9847 1.4948 -1.2 -4.28705 -1.34163e+06 121616 -3.59679e+07 219046 -2.57903e+06 4.00651e+06
110 3 O 7.03923 15.572 1.4948 -1.2 -9.17404 -5.19774e+06 -649354 -1.9133e+06 -946849 -1.30206e+06 1.01858e+06
111 3 O -0.248332 15.3041 0.196716 -1.2 -3.264 -520357 -1.20316e+07 -3.11408e+07 3.24719e+06 -5.45054e+06 3.88291e+06
112 3 O -0.289436 15.3041 2.79288 -1.2 -8.4026 -2.61634e+06 -3.03262e+06 -3.04222e+06 -887942 6985.38 1.15554e+06
113 1 Mg 6.59566 18.996 0 1.2 -6.06961 5.41305e+06 96793.4 -6.10504e+06 -924309 -704914 -811358
114 1 Mg 3.85574 23.7037 1.4948 1.2 -8.94019 266609 1.74634e+06 5.12761e+06 -1.17583e+06 -951874 328976
115 2 Si 5.66125 21.0195 1.4948 2.4 -34.9613 9.62432e+06 1.02442e+07 1.21505e+07 169726 1.09861e+06 -1.71477e+06
116 3 O 5.72074 22.6328 1.4948 -1.2 -5.33144 -3.85056e+06 -291636 -2.7666e+07 -214830 -8.45144e+06 -4.16141e+06
117 3 O 2.03867 20.0455 1.4948 -1.2 -9.21731 -4.92209e+06 -898814 -1.69915e+06 1.56196e+06 -1.16002e+06 -1.16642e+06
118 3 O 4.96004 20.3134 0.196716 -1.2 -3.52287 -868521 -1.41241e+07 -2.70458e+07 -3.17423e+06 -7.89569e+06 -2.96044e+06
119 1 Mg 6.55057 18.996 2.9896 1.2 -8.31656 5.01285e+06 -1.99261e+06 -128450 1.28352e+06 -1.25563e+06 1.98184e+06
120 3 O 4.92172 20.3134 2.79288 -1.2 -8.48096 -2.4381e+06 -3.54096e+06 -2.46653e+06 1.0855e+06 41202.2 -1.4782e+06
121 1 Mg -0.84282 19.0373 4.4844 1.2 -9.01589 -371316 2.3291e+06 3.30384e+06 -469101 -23743.5 -109981
122 2 Si -2.64823 21.7214 4.4844 2.4 -33.3696 1.27904e+07 8.44046e+06 8.39971e+06 -134033 -48596.2 1.09276e+06
123 3 O -2.70847 20.1082 4.4844 -1.2 -9.22177 -4.66125e+06 -43960.6 -3.52945e+06 340795 -202420 -175924
124 3 O 0.97581 22.6955 4.4844 -1.2 -8.89903 -3.80615e+06 -2.50112e+06 -3.51195e+06 2.1912e+06 -615998 -485935
125 3 O -1.9076 22.4276 3.18632 -1.2 -8.72008 -3.5299e+06 -3.14837e+06 -952269 1.20511e+06 -112720 -2.01076e+06
126 3 O -1.9475 22.4276 5.78248 -1.2 -8.77805 -3.6223e+06 -3.37275e+06 -1.65851e+06 1.34795e+06 -157829 632869
127 1 Mg 1.50678 21.3705 2.9896 1.2 -8.35502 4.83298e+06 -1.82503e+06 -77478.4 -1.14324e+06 -1.19674e+06 -1.29339e+06
128 1 Mg 4.31086 21.3292 4.4844 1.2 -9.00884 -321736 2.4449e+06 3.23722e+06 1.22927e+06 -502247 480978
129 2 Si 2.49243 23.394 4.4844 2.4 -33.6379 1.20476e+07 8.48558e+06 9.49178e+06 881784 -26985.3 1.27268e+06
130 3 O 2.51204 25.0073 4.4844 -1.2 -9.04552 -4.3967e+06 208610 -4.45365e+06 470128 -219272 -618456
131 3 O -4.13026 22.42 4.4844 -1.2 -9.0118 -4.1349e+06 -2.32343e+06 -3.13917e+06 -1.38734e+06 -290286 -720392
132 3 O 3.19799 22.6879 3.18632 -1.2 -8.70607 -3.29805e+06 -3.32776e+06 -1.23416e+06 -961991 61364.6 774295
133 1 Mg 1.5501 21.3705 0 1.2 -6.13665 6.03887e+06 1.22252e+06 -5.75711e+06 -55908 -955422 763453
134 3 O 3.1583 22.6879 5.78248 -1.2 -8.56793 -3.05172e+06 -3.87139e+06 -2.3514e+06 -1.05323e+06 -41216.2 -1.93675e+06
135 1 Mg -1.29822 21.4118 1.4948 1.2 -8.89003 757511 1.64717e+06 4.94384e+06 1.7977e+06 -893168 630879
136 2 Si 0.523568 19.3469 1.4948 2.4 -35.0469 9.34506e+06 1.04087e+07 1.23065e+07 332629 1.11202e+06 2.80526e+06
137 3 O 0.508934 17.7337 1.4948 -1.2 -4.65913 -2.25027e+06 -245482 -3.28657e+07 652568 -6.13214e+06 4.07741e+06
138 3 O 7.14425 20.321 1.4948 -1.2 -9.27682 -5.14348e+06 -758944 -1.50244e+06 -927486 -1.06104e+06 788910
139 3 O -0.145107 20.0531 0.196716 -1.2 -3.62048 -1.22887e+06 -1.37857e+07 -2.70713e+07 3.66922e+06 -8.24467e+06 2.8807e+06
140 3 O -0.183601 20.0531 2.79288 -1.2 -8.50668 -2.41696e+06 -3.62812e+06 -2.52753e+06 -851407 -131715 884873
141 1 Mg 6.70502 23.745 0 1.2 -6.11186 5.83842e+06 1.47394e+06 -5.45611e+06 413568 -1.51769e+06 -62637.7
142 1 Mg 3.97493 28.4527 1.4948 1.2 -8.97284 -143808 2.00186e+06 5.10219e+06 -1.22732e+06 -798018 146191
143 2 Si 5.77602 25.7685 1.4948 2.4 -34.7536 1.00787e+07 9.67874e+06 1.20164e+07 -116285 1.4114e+06 -1.23596e+06
144 3 O 5.83821 27.3818 1.4948 -1.2 -6.17415 -5.50003e+06 -191187 -2.15319e+07 -341728 -9.23012e+06 -3.48118e+06
145 3 O 2.15175 24.7945 1.4948 -1.2 -9.2764 -4.83382e+06 -731312 -1.72621e+06 1.60673e+06 -958073 -1.47034e+06
146 3 O 5.07184 25.0624 0.196716 -1.2 -4.21678 -2.01504e+06 -1.49017e+07 -2.13894e+07 -2.78892e+06 -9.38567e+06 -2.00882e+06
147 1 Mg 6.66374 23.745 2.9896 1.2 -8.2869 5.03308e+06 -2.04882e+06 -137002 1.28998e+06 -1.31931e+06 2.56924e+06
148 3 O 5.03707 25.0624 2.79288 -1.2 -8.4716 -2.40131e+06 -3.42317e+06 -2.67475e+06 1.08811e+06 -60197.2 -1.81814e+06
149 1 Mg -0.727559 23.7863 4.4844 1.2 -9.01797 -302425 2.11783e+06 3.44153e+06 -550564 -114191 613940
150 2 Si -2.5277 26.4704 4.4844 2.4 -33.523 1.2913e+07 7.63379e+06 9.32573e+06 15562.6 -354381 1.02199e+06
151 3 O -2.59107 24.8572 4.4844 -1.2 -9.13835 -4.70032e+06 393996 -4.05808e+06 408421 -32832.5 -661141
152 3 O 1.09817 27.4445 4.4844 -1.2 -8.87251 -4.00371e+06 -2.16977e+06 -3.70671e+06 2.25084e+06 -625783 -402842
153 3 O -1.78784 27.1766 3.18632 -1.2 -8.69923 -3.50638e+06 -2.99878e+06 -1.22198e+06 1.16183e+06 29180.7 -1.94472e+06
154 3 O -1.82343 27.1766 5.78248 -1.2 -8.70601 -3.72144e+06 -2.90651e+06 -1.90202e+06 1.14799e+06 7605.19 935153
155 1 Mg 1.62435 26.1195 2.9896 1.2 -8.33503 4.96461e+06 -1.99397e+06 -69206.1 -1.14344e+06 -1.20652e+06 -1.0968e+06
156 1 Mg 4.43064 26.0782 4.4844 1.2 -9.11707 -287142 2.01189e+06 3.81145e+06 1.20887e+06 -344285 624628
157 2 Si 2.61607 28.143 4.4844 2.4 -33.728 1.22259e+07 7.8543e+06 1.00836e+07 681851 127960 756230
158 3 O 2.63853 29.7563 4.4844 -1.2 -9.01606 -4.4707e+06 471923 -4.6976e+06 616053 -164401 -66177.9
159 3 O -4.00841 27.169 4.4844 -1.2 -8.92864 -4.18661e+06 -1.97049e+06 -3.58046e+06 -1.37488e+06 -206838 -490022
160 3 O 3.3182 27.4369 3.18632 -1.2 -8.68352 -3.27472e+06 -3.17161e+06 -1.52803e+06 -897119 89279.9 873687
161 1 Mg 1.66335 26.1195 0 1.2 -6.13051 5.75601e+06 2.01655e+06 -5.0586e+06 -898827 -1.53922e+06 754722
162 3 O 3.28288 27.4369 5.78248 -1.2 -8.43341 -3.16396e+06 -3.34504e+06 -2.86738e+06 -860339 -237224 -1.72177e+06
163 1 Mg -1.18278 26.1608 1.4948 1.2 -8.92986 390408 1.84212e+06 4.98759e+06 1.88236e+06 -815974 693479
164 2 Si 0.635424 24.0959 1.4948 2.4 -34.8477 9.77689e+06 1.00181e+07 1.20136e+07 747875 1.48032e+06 3.6171e+06
165 3 O 0.617906 22.4827 1.4948 -1.2 -5.31621 -3.8603e+06 -287723 -2.78196e+07 1.0091e+06 -8.59359e+06 3.20256e+06
166 3 O 7.25781 25.07 1.4948 -1.2 -9.33251 -5.03946e+06 -572353 -1.58422e+06 -927627 -801245 473657
167 3 O -0.0337363 24.8021 0.196716 -1.2 -4.30449 -2.37466e+06 -1.48538e+07 -2.13491e+07 3.50815e+06 -9.67709e+06 1.30705e+06
168 3 O -0.0687235 24.8021 2.79288 -1.2 -8.52694 -2.46118e+06 -3.55309e+06 -2.57961e+06 -827472 -158734 468227
169 1 Mg 6.82195 28.494 0 1.2 -6.13754 5.23136e+06 2.16798e+06 -4.62241e+06 1.15119e+06 -1.86564e+06 -183746
170 1 Mg 4.10106 33.2017 1.4948 1.2 -8.97252 -574323 2.42927e+06 4.76434e+06 -1.19825e+06 -521584 -468274
171 2 Si 5.89839 30.5175 1.4948 2.4 -34.4578 1.06593e+07 9.24585e+06 1.14778e+07 -304628 1.61614e+06 -2.15136e+06
172 3 O 5.96289 32.1308 1.4948 -1.2 -7.09137 -6.56037e+06 -252415 -1.52857e+07 -303850 -8.43955e+06 -2.20018e+06
173 3 O 2.27266 29.5435 1.4948 -1.2 -9.33049 -4.69065e+06 -691166 -1.77548e+06 1.6689e+06 -740222 -1.02772e+06
174 3 O 5.19102 29.8114 0.196716 -1.2 -5.14774 -3.24591e+06 -1.46575e+07 -1.5109e+07 -1.92626e+06 -9.26806e+06 -248976
175 1 Mg 6.78546 28.494 2.9896 1.2 -8.2688 5.07704e+06 -2.13775e+06 -115713 1.33969e+06 -1.38733e+06 2.24488e+06
176 3 O 5.16061 29.8114 2.79288 -1.2 -8.49968 -2.43198e+06 -3.40626e+06 -2.65733e+06 1.08511e+06 -142671 -1.28479e+06
177 1 Mg -0.603205 28.5353 4.4844 1.2 -9.05082 -265220 1.90952e+06 3.65543e+06 -482612 -118041 381896
178 2 Si -2.39877 31.2194 4.4844 2.4 -33.5972 1.27682e+07 7.44455e+06 9.78763e+06 109835 -80646.1 -321314
179 3 O -2.46483 29.6062 4.4844 -1.2 -9.10143 -4.69566e+06 524686 -4.24724e+06 322387 -73094.6 -212894
180 3 O 1.22864 32.1935 4.4844 -1.2 -8.88828 -3.99442e+06 -2.13248e+06 -3.73029e+06 2.32699e+06 -382153 585810
181 3 O -1.66032 31.9256 3.18632 -1.2 -8.70401 -3.3291e+06 -3.09182e+06 -1.37347e+06 1.17152e+06 76495.1 -1.19711e+06
182 3 O -1.69072 31.9256 5.78248 -1.2 -8.52019 -3.58991e+06 -2.68247e+06 -2.67249e+06 1.24426e+06 -153736 1.87687e+06
183 1 Mg 1.7499 30.8685 2.9896 1.2 -8.29603 4.99958e+06 -2.01657e+06 -137523 -1.17057e+06 -1.34229e+06 -1.71113e+06
184 1 Mg 4.55894 30.8272 4.4844 1.2 -9.10083 -194389 1.8656e+06 3.83822e+06 1.29383e+06 -323368 -163147
185 2 Si 2.7476 32.892 4.4844 2.4 -33.5319 1.23203e+07 8.17928e+06 9.34634e+06 793392 -125304 -1.40752e+06
186 3 O 2.77235 34.5053 4.4844 -1.2 -9.18916 -4.39264e+06 -119899 -3.92021e+06 543278 -95515.8 854479
187 3 O -3.87837 31.918 4.4844 -1.2 -8.95195 -4.20321e+06 -1.97252e+06 -3.52463e+06 -1.40519e+06 -325299 324111
188 3 O 3.44611 32.1859 3.18632 -1.2 -8.73182 -3.22746e+06 -3.31431e+06 -1.45054e+06 -894244 176991 1.67975e+06
189 1 Mg 1.7837 30.8685 0 1.2 -6.16781 4.63253e+06 2.36137e+06 -4.28076e+06 -1.35538e+06 -1.51904e+06 287626
190 3 O 3.41602 32.1859 5.78248 -1.2 -8.54026 -3.39363e+06 -3.14696e+06 -2.51882e+06 -964454 -145826 -356273
191 1 Mg -1.05984 30.9098 1.4948 1.2 -8.95368 -71038.9 2.15331e+06 4.87423e+06 1.90638e+06 -624815 59557.5
192 2 Si 0.755243 28.8449 1.4948 2.4 -34.588 1.03034e+07 9.52594e+06 1.16479e+07 1.12097e+06 1.69664e+06 2.94099e+06
193 3 O 0.735127 27.2317 1.4948 -1.2 -6.16667 -5.54889e+06 -189554 -2.16347e+07 1.17781e+06 -9.3793e+06 2.62615e+06
194 3 O 7.37914 29.819 1.4948 -1.2 -9.38689 -4.88503e+06 -564779 -1.62676e+06 -944528 -592545 909912
195 3 O 0.0850649 29.5511 0.196716 -1.2 -5.20858 -3.49301e+06 -1.50047e+07 -1.50643e+07 2.69212e+06 -9.4563e+06 339948
196 3 O 0.0543974 29.5511 2.79288 -1.2 -8.54785 -2.46799e+06 -3.51911e+06 -2.62657e+06 -813808 -194268 821855
197 1 Mg 6.94543 33.243 0 1.2 -6.20902 4.07306e+06 2.43644e+06 -3.94454e+06 1.59952e+06 -1.46305e+06 -1.03791e+06
198 1 Mg 4.23267 37.9507 1.4948 1.2 -8.96597 -948174 2.94617e+06 4.19629e+06 -1.11375e+06 -175488 -562718
199 2 Si 6.02709 35.2665 1.4948 2.4 -34.1152 1.11578e+07 9.25761e+06 1.04685e+07 -394779 1.59461e+06 -3.00073e+06
200 3 O 6.09339 36.8798 1.4948 -1.2 -7.91905 -6.71581e+06 -552492 -9.99686e+06 -145777 -6.60232e+06 -1.37414e+06
201 3 O 2.40018 34.2925 1.4948 -1.2 -9.38569 -4.51276e+06 -967128 -1.6414e+06 1.69802e+06 -544622 -379897
202 3 O 5.31645 34.5604 0.196716 -1.2 -6.1315 -4.20623e+06 -1.32714e+07 -9.52207e+06 -959157 -7.86458e+06 1.4408e+06
203 1 Mg 6.91449 33.243 2.9896 1.2 -8.19654 4.98042e+06 -1.87142e+06 -392904 1.31912e+06 -1.39662e+06 1.43686e+06
204 3 O 5.291 34.5604 2.79288 -1.2 -8.60138 -2.38054e+06 -3.82442e+06 -2.16392e+06 1.10419e+06 -277403 -585663
205 1 Mg -0.471101 33.2843 4.4844 1.2 -9.02264 -499907 2.13025e+06 3.61963e+06 -508029 -185286 -739793
206 2 Si -2.26307 35.9684 4.4844 2.4 -33.3205 1.20008e+07 9.2429e+06 8.31847e+06 13740.8 -313885 -1.73338e+06
207 3 O -2.33122 34.3552 4.4844 -1.2 -9.18296 -4.36291e+06 -21937.5 -3.89308e+06 455956 -25224 809944
208 3 O 1.36549 36.9425 4.4844 -1.2 -9.0697 -3.84847e+06 -3.036e+06 -2.69021e+06 2.27298e+06 -348481 906120
209 3 O -1.52658 36.6746 3.18632 -1.2 -8.7869 -3.06952e+06 -3.78875e+06 -896906 1.17153e+06 191399 -775471
210 3 O -1.55122 36.6746 5.78248 -1.2 -8.77924 -3.08623e+06 -3.95018e+06 -1.42802e+06 1.22933e+06 154590 2.49985e+06
211 1 Mg 1.882 35.6175 2.9896 1.2 -8.17401 4.91932e+06 -1.43752e+06 -821702 -1.11071e+06 -1.4512e+06 -2.25667e+06
212 1 Mg 4.69415 35.5762 4.4844 1.2 -8.93204 -421777 2.64485e+06 3.01656e+06 1.26586e+06 -98706.4 -815801
213 2 Si 2.88522 37.641 4.4844 2.4 -33.248 1.19676e+07 9.80438e+06 7.62382e+06 840349 73650.3 -1.57573e+06
214 3 O 2.91159 39.2543 4.4844 -1.2 -9.25541 -4.31144e+06 -754809 -3.24504e+06 596167 -162828 664015
215 3 O -3.74183 36.667 4.4844 -1.2 -9.09064 -3.84683e+06 -2.88839e+06 -2.73908e+06 -1.30262e+06 -268979 780580
216 3 O 3.58014 36.9349 3.18632 -1.2 -8.82389 -3.03663e+06 -3.97058e+06 -942202 -880012 162980 1.93104e+06
217 1 Mg 1.90997 35.6175 0 1.2 -6.25392 3.31038e+06 2.45527e+06 -3.89312e+06 -1.66939e+06 -731617 294350
218 3 O 3.55582 36.9349 5.78248 -1.2 -8.80311 -3.04391e+06 -4.19845e+06 -1.32567e+06 -984790 -222457 -196228
219 1 Mg -0.93068 35.6588 1.4948 1.2 -8.94583 -534177 2.69031e+06 4.39575e+06 1.84711e+06 -361048 -506825
220 2 Si 0.881882 33.5939 1.4948 2.4 -34.2666 1.07976e+07 9.34492e+06 1.08908e+07 1.38446e+06 1.63403e+06 1.3272e+06
221 3 O 0.859602 31.9807 1.4948 -1.2 -7.07883 -6.58863e+06 -229440 -1.54444e+07 1.17356e+06 -8.48695e+06 2.69602e+06
222 3 O 7.507 34.568 1.4948 -1.2 -9.43601 -4.66828e+06 -871125 -1.5249e+06 -935540 -394311 1.56026e+06
223 3 O 0.210186 34.3001 0.196716 -1.2 -6.1525 -4.28321e+06 -1.39782e+07 -9.55376e+06 1.53989e+06 -7.91618e+06 -211347
224 3 O 0.184454 34.3001 2.79288 -1.2 -8.64055 -2.39131e+06 -3.91428e+06 -2.20636e+06 -824550 -164962 1.57615e+06
225 1 Mg 7.07415 37.992 0 1.2 -6.31194 2.86176e+06 2.48198e+06 -3.76307e+06 1.86796e+06 -463538 -1.76894e+06
226 1 Mg 4.36817 42.6997 1.4948 1.2 -8.95071 -1.16253e+06 3.29377e+06 3.65673e+06 -998980 153222 -336993
227 2 Si 6.16058 40.0155 1.4948 2.4 -33.8654 1.16151e+07 9.1536e+06 9.72247e+06 -362818 1.31461e+06 -2.59033e+06
228 3 O 6.22815 41.6288 1.4948 -1.2 -8.53685 -6.20991e+06 -738245 -6.41749e+06 27578.5 -4.52129e+06 -1.18019e+06
229 3 O 2.53282 39.0415 1.4948 -1.2 -9.39108 -4.37311e+06 -1.35582e+06 -1.54296e+06 1.71436e+06 -391790 -400763
230 3 O 5.44674 39.3094 0.196716 -1.2 -7.01369 -4.64174e+06 -1.10514e+07 -5.45257e+06 -152336 -5.79004e+06 2.28652e+06
231 1 Mg 7.04922 37.992 2.9896 1.2 -8.11639 4.83242e+06 -1.27153e+06 -962169 1.29691e+06 -1.52503e+06 1.30458e+06
232 3 O 5.42658 39.3094 2.79288 -1.2 -8.66259 -2.38578e+06 -4.22716e+06 -1.68315e+06 1.12322e+06 -314463 -643131
233 1 Mg -0.333062 38.0333 4.4844 1.2 -8.88994 -644212 3.00856e+06 2.66994e+06 -449635 -204138 -755840
234 2 Si -2.12255 40.7174 4.4844 2.4 -33.3372 1.19085e+07 1.01608e+07 7.53275e+06 173172 -357568 -1.01909e+06
235 3 O -2.19212 39.1042 4.4844 -1.2 -9.24671 -4.20839e+06 -762495 -3.18375e+06 427557 89557.5 639775
236 3 O 1.50676 41.6915 4.4844 -1.2 -9.06352 -3.90525e+06 -3.36141e+06 -2.30458e+06 2.31695e+06 -256353 494119
237 3 O -1.3884 41.4236 3.18632 -1.2 -8.78326 -2.96275e+06 -4.10776e+06 -789207 1.13592e+06 205257 -1.01624e+06
238 3 O -1.40713 41.4236 5.78248 -1.2 -8.65947 -3.13966e+06 -4.39905e+06 -1.16454e+06 1.16149e+06 224999 1.90588e+06
239 1 Mg 2.01892 40.3665 2.9896 1.2 -8.13573 4.90427e+06 -1.05328e+06 -1.23892e+06 -1.10648e+06 -1.54346e+06 -2.03053e+06
240 1 Mg 4.83434 40.3252 4.4844 1.2 -8.92514 -475839 3.12663e+06 2.58132e+06 1.24112e+06 -21111.8 -583123
241 2 Si 3.02698 42.39 4.4844 2.4 -33.2573 1.19589e+07 1.03583e+07 7.10169e+06 697432 17451.6 -910409
242 3 O 3.05433 44.0033 4.4844 -1.2 -9.29602 -4.20826e+06 -981522 -3.05529e+06 626118 -62820.9 413110
243 3 O -3.60077 41.416 4.4844 -1.2 -9.08183 -3.87068e+06 -3.2395e+06 -2.36853e+06 -1.34651e+06 -225606 481294
244 3 O 3.71851 41.6839 3.18632 -1.2 -8.82891 -2.95363e+06 -4.2787e+06 -814595 -831236 177822 1.67535e+06
245 1 Mg 2.04077 40.3665 0 1.2 -6.33338 2.33459e+06 2.43732e+06 -4.19325e+06 -1.82728e+06 461904 1.18141e+06
246 3 O 3.70011 41.6839 5.78248 -1.2 -8.72405 -3.08638e+06 -4.61765e+06 -1.09888e+06 -801789 -243139 -620634
247 1 Mg -0.796865 40.4078 1.4948 1.2 -8.94542 -805447 3.0911e+06 3.87392e+06 1.74564e+06 -3089.09 -388903
248 2 Si 1.01387 38.3429 1.4948 2.4 -33.9693 1.13294e+07 9.36256e+06 9.90063e+06 1.52461e+06 1.4702e+06 925011
249 3 O 0.989947 36.7297 1.4948 -1.2 -7.91085 -6.76441e+06 -533237 -1.01331e+07 1.04238e+06 -6.63848e+06 2.51869e+06
250 3 O 7.63988 39.317 1.4948 -1.2 -9.43231 -4.4883e+06 -1.26783e+06 -1.48651e+06 -927780 -214389 1.56346e+06
251 3 O 0.340253 39.0491 0.196716 -1.2 -7.01185 -4.65438e+06 -1.19711e+07 -5.47866e+06 390806 -5.84145e+06 -1.07931e+06
252 3 O 0.319795 39.0491 2.79288 -1.2 -8.71635 -2.4319e+06 -4.36471e+06 -1.62899e+06 -845089 -177760 1.46903e+06
253 1 Mg 7.20667 42.741 0 1.2 -6.37449 2.00377e+06 2.53282e+06 -4.31946e+06 1.99736e+06 896067 -2.38479e+06
254 1 Mg 4.50613 47.4487 1.4948 1.2 -8.83504 -1.29925e+06 3.81629e+06 2.8824e+06 -854614 443644 33134.2
255 2 Si 6.29731 44.7645 1.4948 2.4 -33.5947 1.18217e+07 9.24893e+06 8.9637e+06 -225293 906561 -1.92215e+06
256 3 O 6.36567 46.3778 1.4948 -1.2 -9.025 -5.2937e+06 -1.13466e+06 -4.05494e+06 177371 -2.69472e+06 -1.22243e+06
257 3 O 2.669 43.7905 1.4948 -1.2 -9.375 -4.20418e+06 -1.79605e+06 -1.56722e+06 1.72789e+06 -227793 -629737
258 3 O 5.58048 44.0584 0.196716 -1.2 -7.7484 -4.52396e+06 -8.70132e+06 -2.77863e+06 310422 -3.72525e+06 2.57851e+06
259 1 Mg 7.1879 42.741 2.9896 1.2 -8.08895 4.78004e+06 -1.00604e+06 -1.20593e+06 1.29391e+06 -1.59912e+06 1.49544e+06
260 3 O 5.56564 44.0584 2.79288 -1.2 -8.7392 -2.44745e+06 -4.45939e+06 -1.29315e+06 1.1383e+06 -306834 -819656
261 1 Mg -0.19105 42.7823 4.4844 1.2 -8.91202 -650934 3.21563e+06 2.50426e+06 -388848 -163802 -426669
262 2 Si -1.97909 45.4664 4.4844 2.4 -33.0904 1.14966e+07 1.09399e+07 6.76625e+06 147444 -283006 -851192
263 3 O -2.04947 43.8532 4.4844 -1.2 -9.27023 -4.12012e+06 -985954 -3.01123e+06 427981 63612.9 475091
264 3 O 1.65063 46.4405 4.4844 -1.2 -9.22245 -3.56797e+06 -3.86146e+06 -1.89844e+06 2.3203e+06 -195347 349152
265 3 O -1.24745 46.1726 3.18632 -1.2 -8.88217 -2.71602e+06 -4.58048e+06 -512812 1.13107e+06 139940 -1.19355e+06
266 3 O -1.26044 46.1726 5.78248 -1.2 -8.92323 -2.84441e+06 -4.90274e+06 -297929 1.16432e+06 199659 1.87227e+06
267 1 Mg 2.15896 45.1155 2.9896 1.2 -8.06191 4.73421e+06 -689584 -1.53514e+06 -1.08009e+06 -1.66787e+06 -1.84468e+06
268 1 Mg 4.97763 45.0742 4.4844 1.2 -8.80497 -568383 3.40242e+06 2.20303e+06 1.23247e+06 -25604.5 -417772
269 2 Si 3.1711 47.139 4.4844 2.4 -32.867 1.12213e+07 1.15092e+07 6.05799e+06 720642 -90535.1 -485209