ITEM: TIMESTEP
14200
ITEM: NUMBER OF ATOMS
10500
ITEM: BOX BOUNDS xy xz yz pp pp pp
0.0000000000000000e+00 1.5297450000000000e+01 5.0990000000000002e+00
0.0000000000000000e+00 1.1872499999999999e+02 0.0000000000000000e+00
0.0000000000000000e+00 8.9688000000000002e+01 0.0000000000000000e+00
ITEM: ATOMS id type element xu yu zu q c_pe c_s[1] c_s[2] c_s[3] c_s[4] c_s[5] c_s[6]
1 1 Mg 6.2404 -6.37941e-06 0 1.2 -4.57327 8.10633e+06 -1.35947e+06 -6.68064e+06 -12490.7 2.54281e+06 -939773
2 1 Mg 3.46349 4.70768 1.4948 1.2 -8.7017 35994.1 3.37977e+06 3.62198e+06 -947662 -623968 -559744
3 2 Si 5.2885 2.02354 1.4948 2.4 -35.6417 1.06005e+07 1.21337e+07 1.01626e+07 8.86718e+06 605101 -4.49248e+06
4 3 O 5.33628 3.63678 1.4948 -1.2 -4.51318 -1.15469e+06 -2.07361e+06 -3.30387e+07 -335747 3.8519e+06 -3.20642e+06
5 3 O 1.67294 1.04952 1.4948 -1.2 -0.865145 -2.06251e+07 -8.0007e+07 -1.50719e+06 -2.41248e+07 -178489 637241
6 3 O 4.59532 1.31737 0.196716 -1.2 -2.86711 -2.24328e+06 -7.17605e+06 -2.99663e+07 -6.02723e+06 6.28615e+06 -1.94361e+06
7 1 Mg 6.18956 -6.37941e-06 2.9896 1.2 -5.15007 1.87842e+06 -2.75605e+07 -3.61101e+06 -8.83862e+06 2.38167e+06 3.32145e+06
8 3 O 4.55118 1.31737 2.79288 -1.2 -7.28064 -160277 -5.34022e+06 -2.57237e+06 -2.96557e+06 -3.38761e+06 -398546
9 1 Mg -1.20682 0.0413099 4.4844 1.2 8.69844 -3.02397e+07 -9.27162e+07 -1.10595e+06 -2.854e+07 -1.2641e+06 -516333
10 2 Si -3.0337 2.72544 4.4844 2.4 -33.6173 1.51846e+07 8.17901e+06 6.87205e+06 1.72272e+06 -67381.9 -1.99452e+06
11 3 O -3.08099 1.11221 4.4844 -1.2 -9.36192 -6.58869e+06 -597563 -1.50917e+06 -1.23592e+06 -99643.7 901864
12 3 O 0.582463 3.69946 4.4844 -1.2 -8.72262 -3.6973e+06 -6.11428e+06 -2.17214e+06 -534469 -205260 548972
13 3 O -2.29524 3.43162 3.18632 -1.2 -8.83563 -4.60368e+06 -3.14522e+06 69922.8 1.06147e+06 -797376 -257004
14 3 O -2.34216 3.43162 5.78248 -1.2 -8.59928 -4.35253e+06 -3.70722e+06 -1.05354e+06 672386 675947 1.98565e+06
15 1 Mg 1.12778 2.37449 2.9896 1.2 -7.8226 5.54751e+06 -1.00833e+06 -1.32611e+06 -3.29789e+06 -4.13197e+06 -2.92903e+06
16 1 Mg 3.92855 2.33318 4.4844 1.2 -8.74957 -3.85088e+06 5.58466e+06 4.31283e+06 1.35943e+06 332958 -205634
17 2 Si 2.09341 4.39804 4.4844 2.4 -32.9185 1.27308e+07 8.16171e+06 7.78115e+06 29316.2 -154166 -901080
18 3 O 2.09991 6.01128 4.4844 -1.2 -9.22505 -4.34659e+06 -753410 -3.26611e+06 606288 -133021 641910
19 3 O -4.52137 3.42402 4.4844 -1.2 -8.91737 -3.287e+06 -3.50274e+06 -3.00866e+06 -2.45684e+06 -811335 812375
20 3 O 2.80834 3.69187 3.18632 -1.2 -9.09128 -2.46226e+06 -3.47665e+06 187997 493166 -517326 212272
21 1 Mg 1.17857 2.37449 0 1.2 -5.31098 -310849 -1.43229e+07 -6.94061e+06 6.5189e+06 1.2752e+06 3.90819e+06
22 3 O 2.76143 3.69187 5.78248 -1.2 -8.99613 -3.11735e+06 -3.05952e+06 -995991 691546 -84386.5 701788
23 1 Mg -1.67381 2.41581 1.4948 1.2 -7.77856 1.87252e+06 361443 3.49485e+06 1.36155e+06 -596681 327810
24 2 Si 0.16286 0.350945 1.4948 2.4 -24.9066 -7.61958e+06 1.35993e+07 1.02231e+07 1.57314e+06 2.92695e+06 -293055
25 3 O 0.15972 -1.26229 1.4948 -1.2 -4.6064 -1.0935e+07 -8.59562e+06 -2.83612e+07 -5.59264e+06 -8.58304e+06 -1.86912e+06
26 3 O 6.77654 1.32496 1.4948 -1.2 -10.1677 -6.02761e+06 1.20085e+06 -826960 -648569 -593444 1.79061e+06
27 3 O -0.508028 1.05712 0.196716 -1.2 -9.36117 -129383 -5.18098e+06 -221855 -551139 155188 -3.81877e+06
28 3 O -0.552171 1.05712 2.79288 -1.2 -6.59865 -5.70489e+06 -5.22685e+06 -2.39749e+07 1.42889e+06 -6.80159e+06 -4.81193e+06
29 1 Mg 6.31713 4.74899 0 1.2 -5.15712 725571 -1.22677e+07 -6.74758e+06 -7.30721e+06 1.37237e+06 -4.14287e+06
30 1 Mg 3.54847 9.45668 1.4948 1.2 -8.56936 674960 2.79596e+06 3.33342e+06 -952557 -929808 -896528
31 2 Si 5.36879 6.77254 1.4948 2.4 -34.7624 8.1131e+06 1.37215e+07 9.80912e+06 1.66548e+06 104593 -3.14634e+06
32 3 O 5.41937 8.38578 1.4948 -1.2 -4.52403 -745092 -1.91853e+06 -3.41906e+07 767191 1.1252e+06 -3.64638e+06
33 3 O 1.75158 5.79852 1.4948 -1.2 -9.26599 -4.36055e+06 -3.11698e+06 -689039 1.97921e+06 -1.61481e+06 -740637
34 3 O 4.67421 6.06637 0.196716 -1.2 -3.54431 -271993 -1.08779e+07 -3.06515e+07 -2.00226e+06 1.32547e+06 -3.93663e+06
35 1 Mg 6.26654 4.74899 2.9896 1.2 -8.25953 4.50978e+06 -983023 -723672 1.82798e+06 -865723 1.21714e+06
36 3 O 4.63043 6.06637 2.79288 -1.2 -8.61541 -2.01662e+06 -4.74203e+06 -1.39482e+06 939349 -87692.9 -756529
37 1 Mg -1.12976 4.79031 4.4844 1.2 -9.04174 -172321 3.41787e+06 2.10921e+06 -659586 -429617 -781181
38 2 Si -2.9517 7.47444 4.4844 2.4 -33.3196 1.21576e+07 1.04759e+07 6.90814e+06 91910.7 104596 -1.75197e+06
39 3 O -3.00198 5.86121 4.4844 -1.2 -9.19889 -4.42856e+06 -844710 -3.00154e+06 -4704.07 -262022 812974
40 3 O 0.666315 8.44846 4.4844 -1.2 -9.02431 -3.66602e+06 -3.54393e+06 -2.39654e+06 2.12612e+06 -475737 888956
41 3 O -2.21213 8.18062 3.18632 -1.2 -8.86215 -3.31953e+06 -4.30274e+06 281088 1.09941e+06 -335608 -696817
42 3 O -2.25864 8.18062 5.78248 -1.2 -8.7451 -3.35568e+06 -4.49967e+06 -833358 1.02183e+06 -200995 2.39337e+06
43 1 Mg 1.20893 7.12349 2.9896 1.2 -8.24351 4.47395e+06 -781750 -935142 -1.29575e+06 -1.33251e+06 -2.37596e+06
44 1 Mg 4.00982 7.08218 4.4844 1.2 -8.91138 -406014 3.3471e+06 2.25524e+06 997366 -330289 -699943
45 2 Si 2.17861 9.14704 4.4844 2.4 -33.2862 1.17623e+07 1.0973e+07 6.72578e+06 611503 -177037 -1.62304e+06
46 3 O 2.18828 10.7603 4.4844 -1.2 -9.29728 -4.13486e+06 -1.41814e+06 -2.67692e+06 411700 -164876 757393
47 3 O -4.43805 8.17302 4.4844 -1.2 -9.08751 -3.81357e+06 -3.50464e+06 -2.15591e+06 -1.52228e+06 -506955 820827
48 3 O 2.89193 8.44087 3.18632 -1.2 -8.8728 -3.15514e+06 -4.52776e+06 206999 -923709 -193055 2.00464e+06
49 1 Mg 1.25915 7.12349 0 1.2 -5.55775 1.34191e+06 -6.72406e+06 -7.16154e+06 5.89568e+06 1.42395e+06 2.13957e+06
50 3 O 2.84547 8.44087 5.78248 -1.2 -8.72019 -3.20928e+06 -4.72664e+06 -1.01851e+06 -871784 40720.9 -246456
51 1 Mg -1.59284 7.16481 1.4948 1.2 -8.48903 1.18323e+06 2.21569e+06 3.47535e+06 1.46484e+06 -909856 -259766
52 2 Si 0.240329 5.09994 1.4948 2.4 -34.5224 8.99285e+06 1.2329e+07 9.93798e+06 -1.96429e+06 -1.00656e+06 722290
53 3 O 0.234538 3.48671 1.4948 -1.2 -5.01223 -2.11228e+06 -210838 -3.31804e+07 401896 5.14885e+06 4.61364e+06
54 3 O 6.85564 6.07396 1.4948 -1.2 -9.34951 -4.79412e+06 -2.58382e+06 -617062 -1.35312e+06 -1.81365e+06 1.77264e+06
55 3 O -0.429565 5.80612 0.196716 -1.2 -3.78568 -1.00385e+06 -9.51025e+06 -3.0857e+07 1.84394e+06 1.16993e+06 5.06805e+06
56 3 O -0.473377 5.80612 2.79288 -1.2 -8.69686 -2.51758e+06 -4.27977e+06 -1.32564e+06 -785627 291633 1.97688e+06
57 1 Mg 6.40169 9.49799 0 1.2 -5.52867 1.98802e+06 -5.36449e+06 -7.70087e+06 -5.49644e+06 949413 -2.89235e+06
58 1 Mg 3.64209 14.2057 1.4948 1.2 -8.6961 667556 2.91929e+06 3.37964e+06 -1.02253e+06 -962303 -556234
59 2 Si 5.45748 11.5215 1.4948 2.4 -34.7598 8.40888e+06 1.40644e+07 9.14226e+06 895869 311804 -3.15495e+06
60 3 O 5.51101 13.1348 1.4948 -1.2 -4.52316 -961294 -2.04913e+06 -3.36649e+07 467636 -2.5287e+06 -3.96857e+06
61 3 O 1.83851 10.5475 1.4948 -1.2 -9.33147 -4.59923e+06 -3.00424e+06 -186302 1.5302e+06 -1.59561e+06 -535039
62 3 O 4.7611 10.8154 0.196716 -1.2 -3.36091 100192 -1.26147e+07 -3.08032e+07 -2.47073e+06 -1.74575e+06 -3.83277e+06
63 1 Mg 6.35203 9.49799 2.9896 1.2 -8.18486 4.49705e+06 -546231 -1.26963e+06 1.3095e+06 -1.18256e+06 1.29169e+06
64 3 O 4.71833 10.8154 2.79288 -1.2 -8.66541 -2.19768e+06 -4.95098e+06 -933639 1.04006e+06 53185.9 -691006
65 1 Mg -1.0438 9.53931 4.4844 1.2 -8.87445 -579674 3.57822e+06 2.0513e+06 -584866 -223553 -894225
66 2 Si -2.8604 12.2234 4.4844 2.4 -33.0995 1.17646e+07 1.15912e+07 5.83751e+06 -96711 37912 -967780
67 3 O -2.91391 10.6102 4.4844 -1.2 -9.32098 -4.22541e+06 -1.40557e+06 -2.4553e+06 244107 -245544 719435
68 3 O 0.7596 13.1975 4.4844 -1.2 -9.14277 -3.54703e+06 -4.0407e+06 -1.83857e+06 2.1624e+06 -482013 423677
69 3 O -2.12001 12.9296 3.18632 -1.2 -8.87845 -3.19763e+06 -4.72386e+06 601268 1.18093e+06 -233031 -1.12423e+06
70 3 O -2.16532 12.9296 5.78248 -1.2 -8.93123 -2.88448e+06 -5.16147e+06 -449407 1.19757e+06 -200990 1.72046e+06
71 1 Mg 1.29891 11.8725 2.9896 1.2 -8.19828 4.4792e+06 -315010 -1.4828e+06 -1.17437e+06 -1.21349e+06 -2.24655e+06
72 1 Mg 4.10033 11.8312 4.4844 1.2 -8.81285 -510390 3.83474e+06 1.71837e+06 1.16362e+06 -366019 -522001
73 2 Si 2.27333 13.896 4.4844 2.4 -33.106 1.16903e+07 1.16485e+07 5.82666e+06 715401 -56299 -453490
74 3 O 2.28634 15.5093 4.4844 -1.2 -9.2805 -4.29211e+06 -1.35601e+06 -2.61898e+06 423738 -191689 -86248
75 3 O -4.34533 12.922 4.4844 -1.2 -9.17961 -3.68792e+06 -3.95979e+06 -1.67732e+06 -1.49041e+06 -474593 313417
76 3 O 2.98455 13.1899 3.18632 -1.2 -8.89866 -3.17783e+06 -4.83468e+06 554440 -980085 -154046 1.67616e+06
77 1 Mg 1.34779 11.8725 0 1.2 -5.81219 3.26403e+06 -1.65199e+06 -7.84918e+06 3.57984e+06 840103 1.17928e+06
78 3 O 2.93934 13.1899 5.78248 -1.2 -8.96165 -2.83956e+06 -5.29062e+06 -392675 -949209 -124570 -745999
79 1 Mg -1.50344 11.9138 1.4948 1.2 -8.59337 900884 2.90581e+06 3.21853e+06 1.54943e+06 -944189 -62412.5
80 2 Si 0.326006 9.84894 1.4948 2.4 -34.7193 8.33511e+06 1.39e+07 9.28805e+06 -605587 151555 1.129e+06
81 3 O 0.317364 8.23571 1.4948 -1.2 -4.5187 -814579 -1.76388e+06 -3.44134e+07 -124541 1.15689e+06 4.77899e+06
82 3 O 6.94307 10.823 1.4948 -1.2 -9.37091 -4.76096e+06 -2.84556e+06 -79879.9 -975610 -1.5167e+06 1.5866e+06
83 3 O -0.343122 10.5551 0.196716 -1.2 -3.45086 -108772 -1.20635e+07 -3.0966e+07 2.46397e+06 -2.06252e+06 4.94862e+06
84 3 O -0.385966 10.5551 2.79288 -1.2 -8.69465 -2.19711e+06 -4.97479e+06 -1.00921e+06 -847835 69604.8 1.77138e+06
85 1 Mg 6.49448 14.247 0 1.2 -5.85136 3.85858e+06 -960201 -7.88643e+06 -2.98132e+06 234495 -1.81762e+06
86 1 Mg 3.74457 18.9547 1.4948 1.2 -8.94772 711710 2.5169e+06 4.06388e+06 -1.1201e+06 -937959 24789.5
87 2 Si 5.55495 16.2705 1.4948 2.4 -34.9949 9.01079e+06 1.32268e+07 9.77336e+06 513312 800394 -2.25248e+06
88 3 O 5.6115 17.8838 1.4948 -1.2 -4.6783 -2.20991e+06 -1.48737e+06 -3.14986e+07 87945 -6.05969e+06 -4.33296e+06
89 3 O 1.93416 15.2965 1.4948 -1.2 -9.27352 -4.84436e+06 -2.57758e+06 -211215 1.52406e+06 -1.38806e+06 -905427
90 3 O 4.85636 15.5644 0.196716 -1.2 -3.23652 -79175.4 -1.41085e+07 -2.94958e+07 -3.02399e+06 -5.12717e+06 -3.57335e+06
91 1 Mg 6.44662 14.247 2.9896 1.2 -8.20058 4.57528e+06 -416673 -1.45317e+06 1.28282e+06 -1.18952e+06 1.83786e+06
92 3 O 4.81537 15.5644 2.79288 -1.2 -8.56958 -2.28372e+06 -4.85621e+06 -1.12702e+06 1.05843e+06 -38788.3 -1.30132e+06
93 1 Mg -0.948271 14.2883 4.4844 1.2 -8.82857 -701946 3.83289e+06 1.83723e+06 -600736 -319318 -147318
94 2 Si -2.75928 16.9724 4.4844 2.4 -33.4161 1.20926e+07 1.06568e+07 6.95173e+06 -148893 -207921 672565
95 3 O -2.81617 15.3592 4.4844 -1.2 -9.27453 -4.18671e+06 -1.35923e+06 -2.60844e+06 331018 -165001 -161406
96 3 O 0.862762 17.9465 4.4844 -1.2 -8.95949 -3.96883e+06 -3.42955e+06 -2.33149e+06 2.13096e+06 -476373 -297942
97 3 O -2.0185 17.6786 3.18632 -1.2 -8.70718 -3.44779e+06 -4.22682e+06 59512.1 1.18426e+06 -83997.7 -1.77644e+06
98 3 O -2.06164 17.6786 5.78248 -1.2 -8.70284 -3.27991e+06 -4.38258e+06 -1.08446e+06 1.25433e+06 98772.1 964912
99 1 Mg 1.39817 16.6215 2.9896 1.2 -8.30002 4.80679e+06 -644643 -1.31989e+06 -1.14829e+06 -1.21486e+06 -1.53122e+06
100 1 Mg 4.20062 16.5802 4.4844 1.2 -8.93666 -347458 3.50736e+06 2.08284e+06 1.19045e+06 -204088 370978
101 2 Si 2.37796 18.645 4.4844 2.4 -33.561 1.25345e+07 1.03033e+07 7.05466e+06 776360 112164 914391
102 3 O 2.39434 20.2583 4.4844 -1.2 -8.99514 -4.70746e+06 -659929 -3.36121e+06 492862 -269084 -564487
103 3 O -4.24274 17.671 4.4844 -1.2 -8.96813 -3.87212e+06 -3.37484e+06 -2.41593e+06 -1.39785e+06 -482647 -457065
104 3 O 3.08659 17.9389 3.18632 -1.2 -8.7198 -3.45203e+06 -4.3278e+06 -5178.62 -957916 -131141 989171
105 1 Mg 1.44478 16.6215 0 1.2 -6.08429 5.18808e+06 957163 -7.50329e+06 1.41003e+06 -44373.1 811244
106 3 O 3.0436 17.9389 5.78248 -1.2 -8.70909 -3.3949e+06 -4.58411e+06 -966903 -969521 -315880 -1.68178e+06
107 1 Mg -1.40524 16.6628 1.4948 1.2 -8.80051 951356 2.71283e+06 3.64528e+06 1.68523e+06 -994040 411213
108 2 Si 0.420358 14.5979 1.4948 2.4 -34.8713 8.73376e+06 1.37791e+07 9.23778e+06 -129298 568240 2.05916e+06
109 3 O 0.408732 12.9847 1.4948 -1.2 -4.51506 -969158 -2.04152e+06 -3.38122e+07 225323 -2.57033e+06 4.64262e+06
110 3 O 7.03923 15.572 1.4948 -1.2 -9.29941 -4.97032e+06 -2.38982e+06 -199515 -934024 -1.29416e+06 1.09025e+06
111 3 O -0.248332 15.3041 0.196716 -1.2 -3.34933 -381331 -1.36754e+07 -2.94997e+07 3.24614e+06 -5.41473e+06 4.19468e+06
112 3 O -0.289436 15.3041 2.79288 -1.2 -8.62014 -2.29236e+06 -4.96758e+06 -1.08434e+06 -844386 60463.3 1.13206e+06
113 1 Mg 6.59566 18.996 0 1.2 -6.13913 5.53117e+06 1.13266e+06 -7.1476e+06 -923590 -677260 -714123
114 1 Mg 3.85574 23.7037 1.4948 1.2 -9.15583 635157 2.29115e+06 4.55975e+06 -1.19521e+06 -903904 104497
115 2 Si 5.66125 21.0195 1.4948 2.4 -35.254 9.98955e+06 1.1713e+07 1.07853e+07 171941 1.21256e+06 -1.56339e+06
116 3 O 5.72074 22.6328 1.4948 -1.2 -5.13508 -4.13357e+06 -896569 -2.70928e+07 -218046 -8.49882e+06 -4.04911e+06
117 3 O 2.03867 20.0455 1.4948 -1.2 -9.12539 -5.12569e+06 -1.752e+06 -790446 1.56787e+06 -1.17822e+06 -1.34223e+06
118 3 O 4.96004 20.3134 0.196716 -1.2 -3.41002 -1.0312e+06 -1.50169e+07 -2.6171e+07 -3.17873e+06 -7.96534e+06 -3.04206e+06
119 1 Mg 6.55057 18.996 2.9896 1.2 -8.38806 4.94152e+06 -1.04373e+06 -891448 1.28313e+06 -1.23874e+06 2.36106e+06
120 3 O 4.92172 20.3134 2.79288 -1.2 -8.34529 -2.57898e+06 -4.25434e+06 -1.83056e+06 1.09877e+06 -97695.7 -1.70113e+06
121 1 Mg -0.84282 19.0373 4.4844 1.2 -9.05132 -244168 3.11865e+06 2.44137e+06 -511345 -379658 372907
122 2 Si -2.64823 21.7214 4.4844 2.4 -33.9632 1.31447e+07 9.31657e+06 8.11395e+06 78214.1 -374476 1.03962e+06
123 3 O -2.70847 20.1082 4.4844 -1.2 -9.0096 -4.62345e+06 -643226 -3.30674e+06 325408 -6434.98 -494841
124 3 O 0.97581 22.6955 4.4844 -1.2 -8.63684 -4.43788e+06 -2.75354e+06 -3.0581e+06 2.22486e+06 -552968 -494924
125 3 O -1.9076 22.4276 3.18632 -1.2 -8.47853 -3.82679e+06 -3.63751e+06 -555849 1.13612e+06 -12680.3 -1.95408e+06
126 3 O -1.9475 22.4276 5.78248 -1.2 -8.37301 -3.99692e+06 -3.69709e+06 -1.46153e+06 1.00739e+06 141632 821874
127 1 Mg 1.50678 21.3705 2.9896 1.2 -8.51117 5.23351e+06 -1.27386e+06 -779163 -1.16025e+06 -1.19876e+06 -1.13993e+06
128 1 Mg 4.31086 21.3292 4.4844 1.2 -9.24798 52602.4 2.8139e+06 2.87506e+06 1.12265e+06 -226660 620839
129 2 Si 2.49243 23.394 4.4844 2.4 -34.2237 1.33768e+07 8.91493e+06 8.66786e+06 619286 38586.7 849842
130 3 O 2.51204 25.0073 4.4844 -1.2 -8.73191 -5.07738e+06 -106358 -3.96089e+06 573243 -143705 -117025
131 3 O -4.13026 22.42 4.4844 -1.2 -8.68289 -4.41565e+06 -2.69243e+06 -3.01438e+06 -1.38882e+06 -379837 -513447
132 3 O 3.19799 22.6879 3.18632 -1.2 -8.4775 -3.75311e+06 -3.7354e+06 -740450 -896657 -20839.1 856662
133 1 Mg 1.5501 21.3705 0 1.2 -6.27495 6.25312e+06 2.05034e+06 -6.57761e+06 -69553.1 -972703 772387
134 3 O 3.1583 22.6879 5.78248 -1.2 -8.22046 -3.87282e+06 -3.84239e+06 -2.07369e+06 -830595 -220112 -1.70783e+06
135 1 Mg -1.29822 21.4118 1.4948 1.2 -9.04328 997234 2.35017e+06 4.24663e+06 1.8146e+06 -971278 680380
136 2 Si 0.523568 19.3469 1.4948 2.4 -35.165 9.65236e+06 1.23249e+07 1.02721e+07 327414 987980 3.20389e+06
137 3 O 0.508934 17.7337 1.4948 -1.2 -4.68033 -2.26626e+06 -1.49581e+06 -3.1566e+07 658164 -6.07622e+06 3.91491e+06
138 3 O 7.14425 20.321 1.4948 -1.2 -9.15823 -5.27509e+06 -1.57728e+06 -742890 -935794 -1.04232e+06 649063
139 3 O -0.145107 20.0531 0.196716 -1.2 -3.52292 -1.40566e+06 -1.47112e+07 -2.61261e+07 3.67419e+06 -8.17297e+06 2.78765e+06
140 3 O -0.183601 20.0531 2.79288 -1.2 -8.41435 -2.65228e+06 -4.39435e+06 -1.67805e+06 -860071 3880.81 622854
141 1 Mg 6.70502 23.745 0 1.2 -6.30161 6.1579e+06 2.12756e+06 -6.12515e+06 423768 -1.50791e+06 -306537
142 1 Mg 3.97493 28.4527 1.4948 1.2 -9.22757 302583 2.57386e+06 4.49192e+06 -1.22041e+06 -777020 -153636
143 2 Si 5.77602 25.7685 1.4948 2.4 -35.2474 1.08791e+07 1.07541e+07 1.09316e+07 -104085 1.51596e+06 -2.0268e+06
144 3 O 5.83821 27.3818 1.4948 -1.2 -5.9179 -5.91331e+06 -749880 -2.09702e+07 -342348 -9.28448e+06 -3.08972e+06
145 3 O 2.15175 24.7945 1.4948 -1.2 -9.04243 -5.23844e+06 -1.24218e+06 -1.18564e+06 1.6241e+06 -943625 -1.15635e+06
146 3 O 5.07184 25.0624 0.196716 -1.2 -4.00077 -2.37882e+06 -1.54845e+07 -2.07884e+07 -2.78962e+06 -9.43405e+06 -1.65537e+06
147 1 Mg 6.66374 23.745 2.9896 1.2 -8.55914 5.38258e+06 -1.57934e+06 -519856 1.32907e+06 -1.28168e+06 2.28582e+06
148 3 O 5.03707 25.0624 2.79288 -1.2 -8.20486 -2.85793e+06 -3.90763e+06 -2.16058e+06 1.08912e+06 -130430 -1.39831e+06
149 1 Mg -0.727559 23.7863 4.4844 1.2 -9.3618 184745 2.4565e+06 3.16624e+06 -461174 -231733 402720
150 2 Si -2.5277 26.4704 4.4844 2.4 -34.2353 1.36598e+07 8.93862e+06 8.4219e+06 48956 -84149 -90391.5
151 3 O -2.59107 24.8572 4.4844 -1.2 -8.76976 -5.11909e+06 -88073.1 -3.73739e+06 298731 -109838 -178720
152 3 O 1.09817 27.4445 4.4844 -1.2 -8.59271 -4.47161e+06 -2.86063e+06 -2.99023e+06 2.24344e+06 -426848 229684
153 3 O -1.78784 27.1766 3.18632 -1.2 -8.40505 -3.85455e+06 -3.62635e+06 -713387 1.17049e+06 18441 -1.46756e+06
154 3 O -1.82343 27.1766 5.78248 -1.2 -8.24515 -4.02219e+06 -3.78311e+06 -1.56355e+06 1.26463e+06 -125722 1.60359e+06
155 1 Mg 1.62435 26.1195 2.9896 1.2 -8.60774 5.4533e+06 -1.50289e+06 -611983 -1.16405e+06 -1.29315e+06 -1.55664e+06
156 1 Mg 4.43064 26.0782 4.4844 1.2 -9.3996 357292 2.54962e+06 3.08139e+06 1.21514e+06 -277157 -22101
157 2 Si 2.61607 28.143 4.4844 2.4 -34.1394 1.33234e+07 9.51446e+06 7.98094e+06 779435 -103126 -346842
158 3 O 2.63853 29.7563 4.4844 -1.2 -8.85544 -4.89625e+06 -626388 -3.43571e+06 559550 -117412 118625
159 3 O -4.00841 27.169 4.4844 -1.2 -8.63295 -4.62725e+06 -2.7211e+06 -2.85831e+06 -1.38841e+06 -408719 48129.3
160 3 O 3.3182 27.4369 3.18632 -1.2 -8.43649 -3.79858e+06 -3.81414e+06 -758794 -906413 100759 1.34963e+06
161 1 Mg 1.66335 26.1195 0 1.2 -6.36608 6.11594e+06 2.54061e+06 -5.56516e+06 -896606 -1.56089e+06 371628
162 3 O 3.28288 27.4369 5.78248 -1.2 -8.27436 -3.8968e+06 -4.07414e+06 -1.55809e+06 -937357 -91219.6 -913243
163 1 Mg -1.18278 26.1608 1.4948 1.2 -9.18687 762444 2.3687e+06 4.50078e+06 1.88361e+06 -844266 306390
164 2 Si 0.635424 24.0959 1.4948 2.4 -35.2981 1.05192e+07 1.10706e+07 1.09404e+07 735652 1.38722e+06 3.14966e+06
165 3 O 0.617906 22.4827 1.4948 -1.2 -5.13285 -4.18824e+06 -895634 -2.71783e+07 1.01273e+06 -8.54696e+06 3.25205e+06
166 3 O 7.25781 25.07 1.4948 -1.2 -9.08821 -5.40145e+06 -1.10867e+06 -1.07694e+06 -942955 -818299 820452
167 3 O -0.0337363 24.8021 0.196716 -1.2 -4.0873 -2.70688e+06 -1.54322e+07 -2.07864e+07 3.50791e+06 -9.62949e+06 1.62223e+06
168 3 O -0.0687235 24.8021 2.79288 -1.2 -8.25126 -2.8793e+06 -3.99877e+06 -2.15658e+06 -830977 -87789 785667
169 1 Mg 6.82195 28.494 0 1.2 -6.40149 5.64724e+06 2.60028e+06 -5.04766e+06 1.14445e+06 -1.83761e+06 -519271
170 1 Mg 4.10106 33.2017 1.4948 1.2 -9.29117 -65470.8 2.78859e+06 4.40666e+06 -1.21651e+06 -551714 100233
171 2 Si 5.89839 30.5175 1.4948 2.4 -35.0065 1.15097e+07 1.03624e+07 1.03899e+07 -336612 1.66681e+06 -2.1583e+06
172 3 O 5.96289 32.1308 1.4948 -1.2 -6.79454 -7.02481e+06 -720938 -1.48284e+07 -286494 -8.4449e+06 -2.52886e+06
173 3 O 2.27266 29.5435 1.4948 -1.2 -9.0706 -5.14059e+06 -1.27452e+06 -1.15865e+06 1.65547e+06 -715688 -881320
174 3 O 5.19102 29.8114 0.196716 -1.2 -4.86837 -3.68338e+06 -1.50452e+07 -1.47307e+07 -1.93507e+06 -9.28003e+06 -100253
175 1 Mg 6.78546 28.494 2.9896 1.2 -8.53462 5.43584e+06 -1.40672e+06 -779620 1.31336e+06 -1.30902e+06 1.87963e+06
176 3 O 5.16061 29.8114 2.79288 -1.2 -8.25425 -2.84416e+06 -4.18068e+06 -1.86423e+06 1.11564e+06 -210245 -1.15584e+06
177 1 Mg -0.603205 28.5353 4.4844 1.2 -9.3252 25689.4 2.81395e+06 2.90026e+06 -485427 -240750 -194792
178 2 Si -2.39877 31.2194 4.4844 2.4 -34.0067 1.32431e+07 9.86689e+06 7.54358e+06 121756 -188345 -191601
179 3 O -2.46483 29.6062 4.4844 -1.2 -8.85448 -4.90334e+06 -532564 -3.3753e+06 387879 -61491.5 146464
180 3 O 1.22864 32.1935 4.4844 -1.2 -8.67899 -4.31259e+06 -3.28574e+06 -2.59169e+06 2.2581e+06 -413969 -15789
181 3 O -1.66032 31.9256 3.18632 -1.2 -8.44736 -3.72206e+06 -3.95457e+06 -530151 1.13761e+06 81132.9 -1.53548e+06
182 3 O -1.69072 31.9256 5.78248 -1.2 -8.43794 -3.7687e+06 -4.30468e+06 -895447 1.08145e+06 -27801.2 1.55838e+06
183 1 Mg 1.7499 30.8685 2.9896 1.2 -8.53431 5.41387e+06 -1.16143e+06 -1.0252e+06 -1.13634e+06 -1.36898e+06 -1.57903e+06
184 1 Mg 4.55894 30.8272 4.4844 1.2 -9.27976 179005 2.98981e+06 2.62709e+06 1.17969e+06 -217878 -49545.5
185 2 Si 2.7476 32.892 4.4844 2.4 -34.0371 1.30006e+07 1.02096e+07 7.451e+06 701013 -179271 251914
186 3 O 2.77235 34.5053 4.4844 -1.2 -8.83102 -4.83305e+06 -811596 -3.34992e+06 595438 -26719.2 -384117
187 3 O -3.87837 31.918 4.4844 -1.2 -8.74162 -4.50283e+06 -3.11763e+06 -2.42021e+06 -1.33013e+06 -345773 -1015.56
188 3 O 3.44611 32.1859 3.18632 -1.2 -8.47208 -3.6585e+06 -4.11508e+06 -634089 -858212 191394 1.18742e+06
189 1 Mg 1.7837 30.8685 0 1.2 -6.45806 5.12714e+06 2.66708e+06 -4.61601e+06 -1.34825e+06 -1.54122e+06 339295
190 3 O 3.41602 32.1859 5.78248 -1.2 -8.38879 -3.59657e+06 -4.49331e+06 -1.33429e+06 -816919 -30154.4 -1.10278e+06
191 1 Mg -1.05984 30.9098 1.4948 1.2 -9.23232 361488 2.71028e+06 4.33114e+06 1.91373e+06 -625086 130525
192 2 Si 0.755243 28.8449 1.4948 2.4 -35.1099 1.11495e+07 1.06819e+07 1.04821e+07 1.13746e+06 1.60658e+06 2.41787e+06
193 3 O 0.735127 27.2317 1.4948 -1.2 -5.90906 -5.9576e+06 -727429 -2.11005e+07 1.17864e+06 -9.3251e+06 3.01266e+06
194 3 O 7.37914 29.819 1.4948 -1.2 -9.11548 -5.28517e+06 -1.14051e+06 -1.08548e+06 -931299 -614001 1.05246e+06
195 3 O 0.0850649 29.5511 0.196716 -1.2 -4.93374 -3.94274e+06 -1.54105e+07 -1.46487e+07 2.70173e+06 -9.43961e+06 510639
196 3 O 0.0543974 29.5511 2.79288 -1.2 -8.29745 -2.84955e+06 -4.30643e+06 -1.85897e+06 -841178 -131589 1.03997e+06
197 1 Mg 6.94543 33.243 0 1.2 -6.54509 4.5789e+06 2.54672e+06 -4.02214e+06 1.59187e+06 -1.43829e+06 -578967
198 1 Mg 4.23267 37.9507 1.4948 1.2 -9.41897 -227640 2.56991e+06 4.57777e+06 -1.11533e+06 -225018 481297
199 2 Si 6.02709 35.2665 1.4948 2.4 -34.8601 1.23815e+07 9.3877e+06 1.03082e+07 -408864 1.58069e+06 -1.24293e+06
200 3 O 6.09339 36.8798 1.4948 -1.2 -7.50028 -7.41255e+06 -347466 -1.01769e+07 -144071 -6.59785e+06 -2.38363e+06
201 3 O 2.40018 34.2925 1.4948 -1.2 -9.03708 -5.0584e+06 -1.18232e+06 -1.4386e+06 1.70256e+06 -517375 -1.14821e+06
202 3 O 5.31645 34.5604 0.196716 -1.2 -5.77312 -4.75313e+06 -1.3277e+07 -9.54355e+06 -946022 -7.84467e+06 771599
203 1 Mg 6.91449 33.243 2.9896 1.2 -8.48967 5.47198e+06 -1.224e+06 -1.06224e+06 1.3169e+06 -1.3877e+06 2.10298e+06
204 3 O 5.291 34.5604 2.79288 -1.2 -8.25682 -2.96991e+06 -4.1897e+06 -1.76218e+06 1.12911e+06 -234414 -1.52083e+06
205 1 Mg -0.471101 33.2843 4.4844 1.2 -9.28035 -85335.2 3.13646e+06 2.6129e+06 -414683 -117406 181868
206 2 Si -2.26307 35.9684 4.4844 2.4 -34.1288 1.3496e+07 9.70119e+06 7.65749e+06 80171 -75016.3 1.14895e+06
207 3 O -2.33122 34.3552 4.4844 -1.2 -8.8804 -4.92594e+06 -763807 -3.07602e+06 390897 -93316.1 -333778
208 3 O 1.36549 36.9425 4.4844 -1.2 -8.54412 -4.48859e+06 -3.01303e+06 -2.91204e+06 2.28592e+06 -366536 -579860
209 3 O -1.52658 36.6746 3.18632 -1.2 -8.34945 -3.7969e+06 -3.72818e+06 -933481 1.15956e+06 104497 -2.01586e+06
210 3 O -1.55122 36.6746 5.78248 -1.2 -8.28485 -3.9309e+06 -4.03009e+06 -1.25867e+06 1.22004e+06 -14950 656468
211 1 Mg 1.882 35.6175 2.9896 1.2 -8.58179 5.49213e+06 -1.26563e+06 -912996 -1.11808e+06 -1.46868e+06 -1.11264e+06
212 1 Mg 4.69415 35.5762 4.4844 1.2 -9.32229 294872 2.98641e+06 2.58293e+06 1.22831e+06 -265026 551023
213 2 Si 2.88522 37.641 4.4844 2.4 -34.3446 1.33989e+07 9.44455e+06 8.31027e+06 815033 -254242 1.26118e+06
214 3 O 2.91159 39.2543 4.4844 -1.2 -8.65105 -5.13032e+06 -269465 -3.88974e+06 547518 -7979.7 -683903
215 3 O -3.74183 36.667 4.4844 -1.2 -8.65782 -4.74171e+06 -2.88629e+06 -2.55328e+06 -1.32442e+06 -303795 -679171
216 3 O 3.58014 36.9349 3.18632 -1.2 -8.36484 -3.73859e+06 -3.86828e+06 -1.07907e+06 -868960 265161 696727
217 1 Mg 1.90997 35.6175 0 1.2 -6.62734 3.91987e+06 2.30663e+06 -3.7557e+06 -1.66913e+06 -763776 1.05523e+06
218 3 O 3.55582 36.9349 5.78248 -1.2 -8.20444 -3.83046e+06 -4.22729e+06 -1.61629e+06 -915836 147053 -1.80657e+06
219 1 Mg -0.93068 35.6588 1.4948 1.2 -9.33108 91649.5 2.69057e+06 4.38686e+06 1.85993e+06 -314543 422838
220 2 Si 0.881882 33.5939 1.4948 2.4 -34.9232 1.18499e+07 9.98064e+06 1.02549e+07 1.41149e+06 1.64672e+06 2.63774e+06
221 3 O 0.859602 31.9807 1.4948 -1.2 -6.78775 -7.06615e+06 -723177 -1.49393e+07 1.15614e+06 -8.48163e+06 2.36646e+06
222 3 O 7.507 34.568 1.4948 -1.2 -9.08367 -5.24622e+06 -1.04985e+06 -1.33294e+06 -941013 -424009 770314
223 3 O 0.210186 34.3001 0.196716 -1.2 -5.80614 -4.86647e+06 -1.40114e+07 -9.49215e+06 1.52689e+06 -7.93469e+06 -855763
224 3 O 0.184454 34.3001 2.79288 -1.2 -8.29678 -2.91687e+06 -4.34105e+06 -1.80271e+06 -850585 -205523 643627
225 1 Mg 7.07415 37.992 0 1.2 -6.73506 3.54089e+06 2.02911e+06 -3.31145e+06 1.8771e+06 -436113 -889162
226 1 Mg 4.36817 42.6997 1.4948 1.2 -9.51424 -277556 2.35595e+06 4.61241e+06 -986338 124700 612115
227 2 Si 6.16058 40.0155 1.4948 2.4 -34.8666 1.32681e+07 7.826e+06 1.10011e+07 -366369 1.28228e+06 -514351
228 3 O 6.22815 41.6288 1.4948 -1.2 -7.99942 -7.0848e+06 101388 -7.24461e+06 30016.5 -4.49295e+06 -2.17595e+06
229 3 O 2.53282 39.0415 1.4948 -1.2 -8.90633 -5.11666e+06 -818205 -2.11445e+06 1.71068e+06 -362447 -1.44257e+06
230 3 O 5.44674 39.3094 0.196716 -1.2 -6.55979 -5.36238e+06 -1.04305e+07 -6.08027e+06 -159509 -5.77245e+06 1.35876e+06
231 1 Mg 7.04922 37.992 2.9896 1.2 -8.59104 5.67792e+06 -1.6131e+06 -705785 1.29215e+06 -1.48416e+06 2.52278e+06
232 3 O 5.42658 39.3094 2.79288 -1.2 -8.14535 -3.27104e+06 -3.68704e+06 -2.1724e+06 1.12625e+06 -268581 -1.82377e+06
233 1 Mg -0.333062 38.0333 4.4844 1.2 -9.43953 166555 2.66532e+06 3.08144e+06 -450641 -77417.9 669393
234 2 Si -2.12255 40.7174 4.4844 2.4 -34.5329 1.40805e+07 8.60312e+06 8.82213e+06 12452 -223279 1.25874e+06
235 3 O -2.19212 39.1042 4.4844 -1.2 -8.69005 -5.19226e+06 -182865 -3.69244e+06 470657 -32052 -687137
236 3 O 1.50676 41.6915 4.4844 -1.2 -8.38203 -4.85891e+06 -2.54853e+06 -3.26813e+06 2.25139e+06 -339250 -546097
237 3 O -1.3884 41.4236 3.18632 -1.2 -8.19282 -3.96707e+06 -3.3151e+06 -1.53201e+06 1.17154e+06 153863 -2.0708e+06
238 3 O -1.40713 41.4236 5.78248 -1.2 -8.04627 -4.3901e+06 -3.4829e+06 -1.61744e+06 1.26533e+06 81024.2 941433
239 1 Mg 2.01892 40.3665 2.9896 1.2 -8.70961 5.73807e+06 -1.72372e+06 -482882 -1.07676e+06 -1.55148e+06 -911147
240 1 Mg 4.83434 40.3252 4.4844 1.2 -9.52648 565316 2.43016e+06 3.19689e+06 1.25224e+06 -151794 741226
241 2 Si 3.02698 42.39 4.4844 2.4 -34.6921 1.39108e+07 8.65253e+06 9.1492e+06 882145 -31345.3 1.17096e+06
242 3 O 3.05433 44.0033 4.4844 -1.2 -8.50636 -5.32356e+06 -58515.7 -4.13782e+06 555674 -105757 -516366
243 3 O -3.60077 41.416 4.4844 -1.2 -8.45265 -5.00398e+06 -2.42032e+06 -3.08308e+06 -1.2762e+06 -171724 -665150
244 3 O 3.71851 41.6839 3.18632 -1.2 -8.20949 -3.88549e+06 -3.47406e+06 -1.6853e+06 -869597 232400 583945
245 1 Mg 2.04077 40.3665 0 1.2 -6.7978 3.08092e+06 1.67358e+06 -3.43177e+06 -1.83636e+06 458932 2.07848e+06
246 3 O 3.70011 41.6839 5.78248 -1.2 -7.96327 -4.12177e+06 -3.72157e+06 -2.08487e+06 -917678 -12096.6 -1.83616e+06
247 1 Mg -0.796865 40.4078 1.4948 1.2 -9.45643 22793.7 2.37378e+06 4.58169e+06 1.73706e+06 37179.6 609935
248 2 Si 1.01387 38.3429 1.4948 2.4 -34.9021 1.27674e+07 8.4772e+06 1.08424e+07 1.52534e+06 1.489e+06 2.99441e+06
249 3 O 0.989947 36.7297 1.4948 -1.2 -7.48953 -7.41532e+06 -349636 -1.03408e+07 1.04017e+06 -6.64525e+06 1.51545e+06
250 3 O 7.63988 39.317 1.4948 -1.2 -8.94906 -5.29262e+06 -687651 -2.03808e+06 -922798 -241073 529344
251 3 O 0.340253 39.0491 0.196716 -1.2 -6.56513 -5.37817e+06 -1.13721e+07 -6.06987e+06 397366 -5.85844e+06 -1.97769e+06
252 3 O 0.319795 39.0491 2.79288 -1.2 -8.19182 -3.22292e+06 -3.84997e+06 -2.19635e+06 -847942 -228505 317662
253 1 Mg 7.20667 42.741 0 1.2 -6.86771 2.78142e+06 1.54072e+06 -3.31484e+06 1.99878e+06 875687 -1.54356e+06
254 1 Mg 4.50613 47.4487 1.4948 1.2 -9.47197 -315416 2.51615e+06 4.21917e+06 -850795 447941 436556
255 2 Si 6.29731 44.7645 1.4948 2.4 -34.7984 1.37282e+07 6.99947e+06 1.12351e+07 -228034 835870 -304967
256 3 O 6.36567 46.3778 1.4948 -1.2 -8.39875 -6.27763e+06 112893 -5.32207e+06 180559 -2.65964e+06 -1.81858e+06
257 3 O 2.669 43.7905 1.4948 -1.2 -8.79103 -5.124e+06 -761220 -2.6187e+06 1.71624e+06 -246526 -1.49371e+06
258 3 O 5.58048 44.0584 0.196716 -1.2 -7.23605 -5.33814e+06 -7.61497e+06 -3.87179e+06 311245 -3.69151e+06 1.79187e+06
259 1 Mg 7.1879 42.741 2.9896 1.2 -8.7149 5.83252e+06 -1.91071e+06 -350984 1.26895e+06 -1.63339e+06 2.52606e+06
260 3 O 5.56564 44.0584 2.79288 -1.2 -8.06733 -3.49711e+06 -3.42983e+06 -2.3518e+06 1.12549e+06 -257161 -1.76974e+06
261 1 Mg -0.19105 42.7823 4.4844 1.2 -9.58672 518216 2.34866e+06 3.27916e+06 -452915 -54747.8 535670
262 2 Si -1.97909 45.4664 4.4844 2.4 -34.7763 1.43174e+07 8.4914e+06 9.09557e+06 59596 -394147 1.04588e+06
263 3 O -2.04947 43.8532 4.4844 -1.2 -8.53727 -5.3979e+06 -36419.4 -3.87065e+06 486111 91091.9 -574787
264 3 O 1.65063 46.4405 4.4844 -1.2 -8.3365 -5.06729e+06 -2.52059e+06 -3.16328e+06 2.29462e+06 -301204 -395306
265 3 O -1.24745 46.1726 3.18632 -1.2 -8.12748 -3.99132e+06 -3.27649e+06 -1.75267e+06 1.15449e+06 175886 -1.90411e+06
266 3 O -1.26044 46.1726 5.78248 -1.2 -7.88246 -4.56502e+06 -3.48276e+06 -1.78197e+06 1.23133e+06 293831 994629
267 1 Mg 2.15896 45.1155 2.9896 1.2 -8.77577 5.86495e+06 -1.82539e+06 -386394 -1.06511e+06 -1.60625e+06 -1.0229e+06
268 1 Mg 4.97763 45.0742 4.4844 1.2 -9.66064 683282 2.3553e+06 3.36922e+06 1.28593e+06 -79034.5 549809
269 2 Si 3.1711 47.139 4.4844 2.4 -34.7636 1.40408e+07 8.70841e+06 9.07994e+06 825883 168890 815675
270 3 O 3.19894 48.7523 4.4844 -1.2 -8.53032 -5.27954e+06 -79691.2 -4.12022e+06 593444 -169530 -314285