ITEM: TIMESTEP
14300
ITEM: NUMBER OF ATOMS
10500
ITEM: BOX BOUNDS xy xz yz pp pp pp
0.0000000000000000e+00 1.5297450000000000e+01 5.0990000000000002e+00
0.0000000000000000e+00 1.1872499999999999e+02 0.0000000000000000e+00
0.0000000000000000e+00 8.9688000000000002e+01 0.0000000000000000e+00
ITEM: ATOMS id type element xu yu zu q c_pe c_s[1] c_s[2] c_s[3] c_s[4] c_s[5] c_s[6]
1 1 Mg 6.2404 -6.37941e-06 0 1.2 -4.49841 7.99232e+06 -3.48738e+06 -4.55864e+06 -34726.4 2.58281e+06 625725
2 1 Mg 3.46349 4.70768 1.4948 1.2 -8.77181 141862 707613 6.30061e+06 -937436 -629260 676595
3 2 Si 5.2885 2.02354 1.4948 2.4 -35.6104 1.05763e+07 7.33615e+06 1.49343e+07 8.85168e+06 648469 -1.48254e+06
4 3 O 5.33628 3.63678 1.4948 -1.2 -4.47434 -1.22236e+06 473749 -3.55807e+07 -333232 3.83142e+06 -4.56187e+06
5 3 O 1.67294 1.04952 1.4948 -1.2 -0.918142 -2.05358e+07 -7.769e+07 -3.82858e+06 -2.4137e+07 -139921 -937347
6 3 O 4.59532 1.31737 0.196716 -1.2 -2.89807 -2.17767e+06 -4.93489e+06 -3.22229e+07 -6.02028e+06 6.26856e+06 -3.46546e+06
7 1 Mg 6.18956 -6.37941e-06 2.9896 1.2 -5.03854 1.73003e+06 -2.98551e+07 -1.34675e+06 -8.86287e+06 2.44571e+06 4.97946e+06
8 3 O 4.55118 1.31737 2.79288 -1.2 -7.32722 -137186 -2.91095e+06 -4.95167e+06 -2.9542e+06 -3.38167e+06 -1.99257e+06
9 1 Mg -1.20682 0.0413099 4.4844 1.2 8.77257 -3.05285e+07 -9.50812e+07 1.42892e+06 -2.84933e+07 -1.23111e+06 1.09404e+06
10 2 Si -3.0337 2.72544 4.4844 2.4 -33.7114 1.53961e+07 3.01304e+06 1.19775e+07 1.65525e+06 158786 1.11163e+06
11 3 O -3.08099 1.11221 4.4844 -1.2 -9.39861 -6.53716e+06 1.83578e+06 -3.94112e+06 -1.20459e+06 -227977 -656960
12 3 O 0.582463 3.69946 4.4844 -1.2 -8.63399 -3.76713e+06 -3.34504e+06 -5.01035e+06 -537966 -170815 -933293
13 3 O -2.29524 3.43162 3.18632 -1.2 -8.7805 -4.67693e+06 -505912 -2.58319e+06 1.08064e+06 -848675 -1.70425e+06
14 3 O -2.34216 3.43162 5.78248 -1.2 -8.45753 -4.58003e+06 -1.07254e+06 -3.73427e+06 693314 412614 372635
15 1 Mg 1.12778 2.37449 2.9896 1.2 -7.83113 5.53463e+06 -3.55247e+06 1.24456e+06 -3.28381e+06 -4.17207e+06 -1.41428e+06
16 1 Mg 3.92855 2.33318 4.4844 1.2 -8.761 -3.74677e+06 2.99664e+06 6.81385e+06 1.37642e+06 240548 1.37758e+06
17 2 Si 2.09341 4.39804 4.4844 2.4 -33.1157 1.30788e+07 2.40737e+06 1.35003e+07 135691 -267926 1.94823e+06
18 3 O 2.09991 6.01128 4.4844 -1.2 -9.09327 -4.60502e+06 2.23845e+06 -6.21829e+06 553380 -130020 -601586
19 3 O -4.52137 3.42402 4.4844 -1.2 -8.84744 -3.49685e+06 -806810 -5.611e+06 -2.43033e+06 -817456 -745641
20 3 O 2.80834 3.69187 3.18632 -1.2 -9.03533 -2.56463e+06 -780475 -2.49702e+06 468686 -478459 -1.21776e+06
21 1 Mg 1.17857 2.37449 0 1.2 -5.30645 -320301 -1.66088e+07 -4.65251e+06 6.52479e+06 1.23032e+06 5.32593e+06
22 3 O 2.76143 3.69187 5.78248 -1.2 -8.91378 -3.29372e+06 -275237 -3.57286e+06 569911 49393.5 -967016
23 1 Mg -1.67381 2.41581 1.4948 1.2 -7.77801 1.86751e+06 -2.06627e+06 5.9267e+06 1.3579e+06 -579244 1.79019e+06
24 2 Si 0.16286 0.350945 1.4948 2.4 -24.7434 -7.91881e+06 9.11867e+06 1.47416e+07 1.60125e+06 2.87605e+06 2.93764e+06
25 3 O 0.15972 -1.26229 1.4948 -1.2 -4.76801 -1.06505e+07 -6.56111e+06 -3.04215e+07 -5.6075e+06 -8.55127e+06 -3.5497e+06
26 3 O 6.77654 1.32496 1.4948 -1.2 -10.2093 -5.96796e+06 3.53235e+06 -3.1517e+06 -636977 -632924 240324
27 3 O -0.508028 1.05712 0.196716 -1.2 -9.40648 -67592.9 -2.97069e+06 -2.42117e+06 -558441 171041 -5.36238e+06
28 3 O -0.552171 1.05712 2.79288 -1.2 -6.64569 -5.5756e+06 -2.83902e+06 -2.64167e+07 1.4144e+06 -6.7998e+06 -6.40579e+06
29 1 Mg 6.31713 4.74899 0 1.2 -5.2122 820120 -1.47784e+07 -4.24325e+06 -7.30904e+06 1.40896e+06 -3.04718e+06
30 1 Mg 3.54847 9.45668 1.4948 1.2 -8.75975 966335 -600830 6.74387e+06 -946926 -911376 49531.9
31 2 Si 5.36879 6.77254 1.4948 2.4 -35.018 8.48893e+06 7.81541e+06 1.57487e+07 1.67132e+06 146678 -1.01279e+06
32 3 O 5.41937 8.38578 1.4948 -1.2 -4.35481 -987673 1.30396e+06 -3.74419e+07 763920 1.10193e+06 -4.64091e+06
33 3 O 1.75158 5.79852 1.4948 -1.2 -9.16758 -4.52177e+06 -299697 -3.50288e+06 1.96998e+06 -1.59472e+06 -1.86287e+06
34 3 O 4.67421 6.06637 0.196716 -1.2 -3.45092 -393369 -8.12717e+06 -3.343e+07 -2.00829e+06 1.30114e+06 -4.88407e+06
35 1 Mg 6.26654 4.74899 2.9896 1.2 -8.35263 4.67373e+06 -3.75569e+06 2.03426e+06 1.81469e+06 -841850 2.55967e+06
36 3 O 4.63043 6.06637 2.79288 -1.2 -8.48923 -2.21396e+06 -1.83554e+06 -4.30663e+06 924760 -96437.4 -1.98849e+06
37 1 Mg -1.12976 4.79031 4.4844 1.2 -9.17797 -43787.7 550004 5.06888e+06 -702424 -372196 595296
38 2 Si -2.9517 7.47444 4.4844 2.4 -33.699 1.26783e+07 4.43219e+06 1.30356e+07 -21709.3 129571 958128
39 3 O -3.00198 5.86121 4.4844 -1.2 -9.04662 -4.68836e+06 2.06451e+06 -5.89663e+06 41868.7 -318344 -524643
40 3 O 0.666315 8.44846 4.4844 -1.2 -8.82373 -4.1018e+06 -324223 -5.51977e+06 2.12364e+06 -432429 -388733
41 3 O -2.21213 8.18062 3.18632 -1.2 -8.66426 -3.6099e+06 -1.12486e+06 -2.92718e+06 1.12894e+06 -311352 -1.89769e+06
42 3 O -2.25864 8.18062 5.78248 -1.2 -8.54074 -3.55355e+06 -1.42116e+06 -3.97158e+06 1.19437e+06 -192649 812932
43 1 Mg 1.20893 7.12349 2.9896 1.2 -8.3932 4.74989e+06 -3.82305e+06 2.07003e+06 -1.2857e+06 -1.34761e+06 -1.2138e+06
44 1 Mg 4.00982 7.08218 4.4844 1.2 -9.08211 -163245 347463 5.28601e+06 1.05953e+06 -309436 590017
45 2 Si 2.17861 9.14704 4.4844 2.4 -33.7775 1.27616e+07 4.19949e+06 1.32819e+07 659868 -26196.4 958478
46 3 O 2.18828 10.7603 4.4844 -1.2 -8.93789 -4.83108e+06 2.30714e+06 -6.2939e+06 427600 -227668 -306227
47 3 O -4.43805 8.17302 4.4844 -1.2 -8.86459 -4.1044e+06 -363307 -5.37047e+06 -1.5372e+06 -523316 -584254
48 3 O 2.89193 8.44087 3.18632 -1.2 -8.67331 -3.49759e+06 -1.29427e+06 -3.0073e+06 -946722 -230990 827166
49 1 Mg 1.25915 7.12349 0 1.2 -5.67029 1.53146e+06 -9.67855e+06 -4.21634e+06 5.90011e+06 1.38564e+06 2.96839e+06
50 3 O 2.84547 8.44087 5.78248 -1.2 -8.53559 -3.58129e+06 -1.53207e+06 -4.11628e+06 -966797 -137741 -1.77236e+06
51 1 Mg -1.59284 7.16481 1.4948 1.2 -8.62388 1.40858e+06 -801867 6.48361e+06 1.45165e+06 -916665 775659
52 2 Si 0.240329 5.09994 1.4948 2.4 -34.6819 9.25699e+06 6.88018e+06 1.53782e+07 -1.96615e+06 -1.05059e+06 3.08815e+06
53 3 O 0.234538 3.48671 1.4948 -1.2 -4.97849 -2.16066e+06 2.32833e+06 -3.57251e+07 399348 5.17051e+06 3.26064e+06
54 3 O 6.85564 6.07396 1.4948 -1.2 -9.24103 -4.96574e+06 262898 -3.4659e+06 -1.34398e+06 -1.83307e+06 660157
55 3 O -0.429565 5.80612 0.196716 -1.2 -3.70461 -1.16028e+06 -6.79027e+06 -3.35497e+07 1.84949e+06 1.19248e+06 4.09014e+06
56 3 O -0.473377 5.80612 2.79288 -1.2 -8.57936 -2.69829e+06 -1.39852e+06 -4.21456e+06 -771140 305700 763857
57 1 Mg 6.40169 9.49799 0 1.2 -5.68426 2.2203e+06 -8.78744e+06 -4.26093e+06 -5.49499e+06 984775 -2.14839e+06
58 1 Mg 3.64209 14.2057 1.4948 1.2 -8.88755 954235 -594101 6.91313e+06 -1.02877e+06 -961981 -63014.3
59 2 Si 5.45748 11.5215 1.4948 2.4 -35.1978 9.03851e+06 6.82131e+06 1.64575e+07 891393 362979 -1.54881e+06
60 3 O 5.51101 13.1348 1.4948 -1.2 -4.31176 -1.26692e+06 1.56226e+06 -3.73095e+07 473344 -2.55179e+06 -4.58664e+06
61 3 O 1.83851 10.5475 1.4948 -1.2 -9.12682 -4.94965e+06 537502 -3.70622e+06 1.53003e+06 -1.58918e+06 -1.41852e+06
62 3 O 4.7611 10.8154 0.196716 -1.2 -3.19562 -124312 -9.03318e+06 -3.44253e+07 -2.46992e+06 -1.76824e+06 -4.58668e+06
63 1 Mg 6.35203 9.49799 2.9896 1.2 -8.43193 4.83248e+06 -3.96325e+06 2.20779e+06 1.30671e+06 -1.17753e+06 2.42546e+06
64 3 O 4.71833 10.8154 2.79288 -1.2 -8.38648 -2.60411e+06 -1.34514e+06 -4.58072e+06 1.03883e+06 2841.97 -1.64818e+06
65 1 Mg -1.0438 9.53931 4.4844 1.2 -9.15734 -100693 121266 5.48025e+06 -621005 -353354 374785
66 2 Si -2.8604 12.2234 4.4844 2.4 -34.0415 1.30602e+07 3.86163e+06 1.37801e+07 -53270.4 -136387 303758
67 3 O -2.91391 10.6102 4.4844 -1.2 -8.93288 -4.72031e+06 2.31234e+06 -6.30626e+06 254910 -163717 -405151
68 3 O 0.7596 13.1975 4.4844 -1.2 -8.67668 -4.37395e+06 -248732 -5.55339e+06 2.13923e+06 -449541 499.358
69 3 O -2.12001 12.9296 3.18632 -1.2 -8.53259 -3.73556e+06 -1.02371e+06 -3.11539e+06 1.15928e+06 -192230 -1.68425e+06
70 3 O -2.16532 12.9296 5.78248 -1.2 -8.27046 -3.92319e+06 -1.16002e+06 -4.42085e+06 1.10204e+06 7769.96 1.53736e+06
71 1 Mg 1.29891 11.8725 2.9896 1.2 -8.50287 5.02682e+06 -4.00652e+06 2.14903e+06 -1.17656e+06 -1.22126e+06 -1.436e+06
72 1 Mg 4.10033 11.8312 4.4844 1.2 -9.24963 176243 4558.55 5.56117e+06 1.13921e+06 -216097 256881
73 2 Si 2.27333 13.896 4.4844 2.4 -34.0333 1.33211e+07 4.24924e+06 1.30808e+07 668357 17286 53170.5
74 3 O 2.28634 15.5093 4.4844 -1.2 -8.84355 -4.98746e+06 1.97295e+06 -5.9533e+06 467514 -218269 27935.7
75 3 O -4.34533 12.922 4.4844 -1.2 -8.69175 -4.33522e+06 -136783 -5.63355e+06 -1.46094e+06 -504610 -105910
76 3 O 2.98455 13.1899 3.18632 -1.2 -8.56043 -3.74323e+06 -1.1573e+06 -3.10067e+06 -958668 -189084 1.13962e+06
77 1 Mg 1.34779 11.8725 0 1.2 -5.95499 3.50731e+06 -5.3231e+06 -4.19256e+06 3.58345e+06 809532 1.89238e+06
78 3 O 2.93934 13.1899 5.78248 -1.2 -8.35304 -4.01098e+06 -1.3752e+06 -4.09117e+06 -914131 -300182 -1.08597e+06
79 1 Mg -1.50344 11.9138 1.4948 1.2 -8.80871 1.26154e+06 -736951 6.84565e+06 1.55346e+06 -963274 708668
80 2 Si 0.326006 9.84894 1.4948 2.4 -35.105 9.02387e+06 6.9914e+06 1.61257e+07 -607871 101247 2.97359e+06
81 3 O 0.317364 8.23571 1.4948 -1.2 -4.35993 -1.09757e+06 1.43271e+06 -3.75821e+07 -121954 1.18127e+06 3.79384e+06
82 3 O 6.94307 10.823 1.4948 -1.2 -9.15763 -5.08004e+06 728709 -3.6771e+06 -975110 -1.52244e+06 721322
83 3 O -0.343122 10.5551 0.196716 -1.2 -3.29244 -403408 -8.49513e+06 -3.44937e+07 2.46309e+06 -2.04087e+06 4.20038e+06
84 3 O -0.385966 10.5551 2.79288 -1.2 -8.43285 -2.6573e+06 -1.40644e+06 -4.54037e+06 -847551 117209 778935
85 1 Mg 6.49448 14.247 0 1.2 -5.92869 3.96065e+06 -4.48264e+06 -4.34221e+06 -2.99339e+06 281409 -1.23408e+06
86 1 Mg 3.74457 18.9547 1.4948 1.2 -9.01617 800598 -204199 6.80573e+06 -1.12573e+06 -999875 -16713.5
87 2 Si 5.55495 16.2705 1.4948 2.4 -35.2717 9.40908e+06 6.85949e+06 1.61859e+07 507780 817906 -1.85323e+06
88 3 O 5.6115 17.8838 1.4948 -1.2 -4.58464 -2.34607e+06 1.40922e+06 -3.44091e+07 88595.8 -6.0583e+06 -4.35779e+06
89 3 O 1.93416 15.2965 1.4948 -1.2 -9.11059 -5.11074e+06 777745 -3.56125e+06 1.52524e+06 -1.35993e+06 -1.27684e+06
90 3 O 4.85636 15.5644 0.196716 -1.2 -3.18759 -94705.3 -1.07794e+07 -3.28881e+07 -3.03269e+06 -5.13277e+06 -4.01313e+06
91 1 Mg 6.44662 14.247 2.9896 1.2 -8.52275 5.06038e+06 -3.96251e+06 2.12377e+06 1.28328e+06 -1.18749e+06 2.12829e+06
92 3 O 4.81537 15.5644 2.79288 -1.2 -8.29609 -2.70873e+06 -1.54673e+06 -4.45035e+06 1.08403e+06 -34685.7 -1.40669e+06
93 1 Mg -0.948271 14.2883 4.4844 1.2 -9.30459 90916.9 223113 5.41739e+06 -530859 -349310 -75540.3
94 2 Si -2.75928 16.9724 4.4844 2.4 -34.2082 1.34992e+07 4.80137e+06 1.26727e+07 -1460.59 -137172 -184816
95 3 O -2.81617 15.3592 4.4844 -1.2 -8.82165 -4.92104e+06 1.99461e+06 -5.95099e+06 276272 -131385 56377.1
96 3 O 0.862762 17.9465 4.4844 -1.2 -8.56923 -4.47778e+06 -742419 -5.12879e+06 2.12288e+06 -529079 46618.8
97 3 O -2.0185 17.6786 3.18632 -1.2 -8.45052 -3.88501e+06 -1.38643e+06 -2.75196e+06 1.14642e+06 -149371 -1.57204e+06
98 3 O -2.06164 17.6786 5.78248 -1.2 -8.17982 -4.20694e+06 -1.76828e+06 -3.74864e+06 1.0345e+06 -21983.7 1.73372e+06
99 1 Mg 1.39817 16.6215 2.9896 1.2 -8.56826 5.21684e+06 -3.71931e+06 1.77446e+06 -1.15432e+06 -1.22431e+06 -1.53679e+06
100 1 Mg 4.20062 16.5802 4.4844 1.2 -9.33197 279291 459444 5.13606e+06 1.09474e+06 -270984 13811.1
101 2 Si 2.37796 18.645 4.4844 2.4 -34.2738 1.34243e+07 5.17939e+06 1.24315e+07 707273 -32214.7 84145.5
102 3 O 2.39434 20.2583 4.4844 -1.2 -8.69931 -5.045e+06 1.55449e+06 -5.70634e+06 466989 -194146 -6187.32
103 3 O -4.24274 17.671 4.4844 -1.2 -8.61802 -4.56459e+06 -607013 -5.05367e+06 -1.37531e+06 -430127 51674.8
104 3 O 3.08659 17.9389 3.18632 -1.2 -8.47428 -3.81248e+06 -1.52954e+06 -2.83656e+06 -926209 -64566.2 1.18213e+06
105 1 Mg 1.44478 16.6215 0 1.2 -6.06462 5.19776e+06 -2.2119e+06 -4.37544e+06 1.41004e+06 -111054 1.20309e+06
106 3 O 3.0436 17.9389 5.78248 -1.2 -8.23671 -3.93615e+06 -2.00986e+06 -3.66651e+06 -837016 -179274 -1.08596e+06
107 1 Mg -1.40524 16.6628 1.4948 1.2 -8.92548 1.17499e+06 -398096 6.73284e+06 1.69297e+06 -956365 585549
108 2 Si 0.420358 14.5979 1.4948 2.4 -35.2297 9.36482e+06 6.85168e+06 1.61085e+07 -118174 531229 2.98949e+06
109 3 O 0.408732 12.9847 1.4948 -1.2 -4.30752 -1.33377e+06 1.58653e+06 -3.74084e+07 219867 -2.54705e+06 3.97827e+06
110 3 O 7.03923 15.572 1.4948 -1.2 -9.14225 -5.21773e+06 914811 -3.50855e+06 -936433 -1.32426e+06 799031
111 3 O -0.248332 15.3041 0.196716 -1.2 -3.30462 -516401 -1.02939e+07 -3.28182e+07 3.2539e+06 -5.40506e+06 3.67683e+06
112 3 O -0.289436 15.3041 2.79288 -1.2 -8.33842 -2.758e+06 -1.62218e+06 -4.41449e+06 -867704 60272.4 943364
113 1 Mg 6.59566 18.996 0 1.2 -6.0741 5.37012e+06 -1.70897e+06 -4.24916e+06 -912986 -621908 -612129
114 1 Mg 3.85574 23.7037 1.4948 1.2 -9.17181 631756 205762 6.67416e+06 -1.19083e+06 -926092 349423
115 2 Si 5.66125 21.0195 1.4948 2.4 -35.318 1.00798e+07 6.89216e+06 1.56185e+07 168020 1.18694e+06 -1.69583e+06
116 3 O 5.72074 22.6328 1.4948 -1.2 -5.11751 -4.15046e+06 1.30284e+06 -2.93035e+07 -214772 -8.48918e+06 -4.13595e+06
117 3 O 2.03867 20.0455 1.4948 -1.2 -9.07752 -5.19225e+06 808551 -3.36081e+06 1.5689e+06 -1.13371e+06 -1.2477e+06
118 3 O 4.96004 20.3134 0.196716 -1.2 -3.46815 -877472 -1.23396e+07 -2.89099e+07 -3.17629e+06 -7.9288e+06 -3.09586e+06
119 1 Mg 6.55057 18.996 2.9896 1.2 -8.57735 5.31643e+06 -3.63083e+06 1.62407e+06 1.28278e+06 -1.22043e+06 2.08508e+06
120 3 O 4.92172 20.3134 2.79288 -1.2 -8.21008 -2.82075e+06 -1.90219e+06 -4.15651e+06 1.09891e+06 -29649.1 -1.44283e+06
121 1 Mg -0.84282 19.0373 4.4844 1.2 -9.41573 269897 672846 4.96048e+06 -458805 -203687 -84854.5
122 2 Si -2.64823 21.7214 4.4844 2.4 -34.3372 1.40741e+07 5.78281e+06 1.13268e+07 -105091 -196894 87511
123 3 O -2.70847 20.1082 4.4844 -1.2 -8.74167 -5.23788e+06 1.55046e+06 -5.30527e+06 343619 -137123 53196.5
124 3 O 0.97581 22.6955 4.4844 -1.2 -8.48857 -4.60252e+06 -1.28622e+06 -4.58928e+06 2.18854e+06 -625762 -35012.9
125 3 O -1.9076 22.4276 3.18632 -1.2 -8.37517 -4.03789e+06 -1.78439e+06 -2.35876e+06 1.18102e+06 -64515.7 -1.75963e+06
126 3 O -1.9475 22.4276 5.78248 -1.2 -8.1695 -4.51967e+06 -2.44484e+06 -2.70818e+06 1.27203e+06 -68608.2 1.54884e+06
127 1 Mg 1.50678 21.3705 2.9896 1.2 -8.64442 5.39199e+06 -3.39769e+06 1.39976e+06 -1.14299e+06 -1.20859e+06 -1.44326e+06
128 1 Mg 4.31086 21.3292 4.4844 1.2 -9.4529 355189 925121 4.79073e+06 1.18473e+06 -391702 113440
129 2 Si 2.49243 23.394 4.4844 2.4 -34.4326 1.35374e+07 6.3097e+06 1.14414e+07 783319 108190 412410
130 3 O 2.51204 25.0073 4.4844 -1.2 -8.65134 -5.13669e+06 996504 -5.13594e+06 548205 -239294 -422432
131 3 O -4.13026 22.42 4.4844 -1.2 -8.54437 -4.74481e+06 -1.12021e+06 -4.47969e+06 -1.37105e+06 -269807 -204468
132 3 O 3.19799 22.6879 3.18632 -1.2 -8.38115 -3.86168e+06 -1.93106e+06 -2.59127e+06 -937144 12320.5 1.00503e+06
133 1 Mg 1.5501 21.3705 0 1.2 -6.18988 6.15801e+06 -585960 -3.98251e+06 -74847.7 -1.01169e+06 838397
134 3 O 3.1583 22.6879 5.78248 -1.2 -8.0963 -3.90275e+06 -2.71804e+06 -3.16514e+06 -991486 -233883 -1.09197e+06
135 1 Mg -1.29822 21.4118 1.4948 1.2 -9.07078 1.06154e+06 -16216 6.59277e+06 1.81149e+06 -917369 609662
136 2 Si 0.523568 19.3469 1.4948 2.4 -35.2869 9.8636e+06 6.98826e+06 1.55929e+07 327677 1.00217e+06 3.06448e+06
137 3 O 0.508934 17.7337 1.4948 -1.2 -4.58375 -2.43645e+06 1.42917e+06 -3.44752e+07 657921 -6.07483e+06 3.84275e+06
138 3 O 7.14425 20.321 1.4948 -1.2 -9.11603 -5.35497e+06 937523 -3.24487e+06 -935334 -1.08673e+06 741952
139 3 O -0.145107 20.0531 0.196716 -1.2 -3.59314 -1.35653e+06 -1.19884e+07 -2.87863e+07 3.67297e+06 -8.20741e+06 2.76181e+06
140 3 O -0.183601 20.0531 2.79288 -1.2 -8.2531 -2.87685e+06 -1.97474e+06 -4.12651e+06 -862795 -56231.8 899654
141 1 Mg 6.70502 23.745 0 1.2 -6.2508 6.05667e+06 -328215 -3.64958e+06 421883 -1.4756e+06 103250
142 1 Mg 3.97493 28.4527 1.4948 1.2 -9.28181 379266 687968 6.38802e+06 -1.22002e+06 -760016 905794
143 2 Si 5.77602 25.7685 1.4948 2.4 -35.304 1.09349e+07 6.845e+06 1.48757e+07 -96211.3 1.52831e+06 -672594
144 3 O 5.83821 27.3818 1.4948 -1.2 -5.87282 -5.97501e+06 1.15833e+06 -2.28885e+07 -354013 -9.30672e+06 -4.04617e+06
145 3 O 2.15175 24.7945 1.4948 -1.2 -9.02439 -5.25749e+06 755534 -3.19341e+06 1.62258e+06 -936473 -1.60456e+06
146 3 O 5.07184 25.0624 0.196716 -1.2 -4.02283 -2.30138e+06 -1.31688e+07 -2.31465e+07 -2.7779e+06 -9.44269e+06 -2.28213e+06
147 1 Mg 6.66374 23.745 2.9896 1.2 -8.62688 5.51381e+06 -3.26732e+06 1.14544e+06 1.31272e+06 -1.30799e+06 2.41823e+06
148 3 O 5.03707 25.0624 2.79288 -1.2 -8.14155 -2.92712e+06 -2.26695e+06 -3.83426e+06 1.07512e+06 -113360 -1.84969e+06
149 1 Mg -0.727559 23.7863 4.4844 1.2 -9.44633 392925 1.26868e+06 4.28151e+06 -529879 -171344 247324
150 2 Si -2.5277 26.4704 4.4844 2.4 -34.4677 1.40711e+07 6.63347e+06 1.06901e+07 163545 -254008 1.58638e+06
151 3 O -2.59107 24.8572 4.4844 -1.2 -8.6961 -5.30081e+06 1.01361e+06 -4.77465e+06 334311 -4106.05 -513878
152 3 O 1.09817 27.4445 4.4844 -1.2 -8.42909 -4.77035e+06 -1.58501e+06 -4.22169e+06 2.35581e+06 -445637 -789640
153 3 O -1.78784 27.1766 3.18632 -1.2 -8.29945 -4.03305e+06 -2.10037e+06 -2.22634e+06 1.15458e+06 34233.4 -2.41249e+06
154 3 O -1.82343 27.1766 5.78248 -1.2 -8.05903 -4.32919e+06 -2.82939e+06 -2.59043e+06 1.08772e+06 -33145.2 447889
155 1 Mg 1.62435 26.1195 2.9896 1.2 -8.68293 5.57793e+06 -3.0464e+06 927307 -1.18545e+06 -1.26604e+06 -875196
156 1 Mg 4.43064 26.0782 4.4844 1.2 -9.5167 460184 1.3737e+06 4.34168e+06 1.24663e+06 -271070 621748
157 2 Si 2.61607 28.143 4.4844 2.4 -34.5321 1.40681e+07 6.72815e+06 1.06572e+07 623199 -90663.1 1.63496e+06
158 3 O 2.63853 29.7563 4.4844 -1.2 -8.61779 -5.42643e+06 887176 -4.79139e+06 595674 -57820.1 -930144
159 3 O -4.00841 27.169 4.4844 -1.2 -8.47849 -4.83955e+06 -1.46579e+06 -4.14033e+06 -1.47155e+06 -367052 -849959
160 3 O 3.3182 27.4369 3.18632 -1.2 -8.3236 -3.97715e+06 -2.24325e+06 -2.32971e+06 -893693 85165.9 449044
161 1 Mg 1.66335 26.1195 0 1.2 -6.34457 6.07671e+06 239627 -3.25943e+06 -897770 -1.59624e+06 1.19083e+06
162 3 O 3.28288 27.4369 5.78248 -1.2 -8.03944 -4.24958e+06 -3.01542e+06 -2.70793e+06 -873607 -197090 -1.79638e+06
163 1 Mg -1.18278 26.1608 1.4948 1.2 -9.21405 834741 437096 6.40364e+06 1.8859e+06 -846968 1.06543e+06
164 2 Si 0.635424 24.0959 1.4948 2.4 -35.3232 1.05927e+07 6.97747e+06 1.50003e+07 740403 1.3955e+06 3.74893e+06
165 3 O 0.617906 22.4827 1.4948 -1.2 -5.11571 -4.22587e+06 1.32733e+06 -2.93907e+07 1.00899e+06 -8.55508e+06 3.23256e+06
166 3 O 7.25781 25.07 1.4948 -1.2 -9.06882 -5.4425e+06 874147 -3.0497e+06 -943199 -824857 281692
167 3 O -0.0337363 24.8021 0.196716 -1.2 -4.12375 -2.69049e+06 -1.30873e+07 -2.309e+07 3.49634e+06 -9.62308e+06 1.0619e+06
168 3 O -0.0687235 24.8021 2.79288 -1.2 -8.19699 -2.99755e+06 -2.38558e+06 -3.73819e+06 -817971 -108669 425131
169 1 Mg 6.82195 28.494 0 1.2 -6.3892 5.65382e+06 496766 -2.97041e+06 1.15395e+06 -1.79416e+06 673211
170 1 Mg 4.10106 33.2017 1.4948 1.2 -9.28231 -60964.8 1.19684e+06 5.97969e+06 -1.20338e+06 -513270 962181
171 2 Si 5.89839 30.5175 1.4948 2.4 -35.1119 1.1671e+07 6.77053e+06 1.39893e+07 -306048 1.77233e+06 101732
172 3 O 5.96289 32.1308 1.4948 -1.2 -6.76648 -7.05693e+06 970181 -1.65316e+07 -296154 -8.49889e+06 -3.53515e+06
173 3 O 2.27266 29.5435 1.4948 -1.2 -9.01427 -5.23459e+06 581553 -3.01045e+06 1.66674e+06 -692060 -1.99859e+06
174 3 O 5.19102 29.8114 0.196716 -1.2 -4.8763 -3.66011e+06 -1.31032e+07 -1.66836e+07 -1.94245e+06 -9.33808e+06 -1.3222e+06
175 1 Mg 6.78546 28.494 2.9896 1.2 -8.66463 5.62843e+06 -3.04003e+06 869453 1.35357e+06 -1.28269e+06 2.95336e+06
176 3 O 5.16061 29.8114 2.79288 -1.2 -8.12248 -3.0681e+06 -2.48619e+06 -3.54318e+06 1.08362e+06 -267191 -2.25624e+06
177 1 Mg -0.603205 28.5353 4.4844 1.2 -9.56324 344186 1.40543e+06 4.37503e+06 -524088 -267518 1.01323e+06
178 2 Si -2.39877 31.2194 4.4844 2.4 -34.656 1.39072e+07 6.72051e+06 1.10726e+07 44261.7 -84180.2 2.09924e+06
179 3 O -2.46483 29.6062 4.4844 -1.2 -8.58073 -5.246e+06 932596 -4.91914e+06 355660 -129549 -1.06975e+06
180 3 O 1.22864 32.1935 4.4844 -1.2 -8.41219 -4.82881e+06 -1.64507e+06 -4.14577e+06 2.23227e+06 -261857 -1.02628e+06
181 3 O -1.66032 31.9256 3.18632 -1.2 -8.26936 -3.91388e+06 -2.27084e+06 -2.30397e+06 1.16298e+06 108335 -2.53471e+06
182 3 O -1.69072 31.9256 5.78248 -1.2 -7.90243 -4.24243e+06 -2.8274e+06 -2.79491e+06 1.21013e+06 120790 457960
183 1 Mg 1.7499 30.8685 2.9896 1.2 -8.68079 5.70184e+06 -2.8679e+06 628070 -1.14667e+06 -1.43859e+06 -517822
184 1 Mg 4.55894 30.8272 4.4844 1.2 -9.53507 704855 1.47137e+06 4.02906e+06 1.24258e+06 -89225 1.04873e+06
185 2 Si 2.7476 32.892 4.4844 2.4 -34.5157 1.41991e+07 6.75729e+06 1.04691e+07 776978 -226844 2.1915e+06
186 3 O 2.77235 34.5053 4.4844 -1.2 -8.64882 -5.3361e+06 972693 -4.9283e+06 584622 -12008.1 -888810
187 3 O -3.87837 31.918 4.4844 -1.2 -8.43275 -4.89147e+06 -1.51734e+06 -4.11261e+06 -1.32792e+06 -512983 -1.09943e+06
188 3 O 3.44611 32.1859 3.18632 -1.2 -8.32894 -3.98863e+06 -2.42525e+06 -2.22201e+06 -879688 163134 208369
189 1 Mg 1.7837 30.8685 0 1.2 -6.42639 5.04892e+06 818344 -2.73982e+06 -1.35884e+06 -1.57701e+06 1.54746e+06
190 3 O 3.41602 32.1859 5.78248 -1.2 -8.05893 -4.57248e+06 -2.97303e+06 -2.32879e+06 -861116 -80500.5 -2.40087e+06
191 1 Mg -1.05984 30.9098 1.4948 1.2 -9.28264 430259 922371 6.13091e+06 1.90191e+06 -657398 1.23751e+06
192 2 Si 0.755243 28.8449 1.4948 2.4 -35.2208 1.13335e+07 6.91797e+06 1.42398e+07 1.10484e+06 1.52636e+06 4.62021e+06
193 3 O 0.735127 27.2317 1.4948 -1.2 -5.86807 -6.03406e+06 1.18458e+06 -2.30013e+07 1.19007e+06 -9.30419e+06 2.08174e+06
194 3 O 7.37914 29.819 1.4948 -1.2 -9.05845 -5.37215e+06 693227 -2.92283e+06 -940938 -638219 -95351.7
195 3 O 0.0850649 29.5511 0.196716 -1.2 -4.94296 -3.93808e+06 -1.34226e+07 -1.66269e+07 2.70746e+06 -9.38179e+06 -695762
196 3 O 0.0543974 29.5511 2.79288 -1.2 -8.15943 -3.05342e+06 -2.58854e+06 -3.5901e+06 -810000 -78414.4 -80402.3
197 1 Mg 6.94543 33.243 0 1.2 -6.44216 4.41589e+06 1.02529e+06 -2.50262e+06 1.5944e+06 -1.41257e+06 366669
198 1 Mg 4.23267 37.9507 1.4948 1.2 -9.09118 -744500 2.09488e+06 5.04447e+06 -1.12757e+06 -203725 418514
199 2 Si 6.02709 35.2665 1.4948 2.4 -34.6476 1.19733e+07 6.88912e+06 1.28745e+07 -408885 1.66423e+06 -306772
200 3 O 6.09339 36.8798 1.4948 -1.2 -7.7269 -7.01382e+06 474328 -1.1034e+07 -138744 -6.63406e+06 -2.51966e+06
201 3 O 2.40018 34.2925 1.4948 -1.2 -9.09776 -5.00275e+06 259068 -2.83866e+06 1.69694e+06 -504551 -1.82065e+06
202 3 O 5.31645 34.5604 0.196716 -1.2 -5.92114 -4.4979e+06 -1.19822e+07 -1.08562e+07 -958945 -7.8756e+06 25810.9
203 1 Mg 6.91449 33.243 2.9896 1.2 -8.61916 5.59004e+06 -2.86278e+06 665990 1.30534e+06 -1.34141e+06 2.90925e+06
204 3 O 5.291 34.5604 2.79288 -1.2 -8.217 -3.01734e+06 -2.68014e+06 -3.28485e+06 1.12814e+06 -316235 -2.04149e+06
205 1 Mg -0.471101 33.2843 4.4844 1.2 -9.55812 306869 1.4727e+06 4.32748e+06 -415885 -255157 988796
206 2 Si -2.26307 35.9684 4.4844 2.4 -34.428 1.36191e+07 6.89652e+06 1.08237e+07 96623.5 -138018 1.12538e+06
207 3 O -2.33122 34.3552 4.4844 -1.2 -8.60804 -5.16703e+06 871971 -4.8967e+06 404700 -61741 -862222
208 3 O 1.36549 36.9425 4.4844 -1.2 -8.58639 -4.54812e+06 -1.81704e+06 -3.98641e+06 2.2567e+06 -260737 -247403
209 3 O -1.52658 36.6746 3.18632 -1.2 -8.43006 -3.59212e+06 -2.65797e+06 -2.07754e+06 1.15144e+06 150663 -1.93361e+06
210 3 O -1.55122 36.6746 5.78248 -1.2 -8.01582 -4.15571e+06 -2.65203e+06 -2.88168e+06 1.23172e+06 19156.6 1.05794e+06
211 1 Mg 1.882 35.6175 2.9896 1.2 -8.54609 5.52755e+06 -2.61388e+06 342556 -1.11451e+06 -1.50855e+06 -880232
212 1 Mg 4.69415 35.5762 4.4844 1.2 -9.46183 564862 1.43352e+06 4.09128e+06 1.22249e+06 -97871.5 661803
213 2 Si 2.88522 37.641 4.4844 2.4 -34.0543 1.32957e+07 7.5425e+06 9.8427e+06 818435 -200091 331022
214 3 O 2.91159 39.2543 4.4844 -1.2 -9.00587 -4.64639e+06 39227.5 -4.12457e+06 576961 -39796.2 85445.8
215 3 O -3.74183 36.667 4.4844 -1.2 -8.59319 -4.68386e+06 -1.67194e+06 -3.9202e+06 -1.30808e+06 -383537 -442394
216 3 O 3.58014 36.9349 3.18632 -1.2 -8.50135 -3.603e+06 -2.85871e+06 -2.00754e+06 -858213 217053 823365
217 1 Mg 1.90997 35.6175 0 1.2 -6.40257 3.58444e+06 1.27652e+06 -2.75026e+06 -1.66447e+06 -790587 1.68735e+06
218 3 O 3.55582 36.9349 5.78248 -1.2 -8.1956 -4.23019e+06 -2.84559e+06 -2.39189e+06 -933446 3070.72 -1.4728e+06
219 1 Mg -0.93068 35.6588 1.4948 1.2 -9.19543 -139557 1.53425e+06 5.55705e+06 1.85735e+06 -345263 814563
220 2 Si 0.881882 33.5939 1.4948 2.4 -34.8717 1.18119e+07 6.88997e+06 1.33012e+07 1.40216e+06 1.55123e+06 4.22282e+06
221 3 O 0.859602 31.9807 1.4948 -1.2 -6.75955 -7.12168e+06 992439 -1.66446e+07 1.16587e+06 -8.42768e+06 1.35265e+06
222 3 O 7.507 34.568 1.4948 -1.2 -9.1471 -5.1019e+06 338197 -2.76307e+06 -935620 -434779 164498
223 3 O 0.210186 34.3001 0.196716 -1.2 -5.94583 -4.6585e+06 -1.26589e+07 -1.08291e+07 1.54115e+06 -7.90202e+06 -1.65999e+06
224 3 O 0.184454 34.3001 2.79288 -1.2 -8.25049 -3.00265e+06 -2.80194e+06 -3.33173e+06 -848849 -130106 68196.8
225 1 Mg 7.07415 37.992 0 1.2 -6.33946 2.88012e+06 1.72745e+06 -2.98283e+06 1.87762e+06 -407577 -666098
226 1 Mg 4.36817 42.6997 1.4948 1.2 -8.75495 -1.50185e+06 3.34439e+06 3.63174e+06 -1.00481e+06 102871 -130236
227 2 Si 6.16058 40.0155 1.4948 2.4 -33.8227 1.15671e+07 8.29665e+06 1.05589e+07 -391786 1.32093e+06 -1.37149e+06
228 3 O 6.22815 41.6288 1.4948 -1.2 -8.67223 -6.00964e+06 -625041 -6.5156e+06 43848.5 -4.5056e+06 -1.53311e+06
229 3 O 2.53282 39.0415 1.4948 -1.2 -9.33951 -4.44859e+06 -721639 -2.18543e+06 1.7149e+06 -350485 -1.19387e+06
230 3 O 5.44674 39.3094 0.196716 -1.2 -7.06234 -4.53307e+06 -1.05714e+07 -5.96331e+06 -149913 -5.78584e+06 1.4096e+06
231 1 Mg 7.04922 37.992 2.9896 1.2 -8.35707 5.22625e+06 -2.23043e+06 -11608.1 1.28656e+06 -1.46061e+06 2.15063e+06
232 3 O 5.42658 39.3094 2.79288 -1.2 -8.54977 -2.61284e+06 -3.55579e+06 -2.31533e+06 1.15948e+06 -306989 -1.26442e+06
233 1 Mg -0.333062 38.0333 4.4844 1.2 -9.29309 -90869 1.90171e+06 3.86794e+06 -404836 -192902 19802.9
234 2 Si -2.12255 40.7174 4.4844 2.4 -33.4698 1.22782e+07 9.209e+06 8.31515e+06 112778 -258314 -760900
235 3 O -2.19212 39.1042 4.4844 -1.2 -8.97184 -4.62308e+06 134537 -4.12612e+06 444975 7904.9 184838
236 3 O 1.50676 41.6915 4.4844 -1.2 -9.03742 -3.76345e+06 -3.15965e+06 -2.70754e+06 2.2498e+06 -352020 350282
237 3 O -1.3884 41.4236 3.18632 -1.2 -8.82168 -2.95307e+06 -3.88078e+06 -972647 1.12415e+06 143017 -1.23053e+06
238 3 O -1.40713 41.4236 5.78248 -1.2 -8.69613 -3.34528e+06 -4.0121e+06 -1.14265e+06 1.09084e+06 160411 2.04953e+06
239 1 Mg 2.01892 40.3665 2.9896 1.2 -8.18812 4.92114e+06 -1.49154e+06 -733740 -1.07556e+06 -1.56189e+06 -1.58784e+06
240 1 Mg 4.83434 40.3252 4.4844 1.2 -9.02825 -200346 2.55113e+06 3.04128e+06 1.163e+06 -130502 -198496
241 2 Si 3.02698 42.39 4.4844 2.4 -33.2126 1.14731e+07 1.01667e+07 7.70417e+06 726971 -123695 -700242
242 3 O 3.05433 44.0033 4.4844 -1.2 -9.39648 -3.82747e+06 -1.14404e+06 -3.11681e+06 621695 15584.1 428777
243 3 O -3.60077 41.416 4.4844 -1.2 -9.09124 -3.99681e+06 -2.902e+06 -2.58738e+06 -1.24594e+06 -180757 359003
244 3 O 3.71851 41.6839 3.18632 -1.2 -8.86981 -2.83213e+06 -4.09278e+06 -1.06337e+06 -824909 254682 1.41248e+06
245 1 Mg 2.04077 40.3665 0 1.2 -6.19282 2.12262e+06 2.18569e+06 -3.95484e+06 -1.83662e+06 437351 1.8751e+06
246 3 O 3.70011 41.6839 5.78248 -1.2 -8.65501 -2.99748e+06 -4.21733e+06 -1.66987e+06 -838637 -7500.52 -782696
247 1 Mg -0.796865 40.4078 1.4948 1.2 -8.89684 -873456 2.73773e+06 4.21743e+06 1.75842e+06 34565.5 135225
248 2 Si 1.01387 38.3429 1.4948 2.4 -34.1694 1.16508e+07 7.80254e+06 1.14597e+07 1.54533e+06 1.43054e+06 2.72816e+06
249 3 O 0.989947 36.7297 1.4948 -1.2 -7.7135 -7.09099e+06 515293 -1.11715e+07 1.03528e+06 -6.60826e+06 1.33672e+06
250 3 O 7.63988 39.317 1.4948 -1.2 -9.40163 -4.54396e+06 -686483 -2.06272e+06 -927788 -252828 851854
251 3 O 0.340253 39.0491 0.196716 -1.2 -7.04958 -4.62773e+06 -1.14199e+07 -5.99595e+06 388836 -5.84516e+06 -1.96852e+06
252 3 O 0.319795 39.0491 2.79288 -1.2 -8.56937 -2.63335e+06 -3.63698e+06 -2.39509e+06 -879752 -187065 819219
253 1 Mg 7.20667 42.741 0 1.2 -6.07707 1.52454e+06 2.66835e+06 -4.45225e+06 1.97951e+06 909601 -2.15101e+06
254 1 Mg 4.50613 47.4487 1.4948 1.2 -8.485 -1.92093e+06 3.9848e+06 2.77476e+06 -848765 398864 -377598
255 2 Si 6.29731 44.7645 1.4948 2.4 -33.0048 1.0906e+07 9.63879e+06 8.54437e+06 -250743 876587 -2.05331e+06
256 3 O 6.36567 46.3778 1.4948 -1.2 -9.3633 -4.76071e+06 -1.32065e+06 -3.86009e+06 185729 -2.69017e+06 -952057
257 3 O 2.669 43.7905 1.4948 -1.2 -9.62258 -3.76001e+06 -1.95138e+06 -1.45979e+06 1.71599e+06 -202614 -687567
258 3 O 5.58048 44.0584 0.196716 -1.2 -8.09687 -3.92914e+06 -8.93541e+06 -2.58141e+06 328787 -3.70775e+06 2.59683e+06
259 1 Mg 7.1879 42.741 2.9896 1.2 -7.9469 4.6459e+06 -1.01021e+06 -1.29529e+06 1.27615e+06 -1.60996e+06 1.61942e+06
260 3 O 5.56564 44.0584 2.79288 -1.2 -8.94084 -2.14898e+06 -4.596e+06 -1.13451e+06 1.14625e+06 -230591 -849694
261 1 Mg -0.19105 42.7823 4.4844 1.2 -8.81433 -778189 3.22474e+06 2.4639e+06 -354172 25689.4 -370789
262 2 Si -1.97909 45.4664 4.4844 2.4 -32.6858 1.12396e+07 1.10961e+07 6.21718e+06 101718 -111654 -813010
263 3 O -2.04947 43.8532 4.4844 -1.2 -9.45342 -4.04052e+06 -1.08894e+06 -2.70679e+06 418871 -4453.32 436957
264 3 O 1.65063 46.4405 4.4844 -1.2 -9.35127 -3.2068e+06 -3.99706e+06 -1.90966e+06 2.30404e+06 -251816 493223
265 3 O -1.24745 46.1726 3.18632 -1.2 -9.12383 -2.41823e+06 -4.6946e+06 -309102 1.14726e+06 67186.9 -1.03954e+06
266 3 O -1.26044 46.1726 5.78248 -1.2 -9.07272 -2.79219e+06 -4.80186e+06 -226101 1.25059e+06 42522.7 1.8648e+06
267 1 Mg 2.15896 45.1155 2.9896 1.2 -7.85715 4.3021e+06 -505144 -1.61549e+06 -1.07044e+06 -1.66406e+06 -1.90954e+06
268 1 Mg 4.97763 45.0742 4.4844 1.2 -8.64 -834739 3.60151e+06 2.00505e+06 1.25487e+06 -197648 -419173
269 2 Si 3.1711 47.139 4.4844 2.4 -32.6331 1.04673e+07 1.16882e+07 6.2644e+06 810005 -155250 -892297