ITEM: TIMESTEP
11500
ITEM: NUMBER OF ATOMS
10500
ITEM: BOX BOUNDS xy xz yz pp pp pp
0.0000000000000000e+00 1.5297450000000000e+01 5.0990000000000002e+00
0.0000000000000000e+00 1.1872499999999999e+02 0.0000000000000000e+00
0.0000000000000000e+00 8.9688000000000002e+01 0.0000000000000000e+00
ITEM: ATOMS id type element xu yu zu q c_pe c_s[1] c_s[2] c_s[3] c_s[4] c_s[5] c_s[6]
1 1 Mg 6.2404 -6.37941e-06 0 1.2 -3.97981 7.1879e+06 -1.56686e+06 -6.50564e+06 -25715.5 2.62191e+06 -58301.8
2 1 Mg 3.46349 4.70768 1.4948 1.2 -8.1082 -961075 2.85657e+06 4.19136e+06 -937978 -621909 663175
3 2 Si 5.2885 2.02354 1.4948 2.4 -34.3316 8.46948e+06 1.16316e+07 1.06967e+07 8.86259e+06 691526 -2.35533e+06
4 3 O 5.33628 3.63678 1.4948 -1.2 -5.13613 -125823 -1.68374e+06 -3.34595e+07 -335496 3.81188e+06 -4.38244e+06
5 3 O 1.67294 1.04952 1.4948 -1.2 -1.53052 -1.95403e+07 -7.97751e+07 -1.75865e+06 -2.41365e+07 -129757 -363105
6 3 O 4.59532 1.31737 0.196716 -1.2 -3.46705 -1.22024e+06 -6.96498e+06 -3.02396e+07 -6.03503e+06 6.23044e+06 -2.91254e+06
7 1 Mg 6.18956 -6.37941e-06 2.9896 1.2 -4.38899 670360 -2.77614e+07 -3.42151e+06 -8.84876e+06 2.43947e+06 4.17419e+06
8 3 O 4.55118 1.31737 2.79288 -1.2 -8.0163 1.00244e+06 -5.13427e+06 -2.76469e+06 -2.96397e+06 -3.39722e+06 -1.43043e+06
9 1 Mg -1.20682 0.0413099 4.4844 1.2 9.55576 -3.16969e+07 -9.29649e+07 -775290 -2.84987e+07 -1.20192e+06 230279
10 2 Si -3.0337 2.72544 4.4844 2.4 -32.0388 1.26356e+07 7.75534e+06 7.3158e+06 1.59089e+06 74183.7 538474
11 3 O -3.08099 1.11221 4.4844 -1.2 -10.2162 -5.21941e+06 -488796 -1.62971e+06 -1.20433e+06 -209687 -31042
12 3 O 0.582463 3.69946 4.4844 -1.2 -9.48677 -2.47251e+06 -5.71907e+06 -2.57185e+06 -555715 -184891 -739327
13 3 O -2.29524 3.43162 3.18632 -1.2 -9.53334 -3.48821e+06 -2.78914e+06 -284403 1.09643e+06 -812187 -1.50773e+06
14 3 O -2.34216 3.43162 5.78248 -1.2 -9.398 -3.02176e+06 -3.40708e+06 -1.49135e+06 813665 558801 554925
15 1 Mg 1.12778 2.37449 2.9896 1.2 -7.09706 4.3761e+06 -1.2881e+06 -1.03741e+06 -3.27993e+06 -4.17102e+06 -1.80513e+06
16 1 Mg 3.92855 2.33318 4.4844 1.2 -7.92625 -5.10202e+06 5.39935e+06 4.42905e+06 1.41069e+06 276384 998405
17 2 Si 2.09341 4.39804 4.4844 2.4 -31.4666 1.04606e+07 7.18315e+06 8.70006e+06 186032 -174127 1.89942e+06
18 3 O 2.09991 6.01128 4.4844 -1.2 -9.86123 -3.36846e+06 -22285.4 -3.95832e+06 578257 -194360 -827198
19 3 O -4.52137 3.42402 4.4844 -1.2 -9.66575 -2.0886e+06 -3.20231e+06 -3.31188e+06 -2.4254e+06 -844989 -592508
20 3 O 2.80834 3.69187 3.18632 -1.2 -9.78218 -1.35348e+06 -3.08628e+06 -206377 455999 -504879 -1.07151e+06
21 1 Mg 1.17857 2.37449 0 1.2 -4.71061 -1.27787e+06 -1.45904e+07 -6.66803e+06 6.52903e+06 1.1841e+06 4.93793e+06
22 3 O 2.76143 3.69187 5.78248 -1.2 -9.85153 -1.83924e+06 -2.76933e+06 -1.05916e+06 504270 39910.3 -747387
23 1 Mg -1.67381 2.41581 1.4948 1.2 -7.12228 858444 73219.3 3.74567e+06 1.34766e+06 -589472 1.41765e+06
24 2 Si 0.16286 0.350945 1.4948 2.4 -23.5674 -9.75527e+06 1.31353e+07 1.0677e+07 1.58582e+06 2.83377e+06 1.59986e+06
25 3 O 0.15972 -1.26229 1.4948 -1.2 -5.26896 -9.87745e+06 -8.34012e+06 -2.86138e+07 -5.60082e+06 -8.52778e+06 -2.69071e+06
26 3 O 6.77654 1.32496 1.4948 -1.2 -10.8336 -4.97839e+06 1.42573e+06 -1.03502e+06 -636233 -641667 782256
27 3 O -0.508028 1.05712 0.196716 -1.2 -9.97605 797372 -4.95176e+06 -393816 -543737 209619 -4.80265e+06
28 3 O -0.552171 1.05712 2.79288 -1.2 -7.33544 -4.51088e+06 -4.99614e+06 -2.42219e+07 1.42448e+06 -6.79332e+06 -5.79673e+06
29 1 Mg 6.31713 4.74899 0 1.2 -4.5928 -186096 -1.27968e+07 -6.21094e+06 -7.30475e+06 1.45963e+06 -3.07237e+06
30 1 Mg 3.54847 9.45668 1.4948 1.2 -8.15905 -5924.81 1.46344e+06 4.68945e+06 -963084 -927338 376208
31 2 Si 5.36879 6.77254 1.4948 2.4 -33.7226 6.36297e+06 1.20318e+07 1.15829e+07 1.67919e+06 173122 -583437
32 3 O 5.41937 8.38578 1.4948 -1.2 -4.97851 15506.3 -783257 -3.53584e+07 757812 1.08871e+06 -4.93769e+06
33 3 O 1.75158 5.79852 1.4948 -1.2 -9.83009 -3.45787e+06 -2.43399e+06 -1.37109e+06 1.97984e+06 -1.58635e+06 -1.99245e+06
34 3 O 4.67421 6.06637 0.196716 -1.2 -4.07029 654124 -1.01551e+07 -3.14577e+07 -2.0076e+06 1.282e+06 -5.06227e+06
35 1 Mg 6.26654 4.74899 2.9896 1.2 -7.62864 3.47112e+06 -1.50896e+06 -169832 1.81113e+06 -855728 2.56915e+06
36 3 O 4.63043 6.06637 2.79288 -1.2 -9.18203 -1.0597e+06 -4.01355e+06 -2.17157e+06 933302 -112568 -2.14426e+06
37 1 Mg -1.12976 4.79031 4.4844 1.2 -8.33741 -1.26522e+06 2.87785e+06 2.61331e+06 -697849 -448576 579606
38 2 Si -2.9517 7.47444 4.4844 2.4 -32.2726 1.03976e+07 8.6895e+06 8.7739e+06 183792 -12672.2 1.46014e+06
39 3 O -3.00198 5.86121 4.4844 -1.2 -9.81854 -3.40854e+06 -191756 -3.68163e+06 22246 -203700 -666660
40 3 O 0.666315 8.44846 4.4844 -1.2 -9.49354 -2.98409e+06 -2.42896e+06 -3.4463e+06 2.19396e+06 -435825 -770150
41 3 O -2.21213 8.18062 3.18632 -1.2 -9.32687 -2.56709e+06 -3.22268e+06 -807919 1.07336e+06 -314888 -2.20728e+06
42 3 O -2.25864 8.18062 5.78248 -1.2 -9.25841 -2.48973e+06 -3.48639e+06 -1.81561e+06 927145 -116799 520237
43 1 Mg 1.20893 7.12349 2.9896 1.2 -7.70804 3.65717e+06 -1.66815e+06 -89888.7 -1.31318e+06 -1.33462e+06 -938961
44 1 Mg 4.00982 7.08218 4.4844 1.2 -8.37404 -1.33557e+06 2.45856e+06 3.2138e+06 1.00573e+06 -272291 812889
45 2 Si 2.17861 9.14704 4.4844 2.4 -32.4705 1.06382e+07 8.38668e+06 9.12641e+06 432616 -180963 1.56297e+06
46 3 O 2.18828 10.7603 4.4844 -1.2 -9.54763 -3.81646e+06 250018 -4.2675e+06 470989 -82606.2 -761650
47 3 O -4.43805 8.17302 4.4844 -1.2 -9.54834 -2.99732e+06 -2.43618e+06 -3.30555e+06 -1.58184e+06 -517085 -775972
48 3 O 2.89193 8.44087 3.18632 -1.2 -9.32599 -2.44403e+06 -3.38482e+06 -922268 -895004 -214539 538493
49 1 Mg 1.25915 7.12349 0 1.2 -5.05201 541336 -7.63859e+06 -6.25671e+06 5.88311e+06 1.34623e+06 3.24881e+06
50 3 O 2.84547 8.44087 5.78248 -1.2 -9.22826 -2.50177e+06 -3.55633e+06 -2.03424e+06 -787607 -113281 -1.83415e+06
51 1 Mg -1.59284 7.16481 1.4948 1.2 -7.97451 399797 1.30412e+06 4.34596e+06 1.46816e+06 -917849 1.03164e+06
52 2 Si 0.240329 5.09994 1.4948 2.4 -33.3371 7.17637e+06 1.11717e+07 1.10126e+07 -1.96926e+06 -1.07862e+06 3.16512e+06
53 3 O 0.234538 3.48671 1.4948 -1.2 -5.64857 -1.12255e+06 169489 -3.35314e+07 401733 5.18823e+06 3.46292e+06
54 3 O 6.85564 6.07396 1.4948 -1.2 -9.90054 -3.91012e+06 -1.85523e+06 -1.3468e+06 -1.35579e+06 -1.84031e+06 508843
55 3 O -0.429565 5.80612 0.196716 -1.2 -4.33988 -201045 -8.81433e+06 -3.14677e+07 1.84906e+06 1.21131e+06 3.96269e+06
56 3 O -0.473377 5.80612 2.79288 -1.2 -9.29468 -1.60584e+06 -3.6112e+06 -1.94924e+06 -778740 315528 620509
57 1 Mg 6.40169 9.49799 0 1.2 -5.09775 1.29348e+06 -6.6976e+06 -6.36361e+06 -5.48174e+06 1.0159e+06 -1.80625e+06
58 1 Mg 3.64209 14.2057 1.4948 1.2 -8.41301 195990 1.09493e+06 5.22204e+06 -1.02831e+06 -987528 221086
59 2 Si 5.45748 11.5215 1.4948 2.4 -34.0942 7.32934e+06 1.07039e+07 1.25159e+07 890333 375465 -900247
60 3 O 5.51101 13.1348 1.4948 -1.2 -4.8185 -490004 -227327 -3.54847e+07 475293 -2.54495e+06 -4.89389e+06
61 3 O 1.83851 10.5475 1.4948 -1.2 -9.69854 -4.0091e+06 -1.4721e+06 -1.7205e+06 1.54278e+06 -1.55588e+06 -1.76298e+06
62 3 O 4.7611 10.8154 0.196716 -1.2 -3.74815 767311 -1.10729e+07 -3.23916e+07 -2.47328e+06 -1.77652e+06 -4.8985e+06
63 1 Mg 6.35203 9.49799 2.9896 1.2 -7.80411 3.86326e+06 -1.91823e+06 126132 1.33608e+06 -1.14791e+06 2.72767e+06
64 3 O 4.71833 10.8154 2.79288 -1.2 -8.9809 -1.70252e+06 -3.33127e+06 -2.54419e+06 1.05353e+06 19703.8 -2.00346e+06
65 1 Mg -1.0438 9.53931 4.4844 1.2 -8.5388 -1.17023e+06 2.16132e+06 3.52257e+06 -549846 -276012 794547
66 2 Si -2.8604 12.2234 4.4844 2.4 -32.8786 1.14125e+07 7.53895e+06 9.88956e+06 -134996 121273 1.31845e+06
67 3 O -2.91391 10.6102 4.4844 -1.2 -9.55769 -3.79548e+06 302625 -4.21372e+06 201014 -288828 -764739
68 3 O 0.7596 13.1975 4.4844 -1.2 -9.17698 -3.37717e+06 -1.928e+06 -4.0604e+06 2.06328e+06 -469654 -547313
69 3 O -2.12001 12.9296 3.18632 -1.2 -9.06615 -2.9096e+06 -2.75839e+06 -1.34917e+06 1.17176e+06 -267166 -2.07108e+06
70 3 O -2.16532 12.9296 5.78248 -1.2 -8.8393 -3.17539e+06 -2.89056e+06 -2.53054e+06 1.21681e+06 -190611 810038
71 1 Mg 1.29891 11.8725 2.9896 1.2 -7.95627 4.07556e+06 -2.12864e+06 346770 -1.1642e+06 -1.2665e+06 -1.02394e+06
72 1 Mg 4.10033 11.8312 4.4844 1.2 -8.63763 -688735 1.94544e+06 3.50389e+06 1.10018e+06 -324398 813632
73 2 Si 2.27333 13.896 4.4844 2.4 -33.0525 1.14762e+07 7.30427e+06 1.0302e+07 798656 -176230 1.19473e+06
74 3 O 2.28634 15.5093 4.4844 -1.2 -9.31113 -4.08384e+06 645323 -4.77661e+06 414139 -175947 -336803
75 3 O -4.34533 12.922 4.4844 -1.2 -9.26625 -3.57506e+06 -1.84545e+06 -3.76414e+06 -1.40007e+06 -500809 -712311
76 3 O 2.98455 13.1899 3.18632 -1.2 -9.08231 -2.88384e+06 -2.86529e+06 -1.41451e+06 -970697 -113522 693006
77 1 Mg 1.34779 11.8725 0 1.2 -5.43645 2.65952e+06 -3.34156e+06 -6.15715e+06 3.56961e+06 784256 2.16907e+06
78 3 O 2.93934 13.1899 5.78248 -1.2 -8.87772 -3.10698e+06 -3.00398e+06 -2.5121e+06 -973238 -24596.8 -2.04038e+06
79 1 Mg -1.50344 11.9138 1.4948 1.2 -8.27274 402210 1.16395e+06 4.94536e+06 1.56011e+06 -931359 1.01558e+06
80 2 Si 0.326006 9.84894 1.4948 2.4 -33.926 7.10157e+06 1.10673e+07 1.20832e+07 -616461 75083.7 3.66993e+06
81 3 O 0.317364 8.23571 1.4948 -1.2 -4.98763 -96546.4 -655776 -3.54884e+07 -115239 1.19375e+06 3.4723e+06
82 3 O 6.94307 10.823 1.4948 -1.2 -9.72742 -4.19333e+06 -1.25847e+06 -1.6633e+06 -986204 -1.55462e+06 399812
83 3 O -0.343122 10.5551 0.196716 -1.2 -3.85512 489178 -1.054e+07 -3.24396e+07 2.46673e+06 -2.03178e+06 3.87769e+06
84 3 O -0.385966 10.5551 2.79288 -1.2 -9.01428 -1.67266e+06 -3.38375e+06 -2.61133e+06 -861580 98993.1 400489
85 1 Mg 6.49448 14.247 0 1.2 -5.48526 3.27426e+06 -2.70667e+06 -6.14221e+06 -2.97197e+06 271840 -1.01562e+06
86 1 Mg 3.74457 18.9547 1.4948 1.2 -8.63163 211896 1.17137e+06 5.40279e+06 -1.11351e+06 -989505 53094.5
87 2 Si 5.55495 16.2705 1.4948 2.4 -34.4035 8.08305e+06 9.95017e+06 1.30302e+07 526207 757925 -1.4385e+06
88 3 O 5.6115 17.8838 1.4948 -1.2 -4.98979 -1.72468e+06 -44052.7 -3.29285e+07 71620.3 -6.03102e+06 -4.50075e+06
89 3 O 1.93416 15.2965 1.4948 -1.2 -9.55657 -4.36438e+06 -828488 -1.98658e+06 1.52577e+06 -1.36821e+06 -1.49926e+06
90 3 O 4.85636 15.5644 0.196716 -1.2 -3.60167 530206 -1.24602e+07 -3.11686e+07 -3.04044e+06 -5.11801e+06 -4.22485e+06
91 1 Mg 6.44662 14.247 2.9896 1.2 -8.01441 4.31952e+06 -2.3813e+06 468969 1.25837e+06 -1.1937e+06 2.48901e+06
92 3 O 4.81537 15.5644 2.79288 -1.2 -8.77119 -1.97333e+06 -3.02487e+06 -2.94657e+06 1.07679e+06 16254.6 -1.69887e+06
93 1 Mg -0.948271 14.2883 4.4844 1.2 -8.79906 -720603 1.6965e+06 3.94647e+06 -536060 -199709 349685
94 2 Si -2.75928 16.9724 4.4844 2.4 -33.12 1.19987e+07 7.43528e+06 9.78677e+06 -56337.8 -199968 509987
95 3 O -2.81617 15.3592 4.4844 -1.2 -9.34896 -4.22311e+06 651826 -4.46658e+06 331639 -129891 -314221
96 3 O 0.862762 17.9465 4.4844 -1.2 -9.08074 -3.60028e+06 -1.98397e+06 -3.95521e+06 2.20057e+06 -587851 -198793
97 3 O -2.0185 17.6786 3.18632 -1.2 -8.92384 -3.16201e+06 -2.72943e+06 -1.37934e+06 1.16962e+06 -151447 -1.82229e+06
98 3 O -2.06164 17.6786 5.78248 -1.2 -8.8715 -3.34291e+06 -3.01288e+06 -2.04822e+06 1.12779e+06 -56395.9 1.07557e+06
99 1 Mg 1.39817 16.6215 2.9896 1.2 -8.10964 4.42243e+06 -2.31031e+06 425100 -1.15473e+06 -1.19059e+06 -1.33379e+06
100 1 Mg 4.20062 16.5802 4.4844 1.2 -8.83938 -528643 1.73585e+06 3.8781e+06 1.15328e+06 -369290 322022
101 2 Si 2.37796 18.645 4.4844 2.4 -33.2684 1.17781e+07 7.48222e+06 1.01609e+07 696497 -29516 506547
102 3 O 2.39434 20.2583 4.4844 -1.2 -9.18565 -4.36077e+06 647629 -4.71202e+06 518596 -166551 -225481
103 3 O -4.24274 17.671 4.4844 -1.2 -9.13747 -3.75825e+06 -1.86077e+06 -3.78274e+06 -1.43682e+06 -365006 -321419
104 3 O 3.08659 17.9389 3.18632 -1.2 -8.92742 -3.06706e+06 -2.82926e+06 -1.55795e+06 -949689 -61119.3 1.0062e+06
105 1 Mg 1.44478 16.6215 0 1.2 -5.68824 4.56771e+06 -560803 -5.99954e+06 1.39093e+06 -64684.5 1.35033e+06
106 3 O 3.0436 17.9389 5.78248 -1.2 -8.77726 -3.01361e+06 -3.1497e+06 -2.57374e+06 -963519 -100833 -1.35828e+06
107 1 Mg -1.40524 16.6628 1.4948 1.2 -8.50101 487943 1.13535e+06 5.20635e+06 1.68425e+06 -948751 755766
108 2 Si 0.420358 14.5979 1.4948 2.4 -34.307 7.81359e+06 1.01775e+07 1.28557e+07 -120234 575286 3.45288e+06
109 3 O 0.408732 12.9847 1.4948 -1.2 -4.80998 -492786 -220619 -3.56364e+07 217446 -2.55298e+06 3.69016e+06
110 3 O 7.03923 15.572 1.4948 -1.2 -9.59028 -4.52996e+06 -677007 -1.88685e+06 -937427 -1.31066e+06 579608
111 3 O -0.248332 15.3041 0.196716 -1.2 -3.71732 180553 -1.19952e+07 -3.11518e+07 3.26112e+06 -5.42065e+06 3.51192e+06
112 3 O -0.289436 15.3041 2.79288 -1.2 -8.81335 -1.96935e+06 -3.13888e+06 -2.92545e+06 -863636 1179.63 689137
113 1 Mg 6.59566 18.996 0 1.2 -5.73872 4.8524e+06 -149349 -5.82838e+06 -904323 -681087 -587156
114 1 Mg 3.85574 23.7037 1.4948 1.2 -8.90381 265076 1.01402e+06 5.80318e+06 -1.18402e+06 -922270 -33583
115 2 Si 5.66125 21.0195 1.4948 2.4 -34.6423 9.03693e+06 9.21452e+06 1.32563e+07 200633 1.18504e+06 -1.86785e+06
116 3 O 5.72074 22.6328 1.4948 -1.2 -5.41162 -3.69612e+06 349573 -2.83335e+07 -224636 -8.49798e+06 -3.87165e+06
117 3 O 2.03867 20.0455 1.4948 -1.2 -9.43828 -4.62658e+06 -472349 -2.06793e+06 1.57826e+06 -1.15438e+06 -1.24662e+06
118 3 O 4.96004 20.3134 0.196716 -1.2 -3.78719 -425579 -1.37716e+07 -2.74181e+07 -3.18872e+06 -7.91513e+06 -2.99146e+06
119 1 Mg 6.55057 18.996 2.9896 1.2 -8.13957 4.61779e+06 -2.41766e+06 408091 1.31394e+06 -1.23809e+06 2.29718e+06
120 3 O 4.92172 20.3134 2.79288 -1.2 -8.60994 -2.20375e+06 -2.97005e+06 -3.06622e+06 1.06639e+06 -56507.4 -1.52036e+06
121 1 Mg -0.84282 19.0373 4.4844 1.2 -8.89038 -561634 1.77175e+06 3.84811e+06 -557095 -213849 313188
122 2 Si -2.64823 21.7214 4.4844 2.4 -33.5303 1.2543e+07 6.88653e+06 1.04557e+07 30537.3 -97305.7 436307
123 3 O -2.70847 20.1082 4.4844 -1.2 -9.21214 -4.41653e+06 697843 -4.53221e+06 293283 -133213 -337455
124 3 O 0.97581 22.6955 4.4844 -1.2 -8.8622 -3.99121e+06 -1.68222e+06 -4.20956e+06 2.22545e+06 -445421 -107139
125 3 O -1.9076 22.4276 3.18632 -1.2 -8.71639 -3.40384e+06 -2.47368e+06 -1.75934e+06 1.16574e+06 -74734.9 -1.70587e+06
126 3 O -1.9475 22.4276 5.78248 -1.2 -8.55453 -3.65159e+06 -2.60252e+06 -2.66957e+06 1.14754e+06 -160433 1.35539e+06
127 1 Mg 1.50678 21.3705 2.9896 1.2 -8.26323 4.80633e+06 -2.49512e+06 472076 -1.17741e+06 -1.24783e+06 -1.40918e+06
128 1 Mg 4.31086 21.3292 4.4844 1.2 -9.0087 -244704 1.59073e+06 4.01342e+06 1.19939e+06 -275268 260959
129 2 Si 2.49243 23.394 4.4844 2.4 -33.6837 1.26892e+07 6.85665e+06 1.05442e+07 728404 -128498 261597
130 3 O 2.51204 25.0073 4.4844 -1.2 -8.98736 -4.77011e+06 884551 -4.85837e+06 501882 -130462 -73517.4
131 3 O -4.13026 22.42 4.4844 -1.2 -8.93521 -4.09448e+06 -1.57659e+06 -4.05056e+06 -1.40998e+06 -412880 -223897
132 3 O 3.19799 22.6879 3.18632 -1.2 -8.73548 -3.39519e+06 -2.58665e+06 -1.83559e+06 -924451 21395.6 1.11853e+06
133 1 Mg 1.5501 21.3705 0 1.2 -5.90878 5.71146e+06 776222 -5.34849e+06 -73885.9 -966822 620643
134 3 O 3.1583 22.6879 5.78248 -1.2 -8.56175 -3.59121e+06 -2.8106e+06 -2.70706e+06 -910827 -190860 -1.31443e+06
135 1 Mg -1.29822 21.4118 1.4948 1.2 -8.7497 496405 1.10266e+06 5.52463e+06 1.8047e+06 -929404 509582
136 2 Si 0.523568 19.3469 1.4948 2.4 -34.5403 8.61839e+06 9.69363e+06 1.29365e+07 287739 1.03621e+06 3.17869e+06
137 3 O 0.508934 17.7337 1.4948 -1.2 -4.98672 -1.76121e+06 -41408.6 -3.30347e+07 674582 -6.10416e+06 3.71623e+06
138 3 O 7.14425 20.321 1.4948 -1.2 -9.46815 -4.77614e+06 -307574 -2.01496e+06 -944780 -1.06646e+06 746141
139 3 O -0.145107 20.0531 0.196716 -1.2 -3.90402 -797718 -1.34527e+07 -2.73816e+07 3.68568e+06 -8.22397e+06 2.81845e+06
140 3 O -0.183601 20.0531 2.79288 -1.2 -8.66033 -2.20024e+06 -3.09881e+06 -3.03063e+06 -827536 -39159.3 765319
141 1 Mg 6.70502 23.745 0 1.2 -6.04033 5.6952e+06 716356 -4.66986e+06 418271 -1.50485e+06 -423351
142 1 Mg 3.97493 28.4527 1.4948 1.2 -9.13339 170673 1.10637e+06 5.94043e+06 -1.21743e+06 -740126 191572
143 2 Si 5.77602 25.7685 1.4948 2.4 -34.8931 1.02781e+07 7.99616e+06 1.3723e+07 -106018 1.54909e+06 -1.82343e+06
144 3 O 5.83821 27.3818 1.4948 -1.2 -6.03774 -5.6956e+06 703661 -2.24496e+07 -340560 -9.31063e+06 -3.37278e+06
145 3 O 2.15175 24.7945 1.4948 -1.2 -9.25904 -4.92746e+06 84466.6 -2.47653e+06 1.61467e+06 -926638 -1.10766e+06
146 3 O 5.07184 25.0624 0.196716 -1.2 -4.20478 -2.04434e+06 -1.39905e+07 -2.22899e+07 -2.78261e+06 -9.4193e+06 -1.66266e+06
147 1 Mg 6.66374 23.745 2.9896 1.2 -8.32249 4.99358e+06 -2.70768e+06 618265 1.31978e+06 -1.24593e+06 2.15138e+06
148 3 O 5.03707 25.0624 2.79288 -1.2 -8.41592 -2.53511e+06 -2.71703e+06 -3.339e+06 1.07103e+06 -160762 -1.42129e+06
149 1 Mg -0.727559 23.7863 4.4844 1.2 -9.14025 -291130 1.51084e+06 4.23368e+06 -529816 -213377 95207.7
150 2 Si -2.5277 26.4704 4.4844 2.4 -33.9498 1.29155e+07 6.80347e+06 1.08441e+07 -49547 -221113 484293
151 3 O -2.59107 24.8572 4.4844 -1.2 -8.99211 -4.68451e+06 820484 -4.72373e+06 377406 -103101 -187673
152 3 O 1.09817 27.4445 4.4844 -1.2 -8.7275 -4.39659e+06 -1.599e+06 -4.1124e+06 2.26645e+06 -393088 -58223.8
153 3 O -1.78784 27.1766 3.18632 -1.2 -8.52327 -3.59528e+06 -2.34848e+06 -2.06e+06 1.19511e+06 70528 -1.73389e+06
154 3 O -1.82343 27.1766 5.78248 -1.2 -8.30857 -3.75004e+06 -2.71659e+06 -2.86718e+06 1.30569e+06 135601 1.17421e+06
155 1 Mg 1.62435 26.1195 2.9896 1.2 -8.42822 5.22265e+06 -2.73579e+06 563900 -1.15217e+06 -1.31348e+06 -1.44674e+06
156 1 Mg 4.43064 26.0782 4.4844 1.2 -9.18865 71385.7 1.45735e+06 4.11862e+06 1.27678e+06 -176263 206104
157 2 Si 2.61607 28.143 4.4844 2.4 -33.9226 1.33361e+07 6.67809e+06 1.04579e+07 809192 43880.1 211964
158 3 O 2.63853 29.7563 4.4844 -1.2 -8.91222 -5.02915e+06 870458 -4.71227e+06 559413 -184305 -44457.2
159 3 O -4.00841 27.169 4.4844 -1.2 -8.73992 -4.30575e+06 -1.50044e+06 -4.23128e+06 -1.39751e+06 -454038 -294311
160 3 O 3.3182 27.4369 3.18632 -1.2 -8.5693 -3.66013e+06 -2.46093e+06 -2.04004e+06 -930659 48798.1 1.09532e+06
161 1 Mg 1.66335 26.1195 0 1.2 -6.204 5.89346e+06 961051 -4.02279e+06 -890671 -1.56672e+06 493477
162 3 O 3.28288 27.4369 5.78248 -1.2 -8.41684 -3.85591e+06 -2.70482e+06 -2.79561e+06 -1.03236e+06 -280804 -1.33047e+06
163 1 Mg -1.18278 26.1608 1.4948 1.2 -9.0263 479542 976924 5.91814e+06 1.87576e+06 -854470 439710
164 2 Si 0.635424 24.0959 1.4948 2.4 -34.8286 9.77245e+06 8.49177e+06 1.35137e+07 733776 1.37095e+06 2.90871e+06
165 3 O 0.617906 22.4827 1.4948 -1.2 -5.40953 -3.73667e+06 352069 -2.8434e+07 1.01956e+06 -8.5468e+06 3.45644e+06
166 3 O 7.25781 25.07 1.4948 -1.2 -9.28701 -5.0466e+06 224813 -2.4469e+06 -933676 -832684 804267
167 3 O -0.0337363 24.8021 0.196716 -1.2 -4.3042 -2.36434e+06 -1.39598e+07 -2.22535e+07 3.50184e+06 -9.64729e+06 1.65937e+06
168 3 O -0.0687235 24.8021 2.79288 -1.2 -8.45943 -2.52257e+06 -2.83835e+06 -3.33985e+06 -813557 -64429.4 850892
169 1 Mg 6.82195 28.494 0 1.2 -6.32146 5.50624e+06 1.03271e+06 -3.46734e+06 1.13721e+06 -1.82855e+06 -22725.2
170 1 Mg 4.10106 33.2017 1.4948 1.2 -9.24013 -163999 1.82884e+06 5.38317e+06 -1.20618e+06 -503180 296688
171 2 Si 5.89839 30.5175 1.4948 2.4 -34.904 1.1272e+07 7.71098e+06 1.31147e+07 -348627 1.75991e+06 -1.38083e+06
172 3 O 5.96289 32.1308 1.4948 -1.2 -6.83755 -6.90625e+06 396760 -1.59954e+07 -274779 -8.49167e+06 -2.82026e+06
173 3 O 2.27266 29.5435 1.4948 -1.2 -9.14406 -5.06767e+06 155411 -2.54374e+06 1.64926e+06 -716336 -1.26021e+06
174 3 O 5.19102 29.8114 0.196716 -1.2 -4.93108 -3.57334e+06 -1.36274e+07 -1.61579e+07 -1.92309e+06 -9.32382e+06 -652255
175 1 Mg 6.78546 28.494 2.9896 1.2 -8.46596 5.23085e+06 -2.79421e+06 702854 1.31546e+06 -1.29115e+06 2.1975e+06
176 3 O 5.16061 29.8114 2.79288 -1.2 -8.30256 -2.73538e+06 -2.7858e+06 -3.29066e+06 1.10725e+06 -293905 -1.44083e+06
177 1 Mg -0.603205 28.5353 4.4844 1.2 -9.2821 -58525 1.45676e+06 4.27379e+06 -523093 -389318 144143
178 2 Si -2.39877 31.2194 4.4844 2.4 -34.1396 1.30152e+07 7.14857e+06 1.07089e+07 75437.7 -264778 -67373.5
179 3 O -2.46483 29.6062 4.4844 -1.2 -8.82446 -4.7495e+06 858250 -4.95902e+06 376760 -5519.95 -102014
180 3 O 1.22864 32.1935 4.4844 -1.2 -8.7002 -4.50353e+06 -1.89195e+06 -3.76241e+06 2.20661e+06 -314405 31645.8
181 3 O -1.66032 31.9256 3.18632 -1.2 -8.44949 -3.63964e+06 -2.69109e+06 -1.86866e+06 1.15454e+06 156299 -1.62179e+06
182 3 O -1.69072 31.9256 5.78248 -1.2 -8.25464 -3.74345e+06 -2.89203e+06 -2.71979e+06 1.13354e+06 96841 1.73648e+06
183 1 Mg 1.7499 30.8685 2.9896 1.2 -8.48631 5.45481e+06 -2.53226e+06 227817 -1.1271e+06 -1.40033e+06 -1.37277e+06
184 1 Mg 4.55894 30.8272 4.4844 1.2 -9.27445 179326 1.60166e+06 4.0055e+06 1.19642e+06 -34216.2 38565.4
185 2 Si 2.7476 32.892 4.4844 2.4 -33.9742 1.3342e+07 7.56429e+06 9.64763e+06 802416 -1245.28 63971.3
186 3 O 2.77235 34.5053 4.4844 -1.2 -8.87058 -4.93129e+06 313148 -4.32196e+06 540167 -159802 -7134.81
187 3 O -3.87837 31.918 4.4844 -1.2 -8.68638 -4.37971e+06 -1.83586e+06 -3.90766e+06 -1.28776e+06 -428108 -325.098
188 3 O 3.44611 32.1859 3.18632 -1.2 -8.50649 -3.68043e+06 -2.87199e+06 -1.803e+06 -875214 107952 1.09633e+06
189 1 Mg 1.7837 30.8685 0 1.2 -6.40115 5.03678e+06 1.37942e+06 -3.3292e+06 -1.33035e+06 -1.55825e+06 934143
190 3 O 3.41602 32.1859 5.78248 -1.2 -8.43526 -3.82376e+06 -3.04149e+06 -2.354e+06 -855711 -267266 -1.05569e+06
191 1 Mg -1.05984 30.9098 1.4948 1.2 -9.18275 273558 1.41062e+06 5.63933e+06 1.90748e+06 -677630 507384
192 2 Si 0.755243 28.8449 1.4948 2.4 -34.9406 1.09374e+07 7.76119e+06 1.33437e+07 1.14172e+06 1.53295e+06 3.14219e+06
193 3 O 0.735127 27.2317 1.4948 -1.2 -6.03861 -5.77459e+06 721107 -2.25243e+07 1.17706e+06 -9.30078e+06 2.7757e+06
194 3 O 7.37914 29.819 1.4948 -1.2 -9.17338 -5.14872e+06 252187 -2.52134e+06 -924197 -613403 646568
195 3 O 0.0850649 29.5511 0.196716 -1.2 -5.00025 -3.84331e+06 -1.39352e+07 -1.61162e+07 2.68874e+06 -9.39944e+06 -22335.9
196 3 O 0.0543974 29.5511 2.79288 -1.2 -8.35475 -2.78475e+06 -2.89044e+06 -3.24613e+06 -830292 -48716.7 740957
197 1 Mg 6.94543 33.243 0 1.2 -6.47672 4.45257e+06 1.72969e+06 -3.18838e+06 1.56458e+06 -1.39982e+06 -167797
198 1 Mg 4.23267 37.9507 1.4948 1.2 -9.32585 -447642 2.45773e+06 4.76076e+06 -1.12597e+06 -209804 205218
199 2 Si 6.02709 35.2665 1.4948 2.4 -34.7392 1.20241e+07 8.20437e+06 1.16553e+07 -440992 1.63159e+06 -1.35374e+06
200 3 O 6.09339 36.8798 1.4948 -1.2 -7.57922 -7.19834e+06 -54526.5 -1.05569e+07 -131100 -6.60846e+06 -2.17086e+06
201 3 O 2.40018 34.2925 1.4948 -1.2 -9.10261 -4.99506e+06 -399493 -2.17995e+06 1.67976e+06 -519435 -1.22899e+06
202 3 O 5.31645 34.5604 0.196716 -1.2 -5.84046 -4.56722e+06 -1.26828e+07 -1.0215e+07 -950100 -7.88024e+06 539876
203 1 Mg 6.91449 33.243 2.9896 1.2 -8.48251 5.34041e+06 -2.29214e+06 126057 1.27981e+06 -1.38649e+06 2.06812e+06
204 3 O 5.291 34.5604 2.79288 -1.2 -8.28908 -2.81798e+06 -3.34334e+06 -2.70745e+06 1.15179e+06 -295415 -1.3605e+06
205 1 Mg -0.471101 33.2843 4.4844 1.2 -9.29578 -10101.5 1.88183e+06 3.81698e+06 -385307 -278941 -98322
206 2 Si -2.26307 35.9684 4.4844 2.4 -34.0731 1.32985e+07 8.29694e+06 9.17623e+06 6824.09 -466933 -291429
207 3 O -2.33122 34.3552 4.4844 -1.2 -8.84769 -4.84981e+06 286575 -4.24055e+06 456528 56877.4 114350
208 3 O 1.36549 36.9425 4.4844 -1.2 -8.67563 -4.49721e+06 -2.49336e+06 -3.20894e+06 2.2173e+06 -468966 151147
209 3 O -1.52658 36.6746 3.18632 -1.2 -8.43408 -3.70315e+06 -3.27413e+06 -1.34171e+06 1.15695e+06 200432 -1.50535e+06
210 3 O -1.55122 36.6746 5.78248 -1.2 -8.37082 -4.01912e+06 -3.41798e+06 -1.68316e+06 1.21469e+06 216667 1.81845e+06
211 1 Mg 1.882 35.6175 2.9896 1.2 -8.5051 5.47796e+06 -1.95778e+06 -329570 -1.08384e+06 -1.4311e+06 -1.43919e+06
212 1 Mg 4.69415 35.5762 4.4844 1.2 -9.31118 94783.4 2.17169e+06 3.58041e+06 1.18541e+06 -107174 -7663.12
213 2 Si 2.88522 37.641 4.4844 2.4 -34.0908 1.30379e+07 8.7962e+06 8.9105e+06 833534 158660 -120834
214 3 O 2.91159 39.2543 4.4844 -1.2 -8.81353 -4.824e+06 -263481 -3.93645e+06 600147 -212854 -38483.3
215 3 O -3.74183 36.667 4.4844 -1.2 -8.69119 -4.43371e+06 -2.39683e+06 -3.2847e+06 -1.25543e+06 -175348 60495.3
216 3 O 3.58014 36.9349 3.18632 -1.2 -8.45122 -3.56288e+06 -3.45513e+06 -1.52944e+06 -862939 164993 1.16049e+06
217 1 Mg 1.90997 35.6175 0 1.2 -6.53575 3.81934e+06 1.92002e+06 -3.41532e+06 -1.65024e+06 -818740 1.24454e+06
218 3 O 3.55582 36.9349 5.78248 -1.2 -8.31545 -3.58125e+06 -3.69568e+06 -2.06875e+06 -916919 -203013 -918945
219 1 Mg -0.93068 35.6588 1.4948 1.2 -9.25168 15630.9 2.16436e+06 4.86191e+06 1.85705e+06 -343939 322487
220 2 Si 0.881882 33.5939 1.4948 2.4 -34.8003 1.1781e+07 8.16094e+06 1.19466e+07 1.44241e+06 1.5661e+06 2.94651e+06
221 3 O 0.859602 31.9807 1.4948 -1.2 -6.84118 -7.0281e+06 445449 -1.60603e+07 1.14486e+06 -8.43386e+06 2.05567e+06
222 3 O 7.507 34.568 1.4948 -1.2 -9.14067 -5.11552e+06 -328352 -2.09303e+06 -918512 -420409 753196
223 3 O 0.210186 34.3001 0.196716 -1.2 -5.88949 -4.80411e+06 -1.33547e+07 -1.00772e+07 1.53092e+06 -7.89685e+06 -1.16113e+06
224 3 O 0.184454 34.3001 2.79288 -1.2 -8.34772 -2.92431e+06 -3.42206e+06 -2.6322e+06 -873692 -143666 801968
225 1 Mg 7.07415 37.992 0 1.2 -6.64423 3.34637e+06 2.03569e+06 -3.26899e+06 1.87715e+06 -378552 -958955
226 1 Mg 4.36817 42.6997 1.4948 1.2 -9.41908 -462890 2.64629e+06 4.35496e+06 -1.0021e+06 118865 223047
227 2 Si 6.16058 40.0155 1.4948 2.4 -34.6551 1.28014e+07 8.14172e+06 1.08131e+07 -356343 1.28733e+06 -1.25238e+06
228 3 O 6.22815 41.6288 1.4948 -1.2 -8.10424 -6.87905e+06 -162706 -7.01782e+06 15397.9 -4.5081e+06 -1.78772e+06
229 3 O 2.53282 39.0415 1.4948 -1.2 -9.017 -4.94907e+06 -861047 -2.06161e+06 1.7221e+06 -369496 -1.11625e+06
230 3 O 5.44674 39.3094 0.196716 -1.2 -6.64555 -5.1239e+06 -1.06034e+07 -6.00832e+06 -151970 -5.78618e+06 1.55166e+06
231 1 Mg 7.04922 37.992 2.9896 1.2 -8.49086 5.44061e+06 -1.7799e+06 -462103 1.28509e+06 -1.56404e+06 1.99885e+06
232 3 O 5.42658 39.3094 2.79288 -1.2 -8.26169 -2.96878e+06 -3.7164e+06 -2.25679e+06 1.13777e+06 -259841 -1.31977e+06
233 1 Mg -0.333062 38.0333 4.4844 1.2 -9.26773 140666 2.46042e+06 3.03757e+06 -405591 -123661 -111282
234 2 Si -2.12255 40.7174 4.4844 2.4 -34.1101 1.35065e+07 9.00974e+06 8.31376e+06 258566 -510564 280785
235 3 O -2.19212 39.1042 4.4844 -1.2 -8.86464 -4.96287e+06 -228892 -3.58717e+06 420519 186577 3574.62
236 3 O 1.50676 41.6915 4.4844 -1.2 -8.59601 -4.57719e+06 -2.74523e+06 -3.00557e+06 2.39094e+06 -396286 -152550
237 3 O -1.3884 41.4236 3.18632 -1.2 -8.35746 -3.74825e+06 -3.52367e+06 -1.27556e+06 1.11606e+06 181398 -1.6671e+06
238 3 O -1.40713 41.4236 5.78248 -1.2 -8.35338 -4.03763e+06 -3.70274e+06 -1.27288e+06 1.03551e+06 190967 1.14825e+06
239 1 Mg 2.01892 40.3665 2.9896 1.2 -8.55918 5.53195e+06 -1.59082e+06 -650673 -1.11903e+06 -1.49109e+06 -1.37446e+06
240 1 Mg 4.83434 40.3252 4.4844 1.2 -9.36873 111211 2.56234e+06 3.26706e+06 1.22277e+06 -139759 87487.1
241 2 Si 3.02698 42.39 4.4844 2.4 -34.2681 1.32556e+07 9.05751e+06 8.72385e+06 587717 20591.9 186569
242 3 O 3.05433 44.0033 4.4844 -1.2 -8.73326 -5.0186e+06 -247195 -3.88861e+06 666446 -20231 -116232
243 3 O -3.60077 41.416 4.4844 -1.2 -8.65326 -4.61108e+06 -2.61678e+06 -2.94909e+06 -1.39158e+06 -85428.5 -137300
244 3 O 3.71851 41.6839 3.18632 -1.2 -8.36396 -3.6013e+06 -3.67822e+06 -1.51515e+06 -816059 209453 1.07617e+06
245 1 Mg 2.04077 40.3665 0 1.2 -6.70369 2.95648e+06 1.94227e+06 -3.72678e+06 -1.84861e+06 403809 1.83026e+06
246 3 O 3.70011 41.6839 5.78248 -1.2 -8.18833 -3.6272e+06 -3.92702e+06 -2.14585e+06 -776361 -170347 -1.12398e+06
247 1 Mg -0.796865 40.4078 1.4948 1.2 -9.33628 -105587 2.56249e+06 4.32887e+06 1.75537e+06 33979 259486
248 2 Si 1.01387 38.3429 1.4948 2.4 -34.6745 1.25657e+07 8.37081e+06 1.07858e+07 1.53828e+06 1.48421e+06 2.40306e+06
249 3 O 0.989947 36.7297 1.4948 -1.2 -7.58699 -7.34511e+06 -21720.5 -1.05826e+07 1.02653e+06 -6.63288e+06 1.70247e+06
250 3 O 7.63988 39.317 1.4948 -1.2 -9.05892 -5.10958e+06 -772177 -1.96e+06 -937126 -234662 873900
251 3 O 0.340253 39.0491 0.196716 -1.2 -6.67626 -5.30287e+06 -1.1497e+07 -5.84208e+06 390094 -5.84549e+06 -1.7967e+06
252 3 O 0.319795 39.0491 2.79288 -1.2 -8.33469 -3.11192e+06 -3.85074e+06 -2.0765e+06 -861315 -237114 788400
253 1 Mg 7.20667 42.741 0 1.2 -6.81104 2.68953e+06 1.89764e+06 -3.67062e+06 2.01279e+06 940489 -1.85987e+06
254 1 Mg 4.50613 47.4487 1.4948 1.2 -9.47743 -279457 2.68554e+06 4.02257e+06 -848551 420354 357991
255 2 Si 6.29731 44.7645 1.4948 2.4 -34.6695 1.3535e+07 7.54219e+06 1.06791e+07 -195424 924299 -933059
256 3 O 6.36567 46.3778 1.4948 -1.2 -8.4236 -6.25624e+06 -100186 -5.09053e+06 166154 -2.70664e+06 -1.62551e+06
257 3 O 2.669 43.7905 1.4948 -1.2 -8.87152 -4.98599e+06 -1.04558e+06 -2.34301e+06 1.74363e+06 -200458 -1.15053e+06
258 3 O 5.58048 44.0584 0.196716 -1.2 -7.26196 -5.25082e+06 -7.9429e+06 -3.58974e+06 306100 -3.7283e+06 2.11955e+06
259 1 Mg 7.1879 42.741 2.9896 1.2 -8.56332 5.5902e+06 -1.6769e+06 -585280 1.33225e+06 -1.61569e+06 2.10885e+06
260 3 O 5.56564 44.0584 2.79288 -1.2 -8.20585 -3.3047e+06 -3.68342e+06 -2.06829e+06 1.11363e+06 -279651 -1.37461e+06
261 1 Mg -0.19105 42.7823 4.4844 1.2 -9.38724 168766 2.51062e+06 3.14952e+06 -437364 -63199.5 275635
262 2 Si -1.97909 45.4664 4.4844 2.4 -34.3894 1.36044e+07 8.91566e+06 8.76727e+06 173612 -100985 361771
263 3 O -2.04947 43.8532 4.4844 -1.2 -8.74627 -5.04568e+06 -178026 -3.73618e+06 371756 6482.03 -202489
264 3 O 1.65063 46.4405 4.4844 -1.2 -8.48824 -4.70389e+06 -2.77029e+06 -3.02754e+06 2.3207e+06 -159137 -170402
265 3 O -1.24745 46.1726 3.18632 -1.2 -8.22429 -3.76896e+06 -3.51365e+06 -1.57897e+06 1.13335e+06 100236 -1.68066e+06
266 3 O -1.26044 46.1726 5.78248 -1.2 -8.12366 -3.95268e+06 -3.76591e+06 -1.71182e+06 1.18231e+06 122855 1.35953e+06
267 1 Mg 2.15896 45.1155 2.9896 1.2 -8.65727 5.65634e+06 -1.57994e+06 -613007 -1.10162e+06 -1.69176e+06 -1.31425e+06
268 1 Mg 4.97763 45.0742 4.4844 1.2 -9.40715 438863 2.54511e+06 3.01647e+06 1.26481e+06 -76122.4 148066
269 2 Si 3.1711 47.139 4.4844 2.4 -34.4277 1.36762e+07 9.05913e+06 8.55299e+06 759473 -160021 453319
270 3 O 3.19894 48.7523 4.4844 -1.2 -8.60877 -5.24127e+06 -189023 -3.92362e+06 601997 21941.9 -206910