ITEM: TIMESTEP
10000
ITEM: NUMBER OF ATOMS
10500
ITEM: BOX BOUNDS xy xz yz pp pp pp
0.0000000000000000e+00 1.5297450000000000e+01 5.0990000000000002e+00
0.0000000000000000e+00 1.1872499999999999e+02 0.0000000000000000e+00
0.0000000000000000e+00 8.9688000000000002e+01 0.0000000000000000e+00
ITEM: ATOMS id type element xu yu zu q c_pe c_s[1] c_s[2] c_s[3] c_s[4] c_s[5] c_s[6]
1 1 Mg 6.2404 -6.37941e-06 0 1.2 -5.0547 8.87318e+06 -1.77079e+06 -6.26489e+06 -33738.1 2.61983e+06 -351772
2 1 Mg 3.46349 4.70768 1.4948 1.2 -8.94236 406637 3.07897e+06 3.93771e+06 -936830 -632459 -18125.2
3 2 Si 5.2885 2.02354 1.4948 2.4 -36.2723 1.16272e+07 1.13189e+07 1.0961e+07 8.84728e+06 708719 -3.39431e+06
4 3 O 5.33628 3.63678 1.4948 -1.2 -4.2465 -1.58808e+06 -1.73963e+06 -3.3367e+07 -331528 3.79909e+06 -3.74982e+06
5 3 O 1.67294 1.04952 1.4948 -1.2 -0.51436 -2.11821e+07 -7.9528e+07 -1.99196e+06 -2.4127e+07 -114582 73970.3
6 3 O 4.59532 1.31737 0.196716 -1.2 -2.45099 -2.86245e+06 -6.85643e+06 -3.03332e+07 -6.00987e+06 6.23994e+06 -2.49677e+06
7 1 Mg 6.18956 -6.37941e-06 2.9896 1.2 -5.45448 2.3693e+06 -2.82423e+07 -2.93238e+06 -8.83472e+06 2.45892e+06 3.85873e+06
8 3 O 4.55118 1.31737 2.79288 -1.2 -7.02541 -630556 -4.75187e+06 -3.10377e+06 -2.94825e+06 -3.40488e+06 -942571
9 1 Mg -1.20682 0.0413099 4.4844 1.2 8.46644 -3.00085e+07 -9.35483e+07 -133957 -2.84681e+07 -1.26425e+06 102978
10 2 Si -3.0337 2.72544 4.4844 2.4 -33.8518 1.55466e+07 6.83624e+06 8.2262e+06 1.68192e+06 252693 -1.01911e+06
11 3 O -3.08099 1.11221 4.4844 -1.2 -9.19132 -6.81723e+06 185009 -2.3444e+06 -1.26737e+06 -241543 392082
12 3 O 0.582463 3.69946 4.4844 -1.2 -8.60106 -3.75603e+06 -5.4134e+06 -3.01301e+06 -545727 -142893 134498
13 3 O -2.29524 3.43162 3.18632 -1.2 -8.64769 -4.8726e+06 -2.64844e+06 -459040 1.07881e+06 -871785 -770376
14 3 O -2.34216 3.43162 5.78248 -1.2 -8.56234 -4.35157e+06 -2.90304e+06 -1.89845e+06 728284 382468 1.59477e+06
15 1 Mg 1.12778 2.37449 2.9896 1.2 -8.04603 5.86801e+06 -1.58001e+06 -716994 -3.2898e+06 -4.21198e+06 -2.38291e+06
16 1 Mg 3.92855 2.33318 4.4844 1.2 -8.83079 -3.52579e+06 4.82782e+06 4.87155e+06 1.34625e+06 246065 332066
17 2 Si 2.09341 4.39804 4.4844 2.4 -33.0842 1.30385e+07 6.82214e+06 9.07434e+06 182037 -416183 -117228
18 3 O 2.09991 6.01128 4.4844 -1.2 -9.17221 -4.49811e+06 -319317 -3.63453e+06 535275 -91121.2 346055
19 3 O -4.52137 3.42402 4.4844 -1.2 -8.83661 -3.53612e+06 -2.8518e+06 -3.54929e+06 -2.4227e+06 -883506 287700
20 3 O 2.80834 3.69187 3.18632 -1.2 -8.92329 -2.76733e+06 -2.95242e+06 -304986 467560 -443353 -305316
21 1 Mg 1.17857 2.37449 0 1.2 -5.68892 282392 -1.45858e+07 -6.66548e+06 6.52754e+06 1.18272e+06 4.4291e+06
22 3 O 2.76143 3.69187 5.78248 -1.2 -9.02711 -3.2268e+06 -2.06181e+06 -1.69349e+06 519493 233187 280360
23 1 Mg -1.67381 2.41581 1.4948 1.2 -8.08215 2.36525e+06 -31363 3.88132e+06 1.36546e+06 -576609 873049
24 2 Si 0.16286 0.350945 1.4948 2.4 -25.6662 -6.40669e+06 1.25527e+07 1.12738e+07 1.59994e+06 2.83428e+06 861826
25 3 O 0.15972 -1.26229 1.4948 -1.2 -4.15556 -1.16641e+07 -7.94711e+06 -2.90035e+07 -5.60482e+06 -8.54206e+06 -2.43268e+06
26 3 O 6.77654 1.32496 1.4948 -1.2 -9.82604 -6.5818e+06 1.64777e+06 -1.26766e+06 -645743 -658650 1.23439e+06
27 3 O -0.508028 1.05712 0.196716 -1.2 -8.94803 -835127 -4.83306e+06 -525991 -568980 197891 -4.39056e+06
28 3 O -0.552171 1.05712 2.79288 -1.2 -6.31481 -6.10527e+06 -4.62335e+06 -2.46346e+07 1.4087e+06 -6.78474e+06 -5.38509e+06
29 1 Mg 6.31713 4.74899 0 1.2 -5.46546 1.24152e+06 -1.24646e+07 -6.57265e+06 -7.30874e+06 1.46289e+06 -3.62401e+06
30 1 Mg 3.54847 9.45668 1.4948 1.2 -8.70511 879628 2.72417e+06 3.41805e+06 -950832 -921729 -129106
31 2 Si 5.36879 6.77254 1.4948 2.4 -35.1528 8.70661e+06 1.33229e+07 1.02397e+07 1.6774e+06 208899 -1.9423e+06
32 3 O 5.41937 8.38578 1.4948 -1.2 -4.36303 -978488 -1.79943e+06 -3.43336e+07 760553 1.0748e+06 -4.33717e+06
33 3 O 1.75158 5.79852 1.4948 -1.2 -9.05187 -4.69719e+06 -2.86407e+06 -948184 1.97079e+06 -1.56379e+06 -1.29046e+06
34 3 O 4.67421 6.06637 0.196716 -1.2 -3.27014 -655890 -1.06979e+07 -3.08866e+07 -2.0122e+06 1.26602e+06 -4.50138e+06
35 1 Mg 6.26654 4.74899 2.9896 1.2 -8.42325 4.78724e+06 -1.38553e+06 -336260 1.81115e+06 -806249 1.74905e+06
36 3 O 4.63043 6.06637 2.79288 -1.2 -8.46858 -2.26532e+06 -4.43752e+06 -1.68514e+06 921983 -121681 -1.29811e+06
37 1 Mg -1.12976 4.79031 4.4844 1.2 -9.15118 -116124 2.86706e+06 2.78075e+06 -725144 -376588 -424285
38 2 Si -2.9517 7.47444 4.4844 2.4 -33.4619 1.22004e+07 1.01958e+07 7.38103e+06 31792.6 113106 -805383
39 3 O -3.00198 5.86121 4.4844 -1.2 -9.11504 -4.53043e+06 -439121 -3.43321e+06 60350.8 -307951 405391
40 3 O 0.666315 8.44846 4.4844 -1.2 -9.00091 -3.78402e+06 -3.54126e+06 -2.31436e+06 2.13911e+06 -399419 368656
41 3 O -2.21213 8.18062 3.18632 -1.2 -8.7559 -3.44272e+06 -4.20805e+06 144359 1.11299e+06 -321377 -1.31868e+06
42 3 O -2.25864 8.18062 5.78248 -1.2 -8.70737 -3.19274e+06 -4.58328e+06 -1.11446e+06 1.07285e+06 -104133 1.97092e+06
43 1 Mg 1.20893 7.12349 2.9896 1.2 -8.35913 4.68895e+06 -976523 -770060 -1.29009e+06 -1.37809e+06 -1.84973e+06
44 1 Mg 4.00982 7.08218 4.4844 1.2 -8.95602 -288789 3.08293e+06 2.47478e+06 1.05042e+06 -259976 -295598
45 2 Si 2.17861 9.14704 4.4844 2.4 -33.308 1.20615e+07 1.10351e+07 6.40078e+06 591101 -141127 -398900
46 3 O 2.18828 10.7603 4.4844 -1.2 -9.27186 -4.28949e+06 -1.541e+06 -2.44114e+06 436355 -152078 -127250
47 3 O -4.43805 8.17302 4.4844 -1.2 -9.03422 -3.83231e+06 -3.42368e+06 -2.2946e+06 -1.53873e+06 -571601 287876
48 3 O 2.89193 8.44087 3.18632 -1.2 -8.78817 -3.33921e+06 -4.43728e+06 166106 -932429 -212019 1.37342e+06
49 1 Mg 1.25915 7.12349 0 1.2 -5.80516 1.73367e+06 -6.88789e+06 -6.99309e+06 5.89241e+06 1.34054e+06 2.76136e+06
50 3 O 2.84547 8.44087 5.78248 -1.2 -8.79932 -3.25593e+06 -4.69555e+06 -918449 -913622 -106002 -595756
51 1 Mg -1.59284 7.16481 1.4948 1.2 -8.67225 1.4937e+06 2.04023e+06 3.6339e+06 1.45229e+06 -916471 350904
52 2 Si 0.240329 5.09994 1.4948 2.4 -34.9823 9.73426e+06 1.17573e+07 1.05051e+07 -1.96788e+06 -1.1107e+06 1.77993e+06
53 3 O 0.234538 3.48671 1.4948 -1.2 -4.74036 -2.54064e+06 145709 -3.35443e+07 397536 5.20042e+06 4.08685e+06
54 3 O 6.85564 6.07396 1.4948 -1.2 -9.14064 -5.13471e+06 -2.35234e+06 -842065 -1.34539e+06 -1.86236e+06 1.2013e+06
55 3 O -0.429565 5.80612 0.196716 -1.2 -3.51939 -1.48321e+06 -9.301e+06 -3.10131e+07 1.85263e+06 1.22778e+06 4.51866e+06
56 3 O -0.473377 5.80612 2.79288 -1.2 -8.53996 -2.7474e+06 -3.97587e+06 -1.64912e+06 -767474 322185 1.48804e+06
57 1 Mg 6.40169 9.49799 0 1.2 -5.71005 2.26806e+06 -5.4509e+06 -7.60392e+06 -5.4846e+06 1.02283e+06 -2.15621e+06
58 1 Mg 3.64209 14.2057 1.4948 1.2 -8.71881 701588 2.8857e+06 3.4156e+06 -1.02898e+06 -980910 216497
59 2 Si 5.45748 11.5215 1.4948 2.4 -34.9452 8.66445e+06 1.39962e+07 9.25195e+06 897020 375287 -1.44348e+06
60 3 O 5.51101 13.1348 1.4948 -1.2 -4.46992 -1.03442e+06 -2.01646e+06 -3.37098e+07 468468 -2.54199e+06 -4.80125e+06
61 3 O 1.83851 10.5475 1.4948 -1.2 -9.22145 -4.78988e+06 -2.96383e+06 -212180 1.53622e+06 -1.56072e+06 -1.37123e+06
62 3 O 4.7611 10.8154 0.196716 -1.2 -3.22362 -68202.6 -1.25724e+07 -3.08966e+07 -2.48139e+06 -1.77411e+06 -4.64808e+06
63 1 Mg 6.35203 9.49799 2.9896 1.2 -8.28107 4.6051e+06 -581735 -1.18797e+06 1.31056e+06 -1.14116e+06 2.03362e+06
64 3 O 4.71833 10.8154 2.79288 -1.2 -8.58451 -2.32345e+06 -4.94016e+06 -948055 1.0521e+06 5654.13 -1.54733e+06
65 1 Mg -1.0438 9.53931 4.4844 1.2 -8.92865 -545357 3.65938e+06 2.0247e+06 -573410 -335741 -205542
66 2 Si -2.8604 12.2234 4.4844 2.4 -33.2616 1.19076e+07 1.16383e+07 5.90573e+06 -92876 -9256.82 946369
67 3 O -2.91391 10.6102 4.4844 -1.2 -9.25661 -4.21765e+06 -1.49723e+06 -2.4663e+06 240088 -229647 -86304.9
68 3 O 0.7596 13.1975 4.4844 -1.2 -9.03323 -3.69423e+06 -3.95323e+06 -1.95208e+06 2.10455e+06 -470913 -667193
69 3 O -2.12001 12.9296 3.18632 -1.2 -8.80407 -3.30739e+06 -4.65286e+06 521832 1.16223e+06 -235250 -2.02991e+06
70 3 O -2.16532 12.9296 5.78248 -1.2 -8.82306 -3.11896e+06 -5.16744e+06 -287556 1.13046e+06 -83726.8 627704
71 1 Mg 1.29891 11.8725 2.9896 1.2 -8.27168 4.61746e+06 -327821 -1.49063e+06 -1.16693e+06 -1.24707e+06 -1.29767e+06
72 1 Mg 4.10033 11.8312 4.4844 1.2 -8.8564 -377495 3.90544e+06 1.5833e+06 1.10464e+06 -277534 486367
73 2 Si 2.27333 13.896 4.4844 2.4 -33.3308 1.20404e+07 1.12208e+07 6.26456e+06 719297 -95750 1.7039e+06
74 3 O 2.28634 15.5093 4.4844 -1.2 -9.16643 -4.40149e+06 -1.00574e+06 -3.03811e+06 432520 -183120 -821555
75 3 O -4.34533 12.922 4.4844 -1.2 -9.0958 -3.78108e+06 -3.88559e+06 -1.79249e+06 -1.42849e+06 -500510 -706465
76 3 O 2.98455 13.1899 3.18632 -1.2 -8.83189 -3.30289e+06 -4.73912e+06 476345 -961964 -143621 708770
77 1 Mg 1.34779 11.8725 0 1.2 -5.90515 3.43012e+06 -1.66988e+06 -7.84847e+06 3.55996e+06 792251 2.00105e+06
78 3 O 2.93934 13.1899 5.78248 -1.2 -8.85553 -3.14439e+06 -5.20758e+06 -310328 -926561 -141592 -2.15027e+06
79 1 Mg -1.50344 11.9138 1.4948 1.2 -8.67586 1.0409e+06 2.8722e+06 3.24429e+06 1.55755e+06 -941279 785728
80 2 Si 0.326006 9.84894 1.4948 2.4 -34.9677 8.78387e+06 1.37871e+07 9.35003e+06 -613459 62681.6 2.70549e+06
81 3 O 0.317364 8.23571 1.4948 -1.2 -4.36057 -1.09174e+06 -1.64467e+06 -3.45083e+07 -118119 1.20765e+06 4.10103e+06
82 3 O 6.94307 10.823 1.4948 -1.2 -9.26268 -4.92037e+06 -2.8026e+06 -136333 -981516 -1.5495e+06 762565
83 3 O -0.343122 10.5551 0.196716 -1.2 -3.31875 -372531 -1.20077e+07 -3.09698e+07 2.47464e+06 -2.0325e+06 4.15998e+06
84 3 O -0.385966 10.5551 2.79288 -1.2 -8.60722 -2.34088e+06 -4.97308e+06 -1.00551e+06 -860145 115339 929618
85 1 Mg 6.49448 14.247 0 1.2 -5.85354 3.83997e+06 -874960 -7.94954e+06 -2.96405e+06 251375 -1.12778e+06
86 1 Mg 3.74457 18.9547 1.4948 1.2 -8.77139 443185 2.77954e+06 3.78723e+06 -1.1189e+06 -976528 302095
87 2 Si 5.55495 16.2705 1.4948 2.4 -34.8929 8.84732e+06 1.32924e+07 9.70782e+06 523300 763138 -1.25079e+06
88 3 O 5.6115 17.8838 1.4948 -1.2 -4.80088 -2.01576e+06 -1.64032e+06 -3.13435e+07 80601.7 -6.03797e+06 -4.66713e+06
89 3 O 1.93416 15.2965 1.4948 -1.2 -9.28547 -4.82598e+06 -2.56353e+06 -224294 1.52924e+06 -1.37412e+06 -1.55565e+06
90 3 O 4.85636 15.5644 0.196716 -1.2 -3.28623 17843.4 -1.42264e+07 -2.93953e+07 -3.03951e+06 -5.10016e+06 -4.14103e+06
91 1 Mg 6.44662 14.247 2.9896 1.2 -8.25152 4.66522e+06 -556216 -1.32197e+06 1.27389e+06 -1.19045e+06 2.63709e+06
92 3 O 4.81537 15.5644 2.79288 -1.2 -8.55861 -2.31277e+06 -4.72055e+06 -1.25148e+06 1.07154e+06 -6825.93 -1.92361e+06
93 1 Mg -0.948271 14.2883 4.4844 1.2 -8.94992 -495561 3.59893e+06 2.06039e+06 -537154 -266394 766703
94 2 Si -2.75928 16.9724 4.4844 2.4 -33.4485 1.23334e+07 1.02992e+07 7.11853e+06 -97399.3 -207296 1.34658e+06
95 3 O -2.81617 15.3592 4.4844 -1.2 -9.18499 -4.40701e+06 -1.04987e+06 -2.83995e+06 316095 -140192 -831778
96 3 O 0.862762 17.9465 4.4844 -1.2 -8.97163 -3.84728e+06 -3.42573e+06 -2.43407e+06 2.16533e+06 -540803 -457523
97 3 O -2.0185 17.6786 3.18632 -1.2 -8.77609 -3.35831e+06 -4.27057e+06 124039 1.17962e+06 -125918 -2.08028e+06
98 3 O -2.06164 17.6786 5.78248 -1.2 -8.66737 -3.52169e+06 -4.2401e+06 -985407 1.21531e+06 73323.1 783306
99 1 Mg 1.39817 16.6215 2.9896 1.2 -8.28903 4.7489e+06 -728073 -1.19616e+06 -1.15322e+06 -1.2061e+06 -1.06872e+06
100 1 Mg 4.20062 16.5802 4.4844 1.2 -8.98324 -267141 3.20885e+06 2.375e+06 1.16435e+06 -297036 778010
101 2 Si 2.37796 18.645 4.4844 2.4 -33.3844 1.20992e+07 1.05911e+07 6.91992e+06 761539 26985.2 992308
102 3 O 2.39434 20.2583 4.4844 -1.2 -9.2475 -4.27789e+06 -1.23913e+06 -2.80965e+06 484775 -238886 -591394
103 3 O -4.24274 17.671 4.4844 -1.2 -9.00889 -3.8936e+06 -3.29507e+06 -2.41157e+06 -1.42647e+06 -428534 -651951
104 3 O 3.08659 17.9389 3.18632 -1.2 -8.80386 -3.3017e+06 -4.38692e+06 38358.2 -955888 -84522.2 739408
105 1 Mg 1.44478 16.6215 0 1.2 -5.98132 5.06273e+06 1.12471e+06 -7.71045e+06 1.39941e+06 -47131.2 1.27203e+06
106 3 O 3.0436 17.9389 5.78248 -1.2 -8.66426 -3.31105e+06 -4.42372e+06 -1.24948e+06 -966031 -190718 -1.61205e+06
107 1 Mg -1.40524 16.6628 1.4948 1.2 -8.73614 845294 2.77465e+06 3.58641e+06 1.68522e+06 -956324 866386
108 2 Si 0.420358 14.5979 1.4948 2.4 -34.8955 8.77961e+06 1.37224e+07 9.28751e+06 -131082 578387 3.50627e+06
109 3 O 0.408732 12.9847 1.4948 -1.2 -4.45836 -1.07108e+06 -2.0055e+06 -3.38369e+07 224379 -2.55612e+06 3.79431e+06
110 3 O 7.03923 15.572 1.4948 -1.2 -9.32222 -4.93254e+06 -2.39415e+06 -196350 -939563 -1.3062e+06 507466
111 3 O -0.248332 15.3041 0.196716 -1.2 -3.39113 -333356 -1.37695e+07 -2.93864e+07 3.26169e+06 -5.43852e+06 3.59306e+06
112 3 O -0.289436 15.3041 2.79288 -1.2 -8.59123 -2.3272e+06 -4.8455e+06 -1.21642e+06 -858526 25986.2 462929
113 1 Mg 6.59566 18.996 0 1.2 -5.95368 5.18698e+06 1.38832e+06 -7.35622e+06 -917139 -680966 -413343
114 1 Mg 3.85574 23.7037 1.4948 1.2 -8.76562 21973.8 3.04387e+06 3.79501e+06 -1.20245e+06 -913686 842017
115 2 Si 5.66125 21.0195 1.4948 2.4 -34.6987 9.11033e+06 1.27159e+07 9.77195e+06 172303 1.20428e+06 -819228
116 3 O 5.72074 22.6328 1.4948 -1.2 -5.48432 -3.58068e+06 -1.56486e+06 -2.64184e+07 -211209 -8.51141e+06 -4.62648e+06
117 3 O 2.03867 20.0455 1.4948 -1.2 -9.35505 -4.76859e+06 -2.1444e+06 -387289 1.57151e+06 -1.16239e+06 -1.62303e+06
118 3 O 4.96004 20.3134 0.196716 -1.2 -3.65272 -637286 -1.53612e+07 -2.58324e+07 -3.16856e+06 -7.92752e+06 -3.38379e+06
119 1 Mg 6.55057 18.996 2.9896 1.2 -8.22574 4.71282e+06 -782628 -1.18394e+06 1.2958e+06 -1.23417e+06 2.5767e+06
120 3 O 4.92172 20.3134 2.79288 -1.2 -8.59623 -2.20722e+06 -4.74027e+06 -1.31525e+06 1.08342e+06 -79658.3 -1.9391e+06
121 1 Mg -0.84282 19.0373 4.4844 1.2 -8.93643 -454846 3.38358e+06 2.20406e+06 -550787 -298482 453013
122 2 Si -2.64823 21.7214 4.4844 2.4 -33.2377 1.19551e+07 1.11865e+07 6.27335e+06 86448.7 -330736 1.64429e+06
123 3 O -2.70847 20.1082 4.4844 -1.2 -9.24329 -4.27861e+06 -1.18131e+06 -2.74249e+06 330323 -36878.3 -593277
124 3 O 0.97581 22.6955 4.4844 -1.2 -9.0755 -3.70256e+06 -3.87929e+06 -1.96689e+06 2.2444e+06 -527839 -970855
125 3 O -1.9076 22.4276 3.18632 -1.2 -8.84319 -3.2094e+06 -4.52028e+06 294203 1.13688e+06 -32748.8 -2.45234e+06
126 3 O -1.9475 22.4276 5.78248 -1.2 -8.82373 -3.20151e+06 -5.00105e+06 -334427 1.01272e+06 144098 382226
127 1 Mg 1.50678 21.3705 2.9896 1.2 -8.2003 4.72402e+06 -568455 -1.4731e+06 -1.16903e+06 -1.2194e+06 -834215
128 1 Mg 4.31086 21.3292 4.4844 1.2 -8.88091 -483662 3.60841e+06 2.02845e+06 1.16062e+06 -240188 808952
129 2 Si 2.49243 23.394 4.4844 2.4 -33.2269 1.18423e+07 1.12452e+07 6.26838e+06 581395 -39647.9 2.12546e+06
130 3 O 2.51204 25.0073 4.4844 -1.2 -9.25384 -4.25579e+06 -1.30594e+06 -2.75105e+06 585194 -99573.4 -1.14412e+06
131 3 O -4.13026 22.42 4.4844 -1.2 -9.11327 -3.75873e+06 -3.70891e+06 -1.97063e+06 -1.4208e+06 -401148 -931115
132 3 O 3.19799 22.6879 3.18632 -1.2 -8.87618 -3.14832e+06 -4.63596e+06 190773 -893732 480.406 343261
133 1 Mg 1.5501 21.3705 0 1.2 -5.98859 5.8228e+06 2.43817e+06 -6.99392e+06 -60907 -971627 1.18014e+06
134 3 O 3.1583 22.6879 5.78248 -1.2 -8.83453 -2.98194e+06 -5.05325e+06 -604518 -790434 -237492 -2.09951e+06
135 1 Mg -1.29822 21.4118 1.4948 1.2 -8.7528 512938 2.89869e+06 3.71699e+06 1.81681e+06 -950284 1.0987e+06
136 2 Si 0.523568 19.3469 1.4948 2.4 -34.7826 9.03116e+06 1.29488e+07 9.65669e+06 315496 1.02263e+06 3.74711e+06
137 3 O 0.508934 17.7337 1.4948 -1.2 -4.79248 -2.08394e+06 -1.63947e+06 -3.14247e+07 665612 -6.09854e+06 3.56665e+06
138 3 O 7.14425 20.321 1.4948 -1.2 -9.39836 -4.87918e+06 -1.99818e+06 -333239 -938916 -1.05829e+06 324830
139 3 O -0.145107 20.0531 0.196716 -1.2 -3.75405 -1.04054e+06 -1.50322e+07 -2.57997e+07 3.66573e+06 -8.21342e+06 2.47814e+06
140 3 O -0.183601 20.0531 2.79288 -1.2 -8.63399 -2.27025e+06 -4.85447e+06 -1.24748e+06 -843897 -18226 403226
141 1 Mg 6.70502 23.745 0 1.2 -5.93271 5.56494e+06 2.67003e+06 -6.66572e+06 396526 -1.47561e+06 481255
142 1 Mg 3.97493 28.4527 1.4948 1.2 -8.74305 -488456 3.50065e+06 3.57988e+06 -1.22227e+06 -776095 1.16652e+06
143 2 Si 5.77602 25.7685 1.4948 2.4 -34.3614 9.48609e+06 1.24297e+07 9.22953e+06 -132011 1.60032e+06 128915
144 3 O 5.83821 27.3818 1.4948 -1.2 -6.38942 -5.17572e+06 -1.63434e+06 -2.00682e+07 -331721 -9.3331e+06 -4.34605e+06
145 3 O 2.15175 24.7945 1.4948 -1.2 -9.46108 -4.56156e+06 -2.05444e+06 -380013 1.61874e+06 -905493 -2.08415e+06
146 3 O 5.07184 25.0624 0.196716 -1.2 -4.41013 -1.70178e+06 -1.6128e+07 -2.01665e+07 -2.76247e+06 -9.467e+06 -2.62014e+06
147 1 Mg 6.66374 23.745 2.9896 1.2 -8.13668 4.70943e+06 -615006 -1.48794e+06 1.33443e+06 -1.23954e+06 3.02939e+06
148 3 O 5.03707 25.0624 2.79288 -1.2 -8.66304 -2.16673e+06 -4.88563e+06 -1.14288e+06 1.09951e+06 -151702 -2.37766e+06
149 1 Mg -0.727559 23.7863 4.4844 1.2 -8.89987 -628181 3.68795e+06 2.00792e+06 -462386 -246354 1.14608e+06
150 2 Si -2.5277 26.4704 4.4844 2.4 -33.2958 1.20643e+07 1.11716e+07 6.28396e+06 86532.3 34361.3 2.33732e+06
151 3 O -2.59107 24.8572 4.4844 -1.2 -9.2569 -4.27768e+06 -1.31375e+06 -2.57103e+06 283109 -149636 -1.1638e+06
152 3 O 1.09817 27.4445 4.4844 -1.2 -9.02996 -3.69886e+06 -3.92497e+06 -1.99031e+06 2.24081e+06 -387806 -1.07208e+06
153 3 O -1.78784 27.1766 3.18632 -1.2 -8.86051 -3.09682e+06 -4.64036e+06 276653 1.16072e+06 -19591.5 -2.70788e+06
154 3 O -1.82343 27.1766 5.78248 -1.2 -8.63106 -3.26395e+06 -4.88571e+06 -838314 1.15185e+06 -138542 384567
155 1 Mg 1.62435 26.1195 2.9896 1.2 -8.14808 4.69624e+06 -488445 -1.60586e+06 -1.16192e+06 -1.3417e+06 -401476
156 1 Mg 4.43064 26.0782 4.4844 1.2 -8.86674 -383704 3.63439e+06 1.88107e+06 1.19329e+06 -298183 1.18311e+06
157 2 Si 2.61607 28.143 4.4844 2.4 -33.2347 1.18888e+07 1.1531e+07 5.95027e+06 788625 -243404 2.22264e+06
158 3 O 2.63853 29.7563 4.4844 -1.2 -9.27966 -4.21759e+06 -1.61286e+06 -2.44399e+06 491800 -72666.6 -1.12117e+06
159 3 O -4.00841 27.169 4.4844 -1.2 -9.12536 -3.91651e+06 -3.74971e+06 -1.75374e+06 -1.36307e+06 -454375 -1.1934e+06
160 3 O 3.3182 27.4369 3.18632 -1.2 -8.91011 -3.06282e+06 -4.80051e+06 249064 -902795 141134 84535.8
161 1 Mg 1.66335 26.1195 0 1.2 -5.92864 5.38783e+06 3.21664e+06 -6.21394e+06 -875931 -1.63329e+06 1.48946e+06
162 3 O 3.28288 27.4369 5.78248 -1.2 -8.76775 -3.14245e+06 -5.02593e+06 -592062 -925638 -94554.9 -2.11845e+06
163 1 Mg -1.18278 26.1608 1.4948 1.2 -8.74041 51089.4 3.22593e+06 3.63958e+06 1.89354e+06 -839841 1.44724e+06
164 2 Si 0.635424 24.0959 1.4948 2.4 -34.5036 9.22883e+06 1.2633e+07 9.39547e+06 760476 1.33313e+06 4.79782e+06
165 3 O 0.617906 22.4827 1.4948 -1.2 -5.47282 -3.637e+06 -1.55642e+06 -2.65242e+07 1.00625e+06 -8.53642e+06 2.70121e+06
166 3 O 7.25781 25.07 1.4948 -1.2 -9.51343 -4.72726e+06 -1.92758e+06 -251156 -937770 -859073 -166563
167 3 O -0.0337363 24.8021 0.196716 -1.2 -4.49402 -2.07432e+06 -1.60608e+07 -2.01394e+07 3.4805e+06 -9.59978e+06 664003
168 3 O -0.0687235 24.8021 2.79288 -1.2 -8.68596 -2.14715e+06 -5.00101e+06 -1.18951e+06 -839827 -67058.1 -166288
169 1 Mg 6.82195 28.494 0 1.2 -5.89235 4.88427e+06 3.43615e+06 -5.9363e+06 1.148e+06 -1.75886e+06 862161
170 1 Mg 4.10106 33.2017 1.4948 1.2 -8.7145 -1.02015e+06 4.2152e+06 3.01082e+06 -1.19687e+06 -522289 1.07559e+06
171 2 Si 5.89839 30.5175 1.4948 2.4 -33.9615 9.85664e+06 1.25386e+07 8.19238e+06 -336782 1.73491e+06 449111
172 3 O 5.96289 32.1308 1.4948 -1.2 -7.34878 -6.13049e+06 -1.99463e+06 -1.35607e+07 -288999 -8.46179e+06 -3.6706e+06
173 3 O 2.27266 29.5435 1.4948 -1.2 -9.56897 -4.3106e+06 -2.26651e+06 -197893 1.64788e+06 -681138 -2.20334e+06
174 3 O 5.19102 29.8114 0.196716 -1.2 -5.40191 -2.8112e+06 -1.60404e+07 -1.37531e+07 -1.94225e+06 -9.3471e+06 -1.52443e+06
175 1 Mg 6.78546 28.494 2.9896 1.2 -8.06279 4.71332e+06 -410084 -1.80969e+06 1.29673e+06 -1.25904e+06 3.1649e+06
176 3 O 5.16061 29.8114 2.79288 -1.2 -8.73676 -2.09309e+06 -5.20668e+06 -817180 1.11617e+06 -222220 -2.44743e+06
177 1 Mg -0.603205 28.5353 4.4844 1.2 -8.92931 -715941 3.84638e+06 1.97934e+06 -465200 -197362 1.07327e+06
178 2 Si -2.39877 31.2194 4.4844 2.4 -33.1816 1.19737e+07 1.1885e+07 5.47619e+06 -101706 -228312 2.03865e+06
179 3 O -2.46483 29.6062 4.4844 -1.2 -9.28129 -4.25122e+06 -1.57009e+06 -2.29652e+06 453025 -114825 -1.08886e+06
180 3 O 1.22864 32.1935 4.4844 -1.2 -9.09733 -3.70407e+06 -4.2948e+06 -1.52002e+06 2.20621e+06 -448828 -865764
181 3 O -1.66032 31.9256 3.18632 -1.2 -8.9245 -2.97788e+06 -5.07832e+06 617012 1.18964e+06 104949 -2.54325e+06
182 3 O -1.69072 31.9256 5.78248 -1.2 -8.77334 -3.32219e+06 -5.16597e+06 42477.7 1.26954e+06 62135.5 540855
183 1 Mg 1.7499 30.8685 2.9896 1.2 -8.06319 4.64974e+06 -105683 -2.07155e+06 -1.10126e+06 -1.38438e+06 -429156
184 1 Mg 4.55894 30.8272 4.4844 1.2 -8.8491 -514853 3.97957e+06 1.63969e+06 1.23212e+06 -221349 1.18399e+06
185 2 Si 2.7476 32.892 4.4844 2.4 -33.1873 1.16886e+07 1.22832e+07 5.32613e+06 898609 56881.8 1.77313e+06
186 3 O 2.77235 34.5053 4.4844 -1.2 -9.29814 -4.11221e+06 -2.03499e+06 -2.10454e+06 547454 -195698 -746980
187 3 O -3.87837 31.918 4.4844 -1.2 -9.15204 -3.79593e+06 -4.114e+06 -1.46372e+06 -1.27454e+06 -289977 -1.06347e+06
188 3 O 3.44611 32.1859 3.18632 -1.2 -8.95222 -2.87056e+06 -5.24903e+06 481596 -910205 153212 185873
189 1 Mg 1.7837 30.8685 0 1.2 -5.89128 4.16713e+06 3.80039e+06 -5.6974e+06 -1.36241e+06 -1.5835e+06 1.74282e+06
190 3 O 3.41602 32.1859 5.78248 -1.2 -8.71868 -3.04198e+06 -5.34843e+06 -460146 -1.01625e+06 -224437 -2.00966e+06
191 1 Mg -1.05984 30.9098 1.4948 1.2 -8.70336 -463916 3.83092e+06 3.18844e+06 1.8984e+06 -640550 1.3653e+06
192 2 Si 0.755243 28.8449 1.4948 2.4 -34.1365 9.55175e+06 1.25745e+07 8.62773e+06 1.14753e+06 1.51333e+06 5.03986e+06
193 3 O 0.735127 27.2317 1.4948 -1.2 -6.37155 -5.19932e+06 -1.61017e+06 -2.02346e+07 1.16811e+06 -9.27696e+06 1.77236e+06
194 3 O 7.37914 29.819 1.4948 -1.2 -9.62608 -4.4993e+06 -2.16449e+06 -28942.5 -922643 -644969 -263048
195 3 O 0.0850649 29.5511 0.196716 -1.2 -5.46493 -3.10913e+06 -1.63611e+07 -1.3681e+07 2.70686e+06 -9.37163e+06 -868067
196 3 O 0.0543974 29.5511 2.79288 -1.2 -8.75934 -2.07872e+06 -5.31154e+06 -880369 -843599 -118525 -209289
197 1 Mg 6.94543 33.243 0 1.2 -5.88888 3.55121e+06 4.10964e+06 -5.60879e+06 1.59835e+06 -1.43257e+06 538864
198 1 Mg 4.23267 37.9507 1.4948 1.2 -8.77595 -1.28848e+06 4.57737e+06 2.60095e+06 -1.12593e+06 -205554 569560
199 2 Si 6.02709 35.2665 1.4948 2.4 -33.6204 1.03192e+07 1.2861e+07 6.91101e+06 -403809 1.56237e+06 -122717
200 3 O 6.09339 36.8798 1.4948 -1.2 -8.14079 -6.34849e+06 -2.28362e+06 -8.27838e+06 -146886 -6.58207e+06 -2.63762e+06
201 3 O 2.40018 34.2925 1.4948 -1.2 -9.64296 -4.0887e+06 -2.78043e+06 160368 1.69235e+06 -545851 -1.90666e+06
202 3 O 5.31645 34.5604 0.196716 -1.2 -6.4509 -3.6456e+06 -1.50608e+07 -7.78121e+06 -963088 -7.85745e+06 -88411.1
203 1 Mg 6.91449 33.243 2.9896 1.2 -7.98722 4.63599e+06 40653.2 -2.29589e+06 1.28659e+06 -1.43308e+06 2.92302e+06
204 3 O 5.291 34.5604 2.79288 -1.2 -8.79208 -2.02898e+06 -5.66238e+06 -370362 1.12485e+06 -244670 -2.08341e+06
205 1 Mg -0.471101 33.2843 4.4844 1.2 -8.83577 -677353 4.2096e+06 1.41884e+06 -462389 -175641 798412
206 2 Si -2.26307 35.9684 4.4844 2.4 -33.1125 1.18883e+07 1.27461e+07 4.59535e+06 82933.9 -452830 1.19076e+06
207 3 O -2.33122 34.3552 4.4844 -1.2 -9.32791 -4.2143e+06 -1.95737e+06 -1.86913e+06 447525 66253.6 -737774
208 3 O 1.36549 36.9425 4.4844 -1.2 -9.1295 -3.70683e+06 -4.73736e+06 -1.04213e+06 2.28311e+06 -486984 -545102
209 3 O -1.52658 36.6746 3.18632 -1.2 -8.93226 -2.91499e+06 -5.50129e+06 890977 1.14752e+06 187257 -2.13645e+06
210 3 O -1.55122 36.6746 5.78248 -1.2 -8.83598 -3.25784e+06 -5.64747e+06 552699 1.16416e+06 267376 1.00915e+06
211 1 Mg 1.882 35.6175 2.9896 1.2 -8.00892 4.63022e+06 362394 -2.59703e+06 -1.11144e+06 -1.39853e+06 -795634
212 1 Mg 4.69415 35.5762 4.4844 1.2 -8.85987 -663090 4.44261e+06 1.34533e+06 1.22049e+06 -174453 664048
213 2 Si 2.88522 37.641 4.4844 2.4 -33.1939 1.15077e+07 1.31317e+07 4.66514e+06 725382 86013.2 1.13908e+06
214 3 O 2.91159 39.2543 4.4844 -1.2 -9.22293 -4.16634e+06 -2.20507e+06 -2.00312e+06 623261 -130000 -609962
215 3 O -3.74183 36.667 4.4844 -1.2 -9.16822 -3.76468e+06 -4.58442e+06 -1.0074e+06 -1.3253e+06 -173246 -599569
216 3 O 3.58014 36.9349 3.18632 -1.2 -8.94205 -2.7618e+06 -5.67813e+06 677533 -851737 181610 597123
217 1 Mg 1.90997 35.6175 0 1.2 -5.91182 2.77824e+06 4.28824e+06 -5.74204e+06 -1.67155e+06 -758240 1.72271e+06
218 3 O 3.55582 36.9349 5.78248 -1.2 -8.74933 -2.79137e+06 -5.95187e+06 109359 -843342 -151508 -1.61719e+06
219 1 Mg -0.93068 35.6588 1.4948 1.2 -8.69564 -890747 4.48789e+06 2.55385e+06 1.85472e+06 -342443 900572
220 2 Si 0.881882 33.5939 1.4948 2.4 -33.7394 1.00012e+07 1.29532e+07 7.23442e+06 1.4055e+06 1.63897e+06 4.39116e+06
221 3 O 0.859602 31.9807 1.4948 -1.2 -7.33857 -6.18753e+06 -1.97138e+06 -1.3687e+07 1.15847e+06 -8.46222e+06 1.23887e+06
222 3 O 7.507 34.568 1.4948 -1.2 -9.69354 -4.2676e+06 -2.6803e+06 296461 -932131 -393386 77297.9
223 3 O 0.210186 34.3001 0.196716 -1.2 -6.48268 -3.80322e+06 -1.575e+07 -7.73277e+06 1.5448e+06 -7.91913e+06 -1.7703e+06
224 3 O 0.184454 34.3001 2.79288 -1.2 -8.84785 -2.10821e+06 -5.78252e+06 -288212 -845490 -193759 65178.4
225 1 Mg 7.07415 37.992 0 1.2 -6.01778 2.38278e+06 4.17317e+06 -5.44658e+06 1.88719e+06 -446125 -752786
226 1 Mg 4.36817 42.6997 1.4948 1.2 -8.97994 -1.12609e+06 4.01523e+06 2.94561e+06 -1.00767e+06 119836 293360
227 2 Si 6.16058 40.0155 1.4948 2.4 -33.6408 1.12881e+07 1.1722e+07 7.12103e+06 -353913 1.25961e+06 -828169
228 3 O 6.22815 41.6288 1.4948 -1.2 -8.56809 -6.18829e+06 -1.67345e+06 -5.45483e+06 26192.1 -4.49001e+06 -1.89666e+06
229 3 O 2.53282 39.0415 1.4948 -1.2 -9.54104 -4.09829e+06 -2.82787e+06 -106406 1.72869e+06 -389802 -1.39566e+06
230 3 O 5.44674 39.3094 0.196716 -1.2 -7.24032 -4.26615e+06 -1.25142e+07 -4.00259e+06 -155106 -5.77029e+06 1.46229e+06
231 1 Mg 7.04922 37.992 2.9896 1.2 -7.99949 4.69538e+06 316594 -2.60067e+06 1.31255e+06 -1.55208e+06 2.52117e+06
232 3 O 5.42658 39.3094 2.79288 -1.2 -8.73299 -2.28009e+06 -5.63595e+06 -273055 1.12688e+06 -257542 -1.73672e+06
233 1 Mg -0.333062 38.0333 4.4844 1.2 -8.83294 -624486 4.56869e+06 996812 -421932 -105741 611320
234 2 Si -2.12255 40.7174 4.4844 2.4 -33.4555 1.2371e+07 1.22524e+07 5.15555e+06 177882 -349624 1.30601e+06
235 3 O -2.19212 39.1042 4.4844 -1.2 -9.27267 -4.28396e+06 -2.16719e+06 -1.6853e+06 400224 81236.8 -648285
236 3 O 1.50676 41.6915 4.4844 -1.2 -8.88179 -4.04394e+06 -4.30321e+06 -1.51903e+06 2.33343e+06 -340520 -526416
237 3 O -1.3884 41.4236 3.18632 -1.2 -8.73146 -3.11911e+06 -5.07003e+06 240157 1.12208e+06 166011 -1.95305e+06
238 3 O -1.40713 41.4236 5.78248 -1.2 -8.52487 -3.65945e+06 -5.1275e+06 58395.3 1.12963e+06 232010 744303
239 1 Mg 2.01892 40.3665 2.9896 1.2 -8.13936 4.82793e+06 162257 -2.37235e+06 -1.11549e+06 -1.51682e+06 -1.00581e+06
240 1 Mg 4.83434 40.3252 4.4844 1.2 -8.98491 -376700 4.32114e+06 1.37955e+06 1.24767e+06 -156774 640890
241 2 Si 3.02698 42.39 4.4844 2.4 -33.7359 1.23844e+07 1.20164e+07 5.78574e+06 638137 -93688.5 872498
242 3 O 3.05433 44.0033 4.4844 -1.2 -8.9523 -4.58719e+06 -1.6802e+06 -2.52471e+06 671273 35002.7 -294455
243 3 O -3.60077 41.416 4.4844 -1.2 -8.96257 -4.17147e+06 -4.1193e+06 -1.39419e+06 -1.34146e+06 -171110 -593133
244 3 O 3.71851 41.6839 3.18632 -1.2 -8.73981 -3.02794e+06 -5.22586e+06 61382.1 -819593 229362 770054
245 1 Mg 2.04077 40.3665 0 1.2 -6.14511 2.02216e+06 3.66978e+06 -5.41494e+06 -1.84883e+06 472300 1.80738e+06
246 3 O 3.70011 41.6839 5.78248 -1.2 -8.42443 -3.38445e+06 -5.41429e+06 -483041 -815072 -68948 -1.66606e+06
247 1 Mg -0.796865 40.4078 1.4948 1.2 -8.85184 -933410 4.28695e+06 2.65608e+06 1.75524e+06 27238.9 440296
248 2 Si 1.01387 38.3429 1.4948 2.4 -33.6082 1.07508e+07 1.25157e+07 6.74726e+06 1.51673e+06 1.51995e+06 3.08518e+06
249 3 O 0.989947 36.7297 1.4948 -1.2 -8.13914 -6.41292e+06 -2.281e+06 -8.37153e+06 1.04252e+06 -6.65956e+06 1.22509e+06
250 3 O 7.63988 39.317 1.4948 -1.2 -9.57817 -4.28646e+06 -2.68183e+06 -42094.4 -941721 -216002 608154
251 3 O 0.340253 39.0491 0.196716 -1.2 -7.25455 -4.28481e+06 -1.34787e+07 -3.95206e+06 393496 -5.85927e+06 -1.90914e+06
252 3 O 0.319795 39.0491 2.79288 -1.2 -8.79617 -2.3122e+06 -5.8048e+06 -184819 -849959 -237842 341128
253 1 Mg 7.20667 42.741 0 1.2 -6.31412 1.92657e+06 3.17695e+06 -4.98309e+06 1.99875e+06 868497 -1.9537e+06
254 1 Mg 4.50613 47.4487 1.4948 1.2 -9.02419 -1.01713e+06 3.9346e+06 2.785e+06 -854449 380460 445338
255 2 Si 6.29731 44.7645 1.4948 2.4 -33.8245 1.228e+07 9.9627e+06 8.15978e+06 -240115 846462 -893717
256 3 O 6.36567 46.3778 1.4948 -1.2 -8.86226 -5.60304e+06 -1.31371e+06 -3.82693e+06 186122 -2.66367e+06 -1.67477e+06
257 3 O 2.669 43.7905 1.4948 -1.2 -9.28899 -4.29303e+06 -2.31722e+06 -1.09487e+06 1.73064e+06 -224041 -1.20241e+06
258 3 O 5.58048 44.0584 0.196716 -1.2 -7.73596 -4.56682e+06 -9.09029e+06 -2.36678e+06 318857 -3.69887e+06 2.16961e+06
259 1 Mg 7.1879 42.741 2.9896 1.2 -8.20248 5.04949e+06 -298982 -2.00059e+06 1.3021e+06 -1.61664e+06 2.26362e+06
260 3 O 5.56564 44.0584 2.79288 -1.2 -8.5635 -2.773e+06 -4.98834e+06 -720126 1.15211e+06 -243125 -1.45578e+06
261 1 Mg -0.19105 42.7823 4.4844 1.2 -9.13643 -268257 3.93682e+06 1.75846e+06 -363885 -34785.6 460298
262 2 Si -1.97909 45.4664 4.4844 2.4 -33.7898 1.30424e+07 1.18242e+07 5.45748e+06 216430 -17323.1 284114
263 3 O -2.04947 43.8532 4.4844 -1.2 -9.003 -4.73019e+06 -1.53242e+06 -2.28305e+06 370360 -291.362 -209703
264 3 O 1.65063 46.4405 4.4844 -1.2 -8.74127 -4.07842e+06 -4.34418e+06 -1.66345e+06 2.28099e+06 -235865 -243151
265 3 O -1.24745 46.1726 3.18632 -1.2 -8.59523 -3.25563e+06 -4.87913e+06 -132187 1.11799e+06 33791.8 -1.72448e+06
266 3 O -1.26044 46.1726 5.78248 -1.2 -8.41927 -3.8433e+06 -5.42876e+06 426219 1.1152e+06 -174972 1.36019e+06
267 1 Mg 2.15896 45.1155 2.9896 1.2 -8.32292 5.03026e+06 -245589 -1.85692e+06 -1.07928e+06 -1.67297e+06 -1.22433e+06
268 1 Mg 4.97763 45.0742 4.4844 1.2 -9.16692 64183.1 3.98655e+06 1.56639e+06 1.17175e+06 -180918 190290
269 2 Si 3.1711 47.139 4.4844 2.4 -33.8805 1.23489e+07 1.23751e+07 5.69578e+06 763829 -335068 688367