ITEM: TIMESTEP
14500
ITEM: NUMBER OF ATOMS
10500
ITEM: BOX BOUNDS xy xz yz pp pp pp
0.0000000000000000e+00 1.5297450000000000e+01 5.0990000000000002e+00
0.0000000000000000e+00 1.1872499999999999e+02 0.0000000000000000e+00
0.0000000000000000e+00 8.9688000000000002e+01 0.0000000000000000e+00
ITEM: ATOMS id type element xu yu zu q c_pe c_s[1] c_s[2] c_s[3] c_s[4] c_s[5] c_s[6]
1 1 Mg 6.2404 -6.37941e-06 0 1.2 -4.35607 7.74306e+06 -1.27507e+06 -6.74975e+06 -16195 2.56893e+06 -707700
2 1 Mg 3.46349 4.70768 1.4948 1.2 -8.37135 -526441 3.27424e+06 3.76068e+06 -940500 -631019 -615617
3 2 Si 5.2885 2.02354 1.4948 2.4 -34.9895 9.51178e+06 1.21354e+07 1.02047e+07 8.85037e+06 624256 -4.19352e+06
4 3 O 5.33628 3.63678 1.4948 -1.2 -4.84841 -578658 -2.0431e+06 -3.31086e+07 -320943 3.84987e+06 -3.24322e+06
5 3 O 1.67294 1.04952 1.4948 -1.2 -1.17969 -2.01395e+07 -7.99775e+07 -1.51868e+06 -2.41388e+07 -154183 430118
6 3 O 4.59532 1.31737 0.196716 -1.2 -3.12963 -1.79268e+06 -7.32263e+06 -2.98498e+07 -6.03645e+06 6.29233e+06 -2.12471e+06
7 1 Mg 6.18956 -6.37941e-06 2.9896 1.2 -4.79021 1.29497e+06 -2.77825e+07 -3.38214e+06 -8.85335e+06 2.42764e+06 3.54201e+06
8 3 O 4.55118 1.31737 2.79288 -1.2 -7.66149 440437 -5.17818e+06 -2.7276e+06 -2.96029e+06 -3.39707e+06 -606400
9 1 Mg -1.20682 0.0413099 4.4844 1.2 9.11995 -3.10331e+07 -9.31167e+07 -585686 -2.85166e+07 -1.25875e+06 -312245
10 2 Si -3.0337 2.72544 4.4844 2.4 -32.6551 1.36219e+07 7.43924e+06 7.63201e+06 1.57221e+06 -28924.8 -1.60596e+06
11 3 O -3.08099 1.11221 4.4844 -1.2 -9.82462 -5.81662e+06 -266315 -1.87479e+06 -1.18727e+06 -168606 706324
12 3 O 0.582463 3.69946 4.4844 -1.2 -9.22026 -2.9356e+06 -5.65964e+06 -2.59727e+06 -592494 -188798 377761
13 3 O -2.29524 3.43162 3.18632 -1.2 -9.246 -3.94881e+06 -2.88873e+06 -184252 1.09227e+06 -797564 -358566
14 3 O -2.34216 3.43162 5.78248 -1.2 -9.16981 -3.51551e+06 -3.0927e+06 -1.57762e+06 742160 635709 1.78324e+06
15 1 Mg 1.12778 2.37449 2.9896 1.2 -7.4171 4.92078e+06 -1.20847e+06 -1.14897e+06 -3.26845e+06 -4.15322e+06 -2.77839e+06
16 1 Mg 3.92855 2.33318 4.4844 1.2 -8.2509 -4.63793e+06 5.22494e+06 4.6593e+06 1.39143e+06 331015 35722.7
17 2 Si 2.09341 4.39804 4.4844 2.4 -31.9415 1.12558e+07 7.14895e+06 8.69632e+06 194772 -93293.9 -502505
18 3 O 2.09991 6.01128 4.4844 -1.2 -9.66027 -3.66131e+06 -42163.3 -3.97582e+06 520318 -250090 572072
19 3 O -4.52137 3.42402 4.4844 -1.2 -9.39389 -2.47636e+06 -3.10606e+06 -3.46214e+06 -2.38857e+06 -792505 574748
20 3 O 2.80834 3.69187 3.18632 -1.2 -9.50569 -1.79983e+06 -3.21546e+06 -76255 460541 -530004 79398.9
21 1 Mg 1.17857 2.37449 0 1.2 -5.0208 -733507 -1.41283e+07 -7.17746e+06 6.53331e+06 1.2522e+06 4.01351e+06
22 3 O 2.76143 3.69187 5.78248 -1.2 -9.63652 -2.20839e+06 -2.54744e+06 -1.18224e+06 596965 -181767 423667
23 1 Mg -1.67381 2.41581 1.4948 1.2 -7.44554 1.34334e+06 350887 3.50104e+06 1.35072e+06 -583036 440355
24 2 Si 0.16286 0.350945 1.4948 2.4 -24.3128 -8.55754e+06 1.34797e+07 1.03293e+07 1.57765e+06 2.88567e+06 168451
25 3 O 0.15972 -1.26229 1.4948 -1.2 -4.86019 -1.05248e+07 -8.46185e+06 -2.84989e+07 -5.58848e+06 -8.5533e+06 -2.14483e+06
26 3 O 6.77654 1.32496 1.4948 -1.2 -10.482 -5.50663e+06 1.21737e+06 -861215 -633222 -617363 1.6136e+06
27 3 O -0.508028 1.05712 0.196716 -1.2 -9.62393 265435 -5.29847e+06 -78241.6 -540526 151504 -4.02653e+06
28 3 O -0.552171 1.05712 2.79288 -1.2 -6.96903 -5.09446e+06 -5.04367e+06 -2.41747e+07 1.42242e+06 -6.78689e+06 -4.99969e+06
29 1 Mg 6.31713 4.74899 0 1.2 -4.86638 209934 -1.21576e+07 -6.80785e+06 -7.32864e+06 1.40287e+06 -4.3196e+06
30 1 Mg 3.54847 9.45668 1.4948 1.2 -8.38857 312162 1.97191e+06 4.23064e+06 -965002 -938034 -1.3694e+06
31 2 Si 5.36879 6.77254 1.4948 2.4 -34.1959 7.07684e+06 1.3004e+07 1.06552e+07 1.63574e+06 83239 -3.6577e+06
32 3 O 5.41937 8.38578 1.4948 -1.2 -4.75082 -317799 -1.28871e+06 -3.48844e+07 775611 1.14063e+06 -3.24711e+06
33 3 O 1.75158 5.79852 1.4948 -1.2 -9.58371 -3.86629e+06 -2.88855e+06 -903031 1.95964e+06 -1.61512e+06 -571859
34 3 O 4.67421 6.06637 0.196716 -1.2 -3.81345 241307 -1.08101e+07 -3.08018e+07 -1.99051e+06 1.33117e+06 -3.61303e+06
35 1 Mg 6.26654 4.74899 2.9896 1.2 -7.87485 3.86104e+06 -1.30384e+06 -370428 1.78435e+06 -895605 1.2623e+06
36 3 O 4.63043 6.06637 2.79288 -1.2 -8.95867 -1.37532e+06 -4.30029e+06 -1.92795e+06 954022 -77436.5 -705177
37 1 Mg -1.12976 4.79031 4.4844 1.2 -8.5652 -863931 2.83309e+06 2.6228e+06 -659924 -410496 -722874
38 2 Si -2.9517 7.47444 4.4844 2.4 -32.5223 1.10702e+07 8.68476e+06 8.509e+06 19592.3 -270640 -1.82629e+06
39 3 O -3.00198 5.86121 4.4844 -1.2 -9.64294 -3.78265e+06 -181255 -3.60163e+06 81539.4 -139509 760792
40 3 O 0.666315 8.44846 4.4844 -1.2 -9.39029 -3.19798e+06 -2.55312e+06 -3.28049e+06 2.10275e+06 -595531 947949
41 3 O -2.21213 8.18062 3.18632 -1.2 -9.17481 -2.91522e+06 -3.48151e+06 -445669 1.09403e+06 -275545 -489836
42 3 O -2.25864 8.18062 5.78248 -1.2 -9.24555 -2.91946e+06 -3.24734e+06 -1.72431e+06 1.00787e+06 30040.5 2.34888e+06
43 1 Mg 1.20893 7.12349 2.9896 1.2 -7.90575 3.97414e+06 -1.39518e+06 -363068 -1.27045e+06 -1.27062e+06 -2.52206e+06
44 1 Mg 4.00982 7.08218 4.4844 1.2 -8.55334 -1.22767e+06 2.53204e+06 3.32055e+06 1.00088e+06 -263303 -669119
45 2 Si 2.17861 9.14704 4.4844 2.4 -32.6913 1.07167e+07 8.738e+06 9.04818e+06 534004 174967 -1.77248e+06
46 3 O 2.18828 10.7603 4.4844 -1.2 -9.48202 -3.72976e+06 52833.5 -4.26172e+06 489288 -276939 1.01203e+06
47 3 O -4.43805 8.17302 4.4844 -1.2 -9.41906 -3.125e+06 -2.51151e+06 -3.30831e+06 -1.4977e+06 -321522 884624
48 3 O 2.89193 8.44087 3.18632 -1.2 -9.15009 -2.62721e+06 -3.68245e+06 -723495 -911682 -264430 2.20694e+06
49 1 Mg 1.25915 7.12349 0 1.2 -5.30768 985930 -6.9455e+06 -6.98478e+06 5.90917e+06 1.38027e+06 1.68132e+06
50 3 O 2.84547 8.44087 5.78248 -1.2 -9.11805 -2.46571e+06 -3.67275e+06 -2.05331e+06 -831631 -416460 -295562
51 1 Mg -1.59284 7.16481 1.4948 1.2 -8.20367 789451 1.79298e+06 3.83465e+06 1.46662e+06 -905160 -560990
52 2 Si 0.240329 5.09994 1.4948 2.4 -33.8537 8.02395e+06 1.20216e+07 1.01427e+07 -1.9295e+06 -1.0017e+06 501055
53 3 O 0.234538 3.48671 1.4948 -1.2 -5.35624 -1.59722e+06 -174537 -3.31808e+07 387718 5.15306e+06 4.57781e+06
54 3 O 6.85564 6.07396 1.4948 -1.2 -9.6571 -4.2905e+06 -2.32234e+06 -889460 -1.33467e+06 -1.81004e+06 1.9686e+06
55 3 O -0.429565 5.80612 0.196716 -1.2 -4.07973 -612407 -9.45899e+06 -3.08285e+07 1.83215e+06 1.16284e+06 5.3551e+06
56 3 O -0.473377 5.80612 2.79288 -1.2 -9.0681 -1.9958e+06 -3.86082e+06 -1.67268e+06 -800479 280517 2.06402e+06
57 1 Mg 6.40169 9.49799 0 1.2 -5.38998 1.73292e+06 -6.02984e+06 -7.00266e+06 -5.49076e+06 994056 -3.55118e+06
58 1 Mg 3.64209 14.2057 1.4948 1.2 -8.69082 623719 1.57376e+06 4.76057e+06 -1.02104e+06 -999492 -1.27013e+06
59 2 Si 5.45748 11.5215 1.4948 2.4 -34.5661 8.02434e+06 1.1741e+07 1.15399e+07 910123 266867 -4.36826e+06
60 3 O 5.51101 13.1348 1.4948 -1.2 -4.56281 -877877 -738261 -3.49962e+07 452759 -2.50617e+06 -3.2914e+06
61 3 O 1.83851 10.5475 1.4948 -1.2 -9.46996 -4.36145e+06 -1.98424e+06 -1.22245e+06 1.54437e+06 -1.60008e+06 -1102.27
62 3 O 4.7611 10.8154 0.196716 -1.2 -3.43915 305720 -1.16768e+07 -3.18211e+07 -2.4714e+06 -1.7407e+06 -3.15237e+06
63 1 Mg 6.35203 9.49799 2.9896 1.2 -7.9505 4.10809e+06 -1.57757e+06 -224823 1.31536e+06 -1.26956e+06 957847
64 3 O 4.71833 10.8154 2.79288 -1.2 -8.82409 -1.85887e+06 -3.73323e+06 -2.23708e+06 1.05226e+06 97602.5 -218401
65 1 Mg -1.0438 9.53931 4.4844 1.2 -8.55257 -869992 2.31212e+06 3.09152e+06 -524845 -201023 -1.03145e+06
66 2 Si -2.8604 12.2234 4.4844 2.4 -32.7505 1.15562e+07 8.1952e+06 8.87725e+06 63780.8 -166674 -2.08342e+06
67 3 O -2.91391 10.6102 4.4844 -1.2 -9.57248 -3.98002e+06 88592.9 -3.80199e+06 184046 -81180.6 1.03036e+06
68 3 O 0.7596 13.1975 4.4844 -1.2 -9.21309 -3.35398e+06 -2.33205e+06 -3.62967e+06 2.21321e+06 -597226 1.12468e+06
69 3 O -2.12001 12.9296 3.18632 -1.2 -8.98082 -3.13227e+06 -3.21195e+06 -815019 1.15146e+06 -248146 -485009
70 3 O -2.16532 12.9296 5.78248 -1.2 -9.13517 -2.98188e+06 -3.10949e+06 -1.98057e+06 1.07214e+06 -134473 2.33966e+06
71 1 Mg 1.29891 11.8725 2.9896 1.2 -8.08129 4.25784e+06 -1.70563e+06 -58263.9 -1.20032e+06 -1.15834e+06 -2.76637e+06
72 1 Mg 4.10033 11.8312 4.4844 1.2 -8.6797 -881051 2.21847e+06 3.49163e+06 1.1123e+06 -412732 -1.07575e+06
73 2 Si 2.27333 13.896 4.4844 2.4 -33.0165 1.12538e+07 8.30737e+06 9.46025e+06 626185 -66272.4 -2.14639e+06
74 3 O 2.28634 15.5093 4.4844 -1.2 -9.29281 -4.14506e+06 239886 -4.34629e+06 435950 -182394 924197
75 3 O -4.34533 12.922 4.4844 -1.2 -9.30661 -3.5021e+06 -2.25213e+06 -3.3773e+06 -1.54456e+06 -349204 1.04031e+06
76 3 O 2.98455 13.1899 3.18632 -1.2 -8.96544 -2.98738e+06 -3.33433e+06 -1.03117e+06 -952735 -130748 2.37382e+06
77 1 Mg 1.34779 11.8725 0 1.2 -5.77511 3.22657e+06 -2.76726e+06 -6.75588e+06 3.56085e+06 806389 474056
78 3 O 2.93934 13.1899 5.78248 -1.2 -8.99769 -2.58627e+06 -3.43381e+06 -2.47616e+06 -872312 -89570.2 111174
79 1 Mg -1.50344 11.9138 1.4948 1.2 -8.50301 817555 1.6858e+06 4.37706e+06 1.56078e+06 -918266 -675368
80 2 Si 0.326006 9.84894 1.4948 2.4 -34.3653 7.87299e+06 1.2102e+07 1.09808e+07 -601414 188895 145457
81 3 O 0.317364 8.23571 1.4948 -1.2 -4.76538 -481296 -1.16175e+06 -3.49542e+07 -133896 1.14364e+06 5.16121e+06
82 3 O 6.94307 10.823 1.4948 -1.2 -9.50271 -4.56871e+06 -1.78111e+06 -1.12581e+06 -991056 -1.51082e+06 2.15435e+06
83 3 O -0.343122 10.5551 0.196716 -1.2 -3.55953 -15776.3 -1.11569e+07 -3.17916e+07 2.46373e+06 -2.06833e+06 5.6327e+06
84 3 O -0.385966 10.5551 2.79288 -1.2 -8.88241 -1.97713e+06 -3.79232e+06 -2.11273e+06 -863102 20263.9 2.17402e+06
85 1 Mg 6.49448 14.247 0 1.2 -5.89339 3.90154e+06 -2.19276e+06 -6.62951e+06 -2.96028e+06 255914 -2.4849e+06
86 1 Mg 3.74457 18.9547 1.4948 1.2 -9.01907 830845 1.4035e+06 5.17244e+06 -1.10381e+06 -981322 -933845
87 2 Si 5.55495 16.2705 1.4948 2.4 -35.069 9.10711e+06 1.06403e+07 1.23823e+07 552942 751256 -3.88086e+06
88 3 O 5.6115 17.8838 1.4948 -1.2 -4.61498 -2.29291e+06 -288205 -3.27164e+07 72121.2 -6.03267e+06 -3.42969e+06
89 3 O 1.93416 15.2965 1.4948 -1.2 -9.25344 -4.86655e+06 -1.23827e+06 -1.56074e+06 1.53562e+06 -1.37396e+06 -150488
90 3 O 4.85636 15.5644 0.196716 -1.2 -3.17384 -140245 -1.28993e+07 -3.07445e+07 -3.05236e+06 -5.09382e+06 -2.89183e+06
91 1 Mg 6.44662 14.247 2.9896 1.2 -8.14695 4.53566e+06 -1.92148e+06 5268.53 1.31332e+06 -1.21668e+06 1.05736e+06
92 3 O 4.81537 15.5644 2.79288 -1.2 -8.5791 -2.26822e+06 -3.40967e+06 -2.57685e+06 1.03977e+06 12024.4 -431436
93 1 Mg -0.948271 14.2883 4.4844 1.2 -8.75992 -736194 2.10665e+06 3.48739e+06 -622768 -214248 -982143
94 2 Si -2.75928 16.9724 4.4844 2.4 -33.3901 1.21816e+07 7.50447e+06 9.97044e+06 -133381 -146174 -1.50162e+06
95 3 O -2.81617 15.3592 4.4844 -1.2 -9.33625 -4.19675e+06 312804 -4.17716e+06 299634 -176314 792470
96 3 O 0.862762 17.9465 4.4844 -1.2 -8.92253 -3.99174e+06 -1.94664e+06 -3.84593e+06 2.16411e+06 -516805 900291
97 3 O -2.0185 17.6786 3.18632 -1.2 -8.68115 -3.50447e+06 -2.8357e+06 -1.31649e+06 1.19703e+06 -122258 -742143
98 3 O -2.06164 17.6786 5.78248 -1.2 -8.67943 -3.33863e+06 -2.75091e+06 -2.68317e+06 1.23473e+06 88010.3 2.26493e+06
99 1 Mg 1.39817 16.6215 2.9896 1.2 -8.32026 4.80522e+06 -2.06631e+06 135752 -1.16298e+06 -1.20436e+06 -2.48785e+06
100 1 Mg 4.20062 16.5802 4.4844 1.2 -8.916 -388251 1.94067e+06 3.65473e+06 1.21601e+06 -302685 -702508
101 2 Si 2.37796 18.645 4.4844 2.4 -33.6316 1.25553e+07 7.43044e+06 1.00232e+07 824485 114244 -1.64494e+06
102 3 O 2.39434 20.2583 4.4844 -1.2 -8.9995 -4.7164e+06 540504 -4.53935e+06 445608 -298048 896550
103 3 O -4.24274 17.671 4.4844 -1.2 -8.97396 -3.94699e+06 -1.84627e+06 -3.86433e+06 -1.41535e+06 -452850 701153
104 3 O 3.08659 17.9389 3.18632 -1.2 -8.68968 -3.47842e+06 -2.96405e+06 -1.39088e+06 -976706 -95746.1 2.06137e+06
105 1 Mg 1.44478 16.6215 0 1.2 -6.1596 5.3675e+06 -191816 -6.4131e+06 1.39101e+06 -55820.2 129414
106 3 O 3.0436 17.9389 5.78248 -1.2 -8.65873 -3.27663e+06 -3.00231e+06 -2.734e+06 -1.03639e+06 -299362 -299908
107 1 Mg -1.40524 16.6628 1.4948 1.2 -8.84538 1.03144e+06 1.43032e+06 4.91959e+06 1.67178e+06 -948291 -424676
108 2 Si 0.420358 14.5979 1.4948 2.4 -34.876 8.76509e+06 1.10628e+07 1.19304e+07 -167480 615242 615948
109 3 O 0.408732 12.9847 1.4948 -1.2 -4.56053 -915980 -722360 -3.51118e+07 239385 -2.59383e+06 5.29611e+06
110 3 O 7.03923 15.572 1.4948 -1.2 -9.27708 -5.01272e+06 -1.06435e+06 -1.51883e+06 -945339 -1.30845e+06 1.86908e+06
111 3 O -0.248332 15.3041 0.196716 -1.2 -3.29848 -504631 -1.24328e+07 -3.06998e+07 3.27386e+06 -5.44717e+06 4.86329e+06
112 3 O -0.289436 15.3041 2.79288 -1.2 -8.62818 -2.28488e+06 -3.50023e+06 -2.54692e+06 -823749 8497.46 1.96912e+06
113 1 Mg 6.59566 18.996 0 1.2 -6.27275 5.65714e+06 147372 -6.07426e+06 -915646 -687874 -1.53066e+06
114 1 Mg 3.85574 23.7037 1.4948 1.2 -9.20842 696622 1.83236e+06 5.04131e+06 -1.18551e+06 -909205 -541775
115 2 Si 5.66125 21.0195 1.4948 2.4 -35.4151 1.01548e+07 9.97792e+06 1.26132e+07 170325 1.17188e+06 -3.4732e+06
116 3 O 5.72074 22.6328 1.4948 -1.2 -5.06486 -4.17974e+06 -278491 -2.77774e+07 -208910 -8.48868e+06 -3.24071e+06
117 3 O 2.03867 20.0455 1.4948 -1.2 -9.05246 -5.28416e+06 -743550 -1.75692e+06 1.55883e+06 -1.17024e+06 -343098
118 3 O 4.96004 20.3134 0.196716 -1.2 -3.27116 -1.21105e+06 -1.41288e+07 -2.7102e+07 -3.18083e+06 -7.89996e+06 -2.21079e+06
119 1 Mg 6.55057 18.996 2.9896 1.2 -8.42327 5.00472e+06 -2.29099e+06 349045 1.28286e+06 -1.23889e+06 1.25698e+06
120 3 O 4.92172 20.3134 2.79288 -1.2 -8.31465 -2.60919e+06 -3.21123e+06 -2.89168e+06 1.07616e+06 -76936.9 -559381
121 1 Mg -0.84282 19.0373 4.4844 1.2 -9.09528 -194165 1.72361e+06 3.85921e+06 -556933 -339736 -911063
122 2 Si -2.64823 21.7214 4.4844 2.4 -33.8448 1.28883e+07 7.76857e+06 9.7335e+06 -78728.9 -418393 -1.74599e+06
123 3 O -2.70847 20.1082 4.4844 -1.2 -8.99753 -4.65314e+06 556207 -4.49165e+06 374017 -32286.8 873268
124 3 O 0.97581 22.6955 4.4844 -1.2 -8.81682 -4.27485e+06 -2.24457e+06 -3.44177e+06 2.18885e+06 -565833 833990
125 3 O -1.9076 22.4276 3.18632 -1.2 -8.52001 -3.74927e+06 -3.0159e+06 -1.18782e+06 1.17918e+06 17038.8 -842345
126 3 O -1.9475 22.4276 5.78248 -1.2 -8.53334 -3.71881e+06 -3.23193e+06 -2.0717e+06 1.16883e+06 201400 2.44492e+06
127 1 Mg 1.50678 21.3705 2.9896 1.2 -8.50339 5.27165e+06 -2.14123e+06 37676 -1.14426e+06 -1.19193e+06 -2.34582e+06
128 1 Mg 4.31086 21.3292 4.4844 1.2 -9.19682 -91900.5 1.92666e+06 3.8262e+06 1.20068e+06 -211933 -816269
129 2 Si 2.49243 23.394 4.4844 2.4 -33.7686 1.27902e+07 8.31047e+06 9.12171e+06 751733 211911 -1.38276e+06
130 3 O 2.51204 25.0073 4.4844 -1.2 -9.02952 -4.66279e+06 -45769 -3.97029e+06 527065 -288948 515779
131 3 O -4.13026 22.42 4.4844 -1.2 -8.7867 -4.13962e+06 -2.16076e+06 -3.66102e+06 -1.37309e+06 -352225 764188
132 3 O 3.19799 22.6879 3.18632 -1.2 -8.54048 -3.66264e+06 -3.17997e+06 -1.28764e+06 -934152 -59954.1 1.92636e+06
133 1 Mg 1.5501 21.3705 0 1.2 -6.42191 6.58767e+06 1.23401e+06 -5.86038e+06 -51270.7 -966478 2802.75
134 3 O 3.1583 22.6879 5.78248 -1.2 -8.54305 -3.42786e+06 -3.5596e+06 -2.07234e+06 -893026 -357915 -207595
135 1 Mg -1.29822 21.4118 1.4948 1.2 -9.11851 1.11628e+06 1.5227e+06 5.07559e+06 1.79899e+06 -946792 -262475
136 2 Si 0.523568 19.3469 1.4948 2.4 -35.3124 9.95038e+06 1.01456e+07 1.23897e+07 308311 1.03983e+06 1.23419e+06
137 3 O 0.508934 17.7337 1.4948 -1.2 -4.62011 -2.38247e+06 -276890 -3.27648e+07 675097 -6.10268e+06 4.81511e+06
138 3 O 7.14425 20.321 1.4948 -1.2 -9.07512 -5.36592e+06 -608480 -1.75364e+06 -924693 -1.05014e+06 1.62285e+06
139 3 O -0.145107 20.0531 0.196716 -1.2 -3.39486 -1.65265e+06 -1.37672e+07 -2.70276e+07 3.67841e+06 -8.24166e+06 3.63648e+06
140 3 O -0.183601 20.0531 2.79288 -1.2 -8.37844 -2.72171e+06 -3.28968e+06 -2.76775e+06 -837828 -12624.2 1.79094e+06
141 1 Mg 6.70502 23.745 0 1.2 -6.49048 6.36514e+06 1.62028e+06 -5.52249e+06 394829 -1.48105e+06 -737302
142 1 Mg 3.97493 28.4527 1.4948 1.2 -9.24568 292342 2.6905e+06 4.41457e+06 -1.2325e+06 -761705 150344
143 2 Si 5.77602 25.7685 1.4948 2.4 -35.3291 1.08294e+07 1.03975e+07 1.14689e+07 -116093 1.5249e+06 -2.42422e+06
144 3 O 5.83821 27.3818 1.4948 -1.2 -5.88874 -5.87478e+06 -753657 -2.10518e+07 -343107 -9.29428e+06 -3.22031e+06
145 3 O 2.15175 24.7945 1.4948 -1.2 -9.01035 -5.34272e+06 -930441 -1.44535e+06 1.61108e+06 -944368 -728645
146 3 O 5.07184 25.0624 0.196716 -1.2 -3.82805 -2.55473e+06 -1.51401e+07 -2.12338e+07 -2.77621e+06 -9.4194e+06 -1.44305e+06
147 1 Mg 6.66374 23.745 2.9896 1.2 -8.49509 5.19238e+06 -1.91908e+06 -92560.4 1.30391e+06 -1.31329e+06 1.47131e+06
148 3 O 5.03707 25.0624 2.79288 -1.2 -8.28163 -2.63362e+06 -3.73854e+06 -2.43342e+06 1.08762e+06 -151278 -917789
149 1 Mg -0.727559 23.7863 4.4844 1.2 -9.11594 -79009 2.24581e+06 3.24529e+06 -495154 -297653 -693397
150 2 Si -2.5277 26.4704 4.4844 2.4 -33.6784 1.2609e+07 9.02464e+06 8.49199e+06 75018.3 -486622 -491433
151 3 O -2.59107 24.8572 4.4844 -1.2 -9.02433 -4.63463e+06 -108909 -3.80122e+06 354091 60442.4 478396
152 3 O 1.09817 27.4445 4.4844 -1.2 -8.91823 -4.15238e+06 -2.8627e+06 -2.79582e+06 2.29362e+06 -472826 279159
153 3 O -1.78784 27.1766 3.18632 -1.2 -8.55624 -3.62703e+06 -3.65731e+06 -668914 1.15585e+06 104400 -1.43434e+06
154 3 O -1.82343 27.1766 5.78248 -1.2 -8.69 -3.41163e+06 -3.64993e+06 -1.60128e+06 1.14736e+06 237238 1.64498e+06
155 1 Mg 1.62435 26.1195 2.9896 1.2 -8.46722 5.32635e+06 -1.56937e+06 -643795 -1.16479e+06 -1.24531e+06 -1.82027e+06
156 1 Mg 4.43064 26.0782 4.4844 1.2 -9.1349 -232928 2.55945e+06 3.23625e+06 1.23859e+06 -162096 -334749
157 2 Si 2.61607 28.143 4.4844 2.4 -33.5418 1.25861e+07 9.60291e+06 7.67111e+06 675590 165477 -351804
158 3 O 2.63853 29.7563 4.4844 -1.2 -9.13537 -4.56565e+06 -789288 -3.1585e+06 607821 -210070 -121999
159 3 O -4.00841 27.169 4.4844 -1.2 -8.87927 -3.99249e+06 -2.7618e+06 -3.05656e+06 -1.41176e+06 -345850 175924
160 3 O 3.3182 27.4369 3.18632 -1.2 -8.58656 -3.55324e+06 -3.84703e+06 -732743 -893128 16919.6 1.36761e+06
161 1 Mg 1.66335 26.1195 0 1.2 -6.53083 6.46494e+06 2.30856e+06 -5.41816e+06 -891617 -1.60911e+06 402209
162 3 O 3.28288 27.4369 5.78248 -1.2 -8.70742 -3.25049e+06 -3.98676e+06 -1.58873e+06 -910174 -418708 -652332
163 1 Mg -1.18278 26.1608 1.4948 1.2 -9.20871 840664 2.23558e+06 4.59064e+06 1.88714e+06 -852413 191586
164 2 Si 0.635424 24.0959 1.4948 2.4 -35.371 1.07983e+07 1.0255e+07 1.15936e+07 758303 1.39364e+06 2.00188e+06
165 3 O 0.617906 22.4827 1.4948 -1.2 -5.07578 -4.34429e+06 -233215 -2.77761e+07 1.00355e+06 -8.55763e+06 4.10256e+06
166 3 O 7.25781 25.07 1.4948 -1.2 -9.04549 -5.41754e+06 -848513 -1.38993e+06 -931864 -816577 1.16988e+06
167 3 O -0.0337363 24.8021 0.196716 -1.2 -3.93961 -3.04026e+06 -1.50472e+07 -2.1075e+07 3.49396e+06 -9.64715e+06 1.87474e+06
168 3 O -0.0687235 24.8021 2.79288 -1.2 -8.35106 -2.81909e+06 -3.79253e+06 -2.2664e+06 -830374 -72417.8 1.36133e+06
169 1 Mg 6.82195 28.494 0 1.2 -6.56154 5.84774e+06 2.73395e+06 -5.12545e+06 1.15897e+06 -1.7957e+06 -11946.8
170 1 Mg 4.10106 33.2017 1.4948 1.2 -9.30408 -69670.5 3.22834e+06 3.99176e+06 -1.22453e+06 -548268 598593
171 2 Si 5.89839 30.5175 1.4948 2.4 -35.033 1.14381e+07 1.10195e+07 9.84681e+06 -330058 1.7022e+06 -1.11247e+06
172 3 O 5.96289 32.1308 1.4948 -1.2 -6.78199 -6.99896e+06 -1.1398e+06 -1.4455e+07 -285457 -8.46154e+06 -3.07174e+06
173 3 O 2.27266 29.5435 1.4948 -1.2 -9.06483 -5.18391e+06 -1.49501e+06 -904176 1.67026e+06 -713675 -1.32619e+06
174 3 O 5.19102 29.8114 0.196716 -1.2 -4.74132 -3.81576e+06 -1.53866e+07 -1.44609e+07 -1.93034e+06 -9.29438e+06 -723795
175 1 Mg 6.78546 28.494 2.9896 1.2 -8.41865 5.15977e+06 -1.27963e+06 -816392 1.33514e+06 -1.34177e+06 2.05592e+06
176 3 O 5.16061 29.8114 2.79288 -1.2 -8.35014 -2.61299e+06 -4.40305e+06 -1.71831e+06 1.1166e+06 -244227 -1.51252e+06
177 1 Mg -0.603205 28.5353 4.4844 1.2 -9.03283 -325606 2.87012e+06 2.72823e+06 -467845 -330000 -64326.2
178 2 Si -2.39877 31.2194 4.4844 2.4 -33.5854 1.24143e+07 1.0255e+07 7.31743e+06 181420 -306626 832504
179 3 O -2.46483 29.6062 4.4844 -1.2 -9.10496 -4.44126e+06 -736586 -3.22278e+06 330697 30157 -83661.2
180 3 O 1.22864 32.1935 4.4844 -1.2 -8.89469 -4.08137e+06 -3.37893e+06 -2.38376e+06 2.244e+06 -391570 -629913
181 3 O -1.66032 31.9256 3.18632 -1.2 -8.55607 -3.53833e+06 -4.15676e+06 -333121 1.12016e+06 121075 -2.05802e+06
182 3 O -1.69072 31.9256 5.78248 -1.2 -8.69064 -3.23694e+06 -4.35104e+06 -1.14691e+06 1.08255e+06 137624 825378
183 1 Mg 1.7499 30.8685 2.9896 1.2 -8.41342 5.29253e+06 -933964 -1.32496e+06 -1.15057e+06 -1.36757e+06 -1.10383e+06
184 1 Mg 4.55894 30.8272 4.4844 1.2 -9.04448 -281429 3.2328e+06 2.46807e+06 1.1623e+06 -109282 344415
185 2 Si 2.7476 32.892 4.4844 2.4 -33.6495 1.25265e+07 1.02382e+07 7.27221e+06 651518 -79033.9 1.54021e+06
186 3 O 2.77235 34.5053 4.4844 -1.2 -8.97745 -4.61303e+06 -637014 -3.512e+06 615131 -60285.6 -861236
187 3 O -3.87837 31.918 4.4844 -1.2 -8.93407 -4.07121e+06 -3.26813e+06 -2.38452e+06 -1.33659e+06 -357763 -562690
188 3 O 3.44611 32.1859 3.18632 -1.2 -8.58603 -3.48853e+06 -4.33073e+06 -406620 -837572 150171 648894
189 1 Mg 1.7837 30.8685 0 1.2 -6.5755 5.3503e+06 3.13996e+06 -5.12391e+06 -1.35718e+06 -1.56988e+06 1.02142e+06
190 3 O 3.41602 32.1859 5.78248 -1.2 -8.73763 -3.15732e+06 -4.60074e+06 -1.00302e+06 -742022 -208956 -1.84453e+06
191 1 Mg -1.05984 30.9098 1.4948 1.2 -9.23709 396129 3.04423e+06 3.97024e+06 1.92361e+06 -639683 677877
192 2 Si 0.755243 28.8449 1.4948 2.4 -35.1181 1.1305e+07 1.09691e+07 1.00527e+07 1.12877e+06 1.577e+06 3.14616e+06
193 3 O 0.735127 27.2317 1.4948 -1.2 -5.89915 -6.05815e+06 -702276 -2.10415e+07 1.1794e+06 -9.31634e+06 2.91559e+06
194 3 O 7.37914 29.819 1.4948 -1.2 -9.10318 -5.27412e+06 -1.40011e+06 -856104 -945823 -615849 576604
195 3 O 0.0850649 29.5511 0.196716 -1.2 -4.82071 -4.19515e+06 -1.56715e+07 -1.43165e+07 2.69652e+06 -9.42677e+06 -70483.9
196 3 O 0.0543974 29.5511 2.79288 -1.2 -8.41097 -2.74066e+06 -4.47896e+06 -1.61231e+06 -840818 -98132.2 681030
197 1 Mg 6.94543 33.243 0 1.2 -6.6525 4.72098e+06 3.27399e+06 -4.71946e+06 1.59002e+06 -1.40622e+06 -55219.8
198 1 Mg 4.23267 37.9507 1.4948 1.2 -9.41788 -251441 3.07141e+06 4.09838e+06 -1.12754e+06 -258987 596328
199 2 Si 6.02709 35.2665 1.4948 2.4 -34.8951 1.2374e+07 1.02702e+07 9.48906e+06 -420127 1.57965e+06 -667807
200 3 O 6.09339 36.8798 1.4948 -1.2 -7.49071 -7.40826e+06 -810822 -9.73263e+06 -144603 -6.58619e+06 -2.53991e+06
201 3 O 2.40018 34.2925 1.4948 -1.2 -9.0244 -5.0896e+06 -1.62016e+06 -989849 1.70448e+06 -504608 -1.56299e+06
202 3 O 5.31645 34.5604 0.196716 -1.2 -5.67077 -4.8583e+06 -1.39911e+07 -8.888e+06 -948044 -7.84312e+06 402816
203 1 Mg 6.91449 33.243 2.9896 1.2 -8.41292 5.30512e+06 -1.04208e+06 -1.20022e+06 1.31228e+06 -1.39343e+06 2.57915e+06
204 3 O 5.291 34.5604 2.79288 -1.2 -8.31711 -2.83421e+06 -4.37209e+06 -1.61754e+06 1.15446e+06 -235793 -1.88934e+06
205 1 Mg -0.471101 33.2843 4.4844 1.2 -9.11671 -289204 3.06856e+06 2.62312e+06 -348133 -178347 734475
206 2 Si -2.26307 35.9684 4.4844 2.4 -33.8006 1.31565e+07 9.43449e+06 7.74204e+06 150526 -178333 1.36943e+06
207 3 O -2.33122 34.3552 4.4844 -1.2 -9.02108 -4.70802e+06 -591502 -3.22915e+06 377830 -20232.5 -696232
208 3 O 1.36549 36.9425 4.4844 -1.2 -8.7101 -4.1718e+06 -2.97257e+06 -2.99943e+06 2.26307e+06 -439363 -691849
209 3 O -1.52658 36.6746 3.18632 -1.2 -8.45567 -3.67895e+06 -3.88479e+06 -721057 1.1317e+06 85741.5 -2.14061e+06
210 3 O -1.55122 36.6746 5.78248 -1.2 -8.54992 -3.78293e+06 -3.75325e+06 -1.29827e+06 1.09677e+06 -82699.3 692567
211 1 Mg 1.882 35.6175 2.9896 1.2 -8.50669 5.37035e+06 -1.1197e+06 -1.05746e+06 -1.11409e+06 -1.45524e+06 -830436
212 1 Mg 4.69415 35.5762 4.4844 1.2 -9.18027 -7918.48 2.82104e+06 2.82373e+06 1.15389e+06 -259821 799919
213 2 Si 2.88522 37.641 4.4844 2.4 -33.9748 1.26172e+07 9.45355e+06 8.48862e+06 761658 -204002 1.434e+06
214 3 O 2.91159 39.2543 4.4844 -1.2 -8.891 -4.61983e+06 -369174 -3.91573e+06 591534 -10354 -674547
215 3 O -3.74183 36.667 4.4844 -1.2 -8.83906 -4.47152e+06 -2.80734e+06 -2.60204e+06 -1.2944e+06 -185831 -722615
216 3 O 3.58014 36.9349 3.18632 -1.2 -8.46537 -3.53264e+06 -4.02618e+06 -965516 -843001 278765 553618
217 1 Mg 1.90997 35.6175 0 1.2 -6.73669 4.13166e+06 3.04764e+06 -4.5333e+06 -1.67115e+06 -805028 1.33895e+06
218 3 O 3.55582 36.9349 5.78248 -1.2 -8.43663 -3.33772e+06 -4.01006e+06 -1.83469e+06 -852053 41880.7 -1.92556e+06
219 1 Mg -0.93068 35.6588 1.4948 1.2 -9.34248 139666 3.13558e+06 3.9121e+06 1.87076e+06 -293443 678539
220 2 Si 0.881882 33.5939 1.4948 2.4 -34.9402 1.19534e+07 1.08401e+07 9.3193e+06 1.4226e+06 1.6258e+06 3.59037e+06
221 3 O 0.859602 31.9807 1.4948 -1.2 -6.78435 -7.11734e+06 -1.1143e+06 -1.45023e+07 1.15518e+06 -8.46456e+06 1.80419e+06
222 3 O 7.507 34.568 1.4948 -1.2 -9.06844 -5.26242e+06 -1.48846e+06 -901854 -943009 -435830 416576
223 3 O 0.210186 34.3001 0.196716 -1.2 -5.71872 -5.06369e+06 -1.47075e+07 -8.73852e+06 1.52866e+06 -7.93533e+06 -1.28135e+06
224 3 O 0.184454 34.3001 2.79288 -1.2 -8.36231 -2.84731e+06 -4.52284e+06 -1.58422e+06 -876009 -205054 235054
225 1 Mg 7.07415 37.992 0 1.2 -6.85959 3.70892e+06 2.77452e+06 -4.02535e+06 1.90418e+06 -408891 -738937
226 1 Mg 4.36817 42.6997 1.4948 1.2 -9.39704 -440163 3.32145e+06 3.62176e+06 -987943 99778.3 665887
227 2 Si 6.16058 40.0155 1.4948 2.4 -34.778 1.31502e+07 9.14215e+06 9.66088e+06 -336982 1.24034e+06 -375402
228 3 O 6.22815 41.6288 1.4948 -1.2 -8.08713 -6.9681e+06 -732407 -6.38657e+06 18604.2 -4.47951e+06 -2.23591e+06
229 3 O 2.53282 39.0415 1.4948 -1.2 -8.92533 -5.07427e+06 -1.39118e+06 -1.55315e+06 1.73114e+06 -350863 -1.5209e+06
230 3 O 5.44674 39.3094 0.196716 -1.2 -6.4656 -5.49704e+06 -1.12232e+07 -5.30323e+06 -166986 -5.74284e+06 1.19034e+06
231 1 Mg 7.04922 37.992 2.9896 1.2 -8.46757 5.52374e+06 -1.34672e+06 -1.01572e+06 1.30619e+06 -1.51193e+06 2.57166e+06
232 3 O 5.42658 39.3094 2.79288 -1.2 -8.28634 -3.05589e+06 -4.06754e+06 -1.78014e+06 1.11887e+06 -215069 -1.8345e+06
233 1 Mg -0.333062 38.0333 4.4844 1.2 -9.22266 -144958 2.73234e+06 2.97971e+06 -423646 37069.5 702392
234 2 Si -2.12255 40.7174 4.4844 2.4 -33.8323 1.314e+07 9.03772e+06 8.21087e+06 99812.5 -127429 1.31484e+06
235 3 O -2.19212 39.1042 4.4844 -1.2 -8.97683 -4.87644e+06 -316302 -3.40402e+06 430798 -44475.4 -714612
236 3 O 1.50676 41.6915 4.4844 -1.2 -8.74946 -4.16481e+06 -2.91634e+06 -3.00399e+06 2.34294e+06 -316597 -442318
237 3 O -1.3884 41.4236 3.18632 -1.2 -8.44111 -3.57342e+06 -3.83276e+06 -1.00569e+06 1.16044e+06 104021 -2.06512e+06
238 3 O -1.40713 41.4236 5.78248 -1.2 -8.51582 -3.64771e+06 -3.48957e+06 -1.72617e+06 1.22394e+06 -28041 824427
239 1 Mg 2.01892 40.3665 2.9896 1.2 -8.52978 5.40017e+06 -1.27124e+06 -885607 -1.10879e+06 -1.54857e+06 -934967
240 1 Mg 4.83434 40.3252 4.4844 1.2 -9.20191 48245 2.59839e+06 3.02535e+06 1.29148e+06 -255323 648495
241 2 Si 3.02698 42.39 4.4844 2.4 -33.8098 1.25268e+07 9.56513e+06 8.20559e+06 810778 -168953 840738
242 3 O 3.05433 44.0033 4.4844 -1.2 -9.05615 -4.48126e+06 -742029 -3.41842e+06 576334 -21407.8 -476742
243 3 O -3.60077 41.416 4.4844 -1.2 -8.85345 -4.47073e+06 -2.66461e+06 -2.72221e+06 -1.34694e+06 -156796 -620347
244 3 O 3.71851 41.6839 3.18632 -1.2 -8.47341 -3.46715e+06 -4.03311e+06 -1.12184e+06 -862259 275823 664181
245 1 Mg 2.04077 40.3665 0 1.2 -6.8925 3.24733e+06 2.59112e+06 -4.36394e+06 -1.86646e+06 469045 2.23893e+06
246 3 O 3.70011 41.6839 5.78248 -1.2 -8.50451 -3.3064e+06 -3.83771e+06 -1.85461e+06 -986357 -9664.77 -1.49999e+06
247 1 Mg -0.796865 40.4078 1.4948 1.2 -9.40659 -62072.3 3.0703e+06 3.8902e+06 1.74396e+06 70045.6 674171
248 2 Si 1.01387 38.3429 1.4948 2.4 -34.8854 1.27504e+07 9.54018e+06 9.76963e+06 1.50837e+06 1.52492e+06 3.18139e+06
249 3 O 0.989947 36.7297 1.4948 -1.2 -7.4817 -7.44752e+06 -813659 -9.85674e+06 1.04003e+06 -6.65462e+06 1.33504e+06
250 3 O 7.63988 39.317 1.4948 -1.2 -8.97737 -5.26002e+06 -1.28611e+06 -1.42613e+06 -943807 -252044 455306
251 3 O 0.340253 39.0491 0.196716 -1.2 -6.47211 -5.55001e+06 -1.21446e+07 -5.27388e+06 404750 -5.88678e+06 -2.0931e+06
252 3 O 0.319795 39.0491 2.79288 -1.2 -8.31712 -3.01146e+06 -4.22913e+06 -1.82601e+06 -843503 -280451 280350
253 1 Mg 7.20667 42.741 0 1.2 -6.91967 2.85951e+06 2.76969e+06 -4.53861e+06 1.99358e+06 858406 -1.35101e+06
254 1 Mg 4.50613 47.4487 1.4948 1.2 -9.28849 -584161 3.72248e+06 2.98762e+06 -850865 401403 845367
255 2 Si 6.29731 44.7645 1.4948 2.4 -34.4703 1.32591e+07 9.30296e+06 8.87501e+06 -235763 846448 -54232.5
256 3 O 6.36567 46.3778 1.4948 -1.2 -8.58063 -6.01267e+06 -1.09803e+06 -4.08464e+06 181185 -2.66803e+06 -2.08382e+06
257 3 O 2.669 43.7905 1.4948 -1.2 -8.93082 -4.89684e+06 -1.84255e+06 -1.54026e+06 1.71616e+06 -220783 -1.58347e+06
258 3 O 5.58048 44.0584 0.196716 -1.2 -7.22853 -5.36563e+06 -8.93879e+06 -2.53213e+06 317671 -3.67641e+06 1.64283e+06
259 1 Mg 7.1879 42.741 2.9896 1.2 -8.42274 5.40996e+06 -1.21831e+06 -1.08885e+06 1.28747e+06 -1.60206e+06 2.49871e+06
260 3 O 5.56564 44.0584 2.79288 -1.2 -8.39094 -3.03962e+06 -4.32243e+06 -1.39859e+06 1.12741e+06 -250645 -1.79067e+06
261 1 Mg -0.19105 42.7823 4.4844 1.2 -9.16104 -302880 2.81537e+06 2.95485e+06 -461295 -16034 476977
262 2 Si -1.97909 45.4664 4.4844 2.4 -33.5272 1.24209e+07 1.01258e+07 7.35433e+06 75526.8 -179344 1.19449e+06
263 3 O -2.04947 43.8532 4.4844 -1.2 -9.06936 -4.58143e+06 -608759 -3.25644e+06 466047 -3560.61 -485210
264 3 O 1.65063 46.4405 4.4844 -1.2 -8.94758 -3.93481e+06 -3.45055e+06 -2.38195e+06 2.27598e+06 -241661 -694474
265 3 O -1.24745 46.1726 3.18632 -1.2 -8.54937 -3.29201e+06 -4.30809e+06 -742733 1.14438e+06 97683.7 -2.12757e+06
266 3 O -1.26044 46.1726 5.78248 -1.2 -8.76874 -3.16735e+06 -4.21776e+06 -951257 1.19403e+06 66779 768420
267 1 Mg 2.15896 45.1155 2.9896 1.2 -8.41146 5.23784e+06 -829232 -1.33908e+06 -1.06451e+06 -1.66127e+06 -895783
268 1 Mg 4.97763 45.0742 4.4844 1.2 -9.02764 -221703 3.11272e+06 2.50158e+06 1.25102e+06 -105504 611890
269 2 Si 3.1711 47.139 4.4844 2.4 -33.4695 1.19433e+07 1.04521e+07 7.35952e+06 775338 -48436.5 1.62833e+06