ITEM: TIMESTEP
13500
ITEM: NUMBER OF ATOMS
10500
ITEM: BOX BOUNDS xy xz yz pp pp pp
0.0000000000000000e+00 1.5297450000000000e+01 5.0990000000000002e+00
0.0000000000000000e+00 1.1872499999999999e+02 0.0000000000000000e+00
0.0000000000000000e+00 8.9688000000000002e+01 0.0000000000000000e+00
ITEM: ATOMS id type element xu yu zu q c_pe c_s[1] c_s[2] c_s[3] c_s[4] c_s[5] c_s[6]
1 1 Mg 6.2404 -6.37941e-06 0 1.2 -4.64269 8.19892e+06 -1.74482e+06 -6.27667e+06 -4561.97 2.63189e+06 110365
2 1 Mg 3.46349 4.70768 1.4948 1.2 -8.7496 72558.5 2.92728e+06 4.11466e+06 -943195 -621883 421203
3 2 Si 5.2885 2.02354 1.4948 2.4 -35.8036 1.08232e+07 1.13204e+07 1.10126e+07 8.85319e+06 654940 -2.21415e+06
4 3 O 5.33628 3.63678 1.4948 -1.2 -4.44864 -1.23491e+06 -1.62812e+06 -3.35074e+07 -326840 3.84122e+06 -4.2661e+06
5 3 O 1.67294 1.04952 1.4948 -1.2 -0.779567 -2.0764e+07 -7.96203e+07 -1.8926e+06 -2.41266e+07 -130571 -524031
6 3 O 4.59532 1.31737 0.196716 -1.2 -2.81121 -2.2697e+06 -6.75622e+06 -3.04495e+07 -6.02868e+06 6.26128e+06 -3.03817e+06
7 1 Mg 6.18956 -6.37941e-06 2.9896 1.2 -5.26851 2.05659e+06 -2.78473e+07 -3.31267e+06 -8.85244e+06 2.44028e+06 4.51455e+06
8 3 O 4.55118 1.31737 2.79288 -1.2 -7.16173 -362166 -4.99176e+06 -2.91272e+06 -2.94725e+06 -3.39439e+06 -1.61333e+06
9 1 Mg -1.20682 0.0413099 4.4844 1.2 8.54713 -3.00875e+07 -9.29831e+07 -749503 -2.84509e+07 -1.2467e+06 708136
10 2 Si -3.0337 2.72544 4.4844 2.4 -34.056 1.59556e+07 7.42686e+06 7.55423e+06 1.55964e+06 53309.9 310389
11 3 O -3.08099 1.11221 4.4844 -1.2 -9.19488 -6.84789e+06 -331999 -1.79552e+06 -1.22064e+06 -188847 -280345
12 3 O 0.582463 3.69946 4.4844 -1.2 -8.49116 -4.05555e+06 -5.67394e+06 -2.61617e+06 -598399 -203539 -450921
13 3 O -2.29524 3.43162 3.18632 -1.2 -8.68412 -4.86954e+06 -2.70944e+06 -342178 1.0946e+06 -814135 -1.32754e+06
14 3 O -2.34216 3.43162 5.78248 -1.2 -8.25006 -5.03544e+06 -3.29715e+06 -1.35481e+06 823685 547067 1.03671e+06
15 1 Mg 1.12778 2.37449 2.9896 1.2 -7.95927 5.75962e+06 -1.43304e+06 -894555 -3.26919e+06 -4.16308e+06 -1.77403e+06
16 1 Mg 3.92855 2.33318 4.4844 1.2 -8.9424 -3.50197e+06 5.2453e+06 4.61059e+06 1.37774e+06 273677 1.03509e+06
17 2 Si 2.09341 4.39804 4.4844 2.4 -33.3958 1.34979e+07 7.31884e+06 8.62423e+06 250990 -80914.4 1.12422e+06
18 3 O 2.09991 6.01128 4.4844 -1.2 -9.00935 -4.68345e+06 -441704 -3.57294e+06 548102 -265342 -193615
19 3 O -4.52137 3.42402 4.4844 -1.2 -8.6754 -3.67872e+06 -3.12262e+06 -3.38874e+06 -2.37465e+06 -789046 -367484
20 3 O 2.80834 3.69187 3.18632 -1.2 -8.93901 -2.68737e+06 -3.04367e+06 -262236 454361 -514628 -889254
21 1 Mg 1.17857 2.37449 0 1.2 -5.33097 -266427 -1.47881e+07 -6.48783e+06 6.50704e+06 1.21891e+06 4.94303e+06
22 3 O 2.76143 3.69187 5.78248 -1.2 -8.67648 -3.6486e+06 -2.75304e+06 -1.15356e+06 465073 -91148.9 -416291
23 1 Mg -1.67381 2.41581 1.4948 1.2 -7.85256 2.01543e+06 -75449.3 3.90739e+06 1.36149e+06 -582055 1.41892e+06
24 2 Si 0.16286 0.350945 1.4948 2.4 -25.0851 -7.29285e+06 1.2886e+07 1.08956e+07 1.58778e+06 2.84545e+06 2.03087e+06
25 3 O 0.15972 -1.26229 1.4948 -1.2 -4.50278 -1.11263e+07 -8.31625e+06 -2.86161e+07 -5.5987e+06 -8.5277e+06 -3.04893e+06
26 3 O 6.77654 1.32496 1.4948 -1.2 -10.0826 -6.16399e+06 1.58777e+06 -1.21451e+06 -645797 -638216 653427
27 3 O -0.508028 1.05712 0.196716 -1.2 -9.31617 -266209 -4.75269e+06 -585825 -549915 180084 -4.87431e+06
28 3 O -0.552171 1.05712 2.79288 -1.2 -6.47435 -5.89e+06 -4.86109e+06 -2.43555e+07 1.40814e+06 -6.79334e+06 -6.01194e+06
29 1 Mg 6.31713 4.74899 0 1.2 -5.12202 664266 -1.27394e+07 -6.27088e+06 -7.30909e+06 1.40119e+06 -3.23472e+06
30 1 Mg 3.54847 9.45668 1.4948 1.2 -8.49792 509313 2.3589e+06 3.82169e+06 -960116 -936147 -207079
31 2 Si 5.36879 6.77254 1.4948 2.4 -34.7651 8.04736e+06 1.28502e+07 1.07505e+07 1.65339e+06 89064.9 -1.49858e+06
32 3 O 5.41937 8.38578 1.4948 -1.2 -4.56773 -645193 -1.49165e+06 -3.4647e+07 766778 1.13423e+06 -4.38395e+06
33 3 O 1.75158 5.79852 1.4948 -1.2 -9.24533 -4.38557e+06 -2.67069e+06 -1.14264e+06 1.96951e+06 -1.62111e+06 -1.62701e+06
34 3 O 4.67421 6.06637 0.196716 -1.2 -3.60134 -129996 -1.04072e+07 -3.11729e+07 -1.99793e+06 1.31115e+06 -4.75444e+06
35 1 Mg 6.26654 4.74899 2.9896 1.2 -8.39785 4.72592e+06 -1.41767e+06 -283469 1.7901e+06 -899678 2.21358e+06
36 3 O 4.63043 6.06637 2.79288 -1.2 -8.50711 -2.11571e+06 -4.34099e+06 -1.86626e+06 949428 -71062.1 -1.65481e+06
37 1 Mg -1.12976 4.79031 4.4844 1.2 -9.26909 264957 3.01092e+06 2.44442e+06 -677758 -388122 76389.6
38 2 Si -2.9517 7.47444 4.4844 2.4 -33.6272 1.28801e+07 1.01491e+07 7.00722e+06 125778 -122847 -76988.6
39 3 O -3.00198 5.86121 4.4844 -1.2 -8.9794 -4.87774e+06 -527816 -3.21756e+06 45861.4 -154204 -11961.5
40 3 O 0.666315 8.44846 4.4844 -1.2 -8.90325 -3.92504e+06 -3.41267e+06 -2.45825e+06 2.13293e+06 -567724 -66486.7
41 3 O -2.21213 8.18062 3.18632 -1.2 -8.8058 -3.48813e+06 -4.00188e+06 58894.3 1.08179e+06 -306096 -1.52964e+06
42 3 O -2.25864 8.18062 5.78248 -1.2 -8.59969 -3.84085e+06 -4.56903e+06 -537512 968037 -149187 1.38996e+06
43 1 Mg 1.20893 7.12349 2.9896 1.2 -8.32118 4.61653e+06 -1.11213e+06 -622822 -1.28949e+06 -1.27681e+06 -1.53534e+06
44 1 Mg 4.00982 7.08218 4.4844 1.2 -9.13696 -277656 3.16607e+06 2.67369e+06 977459 -317977 109170
45 2 Si 2.17861 9.14704 4.4844 2.4 -33.5535 1.20503e+07 1.06242e+07 7.21659e+06 478277 41111.1 305887
46 3 O 2.18828 10.7603 4.4844 -1.2 -9.17118 -4.24275e+06 -1.05254e+06 -3.1344e+06 486359 -203753 -142955
47 3 O -4.43805 8.17302 4.4844 -1.2 -8.93289 -4.01048e+06 -3.37159e+06 -2.33543e+06 -1.54184e+06 -352545 -44348.9
48 3 O 2.89193 8.44087 3.18632 -1.2 -8.80346 -3.19049e+06 -4.23305e+06 -159733 -898911 -234786 1.17754e+06
49 1 Mg 1.25915 7.12349 0 1.2 -5.45232 1.17582e+06 -7.21755e+06 -6.6709e+06 5.90055e+06 1.3918e+06 2.87959e+06
50 3 O 2.84547 8.44087 5.78248 -1.2 -8.49719 -3.34429e+06 -4.8918e+06 -1.05287e+06 -746386 -256229 -1.32446e+06
51 1 Mg -1.59284 7.16481 1.4948 1.2 -8.46966 1.2049e+06 1.78537e+06 3.85295e+06 1.46791e+06 -913058 542297
52 2 Si 0.240329 5.09994 1.4948 2.4 -34.5868 9.1556e+06 1.14123e+07 1.07952e+07 -1.94621e+06 -1.01067e+06 2.56905e+06
53 3 O 0.234538 3.48671 1.4948 -1.2 -4.95129 -2.23143e+06 250449 -3.36199e+07 393756 5.16215e+06 3.57933e+06
54 3 O 6.85564 6.07396 1.4948 -1.2 -9.33535 -4.82883e+06 -2.13794e+06 -1.05048e+06 -1.34503e+06 -1.80482e+06 907873
55 3 O -0.429565 5.80612 0.196716 -1.2 -3.84556 -958839 -9.02302e+06 -3.1293e+07 1.84015e+06 1.18284e+06 4.23274e+06
56 3 O -0.473377 5.80612 2.79288 -1.2 -8.605 -2.72199e+06 -3.87972e+06 -1.66647e+06 -793997 279055 1.10197e+06
57 1 Mg 6.40169 9.49799 0 1.2 -5.35029 1.70315e+06 -5.87215e+06 -7.19414e+06 -5.49034e+06 984047 -2.29465e+06
58 1 Mg 3.64209 14.2057 1.4948 1.2 -8.47155 290362 2.54537e+06 3.771e+06 -1.02471e+06 -1.02236e+06 -466769
59 2 Si 5.45748 11.5215 1.4948 2.4 -34.4902 7.95527e+06 1.31261e+07 1.01024e+07 913533 290803 -2.14379e+06
60 3 O 5.51101 13.1348 1.4948 -1.2 -4.71085 -658589 -1.60715e+06 -3.41095e+07 458195 -2.51303e+06 -4.23632e+06
61 3 O 1.83851 10.5475 1.4948 -1.2 -9.43542 -4.41036e+06 -2.54578e+06 -666952 1.54284e+06 -1.58985e+06 -1.1659e+06
62 3 O 4.7611 10.8154 0.196716 -1.2 -3.56397 472239 -1.21201e+07 -3.13449e+07 -2.48283e+06 -1.74967e+06 -4.35678e+06
63 1 Mg 6.35203 9.49799 2.9896 1.2 -8.20486 4.54503e+06 -902843 -928981 1.33016e+06 -1.23056e+06 2.07575e+06
64 3 O 4.71833 10.8154 2.79288 -1.2 -8.68247 -2.13951e+06 -4.51746e+06 -1.39892e+06 1.04209e+06 85642.9 -1.36031e+06
65 1 Mg -1.0438 9.53931 4.4844 1.2 -8.97307 -300517 3.33511e+06 2.17343e+06 -554478 -183948 99130.6
66 2 Si -2.8604 12.2234 4.4844 2.4 -33.2604 1.22367e+07 1.02701e+07 6.93936e+06 9126.23 -17885.1 333892
67 3 O -2.91391 10.6102 4.4844 -1.2 -9.23145 -4.47023e+06 -991286 -2.77452e+06 192913 -186455 -217467
68 3 O 0.7596 13.1975 4.4844 -1.2 -9.0264 -3.60107e+06 -3.4108e+06 -2.59983e+06 2.17323e+06 -535712 -41494.5
69 3 O -2.12001 12.9296 3.18632 -1.2 -8.92039 -3.19212e+06 -4.16335e+06 99811.4 1.14828e+06 -272089 -1.50367e+06
70 3 O -2.16532 12.9296 5.78248 -1.2 -8.73289 -3.46629e+06 -4.21348e+06 -1.03495e+06 1.05867e+06 -142398 1.12339e+06
71 1 Mg 1.29891 11.8725 2.9896 1.2 -8.18093 4.40484e+06 -794980 -956237 -1.19573e+06 -1.19751e+06 -1.6491e+06
72 1 Mg 4.10033 11.8312 4.4844 1.2 -8.91501 -382272 3.31161e+06 2.27542e+06 1.1319e+06 -409008 180995
73 2 Si 2.27333 13.896 4.4844 2.4 -33.2946 1.17173e+07 1.03581e+07 7.39349e+06 607301 -190593 8870.17
74 3 O 2.28634 15.5093 4.4844 -1.2 -9.26314 -4.14593e+06 -866414 -3.28004e+06 482365 -94092.6 210845
75 3 O -4.34533 12.922 4.4844 -1.2 -9.10679 -3.86953e+06 -3.2427e+06 -2.33674e+06 -1.49749e+06 -432164 -129210
76 3 O 2.98455 13.1899 3.18632 -1.2 -8.93359 -3.07146e+06 -4.30614e+06 -25342.2 -947454 -102712 1.34375e+06
77 1 Mg 1.34779 11.8725 0 1.2 -5.55256 2.86031e+06 -2.14667e+06 -7.36678e+06 3.56888e+06 808483 1.63748e+06
78 3 O 2.93934 13.1899 5.78248 -1.2 -8.69031 -3.20494e+06 -4.52337e+06 -1.22742e+06 -853018 -22970.2 -1.36728e+06
79 1 Mg -1.50344 11.9138 1.4948 1.2 -8.4437 696450 2.43025e+06 3.65871e+06 1.55372e+06 -914095 413438
80 2 Si 0.326006 9.84894 1.4948 2.4 -34.5413 8.09263e+06 1.30036e+07 1.01417e+07 -615313 167697 2.49771e+06
81 3 O 0.317364 8.23571 1.4948 -1.2 -4.5652 -770531 -1.33869e+06 -3.48078e+07 -125334 1.15015e+06 4.01684e+06
82 3 O 6.94307 10.823 1.4948 -1.2 -9.4882 -4.59597e+06 -2.3795e+06 -523366 -987918 -1.52332e+06 1.00251e+06
83 3 O -0.343122 10.5551 0.196716 -1.2 -3.65415 169593 -1.15495e+07 -3.14323e+07 2.47431e+06 -2.05791e+06 4.39406e+06
84 3 O -0.385966 10.5551 2.79288 -1.2 -8.70991 -2.20587e+06 -4.55196e+06 -1.39913e+06 -853067 35581.9 1.03096e+06
85 1 Mg 6.49448 14.247 0 1.2 -5.50514 3.26309e+06 -1.25394e+06 -7.55193e+06 -2.97167e+06 265880 -1.72322e+06
86 1 Mg 3.74457 18.9547 1.4948 1.2 -8.53228 78969.2 2.62379e+06 3.92405e+06 -1.11263e+06 -1.0237e+06 -664382
87 2 Si 5.55495 16.2705 1.4948 2.4 -34.3713 8.03637e+06 1.28966e+07 1.00789e+07 544108 746823 -2.90211e+06
88 3 O 5.6115 17.8838 1.4948 -1.2 -5.05441 -1.62542e+06 -1.50079e+06 -3.14679e+07 67892.5 -6.04119e+06 -3.77088e+06
89 3 O 1.93416 15.2965 1.4948 -1.2 -9.54004 -4.40134e+06 -2.30824e+06 -496656 1.53701e+06 -1.34636e+06 -797302
90 3 O 4.85636 15.5644 0.196716 -1.2 -3.61847 578033 -1.39427e+07 -2.97071e+07 -3.04553e+06 -5.07057e+06 -3.44136e+06
91 1 Mg 6.44662 14.247 2.9896 1.2 -8.09107 4.47216e+06 -925352 -1.0169e+06 1.30195e+06 -1.19189e+06 1.86772e+06
92 3 O 4.81537 15.5644 2.79288 -1.2 -8.75039 -2.0425e+06 -4.50809e+06 -1.42932e+06 1.06062e+06 36717.8 -1.03506e+06
93 1 Mg -0.948271 14.2883 4.4844 1.2 -8.88571 -605569 3.16238e+06 2.50268e+06 -542492 -173063 -76831.8
94 2 Si -2.75928 16.9724 4.4844 2.4 -33.1041 1.19705e+07 1.0332e+07 6.88913e+06 377.32 74850.3 -669028
95 3 O -2.81617 15.3592 4.4844 -1.2 -9.31333 -4.30235e+06 -789976 -3.01093e+06 259148 -233184 188884
96 3 O 0.862762 17.9465 4.4844 -1.2 -9.08304 -3.4898e+06 -3.48882e+06 -2.5564e+06 2.23121e+06 -478068 448172
97 3 O -2.0185 17.6786 3.18632 -1.2 -8.95754 -3.06017e+06 -4.21874e+06 60399 1.16884e+06 -222940 -1.18568e+06
98 3 O -2.06164 17.6786 5.78248 -1.2 -8.85387 -3.2454e+06 -4.53608e+06 -589295 1.14126e+06 -302833 1.80846e+06
99 1 Mg 1.39817 16.6215 2.9896 1.2 -8.10914 4.39672e+06 -827720 -1.03258e+06 -1.1807e+06 -1.24057e+06 -1.9767e+06
100 1 Mg 4.20062 16.5802 4.4844 1.2 -8.82719 -432470 3.17633e+06 2.32169e+06 1.1626e+06 -415830 -268719
101 2 Si 2.37796 18.645 4.4844 2.4 -33.1542 1.16941e+07 1.05663e+07 6.97821e+06 677926 -309178 -882482
102 3 O 2.39434 20.2583 4.4844 -1.2 -9.31187 -4.23581e+06 -1.03771e+06 -2.96123e+06 480134 -36848.6 343651
103 3 O -4.24274 17.671 4.4844 -1.2 -9.18821 -3.79072e+06 -3.33224e+06 -2.20462e+06 -1.47725e+06 -450828 302254
104 3 O 3.08659 17.9389 3.18632 -1.2 -8.98071 -3.03261e+06 -4.31666e+06 -20857.7 -948595 6879.86 1.68127e+06
105 1 Mg 1.44478 16.6215 0 1.2 -5.63372 4.53718e+06 904813 -7.52193e+06 1.39566e+06 -81434.5 523521
106 3 O 3.0436 17.9389 5.78248 -1.2 -8.78838 -3.14164e+06 -4.51089e+06 -1.15944e+06 -928303 31195 -575915
107 1 Mg -1.40524 16.6628 1.4948 1.2 -8.47671 428121 2.60327e+06 3.75929e+06 1.68464e+06 -904482 41543.5
108 2 Si 0.420358 14.5979 1.4948 2.4 -34.3929 7.95622e+06 1.31054e+07 9.92257e+06 -151162 615928 2.1286e+06
109 3 O 0.408732 12.9847 1.4948 -1.2 -4.69532 -681853 -1.59453e+06 -3.42577e+07 234592 -2.58651e+06 4.30847e+06
110 3 O 7.03923 15.572 1.4948 -1.2 -9.58224 -4.53175e+06 -2.14899e+06 -426484 -947811 -1.3367e+06 1.28378e+06
111 3 O -0.248332 15.3041 0.196716 -1.2 -3.73135 183884 -1.34767e+07 -2.96513e+07 3.26802e+06 -5.46947e+06 4.24918e+06
112 3 O -0.289436 15.3041 2.79288 -1.2 -8.7718 -2.00443e+06 -4.61835e+06 -1.47945e+06 -846795 -17113.1 1.29114e+06
113 1 Mg 6.59566 18.996 0 1.2 -5.64115 4.65418e+06 1.24215e+06 -7.17799e+06 -909264 -644720 -1.35721e+06
114 1 Mg 3.85574 23.7037 1.4948 1.2 -8.62117 -180644 2.56376e+06 4.2463e+06 -1.18312e+06 -922076 -660134
115 2 Si 5.66125 21.0195 1.4948 2.4 -34.3005 8.48868e+06 1.21782e+07 1.02933e+07 192369 1.24723e+06 -3.10124e+06
116 3 O 5.72074 22.6328 1.4948 -1.2 -5.64768 -3.31069e+06 -1.17511e+06 -2.68165e+07 -217108 -8.52768e+06 -3.2723e+06
117 3 O 2.03867 20.0455 1.4948 -1.2 -9.57289 -4.42979e+06 -1.93247e+06 -589352 1.57416e+06 -1.10839e+06 -563722
118 3 O 4.96004 20.3134 0.196716 -1.2 -3.93083 -173550 -1.51778e+07 -2.60336e+07 -3.17756e+06 -7.91484e+06 -2.29269e+06
119 1 Mg 6.55057 18.996 2.9896 1.2 -8.04901 4.48368e+06 -903495 -1.11712e+06 1.32042e+06 -1.16485e+06 1.67052e+06
120 3 O 4.92172 20.3134 2.79288 -1.2 -8.75337 -2.03014e+06 -4.50151e+06 -1.48178e+06 1.05642e+06 -88266.2 -933084
121 1 Mg -0.84282 19.0373 4.4844 1.2 -8.85381 -791998 3.38298e+06 2.40929e+06 -605186 -195813 -327892
122 2 Si -2.64823 21.7214 4.4844 2.4 -33.2378 1.17866e+07 1.01656e+07 7.46363e+06 -75071.3 27145.4 -355605
123 3 O -2.70847 20.1082 4.4844 -1.2 -9.31102 -4.15705e+06 -963088 -2.97788e+06 331363 -233915 172837
124 3 O 0.97581 22.6955 4.4844 -1.2 -9.06338 -3.70351e+06 -3.27404e+06 -2.59702e+06 2.17668e+06 -364562 312125
125 3 O -1.9076 22.4276 3.18632 -1.2 -8.91587 -3.01672e+06 -4.02358e+06 -278882 1.18942e+06 -77628.1 -1.1816e+06
126 3 O -1.9475 22.4276 5.78248 -1.2 -8.65449 -3.16469e+06 -4.32725e+06 -1.28776e+06 1.2223e+06 -73966.5 1.50693e+06
127 1 Mg 1.50678 21.3705 2.9896 1.2 -8.09227 4.54503e+06 -936183 -1.09953e+06 -1.15726e+06 -1.31143e+06 -1.97607e+06
128 1 Mg 4.31086 21.3292 4.4844 1.2 -8.8213 -371470 3.23507e+06 2.19292e+06 1.22539e+06 -220651 -119631
129 2 Si 2.49243 23.394 4.4844 2.4 -33.2054 1.20663e+07 9.91488e+06 7.33884e+06 849064 -135574 -472561
130 3 O 2.51204 25.0073 4.4844 -1.2 -9.2935 -4.30883e+06 -599956 -3.35211e+06 491668 -155287 360792
131 3 O -4.13026 22.42 4.4844 -1.2 -9.12328 -3.78214e+06 -3.14618e+06 -2.49639e+06 -1.36726e+06 -549381 127914
132 3 O 3.19799 22.6879 3.18632 -1.2 -8.96142 -3.08893e+06 -4.12959e+06 -241001 -947446 30745.8 1.60998e+06
133 1 Mg 1.5501 21.3705 0 1.2 -5.71625 5.42585e+06 2.19735e+06 -6.79249e+06 -71250.3 -1.00314e+06 -59010.6
134 3 O 3.1583 22.6879 5.78248 -1.2 -8.75541 -3.43024e+06 -4.38395e+06 -1.0208e+06 -1.02065e+06 -190056 -1.25161e+06
135 1 Mg -1.29822 21.4118 1.4948 1.2 -8.56645 182770 2.59254e+06 4.05475e+06 1.80068e+06 -920024 -115817
136 2 Si 0.523568 19.3469 1.4948 2.4 -34.3256 8.26633e+06 1.25985e+07 1.00398e+07 288613 993173 1.76465e+06
137 3 O 0.508934 17.7337 1.4948 -1.2 -5.04347 -1.66625e+06 -1.49877e+06 -3.15814e+07 678285 -6.09537e+06 4.45057e+06
138 3 O 7.14425 20.321 1.4948 -1.2 -9.61004 -4.52859e+06 -1.77506e+06 -568091 -939916 -1.11102e+06 1.38972e+06
139 3 O -0.145107 20.0531 0.196716 -1.2 -4.04318 -596571 -1.48443e+07 -2.59683e+07 3.67406e+06 -8.22767e+06 3.55345e+06
140 3 O -0.183601 20.0531 2.79288 -1.2 -8.77502 -1.96268e+06 -4.63062e+06 -1.55333e+06 -816579 -14122.1 1.3944e+06
141 1 Mg 6.70502 23.745 0 1.2 -5.73291 5.18564e+06 2.32086e+06 -6.25734e+06 415677 -1.47519e+06 -1.11797e+06
142 1 Mg 3.97493 28.4527 1.4948 1.2 -8.72281 -477462 2.33527e+06 4.70186e+06 -1.22335e+06 -759378 -673570
143 2 Si 5.77602 25.7685 1.4948 2.4 -34.177 9.10683e+06 1.10713e+07 1.06718e+07 -112381 1.56356e+06 -3.35032e+06
144 3 O 5.83821 27.3818 1.4948 -1.2 -6.4355 -5.05301e+06 -699119 -2.10522e+07 -344846 -9.30412e+06 -2.52596e+06
145 3 O 2.15175 24.7945 1.4948 -1.2 -9.5864 -4.41651e+06 -1.47841e+06 -900681 1.6109e+06 -911625 -422072
146 3 O 5.07184 25.0624 0.196716 -1.2 -4.56473 -1.44409e+06 -1.56145e+07 -2.06896e+07 -2.78708e+06 -9.42501e+06 -859408
147 1 Mg 6.66374 23.745 2.9896 1.2 -8.06331 4.54648e+06 -1.18739e+06 -870163 1.29456e+06 -1.20853e+06 1.59681e+06
148 3 O 5.03707 25.0624 2.79288 -1.2 -8.73314 -2.02816e+06 -4.22738e+06 -1.82811e+06 1.09043e+06 -178017 -809650
149 1 Mg -0.727559 23.7863 4.4844 1.2 -8.89985 -713536 3.027e+06 2.75348e+06 -515609 -325246 -370455
150 2 Si -2.5277 26.4704 4.4844 2.4 -33.1871 1.16726e+07 9.84275e+06 7.82323e+06 -1733.95 -244878 -653956
151 3 O -2.59107 24.8572 4.4844 -1.2 -9.27327 -4.14145e+06 -653842 -3.34724e+06 399327 -99856.1 361705
152 3 O 1.09817 27.4445 4.4844 -1.2 -9.12775 -3.71629e+06 -3.061e+06 -2.69259e+06 2.27641e+06 -397302 321566
153 3 O -1.78784 27.1766 3.18632 -1.2 -8.91361 -2.97281e+06 -3.79267e+06 -613215 1.17148e+06 57889.8 -1.11828e+06
154 3 O -1.82343 27.1766 5.78248 -1.2 -8.8077 -3.0314e+06 -4.34743e+06 -1.07873e+06 1.15941e+06 132018 1.56714e+06
155 1 Mg 1.62435 26.1195 2.9896 1.2 -8.07185 4.66021e+06 -1.23818e+06 -942343 -1.14878e+06 -1.31378e+06 -2.0525e+06
156 1 Mg 4.43064 26.0782 4.4844 1.2 -8.83926 -481889 2.91802e+06 2.65112e+06 1.22865e+06 -172959 -301581
157 2 Si 2.61607 28.143 4.4844 2.4 -33.0988 1.19941e+07 9.46904e+06 7.68875e+06 748203 -40716.8 -461490
158 3 O 2.63853 29.7563 4.4844 -1.2 -9.31971 -4.37745e+06 -151215 -3.68377e+06 553663 -145685 99562
159 3 O -4.00841 27.169 4.4844 -1.2 -9.1485 -3.66628e+06 -2.9931e+06 -2.72222e+06 -1.37763e+06 -439466 214523
160 3 O 3.3182 27.4369 3.18632 -1.2 -8.9583 -3.03639e+06 -3.85906e+06 -642749 -911695 63973.3 1.68025e+06
161 1 Mg 1.66335 26.1195 0 1.2 -5.79608 5.26107e+06 2.55974e+06 -5.64268e+06 -902480 -1.58938e+06 -438420
162 3 O 3.28288 27.4369 5.78248 -1.2 -8.86528 -3.1664e+06 -4.27125e+06 -1.12629e+06 -961150 -240659 -902972
163 1 Mg -1.18278 26.1608 1.4948 1.2 -8.65393 -116180 2.50616e+06 4.38803e+06 1.88239e+06 -846262 -353971
164 2 Si 0.635424 24.0959 1.4948 2.4 -34.228 8.83777e+06 1.16188e+07 1.03591e+07 748977 1.33055e+06 1.59067e+06
165 3 O 0.617906 22.4827 1.4948 -1.2 -5.64032 -3.37489e+06 -1.1685e+06 -2.69061e+07 1.01226e+06 -8.51826e+06 4.07607e+06
166 3 O 7.25781 25.07 1.4948 -1.2 -9.6219 -4.49552e+06 -1.33805e+06 -898899 -931066 -847541 1.53147e+06
167 3 O -0.0337363 24.8021 0.196716 -1.2 -4.66117 -1.81775e+06 -1.5586e+07 -2.06027e+07 3.50498e+06 -9.63937e+06 2.43448e+06
168 3 O -0.0687235 24.8021 2.79288 -1.2 -8.77012 -2.03069e+06 -4.37928e+06 -1.79577e+06 -832976 -41074.1 1.4666e+06
169 1 Mg 6.82195 28.494 0 1.2 -5.8922 4.79108e+06 2.28787e+06 -4.69508e+06 1.16471e+06 -1.83476e+06 -1.20505e+06
170 1 Mg 4.10106 33.2017 1.4948 1.2 -8.83792 -760228 1.97433e+06 5.18949e+06 -1.21291e+06 -501339 -619285
171 2 Si 5.89839 30.5175 1.4948 2.4 -34.0825 9.98246e+06 9.23663e+06 1.15626e+07 -326731 1.71839e+06 -3.16306e+06
172 3 O 5.96289 32.1308 1.4948 -1.2 -7.24048 -6.28261e+06 27025.2 -1.56032e+07 -284820 -8.47394e+06 -1.91757e+06
173 3 O 2.27266 29.5435 1.4948 -1.2 -9.55641 -4.41554e+06 -844995 -1.53451e+06 1.66338e+06 -716288 -369003
174 3 O 5.19102 29.8114 0.196716 -1.2 -5.35385 -2.91291e+06 -1.45714e+07 -1.51975e+07 -1.9317e+06 -9.28702e+06 520863
175 1 Mg 6.78546 28.494 2.9896 1.2 -8.05329 4.58763e+06 -1.54071e+06 -568515 1.32434e+06 -1.29281e+06 1.61281e+06
176 3 O 5.16061 29.8114 2.79288 -1.2 -8.71625 -2.09145e+06 -3.72764e+06 -2.32784e+06 1.09964e+06 -274332 -867137
177 1 Mg -0.603205 28.5353 4.4844 1.2 -8.85841 -773825 2.78335e+06 2.98579e+06 -506917 -320225 -104607
178 2 Si -2.39877 31.2194 4.4844 2.4 -33.317 1.1721e+07 8.16588e+06 9.67461e+06 66221.5 -230624 -149972
179 3 O -2.46483 29.6062 4.4844 -1.2 -9.26839 -4.09224e+06 -216891 -3.82096e+06 375924 -46142.2 10029.7
180 3 O 1.22864 32.1935 4.4844 -1.2 -9.09151 -3.86687e+06 -2.15246e+06 -3.50427e+06 2.24221e+06 -277913 225120
181 3 O -1.66032 31.9256 3.18632 -1.2 -8.85768 -2.95946e+06 -3.06517e+06 -1.51631e+06 1.15568e+06 147312 -1.13348e+06
182 3 O -1.69072 31.9256 5.78248 -1.2 -8.61189 -3.08058e+06 -3.08279e+06 -2.70864e+06 1.16723e+06 143886 1.34921e+06
183 1 Mg 1.7499 30.8685 2.9896 1.2 -8.08354 4.79866e+06 -1.86852e+06 -425017 -1.13855e+06 -1.40614e+06 -1.91488e+06
184 1 Mg 4.55894 30.8272 4.4844 1.2 -8.86988 -452746 2.23922e+06 3.35394e+06 1.22929e+06 -29124.3 -29372.8
185 2 Si 2.7476 32.892 4.4844 2.4 -33.1504 1.21352e+07 7.67928e+06 9.42318e+06 766791 7252.02 -491835
186 3 O 2.77235 34.5053 4.4844 -1.2 -9.35216 -4.24606e+06 494406 -4.41524e+06 576483 -146152 383218
187 3 O -3.87837 31.918 4.4844 -1.2 -9.09693 -3.74553e+06 -2.08784e+06 -3.62022e+06 -1.32723e+06 -439838 116221
188 3 O 3.44611 32.1859 3.18632 -1.2 -8.91722 -3.05277e+06 -3.17162e+06 -1.46945e+06 -874331 108610 1.6298e+06
189 1 Mg 1.7837 30.8685 0 1.2 -5.99076 4.39919e+06 2.0661e+06 -4.0358e+06 -1.35415e+06 -1.52038e+06 -326120
190 3 O 3.41602 32.1859 5.78248 -1.2 -8.78508 -3.35517e+06 -3.14386e+06 -2.20151e+06 -873982 -375310 -1.28102e+06
191 1 Mg -1.05984 30.9098 1.4948 1.2 -8.77916 -403126 2.08326e+06 4.99675e+06 1.9114e+06 -662985 -400528
192 2 Si 0.755243 28.8449 1.4948 2.4 -34.1185 9.61067e+06 1.0074e+07 1.10406e+07 1.1224e+06 1.56267e+06 1.37284e+06
193 3 O 0.735127 27.2317 1.4948 -1.2 -6.4351 -5.14506e+06 -704609 -2.10931e+07 1.18125e+06 -9.30565e+06 3.60822e+06
194 3 O 7.37914 29.819 1.4948 -1.2 -9.58513 -4.48128e+06 -686160 -1.59023e+06 -938467 -611548 1.53947e+06
195 3 O 0.0850649 29.5511 0.196716 -1.2 -5.42242 -3.15389e+06 -1.49503e+07 -1.51148e+07 2.6987e+06 -9.43395e+06 1.18208e+06
196 3 O 0.0543974 29.5511 2.79288 -1.2 -8.76152 -2.10772e+06 -3.89899e+06 -2.26026e+06 -823632 -69518.8 1.33014e+06
197 1 Mg 6.94543 33.243 0 1.2 -6.11145 3.86613e+06 1.87905e+06 -3.33652e+06 1.57898e+06 -1.45307e+06 -1.32214e+06
198 1 Mg 4.23267 37.9507 1.4948 1.2 -8.87996 -1.0872e+06 1.98738e+06 5.1563e+06 -1.13269e+06 -197984 -482340
199 2 Si 6.02709 35.2665 1.4948 2.4 -33.9203 1.07962e+07 7.83362e+06 1.19419e+07 -428776 1.63291e+06 -3.06396e+06
200 3 O 6.09339 36.8798 1.4948 -1.2 -8.006 -6.56474e+06 321840 -1.08835e+07 -133602 -6.62216e+06 -1.40697e+06
201 3 O 2.40018 34.2925 1.4948 -1.2 -9.50241 -4.37048e+06 -362853 -2.20051e+06 1.69339e+06 -531529 -327390
202 3 O 5.31645 34.5604 0.196716 -1.2 -6.20495 -4.05961e+06 -1.26096e+07 -1.02122e+07 -942670 -7.86325e+06 1.60466e+06
203 1 Mg 6.91449 33.243 2.9896 1.2 -8.06025 4.66688e+06 -2.21289e+06 43825.4 1.30158e+06 -1.37345e+06 1.46521e+06
204 3 O 5.291 34.5604 2.79288 -1.2 -8.73505 -2.15742e+06 -3.21444e+06 -2.78255e+06 1.14049e+06 -314892 -681849
205 1 Mg -0.471101 33.2843 4.4844 1.2 -8.88567 -753968 1.89359e+06 3.89368e+06 -408262 -326280 -363753
206 2 Si -2.26307 35.9684 4.4844 2.4 -33.0109 1.13783e+07 7.66185e+06 1.00244e+07 111143 -336976 -878960
207 3 O -2.33122 34.3552 4.4844 -1.2 -9.31101 -4.03403e+06 438921 -4.46656e+06 419954 16411.2 455075
208 3 O 1.36549 36.9425 4.4844 -1.2 -9.24477 -3.56694e+06 -2.0602e+06 -3.66622e+06 2.27805e+06 -319359 395674
209 3 O -1.52658 36.6746 3.18632 -1.2 -8.92691 -2.81375e+06 -2.89913e+06 -1.81912e+06 1.13451e+06 181618 -1.00308e+06
210 3 O -1.55122 36.6746 5.78248 -1.2 -8.96095 -2.74367e+06 -3.02607e+06 -2.32921e+06 1.12554e+06 210068 1.65183e+06
211 1 Mg 1.882 35.6175 2.9896 1.2 -8.03805 4.73807e+06 -2.2045e+06 -91260.3 -1.11042e+06 -1.47018e+06 -2.05041e+06
212 1 Mg 4.69415 35.5762 4.4844 1.2 -8.76319 -665475 1.84103e+06 3.79234e+06 1.19561e+06 -58130.1 -387646
213 2 Si 2.88522 37.641 4.4844 2.4 -32.8358 1.13343e+07 7.61354e+06 9.7859e+06 694527 -7641.46 -678313
214 3 O 2.91159 39.2543 4.4844 -1.2 -9.50977 -3.86816e+06 476775 -4.52579e+06 637281 -58613.7 241478
215 3 O -3.74183 36.667 4.4844 -1.2 -9.27447 -3.54811e+06 -1.91164e+06 -3.72873e+06 -1.31059e+06 -296752 371711
216 3 O 3.58014 36.9349 3.18632 -1.2 -8.97709 -2.81802e+06 -3.02084e+06 -1.8674e+06 -840703 178885 1.70072e+06
217 1 Mg 1.90997 35.6175 0 1.2 -6.2006 3.26239e+06 1.71235e+06 -3.18764e+06 -1.65235e+06 -765791 209175
218 3 O 3.55582 36.9349 5.78248 -1.2 -9.02033 -2.72755e+06 -3.06163e+06 -2.46029e+06 -852691 -305572 -872866
219 1 Mg -0.93068 35.6588 1.4948 1.2 -8.85181 -691886 1.94384e+06 5.14927e+06 1.86475e+06 -355339 -498925
220 2 Si 0.881882 33.5939 1.4948 2.4 -34.0139 1.0459e+07 8.33576e+06 1.18339e+07 1.42587e+06 1.58427e+06 1.12195e+06
221 3 O 0.859602 31.9807 1.4948 -1.2 -7.23893 -6.36955e+06 28378.5 -1.5664e+07 1.15494e+06 -8.45074e+06 2.97844e+06
222 3 O 7.507 34.568 1.4948 -1.2 -9.53964 -4.46093e+06 -248938 -2.18789e+06 -932037 -409937 1.62497e+06
223 3 O 0.210186 34.3001 0.196716 -1.2 -6.23845 -4.17219e+06 -1.33336e+07 -1.01715e+07 1.52356e+06 -7.91462e+06 -66781.8
224 3 O 0.184454 34.3001 2.79288 -1.2 -8.77353 -2.18883e+06 -3.36519e+06 -2.74175e+06 -861581 -121823 1.46022e+06
225 1 Mg 7.07415 37.992 0 1.2 -6.30892 2.83963e+06 1.58129e+06 -2.84514e+06 1.86538e+06 -412379 -1.7589e+06
226 1 Mg 4.36817 42.6997 1.4948 1.2 -8.83434 -1.3663e+06 2.21265e+06 4.75515e+06 -998291 139461 47865.6
227 2 Si 6.16058 40.0155 1.4948 2.4 -33.6691 1.13337e+07 7.05413e+06 1.17888e+07 -380940 1.35281e+06 -2.20132e+06
228 3 O 6.22815 41.6288 1.4948 -1.2 -8.64948 -6.05121e+06 336307 -7.47157e+06 37711 -4.53577e+06 -1.49531e+06
229 3 O 2.53282 39.0415 1.4948 -1.2 -9.47755 -4.2227e+06 -336338 -2.57497e+06 1.71994e+06 -349921 -539718
230 3 O 5.44674 39.3094 0.196716 -1.2 -7.01626 -4.60996e+06 -1.00749e+07 -6.45589e+06 -138665 -5.80239e+06 2.18266e+06
231 1 Mg 7.04922 37.992 2.9896 1.2 -7.95549 4.58865e+06 -2.30617e+06 58340.2 1.30583e+06 -1.48328e+06 1.49403e+06
232 3 O 5.42658 39.3094 2.79288 -1.2 -8.84067 -2.14742e+06 -3.13205e+06 -2.73747e+06 1.14352e+06 -309923 -857654
233 1 Mg -0.333062 38.0333 4.4844 1.2 -8.69544 -1.02715e+06 1.87464e+06 3.87462e+06 -386357 -195475 -296497
234 2 Si -2.12255 40.7174 4.4844 2.4 -32.6728 1.09226e+07 7.60869e+06 9.99637e+06 129599 -159223 -365152
235 3 O -2.19212 39.1042 4.4844 -1.2 -9.50508 -3.79021e+06 479935 -4.44724e+06 388289 1919.72 300076
236 3 O 1.50676 41.6915 4.4844 -1.2 -9.37073 -3.27295e+06 -2.08348e+06 -3.73764e+06 2.27807e+06 -250060 144575
237 3 O -1.3884 41.4236 3.18632 -1.2 -9.01474 -2.60169e+06 -2.94275e+06 -1.95095e+06 1.14617e+06 146086 -1.33476e+06
238 3 O -1.40713 41.4236 5.78248 -1.2 -9.1435 -2.42744e+06 -2.96455e+06 -2.40537e+06 1.18803e+06 105925 1.53841e+06
239 1 Mg 2.01892 40.3665 2.9896 1.2 -7.94742 4.54657e+06 -2.19718e+06 -39090.1 -1.09568e+06 -1.58758e+06 -1.74794e+06
240 1 Mg 4.83434 40.3252 4.4844 1.2 -8.58297 -897703 1.85365e+06 3.72354e+06 1.21509e+06 -105106 -195353
241 2 Si 3.02698 42.39 4.4844 2.4 -32.5755 1.07277e+07 7.80031e+06 9.78918e+06 845458 -133996 -88955.5
242 3 O 3.05433 44.0033 4.4844 -1.2 -9.62322 -3.61619e+06 300062 -4.4186e+06 549689 -63959.8 -85203.3
243 3 O -3.60077 41.416 4.4844 -1.2 -9.45515 -3.39667e+06 -1.95372e+06 -3.55091e+06 -1.29347e+06 -247961 79236.8
244 3 O 3.71851 41.6839 3.18632 -1.2 -9.06271 -2.56832e+06 -3.11139e+06 -2.00064e+06 -848212 238990 1.31072e+06
245 1 Mg 2.04077 40.3665 0 1.2 -6.34301 2.33951e+06 1.42924e+06 -3.17465e+06 -1.83292e+06 418876 1.34343e+06
246 3 O 3.70011 41.6839 5.78248 -1.2 -9.21784 -2.3446e+06 -3.12333e+06 -2.34776e+06 -925175 -67444.6 -1.11311e+06
247 1 Mg -0.796865 40.4078 1.4948 1.2 -8.84767 -955817 2.02406e+06 4.9347e+06 1.75612e+06 22421.6 -179010
248 2 Si 1.01387 38.3429 1.4948 2.4 -33.8005 1.10545e+07 7.39929e+06 1.18682e+07 1.54453e+06 1.43002e+06 1.14179e+06
249 3 O 0.989947 36.7297 1.4948 -1.2 -7.99924 -6.63612e+06 323873 -1.09768e+07 1.02964e+06 -6.61885e+06 2.46324e+06
250 3 O 7.63988 39.317 1.4948 -1.2 -9.52441 -4.35389e+06 -238025 -2.50423e+06 -932622 -256009 1.41785e+06
251 3 O 0.340253 39.0491 0.196716 -1.2 -7.02358 -4.66607e+06 -1.09994e+07 -6.41937e+06 377101 -5.83115e+06 -1.14626e+06
252 3 O 0.319795 39.0491 2.79288 -1.2 -8.86986 -2.14654e+06 -3.27793e+06 -2.75737e+06 -866888 -182388 1.23878e+06
253 1 Mg 7.20667 42.741 0 1.2 -6.35583 2.00677e+06 1.51945e+06 -3.33895e+06 1.99008e+06 924062 -2.02361e+06
254 1 Mg 4.50613 47.4487 1.4948 1.2 -8.71738 -1.53732e+06 2.5858e+06 4.16247e+06 -852706 447948 394971
255 2 Si 6.29731 44.7645 1.4948 2.4 -33.3394 1.14355e+07 6.97383e+06 1.12158e+07 -248533 924820 -984326
256 3 O 6.36567 46.3778 1.4948 -1.2 -9.15034 -5.09904e+06 68817.6 -5.25239e+06 185186 -2.69659e+06 -1.65101e+06
257 3 O 2.669 43.7905 1.4948 -1.2 -9.49418 -3.97576e+06 -696930 -2.7047e+06 1.71405e+06 -213514 -1.05526e+06
258 3 O 5.58048 44.0584 0.196716 -1.2 -7.794 -4.43827e+06 -7.68543e+06 -3.80727e+06 323418 -3.75527e+06 2.1729e+06
259 1 Mg 7.1879 42.741 2.9896 1.2 -7.85206 4.4516e+06 -2.17899e+06 -84180.8 1.26679e+06 -1.58104e+06 1.92565e+06
260 3 O 5.56564 44.0584 2.79288 -1.2 -8.94945 -2.11648e+06 -3.2585e+06 -2.49151e+06 1.14378e+06 -292708 -1.32892e+06
261 1 Mg -0.19105 42.7823 4.4844 1.2 -8.5638 -1.23864e+06 1.94444e+06 3.80292e+06 -424736 -98054.2 -37263.6
262 2 Si -1.97909 45.4664 4.4844 2.4 -32.5048 1.07055e+07 7.93429e+06 9.6239e+06 46328 -326203 262385
263 3 O -2.04947 43.8532 4.4844 -1.2 -9.62874 -3.61051e+06 351810 -4.29395e+06 492255 45887.7 -54680.7
264 3 O 1.65063 46.4405 4.4844 -1.2 -9.4488 -3.21486e+06 -2.32182e+06 -3.42945e+06 2.26721e+06 -262426 -192887
265 3 O -1.24745 46.1726 3.18632 -1.2 -9.07991 -2.4629e+06 -3.18358e+06 -1.84666e+06 1.14372e+06 147166 -1.6685e+06
266 3 O -1.26044 46.1726 5.78248 -1.2 -9.23682 -2.43286e+06 -3.0921e+06 -2.08775e+06 1.17735e+06 210492 1.41698e+06
267 1 Mg 2.15896 45.1155 2.9896 1.2 -7.86128 4.3798e+06 -1.94431e+06 -247503 -1.05214e+06 -1.65189e+06 -1.33571e+06
268 1 Mg 4.97763 45.0742 4.4844 1.2 -8.51002 -1.10255e+06 2.0129e+06 3.65294e+06 1.24188e+06 -47875 208636
269 2 Si 3.1711 47.139 4.4844 2.4 -32.5318 1.04756e+07 8.23645e+06 9.54226e+06 773343 90331.6 538740