ITEM: TIMESTEP
200
ITEM: NUMBER OF ATOMS
10500
ITEM: BOX BOUNDS xy xz yz pp pp pp
0.0000000000000000e+00 1.5297450000000000e+01 5.0990000000000002e+00
0.0000000000000000e+00 1.1872499999999999e+02 0.0000000000000000e+00
0.0000000000000000e+00 8.9688000000000002e+01 0.0000000000000000e+00
ITEM: ATOMS id type element xu yu zu q c_pe c_s[1] c_s[2] c_s[3] c_s[4] c_s[5] c_s[6]
1 1 Mg 6.2404 -6.37941e-06 0 1.2 -4.70811 8.33465e+06 -1.92898e+06 -6.12337e+06 -14651.6 2.63051e+06 -258322
2 1 Mg 3.46349 4.70768 1.4948 1.2 -8.81128 197965 2.49395e+06 4.5214e+06 -931157 -649606 -56030
3 2 Si 5.2885 2.02354 1.4948 2.4 -35.8664 1.10071e+07 1.06483e+07 1.16014e+07 8.85859e+06 671667 -3.32884e+06
4 3 O 5.33628 3.63678 1.4948 -1.2 -4.40221 -1.34202e+06 -1.26106e+06 -3.38415e+07 -334396 3.82945e+06 -3.72594e+06
5 3 O 1.67294 1.04952 1.4948 -1.2 -0.7463 -2.07932e+07 -7.92759e+07 -2.26057e+06 -2.41325e+07 -104789 -5253.2
6 3 O 4.59532 1.31737 0.196716 -1.2 -2.73507 -2.4204e+06 -6.56673e+06 -3.061e+07 -6.03224e+06 6.25525e+06 -2.53224e+06
7 1 Mg 6.18956 -6.37941e-06 2.9896 1.2 -5.24284 2.09001e+06 -2.8406e+07 -2.8285e+06 -8.85317e+06 2.48642e+06 4.00518e+06
8 3 O 4.55118 1.31737 2.79288 -1.2 -7.18788 -396462 -4.51471e+06 -3.31102e+06 -2.95229e+06 -3.37718e+06 -1.04322e+06
9 1 Mg -1.20682 0.0413099 4.4844 1.2 8.54683 -3.0237e+07 -9.36387e+07 58253.5 -2.84855e+07 -1.18731e+06 104192
10 2 Si -3.0337 2.72544 4.4844 2.4 -33.7876 1.55805e+07 6.59529e+06 8.33295e+06 1.56734e+06 263215 -813132
11 3 O -3.08099 1.11221 4.4844 -1.2 -9.26391 -6.77786e+06 277765 -2.35479e+06 -1.19761e+06 -306447 375219
12 3 O 0.582463 3.69946 4.4844 -1.2 -8.61536 -3.73901e+06 -5.28046e+06 -3.1307e+06 -562157 -176152 -4756.65
13 3 O -2.29524 3.43162 3.18632 -1.2 -8.73488 -4.75578e+06 -2.31234e+06 -770483 1.10244e+06 -877841 -832507
14 3 O -2.34216 3.43162 5.78248 -1.2 -8.51621 -4.4724e+06 -3.05928e+06 -1.71459e+06 813156 397825 1.29771e+06
15 1 Mg 1.12778 2.37449 2.9896 1.2 -7.936 5.66611e+06 -1.84614e+06 -425229 -3.26937e+06 -4.20023e+06 -2.34943e+06
16 1 Mg 3.92855 2.33318 4.4844 1.2 -8.81632 -3.59042e+06 4.70163e+06 5.04217e+06 1.38023e+06 193699 435787
17 2 Si 2.09341 4.39804 4.4844 2.4 -33.0777 1.29414e+07 6.43519e+06 9.55232e+06 227800 -295291 347903
18 3 O 2.09991 6.01128 4.4844 -1.2 -9.17214 -4.43666e+06 145812 -4.1565e+06 545839 -144638 -83552.9
19 3 O -4.52137 3.42402 4.4844 -1.2 -8.85415 -3.54886e+06 -2.67089e+06 -3.67991e+06 -2.41279e+06 -831719 116913
20 3 O 2.80834 3.69187 3.18632 -1.2 -8.99705 -2.61859e+06 -2.60938e+06 -673072 447838 -448397 -385391
21 1 Mg 1.17857 2.37449 0 1.2 -5.43695 -114382 -1.49723e+07 -6.28588e+06 6.51399e+06 1.20221e+06 4.3976e+06
22 3 O 2.76143 3.69187 5.78248 -1.2 -8.93864 -3.23381e+06 -2.28645e+06 -1.63303e+06 484434 106234 61972.8
23 1 Mg -1.67381 2.41581 1.4948 1.2 -7.89405 2.05897e+06 -395929 4.25082e+06 1.35174e+06 -558466 863770
24 2 Si 0.16286 0.350945 1.4948 2.4 -25.1485 -7.28828e+06 1.21595e+07 1.17192e+07 1.58765e+06 2.83488e+06 1.07568e+06
25 3 O 0.15972 -1.26229 1.4948 -1.2 -4.48724 -1.11001e+07 -7.89539e+06 -2.90877e+07 -5.59795e+06 -8.52951e+06 -2.67068e+06
26 3 O 6.77654 1.32496 1.4948 -1.2 -10.0535 -6.23333e+06 1.9271e+06 -1.53056e+06 -640033 -665624 1.18306e+06
27 3 O -0.508028 1.05712 0.196716 -1.2 -9.23803 -361809 -4.56351e+06 -805046 -547505 186770 -4.41435e+06
28 3 O -0.552171 1.05712 2.79288 -1.2 -6.47702 -5.81039e+06 -4.41086e+06 -2.4879e+07 1.41387e+06 -6.80664e+06 -5.43827e+06
29 1 Mg 6.31713 4.74899 0 1.2 -5.28784 922553 -1.31028e+07 -5.90003e+06 -7.30803e+06 1.42273e+06 -3.80181e+06
30 1 Mg 3.54847 9.45668 1.4948 1.2 -8.63726 747503 1.51439e+06 4.65123e+06 -960284 -962550 -252995
31 2 Si 5.36879 6.77254 1.4948 2.4 -34.9644 8.39356e+06 1.15848e+07 1.1989e+07 1.65744e+06 119398 -2.07805e+06
32 3 O 5.41937 8.38578 1.4948 -1.2 -4.43941 -854248 -708320 -3.5427e+07 774765 1.12537e+06 -4.24252e+06
33 3 O 1.75158 5.79852 1.4948 -1.2 -9.16298 -4.52382e+06 -2.14514e+06 -1.66221e+06 1.96568e+06 -1.5842e+06 -1.24541e+06
34 3 O 4.67421 6.06637 0.196716 -1.2 -3.41492 -427300 -9.89182e+06 -3.16887e+07 -2.01128e+06 1.3243e+06 -4.30301e+06
35 1 Mg 6.26654 4.74899 2.9896 1.2 -8.34996 4.68575e+06 -1.89078e+06 153065 1.80017e+06 -837125 1.84336e+06
36 3 O 4.63043 6.06637 2.79288 -1.2 -8.5283 -2.15202e+06 -3.74524e+06 -2.3939e+06 936384 -82720.9 -1.40251e+06
37 1 Mg -1.12976 4.79031 4.4844 1.2 -9.12925 -105822 2.56999e+06 3.03202e+06 -726501 -380714 -152133
38 2 Si -2.9517 7.47444 4.4844 2.4 -33.4335 1.23877e+07 8.34941e+06 8.98817e+06 65530 92896.3 -64921.6
39 3 O -3.00198 5.86121 4.4844 -1.2 -9.12854 -4.56634e+06 98774.2 -3.91643e+06 61498.9 -285713 46879.1
40 3 O 0.666315 8.44846 4.4844 -1.2 -8.97269 -3.74158e+06 -2.41814e+06 -3.53464e+06 2.08158e+06 -492442 -92817.3
41 3 O -2.21213 8.18062 3.18632 -1.2 -8.79715 -3.44974e+06 -3.14161e+06 -854464 1.09479e+06 -348087 -1.44703e+06
42 3 O -2.25864 8.18062 5.78248 -1.2 -8.71482 -3.44788e+06 -3.38023e+06 -1.9206e+06 957318 -197876 1.32501e+06
43 1 Mg 1.20893 7.12349 2.9896 1.2 -8.31576 4.5917e+06 -1.819e+06 100106 -1.27901e+06 -1.33756e+06 -1.67586e+06
44 1 Mg 4.00982 7.08218 4.4844 1.2 -8.97472 -343035 2.34406e+06 3.2988e+06 991033 -320073 126394
45 2 Si 2.17861 9.14704 4.4844 2.4 -33.4239 1.18545e+07 8.54837e+06 9.27487e+06 598449 -178801 401280
46 3 O 2.18828 10.7603 4.4844 -1.2 -9.1905 -4.169e+06 10916.1 -4.25144e+06 407226 -162980 -152142
47 3 O -4.43805 8.17302 4.4844 -1.2 -9.03052 -3.91672e+06 -2.37123e+06 -3.27928e+06 -1.48927e+06 -484414 -59555.1
48 3 O 2.89193 8.44087 3.18632 -1.2 -8.80403 -3.23438e+06 -3.36776e+06 -984875 -914004 -182182 1.20318e+06
49 1 Mg 1.25915 7.12349 0 1.2 -5.67337 1.5614e+06 -7.84233e+06 -6.07751e+06 5.90221e+06 1.37614e+06 2.53073e+06
50 3 O 2.84547 8.44087 5.78248 -1.2 -8.70368 -3.20084e+06 -3.70062e+06 -1.98331e+06 -782089 26719.5 -1.4305e+06
51 1 Mg -1.59284 7.16481 1.4948 1.2 -8.58138 1.35578e+06 1.11282e+06 4.55359e+06 1.45942e+06 -887274 282628
52 2 Si 0.240329 5.09994 1.4948 2.4 -34.7344 9.3469e+06 1.04961e+07 1.17565e+07 -1.96248e+06 -1.03812e+06 1.68543e+06
53 3 O 0.234538 3.48671 1.4948 -1.2 -4.89862 -2.28384e+06 598823 -3.40002e+07 400709 5.17316e+06 4.11757e+06
54 3 O 6.85564 6.07396 1.4948 -1.2 -9.24602 -4.96204e+06 -1.57758e+06 -1.62074e+06 -1.34022e+06 -1.843e+06 1.26509e+06
55 3 O -0.429565 5.80612 0.196716 -1.2 -3.66747 -1.24371e+06 -8.53246e+06 -3.17834e+07 1.85377e+06 1.17169e+06 4.70215e+06
56 3 O -0.473377 5.80612 2.79288 -1.2 -8.61047 -2.65127e+06 -3.32884e+06 -2.28028e+06 -780742 290501 1.38373e+06
57 1 Mg 6.40169 9.49799 0 1.2 -5.61435 2.08619e+06 -6.67948e+06 -6.34681e+06 -5.49559e+06 995703 -2.39752e+06
58 1 Mg 3.64209 14.2057 1.4948 1.2 -8.60022 480904 1.75252e+06 4.57942e+06 -1.02967e+06 -988323 -136313
59 2 Si 5.45748 11.5215 1.4948 2.4 -34.7862 8.42121e+06 1.1373e+07 1.18636e+07 885668 276691 -1.90144e+06
60 3 O 5.51101 13.1348 1.4948 -1.2 -4.57306 -877931 -775202 -3.49427e+07 466745 -2.5095e+06 -4.4972e+06
61 3 O 1.83851 10.5475 1.4948 -1.2 -9.2895 -4.65146e+06 -1.67163e+06 -1.5342e+06 1.53219e+06 -1.57675e+06 -1.18453e+06
62 3 O 4.7611 10.8154 0.196716 -1.2 -3.31937 95177.8 -1.12732e+07 -3.2206e+07 -2.46328e+06 -1.72703e+06 -4.40529e+06
63 1 Mg 6.35203 9.49799 2.9896 1.2 -8.24183 4.61123e+06 -1.83131e+06 -7463.65 1.29492e+06 -1.1938e+06 2.04847e+06
64 3 O 4.71833 10.8154 2.79288 -1.2 -8.6194 -2.251e+06 -3.58512e+06 -2.3209e+06 1.05823e+06 100353 -1.42359e+06
65 1 Mg -1.0438 9.53931 4.4844 1.2 -8.93321 -438133 2.25309e+06 3.32884e+06 -526925 -169513 14582.1
66 2 Si -2.8604 12.2234 4.4844 2.4 -33.174 1.21919e+07 8.52681e+06 8.58835e+06 -125163 -46414.6 367052
67 3 O -2.91391 10.6102 4.4844 -1.2 -9.27179 -4.42148e+06 28967.5 -3.78009e+06 262575 -239305 -114038
68 3 O 0.7596 13.1975 4.4844 -1.2 -9.06516 -3.57431e+06 -2.56998e+06 -3.41061e+06 2.17801e+06 -599654 -59799.3
69 3 O -2.12001 12.9296 3.18632 -1.2 -8.88645 -3.27127e+06 -3.323e+06 -715750 1.17591e+06 -255428 -1.66401e+06
70 3 O -2.16532 12.9296 5.78248 -1.2 -8.88602 -3.32729e+06 -3.46649e+06 -1.6296e+06 1.19822e+06 -170918 1.12996e+06
71 1 Mg 1.29891 11.8725 2.9896 1.2 -8.23607 4.48562e+06 -1.71479e+06 -28891.5 -1.16995e+06 -1.18137e+06 -1.58449e+06
72 1 Mg 4.10033 11.8312 4.4844 1.2 -8.90356 -430716 2.32693e+06 3.29199e+06 1.15455e+06 -463151 228044
73 2 Si 2.27333 13.896 4.4844 2.4 -33.2254 1.15828e+07 8.82121e+06 8.95367e+06 688597 -56410.4 199110
74 3 O 2.28634 15.5093 4.4844 -1.2 -9.3194 -4.08929e+06 -231186 -3.8939e+06 452712 -181285 -152914
75 3 O -4.34533 12.922 4.4844 -1.2 -9.13412 -3.8072e+06 -2.41733e+06 -3.17971e+06 -1.49128e+06 -368492 -261943
76 3 O 2.98455 13.1899 3.18632 -1.2 -8.8896 -3.11596e+06 -3.4588e+06 -899132 -975008 -124682 1.17968e+06
77 1 Mg 1.34779 11.8725 0 1.2 -5.79774 3.26116e+06 -2.97168e+06 -6.54975e+06 3.56768e+06 807491 1.72389e+06
78 3 O 2.93934 13.1899 5.78248 -1.2 -8.74626 -2.99725e+06 -3.71678e+06 -2.18445e+06 -989988 -36475.4 -1.21211e+06
79 1 Mg -1.50344 11.9138 1.4948 1.2 -8.58755 933231 1.56591e+06 4.51674e+06 1.56079e+06 -909261 533792
80 2 Si 0.326006 9.84894 1.4948 2.4 -34.8269 8.55569e+06 1.12884e+07 1.18513e+07 -587632 170871 2.41488e+06
81 3 O 0.317364 8.23571 1.4948 -1.2 -4.439 -969119 -573142 -3.55774e+07 -132289 1.15819e+06 4.17862e+06
82 3 O 6.94307 10.823 1.4948 -1.2 -9.34001 -4.82703e+06 -1.50089e+06 -1.40826e+06 -978042 -1.53376e+06 952003
83 3 O -0.343122 10.5551 0.196716 -1.2 -3.4153 -229370 -1.07215e+07 -3.22442e+07 2.45694e+06 -2.08237e+06 4.4051e+06
84 3 O -0.385966 10.5551 2.79288 -1.2 -8.64815 -2.29381e+06 -3.61912e+06 -2.34448e+06 -869671 23059.3 1.03965e+06
85 1 Mg 6.49448 14.247 0 1.2 -5.70964 3.63896e+06 -2.04288e+06 -6.81121e+06 -2.96789e+06 250000 -1.33435e+06
86 1 Mg 3.74457 18.9547 1.4948 1.2 -8.61506 174963 1.94163e+06 4.64292e+06 -1.11143e+06 -979967 -41280.3
87 2 Si 5.55495 16.2705 1.4948 2.4 -34.5801 8.37482e+06 1.14377e+07 1.15339e+07 530486 763441 -1.87082e+06
88 3 O 5.6115 17.8838 1.4948 -1.2 -4.96553 -1.76781e+06 -799513 -3.21689e+07 77107.9 -6.03756e+06 -4.35797e+06
89 3 O 1.93416 15.2965 1.4948 -1.2 -9.42367 -4.56882e+06 -1.55025e+06 -1.27398e+06 1.53427e+06 -1.38249e+06 -1.20941e+06
90 3 O 4.85636 15.5644 0.196716 -1.2 -3.44602 268595 -1.31962e+07 -3.04211e+07 -3.03071e+06 -5.12274e+06 -3.91751e+06
91 1 Mg 6.44662 14.247 2.9896 1.2 -8.13778 4.52858e+06 -1.70346e+06 -220326 1.29463e+06 -1.22379e+06 2.19629e+06
92 3 O 4.81537 15.5644 2.79288 -1.2 -8.69797 -2.08067e+06 -3.77969e+06 -2.20344e+06 1.05656e+06 7119.71 -1.48586e+06
93 1 Mg -0.948271 14.2883 4.4844 1.2 -8.82936 -611233 2.4137e+06 3.16724e+06 -609909 -215822 142859
94 2 Si -2.75928 16.9724 4.4844 2.4 -33.0594 1.1815e+07 8.79192e+06 8.52052e+06 -52742.1 -181925 502994
95 3 O -2.81617 15.3592 4.4844 -1.2 -9.34664 -4.21367e+06 -79223.1 -3.7531e+06 296096 -128370 -244809
96 3 O 0.862762 17.9465 4.4844 -1.2 -9.14087 -3.52399e+06 -2.69611e+06 -3.22917e+06 2.15177e+06 -550822 -282055
97 3 O -2.0185 17.6786 3.18632 -1.2 -8.94092 -3.13195e+06 -3.44064e+06 -669894 1.16786e+06 -140228 -1.75975e+06
98 3 O -2.06164 17.6786 5.78248 -1.2 -8.91854 -3.17202e+06 -3.60939e+06 -1.65378e+06 1.10073e+06 -27614 1.12392e+06
99 1 Mg 1.39817 16.6215 2.9896 1.2 -8.13318 4.46827e+06 -1.54532e+06 -348054 -1.1626e+06 -1.19966e+06 -1.44241e+06
100 1 Mg 4.20062 16.5802 4.4844 1.2 -8.79821 -581601 2.55416e+06 3.04619e+06 1.15788e+06 -294348 320305
101 2 Si 2.37796 18.645 4.4844 2.4 -33.1119 1.15405e+07 8.87642e+06 8.75294e+06 740404 -10413.4 791985
102 3 O 2.39434 20.2583 4.4844 -1.2 -9.3099 -4.10663e+06 -18531.3 -4.10596e+06 488852 -200126 -294891
103 3 O -4.24274 17.671 4.4844 -1.2 -9.19225 -3.64419e+06 -2.56369e+06 -3.10782e+06 -1.39697e+06 -401805 -344919
104 3 O 3.08659 17.9389 3.18632 -1.2 -8.95552 -3.02315e+06 -3.58002e+06 -808146 -948067 -73041 1.01724e+06
105 1 Mg 1.44478 16.6215 0 1.2 -5.81214 4.74202e+06 181071 -6.71719e+06 1.3986e+06 -53702.4 1.06438e+06
106 3 O 3.0436 17.9389 5.78248 -1.2 -8.88575 -2.9304e+06 -3.89258e+06 -1.75146e+06 -940305 -177709 -1.6724e+06
107 1 Mg -1.40524 16.6628 1.4948 1.2 -8.57435 608759 1.86996e+06 4.4684e+06 1.68535e+06 -963468 567579
108 2 Si 0.420358 14.5979 1.4948 2.4 -34.6371 8.34378e+06 1.15352e+07 1.14965e+07 -140071 606358 2.81196e+06
109 3 O 0.408732 12.9847 1.4948 -1.2 -4.55773 -903940 -755979 -3.50948e+07 225510 -2.59078e+06 4.11749e+06
110 3 O 7.03923 15.572 1.4948 -1.2 -9.47226 -4.72722e+06 -1.39603e+06 -1.15998e+06 -944302 -1.29852e+06 820121
111 3 O -0.248332 15.3041 0.196716 -1.2 -3.54566 -81979.8 -1.27072e+07 -3.04529e+07 3.25081e+06 -5.41821e+06 3.82876e+06
112 3 O -0.289436 15.3041 2.79288 -1.2 -8.73096 -2.11431e+06 -3.8641e+06 -2.18941e+06 -840935 7359.12 897910
113 1 Mg 6.59566 18.996 0 1.2 -5.76457 4.91511e+06 634380 -6.6334e+06 -913620 -676354 -750652
114 1 Mg 3.85574 23.7037 1.4948 1.2 -8.65864 -148947 2.1145e+06 4.7239e+06 -1.18415e+06 -932705 -52892.2
115 2 Si 5.66125 21.0195 1.4948 2.4 -34.4235 8.67367e+06 1.09429e+07 1.15407e+07 197177 1.16999e+06 -1.97594e+06
116 3 O 5.72074 22.6328 1.4948 -1.2 -5.60195 -3.37989e+06 -647006 -2.73485e+07 -226176 -8.48372e+06 -3.83556e+06
117 3 O 2.03867 20.0455 1.4948 -1.2 -9.50121 -4.51386e+06 -1.27658e+06 -1.27583e+06 1.56942e+06 -1.16157e+06 -1.1855e+06
118 3 O 4.96004 20.3134 0.196716 -1.2 -3.82138 -364086 -1.46156e+07 -2.65812e+07 -3.19557e+06 -7.92526e+06 -2.90295e+06
119 1 Mg 6.55057 18.996 2.9896 1.2 -8.07762 4.52035e+06 -1.68132e+06 -330056 1.29501e+06 -1.24585e+06 2.25413e+06
120 3 O 4.92172 20.3134 2.79288 -1.2 -8.71957 -2.00968e+06 -3.74743e+06 -2.30755e+06 1.07494e+06 -43022.5 -1.49619e+06
121 1 Mg -0.84282 19.0373 4.4844 1.2 -8.79786 -685517 2.44289e+06 3.15365e+06 -513666 -209274 310879
122 2 Si -2.64823 21.7214 4.4844 2.4 -33.0742 1.18807e+07 8.44902e+06 8.82639e+06 -4837.03 -220611 466972
123 3 O -2.70847 20.1082 4.4844 -1.2 -9.35783 -4.22444e+06 -28060 -3.7638e+06 326068 -94651.6 -342544
124 3 O 0.97581 22.6955 4.4844 -1.2 -9.15549 -3.54978e+06 -2.57903e+06 -3.29626e+06 2.22654e+06 -532172 -44285.9
125 3 O -1.9076 22.4276 3.18632 -1.2 -8.95377 -3.06321e+06 -3.37426e+06 -820632 1.17074e+06 -52469.5 -1.66764e+06
126 3 O -1.9475 22.4276 5.78248 -1.2 -8.85606 -3.22751e+06 -3.3294e+06 -1.96469e+06 1.19226e+06 14194.9 1.2283e+06
127 1 Mg 1.50678 21.3705 2.9896 1.2 -8.09617 4.53021e+06 -1.66848e+06 -346050 -1.16555e+06 -1.21363e+06 -1.44876e+06
128 1 Mg 4.31086 21.3292 4.4844 1.2 -8.82778 -603975 2.32462e+06 3.34916e+06 1.20624e+06 -311391 257679
129 2 Si 2.49243 23.394 4.4844 2.4 -33.0305 1.14786e+07 8.87457e+06 8.68524e+06 718996 -9944.94 190011
130 3 O 2.51204 25.0073 4.4844 -1.2 -9.40505 -3.99332e+06 -237556 -3.85575e+06 541789 -166130 -164673
131 3 O -4.13026 22.42 4.4844 -1.2 -9.19228 -3.66478e+06 -2.40291e+06 -3.24468e+06 -1.42118e+06 -371714 -201090
132 3 O 3.19799 22.6879 3.18632 -1.2 -8.9752 -2.96382e+06 -3.531e+06 -941001 -925946 8958.48 1.16e+06
133 1 Mg 1.5501 21.3705 0 1.2 -5.82965 5.58064e+06 1.70635e+06 -6.27458e+06 -72251.3 -970773 592716
134 3 O 3.1583 22.6879 5.78248 -1.2 -8.85153 -2.95501e+06 -3.73105e+06 -1.92268e+06 -920585 -213266 -1.18344e+06
135 1 Mg -1.29822 21.4118 1.4948 1.2 -8.61765 305595 1.99696e+06 4.60954e+06 1.7983e+06 -930236 457992
136 2 Si 0.523568 19.3469 1.4948 2.4 -34.4732 8.51001e+06 1.1246e+07 1.13852e+07 300905 1.03434e+06 3.01039e+06
137 3 O 0.508934 17.7337 1.4948 -1.2 -4.95442 -1.80813e+06 -789634 -3.22915e+07 669470 -6.09737e+06 3.85793e+06
138 3 O 7.14425 20.321 1.4948 -1.2 -9.54673 -4.66143e+06 -1.13026e+06 -1.18104e+06 -936505 -1.05888e+06 818810
139 3 O -0.145107 20.0531 0.196716 -1.2 -3.92771 -764513 -1.4284e+07 -2.65457e+07 3.69189e+06 -8.21195e+06 2.90697e+06
140 3 O -0.183601 20.0531 2.79288 -1.2 -8.76201 -2.05618e+06 -3.8602e+06 -2.25038e+06 -838000 -51386.1 808341
141 1 Mg 6.70502 23.745 0 1.2 -5.83721 5.35397e+06 1.89119e+06 -5.82892e+06 423951 -1.50681e+06 -444157
142 1 Mg 3.97493 28.4527 1.4948 1.2 -8.70519 -516296 2.33446e+06 4.71322e+06 -1.21935e+06 -787638 138607
143 2 Si 5.77602 25.7685 1.4948 2.4 -34.2044 9.16493e+06 1.04797e+07 1.12492e+07 -100162 1.48459e+06 -1.8973e+06
144 3 O 5.83821 27.3818 1.4948 -1.2 -6.4409 -5.05442e+06 -564489 -2.11773e+07 -346643 -9.26823e+06 -3.32035e+06
145 3 O 2.15175 24.7945 1.4948 -1.2 -9.56035 -4.43677e+06 -1.10829e+06 -1.29246e+06 1.62105e+06 -936196 -1.10018e+06
146 3 O 5.07184 25.0624 0.196716 -1.2 -4.48141 -1.58465e+06 -1.52698e+07 -2.10274e+07 -2.79318e+06 -9.38983e+06 -1.63061e+06
147 1 Mg 6.66374 23.745 2.9896 1.2 -8.02387 4.52076e+06 -1.68502e+06 -410011 1.32031e+06 -1.27542e+06 2.10838e+06
148 3 O 5.03707 25.0624 2.79288 -1.2 -8.77087 -1.94812e+06 -3.8606e+06 -2.21537e+06 1.08564e+06 -122488 -1.40471e+06
149 1 Mg -0.727559 23.7863 4.4844 1.2 -8.7576 -794523 2.47757e+06 3.15532e+06 -505646 -237191 81713
150 2 Si -2.5277 26.4704 4.4844 2.4 -32.8977 1.1487e+07 8.9783e+06 8.40639e+06 54658.8 -205132 562648
151 3 O -2.59107 24.8572 4.4844 -1.2 -9.42497 -4.04298e+06 -205725 -3.65616e+06 340910 -72461.2 -158060
152 3 O 1.09817 27.4445 4.4844 -1.2 -9.22836 -3.46721e+06 -2.69992e+06 -3.14828e+06 2.27979e+06 -461042 -211822
153 3 O -1.78784 27.1766 3.18632 -1.2 -8.99066 -2.90961e+06 -3.51986e+06 -829148 1.16731e+06 25707.9 -1.77371e+06
154 3 O -1.82343 27.1766 5.78248 -1.2 -8.9887 -2.92562e+06 -3.64981e+06 -1.58808e+06 1.16226e+06 -13220.8 1.01287e+06
155 1 Mg 1.62435 26.1195 2.9896 1.2 -8.02142 4.5294e+06 -1.54936e+06 -581139 -1.163e+06 -1.27922e+06 -1.39406e+06
156 1 Mg 4.43064 26.0782 4.4844 1.2 -8.72103 -736729 2.56931e+06 3.06539e+06 1.21954e+06 -271115 273821
157 2 Si 2.61607 28.143 4.4844 2.4 -32.9057 1.14181e+07 8.94577e+06 8.47623e+06 758205 -67795.4 486718
158 3 O 2.63853 29.7563 4.4844 -1.2 -9.43003 -4.06179e+06 -209023 -3.77311e+06 552454 -136356 -267705
159 3 O -4.00841 27.169 4.4844 -1.2 -9.28074 -3.54874e+06 -2.60921e+06 -3.021e+06 -1.39086e+06 -369419 -352075
160 3 O 3.3182 27.4369 3.18632 -1.2 -9.02143 -2.87492e+06 -3.64983e+06 -914486 -908573 95601.3 1.03593e+06
161 1 Mg 1.66335 26.1195 0 1.2 -5.8772 5.39603e+06 2.31199e+06 -5.39993e+06 -906285 -1.55484e+06 429920
162 3 O 3.28288 27.4369 5.78248 -1.2 -8.97011 -2.79989e+06 -3.76591e+06 -1.83185e+06 -964279 -163358 -1.42301e+06
163 1 Mg -1.18278 26.1608 1.4948 1.2 -8.66313 -88007 2.23402e+06 4.64676e+06 1.88364e+06 -824160 404742
164 2 Si 0.635424 24.0959 1.4948 2.4 -34.2885 8.93319e+06 1.07687e+07 1.12106e+07 729692 1.41586e+06 2.88061e+06
165 3 O 0.617906 22.4827 1.4948 -1.2 -5.59572 -3.45052e+06 -636570 -2.74338e+07 1.02074e+06 -8.56183e+06 3.48598e+06
166 3 O 7.25781 25.07 1.4948 -1.2 -9.60241 -4.54793e+06 -977975 -1.23802e+06 -940767 -824214 841731
167 3 O -0.0337363 24.8021 0.196716 -1.2 -4.57313 -1.95233e+06 -1.52264e+07 -2.09685e+07 3.51211e+06 -9.67386e+06 1.68314e+06
168 3 O -0.0687235 24.8021 2.79288 -1.2 -8.81155 -1.98636e+06 -3.97053e+06 -2.18361e+06 -827246 -98473.6 847268
169 1 Mg 6.82195 28.494 0 1.2 -5.9271 4.83622e+06 2.36212e+06 -4.75858e+06 1.15347e+06 -1.85724e+06 -236184
170 1 Mg 4.10106 33.2017 1.4948 1.2 -8.77117 -879669 2.4779e+06 4.69843e+06 -1.20882e+06 -543633 179446
171 2 Si 5.89839 30.5175 1.4948 2.4 -33.9883 9.83307e+06 9.77409e+06 1.10235e+07 -326145 1.65698e+06 -1.52878e+06
172 3 O 5.96289 32.1308 1.4948 -1.2 -7.30242 -6.17894e+06 -407286 -1.51742e+07 -288212 -8.4457e+06 -2.73258e+06
173 3 O 2.27266 29.5435 1.4948 -1.2 -9.58884 -4.3484e+06 -988235 -1.40712e+06 1.65763e+06 -719855 -1.19407e+06
174 3 O 5.19102 29.8114 0.196716 -1.2 -5.35627 -2.89917e+06 -1.48114e+07 -1.49675e+07 -1.9354e+06 -9.25155e+06 -417940
175 1 Mg 6.78546 28.494 2.9896 1.2 -7.97585 4.51562e+06 -1.63787e+06 -523521 1.32421e+06 -1.31761e+06 2.25541e+06
176 3 O 5.16061 29.8114 2.79288 -1.2 -8.79098 -1.97388e+06 -3.85207e+06 -2.20452e+06 1.09804e+06 -219769 -1.52443e+06
177 1 Mg -0.603205 28.5353 4.4844 1.2 -8.73268 -934057 2.52292e+06 3.20344e+06 -512016 -228936 303973
178 2 Si -2.39877 31.2194 4.4844 2.4 -33.0091 1.14832e+07 8.81336e+06 8.76306e+06 65067 -218591 677886
179 3 O -2.46483 29.6062 4.4844 -1.2 -9.41413 -3.97959e+06 -171081 -3.76184e+06 386659 -56974.7 -340884
180 3 O 1.22864 32.1935 4.4844 -1.2 -9.19624 -3.59054e+06 -2.63784e+06 -3.13864e+06 2.2546e+06 -361092 -306449
181 3 O -1.66032 31.9256 3.18632 -1.2 -8.95241 -2.86365e+06 -3.46939e+06 -1.06242e+06 1.15624e+06 109509 -1.80248e+06
182 3 O -1.69072 31.9256 5.78248 -1.2 -8.854 -2.95981e+06 -3.59456e+06 -1.8676e+06 1.16271e+06 47649.4 1.08257e+06
183 1 Mg 1.7499 30.8685 2.9896 1.2 -8.00312 4.61811e+06 -1.58168e+06 -660249 -1.13866e+06 -1.38009e+06 -1.26134e+06
184 1 Mg 4.55894 30.8272 4.4844 1.2 -8.74139 -690163 2.50664e+06 3.11612e+06 1.23025e+06 -142087 362260
185 2 Si 2.7476 32.892 4.4844 2.4 -33.0021 1.16317e+07 8.73646e+06 8.62957e+06 733390 -84994 662025
186 3 O 2.77235 34.5053 4.4844 -1.2 -9.36118 -4.13082e+06 -33175.5 -3.99113e+06 594053 -73674.2 -213194
187 3 O -3.87837 31.918 4.4844 -1.2 -9.22612 -3.62197e+06 -2.51811e+06 -3.12377e+06 -1.33772e+06 -369114 -371231
188 3 O 3.44611 32.1859 3.18632 -1.2 -8.99406 -2.87753e+06 -3.60617e+06 -1.09045e+06 -874008 153086 958886
189 1 Mg 1.7837 30.8685 0 1.2 -5.96391 4.38574e+06 2.44071e+06 -4.43997e+06 -1.34451e+06 -1.51943e+06 636761
190 3 O 3.41602 32.1859 5.78248 -1.2 -8.91844 -2.95775e+06 -3.72388e+06 -1.78656e+06 -843223 -203741 -1.56329e+06
191 1 Mg -1.05984 30.9098 1.4948 1.2 -8.72542 -474555 2.40065e+06 4.66468e+06 1.90522e+06 -626666 426800
192 2 Si 0.755243 28.8449 1.4948 2.4 -34.0718 9.52199e+06 1.01629e+07 1.09654e+07 1.12388e+06 1.63014e+06 3.024e+06
193 3 O 0.735127 27.2317 1.4948 -1.2 -6.43585 -5.13379e+06 -544896 -2.12633e+07 1.18337e+06 -9.34198e+06 2.8084e+06
194 3 O 7.37914 29.819 1.4948 -1.2 -9.62483 -4.43199e+06 -864177 -1.39885e+06 -932544 -609352 719358
195 3 O 0.0850649 29.5511 0.196716 -1.2 -5.41987 -3.16417e+06 -1.51529e+07 -1.49059e+07 2.70195e+06 -9.46969e+06 206512
196 3 O 0.0543974 29.5511 2.79288 -1.2 -8.83507 -1.99006e+06 -3.98196e+06 -2.18051e+06 -823138 -123834 671648
197 1 Mg 6.94543 33.243 0 1.2 -6.04261 3.71358e+06 2.43686e+06 -3.85207e+06 1.58092e+06 -1.44655e+06 -483150
198 1 Mg 4.23267 37.9507 1.4948 1.2 -8.80327 -1.21357e+06 2.6193e+06 4.52787e+06 -1.13175e+06 -226055 58799.4
199 2 Si 6.02709 35.2665 1.4948 2.4 -33.7773 1.05526e+07 8.97142e+06 1.08186e+07 -418011 1.59386e+06 -1.62185e+06
200 3 O 6.09339 36.8798 1.4948 -1.2 -8.08003 -6.43834e+06 -284289 -1.02853e+07 -135701 -6.60575e+06 -2.02499e+06
201 3 O 2.40018 34.2925 1.4948 -1.2 -9.57396 -4.25401e+06 -907179 -1.65834e+06 1.69644e+06 -517565 -1.08845e+06
202 3 O 5.31645 34.5604 0.196716 -1.2 -6.29473 -3.88565e+06 -1.31955e+07 -9.65692e+06 -944775 -7.82265e+06 835486
203 1 Mg 6.91449 33.243 2.9896 1.2 -7.98697 4.59157e+06 -1.72337e+06 -487875 1.31152e+06 -1.38723e+06 2.1905e+06
204 3 O 5.291 34.5604 2.79288 -1.2 -8.78535 -2.08616e+06 -3.74673e+06 -2.24185e+06 1.12848e+06 -272493 -1.38746e+06
205 1 Mg -0.471101 33.2843 4.4844 1.2 -8.79626 -861772 2.42235e+06 3.328e+06 -422283 -205669 285700
206 2 Si -2.26307 35.9684 4.4844 2.4 -33.0613 1.15724e+07 8.6546e+06 8.91907e+06 100681 -200016 240559
207 3 O -2.33122 34.3552 4.4844 -1.2 -9.35325 -4.06119e+06 -68113 -3.8732e+06 397674 -30368.1 -209675
208 3 O 1.36549 36.9425 4.4844 -1.2 -9.19253 -3.57038e+06 -2.64641e+06 -3.16273e+06 2.27e+06 -318288 -5608.17
209 3 O -1.52658 36.6746 3.18632 -1.2 -8.94038 -2.80899e+06 -3.45812e+06 -1.24349e+06 1.1461e+06 143330 -1.56448e+06
210 3 O -1.55122 36.6746 5.78248 -1.2 -8.83144 -2.97773e+06 -3.50935e+06 -1.84874e+06 1.20487e+06 93883.8 1.32333e+06
211 1 Mg 1.882 35.6175 2.9896 1.2 -8.00876 4.65588e+06 -1.65647e+06 -604056 -1.11658e+06 -1.47652e+06 -1.417e+06
212 1 Mg 4.69415 35.5762 4.4844 1.2 -8.78162 -601081 2.37892e+06 3.22031e+06 1.22537e+06 -140922 143248
213 2 Si 2.88522 37.641 4.4844 2.4 -32.9531 1.14026e+07 8.97669e+06 8.5396e+06 778981 -137636 114808
214 3 O 2.91159 39.2543 4.4844 -1.2 -9.43218 -3.91729e+06 -289644 -3.83288e+06 596525 -49843.4 -133100
215 3 O -3.74183 36.667 4.4844 -1.2 -9.23156 -3.68628e+06 -2.47956e+06 -3.09159e+06 -1.31839e+06 -324034 -110336
216 3 O 3.58014 36.9349 3.18632 -1.2 -8.98459 -2.79043e+06 -3.63021e+06 -1.27401e+06 -852770 221717 1.16166e+06
217 1 Mg 1.90997 35.6175 0 1.2 -6.08093 3.11538e+06 2.3078e+06 -3.82786e+06 -1.65882e+06 -771911 898485
218 3 O 3.55582 36.9349 5.78248 -1.2 -8.9113 -2.90796e+06 -3.78282e+06 -1.6655e+06 -885942 -68554.9 -1.16904e+06
219 1 Mg -0.93068 35.6588 1.4948 1.2 -8.77721 -805675 2.5143e+06 4.57309e+06 1.86233e+06 -318732 194424
220 2 Si 0.881882 33.5939 1.4948 2.4 -33.8713 1.0244e+07 9.37776e+06 1.07785e+07 1.41437e+06 1.63762e+06 2.70716e+06
221 3 O 0.859602 31.9807 1.4948 -1.2 -7.30163 -6.27305e+06 -397442 -1.52349e+07 1.15797e+06 -8.48043e+06 2.15277e+06
222 3 O 7.507 34.568 1.4948 -1.2 -9.61139 -4.34649e+06 -798903 -1.63787e+06 -935298 -423194 866233
223 3 O 0.210186 34.3001 0.196716 -1.2 -6.33238 -4.05203e+06 -1.39123e+07 -9.56248e+06 1.52647e+06 -7.95854e+06 -843301
224 3 O 0.184454 34.3001 2.79288 -1.2 -8.82902 -2.09339e+06 -3.88435e+06 -2.23069e+06 -849498 -170135 733076
225 1 Mg 7.07415 37.992 0 1.2 -6.16461 2.57113e+06 2.21947e+06 -3.44597e+06 1.87229e+06 -417119 -1.22143e+06
226 1 Mg 4.36817 42.6997 1.4948 1.2 -8.77983 -1.45805e+06 2.773e+06 4.19919e+06 -1.0046e+06 102580 196743
227 2 Si 6.16058 40.0155 1.4948 2.4 -33.5213 1.10797e+07 8.33716e+06 1.05228e+07 -386889 1.29687e+06 -1.44162e+06
228 3 O 6.22815 41.6288 1.4948 -1.2 -8.71442 -5.94314e+06 -266659 -6.87265e+06 38112.2 -4.50445e+06 -1.73913e+06
229 3 O 2.53282 39.0415 1.4948 -1.2 -9.55653 -4.10058e+06 -981270 -1.92583e+06 1.71822e+06 -350305 -995150
230 3 O 5.44674 39.3094 0.196716 -1.2 -7.16466 -4.35652e+06 -1.07144e+07 -5.83295e+06 -140321 -5.76346e+06 1.75033e+06
231 1 Mg 7.04922 37.992 2.9896 1.2 -7.9468 4.5921e+06 -1.67804e+06 -587161 1.29352e+06 -1.48172e+06 1.97784e+06
232 3 O 5.42658 39.3094 2.79288 -1.2 -8.84634 -2.13362e+06 -3.79952e+06 -2.07394e+06 1.15301e+06 -276868 -1.28389e+06
233 1 Mg -0.333062 38.0333 4.4844 1.2 -8.74903 -937404 2.52299e+06 3.22219e+06 -395618 -151656 34237.3
234 2 Si -2.12255 40.7174 4.4844 2.4 -32.8296 1.13542e+07 9.08232e+06 8.33996e+06 139304 -149687 267469
235 3 O -2.19212 39.1042 4.4844 -1.2 -9.44059 -3.94705e+06 -236598 -3.67956e+06 417107 -17578.7 -14825.2
236 3 O 1.50676 41.6915 4.4844 -1.2 -9.25668 -3.4023e+06 -2.79512e+06 -3.07635e+06 2.27923e+06 -320003 -202001
237 3 O -1.3884 41.4236 3.18632 -1.2 -8.98866 -2.68434e+06 -3.59487e+06 -1.25938e+06 1.13191e+06 122015 -1.63008e+06
238 3 O -1.40713 41.4236 5.78248 -1.2 -9.02552 -2.76367e+06 -3.75015e+06 -1.40623e+06 1.16125e+06 -24926.2 1.15516e+06
239 1 Mg 2.01892 40.3665 2.9896 1.2 -7.95767 4.54017e+06 -1.51322e+06 -700200 -1.08853e+06 -1.56082e+06 -1.38338e+06
240 1 Mg 4.83434 40.3252 4.4844 1.2 -8.69302 -767456 2.5873e+06 3.03721e+06 1.18817e+06 -181433 174259
241 2 Si 3.02698 42.39 4.4844 2.4 -32.8936 1.09774e+07 9.12502e+06 8.7297e+06 729502 -182616 464350
242 3 O 3.05433 44.0033 4.4844 -1.2 -9.42997 -3.79233e+06 -245114 -4.00408e+06 619565 36242.1 -203807
243 3 O -3.60077 41.416 4.4844 -1.2 -9.3433 -3.64419e+06 -2.64428e+06 -2.79061e+06 -1.3003e+06 -186739 -216269
244 3 O 3.71851 41.6839 3.18632 -1.2 -9.01398 -2.5992e+06 -3.7518e+06 -1.40457e+06 -829031 267436 1.02878e+06
245 1 Mg 2.04077 40.3665 0 1.2 -6.17201 2.10208e+06 2.04309e+06 -3.82508e+06 -1.83615e+06 434837 1.67178e+06
246 3 O 3.70011 41.6839 5.78248 -1.2 -8.94884 -2.52763e+06 -3.91951e+06 -1.91629e+06 -812045 62367.4 -1.41189e+06
247 1 Mg -0.796865 40.4078 1.4948 1.2 -8.77134 -1.07132e+06 2.66116e+06 4.29081e+06 1.76003e+06 49165.3 164769
248 2 Si 1.01387 38.3429 1.4948 2.4 -33.6403 1.08163e+07 8.66455e+06 1.05844e+07 1.54733e+06 1.47235e+06 2.13507e+06
249 3 O 0.989947 36.7297 1.4948 -1.2 -8.07639 -6.52038e+06 -271697 -1.03736e+07 1.03212e+06 -6.63657e+06 1.85092e+06
250 3 O 7.63988 39.317 1.4948 -1.2 -9.60133 -4.22631e+06 -881204 -1.86557e+06 -931294 -254953 990287
251 3 O 0.340253 39.0491 0.196716 -1.2 -7.17389 -4.44049e+06 -1.16297e+07 -5.77458e+06 378370 -5.86895e+06 -1.5893e+06
252 3 O 0.319795 39.0491 2.79288 -1.2 -8.88602 -2.12692e+06 -3.94257e+06 -2.08716e+06 -873886 -212758 826153
253 1 Mg 7.20667 42.741 0 1.2 -6.20217 1.72608e+06 2.05625e+06 -3.84128e+06 1.99038e+06 911208 -1.91597e+06
254 1 Mg 4.50613 47.4487 1.4948 1.2 -8.72372 -1.52737e+06 3.00034e+06 3.74809e+06 -851321 401975 150286
255 2 Si 6.29731 44.7645 1.4948 2.4 -33.2737 1.13472e+07 7.93657e+06 1.02362e+07 -243401 887960 -1.07472e+06
256 3 O 6.36567 46.3778 1.4948 -1.2 -9.16215 -5.08938e+06 -368460 -4.80639e+06 187227 -2.69426e+06 -1.47814e+06
257 3 O 2.669 43.7905 1.4948 -1.2 -9.53702 -3.90026e+06 -1.20959e+06 -2.19893e+06 1.72073e+06 -202685 -1.11154e+06
258 3 O 5.58048 44.0584 0.196716 -1.2 -7.9213 -4.22249e+06 -8.17004e+06 -3.3349e+06 325498 -3.71175e+06 2.17803e+06
259 1 Mg 7.1879 42.741 2.9896 1.2 -7.89001 4.55455e+06 -1.60283e+06 -702487 1.28487e+06 -1.5932e+06 2.10724e+06
260 3 O 5.56564 44.0584 2.79288 -1.2 -8.90448 -2.21922e+06 -3.77382e+06 -1.94514e+06 1.13923e+06 -246412 -1.36257e+06
261 1 Mg -0.19105 42.7823 4.4844 1.2 -8.68961 -1.01288e+06 2.56014e+06 3.16217e+06 -399438 -7575.49 246105
262 2 Si -1.97909 45.4664 4.4844 2.4 -32.8177 1.13005e+07 8.84559e+06 8.6138e+06 132783 -75072 242571
263 3 O -2.04947 43.8532 4.4844 -1.2 -9.48316 -3.92579e+06 -176756 -3.69113e+06 431187 -27221.3 -208293
264 3 O 1.65063 46.4405 4.4844 -1.2 -9.25984 -3.35825e+06 -2.79212e+06 -3.1242e+06 2.30699e+06 -223207 7094.17
265 3 O -1.24745 46.1726 3.18632 -1.2 -8.99641 -2.59344e+06 -3.63117e+06 -1.40677e+06 1.14127e+06 71914.3 -1.54538e+06
266 3 O -1.26044 46.1726 5.78248 -1.2 -8.97942 -2.76426e+06 -3.50393e+06 -1.65954e+06 1.19931e+06 26411.4 1.35399e+06
267 1 Mg 2.15896 45.1155 2.9896 1.2 -7.93845 4.44085e+06 -1.46648e+06 -662726 -1.07345e+06 -1.67418e+06 -1.38301e+06
268 1 Mg 4.97763 45.0742 4.4844 1.2 -8.67624 -717808 2.4988e+06 3.04894e+06 1.2473e+06 -173975 135756
269 2 Si 3.1711 47.139 4.4844 2.4 -32.8556 1.08491e+07 9.30519e+06 8.61685e+06 803272 -242589 -12655.1