ITEM: TIMESTEP
3600
ITEM: NUMBER OF ATOMS
10500
ITEM: BOX BOUNDS xy xz yz pp pp pp
0.0000000000000000e+00 1.5297450000000000e+01 5.0990000000000002e+00
0.0000000000000000e+00 1.1872499999999999e+02 0.0000000000000000e+00
0.0000000000000000e+00 8.9688000000000002e+01 0.0000000000000000e+00
ITEM: ATOMS id type element xu yu zu q c_pe c_s[1] c_s[2] c_s[3] c_s[4] c_s[5] c_s[6]
1 1 Mg 6.2404 -6.37941e-06 0 1.2 -4.23076 7.53686e+06 -1.88796e+06 -6.13147e+06 -10064.3 2.59784e+06 -674881
2 1 Mg 3.46349 4.70768 1.4948 1.2 -8.30566 -559608 2.58983e+06 4.37303e+06 -947250 -619997 -256529
3 2 Si 5.2885 2.02354 1.4948 2.4 -34.8341 9.29813e+06 1.09239e+07 1.13809e+07 8.8596e+06 716276 -3.88802e+06
4 3 O 5.33628 3.63678 1.4948 -1.2 -4.91134 -512474 -1.37889e+06 -3.37381e+07 -331846 3.80287e+06 -3.51044e+06
5 3 O 1.67294 1.04952 1.4948 -1.2 -1.27212 -2.002e+07 -7.94024e+07 -2.06577e+06 -2.41238e+07 -127142 327643
6 3 O 4.59532 1.31737 0.196716 -1.2 -3.23254 -1.64284e+06 -6.64412e+06 -3.05137e+07 -6.0283e+06 6.25295e+06 -2.21186e+06
7 1 Mg 6.18956 -6.37941e-06 2.9896 1.2 -4.71177 1.10148e+06 -2.81888e+07 -2.90807e+06 -8.84695e+06 2.47961e+06 3.55971e+06
8 3 O 4.55118 1.31737 2.79288 -1.2 -7.73801 514081 -4.69693e+06 -3.16055e+06 -2.94864e+06 -3.45884e+06 -717197
9 1 Mg -1.20682 0.0413099 4.4844 1.2 9.19446 -3.1248e+07 -9.33505e+07 -259652 -2.84618e+07 -1.33763e+06 -334985
10 2 Si -3.0337 2.72544 4.4844 2.4 -32.6896 1.33196e+07 6.84229e+06 8.58734e+06 1.70826e+06 129261 -1.11403e+06
11 3 O -3.08099 1.11221 4.4844 -1.2 -9.86265 -5.58858e+06 -38378 -2.27693e+06 -1.24489e+06 -194997 614861
12 3 O 0.582463 3.69946 4.4844 -1.2 -9.19753 -2.91689e+06 -5.29606e+06 -3.01484e+06 -543949 -61572.5 129345
13 3 O -2.29524 3.43162 3.18632 -1.2 -9.25949 -3.80878e+06 -2.42052e+06 -769507 1.06442e+06 -819208 -642939
14 3 O -2.34216 3.43162 5.78248 -1.2 -9.00261 -3.37691e+06 -2.9867e+06 -2.1849e+06 683891 657006 1.51236e+06
15 1 Mg 1.12778 2.37449 2.9896 1.2 -7.36473 4.85512e+06 -1.71125e+06 -664447 -3.29224e+06 -4.22389e+06 -2.56367e+06
16 1 Mg 3.92855 2.33318 4.4844 1.2 -8.19206 -4.51138e+06 4.82708e+06 4.8357e+06 1.35637e+06 387411 192834
17 2 Si 2.09341 4.39804 4.4844 2.4 -31.9238 1.14996e+07 6.35704e+06 9.21817e+06 109877 -374794 19713.4
18 3 O 2.09991 6.01128 4.4844 -1.2 -9.68672 -3.76202e+06 240934 -4.10999e+06 566527 -74515.3 167848
19 3 O -4.52137 3.42402 4.4844 -1.2 -9.39157 -2.50811e+06 -2.72841e+06 -3.81198e+06 -2.4329e+06 -980216 345956
20 3 O 2.80834 3.69187 3.18632 -1.2 -9.55174 -1.84636e+06 -2.68377e+06 -487473 485043 -489578 -189169
21 1 Mg 1.17857 2.37449 0 1.2 -4.93744 -883343 -1.48801e+07 -6.40947e+06 6.51505e+06 1.22696e+06 4.14995e+06
22 3 O 2.76143 3.69187 5.78248 -1.2 -9.63529 -2.55221e+06 -2.15365e+06 -1.25111e+06 586122 48264.3 236343
23 1 Mg -1.67381 2.41581 1.4948 1.2 -7.38064 1.19101e+06 -254998 4.15527e+06 1.36514e+06 -599885 627235
24 2 Si 0.16286 0.350945 1.4948 2.4 -24.1158 -8.87032e+06 1.2406e+07 1.14002e+07 1.5888e+06 2.79768e+06 305522
25 3 O 0.15972 -1.26229 1.4948 -1.2 -4.97455 -1.03604e+07 -7.94498e+06 -2.89978e+07 -5.60067e+06 -8.50076e+06 -2.16354e+06
26 3 O 6.77654 1.32496 1.4948 -1.2 -10.564 -5.34715e+06 1.77873e+06 -1.45111e+06 -649484 -642534 1.50231e+06
27 3 O -0.508028 1.05712 0.196716 -1.2 -9.72871 444949 -4.64888e+06 -740656 -550046 186259 -4.08962e+06
28 3 O -0.552171 1.05712 2.79288 -1.2 -7.03801 -4.94352e+06 -4.60086e+06 -2.46608e+07 1.40788e+06 -6.73432e+06 -5.128e+06
29 1 Mg 6.31713 4.74899 0 1.2 -4.79896 128920 -1.29806e+07 -6.0118e+06 -7.30487e+06 1.40553e+06 -3.974e+06
30 1 Mg 3.54847 9.45668 1.4948 1.2 -8.20598 107457 1.61282e+06 4.50187e+06 -949745 -926983 -515314
31 2 Si 5.36879 6.77254 1.4948 2.4 -34.0199 6.90022e+06 1.17899e+07 1.1764e+07 1.65025e+06 162064 -2.53861e+06
32 3 O 5.41937 8.38578 1.4948 -1.2 -4.88508 -147232 -815756 -3.53125e+07 773176 1.10664e+06 -3.99528e+06
33 3 O 1.75158 5.79852 1.4948 -1.2 -9.65175 -3.77996e+06 -2.22729e+06 -1.54111e+06 1.97166e+06 -1.58191e+06 -1.03909e+06
34 3 O 4.67421 6.06637 0.196716 -1.2 -3.89755 305109 -1.00088e+07 -3.15316e+07 -2.00515e+06 1.31121e+06 -4.11628e+06
35 1 Mg 6.26654 4.74899 2.9896 1.2 -7.8481 3.8045e+06 -1.81372e+06 153208 1.80944e+06 -791573 1.5986e+06
36 3 O 4.63043 6.06637 2.79288 -1.2 -9.0215 -1.39615e+06 -3.80715e+06 -2.29956e+06 953969 -134528 -1.14889e+06
37 1 Mg -1.12976 4.79031 4.4844 1.2 -8.63405 -994164 2.56084e+06 3.13794e+06 -646017 -485209 -361433
38 2 Si -2.9517 7.47444 4.4844 2.4 -32.533 1.07432e+07 8.5359e+06 9.00924e+06 -6932.49 186495 -842020
39 3 O -3.00198 5.86121 4.4844 -1.2 -9.59599 -3.66761e+06 53175.1 -4.01741e+06 24937.6 -325633 419093
40 3 O 0.666315 8.44846 4.4844 -1.2 -9.42588 -3.04306e+06 -2.41276e+06 -3.50243e+06 2.08295e+06 -421509 370994
41 3 O -2.21213 8.18062 3.18632 -1.2 -9.23947 -2.66391e+06 -3.24662e+06 -821789 1.11423e+06 -338882 -1.11916e+06
42 3 O -2.25864 8.18062 5.78248 -1.2 -9.14345 -2.65726e+06 -3.49094e+06 -2.0275e+06 1.07231e+06 -280853 1.92132e+06
43 1 Mg 1.20893 7.12349 2.9896 1.2 -7.84363 3.87574e+06 -1.80275e+06 43407.5 -1.27228e+06 -1.38142e+06 -1.9628e+06
44 1 Mg 4.00982 7.08218 4.4844 1.2 -8.47471 -1.0263e+06 2.33064e+06 3.1932e+06 984059 -277356 -183711
45 2 Si 2.17861 9.14704 4.4844 2.4 -32.4783 1.07082e+07 8.49172e+06 8.96416e+06 696856 -183960 -551873
46 3 O 2.18828 10.7603 4.4844 -1.2 -9.67174 -3.67223e+06 -77953.6 -3.87822e+06 400636 -202100 340998
47 3 O -4.43805 8.17302 4.4844 -1.2 -9.48824 -3.12052e+06 -2.46662e+06 -3.24335e+06 -1.46382e+06 -519291 259734
48 3 O 2.89193 8.44087 3.18632 -1.2 -9.26581 -2.5876e+06 -3.39786e+06 -861757 -939505 -201677 1.53605e+06
49 1 Mg 1.25915 7.12349 0 1.2 -5.21227 820348 -7.72697e+06 -6.19054e+06 5.89908e+06 1.39767e+06 2.32473e+06
50 3 O 2.84547 8.44087 5.78248 -1.2 -9.20163 -2.68596e+06 -3.49878e+06 -1.90471e+06 -954960 -10973.1 -955798
51 1 Mg -1.59284 7.16481 1.4948 1.2 -8.12377 571768 1.21763e+06 4.49965e+06 1.46243e+06 -909412 39387.8
52 2 Si 0.240329 5.09994 1.4948 2.4 -33.7478 7.76253e+06 1.06849e+07 1.15714e+07 -1.95318e+06 -1.08835e+06 1.29803e+06
53 3 O 0.234538 3.48671 1.4948 -1.2 -5.41234 -1.47483e+06 481877 -3.38696e+07 398536 5.19725e+06 4.31436e+06
54 3 O 6.85564 6.07396 1.4948 -1.2 -9.72253 -4.16069e+06 -1.68616e+06 -1.54995e+06 -1.34499e+06 -1.84353e+06 1.48833e+06
55 3 O -0.429565 5.80612 0.196716 -1.2 -4.14246 -443543 -8.65852e+06 -3.16966e+07 1.84645e+06 1.18322e+06 4.89407e+06
56 3 O -0.473377 5.80612 2.79288 -1.2 -9.09444 -1.8418e+06 -3.37411e+06 -2.26705e+06 -798788 339843 1.6139e+06
57 1 Mg 6.40169 9.49799 0 1.2 -5.19355 1.41324e+06 -6.56554e+06 -6.46201e+06 -5.49862e+06 971523 -2.60014e+06
58 1 Mg 3.64209 14.2057 1.4948 1.2 -8.27667 29729.4 1.84403e+06 4.42074e+06 -1.03194e+06 -961519 -285937
59 2 Si 5.45748 11.5215 1.4948 2.4 -34.0214 7.17811e+06 1.16179e+07 1.16365e+07 904072 346097 -2.36742e+06
60 3 O 5.51101 13.1348 1.4948 -1.2 -4.91603 -317038 -892213 -3.48368e+07 458816 -2.5519e+06 -4.30016e+06
61 3 O 1.83851 10.5475 1.4948 -1.2 -9.6998 -4.04394e+06 -1.7855e+06 -1.37009e+06 1.53111e+06 -1.58315e+06 -925874
62 3 O 4.7611 10.8154 0.196716 -1.2 -3.71745 695420 -1.13789e+07 -3.20631e+07 -2.46785e+06 -1.74764e+06 -4.20111e+06
63 1 Mg 6.35203 9.49799 2.9896 1.2 -7.81827 3.86467e+06 -1.70691e+06 -63896.6 1.29457e+06 -1.17909e+06 1.75662e+06
64 3 O 4.71833 10.8154 2.79288 -1.2 -9.02791 -1.59875e+06 -3.69971e+06 -2.20314e+06 1.03327e+06 18442.3 -1.12106e+06
65 1 Mg -1.0438 9.53931 4.4844 1.2 -8.50318 -1.20454e+06 2.41622e+06 3.2447e+06 -599942 -227141 -415459
66 2 Si -2.8604 12.2234 4.4844 2.4 -32.4785 1.06121e+07 8.92691e+06 8.65698e+06 -1589.17 -140002 -233182
67 3 O -2.91391 10.6102 4.4844 -1.2 -9.6683 -3.62467e+06 -154757 -3.74621e+06 269133 -157516 195057
68 3 O 0.7596 13.1975 4.4844 -1.2 -9.47588 -3.03877e+06 -2.75742e+06 -3.08581e+06 2.21061e+06 -392027 133615
69 3 O -2.12001 12.9296 3.18632 -1.2 -9.22915 -2.5855e+06 -3.50393e+06 -668274 1.15123e+06 -210521 -1.43345e+06
70 3 O -2.16532 12.9296 5.78248 -1.2 -9.17579 -2.50983e+06 -3.68506e+06 -1.81216e+06 1.06781e+06 -26104.8 1.413e+06
71 1 Mg 1.29891 11.8725 2.9896 1.2 -7.82951 3.93977e+06 -1.55947e+06 -289711 -1.19202e+06 -1.23374e+06 -1.8675e+06
72 1 Mg 4.10033 11.8312 4.4844 1.2 -8.47827 -1.04158e+06 2.44824e+06 3.09997e+06 1.17098e+06 -218388 -183779
73 2 Si 2.27333 13.896 4.4844 2.4 -32.4012 1.08733e+07 9.01626e+06 8.15185e+06 491200 -171961 -223659
74 3 O 2.28634 15.5093 4.4844 -1.2 -9.6694 -3.8113e+06 -305995 -3.52096e+06 507307 -37556.9 35036
75 3 O -4.34533 12.922 4.4844 -1.2 -9.48104 -3.08029e+06 -2.59593e+06 -3.1654e+06 -1.54902e+06 -514854 120360
76 3 O 2.98455 13.1899 3.18632 -1.2 -9.27211 -2.65857e+06 -3.59162e+06 -607817 -943494 -173768 1.42749e+06
77 1 Mg 1.34779 11.8725 0 1.2 -5.42918 2.6827e+06 -2.87267e+06 -6.66081e+06 3.57313e+06 816425 1.55919e+06
78 3 O 2.93934 13.1899 5.78248 -1.2 -9.28762 -2.65112e+06 -3.73046e+06 -1.66844e+06 -737123 -303678 -927379
79 1 Mg -1.50344 11.9138 1.4948 1.2 -8.21963 287180 1.70696e+06 4.43231e+06 1.55479e+06 -950127 329260
80 2 Si 0.326006 9.84894 1.4948 2.4 -33.9919 7.21268e+06 1.15242e+07 1.16208e+07 -601709 120340 1.88908e+06
81 3 O 0.317364 8.23571 1.4948 -1.2 -4.8837 -246676 -668838 -3.5491e+07 -130825 1.17751e+06 4.44135e+06
82 3 O 6.94307 10.823 1.4948 -1.2 -9.73262 -4.14869e+06 -1.63372e+06 -1.32425e+06 -977950 -1.52524e+06 1.18502e+06
83 3 O -0.343122 10.5551 0.196716 -1.2 -3.80815 438953 -1.08402e+07 -3.21642e+07 2.46142e+06 -2.06393e+06 4.59819e+06
84 3 O -0.385966 10.5551 2.79288 -1.2 -9.06038 -1.61502e+06 -3.7695e+06 -2.20937e+06 -843464 93886 1.34705e+06
85 1 Mg 6.49448 14.247 0 1.2 -5.40509 3.11862e+06 -1.97887e+06 -6.8428e+06 -2.96938e+06 255165 -1.46272e+06
86 1 Mg 3.74457 18.9547 1.4948 1.2 -8.44492 -25578 1.86602e+06 4.64641e+06 -1.12277e+06 -975144 -10330.6
87 2 Si 5.55495 16.2705 1.4948 2.4 -34.077 7.56037e+06 1.15344e+07 1.14455e+07 533979 850116 -2.01051e+06
88 3 O 5.6115 17.8838 1.4948 -1.2 -5.16342 -1.44941e+06 -779935 -3.21896e+07 80916.1 -6.07807e+06 -4.35329e+06
89 3 O 1.93416 15.2965 1.4948 -1.2 -9.71512 -4.16951e+06 -1.6167e+06 -1.13931e+06 1.541e+06 -1.35108e+06 -1.12249e+06
90 3 O 4.85636 15.5644 0.196716 -1.2 -3.71959 692678 -1.32147e+07 -3.03883e+07 -3.03973e+06 -5.1261e+06 -3.84006e+06
91 1 Mg 6.44662 14.247 2.9896 1.2 -7.82764 3.93903e+06 -1.53798e+06 -293148 1.31855e+06 -1.14816e+06 1.97935e+06
92 3 O 4.81537 15.5644 2.79288 -1.2 -8.9865 -1.67404e+06 -3.89707e+06 -2.02954e+06 1.06175e+06 -77901.2 -1.34535e+06
93 1 Mg -0.948271 14.2883 4.4844 1.2 -8.52513 -1.28896e+06 2.63024e+06 3.1419e+06 -544487 -322943 -53192.2
94 2 Si -2.75928 16.9724 4.4844 2.4 -32.6814 1.07628e+07 9.22665e+06 8.53099e+06 -40918.7 53478.5 346006
95 3 O -2.81617 15.3592 4.4844 -1.2 -9.60471 -3.56938e+06 -359465 -3.69826e+06 239266 -226330 -18474.5
96 3 O 0.862762 17.9465 4.4844 -1.2 -9.33759 -3.2156e+06 -2.76656e+06 -3.1405e+06 2.12213e+06 -322388 -201570
97 3 O -2.0185 17.6786 3.18632 -1.2 -9.11821 -2.69407e+06 -3.52082e+06 -742318 1.16333e+06 -159791 -1.7171e+06
98 3 O -2.06164 17.6786 5.78248 -1.2 -9.00845 -2.64674e+06 -3.86452e+06 -1.73561e+06 1.1648e+06 -125939 1.15207e+06
99 1 Mg 1.39817 16.6215 2.9896 1.2 -7.87918 4.13156e+06 -1.4784e+06 -485131 -1.16686e+06 -1.30681e+06 -1.5134e+06
100 1 Mg 4.20062 16.5802 4.4844 1.2 -8.49958 -822914 2.68704e+06 2.67586e+06 1.14471e+06 -178403 200671
101 2 Si 2.37796 18.645 4.4844 2.4 -32.7098 1.13851e+07 8.86152e+06 8.28274e+06 768681 -234383 742550
102 3 O 2.39434 20.2583 4.4844 -1.2 -9.42811 -4.10497e+06 17445 -3.94387e+06 487576 -104586 -317905
103 3 O -4.24274 17.671 4.4844 -1.2 -9.38162 -3.29892e+06 -2.68153e+06 -3.02866e+06 -1.39073e+06 -605549 -303885
104 3 O 3.08659 17.9389 3.18632 -1.2 -9.17101 -2.8411e+06 -3.59437e+06 -627511 -941615 -57166.9 1.0373e+06
105 1 Mg 1.44478 16.6215 0 1.2 -5.56369 4.39413e+06 169003 -6.75529e+06 1.39495e+06 -66695.8 1.0439e+06
106 3 O 3.0436 17.9389 5.78248 -1.2 -9.19934 -2.96407e+06 -3.81488e+06 -1.34545e+06 -929710 -166582 -1.68905e+06
107 1 Mg -1.40524 16.6628 1.4948 1.2 -8.34389 166186 1.91274e+06 4.49899e+06 1.68962e+06 -968090 521418
108 2 Si 0.420358 14.5979 1.4948 2.4 -34.0272 7.37796e+06 1.17232e+07 1.12972e+07 -150520 515018 2.60017e+06
109 3 O 0.408732 12.9847 1.4948 -1.2 -4.90789 -352165 -880822 -3.49601e+07 233256 -2.54733e+06 4.28496e+06
110 3 O 7.03923 15.572 1.4948 -1.2 -9.73839 -4.23425e+06 -1.47631e+06 -1.14599e+06 -950517 -1.32946e+06 917530
111 3 O -0.248332 15.3041 0.196716 -1.2 -3.82355 377507 -1.27507e+07 -3.04233e+07 3.26024e+06 -5.41386e+06 3.88931e+06
112 3 O -0.289436 15.3041 2.79288 -1.2 -9.01194 -1.60268e+06 -3.98599e+06 -2.1264e+06 -846725 87545.3 1.00669e+06
113 1 Mg 6.59566 18.996 0 1.2 -5.59813 4.60657e+06 506617 -6.46372e+06 -909881 -672542 -708446
114 1 Mg 3.85574 23.7037 1.4948 1.2 -8.65381 -110196 1.82188e+06 4.97002e+06 -1.18879e+06 -921123 17615.7
115 2 Si 5.66125 21.0195 1.4948 2.4 -34.2402 8.40982e+06 1.06205e+07 1.18333e+07 171366 1.23741e+06 -1.82406e+06
116 3 O 5.72074 22.6328 1.4948 -1.2 -5.63922 -3.34069e+06 -411990 -2.75625e+07 -212731 -8.51925e+06 -3.92576e+06
117 3 O 2.03867 20.0455 1.4948 -1.2 -9.63123 -4.35587e+06 -1.15393e+06 -1.34773e+06 1.57067e+06 -1.13301e+06 -1.24011e+06
118 3 O 4.96004 20.3134 0.196716 -1.2 -3.95598 -176295 -1.44292e+07 -2.67398e+07 -3.17758e+06 -7.925e+06 -2.97757e+06
119 1 Mg 6.55057 18.996 2.9896 1.2 -7.93958 4.23739e+06 -1.6858e+06 -263777 1.28734e+06 -1.15694e+06 2.24841e+06
120 3 O 4.92172 20.3134 2.79288 -1.2 -8.82567 -1.90702e+06 -3.66234e+06 -2.32391e+06 1.09754e+06 -105917 -1.53475e+06
121 1 Mg -0.84282 19.0373 4.4844 1.2 -8.7004 -1.05947e+06 2.53398e+06 3.2807e+06 -495591 -308997 227435
122 2 Si -2.64823 21.7214 4.4844 2.4 -33.1059 1.16271e+07 8.54125e+06 9.04228e+06 45495 8075.04 487746
123 3 O -2.70847 20.1082 4.4844 -1.2 -9.40545 -3.94618e+06 -89116.8 -3.89763e+06 315689 -181948 -250484
124 3 O 0.97581 22.6955 4.4844 -1.2 -9.10525 -3.61259e+06 -2.42759e+06 -3.45273e+06 2.2301e+06 -390754 -139981
125 3 O -1.9076 22.4276 3.18632 -1.2 -8.93957 -2.97309e+06 -3.24807e+06 -1.05484e+06 1.15971e+06 -85356.4 -1.74605e+06
126 3 O -1.9475 22.4276 5.78248 -1.2 -8.73784 -3.06486e+06 -3.52399e+06 -2.17029e+06 1.10856e+06 -202225 1.10524e+06
127 1 Mg 1.50678 21.3705 2.9896 1.2 -8.03977 4.4761e+06 -1.79086e+06 -259969 -1.15808e+06 -1.28875e+06 -1.37082e+06
128 1 Mg 4.31086 21.3292 4.4844 1.2 -8.76423 -511467 2.25083e+06 3.22809e+06 1.15217e+06 -267265 301487
129 2 Si 2.49243 23.394 4.4844 2.4 -33.1521 1.19708e+07 8.35293e+06 8.91483e+06 719904 -206606 268582
130 3 O 2.51204 25.0073 4.4844 -1.2 -9.27137 -4.37388e+06 77102.2 -3.99229e+06 512036 -72232.5 -118472
131 3 O -4.13026 22.42 4.4844 -1.2 -9.17581 -3.73778e+06 -2.33636e+06 -3.24941e+06 -1.4046e+06 -495354 -254512
132 3 O 3.19799 22.6879 3.18632 -1.2 -8.98058 -3.06183e+06 -3.31891e+06 -1.04261e+06 -920436 36402 1.0814e+06
133 1 Mg 1.5501 21.3705 0 1.2 -5.72437 5.42399e+06 1.45813e+06 -6.03842e+06 -66437.5 -968130 662661
134 3 O 3.1583 22.6879 5.78248 -1.2 -8.82222 -3.22958e+06 -3.44115e+06 -2.05828e+06 -926886 -125226 -1.25527e+06
135 1 Mg -1.29822 21.4118 1.4948 1.2 -8.54862 132947 1.8258e+06 4.84278e+06 1.81199e+06 -937531 539745
136 2 Si 0.523568 19.3469 1.4948 2.4 -34.178 8.0244e+06 1.10847e+07 1.1559e+07 319542 960767 3.07474e+06
137 3 O 0.508934 17.7337 1.4948 -1.2 -5.15844 -1.48152e+06 -780673 -3.22996e+07 666003 -6.05603e+06 3.86813e+06
138 3 O 7.14425 20.321 1.4948 -1.2 -9.65495 -4.44017e+06 -1.00833e+06 -1.35045e+06 -937926 -1.08665e+06 760028
139 3 O -0.145107 20.0531 0.196716 -1.2 -4.06337 -520814 -1.41137e+07 -2.67422e+07 3.67501e+06 -8.21339e+06 2.86062e+06
140 3 O -0.183601 20.0531 2.79288 -1.2 -8.86179 -1.82931e+06 -3.81779e+06 -2.358e+06 -858157 13175.6 778136
141 1 Mg 6.70502 23.745 0 1.2 -5.79318 5.29736e+06 1.56832e+06 -5.52e+06 402714 -1.49565e+06 -343622
142 1 Mg 3.97493 28.4527 1.4948 1.2 -8.83888 -306280 1.91529e+06 5.13662e+06 -1.22764e+06 -787559 -35250.9
143 2 Si 5.77602 25.7685 1.4948 2.4 -34.33 9.39488e+06 9.75487e+06 1.19454e+07 -135658 1.57049e+06 -1.92119e+06
144 3 O 5.83821 27.3818 1.4948 -1.2 -6.3341 -5.23428e+06 -163331 -2.15694e+07 -326846 -9.3009e+06 -3.19813e+06
145 3 O 2.15175 24.7945 1.4948 -1.2 -9.52702 -4.50556e+06 -774359 -1.61053e+06 1.60756e+06 -906882 -1.13694e+06
146 3 O 5.07184 25.0624 0.196716 -1.2 -4.48616 -1.59344e+06 -1.49157e+07 -2.13656e+07 -2.77756e+06 -9.42698e+06 -1.66805e+06
147 1 Mg 6.66374 23.745 2.9896 1.2 -8.0761 4.58785e+06 -1.92463e+06 -153737 1.31002e+06 -1.19716e+06 2.18035e+06
148 3 O 5.03707 25.0624 2.79288 -1.2 -8.68526 -2.13818e+06 -3.5304e+06 -2.48984e+06 1.0964e+06 -178981 -1.42267e+06
149 1 Mg -0.727559 23.7863 4.4844 1.2 -8.90389 -777948 2.28006e+06 3.57272e+06 -513429 -282556 153369
150 2 Si -2.5277 26.4704 4.4844 2.4 -33.412 1.20755e+07 8.20767e+06 9.41901e+06 -61317.4 -91552.4 219735
151 3 O -2.59107 24.8572 4.4844 -1.2 -9.23864 -4.20955e+06 87267.7 -4.06421e+06 382102 -189173 -179828
152 3 O 1.09817 27.4445 4.4844 -1.2 -8.97733 -3.86225e+06 -2.37243e+06 -3.47702e+06 2.16567e+06 -378417 -46501.3
153 3 O -1.78784 27.1766 3.18632 -1.2 -8.80258 -3.1632e+06 -3.1299e+06 -1.2633e+06 1.16903e+06 21724.1 -1.58632e+06
154 3 O -1.82343 27.1766 5.78248 -1.2 -8.57883 -3.39538e+06 -3.2947e+06 -2.25199e+06 1.19953e+06 36940 1.44161e+06
155 1 Mg 1.62435 26.1195 2.9896 1.2 -8.15547 4.76659e+06 -1.90146e+06 -251423 -1.13135e+06 -1.34631e+06 -1.45137e+06
156 1 Mg 4.43064 26.0782 4.4844 1.2 -8.90565 -309113 2.21286e+06 3.29073e+06 1.20253e+06 -172237 221643
157 2 Si 2.61607 28.143 4.4844 2.4 -33.4334 1.23221e+07 8.21984e+06 9.14507e+06 795652 -127881 237274
158 3 O 2.63853 29.7563 4.4844 -1.2 -9.11699 -4.46742e+06 170996 -4.24956e+06 549282 -93872.9 -41489.3
159 3 O -4.00841 27.169 4.4844 -1.2 -9.02463 -3.94063e+06 -2.19401e+06 -3.44653e+06 -1.2966e+06 -462766 -160372
160 3 O 3.3182 27.4369 3.18632 -1.2 -8.84337 -3.20467e+06 -3.26011e+06 -1.25763e+06 -903447 100365 1.1478e+06
161 1 Mg 1.66335 26.1195 0 1.2 -5.89419 5.40216e+06 1.9373e+06 -5.00415e+06 -884062 -1.58839e+06 438276
162 3 O 3.28288 27.4369 5.78248 -1.2 -8.6902 -3.46837e+06 -3.4212e+06 -1.98098e+06 -912976 -205093 -1.3853e+06
163 1 Mg -1.18278 26.1608 1.4948 1.2 -8.74125 15108.5 1.86655e+06 5.03628e+06 1.8856e+06 -837432 363460
164 2 Si 0.635424 24.0959 1.4948 2.4 -34.3208 8.94357e+06 1.01534e+07 1.18675e+07 758467 1.3318e+06 3.01067e+06
165 3 O 0.617906 22.4827 1.4948 -1.2 -5.63299 -3.37101e+06 -400905 -2.76886e+07 1.00773e+06 -8.52589e+06 3.39627e+06
166 3 O 7.25781 25.07 1.4948 -1.2 -9.55678 -4.60854e+06 -640576 -1.58729e+06 -926066 -854040 814120
167 3 O -0.0337363 24.8021 0.196716 -1.2 -4.58057 -1.91994e+06 -1.48728e+07 -2.13431e+07 3.49551e+06 -9.63796e+06 1.61039e+06
168 3 O -0.0687235 24.8021 2.79288 -1.2 -8.71847 -2.07521e+06 -3.6585e+06 -2.55258e+06 -838067 -39442.5 834400
169 1 Mg 6.82195 28.494 0 1.2 -5.99727 4.96828e+06 1.9512e+06 -4.36727e+06 1.1506e+06 -1.82253e+06 -418276
170 1 Mg 4.10106 33.2017 1.4948 1.2 -8.99726 -539764 1.94288e+06 5.25581e+06 -1.2011e+06 -566497 -112786
171 2 Si 5.89839 30.5175 1.4948 2.4 -34.3382 1.04161e+07 8.85989e+06 1.19154e+07 -342342 1.64042e+06 -2.12995e+06
172 3 O 5.96289 32.1308 1.4948 -1.2 -7.0983 -6.51704e+06 95206.5 -1.56658e+07 -287745 -8.42239e+06 -2.41681e+06
173 3 O 2.27266 29.5435 1.4948 -1.2 -9.4291 -4.58197e+06 -550334 -1.8675e+06 1.65141e+06 -707677 -957499
174 3 O 5.19102 29.8114 0.196716 -1.2 -5.24023 -3.07573e+06 -1.4358e+07 -1.54308e+07 -1.93897e+06 -9.26416e+06 -164777
175 1 Mg 6.78546 28.494 2.9896 1.2 -8.17479 4.84386e+06 -2.04766e+06 -123152 1.28832e+06 -1.30101e+06 1.99118e+06
176 3 O 5.16061 29.8114 2.79288 -1.2 -8.57912 -2.32376e+06 -3.43343e+06 -2.61251e+06 1.13211e+06 -196069 -1.23976e+06
177 1 Mg -0.603205 28.5353 4.4844 1.2 -9.01407 -500534 2.18969e+06 3.55442e+06 -406507 -217403 -27433.5
178 2 Si -2.39877 31.2194 4.4844 2.4 -33.5149 1.25605e+07 8.17361e+06 9.1315e+06 23205.8 -211552 -13893.9
179 3 O -2.46483 29.6062 4.4844 -1.2 -9.14431 -4.48312e+06 153529 -4.01522e+06 394129 -58599.4 61374.8
180 3 O 1.22864 32.1935 4.4844 -1.2 -8.8814 -3.98507e+06 -2.32885e+06 -3.56314e+06 2.23724e+06 -459596 61450.9
181 3 O -1.66032 31.9256 3.18632 -1.2 -8.71535 -3.3139e+06 -3.0564e+06 -1.40743e+06 1.16581e+06 80927.5 -1.47247e+06
182 3 O -1.69072 31.9256 5.78248 -1.2 -8.62618 -3.58717e+06 -3.30787e+06 -1.74555e+06 1.23706e+06 5518.4 1.35136e+06
183 1 Mg 1.7499 30.8685 2.9896 1.2 -8.24852 4.9515e+06 -2.00416e+06 -177980 -1.11847e+06 -1.36135e+06 -1.56773e+06
184 1 Mg 4.55894 30.8272 4.4844 1.2 -9.03553 -227306 2.17209e+06 3.4587e+06 1.19177e+06 -249718 44784.6
185 2 Si 2.7476 32.892 4.4844 2.4 -33.645 1.23546e+07 8.18129e+06 9.49063e+06 815383 -92842.1 36997.6
186 3 O 2.77235 34.5053 4.4844 -1.2 -9.03155 -4.51576e+06 301614 -4.4727e+06 567914 -95555.9 -14500.2
187 3 O -3.87837 31.918 4.4844 -1.2 -8.96437 -4.12357e+06 -2.19806e+06 -3.36279e+06 -1.31538e+06 -296315 -78051.9
188 3 O 3.44611 32.1859 3.18632 -1.2 -8.72924 -3.23451e+06 -3.19827e+06 -1.56625e+06 -886263 188892 1.26781e+06
189 1 Mg 1.7837 30.8685 0 1.2 -6.10104 4.58899e+06 1.93661e+06 -3.91943e+06 -1.35489e+06 -1.52837e+06 333966
190 3 O 3.41602 32.1859 5.78248 -1.2 -8.53363 -3.38655e+06 -3.58117e+06 -2.10692e+06 -962343 -98207.8 -1.21525e+06
191 1 Mg -1.05984 30.9098 1.4948 1.2 -8.90665 -162861 1.93287e+06 5.11115e+06 1.90771e+06 -608712 100770
192 2 Si 0.755243 28.8449 1.4948 2.4 -34.357 9.96027e+06 9.32797e+06 1.1819e+07 1.15805e+06 1.60378e+06 2.60005e+06
193 3 O 0.735127 27.2317 1.4948 -1.2 -6.33164 -5.29101e+06 -158648 -2.16591e+07 1.16292e+06 -9.30787e+06 2.91113e+06
194 3 O 7.37914 29.819 1.4948 -1.2 -9.46536 -4.71069e+06 -425383 -1.81456e+06 -927110 -618690 1.01056e+06
195 3 O 0.0850649 29.5511 0.196716 -1.2 -5.31503 -3.34245e+06 -1.47149e+07 -1.53346e+07 2.7046e+06 -9.45426e+06 461885
196 3 O 0.0543974 29.5511 2.79288 -1.2 -8.62391 -2.31937e+06 -3.57309e+06 -2.59838e+06 -860626 -147677 954534
197 1 Mg 6.94543 33.243 0 1.2 -6.23871 4.0311e+06 1.81354e+06 -3.23207e+06 1.58592e+06 -1.46025e+06 -803376
198 1 Mg 4.23267 37.9507 1.4948 1.2 -9.06491 -807170 2.05197e+06 5.108e+06 -1.12576e+06 -239505 -183309
199 2 Si 6.02709 35.2665 1.4948 2.4 -34.2737 1.13427e+07 7.79462e+06 1.20005e+07 -408353 1.52883e+06 -2.09579e+06
200 3 O 6.09339 36.8798 1.4948 -1.2 -7.82102 -6.84516e+06 305137 -1.08828e+07 -144053 -6.58202e+06 -1.81178e+06
201 3 O 2.40018 34.2925 1.4948 -1.2 -9.33252 -4.61743e+06 -343307 -2.24596e+06 1.69193e+06 -529143 -821936
202 3 O 5.31645 34.5604 0.196716 -1.2 -6.07223 -4.23468e+06 -1.25473e+07 -1.03128e+07 -954596 -7.79259e+06 1.09528e+06
203 1 Mg 6.91449 33.243 2.9896 1.2 -8.23292 5.03559e+06 -2.17761e+06 -83575.8 1.30123e+06 -1.42439e+06 1.91384e+06
204 3 O 5.291 34.5604 2.79288 -1.2 -8.51812 -2.49801e+06 -3.2469e+06 -2.7579e+06 1.11978e+06 -222911 -1.14991e+06
205 1 Mg -0.471101 33.2843 4.4844 1.2 -9.06544 -334074 2.06627e+06 3.58608e+06 -453441 -126053 -6971.57
206 2 Si -2.26307 35.9684 4.4844 2.4 -33.6342 1.27497e+07 7.66968e+06 9.64398e+06 88227.6 -341162 -152761
207 3 O -2.33122 34.3552 4.4844 -1.2 -9.08761 -4.60881e+06 369367 -4.19004e+06 429803 20736.5 5580.67
208 3 O 1.36549 36.9425 4.4844 -1.2 -8.85445 -4.07045e+06 -2.14387e+06 -3.71041e+06 2.32661e+06 -418658 217120
209 3 O -1.52658 36.6746 3.18632 -1.2 -8.66026 -3.32183e+06 -2.92569e+06 -1.7122e+06 1.15185e+06 141230 -1.36171e+06
210 3 O -1.55122 36.6746 5.78248 -1.2 -8.55006 -3.74104e+06 -3.01315e+06 -2.03218e+06 1.18333e+06 71368.5 1.52497e+06
211 1 Mg 1.882 35.6175 2.9896 1.2 -8.29582 5.07505e+06 -2.16653e+06 -53266.7 -1.12073e+06 -1.43123e+06 -1.64695e+06
212 1 Mg 4.69415 35.5762 4.4844 1.2 -9.11115 -156798 1.9248e+06 3.75794e+06 1.24955e+06 -193755 -10999.4
213 2 Si 2.88522 37.641 4.4844 2.4 -33.6528 1.24103e+07 7.85958e+06 9.77128e+06 708884 -68978.8 -497121
214 3 O 2.91159 39.2543 4.4844 -1.2 -9.11136 -4.47011e+06 222503 -4.30919e+06 657918 -17373.9 277149
215 3 O -3.74183 36.667 4.4844 -1.2 -8.91292 -4.19782e+06 -1.95677e+06 -3.61051e+06 -1.3448e+06 -201732 74434.9
216 3 O 3.58014 36.9349 3.18632 -1.2 -8.68185 -3.22741e+06 -3.07681e+06 -1.87549e+06 -860215 224078 1.41085e+06
217 1 Mg 1.90997 35.6175 0 1.2 -6.30988 3.49674e+06 1.64625e+06 -3.18077e+06 -1.65343e+06 -759404 695618
218 3 O 3.55582 36.9349 5.78248 -1.2 -8.46619 -3.47031e+06 -3.18796e+06 -2.46315e+06 -952523 -131884 -987518
219 1 Mg -0.93068 35.6588 1.4948 1.2 -9.02584 -384253 1.92461e+06 5.13968e+06 1.85373e+06 -296591 -28575.9
220 2 Si 0.881882 33.5939 1.4948 2.4 -34.3315 1.09685e+07 8.27807e+06 1.18908e+07 1.40829e+06 1.70277e+06 2.12296e+06
221 3 O 0.859602 31.9807 1.4948 -1.2 -7.09614 -6.59015e+06 105943 -1.57509e+07 1.15699e+06 -8.50428e+06 2.47497e+06
222 3 O 7.507 34.568 1.4948 -1.2 -9.37342 -4.74867e+06 -220776 -2.19529e+06 -930830 -410325 1.12451e+06
223 3 O 0.210186 34.3001 0.196716 -1.2 -6.1144 -4.40747e+06 -1.32597e+07 -1.02093e+07 1.53677e+06 -7.98778e+06 -580982
224 3 O 0.184454 34.3001 2.79288 -1.2 -8.56824 -2.52885e+06 -3.39896e+06 -2.70014e+06 -841821 -225593 998482
225 1 Mg 7.07415 37.992 0 1.2 -6.40309 2.93468e+06 1.63701e+06 -2.84503e+06 1.86647e+06 -408643 -1.37335e+06
226 1 Mg 4.36817 42.6997 1.4948 1.2 -9.01295 -1.06509e+06 2.33594e+06 4.61682e+06 -1.00264e+06 117582 -134421
227 2 Si 6.16058 40.0155 1.4948 2.4 -34.0308 1.18769e+07 7.34364e+06 1.15355e+07 -359313 1.33478e+06 -1.99812e+06
228 3 O 6.22815 41.6288 1.4948 -1.2 -8.46932 -6.32668e+06 186002 -7.33454e+06 27080.9 -4.53995e+06 -1.41799e+06
229 3 O 2.53282 39.0415 1.4948 -1.2 -9.29895 -4.51677e+06 -449836 -2.45388e+06 1.72691e+06 -338356 -726361
230 3 O 5.44674 39.3094 0.196716 -1.2 -6.92713 -4.71602e+06 -1.02042e+07 -6.36436e+06 -135904 -5.76719e+06 1.96631e+06
231 1 Mg 7.04922 37.992 2.9896 1.2 -8.23493 5.064e+06 -2.22558e+06 -49860.4 1.3252e+06 -1.50847e+06 1.7494e+06
232 3 O 5.42658 39.3094 2.79288 -1.2 -8.56422 -2.5826e+06 -3.2779e+06 -2.59895e+06 1.11743e+06 -287002 -975962
233 1 Mg -0.333062 38.0333 4.4844 1.2 -9.0691 -375134 2.01753e+06 3.67809e+06 -452006 -90019 -153374
234 2 Si -2.12255 40.7174 4.4844 2.4 -33.4886 1.22472e+07 8.12996e+06 9.4574e+06 196250 -75881.1 -318439
235 3 O -2.19212 39.1042 4.4844 -1.2 -9.11441 -4.4897e+06 278881 -4.17299e+06 361579 -1380.58 190054
236 3 O 1.50676 41.6915 4.4844 -1.2 -8.97761 -3.86678e+06 -2.38144e+06 -3.47523e+06 2.30841e+06 -191764 195939
237 3 O -1.3884 41.4236 3.18632 -1.2 -8.70932 -3.07413e+06 -3.14414e+06 -1.7665e+06 1.13665e+06 121207 -1.30523e+06
238 3 O -1.40713 41.4236 5.78248 -1.2 -8.61716 -3.22908e+06 -3.30011e+06 -2.11888e+06 1.18946e+06 -40567 1.54897e+06
239 1 Mg 2.01892 40.3665 2.9896 1.2 -8.23215 4.9993e+06 -2.00028e+06 -232546 -1.11961e+06 -1.60294e+06 -1.72709e+06
240 1 Mg 4.83434 40.3252 4.4844 1.2 -8.98767 -222125 2.15647e+06 3.39372e+06 1.24656e+06 -106316 -239535
241 2 Si 3.02698 42.39 4.4844 2.4 -33.3634 1.20598e+07 8.32945e+06 9.19195e+06 762380 -273610 -254383
242 3 O 3.05433 44.0033 4.4844 -1.2 -9.24488 -4.26774e+06 77182.5 -4.15178e+06 625808 50363.1 131272
243 3 O -3.60077 41.416 4.4844 -1.2 -9.03891 -4.07789e+06 -2.23437e+06 -3.25698e+06 -1.3404e+06 -295325 130850
244 3 O 3.71851 41.6839 3.18632 -1.2 -8.76227 -3.07631e+06 -3.31665e+06 -1.768e+06 -835047 264811 1.38995e+06
245 1 Mg 2.04077 40.3665 0 1.2 -6.40003 2.47549e+06 1.5738e+06 -3.36382e+06 -1.83641e+06 403802 1.40579e+06
246 3 O 3.70011 41.6839 5.78248 -1.2 -8.73044 -3.24017e+06 -3.5473e+06 -1.8549e+06 -873687 35551.8 -1.14168e+06
247 1 Mg -0.796865 40.4078 1.4948 1.2 -9.02393 -670669 2.17492e+06 4.78107e+06 1.75523e+06 47691.2 -111656
248 2 Si 1.01387 38.3429 1.4948 2.4 -34.1578 1.1661e+07 7.56178e+06 1.16716e+07 1.52192e+06 1.48365e+06 1.67394e+06
249 3 O 0.989947 36.7297 1.4948 -1.2 -7.81902 -6.93862e+06 311745 -1.09513e+07 1.04029e+06 -6.66179e+06 2.06513e+06
250 3 O 7.63988 39.317 1.4948 -1.2 -9.34387 -4.634e+06 -360405 -2.39112e+06 -940305 -267134 1.2272e+06
251 3 O 0.340253 39.0491 0.196716 -1.2 -6.94095 -4.83541e+06 -1.11043e+07 -6.27836e+06 373948 -5.86847e+06 -1.39172e+06
252 3 O 0.319795 39.0491 2.79288 -1.2 -8.602 -2.58091e+06 -3.41599e+06 -2.61472e+06 -838644 -215873 1.08353e+06
253 1 Mg 7.20667 42.741 0 1.2 -6.43273 2.09039e+06 1.60586e+06 -3.38582e+06 1.99855e+06 948565 -2.24854e+06
254 1 Mg 4.50613 47.4487 1.4948 1.2 -8.88872 -1.21122e+06 2.67173e+06 4.02492e+06 -858664 420461 156188
255 2 Si 6.29731 44.7645 1.4948 2.4 -33.7032 1.20306e+07 7.1309e+06 1.10466e+07 -224035 976680 -1.5561e+06
256 3 O 6.36567 46.3778 1.4948 -1.2 -8.97222 -5.40003e+06 -6940.23 -5.16141e+06 178323 -2.74134e+06 -1.37746e+06
257 3 O 2.669 43.7905 1.4948 -1.2 -9.31525 -4.28453e+06 -791608 -2.58809e+06 1.73044e+06 -175868 -810937
258 3 O 5.58048 44.0584 0.196716 -1.2 -7.68977 -4.5868e+06 -7.6985e+06 -3.81326e+06 320174 -3.74264e+06 2.4675e+06
259 1 Mg 7.1879 42.741 2.9896 1.2 -8.1421 4.91171e+06 -1.99461e+06 -263950 1.29683e+06 -1.54331e+06 1.77415e+06
260 3 O 5.56564 44.0584 2.79288 -1.2 -8.68911 -2.58583e+06 -3.41082e+06 -2.28613e+06 1.13063e+06 -308363 -1.06904e+06
261 1 Mg -0.19105 42.7823 4.4844 1.2 -8.96626 -679981 2.25257e+06 3.58054e+06 -422357 -85892.6 -140713
262 2 Si -1.97909 45.4664 4.4844 2.4 -33.2258 1.16258e+07 8.62259e+06 9.17218e+06 232404 17189.4 -91717.7
263 3 O -2.04947 43.8532 4.4844 -1.2 -9.23151 -4.18773e+06 34747.8 -4.03586e+06 415866 -51465.8 114825
264 3 O 1.65063 46.4405 4.4844 -1.2 -9.1285 -3.62498e+06 -2.6913e+06 -3.16888e+06 2.35621e+06 -54787.2 38941.5
265 3 O -1.24745 46.1726 3.18632 -1.2 -8.80916 -2.77894e+06 -3.41882e+06 -1.72877e+06 1.11834e+06 70336.4 -1.44516e+06
266 3 O -1.26044 46.1726 5.78248 -1.2 -8.75764 -2.73506e+06 -3.62154e+06 -2.07568e+06 1.09117e+06 -18388.7 1.3747e+06
267 1 Mg 2.15896 45.1155 2.9896 1.2 -8.12435 4.79812e+06 -1.76291e+06 -425745 -1.09546e+06 -1.7365e+06 -1.60033e+06
268 1 Mg 4.97763 45.0742 4.4844 1.2 -8.83957 -359987 2.25374e+06 3.19828e+06 1.25387e+06 -60589.5 -128883
269 2 Si 3.1711 47.139 4.4844 2.4 -33.0169 1.15671e+07 8.99126e+06 8.4677e+06 669536 -367152 22828.5