ITEM: TIMESTEP
5500
ITEM: NUMBER OF ATOMS
10500
ITEM: BOX BOUNDS xy xz yz pp pp pp
0.0000000000000000e+00 1.5297450000000000e+01 5.0990000000000002e+00
0.0000000000000000e+00 1.1872499999999999e+02 0.0000000000000000e+00
0.0000000000000000e+00 8.9688000000000002e+01 0.0000000000000000e+00
ITEM: ATOMS id type element xu yu zu q c_pe c_s[1] c_s[2] c_s[3] c_s[4] c_s[5] c_s[6]
1 1 Mg 6.2404 -6.37941e-06 0 1.2 -4.0644 7.2814e+06 -1.61833e+06 -6.41216e+06 -26836.1 2.65841e+06 -202928
2 1 Mg 3.46349 4.70768 1.4948 1.2 -8.3196 -646829 2.5477e+06 4.52468e+06 -957469 -604437 74319.6
3 2 Si 5.2885 2.02354 1.4948 2.4 -34.6876 8.94786e+06 1.13872e+07 1.10331e+07 8.86315e+06 685334 -2.8905e+06
4 3 O 5.33628 3.63678 1.4948 -1.2 -4.94201 -415721 -1.457e+06 -3.37071e+07 -340825 3.81325e+06 -3.93475e+06
5 3 O 1.67294 1.04952 1.4948 -1.2 -1.36716 -1.98115e+07 -7.97244e+07 -1.7998e+06 -2.41303e+07 -143763 -172016
6 3 O 4.59532 1.31737 0.196716 -1.2 -3.36812 -1.31201e+06 -6.87905e+06 -3.03919e+07 -6.02292e+06 6.22769e+06 -2.67015e+06
7 1 Mg 6.18956 -6.37941e-06 2.9896 1.2 -4.62767 1.00364e+06 -2.77523e+07 -3.38144e+06 -8.86358e+06 2.38641e+06 4.14134e+06
8 3 O 4.55118 1.31737 2.79288 -1.2 -7.76551 694592 -5.05782e+06 -2.935e+06 -2.95944e+06 -3.40437e+06 -1.28088e+06
9 1 Mg -1.20682 0.0413099 4.4844 1.2 9.29779 -3.11102e+07 -9.28673e+07 -1.04754e+06 -2.85355e+07 -1.33927e+06 224975
10 2 Si -3.0337 2.72544 4.4844 2.4 -32.7294 1.37758e+07 7.3155e+06 7.71936e+06 1.75105e+06 -188774 81087.5
11 3 O -3.08099 1.11221 4.4844 -1.2 -9.89571 -5.70787e+06 -408655 -1.73772e+06 -1.21491e+06 -32809.6 3976.84
12 3 O 0.582463 3.69946 4.4844 -1.2 -9.11231 -3.15283e+06 -5.41111e+06 -2.79739e+06 -512588 -226367 -544334
13 3 O -2.29524 3.43162 3.18632 -1.2 -9.24647 -3.9932e+06 -2.54381e+06 -484761 1.04922e+06 -769412 -1.18084e+06
14 3 O -2.34216 3.43162 5.78248 -1.2 -9.01009 -3.79858e+06 -3.07357e+06 -1.5797e+06 591171 679323 804371
15 1 Mg 1.12778 2.37449 2.9896 1.2 -7.35608 4.83605e+06 -1.42765e+06 -942839 -3.3026e+06 -4.11719e+06 -2.01091e+06
16 1 Mg 3.92855 2.33318 4.4844 1.2 -8.30513 -4.68199e+06 5.25818e+06 4.75775e+06 1.36258e+06 357732 795677
17 2 Si 2.09341 4.39804 4.4844 2.4 -32.2906 1.17735e+07 6.43361e+06 9.46117e+06 4340.83 -51458.2 1.19586e+06
18 3 O 2.09991 6.01128 4.4844 -1.2 -9.40835 -4.10546e+06 533333 -4.50041e+06 641895 -190761 -200240
19 3 O -4.52137 3.42402 4.4844 -1.2 -9.28603 -2.60622e+06 -2.95414e+06 -3.65148e+06 -2.44889e+06 -765839 -250193
20 3 O 2.80834 3.69187 3.18632 -1.2 -9.47426 -1.80582e+06 -2.82543e+06 -506586 500970 -550773 -703836
21 1 Mg 1.17857 2.37449 0 1.2 -4.79172 -1.1365e+06 -1.47168e+07 -6.55306e+06 6.51025e+06 1.15953e+06 4.54188e+06
22 3 O 2.76143 3.69187 5.78248 -1.2 -9.36328 -2.52221e+06 -2.49805e+06 -1.46859e+06 668349 -158715 -532083
23 1 Mg -1.67381 2.41581 1.4948 1.2 -7.29327 1.17714e+06 -69175 3.84335e+06 1.36823e+06 -604326 1.10948e+06
24 2 Si 0.16286 0.350945 1.4948 2.4 -23.8732 -9.14917e+06 1.31057e+07 1.05905e+07 1.591e+06 2.84132e+06 1.30762e+06
25 3 O 0.15972 -1.26229 1.4948 -1.2 -5.11785 -1.01669e+07 -8.37016e+06 -2.85365e+07 -5.60463e+06 -8.53334e+06 -2.61978e+06
26 3 O 6.77654 1.32496 1.4948 -1.2 -10.6666 -5.23881e+06 1.50852e+06 -1.1249e+06 -645082 -628207 984579
27 3 O -0.508028 1.05712 0.196716 -1.2 -9.8955 599351 -4.8846e+06 -391518 -555121 210414 -4.55222e+06
28 3 O -0.552171 1.05712 2.79288 -1.2 -7.11571 -4.9575e+06 -4.96257e+06 -2.4162e+07 1.42052e+06 -6.77943e+06 -5.67281e+06
29 1 Mg 6.31713 4.74899 0 1.2 -4.69379 8856.25 -1.30761e+07 -5.96473e+06 -7.27848e+06 1.46229e+06 -3.71693e+06
30 1 Mg 3.54847 9.45668 1.4948 1.2 -8.43795 465501 839137 5.28915e+06 -946731 -888487 -884503
31 2 Si 5.36879 6.77254 1.4948 2.4 -34.2015 7.1705e+06 1.11105e+07 1.24641e+07 1.70924e+06 194590 -2.33107e+06
32 3 O 5.41937 8.38578 1.4948 -1.2 -4.71398 -431451 -216936 -3.59016e+07 740500 1.0656e+06 -3.83348e+06
33 3 O 1.75158 5.79852 1.4948 -1.2 -9.60063 -3.80527e+06 -2.03034e+06 -1.79454e+06 2.00212e+06 -1.59648e+06 -1.24841e+06
34 3 O 4.67421 6.06637 0.196716 -1.2 -3.93363 411695 -9.7842e+06 -3.18049e+07 -2.00587e+06 1.24893e+06 -4.24066e+06
35 1 Mg 6.26654 4.74899 2.9896 1.2 -7.93467 3.96738e+06 -1.85276e+06 168082 1.84327e+06 -884411 2.0463e+06
36 3 O 4.63043 6.06637 2.79288 -1.2 -8.86136 -1.56738e+06 -3.56123e+06 -2.62898e+06 920034 -111285 -1.41901e+06
37 1 Mg -1.12976 4.79031 4.4844 1.2 -8.74452 -576384 2.45502e+06 3.00128e+06 -649556 -412857 220106
38 2 Si -2.9517 7.47444 4.4844 2.4 -33.2058 1.19228e+07 7.49288e+06 9.94242e+06 238338 83094.1 -85993.9
39 3 O -3.00198 5.86121 4.4844 -1.2 -9.3953 -4.15883e+06 292342 -4.09459e+06 -40937 -207523 -88297.2
40 3 O 0.666315 8.44846 4.4844 -1.2 -9.01308 -3.74925e+06 -1.69163e+06 -4.1909e+06 2.25142e+06 -355840 274550
41 3 O -2.21213 8.18062 3.18632 -1.2 -8.94364 -3.15082e+06 -2.60269e+06 -1.45818e+06 1.08766e+06 -319676 -1.22509e+06
42 3 O -2.25864 8.18062 5.78248 -1.2 -8.65037 -3.36959e+06 -2.81412e+06 -2.6256e+06 1.00914e+06 -275228 1.17829e+06
43 1 Mg 1.20893 7.12349 2.9896 1.2 -8.0636 4.22098e+06 -2.24106e+06 488945 -1.34178e+06 -1.35109e+06 -1.81512e+06
44 1 Mg 4.00982 7.08218 4.4844 1.2 -8.83685 -592269 1.86251e+06 3.8093e+06 1.04131e+06 -271894 -31712
45 2 Si 2.17861 9.14704 4.4844 2.4 -33.4004 1.23412e+07 6.83617e+06 1.04602e+07 453438 -272906 -805411
46 3 O 2.18828 10.7603 4.4844 -1.2 -9.10655 -4.70268e+06 1.05414e+06 -4.90165e+06 467275 -53351.5 737744
47 3 O -4.43805 8.17302 4.4844 -1.2 -9.07296 -3.768e+06 -1.79518e+06 -3.9391e+06 -1.66701e+06 -557634 143920
48 3 O 2.89193 8.44087 3.18632 -1.2 -8.94789 -3.09055e+06 -2.73332e+06 -1.53377e+06 -907786 -218788 1.62971e+06
49 1 Mg 1.25915 7.12349 0 1.2 -5.20575 728580 -8.09156e+06 -5.7447e+06 5.8684e+06 1.35955e+06 2.24677e+06
50 3 O 2.84547 8.44087 5.78248 -1.2 -8.67826 -3.58142e+06 -2.80087e+06 -2.53254e+06 -796857 -67643.7 -840433
51 1 Mg -1.59284 7.16481 1.4948 1.2 -8.22353 794415 802914 4.85151e+06 1.4673e+06 -941796 105710
52 2 Si 0.240329 5.09994 1.4948 2.4 -33.7689 7.8609e+06 1.04704e+07 1.17212e+07 -1.98953e+06 -1.08764e+06 1.88809e+06
53 3 O 0.234538 3.48671 1.4948 -1.2 -5.46071 -1.44676e+06 388168 -3.37266e+07 406806 5.18823e+06 3.89094e+06
54 3 O 6.85564 6.07396 1.4948 -1.2 -9.6731 -4.29728e+06 -1.44266e+06 -1.73641e+06 -1.37663e+06 -1.82996e+06 1.27596e+06
55 3 O -0.429565 5.80612 0.196716 -1.2 -4.20105 -404000 -8.44567e+06 -3.18556e+07 1.84591e+06 1.24367e+06 4.77928e+06
56 3 O -0.473377 5.80612 2.79288 -1.2 -8.97694 -2.11356e+06 -3.15519e+06 -2.405e+06 -768971 313283 1.2705e+06
57 1 Mg 6.40169 9.49799 0 1.2 -5.28444 1.64241e+06 -7.29748e+06 -5.81359e+06 -5.48318e+06 1.00936e+06 -3.09052e+06
58 1 Mg 3.64209 14.2057 1.4948 1.2 -8.72219 747203 452401 5.8087e+06 -1.02476e+06 -938480 -1.31214e+06
59 2 Si 5.45748 11.5215 1.4948 2.4 -34.6964 8.2997e+06 9.38972e+06 1.38245e+07 926497 477270 -3.80752e+06
60 3 O 5.51101 13.1348 1.4948 -1.2 -4.50664 -982217 418108 -3.61381e+07 461122 -2.60702e+06 -3.36665e+06
61 3 O 1.83851 10.5475 1.4948 -1.2 -9.40831 -4.49269e+06 -818282 -2.35634e+06 1.54368e+06 -1.55378e+06 -382151
62 3 O 4.7611 10.8154 0.196716 -1.2 -3.52315 373475 -1.04145e+07 -3.30169e+07 -2.4899e+06 -1.8254e+06 -3.49105e+06
63 1 Mg 6.35203 9.49799 2.9896 1.2 -8.18486 4.44139e+06 -2.58028e+06 820099 1.35859e+06 -1.10938e+06 1.53159e+06
64 3 O 4.71833 10.8154 2.79288 -1.2 -8.61537 -2.31106e+06 -2.6534e+06 -3.20002e+06 1.01484e+06 -58661.1 -593989
65 1 Mg -1.0438 9.53931 4.4844 1.2 -9.02575 -479997 1.40999e+06 4.36193e+06 -647710 -357301 -403994
66 2 Si -2.8604 12.2234 4.4844 2.4 -33.8382 1.2383e+07 6.42648e+06 1.15624e+07 -77425 200010 -1.81606e+06
67 3 O -2.91391 10.6102 4.4844 -1.2 -9.0558 -4.40373e+06 1.01936e+06 -5.13202e+06 204948 -323237 561799
68 3 O 0.7596 13.1975 4.4844 -1.2 -8.79705 -4.15268e+06 -1.42671e+06 -4.41249e+06 2.14367e+06 -226589 1.1454e+06
69 3 O -2.12001 12.9296 3.18632 -1.2 -8.67409 -3.38148e+06 -2.20338e+06 -2.06528e+06 1.17566e+06 -222305 -536535
70 3 O -2.16532 12.9296 5.78248 -1.2 -8.28166 -3.46361e+06 -2.5673e+06 -3.34748e+06 1.19033e+06 -164725 2.50299e+06
71 1 Mg 1.29891 11.8725 2.9896 1.2 -8.31411 4.73638e+06 -2.77907e+06 909590 -1.1906e+06 -1.32913e+06 -2.563e+06
72 1 Mg 4.10033 11.8312 4.4844 1.2 -9.07502 149874 1.24294e+06 4.06885e+06 1.17463e+06 -159546 -836110
73 2 Si 2.27333 13.896 4.4844 2.4 -33.7348 1.32692e+07 6.47812e+06 1.04208e+07 752658 -264545 -2.17783e+06
74 3 O 2.28634 15.5093 4.4844 -1.2 -8.97866 -4.98427e+06 983758 -4.75951e+06 447805 -117949 1.07608e+06
75 3 O -4.34533 12.922 4.4844 -1.2 -8.81395 -4.16353e+06 -1.36024e+06 -4.39543e+06 -1.47602e+06 -735006 944976
76 3 O 2.98455 13.1899 3.18632 -1.2 -8.73078 -3.60247e+06 -2.29528e+06 -1.83338e+06 -975118 -160217 2.3001e+06
77 1 Mg 1.34779 11.8725 0 1.2 -5.6759 3.02391e+06 -4.01167e+06 -5.46777e+06 3.57055e+06 774132 726293
78 3 O 2.93934 13.1899 5.78248 -1.2 -8.54138 -4.21952e+06 -2.53608e+06 -2.36572e+06 -996161 -110988 13611.7
79 1 Mg -1.50344 11.9138 1.4948 1.2 -8.57932 850794 518249 5.63366e+06 1.54353e+06 -980243 -447384
80 2 Si 0.326006 9.84894 1.4948 2.4 -34.4991 7.98862e+06 9.79329e+06 1.33884e+07 -652004 1860.02 1.07502e+06
81 3 O 0.317364 8.23571 1.4948 -1.2 -4.7198 -501448 -82508.2 -3.6086e+07 -98591.4 1.21677e+06 4.56521e+06
82 3 O 6.94307 10.823 1.4948 -1.2 -9.4298 -4.64764e+06 -609689 -2.33508e+06 -987417 -1.55866e+06 1.78369e+06
83 3 O -0.343122 10.5551 0.196716 -1.2 -3.62696 159601 -9.89966e+06 -3.31162e+07 2.48298e+06 -1.98251e+06 5.23582e+06
84 3 O -0.385966 10.5551 2.79288 -1.2 -8.64948 -2.23653e+06 -2.71373e+06 -3.30529e+06 -822169 173472 1.77555e+06
85 1 Mg 6.49448 14.247 0 1.2 -5.75779 3.70639e+06 -3.42724e+06 -5.41715e+06 -2.97106e+06 290036 -2.55335e+06
86 1 Mg 3.74457 18.9547 1.4948 1.2 -8.92329 730408 413626 6.10932e+06 -1.13164e+06 -963917 -1.19156e+06
87 2 Si 5.55495 16.2705 1.4948 2.4 -35.0492 9.10958e+06 8.55835e+06 1.443e+07 513660 897236 -4.36725e+06
88 3 O 5.6115 17.8838 1.4948 -1.2 -4.67594 -2.2351e+06 700469 -3.3665e+07 84160 -6.09708e+06 -3.146e+06
89 3 O 1.93416 15.2965 1.4948 -1.2 -9.24473 -4.92495e+06 -173201 -2.58151e+06 1.53086e+06 -1.34178e+06 -5471.07
90 3 O 4.85636 15.5644 0.196716 -1.2 -3.31059 49570.2 -1.17048e+07 -3.191e+07 -3.03701e+06 -5.15792e+06 -2.69246e+06
91 1 Mg 6.44662 14.247 2.9896 1.2 -8.39168 4.80848e+06 -2.90319e+06 1.10637e+06 1.277e+06 -1.093e+06 956801
92 3 O 4.81537 15.5644 2.79288 -1.2 -8.42133 -2.57364e+06 -2.47112e+06 -3.46022e+06 1.08631e+06 -115136 -228384
93 1 Mg -0.948271 14.2883 4.4844 1.2 -9.22064 -269715 1.35856e+06 4.50717e+06 -559563 -472093 -1.20384e+06
94 2 Si -2.75928 16.9724 4.4844 2.4 -34.0286 1.28249e+07 6.75222e+06 1.11032e+07 34912.3 20328.7 -2.24505e+06
95 3 O -2.81617 15.3592 4.4844 -1.2 -8.89235 -4.58895e+06 950369 -5.13287e+06 299932 -226624 1.16241e+06
96 3 O 0.862762 17.9465 4.4844 -1.2 -8.69585 -4.26965e+06 -1.53667e+06 -4.34546e+06 2.14944e+06 -346430 934043
97 3 O -2.0185 17.6786 3.18632 -1.2 -8.55067 -3.59766e+06 -2.19333e+06 -2.07489e+06 1.13182e+06 -150989 -495241
98 3 O -2.06164 17.6786 5.78248 -1.2 -8.28887 -3.69074e+06 -2.92491e+06 -2.75001e+06 968012 -141112 2.46605e+06
99 1 Mg 1.39817 16.6215 2.9896 1.2 -8.44888 5.06936e+06 -2.86819e+06 879509 -1.15777e+06 -1.29799e+06 -2.67428e+06
100 1 Mg 4.20062 16.5802 4.4844 1.2 -9.21317 283741 1.32856e+06 4.07395e+06 1.07072e+06 -152449 -1.00727e+06
101 2 Si 2.37796 18.645 4.4844 2.4 -33.9676 1.33466e+07 6.49681e+06 1.07021e+07 603969 -307043 -1.70679e+06
102 3 O 2.39434 20.2583 4.4844 -1.2 -8.88763 -4.98007e+06 1.07414e+06 -4.98725e+06 510657 -15921 845305
103 3 O -4.24274 17.671 4.4844 -1.2 -8.725 -4.36631e+06 -1.47113e+06 -4.21908e+06 -1.39789e+06 -605648 1.02314e+06
104 3 O 3.08659 17.9389 3.18632 -1.2 -8.59899 -3.74767e+06 -2.2394e+06 -1.99147e+06 -909522 -58736.7 2.25982e+06
105 1 Mg 1.44478 16.6215 0 1.2 -5.98695 5.051e+06 -1.36815e+06 -5.19687e+06 1.39603e+06 -92008.6 -150565
106 3 O 3.0436 17.9389 5.78248 -1.2 -8.4008 -4.13215e+06 -2.76361e+06 -2.5307e+06 -736098 -66894 -304922
107 1 Mg -1.40524 16.6628 1.4948 1.2 -8.82848 952933 434426 5.96689e+06 1.69959e+06 -987870 -673325
108 2 Si 0.420358 14.5979 1.4948 2.4 -34.9354 8.8414e+06 8.90012e+06 1.41118e+07 -131699 436829 432274
109 3 O 0.408732 12.9847 1.4948 -1.2 -4.50322 -991942 417479 -3.6268e+07 232579 -2.49182e+06 5.20468e+06
110 3 O 7.03923 15.572 1.4948 -1.2 -9.26263 -4.9955e+06 -7504.92 -2.61581e+06 -942409 -1.33944e+06 2.07179e+06
111 3 O -0.248332 15.3041 0.196716 -1.2 -3.42613 -270891 -1.12631e+07 -3.18992e+07 3.2598e+06 -5.38118e+06 5.03149e+06
112 3 O -0.289436 15.3041 2.79288 -1.2 -8.45906 -2.49841e+06 -2.60514e+06 -3.5004e+06 -868941 139772 2.14968e+06
113 1 Mg 6.59566 18.996 0 1.2 -6.032 5.34391e+06 -1.07345e+06 -4.92588e+06 -906070 -647884 -1.85764e+06
114 1 Mg 3.85574 23.7037 1.4948 1.2 -8.98642 422480 694966 6.09719e+06 -1.18778e+06 -909760 -751733
115 2 Si 5.66125 21.0195 1.4948 2.4 -35.0969 9.82011e+06 7.93709e+06 1.4479e+07 180646 1.29674e+06 -3.89779e+06
116 3 O 5.72074 22.6328 1.4948 -1.2 -5.26528 -3.95644e+06 811857 -2.87693e+07 -213903 -8.55062e+06 -3.04073e+06
117 3 O 2.03867 20.0455 1.4948 -1.2 -9.17289 -5.06913e+06 254137 -2.77648e+06 1.57783e+06 -1.11866e+06 -122694
118 3 O 4.96004 20.3134 0.196716 -1.2 -3.52818 -869034 -1.29109e+07 -2.82504e+07 -3.17737e+06 -7.9699e+06 -1.90774e+06
119 1 Mg 6.55057 18.996 2.9896 1.2 -8.46747 5.09809e+06 -2.97024e+06 1.00572e+06 1.30666e+06 -1.13548e+06 1.05025e+06
120 3 O 4.92172 20.3134 2.79288 -1.2 -8.34646 -2.70054e+06 -2.42893e+06 -3.53083e+06 1.08716e+06 -121443 -415591
121 1 Mg -0.84282 19.0373 4.4844 1.2 -9.30088 -138979 1.39892e+06 4.45796e+06 -467479 -280849 -895461
122 2 Si -2.64823 21.7214 4.4844 2.4 -34.0569 1.30586e+07 6.65531e+06 1.10228e+07 9701.5 166085 -1.44715e+06
123 3 O -2.70847 20.1082 4.4844 -1.2 -8.8592 -4.81261e+06 938243 -4.93096e+06 292556 -273693 832375
124 3 O 0.97581 22.6955 4.4844 -1.2 -8.70519 -4.23738e+06 -1.61193e+06 -4.2779e+06 2.21903e+06 -300375 791982
125 3 O -1.9076 22.4276 3.18632 -1.2 -8.53215 -3.59469e+06 -2.20399e+06 -2.12836e+06 1.16732e+06 -98127.3 -814469
126 3 O -1.9475 22.4276 5.78248 -1.2 -8.23988 -3.66787e+06 -2.79935e+06 -3.15673e+06 1.1825e+06 -258586 2.01803e+06
127 1 Mg 1.50678 21.3705 2.9896 1.2 -8.48587 5.18033e+06 -2.9377e+06 897433 -1.16473e+06 -1.33179e+06 -2.41537e+06
128 1 Mg 4.31086 21.3292 4.4844 1.2 -9.23587 334289 1.30083e+06 4.08859e+06 1.19139e+06 -259673 -734378
129 2 Si 2.49243 23.394 4.4844 2.4 -33.8575 1.32143e+07 6.83977e+06 1.03173e+07 749118 -301919 -1.32135e+06
130 3 O 2.51204 25.0073 4.4844 -1.2 -8.99893 -4.82953e+06 771602 -4.66108e+06 527851 -30999 442947
131 3 O -4.13026 22.42 4.4844 -1.2 -8.74696 -4.44582e+06 -1.45026e+06 -4.11512e+06 -1.40229e+06 -586440 648125
132 3 O 3.19799 22.6879 3.18632 -1.2 -8.59549 -3.71026e+06 -2.31388e+06 -2.01432e+06 -926641 47031.5 1.98187e+06
133 1 Mg 1.5501 21.3705 0 1.2 -6.13642 6.03633e+06 -28161.8 -4.50425e+06 -66427.8 -991929 -298458
134 3 O 3.1583 22.6879 5.78248 -1.2 -8.44869 -4.00668e+06 -2.82626e+06 -2.50431e+06 -972885 -69143.2 -347322
135 1 Mg -1.29822 21.4118 1.4948 1.2 -8.96638 803122 501883 6.16583e+06 1.80898e+06 -951277 -458683
136 2 Si 0.523568 19.3469 1.4948 2.4 -35.1207 9.50838e+06 8.19849e+06 1.44716e+07 313813 914773 772471
137 3 O 0.508934 17.7337 1.4948 -1.2 -4.67105 -2.2612e+06 698085 -3.37796e+07 661956 -6.03731e+06 5.06323e+06
138 3 O 7.14425 20.321 1.4948 -1.2 -9.20818 -5.17683e+06 379227 -2.71687e+06 -943593 -1.10227e+06 1.84856e+06
139 3 O -0.145107 20.0531 0.196716 -1.2 -3.62956 -1.2092e+06 -1.2571e+07 -2.82909e+07 3.67302e+06 -8.16898e+06 3.95335e+06
140 3 O -0.183601 20.0531 2.79288 -1.2 -8.36895 -2.59612e+06 -2.54318e+06 -3.65401e+06 -850158 27663.6 1.89613e+06
141 1 Mg 6.70502 23.745 0 1.2 -6.11854 5.85281e+06 273540 -4.25939e+06 398529 -1.46702e+06 -1.08104e+06
142 1 Mg 3.97493 28.4527 1.4948 1.2 -8.95831 -108179 1.18065e+06 5.8645e+06 -1.22827e+06 -771084 -329708
143 2 Si 5.77602 25.7685 1.4948 2.4 -34.811 1.02007e+07 7.8487e+06 1.38163e+07 -137174 1.62489e+06 -3.03135e+06
144 3 O 5.83821 27.3818 1.4948 -1.2 -6.16795 -5.52415e+06 655046 -2.23634e+07 -330487 -9.33478e+06 -2.81563e+06
145 3 O 2.15175 24.7945 1.4948 -1.2 -9.24058 -4.9493e+06 252798 -2.65231e+06 1.60786e+06 -886886 -487573
146 3 O 5.07184 25.0624 0.196716 -1.2 -4.2093 -2.03609e+06 -1.37707e+07 -2.25111e+07 -2.7758e+06 -9.459e+06 -1.06481e+06
147 1 Mg 6.66374 23.745 2.9896 1.2 -8.41606 5.13644e+06 -2.88615e+06 803943 1.30451e+06 -1.1618e+06 1.38454e+06
148 3 O 5.03707 25.0624 2.79288 -1.2 -8.4134 -2.59975e+06 -2.65233e+06 -3.33983e+06 1.10625e+06 -196057 -777504
149 1 Mg -0.727559 23.7863 4.4844 1.2 -9.25382 -289525 1.54978e+06 4.37596e+06 -488819 -317271 -645701
150 2 Si -2.5277 26.4704 4.4844 2.4 -33.7856 1.26676e+07 7.16355e+06 1.04698e+07 29043.4 111909 -670269
151 3 O -2.59107 24.8572 4.4844 -1.2 -8.95073 -4.64742e+06 756861 -4.75662e+06 357008 -234405 519072
152 3 O 1.09817 27.4445 4.4844 -1.2 -8.82453 -4.06487e+06 -1.77866e+06 -4.10319e+06 2.21597e+06 -315159 307992
153 3 O -1.78784 27.1766 3.18632 -1.2 -8.63289 -3.4017e+06 -2.47244e+06 -1.9525e+06 1.1644e+06 -15690.2 -1.20841e+06
154 3 O -1.82343 27.1766 5.78248 -1.2 -8.44388 -3.40884e+06 -2.98451e+06 -2.73471e+06 1.17377e+06 -260941 1.57882e+06
155 1 Mg 1.62435 26.1195 2.9896 1.2 -8.37795 5.1072e+06 -2.67978e+06 542774 -1.13981e+06 -1.37859e+06 -1.95957e+06
156 1 Mg 4.43064 26.0782 4.4844 1.2 -9.1194 99037.4 1.57482e+06 3.8651e+06 1.167e+06 -220441 -302487
157 2 Si 2.61607 28.143 4.4844 2.4 -33.6478 1.27438e+07 7.09059e+06 1.02013e+07 801515 -274588 -449605
158 3 O 2.63853 29.7563 4.4844 -1.2 -9.10386 -4.60333e+06 637979 -4.5884e+06 539064 -45365 191036
159 3 O -4.00841 27.169 4.4844 -1.2 -8.88579 -4.26466e+06 -1.68847e+06 -3.84478e+06 -1.33968e+06 -517348 203864
160 3 O 3.3182 27.4369 3.18632 -1.2 -8.6902 -3.47508e+06 -2.57903e+06 -1.90933e+06 -903297 132118 1.5439e+06
161 1 Mg 1.66335 26.1195 0 1.2 -6.12962 5.74386e+06 894272 -3.92561e+06 -884312 -1.62326e+06 -59616.9
162 3 O 3.28288 27.4369 5.78248 -1.2 -8.55433 -3.69154e+06 -2.91296e+06 -2.5353e+06 -952433 7790.17 -1.01349e+06
163 1 Mg -1.18278 26.1608 1.4948 1.2 -8.96443 372193 954619 5.94869e+06 1.89038e+06 -842329 -142068
164 2 Si 0.635424 24.0959 1.4948 2.4 -34.9532 9.92801e+06 7.97961e+06 1.40701e+07 762042 1.2734e+06 1.56385e+06
165 3 O 0.617906 22.4827 1.4948 -1.2 -5.25113 -3.96588e+06 831686 -2.89376e+07 1.00927e+06 -8.49417e+06 4.29194e+06
166 3 O 7.25781 25.07 1.4948 -1.2 -9.28527 -5.05923e+06 371539 -2.58324e+06 -927601 -874955 1.44354e+06
167 3 O -0.0337363 24.8021 0.196716 -1.2 -4.29503 -2.37954e+06 -1.37166e+07 -2.24967e+07 3.49507e+06 -9.60523e+06 2.22927e+06
168 3 O -0.0687235 24.8021 2.79288 -1.2 -8.43231 -2.50849e+06 -2.78152e+06 -3.45314e+06 -846648 -18426.2 1.49431e+06
169 1 Mg 6.82195 28.494 0 1.2 -6.11793 5.21572e+06 1.09123e+06 -3.56139e+06 1.15386e+06 -1.78729e+06 -665992
170 1 Mg 4.10106 33.2017 1.4948 1.2 -8.91932 -650765 1.58978e+06 5.59501e+06 -1.20251e+06 -533344 -32592.2
171 2 Si 5.89839 30.5175 1.4948 2.4 -34.3903 1.05564e+07 7.71651e+06 1.30018e+07 -337144 1.75241e+06 -2.34807e+06
172 3 O 5.96289 32.1308 1.4948 -1.2 -7.13862 -6.48128e+06 530011 -1.60712e+07 -286062 -8.48297e+06 -2.42116e+06
173 3 O 2.27266 29.5435 1.4948 -1.2 -9.35648 -4.6832e+06 94892.5 -2.52703e+06 1.65535e+06 -683124 -751728
174 3 O 5.19102 29.8114 0.196716 -1.2 -5.17509 -3.19996e+06 -1.36366e+07 -1.61317e+07 -1.9328e+06 -9.33006e+06 -17647.4
175 1 Mg 6.78546 28.494 2.9896 1.2 -8.2812 5.02796e+06 -2.65808e+06 473649 1.30327e+06 -1.24213e+06 1.74148e+06
176 3 O 5.16061 29.8114 2.79288 -1.2 -8.53456 -2.44075e+06 -2.88182e+06 -3.11566e+06 1.1153e+06 -250592 -1.06426e+06
177 1 Mg -0.603205 28.5353 4.4844 1.2 -9.12631 -463824 1.67908e+06 4.20841e+06 -474490 -254100 -246483
178 2 Si -2.39877 31.2194 4.4844 2.4 -33.5179 1.22494e+07 7.44953e+06 1.01763e+07 39149.7 -61209 -249065
179 3 O -2.46483 29.6062 4.4844 -1.2 -9.07875 -4.47076e+06 645266 -4.61744e+06 411811 -155847 176471
180 3 O 1.22864 32.1935 4.4844 -1.2 -8.96849 -3.87974e+06 -2.07717e+06 -3.7696e+06 2.23305e+06 -315089 77570.4
181 3 O -1.66032 31.9256 3.18632 -1.2 -8.74643 -3.17829e+06 -2.71647e+06 -1.82996e+06 1.15926e+06 80033.8 -1.42915e+06
182 3 O -1.69072 31.9256 5.78248 -1.2 -8.61918 -3.20166e+06 -3.14535e+06 -2.40352e+06 1.16755e+06 35647.7 1.50025e+06
183 1 Mg 1.7499 30.8685 2.9896 1.2 -8.24556 4.96764e+06 -2.44268e+06 239715 -1.12502e+06 -1.42703e+06 -1.68476e+06
184 1 Mg 4.55894 30.8272 4.4844 1.2 -9.00235 -154011 1.74265e+06 3.76333e+06 1.20812e+06 -164404 -100959
185 2 Si 2.7476 32.892 4.4844 2.4 -33.3789 1.21824e+07 7.74818e+06 9.67431e+06 786254 -208394 117553
186 3 O 2.77235 34.5053 4.4844 -1.2 -9.20374 -4.34171e+06 447825 -4.50795e+06 568245 -32479.4 -254256
187 3 O -3.87837 31.918 4.4844 -1.2 -9.02444 -4.03578e+06 -1.88049e+06 -3.66604e+06 -1.31277e+06 -447056 30359.1
188 3 O 3.44611 32.1859 3.18632 -1.2 -8.79664 -3.20035e+06 -2.86632e+06 -1.82086e+06 -878962 187384 1.28451e+06
189 1 Mg 1.7837 30.8685 0 1.2 -6.13142 4.56811e+06 1.29738e+06 -3.21063e+06 -1.3519e+06 -1.56352e+06 271073
190 3 O 3.41602 32.1859 5.78248 -1.2 -8.70543 -3.33224e+06 -3.29275e+06 -2.26869e+06 -893082 -75680.7 -1.15805e+06
191 1 Mg -1.05984 30.9098 1.4948 1.2 -8.92075 -156498 1.39778e+06 5.66245e+06 1.90766e+06 -643576 23827.3
192 2 Si 0.755243 28.8449 1.4948 2.4 -34.5669 1.02458e+07 7.92338e+06 1.32745e+07 1.14721e+06 1.51188e+06 2.07914e+06
193 3 O 0.735127 27.2317 1.4948 -1.2 -6.1545 -5.55323e+06 669020 -2.25078e+07 1.16643e+06 -9.27383e+06 3.31708e+06
194 3 O 7.37914 29.819 1.4948 -1.2 -9.40749 -4.81852e+06 204468 -2.4287e+06 -930464 -645258 1.16657e+06
195 3 O 0.0850649 29.5511 0.196716 -1.2 -5.23371 -3.45371e+06 -1.3965e+07 -1.61029e+07 2.69796e+06 -9.3893e+06 642858
196 3 O 0.0543974 29.5511 2.79288 -1.2 -8.55766 -2.38121e+06 -3.01861e+06 -3.19514e+06 -842746 -88883.8 1.1567e+06
197 1 Mg 6.94543 33.243 0 1.2 -6.15028 3.95976e+06 1.3735e+06 -2.86233e+06 1.5805e+06 -1.41424e+06 -705604
198 1 Mg 4.23267 37.9507 1.4948 1.2 -8.90237 -1.06511e+06 1.69901e+06 5.45847e+06 -1.11333e+06 -207589 52057.9
199 2 Si 6.02709 35.2665 1.4948 2.4 -34.0073 1.09711e+07 7.23266e+06 1.25072e+07 -411949 1.63132e+06 -1.73803e+06
200 3 O 6.09339 36.8798 1.4948 -1.2 -7.97642 -6.61695e+06 616413 -1.1173e+07 -142041 -6.61982e+06 -2.02815e+06
201 3 O 2.40018 34.2925 1.4948 -1.2 -9.43975 -4.43081e+06 -44455.1 -2.55912e+06 1.68928e+06 -502016 -969466
202 3 O 5.31645 34.5604 0.196716 -1.2 -6.19643 -4.05354e+06 -1.21997e+07 -1.06423e+07 -959179 -7.86611e+06 956762
203 1 Mg 6.91449 33.243 2.9896 1.2 -8.14697 4.88985e+06 -2.43266e+06 179513 1.29828e+06 -1.35019e+06 1.96509e+06
204 3 O 5.291 34.5604 2.79288 -1.2 -8.64436 -2.34414e+06 -3.02286e+06 -2.93261e+06 1.12967e+06 -273120 -1.3246e+06
205 1 Mg -0.471101 33.2843 4.4844 1.2 -8.9728 -646855 1.94018e+06 3.8775e+06 -416462 -205849 51700.4
206 2 Si -2.26307 35.9684 4.4844 2.4 -33.3659 1.21184e+07 7.38228e+06 1.01328e+07 27874.1 -113460 544878
207 3 O -2.33122 34.3552 4.4844 -1.2 -9.21577 -4.29109e+06 429468 -4.36026e+06 423662 -98399.6 -154183
208 3 O 1.36549 36.9425 4.4844 -1.2 -8.98888 -3.86572e+06 -1.80578e+06 -4.03025e+06 2.28278e+06 -327352 -132470
209 3 O -1.52658 36.6746 3.18632 -1.2 -8.79339 -3.05297e+06 -2.66238e+06 -2.02961e+06 1.17406e+06 129037 -1.64065e+06
210 3 O -1.55122 36.6746 5.78248 -1.2 -8.64105 -3.31073e+06 -2.81418e+06 -2.49512e+06 1.2504e+06 7443.26 1.07156e+06
211 1 Mg 1.882 35.6175 2.9896 1.2 -8.1584 4.86313e+06 -2.40818e+06 180169 -1.10585e+06 -1.48754e+06 -1.39099e+06
212 1 Mg 4.69415 35.5762 4.4844 1.2 -8.93624 -321727 1.75878e+06 3.80918e+06 1.23486e+06 -201042 320982
213 2 Si 2.88522 37.641 4.4844 2.4 -33.3822 1.20932e+07 7.15884e+06 1.03605e+07 878924 -157974 186595
214 3 O 2.91159 39.2543 4.4844 -1.2 -9.23935 -4.31524e+06 574375 -4.60337e+06 513621 -85171.3 6644.48
215 3 O -3.74183 36.667 4.4844 -1.2 -9.06186 -4.00573e+06 -1.74416e+06 -3.77256e+06 -1.31037e+06 -316364 -320845
216 3 O 3.58014 36.9349 3.18632 -1.2 -8.83002 -3.029e+06 -2.7904e+06 -2.11963e+06 -885323 232216 1.0967e+06
217 1 Mg 1.90997 35.6175 0 1.2 -6.16555 3.20144e+06 1.33334e+06 -2.80384e+06 -1.66123e+06 -796081 838515
218 3 O 3.55582 36.9349 5.78248 -1.2 -8.61863 -3.30086e+06 -2.83482e+06 -2.82958e+06 -997536 33540.2 -1.36713e+06
219 1 Mg -0.93068 35.6588 1.4948 1.2 -8.89008 -613951 1.64171e+06 5.43477e+06 1.84973e+06 -324905 147737
220 2 Si 0.881882 33.5939 1.4948 2.4 -34.1599 1.06389e+07 7.62677e+06 1.25968e+07 1.41448e+06 1.58219e+06 2.33961e+06
221 3 O 0.859602 31.9807 1.4948 -1.2 -7.1252 -6.51654e+06 544542 -1.62159e+07 1.15569e+06 -8.44297e+06 2.4741e+06
222 3 O 7.507 34.568 1.4948 -1.2 -9.49003 -4.57722e+06 67917.5 -2.4684e+06 -927921 -439235 979966
223 3 O 0.210186 34.3001 0.196716 -1.2 -6.22784 -4.20752e+06 -1.29162e+07 -1.0571e+07 1.54017e+06 -7.91162e+06 -715449
224 3 O 0.184454 34.3001 2.79288 -1.2 -8.67656 -2.30817e+06 -3.17244e+06 -2.97226e+06 -851779 -164291 840826
225 1 Mg 7.07415 37.992 0 1.2 -6.21425 2.6795e+06 1.21816e+06 -2.47357e+06 1.87511e+06 -407985 -1.26034e+06
226 1 Mg 4.36817 42.6997 1.4948 1.2 -8.82081 -1.42628e+06 2.00169e+06 5.00441e+06 -1.00014e+06 160440 296484
227 2 Si 6.16058 40.0155 1.4948 2.4 -33.6826 1.12965e+07 6.51731e+06 1.23844e+07 -386031 1.33691e+06 -1.4603e+06
228 3 O 6.22815 41.6288 1.4948 -1.2 -8.65492 -6.00177e+06 572697 -7.74811e+06 44450.7 -4.5205e+06 -1.76493e+06
229 3 O 2.53282 39.0415 1.4948 -1.2 -9.4679 -4.24154e+06 -54515.2 -2.85314e+06 1.70604e+06 -359144 -955579
230 3 O 5.44674 39.3094 0.196716 -1.2 -7.11662 -4.43317e+06 -9.72823e+06 -6.81954e+06 -143363 -5.79573e+06 1.77871e+06
231 1 Mg 7.04922 37.992 2.9896 1.2 -8.09309 4.81979e+06 -2.5482e+06 289742 1.28475e+06 -1.47963e+06 2.04955e+06
232 3 O 5.42658 39.3094 2.79288 -1.2 -8.7134 -2.31305e+06 -2.9254e+06 -2.97883e+06 1.12643e+06 -315433 -1.28614e+06
233 1 Mg -0.333062 38.0333 4.4844 1.2 -8.9615 -598957 1.62375e+06 4.12461e+06 -486771 -151865 103684
234 2 Si -2.12255 40.7174 4.4844 2.4 -33.2223 1.17503e+07 7.55561e+06 1.01083e+07 -42022.1 -378422 38683.3
235 3 O -2.19212 39.1042 4.4844 -1.2 -9.22081 -4.24453e+06 643382 -4.60065e+06 495900 19027.8 -61633.9
236 3 O 1.50676 41.6915 4.4844 -1.2 -9.18364 -3.77983e+06 -2.18994e+06 -3.42094e+06 2.21202e+06 -327589 -16177
237 3 O -1.3884 41.4236 3.18632 -1.2 -8.88751 -2.83819e+06 -2.85149e+06 -2.00625e+06 1.16764e+06 225049 -1.54541e+06
238 3 O -1.40713 41.4236 5.78248 -1.2 -8.78208 -3.0332e+06 -3.15517e+06 -2.25401e+06 1.29637e+06 294512 1.47699e+06
239 1 Mg 2.01892 40.3665 2.9896 1.2 -8.0652 4.78494e+06 -2.34056e+06 54669.5 -1.06285e+06 -1.54816e+06 -1.48198e+06
240 1 Mg 4.83434 40.3252 4.4844 1.2 -8.88229 -543327 1.86845e+06 3.83612e+06 1.2607e+06 -24648.5 115449
241 2 Si 3.02698 42.39 4.4844 2.4 -33.0073 1.13791e+07 8.12474e+06 9.5094e+06 887684 306708 416260
242 3 O 3.05433 44.0033 4.4844 -1.2 -9.43442 -3.82914e+06 102187 -4.30737e+06 606498 -250602 -400924
243 3 O -3.60077 41.416 4.4844 -1.2 -9.16569 -3.70853e+06 -2.00113e+06 -3.64338e+06 -1.23332e+06 -174752 -133474
244 3 O 3.71851 41.6839 3.18632 -1.2 -8.92812 -2.73629e+06 -3.06244e+06 -2.09352e+06 -863951 150908 1.05488e+06
245 1 Mg 2.04077 40.3665 0 1.2 -6.2095 2.13624e+06 1.04515e+06 -2.80118e+06 -1.8286e+06 431722 1.64626e+06
246 3 O 3.70011 41.6839 5.78248 -1.2 -8.81512 -2.74892e+06 -3.49127e+06 -2.38231e+06 -996100 -380394 -1.47504e+06
247 1 Mg -0.796865 40.4078 1.4948 1.2 -8.84289 -939886 1.75463e+06 5.18053e+06 1.74391e+06 3194.24 134461
248 2 Si 1.01387 38.3429 1.4948 2.4 -33.8301 1.11238e+07 6.8007e+06 1.24449e+07 1.53411e+06 1.43826e+06 2.0718e+06
249 3 O 0.989947 36.7297 1.4948 -1.2 -7.96841 -6.6796e+06 626457 -1.12853e+07 1.03828e+06 -6.62186e+06 1.86866e+06
250 3 O 7.63988 39.317 1.4948 -1.2 -9.51471 -4.36374e+06 49130.2 -2.79655e+06 -918502 -243815 1.00084e+06
251 3 O 0.340253 39.0491 0.196716 -1.2 -7.12431 -4.52198e+06 -1.06353e+07 -6.76693e+06 382621 -5.83588e+06 -1.53857e+06
252 3 O 0.319795 39.0491 2.79288 -1.2 -8.7562 -2.35965e+06 -3.03794e+06 -2.9648e+06 -845368 -179220 871298
253 1 Mg 7.20667 42.741 0 1.2 -6.21688 1.76644e+06 1.12712e+06 -2.92895e+06 1.98731e+06 911849 -1.7737e+06
254 1 Mg 4.50613 47.4487 1.4948 1.2 -8.71656 -1.55687e+06 2.39331e+06 4.37317e+06 -852495 433676 642768
255 2 Si 6.29731 44.7645 1.4948 2.4 -33.3021 1.13044e+07 6.63663e+06 1.16245e+07 -239059 861518 -512980
256 3 O 6.36567 46.3778 1.4948 -1.2 -9.16225 -5.05291e+06 236290 -5.44688e+06 173654 -2.6651e+06 -1.90264e+06
257 3 O 2.669 43.7905 1.4948 -1.2 -9.51809 -3.94352e+06 -505039 -2.89038e+06 1.71797e+06 -251101 -1.31187e+06
258 3 O 5.58048 44.0584 0.196716 -1.2 -7.9113 -4.22012e+06 -7.33305e+06 -4.19002e+06 315427 -3.74184e+06 1.90906e+06
259 1 Mg 7.1879 42.741 2.9896 1.2 -7.95922 4.57984e+06 -2.21726e+06 -2388.06 1.25651e+06 -1.656e+06 2.11739e+06
260 3 O 5.56564 44.0584 2.79288 -1.2 -8.86783 -2.16289e+06 -3.2437e+06 -2.58912e+06 1.15869e+06 -258951 -1.54222e+06
261 1 Mg -0.19105 42.7823 4.4844 1.2 -8.72579 -789635 2.11106e+06 3.44654e+06 -369689 -188166 136884
262 2 Si -1.97909 45.4664 4.4844 2.4 -32.7745 1.13295e+07 8.34652e+06 9.02098e+06 165977 -434682 927250
263 3 O -2.04947 43.8532 4.4844 -1.2 -9.4577 -3.94376e+06 122941 -4.00116e+06 436758 165665 -228118
264 3 O 1.65063 46.4405 4.4844 -1.2 -9.30027 -3.50604e+06 -2.37304e+06 -3.32365e+06 2.32841e+06 -384747 -539021
265 3 O -1.24745 46.1726 3.18632 -1.2 -9.00549 -2.63911e+06 -3.19026e+06 -1.78172e+06 1.12218e+06 160444 -1.97117e+06
266 3 O -1.26044 46.1726 5.78248 -1.2 -9.07832 -2.85515e+06 -3.31155e+06 -1.731e+06 1.15091e+06 141576 867791
267 1 Mg 2.15896 45.1155 2.9896 1.2 -7.93346 4.51282e+06 -1.958e+06 -251194 -1.07355e+06 -1.57408e+06 -1.05281e+06
268 1 Mg 4.97763 45.0742 4.4844 1.2 -8.70346 -990106 2.24239e+06 3.62115e+06 1.20133e+06 -139003 474307
269 2 Si 3.1711 47.139 4.4844 2.4 -32.8694 1.08264e+07 8.36509e+06 9.60434e+06 679716 234955 1.07428e+06
270 3 O 3.19894 48.7523 4.4844 -1.2 -9.42989 -3.7827e+06 89108.4 -4.34208e+06 662537 -116117 -554973