ITEM: TIMESTEP
600
ITEM: NUMBER OF ATOMS
10500
ITEM: BOX BOUNDS xy xz yz pp pp pp
0.0000000000000000e+00 1.5297450000000000e+01 5.0990000000000002e+00
0.0000000000000000e+00 1.1872499999999999e+02 0.0000000000000000e+00
0.0000000000000000e+00 8.9688000000000002e+01 0.0000000000000000e+00
ITEM: ATOMS id type element xu yu zu q c_pe c_s[1] c_s[2] c_s[3] c_s[4] c_s[5] c_s[6]
1 1 Mg 6.2404 -6.37941e-06 0 1.2 -4.55848 8.07849e+06 -2.23254e+06 -5.80338e+06 -5625.18 2.6376e+06 -140332
2 1 Mg 3.46349 4.70768 1.4948 1.2 -8.62573 -75046.6 2.43166e+06 4.55942e+06 -936288 -646352 -7013.12
3 2 Si 5.2885 2.02354 1.4948 2.4 -35.5688 1.05182e+07 1.02694e+07 1.19923e+07 8.87162e+06 701671 -3.17255e+06
4 3 O 5.33628 3.63678 1.4948 -1.2 -4.57214 -1.0689e+06 -1.14948e+06 -3.39544e+07 -337342 3.81086e+06 -3.78795e+06
5 3 O 1.67294 1.04952 1.4948 -1.2 -0.886188 -2.05837e+07 -7.90403e+07 -2.48167e+06 -2.41222e+07 -95582.2 -89011
6 3 O 4.59532 1.31737 0.196716 -1.2 -2.90003 -2.14846e+06 -6.3145e+06 -3.08702e+07 -6.03401e+06 6.25465e+06 -2.64392e+06
7 1 Mg 6.18956 -6.37941e-06 2.9896 1.2 -5.14834 1.91107e+06 -2.86319e+07 -2.57508e+06 -8.83127e+06 2.49918e+06 4.06714e+06
8 3 O 4.55118 1.31737 2.79288 -1.2 -7.30156 -223867 -4.32701e+06 -3.49059e+06 -2.96257e+06 -3.40256e+06 -1.08519e+06
9 1 Mg -1.20682 0.0413099 4.4844 1.2 8.61148 -3.03293e+07 -9.38781e+07 285094 -2.84803e+07 -1.19994e+06 165083
10 2 Si -3.0337 2.72544 4.4844 2.4 -33.6525 1.51629e+07 6.44997e+06 8.67881e+06 1.586e+06 242118 -859871
11 3 O -3.08099 1.11221 4.4844 -1.2 -9.32103 -6.60744e+06 429127 -2.58995e+06 -1.211e+06 -310779 347883
12 3 O 0.582463 3.69946 4.4844 -1.2 -8.71678 -3.55575e+06 -5.29228e+06 -3.13899e+06 -549330 -127821 19954.3
13 3 O -2.29524 3.43162 3.18632 -1.2 -8.85322 -4.52287e+06 -2.24277e+06 -883871 1.0929e+06 -869896 -844138
14 3 O -2.34216 3.43162 5.78248 -1.2 -8.54209 -4.34798e+06 -3.08658e+06 -1.78677e+06 789978 553150 1.45041e+06
15 1 Mg 1.12778 2.37449 2.9896 1.2 -7.81348 5.48301e+06 -1.9815e+06 -303101 -3.28349e+06 -4.22906e+06 -2.32719e+06
16 1 Mg 3.92855 2.33318 4.4844 1.2 -8.7169 -3.6377e+06 4.58688e+06 5.04332e+06 1.39854e+06 249404 395421
17 2 Si 2.09341 4.39804 4.4844 2.4 -32.8283 1.26817e+07 6.47092e+06 9.37287e+06 179711 -456009 301385
18 3 O 2.09991 6.01128 4.4844 -1.2 -9.30113 -4.28799e+06 105593 -4.06333e+06 542421 -52048.9 -67061.9
19 3 O -4.52137 3.42402 4.4844 -1.2 -8.93832 -3.35214e+06 -2.62722e+06 -3.79264e+06 -2.42146e+06 -925547 157678
20 3 O 2.80834 3.69187 3.18632 -1.2 -9.13501 -2.45509e+06 -2.5469e+06 -680902 457381 -437452 -389451
21 1 Mg 1.17857 2.37449 0 1.2 -5.24798 -402993 -1.519e+07 -6.0823e+06 6.50782e+06 1.19535e+06 4.50249e+06
22 3 O 2.76143 3.69187 5.78248 -1.2 -9.0733 -3.27055e+06 -2.25598e+06 -1.37511e+06 499177 224603 168071
23 1 Mg -1.67381 2.41581 1.4948 1.2 -7.74112 1.80025e+06 -568545 4.43714e+06 1.35512e+06 -561786 942715
24 2 Si 0.16286 0.350945 1.4948 2.4 -24.8829 -7.68981e+06 1.16311e+07 1.22236e+07 1.57064e+06 2.82192e+06 1.26814e+06
25 3 O 0.15972 -1.26229 1.4948 -1.2 -4.61049 -1.09219e+07 -7.5858e+06 -2.93779e+07 -5.58972e+06 -8.52727e+06 -2.78331e+06
26 3 O 6.77654 1.32496 1.4948 -1.2 -10.1928 -5.99278e+06 2.14809e+06 -1.76927e+06 -649546 -673741 1.09503e+06
27 3 O -0.508028 1.05712 0.196716 -1.2 -9.40183 -108380 -4.29621e+06 -1.06376e+06 -545097 184755 -4.52458e+06
28 3 O -0.552171 1.05712 2.79288 -1.2 -6.58771 -5.63298e+06 -4.20043e+06 -2.50898e+07 1.42202e+06 -6.79228e+06 -5.49869e+06
29 1 Mg 6.31713 4.74899 0 1.2 -5.06072 554128 -1.3205e+07 -5.79327e+06 -7.30242e+06 1.42804e+06 -3.71252e+06
30 1 Mg 3.54847 9.45668 1.4948 1.2 -8.44277 457253 1.51394e+06 4.63036e+06 -963491 -957294 -330133
31 2 Si 5.36879 6.77254 1.4948 2.4 -34.5661 7.77343e+06 1.16042e+07 1.19516e+07 1.65382e+06 149220 -2.06224e+06
32 3 O 5.41937 8.38578 1.4948 -1.2 -4.63867 -544962 -725422 -3.54e+07 778275 1.11602e+06 -4.20097e+06
33 3 O 1.75158 5.79852 1.4948 -1.2 -9.35702 -4.22599e+06 -2.12471e+06 -1.66996e+06 1.969e+06 -1.57012e+06 -1.27527e+06
34 3 O 4.67421 6.06637 0.196716 -1.2 -3.65343 -58224.4 -9.84868e+06 -3.17198e+07 -2.0103e+06 1.31734e+06 -4.35692e+06
35 1 Mg 6.26654 4.74899 2.9896 1.2 -8.20971 4.4341e+06 -1.90209e+06 191327 1.80491e+06 -802624 1.83845e+06
36 3 O 4.63043 6.06637 2.79288 -1.2 -8.69131 -1.92203e+06 -3.77278e+06 -2.33679e+06 943219 -110727 -1.40024e+06
37 1 Mg -1.12976 4.79031 4.4844 1.2 -9.03365 -307714 2.62478e+06 3.02616e+06 -698301 -393753 -165358
38 2 Si -2.9517 7.47444 4.4844 2.4 -33.2125 1.1928e+07 8.61541e+06 8.83235e+06 22814 152178 -126243
39 3 O -3.00198 5.86121 4.4844 -1.2 -9.23353 -4.33461e+06 -4352.73 -3.8724e+06 43463.1 -308708 110560
40 3 O 0.666315 8.44846 4.4844 -1.2 -9.09005 -3.55043e+06 -2.55211e+06 -3.3978e+06 2.0651e+06 -448508 -7675.74
41 3 O -2.21213 8.18062 3.18632 -1.2 -8.93929 -3.18571e+06 -3.20751e+06 -821530 1.10118e+06 -349359 -1.40573e+06
42 3 O -2.25864 8.18062 5.78248 -1.2 -8.7888 -3.23307e+06 -3.60398e+06 -1.85233e+06 1.05347e+06 -211760 1.36388e+06
43 1 Mg 1.20893 7.12349 2.9896 1.2 -8.16007 4.34693e+06 -1.77393e+06 50410 -1.27115e+06 -1.37109e+06 -1.70295e+06
44 1 Mg 4.00982 7.08218 4.4844 1.2 -8.83093 -470531 2.42539e+06 3.11295e+06 989694 -293287 128640
45 2 Si 2.17861 9.14704 4.4844 2.4 -33.1777 1.158e+07 8.74449e+06 8.9594e+06 628323 -188650 324401
46 3 O 2.18828 10.7603 4.4844 -1.2 -9.28398 -4.04286e+06 -21531 -4.19502e+06 426820 -136530 -158909
47 3 O -4.43805 8.17302 4.4844 -1.2 -9.14951 -3.70975e+06 -2.47609e+06 -3.18414e+06 -1.46944e+06 -524435 -68044.3
48 3 O 2.89193 8.44087 3.18632 -1.2 -8.9578 -3.03026e+06 -3.41868e+06 -891940 -920968 -181108 1.23696e+06
49 1 Mg 1.25915 7.12349 0 1.2 -5.42152 1.15738e+06 -7.86035e+06 -6.05898e+06 5.89638e+06 1.37829e+06 2.54027e+06
50 3 O 2.84547 8.44087 5.78248 -1.2 -8.83123 -3.12648e+06 -3.78479e+06 -1.78263e+06 -891549 -18363.2 -1.37358e+06
51 1 Mg -1.59284 7.16481 1.4948 1.2 -8.38556 1.01852e+06 1.13005e+06 4.55992e+06 1.46217e+06 -891122 270671
52 2 Si 0.240329 5.09994 1.4948 2.4 -34.363 8.7389e+06 1.04073e+07 1.18583e+07 -1.96357e+06 -1.06962e+06 1.77043e+06
53 3 O 0.234538 3.48671 1.4948 -1.2 -5.06698 -2.01391e+06 717452 -3.41191e+07 404093 5.18826e+06 4.05236e+06
54 3 O 6.85564 6.07396 1.4948 -1.2 -9.43869 -4.63942e+06 -1.57184e+06 -1.64047e+06 -1.34321e+06 -1.85388e+06 1.24493e+06
55 3 O -0.429565 5.80612 0.196716 -1.2 -3.90106 -857526 -8.48199e+06 -3.18464e+07 1.85245e+06 1.17636e+06 4.65132e+06
56 3 O -0.473377 5.80612 2.79288 -1.2 -8.76156 -2.37994e+06 -3.34562e+06 -2.29186e+06 -785425 308225 1.38267e+06
57 1 Mg 6.40169 9.49799 0 1.2 -5.36696 1.69421e+06 -6.69616e+06 -6.33453e+06 -5.49343e+06 981745 -2.50207e+06
58 1 Mg 3.64209 14.2057 1.4948 1.2 -8.46567 266955 1.57887e+06 4.75148e+06 -1.03162e+06 -1.01608e+06 -428057
59 2 Si 5.45748 11.5215 1.4948 2.4 -34.4426 7.89503e+06 1.12276e+07 1.19847e+07 867310 254989 -2.26618e+06
60 3 O 5.51101 13.1348 1.4948 -1.2 -4.72375 -649641 -639024 -3.5066e+07 475182 -2.4817e+06 -4.24021e+06
61 3 O 1.83851 10.5475 1.4948 -1.2 -9.47148 -4.36311e+06 -1.64104e+06 -1.56165e+06 1.52907e+06 -1.57896e+06 -1.06805e+06
62 3 O 4.7611 10.8154 0.196716 -1.2 -3.54595 435980 -1.12175e+07 -3.22402e+07 -2.46606e+06 -1.71831e+06 -4.2403e+06
63 1 Mg 6.35203 9.49799 2.9896 1.2 -8.0988 4.37156e+06 -1.81836e+06 -9834.82 1.2837e+06 -1.18037e+06 1.98148e+06
64 3 O 4.71833 10.8154 2.79288 -1.2 -8.75903 -2.04413e+06 -3.54916e+06 -2.34067e+06 1.08114e+06 93345 -1.30999e+06
65 1 Mg -1.0438 9.53931 4.4844 1.2 -8.83688 -632128 2.34785e+06 3.27502e+06 -508274 -215345 -15744.9
66 2 Si -2.8604 12.2234 4.4844 2.4 -33.0208 1.20578e+07 8.28006e+06 8.72146e+06 -120512 -31712.6 -65154.1
67 3 O -2.91391 10.6102 4.4844 -1.2 -9.35292 -4.26996e+06 74358.6 -3.84617e+06 256636 -226026 -27120.8
68 3 O 0.7596 13.1975 4.4844 -1.2 -9.09655 -3.41981e+06 -2.40728e+06 -3.68025e+06 2.11078e+06 -647863 91287.2
69 3 O -2.12001 12.9296 3.18632 -1.2 -8.99215 -3.1358e+06 -3.18745e+06 -819298 1.16418e+06 -282460 -1.42276e+06
70 3 O -2.16532 12.9296 5.78248 -1.2 -8.9479 -3.44312e+06 -3.28093e+06 -1.53987e+06 1.12906e+06 -241506 1.39254e+06
71 1 Mg 1.29891 11.8725 2.9896 1.2 -8.12203 4.27784e+06 -1.7901e+06 71534 -1.15081e+06 -1.18343e+06 -1.70448e+06
72 1 Mg 4.10033 11.8312 4.4844 1.2 -8.8242 -516588 2.27536e+06 3.30098e+06 1.07129e+06 -465423 147625
73 2 Si 2.27333 13.896 4.4844 2.4 -33.1898 1.12939e+07 8.43096e+06 9.57716e+06 758345 -111545 -125265
74 3 O 2.28634 15.5093 4.4844 -1.2 -9.32615 -3.94215e+06 38793.5 -4.29687e+06 428395 -196143 199046
75 3 O -4.34533 12.922 4.4844 -1.2 -9.20551 -3.74553e+06 -2.28641e+06 -3.26665e+06 -1.41209e+06 -330404 -51004.8
76 3 O 2.98455 13.1899 3.18632 -1.2 -8.97978 -2.94229e+06 -3.3149e+06 -1.07286e+06 -968234 -93409.2 1.35941e+06
77 1 Mg 1.34779 11.8725 0 1.2 -5.58275 2.91959e+06 -3.0724e+06 -6.45194e+06 3.56889e+06 828764 1.52885e+06
78 3 O 2.93934 13.1899 5.78248 -1.2 -8.71408 -2.98211e+06 -3.57754e+06 -2.40525e+06 -1.00982e+06 100569 -1.25881e+06
79 1 Mg -1.50344 11.9138 1.4948 1.2 -8.42334 659788 1.47926e+06 4.61373e+06 1.56586e+06 -898001 329816
80 2 Si 0.326006 9.84894 1.4948 2.4 -34.4525 7.93148e+06 1.12757e+07 1.18884e+07 -575223 167101 2.21863e+06
81 3 O 0.317364 8.23571 1.4948 -1.2 -4.63598 -642368 -594466 -3.5567e+07 -135416 1.16726e+06 4.22304e+06
82 3 O 6.94307 10.823 1.4948 -1.2 -9.51856 -4.53859e+06 -1.45539e+06 -1.45619e+06 -974495 -1.5296e+06 1.10886e+06
83 3 O -0.343122 10.5551 0.196716 -1.2 -3.63982 153063 -1.06742e+07 -3.23147e+07 2.45912e+06 -2.08938e+06 4.55502e+06
84 3 O -0.385966 10.5551 2.79288 -1.2 -8.7855 -2.05551e+06 -3.60581e+06 -2.37479e+06 -891534 27646.7 1.13719e+06
85 1 Mg 6.49448 14.247 0 1.2 -5.5377 3.34771e+06 -2.21759e+06 -6.62077e+06 -2.96442e+06 220832 -1.64897e+06
86 1 Mg 3.74457 18.9547 1.4948 1.2 -8.5258 46890.2 1.74784e+06 4.82171e+06 -1.11633e+06 -984946 -494518
87 2 Si 5.55495 16.2705 1.4948 2.4 -34.3525 8.04057e+06 1.10224e+07 1.19186e+07 539101 677574 -2.64563e+06
88 3 O 5.6115 17.8838 1.4948 -1.2 -5.0648 -1.62804e+06 -591152 -3.23582e+07 70288.9 -6.004e+06 -3.92733e+06
89 3 O 1.93416 15.2965 1.4948 -1.2 -9.54384 -4.3634e+06 -1.35759e+06 -1.47944e+06 1.53491e+06 -1.39708e+06 -854964
90 3 O 4.85636 15.5644 0.196716 -1.2 -3.5957 491202 -1.29958e+07 -3.06043e+07 -3.03124e+06 -5.07476e+06 -3.57172e+06
91 1 Mg 6.44662 14.247 2.9896 1.2 -8.0357 4.418e+06 -1.88175e+06 -95024.3 1.27854e+06 -1.2588e+06 1.89803e+06
92 3 O 4.81537 15.5644 2.79288 -1.2 -8.786 -1.94275e+06 -3.56155e+06 -2.4184e+06 1.05427e+06 72661.1 -1.12738e+06
93 1 Mg -0.948271 14.2883 4.4844 1.2 -8.77258 -665229 2.213e+06 3.33039e+06 -582902 -78914.3 -139501
94 2 Si -2.75928 16.9724 4.4844 2.4 -32.9064 1.18409e+07 8.27453e+06 8.76303e+06 -62637.9 -192122 -274847
95 3 O -2.81617 15.3592 4.4844 -1.2 -9.42509 -4.25766e+06 151598 -3.82163e+06 310363 -133078 80163.2
96 3 O 0.862762 17.9465 4.4844 -1.2 -9.19483 -3.39305e+06 -2.51386e+06 -3.4549e+06 2.20975e+06 -594764 272015
97 3 O -2.0185 17.6786 3.18632 -1.2 -9.02376 -3.03716e+06 -3.22996e+06 -844124 1.17657e+06 -154488 -1.31985e+06
98 3 O -2.06164 17.6786 5.78248 -1.2 -9.00162 -3.22049e+06 -3.31536e+06 -1.6792e+06 1.17785e+06 -102724 1.51992e+06
99 1 Mg 1.39817 16.6215 2.9896 1.2 -8.06088 4.30633e+06 -1.76187e+06 -85362 -1.17215e+06 -1.16149e+06 -1.89002e+06
100 1 Mg 4.20062 16.5802 4.4844 1.2 -8.77264 -700497 2.27425e+06 3.40531e+06 1.20853e+06 -398214 -132106
101 2 Si 2.37796 18.645 4.4844 2.4 -32.9829 1.12366e+07 8.63371e+06 9.09157e+06 690773 -6046.7 -417763
102 3 O 2.39434 20.2583 4.4844 -1.2 -9.39566 -3.94077e+06 -3595.65 -4.15789e+06 512214 -177900 176283
103 3 O -4.24274 17.671 4.4844 -1.2 -9.2568 -3.59585e+06 -2.31328e+06 -3.30762e+06 -1.46592e+06 -329303 109635
104 3 O 3.08659 17.9389 3.18632 -1.2 -9.02639 -2.87725e+06 -3.38984e+06 -1.03096e+06 -952160 -64636.6 1.53095e+06
105 1 Mg 1.44478 16.6215 0 1.2 -5.6745 4.53414e+06 -10723.8 -6.53806e+06 1.3886e+06 -14693.4 661801
106 3 O 3.0436 17.9389 5.78248 -1.2 -8.89542 -2.78965e+06 -3.69107e+06 -2.08688e+06 -943819 -182632 -938937
107 1 Mg -1.40524 16.6628 1.4948 1.2 -8.46553 430443 1.67054e+06 4.67178e+06 1.68592e+06 -939184 158752
108 2 Si 0.420358 14.5979 1.4948 2.4 -34.3793 7.90204e+06 1.11859e+07 1.18745e+07 -134328 685611 2.16658e+06
109 3 O 0.408732 12.9847 1.4948 -1.2 -4.70691 -650438 -628077 -3.52374e+07 217128 -2.61724e+06 4.35376e+06
110 3 O 7.03923 15.572 1.4948 -1.2 -9.59404 -4.5459e+06 -1.20114e+06 -1.34134e+06 -946340 -1.28252e+06 1.18442e+06
111 3 O -0.248332 15.3041 0.196716 -1.2 -3.69689 175682 -1.2532e+07 -3.06438e+07 3.25244e+06 -5.46664e+06 4.18159e+06
112 3 O -0.289436 15.3041 2.79288 -1.2 -8.8211 -1.96127e+06 -3.66189e+06 -2.40062e+06 -840704 -57172.4 1.25853e+06
113 1 Mg 6.59566 18.996 0 1.2 -5.66568 4.76661e+06 405633 -6.4146e+06 -908467 -724042 -1.14855e+06
114 1 Mg 3.85574 23.7037 1.4948 1.2 -8.62233 -205380 1.9138e+06 4.92289e+06 -1.18946e+06 -935769 -413614
115 2 Si 5.66125 21.0195 1.4948 2.4 -34.2816 8.51057e+06 1.05543e+07 1.18651e+07 183501 1.14372e+06 -2.77565e+06
116 3 O 5.72074 22.6328 1.4948 -1.2 -5.65492 -3.33113e+06 -446432 -2.75133e+07 -212101 -8.47394e+06 -3.46917e+06
117 3 O 2.03867 20.0455 1.4948 -1.2 -9.57721 -4.38047e+06 -1.09352e+06 -1.47079e+06 1.57427e+06 -1.17976e+06 -750023
118 3 O 4.96004 20.3134 0.196716 -1.2 -3.90531 -280614 -1.43847e+07 -2.67606e+07 -3.18159e+06 -7.91067e+06 -2.51199e+06
119 1 Mg 6.55057 18.996 2.9896 1.2 -7.99647 4.41579e+06 -1.87064e+06 -166215 1.31329e+06 -1.25999e+06 1.79242e+06
120 3 O 4.92172 20.3134 2.79288 -1.2 -8.79652 -1.91114e+06 -3.59646e+06 -2.43583e+06 1.07542e+06 -37534.7 -1.0462e+06
121 1 Mg -0.84282 19.0373 4.4844 1.2 -8.72292 -803590 2.28534e+06 3.30908e+06 -556945 -200031 -192415
122 2 Si -2.64823 21.7214 4.4844 2.4 -32.9277 1.1679e+07 8.20466e+06 9.03722e+06 29743.5 -172267 -364616
123 3 O -2.70847 20.1082 4.4844 -1.2 -9.4366 -4.10568e+06 120458 -3.90887e+06 305230 -95618.4 138211
124 3 O 0.97581 22.6955 4.4844 -1.2 -9.1907 -3.4187e+06 -2.41554e+06 -3.53823e+06 2.19606e+06 -559966 263482
125 3 O -1.9076 22.4276 3.18632 -1.2 -9.00708 -2.98935e+06 -3.19558e+06 -988984 1.16037e+06 -68433.4 -1.28991e+06
126 3 O -1.9475 22.4276 5.78248 -1.2 -8.93021 -3.12672e+06 -3.22877e+06 -2.0569e+06 1.13557e+06 -65546.2 1.57876e+06
127 1 Mg 1.50678 21.3705 2.9896 1.2 -8.03462 4.39788e+06 -1.79984e+06 -181093 -1.16311e+06 -1.21283e+06 -1.83732e+06
128 1 Mg 4.31086 21.3292 4.4844 1.2 -8.73706 -692873 2.25527e+06 3.36019e+06 1.1633e+06 -326166 -132627
129 2 Si 2.49243 23.394 4.4844 2.4 -32.9934 1.12278e+07 8.45403e+06 9.29793e+06 731461 -92558.8 -434816
130 3 O 2.51204 25.0073 4.4844 -1.2 -9.38689 -3.90097e+06 7845.1 -4.22024e+06 529852 -136241 240413
131 3 O -4.13026 22.42 4.4844 -1.2 -9.26373 -3.6164e+06 -2.25763e+06 -3.3302e+06 -1.39162e+06 -380839 166820
132 3 O 3.19799 22.6879 3.18632 -1.2 -9.02196 -2.87191e+06 -3.36096e+06 -1.13033e+06 -916593 35126.6 1.50845e+06
133 1 Mg 1.5501 21.3705 0 1.2 -5.77176 5.45525e+06 1.47356e+06 -6.00917e+06 -62132.6 -927660 225971
134 3 O 3.1583 22.6879 5.78248 -1.2 -8.88423 -2.79328e+06 -3.51921e+06 -2.31127e+06 -896822 -34235.1 -1.01359e+06
135 1 Mg -1.29822 21.4118 1.4948 1.2 -8.55726 192574 1.7989e+06 4.82389e+06 1.80659e+06 -934311 75275.7
136 2 Si 0.523568 19.3469 1.4948 2.4 -34.3109 8.20008e+06 1.08676e+07 1.18134e+07 296999 1.07938e+06 2.11557e+06
137 3 O 0.508934 17.7337 1.4948 -1.2 -5.05102 -1.63467e+06 -593066 -3.25068e+07 675961 -6.13155e+06 4.3081e+06
138 3 O 7.14425 20.321 1.4948 -1.2 -9.62237 -4.55191e+06 -930522 -1.36936e+06 -940256 -1.04081e+06 1.23025e+06
139 3 O -0.145107 20.0531 0.196716 -1.2 -4.0016 -596522 -1.40554e+07 -2.68238e+07 3.6782e+06 -8.22941e+06 3.31541e+06
140 3 O -0.183601 20.0531 2.79288 -1.2 -8.8346 -1.91984e+06 -3.7101e+06 -2.42145e+06 -835808 -60554.6 1.25364e+06
141 1 Mg 6.70502 23.745 0 1.2 -5.79488 5.33271e+06 1.68613e+06 -5.67042e+06 395998 -1.52532e+06 -762665
142 1 Mg 3.97493 28.4527 1.4948 1.2 -8.71263 -533882 2.19023e+06 4.88698e+06 -1.22633e+06 -814171 -321409
143 2 Si 5.77602 25.7685 1.4948 2.4 -34.1663 9.17084e+06 1.00749e+07 1.1587e+07 -131154 1.47452e+06 -2.70099e+06
144 3 O 5.83821 27.3818 1.4948 -1.2 -6.44799 -5.07789e+06 -388291 -2.13188e+07 -337268 -9.26333e+06 -2.8736e+06
145 3 O 2.15175 24.7945 1.4948 -1.2 -9.57943 -4.36449e+06 -912786 -1.52966e+06 1.60845e+06 -937379 -734494
146 3 O 5.07184 25.0624 0.196716 -1.2 -4.50716 -1.56418e+06 -1.50873e+07 -2.1189e+07 -2.77727e+06 -9.40291e+06 -1.27114e+06
147 1 Mg 6.66374 23.745 2.9896 1.2 -7.98327 4.50539e+06 -1.90694e+06 -237786 1.30577e+06 -1.27563e+06 1.73523e+06
148 3 O 5.03707 25.0624 2.79288 -1.2 -8.79193 -1.94152e+06 -3.62326e+06 -2.42652e+06 1.10362e+06 -94216.8 -1.00659e+06
149 1 Mg -0.727559 23.7863 4.4844 1.2 -8.73522 -831083 2.22989e+06 3.40378e+06 -479838 -181204 -279997
150 2 Si -2.5277 26.4704 4.4844 2.4 -32.862 1.16658e+07 8.3462e+06 8.79937e+06 44726.2 -198579 -501377
151 3 O -2.59107 24.8572 4.4844 -1.2 -9.44683 -4.09035e+06 111411 -3.89703e+06 356702 -88498.8 254819
152 3 O 1.09817 27.4445 4.4844 -1.2 -9.19596 -3.37903e+06 -2.54186e+06 -3.44411e+06 2.25175e+06 -543123 295018
153 3 O -1.78784 27.1766 3.18632 -1.2 -9.00351 -2.95847e+06 -3.29799e+06 -983959 1.15471e+06 -7563.1 -1.27458e+06
154 3 O -1.82343 27.1766 5.78248 -1.2 -9.02436 -3.07738e+06 -3.31171e+06 -1.66571e+06 1.13303e+06 -26573.3 1.65995e+06
155 1 Mg 1.62435 26.1195 2.9896 1.2 -8.02561 4.45895e+06 -1.75629e+06 -297032 -1.14951e+06 -1.26589e+06 -1.82432e+06
156 1 Mg 4.43064 26.0782 4.4844 1.2 -8.72854 -714564 2.27653e+06 3.34792e+06 1.19012e+06 -349112 -187992
157 2 Si 2.61607 28.143 4.4844 2.4 -32.9897 1.11605e+07 8.6739e+06 9.1445e+06 691146 -163536 -540522
158 3 O 2.63853 29.7563 4.4844 -1.2 -9.39273 -3.89767e+06 -104930 -4.10203e+06 598234 -37461.7 250962
159 3 O -4.00841 27.169 4.4844 -1.2 -9.29601 -3.63206e+06 -2.31239e+06 -3.21491e+06 -1.36596e+06 -323862 204478
160 3 O 3.3182 27.4369 3.18632 -1.2 -9.01051 -2.82218e+06 -3.45689e+06 -1.1763e+06 -892370 142667 1.51676e+06
161 1 Mg 1.66335 26.1195 0 1.2 -5.86972 5.33553e+06 2.17015e+06 -5.20956e+06 -881591 -1.57049e+06 82905
162 3 O 3.28288 27.4369 5.78248 -1.2 -8.87986 -2.7359e+06 -3.61832e+06 -2.3133e+06 -891652 -11091.8 -835764
163 1 Mg -1.18278 26.1608 1.4948 1.2 -8.64853 -89539.8 2.04792e+06 4.81101e+06 1.88827e+06 -811912 4720.9
164 2 Si 0.635424 24.0959 1.4948 2.4 -34.2343 8.77538e+06 1.03681e+07 1.16822e+07 763561 1.43415e+06 2.18e+06
165 3 O 0.617906 22.4827 1.4948 -1.2 -5.64144 -3.34171e+06 -440468 -2.76656e+07 1.00719e+06 -8.57351e+06 3.84348e+06
166 3 O 7.25781 25.07 1.4948 -1.2 -9.62908 -4.54757e+06 -770306 -1.40363e+06 -928195 -824449 1.22038e+06
167 3 O -0.0337363 24.8021 0.196716 -1.2 -4.59543 -1.89071e+06 -1.50478e+07 -2.11729e+07 3.49556e+06 -9.66295e+06 1.99397e+06
168 3 O -0.0687235 24.8021 2.79288 -1.2 -8.82821 -1.93803e+06 -3.74719e+06 -2.42883e+06 -845642 -127999 1.23733e+06
169 1 Mg 6.82195 28.494 0 1.2 -5.93047 4.89386e+06 2.24587e+06 -4.69458e+06 1.15322e+06 -1.82413e+06 -654701
170 1 Mg 4.10106 33.2017 1.4948 1.2 -8.79641 -836216 2.45847e+06 4.71483e+06 -1.19699e+06 -574017 -158181
171 2 Si 5.89839 30.5175 1.4948 2.4 -34.0018 9.95074e+06 9.57608e+06 1.11254e+07 -308528 1.64038e+06 -2.45179e+06
172 3 O 5.96289 32.1308 1.4948 -1.2 -7.28946 -6.2521e+06 -353064 -1.51764e+07 -303243 -8.43908e+06 -2.33147e+06
173 3 O 2.27266 29.5435 1.4948 -1.2 -9.57135 -4.30908e+06 -878367 -1.58439e+06 1.66547e+06 -701104 -732104
174 3 O 5.19102 29.8114 0.196716 -1.2 -5.33395 -2.93845e+06 -1.47086e+07 -1.50668e+07 -1.94051e+06 -9.26536e+06 6660.02
175 1 Mg 6.78546 28.494 2.9896 1.2 -7.95958 4.58362e+06 -1.8256e+06 -429853 1.32728e+06 -1.32876e+06 1.72978e+06
176 3 O 5.16061 29.8114 2.79288 -1.2 -8.7991 -2.00729e+06 -3.71828e+06 -2.29279e+06 1.10035e+06 -160760 -1.00402e+06
177 1 Mg -0.603205 28.5353 4.4844 1.2 -8.72166 -901602 2.36298e+06 3.31166e+06 -464555 -101711 -242776
178 2 Si -2.39877 31.2194 4.4844 2.4 -32.8621 1.15958e+07 8.59466e+06 8.62965e+06 139124 -54216.5 -371086
179 3 O -2.46483 29.6062 4.4844 -1.2 -9.46586 -4.07368e+06 -75.1802 -3.7631e+06 344805 -91879.3 224164
180 3 O 1.22864 32.1935 4.4844 -1.2 -9.19294 -3.3621e+06 -2.66412e+06 -3.35e+06 2.30835e+06 -393882 260029
181 3 O -1.66032 31.9256 3.18632 -1.2 -8.97729 -2.87826e+06 -3.42626e+06 -1.05397e+06 1.1573e+06 27370.3 -1.34293e+06
182 3 O -1.69072 31.9256 5.78248 -1.2 -8.98132 -2.9264e+06 -3.46924e+06 -1.76302e+06 1.13641e+06 -156422 1.58836e+06
183 1 Mg 1.7499 30.8685 2.9896 1.2 -8.01718 4.51481e+06 -1.65539e+06 -460703 -1.15679e+06 -1.38413e+06 -1.76218e+06
184 1 Mg 4.55894 30.8272 4.4844 1.2 -8.70523 -672917 2.39117e+06 3.15571e+06 1.23078e+06 -304718 -212844
185 2 Si 2.7476 32.892 4.4844 2.4 -32.9446 1.12509e+07 8.90249e+06 8.75168e+06 756091 -339144 -439468
186 3 O 2.77235 34.5053 4.4844 -1.2 -9.41605 -3.96079e+06 -215763 -3.897e+06 568764 31673.2 149717
187 3 O -3.87837 31.918 4.4844 -1.2 -9.3172 -3.68225e+06 -2.44988e+06 -2.99174e+06 -1.37822e+06 -353384 156972
188 3 O 3.44611 32.1859 3.18632 -1.2 -9.00204 -2.81893e+06 -3.5913e+06 -1.1526e+06 -881522 244158 1.44679e+06
189 1 Mg 1.7837 30.8685 0 1.2 -6.00666 4.39995e+06 2.35653e+06 -4.30152e+06 -1.36085e+06 -1.54019e+06 228415
190 3 O 3.41602 32.1859 5.78248 -1.2 -8.95328 -2.7954e+06 -3.73496e+06 -1.90166e+06 -926697 83449.4 -901648
191 1 Mg -1.05984 30.9098 1.4948 1.2 -8.73748 -435193 2.31793e+06 4.72738e+06 1.90514e+06 -593368 -22520.2
192 2 Si 0.755243 28.8449 1.4948 2.4 -34.0925 9.47447e+06 9.9209e+06 1.1288e+07 1.12651e+06 1.64944e+06 2.11078e+06
193 3 O 0.735127 27.2317 1.4948 -1.2 -6.43566 -5.09929e+06 -389589 -2.14535e+07 1.1729e+06 -9.34904e+06 3.23273e+06
194 3 O 7.37914 29.819 1.4948 -1.2 -9.6234 -4.49935e+06 -749259 -1.44923e+06 -941177 -627614 1.19046e+06
195 3 O 0.0850649 29.5511 0.196716 -1.2 -5.40088 -3.19254e+06 -1.50615e+07 -1.49996e+07 2.70529e+06 -9.45513e+06 641114
196 3 O 0.0543974 29.5511 2.79288 -1.2 -8.83018 -1.9619e+06 -3.86379e+06 -2.33632e+06 -828262 -190854 1.16363e+06
197 1 Mg 6.94543 33.243 0 1.2 -6.09945 3.84433e+06 2.36647e+06 -3.82135e+06 1.59586e+06 -1.44115e+06 -776648
198 1 Mg 4.23267 37.9507 1.4948 1.2 -8.87927 -1.06729e+06 2.61652e+06 4.50614e+06 -1.12069e+06 -244685 58346.2
199 2 Si 6.02709 35.2665 1.4948 2.4 -33.852 1.07515e+07 8.9849e+06 1.07258e+07 -392635 1.58788e+06 -1.95752e+06
200 3 O 6.09339 36.8798 1.4948 -1.2 -8.02082 -6.5616e+06 -288820 -1.02527e+07 -143628 -6.6031e+06 -1.97319e+06
201 3 O 2.40018 34.2925 1.4948 -1.2 -9.53611 -4.27936e+06 -917052 -1.68409e+06 1.69794e+06 -498825 -831281
202 3 O 5.31645 34.5604 0.196716 -1.2 -6.22815 -4.02027e+06 -1.31527e+07 -9.67158e+06 -964599 -7.81499e+06 1.02634e+06
203 1 Mg 6.91449 33.243 2.9896 1.2 -7.95647 4.63608e+06 -1.71404e+06 -590558 1.32552e+06 -1.36082e+06 1.81904e+06
204 3 O 5.291 34.5604 2.79288 -1.2 -8.79869 -2.1312e+06 -3.79495e+06 -2.12902e+06 1.10411e+06 -248369 -1.12819e+06
205 1 Mg -0.471101 33.2843 4.4844 1.2 -8.74685 -1.01987e+06 2.49578e+06 3.3325e+06 -488521 -92288.9 -162149
206 2 Si -2.26307 35.9684 4.4844 2.4 -32.9528 1.14243e+07 8.82012e+06 8.72623e+06 46231.8 -54212.8 -40998.1
207 3 O -2.33122 34.3552 4.4844 -1.2 -9.44085 -3.98723e+06 -149590 -3.73131e+06 420791 -130008 82698
208 3 O 1.36549 36.9425 4.4844 -1.2 -9.19346 -3.47788e+06 -2.76121e+06 -3.14494e+06 2.26587e+06 -295455 81866.2
209 3 O -1.52658 36.6746 3.18632 -1.2 -8.92387 -2.81888e+06 -3.51301e+06 -1.20716e+06 1.1658e+06 104846 -1.47914e+06
210 3 O -1.55122 36.6746 5.78248 -1.2 -8.9002 -2.78552e+06 -3.60677e+06 -1.83604e+06 1.25187e+06 68203.4 1.44743e+06
211 1 Mg 1.882 35.6175 2.9896 1.2 -8.01936 4.61429e+06 -1.5636e+06 -638393 -1.11676e+06 -1.50501e+06 -1.60387e+06
212 1 Mg 4.69415 35.5762 4.4844 1.2 -8.70216 -614895 2.48794e+06 2.99656e+06 1.26517e+06 -189352 -32962.6
213 2 Si 2.88522 37.641 4.4844 2.4 -32.9785 1.13892e+07 9.05355e+06 8.51677e+06 814086 -261055 49356.4
214 3 O 2.91159 39.2543 4.4844 -1.2 -9.36046 -4.02356e+06 -243827 -3.89235e+06 587769 16442 -109046
215 3 O -3.74183 36.667 4.4844 -1.2 -9.27832 -3.70786e+06 -2.52079e+06 -2.95979e+06 -1.3202e+06 -375332 -33106.2
216 3 O 3.58014 36.9349 3.18632 -1.2 -8.96557 -2.83581e+06 -3.67986e+06 -1.21166e+06 -870333 265675 1.22873e+06
217 1 Mg 1.90997 35.6175 0 1.2 -6.16827 3.23894e+06 2.27916e+06 -3.7828e+06 -1.66503e+06 -765073 801340
218 3 O 3.55582 36.9349 5.78248 -1.2 -8.97942 -2.80813e+06 -3.8197e+06 -1.65672e+06 -930077 27396.1 -1.15694e+06
219 1 Mg -0.93068 35.6588 1.4948 1.2 -8.82615 -744898 2.52915e+06 4.57588e+06 1.84724e+06 -297086 51358.2
220 2 Si 0.881882 33.5939 1.4948 2.4 -33.9403 1.02552e+07 9.36343e+06 1.08921e+07 1.38184e+06 1.64877e+06 2.07899e+06
221 3 O 0.859602 31.9807 1.4948 -1.2 -7.27526 -6.26201e+06 -346667 -1.53394e+07 1.17296e+06 -8.48887e+06 2.56619e+06
222 3 O 7.507 34.568 1.4948 -1.2 -9.57997 -4.42753e+06 -797628 -1.6089e+06 -936149 -441780 1.09275e+06
223 3 O 0.210186 34.3001 0.196716 -1.2 -6.2612 -4.138e+06 -1.38658e+07 -9.63721e+06 1.54634e+06 -7.96251e+06 -627993
224 3 O 0.184454 34.3001 2.79288 -1.2 -8.82451 -2.03718e+06 -3.94734e+06 -2.23278e+06 -823560 -198913 1.03448e+06
225 1 Mg 7.07415 37.992 0 1.2 -6.27399 2.73674e+06 2.20454e+06 -3.42143e+06 1.87186e+06 -425194 -1.19913e+06
226 1 Mg 4.36817 42.6997 1.4948 1.2 -8.91335 -1.21861e+06 2.74234e+06 4.20436e+06 -1.0015e+06 104119 284323
227 2 Si 6.16058 40.0155 1.4948 2.4 -33.7365 1.14443e+07 8.27964e+06 1.05605e+07 -379289 1.30245e+06 -1.33191e+06
228 3 O 6.22815 41.6288 1.4948 -1.2 -8.58712 -6.14913e+06 -232458 -6.90498e+06 35752.9 -4.51183e+06 -1.81348e+06
229 3 O 2.53282 39.0415 1.4948 -1.2 -9.4616 -4.25848e+06 -968314 -1.93313e+06 1.71407e+06 -337967 -1.02377e+06
230 3 O 5.44674 39.3094 0.196716 -1.2 -7.04802 -4.55712e+06 -1.06996e+07 -5.83407e+06 -144267 -5.74455e+06 1.69756e+06
231 1 Mg 7.04922 37.992 2.9896 1.2 -7.99212 4.68667e+06 -1.67368e+06 -613497 1.29216e+06 -1.45356e+06 1.97504e+06
232 3 O 5.42658 39.3094 2.79288 -1.2 -8.76963 -2.29773e+06 -3.76746e+06 -2.06602e+06 1.13912e+06 -279502 -1.31159e+06
233 1 Mg -0.333062 38.0333 4.4844 1.2 -8.7805 -942430 2.56468e+06 3.23524e+06 -420107 -136085 -1850.15
234 2 Si -2.12255 40.7174 4.4844 2.4 -33.0631 1.15759e+07 8.99048e+06 8.58386e+06 104096 -104202 272384
235 3 O -2.19212 39.1042 4.4844 -1.2 -9.37861 -4.0044e+06 -222664 -3.73887e+06 435868 -56637.1 -32210.4
236 3 O 1.50676 41.6915 4.4844 -1.2 -9.13049 -3.60092e+06 -2.78432e+06 -3.09656e+06 2.29791e+06 -266920 -104311
237 3 O -1.3884 41.4236 3.18632 -1.2 -8.86544 -2.83748e+06 -3.56682e+06 -1.33242e+06 1.14749e+06 119593 -1.65751e+06
238 3 O -1.40713 41.4236 5.78248 -1.2 -8.84891 -2.90988e+06 -3.72709e+06 -1.5942e+06 1.18148e+06 75636 1.26863e+06
239 1 Mg 2.01892 40.3665 2.9896 1.2 -8.06065 4.70062e+06 -1.55003e+06 -658884 -1.08936e+06 -1.58518e+06 -1.37466e+06
240 1 Mg 4.83434 40.3252 4.4844 1.2 -8.77395 -530558 2.50976e+06 3.00674e+06 1.23295e+06 -178177 151976
241 2 Si 3.02698 42.39 4.4844 2.4 -33.1204 1.14929e+07 9.19671e+06 8.5045e+06 805759 -234193 323597
242 3 O 3.05433 44.0033 4.4844 -1.2 -9.30852 -4.06797e+06 -348901 -3.82294e+06 587165 19050.7 -277864
243 3 O -3.60077 41.416 4.4844 -1.2 -9.22344 -3.82381e+06 -2.5988e+06 -2.85244e+06 -1.30504e+06 -269424 -199777
244 3 O 3.71851 41.6839 3.18632 -1.2 -8.90017 -2.82777e+06 -3.72445e+06 -1.38719e+06 -848520 276562 1.01692e+06
245 1 Mg 2.04077 40.3665 0 1.2 -6.30096 2.32676e+06 2.02774e+06 -3.82778e+06 -1.83249e+06 437280 1.73798e+06
246 3 O 3.70011 41.6839 5.78248 -1.2 -8.84498 -2.86932e+06 -3.90216e+06 -1.78144e+06 -930716 106499 -1.17407e+06
247 1 Mg -0.796865 40.4078 1.4948 1.2 -8.88813 -908344 2.63787e+06 4.3382e+06 1.75192e+06 58572.9 221548
248 2 Si 1.01387 38.3429 1.4948 2.4 -33.8146 1.10578e+07 8.66609e+06 1.06205e+07 1.53704e+06 1.47862e+06 2.15727e+06
249 3 O 0.989947 36.7297 1.4948 -1.2 -8.01198 -6.59429e+06 -292402 -1.03825e+07 1.0402e+06 -6.64016e+06 1.91836e+06
250 3 O 7.63988 39.317 1.4948 -1.2 -9.50142 -4.37635e+06 -862875 -1.89412e+06 -927198 -267218 945486
251 3 O 0.340253 39.0491 0.196716 -1.2 -7.05707 -4.61447e+06 -1.16224e+07 -5.79461e+06 383504 -5.88753e+06 -1.64026e+06
252 3 O 0.319795 39.0491 2.79288 -1.2 -8.80378 -2.22485e+06 -3.93528e+06 -2.12961e+06 -861199 -215916 811299
253 1 Mg 7.20667 42.741 0 1.2 -6.35268 1.94622e+06 2.02253e+06 -3.78653e+06 1.99608e+06 910268 -1.80983e+06
254 1 Mg 4.50613 47.4487 1.4948 1.2 -8.85594 -1.27759e+06 2.98736e+06 3.72315e+06 -850189 429722 273380
255 2 Si 6.29731 44.7645 1.4948 2.4 -33.5624 1.18091e+07 7.90295e+06 1.02704e+07 -237046 890191 -800105
256 3 O 6.36567 46.3778 1.4948 -1.2 -9.02008 -5.31976e+06 -357219 -4.81479e+06 181203 -2.68665e+06 -1.62549e+06
257 3 O 2.669 43.7905 1.4948 -1.2 -9.39772 -4.14755e+06 -1.19027e+06 -2.19413e+06 1.72291e+06 -204062 -1.21371e+06
258 3 O 5.58048 44.0584 0.196716 -1.2 -7.77311 -4.47599e+06 -8.12762e+06 -3.36095e+06 324058 -3.70473e+06 2.03773e+06
259 1 Mg 7.1879 42.741 2.9896 1.2 -8.0244 4.74213e+06 -1.60749e+06 -670089 1.2785e+06 -1.56868e+06 2.1602e+06
260 3 O 5.56564 44.0584 2.79288 -1.2 -8.7655 -2.45038e+06 -3.78443e+06 -1.92665e+06 1.14035e+06 -270370 -1.47092e+06
261 1 Mg -0.19105 42.7823 4.4844 1.2 -8.83248 -840283 2.60812e+06 3.17121e+06 -423704 -72406.5 202204
262 2 Si -1.97909 45.4664 4.4844 2.4 -33.1477 1.16848e+07 9.09888e+06 8.50557e+06 95039.9 -104281 528591
263 3 O -2.04947 43.8532 4.4844 -1.2 -9.33093 -4.08246e+06 -288445 -3.6669e+06 452940 -34022 -219511
264 3 O 1.65063 46.4405 4.4844 -1.2 -9.09998 -3.69182e+06 -2.78201e+06 -3.05838e+06 2.30526e+06 -215491 -190428
265 3 O -1.24745 46.1726 3.18632 -1.2 -8.83964 -2.80481e+06 -3.65183e+06 -1.42478e+06 1.14808e+06 100100 -1.69563e+06
266 3 O -1.26044 46.1726 5.78248 -1.2 -8.79261 -2.98696e+06 -3.74117e+06 -1.49317e+06 1.1994e+06 63902.5 1.11648e+06
267 1 Mg 2.15896 45.1155 2.9896 1.2 -8.07972 4.70479e+06 -1.45391e+06 -712932 -1.06685e+06 -1.67434e+06 -1.25301e+06
268 1 Mg 4.97763 45.0742 4.4844 1.2 -8.82377 -473161 2.58169e+06 2.95764e+06 1.24145e+06 -133552 304428
269 2 Si 3.1711 47.139 4.4844 2.4 -33.1954 1.15345e+07 9.17533e+06 8.60639e+06 827935 -152873 334055