ITEM: TIMESTEP
6800
ITEM: NUMBER OF ATOMS
10500
ITEM: BOX BOUNDS xy xz yz pp pp pp
0.0000000000000000e+00 1.5297450000000000e+01 5.0990000000000002e+00
0.0000000000000000e+00 1.1872499999999999e+02 0.0000000000000000e+00
0.0000000000000000e+00 8.9688000000000002e+01 0.0000000000000000e+00
ITEM: ATOMS id type element xu yu zu q c_pe c_s[1] c_s[2] c_s[3] c_s[4] c_s[5] c_s[6]
1 1 Mg 6.2404 -6.37941e-06 0 1.2 -4.02443 7.25866e+06 -1.71664e+06 -6.35516e+06 -19978.2 2.59559e+06 -1.12271e+06
2 1 Mg 3.46349 4.70768 1.4948 1.2 -8.03137 -1.09746e+06 3.44868e+06 3.61255e+06 -943249 -616080 -947213
3 2 Si 5.2885 2.02354 1.4948 2.4 -34.4603 8.66338e+06 1.19487e+07 1.03919e+07 8.86654e+06 635336 -5.27254e+06
4 3 O 5.33628 3.63678 1.4948 -1.2 -5.16068 -93171.1 -2.11745e+06 -3.30189e+07 -335856 3.84343e+06 -2.7994e+06
5 3 O 1.67294 1.04952 1.4948 -1.2 -1.41436 -1.97193e+07 -7.97699e+07 -1.77057e+06 -2.41266e+07 -170609 984455
6 3 O 4.59532 1.31737 0.196716 -1.2 -3.46941 -1.22523e+06 -6.99141e+06 -3.02039e+07 -6.0288e+06 6.23661e+06 -1.64828e+06
7 1 Mg 6.18956 -6.37941e-06 2.9896 1.2 -4.70076 1.16134e+06 -2.80127e+07 -3.16157e+06 -8.8396e+06 2.36098e+06 2.87376e+06
8 3 O 4.55118 1.31737 2.79288 -1.2 -7.80047 719293 -5.17545e+06 -2.78559e+06 -2.96249e+06 -3.37551e+06 85554
9 1 Mg -1.20682 0.0413099 4.4844 1.2 9.13061 -3.08656e+07 -9.32734e+07 -615934 -2.85197e+07 -1.2268e+06 -1.20177e+06
10 2 Si -3.0337 2.72544 4.4844 2.4 -32.4861 1.3515e+07 8.5293e+06 6.38097e+06 1.66335e+06 -69108.9 -3.23619e+06
11 3 O -3.08099 1.11221 4.4844 -1.2 -9.85317 -5.876e+06 -415218 -1.61695e+06 -1.24545e+06 -98153.5 1.63578e+06
12 3 O 0.582463 3.69946 4.4844 -1.2 -9.33441 -2.75217e+06 -6.38937e+06 -1.85561e+06 -558489 -266401 1.07317e+06
13 3 O -2.29524 3.43162 3.18632 -1.2 -9.44102 -3.69503e+06 -3.2781e+06 266350 1.07162e+06 -788143 217261
14 3 O -2.34216 3.43162 5.78248 -1.2 -9.19727 -3.56053e+06 -4.09908e+06 -562335 727317 598160 2.73597e+06
15 1 Mg 1.12778 2.37449 2.9896 1.2 -7.24922 4.62761e+06 -1.01347e+06 -1.31978e+06 -3.29238e+06 -4.11138e+06 -3.4275e+06
16 1 Mg 3.92855 2.33318 4.4844 1.2 -8.20939 -4.81407e+06 5.7716e+06 4.22175e+06 1.37314e+06 271151 -864280
17 2 Si 2.09341 4.39804 4.4844 2.4 -31.7083 1.0679e+07 8.86284e+06 7.19465e+06 111015 -12026.4 -1.71937e+06
18 3 O 2.09991 6.01128 4.4844 -1.2 -9.8371 -3.2993e+06 -1.15102e+06 -2.93161e+06 597276 -245740 898606
19 3 O -4.52137 3.42402 4.4844 -1.2 -9.48874 -2.35723e+06 -3.81645e+06 -2.71105e+06 -2.4184e+06 -733439 1.30774e+06
20 3 O 2.80834 3.69187 3.18632 -1.2 -9.69364 -1.4331e+06 -3.65864e+06 305794 480460 -536447 643777
21 1 Mg 1.17857 2.37449 0 1.2 -4.64551 -1.40287e+06 -1.44191e+07 -6.81862e+06 6.51457e+06 1.22431e+06 3.54736e+06
22 3 O 2.76143 3.69187 5.78248 -1.2 -9.59934 -1.97247e+06 -3.64403e+06 -502786 574112 -109755 1.20495e+06
23 1 Mg -1.67381 2.41581 1.4948 1.2 -7.16235 940491 294542 3.50652e+06 1.35929e+06 -605223 -78284.5
24 2 Si 0.16286 0.350945 1.4948 2.4 -23.8678 -9.23726e+06 1.28933e+07 1.08824e+07 1.58021e+06 2.89034e+06 -892453
25 3 O 0.15972 -1.26229 1.4948 -1.2 -5.03894 -1.02643e+07 -7.97771e+06 -2.89576e+07 -5.59819e+06 -8.56479e+06 -1.7281e+06
26 3 O 6.77654 1.32496 1.4948 -1.2 -10.7326 -5.15036e+06 1.39388e+06 -992491 -647027 -601312 2.15775e+06
27 3 O -0.508028 1.05712 0.196716 -1.2 -9.96578 786243 -4.952e+06 -398412 -550781 201538 -3.53993e+06
28 3 O -0.552171 1.05712 2.79288 -1.2 -7.11995 -4.914e+06 -4.97609e+06 -2.4182e+07 1.42525e+06 -6.80784e+06 -4.33938e+06
29 1 Mg 6.31713 4.74899 0 1.2 -4.41241 -448203 -1.23119e+07 -6.72276e+06 -7.30469e+06 1.40722e+06 -4.6263e+06
30 1 Mg 3.54847 9.45668 1.4948 1.2 -7.90179 -441092 2.41463e+06 3.76126e+06 -961138 -942878 -1.14343e+06
31 2 Si 5.36879 6.77254 1.4948 2.4 -33.3803 5.8399e+06 1.36495e+07 9.93981e+06 1.67272e+06 95384.3 -3.79759e+06
32 3 O 5.41937 8.38578 1.4948 -1.2 -5.20711 373229 -1.68785e+06 -3.44452e+07 761774 1.13076e+06 -3.38467e+06
33 3 O 1.75158 5.79852 1.4948 -1.2 -9.95585 -3.2333e+06 -3.15223e+06 -675315 1.97849e+06 -1.61882e+06 -386035
34 3 O 4.67421 6.06637 0.196716 -1.2 -4.29159 980080 -1.07745e+07 -3.08095e+07 -2.01178e+06 1.30327e+06 -3.4661e+06
35 1 Mg 6.26654 4.74899 2.9896 1.2 -7.63198 3.51027e+06 -779635 -932944 1.81482e+06 -910847 845102
36 3 O 4.63043 6.06637 2.79288 -1.2 -9.25213 -927577 -4.91535e+06 -1.28907e+06 940703 -62485.7 -479824
37 1 Mg -1.12976 4.79031 4.4844 1.2 -8.41288 -1.06913e+06 3.76381e+06 1.65496e+06 -651658 -374922 -1.22201e+06
38 2 Si -2.9517 7.47444 4.4844 2.4 -32.0987 1.04256e+07 1.11685e+07 5.99125e+06 138205 -59221.7 -1.68092e+06
39 3 O -3.00198 5.86121 4.4844 -1.2 -9.82528 -3.54975e+06 -1.26294e+06 -2.45732e+06 5825.9 -168966 1.09964e+06
40 3 O 0.666315 8.44846 4.4844 -1.2 -9.58474 -2.78898e+06 -3.71004e+06 -2.20968e+06 2.15261e+06 -561929 705873
41 3 O -2.21213 8.18062 3.18632 -1.2 -9.47753 -2.4076e+06 -4.30428e+06 356703 1.08507e+06 -318955 -659323
42 3 O -2.25864 8.18062 5.78248 -1.2 -9.36153 -2.59474e+06 -4.91325e+06 -184527 1.02889e+06 -144881 1.9129e+06
43 1 Mg 1.20893 7.12349 2.9896 1.2 -7.60602 3.45052e+06 -648981 -1.06579e+06 -1.3038e+06 -1.28584e+06 -2.54102e+06
44 1 Mg 4.00982 7.08218 4.4844 1.2 -8.33515 -1.50811e+06 3.74534e+06 2.0375e+06 995035 -361266 -818937
45 2 Si 2.17861 9.14704 4.4844 2.4 -32.2881 1.00025e+07 1.09669e+07 6.88997e+06 496856 -82871.8 -1.21438e+06
46 3 O 2.18828 10.7603 4.4844 -1.2 -9.66727 -3.4388e+06 -959628 -3.23786e+06 460433 -162885 665918
47 3 O -4.43805 8.17302 4.4844 -1.2 -9.64895 -2.88492e+06 -3.73012e+06 -1.96352e+06 -1.56721e+06 -402275 690042
48 3 O 2.89193 8.44087 3.18632 -1.2 -9.46437 -2.13871e+06 -4.51054e+06 120783 -902253 -210145 2.04932e+06
49 1 Mg 1.25915 7.12349 0 1.2 -4.78576 105036 -6.95978e+06 -6.92581e+06 5.89238e+06 1.3852e+06 1.68398e+06
50 3 O 2.84547 8.44087 5.78248 -1.2 -9.25367 -2.17071e+06 -5.16776e+06 -676013 -781173 -67035.8 -570992
51 1 Mg -1.59284 7.16481 1.4948 1.2 -7.78854 116879 2.13605e+06 3.49902e+06 1.46529e+06 -907044 -559744
52 2 Si 0.240329 5.09994 1.4948 2.4 -33.1479 6.84781e+06 1.24334e+07 9.77637e+06 -1.96616e+06 -1.01141e+06 -44770.1
53 3 O 0.234538 3.48671 1.4948 -1.2 -5.66356 -1.09356e+06 -230784 -3.31354e+07 402222 5.15908e+06 5.02526e+06
54 3 O 6.85564 6.07396 1.4948 -1.2 -10.044 -3.70543e+06 -2.59797e+06 -578707 -1.35315e+06 -1.80856e+06 2.12973e+06
55 3 O -0.429565 5.80612 0.196716 -1.2 -4.54336 155013 -9.40989e+06 -3.0902e+07 1.85356e+06 1.19014e+06 5.52544e+06
56 3 O -0.473377 5.80612 2.79288 -1.2 -9.35286 -1.52665e+06 -4.45657e+06 -1.08663e+06 -787856 269837 2.28058e+06
57 1 Mg 6.40169 9.49799 0 1.2 -4.75714 750571 -5.91037e+06 -7.15369e+06 -5.4846e+06 982576 -3.33127e+06
58 1 Mg 3.64209 14.2057 1.4948 1.2 -8.04862 -391425 2.19171e+06 4.12884e+06 -1.02763e+06 -1.00781e+06 -1.2835e+06
59 2 Si 5.45748 11.5215 1.4948 2.4 -33.4649 6.33269e+06 1.27373e+07 1.0471e+07 899377 284498 -3.91446e+06
60 3 O 5.51101 13.1348 1.4948 -1.2 -5.16777 57885.9 -1.29729e+06 -3.44032e+07 464101 -2.50655e+06 -3.38423e+06
61 3 O 1.83851 10.5475 1.4948 -1.2 -9.98494 -3.52434e+06 -2.46553e+06 -752739 1.54275e+06 -1.58659e+06 -256601
62 3 O 4.7611 10.8154 0.196716 -1.2 -4.11271 1.34362e+06 -1.19486e+07 -3.15083e+07 -2.47458e+06 -1.74276e+06 -3.39771e+06
63 1 Mg 6.35203 9.49799 2.9896 1.2 -7.60816 3.59189e+06 -830342 -1.00434e+06 1.32457e+06 -1.21377e+06 1.24345e+06
64 3 O 4.71833 10.8154 2.79288 -1.2 -9.21011 -1.30535e+06 -4.42065e+06 -1.48415e+06 1.05294e+06 81970.3 -517125
65 1 Mg -1.0438 9.53931 4.4844 1.2 -8.38433 -1.25754e+06 3.37178e+06 2.15113e+06 -556131 -192997 -654293
66 2 Si -2.8604 12.2234 4.4844 2.4 -32.4118 1.09623e+07 9.94208e+06 7.184e+06 -14109.6 -54153.5 -1.66251e+06
67 3 O -2.91391 10.6102 4.4844 -1.2 -9.73737 -3.65309e+06 -848839 -2.91987e+06 212876 -181114 651966
68 3 O 0.7596 13.1975 4.4844 -1.2 -9.38793 -2.99452e+06 -3.26595e+06 -2.76216e+06 2.15807e+06 -571924 947316
69 3 O -2.12001 12.9296 3.18632 -1.2 -9.35118 -2.52551e+06 -3.94835e+06 -87753.4 1.15046e+06 -273028 -602421
70 3 O -2.16532 12.9296 5.78248 -1.2 -9.11278 -2.98858e+06 -4.19496e+06 -852319 1.05694e+06 -163948 2.26235e+06
71 1 Mg 1.29891 11.8725 2.9896 1.2 -7.71208 3.63506e+06 -975698 -756905 -1.18258e+06 -1.19484e+06 -2.52037e+06
72 1 Mg 4.10033 11.8312 4.4844 1.2 -8.48726 -1.05629e+06 3.12348e+06 2.45327e+06 1.10226e+06 -406484 -702255
73 2 Si 2.27333 13.896 4.4844 2.4 -32.6223 1.05616e+07 1.01079e+07 7.72775e+06 648122 -154424 -1.9351e+06
74 3 O 2.28634 15.5093 4.4844 -1.2 -9.579 -3.61827e+06 -815465 -3.34474e+06 442557 -128135 1.09109e+06
75 3 O -4.34533 12.922 4.4844 -1.2 -9.49997 -3.25035e+06 -3.09749e+06 -2.4621e+06 -1.47028e+06 -390006 854990
76 3 O 2.98455 13.1899 3.18632 -1.2 -9.34564 -2.39194e+06 -4.07804e+06 -269456 -953262 -103267 2.2273e+06
77 1 Mg 1.34779 11.8725 0 1.2 -5.03994 2.02507e+06 -2.42255e+06 -7.07696e+06 3.56617e+06 815436 675408
78 3 O 2.93934 13.1899 5.78248 -1.2 -8.95809 -2.69161e+06 -4.45248e+06 -1.45553e+06 -896776 -25690.2 -240846
79 1 Mg -1.50344 11.9138 1.4948 1.2 -7.94679 -99068.7 2.20467e+06 3.88368e+06 1.56158e+06 -914064 -481113
80 2 Si 0.326006 9.84894 1.4948 2.4 -33.3843 6.22462e+06 1.30087e+07 1.01507e+07 -612010 168445 635572
81 3 O 0.317364 8.23571 1.4948 -1.2 -5.20895 266794 -1.55833e+06 -3.45942e+07 -119915 1.15146e+06 5.02854e+06
82 3 O 6.94307 10.823 1.4948 -1.2 -10.0281 -3.73639e+06 -2.2534e+06 -643759 -987698 -1.52355e+06 1.90553e+06
83 3 O -0.343122 10.5551 0.196716 -1.2 -4.21101 1.06705e+06 -1.14147e+07 -3.15724e+07 2.4674e+06 -2.0671e+06 5.38048e+06
84 3 O -0.385966 10.5551 2.79288 -1.2 -9.24803 -1.33368e+06 -4.48643e+06 -1.47355e+06 -861747 33316.8 1.8913e+06
85 1 Mg 6.49448 14.247 0 1.2 -5.05646 2.58564e+06 -1.73439e+06 -7.1129e+06 -2.96518e+06 243522 -2.5233e+06
86 1 Mg 3.74457 18.9547 1.4948 1.2 -8.187 -502956 2.3664e+06 4.21021e+06 -1.11001e+06 -1.00354e+06 -1.14627e+06
87 2 Si 5.55495 16.2705 1.4948 2.4 -33.6077 6.84121e+06 1.21587e+07 1.07885e+07 534963 726288 -4.26342e+06
88 3 O 5.6115 17.8838 1.4948 -1.2 -5.41321 -1.0551e+06 -1.17684e+06 -3.17864e+07 77729 -6.02001e+06 -3.20129e+06
89 3 O 1.93416 15.2965 1.4948 -1.2 -9.93471 -3.74643e+06 -1.93306e+06 -893659 1.53235e+06 -1.37236e+06 -30853
90 3 O 4.85636 15.5644 0.196716 -1.2 -4.03176 1.20004e+06 -1.34398e+07 -3.017e+07 -3.04281e+06 -5.09017e+06 -2.74983e+06
91 1 Mg 6.44662 14.247 2.9896 1.2 -7.6949 3.85604e+06 -1.16324e+06 -797576 1.29382e+06 -1.21302e+06 1.02372e+06
92 3 O 4.81537 15.5644 2.79288 -1.2 -9.11933 -1.43676e+06 -4.26115e+06 -1.68825e+06 1.05701e+06 39496 -269347
93 1 Mg -0.948271 14.2883 4.4844 1.2 -8.54241 -1.12782e+06 3.05143e+06 2.58817e+06 -565491 -146508 -1.00929e+06
94 2 Si -2.75928 16.9724 4.4844 2.4 -32.4774 1.10117e+07 1.00965e+07 7.08985e+06 -139322 -95237.3 -2.08897e+06
95 3 O -2.81617 15.3592 4.4844 -1.2 -9.64921 -3.8039e+06 -699374 -3.04561e+06 302561 -196519 1.01214e+06
96 3 O 0.862762 17.9465 4.4844 -1.2 -9.42151 -3.0242e+06 -3.44699e+06 -2.50887e+06 2.15154e+06 -557577 1.10954e+06
97 3 O -2.0185 17.6786 3.18632 -1.2 -9.30529 -2.55502e+06 -4.00153e+06 -97686.2 1.18919e+06 -167579 -496899
98 3 O -2.06164 17.6786 5.78248 -1.2 -9.1263 -2.90125e+06 -4.46248e+06 -739214 1.23318e+06 -72567.7 2.46405e+06
99 1 Mg 1.39817 16.6215 2.9896 1.2 -7.75832 3.83352e+06 -1.04386e+06 -815297 -1.15605e+06 -1.20638e+06 -2.71389e+06
100 1 Mg 4.20062 16.5802 4.4844 1.2 -8.51609 -1.00998e+06 3.17451e+06 2.40312e+06 1.19387e+06 -366923 -978361
101 2 Si 2.37796 18.645 4.4844 2.4 -32.5031 1.05326e+07 1.05008e+07 7.16523e+06 797173 -10316.5 -1.89236e+06
102 3 O 2.39434 20.2583 4.4844 -1.2 -9.65123 -3.53932e+06 -958514 -3.17539e+06 511130 -214445 844671
103 3 O -4.24274 17.671 4.4844 -1.2 -9.4933 -3.21587e+06 -3.2375e+06 -2.36858e+06 -1.40191e+06 -382222 927680
104 3 O 3.08659 17.9389 3.18632 -1.2 -9.31791 -2.4389e+06 -4.15769e+06 -229020 -966667 -51681 2.2881e+06
105 1 Mg 1.44478 16.6215 0 1.2 -5.25364 3.87583e+06 376641 -6.94137e+06 1.39733e+06 -41235 -62404.8
106 3 O 3.0436 17.9389 5.78248 -1.2 -9.09799 -2.5786e+06 -4.78989e+06 -852038 -1.04123e+06 -177988 -225870
107 1 Mg -1.40524 16.6628 1.4948 1.2 -8.10238 -160031 2.2302e+06 4.12079e+06 1.6781e+06 -932848 -630525
108 2 Si 0.420358 14.5979 1.4948 2.4 -33.5715 6.60278e+06 1.2369e+07 1.06966e+07 -144811 628604 496680
109 3 O 0.408732 12.9847 1.4948 -1.2 -5.15243 66341.4 -1.29494e+06 -3.45724e+07 228682 -2.5925e+06 5.18744e+06
110 3 O 7.03923 15.572 1.4948 -1.2 -9.9775 -3.92109e+06 -1.77074e+06 -781215 -941892 -1.30802e+06 2.01971e+06
111 3 O -0.248332 15.3041 0.196716 -1.2 -4.13998 876135 -1.2971e+07 -3.01947e+07 3.26398e+06 -5.44967e+06 4.99753e+06
112 3 O -0.289436 15.3041 2.79288 -1.2 -9.14458 -1.41644e+06 -4.34811e+06 -1.73597e+06 -843283 -22526.4 2.10702e+06
113 1 Mg 6.59566 18.996 0 1.2 -5.28938 4.12114e+06 857627 -6.824e+06 -926718 -684202 -1.72594e+06
114 1 Mg 3.85574 23.7037 1.4948 1.2 -8.31807 -691413 2.78047e+06 4.05475e+06 -1.2024e+06 -964551 -734523
115 2 Si 5.66125 21.0195 1.4948 2.4 -33.6358 7.42112e+06 1.1988e+07 1.04862e+07 182398 1.16429e+06 -3.83209e+06
116 3 O 5.72074 22.6328 1.4948 -1.2 -5.96778 -2.81271e+06 -1.25587e+06 -2.67206e+07 -219371 -8.49208e+06 -3.06014e+06
117 3 O 2.03867 20.0455 1.4948 -1.2 -9.91077 -3.86082e+06 -1.76649e+06 -782168 1.56824e+06 -1.15018e+06 -170769
118 3 O 4.96004 20.3134 0.196716 -1.2 -4.25849 349911 -1.49302e+07 -2.62799e+07 -3.18014e+06 -7.89874e+06 -2.01801e+06
119 1 Mg 6.55057 18.996 2.9896 1.2 -7.70569 3.9379e+06 -1.08546e+06 -939342 1.29205e+06 -1.24863e+06 1.06493e+06
120 3 O 4.92172 20.3134 2.79288 -1.2 -9.0934 -1.42486e+06 -4.39452e+06 -1.64473e+06 1.08166e+06 -33212.2 -405964
121 1 Mg -0.84282 19.0373 4.4844 1.2 -8.48523 -1.18885e+06 3.28395e+06 2.31581e+06 -539898 -204340 -1.00098e+06
122 2 Si -2.64823 21.7214 4.4844 2.4 -32.3766 1.08162e+07 1.02931e+07 6.92853e+06 153614 -183396 -1.53661e+06
123 3 O -2.70847 20.1082 4.4844 -1.2 -9.6923 -3.70045e+06 -887524 -2.88764e+06 309570 -64760.6 846409
124 3 O 0.97581 22.6955 4.4844 -1.2 -9.46963 -2.92795e+06 -3.49948e+06 -2.48413e+06 2.26156e+06 -533821 760753
125 3 O -1.9076 22.4276 3.18632 -1.2 -9.29971 -2.50923e+06 -4.16858e+06 -24689.7 1.12994e+06 -98436.5 -789016
126 3 O -1.9475 22.4276 5.78248 -1.2 -9.20036 -2.68849e+06 -4.35e+06 -911734 992997 -55627.1 2.02243e+06
127 1 Mg 1.50678 21.3705 2.9896 1.2 -7.73865 3.92765e+06 -905459 -1.07931e+06 -1.17946e+06 -1.22254e+06 -2.40814e+06
128 1 Mg 4.31086 21.3292 4.4844 1.2 -8.47542 -1.12676e+06 3.21064e+06 2.42136e+06 1.14622e+06 -336856 -810816
129 2 Si 2.49243 23.394 4.4844 2.4 -32.3979 1.03122e+07 1.06367e+07 7.08043e+06 552336 -254138 -1.53677e+06
130 3 O 2.51204 25.0073 4.4844 -1.2 -9.70852 -3.42535e+06 -1.23936e+06 -2.93133e+06 566928 5181.58 662389
131 3 O -4.13026 22.42 4.4844 -1.2 -9.55108 -3.1898e+06 -3.27759e+06 -2.26949e+06 -1.45252e+06 -390853 788041
132 3 O 3.19799 22.6879 3.18632 -1.2 -9.3203 -2.41022e+06 -4.3206e+06 -150227 -884875 67749.1 2.03838e+06
133 1 Mg 1.5501 21.3705 0 1.2 -5.41012 4.92695e+06 2.06919e+06 -6.65589e+06 -59285.2 -990603 -162109
134 3 O 3.1583 22.6879 5.78248 -1.2 -9.17323 -2.36803e+06 -4.60244e+06 -1.19976e+06 -742615 2579.3 -326881
135 1 Mg -1.29822 21.4118 1.4948 1.2 -8.23166 -314395 2.55571e+06 4.05238e+06 1.81265e+06 -905379 -409787
136 2 Si 0.523568 19.3469 1.4948 2.4 -33.6328 7.1623e+06 1.21549e+07 1.04774e+07 310780 1.05958e+06 870515
137 3 O 0.508934 17.7337 1.4948 -1.2 -5.40268 -1.08472e+06 -1.1716e+06 -3.19137e+07 669004 -6.11492e+06 5.03036e+06
138 3 O 7.14425 20.321 1.4948 -1.2 -9.95125 -4.01121e+06 -1.61826e+06 -694855 -936516 -1.07152e+06 1.80107e+06
139 3 O -0.145107 20.0531 0.196716 -1.2 -4.37427 -61035.9 -1.45892e+07 -2.62284e+07 3.67731e+06 -8.24124e+06 3.79307e+06
140 3 O -0.183601 20.0531 2.79288 -1.2 -9.13416 -1.44824e+06 -4.53945e+06 -1.58087e+06 -842878 -63288 1.90521e+06
141 1 Mg 6.70502 23.745 0 1.2 -5.47801 4.79436e+06 2.40133e+06 -6.35493e+06 420422 -1.46488e+06 -955851
142 1 Mg 3.97493 28.4527 1.4948 1.2 -8.53631 -786530 2.98995e+06 4.05743e+06 -1.2197e+06 -811594 -51976.5
143 2 Si 5.77602 25.7685 1.4948 2.4 -33.6294 8.33952e+06 1.19504e+07 9.68255e+06 -113634 1.52985e+06 -2.85438e+06
144 3 O 5.83821 27.3818 1.4948 -1.2 -6.66647 -4.74657e+06 -1.28028e+06 -2.04082e+07 -341639 -9.28982e+06 -3.01639e+06
145 3 O 2.15175 24.7945 1.4948 -1.2 -9.86732 -3.90827e+06 -1.82216e+06 -615101 1.62767e+06 -890180 -522218
146 3 O 5.07184 25.0624 0.196716 -1.2 -4.79587 -1.08095e+06 -1.58638e+07 -2.04338e+07 -2.77615e+06 -9.4119e+06 -1.18986e+06
147 1 Mg 6.66374 23.745 2.9896 1.2 -7.6859 4.04512e+06 -883846 -1.277e+06 1.33855e+06 -1.22524e+06 1.31106e+06
148 3 O 5.03707 25.0624 2.79288 -1.2 -9.08579 -1.52637e+06 -4.70941e+06 -1.28511e+06 1.09663e+06 -104230 -743218
149 1 Mg -0.727559 23.7863 4.4844 1.2 -8.46682 -1.37887e+06 3.36996e+06 2.38349e+06 -459217 -136883 -712953
150 2 Si -2.5277 26.4704 4.4844 2.4 -32.2968 1.06866e+07 1.12227e+07 5.99957e+06 3762.04 102193 -730395
151 3 O -2.59107 24.8572 4.4844 -1.2 -9.74603 -3.59564e+06 -1.14938e+06 -2.64406e+06 309068 -226688 692086
152 3 O 1.09817 27.4445 4.4844 -1.2 -9.44804 -2.90379e+06 -3.91012e+06 -2.14402e+06 2.23661e+06 -443891 188437
153 3 O -1.78784 27.1766 3.18632 -1.2 -9.22615 -2.53745e+06 -4.46686e+06 123788 1.17187e+06 -62883.8 -1.3618e+06
154 3 O -1.82343 27.1766 5.78248 -1.2 -9.32205 -2.42443e+06 -5.12767e+06 -61439 1.22456e+06 -243593 1.6278e+06
155 1 Mg 1.62435 26.1195 2.9896 1.2 -7.76128 4.0195e+06 -622818 -1.41451e+06 -1.15544e+06 -1.34029e+06 -1.93999e+06
156 1 Mg 4.43064 26.0782 4.4844 1.2 -8.38058 -1.10901e+06 3.66382e+06 1.79562e+06 1.20562e+06 -388740 -389558
157 2 Si 2.61607 28.143 4.4844 2.4 -32.5101 1.0555e+07 1.11348e+07 6.51752e+06 808108 -320143 111510
158 3 O 2.63853 29.7563 4.4844 -1.2 -9.50039 -3.82576e+06 -994544 -3.1004e+06 551801 -10162.4 -284355
159 3 O -4.00841 27.169 4.4844 -1.2 -9.5849 -3.26588e+06 -3.7167e+06 -1.71087e+06 -1.35119e+06 -403619 89665.6
160 3 O 3.3182 27.4369 3.18632 -1.2 -9.24763 -2.50589e+06 -4.57888e+06 8155.1 -913150 186381 1.36984e+06
161 1 Mg 1.66335 26.1195 0 1.2 -5.60407 4.91069e+06 2.90255e+06 -5.94272e+06 -905888 -1.59895e+06 68713.1
162 3 O 3.28288 27.4369 5.78248 -1.2 -9.30786 -2.22958e+06 -5.18301e+06 -408293 -1.00827e+06 83395.3 -1.10072e+06
163 1 Mg -1.18278 26.1608 1.4948 1.2 -8.39668 -517495 2.97438e+06 3.909e+06 1.89224e+06 -795857 -38683
164 2 Si 0.635424 24.0959 1.4948 2.4 -33.6384 7.82168e+06 1.21404e+07 9.90902e+06 742511 1.38363e+06 1.6164e+06
165 3 O 0.617906 22.4827 1.4948 -1.2 -5.95952 -2.85009e+06 -1.25289e+06 -2.68346e+07 1.01378e+06 -8.55565e+06 4.25502e+06
166 3 O 7.25781 25.07 1.4948 -1.2 -9.91003 -4.09324e+06 -1.69564e+06 -482284 -946311 -870840 1.38801e+06
167 3 O -0.0337363 24.8021 0.196716 -1.2 -4.89597 -1.43527e+06 -1.58054e+07 -2.03897e+07 3.49404e+06 -9.65361e+06 2.15319e+06
168 3 O -0.0687235 24.8021 2.79288 -1.2 -9.10524 -1.43784e+06 -4.81026e+06 -1.41919e+06 -838260 -118820 1.51543e+06
169 1 Mg 6.82195 28.494 0 1.2 -5.74419 4.60221e+06 2.87332e+06 -5.32879e+06 1.15644e+06 -1.81831e+06 -413534
170 1 Mg 4.10106 33.2017 1.4948 1.2 -8.8612 -725724 2.68526e+06 4.48135e+06 -1.1958e+06 -548076 256059
171 2 Si 5.89839 30.5175 1.4948 2.4 -33.8614 9.73366e+06 1.06865e+07 1.00072e+07 -315121 1.69458e+06 -1.58169e+06
172 3 O 5.96289 32.1308 1.4948 -1.2 -7.27479 -6.26899e+06 -700829 -1.48347e+07 -295590 -8.46969e+06 -2.78438e+06
173 3 O 2.27266 29.5435 1.4948 -1.2 -9.69423 -4.12817e+06 -1.55422e+06 -892134 1.65682e+06 -684688 -1.09457e+06
174 3 O 5.19102 29.8114 0.196716 -1.2 -5.46449 -2.74374e+06 -1.52404e+07 -1.45208e+07 -1.93963e+06 -9.28192e+06 -333735
175 1 Mg 6.78546 28.494 2.9896 1.2 -7.79381 4.31703e+06 -824671 -1.42981e+06 1.31556e+06 -1.27571e+06 2.06958e+06
176 3 O 5.16061 29.8114 2.79288 -1.2 -8.89215 -1.89006e+06 -4.47931e+06 -1.49774e+06 1.09115e+06 -194055 -1.47626e+06
177 1 Mg -0.603205 28.5353 4.4844 1.2 -8.56136 -1.3072e+06 3.61938e+06 2.20518e+06 -508866 -104851 140093
178 2 Si -2.39877 31.2194 4.4844 2.4 -33.0226 1.16012e+07 9.90645e+06 7.57233e+06 71151 33455.1 944196
179 3 O -2.46483 29.6062 4.4844 -1.2 -9.53926 -3.8703e+06 -1.01093e+06 -2.82845e+06 388085 -163583 -370782
180 3 O 1.22864 32.1935 4.4844 -1.2 -9.07862 -3.64093e+06 -3.07174e+06 -2.82995e+06 2.29927e+06 -302687 -315829
181 3 O -1.66032 31.9256 3.18632 -1.2 -8.90569 -2.92303e+06 -3.87284e+06 -673437 1.177e+06 44829.1 -1.88248e+06
182 3 O -1.69072 31.9256 5.78248 -1.2 -8.73449 -3.03782e+06 -4.09339e+06 -1.41903e+06 1.21276e+06 -117165 862967
183 1 Mg 1.7499 30.8685 2.9896 1.2 -7.9926 4.51664e+06 -1.05571e+06 -1.10151e+06 -1.14459e+06 -1.42173e+06 -1.2553e+06
184 1 Mg 4.55894 30.8272 4.4844 1.2 -8.71193 -595193 3.06958e+06 2.41185e+06 1.26646e+06 -262431 405242
185 2 Si 2.7476 32.892 4.4844 2.4 -33.2723 1.20315e+07 9.49432e+06 7.90958e+06 825971 -315307 631130
186 3 O 2.77235 34.5053 4.4844 -1.2 -9.15089 -4.50565e+06 -323288 -3.65049e+06 519481 -26995.3 -271017
187 3 O -3.87837 31.918 4.4844 -1.2 -9.18963 -3.84241e+06 -2.94726e+06 -2.53007e+06 -1.37717e+06 -451421 -483557
188 3 O 3.44611 32.1859 3.18632 -1.2 -8.93494 -2.98472e+06 -3.98158e+06 -699152 -899514 220601 921795
189 1 Mg 1.7837 30.8685 0 1.2 -5.91925 4.25712e+06 2.76817e+06 -4.71034e+06 -1.34815e+06 -1.55019e+06 611616
190 3 O 3.41602 32.1859 5.78248 -1.2 -8.78718 -3.18162e+06 -4.16156e+06 -1.42191e+06 -967157 55441 -1.50573e+06
191 1 Mg -1.05984 30.9098 1.4948 1.2 -8.69067 -533849 2.82373e+06 4.24523e+06 1.8973e+06 -610013 420054
192 2 Si 0.755243 28.8449 1.4948 2.4 -33.7873 8.95812e+06 1.14343e+07 9.80193e+06 1.12522e+06 1.59577e+06 2.69968e+06
193 3 O 0.735127 27.2317 1.4948 -1.2 -6.65484 -4.72944e+06 -1.27669e+06 -2.05848e+07 1.1779e+06 -9.3208e+06 3.13841e+06
194 3 O 7.37914 29.819 1.4948 -1.2 -9.72697 -4.31757e+06 -1.39689e+06 -816879 -932113 -644216 793930
195 3 O 0.0850649 29.5511 0.196716 -1.2 -5.53843 -2.95704e+06 -1.56069e+07 -1.44693e+07 2.70551e+06 -9.43853e+06 315711
196 3 O 0.0543974 29.5511 2.79288 -1.2 -8.93168 -1.76198e+06 -4.68206e+06 -1.55275e+06 -818191 -152731 745517
197 1 Mg 6.94543 33.243 0 1.2 -6.11083 3.86829e+06 2.5559e+06 -4.01651e+06 1.58289e+06 -1.42109e+06 -393055
198 1 Mg 4.23267 37.9507 1.4948 1.2 -9.1136 -708293 2.51955e+06 4.61954e+06 -1.12944e+06 -222230 83049.3
199 2 Si 6.02709 35.2665 1.4948 2.4 -34.1618 1.12174e+07 9.06987e+06 1.06713e+07 -418455 1.63976e+06 -1.41883e+06
200 3 O 6.09339 36.8798 1.4948 -1.2 -7.81449 -6.88124e+06 -238714 -1.0313e+07 -136795 -6.6222e+06 -2.08876e+06
201 3 O 2.40018 34.2925 1.4948 -1.2 -9.4239 -4.47337e+06 -1.03961e+06 -1.54632e+06 1.68846e+06 -496091 -1.17634e+06
202 3 O 5.31645 34.5604 0.196716 -1.2 -6.15493 -4.12592e+06 -1.32555e+07 -9.58016e+06 -952201 -7.85037e+06 712259
203 1 Mg 6.91449 33.243 2.9896 1.2 -8.09849 4.81294e+06 -1.47075e+06 -783198 1.30572e+06 -1.32874e+06 2.29024e+06
204 3 O 5.291 34.5604 2.79288 -1.2 -8.60711 -2.41709e+06 -3.88616e+06 -2.05623e+06 1.12075e+06 -295662 -1.49862e+06
205 1 Mg -0.471101 33.2843 4.4844 1.2 -8.97744 -706649 2.73694e+06 3.14929e+06 -497140 -211985 334826
206 2 Si -2.26307 35.9684 4.4844 2.4 -33.6692 1.24593e+07 8.81008e+06 8.85153e+06 -8787.97 -187876 338146
207 3 O -2.33122 34.3552 4.4844 -1.2 -9.13213 -4.3558e+06 -269227 -3.72821e+06 466283 -113830 -300556
208 3 O 1.36549 36.9425 4.4844 -1.2 -8.84645 -4.12906e+06 -2.67708e+06 -3.11484e+06 2.23662e+06 -315408 -151918
209 3 O -1.52658 36.6746 3.18632 -1.2 -8.6446 -3.26616e+06 -3.46098e+06 -1.25544e+06 1.14934e+06 147064 -1.61152e+06
210 3 O -1.55122 36.6746 5.78248 -1.2 -8.45282 -3.53854e+06 -3.65954e+06 -1.72699e+06 1.18682e+06 172592 1.39127e+06
211 1 Mg 1.882 35.6175 2.9896 1.2 -8.25165 5.03727e+06 -1.56225e+06 -690475 -1.09767e+06 -1.50067e+06 -1.33165e+06
212 1 Mg 4.69415 35.5762 4.4844 1.2 -9.05078 -114583 2.49084e+06 3.05321e+06 1.23095e+06 -103799 339268
213 2 Si 2.88522 37.641 4.4844 2.4 -33.7214 1.2643e+07 8.70622e+06 8.81022e+06 697966 -101893 310562
214 3 O 2.91159 39.2543 4.4844 -1.2 -9.01804 -4.59604e+06 -70176.9 -4.03114e+06 663035 10479.4 -53107.4
215 3 O -3.74183 36.667 4.4844 -1.2 -8.89891 -4.22342e+06 -2.44376e+06 -3.11534e+06 -1.26958e+06 -327627 -205097
216 3 O 3.58014 36.9349 3.18632 -1.2 -8.67886 -3.29352e+06 -3.57386e+06 -1.31256e+06 -850981 216729 1.0801e+06
217 1 Mg 1.90997 35.6175 0 1.2 -6.27377 3.38889e+06 2.32989e+06 -3.81444e+06 -1.65851e+06 -788783 1.03087e+06
218 3 O 3.55582 36.9349 5.78248 -1.2 -8.46182 -3.57875e+06 -3.69217e+06 -2.01844e+06 -838433 -211627 -1.48943e+06
219 1 Mg -0.93068 35.6588 1.4948 1.2 -8.99134 -469809 2.55179e+06 4.54279e+06 1.85517e+06 -326733 277395
220 2 Si 0.881882 33.5939 1.4948 2.4 -34.1037 1.05462e+07 9.73838e+06 1.0488e+07 1.40479e+06 1.5847e+06 2.85001e+06
221 3 O 0.859602 31.9807 1.4948 -1.2 -7.27107 -6.27628e+06 -714516 -1.49631e+07 1.16566e+06 -8.45763e+06 2.12195e+06
222 3 O 7.507 34.568 1.4948 -1.2 -9.45249 -4.61991e+06 -894253 -1.52338e+06 -927019 -444488 769954
223 3 O 0.210186 34.3001 0.196716 -1.2 -6.20155 -4.24533e+06 -1.39895e+07 -9.50118e+06 1.53382e+06 -7.92832e+06 -954308
224 3 O 0.184454 34.3001 2.79288 -1.2 -8.65104 -2.33313e+06 -4.064e+06 -2.09442e+06 -838586 -143386 674083
225 1 Mg 7.07415 37.992 0 1.2 -6.45416 3.05683e+06 2.15104e+06 -3.39938e+06 1.8748e+06 -401580 -1.16405e+06
226 1 Mg 4.36817 42.6997 1.4948 1.2 -9.2247 -704766 2.52524e+06 4.40643e+06 -988712 107225 229432
227 2 Si 6.16058 40.0155 1.4948 2.4 -34.2792 1.2326e+07 7.9988e+06 1.08292e+07 -357715 1.34334e+06 -1.52549e+06
228 3 O 6.22815 41.6288 1.4948 -1.2 -8.29087 -6.6323e+06 -54056.1 -7.07491e+06 22475.4 -4.53796e+06 -1.7195e+06
229 3 O 2.53282 39.0415 1.4948 -1.2 -9.20505 -4.65847e+06 -840685 -2.07105e+06 1.72554e+06 -333230 -983101
230 3 O 5.44674 39.3094 0.196716 -1.2 -6.81493 -4.92647e+06 -1.05918e+07 -5.94576e+06 -150566 -5.78147e+06 1.75102e+06
231 1 Mg 7.04922 37.992 2.9896 1.2 -8.28485 5.14307e+06 -1.78603e+06 -488498 1.30445e+06 -1.47406e+06 1.98335e+06
232 3 O 5.42658 39.3094 2.79288 -1.2 -8.47801 -2.75899e+06 -3.62754e+06 -2.21073e+06 1.13544e+06 -289441 -1.22203e+06
233 1 Mg -0.333062 38.0333 4.4844 1.2 -9.13942 -329334 2.47253e+06 3.2906e+06 -364841 -124024 96629.1
234 2 Si -2.12255 40.7174 4.4844 2.4 -33.6908 1.25952e+07 8.82327e+06 8.74092e+06 218405 -26652.3 191234
235 3 O -2.19212 39.1042 4.4844 -1.2 -9.0322 -4.59501e+06 -116167 -3.8012e+06 364422 -23002.3 -11636.9
236 3 O 1.50676 41.6915 4.4844 -1.2 -8.83394 -4.02413e+06 -2.66367e+06 -3.26028e+06 2.34115e+06 -208344 -101996
237 3 O -1.3884 41.4236 3.18632 -1.2 -8.56511 -3.2927e+06 -3.43552e+06 -1.48649e+06 1.13965e+06 94062.2 -1.60325e+06
238 3 O -1.40713 41.4236 5.78248 -1.2 -8.52543 -3.38837e+06 -3.69234e+06 -1.76445e+06 1.14356e+06 -52284.9 1.20069e+06
239 1 Mg 2.01892 40.3665 2.9896 1.2 -8.35812 5.17299e+06 -1.7009e+06 -503801 -1.11779e+06 -1.61063e+06 -1.4571e+06
240 1 Mg 4.83434 40.3252 4.4844 1.2 -9.07673 -12950.5 2.4083e+06 3.07446e+06 1.22653e+06 -171529 15981.6
241 2 Si 3.02698 42.39 4.4844 2.4 -33.637 1.2467e+07 8.84893e+06 8.70307e+06 771624 -406569 311319
242 3 O 3.05433 44.0033 4.4844 -1.2 -9.07603 -4.58227e+06 -120501 -3.90409e+06 560152 90998.8 -303492
243 3 O -3.60077 41.416 4.4844 -1.2 -8.94405 -4.2964e+06 -2.52941e+06 -2.89768e+06 -1.35496e+06 -296955 -149389
244 3 O 3.71851 41.6839 3.18632 -1.2 -8.61565 -3.32403e+06 -3.56547e+06 -1.50688e+06 -842668 299137 1.09927e+06
245 1 Mg 2.04077 40.3665 0 1.2 -6.56811 2.72762e+06 1.87452e+06 -3.64736e+06 -1.83986e+06 414541 1.66576e+06
246 3 O 3.70011 41.6839 5.78248 -1.2 -8.64484 -3.34416e+06 -3.7401e+06 -1.64954e+06 -885594 182101 -1.2564e+06
247 1 Mg -0.796865 40.4078 1.4948 1.2 -9.16767 -458883 2.48525e+06 4.48925e+06 1.75137e+06 51223.6 138072
248 2 Si 1.01387 38.3429 1.4948 2.4 -34.2962 1.18327e+07 8.46015e+06 1.08234e+07 1.53218e+06 1.44179e+06 2.1767e+06
249 3 O 0.989947 36.7297 1.4948 -1.2 -7.81304 -6.92444e+06 -254023 -1.04084e+07 1.03255e+06 -6.6191e+06 1.7791e+06
250 3 O 7.63988 39.317 1.4948 -1.2 -9.24267 -4.80367e+06 -740214 -2.00358e+06 -938775 -272638 1.00927e+06
251 3 O 0.340253 39.0491 0.196716 -1.2 -6.83331 -4.97706e+06 -1.15198e+07 -5.89316e+06 388521 -5.8498e+06 -1.60979e+06
252 3 O 0.319795 39.0491 2.79288 -1.2 -8.51243 -2.69288e+06 -3.80319e+06 -2.25699e+06 -860877 -208746 833257
253 1 Mg 7.20667 42.741 0 1.2 -6.69012 2.49385e+06 1.77175e+06 -3.54281e+06 1.99518e+06 938351 -1.86719e+06
254 1 Mg 4.50613 47.4487 1.4948 1.2 -9.21032 -676107 2.68422e+06 3.9926e+06 -840794 444632 712216
255 2 Si 6.29731 44.7645 1.4948 2.4 -34.2443 1.28793e+07 7.3485e+06 1.08472e+07 -211188 972923 -593163
256 3 O 6.36567 46.3778 1.4948 -1.2 -8.66351 -5.86577e+06 -52790.4 -5.14399e+06 168454 -2.73316e+06 -1.90773e+06
257 3 O 2.669 43.7905 1.4948 -1.2 -9.07072 -4.69072e+06 -934082 -2.43073e+06 1.72063e+06 -172196 -1.22742e+06
258 3 O 5.58048 44.0584 0.196716 -1.2 -7.40079 -5.05774e+06 -7.83141e+06 -3.672e+06 308848 -3.72794e+06 2.0132e+06
259 1 Mg 7.1879 42.741 2.9896 1.2 -8.31588 5.19992e+06 -1.76412e+06 -504251 1.29413e+06 -1.52326e+06 2.15717e+06
260 3 O 5.56564 44.0584 2.79288 -1.2 -8.47501 -2.94307e+06 -3.56498e+06 -2.11841e+06 1.11014e+06 -319238 -1.53808e+06
261 1 Mg -0.19105 42.7823 4.4844 1.2 -9.1287 -474219 2.50456e+06 3.38463e+06 -467981 -50783.9 257693
262 2 Si -1.97909 45.4664 4.4844 2.4 -33.6814 1.21786e+07 8.69795e+06 9.27131e+06 34857.6 -106096 1.07183e+06
263 3 O -2.04947 43.8532 4.4844 -1.2 -9.06277 -4.41905e+06 -167898 -3.87107e+06 480299 -73178.8 -413138
264 3 O 1.65063 46.4405 4.4844 -1.2 -8.89021 -4.14293e+06 -2.6292e+06 -3.08534e+06 2.3306e+06 -49331 -396082
265 3 O -1.24745 46.1726 3.18632 -1.2 -8.54533 -3.17166e+06 -3.44508e+06 -1.73236e+06 1.16937e+06 126523 -1.95501e+06
266 3 O -1.26044 46.1726 5.78248 -1.2 -8.53578 -3.04916e+06 -3.5018e+06 -2.08754e+06 1.28008e+06 289351 799912
267 1 Mg 2.15896 45.1155 2.9896 1.2 -8.36556 5.21793e+06 -1.68758e+06 -534355 -1.07275e+06 -1.73932e+06 -1.13791e+06
268 1 Mg 4.97763 45.0742 4.4844 1.2 -9.04256 -7578.25 2.33962e+06 3.08467e+06 1.32543e+06 8561.87 488601
269 2 Si 3.1711 47.139 4.4844 2.4 -33.5495 1.26328e+07 8.84255e+06 8.41394e+06 835442 -130919 901834