ITEM: TIMESTEP
8300
ITEM: NUMBER OF ATOMS
10500
ITEM: BOX BOUNDS xy xz yz pp pp pp
0.0000000000000000e+00 1.5297450000000000e+01 5.0990000000000002e+00
0.0000000000000000e+00 1.1872499999999999e+02 0.0000000000000000e+00
0.0000000000000000e+00 8.9688000000000002e+01 0.0000000000000000e+00
ITEM: ATOMS id type element xu yu zu q c_pe c_s[1] c_s[2] c_s[3] c_s[4] c_s[5] c_s[6]
1 1 Mg 6.2404 -6.37941e-06 0 1.2 -4.55385 8.06106e+06 -2.70016e+06 -5.32579e+06 -23380.4 2.6179e+06 -528471
2 1 Mg 3.46349 4.70768 1.4948 1.2 -8.66604 -4512.88 1.54529e+06 5.43986e+06 -933987 -591059 64042.5
3 2 Si 5.2885 2.02354 1.4948 2.4 -35.4858 1.03836e+07 9.18068e+06 1.30827e+07 8.82829e+06 784439 -3.45221e+06
4 3 O 5.33628 3.63678 1.4948 -1.2 -4.566 -1.06602e+06 -414331 -3.47021e+07 -314426 3.77118e+06 -3.79169e+06
5 3 O 1.67294 1.04952 1.4948 -1.2 -0.954611 -2.05254e+07 -7.85718e+07 -2.89895e+06 -2.41406e+07 -87137.8 179195
6 3 O 4.59532 1.31737 0.196716 -1.2 -2.89417 -2.19625e+06 -5.80303e+06 -3.13423e+07 -6.01017e+06 6.23013e+06 -2.36964e+06
7 1 Mg 6.18956 -6.37941e-06 2.9896 1.2 -5.00218 1.61229e+06 -2.89534e+07 -2.18888e+06 -8.85539e+06 2.58266e+06 3.76197e+06
8 3 O 4.55118 1.31737 2.79288 -1.2 -7.44352 -29904.1 -3.87898e+06 -3.90484e+06 -2.95182e+06 -3.48581e+06 -965690
9 1 Mg -1.20682 0.0413099 4.4844 1.2 8.84614 -3.09477e+07 -9.40727e+07 723160 -2.85041e+07 -1.33954e+06 -47687.9
10 2 Si -3.0337 2.72544 4.4844 2.4 -33.2431 1.41191e+07 5.18134e+06 1.0335e+07 1.44754e+06 356909 -425363
11 3 O -3.08099 1.11221 4.4844 -1.2 -9.55924 -6.00885e+06 758677 -3.12728e+06 -1.16428e+06 -402132 333489
12 3 O 0.582463 3.69946 4.4844 -1.2 -8.93711 -3.37269e+06 -4.34866e+06 -3.91948e+06 -643184 15207.6 -272583
13 3 O -2.29524 3.43162 3.18632 -1.2 -8.95154 -4.26842e+06 -1.5018e+06 -1.72189e+06 1.12054e+06 -829694 -955179
14 3 O -2.34216 3.43162 5.78248 -1.2 -8.79657 -3.58411e+06 -2.18755e+06 -2.99772e+06 919658 476529 1.08126e+06
15 1 Mg 1.12778 2.37449 2.9896 1.2 -7.66884 5.34537e+06 -2.58039e+06 201737 -3.24575e+06 -4.28843e+06 -2.31481e+06
16 1 Mg 3.92855 2.33318 4.4844 1.2 -8.44629 -3.99444e+06 4.00137e+06 5.55237e+06 1.39366e+06 403399 652040
17 2 Si 2.09341 4.39804 4.4844 2.4 -32.4609 1.24955e+07 4.25995e+06 1.11802e+07 346344 -295657 1.069e+06
18 3 O 2.09991 6.01128 4.4844 -1.2 -9.39532 -4.29396e+06 1.45318e+06 -5.25695e+06 479843 -199350 -313066
19 3 O -4.52137 3.42402 4.4844 -1.2 -9.12487 -2.94615e+06 -1.84457e+06 -4.68207e+06 -2.34319e+06 -1.01959e+06 -169353
20 3 O 2.80834 3.69187 3.18632 -1.2 -9.24777 -2.35855e+06 -1.72632e+06 -1.41841e+06 431366 -500768 -577972
21 1 Mg 1.17857 2.37449 0 1.2 -5.29665 -334083 -1.57777e+07 -5.48562e+06 6.53672e+06 1.19889e+06 4.29497e+06
22 3 O 2.76143 3.69187 5.78248 -1.2 -9.43478 -2.96463e+06 -1.18823e+06 -2.11468e+06 431525 -44193.6 -514680
23 1 Mg -1.67381 2.41581 1.4948 1.2 -7.71377 1.71144e+06 -1.15354e+06 5.06712e+06 1.35448e+06 -604730 829513
24 2 Si 0.16286 0.350945 1.4948 2.4 -24.7418 -7.93534e+06 1.07897e+07 1.30844e+07 1.5996e+06 2.73946e+06 558108
25 3 O 0.15972 -1.26229 1.4948 -1.2 -4.68783 -1.07806e+07 -7.21306e+06 -2.97676e+07 -5.59471e+06 -8.49069e+06 -2.23313e+06
26 3 O 6.77654 1.32496 1.4948 -1.2 -10.2435 -5.86498e+06 2.62551e+06 -2.29271e+06 -630320 -682604 1.31321e+06
27 3 O -0.508028 1.05712 0.196716 -1.2 -9.39278 -79920.6 -3.802e+06 -1.59975e+06 -567966 206962 -4.22746e+06
28 3 O -0.552171 1.05712 2.79288 -1.2 -6.72425 -5.36706e+06 -3.78302e+06 -2.55541e+07 1.4137e+06 -6.70027e+06 -5.30653e+06
29 1 Mg 6.31713 4.74899 0 1.2 -5.18954 785227 -1.40431e+07 -4.97989e+06 -7.32743e+06 1.4434e+06 -3.73285e+06
30 1 Mg 3.54847 9.45668 1.4948 1.2 -8.6179 726352 305480 5.85028e+06 -969194 -884453 73491
31 2 Si 5.36879 6.77254 1.4948 2.4 -34.7954 8.07633e+06 9.4152e+06 1.42051e+07 1.63842e+06 220444 -1.69112e+06
32 3 O 5.41937 8.38578 1.4948 -1.2 -4.48126 -765213 453872 -3.66115e+07 774525 1.07862e+06 -4.50573e+06
33 3 O 1.75158 5.79852 1.4948 -1.2 -9.28128 -4.36914e+06 -1.10977e+06 -2.6631e+06 1.95304e+06 -1.58744e+06 -1.39574e+06
34 3 O 4.67421 6.06637 0.196716 -1.2 -3.48381 -322263 -8.85037e+06 -3.27253e+07 -1.99826e+06 1.25447e+06 -4.43435e+06
35 1 Mg 6.26654 4.74899 2.9896 1.2 -8.17425 4.29577e+06 -2.8396e+06 1.2103e+06 1.76456e+06 -794329 2.02889e+06
36 3 O 4.63043 6.06637 2.79288 -1.2 -8.66937 -1.89738e+06 -2.6651e+06 -3.50365e+06 949811 -172688 -1.61336e+06
37 1 Mg -1.12976 4.79031 4.4844 1.2 -8.8991 -543681 1.52074e+06 4.15049e+06 -699750 -538297 51171.3
38 2 Si -2.9517 7.47444 4.4844 2.4 -33.2057 1.16225e+07 6.13458e+06 1.16073e+07 -31723.5 -181059 184259
39 3 O -3.00198 5.86121 4.4844 -1.2 -9.28924 -4.09675e+06 1.19308e+06 -5.22277e+06 124329 -213633 -135163
40 3 O 0.666315 8.44846 4.4844 -1.2 -9.15223 -3.69001e+06 -1.29173e+06 -4.43348e+06 2.08462e+06 -476886 -210626
41 3 O -2.21213 8.18062 3.18632 -1.2 -8.88787 -3.2409e+06 -2.0335e+06 -2.02591e+06 1.10005e+06 -236358 -1.66272e+06
42 3 O -2.25864 8.18062 5.78248 -1.2 -8.84153 -3.07918e+06 -2.42821e+06 -3.13317e+06 1.04864e+06 189870 1.44802e+06
43 1 Mg 1.20893 7.12349 2.9896 1.2 -8.17893 4.47878e+06 -2.97861e+06 1.15337e+06 -1.26024e+06 -1.34066e+06 -1.49976e+06
44 1 Mg 4.00982 7.08218 4.4844 1.2 -8.8221 -615434 1.09691e+06 4.57388e+06 1.00991e+06 -145581 309239
45 2 Si 2.17861 9.14704 4.4844 2.4 -33.0965 1.17427e+07 6.2656e+06 1.11394e+07 544806 123929 818663
46 3 O 2.18828 10.7603 4.4844 -1.2 -9.30898 -4.19364e+06 1.20364e+06 -5.23763e+06 482589 -256069 -593860
47 3 O -4.43805 8.17302 4.4844 -1.2 -9.12211 -3.51833e+06 -1.26374e+06 -4.64003e+06 -1.48575e+06 -506791 -230698
48 3 O 2.89193 8.44087 3.18632 -1.2 -8.90913 -3.13336e+06 -2.18978e+06 -2.09833e+06 -914888 -292926 977884
49 1 Mg 1.25915 7.12349 0 1.2 -5.64263 1.47632e+06 -8.93616e+06 -4.94784e+06 5.90299e+06 1.35341e+06 2.69807e+06
50 3 O 2.84547 8.44087 5.78248 -1.2 -8.93427 -3.03921e+06 -2.52232e+06 -2.90094e+06 -827636 -343270 -1.38996e+06
51 1 Mg -1.59284 7.16481 1.4948 1.2 -8.50492 1.22635e+06 21312.9 5.65206e+06 1.46195e+06 -956659 473762
52 2 Si 0.240329 5.09994 1.4948 2.4 -34.4653 8.95108e+06 8.54775e+06 1.36696e+07 -1.9261e+06 -1.14884e+06 1.92598e+06
53 3 O 0.234538 3.48671 1.4948 -1.2 -5.06975 -2.02185e+06 1.44253e+06 -3.48319e+07 380628 5.23129e+06 4.07792e+06
54 3 O 6.85564 6.07396 1.4948 -1.2 -9.34808 -4.76511e+06 -547767 -2.68402e+06 -1.32884e+06 -1.83685e+06 1.10187e+06
55 3 O -0.429565 5.80612 0.196716 -1.2 -3.74315 -1.11639e+06 -7.52677e+06 -3.27953e+07 1.83893e+06 1.24015e+06 4.58776e+06
56 3 O -0.473377 5.80612 2.79288 -1.2 -8.76648 -2.42473e+06 -2.26629e+06 -3.31966e+06 -795920 378131 1.22155e+06
57 1 Mg 6.40169 9.49799 0 1.2 -5.64002 2.17924e+06 -7.91668e+06 -5.1615e+06 -5.4777e+06 1.00276e+06 -2.06073e+06
58 1 Mg 3.64209 14.2057 1.4948 1.2 -8.66128 614588 486367 5.80978e+06 -1.03392e+06 -941101 366464
59 2 Si 5.45748 11.5215 1.4948 2.4 -34.8457 8.52207e+06 8.83791e+06 1.43931e+07 899431 362791 -989994
60 3 O 5.51101 13.1348 1.4948 -1.2 -4.51806 -980765 510645 -3.6214e+07 463918 -2.54326e+06 -4.99829e+06
61 3 O 1.83851 10.5475 1.4948 -1.2 -9.28426 -4.68084e+06 -428232 -2.75706e+06 1.54882e+06 -1.60072e+06 -1.59284e+06
62 3 O 4.7611 10.8154 0.196716 -1.2 -3.26863 -26191.8 -9.99652e+06 -3.3443e+07 -2.46826e+06 -1.79908e+06 -4.84505e+06
63 1 Mg 6.35203 9.49799 2.9896 1.2 -8.19622 4.42713e+06 -2.97949e+06 1.25171e+06 1.31237e+06 -1.20022e+06 2.36006e+06
64 3 O 4.71833 10.8154 2.79288 -1.2 -8.63862 -2.19451e+06 -2.36599e+06 -3.56779e+06 1.0623e+06 8993.06 -1.82356e+06
65 1 Mg -1.0438 9.53931 4.4844 1.2 -8.80972 -574452 1.23707e+06 4.28267e+06 -518657 -368870 352572
66 2 Si -2.8604 12.2234 4.4844 2.4 -33.2302 1.18857e+07 5.9366e+06 1.1577e+07 23533.4 -85546.5 1.39395e+06
67 3 O -2.91391 10.6102 4.4844 -1.2 -9.30889 -4.1499e+06 1.11812e+06 -5.08128e+06 175114 -125309 -558152
68 3 O 0.7596 13.1975 4.4844 -1.2 -9.04967 -3.73564e+06 -1.1046e+06 -4.73653e+06 2.16237e+06 -488500 -583460
69 3 O -2.12001 12.9296 3.18632 -1.2 -8.84155 -3.25571e+06 -1.99417e+06 -2.12975e+06 1.14483e+06 -204183 -2.15003e+06
70 3 O -2.16532 12.9296 5.78248 -1.2 -8.76794 -3.1706e+06 -1.99307e+06 -3.50581e+06 1.08991e+06 -93976.8 618387
71 1 Mg 1.29891 11.8725 2.9896 1.2 -8.22643 4.55589e+06 -3.00621e+06 1.1768e+06 -1.19031e+06 -1.20436e+06 -1.0766e+06
72 1 Mg 4.10033 11.8312 4.4844 1.2 -8.85476 -478047 1.07549e+06 4.51019e+06 1.1014e+06 -298268 716364
73 2 Si 2.27333 13.896 4.4844 2.4 -33.2839 1.19911e+07 5.80537e+06 1.16514e+07 657167 33979.6 1.18044e+06
74 3 O 2.28634 15.5093 4.4844 -1.2 -9.23266 -4.31947e+06 1.28764e+06 -5.3157e+06 469609 -226725 -400741
75 3 O -4.34533 12.922 4.4844 -1.2 -9.10285 -3.75848e+06 -1.0544e+06 -4.63877e+06 -1.48132e+06 -463286 -719947
76 3 O 2.98455 13.1899 3.18632 -1.2 -8.86763 -3.22836e+06 -2.10175e+06 -2.18099e+06 -947706 -180153 675472
77 1 Mg 1.34779 11.8725 0 1.2 -5.88592 3.34176e+06 -4.2613e+06 -5.19947e+06 3.54968e+06 826979 2.23995e+06
78 3 O 2.93934 13.1899 5.78248 -1.2 -8.78946 -3.14242e+06 -2.12987e+06 -3.48293e+06 -942056 -275870 -1.86222e+06
79 1 Mg -1.50344 11.9138 1.4948 1.2 -8.62963 972550 287422 5.82331e+06 1.57102e+06 -979197 1.01829e+06
80 2 Si 0.326006 9.84894 1.4948 2.4 -34.8067 8.54737e+06 8.86826e+06 1.42474e+07 -600503 78664.8 3.12523e+06
81 3 O 0.317364 8.23571 1.4948 -1.2 -4.49135 -906793 575032 -3.67043e+07 -132865 1.20459e+06 3.93874e+06
82 3 O 6.94307 10.823 1.4948 -1.2 -9.32172 -4.83611e+06 -257437 -2.67202e+06 -995370 -1.51042e+06 534525
83 3 O -0.343122 10.5551 0.196716 -1.2 -3.36046 -278933 -9.46021e+06 -3.35437e+07 2.46101e+06 -2.00802e+06 4.00782e+06
84 3 O -0.385966 10.5551 2.79288 -1.2 -8.68053 -2.27154e+06 -2.41672e+06 -3.51782e+06 -870461 113844 609266
85 1 Mg 6.49448 14.247 0 1.2 -5.79455 3.8212e+06 -3.24401e+06 -5.65627e+06 -2.96732e+06 221722 -771098
86 1 Mg 3.74457 18.9547 1.4948 1.2 -8.62594 217042 1.19188e+06 5.368e+06 -1.11437e+06 -960250 75672.5
87 2 Si 5.55495 16.2705 1.4948 2.4 -34.697 8.60209e+06 9.21908e+06 1.37124e+07 522167 801713 -1.16174e+06
88 3 O 5.6115 17.8838 1.4948 -1.2 -4.93076 -1.84078e+06 106638 -3.30578e+07 83209.1 -6.05848e+06 -4.56623e+06
89 3 O 1.93416 15.2965 1.4948 -1.2 -9.35809 -4.68723e+06 -348479 -2.46216e+06 1.53278e+06 -1.39472e+06 -1.66712e+06
90 3 O 4.85636 15.5644 0.196716 -1.2 -3.37879 109398 -1.21088e+07 -3.14568e+07 -3.03614e+06 -5.14691e+06 -4.43188e+06
91 1 Mg 6.44662 14.247 2.9896 1.2 -8.20298 4.59002e+06 -3.04134e+06 1.16055e+06 1.29582e+06 -1.19414e+06 2.60571e+06
92 3 O 4.81537 15.5644 2.79288 -1.2 -8.63208 -2.2116e+06 -2.4902e+06 -3.46794e+06 1.06885e+06 -30821.9 -1.80196e+06
93 1 Mg -0.948271 14.2883 4.4844 1.2 -8.92801 -544350 954543 4.71881e+06 -561297 -340570 506311
94 2 Si -2.75928 16.9724 4.4844 2.4 -33.3157 1.20071e+07 6.28612e+06 1.12467e+07 -54790.7 -161392 408252
95 3 O -2.81617 15.3592 4.4844 -1.2 -9.22529 -4.28578e+06 1.33371e+06 -5.28167e+06 289318 -148697 -434744
96 3 O 0.862762 17.9465 4.4844 -1.2 -9.04977 -3.71051e+06 -1.54392e+06 -4.32742e+06 2.16482e+06 -527877 -74548.4
97 3 O -2.0185 17.6786 3.18632 -1.2 -8.86773 -3.18893e+06 -2.39106e+06 -1.77711e+06 1.16494e+06 -123589 -1.79093e+06
98 3 O -2.06164 17.6786 5.78248 -1.2 -8.69981 -3.3404e+06 -2.44512e+06 -3.02793e+06 1.12893e+06 91359 1.46773e+06
99 1 Mg 1.39817 16.6215 2.9896 1.2 -8.20304 4.60909e+06 -2.76318e+06 840943 -1.16149e+06 -1.21451e+06 -1.24925e+06
100 1 Mg 4.20062 16.5802 4.4844 1.2 -8.89137 -374379 1.13952e+06 4.40183e+06 1.14171e+06 -281655 326498
101 2 Si 2.37796 18.645 4.4844 2.4 -33.2136 1.18318e+07 6.89756e+06 1.06069e+07 710320 -38951 116617
102 3 O 2.39434 20.2583 4.4844 -1.2 -9.33328 -4.14541e+06 511615 -4.55195e+06 478575 -186471 19467.7
103 3 O -4.24274 17.671 4.4844 -1.2 -9.09765 -3.77941e+06 -1.37871e+06 -4.30686e+06 -1.41215e+06 -464426 -187058
104 3 O 3.08659 17.9389 3.18632 -1.2 -8.90783 -3.14872e+06 -2.53488e+06 -1.80265e+06 -942996 -81704.3 1.03289e+06
105 1 Mg 1.44478 16.6215 0 1.2 -5.87075 4.81069e+06 -744524 -5.76633e+06 1.41257e+06 -36663.4 1.55583e+06
106 3 O 3.0436 17.9389 5.78248 -1.2 -8.75593 -3.17118e+06 -2.51349e+06 -3.14054e+06 -917692 -136859 -1.08889e+06
107 1 Mg -1.40524 16.6628 1.4948 1.2 -8.63611 673750 814103 5.55819e+06 1.68582e+06 -990161 902038
108 2 Si 0.420358 14.5979 1.4948 2.4 -34.7782 8.53372e+06 9.04145e+06 1.40265e+07 -136716 553882 3.81008e+06
109 3 O 0.408732 12.9847 1.4948 -1.2 -4.50074 -982428 539303 -3.64028e+07 229092 -2.55505e+06 3.58963e+06
110 3 O 7.03923 15.572 1.4948 -1.2 -9.40386 -4.82401e+06 -223739 -2.34482e+06 -941988 -1.29014e+06 408222
111 3 O -0.248332 15.3041 0.196716 -1.2 -3.46169 -162493 -1.16023e+07 -3.16111e+07 3.25755e+06 -5.39104e+06 3.2649e+06
112 3 O -0.289436 15.3041 2.79288 -1.2 -8.65485 -2.21566e+06 -2.56563e+06 -3.50646e+06 -855462 58300.6 540166
113 1 Mg 6.59566 18.996 0 1.2 -5.76524 4.94022e+06 -16434.6 -6.00661e+06 -927979 -674213 -481460
114 1 Mg 3.85574 23.7037 1.4948 1.2 -8.56953 -302586 1.88086e+06 4.96843e+06 -1.18724e+06 -917356 -83368.2
115 2 Si 5.66125 21.0195 1.4948 2.4 -34.3542 8.59433e+06 9.98753e+06 1.24644e+07 169947 1.2297e+06 -1.93545e+06
116 3 O 5.72074 22.6328 1.4948 -1.2 -5.67094 -3.28421e+06 -323381 -2.76571e+07 -211225 -8.51586e+06 -3.82239e+06
117 3 O 2.03867 20.0455 1.4948 -1.2 -9.51173 -4.49757e+06 -684957 -1.8665e+06 1.56281e+06 -1.15406e+06 -1.24027e+06
118 3 O 4.96004 20.3134 0.196716 -1.2 -3.84914 -342000 -1.41081e+07 -2.70659e+07 -3.17956e+06 -7.9581e+06 -3.04967e+06
119 1 Mg 6.55057 18.996 2.9896 1.2 -8.10887 4.54663e+06 -2.49849e+06 510862 1.29252e+06 -1.21195e+06 2.18887e+06
120 3 O 4.92172 20.3134 2.79288 -1.2 -8.73477 -2.01225e+06 -3.16045e+06 -2.86837e+06 1.08589e+06 -84697.4 -1.41062e+06
121 1 Mg -0.84282 19.0373 4.4844 1.2 -8.87112 -618315 1.60334e+06 4.04435e+06 -515292 -280549 -572.657
122 2 Si -2.64823 21.7214 4.4844 2.4 -33.0026 1.16121e+07 7.8291e+06 9.598e+06 -12015.3 -241026 27459.3
123 3 O -2.70847 20.1082 4.4844 -1.2 -9.33164 -4.15097e+06 551373 -4.45839e+06 329641 -90785 -14333.8
124 3 O 0.97581 22.6955 4.4844 -1.2 -9.21063 -3.49198e+06 -2.29265e+06 -3.54121e+06 2.20468e+06 -513307 50489.5
125 3 O -1.9076 22.4276 3.18632 -1.2 -9.00496 -2.95178e+06 -3.05722e+06 -1.1661e+06 1.16293e+06 -43466.7 -1.57068e+06
126 3 O -1.9475 22.4276 5.78248 -1.2 -8.91832 -3.05439e+06 -3.22429e+06 -2.0736e+06 1.12527e+06 128702 1.41924e+06
127 1 Mg 1.50678 21.3705 2.9896 1.2 -8.06114 4.4854e+06 -2.09811e+06 72305.4 -1.15243e+06 -1.23899e+06 -1.53639e+06
128 1 Mg 4.31086 21.3292 4.4844 1.2 -8.76489 -637353 1.94566e+06 3.65915e+06 1.17317e+06 -256693 95353.8
129 2 Si 2.49243 23.394 4.4844 2.4 -32.8971 1.13181e+07 8.21118e+06 9.30325e+06 723411 65553.4 -9649.36
130 3 O 2.51204 25.0073 4.4844 -1.2 -9.50154 -3.86389e+06 -21574 -4.03022e+06 565146 -199626 86988.1
131 3 O -4.13026 22.42 4.4844 -1.2 -9.25946 -3.54943e+06 -2.08718e+06 -3.56741e+06 -1.37854e+06 -400441 -59329.6
132 3 O 3.19799 22.6879 3.18632 -1.2 -9.04209 -2.87654e+06 -3.1972e+06 -1.25187e+06 -922350 -309.029 1.23191e+06
133 1 Mg 1.5501 21.3705 0 1.2 -5.78646 5.47109e+06 1.30813e+06 -5.83604e+06 -53135.2 -985225 691470
134 3 O 3.1583 22.6879 5.78248 -1.2 -8.91023 -2.8184e+06 -3.32913e+06 -2.50167e+06 -943085 -323033 -1.26403e+06
135 1 Mg -1.29822 21.4118 1.4948 1.2 -8.57916 234942 1.56448e+06 5.05103e+06 1.80352e+06 -951871 475425
136 2 Si 0.523568 19.3469 1.4948 2.4 -34.4901 8.50668e+06 9.87468e+06 1.27868e+07 319412 984165 3.20679e+06
137 3 O 0.508934 17.7337 1.4948 -1.2 -4.91208 -1.86038e+06 128012 -3.32242e+07 663066 -6.07772e+06 3.62353e+06
138 3 O 7.14425 20.321 1.4948 -1.2 -9.56261 -4.63518e+06 -569709 -1.7424e+06 -929433 -1.06728e+06 771008
139 3 O -0.145107 20.0531 0.196716 -1.2 -3.94447 -715798 -1.3753e+07 -2.70986e+07 3.67622e+06 -8.18e+06 2.73927e+06
140 3 O -0.183601 20.0531 2.79288 -1.2 -8.75765 -2.04192e+06 -3.24346e+06 -2.88642e+06 -846905 -11146.2 889888
141 1 Mg 6.70502 23.745 0 1.2 -5.73906 5.24509e+06 1.66367e+06 -5.6498e+06 393489 -1.46448e+06 -390846
142 1 Mg 3.97493 28.4527 1.4948 1.2 -8.47242 -915734 2.76103e+06 4.31318e+06 -1.23335e+06 -798115 -46587.2
143 2 Si 5.77602 25.7685 1.4948 2.4 -33.9159 8.73075e+06 1.04491e+07 1.12517e+07 -119235 1.57944e+06 -2.04389e+06
144 3 O 5.83821 27.3818 1.4948 -1.2 -6.63919 -4.75841e+06 -798279 -2.09209e+07 -341000 -9.32142e+06 -3.18681e+06
145 3 O 2.15175 24.7945 1.4948 -1.2 -9.67319 -4.22982e+06 -986867 -1.43915e+06 1.61331e+06 -906290 -1.06356e+06
146 3 O 5.07184 25.0624 0.196716 -1.2 -4.60075 -1.36934e+06 -1.51813e+07 -2.11389e+07 -2.77852e+06 -9.45216e+06 -1.6615e+06
147 1 Mg 6.66374 23.745 2.9896 1.2 -7.93829 4.39281e+06 -1.93384e+06 -170367 1.3163e+06 -1.2513e+06 2.01058e+06
148 3 O 5.03707 25.0624 2.79288 -1.2 -8.89052 -1.77485e+06 -3.71659e+06 -2.33881e+06 1.09478e+06 -143527 -1.2565e+06
149 1 Mg -0.727559 23.7863 4.4844 1.2 -8.70634 -927590 2.24582e+06 3.44031e+06 -492426 -269382 -22223.4
150 2 Si -2.5277 26.4704 4.4844 2.4 -32.6553 1.10614e+07 8.92734e+06 8.50305e+06 157524 -68579.7 -168039
151 3 O -2.59107 24.8572 4.4844 -1.2 -9.50616 -3.89385e+06 10970.1 -3.88381e+06 310933 -97761.1 53483.5
152 3 O 1.09817 27.4445 4.4844 -1.2 -9.39319 -3.15321e+06 -2.89178e+06 -2.99515e+06 2.28562e+06 -398793 107407
153 3 O -1.78784 27.1766 3.18632 -1.2 -9.16293 -2.61664e+06 -3.66194e+06 -698483 1.1358e+06 -13577.9 -1.49607e+06
154 3 O -1.82343 27.1766 5.78248 -1.2 -9.05273 -2.60475e+06 -3.79663e+06 -1.83916e+06 1.00816e+06 -104121 1.49613e+06
155 1 Mg 1.62435 26.1195 2.9896 1.2 -7.88047 4.28872e+06 -1.5371e+06 -578476 -1.17068e+06 -1.31791e+06 -1.58231e+06
156 1 Mg 4.43064 26.0782 4.4844 1.2 -8.5864 -920689 2.45599e+06 3.14724e+06 1.1891e+06 -275092 -98681.9
157 2 Si 2.61607 28.143 4.4844 2.4 -32.4953 1.07152e+07 9.48305e+06 7.98673e+06 604535 -222261 -267614
158 3 O 2.63853 29.7563 4.4844 -1.2 -9.69726 -3.55816e+06 -636514 -3.41667e+06 613726 21969.1 161744
159 3 O -4.00841 27.169 4.4844 -1.2 -9.45678 -3.37354e+06 -2.65561e+06 -2.85412e+06 -1.40265e+06 -419631 112219
160 3 O 3.3182 27.4369 3.18632 -1.2 -9.21245 -2.57065e+06 -3.83034e+06 -728560 -873539 131997 1.32581e+06
161 1 Mg 1.66335 26.1195 0 1.2 -5.72836 5.10829e+06 2.3882e+06 -5.42683e+06 -884696 -1.63964e+06 523696
162 3 O 3.28288 27.4369 5.78248 -1.2 -9.14702 -2.48361e+06 -3.92913e+06 -1.73232e+06 -772620 -170738 -840926
163 1 Mg -1.18278 26.1608 1.4948 1.2 -8.50628 -316661 2.28593e+06 4.5722e+06 1.89103e+06 -828734 346255
164 2 Si 0.635424 24.0959 1.4948 2.4 -34.0956 8.60101e+06 1.03852e+07 1.16173e+07 754293 1.33786e+06 2.85436e+06
165 3 O 0.617906 22.4827 1.4948 -1.2 -5.65669 -3.33902e+06 -304294 -2.77792e+07 1.00653e+06 -8.52965e+06 3.48274e+06
166 3 O 7.25781 25.07 1.4948 -1.2 -9.72819 -4.37545e+06 -878476 -1.30778e+06 -934311 -858595 884928
167 3 O -0.0337363 24.8021 0.196716 -1.2 -4.6934 -1.77997e+06 -1.51049e+07 -2.10694e+07 3.49787e+06 -9.61438e+06 1.60062e+06
168 3 O -0.0687235 24.8021 2.79288 -1.2 -8.91447 -1.80318e+06 -3.83317e+06 -2.33538e+06 -834942 -67818.7 953423
169 1 Mg 6.82195 28.494 0 1.2 -5.67621 4.49721e+06 2.89206e+06 -5.35142e+06 1.16082e+06 -1.75865e+06 -235741
170 1 Mg 4.10106 33.2017 1.4948 1.2 -8.39203 -1.48921e+06 3.48705e+06 3.69137e+06 -1.2021e+06 -562802 -416708
171 2 Si 5.89839 30.5175 1.4948 2.4 -33.3566 8.91815e+06 1.12713e+07 9.42901e+06 -316979 1.74038e+06 -2.26686e+06
172 3 O 5.96289 32.1308 1.4948 -1.2 -7.66653 -5.65214e+06 -1.33571e+06 -1.41894e+07 -294000 -8.47604e+06 -2.21536e+06
173 3 O 2.27266 29.5435 1.4948 -1.2 -9.85871 -3.85998e+06 -1.6011e+06 -849872 1.67034e+06 -659828 -931720
174 3 O 5.19102 29.8114 0.196716 -1.2 -5.64442 -2.41646e+06 -1.55892e+07 -1.42101e+07 -1.94138e+06 -9.31685e+06 -268736
175 1 Mg 6.78546 28.494 2.9896 1.2 -7.73823 4.19995e+06 -1.30351e+06 -922824 1.33397e+06 -1.2517e+06 1.89118e+06
176 3 O 5.16061 29.8114 2.79288 -1.2 -9.08561 -1.57687e+06 -4.3888e+06 -1.59081e+06 1.1126e+06 -212418 -1.10412e+06
177 1 Mg -0.603205 28.5353 4.4844 1.2 -8.53782 -1.38595e+06 2.85091e+06 3.01643e+06 -428746 -192511 -95665.3
178 2 Si -2.39877 31.2194 4.4844 2.4 -32.2574 1.04327e+07 9.96785e+06 7.45175e+06 86133.7 182733 -448508
179 3 O -2.46483 29.6062 4.4844 -1.2 -9.69991 -3.58243e+06 -597191 -3.26838e+06 340020 -231500 173685
180 3 O 1.22864 32.1935 4.4844 -1.2 -9.55072 -2.78724e+06 -3.29561e+06 -2.71661e+06 2.23701e+06 -292632 358001
181 3 O -1.66032 31.9256 3.18632 -1.2 -9.3197 -2.27505e+06 -4.21441e+06 -319506 1.163e+06 7231.38 -1.21469e+06
182 3 O -1.69072 31.9256 5.78248 -1.2 -9.28354 -2.18678e+06 -4.07683e+06 -1.34617e+06 1.231e+06 -282056 1.55663e+06
183 1 Mg 1.7499 30.8685 2.9896 1.2 -7.69192 4.02174e+06 -922549 -1.22156e+06 -1.14293e+06 -1.45083e+06 -1.74489e+06
184 1 Mg 4.55894 30.8272 4.4844 1.2 -8.37668 -1.10025e+06 3.01856e+06 2.43125e+06 1.20002e+06 -281043 -213631
185 2 Si 2.7476 32.892 4.4844 2.4 -32.1729 1.01027e+07 1.02366e+07 7.32863e+06 854935 -468942 -712226
186 3 O 2.77235 34.5053 4.4844 -1.2 -9.82026 -3.28604e+06 -898490 -3.23764e+06 483031 18251.7 487938
187 3 O -3.87837 31.918 4.4844 -1.2 -9.66482 -3.16066e+06 -3.1415e+06 -2.26351e+06 -1.33967e+06 -464850 220498
188 3 O 3.44611 32.1859 3.18632 -1.2 -9.3696 -2.2715e+06 -4.39088e+06 -310484 -882801 260356 1.55179e+06
189 1 Mg 1.7837 30.8685 0 1.2 -5.64411 3.8014e+06 3.41036e+06 -5.33765e+06 -1.37215e+06 -1.58945e+06 356014
190 3 O 3.41602 32.1859 5.78248 -1.2 -9.36823 -2.29028e+06 -4.2844e+06 -1.14793e+06 -893423 209525 -890895
191 1 Mg -1.05984 30.9098 1.4948 1.2 -8.4011 -981433 3.19786e+06 3.85474e+06 1.9119e+06 -605289 7240.08
192 2 Si 0.755243 28.8449 1.4948 2.4 -33.5779 8.66753e+06 1.11666e+07 1.0025e+07 1.12722e+06 1.52732e+06 2.61383e+06
193 3 O 0.735127 27.2317 1.4948 -1.2 -6.6249 -4.81272e+06 -774376 -2.10512e+07 1.17702e+06 -9.28802e+06 2.90685e+06
194 3 O 7.37914 29.819 1.4948 -1.2 -9.91742 -4.02043e+06 -1.51098e+06 -694450 -944839 -670052 1.03073e+06
195 3 O 0.0850649 29.5511 0.196716 -1.2 -5.70815 -2.72714e+06 -1.58865e+07 -1.41476e+07 2.70532e+06 -9.40299e+06 350261
196 3 O 0.0543974 29.5511 2.79288 -1.2 -9.09834 -1.49868e+06 -4.49913e+06 -1.73168e+06 -841609 -124471 1.04076e+06
197 1 Mg 6.94543 33.243 0 1.2 -5.66028 3.16601e+06 3.57498e+06 -5.05519e+06 1.59923e+06 -1.41948e+06 -1.08025e+06
198 1 Mg 4.23267 37.9507 1.4948 1.2 -8.42605 -1.83159e+06 3.55604e+06 3.60477e+06 -1.11774e+06 -228521 -753112
199 2 Si 6.02709 35.2665 1.4948 2.4 -32.9729 9.34721e+06 1.10342e+07 8.67222e+06 -422940 1.59522e+06 -3.06468e+06
200 3 O 6.09339 36.8798 1.4948 -1.2 -8.474 -5.83572e+06 -1.26921e+06 -9.27202e+06 -135577 -6.59313e+06 -1.24504e+06
201 3 O 2.40018 34.2925 1.4948 -1.2 -9.96025 -3.58378e+06 -1.95318e+06 -663917 1.68672e+06 -496927 -405346
202 3 O 5.31645 34.5604 0.196716 -1.2 -6.68044 -3.29313e+06 -1.43392e+07 -8.48787e+06 -956853 -7.84162e+06 1.53548e+06
203 1 Mg 6.91449 33.243 2.9896 1.2 -7.57037 4.01263e+06 -862008 -1.43784e+06 1.28855e+06 -1.32741e+06 1.55083e+06
204 3 O 5.291 34.5604 2.79288 -1.2 -9.21359 -1.45885e+06 -4.68466e+06 -1.24761e+06 1.13165e+06 -252963 -722856
205 1 Mg -0.471101 33.2843 4.4844 1.2 -8.37617 -1.65389e+06 3.13224e+06 2.73607e+06 -458482 -118562 -490295
206 2 Si -2.26307 35.9684 4.4844 2.4 -32.0617 1.01457e+07 1.03046e+07 7.09032e+06 -69430.1 -245362 -1.35145e+06
207 3 O -2.33122 34.3552 4.4844 -1.2 -9.83926 -3.32907e+06 -819900 -3.08701e+06 509377 -112558 544226
208 3 O 1.36549 36.9425 4.4844 -1.2 -9.63508 -2.78641e+06 -3.51009e+06 -2.37174e+06 2.23566e+06 -432535 752913
209 3 O -1.52658 36.6746 3.18632 -1.2 -9.37481 -2.16648e+06 -4.37466e+06 -275642 1.17338e+06 133400 -793268
210 3 O -1.55122 36.6746 5.78248 -1.2 -9.41349 -2.27098e+06 -4.28371e+06 -878103 1.23658e+06 189364 2.24765e+06
211 1 Mg 1.882 35.6175 2.9896 1.2 -7.59142 3.91567e+06 -695913 -1.49308e+06 -1.08106e+06 -1.46899e+06 -2.15666e+06
212 1 Mg 4.69415 35.5762 4.4844 1.2 -8.2915 -1.35453e+06 3.17313e+06 2.39262e+06 1.23701e+06 -216438 -472600
213 2 Si 2.88522 37.641 4.4844 2.4 -32.1211 9.81951e+06 1.0543e+07 7.2283e+06 846109 -49645 -1.41082e+06
214 3 O 2.91159 39.2543 4.4844 -1.2 -9.81333 -3.23381e+06 -1.00831e+06 -3.17427e+06 566568 -93780 706009
215 3 O -3.74183 36.667 4.4844 -1.2 -9.7177 -2.97117e+06 -3.26447e+06 -2.24859e+06 -1.25308e+06 -235110 613936
216 3 O 3.58014 36.9349 3.18632 -1.2 -9.39981 -2.07094e+06 -4.5163e+06 -441421 -881969 235115 1.89507e+06
217 1 Mg 1.90997 35.6175 0 1.2 -5.70789 2.4642e+06 3.44632e+06 -4.91285e+06 -1.66136e+06 -772687 120501
218 3 O 3.55582 36.9349 5.78248 -1.2 -9.35243 -1.94474e+06 -4.40138e+06 -1.39331e+06 -981530 -106278 -434189
219 1 Mg -0.93068 35.6588 1.4948 1.2 -8.37995 -1.43279e+06 3.5466e+06 3.53143e+06 1.85054e+06 -310980 -573801
220 2 Si 0.881882 33.5939 1.4948 2.4 -33.115 8.92606e+06 1.1417e+07 8.84537e+06 1.41149e+06 1.60636e+06 1.39077e+06
221 3 O 0.859602 31.9807 1.4948 -1.2 -7.64809 -5.6621e+06 -1.31139e+06 -1.43769e+07 1.16339e+06 -8.44971e+06 2.67212e+06
222 3 O 7.507 34.568 1.4948 -1.2 -10.0116 -3.75295e+06 -1.82916e+06 -560627 -924368 -440951 1.57321e+06
223 3 O 0.210186 34.3001 0.196716 -1.2 -6.71094 -3.42069e+06 -1.50489e+07 -8.4507e+06 1.539e+06 -7.93478e+06 -140419
224 3 O 0.184454 34.3001 2.79288 -1.2 -9.23606 -1.38618e+06 -4.83027e+06 -1.34152e+06 -852137 -191001 1.47182e+06
225 1 Mg 7.07415 37.992 0 1.2 -5.80169 2.02148e+06 3.2268e+06 -4.48512e+06 1.87669e+06 -430221 -2.09713e+06
226 1 Mg 4.36817 42.6997 1.4948 1.2 -8.46532 -1.97782e+06 3.45855e+06 3.52956e+06 -994077 116178 -698985
227 2 Si 6.16058 40.0155 1.4948 2.4 -32.8194 9.96061e+06 9.98318e+06 8.87144e+06 -374165 1.25695e+06 -3.18789e+06
228 3 O 6.22815 41.6288 1.4948 -1.2 -9.04185 -5.40749e+06 -1.00472e+06 -6.14473e+06 34143.6 -4.48503e+06 -835361
229 3 O 2.53282 39.0415 1.4948 -1.2 -9.91718 -3.49914e+06 -1.86261e+06 -1.06737e+06 1.71108e+06 -369585 -138973
230 3 O 5.44674 39.3094 0.196716 -1.2 -7.51027 -3.8189e+06 -1.1643e+07 -4.88792e+06 -153069 -5.75902e+06 2.64989e+06
231 1 Mg 7.04922 37.992 2.9896 1.2 -7.53578 3.97557e+06 -822750 -1.48445e+06 1.28134e+06 -1.52319e+06 1.21579e+06
232 3 O 5.42658 39.3094 2.79288 -1.2 -9.22393 -1.50986e+06 -4.59433e+06 -1.29665e+06 1.13385e+06 -249768 -476036
233 1 Mg -0.333062 38.0333 4.4844 1.2 -8.30892 -1.55044e+06 3.32908e+06 2.32462e+06 -423107 -65180.8 -709735
234 2 Si -2.12255 40.7174 4.4844 2.4 -32.0878 1.02874e+07 1.02967e+07 7.01122e+06 60769.1 -325603 -1.37211e+06
235 3 O -2.19212 39.1042 4.4844 -1.2 -9.85906 -3.37866e+06 -948808 -2.86137e+06 446382 56698.3 705064
236 3 O 1.50676 41.6915 4.4844 -1.2 -9.63427 -2.86475e+06 -3.48138e+06 -2.31074e+06 2.28296e+06 -373369 733575
237 3 O -1.3884 41.4236 3.18632 -1.2 -9.34932 -2.14905e+06 -4.2791e+06 -527824 1.15627e+06 158639 -757739
238 3 O -1.40713 41.4236 5.78248 -1.2 -9.3698 -2.36558e+06 -4.2719e+06 -906973 1.20812e+06 154325 2.16074e+06
239 1 Mg 2.01892 40.3665 2.9896 1.2 -7.59581 3.95319e+06 -774804 -1.43135e+06 -1.08328e+06 -1.52279e+06 -2.25932e+06
240 1 Mg 4.83434 40.3252 4.4844 1.2 -8.32775 -1.45288e+06 3.2785e+06 2.4465e+06 1.25069e+06 -170222 -634473
241 2 Si 3.02698 42.39 4.4844 2.4 -32.1395 9.80372e+06 1.05534e+07 7.27268e+06 805779 84725.2 -1.3129e+06
242 3 O 3.05433 44.0033 4.4844 -1.2 -9.8398 -3.17368e+06 -988552 -3.20997e+06 628598 -106798 510066
243 3 O -3.60077 41.416 4.4844 -1.2 -9.70002 -3.00122e+06 -3.28671e+06 -2.20812e+06 -1.28653e+06 -96389 636051
244 3 O 3.71851 41.6839 3.18632 -1.2 -9.36679 -2.00009e+06 -4.45312e+06 -731842 -856679 218084 1.90649e+06
245 1 Mg 2.04077 40.3665 0 1.2 -5.8506 1.57422e+06 2.92193e+06 -4.69097e+06 -1.83483e+06 458357 736042
246 3 O 3.70011 41.6839 5.78248 -1.2 -9.29272 -1.89254e+06 -4.62099e+06 -1.38015e+06 -949252 -222326 -481752
247 1 Mg -0.796865 40.4078 1.4948 1.2 -8.42635 -1.61004e+06 3.46172e+06 3.47621e+06 1.74424e+06 43570.7 -727049
248 2 Si 1.01387 38.3429 1.4948 2.4 -32.8995 9.59413e+06 1.05097e+07 8.7747e+06 1.53646e+06 1.51012e+06 458951
249 3 O 0.989947 36.7297 1.4948 -1.2 -8.46329 -5.87018e+06 -1.27816e+06 -9.39736e+06 1.03193e+06 -6.6489e+06 2.64455e+06
250 3 O 7.63988 39.317 1.4948 -1.2 -9.9638 -3.66672e+06 -1.742e+06 -983140 -924122 -233638 1.84607e+06
251 3 O 0.340253 39.0491 0.196716 -1.2 -7.51786 -3.87382e+06 -1.2576e+07 -4.84317e+06 391767 -5.87154e+06 -687200
252 3 O 0.319795 39.0491 2.79288 -1.2 -9.26693 -1.52973e+06 -4.75282e+06 -1.26138e+06 -855389 -246550 1.64618e+06
253 1 Mg 7.20667 42.741 0 1.2 -5.9255 1.27557e+06 2.76449e+06 -4.54229e+06 1.98483e+06 894074 -2.87423e+06
254 1 Mg 4.50613 47.4487 1.4948 1.2 -8.43408 -1.97938e+06 3.37947e+06 3.35698e+06 -856291 407744 -383044
255 2 Si 6.29731 44.7645 1.4948 2.4 -32.6855 1.03585e+07 9.05238e+06 9.16678e+06 -226110 853119 -2.63997e+06
256 3 O 6.36567 46.3778 1.4948 -1.2 -9.44837 -4.61374e+06 -812911 -4.37834e+06 173103 -2.6784e+06 -839294
257 3 O 2.669 43.7905 1.4948 -1.2 -9.8435 -3.41978e+06 -1.83689e+06 -1.5602e+06 1.72108e+06 -228923 -263873
258 3 O 5.58048 44.0584 0.196716 -1.2 -8.17844 -3.80094e+06 -8.76502e+06 -2.74902e+06 318499 -3.70249e+06 3.07911e+06
259 1 Mg 7.1879 42.741 2.9896 1.2 -7.543 3.98006e+06 -925185 -1.36151e+06 1.28105e+06 -1.65079e+06 1.25832e+06
260 3 O 5.56564 44.0584 2.79288 -1.2 -9.2419 -1.61909e+06 -4.40937e+06 -1.36516e+06 1.13104e+06 -238425 -589688
261 1 Mg -0.19105 42.7823 4.4844 1.2 -8.29371 -1.55041e+06 3.2934e+06 2.33378e+06 -417620 -28421.8 -611755
262 2 Si -1.97909 45.4664 4.4844 2.4 -31.9922 1.00443e+07 1.01185e+07 7.278e+06 192420 -258110 -660966
263 3 O -2.04947 43.8532 4.4844 -1.2 -9.8877 -3.33028e+06 -932009 -2.87169e+06 424881 76753.2 507872
264 3 O 1.65063 46.4405 4.4844 -1.2 -9.68569 -2.75401e+06 -3.28198e+06 -2.54801e+06 2.33572e+06 -264973 331658
265 3 O -1.24745 46.1726 3.18632 -1.2 -9.35792 -2.02897e+06 -4.14457e+06 -875187 1.12531e+06 106481 -1.02841e+06
266 3 O -1.26044 46.1726 5.78248 -1.2 -9.46353 -2.11437e+06 -4.04756e+06 -994829 1.16667e+06 119597 1.49519e+06
267 1 Mg 2.15896 45.1155 2.9896 1.2 -7.58091 3.90654e+06 -880243 -1.28743e+06 -1.08912e+06 -1.63132e+06 -2.02992e+06
268 1 Mg 4.97763 45.0742 4.4844 1.2 -8.29067 -1.49743e+06 3.19777e+06 2.51404e+06 1.24547e+06 -127248 -428695
269 2 Si 3.1711 47.139 4.4844 2.4 -32.0331 9.5638e+06 1.00606e+07 7.83106e+06 659806 -111249 -681712