ITEM: TIMESTEP
1500
ITEM: NUMBER OF ATOMS
336
ITEM: BOX BOUNDS pp pp pp
-14.54184 24.2364
80.0 135.0
35.0 90.0
ITEM: ATOMS id type x y z coord q2 q3 q4 q5 q6 q7 q8 q2_mono q3_mono q4_mono q5_mono q6_mono q7_mono q8_mono
392 2 -12.9016 106.226 52.3336 25.0 0.0311341 0.096072 0.224616 0.0580401 0.156812 0.0666719 0.247969 0.0460178 0.0192459 0.315616 0.0323567 0.333746 0.0437094 0.215661
393 3 -11.3405 106.374 52.4157 23.0 0.0258815 0.0490703 0.205494 0.0236383 0.138231 0.0480896 0.204629 0.0271745 0.0185043 0.109353 0.0564735 0.347626 0.0524357 0.239164
394 3 -13.2811 102.561 52.7671 26.0 0.0319714 0.0484641 0.178424 0.0574183 0.179997 0.0413003 0.244766 0.0117114 0.0197774 0.108802 0.0441217 0.356583 0.0775207 0.22123
1769 2 -8.05431 106.226 52.3336 25.0 0.0311336 0.0960723 0.224616 0.0580359 0.156812 0.0666698 0.247966 0.0460177 0.0192453 0.315616 0.0323564 0.333745 0.0437098 0.215661
1770 3 -6.4932 106.374 52.4157 23.0 0.0258819 0.0490701 0.205493 0.0236375 0.138231 0.0480898 0.204627 0.0271753 0.0185051 0.109353 0.0564744 0.347625 0.052437 0.239165
1771 3 -8.43384 102.561 52.7671 26.0 0.0319706 0.0484634 0.178424 0.0574172 0.179995 0.0412975 0.244767 0.0117119 0.0197771 0.108801 0.0441223 0.35658 0.0775211 0.221229
3146 2 -3.20703 106.226 52.3336 25.0 0.0311334 0.0960727 0.224615 0.0580359 0.156811 0.0666703 0.247966 0.0460175 0.0192452 0.315614 0.0323562 0.333746 0.0437094 0.21566
3147 3 -1.64592 106.374 52.4157 23.0 0.0258819 0.0490698 0.205493 0.0236374 0.138231 0.0480899 0.204627 0.0271753 0.0185049 0.109352 0.0564741 0.347625 0.052437 0.239165
3148 3 -3.58656 102.561 52.7671 26.0 0.03197 0.0484632 0.178424 0.057417 0.179995 0.0412981 0.244763 0.0117118 0.0197771 0.108801 0.0441221 0.35658 0.0775214 0.221229
4523 2 1.64025 106.226 52.3336 25.0 0.0311334 0.0960728 0.224615 0.0580359 0.156811 0.0666704 0.247966 0.0460175 0.0192453 0.315614 0.0323563 0.333746 0.0437094 0.21566
4524 3 3.20136 106.374 52.4157 23.0 0.0258819 0.0490698 0.205493 0.0236374 0.138231 0.0480899 0.204627 0.0271753 0.0185048 0.109352 0.0564742 0.347625 0.0524371 0.239165
4525 3 1.26072 102.561 52.7671 26.0 0.03197 0.0484632 0.178424 0.0574169 0.179995 0.0412982 0.244763 0.0117118 0.0197772 0.108801 0.0441221 0.35658 0.0775214 0.221229
5900 2 6.48753 106.226 52.3336 25.0 0.0311333 0.0960729 0.224615 0.0580361 0.156811 0.0666703 0.247966 0.0460174 0.0192456 0.315613 0.0323568 0.333746 0.0437094 0.215659
5901 3 8.04864 106.374 52.4157 23.0 0.0258816 0.04907 0.205494 0.023637 0.138231 0.0480899 0.204628 0.0271749 0.0185055 0.109352 0.0564733 0.347626 0.0524363 0.239165
5902 3 6.108 102.561 52.7671 26.0 0.0319699 0.048463 0.178424 0.0574171 0.179995 0.0412983 0.244763 0.0117118 0.019777 0.108801 0.0441221 0.35658 0.0775214 0.221229
7277 2 11.3348 106.226 52.3336 25.0 0.0311341 0.0960712 0.224616 0.0580399 0.156811 0.0666711 0.247968 0.0460175 0.0192459 0.315615 0.032357 0.333746 0.0437103 0.21566
7278 3 12.8959 106.374 52.4157 23.0 0.0258813 0.0490704 0.205494 0.0236384 0.138228 0.0480891 0.20463 0.0271747 0.0185043 0.109354 0.0564727 0.347627 0.0524359 0.239165
7279 3 10.9553 102.561 52.7671 26.0 0.0319704 0.0484636 0.178424 0.0574179 0.179992 0.0412998 0.244765 0.0117116 0.0197773 0.108801 0.0441216 0.356581 0.077521 0.22123
8654 2 16.1821 106.226 52.3336 25.0 0.0311332 0.0960729 0.224617 0.0580363 0.156811 0.0666734 0.247969 0.0460177 0.0192453 0.315617 0.0323564 0.333746 0.0437107 0.215663
8655 3 17.7432 106.374 52.4157 23.0 0.0258808 0.04907 0.205494 0.0236373 0.138229 0.0480923 0.204629 0.0271741 0.0185059 0.109357 0.0564743 0.347626 0.0524363 0.239166
8656 3 15.8026 102.561 52.7671 26.0 0.0319708 0.048464 0.178424 0.0574177 0.179994 0.0412969 0.244765 0.0117117 0.0197772 0.108803 0.044122 0.35658 0.0775209 0.221229
10031 2 21.0294 106.226 52.3336 25.0 0.0311328 0.0960738 0.224614 0.058034 0.15681 0.0666715 0.247966 0.0460177 0.0192453 0.315616 0.0323562 0.333746 0.0437093 0.215662
10032 3 22.5905 106.374 52.4157 23.0 0.0258803 0.0490695 0.205495 0.0236365 0.138231 0.0480905 0.204629 0.0271742 0.0185052 0.109354 0.056474 0.347627 0.052437 0.239166
10033 3 20.6498 102.561 52.7671 26.0 0.0319701 0.0484625 0.178422 0.0574169 0.179994 0.0412982 0.244767 0.0117114 0.0197766 0.108801 0.044122 0.35658 0.0775214 0.221227
513 1 -13.6031 97.0556 57.1605 30.0 0.0279794 0.0325635 0.203742 0.024253 0.161618 0.0473291 0.239661 0.0379763 0.033016 0.0851349 0.0353769 0.320472 0.0367985 0.322542
516 3 -14.5006 95.8733 58.5523 24.0 0.0252715 0.0538147 0.247351 0.027168 0.151692 0.051063 0.247296 0.0176529 0.0151217 0.122365 0.0304612 0.394109 0.0493218 0.242812
676 3 -14.5448 98.2433 60.1693 25.0 0.0143979 0.051822 0.161586 0.0467895 0.14793 0.0415924 0.238349 0.0112792 0.0161253 0.139544 0.0395162 0.354648 0.0531262 0.194114
1890 1 -8.75583 97.0556 57.1605 30.0 0.0279819 0.0325615 0.203742 0.0242536 0.161619 0.0473291 0.239661 0.0379767 0.0330166 0.0851355 0.0353776 0.320472 0.0367981 0.322541
1893 3 -9.65331 95.8733 58.5523 24.0 0.0252725 0.0538142 0.247349 0.0271687 0.15169 0.0510619 0.247297 0.0176521 0.0151228 0.122364 0.0304593 0.394111 0.0493209 0.242812
2053 3 -9.69757 98.2433 60.1693 25.0 0.0143994 0.0518217 0.161586 0.0467893 0.147928 0.0415917 0.23835 0.0112788 0.0161252 0.139544 0.0395158 0.354649 0.0531262 0.194115
3267 1 -3.90855 97.0556 57.1605 30.0 0.0279817 0.0325621 0.203742 0.0242536 0.16162 0.0473291 0.23966 0.0379767 0.0330168 0.0851354 0.0353772 0.320471 0.0367973 0.322541
3270 3 -4.80603 95.8733 58.5523 24.0 0.0252721 0.0538145 0.24735 0.0271689 0.151691 0.0510624 0.247296 0.0176525 0.0151224 0.122364 0.0304601 0.394109 0.0493215 0.242812
3430 3 -4.85029 98.2433 60.1693 25.0 0.0143987 0.0518225 0.161586 0.046789 0.147931 0.0415917 0.238349 0.0112788 0.016125 0.139544 0.0395159 0.354648 0.0531263 0.194115
4644 1 0.938728 97.0556 57.1605 30.0 0.0279816 0.032562 0.203742 0.0242537 0.16162 0.0473291 0.23966 0.0379768 0.0330167 0.0851351 0.0353772 0.320471 0.0367971 0.322541
4647 3 0.0412539 95.8733 58.5523 24.0 0.0252721 0.0538144 0.24735 0.0271689 0.151691 0.0510624 0.247295 0.0176526 0.0151225 0.122364 0.0304603 0.394109 0.0493218 0.242812
4807 3 -0.00300935 98.2433 60.1693 25.0 0.0143988 0.0518225 0.161587 0.0467889 0.147931 0.0415916 0.238349 0.0112788 0.016125 0.139544 0.0395159 0.354648 0.0531263 0.194115
6021 1 5.78601 97.0556 57.1605 30.0 0.0279817 0.032562 0.203742 0.0242536 0.16162 0.0473291 0.23966 0.0379768 0.0330166 0.0851349 0.0353775 0.320472 0.0367975 0.322541
6024 3 4.88853 95.8733 58.5523 24.0 0.0252721 0.0538145 0.24735 0.0271688 0.151691 0.0510625 0.247296 0.0176525 0.0151224 0.122364 0.0304601 0.394109 0.0493216 0.242812
6184 3 4.84427 98.2433 60.1693 25.0 0.0143987 0.0518225 0.161586 0.046789 0.147931 0.0415917 0.238349 0.0112789 0.0161249 0.139544 0.0395158 0.354648 0.0531264 0.194115
7398 1 10.6333 97.0556 57.1605 30.0 0.0279809 0.0325635 0.203743 0.0242523 0.16162 0.0473291 0.239663 0.0379769 0.0330162 0.0851348 0.0353781 0.320472 0.0367989 0.322541
7401 3 9.73581 95.8733 58.5523 24.0 0.0252721 0.0538147 0.247351 0.0271687 0.151692 0.0510629 0.247298 0.0176523 0.0151226 0.122365 0.030459 0.39411 0.0493204 0.242812
7561 3 9.69155 98.2433 60.1693 25.0 0.0143994 0.051822 0.161587 0.0467886 0.14793 0.0415919 0.238351 0.0112788 0.0161254 0.139544 0.0395163 0.354649 0.0531263 0.194115
8775 1 15.4806 97.0556 57.1605 30.0 0.0279825 0.0325627 0.203741 0.0242524 0.161619 0.0473287 0.239662 0.0379769 0.0330164 0.0851344 0.0353769 0.320472 0.0367978 0.322542
8778 3 14.5831 95.8733 58.5523 24.0 0.0252722 0.0538143 0.247351 0.0271692 0.151691 0.051061 0.247302 0.0176523 0.0151226 0.122364 0.03046 0.394111 0.049322 0.242812
8938 3 14.5388 98.2433 60.1693 25.0 0.0143991 0.0518216 0.161587 0.0467889 0.147927 0.0415918 0.238349 0.0112785 0.0161247 0.139544 0.039516 0.354648 0.0531257 0.194115
10152 1 20.3278 97.0556 57.1605 30.0 0.027981 0.03256 0.203739 0.0242557 0.161621 0.0473282 0.239663 0.0379764 0.0330161 0.0851342 0.0353763 0.320472 0.036797 0.322543
10155 3 19.4304 95.8733 58.5523 24.0 0.0252714 0.0538142 0.24735 0.0271691 0.151693 0.0510617 0.247301 0.017653 0.0151222 0.122362 0.0304599 0.39411 0.0493201 0.24281
10315 3 19.3861 98.2433 60.1693 25.0 0.0143979 0.0518229 0.161584 0.0467897 0.147931 0.0415903 0.23835 0.0112786 0.0161239 0.139544 0.0395156 0.354647 0.0531265 0.194114
397 3 -13.4349 105.356 53.5261 22.0 0.0229744 0.0915703 0.182244 0.0559865 0.145845 0.0459496 0.191725 0.0114703 0.017643 0.104261 0.0451877 0.306165 0.0592185 0.195928
507 1 -10.8688 98.9569 58.737 25.0 0.0442547 0.0962381 0.11158 0.0560654 0.16973 0.0757087 0.20937 0.0306313 0.0362853 0.117658 0.0398608 0.272406 0.045764 0.253147
508 2 -13.1487 100.65 58.7521 23.0 0.0166774 0.0818323 0.212342 0.0443988 0.126874 0.0742136 0.19429 0.0419592 0.0209814 0.324181 0.0386588 0.312499 0.0402124 0.221951
509 3 -9.85759 100.837 58.8451 23.0 0.0275059 0.0463739 0.163815 0.0601308 0.114699 0.040579 0.199756 0.0230174 0.0378971 0.169932 0.0355151 0.347288 0.0703996 0.190567
511 3 -12.68 100.15 57.2868 25.0 0.0210067 0.0916544 0.140873 0.0539562 0.14627 0.0701428 0.196507 0.0153818 0.0132563 0.140497 0.0779787 0.358537 0.0791288 0.201068
512 3 -12.3506 99.7833 59.7644 24.0 0.0306519 0.0657984 0.12734 0.0741472 0.137639 0.055115 0.21201 0.0120812 0.0266465 0.13768 0.0380342 0.338552 0.0575684 0.1834
521 1 -13.8402 99.833 55.6656 25.0 0.047481 0.0721336 0.150134 0.0564254 0.169854 0.0442251 0.234884 0.0502245 0.0275542 0.0938834 0.0512869 0.30794 0.078926 0.302013
524 3 -10.2306 101.557 55.7039 24.0 0.0335716 0.0549266 0.161746 0.0460054 0.166487 0.0306158 0.184985 0.0154387 0.0375021 0.13635 0.0617433 0.348571 0.0868244 0.193831
526 3 -10.241 98.6496 56.8435 24.0 0.039125 0.07584 0.152784 0.0362118 0.182076 0.0328974 0.227518 0.00696422 0.0122263 0.140653 0.0579348 0.380358 0.0557137 0.231339
527 1 -11.8096 102.069 54.2872 27.0 0.0219771 0.046961 0.228133 0.0330484 0.152654 0.0438762 0.214639 0.0440914 0.0335825 0.12795 0.0386061 0.283461 0.0877671 0.299453
528 1 -12.2892 104.95 55.0744 23.0 0.0151887 0.125157 0.140762 0.0766666 0.11933 0.0480873 0.163376 0.0558831 0.0392046 0.0703696 0.0332199 0.301685 0.0505434 0.241751
529 2 -9.78101 103.188 55.9399 24.0 0.0405635 0.0823929 0.219024 0.0673955 0.144833 0.0534546 0.158216 0.0462414 0.0195702 0.339807 0.0231584 0.312443 0.0372787 0.240185
530 3 -13.0769 103.252 55.82 27.0 0.0147016 0.0354856 0.188077 0.0378928 0.135615 0.046262 0.180338 0.0234054 0.0258251 0.121258 0.0452798 0.302256 0.0619713 0.172807
531 3 -12.0547 106.887 55.2763 22.0 0.033764 0.0272514 0.248246 0.0303406 0.144366 0.0389887 0.20517 0.0168928 0.0275536 0.107698 0.0492794 0.318518 0.0584932 0.165664
532 3 -10.6391 103.787 54.7127 21.0 0.0127306 0.0845401 0.147677 0.0504834 0.136487 0.0421954 0.178833 0.0168778 0.0244992 0.107387 0.053509 0.3084 0.0540426 0.1634
533 1 -11.1608 101.44 57.4036 23.0 0.0257258 0.0322931 0.213276 0.0361861 0.133615 0.0381856 0.17448 0.030445 0.0455825 0.0867623 0.0583745 0.275271 0.0661597 0.245175
534 3 -10.3177 103.295 57.4925 24.0 0.0402711 0.0576329 0.167822 0.0848367 0.110574 0.0702115 0.169009 0.021644 0.0233454 0.170319 0.0506677 0.320121 0.0488573 0.1653
542 1 -11.7903 104.213 58.6175 27.0 0.0220134 0.0841957 0.126142 0.0711334 0.109541 0.0589079 0.155664 0.0436761 0.0346644 0.084233 0.049261 0.302268 0.076286 0.213369
543 2 -14.1147 106.127 58.2789 27.0 0.0119434 0.0592458 0.187317 0.0711264 0.108481 0.0550383 0.183207 0.0478639 0.0238272 0.340903 0.0384047 0.319285 0.0395731 0.24079
544 3 -12.5521 106.092 58.3805 27.0 0.0144519 0.0421741 0.216227 0.0404021 0.12732 0.0514997 0.178533 0.0180556 0.0122816 0.149387 0.0435064 0.343257 0.0524409 0.190968
545 3 -12.5796 102.169 58.6794 23.0 0.0286194 0.034021 0.230306 0.0472789 0.119383 0.0384145 0.163558 0.0145378 0.0363688 0.163924 0.0532431 0.326245 0.063692 0.17447
548 3 -10.1128 105.371 59.4486 22.0 0.0151681 0.0761379 0.15197 0.087016 0.120138 0.0441988 0.204701 0.0137416 0.0330797 0.16324 0.073324 0.351968 0.0685916 0.188006
675 3 -13.0686 101.689 61.5529 21.0 0.0361362 0.0477552 0.188375 0.0279203 0.162227 0.0391537 0.209945 0.0174502 0.0318357 0.136498 0.0545573 0.334828 0.0733296 0.205174
678 1 -14.4433 102.917 59.518 25.0 0.040761 0.0788756 0.190815 0.0614663 0.130008 0.0641042 0.204482 0.0238622 0.0310244 0.0925374 0.0585056 0.244848 0.0486235 0.222053
679 1 -14.2032 105.102 61.4079 27.0 0.0291096 0.126966 0.151399 0.063019 0.142454 0.0950701 0.225011 0.0326421 0.0280306 0.0776327 0.0342812 0.293474 0.068671 0.278315
680 2 -12.2889 103.091 61.5282 24.0 0.0447366 0.0946014 0.26824 0.050776 0.196388 0.0868197 0.235981 0.045026 0.0201554 0.330575 0.0324084 0.318402 0.0447105 0.222493
681 3 -10.7223 103.014 61.3503 23.0 0.0231201 0.06069 0.172193 0.0362854 0.125972 0.0422039 0.197532 0.0298696 0.0162181 0.173765 0.0607303 0.347393 0.0606234 0.213227
683 3 -12.8645 103.999 60.3684 23.0 0.0231463 0.0573211 0.117361 0.068151 0.14836 0.0677295 0.190092 0.00829712 0.0279538 0.17183 0.057482 0.345431 0.0707096 0.206385
698 1 -11.4349 107.155 59.7826 28.0 0.0170009 0.0193697 0.231978 0.0259875 0.135812 0.0288048 0.241681 0.0412364 0.0510424 0.0757575 0.0475443 0.314629 0.0674328 0.273891
1774 3 -8.58758 105.356 53.5261 22.0 0.022975 0.0915711 0.182244 0.055984 0.145846 0.0459492 0.191728 0.0114701 0.0176428 0.104262 0.0451884 0.306164 0.0592179 0.195927
1884 1 -6.02153 98.9569 58.737 25.0 0.0442538 0.0962392 0.111579 0.0560663 0.169734 0.075708 0.209366 0.0306313 0.036286 0.117657 0.0398613 0.272405 0.0457643 0.253147
1885 2 -8.30143 100.65 58.7521 23.0 0.0166791 0.0818304 0.212338 0.0443994 0.126876 0.0742112 0.194284 0.0419593 0.0209806 0.324181 0.0386581 0.312499 0.0402119 0.221951
1886 3 -5.01031 100.837 58.8451 23.0 0.0275053 0.0463748 0.163815 0.060131 0.114702 0.0405791 0.199756 0.0230173 0.0378979 0.169932 0.0355153 0.347287 0.0703995 0.190567
1888 3 -7.83276 100.15 57.2868 25.0 0.0210061 0.0916535 0.140872 0.0539563 0.14627 0.0701425 0.196505 0.015382 0.013257 0.140496 0.0779778 0.358536 0.0791287 0.201067
1889 3 -7.50334 99.7833 59.7644 24.0 0.0306516 0.0657986 0.127337 0.0741477 0.137641 0.0551136 0.212006 0.0120809 0.0266474 0.13768 0.0380336 0.338551 0.0575687 0.1834
1898 1 -8.99291 99.833 55.6656 25.0 0.0474822 0.0721327 0.150137 0.0564272 0.169854 0.044226 0.234886 0.0502246 0.0275532 0.0938832 0.0512866 0.30794 0.0789268 0.302013
1901 3 -5.38333 101.557 55.7039 24.0 0.0335716 0.0549257 0.161747 0.0460052 0.166489 0.0306155 0.184983 0.0154385 0.0375019 0.136351 0.0617443 0.34857 0.086825 0.19383
1903 3 -5.39372 98.6496 56.8435 24.0 0.0391252 0.0758401 0.152784 0.0362112 0.182077 0.0328971 0.227517 0.00696334 0.0122265 0.140653 0.0579347 0.380357 0.0557142 0.231339
1904 1 -6.96236 102.069 54.2872 27.0 0.0219754 0.0469621 0.228133 0.0330479 0.152656 0.043877 0.214636 0.0440919 0.0335825 0.12795 0.0386064 0.283461 0.0877672 0.299452
1905 1 -7.44192 104.95 55.0744 23.0 0.0151868 0.125156 0.14076 0.0766674 0.11933 0.0480846 0.163373 0.0558833 0.039204 0.0703697 0.0332185 0.301684 0.0505425 0.241753
1906 2 -4.93373 103.188 55.9399 24.0 0.0405637 0.0823935 0.219026 0.0673958 0.144836 0.0534542 0.158217 0.0462414 0.0195697 0.339806 0.0231579 0.312443 0.0372788 0.240184
1907 3 -8.22962 103.252 55.82 27.0 0.0147043 0.0354859 0.188075 0.0378931 0.135611 0.0462611 0.180337 0.0234052 0.0258255 0.121258 0.0452794 0.302256 0.0619707 0.172807
1908 3 -7.2074 106.887 55.2763 22.0 0.0337642 0.0272519 0.248247 0.030342 0.144368 0.0389915 0.205173 0.0168929 0.0275538 0.107698 0.0492797 0.318518 0.0584935 0.165665
1909 3 -5.79186 103.787 54.7127 21.0 0.0127304 0.0845401 0.14768 0.0504839 0.136491 0.0421961 0.178833 0.016878 0.0244999 0.107386 0.0535099 0.3084 0.0540435 0.163398
1910 1 -6.31348 101.44 57.4036 23.0 0.0257254 0.0322925 0.213276 0.0361862 0.133617 0.0381856 0.174479 0.0304452 0.0455827 0.0867621 0.058375 0.275271 0.0661602 0.245175
1911 3 -5.47044 103.295 57.4925 24.0 0.0402715 0.057633 0.167824 0.0848367 0.110575 0.0702108 0.169012 0.0216449 0.0233458 0.170318 0.0506679 0.32012 0.0488569 0.165299
1919 1 -6.94305 104.213 58.6175 27.0 0.0220138 0.0841952 0.12614 0.0711301 0.109538 0.0589079 0.155661 0.0436772 0.0346648 0.0842327 0.0492611 0.302269 0.0762857 0.21337
1920 2 -9.26744 106.127 58.2789 27.0 0.0119448 0.0592448 0.187313 0.0711245 0.10847 0.0550388 0.183208 0.047864 0.0238271 0.340902 0.0384046 0.319286 0.0395729 0.240789
1921 3 -7.70478 106.092 58.3805 27.0 0.0144516 0.0421732 0.216227 0.0404035 0.127317 0.0514993 0.178534 0.0180554 0.0122817 0.149387 0.0435058 0.34326 0.0524417 0.190969
1922 3 -7.73232 102.169 58.6794 23.0 0.0286166 0.0340204 0.230305 0.0472764 0.119379 0.0384161 0.163553 0.0145374 0.0363688 0.163924 0.0532424 0.326245 0.0636919 0.174471
1923 3 -9.70264 105.749 56.824 23.0 0.0183722 0.048166 0.184707 0.0581608 0.128117 0.0564539 0.159087 0.0185509 0.0274854 0.113305 0.0441421 0.306589 0.049492 0.146543
1925 3 -5.26555 105.371 59.4486 22.0 0.0151684 0.076137 0.151971 0.0870159 0.120139 0.0441984 0.204701 0.0137412 0.0330796 0.163239 0.0733246 0.351968 0.0685908 0.188005
2052 3 -8.22132 101.689 61.5529 21.0 0.0361351 0.0477553 0.188373 0.02792 0.162226 0.0391525 0.209941 0.0174499 0.0318354 0.136499 0.0545555 0.334829 0.0733297 0.205174
2055 1 -9.59606 102.917 59.518 25.0 0.0407602 0.0788758 0.190813 0.0614671 0.130003 0.0641005 0.204484 0.0238628 0.0310248 0.0925368 0.0585057 0.244848 0.0486245 0.222054
2056 1 -9.35597 105.102 61.4079 27.0 0.0291094 0.126966 0.151394 0.0630186 0.142453 0.095071 0.225014 0.0326433 0.0280313 0.0776324 0.0342814 0.293474 0.068671 0.278316
2057 2 -7.4416 103.091 61.5282 24.0 0.0447361 0.0946023 0.268238 0.0507739 0.196386 0.0868176 0.235979 0.0450263 0.0201551 0.330575 0.0324083 0.318402 0.0447099 0.222493
2058 3 -5.87506 103.014 61.3503 23.0 0.0231192 0.0606893 0.172192 0.0362853 0.125971 0.0422042 0.197532 0.0298693 0.0162183 0.173765 0.0607302 0.347393 0.0606241 0.213227
2060 3 -8.01719 103.999 60.3684 23.0 0.0231454 0.0573226 0.117356 0.0681517 0.148355 0.0677338 0.190094 0.00829711 0.027955 0.171832 0.0574813 0.345435 0.0707088 0.206388
2075 1 -6.58758 107.155 59.7826 28.0 0.0170012 0.0193708 0.231979 0.0259874 0.135809 0.0288036 0.241681 0.0412364 0.0510417 0.0757575 0.0475459 0.314629 0.0674329 0.27389
3300 3 -4.85536 105.749 56.824 23.0 0.0183726 0.0481662 0.184708 0.0581613 0.128119 0.056453 0.159087 0.0185515 0.0274853 0.113304 0.0441428 0.306589 0.0494915 0.146542
3151 3 -3.7403 105.356 53.5261 22.0 0.022975 0.0915715 0.182243 0.0559839 0.145847 0.0459493 0.191726 0.0114702 0.0176431 0.104261 0.0451883 0.306163 0.0592189 0.195927
3261 1 -1.17425 98.9569 58.737 25.0 0.0442537 0.0962393 0.111578 0.0560663 0.169734 0.0757081 0.209366 0.0306315 0.0362861 0.117657 0.0398613 0.272405 0.0457643 0.253147
3262 2 -3.45415 100.65 58.7521 23.0 0.0166788 0.0818305 0.212339 0.0443986 0.126876 0.0742122 0.194285 0.0419594 0.0209807 0.324181 0.0386582 0.312499 0.0402121 0.22195
3263 3 -0.163032 100.837 58.8451 23.0 0.0275053 0.0463749 0.163815 0.060131 0.114702 0.0405791 0.199756 0.0230174 0.0378978 0.169933 0.0355154 0.347287 0.0703994 0.190567
3265 3 -2.98548 100.15 57.2868 25.0 0.0210061 0.0916539 0.140873 0.0539564 0.14627 0.0701428 0.196505 0.0153819 0.0132569 0.140496 0.0779777 0.358536 0.0791286 0.201067
3266 3 -2.65606 99.7833 59.7644 24.0 0.0306516 0.0657988 0.127337 0.0741478 0.137642 0.0551135 0.212006 0.0120808 0.0266472 0.137681 0.0380337 0.338551 0.0575688 0.1834
3275 1 -4.14563 99.833 55.6656 25.0 0.0474816 0.0721326 0.150136 0.0564266 0.169855 0.0442253 0.234884 0.0502246 0.0275529 0.0938856 0.0512867 0.307939 0.0789269 0.302012
3278 3 -0.536052 101.557 55.7039 24.0 0.0335718 0.0549257 0.161747 0.0460053 0.16649 0.0306156 0.184984 0.0154386 0.0375019 0.136351 0.0617441 0.34857 0.0868249 0.19383
3280 3 -0.546436 98.6496 56.8435 24.0 0.039125 0.0758402 0.152784 0.0362112 0.182077 0.0328971 0.227517 0.00696336 0.0122264 0.140653 0.0579347 0.380357 0.0557142 0.231339
3281 1 -2.11508 102.069 54.2872 27.0 0.0219757 0.0469621 0.228133 0.0330481 0.152656 0.043877 0.214636 0.0440918 0.0335831 0.127951 0.0386062 0.28346 0.0877675 0.299451
3282 1 -2.59464 104.95 55.0744 23.0 0.0151874 0.125156 0.14076 0.0766671 0.119331 0.0480847 0.163373 0.0558832 0.0392046 0.0703698 0.0332196 0.301684 0.0505419 0.241751
3283 2 -0.0864461 103.188 55.9399 24.0 0.0405638 0.0823937 0.219026 0.0673957 0.144837 0.0534542 0.158217 0.0462415 0.01957 0.339806 0.0231585 0.312443 0.0372791 0.240184
3284 3 -3.38234 103.252 55.82 27.0 0.0147037 0.0354859 0.188076 0.0378929 0.135613 0.0462614 0.180338 0.0234048 0.0258253 0.121258 0.0452794 0.302255 0.0619709 0.172806
3285 3 -2.36012 106.887 55.2763 22.0 0.0337644 0.0272521 0.248246 0.0303419 0.144367 0.0389911 0.205173 0.016893 0.0275537 0.107697 0.04928 0.318518 0.0584937 0.165665
3286 3 -0.944579 103.787 54.7127 21.0 0.0127305 0.08454 0.147679 0.0504839 0.136492 0.0421963 0.178833 0.0168778 0.0244996 0.107387 0.0535094 0.3084 0.0540436 0.163398
3287 1 -1.4662 101.44 57.4036 23.0 0.0257254 0.0322926 0.213276 0.0361861 0.133618 0.0381854 0.174479 0.0304456 0.0455829 0.0867632 0.058375 0.27527 0.0661601 0.245174
3288 3 -0.623162 103.295 57.4925 24.0 0.0402716 0.057633 0.167824 0.0848366 0.110576 0.0702107 0.169012 0.0216446 0.0233458 0.170318 0.050668 0.32012 0.048857 0.165299
3296 1 -2.09577 104.213 58.6175 27.0 0.022014 0.0841953 0.126141 0.0711313 0.109539 0.0589075 0.155662 0.0436772 0.0346653 0.0842332 0.0492621 0.302268 0.0762861 0.213368
3297 2 -4.42016 106.127 58.2789 27.0 0.0119438 0.0592448 0.187315 0.0711253 0.108473 0.0550369 0.183209 0.0478641 0.0238267 0.340903 0.0384041 0.319286 0.0395727 0.240788
3298 3 -2.8575 106.092 58.3805 27.0 0.0144515 0.042173 0.216227 0.0404034 0.127318 0.0514991 0.178535 0.0180553 0.0122813 0.149387 0.0435061 0.343259 0.0524414 0.190968
3299 3 -2.88504 102.169 58.6794 23.0 0.0286169 0.0340206 0.230305 0.0472765 0.119381 0.0384158 0.163554 0.0145372 0.0363687 0.163924 0.0532423 0.326245 0.0636917 0.174471
3302 3 -0.418274 105.371 59.4486 22.0 0.0151684 0.076137 0.151971 0.087016 0.120139 0.0441984 0.204701 0.0137413 0.0330794 0.16324 0.0733245 0.351968 0.0685906 0.188005
3429 3 -3.37404 101.689 61.5529 21.0 0.0361356 0.0477552 0.188373 0.0279198 0.162225 0.0391526 0.209942 0.0174499 0.0318357 0.136499 0.054556 0.334829 0.0733298 0.205174
3432 1 -4.74878 102.917 59.518 25.0 0.0407599 0.0788759 0.190814 0.0614667 0.130004 0.0641013 0.204484 0.0238624 0.0310253 0.0925369 0.0585058 0.244848 0.0486251 0.222053
3433 1 -4.50869 105.102 61.4079 27.0 0.0291101 0.126967 0.151395 0.0630193 0.142454 0.0950711 0.225015 0.0326426 0.0280308 0.0776331 0.0342822 0.293474 0.068672 0.278314
3434 2 -2.59432 103.091 61.5282 24.0 0.0447365 0.0946023 0.268238 0.0507743 0.196385 0.086818 0.23598 0.0450264 0.0201554 0.330574 0.0324085 0.318402 0.0447101 0.222492
3435 3 -1.02778 103.014 61.3503 23.0 0.0231193 0.0606893 0.172193 0.0362852 0.125971 0.042204 0.197532 0.0298693 0.0162183 0.173766 0.0607304 0.347392 0.0606241 0.213227
3437 3 -3.16991 103.999 60.3684 23.0 0.0231461 0.0573225 0.117357 0.0681517 0.148355 0.067734 0.190094 0.00829693 0.0279543 0.171832 0.0574815 0.345434 0.0707089 0.206387
3452 1 -1.7403 107.155 59.7826 28.0 0.017001 0.0193709 0.231979 0.0259874 0.135809 0.0288034 0.241681 0.0412365 0.0510416 0.0757594 0.0475444 0.31463 0.0674332 0.273889
4528 3 1.10698 105.356 53.5261 22.0 0.0229749 0.0915715 0.182243 0.0559839 0.145847 0.0459493 0.191726 0.0114702 0.0176431 0.104261 0.0451883 0.306163 0.0592189 0.195927
4638 1 3.67303 98.9569 58.737 25.0 0.0442538 0.0962392 0.111578 0.0560664 0.169734 0.0757079 0.209366 0.0306315 0.0362861 0.117657 0.0398613 0.272405 0.0457645 0.253147
4639 2 1.39313 100.65 58.7521 23.0 0.0166788 0.0818306 0.212339 0.0443985 0.126876 0.0742122 0.194285 0.0419594 0.0209807 0.324181 0.0386583 0.312499 0.0402121 0.22195
4640 3 4.68425 100.837 58.8451 23.0 0.0275053 0.0463749 0.163815 0.060131 0.114702 0.0405791 0.199756 0.0230174 0.0378978 0.169932 0.0355153 0.347287 0.0703994 0.190567
4642 3 1.8618 100.15 57.2868 25.0 0.0210061 0.091654 0.140872 0.0539563 0.14627 0.0701429 0.196505 0.0153818 0.0132569 0.140496 0.0779778 0.358536 0.0791285 0.201067
4643 3 2.19122 99.7833 59.7644 24.0 0.0306516 0.0657987 0.127337 0.0741477 0.137642 0.0551134 0.212006 0.0120809 0.0266472 0.13768 0.0380336 0.338551 0.0575688 0.1834
4652 1 0.701648 99.833 55.6656 25.0 0.0474816 0.0721327 0.150136 0.0564267 0.169855 0.0442254 0.234884 0.0502245 0.0275531 0.0938857 0.0512867 0.307939 0.0789268 0.302012
4655 3 4.31123 101.557 55.7039 24.0 0.0335716 0.0549258 0.161747 0.0460053 0.166489 0.0306157 0.184983 0.0154386 0.0375018 0.136351 0.0617441 0.34857 0.0868248 0.19383
4657 3 4.30084 98.6496 56.8435 24.0 0.0391251 0.0758402 0.152784 0.0362113 0.182077 0.0328971 0.227517 0.00696339 0.0122264 0.140653 0.0579347 0.380357 0.0557141 0.231339
4658 1 2.7322 102.069 54.2872 27.0 0.0219756 0.0469621 0.228133 0.0330481 0.152656 0.0438773 0.214636 0.0440919 0.0335832 0.127951 0.0386061 0.28346 0.0877675 0.299451
4659 1 2.25264 104.95 55.0744 23.0 0.0151874 0.125156 0.14076 0.0766671 0.119331 0.048085 0.163373 0.0558833 0.0392045 0.0703699 0.0332195 0.301684 0.050542 0.241751
4660 2 4.76083 103.188 55.9399 24.0 0.0405638 0.0823937 0.219026 0.0673956 0.144837 0.0534541 0.158217 0.0462416 0.0195703 0.339805 0.0231584 0.312443 0.0372791 0.240183
4661 3 1.46494 103.252 55.82 27.0 0.0147037 0.0354859 0.188076 0.0378929 0.135613 0.0462614 0.180338 0.0234048 0.0258253 0.121258 0.0452794 0.302255 0.0619709 0.172806
4662 3 2.48716 106.887 55.2763 22.0 0.0337643 0.0272521 0.248246 0.0303418 0.144367 0.0389912 0.205173 0.0168929 0.0275537 0.107697 0.04928 0.318518 0.0584936 0.165665
4663 3 3.9027 103.787 54.7127 21.0 0.0127304 0.08454 0.147679 0.0504839 0.136491 0.0421963 0.178833 0.0168778 0.0244995 0.107387 0.0535094 0.308399 0.0540435 0.163398
4664 1 3.38108 101.44 57.4036 23.0 0.0257254 0.0322926 0.213276 0.036186 0.133617 0.0381854 0.174479 0.0304456 0.0455831 0.086763 0.058375 0.27527 0.0661599 0.245174
4665 3 4.22412 103.295 57.4925 24.0 0.0402715 0.057633 0.167824 0.0848366 0.110575 0.0702106 0.169012 0.0216446 0.0233458 0.170318 0.050668 0.32012 0.048857 0.165299
4673 1 2.75151 104.213 58.6175 27.0 0.022014 0.0841953 0.126141 0.0711314 0.10954 0.0589074 0.155662 0.0436771 0.0346654 0.0842332 0.049262 0.302268 0.076286 0.213368
4674 2 0.42712 106.127 58.2789 27.0 0.0119438 0.059245 0.187315 0.0711253 0.108474 0.0550368 0.183209 0.0478642 0.0238268 0.340902 0.038404 0.319286 0.0395725 0.240788
4675 3 1.98978 106.092 58.3805 27.0 0.0144514 0.0421731 0.216227 0.0404035 0.127319 0.051499 0.178535 0.0180553 0.0122813 0.149387 0.043506 0.343259 0.0524414 0.190968
4676 3 1.96224 102.169 58.6794 23.0 0.028617 0.0340207 0.230305 0.0472767 0.119381 0.0384157 0.163554 0.0145373 0.0363687 0.163924 0.0532423 0.326245 0.0636918 0.174471
4677 3 -0.0080816 105.749 56.824 23.0 0.0183726 0.0481662 0.184708 0.0581613 0.128119 0.0564529 0.159087 0.0185514 0.0274853 0.113304 0.0441428 0.306589 0.0494914 0.146542
4679 3 4.42901 105.371 59.4486 22.0 0.0151682 0.0761371 0.151971 0.0870161 0.120139 0.0441984 0.204701 0.0137413 0.0330794 0.16324 0.0733245 0.351968 0.0685906 0.188005
4806 3 1.47324 101.689 61.5529 21.0 0.0361355 0.0477552 0.188374 0.0279197 0.162225 0.0391528 0.209942 0.0174499 0.0318356 0.136499 0.054556 0.334829 0.0733297 0.205174
4809 1 0.0985 102.917 59.518 25.0 0.04076 0.078876 0.190814 0.0614667 0.130004 0.0641014 0.204484 0.0238626 0.0310251 0.0925366 0.0585057 0.244848 0.048625 0.222053
4810 1 0.338594 105.102 61.4079 27.0 0.02911 0.126967 0.151395 0.0630194 0.142454 0.0950712 0.225014 0.0326427 0.0280311 0.0776335 0.0342822 0.293474 0.0686722 0.278314
4811 2 2.25296 103.091 61.5282 24.0 0.0447365 0.0946023 0.268238 0.0507743 0.196385 0.086818 0.23598 0.0450264 0.0201553 0.330574 0.0324084 0.318402 0.0447101 0.222492
4812 3 3.8195 103.014 61.3503 23.0 0.0231193 0.0606894 0.172193 0.0362852 0.125971 0.0422041 0.197532 0.0298693 0.0162183 0.173765 0.0607304 0.347392 0.0606241 0.213227
4814 3 1.67737 103.999 60.3684 23.0 0.0231461 0.0573225 0.117357 0.0681517 0.148356 0.0677339 0.190094 0.00829693 0.0279543 0.171832 0.0574815 0.345434 0.0707089 0.206387
4829 1 3.10698 107.155 59.7826 28.0 0.0170012 0.0193707 0.231979 0.0259875 0.135809 0.0288036 0.241681 0.0412364 0.0510417 0.0757596 0.0475449 0.31463 0.067433 0.27389
6054 3 4.8392 105.749 56.824 23.0 0.0183725 0.0481662 0.184708 0.0581613 0.128119 0.056453 0.159087 0.0185513 0.0274853 0.113304 0.0441427 0.306589 0.0494915 0.146542
5905 3 5.95426 105.356 53.5261 22.0 0.0229751 0.0915715 0.182243 0.0559842 0.145847 0.0459491 0.191726 0.0114704 0.0176432 0.104261 0.0451884 0.306163 0.059219 0.195927
6015 1 8.52031 98.9569 58.737 25.0 0.0442538 0.0962391 0.111579 0.0560673 0.169734 0.0757084 0.209367 0.0306313 0.0362854 0.117657 0.039861 0.272406 0.045764 0.253147
6016 2 6.24041 100.65 58.7521 23.0 0.0166788 0.0818306 0.212339 0.0443986 0.126876 0.0742122 0.194285 0.0419596 0.0209808 0.32418 0.0386585 0.312499 0.0402124 0.22195
6017 3 9.53153 100.837 58.8451 23.0 0.0275053 0.0463756 0.163815 0.0601308 0.114701 0.0405796 0.199757 0.0230174 0.0378975 0.169932 0.0355154 0.347288 0.0703998 0.190567
6019 3 6.70908 100.15 57.2868 25.0 0.0210061 0.0916539 0.140872 0.0539564 0.14627 0.0701429 0.196505 0.015382 0.0132569 0.140497 0.0779776 0.358536 0.0791284 0.201066
6020 3 7.0385 99.7833 59.7644 24.0 0.0306517 0.0657985 0.127337 0.0741482 0.137641 0.0551134 0.212006 0.0120808 0.026647 0.137681 0.0380339 0.338551 0.0575688 0.1834
6029 1 5.54893 99.833 55.6656 25.0 0.0474816 0.0721327 0.150136 0.0564267 0.169855 0.0442254 0.234884 0.0502247 0.0275533 0.0938853 0.0512866 0.307939 0.0789261 0.302012
6032 3 9.15851 101.557 55.7039 24.0 0.0335715 0.0549262 0.161748 0.0460057 0.166489 0.0306153 0.184984 0.0154384 0.0375015 0.136351 0.0617447 0.34857 0.0868246 0.19383