ITEM: TIMESTEP
3000
ITEM: NUMBER OF ATOMS
83
ITEM: BOX BOUNDS xy xz yz pp pp pp
0.0 8.9688 2.9896
0.0 168.75 0.0
0.0 414.274 0.0
ITEM: ATOMS id type x y z q2 q3 q4 q5 q6 q7 q8 q9 q10 q11 q12
12804 3 1.21532 75.379 201.943 0.160251 0.424019 0.338882 0.274389 0.281937 0.31048 0.425564 0.382973 0.275764 0.383213 0.350153
12808 1 0.59406 72.9037 201.93 0.073738 0.428022 0.501466 0.334967 0.398382 0.428019 0.412046 0.383391 0.398346 0.443515 0.35073
12812 2 4.22017 77.4365 201.951 0.0872805 0.633977 0.49514 0.188205 0.584589 0.518161 0.334398 0.462361 0.5375 0.41158 0.451309
12817 3 2.32351 72.8718 202.949 0.162383 0.344243 0.35129 0.324794 0.283286 0.310569 0.430715 0.304325 0.322213 0.368731 0.339858
12818 1 4.09798 74.6134 203.707 0.110328 0.336973 0.564757 0.34722 0.333119 0.434512 0.41231 0.40647 0.387123 0.391304 0.428855
12819 1 2.72196 75.6916 200.565 0.184091 0.0636646 0.687242 0.086143 0.474521 0.100394 0.592231 0.136079 0.526633 0.171141 0.56267
12820 3 4.12356 77.5983 206.382 0.182543 0.37641 0.323531 0.358421 0.230879 0.288566 0.447006 0.355146 0.350493 0.331627 0.299512
12823 3 1.26379 75.4523 199.134 0.144604 0.41152 0.371323 0.223834 0.302821 0.307572 0.426765 0.364656 0.230935 0.418178 0.398044
12824 1 6.17809 74.7982 206.263 0.0587362 0.488502 0.422269 0.284583 0.425971 0.459371 0.365815 0.406026 0.382796 0.434043 0.392263
12832 3 7.80146 74.9822 207.261 0.171768 0.430459 0.36214 0.409839 0.31401 0.307399 0.465908 0.356769 0.377787 0.41628 0.369102
12833 1 -1.1392 71.8246 205.003 0.182963 0.208647 0.564662 0.179336 0.370223 0.217105 0.517311 0.24149 0.382421 0.247095 0.488959
12835 1 7.28679 76.8829 208.095 0.0633693 0.451285 0.394004 0.332933 0.389376 0.43167 0.343896 0.366206 0.411611 0.40359 0.419057
12836 1 2.76319 77.7633 204.825 0.139785 0.2055 0.642229 0.16369 0.385738 0.400128 0.476317 0.268641 0.397867 0.48043 0.342767
12837 3 0.0940734 73.4591 200.054 0.151213 0.371439 0.343266 0.202339 0.244722 0.351718 0.313079 0.31192 0.314748 0.314759 0.342396
12840 3 2.72112 73.5914 199.898 0.170652 0.369957 0.253229 0.332022 0.312559 0.260488 0.437066 0.314 0.273464 0.374159 0.321909
12841 1 5.56839 77.0633 210.678 0.0927572 0.501158 0.40141 0.314535 0.468681 0.37666 0.348472 0.466234 0.370696 0.41461 0.434387
12842 3 0.97669 77.4946 203.527 0.0997947 0.447454 0.351939 0.179991 0.286955 0.390915 0.389176 0.317313 0.366565 0.380047 0.326654
12843 1 -0.248154 75.6122 200.57 0.180433 0.208131 0.434289 0.248854 0.320635 0.219864 0.388309 0.251642 0.357629 0.225458 0.382939
12845 2 6.25975 71.8591 207.373 0.138271 0.634311 0.478235 0.27144 0.555555 0.510934 0.386748 0.445047 0.503152 0.467229 0.471441
12846 1 1.93771 71.9004 204.938 0.211167 0.161516 0.5704 0.161068 0.41092 0.164755 0.525245 0.176325 0.429492 0.185989 0.514112
12848 3 9.31565 73.2139 205.702 0.394535 0.273834 0.504748 0.274663 0.372307 0.352587 0.362693 0.518935 0.342712 0.393905 0.332777
12849 3 7.36624 77.1641 211.577 0.156044 0.452904 0.356246 0.342066 0.308586 0.345442 0.44237 0.381214 0.290328 0.456659 0.362561
12850 1 4.41427 74.0511 209.391 0.241902 0.130454 0.574548 0.183111 0.442348 0.140403 0.487926 0.211826 0.486248 0.164438 0.46269
12855 3 -0.0830667 75.3628 204.349 0.163086 0.490211 0.348918 0.2679 0.339421 0.365984 0.353717 0.376102 0.36764 0.383015 0.377194
12858 3 2.50886 75.6459 204.258 0.166721 0.400242 0.253532 0.279967 0.317827 0.295731 0.407664 0.309588 0.285141 0.39655 0.331687
12859 1 -0.546114 77.6658 204.914 0.112356 0.232702 0.622273 0.201507 0.323958 0.41521 0.488053 0.268736 0.330068 0.479229 0.411929
12863 1 7.41891 74.0191 209.439 0.18227 0.0590723 0.640637 0.0953971 0.475825 0.103687 0.578378 0.129958 0.464123 0.17491 0.593717
12865 3 8.7988 75.306 210.092 0.437786 0.142024 0.436318 0.298158 0.246269 0.324157 0.286275 0.43561 0.304249 0.362102 0.343922
12871 3 2.83854 77.7927 208.727 0.12694 0.260742 0.315186 0.187552 0.17587 0.293734 0.280191 0.224399 0.23627 0.311357 0.283347
12872 3 8.94406 73.0607 208.263 0.376281 0.443622 0.333557 0.380029 0.331422 0.403722 0.506741 0.414227 0.366049 0.387284 0.449643
12873 3 6.34417 72.8741 206.01 0.144992 0.442386 0.359809 0.214746 0.297648 0.348315 0.43469 0.378987 0.269597 0.442544 0.3808
12874 3 5.51855 77.6218 208.761 0.155661 0.461166 0.386806 0.37254 0.300812 0.333193 0.440382 0.39004 0.341629 0.453107 0.355845
12890 3 5.89534 75.0746 210.388 0.148466 0.401135 0.405433 0.22356 0.304872 0.360338 0.398903 0.348525 0.300469 0.440554 0.363476
13749 3 4.28993 75.7881 202.048 0.15109 0.405939 0.364837 0.220894 0.278547 0.279072 0.473159 0.362199 0.246623 0.428652 0.360038
13752 2 3.57718 71.9178 202.69 0.0965484 0.654888 0.485733 0.194484 0.583263 0.550516 0.306531 0.468514 0.53811 0.445828 0.437855
13758 3 7.07198 77.9041 206.327 0.115953 0.384518 0.36258 0.181144 0.29246 0.323992 0.411954 0.337604 0.288842 0.413811 0.361219
13761 2 9.11136 74.1167 207.021 0.316682 0.490174 0.387854 0.360228 0.478678 0.442102 0.348212 0.366374 0.472556 0.409629 0.357538
13771 2 8.64047 76.215 211.345 0.0965875 0.623639 0.510463 0.237948 0.564489 0.497794 0.399711 0.436259 0.526041 0.450293 0.448796
13794 3 3.79867 78.5652 198.097 0.165928 0.386608 0.255594 0.347958 0.320763 0.253289 0.362225 0.379 0.289529 0.384075 0.338697
13822 2 1.19909 75.8944 203.468 0.0728758 0.668875 0.487357 0.159431 0.588658 0.553889 0.279105 0.485493 0.554866 0.401839 0.449333
13830 1 5.4341 78.4945 199.178 0.095547 0.47942 0.418646 0.337244 0.455005 0.409328 0.358152 0.439422 0.380521 0.446717 0.394497
13831 3 1.2459 78.4302 198.346 0.166197 0.452307 0.362961 0.308986 0.316865 0.349951 0.408713 0.395275 0.314773 0.413753 0.372966
13834 2 4.21927 78.0238 207.872 0.0953537 0.639465 0.504036 0.219929 0.578325 0.515713 0.363253 0.461183 0.527535 0.445235 0.459119
13837 3 4.28593 75.8547 199.191 0.162102 0.402884 0.327995 0.30838 0.269638 0.301569 0.431112 0.366595 0.31079 0.398129 0.302861
13848 3 4.14148 77.9508 203.456 0.17057 0.3985 0.314867 0.341766 0.275535 0.262838 0.412376 0.396758 0.331013 0.362733 0.313726
13858 3 5.51127 77.8534 201.055 0.13963 0.476454 0.379188 0.34012 0.343625 0.334266 0.39836 0.430917 0.3404 0.414998 0.394539
13863 3 2.833 77.6359 201.214 0.179782 0.41186 0.270366 0.347916 0.30724 0.291134 0.371783 0.368047 0.312091 0.391417 0.349003
13942 3 4.83953 72.8301 203.05 0.133142 0.484713 0.331876 0.270203 0.338384 0.338298 0.38271 0.436376 0.324747 0.373337 0.420634
13954 3 10.4148 74.873 207.39 0.238233 0.307792 0.302909 0.301668 0.24516 0.263339 0.313635 0.299367 0.2587 0.28657 0.311942
14272 3 6.0614 72.6402 208.746 0.158294 0.430494 0.357358 0.309246 0.285696 0.308179 0.448375 0.386767 0.300642 0.376052 0.391099
14857 2 2.52039 79.3657 198.504 0.0989975 0.645303 0.504287 0.214645 0.586267 0.512858 0.360886 0.467937 0.539634 0.425828 0.468557
14860 1 1.31888 81.6515 200.354 0.224189 0.185956 0.480731 0.274988 0.418509 0.228457 0.415296 0.294845 0.348953 0.358771 0.392854
14872 2 7.18506 79.5503 206.314 0.102294 0.654043 0.492914 0.211844 0.57415 0.54817 0.336488 0.459246 0.531465 0.466818 0.430601
14873 2 2.99777 81.3743 202.817 0.106598 0.607083 0.509297 0.274944 0.535645 0.514595 0.395944 0.402379 0.526244 0.505471 0.371428
14874 1 4.27283 81.5406 200.52 0.1619 0.0553909 0.694687 0.0783602 0.453638 0.0966126 0.603063 0.130612 0.52231 0.160127 0.554752
14875 3 5.92194 82.8838 201.115 0.141565 0.454822 0.37203 0.31384 0.29183 0.309701 0.470232 0.397082 0.290488 0.411074 0.416578
14877 1 1.9207 83.5142 204.9 0.199196 0.0877773 0.65373 0.0743948 0.487084 0.148278 0.583612 0.144297 0.46945 0.208893 0.590174
14878 3 4.28072 79.8285 210.664 0.207951 0.37651 0.300081 0.300058 0.251477 0.299819 0.403702 0.300966 0.342291 0.371446 0.246989
14882 3 5.67652 80.4709 199.479 0.142307 0.395092 0.372548 0.24147 0.274989 0.317391 0.436933 0.362944 0.262964 0.425408 0.370929
14889 2 3.54357 83.5299 207.215 0.151087 0.643543 0.476339 0.274222 0.536303 0.523558 0.391311 0.446806 0.497616 0.481996 0.424506
14890 1 4.86994 83.6364 204.832 0.139987 0.0622088 0.691676 0.0848155 0.429491 0.10896 0.612304 0.137399 0.495853 0.168211 0.55822
14895 1 5.72301 79.8899 209.224 0.155321 0.0451466 0.675925 0.0711582 0.435973 0.0917455 0.605033 0.109907 0.495481 0.135135 0.579937
14898 3 4.26414 79.6663 207.863 0.146101 0.443221 0.362078 0.187221 0.310775 0.354481 0.418497 0.381771 0.269816 0.419203 0.38954
14900 3 6.26181 82.5535 203.817 0.145895 0.422292 0.377081 0.230763 0.286306 0.339654 0.430193 0.369654 0.268846 0.44507 0.371932
14901 3 2.8314 82.4511 201.572 0.117549 0.420822 0.354875 0.211297 0.31358 0.344912 0.370421 0.38686 0.311469 0.39442 0.337385
14917 3 3.43843 84.585 205.902 0.12949 0.416272 0.357584 0.222686 0.291469 0.33788 0.448301 0.362701 0.266673 0.37615 0.389377
14919 1 2.61574 79.8268 209.219 0.099249 0.232602 0.340781 0.328739 0.259891 0.246916 0.284381 0.298369 0.296297 0.291749 0.269206
15796 2 6.14845 83.6209 202.509 0.118681 0.645667 0.4779 0.230722 0.567987 0.532981 0.35118 0.449146 0.527778 0.450347 0.450835
15813 3 7.19254 80.0737 210.753 0.139495 0.393453 0.395185 0.214251 0.297257 0.293639 0.472985 0.348103 0.224625 0.45496 0.379011
15848 3 4.30103 80.6171 202.42 0.153878 0.418837 0.319224 0.319401 0.269405 0.306053 0.393803 0.391678 0.300492 0.328776 0.393291
15849 1 1.30114 78.5972 201.836 0.0757649 0.46922 0.400505 0.325305 0.450376 0.403301 0.340609 0.400315 0.399949 0.401066 0.393095
15858 3 4.78627 82.5642 206.826 0.137152 0.495696 0.334461 0.24591 0.34524 0.340002 0.349711 0.457512 0.352664 0.333341 0.43675
15860 1 4.13766 80.6967 206.084 0.0741336 0.38613 0.506335 0.351211 0.305254 0.467139 0.41314 0.334454 0.373974 0.452599 0.393949
15885 1 5.95464 80.6053 203.528 0.0702679 0.507243 0.400218 0.295674 0.448529 0.431514 0.353515 0.450868 0.366953 0.40916 0.453699
15887 3 1.66214 80.4708 202.571 0.209145 0.309969 0.334292 0.359295 0.197217 0.27715 0.392878 0.269066 0.327289 0.367344 0.283575
15896 1 6.53067 82.514 207.885 0.0758233 0.388716 0.525721 0.368342 0.345092 0.429034 0.433764 0.386926 0.383365 0.432222 0.369771
15900 3 2.2565 82.6754 206.867 0.165551 0.394108 0.308343 0.277914 0.254804 0.327457 0.401589 0.308904 0.305427 0.367971 0.301662
15903 3 7.07055 80.086 207.806 0.148576 0.439005 0.352177 0.313876 0.272157 0.305289 0.454061 0.398249 0.310316 0.358244 0.388771
15912 3 8.493 79.769 205.471 0.150063 0.430754 0.264775 0.291759 0.3507 0.286359 0.393196 0.326019 0.316833 0.399183 0.355684
15918 3 5.92408 79.999 205.361 0.161957 0.496163 0.34647 0.288126 0.28593 0.380785 0.418132 0.355478 0.361799 0.455255 0.388551
15923 3 8.48606 81.9817 209.853 0.161528 0.383373 0.263511 0.30549 0.294223 0.274415 0.439401 0.324506 0.271345 0.34327 0.35608
16314 3 2.57149 80.2546 199.778 0.168552 0.372105 0.292303 0.325699 0.247737 0.255092 0.412464 0.375867 0.285213 0.37652 0.318449
16315 3 3.30259 82.2782 204.057 0.155368 0.38604 0.33216 0.279482 0.264619 0.314269 0.377494 0.408395 0.359583 0.324333 0.304095
