ITEM: TIMESTEP
7000
ITEM: NUMBER OF ATOMS
756
ITEM: BOX BOUNDS pp pp pp
-4.8435403183999997e+00 9.6870806368999993e+00
-1.0186409263300000e+01 2.0372818526500001e+01
-6.0013959751000003e+00 1.2002791950200001e+01
ITEM: ATOMS id type x y z q2 q3 q4 q5 q6 q7 q8 q9 q10 q11 q12
1 1 -0.0454399 -10.2686 -0.0249552 0.172511  0.0326162  0.680601  0.0534076  0.472232  0.0666764  0.605601  0.0881708  0.510806  0.100423  0.594197  
2 1 -0.188305 -7.36907 -4.46925 0.0881806  0.275479  0.621598  0.355969  0.276388  0.368331  0.505688  0.418348  0.271282  0.366953  0.536733  
3 2 -2.76124 -9.19731 -4.53483 0.129522  0.662739  0.476835  0.220458  0.572722  0.537334  0.340385  0.486796  0.508763  0.44646  0.493771  
4 3 -1.22209 -9.28759 -4.48261 0.144301  0.451293  0.35562  0.304416  0.256243  0.313775  0.483392  0.377207  0.275258  0.403839  0.401475  
5 3 -3.84992 -5.54578 -4.52749 0.151934  0.399301  0.346102  0.230639  0.284806  0.287788  0.469287  0.378551  0.195045  0.410387  0.382967  
6 3 -3.42019 -8.48459 -5.80423 0.155253  0.396889  0.32242  0.258314  0.235429  0.321034  0.450242  0.351168  0.233957  0.385075  0.388597  
7 1 -0.0322584 -10.17 -2.99032 0.168041  0.0296575  0.691005  0.0418149  0.464386  0.0548249  0.615541  0.0715636  0.513648  0.0847089  0.601307  
8 3 -3.48021 -8.55273 -3.23988 0.140504  0.425999  0.335377  0.256507  0.259879  0.345513  0.470182  0.345122  0.2382  0.405538  0.388037  
9 1 -4.64871 -2.80984 -1.52583 0.0851574  0.273583  0.620805  0.352046  0.28142  0.365453  0.500361  0.421343  0.280814  0.357282  0.532079  
10 2 -2.04259 -1.03158 -1.50268 0.130408  0.643077  0.463384  0.249734  0.554507  0.52883  0.368167  0.442878  0.49969  0.475787  0.468486  
11 3 -3.62113 -0.881981 -1.45873 0.13008  0.457199  0.357886  0.313007  0.245199  0.338804  0.491141  0.357382  0.311387  0.402517  0.37449  
12 3 -1.04384 -4.62676 -1.47686 0.13111  0.41596  0.351663  0.205309  0.277417  0.323391  0.456284  0.371806  0.219981  0.405169  0.392829  
13 3 -1.31419 -1.67602 -2.74185 0.131377  0.444296  0.365794  0.246797  0.297175  0.374368  0.460146  0.343971  0.300278  0.407234  0.388876  
14 3 -1.30376 -1.58754 -0.157261 0.141391  0.424226  0.310469  0.298976  0.27175  0.299053  0.492033  0.366533  0.193847  0.412802  0.381068  
15 1 -2.42811 -5.05946 -3.02955 0.179805  0.0356788  0.67885  0.0424123  0.479275  0.0790058  0.60201  0.0685733  0.514462  0.115606  0.597659  
16 1 -2.52526 -7.89599 -1.51821 0.0753273  0.240073  0.66312  0.282085  0.312366  0.366434  0.515083  0.393825  0.308565  0.394357  0.486616  
17 2 -0.373677 -6.06279 -1.43699 0.109003  0.661566  0.473141  0.19692  0.585647  0.548886  0.302878  0.47977  0.529866  0.418377  0.482101  
18 3 -3.57935 -5.96398 -1.49132 0.136756  0.460512  0.362221  0.282316  0.272764  0.343354  0.461854  0.376197  0.30407  0.394186  0.409761  
19 3 -1.37927 -9.7437 -1.48774 0.120074  0.4099  0.355721  0.212105  0.276199  0.316612  0.461072  0.376299  0.213464  0.39667  0.401375  
20 3 -1.08496 -6.73812 -2.78739 0.154595  0.422783  0.335281  0.284412  0.268986  0.331757  0.493544  0.345441  0.232014  0.403517  0.391498  
21 1 -2.46045 -5.09963 0.0430992 0.178015  0.0422014  0.671673  0.0879349  0.465813  0.109347  0.59501  0.129988  0.500441  0.157289  0.571957  
22 3 -1.02829 -6.75995 -0.18428 0.161923  0.420749  0.329571  0.290698  0.265844  0.288326  0.504879  0.373828  0.197345  0.396334  0.416668  
23 1 -2.36835 -2.1971 -4.47632 0.0639081  0.266272  0.652511  0.296031  0.302484  0.394397  0.510735  0.381855  0.328358  0.378502  0.520837  
24 2 -4.52446 -4.04685 -4.49956 0.124042  0.653065  0.465996  0.233451  0.575449  0.533995  0.338633  0.472483  0.508445  0.438061  0.492881  
25 3 -1.20791 -4.17845 -4.52297 0.141052  0.449144  0.355356  0.335234  0.254881  0.289935  0.500681  0.387352  0.267441  0.407554  0.400294  
26 3 -3.3856 -0.488304 -4.39041 0.158788  0.389573  0.345111  0.245601  0.27437  0.28199  0.478216  0.372504  0.213084  0.38931  0.380311  
27 3 -3.85036 -3.40626 -5.77649 0.14611  0.419138  0.344359  0.257341  0.278202  0.334213  0.465038  0.349327  0.246448  0.401499  0.387263  
28 3 -3.81381 -3.47743 -3.2069 0.142548  0.430453  0.353314  0.279741  0.302844  0.331968  0.496155  0.348225  0.233652  0.411174  0.395554  
30 1 -0.0630893 -7.44499 1.34398 0.0719605  0.240737  0.673848  0.255534  0.323074  0.378273  0.524359  0.364288  0.347038  0.407017  0.465007  
31 2 -2.83854 -9.3424 1.4185 0.0957665  0.672268  0.483983  0.176764  0.594506  0.560253  0.286303  0.484154  0.553889  0.416531  0.459375  
32 3 -1.29218 -9.34113 1.43063 0.146998  0.452578  0.353265  0.316893  0.266429  0.246612  0.498394  0.399164  0.189239  0.447134  0.414447  
33 3 -3.94399 -5.57684 1.5168 0.143791  0.371852  0.364757  0.221396  0.262828  0.29528  0.430214  0.376189  0.247586  0.398514  0.334716  
34 3 -3.47596 -8.60236 0.159192 0.149815  0.41694  0.33585  0.273633  0.287408  0.301356  0.483867  0.358284  0.238675  0.387164  0.395723  
36 3 -3.48627 -8.6032 2.68247 0.154043  0.413103  0.319047  0.275737  0.247455  0.304499  0.483528  0.355452  0.219787  0.400535  0.377464  
51 1 -2.23083 -2.23357 1.44334 0.0623463  0.281555  0.643889  0.308284  0.287521  0.404506  0.500498  0.399863  0.277673  0.41068  0.500988  
52 2 -4.48253 -4.02414 1.52646 0.118575  0.657831  0.466258  0.229555  0.576338  0.545129  0.342105  0.448983  0.526304  0.462318  0.450473  
53 3 -1.23179 -4.17334 1.43082 0.137608  0.464128  0.349674  0.306625  0.271121  0.338298  0.4793  0.387007  0.285813  0.390442  0.410627  
54 3 -3.44186 -0.52579 1.4521 0.13821  0.385957  0.355168  0.231539  0.277698  0.297945  0.474624  0.371613  0.204362  0.372956  0.396704  
55 3 -3.74456 -3.3757 0.291729 0.138627  0.436344  0.335002  0.267576  0.266074  0.360915  0.461636  0.337678  0.268311  0.416093  0.383837  
56 3 -3.79276 -3.42055 2.79894 0.146722  0.404392  0.318841  0.276151  0.247563  0.304185  0.486164  0.344772  0.213304  0.378088  0.408209  
253 1 4.72431 -10.1412 -0.0757025 0.181336  0.0485483  0.674887  0.0808064  0.470402  0.0959243  0.59834  0.126611  0.49954  0.158718  0.58394  
254 1 4.76254 -7.35616 -4.39745 0.0686973  0.286323  0.634938  0.31449  0.301211  0.39568  0.498264  0.387992  0.326848  0.384871  0.500485  
255 2 2.0766 -9.21708 -4.47548 0.134167  0.644264  0.470218  0.25889  0.553275  0.534927  0.37178  0.450869  0.488702  0.494481  0.460778  
256 3 3.61244 -9.39994 -4.54884 0.138551  0.454495  0.365085  0.32627  0.249477  0.326201  0.496968  0.363241  0.307573  0.402791  0.383844  
257 3 1.01973 -5.53831 -4.55437 0.126064  0.396739  0.350353  0.197847  0.272929  0.314628  0.445908  0.371931  0.215438  0.399884  0.377294  
258 3 1.35246 -8.54955 -5.69031 0.130459  0.430017  0.330684  0.243411  0.240796  0.35809  0.465866  0.349654  0.26354  0.382674  0.404109  
259 1 4.80059 -10.3017 -3.04529 0.180113  0.0292496  0.653979  0.100369  0.467273  0.0796835  0.596256  0.119292  0.469634  0.178452  0.594469  
260 3 1.35829 -8.54341 -3.15176 0.150401  0.395283  0.334255  0.275692  0.25785  0.277071  0.500707  0.345388  0.181931  0.388376  0.417607  
261 1 0.0671333 -2.82058 -1.55909 0.0726844  0.235816  0.668506  0.264633  0.322836  0.374304  0.516905  0.369864  0.34294  0.404855  0.465198  
262 2 2.80547 -0.96974 -1.49496 0.111634  0.660651  0.469209  0.204309  0.582712  0.550888  0.305522  0.474793  0.53338  0.425573  0.466757  
263 3 1.24582 -0.856301 -1.5654 0.141186  0.443674  0.349654  0.310439  0.244496  0.29359  0.494722  0.376322  0.251178  0.401065  0.409374  
264 3 3.86472 -4.51648 -1.63079 0.153051  0.368743  0.341851  0.260182  0.283168  0.250879  0.481602  0.36463  0.215837  0.358589  0.386198  
265 3 3.5035 -1.62513 -2.78354 0.133523  0.385445  0.317581  0.2716  0.234858  0.28507  0.473801  0.347419  0.19523  0.386194  0.373198  
266 3 3.45022 -1.66991 -0.197673 0.168372  0.408729  0.336228  0.310738  0.281066  0.261208  0.507106  0.365816  0.201105  0.398623  0.401255  
267 1 2.40278 -5.075 -2.91814 0.170132  0.0934943  0.666287  0.103672  0.455501  0.182248  0.569577  0.177368  0.495808  0.246013  0.514247  
268 1 2.30883 -7.77235 -1.48438 0.076236  0.239385  0.669898  0.252425  0.318943  0.383482  0.516858  0.361714  0.339634  0.413963  0.46345  
269 2 4.54732 -6.01819 -1.56817 0.145193  0.638964  0.47183  0.268902  0.538886  0.527458  0.386627  0.455204  0.470857  0.50184  0.467945  
270 3 1.2086 -6.01368 -1.44525 0.141978  0.470745  0.359685  0.332188  0.280542  0.289088  0.505194  0.404199  0.223598  0.427368  0.42955  
271 3 3.35517 -9.72534 -1.55046 0.133558  0.3862  0.380643  0.20934  0.269674  0.311434  0.464639  0.36136  0.217683  0.413665  0.377564  
272 3 3.78108 -6.70936 -2.78649 0.153266  0.429089  0.320493  0.275486  0.27788  0.302285  0.484011  0.372141  0.229291  0.397959  0.398401  
273 1 2.39573 -5.15007 -0.00878792 0.175174  0.0506851  0.657779  0.105014  0.45146  0.0809438  0.603857  0.144267  0.466701  0.176716  0.58464  
274 3 3.79623 -6.6517 -0.31065 0.146357  0.448028  0.339354  0.246291  0.30154  0.352877  0.459777  0.370269  0.282672  0.406744  0.380666  
275 1 2.38936 -2.27358 -4.5624 0.0578962  0.202422  0.695754  0.23468  0.329611  0.332214  0.557293  0.355807  0.34653  0.386417  0.473188  
276 2 0.347573 -4.06803 -4.59717 0.129253  0.642839  0.460174  0.256426  0.569716  0.527266  0.348878  0.464972  0.493894  0.45598  0.483737  
277 3 3.633 -4.15886 -4.55092 0.139108  0.441776  0.337868  0.320344  0.250965  0.29135  0.498726  0.393542  0.230254  0.400216  0.412406  
278 3 1.34182 -0.529838 -4.56951 0.147071  0.421084  0.362615  0.252488  0.290646  0.316722  0.491072  0.376548  0.236406  0.387158  0.415368  
279 3 1.04028 -3.38244 -5.84477 0.140969  0.409796  0.348727  0.289849  0.27468  0.290172  0.501664  0.365036  0.185972  0.402318  0.404622  
280 3 1.14708 -3.43796 -3.21979 0.128005  0.4309  0.329808  0.262717  0.276689  0.35232  0.451127  0.355853  0.272944  0.383611  0.377833  
282 1 4.73797 -7.32274 1.38843 0.072466  0.274961  0.651714  0.31098  0.29617  0.393084  0.519558  0.393644  0.298336  0.38787  0.537179  
283 2 2.0313 -9.24853 1.48659 0.109583  0.668448  0.478963  0.204316  0.585267  0.552172  0.311743  0.485876  0.531019  0.429335  0.47665  
284 3 3.6317 -9.215 1.3743 0.140225  0.467869  0.35473  0.271052  0.279893  0.329098  0.451108  0.388944  0.280386  0.404669  0.429618  
285 3 0.965426 -5.60593 1.41689 0.141269  0.383865  0.354142  0.216247  0.28906  0.286453  0.46483  0.359703  0.215056  0.396627  0.372113  
286 3 1.33733 -8.57859 0.238759 0.132712  0.439798  0.338121  0.241588  0.262702  0.314362  0.470788  0.357107  0.232756  0.412234  0.415505  
288 3 1.40088 -8.6018 2.77262 0.151209  0.402612  0.325551  0.296533  0.285375  0.307991  0.485493  0.331123  0.248543  0.387772  0.364748  
303 1 2.48657 -2.38834 1.38951 0.0784172  0.239227  0.675667  0.268907  0.322761  0.366013  0.52549  0.384045  0.334598  0.395315  0.483303  
304 2 0.270256 -4.11239 1.44808 0.160721  0.630919  0.459861  0.302809  0.544648  0.504595  0.402024  0.462585  0.447756  0.498302  0.500715  
305 3 3.62992 -4.20316 1.43376 0.14658  0.458389  0.347703  0.347612  0.283373  0.26138  0.512416  0.403442  0.210166  0.425041  0.413607  
306 3 1.36891 -0.500257 1.46446 0.116278  0.411158  0.369602  0.201403  0.296681  0.32227  0.465301  0.366789  0.257184  0.381897  0.393799  
307 3 1.02334 -3.53005 0.126682 0.135302  0.405644  0.324381  0.263675  0.283064  0.278305  0.500779  0.344536  0.193639  0.389007  0.399377  
308 3 1.09483 -3.47573 2.65877 0.117623  0.432531  0.353503  0.244028  0.266665  0.354868  0.473616  0.346424  0.262186  0.392075  0.397874  
505 1 9.52788 -10.132 -0.109182 0.160205  0.0827556  0.656461  0.151885  0.43061  0.175548  0.576043  0.225  0.440755  0.270362  0.526184  
506 1 9.61431 -7.30473 -4.54901 0.0792877  0.271322  0.645847  0.317522  0.302805  0.385868  0.507428  0.401299  0.314677  0.379509  0.526082  
507 2 6.95984 -9.21522 -4.49501 0.121598  0.652757  0.471882  0.235902  0.572435  0.537571  0.339464  0.472149  0.505963  0.454721  0.480479  
508 3 8.53966 -9.26133 -4.46613 0.136925  0.432096  0.337755  0.285546  0.254842  0.320331  0.459832  0.384571  0.260162  0.365988  0.416292  
509 3 5.86597 -5.61369 -4.47663 0.131045  0.414314  0.363741  0.206212  0.305221  0.319831  0.451828  0.379892  0.219637  0.414721  0.384896  
510 3 6.31851 -8.59221 -5.8394 0.157472  0.387007  0.308073  0.272705  0.268394  0.27818  0.473374  0.336399  0.233309  0.37878  0.364611  
511 1 9.74365 -10.1483 -2.97808 0.173381  0.0831116  0.665523  0.105975  0.457256  0.16279  0.581401  0.183568  0.477956  0.218885  0.54873  
512 3 6.18024 -8.50435 -3.32027 0.135876  0.444454  0.339454  0.246292  0.300205  0.363153  0.446006  0.361134  0.297581  0.395607  0.384692  
513 1 4.91429 -2.75753 -1.54214 0.0592736  0.220131  0.68081  0.265146  0.305945  0.346015  0.549257  0.382892  0.296196  0.38169  0.509964  
514 2 7.63011 -1.01835 -1.57398 0.107747  0.665115  0.474632  0.20159  0.586169  0.552251  0.309636  0.476005  0.536926  0.42437  0.469746  
515 3 6.05751 -1.00977 -1.52759 0.149896  0.469873  0.355491  0.321303  0.297479  0.311333  0.478229  0.412011  0.249063  0.416535  0.428962  
516 3 8.68604 -4.6263 -1.64328 0.127047  0.390794  0.358062  0.211286  0.259541  0.338568  0.44482  0.366515  0.241288  0.371305  0.387656  
517 3 8.33954 -1.62583 -2.83968 0.143242  0.417169  0.328294  0.280726  0.260943  0.301389  0.493163  0.355739  0.202764  0.400196  0.401856  
518 3 8.22662 -1.69643 -0.257771 0.158254  0.391442  0.317551  0.270566  0.262074  0.289342  0.464574  0.354776  0.238748  0.388348  0.365466  
519 1 7.2695 -5.24881 -3.12767 0.173137  0.0984453  0.651169  0.200681  0.440938  0.194664  0.562037  0.264072  0.409885  0.339184  0.511577  
520 1 7.05359 -7.94339 -1.55652 0.0878248  0.298095  0.603193  0.375764  0.251675  0.380058  0.508362  0.41131  0.256451  0.377156  0.540088  
521 2 9.37591 -6.07286 -1.56536 0.122153  0.657953  0.476995  0.231955  0.56677  0.543063  0.344104  0.471614  0.509717  0.46389  0.47125  
522 3 6.10505 -5.95392 -1.68084 0.130206  0.446055  0.357224  0.301516  0.254903  0.350274  0.4761  0.362888  0.310392  0.380484  0.386253  
523 3 8.17808 -9.67719 -1.5863 0.136148  0.397364  0.360451  0.236423  0.304058  0.299107  0.451581  0.387512  0.20016  0.41394  0.371489  
524 3 8.68131 -6.76372 -2.81271 0.154592  0.413411  0.334662  0.239739  0.2883  0.359336  0.452595  0.330836  0.281547  0.39625  0.3626  
525 1 7.42644 -5.08016 -0.012252 0.179554  0.118715  0.649594  0.141425  0.471045  0.215192  0.527115  0.257176  0.488346  0.27063  0.463569  
526 3 8.68695 -6.77537 -0.330367 0.150912  0.430971  0.350624  0.269701  0.26105  0.357706  0.467478  0.355823  0.267699  0.401905  0.400798  
527 1 7.378 -2.2365 -4.49452 0.0725455  0.25844  0.652467  0.302783  0.304813  0.376167  0.515681  0.391347  0.31615  0.372282  0.52473  
528 2 5.1776 -4.05938 -4.49483 0.129568  0.640993  0.466011  0.253983  0.569533  0.532957  0.351649  0.451943  0.501309  0.467317  0.47089  
529 3 8.44217 -4.13639 -4.55133 0.135354  0.440393  0.335052  0.289693  0.272856  0.330928  0.443473  0.395567  0.288882  0.362497  0.40326  
530 3 6.31466 -0.495495 -4.44974 0.150215  0.396832  0.350602  0.221099  0.277684  0.300586  0.461603  0.375716  0.207359  0.409095  0.374634  
531 3 5.88817 -3.46946 -5.84056 0.142099  0.394872  0.322522  0.263935  0.257677  0.306832  0.481247  0.32974  0.206677  0.386906  0.389444  
532 3 5.92191 -3.38115 -3.27315 0.14049  0.400711  0.317555  0.255167  0.238775  0.318797  0.466787  0.356491  0.231673  0.372729  0.390664  
534 1 9.56102 -7.49437 1.36828 0.0847726  0.259395  0.642564  0.32385  0.29413  0.364184  0.498145  0.427267  0.303258  0.362733  0.503602  
535 2 6.86619 -9.22674 1.42661 0.1205  0.665953  0.476298  0.215545  0.573017  0.548586  0.335275  0.469995  0.526549  0.455002  0.466286  
536 3 8.41874 -9.39691 1.38063 0.140985  0.464027  0.365615  0.308404  0.260025  0.317209  0.494963  0.371829  0.278095  0.419067  0.403459  
537 3 5.88317 -5.65931 1.44918 0.154461  0.382048  0.357371  0.258347  0.288558  0.275097  0.488839  0.370895  0.220689  0.368742  0.402146  
538 3 6.20365 -8.47435 0.208349 0.157669  0.429326  0.346633  0.2642  0.272803  0.357389  0.470754  0.336877  0.275037  0.424517  0.358043  
540 3 6.19967 -8.65203 2.73128 0.133615  0.421406  0.322108  0.257525  0.26127  0.32526  0.469644  0.342059  0.216586  0.41518  0.377942  
555 1 7.23155 -2.29255 1.44273 0.0856129  0.241756  0.646903  0.317269  0.316826  0.362463  0.492747  0.426613  0.326061  0.360229  0.480027  
556 2 5.18448 -4.19198 1.44893 0.126328  0.654172  0.469782  0.237773  0.575965  0.536469  0.334368  0.483057  0.497365  0.45023  0.494904  
557 3 8.45032 -4.1255 1.49189 0.154085  0.461783  0.352885  0.320035  0.27416  0.319694  0.481135  0.408424  0.240422  0.413009  0.425836  
558 3 6.21881 -0.523709 1.55439 0.140695  0.423412  0.373131  0.213513  0.286319  0.333255  0.464447  0.370248  0.244353  0.41008  0.397898  
559 3 5.91329 -3.52325 0.179244 0.135065  0.413711  0.330473  0.254593  0.26875  0.314373  0.467717  0.358042  0.21835  0.396079  0.39345  
560 3 5.89121 -3.50901 2.73122 0.140546  0.423393  0.336314  0.281704  0.260014  0.323801  0.491248  0.364488  0.201097  0.40299  0.398498  
85 1 0.0208577 0.0891809 -0.042281 0.165331  0.0527074  0.667932  0.141444  0.457958  0.100359  0.591104  0.187749  0.463599  0.227695  0.570336  
86 1 0.0199199 2.83802 -4.47223 0.0902347  0.262217  0.641091  0.304999  0.32872  0.369396  0.50402  0.381629  0.373006  0.341354  0.503924  
87 2 -2.72145 1.03658 -4.48538 0.135297  0.649332  0.463564  0.257183  0.574914  0.525554  0.351447  0.475825  0.495069  0.449921  0.495819  
88 3 -1.14316 0.982815 -4.5013 0.144805  0.448569  0.342484  0.332128  0.282475  0.294708  0.482883  0.40606  0.244652  0.395978  0.414568  
89 3 -3.81766 4.63016 -4.43264 0.127195  0.402244  0.361777  0.198529  0.285392  0.32734  0.454104  0.369238  0.233513  0.398275  0.37962  
90 3 -3.42738 1.67157 -5.73321 0.129808  0.419861  0.340686  0.247817  0.253793  0.349519  0.450025  0.348065  0.277676  0.370536  0.410341  
91 1 0.0464451 -0.110664 -3.06407 0.179977  0.0823788  0.663247  0.131028  0.469509  0.155812  0.570471  0.203992  0.48004  0.232914  0.544096  
92 3 -3.48383 1.65504 -3.20516 0.140466  0.432788  0.325304  0.26765  0.290435  0.317758  0.496743  0.358618  0.236924  0.385172  0.404726  
93 1 -4.85891 7.36071 -1.5738 0.070293  0.248929  0.646637  0.300461  0.320259  0.366944  0.505164  0.386382  0.345972  0.365655  0.486334  
94 2 -2.18697 9.16804 -1.53735 0.133481  0.650985  0.467766  0.256092  0.569172  0.528717  0.358721  0.472821  0.491293  0.464778  0.492475  
95 3 -3.72381 9.25831 -1.4869 0.140097  0.457559  0.347763  0.302207  0.282292  0.337354  0.465  0.406965  0.265447  0.369077  0.433858  
96 3 -1.03053 5.61757 -1.4208 0.147244  0.394943  0.368808  0.223831  0.288637  0.311727  0.477326  0.370314  0.210522  0.392224  0.396402  
97 3 -1.49905 8.47209 -2.73349 0.14516  0.398184  0.337211  0.253077  0.268395  0.333306  0.457575  0.350522  0.24919  0.388263  0.371045  
98 3 -1.45014 8.56481 -0.242065 0.142511  0.427938  0.326919  0.267931  0.257158  0.335761  0.487682  0.337042  0.247734  0.404454  0.378549  
99 1 -2.40298 5.15907 -2.95867 0.172653  0.0474254  0.665922  0.0794383  0.466829  0.0873181  0.596652  0.12717  0.490716  0.143407  0.585797  
100 1 -2.499 2.35236 -1.54757 0.0778872  0.23223  0.667338  0.27963  0.318255  0.349677  0.528933  0.386776  0.327641  0.366617  0.502924  
101 2 -0.31774 4.10661 -1.45288 0.131868  0.658684  0.470433  0.229836  0.578811  0.532854  0.340671  0.484097  0.5076  0.435927  0.501208  
102 3 -3.59237 4.18526 -1.4975 0.134213  0.462153  0.354178  0.306915  0.2718  0.313948  0.483525  0.389418  0.258533  0.403951  0.419935  
103 3 -1.4318 0.459759 -1.55427 0.136469  0.382501  0.343447  0.214311  0.273074  0.295614  0.448321  0.366831  0.222522  0.396827  0.360393  
104 3 -0.966181 3.54892 -2.83588 0.152527  0.409847  0.319925  0.28162  0.279901  0.266133  0.496538  0.347504  0.216295  0.396994  0.381219  
105 1 -2.41818 5.03318 0.0208061 0.178456  0.0431969  0.672715  0.0683937  0.472812  0.0709283  0.602004  0.107865  0.502159  0.121155  0.592089  
106 3 -1.07259 3.39655 -0.242653 0.122748  0.393285  0.359544  0.262061  0.245858  0.351529  0.465181  0.333092  0.269579  0.355209  0.395472  
107 1 -2.39449 7.87478 -4.52302 0.0659126  0.252491  0.645032  0.325229  0.293599  0.364718  0.51816  0.416213  0.276881  0.369415  0.52621  
108 2 -4.53392 6.05061 -4.44077 0.141624  0.646139  0.468102  0.275279  0.563723  0.519394  0.374474  0.481288  0.459962  0.483496  0.511713  
109 3 -1.1313 6.03358 -4.49678 0.158806  0.43931  0.339847  0.337359  0.262698  0.236896  0.503274  0.395605  0.210549  0.429976  0.382394  
110 3 -3.56207 9.68381 -4.37009 0.125964  0.407149  0.353521  0.206038  0.248499  0.338111  0.44825  0.361986  0.246355  0.383464  0.396519  
111 3 -3.80142 6.73328 -5.72195 0.149954  0.427126  0.334003  0.272036  0.272492  0.321179  0.493798  0.360054  0.219404  0.402803  0.408107  
112 3 -3.78407 6.75211 -3.24147 0.132507  0.439072  0.336497  0.251813  0.270279  0.360406  0.467515  0.356966  0.277265  0.379841  0.403405  
114 1 -0.0173696 2.80117 1.67315 0.060747  0.273743  0.646902  0.288893  0.323064  0.396606  0.495197  0.372689  0.36881  0.395443  0.448056  
115 2 -2.75545 0.938565 1.50464 0.115257  0.662281  0.4736  0.219347  0.581911  0.548043  0.320369  0.479974  0.519113  0.442803  0.479548  
116 3 -1.18878 0.890425 1.52576 0.135903  0.457767  0.356862  0.327247  0.27604  0.294198  0.494635  0.400975  0.228192  0.407986  0.434191  
117 3 -3.88881 4.60274 1.45863 0.141241  0.401414  0.374007  0.21863  0.291103  0.313321  0.448876  0.373667  0.233919  0.417716  0.372359  
118 3 -3.44552 1.65427 0.268312 0.140027  0.403579  0.332433  0.248672  0.227695  0.342992  0.468345  0.330273  0.248724  0.387946  0.373432  
120 3 -3.45127 1.60611 2.78985 0.149216  0.433418  0.339961  0.260187  0.289988  0.302805  0.473911  0.368983  0.212416  0.420397  0.409957  
135 1 -2.26063 7.88712 1.47634 0.0946668  0.273519  0.604742  0.373935  0.274241  0.34621  0.496757  0.420258  0.287585  0.353794  0.513093  
136 2 -4.5236 6.09641 1.53067 0.10641  0.667513  0.476801  0.178242  0.582477  0.554569  0.303465  0.475808  0.546695  0.416906  0.460469  
137 3 -1.26266 5.97253 1.60271 0.137193  0.45927  0.368969  0.288876  0.25263  0.358118  0.477084  0.356444  0.314976  0.398433  0.39698  
138 3 -3.42621 9.73382 1.54718 0.125741  0.384802  0.366355  0.195613  0.281427  0.293602  0.461103  0.366581  0.199987  0.391746  0.39937  
139 3 -3.86009 6.78837 0.282729 0.138417  0.390803  0.327293  0.25179  0.246558  0.324967  0.457074  0.336119  0.243317  0.38062  0.373307  
140 3 -3.85356 6.7106 2.87311 0.142261  0.406505  0.337487  0.288558  0.239404  0.286686  0.510401  0.3414  0.189544  0.402568  0.400166  
337 1 4.91614 -0.121964 -0.0242833 0.172634  0.091402  0.660547  0.128126  0.451791  0.188995  0.56252  0.193389  0.488927  0.26967  0.501388  
338 1 4.73202 2.8537 -4.51673 0.0806656  0.269922  0.646188  0.318846  0.297097  0.377299  0.520009  0.399985  0.296783  0.376831  0.537866  
339 2 2.10961 0.901003 -4.54416 0.124161  0.649547  0.475125  0.243049  0.567563  0.535003  0.341975  0.476394  0.497877  0.4573  0.483672  
340 3 3.72261 0.962255 -4.55973 0.128989  0.451549  0.348491  0.275844  0.286883  0.328571  0.453596  0.395216  0.27457  0.370902  0.432785  
341 3 1.04141 4.62652 -4.43785 0.147095  0.420109  0.350877  0.224469  0.295737  0.307152  0.470253  0.37574  0.21741  0.415894  0.381313  
342 3 1.47108 1.58132 -5.81205 0.149975  0.407531  0.340134  0.270476  0.275687  0.30509  0.482029  0.360575  0.219361  0.396894  0.390197  
343 1 4.92937 0.102871 -2.8405 0.170004  0.0994004  0.647834  0.180814  0.440878  0.198422  0.55003  0.261231  0.443853  0.298152  0.492373  
344 3 1.42181 1.55471 -3.2646 0.140286  0.421188  0.333946  0.249007  0.249661  0.341438  0.46642  0.344878  0.230582  0.412795  0.381839  
345 1 0.0490613 7.35196 -1.50563 0.0658596  0.274996  0.63851  0.325837  0.282677  0.382087  0.514306  0.399483  0.289031  0.361788  0.547914  
346 2 2.70855 9.14887 -1.46271 0.149957  0.644804  0.455901  0.285172  0.557883  0.516466  0.382878  0.464491  0.477225  0.479818  0.493067  
347 3 1.20738 9.32965 -1.49042 0.138296  0.446927  0.352404  0.316095  0.231089  0.3101  0.504173  0.359314  0.286188  0.409044  0.377186  
348 3 3.78641 5.58006 -1.53786 0.128125  0.392186  0.378007  0.199223  0.293134  0.318662  0.468441  0.362796  0.21332  0.392343  0.404502  
349 3 3.47982 8.51681 -2.6827 0.117237  0.448766  0.338522  0.205807  0.292977  0.394151  0.414907  0.344833  0.324742  0.39003  0.367188  
350 3 3.39538 8.59302 -0.111606 0.152179  0.389107  0.305346  0.287146  0.246255  0.297722  0.476018  0.334096  0.209216  0.380134  0.375707  
351 1 2.45625 5.04885 -3.02068 0.170751  0.050042  0.685185  0.0575654  0.461752  0.0828789  0.609011  0.105357  0.510203  0.115699  0.58602  
352 1 2.33 2.26945 -1.50284 0.0845447  0.244466  0.656971  0.311381  0.307046  0.351928  0.51436  0.423738  0.289015  0.377315  0.499581  
353 2 4.50145 4.07542 -1.48848 0.122281  0.646915  0.455768  0.237562  0.57853  0.529945  0.32422  0.481659  0.497301  0.417678  0.511593  
354 3 1.19571 4.16705 -1.42632 0.146611  0.452861  0.348076  0.312367  0.273354  0.291624  0.486128  0.396482  0.24197  0.413233  0.408767  
355 3 3.48469 0.501295 -1.41798 0.1393  0.384165  0.363891  0.241201  0.294734  0.283342  0.469437  0.368917  0.241333  0.373586  0.381387  
356 3 3.76019 3.40906 -2.83077 0.139523  0.423364  0.351915  0.294226  0.272907  0.325445  0.49572  0.351806  0.23815  0.399699  0.401285  
357 1 2.42998 5.15153 -0.00122454 0.174306  0.0694874  0.658496  0.115825  0.462162  0.126392  0.586828  0.17299  0.466197  0.207959  0.570782  
358 3 3.83326 3.48627 -0.164461 0.127777  0.406508  0.324391  0.277312  0.259214  0.29501  0.495388  0.341175  0.202722  0.404232  0.374761  
359 1 2.40421 7.95953 -4.46755 0.0687418  0.248422  0.648875  0.305319  0.309306  0.3764  0.507565  0.393277  0.323998  0.376173  0.504994  
360 2 0.401881 6.07292 -4.47587 0.110116  0.680565  0.47432  0.193844  0.596856  0.557534  0.299231  0.493046  0.548595  0.403111  0.485767  
361 3 3.64573 6.01613 -4.58073 0.155802  0.455126  0.352788  0.302418  0.270389  0.2961  0.480241  0.40013  0.23015  0.42284  0.428423  
362 3 1.26826 9.683 -4.43065 0.135501  0.425037  0.352031  0.225262  0.274805  0.321349  0.472138  0.373575  0.228703  0.389782  0.419674  
363 3 1.06686 6.68186 -5.78878 0.128436  0.418034  0.322589  0.258581  0.262048  0.310543  0.466934  0.353824  0.212773  0.403056  0.388554  
364 3 1.05316 6.74474 -3.20197 0.142846  0.425401  0.331745  0.287621  0.267977  0.318625  0.479489  0.361236  0.211535  0.413359  0.391494  
366 1 4.82138 2.80635 1.604 0.0889251  0.237756  0.645553  0.321085  0.310473  0.344237  0.510246  0.419692  0.304416  0.365829  0.502302  
367 2 2.15264 0.887427 1.43586 0.125248  0.640094  0.477894  0.263576  0.554806  0.530791  0.363601  0.464489  0.475769  0.495187  0.471708  
368 3 3.72249 0.915826 1.57957 0.143646  0.44277  0.338341  0.299777  0.270696  0.336832  0.465671  0.378849  0.295502  0.3699  0.403554  
369 3 0.934766 4.56683 1.47835 0.151003  0.389916  0.346616  0.237761  0.301295  0.304177  0.450417  0.35279  0.248751  0.400986  0.353473  
370 3 1.48105 1.61746 0.142805 0.165619  0.385776  0.33938  0.29113  0.283352  0.312363  0.492856  0.343379  0.234948  0.369154  0.37594  
372 3 1.41554 1.67067 2.70673 0.146985  0.425687  0.308769  0.241874  0.288203  0.31515  0.422598  0.372242  0.268391  0.402329  0.371402  
387 1 2.52017 7.8949 1.60701 0.0678703  0.280845  0.645808  0.296422  0.294033  0.409749  0.495502  0.397595  0.296962  0.413145  0.482788  
388 2 0.250616 6.10319 1.54497 0.137279  0.660741  0.472647  0.23377  0.55829  0.5354  0.365953  0.473719  0.50243  0.466649  0.478894  
389 3 3.58414 5.94951 1.51884 0.134261  0.478076  0.373193  0.30696  0.29016  0.337456  0.480736  0.390729  0.279042  0.409486  0.433565  
390 3 1.31415 9.69556 1.48486 0.129627  0.393197  0.369958  0.227051  0.271042  0.330201  0.474387  0.36884  0.221469  0.372881  0.408451  
391 3 0.899259 6.74228 0.266445 0.153224  0.40021  0.342667  0.25967  0.270496  0.338758  0.477209  0.317447  0.263946  0.401272  0.347558  
392 3 1.01468 6.69542 2.79654 0.134065  0.434208  0.305666  0.262885  0.290232  0.306801  0.465432  0.358205  0.238487  0.404798  0.387394  
589 1 9.69902 -0.0229505 -0.0590068 0.177407  0.0352772  0.670058  0.0469794  0.469745  0.0749623  0.606651  0.0780081  0.493629  0.104842  0.606684  
590 1 9.54451 2.7621 -4.45194 0.0775568  0.266282  0.647392  0.321361  0.292402  0.365713  0.516563  0.416615  0.288888  0.358759  0.53598  
591 2 6.93707 1.02586 -4.44804 0.108577  0.662565  0.468035  0.191373  0.581617  0.546195  0.306667  0.472376  0.539458  0.407682  0.477476  
592 3 8.54027 0.956811 -4.5288 0.133613  0.463896  0.361902  0.279309  0.260875  0.341168  0.46637  0.378652  0.289484  0.404448  0.417948  
593 3 5.83521 4.58407 -4.50458 0.144902  0.406799  0.355282  0.207243  0.295074  0.312355  0.464508  0.373095  0.208201  0.403251  0.395181  
594 3 6.30391 1.62237 -5.74988 0.139558  0.417487  0.328144  0.267754  0.255119  0.324776  0.479257  0.33721  0.236842  0.414338  0.371894  
595 1 9.69636 0.0655762 -2.96106 0.175166  0.0428064  0.675104  0.088319  0.465454  0.0817824  0.601571  0.129992  0.496554  0.155345  0.584512  
596 3 6.26993 1.63532 -3.11245 0.147366  0.418876  0.351056  0.288441  0.283075  0.326757  0.480831  0.353041  0.240185  0.400287  0.398757  
597 1 5.02634 7.339 -1.65539 0.0873977  0.320017  0.609575  0.341729  0.30662  0.406382  0.473312  0.40463  0.330732  0.408726  0.461387  