ITEM: TIMESTEP
2500
ITEM: NUMBER OF ATOMS
756
ITEM: BOX BOUNDS pp pp pp
-4.8435403183999997e+00 9.6870806368999993e+00
-1.0186409263300000e+01 2.0372818526500001e+01
-6.0013959751000003e+00 1.2002791950200001e+01
ITEM: ATOMS id type x y z q2 q3 q4 q5 q6 q7 q8 q9 q10 q11 q12
1 1 -0.0683664 -10.1286 0.00172916 0.0368429  0.00441255  0.335981  0.0147562  0.19134  0.0101155  0.333515  0.0197812  0.116433  0.0180013  0.172423  
2 1 -0.104201 -7.36162 -4.47433 0.0501  0.118285  0.187222  0.0470354  0.209786  0.0817347  0.321945  0.0786037  0.109982  0.0697866  0.182822  
3 2 -2.66959 -9.17656 -4.50756 0.0201917  0.10974  0.280604  0.0575778  0.186662  0.0706475  0.320792  0.070066  0.126194  0.0731097  0.165255  
4 3 -1.12009 -9.24344 -4.56764 0.0239158  0.0503702  0.227676  0.0249251  0.17908  0.0378645  0.3053  0.0337944  0.0964269  0.0307242  0.175944  
5 3 -3.78712 -5.57925 -4.53794 0.0472059  0.0779805  0.199908  0.0356009  0.217773  0.043904  0.33574  0.052207  0.124085  0.0497108  0.205137  
6 3 -3.43613 -8.56206 -5.84414 0.0297954  0.0927861  0.170096  0.0395766  0.195112  0.0500982  0.33161  0.049936  0.0917684  0.0506714  0.169835  
7 1 -0.029196 -10.1759 -3.00211 0.0386987  0.0409849  0.343229  0.0338675  0.189977  0.0334419  0.343409  0.0312122  0.120377  0.0356101  0.174009  
8 3 -3.40009 -8.48234 -3.25947 0.0338202  0.0946374  0.146946  0.0470566  0.201082  0.0482438  0.329619  0.0553411  0.0830633  0.0611256  0.183722  
9 1 -4.69717 -2.767 -1.38338 0.0440784  0.131972  0.145467  0.0502874  0.21357  0.0927547  0.315646  0.0896874  0.12132  0.0841211  0.188608  
10 2 -2.0817 -0.951948 -1.53977 0.0185789  0.104728  0.280261  0.0635198  0.185767  0.065529  0.326707  0.0714283  0.122225  0.072122  0.1737  
11 3 -3.66404 -0.922909 -1.52834 0.0225584  0.049794  0.226771  0.0245203  0.176459  0.0366018  0.310158  0.0272489  0.09607  0.0306299  0.171592  
12 3 -0.9226 -4.61937 -1.49218 0.0392846  0.0562431  0.202264  0.0385491  0.210427  0.0350852  0.32267  0.0357796  0.120079  0.0425575  0.199517  
13 3 -1.3917 -1.63315 -2.8152 0.0299638  0.0957081  0.141667  0.0411996  0.198958  0.0477937  0.325403  0.0612378  0.0847583  0.0577183  0.184252  
14 3 -1.36767 -1.58979 -0.243244 0.0301775  0.0920935  0.16576  0.0417835  0.198388  0.0365601  0.332666  0.0545798  0.0802982  0.049127  0.175294  
15 1 -2.42341 -5.11981 -3.06393 0.0499413  0.0399946  0.33271  0.0314206  0.196677  0.0372223  0.37676  0.0303999  0.121021  0.0390043  0.19289  
16 1 -2.462 -7.79596 -1.43691 0.0534701  0.108194  0.150203  0.0599252  0.218066  0.0835843  0.335968  0.0646708  0.0892025  0.0725135  0.19183  
17 2 -0.292765 -6.07043 -1.52797 0.0167685  0.0805226  0.250514  0.0671233  0.169804  0.0590363  0.309297  0.0691409  0.131394  0.0584536  0.196056  
18 3 -3.52408 -6.00829 -1.45547 0.0201101  0.0439211  0.228291  0.0356782  0.180731  0.0400612  0.315937  0.0381262  0.0999977  0.0391906  0.182048  
19 3 -1.39555 -9.70212 -1.49592 0.041063  0.0545743  0.205174  0.0299958  0.21141  0.0337008  0.321904  0.0293847  0.120203  0.0369442  0.190277  
20 3 -1.04373 -6.65163 -2.85056 0.0314306  0.0933718  0.168409  0.0379791  0.200712  0.0486766  0.325638  0.0514312  0.0978239  0.0539135  0.174733  
21 1 -2.3967 -5.07836 0.0191911 0.0290545  0.0185748  0.325088  0.025738  0.173514  0.031159  0.358732  0.042466  0.119733  0.0336645  0.183  
22 3 -0.982615 -6.75906 -0.254377 0.0328771  0.0937633  0.141446  0.0458215  0.201032  0.0544569  0.320029  0.0463667  0.0896155  0.0566199  0.185588  
23 1 -2.25823 -2.34474 -4.50689 0.0374929  0.143714  0.102385  0.0549475  0.180355  0.0894704  0.336667  0.0943695  0.0790314  0.097826  0.187031  
24 2 -4.48402 -4.07605 -4.51381 0.0222899  0.115749  0.259479  0.0617765  0.181878  0.0791846  0.330093  0.0738329  0.125389  0.0792655  0.194051  
25 3 -1.21158 -4.20158 -4.43748 0.021066  0.0454042  0.231726  0.0335709  0.175175  0.0328129  0.311631  0.0378537  0.102078  0.0316423  0.185124  
26 3 -3.40361 -0.493738 -4.54488 0.0463144  0.0798147  0.202438  0.0345961  0.218775  0.0474909  0.331366  0.0515981  0.126074  0.0514536  0.2077  
27 3 -3.68711 -3.46631 -5.80072 0.0312751  0.0879478  0.167217  0.0492302  0.196829  0.0447676  0.342215  0.0491201  0.0863194  0.0528513  0.178422  
28 3 -3.768 -3.47493 -3.2104 0.0329254  0.0926897  0.163596  0.0400562  0.201933  0.0446845  0.332933  0.0507531  0.0827372  0.0555471  0.178183  
30 1 -0.0629531 -7.37959 1.50233 0.045973  0.11635  0.0995888  0.054181  0.180664  0.0757524  0.323623  0.0799589  0.0886605  0.065784  0.190384  
31 2 -2.73281 -9.14445 1.4743 0.0207824  0.103403  0.276562  0.0637867  0.18534  0.0708227  0.322252  0.0677122  0.110666  0.0691395  0.169561  
32 3 -1.16126 -9.19632 1.4893 0.0208004  0.049  0.226543  0.0267524  0.174685  0.0373618  0.308486  0.034684  0.0889972  0.0369807  0.175473  
33 3 -3.64399 -5.5541 1.53846 0.0505116  0.0732578  0.204062  0.0384036  0.22186  0.0384692  0.326954  0.04831  0.125026  0.0500721  0.22242  
34 3 -3.45177 -8.48317 0.188369 0.0330942  0.0886269  0.166241  0.0453257  0.197031  0.049923  0.325847  0.0522255  0.0838477  0.0523328  0.173459  
36 3 -3.37747 -8.54302 2.72561 0.0328614  0.0938899  0.144153  0.0486827  0.197667  0.0518153  0.328691  0.0530351  0.0746211  0.0554323  0.19079  
51 1 -2.36027 -2.28433 1.45715 0.0518044  0.119587  0.114764  0.0595798  0.21462  0.0875623  0.333043  0.0778203  0.107974  0.0795259  0.217918  
52 2 -4.46212 -4.07126 1.53098 0.0211534  0.103301  0.256501  0.0756027  0.191177  0.0726214  0.314329  0.0676994  0.142258  0.0743112  0.22003  
53 3 -1.1971 -4.14362 1.40035 0.0229884  0.0472048  0.23101  0.027612  0.173153  0.0351575  0.309336  0.034433  0.102527  0.0275791  0.187258  
54 3 -3.43991 -0.520025 1.52126 0.0476548  0.080257  0.197094  0.0388985  0.214305  0.0475793  0.319236  0.0527462  0.111021  0.0536155  0.192406  
55 3 -3.78441 -3.42047 0.265074 0.0346493  0.0988491  0.14564  0.0416233  0.201843  0.0475951  0.322533  0.052262  0.0921124  0.0574886  0.187397  
56 3 -3.77183 -3.42273 2.82327 0.0350035  0.0984499  0.163099  0.0362214  0.187521  0.0438079  0.320173  0.0563333  0.0817551  0.048575  0.171496  
253 1 4.92486 -10.2356 -0.0535998 0.042873  0.0777671  0.324322  0.0352105  0.178507  0.069821  0.347586  0.0726116  0.11433  0.0723611  0.175845  
254 1 4.80688 -7.43862 -4.52162 0.0471618  0.117446  0.109905  0.0607457  0.211872  0.0857367  0.332639  0.0726455  0.101006  0.0751257  0.205996  
255 2 2.09686 -9.10896 -4.50454 0.0189963  0.095212  0.273802  0.0797271  0.183258  0.0685118  0.311577  0.0670868  0.137245  0.0732501  0.186559  
256 3 3.71077 -9.24981 -4.4726 0.0218067  0.0479617  0.229551  0.0299285  0.174442  0.0346457  0.304408  0.0380907  0.105036  0.0349404  0.184995  
257 3 1.05933 -5.58842 -4.55118 0.0475042  0.0798045  0.200738  0.0369651  0.209639  0.0455036  0.321348  0.0489974  0.128197  0.0492732  0.193475  
258 3 1.4652 -8.44753 -5.78858 0.030996  0.0936334  0.143711  0.0511009  0.186478  0.0511551  0.309428  0.0571328  0.0866555  0.0567374  0.168132  
259 1 4.93052 -10.2411 -2.9773 0.0443629  0.0588722  0.320851  0.0334511  0.179534  0.057546  0.348835  0.0546328  0.117356  0.0415093  0.158627  
260 3 1.35263 -8.57675 -3.19527 0.0332324  0.0872536  0.169789  0.0483146  0.1918  0.0457577  0.315056  0.047489  0.088493  0.0550801  0.167017  
261 1 0.0458046 -2.84312 -1.5356 0.0462648  0.109347  0.105558  0.0654514  0.183817  0.0624628  0.335535  0.0778803  0.0900349  0.0660106  0.197212  
262 2 2.75833 -1.02768 -1.54913 0.0191428  0.12056  0.232497  0.0662865  0.177902  0.079737  0.318818  0.0795993  0.133862  0.0810128  0.201409  
263 3 1.19749 -0.941679 -1.53602 0.0178505  0.046986  0.228721  0.0293387  0.173151  0.0330098  0.321324  0.030149  0.0940612  0.0342334  0.186168  
264 3 3.85513 -4.70661 -1.59963 0.0449494  0.0791975  0.202009  0.0303884  0.215807  0.0499178  0.321954  0.0511092  0.125005  0.0454008  0.211758  
265 3 3.46048 -1.64699 -2.83524 0.03097  0.100479  0.157365  0.03943  0.183419  0.0447684  0.326066  0.0540639  0.0733  0.0569274  0.163353  
266 3 3.57228 -1.62487 -0.237491 0.0315264  0.0999625  0.162496  0.0404269  0.19029  0.0437445  0.329591  0.0504288  0.0832359  0.0538044  0.175766  
267 1 2.46741 -5.2317 -3.04318 0.0436136  0.056957  0.324147  0.0383916  0.183674  0.0598136  0.347547  0.058072  0.117545  0.0467199  0.175957  
268 1 2.35711 -8.00353 -1.56489 0.0494398  0.107288  0.142585  0.0543894  0.179074  0.0660367  0.323371  0.0799015  0.0860145  0.064077  0.16477  
269 2 4.53665 -6.14986 -1.53418 0.0173153  0.109185  0.257268  0.0702825  0.180997  0.0751986  0.318203  0.0713389  0.128297  0.0735354  0.18838  
270 3 1.25655 -5.9706 -1.58348 0.0223258  0.0465263  0.227415  0.0278451  0.173783  0.0342785  0.295019  0.0276334  0.0973776  0.0329493  0.182266  
271 3 3.49534 -9.75513 -1.50604 0.0467825  0.0749425  0.200001  0.0380644  0.208741  0.0421607  0.316044  0.0495687  0.129834  0.0468953  0.199023  
272 3 3.86469 -6.83827 -2.82154 0.0311075  0.0938605  0.145194  0.0498886  0.19315  0.0536534  0.314723  0.0583488  0.0908674  0.0666097  0.179287  
273 1 2.50219 -5.16179 0.0118554 0.0338004  0.0218315  0.316982  0.0218036  0.161839  0.0332455  0.340526  0.0271052  0.115028  0.0421769  0.159968  
274 3 3.86348 -6.76247 -0.237958 0.0308426  0.0913624  0.142115  0.0497225  0.194324  0.0439325  0.318014  0.0526207  0.0875216  0.0528776  0.186898  
275 1 2.54105 -2.37695 -4.57281 0.048756  0.124253  0.114004  0.0495847  0.201822  0.0894792  0.335105  0.0672272  0.103491  0.0812969  0.203934  
276 2 0.364988 -4.10475 -4.49097 0.0199662  0.0966339  0.278382  0.0752083  0.184834  0.0705815  0.319539  0.0662116  0.146922  0.0744209  0.191486  
277 3 3.63777 -4.24097 -4.5647 0.021793  0.0490263  0.227423  0.0226428  0.168866  0.0391552  0.312938  0.0303785  0.092681  0.0289917  0.171358  
278 3 1.34281 -0.44457 -4.48482 0.0420542  0.0719352  0.166983  0.0389561  0.216607  0.0535877  0.32862  0.0508747  0.0954636  0.0477024  0.198018  
279 3 1.04016 -3.36531 -5.74899 0.0331544  0.0868042  0.168615  0.0443885  0.190481  0.0426186  0.326828  0.049203  0.0835549  0.0503477  0.16962  
280 3 1.07934 -3.48315 -3.21012 0.032304  0.0856674  0.168902  0.0444478  0.192759  0.0440968  0.324346  0.0478082  0.0899148  0.0479896  0.180799  
282 1 4.86811 -7.39789 1.49395 0.0453039  0.119391  0.105102  0.0513251  0.183955  0.0688764  0.341931  0.0747894  0.0777523  0.0586543  0.195612  
283 2 2.15723 -9.18831 1.45078 0.0240653  0.107492  0.256824  0.0711357  0.174806  0.0677925  0.318549  0.0690341  0.133057  0.0711392  0.187519  
284 3 3.7022 -9.29862 1.49165 0.0232926  0.0500158  0.231217  0.0247328  0.170052  0.0334911  0.313614  0.0354568  0.100418  0.0330748  0.185019  
285 3 1.01705 -5.51182 1.43889 0.0402839  0.0566887  0.197642  0.0359368  0.203486  0.0334787  0.316371  0.0404911  0.111894  0.0444137  0.192362  
286 3 1.4528 -8.46498 0.191264 0.0332677  0.0926468  0.148233  0.0468173  0.191418  0.0409  0.311958  0.0531135  0.091675  0.0520165  0.186208  
288 3 1.38638 -8.52573 2.73074 0.0328715  0.0896503  0.165469  0.0445961  0.195603  0.047356  0.330223  0.04791  0.0679629  0.0574069  0.179173  
303 1 2.58736 -2.26544 1.46699 0.0409767  0.135065  0.116692  0.0645566  0.175283  0.0789943  0.333349  0.0973587  0.0867062  0.0850826  0.193637  
304 2 0.35486 -4.0676 1.44255 0.0193407  0.100792  0.225412  0.0637636  0.157534  0.0636266  0.312429  0.0721057  0.128826  0.0760158  0.188532  
305 3 3.61422 -4.21871 1.48874 0.0189365  0.0502998  0.226625  0.0246848  0.173821  0.0366688  0.30714  0.03162  0.093955  0.032713  0.183806  
306 3 1.37207 -0.511108 1.47579 0.0470918  0.0800744  0.198909  0.0372382  0.21112  0.0465583  0.333236  0.0527337  0.118484  0.0452211  0.205347  
307 3 1.146 -3.34863 0.204611 0.0341791  0.0932086  0.144717  0.0479429  0.195963  0.0496357  0.32014  0.0556502  0.0955217  0.0541337  0.193513  
308 3 1.00034 -3.42472 2.75082 0.035654  0.0962925  0.144034  0.0469773  0.192872  0.0476904  0.3252  0.0556384  0.0878152  0.0586243  0.18752  
505 1 9.72956 -10.1407 -0.0159468 0.0593249  0.0539149  0.307867  0.0224508  0.181843  0.0494281  0.374609  0.0391533  0.116812  0.0413955  0.203911  
506 1 9.65965 -7.42121 -4.46314 0.039358  0.138581  0.0999792  0.0631642  0.175428  0.0817544  0.340695  0.0936566  0.0800705  0.0917984  0.183491  
507 2 6.99023 -9.19248 -4.49874 0.0158462  0.0914514  0.276727  0.0785903  0.183538  0.0708217  0.32546  0.0692092  0.12886  0.0688179  0.18493  
508 3 8.53034 -9.29412 -4.4402 0.0219959  0.0479955  0.228344  0.0307502  0.174707  0.0323754  0.316431  0.0327231  0.0959086  0.0326736  0.177766  
509 3 5.93865 -5.64215 -4.52384 0.0394853  0.0709105  0.173495  0.0416156  0.21794  0.0529639  0.325371  0.0503845  0.11291  0.0466094  0.196788  
510 3 6.29 -8.53662 -5.78988 0.0312823  0.0847093  0.166486  0.0515232  0.191767  0.0464407  0.336162  0.0499816  0.0818861  0.0504889  0.168721  
511 1 9.76573 -10.1617 -3.00088 0.0420667  0.0219539  0.329224  0.0272462  0.191961  0.0341056  0.359006  0.0362279  0.115806  0.0324088  0.180844  
512 3 6.30181 -8.59429 -3.14861 0.0305161  0.0889876  0.165442  0.042787  0.194443  0.0480605  0.330008  0.0481196  0.0798368  0.0542222  0.172973  
513 1 4.94943 -2.86123 -1.53736 0.0416203  0.128384  0.109152  0.0434513  0.188726  0.0829612  0.325344  0.0924786  0.0977687  0.0813233  0.188993  
514 2 7.66031 -0.998527 -1.51897 0.0171012  0.0930597  0.299475  0.0694666  0.190508  0.0652717  0.312896  0.0612091  0.136871  0.0745192  0.175225  
515 3 6.09544 -0.854627 -1.64692 0.0232503  0.048896  0.233885  0.028742  0.176179  0.0376215  0.297525  0.0364846  0.10761  0.0324282  0.183134  
516 3 8.72963 -4.61259 -1.42931 0.0487318  0.0797954  0.198597  0.035251  0.21729  0.0466602  0.330209  0.0482168  0.11579  0.0462907  0.200969  
517 3 8.35059 -1.65751 -2.83714 0.0298222  0.0867466  0.169126  0.0442381  0.194953  0.0452767  0.318931  0.0508943  0.0894513  0.0523167  0.172215  
518 3 8.21634 -1.71155 -0.254486 0.0301101  0.104341  0.140733  0.0399177  0.184085  0.0485133  0.307779  0.0579195  0.0873101  0.0556734  0.161696  
519 1 7.32813 -5.0494 -2.92913 0.0422488  0.0604797  0.325521  0.0306492  0.183187  0.0622288  0.360116  0.0459273  0.109883  0.0516064  0.171152  
520 1 7.20155 -7.88105 -1.4277 0.0460391  0.122145  0.101253  0.051459  0.180601  0.0663678  0.332586  0.0804844  0.0915574  0.0705955  0.186343  
521 2 9.45687 -6.11276 -1.47495 0.0213983  0.123254  0.233196  0.0711623  0.186995  0.0820994  0.322531  0.0793718  0.144158  0.0860121  0.211178  
522 3 6.17535 -6.04521 -1.48387 0.0189134  0.0499141  0.228783  0.0250864  0.17467  0.0337704  0.311417  0.0341202  0.0971925  0.0352701  0.184612  
523 3 8.29918 -9.7024 -1.47418 0.0479838  0.073441  0.202359  0.0401127  0.211991  0.0400626  0.332407  0.0462961  0.119929  0.0462162  0.20318  
524 3 8.77596 -6.76898 -2.73375 0.0339775  0.0881541  0.165056  0.0443122  0.192523  0.0492663  0.329869  0.0507322  0.0824933  0.0533867  0.174922  
525 1 7.36321 -5.05177 0.023245 0.0445763  0.0461499  0.353928  0.0211087  0.194006  0.0432871  0.363859  0.0459765  0.116857  0.0408537  0.186677  
526 3 8.73448 -6.73542 -0.16276 0.0344782  0.0923314  0.170874  0.0405693  0.193293  0.0502322  0.329533  0.0554923  0.0857822  0.0540641  0.179025  
527 1 7.32827 -2.28346 -4.53039 0.0461596  0.112418  0.104383  0.0644758  0.1894  0.07025  0.324958  0.0797829  0.0921102  0.0653481  0.193572  
528 2 5.23099 -4.16857 -4.47929 0.0183673  0.106396  0.279796  0.0653656  0.18224  0.0619002  0.322636  0.0682925  0.122772  0.0697903  0.166311  
529 3 8.50751 -4.1832 -4.55327 0.0195256  0.0575277  0.245491  0.0285798  0.172154  0.0416406  0.321979  0.0466766  0.0959743  0.0379974  0.170302  
530 3 6.31036 -0.463953 -4.58087 0.0442542  0.0769897  0.197499  0.0393113  0.20997  0.0430806  0.317266  0.0479957  0.115673  0.0472103  0.191965  
531 3 5.88843 -3.45316 -5.73577 0.0307142  0.0949215  0.1617  0.0466599  0.186824  0.0431849  0.32639  0.0557739  0.0752794  0.0513875  0.166178  
532 3 5.92639 -3.50811 -3.19736 0.0291962  0.103183  0.138174  0.0405477  0.188358  0.0428542  0.308087  0.0591379  0.0889248  0.0479013  0.167254  
534 1 9.73637 -7.31589 1.54911 0.0497643  0.122053  0.108116  0.0499047  0.185977  0.0805812  0.328691  0.0831027  0.0933409  0.0713621  0.192371  
535 2 6.99691 -9.18019 1.50445 0.0246575  0.112181  0.257332  0.0661887  0.17821  0.0740432  0.32681  0.0778556  0.118908  0.0765208  0.184781  
536 3 8.54369 -9.33645 1.45551 0.0243124  0.0479458  0.227617  0.0261369  0.172552  0.033498  0.313307  0.0309192  0.0958192  0.0321221  0.182458  
537 3 5.92771 -5.5698 1.51303 0.0462684  0.0774671  0.197111  0.0302803  0.211912  0.0508825  0.324007  0.0438406  0.117682  0.0400111  0.200979  
538 3 6.27137 -8.48501 0.272066 0.0333449  0.096963  0.144278  0.0455627  0.190872  0.0458295  0.329113  0.0511165  0.08796  0.0572593  0.18134  
540 3 6.28497 -8.56723 2.78287 0.0340739  0.0936465  0.168725  0.0424572  0.190883  0.0490534  0.335235  0.0527518  0.0762297  0.0588185  0.173513  
555 1 7.25836 -2.25604 1.41938 0.0516851  0.10607  0.143933  0.0579137  0.17401  0.077884  0.324722  0.0748896  0.0802553  0.0618117  0.143707  
556 2 5.18834 -4.14342 1.47 0.022478  0.10355  0.278196  0.06671  0.186073  0.0641864  0.326794  0.0760217  0.11655  0.0715888  0.176064  
557 3 8.53078 -4.26167 1.54364 0.0248003  0.047833  0.231746  0.0314419  0.177095  0.0313438  0.296577  0.0375618  0.0951101  0.0363726  0.187589  
558 3 6.24643 -0.52952 1.47055 0.0448254  0.0756048  0.201587  0.0352335  0.20941  0.0439599  0.312899  0.042116  0.132923  0.0469028  0.18513  
559 3 5.90624 -3.4827 0.143959 0.0282506  0.0919814  0.167126  0.0419607  0.197176  0.0509774  0.321548  0.0557888  0.0771606  0.0560573  0.165846  
560 3 5.84279 -3.41593 2.72888 0.0270169  0.0904092  0.155516  0.0483978  0.192053  0.0439858  0.317731  0.0455941  0.0827924  0.054192  0.1807  
85 1 -0.0146356 -0.0251076 -0.0204836 0.0362869  0.0146154  0.319381  0.0173895  0.182116  0.0333241  0.348497  0.0364306  0.116027  0.0301002  0.174226  
86 1 -0.0825919 2.78063 -4.55124 0.0421752  0.115104  0.135907  0.057856  0.174295  0.0692151  0.319656  0.078935  0.0994306  0.0684746  0.173471  
87 2 -2.75075 1.02804 -4.56951 0.0162732  0.0964386  0.278737  0.0746103  0.192535  0.071156  0.322001  0.0657607  0.132899  0.0737234  0.190408  
88 3 -1.20613 0.995405 -4.48092 0.0206853  0.0472235  0.227209  0.0327708  0.175515  0.0343204  0.308045  0.0344993  0.0896084  0.0345791  0.17374  
89 3 -3.83501 4.58578 -4.48781 0.0465114  0.0745905  0.193626  0.0391787  0.216205  0.0407432  0.322658  0.0426886  0.122875  0.0452253  0.198338  
90 3 -3.47842 1.68559 -5.8333 0.029169  0.0913702  0.143205  0.0527342  0.201182  0.0447012  0.316994  0.0526612  0.0928666  0.0492105  0.187638  
91 1 -0.0461788 -0.0180867 -3.05736 0.0326799  0.0537177  0.318684  0.0253692  0.176162  0.0440519  0.355491  0.0533641  0.104024  0.040993  0.169035  
92 3 -3.43591 1.6115 -3.24323 0.0333656  0.0938198  0.146502  0.0517262  0.201264  0.0472984  0.32557  0.0514789  0.0933001  0.0542382  0.192371  
93 1 -4.75957 7.36557 -1.47888 0.0472241  0.115395  0.147578  0.0455222  0.177622  0.0708387  0.353198  0.0838865  0.0690833  0.0690305  0.173542  
94 2 -2.13073 9.24647 -1.51821 0.0212884  0.112456  0.26007  0.0682584  0.173398  0.0718206  0.333718  0.0761619  0.126181  0.0743866  0.185806  
95 3 -3.68997 9.24264 -1.50215 0.0208747  0.048155  0.231776  0.0278836  0.170449  0.0338612  0.324823  0.0270085  0.0961363  0.0278259  0.181178  
96 3 -1.05907 5.56877 -1.53541 0.0485222  0.0784857  0.197493  0.0347909  0.208688  0.0445026  0.336936  0.0526409  0.110264  0.0479942  0.195619  
97 3 -1.42201 8.53778 -2.73342 0.0325693  0.0970031  0.14555  0.0427839  0.184062  0.0432062  0.333165  0.0551564  0.0711753  0.0576065  0.168737  
98 3 -1.43011 8.50018 -0.20979 0.0294914  0.0943392  0.16096  0.045536  0.18149  0.0472532  0.331518  0.0515178  0.0713303  0.0526803  0.164872  
99 1 -2.42946 5.02824 -2.94831 0.0461207  0.00732959  0.347922  0.0138289  0.206339  0.0244023  0.359941  0.0342138  0.122435  0.0236993  0.192687  
100 1 -2.4872 2.24219 -1.44967 0.0499568  0.109449  0.140078  0.0512787  0.186453  0.063039  0.339363  0.0697526  0.0888127  0.0554116  0.178661  
101 2 -0.319219 4.06841 -1.50168 0.022941  0.11661  0.25575  0.0629176  0.183127  0.0748824  0.325  0.0760174  0.120407  0.0748292  0.184861  
102 3 -3.67116 4.07447 -1.52689 0.017987  0.049684  0.227739  0.0282397  0.178126  0.0326634  0.313469  0.0341555  0.0936669  0.0359054  0.185422  
103 3 -1.39775 0.539001 -1.48332 0.0456307  0.0741118  0.20128  0.0378918  0.216269  0.0416776  0.325747  0.042205  0.12412  0.0459297  0.208316  
104 3 -1.00445 3.39721 -2.78354 0.0331234  0.0868225  0.165056  0.0511054  0.19269  0.0431205  0.323817  0.0493476  0.0810024  0.0556877  0.164259  
105 1 -2.46766 5.07349 0.0320374 0.0347443  0.0470231  0.34342  0.0337227  0.18878  0.0410303  0.370832  0.0354177  0.108582  0.0415352  0.186695  
106 3 -1.02577 3.51398 -0.193175 0.0314753  0.0897538  0.166165  0.0458297  0.196377  0.049829  0.331967  0.0534893  0.0819986  0.0502984  0.178315  
107 1 -2.31157 7.93247 -4.45754 0.0385973  0.142197  0.107549  0.0605623  0.16828  0.0780521  0.334834  0.085826  0.082225  0.0877988  0.170938  
108 2 -4.48642 6.07831 -4.45185 0.0219761  0.109483  0.252739  0.0659339  0.174256  0.0744307  0.32218  0.0733448  0.121582  0.0707831  0.178238  
109 3 -1.23651 5.90175 -4.49798 0.0262401  0.048631  0.227761  0.0258205  0.169429  0.0367457  0.309508  0.0350126  0.100573  0.0317195  0.174076  
110 3 -3.4543 9.61148 -4.421 0.0476062  0.078346  0.202919  0.0369087  0.212164  0.049208  0.327784  0.0473549  0.127979  0.047103  0.198755  
111 3 -3.78208 6.74402 -5.73232 0.0325331  0.0899392  0.167002  0.0438837  0.188965  0.042784  0.323094  0.0479417  0.0861399  0.0557286  0.167526  
112 3 -3.81103 6.64971 -3.13697 0.0295343  0.0963466  0.151837  0.0410671  0.180166  0.0460806  0.331915  0.0552804  0.0697551  0.0539512  0.158896  
114 1 -0.107349 2.87093 1.50784 0.0467318  0.122154  0.103625  0.0512628  0.181392  0.0869098  0.32852  0.0879431  0.087235  0.0643373  0.193166  
115 2 -2.79265 1.00835 1.55444 0.0213748  0.103409  0.278288  0.0669884  0.183319  0.0714176  0.33209  0.0730509  0.111416  0.0715661  0.180963  
116 3 -1.20398 0.942008 1.52486 0.0217938  0.0484359  0.230719  0.027708  0.173374  0.0349586  0.312023  0.0344161  0.0973853  0.031618  0.182959  
117 3 -3.80647 4.52855 1.53379 0.047489  0.0755691  0.199066  0.0369752  0.218888  0.0458809  0.331938  0.0448307  0.116572  0.0449566  0.211781  
118 3 -3.48983 1.67156 0.301044 0.0319924  0.0910124  0.17158  0.044415  0.200347  0.0449096  0.332001  0.0537252  0.0885967  0.0519782  0.184827  
120 3 -3.51128 1.56162 2.85905 0.0317156  0.0842574  0.16902  0.0491982  0.192408  0.0532993  0.335468  0.0508719  0.0785866  0.0526435  0.180266  
135 1 -2.40881 7.87079 1.57926 0.0503064  0.110599  0.144126  0.0569047  0.17419  0.0748322  0.34485  0.0721531  0.0710039  0.0659312  0.167764  
136 2 -4.55827 5.9841 1.49415 0.0208875  0.112159  0.254237  0.0666427  0.182115  0.0770346  0.328206  0.0804736  0.116463  0.070056  0.190562  
137 3 -1.23283 5.97021 1.55639 0.0184358  0.0302279  0.22615  0.028545  0.183043  0.0269611  0.320942  0.025238  0.090779  0.0252753  0.188894  
138 3 -3.53299 9.65741 1.51387 0.0408755  0.0710558  0.176506  0.0461541  0.213682  0.0528817  0.32559  0.0473607  0.111593  0.048896  0.199912  
139 3 -3.85325 6.65016 0.241586 0.032398  0.0947819  0.136589  0.0421127  0.196915  0.0509999  0.339786  0.06044  0.0688697  0.0559059  0.189941  
140 3 -3.84037 6.68926 2.77627 0.0315076  0.0916323  0.167159  0.0380823  0.193629  0.0472854  0.336016  0.0492144  0.0682058  0.0492116  0.178946  
337 1 4.86076 -0.0155215 -0.0475951 0.0449868  0.043193  0.360065  0.0212315  0.192526  0.038191  0.367179  0.0329156  0.132567  0.0338125  0.193763  
338 1 4.80734 2.79331 -4.48661 0.0476938  0.124535  0.106594  0.0465419  0.18123  0.0740861  0.32568  0.0825898  0.0853574  0.0679731  0.182553  
339 2 2.07021 1.0121 -4.47945 0.0193482  0.118675  0.226844  0.0742898  0.172575  0.0781983  0.312765  0.0767025  0.129443  0.0790915  0.193937  
340 3 3.66677 0.880936 -4.54153 0.01859  0.0452408  0.225567  0.0273652  0.1683  0.0366448  0.310208  0.0302956  0.0945857  0.0318149  0.174015  
341 3 0.985482 4.60305 -4.51772 0.0470428  0.0776679  0.202967  0.0393637  0.209725  0.0470099  0.318995  0.0418653  0.124983  0.0524246  0.184301  
342 3 1.38575 1.60749 -5.77524 0.0319544  0.0926887  0.139739  0.0492202  0.190158  0.0460424  0.325253  0.0506223  0.0858389  0.0539508  0.180267  
343 1 4.9655 0.0160996 -3.01604 0.0337362  0.0503459  0.288445  0.0410918  0.182323  0.0420001  0.335495  0.052492  0.114008  0.0568971  0.182162  
344 3 1.36089 1.73859 -3.2599 0.0320602  0.0902321  0.165433  0.045064  0.19118  0.0483825  0.327682  0.0490656  0.0796517  0.052604  0.17786  
345 1 0.0730475 7.44991 -1.4598 0.0523461  0.11029  0.145534  0.048426  0.171872  0.0628776  0.348988  0.0726209  0.0885882  0.0714943  0.161029  
346 2 2.76016 9.23181 -1.48634 0.0177967  0.114494  0.252607  0.0673798  0.18636  0.0729611  0.324023  0.0749641  0.120744  0.0749159  0.190893  
347 3 1.21666 9.24759 -1.43298 0.0147763  0.0485574  0.225762  0.0245557  0.171503  0.0354167  0.325124  0.0356301  0.0878439  0.0334117  0.168411  
348 3 3.79745 5.58 -1.51294 0.0445897  0.0725838  0.201876  0.0354254  0.218357  0.0435915  0.31857  0.0421257  0.131676  0.0447732  0.206  
349 3 3.40451 8.50631 -2.70115 0.027809  0.0958387  0.157808  0.0462512  0.193122  0.0472661  0.324048  0.0563557  0.0695951  0.0512313  0.174583  
350 3 3.47964 8.60194 -0.170768 0.0256363  0.0921382  0.158117  0.0387063  0.195116  0.0477623  0.318199  0.0565429  0.083968  0.0535409  0.167082  
351 1 2.442 5.09649 -3.03351 0.0352953  0.0315468  0.352641  0.0297052  0.177798  0.0200114  0.365799  0.0377757  0.121254  0.0406009  0.182014  
352 1 2.34666 2.28131 -1.59578 0.0469526  0.121244  0.101382  0.0503229  0.181886  0.0745798  0.329378  0.0798871  0.0983258  0.0769618  0.189918  
353 2 4.51073 4.10714 -1.50773 0.0216141  0.109888  0.253575  0.0691425  0.186902  0.0736363  0.304733  0.0774122  0.127905  0.0734456  0.175298  
354 3 1.25603 4.1714 -1.44369 0.0217627  0.0552446  0.245323  0.0311005  0.175985  0.0373908  0.315986  0.0453712  0.0996371  0.0362644  0.178466  
355 3 3.47488 0.468268 -1.55225 0.0488619  0.0760056  0.201876  0.0341526  0.21145  0.0461783  0.323937  0.0437452  0.12721  0.0467445  0.204765  
356 3 3.75924 3.44825 -2.74211 0.0333984  0.0901739  0.166798  0.0404444  0.194731  0.0450613  0.323098  0.0504913  0.0761854  0.0492597  0.170481  
357 1 2.37893 5.02194 0.000251921 0.039199  0.0454576  0.298698  0.0201392  0.175589  0.038987  0.359021  0.0378561  0.119981  0.0426544  0.179369  
358 3 3.8201 3.48262 -0.193239 0.0307939  0.0951413  0.143453  0.0472291  0.198472  0.0523726  0.317648  0.0571892  0.0980553  0.059453  0.18505  
359 1 2.36837 7.86606 -4.51566 0.0519643  0.107936  0.15327  0.0528815  0.200393  0.0773034  0.335409  0.0645523  0.0839537  0.0672196  0.172811  
360 2 0.263674 6.11023 -4.47788 0.0182572  0.100511  0.260117  0.0744264  0.17975  0.0731262  0.313561  0.0756311  0.147297  0.0693855  0.191487  
361 3 3.59414 5.97609 -4.52005 0.0222985  0.0465649  0.233723  0.0287924  0.175105  0.0369826  0.301793  0.0355987  0.106087  0.0334381  0.174011  
362 3 1.37817 9.6501 -4.46216 0.0435674  0.0683966  0.173031  0.0386226  0.213361  0.0546974  0.327535  0.0433442  0.10288  0.0408521  0.19366  
363 3 0.90754 6.79678 -5.73354 0.0342062  0.0950272  0.146554  0.0475993  0.190321  0.0499696  0.322061  0.0561678  0.0923628  0.0600624  0.170516  
364 3 1.00538 6.78136 -3.23145 0.0338933  0.0931049  0.168166  0.037436  0.189631  0.047029  0.336327  0.0530328  0.080889  0.0509585  0.167896  
366 1 4.6731 2.83957 1.50611 0.0425922  0.134968  0.138662  0.0602869  0.179023  0.0763359  0.334463  0.0898339  0.0709438  0.0852947  0.167794  
367 2 2.06816 0.990076 1.47648 0.0213529  0.106663  0.279176  0.0641952  0.181374  0.0698212  0.329883  0.0712464  0.11917  0.074196  0.180426  
368 3 3.63142 0.858503 1.48735 0.0232921  0.0468647  0.228855  0.0311106  0.17143  0.0368113  0.312604  0.0365845  0.101407  0.0342812  0.183862  
369 3 1.09563 4.6382 1.57392 0.043278  0.0719372  0.170531  0.0386537  0.21757  0.0520481  0.322609  0.0525232  0.106406  0.0443647  0.207582  
370 3 1.40118 1.63473 0.187945 0.0339748  0.0892682  0.16841  0.042591  0.195968  0.0488547  0.327516  0.0532588  0.0892917  0.0540187  0.18068  
372 3 1.38553 1.69762 2.7313 0.0319142  0.0901473  0.167  0.0421041  0.19397  0.0552565  0.332302  0.0522216  0.0796702  0.0575816  0.179939  
387 1 2.51949 7.87465 1.51276 0.0467089  0.116955  0.110217  0.0623725  0.214521  0.0837791  0.334745  0.0724638  0.100645  0.081553  0.208875  
388 2 0.322573 6.13246 1.52435 0.0141442  0.0957356  0.25193  0.0848604  0.184637  0.0675516  0.320054  0.0728497  0.142811  0.0786242  0.218785  
389 3 3.57449 6.01257 1.46173 0.0237104  0.0484304  0.22907  0.0293094  0.173406  0.0343974  0.309055  0.0349602  0.0991273  0.032995  0.175786  
390 3 1.38931 9.72758 1.57674 0.0471829  0.0776645  0.198263  0.0381744  0.216951  0.0440875  0.327927  0.0492386  0.123592  0.0508041  0.193535  
391 3 1.05056 6.80043 0.23614 0.0305702  0.0965166  0.158662  0.0375085  0.187629  0.0470152  0.330566  0.0515056  0.0823691  0.0530421  0.171592  
392 3 1.00443 6.74618 2.85873 0.0324668  0.0867679  0.16753  0.0476088  0.191662  0.0490747  0.333933  0.0551963  0.0850218  0.0523729  0.173982  
589 1 9.6673 -0.0138316 0.0823519 0.0408277  0.0275503  0.347143  0.0151834  0.199925  0.0290411  0.340329  0.031256  0.131574  0.0297446  0.17699  