ITEM: TIMESTEP
8000
ITEM: NUMBER OF ATOMS
756
ITEM: BOX BOUNDS pp pp pp
-4.8435403183999997e+00 9.6870806368999993e+00
-1.0186409263300000e+01 2.0372818526500001e+01
-6.0013959751000003e+00 1.2002791950200001e+01
ITEM: ATOMS id type x y z q2 q3 q4 q5 q6 q7 q8 q9 q10 q11 q12
1 1 -0.0458304 -10.2132 0.0460852 0.0413101  0.0610735  0.312987  0.0244184  0.175566  0.0607253  0.330233  0.0551717  0.112051  0.0523599  0.15468  
2 1 -0.191795 -7.33602 -4.61945 0.0460908  0.110335  0.14762  0.0570836  0.170236  0.0626529  0.338278  0.0734907  0.0820294  0.0733585  0.143999  
3 2 -2.82526 -9.24577 -4.57154 0.0218286  0.110536  0.268972  0.0628015  0.17743  0.0651693  0.310723  0.0712502  0.106356  0.0731875  0.160711  
4 3 -1.20655 -9.22939 -4.49355 0.0189138  0.0479551  0.221987  0.0298469  0.165973  0.032422  0.305805  0.0389687  0.0955159  0.0309561  0.173999  
5 3 -3.81769 -5.6068 -4.59885 0.0405792  0.0721956  0.176491  0.0390176  0.218334  0.0563872  0.30963  0.0515815  0.122623  0.0466827  0.194125  
6 3 -3.46989 -8.53913 -5.77702 0.0345366  0.099814  0.141616  0.0405737  0.19301  0.0610638  0.323668  0.0551697  0.0840287  0.0572527  0.181022  
7 1 0.00299371 -10.0453 -2.96578 0.0384347  0.0295914  0.336444  0.0169749  0.190486  0.0406415  0.337114  0.0461587  0.122079  0.0450822  0.160617  
8 3 -3.51125 -8.56465 -3.31142 0.0287201  0.0909366  0.165296  0.0424271  0.191705  0.043275  0.324218  0.0471002  0.0848278  0.0488116  0.174799  
9 1 -4.7934 -2.86874 -1.60473 0.048883  0.115776  0.101698  0.0618494  0.176953  0.0664293  0.324974  0.0757784  0.093248  0.0674229  0.189247  
10 2 -2.12302 -1.05574 -1.48846 0.0221161  0.109258  0.252171  0.0636815  0.171214  0.0754474  0.312862  0.073539  0.122706  0.0694709  0.167697  
11 3 -3.74046 -0.967817 -1.49343 0.0163647  0.0448631  0.222985  0.0261496  0.165259  0.0352074  0.317305  0.0318903  0.08223  0.0322424  0.1515  
12 3 -1.05841 -4.65841 -1.41403 0.0392406  0.0567728  0.203626  0.0346931  0.199032  0.0313121  0.320787  0.033564  0.127892  0.0409537  0.17906  
13 3 -1.4145 -1.67488 -2.77662 0.0304814  0.0902796  0.161417  0.0479263  0.186112  0.0452781  0.319913  0.049427  0.0811764  0.0560521  0.146155  
14 3 -1.40111 -1.70683 -0.236499 0.0285999  0.094136  0.132638  0.0471623  0.189836  0.05797  0.319874  0.0563687  0.0853141  0.0506254  0.167075  
15 1 -2.5272 -5.18389 -3.04112 0.0310747  0.0206393  0.311672  0.021312  0.19473  0.0237136  0.338283  0.0225842  0.134356  0.0352726  0.185225  
16 1 -2.59865 -7.92778 -1.6205 0.0443863  0.113124  0.144501  0.0469095  0.184534  0.0649266  0.328221  0.0749293  0.0988116  0.0533548  0.178453  
17 2 -0.397255 -6.11691 -1.46297 0.0171317  0.0833854  0.267613  0.0625791  0.15704  0.0465287  0.316146  0.0707944  0.112548  0.0633152  0.155099  
18 3 -3.61713 -5.99523 -1.58789 0.0236379  0.0601848  0.245474  0.0274289  0.170501  0.0471913  0.310294  0.0462733  0.10321  0.042023  0.170168  
19 3 -1.42492 -9.66647 -1.54921 0.0410279  0.0705635  0.166221  0.0433643  0.203204  0.0524572  0.304192  0.052701  0.125519  0.0393216  0.179322  
20 3 -1.06109 -6.7511 -2.79231 0.0330944  0.0938012  0.145024  0.0496644  0.191582  0.0484986  0.317126  0.058571  0.0981668  0.0573458  0.182923  
21 1 -2.39296 -5.19071 0.0545165 0.0404964  0.0236813  0.315241  0.0343287  0.197697  0.034452  0.355286  0.0347799  0.125001  0.0394637  0.191129  
22 3 -1.10062 -6.7621 -0.205494 0.0332196  0.0832209  0.168257  0.0523616  0.181351  0.0445484  0.319621  0.0392566  0.098403  0.0575703  0.167911  
23 1 -2.42658 -2.51211 -4.39761 0.0481214  0.11048  0.15245  0.0558841  0.200832  0.0714304  0.335727  0.0771269  0.100706  0.0758456  0.164733  
24 2 -4.50861 -4.17299 -4.6216 0.0159473  0.0900522  0.298696  0.0647549  0.183066  0.0547568  0.322865  0.0606686  0.128492  0.0621135  0.16396  
25 3 -1.25604 -4.2604 -4.50486 0.0237614  0.0506855  0.22821  0.0296419  0.168339  0.0366134  0.309231  0.0335741  0.106217  0.0385997  0.174033  
26 3 -3.30188 -0.627227 -4.50039 0.0423645  0.0729858  0.185462  0.0356759  0.1953  0.0422578  0.31486  0.0384952  0.121403  0.0438587  0.161315  
27 3 -3.81334 -3.46959 -5.87096 0.032753  0.0886472  0.165211  0.0410209  0.184094  0.0449943  0.328844  0.0524452  0.0862392  0.0515242  0.163587  
28 3 -3.90885 -3.49115 -3.29555 0.0300411  0.0912092  0.147244  0.0487521  0.187783  0.045706  0.325499  0.0497918  0.0902516  0.0522963  0.172197  
30 1 -0.264941 -7.33702 1.54954 0.0372626  0.108736  0.148907  0.0736554  0.16067  0.0695426  0.313707  0.0774695  0.0890043  0.0698868  0.154329  
31 2 -2.7849 -9.20788 1.37247 0.0156892  0.0880854  0.266703  0.0489983  0.159728  0.0543156  0.309946  0.0551275  0.104121  0.0594543  0.146344  
32 3 -1.2064 -9.28788 1.3411 0.0235939  0.0482007  0.218064  0.0293129  0.168278  0.0367841  0.276789  0.0360644  0.102583  0.0362713  0.172219  
33 3 -3.83848 -5.78304 1.44078 0.0425985  0.0718181  0.177841  0.0407454  0.211419  0.0514929  0.323407  0.0479084  0.13511  0.0383399  0.207056  
34 3 -3.58118 -8.54722 0.116726 0.0280043  0.0916315  0.138546  0.0522881  0.190242  0.0537299  0.32147  0.059406  0.0890131  0.0559876  0.179374  
36 3 -3.41563 -8.63654 2.71045 0.0290062  0.0723714  0.16795  0.0380856  0.18654  0.0484323  0.309227  0.0406857  0.0972989  0.0398191  0.167231  
51 1 -2.29507 -2.39485 1.55712 0.0345296  0.136599  0.116722  0.0596522  0.16116  0.0732159  0.343251  0.0856225  0.0874975  0.0779184  0.178495  
52 2 -4.48915 -4.22155 1.43392 0.0213336  0.107462  0.277489  0.0599415  0.178122  0.0742126  0.322231  0.0659429  0.116459  0.073261  0.17077  
53 3 -1.25459 -4.25992 1.59399 0.0213657  0.0609016  0.24561  0.0267073  0.154705  0.0406272  0.320137  0.0440128  0.106731  0.0407766  0.157497  
54 3 -3.45365 -0.538146 1.51627 0.0418569  0.0697835  0.168302  0.0396745  0.213573  0.05636  0.324109  0.0492966  0.10666  0.0473648  0.194291  
55 3 -3.74858 -3.52119 0.233272 0.0326245  0.0853638  0.166522  0.041582  0.192014  0.0353062  0.327595  0.0509477  0.0787895  0.0455839  0.171824  
56 3 -3.78793 -3.5733 2.71819 0.0339981  0.0909482  0.168908  0.0391953  0.184992  0.0484959  0.340174  0.0494261  0.084471  0.0553644  0.171024  
253 1 4.87909 -10.0454 -0.0938157 0.0402003  0.0546906  0.290052  0.0294795  0.180286  0.0528845  0.348314  0.0487542  0.103506  0.056913  0.18507  
254 1 4.60156 -7.30384 -4.5371 0.0431292  0.123039  0.15502  0.0642311  0.176846  0.0740438  0.312654  0.0860295  0.0881716  0.0837443  0.145618  
255 2 2.03985 -9.23818 -4.46289 0.0197377  0.1133  0.250217  0.0614701  0.16739  0.0761087  0.307824  0.0754131  0.127472  0.0778938  0.172632  
256 3 3.60015 -9.22947 -4.66655 0.0227641  0.0607469  0.238419  0.0260494  0.162897  0.0478411  0.287047  0.0527599  0.10724  0.0433768  0.166201  
257 3 1.05149 -5.65181 -4.55937 0.0432181  0.0739801  0.172128  0.0376239  0.208951  0.0562207  0.317683  0.050028  0.121605  0.038938  0.19196  
258 3 1.24514 -8.58342 -5.75843 0.0312433  0.0940527  0.163616  0.0344395  0.184049  0.0453547  0.314178  0.0543181  0.0771868  0.0478802  0.153727  
259 1 4.87612 -10.1668 -3.11517 0.0404287  0.0425922  0.335272  0.0284309  0.180406  0.0441262  0.329248  0.0497346  0.112912  0.0410568  0.153399  
260 3 1.44204 -8.52973 -3.16724 0.0286348  0.0765284  0.1588  0.0556168  0.177286  0.0425253  0.310613  0.0433027  0.096431  0.0564633  0.166507  
261 1 0.138561 -2.77787 -1.50315 0.0341238  0.127472  0.128732  0.0604541  0.165165  0.0778032  0.33751  0.0832262  0.0713969  0.087569  0.15401  
262 2 2.72092 -0.96687 -1.40577 0.0241008  0.106119  0.273468  0.0627181  0.180668  0.0777389  0.31063  0.0716838  0.116928  0.0685031  0.162711  
263 3 1.17876 -0.92451 -1.51622 0.0230337  0.0470393  0.226664  0.035285  0.172308  0.0343402  0.289632  0.0435244  0.0988413  0.0411018  0.172478  
264 3 3.72429 -4.55524 -1.60544 0.0447885  0.0750745  0.168244  0.0369663  0.213699  0.0534661  0.323818  0.049955  0.117303  0.0443529  0.190763  
265 3 3.43048 -1.6392 -2.71233 0.0309106  0.0950831  0.144786  0.0417044  0.198829  0.0522417  0.312209  0.0508151  0.0866064  0.0498089  0.179454  
266 3 3.36629 -1.57662 -0.187716 0.0350357  0.0931971  0.143527  0.0415592  0.186657  0.0501959  0.309082  0.0506102  0.0877553  0.0572515  0.173732  
267 1 2.47099 -5.07507 -3.10191 0.0393124  0.0485217  0.293922  0.0308745  0.180903  0.0501033  0.339503  0.040204  0.0960072  0.0533608  0.168833  
268 1 2.30027 -7.8503 -1.427 0.0400379  0.128755  0.16062  0.0657723  0.156865  0.0634233  0.31748  0.0818829  0.0797322  0.0701729  0.13558  
269 2 4.49167 -5.99774 -1.55976 0.0238127  0.11061  0.252973  0.0730655  0.177688  0.0706518  0.322577  0.0778828  0.112787  0.0770193  0.180338  
270 3 1.1417 -5.98671 -1.50233 0.027378  0.0454929  0.234701  0.0305436  0.172244  0.0306324  0.303078  0.045667  0.104514  0.0301861  0.16328  
271 3 3.56335 -9.5729 -1.63157 0.0464993  0.0671664  0.175296  0.0447699  0.206619  0.0515142  0.308329  0.0520501  0.127004  0.04143  0.178971  
272 3 3.79778 -6.65971 -2.80624 0.0354594  0.0902268  0.133554  0.0527767  0.187452  0.0482653  0.325332  0.0423593  0.0827791  0.059465  0.168397  
273 1 2.324 -5.1185 -0.084777 0.0374  0.0247873  0.298999  0.0268053  0.191985  0.0338718  0.332455  0.0346119  0.108286  0.0368388  0.164634  
274 3 3.8728 -6.61607 -0.245133 0.0335474  0.0883583  0.159438  0.046061  0.189626  0.0449833  0.324439  0.0508287  0.0710984  0.0506088  0.167224  
275 1 2.46322 -2.13272 -4.49833 0.0522064  0.109208  0.138808  0.0546335  0.189172  0.0758146  0.309936  0.0797279  0.0894234  0.0553837  0.172744  
276 2 0.300971 -4.16777 -4.4738 0.0267183  0.0919249  0.255562  0.0467123  0.176391  0.0626537  0.330268  0.053023  0.143718  0.0545362  0.188377  
277 3 3.58563 -4.15654 -4.59753 0.0224522  0.0480483  0.21875  0.03175  0.172206  0.0321015  0.306027  0.0371882  0.0858966  0.0327058  0.177704  
278 3 1.40713 -0.478803 -4.41591 0.0460264  0.0770404  0.201987  0.0390634  0.212377  0.0421227  0.306546  0.0519388  0.128454  0.0450432  0.193851  
279 3 1.0035 -3.55635 -5.77598 0.0328753  0.0899125  0.14117  0.0499937  0.197861  0.0477228  0.303259  0.0633694  0.0946171  0.0589559  0.185493  
280 3 0.948822 -3.4876 -3.22195 0.0354418  0.0852989  0.16017  0.0443436  0.195765  0.0451639  0.331577  0.0464251  0.0760135  0.0610166  0.171518  
282 1 4.83426 -7.34833 1.48511 0.0490138  0.110503  0.150743  0.0544744  0.178768  0.07965  0.332227  0.0814296  0.0741392  0.0651452  0.172718  
283 2 2.1246 -9.08428 1.55025 0.0203956  0.104882  0.223885  0.0494927  0.155043  0.0690891  0.291649  0.0731159  0.138064  0.0608298  0.178027  
284 3 3.69149 -9.21783 1.49129 0.0231554  0.047557  0.232204  0.0241498  0.167018  0.0374417  0.296848  0.0347416  0.108738  0.0373546  0.178778  
285 3 1.00649 -5.62127 1.47541 0.042277  0.0602977  0.201104  0.0330868  0.192562  0.0344222  0.311796  0.0321137  0.127175  0.038179  0.174772  
286 3 1.54644 -8.38876 0.254239 0.0349464  0.0909986  0.161293  0.0465483  0.17446  0.0505181  0.304164  0.0501003  0.0967644  0.0509858  0.144082  
288 3 1.34044 -8.49199 2.78377 0.0334805  0.0972909  0.137299  0.0402618  0.188555  0.0496368  0.286394  0.0566017  0.0958933  0.0536365  0.166003  
303 1 2.41822 -2.23016 1.45051 0.0487674  0.104259  0.14356  0.0531825  0.181974  0.0701244  0.332382  0.0674639  0.077556  0.0627733  0.160342  
304 2 0.328642 -4.12073 1.55856 0.0135818  0.0780603  0.272782  0.0675746  0.157056  0.0509905  0.32558  0.0680559  0.121696  0.0710257  0.151631  
305 3 3.60068 -4.2097 1.4261 0.0221199  0.0463223  0.22364  0.0305367  0.168513  0.0341692  0.309975  0.0374967  0.0867616  0.0343373  0.172491  
306 3 1.44623 -0.436197 1.53658 0.0384118  0.0550166  0.203027  0.0350144  0.205352  0.0292694  0.317178  0.0342767  0.107437  0.0422413  0.181624  
307 3 0.947694 -3.38107 0.269739 0.0285462  0.0955922  0.133415  0.045542  0.185622  0.0517489  0.321353  0.0517281  0.0926182  0.0534475  0.168981  
308 3 1.07047 -3.4431 2.83379 0.0289322  0.0904594  0.162555  0.0455962  0.189139  0.0390829  0.328378  0.0549239  0.0784586  0.0556446  0.166331  
505 1 9.64522 -10.1445 -0.0880858 0.0365289  0.0311068  0.340334  0.0145636  0.194682  0.0285551  0.349819  0.0319876  0.128846  0.0444564  0.189123  
506 1 9.56657 -7.41284 -4.60555 0.0508882  0.107666  0.104435  0.0626865  0.179228  0.0784559  0.319249  0.0803243  0.086193  0.0658693  0.176655  
507 2 6.94135 -9.05711 -4.56046 0.0139981  0.0907527  0.27306  0.0840982  0.177302  0.064172  0.308687  0.079757  0.124901  0.0740406  0.181977  
508 3 8.47896 -9.26215 -4.55614 0.0222305  0.0494842  0.22694  0.0275418  0.169613  0.0325821  0.302919  0.0332006  0.0969326  0.0351117  0.168009  
509 3 5.7617 -5.6381 -4.50463 0.048172  0.0732977  0.193671  0.0366413  0.212224  0.0461004  0.315567  0.0377895  0.132236  0.044319  0.191952  
510 3 6.27399 -8.40514 -5.84729 0.0323275  0.0855935  0.138986  0.0550781  0.191598  0.0498912  0.291297  0.0512738  0.097036  0.0608689  0.175853  
511 1 9.59559 -10.2665 -3.12899 0.0410103  0.0272755  0.328273  0.0193656  0.186842  0.0341991  0.354948  0.0315716  0.127101  0.0328282  0.177363  
512 3 6.25814 -8.51653 -3.247 0.0316084  0.0892571  0.167428  0.0396267  0.190653  0.057401  0.316681  0.0432765  0.0842635  0.0545167  0.160472  
513 1 4.95278 -2.73018 -1.57772 0.0444868  0.133378  0.133703  0.0576534  0.167175  0.0768029  0.328841  0.0833017  0.0739618  0.0835251  0.161087  
514 2 7.53361 -0.946638 -1.54443 0.0211368  0.121734  0.232166  0.0703103  0.173291  0.074824  0.304164  0.0775046  0.139256  0.0790198  0.185413  
515 3 6.02391 -0.810456 -1.39774 0.0219256  0.0508205  0.227209  0.0241992  0.165638  0.0365871  0.298637  0.0319633  0.101824  0.0296038  0.166123  
516 3 8.67819 -4.56428 -1.45674 0.0423692  0.0715954  0.17265  0.0409073  0.20968  0.052403  0.316132  0.0443875  0.116032  0.0401075  0.186797  
517 3 8.2574 -1.64678 -2.79312 0.0356436  0.0858345  0.164374  0.0495801  0.177397  0.0405891  0.316346  0.0564865  0.0746938  0.0473567  0.159107  
518 3 8.25903 -1.61358 -0.302569 0.0301218  0.0866577  0.166332  0.0392783  0.188884  0.0421965  0.321097  0.0491529  0.0775916  0.0525792  0.159992  
519 1 7.27197 -4.99421 -3.07002 0.0439967  0.0153398  0.322693  0.0324877  0.191522  0.0378432  0.347176  0.0330901  0.118504  0.0387528  0.176239  
520 1 7.17439 -7.89464 -1.5 0.0429081  0.127147  0.114504  0.063332  0.1753  0.0778767  0.334643  0.0835384  0.0827496  0.0796202  0.179155  
521 2 9.33049 -6.06249 -1.57443 0.028009  0.0868885  0.275266  0.0443971  0.181741  0.0552805  0.334519  0.0605719  0.122829  0.0569837  0.173161  
522 3 6.08466 -5.9094 -1.54878 0.0255744  0.049788  0.223377  0.0232532  0.171569  0.0371065  0.312837  0.0315757  0.0876446  0.0306746  0.174568  
523 3 8.27545 -9.59574 -1.55601 0.0450926  0.0787463  0.199358  0.0319589  0.211428  0.044015  0.326946  0.0481209  0.121333  0.0468763  0.198131  
524 3 8.63666 -6.7406 -2.77565 0.0310941  0.0903242  0.163764  0.0396753  0.188952  0.0467627  0.315411  0.0494229  0.0829189  0.0570822  0.158862  
525 1 7.29165 -5.08243 -0.0593905 0.0448374  0.0466973  0.352883  0.0220012  0.193318  0.0388796  0.364435  0.0396833  0.116816  0.0417115  0.18736  
526 3 8.61716 -6.72278 -0.240526 0.0321154  0.0903859  0.166438  0.0426254  0.194989  0.0537403  0.333516  0.056838  0.0702068  0.0607501  0.172195  
527 1 7.13105 -2.25113 -4.51545 0.0425442  0.125259  0.102635  0.0551063  0.174273  0.0921807  0.320314  0.0973519  0.0845778  0.087497  0.172567  
528 2 5.13165 -4.13491 -4.54909 0.0211678  0.101886  0.27236  0.0616795  0.185376  0.0667049  0.319497  0.0743717  0.106034  0.0652925  0.173155  
529 3 8.4396 -4.3341 -4.56536 0.0244009  0.0425385  0.240104  0.0255905  0.1792  0.0301486  0.298955  0.0393765  0.0972166  0.0319446  0.161368  
530 3 6.1675 -0.569748 -4.40249 0.0469013  0.0773921  0.201226  0.0368114  0.213755  0.044467  0.318596  0.046522  0.129944  0.0547929  0.201495  
531 3 5.86099 -3.5167 -5.82102 0.0307545  0.0929855  0.161695  0.0362547  0.200132  0.0467221  0.323679  0.0521084  0.0734719  0.0515305  0.17949  
532 3 5.83462 -3.46209 -3.30811 0.0319502  0.0949744  0.144716  0.0454883  0.189876  0.0541424  0.321851  0.0569316  0.0720002  0.0526193  0.173869  
534 1 9.45051 -7.35471 1.43741 0.0305984  0.156239  0.147472  0.0554873  0.162125  0.0738872  0.326457  0.107813  0.0789622  0.0977909  0.159445  
535 2 6.9654 -9.22294 1.49608 0.019743  0.101594  0.277991  0.0662638  0.176414  0.0696872  0.326638  0.0765431  0.114198  0.0713677  0.16908  
536 3 8.4759 -9.38381 1.49315 0.0182313  0.047698  0.225751  0.0252055  0.166061  0.0314313  0.31095  0.0332886  0.0967347  0.0313168  0.175187  
537 3 5.95183 -5.56156 1.39446 0.0449333  0.0738276  0.171135  0.0352691  0.212845  0.0556658  0.32079  0.0511571  0.106221  0.0441769  0.198964  
538 3 6.26691 -8.48626 0.18218 0.0301995  0.0791729  0.166448  0.0514045  0.194368  0.0518383  0.32713  0.0432297  0.0889496  0.0534334  0.190486  
540 3 6.24611 -8.4928 2.71233 0.0266633  0.0775536  0.187965  0.051286  0.195322  0.0426629  0.317349  0.0421472  0.0847962  0.0544678  0.167731  
555 1 7.35656 -2.28426 1.48495 0.0457733  0.11999  0.135792  0.0515302  0.166557  0.0680424  0.324662  0.0771087  0.0798736  0.0708052  0.145002  
556 2 5.15128 -4.1277 1.42951 0.0210613  0.119958  0.227868  0.0704031  0.179265  0.0747192  0.31134  0.0789525  0.129748  0.0821929  0.203206  
557 3 8.50061 -4.20495 1.45411 0.0223296  0.0477185  0.228627  0.030219  0.171158  0.0358054  0.307306  0.0363065  0.0885033  0.0388938  0.173467  
558 3 6.28857 -0.400101 1.42732 0.0479269  0.0811138  0.199859  0.0368639  0.205392  0.0475412  0.310847  0.0515505  0.122782  0.0537516  0.183784  
559 3 5.84275 -3.38166 0.178343 0.0378428  0.0897857  0.166046  0.0447315  0.186094  0.048809  0.325702  0.052845  0.0804596  0.0572053  0.171771  
560 3 5.90354 -3.45823 2.64902 0.034194  0.0954227  0.141564  0.0407464  0.195473  0.0526277  0.312226  0.0489053  0.0860039  0.0530053  0.17944  
85 1 -0.0226318 0.0699801 -0.0231864 0.0320027  0.0151034  0.315485  0.0252471  0.1634  0.0432198  0.343563  0.0422023  0.105239  0.0317559  0.158747  
86 1 -0.0932109 2.84812 -4.50483 0.0459471  0.125796  0.106378  0.0625058  0.203124  0.0822951  0.314747  0.0673818  0.0924758  0.08023  0.176356  
87 2 -2.70221 0.933454 -4.51973 0.0233378  0.109211  0.266646  0.0600481  0.16289  0.0733885  0.313182  0.0760129  0.102605  0.0727063  0.152218  
88 3 -1.16242 0.86143 -4.33227 0.0213335  0.0451775  0.223973  0.0310714  0.164239  0.0341827  0.298958  0.0345137  0.0875846  0.0314922  0.150315  
89 3 -3.73659 4.61294 -4.43278 0.0433488  0.0681716  0.175236  0.0426682  0.214058  0.0530476  0.311934  0.0441633  0.116973  0.047529  0.200747  
90 3 -3.39155 1.49304 -5.76525 0.033297  0.088526  0.163424  0.0447543  0.181313  0.0528338  0.307882  0.0461197  0.0824414  0.0574468  0.167018  
91 1 0.0240053 -0.0154632 -2.91238 0.0530698  0.0189713  0.322374  0.0320948  0.199464  0.0352053  0.347848  0.0362895  0.11941  0.0365173  0.178598  
92 3 -3.43969 1.60935 -3.26324 0.0302456  0.0906666  0.160279  0.0435691  0.184442  0.0516138  0.322923  0.0450297  0.0747352  0.0513722  0.156448  
93 1 -4.6895 7.46007 -1.52962 0.0421384  0.124388  0.147428  0.0521621  0.202048  0.0855794  0.33118  0.0868842  0.111281  0.0785196  0.191475  
94 2 -2.01286 9.24141 -1.40839 0.0159786  0.0904192  0.296191  0.0686031  0.18279  0.0672767  0.329551  0.0545036  0.122805  0.0665731  0.170618  
95 3 -3.60642 9.31137 -1.4033 0.0210665  0.0473788  0.223206  0.0319651  0.167574  0.0361576  0.319282  0.0353075  0.0888021  0.0336234  0.164115  
96 3 -0.903685 5.5937 -1.53042 0.0453926  0.0790677  0.201407  0.0356438  0.221715  0.0467199  0.329605  0.055156  0.111001  0.0488589  0.211385  
97 3 -1.35473 8.49799 -2.74112 0.0295747  0.101272  0.141963  0.0483706  0.185722  0.0478916  0.326154  0.0567759  0.0851904  0.0610345  0.178893  
98 3 -1.29987 8.58525 -0.109243 0.0319209  0.0856463  0.169232  0.0451076  0.189431  0.0447866  0.32291  0.0475937  0.0753291  0.0515323  0.166986  
99 1 -2.3762 5.07109 -2.98717 0.0348646  0.050531  0.287661  0.0375512  0.177975  0.0525073  0.336298  0.0552028  0.104102  0.0576923  0.174019  
100 1 -2.38489 2.32106 -1.5233 0.0529601  0.109932  0.158374  0.0499178  0.193851  0.0755571  0.330642  0.0684991  0.092871  0.0685024  0.175099  
101 2 -0.268257 4.06776 -1.49859 0.0203144  0.0926372  0.304439  0.0667105  0.188594  0.0645168  0.327636  0.0627089  0.127071  0.0607901  0.179317  
102 3 -3.591 4.13881 -1.48062 0.0190365  0.0436182  0.229624  0.0294222  0.173648  0.0307024  0.307379  0.0324168  0.10225  0.0319425  0.170325  
103 3 -1.47738 0.421491 -1.44401 0.0481511  0.0795119  0.191599  0.0313734  0.202439  0.0467172  0.323021  0.0452364  0.121961  0.0463081  0.185658  
104 3 -0.977201 3.35406 -2.71352 0.0365951  0.0960668  0.151684  0.0446123  0.186398  0.0482937  0.314626  0.054319  0.100864  0.0552858  0.169708  
105 1 -2.48392 5.13473 -0.0202089 0.0426568  0.040654  0.321873  0.0240403  0.196424  0.0389329  0.355301  0.0453776  0.109782  0.049423  0.174643  
106 3 -0.940611 3.46513 -0.190916 0.0326939  0.0909337  0.168224  0.0400981  0.191281  0.0440406  0.320414  0.0455416  0.0844019  0.0481603  0.165888  
107 1 -2.34443 7.85404 -4.48617 0.0506883  0.111081  0.113955  0.0728132  0.214515  0.0792146  0.334609  0.0743193  0.087356  0.082894  0.210465  
108 2 -4.45302 6.05032 -4.4826 0.0187269  0.0919786  0.277152  0.0761612  0.184602  0.0645888  0.324189  0.0626  0.133559  0.0689226  0.195116  
109 3 -1.23208 5.95623 -4.4431 0.0219227  0.0467326  0.232346  0.0325235  0.176159  0.0345423  0.302353  0.0348882  0.101672  0.0338973  0.181705  
110 3 -3.47016 9.59385 -4.44638 0.0438562  0.0770388  0.192942  0.0383245  0.209274  0.0435296  0.327818  0.0535006  0.113001  0.0453334  0.187341  
111 3 -3.85739 6.74081 -5.78015 0.0305946  0.103299  0.13658  0.0428873  0.187501  0.0435134  0.316842  0.0607843  0.0763212  0.0462786  0.172375  
112 3 -3.72463 6.74268 -3.20208 0.0313352  0.0871614  0.162166  0.043636  0.188029  0.0365109  0.333846  0.0506858  0.0637149  0.0461476  0.16511  
114 1 -0.0497085 2.821 1.50252 0.0510081  0.112996  0.144277  0.0489742  0.18392  0.0755663  0.336218  0.0877516  0.0814046  0.0647741  0.168201  
115 2 -2.77448 0.96231 1.44243 0.0228862  0.113889  0.251586  0.0642112  0.178421  0.0717725  0.316515  0.0687736  0.130057  0.0751875  0.183593  
116 3 -1.26288 0.922945 1.49769 0.0192049  0.047541  0.225772  0.0288578  0.168258  0.0445985  0.313526  0.0356989  0.0916706  0.0338758  0.168547  
117 3 -3.85032 4.68871 1.60139 0.0400434  0.0582456  0.205532  0.0296722  0.212227  0.0370504  0.319581  0.0400844  0.114933  0.041174  0.202051  
118 3 -3.47088 1.6186 0.163889 0.0311234  0.103555  0.132719  0.0422193  0.187663  0.0412554  0.307753  0.0518397  0.0950786  0.0522272  0.17414  
120 3 -3.44814 1.59099 2.79187 0.0351361  0.0964692  0.140791  0.0471525  0.19265  0.0533613  0.327164  0.0570959  0.0770614  0.0570857  0.185144  
135 1 -2.40507 7.95402 1.54296 0.0396629  0.127214  0.0593675  0.0622366  0.19609  0.0839328  0.326231  0.091534  0.0967364  0.0803226  0.220109  
136 2 -4.48052 6.16382 1.49274 0.0210412  0.122797  0.276976  0.0702419  0.190194  0.0827643  0.331139  0.0855986  0.112005  0.0883755  0.169898  
137 3 -1.24398 6.03494 1.46613 0.0203985  0.0442246  0.230339  0.0375586  0.182354  0.0324976  0.298721  0.0324868  0.100174  0.0307894  0.176877  
138 3 -3.36097 9.69818 1.59425 0.0388803  0.0561577  0.202049  0.0327968  0.206039  0.0401297  0.316556  0.0362321  0.112149  0.0459683  0.193136  
139 3 -3.76689 6.71335 0.179038 0.0276122  0.0982618  0.134273  0.0470594  0.188937  0.0474292  0.319977  0.0532809  0.0803107  0.0570463  0.172862  
140 3 -3.79386 6.85982 2.7513 0.0309953  0.0854591  0.14124  0.0569591  0.198531  0.0469905  0.31491  0.0552725  0.0866817  0.0551261  0.180317  
337 1 4.80905 -0.0507077 0.136895 0.0433488  0.0209936  0.34373  0.0180485  0.188178  0.0369494  0.342813  0.0220871  0.132436  0.0281819  0.173385  
338 1 4.8242 2.81795 -4.38504 0.0511053  0.112395  0.103104  0.0552656  0.189056  0.0711782  0.318677  0.0751645  0.0925329  0.0729716  0.175786  
339 2 2.09148 0.996563 -4.37554 0.0150813  0.0905349  0.292363  0.0710328  0.189446  0.0711427  0.308335  0.0659475  0.114124  0.0743582  0.170098  
340 3 3.66329 0.92667 -4.41567 0.0216866  0.0463004  0.228822  0.032604  0.177267  0.0386078  0.297003  0.0313135  0.0893855  0.0356201  0.178281  
341 3 1.04078 4.56776 -4.43872 0.0466586  0.073171  0.198798  0.0409945  0.217139  0.0382647  0.312559  0.042072  0.130768  0.0486541  0.199868  
342 3 1.42102 1.73184 -5.70253 0.030312  0.0867271  0.140029  0.0551934  0.201459  0.0547319  0.311269  0.0496131  0.0860648  0.0541898  0.18041  
343 1 4.79715 0.0249537 -2.93947 0.0296526  0.0434337  0.336768  0.0127247  0.172479  0.0479878  0.327404  0.0464212  0.115289  0.0386173  0.162268  
344 3 1.38895 1.60754 -3.06113 0.0276944  0.0847557  0.164811  0.0484028  0.19364  0.0488825  0.307611  0.052433  0.0830879  0.0543736  0.160924  
345 1 0.104356 7.3274 -1.43767 0.0494418  0.115945  0.114893  0.0579017  0.205587  0.0824756  0.3215  0.0641282  0.0927903  0.0807096  0.182692  
346 2 2.78748 9.14738 -1.46248 0.0255694  0.0670372  0.276548  0.0679726  0.175425  0.0559314  0.321915  0.0561283  0.138157  0.0638817  0.18723  
347 3 1.26581 9.41701 -1.57404 0.024036  0.0443867  0.249519  0.020608  0.171013  0.036997  0.303148  0.0378984  0.113801  0.0367398  0.169463  
348 3 3.88847 5.58388 -1.46385 0.0461558  0.0783344  0.201186  0.0310974  0.207324  0.0499702  0.330246  0.0462317  0.114737  0.0509506  0.194596  
349 3 3.48965 8.46728 -2.75759 0.0335499  0.0869889  0.170143  0.0491227  0.182477  0.0483502  0.323505  0.051592  0.090141  0.0594692  0.154687  
350 3 3.46249 8.45267 -0.175285 0.0333114  0.0852733  0.164497  0.0472591  0.185759  0.0464947  0.325033  0.0462133  0.0745839  0.0563349  0.162819  
351 1 2.44385 5.05873 -2.90244 0.034479  0.0565092  0.282985  0.0391022  0.180268  0.0490287  0.333676  0.0553228  0.0998756  0.0519516  0.179383  
352 1 2.34065 2.23078 -1.47476 0.0411221  0.121846  0.102784  0.0619819  0.183913  0.0755452  0.325167  0.0897397  0.0880134  0.0792134  0.184111  
353 2 4.56749 4.1085 -1.41177 0.0178425  0.107395  0.278843  0.060225  0.183847  0.0769803  0.325347  0.064358  0.117219  0.071602  0.170218  
354 3 1.30887 4.17119 -1.49829 0.0231399  0.0471306  0.231687  0.0278284  0.174042  0.0338318  0.304585  0.0284436  0.100399  0.0367201  0.17503  
355 3 3.37878 0.510057 -1.4512 0.0473954  0.0768345  0.19985  0.0372906  0.208074  0.0424792  0.314628  0.0467014  0.123551  0.0478243  0.189464  
356 3 3.9009 3.37079 -2.64593 0.0290011  0.100369  0.132223  0.0486619  0.19122  0.0474299  0.309389  0.0577094  0.0830307  0.0606262  0.170607  
357 1 2.4207 5.13928 -0.009735 0.0410768  0.0536143  0.32503  0.0220061  0.17586  0.0466622  0.3611  0.0441491  0.107231  0.0568759  0.170332  
358 3 3.85223 3.46919 -0.142279 0.0303102  0.0885197  0.163151  0.0422452  0.184663  0.04751  0.324668  0.0461934  0.0688069  0.0529061  0.160228  
359 1 2.43843 7.91985 -4.42728 0.0333445  0.13298  0.0927702  0.0642246  0.175352  0.0698454  0.314532  0.0912487  0.103279  0.0789624  0.186632  
360 2 0.310887 6.07306 -4.41069 0.0199478  0.112875  0.231942  0.0735344  0.182853  0.0783458  0.308272  0.0728055  0.141798  0.0756324  0.19688  
361 3 3.58493 6.02288 -4.39488 0.0241777  0.06141  0.24306  0.0278626  0.169029  0.0424658  0.304005  0.0458801  0.0987539  0.0437439  0.167921  
362 3 1.39063 9.69491 -4.53917 0.0483613  0.076406  0.209  0.037645  0.20351  0.0461274  0.315641  0.0532815  0.13958  0.0514083  0.189346  
363 3 1.04183 6.72942 -5.73691 0.0299891  0.0928506  0.170349  0.0383388  0.193435  0.0485898  0.316806  0.0526321  0.083844  0.0508  0.166564  
364 3 1.06087 6.71783 -3.13499 0.0315256  0.0852971  0.169705  0.0468126  0.185215  0.04021  0.324889  0.0480722  0.0740473  0.0544  0.162782  
366 1 4.87522 2.68047 1.53567 0.0535332  0.111027  0.150343  0.0491801  0.192913  0.0799138  0.332552  0.0639066  0.0870249  0.0729352  0.175511  
367 2 2.11639 1.05236 1.49099 0.0258482  0.117319  0.260174  0.0573194  0.168211  0.0593096  0.335501  0.0783648  0.119953  0.0758751  0.174708  
368 3 3.70539 0.867484 1.55504 0.0215367  0.0499485  0.230667  0.0203281  0.168352  0.0359363  0.305791  0.0302804  0.10682  0.0341254  0.173703  
369 3 0.986614 4.58017 1.48438 0.0473501  0.0766281  0.198957  0.0361673  0.21619  0.0444358  0.323808  0.0466201  0.118974  0.0407091  0.198963  
370 3 1.37667 1.68363 0.265664 0.0317884  0.0954088  0.146997  0.0416278  0.192307  0.0441219  0.319375  0.0558711  0.0908379  0.0610538  0.176025  
372 3 1.36737 1.65774 2.78745 0.0329654  0.0900588  0.148829  0.0516183  0.195101  0.0529814  0.3218  0.0488068  0.0912372  0.056658  0.179668  
387 1 2.46139 7.82647 1.56911 0.0389414  0.119751  0.140517  0.0591786  0.18418  0.0670232  0.336165  0.0842391  0.0824035  0.0735839  0.193313  
388 2 0.297719 6.10208 1.4956 0.0213324  0.114444  0.230924  0.0747952  0.185873  0.0774479  0.311047  0.0754395  0.130431  0.0806754  0.188554  
389 3 3.55307 5.97416 1.54052 0.0181826  0.0530918  0.245032  0.032729  0.165923  0.039144  0.320857  0.0465906  0.0900703  0.0354161  0.162325  
390 3 1.41961 9.65298 1.46775 0.0468015  0.0788121  0.200387  0.0338801  0.205749  0.0458882  0.323678  0.0525568  0.115122  0.0469104  0.191989  
391 3 1.07286 6.73806 0.228729 0.0301928  0.0886525  0.148021  0.0495043  0.188838  0.0521299  0.325093  0.0487994  0.078942  0.0545206  0.173128  
392 3 1.00078 6.69754 2.77275 0.0317169  0.0898147  0.167483  0.0431461  0.199851  0.0497717  0.324151  0.0478081  0.0801237  0.0517761  0.173633  
589 1 9.67931 -0.0732662 -0.0919254 0.0435208  0.0414425  0.299829  0.0243899  0.154179  0.029241  0.369707  0.0384758  0.110005  0.0418254  0.168017  