ITEM: TIMESTEP
8500
ITEM: NUMBER OF ATOMS
756
ITEM: BOX BOUNDS pp pp pp
-4.8435403184 9.6870806369
-10.1864092633 20.3728185265
-6.0013959751 12.0027919502
ITEM: ATOMS id type x y z coord q2 q3 q4 q5 q6 q7 q8 q2_mono q3_mono q4_mono q5_mono q6_mono q7_mono q8_mono
1 1 0.0520356 -10.0633 -0.153707 27 0.0168326  0.00310377  0.0231255  0.00516634  0.0346616  0.00655266  0.13631  0.0618457  0.00924818  0.199303  0.0154585  0.280262  0.0227432  0.306011  
2 1 -7.96409e-05 -7.36183 -4.51422 28 0.0259759  0.0124802  0.0231365  0.0163178  0.0393651  0.0289069  0.144677  0.091208  0.0743981  0.135655  0.0572017  0.341417  0.128468  0.299362  
3 2 -2.72814 -9.08248 -4.32897 25 0.0246561  0.0106478  0.0260126  0.0100987  0.0422959  0.0240512  0.152722  0.55459  0.277964  0.740685  0.191044  0.728991  0.259031  0.617433  
4 3 -1.15627 -9.23637 -4.45993 23 0.023646  0.0133705  0.0198565  0.013022  0.0348077  0.0238715  0.140573  0.019688  0.0283579  0.0520004  0.0092293  0.200695  0.0702238  0.316583  
5 3 -3.76465 -5.57822 -4.36432 25 0.0226413  0.00918235  0.0175486  0.0112559  0.033326  0.0215457  0.142254  0.0214905  0.0279218  0.0523792  0.0192986  0.193703  0.0771055  0.328211  
6 3 -3.44114 -8.44674 -5.62377 22 0.0218507  0.00794837  0.0239627  0.0150759  0.044076  0.0377019  0.135709  0.0182686  0.0205339  0.058719  0.0150286  0.198919  0.0691507  0.328814  
7 1 0.0752775 -10.1982 -3.08849 28 0.0206266  0.00429329  0.0219235  0.00427164  0.0380629  0.00874244  0.132377  0.056886  0.0051052  0.196796  0.0105486  0.282884  0.0196161  0.306556  
8 3 -3.40068 -8.43227 -3.10236 23 0.0189912  0.0111774  0.0245171  0.0146979  0.0389693  0.0351234  0.131861  0.0165189  0.0212646  0.0574304  0.0184877  0.194809  0.0708688  0.322057  
9 1 -4.63306 -2.80099 -1.41293 28 0.0239728  0.0129027  0.0221008  0.0153624  0.0352613  0.0295033  0.143978  0.0918888  0.0722098  0.136658  0.0498207  0.33834  0.136257  0.296797  
10 2 -2.01462 -0.954369 -1.48394 25 0.0223716  0.0112804  0.0253868  0.0133388  0.0386028  0.024784  0.152561  0.571881  0.277519  0.716764  0.190835  0.761244  0.260006  0.599672  
11 3 -3.63568 -0.828221 -1.47702 22 0.0215235  0.0147037  0.0187963  0.0148456  0.0324587  0.0217419  0.147196  0.0190502  0.0296278  0.0550762  0.015798  0.193172  0.0626634  0.328509  
12 3 -1.00873 -4.52474 -1.61145 25 0.0173911  0.00686068  0.0203518  0.00826087  0.0362255  0.0151169  0.132652  0.0247318  0.0180989  0.0539297  0.0120447  0.201227  0.0653371  0.329559  
13 3 -1.35288 -1.66759 -2.70251 24 0.0206679  0.0111089  0.0237939  0.0152622  0.0391017  0.0358883  0.135547  0.020395  0.0190322  0.0596956  0.0168532  0.196572  0.0698903  0.335303  
14 3 -1.39415 -1.6984 -0.218465 23 0.0203983  0.010457  0.0241125  0.0154167  0.0415224  0.0350611  0.132481  0.0221368  0.0152661  0.0575014  0.0166197  0.198266  0.0687143  0.329123  
15 1 -2.38804 -4.96946 -2.98183 30 0.018618  0.00231294  0.0224176  0.00331385  0.0378646  0.00413127  0.13597  0.0610568  0.00716056  0.199332  0.0112541  0.286637  0.0248171  0.310558  
16 1 -2.37687 -7.87848 -1.45063 28 0.0214247  0.0154779  0.0216332  0.0152906  0.0348892  0.0248651  0.142015  0.0946524  0.0686105  0.136956  0.058795  0.337651  0.134721  0.290389  
17 2 -0.259109 -6.01786 -1.61718 25 0.0230382  0.0126796  0.0288211  0.0103167  0.0401642  0.0258811  0.152778  0.579667  0.277851  0.703293  0.190985  0.766708  0.259287  0.593203  
18 3 -3.52852 -5.96832 -1.32956 23 0.0229506  0.01248  0.0175149  0.0137841  0.0344158  0.0218317  0.141024  0.0254678  0.024702  0.0546437  0.0103762  0.195217  0.0605195  0.324908  
19 3 -1.2819 -9.75764 -1.55264 24 0.019223  0.00917167  0.0191892  0.00966839  0.0358807  0.0108228  0.133488  0.0216016  0.0186941  0.0535053  0.0176435  0.199238  0.0753801  0.317823  
20 3 -1.04272 -6.79528 -2.78854 23 0.0225375  0.0105918  0.0244945  0.0146345  0.0420242  0.0361495  0.132984  0.0197974  0.0202308  0.0578602  0.014798  0.199786  0.0702825  0.328085  
21 1 -2.30551 -5.04353 0.0849299 28 0.0169399  0.00274005  0.0219177  0.00434861  0.0369163  0.00649427  0.135249  0.0611057  0.00475007  0.200548  0.0144006  0.285899  0.0171793  0.306312  
22 3 -0.970451 -6.65377 -0.232799 23 0.0213155  0.0106025  0.0224454  0.0159927  0.0364629  0.0353309  0.132056  0.0218773  0.0223996  0.0564959  0.0178818  0.19783  0.0730004  0.328542  
23 1 -2.36004 -2.24227 -4.4357 27 0.0215128  0.0125816  0.0233033  0.0158026  0.0356784  0.031562  0.14839  0.0927773  0.0700726  0.136127  0.0540165  0.340271  0.132413  0.296781  
24 2 -4.47913 -4.09958 -4.37742 25 0.0259596  0.0118483  0.0225361  0.0100112  0.0357639  0.02579  0.159857  0.597172  0.281261  0.680899  0.195305  0.79253  0.248032  0.597629  
25 3 -1.1565 -4.14259 -4.57877 22 0.0248193  0.0133285  0.0218876  0.00984932  0.0352684  0.0228296  0.144951  0.0270642  0.0299612  0.0539305  0.00841708  0.200371  0.0694682  0.326055  
26 3 -3.44097 -0.477609 -4.47497 25 0.0206022  0.012235  0.0169936  0.0122302  0.0346548  0.0159046  0.139636  0.0184879  0.0228194  0.0528275  0.0175257  0.190309  0.0752304  0.326378  
27 3 -3.81691 -3.48766 -5.69668 24 0.0203703  0.0098662  0.0229881  0.0147024  0.0389592  0.0345565  0.137091  0.0184884  0.0221112  0.0595848  0.0165004  0.193096  0.0678255  0.333053  
28 3 -3.82094 -3.42511 -3.16107 24 0.0214623  0.00963259  0.0243672  0.0140629  0.0400683  0.0387276  0.139789  0.01705  0.0230261  0.0599202  0.0169279  0.195944  0.0671223  0.332377  
30 1 -0.128433 -7.26185 1.48359 27 0.021788  0.012534  0.0238887  0.015321  0.0340124  0.028467  0.141412  0.091971  0.0705506  0.134279  0.0583597  0.332371  0.126409  0.292647  
31 2 -2.77294 -9.13435 1.57444 25 0.0232909  0.014613  0.0246161  0.0116603  0.0361632  0.0227075  0.150393  0.561619  0.274603  0.732588  0.190674  0.743813  0.264656  0.614153  
32 3 -1.12927 -9.23275 1.63529 22 0.0185635  0.0118067  0.0198055  0.0114856  0.0308683  0.0204133  0.139471  0.0181587  0.0247094  0.0573989  0.00985857  0.195337  0.0616717  0.322307  
33 3 -3.82493 -5.63437 1.62581 25 0.020865  0.0119411  0.0178137  0.00807996  0.0358265  0.0167686  0.141318  0.0261941  0.0239811  0.0504373  0.013311  0.195128  0.0787684  0.319776  
34 3 -3.34872 -8.54102 0.283303 24 0.0216386  0.0111609  0.0233159  0.0135268  0.0382901  0.0344702  0.130941  0.0192565  0.0180015  0.0559327  0.0160998  0.197007  0.0691819  0.320301  
36 3 -3.50829 -8.52541 2.86174 23 0.0224731  0.0116277  0.0225986  0.0153166  0.0402484  0.0371668  0.138337  0.020805  0.0191349  0.0556966  0.0175035  0.193986  0.0675318  0.320492  
51 1 -2.39771 -2.27458 1.49111 27 0.0202868  0.0131871  0.0233989  0.0160323  0.0370837  0.0282543  0.145687  0.0919027  0.0758427  0.136938  0.0600359  0.337328  0.121614  0.29735  
52 2 -4.53194 -4.17213 1.55446 25 0.0219764  0.00883374  0.0252509  0.0112075  0.0394909  0.0229343  0.148657  0.595727  0.280381  0.682458  0.19353  0.78967  0.251844  0.596616  
53 3 -1.18023 -4.20648 1.42165 23 0.0238567  0.0137851  0.0209378  0.0112858  0.0322601  0.0256803  0.134927  0.0276966  0.0301293  0.0545895  0.00757512  0.19751  0.0703671  0.32239  
54 3 -3.40182 -0.42639 1.53192 25 0.0197973  0.00880053  0.0174726  0.0111276  0.037883  0.0142213  0.137216  0.020709  0.0191708  0.0529093  0.0178847  0.198286  0.0686778  0.323931  
55 3 -3.80756 -3.47945 0.310634 24 0.0192207  0.00957849  0.0224424  0.0165872  0.0396131  0.0358842  0.132067  0.02294  0.0243624  0.058053  0.0164932  0.197692  0.0676934  0.327867  
56 3 -3.85236 -3.37845 2.74869 23 0.020946  0.00917556  0.0257444  0.0144176  0.0394366  0.0367344  0.135255  0.0218093  0.0232879  0.0583345  0.0156029  0.192853  0.0701429  0.322893  
253 1 4.99531 -10.1682 0.060339 29 0.0218444  0.0024394  0.0237913  0.00315914  0.0401847  0.00433565  0.135254  0.0618421  0.00850113  0.196422  0.010924  0.285761  0.0191147  0.307036  
254 1 4.87201 -7.34792 -4.50585 27 0.0268996  0.0120962  0.0222458  0.0169004  0.0362869  0.0257964  0.145379  0.092886  0.066377  0.135395  0.0576883  0.339817  0.13527  0.29965  
255 2 2.16827 -9.18397 -4.53152 25 0.0284484  0.0102768  0.0241656  0.0110851  0.0431996  0.0229623  0.150314  0.581241  0.28003  0.70405  0.192987  0.775727  0.25314  0.596702  
256 3 3.70879 -9.22127 -4.44729 22 0.0264641  0.0131101  0.0182354  0.0153895  0.0373532  0.0188844  0.139586  0.0254683  0.0266481  0.0519939  0.0132723  0.197143  0.061393  0.319989  
257 3 1.07703 -5.48791 -4.53332 24 0.0233529  0.0102403  0.0186156  0.0112604  0.0371201  0.0122426  0.139222  0.0232819  0.0224433  0.0504013  0.01947  0.200208  0.0688831  0.326574  
258 3 1.46471 -8.51699 -5.80656 24 0.027201  0.00829781  0.0217362  0.0157586  0.0439442  0.0356434  0.136077  0.0215795  0.0234277  0.0550535  0.0170922  0.20112  0.0687098  0.324086  
259 1 4.85058 -10.0654 -2.88017 28 0.0198098  0.00446259  0.0220808  0.00544669  0.0392996  0.00727773  0.13482  0.0610693  0.00586382  0.198808  0.0116119  0.283424  0.0205551  0.306741  
260 3 1.48172 -8.48303 -3.23646 24 0.0240444  0.00998267  0.0240739  0.0145609  0.0420892  0.0345172  0.131213  0.0186643  0.0216065  0.0576617  0.0171409  0.198268  0.0681759  0.32427  
261 1 0.108528 -2.84745 -1.54266 26 0.0226283  0.0129602  0.0227009  0.0155325  0.0368148  0.028363  0.145535  0.0953119  0.0679127  0.135562  0.0595902  0.337576  0.131194  0.297732  
262 2 2.72345 -0.871222 -1.47613 25 0.024986  0.0115324  0.0276801  0.0116566  0.040107  0.0244274  0.152833  0.596273  0.278907  0.681588  0.191706  0.790217  0.256655  0.596394  
263 3 1.16127 -0.856294 -1.49204 22 0.0223672  0.0146226  0.0223132  0.0157717  0.0356209  0.0206264  0.143158  0.0202762  0.0282946  0.0565315  0.0118016  0.194339  0.0602463  0.331272  
264 3 3.87738 -4.53903 -1.46305 24 0.0247125  0.0112399  0.0215668  0.00907696  0.0370281  0.0149643  0.139424  0.0288284  0.018779  0.0535451  0.0160759  0.196995  0.0657391  0.324552  
265 3 3.39825 -1.64102 -2.77224 24 0.0247668  0.00931659  0.0235979  0.0155589  0.0390879  0.0357547  0.142084  0.0184532  0.0185524  0.0600177  0.0183227  0.194188  0.0712515  0.332997  
266 3 3.46061 -1.6066 -0.199473 24 0.0230279  0.0116449  0.0249197  0.0148002  0.0384612  0.0348026  0.135176  0.0239505  0.0190152  0.0569874  0.0194278  0.19797  0.0683977  0.328782  
267 1 2.52376 -5.08622 -3.02013 28 0.0227803  0.00537603  0.0210436  0.00331344  0.0374533  0.00795008  0.137352  0.0621176  0.00726618  0.199732  0.018576  0.284752  0.0271766  0.315662  
268 1 2.46018 -7.86378 -1.44841 28 0.0251983  0.0143173  0.0226515  0.0151869  0.0362697  0.025069  0.141861  0.092583  0.072946  0.134905  0.05899  0.336868  0.127785  0.294015  
269 2 4.58707 -5.99415 -1.44019 25 0.0276263  0.01136  0.0252451  0.0124611  0.0384249  0.0225298  0.155011  0.599012  0.279652  0.677748  0.192484  0.79322  0.254422  0.597355  
270 3 1.24484 -5.90188 -1.65164 23 0.0225639  0.0118045  0.0224202  0.0136101  0.0338751  0.0211057  0.146153  0.0257609  0.0254773  0.0542422  0.0102823  0.200544  0.061076  0.32779  
271 3 3.53002 -9.69785 -1.47465 24 0.020608  0.0094869  0.0203621  0.0121228  0.038589  0.0147471  0.136363  0.0223725  0.0194569  0.0543625  0.0196028  0.197445  0.074391  0.322198  
272 3 3.94768 -6.69063 -2.74647 23 0.0261774  0.0106035  0.025266  0.015072  0.0389185  0.0331128  0.13831  0.0223541  0.0196835  0.0571591  0.0189918  0.196964  0.068391  0.325869  
273 1 2.43233 -5.08362 0.0200863 28 0.0211138  0.00625418  0.0233369  0.0047855  0.036481  0.00812  0.132238  0.0580795  0.00927359  0.195019  0.0145542  0.282755  0.025806  0.310511  
274 3 3.83032 -6.69804 -0.169438 24 0.0284002  0.0116061  0.0250439  0.0136512  0.0418805  0.032809  0.13612  0.0243822  0.0216693  0.0576646  0.0176564  0.19774  0.0691675  0.327338  
275 1 2.56953 -2.2663 -4.53418 26 0.0249334  0.0144884  0.022501  0.0157615  0.0372326  0.031419  0.148788  0.0925341  0.0707578  0.135825  0.0537566  0.338158  0.129466  0.298518  
276 2 0.439366 -3.95894 -4.55686 25 0.0294295  0.0120276  0.0218977  0.0147751  0.0397137  0.026473  0.150987  0.572605  0.283308  0.711845  0.205147  0.753008  0.231529  0.594017  
277 3 3.61804 -4.15202 -4.50302 22 0.0265246  0.0152419  0.0209249  0.0103501  0.034386  0.0291145  0.148121  0.0293168  0.0306617  0.0535207  0.0105035  0.199324  0.0745891  0.325238  
278 3 1.43035 -0.490432 -4.5297 24 0.021626  0.0136287  0.0174219  0.0121411  0.0359238  0.0151907  0.143509  0.0190637  0.027058  0.0528179  0.0188652  0.193602  0.0728562  0.331001  
279 3 1.08239 -3.3622 -5.8144 22 0.0227601  0.010815  0.0219189  0.015061  0.0381285  0.0372334  0.13304  0.0180243  0.0234925  0.0570985  0.0168252  0.196567  0.0692472  0.32973  
280 3 1.10242 -3.34597 -3.26469 23 0.0247625  0.0073776  0.0229522  0.0144285  0.0418666  0.0365777  0.138207  0.0196994  0.0225348  0.0579005  0.0155031  0.199498  0.0665174  0.331277  
282 1 4.94966 -7.41566 1.63378 27 0.0249602  0.0130597  0.0231078  0.013429  0.036463  0.0279993  0.141231  0.0946469  0.0723644  0.135016  0.0537839  0.328494  0.126498  0.293001  
283 2 2.09019 -9.17675 1.47976 25 0.0266276  0.0113607  0.0252191  0.0113973  0.0382054  0.0238506  0.149459  0.57353  0.281095  0.716281  0.194915  0.765447  0.248826  0.60395  
284 3 3.68255 -9.22387 1.50396 22 0.0244297  0.0148642  0.0202853  0.0137283  0.0335092  0.0209498  0.136481  0.0195926  0.0312229  0.056752  0.0140773  0.194443  0.068856  0.322098  
285 3 1.13498 -5.64933 1.50508 26 0.021878  0.0112075  0.0205681  0.0104543  0.0326049  0.013351  0.135433  0.0228344  0.0238024  0.0507757  0.0140623  0.197542  0.0756  0.32722  
286 3 1.42541 -8.54415 0.186668 24 0.02329  0.00927015  0.0233715  0.0150907  0.0400513  0.0330741  0.129498  0.0168616  0.0151569  0.056126  0.0158916  0.197047  0.0703179  0.325672  
288 3 1.41478 -8.48294 2.7703 24 0.0221197  0.00865181  0.0246181  0.0148258  0.0378698  0.0334884  0.131221  0.0142168  0.0172731  0.0593628  0.0155338  0.194965  0.0671346  0.32939  
303 1 2.57497 -2.41002 1.66661 27 0.0251364  0.0152041  0.024245  0.0135957  0.0338538  0.0270175  0.144933  0.0920324  0.0820035  0.135122  0.046546  0.332111  0.126108  0.298044  
304 2 0.433528 -4.13729 1.49939 25 0.0286018  0.0138792  0.0234878  0.0142686  0.0355118  0.0266582  0.14935  0.594448  0.279921  0.684724  0.192834  0.790124  0.25352  0.596312  
305 3 3.58358 -4.21478 1.56665 22 0.0232096  0.0119502  0.0263922  0.0125389  0.0341802  0.0209697  0.142613  0.028648  0.0282924  0.0534476  0.00938331  0.202135  0.0597855  0.327975  
306 3 1.3832 -0.548885 1.62028 24 0.0213961  0.0133057  0.0192061  0.01142  0.0357285  0.0179547  0.1402  0.0196556  0.0268168  0.0503016  0.0182592  0.196005  0.0772108  0.328539  
307 3 1.10342 -3.48689 0.20396 24 0.0249646  0.0081887  0.0250058  0.0148342  0.0388131  0.036764  0.135425  0.0230893  0.0214225  0.0578153  0.0144166  0.20209  0.0649087  0.334416  
308 3 1.0161 -3.48727 2.76915 24 0.0231022  0.0119083  0.0243981  0.0134572  0.0369085  0.0350796  0.131119  0.0138036  0.0170768  0.0590153  0.0165526  0.196643  0.059148  0.336432  
505 1 9.82653 -10.2927 0.0989812 28 0.018956  0.00353138  0.0230253  0.00523374  0.0380045  0.0119738  0.138952  0.0634528  0.00918498  0.196341  0.0112302  0.284205  0.0275665  0.302434  
506 1 9.66025 -7.2857 -4.48009 27 0.0234717  0.0128557  0.024236  0.0164269  0.0363787  0.0303845  0.148302  0.0963426  0.0650384  0.135641  0.0629726  0.340259  0.133218  0.297742  
507 2 6.94609 -9.11106 -4.44302 25 0.0272045  0.0171176  0.0231147  0.0136964  0.0397007  0.0243771  0.153078  0.589512  0.281787  0.692863  0.196748  0.786301  0.245236  0.597964  
508 3 8.54259 -9.09244 -4.46936 22 0.0224152  0.0156626  0.0186816  0.0136004  0.0337218  0.023725  0.139208  0.0218224  0.0274535  0.0534749  0.0144173  0.196647  0.0694123  0.318592  
509 3 5.88862 -5.56723 -4.48583 26 0.0249549  0.0114667  0.0188765  0.0129157  0.0341399  0.0112078  0.142172  0.024725  0.0279407  0.0520794  0.017231  0.192897  0.0793654  0.325241  
510 3 6.21398 -8.52686 -5.6513 24 0.0244546  0.0127381  0.0228095  0.0158322  0.0411264  0.035383  0.134129  0.0228049  0.0205058  0.0575088  0.0177845  0.198086  0.0716499  0.327551  
511 1 9.70727 -10.2099 -2.92063 29 0.0177768  0.00272185  0.0214725  0.00352738  0.037518  0.00488633  0.132666  0.0628151  0.00422224  0.196346  0.0110426  0.282728  0.0213086  0.303873  
512 3 6.28745 -8.53587 -3.10464 24 0.02234  0.00913249  0.0237967  0.0161765  0.0411058  0.0346439  0.1381  0.018995  0.018363  0.0579636  0.0178258  0.191996  0.0708003  0.322946  
513 1 4.84989 -2.76075 -1.50334 29 0.0270323  0.0119773  0.0225165  0.0149532  0.0340145  0.0274531  0.145977  0.0934016  0.0756203  0.13593  0.0539816  0.336197  0.125909  0.299224  
514 2 7.62268 -0.959916 -1.46286 25 0.0289882  0.0136715  0.0256857  0.0124219  0.0383191  0.0211716  0.154318  0.585417  0.279969  0.699172  0.192901  0.782342  0.253353  0.59884  
515 3 6.0708 -0.963628 -1.53754 22 0.026687  0.0138527  0.0201575  0.012549  0.0328526  0.0224009  0.146309  0.0230725  0.0294637  0.0554886  0.0133695  0.192659  0.0700011  0.32475  
516 3 8.73685 -4.4919 -1.4624 26 0.0230655  0.0123529  0.018109  0.0102359  0.0351773  0.0149291  0.140509  0.0268342  0.0240841  0.0515055  0.0120892  0.19471  0.0715469  0.323031  
517 3 8.41476 -1.61625 -2.77026 23 0.0240724  0.0102132  0.0247744  0.0157457  0.0362198  0.035136  0.135816  0.0167533  0.0186064  0.060226  0.0193134  0.192229  0.0682681  0.331637  
518 3 8.33147 -1.70547 -0.220494 24 0.025977  0.00913688  0.0232704  0.016749  0.0413893  0.0311292  0.134019  0.021836  0.0185389  0.0565794  0.0173408  0.198018  0.0652583  0.327372  
519 1 7.34615 -5.00371 -2.97002 28 0.0230849  0.00482156  0.0223138  0.00298339  0.0352179  0.00886062  0.140418  0.0612592  0.00434157  0.198666  0.012148  0.28437  0.015015  0.312074  
520 1 7.343 -7.91971 -1.61764 27 0.0247946  0.013343  0.0214202  0.0155404  0.0344739  0.0248555  0.144243  0.0966519  0.0708021  0.135656  0.0578767  0.335953  0.130937  0.291797  
521 2 9.42369 -5.97917 -1.4548 25 0.0247679  0.0150092  0.0236005  0.0128151  0.03542  0.0226178  0.156991  0.604148  0.281825  0.671541  0.196865  0.800239  0.245017  0.601958  
522 3 6.16114 -5.95554 -1.51549 22 0.0246415  0.0137148  0.0232444  0.0117844  0.0345514  0.0210795  0.148638  0.0291122  0.0264131  0.0543395  0.00823467  0.194671  0.0638147  0.322191  
523 3 8.32297 -9.61981 -1.34022 25 0.0220276  0.00854591  0.0194094  0.0113352  0.0382424  0.0147258  0.140881  0.0220465  0.0189217  0.0527825  0.0209852  0.196576  0.0797539  0.315811  
524 3 8.77081 -6.64094 -2.77433 24 0.0204081  0.0103596  0.0235336  0.0151866  0.0367271  0.0343692  0.136666  0.0206842  0.0198659  0.0595838  0.0159921  0.190948  0.0689376  0.327398  
525 1 7.34186 -5.15822 0.0405184 28 0.0220383  0.00435848  0.0217019  0.00382183  0.0371384  0.00857903  0.13423  0.0648684  0.0120882  0.194421  0.0124677  0.27953  0.0280705  0.307801  
526 3 8.75315 -6.59087 -0.183654 23 0.0226176  0.0100625  0.023248  0.0163499  0.0379231  0.0347633  0.134116  0.0235062  0.0204837  0.0584692  0.0188745  0.19527  0.0661706  0.32462  
527 1 7.37975 -2.17652 -4.39799 27 0.0265117  0.0137755  0.0229389  0.0169162  0.0339416  0.0282323  0.14807  0.091011  0.0658365  0.135362  0.0562831  0.340563  0.134234  0.297525  
528 2 5.1697 -4.06396 -4.52436 25 0.0288993  0.0114541  0.0227656  0.0110892  0.0370668  0.0274212  0.156217  0.598663  0.282723  0.678793  0.200597  0.794444  0.238545  0.597864  
529 3 8.50197 -4.13663 -4.36923 23 0.0263834  0.0134253  0.020502  0.0106984  0.0317712  0.0251359  0.15106  0.0297773  0.0293901  0.0575239  0.00749104  0.19528  0.0698288  0.327635  
530 3 6.16914 -0.488574 -4.49911 26 0.0259735  0.0116679  0.0192985  0.0113491  0.0354928  0.015187  0.14067  0.0187456  0.0251525  0.0535347  0.0134592  0.191416  0.0777109  0.32619  
531 3 5.89382 -3.44657 -5.84198 24 0.025818  0.0119025  0.0219842  0.0142191  0.0367277  0.0372539  0.140246  0.0206757  0.021476  0.059003  0.0157853  0.192776  0.0710297  0.331734  
532 3 5.87294 -3.37226 -3.28756 23 0.0259277  0.00847848  0.0226389  0.0147246  0.0387878  0.0380679  0.136863  0.0190045  0.0234808  0.0605682  0.0122265  0.18986  0.0693501  0.330138  
534 1 9.51408 -7.34711 1.49288 27 0.02342  0.0137339  0.0208143  0.0147702  0.0358842  0.0283194  0.142017  0.0983214  0.0697589  0.134973  0.0618992  0.331086  0.129064  0.289272  
535 2 6.9682 -9.2185 1.5338 25 0.0237947  0.0107678  0.0280273  0.0105715  0.0417194  0.024548  0.151037  0.57974  0.279175  0.706955  0.191957  0.774577  0.255892  0.599131  
536 3 8.53034 -9.25572 1.48194 23 0.0236159  0.0117649  0.0214863  0.0160522  0.036775  0.0196274  0.141246  0.0213707  0.0271114  0.0530109  0.0131708  0.192712  0.0621055  0.317114  
537 3 5.88854 -5.54267 1.60838 24 0.0210419  0.0107458  0.0209241  0.00992107  0.0352914  0.0140544  0.134579  0.028663  0.0179141  0.0537469  0.0146123  0.19762  0.0675103  0.322423  
538 3 6.28897 -8.53918 0.311056 24 0.0247741  0.0104207  0.0244475  0.0149537  0.0422896  0.0334008  0.132395  0.0206501  0.0181905  0.0579193  0.0182096  0.196235  0.0745452  0.322595  
540 3 6.31083 -8.56292 2.81203 24 0.0237173  0.00916897  0.0231885  0.0136858  0.0421921  0.0375485  0.135325  0.0214137  0.0183984  0.0581969  0.0161915  0.194792  0.0692238  0.321925  
555 1 7.33979 -2.29099 1.43054 28 0.0266693  0.0143939  0.0221036  0.0162482  0.034613  0.0250416  0.144638  0.0974117  0.0673559  0.13654  0.0612412  0.333268  0.128678  0.297335  
556 2 5.16001 -4.13459 1.56115 25 0.0271163  0.0087364  0.0286209  0.011432  0.0387949  0.0229561  0.150652  0.594195  0.282221  0.684304  0.198261  0.788606  0.242496  0.594458  
557 3 8.43076 -4.22695 1.56179 23 0.0224501  0.0111334  0.0219549  0.0122706  0.0360791  0.021897  0.144582  0.0356686  0.0294763  0.0550088  0.0104038  0.200114  0.0597016  0.321118  
558 3 6.21014 -0.558708 1.48623 26 0.0261197  0.0107782  0.0200673  0.0114278  0.0365848  0.0143665  0.139709  0.0252263  0.0212721  0.0540968  0.0167215  0.20232  0.0690511  0.328859  
559 3 5.77887 -3.45397 0.304016 24 0.0282238  0.00865594  0.0249418  0.0144165  0.0387883  0.0383252  0.137531  0.0262842  0.021047  0.0577595  0.0165815  0.197892  0.0709261  0.32808  
560 3 5.92761 -3.36524 2.83729 21 0.0239738  0.00856332  0.0258162  0.0142587  0.0410472  0.0340856  0.133637  0.0251001  0.0202806  0.0574928  0.0163365  0.20442  0.0719694  0.330489  
85 1 -0.00674473 -0.135714 0.0748329 27 0.0210537  0.00631207  0.0205935  0.0052727  0.0373938  0.00809145  0.143483  0.0609421  0.00726731  0.197073  0.0127073  0.285292  0.0189133  0.31356  
86 1 -0.103094 2.90638 -4.52978 28 0.0260188  0.0127848  0.0201968  0.0149462  0.0346219  0.028179  0.14879  0.0945847  0.0710284  0.136064  0.0608541  0.338238  0.127989  0.295846  
87 2 -2.76048 1.0075 -4.45085 25 0.0234711  0.0111427  0.0246056  0.0115423  0.0380707  0.0236127  0.154402  0.577161  0.278481  0.710652  0.191367  0.771024  0.257785  0.600106  
88 3 -1.22159 0.921452 -4.50832 24 0.0232558  0.0136335  0.0193097  0.0122736  0.0329381  0.0234972  0.145023  0.022897  0.0310591  0.0564264  0.00772537  0.194228  0.0713635  0.33145  
89 3 -3.75409 4.52973 -4.54598 26 0.0231939  0.0128416  0.0160265  0.0102797  0.0358453  0.0147811  0.140178  0.0317584  0.0235802  0.0522412  0.0150468  0.199321  0.0783435  0.327039  
90 3 -3.47487 1.63337 -5.73844 24 0.0207775  0.00954242  0.0237543  0.0150462  0.0408228  0.0347502  0.133778  0.0198076  0.0183625  0.0585077  0.0165506  0.193112  0.0664383  0.331716  
91 1 0.063666 0.0880047 -3.05565 29 0.0172347  0.00367718  0.0215151  0.00473752  0.0373184  0.00564049  0.138951  0.0640632  0.00733982  0.19852  0.0125085  0.283946  0.0131069  0.31072  
92 3 -3.47338 1.67446 -3.14588 24 0.0234258  0.00981494  0.0235981  0.0145103  0.0388893  0.0349728  0.13417  0.021325  0.0181873  0.0590558  0.0155656  0.197328  0.0695681  0.333115  
93 1 -4.84188 7.33112 -1.47281 27 0.0260156  0.0129787  0.020818  0.0146257  0.0370903  0.0296381  0.143862  0.0883675  0.0704749  0.134675  0.0538132  0.336904  0.133775  0.296639  
94 2 -2.06848 9.19671 -1.53019 25 0.0260164  0.0104039  0.0238235  0.00857361  0.0401745  0.0231354  0.150548  0.587777  0.279195  0.694221  0.191977  0.783095  0.255833  0.594941  
95 3 -3.68342 9.26338 -1.54515 22 0.0257616  0.0126302  0.0204228  0.0113794  0.0343422  0.0277767  0.145884  0.0284341  0.0327844  0.0549636  0.00970017  0.197728  0.0718071  0.321324  
96 3 -1.10696 5.62837 -1.5575 26 0.0220789  0.0131495  0.0172494  0.0103669  0.0342119  0.0156965  0.142864  0.0244085  0.0258745  0.0539344  0.0182101  0.192724  0.070321  0.33314  
97 3 -1.34667 8.50746 -2.80246 24 0.0211469  0.00810205  0.0220346  0.0144708  0.0420313  0.0395734  0.133902  0.0213984  0.0196645  0.0581192  0.0152912  0.195033  0.0646807  0.328136  
98 3 -1.41706 8.59193 -0.22491 24 0.0223765  0.00947529  0.0260578  0.0142073  0.0411687  0.0390817  0.139184  0.0161942  0.0209984  0.060454  0.0167582  0.19562  0.0697265  0.332858  
99 1 -2.39893 5.06799 -3.13402 28 0.0212098  0.00286094  0.0197265  0.00518406  0.036981  0.00632363  0.137786  0.0566106  0.00508173  0.201025  0.0109626  0.283566  0.0183463  0.306252  
100 1 -2.43565 2.29749 -1.43417 27 0.0223329  0.0145705  0.0210048  0.0143733  0.0351808  0.0278363  0.147522  0.0903231  0.0671664  0.137566  0.0532298  0.339184  0.136997  0.295179  
101 2 -0.379179 4.09728 -1.50588 25 0.0261564  0.0134809  0.0223648  0.0101666  0.0340605  0.0226552  0.159175  0.586201  0.279991  0.695976  0.192931  0.779825  0.253276  0.594474  
102 3 -3.61325 4.22574 -1.49486 22 0.0262586  0.0139631  0.0196297  0.0126291  0.0343601  0.019981  0.143329  0.030162  0.0259291  0.0544213  0.0103578  0.198991  0.0619153  0.330918  
103 3 -1.33274 0.520966 -1.52174 24 0.0213796  0.0125381  0.01755  0.00860889  0.0349018  0.0165531  0.141778  0.0213009  0.0224243  0.053397  0.0126648  0.195252  0.0767794  0.331133  
104 3 -1.0675 3.46127 -2.81092 24 0.023658  0.00980486  0.0215715  0.01482  0.0380064  0.036991  0.140962  0.0200864  0.0206919  0.0596096  0.0161493  0.19612  0.0653349  0.338226  
105 1 -2.43184 5.03226 0.0308993 29 0.0202037  0.00356654  0.0209315  0.0037964  0.0369172  0.00820687  0.137773  0.0516821  0.00785556  0.201346  0.0101025  0.281677  0.0180065  0.307827  
106 3 -1.0248 3.44043 -0.255528 23 0.0220375  0.0105029  0.0217658  0.0149856  0.036573  0.0349268  0.135744  0.0173128  0.0204485  0.0611733  0.0148281  0.19289  0.0678206  0.336999  
107 1 -2.26372 7.96329 -4.41121 26 0.0271105  0.0140446  0.0187487  0.0136499  0.0386338  0.0280184  0.144199  0.0902487  0.0720878  0.134558  0.0571274  0.335079  0.131347  0.294892  
108 2 -4.48771 6.03303 -4.50443 25 0.0260597  0.0102855  0.0220261  0.0115919  0.0407961  0.0261655  0.152127  0.592558  0.28063  0.688203  0.193966  0.789491  0.250855  0.597477  
109 3 -1.22424 5.8854 -4.50372 24 0.0262224  0.0105431  0.0206325  0.0115774  0.0353571  0.0235351  0.156133  0.0288838  0.0294782  0.0550869  0.0101942  0.198832  0.0594034  0.329707  
110 3 -3.47167 9.71223 -4.59005 24 0.0234631  0.0100314  0.0175671  0.00877269  0.040327  0.0150049  0.137651  0.0305716  0.0165071  0.052376  0.0158805  0.204368  0.0693197  0.32001  
111 3 -3.91429 6.73711 -5.82002 24 0.0238287  0.00890218  0.0203877  0.0148599  0.0448921  0.0354427  0.134536  0.0297634  0.0181317  0.0557006  0.0143858  0.20471  0.0686474  0.325026  
112 3 -3.75699 6.70376 -3.24384 24 0.0236973  0.00835093  0.0236157  0.0135594  0.041079  0.036024  0.133632  0.0266491  0.0210304  0.0592355  0.0151889  0.196429  0.0696342  0.329451  
114 1 -0.0189769 2.81237 1.57647 28 0.0250768  0.0138837  0.0202616  0.0160274  0.0339477  0.0261229  0.145477  0.0923105  0.0746436  0.136145  0.0536875  0.334918  0.128488  0.297082  
115 2 -2.71648 1.07952 1.53802 25 0.0267759  0.014943  0.0208635  0.0133815  0.0392008  0.0234571  0.153064  0.563916  0.278889  0.728227  0.19169  0.748258  0.256704  0.606636  
116 3 -1.24527 0.975935 1.54254 23 0.023897  0.0151056  0.0173221  0.013259  0.034699  0.0224161  0.140232  0.0184459  0.03095  0.0548831  0.00999409  0.194705  0.0709846  0.324524  
117 3 -3.7647 4.61926 1.50545 26 0.0233223  0.0130147  0.0165724  0.0107049  0.0373145  0.0155221  0.140165  0.0248135  0.0243846  0.0509973  0.014237  0.197793  0.0722324  0.325734  
118 3 -3.52726 1.72373 0.295844 23 0.0227219  0.0103496  0.0222042  0.0148205  0.0385128  0.0378256  0.133261  0.0186885  0.02  0.0586982  0.0185483  0.198664  0.0690707  0.33169  
120 3 -3.40484 1.66793 2.83305 24 0.0266797  0.0105524  0.0212494  0.0163174  0.0420078  0.0367382  0.133149  0.0154673  0.0198667  0.0567506  0.0173562  0.19853  0.0669586  0.327157  
135 1 -2.26438 7.95722 1.48152 29 0.0252761  0.0146725  0.0229981  0.0131235  0.0383008  0.0279328  0.147825  0.0857333  0.0704156  0.135771  0.0496031  0.33792  0.131117  0.295634  
136 2 -4.50408 6.0644 1.589 25 0.0265433  0.0099878  0.024954  0.0122286  0.0407262  0.0237819  0.152723  0.597777  0.280396  0.680468  0.193556  0.793968  0.251785  0.598673  
137 3 -1.24903 6.02498 1.46831 22 0.026068  0.0136537  0.0187815  0.0133164  0.0343194  0.0264531  0.140485  0.0286488  0.0321178  0.0558755  0.0109771  0.198494  0.0724762  0.327185  
138 3 -3.53387 9.67135 1.53967 25 0.0205509  0.0090427  0.0203105  0.0102223  0.0384636  0.013002  0.141329  0.0207261  0.0200256  0.0553092  0.0181401  0.196348  0.0656004  0.328  
139 3 -3.81775 6.87806 0.345215 22 0.0227805  0.00973782  0.023173  0.0133344  0.0414137  0.0334548  0.134173  0.0225326  0.0214994  0.0584289  0.0148302  0.196734  0.0676546  0.328645  
140 3 -3.89104 6.6922 2.96063 24 0.0260534  0.0117485  0.025139  0.0157824  0.0406753  0.0373193  0.141266  0.0202428  0.0225895  0.0570383  0.0157294  0.200877  0.0695332  0.329568  
337 1 4.87674 -0.0819736 -0.00934734 28 0.0238739  0.00364218  0.025231  0.00528414  0.0356266  0.0104287  0.143485  0.0642116  0.00671408  0.196593  0.0138081  0.285586  0.0178595  0.312164  