ITEM: TIMESTEP
60800
ITEM: NUMBER OF ATOMS
10500
ITEM: BOX BOUNDS xy xz yz pp pp pp
0	8.9688	2.9896
0	118.725	0
0	252.977	0
ITEM: ATOMS id type element xu yu zu q Q_1 Q_2 Q_3 Q_4 Q_5 Q_6 Q_7 Q_8 Q_9 Q_10 Q_11 Q_12 Q_13 Q_14 Q_15 Q_16 Q_17 Q_18 Q_19 Q_20 Q_21
1 1 Mg -3.24078 7.12228 57.4958 1.2 1 0.0220973 0.0157226 0.00424292 0.00456111 0.00150047 0.00616979 0.00100918 0.0211921 0.00197248 0.00900155 0.00199056 0.0262215 0.00303684 0.0182041 0.00276033 0.0324336 0.00288344 0.0230633 0.00461027 0.0416306
2 1 Mg -1.82655 6.90154 50.0912 1.2 1 0.176251 0.0477948 0.00676315 0.00946548 0.00335235 0.00854129 0.00433696 0.0222831 0.00439954 0.0141867 0.00419795 0.0246271 0.00449122 0.0208611 0.00637929 0.0300153 0.00541099 0.0262649 0.00758945 0.0328866
3 2 Si -0.257935 3.96038 48.0876 2.4 1 0.227715 0.0520463 0.011867 0.0126711 0.00246779 0.00939124 0.00372393 0.019601 0.00540468 0.0170927 0.00439205 0.0240005 0.0059298 0.0205896 0.00611891 0.0272976 0.00739344 0.0264511 0.00899848 0.032051
4 3 O -0.335812 5.46814 47.6264 -1.2 1 0.234756 0.0516897 0.013655 0.0136788 0.0031617 0.0104705 0.00473669 0.0205054 0.00597297 0.0176799 0.0050429 0.024659 0.00524665 0.0213324 0.00604457 0.027405 0.00795143 0.0272582 0.00948563 0.0305302
5 3 O -2.03793 3.43377 51.8941 -1.2 1 0.129885 0.0405926 0.00234084 0.00635523 0.00185162 0.00642 0.00278513 0.0201182 0.00237954 0.0117076 0.00314173 0.0241334 0.00371381 0.0177824 0.00443153 0.0297042 0.00476543 0.0241645 0.00714297 0.0357032
6 3 O -1.54015 3.53929 48.9521 -1.2 1 0.200259 0.049671 0.00827127 0.0109278 0.0024197 0.00812709 0.00372865 0.0201575 0.00470796 0.0150378 0.00444508 0.0231507 0.00476966 0.0198257 0.00619197 0.0280475 0.00544227 0.0257247 0.00807021 0.0319468
7 1 Mg 1.82954 2.54582 47.1376 1.2 1 0.249346 0.0506944 0.0160224 0.0157992 0.00335115 0.0103729 0.00342492 0.0196666 0.00485241 0.0158232 0.00466778 0.0234526 0.00649448 0.0191831 0.00692852 0.0251214 0.00745235 0.0246235 0.00872821 0.02981
8 3 O 1.22989 3.66364 48.7877 -1.2 1 0.2058 0.0491068 0.00933637 0.0118799 0.00196703 0.00902665 0.00367629 0.0196862 0.00380234 0.0151697 0.00357799 0.0230007 0.0048802 0.019855 0.00599994 0.0275874 0.0047097 0.0255308 0.00843793 0.0330686
9 1 Mg 1.05181 2.39851 54.51 1.2 1 0.0701458 0.0291591 0.00426821 0.00380811 0.00148568 0.00517764 0.00256434 0.020763 0.0028129 0.00958904 0.00257143 0.0248152 0.00411954 0.018333 0.00425501 0.0316945 0.0030283 0.0239028 0.00592184 0.0402036
10 2 Si 0.971921 4.88706 56.323 2.4 1 0.0352894 0.0210837 0.00530565 0.00445132 0.00131327 0.00557667 0.00201104 0.0210458 0.00204397 0.00869156 0.0033306 0.0249332 0.00285269 0.0182021 0.00464884 0.0326874 0.00280152 0.0236451 0.00534965 0.0426041
11 3 O 0.943779 3.30042 56.4616 -1.2 1 0.0370813 0.021001 0.00495007 0.00390203 0.000902434 0.00514915 0.00258716 0.0206175 0.00263239 0.00839905 0.00201874 0.0254164 0.00296047 0.0174171 0.00380482 0.0326596 0.00342124 0.0242311 0.00498235 0.0421651
12 3 O 1.10813 6.07342 52.8172 -1.2 1 0.106607 0.0368303 0.00166981 0.0052737 0.00233155 0.00673442 0.00313067 0.0217826 0.00294937 0.0109794 0.00293636 0.0245084 0.00406959 0.0185302 0.0045036 0.0313517 0.00420286 0.0249235 0.00591193 0.0362987
13 3 O -0.313257 5.60506 55.6959 -1.2 1 0.047751 0.0253181 0.00491351 0.00388543 0.00157342 0.00512177 0.00200942 0.0214059 0.0023804 0.00952638 0.00245229 0.0252368 0.00291493 0.0182151 0.00366571 0.0324357 0.00297351 0.0241181 0.00488061 0.0414871
14 3 O 2.30964 5.36854 55.5933 -1.2 1 0.0461466 0.0253879 0.00543237 0.00416603 0.000838201 0.00569332 0.00210167 0.0215205 0.00189939 0.0094227 0.00282987 0.0250681 0.00272213 0.0182994 0.00429958 0.0328996 0.00282263 0.0242658 0.00535918 0.0408222
15 1 Mg -0.459401 4.67631 52.2426 1.2 1 0.125059 0.0404522 0.00190972 0.00624965 0.00215976 0.00632956 0.00252209 0.0210522 0.00317034 0.0120698 0.00284408 0.0249041 0.00395992 0.0188364 0.0044026 0.0301221 0.00406772 0.0243283 0.00608453 0.0349979
16 1 Mg 2.79456 3.9971 49.9987 1.2 1 0.177371 0.0487409 0.00559321 0.00956693 0.00265159 0.00761806 0.00428261 0.0204305 0.00312191 0.014907 0.00272137 0.0233311 0.00427554 0.0198962 0.00638327 0.0292369 0.00391679 0.0257956 0.00815908 0.0327636
17 2 Si 1.16169 6.59457 51.2556 2.4 1 0.145965 0.045142 0.00284808 0.00762125 0.00237351 0.00797496 0.00398511 0.0216866 0.00395029 0.0132356 0.00432543 0.0241173 0.0046126 0.0206249 0.00598802 0.0310461 0.00481009 0.0262243 0.00786253 0.0348759
18 3 O 1.28989 8.18905 51.2909 -1.2 1 0.146089 0.0447032 0.00317353 0.00817191 0.00238791 0.00920304 0.00443332 0.0218005 0.00388969 0.0131125 0.00351544 0.0256166 0.0040657 0.0208216 0.0042968 0.0311208 0.00549772 0.0263531 0.00724627 0.035267
19 3 O 0.96423 5.5262 57.7712 -1.2 1 0.0176606 0.013533 0.00373824 0.00472621 0.000964599 0.00605912 0.00118989 0.0213324 0.00190589 0.00844212 0.00234482 0.0255 0.00224599 0.0185334 0.00309689 0.0323152 0.00260603 0.0234747 0.00398024 0.0434936
20 3 O -0.184847 6.06029 50.6845 -1.2 1 0.162253 0.0451986 0.00507977 0.00846922 0.00314603 0.00785862 0.00382968 0.0215718 0.00416639 0.0137905 0.00320258 0.023909 0.00395872 0.0203484 0.00526884 0.0291714 0.00465828 0.0258992 0.00749658 0.0342939
21 1 Mg -3.49704 4.67769 52.6661 1.2 1 0.114377 0.0379066 0.00153248 0.0057133 0.00213952 0.00650127 0.00309931 0.0203141 0.00316397 0.0112481 0.00365114 0.0244957 0.00393156 0.0187517 0.00449065 0.0302739 0.00377251 0.0238552 0.00656253 0.0357291
22 3 O 2.48581 5.93312 50.6539 -1.2 1 0.155781 0.0463472 0.00359899 0.00753601 0.00183955 0.00843153 0.00391425 0.0215776 0.00415493 0.0135387 0.00406134 0.0237063 0.00411964 0.0204928 0.00588369 0.030664 0.00438372 0.026199 0.0078279 0.033953
23 1 Mg -2.0128 4.74129 55.0863 1.2 1 0.0524479 0.026866 0.00513859 0.00415753 0.0015924 0.00559306 0.00230062 0.0210832 0.00274269 0.00938445 0.00270775 0.025221 0.00260222 0.0186297 0.00375121 0.0322836 0.00325061 0.0239627 0.00537445 0.0398516
24 2 Si -1.80441 2.48923 53.3093 2.4 1 0.0996362 0.0340457 0.00234023 0.0048761 0.00232937 0.00607717 0.00228435 0.0207132 0.00262498 0.0110974 0.00277176 0.0240643 0.00321934 0.0182744 0.00394301 0.0303062 0.00335611 0.0242622 0.0062358 0.0383911
25 3 O -1.83852 0.951417 53.1173 -1.2 1 0.102159 0.0336941 0.00194379 0.00504234 0.00291759 0.00566175 0.00216722 0.0200493 0.00227652 0.0103389 0.00268193 0.0247613 0.00333646 0.01759 0.00446692 0.0302972 0.00341757 0.0236156 0.00637348 0.0386432
26 3 O -0.0467762 2.97103 46.8385 -1.2 1 0.255764 0.0513734 0.0167086 0.0150882 0.00331428 0.00963358 0.00373443 0.0190614 0.00574114 0.0171003 0.0060458 0.0232572 0.00757574 0.018772 0.00850661 0.0255185 0.0072802 0.0250667 0.00978339 0.0307758
27 3 O -3.06396 3.08881 54.1145 -1.2 1 0.0811645 0.0315577 0.00334304 0.00382477 0.00193594 0.00556696 0.00234131 0.020336 0.0024231 0.0101163 0.00196454 0.0242296 0.00311197 0.0180277 0.00392885 0.0313384 0.0032206 0.0235858 0.00607006 0.0387885
28 3 O -0.570034 3.27765 53.901 -1.2 1 0.0824809 0.0320048 0.0035794 0.00399677 0.00157206 0.00598516 0.00186666 0.0210773 0.00209167 0.0103636 0.00191391 0.0242113 0.00367315 0.018657 0.00376382 0.0312464 0.003133 0.024697 0.00583597 0.0388635
29 1 Mg -2.99326 11.9517 57.3939 1.2 1 0.0239312 0.0155714 0.00440703 0.00428999 0.00133217 0.00630239 0.00103682 0.0208889 0.00222438 0.00956859 0.00198498 0.0263661 0.00318543 0.017977 0.00223267 0.0310408 0.00319729 0.0239095 0.00387392 0.0409554
30 1 Mg -1.75014 11.5838 49.8362 1.2 1 0.184951 0.0480863 0.00808344 0.0120828 0.00416898 0.012882 0.00505392 0.0236963 0.0051677 0.0152682 0.00464238 0.0278511 0.00401089 0.0232882 0.00695203 0.0331332 0.00689604 0.0285209 0.0088638 0.0342086
31 2 Si -1.18003 9.02138 47.9309 2.4 1 0.238872 0.0519101 0.0158251 0.0151149 0.00536946 0.013091 0.00786682 0.0224123 0.00798341 0.0170625 0.00650989 0.0261213 0.00499535 0.0226908 0.00649546 0.030381 0.00915243 0.0283716 0.0107333 0.0329014
32 3 O -1.23224 10.5991 47.9811 -1.2 1 0.230546 0.0529496 0.0139172 0.0154859 0.00525923 0.0144426 0.00644591 0.0238172 0.00798736 0.0171745 0.00654473 0.027312 0.00533713 0.0237322 0.00793007 0.0324787 0.00949745 0.0304174 0.00973145 0.0329793
33 3 O -1.79016 8.01447 51.8693 -1.2 1 0.13202 0.041906 0.00226727 0.0075591 0.00341788 0.00729751 0.00336015 0.0219825 0.00315534 0.0120748 0.00339237 0.0255896 0.00353979 0.01989 0.00463454 0.0316805 0.00535408 0.0253449 0.00751572 0.0356639
34 3 O -2.30986 8.37215 48.8528 -1.2 1 0.206464 0.0525102 0.0101039 0.0117475 0.00405514 0.0108227 0.00643213 0.0228529 0.00612746 0.0167389 0.00482553 0.0257106 0.00418848 0.0229399 0.0059885 0.031556 0.00689462 0.0283735 0.008695 0.0328903
35 1 Mg 0.154883 7.08234 46.8007 1.2 1 0.258754 0.0521343 0.0183356 0.0157888 0.00569969 0.0131689 0.00860373 0.0232279 0.0076756 0.0177909 0.007307 0.0248623 0.00692459 0.021643 0.00833852 0.0291477 0.0101963 0.0289208 0.0121013 0.0313206
36 3 O 0.325447 8.50934 48.3809 -1.2 1 0.218135 0.0530669 0.0118943 0.0134386 0.0038746 0.0120666 0.00652859 0.0235081 0.00652257 0.0168923 0.00534293 0.0253024 0.00495643 0.023606 0.00578148 0.0304695 0.00768864 0.0289997 0.00940536 0.0330423
37 1 Mg 1.18035 7.05365 54.7283 1.2 1 0.0660661 0.0295357 0.00372187 0.00398978 0.00175421 0.00580106 0.0023945 0.0209285 0.00260614 0.00977021 0.00267104 0.0253271 0.00305647 0.0190012 0.00353146 0.0326891 0.00343564 0.0232474 0.00547694 0.0391274
38 2 Si 1.37328 9.76819 56.4546 2.4 1 0.0342462 0.0210567 0.00532079 0.00499369 0.0012178 0.00615504 0.00212778 0.0208756 0.00234649 0.00874487 0.0032479 0.0253458 0.00254107 0.0190694 0.00351174 0.0320879 0.00312876 0.0234733 0.00514105 0.0420085
39 3 O 1.32506 8.1373 56.5101 -1.2 1 0.0329576 0.0205929 0.00507037 0.00432008 0.000863128 0.00619084 0.00172682 0.0214043 0.00298056 0.00848649 0.00225058 0.0257131 0.0029538 0.0184798 0.00307298 0.0321332 0.00420436 0.0236157 0.00493642 0.0418322
40 3 O 1.28624 10.7248 52.7351 -1.2 1 0.111336 0.0383112 0.00177252 0.00708122 0.00242907 0.009329 0.00329808 0.0224677 0.00312894 0.0114583 0.00328456 0.026118 0.00437801 0.0205783 0.00436766 0.0325707 0.00425547 0.0263417 0.00629127 0.0371553
41 3 O -0.00513247 10.4407 55.8533 -1.2 1 0.0485756 0.0251565 0.00498578 0.00441722 0.00121655 0.00621274 0.0017621 0.0211225 0.00206218 0.00921502 0.00265602 0.0254727 0.00310314 0.0191697 0.00394213 0.0321108 0.00313481 0.0242179 0.00530096 0.0403709
42 3 O 2.72981 10.3073 55.7957 -1.2 1 0.0447229 0.0248136 0.00597821 0.0046616 0.00119658 0.0065332 0.00236397 0.0217564 0.0023224 0.00974401 0.00318049 0.0253478 0.00296797 0.0194713 0.00443646 0.032396 0.00293715 0.0249575 0.00561725 0.0411443
43 1 Mg -0.262694 9.34741 52.2523 1.2 1 0.113475 0.0409729 0.00219192 0.00689935 0.00293523 0.00763694 0.00304424 0.0227882 0.00291048 0.0120597 0.00292443 0.0260774 0.00378607 0.0204545 0.00526531 0.0326821 0.00428981 0.026385 0.00668565 0.0356682
44 1 Mg 1.87648 9.01537 49.4629 1.2 1 0.185785 0.0525623 0.00663465 0.0105775 0.00284331 0.0109418 0.00640511 0.0230467 0.00543922 0.0159927 0.00459779 0.0261661 0.00470022 0.0231319 0.00593044 0.0316869 0.00575044 0.0285837 0.00862783 0.0337407
45 2 Si 1.21415 11.3799 51.2378 2.4 1 0.146732 0.0461798 0.00244269 0.00940993 0.00296413 0.0110996 0.00409283 0.0237152 0.00383897 0.0140837 0.00422213 0.026395 0.004188 0.023132 0.00531529 0.0327376 0.00511272 0.0281225 0.00827507 0.0360615
46 3 O 1.31634 12.9512 51.3023 -1.2 1 0.149149 0.0447754 0.00308196 0.00963441 0.00227465 0.0120043 0.00364527 0.023726 0.00435671 0.0140827 0.00336496 0.0278611 0.00390659 0.0235403 0.00507228 0.0337981 0.00501547 0.0287058 0.00752814 0.0365893
47 3 O 1.37367 10.3889 57.797 -1.2 1 0.0189521 0.0137074 0.0036293 0.00459335 0.00119111 0.00619498 0.00118323 0.0208812 0.0020334 0.00873742 0.00254823 0.0259999 0.00230921 0.018394 0.00262262 0.0310264 0.00266576 0.023178 0.00355341 0.0415831
48 3 O -0.115718 10.7564 50.681 -1.2 1 0.156121 0.0466059 0.00414657 0.0100264 0.00347953 0.0108943 0.0042602 0.0238284 0.00409321 0.0141356 0.00350497 0.0265971 0.00459771 0.0228095 0.00559753 0.032313 0.00532471 0.0278009 0.00810099 0.03546
49 1 Mg -3.26386 9.35564 52.3622 1.2 1 0.12324 0.0405723 0.00185896 0.00702121 0.00247744 0.00907409 0.00414425 0.0220129 0.00348571 0.0119006 0.00354234 0.0256324 0.00323243 0.0201496 0.00430607 0.0326673 0.00473547 0.0261397 0.00691159 0.0350148
50 3 O 2.45216 10.7265 50.4558 -1.2 1 0.16326 0.048847 0.00463612 0.00935666 0.00291981 0.0116924 0.00499111 0.0231228 0.00457942 0.0151533 0.00407361 0.0263839 0.00393572 0.0237858 0.00591344 0.0329263 0.00556811 0.0282858 0.0083708 0.035254
51 1 Mg -1.6374 9.19102 55.1555 1.2 1 0.0541286 0.0277818 0.0053921 0.00478661 0.00204868 0.00598199 0.00219714 0.0216318 0.00255545 0.00985235 0.00267725 0.0255788 0.00269308 0.0193882 0.00325667 0.0323888 0.00366069 0.0247376 0.00599555 0.0396914
52 2 Si -1.76644 7.31638 53.4004 2.4 1 0.0936045 0.0365826 0.00231427 0.00518435 0.00299978 0.0064979 0.00268429 0.0213193 0.00348985 0.0107026 0.00282472 0.0251104 0.00327862 0.0197265 0.00306361 0.0320715 0.00436439 0.0244944 0.00582729 0.0377108
53 3 O -1.90784 5.81839 53.2189 -1.2 1 0.0992262 0.0350461 0.00172476 0.00469483 0.00203991 0.00645043 0.00237841 0.0208463 0.00366119 0.0103081 0.00330163 0.0246541 0.00313304 0.0183211 0.00486929 0.0317186 0.00317081 0.0246642 0.0064351 0.0371675
54 3 O -1.19417 8.46968 46.4488 -1.2 1 0.270849 0.0523835 0.0206213 0.0175259 0.00563649 0.0147225 0.00914713 0.0243164 0.00798107 0.0174863 0.00748061 0.0254948 0.00622133 0.021565 0.00901838 0.0303878 0.0106296 0.030119 0.0112043 0.0308506
55 3 O -3.05054 7.94177 54.0637 -1.2 1 0.0829433 0.0325164 0.00257599 0.00427019 0.00223713 0.00726967 0.00220607 0.0211421 0.00242485 0.0102389 0.00266291 0.0246617 0.00316711 0.0191165 0.00368009 0.0324618 0.00414984 0.024087 0.00621504 0.0378545
56 3 O -0.53159 7.91852 53.9979 -1.2 1 0.0801669 0.0338503 0.00343894 0.00445403 0.0025103 0.00561573 0.00191413 0.0215789 0.00268557 0.0101313 0.0026199 0.0251794 0.00268731 0.0190639 0.00412477 0.0325088 0.00371291 0.0247969 0.00586608 0.0377714
57 1 Mg -2.89839 16.5282 57.3127 1.2 1 0.0254288 0.0149636 0.00523308 0.00531675 0.00145554 0.00643654 0.00100477 0.0207737 0.00224595 0.00875298 0.00200153 0.0266565 0.00306402 0.0174601 0.00241639 0.0297697 0.00356605 0.0242889 0.00382858 0.0420945
58 1 Mg -1.6714 16.3544 49.8412 1.2 1 0.183239 0.0485211 0.00798642 0.0125748 0.00308415 0.0158403 0.00285382 0.0258281 0.00499482 0.0169389 0.00399058 0.030553 0.003736 0.0252971 0.00619159 0.0348739 0.00578557 0.0299752 0.00876273 0.0366836
59 2 Si -1.18567 13.8526 47.9314 2.4 1 0.23639 0.0540242 0.0156618 0.0170788 0.00464168 0.0188205 0.00523168 0.0263906 0.00883182 0.019267 0.00560133 0.0306591 0.00574396 0.0279199 0.00649056 0.0349726 0.00964015 0.032159 0.010286 0.0349583
60 3 O -1.09664 15.4205 47.9915 -1.2 1 0.229789 0.0528088 0.015083 0.0168782 0.00458471 0.0197034 0.00435098 0.0272864 0.00778591 0.0189893 0.00567031 0.030864 0.00502241 0.0270312 0.0075792 0.0358989 0.00845152 0.0332097 0.00923883 0.03542
61 3 O -1.73493 12.7491 51.7772 -1.2 1 0.135526 0.041697 0.00268915 0.00932532 0.00325059 0.010289 0.00222611 0.0238455 0.00352344 0.0133522 0.00301197 0.0277607 0.00422744 0.0226665 0.00444617 0.0326587 0.00527564 0.0273427 0.00763163 0.0371714
62 3 O -2.36115 13.2717 48.8238 -1.2 1 0.204654 0.0523421 0.0102667 0.013764 0.00462198 0.0150048 0.00494221 0.0261955 0.00635529 0.018251 0.0047472 0.0298979 0.00409198 0.0261517 0.00615711 0.0348058 0.007533 0.0312692 0.00918875 0.0342895
63 1 Mg -0.159928 11.7639 46.8533 1.2 1 0.259438 0.0535016 0.0190659 0.0186609 0.00614087 0.0199097 0.00702324 0.0274411 0.00926733 0.0193311 0.00740307 0.0299542 0.0065589 0.026824 0.00776053 0.0336753 0.010699 0.0324494 0.0116009 0.0338977
64 3 O 0.2623 13.1866 48.413 -1.2 1 0.216615 0.0533387 0.0122006 0.0149942 0.00365025 0.0165237 0.00464469 0.0264868 0.00745594 0.0178768 0.00464051 0.0291969 0.00487943 0.0272713 0.00522 0.0341478 0.00860291 0.0323823 0.00900146 0.0350691
65 1 Mg 1.27977 11.7935 54.4303 1.2 1 0.0762429 0.0323147 0.00345076 0.00514129 0.00225549 0.00757628 0.00238158 0.0217356 0.00296228 0.0107761 0.00239554 0.0263541 0.0043387 0.0209635 0.00305731 0.0323992 0.00461198 0.024792 0.00582353 0.0384764
66 2 Si 1.62952 14.4953 56.3078 2.4 1 0.0388574 0.0213431 0.00536308 0.00584547 0.0014798 0.00583654 0.00163311 0.0208624 0.00193741 0.00871692 0.00315125 0.0258365 0.00313097 0.018967 0.00408233 0.0306122 0.0028638 0.0243069 0.00531913 0.041977
67 3 O 1.54403 12.9204 56.5572 -1.2 1 0.0321402 0.0192907 0.00551441 0.00508634 0.00118603 0.00595397 0.00154399 0.0206628 0.00305842 0.00835539 0.0022411 0.0260662 0.00374471 0.0185863 0.00268775 0.031155 0.00347901 0.0240531 0.00537214 0.0419325
68 3 O 1.36565 15.4813 52.729 -1.2 1 0.113555 0.0378635 0.000655461 0.00793569 0.00171571 0.0115656 0.00283936 0.0235386 0.00252216 0.0125228 0.00297009 0.0281492 0.00377849 0.0216908 0.00422718 0.032568 0.00371169 0.0275724 0.00657273 0.0390913
69 3 O 0.310194 15.2218 55.8113 -1.2 1 0.0496892 0.0240694 0.00495756 0.00527603 0.00132009 0.00647221 0.00172905 0.0211415 0.00208709 0.00941114 0.00243817 0.0261164 0.00276153 0.0190828 0.00337066 0.0312843 0.00330928 0.024775 0.0049062 0.0415512
70 3 O 2.74047 15.2115 55.5434 -1.2 1 0.049048 0.0247202 0.00592419 0.00553782 0.0013602 0.00676329 0.00180713 0.0212848 0.0022535 0.00975896 0.00235425 0.026205 0.00284656 0.0195149 0.0030728 0.0311868 0.00302714 0.0249092 0.00536592 0.0418137
71 1 Mg -0.206989 14.1049 52.2121 1.2 1 0.119325 0.0415167 0.00108763 0.00791743 0.00284942 0.00979168 0.00223515 0.0237933 0.00305309 0.0130945 0.00271287 0.0282068 0.0036803 0.0225094 0.00430418 0.0331945 0.00414075 0.0276123 0.00701703 0.037169
72 1 Mg 1.82591 13.8102 49.4556 1.2 1 0.188056 0.0527406 0.00666614 0.0116643 0.00286744 0.0145461 0.00463136 0.0249745 0.00518056 0.0172733 0.00445516 0.0288632 0.00426515 0.0260162 0.00592847 0.0354936 0.00678456 0.0310303 0.00870884 0.0348729
73 2 Si 1.29285 16.1518 51.2434 2.4 1 0.147416 0.0460241 0.00237221 0.00985664 0.00177125 0.0134516 0.00333005 0.0250328 0.00372239 0.0152927 0.00424842 0.0285597 0.00350846 0.0243706 0.00570332 0.0336968 0.00360351 0.0301039 0.00837407 0.0380597
74 3 O 1.39496 17.7199 51.3047 -1.2 1 0.147035 0.0438372 0.00274454 0.0096513 0.00135222 0.0133919 0.00298958 0.0242594 0.00420064 0.0146178 0.0029263 0.0287529 0.00353205 0.0237106 0.00424371 0.0339088 0.00533143 0.0295228 0.00739713 0.0388194
75 3 O 1.7501 15.1464 57.7321 -1.2 1 0.0206268 0.0129493 0.00415047 0.00529988 0.00136333 0.00613174 0.00100242 0.0208324 0.00236184 0.00831781 0.00285802 0.025851 0.00281566 0.0176778 0.00328353 0.0291878 0.00292763 0.023934 0.00364802 0.0422764
76 3 O -0.0269106 15.5178 50.6688 -1.2 1 0.160048 0.046956 0.00465698 0.010943 0.0028501 0.0138582 0.0032004 0.0252273 0.00382657 0.0151419 0.00293689 0.0286901 0.00398937 0.0252574 0.00507131 0.03369 0.00393125 0.0298762 0.00813212 0.0373127
77 1 Mg -3.18391 14.1057 52.3125 1.2 1 0.124172 0.0408614 0.0013149 0.00773227 0.00198991 0.0113665 0.00276768 0.0236236 0.00329678 0.0133748 0.00276255 0.0277232 0.00362035 0.0229318 0.0041079 0.0323627 0.00472668 0.0273074 0.00681995 0.037494
78 3 O 2.52432 15.503 50.4579 -1.2 1 0.164055 0.0488947 0.00501638 0.00992964 0.00221508 0.0144013 0.00389427 0.0251524 0.00453536 0.0168123 0.00329842 0.0289428 0.00350473 0.0256768 0.00537822 0.0342809 0.00500593 0.0297004 0.00833904 0.0368181
79 1 Mg -1.45973 14.1809 55.1657 1.2 1 0.0555748 0.0270557 0.00529898 0.00561855 0.0015487 0.00598891 0.00223595 0.0219905 0.00190863 0.0100032 0.00285872 0.0271279 0.00306405 0.0198744 0.00383602 0.0315241 0.00348626 0.0248611 0.00601693 0.041361
80 2 Si -1.73369 11.9682 53.3312 2.4 1 0.0937252 0.0358936 0.00323471 0.00667304 0.0030322 0.00811097 0.00197224 0.0226848 0.00302544 0.0115885 0.00247494 0.0265513 0.0037287 0.0215228 0.00356181 0.0326774 0.00489378 0.0256771 0.00692791 0.0389249
81 3 O -1.7417 10.4688 53.3012 -1.2 1 0.0961915 0.0357357 0.00272844 0.00576826 0.00284134 0.00762737 0.00212443 0.0214287 0.00288096 0.0106045 0.00278447 0.0259568 0.00347848 0.0200723 0.00434624 0.032452 0.00455582 0.0249214 0.00743274 0.037795
82 3 O -1.21337 13.3381 46.4311 -1.2 1 0.270419 0.0532199 0.0210433 0.0204089 0.00638707 0.0209445 0.00698634 0.029799 0.00941064 0.020559 0.00659868 0.0311184 0.00596248 0.026709 0.00843317 0.0360873 0.0123647 0.0345613 0.0113837 0.0339515
83 3 O -2.99546 12.7135 54.0362 -1.2 1 0.0861375 0.0336584 0.00306779 0.00564015 0.00202844 0.00870066 0.00172923 0.0222515 0.00265657 0.0111799 0.00212202 0.0263833 0.00397041 0.0212541 0.00289793 0.0322758 0.00405071 0.0255043 0.00657262 0.0395152
84 3 O -0.335703 12.741 53.9838 -1.2 1 0.0813122 0.0333214 0.00346806 0.00556781 0.00303057 0.00657494 0.00209801 0.0223457 0.00295437 0.0106546 0.00244455 0.0260832 0.00337602 0.0212502 0.00358837 0.032603 0.00461539 0.0255641 0.00617449 0.0390501
85 1 Mg -2.84539 21.1613 57.4191 1.2 1 0.024062 0.0139004 0.00440135 0.00560772 0.00114773 0.00651853 0.00159065 0.0217064 0.00196679 0.00816336 0.00196442 0.0272351 0.00236265 0.0172872 0.00246324 0.0290244 0.00313234 0.0253418 0.00360679 0.0440159
86 1 Mg -1.5831 21.1217 49.8405 1.2 1 0.180362 0.0482433 0.00753614 0.0127802 0.00270827 0.0162843 0.00298155 0.0261982 0.00438212 0.0171137 0.00422032 0.0309953 0.00341034 0.0252895 0.0065273 0.0340379 0.00505314 0.0300357 0.00917711 0.0382757
87 2 Si -1.09384 18.6291 47.9287 2.4 1 0.232987 0.0542513 0.0145774 0.0174556 0.0035774 0.0211231 0.00417758 0.0280149 0.00793474 0.019766 0.00551742 0.0319278 0.00542231 0.028614 0.00638978 0.0362354 0.00873961 0.0332999 0.00945114 0.0375613
88 3 O -1.02071 20.1985 47.9911 -1.2 1 0.233874 0.0537977 0.0145372 0.017813 0.00371469 0.0215632 0.00410274 0.0287266 0.00776618 0.0198321 0.00609452 0.0319521 0.00532383 0.0277583 0.00706889 0.036267 0.00823731 0.0337243 0.00883539 0.0376465
89 3 O -1.65002 17.5002 51.771 -1.2 1 0.136655 0.0413521 0.00248631 0.00997845 0.0028276 0.012453 0.00148718 0.0242591 0.00264472 0.013812 0.00273761 0.0287209 0.00380922 0.0232126 0.00434212 0.0330703 0.00519858 0.0280376 0.00782202 0.0386783
90 3 O -2.26174 18.0434 48.8281 -1.2 1 0.205017 0.0529414 0.0096711 0.0140437 0.0035131 0.0179859 0.00348822 0.0278965 0.00594755 0.019254 0.00404746 0.0312135 0.00398933 0.0269096 0.00593207 0.0359187 0.00698615 0.032602 0.00870654 0.0369216
91 1 Mg -0.0440435 16.5651 46.8269 1.2 1 0.262095 0.0556803 0.0194369 0.0203305 0.00476687 0.0251145 0.005325 0.0307497 0.00970308 0.021882 0.00646636 0.0333878 0.00703778 0.0290023 0.00856615 0.0367403 0.00959093 0.0360056 0.0109832 0.03712
92 3 O 0.37001 17.9877 48.3925 -1.2 1 0.216165 0.0537159 0.0114975 0.0154531 0.00308287 0.0189157 0.00320745 0.0279064 0.00668525 0.0189347 0.00431595 0.0310316 0.00441113 0.0283073 0.0061612 0.0355928 0.00788417 0.0338515 0.00904006 0.0374844
93 1 Mg 1.5977 16.7342 54.5479 1.2 1 0.0765501 0.0310823 0.00393166 0.00630447 0.00169612 0.00875148 0.0023328 0.0220072 0.00237236 0.0108276 0.00230176 0.0272185 0.00317658 0.0206107 0.00284771 0.0316352 0.00368195 0.0255365 0.00580359 0.0406671
94 2 Si 1.4937 19.3008 56.5921 2.4 1 0.0316868 0.0169489 0.00528091 0.00623384 0.0012082 0.00628419 0.00190649 0.0207539 0.00187086 0.00847509 0.00303277 0.026582 0.00282765 0.0182691 0.00426968 0.0292987 0.0033607 0.0244866 0.0049442 0.0446942
95 3 O 1.54621 17.7545 56.4615 -1.2 1 0.035439 0.0188991 0.00566652 0.00598641 0.00115767 0.00589923 0.00150575 0.0208463 0.00280498 0.00828461 0.00215082 0.0266812 0.00307211 0.0177918 0.00265776 0.0303701 0.00391221 0.0246956 0.00483902 0.0430219
96 3 O 1.45147 20.239 52.7294 -1.2 1 0.113632 0.0375911 0.00134168 0.00840144 0.00141873 0.0123517 0.00309755 0.0238577 0.00226988 0.0126775 0.0027175 0.0286549 0.00350855 0.0216533 0.00451047 0.03191 0.00329118 0.0277622 0.00686081 0.0404671
97 3 O 0.310531 20.0305 55.912 -1.2 1 0.0453637 0.0219314 0.00583128 0.00566865 0.00147377 0.00643677 0.00224719 0.0212758 0.00214041 0.00896193 0.00218803 0.0266406 0.00294302 0.0187719 0.00368882 0.0302888 0.00355235 0.0257574 0.00552537 0.0437322
98 3 O 2.72935 19.9238 55.8628 -1.2 1 0.0430477 0.0217606 0.00632148 0.00569616 0.00123512 0.00662029 0.00234599 0.0214507 0.00182122 0.00928052 0.00250148 0.0265484 0.00258471 0.0185684 0.0038258 0.0307798 0.00290379 0.0258317 0.00558382 0.0441238
99 1 Mg -0.126194 18.8651 52.2079 1.2 1 0.11766 0.0404881 0.00157605 0.00892571 0.00216469 0.0109924 0.00224818 0.0238389 0.00204192 0.0132928 0.00269367 0.0290177 0.00324811 0.0224659 0.00420378 0.0325997 0.00389582 0.0280976 0.0073787 0.0387678
100 1 Mg 1.92402 18.5815 49.4545 1.2 1 0.183057 0.0520597 0.00536594 0.0115283 0.00123414 0.0157892 0.00411461 0.0260953 0.00460136 0.0179703 0.00412194 0.0303977 0.00449751 0.0269188 0.00566164 0.0357639 0.00550518 0.0315259 0.00900455 0.037491
101 2 Si 1.38106 20.9117 51.2443 2.4 1 0.146455 0.0454608 0.00177174 0.0104572 0.00156818 0.0137683 0.00340518 0.0251299 0.00367325 0.0151991 0.00404486 0.0284933 0.00352812 0.0244079 0.00574303 0.0327605 0.00388409 0.029464 0.00838457 0.0397004
102 3 O 1.48527 22.4795 51.3054 -1.2 1 0.146938 0.0437621 0.00304707 0.0102112 0.0014028 0.013443 0.00307173 0.0238887 0.0043802 0.0142439 0.00319338 0.0290649 0.00342359 0.023659 0.00504987 0.0330318 0.00435909 0.0285288 0.00775599 0.0398048
103 3 O 1.39255 19.9254 58.0399 -1.2 1 0.0192898 0.0116749 0.00340779 0.00547695 0.00113764 0.00619739 0.00146268 0.021369 0.00177896 0.00805953 0.00258685 0.0266941 0.00219851 0.0173977 0.00306012 0.0289307 0.00267499 0.0254619 0.00327953 0.0438865
104 3 O 0.0615419 20.2804 50.6669 -1.2 1 0.159556 0.0469028 0.00419661 0.0118972 0.00273789 0.0145711 0.00351825 0.0256121 0.00370248 0.0155026 0.00311851 0.0295658 0.00372119 0.0253483 0.00502884 0.033281 0.0036807 0.0299257 0.00815061 0.0390177
105 1 Mg -3.09665 18.8643 52.3122 1.2 1 0.12453 0.0407632 0.00132114 0.00862126 0.00132477 0.0123801 0.00265626 0.023858 0.00239289 0.0136842 0.00243155 0.028687 0.00319916 0.0230586 0.00361967 0.0324749 0.0043739 0.0280084 0.00690154 0.0389426
106 3 O 2.61548 20.2646 50.4626 -1.2 1 0.159782 0.0478064 0.00386642 0.0104993 0.00117842 0.0145425 0.00350645 0.0251996 0.00389679 0.0163713 0.00323303 0.0292465 0.00333735 0.0249464 0.00566709 0.0338637 0.00458074 0.0296234 0.00820062 0.0384133
107 1 Mg -1.25213 18.9606 55.0653 1.2 1 0.0582683 0.026776 0.00575053 0.00640698 0.00202123 0.00723409 0.00208056 0.0219684 0.00179895 0.00991988 0.00216227 0.0275924 0.00285798 0.0195286 0.00387662 0.0307737 0.00385576 0.0255091 0.00591954 0.0422268
108 2 Si -1.46906 16.7655 53.429 2.4 1 0.0911308 0.0348166 0.0034367 0.00733728 0.0027358 0.00849515 0.00160505 0.0230288 0.00215391 0.0114388 0.00255603 0.0278034 0.00344849 0.0214174 0.00367821 0.0323066 0.00462915 0.0264348 0.00678794 0.041377
109 3 O -1.44438 15.2142 53.3846 -1.2 1 0.0928669 0.0345717 0.00263227 0.0066945 0.0026728 0.00813988 0.00153727 0.022181 0.00256937 0.0107744 0.00264345 0.0276705 0.00287792 0.0206877 0.00347184 0.0323837 0.00348305 0.026037 0.00706348 0.0404741
110 3 O -1.12868 18.1227 46.4249 -1.2 1 0.267416 0.0549471 0.0201239 0.0211168 0.00459183 0.0247286 0.00503165 0.0319091 0.00804018 0.0214675 0.00558253 0.0339555 0.00645167 0.0270998 0.00807613 0.0380762 0.0112698 0.0364502 0.0105805 0.0370855
111 3 O -2.70248 17.573 53.9352 -1.2 1 0.0860655 0.0325114 0.00290815 0.00617616 0.00169889 0.00959922 0.0014963 0.0226105 0.00151436 0.011464 0.00175113 0.027321 0.0027856 0.0213052 0.00264415 0.0317048 0.00402926 0.0263655 0.00605314 0.0411742
112 3 O -0.138891 17.5482 53.9497 -1.2 1 0.0821586 0.0322791 0.00358006 0.00654716 0.00282039 0.00783986 0.00175709 0.0224046 0.00177452 0.0108035 0.00238067 0.0268256 0.00309854 0.0213161 0.00356984 0.0322165 0.00421438 0.0268866 0.00591605 0.0409115
113 1 Mg -2.71387 25.7527 57.422 1.2 1 0.0212579 0.0143484 0.00442191 0.00597601 0.0011424 0.00660847 0.00193706 0.0217774 0.00205333 0.0085458 0.00168203 0.0269636 0.00273564 0.0176905 0.00350943 0.029502 0.00336365 0.0249101 0.00397 0.0447114
114 1 Mg -1.48778 25.88 49.8402 1.2 1 0.181573 0.0485655 0.0074965 0.0132534 0.0024306 0.0159629 0.00284333 0.0263812 0.00484499 0.0175914 0.0045652 0.0305607 0.00375207 0.0251842 0.00607809 0.0337373 0.00523745 0.0298307 0.00857979 0.0386116
115 2 Si -1.00491 23.3922 47.9274 2.4 1 0.233942 0.0545844 0.014895 0.0176746 0.00356607 0.0216211 0.00445063 0.028756 0.00829318 0.0200853 0.00578309 0.0325084 0.00518879 0.0280266 0.00622633 0.0355247 0.00866784 0.0330202 0.00962145 0.0383347
116 3 O -0.927602 24.9615 47.9909 -1.2 1 0.228829 0.0528934 0.014205 0.0172289 0.00338444 0.0209166 0.00397425 0.0284266 0.00736503 0.0197574 0.00588329 0.0318233 0.00468542 0.0271508 0.00677748 0.0356982 0.007771 0.0328982 0.00852885 0.0381277
117 3 O -1.55795 22.2588 51.7696 -1.2 1 0.135587 0.0415719 0.00289399 0.0100896 0.0027793 0.0126801 0.00177787 0.0245094 0.00252991 0.0136298 0.00292329 0.0290081 0.0035081 0.0229899 0.00435632 0.032201 0.00455381 0.027932 0.00779759 0.0399269
118 3 O -2.17411 22.8111 48.8277 -1.2 1 0.208689 0.0536983 0.0098129 0.0145603 0.00296917 0.0183242 0.00377439 0.0279613 0.00613214 0.0197218 0.00442498 0.0313497 0.00386829 0.0271678 0.00539102 0.0353309 0.00670662 0.031971 0.00858658 0.0377594
119 1 Mg 0.0423997 21.3296 46.8225 1.2 1 0.259629 0.055486 0.0185344 0.0208807 0.00443318 0.0257717 0.00573345 0.0318982 0.00920352 0.0218011 0.00644845 0.0343303 0.00668643 0.0287368 0.00897093 0.0364233 0.00915843 0.0359088 0.0103445 0.0380156
120 3 O 0.458537 22.7495 48.3911 -1.2 1 0.217447 0.0539822 0.0111556 0.0157846 0.00295814 0.0193413 0.00327659 0.0285303 0.00663275 0.0190904 0.00443862 0.0313088 0.00427981 0.0283322 0.00592855 0.035142 0.00738132 0.0338279 0.008938 0.0384625