ITEM: TIMESTEP
19700
ITEM: NUMBER OF ATOMS
10500
ITEM: BOX BOUNDS xy xz yz pp pp pp
0	8.9688	2.9896
0	118.725	0
0	252.977	0
ITEM: ATOMS id type element xu yu zu q Q_1 Q_2 Q_3 Q_4 Q_5 Q_6 Q_7 Q_8 Q_9 Q_10 Q_11 Q_12 Q_13 Q_14 Q_15 Q_16 Q_17 Q_18 Q_19 Q_20 Q_21
1 1 Mg -3.44471 6.97225 57.4276 1.2 1 0.021418 0.0137617 0.00539739 0.00552293 0.00120772 0.00630086 0.00132404 0.0227924 0.00149103 0.00889062 0.00184502 0.0297536 0.00253846 0.0192066 0.00219239 0.0345713 0.00313383 0.0246766 0.00485911 0.0511118
2 1 Mg -1.82655 6.90154 50.0912 1.2 1 0.177781 0.0475803 0.00602565 0.0103888 0.00321171 0.00868978 0.00422487 0.0226503 0.00455006 0.0144533 0.00505653 0.0256652 0.00440744 0.0208624 0.00689282 0.0300253 0.00582785 0.0251628 0.00968403 0.0357651
3 2 Si -0.257935 3.96038 48.0876 2.4 1 0.225736 0.0530749 0.0116832 0.0127926 0.00259081 0.00963915 0.00366402 0.0200673 0.00576396 0.0164944 0.00448318 0.0245342 0.00540893 0.0202999 0.00605852 0.0270557 0.00706858 0.0241168 0.00900211 0.0331107
4 3 O -0.335812 5.46814 47.6264 -1.2 1 0.233062 0.0526694 0.0134681 0.0138605 0.00342713 0.0107413 0.00453019 0.0207977 0.00635386 0.0171977 0.00509562 0.0249793 0.00470792 0.0208778 0.0057236 0.027213 0.00761967 0.0249933 0.00958917 0.0317363
5 3 O -2.03793 3.43377 51.8941 -1.2 1 0.129623 0.0405215 0.0025067 0.00691649 0.00198164 0.00681294 0.00279082 0.0205015 0.0027795 0.0113982 0.00344862 0.0260933 0.00387717 0.0177164 0.00456365 0.0303596 0.00551207 0.0229314 0.00845968 0.039478
6 3 O -1.54015 3.53929 48.9521 -1.2 1 0.204653 0.0518278 0.009099 0.0110034 0.00259025 0.00843229 0.00368548 0.0199083 0.00507738 0.0152186 0.00457337 0.0239814 0.00438336 0.0199219 0.00633713 0.0278259 0.00573142 0.0237066 0.00888989 0.03304
7 1 Mg 1.82954 2.54582 47.1376 1.2 1 0.24592 0.052509 0.0160399 0.015605 0.00288917 0.0110053 0.00352785 0.0200114 0.00548477 0.0155272 0.00487432 0.0243344 0.00594738 0.0195102 0.00752953 0.0253649 0.00647111 0.0232889 0.00865512 0.0309671
8 3 O 1.22989 3.66364 48.7877 -1.2 1 0.205065 0.0499012 0.00918688 0.0118702 0.00189152 0.00939962 0.00381829 0.0199302 0.00427137 0.0147373 0.00374734 0.0241808 0.00491811 0.0194762 0.00656202 0.0274902 0.0046851 0.0234703 0.00924401 0.0342942
9 1 Mg 0.888121 2.33992 54.5258 1.2 1 0.0711415 0.0291629 0.00476721 0.00476411 0.00165208 0.00516816 0.00301019 0.0215171 0.00228523 0.00991338 0.00275319 0.0277408 0.00416197 0.0192368 0.00466601 0.033319 0.00306271 0.0235912 0.00698404 0.0457573
10 2 Si 1.07337 4.92948 56.4729 2.4 1 0.0334909 0.0192689 0.0064455 0.0058043 0.0014145 0.00623611 0.00219716 0.0222822 0.00160088 0.00884926 0.00281382 0.0279257 0.00291533 0.019046 0.00411848 0.0340106 0.00366496 0.0245161 0.00692244 0.0505961
11 3 O 1.06518 3.36653 56.6008 -1.2 1 0.032326 0.0183269 0.00609604 0.00525056 0.00116666 0.00536256 0.00198162 0.0225599 0.00248676 0.00817674 0.00219063 0.0288475 0.00286617 0.0183095 0.00307825 0.0340093 0.00396334 0.0248573 0.00569506 0.0502023
12 3 O 1.10813 6.07342 52.8172 -1.2 1 0.106182 0.0354474 0.00264709 0.00639039 0.0025063 0.00711472 0.00329387 0.0223632 0.00316308 0.0110616 0.00332084 0.0270051 0.00411978 0.0186746 0.00482322 0.0317481 0.00459602 0.024537 0.00764404 0.0418665
13 3 O -0.211214 5.57762 55.8467 -1.2 1 0.0444603 0.0228869 0.00614521 0.00513394 0.00162376 0.00532805 0.00244697 0.0221068 0.00171048 0.00935838 0.00244195 0.0282776 0.00301302 0.0187759 0.00447427 0.0340818 0.00385711 0.0245333 0.0069484 0.0487924
14 3 O 2.31618 5.66552 55.7397 -1.2 1 0.0430963 0.0228267 0.00657749 0.00496276 0.00104413 0.00604152 0.00226531 0.022925 0.00158057 0.00927713 0.00241298 0.028546 0.00323449 0.0191094 0.00437289 0.034603 0.00361537 0.0250523 0.00639941 0.0487952
15 1 Mg -0.459401 4.67631 52.2426 1.2 1 0.125085 0.0404641 0.00235517 0.00690402 0.00249039 0.00668372 0.00250593 0.0213323 0.00303258 0.0122153 0.00324497 0.0267431 0.00415632 0.0187702 0.00451764 0.0307678 0.0045656 0.0233095 0.00787661 0.0389378
16 1 Mg 2.79456 3.9971 49.9987 1.2 1 0.17615 0.0493945 0.00556678 0.00973688 0.00243961 0.00798102 0.00423251 0.0208484 0.00335067 0.0146418 0.00314902 0.025003 0.0045625 0.0198874 0.00651545 0.0288224 0.00469662 0.023972 0.00979345 0.034999
17 2 Si 1.16169 6.59457 51.2556 2.4 1 0.148629 0.0450843 0.00243149 0.00890701 0.00277722 0.00850217 0.0036859 0.0219139 0.00431849 0.0133546 0.00465143 0.0253131 0.00422439 0.0205542 0.00674424 0.0313334 0.00490105 0.0248973 0.0095374 0.038463
18 3 O 1.28989 8.18905 51.2909 -1.2 1 0.146013 0.0435255 0.00251378 0.00917097 0.00283823 0.00906937 0.00361443 0.0223343 0.0039863 0.0130385 0.00407259 0.026995 0.00383933 0.0207625 0.00553807 0.0319696 0.00588201 0.0258224 0.00910767 0.0403197
19 3 O 1.03979 5.67327 57.9256 -1.2 1 0.0159424 0.0113802 0.00420258 0.00585864 0.00123728 0.00649794 0.00155542 0.0228736 0.00150985 0.00819176 0.00248939 0.0293826 0.0022772 0.0190699 0.00354882 0.0345244 0.00318951 0.0247424 0.0050088 0.052079
20 3 O -0.184847 6.06029 50.6845 -1.2 1 0.161796 0.0448803 0.00458404 0.0092109 0.00357739 0.00818712 0.00387639 0.0218239 0.00423709 0.0136897 0.00357343 0.0250934 0.00424904 0.0201203 0.00602505 0.0295151 0.00504048 0.0244801 0.0091508 0.0374571
21 1 Mg -3.49704 4.67769 52.6661 1.2 1 0.114337 0.0374451 0.00210913 0.00606024 0.00236144 0.00704988 0.0027744 0.0208695 0.00319532 0.0112476 0.00355846 0.026672 0.00367606 0.0184157 0.00468243 0.0307053 0.00432684 0.0230923 0.00808206 0.0407796
22 3 O 2.48581 5.93312 50.6539 -1.2 1 0.158033 0.0464328 0.00360534 0.00837356 0.00166395 0.0086485 0.00380387 0.0219127 0.00399833 0.0138884 0.00431826 0.0249888 0.00447322 0.0206078 0.00658829 0.0306152 0.00445043 0.0247593 0.00935413 0.0370041
23 1 Mg -1.9193 4.6798 55.2336 1.2 1 0.0518755 0.025347 0.00652923 0.00518832 0.00168385 0.00573297 0.00211102 0.0219946 0.00250823 0.00928833 0.00280959 0.0283879 0.00273455 0.018879 0.00445781 0.0341059 0.00434954 0.0243612 0.00717335 0.0472303
24 2 Si -2.01645 2.62892 53.3156 2.4 1 0.0993085 0.035073 0.00317128 0.00575382 0.00232382 0.00562221 0.00207063 0.0212433 0.00305147 0.0109198 0.00315918 0.0263422 0.00319155 0.0184332 0.00419701 0.031442 0.00408273 0.0231983 0.00744452 0.0431244
25 3 O -2.05838 1.0502 53.1027 -1.2 1 0.101516 0.0350534 0.0026642 0.00586109 0.00270322 0.00555425 0.00224097 0.0209371 0.00283225 0.0104337 0.0030587 0.0271791 0.00348416 0.0185858 0.00495294 0.0315722 0.00396853 0.0230305 0.00758375 0.0429624
26 3 O -0.0467762 2.97103 46.8385 -1.2 1 0.252722 0.0532614 0.016676 0.0151856 0.00299907 0.00984592 0.00370268 0.0198847 0.00635957 0.0165394 0.00594309 0.0240367 0.00700179 0.0191097 0.0081393 0.0254511 0.00666564 0.02344 0.0097775 0.0324378
27 3 O -3.28845 3.30541 54.0546 -1.2 1 0.0815564 0.0316223 0.00422874 0.00486891 0.00201705 0.00570583 0.00198864 0.021592 0.00247852 0.0105476 0.00251962 0.0266097 0.0029725 0.0186379 0.00348957 0.0322023 0.00429968 0.023486 0.00724499 0.0440526
28 3 O -0.774358 3.21763 54.0712 -1.2 1 0.0811246 0.031564 0.00438505 0.00512255 0.00199176 0.00577322 0.00187979 0.0213401 0.00247874 0.0105259 0.00221799 0.026999 0.00357338 0.0192134 0.00399065 0.0325529 0.00355936 0.0237617 0.00741084 0.0443477
29 1 Mg -3.30306 11.7588 57.476 1.2 1 0.0216587 0.0131286 0.00495475 0.00550568 0.00142945 0.00659639 0.00135816 0.0228557 0.00191259 0.00942517 0.00208153 0.0297556 0.00236859 0.0202288 0.00223904 0.0340725 0.00351089 0.0259327 0.0051763 0.0523089
30 1 Mg -1.75014 11.5838 49.8362 1.2 1 0.185137 0.0471938 0.00710273 0.0126428 0.00443298 0.0128842 0.0045494 0.0241041 0.00522413 0.0160925 0.00560509 0.0284583 0.00394849 0.0242198 0.0076642 0.033519 0.00710899 0.0286539 0.0110636 0.0394883
31 2 Si -1.18003 9.02138 47.9309 2.4 1 0.241055 0.05197 0.0150128 0.0159179 0.00534832 0.0133206 0.00749662 0.0231086 0.00794547 0.0171543 0.00723732 0.0260425 0.00478694 0.0230257 0.0073635 0.0305124 0.00918613 0.0278682 0.0126315 0.0348492
32 3 O -1.23224 10.5991 47.9811 -1.2 1 0.229035 0.0524019 0.0128033 0.0158666 0.00540617 0.0143257 0.00618776 0.0240758 0.00779824 0.0175147 0.00727104 0.0276221 0.00500125 0.0240992 0.00872837 0.0329567 0.00927588 0.0298218 0.0116069 0.0356431
33 3 O -1.79016 8.01447 51.8693 -1.2 1 0.133801 0.0406052 0.0022166 0.00859814 0.00353358 0.0076014 0.00275337 0.0222745 0.00334909 0.0124028 0.00393126 0.0272684 0.00387652 0.0202071 0.00515301 0.032259 0.00577491 0.0247775 0.00947701 0.0408397
34 3 O -2.30986 8.37215 48.8528 -1.2 1 0.2064 0.0521387 0.00907753 0.0125043 0.00427403 0.010604 0.00609863 0.0232209 0.00609168 0.0170855 0.00542027 0.0260101 0.00436068 0.0230653 0.00684717 0.0315681 0.00711133 0.0270375 0.0105198 0.0351979
35 1 Mg 0.154883 7.08234 46.8007 1.2 1 0.258146 0.0526027 0.017919 0.0162693 0.00582035 0.0135724 0.00822375 0.0233503 0.00793034 0.0173803 0.00707777 0.0248947 0.00681265 0.0216081 0.00858961 0.0288232 0.00981958 0.0274209 0.013202 0.0320956
36 3 O 0.325447 8.50934 48.3809 -1.2 1 0.219761 0.0531308 0.0109563 0.0143991 0.00415681 0.012312 0.00617726 0.0238933 0.00658367 0.0171338 0.00630889 0.0255942 0.00491989 0.0240328 0.00646553 0.0304696 0.00760575 0.0280097 0.0112226 0.0347538
37 1 Mg 1.18388 7.0457 54.6327 1.2 1 0.0683944 0.0289767 0.00481599 0.00513532 0.00179967 0.00595521 0.00229915 0.0221108 0.00252552 0.0101829 0.00291594 0.0277965 0.00375709 0.0198097 0.00378987 0.0338882 0.00385071 0.0242456 0.00717037 0.0461198
38 2 Si 1.17718 9.76306 56.502 2.4 1 0.0327786 0.018027 0.00621472 0.00617962 0.00156716 0.00664298 0.00217242 0.0223956 0.00187783 0.00872379 0.00309793 0.0283807 0.0024788 0.0202032 0.00410259 0.0340954 0.00411441 0.0250518 0.00696544 0.0519561
39 3 O 1.0971 8.20504 56.5754 -1.2 1 0.0307049 0.0173298 0.00603978 0.0055918 0.00119053 0.00639519 0.00148503 0.0226402 0.00243238 0.00803021 0.00206595 0.028795 0.00302034 0.018801 0.00311019 0.0343244 0.00424481 0.025205 0.00601371 0.0512819
40 3 O 1.28624 10.7248 52.7351 -1.2 1 0.110943 0.0362507 0.00227418 0.00747831 0.00229837 0.00966016 0.00272697 0.0231801 0.00283649 0.0121275 0.00382787 0.0280092 0.00423195 0.0216899 0.00532715 0.0333757 0.00409794 0.0268054 0.00812319 0.0447561
41 3 O -0.0763317 10.4831 55.8675 -1.2 1 0.0477135 0.0229575 0.00544503 0.00583079 0.00133197 0.00681515 0.002001 0.0229426 0.00155524 0.00982734 0.00256415 0.0281474 0.00282387 0.0206717 0.00405519 0.0345744 0.00342409 0.0260584 0.00656951 0.0504462
42 3 O 2.48876 10.3705 55.7768 -1.2 1 0.0436459 0.0222296 0.00637429 0.00579275 0.00123234 0.00648286 0.00220006 0.0226974 0.00155834 0.00945932 0.00278063 0.0282874 0.00279928 0.0204943 0.00377496 0.0350058 0.00301218 0.0260426 0.00658534 0.0506506
43 1 Mg -0.262694 9.34741 52.2523 1.2 1 0.11481 0.0398851 0.0029829 0.00795245 0.00317707 0.00812709 0.00243608 0.0231912 0.00314094 0.0121432 0.00371868 0.02805 0.00400689 0.0211496 0.00553589 0.0328912 0.00463066 0.0262244 0.00890469 0.0424108
44 1 Mg 1.87648 9.01537 49.4629 1.2 1 0.186171 0.0519296 0.0054336 0.0114582 0.00315624 0.0110033 0.00589679 0.0232297 0.00524652 0.0162708 0.00559695 0.0268023 0.00463424 0.0234187 0.00692013 0.0320223 0.00582618 0.0277654 0.010951 0.0368585
45 2 Si 1.21415 11.3799 51.2378 2.4 1 0.150253 0.0456448 0.00203458 0.0105035 0.00299432 0.011241 0.00353711 0.0238266 0.00406994 0.0146893 0.0051624 0.0270724 0.00418079 0.0240706 0.00662953 0.0336946 0.00484337 0.028643 0.0102688 0.0422773
46 3 O 1.31634 12.9512 51.3023 -1.2 1 0.147522 0.0428931 0.00262093 0.00991519 0.00244675 0.0118079 0.00323373 0.0240235 0.00408821 0.0147734 0.00398657 0.0286725 0.00413265 0.0246827 0.00536534 0.0342287 0.00512524 0.0291741 0.00890018 0.0432702
47 3 O 1.17757 10.3988 57.9668 -1.2 1 0.0164615 0.0104241 0.00399801 0.00589278 0.00138568 0.00701667 0.00131601 0.0230663 0.00190489 0.00820825 0.00277991 0.0289072 0.00244102 0.0198254 0.00316829 0.034512 0.00300694 0.0255124 0.00518379 0.0532688
48 3 O -0.115718 10.7564 50.681 -1.2 1 0.156827 0.045191 0.00358388 0.01092 0.00378794 0.0109813 0.00368994 0.0238102 0.00393405 0.0142038 0.00422831 0.0274155 0.00439257 0.0233386 0.00702893 0.0329578 0.00551445 0.0276745 0.0108008 0.0413896
49 1 Mg -3.26386 9.35564 52.3622 1.2 1 0.123515 0.0391157 0.00167503 0.00759222 0.00247089 0.00946682 0.0033974 0.0226852 0.00339691 0.012478 0.00431068 0.027599 0.00363345 0.0210498 0.00549616 0.0331771 0.00436954 0.0258488 0.0089274 0.041361
50 3 O 2.45216 10.7265 50.4558 -1.2 1 0.164278 0.0475565 0.00362322 0.0103009 0.00277051 0.0116818 0.00436318 0.023239 0.00455772 0.0158953 0.00480214 0.0272523 0.0038135 0.0242604 0.00704762 0.0333165 0.00553497 0.0280899 0.0102538 0.0401804
51 1 Mg -1.84471 9.40083 55.1406 1.2 1 0.0538438 0.0261042 0.00610271 0.00582809 0.00197334 0.00650686 0.0022506 0.0224593 0.002531 0.00949264 0.0031248 0.0283205 0.00277823 0.0202924 0.00392446 0.0343813 0.00436393 0.0254475 0.0074902 0.048676
52 2 Si -1.74399 7.34952 53.3454 2.4 1 0.0942837 0.0352664 0.00380365 0.00638768 0.00311462 0.00658226 0.00223335 0.0218343 0.0032212 0.0110904 0.00305197 0.0274786 0.00339646 0.0201689 0.00340515 0.0326369 0.0049347 0.0239913 0.00744971 0.0439912
53 3 O -1.91147 5.80073 53.3466 -1.2 1 0.0971169 0.0334491 0.00283884 0.00577005 0.00263004 0.00648903 0.00199659 0.0211621 0.00344984 0.0103219 0.00334963 0.0267451 0.00301603 0.0186005 0.00450476 0.0324448 0.00403418 0.0236595 0.00797033 0.0430401
54 3 O -1.19417 8.46968 46.4488 -1.2 1 0.270321 0.0528625 0.0203569 0.0180732 0.00574994 0.0146699 0.00859774 0.0244921 0.00828962 0.0175424 0.00764528 0.0254458 0.00601882 0.0214878 0.00922185 0.0303619 0.0105203 0.02924 0.0123442 0.031879
55 3 O -3.04399 8.02888 54.0285 -1.2 1 0.0828506 0.0306054 0.00355225 0.00539007 0.00232786 0.0071016 0.00212425 0.0220865 0.00275655 0.0107607 0.00268566 0.0270153 0.00296648 0.0197966 0.00393966 0.0335584 0.0047416 0.0246716 0.00759587 0.044829
56 3 O -0.499745 8.04038 54.0684 -1.2 1 0.0756679 0.0304342 0.00472092 0.00539638 0.00248796 0.00597742 0.00161859 0.0224336 0.00216292 0.0105261 0.00248201 0.0269271 0.00291603 0.0200494 0.00398446 0.0337057 0.00436498 0.0254217 0.00754485 0.0457615
57 1 Mg -3.22293 16.5239 57.4422 1.2 1 0.0210916 0.0127015 0.00480586 0.00561679 0.00124945 0.00632803 0.00151977 0.0233956 0.00161019 0.00933652 0.00221413 0.0293344 0.00200286 0.0212236 0.00256638 0.0346309 0.00290732 0.0266261 0.00511234 0.0532733
58 1 Mg -1.6714 16.3544 49.8412 1.2 1 0.181664 0.0468259 0.00640852 0.0128884 0.00361477 0.0152569 0.00328644 0.0258809 0.00461249 0.0173999 0.00516865 0.0308851 0.00384185 0.0264509 0.00734878 0.0353312 0.00593799 0.0313299 0.0099054 0.0420598
59 2 Si -1.18567 13.8526 47.9314 2.4 1 0.232125 0.0522024 0.0142602 0.0167539 0.00494982 0.0180125 0.00485348 0.0268913 0.00833328 0.0195418 0.00652262 0.0305964 0.00540448 0.0284363 0.00692513 0.0350672 0.00992679 0.0325961 0.0119936 0.0390471
60 3 O -1.09664 15.4205 47.9915 -1.2 1 0.232752 0.0516323 0.0140936 0.0173215 0.00521488 0.0194619 0.00440065 0.0272795 0.00767574 0.0199875 0.006652 0.0309898 0.00582868 0.0280284 0.00851137 0.0358775 0.00907453 0.0338203 0.0116457 0.0397302
61 3 O -1.73493 12.7491 51.7772 -1.2 1 0.136167 0.0405216 0.00252793 0.0098757 0.00349039 0.0102939 0.00160117 0.0241558 0.00343893 0.0139089 0.0031515 0.028798 0.00438703 0.0236489 0.00534645 0.0340023 0.00508794 0.0279197 0.00893646 0.0443649
62 3 O -2.36115 13.2717 48.8238 -1.2 1 0.208311 0.0523172 0.00952836 0.0146607 0.00489562 0.0146233 0.00474093 0.0264172 0.00625786 0.0193825 0.0054296 0.0299272 0.00469828 0.0271099 0.00664824 0.0351982 0.0080411 0.0316981 0.01124 0.039062
63 1 Mg -0.159928 11.7639 46.8533 1.2 1 0.259947 0.0530278 0.0181904 0.0190856 0.00646339 0.0199882 0.00715137 0.0279039 0.00926958 0.0196285 0.00830954 0.0300392 0.00629823 0.0273287 0.00871851 0.0339664 0.011077 0.0333092 0.0140556 0.0360866
64 3 O 0.2623 13.1866 48.413 -1.2 1 0.215798 0.0521454 0.0109825 0.0154505 0.00440747 0.0162619 0.00446843 0.0265059 0.00719514 0.0186214 0.00562713 0.0293523 0.00487941 0.0281066 0.00586546 0.0341862 0.00846684 0.0328295 0.0112813 0.0393275
65 1 Mg 1.34021 11.8514 54.5914 1.2 1 0.0737482 0.0299609 0.00418491 0.00599814 0.00181611 0.00739619 0.00218885 0.0226924 0.00236567 0.010955 0.0024749 0.028409 0.00360896 0.0223288 0.00369829 0.0348469 0.00364931 0.0263323 0.00653991 0.0480639
66 2 Si 1.21224 14.434 56.3854 2.4 1 0.0329562 0.0181251 0.00589429 0.00627542 0.00152305 0.00664563 0.00181871 0.0228818 0.00207297 0.00892333 0.0034654 0.0282844 0.00213838 0.0215971 0.00431272 0.0347774 0.00389156 0.0266372 0.00644245 0.0539122
67 3 O 1.22781 12.9277 56.531 -1.2 1 0.0300969 0.0164447 0.00575807 0.00600283 0.00144277 0.00642502 0.00173736 0.0229339 0.00300544 0.00850961 0.00228783 0.0285915 0.00266055 0.0205307 0.00298772 0.03467 0.00391243 0.0264677 0.00591062 0.0534121
68 3 O 1.36565 15.4813 52.729 -1.2 1 0.112949 0.0363775 0.00117957 0.00813274 0.00208644 0.0110041 0.00318488 0.0243912 0.00273306 0.0135719 0.00360979 0.0291438 0.0037742 0.0236364 0.00541878 0.034401 0.00376688 0.0289413 0.00730633 0.0466168
69 3 O -0.0469809 15.1744 55.7333 -1.2 1 0.0494215 0.0229571 0.00506447 0.00603703 0.0012487 0.00687762 0.00233944 0.0235976 0.00177819 0.0104008 0.00267783 0.0281767 0.0024987 0.0221833 0.00436989 0.0353922 0.0032689 0.0274096 0.00603182 0.0519147
70 3 O 2.51954 15.1236 55.7713 -1.2 1 0.0427247 0.0215805 0.00609156 0.00582846 0.00152953 0.00620028 0.00263071 0.0231426 0.00184433 0.00949827 0.00326245 0.0279297 0.00239977 0.0219281 0.00428776 0.0358191 0.00267609 0.0273049 0.00640296 0.0525953
71 1 Mg -0.206989 14.1049 52.2121 1.2 1 0.118405 0.040194 0.00195056 0.00873776 0.0028507 0.00939558 0.00222904 0.0246086 0.00302852 0.0136935 0.00361257 0.0293051 0.00367636 0.0239042 0.00509479 0.0343734 0.00344866 0.0286975 0.00789785 0.04471
72 1 Mg 1.82591 13.8102 49.4556 1.2 1 0.185068 0.0512437 0.00556402 0.0123778 0.0030936 0.0137451 0.0043845 0.02494 0.00489289 0.0180956 0.0049161 0.0293393 0.00475094 0.0268414 0.00640101 0.0355644 0.00640057 0.0312544 0.0107038 0.0404111
73 2 Si 1.29285 16.1518 51.2434 2.4 1 0.148594 0.0452074 0.00164961 0.0107019 0.0026612 0.0128818 0.00367481 0.0252329 0.00416976 0.0159823 0.00499503 0.0288254 0.0035919 0.0258573 0.00627118 0.0348077 0.00427881 0.0311314 0.00946353 0.0445395
74 3 O 1.39496 17.7199 51.3047 -1.2 1 0.142218 0.0416566 0.00181934 0.00981814 0.00201048 0.0125302 0.00328407 0.0252482 0.00374771 0.0151172 0.00368602 0.0299529 0.00351889 0.0247592 0.00558445 0.0350947 0.00473092 0.0302142 0.00813773 0.0445653
75 3 O 1.20345 15.1528 57.9089 -1.2 1 0.0157779 0.0102088 0.00390597 0.00606764 0.00116466 0.00681138 0.0016256 0.0233875 0.0017429 0.00826739 0.00303133 0.0285645 0.00236458 0.0208455 0.0027344 0.0345439 0.00298582 0.0266689 0.00500219 0.0545811
76 3 O -0.0269106 15.5178 50.6688 -1.2 1 0.158542 0.0451352 0.00382418 0.0114852 0.00369181 0.013096 0.00351735 0.025376 0.00376873 0.015731 0.00326868 0.0293834 0.0038324 0.0260233 0.00624614 0.0345687 0.00393945 0.030592 0.00922598 0.0435693
77 1 Mg -3.18391 14.1057 52.3125 1.2 1 0.125592 0.0400767 0.00131831 0.00869666 0.00207274 0.0109725 0.00259612 0.0241339 0.00311402 0.0143634 0.00318589 0.0290365 0.00360239 0.0243878 0.00498243 0.0342671 0.00390157 0.0286305 0.00756731 0.0442979
78 3 O 2.52432 15.503 50.4579 -1.2 1 0.162709 0.0471853 0.00376628 0.0107793 0.00250228 0.0135801 0.00382638 0.0256932 0.00434577 0.0176858 0.00399039 0.0294165 0.00382868 0.0268144 0.00637596 0.0349707 0.00526439 0.0307808 0.00896611 0.0428737
79 1 Mg -1.73862 14.2061 55.0936 1.2 1 0.0564266 0.0261858 0.00528954 0.0063847 0.00181749 0.00660062 0.00217211 0.0235648 0.00278564 0.0103138 0.0031126 0.028678 0.00228496 0.0223486 0.00389167 0.035083 0.00410193 0.0274619 0.00643717 0.0507889
80 2 Si -1.68794 12.0525 53.3114 2.4 1 0.0986169 0.0358073 0.0033852 0.00766499 0.00302 0.00791111 0.00146899 0.0237288 0.0033353 0.0123499 0.0025787 0.0279513 0.0037521 0.02321 0.0036862 0.0343533 0.00448208 0.0269551 0.00720526 0.046932
81 3 O -1.72776 10.5403 53.1793 -1.2 1 0.0994541 0.035114 0.00345013 0.00702963 0.00311482 0.00798089 0.00162848 0.0227204 0.00290607 0.0110911 0.00320964 0.0275972 0.00354534 0.0211942 0.00460919 0.0339688 0.0043819 0.0260955 0.00877944 0.0457066
82 3 O -1.21337 13.3381 46.4311 -1.2 1 0.271511 0.052255 0.0204575 0.0206775 0.0069459 0.0210396 0.00690472 0.029708 0.00935154 0.0207584 0.00728675 0.0312844 0.00581976 0.0268672 0.00919214 0.0361616 0.0128221 0.0353368 0.0139176 0.0364427
83 3 O -2.91732 12.7973 53.9878 -1.2 1 0.0847447 0.0319457 0.00315877 0.00634145 0.00174475 0.00828367 0.00174234 0.0233864 0.0022134 0.0118931 0.00252792 0.0281465 0.00313392 0.0229911 0.00411387 0.0350502 0.00320551 0.0270273 0.00675007 0.0477254
84 3 O -0.352199 12.7841 53.901 -1.2 1 0.081879 0.0316512 0.00359466 0.00650056 0.00290263 0.00651014 0.00159205 0.0237729 0.00237622 0.0115368 0.00249988 0.0278152 0.00313898 0.0230698 0.00398602 0.0350552 0.00369947 0.0273475 0.00631441 0.0481873
85 1 Mg -3.10983 21.2418 57.4712 1.2 1 0.0204103 0.0125372 0.00445856 0.00591368 0.00136629 0.00620378 0.00118518 0.0240236 0.00163167 0.00944669 0.00167072 0.0298643 0.00196229 0.0207993 0.00243124 0.0344226 0.00301358 0.0257484 0.0042065 0.0528513
86 1 Mg -1.5831 21.1217 49.8405 1.2 1 0.181583 0.0474096 0.00658136 0.0127812 0.00325988 0.0155748 0.00310017 0.0263779 0.00432846 0.0171832 0.00468534 0.031134 0.00387927 0.0257695 0.00691696 0.0357597 0.00604877 0.0316996 0.00986477 0.0416005
87 2 Si -1.09384 18.6291 47.9287 2.4 1 0.231496 0.0521681 0.013494 0.0172463 0.00408434 0.0203965 0.00398462 0.0278591 0.00705479 0.0200406 0.00564625 0.0319189 0.00607376 0.0286916 0.00640156 0.0361084 0.00963744 0.0342446 0.0112627 0.0412601
88 3 O -1.02071 20.1985 47.9911 -1.2 1 0.232453 0.0519367 0.0137444 0.0174788 0.00452264 0.0209767 0.00407357 0.02782 0.00685271 0.0199961 0.00604727 0.031724 0.00609541 0.0278166 0.00818424 0.0365531 0.00858923 0.0344379 0.0109728 0.0409609
89 3 O -1.65002 17.5002 51.771 -1.2 1 0.135386 0.0401355 0.00201247 0.0100856 0.00302295 0.0116856 0.0017422 0.0250243 0.00299457 0.0144255 0.00268699 0.0295351 0.00416311 0.0243347 0.00474273 0.0348448 0.00506259 0.0291525 0.00783009 0.045068
90 3 O -2.26174 18.0434 48.8281 -1.2 1 0.205558 0.0517533 0.00901235 0.0147469 0.00390062 0.0171559 0.0040807 0.0274197 0.00535835 0.0195547 0.00471308 0.0312279 0.00460867 0.0277642 0.00670566 0.0361647 0.00724706 0.033585 0.0102391 0.0409632
91 1 Mg -0.0440435 16.5651 46.8269 1.2 1 0.260155 0.0530928 0.0177231 0.0201094 0.00521316 0.0243055 0.00535506 0.0308334 0.0091203 0.0221436 0.00700509 0.0333529 0.00711472 0.0293965 0.00909264 0.0359911 0.0103561 0.0367333 0.0132806 0.040386
92 3 O 0.37001 17.9877 48.3925 -1.2 1 0.215156 0.0519539 0.0101272 0.0158491 0.00389401 0.018109 0.00342239 0.0279436 0.0059632 0.0196019 0.00407981 0.0311657 0.00519696 0.0288557 0.00606653 0.0355879 0.0077954 0.0348431 0.0105458 0.0420302
93 1 Mg 1.35129 16.4332 54.6141 1.2 1 0.0731444 0.029259 0.00396447 0.00623476 0.00148902 0.00772392 0.0026388 0.0234036 0.00209992 0.0117256 0.00222651 0.0289082 0.00340434 0.0233118 0.00427217 0.0355982 0.00365239 0.0271366 0.00607794 0.0491411
94 2 Si 1.34365 19.1078 56.3588 2.4 1 0.0348044 0.019019 0.00581814 0.00633442 0.00127068 0.0066835 0.00206281 0.0233974 0.00181881 0.00922948 0.003333 0.0278464 0.00232702 0.0216852 0.00385449 0.035273 0.00346335 0.0266783 0.00605411 0.0534913
95 3 O 1.25033 17.5875 56.4759 -1.2 1 0.0309229 0.016701 0.00560421 0.00621106 0.00139079 0.0062261 0.0020451 0.0234572 0.00266166 0.00852445 0.00229074 0.028626 0.00235198 0.0206936 0.00299513 0.035321 0.00399236 0.0268754 0.00573286 0.0535095
96 3 O 1.45147 20.239 52.7294 -1.2 1 0.109938 0.0358689 0.00139788 0.00774163 0.00169781 0.011357 0.00316265 0.0247792 0.00247385 0.0132346 0.00319258 0.0293438 0.00372859 0.0231287 0.0047062 0.0345428 0.00403713 0.0288426 0.0070592 0.0462528
97 3 O 0.110686 19.7996 55.61 -1.2 1 0.0514586 0.0238088 0.00481305 0.00613173 0.00118741 0.00668485 0.00194062 0.0235218 0.00172327 0.0103331 0.00230299 0.0284313 0.00259993 0.022031 0.00385112 0.0353761 0.00345472 0.0268506 0.00528877 0.051176
98 3 O 2.61958 19.8216 55.6803 -1.2 1 0.0429164 0.0219138 0.00602019 0.00614812 0.00156527 0.00667024 0.00252763 0.0236146 0.00183179 0.00953289 0.00244214 0.0282032 0.00272535 0.0214433 0.00402347 0.0354491 0.00335312 0.0272855 0.0062134 0.0521018
99 1 Mg -0.126194 18.8651 52.2079 1.2 1 0.116658 0.0397987 0.00205627 0.00891638 0.00233067 0.00996363 0.00259264 0.0248291 0.00236288 0.0138476 0.00289236 0.0296521 0.00348556 0.023929 0.00471844 0.0350698 0.00361314 0.0292304 0.00770994 0.0452282
100 1 Mg 1.92402 18.5815 49.4545 1.2 1 0.184405 0.0514768 0.00472659 0.0123775 0.00212783 0.0151007 0.00426964 0.0264694 0.00443915 0.018478 0.00412776 0.0306289 0.00471054 0.0271999 0.00552083 0.0362546 0.00651811 0.0330148 0.00989257 0.0423102
101 2 Si 1.38106 20.9117 51.2443 2.4 1 0.146938 0.0452735 0.0017351 0.0107788 0.00234864 0.0131089 0.00381923 0.0255799 0.00349412 0.0156185 0.00434098 0.0292164 0.00387171 0.025128 0.00583587 0.0347677 0.00421417 0.0311554 0.00911904 0.0441766
102 3 O 1.48527 22.4795 51.3054 -1.2 1 0.141101 0.0418282 0.00206654 0.00956392 0.00179843 0.0126281 0.00304085 0.025297 0.0036643 0.0147003 0.00310773 0.0298418 0.00370838 0.023947 0.00465096 0.0350375 0.00507541 0.0301963 0.00797465 0.0441029
103 3 O 1.219 19.7845 57.8113 -1.2 1 0.015882 0.0100991 0.00358184 0.00616917 0.00143095 0.00638273 0.00174594 0.0239438 0.00175483 0.00876932 0.00256569 0.0289692 0.00264779 0.0210525 0.00360466 0.0345498 0.00292423 0.0258833 0.00440603 0.0542079
104 3 O 0.0615419 20.2804 50.6669 -1.2 1 0.15834 0.0454712 0.00358657 0.0113309 0.00337266 0.0136093 0.00400278 0.0256814 0.00337126 0.0157772 0.00298388 0.0294411 0.00417905 0.0260246 0.00569731 0.0349901 0.00435794 0.0312258 0.00897688 0.0439244
105 1 Mg -3.09665 18.8643 52.3122 1.2 1 0.12317 0.0392756 0.00111338 0.00873785 0.0016487 0.0116338 0.00251168 0.0245301 0.00262276 0.014307 0.00261079 0.0298164 0.00350886 0.024143 0.00381721 0.0348151 0.00444266 0.0289879 0.00673357 0.0444104
106 3 O 2.61548 20.2646 50.4626 -1.2 1 0.159617 0.046869 0.00319061 0.0106609 0.0017644 0.0139542 0.00373996 0.0255556 0.00340432 0.0167819 0.00363614 0.0294817 0.00371175 0.0257512 0.00607819 0.0354771 0.00462826 0.0311165 0.00897566 0.0430672
107 1 Mg -1.63195 18.9575 55.0104 1.2 1 0.0572936 0.0266011 0.00512367 0.0066148 0.0016032 0.00659462 0.0023159 0.0238925 0.00226359 0.010763 0.00345465 0.0288544 0.00231461 0.0225678 0.00408162 0.0351045 0.00422602 0.02727 0.0064843 0.050238
108 2 Si -1.60402 16.8806 53.2174 2.4 1 0.100738 0.0353689 0.00236979 0.00812145 0.00232281 0.00861939 0.00172733 0.0242986 0.00318249 0.0128357 0.00259819 0.0285381 0.00335017 0.0241783 0.00333786 0.034932 0.0048091 0.0281886 0.00663116 0.04808
109 3 O -1.74447 15.3306 53.1531 -1.2 1 0.0975917 0.0343344 0.00274949 0.00746719 0.00254465 0.0086274 0.00151847 0.0238293 0.00286454 0.0121507 0.00250383 0.0286464 0.00292039 0.0230531 0.0048466 0.0349889 0.00372432 0.0281145 0.00746389 0.0477645
110 3 O -1.12868 18.1227 46.4249 -1.2 1 0.270081 0.0526855 0.0193006 0.021114 0.0058552 0.0243458 0.00546871 0.0314777 0.00754414 0.0218008 0.00595849 0.033748 0.00686687 0.027212 0.00912299 0.0378353 0.0120047 0.0375919 0.0134182 0.0401949
111 3 O -2.89315 17.5134 53.928 -1.2 1 0.0840288 0.0313475 0.0030759 0.0063834 0.00154177 0.00861873 0.00181518 0.0240311 0.00206548 0.012076 0.00205003 0.0283645 0.00269028 0.0233962 0.00311741 0.035204 0.0037099 0.0277103 0.00632589 0.0483406
112 3 O -0.363699 17.5618 53.8645 -1.2 1 0.0827271 0.0310649 0.00335506 0.00661593 0.00250982 0.00717944 0.00127082 0.024239 0.00232382 0.0118583 0.0024173 0.0284017 0.00260871 0.0236346 0.00366171 0.0351622 0.00387667 0.0280173 0.00625702 0.0483238
113 1 Mg -2.96447 26.0184 57.2736 1.2 1 0.0207601 0.0133203 0.00462656 0.00618566 0.00105471 0.00618894 0.00119777 0.024329 0.00185807 0.00924462 0.001539 0.0299636 0.00153402 0.0201829 0.00193229 0.034572 0.00263673 0.0254842 0.00370388 0.0521872
114 1 Mg -1.48778 25.88 49.8402 1.2 1 0.180677 0.0482337 0.00662703 0.012882 0.00309822 0.0159665 0.00297302 0.0263744 0.00426033 0.0170721 0.00469419 0.0314974 0.00366896 0.0253976 0.00679436 0.0354096 0.00555468 0.0315791 0.00957751 0.0408215
115 2 Si -1.00491 23.3922 47.9274 2.4 1 0.234598 0.052939 0.0143457 0.0177106 0.00418765 0.0216666 0.00415573 0.0281162 0.00698995 0.0198628 0.00536294 0.0322396 0.00602335 0.0279072 0.00685963 0.036137 0.00919623 0.0342056 0.0112558 0.0406178
116 3 O -0.927602 24.9615 47.9909 -1.2 1 0.231998 0.0526348 0.0141294 0.0176007 0.00408182 0.0213019 0.0041642 0.0280826 0.00687431 0.0197268 0.00570794 0.0319352 0.00594474 0.0274187 0.00812581 0.0364058 0.0084656 0.034582 0.0105958 0.040399
117 3 O -1.55795 22.2588 51.7696 -1.2 1 0.134306 0.040366 0.0020617 0.00998577 0.00275118 0.0118473 0.00184524 0.025107 0.00280309 0.0140815 0.00275219 0.0297952 0.00414764 0.023575 0.00428493 0.034762 0.00513797 0.0290869 0.0079167 0.0442962
118 3 O -2.17411 22.8111 48.8277 -1.2 1 0.204095 0.0517593 0.00903013 0.0147948 0.00353093 0.0177347 0.00385976 0.0277161 0.00460159 0.019134 0.00435728 0.0315638 0.00465691 0.0268093 0.0063373 0.036156 0.0069446 0.0335538 0.00974819 0.0405268
119 1 Mg 0.0423997 21.3296 46.8225 1.2 1 0.256243 0.0528151 0.0172894 0.019989 0.00519079 0.0251985 0.00514937 0.0310919 0.0075844 0.0218318 0.00624578 0.0337484 0.00665196 0.0286024 0.00823422 0.0360277 0.00970232 0.0369042 0.0122561 0.0403851
120 3 O 0.458537 22.7495 48.3911 -1.2 1 0.215033 0.052253 0.0103798 0.0160358 0.00394763 0.0188389 0.00344783 0.0277708 0.00549443 0.0193025 0.00375754 0.0313405 0.0054498 0.028169 0.00625368 0.0355767 0.00748424 0.0349903 0.0104557 0.0415355
121 1 Mg 1.40207 21.3075 54.5153 1.2 1 0.0720937 0.0290157 0.00399275 0.00609924 0.00157407 0.00784322 0.00267647 0.02367 0.00204843 0.0115365 0.00211887 0.0289572 0.00345751 0.0228601 0.00391793 0.0354899 0.00356314 0.026863 0.00581791 0.048702