ITEM: TIMESTEP
54600
ITEM: NUMBER OF ATOMS
10500
ITEM: BOX BOUNDS xy xz yz pp pp pp
0	8.9688	2.9896
0	118.725	0
0	252.977	0
ITEM: ATOMS id type element xu yu zu q Q_1 Q_2 Q_3 Q_4 Q_5 Q_6 Q_7 Q_8 Q_9 Q_10 Q_11 Q_12 Q_13 Q_14 Q_15 Q_16 Q_17 Q_18 Q_19 Q_20 Q_21
1 1 Mg -3.55574 7.16154 57.7944 1.2 1 0.0192645 0.0132028 0.00427481 0.00560163 0.00189167 0.00713383 0.00141692 0.0198807 0.00190975 0.00906018 0.0017002 0.0266333 0.00303893 0.0181364 0.00252177 0.0315545 0.00330356 0.0255631 0.00403499 0.0422166
2 1 Mg -1.82655 6.90154 50.0912 1.2 1 0.173224 0.0462655 0.00580746 0.0095658 0.00310197 0.00901003 0.00408615 0.0219608 0.00382361 0.0144845 0.00432094 0.0253795 0.00466808 0.0204044 0.00692094 0.0302262 0.0059139 0.0265008 0.00847534 0.0342746
3 2 Si -0.257935 3.96038 48.0876 2.4 1 0.226665 0.0529045 0.0116859 0.012428 0.00264229 0.00954158 0.00342222 0.0201843 0.00544899 0.0169473 0.00427687 0.0242907 0.00494065 0.0201855 0.00589747 0.0269539 0.00703603 0.0249144 0.00843244 0.0321999
4 3 O -0.335812 5.46814 47.6264 -1.2 1 0.232297 0.0520095 0.0132939 0.0132854 0.0035141 0.0107318 0.00430294 0.0208509 0.00577403 0.0176765 0.00470387 0.024687 0.00421593 0.0206441 0.00565001 0.02744 0.00725261 0.0259507 0.00948668 0.0307921
5 3 O -2.03793 3.43377 51.8941 -1.2 1 0.130085 0.0397558 0.00216105 0.00640625 0.00205099 0.00699106 0.00230611 0.0196513 0.00252369 0.0114726 0.00298787 0.0245699 0.00340808 0.0177086 0.00445287 0.0299699 0.00521244 0.0242614 0.00710259 0.0371124
6 3 O -1.54015 3.53929 48.9521 -1.2 1 0.199746 0.0500792 0.00818026 0.0105166 0.00256439 0.00849523 0.00317141 0.0199598 0.00461377 0.0147009 0.00420239 0.023615 0.00391038 0.0189553 0.00609 0.0284582 0.00570075 0.0245804 0.0082811 0.032661
7 1 Mg 1.82954 2.54582 47.1376 1.2 1 0.246796 0.0530099 0.0163248 0.0153556 0.00319503 0.0113817 0.00367906 0.0201302 0.00545033 0.0155868 0.00455554 0.0240697 0.00587737 0.0192119 0.00814191 0.0255118 0.00651758 0.0232324 0.00860577 0.0306817
8 3 O 1.22989 3.66364 48.7877 -1.2 1 0.202996 0.0493359 0.00889424 0.0114094 0.00237547 0.00929797 0.00359744 0.0200711 0.00392391 0.0148501 0.00356266 0.0240499 0.00445734 0.0192899 0.00655908 0.0278091 0.0046982 0.0245916 0.00835226 0.0333224
9 1 Mg 1.07066 2.43388 54.7698 1.2 1 0.0656992 0.0282657 0.0045207 0.00387026 0.00185819 0.00522669 0.00204079 0.019748 0.00230727 0.00958556 0.00258509 0.0252909 0.00328929 0.0190401 0.00414405 0.0324357 0.00335969 0.0247913 0.00618064 0.0415844
10 2 Si 1.08989 5.06082 56.4887 2.4 1 0.0324359 0.0190084 0.0057607 0.00507807 0.0013898 0.00695557 0.00194032 0.0197985 0.00223495 0.00821083 0.00340464 0.025156 0.00253144 0.0188843 0.00379967 0.0323629 0.00376504 0.0255718 0.00572629 0.043146
11 3 O 0.990207 3.45642 56.4907 -1.2 1 0.0361286 0.0198962 0.00586363 0.00454908 0.00129026 0.00609234 0.0015493 0.0198704 0.00256335 0.0078928 0.00185576 0.0256899 0.00245265 0.0178056 0.0037434 0.0325867 0.00347116 0.0257469 0.00492536 0.0430528
12 3 O 1.10813 6.07342 52.8172 -1.2 1 0.106359 0.0354017 0.00198828 0.00592807 0.00263329 0.00735419 0.00282548 0.0209382 0.00269812 0.0112089 0.00301573 0.0254604 0.00397049 0.0186164 0.00465015 0.0311481 0.00495374 0.02586 0.00628008 0.0379666
13 3 O -0.328854 5.76518 55.9571 -1.2 1 0.0420067 0.0230062 0.0059772 0.00481772 0.0014641 0.00607497 0.00202529 0.0203959 0.00225849 0.00897353 0.00251533 0.0257005 0.00263812 0.0189852 0.00392691 0.0324063 0.00342426 0.025637 0.00522674 0.0422382
14 3 O 2.23602 5.81806 55.7672 -1.2 1 0.0432636 0.0232744 0.00603564 0.00478201 0.00114654 0.00609817 0.00209163 0.0201902 0.00203782 0.00888542 0.00360142 0.0259773 0.00302148 0.0188172 0.00469139 0.0332565 0.00343723 0.0259244 0.00572319 0.041997
15 1 Mg -0.459401 4.67631 52.2426 1.2 1 0.124059 0.0394826 0.00203603 0.00615207 0.00241933 0.00654963 0.00214996 0.020346 0.00294493 0.0123412 0.00252471 0.0255139 0.00360439 0.0188049 0.00436308 0.0302625 0.00452013 0.0246928 0.00607599 0.03649
16 1 Mg 2.79456 3.9971 49.9987 1.2 1 0.176269 0.0483953 0.0049723 0.00940069 0.00283454 0.00801357 0.00397794 0.02017 0.00315559 0.0148413 0.00242788 0.024332 0.00408572 0.0201225 0.00726804 0.0293803 0.00462955 0.0249048 0.00895245 0.0338534
17 2 Si 1.16169 6.59457 51.2556 2.4 1 0.148196 0.0449843 0.00232583 0.00840392 0.00276765 0.00841184 0.00360051 0.0214136 0.00367155 0.013971 0.0041938 0.0248731 0.00438046 0.0204403 0.00629502 0.031377 0.00490399 0.0266334 0.00829312 0.0358454
18 3 O 1.28989 8.18905 51.2909 -1.2 1 0.145805 0.044017 0.00247863 0.0088486 0.00271391 0.00938732 0.00379239 0.0216299 0.00359483 0.013504 0.00373956 0.0269393 0.00417897 0.0207234 0.00542212 0.0311122 0.00556626 0.0272481 0.0074891 0.0369143
19 3 O 1.13111 5.58534 57.9976 -1.2 1 0.0155569 0.0121599 0.00402823 0.00544218 0.0010601 0.00741458 0.00100955 0.0201853 0.00175536 0.00835065 0.00245496 0.0258914 0.00240493 0.0184037 0.00281328 0.0322205 0.00269854 0.0256321 0.00350751 0.043282
20 3 O -0.184847 6.06029 50.6845 -1.2 1 0.158885 0.0439216 0.00455153 0.00866624 0.00336011 0.00792473 0.00363798 0.0213997 0.0035064 0.0139021 0.00300392 0.0247351 0.0039964 0.0195222 0.00562703 0.0296129 0.00550441 0.0257823 0.00812243 0.0355943
21 1 Mg -3.49704 4.67769 52.6661 1.2 1 0.116125 0.0372693 0.0017076 0.00561891 0.00215028 0.00716733 0.0027079 0.0201529 0.00308065 0.0116106 0.00351494 0.0249906 0.00344811 0.0185221 0.00453963 0.0302744 0.0043712 0.0248792 0.00632946 0.0371715
22 3 O 2.48581 5.93312 50.6539 -1.2 1 0.156683 0.0456988 0.00354437 0.00794569 0.00181308 0.00879809 0.00351201 0.021091 0.00357461 0.0139158 0.00384846 0.0245139 0.0040949 0.0201061 0.00612245 0.0303361 0.00473217 0.0261081 0.00786102 0.0348522
23 1 Mg -1.71374 4.78032 55.0804 1.2 1 0.0562779 0.0271221 0.00582371 0.00498707 0.00185784 0.00550172 0.00201977 0.0196026 0.00257358 0.00901856 0.00340829 0.0258783 0.00266984 0.01891 0.00405062 0.0322475 0.00404885 0.0251644 0.00572555 0.0408055
24 2 Si -1.89283 2.64688 53.3057 2.4 1 0.102415 0.0355652 0.00279387 0.00531563 0.00254309 0.00619455 0.00221488 0.0197534 0.00250292 0.0109613 0.00263567 0.0244057 0.00295143 0.0188434 0.00367933 0.0306614 0.00391398 0.024373 0.00650832 0.0390942
25 3 O -2.03276 1.17147 53.3089 -1.2 1 0.0961152 0.0339272 0.00257546 0.00516594 0.0028463 0.00577504 0.00179773 0.0196168 0.00272261 0.0102663 0.00286509 0.0250942 0.00268939 0.0184857 0.0047219 0.0311026 0.00341362 0.0242335 0.00666164 0.0402594
26 3 O -0.0467762 2.97103 46.8385 -1.2 1 0.2547 0.0532782 0.0167946 0.014821 0.00304439 0.010364 0.00341711 0.0202129 0.00612893 0.0170168 0.00542377 0.0237458 0.0066942 0.0190419 0.00844793 0.0254904 0.00629239 0.0237428 0.0093919 0.0315886
27 3 O -3.17547 3.35922 54.035 -1.2 1 0.081173 0.0311383 0.00378561 0.00406168 0.00206834 0.00575453 0.00203642 0.0198381 0.00256947 0.0103914 0.00283135 0.0246073 0.00271399 0.0188184 0.00381041 0.0312349 0.00371195 0.024324 0.00547725 0.0397599
28 3 O -0.625658 3.34928 54.0628 -1.2 1 0.0809423 0.0308783 0.00384994 0.0042976 0.00200682 0.00595509 0.00159966 0.0200323 0.00238772 0.0103037 0.00187316 0.0248646 0.00324812 0.0187346 0.00368799 0.0316039 0.00353039 0.0252178 0.00591325 0.0403422
29 1 Mg -3.58235 11.8198 57.8561 1.2 1 0.0189122 0.0124997 0.00426918 0.00619382 0.00193857 0.00698776 0.00179895 0.0200071 0.00165928 0.0102127 0.00175088 0.0270979 0.00280901 0.0180084 0.00261623 0.0314472 0.00357117 0.0253616 0.00455425 0.0421796
30 1 Mg -1.75014 11.5838 49.8362 1.2 1 0.182974 0.0477867 0.00748071 0.0116244 0.00434075 0.0129708 0.00489 0.0238783 0.00522612 0.0165371 0.00471506 0.0288324 0.00438215 0.0237482 0.0067987 0.0333574 0.00667476 0.0296951 0.00898058 0.0363742
31 2 Si -1.18003 9.02138 47.9309 2.4 1 0.23928 0.0521746 0.0150781 0.0151881 0.00570101 0.0135035 0.00760286 0.0230279 0.00747557 0.0176071 0.00702081 0.0265785 0.00483718 0.0227938 0.00701863 0.0300452 0.00863995 0.0289166 0.0118675 0.0337094
32 3 O -1.23224 10.5991 47.9811 -1.2 1 0.229054 0.0531121 0.0131663 0.0154259 0.00602153 0.0147231 0.0062742 0.0240537 0.00750962 0.0177603 0.00702448 0.0280758 0.00507997 0.0239018 0.00833485 0.032414 0.00937143 0.0313499 0.0108122 0.0344716
33 3 O -1.79016 8.01447 51.8693 -1.2 1 0.132314 0.0403014 0.00204975 0.00811369 0.00366861 0.00799443 0.00290959 0.0215355 0.00311742 0.0128143 0.00362247 0.0263316 0.00369803 0.0200709 0.00466898 0.0312342 0.00548559 0.0262333 0.0074817 0.0375497
34 3 O -2.30986 8.37215 48.8528 -1.2 1 0.203128 0.0521809 0.00888965 0.0119054 0.00455154 0.0106987 0.00598183 0.0230889 0.00569753 0.0173491 0.00478107 0.0267032 0.00415792 0.0226251 0.00602676 0.0313042 0.00703528 0.02864 0.00958907 0.0338267
35 1 Mg 0.154883 7.08234 46.8007 1.2 1 0.256625 0.0527866 0.017832 0.015667 0.00596277 0.0135131 0.00822006 0.0235043 0.0074093 0.0180618 0.00714061 0.0252958 0.00688383 0.0215273 0.00815255 0.0287827 0.00924807 0.0280879 0.0128024 0.0312278
36 3 O 0.325447 8.50934 48.3809 -1.2 1 0.214522 0.0531594 0.0105813 0.013798 0.00469393 0.0119726 0.00608881 0.0235117 0.00605451 0.01742 0.00564477 0.0265348 0.00493247 0.0236183 0.00589232 0.0305254 0.00726909 0.0290407 0.0106189 0.034095
37 1 Mg 0.99116 7.19975 54.72 1.2 1 0.0678702 0.0292586 0.00435785 0.00531311 0.0014798 0.00622568 0.00234285 0.0201066 0.00207945 0.0100212 0.00270745 0.0264692 0.00361238 0.0192918 0.00413602 0.0324755 0.00404727 0.0249729 0.00614707 0.040646
38 2 Si 1.13199 9.65882 56.4954 2.4 1 0.0332729 0.0197012 0.00540368 0.00675215 0.00146155 0.00704779 0.00190854 0.0199781 0.00211347 0.0092548 0.00273971 0.0256353 0.00256931 0.0189383 0.00355128 0.0320476 0.00418612 0.0255766 0.00638532 0.0430664
39 3 O 0.947598 8.02414 56.7224 -1.2 1 0.0287371 0.0176179 0.00517141 0.00605692 0.00106384 0.00746128 0.00179706 0.0203469 0.00247254 0.00824153 0.00189261 0.0265939 0.00324374 0.0180469 0.00321614 0.0321097 0.0043997 0.0259747 0.00511344 0.0430377
40 3 O 1.28624 10.7248 52.7351 -1.2 1 0.110491 0.0374425 0.00156959 0.00756306 0.00212095 0.0100865 0.00251071 0.0220089 0.00294936 0.012848 0.0035631 0.0270065 0.00454744 0.020937 0.00479061 0.0325854 0.00419805 0.0273298 0.00670291 0.0388755
41 3 O -0.181612 10.251 55.8096 -1.2 1 0.0487394 0.0248187 0.00489813 0.00629367 0.00125432 0.00675744 0.00171056 0.0204866 0.00132725 0.0101108 0.00246368 0.0268337 0.00279783 0.0191921 0.0041819 0.0329649 0.0032327 0.0259666 0.00575437 0.0421809
42 3 O 2.38323 10.3018 55.7645 -1.2 1 0.0445031 0.0238464 0.00581389 0.0064355 0.000905282 0.00689588 0.00178365 0.0202602 0.00168478 0.0102243 0.00226551 0.026285 0.0031996 0.0190688 0.00401909 0.0332032 0.00371741 0.026516 0.00609475 0.0419937
43 1 Mg -0.262694 9.34741 52.2523 1.2 1 0.113667 0.039842 0.0023616 0.00766428 0.00298372 0.00855842 0.00229575 0.0218188 0.00276665 0.0124369 0.00353329 0.0270098 0.00380489 0.020616 0.00517985 0.0323401 0.00484296 0.0269311 0.00757155 0.0377387
44 1 Mg 1.87648 9.01537 49.4629 1.2 1 0.182694 0.0520344 0.00538642 0.0110195 0.00340722 0.0108326 0.0059163 0.02292 0.00468278 0.0163814 0.00438977 0.0270301 0.00466889 0.0233938 0.00630435 0.0318877 0.00540559 0.0294495 0.00965956 0.0352845
45 2 Si 1.21415 11.3799 51.2378 2.4 1 0.149274 0.0463936 0.00203466 0.00984751 0.00300976 0.0111082 0.00333386 0.0228649 0.00410746 0.0153086 0.00449381 0.0274335 0.00452095 0.0239837 0.00574394 0.0334128 0.00533083 0.0293897 0.00855606 0.0380447
46 3 O 1.31634 12.9512 51.3023 -1.2 1 0.148726 0.0450142 0.00313929 0.00974557 0.00264203 0.0123285 0.0030022 0.0236892 0.00455198 0.016185 0.00333073 0.0288207 0.00446207 0.0248841 0.00478143 0.0340085 0.00534924 0.0299006 0.0077949 0.0386302
47 3 O 1.0678 10.3529 57.9362 -1.2 1 0.0179082 0.0125749 0.00396068 0.00630583 0.00157418 0.00722965 0.001573 0.0202868 0.00164652 0.00918371 0.00223106 0.0264333 0.00281155 0.0180831 0.00324633 0.0314938 0.0028647 0.0254279 0.00453867 0.0431
48 3 O -0.115718 10.7564 50.681 -1.2 1 0.157812 0.0464484 0.00375706 0.0106636 0.00345404 0.0108558 0.00414724 0.023046 0.00404081 0.0151002 0.00333786 0.0277219 0.00436466 0.0232245 0.0059785 0.0324834 0.00523546 0.0289956 0.00875481 0.0372603
49 1 Mg -3.26386 9.35564 52.3622 1.2 1 0.122641 0.0392289 0.00149871 0.00757144 0.00237642 0.00991326 0.00334272 0.0217944 0.00329562 0.0130336 0.00366164 0.0270202 0.0036056 0.0207819 0.00496991 0.0320357 0.0044886 0.0270058 0.00699442 0.0369203
50 3 O 2.45216 10.7265 50.4558 -1.2 1 0.163075 0.0482846 0.00408023 0.00957422 0.00271387 0.0116382 0.00453219 0.0228155 0.00442178 0.0161698 0.004006 0.027462 0.00408996 0.0239339 0.0059462 0.0329618 0.00577717 0.0292023 0.00832207 0.0370353
51 1 Mg -1.89272 9.4996 55.1772 1.2 1 0.0552368 0.0272772 0.00522597 0.00605382 0.00201669 0.00710771 0.0021031 0.0206498 0.00230659 0.0102712 0.003153 0.0267223 0.00291938 0.0196193 0.00370401 0.0325688 0.00431322 0.026144 0.00591659 0.0410664
52 2 Si -1.79469 7.48318 53.3161 2.4 1 0.0982016 0.0356987 0.0025788 0.00645289 0.00362363 0.00690286 0.00265296 0.0207193 0.00345925 0.0112525 0.00340116 0.0258952 0.0033664 0.0201114 0.00352851 0.0314749 0.00556527 0.0255053 0.00600182 0.0386058
53 3 O -1.72356 5.89483 53.2957 -1.2 1 0.0988736 0.0341734 0.00234966 0.00543116 0.00248845 0.00643461 0.00194905 0.0200815 0.00327968 0.0106082 0.00309981 0.0253103 0.00297486 0.0186133 0.00436122 0.0316813 0.00435064 0.0252202 0.00636693 0.0383874
54 3 O -1.19417 8.46968 46.4488 -1.2 1 0.269075 0.0531414 0.0203526 0.0175606 0.00599205 0.0147793 0.00872197 0.0243422 0.00761888 0.0179082 0.00756875 0.0259755 0.00614617 0.0212903 0.00926596 0.0302846 0.00999166 0.0301884 0.012588 0.0310508
55 3 O -3.04968 8.10539 54.0138 -1.2 1 0.0830921 0.0316214 0.00274878 0.00577808 0.00253018 0.00787406 0.00230477 0.0209094 0.00226669 0.0108881 0.00264222 0.0257437 0.00301531 0.0196624 0.00390152 0.0321033 0.00480043 0.0259831 0.00695772 0.03887
56 3 O -0.379308 8.16609 54.0467 -1.2 1 0.0766412 0.0314146 0.00409915 0.00555366 0.00260348 0.00644035 0.00151653 0.0210812 0.00214512 0.0103966 0.00253236 0.0256668 0.00304305 0.0191831 0.00352459 0.0323568 0.00465045 0.0263434 0.00620669 0.0400674
57 1 Mg -2.91218 16.5276 57.1176 1.2 1 0.025028 0.0158461 0.00488795 0.00672045 0.00111059 0.00663021 0.00195412 0.0207455 0.00207591 0.0101898 0.00159222 0.0263116 0.00242501 0.0181201 0.00321902 0.0315175 0.00348043 0.0257179 0.00443202 0.0434923
58 1 Mg -1.6714 16.3544 49.8412 1.2 1 0.179651 0.048677 0.00695778 0.0126564 0.00338172 0.0156049 0.00278339 0.0258308 0.00456519 0.0184252 0.00425235 0.0311167 0.00385775 0.0263117 0.00619715 0.034641 0.00588959 0.0317918 0.00836116 0.0387519
59 2 Si -1.18567 13.8526 47.9314 2.4 1 0.233131 0.0547074 0.0151243 0.0168033 0.00509756 0.0186115 0.00516724 0.0269068 0.00877345 0.019959 0.00600241 0.0307825 0.00577136 0.0285253 0.00688705 0.0344841 0.00949678 0.0334744 0.0112899 0.0372553
60 3 O -1.09664 15.4205 47.9915 -1.2 1 0.231741 0.0538803 0.0148366 0.0171823 0.00533935 0.0201418 0.00442942 0.0274971 0.00823512 0.020179 0.00631189 0.0310608 0.00579932 0.0282027 0.00804115 0.0353372 0.0089176 0.0346122 0.0102243 0.0379009
61 3 O -1.73493 12.7491 51.7772 -1.2 1 0.13465 0.04148 0.0025906 0.00950732 0.003697 0.0107545 0.00176437 0.0234718 0.00358229 0.0150029 0.00311116 0.0286348 0.00407169 0.0233802 0.0045266 0.0331467 0.0052531 0.0285206 0.00703045 0.0392898
62 3 O -2.36115 13.2717 48.8238 -1.2 1 0.204631 0.053318 0.00966704 0.0138307 0.0049151 0.014927 0.00492338 0.026228 0.00636892 0.0196175 0.00467302 0.0304161 0.00443334 0.0268685 0.00616607 0.0347319 0.00779589 0.032694 0.00962373 0.0370065
63 1 Mg -0.159928 11.7639 46.8533 1.2 1 0.25581 0.0541702 0.0184498 0.0181919 0.00626941 0.0201379 0.00708783 0.0277452 0.00920325 0.0196195 0.007081 0.0304244 0.00638031 0.0269689 0.00799568 0.0331951 0.0105881 0.0343336 0.0127573 0.0351399
64 3 O 0.2623 13.1866 48.413 -1.2 1 0.213486 0.0532588 0.011179 0.0149856 0.00438724 0.0165918 0.00461656 0.0263277 0.00723986 0.0187714 0.00457782 0.02937 0.00500475 0.0280126 0.00574469 0.0337927 0.00809102 0.0337514 0.0101588 0.0376486
65 1 Mg 1.25773 11.8892 54.6959 1.2 1 0.070274 0.0304701 0.0036471 0.0063939 0.00188281 0.00792844 0.00214066 0.0210153 0.00251171 0.0120726 0.0022806 0.0269772 0.00392076 0.020856 0.00313321 0.0333717 0.00374567 0.0259374 0.00561736 0.0402564
66 2 Si 1.183 14.4348 56.5284 2.4 1 0.033352 0.0192264 0.00522245 0.00715058 0.00166784 0.00660402 0.00213201 0.0205383 0.00174701 0.0103329 0.00287719 0.0258929 0.00205348 0.019465 0.00394951 0.0317363 0.00359457 0.0255339 0.00559614 0.043266
67 3 O 1.14816 12.9168 56.6427 -1.2 1 0.0303787 0.017909 0.00530304 0.00671469 0.00136182 0.00674159 0.0017938 0.020331 0.00310246 0.00981197 0.00198138 0.0265413 0.00290984 0.018193 0.00306454 0.0320648 0.00417531 0.0254606 0.00520222 0.0430033
68 3 O 1.36565 15.4813 52.729 -1.2 1 0.111823 0.0378548 0.00183581 0.00833674 0.00190813 0.0114067 0.00284435 0.0229535 0.00267659 0.014669 0.00272821 0.0286593 0.00380755 0.0227273 0.00416732 0.0336201 0.003952 0.028816 0.00664623 0.0403497
69 3 O -0.14468 15.0001 55.784 -1.2 1 0.0484259 0.0244308 0.00469424 0.00679957 0.000915312 0.00710736 0.00206883 0.0216262 0.00155092 0.0115364 0.0023319 0.0262981 0.00255264 0.0209114 0.00390773 0.0327523 0.00332819 0.0267946 0.00523633 0.0433324
70 3 O 2.35097 15.1499 55.5765 -1.2 1 0.0475289 0.0246366 0.00526137 0.00686593 0.00119525 0.00651199 0.00205614 0.0209334 0.00190109 0.0111819 0.00206481 0.0264259 0.0026138 0.0201124 0.00351093 0.0335363 0.00332514 0.0263303 0.0050723 0.0427917
71 1 Mg -0.206989 14.1049 52.2121 1.2 1 0.116721 0.0411622 0.0016296 0.00883651 0.00299849 0.0102076 0.00188922 0.0234979 0.00299092 0.0149419 0.0031438 0.0288966 0.00320136 0.0234145 0.00449948 0.0338496 0.00377166 0.0293627 0.00685799 0.0390049
72 1 Mg 1.82591 13.8102 49.4556 1.2 1 0.184953 0.0527841 0.00602078 0.0117437 0.00314317 0.0145813 0.00448897 0.0252102 0.00536413 0.0186397 0.00456139 0.0294673 0.00512624 0.0270797 0.0059083 0.034811 0.00673007 0.0322035 0.00927058 0.0376125
73 2 Si 1.29285 16.1518 51.2434 2.4 1 0.14678 0.0468039 0.0026446 0.0106675 0.0024894 0.0133628 0.00345097 0.0248311 0.00390642 0.0170991 0.00425033 0.0284355 0.00398501 0.0256978 0.00581379 0.0341488 0.00430298 0.0314042 0.00842147 0.0398464
74 3 O 1.39496 17.7199 51.3047 -1.2 1 0.144869 0.0441927 0.00303149 0.00995437 0.00197071 0.0130791 0.00306616 0.0241315 0.00382073 0.0161004 0.00282158 0.0291509 0.00397191 0.024785 0.00442682 0.0345352 0.00599423 0.0306889 0.0074413 0.0404082
75 3 O 1.30534 15.02 57.898 -1.2 1 0.0184689 0.012336 0.00378678 0.00664682 0.00139438 0.00687157 0.00162967 0.0208709 0.00144489 0.00991513 0.00261506 0.0256558 0.00218877 0.0181248 0.00307467 0.0309196 0.00340279 0.0254004 0.00445877 0.0431517
76 3 O -0.0269106 15.5178 50.6688 -1.2 1 0.159073 0.0473403 0.00464625 0.0114004 0.0034613 0.0137353 0.00332477 0.0249519 0.00436892 0.0170646 0.00303585 0.0293151 0.00372549 0.0266528 0.00559858 0.0338555 0.00411762 0.0314495 0.00769862 0.0389866
77 1 Mg -3.18391 14.1057 52.3125 1.2 1 0.122803 0.0407843 0.00190797 0.00852931 0.00232826 0.0116628 0.00221812 0.0230699 0.00332302 0.0149777 0.00255532 0.0285659 0.00344064 0.0236859 0.00394109 0.0331996 0.00443046 0.0289452 0.0060494 0.0388414
78 3 O 2.52432 15.503 50.4579 -1.2 1 0.160434 0.0487471 0.00448375 0.0104039 0.00244428 0.013864 0.00363677 0.0250606 0.00423169 0.0184032 0.00318619 0.0293117 0.00388974 0.0263499 0.00573378 0.0345633 0.00534225 0.0312663 0.0078684 0.0386033
79 1 Mg -1.72613 13.9469 55.2339 1.2 1 0.0531675 0.0265183 0.00507098 0.00705655 0.00160038 0.00704095 0.00188257 0.0219919 0.00221717 0.0116077 0.00230348 0.0268331 0.00251784 0.0204668 0.00382399 0.0328475 0.00398967 0.0271946 0.00514278 0.0422101
80 2 Si -1.7585 12.138 53.2169 2.4 1 0.102084 0.0371112 0.00230348 0.00774212 0.0032668 0.00892732 0.0015934 0.021947 0.00317755 0.0134024 0.00260531 0.0273603 0.00354062 0.022142 0.00395392 0.0327933 0.00485584 0.027307 0.00595701 0.0396679
81 3 O -1.85394 10.5238 53.265 -1.2 1 0.0961459 0.034833 0.00260834 0.00705779 0.00320185 0.00862818 0.00141271 0.0208884 0.0027265 0.0116347 0.00295598 0.0269584 0.00295071 0.0203879 0.00388263 0.032167 0.00495709 0.0261231 0.00675313 0.0394132
82 3 O -1.21337 13.3381 46.4311 -1.2 1 0.269564 0.0535637 0.0209172 0.0199851 0.00685389 0.0210305 0.0071825 0.0296615 0.00928359 0.020679 0.00687458 0.0313316 0.00594281 0.0271049 0.00899478 0.0354587 0.0121491 0.0361444 0.0136601 0.0355103
83 3 O -3.09993 12.7102 53.927 -1.2 1 0.0860794 0.0339589 0.00268226 0.0067962 0.00227343 0.00927337 0.00140485 0.021497 0.00228867 0.0126576 0.00215239 0.0269233 0.00324603 0.0214932 0.00363039 0.0330785 0.00375126 0.0268421 0.00499023 0.040312
84 3 O -0.533327 12.7529 54.0216 -1.2 1 0.0796397 0.0326224 0.00334447 0.00680803 0.0025614 0.00742738 0.0012331 0.0220462 0.00224484 0.0123951 0.00271209 0.0270952 0.00279051 0.0217406 0.00367654 0.0333387 0.0036655 0.0271103 0.00576583 0.0404458
85 1 Mg -3.12007 21.0649 57.666 1.2 1 0.0201653 0.0135015 0.00389314 0.00638559 0.00101905 0.00639057 0.00121014 0.0214262 0.00181244 0.00936684 0.00178759 0.0262993 0.00228346 0.0180153 0.00256282 0.0316348 0.00321163 0.0258565 0.00388301 0.0452202
86 1 Mg -1.5831 21.1217 49.8405 1.2 1 0.182454 0.0481496 0.00664348 0.0133191 0.00309106 0.0159301 0.0030247 0.0262824 0.00392378 0.0183505 0.00446093 0.0305912 0.00388333 0.0264121 0.0068307 0.0352533 0.00585366 0.0321498 0.00953428 0.0399013
87 2 Si -1.09384 18.6291 47.9287 2.4 1 0.234499 0.0551878 0.0143937 0.0180255 0.00361903 0.0212459 0.00426607 0.0288141 0.00756651 0.0210861 0.00547111 0.032018 0.00605737 0.0295807 0.00666743 0.0360137 0.0091679 0.0348977 0.0106022 0.039669
88 3 O -1.02071 20.1985 47.9911 -1.2 1 0.230406 0.0534727 0.0138941 0.0178832 0.00429533 0.0210046 0.00424517 0.0282752 0.00715754 0.0205062 0.00583388 0.0316076 0.00555366 0.02846 0.00801556 0.0365915 0.00852392 0.0349669 0.0101729 0.0395837
89 3 O -1.65002 17.5002 51.771 -1.2 1 0.135085 0.0417107 0.00255546 0.0102256 0.00281973 0.0121118 0.00154927 0.0240702 0.00264165 0.0153637 0.00271266 0.0287781 0.00393301 0.0238656 0.00445091 0.0341899 0.00570933 0.029534 0.00750315 0.040698
90 3 O -2.26174 18.0434 48.8281 -1.2 1 0.204602 0.054206 0.00966947 0.0147185 0.00375096 0.0177754 0.00401855 0.0277376 0.00560305 0.0203919 0.00416729 0.0311002 0.00449196 0.0281705 0.00617232 0.0361125 0.00698369 0.0340422 0.00907467 0.0389571
91 1 Mg -0.0440435 16.5651 46.8269 1.2 1 0.254705 0.0555141 0.0181967 0.019742 0.00476836 0.0246502 0.00473397 0.0311563 0.00947447 0.0226062 0.00623031 0.0334447 0.00681395 0.0297465 0.00827712 0.0356111 0.0095472 0.0370869 0.0118386 0.0389261
92 3 O 0.37001 17.9877 48.3925 -1.2 1 0.210997 0.0536289 0.0106411 0.0154962 0.00356505 0.0185081 0.003506 0.0279225 0.0065667 0.0200777 0.00414199 0.030902 0.00493709 0.0293111 0.00585204 0.0355844 0.00764806 0.0355071 0.00958022 0.0397101
93 1 Mg 1.42162 16.4847 54.4503 1.2 1 0.0762565 0.0318808 0.00302099 0.00682527 0.00173018 0.00823379 0.00240566 0.0221047 0.00243773 0.0129099 0.00208724 0.0277121 0.00311759 0.0221773 0.00325099 0.0338877 0.00392839 0.0270292 0.00530202 0.0417975
94 2 Si 1.3648 19.0933 56.4604 2.4 1 0.033461 0.0192018 0.00514971 0.00697667 0.0011831 0.00638612 0.00163147 0.0210899 0.001725 0.00991448 0.00210678 0.0256168 0.0018551 0.0193957 0.00326566 0.0319699 0.00351809 0.0259136 0.00468023 0.0456921
95 3 O 1.30858 17.5138 56.3824 -1.2 1 0.0357953 0.0205789 0.00530363 0.00706219 0.00109671 0.00650467 0.00226261 0.0212322 0.00265898 0.010019 0.00171944 0.0259733 0.00306 0.0188589 0.00298504 0.0323834 0.00417329 0.0262452 0.00426326 0.0444045
96 3 O 1.45147 20.239 52.7294 -1.2 1 0.111986 0.0375466 0.001465 0.00839489 0.00145912 0.011611 0.00290148 0.0237617 0.00247093 0.0143533 0.0030298 0.0282062 0.00360148 0.0226768 0.00427948 0.0333032 0.00327843 0.0287935 0.00668812 0.0418854
97 3 O 0.158752 19.7521 55.844 -1.2 1 0.0442221 0.023053 0.00511176 0.00689801 0.000934948 0.0070102 0.0019473 0.0213197 0.00189704 0.0105545 0.00184481 0.0258944 0.00212223 0.019652 0.00344229 0.0331255 0.00349656 0.0269652 0.00516421 0.0454235
98 3 O 2.62149 19.7219 55.8154 -1.2 1 0.0427016 0.0227625 0.00507555 0.00652202 0.000897344 0.00643787 0.00200465 0.0219262 0.00177673 0.0104342 0.00199248 0.0260077 0.00234196 0.0198077 0.00348488 0.0331815 0.00315603 0.0267136 0.00472689 0.0448867
99 1 Mg -0.126194 18.8651 52.2079 1.2 1 0.117166 0.0412051 0.00178553 0.00892889 0.00212953 0.0103239 0.00206163 0.024109 0.00272633 0.0154008 0.00244794 0.0288242 0.00316385 0.0235173 0.00427336 0.033936 0.00400751 0.0296662 0.00715319 0.0406832
100 1 Mg 1.92402 18.5815 49.4545 1.2 1 0.183196 0.0531264 0.00516765 0.0124178 0.00210476 0.0154968 0.00420585 0.0259369 0.00451143 0.019415 0.00399937 0.0303953 0.00457747 0.0278687 0.0054371 0.0361644 0.00618687 0.033651 0.00908074 0.0396537
101 2 Si 1.38106 20.9117 51.2443 2.4 1 0.148063 0.0466933 0.0018678 0.0107814 0.00221838 0.0133493 0.00354406 0.0249344 0.00337648 0.0167383 0.00437855 0.0282246 0.00361393 0.0254512 0.00594351 0.034351 0.00371426 0.0317865 0.00892335 0.0410388
102 3 O 1.48527 22.4795 51.3054 -1.2 1 0.146653 0.0437403 0.0024003 0.0100231 0.0019235 0.0128931 0.00306048 0.0244011 0.00369876 0.0158467 0.0030305 0.0285444 0.00351609 0.0248825 0.00404682 0.0341384 0.00539129 0.030536 0.00766325 0.0414616
103 3 O 1.40423 19.841 58.0152 -1.2 1 0.0167181 0.0120752 0.0031587 0.00638113 0.00107203 0.00640728 0.00176081 0.0214424 0.00150553 0.00904162 0.0020004 0.0256698 0.00216101 0.0181911 0.00342486 0.0316467 0.00290148 0.0258935 0.00380434 0.0452863
104 3 O 0.0615419 20.2804 50.6669 -1.2 1 0.159258 0.0467525 0.00409704 0.0116746 0.00311164 0.014055 0.00373118 0.0253544 0.0036414 0.0166446 0.00331167 0.0288803 0.00388799 0.0260941 0.00512992 0.0348528 0.00436885 0.0316832 0.00844111 0.0409799
105 1 Mg -3.09665 18.8643 52.3122 1.2 1 0.124387 0.0409373 0.00156055 0.00902299 0.00134076 0.0117936 0.00218581 0.0238305 0.00250221 0.0153184 0.00225039 0.0284384 0.00330664 0.0240692 0.00353578 0.0338871 0.00476186 0.0295125 0.0067056 0.0406947
106 3 O 2.61548 20.2646 50.4626 -1.2 1 0.162168 0.0488772 0.00365031 0.0111234 0.00165216 0.0144675 0.00347331 0.0254932 0.0034657 0.018006 0.00336471 0.0288885 0.00376492 0.0264737 0.00533153 0.0349495 0.00480993 0.0318904 0.00825686 0.040118
107 1 Mg -1.63818 19.0449 55.1356 1.2 1 0.0542638 0.0269739 0.00473199 0.0067763 0.00138078 0.00701182 0.00212221 0.0221147 0.00237402 0.0114343 0.00211262 0.0267068 0.0021866 0.0206473 0.00407902 0.0329309 0.0043233 0.027111 0.00500033 0.0442649
108 2 Si -1.61234 16.8085 53.2871 2.4 1 0.0979142 0.037029 0.00221153 0.00831122 0.00232112 0.00891162 0.00129048 0.0227312 0.00257325 0.0140769 0.00228776 0.0274853 0.00303157 0.0232756 0.00329561 0.0339957 0.00486298 0.0288621 0.0060928 0.0418907
109 3 O -1.73374 15.2207 53.1424 -1.2 1 0.0983897 0.0360944 0.00243952 0.00803684 0.00272308 0.00948366 0.00143219 0.0224315 0.00283077 0.0133025 0.00256929 0.0281218 0.00279144 0.0222681 0.0041686 0.0335387 0.00401566 0.028157 0.00663187 0.0414815
110 3 O -1.12868 18.1227 46.4249 -1.2 1 0.266556 0.0554536 0.019931 0.0213068 0.00553571 0.024609 0.00580815 0.0318813 0.00828064 0.0222331 0.00605509 0.0336699 0.00666688 0.0282904 0.00894545 0.0376522 0.0112692 0.0379524 0.012372 0.0392593
111 3 O -2.93388 17.5222 53.9081 -1.2 1 0.0857673 0.0338291 0.00263995 0.00714915 0.00165191 0.00928472 0.00141274 0.0228154 0.00207789 0.0133544 0.00183603 0.0273103 0.00276321 0.0224225 0.00325805 0.0339637 0.00465643 0.027703 0.00520608 0.0421569
112 3 O -0.399389 17.3553 54.0269 -1.2 1 0.0787854 0.0329343 0.00306388 0.00712541 0.00233447 0.0073449 0.00160218 0.0227777 0.00209682 0.0127127 0.0023995 0.0268169 0.0027091 0.0223813 0.00386602 0.0343578 0.00392275 0.0284271 0.00642429 0.0424952
113 1 Mg -3.21304 26.1064 57.5378 1.2 1 0.0207719 0.0145063 0.00405289 0.0058032 0.00139675 0.00595588 0.00169979 0.0217468 0.00185297 0.00939226 0.00186407 0.0269043 0.00170802 0.0190161 0.00249972 0.0332787 0.00336178 0.025532 0.00383393 0.0448505
114 1 Mg -1.48778 25.88 49.8402 1.2 1 0.180432 0.0475792 0.0065958 0.0134869 0.00323903 0.0151562 0.00319647 0.0261301 0.00376423 0.0180284 0.00467338 0.0303541 0.00350744 0.0259829 0.00692467 0.0348099 0.00571638 0.0313284 0.00926 0.0394142
115 2 Si -1.00491 23.3922 47.9274 2.4 1 0.232747 0.0538475 0.0140835 0.0187716 0.00430567 0.0210733 0.00420768 0.0285031 0.00710208 0.0204113 0.00557367 0.0319386 0.00524632 0.0286709 0.00694059 0.0358914 0.00906452 0.0345724 0.0108586 0.0398999
116 3 O -0.927602 24.9615 47.9909 -1.2 1 0.230872 0.0528471 0.0138103 0.0184456 0.00447081 0.0206745 0.00411406 0.0280496 0.00641385 0.0203295 0.00607011 0.0314127 0.00518196 0.028005 0.00782408 0.0360563 0.00855332 0.0346194 0.0106898 0.0395902
117 3 O -1.55795 22.2588 51.7696 -1.2 1 0.135084 0.0406008 0.00217401 0.0103938 0.00273283 0.0121258 0.00158534 0.0242883 0.00196449 0.0150812 0.00244385 0.0285393 0.00365688 0.0238613 0.00474785 0.0338704 0.00501821 0.029168 0.00777082 0.0417432
118 3 O -2.17411 22.8111 48.8277 -1.2 1 0.206954 0.0533217 0.00891965 0.015778 0.00359491 0.0177815 0.00375473 0.0278273 0.0050568 0.0201961 0.00438934 0.0310313 0.00415555 0.0278878 0.0063967 0.0359221 0.00712683 0.0341893 0.00959732 0.0397031
119 1 Mg 0.0423997 21.3296 46.8225 1.2 1 0.257649 0.0552692 0.0182019 0.0211123 0.00544372 0.0253982 0.00572801 0.0316204 0.00833765 0.0223855 0.00656997 0.0337012 0.00696073 0.0294575 0.009278 0.0365983 0.00963054 0.0372101 0.0120632 0.0398675
120 3 O 0.458537 22.7495 48.3911 -1.2 1 0.214743 0.0534982 0.0100184 0.0170336 0.00401284 0.0186506 0.00331775 0.0280361 0.00569075 0.0202803 0.00437856 0.0310546 0.00487601 0.0291985 0.00629823 0.0355854 0.00774144 0.0355528 0.00998697 0.0406549
121 1 Mg 1.26939 21.364 54.5496 1.2 1 0.0723441 0.0306373 0.0034841 0.00682566 0.00117569 0.00806464 0.0021848 0.0225366 0.00200146 0.0123072 0.00196494 0.0270099 0.00264212 0.0215235 0.00362837 0.0338356 0.00323818 0.0268229 0.00527486 0.0435262