ITEM: TIMESTEP
47700
ITEM: NUMBER OF ATOMS
10500
ITEM: BOX BOUNDS xy xz yz pp pp pp
0	8.9688	2.9896
0	118.725	0
0	252.977	0
ITEM: ATOMS id type element xu yu zu q Q_1 Q_2 Q_3 Q_4 Q_5 Q_6 Q_7 Q_8 Q_9 Q_10 Q_11 Q_12 Q_13 Q_14 Q_15 Q_16 Q_17 Q_18 Q_19 Q_20 Q_21
1 1 Mg -3.49698 7.08871 57.3531 1.2 1 0.0212321 0.0160816 0.00565212 0.00643383 0.000961131 0.0073003 0.00126692 0.0222903 0.00166736 0.00992988 0.00234941 0.0273802 0.00230491 0.0198581 0.0024754 0.0307552 0.00308264 0.0236329 0.0050689 0.0430088
2 1 Mg -1.82655 6.90154 50.0912 1.2 1 0.175054 0.0479063 0.00623757 0.0103218 0.0034049 0.0097365 0.0041244 0.0224457 0.00462268 0.0151751 0.00434421 0.0248634 0.00483218 0.0214436 0.00591783 0.028962 0.005883 0.0264511 0.00866434 0.0336047
3 2 Si -0.257935 3.96038 48.0876 2.4 1 0.227332 0.0531287 0.0122878 0.0125243 0.00263257 0.0100712 0.00356178 0.0197059 0.00545972 0.0167706 0.00452058 0.0241783 0.00598558 0.0205068 0.00633485 0.0263831 0.00701914 0.0254513 0.00998769 0.0326109
4 3 O -0.335812 5.46814 47.6264 -1.2 1 0.233098 0.0522919 0.0136927 0.0135591 0.00330894 0.0112822 0.00409579 0.0203957 0.00622471 0.0178893 0.0049437 0.0245855 0.00532767 0.0212344 0.00604065 0.0268399 0.00783137 0.0265156 0.0112046 0.0312405
5 3 O -2.03793 3.43377 51.8941 -1.2 1 0.126446 0.0417885 0.00152931 0.00743422 0.00222591 0.00726697 0.00243708 0.0200531 0.00296917 0.0117592 0.00303409 0.0241429 0.00364482 0.0185224 0.00396645 0.0280575 0.00505383 0.0242573 0.0069703 0.0351789
6 3 O -1.54015 3.53929 48.9521 -1.2 1 0.202587 0.0516762 0.00913038 0.0109757 0.00272282 0.00888651 0.00334306 0.0197227 0.0049502 0.0154404 0.00448258 0.0232987 0.00455024 0.0199179 0.00551129 0.0269173 0.00590468 0.0252859 0.0090771 0.0320397
7 1 Mg 1.82954 2.54582 47.1376 1.2 1 0.246368 0.0522375 0.0159996 0.0152868 0.00307698 0.0112663 0.00293201 0.0196093 0.00486838 0.0158115 0.00417258 0.0238646 0.00642145 0.0193224 0.0069432 0.0249743 0.00695183 0.0242065 0.00948484 0.0305826
8 3 O 1.22989 3.66364 48.7877 -1.2 1 0.204082 0.0504464 0.00942634 0.0119202 0.00258445 0.00982178 0.00406085 0.0195914 0.00411639 0.0152087 0.00382355 0.0232903 0.00507319 0.0199849 0.00637052 0.0266746 0.00474139 0.0247131 0.00922187 0.0331156
9 1 Mg 1.02494 2.37954 54.5405 1.2 1 0.0657726 0.0308295 0.00475666 0.00592429 0.00144544 0.00594499 0.00248238 0.0204072 0.00258727 0.00983113 0.0027708 0.0251041 0.00320886 0.0199688 0.0036699 0.0296258 0.00321172 0.0236729 0.00534926 0.0384064
10 2 Si 0.840556 5.07398 56.4614 2.4 1 0.0288799 0.0196919 0.00641431 0.00704245 0.00107466 0.00680524 0.00185089 0.0213279 0.00229096 0.00932472 0.00398073 0.0257571 0.00306821 0.0199218 0.00466947 0.030425 0.00280601 0.0238285 0.00507767 0.0420847
11 3 O 0.621425 3.54468 56.3182 -1.2 1 0.03401 0.0220936 0.00606214 0.00654613 0.00116754 0.00626777 0.0018003 0.0205734 0.00253502 0.00916218 0.00288811 0.0254643 0.00274406 0.0194623 0.00292743 0.0308178 0.00367829 0.0238225 0.00469448 0.0409562
12 3 O 1.10813 6.07342 52.8172 -1.2 1 0.104008 0.0376536 0.00212299 0.0071459 0.00256194 0.0080296 0.00312191 0.0220894 0.00338463 0.0121591 0.00296346 0.0253194 0.00424898 0.0196166 0.00467783 0.0294454 0.00437192 0.024954 0.00629331 0.0369247
13 3 O -0.502728 5.73111 55.8081 -1.2 1 0.0436909 0.0247069 0.00625106 0.00602405 0.0012632 0.00675108 0.00244325 0.0219223 0.0024545 0.0103887 0.00329867 0.0263718 0.00295312 0.0202764 0.00359638 0.0303466 0.0031138 0.0242369 0.00562201 0.041511
14 3 O 2.08521 5.62897 55.7824 -1.2 1 0.0396486 0.02383 0.00679555 0.00614644 0.000932496 0.00656518 0.00170171 0.021322 0.00179576 0.0101035 0.00269696 0.0259073 0.00296655 0.0198518 0.00334113 0.0311272 0.00271718 0.0243025 0.00525037 0.0408458
15 1 Mg -0.459401 4.67631 52.2426 1.2 1 0.121396 0.0413498 0.00168214 0.00731633 0.00242478 0.00735798 0.00241503 0.0208699 0.00317115 0.0126854 0.00272388 0.0252083 0.00390895 0.0195147 0.00408851 0.028799 0.00448975 0.0242348 0.00605753 0.0346782
16 1 Mg 2.79456 3.9971 49.9987 1.2 1 0.173118 0.0496149 0.00548505 0.0100064 0.00314325 0.00859319 0.00408118 0.0204381 0.00314421 0.0146971 0.00264996 0.0234094 0.00460056 0.0204605 0.00600022 0.0276706 0.00430976 0.0256308 0.00891712 0.0327268
17 2 Si 1.16169 6.59457 51.2556 2.4 1 0.142591 0.0449547 0.00240981 0.00894047 0.00269597 0.00900377 0.0036515 0.0217329 0.00393315 0.0142078 0.00363703 0.024738 0.00436172 0.0212917 0.00575585 0.0301788 0.00467799 0.0260633 0.00814981 0.0357095
18 3 O 1.28989 8.18905 51.2909 -1.2 1 0.145491 0.0450898 0.00256831 0.00946748 0.00273963 0.010199 0.0039183 0.0224225 0.00403749 0.0141584 0.00402151 0.0261699 0.00381959 0.0219965 0.00547999 0.0301888 0.00525845 0.0270046 0.00795372 0.0370851
19 3 O 0.963903 5.75466 57.9853 -1.2 1 0.0141328 0.012456 0.00433884 0.00704975 0.000862189 0.00691297 0.00128946 0.022169 0.00208287 0.00944679 0.002837 0.0269938 0.00227937 0.0201993 0.00301301 0.031148 0.00245876 0.0242184 0.00396219 0.0437661
20 3 O -0.184847 6.06029 50.6845 -1.2 1 0.159862 0.045442 0.00470548 0.0095824 0.00343244 0.00866072 0.00386834 0.0215728 0.00430275 0.0144379 0.00276111 0.0244982 0.00419248 0.0207403 0.00545403 0.0284561 0.00512705 0.0256159 0.00826333 0.0348855
21 1 Mg -3.49704 4.67769 52.6661 1.2 1 0.111754 0.0388593 0.00141036 0.00664457 0.00217524 0.00790618 0.00264516 0.0205404 0.00336897 0.0117078 0.0030888 0.0244985 0.00344095 0.0191326 0.0041808 0.0285878 0.0041425 0.0242527 0.00650239 0.0355265
22 3 O 2.48581 5.93312 50.6539 -1.2 1 0.157099 0.0474188 0.00382716 0.00862438 0.00193694 0.00956817 0.00379517 0.02134 0.00388763 0.0145235 0.0039739 0.0239891 0.00427077 0.0211377 0.00610375 0.0292695 0.0046098 0.0259917 0.00825946 0.0340721
23 1 Mg -1.98616 4.58099 55.2633 1.2 1 0.0485712 0.0271125 0.00638308 0.00610884 0.00140438 0.00654294 0.0018603 0.0209406 0.00259056 0.0104204 0.0031483 0.0261 0.00245074 0.0201293 0.00363101 0.0306126 0.00341302 0.0238937 0.00567641 0.0395364
24 2 Si -1.9353 2.67479 53.2655 2.4 1 0.0982669 0.0372728 0.00222261 0.0065521 0.00266967 0.00664846 0.00210203 0.0202577 0.00310004 0.0109918 0.00257216 0.0241329 0.00297463 0.0194776 0.0032433 0.028108 0.00442732 0.0235205 0.00539824 0.0365215
25 3 O -1.96706 1.00365 53.0405 -1.2 1 0.0990862 0.0368247 0.00216627 0.00693518 0.00232147 0.00654203 0.00198126 0.019514 0.00308071 0.0100464 0.00253627 0.0247522 0.00334382 0.0189251 0.00398873 0.0284394 0.0042294 0.0234653 0.00576363 0.0367834
26 3 O -0.0467762 2.97103 46.8385 -1.2 1 0.253031 0.0532987 0.0171455 0.0145772 0.00289019 0.0102547 0.00329611 0.0194596 0.00579436 0.0168639 0.00595401 0.0237432 0.00727495 0.0189506 0.00813742 0.0251964 0.00681091 0.0245053 0.010651 0.031875
27 3 O -3.14966 3.21686 54.0817 -1.2 1 0.0777027 0.0331189 0.00364954 0.00555917 0.0017073 0.00642045 0.0020615 0.0207194 0.0030555 0.0108053 0.00245307 0.0241685 0.00263437 0.0191156 0.00344474 0.0292954 0.00341387 0.0237601 0.00532021 0.0369919
28 3 O -0.717143 3.29016 53.9698 -1.2 1 0.0790167 0.0337572 0.0039371 0.00604992 0.00179492 0.00661867 0.00164147 0.0207866 0.00252135 0.0106205 0.00226544 0.0246603 0.00294062 0.0200862 0.00319206 0.029073 0.00325798 0.0241951 0.00545235 0.0371428
29 1 Mg -3.41666 11.687 57.5014 1.2 1 0.0191803 0.015137 0.00506896 0.0066955 0.00113833 0.00684439 0.00139688 0.0226352 0.00194776 0.0106561 0.00186071 0.0277716 0.0021452 0.0196116 0.00253675 0.0308361 0.00312252 0.0250371 0.00373242 0.0441925
30 1 Mg -1.75014 11.5838 49.8362 1.2 1 0.181868 0.0487327 0.00754876 0.0124821 0.0044282 0.0134553 0.00468522 0.0242136 0.00549146 0.0169854 0.00503363 0.0278139 0.0041905 0.0247342 0.00685449 0.0324295 0.00715681 0.0295662 0.010029 0.0368628
31 2 Si -1.18003 9.02138 47.9309 2.4 1 0.238141 0.0516814 0.014923 0.0154014 0.00529405 0.0139565 0.00758831 0.0227021 0.00775293 0.0176044 0.0072321 0.0257892 0.00473787 0.0236076 0.00736631 0.0301598 0.00983409 0.0290443 0.0133512 0.0344555
32 3 O -1.23224 10.5991 47.9811 -1.2 1 0.231641 0.0537937 0.0135459 0.0160009 0.00560188 0.0153988 0.00638594 0.0241334 0.00789597 0.0181537 0.00742243 0.0273461 0.0054599 0.0248209 0.00843959 0.0323067 0.010234 0.0315447 0.0125827 0.0348555
33 3 O -1.79016 8.01447 51.8693 -1.2 1 0.131828 0.0418998 0.00226109 0.00913846 0.00336786 0.00856679 0.00304521 0.0222431 0.00364176 0.013423 0.00365518 0.0261496 0.00365832 0.0213061 0.00432738 0.0303914 0.00540281 0.0258233 0.00761084 0.0367203
34 3 O -2.30986 8.37215 48.8528 -1.2 1 0.205379 0.0523889 0.00930852 0.0124453 0.00427909 0.0115184 0.0063496 0.0229102 0.00580495 0.0175688 0.0051681 0.0255534 0.00425192 0.0235758 0.0063805 0.0308506 0.00751419 0.0284191 0.0107534 0.0343097
35 1 Mg 0.154883 7.08234 46.8007 1.2 1 0.260194 0.0524574 0.0180793 0.0161967 0.00575891 0.0142012 0.00867009 0.0231909 0.00749641 0.0179895 0.00741253 0.0245629 0.00692706 0.0219721 0.00924847 0.0287236 0.0104252 0.028815 0.0141211 0.0318078
36 3 O 0.325447 8.50934 48.3809 -1.2 1 0.215859 0.0529335 0.0109166 0.0138982 0.00448027 0.0130187 0.0058965 0.0235907 0.0063681 0.0174788 0.00584579 0.025631 0.00480201 0.0244725 0.00654669 0.0300112 0.00805289 0.0291763 0.0115248 0.0343204
37 1 Mg 1.08702 7.10479 54.7321 1.2 1 0.0642833 0.0299903 0.00481485 0.00641022 0.00175638 0.00692417 0.00226731 0.0216982 0.00268812 0.0111367 0.0031985 0.0260484 0.00326038 0.0203571 0.00299623 0.0308295 0.00354349 0.0242497 0.00596215 0.0398236
38 2 Si 0.976242 9.64671 56.448 2.4 1 0.0314224 0.0210202 0.00634324 0.00742253 0.00137061 0.00684405 0.00216176 0.0217638 0.00224336 0.00976597 0.00354911 0.026391 0.00307225 0.020446 0.00466511 0.0308824 0.00347063 0.024167 0.00612692 0.0438038
39 3 O 0.967489 8.2044 56.4746 -1.2 1 0.0313266 0.0208492 0.00651398 0.00722212 0.00107492 0.00676122 0.00146603 0.0212713 0.00354744 0.00939647 0.00270826 0.0265736 0.00329169 0.0195646 0.0028923 0.0304459 0.00452059 0.0234194 0.00554161 0.0429131
40 3 O 1.28624 10.7248 52.7351 -1.2 1 0.109817 0.0387649 0.00199629 0.00803028 0.00236476 0.0104534 0.0029651 0.0232663 0.00325435 0.0133363 0.00332774 0.0265462 0.00474194 0.0222123 0.00461587 0.0315047 0.00441985 0.0272571 0.00670883 0.0393535
41 3 O -0.394443 10.4014 55.9407 -1.2 1 0.0413235 0.0242766 0.00610099 0.00703608 0.00116873 0.00703381 0.00148334 0.0228492 0.00193899 0.010746 0.00261406 0.0268221 0.00259751 0.0207897 0.00379201 0.0314425 0.00350719 0.0253721 0.00555088 0.0433112
42 3 O 2.21735 10.3199 55.6205 -1.2 1 0.0446794 0.0258434 0.00625003 0.00711833 0.00144684 0.00721464 0.00200765 0.0223608 0.00271719 0.0105291 0.00255698 0.0262532 0.00327272 0.0212946 0.00281545 0.0315199 0.0032773 0.0255515 0.00533914 0.0428907
43 1 Mg -0.262694 9.34741 52.2523 1.2 1 0.113781 0.0415041 0.00269776 0.00879343 0.00302684 0.00896928 0.00269363 0.0231584 0.00314638 0.0131298 0.00334145 0.0265446 0.0038822 0.0220638 0.00500885 0.0313535 0.0046666 0.0270839 0.00735635 0.0377451
44 1 Mg 1.87648 9.01537 49.4629 1.2 1 0.184706 0.0526998 0.00586236 0.0113848 0.00320497 0.0119598 0.00593575 0.0230506 0.00527807 0.0169303 0.00531708 0.0261728 0.0045826 0.024045 0.00657539 0.0312468 0.00609892 0.0289895 0.0105846 0.0355067
45 2 Si 1.21415 11.3799 51.2378 2.4 1 0.145756 0.0465063 0.0021341 0.0106022 0.00305963 0.0119077 0.00374339 0.0239024 0.00416216 0.0154084 0.00438867 0.0264293 0.0046351 0.0246844 0.00567943 0.0318956 0.00528011 0.0293539 0.00891503 0.0386977
46 3 O 1.31634 12.9512 51.3023 -1.2 1 0.14743 0.0456057 0.00334682 0.0103529 0.00263328 0.0126278 0.00367965 0.0235579 0.00438298 0.0157224 0.00342106 0.0277811 0.00437182 0.0255397 0.00456666 0.0322663 0.00559004 0.0296178 0.00825234 0.0392791
47 3 O 1.00279 10.275 57.8918 -1.2 1 0.0155835 0.0134396 0.00426891 0.00686937 0.00101257 0.00704144 0.00200587 0.0228516 0.00179776 0.00989411 0.0028806 0.027354 0.00301328 0.0201834 0.00365144 0.0308419 0.00329071 0.0244562 0.00388714 0.0445394
48 3 O -0.115718 10.7564 50.681 -1.2 1 0.156866 0.0473399 0.00395796 0.011557 0.00387583 0.0117008 0.00418537 0.0235522 0.00441224 0.0151058 0.00359709 0.0268104 0.00420928 0.0240558 0.00604999 0.0314522 0.00546934 0.0286328 0.00949744 0.0375503
49 1 Mg -3.26386 9.35564 52.3622 1.2 1 0.119604 0.0400621 0.00175359 0.0082417 0.00231984 0.0104808 0.00329251 0.022509 0.0035633 0.0132803 0.00383682 0.026381 0.00363993 0.0218293 0.00447738 0.0311727 0.00453986 0.0264334 0.00714773 0.0367419
50 3 O 2.45216 10.7265 50.4558 -1.2 1 0.15866 0.0483092 0.0038945 0.00998198 0.00272551 0.0123662 0.00445383 0.0234913 0.00471582 0.0164297 0.00425505 0.0263357 0.00421976 0.0246571 0.00607884 0.0319682 0.005747 0.0290729 0.0086898 0.037365
51 1 Mg -2.01768 9.5027 55.278 1.2 1 0.0504874 0.0274709 0.00586538 0.00688049 0.00165952 0.0074634 0.00225124 0.0219988 0.00265484 0.0104904 0.00333504 0.026588 0.00285125 0.0210555 0.00364154 0.0310248 0.00437673 0.0248337 0.00631356 0.0417086
52 2 Si -1.81962 7.33957 53.5281 2.4 1 0.0886548 0.0356464 0.00400707 0.00712318 0.00278299 0.00744536 0.00238877 0.0215921 0.00361677 0.0119177 0.00331143 0.0258274 0.00306437 0.020635 0.00375739 0.0302835 0.00463119 0.0244561 0.00613229 0.0386215
53 3 O -1.89252 5.80225 53.3395 -1.2 1 0.0932039 0.0347155 0.00281742 0.00640333 0.00223924 0.00728664 0.00186869 0.0205524 0.00345835 0.0109853 0.00278766 0.0251934 0.0029208 0.0196445 0.00385398 0.0299627 0.00382589 0.0241189 0.00610942 0.0375777
54 3 O -1.19417 8.46968 46.4488 -1.2 1 0.270195 0.0523074 0.0198712 0.0178302 0.00564441 0.0154042 0.00873853 0.0243289 0.00798678 0.0179993 0.00757007 0.0253135 0.00601932 0.0220526 0.00989857 0.0302641 0.0109367 0.0303689 0.013887 0.0320127
55 3 O -3.0662 8.09799 54.1651 -1.2 1 0.0753423 0.0318144 0.00411333 0.00643535 0.0022567 0.00817701 0.00236018 0.0216571 0.00248971 0.0116485 0.00274291 0.0256763 0.0030072 0.0207981 0.00388661 0.031077 0.00376388 0.0245455 0.0069606 0.0388971
56 3 O -0.512409 8.09894 53.9859 -1.2 1 0.0750954 0.0327221 0.00470656 0.00669493 0.00248562 0.00709487 0.00156186 0.0221599 0.00276384 0.011238 0.00272351 0.0257729 0.00298566 0.0209416 0.00354356 0.0309457 0.00414911 0.0254885 0.00629686 0.0402286
57 1 Mg -3.18535 16.493 57.2094 1.2 1 0.0213951 0.015411 0.0048318 0.00622171 0.0011656 0.006965 0.00155933 0.0225298 0.00169049 0.00979411 0.00162443 0.027295 0.00191789 0.0195188 0.0024482 0.0301197 0.00327824 0.0249091 0.00445301 0.0466349
58 1 Mg -1.6714 16.3544 49.8412 1.2 1 0.179711 0.0491159 0.00747424 0.0127725 0.0035252 0.0153233 0.00356172 0.0256739 0.00434422 0.017949 0.00465816 0.0300641 0.00414983 0.026885 0.00575134 0.033581 0.00569787 0.031446 0.00975085 0.0399523
59 2 Si -1.18567 13.8526 47.9314 2.4 1 0.232292 0.0548037 0.0153405 0.0168724 0.00493674 0.0185475 0.00524445 0.0267931 0.00854219 0.0201867 0.00641778 0.030229 0.0053992 0.0291916 0.00662814 0.0340304 0.00998489 0.0334038 0.0125838 0.0380733
60 3 O -1.09664 15.4205 47.9915 -1.2 1 0.23279 0.0544086 0.0153535 0.0173926 0.00525964 0.0198144 0.004868 0.0274251 0.00788607 0.0203574 0.00652874 0.0305669 0.00596619 0.0288173 0.00780773 0.0349519 0.00964125 0.0344915 0.0120671 0.0387011
61 3 O -1.73493 12.7491 51.7772 -1.2 1 0.13419 0.0431405 0.0027784 0.0101729 0.0034439 0.0107553 0.00206093 0.0241132 0.0037563 0.0149039 0.00303757 0.0279362 0.00423549 0.0242865 0.0042612 0.0318886 0.00527562 0.028498 0.00772209 0.0396582
62 3 O -2.36115 13.2717 48.8238 -1.2 1 0.206965 0.0541228 0.0102794 0.0143654 0.00491778 0.0151237 0.00517625 0.0262412 0.00632061 0.0198934 0.00513561 0.0293929 0.00442717 0.027709 0.00588043 0.034176 0.00793219 0.0324674 0.0113705 0.0376549
63 1 Mg -0.159928 11.7639 46.8533 1.2 1 0.258832 0.0542204 0.0189919 0.0187069 0.00635998 0.0205535 0.00734919 0.0275953 0.00942305 0.0200074 0.00818969 0.0296573 0.00657964 0.0279438 0.00854264 0.0333517 0.0113837 0.0341169 0.0147063 0.0359127
64 3 O 0.2623 13.1866 48.413 -1.2 1 0.217205 0.0546385 0.0121338 0.015569 0.00447549 0.0168819 0.00525001 0.0267519 0.00737101 0.0191675 0.00550808 0.0285737 0.00548792 0.0289514 0.00594748 0.0335907 0.00867936 0.0339961 0.0118503 0.0380175
65 1 Mg 1.20558 11.686 54.5012 1.2 1 0.0730946 0.0334953 0.00384554 0.00705748 0.00219446 0.00839801 0.00285202 0.0226789 0.00293884 0.0122666 0.00239972 0.0268033 0.00365271 0.0223542 0.0030484 0.0317069 0.00390717 0.025929 0.00535897 0.0412444
66 2 Si 1.14084 14.3741 56.4866 2.4 1 0.0310425 0.0201441 0.00607722 0.00697226 0.00130132 0.00689775 0.00171783 0.0222691 0.00206011 0.0096324 0.00337262 0.0262496 0.00293439 0.020087 0.0041516 0.0304984 0.00379852 0.0252083 0.00544418 0.0465125
67 3 O 1.00549 12.7625 56.4962 -1.2 1 0.0305544 0.020525 0.00616133 0.00723598 0.00124463 0.00703284 0.00184492 0.0219912 0.00349741 0.00980896 0.00181338 0.026992 0.00326951 0.0199685 0.00263143 0.0310341 0.00450511 0.025322 0.00479737 0.0452814
68 3 O 1.36565 15.4813 52.729 -1.2 1 0.110415 0.0386061 0.00123479 0.00818247 0.00162069 0.011408 0.00319706 0.0236303 0.00315456 0.0143283 0.00330319 0.0278707 0.00417889 0.0233567 0.00374839 0.0316039 0.00401603 0.028568 0.00674521 0.0420324
69 3 O -0.21554 14.9679 55.9827 -1.2 1 0.0391922 0.0230207 0.0058993 0.0065568 0.00101766 0.00717933 0.0017444 0.0227891 0.00158001 0.00991983 0.00277344 0.0265488 0.00254084 0.0206598 0.00373922 0.0313296 0.003559 0.0260559 0.00570401 0.0461264
70 3 O 2.39925 15.0273 55.7515 -1.2 1 0.0417444 0.0242623 0.00597894 0.00685857 0.00105047 0.00700625 0.00213117 0.0225646 0.00214574 0.0100692 0.00215455 0.0263367 0.00304593 0.0206306 0.00291285 0.031303 0.0033798 0.0261779 0.0055981 0.0453492
71 1 Mg -0.206989 14.1049 52.2121 1.2 1 0.116609 0.0427468 0.00162103 0.00923415 0.00272758 0.0100098 0.00240875 0.024142 0.00316283 0.0146615 0.00280517 0.0282218 0.0033481 0.0241548 0.00343382 0.0318934 0.00405977 0.028815 0.00688553 0.04006
72 1 Mg 1.82591 13.8102 49.4556 1.2 1 0.184505 0.0535012 0.00625407 0.0124701 0.00295937 0.0142872 0.00460144 0.0250273 0.00486066 0.0185987 0.0045534 0.0285279 0.0046893 0.0275532 0.00590546 0.0340215 0.00641415 0.0321366 0.0104248 0.0381147
73 2 Si 1.29285 16.1518 51.2434 2.4 1 0.146051 0.0472291 0.00268666 0.0104937 0.00236544 0.0131205 0.00382035 0.0248623 0.00382618 0.016654 0.00466885 0.0279794 0.00408664 0.0263025 0.00493497 0.0325719 0.00423868 0.0310137 0.00880009 0.0414119
74 3 O 1.39496 17.7199 51.3047 -1.2 1 0.141995 0.0440819 0.00303449 0.00976315 0.0017587 0.0130418 0.00336422 0.0244889 0.00382541 0.0156205 0.00334888 0.0286438 0.00393686 0.0252421 0.00381776 0.032377 0.00511845 0.0301411 0.00759663 0.0421309
75 3 O 1.28409 15.0156 57.8695 -1.2 1 0.0156083 0.0129059 0.00384104 0.00625694 0.000969595 0.00702497 0.00153381 0.0228134 0.0016373 0.00923868 0.0026832 0.0269222 0.00286336 0.0196362 0.00354219 0.0303091 0.00365629 0.0247281 0.00437201 0.0465995
76 3 O -0.0269106 15.5178 50.6688 -1.2 1 0.157551 0.0480827 0.00464934 0.0116626 0.00332986 0.0133896 0.00333611 0.0247624 0.00425319 0.0164842 0.00304841 0.0284998 0.00395667 0.0268152 0.00484906 0.0326345 0.00444123 0.0309694 0.00845032 0.0403766
77 1 Mg -3.18391 14.1057 52.3125 1.2 1 0.122238 0.0417543 0.0017678 0.00873166 0.0020662 0.0113247 0.00284896 0.0234468 0.00324088 0.0149039 0.00302124 0.0279895 0.00369968 0.0242837 0.00332217 0.0318049 0.00416505 0.0281549 0.00670045 0.0398404
78 3 O 2.52432 15.503 50.4579 -1.2 1 0.161675 0.0497477 0.00471421 0.0107839 0.00227231 0.0136617 0.00409567 0.0254855 0.00434417 0.0185371 0.00347715 0.0286728 0.00425281 0.0274886 0.00470557 0.0331017 0.00531387 0.0309068 0.00852912 0.0399075
79 1 Mg -1.72201 14.041 55.2286 1.2 1 0.0502996 0.0274906 0.00552208 0.00696954 0.00158917 0.00732112 0.00206111 0.022918 0.00263577 0.0107353 0.00281522 0.0273219 0.00268125 0.021504 0.00320475 0.0314304 0.00443414 0.0263295 0.00546463 0.0447126
80 2 Si -1.71783 12.1248 53.2767 2.4 1 0.0967072 0.038204 0.00299384 0.00844031 0.00274195 0.00897143 0.00187897 0.0230398 0.00343938 0.012956 0.00251201 0.0266377 0.00376675 0.02319 0.00358263 0.0317194 0.00452083 0.0271983 0.00619749 0.0410154
81 3 O -1.8126 10.5428 53.2833 -1.2 1 0.0946437 0.0358975 0.00317966 0.00782734 0.00275847 0.00882883 0.0017829 0.0221727 0.00333895 0.0117392 0.00314638 0.0264061 0.00305816 0.0215664 0.00436806 0.0315894 0.00451133 0.0258277 0.00762693 0.0404173
82 3 O -1.21337 13.3381 46.4311 -1.2 1 0.270161 0.0539465 0.0215308 0.0200922 0.00681556 0.0214264 0.00725039 0.0297806 0.00945849 0.0209764 0.00721244 0.0308431 0.00578426 0.027618 0.00935651 0.0356063 0.0129003 0.0361387 0.0149517 0.0362099
83 3 O -3.05275 12.7358 53.923 -1.2 1 0.0836884 0.0343773 0.00293227 0.00718491 0.00234264 0.00952643 0.00173245 0.0226641 0.00271368 0.012491 0.00218973 0.0264698 0.00305772 0.0226521 0.00279817 0.0317024 0.00390956 0.0266626 0.0052014 0.0419119
84 3 O -0.360451 12.6934 53.8792 -1.2 1 0.0808155 0.0347219 0.0036683 0.00739729 0.00271842 0.00764708 0.0018099 0.0236168 0.00246524 0.0123338 0.00213899 0.0266158 0.00326871 0.023009 0.00304631 0.0320605 0.00399457 0.027285 0.00557781 0.0419428
85 1 Mg -3.0842 21.2067 57.3635 1.2 1 0.0220845 0.0135273 0.00487889 0.00542847 0.00141938 0.00719784 0.00149864 0.0222203 0.00178348 0.00966788 0.00183714 0.0268869 0.00172738 0.0196504 0.0022246 0.0308758 0.0034628 0.0262892 0.00385714 0.048929
86 1 Mg -1.5831 21.1217 49.8405 1.2 1 0.181094 0.0483906 0.00699298 0.012835 0.00341717 0.0159108 0.00324306 0.0267056 0.00395636 0.0177336 0.00450506 0.0305049 0.00386147 0.0262908 0.00586666 0.0339537 0.00554088 0.0315794 0.00934965 0.0408548
87 2 Si -1.09384 18.6291 47.9287 2.4 1 0.229461 0.0547662 0.0148487 0.016857 0.00382553 0.0203925 0.00474627 0.0284024 0.007251 0.0202559 0.00561425 0.0313962 0.00568526 0.0294091 0.00615617 0.0352706 0.00909982 0.0343457 0.0115881 0.040462
88 3 O -1.02071 20.1985 47.9911 -1.2 1 0.230666 0.0538006 0.0147363 0.0173057 0.00439261 0.02095 0.00461538 0.0285557 0.00703004 0.020159 0.00622065 0.0312823 0.0059051 0.0283614 0.00752469 0.0356833 0.00827493 0.0346684 0.0111318 0.0401386
89 3 O -1.65002 17.5002 51.771 -1.2 1 0.133807 0.0425851 0.00248238 0.0101766 0.00253331 0.0119799 0.00176401 0.0244562 0.00297669 0.01492 0.0025181 0.0282963 0.0042843 0.0245199 0.00356836 0.0322092 0.00524887 0.0290859 0.00767527 0.0419631
90 3 O -2.26174 18.0434 48.8281 -1.2 1 0.202123 0.0535624 0.00996844 0.0143939 0.00387819 0.0171754 0.00457406 0.0277458 0.00545145 0.0197535 0.00420769 0.0307954 0.00454739 0.0280255 0.00561756 0.0349773 0.00690273 0.0332802 0.0103887 0.0400579
91 1 Mg -0.0440435 16.5651 46.8269 1.2 1 0.257959 0.0560808 0.0195458 0.0197239 0.00532954 0.0245054 0.00584565 0.0310997 0.00921249 0.0221835 0.0068732 0.032895 0.00701277 0.0303264 0.0087364 0.0356481 0.0104645 0.0372022 0.0135415 0.0396944
92 3 O 0.37001 17.9877 48.3925 -1.2 1 0.214381 0.0550835 0.0116865 0.0157789 0.00379607 0.0183496 0.00400432 0.0282083 0.00667873 0.0200381 0.0046112 0.030705 0.0054159 0.0298507 0.00587486 0.0348354 0.00834631 0.0352219 0.0108743 0.0410085
93 1 Mg 1.50818 16.4541 54.4632 1.2 1 0.0730975 0.0323996 0.00329508 0.00675622 0.00163257 0.00874418 0.00258134 0.0226644 0.00258609 0.0119492 0.00267462 0.0271938 0.00287084 0.0224189 0.0024975 0.0313857 0.00413609 0.0266462 0.00524969 0.0438218
94 2 Si 1.34708 19.1766 56.3234 2.4 1 0.0354649 0.0203063 0.00577986 0.00641064 0.00124085 0.00737772 0.00185417 0.022297 0.0020869 0.00926973 0.00302076 0.0261318 0.00202411 0.0205828 0.00345676 0.0306573 0.00406279 0.0257553 0.00577097 0.0487025
95 3 O 1.26782 17.5434 56.3685 -1.2 1 0.0360874 0.0212525 0.00555644 0.00649552 0.00115782 0.00681848 0.00201316 0.0220271 0.00294805 0.00915466 0.00204072 0.0265782 0.00298944 0.0201764 0.00231589 0.0307757 0.00467753 0.0254063 0.0060182 0.0469227
96 3 O 1.45147 20.239 52.7294 -1.2 1 0.110198 0.037374 0.00117289 0.00780321 0.00176287 0.0119337 0.00332071 0.0237635 0.00240985 0.0135766 0.00343319 0.0279808 0.00378126 0.0228717 0.00414478 0.031394 0.00385721 0.0286227 0.00673256 0.043572
97 3 O 0.0469822 19.8323 55.705 -1.2 1 0.0501299 0.0241463 0.00492946 0.00605038 0.0012577 0.00759487 0.00203931 0.0226377 0.00174863 0.0102667 0.00251751 0.0261647 0.00246304 0.0209836 0.00392449 0.0314338 0.00346047 0.0266471 0.00547954 0.0473926
98 3 O 2.59213 19.873 55.6085 -1.2 1 0.0467532 0.0241131 0.00582439 0.00600271 0.00156138 0.00753318 0.0026535 0.0223717 0.00182235 0.00959346 0.00230162 0.0262028 0.00258412 0.0208245 0.00339361 0.0317548 0.00339753 0.0266147 0.00567789 0.0479866
99 1 Mg -0.126194 18.8651 52.2079 1.2 1 0.117066 0.0419429 0.00121763 0.00898075 0.00237572 0.0104823 0.00244323 0.0241358 0.00249273 0.0145038 0.00258763 0.0283529 0.00365409 0.0241611 0.00349828 0.0321593 0.00388611 0.0290814 0.00712494 0.0426155
100 1 Mg 1.92402 18.5815 49.4545 1.2 1 0.182461 0.05356 0.00576852 0.0120862 0.00212298 0.0153138 0.00439813 0.0266222 0.00449891 0.0189637 0.00419981 0.0300965 0.00476814 0.0279398 0.00460265 0.0347885 0.00586245 0.0329695 0.0098044 0.0412007
101 2 Si 1.38106 20.9117 51.2443 2.4 1 0.145516 0.0458806 0.00217671 0.0104886 0.00246493 0.0135794 0.00366347 0.0253048 0.00338984 0.0158456 0.00451614 0.0280439 0.00372297 0.0255966 0.00499098 0.0322991 0.00403727 0.031083 0.00864107 0.0433332
102 3 O 1.48527 22.4795 51.3054 -1.2 1 0.144777 0.0427432 0.00244344 0.0095876 0.00203516 0.0130908 0.00319157 0.0247463 0.00353173 0.0147848 0.00299558 0.0286928 0.00376667 0.0243749 0.00418212 0.0328452 0.00533577 0.0301938 0.00783572 0.0431791
103 3 O 1.40388 19.913 57.8415 -1.2 1 0.0175098 0.0116646 0.00406249 0.00587285 0.00144808 0.00716942 0.00167049 0.022489 0.00165468 0.00852264 0.0024939 0.0265102 0.00228526 0.0198948 0.00347949 0.0306971 0.00394626 0.0255 0.00439859 0.0491896
104 3 O 0.0615419 20.2804 50.6669 -1.2 1 0.155036 0.0463687 0.00416795 0.0109941 0.00349971 0.0139556 0.00360593 0.0256075 0.0033901 0.0159926 0.00304456 0.0287374 0.00396179 0.0262004 0.0048273 0.0329543 0.0041084 0.0311323 0.00869075 0.0426112
105 1 Mg -3.09665 18.8643 52.3122 1.2 1 0.1232 0.0414127 0.00128834 0.00872085 0.00145577 0.0120516 0.00282012 0.0241709 0.00244015 0.0149115 0.00280633 0.0282682 0.00351595 0.0245257 0.00317923 0.0317678 0.00414697 0.0289609 0.00676517 0.0418732
106 3 O 2.61548 20.2646 50.4626 -1.2 1 0.159293 0.04854 0.00398552 0.0104862 0.00190899 0.0145466 0.00388519 0.0264197 0.00337769 0.0176848 0.00371466 0.0288742 0.0039725 0.0266236 0.00462427 0.0332572 0.00459044 0.031277 0.00808941 0.0416991
107 1 Mg -1.6311 18.8601 54.9829 1.2 1 0.0573103 0.0282181 0.00496869 0.00694856 0.00167149 0.00764238 0.00255681 0.022857 0.00193256 0.0110089 0.00308078 0.02661 0.00233438 0.0216726 0.00340732 0.0311308 0.00410378 0.027029 0.00566352 0.0459494
108 2 Si -1.49967 16.7996 53.167 2.4 1 0.0990736 0.0377934 0.00204419 0.00842576 0.00234821 0.00898468 0.00155505 0.0234243 0.00330798 0.013226 0.00214141 0.0273075 0.00337929 0.023912 0.00281179 0.0315107 0.00467585 0.0279903 0.0059301 0.0438262
109 3 O -1.70902 15.2902 53.1687 -1.2 1 0.0962771 0.0369749 0.00246396 0.00810297 0.00219682 0.00905385 0.00152777 0.0230296 0.00307798 0.0126315 0.00268158 0.0272015 0.00271028 0.022907 0.00357166 0.0318354 0.00389861 0.0276195 0.00661909 0.0430745
110 3 O -1.12868 18.1227 46.4249 -1.2 1 0.267645 0.055467 0.0208092 0.0207753 0.00531444 0.0241803 0.00612296 0.0320692 0.00788377 0.0217182 0.00590713 0.0334256 0.00652157 0.028135 0.00898903 0.0373819 0.0119453 0.0377853 0.0136118 0.0398145
111 3 O -2.87746 17.577 53.8394 -1.2 1 0.0864754 0.0347059 0.0024927 0.00703189 0.00156332 0.00986916 0.00188674 0.0234284 0.00232935 0.0125647 0.00181312 0.0267321 0.00289176 0.0232088 0.00235796 0.0313784 0.00400157 0.0273804 0.00556729 0.043977
112 3 O -0.295897 17.4014 53.8603 -1.2 1 0.0815256 0.0346033 0.00330583 0.00719211 0.0021209 0.00793399 0.00175924 0.0235261 0.00212809 0.0123279 0.00223739 0.0268521 0.00310486 0.0232248 0.00289231 0.0314515 0.00408746 0.0275751 0.00575567 0.0443932
113 1 Mg -2.94312 25.9256 57.1817 1.2 1 0.0228251 0.013 0.00488918 0.00533039 0.00107854 0.00684142 0.00166883 0.021581 0.00172296 0.00938122 0.00204741 0.0270506 0.00202568 0.0195273 0.00243036 0.0312101 0.00267388 0.0264549 0.00402754 0.0505366
114 1 Mg -1.48778 25.88 49.8402 1.2 1 0.181873 0.046942 0.00678779 0.0124457 0.00328215 0.0160634 0.00302217 0.0263805 0.00353278 0.0173701 0.00433909 0.0308987 0.00359361 0.0254018 0.00632801 0.0339329 0.00572622 0.0315423 0.010472 0.0410152
115 2 Si -1.00491 23.3922 47.9274 2.4 1 0.237893 0.0541949 0.0147808 0.0179638 0.00411726 0.0217966 0.00464897 0.0291714 0.00704587 0.020442 0.00543572 0.0323056 0.00622935 0.0286926 0.0069743 0.0354193 0.00906616 0.0345945 0.0115603 0.0402318
116 3 O -0.927602 24.9615 47.9909 -1.2 1 0.232674 0.0522135 0.0140939 0.0171679 0.00409997 0.0209902 0.00418874 0.028403 0.0066175 0.0200141 0.00612492 0.0319576 0.00569391 0.0277407 0.00790182 0.035632 0.00856963 0.0345718 0.0110267 0.0402688
117 3 O -1.55795 22.2588 51.7696 -1.2 1 0.135087 0.0413197 0.00201503 0.00983902 0.00296486 0.012359 0.00182872 0.0248804 0.00244218 0.0143309 0.00263736 0.0285758 0.00439565 0.024017 0.00399369 0.0321757 0.00517971 0.0292421 0.00787536 0.0431255
118 3 O -2.17411 22.8111 48.8277 -1.2 1 0.205097 0.0525612 0.00922425 0.0146994 0.00360123 0.0175622 0.0040689 0.0278739 0.00477357 0.0193255 0.00433801 0.0309409 0.00431823 0.0270642 0.00562588 0.0351622 0.00711866 0.0333022 0.0100034 0.0401873
119 1 Mg 0.0423997 21.3296 46.8225 1.2 1 0.25676 0.054891 0.0187889 0.0198172 0.00478512 0.0250798 0.00579739 0.0319263 0.008118 0.0221954 0.0064373 0.0336108 0.00699276 0.0293465 0.00863272 0.035605 0.00982645 0.0366374 0.0125175 0.0398516
120 3 O 0.458537 22.7495 48.3911 -1.2 1 0.212941 0.053002 0.0108095 0.0151873 0.00375895 0.0185331 0.00334673 0.0282503 0.0053544 0.01955 0.00402632 0.0308229 0.0054199 0.0288893 0.00581607 0.0346768 0.00769737 0.0348758 0.0106302 0.041161
121 1 Mg 1.40764 21.2009 54.4524 1.2 1 0.0745542 0.0308397 0.00396382 0.00600962 0.00183269 0.00864852 0.00247418 0.0224599 0.00223741 0.0117815 0.00221535 0.0273643 0.00330611 0.022065 0.00345 0.031922 0.00426106 0.0267283 0.00565091 0.0453668