ITEM: TIMESTEP
49500
ITEM: NUMBER OF ATOMS
10500
ITEM: BOX BOUNDS xy xz yz pp pp pp
0	8.9688	2.9896
0	118.725	0
0	252.977	0
ITEM: ATOMS id type element xu yu zu q Q_1 Q_2 Q_3 Q_4 Q_5 Q_6 Q_7 Q_8 Q_9 Q_10 Q_11 Q_12 Q_13 Q_14 Q_15 Q_16 Q_17 Q_18 Q_19 Q_20 Q_21
1 1 Mg -3.27962 6.80961 57.2135 1.2 1 0.0269726 0.0157532 0.00563262 0.00518623 0.000908958 0.00632929 0.000958969 0.0213276 0.00134927 0.00902168 0.00149419 0.0269488 0.00243695 0.0183092 0.00281388 0.0316732 0.00301084 0.0256471 0.00462876 0.0451072
2 1 Mg -1.82655 6.90154 50.0912 1.2 1 0.178762 0.0477764 0.00695822 0.00908987 0.003475 0.00878759 0.00447833 0.0223897 0.00425251 0.0149616 0.00444591 0.0247745 0.0041512 0.0209849 0.00663967 0.0287883 0.00588941 0.0261262 0.00920958 0.0336388
3 2 Si -0.257935 3.96038 48.0876 2.4 1 0.226087 0.0533887 0.0122049 0.0118093 0.00278973 0.00969485 0.00390058 0.0204335 0.00564487 0.0172905 0.00440522 0.0246402 0.00569606 0.020619 0.00566934 0.0269522 0.00709467 0.0248962 0.00860888 0.0332559
4 3 O -0.335812 5.46814 47.6264 -1.2 1 0.233383 0.0527897 0.0141525 0.0129225 0.00339308 0.010722 0.00493373 0.0212079 0.00638159 0.0178075 0.00483241 0.0250687 0.00503566 0.0208753 0.00557184 0.0270014 0.00708727 0.0259334 0.00965028 0.0316506
5 3 O -2.03793 3.43377 51.8941 -1.2 1 0.130579 0.0405574 0.00303601 0.00612551 0.00217339 0.00701225 0.00273324 0.0202387 0.00226723 0.011547 0.00334241 0.0244336 0.00378393 0.0175703 0.00467548 0.0289016 0.00505312 0.0236254 0.00848655 0.0380457
6 3 O -1.54015 3.53929 48.9521 -1.2 1 0.205115 0.0516664 0.00951296 0.0101035 0.00277886 0.00860056 0.0038285 0.0203316 0.0049662 0.0156772 0.00472333 0.0239192 0.00443237 0.0201279 0.00604736 0.0273069 0.00562871 0.0243103 0.00892402 0.0327318
7 1 Mg 1.82954 2.54582 47.1376 1.2 1 0.248087 0.0527586 0.0164155 0.015171 0.00340757 0.0112327 0.00391847 0.0203048 0.00570123 0.015641 0.00457475 0.0245753 0.00652566 0.0194334 0.00762566 0.0248574 0.00619363 0.0231855 0.00907358 0.0315371
8 3 O 1.22989 3.66364 48.7877 -1.2 1 0.205914 0.0496572 0.0096156 0.0110648 0.00240746 0.00947038 0.00419724 0.0201668 0.00369286 0.0153907 0.0037239 0.023894 0.00513171 0.019782 0.00622783 0.0271133 0.00482624 0.0241104 0.00938314 0.0342766
9 1 Mg 0.904868 2.37061 54.4644 1.2 1 0.0738345 0.0296987 0.00424891 0.00448587 0.00172273 0.00554356 0.00259014 0.0207416 0.0027177 0.0094686 0.00322299 0.0253729 0.00411996 0.0183417 0.00443122 0.031314 0.00393386 0.0241547 0.00692379 0.0423612
10 2 Si 0.964201 4.86964 56.6027 2.4 1 0.033105 0.0183374 0.00567388 0.00540717 0.00131759 0.00655995 0.00171649 0.0210327 0.00184798 0.00848896 0.00257685 0.0255737 0.00246021 0.018591 0.00330035 0.0313607 0.00314748 0.0251348 0.0048695 0.0460082
11 3 O 1.00631 3.37663 56.7193 -1.2 1 0.0307482 0.0174471 0.00618173 0.00546567 0.0014785 0.00617617 0.00213232 0.0210431 0.00193805 0.00815389 0.00186743 0.0258606 0.00263844 0.0176755 0.00348986 0.031891 0.00380885 0.0259752 0.00490328 0.0460239
12 3 O 1.10813 6.07342 52.8172 -1.2 1 0.108466 0.035639 0.00202656 0.00575639 0.00267206 0.00724486 0.00320862 0.0216324 0.00254054 0.0113164 0.00325321 0.0251082 0.00388128 0.018172 0.00514611 0.0297151 0.00440205 0.0250095 0.00740524 0.0387031
13 3 O -0.220908 5.71437 56.0194 -1.2 1 0.0446085 0.0226975 0.00613821 0.00487205 0.00138432 0.00581237 0.00238773 0.0213123 0.00198822 0.00921931 0.0023893 0.0257106 0.00295944 0.0185281 0.00425279 0.0315373 0.00316921 0.0255187 0.00586339 0.0444557
14 3 O 2.16739 5.52868 55.7838 -1.2 1 0.0445092 0.0227896 0.006245 0.00484076 0.00108773 0.0061702 0.00177549 0.0214022 0.00121577 0.00930482 0.0022197 0.0257598 0.00285907 0.018554 0.00411828 0.0325041 0.00292807 0.0260461 0.00574237 0.0448508
15 1 Mg -0.459401 4.67631 52.2426 1.2 1 0.125951 0.0404146 0.00265679 0.00584102 0.00238181 0.00655083 0.00248699 0.0212432 0.00270909 0.0124504 0.00327888 0.0251782 0.00400204 0.0184908 0.00487694 0.0290666 0.0045415 0.0240887 0.00755638 0.0369415
16 1 Mg 2.79456 3.9971 49.9987 1.2 1 0.176876 0.0491001 0.00626685 0.0088659 0.00275946 0.00790088 0.00437174 0.0207882 0.0030843 0.015051 0.00314917 0.0239538 0.00432017 0.0201074 0.00626792 0.027744 0.00487611 0.0245767 0.00949349 0.0342731
17 2 Si 1.16169 6.59457 51.2556 2.4 1 0.148815 0.045195 0.00308426 0.00794144 0.00288437 0.00826485 0.00399956 0.021836 0.0037529 0.0135142 0.0041274 0.024074 0.00383908 0.0205406 0.00619064 0.0294305 0.00468922 0.025583 0.00920737 0.0363663
18 3 O 1.28989 8.18905 51.2909 -1.2 1 0.144871 0.0435914 0.00278602 0.00798774 0.00280852 0.00925184 0.00396866 0.0224171 0.00353857 0.0132663 0.00377106 0.0261108 0.00347614 0.0207848 0.00531049 0.0299079 0.00493547 0.0268596 0.00826163 0.0371559
19 3 O 1.09377 5.64465 58.0192 -1.2 1 0.0184407 0.0114576 0.00406252 0.00575531 0.00111358 0.00649987 0.00118721 0.0212999 0.00161015 0.00815112 0.00220214 0.0265127 0.00224731 0.0184099 0.00324521 0.0325921 0.00241102 0.026127 0.00341934 0.0465178
20 3 O -0.184847 6.06029 50.6845 -1.2 1 0.162839 0.0449303 0.0055769 0.00823189 0.00359403 0.00803748 0.00416283 0.0218503 0.00372969 0.0140368 0.00341028 0.024157 0.00419591 0.0199317 0.00570739 0.0281401 0.00502324 0.0250013 0.00883231 0.0356562
21 1 Mg -3.49704 4.67769 52.6661 1.2 1 0.115069 0.037234 0.00198942 0.00553026 0.00214444 0.00705976 0.00296507 0.0204796 0.00282281 0.0113727 0.00348213 0.0245302 0.00374013 0.0182516 0.00463241 0.0288996 0.00409469 0.0237204 0.00753569 0.0383422
22 3 O 2.48581 5.93312 50.6539 -1.2 1 0.159133 0.0462816 0.00443144 0.00760765 0.00188666 0.00841196 0.00428613 0.0216629 0.00343841 0.0141757 0.00408738 0.0240031 0.00415186 0.0201989 0.00643972 0.0292528 0.00484776 0.025476 0.00932837 0.0355123
23 1 Mg -2.08112 4.83801 55.1554 1.2 1 0.054163 0.025909 0.00625991 0.00478525 0.00147325 0.00585202 0.00173865 0.021102 0.00226749 0.00897721 0.00240306 0.0262676 0.00242756 0.018409 0.00371362 0.0318717 0.00349234 0.0250976 0.00676224 0.0433066
24 2 Si -1.96181 2.61824 53.3503 2.4 1 0.102585 0.0357529 0.00320449 0.00539111 0.00249551 0.00626497 0.00220572 0.0200777 0.00235772 0.0106064 0.00325835 0.0246029 0.00331991 0.0181169 0.00413256 0.0302461 0.00469148 0.0239298 0.00757661 0.0404745
25 3 O -2.00465 1.14074 53.1096 -1.2 1 0.101884 0.035928 0.00267875 0.00548194 0.00312282 0.0059534 0.00219727 0.020302 0.00263045 0.0102957 0.00298778 0.0250921 0.0034924 0.0184071 0.00408839 0.0300408 0.00417291 0.0236688 0.0072795 0.0405134
26 3 O -0.0467762 2.97103 46.8385 -1.2 1 0.252634 0.0535727 0.0170737 0.0144479 0.00326406 0.0101426 0.00407838 0.0200955 0.00650636 0.0169062 0.00602092 0.0245071 0.00695353 0.019101 0.00802375 0.0251753 0.00666251 0.0236884 0.00987401 0.0327522
27 3 O -3.24657 3.26703 54.1189 -1.2 1 0.0818085 0.0313704 0.00381411 0.00438591 0.00194855 0.00578454 0.00228693 0.0203003 0.0024589 0.0101326 0.0026982 0.0246132 0.00286374 0.0180617 0.00372393 0.0308323 0.00403947 0.0239636 0.00686577 0.0411402
28 3 O -0.690223 3.32714 53.9783 -1.2 1 0.0830334 0.0319593 0.0038987 0.00459511 0.00185071 0.00601536 0.00173309 0.0206339 0.00228904 0.0100491 0.00243907 0.0250329 0.00348457 0.0185487 0.0034023 0.0307519 0.00377877 0.0242759 0.00691938 0.0411702
29 1 Mg -3.18154 11.5411 57.2632 1.2 1 0.0249701 0.0152216 0.00522176 0.00533633 0.00117049 0.00663361 0.00123895 0.0210097 0.00172016 0.00840492 0.0017851 0.0277743 0.00211772 0.0182129 0.00378753 0.0317319 0.00315038 0.0255574 0.00463481 0.0451974
30 1 Mg -1.75014 11.5838 49.8362 1.2 1 0.184941 0.0483556 0.00824087 0.0117018 0.00438953 0.0128844 0.00477899 0.0239772 0.00511909 0.0158411 0.00484972 0.0279626 0.00371583 0.0237603 0.00705581 0.0319962 0.00668369 0.0290739 0.00922574 0.0368018
31 2 Si -1.18003 9.02138 47.9309 2.4 1 0.23909 0.0523125 0.0160406 0.0145122 0.00513004 0.0130901 0.00793591 0.0228809 0.00756453 0.0170989 0.00753966 0.0260249 0.00465095 0.0226784 0.00681839 0.0295481 0.00880986 0.0285519 0.0116877 0.0334866
32 3 O -1.23224 10.5991 47.9811 -1.2 1 0.230908 0.0533326 0.0141013 0.0151684 0.00530805 0.0145679 0.00683566 0.024345 0.00750689 0.0173485 0.00762945 0.0273074 0.00501096 0.0238889 0.00864911 0.0319551 0.00915203 0.0309351 0.0109047 0.0342055
33 3 O -1.79016 8.01447 51.8693 -1.2 1 0.134409 0.0407572 0.00272978 0.0075789 0.00359597 0.00766538 0.00290214 0.021898 0.00298864 0.0126554 0.00358189 0.0258553 0.00379428 0.0199181 0.00485952 0.0300134 0.00558518 0.0258426 0.00874922 0.0380984
34 3 O -2.30986 8.37215 48.8528 -1.2 1 0.205324 0.0524332 0.0100609 0.0112388 0.00436108 0.0103978 0.00623903 0.0235352 0.00566943 0.0173799 0.0051798 0.0257957 0.00407575 0.0228554 0.00604643 0.0304179 0.00688015 0.0281226 0.00951605 0.0334065
35 1 Mg 0.154883 7.08234 46.8007 1.2 1 0.260469 0.0533637 0.0191423 0.0154326 0.00560045 0.0132303 0.00908629 0.0237259 0.00780331 0.017702 0.00770052 0.0249882 0.00709461 0.0214177 0.00866572 0.0281855 0.00978876 0.0281142 0.0126735 0.0314577
36 3 O 0.325447 8.50934 48.3809 -1.2 1 0.219834 0.0537096 0.0121024 0.0133096 0.00425648 0.0122623 0.00661581 0.0241024 0.00622699 0.0172656 0.00650762 0.0253612 0.00514649 0.0239641 0.00612874 0.0296289 0.00730298 0.0286901 0.0102841 0.0337911
37 1 Mg 0.972103 7.06301 54.6188 1.2 1 0.0705612 0.0293696 0.00415413 0.00485969 0.00198161 0.00601994 0.00241679 0.0213024 0.00239676 0.0104015 0.0025638 0.0258969 0.00376969 0.0192637 0.00376925 0.0314082 0.00369761 0.0246949 0.00712499 0.0419171
38 2 Si 1.11491 9.75175 56.3606 2.4 1 0.0365572 0.0199475 0.00607036 0.00552887 0.00140624 0.00657189 0.00220267 0.0212063 0.00210172 0.0084631 0.0033356 0.0262962 0.00261839 0.0193319 0.00471668 0.0315186 0.00321176 0.025391 0.00617019 0.0456122
39 3 O 1.22399 8.22398 56.5943 -1.2 1 0.0338028 0.0184139 0.00585792 0.00507386 0.00114039 0.00650911 0.00114987 0.0214956 0.00232385 0.00795035 0.00196174 0.0262951 0.0029133 0.0182025 0.00328488 0.0318644 0.00350095 0.0260354 0.00527828 0.0455711
40 3 O 1.28624 10.7248 52.7351 -1.2 1 0.113332 0.0375941 0.00182094 0.00688551 0.0026163 0.00962699 0.00283456 0.0224835 0.00262177 0.0117638 0.0031837 0.0264501 0.00403183 0.020685 0.00463607 0.0308624 0.00418654 0.0269515 0.00717658 0.039659
41 3 O -0.199573 10.5841 55.9081 -1.2 1 0.0489902 0.0235975 0.00532332 0.00521101 0.00134941 0.00689125 0.00197652 0.0222235 0.00195126 0.00961357 0.00262845 0.0264244 0.00303764 0.0197891 0.00406686 0.0315716 0.003328 0.0261462 0.00576471 0.0443743
42 3 O 2.39392 10.5333 55.6932 -1.2 1 0.0478321 0.0242961 0.00626609 0.00525015 0.00133874 0.0064446 0.00217888 0.021727 0.00182872 0.00966544 0.00260553 0.0262763 0.00283497 0.0197959 0.00449236 0.0323195 0.00297486 0.0265891 0.00583993 0.0444636
43 1 Mg -0.262694 9.34741 52.2523 1.2 1 0.11604 0.040286 0.0021948 0.00720327 0.00305201 0.00789981 0.0024082 0.0225913 0.00291953 0.0120708 0.00296091 0.0266083 0.00361403 0.0207351 0.00502286 0.0307241 0.004819 0.0265081 0.00764671 0.0384911
44 1 Mg 1.87648 9.01537 49.4629 1.2 1 0.1877 0.0526134 0.00667328 0.0104611 0.00313492 0.0109581 0.00645078 0.023768 0.00484217 0.0165216 0.0053504 0.0260932 0.0043208 0.0235049 0.00629239 0.0309919 0.00560538 0.0287126 0.00972364 0.0350935
45 2 Si 1.21415 11.3799 51.2378 2.4 1 0.147866 0.0458791 0.00249683 0.00918227 0.00326346 0.011118 0.00391984 0.0233878 0.00407814 0.014273 0.00426048 0.0263656 0.00399399 0.0238088 0.00592266 0.0315212 0.00413594 0.028503 0.0086328 0.0389158
46 3 O 1.31634 12.9512 51.3023 -1.2 1 0.147394 0.0444116 0.00328058 0.00944822 0.00281376 0.0120389 0.00353848 0.0235495 0.00391614 0.0141022 0.00337033 0.0281505 0.0040958 0.0235679 0.00521519 0.0323438 0.00474478 0.0290804 0.00776936 0.0399068
47 3 O 1.21039 10.4567 57.9211 -1.2 1 0.0191999 0.0119944 0.00369305 0.00495872 0.00100085 0.0069233 0.00106401 0.0216616 0.00149393 0.00798073 0.00272188 0.0268828 0.00226225 0.0185801 0.00296099 0.0321831 0.00274425 0.0258964 0.00375655 0.0461643
48 3 O -0.115718 10.7564 50.681 -1.2 1 0.157972 0.0464266 0.00428728 0.0100131 0.00398708 0.0108005 0.00399212 0.0237487 0.00382319 0.014109 0.00335297 0.0270103 0.00418115 0.0230744 0.0060735 0.0309601 0.00498386 0.02824 0.00905092 0.0379203
49 1 Mg -3.26386 9.35564 52.3622 1.2 1 0.124192 0.0394174 0.00190471 0.00683452 0.00228526 0.00944086 0.00350133 0.0224592 0.00304878 0.0128255 0.00368234 0.0262102 0.00332846 0.0207759 0.00498414 0.0308142 0.0043703 0.0264149 0.00798293 0.0378976
50 3 O 2.45216 10.7265 50.4558 -1.2 1 0.163698 0.0481719 0.00457392 0.00886359 0.00269236 0.0114864 0.00479069 0.0234602 0.0045361 0.0158861 0.00403519 0.0264439 0.00364005 0.0239583 0.00660767 0.0317408 0.00494221 0.0284143 0.00863533 0.0373795
51 1 Mg -1.8739 9.46861 55.1258 1.2 1 0.0570154 0.0267585 0.00552536 0.00543205 0.0018278 0.0065493 0.00185379 0.0217887 0.00222515 0.00946112 0.00265498 0.0264421 0.00279028 0.0196536 0.00350469 0.0313016 0.00397944 0.025863 0.00659463 0.0435817
52 2 Si -1.87569 7.40823 53.4236 2.4 1 0.0966973 0.0357714 0.00274519 0.00568705 0.00330558 0.00634658 0.00246407 0.021459 0.00294437 0.0115577 0.00313602 0.025878 0.00359031 0.0196379 0.00335268 0.0306156 0.00478353 0.0250158 0.00697421 0.039946
53 3 O -1.90407 5.85028 53.3208 -1.2 1 0.0987571 0.0337794 0.00226519 0.00508468 0.00264041 0.00658804 0.00209784 0.0208829 0.00283281 0.0105059 0.00322396 0.0248686 0.00286909 0.018323 0.00456788 0.030812 0.00386325 0.0245322 0.00767886 0.0398892
54 3 O -1.19417 8.46968 46.4488 -1.2 1 0.270267 0.0534286 0.0213644 0.017091 0.00535408 0.0146084 0.00920578 0.0246049 0.00798103 0.0179445 0.00804047 0.0253018 0.00645656 0.0216421 0.00868582 0.0296893 0.0104947 0.0299358 0.0122999 0.0314306
55 3 O -3.17609 8.0264 54.1228 -1.2 1 0.080904 0.0306139 0.0033058 0.00480138 0.00218413 0.00708272 0.00209528 0.0215054 0.00230877 0.0107067 0.00207145 0.0252533 0.00315266 0.0195594 0.00392902 0.0312664 0.00436505 0.0254573 0.00717718 0.0407393
56 3 O -0.599983 8.12384 54.0183 -1.2 1 0.0790985 0.0315155 0.00417261 0.00477734 0.00247326 0.00588108 0.00155383 0.0218457 0.00213585 0.0104348 0.00224084 0.0255081 0.00297577 0.0196714 0.00371297 0.0311615 0.00406081 0.0258022 0.00739874 0.0413062
57 1 Mg -3.08048 16.7106 57.637 1.2 1 0.0206571 0.0142966 0.00476682 0.00560312 0.00164764 0.00660841 0.00108897 0.0213041 0.00198077 0.00819178 0.00195008 0.0276927 0.0024273 0.0181796 0.0020862 0.0311453 0.00321836 0.0259772 0.00331458 0.0442954
58 1 Mg -1.6714 16.3544 49.8412 1.2 1 0.18117 0.0484732 0.00746494 0.0122816 0.00357767 0.0156155 0.0028512 0.0251581 0.00403546 0.0169786 0.00451518 0.030789 0.00351839 0.0254849 0.00719947 0.0341192 0.00528394 0.0316347 0.00868183 0.0392619
59 2 Si -1.18567 13.8526 47.9314 2.4 1 0.231963 0.0539855 0.015004 0.0164918 0.0050746 0.0185005 0.00508064 0.0266623 0.00776261 0.0193239 0.00644438 0.0308279 0.00545437 0.0283104 0.00691461 0.0338371 0.00890428 0.0330279 0.010675 0.0372388
60 3 O -1.09664 15.4205 47.9915 -1.2 1 0.233845 0.053362 0.0149911 0.0171194 0.00564927 0.0201217 0.00452407 0.0271239 0.00728077 0.0195243 0.00674971 0.0310423 0.00542329 0.0276702 0.00839628 0.0346944 0.00866202 0.0344068 0.0102379 0.0383056
61 3 O -1.73493 12.7491 51.7772 -1.2 1 0.136861 0.0421847 0.00286218 0.00932068 0.00357798 0.010588 0.00156964 0.0237064 0.00313806 0.013602 0.00287228 0.0282485 0.00413262 0.022989 0.00487325 0.0318315 0.00494102 0.028216 0.00775834 0.0407399
62 3 O -2.36115 13.2717 48.8238 -1.2 1 0.206694 0.0536696 0.0101908 0.0139737 0.00482974 0.0146123 0.00493345 0.0264475 0.00586861 0.0189223 0.0051523 0.0299459 0.00435346 0.0267477 0.00639672 0.033994 0.00719357 0.0320631 0.00951017 0.0372184
63 1 Mg -0.159928 11.7639 46.8533 1.2 1 0.259883 0.0539647 0.0195287 0.01826 0.005918 0.0201322 0.0077442 0.0275973 0.00880031 0.0194015 0.00857127 0.0298621 0.00652404 0.0271275 0.00863011 0.0330683 0.010527 0.0338415 0.0135356 0.035154
64 3 O 0.2623 13.1866 48.413 -1.2 1 0.213964 0.0530177 0.0115282 0.0147086 0.0046433 0.0164101 0.00455646 0.0259995 0.00649411 0.0182566 0.00523233 0.0290829 0.00477184 0.0279561 0.00598001 0.0332033 0.00750462 0.033029 0.00998642 0.0377411
65 1 Mg 1.43691 12.1084 54.4998 1.2 1 0.0762435 0.0317038 0.00329708 0.00536416 0.00214977 0.00802586 0.00250689 0.0216302 0.00211256 0.0106494 0.002436 0.0269789 0.00354976 0.0210569 0.00358951 0.0314255 0.00352556 0.0259598 0.00613148 0.0415261
66 2 Si 1.14206 14.4999 56.4024 2.4 1 0.0329733 0.0196284 0.00549082 0.00608064 0.00147898 0.00693206 0.00165776 0.0212787 0.00203494 0.00810196 0.00385026 0.0274096 0.00264565 0.0188753 0.00418489 0.0316931 0.00315719 0.0255328 0.00546549 0.0457432
67 3 O 1.2671 13.0237 56.532 -1.2 1 0.0319735 0.0185679 0.0055447 0.00574429 0.0016979 0.00685328 0.00122239 0.0218331 0.00260149 0.0077544 0.00216971 0.0269994 0.00250663 0.0185449 0.002773 0.0321893 0.00355902 0.0263966 0.0045127 0.0465088
68 3 O 1.36565 15.4813 52.729 -1.2 1 0.112582 0.0384485 0.000737905 0.00788272 0.0021592 0.0114308 0.00324022 0.0236477 0.00245461 0.0128265 0.00362998 0.0283994 0.00409469 0.0219942 0.00520225 0.0319682 0.00367665 0.0289358 0.00664261 0.0417989
69 3 O -0.139335 15.1654 55.831 -1.2 1 0.0476166 0.0243173 0.005031 0.00611396 0.00155891 0.00723546 0.00200564 0.0221904 0.00154046 0.00931278 0.00298469 0.027096 0.00189253 0.019518 0.00404011 0.0319405 0.00292718 0.0269467 0.00538712 0.0454727
70 3 O 2.4541 15.2037 55.7016 -1.2 1 0.0439794 0.0238156 0.00580928 0.0059356 0.00153002 0.00685249 0.00211219 0.0217999 0.00179119 0.00898069 0.0034153 0.0267539 0.00217273 0.0196362 0.00372486 0.0324563 0.00298782 0.0273514 0.00542921 0.0446327
71 1 Mg -0.206989 14.1049 52.2121 1.2 1 0.118827 0.0420051 0.00124244 0.00832377 0.00280142 0.00964415 0.00234997 0.0238347 0.00230149 0.0130157 0.00340351 0.0285709 0.00356313 0.0228051 0.00500926 0.032424 0.00346984 0.0287708 0.0073863 0.0407974
72 1 Mg 1.82591 13.8102 49.4556 1.2 1 0.185903 0.0532188 0.00639115 0.0117735 0.00327015 0.014051 0.00450578 0.0250807 0.00502512 0.0174967 0.00503515 0.029108 0.00449538 0.0266237 0.00650553 0.034173 0.0060109 0.0316165 0.0090528 0.0381254
73 2 Si 1.29285 16.1518 51.2434 2.4 1 0.146035 0.0464384 0.00228642 0.00984803 0.0027464 0.0130079 0.00341265 0.0243912 0.00342628 0.0153696 0.00486003 0.0282032 0.00391813 0.0251828 0.00647451 0.0328676 0.00401387 0.0310848 0.00834484 0.0408935
74 3 O 1.39496 17.7199 51.3047 -1.2 1 0.143848 0.0439877 0.00288812 0.00929429 0.00204066 0.0131508 0.00323769 0.0235671 0.0034671 0.0146163 0.00346067 0.0291793 0.00374654 0.0241432 0.0054601 0.0333552 0.00464912 0.0305484 0.00714354 0.0408499
75 3 O 1.20185 15.2036 57.9543 -1.2 1 0.0166674 0.011927 0.00403116 0.00554683 0.000996951 0.00723404 0.00108583 0.0216207 0.00209961 0.00755443 0.00276707 0.0271986 0.00214961 0.0184437 0.00221496 0.0315932 0.00322052 0.0257284 0.00318952 0.0464835
76 3 O -0.0269106 15.5178 50.6688 -1.2 1 0.158166 0.0468772 0.00479217 0.0106868 0.00357994 0.0132593 0.00355906 0.0248109 0.00323256 0.0153268 0.00319428 0.0290675 0.00398864 0.0253975 0.00629615 0.0328933 0.00368913 0.0311312 0.00838135 0.0404142
77 1 Mg -3.18391 14.1057 52.3125 1.2 1 0.124511 0.0415867 0.00160484 0.00816526 0.00224243 0.011359 0.0024311 0.0236 0.00295433 0.0136702 0.00283543 0.0285936 0.00364852 0.0232439 0.00440522 0.0320172 0.00397522 0.0284218 0.00679688 0.0400834
78 3 O 2.52432 15.503 50.4579 -1.2 1 0.16215 0.0488436 0.00480253 0.00997362 0.00254698 0.0139555 0.00347951 0.0244571 0.00398421 0.016895 0.00354116 0.0288898 0.00372704 0.0258462 0.00619983 0.033512 0.00465038 0.0308627 0.00800006 0.039822
79 1 Mg -1.79057 14.3056 55.1894 1.2 1 0.0540524 0.0269855 0.00563876 0.00618224 0.00189952 0.00713282 0.00183441 0.0223911 0.00219454 0.00927727 0.00319121 0.0279594 0.0020356 0.0200408 0.00381436 0.0321998 0.00397149 0.0268629 0.00584851 0.0445984
80 2 Si -1.65281 12.1043 53.2165 2.4 1 0.102159 0.0372419 0.00212078 0.00731894 0.00304813 0.00870119 0.00164807 0.0228178 0.00314395 0.0121121 0.0025771 0.026999 0.00376365 0.0222241 0.00353482 0.0314759 0.00474093 0.0270078 0.00657028 0.042078
81 3 O -1.65335 10.42 53.1616 -1.2 1 0.0992083 0.0352297 0.00256686 0.00640824 0.00314114 0.00812162 0.00149482 0.0216688 0.00274557 0.0108837 0.00273752 0.0261345 0.00353008 0.0204263 0.00434864 0.0311223 0.00404549 0.0259106 0.00803034 0.0412302
82 3 O -1.21337 13.3381 46.4311 -1.2 1 0.271225 0.0533494 0.0216756 0.0198758 0.00664631 0.0209512 0.00728422 0.0295035 0.00881285 0.0203401 0.00736393 0.0313737 0.00602787 0.0267373 0.00883008 0.0353701 0.0126173 0.0357397 0.0135373 0.0357159
83 3 O -2.93979 12.7957 53.9625 -1.2 1 0.0854735 0.0331544 0.00260918 0.00583993 0.00216643 0.00888788 0.00161064 0.0223347 0.00181593 0.0112971 0.00218019 0.026746 0.00313611 0.0212795 0.00340188 0.0320444 0.00319039 0.0271744 0.00636835 0.0421961
84 3 O -0.330668 12.7966 53.8124 -1.2 1 0.0863187 0.0338008 0.00255895 0.00618572 0.0033127 0.00728734 0.00172076 0.022647 0.00235601 0.0112079 0.00240005 0.02695 0.00354788 0.0218356 0.00370415 0.0318408 0.0039143 0.0272507 0.00605867 0.0421618
85 1 Mg -3.1266 21.2029 57.4486 1.2 1 0.0201447 0.0147817 0.00514732 0.0052804 0.00133355 0.00712499 0.00105988 0.0217289 0.00186011 0.00849695 0.00213541 0.0268554 0.00173078 0.0189153 0.00220776 0.0315485 0.00333469 0.026509 0.00406772 0.045961
86 1 Mg -1.5831 21.1217 49.8405 1.2 1 0.180891 0.0483981 0.00707683 0.0121828 0.00332193 0.0159246 0.00234039 0.0255198 0.00408855 0.0172497 0.00429343 0.0307911 0.00407459 0.0253096 0.00615808 0.0343839 0.00520251 0.032189 0.00856218 0.039606
87 2 Si -1.09384 18.6291 47.9287 2.4 1 0.233013 0.0539184 0.014455 0.0168851 0.00414303 0.0210491 0.00386435 0.0273414 0.00679665 0.0199288 0.00568539 0.0318164 0.00605813 0.0283069 0.00687079 0.0351123 0.00891383 0.0345055 0.0103271 0.0395208
88 3 O -1.02071 20.1985 47.9911 -1.2 1 0.232988 0.0527255 0.0142946 0.0169653 0.0047638 0.0212681 0.00399027 0.0271976 0.00634483 0.0198664 0.00599632 0.0314242 0.00609498 0.0276152 0.00787313 0.035436 0.00802654 0.0348925 0.0101409 0.0396684
89 3 O -1.65002 17.5002 51.771 -1.2 1 0.134893 0.0417834 0.00246247 0.0096003 0.00280832 0.0123184 0.00158791 0.0237207 0.00240811 0.0137424 0.0027187 0.0290666 0.00383565 0.0232099 0.00449645 0.0330482 0.00473505 0.0294355 0.00703189 0.0411278
90 3 O -2.26174 18.0434 48.8281 -1.2 1 0.203381 0.0529148 0.00912555 0.0142067 0.00373899 0.0175079 0.00329331 0.0267564 0.00487217 0.0194297 0.00421182 0.0314374 0.00424956 0.0271275 0.0062269 0.034884 0.00654893 0.0337934 0.00868331 0.0390202
91 1 Mg -0.0440435 16.5651 46.8269 1.2 1 0.255248 0.054258 0.0181905 0.0193261 0.00535897 0.0243588 0.00505507 0.0303032 0.00820561 0.0216612 0.00647895 0.033455 0.00641323 0.029232 0.00833871 0.0350551 0.0097435 0.0367427 0.0112828 0.0394294
92 3 O 0.37001 17.9877 48.3925 -1.2 1 0.216428 0.0536989 0.0110653 0.0154449 0.00416328 0.0187377 0.00328749 0.0274476 0.00577717 0.019356 0.00418661 0.0310111 0.0049617 0.0284373 0.00627601 0.034714 0.00771057 0.0352642 0.00946706 0.040273
93 1 Mg 1.4089 16.459 54.521 1.2 1 0.074838 0.03199 0.00331803 0.00620235 0.00182604 0.00859735 0.00256323 0.0219197 0.00189468 0.0106729 0.00279536 0.02772 0.00301781 0.021012 0.00384577 0.0324435 0.00382988 0.0272393 0.00509766 0.0427256
94 2 Si 1.4076 19.1977 56.3889 2.4 1 0.0331805 0.0205248 0.00587937 0.0062661 0.000848556 0.00719103 0.00139694 0.0211867 0.00194827 0.00829654 0.00429025 0.026312 0.00251949 0.0197418 0.00409028 0.0315712 0.00300289 0.0258372 0.00519617 0.045423
95 3 O 1.43748 17.6704 56.7189 -1.2 1 0.0268724 0.017361 0.00565679 0.00601175 0.00141659 0.00668222 0.00144424 0.0213587 0.00272411 0.00745715 0.00286317 0.0269658 0.0024205 0.0184603 0.00312282 0.0314547 0.00404638 0.0261143 0.00462973 0.0451973
96 3 O 1.45147 20.239 52.7294 -1.2 1 0.10993 0.037429 0.00110993 0.00731169 0.00136238 0.0119904 0.00284904 0.0231805 0.00223239 0.0125105 0.0033977 0.028338 0.00392526 0.0221167 0.00438211 0.0327455 0.00375407 0.0289183 0.00660949 0.0424132
97 3 O 0.160722 19.8314 55.6192 -1.2 1 0.0498852 0.0252454 0.00480805 0.00563458 0.00102397 0.00761582 0.00160154 0.0214685 0.00176289 0.00925461 0.00282985 0.0266323 0.00194675 0.0201664 0.00369406 0.0324765 0.00285177 0.0265272 0.00486341 0.0441174
98 3 O 2.73893 19.8019 55.681 -1.2 1 0.0416519 0.0237597 0.00611448 0.00557937 0.00136602 0.00723407 0.00171579 0.0219052 0.00191327 0.00854661 0.00271468 0.0264397 0.00244694 0.019745 0.00292263 0.0322609 0.00354247 0.0271254 0.00520294 0.0450735
99 1 Mg -0.126194 18.8651 52.2079 1.2 1 0.116523 0.0414842 0.00150059 0.00853432 0.00231122 0.0104292 0.00217058 0.0235291 0.00208877 0.0132994 0.00310497 0.0288515 0.00328902 0.0229998 0.00491593 0.0335609 0.0034477 0.0298414 0.00718596 0.0415134
100 1 Mg 1.92402 18.5815 49.4545 1.2 1 0.183017 0.0527963 0.00551961 0.0116233 0.0020011 0.0154536 0.00360701 0.0253146 0.00398979 0.0183535 0.00361524 0.0304042 0.00464237 0.0267034 0.00528443 0.0354212 0.00585992 0.0331959 0.0088957 0.0401851
101 2 Si 1.38106 20.9117 51.2443 2.4 1 0.147133 0.0465777 0.00213423 0.00983408 0.00229147 0.0136869 0.00325445 0.0244782 0.00328602 0.0154786 0.00429165 0.0284076 0.00425033 0.0248695 0.00550982 0.0338306 0.00380917 0.0318085 0.00836551 0.0419584
102 3 O 1.48527 22.4795 51.3054 -1.2 1 0.140664 0.0425777 0.00249705 0.00845187 0.00175402 0.0131023 0.00258934 0.0237615 0.00345755 0.0143011 0.00294965 0.0286137 0.00364694 0.0234254 0.00461832 0.0339504 0.00488909 0.03057 0.00735534 0.0417668
103 3 O 1.3973 19.9678 57.8915 -1.2 1 0.015305 0.0123589 0.00420915 0.00564839 0.00107836 0.00691458 0.00124536 0.020948 0.00190214 0.00749064 0.0027981 0.0264982 0.0021028 0.0187426 0.00267477 0.0319 0.00296626 0.0257949 0.0036059 0.0454768
104 3 O 0.0615419 20.2804 50.6669 -1.2 1 0.156266 0.0465588 0.00421738 0.0106923 0.00333442 0.0139663 0.00312425 0.0242898 0.00328791 0.0152751 0.00286139 0.0290456 0.00422893 0.025473 0.00567602 0.0339005 0.00383118 0.0316134 0.00817934 0.0412652
105 1 Mg -3.09665 18.8643 52.3122 1.2 1 0.124008 0.0411017 0.00133915 0.00833176 0.00166321 0.0123279 0.00225288 0.0234103 0.00231053 0.0138466 0.0029897 0.0289287 0.00339884 0.0231688 0.0038859 0.0330882 0.00404589 0.0295524 0.00611084 0.0410118
106 3 O 2.61548 20.2646 50.4626 -1.2 1 0.159894 0.0481782 0.00381626 0.00984709 0.00159313 0.014454 0.00320737 0.024611 0.00317746 0.0167034 0.00325093 0.0292991 0.00398119 0.0253817 0.00530935 0.0343486 0.0045272 0.0315031 0.00761073 0.0407847
107 1 Mg -1.51519 19.0171 55.1436 1.2 1 0.0537807 0.0275029 0.00561883 0.00639788 0.00194204 0.00729638 0.00196743 0.0222833 0.00232672 0.00938562 0.00334698 0.027211 0.00235954 0.020596 0.00367888 0.0322679 0.00426245 0.0272961 0.00513774 0.0438141
108 2 Si -1.73219 16.8011 53.188 2.4 1 0.100005 0.0377362 0.00236298 0.00774581 0.00218645 0.00918071 0.00162195 0.0225584 0.00258784 0.011936 0.0027639 0.0277409 0.0031594 0.022311 0.003546 0.0328309 0.00413719 0.0284171 0.00622215 0.0424855
109 3 O -1.71416 15.3103 53.1655 -1.2 1 0.098966 0.0365178 0.002148 0.00754034 0.00257693 0.00932698 0.00117765 0.0226269 0.00261779 0.0115177 0.0029261 0.0280102 0.00292462 0.0213562 0.00414209 0.0323589 0.00356131 0.0276967 0.00694673 0.0429118
110 3 O -1.12868 18.1227 46.4249 -1.2 1 0.269581 0.0541424 0.0205357 0.0205234 0.00581342 0.0244036 0.0054813 0.0310721 0.00722788 0.0214806 0.00598773 0.0338264 0.00700802 0.0272243 0.00927075 0.0371031 0.011632 0.0380725 0.0125823 0.0395003
111 3 O -3.03785 17.557 53.8619 -1.2 1 0.0849446 0.0335787 0.00276173 0.00657846 0.00156636 0.010179 0.00202972 0.0226601 0.00217975 0.0111855 0.00214601 0.0270652 0.00294878 0.0219446 0.00270373 0.0319347 0.00384776 0.0280437 0.00545056 0.0425132
112 3 O -0.324754 17.4779 53.9648 -1.2 1 0.077521 0.0325731 0.00367565 0.0065489 0.00233471 0.00751707 0.00146271 0.0226935 0.00209115 0.0105227 0.00267947 0.0267436 0.00249411 0.0216463 0.00352357 0.0325223 0.00356994 0.0281703 0.00561942 0.0427711
113 1 Mg -2.75645 25.9574 57.2984 1.2 1 0.019508 0.0147187 0.00496256 0.00550812 0.000960596 0.00723411 0.0013141 0.0215951 0.00160533 0.00860523 0.00120935 0.0274108 0.0017975 0.0192162 0.00196517 0.0323578 0.00253719 0.026104 0.00358121 0.0467408
114 1 Mg -1.48778 25.88 49.8402 1.2 1 0.179378 0.0481908 0.00751029 0.0119526 0.00310534 0.0159347 0.00249126 0.0258757 0.00353894 0.0170836 0.0042327 0.0301648 0.0040708 0.0254071 0.00613893 0.0346312 0.00520939 0.0321562 0.00864459 0.0399583
115 2 Si -1.00491 23.3922 47.9274 2.4 1 0.23552 0.0532654 0.0150452 0.0169695 0.00431578 0.0218599 0.00375225 0.0276363 0.0065102 0.0200302 0.00535459 0.0316538 0.00630601 0.0280975 0.00694807 0.0354193 0.00868287 0.0349256 0.0108704 0.0397957
116 3 O -0.927602 24.9615 47.9909 -1.2 1 0.231784 0.0519293 0.0145833 0.0164472 0.00446871 0.0213081 0.00357784 0.0275634 0.00622379 0.0196983 0.00585522 0.0311301 0.00605142 0.0275313 0.0078742 0.035802 0.00776101 0.0348812 0.0102117 0.0399556
117 3 O -1.55795 22.2588 51.7696 -1.2 1 0.135257 0.0418497 0.00252084 0.00932018 0.00302869 0.0124355 0.00149762 0.0236718 0.0024211 0.0137176 0.00263744 0.0288491 0.00380198 0.0232162 0.00421325 0.0336077 0.0050301 0.0295821 0.00722973 0.0420581
118 3 O -2.17411 22.8111 48.8277 -1.2 1 0.200878 0.0518665 0.00923766 0.0137167 0.00326833 0.0175637 0.00286519 0.0270051 0.0044794 0.0190261 0.00389585 0.0309765 0.00461016 0.0263879 0.00601291 0.0350785 0.00629127 0.0339618 0.00895278 0.0393667
119 1 Mg 0.0423997 21.3296 46.8225 1.2 1 0.260939 0.0538754 0.0187104 0.0196536 0.0053951 0.025694 0.00567325 0.0307815 0.00772425 0.0219122 0.00659663 0.0334211 0.0074977 0.0284503 0.00932779 0.0355715 0.00943873 0.037515 0.012062 0.0394601
120 3 O 0.458537 22.7495 48.3911 -1.2 1 0.210967 0.0524373 0.010882 0.0145989 0.0038732 0.0188052 0.00259745 0.0270025 0.00534476 0.0191879 0.00385397 0.0305192 0.00538943 0.0279813 0.00567305 0.0348844 0.00713063 0.0351241 0.00958381 0.040617