ITEM: TIMESTEP
23100
ITEM: NUMBER OF ATOMS
10500
ITEM: BOX BOUNDS xy xz yz pp pp pp
0	8.9688	2.9896
0	118.725	0
0	252.977	0
ITEM: ATOMS id type element xu yu zu q Q_1 Q_2 Q_3 Q_4 Q_5 Q_6 Q_7 Q_8 Q_9 Q_10 Q_11 Q_12 Q_13 Q_14 Q_15 Q_16 Q_17 Q_18 Q_19 Q_20 Q_21
1 1 Mg -3.38182 7.00671 57.4994 1.2 1 0.0209087 0.015369 0.00497176 0.00599821 0.00138508 0.006236 0.000878642 0.0227574 0.00183686 0.00873847 0.00179472 0.0288352 0.00225927 0.0194415 0.00213974 0.0326535 0.00234287 0.0255592 0.004268 0.0495125
2 1 Mg -1.82655 6.90154 50.0912 1.2 1 0.175286 0.0474785 0.00667154 0.00926237 0.00311833 0.0084651 0.00404759 0.022744 0.00474605 0.0139631 0.00473775 0.0256894 0.00473727 0.0205415 0.00686309 0.0298521 0.00531711 0.0258233 0.00886938 0.0357098
3 2 Si -0.257935 3.96038 48.0876 2.4 1 0.226251 0.0524621 0.0120603 0.012062 0.00258411 0.00940739 0.00336863 0.0200841 0.00546866 0.0165465 0.00425026 0.0243535 0.0054072 0.0207489 0.00590024 0.0271754 0.00682731 0.0249175 0.0085839 0.0328364
4 3 O -0.335812 5.46814 47.6264 -1.2 1 0.233556 0.0521854 0.0138692 0.013155 0.00339182 0.0104535 0.00436779 0.0208149 0.0059304 0.0171287 0.00457777 0.024878 0.00496245 0.021301 0.00596157 0.0275437 0.00725813 0.0257023 0.00919887 0.031481
5 3 O -2.03793 3.43377 51.8941 -1.2 1 0.129389 0.0410081 0.00287443 0.00652506 0.00212541 0.00663641 0.00263946 0.0203349 0.00230292 0.0111931 0.0033137 0.0254448 0.00379493 0.0179765 0.00429199 0.0300162 0.0050533 0.0240509 0.00804178 0.0386465
6 3 O -1.54015 3.53929 48.9521 -1.2 1 0.203412 0.0509824 0.00961839 0.0103711 0.00258291 0.00824221 0.00338275 0.0197941 0.00461228 0.0149998 0.00464074 0.0237489 0.00420039 0.0200113 0.00599066 0.0283346 0.00568703 0.0242663 0.00881826 0.0328838
7 1 Mg 1.82954 2.54582 47.1376 1.2 1 0.246111 0.0521701 0.0163624 0.0150784 0.00303063 0.0109013 0.00327719 0.020207 0.0053402 0.0157883 0.00487919 0.0239118 0.00588815 0.0201218 0.00744981 0.0255326 0.00657158 0.0236222 0.0082613 0.0305859
8 3 O 1.22989 3.66364 48.7877 -1.2 1 0.206722 0.0500912 0.0100322 0.0114206 0.00211678 0.00938957 0.00377188 0.0202899 0.00381229 0.0147817 0.00375687 0.0237425 0.00488829 0.0199885 0.00626774 0.0273888 0.00459743 0.024346 0.00883448 0.0337431
9 1 Mg 1.07557 2.22815 54.6329 1.2 1 0.0683192 0.029634 0.00483942 0.00487248 0.00146176 0.00504147 0.00238033 0.0210337 0.00248794 0.0096689 0.00262598 0.0264203 0.00360212 0.0197771 0.00433614 0.0321984 0.00313271 0.024533 0.00625526 0.0441345
10 2 Si 1.04723 5.05785 56.4757 2.4 1 0.030948 0.0198828 0.00590213 0.00587686 0.00131045 0.00604194 0.00197042 0.021588 0.00196338 0.00816102 0.00380285 0.0273096 0.00318433 0.0195949 0.00509332 0.032832 0.00297197 0.0252383 0.00603444 0.0491065
11 3 O 1.02805 3.46736 56.5628 -1.2 1 0.0340755 0.0204535 0.00594675 0.005473 0.0011509 0.0054997 0.00207874 0.0212271 0.00251096 0.00812075 0.00227565 0.0277081 0.00284714 0.0189412 0.0033151 0.0325098 0.00359683 0.0255407 0.00518253 0.047955
12 3 O 1.10813 6.07342 52.8172 -1.2 1 0.104788 0.0362774 0.00238559 0.00580435 0.00246023 0.00682228 0.00326748 0.0221694 0.00313561 0.0105775 0.00292124 0.0265545 0.0039012 0.0188799 0.00375715 0.031248 0.00417977 0.0250722 0.00684203 0.0413188
13 3 O -0.176871 5.70703 55.6584 -1.2 1 0.0470618 0.0251752 0.00575583 0.005077 0.00121575 0.0054484 0.00236966 0.0221454 0.00240939 0.00980044 0.00227433 0.0273901 0.00302861 0.0195327 0.0040283 0.032706 0.0028994 0.0256145 0.00546647 0.0472227
14 3 O 2.34589 5.74171 55.7332 -1.2 1 0.0430598 0.0245142 0.00632556 0.00500214 0.00119334 0.00574591 0.00208428 0.022175 0.00181422 0.00887483 0.00258849 0.0277866 0.00307509 0.0195739 0.00405348 0.0332862 0.00282783 0.0259271 0.00571197 0.0474108
15 1 Mg -0.459401 4.67631 52.2426 1.2 1 0.123979 0.0410123 0.00253214 0.00637958 0.00248472 0.0063672 0.00247762 0.0210839 0.00302488 0.0118105 0.00303908 0.0265413 0.00389887 0.0190891 0.00441108 0.0303493 0.00413008 0.0240925 0.00693159 0.0385262
16 1 Mg 2.79456 3.9971 49.9987 1.2 1 0.177337 0.0494505 0.00650183 0.00941337 0.0025427 0.00760384 0.00429378 0.0207354 0.00314148 0.0145598 0.003192 0.0243563 0.00472052 0.020272 0.00668853 0.0292838 0.00437478 0.0248535 0.0094077 0.0343598
17 2 Si 1.16169 6.59457 51.2556 2.4 1 0.149223 0.045638 0.00273141 0.00828844 0.00245043 0.00834744 0.00382056 0.0219282 0.00418114 0.0131925 0.00450056 0.025263 0.00420982 0.0205666 0.00647449 0.0310311 0.00430086 0.0259768 0.0091283 0.0378811
18 3 O 1.28989 8.18905 51.2909 -1.2 1 0.145219 0.0442903 0.00281049 0.00831301 0.00238183 0.00880698 0.00401224 0.0224715 0.0041361 0.01276 0.00381075 0.0271741 0.00415648 0.0207482 0.00490122 0.0310467 0.00494328 0.0260825 0.00844923 0.0394739
19 3 O 1.02246 5.75482 57.8701 -1.2 1 0.0155204 0.0131391 0.00404321 0.00622428 0.0011942 0.00645315 0.00089006 0.0220713 0.00187843 0.00792174 0.00262417 0.0282702 0.00227741 0.0192754 0.00296284 0.0328799 0.00258803 0.0260023 0.00386773 0.0501181
20 3 O -0.184847 6.06029 50.6845 -1.2 1 0.159657 0.0446212 0.00517457 0.00843211 0.00324034 0.00767893 0.00381201 0.021779 0.00389839 0.0131893 0.00319803 0.0251942 0.00414326 0.0197022 0.00606875 0.0294888 0.00478512 0.0250377 0.00868491 0.0373623
21 1 Mg -3.49704 4.67769 52.6661 1.2 1 0.113853 0.0381347 0.00235536 0.00560119 0.00243042 0.00689047 0.0030891 0.0205177 0.00318128 0.0109355 0.00345387 0.0259921 0.00376458 0.0187219 0.0041239 0.0302416 0.00381013 0.0240681 0.0076665 0.0397872
22 3 O 2.48581 5.93312 50.6539 -1.2 1 0.156395 0.0463517 0.0040371 0.0076473 0.00175203 0.00847492 0.00386577 0.0217634 0.00412935 0.0131248 0.00413332 0.0250444 0.00425168 0.0204179 0.0063311 0.0304996 0.00414114 0.0254612 0.00891117 0.0366322
23 1 Mg -1.91339 4.77933 55.0877 1.2 1 0.0540006 0.0272829 0.00600292 0.00498431 0.00173722 0.00562171 0.00207176 0.0215417 0.00295759 0.00932883 0.00317654 0.0278221 0.00276228 0.0196527 0.00357556 0.032655 0.00396216 0.0253471 0.00606747 0.0452595
24 2 Si -1.94612 2.59883 53.4037 2.4 1 0.0984952 0.0355121 0.00317587 0.0055399 0.00264571 0.00602768 0.00195138 0.0205382 0.00262831 0.0108054 0.0028429 0.0257447 0.00300942 0.0190896 0.00364697 0.0310115 0.00413957 0.0241445 0.00665947 0.0411575
25 3 O -1.94138 1.0557 53.2609 -1.2 1 0.096487 0.0349318 0.00276668 0.00577233 0.00302979 0.00545774 0.00199442 0.0205895 0.00252967 0.0101482 0.00263746 0.0259812 0.0029172 0.0190958 0.00396859 0.0311522 0.00381796 0.0236655 0.0066632 0.0412368
26 3 O -0.0467762 2.97103 46.8385 -1.2 1 0.255456 0.0528533 0.0172442 0.014602 0.00300425 0.00991473 0.00360639 0.0198457 0.0062292 0.0166493 0.00613743 0.0237624 0.00729535 0.0195144 0.00866197 0.0252835 0.00679778 0.023813 0.00964482 0.0316225
27 3 O -3.21207 3.23473 54.1858 -1.2 1 0.0773004 0.0318776 0.00436921 0.00452837 0.0021445 0.0054174 0.0019917 0.0206696 0.00285029 0.0100924 0.00230229 0.0259886 0.00279895 0.0191333 0.00364897 0.0317057 0.00359829 0.0241037 0.00651241 0.0429601
28 3 O -0.714463 3.24838 54.0489 -1.2 1 0.0815686 0.0327416 0.00431413 0.00492497 0.00205142 0.00589691 0.00153109 0.0210764 0.00262802 0.0103837 0.0024634 0.0261869 0.00308287 0.0198537 0.00317825 0.0318071 0.00320069 0.0247605 0.00629737 0.0426188
29 1 Mg -3.26526 11.7357 57.5067 1.2 1 0.0212276 0.0148704 0.0046367 0.00581123 0.00131255 0.00608711 0.00113071 0.0236106 0.00250015 0.00922 0.0016568 0.0296876 0.00229268 0.0193391 0.00176005 0.0330935 0.00256866 0.025361 0.00341511 0.0501275
30 1 Mg -1.75014 11.5838 49.8362 1.2 1 0.183653 0.048584 0.00752585 0.0123125 0.0041124 0.0122134 0.00462889 0.024342 0.00589728 0.0154076 0.00527908 0.0288637 0.00446944 0.0231623 0.00704652 0.0325093 0.00651477 0.0284204 0.00965759 0.038235
31 2 Si -1.18003 9.02138 47.9309 2.4 1 0.239103 0.0520858 0.0155954 0.0150282 0.0050622 0.0126891 0.00743119 0.0226506 0.00820881 0.0166701 0.00718934 0.0264791 0.00514326 0.022365 0.00670122 0.0298721 0.00876996 0.0278425 0.0119546 0.0344375
32 3 O -1.23224 10.5991 47.9811 -1.2 1 0.229109 0.0529614 0.0133027 0.0154855 0.00481335 0.0136873 0.00613244 0.0239986 0.00814167 0.0169559 0.00691761 0.0278913 0.00556109 0.0232013 0.00777426 0.0319818 0.00876498 0.0298502 0.010804 0.0351858
33 3 O -1.79016 8.01447 51.8693 -1.2 1 0.132786 0.0414021 0.00218822 0.00800016 0.00361932 0.0073196 0.00296185 0.0224222 0.00373997 0.0121196 0.00370358 0.0273678 0.00396642 0.02004 0.00461654 0.0314814 0.00518345 0.0250946 0.0086856 0.0400718
34 3 O -2.30986 8.37215 48.8528 -1.2 1 0.203697 0.0520686 0.00930516 0.0116463 0.0039514 0.0102742 0.00583867 0.023302 0.00626067 0.0166056 0.0049711 0.0266884 0.00433099 0.0224012 0.00612591 0.0309573 0.00645707 0.027685 0.00960935 0.0345638
35 1 Mg 0.154883 7.08234 46.8007 1.2 1 0.258803 0.0523117 0.0183759 0.0154402 0.00555647 0.0133571 0.00801319 0.0232659 0.00770032 0.0172236 0.00734047 0.0251941 0.00691359 0.0216579 0.00831717 0.0287582 0.00952923 0.0278314 0.0125023 0.031774
36 3 O 0.325447 8.50934 48.3809 -1.2 1 0.218337 0.053182 0.0114046 0.0133794 0.00385141 0.0119162 0.0060269 0.0236849 0.00668946 0.0166385 0.00583963 0.0260141 0.00537417 0.0233322 0.00563231 0.030109 0.00704794 0.0283438 0.0104189 0.0346538
37 1 Mg 1.12603 7.17628 54.6162 1.2 1 0.0673375 0.0302456 0.004635 0.00536867 0.00171849 0.0059288 0.00253285 0.0218906 0.00240846 0.00980141 0.00301193 0.0275109 0.00329468 0.0197321 0.00374345 0.0325672 0.00305699 0.0244195 0.00667812 0.0448819
38 2 Si 1.37674 9.71696 56.3673 2.4 1 0.0345332 0.0208993 0.00564938 0.00638686 0.00101838 0.00601882 0.0018545 0.0229813 0.00222025 0.00896448 0.00297659 0.0279815 0.00224175 0.019953 0.00370645 0.0331399 0.00259414 0.0253023 0.00549134 0.0499332
39 3 O 1.1827 8.16364 56.5203 -1.2 1 0.0304704 0.0193148 0.00551797 0.0060965 0.000888858 0.00583479 0.00173502 0.022411 0.00317732 0.0078598 0.00224775 0.0284501 0.0029008 0.0184999 0.0028605 0.0330232 0.00333887 0.0252934 0.004827 0.0495076
40 3 O 1.28624 10.7248 52.7351 -1.2 1 0.110645 0.0378333 0.00149326 0.00741797 0.00217521 0.00915775 0.00297065 0.023596 0.00331328 0.0116773 0.00408454 0.0283185 0.00426866 0.0207179 0.00468912 0.0324502 0.00393999 0.0264491 0.00767285 0.0428449
41 3 O 0.0444759 10.4871 55.7193 -1.2 1 0.047722 0.0245189 0.00480511 0.00587736 0.00111695 0.00589755 0.00190603 0.0228511 0.00216378 0.00960543 0.00274613 0.0283098 0.00275751 0.0199035 0.0042768 0.0334879 0.00300945 0.0256119 0.00572054 0.0483439
42 3 O 2.61749 10.3926 55.7035 -1.2 1 0.0441077 0.0244521 0.00581751 0.00602126 0.00101226 0.00592503 0.00221231 0.0230343 0.00220144 0.00973632 0.00267233 0.0282644 0.00284765 0.0200741 0.00353576 0.0336138 0.0030166 0.026041 0.00582184 0.0489676
43 1 Mg -0.262694 9.34741 52.2523 1.2 1 0.113141 0.0407314 0.00227568 0.00754391 0.00277378 0.00739268 0.00229077 0.023453 0.00341292 0.0118423 0.00354012 0.0282965 0.00368627 0.0203414 0.00511849 0.0324431 0.00388549 0.0263158 0.00827309 0.0413201
44 1 Mg 1.87648 9.01537 49.4629 1.2 1 0.182252 0.0518521 0.00568365 0.0104709 0.00253593 0.010164 0.00565462 0.0231097 0.00535633 0.0156946 0.00461997 0.0271869 0.00491548 0.0226859 0.00592049 0.0315364 0.00492482 0.0279204 0.0100332 0.036506
45 2 Si 1.21415 11.3799 51.2378 2.4 1 0.146124 0.0464684 0.00187649 0.0098011 0.00266824 0.0103389 0.00372693 0.0242213 0.00470389 0.0141641 0.00498475 0.0279329 0.00439854 0.0229112 0.00588936 0.0322787 0.00474815 0.0278617 0.00935735 0.0412498
46 3 O 1.31634 12.9512 51.3023 -1.2 1 0.147007 0.0454283 0.00309375 0.00979047 0.00216979 0.0111795 0.00344833 0.0244386 0.00495682 0.0143331 0.00351187 0.0294317 0.00465993 0.0236717 0.00469273 0.0326969 0.00528445 0.0283351 0.008145 0.0417943
47 3 O 1.29655 10.3759 57.8441 -1.2 1 0.0168148 0.0125237 0.00393175 0.00610673 0.00106638 0.00643139 0.00120645 0.0231306 0.00232801 0.00827098 0.00224086 0.0288772 0.00240828 0.0192605 0.00248215 0.0328454 0.0025001 0.0253801 0.00372103 0.0508332
48 3 O -0.115718 10.7564 50.681 -1.2 1 0.154961 0.0464509 0.003333 0.0102595 0.00336323 0.0100738 0.00356456 0.0243936 0.00468017 0.0139292 0.00395339 0.0279801 0.00466117 0.0224004 0.00622138 0.0317651 0.00492632 0.0277062 0.00930711 0.0400712
49 1 Mg -3.26386 9.35564 52.3622 1.2 1 0.123086 0.0402714 0.00144276 0.00719748 0.00231363 0.00907607 0.00353844 0.023165 0.00406888 0.0121169 0.00413102 0.0277449 0.00356769 0.0204349 0.00460833 0.0324821 0.00400827 0.0262 0.00780857 0.0403113
50 3 O 2.45216 10.7265 50.4558 -1.2 1 0.161268 0.0483271 0.00390782 0.0093604 0.00242141 0.0109611 0.00434096 0.023697 0.00525925 0.0152116 0.00436745 0.0275842 0.0041543 0.0230815 0.00621718 0.0323223 0.0051936 0.0279247 0.0090604 0.0393947
51 1 Mg -1.62691 9.41681 55.2573 1.2 1 0.0509863 0.0268625 0.00543256 0.00636528 0.00157963 0.0057498 0.00227548 0.0232412 0.00303083 0.0094244 0.00381294 0.0283935 0.00267232 0.0199708 0.00413094 0.0330149 0.00385927 0.0254756 0.00639583 0.048106
52 2 Si -1.78126 7.37416 53.3331 2.4 1 0.0971651 0.0363671 0.0028259 0.006308 0.00328947 0.00660311 0.00266171 0.0219642 0.00393611 0.0108636 0.0031992 0.0270762 0.0031797 0.0202432 0.00345324 0.0316834 0.00480975 0.0246847 0.00683249 0.0428867
53 3 O -1.91564 5.82991 53.2721 -1.2 1 0.0973028 0.034747 0.0029737 0.00532243 0.00224292 0.00641026 0.00232207 0.02095 0.00346815 0.0099768 0.00342465 0.0264517 0.00287257 0.0189634 0.00431085 0.0316547 0.00346174 0.0246525 0.00728256 0.0420444
54 3 O -1.19417 8.46968 46.4488 -1.2 1 0.271167 0.0525129 0.0207648 0.0172905 0.0052191 0.014335 0.0086026 0.0244072 0.00811762 0.0171572 0.00756733 0.0258403 0.00629975 0.0211442 0.00913934 0.0300885 0.01018 0.0295565 0.0119344 0.0314361
55 3 O -3.14167 8.04395 54.0043 -1.2 1 0.0814651 0.0317955 0.00328603 0.00538047 0.00226399 0.00701772 0.00252639 0.0222291 0.00278478 0.0104239 0.00245887 0.0272226 0.00275621 0.0197441 0.00335939 0.0321883 0.004089 0.0246341 0.0073413 0.0439861
56 3 O -0.456829 8.1338 54.0036 -1.2 1 0.0749797 0.0317399 0.00422446 0.0054007 0.00234839 0.00559302 0.0014956 0.0224611 0.00295032 0.0100489 0.00262102 0.0271315 0.00245826 0.019585 0.00347113 0.0325859 0.00364645 0.025665 0.006289 0.044698
57 1 Mg -3.19339 16.5913 57.5925 1.2 1 0.0193856 0.0146389 0.00446652 0.00573214 0.00148601 0.00554947 0.000906939 0.0241589 0.00203886 0.0097425 0.00130719 0.029863 0.0022349 0.0202025 0.00165663 0.0329007 0.00298318 0.0247622 0.00307469 0.0503376
58 1 Mg -1.6714 16.3544 49.8412 1.2 1 0.1795 0.0499574 0.00699393 0.0135416 0.00301643 0.0145033 0.00335041 0.0263532 0.00554054 0.0177461 0.00465825 0.0316674 0.00392399 0.0255825 0.00662676 0.0342361 0.00569373 0.0311662 0.00888273 0.0413493
59 2 Si -1.18567 13.8526 47.9314 2.4 1 0.232517 0.0548316 0.0147561 0.017301 0.00465795 0.0175121 0.00512978 0.0273124 0.00893696 0.0193604 0.00592664 0.0312323 0.00560567 0.0277834 0.00640732 0.0341718 0.00916326 0.0325296 0.0109085 0.0383745
60 3 O -1.09664 15.4205 47.9915 -1.2 1 0.228951 0.0536313 0.0144935 0.0174476 0.00475747 0.0185886 0.00482717 0.0276492 0.00816246 0.019556 0.00581735 0.0312426 0.00546808 0.0271747 0.00770681 0.0350474 0.00804887 0.0334502 0.0101369 0.0392758
61 3 O -1.73493 12.7491 51.7772 -1.2 1 0.134947 0.0424891 0.00216721 0.0100253 0.00322049 0.00977194 0.00175879 0.024562 0.0041915 0.013738 0.00340781 0.0293892 0.00445834 0.0228931 0.00468066 0.0323115 0.00501104 0.0271834 0.00793298 0.04259
62 3 O -2.36115 13.2717 48.8238 -1.2 1 0.202674 0.0533838 0.00929153 0.0143781 0.00431399 0.0138493 0.00459282 0.0269133 0.00671488 0.0188061 0.0049448 0.030745 0.00430771 0.0259385 0.0057218 0.0338744 0.00707753 0.0314435 0.00962695 0.0384023
63 1 Mg -0.159928 11.7639 46.8533 1.2 1 0.25735 0.0539657 0.0186751 0.0182541 0.00570075 0.0189528 0.00701687 0.0280438 0.00957579 0.0190983 0.00732388 0.0306146 0.00617894 0.0262731 0.00721732 0.0328713 0.0105208 0.0331951 0.012887 0.0355936
64 3 O 0.2623 13.1866 48.413 -1.2 1 0.214392 0.0539864 0.0116059 0.0151499 0.00372672 0.0153368 0.00457565 0.0267093 0.00764544 0.0181796 0.0048984 0.029767 0.00478715 0.0270748 0.00481111 0.0332068 0.00794249 0.0326074 0.0101681 0.0386987
65 1 Mg 1.29485 11.7637 54.5075 1.2 1 0.0749409 0.0318396 0.00330151 0.00610758 0.00209927 0.00704441 0.00258072 0.0231618 0.00288331 0.0109761 0.00220093 0.0290167 0.00366252 0.0214272 0.00300268 0.0332203 0.00392371 0.0251035 0.00582115 0.0455197
66 2 Si 1.37447 14.494 56.3222 2.4 1 0.034408 0.0210821 0.0056095 0.00659096 0.00110292 0.00571747 0.00196976 0.0234273 0.00204178 0.00984255 0.00290351 0.0286898 0.00240301 0.0204702 0.00407707 0.0333569 0.00292439 0.0249856 0.00554874 0.0512411
67 3 O 1.31037 12.8807 56.4321 -1.2 1 0.0338131 0.0203512 0.00507322 0.00625163 0.00108328 0.00565732 0.00175128 0.0235489 0.00351402 0.00901525 0.00183509 0.0290022 0.00300165 0.0198018 0.00243934 0.033354 0.00373304 0.0255136 0.0045933 0.0503949
68 3 O 1.36565 15.4813 52.729 -1.2 1 0.111341 0.0391698 0.000996497 0.00850212 0.00147283 0.0103888 0.00322353 0.0247616 0.00346152 0.0134947 0.00336008 0.0299889 0.00424214 0.0222716 0.00455889 0.0328238 0.00432874 0.0277036 0.00730086 0.0450888
69 3 O 0.0277947 15.1906 55.8322 -1.2 1 0.0455453 0.0246854 0.00484359 0.00627954 0.000798387 0.00600501 0.00225251 0.0238126 0.00207542 0.0105624 0.00206489 0.0287176 0.00250712 0.0208104 0.00348315 0.0339134 0.00332207 0.02622 0.00514989 0.0498438
70 3 O 2.68833 15.1024 55.6754 -1.2 1 0.0442852 0.0249553 0.0054115 0.00601035 0.000854237 0.00577712 0.00283225 0.0244607 0.00202239 0.0106774 0.00235322 0.0285805 0.00279263 0.0212931 0.00362804 0.0339647 0.00327562 0.0264942 0.00589604 0.0503882
71 1 Mg -0.206989 14.1049 52.2121 1.2 1 0.116981 0.0424318 0.00126433 0.00908874 0.00253309 0.00893198 0.00250994 0.0249667 0.00363686 0.0136685 0.00333951 0.0301477 0.00355099 0.0226239 0.00417887 0.0327677 0.00408558 0.0278555 0.00774814 0.0431012
72 1 Mg 1.82591 13.8102 49.4556 1.2 1 0.185662 0.0543107 0.00609963 0.0124255 0.00241883 0.0131565 0.00463399 0.025819 0.00591124 0.0176929 0.00487663 0.0298585 0.00447954 0.0259485 0.00626304 0.0344557 0.00586099 0.0315764 0.00970073 0.0392973
73 2 Si 1.29285 16.1518 51.2434 2.4 1 0.144175 0.0476254 0.00180428 0.0108443 0.00190271 0.0118803 0.00389693 0.0258844 0.00454202 0.0161933 0.00455315 0.0296283 0.00440239 0.0249687 0.00607005 0.0331468 0.00411649 0.0306632 0.00893943 0.0434156
74 3 O 1.39496 17.7199 51.3047 -1.2 1 0.144105 0.0462377 0.00260648 0.0105598 0.00144053 0.0117598 0.00365822 0.0255233 0.00455263 0.0154769 0.0029851 0.0304662 0.0040062 0.0245892 0.00434836 0.0337006 0.00538086 0.029951 0.00766388 0.043794
75 3 O 1.4345 15.1379 57.8689 -1.2 1 0.0154944 0.0126083 0.00360015 0.00583404 0.000837806 0.00579359 0.00130388 0.0244402 0.00229258 0.00916379 0.00241283 0.0291705 0.00224814 0.0200999 0.00307312 0.0328843 0.00294068 0.0248972 0.00359274 0.0512415
76 3 O -0.0269106 15.5178 50.6688 -1.2 1 0.155047 0.0477167 0.00373564 0.0112815 0.00269541 0.0122085 0.00359218 0.0258841 0.00472041 0.0161044 0.00313055 0.0298527 0.00443018 0.0254174 0.00549726 0.0328124 0.00435025 0.0302675 0.00829711 0.0424564
77 1 Mg -3.18391 14.1057 52.3125 1.2 1 0.123724 0.0419451 0.00138224 0.00897257 0.00180815 0.0103591 0.00260165 0.0246711 0.00403521 0.014199 0.00298925 0.029738 0.00367642 0.0230372 0.00442041 0.0327222 0.00435299 0.0276088 0.00723026 0.0431967
78 3 O 2.52432 15.503 50.4579 -1.2 1 0.160614 0.0499994 0.00399848 0.0111024 0.00216318 0.0127106 0.00397637 0.0256233 0.00527232 0.0176148 0.00351704 0.0300248 0.00380892 0.0260476 0.00596372 0.0332032 0.00469112 0.0301084 0.00839484 0.0418884
79 1 Mg -1.75714 14.0944 55.0698 1.2 1 0.055037 0.0281664 0.00484875 0.00656488 0.00170587 0.00611044 0.00199608 0.0241959 0.0031706 0.0106194 0.00292662 0.0294135 0.00257414 0.0212202 0.00336007 0.0334423 0.00410114 0.0262391 0.00595486 0.0488115
80 2 Si -1.7085 12.074 53.254 2.4 1 0.0977945 0.037807 0.00278719 0.00771923 0.00300578 0.00723829 0.00131545 0.0239807 0.00382138 0.0122317 0.00284446 0.0283974 0.0035497 0.0221083 0.00323309 0.0327532 0.00464146 0.0265799 0.00709279 0.0452422
81 3 O -1.72284 10.5921 53.1441 -1.2 1 0.0988944 0.0366562 0.00272628 0.00700989 0.00290097 0.007573 0.00195308 0.0231694 0.00341332 0.0106728 0.00325511 0.027854 0.00300325 0.0202681 0.00432843 0.0329546 0.00412737 0.0260849 0.00845961 0.0443748
82 3 O -1.21337 13.3381 46.4311 -1.2 1 0.270538 0.0537543 0.0213041 0.0202205 0.00633376 0.0198926 0.00722457 0.0300643 0.00980046 0.0202941 0.0067414 0.0316417 0.00592128 0.0262425 0.0085347 0.0356063 0.0122497 0.0352883 0.0130431 0.0358362
83 3 O -3.01072 12.7505 53.8625 -1.2 1 0.0864555 0.0343162 0.0029201 0.00641228 0.0021763 0.00822211 0.00166331 0.0241713 0.00303301 0.0118855 0.00238701 0.0287108 0.00342873 0.0217253 0.00295635 0.0331939 0.00380108 0.0265069 0.00659813 0.0463269
84 3 O -0.465043 12.7855 53.9621 -1.2 1 0.0783894 0.0329689 0.00330223 0.00653266 0.00257529 0.00595976 0.00111154 0.0244005 0.0030494 0.0113241 0.00271973 0.0285628 0.00238012 0.0216378 0.00340747 0.0334587 0.00338478 0.0267231 0.00693535 0.0463782
85 1 Mg -2.97107 21.132 57.4268 1.2 1 0.0199322 0.0151203 0.00442376 0.00553584 0.0011383 0.00605479 0.000915925 0.024262 0.00187636 0.0100146 0.00143098 0.029566 0.00161641 0.020504 0.00237349 0.0340064 0.00267845 0.0263722 0.00339486 0.0509377
86 1 Mg -1.5831 21.1217 49.8405 1.2 1 0.177721 0.0502118 0.00667839 0.0137644 0.00289134 0.0149408 0.00334433 0.0267905 0.00510256 0.0178654 0.00452199 0.0315252 0.00322076 0.0257175 0.00627794 0.0346982 0.00543936 0.0319222 0.00881644 0.0414048
87 2 Si -1.09384 18.6291 47.9287 2.4 1 0.229429 0.0558703 0.0142466 0.0183036 0.0037901 0.0199163 0.00451503 0.0285551 0.0083748 0.0203524 0.00541935 0.0324623 0.00557658 0.0284341 0.00585762 0.0354739 0.00883987 0.0343228 0.0103664 0.0408825
88 3 O -1.02071 20.1985 47.9911 -1.2 1 0.22868 0.0551713 0.0140647 0.0183994 0.00400158 0.0200609 0.00467061 0.0284391 0.007889 0.0204882 0.00582379 0.0320863 0.00535304 0.0276625 0.00734224 0.0358622 0.00809982 0.0346711 0.0100037 0.0408457
89 3 O -1.65002 17.5002 51.771 -1.2 1 0.133674 0.0429454 0.00176583 0.0108497 0.00251602 0.0110764 0.00164049 0.0254471 0.00367295 0.015053 0.00291948 0.0302401 0.00393527 0.0236568 0.00432553 0.0331527 0.00498163 0.0285418 0.00711697 0.0440257
90 3 O -2.26174 18.0434 48.8281 -1.2 1 0.202312 0.0545594 0.00913492 0.0153481 0.00339975 0.0163696 0.00428393 0.0280315 0.00641716 0.0199908 0.00412225 0.0315471 0.00410472 0.0272873 0.00564858 0.0351638 0.0067036 0.0335706 0.00913138 0.0408224
91 1 Mg -0.0440435 16.5651 46.8269 1.2 1 0.257439 0.05625 0.0187662 0.0204831 0.00540236 0.0236352 0.00587044 0.0313426 0.0098965 0.0221115 0.00637041 0.0337876 0.00697205 0.0290315 0.00827683 0.035601 0.00966885 0.036827 0.012222 0.039964
92 3 O 0.37001 17.9877 48.3925 -1.2 1 0.214515 0.0560047 0.0109602 0.0167567 0.00325601 0.0177663 0.00369202 0.0286392 0.00729391 0.0202214 0.00409146 0.0317102 0.0046709 0.0286921 0.00541494 0.0345236 0.00781947 0.0352525 0.00964222 0.0413515
93 1 Mg 1.39922 16.6798 54.5777 1.2 1 0.0699056 0.0312572 0.00349294 0.00639523 0.00140964 0.00709552 0.00306396 0.0239406 0.00237768 0.0118153 0.0024016 0.0295271 0.00336907 0.0221957 0.00335921 0.0336905 0.00347733 0.0257494 0.00525488 0.0476117
94 2 Si 1.47874 19.2175 56.4677 2.4 1 0.0295221 0.019727 0.0052674 0.00632 0.000833252 0.00538899 0.0021442 0.0241638 0.00203461 0.0100238 0.0031147 0.0287194 0.00220751 0.0209545 0.00380369 0.0334726 0.00386472 0.025696 0.0054072 0.0520702
95 3 O 1.46594 17.676 56.475 -1.2 1 0.0300688 0.0201528 0.00516801 0.00632001 0.000762588 0.00526574 0.002089 0.0240011 0.00313794 0.00973279 0.00205946 0.0290477 0.002961 0.0203042 0.00247578 0.0335691 0.00438737 0.0254148 0.00453446 0.0510039
96 3 O 1.45147 20.239 52.7294 -1.2 1 0.107606 0.0391221 0.000513297 0.00856198 0.000961199 0.0105888 0.00345983 0.0252293 0.00337764 0.01389 0.00300438 0.029877 0.00360345 0.0226798 0.00390753 0.0333264 0.00413188 0.0287777 0.00659141 0.0456969
97 3 O 0.179805 19.8707 55.7238 -1.2 1 0.0474431 0.0258519 0.00415481 0.00600916 0.00086984 0.00617339 0.00205154 0.0242099 0.00206401 0.0112942 0.00256007 0.0286608 0.00242561 0.0217457 0.00383931 0.0341193 0.00366133 0.0267492 0.00481803 0.0497096
98 3 O 2.77883 19.895 55.7875 -1.2 1 0.0392825 0.0242509 0.00578398 0.00600641 0.000857942 0.00556521 0.00248192 0.024045 0.00203579 0.0106582 0.0026572 0.0287446 0.00221799 0.0210682 0.00416789 0.03442 0.00346622 0.0268897 0.00549238 0.0506214
99 1 Mg -0.126194 18.8651 52.2079 1.2 1 0.114307 0.0429781 0.00118935 0.00961662 0.00169951 0.00936249 0.00235167 0.0255616 0.00342035 0.01483 0.00318505 0.0305249 0.00303794 0.0232313 0.00379481 0.033447 0.00422323 0.0292838 0.0070678 0.0442492
100 1 Mg 1.92402 18.5815 49.4545 1.2 1 0.181137 0.0551066 0.00533183 0.0128224 0.00160222 0.014255 0.00469869 0.0269541 0.00533796 0.0194783 0.00382007 0.0312634 0.0044547 0.0273221 0.00456423 0.0350954 0.00587329 0.033112 0.00891777 0.0416706
101 2 Si 1.38106 20.9117 51.2443 2.4 1 0.143325 0.0483275 0.00165706 0.0112342 0.00157412 0.0123383 0.00417929 0.0262273 0.0042509 0.016406 0.00424867 0.0294341 0.00379084 0.0252726 0.00570256 0.0339602 0.00412976 0.0315194 0.00850027 0.0441177
102 3 O 1.48527 22.4795 51.3054 -1.2 1 0.141588 0.0460167 0.00272634 0.0103627 0.00122492 0.012182 0.00338573 0.0259147 0.00448005 0.0158088 0.00313256 0.030193 0.00339639 0.0248286 0.00354159 0.0338722 0.00533843 0.0306656 0.00708341 0.0439035
103 3 O 1.37657 19.8355 57.9354 -1.2 1 0.0151232 0.0125921 0.00343675 0.00562766 0.000876375 0.0058175 0.00116269 0.0245126 0.00193925 0.00967021 0.00237492 0.0291225 0.00214635 0.0204521 0.00289472 0.0341264 0.00257091 0.0259079 0.00343823 0.0514472
104 3 O 0.0615419 20.2804 50.6669 -1.2 1 0.152166 0.0481997 0.00353932 0.0118738 0.00266785 0.0127202 0.00396673 0.0266098 0.0045648 0.0164203 0.0030082 0.0302705 0.00399636 0.0255999 0.0052638 0.0340022 0.00417339 0.0313333 0.00791152 0.043615
105 1 Mg -3.09665 18.8643 52.3122 1.2 1 0.121895 0.0427452 0.00111603 0.00928413 0.00124474 0.0110626 0.00290938 0.0254361 0.00329213 0.0150585 0.00265322 0.0300835 0.00318526 0.0236555 0.00345871 0.033548 0.00435258 0.0291499 0.00672679 0.0440616
106 3 O 2.61548 20.2646 50.4626 -1.2 1 0.15738 0.0502767 0.00335717 0.0112533 0.00175272 0.0132168 0.00415558 0.0262705 0.00422814 0.0179154 0.00328244 0.0302893 0.00350124 0.0256779 0.00505584 0.0344571 0.00462329 0.0311498 0.00815124 0.0427274
107 1 Mg -1.58683 18.8274 55.1957 1.2 1 0.0511708 0.0277629 0.00523454 0.0065094 0.00127926 0.0058882 0.00200539 0.0246312 0.00276869 0.0114483 0.00322052 0.0291924 0.00222405 0.0215257 0.00419897 0.0337146 0.004287 0.0265554 0.00562213 0.0494506
108 2 Si -1.59847 16.8201 53.1817 2.4 1 0.0983546 0.0376565 0.00221056 0.00884229 0.00229988 0.00793831 0.00134672 0.0242911 0.00344643 0.0132176 0.00281707 0.0290949 0.00297909 0.0229577 0.003456 0.0332439 0.00519112 0.027445 0.00666254 0.0470179
109 3 O -1.69799 15.2552 53.1654 -1.2 1 0.0969216 0.036906 0.0025919 0.00804714 0.002334 0.00812149 0.00141435 0.0242967 0.00359479 0.0122174 0.00279469 0.0292295 0.00326026 0.0219041 0.00424155 0.0333418 0.00372279 0.0270747 0.00735094 0.0464862
110 3 O -1.12868 18.1227 46.4249 -1.2 1 0.266639 0.056142 0.0200108 0.0219309 0.00585077 0.023519 0.0064253 0.0321824 0.00870351 0.0218043 0.0056846 0.0340382 0.00645937 0.0272112 0.00841337 0.0372846 0.011341 0.0378178 0.0121762 0.0399593
111 3 O -2.83482 17.5367 53.9202 -1.2 1 0.0811657 0.0337396 0.00280428 0.00677915 0.00147125 0.0081191 0.00169134 0.0247463 0.00244567 0.0124386 0.00205072 0.0288631 0.00248754 0.0226758 0.00284525 0.0334755 0.00377674 0.0272093 0.00573417 0.0473421
112 3 O -0.350619 17.4937 53.9095 -1.2 1 0.0772313 0.0337626 0.00346591 0.00725586 0.00217002 0.00611437 0.00125425 0.0246973 0.00265756 0.0118261 0.00225177 0.0288285 0.00246694 0.0224177 0.00360849 0.0337838 0.00388426 0.027419 0.00643753 0.0475323
113 1 Mg -2.89313 25.9636 57.5763 1.2 1 0.0189167 0.0143145 0.00465322 0.00629177 0.00128276 0.00556407 0.00126559 0.0243239 0.0018011 0.00982385 0.00164559 0.0294169 0.00146096 0.020222 0.00252919 0.0341861 0.00250896 0.025942 0.00352663 0.0509073
114 1 Mg -1.48778 25.88 49.8402 1.2 1 0.17843 0.0507796 0.0066412 0.0137853 0.0027454 0.0151491 0.00350831 0.0270429 0.00469087 0.0182495 0.0044331 0.0315272 0.00335466 0.025857 0.00585498 0.0348114 0.00545577 0.0318725 0.00870333 0.0411098
115 2 Si -1.00491 23.3922 47.9274 2.4 1 0.232405 0.0567381 0.0147441 0.0186659 0.00383968 0.0209241 0.00498179 0.0289453 0.00808492 0.0208294 0.00528236 0.0322999 0.00565193 0.0287199 0.0060682 0.035786 0.00894629 0.0346206 0.0102827 0.0407721
116 3 O -0.927602 24.9615 47.9909 -1.2 1 0.22847 0.0552715 0.0141989 0.0181941 0.00379274 0.0204599 0.00458355 0.0285255 0.00752544 0.0206009 0.0054968 0.0318926 0.0053261 0.0277822 0.00754397 0.0361972 0.00828507 0.034722 0.0100725 0.0406076
117 3 O -1.55795 22.2588 51.7696 -1.2 1 0.131211 0.0431088 0.00167982 0.0107306 0.00222215 0.0112755 0.00198618 0.0255064 0.00364203 0.0149184 0.00294691 0.0301037 0.0033463 0.0236396 0.00374157 0.0336995 0.00530514 0.0292762 0.00704017 0.0442439
118 3 O -2.17411 22.8111 48.8277 -1.2 1 0.198508 0.0549802 0.00894193 0.0152389 0.00298844 0.0167528 0.00379497 0.0282385 0.0057593 0.0202584 0.00394693 0.0318127 0.00366383 0.0270684 0.00539864 0.0352204 0.00676726 0.0338865 0.0088269 0.0405966
119 1 Mg 0.0423997 21.3296 46.8225 1.2 1 0.253947 0.0572842 0.0184124 0.0209711 0.0049077 0.0245819 0.00564744 0.0318962 0.00918036 0.022533 0.00576214 0.0339509 0.00642498 0.0287729 0.00805368 0.0358218 0.00933512 0.0373607 0.0115942 0.0404207
120 3 O 0.458537 22.7495 48.3911 -1.2 1 0.212265 0.0561907 0.0107397 0.0167714 0.00333723 0.0181679 0.00376284 0.0287538 0.00704234 0.0203308 0.00367718 0.031389 0.00466898 0.0286421 0.00543538 0.0351699 0.0075014 0.0357939 0.00937152 0.0416082
121 1 Mg 1.40349 21.245 54.5816 1.2 1 0.0692121 0.0317622 0.00344481 0.00659672 0.00120386 0.00728601 0.00277839 0.0241172 0.00243213 0.0123542 0.00253434 0.0294549 0.00315029 0.0225692 0.00356368 0.0341083 0.00363867 0.0267704 0.00507583 0.0473778