ITEM: TIMESTEP
14300
ITEM: NUMBER OF ATOMS
10500
ITEM: BOX BOUNDS xy xz yz pp pp pp
0	8.9688	2.9896
0	118.725	0
0	252.977	0
ITEM: ATOMS id type element xu yu zu q Q_1 Q_2 Q_3 Q_4 Q_5 Q_6 Q_7 Q_8 Q_9 Q_10 Q_11 Q_12 Q_13 Q_14 Q_15 Q_16 Q_17 Q_18 Q_19 Q_20 Q_21
1 1 Mg -3.38914 6.96658 57.5802 1.2 1 0.0215959 0.0134735 0.00572116 0.00684387 0.0016734 0.0059982 0.00133174 0.0240728 0.00118051 0.00996119 0.00182499 0.0294626 0.00270442 0.0204687 0.002297 0.0335858 0.00297161 0.0259183 0.00513601 0.0497362
2 1 Mg -1.82655 6.90154 50.0912 1.2 1 0.174516 0.0488091 0.00570175 0.0106167 0.00331218 0.00858364 0.00471113 0.0235879 0.00498134 0.0152986 0.00461409 0.0262779 0.00471118 0.02133 0.00646345 0.0297712 0.00561809 0.0262664 0.00888397 0.0355257
3 2 Si -0.257935 3.96038 48.0876 2.4 1 0.22303 0.0545382 0.0115231 0.0130449 0.00240342 0.00925748 0.0041419 0.0209244 0.00601654 0.0170797 0.00458916 0.0246302 0.00525599 0.0206526 0.00571829 0.0267737 0.00680528 0.025071 0.00923378 0.0332973
4 3 O -0.335812 5.46814 47.6264 -1.2 1 0.230194 0.0542946 0.0133935 0.0141232 0.00297933 0.0102264 0.00505136 0.0216574 0.00674807 0.0178776 0.00497298 0.0253859 0.00472411 0.0211662 0.00553835 0.0271926 0.00745153 0.0260106 0.00999708 0.0319747
5 3 O -2.03793 3.43377 51.8941 -1.2 1 0.126795 0.0414008 0.00222925 0.00780327 0.00159376 0.00639453 0.00319216 0.0217539 0.00317928 0.0119997 0.00314604 0.025447 0.0035127 0.0185633 0.00383821 0.0295162 0.00505182 0.0240816 0.00769885 0.0386714
6 3 O -1.54015 3.53929 48.9521 -1.2 1 0.201967 0.0530301 0.00879076 0.0114311 0.0024484 0.00803073 0.00421198 0.0209568 0.00532278 0.0157616 0.00453815 0.024195 0.00447747 0.0204427 0.00590663 0.0275968 0.00538945 0.0246581 0.00880626 0.0330647
7 1 Mg 1.82954 2.54582 47.1376 1.2 1 0.245392 0.0540918 0.0162389 0.0158138 0.00360272 0.010689 0.0040907 0.0208017 0.00594758 0.0160438 0.00484944 0.0241313 0.00639263 0.019949 0.00745507 0.0252815 0.00621525 0.0236891 0.00908817 0.0310653
8 3 O 1.22989 3.66364 48.7877 -1.2 1 0.203725 0.0516345 0.00908368 0.012395 0.00239435 0.00905418 0.00462286 0.0211724 0.00436234 0.0154248 0.00379438 0.0240994 0.00481143 0.0200778 0.00619307 0.0272237 0.00453996 0.0245262 0.00897425 0.0341178
9 1 Mg 1.00625 2.2755 54.5495 1.2 1 0.0682186 0.0298955 0.00491236 0.0059365 0.0012332 0.00489316 0.00291289 0.0228872 0.00285616 0.010271 0.00315839 0.027012 0.00348305 0.0198962 0.00380502 0.030936 0.00312092 0.0240765 0.00628562 0.0437415
10 2 Si 0.98638 4.94697 56.4279 2.4 1 0.0333278 0.019897 0.00678988 0.00721406 0.00120775 0.00615797 0.00253966 0.023603 0.00191091 0.00958613 0.00340703 0.0275945 0.00283669 0.0203445 0.00447848 0.0326973 0.00310273 0.0250668 0.00636867 0.049335
11 3 O 0.901119 3.40076 56.6482 -1.2 1 0.0299795 0.0178527 0.00624871 0.00674018 0.00101817 0.00552603 0.00219328 0.0233775 0.00226949 0.00899534 0.00228317 0.0285415 0.00259072 0.0194295 0.00319914 0.0325343 0.00343559 0.025108 0.00511963 0.0485816
12 3 O 1.10813 6.07342 52.8172 -1.2 1 0.104447 0.0365325 0.00279396 0.00751443 0.00191232 0.00668549 0.00391723 0.023617 0.00347742 0.0120277 0.00310973 0.02685 0.00415458 0.0198633 0.00491846 0.0310552 0.00415709 0.0254257 0.00702184 0.0407567
13 3 O -0.300308 5.75341 55.8699 -1.2 1 0.0441836 0.0234481 0.00659779 0.00647324 0.00127555 0.0053924 0.00271953 0.0238588 0.00236101 0.0106333 0.0027814 0.027939 0.00301014 0.0205271 0.00467481 0.0331132 0.00322994 0.0256442 0.00616528 0.0477202
14 3 O 2.20842 5.687 55.7411 -1.2 1 0.0421266 0.023237 0.00696185 0.00646101 0.00100063 0.00571132 0.00255191 0.0239378 0.00170229 0.0103001 0.00247454 0.0278343 0.00306815 0.0208043 0.00370296 0.0337136 0.00295051 0.0261199 0.00615854 0.0472436
15 1 Mg -0.459401 4.67631 52.2426 1.2 1 0.121544 0.0410773 0.0021549 0.00747954 0.00207095 0.00618141 0.00308061 0.0226722 0.00347248 0.0127637 0.00291423 0.0265187 0.00376826 0.0196834 0.0045719 0.0300845 0.00412912 0.0245174 0.0071523 0.0381192
16 1 Mg 2.79456 3.9971 49.9987 1.2 1 0.175129 0.0508958 0.00507101 0.010428 0.00259942 0.00752531 0.00493786 0.0217666 0.00374454 0.0152299 0.0028329 0.0247902 0.00427093 0.0208987 0.00640294 0.0286569 0.00420024 0.0249036 0.00932028 0.0347954
17 2 Si 1.16169 6.59457 51.2556 2.4 1 0.144361 0.0459659 0.0021081 0.00943235 0.00254218 0.00791193 0.00460041 0.0231979 0.00451954 0.0142081 0.00449763 0.0258785 0.00456018 0.0214223 0.00678281 0.0307634 0.00463008 0.0259769 0.00899415 0.0379364
18 3 O 1.28989 8.18905 51.2909 -1.2 1 0.145684 0.0452423 0.00225267 0.00962046 0.00260201 0.00902268 0.0045631 0.0233519 0.00418822 0.0142066 0.00390281 0.0278356 0.00466905 0.0221697 0.00494071 0.0309762 0.00524797 0.0267653 0.00824917 0.0392031
19 3 O 1.14632 5.52285 57.9826 -1.2 1 0.0165903 0.0109936 0.00441235 0.0070716 0.00112691 0.00641849 0.00186753 0.0241045 0.00130941 0.00919908 0.00245344 0.0289694 0.0026214 0.0206442 0.00326058 0.0335796 0.00260523 0.0257631 0.0044826 0.0510725
20 3 O -0.184847 6.06029 50.6845 -1.2 1 0.160596 0.0465472 0.00428158 0.00981443 0.00320921 0.00766674 0.00460611 0.0228849 0.00463098 0.0147017 0.00335492 0.0255336 0.00443459 0.0210703 0.00522973 0.0290164 0.00494308 0.0255168 0.00833444 0.0369676
21 1 Mg -3.49704 4.67769 52.6661 1.2 1 0.114458 0.0390091 0.00228917 0.0072212 0.00175065 0.00649859 0.00346299 0.0221017 0.00366999 0.0119984 0.00321784 0.0263748 0.00355799 0.0192406 0.0041804 0.0300271 0.00389802 0.0242315 0.00741374 0.039384
22 3 O 2.48581 5.93312 50.6539 -1.2 1 0.155774 0.0476523 0.0032851 0.00912247 0.00187824 0.00842172 0.00467247 0.0229579 0.00436076 0.0147602 0.00400796 0.0252985 0.0044458 0.0213115 0.00593315 0.0300311 0.00417251 0.025722 0.00882521 0.0368107
23 1 Mg -1.9475 4.70732 55.1575 1.2 1 0.0508067 0.0264775 0.00693575 0.00637944 0.00129706 0.00520429 0.00205987 0.0231234 0.00302788 0.010164 0.00346608 0.0280226 0.00237066 0.0201427 0.00393358 0.0328551 0.00382933 0.0251803 0.0066011 0.0456382
24 2 Si -1.93753 2.6255 53.3044 2.4 1 0.100485 0.0365252 0.00304886 0.00674109 0.00218445 0.00569818 0.00256331 0.0221002 0.00330429 0.0113058 0.00282961 0.0256647 0.00298879 0.0197387 0.00314362 0.0300252 0.00427988 0.023965 0.00673099 0.0410579
25 3 O -1.98329 1.0451 53.2175 -1.2 1 0.0960982 0.0352854 0.00280358 0.00661611 0.0023406 0.00524548 0.00218298 0.0216852 0.00309484 0.010307 0.00287414 0.0265292 0.00275366 0.0193189 0.00383229 0.0299883 0.00383849 0.0233852 0.00661983 0.0412679
26 3 O -0.0467762 2.97103 46.8385 -1.2 1 0.250398 0.0546822 0.0166912 0.0153061 0.00338611 0.00960472 0.00424009 0.0205192 0.00649689 0.0169733 0.00605335 0.0241953 0.00713131 0.0193825 0.00802128 0.0252354 0.00670207 0.0240446 0.0103574 0.0322888
27 3 O -3.25512 3.29185 54.0812 -1.2 1 0.079618 0.0319469 0.00412452 0.00595763 0.00160506 0.0053443 0.00236318 0.0224933 0.00307221 0.0108979 0.00261801 0.0261445 0.00263629 0.0196672 0.00310517 0.0306184 0.00386185 0.0239139 0.00655374 0.042389
28 3 O -0.68837 3.2523 54.014 -1.2 1 0.0806718 0.0328613 0.00459916 0.00603266 0.00156286 0.00550608 0.00207615 0.0228768 0.00284051 0.0109583 0.00227651 0.0263549 0.0028549 0.0200994 0.00352731 0.0308866 0.00318873 0.0246028 0.006544 0.042674
29 1 Mg -3.28141 11.7086 57.3753 1.2 1 0.0230542 0.0135823 0.00515817 0.00585253 0.00150641 0.00591407 0.00157159 0.0240355 0.00170933 0.0100279 0.00161979 0.0304897 0.00253639 0.02126 0.00237806 0.0336844 0.00247974 0.0265447 0.00422367 0.050753
30 1 Mg -1.75014 11.5838 49.8362 1.2 1 0.182489 0.0483095 0.00718325 0.0127594 0.00438093 0.0125506 0.00497799 0.0247955 0.00556046 0.0163 0.00496416 0.0293264 0.00461836 0.0243795 0.00688436 0.0329329 0.00629911 0.0287689 0.00948027 0.0381349
31 2 Si -1.18003 9.02138 47.9309 2.4 1 0.238316 0.0534159 0.0150927 0.0159922 0.00523415 0.0131261 0.00764342 0.0237347 0.00825298 0.0177285 0.00715814 0.0267884 0.00479729 0.0230786 0.00668778 0.0301777 0.00868906 0.0284723 0.0118655 0.0345943
32 3 O -1.23224 10.5991 47.9811 -1.2 1 0.228458 0.0539235 0.0131744 0.016069 0.00531475 0.0141833 0.00645999 0.0248047 0.00830306 0.0180483 0.00729003 0.0282299 0.00526986 0.0242332 0.00812148 0.0324941 0.00900715 0.0305235 0.0107644 0.0350842
33 3 O -1.79016 8.01447 51.8693 -1.2 1 0.130852 0.0414364 0.00172622 0.00929772 0.00324992 0.00720798 0.00301672 0.0234345 0.00388867 0.0132784 0.00375285 0.0277364 0.00429478 0.0209643 0.00461811 0.0315469 0.00525142 0.0258036 0.0085987 0.0400682
34 3 O -2.30986 8.37215 48.8528 -1.2 1 0.202076 0.0535423 0.0088499 0.0127918 0.00404096 0.0101954 0.00617219 0.0239949 0.00642401 0.0177428 0.00502755 0.0269652 0.00396803 0.0231533 0.00596104 0.0313453 0.00677271 0.0281529 0.00945115 0.0348464
35 1 Mg 0.154883 7.08234 46.8007 1.2 1 0.257494 0.0546859 0.0181437 0.0168069 0.00573675 0.0131834 0.00876704 0.0240814 0.00813105 0.017879 0.00732775 0.0255552 0.00703302 0.0216784 0.0085322 0.0286532 0.0095977 0.0283168 0.0129312 0.0319759
36 3 O 0.325447 8.50934 48.3809 -1.2 1 0.215186 0.0546749 0.0108181 0.0144772 0.004135 0.0119447 0.00645561 0.0246791 0.00697015 0.0176593 0.00594971 0.0267957 0.00515747 0.0242218 0.00569926 0.0300987 0.0073072 0.0286457 0.0104029 0.0346353
37 1 Mg 1.09951 7.12368 54.6349 1.2 1 0.0682227 0.0299216 0.00502921 0.00647432 0.00157112 0.00569027 0.0024747 0.0232201 0.00257934 0.0111542 0.00316539 0.0280659 0.00341564 0.021004 0.00350939 0.0331297 0.00364549 0.0251887 0.00660422 0.0444764
38 2 Si 1.1122 9.689 56.5671 2.4 1 0.0335746 0.0189989 0.00635449 0.00708594 0.00113798 0.0057911 0.00213355 0.0237384 0.00205176 0.009849 0.00324683 0.02831 0.00295317 0.0214421 0.00425619 0.0339547 0.00326769 0.0259968 0.00632501 0.0504498
39 3 O 1.11333 8.15709 56.6248 -1.2 1 0.0297961 0.0173562 0.0063684 0.0068985 0.00115459 0.00619073 0.00141407 0.024087 0.00260882 0.00915346 0.00201145 0.0288875 0.00323478 0.0204435 0.00267696 0.034074 0.00363774 0.0261133 0.00595191 0.0501637
40 3 O 1.28624 10.7248 52.7351 -1.2 1 0.112375 0.0380567 0.00198218 0.00858817 0.00249757 0.00929003 0.00338266 0.0243056 0.00346669 0.0128216 0.00357615 0.0285605 0.00476865 0.0222892 0.00473893 0.032696 0.00378426 0.027273 0.00726553 0.0426622
41 3 O -0.154824 10.4734 55.8545 -1.2 1 0.0483553 0.0234088 0.00578135 0.00642384 0.0014921 0.00602945 0.00244921 0.0245796 0.00162175 0.0107219 0.00269439 0.0287377 0.00326009 0.0219374 0.0041232 0.0338771 0.00285409 0.0270292 0.00638067 0.0489472
42 3 O 2.37757 10.3717 55.8037 -1.2 1 0.0444269 0.0231372 0.0066698 0.00636278 0.00121275 0.00583692 0.00226265 0.0240208 0.00178799 0.0105138 0.00266896 0.0287958 0.00344483 0.021949 0.0040285 0.0343982 0.00242616 0.0268906 0.00615053 0.0487715
43 1 Mg -0.262694 9.34741 52.2523 1.2 1 0.112433 0.0404582 0.00284026 0.00864995 0.00264833 0.00768438 0.00256268 0.0244115 0.00368594 0.0129068 0.00340818 0.028771 0.00417607 0.0217222 0.00526896 0.0325152 0.00409258 0.0271363 0.00755399 0.0410776
44 1 Mg 1.87648 9.01537 49.4629 1.2 1 0.182992 0.0531905 0.00537337 0.0116418 0.0031696 0.0105847 0.00640883 0.0241041 0.00565206 0.016858 0.0052102 0.0275978 0.00485199 0.0237266 0.00619569 0.0317775 0.00538842 0.028497 0.00972819 0.0363318
45 2 Si 1.21415 11.3799 51.2378 2.4 1 0.147691 0.0462075 0.00159099 0.0106449 0.00304688 0.0108353 0.00409099 0.0246106 0.0046308 0.0151509 0.00457272 0.02791 0.00462372 0.0243812 0.00587723 0.033086 0.00439968 0.0289674 0.00919877 0.040852
46 3 O 1.31634 12.9512 51.3023 -1.2 1 0.145362 0.044118 0.00243584 0.0103731 0.00273893 0.0114851 0.00383224 0.0251867 0.00462191 0.0150136 0.003603 0.0298151 0.00455127 0.0248089 0.00484906 0.0333583 0.00467854 0.0288822 0.00797309 0.0414188
47 3 O 1.14818 10.3857 58.0469 -1.2 1 0.0182842 0.010636 0.00419058 0.0063864 0.00138691 0.00627695 0.00132694 0.0245842 0.0013653 0.00902981 0.00249076 0.0295469 0.0028721 0.021306 0.00315671 0.033773 0.00249394 0.0266907 0.00393476 0.0519265
48 3 O -0.115718 10.7564 50.681 -1.2 1 0.154681 0.0462331 0.00315576 0.0111708 0.00359402 0.0103519 0.00412046 0.0244258 0.00465371 0.0147323 0.00364384 0.0282887 0.0047219 0.0235861 0.00618755 0.0322076 0.00478098 0.0280181 0.00911435 0.0396574
49 1 Mg -3.26386 9.35564 52.3622 1.2 1 0.122226 0.0401451 0.00126335 0.00843162 0.00226367 0.00908613 0.00361922 0.0239536 0.00405048 0.0132906 0.00381699 0.0280573 0.00387673 0.0219924 0.00494657 0.0327081 0.0043894 0.0267932 0.00810003 0.0401095
50 3 O 2.45216 10.7265 50.4558 -1.2 1 0.162576 0.0487689 0.0035588 0.0102721 0.00281243 0.0112342 0.00498917 0.0242023 0.00514651 0.0163394 0.00433363 0.0281472 0.00426578 0.024425 0.00631957 0.0330234 0.00501228 0.0284887 0.00904131 0.0388303
51 1 Mg -1.83154 9.45422 55.2514 1.2 1 0.0529272 0.0264536 0.00640286 0.0067049 0.00154125 0.00597298 0.00228713 0.0239769 0.00260651 0.0104914 0.00326436 0.028853 0.00289327 0.0214482 0.00387987 0.0337263 0.00411897 0.0265104 0.00721928 0.0474261
52 2 Si -1.87204 7.3826 53.3671 2.4 1 0.0953906 0.0370611 0.00372884 0.00765395 0.00293332 0.00618426 0.00247416 0.0231045 0.00393409 0.0122146 0.00333547 0.0274264 0.00336867 0.0214123 0.00346273 0.0321655 0.00512366 0.0252811 0.00692849 0.0424787
53 3 O -1.89505 5.81055 53.3335 -1.2 1 0.0952091 0.034333 0.00324885 0.00676239 0.00185926 0.00627917 0.00234966 0.0227918 0.00349131 0.0111695 0.00293918 0.0265482 0.00311949 0.0198415 0.00465798 0.0317155 0.00351234 0.0250052 0.00757985 0.0415729
54 3 O -1.19417 8.46968 46.4488 -1.2 1 0.267941 0.0544211 0.0204095 0.0183377 0.005767 0.0143091 0.0088989 0.0250616 0.00848375 0.0181004 0.00782864 0.0259998 0.00611785 0.0215201 0.00905843 0.030282 0.010253 0.029927 0.0121903 0.0318675
55 3 O -3.10271 8.11549 54.054 -1.2 1 0.0789449 0.0314084 0.00406617 0.0065354 0.00195845 0.00704243 0.00213028 0.0234829 0.00302027 0.0116611 0.00245895 0.0273635 0.00315767 0.0211776 0.00360103 0.0330507 0.00451812 0.0256985 0.00711561 0.0436597
56 3 O -0.553551 8.0577 54.0048 -1.2 1 0.076968 0.0323518 0.00504817 0.00684365 0.00221681 0.00582682 0.00170356 0.0236974 0.00270229 0.0112822 0.00278668 0.0279787 0.00303669 0.021057 0.00424417 0.0328997 0.00385112 0.0262977 0.00735698 0.0441497
57 1 Mg -3.13692 16.5218 57.503 1.2 1 0.0219695 0.0133098 0.00478945 0.00568245 0.00150127 0.00569216 0.00141346 0.0242677 0.00178436 0.0100499 0.0018663 0.0300302 0.00185079 0.0215525 0.002222 0.0335691 0.00252106 0.0260891 0.00339708 0.0512723
58 1 Mg -1.6714 16.3544 49.8412 1.2 1 0.179466 0.0484053 0.00682658 0.0129739 0.00323372 0.0147592 0.0035729 0.0263164 0.00521839 0.017537 0.0045066 0.0316764 0.00392084 0.0262234 0.00686598 0.0349831 0.00567598 0.031202 0.00890167 0.0406596
59 2 Si -1.18567 13.8526 47.9314 2.4 1 0.233709 0.0542636 0.0148062 0.0171418 0.00488155 0.0181537 0.00541934 0.0272704 0.00883396 0.0199423 0.00623564 0.03126 0.00590907 0.0287688 0.00644244 0.0347187 0.00960666 0.0326918 0.0111263 0.0379182
60 3 O -1.09664 15.4205 47.9915 -1.2 1 0.230992 0.0528915 0.014394 0.0171781 0.00509849 0.0192612 0.00477676 0.0276395 0.00810414 0.0198972 0.00618807 0.0314799 0.00573805 0.0279332 0.00790128 0.0355547 0.0087127 0.0335927 0.0103846 0.0385762
61 3 O -1.73493 12.7491 51.7772 -1.2 1 0.133823 0.0414415 0.00209637 0.0103447 0.00318837 0.00977824 0.00184196 0.0247811 0.00398829 0.0140394 0.00294904 0.0296986 0.00440394 0.0238355 0.00447159 0.0332556 0.00502605 0.0279178 0.00787525 0.0423003
62 3 O -2.36115 13.2717 48.8238 -1.2 1 0.206329 0.0535121 0.00969386 0.0145155 0.00469148 0.0142835 0.00512228 0.0267373 0.00654207 0.0195138 0.00519027 0.0306469 0.00457222 0.0271931 0.00584705 0.0347591 0.00768833 0.0317583 0.00961539 0.0379341
63 1 Mg -0.159928 11.7639 46.8533 1.2 1 0.257779 0.0544647 0.0186862 0.0190265 0.00635604 0.0197835 0.00754222 0.028256 0.00959589 0.0199166 0.00795124 0.0305704 0.00687742 0.0275302 0.0082118 0.0336795 0.0105841 0.0336391 0.0132096 0.0355938
64 3 O 0.2623 13.1866 48.413 -1.2 1 0.215468 0.053493 0.0111468 0.0154363 0.00425052 0.0161524 0.0048053 0.0270767 0.00730607 0.0189482 0.00501043 0.0299883 0.00522386 0.0282456 0.00535947 0.0338732 0.00825267 0.0331335 0.0101805 0.0382252
65 1 Mg 1.33047 11.8147 54.6027 1.2 1 0.0724469 0.0307433 0.0045041 0.00668285 0.00182131 0.00678932 0.0027328 0.0238393 0.00244997 0.0116214 0.00268023 0.0293849 0.00396148 0.0230409 0.00358404 0.0337653 0.00357453 0.0262762 0.00589617 0.0458992
66 2 Si 1.35853 14.4622 56.447 2.4 1 0.0328921 0.0183391 0.00590299 0.00655296 0.00153236 0.00573307 0.00193594 0.0240206 0.00212104 0.00970065 0.00323108 0.0291936 0.00249093 0.0220823 0.00413602 0.0337654 0.00307606 0.026283 0.00544476 0.0519224
67 3 O 1.2562 12.9414 56.5049 -1.2 1 0.031571 0.0174205 0.00603653 0.00647107 0.00145962 0.00583748 0.00172556 0.0244242 0.0032847 0.00918087 0.00200132 0.0294281 0.0031904 0.0215477 0.00241859 0.0336922 0.00367182 0.0265626 0.00503208 0.0513641
68 3 O 1.36565 15.4813 52.729 -1.2 1 0.110667 0.037683 0.00080162 0.00860952 0.00197743 0.0105645 0.00330807 0.0251588 0.00333443 0.0134542 0.0034145 0.0301786 0.00397611 0.0234402 0.004493 0.0336219 0.00391258 0.0284498 0.00652425 0.0443048
69 3 O -0.0212058 15.1432 55.8475 -1.2 1 0.0473463 0.0231971 0.0053719 0.00614432 0.00133551 0.00625767 0.00259932 0.0246396 0.00197222 0.0106413 0.00267995 0.0291982 0.00261095 0.0224908 0.00415652 0.0341238 0.00293444 0.0273305 0.0051716 0.0499652
70 3 O 2.61778 15.1358 55.7638 -1.2 1 0.042886 0.0223271 0.00616193 0.00610826 0.00140606 0.00579171 0.00244995 0.0241933 0.00192217 0.0100848 0.00250786 0.0287959 0.00263564 0.0222312 0.0032756 0.0344482 0.00284882 0.027381 0.00544833 0.0500393
71 1 Mg -0.206989 14.1049 52.2121 1.2 1 0.116375 0.0410947 0.00159873 0.00920785 0.0026135 0.00881079 0.00259432 0.02493 0.00329931 0.0136915 0.00315494 0.0301401 0.00382324 0.0241212 0.00475926 0.0337278 0.00361427 0.0282128 0.00712306 0.0426856
72 1 Mg 1.82591 13.8102 49.4556 1.2 1 0.184421 0.0528219 0.00548072 0.0123818 0.00288851 0.0136223 0.00469333 0.026103 0.00547691 0.0182458 0.0047484 0.0300699 0.00492204 0.0268148 0.00619778 0.0349777 0.00629504 0.0315171 0.00933562 0.0387251
73 2 Si 1.29285 16.1518 51.2434 2.4 1 0.147643 0.0467059 0.00175759 0.0110004 0.00224804 0.0124501 0.00403579 0.0256754 0.0045737 0.0158455 0.00466887 0.0295614 0.00412423 0.025937 0.00627281 0.0341372 0.00424932 0.0308055 0.00904694 0.0427687
74 3 O 1.39496 17.7199 51.3047 -1.2 1 0.143732 0.0442404 0.00238898 0.0101595 0.00189898 0.0120921 0.00366827 0.0254624 0.00440536 0.0151111 0.00301169 0.0303797 0.00381753 0.0248364 0.00432265 0.0344704 0.00530818 0.0298235 0.00763669 0.0430345
75 3 O 1.43091 15.1382 57.927 -1.2 1 0.0175665 0.010699 0.00392119 0.00580971 0.00119602 0.00589982 0.00149727 0.0245794 0.00169948 0.00924541 0.00275228 0.029551 0.00215788 0.0214382 0.00314303 0.0335466 0.00250203 0.0262183 0.00361345 0.0519864
76 3 O -0.0269106 15.5178 50.6688 -1.2 1 0.157276 0.0468802 0.00409942 0.0117063 0.00322294 0.0126029 0.0039775 0.0258006 0.00427594 0.0159042 0.0028659 0.0301661 0.00424385 0.0261786 0.00566625 0.0337688 0.00406779 0.0304762 0.00827281 0.0414985
77 1 Mg -3.18391 14.1057 52.3125 1.2 1 0.123742 0.0412392 0.000905437 0.00910089 0.00202521 0.0107138 0.00267332 0.0250936 0.00374731 0.0145522 0.00296018 0.0301861 0.0038372 0.0244889 0.00420446 0.0332746 0.00412055 0.0283311 0.00674635 0.0419619
78 3 O 2.52432 15.503 50.4579 -1.2 1 0.16063 0.0486922 0.0040258 0.0107009 0.0022546 0.013243 0.00403649 0.0259142 0.00473635 0.0175883 0.00342346 0.0301211 0.00411206 0.026895 0.00574482 0.0341729 0.00512442 0.0304433 0.00825553 0.0411186
79 1 Mg -1.60123 14.2164 55.1641 1.2 1 0.0540469 0.0265127 0.00576189 0.0068226 0.00166418 0.00588296 0.00212533 0.0245814 0.00289242 0.0107541 0.00300516 0.0297457 0.00247007 0.0226637 0.00394929 0.0339581 0.00383549 0.0270387 0.00576397 0.0485169
80 2 Si -1.7203 12.0616 53.2869 2.4 1 0.0975648 0.0368517 0.00327775 0.00828761 0.00279657 0.00768274 0.00157862 0.0244352 0.00383129 0.0127063 0.0027428 0.0288669 0.00402326 0.0235542 0.00315417 0.0335972 0.00448542 0.0272839 0.00687742 0.0449108
81 3 O -1.73632 10.5235 53.1779 -1.2 1 0.0987896 0.0362046 0.00353798 0.00820618 0.00256455 0.00777629 0.00177412 0.0234758 0.0037022 0.0115957 0.00333621 0.0284911 0.00401799 0.0219018 0.00471124 0.0331133 0.00449209 0.0263418 0.0081021 0.0438157
82 3 O -1.21337 13.3381 46.4311 -1.2 1 0.269714 0.0535034 0.0207825 0.0204363 0.00685453 0.0206653 0.00745827 0.0302802 0.00974778 0.0208374 0.00700492 0.0315719 0.00606263 0.0271537 0.00860748 0.0358302 0.0123306 0.0353915 0.0127449 0.0356644
83 3 O -2.96557 12.7133 54.0186 -1.2 1 0.0844836 0.0327427 0.00334627 0.00676752 0.00190427 0.00810521 0.00167363 0.0242698 0.00269634 0.0121755 0.00228008 0.0288607 0.00347649 0.0231929 0.00330798 0.0341953 0.00354859 0.0271344 0.00612291 0.0457576
84 3 O -0.433406 12.7251 53.9556 -1.2 1 0.0792234 0.0322127 0.0042771 0.00689512 0.00234868 0.00612208 0.00133865 0.0246378 0.00277546 0.0118142 0.00229362 0.0290025 0.00316964 0.023326 0.00356021 0.0342313 0.00349778 0.0275317 0.00657915 0.045989
85 1 Mg -2.94214 21.2752 57.3104 1.2 1 0.0222574 0.0134324 0.00486002 0.00565858 0.00124007 0.00628593 0.00128857 0.0244947 0.00180887 0.00982127 0.00141968 0.0294616 0.0018168 0.0209136 0.00206169 0.0330663 0.00271583 0.0257705 0.00352741 0.0518573
86 1 Mg -1.5831 21.1217 49.8405 1.2 1 0.180076 0.0488212 0.00695203 0.0130981 0.00282284 0.0154014 0.00355823 0.0268684 0.0048718 0.017192 0.00475832 0.0314762 0.00370719 0.0261617 0.00654007 0.0349785 0.00536282 0.031471 0.0090603 0.0411223
87 2 Si -1.09384 18.6291 47.9287 2.4 1 0.233269 0.0545498 0.0141614 0.0176553 0.00377944 0.0206366 0.00449226 0.0286641 0.0080825 0.0203195 0.00573417 0.0326736 0.00620091 0.028782 0.00607981 0.0358852 0.00909863 0.033993 0.0104882 0.0404087
88 3 O -1.02071 20.1985 47.9911 -1.2 1 0.230493 0.0532709 0.0138652 0.0176942 0.00412539 0.0207543 0.00445123 0.0285132 0.00758877 0.0199936 0.00589918 0.0322199 0.00588654 0.0278983 0.00757966 0.0361846 0.00782103 0.0341052 0.0100219 0.0401387
89 3 O -1.65002 17.5002 51.771 -1.2 1 0.134176 0.0418729 0.00184687 0.0104128 0.00255493 0.011149 0.00177791 0.0253953 0.00371474 0.0144086 0.00287613 0.0303602 0.00413507 0.0241449 0.00417538 0.034 0.00516567 0.0286493 0.00745218 0.0429274
90 3 O -2.26174 18.0434 48.8281 -1.2 1 0.202858 0.0528134 0.00893793 0.0146296 0.0034651 0.0169486 0.00406322 0.0278123 0.00577085 0.019638 0.00439895 0.0320785 0.00433177 0.0276369 0.00597771 0.0355115 0.00693852 0.0332354 0.00908216 0.0398343
91 1 Mg -0.0440435 16.5651 46.8269 1.2 1 0.258465 0.054694 0.0181315 0.0198593 0.00524877 0.0243678 0.00567776 0.0313525 0.00970231 0.0221778 0.00629737 0.0337119 0.00710655 0.029424 0.00831273 0.0358945 0.00970285 0.0364552 0.0118541 0.0396578
92 3 O 0.37001 17.9877 48.3925 -1.2 1 0.213331 0.0533936 0.0103619 0.0158186 0.00341912 0.0180187 0.00373028 0.0283447 0.00648512 0.019605 0.00386331 0.0317252 0.00519693 0.0287744 0.00569227 0.0351709 0.00736683 0.0342212 0.00970867 0.0408517
93 1 Mg 1.37293 16.515 54.5933 1.2 1 0.0710344 0.0301449 0.00384522 0.00647197 0.00140167 0.00730632 0.00300512 0.0242617 0.00254168 0.0119103 0.00254615 0.0295764 0.00328329 0.02332 0.00357864 0.0342968 0.00380722 0.0270339 0.00541365 0.0469421
94 2 Si 1.49588 19.1302 56.3186 2.4 1 0.0351834 0.0201541 0.00588483 0.00633323 0.00141576 0.00619799 0.00183199 0.0237351 0.00203464 0.00936629 0.00333515 0.0283242 0.00199382 0.0221398 0.00384009 0.0335298 0.00324786 0.0259859 0.00540796 0.0516919
95 3 O 1.31593 17.5653 56.463 -1.2 1 0.0319638 0.0182334 0.00568439 0.00618413 0.0014839 0.00571033 0.00206679 0.0242208 0.00281118 0.00921295 0.00214291 0.0292834 0.00281873 0.0214422 0.00266184 0.0333667 0.00412817 0.0261275 0.00475348 0.0510155
96 3 O 1.45147 20.239 52.7294 -1.2 1 0.110168 0.0376857 0.00131681 0.00823899 0.00151948 0.0108565 0.00347141 0.0251976 0.00303833 0.0130264 0.00318497 0.0296632 0.00366522 0.0231662 0.00420284 0.0336906 0.00404957 0.0282691 0.0068511 0.045098
97 3 O 0.207646 19.8208 55.7421 -1.2 1 0.0485137 0.0238979 0.0051262 0.00595797 0.00107478 0.00611702 0.00217903 0.0238284 0.00179061 0.0100407 0.00250274 0.0284722 0.00225061 0.0220892 0.00330098 0.0340215 0.00300883 0.0263663 0.00515908 0.0499416
98 3 O 2.77609 19.8091 55.694 -1.2 1 0.0431436 0.022883 0.00621976 0.00583928 0.00171198 0.00596594 0.00229134 0.0242061 0.00195396 0.00980169 0.00264986 0.0281235 0.00231453 0.0220268 0.00354488 0.0342868 0.00318773 0.0267844 0.00552602 0.0508321
99 1 Mg -0.126194 18.8651 52.2079 1.2 1 0.115803 0.0414705 0.00175717 0.00914053 0.00188732 0.00941255 0.0026457 0.0253351 0.0030439 0.0139893 0.00300993 0.0303785 0.00347226 0.0240595 0.00411206 0.0339161 0.00389999 0.0287835 0.00718107 0.043531
100 1 Mg 1.92402 18.5815 49.4545 1.2 1 0.182177 0.0525822 0.0051785 0.012152 0.0017791 0.0147187 0.0045613 0.0265661 0.00480059 0.0186028 0.00377454 0.0312868 0.00472011 0.027213 0.00485653 0.0356729 0.006015 0.0320823 0.00894342 0.0408462
101 2 Si 1.38106 20.9117 51.2443 2.4 1 0.145369 0.0465807 0.00157072 0.0106347 0.00210505 0.0127621 0.004289 0.0260728 0.00381103 0.0155647 0.00464984 0.0294422 0.00423957 0.0253277 0.00612536 0.0340494 0.00388025 0.0305852 0.00883409 0.0434572
102 3 O 1.48527 22.4795 51.3054 -1.2 1 0.143005 0.0440499 0.00245478 0.00989082 0.00188004 0.0125072 0.00356384 0.0255729 0.00424333 0.014612 0.00303497 0.0301045 0.0036211 0.0243693 0.00438108 0.0342314 0.00493792 0.0297359 0.00779166 0.0436744
103 3 O 1.46005 19.7792 57.8134 -1.2 1 0.0171947 0.0109634 0.00377541 0.00585152 0.000970008 0.00609629 0.00135844 0.0242075 0.00172523 0.00909402 0.00287272 0.028978 0.00203617 0.020991 0.0033003 0.0332007 0.00291593 0.02529 0.00383703 0.0526128
104 3 O 0.0615419 20.2804 50.6669 -1.2 1 0.156612 0.0471151 0.00370629 0.0113551 0.00311045 0.0133184 0.00395015 0.0266071 0.0039979 0.0160005 0.00315957 0.030199 0.0042993 0.026359 0.00517965 0.034069 0.00442243 0.0306697 0.00816308 0.0428101
105 1 Mg -3.09665 18.8643 52.3122 1.2 1 0.124361 0.0414407 0.00105923 0.00890893 0.0014926 0.01122 0.00298396 0.0253174 0.00335815 0.0145171 0.00278892 0.03001 0.00339892 0.0244946 0.00349792 0.0339235 0.00467736 0.0288453 0.00683478 0.0431409
106 3 O 2.61548 20.2646 50.4626 -1.2 1 0.159009 0.0483217 0.00349021 0.0106282 0.00152079 0.0136952 0.00403734 0.0261386 0.00394276 0.0168376 0.00328629 0.0300227 0.0038843 0.0259813 0.00520184 0.0343733 0.00479698 0.0304391 0.00821843 0.0422085
107 1 Mg -1.4806 18.7913 55.192 1.2 1 0.0525956 0.0257941 0.00581792 0.00638716 0.001889 0.00610667 0.00208412 0.0246154 0.00270194 0.010584 0.0031739 0.0290512 0.00226139 0.0226577 0.00373436 0.03362 0.00391002 0.026489 0.0057803 0.0492899
108 2 Si -1.69125 16.8039 53.2231 2.4 1 0.097961 0.0369813 0.00288899 0.00826609 0.00224645 0.00793511 0.00171999 0.0244655 0.00358982 0.0127596 0.00281639 0.0291474 0.00304505 0.0241111 0.00329052 0.0339214 0.00471567 0.027951 0.00600688 0.045521
109 3 O -1.72865 15.2585 53.198 -1.2 1 0.0960204 0.0357348 0.00267232 0.00800643 0.00216455 0.00798867 0.00161471 0.0241866 0.00360208 0.0121853 0.00303069 0.0295322 0.00282761 0.0231816 0.0042829 0.0341062 0.00385727 0.0275851 0.00689921 0.045524
110 3 O -1.12868 18.1227 46.4249 -1.2 1 0.268124 0.0544621 0.0198007 0.0209874 0.00545576 0.0241844 0.0062249 0.0322155 0.0083429 0.0219316 0.00580324 0.0339677 0.00666597 0.0274402 0.00850945 0.0377333 0.0113558 0.0372741 0.0118264 0.0394728
111 3 O -2.89348 17.4943 53.9511 -1.2 1 0.082589 0.0323257 0.00318612 0.00650983 0.00152012 0.0083156 0.0018884 0.0245686 0.00248223 0.0120919 0.00215657 0.0290028 0.00274838 0.0237702 0.00271181 0.0338804 0.00357552 0.0273893 0.00590124 0.0465564
112 3 O -0.377619 17.5108 53.9602 -1.2 1 0.07739 0.0319659 0.00393973 0.0067085 0.00215477 0.00620913 0.00130792 0.0245847 0.00260097 0.0115543 0.002444 0.028829 0.00244138 0.0235653 0.00346014 0.0343278 0.0036593 0.0279059 0.00619865 0.0465815
113 1 Mg -2.83634 26.0716 57.3815 1.2 1 0.0223936 0.0135344 0.00483645 0.00593011 0.00120853 0.00664397 0.00145477 0.0241468 0.00173478 0.00929969 0.00178726 0.0293354 0.00197717 0.0206534 0.00205011 0.0334485 0.00279141 0.0259988 0.00403905 0.0525953
114 1 Mg -1.48778 25.88 49.8402 1.2 1 0.180318 0.0490083 0.00694744 0.013314 0.00313013 0.0158376 0.00322625 0.0267018 0.00461517 0.0170136 0.00471912 0.0314107 0.00358156 0.025861 0.00676832 0.0351243 0.0055024 0.0319464 0.00924606 0.0413062
115 2 Si -1.00491 23.3922 47.9274 2.4 1 0.23416 0.0551906 0.0148698 0.0182137 0.003944 0.0215381 0.00468524 0.0290197 0.00793218 0.02016 0.00516546 0.0325505 0.00585747 0.0286221 0.00650631 0.0360706 0.0087378 0.0343147 0.0103084 0.0403282
116 3 O -0.927602 24.9615 47.9909 -1.2 1 0.230325 0.0538931 0.0144063 0.0177245 0.00408884 0.0211782 0.00420356 0.0286834 0.00756971 0.0198914 0.00537997 0.032071 0.0056552 0.0278694 0.00766449 0.0362721 0.0078808 0.0343996 0.00985339 0.0402667
117 3 O -1.55795 22.2588 51.7696 -1.2 1 0.133307 0.0416063 0.00187289 0.0102738 0.00270298 0.0116414 0.00212905 0.0254342 0.00322005 0.0139277 0.00281318 0.0298193 0.00396597 0.0238366 0.0042741 0.0336447 0.00514851 0.0286392 0.00755937 0.0440221
118 3 O -2.17411 22.8111 48.8277 -1.2 1 0.202165 0.0532333 0.00921784 0.014962 0.00303925 0.017446 0.00416251 0.0282522 0.00523087 0.0192727 0.0042159 0.0317049 0.00419251 0.0273381 0.00599275 0.035592 0.00637187 0.0334217 0.00915043 0.0402251
119 1 Mg 0.0423997 21.3296 46.8225 1.2 1 0.257755 0.055454 0.0182818 0.0206392 0.00493488 0.0253571 0.00601392 0.031999 0.00892158 0.0219698 0.00604069 0.0340051 0.00696111 0.0289666 0.00875972 0.0364576 0.00897049 0.0369008 0.0117742 0.0399926
120 3 O 0.458537 22.7495 48.3911 -1.2 1 0.214313 0.0544043 0.0108173 0.0161453 0.00349697 0.0186755 0.00368582 0.0288091 0.00648844 0.0194948 0.00368038 0.0315573 0.00498649 0.0285984 0.00560484 0.0353069 0.00725876 0.0349181 0.00950094 0.0409619
121 1 Mg 1.4378 21.3842 54.5473 1.2 1 0.0723222 0.0305186 0.00380599 0.00640853 0.00142595 0.00766987 0.00270966 0.0241497 0.00218624 0.0115656 0.00229887 0.0290783 0.00319572 0.0230218 0.00341542 0.0343217 0.0039099 0.0266287 0.00550797 0.0475571