ITEM: TIMESTEP
18600
ITEM: NUMBER OF ATOMS
10500
ITEM: BOX BOUNDS xy xz yz pp pp pp
0	8.9688	2.9896
0	118.725	0
0	252.977	0
ITEM: ATOMS id type element xu yu zu q Q_1 Q_2 Q_3 Q_4 Q_5 Q_6 Q_7 Q_8 Q_9 Q_10 Q_11 Q_12 Q_13 Q_14 Q_15 Q_16 Q_17 Q_18 Q_19 Q_20 Q_21
1 1 Mg -3.55323 7.05189 57.5675 1.2 1 0.0211144 0.0128977 0.00492803 0.00548887 0.00191524 0.00657586 0.00178826 0.0226556 0.00128088 0.00885252 0.00204443 0.0293939 0.00250435 0.0202236 0.00232053 0.0328181 0.00298199 0.0255964 0.00546148 0.0508166
2 1 Mg -1.82655 6.90154 50.0912 1.2 1 0.178131 0.0468102 0.00586695 0.0105575 0.00309606 0.00854465 0.00443273 0.0228032 0.00489975 0.0149221 0.0047943 0.0263255 0.00438319 0.0209952 0.00620986 0.0294064 0.0057731 0.0258752 0.00954108 0.0358795
3 2 Si -0.257935 3.96038 48.0876 2.4 1 0.223782 0.05244 0.0110649 0.0125437 0.00240889 0.00940418 0.00369352 0.0205336 0.00597758 0.016936 0.00465602 0.0250374 0.00496501 0.0203936 0.00530177 0.0270604 0.00723523 0.0250652 0.00918781 0.0333699
4 3 O -0.335812 5.46814 47.6264 -1.2 1 0.233083 0.0520985 0.0130133 0.0138652 0.00294068 0.0104504 0.00473954 0.0213094 0.0068784 0.0175119 0.00522296 0.0256451 0.00451773 0.0207856 0.00540157 0.0271288 0.00768568 0.0257857 0.0101967 0.0320531
5 3 O -2.03793 3.43377 51.8941 -1.2 1 0.130948 0.0403097 0.00246251 0.007241 0.00233867 0.00641242 0.00314265 0.0211094 0.00284999 0.0117556 0.00316748 0.0265764 0.00374592 0.0179497 0.00429942 0.030113 0.00514073 0.0238958 0.00849283 0.0395554
6 3 O -1.54015 3.53929 48.9521 -1.2 1 0.204279 0.0514972 0.00882816 0.0111749 0.00262662 0.00788302 0.00406929 0.0206179 0.00546001 0.0155396 0.00484241 0.024774 0.00425032 0.0200041 0.00598272 0.0278727 0.00586057 0.0243498 0.00925248 0.0335083
7 1 Mg 1.82954 2.54582 47.1376 1.2 1 0.247265 0.0525798 0.0159271 0.01568 0.00350179 0.010767 0.0038042 0.0206007 0.00620746 0.0158492 0.00499756 0.0244966 0.0063467 0.0193831 0.00781597 0.0258078 0.0068121 0.0234872 0.009348 0.0310868
8 3 O 1.22989 3.66364 48.7877 -1.2 1 0.20371 0.049523 0.00889022 0.0119012 0.00247402 0.00891209 0.00428672 0.0205095 0.00442209 0.015283 0.00424252 0.024906 0.00482182 0.0197263 0.00610428 0.0277461 0.00506422 0.0242749 0.00932362 0.0347432
9 1 Mg 1.01493 2.44209 54.6359 1.2 1 0.0705309 0.0290878 0.00467486 0.00523706 0.00193336 0.00491596 0.00303899 0.0222849 0.00264099 0.00981412 0.00297892 0.0277619 0.00401049 0.0198098 0.00425268 0.0325788 0.00286711 0.024603 0.0069154 0.0456831
10 2 Si 1.03085 5.02571 56.5152 2.4 1 0.0335485 0.0183229 0.00589866 0.00606077 0.00166644 0.0067312 0.00249357 0.0226274 0.00169663 0.00849345 0.00327213 0.0276493 0.00288792 0.0201003 0.00430159 0.0325762 0.0035105 0.0255311 0.00714256 0.0506018
11 3 O 1.04241 3.48116 56.6381 -1.2 1 0.0310488 0.0173322 0.00594021 0.00603442 0.00186743 0.00631491 0.00203706 0.0227198 0.00259338 0.00827412 0.00219179 0.0285084 0.00291847 0.019451 0.00323671 0.0332623 0.00351296 0.0261476 0.00580786 0.0503745
12 3 O 1.10813 6.07342 52.8172 -1.2 1 0.108092 0.0351459 0.0030308 0.00658882 0.00241915 0.00704524 0.00331714 0.022552 0.00295281 0.0116591 0.00320847 0.0273275 0.00434695 0.0195556 0.00473051 0.0307591 0.00431608 0.0250698 0.00745553 0.0417864
13 3 O -0.234987 5.64395 55.8198 -1.2 1 0.0477764 0.0230603 0.00569521 0.00524217 0.00202808 0.00543524 0.00227502 0.0224935 0.00159974 0.00956575 0.0025115 0.0279766 0.00304183 0.0198729 0.00332386 0.0329874 0.00333564 0.0255509 0.00628685 0.0482652
14 3 O 2.40545 5.67651 55.8931 -1.2 1 0.0425778 0.0217113 0.00617505 0.00515363 0.00140666 0.00606302 0.00247089 0.0226128 0.00115873 0.00888669 0.00264482 0.0278936 0.00322561 0.0198351 0.00398716 0.0338007 0.00319685 0.0260677 0.0074088 0.0488475
15 1 Mg -0.459401 4.67631 52.2426 1.2 1 0.124612 0.0397766 0.00242689 0.00696492 0.00261381 0.00635742 0.00271563 0.0216869 0.0031436 0.0124041 0.00274407 0.0273348 0.00423944 0.0192671 0.00449498 0.0301832 0.00419267 0.0240818 0.00804531 0.0393795
16 1 Mg 2.79456 3.9971 49.9987 1.2 1 0.175927 0.0486655 0.00512981 0.0102055 0.00297479 0.00740349 0.00489738 0.0216045 0.00368331 0.0148987 0.00287065 0.0254773 0.00442715 0.0202528 0.00608212 0.0287931 0.00462048 0.0246549 0.00982262 0.0354623
17 2 Si 1.16169 6.59457 51.2556 2.4 1 0.148385 0.0441541 0.00268463 0.00894281 0.00287711 0.00821312 0.00409075 0.0222003 0.00432973 0.0137455 0.00445244 0.0259059 0.00442856 0.0209799 0.00593285 0.0304499 0.00481291 0.0256277 0.0095814 0.0385614
18 3 O 1.28989 8.18905 51.2909 -1.2 1 0.147352 0.0429581 0.00266729 0.00936476 0.00276083 0.00884682 0.00407736 0.0224043 0.00403917 0.0133367 0.00374785 0.0278345 0.00404163 0.0211557 0.00507041 0.030858 0.00536178 0.0262484 0.00869323 0.0396411
19 3 O 1.05899 5.70058 58.0874 -1.2 1 0.0165548 0.0108586 0.00395317 0.00573844 0.00190756 0.00689649 0.00172329 0.0230554 0.000840498 0.00833275 0.00254738 0.0288135 0.00228617 0.0203048 0.0029798 0.0334988 0.00261378 0.0262104 0.00470458 0.051551
20 3 O -0.184847 6.06029 50.6845 -1.2 1 0.160404 0.0436979 0.00450766 0.00918152 0.00327316 0.00777561 0.00406602 0.0220235 0.00440932 0.0141083 0.00308415 0.0258095 0.00440626 0.0203012 0.00568837 0.0289299 0.00512922 0.025167 0.00916546 0.0376782
21 1 Mg -3.49704 4.67769 52.6661 1.2 1 0.116864 0.0375263 0.0022263 0.00651873 0.00235809 0.00661513 0.00315762 0.0212285 0.00334359 0.0114343 0.00357783 0.0272036 0.00391171 0.0188565 0.0044695 0.0299912 0.00394058 0.0238088 0.00833572 0.0405968
22 3 O 2.48581 5.93312 50.6539 -1.2 1 0.159196 0.0459852 0.003535 0.0087758 0.0017917 0.00850327 0.00416947 0.0220763 0.00403807 0.0142293 0.00407234 0.0256696 0.00444943 0.0208928 0.00576085 0.029852 0.004331 0.0254231 0.00937036 0.0371704
23 1 Mg -1.92464 4.81514 55.1628 1.2 1 0.0525733 0.0253284 0.00659284 0.00538642 0.00198208 0.0057475 0.0017564 0.0224717 0.00274898 0.00940067 0.00300357 0.0284399 0.0027637 0.0200474 0.00389376 0.0329901 0.00453381 0.0253702 0.00771369 0.0472215
24 2 Si -1.99937 2.65499 53.3376 2.4 1 0.10062 0.0347257 0.00308034 0.0062021 0.00269247 0.00533836 0.00227596 0.0219307 0.00273701 0.010952 0.00304402 0.0264553 0.00323548 0.0190191 0.00395584 0.0311804 0.00408869 0.0241268 0.00767534 0.0429416
25 3 O -1.98636 1.08777 53.2538 -1.2 1 0.0985844 0.0342702 0.00280266 0.00596272 0.003114 0.00508657 0.00251769 0.0217174 0.00271131 0.0102523 0.00267429 0.0270752 0.00321773 0.0187362 0.00416962 0.0314607 0.00378266 0.0240304 0.00743295 0.0427661
26 3 O -0.0467762 2.97103 46.8385 -1.2 1 0.252258 0.0530544 0.0163771 0.0150304 0.00309197 0.00967875 0.0038949 0.020307 0.00667445 0.0167291 0.00615581 0.0245238 0.00688992 0.0187809 0.00819443 0.0255613 0.00706934 0.0239313 0.0103482 0.0320839
27 3 O -3.25154 3.35167 54.0687 -1.2 1 0.0818103 0.0308191 0.00388303 0.00492154 0.00228834 0.00524242 0.00175541 0.0219538 0.0024056 0.0104604 0.00251693 0.0269121 0.00291759 0.0192722 0.00381556 0.0316813 0.00370373 0.0239873 0.0076186 0.0439699
28 3 O -0.689178 3.28042 54.0476 -1.2 1 0.0818877 0.0311836 0.00411129 0.00524628 0.00224241 0.00578713 0.00171085 0.0222258 0.0023247 0.0104571 0.00214208 0.0271801 0.00337509 0.0197697 0.0034138 0.0316848 0.00337761 0.0248074 0.00703824 0.0438945
29 1 Mg -3.28949 11.7886 57.3772 1.2 1 0.0232004 0.0137512 0.00482429 0.00591521 0.00133323 0.00653146 0.00149178 0.0230057 0.00164998 0.0096697 0.00207442 0.0291975 0.00224403 0.0208609 0.00230417 0.0329811 0.003239 0.0256996 0.00492047 0.0508196
30 1 Mg -1.75014 11.5838 49.8362 1.2 1 0.184675 0.0469297 0.00691422 0.0125244 0.00429801 0.0127353 0.00494699 0.0240989 0.00539803 0.0159446 0.00533418 0.0286375 0.00414632 0.0241337 0.00656112 0.0321434 0.00662356 0.0287952 0.0100682 0.0383588
31 2 Si -1.18003 9.02138 47.9309 2.4 1 0.241198 0.0508719 0.0141674 0.0160553 0.00524524 0.0131101 0.00771534 0.0231043 0.00793936 0.0175185 0.00728161 0.0265612 0.00515286 0.0227441 0.00649003 0.0296289 0.00877306 0.0284389 0.0123455 0.0346904
32 3 O -1.23224 10.5991 47.9811 -1.2 1 0.229391 0.0514721 0.0122542 0.0159627 0.00526255 0.014176 0.00648341 0.0238474 0.0077388 0.0177434 0.00730703 0.0278496 0.00551252 0.0239857 0.00792916 0.0318105 0.00909442 0.0302948 0.0114144 0.0354067
33 3 O -1.79016 8.01447 51.8693 -1.2 1 0.134295 0.0398122 0.00257079 0.00867327 0.00345605 0.00754756 0.00266143 0.0224195 0.00348924 0.0127859 0.00363587 0.0277085 0.00399128 0.0205557 0.00462806 0.031047 0.00530068 0.0252576 0.00902056 0.0405274
34 3 O -2.30986 8.37215 48.8528 -1.2 1 0.205376 0.0510782 0.00834888 0.0128175 0.00391376 0.0104712 0.00604928 0.0232215 0.00629706 0.0174887 0.00514933 0.0267224 0.00422847 0.0228923 0.00568972 0.0306017 0.00690964 0.0278664 0.00998516 0.0351085
35 1 Mg 0.154883 7.08234 46.8007 1.2 1 0.25831 0.0515768 0.016827 0.0165539 0.00587092 0.0133718 0.00840138 0.0236865 0.00816343 0.017827 0.00735346 0.0255017 0.0067891 0.0214659 0.00797749 0.0283374 0.00981539 0.0282527 0.013172 0.0320462
36 3 O 0.325447 8.50934 48.3809 -1.2 1 0.218122 0.0519303 0.0102087 0.0143417 0.00420793 0.0120392 0.00640707 0.0239093 0.00673881 0.0174351 0.00608274 0.0261967 0.00491171 0.0238557 0.005644 0.0295295 0.00720971 0.0285803 0.0109585 0.0347359
37 1 Mg 1.11579 7.09288 54.7016 1.2 1 0.0691822 0.0282377 0.00475594 0.00524967 0.00214216 0.00612427 0.00264485 0.0222154 0.00209999 0.0102083 0.00308208 0.0278569 0.00380071 0.0204511 0.00375592 0.032919 0.00359222 0.0249865 0.00760526 0.0458726
38 2 Si 1.13627 9.79018 56.473 2.4 1 0.0349022 0.018658 0.00571935 0.00635599 0.0015123 0.00662952 0.00210487 0.0227102 0.00193551 0.00868199 0.00298345 0.0278628 0.00282216 0.0209905 0.00380435 0.0328793 0.00374292 0.0255177 0.00650149 0.0512046
39 3 O 1.03543 8.1758 56.5676 -1.2 1 0.0312761 0.0169648 0.0058811 0.00576346 0.00127776 0.00669922 0.00193083 0.0225352 0.00220368 0.00814912 0.00229222 0.028662 0.00291029 0.019741 0.00334641 0.0328618 0.0036107 0.0253358 0.00628263 0.0502532
40 3 O 1.28624 10.7248 52.7351 -1.2 1 0.112365 0.0364502 0.0021344 0.00768933 0.00223441 0.00960489 0.00290519 0.0232878 0.00305698 0.0124533 0.00366898 0.0279783 0.00437703 0.0220702 0.00443957 0.0320366 0.0039323 0.0268668 0.00736512 0.0432154
41 3 O -0.145778 10.4895 55.8729 -1.2 1 0.0488421 0.0231426 0.00523418 0.00591541 0.00134159 0.00648308 0.00215565 0.0235798 0.00159225 0.0100047 0.00259108 0.0279853 0.0028327 0.0214789 0.00403784 0.0331839 0.00338827 0.0261843 0.00596836 0.0491376
42 3 O 2.4349 10.4694 55.8198 -1.2 1 0.0442374 0.0221758 0.00617248 0.00593855 0.00138005 0.00628727 0.00249242 0.0226622 0.00149284 0.00933347 0.00275356 0.0280216 0.00293211 0.0210152 0.00369857 0.0336446 0.00290381 0.0259008 0.00670112 0.049177
43 1 Mg -0.262694 9.34741 52.2523 1.2 1 0.115391 0.0390949 0.00309482 0.00787459 0.00302012 0.00782967 0.00249745 0.02349 0.00314377 0.0125139 0.00329831 0.0283989 0.00385271 0.021415 0.00472353 0.0318125 0.00422568 0.0264131 0.00832297 0.0417247
44 1 Mg 1.87648 9.01537 49.4629 1.2 1 0.184998 0.0507882 0.00510355 0.0116098 0.00307806 0.010689 0.00611121 0.0234866 0.00546155 0.0166282 0.00517489 0.0272442 0.00488592 0.0232684 0.00559672 0.0308924 0.00562669 0.0282091 0.0102923 0.0366492
45 2 Si 1.21415 11.3799 51.2378 2.4 1 0.149534 0.0453975 0.00202794 0.0103179 0.00305561 0.0111955 0.00380806 0.0236871 0.0043139 0.0146348 0.00485065 0.0272332 0.00440294 0.0244188 0.00541828 0.0323093 0.00450393 0.0287437 0.0091018 0.0410745
46 3 O 1.31634 12.9512 51.3023 -1.2 1 0.146426 0.0432252 0.00254193 0.009841 0.0026335 0.0119156 0.00341906 0.0240764 0.00411586 0.0144685 0.00371223 0.0289685 0.00440456 0.0248401 0.00425668 0.0326292 0.00503787 0.0288176 0.00787215 0.0414664
47 3 O 1.16956 10.502 57.9619 -1.2 1 0.0180298 0.010917 0.00412184 0.00605947 0.00134997 0.00704386 0.00146481 0.0232637 0.00142284 0.00847192 0.00286436 0.0284465 0.0021222 0.020741 0.00285312 0.0329896 0.00309027 0.0257911 0.0043444 0.0521227
48 3 O -0.115718 10.7564 50.681 -1.2 1 0.157296 0.0450231 0.0033717 0.0108162 0.00369609 0.0105307 0.00410224 0.023689 0.00439402 0.014415 0.00382902 0.0277716 0.00437883 0.0235338 0.00587624 0.0314382 0.00484048 0.0277218 0.00941706 0.0400358
49 1 Mg -3.26386 9.35564 52.3622 1.2 1 0.124408 0.038501 0.00197501 0.00781131 0.00230907 0.00938349 0.00315852 0.0228869 0.00355801 0.0129463 0.00401174 0.0279043 0.00347925 0.0216214 0.00453964 0.0318716 0.00406665 0.0263025 0.00830939 0.0406013
50 3 O 2.45216 10.7265 50.4558 -1.2 1 0.165238 0.0473462 0.00350277 0.0102046 0.00274898 0.0115993 0.00483558 0.0234835 0.00472256 0.0161382 0.00451065 0.0277902 0.00403032 0.0241999 0.00556636 0.0322994 0.00538212 0.0282659 0.00945778 0.0392727
51 1 Mg -1.85599 9.51903 55.2682 1.2 1 0.0546278 0.0255162 0.00601789 0.00598503 0.00209664 0.00654538 0.00245501 0.0228389 0.00250999 0.00972441 0.00282305 0.0283613 0.00305557 0.0209795 0.00358346 0.0330021 0.00435937 0.0257285 0.00699005 0.0477769
52 2 Si -1.85088 7.41266 53.3523 2.4 1 0.0977618 0.0351603 0.00385383 0.00671857 0.00331782 0.0066187 0.00212367 0.0221248 0.00351309 0.0115817 0.00317924 0.0275864 0.00341904 0.0208164 0.00320241 0.0317219 0.00507864 0.0247635 0.00735723 0.0432626
53 3 O -1.91093 5.78233 53.3184 -1.2 1 0.0991496 0.0332781 0.00320595 0.00589062 0.00259285 0.00667735 0.00194352 0.0218616 0.0032375 0.010601 0.00303727 0.0268783 0.00334236 0.0192001 0.00464645 0.0317088 0.00361897 0.0247288 0.0086553 0.0427401
54 3 O -1.19417 8.46968 46.4488 -1.2 1 0.270663 0.0518183 0.0193604 0.0184024 0.00586032 0.0144223 0.00879592 0.0246022 0.00847985 0.0179392 0.00775783 0.0258413 0.00629887 0.0213354 0.00869007 0.0296944 0.0100715 0.0298705 0.0125475 0.0318696
55 3 O -3.11774 8.04548 54.0304 -1.2 1 0.082148 0.0294959 0.00358104 0.00556837 0.00230634 0.00753486 0.00207714 0.0224077 0.00248742 0.0108682 0.00244463 0.0271084 0.00303432 0.020842 0.00360597 0.0327665 0.0042053 0.0251577 0.00781313 0.0447931
56 3 O -0.575133 8.05199 53.9797 -1.2 1 0.0793764 0.0307533 0.00489439 0.00566744 0.00276773 0.00586438 0.00146022 0.0226694 0.00239159 0.0105452 0.00256619 0.0275845 0.00290698 0.020562 0.00383728 0.0326146 0.00385512 0.0257826 0.0074715 0.0448456
57 1 Mg -3.12031 16.4846 57.2729 1.2 1 0.0216242 0.0138311 0.0050972 0.00611039 0.00157015 0.00682123 0.00152189 0.0232084 0.00192917 0.00987047 0.00178699 0.0286961 0.00197464 0.0210231 0.00231569 0.0326982 0.00300264 0.0261982 0.00431494 0.0511719
58 1 Mg -1.6714 16.3544 49.8412 1.2 1 0.18151 0.0476887 0.00680198 0.0132909 0.0034035 0.015376 0.00353015 0.0257303 0.00422913 0.0175294 0.00445498 0.0308864 0.00392374 0.0265048 0.00642225 0.0339937 0.00566765 0.0311955 0.00944661 0.0408953
59 2 Si -1.18567 13.8526 47.9314 2.4 1 0.233201 0.0529321 0.0143584 0.0171045 0.00479805 0.0183703 0.0051256 0.0264327 0.00838443 0.019558 0.00638178 0.0307451 0.00577627 0.0283635 0.00671153 0.0340865 0.00940501 0.0327508 0.0115056 0.0380801
60 3 O -1.09664 15.4205 47.9915 -1.2 1 0.232219 0.052118 0.0139757 0.0175688 0.00511449 0.0197008 0.00453868 0.0268406 0.00752967 0.0198376 0.00645884 0.0309958 0.0058292 0.0281622 0.00788636 0.0350494 0.00867612 0.0338205 0.0106974 0.0387893
61 3 O -1.73493 12.7491 51.7772 -1.2 1 0.135988 0.0406135 0.00207783 0.00996504 0.00324447 0.0105248 0.00182649 0.023923 0.0035926 0.0138083 0.00312333 0.0289746 0.00431548 0.0236853 0.00470933 0.032506 0.00503156 0.0276404 0.00784104 0.0426
62 3 O -2.36115 13.2717 48.8238 -1.2 1 0.203524 0.0516028 0.00919072 0.0141336 0.00465589 0.014643 0.00499113 0.0261191 0.00583267 0.0191357 0.00531063 0.0301978 0.00460721 0.0267447 0.00600803 0.0337777 0.00711978 0.0316205 0.0100787 0.0379518
63 1 Mg -0.159928 11.7639 46.8533 1.2 1 0.259797 0.0527256 0.0178932 0.0190501 0.00615316 0.0198929 0.0073929 0.0275436 0.00919044 0.0199213 0.00823724 0.0301825 0.00674727 0.0271057 0.00802801 0.0328967 0.0106584 0.0335626 0.0137427 0.0357675
64 3 O 0.2623 13.1866 48.413 -1.2 1 0.217113 0.0526139 0.0108582 0.0155733 0.00415584 0.0164812 0.00482813 0.0264599 0.00702138 0.0188296 0.00529244 0.0294334 0.00508056 0.0281833 0.00533525 0.0331565 0.00812767 0.0332381 0.010534 0.0385123
65 1 Mg 1.17258 11.8069 54.5968 1.2 1 0.073287 0.0298766 0.00420104 0.00622762 0.00170732 0.00734067 0.00248117 0.0227006 0.0023452 0.0110749 0.00250733 0.0283605 0.00395774 0.0225991 0.00365846 0.0332421 0.00350721 0.0258108 0.00629482 0.0462071
66 2 Si 1.28906 14.4267 56.3176 2.4 1 0.0359308 0.019533 0.00562478 0.00686243 0.00169059 0.00684769 0.00210832 0.0226258 0.00192624 0.00919011 0.00353147 0.0277568 0.00270749 0.0218388 0.00405219 0.0332509 0.00363485 0.0257908 0.00671028 0.0516486
67 3 O 1.20338 12.8857 56.4157 -1.2 1 0.0365407 0.0189749 0.0053728 0.00650108 0.00117263 0.00633867 0.00196368 0.0223252 0.00291244 0.00889512 0.00222514 0.0281933 0.00350242 0.0211922 0.00273834 0.0333994 0.00453232 0.025633 0.00617189 0.0507187
68 3 O 1.36565 15.4813 52.729 -1.2 1 0.112 0.0371759 0.000581892 0.00811637 0.00185698 0.011208 0.00307732 0.0238306 0.00265566 0.0132508 0.00346373 0.0287067 0.00399908 0.0232943 0.00428538 0.032599 0.00389564 0.0283406 0.00709456 0.0445959
69 3 O 0.0441186 15.1873 55.6488 -1.2 1 0.0505141 0.0240332 0.00462128 0.00621976 0.00131255 0.00717751 0.00210965 0.0228989 0.00162305 0.0105511 0.00294608 0.0276467 0.00292586 0.0224488 0.00377989 0.0336337 0.00329295 0.0266295 0.00584886 0.0495907
70 3 O 2.58702 15.0915 55.7177 -1.2 1 0.0437967 0.0227434 0.00586315 0.00625404 0.00168883 0.0067865 0.00253089 0.0230162 0.00196335 0.00974835 0.00282071 0.0277384 0.00285512 0.0220542 0.00405184 0.0340464 0.00330926 0.0267086 0.00624263 0.0506453
71 1 Mg -0.206989 14.1049 52.2121 1.2 1 0.118136 0.0405723 0.0014279 0.00886776 0.00260478 0.00942526 0.00226221 0.0240001 0.00288266 0.0136978 0.00335607 0.0291623 0.00371792 0.0241406 0.00444405 0.0325059 0.00361487 0.0279842 0.00714618 0.0427581
72 1 Mg 1.82591 13.8102 49.4556 1.2 1 0.186809 0.0521336 0.00551184 0.0124667 0.00303037 0.0141294 0.00484453 0.0247322 0.00527481 0.0179737 0.00525447 0.0293403 0.00482061 0.0269952 0.00574852 0.0342282 0.00629386 0.031468 0.00973879 0.0387331
73 2 Si 1.29285 16.1518 51.2434 2.4 1 0.149155 0.0462722 0.00185756 0.0110072 0.00260103 0.0131572 0.0037342 0.0247811 0.00370991 0.0159742 0.00499254 0.0283696 0.00395192 0.0261821 0.00591748 0.033271 0.00408033 0.0308039 0.00903925 0.042771
74 3 O 1.39496 17.7199 51.3047 -1.2 1 0.146552 0.0438987 0.0025634 0.0103489 0.00202202 0.012929 0.00309025 0.0244333 0.00378634 0.0152379 0.00312534 0.0290631 0.00364896 0.0253189 0.00390813 0.0335421 0.00489496 0.0302669 0.00772186 0.0430682
75 3 O 1.2552 15.0624 57.8191 -1.2 1 0.016891 0.0110808 0.00419156 0.00635678 0.00125368 0.00694549 0.00178312 0.0228192 0.00178845 0.008811 0.00264334 0.0283257 0.00225547 0.0209123 0.00298253 0.0331317 0.00300546 0.0255137 0.0046048 0.052254
76 3 O -0.0269106 15.5178 50.6688 -1.2 1 0.157235 0.0458139 0.00391388 0.0116621 0.00334911 0.0131687 0.00338681 0.0247388 0.00369976 0.0157263 0.00313001 0.0289728 0.00401403 0.0261932 0.00570267 0.0328431 0.00416808 0.0303533 0.00843245 0.0415607
77 1 Mg -3.18391 14.1057 52.3125 1.2 1 0.125505 0.0404694 0.00140067 0.00876526 0.00215761 0.0113035 0.00273956 0.023761 0.00328249 0.0141996 0.0031265 0.0289577 0.00370983 0.0242285 0.00394711 0.0323328 0.00420128 0.0281514 0.00672521 0.0420892
78 3 O 2.52432 15.503 50.4579 -1.2 1 0.163222 0.0482888 0.00402501 0.0109499 0.00252241 0.0138737 0.00402155 0.024827 0.00407483 0.0176177 0.00375641 0.0291632 0.00401014 0.0271157 0.00573627 0.0333258 0.00478363 0.0306259 0.00871268 0.041018
79 1 Mg -1.63443 14.1471 55.0823 1.2 1 0.0580087 0.0271026 0.00494891 0.00670121 0.00199235 0.00697706 0.0022341 0.023236 0.00255249 0.0104899 0.00330863 0.0283496 0.00268176 0.022572 0.00418632 0.0333721 0.00435703 0.0265928 0.0067189 0.0485505
80 2 Si -1.77089 12.0446 53.2723 2.4 1 0.100303 0.036382 0.00317966 0.00791016 0.00273362 0.00861033 0.00190119 0.022918 0.00353099 0.0121491 0.00287599 0.0279773 0.0038875 0.0232291 0.00327439 0.0327924 0.00482653 0.026786 0.00678487 0.044882
81 3 O -1.71925 10.4582 53.2761 -1.2 1 0.097562 0.0337294 0.00337796 0.00679731 0.00296299 0.00783744 0.00157669 0.0223099 0.00309722 0.0110357 0.00294684 0.0277517 0.00338126 0.0213786 0.00421338 0.0324647 0.00401978 0.0256596 0.0079662 0.0444578
82 3 O -1.21337 13.3381 46.4311 -1.2 1 0.271328 0.0520697 0.0201027 0.0205894 0.00670248 0.020889 0.00718051 0.0295351 0.00918566 0.0210121 0.00727504 0.0312614 0.00615649 0.0269778 0.00864139 0.0352431 0.0121375 0.035439 0.0135077 0.035978
83 3 O -3.06985 12.6498 53.9936 -1.2 1 0.0854369 0.032219 0.00316836 0.00661637 0.0017923 0.00872778 0.00191818 0.0228651 0.00237128 0.0116487 0.00238087 0.0279765 0.00362805 0.0228654 0.00357475 0.0332019 0.00341234 0.0265659 0.00615975 0.0459329
84 3 O -0.520453 12.7629 53.9444 -1.2 1 0.0816648 0.0324448 0.00372232 0.00665161 0.00278612 0.00680843 0.00153471 0.0237703 0.00279948 0.0114399 0.0030658 0.02758 0.00329248 0.0232165 0.00366534 0.0331973 0.00379667 0.0271289 0.00703148 0.0458941
85 1 Mg -2.94772 21.2352 57.3871 1.2 1 0.021301 0.0136924 0.00475273 0.00637346 0.00145552 0.00699221 0.00129507 0.0228769 0.00184072 0.00972989 0.00190751 0.0286145 0.00172975 0.0209856 0.00219146 0.0325676 0.00316703 0.0259578 0.00345486 0.0515856
86 1 Mg -1.5831 21.1217 49.8405 1.2 1 0.18158 0.0478331 0.00668043 0.0134538 0.00302219 0.0159344 0.00336284 0.0258575 0.00415688 0.0175424 0.00471242 0.0305521 0.00365569 0.0264152 0.00669481 0.034325 0.00537779 0.0317957 0.00940311 0.0407956
87 2 Si -1.09384 18.6291 47.9287 2.4 1 0.232548 0.0536511 0.0134202 0.0181237 0.00385683 0.020955 0.00382784 0.0279698 0.00730597 0.0203444 0.00560331 0.0323513 0.00608166 0.0292234 0.00647979 0.0353849 0.00892611 0.0342832 0.0105287 0.0404949
88 3 O -1.02071 20.1985 47.9911 -1.2 1 0.231287 0.0525777 0.0135784 0.0180522 0.00392596 0.0210918 0.00388675 0.0276577 0.00679084 0.0202987 0.00580679 0.0316948 0.00570314 0.0283058 0.00778965 0.0356835 0.00795801 0.0344606 0.00988726 0.0401947
89 3 O -1.65002 17.5002 51.771 -1.2 1 0.136129 0.0413182 0.00228784 0.0103982 0.00293602 0.0120477 0.00185716 0.0245237 0.00270692 0.0145948 0.00277797 0.028971 0.00420074 0.024747 0.00480115 0.0328873 0.0047028 0.0290921 0.00777622 0.0433847
90 3 O -2.26174 18.0434 48.8281 -1.2 1 0.206793 0.0530929 0.00892997 0.0152757 0.00352361 0.0176219 0.00392027 0.0273638 0.00554467 0.0198709 0.00455827 0.031315 0.00439932 0.0281523 0.00611023 0.0353116 0.00680214 0.033795 0.00930857 0.0401157
91 1 Mg -0.0440435 16.5651 46.8269 1.2 1 0.259076 0.0541624 0.0177954 0.0203924 0.00544408 0.0246796 0.00540924 0.0307051 0.00888573 0.0221907 0.00664512 0.0334296 0.00690211 0.0296474 0.00862682 0.0354157 0.00960967 0.0367322 0.0120462 0.0396093
92 3 O 0.37001 17.9877 48.3925 -1.2 1 0.213932 0.0528229 0.0101237 0.0161605 0.00351961 0.018466 0.00337158 0.0275088 0.00583097 0.0198942 0.00381213 0.0310026 0.00500002 0.0293427 0.00589009 0.0344679 0.00719606 0.0349482 0.00963647 0.0406998
93 1 Mg 1.30455 16.4954 54.5567 1.2 1 0.0736214 0.030439 0.00352672 0.00649046 0.00158793 0.00801324 0.00279884 0.0230453 0.0021046 0.0116375 0.00255136 0.0283328 0.00348062 0.023132 0.00390024 0.0334626 0.00348068 0.0268131 0.00607824 0.0470056
94 2 Si 1.47755 19.2021 56.5459 2.4 1 0.0301934 0.0178091 0.00530622 0.00696249 0.0016657 0.00700791 0.00165443 0.0227621 0.00226498 0.00921797 0.00265014 0.0278153 0.00189829 0.0221524 0.00312988 0.0326758 0.00344167 0.0258415 0.00504199 0.052429
95 3 O 1.32284 17.6609 56.6287 -1.2 1 0.0284852 0.0167699 0.00572742 0.00655344 0.00165451 0.00677582 0.00190345 0.0226006 0.00269081 0.00885729 0.00199122 0.0281296 0.00249838 0.0209525 0.00317606 0.0331256 0.0039545 0.0258837 0.00526566 0.0514665
96 3 O 1.45147 20.239 52.7294 -1.2 1 0.111212 0.0368899 0.00138551 0.0082595 0.00161758 0.0117382 0.00321813 0.0240109 0.00212298 0.0130339 0.00340206 0.0284801 0.00371943 0.023184 0.0039613 0.032885 0.00387949 0.0289446 0.00704824 0.0450502
97 3 O 0.228518 19.9009 55.821 -1.2 1 0.0460808 0.0230795 0.00535836 0.00654331 0.00131592 0.00721223 0.00231419 0.0228025 0.00161683 0.00956204 0.00250647 0.027598 0.00253445 0.0219193 0.0036915 0.0337411 0.00331349 0.0267341 0.00518281 0.0503013
98 3 O 2.69792 19.8538 55.7718 -1.2 1 0.0428392 0.0226478 0.00628074 0.00659687 0.00175464 0.00701001 0.00232623 0.0227679 0.0017448 0.00962891 0.00222407 0.0271943 0.00260995 0.0217876 0.00379308 0.0337098 0.00292956 0.0270621 0.00597267 0.0507299
99 1 Mg -0.126194 18.8651 52.2079 1.2 1 0.116909 0.0405787 0.00180824 0.00914365 0.00241786 0.0102955 0.00228293 0.0241328 0.00224581 0.0141815 0.00316454 0.0291047 0.00368992 0.0242797 0.00453041 0.0331285 0.00357081 0.0294423 0.0074751 0.0437601
100 1 Mg 1.92402 18.5815 49.4545 1.2 1 0.183568 0.0521383 0.00464015 0.012907 0.00174203 0.0154682 0.00398166 0.0257467 0.00391069 0.0189771 0.00366162 0.0304753 0.00449516 0.0278598 0.00561659 0.0353005 0.00522473 0.0329418 0.00922339 0.0408735
101 2 Si 1.38106 20.9117 51.2443 2.4 1 0.147004 0.0458889 0.00184105 0.0108476 0.00211415 0.013603 0.00377171 0.0251287 0.0033102 0.0157922 0.00452288 0.0284039 0.00422373 0.0256683 0.00548874 0.0334448 0.00378509 0.0310984 0.00879491 0.0434593
102 3 O 1.48527 22.4795 51.3054 -1.2 1 0.145668 0.043191 0.00232827 0.0101567 0.00188789 0.0132918 0.0032284 0.0242054 0.00356594 0.0148267 0.00306344 0.0289395 0.00374136 0.0248173 0.00405485 0.0334996 0.00491232 0.0301512 0.00782744 0.0430914
103 3 O 1.47468 19.9417 57.9247 -1.2 1 0.0157505 0.011149 0.00364986 0.00650815 0.00124028 0.00707244 0.00130823 0.0233512 0.00150328 0.00881559 0.00216699 0.0280049 0.00192437 0.0211994 0.00251347 0.0328739 0.00273501 0.0259171 0.00370374 0.0524951
104 3 O 0.0615419 20.2804 50.6669 -1.2 1 0.160181 0.0467247 0.00368098 0.0123236 0.00349695 0.0143162 0.00388741 0.0250437 0.0032741 0.0161156 0.00325554 0.0291793 0.00427956 0.0266993 0.00544917 0.0334678 0.00386334 0.0312194 0.00853329 0.0423375
105 1 Mg -3.09665 18.8643 52.3122 1.2 1 0.124553 0.0405676 0.00138848 0.00905926 0.00177725 0.0119413 0.00266235 0.0240732 0.00258421 0.0145372 0.00280648 0.0290494 0.00359679 0.0243915 0.00369597 0.0330029 0.00413077 0.0291309 0.0070047 0.0431217
106 3 O 2.61548 20.2646 50.4626 -1.2 1 0.161615 0.0478432 0.00352067 0.0110919 0.00164292 0.0144707 0.00389749 0.0251103 0.00327729 0.0171794 0.0033912 0.029148 0.00387209 0.02657 0.0057438 0.0338574 0.00438279 0.0310351 0.00857462 0.0420352
107 1 Mg -1.45817 18.9563 55.1361 1.2 1 0.0560117 0.026942 0.00499688 0.00684314 0.00180001 0.00720413 0.00248616 0.0236651 0.00244287 0.0106894 0.0037452 0.0279695 0.00262874 0.0227782 0.00451231 0.0330144 0.00393569 0.0269054 0.00632661 0.0490355
108 2 Si -1.67587 16.7894 53.2573 2.4 1 0.0969751 0.0359407 0.00259291 0.00808733 0.00255239 0.00862919 0.00173742 0.0234483 0.00292373 0.0123779 0.00273573 0.0278923 0.00328051 0.0239178 0.00357076 0.0333376 0.00398687 0.0280643 0.00701658 0.0463049
109 3 O -1.68494 15.2133 53.2023 -1.2 1 0.0978054 0.0350208 0.00240065 0.00764391 0.00252902 0.00901903 0.001651 0.0230215 0.00282323 0.0119412 0.00275967 0.0283797 0.00314192 0.0231735 0.00441334 0.0331048 0.00336114 0.0272885 0.00766987 0.0457163
110 3 O -1.12868 18.1227 46.4249 -1.2 1 0.268698 0.0538633 0.0193188 0.021632 0.00538774 0.0245156 0.00554647 0.0314442 0.00762136 0.0218586 0.00579513 0.0337629 0.00647672 0.0276095 0.00884101 0.0372426 0.0112825 0.0375905 0.0117375 0.039367
111 3 O -2.96552 17.4623 53.8992 -1.2 1 0.0838036 0.0326345 0.00296833 0.00671767 0.00182776 0.00917731 0.00202218 0.0233579 0.00224406 0.0119326 0.00229696 0.0277083 0.00299145 0.0236049 0.00314033 0.0332873 0.00361144 0.0274821 0.00619988 0.0466477
112 3 O -0.531105 17.5036 53.9462 -1.2 1 0.0784361 0.0321296 0.00385211 0.00705614 0.00245411 0.00717582 0.00145233 0.0233919 0.00256643 0.0113374 0.00295784 0.0277322 0.00258352 0.0238427 0.00386609 0.0335902 0.00343962 0.0276693 0.00682759 0.0467328
113 1 Mg -2.81578 26.0187 57.2885 1.2 1 0.0207569 0.0136251 0.00495698 0.00570261 0.00127775 0.00709177 0.00120333 0.0235628 0.0018871 0.00963735 0.0015223 0.0289531 0.00186713 0.0205933 0.00199181 0.0325804 0.00266016 0.0266615 0.0036058 0.0520747
114 1 Mg -1.48778 25.88 49.8402 1.2 1 0.18151 0.0474759 0.00651598 0.0131682 0.0030287 0.0158688 0.00288878 0.0262996 0.00433772 0.0174136 0.00460301 0.0309089 0.00350753 0.025786 0.00650745 0.0346883 0.00544393 0.0316397 0.00914706 0.0409185
115 2 Si -1.00491 23.3922 47.9274 2.4 1 0.233305 0.0533538 0.0139448 0.0184042 0.00386572 0.0214855 0.00395289 0.028223 0.0073323 0.0201239 0.00499833 0.0320655 0.0054958 0.0286257 0.00659653 0.0354857 0.00852658 0.0343604 0.0101355 0.0403236
116 3 O -0.927602 24.9615 47.9909 -1.2 1 0.230007 0.0520667 0.0135274 0.0177647 0.0037857 0.0208685 0.00385452 0.028027 0.00690203 0.0197691 0.00543522 0.0314814 0.00541218 0.0277092 0.00776503 0.0358522 0.00779182 0.0343154 0.00953896 0.040053
117 3 O -1.55795 22.2588 51.7696 -1.2 1 0.136467 0.0410999 0.00196258 0.0102674 0.002964 0.0124575 0.00194936 0.0245617 0.00245756 0.0144863 0.00280224 0.0290895 0.00412308 0.0244962 0.00458357 0.0331113 0.00482013 0.0292512 0.0079371 0.0437132
118 3 O -2.17411 22.8111 48.8277 -1.2 1 0.203401 0.0522026 0.00885481 0.0150775 0.00304513 0.017746 0.00364711 0.0275341 0.00490953 0.0196866 0.00419558 0.0311607 0.00420931 0.0276074 0.00598945 0.0351777 0.00629506 0.0336306 0.00902125 0.0401328
119 1 Mg 0.0423997 21.3296 46.8225 1.2 1 0.258664 0.0541722 0.0175582 0.0210987 0.00487182 0.0255095 0.00552106 0.0310783 0.00824682 0.0223235 0.00610131 0.0337293 0.00692939 0.0292243 0.00904293 0.0359053 0.00908268 0.0370166 0.0115785 0.0401076
120 3 O 0.458537 22.7495 48.3911 -1.2 1 0.213961 0.0527821 0.0100942 0.0163528 0.00348114 0.0187744 0.00309008 0.0278168 0.00562514 0.0196394 0.00334135 0.0309859 0.00495969 0.0289395 0.00597515 0.0347958 0.00691946 0.0348068 0.00923284 0.0409324