ITEM: TIMESTEP
67300
ITEM: NUMBER OF ATOMS
10500
ITEM: BOX BOUNDS xy xz yz pp pp pp
0	8.9688	2.9896
0	118.725	0
0	252.977	0
ITEM: ATOMS id type element xu yu zu q Q_1 Q_2 Q_3 Q_4 Q_5 Q_6 Q_7 Q_8 Q_9 Q_10 Q_11 Q_12 Q_13 Q_14 Q_15 Q_16 Q_17 Q_18 Q_19 Q_20 Q_21
1 1 Mg -3.33797 6.77043 57.4229 1.2 1 0.0193586 0.0157722 0.00456451 0.00575251 0.00113615 0.00627508 0.00160431 0.0198238 0.00172663 0.00924586 0.00215899 0.0255643 0.00170723 0.0185553 0.00261996 0.0298554 0.00259834 0.0251368 0.00414308 0.0421466
2 1 Mg -1.82655 6.90154 50.0912 1.2 1 0.173707 0.0465446 0.00627993 0.00928374 0.00286023 0.00821103 0.00408493 0.0205751 0.0038809 0.0137754 0.0040274 0.023462 0.00428346 0.0207169 0.00623161 0.0285086 0.00604536 0.0264314 0.00853216 0.0326792
3 2 Si -0.257935 3.96038 48.0876 2.4 1 0.226763 0.0526698 0.011811 0.0125613 0.00231487 0.00940664 0.00331831 0.0190276 0.00507415 0.0167705 0.00417867 0.0234956 0.00536624 0.0206239 0.00510681 0.0257122 0.0069995 0.0254865 0.00813737 0.0310619
4 3 O -0.335812 5.46814 47.6264 -1.2 1 0.234785 0.0519716 0.0139123 0.0132954 0.00327305 0.0106582 0.00428743 0.0194253 0.00536855 0.0172827 0.00458338 0.02401 0.00478575 0.0209554 0.00532087 0.0261273 0.00762571 0.0262627 0.00894459 0.030097
5 3 O -2.03793 3.43377 51.8941 -1.2 1 0.125911 0.0414646 0.00175651 0.00671908 0.00167026 0.00639444 0.00255683 0.0191946 0.00257793 0.0110802 0.0027509 0.0233321 0.00351414 0.018171 0.00402185 0.027059 0.00520224 0.0247947 0.00729014 0.0348757
6 3 O -1.54015 3.53929 48.9521 -1.2 1 0.201992 0.051337 0.00933055 0.0108093 0.00237025 0.00808463 0.00340972 0.0190303 0.00428637 0.0153021 0.00451871 0.0227954 0.00430296 0.019808 0.00527579 0.026365 0.00577715 0.0249758 0.00823446 0.0308586
7 1 Mg 1.82954 2.54582 47.1376 1.2 1 0.24667 0.0518449 0.0158855 0.0155582 0.00309384 0.0110439 0.00315686 0.0192681 0.00510447 0.0153792 0.00467324 0.023655 0.00606691 0.0194167 0.00677275 0.024234 0.00687391 0.0235883 0.00772169 0.0294619
8 3 O 1.22989 3.66364 48.7877 -1.2 1 0.202636 0.049424 0.00951127 0.0114277 0.00213937 0.00880417 0.00358858 0.0188819 0.00361456 0.0149906 0.00354517 0.0229907 0.00435913 0.019706 0.00555995 0.0257606 0.00545587 0.0249871 0.00853441 0.0316246
9 1 Mg 0.987711 2.19079 54.5382 1.2 1 0.0664627 0.0310516 0.00434661 0.00496664 0.00136876 0.00459171 0.00252842 0.0202231 0.00288363 0.00949834 0.00259852 0.0242129 0.00328777 0.0186713 0.00408505 0.0285972 0.00309162 0.0245913 0.00585441 0.0388236
10 2 Si 1.25569 4.77677 56.4986 2.4 1 0.0270338 0.0202891 0.00497035 0.00589755 0.00116679 0.00597373 0.00168756 0.0201445 0.00223821 0.00834549 0.00299159 0.0243675 0.00224919 0.0195338 0.0030171 0.0293662 0.004034 0.025363 0.00440023 0.042348
11 3 O 1.06718 3.28053 56.4851 -1.2 1 0.034104 0.0225396 0.00528531 0.00535623 0.000955338 0.00471073 0.00220072 0.0191979 0.00235231 0.00836745 0.00255285 0.0248946 0.00250092 0.0180586 0.00342437 0.0286285 0.00407671 0.025029 0.00420428 0.040581
12 3 O 1.10813 6.07342 52.8172 -1.2 1 0.103526 0.0363905 0.00164918 0.00648251 0.00188078 0.00667285 0.00308697 0.0201339 0.00322401 0.0107202 0.00268334 0.0239831 0.00370577 0.0186978 0.00455967 0.0286326 0.00470201 0.0257801 0.0066404 0.0362765
13 3 O 0.0366328 5.5953 55.766 -1.2 1 0.0410958 0.0243525 0.00499609 0.00520584 0.00123094 0.0053186 0.00157099 0.0195514 0.00269803 0.00931462 0.00274403 0.0244204 0.00246417 0.0193409 0.00306213 0.0298497 0.00350438 0.0253146 0.0042921 0.0406372
14 3 O 2.47786 5.52709 55.8826 -1.2 1 0.0382409 0.0236877 0.00564628 0.00508673 0.00107452 0.00627174 0.00210085 0.0204861 0.00156945 0.00904644 0.00279862 0.0246698 0.00236139 0.0189155 0.00391285 0.0302414 0.00338066 0.0263898 0.00517733 0.0418003
15 1 Mg -0.459401 4.67631 52.2426 1.2 1 0.121999 0.0411641 0.0015043 0.00666063 0.00198733 0.00596055 0.00240512 0.019681 0.00307753 0.0116511 0.00269035 0.0239126 0.00363108 0.0191032 0.00420384 0.027815 0.00454802 0.02492 0.00689006 0.0339166
16 1 Mg 2.79456 3.9971 49.9987 1.2 1 0.174233 0.0493148 0.00594562 0.00968052 0.00260722 0.0075083 0.00399132 0.0193107 0.00285672 0.0143577 0.00279062 0.0230501 0.00419948 0.0202045 0.0056374 0.0265497 0.00512528 0.025409 0.00899877 0.031633
17 2 Si 1.16169 6.59457 51.2556 2.4 1 0.145654 0.0445456 0.0025167 0.00824095 0.0025377 0.00809528 0.00379417 0.019985 0.003861 0.0131079 0.00408074 0.0230977 0.00382401 0.020416 0.00546703 0.0288626 0.00566878 0.0264551 0.00851415 0.0341155
18 3 O 1.28989 8.18905 51.2909 -1.2 1 0.141053 0.0425334 0.00202511 0.00824997 0.00244465 0.00936771 0.00376026 0.0203033 0.004038 0.0123604 0.00353556 0.0247226 0.003626 0.0198952 0.00475796 0.0302035 0.00593442 0.0272876 0.00767219 0.0363793
19 3 O 1.16688 5.64625 57.9513 -1.2 1 0.0121626 0.0129868 0.00334776 0.00627708 0.00108696 0.00629116 0.00170426 0.0202026 0.00188332 0.00854863 0.00255596 0.0247971 0.00238929 0.0189031 0.00301498 0.0303693 0.00268242 0.0254149 0.00402347 0.0423779
20 3 O -0.184847 6.06029 50.6845 -1.2 1 0.160204 0.0448761 0.00496894 0.00893077 0.00294691 0.00746969 0.004002 0.0202114 0.0038301 0.0131223 0.00315806 0.0228145 0.00378565 0.019907 0.00555197 0.027657 0.00542858 0.0257962 0.00821489 0.0338923
21 1 Mg -3.49704 4.67769 52.6661 1.2 1 0.112541 0.0385728 0.00126332 0.00591164 0.00185029 0.00636382 0.00296249 0.0192406 0.00319169 0.0108863 0.00320242 0.023875 0.00340612 0.0185752 0.00395603 0.0275714 0.0043223 0.0248159 0.00704124 0.0353494
22 3 O 2.48581 5.93312 50.6539 -1.2 1 0.156022 0.0464954 0.00392587 0.00760916 0.00177609 0.00811259 0.00393469 0.0198875 0.00341135 0.0132264 0.00377293 0.0226474 0.00450148 0.0207737 0.00549843 0.0284305 0.0052628 0.0265066 0.00902394 0.0330551
23 1 Mg -1.54389 4.53771 55.1159 1.2 1 0.0507199 0.0276464 0.00590245 0.00510497 0.00173583 0.0050454 0.00186696 0.019622 0.00275938 0.00939592 0.00282626 0.0247151 0.002357 0.0190558 0.00329487 0.029318 0.00428624 0.0254179 0.00484238 0.039728
24 2 Si -2.00939 2.51707 53.1549 2.4 1 0.100186 0.0377313 0.00238302 0.00569022 0.00247567 0.00526555 0.00226211 0.0193772 0.00303012 0.010572 0.00276226 0.0235772 0.0028413 0.0187843 0.00374794 0.0277611 0.00463735 0.0246792 0.00638606 0.0364162
25 3 O -1.7866 1.12745 53.1425 -1.2 1 0.0990084 0.0368704 0.00210065 0.00595313 0.00330361 0.00517046 0.00258833 0.0198929 0.00299458 0.0101092 0.00278686 0.024195 0.00287793 0.0181261 0.00393355 0.0274777 0.00406309 0.0241997 0.00652613 0.036547
26 3 O -0.0467762 2.97103 46.8385 -1.2 1 0.254021 0.0523983 0.016579 0.0149317 0.00297665 0.0100466 0.00321344 0.0187981 0.00588759 0.0168187 0.00578618 0.023351 0.00694373 0.0190762 0.00742298 0.0242691 0.00655016 0.0240845 0.00923279 0.0309246
27 3 O -3.28373 3.17111 54.0043 -1.2 1 0.0776485 0.0328821 0.003419 0.00460727 0.00191671 0.00537393 0.00215801 0.0199328 0.00248215 0.0098504 0.00230238 0.0238097 0.00248351 0.0189965 0.0035946 0.0275884 0.00390008 0.0246126 0.00610551 0.0375863
28 3 O -0.672471 3.32572 54.0743 -1.2 1 0.0761018 0.0320235 0.00355826 0.00495726 0.00170851 0.00548008 0.00185399 0.0199 0.0028106 0.0097161 0.00193683 0.0239929 0.00293378 0.0192901 0.00342473 0.0282697 0.00359816 0.0250781 0.00537189 0.0377834
29 1 Mg -3.1245 11.8073 57.3804 1.2 1 0.0198173 0.0143628 0.0043944 0.00574336 0.000764231 0.00672748 0.000923281 0.0197972 0.00214029 0.00837701 0.00208326 0.0261624 0.00215107 0.017784 0.0034476 0.0310798 0.00388652 0.0244971 0.00438034 0.0442727
30 1 Mg -1.75014 11.5838 49.8362 1.2 1 0.185261 0.0472621 0.00797968 0.0116142 0.0042232 0.0128201 0.00474468 0.0229879 0.00452122 0.0153424 0.00488768 0.0273011 0.0039382 0.0234684 0.00681104 0.0327774 0.00671606 0.0294253 0.00901622 0.0363661
31 2 Si -1.18003 9.02138 47.9309 2.4 1 0.239341 0.0503112 0.0154115 0.0144377 0.00510842 0.0132758 0.00741273 0.0215657 0.0070861 0.0168098 0.006835 0.0253187 0.0044172 0.0223903 0.00727864 0.0302045 0.00896351 0.0289085 0.0115444 0.0332302
32 3 O -1.23224 10.5991 47.9811 -1.2 1 0.231499 0.0517667 0.0137968 0.0147454 0.00510414 0.0146131 0.00649271 0.0230155 0.00686318 0.0170846 0.00686248 0.0266705 0.0048308 0.0236516 0.00825699 0.0325332 0.00922119 0.0309442 0.010556 0.0339352
33 3 O -1.79016 8.01447 51.8693 -1.2 1 0.132261 0.0406778 0.00188717 0.00818448 0.00295635 0.00763546 0.00336856 0.0203138 0.00336417 0.0120455 0.00346937 0.0243746 0.00371519 0.0198014 0.00434175 0.0299769 0.00622381 0.0264347 0.00789137 0.0365406
34 3 O -2.30986 8.37215 48.8528 -1.2 1 0.200849 0.0501397 0.0093702 0.0111564 0.00383493 0.0104757 0.00580563 0.0214719 0.00501579 0.0162183 0.00444055 0.0248116 0.00420198 0.022047 0.00626991 0.0308712 0.00713458 0.0285518 0.00902542 0.0327431
35 1 Mg 0.154883 7.08234 46.8007 1.2 1 0.260478 0.0511718 0.018281 0.0153229 0.00553009 0.0136272 0.0082675 0.0220032 0.00658436 0.0175077 0.00730613 0.024481 0.00685711 0.021551 0.00861703 0.0284034 0.0102952 0.0284364 0.0122257 0.0309225
36 3 O 0.325447 8.50934 48.3809 -1.2 1 0.218779 0.0515367 0.0115388 0.0132402 0.00386465 0.0122787 0.0062369 0.0224254 0.00546244 0.016716 0.00556126 0.0244989 0.00455791 0.0235613 0.00625238 0.0300881 0.00745013 0.0290345 0.0102243 0.0327655
37 1 Mg 1.27723 7.18358 54.5888 1.2 1 0.0654291 0.0301098 0.00459048 0.00558535 0.00156676 0.00616966 0.00249906 0.019716 0.00257067 0.0100327 0.00231709 0.024446 0.00283183 0.0197328 0.00327846 0.0302346 0.00390352 0.0252876 0.00587501 0.0396918
38 2 Si 1.119 9.67294 56.255 2.4 1 0.0363707 0.0212954 0.00495463 0.00671897 0.000969675 0.00611766 0.00144901 0.0195616 0.00193512 0.00839605 0.00341382 0.0241405 0.00231954 0.0195762 0.00382961 0.0307903 0.00353536 0.0251938 0.00504547 0.0430449
39 3 O 1.12379 8.15434 56.3834 -1.2 1 0.0332915 0.0211277 0.00520561 0.00613386 0.00102168 0.00618136 0.00184385 0.0197931 0.00266021 0.00800889 0.00208048 0.0241691 0.00279688 0.0185502 0.00263817 0.0307535 0.00437256 0.0254692 0.00452064 0.0427335
40 3 O 1.28624 10.7248 52.7351 -1.2 1 0.110004 0.0365755 0.00115141 0.00706588 0.00228518 0.00963675 0.00305883 0.0206398 0.00295048 0.0112979 0.00334071 0.0252538 0.00359684 0.0204467 0.00370941 0.0312287 0.00443717 0.0274525 0.00679317 0.0391157
41 3 O -0.0517596 10.586 55.5143 -1.2 1 0.0533853 0.026269 0.00434186 0.0059474 0.00101915 0.00671702 0.00183503 0.0203767 0.00220632 0.00972219 0.00272244 0.0249371 0.00269462 0.0199016 0.003451 0.0313626 0.00400042 0.0256024 0.0047553 0.0423759
42 3 O 2.32029 10.3931 55.7311 -1.2 1 0.0424773 0.02354 0.0057709 0.00616539 0.0010769 0.006648 0.0013563 0.0201394 0.00183167 0.00912995 0.00246436 0.0247405 0.00210757 0.0196331 0.00359296 0.0315501 0.003307 0.025939 0.00526502 0.0432832
43 1 Mg -0.262694 9.34741 52.2523 1.2 1 0.115039 0.0400668 0.00183767 0.00766065 0.00267416 0.00814689 0.00299354 0.0210304 0.00312337 0.0119038 0.00320834 0.02558 0.00329963 0.02003 0.00434493 0.0309732 0.00479275 0.027343 0.00682014 0.0377341
44 1 Mg 1.87648 9.01537 49.4629 1.2 1 0.185701 0.05073 0.00597848 0.0103433 0.00286 0.0109057 0.0059539 0.0212175 0.00465303 0.0156851 0.00452995 0.0249179 0.00430708 0.0231164 0.00620949 0.0313952 0.00591685 0.0292647 0.00972349 0.0340532
45 2 Si 1.21415 11.3799 51.2378 2.4 1 0.145035 0.0441645 0.00234364 0.00937416 0.00303437 0.0113671 0.00347529 0.0217871 0.00413247 0.0141709 0.00415545 0.0263539 0.00352695 0.0229773 0.00415535 0.031925 0.00525622 0.0288176 0.00796685 0.0384753
46 3 O 1.31634 12.9512 51.3023 -1.2 1 0.148688 0.0433488 0.00321431 0.00946814 0.0025445 0.0121398 0.00328853 0.0226136 0.00420625 0.0141825 0.00382929 0.0270671 0.00355868 0.0232365 0.00436563 0.0333188 0.00506567 0.0292755 0.00774925 0.0397194
47 3 O 1.09398 10.2524 57.7955 -1.2 1 0.0148139 0.0128785 0.00345777 0.0059418 0.00104041 0.00676381 0.00134721 0.0198843 0.00199699 0.00801525 0.00288335 0.0251177 0.00269138 0.0183689 0.00337324 0.0307549 0.00350962 0.024882 0.00444691 0.043423
48 3 O -0.115718 10.7564 50.681 -1.2 1 0.156006 0.0450313 0.00369116 0.0103567 0.00365412 0.0107641 0.0037893 0.0222212 0.00375328 0.0137211 0.00335523 0.0262457 0.00360254 0.0222233 0.00527216 0.0315996 0.00538047 0.0286301 0.00849391 0.0373567
49 1 Mg -3.26386 9.35564 52.3622 1.2 1 0.12317 0.0392363 0.00118941 0.007142 0.00220235 0.0095441 0.00383038 0.0206611 0.00335449 0.0122401 0.00357609 0.0249581 0.00311938 0.0205884 0.00424837 0.0308782 0.00493446 0.0270498 0.00730799 0.0365127
50 3 O 2.45216 10.7265 50.4558 -1.2 1 0.16441 0.0475518 0.00432807 0.00922117 0.00287121 0.0117697 0.00466383 0.0221449 0.00413834 0.0153602 0.00414541 0.0257094 0.0035255 0.0233506 0.00563968 0.0324457 0.00552539 0.0293049 0.0085364 0.0364886
51 1 Mg -2.02066 9.34872 55.0144 1.2 1 0.0546293 0.0273886 0.00506489 0.00604974 0.00152811 0.00676729 0.00231578 0.0199115 0.00231616 0.00924046 0.00297738 0.0249038 0.00254827 0.0195618 0.00313639 0.03084 0.00416969 0.0257921 0.00548741 0.0419633
52 2 Si -1.80533 7.32853 53.3818 2.4 1 0.0926684 0.0356547 0.00315003 0.00642107 0.00296557 0.0065641 0.00309216 0.0194505 0.00351051 0.0107222 0.00292134 0.0243955 0.00301419 0.0194402 0.00346678 0.0293422 0.00559601 0.0255889 0.00578062 0.0376109
53 3 O -1.99743 5.69598 53.37 -1.2 1 0.0936014 0.0343141 0.00242881 0.00542362 0.00208502 0.00608553 0.00214347 0.0191237 0.0032775 0.0101063 0.00283224 0.0237711 0.00243588 0.0190079 0.00359837 0.0290725 0.00384051 0.0252811 0.00655107 0.0368684
54 3 O -1.19417 8.46968 46.4488 -1.2 1 0.273405 0.0509078 0.0205667 0.0171678 0.0054949 0.0150213 0.00864536 0.0230226 0.00683955 0.0174327 0.00756121 0.0248553 0.00618613 0.0209844 0.00921232 0.0300013 0.010828 0.0300766 0.0122112 0.0310407
55 3 O -3.03052 7.96919 53.9596 -1.2 1 0.0826462 0.0316616 0.00289264 0.0055728 0.00198911 0.00728524 0.00246877 0.0195872 0.00265886 0.0106095 0.00232691 0.023883 0.00242179 0.0196262 0.00340893 0.0298631 0.00447782 0.0256204 0.00633295 0.0389151
56 3 O -0.459543 7.9772 54.0075 -1.2 1 0.0759849 0.0319299 0.00435211 0.00560695 0.0017296 0.00589057 0.00168059 0.0198704 0.00249042 0.00981388 0.00226558 0.0238592 0.00247128 0.0196188 0.00349027 0.0300403 0.0044197 0.0260371 0.00600561 0.0397976
57 1 Mg -2.93729 16.3623 57.3418 1.2 1 0.0199916 0.0146335 0.00460648 0.00553605 0.0012169 0.00706195 0.00132675 0.0201846 0.00133946 0.00819016 0.00176161 0.0269305 0.0021485 0.0170375 0.00319116 0.0300288 0.00269396 0.0235151 0.00377978 0.0442894
58 1 Mg -1.6714 16.3544 49.8412 1.2 1 0.182498 0.0485801 0.00755003 0.0122837 0.00340327 0.0156175 0.00335353 0.0251204 0.00383742 0.0175162 0.00458418 0.030757 0.00358435 0.025586 0.00649967 0.0342731 0.00608444 0.0309828 0.00934258 0.0394048
59 2 Si -1.18567 13.8526 47.9314 2.4 1 0.237355 0.0531697 0.0150896 0.0167243 0.00460079 0.0187079 0.00543298 0.0266306 0.00729445 0.01945 0.00631862 0.030225 0.00520545 0.0282849 0.00662699 0.0350468 0.00989939 0.0333514 0.011041 0.0370624
60 3 O -1.09664 15.4205 47.9915 -1.2 1 0.23453 0.0529523 0.0148726 0.0170082 0.00512619 0.0200472 0.00452295 0.0270718 0.00717838 0.0197464 0.00688906 0.030763 0.00518404 0.0277883 0.00775071 0.0357068 0.00940578 0.0343542 0.0103949 0.0379014
61 3 O -1.73493 12.7491 51.7772 -1.2 1 0.136226 0.0411256 0.00238615 0.00953704 0.00348175 0.010371 0.00208992 0.0226334 0.00308742 0.013196 0.00323381 0.0271991 0.0035782 0.0222913 0.00475364 0.0328208 0.00525446 0.0282074 0.00761293 0.0405429
62 3 O -2.36115 13.2717 48.8238 -1.2 1 0.208602 0.0524863 0.00978909 0.0136246 0.00482609 0.0147789 0.00482183 0.0257338 0.00545538 0.0188849 0.0050456 0.0293189 0.004376 0.026539 0.00610591 0.0350567 0.00763988 0.0323246 0.00951132 0.0367044
63 1 Mg -0.159928 11.7639 46.8533 1.2 1 0.262303 0.0524835 0.0192268 0.0182796 0.00594804 0.0202668 0.00722834 0.0270545 0.00827716 0.0192979 0.00828116 0.0291658 0.00621805 0.0270154 0.0081233 0.0336764 0.0106821 0.0336519 0.0132417 0.0347778
64 3 O 0.2623 13.1866 48.413 -1.2 1 0.215923 0.0519257 0.0113395 0.014403 0.00412275 0.0161878 0.00455159 0.0251958 0.00620411 0.0181762 0.0051006 0.0284924 0.00419302 0.0275206 0.00534258 0.0342653 0.0082275 0.0331708 0.00996263 0.0375828
65 1 Mg 1.28295 11.8699 54.388 1.2 1 0.0756946 0.0316256 0.00317082 0.00605692 0.00186176 0.00791497 0.00246085 0.0206405 0.00263942 0.0107788 0.00231868 0.0261696 0.00298117 0.020808 0.00299056 0.0314961 0.00467082 0.0254978 0.00554695 0.0412217
66 2 Si 1.27247 14.3304 56.5553 2.4 1 0.0297938 0.0188593 0.00522606 0.00666214 0.00127594 0.00692301 0.00175642 0.0198875 0.00216959 0.0084151 0.00304302 0.0264745 0.00318896 0.0182668 0.00442269 0.0301692 0.00329767 0.023615 0.00570947 0.045737
67 3 O 1.29325 12.8868 56.6607 -1.2 1 0.0266855 0.0175169 0.00483994 0.00627969 0.00105209 0.00627281 0.00133501 0.0202691 0.00268904 0.0077256 0.00219777 0.0264375 0.00251785 0.0176742 0.00348474 0.030883 0.00382485 0.0245192 0.00495531 0.0453836
68 3 O 1.36565 15.4813 52.729 -1.2 1 0.110708 0.0371901 0.00107271 0.00745161 0.00224934 0.0115931 0.00279229 0.0226081 0.00220289 0.0127209 0.00321991 0.0277054 0.00368268 0.0211077 0.00413396 0.0320325 0.00367231 0.0277722 0.0064887 0.0421451
69 3 O 0.0298237 15.0663 55.8692 -1.2 1 0.0436401 0.0233264 0.00529908 0.00613532 0.000795036 0.00738409 0.00241378 0.020417 0.00163209 0.00922626 0.0023616 0.0262912 0.00253922 0.0183665 0.00408483 0.0312089 0.00291062 0.0254899 0.00538781 0.0449749
70 3 O 2.53944 15.0781 55.784 -1.2 1 0.0411169 0.0228483 0.00556694 0.00594378 0.00100788 0.00698627 0.00186536 0.0206905 0.00170656 0.00910745 0.00264105 0.0261735 0.00263228 0.0188675 0.00396226 0.0313012 0.00302991 0.0252288 0.0050998 0.045081
71 1 Mg -0.206989 14.1049 52.2121 1.2 1 0.118393 0.0404432 0.000748352 0.00842152 0.00303925 0.0097979 0.00224766 0.0227004 0.00268232 0.0129682 0.00299316 0.028116 0.00336817 0.0222967 0.00462142 0.032883 0.00358172 0.027956 0.00676041 0.041007
72 1 Mg 1.82591 13.8102 49.4556 1.2 1 0.185029 0.0513414 0.00578028 0.0111861 0.00309184 0.0142784 0.00426384 0.0240688 0.00422941 0.0173126 0.00523596 0.0286423 0.00429948 0.026252 0.00645408 0.0350123 0.00651094 0.031863 0.0092824 0.0376004
73 2 Si 1.29285 16.1518 51.2434 2.4 1 0.14846 0.0459494 0.00220457 0.00985506 0.00251055 0.0133133 0.00316028 0.0237079 0.0032608 0.0156723 0.00475135 0.0280118 0.00372808 0.0247915 0.00573816 0.0332153 0.00411103 0.0304652 0.00889563 0.0415142
74 3 O 1.39496 17.7199 51.3047 -1.2 1 0.146302 0.0442304 0.00285517 0.00924166 0.00208856 0.013449 0.00285113 0.0234572 0.00290327 0.0154592 0.00330155 0.0291756 0.00389272 0.0244354 0.00440391 0.0328905 0.00529162 0.0292882 0.00724421 0.040886
75 3 O 1.41004 15.0737 57.9736 -1.2 1 0.014647 0.0120095 0.00368902 0.00588434 0.00122994 0.00697706 0.000898816 0.0205428 0.00153247 0.0075876 0.00245481 0.0266153 0.00277495 0.016815 0.00363772 0.0302564 0.00297667 0.0238703 0.00437741 0.0448303
76 3 O -0.0269106 15.5178 50.6688 -1.2 1 0.158022 0.0458979 0.0044229 0.0107342 0.00347214 0.0133749 0.00300616 0.0237853 0.00322443 0.0152786 0.0030937 0.0285286 0.00357766 0.024978 0.00565235 0.0329412 0.00448999 0.0300605 0.00827769 0.0405089
77 1 Mg -3.18391 14.1057 52.3125 1.2 1 0.124148 0.0404603 0.00154637 0.00842366 0.0024921 0.0115791 0.00238853 0.0223802 0.00289107 0.0134808 0.00257674 0.0278046 0.0034367 0.0225213 0.00357243 0.0322902 0.00446049 0.0278806 0.00626306 0.0404957
78 3 O 2.52432 15.503 50.4579 -1.2 1 0.164784 0.0485111 0.00453896 0.0102137 0.00238891 0.0141153 0.00365221 0.024134 0.00360715 0.0171433 0.00383711 0.0286821 0.00365612 0.0259733 0.00616485 0.0335186 0.00491248 0.0304147 0.00854498 0.0399987
79 1 Mg -1.68489 14.1198 54.9981 1.2 1 0.057736 0.0286268 0.00427151 0.00645676 0.00134698 0.00745348 0.00206671 0.0210135 0.00246637 0.00980301 0.00345254 0.0267117 0.00275997 0.0198111 0.00393389 0.0316716 0.00379591 0.0255368 0.00536629 0.0441383
80 2 Si -1.57797 11.9438 53.2742 2.4 1 0.0938855 0.0352145 0.00253834 0.00741304 0.00290296 0.00826154 0.00208415 0.0215191 0.00330283 0.0112651 0.00274178 0.0261795 0.00332376 0.0213846 0.00270473 0.0319713 0.00479021 0.0269598 0.00607926 0.0424804
81 3 O -1.72913 10.4846 53.1312 -1.2 1 0.0978093 0.0353173 0.00256168 0.00675311 0.00242923 0.00809418 0.00214201 0.0203417 0.00300755 0.0103799 0.00268986 0.0252374 0.00287506 0.0199408 0.00365338 0.0315572 0.00409785 0.0264656 0.00702761 0.0408464
82 3 O -1.21337 13.3381 46.4311 -1.2 1 0.273077 0.0520495 0.0211847 0.0199134 0.00650566 0.0212642 0.00710796 0.0291539 0.00835041 0.0203239 0.00731321 0.0307608 0.00599242 0.0266942 0.00896166 0.03618 0.0127886 0.0356174 0.0131576 0.035291
83 3 O -2.82863 12.5951 54.0061 -1.2 1 0.0835011 0.0326435 0.00208973 0.00629172 0.00191965 0.00863902 0.0012086 0.0211105 0.00244361 0.0109845 0.00221798 0.0259713 0.00291939 0.0213467 0.00294309 0.0319564 0.00393164 0.0261404 0.00552002 0.0426187
84 3 O -0.311783 12.7117 53.9244 -1.2 1 0.08082 0.0325966 0.00270902 0.00622858 0.00238685 0.00702597 0.00172892 0.0213762 0.00255108 0.010684 0.0022137 0.0262325 0.00272372 0.0210674 0.00332761 0.0323116 0.00453529 0.0264597 0.00526388 0.0428582
85 1 Mg -3.23398 21.3107 57.8252 1.2 1 0.0165774 0.0132619 0.00415755 0.0052764 0.00186051 0.00650161 0.00167493 0.0208356 0.00185767 0.00838052 0.00120735 0.0270188 0.00217058 0.0172351 0.0020628 0.028361 0.00267695 0.0235649 0.00280518 0.0426126
86 1 Mg -1.5831 21.1217 49.8405 1.2 1 0.179318 0.0481624 0.00675677 0.0125036 0.002542 0.0156387 0.00253286 0.0257925 0.00411094 0.017902 0.00459615 0.031079 0.00351844 0.0253304 0.00556824 0.0333874 0.00537032 0.0304842 0.00827075 0.0389759
87 2 Si -1.09384 18.6291 47.9287 2.4 1 0.233055 0.0549005 0.0144078 0.0172616 0.00382326 0.0211762 0.00414077 0.0275205 0.00711823 0.0204116 0.00649375 0.0325333 0.00562035 0.0286208 0.00635485 0.0354792 0.00953292 0.0342454 0.0101403 0.0395421
88 3 O -1.02071 20.1985 47.9911 -1.2 1 0.232243 0.0539909 0.0143859 0.0174924 0.00400833 0.0211615 0.0040055 0.0274386 0.00662558 0.0203538 0.00674247 0.0322433 0.0054753 0.0278271 0.00712992 0.0356231 0.0085621 0.0344811 0.00980487 0.0395685
89 3 O -1.65002 17.5002 51.771 -1.2 1 0.135943 0.0416014 0.00272774 0.00934452 0.00316423 0.0122691 0.00147108 0.0233854 0.00178121 0.0143646 0.00284322 0.0290328 0.00354239 0.0226861 0.00476599 0.0321575 0.00487932 0.0280674 0.00752463 0.0414756
90 3 O -2.26174 18.0434 48.8281 -1.2 1 0.206594 0.0535023 0.00926743 0.0142348 0.0037764 0.0177081 0.0038583 0.0267874 0.0050072 0.0201731 0.00483965 0.0314793 0.0041034 0.02747 0.00586526 0.0352492 0.00759976 0.033355 0.0091351 0.0392599
91 1 Mg -0.0440435 16.5651 46.8269 1.2 1 0.258813 0.0551537 0.0187823 0.0196623 0.00519735 0.0248442 0.00541111 0.0304021 0.00883228 0.0220381 0.00709318 0.0334175 0.00655211 0.0292834 0.00867776 0.0359476 0.0103715 0.0368071 0.0116078 0.0390951
92 3 O 0.37001 17.9877 48.3925 -1.2 1 0.218259 0.054256 0.0108146 0.0158599 0.00378802 0.0190386 0.00339197 0.0272441 0.00592487 0.0200764 0.00473023 0.0312953 0.0049413 0.0289706 0.00639435 0.0351275 0.00824552 0.0347477 0.0095892 0.0405561
93 1 Mg 1.23785 16.6284 54.5864 1.2 1 0.0716141 0.0313456 0.00339974 0.00620817 0.00172037 0.00852536 0.00254572 0.0208911 0.00212605 0.0110082 0.00234157 0.0276897 0.00321034 0.0204267 0.00417512 0.0312347 0.00351342 0.0251336 0.00556757 0.0429949
94 2 Si 1.47201 19.3088 56.4641 2.4 1 0.03103 0.0193552 0.00559382 0.00608982 0.00140167 0.00689296 0.00181768 0.0203058 0.00236002 0.00878905 0.00333863 0.0265864 0.00277352 0.0186352 0.00498073 0.0292998 0.00359525 0.0230987 0.0059667 0.0447882
95 3 O 1.51595 17.7581 56.7165 -1.2 1 0.0279368 0.01788 0.00551366 0.00599534 0.00139026 0.00669299 0.00195348 0.020672 0.0027262 0.0081109 0.0019162 0.0263125 0.00247468 0.0175363 0.00378079 0.0295976 0.00382919 0.0241449 0.00438327 0.0448467
96 3 O 1.45147 20.239 52.7294 -1.2 1 0.111291 0.0379822 0.00111837 0.00747375 0.00155593 0.0117766 0.00269559 0.0230041 0.00230693 0.0133292 0.00326941 0.0283706 0.00394618 0.0219232 0.00396135 0.0306302 0.00386782 0.0271087 0.00650507 0.0401624
97 3 O 0.0431749 19.8868 55.985 -1.2 1 0.0403645 0.0232643 0.00562428 0.00624816 0.00154321 0.007069 0.00224302 0.0208781 0.00213711 0.00885895 0.00263623 0.0269821 0.00282932 0.0188331 0.00467696 0.0299217 0.00371184 0.0242069 0.00549241 0.0436655
98 3 O 2.7768 19.8967 55.9102 -1.2 1 0.0394806 0.0232075 0.00592114 0.00589513 0.00114586 0.00701524 0.00262981 0.020898 0.0020613 0.00917706 0.00268246 0.0264641 0.00241921 0.0187241 0.00453809 0.0302905 0.00322382 0.0244583 0.00579756 0.0438719
99 1 Mg -0.126194 18.8651 52.2079 1.2 1 0.11732 0.0415596 0.00121541 0.008422 0.00257499 0.0108433 0.0019204 0.0233362 0.00196572 0.0143625 0.00337846 0.0290069 0.00332453 0.0226289 0.00415704 0.0313869 0.00394276 0.0281165 0.0070166 0.0401471
100 1 Mg 1.92402 18.5815 49.4545 1.2 1 0.182722 0.052303 0.00531848 0.0114241 0.00192414 0.0154518 0.00397421 0.0250039 0.00391221 0.0187908 0.00407609 0.0307039 0.00441322 0.026852 0.0052518 0.0351285 0.00565384 0.0320605 0.00883759 0.040227
101 2 Si 1.38106 20.9117 51.2443 2.4 1 0.145772 0.0461797 0.00166448 0.0101491 0.00187803 0.0135132 0.0033177 0.0241335 0.00305568 0.0159758 0.00452184 0.0285501 0.00372961 0.0245335 0.00510436 0.0318356 0.00417335 0.0294756 0.00832243 0.0403807
102 3 O 1.48527 22.4795 51.3054 -1.2 1 0.145851 0.0444862 0.00243349 0.00971403 0.00187281 0.0128221 0.00308481 0.0239162 0.00377676 0.01557 0.00321968 0.0292273 0.00394737 0.0242573 0.00399662 0.0320138 0.00505715 0.0287601 0.00686638 0.0398327
103 3 O 1.3458 19.9356 58.0773 -1.2 1 0.0137964 0.0120177 0.00372629 0.00553666 0.00106132 0.00648262 0.00141082 0.0208777 0.00151785 0.00819544 0.00141933 0.0269985 0.00203657 0.0175002 0.00257011 0.0294844 0.00227542 0.0235076 0.00314567 0.0438502
104 3 O 0.0615419 20.2804 50.6669 -1.2 1 0.157933 0.0472248 0.00407543 0.0110526 0.00351238 0.0142929 0.00350001 0.0246301 0.00303349 0.0162209 0.00355385 0.0294938 0.00392929 0.0254115 0.00481347 0.032426 0.00427613 0.0299996 0.00811826 0.040466
105 1 Mg -3.09665 18.8643 52.3122 1.2 1 0.124636 0.0411969 0.00125803 0.00816958 0.00166912 0.0122953 0.00229255 0.0233044 0.00185518 0.0145677 0.00321128 0.0287754 0.00323192 0.0231378 0.00390827 0.0314393 0.00410606 0.0280617 0.00656327 0.0400909
106 3 O 2.61548 20.2646 50.4626 -1.2 1 0.159497 0.0484247 0.00380073 0.00984473 0.00120906 0.0143967 0.0031549 0.0247694 0.00332798 0.0175267 0.00376846 0.029352 0.00362237 0.0258979 0.00472223 0.0327793 0.00468248 0.0297587 0.00723837 0.0398309
107 1 Mg -1.57531 18.8691 55.2315 1.2 1 0.0514302 0.0272434 0.00564988 0.00641457 0.00172848 0.00725381 0.00192827 0.0216572 0.00240162 0.00977008 0.0028575 0.0273974 0.00258139 0.0194248 0.0041793 0.0302008 0.00383574 0.0249037 0.00577767 0.0434458
108 2 Si -1.78385 16.8668 53.2449 2.4 1 0.0994259 0.0375539 0.00175843 0.00754589 0.00276623 0.00905786 0.00146148 0.0217874 0.00214263 0.012337 0.00276863 0.0274989 0.00311681 0.0218499 0.00375569 0.031801 0.00415362 0.0268796 0.00627758 0.0427487
109 3 O -1.72401 15.2054 53.1444 -1.2 1 0.0967411 0.0357346 0.00170894 0.00732338 0.00267361 0.00903438 0.00127401 0.0216697 0.00252712 0.0114211 0.00274077 0.027746 0.00276031 0.020998 0.00403825 0.0320952 0.00401476 0.0264128 0.00647316 0.0432345
110 3 O -1.12868 18.1227 46.4249 -1.2 1 0.267586 0.0554585 0.0206137 0.0206998 0.00528817 0.0247829 0.00559025 0.0313702 0.00788354 0.0219004 0.00639695 0.034069 0.00661621 0.0274167 0.0084984 0.0376056 0.0119924 0.0377592 0.0120011 0.0391104
111 3 O -3.04551 17.5072 53.9035 -1.2 1 0.084861 0.0335208 0.00237462 0.00587844 0.00176979 0.00993663 0.00145007 0.0219918 0.00166702 0.011616 0.00210447 0.0270384 0.00291098 0.0212047 0.00300217 0.0311108 0.00386893 0.0265245 0.00523465 0.0423627
112 3 O -0.389189 17.4704 53.9497 -1.2 1 0.0781317 0.0328476 0.00335572 0.00640343 0.00251664 0.00760937 0.000953508 0.0218956 0.00158645 0.0111918 0.00263797 0.0269234 0.00248192 0.0212583 0.00408955 0.0313479 0.00333368 0.026305 0.00661535 0.0422867
113 1 Mg -2.98788 25.7597 57.2642 1.2 1 0.0218054 0.0152891 0.00509538 0.00541879 0.000958533 0.00646691 0.0016329 0.0212865 0.00235958 0.00962006 0.00174101 0.0264096 0.00199973 0.0184496 0.00320367 0.0297498 0.0024438 0.0241964 0.00374303 0.0417793
114 1 Mg -1.48778 25.88 49.8402 1.2 1 0.177311 0.0482681 0.00639593 0.0132971 0.00307642 0.0155448 0.00260453 0.0261013 0.00422388 0.0178787 0.00455137 0.0304171 0.00341617 0.0254099 0.00511155 0.0332068 0.00529513 0.0313632 0.00815065 0.0388623
115 2 Si -1.00491 23.3922 47.9274 2.4 1 0.22826 0.0540832 0.0138445 0.0179057 0.00375995 0.0209829 0.00394613 0.0280373 0.00691374 0.0198349 0.00591887 0.0320265 0.00496301 0.0281101 0.00575123 0.0348785 0.00846274 0.0341084 0.010291 0.0394154
116 3 O -0.927602 24.9615 47.9909 -1.2 1 0.224932 0.052856 0.0130804 0.0177638 0.00357921 0.0203453 0.00371797 0.0278092 0.00620941 0.0197171 0.00579037 0.0313127 0.00451879 0.0272518 0.00641517 0.0350057 0.0080299 0.0342524 0.00984662 0.0389289
117 3 O -1.55795 22.2588 51.7696 -1.2 1 0.134119 0.0413752 0.00190696 0.0098808 0.00281149 0.0123569 0.00166819 0.0238093 0.00213163 0.0145166 0.00312563 0.0286227 0.00362121 0.0231882 0.00423745 0.0310336 0.00487351 0.0274806 0.00686203 0.0395897
118 3 O -2.17411 22.8111 48.8277 -1.2 1 0.201824 0.05321 0.00860684 0.0150119 0.00283004 0.017409 0.00341434 0.0273883 0.00490738 0.0197823 0.00478013 0.0313652 0.00389173 0.0270763 0.0052186 0.0343317 0.00636569 0.0330651 0.00872104 0.0390769
119 1 Mg 0.0423997 21.3296 46.8225 1.2 1 0.257181 0.0556995 0.0184879 0.0206891 0.00479296 0.025233 0.00552725 0.0309561 0.00810845 0.0221126 0.00699042 0.0339882 0.00651975 0.0287183 0.00833057 0.0361888 0.00984234 0.0372119 0.0119956 0.0394858
120 3 O 0.458537 22.7495 48.3911 -1.2 1 0.212058 0.0539083 0.010139 0.0163383 0.00324475 0.0187138 0.00328168 0.0280764 0.0055675 0.0197189 0.00452075 0.0312357 0.00463434 0.0285179 0.00555864 0.0341187 0.00768102 0.0348234 0.00932588 0.0395763