ITEM: TIMESTEP
8300
ITEM: NUMBER OF ATOMS
10500
ITEM: BOX BOUNDS xy xz yz pp pp pp
0	8.9688	2.9896
0	118.725	0
0	252.977	0
ITEM: ATOMS id type element xu yu zu q Q_1 Q_2 Q_3 Q_4 Q_5 Q_6 Q_7 Q_8 Q_9 Q_10 Q_11 Q_12 Q_13 Q_14 Q_15 Q_16 Q_17 Q_18 Q_19 Q_20 Q_21
1 1 Mg -3.42611 7.03218 57.3956 1.2 1 0.0218582 0.0142144 0.00533769 0.00582334 0.00115557 0.00610116 0.00126691 0.0240265 0.00155831 0.00950864 0.00184524 0.0301058 0.00215182 0.020842 0.00184935 0.0338949 0.00269138 0.0250415 0.00426009 0.0507671
2 1 Mg -1.82655 6.90154 50.0912 1.2 1 0.174151 0.0473026 0.00563299 0.0105697 0.00301109 0.0087206 0.00442223 0.0231824 0.00484498 0.0146674 0.00471184 0.025875 0.00476713 0.0209731 0.0065967 0.0299798 0.00574151 0.0261778 0.00937401 0.0359528
3 2 Si -0.257935 3.96038 48.0876 2.4 1 0.223125 0.0529362 0.0111753 0.0127144 0.00204077 0.00955231 0.00396155 0.0205719 0.00581265 0.0170903 0.00437476 0.0244032 0.00498467 0.0205342 0.0053267 0.0269745 0.00707714 0.0249123 0.00921561 0.0330059
4 3 O -0.335812 5.46814 47.6264 -1.2 1 0.232443 0.0524901 0.0130465 0.0140602 0.00286912 0.0106692 0.00454555 0.0210634 0.00645961 0.0175746 0.00469948 0.0251392 0.00466896 0.0209709 0.00571198 0.0272244 0.00772436 0.0258182 0.0102236 0.0315939
5 3 O -2.03793 3.43377 51.8941 -1.2 1 0.128275 0.0407839 0.00253544 0.00748754 0.00175828 0.00659202 0.00301836 0.0215216 0.00286225 0.0116538 0.00329307 0.025833 0.00386899 0.0185172 0.00415585 0.0297092 0.00522521 0.0235453 0.00793893 0.0385279
6 3 O -1.54015 3.53929 48.9521 -1.2 1 0.202189 0.0514823 0.00880575 0.0111623 0.00231881 0.00839541 0.00381505 0.0207121 0.00514543 0.0154673 0.00466579 0.0241844 0.00432991 0.0200036 0.00555495 0.0275682 0.00579657 0.0244084 0.00901952 0.0328573
7 1 Mg 1.82954 2.54582 47.1376 1.2 1 0.246683 0.053109 0.0159176 0.0157558 0.00324642 0.0109301 0.00396524 0.0205268 0.00586683 0.0158838 0.00492482 0.0240778 0.00627392 0.0198152 0.00748358 0.0253309 0.00658389 0.0236179 0.00909538 0.0307658
8 3 O 1.22989 3.66364 48.7877 -1.2 1 0.205206 0.0505012 0.00913744 0.0123031 0.00221639 0.00929799 0.00443646 0.0208457 0.00432896 0.0151993 0.00404802 0.0241484 0.00479767 0.0197808 0.00614029 0.0270536 0.00477459 0.0240677 0.00928462 0.0336987
9 1 Mg 1.02323 2.31973 54.5976 1.2 1 0.0693561 0.0293219 0.00509234 0.00523177 0.00148895 0.00495331 0.00285493 0.0226959 0.00225417 0.0098963 0.00327236 0.0277257 0.00402312 0.02072 0.00411404 0.0318609 0.00309846 0.0238267 0.00662849 0.0446899
10 2 Si 0.995296 4.97777 56.4605 2.4 1 0.032715 0.0191007 0.00652551 0.00626801 0.00119569 0.00596486 0.00207707 0.0234471 0.00188348 0.00907896 0.00390532 0.0281442 0.00311308 0.0209024 0.00439371 0.0334808 0.00336363 0.0246599 0.00624022 0.0504213
11 3 O 0.990985 3.41546 56.5368 -1.2 1 0.0352164 0.0192656 0.00614997 0.00569023 0.00107301 0.00514029 0.00234332 0.0231363 0.00289293 0.00852791 0.00286068 0.0288583 0.00341778 0.0201126 0.00288414 0.0329418 0.00427272 0.0244826 0.00534277 0.0487896
12 3 O 1.10813 6.07342 52.8172 -1.2 1 0.104968 0.0359558 0.00265237 0.00715117 0.00209138 0.00689477 0.00371396 0.0233399 0.00327477 0.0114794 0.00334905 0.0270745 0.00406924 0.0198031 0.0041054 0.0315492 0.00431471 0.0253242 0.00703057 0.0414531
13 3 O -0.343944 5.66758 55.8523 -1.2 1 0.0431778 0.0225651 0.0064318 0.00556718 0.00129829 0.00524635 0.00230131 0.023816 0.00203762 0.00991165 0.00299165 0.028517 0.00270363 0.0205568 0.00405851 0.0336086 0.00319562 0.0251661 0.00606897 0.0484537
14 3 O 2.26722 5.65529 55.7165 -1.2 1 0.0415733 0.0226549 0.0066671 0.00551672 0.000920573 0.00598673 0.00232569 0.0238775 0.00168728 0.00967938 0.00276019 0.028403 0.00326873 0.0209143 0.00350103 0.034118 0.00320899 0.0256133 0.0056099 0.0483362
15 1 Mg -0.459401 4.67631 52.2426 1.2 1 0.123208 0.0406452 0.00231612 0.00724353 0.00215866 0.00647002 0.0029179 0.0223801 0.00326655 0.012268 0.00318845 0.0267857 0.00386556 0.0197403 0.00450916 0.0303837 0.0039604 0.0241456 0.00731369 0.0385189
16 1 Mg 2.79456 3.9971 49.9987 1.2 1 0.174384 0.049524 0.00547417 0.0104691 0.00260738 0.00777937 0.00468061 0.0215503 0.00363069 0.0147183 0.00298507 0.0246632 0.00457252 0.0205868 0.00620594 0.028458 0.00438016 0.02471 0.00951371 0.0347174
17 2 Si 1.16169 6.59457 51.2556 2.4 1 0.146072 0.0453254 0.0023516 0.00947345 0.00260489 0.00819359 0.00434391 0.0225544 0.00440655 0.0137039 0.00474769 0.025748 0.00437261 0.0212827 0.00683584 0.0310645 0.00461497 0.0259039 0.00938584 0.0383839
18 3 O 1.28989 8.18905 51.2909 -1.2 1 0.144446 0.0441333 0.00271031 0.00946843 0.00248556 0.00910025 0.00426694 0.0233364 0.00432425 0.0136504 0.00392726 0.0273501 0.00399166 0.0216744 0.00506382 0.0313963 0.00533107 0.0269469 0.00860351 0.0400547
19 3 O 1.03858 5.6916 57.9346 -1.2 1 0.0159689 0.0112611 0.00418823 0.00627657 0.000859628 0.00624627 0.0013017 0.0244037 0.00192158 0.0083996 0.00290922 0.0298005 0.00255497 0.020965 0.00357713 0.0340023 0.00323281 0.0252291 0.00460459 0.0520515
20 3 O -0.184847 6.06029 50.6845 -1.2 1 0.16042 0.0450991 0.00444805 0.00975868 0.00312283 0.00777446 0.00422612 0.0224232 0.00436739 0.0139103 0.00331722 0.0253979 0.00402645 0.0203473 0.00586559 0.0295163 0.0050067 0.025234 0.00893945 0.0373466
21 1 Mg -3.49704 4.67769 52.6661 1.2 1 0.114738 0.0382301 0.0022237 0.00686683 0.00206662 0.00667849 0.00333954 0.0217206 0.00346225 0.0114277 0.00357208 0.0266068 0.00368514 0.0195133 0.00426046 0.0302357 0.00411633 0.0237687 0.00759543 0.0397849
22 3 O 2.48581 5.93312 50.6539 -1.2 1 0.157257 0.0469219 0.00362693 0.00903395 0.00167799 0.0085451 0.00453758 0.022471 0.00427833 0.0142198 0.00415572 0.0252089 0.00444838 0.0211598 0.00601215 0.0302089 0.00439734 0.0256282 0.00910615 0.0367699
23 1 Mg -1.91191 4.64629 55.2351 1.2 1 0.0510664 0.0258081 0.0067795 0.00578719 0.0011984 0.00554306 0.00239103 0.0232657 0.00298905 0.00952493 0.00338837 0.0285783 0.00275647 0.0205135 0.00390956 0.0331543 0.00429882 0.0248321 0.00641083 0.0464506
24 2 Si -1.94565 2.63039 53.2588 2.4 1 0.102794 0.0364052 0.00325727 0.00660304 0.0026449 0.00580806 0.00270233 0.0220062 0.00313162 0.0111005 0.00317216 0.026165 0.00351282 0.0199614 0.00336705 0.030388 0.00477668 0.0233655 0.00692094 0.0412232
25 3 O -1.9449 1.10361 53.1837 -1.2 1 0.0985924 0.0351837 0.00329974 0.00632616 0.00262726 0.00543987 0.00239041 0.0220666 0.0028294 0.010276 0.00282262 0.0267066 0.00345563 0.0194358 0.00455229 0.0303751 0.00384171 0.0231543 0.00737532 0.0410237
26 3 O -0.0467762 2.97103 46.8385 -1.2 1 0.251741 0.0534653 0.0163369 0.0152106 0.00278327 0.00979772 0.00423613 0.0203023 0.0064905 0.0169175 0.00598462 0.0240869 0.00687143 0.0192185 0.00794523 0.025319 0.00689366 0.0240928 0.0103648 0.0319461
27 3 O -3.20601 3.22197 54.0806 -1.2 1 0.0800524 0.0311723 0.0043194 0.0053962 0.001825 0.00528407 0.00266015 0.0224486 0.00282904 0.0106045 0.00260771 0.0266049 0.00283492 0.0201694 0.00334931 0.0313682 0.00383112 0.0234777 0.00652512 0.0431839
28 3 O -0.66762 3.23792 54.0086 -1.2 1 0.0808618 0.0320621 0.00449532 0.00555222 0.0020797 0.00573675 0.00201484 0.022566 0.00275303 0.0104956 0.00240238 0.0268692 0.00345813 0.0203311 0.00314515 0.0317261 0.00364182 0.0241793 0.00661851 0.0434736
29 1 Mg -3.31689 11.7621 57.4993 1.2 1 0.0209836 0.0143821 0.00514805 0.00605976 0.000952773 0.00581655 0.00161544 0.0244577 0.00209153 0.00956065 0.00201323 0.0306288 0.00195611 0.020835 0.00199737 0.0342178 0.00251009 0.0260116 0.003727 0.0522124
30 1 Mg -1.75014 11.5838 49.8362 1.2 1 0.183313 0.0484193 0.00735402 0.0125418 0.0042601 0.01254 0.00464814 0.0245819 0.00566046 0.0160104 0.00538841 0.0289321 0.00432909 0.0240601 0.00732021 0.0333698 0.0071697 0.0294768 0.0105698 0.0390032
31 2 Si -1.18003 9.02138 47.9309 2.4 1 0.236318 0.0513855 0.014633 0.0154934 0.00517131 0.0129004 0.00727786 0.0228812 0.00790695 0.0171696 0.00714614 0.0263203 0.00460699 0.0226157 0.00740783 0.0303805 0.00913369 0.028386 0.0127165 0.0350134
32 3 O -1.23224 10.5991 47.9811 -1.2 1 0.228239 0.0528115 0.0129485 0.0158926 0.00515333 0.0140637 0.00618938 0.0241977 0.0079941 0.0175858 0.00714282 0.0278079 0.00534687 0.0238929 0.00865633 0.0327651 0.00953086 0.0305126 0.01184 0.0357258
33 3 O -1.79016 8.01447 51.8693 -1.2 1 0.132898 0.0411537 0.00226476 0.00915617 0.00310466 0.0075545 0.00306173 0.0230588 0.00380171 0.012906 0.00378726 0.0274945 0.0041178 0.0208682 0.00462816 0.0318439 0.00536222 0.0257849 0.00868777 0.0406117
34 3 O -2.30986 8.37215 48.8528 -1.2 1 0.204235 0.0522746 0.00872632 0.0127171 0.00402851 0.010551 0.00603395 0.0233535 0.00609678 0.0172375 0.00503474 0.0264971 0.00407829 0.0228483 0.00625473 0.0314023 0.00712474 0.0280554 0.0103514 0.0350986
35 1 Mg 0.154883 7.08234 46.8007 1.2 1 0.257656 0.0524298 0.0173435 0.016607 0.00583429 0.0133939 0.00837284 0.0233483 0.00749454 0.0176281 0.00718655 0.0251366 0.00654017 0.0214879 0.00861095 0.0289737 0.0101101 0.0281754 0.01346 0.0319531
36 3 O 0.325447 8.50934 48.3809 -1.2 1 0.217434 0.0532239 0.0104957 0.0145352 0.0041877 0.0121174 0.00618718 0.0239863 0.00665245 0.0172901 0.00594937 0.0262097 0.00489011 0.0237839 0.00607668 0.0303155 0.00782689 0.0287974 0.011296 0.0350022
37 1 Mg 1.14676 7.10801 54.5865 1.2 1 0.0675084 0.029415 0.00499976 0.00589638 0.00148503 0.00586206 0.00279443 0.0228806 0.00225841 0.0107348 0.00323787 0.0280959 0.00348644 0.0211045 0.00367413 0.0335585 0.00330906 0.0247825 0.00649102 0.0458721
38 2 Si 1.12971 9.74053 56.437 2.4 1 0.0321061 0.0194674 0.00632862 0.00655765 0.0010781 0.00574797 0.00225857 0.0240831 0.00209008 0.00931188 0.00353638 0.0285198 0.00248665 0.0213527 0.00380147 0.0344745 0.0034094 0.0257832 0.00583287 0.0519532
39 3 O 1.04641 8.18727 56.5463 -1.2 1 0.0295682 0.0179801 0.0061085 0.00622189 0.000704342 0.00595612 0.00146392 0.0237865 0.00275365 0.00848321 0.00216585 0.0291748 0.00323379 0.0202586 0.00217012 0.0341792 0.00428604 0.0252279 0.0050886 0.0509036
40 3 O 1.28624 10.7248 52.7351 -1.2 1 0.109741 0.0375332 0.00217229 0.00811694 0.00217911 0.00936214 0.00328728 0.0241884 0.00333132 0.0121553 0.0039423 0.0284836 0.00432644 0.021848 0.00491325 0.0332823 0.00381059 0.0275183 0.00762191 0.0439522
41 3 O -0.122942 10.4863 55.7237 -1.2 1 0.0501336 0.0254059 0.0053183 0.00613119 0.00109645 0.00629949 0.00247939 0.0243988 0.00229335 0.0104707 0.00299415 0.0287304 0.00283734 0.0217115 0.00466617 0.0344734 0.00342549 0.0263008 0.00550935 0.0498257
42 3 O 2.41523 10.3798 55.7501 -1.2 1 0.0425477 0.0236608 0.00638858 0.00622042 0.000911737 0.00605085 0.00212127 0.0239832 0.00220892 0.00975015 0.00256201 0.0289834 0.00268577 0.021153 0.00355381 0.0347828 0.00261845 0.0265047 0.00557678 0.0501214
43 1 Mg -0.262694 9.34741 52.2523 1.2 1 0.112759 0.0404178 0.00289753 0.00850412 0.00256886 0.00791966 0.0026744 0.0239736 0.00357218 0.0124163 0.00365722 0.0283087 0.00374319 0.0213427 0.00522393 0.0329781 0.0042705 0.0273042 0.00814844 0.0420139
44 1 Mg 1.87648 9.01537 49.4629 1.2 1 0.184765 0.0525099 0.00549574 0.0116679 0.00304851 0.0107885 0.00626285 0.0235007 0.00550266 0.0163721 0.00532331 0.0270006 0.00466847 0.0234205 0.00648278 0.0318375 0.00572823 0.0287493 0.0106873 0.0367437
45 2 Si 1.21415 11.3799 51.2378 2.4 1 0.147941 0.0467437 0.00224828 0.0106091 0.00289904 0.0107785 0.00392985 0.0243693 0.00466491 0.014741 0.00486315 0.0276176 0.00425817 0.0239901 0.00623245 0.0335795 0.00476234 0.0292873 0.00986704 0.0418581
46 3 O 1.31634 12.9512 51.3023 -1.2 1 0.14622 0.0447032 0.00285919 0.0102177 0.00251924 0.0114061 0.00327953 0.0246363 0.00479283 0.0147178 0.00358956 0.0292958 0.00428267 0.0246621 0.00457821 0.0340299 0.0053015 0.0294712 0.00868969 0.0426358
47 3 O 1.18584 10.3968 57.9387 -1.2 1 0.0159194 0.0116498 0.00408882 0.00626129 0.000649233 0.00580098 0.00150459 0.0248398 0.0020673 0.00856438 0.00240836 0.029666 0.00236512 0.0209487 0.00247207 0.0343341 0.00301076 0.0256239 0.00362212 0.052848
48 3 O -0.115718 10.7564 50.681 -1.2 1 0.155828 0.0465488 0.00349895 0.0111943 0.00341824 0.0104494 0.00395777 0.0244547 0.00468404 0.0145856 0.00409133 0.0279774 0.00446027 0.0235554 0.00642844 0.0326192 0.00524003 0.028565 0.0100383 0.0407285
49 1 Mg -3.26386 9.35564 52.3622 1.2 1 0.121601 0.0396936 0.0017547 0.0080951 0.00200485 0.00916529 0.0036927 0.0233966 0.00387029 0.0126071 0.00411806 0.0279668 0.00356826 0.0214188 0.00500307 0.0330953 0.00418568 0.026786 0.00823084 0.0409845
50 3 O 2.45216 10.7265 50.4558 -1.2 1 0.162569 0.0485669 0.0039865 0.0101579 0.00271664 0.0112363 0.00477332 0.0238094 0.00495419 0.0158577 0.00457044 0.0276695 0.00393544 0.0241279 0.00649357 0.0331575 0.00546031 0.0287676 0.00966956 0.0399334
51 1 Mg -1.82922 9.48682 55.1291 1.2 1 0.0535545 0.0271087 0.00584405 0.00639254 0.00125224 0.00626289 0.00214211 0.0236563 0.00298638 0.00993837 0.00343513 0.0286942 0.0026714 0.0212365 0.00361684 0.0341404 0.00404752 0.0260607 0.00630861 0.0481892
52 2 Si -1.80432 7.35433 53.3761 2.4 1 0.0947032 0.0360757 0.00375581 0.00728503 0.00276396 0.00658738 0.00256131 0.0226463 0.00369493 0.0117537 0.00326089 0.0274801 0.0033598 0.0211315 0.00308714 0.0324553 0.00493357 0.0250295 0.00678623 0.0432352
53 3 O -1.85329 5.81478 53.3744 -1.2 1 0.0945764 0.0335966 0.00307126 0.00639728 0.0020147 0.00637244 0.0023442 0.0222466 0.00365315 0.0106614 0.00343068 0.0269047 0.00277683 0.0198182 0.00412206 0.0322133 0.003574 0.0245461 0.0072235 0.0425563
54 3 O -1.19417 8.46968 46.4488 -1.2 1 0.270216 0.0525766 0.019911 0.0183076 0.00591701 0.014632 0.00868826 0.0243714 0.00780005 0.0176416 0.00772007 0.0257138 0.00596689 0.0212481 0.00951708 0.0303944 0.0106588 0.029974 0.0130421 0.0318894
55 3 O -3.12258 8.11532 53.9646 -1.2 1 0.0815235 0.0309755 0.00310328 0.00626946 0.00190223 0.00745734 0.00251351 0.0233688 0.00307697 0.0113205 0.00271041 0.0271483 0.00276492 0.0211413 0.00294035 0.0333376 0.00437994 0.0256988 0.006831 0.0447471
56 3 O -0.505728 8.07093 54.0396 -1.2 1 0.0743644 0.0310804 0.00486913 0.00606483 0.00191375 0.00593486 0.00175828 0.0235154 0.00278892 0.0109676 0.00264523 0.0273094 0.00271181 0.0209008 0.00357934 0.0337124 0.00402665 0.0264515 0.00665565 0.0457358
57 1 Mg -3.13154 16.4875 57.389 1.2 1 0.0214792 0.01441 0.00532257 0.00646748 0.00110364 0.00572836 0.00184359 0.0245264 0.0021081 0.00913929 0.00190069 0.0304634 0.00219112 0.020888 0.00228733 0.0336262 0.00269993 0.0259085 0.00403306 0.0525857
58 1 Mg -1.6714 16.3544 49.8412 1.2 1 0.180454 0.0495483 0.00723172 0.0131815 0.00337842 0.0148412 0.00348891 0.0266518 0.00532317 0.0178504 0.00482933 0.0318286 0.00418706 0.0265902 0.00677014 0.0351095 0.00627848 0.0313523 0.00996427 0.0419172
59 2 Si -1.18567 13.8526 47.9314 2.4 1 0.23241 0.0543695 0.0151082 0.0169064 0.00456803 0.0179321 0.00506253 0.0273507 0.00884256 0.0199198 0.00641548 0.0310072 0.00572979 0.0286617 0.0067946 0.0348699 0.0103629 0.0331844 0.0119201 0.0386293
60 3 O -1.09664 15.4205 47.9915 -1.2 1 0.230681 0.0539766 0.0150172 0.0172538 0.00482053 0.0191118 0.00473783 0.0279114 0.00841457 0.0200907 0.00657827 0.0314829 0.00587357 0.0281266 0.00836692 0.0358514 0.00938067 0.0339657 0.0114494 0.0394442
61 3 O -1.73493 12.7491 51.7772 -1.2 1 0.133726 0.0421392 0.0023718 0.0103228 0.00306735 0.00974873 0.0017249 0.0249052 0.00410195 0.0139135 0.00314984 0.0295337 0.00428058 0.0235889 0.00494081 0.033817 0.0052564 0.028511 0.00859773 0.0436773
62 3 O -2.36115 13.2717 48.8238 -1.2 1 0.206472 0.0541146 0.0101825 0.0144379 0.00470697 0.0142318 0.00479668 0.0269145 0.00681244 0.0193401 0.00524894 0.0304499 0.00457666 0.0270611 0.00631447 0.0350358 0.00818271 0.0322332 0.0109602 0.0388802
63 1 Mg -0.159928 11.7639 46.8533 1.2 1 0.258856 0.0541512 0.018808 0.0189225 0.00613354 0.0196743 0.0072719 0.0280849 0.00947184 0.0195971 0.00809831 0.0302211 0.00669688 0.027163 0.00871438 0.0337627 0.0113792 0.0338964 0.0142033 0.0360001
64 3 O 0.2623 13.1866 48.413 -1.2 1 0.211275 0.053127 0.0110895 0.0149431 0.00409186 0.0157549 0.00427351 0.0264419 0.0075631 0.0185614 0.00513652 0.0295612 0.0051483 0.0280647 0.00571374 0.0342801 0.00873787 0.0330798 0.0112437 0.0393657
65 1 Mg 1.31064 11.7819 54.5257 1.2 1 0.0738811 0.0316702 0.00363736 0.00665869 0.00156551 0.00697783 0.00315969 0.0238355 0.00298492 0.011405 0.00239679 0.0292326 0.00378023 0.0227398 0.00311154 0.034219 0.00370505 0.0262581 0.00573647 0.0470668
66 2 Si 1.22634 14.4548 56.3974 2.4 1 0.03258 0.019615 0.00619338 0.00703285 0.00129195 0.0057413 0.00235724 0.0240611 0.00223131 0.00912986 0.00360664 0.0290939 0.00241004 0.0214293 0.00448156 0.0340938 0.00352939 0.0261012 0.00571834 0.0534653
67 3 O 1.22347 12.9123 56.5128 -1.2 1 0.0291333 0.0182331 0.00592311 0.00668951 0.0010085 0.00535654 0.00213345 0.0242644 0.00342333 0.00866956 0.00213863 0.0298545 0.00295892 0.0206879 0.00250608 0.0342587 0.00386719 0.0261533 0.00483517 0.052832
68 3 O 1.36565 15.4813 52.729 -1.2 1 0.110838 0.0382118 0.00129132 0.00893619 0.00181058 0.0104218 0.00329967 0.0250976 0.00332978 0.0132235 0.0034634 0.0301652 0.00402246 0.023171 0.00446757 0.0341304 0.00394581 0.0288167 0.00709835 0.046406
69 3 O -0.0436568 15.1692 55.755 -1.2 1 0.0468773 0.0243668 0.00559393 0.00672519 0.00122934 0.00620597 0.00262675 0.0245159 0.00208327 0.0100827 0.00260811 0.0291188 0.00249638 0.0218089 0.0034042 0.0346137 0.00334225 0.027233 0.00535849 0.0517599
70 3 O 2.5306 15.1454 55.733 -1.2 1 0.0438987 0.0242334 0.00621094 0.00671027 0.00112687 0.00597415 0.00306427 0.0245001 0.0022544 0.00966653 0.00269865 0.0291501 0.00276317 0.0218318 0.00383292 0.0346729 0.00312806 0.0271098 0.00569069 0.0519034
71 1 Mg -0.206989 14.1049 52.2121 1.2 1 0.117014 0.0420644 0.00144009 0.00935689 0.00254111 0.00891062 0.00241345 0.0252654 0.00387864 0.0135076 0.00328809 0.0300975 0.00367142 0.0237939 0.00432174 0.0342209 0.00391581 0.0288412 0.00756686 0.0443206
72 1 Mg 1.82591 13.8102 49.4556 1.2 1 0.186655 0.0539268 0.00632317 0.0124995 0.00305294 0.0137434 0.00464501 0.0257052 0.0056444 0.0179891 0.00505944 0.0298062 0.00475598 0.0270259 0.00655973 0.0354699 0.00666386 0.0321588 0.0106712 0.0395452
73 2 Si 1.29285 16.1518 51.2434 2.4 1 0.147054 0.0475914 0.00224431 0.0112649 0.0023386 0.0124082 0.00380174 0.0258476 0.00469686 0.0161873 0.00491512 0.0295568 0.00414984 0.0259697 0.00629221 0.0346656 0.00416496 0.0311121 0.00961673 0.0444046
74 3 O 1.39496 17.7199 51.3047 -1.2 1 0.144776 0.0449381 0.00250087 0.0105279 0.00181233 0.012472 0.00318969 0.0256696 0.00406491 0.0157722 0.00303112 0.0305803 0.00397296 0.0254935 0.00391764 0.0345788 0.00521759 0.0301932 0.00814347 0.0446363
75 3 O 1.26579 15.1145 57.8752 -1.2 1 0.0164145 0.0118831 0.00418137 0.00643535 0.000756485 0.00585774 0.0019827 0.0247328 0.00196995 0.00835205 0.00286776 0.0300088 0.00228073 0.0207469 0.00278507 0.0337326 0.00288587 0.0256841 0.00410379 0.0534222
76 3 O -0.0269106 15.5178 50.6688 -1.2 1 0.156364 0.047448 0.00415767 0.0117173 0.00305699 0.0125886 0.00375261 0.0260463 0.00453613 0.0160825 0.00337929 0.0301852 0.0041524 0.0264091 0.00566482 0.0343106 0.00435643 0.030788 0.00887609 0.0432262
77 1 Mg -3.18391 14.1057 52.3125 1.2 1 0.1235 0.0417698 0.00131309 0.00931717 0.00184434 0.0104898 0.00275923 0.0248583 0.00380802 0.0141625 0.00300154 0.0299955 0.00369062 0.0242615 0.00449087 0.0337803 0.00399511 0.0285455 0.00753902 0.0439463
78 3 O 2.52432 15.503 50.4579 -1.2 1 0.15902 0.0493219 0.00429292 0.0108833 0.00247615 0.0129457 0.00398884 0.0258835 0.0048782 0.017487 0.00390053 0.0299692 0.00392596 0.0267773 0.00672906 0.0347846 0.00495146 0.0308265 0.00924029 0.0425789
79 1 Mg -1.71377 14.2248 55.0872 1.2 1 0.0561828 0.0282543 0.00524016 0.00713387 0.00118965 0.00622448 0.00221404 0.0243418 0.00322052 0.0104011 0.00323831 0.0296022 0.00246044 0.0221539 0.00365054 0.034528 0.00417245 0.0271862 0.00596853 0.0500586
80 2 Si -1.68419 12.0623 53.2723 2.4 1 0.0965824 0.0373363 0.0031063 0.00833413 0.00232863 0.00766091 0.0015228 0.0244663 0.00400957 0.0125032 0.0025317 0.0285443 0.00357567 0.0232326 0.00316427 0.0341139 0.00445601 0.0275639 0.00691213 0.0463886
81 3 O -1.71458 10.5364 53.1642 -1.2 1 0.0978104 0.0361049 0.00326562 0.00759715 0.00249445 0.0077166 0.00200113 0.0233812 0.00348771 0.0112674 0.0034616 0.0279849 0.00317648 0.0212808 0.00487301 0.0339073 0.00409315 0.0268442 0.00822722 0.0451255
82 3 O -1.21337 13.3381 46.4311 -1.2 1 0.27037 0.0535033 0.021074 0.0204495 0.00669342 0.0205864 0.00700878 0.0301679 0.00953573 0.0207049 0.00729625 0.0314354 0.0061292 0.0269399 0.00906597 0.0359899 0.0131418 0.0357711 0.013831 0.0361829
83 3 O -2.95896 12.7642 53.9475 -1.2 1 0.0841982 0.033606 0.00304067 0.00703129 0.00162343 0.00801573 0.00196522 0.0243393 0.00311945 0.0118915 0.00227789 0.0286872 0.00322736 0.0228046 0.00333401 0.0343805 0.00357992 0.0272429 0.00633073 0.0475176
84 3 O -0.412777 12.7786 53.8944 -1.2 1 0.0801893 0.0330858 0.00338817 0.00711809 0.00241327 0.00608276 0.00165031 0.0245284 0.00320562 0.0115407 0.00207814 0.0286287 0.00310157 0.0229368 0.00338792 0.0346765 0.00396988 0.0275127 0.00599539 0.0476072
85 1 Mg -3.15863 21.2731 57.4765 1.2 1 0.0216297 0.0136216 0.0053638 0.00656144 0.00142584 0.00618453 0.00166778 0.0241324 0.00222151 0.00923766 0.00219265 0.0303907 0.00207328 0.0209662 0.0027053 0.0335594 0.00307768 0.0254593 0.00435425 0.0525998
86 1 Mg -1.5831 21.1217 49.8405 1.2 1 0.181279 0.049839 0.0070393 0.0135696 0.00306413 0.015695 0.00348693 0.0268569 0.00457668 0.0181466 0.0047697 0.0316497 0.00405915 0.0267671 0.00627722 0.035344 0.0059256 0.0315253 0.0097246 0.0420191
87 2 Si -1.09384 18.6291 47.9287 2.4 1 0.231163 0.0552247 0.0146514 0.0173933 0.00371119 0.0204312 0.00434395 0.0286901 0.00799619 0.0208561 0.00611309 0.0325164 0.00618251 0.0294467 0.00643357 0.0361006 0.0098198 0.034183 0.0112607 0.0411727
88 3 O -1.02071 20.1985 47.9911 -1.2 1 0.229971 0.0542493 0.0143644 0.0177007 0.00415956 0.0207417 0.00428009 0.0285 0.00761819 0.0207895 0.00630625 0.0322172 0.00604465 0.0285461 0.0079585 0.0364112 0.00867709 0.0342607 0.0109349 0.0410626
89 3 O -1.65002 17.5002 51.771 -1.2 1 0.134408 0.0424072 0.00208737 0.0107163 0.00268412 0.0114585 0.00188867 0.0255034 0.00333104 0.0147744 0.00287906 0.0304099 0.00399034 0.0244517 0.00463652 0.0343655 0.00520359 0.0289836 0.00790406 0.0448875
90 3 O -2.26174 18.0434 48.8281 -1.2 1 0.206194 0.0550389 0.0100341 0.0150082 0.00362812 0.0170803 0.00401803 0.0281678 0.00640139 0.0203073 0.00452064 0.031884 0.00465443 0.0283716 0.00614803 0.0362268 0.00772849 0.0334828 0.0101221 0.0411507
91 1 Mg -0.0440435 16.5651 46.8269 1.2 1 0.2578 0.0559114 0.0190108 0.019975 0.00481275 0.024085 0.00572556 0.0316556 0.00992488 0.0224116 0.00717565 0.0338215 0.00721979 0.0295646 0.0090768 0.0363273 0.0105865 0.0368049 0.01293 0.0400084
92 3 O 0.37001 17.9877 48.3925 -1.2 1 0.2112 0.0541283 0.0107972 0.0156089 0.0035396 0.0178267 0.00347309 0.0280868 0.00679392 0.0200348 0.00445002 0.0317362 0.00510491 0.0293305 0.00602747 0.0354434 0.00805063 0.0344089 0.0103973 0.0420217
93 1 Mg 1.43324 16.5159 54.5153 1.2 1 0.0732361 0.0316138 0.00386413 0.0072282 0.00134782 0.00752828 0.00315857 0.024295 0.00270966 0.0115897 0.00260817 0.0297832 0.00346342 0.0231265 0.00345462 0.0342759 0.00386481 0.0270918 0.00546436 0.048518
94 2 Si 1.30601 19.2086 56.4897 2.4 1 0.0317612 0.0187045 0.00627835 0.00706278 0.00121375 0.00610912 0.00255318 0.0236959 0.00233562 0.00884964 0.00361231 0.028877 0.00256873 0.0214253 0.00463488 0.0339595 0.00357697 0.025683 0.00618917 0.0536288
95 3 O 1.33451 17.6685 56.5073 -1.2 1 0.0305342 0.018068 0.00631124 0.00691525 0.00136495 0.00581833 0.0021962 0.0245669 0.00334593 0.00837996 0.00231018 0.0293977 0.00326136 0.020864 0.00269256 0.0339941 0.00440035 0.0262393 0.00544391 0.0533345
96 3 O 1.45147 20.239 52.7294 -1.2 1 0.110017 0.0380746 0.00150363 0.00867644 0.00151215 0.011244 0.0033622 0.0252494 0.00273975 0.0138125 0.00350249 0.0300384 0.00411351 0.0237268 0.00450408 0.0338829 0.00390268 0.0287591 0.00728314 0.0463517
97 3 O 0.0589418 19.9378 55.7486 -1.2 1 0.0475797 0.0244997 0.00588717 0.00674607 0.00116352 0.00661611 0.00256126 0.0247227 0.00202401 0.0101842 0.00257134 0.0288563 0.00273252 0.022228 0.00391426 0.0343922 0.0035497 0.0269731 0.00583238 0.05191
98 3 O 2.61156 19.8685 55.784 -1.2 1 0.0416407 0.0225159 0.00664428 0.00670642 0.00139074 0.00611359 0.00266062 0.0241654 0.0020926 0.00945102 0.00260233 0.028898 0.00285663 0.0218391 0.00373523 0.0344979 0.00300211 0.0266062 0.00624687 0.0518074
99 1 Mg -0.126194 18.8651 52.2079 1.2 1 0.115966 0.0420965 0.0021206 0.00959113 0.00204639 0.00990661 0.00246724 0.0254756 0.0028516 0.0142373 0.00299748 0.0305152 0.00352219 0.024253 0.0040231 0.0341944 0.00396592 0.0292325 0.00751926 0.0451741
100 1 Mg 1.92402 18.5815 49.4545 1.2 1 0.180738 0.0536232 0.00528331 0.0124812 0.0018112 0.0147469 0.00399946 0.0264673 0.00485157 0.0191619 0.00378844 0.0314146 0.00468309 0.0280273 0.00540315 0.0361139 0.00591431 0.0324978 0.0099262 0.0424339
101 2 Si 1.38106 20.9117 51.2443 2.4 1 0.146693 0.0473719 0.00177044 0.0113472 0.00221048 0.013106 0.00374065 0.0259194 0.0038024 0.0162606 0.004816 0.0294396 0.00417058 0.0262362 0.00562019 0.0345107 0.00409783 0.0310674 0.00912905 0.0444066
102 3 O 1.48527 22.4795 51.3054 -1.2 1 0.143187 0.0442645 0.00210622 0.0105453 0.00196359 0.0127213 0.00330232 0.0254896 0.00393455 0.0155305 0.00345026 0.0302694 0.00377472 0.0251972 0.00452734 0.0345406 0.00469095 0.0299867 0.00803162 0.0442846
103 3 O 1.25304 19.867 57.9366 -1.2 1 0.0167919 0.0112551 0.00444157 0.00671887 0.00112069 0.00637931 0.00183571 0.0246318 0.0020075 0.00845359 0.00248184 0.0297281 0.0022623 0.0208664 0.00271142 0.0336816 0.00274573 0.0255784 0.00427994 0.0538456
104 3 O 0.0615419 20.2804 50.6669 -1.2 1 0.154781 0.0471229 0.0036253 0.0119561 0.0032598 0.0135373 0.00384623 0.0262396 0.00361942 0.0162605 0.00307395 0.0302783 0.00413348 0.026473 0.00533513 0.0345813 0.00440952 0.0309054 0.0088844 0.0440756
105 1 Mg -3.09665 18.8643 52.3122 1.2 1 0.123504 0.0417868 0.00128976 0.00931756 0.0013801 0.0115065 0.00274317 0.0251442 0.00260162 0.0149071 0.0028656 0.0303016 0.00348579 0.0248748 0.00404159 0.0341595 0.00403572 0.0289442 0.00725995 0.0443908
106 3 O 2.61548 20.2646 50.4626 -1.2 1 0.160977 0.0499407 0.00388637 0.0111545 0.00156754 0.0140325 0.0036839 0.0262286 0.00387909 0.0179061 0.00366633 0.0302166 0.00406569 0.0271855 0.00525326 0.034921 0.00504192 0.0310802 0.00837387 0.0432607
107 1 Mg -1.62907 18.8761 55.1341 1.2 1 0.0537477 0.0271776 0.00624041 0.00725609 0.00148225 0.00664002 0.00259543 0.0246103 0.00277707 0.0101452 0.00330175 0.0296083 0.0024456 0.0222775 0.00383353 0.0340543 0.00415712 0.0267739 0.00639297 0.0503828
108 2 Si -1.60748 16.8113 53.2232 2.4 1 0.0971338 0.0374453 0.00292185 0.00881362 0.00220697 0.00795697 0.00166023 0.0247059 0.00338287 0.0127852 0.00233257 0.0293533 0.00337258 0.0239537 0.0031782 0.0343783 0.00477482 0.0280845 0.00687488 0.0478638
109 3 O -1.71487 15.25 53.158 -1.2 1 0.0970205 0.0364617 0.00283445 0.0084864 0.00204771 0.00808845 0.00195396 0.0244861 0.0035399 0.0119983 0.00264784 0.0295565 0.00329715 0.0228906 0.00453544 0.0342728 0.00401447 0.0277512 0.00757767 0.0475667
110 3 O -1.12868 18.1227 46.4249 -1.2 1 0.267147 0.0558889 0.0206197 0.0211196 0.00513573 0.0241608 0.00595818 0.0323788 0.00865767 0.0222233 0.00647199 0.0341471 0.00683734 0.0276245 0.00896884 0.0381265 0.0122718 0.0377142 0.0130561 0.0399947
111 3 O -2.85992 17.5245 53.9099 -1.2 1 0.0833247 0.0331446 0.00346139 0.00716984 0.00134184 0.0082039 0.00182416 0.0244879 0.00230039 0.0121413 0.00187954 0.0291246 0.00277523 0.0234456 0.00312054 0.0344827 0.00392176 0.0272408 0.00625656 0.0482514
112 3 O -0.27232 17.4837 53.8615 -1.2 1 0.0809466 0.0335845 0.00402794 0.00764894 0.00234821 0.00667793 0.0013773 0.0246922 0.00248781 0.0116054 0.00207381 0.0288355 0.00301124 0.0234228 0.00378419 0.0345756 0.00417634 0.0277594 0.0063839 0.0483928
113 1 Mg -2.91941 26.0086 57.3186 1.2 1 0.0213068 0.0135275 0.00540484 0.00676256 0.00117898 0.00607469 0.0014802 0.023897 0.00199394 0.00975886 0.00172452 0.0303321 0.00214941 0.0213904 0.00247319 0.0337019 0.00273346 0.0252127 0.00431903 0.0524004
114 1 Mg -1.48778 25.88 49.8402 1.2 1 0.179349 0.0495479 0.00678184 0.0136454 0.00334848 0.0155699 0.00340873 0.0270944 0.0047016 0.0180574 0.00471202 0.0314814 0.00378649 0.0266398 0.00635662 0.0354725 0.00568956 0.0315905 0.00934577 0.041693
115 2 Si -1.00491 23.3922 47.9274 2.4 1 0.233969 0.055252 0.0146561 0.0184259 0.00414707 0.0215145 0.00446893 0.0287722 0.00787126 0.0211211 0.00573938 0.032449 0.00622758 0.0291173 0.00672457 0.0364029 0.00972262 0.0345498 0.0113332 0.0410433
116 3 O -0.927602 24.9615 47.9909 -1.2 1 0.229995 0.0541866 0.0142732 0.0181028 0.00419372 0.0208466 0.00416208 0.0285481 0.0074446 0.02075 0.00608928 0.0320765 0.00574686 0.0282425 0.00790069 0.0367807 0.00879444 0.0345407 0.0109118 0.0408608
117 3 O -1.55795 22.2588 51.7696 -1.2 1 0.135025 0.0425801 0.00219158 0.0108688 0.00277169 0.0119396 0.00198715 0.0256337 0.00273755 0.0150405 0.00301527 0.0301405 0.00424575 0.024904 0.00414797 0.0342144 0.00493742 0.0289333 0.00781335 0.0446718
118 3 O -2.17411 22.8111 48.8277 -1.2 1 0.206503 0.0546499 0.00943094 0.0154175 0.00331892 0.0176038 0.00391919 0.0281598 0.00564477 0.0204192 0.00449994 0.0316428 0.00471387 0.0281172 0.00583316 0.0364261 0.00735832 0.033584 0.00978529 0.0411205
119 1 Mg 0.0423997 21.3296 46.8225 1.2 1 0.25776 0.0556092 0.0185303 0.0206254 0.00513032 0.0253428 0.00603937 0.0317804 0.0089601 0.0228185 0.0067585 0.034027 0.00725581 0.0293489 0.00923303 0.0365718 0.0101193 0.0370678 0.0127574 0.0405881
120 3 O 0.458537 22.7495 48.3911 -1.2 1 0.214497 0.0545466 0.0106899 0.0164385 0.00395487 0.0187283 0.00349297 0.0286389 0.00628953 0.0202928 0.0040965 0.0315974 0.00529474 0.0291905 0.00578453 0.0358016 0.0078697 0.0352093 0.0102548 0.0417974