ITEM: TIMESTEP
59900
ITEM: NUMBER OF ATOMS
10500
ITEM: BOX BOUNDS xy xz yz pp pp pp
0	8.9688	2.9896
0	118.725	0
0	252.977	0
ITEM: ATOMS id type element xu yu zu q Q_1 Q_2 Q_3 Q_4 Q_5 Q_6 Q_7 Q_8 Q_9 Q_10 Q_11 Q_12 Q_13 Q_14 Q_15 Q_16 Q_17 Q_18 Q_19 Q_20 Q_21
1 1 Mg -3.12954 6.89055 57.2978 1.2 1 0.0275423 0.0148672 0.00552056 0.00508339 0.00176627 0.00602382 0.00131269 0.0200986 0.00192591 0.00977004 0.00219963 0.0257063 0.0030478 0.0180529 0.00348987 0.0317058 0.00335292 0.0237076 0.00601902 0.0412023
2 1 Mg -1.82655 6.90154 50.0912 1.2 1 0.174803 0.0481967 0.00599135 0.00962606 0.00315925 0.00859825 0.00427592 0.0218723 0.0043482 0.015488 0.00419349 0.0251731 0.00434658 0.020975 0.00630433 0.0296667 0.00542445 0.0264393 0.00819127 0.0332602
3 2 Si -0.257935 3.96038 48.0876 2.4 1 0.222961 0.054015 0.0113453 0.0124021 0.00226143 0.00918617 0.00361254 0.0200353 0.0059656 0.0173636 0.00463762 0.0249824 0.00546576 0.0205871 0.00611041 0.0270254 0.00719947 0.0250239 0.00816397 0.0326305
4 3 O -0.335812 5.46814 47.6264 -1.2 1 0.230138 0.0537765 0.0132607 0.0133973 0.00335286 0.0103497 0.00437943 0.020651 0.00641697 0.0181876 0.00488502 0.0253298 0.00481081 0.0212151 0.00616341 0.0271841 0.00742426 0.0259914 0.00903883 0.0312255
5 3 O -2.03793 3.43377 51.8941 -1.2 1 0.129189 0.0403864 0.00220313 0.00667128 0.00207451 0.00681295 0.00284811 0.0203647 0.00257773 0.0121713 0.0031255 0.0249368 0.00364478 0.018165 0.00461436 0.0291677 0.00518158 0.0235349 0.00775488 0.0364434
6 3 O -1.54015 3.53929 48.9521 -1.2 1 0.200944 0.0521085 0.0085013 0.0106089 0.00213239 0.00791571 0.00354521 0.0201921 0.0050564 0.0157272 0.00450915 0.0243714 0.00455935 0.0202383 0.00636388 0.0276849 0.00588828 0.024145 0.00828748 0.0325532
7 1 Mg 1.82954 2.54582 47.1376 1.2 1 0.245779 0.0530553 0.0156382 0.0154716 0.00306292 0.0108911 0.00353612 0.0198286 0.00550079 0.0164125 0.00534514 0.0246545 0.00674705 0.0197527 0.00788588 0.0253702 0.00626644 0.0233724 0.00808327 0.0309849
8 3 O 1.22989 3.66364 48.7877 -1.2 1 0.20408 0.0505737 0.00910796 0.0116187 0.00227261 0.00912105 0.00422162 0.0201435 0.00399097 0.0154478 0.00395266 0.024301 0.00504939 0.0197766 0.00679435 0.0270605 0.00476453 0.0241759 0.00846093 0.0332425
9 1 Mg 0.94362 2.25077 54.7975 1.2 1 0.0674153 0.028142 0.00504406 0.00483686 0.00179692 0.00489043 0.00245916 0.0208568 0.00260079 0.00998231 0.00279875 0.0255043 0.00351327 0.0189822 0.00400702 0.0307711 0.00353224 0.0233296 0.00669668 0.0410646
10 2 Si 1.07661 4.93743 56.5933 2.4 1 0.0344249 0.0179069 0.00577798 0.00542047 0.00163563 0.00618664 0.00198875 0.0204901 0.00225344 0.00902456 0.00277888 0.02474 0.00344687 0.0184837 0.00342337 0.030631 0.00361344 0.0238761 0.00662499 0.0430968
11 3 O 0.960685 3.40586 56.5885 -1.2 1 0.0347188 0.0179098 0.00577993 0.00507201 0.00132896 0.00575436 0.0017566 0.0206651 0.00255766 0.00878869 0.00197171 0.0256285 0.00329981 0.0179117 0.00328152 0.0306273 0.00423456 0.0236894 0.00601903 0.0431906
12 3 O 1.10813 6.07342 52.8172 -1.2 1 0.10746 0.0359059 0.00224421 0.00650586 0.00208751 0.00671775 0.00348936 0.0213448 0.0031733 0.0120602 0.00305726 0.0252803 0.00401262 0.019078 0.00542228 0.0301384 0.00429679 0.0249396 0.00719596 0.0366178
13 3 O -0.0480788 5.72534 55.7369 -1.2 1 0.0491936 0.0231459 0.00617098 0.00486116 0.00161535 0.00522869 0.0023131 0.0203562 0.00222192 0.0101227 0.00252061 0.0250649 0.00315084 0.0187141 0.00447882 0.031709 0.00324487 0.0241127 0.00623067 0.0411906
14 3 O 2.33439 5.62808 55.8783 -1.2 1 0.0443791 0.021496 0.00664533 0.00497995 0.00124889 0.00568082 0.00208075 0.0207396 0.00180529 0.00946509 0.00251309 0.0251356 0.00308415 0.0185385 0.00432841 0.0321106 0.00318687 0.0248478 0.00675652 0.0411638
15 1 Mg -0.459401 4.67631 52.2426 1.2 1 0.123882 0.0400623 0.00170522 0.00672854 0.00235744 0.00622003 0.00268215 0.0209243 0.00290982 0.0130132 0.00282366 0.0256729 0.00383231 0.0188994 0.00431451 0.0293824 0.00452201 0.0239695 0.00680458 0.035113
16 1 Mg 2.79456 3.9971 49.9987 1.2 1 0.173911 0.0492551 0.00500132 0.00954536 0.00254291 0.00756669 0.0040498 0.0204826 0.0035836 0.0153895 0.00265412 0.0247994 0.00426734 0.0206521 0.00645296 0.0281839 0.00467744 0.0247825 0.00875551 0.0334626
17 2 Si 1.16169 6.59457 51.2556 2.4 1 0.145659 0.0452824 0.00185019 0.00868913 0.0026604 0.00801493 0.00377246 0.0212282 0.00382349 0.014162 0.00374498 0.0243896 0.00421994 0.0210442 0.00612107 0.0303031 0.00431905 0.0261529 0.00818448 0.0346634
18 3 O 1.28989 8.18905 51.2909 -1.2 1 0.14517 0.0449375 0.00207211 0.00874138 0.00273602 0.00868963 0.00395045 0.0214565 0.00389088 0.0142181 0.0033261 0.0261506 0.00399516 0.0213742 0.0052437 0.0304584 0.00554544 0.0265856 0.0077059 0.0356305
19 3 O 0.985245 5.6186 58.047 -1.2 1 0.0199617 0.0109859 0.00398951 0.00494287 0.00157172 0.00646435 0.00135844 0.0205841 0.00192203 0.00922438 0.00254374 0.0249197 0.00294428 0.0182325 0.00357413 0.0316153 0.00270749 0.0245432 0.00493621 0.0429492
20 3 O -0.184847 6.06029 50.6845 -1.2 1 0.161965 0.0459875 0.00459696 0.00880148 0.00317643 0.00758619 0.00406155 0.0210896 0.00465763 0.0150541 0.00310575 0.0245914 0.00402012 0.0211321 0.00551631 0.0286376 0.00489421 0.0256685 0.00770505 0.0342092
21 1 Mg -3.49704 4.67769 52.6661 1.2 1 0.115994 0.0379483 0.00159989 0.00636614 0.00220498 0.00693245 0.00313658 0.0204849 0.00313538 0.0120308 0.00310622 0.0252127 0.0037894 0.0184451 0.00446766 0.0291949 0.00387672 0.0237513 0.00732138 0.0363198
22 3 O 2.48581 5.93312 50.6539 -1.2 1 0.156293 0.0469464 0.00355999 0.00815017 0.00197234 0.00838625 0.00404702 0.0210983 0.00385124 0.0147115 0.00359564 0.024423 0.0045017 0.0210236 0.00583482 0.0296673 0.00416243 0.0256449 0.00818143 0.034387
23 1 Mg -1.88805 4.77876 55.3642 1.2 1 0.0524413 0.0244883 0.0064159 0.00476285 0.00188147 0.00579642 0.00190602 0.0208448 0.00238409 0.00994592 0.00273551 0.0262305 0.00310374 0.0187576 0.00496106 0.0311664 0.00401338 0.0240859 0.00684067 0.040501
24 2 Si -2.02083 2.62911 53.2932 2.4 1 0.101871 0.0355513 0.0029654 0.00577097 0.00264355 0.00528086 0.00221136 0.0204335 0.00263264 0.0111339 0.00277762 0.0249246 0.00324198 0.0183347 0.00403367 0.0297316 0.00491697 0.0232813 0.00710726 0.0388858
25 3 O -2.04136 1.11062 53.1126 -1.2 1 0.103212 0.0362107 0.00278425 0.00631893 0.00275408 0.00553399 0.00253708 0.020779 0.00267744 0.0107301 0.00292336 0.025627 0.00361736 0.0186512 0.00476559 0.0296511 0.00447643 0.0232228 0.00729851 0.0392137
26 3 O -0.0467762 2.97103 46.8385 -1.2 1 0.255136 0.0549918 0.0168878 0.0153242 0.00279735 0.00999788 0.00417944 0.0200323 0.0064655 0.0175381 0.00612813 0.0246178 0.00753736 0.018892 0.00921058 0.0255822 0.00649669 0.024162 0.00941098 0.0321295
27 3 O -3.25208 3.20682 54.1787 -1.2 1 0.0785646 0.0306383 0.00421288 0.00463301 0.00218478 0.00556758 0.00159913 0.020433 0.00215287 0.0105504 0.00214994 0.0246665 0.00288304 0.0186043 0.00388604 0.0302543 0.00399731 0.0232393 0.00680097 0.0391101
28 3 O -0.696229 3.19792 54.151 -1.2 1 0.0826304 0.0314285 0.00420695 0.00480368 0.00225194 0.00567023 0.00157204 0.0210789 0.00213198 0.0107214 0.00259791 0.025137 0.00302239 0.0189258 0.00402259 0.0304155 0.00354402 0.0237872 0.00686887 0.0390624
29 1 Mg -3.1051 11.7059 57.144 1.2 1 0.0262211 0.0156449 0.00490764 0.00546681 0.00136747 0.00620123 0.00124197 0.020665 0.00202811 0.00964871 0.00145649 0.0262185 0.00191235 0.019367 0.00313679 0.0312356 0.00322142 0.0241613 0.00445858 0.0419558
30 1 Mg -1.75014 11.5838 49.8362 1.2 1 0.18122 0.0483786 0.00691699 0.0119423 0.00387922 0.0125602 0.00461398 0.0232985 0.00552203 0.0166842 0.00475082 0.0276466 0.00430672 0.0241026 0.00648949 0.0317736 0.00613095 0.0294574 0.00817903 0.0355558
31 2 Si -1.18003 9.02138 47.9309 2.4 1 0.238043 0.0534587 0.0150993 0.01531 0.00501332 0.0133947 0.00774344 0.0225317 0.00786767 0.0179703 0.00706128 0.0260878 0.00494881 0.0230545 0.00706105 0.0296677 0.00859002 0.0291165 0.0113407 0.0337635
32 3 O -1.23224 10.5991 47.9811 -1.2 1 0.228119 0.0542877 0.0130453 0.0159002 0.00519365 0.0143914 0.00648477 0.0236783 0.00789087 0.0179669 0.00709531 0.0272369 0.00513141 0.0242307 0.00814166 0.0317265 0.00904942 0.0314079 0.00999464 0.0343661
33 3 O -1.79016 8.01447 51.8693 -1.2 1 0.131608 0.0408687 0.0014709 0.00827566 0.00364586 0.00747565 0.00299798 0.0212822 0.00362468 0.0135208 0.00358956 0.0259808 0.00353181 0.0207096 0.00482251 0.0309269 0.00508215 0.0254384 0.00752143 0.0359171
34 3 O -2.30986 8.37215 48.8528 -1.2 1 0.200924 0.0531256 0.00840729 0.0120042 0.00422271 0.0104819 0.00603379 0.0227829 0.00581165 0.0176716 0.00454779 0.026158 0.00394345 0.0232167 0.00617477 0.0309755 0.00674303 0.0286853 0.0086916 0.0333131
35 1 Mg 0.154883 7.08234 46.8007 1.2 1 0.257691 0.0544933 0.0181214 0.0160853 0.00529159 0.0135591 0.00871174 0.0234025 0.00749881 0.0185205 0.00690282 0.0250501 0.00742964 0.0216065 0.00866217 0.0286524 0.00898392 0.0288429 0.012489 0.0313087
36 3 O 0.325447 8.50934 48.3809 -1.2 1 0.214897 0.0542668 0.0107149 0.0137167 0.0039302 0.0119754 0.00628428 0.0231852 0.00633521 0.0176694 0.00552224 0.025627 0.00532499 0.0241657 0.00603617 0.0298422 0.00716217 0.0291775 0.00990834 0.0332935
37 1 Mg 0.991943 6.98202 54.7569 1.2 1 0.0655567 0.0285165 0.00512524 0.00539136 0.00182066 0.00542727 0.00237473 0.0208338 0.00284919 0.0105063 0.0027998 0.0255402 0.00376198 0.019002 0.00419373 0.031976 0.00364491 0.0239799 0.00676969 0.0393354
38 2 Si 1.04884 9.57618 56.6188 2.4 1 0.0353841 0.0188812 0.00565233 0.00629159 0.00132121 0.00578794 0.00212595 0.0207057 0.00214225 0.00983773 0.0027977 0.0246994 0.00273438 0.0196524 0.00365252 0.0313931 0.00343877 0.0241646 0.00663026 0.0425155
39 3 O 0.89013 8.0357 56.7502 -1.2 1 0.0321148 0.0168347 0.00579886 0.00530735 0.00145018 0.00606033 0.00167526 0.0205039 0.00281753 0.00920361 0.00261817 0.0254086 0.00392149 0.018261 0.00316217 0.0322105 0.00421803 0.0240722 0.00627161 0.0413983
40 3 O 1.28624 10.7248 52.7351 -1.2 1 0.113173 0.0381988 0.0013648 0.00735688 0.00227028 0.00914444 0.00313241 0.0219833 0.00338448 0.0128752 0.00330581 0.0261842 0.00465203 0.0213522 0.0047271 0.0313007 0.00403728 0.026439 0.00682917 0.0369072
41 3 O -0.185299 10.2926 55.9058 -1.2 1 0.0462634 0.0229549 0.00509604 0.00550006 0.00155315 0.00606305 0.00208823 0.0214566 0.00146122 0.0103192 0.00295311 0.025537 0.00308012 0.0202562 0.00400389 0.0322461 0.00321074 0.0250045 0.00628443 0.0413751
42 3 O 2.37427 10.2044 55.7356 -1.2 1 0.0477044 0.0241753 0.00617924 0.00571474 0.00111874 0.00597688 0.00243188 0.0208074 0.002172 0.0102693 0.00264161 0.0256994 0.00319802 0.0198449 0.00391304 0.0324963 0.00297908 0.0250626 0.00605723 0.0407603
43 1 Mg -0.262694 9.34741 52.2523 1.2 1 0.113104 0.0398495 0.00237247 0.0079319 0.00254044 0.00753685 0.00256755 0.0219511 0.00297052 0.0128897 0.00318629 0.0266485 0.00359585 0.020809 0.00544617 0.0316396 0.0041477 0.0264895 0.00708378 0.036062
44 1 Mg 1.87648 9.01537 49.4629 1.2 1 0.184197 0.0537085 0.00535833 0.0109545 0.0032479 0.0108153 0.006262 0.0229107 0.0051964 0.0170795 0.00451831 0.0265179 0.00497881 0.0240266 0.00634017 0.031062 0.00574128 0.0292954 0.00911075 0.0345208
45 2 Si 1.21415 11.3799 51.2378 2.4 1 0.145162 0.0463543 0.00202252 0.00959429 0.00258025 0.0109449 0.00355354 0.0231637 0.00454782 0.0150184 0.00423633 0.0259297 0.00458863 0.0240843 0.00553181 0.031487 0.00444439 0.0286713 0.0077988 0.0368404
46 3 O 1.31634 12.9512 51.3023 -1.2 1 0.148848 0.0459306 0.00342361 0.00924389 0.00231066 0.0114672 0.00349491 0.0232193 0.00460209 0.0154603 0.00319347 0.0274115 0.00398432 0.0250323 0.00471896 0.0321562 0.00496746 0.0292953 0.00730133 0.037863
47 3 O 1.13852 10.3646 57.9383 -1.2 1 0.0203863 0.0121782 0.00344084 0.00538093 0.00123125 0.00629171 0.00144244 0.021054 0.00186955 0.00940091 0.00269821 0.0254857 0.00211271 0.0187159 0.00294268 0.0314013 0.00313682 0.0239451 0.00437132 0.0423457
48 3 O -0.115718 10.7564 50.681 -1.2 1 0.156301 0.0475144 0.00305112 0.0102955 0.00321343 0.0105275 0.00373769 0.0231223 0.00462816 0.015343 0.0033669 0.0265544 0.00461593 0.0239443 0.00542432 0.0307384 0.00487075 0.0282751 0.00811745 0.0360299
49 1 Mg -3.26386 9.35564 52.3622 1.2 1 0.121231 0.0394252 0.00125396 0.00733788 0.00278209 0.00932269 0.00340956 0.0214828 0.00343391 0.0133348 0.00321987 0.0259237 0.00339926 0.0211838 0.00453638 0.0315714 0.00427901 0.0260693 0.00721723 0.0354777
50 3 O 2.45216 10.7265 50.4558 -1.2 1 0.161402 0.0487013 0.0037635 0.00951672 0.00265616 0.0114289 0.00452199 0.0224523 0.00479272 0.016235 0.00376125 0.0263008 0.0039449 0.0241557 0.00586642 0.0316027 0.00503332 0.0285323 0.00780594 0.0357515
51 1 Mg -1.73406 9.51766 55.0695 1.2 1 0.0584467 0.0273729 0.00563621 0.00590655 0.00227683 0.00629418 0.00246615 0.0208642 0.00258598 0.0106639 0.00292159 0.0260787 0.00337932 0.0205038 0.00397461 0.0322347 0.00425441 0.024758 0.00620894 0.0401381
52 2 Si -1.89905 7.40979 53.3607 2.4 1 0.0969235 0.0359376 0.0032654 0.00674949 0.00362486 0.00598362 0.00252477 0.0201613 0.00315854 0.0120706 0.00306547 0.0255954 0.0031397 0.0199286 0.00400496 0.0312165 0.00515375 0.0241625 0.00653707 0.0371835
53 3 O -1.84274 5.77787 53.3564 -1.2 1 0.0983163 0.0339438 0.00234179 0.00570668 0.00282254 0.0063042 0.00222403 0.0202218 0.00301091 0.0110685 0.00309387 0.0253383 0.00328773 0.018874 0.00428323 0.0309855 0.00392384 0.0239671 0.00714589 0.0370981
54 3 O -1.19417 8.46968 46.4488 -1.2 1 0.267625 0.0546181 0.0206447 0.0176169 0.00541838 0.0143366 0.00892407 0.0240641 0.00817584 0.018259 0.00740114 0.0255544 0.00638083 0.0212705 0.00937435 0.029946 0.00994714 0.0305844 0.0117248 0.0312793
55 3 O -3.13145 8.04175 53.9501 -1.2 1 0.086862 0.0318839 0.00282067 0.00560891 0.00265129 0.00746135 0.00246365 0.0208071 0.00293917 0.0116134 0.00238831 0.0246648 0.00334219 0.0199713 0.00376663 0.0313506 0.00456512 0.0244087 0.00664239 0.037443
56 3 O -0.615703 8.05518 54.0694 -1.2 1 0.077638 0.0310834 0.00448314 0.00559882 0.00264895 0.00580872 0.0019324 0.0214342 0.00224633 0.0112763 0.00249817 0.0256086 0.00315115 0.0198196 0.00366389 0.0319028 0.00399484 0.0250281 0.00654445 0.0384647
57 1 Mg -3.19486 16.5922 57.5716 1.2 1 0.0207446 0.0140399 0.00422833 0.0051016 0.00158931 0.00575037 0.00149935 0.0218303 0.00225083 0.00900292 0.0024656 0.0258291 0.00157066 0.0191467 0.00214208 0.0316094 0.00307882 0.025343 0.00372897 0.0446309
58 1 Mg -1.6714 16.3544 49.8412 1.2 1 0.17896 0.0482135 0.00666754 0.0127739 0.00313319 0.0150847 0.00278872 0.0250255 0.00504503 0.0175435 0.00410742 0.0301046 0.00341996 0.0260042 0.00646555 0.0331809 0.00548826 0.0313099 0.00809612 0.0389411
59 2 Si -1.18567 13.8526 47.9314 2.4 1 0.231309 0.0550901 0.0147889 0.016799 0.00441387 0.0186723 0.00475298 0.0260651 0.00871455 0.0199303 0.0058078 0.0300552 0.0053448 0.028704 0.00651616 0.0336503 0.0092901 0.0335539 0.0103169 0.0374365
60 3 O -1.09664 15.4205 47.9915 -1.2 1 0.230668 0.053748 0.0145259 0.0171233 0.00477418 0.0196724 0.00430601 0.0266786 0.00788918 0.0200602 0.00585953 0.030416 0.00533351 0.0282147 0.00773021 0.0343913 0.00798879 0.0344739 0.00961039 0.0380969
61 3 O -1.73493 12.7491 51.7772 -1.2 1 0.134478 0.0421732 0.00241656 0.00933089 0.00270687 0.0100116 0.00170661 0.023363 0.00423259 0.0145621 0.0030097 0.0273163 0.0040985 0.023717 0.00481627 0.0313764 0.00497306 0.0277241 0.00676226 0.0380648
62 3 O -2.36115 13.2717 48.8238 -1.2 1 0.201506 0.0532707 0.00920804 0.0138179 0.00423139 0.0145826 0.00464169 0.02567 0.00635216 0.0193518 0.00476044 0.0292518 0.00398969 0.0267873 0.00567203 0.0334011 0.00741622 0.0323351 0.00858459 0.0364515
63 1 Mg -0.159928 11.7639 46.8533 1.2 1 0.257657 0.0550669 0.0188328 0.0187871 0.00596211 0.020396 0.00747769 0.0272277 0.00955986 0.0199945 0.00772084 0.0297092 0.00648102 0.0273681 0.00849389 0.0328588 0.0102877 0.0344831 0.0125058 0.0352246
64 3 O 0.2623 13.1866 48.413 -1.2 1 0.214587 0.0550034 0.0112834 0.0152766 0.00398611 0.0167741 0.00436016 0.0257954 0.00788364 0.0191129 0.00486961 0.0288865 0.00508555 0.0286215 0.00530184 0.0328036 0.00855389 0.0338405 0.00919411 0.0373989
65 1 Mg 1.40142 11.7943 54.5364 1.2 1 0.0761366 0.0315716 0.00314945 0.00543588 0.00200061 0.00754482 0.00280242 0.0215344 0.00237395 0.0116237 0.00254989 0.0261909 0.00322397 0.0217783 0.00362818 0.0323786 0.00374821 0.0254653 0.00518957 0.03913
66 2 Si 1.38425 14.5027 56.4709 2.4 1 0.0328404 0.0184922 0.005109 0.00615907 0.00176294 0.00549198 0.00181367 0.0213943 0.00187458 0.00927389 0.00321241 0.0252906 0.00229585 0.0201044 0.00383567 0.0321113 0.00328214 0.0243385 0.00521559 0.0445574
67 3 O 1.48395 12.9468 56.5157 -1.2 1 0.0338938 0.0192559 0.00504942 0.00578061 0.00125074 0.00564959 0.00186475 0.0207921 0.00305674 0.00943019 0.0019799 0.0255145 0.00299634 0.0196737 0.00306343 0.032024 0.00379463 0.0243784 0.00465636 0.0429078
68 3 O 1.36565 15.4813 52.729 -1.2 1 0.111729 0.0377064 0.00119926 0.00746503 0.00160606 0.010589 0.00325242 0.0229969 0.00319027 0.0134027 0.00308003 0.0271787 0.00395845 0.022683 0.00434151 0.0320298 0.00405406 0.0278184 0.00659838 0.0401717
69 3 O 0.159875 15.0051 55.7989 -1.2 1 0.0490683 0.0241023 0.00459628 0.00566814 0.00106151 0.0064022 0.00228111 0.0218513 0.00163194 0.010171 0.00257162 0.025399 0.00246554 0.0207534 0.00354208 0.0330259 0.0031373 0.0258745 0.00497531 0.043286
70 3 O 2.7291 15.2124 55.7985 -1.2 1 0.0432725 0.0237298 0.00620091 0.00576072 0.00142943 0.00594179 0.00291119 0.0223253 0.00177373 0.00972194 0.003399 0.0252914 0.0026462 0.020987 0.00378784 0.0329588 0.00303769 0.0260777 0.00621443 0.0442487
71 1 Mg -0.206989 14.1049 52.2121 1.2 1 0.117255 0.0417139 0.0014724 0.00833209 0.00249774 0.00906539 0.0021698 0.0233105 0.00314163 0.0140444 0.00314655 0.027712 0.003462 0.0235041 0.00411158 0.0320938 0.00422573 0.0282419 0.00689225 0.0383956
72 1 Mg 1.82591 13.8102 49.4556 1.2 1 0.183468 0.0535565 0.00581434 0.0118303 0.00281122 0.0138558 0.0046524 0.0245662 0.00522992 0.0186274 0.00400957 0.0283684 0.00462106 0.0272265 0.00578107 0.0335795 0.00552949 0.0317808 0.00830429 0.0370765
73 2 Si 1.29285 16.1518 51.2434 2.4 1 0.14632 0.0466692 0.00205608 0.0102262 0.00193525 0.0124565 0.00328096 0.0242982 0.00422521 0.0158927 0.00437938 0.0276 0.00385195 0.0256856 0.00591158 0.0321989 0.00421566 0.0305583 0.00808124 0.0399872
74 3 O 1.39496 17.7199 51.3047 -1.2 1 0.144535 0.0444572 0.00272439 0.00934237 0.00138251 0.0124679 0.00307319 0.0239256 0.00389883 0.0154123 0.00301788 0.0283505 0.00392662 0.0251401 0.00435998 0.0328482 0.00507668 0.0299506 0.00727171 0.0409318
75 3 O 1.45345 15.1883 57.8969 -1.2 1 0.0175399 0.0124318 0.00381227 0.00528495 0.00142548 0.00623214 0.00178806 0.0221741 0.0018805 0.0090183 0.00260471 0.0254258 0.00201913 0.0195143 0.00306358 0.031477 0.00301888 0.0246786 0.00419367 0.0441206
76 3 O -0.0269106 15.5178 50.6688 -1.2 1 0.158124 0.047673 0.00416996 0.0110397 0.00299168 0.0129404 0.00345901 0.0246622 0.0043954 0.0162383 0.00274729 0.0281447 0.00431315 0.0265063 0.00548537 0.0322158 0.00442661 0.030848 0.00748823 0.0389961
77 1 Mg -3.18391 14.1057 52.3125 1.2 1 0.123029 0.0408723 0.00154804 0.00802179 0.00180519 0.0108152 0.002294 0.022965 0.00385198 0.0142964 0.00320493 0.0275314 0.00349515 0.02384 0.00424129 0.0316951 0.00443761 0.0278714 0.00625126 0.038284
78 3 O 2.52432 15.503 50.4579 -1.2 1 0.160585 0.0490093 0.00398277 0.0104495 0.00237586 0.0133483 0.00356642 0.0243223 0.00500903 0.0174206 0.00307018 0.0283321 0.00367983 0.0264531 0.0056946 0.0326679 0.00494668 0.0303746 0.00717441 0.0386974
79 1 Mg -1.72123 14.0885 55.3389 1.2 1 0.0504604 0.0259431 0.00548807 0.005861 0.00158613 0.00581994 0.00217231 0.0221352 0.00254161 0.0104301 0.00262928 0.0264775 0.00245675 0.0214699 0.00369177 0.0325598 0.00396301 0.0253035 0.00561014 0.042918
80 2 Si -1.77466 12.0776 53.1685 2.4 1 0.103435 0.0379483 0.00244274 0.00763853 0.00264383 0.00817138 0.00193967 0.0219812 0.00395757 0.0132254 0.00286133 0.0263689 0.00360572 0.022889 0.00388872 0.0321949 0.00497977 0.0264814 0.00587842 0.0389512
81 3 O -1.92246 10.5932 53.1457 -1.2 1 0.100484 0.0358986 0.00286098 0.00723427 0.00290646 0.00783908 0.00181328 0.0210141 0.00335331 0.0119144 0.00326325 0.0261027 0.00362892 0.0208016 0.00470963 0.0321023 0.00433614 0.0253964 0.00687837 0.0381002
82 3 O -1.21337 13.3381 46.4311 -1.2 1 0.269302 0.0546868 0.021447 0.0202257 0.00671288 0.021129 0.0073381 0.0293175 0.00954016 0.0208718 0.00697383 0.030807 0.00541435 0.0271634 0.00881088 0.0348951 0.0117422 0.0365193 0.0126092 0.0355473
83 3 O -2.96104 12.7846 53.9683 -1.2 1 0.0836741 0.0328735 0.00271768 0.00566293 0.00174356 0.00828831 0.00164706 0.0220075 0.00253975 0.0120753 0.00198126 0.026081 0.00292514 0.0219543 0.00354083 0.0325019 0.0033624 0.0258539 0.00538944 0.0399499
84 3 O -0.507989 12.5875 53.9797 -1.2 1 0.0791793 0.0328692 0.00329854 0.00634042 0.00205382 0.00620914 0.00159511 0.0222054 0.0027292 0.0118605 0.00278439 0.0259218 0.00265475 0.0222232 0.00394982 0.0326217 0.00313271 0.0263302 0.00573465 0.0397758
85 1 Mg -2.79368 21.1566 57.3962 1.2 1 0.0208935 0.0150974 0.0043232 0.00499853 0.00107679 0.0062366 0.00180526 0.0209355 0.001899 0.00901967 0.00175969 0.0246238 0.00152255 0.0196433 0.0018557 0.0315627 0.00310323 0.0255718 0.00397433 0.0447671
86 1 Mg -1.5831 21.1217 49.8405 1.2 1 0.179393 0.0481842 0.00687642 0.0127891 0.00279152 0.0152987 0.00277182 0.0261685 0.00399085 0.0176069 0.00372192 0.0303179 0.00380826 0.0257629 0.00574755 0.0346541 0.00562276 0.0313341 0.00843934 0.0405112
87 2 Si -1.09384 18.6291 47.9287 2.4 1 0.231586 0.054473 0.0146057 0.0171582 0.00335579 0.0206044 0.00395511 0.027906 0.00758109 0.0203476 0.00519867 0.0316803 0.00553288 0.0293251 0.00632944 0.0353173 0.00870724 0.034283 0.010159 0.0404742
88 3 O -1.02071 20.1985 47.9911 -1.2 1 0.231651 0.053171 0.01421 0.0176686 0.00394298 0.0207263 0.00456682 0.0281954 0.00678748 0.0203232 0.00556163 0.0313203 0.00561837 0.0280764 0.00785765 0.035663 0.0072248 0.0345107 0.00977986 0.0402389
89 3 O -1.65002 17.5002 51.771 -1.2 1 0.135097 0.0416428 0.00213105 0.00968572 0.00273348 0.0116677 0.00159896 0.023731 0.00320353 0.0143067 0.00244713 0.0280487 0.00383826 0.0239219 0.00453225 0.0323619 0.00519896 0.0285306 0.00722331 0.0406808
90 3 O -2.26174 18.0434 48.8281 -1.2 1 0.201444 0.0530627 0.00911608 0.0143812 0.00329541 0.0169601 0.00371538 0.0271386 0.00580723 0.0198346 0.00400801 0.0307713 0.00397459 0.0276663 0.00586384 0.0344728 0.00675446 0.0334753 0.00847094 0.0394609
91 1 Mg -0.0440435 16.5651 46.8269 1.2 1 0.255547 0.0558542 0.0183342 0.0197831 0.00465521 0.0245111 0.00491793 0.0304511 0.00921216 0.0223675 0.00601268 0.0332296 0.00647242 0.0296337 0.00789175 0.0346054 0.00905942 0.0371862 0.0113745 0.0393981
92 3 O 0.37001 17.9877 48.3925 -1.2 1 0.214656 0.0545198 0.0109929 0.0157986 0.00322327 0.0183738 0.00342047 0.0278314 0.0064997 0.0200827 0.00380367 0.0306239 0.00449074 0.029505 0.00566981 0.0342605 0.0073474 0.035369 0.00902269 0.0405042
93 1 Mg 1.52309 16.4903 54.6575 1.2 1 0.0711799 0.0305207 0.00396207 0.00566148 0.00146098 0.00744038 0.00273687 0.0215992 0.00267352 0.0111264 0.00295521 0.0264263 0.00318397 0.0225636 0.00330007 0.0328614 0.00417041 0.026004 0.00553036 0.042672
94 2 Si 1.52244 19.139 56.3379 2.4 1 0.0345127 0.0201512 0.00508805 0.00569201 0.00139668 0.00637173 0.00197034 0.0213131 0.00216478 0.0086462 0.00323426 0.0244677 0.00182359 0.0204278 0.00311353 0.0320185 0.0035465 0.0255674 0.00537222 0.0456048
95 3 O 1.36943 17.6436 56.361 -1.2 1 0.0373658 0.0205493 0.00558745 0.0056918 0.00128437 0.0058182 0.00181901 0.0213678 0.00303887 0.00872262 0.00206308 0.0247276 0.00279234 0.0201052 0.00262943 0.0322943 0.0039653 0.0254109 0.00485959 0.0451761
96 3 O 1.45147 20.239 52.7294 -1.2 1 0.110158 0.0376072 0.0010192 0.00751399 0.00113479 0.0108281 0.0032191 0.0231757 0.00282289 0.0130067 0.00281555 0.0266559 0.00365015 0.0227335 0.00439199 0.0327533 0.00375868 0.0283535 0.00637275 0.0424598
97 3 O 0.254145 19.8736 55.6632 -1.2 1 0.0504926 0.0244931 0.0040027 0.00528942 0.00113092 0.00687389 0.00221565 0.0216869 0.00172628 0.00990506 0.00230735 0.0243481 0.00217316 0.0211449 0.00315175 0.0326198 0.00329924 0.0265289 0.00509949 0.0442719
98 3 O 2.86875 19.8163 55.6432 -1.2 1 0.0453715 0.0244792 0.00541748 0.00543271 0.00145759 0.00650059 0.00301529 0.0219232 0.0017694 0.00960545 0.00298256 0.024393 0.00193637 0.0208257 0.00383543 0.0325182 0.00371754 0.0267257 0.00620095 0.0450481
99 1 Mg -0.126194 18.8651 52.2079 1.2 1 0.117272 0.0415597 0.00134531 0.00848208 0.00208368 0.00954793 0.00252964 0.0236648 0.00243597 0.0138977 0.00290525 0.0275522 0.00335994 0.0237209 0.0044724 0.0328625 0.00421352 0.0288123 0.00699244 0.0412595
100 1 Mg 1.92402 18.5815 49.4545 1.2 1 0.184884 0.0536132 0.00553157 0.0121229 0.00171949 0.0151261 0.00412369 0.0260749 0.00460654 0.0191301 0.00394791 0.0299313 0.00411322 0.0274159 0.0051444 0.034837 0.00569921 0.0332109 0.00865817 0.0404482
101 2 Si 1.38106 20.9117 51.2443 2.4 1 0.146363 0.0467648 0.00198283 0.0103206 0.00184776 0.0127239 0.00389334 0.0249489 0.0033347 0.0157579 0.00409659 0.027674 0.00435994 0.0254268 0.00562513 0.0335242 0.00410155 0.0311047 0.00846009 0.0423996
102 3 O 1.48527 22.4795 51.3054 -1.2 1 0.143771 0.043698 0.00283964 0.00936845 0.00167457 0.0122196 0.00322562 0.0242542 0.00335798 0.0147752 0.00273539 0.0280705 0.00375488 0.0243316 0.00390379 0.0338821 0.00480134 0.0301493 0.00729547 0.0421552
103 3 O 1.51392 19.7343 57.8738 -1.2 1 0.0157038 0.0124336 0.00332933 0.00490006 0.00142368 0.00610191 0.00182557 0.0212242 0.00215783 0.00857763 0.00227656 0.0242372 0.00201904 0.0194792 0.00196764 0.0313534 0.00317379 0.0251916 0.0041169 0.0453007
104 3 O 0.0615419 20.2804 50.6669 -1.2 1 0.156585 0.0468682 0.00383654 0.0110641 0.00299789 0.0131579 0.00345303 0.0251015 0.00386324 0.015758 0.00291157 0.0284599 0.00411627 0.0259082 0.00536649 0.033446 0.00404214 0.0307939 0.00782558 0.0418633
105 1 Mg -3.09665 18.8643 52.3122 1.2 1 0.123166 0.0412033 0.00125281 0.00815942 0.00160162 0.0113596 0.0023537 0.0235581 0.00278036 0.0142161 0.0024778 0.027455 0.00347598 0.0240623 0.00365078 0.0323951 0.004421 0.0285109 0.00640257 0.0410037
106 3 O 2.61548 20.2646 50.4626 -1.2 1 0.163702 0.0498194 0.00406427 0.0105546 0.00147896 0.0139593 0.0037869 0.025346 0.00399449 0.0177693 0.0034503 0.0288041 0.00383709 0.0266086 0.00517061 0.0342585 0.00477701 0.031262 0.00808981 0.0411901
107 1 Mg -1.54499 18.9601 54.9481 1.2 1 0.0581529 0.0284541 0.00468274 0.00610788 0.00191164 0.00658334 0.00266077 0.0224514 0.00251562 0.010391 0.00340848 0.025227 0.00264953 0.0216696 0.00418726 0.0323276 0.00469648 0.0266262 0.00594156 0.0439042
108 2 Si -1.70829 16.7811 53.1368 2.4 1 0.102063 0.0373004 0.00228061 0.00791989 0.00274226 0.0086943 0.00156751 0.0227988 0.00338225 0.0129929 0.00285214 0.0265728 0.00289751 0.0239902 0.00332654 0.0321986 0.00518241 0.0274634 0.00612295 0.0420684
109 3 O -1.73228 15.2293 53.1177 -1.2 1 0.0986881 0.0361253 0.0024122 0.00715549 0.00240565 0.00849784 0.0014964 0.0220629 0.00332813 0.0120054 0.00277292 0.0267816 0.00288128 0.0225409 0.00419245 0.03252 0.00391934 0.0267813 0.00673331 0.0414004
110 3 O -1.12868 18.1227 46.4249 -1.2 1 0.267966 0.0551304 0.0202229 0.0210118 0.00529926 0.0243547 0.00616313 0.0314384 0.00815094 0.0218151 0.00603811 0.033473 0.00622944 0.0277762 0.00883292 0.0367961 0.0105844 0.0378296 0.0117553 0.0393582
111 3 O -3.08974 17.4099 53.7511 -1.2 1 0.0902652 0.0349998 0.00239748 0.00622612 0.00176832 0.00897769 0.00193935 0.0224165 0.00219142 0.012154 0.00205093 0.026209 0.00280543 0.0231125 0.00285666 0.0324829 0.00396761 0.0273866 0.00566325 0.041745
112 3 O -0.528927 17.4673 53.906 -1.2 1 0.0820984 0.0335792 0.00360877 0.00660961 0.00278191 0.00673051 0.00188048 0.0226748 0.00280679 0.0113481 0.00321252 0.0256338 0.0023429 0.0229701 0.00403202 0.0327309 0.00440077 0.0274867 0.00627824 0.0418723
113 1 Mg -2.78239 25.9668 57.2597 1.2 1 0.0205044 0.0151558 0.00429922 0.00507698 0.0013499 0.00624698 0.00189302 0.0207719 0.00177157 0.00898605 0.00203852 0.0243698 0.00215899 0.019764 0.00257542 0.0319755 0.00351549 0.0255972 0.0044223 0.0436869
114 1 Mg -1.48778 25.88 49.8402 1.2 1 0.182902 0.0486785 0.00726502 0.0132388 0.00313087 0.0159965 0.00282517 0.0255549 0.00373821 0.0177544 0.0042255 0.0302446 0.00407478 0.0260438 0.00612324 0.0347069 0.00550537 0.0318273 0.00950238 0.0401776
115 2 Si -1.00491 23.3922 47.9274 2.4 1 0.23498 0.0538067 0.0148472 0.0180551 0.00389544 0.0214739 0.00430578 0.028479 0.00717675 0.0204103 0.00525084 0.0321447 0.00591324 0.02874 0.00691018 0.0357924 0.00849268 0.0341077 0.0108072 0.0407162
116 3 O -0.927602 24.9615 47.9909 -1.2 1 0.232678 0.0526079 0.0144335 0.0177615 0.00437202 0.021111 0.00434257 0.0281302 0.00625015 0.0203567 0.00557529 0.0312114 0.00559142 0.0279284 0.00788885 0.03583 0.00748974 0.0345525 0.0106995 0.0401324
117 3 O -1.55795 22.2588 51.7696 -1.2 1 0.134475 0.0415917 0.00239264 0.00963865 0.00274311 0.0115713 0.00207769 0.0238826 0.00258638 0.0142838 0.00225631 0.0276226 0.00404689 0.0240302 0.00421032 0.0335475 0.00489909 0.029193 0.00751265 0.0422433
118 3 O -2.17411 22.8111 48.8277 -1.2 1 0.205926 0.0531522 0.00939939 0.0148516 0.00302914 0.01755 0.00394344 0.0276339 0.00506698 0.0198776 0.00416172 0.0310788 0.00434324 0.0275961 0.00633723 0.0354972 0.00657573 0.033453 0.00941727 0.0401436
119 1 Mg 0.0423997 21.3296 46.8225 1.2 1 0.257456 0.0542737 0.0182447 0.0204087 0.00474634 0.0250809 0.00555769 0.0313853 0.00829694 0.0225591 0.00612363 0.0336481 0.0065048 0.0288771 0.00863446 0.0356071 0.00902415 0.0366705 0.011868 0.039893
120 3 O 0.458537 22.7495 48.3911 -1.2 1 0.213464 0.0529584 0.0108568 0.0156138 0.00344425 0.0184131 0.00325695 0.0276223 0.00543771 0.0198414 0.0035971 0.0305761 0.00499255 0.0288669 0.00594398 0.0349419 0.00723144 0.0348013 0.00969165 0.0408449