ITEM: TIMESTEP
53100
ITEM: NUMBER OF ATOMS
10500
ITEM: BOX BOUNDS xy xz yz pp pp pp
0	8.9688	2.9896
0	118.725	0
0	252.977	0
ITEM: ATOMS id type element xu yu zu q Q_1 Q_2 Q_3 Q_4 Q_5 Q_6 Q_7 Q_8 Q_9 Q_10 Q_11 Q_12 Q_13 Q_14 Q_15 Q_16 Q_17 Q_18 Q_19 Q_20 Q_21
1 1 Mg -3.55037 7.19576 57.6352 1.2 1 0.022234 0.0135219 0.00483017 0.00614945 0.00191404 0.00665462 0.00147755 0.0211422 0.00171929 0.0090504 0.00148091 0.0273906 0.00287843 0.0181061 0.00292053 0.0318507 0.00337491 0.0254992 0.00451509 0.0435419
2 1 Mg -1.82655 6.90154 50.0912 1.2 1 0.175008 0.0485935 0.00588739 0.0107824 0.0032848 0.00872924 0.00438801 0.0232566 0.00510886 0.0147683 0.00398763 0.0261595 0.00450213 0.0204055 0.00623782 0.0293228 0.0054528 0.0266919 0.00835664 0.0337507
3 2 Si -0.257935 3.96038 48.0876 2.4 1 0.221452 0.0546935 0.0112377 0.0130422 0.00245694 0.00903788 0.00385541 0.0205163 0.00577994 0.0166264 0.00416894 0.0248623 0.00466511 0.0194779 0.00626788 0.0271074 0.00662839 0.025401 0.0091074 0.032066
4 3 O -0.335812 5.46814 47.6264 -1.2 1 0.228675 0.0544324 0.012907 0.0142004 0.00331543 0.0101468 0.00476747 0.0212623 0.00670273 0.0173673 0.00433159 0.0255072 0.00434041 0.0202053 0.00569472 0.027373 0.00703267 0.0262701 0.0100015 0.0309162
5 3 O -2.03793 3.43377 51.8941 -1.2 1 0.127827 0.0419486 0.00174359 0.00774236 0.00176968 0.00649436 0.00318789 0.0201854 0.00253989 0.0110367 0.00276554 0.0248494 0.0030857 0.0168613 0.00482164 0.0288974 0.00500488 0.0242816 0.00732083 0.0367055
6 3 O -1.54015 3.53929 48.9521 -1.2 1 0.200974 0.0530744 0.00872055 0.0112973 0.00227953 0.00767666 0.0037622 0.0202732 0.00512729 0.0151389 0.00419077 0.024071 0.0037946 0.019594 0.00662843 0.0279574 0.00535618 0.0249472 0.00882196 0.0320952
7 1 Mg 1.82954 2.54582 47.1376 1.2 1 0.244518 0.0542721 0.0158915 0.0160977 0.00335642 0.0103934 0.0036744 0.0202435 0.00580108 0.0158085 0.00465348 0.0243537 0.00614555 0.0189697 0.00821876 0.0260177 0.00609398 0.023655 0.00915011 0.0305732
8 3 O 1.22989 3.66364 48.7877 -1.2 1 0.20152 0.0511766 0.00900392 0.0122192 0.0025953 0.00872225 0.0043059 0.0200923 0.00446673 0.0146481 0.0036504 0.0241069 0.00462721 0.019132 0.00675425 0.0274381 0.0042624 0.0245355 0.0088613 0.0331996
9 1 Mg 1.07585 2.6631 54.8467 1.2 1 0.0627193 0.0297858 0.00522593 0.00570889 0.00166597 0.00443881 0.00317435 0.0208102 0.00261013 0.00961231 0.00246113 0.0257271 0.0031596 0.0178546 0.00458629 0.0318342 0.00317465 0.0251766 0.00684825 0.0409179
10 2 Si 0.932651 5.14852 56.602 2.4 1 0.0322488 0.0189402 0.00580588 0.00682434 0.00155951 0.00654779 0.00263377 0.0209671 0.00179597 0.00905853 0.00311471 0.0253442 0.00278554 0.0179373 0.00503641 0.0314845 0.00363258 0.0256694 0.00594408 0.043976
11 3 O 0.848471 3.51774 56.7072 -1.2 1 0.0291908 0.0178447 0.00545141 0.00619277 0.00167494 0.00597275 0.00236202 0.0208206 0.00222637 0.00870369 0.0017114 0.0253946 0.00258544 0.0173992 0.00385181 0.032039 0.00337397 0.0263468 0.00487571 0.0434284
12 3 O 1.10813 6.07342 52.8172 -1.2 1 0.107062 0.0372262 0.00195148 0.00801017 0.00252079 0.0072991 0.00365061 0.0219958 0.00290874 0.0114568 0.0028815 0.0263411 0.00367585 0.0184256 0.0054209 0.0300155 0.00412232 0.0255488 0.00705339 0.0378372
13 3 O -0.325679 5.82556 55.8556 -1.2 1 0.0472168 0.0242308 0.00580417 0.00572958 0.00150035 0.00586361 0.00261123 0.0216508 0.0021542 0.00986071 0.00284684 0.0262736 0.00313711 0.018396 0.00492299 0.0317288 0.00388578 0.0260663 0.00595164 0.0427385
14 3 O 2.11995 5.91044 55.9428 -1.2 1 0.0413821 0.0227762 0.00629011 0.00599277 0.0014337 0.00593487 0.00273484 0.0212725 0.00145261 0.00942306 0.00256825 0.026428 0.0032852 0.0185367 0.00481244 0.0326644 0.00325881 0.0258203 0.00614213 0.0423442
15 1 Mg -0.459401 4.67631 52.2426 1.2 1 0.123829 0.0419003 0.00152223 0.00786679 0.00248929 0.0060754 0.00298388 0.0212673 0.00309908 0.0122657 0.00261489 0.0258989 0.00362459 0.0181822 0.00490098 0.029378 0.00435579 0.0247293 0.00701458 0.0357933
16 1 Mg 2.79456 3.9971 49.9987 1.2 1 0.174514 0.0508617 0.00517912 0.0105074 0.00271469 0.00729795 0.00470596 0.020932 0.00355839 0.0146216 0.0026108 0.0245612 0.00398377 0.0196749 0.00680976 0.0283945 0.00435182 0.0254427 0.00903311 0.0331852
17 2 Si 1.16169 6.59457 51.2556 2.4 1 0.144918 0.0456723 0.00167098 0.00966369 0.00287005 0.00797822 0.00446467 0.0225083 0.00403429 0.0136771 0.0042047 0.0259077 0.00413297 0.0200191 0.00733729 0.0300138 0.00460202 0.026203 0.0088722 0.0360274
18 3 O 1.28989 8.18905 51.2909 -1.2 1 0.146289 0.0453906 0.00177781 0.00968473 0.00277722 0.00919202 0.00447788 0.0232196 0.00455002 0.0136509 0.00355186 0.0276695 0.00439231 0.0208206 0.00531087 0.030506 0.00501134 0.0269186 0.008038 0.0369591
19 3 O 0.994739 5.88255 58.0101 -1.2 1 0.0187511 0.0115894 0.00396509 0.00601103 0.00143075 0.00690104 0.00140759 0.0215516 0.00118875 0.00890563 0.00239812 0.026157 0.00246454 0.0183073 0.00351672 0.032063 0.00301861 0.0264318 0.00475709 0.0449354
20 3 O -0.184847 6.06029 50.6845 -1.2 1 0.161636 0.0466878 0.00459268 0.0101615 0.00337876 0.0075779 0.00446852 0.0222273 0.00474534 0.0140319 0.00272518 0.0254489 0.00398787 0.0199997 0.0058902 0.0285289 0.00470196 0.0257756 0.00812293 0.0351059
21 1 Mg -3.49704 4.67769 52.6661 1.2 1 0.114253 0.0392333 0.00106042 0.00721538 0.0020964 0.00668748 0.00330387 0.0207728 0.00328233 0.0113317 0.00304423 0.0257807 0.00327102 0.0180011 0.00534232 0.0292331 0.00398528 0.0246213 0.00714167 0.0370915
22 3 O 2.48581 5.93312 50.6539 -1.2 1 0.156897 0.0477794 0.00343837 0.00906619 0.00217631 0.00848201 0.00463086 0.022008 0.00402646 0.0142555 0.00373681 0.0249655 0.00436089 0.020308 0.00650877 0.0297889 0.00429384 0.0260012 0.00851479 0.0350152
23 1 Mg -2.0575 4.66969 55.2514 1.2 1 0.0510111 0.0262701 0.00652779 0.00585189 0.00184057 0.00554647 0.00213303 0.0212495 0.00267853 0.00964816 0.00299944 0.0261123 0.00229575 0.0181029 0.00515083 0.0318221 0.00395716 0.0259761 0.00652167 0.0415396
24 2 Si -1.95915 2.65363 53.351 2.4 1 0.0975428 0.0363545 0.00229093 0.00625415 0.00224706 0.00544948 0.00250545 0.0203941 0.00236656 0.0103588 0.00288565 0.0243568 0.00266841 0.0176814 0.00426674 0.0300026 0.00400495 0.0247126 0.00686239 0.0392861
25 3 O -1.95286 1.07513 53.1965 -1.2 1 0.0975424 0.0365641 0.00210175 0.00633471 0.0023054 0.00518075 0.0021772 0.0203429 0.00254535 0.00982408 0.00256376 0.0250275 0.00303128 0.0171645 0.0044163 0.0295473 0.00398873 0.0237646 0.00629238 0.038849
26 3 O -0.0467762 2.97103 46.8385 -1.2 1 0.251347 0.0556459 0.0165028 0.0157644 0.00290017 0.00963284 0.00400925 0.0203551 0.00631219 0.0168935 0.00546922 0.024357 0.00629952 0.0185528 0.00870017 0.0261892 0.00648412 0.0243928 0.0100981 0.031647
27 3 O -3.26042 3.27419 54.0421 -1.2 1 0.0814812 0.0337419 0.00371502 0.00572106 0.00226841 0.00531691 0.00265783 0.0210073 0.00272129 0.0102057 0.0023133 0.0249086 0.00262556 0.017726 0.00360324 0.0305076 0.00400911 0.0249057 0.00638358 0.0392857
28 3 O -0.670276 3.40557 54.1529 -1.2 1 0.0780106 0.0321413 0.00388251 0.0054807 0.00190625 0.00526493 0.00168558 0.021321 0.002125 0.0101296 0.00217473 0.0249396 0.00292676 0.0180083 0.00385014 0.0308222 0.00356303 0.0256161 0.00634011 0.0403645
29 1 Mg -3.36814 11.7007 57.7004 1.2 1 0.0228561 0.0135975 0.00401736 0.00619479 0.00158804 0.00725248 0.0016263 0.0221225 0.00187565 0.00897272 0.0020886 0.0283861 0.00228365 0.0186689 0.00264235 0.0302328 0.00295818 0.0256233 0.00422053 0.0449111
30 1 Mg -1.75014 11.5838 49.8362 1.2 1 0.183066 0.0488696 0.00721804 0.0124082 0.00398396 0.01302 0.00441708 0.0246643 0.00660478 0.0160086 0.00497142 0.0290768 0.00448504 0.0228803 0.00680561 0.0322309 0.00694982 0.0286661 0.00926768 0.0355912
31 2 Si -1.18003 9.02138 47.9309 2.4 1 0.236776 0.0532627 0.0142345 0.0160959 0.00506689 0.0130455 0.00761896 0.0236754 0.00837186 0.0175195 0.00659334 0.0266502 0.00478897 0.022194 0.00689608 0.0297217 0.00841391 0.0289591 0.0113901 0.0330977
32 3 O -1.23224 10.5991 47.9811 -1.2 1 0.226954 0.0538562 0.0125085 0.0159032 0.00495791 0.0143706 0.0061946 0.0247871 0.00884805 0.0176869 0.00669792 0.0281015 0.00498895 0.0229858 0.00815699 0.0321611 0.00919141 0.0308724 0.0102564 0.0334513
33 3 O -1.79016 8.01447 51.8693 -1.2 1 0.131242 0.0413653 0.00135953 0.00923275 0.00332284 0.00800954 0.00302241 0.0228461 0.00382606 0.0129726 0.0033932 0.0274071 0.00369223 0.0196413 0.00490551 0.0302859 0.00490341 0.0260129 0.00783445 0.0373233
34 3 O -2.30986 8.37215 48.8528 -1.2 1 0.200862 0.0530266 0.00822977 0.0125214 0.00417023 0.0103501 0.0061317 0.023887 0.0065233 0.0170784 0.00469886 0.0265898 0.00393681 0.0221799 0.00652097 0.0306546 0.00633136 0.0285706 0.00903844 0.0333895
35 1 Mg 0.154883 7.08234 46.8007 1.2 1 0.25637 0.0542846 0.0170684 0.0171442 0.00572616 0.0130595 0.00913304 0.0240081 0.00827883 0.0175199 0.0065593 0.0257648 0.00713322 0.021113 0.00900943 0.0284988 0.00939516 0.0287001 0.0128889 0.0310891
36 3 O 0.325447 8.50934 48.3809 -1.2 1 0.213555 0.0539467 0.0102201 0.0141743 0.00398663 0.011853 0.00639293 0.0246012 0.00715691 0.0170834 0.00537805 0.0264432 0.00512925 0.0229569 0.00631915 0.0295807 0.00700546 0.0289513 0.0102412 0.0332904
37 1 Mg 1.06563 7.24458 54.7103 1.2 1 0.0694191 0.0302514 0.00461846 0.00652651 0.00194412 0.00630519 0.00244347 0.0221191 0.00234271 0.0106027 0.0026311 0.0269138 0.00344316 0.0192515 0.00373253 0.0316603 0.00371538 0.0253851 0.00679391 0.0410262
38 2 Si 1.12827 9.94124 56.4578 2.4 1 0.0338063 0.0190585 0.00545504 0.00735204 0.000964249 0.00674173 0.00179876 0.0217429 0.00197406 0.00932102 0.00319067 0.0269506 0.00290851 0.0191804 0.00482703 0.0308476 0.00423125 0.025111 0.00653987 0.045553
39 3 O 1.00599 8.35813 56.6889 -1.2 1 0.0307706 0.0172146 0.0056894 0.00654112 0.00108271 0.00709245 0.00137965 0.0216325 0.00255765 0.00856824 0.00180626 0.026952 0.00334352 0.0184481 0.00324615 0.0316306 0.00421447 0.0253485 0.00573284 0.0449581
40 3 O 1.28624 10.7248 52.7351 -1.2 1 0.111413 0.0381487 0.00164253 0.00892581 0.00225366 0.0103086 0.0031881 0.0231163 0.00348269 0.0121989 0.0032439 0.0279974 0.00449807 0.0205738 0.00448825 0.0308773 0.00429636 0.0268546 0.00693113 0.0394802
41 3 O -0.156153 10.6129 55.8517 -1.2 1 0.0502205 0.0247073 0.00507411 0.0067943 0.00116724 0.00704921 0.00201092 0.0226138 0.00218746 0.0103195 0.00252845 0.0274058 0.00317257 0.0194308 0.00470688 0.0309529 0.0040444 0.0264758 0.00593374 0.0444463
42 3 O 2.36714 10.6027 55.8226 -1.2 1 0.0448585 0.0237777 0.00587028 0.00629083 0.000950669 0.00663985 0.0021651 0.0221232 0.00236373 0.0100756 0.00208113 0.0274416 0.0030132 0.0195958 0.00380592 0.0312002 0.00345257 0.0263669 0.00577348 0.0442494
43 1 Mg -0.262694 9.34741 52.2523 1.2 1 0.11258 0.0403656 0.00234169 0.00886074 0.00285878 0.00844521 0.00258217 0.023421 0.0036008 0.0123077 0.00334517 0.0281441 0.00385213 0.0201997 0.00553244 0.0309959 0.00466404 0.0268325 0.00735153 0.0385585
44 1 Mg 1.87648 9.01537 49.4629 1.2 1 0.181596 0.052873 0.00497355 0.0112559 0.00310996 0.0107789 0.0060497 0.0241335 0.00607305 0.0162262 0.00474524 0.0275161 0.00484148 0.0225254 0.00632971 0.0309639 0.00530258 0.028797 0.00940195 0.0345085
45 2 Si 1.21415 11.3799 51.2378 2.4 1 0.144986 0.0464184 0.0017314 0.0106161 0.00300806 0.0111463 0.00377446 0.0240626 0.00502955 0.0145624 0.00458292 0.0277428 0.00451047 0.0229665 0.00614839 0.031348 0.00520813 0.0288474 0.0092303 0.0382509
46 3 O 1.31634 12.9512 51.3023 -1.2 1 0.147112 0.0454443 0.00289376 0.0101127 0.00273531 0.0119739 0.00337319 0.0243859 0.0051569 0.0148882 0.00333518 0.0294189 0.00468542 0.0235863 0.00431748 0.0318325 0.00558008 0.0287273 0.00827846 0.038287
47 3 O 1.16881 10.4779 58.0292 -1.2 1 0.0202337 0.0118244 0.00333087 0.00625413 0.0012522 0.0072231 0.00137198 0.0222695 0.00192762 0.00858336 0.0027221 0.0271912 0.00274876 0.0187467 0.00315345 0.0305068 0.00311432 0.0257389 0.00447401 0.0459249
48 3 O -0.115718 10.7564 50.681 -1.2 1 0.155103 0.0467297 0.00337126 0.0114057 0.00332182 0.0111236 0.00421622 0.0243632 0.00509371 0.014592 0.00401886 0.0282405 0.00430335 0.0224951 0.00617349 0.0305731 0.00503788 0.0279859 0.0089472 0.0372103
49 1 Mg -3.26386 9.35564 52.3622 1.2 1 0.12082 0.0396515 0.00105302 0.00840528 0.00210334 0.00985565 0.00337395 0.0230411 0.00408907 0.0125316 0.00348751 0.0277979 0.00354701 0.0200407 0.00481929 0.0312524 0.00445873 0.0265758 0.00733664 0.0373849
50 3 O 2.45216 10.7265 50.4558 -1.2 1 0.159776 0.0485295 0.00371207 0.0097579 0.00262418 0.0115312 0.00470664 0.023917 0.00555716 0.0158562 0.0041738 0.0279568 0.0040547 0.0228702 0.00668384 0.0318912 0.00521249 0.0285645 0.00909148 0.0365303
51 1 Mg -1.85384 9.66656 55.3249 1.2 1 0.0540755 0.0265263 0.00602567 0.00645695 0.00196234 0.00672403 0.00193637 0.0222285 0.00222987 0.0099032 0.00278538 0.0275898 0.00286891 0.0192865 0.00410332 0.0311119 0.00484635 0.0260071 0.00679678 0.04322
52 2 Si -1.82113 7.47523 53.3413 2.4 1 0.0967274 0.0359327 0.00280994 0.0074885 0.00301943 0.0069195 0.00289759 0.0219698 0.00358153 0.0117673 0.00303039 0.026689 0.00334117 0.0198624 0.00417921 0.0307282 0.00517064 0.0252283 0.00687018 0.0392341
53 3 O -1.92641 5.84942 53.3793 -1.2 1 0.0951359 0.034213 0.00259427 0.00674899 0.0023153 0.00657223 0.00228121 0.021255 0.00300073 0.010476 0.00274222 0.0258441 0.00287963 0.0182009 0.00505891 0.0306193 0.00380621 0.0251489 0.00688792 0.038958
54 3 O -1.19417 8.46968 46.4488 -1.2 1 0.266753 0.054343 0.0196104 0.0185144 0.00559506 0.0141048 0.00911645 0.0250762 0.00890794 0.0179408 0.00699184 0.0261028 0.00608671 0.0210683 0.00910208 0.0301238 0.00996106 0.0300949 0.0122302 0.0309472
55 3 O -3.09064 8.17511 54.0707 -1.2 1 0.0807515 0.0320174 0.00374964 0.00667037 0.00245066 0.00732238 0.00237033 0.0219946 0.00294571 0.0112003 0.0022003 0.0265644 0.00306255 0.01945 0.00456668 0.0313383 0.00492745 0.0253576 0.00707458 0.0403438
56 3 O -0.589573 8.32453 53.9549 -1.2 1 0.0812828 0.0325036 0.00409829 0.00681774 0.00264577 0.00643763 0.002188 0.0224892 0.00293945 0.0112625 0.00259574 0.0267691 0.00289806 0.0199796 0.00417834 0.0310358 0.00467238 0.0261772 0.00664729 0.0407549
57 1 Mg -3.0961 16.6954 57.4518 1.2 1 0.0237948 0.0147464 0.00450055 0.00603325 0.00139517 0.00657805 0.001473 0.0222087 0.00188289 0.00907708 0.00198233 0.0273566 0.00243857 0.0191833 0.00238855 0.0303375 0.00315983 0.0259845 0.00269094 0.0449699
58 1 Mg -1.6714 16.3544 49.8412 1.2 1 0.176289 0.0482731 0.00670512 0.0127054 0.00304303 0.0154905 0.002942 0.0266131 0.00504724 0.017406 0.00419102 0.0316711 0.00357892 0.0252086 0.00540043 0.033422 0.00603123 0.0306508 0.00819475 0.0383182
59 2 Si -1.18567 13.8526 47.9314 2.4 1 0.230645 0.0547559 0.0147683 0.0165355 0.00416726 0.0180183 0.00497001 0.0273303 0.00915189 0.0195367 0.00608518 0.0310943 0.00544576 0.0276345 0.00614394 0.0338185 0.00937192 0.0326509 0.010301 0.0362543
60 3 O -1.09664 15.4205 47.9915 -1.2 1 0.229383 0.0535439 0.0143299 0.0169498 0.00448038 0.0195246 0.00455208 0.0278963 0.00845686 0.0194976 0.00590553 0.0315868 0.00532294 0.027062 0.00721768 0.0348854 0.00904731 0.0334122 0.0100353 0.0371323
61 3 O -1.73493 12.7491 51.7772 -1.2 1 0.133269 0.0417061 0.00190786 0.010203 0.00325215 0.0108727 0.00164226 0.0243401 0.00427302 0.01388 0.00321763 0.0291254 0.00411428 0.0223703 0.00476284 0.0312969 0.00513413 0.0279189 0.00781073 0.0391584
62 3 O -2.36115 13.2717 48.8238 -1.2 1 0.201528 0.0537553 0.00952677 0.0136555 0.00437689 0.0146958 0.00453317 0.0269338 0.00689363 0.0189786 0.00490622 0.0306951 0.00386076 0.0255262 0.00561853 0.0333568 0.00751938 0.031703 0.00941928 0.0360455
63 1 Mg -0.159928 11.7639 46.8533 1.2 1 0.252313 0.0543946 0.0176599 0.0184302 0.00536071 0.0196018 0.00673336 0.0285758 0.0101714 0.0193215 0.00704681 0.03065 0.00636145 0.0262985 0.0072604 0.0329573 0.0105613 0.0337179 0.0119872 0.0343504
64 3 O 0.2623 13.1866 48.413 -1.2 1 0.215058 0.0545618 0.0111299 0.0153993 0.00385875 0.0165252 0.00445408 0.0274193 0.00808502 0.0183947 0.00491845 0.0299752 0.00513169 0.027329 0.00528912 0.0330516 0.00854889 0.0333818 0.0101996 0.0367464
65 1 Mg 1.19864 11.9844 54.5941 1.2 1 0.0726537 0.0313786 0.00386268 0.00716534 0.00160087 0.00808179 0.00226485 0.0225204 0.00270394 0.0114935 0.00227557 0.0283058 0.0037064 0.020823 0.00388951 0.0311922 0.00397898 0.0259276 0.00554358 0.041352
66 2 Si 1.48745 14.6331 56.5359 2.4 1 0.0319611 0.0187522 0.00520109 0.00706907 0.000858375 0.00696559 0.00189882 0.0220275 0.00186453 0.00882397 0.00281981 0.0273772 0.00255799 0.0197889 0.0033532 0.0302442 0.00313952 0.025837 0.00496249 0.0454979
67 3 O 1.29849 13.0648 56.4682 -1.2 1 0.0364206 0.0200952 0.00525323 0.00739673 0.00107931 0.00663232 0.00176698 0.0216202 0.00342201 0.00903572 0.00167567 0.0273887 0.00305937 0.0193081 0.00332888 0.0308728 0.00424032 0.0258927 0.00492824 0.0454556
68 3 O 1.36565 15.4813 52.729 -1.2 1 0.111703 0.0382423 0.00111609 0.00861207 0.00220334 0.0113487 0.00273233 0.0243196 0.00353887 0.0135094 0.00349475 0.0296278 0.00405035 0.0223602 0.0045555 0.0314436 0.00390873 0.0283151 0.00657126 0.0411501
69 3 O 0.0527255 15.2714 55.8619 -1.2 1 0.0478178 0.0242014 0.00480756 0.00657684 0.00094863 0.00698176 0.00165902 0.021872 0.00172619 0.0101413 0.00248891 0.0272673 0.00243577 0.0201919 0.00355667 0.0318184 0.0034155 0.026913 0.004891 0.0445862
70 3 O 2.70067 15.442 56.0069 -1.2 1 0.0420865 0.0227499 0.00606699 0.00644104 0.00122637 0.00655048 0.00269568 0.0228672 0.00200032 0.00983745 0.00281962 0.0275589 0.00265789 0.0209358 0.003394 0.0313018 0.00303708 0.0267868 0.00537224 0.045194
71 1 Mg -0.206989 14.1049 52.2121 1.2 1 0.116317 0.041861 0.00136848 0.00934142 0.00281907 0.00976374 0.00214117 0.0244077 0.00379173 0.0135644 0.00302081 0.0294076 0.003685 0.0228268 0.00446232 0.031662 0.00403162 0.0281746 0.00683841 0.0398562
72 1 Mg 1.82591 13.8102 49.4556 1.2 1 0.183302 0.0537247 0.00582099 0.0116935 0.0027949 0.013916 0.00459644 0.025844 0.00613985 0.01788 0.00478716 0.0300398 0.00472761 0.0261178 0.00575387 0.0335644 0.00652483 0.0314826 0.00937165 0.0367904
73 2 Si 1.29285 16.1518 51.2434 2.4 1 0.144613 0.046576 0.00178682 0.0104365 0.00211676 0.0127719 0.0034325 0.0250723 0.00470118 0.0156836 0.00472558 0.0292765 0.00409572 0.0249164 0.00578671 0.0325551 0.0043472 0.0303299 0.00866197 0.0399114
74 3 O 1.39496 17.7199 51.3047 -1.2 1 0.146981 0.0453036 0.00256189 0.00997182 0.00158979 0.0127705 0.00289193 0.0250802 0.00459373 0.0155173 0.00287344 0.0298603 0.00380248 0.024775 0.00350033 0.033445 0.00547264 0.0298825 0.00711136 0.0405466
75 3 O 1.38308 15.1543 58.0143 -1.2 1 0.0187637 0.0123126 0.00368084 0.00642109 0.00087688 0.00699853 0.00149178 0.0221322 0.00162578 0.00843708 0.00317344 0.0271056 0.00247232 0.0196515 0.00276654 0.029966 0.00285917 0.0257775 0.00358152 0.0458726
76 3 O -0.0269106 15.5178 50.6688 -1.2 1 0.156172 0.0470047 0.00394636 0.0113779 0.0029623 0.0131141 0.00364553 0.0259589 0.00486662 0.015726 0.00332203 0.0299302 0.00415714 0.0257032 0.00512942 0.0325889 0.00441625 0.0302404 0.00742933 0.0393052
77 1 Mg -3.18391 14.1057 52.3125 1.2 1 0.123907 0.0416237 0.00124797 0.00907938 0.00212828 0.0115815 0.00228979 0.0243187 0.00397554 0.014256 0.00305508 0.0292021 0.00353595 0.0229141 0.00440771 0.0313566 0.00428013 0.0282136 0.00711332 0.0392863
78 3 O 2.52432 15.503 50.4579 -1.2 1 0.161863 0.0496111 0.00434277 0.0102833 0.00223051 0.0136499 0.00362542 0.0256182 0.00527817 0.0176224 0.00388076 0.0300989 0.00381152 0.0258406 0.00580105 0.0334161 0.00487665 0.0303536 0.00822185 0.0386715
79 1 Mg -1.61833 14.3391 55.0666 1.2 1 0.0557697 0.0280063 0.00492013 0.00691801 0.00195631 0.00678863 0.00184563 0.022736 0.00256468 0.010882 0.00272867 0.0280013 0.00232 0.0212114 0.00340586 0.0314383 0.00393129 0.0267828 0.00561298 0.0436548
80 2 Si -1.95383 12.1136 53.3112 2.4 1 0.093762 0.0362066 0.003044 0.00870337 0.00306684 0.00878924 0.00141833 0.0228093 0.00338596 0.0119906 0.00262805 0.0281264 0.00356788 0.0212489 0.00473889 0.0310451 0.00455625 0.0266127 0.0069608 0.0411603
81 3 O -1.92409 10.5806 53.1307 -1.2 1 0.0988481 0.0362009 0.00259626 0.00829317 0.00269008 0.00857814 0.00149852 0.0225536 0.0035395 0.0112933 0.00312585 0.0275446 0.00340375 0.0199333 0.00482632 0.0310935 0.00457223 0.0261348 0.00737851 0.0401904
82 3 O -1.21337 13.3381 46.4311 -1.2 1 0.268066 0.0544274 0.0207643 0.0204886 0.00612419 0.0204937 0.00725195 0.030514 0.0102621 0.0205971 0.00715471 0.0319576 0.00606075 0.0263554 0.00820591 0.0353986 0.0122337 0.0354749 0.0127873 0.0345951
83 3 O -3.0442 12.8937 53.9424 -1.2 1 0.0862018 0.03362 0.00238223 0.00741961 0.00254494 0.00941363 0.00156868 0.0229122 0.002976 0.0121576 0.00240227 0.0277744 0.00328259 0.0218178 0.00391161 0.0310813 0.00429914 0.0266984 0.00555414 0.0416665
84 3 O -0.45961 12.9181 53.8358 -1.2 1 0.084349 0.0335892 0.00268421 0.00758451 0.00275505 0.00733919 0.0016912 0.0235994 0.00294577 0.0118725 0.00221711 0.0277633 0.00299801 0.0219074 0.00429078 0.0313852 0.00388458 0.0272363 0.00555455 0.0416054
85 1 Mg -3.15949 21.2795 57.3642 1.2 1 0.0228097 0.0144997 0.00454457 0.00619158 0.00124676 0.0061542 0.00121469 0.0222142 0.00234166 0.00941731 0.00189806 0.0277598 0.00143805 0.0200306 0.00263991 0.0306301 0.00314731 0.0252503 0.00312088 0.0453774
86 1 Mg -1.5831 21.1217 49.8405 1.2 1 0.178679 0.0487486 0.0068273 0.0128267 0.00283167 0.0156074 0.00294132 0.0272921 0.00514736 0.0174301 0.0044255 0.031354 0.00324432 0.0254369 0.00543714 0.0347773 0.00549146 0.0309779 0.00802303 0.0395387
87 2 Si -1.09384 18.6291 47.9287 2.4 1 0.230184 0.0547479 0.0140711 0.0174455 0.00323841 0.0201525 0.00448578 0.0288963 0.00782765 0.0201555 0.00557645 0.0323762 0.00547876 0.0283757 0.0055185 0.0354663 0.00904084 0.0337132 0.00980073 0.0389651
88 3 O -1.02071 20.1985 47.9911 -1.2 1 0.229283 0.0536789 0.0139681 0.0177039 0.00377614 0.0205884 0.0043552 0.0289069 0.00769149 0.0198156 0.00584719 0.0321387 0.00537285 0.0274203 0.00747465 0.036189 0.00840305 0.0338505 0.00959984 0.039142
89 3 O -1.65002 17.5002 51.771 -1.2 1 0.133936 0.0417272 0.00200513 0.0100539 0.00300436 0.0119946 0.00130617 0.0251828 0.00346385 0.0148083 0.00300758 0.0296667 0.00361205 0.0236877 0.00347276 0.0322539 0.00446479 0.0286216 0.00648539 0.0403022
90 3 O -2.26174 18.0434 48.8281 -1.2 1 0.205343 0.0542834 0.0095552 0.0146143 0.00330656 0.0171612 0.00401837 0.0283015 0.0063007 0.0197446 0.00422806 0.0317105 0.00388924 0.0273062 0.00547829 0.03496 0.00716143 0.0329338 0.0088844 0.0385767
91 1 Mg -0.0440435 16.5651 46.8269 1.2 1 0.254245 0.0555352 0.0183286 0.0195514 0.00401096 0.0240493 0.00551288 0.0316583 0.00984404 0.0215848 0.00644098 0.0338856 0.00634711 0.0288275 0.00784468 0.0355826 0.00981636 0.0361906 0.0114604 0.0382815
92 3 O 0.37001 17.9877 48.3925 -1.2 1 0.211172 0.0542482 0.0107841 0.0154199 0.00311475 0.0178916 0.00351662 0.0286896 0.00688782 0.0195637 0.00435877 0.031402 0.00469072 0.0285182 0.00541303 0.0348801 0.00761469 0.0342294 0.00920672 0.0396051
93 1 Mg 1.28328 16.506 54.5351 1.2 1 0.073292 0.0308548 0.00394142 0.00701928 0.00134876 0.00781338 0.0021829 0.022315 0.00273579 0.0120891 0.00215216 0.0288364 0.00302542 0.021985 0.00330562 0.0318013 0.00352036 0.0261982 0.00499728 0.0425395
94 2 Si 1.35128 19.2818 56.439 2.4 1 0.0324938 0.0181863 0.00545926 0.00682792 0.000964898 0.00584862 0.00203157 0.0216515 0.0020347 0.0093966 0.00301401 0.0266366 0.00225126 0.0201088 0.00425391 0.0308607 0.00305862 0.0252914 0.00433105 0.0459425
95 3 O 1.4501 17.6897 56.5105 -1.2 1 0.0312855 0.0180035 0.00566809 0.00668867 0.00105638 0.00615547 0.00173169 0.0220263 0.00307488 0.00867935 0.00219212 0.0272566 0.00241156 0.0190571 0.00244459 0.0307718 0.00381567 0.0257123 0.00386323 0.04553
96 3 O 1.45147 20.239 52.7294 -1.2 1 0.110432 0.0374087 0.00146705 0.0082814 0.00159216 0.0112724 0.00271955 0.0245507 0.00286084 0.0136462 0.00301483 0.029461 0.00337324 0.0225705 0.0039312 0.0321856 0.00386105 0.02795 0.00604832 0.0419938
97 3 O 0.0551271 19.9469 55.8353 -1.2 1 0.0468478 0.0238371 0.00547598 0.00659534 0.00122354 0.00661549 0.0019081 0.0226389 0.00200908 0.0104338 0.00249391 0.0271063 0.00224029 0.0205845 0.00404329 0.0317167 0.00292933 0.026616 0.00488081 0.0446051
98 3 O 2.62142 19.9262 55.7521 -1.2 1 0.0440657 0.0233956 0.00613698 0.00632841 0.00119149 0.00651253 0.0017158 0.0228447 0.00256322 0.0101498 0.00169736 0.0270519 0.00192578 0.0206391 0.00324507 0.031513 0.00300367 0.0267513 0.00436763 0.0449432
99 1 Mg -0.126194 18.8651 52.2079 1.2 1 0.11588 0.0412537 0.00179697 0.00894738 0.0022197 0.0102384 0.00162795 0.0250085 0.00312954 0.0143722 0.00278378 0.0297055 0.0027131 0.0231896 0.00368978 0.0328446 0.00378739 0.0289133 0.00598603 0.0410024
100 1 Mg 1.92402 18.5815 49.4545 1.2 1 0.180935 0.0538242 0.00535726 0.0119817 0.00121724 0.0149356 0.0038037 0.0273245 0.00472209 0.0191242 0.00359172 0.0312111 0.00416215 0.0271965 0.0049679 0.0350729 0.00570555 0.0324277 0.00852058 0.0396264
101 2 Si 1.38106 20.9117 51.2443 2.4 1 0.145508 0.0470516 0.0016645 0.010758 0.00209721 0.0130397 0.00362768 0.0260289 0.00398539 0.0161195 0.00449265 0.0292881 0.00360737 0.0249905 0.00561146 0.0337427 0.00386821 0.0308414 0.0081319 0.0417704
102 3 O 1.48527 22.4795 51.3054 -1.2 1 0.141289 0.0442519 0.00212508 0.0100359 0.00184958 0.012603 0.00330697 0.0259112 0.00426213 0.015477 0.00295665 0.0300783 0.00377765 0.0238136 0.0039447 0.0338887 0.00452536 0.0297646 0.00688634 0.0417384
103 3 O 1.52622 20.0533 57.8618 -1.2 1 0.018096 0.0124999 0.00347654 0.00670251 0.00107127 0.00614134 0.00117935 0.0220131 0.00162091 0.00860962 0.0025325 0.0268112 0.0018584 0.0197167 0.00255659 0.0305484 0.0025122 0.0253203 0.00276845 0.0455971
104 3 O 0.0615419 20.2804 50.6669 -1.2 1 0.154556 0.0468967 0.00372395 0.0115394 0.00298281 0.0135266 0.00361934 0.0263467 0.00390966 0.0160611 0.00307488 0.0300733 0.0036589 0.0254736 0.00476216 0.0335848 0.0040647 0.0302933 0.00706319 0.0410614
105 1 Mg -3.09665 18.8643 52.3122 1.2 1 0.122454 0.04079 0.000958876 0.00850197 0.00143954 0.0115937 0.00190195 0.0245604 0.00299011 0.0150152 0.00249569 0.0293678 0.00268998 0.0237496 0.0035505 0.032489 0.00398298 0.0286972 0.00630105 0.0404426
106 3 O 2.61548 20.2646 50.4626 -1.2 1 0.155816 0.0481717 0.00331823 0.0103009 0.00129252 0.0136235 0.00350262 0.0263564 0.00382141 0.0171124 0.00328547 0.0298377 0.00320639 0.0254403 0.00463573 0.0341152 0.00442852 0.0306032 0.00702494 0.0403045
107 1 Mg -1.71043 18.886 55.1489 1.2 1 0.0534795 0.026408 0.00590791 0.00649941 0.00177328 0.00685211 0.00159248 0.0230105 0.00251674 0.0107539 0.0026858 0.0277312 0.0017518 0.02114 0.00347031 0.0315408 0.00372179 0.0267708 0.00470041 0.0439336
108 2 Si -1.52144 16.8471 53.2692 2.4 1 0.0968299 0.0366793 0.00281219 0.00824579 0.00256285 0.0087131 0.00111469 0.0236744 0.00320638 0.0132997 0.00240912 0.0282807 0.00308402 0.0229155 0.00327492 0.0319728 0.00428685 0.0277012 0.00568262 0.042217
109 3 O -1.59789 15.3145 53.2004 -1.2 1 0.0987794 0.0368807 0.00267121 0.00850751 0.0023952 0.00934678 0.00130162 0.0232364 0.00350767 0.01231 0.00276978 0.0287692 0.00323251 0.0219393 0.00427776 0.0318702 0.00323575 0.0274873 0.00684981 0.0417736
110 3 O -1.12868 18.1227 46.4249 -1.2 1 0.266276 0.0557394 0.0203197 0.0208595 0.00474443 0.0240714 0.00603323 0.0328785 0.00882959 0.021538 0.00610237 0.0342321 0.00646278 0.0271076 0.00808251 0.0375312 0.0115398 0.0371142 0.0121075 0.0386681
111 3 O -2.7693 17.6311 53.9643 -1.2 1 0.0841129 0.0328476 0.00324245 0.00667712 0.00169242 0.00910016 0.00111242 0.0235005 0.00241541 0.0128402 0.00201142 0.0279197 0.00248291 0.0221682 0.00296593 0.0322122 0.00328146 0.0273102 0.00530767 0.0425759
112 3 O -0.226333 17.5782 53.8941 -1.2 1 0.0809364 0.0331132 0.0035808 0.00704113 0.00263372 0.0070576 0.00122276 0.0230989 0.00243094 0.0119967 0.00187432 0.0279209 0.00235829 0.0221671 0.00340905 0.0322474 0.00376449 0.0272991 0.00530281 0.0420453
113 1 Mg -2.925 26.049 57.601 1.2 1 0.0216073 0.0148556 0.00455088 0.00648721 0.00131092 0.00598024 0.00141112 0.0227367 0.00225686 0.0090905 0.00149698 0.0284296 0.00190689 0.0193617 0.00247135 0.030892 0.00281798 0.0248349 0.0034419 0.0453961
114 1 Mg -1.48778 25.88 49.8402 1.2 1 0.178663 0.0507844 0.00710557 0.0135215 0.00313849 0.0156859 0.00289097 0.0273567 0.00506077 0.0176501 0.00430307 0.031739 0.00329733 0.0252385 0.00605962 0.0350772 0.00529653 0.0316187 0.00824841 0.0402926
115 2 Si -1.00491 23.3922 47.9274 2.4 1 0.22896 0.0549939 0.0141896 0.0180055 0.00380716 0.0207482 0.00479835 0.0294808 0.00824262 0.0199736 0.00533383 0.0323314 0.00520211 0.0280138 0.00583594 0.0357517 0.00883559 0.0342484 0.00989481 0.0396149
116 3 O -0.927602 24.9615 47.9909 -1.2 1 0.226609 0.0548024 0.0140269 0.0178147 0.00402135 0.0206684 0.00439948 0.0291424 0.00791341 0.0197474 0.0055076 0.0321649 0.00504799 0.0272694 0.00699054 0.0360716 0.00832178 0.0344689 0.00975294 0.0398014
117 3 O -1.55795 22.2588 51.7696 -1.2 1 0.133128 0.0415471 0.00152901 0.0104698 0.00267973 0.0117733 0.00164943 0.0256838 0.00308415 0.0147135 0.00275255 0.0298587 0.00315148 0.0233557 0.00370549 0.0332106 0.00482224 0.0283998 0.00622818 0.041701
118 3 O -2.17411 22.8111 48.8277 -1.2 1 0.200126 0.0538836 0.00914623 0.0147549 0.00334006 0.0172556 0.00400689 0.0291652 0.00597879 0.0195225 0.00404063 0.0316367 0.0037219 0.0267784 0.00533901 0.0355997 0.00650023 0.0331626 0.00820125 0.0393761
119 1 Mg 0.0423997 21.3296 46.8225 1.2 1 0.256833 0.0557569 0.0183177 0.0208546 0.00433109 0.0248306 0.00640176 0.0327051 0.00945996 0.0217824 0.0065161 0.0341349 0.00689298 0.0285935 0.0088975 0.0364702 0.0101592 0.0366058 0.0117577 0.0393943
120 3 O 0.458537 22.7495 48.3911 -1.2 1 0.212784 0.0549034 0.0106473 0.0162581 0.0032343 0.0185456 0.00354045 0.0294783 0.00683323 0.0193921 0.00410243 0.0316294 0.00471195 0.028257 0.00552396 0.0353317 0.00742311 0.0347967 0.00923997 0.0403485