ITEM: TIMESTEP
6600
ITEM: NUMBER OF ATOMS
10500
ITEM: BOX BOUNDS xy xz yz pp pp pp
0	8.9688	2.9896
0	118.725	0
0	252.977	0
ITEM: ATOMS id type element xu yu zu q Q_1 Q_2 Q_3 Q_4 Q_5 Q_6 Q_7 Q_8 Q_9 Q_10 Q_11 Q_12 Q_13 Q_14 Q_15 Q_16 Q_17 Q_18 Q_19 Q_20 Q_21
1 1 Mg -3.44648 7.0387 57.5358 1.2 1 0.0214459 0.0130155 0.0051766 0.00658754 0.00154294 0.0064673 0.00133616 0.0236711 0.0015208 0.00953069 0.00191787 0.0305782 0.00248231 0.0203283 0.00251865 0.0337806 0.00279697 0.0253092 0.00407237 0.0511596
2 1 Mg -1.82655 6.90154 50.0912 1.2 1 0.174938 0.0466191 0.00592184 0.00991722 0.00322539 0.00887962 0.004331 0.0231645 0.00474287 0.0143886 0.00468533 0.0260224 0.00477916 0.0208788 0.00660172 0.0299315 0.0056617 0.0256143 0.0090823 0.0351952
3 2 Si -0.257935 3.96038 48.0876 2.4 1 0.225059 0.0527259 0.0111701 0.0127862 0.00251314 0.00950705 0.0036969 0.0204492 0.00582602 0.0168658 0.00466712 0.0244654 0.00536217 0.0206748 0.00565471 0.027004 0.00681599 0.0248884 0.00913219 0.0324346
4 3 O -0.335812 5.46814 47.6264 -1.2 1 0.232767 0.0521256 0.0131038 0.0135729 0.00310009 0.0106287 0.00464955 0.0211259 0.0063156 0.0175255 0.00495453 0.0250972 0.00492763 0.0211236 0.005556 0.0273982 0.00745067 0.0256511 0.00987212 0.0310641
5 3 O -2.03793 3.43377 51.8941 -1.2 1 0.128848 0.0402191 0.0024953 0.007656 0.00198341 0.0068336 0.00293259 0.0211039 0.0028183 0.0116075 0.00331004 0.02583 0.00388717 0.0183793 0.00416811 0.0301138 0.00513903 0.0236878 0.00799477 0.0384607
6 3 O -1.54015 3.53929 48.9521 -1.2 1 0.201212 0.0508026 0.00838529 0.0110568 0.00255784 0.00840362 0.00364377 0.0206571 0.00501765 0.0151776 0.00481331 0.0239348 0.00432195 0.0202067 0.00560338 0.0279394 0.00562903 0.0241642 0.00893174 0.0326013
7 1 Mg 1.82954 2.54582 47.1376 1.2 1 0.24497 0.0523941 0.0152286 0.0158007 0.00302094 0.0108498 0.00343042 0.0204866 0.00566935 0.0157374 0.00490585 0.0240059 0.00598231 0.01992 0.00696407 0.025371 0.0065075 0.0234652 0.00856875 0.0305292
8 3 O 1.22989 3.66364 48.7877 -1.2 1 0.20534 0.0501299 0.00903053 0.0122268 0.00242309 0.00946654 0.00409167 0.0205703 0.00409964 0.0150815 0.00410604 0.0238466 0.00475553 0.0200173 0.00599582 0.0273473 0.00467595 0.0240684 0.00908957 0.0333067
9 1 Mg 1.002 2.34752 54.5882 1.2 1 0.0697398 0.0286461 0.00512282 0.00576139 0.00153364 0.00541587 0.00293317 0.0224558 0.00255915 0.0100497 0.0031678 0.0276154 0.00386041 0.0202984 0.0042958 0.0324602 0.00306073 0.0242343 0.0068257 0.0448637
10 2 Si 1.03786 4.98768 56.4549 2.4 1 0.0331312 0.0185574 0.0064603 0.00663964 0.00155303 0.00634869 0.00256342 0.023038 0.00183808 0.00903224 0.0036829 0.028238 0.00280306 0.0205699 0.00520196 0.0332461 0.00304963 0.0246628 0.006389 0.0501888
11 3 O 1.03106 3.44364 56.5025 -1.2 1 0.037273 0.0194313 0.00633135 0.00616695 0.00134786 0.00540044 0.00227501 0.0227664 0.00280312 0.00887735 0.00277515 0.0287353 0.00306399 0.0197104 0.00315322 0.0332918 0.00397767 0.0249284 0.00564723 0.0491211
12 3 O 1.10813 6.07342 52.8172 -1.2 1 0.105515 0.0352818 0.00295597 0.0068796 0.00219402 0.00717799 0.00336626 0.0231103 0.0033393 0.0111801 0.00323946 0.0269868 0.00417644 0.019606 0.00449666 0.031337 0.00426931 0.0249475 0.00714593 0.0410117
13 3 O -0.216828 5.72203 55.801 -1.2 1 0.0467019 0.0227977 0.0062877 0.00607089 0.00154559 0.00558672 0.00234201 0.0233275 0.00217036 0.00992702 0.00277553 0.0283744 0.00270672 0.019955 0.00435966 0.0334121 0.00308528 0.025236 0.00591659 0.0481168
14 3 O 2.33058 5.68412 55.8727 -1.2 1 0.0421096 0.0219159 0.00670046 0.00597816 0.00137298 0.0061859 0.00254189 0.0236379 0.0014038 0.0094243 0.0026413 0.0284849 0.00313172 0.0206909 0.00447091 0.0339505 0.00292651 0.025571 0.00615826 0.0483239
15 1 Mg -0.459401 4.67631 52.2426 1.2 1 0.12378 0.0400956 0.00234854 0.00735569 0.00229342 0.0067785 0.00263783 0.0220288 0.00326134 0.0121407 0.00285928 0.0266405 0.00408697 0.0194756 0.0044671 0.0304694 0.00402595 0.0241254 0.00717656 0.0383178
16 1 Mg 2.79456 3.9971 49.9987 1.2 1 0.176037 0.049123 0.0053191 0.010156 0.00290948 0.00787614 0.00457525 0.021304 0.00351817 0.0148758 0.00308081 0.0246418 0.00476961 0.020629 0.00623912 0.0291038 0.00442911 0.0246469 0.00956246 0.0338665
17 2 Si 1.16169 6.59457 51.2556 2.4 1 0.146785 0.0447483 0.00256802 0.00917083 0.00268465 0.00822141 0.00427511 0.0224745 0.00438496 0.0132439 0.00458275 0.0258512 0.0046753 0.0209806 0.00675053 0.030972 0.00450199 0.0254673 0.00938989 0.0376389
18 3 O 1.28989 8.18905 51.2909 -1.2 1 0.146616 0.0434795 0.0028289 0.00909824 0.00261257 0.00916974 0.00414829 0.022863 0.00421457 0.0130835 0.0041049 0.0277504 0.00430417 0.021219 0.0053131 0.0312773 0.00528786 0.0261685 0.00881432 0.0392758
19 3 O 1.0321 5.65596 57.965 -1.2 1 0.0166985 0.0106988 0.00441352 0.00678513 0.00134331 0.00667754 0.0012622 0.0237583 0.00115173 0.00873066 0.00244056 0.0294658 0.00214608 0.0205072 0.0029158 0.0341092 0.00242267 0.0257163 0.00388999 0.0519443
20 3 O -0.184847 6.06029 50.6845 -1.2 1 0.159832 0.0441143 0.00463325 0.00938315 0.00334052 0.00801544 0.00423875 0.0223151 0.00429632 0.0134045 0.00323478 0.0255401 0.00436236 0.019944 0.00593827 0.0293585 0.00479798 0.0248837 0.00871724 0.036873
21 1 Mg -3.49704 4.67769 52.6661 1.2 1 0.116095 0.0379792 0.00237637 0.00677771 0.00212056 0.00688996 0.00313773 0.0213213 0.00340696 0.0113936 0.00363791 0.0267263 0.00393322 0.0193022 0.0046963 0.0307113 0.00395984 0.0238657 0.00806158 0.0390305
22 3 O 2.48581 5.93312 50.6539 -1.2 1 0.157775 0.0465291 0.00373933 0.0086713 0.00188031 0.00867327 0.00423223 0.0222586 0.00427764 0.0139295 0.00403811 0.0252655 0.004618 0.0210853 0.00594259 0.0303594 0.00432511 0.0254007 0.00898041 0.0360479
23 1 Mg -1.91944 4.75738 55.254 1.2 1 0.0505942 0.0249058 0.00693398 0.00618111 0.00157255 0.00596129 0.00217891 0.0229973 0.00307413 0.00953515 0.00315406 0.0288203 0.0024484 0.0203335 0.00382908 0.0332069 0.00390593 0.0250796 0.00662388 0.0465912
24 2 Si -1.93976 2.64408 53.3036 2.4 1 0.10235 0.0353436 0.00334161 0.00672945 0.00237146 0.00608294 0.00236406 0.021701 0.00304655 0.0112338 0.00300027 0.0260216 0.00336524 0.0197129 0.00334119 0.0309722 0.00438106 0.0237363 0.00716221 0.0414296
25 3 O -1.98567 1.083 53.2004 -1.2 1 0.0987505 0.0342442 0.00318703 0.00665528 0.00262769 0.00577422 0.00233285 0.0220563 0.00303821 0.0104696 0.00297222 0.0265778 0.00353802 0.0191303 0.00451981 0.0311405 0.00390309 0.0236444 0.00763029 0.0416426
26 3 O -0.0467762 2.97103 46.8385 -1.2 1 0.251941 0.053034 0.0160568 0.0151749 0.00312038 0.00990438 0.00366023 0.020068 0.00624188 0.0168244 0.00628301 0.0238414 0.00690199 0.0195038 0.00787239 0.025427 0.00657342 0.0238399 0.00979595 0.0315872
27 3 O -3.19493 3.24971 54.1383 -1.2 1 0.0798631 0.0302928 0.00431469 0.00548083 0.00178064 0.00559469 0.00210389 0.0220329 0.00272149 0.0105788 0.00246492 0.0264906 0.00287869 0.0198205 0.00365301 0.031822 0.00346264 0.0238309 0.00706571 0.0433395
28 3 O -0.635117 3.30974 53.969 -1.2 1 0.0824444 0.0315201 0.00477436 0.00595268 0.00202341 0.00605135 0.00192869 0.0222198 0.00260619 0.0105807 0.00218349 0.0268766 0.00348484 0.02021 0.0033365 0.0319652 0.00361393 0.024389 0.00656192 0.0431557
29 1 Mg -3.1724 11.7956 57.4691 1.2 1 0.0224754 0.012999 0.0052493 0.00642167 0.0010112 0.00574968 0.00165882 0.0242382 0.00190556 0.00934777 0.00157081 0.0310176 0.00230067 0.0207767 0.00243164 0.0337427 0.00266587 0.0251605 0.00371886 0.0526394
30 1 Mg -1.75014 11.5838 49.8362 1.2 1 0.185012 0.0472383 0.00715038 0.0118351 0.00410817 0.0125486 0.00497943 0.0247293 0.00580377 0.0156669 0.00534137 0.0294454 0.00462937 0.0240114 0.00712158 0.0332992 0.00680105 0.0284351 0.0100941 0.0386878
31 2 Si -1.18003 9.02138 47.9309 2.4 1 0.239215 0.0511167 0.0151428 0.0148676 0.00505073 0.0130719 0.00771174 0.0232108 0.00825584 0.0173165 0.00737074 0.0266542 0.00515901 0.0229546 0.00700311 0.030249 0.00896315 0.0278694 0.0122842 0.0344401
32 3 O -1.23224 10.5991 47.9811 -1.2 1 0.231116 0.0523237 0.0134107 0.0152278 0.00524553 0.0144123 0.00664728 0.024682 0.00833904 0.0173505 0.00744843 0.0280619 0.00557671 0.0238981 0.00821017 0.0325069 0.00921622 0.0300362 0.0110875 0.0350877
33 3 O -1.79016 8.01447 51.8693 -1.2 1 0.13343 0.0401151 0.00240355 0.00864683 0.00324166 0.00763836 0.00285074 0.0227712 0.00363997 0.0123429 0.00397237 0.0277007 0.00414517 0.0204065 0.00471402 0.0317426 0.00553064 0.0250455 0.00895659 0.0398121
34 3 O -2.30986 8.37215 48.8528 -1.2 1 0.205078 0.0515281 0.0091524 0.0121275 0.00398505 0.0104853 0.00611186 0.0236308 0.00618818 0.0170695 0.00517227 0.0267677 0.00443741 0.0227763 0.0061834 0.0313465 0.00688484 0.0274662 0.00998942 0.03446
35 1 Mg 0.154883 7.08234 46.8007 1.2 1 0.258114 0.0520567 0.0176566 0.0157302 0.00563549 0.0134284 0.00854485 0.0236847 0.00770948 0.0177585 0.00732336 0.0252616 0.00709955 0.0218481 0.00850295 0.0289855 0.00971029 0.0279127 0.0131376 0.0315185
36 3 O 0.325447 8.50934 48.3809 -1.2 1 0.216782 0.0520272 0.0107005 0.0135255 0.00427832 0.0121671 0.00620372 0.0242814 0.00666084 0.0169624 0.00588849 0.0263748 0.00492029 0.0236642 0.00573637 0.0301618 0.00721533 0.0279377 0.0106675 0.0344524
37 1 Mg 1.26139 7.13823 54.6202 1.2 1 0.0683263 0.0287858 0.00514703 0.00601816 0.00186831 0.00611099 0.00224519 0.0228339 0.00252691 0.0104713 0.00318908 0.0281704 0.00373575 0.0207476 0.00369922 0.033117 0.00371336 0.0245976 0.006908 0.0454692
38 2 Si 1.22634 9.74841 56.4245 2.4 1 0.0342091 0.0185853 0.00673018 0.00690444 0.0013363 0.00586722 0.00234398 0.0235508 0.00192612 0.00908344 0.0033524 0.0288693 0.00274664 0.0209918 0.00423815 0.0337983 0.00333077 0.0252127 0.00660957 0.0518308
39 3 O 1.18605 8.18846 56.5263 -1.2 1 0.0314433 0.0172691 0.00624802 0.00658154 0.00139847 0.00617015 0.00161775 0.0234761 0.0027758 0.00842945 0.00223498 0.0293368 0.00315215 0.0197995 0.00282226 0.0336563 0.00379292 0.0252149 0.00545763 0.0508337
40 3 O 1.28624 10.7248 52.7351 -1.2 1 0.112046 0.0363894 0.00243369 0.00733645 0.00239701 0.00932072 0.00322503 0.0239918 0.00321406 0.0117205 0.00396147 0.0289084 0.0045633 0.0215792 0.00491095 0.0328838 0.00394466 0.0263993 0.00778499 0.0435691
41 3 O -0.0596545 10.4166 55.778 -1.2 1 0.0489946 0.0228808 0.00576695 0.00646976 0.00140477 0.00591961 0.00215932 0.0239011 0.00170153 0.00987461 0.00247228 0.0291115 0.00289312 0.0210085 0.00359794 0.0342392 0.00304996 0.0256606 0.00606641 0.0499017
42 3 O 2.48041 10.4794 55.7312 -1.2 1 0.0461748 0.0227936 0.00675672 0.00643416 0.00116185 0.00574268 0.00251466 0.0236793 0.00190508 0.00967112 0.00272184 0.0292755 0.00289185 0.0210014 0.00387557 0.0343683 0.00279406 0.0257118 0.006099 0.0501903
43 1 Mg -0.262694 9.34741 52.2523 1.2 1 0.114917 0.0394072 0.00326663 0.00788502 0.00305129 0.00783125 0.00259134 0.024007 0.00331987 0.0119353 0.00361584 0.0287123 0.00413749 0.021216 0.005298 0.032565 0.00442492 0.026265 0.00847619 0.0413591
44 1 Mg 1.87648 9.01537 49.4629 1.2 1 0.186112 0.0514594 0.00585138 0.0110648 0.00301416 0.0107076 0.0063699 0.0237686 0.00568609 0.0161218 0.00533242 0.02739 0.00496894 0.0232749 0.00617197 0.0317549 0.00557956 0.0278686 0.0103934 0.0361287
45 2 Si 1.21415 11.3799 51.2378 2.4 1 0.14958 0.0453445 0.00221764 0.00973969 0.00314074 0.010561 0.0040244 0.0245289 0.00445507 0.0143016 0.00488119 0.0280164 0.00464001 0.0241393 0.00581908 0.0332285 0.00502491 0.0282615 0.00969602 0.0415902
46 3 O 1.31634 12.9512 51.3023 -1.2 1 0.148445 0.0436109 0.00270034 0.00952489 0.00252558 0.0112425 0.00371022 0.0252099 0.00478272 0.0145486 0.00378022 0.0299396 0.0045557 0.0245887 0.00463447 0.0338589 0.00523255 0.0284298 0.00842559 0.0427517
47 3 O 1.2888 10.3534 57.9142 -1.2 1 0.0173633 0.0106316 0.00430758 0.00665397 0.00113783 0.00634784 0.00181118 0.0243171 0.00185039 0.00862496 0.00258022 0.0301653 0.00247734 0.0207662 0.00289289 0.033561 0.00258243 0.0252455 0.00379305 0.053124
48 3 O -0.115718 10.7564 50.681 -1.2 1 0.156744 0.044902 0.00359151 0.010151 0.0036942 0.0103799 0.00418356 0.0243182 0.00439193 0.0140145 0.0040865 0.0284466 0.00482448 0.02314 0.00622621 0.0323587 0.00533849 0.0273538 0.00977274 0.0402842
49 1 Mg -3.26386 9.35564 52.3622 1.2 1 0.123535 0.0387605 0.00194463 0.00759157 0.00228134 0.00919307 0.00349615 0.0233824 0.00380796 0.0122272 0.00411292 0.0283235 0.00387319 0.021139 0.00488987 0.0327116 0.00444111 0.0259188 0.00851135 0.0405153
50 3 O 2.45216 10.7265 50.4558 -1.2 1 0.163221 0.0471974 0.00380657 0.00943521 0.00250586 0.0111725 0.00497779 0.0240067 0.00499844 0.0155632 0.00451729 0.0280153 0.00436455 0.0239877 0.0064834 0.032998 0.00528352 0.0279359 0.0098134 0.0395062
51 1 Mg -1.77571 9.48058 55.1721 1.2 1 0.0547139 0.0255292 0.00610767 0.00652941 0.00179426 0.0061512 0.00207741 0.0237619 0.00283286 0.00951616 0.00309145 0.0293135 0.0028452 0.0209109 0.00348184 0.0334727 0.00437158 0.0252091 0.00665827 0.0481748
52 2 Si -1.7697 7.35307 53.3593 2.4 1 0.0964057 0.0355201 0.00400823 0.00713908 0.00294834 0.00660778 0.00225518 0.0225374 0.00366006 0.0114085 0.00337188 0.0274128 0.00352623 0.0208559 0.00348291 0.0322811 0.00496568 0.0244708 0.00711495 0.042756
53 3 O -1.84451 5.79065 53.3613 -1.2 1 0.0965012 0.0333103 0.0030087 0.00636271 0.00235824 0.0065081 0.00215501 0.0220571 0.00360961 0.0105541 0.00328447 0.026908 0.00301088 0.019555 0.00428518 0.0321128 0.00358293 0.0244507 0.0072436 0.0417682
54 3 O -1.19417 8.46968 46.4488 -1.2 1 0.270727 0.0522094 0.0203888 0.0173305 0.00549633 0.014626 0.00892619 0.0248144 0.00819273 0.0177221 0.00770762 0.0258224 0.00637088 0.021444 0.00911223 0.0302472 0.0102926 0.0295091 0.0121703 0.0312743
55 3 O -3.02034 8.01699 54.0706 -1.2 1 0.0817561 0.0299889 0.00382906 0.00595029 0.00196524 0.00715034 0.00206753 0.0227396 0.00268718 0.0108827 0.00287968 0.0274039 0.00321654 0.0206328 0.00388089 0.0329866 0.00430709 0.0247506 0.00777031 0.0443061
56 3 O -0.502073 8.12458 54.0173 -1.2 1 0.0765449 0.0303121 0.00523822 0.00595561 0.00253766 0.00584721 0.00125595 0.0231927 0.0025521 0.0102917 0.00267915 0.0278145 0.00306435 0.0204769 0.0037239 0.0331363 0.00416697 0.0254276 0.00703181 0.0450565
57 1 Mg -3.14871 16.4407 57.3751 1.2 1 0.0216295 0.0128433 0.00547359 0.00653004 0.00140882 0.00560951 0.00174091 0.0246399 0.00199317 0.00918755 0.00167802 0.0309092 0.00199216 0.0208692 0.00248246 0.0335219 0.00285667 0.0250337 0.00410123 0.0529856
58 1 Mg -1.6714 16.3544 49.8412 1.2 1 0.182186 0.0484183 0.00705254 0.0126032 0.00341248 0.0145904 0.00375389 0.026811 0.00539385 0.0175523 0.00478509 0.0319634 0.0044829 0.0265832 0.00664508 0.03505 0.00584499 0.0306204 0.00922082 0.0421505
59 2 Si -1.18567 13.8526 47.9314 2.4 1 0.235393 0.0537881 0.0153969 0.0165418 0.00467503 0.0180848 0.0054475 0.0274874 0.00916776 0.0196656 0.00646637 0.0313146 0.00604733 0.0283487 0.00669431 0.0347488 0.00982209 0.0322661 0.0114215 0.0385719
60 3 O -1.09664 15.4205 47.9915 -1.2 1 0.232359 0.0527313 0.0147941 0.0168243 0.0050411 0.0190373 0.00511535 0.027886 0.00832357 0.0198243 0.00647406 0.0315877 0.00587152 0.0279203 0.00808385 0.0356189 0.00875944 0.0332533 0.0106551 0.039594
61 3 O -1.73493 12.7491 51.7772 -1.2 1 0.136301 0.0406397 0.00236142 0.00950294 0.00322503 0.00972582 0.00181677 0.0249303 0.00411549 0.0134985 0.00332155 0.0300315 0.00460923 0.0235942 0.00478192 0.0336029 0.00545025 0.0272422 0.00838544 0.0434942
62 3 O -2.36115 13.2717 48.8238 -1.2 1 0.208354 0.0528914 0.0101436 0.0138981 0.00455868 0.014145 0.0053323 0.027009 0.00690276 0.0190655 0.00519636 0.0307424 0.00477973 0.0268714 0.00602519 0.0348942 0.00786364 0.0312774 0.00997543 0.038584
63 1 Mg -0.159928 11.7639 46.8533 1.2 1 0.260068 0.0530673 0.0188992 0.0181306 0.00602782 0.0198411 0.00748471 0.0284009 0.00971299 0.0194914 0.00806564 0.0305513 0.00691457 0.0270321 0.00811095 0.0334832 0.0107479 0.0328885 0.0131827 0.0359455
64 3 O 0.2623 13.1866 48.413 -1.2 1 0.214585 0.0521553 0.011342 0.0144827 0.00436157 0.0157582 0.00475139 0.0267082 0.00753718 0.0182457 0.00511401 0.0300459 0.00521256 0.0278984 0.00546789 0.033947 0.00812695 0.032103 0.010524 0.039098
65 1 Mg 1.37062 11.8174 54.5617 1.2 1 0.0759258 0.0301913 0.00410274 0.00601437 0.0019041 0.00689328 0.00279177 0.0237633 0.00279059 0.011135 0.00238044 0.0296713 0.00390102 0.0226232 0.00326415 0.0340508 0.00385648 0.0252707 0.00590027 0.0469669
66 2 Si 1.25326 14.4293 56.4246 2.4 1 0.0341649 0.017931 0.00640758 0.00689003 0.00157386 0.00551123 0.00216808 0.0242118 0.00184591 0.00913565 0.00300228 0.0294853 0.00251545 0.0213837 0.00414303 0.0339991 0.00331527 0.0252697 0.0057008 0.0538231
67 3 O 1.26499 12.8636 56.5294 -1.2 1 0.0301594 0.0165585 0.00596309 0.00672157 0.001263 0.0055372 0.00227765 0.0245261 0.00282171 0.00861545 0.00208687 0.0304895 0.00277448 0.0207451 0.00310888 0.0336721 0.00340072 0.0254637 0.00509666 0.0528835
68 3 O 1.36565 15.4813 52.729 -1.2 1 0.112556 0.0368655 0.00125153 0.00770016 0.00196399 0.0102446 0.00369081 0.0252174 0.00296829 0.0129888 0.00346937 0.030631 0.00416369 0.0232057 0.00435005 0.0338011 0.00403477 0.0275526 0.00699593 0.0461596
69 3 O 0.0072735 15.14 55.7553 -1.2 1 0.0486141 0.022705 0.00556114 0.00666604 0.00122107 0.00594166 0.0024353 0.0245612 0.00164687 0.00994295 0.00258128 0.0297735 0.00261753 0.0218437 0.00394931 0.0343368 0.00326617 0.0260966 0.00588568 0.0519428
70 3 O 2.54053 15.0764 55.7172 -1.2 1 0.0446272 0.0220745 0.00643974 0.00650943 0.00127638 0.00559352 0.00250566 0.0244927 0.00178971 0.00969004 0.00257955 0.0297689 0.0026597 0.021859 0.00391471 0.0346356 0.00313157 0.0258429 0.00586125 0.0520829
71 1 Mg -0.206989 14.1049 52.2121 1.2 1 0.118134 0.040424 0.00195512 0.00856396 0.00274565 0.00873169 0.00255978 0.0251279 0.00337564 0.0132805 0.00329107 0.0308139 0.00384189 0.0238668 0.00445765 0.0339953 0.00386307 0.0275756 0.00741261 0.0443504
72 1 Mg 1.82591 13.8102 49.4556 1.2 1 0.184211 0.0516888 0.00579038 0.0115455 0.0028578 0.0130717 0.00486437 0.0259528 0.0057183 0.0175662 0.00476678 0.0304431 0.00505509 0.0265658 0.00593821 0.0351936 0.00638111 0.0306452 0.00969948 0.0399996
73 2 Si 1.29285 16.1518 51.2434 2.4 1 0.148627 0.0460892 0.00186018 0.0103696 0.00261328 0.0120196 0.00400969 0.026004 0.00469509 0.0157844 0.00494322 0.0298149 0.00437339 0.0260174 0.00581003 0.0344131 0.00416514 0.0303824 0.00887683 0.0444288
74 3 O 1.39496 17.7199 51.3047 -1.2 1 0.144357 0.043285 0.0023383 0.00962116 0.00223096 0.0117941 0.00374002 0.0255432 0.00413459 0.0150538 0.003006 0.0308233 0.00431958 0.0249991 0.0044006 0.0345523 0.0054353 0.0291456 0.00766363 0.0444871
75 3 O 1.32012 15.1263 57.9162 -1.2 1 0.0164232 0.0102025 0.00430015 0.00663925 0.00113445 0.00574296 0.00173503 0.0246477 0.00181306 0.00832475 0.00236864 0.030393 0.00221407 0.0207814 0.00293037 0.0335945 0.00270436 0.0250444 0.00386519 0.0539642
76 3 O -0.0269106 15.5178 50.6688 -1.2 1 0.156594 0.0456574 0.00388443 0.0106666 0.00349029 0.0121972 0.00394352 0.0259767 0.00430222 0.0153926 0.00319028 0.0303842 0.00465017 0.0258913 0.00597131 0.0341245 0.00424318 0.0298369 0.00856579 0.0434291
77 1 Mg -3.18391 14.1057 52.3125 1.2 1 0.12639 0.0405492 0.00135089 0.00847053 0.00208806 0.0105275 0.00289054 0.0251852 0.00380082 0.0140301 0.00321204 0.03042 0.00399691 0.0243017 0.0043063 0.0336766 0.00426931 0.0276813 0.00722313 0.0437172
78 3 O 2.52432 15.503 50.4579 -1.2 1 0.160752 0.0478285 0.00404542 0.0100065 0.00222447 0.0126768 0.00424806 0.0264068 0.00484138 0.0172851 0.00373239 0.03033 0.00441216 0.0268129 0.00569973 0.0345247 0.00505296 0.0299117 0.00810566 0.0426535
79 1 Mg -1.67126 14.2099 55.1215 1.2 1 0.0549368 0.0255675 0.00563289 0.00696544 0.0016299 0.00567674 0.00216552 0.0247471 0.00301095 0.00996354 0.0031361 0.0303092 0.00273225 0.0222135 0.00407592 0.0342419 0.00429811 0.0259089 0.00618759 0.0506283
80 2 Si -1.71096 12.1165 53.2881 2.4 1 0.100333 0.0360475 0.00364649 0.00781881 0.00279295 0.00759228 0.00146162 0.0241705 0.00370458 0.0120756 0.00273784 0.029212 0.00412912 0.0232722 0.00322963 0.033755 0.00513803 0.026273 0.00697766 0.0461166
81 3 O -1.76276 10.5853 53.2209 -1.2 1 0.0980238 0.0339148 0.00366684 0.00685158 0.00286788 0.00764653 0.00162588 0.0229883 0.00330468 0.0106952 0.00325702 0.0287029 0.00357723 0.0212426 0.00435988 0.0334716 0.00470498 0.0252111 0.00828533 0.0450555
82 3 O -1.21337 13.3381 46.4311 -1.2 1 0.271384 0.0528574 0.0213854 0.0197233 0.00650796 0.020518 0.00749817 0.0304198 0.00979038 0.0206616 0.00715602 0.0317433 0.00639192 0.0267323 0.00880051 0.0357747 0.0124263 0.0349745 0.0129428 0.0361292
83 3 O -2.995 12.8373 53.9478 -1.2 1 0.0856234 0.0315721 0.00335292 0.00631116 0.00183904 0.00813563 0.00180379 0.024367 0.00294761 0.0115456 0.00246021 0.0293259 0.00335282 0.022813 0.00322953 0.0340125 0.00413867 0.0261531 0.00627123 0.047213
84 3 O -0.427589 12.8366 53.9564 -1.2 1 0.0801866 0.0310322 0.00413806 0.00655526 0.00259284 0.00596969 0.00137957 0.0246258 0.00280266 0.0111317 0.00248867 0.0293485 0.00302828 0.0229011 0.00363996 0.0342437 0.00406994 0.0264511 0.00672948 0.0477778
85 1 Mg -3.09473 21.2353 57.4727 1.2 1 0.0215025 0.0127618 0.00517901 0.00643235 0.00148406 0.00572988 0.00160808 0.0243456 0.00185212 0.00939503 0.0017325 0.030212 0.00225109 0.0209585 0.00230286 0.0332934 0.00288171 0.0249649 0.00428286 0.0530961
86 1 Mg -1.5831 21.1217 49.8405 1.2 1 0.180616 0.0483323 0.00690449 0.0128745 0.00313857 0.0149985 0.00353585 0.026943 0.0046376 0.017702 0.00488515 0.0314367 0.0040923 0.0266258 0.00645907 0.0352213 0.00534566 0.0311398 0.00944726 0.0420864
87 2 Si -1.09384 18.6291 47.9287 2.4 1 0.233946 0.0546065 0.0144081 0.0175681 0.00376767 0.0202748 0.00463733 0.0288081 0.00803187 0.0207021 0.00573006 0.032571 0.00639695 0.0293551 0.00631869 0.0360483 0.00934381 0.033926 0.0108186 0.0414143
88 3 O -1.02071 20.1985 47.9911 -1.2 1 0.231259 0.0532962 0.0140354 0.0175656 0.00429867 0.0203224 0.00459107 0.0285292 0.00737571 0.02046 0.00609823 0.0321056 0.00605145 0.0284235 0.00768172 0.0363593 0.00820517 0.0340529 0.0104382 0.0412009
89 3 O -1.65002 17.5002 51.771 -1.2 1 0.135995 0.0411903 0.00212348 0.00980907 0.00301514 0.0109553 0.00194873 0.0257787 0.00336592 0.0143741 0.00285014 0.0306578 0.0044023 0.0244563 0.0045031 0.034217 0.00517664 0.02805 0.00761908 0.0450812
90 3 O -2.26174 18.0434 48.8281 -1.2 1 0.2063 0.0536171 0.00946677 0.0147867 0.00359926 0.0167046 0.00462132 0.0282152 0.00618298 0.0199684 0.00454976 0.0320246 0.0046569 0.0282114 0.00606218 0.0359249 0.00710095 0.0330768 0.00945721 0.0410892
91 1 Mg -0.0440435 16.5651 46.8269 1.2 1 0.259324 0.0547865 0.018755 0.0195771 0.00513151 0.024121 0.00600266 0.0315632 0.00972494 0.0223261 0.00682835 0.0338646 0.00715346 0.0296115 0.00863156 0.035976 0.00990651 0.0364131 0.0122378 0.0401441
92 3 O 0.37001 17.9877 48.3925 -1.2 1 0.214353 0.0535344 0.0107257 0.0155436 0.00382192 0.0176316 0.00381373 0.0285081 0.00652518 0.019888 0.00408709 0.0317701 0.00535283 0.0292023 0.00569325 0.0353017 0.00752521 0.0343422 0.00986833 0.0419333
93 1 Mg 1.35177 16.5492 54.5371 1.2 1 0.0738466 0.0301084 0.00398757 0.00631807 0.00162016 0.00699976 0.00300447 0.0244395 0.00217301 0.0113696 0.00249192 0.0304437 0.00380445 0.0232939 0.00356444 0.0344996 0.0037538 0.0256836 0.00587697 0.0489055
94 2 Si 1.45174 19.1482 56.3946 2.4 1 0.0342839 0.0184734 0.00596984 0.00680388 0.00162772 0.00558051 0.00178958 0.0240265 0.00182 0.00909644 0.00315652 0.0288468 0.00269104 0.0217556 0.00396442 0.0340224 0.00336027 0.02518 0.00607716 0.0537233
95 3 O 1.35878 17.6037 56.4639 -1.2 1 0.032573 0.0175263 0.00613925 0.00674501 0.0015291 0.00531349 0.00226273 0.0242096 0.00288691 0.00866676 0.00225293 0.0298497 0.00317973 0.0208129 0.00298018 0.0338216 0.00429242 0.0250847 0.00542916 0.0530934
96 3 O 1.45147 20.239 52.7294 -1.2 1 0.110564 0.036782 0.00147339 0.00774237 0.0017663 0.0105153 0.00358459 0.0254086 0.00257464 0.0132716 0.00349952 0.030184 0.00408488 0.023484 0.00430037 0.0337657 0.00381575 0.0277469 0.00684879 0.0463921
97 3 O 0.1159 19.8226 55.7795 -1.2 1 0.0467548 0.0228541 0.00543649 0.00666151 0.00145358 0.00585865 0.00244044 0.0243492 0.00176702 0.00977033 0.00242603 0.0290225 0.00285799 0.021862 0.00374302 0.0341992 0.00338796 0.0259164 0.00587125 0.0518603
98 3 O 2.69015 19.8429 55.7284 -1.2 1 0.0427732 0.0220067 0.00628156 0.00650892 0.00167685 0.00556882 0.00250854 0.0242102 0.00187455 0.00952989 0.00250871 0.0290068 0.00271333 0.0217721 0.00372274 0.0343527 0.00299527 0.0257331 0.00623975 0.0522146
99 1 Mg -0.126194 18.8651 52.2079 1.2 1 0.11647 0.0407025 0.001965 0.00855097 0.00248125 0.0091664 0.00257903 0.0256192 0.00268606 0.0140976 0.00321112 0.0306248 0.00387704 0.0243696 0.00414924 0.0342289 0.00377669 0.0282475 0.00761177 0.0452564
100 1 Mg 1.92402 18.5815 49.4545 1.2 1 0.18345 0.0528349 0.00530409 0.0120963 0.00197222 0.0142804 0.00470183 0.0273763 0.00503047 0.0188697 0.00414324 0.0313535 0.00487581 0.0276113 0.00477117 0.0358173 0.00624395 0.0322499 0.00930271 0.0421423
101 2 Si 1.38106 20.9117 51.2443 2.4 1 0.147343 0.0463731 0.00200567 0.0104228 0.00241545 0.0123922 0.00408548 0.0263822 0.00351132 0.0161487 0.00468794 0.0294863 0.00435368 0.026131 0.00546165 0.0343207 0.00373272 0.0304334 0.00907192 0.0444626
102 3 O 1.48527 22.4795 51.3054 -1.2 1 0.143571 0.0431583 0.00242647 0.00983175 0.00222529 0.0120542 0.00348808 0.0255483 0.00380272 0.0151933 0.00316437 0.030186 0.00422815 0.0251204 0.00421251 0.0344166 0.00483312 0.0294648 0.0077717 0.0445206
103 3 O 1.44294 19.8551 57.9123 -1.2 1 0.016487 0.0102519 0.00416254 0.00663257 0.00137666 0.00566134 0.00159854 0.0245536 0.00166626 0.00853584 0.00211866 0.0296201 0.0023369 0.0207522 0.00300841 0.0334919 0.00285817 0.0249725 0.00398017 0.0540932
104 3 O 0.0615419 20.2804 50.6669 -1.2 1 0.156131 0.0460911 0.00382416 0.0109643 0.00349554 0.0128073 0.00401104 0.0263433 0.00348056 0.0160306 0.00315913 0.0302032 0.00459409 0.0264517 0.00518134 0.0344824 0.00408322 0.0302903 0.00853227 0.0437587
105 1 Mg -3.09665 18.8643 52.3122 1.2 1 0.124347 0.0405539 0.00132913 0.0083797 0.00169772 0.0108744 0.0030327 0.0255837 0.00269585 0.0146946 0.00286189 0.0305168 0.0037548 0.0248588 0.0036887 0.0340629 0.00420914 0.0279581 0.00697005 0.0447118
106 3 O 2.61548 20.2646 50.4626 -1.2 1 0.160936 0.0484145 0.00375343 0.0104927 0.00168235 0.0132633 0.00406397 0.0266277 0.00376128 0.0175936 0.003528 0.0301554 0.00449954 0.0269512 0.00492377 0.0347791 0.00442874 0.0304018 0.00837719 0.0433498
107 1 Mg -1.60962 18.8153 55.0867 1.2 1 0.05577 0.0266204 0.00576258 0.00685958 0.00199123 0.0060609 0.00233911 0.0245188 0.0025475 0.0104643 0.00336946 0.0297584 0.00261379 0.0225671 0.00406055 0.0340485 0.00419856 0.0258206 0.00676574 0.0507458
108 2 Si -1.66285 16.7861 53.2324 2.4 1 0.0976147 0.035539 0.00301134 0.00780923 0.00238846 0.00742719 0.00141936 0.0247842 0.00326071 0.01241 0.00264629 0.0297503 0.0034631 0.0238003 0.00338249 0.0343474 0.00445482 0.0268916 0.00692858 0.0481686
109 3 O -1.69425 15.2587 53.1563 -1.2 1 0.0976491 0.0345953 0.0029283 0.00756866 0.00230666 0.00772607 0.00185307 0.0242916 0.00350868 0.0117126 0.00309483 0.0301743 0.00317006 0.0231125 0.00442383 0.0342232 0.00393863 0.026366 0.00751868 0.0478057
110 3 O -1.12868 18.1227 46.4249 -1.2 1 0.268467 0.0550099 0.0205638 0.0207905 0.00546981 0.0239627 0.00636398 0.0322562 0.00851364 0.0220519 0.00587333 0.0340866 0.00685739 0.0277405 0.0088113 0.0377507 0.0116675 0.0373814 0.0122575 0.0400338
111 3 O -2.89069 17.4904 53.9297 -1.2 1 0.0839592 0.0315029 0.00320869 0.00627572 0.00166452 0.00802162 0.00204034 0.0248456 0.00226719 0.0119334 0.00234977 0.0295284 0.00304953 0.0235248 0.0030555 0.0344702 0.00350125 0.0264065 0.00655917 0.0484075
112 3 O -0.383375 17.4814 53.8779 -1.2 1 0.0792859 0.0316533 0.0042818 0.00656785 0.00233874 0.00609658 0.00126655 0.024933 0.00244111 0.0113143 0.00256579 0.0295719 0.00286347 0.0234869 0.00384754 0.0345721 0.00351702 0.0267753 0.00702539 0.0484606
113 1 Mg -2.93534 25.9901 57.3541 1.2 1 0.021051 0.0123744 0.00535407 0.00645996 0.00121896 0.00622318 0.00132481 0.024063 0.00203447 0.00963547 0.00150303 0.0300767 0.0017809 0.020778 0.00209369 0.0334459 0.00268055 0.0250858 0.00400913 0.0535225
114 1 Mg -1.48778 25.88 49.8402 1.2 1 0.181486 0.0484051 0.00665896 0.0132532 0.00336148 0.0155558 0.00337502 0.0271796 0.00450914 0.0176157 0.0050157 0.0315896 0.0041201 0.0265689 0.0062774 0.0354494 0.00558336 0.0312417 0.00951666 0.0419239
115 2 Si -1.00491 23.3922 47.9274 2.4 1 0.232691 0.0541942 0.0144355 0.0180708 0.00414777 0.021055 0.00445167 0.0287037 0.00752769 0.0203884 0.00539135 0.0322354 0.00608463 0.0287886 0.00640978 0.0361342 0.00895558 0.0339779 0.0108953 0.0411869
116 3 O -0.927602 24.9615 47.9909 -1.2 1 0.230712 0.0533367 0.0140575 0.0178315 0.0043665 0.0207855 0.0043431 0.0286293 0.00722677 0.0203099 0.00599349 0.0320093 0.0060525 0.0281831 0.00777284 0.036513 0.00831071 0.0341213 0.010561 0.0410243
117 3 O -1.55795 22.2588 51.7696 -1.2 1 0.134779 0.0411398 0.0021831 0.00999591 0.00310217 0.0112927 0.00203021 0.0256722 0.00284481 0.0145162 0.00286924 0.0300927 0.00452459 0.0244369 0.00410947 0.034212 0.00484988 0.0282231 0.00791536 0.0449006
118 3 O -2.17411 22.8111 48.8277 -1.2 1 0.202846 0.0527425 0.00909095 0.0148781 0.00336509 0.0170145 0.0041211 0.0283208 0.00522453 0.0198058 0.00446607 0.0316378 0.00468187 0.0277878 0.00579546 0.0358902 0.00655629 0.0330963 0.00945256 0.0412312
119 1 Mg 0.0423997 21.3296 46.8225 1.2 1 0.258422 0.05522 0.0184213 0.0205797 0.00521364 0.0250231 0.005982 0.0319339 0.00877886 0.022417 0.00646216 0.0338503 0.00719121 0.0294269 0.00869048 0.0363776 0.00936361 0.0368046 0.0123271 0.0408427
120 3 O 0.458537 22.7495 48.3911 -1.2 1 0.215174 0.0540083 0.0107083 0.0161541 0.00390297 0.0184612 0.00357498 0.0287942 0.00624113 0.0199955 0.00400052 0.0314439 0.00542334 0.0291409 0.00565591 0.035512 0.00744438 0.0348725 0.0098825 0.0418848