ITEM: TIMESTEP
61700
ITEM: NUMBER OF ATOMS
10500
ITEM: BOX BOUNDS xy xz yz pp pp pp
0	8.9688	2.9896
0	118.725	0
0	252.977	0
ITEM: ATOMS id type element xu yu zu q Q_1 Q_2 Q_3 Q_4 Q_5 Q_6 Q_7 Q_8 Q_9 Q_10 Q_11 Q_12 Q_13 Q_14 Q_15 Q_16 Q_17 Q_18 Q_19 Q_20 Q_21
1 1 Mg -3.31873 7.12417 57.3572 1.2 1 0.022977 0.0161775 0.00533519 0.00561951 0.00125844 0.00581419 0.00125313 0.0214484 0.00174278 0.00898246 0.00164323 0.0261014 0.00213988 0.0190983 0.00167817 0.0322488 0.00288281 0.0256029 0.00403179 0.0469253
2 1 Mg -1.82655 6.90154 50.0912 1.2 1 0.178439 0.0475802 0.00693368 0.00956625 0.00345813 0.00887235 0.00417294 0.0217772 0.00362974 0.0142757 0.00486591 0.0248656 0.00468722 0.0209208 0.00609338 0.0292963 0.00613952 0.0258023 0.00977204 0.0350565
3 2 Si -0.257935 3.96038 48.0876 2.4 1 0.225122 0.0526996 0.0118332 0.0125198 0.0024249 0.0100577 0.00343217 0.0191973 0.00505208 0.0160959 0.00421462 0.0239272 0.00541251 0.0202822 0.0055268 0.0260618 0.00716409 0.0245515 0.00866206 0.0325007
4 3 O -0.335812 5.46814 47.6264 -1.2 1 0.234184 0.0524466 0.0138948 0.0137049 0.00335642 0.0110479 0.00425019 0.0199917 0.00573921 0.0168382 0.0047268 0.0245408 0.00491864 0.020924 0.00584664 0.0262087 0.00762549 0.0254321 0.00975112 0.0311503
5 3 O -2.03793 3.43377 51.8941 -1.2 1 0.130302 0.0414549 0.00271627 0.00741089 0.00202962 0.00713236 0.00266173 0.0196278 0.00224032 0.0109615 0.00334049 0.02475 0.00370894 0.0171932 0.00445091 0.0282076 0.00515159 0.0236547 0.00826525 0.0373374
6 3 O -1.54015 3.53929 48.9521 -1.2 1 0.204617 0.0515854 0.00909528 0.0110141 0.00252708 0.00885568 0.00339267 0.019294 0.00445557 0.0145337 0.00453459 0.023432 0.00433074 0.0195717 0.00591001 0.0267701 0.0055694 0.0240204 0.00889963 0.0320406
7 1 Mg 1.82954 2.54582 47.1376 1.2 1 0.248753 0.0526499 0.0162594 0.0160876 0.00293628 0.0114054 0.00356179 0.019434 0.005316 0.0147112 0.00452206 0.0239191 0.0064447 0.0191567 0.00788398 0.0245825 0.00700396 0.0232427 0.0090418 0.0302627
8 3 O 1.22989 3.66364 48.7877 -1.2 1 0.207651 0.0502232 0.00976082 0.0120763 0.00241893 0.00992346 0.00350057 0.0192128 0.00360245 0.0141392 0.00395821 0.023485 0.00498184 0.0190937 0.0062565 0.02629 0.00489726 0.023807 0.00917537 0.0331226
9 1 Mg 0.93258 2.38544 54.5587 1.2 1 0.0690139 0.0311842 0.00462243 0.00544558 0.00131598 0.00524008 0.00240783 0.0203287 0.00295293 0.00890643 0.00297198 0.0252126 0.00347482 0.0182716 0.00379739 0.0311097 0.00323277 0.0241204 0.00641895 0.0418566
10 2 Si 1.17954 5.01296 56.4439 2.4 1 0.0309057 0.0201991 0.00592804 0.00581205 0.00111523 0.00639732 0.00211056 0.0212535 0.00198716 0.00805037 0.00332086 0.0252498 0.00237157 0.0183807 0.00343026 0.0317026 0.00367061 0.0255259 0.005875 0.0466378
11 3 O 1.06749 3.49746 56.551 -1.2 1 0.0332502 0.0208742 0.0061326 0.00557223 0.00112656 0.00567604 0.00177433 0.021219 0.00249649 0.00800844 0.00230995 0.0258389 0.00225378 0.0176177 0.00292879 0.0314661 0.00350603 0.0253043 0.00512935 0.045677
12 3 O 1.10813 6.07342 52.8172 -1.2 1 0.105902 0.0363972 0.00237812 0.00664795 0.0024236 0.00680928 0.00328043 0.020934 0.00254616 0.0107662 0.00303494 0.0253057 0.0037378 0.018771 0.00417739 0.0307901 0.00445378 0.0254743 0.00762871 0.0402205
13 3 O -0.339265 5.64833 55.8227 -1.2 1 0.0438265 0.0244574 0.006121 0.00504705 0.00148558 0.00551585 0.00227797 0.0214605 0.00191262 0.00885507 0.0029388 0.0256342 0.00260101 0.0183632 0.00384686 0.0325459 0.00321644 0.0258022 0.0063971 0.0459167
14 3 O 2.27126 5.70733 55.6348 -1.2 1 0.0444931 0.0249269 0.00600345 0.00476004 0.00125345 0.0059945 0.00246069 0.0217994 0.0019634 0.00925947 0.00311827 0.0256352 0.00264913 0.0189897 0.0040668 0.0328999 0.00341724 0.026503 0.00582871 0.0453933
15 1 Mg -0.459401 4.67631 52.2426 1.2 1 0.124788 0.0412488 0.00239795 0.00701557 0.0023432 0.00664064 0.00239066 0.0202742 0.00253002 0.0116728 0.00284516 0.0252852 0.0040015 0.0185673 0.00462966 0.0292296 0.00439311 0.0240949 0.0078708 0.037158
16 1 Mg 2.79456 3.9971 49.9987 1.2 1 0.175856 0.0493148 0.00618706 0.0100494 0.00273974 0.00837752 0.00411441 0.0199365 0.00262769 0.0139785 0.00301551 0.023764 0.00460488 0.0198489 0.00600067 0.0273737 0.00449144 0.0243888 0.00958074 0.0339336
17 2 Si 1.16169 6.59457 51.2556 2.4 1 0.150753 0.0459297 0.0031441 0.00872616 0.00309153 0.00847831 0.0040416 0.0208476 0.00332912 0.0129197 0.00463646 0.0245295 0.00415641 0.020649 0.00589091 0.0302334 0.00505966 0.0255128 0.00946961 0.0371824
18 3 O 1.28989 8.18905 51.2909 -1.2 1 0.145634 0.043517 0.00296717 0.00841259 0.00289304 0.00919798 0.00369073 0.0215113 0.00359747 0.0126 0.00396605 0.0260676 0.00381295 0.0206923 0.00482426 0.0311743 0.00552957 0.0270703 0.00864731 0.0395286
19 3 O 1.1551 5.54338 57.9396 -1.2 1 0.0156944 0.0131291 0.00423304 0.00581427 0.00140551 0.00620514 0.00149308 0.021614 0.00180586 0.00825293 0.00260332 0.0261792 0.00251854 0.0186686 0.00282544 0.0322398 0.00284615 0.0255875 0.00425312 0.0477434
20 3 O -0.184847 6.06029 50.6845 -1.2 1 0.164125 0.0453931 0.00569654 0.00901958 0.00368522 0.00814908 0.00395324 0.0210386 0.00378538 0.0134045 0.00357202 0.0245381 0.00401371 0.0201013 0.00523754 0.0284637 0.00516421 0.0253251 0.008983 0.0364982
21 1 Mg -3.49704 4.67769 52.6661 1.2 1 0.115534 0.0388719 0.00200619 0.0066928 0.0022728 0.00704676 0.00281208 0.019945 0.00269923 0.010808 0.0034969 0.0248376 0.0034934 0.0181874 0.00430098 0.0289405 0.0041726 0.023997 0.00806338 0.0383338
22 3 O 2.48581 5.93312 50.6539 -1.2 1 0.158555 0.046481 0.00412273 0.00805676 0.00196276 0.0088124 0.00402676 0.0206997 0.00317175 0.0133644 0.00431745 0.0239957 0.00439531 0.0203174 0.00586672 0.02959 0.00467144 0.0253521 0.00926335 0.0358358
23 1 Mg -1.81581 4.71607 55.0695 1.2 1 0.0538542 0.0280057 0.00571861 0.00537624 0.00122459 0.00552757 0.00222939 0.0210324 0.00203455 0.00889466 0.00344489 0.0256837 0.00212988 0.0187991 0.0039793 0.0319857 0.00404078 0.0251393 0.00653439 0.0436503
24 2 Si -1.95705 2.48696 53.1446 2.4 1 0.101606 0.0367657 0.00269179 0.00656903 0.00228757 0.00647563 0.00201058 0.0196035 0.00225601 0.0102717 0.00314324 0.024288 0.00313399 0.0181386 0.00371834 0.0291186 0.00444612 0.0235524 0.00691086 0.0392894
25 3 O -2.05726 1.02052 53.1586 -1.2 1 0.0992622 0.0369709 0.00264 0.00661562 0.00272772 0.00580938 0.00186251 0.0195728 0.00229082 0.00945268 0.00295998 0.0248445 0.0031075 0.017759 0.00445455 0.0290609 0.00336599 0.0235629 0.00725172 0.0392501
26 3 O -0.0467762 2.97103 46.8385 -1.2 1 0.253487 0.0533113 0.01693 0.0150808 0.0031154 0.0103048 0.0036124 0.0190332 0.00608678 0.0160107 0.00564487 0.0237202 0.00698289 0.0188948 0.0081124 0.0248275 0.00698738 0.0237623 0.00985818 0.0314801
27 3 O -3.25386 3.25182 54.0412 -1.2 1 0.0801474 0.0329142 0.00383964 0.00537267 0.0016823 0.00572869 0.0021037 0.0202203 0.00215599 0.00959509 0.00245321 0.0242692 0.00258964 0.0183311 0.00351944 0.0303218 0.00396484 0.0239445 0.00701028 0.0406915
28 3 O -0.723294 3.36198 53.9103 -1.2 1 0.0819551 0.0337162 0.00379364 0.00546922 0.001568 0.0060976 0.00193751 0.0205193 0.00219108 0.00974946 0.00211199 0.0249783 0.00310028 0.0186258 0.00344666 0.030555 0.00370303 0.0245819 0.00634925 0.0405762
29 1 Mg -3.44902 11.8606 57.3287 1.2 1 0.0233084 0.0159929 0.00505988 0.00514334 0.00109325 0.00636652 0.00160349 0.021155 0.00200865 0.00850595 0.00247562 0.0262336 0.00212103 0.0199633 0.00298166 0.0325619 0.00329134 0.0261679 0.00445522 0.0483367
30 1 Mg -1.75014 11.5838 49.8362 1.2 1 0.18744 0.0475779 0.00832129 0.01164 0.00475253 0.0127382 0.0045938 0.0229165 0.00413483 0.0158928 0.00533747 0.027869 0.00449174 0.023791 0.00706183 0.0329372 0.00717783 0.0297295 0.0114572 0.0382578
31 2 Si -1.18003 9.02138 47.9309 2.4 1 0.24246 0.0514849 0.0158599 0.0152328 0.00549724 0.0135391 0.00735261 0.0222885 0.00700594 0.0171187 0.00722307 0.0258799 0.00497642 0.0226577 0.00714058 0.0296237 0.00901036 0.0282731 0.0129496 0.0343681
32 3 O -1.23224 10.5991 47.9811 -1.2 1 0.232674 0.0523222 0.0140261 0.0151954 0.00568127 0.0145875 0.00624597 0.02358 0.00670665 0.0172261 0.00767573 0.027261 0.00538243 0.0236289 0.00850272 0.0320576 0.00977124 0.0306093 0.0122325 0.0353926
33 3 O -1.79016 8.01447 51.8693 -1.2 1 0.134485 0.0411745 0.00273651 0.00783764 0.00358795 0.00763709 0.00301158 0.0211954 0.00293293 0.012048 0.00382988 0.0258771 0.00396988 0.0204365 0.00477163 0.0313566 0.0058153 0.0261893 0.00901427 0.0399772
34 3 O -2.30986 8.37215 48.8528 -1.2 1 0.205354 0.0513363 0.0095924 0.011879 0.00445323 0.0105752 0.00573039 0.0220084 0.00511689 0.0164506 0.0051548 0.0258358 0.0045208 0.0223364 0.00597583 0.0308972 0.00731216 0.0274201 0.0107289 0.0346652
35 1 Mg 0.154883 7.08234 46.8007 1.2 1 0.259163 0.051859 0.0182712 0.0156824 0.00575871 0.0138802 0.00816374 0.0227034 0.00712004 0.0172778 0.00727479 0.0250042 0.00646901 0.021504 0.00847892 0.0280718 0.00987429 0.0277377 0.0132375 0.0314466
36 3 O 0.325447 8.50934 48.3809 -1.2 1 0.219703 0.0526478 0.0119437 0.013407 0.00447855 0.0124863 0.00608958 0.0227255 0.00545476 0.0167885 0.00619691 0.0253811 0.0051489 0.0237142 0.00646352 0.0300186 0.00756064 0.0283918 0.011491 0.0344528
37 1 Mg 1.1955 7.03711 54.4643 1.2 1 0.0711252 0.030925 0.0042339 0.00526452 0.00183655 0.0060179 0.00250501 0.0212488 0.00278526 0.00997231 0.00348628 0.0254082 0.00310841 0.0195296 0.00372008 0.0325368 0.00410657 0.0259993 0.007243 0.0437363
38 2 Si 1.11861 9.63606 56.3575 2.4 1 0.03503 0.0209554 0.00592623 0.0059653 0.00156827 0.00636178 0.00269189 0.0211656 0.00196612 0.00813197 0.00368338 0.0253866 0.0027102 0.0203944 0.00426528 0.033121 0.00374757 0.0260002 0.00612126 0.0485901
39 3 O 1.08654 8.08089 56.605 -1.2 1 0.0312749 0.0191017 0.00568775 0.00574954 0.00140243 0.00616744 0.00185706 0.021208 0.00249831 0.00771914 0.00221785 0.0257799 0.00287304 0.0188623 0.0027753 0.0326426 0.00366714 0.0259734 0.00560738 0.0477861
40 3 O 1.28624 10.7248 52.7351 -1.2 1 0.113821 0.0376112 0.00181654 0.00687293 0.00272359 0.00985328 0.00281304 0.0216515 0.00227001 0.0119363 0.00359654 0.026546 0.00421808 0.0214825 0.00429528 0.0329939 0.00423693 0.0280477 0.00771721 0.0432208
41 3 O -0.218882 10.3978 55.9039 -1.2 1 0.0461196 0.024175 0.0054769 0.00551771 0.00142196 0.00678736 0.00226009 0.0221436 0.00176592 0.00918747 0.0027403 0.0253532 0.00277532 0.0205215 0.00398328 0.0335093 0.00356156 0.027089 0.00566691 0.0479959
42 3 O 2.31147 10.3415 55.7547 -1.2 1 0.0448829 0.0240992 0.00598636 0.00539915 0.00125313 0.00652903 0.00212833 0.0215773 0.00193848 0.00891758 0.0025426 0.0253562 0.00267398 0.0203777 0.00334189 0.0339851 0.0031038 0.0271032 0.00507524 0.0476037
43 1 Mg -0.262694 9.34741 52.2523 1.2 1 0.117402 0.0405851 0.00238606 0.00737988 0.00321793 0.00801351 0.00267769 0.0217198 0.00240499 0.0119531 0.00335476 0.0266417 0.0038961 0.0209572 0.00465033 0.0325251 0.00460413 0.0276546 0.00876999 0.0410754
44 1 Mg 1.87648 9.01537 49.4629 1.2 1 0.187252 0.0515709 0.00634591 0.0106625 0.00328835 0.0113165 0.00582021 0.0222278 0.00414699 0.0159544 0.00527523 0.0259527 0.00481316 0.0232673 0.00616982 0.0315309 0.00568841 0.0287236 0.010882 0.0360377
45 2 Si 1.21415 11.3799 51.2378 2.4 1 0.149589 0.045484 0.00301264 0.00902134 0.00348927 0.0114992 0.00324466 0.0225302 0.00324076 0.0145688 0.00470325 0.0265571 0.00431226 0.0236592 0.00577631 0.0331251 0.00514074 0.029843 0.00977352 0.0412727
46 3 O 1.31634 12.9512 51.3023 -1.2 1 0.147728 0.0428274 0.00371358 0.00848051 0.00283712 0.0122509 0.00281152 0.0225077 0.00377798 0.0145712 0.00395549 0.0272947 0.00410535 0.0237587 0.00514417 0.0335478 0.00505168 0.0301685 0.00857493 0.0413772
47 3 O 1.13322 10.4421 57.9788 -1.2 1 0.0169405 0.0131758 0.00412604 0.00542897 0.00134207 0.00621464 0.00155808 0.0216097 0.00176985 0.00742844 0.00239988 0.0255308 0.00231461 0.0197067 0.00298894 0.0326481 0.00309298 0.0259082 0.0041792 0.0491366
48 3 O -0.115718 10.7564 50.681 -1.2 1 0.159811 0.0459317 0.00475984 0.0100394 0.00414499 0.0109236 0.00391251 0.0224584 0.00335324 0.0141962 0.00399553 0.0269249 0.00419155 0.0231241 0.00608657 0.0324329 0.00546376 0.0289651 0.010964 0.040023
49 1 Mg -3.26386 9.35564 52.3622 1.2 1 0.126125 0.040019 0.00206125 0.00709035 0.00240575 0.00954871 0.0034767 0.0214213 0.00278866 0.0124202 0.00424841 0.0262249 0.00366912 0.0212056 0.00487091 0.0322605 0.00461692 0.0270787 0.00870583 0.0399389
50 3 O 2.45216 10.7265 50.4558 -1.2 1 0.163709 0.0469912 0.00473191 0.00901811 0.00284543 0.0118231 0.00414216 0.0220752 0.00360242 0.0152878 0.00468783 0.0264262 0.00400997 0.0233951 0.00610857 0.0327882 0.00561967 0.0290254 0.0099988 0.0394419
51 1 Mg -1.93984 9.62895 55.2255 1.2 1 0.0556092 0.0274959 0.00515007 0.00530751 0.00167078 0.00629624 0.00223211 0.0213217 0.00220603 0.00902064 0.00264208 0.0261667 0.00274299 0.0204663 0.00266483 0.0331233 0.00422618 0.0263727 0.00574927 0.045867
52 2 Si -1.79065 7.42965 53.3661 2.4 1 0.099107 0.0364863 0.00230375 0.0063178 0.00301927 0.00675215 0.00287942 0.0207644 0.00296918 0.0108947 0.00348696 0.0253952 0.00341627 0.0205785 0.00366844 0.0315788 0.00556075 0.025293 0.00733651 0.0416626
53 3 O -1.81657 5.85074 53.4077 -1.2 1 0.0956417 0.0341093 0.00234674 0.00605297 0.00242914 0.00648106 0.00198626 0.0201051 0.00275614 0.00985793 0.00312307 0.0248322 0.00296511 0.0183084 0.00440823 0.0312787 0.00417362 0.024846 0.00787223 0.0408626
54 3 O -1.19417 8.46968 46.4488 -1.2 1 0.271575 0.0519591 0.0207178 0.0174239 0.00595791 0.0151191 0.00850513 0.0237268 0.00725096 0.0174497 0.00796378 0.0256003 0.00634284 0.0215136 0.00921986 0.0297445 0.0101983 0.0296782 0.0130967 0.0316435
55 3 O -3.09486 8.14277 53.9046 -1.2 1 0.0858445 0.0323587 0.00270935 0.0055573 0.0022148 0.00734369 0.0024275 0.0211022 0.00235184 0.0105563 0.00271104 0.0248985 0.00287275 0.020319 0.00332631 0.0325881 0.00456418 0.0261902 0.00713289 0.0429467
56 3 O -0.431651 8.05907 54.0322 -1.2 1 0.0770095 0.0319553 0.00402792 0.00551857 0.00234395 0.00609929 0.00209341 0.0212444 0.00186797 0.0100117 0.00270821 0.0247949 0.00310464 0.0200841 0.00367414 0.0328867 0.00423913 0.0267338 0.00719044 0.0441393
57 1 Mg -3.55515 16.5797 57.2455 1.2 1 0.0238727 0.0160436 0.00535262 0.00483385 0.00150723 0.00720381 0.00197109 0.0201315 0.00218563 0.00852273 0.00220651 0.0251007 0.00190601 0.0197295 0.00321678 0.0321102 0.00359551 0.0266047 0.00549755 0.0476135
58 1 Mg -1.6714 16.3544 49.8412 1.2 1 0.183286 0.0473615 0.0077682 0.0118715 0.003836 0.0152916 0.00295237 0.0245027 0.00337048 0.0179226 0.00460537 0.0295377 0.00426612 0.0262835 0.00728897 0.0343085 0.00598053 0.0322507 0.0103595 0.0402382
59 2 Si -1.18567 13.8526 47.9314 2.4 1 0.23821 0.0533488 0.0160028 0.0160464 0.00505935 0.0186082 0.00523025 0.0264456 0.0069856 0.0197893 0.00672963 0.0304866 0.00610166 0.0281591 0.00775464 0.0346 0.00963277 0.0338367 0.0131848 0.0381259
60 3 O -1.09664 15.4205 47.9915 -1.2 1 0.238256 0.0524529 0.0159545 0.0165361 0.00554446 0.0202629 0.00442821 0.026712 0.00639345 0.0201754 0.00729618 0.030449 0.00606438 0.0279995 0.00869248 0.0350786 0.0092755 0.0353944 0.0124558 0.0388246
61 3 O -1.73493 12.7491 51.7772 -1.2 1 0.137449 0.0412762 0.00337169 0.00872911 0.0037579 0.010505 0.00203576 0.0224551 0.00263044 0.0137169 0.00297631 0.0276467 0.00419522 0.0234547 0.00514528 0.0329809 0.00543205 0.0294519 0.00892962 0.0425667
62 3 O -2.36115 13.2717 48.8238 -1.2 1 0.207709 0.0519965 0.0104582 0.0133214 0.00512714 0.0145147 0.00453526 0.0251374 0.00505088 0.0188325 0.00510711 0.0294613 0.00508485 0.0262971 0.00676629 0.0347839 0.00786481 0.0325614 0.0118952 0.0384316
63 1 Mg -0.159928 11.7639 46.8533 1.2 1 0.261865 0.053197 0.0197438 0.0179992 0.00604869 0.0201038 0.0072893 0.0275016 0.008112 0.0194377 0.00805697 0.029939 0.00647409 0.0268457 0.00851475 0.0330104 0.0108757 0.0343286 0.0151606 0.0357407
64 3 O 0.2623 13.1866 48.413 -1.2 1 0.218014 0.0523971 0.01224 0.0141744 0.00462425 0.0165998 0.0043188 0.0252783 0.00571102 0.0187792 0.00559744 0.0287172 0.00540219 0.0279602 0.00634017 0.0339425 0.008607 0.0340442 0.0122752 0.0388476
65 1 Mg 1.15507 11.8692 54.811 1.2 1 0.0655871 0.0298971 0.00477794 0.00539046 0.0015508 0.00690775 0.0025433 0.020711 0.00241121 0.00977161 0.00226637 0.0258971 0.00343456 0.0216421 0.00357702 0.0342808 0.00351924 0.0268487 0.00625579 0.0456803
66 2 Si 1.09536 14.5546 56.4136 2.4 1 0.0326513 0.0198668 0.00556936 0.00534425 0.00138029 0.00733923 0.00213172 0.0209358 0.00224186 0.00815392 0.00307051 0.0250286 0.00210003 0.0207047 0.00381284 0.0325722 0.00381233 0.0269527 0.00596879 0.0488557
67 3 O 1.08728 12.941 56.4712 -1.2 1 0.033216 0.0197141 0.00557664 0.00547083 0.00118896 0.00665956 0.00176872 0.0209993 0.00314349 0.00790319 0.00224953 0.0257361 0.0023462 0.0199032 0.00342884 0.033432 0.00449083 0.0269136 0.00615671 0.0489815
68 3 O 1.36565 15.4813 52.729 -1.2 1 0.113883 0.0374467 0.00135482 0.00664012 0.00245579 0.011561 0.00253463 0.0222384 0.00203079 0.0137627 0.00351104 0.0271344 0.00424027 0.0234245 0.00495644 0.0336321 0.00385268 0.0298304 0.00750289 0.0435114
69 3 O -0.17981 15.26 55.8525 -1.2 1 0.0478507 0.0243964 0.00481908 0.00505867 0.00104208 0.00767013 0.00210919 0.0211858 0.00190238 0.00975359 0.00237186 0.0252343 0.0022929 0.0215049 0.00404422 0.0332681 0.00360562 0.0276588 0.00572417 0.0477354
70 3 O 2.4041 15.1922 55.8112 -1.2 1 0.0432518 0.0231699 0.0053801 0.00509854 0.00128448 0.00748643 0.00229027 0.0208861 0.00200134 0.00935667 0.00232083 0.0251022 0.00228327 0.0209427 0.00386356 0.0332887 0.00327344 0.0277554 0.00605937 0.0473322
71 1 Mg -0.206989 14.1049 52.2121 1.2 1 0.121793 0.0413269 0.00167474 0.00771273 0.00315457 0.00993583 0.00223156 0.0225456 0.00200788 0.0137646 0.00321879 0.0273639 0.00367384 0.0238816 0.00471071 0.0336581 0.00392932 0.0297565 0.00819382 0.0418931
72 1 Mg 1.82591 13.8102 49.4556 1.2 1 0.187983 0.0514117 0.00677948 0.0108711 0.00322312 0.0141994 0.00375354 0.0236255 0.00395426 0.0179274 0.0052942 0.0285146 0.00503965 0.0266766 0.00671923 0.0347597 0.00610213 0.0323118 0.0112797 0.0390614
73 2 Si 1.29285 16.1518 51.2434 2.4 1 0.148668 0.0450286 0.00280436 0.00919131 0.00273048 0.0134795 0.00297635 0.0233649 0.00270319 0.0160464 0.0047285 0.0270715 0.00423048 0.0260359 0.00590627 0.0333603 0.00417581 0.031805 0.0089732 0.0417408
74 3 O 1.39496 17.7199 51.3047 -1.2 1 0.145446 0.0422912 0.00317331 0.00837956 0.00185719 0.0132481 0.00257343 0.0226209 0.00285524 0.0155963 0.00360537 0.0276928 0.00405692 0.0246936 0.00536108 0.0338184 0.00496236 0.0310964 0.00811768 0.0417527
75 3 O 1.1223 15.2783 57.8846 -1.2 1 0.016532 0.0129161 0.00423204 0.00506762 0.00123641 0.00711381 0.00178202 0.0209293 0.00207227 0.00799804 0.00312444 0.0248605 0.00228414 0.019881 0.00357885 0.0320479 0.00372857 0.0263231 0.00560044 0.0484166
76 3 O -0.0269106 15.5178 50.6688 -1.2 1 0.159028 0.045549 0.00491619 0.0101578 0.00375919 0.0135762 0.00274737 0.0234904 0.00285064 0.0160698 0.00310534 0.0278586 0.00414667 0.0264252 0.00582246 0.033485 0.00476774 0.0317081 0.00922865 0.0409237
77 1 Mg -3.18391 14.1057 52.3125 1.2 1 0.12661 0.0406653 0.00227067 0.00749348 0.00256152 0.0115853 0.00224795 0.0222488 0.00220318 0.014145 0.00329239 0.027398 0.00372275 0.0243167 0.00464791 0.0329206 0.00384544 0.0294725 0.00732629 0.0415242
78 3 O 2.52432 15.503 50.4579 -1.2 1 0.163343 0.0470955 0.00506179 0.00920075 0.00244804 0.0138508 0.00321059 0.0239092 0.00285429 0.0176302 0.00392945 0.0276372 0.00417217 0.026752 0.00614661 0.0340827 0.00491448 0.0315568 0.00869384 0.0406303
79 1 Mg -1.79173 14.1963 55.1221 1.2 1 0.0541171 0.0272648 0.00493332 0.00547372 0.00157509 0.00719529 0.00239127 0.0213246 0.00243987 0.00970773 0.00330148 0.0260175 0.00243532 0.0217523 0.0041871 0.0334099 0.00408457 0.0277384 0.00631436 0.0469103
80 2 Si -1.7434 12.0004 53.334 2.4 1 0.0971027 0.0363634 0.00269503 0.00657155 0.00309744 0.00813092 0.00197658 0.0220419 0.00294184 0.0118477 0.00235485 0.0266659 0.00344838 0.0224398 0.00307534 0.0335965 0.00412192 0.0283276 0.00680868 0.044677
81 3 O -1.69591 10.5371 53.1895 -1.2 1 0.099665 0.0356092 0.00247458 0.00635298 0.00294202 0.00810704 0.00188721 0.0210339 0.00242813 0.0106433 0.00299604 0.0259562 0.00322532 0.020951 0.00439125 0.0335355 0.00415622 0.027558 0.00851554 0.0441502
82 3 O -1.21337 13.3381 46.4311 -1.2 1 0.272964 0.0521386 0.022043 0.0193724 0.00676942 0.0208915 0.00683721 0.0289214 0.00821411 0.0205749 0.00757591 0.0312777 0.00637826 0.0265681 0.00901301 0.0354218 0.0127631 0.0362164 0.0156733 0.0361861
83 3 O -3.10368 12.8677 53.9276 -1.2 1 0.0870193 0.0333641 0.00215601 0.00519146 0.00189753 0.00915323 0.00170012 0.0215247 0.00186375 0.0114359 0.00160729 0.0258882 0.00317261 0.02266 0.00327194 0.0337266 0.00378807 0.028016 0.00608465 0.0446907
84 3 O -0.479296 12.7251 54.0614 -1.2 1 0.0799488 0.0324286 0.00309661 0.00554498 0.00245658 0.00687643 0.00170389 0.0219206 0.00217808 0.011186 0.00248767 0.0256771 0.00284542 0.0226591 0.0034672 0.0338901 0.00358755 0.0283226 0.00658185 0.0454756
85 1 Mg -3.22978 21.2249 57.2356 1.2 1 0.0211204 0.0155464 0.0052404 0.00478158 0.00144779 0.00710044 0.00148515 0.0192668 0.00216552 0.00934007 0.00206806 0.0248669 0.00204935 0.0190882 0.00284299 0.0308461 0.00335313 0.0251943 0.00579688 0.0444235
86 1 Mg -1.5831 21.1217 49.8405 1.2 1 0.183124 0.0472914 0.00744294 0.0119758 0.00338068 0.0158032 0.00228004 0.0247164 0.0031011 0.017948 0.0048695 0.0294667 0.00424204 0.0255831 0.00614832 0.0342383 0.00568307 0.0326196 0.00974869 0.0391914
87 2 Si -1.09384 18.6291 47.9287 2.4 1 0.233395 0.0529558 0.0153952 0.0156588 0.00415071 0.0208397 0.00366283 0.0265632 0.00589369 0.020635 0.00617498 0.0310971 0.00616633 0.0286773 0.00684483 0.0356378 0.00903674 0.0352997 0.0117859 0.0396707
88 3 O -1.02071 20.1985 47.9911 -1.2 1 0.231711 0.051702 0.0145449 0.0162626 0.00462915 0.0207113 0.00372709 0.026491 0.00537345 0.0204108 0.00646937 0.0310181 0.00578924 0.0278831 0.00721241 0.0354067 0.00791426 0.0354638 0.0111757 0.0395355
89 3 O -1.65002 17.5002 51.771 -1.2 1 0.138269 0.0415579 0.00319731 0.0085901 0.00366166 0.0122255 0.00160999 0.0228023 0.00168041 0.0147944 0.00252324 0.0274211 0.00401729 0.0246044 0.00496593 0.0332161 0.00501795 0.0303732 0.00817241 0.0418619
90 3 O -2.26174 18.0434 48.8281 -1.2 1 0.208636 0.0527235 0.0104882 0.0136186 0.00418992 0.0172836 0.00319926 0.0263885 0.0040545 0.0203599 0.00430534 0.0304117 0.00510062 0.0278837 0.0061767 0.0356094 0.00693608 0.0346167 0.0105045 0.0393645
91 1 Mg -0.0440435 16.5651 46.8269 1.2 1 0.26176 0.0535573 0.0195473 0.0187914 0.00517509 0.0245932 0.00521225 0.0298915 0.00798514 0.0224821 0.00742933 0.0326495 0.00721285 0.0293209 0.00937956 0.0355936 0.0102596 0.0374742 0.013585 0.0396204
92 3 O 0.37001 17.9877 48.3925 -1.2 1 0.216809 0.0525266 0.0120089 0.0142689 0.00398808 0.0185779 0.00290904 0.0262685 0.00530039 0.0199799 0.0049648 0.0295377 0.00547143 0.0292664 0.00615115 0.0349778 0.00774266 0.0357 0.0110775 0.0402731
93 1 Mg 1.30592 16.6626 54.424 1.2 1 0.076014 0.0314455 0.00310625 0.00496221 0.00176166 0.00856317 0.00252028 0.0204361 0.00249341 0.0115847 0.00181088 0.026215 0.00376827 0.0230905 0.00393289 0.033906 0.00383048 0.0277649 0.00619952 0.0444409
94 2 Si 1.08516 19.2029 56.3121 2.4 1 0.0324545 0.0194676 0.00582021 0.0053646 0.00150684 0.0077303 0.0017396 0.0196298 0.00261512 0.0084312 0.00253814 0.0239984 0.00221472 0.0202737 0.00358091 0.0317173 0.00371934 0.0260729 0.0061654 0.0466474
95 3 O 1.17597 17.7108 56.443 -1.2 1 0.0323237 0.0191638 0.00580716 0.00498617 0.0015156 0.00718963 0.00155864 0.0202099 0.00291773 0.00845071 0.0021378 0.0250051 0.00216855 0.0200058 0.00348893 0.0324206 0.00480169 0.0268854 0.00629646 0.047421
96 3 O 1.45147 20.239 52.7294 -1.2 1 0.111687 0.0367346 0.00154599 0.00632166 0.00194646 0.0119851 0.0019581 0.0216929 0.00184106 0.0142294 0.00302585 0.0262992 0.00361662 0.0228167 0.00424612 0.0324465 0.00409828 0.0293995 0.00704934 0.0419265
97 3 O -0.13272 19.9106 55.6873 -1.2 1 0.0488839 0.0243621 0.00503087 0.00484298 0.00154516 0.00766573 0.00199968 0.0207552 0.00219137 0.0106102 0.00209622 0.0243608 0.00234282 0.0208272 0.00403064 0.0318958 0.00348188 0.0273041 0.00598295 0.045182
98 3 O 2.26606 20.0218 55.6918 -1.2 1 0.0435499 0.0230468 0.0062203 0.00474869 0.00123248 0.00730044 0.00233764 0.0196225 0.00255088 0.00977373 0.00245071 0.0245398 0.00236123 0.0203486 0.00356304 0.0319812 0.00322146 0.0264569 0.00616124 0.0446768
99 1 Mg -0.126194 18.8651 52.2079 1.2 1 0.118712 0.0405293 0.00177676 0.00756034 0.00294408 0.0106033 0.00158108 0.0224833 0.00199541 0.0148605 0.00263884 0.0271425 0.00367797 0.0239449 0.00443122 0.0329982 0.00385577 0.0301507 0.00804268 0.0421908
100 1 Mg 1.92402 18.5815 49.4545 1.2 1 0.185783 0.0516803 0.00641119 0.0109799 0.0018979 0.0152375 0.0033213 0.0243773 0.003077 0.0193422 0.00414343 0.0290644 0.00484514 0.0275266 0.00542553 0.03531 0.00563273 0.0335362 0.0100344 0.0398165
101 2 Si 1.38106 20.9117 51.2443 2.4 1 0.142541 0.0436874 0.00241617 0.00908706 0.00221164 0.0132748 0.00246842 0.0230829 0.00280144 0.0165556 0.00444351 0.0267035 0.00379049 0.0248477 0.00463354 0.0326554 0.00448347 0.0313889 0.00829496 0.0410273
102 3 O 1.48527 22.4795 51.3054 -1.2 1 0.142652 0.0418959 0.00266866 0.00820711 0.00175506 0.0127754 0.00236035 0.0225875 0.0027163 0.0154982 0.0035558 0.0273023 0.00378155 0.0237224 0.00472396 0.0331846 0.00500934 0.0308099 0.00790964 0.0411856
103 3 O 1.25986 19.8622 57.9191 -1.2 1 0.014477 0.0123651 0.00407045 0.00483205 0.00168258 0.00694752 0.00151651 0.0201428 0.00201743 0.00815646 0.00244101 0.0240527 0.0022587 0.0195641 0.00302789 0.0312651 0.00357946 0.0256539 0.00588192 0.0461088
104 3 O 0.0615419 20.2804 50.6669 -1.2 1 0.157743 0.0454057 0.00457663 0.0103616 0.00354342 0.0141707 0.00277665 0.0232339 0.00261272 0.016123 0.00337196 0.0276308 0.00367983 0.0257145 0.0055547 0.032808 0.00387993 0.0317877 0.00888132 0.0408502
105 1 Mg -3.09665 18.8643 52.3122 1.2 1 0.123578 0.0396478 0.0018784 0.00732256 0.00217263 0.0122545 0.00179434 0.021817 0.00172046 0.0146499 0.00262734 0.0268561 0.00345494 0.0239597 0.00366407 0.0327484 0.00434356 0.0297758 0.0071061 0.0408063
106 3 O 2.61548 20.2646 50.4626 -1.2 1 0.161089 0.0471119 0.00426752 0.00943557 0.00161813 0.014325 0.00286318 0.0235595 0.00238944 0.0176892 0.00362596 0.0278004 0.00369952 0.0256846 0.00528384 0.0336531 0.00458055 0.0318541 0.00882721 0.0400552
107 1 Mg -2.09964 18.8134 55.3001 1.2 1 0.0527729 0.0261911 0.00552139 0.00495251 0.00156695 0.00757288 0.00222987 0.0207548 0.00195967 0.0105666 0.00192779 0.0248804 0.0021676 0.0215866 0.00357223 0.0322476 0.00401234 0.0271731 0.00654303 0.0446982
108 2 Si -1.71379 16.8302 53.252 2.4 1 0.101417 0.0374502 0.00198642 0.00649197 0.00297907 0.00903951 0.00191631 0.0215954 0.00238262 0.0125818 0.00234078 0.0261869 0.00316161 0.0239663 0.003782 0.0337932 0.00433035 0.0295324 0.00696043 0.0434735
109 3 O -1.6031 15.2828 53.1911 -1.2 1 0.100643 0.0361951 0.00222412 0.00638178 0.00293314 0.00905856 0.00153264 0.0212365 0.00234321 0.0121722 0.00267139 0.0265292 0.00309851 0.0231245 0.00493577 0.0334514 0.00323845 0.0289167 0.00811669 0.0443448
110 3 O -1.12868 18.1227 46.4249 -1.2 1 0.271516 0.0531417 0.0212224 0.0199566 0.0052955 0.0242825 0.00501049 0.0306412 0.00661347 0.0221664 0.00651806 0.0332557 0.00704334 0.0274706 0.00917678 0.0371903 0.0119397 0.0384606 0.0142535 0.0398555
111 3 O -3.0535 17.5341 53.8968 -1.2 1 0.0873314 0.0332799 0.00263824 0.00517398 0.00186582 0.00980676 0.00144323 0.0210543 0.00186959 0.0120699 0.00156182 0.0254266 0.00325231 0.0231667 0.00306317 0.033243 0.00431539 0.0283648 0.00629941 0.0433807
112 3 O -0.430247 17.4429 53.9798 -1.2 1 0.0812709 0.0327662 0.00348538 0.00516206 0.00279051 0.00772141 0.00166321 0.0217748 0.00148518 0.0118674 0.00217234 0.0254178 0.00303595 0.0232155 0.00371628 0.0333906 0.00406772 0.0289992 0.00694013 0.0445163
113 1 Mg -3.25011 25.947 57.5431 1.2 1 0.0160189 0.0145824 0.00404088 0.00492686 0.00148215 0.0064143 0.000739339 0.0202105 0.00146219 0.00938907 0.00224245 0.0251225 0.0021232 0.0186062 0.00227529 0.0313657 0.00374579 0.0253467 0.00458878 0.044672
114 1 Mg -1.48778 25.88 49.8402 1.2 1 0.180665 0.0465948 0.00702654 0.0119296 0.00327797 0.0152971 0.00239278 0.0250174 0.00336852 0.0172944 0.00487023 0.0297302 0.00395108 0.0246969 0.00645847 0.0345493 0.00546203 0.0319651 0.00930066 0.0406127
115 2 Si -1.00491 23.3922 47.9274 2.4 1 0.235795 0.0522173 0.0149663 0.0167692 0.00408659 0.021239 0.00395648 0.0267785 0.00557265 0.0200497 0.00630062 0.0312515 0.00610078 0.0284669 0.00677806 0.0355828 0.0084936 0.035168 0.0118722 0.0398168
116 3 O -0.927602 24.9615 47.9909 -1.2 1 0.234167 0.0508409 0.014071 0.0168586 0.00405145 0.0207534 0.00354694 0.0265584 0.00547843 0.0197363 0.00684792 0.0309312 0.00617846 0.0272923 0.00804044 0.0356238 0.00776717 0.0348056 0.011688 0.0404721
117 3 O -1.55795 22.2588 51.7696 -1.2 1 0.136867 0.0414258 0.00300424 0.00866424 0.00332253 0.0123131 0.00142914 0.022519 0.0020333 0.0148033 0.00306743 0.0271403 0.00358595 0.0232686 0.00435514 0.0326232 0.00533677 0.0301619 0.00764171 0.0411651
118 3 O -2.17411 22.8111 48.8277 -1.2 1 0.204942 0.051296 0.0100142 0.0137307 0.0035633 0.0173878 0.00314039 0.0260169 0.00375427 0.0195472 0.0045621 0.0300008 0.0046623 0.0266389 0.0058765 0.0348931 0.00655953 0.0341387 0.0101723 0.0392348
119 1 Mg 0.0423997 21.3296 46.8225 1.2 1 0.263012 0.0529365 0.0191063 0.0194072 0.00483565 0.0253589 0.00557491 0.0300675 0.00696944 0.0225356 0.00793945 0.0331444 0.00738445 0.0290157 0.00932948 0.0358568 0.00958484 0.0378976 0.0137338 0.0399135
120 3 O 0.458537 22.7495 48.3911 -1.2 1 0.212957 0.0511495 0.0108262 0.0146144 0.00365745 0.0182963 0.00265376 0.0263525 0.00463265 0.0197565 0.00490658 0.0300041 0.00536375 0.0279856 0.005548 0.0345948 0.00754034 0.0352512 0.0109087 0.0411127