ITEM: TIMESTEP
34600
ITEM: NUMBER OF ATOMS
10500
ITEM: BOX BOUNDS xy xz yz pp pp pp
0	8.9688	2.9896
0	118.725	0
0	252.977	0
ITEM: ATOMS id type element xu yu zu q Q_1 Q_2 Q_3 Q_4 Q_5 Q_6 Q_7 Q_8 Q_9 Q_10 Q_11 Q_12 Q_13 Q_14 Q_15 Q_16 Q_17 Q_18 Q_19 Q_20 Q_21
1 1 Mg -3.20651 7.25701 57.5674 1.2 1 0.0205551 0.0142879 0.00441782 0.00569808 0.00116193 0.00704748 0.0012507 0.021554 0.00186399 0.00869068 0.00181317 0.027992 0.00291053 0.0184049 0.00231292 0.0319711 0.00252832 0.025873 0.00412709 0.0457577
2 1 Mg -1.82655 6.90154 50.0912 1.2 1 0.177746 0.0476234 0.00615674 0.0103138 0.00329526 0.00891684 0.00433631 0.0221833 0.0051579 0.0138743 0.00454408 0.0256404 0.0045276 0.020228 0.00653996 0.0286516 0.00564874 0.0261063 0.00860194 0.033439
3 2 Si -0.257935 3.96038 48.0876 2.4 1 0.223015 0.0530714 0.0113574 0.0123774 0.00248267 0.00956511 0.00370678 0.020457 0.00606369 0.0167633 0.00440018 0.0245255 0.00511388 0.0204333 0.00550223 0.0269145 0.00696384 0.0257556 0.00840086 0.0313955
4 3 O -0.335812 5.46814 47.6264 -1.2 1 0.232261 0.0527515 0.0131826 0.0137819 0.00334405 0.0106619 0.00479066 0.0210708 0.00673481 0.0171252 0.00482277 0.0252066 0.00479737 0.0208394 0.00574551 0.0270763 0.00747997 0.0263125 0.00918325 0.0303211
5 3 O -2.03793 3.43377 51.8941 -1.2 1 0.127252 0.0416489 0.00236478 0.00706304 0.00217648 0.00718543 0.00279097 0.0207074 0.00286787 0.0113165 0.00293503 0.0250625 0.00370469 0.0180556 0.00385109 0.0291004 0.00490253 0.0250388 0.00742219 0.0360762
6 3 O -1.54015 3.53929 48.9521 -1.2 1 0.203022 0.0525272 0.00907002 0.0108929 0.00272765 0.00845329 0.00387332 0.0204919 0.00545608 0.0152943 0.00452285 0.0241796 0.00418564 0.0202122 0.00602232 0.0276387 0.00554981 0.025179 0.00801823 0.0312302
7 1 Mg 1.82954 2.54582 47.1376 1.2 1 0.246714 0.053234 0.0161225 0.0155895 0.0034554 0.0113125 0.00382527 0.0203686 0.00622151 0.0157955 0.0050753 0.0242152 0.00625528 0.019704 0.00781497 0.025437 0.00654508 0.0241141 0.00830697 0.0298315
8 3 O 1.22989 3.66364 48.7877 -1.2 1 0.203682 0.0503829 0.00920846 0.0119135 0.0022904 0.00936413 0.00414999 0.0202701 0.00431916 0.0147397 0.00381334 0.0241292 0.00455541 0.0197642 0.00628355 0.0271832 0.00463542 0.0250661 0.00862737 0.0324155
9 1 Mg 0.895665 2.3978 54.5535 1.2 1 0.0684751 0.0308214 0.00444433 0.00509621 0.0016577 0.00558746 0.00266601 0.0213431 0.00261478 0.00991937 0.00290517 0.0262672 0.00329953 0.0192101 0.0043055 0.0312666 0.00272697 0.0254467 0.00619149 0.041053
10 2 Si 1.27165 5.05584 56.5544 2.4 1 0.0292433 0.0188428 0.00525924 0.00578124 0.00133315 0.00687048 0.00169421 0.0213088 0.00225942 0.00848172 0.0024395 0.0267064 0.00251225 0.0187936 0.00335165 0.0313037 0.003082 0.0259336 0.0050816 0.0445013
11 3 O 1.08485 3.51633 56.734 -1.2 1 0.0271011 0.0182009 0.00504638 0.00566617 0.00144013 0.00657814 0.00232656 0.0214759 0.0028726 0.0085774 0.00175454 0.0265557 0.00250705 0.0187015 0.00294704 0.0314645 0.0036251 0.0264585 0.00465085 0.0439211
12 3 O 1.10813 6.07342 52.8172 -1.2 1 0.105789 0.0367554 0.00233166 0.00692142 0.00205557 0.00758938 0.00300254 0.0219996 0.00339611 0.0107643 0.00315123 0.0261974 0.00374735 0.0185077 0.00495092 0.0299639 0.00411889 0.0259777 0.00684499 0.0382607
13 3 O 0.0869154 5.82918 55.8571 -1.2 1 0.0434148 0.0238377 0.00531899 0.00514948 0.00144445 0.00597718 0.00213529 0.0209276 0.00248617 0.00922596 0.00261487 0.0267412 0.00271121 0.0186952 0.0035153 0.0318257 0.00310124 0.0257509 0.00507843 0.042964
14 3 O 2.49511 5.65532 55.8068 -1.2 1 0.0414592 0.0237602 0.00615867 0.00512008 0.00112291 0.00657673 0.00233169 0.0214791 0.00164292 0.00892561 0.00287539 0.0266828 0.00314793 0.0188939 0.00458961 0.0327486 0.00301665 0.0267468 0.00594676 0.0438374
15 1 Mg -0.459401 4.67631 52.2426 1.2 1 0.122412 0.0412874 0.00221674 0.00699752 0.0023635 0.00691746 0.00235536 0.021161 0.00333189 0.0118224 0.00266208 0.0259421 0.00371337 0.0189147 0.00428635 0.0295426 0.00443311 0.0252285 0.00661506 0.0357398
16 1 Mg 2.79456 3.9971 49.9987 1.2 1 0.175348 0.0499999 0.00556122 0.00999853 0.00291378 0.00791779 0.00445184 0.021012 0.00353078 0.0145341 0.00292365 0.0247178 0.00433059 0.0202637 0.00618698 0.0284952 0.00442517 0.0256305 0.00890732 0.0324242
17 2 Si 1.16169 6.59457 51.2556 2.4 1 0.146875 0.0453737 0.00253988 0.00901203 0.00260682 0.00844352 0.00401447 0.021867 0.00427494 0.0128107 0.00435273 0.025224 0.00445671 0.020039 0.00664653 0.030055 0.00486448 0.0263025 0.0090312 0.0358273
18 3 O 1.28989 8.18905 51.2909 -1.2 1 0.143959 0.0436561 0.00240228 0.00905075 0.00230521 0.00944341 0.00356845 0.0224227 0.00440762 0.0123061 0.0036537 0.0267236 0.00436114 0.0202353 0.00470754 0.029892 0.00582635 0.0266618 0.00786534 0.0377657
19 3 O 1.31754 5.76916 57.9935 -1.2 1 0.0151488 0.0115594 0.00323893 0.00558429 0.00106112 0.00723002 0.00132478 0.0213573 0.00201562 0.00838654 0.00236739 0.0270849 0.00237872 0.0186297 0.00275529 0.0321472 0.00238736 0.0262494 0.00384957 0.0455622
20 3 O -0.184847 6.06029 50.6845 -1.2 1 0.161885 0.0455176 0.00510551 0.00950346 0.00318228 0.00810134 0.00427811 0.0220102 0.004564 0.0131143 0.00317285 0.0250538 0.00396072 0.0196603 0.00589103 0.0281623 0.00502086 0.0256699 0.00814566 0.0347545
21 1 Mg -3.49704 4.67769 52.6661 1.2 1 0.113989 0.0389069 0.00161091 0.00654434 0.0020778 0.00734844 0.00283902 0.0207192 0.00366228 0.0108479 0.00325609 0.0257745 0.00356576 0.0184295 0.00388933 0.0292923 0.00381353 0.0250978 0.00695056 0.0371537
22 3 O 2.48581 5.93312 50.6539 -1.2 1 0.1564 0.0467453 0.00368425 0.00839807 0.00178623 0.00861316 0.00414978 0.02174 0.0040469 0.0133707 0.00379663 0.0248588 0.00436181 0.0202783 0.0061348 0.0292021 0.00451448 0.0261293 0.00868947 0.034527
23 1 Mg -1.7222 4.83956 55.3051 1.2 1 0.0491979 0.0263372 0.00608528 0.00540559 0.00176921 0.00601382 0.00194515 0.0211589 0.00290305 0.00931361 0.0026392 0.0272283 0.00240533 0.019422 0.00327693 0.0315333 0.00318488 0.0263558 0.00546286 0.0419563
24 2 Si -1.98881 2.62219 53.3376 2.4 1 0.0975031 0.0361761 0.00263949 0.00594514 0.00239962 0.0064618 0.00230474 0.0209797 0.00279617 0.0107769 0.00275647 0.0251929 0.00312 0.0193481 0.0030832 0.0299083 0.00387899 0.0251668 0.00627588 0.0385871
25 3 O -1.95141 1.12651 53.2565 -1.2 1 0.0964566 0.035567 0.0023394 0.00612656 0.00302834 0.00608943 0.002037 0.0207024 0.00262616 0.0104289 0.00283515 0.0259827 0.00299066 0.0186613 0.00399954 0.0302956 0.00387768 0.0245383 0.0066426 0.0387909
26 3 O -0.0467762 2.97103 46.8385 -1.2 1 0.251518 0.0538761 0.0165661 0.0150799 0.00311619 0.0099913 0.00402465 0.020219 0.00701892 0.0167709 0.00603774 0.0243127 0.00675904 0.0192037 0.00859016 0.0255627 0.00675107 0.0245482 0.0092217 0.0306096
27 3 O -3.2374 3.20003 53.9984 -1.2 1 0.0806013 0.0333413 0.00367157 0.00505435 0.00173898 0.00602341 0.00232704 0.0207998 0.00291217 0.0100737 0.00203996 0.0257516 0.00280942 0.0191862 0.00319057 0.030795 0.00335746 0.0250953 0.00585375 0.0396812
28 3 O -0.701644 3.38094 54.0107 -1.2 1 0.0800173 0.0328445 0.00326387 0.00524494 0.00215678 0.00621747 0.00185134 0.0211603 0.00279556 0.0104096 0.0021113 0.02585 0.00300678 0.0195643 0.0030176 0.030791 0.0033844 0.0258153 0.00576108 0.0394851
29 1 Mg -3.16656 11.6799 57.5111 1.2 1 0.0210361 0.0144126 0.00448743 0.00577722 0.00129273 0.0062789 0.00154159 0.0227083 0.00174593 0.00866846 0.00169992 0.0291456 0.0027357 0.018502 0.0027224 0.0330031 0.00297272 0.026698 0.00436335 0.0491669
30 1 Mg -1.75014 11.5838 49.8362 1.2 1 0.180929 0.0467421 0.00732024 0.012078 0.00402489 0.0122941 0.00432311 0.0247301 0.00582115 0.0150072 0.0052695 0.0287539 0.00480048 0.0226424 0.00722385 0.0323318 0.00671881 0.0282145 0.00901796 0.0382717
31 2 Si -1.18003 9.02138 47.9309 2.4 1 0.239295 0.0508686 0.0146332 0.0152974 0.00499899 0.0130166 0.00753195 0.0229284 0.00826072 0.0164247 0.00695787 0.0264112 0.00512929 0.0220266 0.00683749 0.0296025 0.00860197 0.0274924 0.0114658 0.0337635
32 3 O -1.23224 10.5991 47.9811 -1.2 1 0.228119 0.0514022 0.0125016 0.0152737 0.00496401 0.0139365 0.00607148 0.0241708 0.00782725 0.0166954 0.00675722 0.0277226 0.00522453 0.0233659 0.00769384 0.0318399 0.00844409 0.0293411 0.00994734 0.0347804
33 3 O -1.79016 8.01447 51.8693 -1.2 1 0.132269 0.0406092 0.00207209 0.00882819 0.00331027 0.00798654 0.00279277 0.0220637 0.00365826 0.0118185 0.00363363 0.0268641 0.00399084 0.0193613 0.00480032 0.0301292 0.00546323 0.0258565 0.00845599 0.038061
34 3 O -2.30986 8.37215 48.8528 -1.2 1 0.203333 0.0511268 0.00873171 0.0120126 0.00395414 0.0105294 0.00588964 0.0234444 0.00627482 0.0163116 0.00455036 0.0263949 0.00429028 0.0218336 0.00569039 0.0300957 0.00657893 0.0275108 0.0089258 0.0334081
35 1 Mg 0.154883 7.08234 46.8007 1.2 1 0.25797 0.0521782 0.0173507 0.0162499 0.00551165 0.0132999 0.00833837 0.0234177 0.00810624 0.0169747 0.00684394 0.0254055 0.00687737 0.0209468 0.00881609 0.0288514 0.0094727 0.0280563 0.0122584 0.0310868
36 3 O 0.325447 8.50934 48.3809 -1.2 1 0.217982 0.0522132 0.0107218 0.0138814 0.00377007 0.0120104 0.00613447 0.0238867 0.00663368 0.0162233 0.00561141 0.025843 0.00495554 0.0229428 0.00610873 0.0294773 0.00704476 0.0281463 0.0104225 0.0336279
37 1 Mg 1.1997 7.2341 54.6439 1.2 1 0.0663596 0.0291348 0.00447365 0.00589156 0.00171081 0.00660149 0.00213268 0.0213991 0.00266892 0.00984034 0.00280489 0.0268744 0.00335268 0.0193053 0.00366571 0.0317468 0.00367901 0.0255762 0.00627205 0.0423351
38 2 Si 1.19432 9.94076 56.4549 2.4 1 0.0308772 0.0184425 0.00536479 0.00692175 0.000733693 0.00645941 0.00206035 0.0216634 0.00187732 0.00846503 0.00326299 0.0278091 0.0027211 0.0192635 0.00505158 0.0321864 0.00349504 0.0257903 0.00576642 0.0484983
39 3 O 1.23307 8.29349 56.4395 -1.2 1 0.0354964 0.0202564 0.00549196 0.00623368 0.00102795 0.0061341 0.00164111 0.0210983 0.00299442 0.00826078 0.00193564 0.0275825 0.00353531 0.0183067 0.0025894 0.0322069 0.00423751 0.0253492 0.00545559 0.0458513
40 3 O 1.28624 10.7248 52.7351 -1.2 1 0.109917 0.0366631 0.00178617 0.00799803 0.00175865 0.00968876 0.00264994 0.0231539 0.00352343 0.0113762 0.00379204 0.0278122 0.00442886 0.0206371 0.00470215 0.0311513 0.00440919 0.0271688 0.00682566 0.0416688
41 3 O -0.0398382 10.5281 55.7757 -1.2 1 0.0487136 0.0243322 0.00511064 0.00645488 0.000960776 0.0065815 0.00194444 0.0222167 0.00179345 0.00917824 0.0027469 0.0275564 0.00294072 0.0197289 0.00397061 0.0326591 0.0035886 0.0266479 0.00588607 0.0470293
42 3 O 2.56316 10.5433 55.7784 -1.2 1 0.0438102 0.0235047 0.00612716 0.00616729 0.000858679 0.00649435 0.00249483 0.0225761 0.00198927 0.00911628 0.00277965 0.0277274 0.00283618 0.0195734 0.00339303 0.0331489 0.00344526 0.0272608 0.00624721 0.0477835
43 1 Mg -0.262694 9.34741 52.2523 1.2 1 0.113243 0.039934 0.00280608 0.00848021 0.00262689 0.00817006 0.0021446 0.0231275 0.00366524 0.0114468 0.00345505 0.0279921 0.00385378 0.0202264 0.00511925 0.0310685 0.00461034 0.0269425 0.00739911 0.0397024
44 1 Mg 1.87648 9.01537 49.4629 1.2 1 0.183404 0.0510137 0.00536599 0.0109205 0.00262294 0.0106807 0.00567085 0.0230508 0.00560212 0.0154361 0.0046349 0.0269283 0.00490828 0.022495 0.00616712 0.0306074 0.00538661 0.0281157 0.00953128 0.0352065
45 2 Si 1.21415 11.3799 51.2378 2.4 1 0.14888 0.0456838 0.00223327 0.010408 0.00240795 0.0108675 0.00347828 0.0238738 0.00486696 0.0138517 0.00483989 0.0273259 0.00454601 0.0230582 0.00603225 0.0319986 0.00519265 0.0285504 0.00899248 0.0405253
46 3 O 1.31634 12.9512 51.3023 -1.2 1 0.142496 0.0424116 0.00263012 0.00948159 0.00213781 0.0112625 0.00314479 0.0244255 0.00454304 0.013701 0.00378281 0.0291079 0.00427034 0.02305 0.00529091 0.0328237 0.00545239 0.0286206 0.00775635 0.0414948
47 3 O 1.16106 10.5128 57.9287 -1.2 1 0.0171128 0.0123431 0.0036156 0.00597793 0.00069761 0.00682326 0.00164083 0.0224887 0.00167994 0.00822218 0.00271121 0.0284951 0.00245003 0.0185942 0.00221764 0.0324357 0.00235247 0.0259829 0.00433548 0.0491745
48 3 O -0.115718 10.7564 50.681 -1.2 1 0.1556 0.0454483 0.00350014 0.0106965 0.00334791 0.0105117 0.00359444 0.0240907 0.00475424 0.0133502 0.00368985 0.0277942 0.00467607 0.0222528 0.0062062 0.0311148 0.00517681 0.0278603 0.00882038 0.0392064
49 1 Mg -3.26386 9.35564 52.3622 1.2 1 0.122076 0.0390591 0.00160706 0.00800037 0.00205378 0.00965523 0.00309902 0.0228735 0.00401759 0.0119939 0.00405859 0.0273722 0.00367076 0.0202729 0.00497131 0.0310792 0.00455433 0.0269053 0.00781962 0.0387494
50 3 O 2.45216 10.7265 50.4558 -1.2 1 0.163725 0.0474461 0.00419 0.00980808 0.00211138 0.0111771 0.0043358 0.0233438 0.00533029 0.0149573 0.00439489 0.0274293 0.00412519 0.0230456 0.00633214 0.0317814 0.00542819 0.0282569 0.00896765 0.0382687
51 1 Mg -1.70536 9.50677 55.2175 1.2 1 0.0540243 0.0266864 0.00564797 0.0063246 0.00193833 0.00645209 0.00203273 0.0224225 0.00270483 0.00927102 0.0032237 0.0277592 0.00258089 0.0197357 0.00387251 0.0320876 0.0041975 0.0265792 0.00667739 0.0454562
52 2 Si -1.79672 7.3921 53.3054 2.4 1 0.0971109 0.0360218 0.00288043 0.0070584 0.00284544 0.00720817 0.00257954 0.0218231 0.00394892 0.0108736 0.00338219 0.0266864 0.00320097 0.0200152 0.00336338 0.0303999 0.00475048 0.0257102 0.00654954 0.0402841
53 3 O -1.90921 5.88246 53.2728 -1.2 1 0.0953029 0.0343464 0.00239501 0.0060642 0.00201436 0.00689874 0.00205921 0.0208792 0.00348783 0.0100348 0.00332791 0.0258528 0.00319239 0.0186706 0.00453866 0.0308505 0.00335844 0.0256102 0.00654581 0.0391973
54 3 O -1.19417 8.46968 46.4488 -1.2 1 0.271024 0.0518928 0.0197941 0.0180528 0.0053961 0.0145689 0.00864491 0.0244216 0.00820556 0.0168827 0.00723673 0.0258375 0.006244 0.020875 0.00943845 0.0301915 0.0100174 0.0294608 0.0115572 0.0309054
55 3 O -3.15784 8.14885 53.9733 -1.2 1 0.0821022 0.0312443 0.00306156 0.00623492 0.00181395 0.0078965 0.00204056 0.0219711 0.0029055 0.0102294 0.00249701 0.0265451 0.00307891 0.0195758 0.00375173 0.0312351 0.00403369 0.0258932 0.00688046 0.0415572
56 3 O -0.594278 8.12858 54.038 -1.2 1 0.0744013 0.0308144 0.00459928 0.00614115 0.00219095 0.00633302 0.00138649 0.0219726 0.00285668 0.00974117 0.00248972 0.0267424 0.00291454 0.0197083 0.00387925 0.0313334 0.00398198 0.0262461 0.00680201 0.0423329
57 1 Mg -3.03486 16.4356 57.3809 1.2 1 0.0208174 0.0149964 0.00483614 0.00533831 0.00108924 0.00613225 0.00158426 0.0230727 0.00176662 0.00920238 0.00172828 0.029148 0.00202768 0.0192051 0.00219119 0.0330854 0.00303535 0.0263342 0.00424988 0.0500932
58 1 Mg -1.6714 16.3544 49.8412 1.2 1 0.180304 0.0479156 0.00696166 0.0125915 0.00295105 0.0146664 0.00335323 0.0260189 0.00474676 0.0168651 0.00470583 0.0308415 0.00390812 0.0257324 0.00674446 0.0346799 0.00589926 0.0309039 0.0091108 0.0409212
59 2 Si -1.18567 13.8526 47.9314 2.4 1 0.234214 0.0527074 0.0144816 0.0166129 0.0043748 0.0180033 0.00498301 0.0273111 0.00837315 0.0190838 0.00588316 0.0305191 0.00551673 0.0278126 0.00646664 0.0341587 0.00898724 0.0319898 0.0105962 0.0380455
60 3 O -1.09664 15.4205 47.9915 -1.2 1 0.231042 0.0521055 0.0141163 0.0169174 0.00444665 0.0189788 0.00439811 0.0276621 0.00781841 0.0194069 0.005972 0.0309985 0.00549377 0.0272587 0.00773675 0.0352527 0.00888654 0.0333432 0.0101443 0.0390156
61 3 O -1.73493 12.7491 51.7772 -1.2 1 0.134762 0.0408065 0.00215188 0.0100544 0.00318798 0.0100392 0.00149765 0.0242749 0.00412032 0.0130934 0.00339772 0.0290938 0.00384497 0.0223863 0.00506085 0.0325391 0.00543837 0.0276749 0.00762378 0.042286
62 3 O -2.36115 13.2717 48.8238 -1.2 1 0.204887 0.0519724 0.00943927 0.0139486 0.00446364 0.0139707 0.00451195 0.0266088 0.00653787 0.018425 0.00523979 0.0301487 0.00443446 0.0261203 0.00589923 0.0338781 0.00733623 0.0310706 0.00941739 0.0381157
63 1 Mg -0.159928 11.7639 46.8533 1.2 1 0.258764 0.0523053 0.0179047 0.0183521 0.00543586 0.0194321 0.00712516 0.0283011 0.00959814 0.0191386 0.0074615 0.0302241 0.00641456 0.0263699 0.00762513 0.0329773 0.0104054 0.032609 0.0125565 0.0353784
64 3 O 0.2623 13.1866 48.413 -1.2 1 0.212716 0.0518942 0.0108099 0.0146537 0.00386626 0.0154393 0.00415798 0.0264164 0.0075261 0.0178244 0.00476894 0.0291628 0.00484008 0.0273087 0.00520589 0.0333966 0.00795785 0.0318972 0.00985057 0.0386124
65 1 Mg 1.27012 11.73 54.4664 1.2 1 0.0755469 0.0313258 0.00341089 0.00632026 0.00190707 0.00743371 0.00222662 0.0223205 0.00279196 0.010498 0.00234383 0.0284169 0.00378341 0.0210401 0.00329954 0.0327481 0.00409154 0.026391 0.00565503 0.0446326
66 2 Si 1.34215 14.3866 56.3838 2.4 1 0.0351809 0.0203211 0.00526533 0.0060526 0.00105063 0.00612224 0.00171207 0.0226971 0.00196203 0.00863381 0.00313418 0.0277117 0.00246571 0.0196588 0.0035573 0.0332383 0.00380151 0.0269101 0.00576395 0.0506584
67 3 O 1.28044 12.8407 56.5555 -1.2 1 0.0300366 0.0183869 0.00514063 0.00599484 0.000989598 0.0059428 0.0020341 0.0223111 0.00284087 0.00808919 0.00191661 0.0285981 0.00312056 0.0185713 0.00287576 0.0327917 0.00444594 0.026499 0.00543325 0.0498752
68 3 O 1.36565 15.4813 52.729 -1.2 1 0.109771 0.0373068 0.000920653 0.00789383 0.00152393 0.0104212 0.00274969 0.0244259 0.00325459 0.0128349 0.00332519 0.0291362 0.00377354 0.0220642 0.00406782 0.0330287 0.00469725 0.0287501 0.00675141 0.0448687
69 3 O 0.0373748 15.075 55.678 -1.2 1 0.0502409 0.0252732 0.0043093 0.00572274 0.000841061 0.00630674 0.00203582 0.0227599 0.00184188 0.00968624 0.0022355 0.0279984 0.00282695 0.0206034 0.00290154 0.0337575 0.00362685 0.0272958 0.00533664 0.0486428
70 3 O 2.54864 15.0989 55.693 -1.2 1 0.044071 0.0244044 0.00568288 0.0057602 0.000958917 0.00626878 0.00216437 0.0231777 0.00203735 0.00951548 0.00253888 0.0278154 0.00259797 0.0203155 0.00322419 0.0337625 0.00375296 0.0278 0.0059966 0.049547
71 1 Mg -0.206989 14.1049 52.2121 1.2 1 0.11734 0.0409168 0.00140602 0.00882271 0.00246229 0.00901935 0.00217904 0.0244644 0.00357701 0.0130529 0.00351692 0.0294501 0.00346266 0.0225366 0.00436426 0.0328015 0.00441989 0.0284444 0.00698847 0.0428851
72 1 Mg 1.82591 13.8102 49.4556 1.2 1 0.187113 0.0523912 0.00581838 0.0122191 0.00243257 0.0133724 0.00432722 0.0258265 0.00540352 0.017396 0.00497617 0.0293329 0.00466031 0.0262021 0.00617241 0.0342666 0.00642432 0.0311531 0.00950205 0.0388037
73 2 Si 1.29285 16.1518 51.2434 2.4 1 0.14716 0.046407 0.00194787 0.0104715 0.00187905 0.0120793 0.0035433 0.0255301 0.00400432 0.0153646 0.00468587 0.028749 0.00408794 0.0252237 0.0057321 0.0338073 0.00489447 0.0309879 0.00883935 0.0431884
74 3 O 1.39496 17.7199 51.3047 -1.2 1 0.144001 0.0442899 0.002711 0.00984278 0.00139349 0.0119239 0.00309801 0.0247167 0.00396238 0.0146702 0.00294842 0.0295655 0.00357573 0.0242167 0.00419747 0.0341394 0.00558746 0.030187 0.00767778 0.0432187
75 3 O 1.41183 15.0876 57.9745 -1.2 1 0.016039 0.012534 0.00342192 0.0053424 0.0011192 0.00621416 0.00147889 0.0236318 0.00129174 0.00837859 0.00314059 0.0283391 0.00240254 0.0191202 0.00312165 0.0330444 0.00311779 0.026155 0.00395593 0.0504424
76 3 O -0.0269106 15.5178 50.6688 -1.2 1 0.155076 0.0458793 0.00373508 0.0110264 0.00287463 0.0121983 0.0034051 0.0256262 0.00432483 0.0149662 0.00322884 0.0293749 0.00415599 0.0250343 0.00597469 0.0336307 0.00476057 0.0301331 0.00830602 0.0423682
77 1 Mg -3.18391 14.1057 52.3125 1.2 1 0.122723 0.0400184 0.00143956 0.00858235 0.00172775 0.0105574 0.00232066 0.0241053 0.00369278 0.0135465 0.00297041 0.0292084 0.00336826 0.0228488 0.00422129 0.0326135 0.00458471 0.0280964 0.00675442 0.0422853
78 3 O 2.52432 15.503 50.4579 -1.2 1 0.160634 0.0478079 0.00381335 0.0102625 0.00193089 0.0125793 0.00365848 0.0253795 0.00461543 0.0167654 0.00377015 0.0293329 0.00365819 0.0258254 0.00598502 0.0342472 0.00515452 0.0303354 0.00872762 0.0412878
79 1 Mg -1.78284 14.1294 55.1338 1.2 1 0.0549081 0.0271477 0.00508183 0.00619473 0.00153683 0.00668089 0.00244828 0.023467 0.00317246 0.00968868 0.00327489 0.0284907 0.0028262 0.0207179 0.0033129 0.0332529 0.00446633 0.0274319 0.00611093 0.0478822
80 2 Si -1.69274 12.0858 53.2491 2.4 1 0.0968235 0.0358827 0.00297126 0.00820173 0.00270474 0.00794991 0.00188102 0.0235983 0.00380797 0.0116142 0.0031333 0.0278838 0.00335396 0.021892 0.00354422 0.0321036 0.00480595 0.0272666 0.00677555 0.044608
81 3 O -1.70314 10.5694 53.1962 -1.2 1 0.0976282 0.0352322 0.00318562 0.00772346 0.00249544 0.00807677 0.00140717 0.0222933 0.00350303 0.0102365 0.00323594 0.0274208 0.00325744 0.020025 0.00480784 0.0317168 0.00409377 0.0265907 0.00799955 0.0432119
82 3 O -1.21337 13.3381 46.4311 -1.2 1 0.272538 0.0519048 0.0206493 0.020067 0.00607568 0.0205929 0.00691809 0.0300344 0.00966329 0.0203056 0.00697765 0.0311843 0.0062232 0.0263824 0.00895114 0.0356404 0.0121081 0.0348468 0.0126746 0.0359366
83 3 O -2.91134 12.8147 54.0456 -1.2 1 0.0829603 0.0317712 0.00276736 0.00639054 0.00167027 0.00856572 0.00147759 0.023128 0.00284784 0.0110203 0.0027477 0.0278282 0.00282046 0.021406 0.00342266 0.0326918 0.00372454 0.0270967 0.00613326 0.0453139
84 3 O -0.305908 12.7605 53.7697 -1.2 1 0.088143 0.0338346 0.00255842 0.00704341 0.00291005 0.00734976 0.0019529 0.0237886 0.00363212 0.010865 0.00308126 0.028088 0.00308398 0.0217092 0.00383903 0.0325356 0.00445268 0.0276817 0.00578168 0.0449066
85 1 Mg -3.03774 21.2097 57.5009 1.2 1 0.0197863 0.0147459 0.00458558 0.00549551 0.00128707 0.00619263 0.00163559 0.0233056 0.00192848 0.00912774 0.00162113 0.0286231 0.00164194 0.0200045 0.00244885 0.0325598 0.00297524 0.0264122 0.00375235 0.0499087
86 1 Mg -1.5831 21.1217 49.8405 1.2 1 0.179538 0.0491465 0.00686159 0.01293 0.00266818 0.015417 0.00347423 0.0263097 0.00447851 0.0173308 0.00470802 0.0310214 0.00372586 0.0258594 0.00668264 0.0348674 0.00592383 0.0314854 0.00933161 0.040935
87 2 Si -1.09384 18.6291 47.9287 2.4 1 0.232163 0.0545012 0.0144305 0.0170683 0.00317314 0.0201185 0.00451438 0.0284198 0.00744816 0.0199175 0.00570059 0.0320003 0.00583635 0.0289053 0.00621868 0.0360164 0.00962287 0.0341443 0.010131 0.0406568
88 3 O -1.02071 20.1985 47.9911 -1.2 1 0.232134 0.0541117 0.0143091 0.0178046 0.00393465 0.0208305 0.00472793 0.0284165 0.00716153 0.0202442 0.00590449 0.0318872 0.00588621 0.0281256 0.00801663 0.0361277 0.00835235 0.03476 0.0100546 0.040157
89 3 O -1.65002 17.5002 51.771 -1.2 1 0.134371 0.0417714 0.00204 0.0101312 0.00269867 0.0113522 0.00149816 0.02466 0.00292029 0.0140122 0.00285291 0.0294506 0.0037344 0.0235975 0.00453666 0.0336909 0.00535 0.029024 0.00753522 0.0433612
90 3 O -2.26174 18.0434 48.8281 -1.2 1 0.204057 0.0534005 0.00949114 0.0145015 0.00337586 0.0166772 0.00415515 0.0276179 0.00573563 0.0193454 0.00439204 0.0312392 0.00422217 0.0275539 0.0064461 0.0356994 0.00701784 0.033354 0.00917592 0.0401044
91 1 Mg -0.0440435 16.5651 46.8269 1.2 1 0.259995 0.0544051 0.018562 0.019599 0.00405886 0.0239561 0.0057552 0.0314309 0.00909217 0.0217873 0.00652206 0.0331757 0.00684829 0.0291246 0.00866982 0.0358139 0.00969228 0.0366473 0.0118449 0.0398996
92 3 O 0.37001 17.9877 48.3925 -1.2 1 0.216742 0.0543668 0.0112266 0.01584 0.00327143 0.0180493 0.0037436 0.0283724 0.00673455 0.01956 0.00410333 0.0313023 0.00501965 0.0288141 0.00568969 0.0351267 0.00848058 0.035087 0.00937832 0.0408967
93 1 Mg 1.35507 16.534 54.715 1.2 1 0.065713 0.0304003 0.00469452 0.00598256 0.001455 0.00669283 0.0027956 0.0230678 0.00256649 0.0106231 0.00260185 0.0287883 0.0032016 0.0215513 0.00337484 0.0342116 0.00374447 0.0271908 0.00590545 0.0472654
94 2 Si 1.56174 19.0764 56.4038 2.4 1 0.0336963 0.0208445 0.00566072 0.00650038 0.001196 0.0063062 0.00204037 0.0233756 0.00199654 0.00874218 0.00277011 0.0273064 0.00269183 0.0209874 0.00386266 0.0331804 0.00346574 0.0269277 0.00527884 0.0508615
95 3 O 1.46193 17.5306 56.5447 -1.2 1 0.0287124 0.0189262 0.00554376 0.00578838 0.00111555 0.00574588 0.00217518 0.0231213 0.0024011 0.0086249 0.00198235 0.0281753 0.00278491 0.0196029 0.00322579 0.0334432 0.00358968 0.0268065 0.00494248 0.0503408
96 3 O 1.45147 20.239 52.7294 -1.2 1 0.110013 0.0383694 0.000809829 0.00789558 0.00101054 0.0108127 0.0034602 0.0243136 0.0027824 0.0131853 0.00313205 0.0291608 0.00396483 0.022549 0.00418854 0.0334436 0.00450528 0.0286155 0.00698623 0.0448328
97 3 O 0.210196 19.8052 55.7684 -1.2 1 0.0482473 0.0254266 0.00490857 0.00616358 0.000974609 0.00610428 0.00205293 0.0231093 0.0018168 0.00957155 0.00246581 0.0279438 0.00235384 0.0212242 0.00371486 0.0341034 0.0036116 0.0272102 0.0053783 0.0487557
98 3 O 2.82664 19.8501 55.8186 -1.2 1 0.03954 0.0232196 0.00626302 0.00580818 0.00117005 0.00611203 0.00241302 0.02356 0.00184587 0.00910605 0.00219504 0.0278024 0.00242506 0.0208797 0.00422186 0.0342173 0.00344729 0.0275593 0.005867 0.0501022
99 1 Mg -0.126194 18.8651 52.2079 1.2 1 0.115653 0.0418516 0.00143105 0.00907758 0.00207404 0.0095079 0.00233862 0.0244091 0.00263088 0.0139155 0.00284849 0.029659 0.00318928 0.0232576 0.0039229 0.033703 0.00449157 0.029399 0.00734168 0.0434732
100 1 Mg 1.92402 18.5815 49.4545 1.2 1 0.181424 0.0529199 0.00515687 0.0120079 0.00128995 0.0143212 0.00413198 0.0264285 0.00453109 0.018444 0.00370961 0.0307323 0.00443885 0.0270134 0.00507304 0.0357668 0.00644771 0.0328469 0.00900772 0.0411287
101 2 Si 1.38106 20.9117 51.2443 2.4 1 0.143718 0.0463892 0.00169809 0.0105784 0.00164575 0.012724 0.00406188 0.0254633 0.00353881 0.0155171 0.00431858 0.0289491 0.00429675 0.0250849 0.0057142 0.0338726 0.00430789 0.0311954 0.00880895 0.0433174
102 3 O 1.48527 22.4795 51.3054 -1.2 1 0.141852 0.0435176 0.00235324 0.0100347 0.00152689 0.0126583 0.00347833 0.0245216 0.00341054 0.0146546 0.00279949 0.0295494 0.00355748 0.0238989 0.00441704 0.0340229 0.00507317 0.0298142 0.00775717 0.0429434
103 3 O 1.52349 19.9408 57.9141 -1.2 1 0.0151661 0.0127467 0.00375707 0.00588042 0.00105462 0.00624566 0.00137805 0.0231428 0.00128304 0.00837472 0.0017585 0.0280998 0.00235235 0.0193423 0.00271521 0.0333168 0.00306943 0.0262474 0.0039231 0.0506563
104 3 O 0.0615419 20.2804 50.6669 -1.2 1 0.157574 0.0477763 0.00403157 0.0115156 0.00275411 0.0132248 0.00413452 0.0259088 0.00409343 0.0160864 0.00294396 0.0298147 0.00412457 0.0261217 0.00505135 0.0341368 0.00456571 0.0312885 0.00824853 0.0425991
105 1 Mg -3.09665 18.8643 52.3122 1.2 1 0.123533 0.0416575 0.00136591 0.00862726 0.00138296 0.0111618 0.00277043 0.0246259 0.00270823 0.0143225 0.00268532 0.0293338 0.0031966 0.0238043 0.00354359 0.0333573 0.00447305 0.0292131 0.00704767 0.0429266
106 3 O 2.61548 20.2646 50.4626 -1.2 1 0.159741 0.0491167 0.00369246 0.0106199 0.00125048 0.0134757 0.00391235 0.0255621 0.00383682 0.0169014 0.00325523 0.0294161 0.00372511 0.0260416 0.00544215 0.0345175 0.00489645 0.0310067 0.00857557 0.0420944
107 1 Mg -1.42506 19.0416 55.047 1.2 1 0.056615 0.0284236 0.00490427 0.00641313 0.00211815 0.00651499 0.00214809 0.0236936 0.00258923 0.0103481 0.00304723 0.0282081 0.00236724 0.0213393 0.00391351 0.0334038 0.00437879 0.0276476 0.00604099 0.0478306
108 2 Si -1.58506 16.7601 53.1694 2.4 1 0.0991526 0.0369099 0.00203579 0.00804681 0.00241818 0.00825646 0.00131443 0.0237833 0.00317583 0.0123244 0.00262285 0.0283118 0.00288313 0.0230525 0.00322323 0.0333385 0.00486635 0.0282824 0.0064238 0.046029
109 3 O -1.68293 15.2663 53.0388 -1.2 1 0.100738 0.0369064 0.00246483 0.00805021 0.00244632 0.00835314 0.00163849 0.0233139 0.00333156 0.0114397 0.00294208 0.0287253 0.00292194 0.0218191 0.00454567 0.0332189 0.00422635 0.0279356 0.00743988 0.0457021
110 3 O -1.12868 18.1227 46.4249 -1.2 1 0.269013 0.0543572 0.0203465 0.0206454 0.00446346 0.0238732 0.00611738 0.0319494 0.0081765 0.0215986 0.0058186 0.0335503 0.00652485 0.0270142 0.00927704 0.037826 0.0117819 0.0371756 0.0116238 0.03972
111 3 O -2.92466 17.4856 54.0186 -1.2 1 0.0815246 0.032732 0.00291941 0.00621544 0.00168538 0.00835394 0.00151519 0.0238302 0.00196193 0.0115392 0.00210203 0.0281439 0.00260584 0.0224512 0.00309513 0.0336387 0.00424461 0.0277807 0.00582391 0.0464994
112 3 O -0.258187 17.5349 53.8203 -1.2 1 0.0825496 0.0334129 0.0030548 0.0067078 0.00272911 0.00686031 0.00112066 0.0239253 0.00225897 0.011092 0.00237108 0.027845 0.00258163 0.0222844 0.0034995 0.0340213 0.00409835 0.0283705 0.00635753 0.0460879
113 1 Mg -2.8813 25.9397 57.4105 1.2 1 0.0213969 0.0141918 0.00473125 0.00604492 0.000978379 0.00660994 0.00159137 0.022559 0.00149626 0.0090062 0.00125766 0.027731 0.00187103 0.0195766 0.00274111 0.0323204 0.00279988 0.0259446 0.00377212 0.0485235
114 1 Mg -1.48778 25.88 49.8402 1.2 1 0.179688 0.0488991 0.00674894 0.0130709 0.00271608 0.0160451 0.00322282 0.0261441 0.00419668 0.0174484 0.00451841 0.0307705 0.00357337 0.0255761 0.00613584 0.0345574 0.00553972 0.0312178 0.00855797 0.0403148
115 2 Si -1.00491 23.3922 47.9274 2.4 1 0.234017 0.054933 0.0140569 0.0183991 0.00376851 0.0215517 0.00451727 0.0283095 0.00758186 0.0203879 0.00544509 0.0323869 0.0060538 0.0286452 0.00633978 0.0357306 0.00922487 0.0343666 0.0104654 0.0404824
116 3 O -0.927602 24.9615 47.9909 -1.2 1 0.229914 0.053675 0.0136631 0.0178374 0.00388582 0.0210326 0.00422297 0.0282279 0.00707899 0.0200836 0.00562036 0.0317651 0.00554952 0.0278523 0.00759966 0.0358588 0.00823883 0.0343376 0.00983702 0.0401154
117 3 O -1.55795 22.2588 51.7696 -1.2 1 0.133802 0.0420322 0.00198637 0.0100783 0.0024911 0.0119814 0.00212927 0.0250336 0.0026376 0.0144015 0.00269732 0.0293834 0.00403275 0.0240051 0.00428193 0.0335791 0.00514435 0.028837 0.00741 0.0435026
118 3 O -2.17411 22.8111 48.8277 -1.2 1 0.201832 0.0533433 0.00899647 0.014852 0.00312537 0.0174919 0.00408075 0.0276905 0.00506717 0.0195328 0.0041827 0.0313984 0.0042331 0.02722 0.0059915 0.0352877 0.00675603 0.033254 0.00909616 0.0400425
119 1 Mg 0.0423997 21.3296 46.8225 1.2 1 0.253499 0.0553194 0.0179455 0.019961 0.00451852 0.0246494 0.00595638 0.0315559 0.00836543 0.0219465 0.00592572 0.0338466 0.00640462 0.0290049 0.00790531 0.0357452 0.00936343 0.0367897 0.0109425 0.0396993
120 3 O 0.458537 22.7495 48.3911 -1.2 1 0.212626 0.0540364 0.0104004 0.0159804 0.00339442 0.0183626 0.00361543 0.0280238 0.00597084 0.0194688 0.00368348 0.0313324 0.00505525 0.0285251 0.00581515 0.035056 0.00759633 0.0346859 0.00924297 0.0409049