ITEM: TIMESTEP
69900
ITEM: NUMBER OF ATOMS
10500
ITEM: BOX BOUNDS xy xz yz pp pp pp
0	8.9688	2.9896
0	118.725	0
0	252.977	0
ITEM: ATOMS id type element xu yu zu q Q_1 Q_2 Q_3 Q_4 Q_5 Q_6 Q_7 Q_8 Q_9 Q_10 Q_11 Q_12 Q_13 Q_14 Q_15 Q_16 Q_17 Q_18 Q_19 Q_20 Q_21
1 1 Mg -3.20516 7.32047 57.417 1.2 1 0.0200431 0.0154331 0.00438862 0.00466166 0.00103367 0.00685307 0.00108426 0.0202308 0.001825 0.00885378 0.0014876 0.0255627 0.0024431 0.0172811 0.00237191 0.0310532 0.00335127 0.0259096 0.00426913 0.0402303
2 1 Mg -1.82655 6.90154 50.0912 1.2 1 0.177641 0.047805 0.0059099 0.0100405 0.00317899 0.00905496 0.00426529 0.0217384 0.00421993 0.0143171 0.00441009 0.0247031 0.00464536 0.0204291 0.00589047 0.0287383 0.00577208 0.0264453 0.00827071 0.0327282
3 2 Si -0.257935 3.96038 48.0876 2.4 1 0.223576 0.0541471 0.0118044 0.012356 0.0028713 0.0101514 0.0033599 0.019763 0.00534135 0.0168898 0.00454353 0.0239774 0.00547525 0.0202185 0.00518099 0.0264015 0.00692251 0.0256519 0.00836289 0.0313238
4 3 O -0.335812 5.46814 47.6264 -1.2 1 0.232621 0.0537108 0.0138962 0.0137463 0.00339007 0.0110239 0.00436398 0.020348 0.00602592 0.0170525 0.00473052 0.024591 0.00514125 0.0205191 0.00555712 0.0264121 0.00745607 0.0261874 0.00974171 0.0303095
5 3 O -2.03793 3.43377 51.8941 -1.2 1 0.129055 0.0407722 0.00201656 0.00627815 0.00247716 0.00743831 0.00249243 0.0191161 0.00221305 0.0116558 0.00271431 0.0240219 0.00352124 0.0173412 0.00407479 0.027761 0.00513274 0.0243655 0.00678682 0.0338284
6 3 O -1.54015 3.53929 48.9521 -1.2 1 0.203918 0.0531259 0.00929501 0.0110568 0.00287559 0.00879127 0.00343949 0.0194658 0.00469439 0.0151311 0.00463755 0.0236047 0.00468344 0.0194471 0.00572387 0.026484 0.00566709 0.025083 0.00813855 0.0311174
7 1 Mg 1.82954 2.54582 47.1376 1.2 1 0.245189 0.0538226 0.016467 0.0153803 0.00338719 0.0114219 0.00288029 0.0195716 0.00552999 0.0155082 0.00467705 0.0241933 0.00601368 0.0189562 0.00715721 0.0247127 0.00666353 0.024187 0.00871991 0.029846
8 3 O 1.22989 3.66364 48.7877 -1.2 1 0.203101 0.0508572 0.00940857 0.0117017 0.00273655 0.00954424 0.003477 0.0193853 0.00368914 0.0149549 0.00366437 0.0238874 0.00486787 0.0191451 0.00619266 0.0263027 0.00481827 0.0249707 0.00832669 0.0321088
9 1 Mg 0.924917 2.35448 54.4709 1.2 1 0.0732995 0.0304816 0.0037812 0.00396353 0.00223348 0.00583311 0.00262895 0.0194802 0.00264768 0.00967892 0.0031866 0.0246243 0.00393678 0.0174366 0.00419492 0.0292048 0.00356462 0.0240874 0.00631848 0.0366274
10 2 Si 0.933986 5.02135 56.4645 2.4 1 0.032141 0.0205166 0.00572841 0.00467512 0.0014327 0.00668063 0.00209897 0.0190931 0.0019882 0.00905805 0.00258872 0.0242736 0.00266245 0.0174408 0.00364026 0.0302119 0.00348204 0.0249768 0.0052966 0.0396532
11 3 O 0.761649 3.46126 56.7268 -1.2 1 0.0286192 0.0188807 0.00521359 0.00473964 0.00124976 0.00627885 0.00167295 0.0191056 0.00224738 0.00837005 0.00191062 0.0239122 0.00231664 0.0164453 0.00296275 0.0297365 0.00347547 0.0252742 0.00383327 0.0388424
12 3 O 1.10813 6.07342 52.8172 -1.2 1 0.107019 0.0357798 0.0020391 0.00598945 0.0022452 0.00737797 0.00297368 0.0205747 0.00293112 0.01119 0.00289161 0.0247532 0.00407594 0.0179749 0.00404983 0.0291041 0.00442471 0.0258052 0.00599905 0.0353591
13 3 O -0.444693 5.66971 55.9739 -1.2 1 0.0398796 0.0231557 0.00579154 0.00374061 0.00148676 0.00594086 0.00185553 0.0195728 0.00196364 0.00944337 0.00202187 0.0247381 0.00258338 0.0172555 0.00340305 0.0305777 0.00331625 0.0260623 0.00572022 0.0390272
14 3 O 2.20648 5.68889 55.6926 -1.2 1 0.0419192 0.0237557 0.00602944 0.00404141 0.000963354 0.00635808 0.0020723 0.0198808 0.00139875 0.00953653 0.00215898 0.0245814 0.00300414 0.0179203 0.00341087 0.0310831 0.00325124 0.0261314 0.00559295 0.0387902
15 1 Mg -0.459401 4.67631 52.2426 1.2 1 0.123198 0.0403752 0.00188632 0.00602243 0.00276175 0.00676874 0.0022007 0.0196819 0.0026597 0.0123932 0.00247103 0.0249781 0.00397657 0.0180156 0.00425136 0.0284981 0.00446293 0.025074 0.00601774 0.0335185
16 1 Mg 2.79456 3.9971 49.9987 1.2 1 0.17576 0.0499978 0.00544165 0.00982446 0.00309245 0.00816141 0.00360473 0.0194865 0.00284926 0.0147613 0.00249203 0.0241196 0.00395651 0.019831 0.00642396 0.0273628 0.004227 0.0254366 0.0083816 0.0319771
17 2 Si 1.16169 6.59457 51.2556 2.4 1 0.146174 0.0443859 0.00219515 0.00833064 0.00271645 0.00804234 0.00392097 0.0205794 0.00350741 0.0130893 0.00358433 0.0244121 0.0040932 0.0203107 0.00556276 0.0292093 0.00449593 0.0266486 0.00788631 0.0343908
18 3 O 1.28989 8.18905 51.2909 -1.2 1 0.145094 0.0434336 0.00193464 0.00833001 0.00266842 0.00965771 0.00370005 0.0215002 0.00389047 0.0129857 0.00351302 0.0255078 0.00411136 0.0205042 0.00440319 0.029656 0.00581174 0.0271593 0.00764588 0.0362064
19 3 O 1.17745 5.75921 57.8544 -1.2 1 0.0137276 0.0136558 0.00363413 0.00500945 0.00113112 0.00706072 0.00166629 0.019902 0.00155331 0.00903651 0.00187237 0.0248635 0.00291094 0.017556 0.00266688 0.0306547 0.00282923 0.0258478 0.00418946 0.0402006
20 3 O -0.184847 6.06029 50.6845 -1.2 1 0.16229 0.0451763 0.00466977 0.00908137 0.00326943 0.00801246 0.00416524 0.0208292 0.00397281 0.013458 0.00286591 0.0240025 0.00364563 0.0193737 0.00522695 0.0275872 0.00487882 0.0263126 0.00770587 0.0336137
21 1 Mg -3.49704 4.67769 52.6661 1.2 1 0.115793 0.0382507 0.00129738 0.0057588 0.002528 0.00758427 0.00257725 0.0192881 0.0030414 0.0111151 0.00324986 0.0242215 0.00364015 0.0176411 0.00395329 0.0280331 0.00416405 0.024523 0.00593075 0.0341972
22 3 O 2.48581 5.93312 50.6539 -1.2 1 0.158061 0.0465772 0.00319476 0.00800959 0.00190313 0.00893875 0.0036762 0.0206412 0.0034421 0.013592 0.00390812 0.0238343 0.00432376 0.0197459 0.0053941 0.0289496 0.00469838 0.0262922 0.00800096 0.0336464
23 1 Mg -1.84498 4.75561 55.2107 1.2 1 0.0504458 0.0264221 0.00591575 0.00396832 0.00193013 0.00602428 0.001829 0.019993 0.00303576 0.00970384 0.00227486 0.0252907 0.00252125 0.0177535 0.00354308 0.030406 0.00377176 0.0259095 0.00509804 0.0386748
24 2 Si -2.12623 2.65983 53.1716 2.4 1 0.104557 0.0372255 0.00239702 0.0051477 0.00345277 0.00630232 0.0018685 0.0192245 0.00246659 0.0111149 0.00284644 0.0238737 0.00293093 0.0177758 0.00408342 0.0280253 0.00457451 0.0241371 0.00623255 0.035424
25 3 O -1.98298 1.10425 53.0792 -1.2 1 0.102244 0.0360286 0.00237166 0.00501291 0.00317865 0.00600674 0.00197681 0.0191181 0.00201752 0.0102405 0.00277568 0.024537 0.0035012 0.017284 0.00489285 0.0277932 0.00380966 0.0237416 0.00671518 0.0354268
26 3 O -0.0467762 2.97103 46.8385 -1.2 1 0.251793 0.054687 0.017226 0.0147444 0.00318521 0.0104905 0.00324054 0.0193651 0.00643665 0.016454 0.00607971 0.0239348 0.00673891 0.0185679 0.00810693 0.0249265 0.00679107 0.0244594 0.0101383 0.0310696
27 3 O -3.35648 3.37679 53.9946 -1.2 1 0.0840183 0.0333411 0.0031523 0.00388738 0.0025846 0.0060759 0.00229191 0.0193501 0.00255524 0.0102698 0.00213931 0.0237818 0.00295655 0.0177308 0.00322422 0.0286613 0.00415103 0.0241927 0.00546692 0.035452
28 3 O -0.749966 3.22386 53.8481 -1.2 1 0.0862629 0.0337633 0.00306413 0.00397271 0.00253565 0.00665901 0.00148012 0.0199002 0.00175255 0.0108256 0.00226864 0.0237364 0.0028256 0.0182703 0.00365699 0.0287881 0.00344054 0.0251398 0.00547449 0.0359152
29 1 Mg -3.38293 11.9615 57.6385 1.2 1 0.0202922 0.0143183 0.00383619 0.0047826 0.000984191 0.00645002 0.00137938 0.0208315 0.00189672 0.00890897 0.00170992 0.0269876 0.00194928 0.0184213 0.00292692 0.0320118 0.00317045 0.0249385 0.00321464 0.0432875
30 1 Mg -1.75014 11.5838 49.8362 1.2 1 0.183835 0.0474123 0.00759144 0.0116576 0.00422084 0.0130198 0.00457011 0.0237572 0.00513229 0.015428 0.004929 0.0280899 0.0044589 0.0229672 0.00654817 0.0318026 0.00701294 0.0292632 0.00867506 0.0363959
31 2 Si -1.18003 9.02138 47.9309 2.4 1 0.241457 0.0519964 0.015466 0.0153834 0.00508142 0.0134268 0.00778143 0.0227916 0.00737124 0.0169318 0.00691051 0.0257002 0.00531239 0.0224587 0.00735136 0.0296818 0.00895316 0.0285989 0.011517 0.0330262
32 3 O -1.23224 10.5991 47.9811 -1.2 1 0.227974 0.0517775 0.0129238 0.0150634 0.00514182 0.0142188 0.00625886 0.0236919 0.00731957 0.0170751 0.00684549 0.0270278 0.00542267 0.0233346 0.00861946 0.0318939 0.00894928 0.0306081 0.0102997 0.0341425
33 3 O -1.79016 8.01447 51.8693 -1.2 1 0.132786 0.0404392 0.00165063 0.00789713 0.00346796 0.00816849 0.00290021 0.021156 0.00346704 0.0122481 0.00336173 0.02574 0.0036666 0.0191612 0.00438516 0.0297138 0.00566947 0.0258992 0.00758987 0.0363643
34 3 O -2.30986 8.37215 48.8528 -1.2 1 0.203546 0.0517816 0.00891661 0.0120373 0.004115 0.0105388 0.00616858 0.0222268 0.00552952 0.0164078 0.00479022 0.0255849 0.00426606 0.0219741 0.00623798 0.0302418 0.00691988 0.0281852 0.00899869 0.032766
35 1 Mg 0.154883 7.08234 46.8007 1.2 1 0.25828 0.0529515 0.0185042 0.0158533 0.00563779 0.0137347 0.00851758 0.0232711 0.00751062 0.0172301 0.00719032 0.0247104 0.00670102 0.0210814 0.0088009 0.0285952 0.0099049 0.0282048 0.0123138 0.0304582
36 3 O 0.325447 8.50934 48.3809 -1.2 1 0.217152 0.0525488 0.0107056 0.0136658 0.0044552 0.0123686 0.00622143 0.0233255 0.00602402 0.0169637 0.00562293 0.025279 0.0052192 0.0232972 0.00600194 0.0295981 0.00795577 0.0292127 0.0102285 0.0331084
37 1 Mg 1.15389 7.01154 54.5003 1.2 1 0.0690449 0.0296421 0.00415755 0.00441015 0.00135003 0.00649467 0.00239207 0.0200453 0.00229527 0.0102805 0.00266638 0.0249342 0.00335865 0.0184031 0.00325736 0.0303395 0.003941 0.0251658 0.00589236 0.0378887
38 2 Si 1.19556 9.86257 56.3336 2.4 1 0.0347175 0.0205254 0.00500519 0.005683 0.00100599 0.00713168 0.00226327 0.0202671 0.00206834 0.00914018 0.00311936 0.0253429 0.00266511 0.019403 0.00432191 0.0315423 0.00375509 0.0251263 0.00564686 0.0429359
39 3 O 1.14373 8.3064 56.5356 -1.2 1 0.0296499 0.0187153 0.00512552 0.00509363 0.00106814 0.0069718 0.00169673 0.0207646 0.00272499 0.0085704 0.00197049 0.0256369 0.00249002 0.0180831 0.00333349 0.0315232 0.00377373 0.0256708 0.0052282 0.0418479
40 3 O 1.28624 10.7248 52.7351 -1.2 1 0.110319 0.0360381 0.00137106 0.00659904 0.00216132 0.00993115 0.00272746 0.0220662 0.00264534 0.011718 0.0032364 0.0263527 0.00420423 0.0202175 0.00412501 0.0314455 0.00447312 0.0269311 0.00671885 0.039154
41 3 O -0.107164 10.6915 55.8151 -1.2 1 0.0489141 0.0244029 0.00488858 0.00535544 0.00107753 0.00754558 0.00217942 0.0211474 0.00211505 0.00963618 0.00241594 0.0258335 0.00295097 0.0191494 0.00439309 0.0319563 0.00380076 0.0262749 0.0053883 0.0429365
42 3 O 2.40153 10.4225 55.6209 -1.2 1 0.048267 0.0245923 0.00534752 0.00511897 0.000789447 0.00728569 0.00191621 0.0213652 0.00214804 0.00988118 0.00233151 0.0260392 0.00315164 0.0196616 0.00373563 0.0321387 0.00395367 0.0265015 0.00522982 0.0421839
43 1 Mg -0.262694 9.34741 52.2523 1.2 1 0.114784 0.0399151 0.00229379 0.00733591 0.00305828 0.00821768 0.00253993 0.0218564 0.00295648 0.012109 0.00274661 0.0262955 0.00370376 0.0201573 0.00465141 0.0307929 0.00476905 0.0272214 0.00707741 0.0375279
44 1 Mg 1.87648 9.01537 49.4629 1.2 1 0.185232 0.0515091 0.0053218 0.0107196 0.003155 0.0111488 0.00594735 0.0222973 0.00480402 0.0157016 0.00474877 0.0260534 0.00472651 0.0226498 0.00635146 0.0308164 0.00584194 0.0287268 0.00935074 0.0345412
45 2 Si 1.21415 11.3799 51.2378 2.4 1 0.146654 0.0444408 0.00209735 0.00942065 0.00303855 0.0113511 0.00357724 0.0230815 0.00385513 0.0142545 0.00446941 0.0267614 0.00419218 0.0228961 0.00561581 0.0314339 0.00510299 0.0292137 0.00835771 0.0381338
46 3 O 1.31634 12.9512 51.3023 -1.2 1 0.147485 0.0428823 0.003136 0.00916937 0.00257449 0.0122749 0.00365438 0.0229781 0.00392674 0.014112 0.00368094 0.0281506 0.00423685 0.0229335 0.0050603 0.0324755 0.00538675 0.0289963 0.00787189 0.0386917
47 3 O 1.20835 10.5038 57.8933 -1.2 1 0.0160778 0.0132696 0.00344047 0.00525446 0.000918136 0.00737967 0.00146272 0.0207495 0.00170277 0.00863982 0.00228773 0.0262284 0.00241798 0.0187061 0.00312988 0.0316128 0.00333713 0.0252253 0.00364222 0.043416
48 3 O -0.115718 10.7564 50.681 -1.2 1 0.156531 0.0451309 0.00351687 0.0101244 0.0038512 0.011059 0.00385551 0.0232578 0.00390108 0.0138787 0.00338551 0.0268703 0.00405883 0.0223549 0.00551729 0.0307438 0.00567616 0.0284482 0.00853992 0.0372596
49 1 Mg -3.26386 9.35564 52.3622 1.2 1 0.123263 0.0389778 0.00134727 0.00687014 0.00233151 0.00999083 0.00359336 0.0219031 0.00353413 0.0124337 0.00391822 0.0262241 0.00361345 0.0200195 0.00409764 0.0306109 0.0046674 0.0269341 0.00692452 0.0364013
50 3 O 2.45216 10.7265 50.4558 -1.2 1 0.163288 0.0470841 0.00396543 0.00901946 0.00252086 0.0118855 0.00468581 0.0225925 0.00412409 0.0150833 0.00400644 0.0265961 0.00387307 0.0227781 0.00602848 0.0316484 0.00565765 0.0288424 0.00835287 0.036747
51 1 Mg -1.68726 9.76882 55.0233 1.2 1 0.0568938 0.027732 0.00512708 0.00545628 0.00176555 0.00696434 0.00207737 0.0209064 0.00221072 0.0101116 0.00227636 0.0259909 0.00273784 0.0193365 0.00396864 0.0314717 0.00403318 0.0262495 0.00537325 0.0411504
52 2 Si -1.82482 7.47023 53.4643 2.4 1 0.0926817 0.034947 0.00282667 0.00550958 0.00323731 0.00691402 0.00267951 0.0199817 0.00304555 0.0110755 0.00263008 0.024958 0.00320068 0.018931 0.00323557 0.0295639 0.00473873 0.0253592 0.0059684 0.0369302
53 3 O -1.86755 5.87501 53.2865 -1.2 1 0.0957639 0.0335811 0.00205446 0.00499693 0.00269896 0.00702058 0.00175017 0.0193251 0.00330055 0.0103977 0.00302253 0.0241103 0.00305053 0.0180847 0.00430885 0.0297947 0.00385792 0.0253159 0.00590051 0.0359752
54 3 O -1.19417 8.46968 46.4488 -1.2 1 0.270934 0.0525983 0.0207338 0.0177042 0.00578678 0.0146333 0.00886501 0.0241874 0.00750691 0.0173225 0.00748202 0.0252169 0.00647721 0.0210066 0.0096199 0.0299776 0.0104371 0.0299935 0.0122412 0.0308327
55 3 O -3.16699 8.14907 53.8714 -1.2 1 0.0842513 0.0313801 0.00271677 0.0051501 0.00201531 0.00806259 0.00265255 0.0206277 0.00238221 0.0106904 0.00213632 0.0246066 0.00302969 0.0194512 0.00310841 0.0307244 0.00449217 0.0253563 0.0058362 0.0379236
56 3 O -0.564127 8.0799 54.1759 -1.2 1 0.0745897 0.0306156 0.00401996 0.00473256 0.00219424 0.00652163 0.00181365 0.0204156 0.00180074 0.0105258 0.00206378 0.0244013 0.00256653 0.0191506 0.00351255 0.0309107 0.0042034 0.0258649 0.00615758 0.0384091
57 1 Mg -2.91614 16.5347 57.4933 1.2 1 0.0211384 0.0149527 0.00462442 0.00507416 0.00130841 0.00704974 0.00155784 0.021061 0.00193707 0.00904603 0.00181298 0.0261232 0.00207886 0.018711 0.00232694 0.0322406 0.00234015 0.0247934 0.00333492 0.0430905
58 1 Mg -1.6714 16.3544 49.8412 1.2 1 0.181984 0.0480468 0.00718799 0.0123597 0.00321495 0.0156676 0.00316775 0.0255605 0.00476027 0.0170768 0.0047839 0.0307779 0.00390526 0.0256249 0.0064818 0.0337923 0.00577425 0.0307556 0.00834501 0.0388511
59 2 Si -1.18567 13.8526 47.9314 2.4 1 0.235569 0.0536563 0.014665 0.017049 0.00466954 0.0187131 0.00507532 0.0266367 0.00861587 0.0193653 0.00600152 0.030646 0.00619775 0.0279464 0.00635225 0.033677 0.00915047 0.0330712 0.0108304 0.0374053
60 3 O -1.09664 15.4205 47.9915 -1.2 1 0.232361 0.0523969 0.0142456 0.016946 0.00487853 0.0199427 0.00434484 0.0271624 0.00794447 0.01964 0.00592952 0.0310615 0.00591782 0.0272398 0.00768372 0.0347502 0.00842759 0.0336739 0.00990754 0.0382618
61 3 O -1.73493 12.7491 51.7772 -1.2 1 0.134902 0.0404346 0.00230447 0.00923576 0.00355576 0.0108229 0.00198521 0.0233111 0.00313148 0.0133531 0.00287061 0.0280366 0.00374755 0.0220879 0.00472606 0.0318486 0.00501733 0.0281534 0.00719277 0.0397664
62 3 O -2.36115 13.2717 48.8238 -1.2 1 0.207089 0.0528136 0.00948883 0.0139328 0.00458026 0.0146334 0.00480904 0.0260888 0.00622214 0.0188505 0.00490361 0.0298497 0.00468209 0.0261496 0.00588714 0.0334155 0.00742041 0.0323989 0.00923077 0.0367635
63 1 Mg -0.159928 11.7639 46.8533 1.2 1 0.260466 0.0532426 0.0188813 0.0183863 0.00586482 0.0200359 0.00734932 0.0275994 0.00917077 0.01935 0.00772237 0.0294928 0.00681357 0.026954 0.00832724 0.0328718 0.0106632 0.0341589 0.0130531 0.0352376
64 3 O 0.2623 13.1866 48.413 -1.2 1 0.214518 0.052231 0.0107397 0.0146861 0.00431967 0.0166411 0.00445745 0.0260978 0.00686385 0.0184078 0.00473827 0.0287664 0.00536933 0.0273931 0.00554654 0.0328722 0.00800628 0.0332342 0.00999483 0.0375949
65 1 Mg 1.2406 11.9214 54.6373 1.2 1 0.0719981 0.0297175 0.00352134 0.00523321 0.00146942 0.00787522 0.00215549 0.0212508 0.00241724 0.0106665 0.00224946 0.0265924 0.00429066 0.0208556 0.00326428 0.0320144 0.00404152 0.0255072 0.00568154 0.0408298
66 2 Si 1.21047 14.5086 56.4381 2.4 1 0.0322585 0.0192198 0.00519391 0.00552541 0.00137662 0.00720616 0.00188999 0.0211524 0.00191869 0.00862467 0.00311351 0.026337 0.00219812 0.0195753 0.00412918 0.0322392 0.00363813 0.0254233 0.00490558 0.0450089
67 3 O 1.24641 12.8422 56.55 -1.2 1 0.0297754 0.0179125 0.0051903 0.00520649 0.000983225 0.00689547 0.00178449 0.0210333 0.00265764 0.0085283 0.0018871 0.0266509 0.00264492 0.0190376 0.00319369 0.0320441 0.00386261 0.0256876 0.0040624 0.0446364
68 3 O 1.36565 15.4813 52.729 -1.2 1 0.113967 0.0373117 0.00125857 0.00760653 0.00201958 0.0115661 0.00310062 0.0232974 0.0023879 0.0131052 0.00351448 0.0283542 0.00371938 0.0217505 0.00455238 0.032729 0.00424258 0.0282651 0.00682204 0.0410854
69 3 O -0.0740787 15.1162 55.7897 -1.2 1 0.0463146 0.0237682 0.00476478 0.00545202 0.00128851 0.00727706 0.0018901 0.0215707 0.00137522 0.00958846 0.00244678 0.0262073 0.00238423 0.0195689 0.00369117 0.0333455 0.00324064 0.02694 0.00462233 0.0441461
70 3 O 2.51584 15.0605 55.6833 -1.2 1 0.0442613 0.0234773 0.00549898 0.00525086 0.00113828 0.00721286 0.00219008 0.0214047 0.00194011 0.00979359 0.00256815 0.0263289 0.00255318 0.0199294 0.00385874 0.032998 0.00359721 0.0263132 0.00504482 0.0445885
71 1 Mg -0.206989 14.1049 52.2121 1.2 1 0.117769 0.0400589 0.00139938 0.00823489 0.00283718 0.00973117 0.00215544 0.0237258 0.00272875 0.0131837 0.00331814 0.0283274 0.0034404 0.0224186 0.00420915 0.0323299 0.00413773 0.0284324 0.00641717 0.0393083
72 1 Mg 1.82591 13.8102 49.4556 1.2 1 0.184607 0.0518139 0.00563001 0.011489 0.00266283 0.0141051 0.00436161 0.0245792 0.0048468 0.0176547 0.00460834 0.0293611 0.00465165 0.0260391 0.0062456 0.0336205 0.00586374 0.0316961 0.00916323 0.0374868
73 2 Si 1.29285 16.1518 51.2434 2.4 1 0.146459 0.0451804 0.00196999 0.00989365 0.00219236 0.0133739 0.0034843 0.0245788 0.00316898 0.0157895 0.00441139 0.0281954 0.00362132 0.0247164 0.00547938 0.0330345 0.00415078 0.0301423 0.00851936 0.0405577
74 3 O 1.39496 17.7199 51.3047 -1.2 1 0.147042 0.0438556 0.00307218 0.00917135 0.00172565 0.0134527 0.00311797 0.0243845 0.00348041 0.0152416 0.00311995 0.0290411 0.00325278 0.0240612 0.00405507 0.0332453 0.00506235 0.0291828 0.0072396 0.0403599
75 3 O 1.34813 15.195 57.9672 -1.2 1 0.015052 0.0129154 0.00347651 0.00495388 0.00124091 0.00711705 0.00142478 0.0215404 0.00148129 0.00840822 0.00209915 0.0259503 0.00217004 0.0186912 0.00301086 0.0325512 0.00302784 0.0257772 0.00323708 0.0447492
76 3 O -0.0269106 15.5178 50.6688 -1.2 1 0.158588 0.0458191 0.00414334 0.0107552 0.00317064 0.0134773 0.00352026 0.0248513 0.00360898 0.0156163 0.0033153 0.0287716 0.00378036 0.0252008 0.0057148 0.0329357 0.00440371 0.0303919 0.00795808 0.0396757
77 1 Mg -3.18391 14.1057 52.3125 1.2 1 0.124052 0.0397939 0.00159644 0.00793011 0.00223108 0.0115965 0.00270627 0.023219 0.00268248 0.0136693 0.00278869 0.0283979 0.00353407 0.0226155 0.00408707 0.0323259 0.00427598 0.0279723 0.0064383 0.0390898
78 3 O 2.52432 15.503 50.4579 -1.2 1 0.161935 0.0476695 0.00403287 0.0097124 0.00210296 0.0139026 0.00384196 0.0246559 0.00398924 0.0171632 0.00391163 0.0290168 0.00377023 0.0253977 0.00646433 0.0337754 0.00516588 0.0303685 0.0082367 0.0389903
79 1 Mg -1.72508 13.9806 55.1012 1.2 1 0.0564672 0.0269012 0.00487421 0.0058217 0.00167157 0.00760043 0.00224817 0.0222685 0.0022649 0.00989849 0.00328462 0.0270519 0.00239463 0.0207689 0.00435689 0.0329059 0.00385075 0.0263511 0.00525827 0.0433703
80 2 Si -1.7917 12.0258 53.1598 2.4 1 0.101437 0.0358364 0.00221555 0.00717207 0.00296635 0.00924731 0.00228001 0.0223135 0.00309335 0.0119224 0.00272275 0.0265616 0.00312464 0.0215987 0.00357175 0.0317713 0.00475979 0.0274646 0.0066406 0.0409567
81 3 O -1.72924 10.5101 53.1426 -1.2 1 0.0991695 0.0351796 0.00264724 0.00647331 0.002859 0.00852985 0.00189721 0.0210308 0.0026696 0.0107215 0.00256696 0.0264171 0.00335734 0.0196823 0.00431191 0.0309085 0.00463259 0.0267165 0.00685971 0.0394856
82 3 O -1.21337 13.3381 46.4311 -1.2 1 0.271559 0.0526987 0.0208463 0.0200816 0.00625233 0.0208268 0.00726315 0.0297193 0.00928343 0.020367 0.00686083 0.0310299 0.00632297 0.0266843 0.00885639 0.0351349 0.0124053 0.0359065 0.0130243 0.0354017
83 3 O -3.10486 12.8478 53.9864 -1.2 1 0.0852305 0.0318617 0.001945 0.0053136 0.00176515 0.00945157 0.00177314 0.0219217 0.00198374 0.0112401 0.00201429 0.0263189 0.00326124 0.0212948 0.00310757 0.0324048 0.00406479 0.0268938 0.00581076 0.041376
84 3 O -0.603086 12.7434 53.9425 -1.2 1 0.080914 0.0322794 0.00334782 0.0059006 0.00260453 0.00699798 0.00170467 0.0221934 0.00210403 0.0109375 0.00278502 0.0265987 0.00256771 0.0212767 0.00360726 0.0327348 0.00395536 0.0271752 0.00589812 0.0412647
85 1 Mg -3.01169 21.351 57.4325 1.2 1 0.0210163 0.0150361 0.00454943 0.00501604 0.00105161 0.00670248 0.00162492 0.0206528 0.0017787 0.0098957 0.0016618 0.0243876 0.00200424 0.0189632 0.00243382 0.0330548 0.00341216 0.0252008 0.00315515 0.0418638
86 1 Mg -1.5831 21.1217 49.8405 1.2 1 0.182227 0.0478214 0.00695752 0.0126524 0.00301282 0.0160058 0.00309273 0.0266005 0.00412958 0.0177105 0.00423167 0.030185 0.00337496 0.0252412 0.00606221 0.0344493 0.00590317 0.0303005 0.00862817 0.0382337
87 2 Si -1.09384 18.6291 47.9287 2.4 1 0.233052 0.0544371 0.0142344 0.0173772 0.00379607 0.0212525 0.00403536 0.0285837 0.00795203 0.0205345 0.00533583 0.0321216 0.00603956 0.028256 0.00597171 0.0349928 0.00880857 0.0334912 0.0102309 0.0391826
88 3 O -1.02071 20.1985 47.9911 -1.2 1 0.230224 0.0530698 0.0140607 0.0172689 0.00401018 0.0212908 0.00420897 0.0285192 0.00753343 0.0203882 0.00557502 0.031551 0.00566693 0.0273932 0.00717637 0.035682 0.0079159 0.0333489 0.00940605 0.0388486
89 3 O -1.65002 17.5002 51.771 -1.2 1 0.135814 0.0409533 0.00281075 0.00940761 0.00288099 0.0125823 0.00183848 0.0242908 0.00237699 0.0142773 0.00294314 0.0286154 0.00372586 0.0235456 0.00488745 0.0329726 0.0049809 0.0279016 0.0068512 0.0408365
90 3 O -2.26174 18.0434 48.8281 -1.2 1 0.202901 0.0525779 0.00891306 0.0143097 0.00354028 0.0176769 0.0036268 0.0276614 0.00554321 0.0196084 0.00400832 0.0311993 0.00407774 0.0270238 0.00567477 0.0342667 0.0064699 0.0326803 0.0087542 0.0383555
91 1 Mg -0.0440435 16.5651 46.8269 1.2 1 0.256675 0.05464 0.0179922 0.0196537 0.00467366 0.0247367 0.00471495 0.0311485 0.00952889 0.0219249 0.00599632 0.033733 0.00683941 0.0288469 0.00771091 0.0352868 0.00951108 0.036654 0.0116511 0.0391391
92 3 O 0.37001 17.9877 48.3925 -1.2 1 0.213445 0.0532409 0.0104297 0.015311 0.00347118 0.0190203 0.00312707 0.0278991 0.00679504 0.0198857 0.00399751 0.0310393 0.00510157 0.028418 0.00524119 0.0342728 0.00771909 0.0341983 0.00917098 0.0398233
93 1 Mg 1.35837 16.5067 54.337 1.2 1 0.0763544 0.0314166 0.0028911 0.0057239 0.00181682 0.00851245 0.00243522 0.0220059 0.00265545 0.011434 0.00205827 0.0273978 0.00297678 0.0214764 0.00316303 0.0336449 0.00364811 0.0262102 0.00525567 0.0419061
94 2 Si 1.55929 19.0691 56.3738 2.4 1 0.0337832 0.0207365 0.00495077 0.00582392 0.00116653 0.00704788 0.00148516 0.0209756 0.00162402 0.00937484 0.00257247 0.0248693 0.00236041 0.0197814 0.00304716 0.032715 0.00285826 0.0250473 0.00403039 0.043719
95 3 O 1.52154 17.5663 56.5673 -1.2 1 0.0302542 0.0191737 0.00519783 0.00564445 0.00126597 0.00693893 0.00200783 0.0212429 0.00280862 0.00855059 0.00212024 0.0258312 0.00249264 0.0189369 0.00300767 0.0327953 0.00340924 0.0249948 0.00448365 0.043789
96 3 O 1.45147 20.239 52.7294 -1.2 1 0.111265 0.0372382 0.00119494 0.00750096 0.00126007 0.0116688 0.00282879 0.023365 0.0019244 0.0132996 0.00315214 0.0271947 0.0030775 0.0221417 0.00456925 0.0330675 0.00347042 0.0275982 0.00620604 0.0406053
97 3 O 0.220084 19.793 55.7756 -1.2 1 0.0487868 0.025089 0.00438284 0.00573733 0.00105363 0.00738271 0.00133396 0.0207461 0.00172118 0.0100941 0.00194708 0.0250854 0.00217914 0.0196227 0.0035968 0.0339132 0.00272835 0.0258228 0.00429553 0.042922
98 3 O 2.77318 19.969 55.8355 -1.2 1 0.0422181 0.0240108 0.00553438 0.00575856 0.00100032 0.00716406 0.00254562 0.0217942 0.0019374 0.0103314 0.00302529 0.0247781 0.00201657 0.0201476 0.0042886 0.0339026 0.00288387 0.0264839 0.00481027 0.0438788
99 1 Mg -0.126194 18.8651 52.2079 1.2 1 0.11771 0.0405612 0.00110526 0.00812659 0.00226183 0.0103873 0.00201078 0.0239033 0.00206632 0.0138627 0.00257733 0.0281471 0.00299836 0.0228028 0.00444856 0.033647 0.00404979 0.0281239 0.00660701 0.0406893
100 1 Mg 1.92402 18.5815 49.4545 1.2 1 0.184818 0.0526768 0.00523323 0.0119032 0.00154254 0.0160027 0.00396494 0.026249 0.00458248 0.0187084 0.00381703 0.0303463 0.00437108 0.0265861 0.0047278 0.0347983 0.00596314 0.0321455 0.00885849 0.0390217
101 2 Si 1.38106 20.9117 51.2443 2.4 1 0.145652 0.0453095 0.00216693 0.00976935 0.00202711 0.0138403 0.00339045 0.025355 0.00305152 0.0160263 0.00403632 0.0277672 0.00374572 0.0244395 0.00530706 0.0334915 0.00382461 0.0297783 0.00792991 0.0402563
102 3 O 1.48527 22.4795 51.3054 -1.2 1 0.14448 0.0423638 0.00299338 0.00919665 0.00165278 0.013235 0.00294762 0.0246167 0.00377343 0.0152252 0.00283807 0.0278344 0.0033889 0.0233272 0.00464627 0.0341893 0.0047606 0.0290641 0.00690696 0.0403592
103 3 O 1.48098 20.0398 57.9065 -1.2 1 0.0157177 0.013368 0.00385276 0.00512165 0.00120268 0.00664849 0.0014425 0.0205172 0.001414 0.00848327 0.00191213 0.0241964 0.0022919 0.0187149 0.00245341 0.0324282 0.00310527 0.0247388 0.00321871 0.042118
104 3 O 0.0615419 20.2804 50.6669 -1.2 1 0.159108 0.046392 0.00396149 0.0109349 0.00323347 0.014337 0.00338395 0.025951 0.00334626 0.0165384 0.00256835 0.0285737 0.00388274 0.025681 0.0044868 0.0336978 0.00452716 0.0299457 0.00747565 0.0399414
105 1 Mg -3.09665 18.8643 52.3122 1.2 1 0.125818 0.0408322 0.00177987 0.0079251 0.00148599 0.0123208 0.00224221 0.0239034 0.00210931 0.0144929 0.00280281 0.0281541 0.00294278 0.0231183 0.0038842 0.0331144 0.00438964 0.0280614 0.00639527 0.0401242
106 3 O 2.61548 20.2646 50.4626 -1.2 1 0.16018 0.0474401 0.00366308 0.0101237 0.00158081 0.0146826 0.00315415 0.0255516 0.00352648 0.017272 0.00331076 0.0285477 0.00342747 0.0251421 0.00519633 0.033905 0.00462161 0.0295924 0.00768076 0.0397771
107 1 Mg -1.53994 18.8446 55.1783 1.2 1 0.0540137 0.0274828 0.00457424 0.00616211 0.00151472 0.00750656 0.0020431 0.0220895 0.00197161 0.0104919 0.00260012 0.0263662 0.00211606 0.0205239 0.00407724 0.0333538 0.0032647 0.02617 0.00495697 0.0430471
108 2 Si -1.65805 16.8523 53.1984 2.4 1 0.101243 0.0361435 0.00182367 0.00758851 0.00275144 0.00954628 0.00191478 0.0230132 0.00237256 0.0126104 0.00241034 0.0270973 0.00293145 0.0228919 0.00328085 0.0330896 0.00427699 0.0274331 0.00596852 0.0422342
109 3 O -1.73975 15.2812 52.9835 -1.2 1 0.100891 0.0359049 0.00228777 0.00740063 0.0027473 0.00961136 0.0016601 0.0225293 0.00247651 0.0115127 0.00278164 0.0275838 0.00295026 0.0216458 0.00453787 0.0327775 0.0036006 0.0270981 0.00712917 0.0419899
110 3 O -1.12868 18.1227 46.4249 -1.2 1 0.2674 0.0549918 0.0201513 0.0207623 0.00483664 0.024793 0.00568486 0.0320796 0.00816663 0.0218094 0.00584174 0.0339429 0.00653287 0.0272108 0.00860262 0.0376675 0.0110758 0.0375602 0.0122853 0.0391305
111 3 O -2.88947 17.5728 53.9296 -1.2 1 0.0840357 0.0325572 0.00230735 0.00599454 0.00180544 0.00989205 0.00158591 0.0227677 0.00184009 0.011884 0.00139881 0.0266817 0.00276077 0.0221056 0.00296984 0.0335155 0.00378027 0.0266865 0.00523497 0.0426362
112 3 O -0.377144 17.4844 53.8487 -1.2 1 0.0807331 0.0332675 0.00315755 0.00652702 0.00261998 0.00770243 0.00160399 0.0225792 0.00159893 0.0112348 0.00250988 0.0266853 0.00228422 0.0218956 0.00384607 0.033645 0.0037432 0.0270127 0.00617835 0.0419677
113 1 Mg -2.69367 26.159 57.4991 1.2 1 0.0201462 0.0139741 0.00435155 0.0044072 0.00144503 0.00645859 0.00147358 0.0204735 0.0019653 0.00941284 0.00152809 0.0232069 0.00134969 0.0191638 0.00239559 0.0326484 0.00308699 0.025148 0.00379262 0.0421535
114 1 Mg -1.48778 25.88 49.8402 1.2 1 0.183913 0.0474073 0.0069573 0.0130488 0.00282231 0.0153444 0.00357821 0.0268336 0.00449371 0.0179078 0.00402822 0.0298054 0.00329085 0.0252742 0.00617737 0.0346234 0.00613214 0.0303115 0.00863801 0.0383152
115 2 Si -1.00491 23.3922 47.9274 2.4 1 0.234847 0.0535501 0.0139271 0.0181864 0.00385082 0.0214935 0.00506203 0.0296258 0.00794574 0.0207368 0.00482405 0.0318312 0.00577275 0.0278499 0.00656609 0.0357923 0.00920592 0.033247 0.00996768 0.0385841
116 3 O -0.927602 24.9615 47.9909 -1.2 1 0.23159 0.0518274 0.0133461 0.0178533 0.0034794 0.0205655 0.00485916 0.0294243 0.00786011 0.020428 0.00521273 0.0312906 0.00559284 0.0271005 0.00777917 0.036463 0.00851795 0.0333344 0.00950396 0.0388337
117 3 O -1.55795 22.2588 51.7696 -1.2 1 0.136208 0.0406784 0.00260593 0.00948202 0.00301697 0.0124205 0.00184839 0.0247208 0.00243427 0.0146614 0.00243658 0.0279533 0.00378808 0.0232574 0.00446392 0.0333962 0.00549346 0.0279196 0.00682869 0.040149
118 3 O -2.17411 22.8111 48.8277 -1.2 1 0.204424 0.0520197 0.00880706 0.0146836 0.00310488 0.0175402 0.00397459 0.0284941 0.00524528 0.0200485 0.00388665 0.0308165 0.0040342 0.0265598 0.00566625 0.0352333 0.00680793 0.0322253 0.0088356 0.0382352
119 1 Mg 0.0423997 21.3296 46.8225 1.2 1 0.255293 0.0546716 0.0179459 0.0200723 0.00452882 0.0252481 0.00598232 0.0323807 0.00913333 0.0225315 0.00591073 0.033668 0.00666108 0.0283638 0.00828447 0.0358841 0.00961858 0.0357448 0.0113514 0.0390269
120 3 O 0.458537 22.7495 48.3911 -1.2 1 0.214772 0.0530738 0.0104296 0.0158912 0.0034714 0.0190338 0.00366315 0.0288835 0.0063458 0.0201045 0.00365274 0.0307409 0.00487973 0.0280008 0.0061102 0.0353171 0.0074367 0.0339919 0.00914278 0.0393666