ITEM: TIMESTEP
27900
ITEM: NUMBER OF ATOMS
10500
ITEM: BOX BOUNDS xy xz yz pp pp pp
0	8.9688	2.9896
0	118.725	0
0	252.977	0
ITEM: ATOMS id type element xu yu zu q Q_1 Q_2 Q_3 Q_4 Q_5 Q_6 Q_7 Q_8 Q_9 Q_10 Q_11 Q_12 Q_13 Q_14 Q_15 Q_16 Q_17 Q_18 Q_19 Q_20 Q_21
1 1 Mg -3.6328 7.12364 57.7262 1.2 1 0.0204889 0.0127115 0.00413745 0.00577653 0.00221486 0.0068364 0.00151005 0.021889 0.00202257 0.00847459 0.00221184 0.028594 0.00239485 0.019431 0.00240767 0.031895 0.00364997 0.0256946 0.00496194 0.0472658
2 1 Mg -1.82655 6.90154 50.0912 1.2 1 0.17557 0.0463803 0.00526792 0.0104554 0.00319082 0.0088583 0.0043264 0.0225504 0.00453284 0.0147285 0.00447394 0.0258291 0.00467977 0.0215372 0.0062044 0.0281826 0.00564188 0.0252935 0.00930801 0.0342287
3 2 Si -0.257935 3.96038 48.0876 2.4 1 0.223426 0.0530227 0.0104707 0.013359 0.00221606 0.0094983 0.0039881 0.02052 0.0059756 0.0168414 0.00475124 0.0247371 0.00538904 0.0210111 0.00520834 0.0259201 0.00664958 0.0243711 0.00873069 0.0323312
4 3 O -0.335812 5.46814 47.6264 -1.2 1 0.231149 0.0524743 0.0125031 0.0141756 0.00298562 0.0106183 0.00480229 0.0211761 0.00649799 0.0174901 0.00520176 0.0254309 0.00495922 0.0215436 0.00512882 0.0262799 0.00715064 0.0252062 0.00970961 0.0312783
5 3 O -2.03793 3.43377 51.8941 -1.2 1 0.129413 0.0389712 0.00188591 0.00734183 0.00214131 0.00705215 0.00301654 0.0206519 0.00274672 0.0116492 0.00319997 0.0257161 0.00374871 0.0187892 0.00376972 0.0279388 0.00526866 0.0229295 0.00791059 0.0375834
6 3 O -1.54015 3.53929 48.9521 -1.2 1 0.201425 0.0506629 0.00792279 0.0114054 0.00225963 0.00829573 0.00378913 0.020512 0.00495087 0.0153613 0.00467882 0.024226 0.00462624 0.0204563 0.00528706 0.0264311 0.0054759 0.0234761 0.00842218 0.032411
7 1 Mg 1.82954 2.54582 47.1376 1.2 1 0.243841 0.0522715 0.0145176 0.0162252 0.00305969 0.0106262 0.00362021 0.0205207 0.00578622 0.0156706 0.00471505 0.0244815 0.0062519 0.0198362 0.00689076 0.0247955 0.00633961 0.0230132 0.00854336 0.0305298
8 3 O 1.22989 3.66364 48.7877 -1.2 1 0.204338 0.0498741 0.00829071 0.0126326 0.00226946 0.0091809 0.00423268 0.0205649 0.004148 0.0151608 0.0041334 0.0240023 0.00476446 0.0203049 0.00588984 0.0261215 0.00469274 0.0235643 0.00880082 0.0332442
9 1 Mg 0.882395 2.24291 54.5593 1.2 1 0.0731934 0.0283313 0.0042216 0.00576903 0.00195072 0.0055862 0.003056 0.0213677 0.00247786 0.00989302 0.00292026 0.0272475 0.00405812 0.0201407 0.0039305 0.0304662 0.00323947 0.0240004 0.00694562 0.042441
10 2 Si 1.03559 4.92059 56.5262 2.4 1 0.0350171 0.0180759 0.00578866 0.00620179 0.00183737 0.00683092 0.002075 0.0218005 0.00184936 0.00865511 0.00282615 0.0268834 0.00288575 0.0200291 0.00409711 0.0312342 0.0037862 0.0254722 0.00673945 0.0476356
11 3 O 0.855308 3.42239 56.5721 -1.2 1 0.0348885 0.017648 0.0052945 0.00588699 0.00157015 0.00611554 0.00212164 0.0218284 0.00252213 0.0084568 0.00243399 0.0282333 0.00290432 0.0191411 0.00359561 0.0315155 0.00379528 0.025348 0.00607666 0.0465154
12 3 O 1.10813 6.07342 52.8172 -1.2 1 0.108186 0.0347313 0.00224156 0.00702958 0.00232888 0.00734605 0.00338539 0.0223593 0.00308853 0.0117219 0.00356484 0.0263332 0.00416893 0.0200426 0.00460998 0.0290571 0.00444413 0.0245639 0.00728034 0.0388683
13 3 O -0.155299 5.74056 55.7447 -1.2 1 0.0494521 0.0232543 0.00552202 0.00577378 0.00178874 0.00577382 0.00209507 0.0215879 0.00218229 0.00988764 0.00263698 0.0275399 0.00317914 0.0198512 0.00446966 0.0313755 0.00366397 0.0250831 0.00606655 0.0450016
14 3 O 2.35384 5.64227 56.0076 -1.2 1 0.0432999 0.0213798 0.00596269 0.00556876 0.00140995 0.00652659 0.00230316 0.0220997 0.00157446 0.00894864 0.00271738 0.0277482 0.00303208 0.0196503 0.00471214 0.0323045 0.00391547 0.0259765 0.00697164 0.0455617
15 1 Mg -0.459401 4.67631 52.2426 1.2 1 0.125211 0.0390768 0.00180215 0.00721034 0.00264321 0.00695344 0.00264173 0.0213453 0.0029004 0.0125661 0.0029636 0.0265013 0.00411544 0.0199474 0.00391902 0.0282914 0.00435041 0.0234098 0.00743968 0.0368979
16 1 Mg 2.79456 3.9971 49.9987 1.2 1 0.175573 0.0485191 0.00478066 0.0104549 0.00242035 0.00777981 0.00473442 0.0212012 0.00361558 0.014869 0.00304028 0.0244779 0.00450566 0.021254 0.00601325 0.0270347 0.00412699 0.0239338 0.00922288 0.0335147
17 2 Si 1.16169 6.59457 51.2556 2.4 1 0.148441 0.0443114 0.00208421 0.00955978 0.00269284 0.00853863 0.00397512 0.0220222 0.00419875 0.013738 0.0046802 0.0252974 0.00428332 0.0214026 0.00598629 0.029068 0.00490256 0.0252397 0.00914916 0.0362365
18 3 O 1.28989 8.18905 51.2909 -1.2 1 0.148255 0.043921 0.00227507 0.00972978 0.00262162 0.00931581 0.00425948 0.0229106 0.00425904 0.014027 0.00416732 0.0268949 0.00411852 0.0220492 0.00518635 0.0296156 0.00527059 0.0262055 0.00849161 0.0375174
19 3 O 0.946277 5.66281 58.0808 -1.2 1 0.0173183 0.0110325 0.003927 0.00571682 0.00156689 0.00688383 0.00159147 0.0223622 0.00136981 0.00812146 0.00225764 0.0284386 0.00216121 0.0193759 0.00360761 0.0322798 0.00324645 0.0263797 0.00503937 0.0485094
20 3 O -0.184847 6.06029 50.6845 -1.2 1 0.159896 0.043488 0.00406517 0.00957332 0.00313873 0.00810811 0.00396338 0.0217854 0.00410814 0.014007 0.00345649 0.0249945 0.0041765 0.0208384 0.00572954 0.0272992 0.0050194 0.0245831 0.00866478 0.0354578
21 1 Mg -3.49704 4.67769 52.6661 1.2 1 0.116882 0.0367481 0.0017529 0.00666213 0.00222793 0.00723053 0.0029617 0.0209637 0.00329319 0.0115658 0.00365397 0.0263203 0.00388608 0.0194342 0.00428937 0.0282905 0.00415657 0.0232452 0.00766891 0.0379958
22 3 O 2.48581 5.93312 50.6539 -1.2 1 0.157717 0.0456433 0.00315641 0.00889567 0.00177489 0.00877782 0.00427784 0.0219649 0.00384102 0.0142638 0.00401292 0.024882 0.00471906 0.0215471 0.00542544 0.0283347 0.00432653 0.0249053 0.00914001 0.0350987
23 1 Mg -2.04639 4.76104 55.195 1.2 1 0.0536997 0.0249902 0.00605719 0.00533282 0.00205153 0.00626442 0.00207678 0.0212741 0.00275363 0.00948885 0.00344308 0.0282968 0.00242044 0.0200558 0.00460416 0.0314013 0.00418646 0.0246495 0.00709844 0.0440399
24 2 Si -2.01137 2.65436 53.3244 2.4 1 0.102692 0.0344979 0.00292462 0.00635782 0.00266132 0.00606902 0.00228594 0.0208846 0.00280682 0.0111376 0.00322472 0.0260734 0.00332852 0.0199509 0.00335747 0.0291838 0.00457533 0.0230252 0.00695024 0.0399497
25 3 O -1.99473 1.01583 53.3034 -1.2 1 0.0979675 0.0334574 0.00290236 0.00646086 0.00303774 0.00575546 0.00208552 0.0209851 0.00274097 0.0103783 0.00283826 0.0263367 0.00322116 0.0196224 0.00400567 0.0294895 0.00400328 0.0232281 0.00683952 0.0402119
26 3 O -0.0467762 2.97103 46.8385 -1.2 1 0.250854 0.0530751 0.0152226 0.015804 0.0030215 0.00989148 0.00396819 0.0200729 0.00651344 0.016711 0.00613334 0.0242082 0.00716902 0.0195833 0.00776977 0.0247938 0.00648173 0.0235005 0.00983808 0.0317736
27 3 O -3.27271 3.25314 54.0749 -1.2 1 0.0816521 0.0302978 0.00375809 0.00510837 0.00210427 0.0059545 0.00213328 0.0210165 0.00241241 0.0103499 0.00248627 0.02635 0.00300711 0.0197902 0.00326045 0.0301404 0.00411437 0.0232951 0.00723963 0.0413237
28 3 O -0.754165 3.28879 54.0166 -1.2 1 0.0839701 0.0311896 0.00391698 0.00544549 0.00222098 0.00637873 0.00168876 0.0216058 0.00251082 0.0106602 0.00238574 0.0265411 0.00333823 0.0205142 0.00326144 0.0299269 0.00376242 0.0240323 0.00655311 0.0409684
29 1 Mg -3.2428 11.8592 57.4408 1.2 1 0.0231551 0.0149658 0.0049147 0.00614141 0.000933439 0.00737885 0.0015487 0.0224473 0.00204717 0.0100417 0.00194449 0.0281322 0.00219009 0.0198963 0.00307656 0.0327609 0.0034382 0.0262946 0.00460024 0.0465563
30 1 Mg -1.75014 11.5838 49.8362 1.2 1 0.182878 0.0478507 0.00694133 0.0129055 0.00440596 0.0128697 0.00502559 0.0250431 0.00570019 0.0169208 0.00534679 0.0283879 0.00451708 0.0247439 0.00669579 0.0324426 0.00684128 0.0289941 0.010142 0.0371196
31 2 Si -1.18003 9.02138 47.9309 2.4 1 0.239103 0.0522154 0.014719 0.0160485 0.00494774 0.0128969 0.00810895 0.0238083 0.00836376 0.0175557 0.00738418 0.0264321 0.00530161 0.0234331 0.00644998 0.0293886 0.0088077 0.0281566 0.0125115 0.0336743
32 3 O -1.23224 10.5991 47.9811 -1.2 1 0.228939 0.0530307 0.0128932 0.0163106 0.00515011 0.0140918 0.00692127 0.0250912 0.00852216 0.0180167 0.00748959 0.0278604 0.0054984 0.0243703 0.00753111 0.0320037 0.00940775 0.0304555 0.011422 0.0341792
33 3 O -1.79016 8.01447 51.8693 -1.2 1 0.134145 0.0396912 0.00188816 0.00889852 0.00346603 0.00806786 0.00313739 0.0225319 0.00360878 0.0131516 0.00374268 0.027026 0.00382639 0.0211532 0.0047216 0.0296239 0.00553553 0.0251483 0.00867192 0.0377941
34 3 O -2.30986 8.37215 48.8528 -1.2 1 0.203427 0.0516683 0.00819208 0.0129764 0.00398785 0.010663 0.00639336 0.0237993 0.00629244 0.0174726 0.00503384 0.0264872 0.00463129 0.0235143 0.00578837 0.0299911 0.0066727 0.027629 0.00993366 0.0337616
35 1 Mg 0.154883 7.08234 46.8007 1.2 1 0.256132 0.0528578 0.0170488 0.0167137 0.00559853 0.0132837 0.00882403 0.0239759 0.00813742 0.0177312 0.0072471 0.0254733 0.00729333 0.0221588 0.00751524 0.0280175 0.00947864 0.0277513 0.013052 0.0313898
36 3 O 0.325447 8.50934 48.3809 -1.2 1 0.219029 0.0535827 0.0105231 0.0149286 0.0041083 0.0122531 0.00675005 0.0246215 0.00713814 0.0176158 0.00643057 0.0261112 0.00554496 0.0246188 0.0055235 0.0292384 0.00756364 0.0284408 0.0108728 0.033485
37 1 Mg 1.02563 6.95724 54.6477 1.2 1 0.0696601 0.027866 0.00402775 0.00598204 0.00198966 0.00646428 0.00212954 0.021976 0.00244898 0.0107065 0.00312461 0.0271244 0.00361777 0.0205884 0.00369514 0.0312049 0.00388299 0.0248858 0.00676441 0.0425425
38 2 Si 1.09362 9.79177 56.4778 2.4 1 0.0348671 0.0190619 0.00550591 0.00676917 0.0014441 0.00695071 0.00226609 0.021899 0.0020813 0.00921155 0.00293027 0.0268963 0.00243351 0.0203714 0.00407431 0.0319398 0.00412994 0.0257215 0.00646914 0.0467619
39 3 O 1.10965 8.25274 56.6148 -1.2 1 0.0312413 0.0173563 0.00572601 0.00630801 0.00113081 0.00706227 0.00199533 0.0220464 0.00285971 0.00841593 0.00198452 0.027808 0.00283649 0.019321 0.00378904 0.0322518 0.00403749 0.026183 0.00601977 0.0466666
40 3 O 1.28624 10.7248 52.7351 -1.2 1 0.111982 0.0369724 0.00201967 0.0078234 0.00254933 0.00993925 0.00309005 0.0235819 0.00320236 0.0131761 0.00381253 0.0273126 0.00459237 0.0224193 0.00495802 0.031555 0.00438406 0.0271021 0.00752603 0.0405401
41 3 O -0.136024 10.4403 55.7508 -1.2 1 0.0505644 0.0247759 0.00504563 0.00659521 0.00140815 0.00713749 0.00194621 0.0229074 0.00182917 0.0104955 0.00249266 0.0270913 0.00307215 0.0210955 0.00447358 0.0325098 0.00377561 0.0266621 0.00636364 0.0453805
42 3 O 2.43858 10.4995 55.8535 -1.2 1 0.0415942 0.0221873 0.00610175 0.00657386 0.00117697 0.00708576 0.00241636 0.0225699 0.00208428 0.00996812 0.00289267 0.0270504 0.00275099 0.0206844 0.00368309 0.0331168 0.00346738 0.02672 0.00640924 0.0456433
43 1 Mg -0.262694 9.34741 52.2523 1.2 1 0.11408 0.0393369 0.00278313 0.00829584 0.00293428 0.00839142 0.00224483 0.0235146 0.00330402 0.0130581 0.00349964 0.0278632 0.00380697 0.0217354 0.00505679 0.0310269 0.0049099 0.026725 0.00772388 0.0388882
44 1 Mg 1.87648 9.01537 49.4629 1.2 1 0.184283 0.0518071 0.00495712 0.0119788 0.00292116 0.0109682 0.00630673 0.0238617 0.00546281 0.0167671 0.00491659 0.0269337 0.00480948 0.0240347 0.00597098 0.0305457 0.00530829 0.0282734 0.0103337 0.0351961
45 2 Si 1.21415 11.3799 51.2378 2.4 1 0.147664 0.0461245 0.00234083 0.0107276 0.00321618 0.011283 0.00376017 0.0243011 0.00441856 0.0154436 0.00465979 0.0269209 0.00463963 0.0250178 0.00581181 0.0319793 0.00510963 0.0290348 0.00964313 0.0391808
46 3 O 1.31634 12.9512 51.3023 -1.2 1 0.148506 0.0451987 0.00311629 0.0103546 0.00314866 0.0121885 0.00372417 0.0250326 0.00487127 0.0161187 0.00373816 0.0282635 0.00506036 0.025971 0.00480411 0.0330655 0.00550255 0.0294206 0.0086457 0.0402423
47 3 O 1.03559 10.4265 57.9758 -1.2 1 0.0182708 0.0124245 0.00423758 0.00621308 0.00114715 0.00750156 0.0014334 0.0227177 0.00190675 0.0087925 0.00218986 0.0274397 0.00242256 0.0198934 0.00308443 0.032263 0.00315923 0.026304 0.00455005 0.047901
48 3 O -0.115718 10.7564 50.681 -1.2 1 0.157274 0.046279 0.00360806 0.0114338 0.0037046 0.0110694 0.00395931 0.024304 0.00470023 0.0152759 0.00384183 0.0274607 0.00445253 0.0242769 0.00562372 0.0309703 0.00523636 0.0279483 0.00939212 0.0382556
49 1 Mg -3.26386 9.35564 52.3622 1.2 1 0.123762 0.038792 0.00157399 0.00801473 0.00234704 0.00982169 0.00357591 0.0233408 0.0036092 0.0134736 0.00420709 0.0274181 0.00358759 0.0220689 0.00462327 0.031106 0.00469272 0.0264176 0.00827403 0.0379291
50 3 O 2.45216 10.7265 50.4558 -1.2 1 0.163168 0.0480889 0.00381139 0.0104491 0.00289332 0.0117045 0.00498838 0.0243272 0.00504397 0.0167674 0.00448012 0.0274122 0.00435682 0.0247233 0.00566696 0.0318885 0.00570008 0.0282869 0.00941491 0.0372209
51 1 Mg -1.81448 9.50042 55.3867 1.2 1 0.0526951 0.0258026 0.00592691 0.00640184 0.00166119 0.00706635 0.00254974 0.0227046 0.00247277 0.0104339 0.00287698 0.0276674 0.00280848 0.0208706 0.00452075 0.0322999 0.00439672 0.0262725 0.00692723 0.0442069
52 2 Si -1.82707 7.38897 53.4505 2.4 1 0.0958506 0.0345467 0.00315365 0.00717515 0.00331029 0.00709644 0.00281966 0.0219441 0.00373048 0.0116594 0.00316671 0.0268636 0.00302663 0.0210092 0.00353829 0.0303881 0.00482549 0.024615 0.00695792 0.0403494
53 3 O -1.93059 5.7799 53.3945 -1.2 1 0.09701 0.0322428 0.00246191 0.00627649 0.00277929 0.00715263 0.00201408 0.0210042 0.00322523 0.0105492 0.00313545 0.0267882 0.00292206 0.0198905 0.00372073 0.0298422 0.00391477 0.0240114 0.0073601 0.0398774
54 3 O -1.19417 8.46968 46.4488 -1.2 1 0.268592 0.0532717 0.0197159 0.0184355 0.00567031 0.0141728 0.00937502 0.0252378 0.00859111 0.0179964 0.00780669 0.0258866 0.0065093 0.0220461 0.00879874 0.0298379 0.0100641 0.0295282 0.0125341 0.0314701
55 3 O -3.12228 8.07298 53.9871 -1.2 1 0.0859705 0.030837 0.00277389 0.00621131 0.00251976 0.0080115 0.00227829 0.0218583 0.00287475 0.0113144 0.002534 0.0262746 0.00292825 0.0211154 0.0035803 0.0309105 0.00505434 0.0249864 0.00724169 0.0405669
56 3 O -0.556378 8.07199 53.9838 -1.2 1 0.0792347 0.0311337 0.00440043 0.00621382 0.00265865 0.00645771 0.00180003 0.0224807 0.00256919 0.0109876 0.00262169 0.0266774 0.00275977 0.0206931 0.00375195 0.0312427 0.00462568 0.0259671 0.00698152 0.0418129
57 1 Mg -3.2149 16.4611 57.627 1.2 1 0.0210594 0.0142627 0.00492967 0.00558761 0.0012734 0.00705774 0.00155784 0.022999 0.00176044 0.0104687 0.00229964 0.027439 0.00255225 0.020839 0.00275505 0.0335756 0.00347829 0.0263674 0.00449258 0.0476536
58 1 Mg -1.6714 16.3544 49.8412 1.2 1 0.179705 0.0491092 0.00663868 0.0136263 0.00361018 0.0152105 0.00352444 0.0268047 0.00514454 0.0189325 0.0048676 0.0308002 0.00420936 0.0273918 0.00620964 0.0352685 0.00587899 0.0321831 0.00934555 0.0402398
59 2 Si -1.18567 13.8526 47.9314 2.4 1 0.233347 0.0546553 0.0148076 0.0176817 0.0046214 0.0179495 0.00587467 0.0283317 0.00898586 0.0206581 0.00649745 0.0305367 0.00576445 0.029529 0.00679484 0.0347199 0.00985114 0.0335085 0.0121314 0.0375528
60 3 O -1.09664 15.4205 47.9915 -1.2 1 0.22972 0.0538446 0.0145602 0.0177572 0.00521347 0.0191637 0.00499442 0.0284072 0.0083078 0.0208019 0.00667868 0.0308884 0.00571281 0.0289016 0.00785863 0.0358686 0.00936599 0.0344107 0.0116174 0.0383785
61 3 O -1.73493 12.7491 51.7772 -1.2 1 0.135022 0.041425 0.0023547 0.0103069 0.00346893 0.0106942 0.0019725 0.0249069 0.00390088 0.0153002 0.00331601 0.02842 0.00428938 0.0246042 0.00479052 0.032596 0.00509042 0.0283139 0.00822105 0.0407429
62 3 O -2.36115 13.2717 48.8238 -1.2 1 0.204361 0.0533884 0.00949534 0.0148437 0.00497266 0.0143995 0.0052624 0.0275092 0.00667809 0.0200911 0.00486644 0.0299095 0.0050437 0.0277521 0.00577311 0.0345402 0.00806065 0.0321196 0.0107031 0.0374233
63 1 Mg -0.159928 11.7639 46.8533 1.2 1 0.257641 0.0542192 0.0185907 0.0190235 0.00570058 0.0193623 0.00801649 0.0289953 0.0102597 0.0202681 0.00827889 0.0301705 0.0069471 0.0278711 0.00790559 0.0333738 0.0108348 0.0335374 0.0141418 0.0351747
64 3 O 0.2623 13.1866 48.413 -1.2 1 0.213042 0.0539661 0.0111399 0.0156202 0.00425716 0.0161294 0.00494991 0.0276659 0.00774335 0.019549 0.00535609 0.0292538 0.0053173 0.0291363 0.00522484 0.0339613 0.00874397 0.033527 0.0111709 0.0378976
65 1 Mg 1.33664 11.8789 54.6285 1.2 1 0.0718589 0.0303624 0.00396433 0.00680367 0.00189854 0.00820849 0.00245898 0.0230506 0.00265617 0.0121615 0.00251536 0.0275554 0.00394883 0.0226991 0.0035504 0.0331142 0.00376741 0.0263786 0.00621275 0.0434571
66 2 Si 1.26782 14.4708 56.4431 2.4 1 0.0339047 0.0192732 0.00586693 0.00698254 0.00125624 0.00727152 0.00188997 0.0231459 0.00189798 0.0100666 0.00304243 0.026722 0.00266883 0.0214262 0.00401339 0.0333751 0.00351823 0.0262874 0.00571317 0.0485299
67 3 O 1.26922 12.9348 56.4496 -1.2 1 0.0344416 0.0197254 0.00556693 0.00695139 0.000786122 0.0071661 0.00214459 0.0224267 0.00327278 0.00976828 0.00184449 0.026754 0.00327071 0.020752 0.00324168 0.0335126 0.00412907 0.0267245 0.00509694 0.047627
68 3 O 1.36565 15.4813 52.729 -1.2 1 0.110377 0.0374894 0.00132852 0.00845095 0.00210827 0.0114138 0.00307664 0.0245483 0.00335362 0.0146668 0.00353669 0.0285306 0.00426734 0.0243957 0.00439949 0.0334813 0.0037483 0.0288564 0.00648362 0.0430981
69 3 O -0.00380422 15.0111 55.8288 -1.2 1 0.045843 0.0238316 0.00523375 0.00666475 0.00106296 0.00777121 0.00238288 0.0232511 0.00153785 0.0109889 0.00274126 0.0269006 0.00282048 0.0217805 0.0039937 0.0343969 0.00302279 0.0274718 0.00547378 0.0472564
70 3 O 2.57302 15.1754 55.7731 -1.2 1 0.04392 0.0232042 0.00608338 0.00659929 0.00116374 0.00740668 0.00230159 0.0234918 0.00179017 0.0106194 0.00279746 0.0266625 0.00252314 0.0220125 0.00376309 0.0344338 0.00281816 0.0274257 0.00554433 0.0472218
71 1 Mg -0.206989 14.1049 52.2121 1.2 1 0.117333 0.0415866 0.00159407 0.00924342 0.00317374 0.0100513 0.00241457 0.0251958 0.00363384 0.0151556 0.00343829 0.028842 0.00385649 0.0248829 0.00448978 0.0332949 0.00410403 0.0288881 0.00751848 0.0413096
72 1 Mg 1.82591 13.8102 49.4556 1.2 1 0.185231 0.0535136 0.0057177 0.0129832 0.00355584 0.013861 0.00498226 0.0264684 0.00568679 0.0192191 0.00462201 0.0291351 0.00533391 0.0283346 0.00606955 0.0348358 0.00640752 0.032153 0.0106186 0.0381374
73 2 Si 1.29285 16.1518 51.2434 2.4 1 0.145215 0.0467187 0.00227473 0.0110192 0.00253853 0.0132171 0.0036887 0.0259777 0.0043224 0.017525 0.00491567 0.0282066 0.00433166 0.0269943 0.00546575 0.0343497 0.0042666 0.0314828 0.00885287 0.0422287
74 3 O 1.39496 17.7199 51.3047 -1.2 1 0.146133 0.0454295 0.00249381 0.010318 0.00217501 0.0131014 0.00344624 0.0255304 0.00421855 0.0172843 0.00351603 0.0291296 0.00401321 0.0267079 0.00370586 0.0345578 0.00499696 0.0310465 0.00764 0.0419924
75 3 O 1.36561 15.1426 57.9927 -1.2 1 0.0168676 0.0121267 0.00427158 0.00602746 0.00124866 0.00734926 0.0014777 0.0233031 0.00177693 0.00959061 0.00276888 0.0274129 0.00256068 0.0203765 0.0034291 0.0330671 0.00311392 0.0262196 0.00449715 0.0486704
76 3 O -0.0269106 15.5178 50.6688 -1.2 1 0.155648 0.0469371 0.00415477 0.011919 0.00332339 0.0131612 0.00358111 0.0258145 0.00466604 0.0170468 0.00323635 0.0288433 0.00436247 0.0271606 0.00532751 0.0340043 0.0043522 0.0310285 0.00877667 0.0409486
77 1 Mg -3.18391 14.1057 52.3125 1.2 1 0.123111 0.0408073 0.00140674 0.00910771 0.00215441 0.0113193 0.00283639 0.0247185 0.00370642 0.0155393 0.00308525 0.0284995 0.00364935 0.0251413 0.00420449 0.0332346 0.00406542 0.0286774 0.00713382 0.0409593
78 3 O 2.52432 15.503 50.4579 -1.2 1 0.159647 0.0489527 0.00413438 0.0112845 0.00280889 0.013679 0.00408115 0.0261477 0.00478991 0.018896 0.0036911 0.0288548 0.00425191 0.0279341 0.00563416 0.0344868 0.00505886 0.031443 0.00880985 0.0403215
79 1 Mg -1.77404 14.1453 55.1336 1.2 1 0.0546503 0.0275228 0.00549083 0.0070488 0.0012371 0.00760219 0.00247755 0.0234466 0.00272114 0.011592 0.00325685 0.0273905 0.0024953 0.022847 0.00388154 0.0340176 0.00379174 0.0273502 0.00607633 0.0457618
80 2 Si -1.66178 12.0426 53.3443 2.4 1 0.0970902 0.0364885 0.00276104 0.00820586 0.00302668 0.00874246 0.001909 0.0238814 0.00343583 0.0136643 0.0026352 0.0275261 0.00354045 0.0236659 0.00333445 0.0325779 0.00505509 0.0274553 0.00700176 0.0423147
81 3 O -1.7429 10.5335 53.2814 -1.2 1 0.0972558 0.0344902 0.00297631 0.00746385 0.00279914 0.00841564 0.0017074 0.0225097 0.00306054 0.0118845 0.00294159 0.0269237 0.00328648 0.0217302 0.00451939 0.0319005 0.0046824 0.0262938 0.0082625 0.0416124
82 3 O -1.21337 13.3381 46.4311 -1.2 1 0.268886 0.0541276 0.0211719 0.0205341 0.00655798 0.0203768 0.00783297 0.0309746 0.0104049 0.0213725 0.00716385 0.0313069 0.00648115 0.0276998 0.00857412 0.035633 0.0127228 0.0356573 0.0138485 0.0356295
83 3 O -2.90414 12.717 54.0731 -1.2 1 0.084871 0.0330559 0.00294811 0.0071993 0.00162982 0.00926648 0.00174481 0.0234569 0.00256599 0.0129826 0.00235845 0.0271953 0.00304742 0.0231308 0.00399936 0.0335439 0.00380376 0.0271275 0.00637998 0.0430802
84 3 O -0.37681 12.805 53.8388 -1.2 1 0.0847972 0.0332869 0.0025471 0.00731362 0.00276194 0.00788272 0.00174631 0.0240409 0.00276958 0.0132271 0.00236578 0.0270571 0.00352557 0.0241083 0.00383517 0.0334187 0.00417286 0.0274771 0.00604292 0.0434648
85 1 Mg -3.20145 21.2692 57.5799 1.2 1 0.0208378 0.0141402 0.00482178 0.00546069 0.00121608 0.00667952 0.00185564 0.0227045 0.0019766 0.00991299 0.00218926 0.028051 0.00241897 0.0210108 0.00285558 0.0335594 0.00326314 0.0261796 0.00442389 0.047241
86 1 Mg -1.5831 21.1217 49.8405 1.2 1 0.178623 0.0500274 0.00711826 0.0133613 0.00319153 0.01581 0.00332789 0.0269267 0.00438395 0.0188998 0.00452509 0.0303205 0.00404474 0.0268196 0.00541554 0.0351958 0.00602848 0.0322613 0.00921507 0.0402418
87 2 Si -1.09384 18.6291 47.9287 2.4 1 0.229996 0.0554601 0.0145466 0.0178044 0.00368231 0.0205888 0.00454968 0.029122 0.00764846 0.0214583 0.00581358 0.0318264 0.00571795 0.0297451 0.00669491 0.0363694 0.00932538 0.0353845 0.0114102 0.0405152
88 3 O -1.02071 20.1985 47.9911 -1.2 1 0.230418 0.0551483 0.0149946 0.0179904 0.00406417 0.0211111 0.00438656 0.0289327 0.00764278 0.0214249 0.00654188 0.0316944 0.00582419 0.0287226 0.00813247 0.0367763 0.00891743 0.0356223 0.0115321 0.0403952
89 3 O -1.65002 17.5002 51.771 -1.2 1 0.134373 0.0422381 0.00196494 0.0106031 0.00271825 0.012 0.00177959 0.02543 0.00344953 0.0162413 0.00286216 0.02881 0.00403146 0.0256153 0.00412893 0.0343744 0.00490886 0.02992 0.00708402 0.0421454
90 3 O -2.26174 18.0434 48.8281 -1.2 1 0.205447 0.0549675 0.00972844 0.015481 0.00380872 0.0173993 0.00439255 0.0282236 0.00615976 0.0211726 0.00447647 0.0309851 0.00462008 0.0290538 0.00609829 0.03656 0.00753921 0.0344745 0.0102735 0.0401253
91 1 Mg -0.0440435 16.5651 46.8269 1.2 1 0.25683 0.0563675 0.0189946 0.0202708 0.00497901 0.0243016 0.00608876 0.0322958 0.00954681 0.0229672 0.00672228 0.0332136 0.0066867 0.0304848 0.00852183 0.0361425 0.0101777 0.0376704 0.0129177 0.0391913
92 3 O 0.37001 17.9877 48.3925 -1.2 1 0.214695 0.0555301 0.0111693 0.016565 0.00359818 0.0187521 0.00384543 0.0290231 0.00701101 0.0212965 0.00443668 0.0310553 0.00528137 0.0302524 0.00587589 0.0357422 0.00819578 0.0361436 0.010436 0.040862
93 1 Mg 1.36481 16.582 54.7043 1.2 1 0.0680074 0.0303329 0.00467654 0.00648758 0.00157105 0.00802895 0.0027484 0.0234167 0.00285325 0.012468 0.00215854 0.0274982 0.0035261 0.0234969 0.00346323 0.0345984 0.00334534 0.0274764 0.00556105 0.0447561
94 2 Si 1.29238 19.1958 56.388 2.4 1 0.0329119 0.0196591 0.00617643 0.00633573 0.0015224 0.00700875 0.00227302 0.022542 0.00184409 0.00987087 0.0036648 0.0264572 0.00263777 0.021726 0.00458072 0.0337067 0.0033912 0.0263946 0.00618114 0.0485559
95 3 O 1.16731 17.6351 56.4904 -1.2 1 0.0321241 0.0190508 0.00602311 0.00607657 0.00133777 0.0070548 0.00215615 0.0227823 0.00293613 0.00981305 0.00209182 0.027018 0.00299832 0.0210907 0.00303044 0.0338587 0.00446767 0.0266846 0.00513058 0.0480946
96 3 O 1.45147 20.239 52.7294 -1.2 1 0.110113 0.0384826 0.00117002 0.0081456 0.00164133 0.0118566 0.00310177 0.0246694 0.00291277 0.0149526 0.00356465 0.0279969 0.00392512 0.0244497 0.00383811 0.03377 0.00384044 0.0295514 0.0063929 0.0431359
97 3 O -0.0152653 19.9186 55.6759 -1.2 1 0.0502555 0.0254014 0.00533924 0.00604216 0.00132104 0.00755122 0.00219401 0.023762 0.00175003 0.011357 0.00270762 0.0267277 0.00272951 0.0228792 0.00461643 0.0338751 0.00330136 0.0273309 0.005191 0.0468092
98 3 O 2.56646 19.8913 55.7302 -1.2 1 0.0416104 0.0231506 0.00618677 0.00592868 0.00123648 0.00720425 0.00264411 0.0231655 0.00184111 0.0105743 0.00274238 0.026507 0.00278649 0.0222338 0.00344319 0.0344353 0.00304482 0.0273101 0.00569842 0.0471319
99 1 Mg -0.126194 18.8651 52.2079 1.2 1 0.11569 0.0418964 0.00192637 0.00935008 0.00231069 0.0104276 0.00215398 0.0250358 0.00304729 0.0156305 0.00302486 0.0284879 0.00321729 0.0252021 0.00324796 0.0342776 0.00403875 0.0299997 0.00672912 0.0422126
100 1 Mg 1.92402 18.5815 49.4545 1.2 1 0.181586 0.0541171 0.00556872 0.0126691 0.00229652 0.0154805 0.00457152 0.0267993 0.00490966 0.0202249 0.00406711 0.0302164 0.00480654 0.0284311 0.00490361 0.0362068 0.00632072 0.033911 0.00951562 0.0407121
101 2 Si 1.38106 20.9117 51.2443 2.4 1 0.144944 0.0477477 0.00215429 0.010822 0.00231522 0.0136205 0.00401668 0.0257291 0.00368807 0.0173727 0.00493229 0.0278272 0.00415771 0.0265871 0.00519036 0.0346443 0.00380897 0.031828 0.00826132 0.0421357
102 3 O 1.48527 22.4795 51.3054 -1.2 1 0.143357 0.0451787 0.00251545 0.010142 0.00204759 0.0133455 0.00337221 0.0252815 0.00417035 0.0165396 0.00349021 0.0286571 0.00383632 0.025622 0.00382921 0.0342045 0.00473949 0.0310039 0.00738292 0.0418311
103 3 O 1.26589 19.9468 57.9244 -1.2 1 0.0170746 0.0122398 0.00413154 0.00572156 0.00120173 0.00685453 0.00194359 0.0233508 0.00174458 0.00934297 0.0026763 0.0269602 0.00238742 0.0209018 0.0025249 0.0336426 0.00284255 0.0264342 0.00467544 0.0484098
104 3 O 0.0615419 20.2804 50.6669 -1.2 1 0.154606 0.0478493 0.00383269 0.0118057 0.00315664 0.013953 0.00382489 0.0258091 0.00380866 0.016999 0.00342485 0.0286173 0.00389234 0.0272226 0.0051881 0.0349231 0.00408062 0.0317616 0.00836297 0.0420621
105 1 Mg -3.09665 18.8643 52.3122 1.2 1 0.122573 0.0416084 0.00113236 0.00890503 0.00145003 0.0119599 0.00266493 0.0249006 0.00282258 0.0160869 0.00297149 0.0284973 0.00341724 0.0255386 0.00352217 0.0340027 0.00420472 0.0297987 0.00637454 0.0416093
106 3 O 2.61548 20.2646 50.4626 -1.2 1 0.157684 0.0496973 0.00380639 0.0107321 0.00199523 0.0144949 0.00384004 0.0263471 0.0036324 0.0191837 0.00365399 0.0287402 0.00388061 0.0274078 0.00504006 0.035158 0.00467984 0.031813 0.00777538 0.0408925
107 1 Mg -1.74623 18.8842 55.1087 1.2 1 0.0540929 0.0274303 0.00561358 0.00657393 0.00139573 0.00749153 0.00270479 0.023731 0.00246737 0.0119491 0.00362826 0.0270959 0.00248963 0.0229451 0.00409537 0.034116 0.0037248 0.0277701 0.0058531 0.0464223
108 2 Si -1.63886 16.8559 53.2662 2.4 1 0.0969057 0.0370424 0.00291466 0.00838262 0.00206419 0.00907256 0.00155956 0.024279 0.00346401 0.0142532 0.00246035 0.0274012 0.00307833 0.0248961 0.0031261 0.0344016 0.00451481 0.0288707 0.00600963 0.0441801
109 3 O -1.75521 15.2919 53.2085 -1.2 1 0.0983462 0.0362749 0.0027577 0.00841809 0.00209757 0.00956792 0.00166806 0.02422 0.00341435 0.0137096 0.00283678 0.027751 0.00313858 0.0240353 0.00441976 0.034093 0.00322849 0.0283843 0.00717424 0.0440345
110 3 O -1.12868 18.1227 46.4249 -1.2 1 0.266099 0.0562433 0.0206891 0.0212726 0.00526633 0.0241318 0.00635114 0.0326863 0.00878327 0.0227081 0.00609965 0.0336936 0.0067594 0.0282789 0.00870141 0.0379229 0.0122753 0.0382295 0.0132352 0.0395226
111 3 O -2.77729 17.516 54 -1.2 1 0.0843529 0.0337625 0.00323316 0.00701406 0.00111888 0.00931702 0.00163816 0.0240936 0.00244322 0.013681 0.00231215 0.0273191 0.00271615 0.0244584 0.00292296 0.0345263 0.00370071 0.0281096 0.00582753 0.0443055
112 3 O -0.291513 17.4323 53.8921 -1.2 1 0.0807693 0.0334527 0.00382959 0.00713138 0.00222877 0.00787466 0.00143046 0.024328 0.00229595 0.0131613 0.00254838 0.0270709 0.0028814 0.024423 0.00329961 0.0344196 0.0040229 0.0283426 0.00552626 0.0444877
113 1 Mg -3.1352 26.049 57.3522 1.2 1 0.0231245 0.0148237 0.00547848 0.00631361 0.00131643 0.00703202 0.00166515 0.0229912 0.0017945 0.00945055 0.00270333 0.0280139 0.00229245 0.0205084 0.00327559 0.0328333 0.00321164 0.0260096 0.00548736 0.0465759
114 1 Mg -1.48778 25.88 49.8402 1.2 1 0.1789 0.0502248 0.00748694 0.0132446 0.00316771 0.0162155 0.00370001 0.0270442 0.00393893 0.0183423 0.00438111 0.0305991 0.00396335 0.0265542 0.00565338 0.0342858 0.00589131 0.0319944 0.00923879 0.039916
115 2 Si -1.00491 23.3922 47.9274 2.4 1 0.232555 0.0562279 0.0155051 0.0181361 0.00374762 0.0217177 0.00487995 0.0289594 0.00765878 0.02145 0.00580874 0.0320891 0.00634268 0.0291595 0.00699839 0.0358817 0.00953901 0.035012 0.0117859 0.0400229
116 3 O -0.927602 24.9615 47.9909 -1.2 1 0.230157 0.0553905 0.0153238 0.0178964 0.00389535 0.0215098 0.00442831 0.0288321 0.0071837 0.020992 0.00634022 0.0316169 0.00593379 0.0284114 0.00784126 0.0361176 0.00893872 0.0350298 0.0111305 0.0396748
117 3 O -1.55795 22.2588 51.7696 -1.2 1 0.133313 0.0426106 0.0018368 0.0103806 0.00267076 0.0122794 0.00199724 0.0249027 0.0026672 0.0156678 0.00262477 0.0283932 0.00385379 0.0247329 0.00386923 0.0338298 0.00526973 0.0298893 0.00702964 0.041905
118 3 O -2.17411 22.8111 48.8277 -1.2 1 0.203748 0.0554493 0.0101491 0.0152021 0.00326212 0.0179227 0.0039639 0.0284264 0.00527921 0.0209018 0.00443646 0.0308666 0.00466264 0.0283577 0.00591309 0.0362311 0.00712424 0.0342602 0.0102542 0.0400765
119 1 Mg 0.0423997 21.3296 46.8225 1.2 1 0.256175 0.0568399 0.0192821 0.0206668 0.00456914 0.0255383 0.00601545 0.0320147 0.00889221 0.0231671 0.00693228 0.0335938 0.00713989 0.0296404 0.00926212 0.0366317 0.0101079 0.0378656 0.0132906 0.0401661
120 3 O 0.458537 22.7495 48.3911 -1.2 1 0.212745 0.0555159 0.0114784 0.0162687 0.00349884 0.0192454 0.00355242 0.0285481 0.00597889 0.0207341 0.00435215 0.0308144 0.00535878 0.0295378 0.00611694 0.0354474 0.00768712 0.0356791 0.0104052 0.0406852
121 1 Mg 1.37095 21.3502 54.5851 1.2 1 0.0705141 0.0313298 0.00420734 0.00638848 0.00160184 0.00858328 0.00263548 0.0235634 0.0022294 0.0125735 0.00250556 0.0271013 0.00347764 0.0236405 0.00349325 0.0342679 0.00332661 0.0277819 0.0056185 0.0445841