ITEM: TIMESTEP
60400
ITEM: NUMBER OF ATOMS
10500
ITEM: BOX BOUNDS xy xz yz pp pp pp
0	8.9688	2.9896
0	118.725	0
0	252.977	0
ITEM: ATOMS id type element xu yu zu q Q_1 Q_2 Q_3 Q_4 Q_5 Q_6 Q_7 Q_8 Q_9 Q_10 Q_11 Q_12 Q_13 Q_14 Q_15 Q_16 Q_17 Q_18 Q_19 Q_20 Q_21
1 1 Mg -3.47015 6.99449 57.3943 1.2 1 0.0233482 0.0159233 0.0056532 0.00592262 0.00122225 0.00691153 0.00128982 0.0211835 0.00169037 0.00985652 0.00201088 0.0253153 0.00298485 0.0198904 0.00325926 0.0308311 0.00344277 0.0252768 0.00527909 0.038722
2 1 Mg -1.82655 6.90154 50.0912 1.2 1 0.17271 0.0496011 0.00623088 0.0104833 0.00338037 0.00981503 0.00427141 0.0222613 0.00510024 0.0156702 0.00435932 0.0245149 0.0045907 0.0213474 0.00664074 0.0283427 0.0058371 0.0274484 0.00749822 0.0328186
3 2 Si -0.257935 3.96038 48.0876 2.4 1 0.222504 0.0552271 0.0121547 0.0124853 0.00258194 0.0100563 0.0039448 0.0200051 0.00578377 0.0175529 0.00449897 0.0234685 0.00544722 0.0210069 0.00580884 0.0261361 0.00686858 0.0262129 0.00884891 0.0311926
4 3 O -0.335812 5.46814 47.6264 -1.2 1 0.231851 0.0549441 0.0141667 0.0137286 0.00351905 0.0113469 0.00467937 0.0209812 0.00689061 0.0183719 0.00463187 0.0240398 0.00499066 0.0216018 0.00606053 0.0264068 0.00740492 0.0271059 0.00960502 0.0302713
5 3 O -2.03793 3.43377 51.8941 -1.2 1 0.125332 0.0419772 0.00184065 0.00764956 0.00191129 0.00748885 0.00270074 0.0202239 0.00354838 0.0119044 0.00321215 0.0232032 0.0034329 0.0178467 0.00379841 0.0275016 0.00527109 0.0248312 0.00626435 0.0338219
6 3 O -1.54015 3.53929 48.9521 -1.2 1 0.198538 0.0525147 0.00885517 0.0113445 0.00254117 0.00881974 0.00410494 0.0200423 0.00491428 0.0155611 0.00414132 0.0227604 0.00471263 0.0199351 0.00610308 0.0262532 0.00546707 0.0255927 0.00832303 0.030282
7 1 Mg 1.82954 2.54582 47.1376 1.2 1 0.243425 0.0546048 0.0164353 0.0156974 0.00336363 0.0110048 0.00350109 0.0199472 0.0056819 0.0160556 0.00436789 0.0232052 0.00590808 0.019403 0.0069668 0.0242334 0.00585709 0.0240859 0.00863468 0.0295897
8 3 O 1.22989 3.66364 48.7877 -1.2 1 0.202803 0.0522723 0.0098369 0.0122197 0.00227585 0.00978683 0.00450501 0.0203276 0.00451351 0.0153814 0.00393757 0.0228922 0.0047621 0.0197528 0.00641411 0.0258901 0.00480267 0.0251462 0.00832867 0.0316155
9 1 Mg 1.26881 2.28517 54.5653 1.2 1 0.0681863 0.0306753 0.00492308 0.0051395 0.0015094 0.00508893 0.00248376 0.0209066 0.00305354 0.00998461 0.00250908 0.0234449 0.00329536 0.0185519 0.0034051 0.029925 0.0038644 0.0244802 0.00552065 0.0365019
10 2 Si 0.899565 4.82412 56.4444 2.4 1 0.0342214 0.0211654 0.00632218 0.00606191 0.00130198 0.00697724 0.00171087 0.0214301 0.00185847 0.00928927 0.00288346 0.023768 0.00299282 0.0195743 0.00353722 0.0303891 0.0035419 0.0254038 0.00521089 0.0393091
11 3 O 0.929715 3.27505 56.539 -1.2 1 0.0341151 0.0204095 0.00563439 0.0051343 0.00119175 0.0055102 0.00214454 0.0212911 0.0028458 0.00885525 0.00199799 0.0245077 0.00290547 0.0182578 0.00254549 0.0306087 0.00366726 0.0251178 0.00454917 0.0389643
12 3 O 1.10813 6.07342 52.8172 -1.2 1 0.103525 0.0374293 0.00245326 0.00730126 0.00214791 0.00773839 0.00312063 0.0217434 0.00374342 0.0122255 0.00288126 0.0240538 0.00378759 0.0195902 0.00405791 0.0291237 0.00525105 0.0265149 0.00591414 0.0355101
13 3 O -0.386272 5.5077 55.9733 -1.2 1 0.0399103 0.02323 0.00668586 0.00561372 0.00132123 0.00594444 0.00178915 0.0212511 0.00204728 0.00976569 0.00248108 0.0246354 0.00282696 0.0192943 0.00426897 0.0306788 0.00353345 0.0255338 0.00583871 0.0388023
14 3 O 2.16395 5.67635 55.8201 -1.2 1 0.0409419 0.0237272 0.00683924 0.0057046 0.00110869 0.0063014 0.00199954 0.0213544 0.00153003 0.010147 0.00250851 0.0241772 0.00292198 0.0201132 0.00374876 0.031091 0.00344984 0.0257312 0.00568235 0.0380642
15 1 Mg -0.459401 4.67631 52.2426 1.2 1 0.121469 0.041959 0.00177467 0.00749841 0.00224337 0.00731704 0.00215201 0.0209668 0.00375901 0.0127718 0.00252369 0.0242574 0.00337823 0.0189898 0.00386354 0.0285264 0.00481395 0.0253246 0.00554967 0.0339036
16 1 Mg 2.79456 3.9971 49.9987 1.2 1 0.173075 0.0510619 0.00585987 0.0104452 0.0025504 0.00841261 0.00446193 0.0205795 0.00380253 0.0151158 0.00223125 0.022743 0.00414285 0.0205356 0.00651951 0.0270361 0.00443753 0.0258701 0.00782927 0.0311844
17 2 Si 1.16169 6.59457 51.2556 2.4 1 0.144395 0.046938 0.0023183 0.00945775 0.00266639 0.00927331 0.00399623 0.0215635 0.00452435 0.014412 0.0040167 0.0237499 0.00447063 0.0213478 0.00657762 0.0298887 0.00469299 0.0280276 0.00766929 0.0343052
18 3 O 1.28989 8.18905 51.2909 -1.2 1 0.143796 0.0461347 0.00248858 0.00946034 0.00266034 0.00999395 0.00429513 0.0220832 0.00416045 0.0145597 0.00366046 0.0253832 0.00402622 0.0221309 0.00555057 0.0297309 0.00522968 0.0287484 0.00720904 0.0356211
19 3 O 1.05716 5.40948 58.0015 -1.2 1 0.0170788 0.0127702 0.00438319 0.00608022 0.00126486 0.0075395 0.00117014 0.0216868 0.00148118 0.00938993 0.00249773 0.025279 0.00309849 0.0195063 0.00321425 0.0309613 0.00339629 0.0254165 0.00470539 0.0401631
20 3 O -0.184847 6.06029 50.6845 -1.2 1 0.158385 0.0470314 0.00498199 0.00972928 0.00334589 0.00893626 0.00422336 0.0212855 0.00460386 0.0144624 0.00277076 0.0236131 0.00394847 0.0204104 0.00542874 0.0280228 0.00522743 0.0268649 0.00725364 0.0338812
21 1 Mg -3.49704 4.67769 52.6661 1.2 1 0.110816 0.039204 0.00165504 0.00706081 0.00196954 0.00739086 0.00264706 0.0202 0.00397029 0.0119901 0.00312221 0.0238031 0.0032894 0.0189805 0.00389479 0.0280354 0.00456896 0.0249544 0.0058692 0.0343482
22 3 O 2.48581 5.93312 50.6539 -1.2 1 0.153907 0.0486408 0.0038979 0.00886476 0.00191272 0.00930826 0.00405523 0.0218184 0.00474797 0.0148264 0.00369228 0.023631 0.00438118 0.0210912 0.0061164 0.0286765 0.00471586 0.0271346 0.00737352 0.0334989
23 1 Mg -2.16984 4.75425 55.5434 1.2 1 0.0462896 0.0260772 0.00676217 0.00534406 0.00131418 0.0060704 0.00154908 0.0214869 0.00274406 0.00987301 0.00254715 0.0250146 0.00233486 0.0191971 0.00343225 0.0306374 0.00403159 0.0254451 0.00508392 0.0381803
24 2 Si -1.83965 2.69952 53.2399 2.4 1 0.0995851 0.0370449 0.00269386 0.00628583 0.00247129 0.0059457 0.00247436 0.0203311 0.00339405 0.0111097 0.00297386 0.0234756 0.00317637 0.0183016 0.00383058 0.0287503 0.00497377 0.0242086 0.00609512 0.035276
25 3 O -1.9352 1.16254 53.2033 -1.2 1 0.0978208 0.0363818 0.00275828 0.00624587 0.00244088 0.00570749 0.00252472 0.0206898 0.00303859 0.0102608 0.00276826 0.023365 0.00352132 0.0178303 0.00441846 0.0289592 0.00415674 0.0240272 0.00622271 0.035505
26 3 O -0.0467762 2.97103 46.8385 -1.2 1 0.248456 0.0548384 0.0168533 0.0149326 0.00304288 0.0101038 0.00395435 0.0196383 0.00610067 0.0172104 0.00544066 0.0231848 0.00684705 0.0191081 0.00785479 0.0243729 0.00637838 0.0246698 0.0102168 0.030333
27 3 O -3.05935 3.38437 54.2129 -1.2 1 0.0768644 0.0318511 0.00403118 0.00508854 0.00151184 0.00584229 0.00217142 0.0205703 0.00276943 0.0107337 0.00209319 0.0234659 0.00231331 0.0186327 0.00333584 0.029107 0.00402392 0.0244594 0.00566764 0.0357855
28 3 O -0.514332 3.3783 53.9049 -1.2 1 0.0803178 0.0338074 0.00402282 0.00535908 0.00196388 0.00621363 0.00194469 0.0213056 0.0028652 0.0106687 0.00191389 0.0236214 0.00257893 0.0188106 0.00259933 0.0292527 0.00435149 0.0254724 0.00545552 0.0364149
29 1 Mg -3.25059 11.5402 57.5393 1.2 1 0.0205383 0.0144763 0.00467833 0.00599998 0.00121102 0.00680372 0.00164886 0.0219094 0.00193049 0.0110102 0.00189365 0.0263703 0.00231514 0.0202742 0.00344027 0.0324866 0.00381118 0.0265815 0.00453063 0.0422945
30 1 Mg -1.75014 11.5838 49.8362 1.2 1 0.181232 0.0498875 0.00785648 0.0119234 0.00438635 0.0129718 0.00519234 0.0235759 0.0054628 0.0171071 0.00508625 0.0274274 0.00454071 0.0249434 0.00789396 0.0322876 0.0068266 0.030501 0.00894904 0.0360399
31 2 Si -1.18003 9.02138 47.9309 2.4 1 0.23715 0.0545917 0.0154859 0.0153896 0.00524664 0.0138443 0.00747227 0.0228923 0.00817985 0.018417 0.00684756 0.0256984 0.00494179 0.0238756 0.00718877 0.0298778 0.00870185 0.0300761 0.0108656 0.0339592
32 3 O -1.23224 10.5991 47.9811 -1.2 1 0.228811 0.0561253 0.0139791 0.0157452 0.00524199 0.0146493 0.00639727 0.0241026 0.00828651 0.0187572 0.00689674 0.0271199 0.00538737 0.0255053 0.0082648 0.0320036 0.00925025 0.0321096 0.0100549 0.0345181
33 3 O -1.79016 8.01447 51.8693 -1.2 1 0.130408 0.0430536 0.00161697 0.00918581 0.00343026 0.00850318 0.00274326 0.0220809 0.00405399 0.0137485 0.00369187 0.0253184 0.0040038 0.0210472 0.0045051 0.0298153 0.00566005 0.0274837 0.00679171 0.0361865
34 3 O -2.30986 8.37215 48.8528 -1.2 1 0.20005 0.0542629 0.00888472 0.0122029 0.00418588 0.0108955 0.00585942 0.023224 0.00643636 0.0180711 0.00514684 0.0257745 0.00405866 0.0238255 0.00665361 0.0308631 0.00692945 0.0295927 0.00831043 0.0336201
35 1 Mg 0.154883 7.08234 46.8007 1.2 1 0.257052 0.0556518 0.0188686 0.0159331 0.00565789 0.0146709 0.00862111 0.0236602 0.0082171 0.0187684 0.00717933 0.0246961 0.00726155 0.0223265 0.00814856 0.0285921 0.00950714 0.0297702 0.012171 0.0320175
36 3 O 0.325447 8.50934 48.3809 -1.2 1 0.215823 0.0562969 0.011625 0.0136971 0.00455903 0.0128118 0.00605628 0.0236768 0.00692848 0.0181643 0.0058001 0.0259053 0.00547687 0.024945 0.00609721 0.0299635 0.00808753 0.0300898 0.00964691 0.0341523
37 1 Mg 1.34592 7.26699 54.8396 1.2 1 0.0614394 0.0302906 0.00577783 0.00570177 0.00129241 0.00622909 0.00235112 0.0212166 0.00219868 0.0113856 0.00246061 0.0242564 0.00291365 0.0209721 0.00343816 0.030934 0.00410887 0.0261282 0.00539586 0.0371674
38 2 Si 1.0346 9.6309 56.6784 2.4 1 0.0310491 0.0194904 0.00589709 0.00692791 0.00107921 0.00712196 0.00186201 0.0217114 0.00200694 0.00997581 0.00283042 0.0240433 0.00284721 0.0211544 0.00383765 0.0315093 0.00432706 0.0263451 0.00540516 0.0416618
39 3 O 1.02032 8.04741 56.7174 -1.2 1 0.0286658 0.0186626 0.00609997 0.00628515 0.00107315 0.00711773 0.00192559 0.0213641 0.00278337 0.00932607 0.00211777 0.0246194 0.00297392 0.0197873 0.00299268 0.0311659 0.00462873 0.0260227 0.00540899 0.0400549
40 3 O 1.28624 10.7248 52.7351 -1.2 1 0.108585 0.038957 0.00169034 0.00778735 0.00247085 0.0100153 0.00310619 0.0227931 0.0032618 0.0135962 0.00370291 0.0258529 0.00464459 0.0223552 0.0050149 0.0316319 0.00456822 0.0288315 0.00667349 0.0381813
41 3 O -0.337153 10.32 56.0734 -1.2 1 0.0401197 0.0228848 0.00628891 0.00649761 0.0010538 0.00700079 0.00206676 0.0221119 0.00133732 0.0105029 0.00230966 0.0250672 0.00325869 0.0209059 0.0041726 0.0324189 0.00378269 0.0271702 0.00638335 0.0414474
42 3 O 2.38534 10.2051 55.9581 -1.2 1 0.0396545 0.0238534 0.00649219 0.00623702 0.000969675 0.00648175 0.00211364 0.0217066 0.0021668 0.0106408 0.00240516 0.0250371 0.00291559 0.0212883 0.00409058 0.0327994 0.00332675 0.0274699 0.00504721 0.041421
43 1 Mg -0.262694 9.34741 52.2523 1.2 1 0.111365 0.0418452 0.00255407 0.0083174 0.00279188 0.00833158 0.00268824 0.0227745 0.00328886 0.0134622 0.00341277 0.0260013 0.0034333 0.0219505 0.005143 0.0308727 0.00477203 0.0285197 0.00664485 0.0363589
44 1 Mg 1.87648 9.01537 49.4629 1.2 1 0.182366 0.0543989 0.00564449 0.0114833 0.00325816 0.0113992 0.0060326 0.0234406 0.00526706 0.0172059 0.00490382 0.0261457 0.00457356 0.0240017 0.00703863 0.0309438 0.00563878 0.030488 0.00910836 0.0349233
45 2 Si 1.21415 11.3799 51.2378 2.4 1 0.147718 0.0482651 0.00233046 0.0101269 0.00310348 0.0114318 0.00410452 0.0229254 0.00421725 0.0157148 0.00433311 0.0260631 0.00430521 0.0251524 0.00629836 0.0320702 0.00550514 0.0308681 0.00878702 0.0378333
46 3 O 1.31634 12.9512 51.3023 -1.2 1 0.143721 0.045127 0.00322763 0.00935782 0.00253591 0.0117681 0.00335419 0.0231363 0.00469861 0.0155102 0.00359034 0.0274895 0.00423406 0.024836 0.00592979 0.0333675 0.00604099 0.0306516 0.00726811 0.039022
47 3 O 1.1055 10.4257 58.0319 -1.2 1 0.0172524 0.0126742 0.00403343 0.0064385 0.00145429 0.00749667 0.00174407 0.0222311 0.00194627 0.00999237 0.00283749 0.0256578 0.00306324 0.0202268 0.00338112 0.0321308 0.00408388 0.0262283 0.00509483 0.0424297
48 3 O -0.115718 10.7564 50.681 -1.2 1 0.156343 0.0485282 0.00430619 0.0106819 0.00353784 0.0111352 0.00437323 0.0229923 0.00453143 0.0156079 0.00343201 0.0262654 0.00437837 0.0245618 0.00627489 0.0312394 0.00562078 0.0302325 0.00825844 0.036488
49 1 Mg -3.26386 9.35564 52.3622 1.2 1 0.120624 0.0417651 0.00126325 0.00800657 0.0021925 0.00978137 0.0035482 0.0220774 0.0038254 0.0140057 0.00376752 0.0255045 0.00355509 0.0223663 0.00490205 0.0310401 0.00494411 0.0277038 0.00705385 0.0359159
50 3 O 2.45216 10.7265 50.4558 -1.2 1 0.162193 0.0505923 0.00441356 0.00994242 0.00277071 0.0117265 0.00496829 0.0229375 0.00488762 0.0170613 0.0040503 0.0262379 0.0039232 0.0252587 0.00648965 0.0319847 0.00595608 0.030584 0.00815043 0.036282
51 1 Mg -1.88159 9.44875 55.0363 1.2 1 0.0551981 0.0295232 0.00572866 0.00621572 0.00203894 0.00683224 0.00239543 0.0219671 0.00303 0.0109978 0.00313532 0.0252649 0.0028652 0.021482 0.00359311 0.0316128 0.00497504 0.0274343 0.00545221 0.0399818
52 2 Si -1.83485 7.24133 53.3155 2.4 1 0.0950696 0.0375095 0.00292161 0.00722005 0.0033419 0.0073296 0.00266518 0.0212853 0.0042979 0.0123796 0.00285707 0.0246416 0.00284127 0.0209654 0.00367332 0.0297925 0.00521981 0.026285 0.00550433 0.0370523
53 3 O -1.99312 5.77652 53.1785 -1.2 1 0.097483 0.0368336 0.00281135 0.00692359 0.00236516 0.00760711 0.00206398 0.0209718 0.00445489 0.0114003 0.00296124 0.0240607 0.00316015 0.019219 0.00457299 0.0298287 0.00414126 0.0262231 0.00615838 0.0362629
54 3 O -1.19417 8.46968 46.4488 -1.2 1 0.267058 0.0555212 0.021015 0.0176598 0.00559188 0.0153334 0.00892636 0.0244147 0.00886332 0.0184009 0.00742024 0.0254246 0.00622512 0.0221177 0.00908763 0.0298229 0.0102504 0.0309397 0.0115248 0.0320214
55 3 O -3.11518 7.97886 54.0313 -1.2 1 0.0814831 0.0335518 0.00356438 0.00623106 0.00228484 0.00772014 0.00201504 0.021606 0.0031931 0.012141 0.00277893 0.0240022 0.00277634 0.0209639 0.00411739 0.0307742 0.00507406 0.0267788 0.0057928 0.0371604
56 3 O -0.543584 8.01562 54.0677 -1.2 1 0.0757735 0.0336133 0.00496365 0.00612776 0.00249917 0.0064843 0.00146529 0.021751 0.00273108 0.0116998 0.0026728 0.0245587 0.00270634 0.0210388 0.00410484 0.030926 0.00459765 0.0276809 0.00611128 0.0380346
57 1 Mg -3.3546 16.3992 57.6601 1.2 1 0.021055 0.0134484 0.00465211 0.00579642 0.00150004 0.00633246 0.00143905 0.0213943 0.00209862 0.0100315 0.0024033 0.0265802 0.00202579 0.0200797 0.00273876 0.0330195 0.00296811 0.0258121 0.00413101 0.0453261
58 1 Mg -1.6714 16.3544 49.8412 1.2 1 0.182038 0.0495566 0.00736517 0.0124763 0.0032465 0.0152367 0.00333234 0.0255633 0.00436662 0.0187228 0.00430393 0.0304513 0.00383634 0.0274715 0.0072074 0.0349414 0.00600155 0.0323776 0.00864842 0.0390583
59 2 Si -1.18567 13.8526 47.9314 2.4 1 0.232172 0.0563028 0.0157219 0.0166335 0.00461789 0.0185543 0.00538005 0.0266673 0.00887433 0.0205589 0.00637255 0.0304493 0.00528279 0.0295671 0.0072742 0.034607 0.0102724 0.0338119 0.0107774 0.0373704
60 3 O -1.09664 15.4205 47.9915 -1.2 1 0.233041 0.0554389 0.0155835 0.0171816 0.00509949 0.0200052 0.00485202 0.0276914 0.0080783 0.0207891 0.00674305 0.0309319 0.00506302 0.0287413 0.00862719 0.0353943 0.00954894 0.0354817 0.0102565 0.037684
61 3 O -1.73493 12.7491 51.7772 -1.2 1 0.133604 0.0428796 0.00261936 0.0095918 0.00347565 0.0104943 0.00197294 0.0235224 0.00382525 0.0150981 0.00301342 0.0274156 0.00409391 0.0245493 0.00526783 0.0328905 0.00558677 0.0298734 0.007176 0.0389476
62 3 O -2.36115 13.2717 48.8238 -1.2 1 0.206346 0.0556003 0.0103186 0.0140332 0.00473081 0.0146897 0.00535603 0.0260618 0.00653973 0.0202793 0.00515652 0.029958 0.00404158 0.0281468 0.00680206 0.0344805 0.00870773 0.0333115 0.00962609 0.036868
63 1 Mg -0.159928 11.7639 46.8533 1.2 1 0.25828 0.0574948 0.0201669 0.0185854 0.00585428 0.0208481 0.00764596 0.0278326 0.0100057 0.0203153 0.00769651 0.029624 0.00688544 0.0279909 0.00904205 0.0331876 0.0108298 0.0348646 0.0124167 0.0353164
64 3 O 0.2623 13.1866 48.413 -1.2 1 0.216946 0.0561148 0.0121729 0.0151318 0.00470293 0.0169234 0.00498357 0.0263144 0.00745463 0.0195885 0.00514052 0.0291498 0.00506176 0.0293208 0.00622419 0.0335942 0.00968867 0.0349018 0.0100598 0.0371216
65 1 Mg 1.47745 11.6458 54.7326 1.2 1 0.0649798 0.0315299 0.00517376 0.00621519 0.0018668 0.00731276 0.00288951 0.0214845 0.00285529 0.0121313 0.0023889 0.0262352 0.00389853 0.0227048 0.0037229 0.0332791 0.00422436 0.0274625 0.00541216 0.0407572
66 2 Si 1.55996 14.3115 56.513 2.4 1 0.0325635 0.0192737 0.00582815 0.00632806 0.00156354 0.00657327 0.00198235 0.0218767 0.00183304 0.00999367 0.00298319 0.0255653 0.00300093 0.0213067 0.00365765 0.0333464 0.00336919 0.026634 0.00554111 0.0453654
67 3 O 1.3416 12.8162 56.5402 -1.2 1 0.0309633 0.0190317 0.00591307 0.00655206 0.00112323 0.00705209 0.0020517 0.0216311 0.00291118 0.00937109 0.00205372 0.0255349 0.00296768 0.02048 0.00271803 0.0331413 0.00462182 0.0270356 0.00488221 0.0446549
68 3 O 1.36565 15.4813 52.729 -1.2 1 0.112357 0.0386508 0.00135234 0.00772799 0.00204681 0.0110416 0.00299473 0.0231275 0.00290707 0.0143232 0.00317845 0.0280275 0.00397765 0.0238038 0.00514581 0.0331765 0.00459926 0.0298423 0.00654134 0.0415735
69 3 O 0.176059 15.0406 55.8446 -1.2 1 0.0443104 0.0237565 0.00573965 0.00613559 0.00120929 0.0070103 0.00213389 0.0214766 0.00166192 0.0103742 0.00292371 0.0261282 0.00313042 0.0214247 0.00372614 0.0335763 0.00398072 0.0271589 0.00553804 0.0448923
70 3 O 2.7654 14.9136 55.8367 -1.2 1 0.040299 0.0229013 0.00585258 0.00567843 0.00124625 0.00650806 0.0023351 0.0224081 0.00182386 0.010696 0.00284225 0.0258396 0.00265048 0.0219878 0.0034564 0.0342516 0.00345862 0.0278173 0.00577685 0.0449813
71 1 Mg -0.206989 14.1049 52.2121 1.2 1 0.116271 0.042072 0.0016158 0.00862942 0.00295423 0.00937681 0.0023159 0.0232119 0.0030422 0.0147754 0.00301269 0.0279264 0.00328396 0.0244724 0.00503646 0.0333673 0.00488723 0.0301306 0.00707685 0.039081
72 1 Mg 1.82591 13.8102 49.4556 1.2 1 0.185754 0.0544693 0.00633097 0.0117529 0.00305845 0.014009 0.00484831 0.0251706 0.00516835 0.0190972 0.00452282 0.0288039 0.00456042 0.0279661 0.00685275 0.03458 0.00705384 0.0335721 0.00936479 0.0368791
73 2 Si 1.29285 16.1518 51.2434 2.4 1 0.144785 0.0466645 0.00246239 0.0098573 0.00222082 0.012884 0.00328165 0.0242928 0.00395978 0.0166543 0.00432962 0.0281724 0.00400825 0.0264165 0.00617307 0.0337693 0.00511153 0.032268 0.00813556 0.0401439
74 3 O 1.39496 17.7199 51.3047 -1.2 1 0.144278 0.0440285 0.00285686 0.00920934 0.00157643 0.0128689 0.00300981 0.0240386 0.00372357 0.0160364 0.00305215 0.0287647 0.00363453 0.025448 0.00487262 0.0343059 0.00570163 0.0309326 0.0068966 0.0408393
75 3 O 1.29022 14.9166 58.0148 -1.2 1 0.017222 0.0117336 0.0036638 0.00598727 0.00139956 0.00664454 0.00184034 0.0222477 0.00180058 0.00953599 0.00271459 0.0257475 0.00275184 0.020036 0.00258083 0.0330779 0.00343747 0.0260506 0.00392612 0.0453602
76 3 O -0.0269106 15.5178 50.6688 -1.2 1 0.156795 0.0476427 0.00465339 0.0106099 0.00343001 0.0130946 0.00338797 0.0245853 0.00388274 0.016767 0.00285818 0.0284575 0.00396461 0.0270461 0.00590615 0.0338895 0.00512968 0.0320568 0.0079325 0.0391892
77 1 Mg -3.18391 14.1057 52.3125 1.2 1 0.123969 0.0423554 0.00183589 0.0081938 0.00237333 0.0112768 0.00255385 0.0235117 0.00338282 0.0152322 0.00306899 0.0277624 0.00338522 0.0247994 0.00512915 0.0331629 0.0049676 0.0299413 0.00663158 0.0391603
78 3 O 2.52432 15.503 50.4579 -1.2 1 0.161568 0.0499397 0.00472658 0.00992526 0.0022173 0.0134576 0.00376121 0.0244815 0.00450253 0.0183868 0.00354232 0.0287543 0.00369122 0.0275653 0.00635959 0.0347024 0.00603725 0.0319769 0.0077342 0.0384817
79 1 Mg -1.40036 14.2505 55.0955 1.2 1 0.0549103 0.0278525 0.00514358 0.00626794 0.00181031 0.00700768 0.002209 0.0222977 0.00261773 0.0115565 0.00283288 0.026297 0.00242655 0.0227279 0.00313811 0.0333852 0.00463441 0.0277392 0.00557082 0.043648
80 2 Si -1.73464 12.0004 53.2553 2.4 1 0.0963822 0.037817 0.00312007 0.00799898 0.00313843 0.00839013 0.00179467 0.0226985 0.00362013 0.0134356 0.00265851 0.0261294 0.00338791 0.0237811 0.00377553 0.0329297 0.00545109 0.0290672 0.00622479 0.0400946
81 3 O -1.86764 10.4414 53.1106 -1.2 1 0.100071 0.0385438 0.00287583 0.00765217 0.00290108 0.00826093 0.00205832 0.0220227 0.00376078 0.0126647 0.00321922 0.0254591 0.00341959 0.0222665 0.00474331 0.0317921 0.00445878 0.0280444 0.00685417 0.0387455
82 3 O -1.21337 13.3381 46.4311 -1.2 1 0.26754 0.0561589 0.0221295 0.0200059 0.00637789 0.021158 0.00774718 0.0295278 0.00984377 0.0211487 0.00699286 0.0310857 0.00556228 0.0274784 0.00937502 0.0353905 0.012271 0.0362855 0.0121724 0.0356755
83 3 O -3.02566 12.6914 53.9278 -1.2 1 0.0851231 0.0350723 0.00299796 0.00635183 0.0021366 0.00896083 0.00190704 0.0222439 0.00300539 0.0130933 0.00270197 0.026479 0.00339555 0.0234612 0.00444252 0.0332955 0.00439011 0.0283118 0.00572635 0.0407989
84 3 O -0.584954 12.5262 54.1315 -1.2 1 0.0770406 0.0332106 0.00396629 0.006448 0.00253605 0.00691669 0.00148193 0.0230141 0.00230306 0.0124168 0.00232696 0.0259475 0.00243178 0.0235735 0.00418272 0.0335642 0.00385244 0.028818 0.00631692 0.0412614
85 1 Mg -2.91781 21.1028 57.4105 1.2 1 0.0223689 0.0142072 0.00521711 0.00526425 0.00138394 0.00686262 0.00147976 0.021007 0.00204067 0.00943141 0.00159765 0.0259737 0.00193207 0.0198156 0.00220311 0.0326173 0.00301842 0.0258524 0.00356626 0.0463276
86 1 Mg -1.5831 21.1217 49.8405 1.2 1 0.182356 0.0493461 0.00761562 0.0125087 0.00318031 0.0157206 0.00313148 0.0259773 0.00396431 0.0188169 0.00440167 0.0300611 0.00371299 0.0271318 0.00675468 0.0357135 0.00551905 0.0321929 0.00918001 0.0401079
87 2 Si -1.09384 18.6291 47.9287 2.4 1 0.231167 0.0553195 0.0148538 0.0168501 0.00365773 0.0206556 0.0045048 0.0280997 0.00724464 0.0209027 0.00593945 0.0319633 0.00523377 0.0297998 0.0064602 0.0362771 0.00930988 0.0345603 0.0100455 0.0401519
88 3 O -1.02071 20.1985 47.9911 -1.2 1 0.230725 0.0546324 0.0151809 0.0171671 0.00404695 0.0208598 0.00418147 0.0283265 0.00672852 0.02112 0.00605413 0.0314791 0.00518835 0.0289771 0.00769579 0.0358899 0.0085157 0.0350965 0.00987482 0.0395259
89 3 O -1.65002 17.5002 51.771 -1.2 1 0.13513 0.04203 0.00252872 0.00944738 0.00269482 0.0116777 0.00164425 0.023704 0.00282987 0.0153712 0.00270276 0.0280152 0.00423041 0.0249906 0.00508065 0.0339883 0.00551829 0.0300324 0.007474 0.0406151
90 3 O -2.26174 18.0434 48.8281 -1.2 1 0.206752 0.0552424 0.010046 0.0144143 0.00346714 0.0173205 0.00412874 0.0276469 0.00574019 0.0206185 0.00456092 0.0312658 0.00391287 0.0289578 0.00656893 0.0361208 0.00768597 0.034425 0.0092157 0.03933
91 1 Mg -0.0440435 16.5651 46.8269 1.2 1 0.259137 0.057248 0.0195178 0.0199702 0.00493533 0.0248251 0.0059342 0.031435 0.00920364 0.0228679 0.00677897 0.0335006 0.00669937 0.0299435 0.00908492 0.0359591 0.00994518 0.0374655 0.0119177 0.0392038
92 3 O 0.37001 17.9877 48.3925 -1.2 1 0.214629 0.0546717 0.0112154 0.0153787 0.00364785 0.018365 0.00357069 0.0276546 0.00576135 0.0203521 0.00426674 0.0309561 0.00436416 0.0298427 0.00633553 0.0354395 0.00821813 0.0356559 0.00928854 0.0398624
93 1 Mg 1.50944 16.4755 54.7304 1.2 1 0.0683197 0.0306933 0.00423211 0.00563473 0.00182732 0.00737146 0.00276582 0.0216056 0.00258104 0.0124075 0.00267633 0.0267822 0.00329927 0.0229052 0.00425721 0.0344 0.00398799 0.0276886 0.00563434 0.0431066
94 2 Si 1.36854 19.0765 56.569 2.4 1 0.0322438 0.0188088 0.00586007 0.00626129 0.00122984 0.00664504 0.00205481 0.0212533 0.00192194 0.00940269 0.00298946 0.0256179 0.00226074 0.0204665 0.00347067 0.0329948 0.00320412 0.0262802 0.00482074 0.0465993
95 3 O 1.45329 17.5268 56.5175 -1.2 1 0.0333994 0.0190089 0.00573728 0.00638822 0.00131502 0.00669055 0.00198381 0.0212742 0.00276543 0.00915483 0.00224023 0.0260419 0.00260865 0.0202737 0.00272502 0.0332797 0.00380208 0.0264763 0.00499724 0.0460998
96 3 O 1.45147 20.239 52.7294 -1.2 1 0.11089 0.0374867 0.000934311 0.00789029 0.00138043 0.0117337 0.00288052 0.0235169 0.00214305 0.0138969 0.00309065 0.0275277 0.00374041 0.0233401 0.00456009 0.0336116 0.00385029 0.0290486 0.00629536 0.0422349
97 3 O 0.0649803 19.7366 55.8021 -1.2 1 0.04587 0.0234455 0.00571546 0.00592177 0.00080012 0.00729838 0.00224931 0.0217609 0.00168922 0.0100859 0.00269131 0.0256005 0.00204204 0.0207782 0.0031545 0.0338461 0.00318002 0.02734 0.00533633 0.0460048
98 3 O 2.55006 19.7922 55.739 -1.2 1 0.0441286 0.0235671 0.00623331 0.0057114 0.0010465 0.00679628 0.00236714 0.0217266 0.00183574 0.0101184 0.00244004 0.0254328 0.00226549 0.0213954 0.00347427 0.0337066 0.00306737 0.0269908 0.005414 0.0457085
99 1 Mg -0.126194 18.8651 52.2079 1.2 1 0.117916 0.0418664 0.00138094 0.00860783 0.00230671 0.0102645 0.00204638 0.0235623 0.00241941 0.0149473 0.00275929 0.0281875 0.00348825 0.024557 0.00464183 0.034023 0.00419549 0.030133 0.00700981 0.0408511
100 1 Mg 1.92402 18.5815 49.4545 1.2 1 0.184007 0.0534461 0.0056242 0.0118754 0.00177544 0.0152858 0.00377425 0.0257319 0.00385825 0.0194001 0.00364751 0.0302155 0.004084 0.0284808 0.00606754 0.0356824 0.0062202 0.0335143 0.00908645 0.0395678
101 2 Si 1.38106 20.9117 51.2443 2.4 1 0.148029 0.0471833 0.00249357 0.0103295 0.00219396 0.0135567 0.0035808 0.0247206 0.00311889 0.0166305 0.0041111 0.0276234 0.00418009 0.0267662 0.00587028 0.0346821 0.00416901 0.0318095 0.00816594 0.0414089
102 3 O 1.48527 22.4795 51.3054 -1.2 1 0.143125 0.0434848 0.00293149 0.0095294 0.00165717 0.0132094 0.00323966 0.0238635 0.00294774 0.01585 0.00299036 0.0278301 0.00369561 0.025385 0.004711 0.0347293 0.00468189 0.0304297 0.00690012 0.0413389
103 3 O 1.48084 19.8459 57.9445 -1.2 1 0.0170552 0.0118141 0.00362393 0.00593083 0.00121058 0.00682251 0.00169996 0.021655 0.00161723 0.0083584 0.00226017 0.0255345 0.00170051 0.019324 0.00238972 0.0328261 0.00236173 0.02594 0.00304893 0.047097
104 3 O 0.0615419 20.2804 50.6669 -1.2 1 0.156519 0.0467398 0.00431896 0.0109441 0.00337596 0.0138529 0.00355707 0.0248256 0.00316698 0.016558 0.0027815 0.0284565 0.00427226 0.0269498 0.00569603 0.0347238 0.00415906 0.0315171 0.00785894 0.0410018
105 1 Mg -3.09665 18.8643 52.3122 1.2 1 0.12383 0.0411961 0.00133831 0.00813921 0.00137229 0.0116977 0.00228342 0.0232775 0.00221548 0.01531 0.00265879 0.0281688 0.0034794 0.0251489 0.00408071 0.0337425 0.00435866 0.0295393 0.00635921 0.0405609
106 3 O 2.61548 20.2646 50.4626 -1.2 1 0.162428 0.0495122 0.00445938 0.0101921 0.00153991 0.0142322 0.00362398 0.0252579 0.00314395 0.0183725 0.0030181 0.0285828 0.00387913 0.0278968 0.00574257 0.0350761 0.00477209 0.0319674 0.00763554 0.0400236
107 1 Mg -1.65867 18.9532 55.2291 1.2 1 0.0523002 0.0263588 0.00582719 0.00583805 0.0015505 0.00715869 0.00222864 0.0220896 0.00256926 0.0106675 0.00256385 0.0263643 0.00255457 0.0218999 0.0030683 0.0338534 0.00399287 0.0274859 0.00525836 0.0448038
108 2 Si -1.55784 16.7934 53.2622 2.4 1 0.0974286 0.0371662 0.00238388 0.00751925 0.00273282 0.00870486 0.00153044 0.0225468 0.00292446 0.013632 0.00254782 0.0272381 0.00340089 0.0242293 0.00388261 0.033738 0.00509894 0.029178 0.00580675 0.0424546
109 3 O -1.5197 15.1876 53.1668 -1.2 1 0.0983798 0.0370423 0.00206819 0.00770691 0.00259518 0.00887915 0.00164985 0.0223385 0.00336792 0.0130517 0.00307153 0.0269789 0.00261154 0.0236399 0.00492086 0.0338495 0.00357828 0.0292272 0.00694872 0.0420053
110 3 O -1.12868 18.1227 46.4249 -1.2 1 0.266587 0.056514 0.0212227 0.0205207 0.00526204 0.0243625 0.00614127 0.0318293 0.0079583 0.0220737 0.00635585 0.0338303 0.00592407 0.0278569 0.00887225 0.03766 0.0116797 0.0378578 0.011854 0.0393538
111 3 O -2.7953 17.3513 54.0092 -1.2 1 0.0844226 0.0338222 0.00259142 0.00620938 0.00172167 0.00933103 0.00169812 0.022775 0.00223598 0.0128717 0.00250507 0.0263551 0.00291521 0.0237569 0.00336081 0.0340456 0.00383744 0.0289146 0.00585264 0.0429771
112 3 O -0.170801 17.5033 53.8653 -1.2 1 0.0818828 0.0336945 0.00313744 0.00657201 0.00247779 0.00780188 0.00153818 0.0224898 0.00210865 0.0125269 0.00259043 0.026217 0.00323016 0.0238739 0.00410187 0.0342314 0.00425422 0.0288105 0.00581968 0.0430438
113 1 Mg -3.14736 25.8987 57.43 1.2 1 0.0207384 0.0142751 0.00504925 0.00555925 0.00140612 0.00736937 0.00156802 0.0208662 0.00207252 0.00940468 0.00191157 0.0250434 0.00139749 0.0204257 0.0022681 0.0321512 0.00309772 0.0258884 0.00333903 0.0458706
114 1 Mg -1.48778 25.88 49.8402 1.2 1 0.181278 0.04966 0.00742854 0.0128885 0.00310679 0.015897 0.00299636 0.0257464 0.00375877 0.0189878 0.0045669 0.0294439 0.00363687 0.0276616 0.00683643 0.0352712 0.00556532 0.0325624 0.00937801 0.0395522
115 2 Si -1.00491 23.3922 47.9274 2.4 1 0.232991 0.0550675 0.0157806 0.0173857 0.00376161 0.0212977 0.00455258 0.0281885 0.00723194 0.0214086 0.00624147 0.0313736 0.00541147 0.0296152 0.00735678 0.0360933 0.00917963 0.0348093 0.0107982 0.0400041
116 3 O -0.927602 24.9615 47.9909 -1.2 1 0.231712 0.0538882 0.0150051 0.01724 0.0042666 0.0210884 0.00419629 0.0280488 0.00669717 0.0214792 0.00642922 0.0308352 0.00528368 0.0293495 0.00809936 0.0361777 0.00856867 0.0358061 0.0110101 0.0396874
117 3 O -1.55795 22.2588 51.7696 -1.2 1 0.135744 0.0421502 0.0024514 0.00993016 0.00299492 0.0123759 0.00179603 0.0240238 0.00203952 0.0155741 0.00228419 0.0278892 0.00392716 0.0249192 0.00426927 0.0342895 0.00481582 0.0295736 0.00697895 0.0414662
118 3 O -2.17411 22.8111 48.8277 -1.2 1 0.20477 0.0545342 0.0103217 0.0144286 0.00330778 0.0173877 0.00386582 0.0276344 0.00506623 0.0210284 0.00443317 0.030592 0.00441274 0.0290198 0.00663884 0.036283 0.00708921 0.0343782 0.00967621 0.0394248
119 1 Mg 0.0423997 21.3296 46.8225 1.2 1 0.257977 0.0564184 0.0200302 0.0197538 0.00447614 0.0252259 0.00611251 0.0314811 0.00865589 0.023067 0.0070881 0.033152 0.00648221 0.0298017 0.00883689 0.0361828 0.00966911 0.0373524 0.0118264 0.0401413
120 3 O 0.458537 22.7495 48.3911 -1.2 1 0.216859 0.055034 0.0120098 0.015859 0.00380136 0.0191312 0.00373488 0.0279484 0.00584378 0.0209901 0.00470723 0.0304261 0.00490265 0.0301755 0.00638968 0.0354873 0.00790659 0.0360183 0.00946761 0.0400379
121 1 Mg 1.58468 21.1866 54.5891 1.2 1 0.0716104 0.0305344 0.00448014 0.00583559 0.0015547 0.00815724 0.00246077 0.0219282 0.00279037 0.011942 0.00221923 0.0263394 0.00333796 0.0232237 0.00346297 0.034256 0.00363264 0.027148 0.0054376 0.0438396