ITEM: TIMESTEP
69500
ITEM: NUMBER OF ATOMS
10500
ITEM: BOX BOUNDS xy xz yz pp pp pp
0	8.9688	2.9896
0	118.725	0
0	252.977	0
ITEM: ATOMS id type element xu yu zu q Q_1 Q_2 Q_3 Q_4 Q_5 Q_6 Q_7 Q_8 Q_9 Q_10 Q_11 Q_12 Q_13 Q_14 Q_15 Q_16 Q_17 Q_18 Q_19 Q_20 Q_21
1 1 Mg -3.24634 7.17716 57.2354 1.2 1 0.022043 0.0176296 0.00471464 0.00533614 0.000946212 0.00612292 0.00130278 0.0206229 0.00171431 0.00908808 0.00171158 0.0240198 0.00192059 0.0178614 0.00254418 0.0299151 0.00305277 0.023725 0.00353964 0.0390781
2 1 Mg -1.82655 6.90154 50.0912 1.2 1 0.176008 0.0478338 0.00609418 0.0100469 0.00323768 0.00912695 0.00380679 0.0218867 0.00436999 0.014503 0.00479441 0.0248523 0.00396019 0.0212344 0.00589861 0.0286513 0.00505246 0.0252377 0.00739038 0.0315965
3 2 Si -0.257935 3.96038 48.0876 2.4 1 0.222966 0.0531221 0.0116256 0.0130258 0.00252874 0.00968468 0.00380985 0.0197126 0.00579556 0.0167183 0.00438703 0.024385 0.00575398 0.0211703 0.00562598 0.026338 0.00695934 0.0242372 0.0080639 0.0310489
4 3 O -0.335812 5.46814 47.6264 -1.2 1 0.232318 0.0527679 0.0136373 0.0138275 0.00334274 0.0108875 0.00450756 0.0206628 0.00638139 0.0175045 0.00458851 0.0249473 0.0052788 0.0213772 0.00546604 0.0267901 0.00715676 0.0252345 0.0086095 0.0299039
5 3 O -2.03793 3.43377 51.8941 -1.2 1 0.128985 0.0418097 0.00221141 0.00711988 0.00171092 0.0072311 0.00227572 0.0197404 0.00290708 0.0117588 0.00317691 0.0238732 0.00332004 0.0186857 0.00424908 0.0278833 0.00518527 0.0227912 0.00631833 0.0331504
6 3 O -1.54015 3.53929 48.9521 -1.2 1 0.201104 0.0518735 0.00865985 0.0114693 0.00238623 0.00896146 0.00329432 0.0197891 0.00497899 0.0150252 0.00462122 0.0234618 0.00465246 0.0208813 0.00529361 0.0271732 0.00556655 0.0238668 0.00775202 0.0304911
7 1 Mg 1.82954 2.54582 47.1376 1.2 1 0.246391 0.053075 0.0158625 0.0163309 0.00312716 0.0112337 0.00338341 0.019933 0.00565268 0.0157914 0.00512317 0.0238766 0.00673087 0.0201016 0.00746078 0.0252953 0.00627612 0.0233843 0.00804648 0.0295606
8 3 O 1.22989 3.66364 48.7877 -1.2 1 0.206651 0.0511288 0.00919886 0.0128325 0.00219681 0.00967822 0.003864 0.0202544 0.00380696 0.014858 0.00410653 0.0231604 0.00495514 0.0201293 0.0058832 0.026725 0.00452349 0.0239237 0.00817467 0.0312835
9 1 Mg 1.18659 2.295 54.4299 1.2 1 0.0707474 0.0311899 0.00411461 0.00503437 0.00164973 0.00611813 0.00209533 0.0198632 0.00319122 0.00958145 0.00303092 0.0234629 0.00333907 0.019379 0.00390207 0.0295656 0.00388056 0.0226632 0.00547228 0.0358556
10 2 Si 0.98809 4.95516 56.4737 2.4 1 0.0308473 0.0211108 0.00568763 0.00552007 0.00109392 0.00697721 0.00205405 0.0200769 0.00189525 0.0086936 0.00291091 0.0234779 0.00238358 0.0191267 0.00367594 0.0296786 0.0031149 0.0236062 0.00415567 0.0386297
11 3 O 0.951681 3.50941 56.6621 -1.2 1 0.0286612 0.019428 0.00569971 0.00537107 0.00109201 0.00653279 0.00214345 0.0199122 0.00249293 0.00907972 0.00146843 0.023709 0.00253819 0.0185446 0.0031366 0.0305476 0.00366301 0.0243365 0.00367619 0.0381634
12 3 O 1.10813 6.07342 52.8172 -1.2 1 0.103467 0.0369454 0.0024078 0.00607526 0.00193614 0.00725143 0.00291114 0.0208758 0.00349465 0.0110965 0.00308695 0.0242354 0.00358149 0.0187467 0.00434161 0.0283294 0.00378718 0.0235177 0.00569009 0.034253
13 3 O -0.233394 5.68609 55.8585 -1.2 1 0.0425525 0.0252385 0.00564717 0.00470972 0.00119041 0.00586856 0.00210802 0.0206993 0.00175151 0.00947868 0.00226707 0.0240385 0.00240676 0.0188154 0.00404515 0.0301409 0.00288731 0.0240098 0.00446362 0.0380934
14 3 O 2.141 5.82454 55.7303 -1.2 1 0.0403316 0.0248728 0.00586215 0.00478439 0.000838913 0.00610558 0.00195604 0.0199058 0.00175162 0.00946888 0.00294201 0.0243593 0.00259016 0.0190263 0.00424683 0.0305865 0.00348713 0.0237614 0.00455634 0.0374722
15 1 Mg -0.459401 4.67631 52.2426 1.2 1 0.124923 0.0420096 0.00223 0.00721971 0.00189977 0.00689794 0.0022078 0.0202394 0.00325395 0.0123167 0.00302324 0.0249677 0.00389587 0.019513 0.00416639 0.0281428 0.00461622 0.0230068 0.00603726 0.0325033
16 1 Mg 2.79456 3.9971 49.9987 1.2 1 0.174652 0.049857 0.00553901 0.010255 0.00256375 0.00821098 0.00413771 0.0202239 0.00291381 0.0146168 0.00309024 0.0235882 0.00418276 0.0207787 0.00603173 0.0274812 0.00395145 0.0240914 0.00823374 0.0310616
17 2 Si 1.16169 6.59457 51.2556 2.4 1 0.146855 0.0455342 0.00230355 0.00843968 0.0026182 0.00866337 0.00369769 0.0211408 0.00367499 0.0133319 0.00412712 0.024169 0.00385948 0.0207169 0.00527781 0.0291681 0.00420383 0.0252201 0.00717518 0.033
18 3 O 1.28989 8.18905 51.2909 -1.2 1 0.144346 0.0443283 0.00276796 0.00839438 0.0022989 0.00942766 0.00370755 0.0213664 0.00419657 0.013193 0.00368013 0.0255312 0.00356063 0.020964 0.00407732 0.0290707 0.00517964 0.0255317 0.00719526 0.0345119
19 3 O 1.15407 5.66507 57.9527 -1.2 1 0.0132845 0.0133921 0.00359229 0.00532064 0.000836396 0.00676595 0.0013057 0.0205782 0.0015514 0.00901388 0.00209416 0.0239453 0.00253903 0.0184196 0.00294362 0.0306797 0.0028507 0.0241463 0.00308591 0.0392947
20 3 O -0.184847 6.06029 50.6845 -1.2 1 0.159982 0.0452483 0.00477532 0.0091549 0.00346292 0.00837502 0.00347112 0.0210136 0.00413621 0.0136494 0.00323644 0.0238727 0.00383046 0.0206047 0.00515075 0.0276738 0.0048737 0.0244897 0.00714189 0.0325699
21 1 Mg -3.49704 4.67769 52.6661 1.2 1 0.111 0.0383207 0.00167575 0.00623205 0.00188799 0.00740783 0.00276975 0.0195034 0.0035867 0.0111308 0.00330979 0.0238728 0.00316456 0.0190146 0.00435675 0.0278428 0.00443915 0.0221338 0.00558774 0.0333767
22 3 O 2.48581 5.93312 50.6539 -1.2 1 0.157724 0.0472612 0.00343509 0.008699 0.00203269 0.00907977 0.00389311 0.0208231 0.00383467 0.0137485 0.00406099 0.0236178 0.0041997 0.0213824 0.00510448 0.0289254 0.00458696 0.0248159 0.00744774 0.0323417
23 1 Mg -1.97479 4.83866 55.3642 1.2 1 0.0479573 0.0267084 0.00597214 0.0048209 0.00106121 0.00635989 0.00191948 0.0201417 0.00274142 0.00981543 0.00212471 0.0248154 0.0022642 0.0191497 0.00330061 0.0300105 0.0035419 0.0234424 0.00477446 0.0365509
24 2 Si -1.89518 2.68712 53.3664 2.4 1 0.0992233 0.0360756 0.00215286 0.00611052 0.00226569 0.00680276 0.00164592 0.0198139 0.00231689 0.0107486 0.0031259 0.0235792 0.00280419 0.019428 0.00381559 0.0284947 0.00442307 0.023147 0.00585472 0.0344828
25 3 O -2.08928 1.19515 53.3433 -1.2 1 0.094208 0.0350571 0.00251641 0.00603263 0.00265887 0.00611648 0.0015252 0.0193156 0.00192389 0.0100973 0.00270377 0.0241775 0.00286594 0.0189295 0.00473675 0.028806 0.00346962 0.0229886 0.00617651 0.0350953
26 3 O -0.0467762 2.97103 46.8385 -1.2 1 0.251601 0.0533239 0.0163712 0.0155358 0.003093 0.0102844 0.0039426 0.01965 0.00611204 0.016851 0.00613756 0.0240083 0.00717609 0.0196002 0.00826565 0.0252731 0.00667902 0.0237154 0.00920185 0.0306728
27 3 O -3.173 3.28469 54.1928 -1.2 1 0.0787015 0.032394 0.00339526 0.00488592 0.00139557 0.00662722 0.00175665 0.0194622 0.003025 0.0101321 0.00221478 0.023125 0.00228287 0.0191746 0.00362997 0.0289854 0.00384795 0.0226167 0.00456831 0.03415
28 3 O -0.597043 3.25153 53.968 -1.2 1 0.0818309 0.0340645 0.00357488 0.0050294 0.0017685 0.00661675 0.00196698 0.0203448 0.00210236 0.0100293 0.0022736 0.0236532 0.00297406 0.0196252 0.00318535 0.0292397 0.00404477 0.0234443 0.00507744 0.0349495
29 1 Mg -3.34156 11.7172 57.5746 1.2 1 0.018668 0.015851 0.00424086 0.00489182 0.000971046 0.00560068 0.00130555 0.0210897 0.00199425 0.00892365 0.00127295 0.0251205 0.00171377 0.0171213 0.00200792 0.0296383 0.00332056 0.0238233 0.00313822 0.0412674
30 1 Mg -1.75014 11.5838 49.8362 1.2 1 0.184959 0.0474435 0.00795611 0.0114005 0.00378143 0.0126295 0.00481637 0.0234344 0.00549171 0.0154082 0.00503745 0.027075 0.00425677 0.0231498 0.00631885 0.0313748 0.00639327 0.0277793 0.00866171 0.034397
31 2 Si -1.18003 9.02138 47.9309 2.4 1 0.241875 0.0515957 0.0156898 0.0150994 0.00509507 0.0133273 0.00774861 0.0227967 0.00797823 0.0173562 0.00695754 0.0258579 0.00532689 0.0225408 0.00684209 0.0295258 0.0082882 0.0276594 0.0106026 0.0326098
32 3 O -1.23224 10.5991 47.9811 -1.2 1 0.229911 0.0519962 0.0133258 0.0150619 0.00494303 0.014249 0.00647986 0.023916 0.0075465 0.0174148 0.00722479 0.0268623 0.0055295 0.0232723 0.00803076 0.0315009 0.00832483 0.0298724 0.00971097 0.0329105
33 3 O -1.79016 8.01447 51.8693 -1.2 1 0.131657 0.0413914 0.00221471 0.00796443 0.00356526 0.00769421 0.00259499 0.0211888 0.00374278 0.0126802 0.00324137 0.0255295 0.0034965 0.0200902 0.00402906 0.0292229 0.00521535 0.0244072 0.00759326 0.0345929
34 3 O -2.30986 8.37215 48.8528 -1.2 1 0.204674 0.0515174 0.00921076 0.0121383 0.00402693 0.0105984 0.00617206 0.0223926 0.00607821 0.0167363 0.00508383 0.0258686 0.00430858 0.0223584 0.00615469 0.030452 0.00602481 0.0269947 0.00874805 0.031932
35 1 Mg 0.154883 7.08234 46.8007 1.2 1 0.258648 0.0520395 0.017863 0.016014 0.0057151 0.0133669 0.00833267 0.0231941 0.0079814 0.0177898 0.00722634 0.0248135 0.00704756 0.0215774 0.00820915 0.028507 0.00944733 0.0273921 0.0115575 0.0307112
36 3 O 0.325447 8.50934 48.3809 -1.2 1 0.218613 0.052746 0.0112854 0.0135394 0.00407194 0.0123023 0.00604911 0.0234587 0.0064435 0.0172337 0.00573766 0.0257115 0.00517211 0.023408 0.00538996 0.0294445 0.00685269 0.0281175 0.00907773 0.0324835
37 1 Mg 1.17758 7.03884 54.5656 1.2 1 0.0660217 0.0306645 0.00427553 0.00486183 0.00123878 0.00657818 0.0023701 0.0206343 0.00252792 0.0101405 0.00285603 0.0244052 0.00274428 0.0193201 0.00359867 0.0298283 0.00376462 0.0234014 0.00545862 0.0371
38 2 Si 1.20077 9.70828 56.3377 2.4 1 0.0330805 0.0217496 0.00533983 0.0057159 0.000718957 0.00595119 0.00162821 0.0211453 0.00193832 0.00875908 0.0030343 0.0235904 0.00213035 0.0189723 0.00343932 0.0299569 0.00367197 0.0242601 0.0055825 0.0412228
39 3 O 1.15844 8.14498 56.4669 -1.2 1 0.0292341 0.0208774 0.00510267 0.00530193 0.000684805 0.00630978 0.00167011 0.0206806 0.00261474 0.00836177 0.0016577 0.0240764 0.00276494 0.0180988 0.0025896 0.0299979 0.00389512 0.0240941 0.00423719 0.0402709
40 3 O 1.28624 10.7248 52.7351 -1.2 1 0.11002 0.0377435 0.00156655 0.00636393 0.00173412 0.0095252 0.00301314 0.0216092 0.00344191 0.0115568 0.00306457 0.0254007 0.00411913 0.0200552 0.00318689 0.0299391 0.00386753 0.0251357 0.00612331 0.0372045
41 3 O -0.0888365 10.4301 55.8243 -1.2 1 0.0477835 0.0260325 0.00465093 0.00508245 0.000755332 0.00618852 0.00167509 0.0214618 0.00160864 0.00931847 0.00191629 0.0245389 0.00253542 0.0193582 0.00324448 0.0301169 0.00345891 0.0247105 0.00497912 0.0404483
42 3 O 2.432 10.4358 55.6224 -1.2 1 0.0459032 0.0262172 0.00543601 0.00513558 0.000702369 0.00632508 0.00227165 0.0212386 0.00199218 0.00945449 0.00209455 0.0246121 0.00258332 0.0189938 0.00292747 0.0304775 0.00358341 0.0246046 0.00514577 0.0404027
43 1 Mg -0.262694 9.34741 52.2523 1.2 1 0.113408 0.0403904 0.00213393 0.00674808 0.00235048 0.00782758 0.00269131 0.0217225 0.0029955 0.0122029 0.00308436 0.0258073 0.00353013 0.0200319 0.00456372 0.0295391 0.0038321 0.0254352 0.00723355 0.0354794
44 1 Mg 1.87648 9.01537 49.4629 1.2 1 0.186204 0.0520917 0.00600763 0.0107126 0.00283895 0.0110369 0.00600213 0.0226554 0.00529066 0.0161314 0.00526666 0.0260189 0.00451685 0.022996 0.00557535 0.0304676 0.00528383 0.0279032 0.00865055 0.0331107
45 2 Si 1.21415 11.3799 51.2378 2.4 1 0.147146 0.0454689 0.00220057 0.00910496 0.00265597 0.0110997 0.00371604 0.023094 0.00437019 0.0142877 0.00431933 0.026069 0.00393201 0.0229621 0.00474648 0.0306454 0.00515436 0.027803 0.00759076 0.0365089
46 3 O 1.31634 12.9512 51.3023 -1.2 1 0.146403 0.0438715 0.00322716 0.00849605 0.00217652 0.0115876 0.00367773 0.0235356 0.00453239 0.0143871 0.00342867 0.0269979 0.00419784 0.023179 0.00426938 0.0310943 0.00526118 0.0278018 0.0070321 0.0372599
47 3 O 1.21051 10.5587 57.8779 -1.2 1 0.0150607 0.0147128 0.00359678 0.00537168 0.000902632 0.00612216 0.00138729 0.0210608 0.00189686 0.00839871 0.00253585 0.0243298 0.00234545 0.0177817 0.00304372 0.0294831 0.00322962 0.0238505 0.00335046 0.04113
48 3 O -0.115718 10.7564 50.681 -1.2 1 0.155106 0.045413 0.00382904 0.00985461 0.00319613 0.0108357 0.00388567 0.0231267 0.0044105 0.0139998 0.00324191 0.0261532 0.00427732 0.0225763 0.00524722 0.0299823 0.00463021 0.0270961 0.00823629 0.0353335
49 1 Mg -3.26386 9.35564 52.3622 1.2 1 0.123944 0.0405309 0.00176803 0.00656435 0.00220167 0.00971738 0.0032485 0.0218743 0.00400267 0.0126171 0.00373326 0.0254951 0.00324684 0.0202217 0.00400086 0.0296817 0.0042054 0.0253767 0.00665225 0.0345797
50 3 O 2.45216 10.7265 50.4558 -1.2 1 0.16307 0.0479405 0.00405537 0.00892661 0.0022686 0.0117131 0.00457051 0.0227852 0.00468893 0.0153441 0.00413084 0.0259651 0.00416705 0.023152 0.00499102 0.0309929 0.00531229 0.0275835 0.00758829 0.035017
51 1 Mg -1.69365 9.64362 55.1199 1.2 1 0.0538516 0.0284172 0.00466188 0.00506646 0.00141165 0.00593186 0.0023116 0.0214523 0.00235246 0.00965459 0.002846 0.0247022 0.00255661 0.0194026 0.00369173 0.0299625 0.00419943 0.0244607 0.00536269 0.0391696
52 2 Si -1.84641 7.30333 53.3551 2.4 1 0.0926475 0.0364741 0.00316511 0.00603447 0.00284291 0.00665038 0.0025446 0.0203186 0.00360088 0.011362 0.002774 0.0248055 0.00303332 0.0196689 0.00311527 0.028759 0.00483131 0.023372 0.00557341 0.0352992
53 3 O -1.78742 5.80547 53.3736 -1.2 1 0.0966469 0.0355181 0.00248478 0.00568316 0.00211287 0.00686679 0.00209838 0.0198577 0.00323361 0.0105005 0.0031441 0.0240908 0.00306457 0.0187819 0.00385565 0.029213 0.00343154 0.0231112 0.00558576 0.0343301
54 3 O -1.19417 8.46968 46.4488 -1.2 1 0.271274 0.0518986 0.0203651 0.0176691 0.00577321 0.0143041 0.00897366 0.0243981 0.00802701 0.017802 0.00789435 0.0252682 0.00641371 0.0212773 0.0091504 0.0297824 0.00984878 0.0290722 0.0113536 0.0305956
55 3 O -3.18184 8.01926 53.8977 -1.2 1 0.0849391 0.0336503 0.00258938 0.00487756 0.00198785 0.00748908 0.00253599 0.0207596 0.00305485 0.0107349 0.00212755 0.0243025 0.0025766 0.0189746 0.00290619 0.0295216 0.00430778 0.0237172 0.00574211 0.0360417
56 3 O -0.52201 8.07103 54.0873 -1.2 1 0.0739507 0.0320444 0.00380591 0.0047925 0.00199111 0.00620884 0.00169294 0.0211297 0.0027047 0.0101219 0.00248679 0.0239336 0.00237044 0.018972 0.00321137 0.0295463 0.00367065 0.0243118 0.00570088 0.0370505
57 1 Mg -2.95302 16.7036 57.3899 1.2 1 0.0202706 0.0156992 0.00452641 0.00493785 0.000785242 0.00561388 0.00170493 0.0222105 0.00191609 0.00953033 0.00178438 0.0248084 0.00195341 0.0178531 0.00262986 0.029114 0.00325223 0.0233291 0.00337378 0.0410054
58 1 Mg -1.6714 16.3544 49.8412 1.2 1 0.179746 0.0483975 0.00735313 0.0117257 0.0030799 0.0151771 0.00326797 0.0257098 0.0047912 0.0177364 0.00392441 0.0301279 0.00367178 0.0247843 0.00552948 0.032499 0.00565218 0.0298764 0.00823393 0.0371204
59 2 Si -1.18567 13.8526 47.9314 2.4 1 0.235715 0.0538529 0.0155649 0.0162318 0.00456431 0.0184517 0.00558691 0.0266041 0.00835771 0.0196607 0.00594333 0.0301792 0.00572249 0.0277435 0.00664901 0.0334878 0.00918636 0.0322401 0.010442 0.035584
60 3 O -1.09664 15.4205 47.9915 -1.2 1 0.230963 0.0526792 0.0146356 0.0163143 0.00463002 0.0194049 0.00506904 0.0271802 0.00752071 0.0200103 0.00589522 0.0304987 0.00533745 0.0269517 0.0069641 0.0339969 0.00840848 0.0332111 0.00949206 0.0365243
61 3 O -1.73493 12.7491 51.7772 -1.2 1 0.135374 0.0413124 0.00253308 0.00880222 0.00308279 0.0103715 0.00229228 0.023297 0.00366293 0.0136439 0.00282402 0.0269748 0.00373779 0.0224392 0.00421344 0.030499 0.00527374 0.0265229 0.00696423 0.0376106
62 3 O -2.36115 13.2717 48.8238 -1.2 1 0.204321 0.0521664 0.00978381 0.013032 0.00425522 0.0144972 0.00507372 0.0258706 0.00572818 0.019028 0.00482574 0.0292958 0.00403343 0.0258237 0.00534597 0.0328542 0.00719296 0.0311591 0.00886373 0.0348824
63 1 Mg -0.159928 11.7639 46.8533 1.2 1 0.26026 0.0531469 0.0192164 0.0176491 0.00605035 0.0201583 0.00753507 0.027537 0.00885678 0.0196136 0.00787863 0.029578 0.00644516 0.0264445 0.00799792 0.0326058 0.0102828 0.0327316 0.0121469 0.0339269
64 3 O 0.2623 13.1866 48.413 -1.2 1 0.21475 0.0521683 0.0114281 0.0139462 0.0039966 0.0162798 0.00470615 0.0258599 0.00672356 0.0186028 0.00487643 0.0283232 0.00494972 0.0271377 0.00541488 0.032596 0.00802792 0.0323917 0.00948721 0.0358755
65 1 Mg 1.18602 11.9027 54.5002 1.2 1 0.0717275 0.0320399 0.00358494 0.00496388 0.00117932 0.00726584 0.00273069 0.0213963 0.00264352 0.0106413 0.00234367 0.0255373 0.00329884 0.0202125 0.00327643 0.0302957 0.00365625 0.0237467 0.00540976 0.0385204
66 2 Si 1.38178 14.5193 56.3923 2.4 1 0.0334331 0.0209589 0.00516151 0.00566137 0.000992987 0.00558064 0.00194066 0.0213012 0.0017948 0.00908565 0.00309119 0.023993 0.00279191 0.0187563 0.00404341 0.0296194 0.00297526 0.0231944 0.00499979 0.0423987
67 3 O 1.16014 13.043 56.3837 -1.2 1 0.0344656 0.0216851 0.00520649 0.00558015 0.000776332 0.00551311 0.00163354 0.0208548 0.00307139 0.00875051 0.00179388 0.0246686 0.00257653 0.0180714 0.00300858 0.0297369 0.00405313 0.0235334 0.0046371 0.0421909
68 3 O 1.36565 15.4813 52.729 -1.2 1 0.110457 0.0376275 0.000940587 0.0067895 0.00183671 0.0104538 0.00339124 0.0234171 0.00280849 0.0131018 0.00324911 0.0269851 0.0036468 0.0214187 0.00414129 0.0303386 0.00379017 0.0266172 0.00634016 0.0387828
69 3 O 0.225774 15.4012 55.9064 -1.2 1 0.0426068 0.0238226 0.00484669 0.00518039 0.000421766 0.00577091 0.00204274 0.0215174 0.00178004 0.00975513 0.00257649 0.0241127 0.0029056 0.01951 0.00375721 0.0302498 0.0037069 0.0243003 0.0049063 0.0417674
70 3 O 2.68764 15.163 55.6766 -1.2 1 0.0444399 0.0247606 0.00530674 0.00513267 0.000784904 0.005861 0.00256965 0.0217369 0.0017071 0.00994595 0.00247701 0.0242517 0.00264157 0.0191917 0.00302818 0.0303495 0.0032412 0.0247645 0.00549444 0.0417168
71 1 Mg -0.206989 14.1049 52.2121 1.2 1 0.117139 0.0407428 0.00107953 0.00756679 0.00244338 0.00912738 0.0027542 0.0234622 0.00293455 0.0135984 0.00277944 0.0272726 0.00328541 0.0222888 0.00406183 0.0309582 0.00415332 0.0267512 0.00684104 0.0377352
72 1 Mg 1.82591 13.8102 49.4556 1.2 1 0.185189 0.0521834 0.00611574 0.0109217 0.00268498 0.0136917 0.00472667 0.0244117 0.00489341 0.0175997 0.00487971 0.0281047 0.00426377 0.0258391 0.00562938 0.0331895 0.00617137 0.0307529 0.0090336 0.0356985
73 2 Si 1.29285 16.1518 51.2434 2.4 1 0.146414 0.046584 0.00208542 0.00909298 0.00225921 0.0123099 0.00357755 0.0242109 0.00360738 0.0159706 0.00458064 0.0276146 0.00376485 0.0245387 0.00553541 0.0315243 0.00450395 0.0294558 0.0081492 0.0385045
74 3 O 1.39496 17.7199 51.3047 -1.2 1 0.147642 0.0456642 0.00332951 0.0088999 0.00154141 0.012634 0.00299471 0.0240202 0.00392159 0.0156743 0.00305293 0.0284576 0.0033684 0.0243959 0.00399113 0.0321415 0.00482612 0.0288944 0.00690276 0.0389988
75 3 O 1.52922 15.3257 57.8436 -1.2 1 0.0147298 0.0139899 0.00373425 0.00507507 0.00105772 0.00574108 0.00145277 0.0218886 0.00154399 0.00850855 0.00202417 0.023966 0.00243481 0.0176962 0.00247244 0.0288257 0.00246526 0.0231288 0.00313223 0.0417424
76 3 O -0.0269106 15.5178 50.6688 -1.2 1 0.158055 0.046638 0.00438729 0.0101488 0.00313421 0.0125712 0.00377642 0.0246631 0.0041374 0.0158714 0.00280801 0.0277722 0.0037232 0.025091 0.005137 0.0315281 0.00399881 0.0294551 0.0074364 0.0376376
77 1 Mg -3.18391 14.1057 52.3125 1.2 1 0.124392 0.0412438 0.00167769 0.00747763 0.00208014 0.0109488 0.00302755 0.0234768 0.00339808 0.0143666 0.00281621 0.0274422 0.00344461 0.0222881 0.00340254 0.0306271 0.00463269 0.026542 0.00605657 0.0375718
78 3 O 2.52432 15.503 50.4579 -1.2 1 0.163812 0.0493727 0.0046095 0.00910079 0.00218886 0.0133437 0.00420897 0.0247197 0.00446279 0.0178594 0.0035465 0.028388 0.00369159 0.0256292 0.00526649 0.0322843 0.00520826 0.0292824 0.00783765 0.0373275
79 1 Mg -1.61917 14.3449 55.1558 1.2 1 0.0543726 0.0283163 0.00461469 0.00529539 0.00136137 0.00564929 0.00204214 0.0222738 0.00254604 0.0105439 0.00257188 0.0256389 0.00247123 0.0197665 0.00388725 0.0303454 0.0040654 0.0244976 0.00539354 0.0407516
80 2 Si -1.82271 12.1762 53.314 2.4 1 0.0963534 0.0365016 0.00251995 0.0065424 0.00270888 0.00805142 0.00214036 0.0220021 0.0033003 0.0118835 0.00239745 0.025826 0.00318997 0.0211806 0.00336797 0.0302333 0.00456152 0.0251172 0.00613798 0.0392785
81 3 O -1.79432 10.5536 53.3972 -1.2 1 0.0945362 0.0352451 0.00263582 0.00573159 0.00262428 0.00788561 0.00186188 0.0209486 0.00309169 0.0107745 0.00257066 0.0254658 0.00283027 0.0195105 0.00292454 0.029662 0.00429362 0.0242951 0.00640177 0.0381405
82 3 O -1.21337 13.3381 46.4311 -1.2 1 0.271801 0.0525198 0.0213908 0.0194058 0.00627636 0.0207219 0.00741912 0.0293813 0.00905368 0.0209023 0.00701035 0.0307414 0.00597051 0.0262711 0.00851628 0.0349822 0.0118588 0.0349752 0.0126606 0.0341094
83 3 O -3.13073 12.7976 53.8091 -1.2 1 0.0888234 0.0352065 0.00236784 0.00542761 0.00161098 0.00874295 0.00243124 0.0223758 0.00308594 0.0120124 0.0019557 0.0256887 0.00307774 0.0211896 0.00233939 0.0303029 0.00404522 0.0248167 0.0052454 0.0392578
84 3 O -0.544436 12.8181 54.0537 -1.2 1 0.0766017 0.0324198 0.00327371 0.00558646 0.00175331 0.00621573 0.0017117 0.0222141 0.00250059 0.0108494 0.00215556 0.0253 0.00209027 0.0205692 0.00334007 0.0305644 0.00371989 0.0249088 0.00585048 0.039698
85 1 Mg -2.98028 21.3283 57.2916 1.2 1 0.0217187 0.0154972 0.00452246 0.00488619 0.000898351 0.00537222 0.00156339 0.0219997 0.00192455 0.0091961 0.00186354 0.0248139 0.00203189 0.018497 0.00258116 0.0296047 0.00344216 0.0234802 0.00348044 0.0418847
86 1 Mg -1.5831 21.1217 49.8405 1.2 1 0.177494 0.0493844 0.00713006 0.01226 0.00284155 0.0154031 0.00278186 0.0265562 0.00511148 0.0182914 0.00409657 0.0303847 0.00357275 0.025596 0.00506956 0.0337136 0.00512083 0.0306282 0.00790773 0.0388005
87 2 Si -1.09384 18.6291 47.9287 2.4 1 0.230325 0.0547468 0.0145498 0.0166473 0.00334024 0.0205496 0.00411164 0.0279066 0.00778286 0.0204632 0.00521757 0.0317152 0.00583933 0.0287226 0.00640845 0.0347458 0.00828849 0.033854 0.00948447 0.0388046
88 3 O -1.02071 20.1985 47.9911 -1.2 1 0.230114 0.0542573 0.0146794 0.0169386 0.00369655 0.0208026 0.00446687 0.0280314 0.00733907 0.0206149 0.00558839 0.0312833 0.0058937 0.0279144 0.0071789 0.035305 0.00814501 0.0340268 0.00912809 0.0390253
89 3 O -1.65002 17.5002 51.771 -1.2 1 0.136177 0.0422081 0.00264992 0.00890849 0.00279465 0.0117719 0.00177452 0.0239399 0.00291973 0.0148692 0.00279623 0.0278736 0.00327673 0.0231693 0.00456762 0.0312748 0.00468619 0.0275037 0.00705713 0.0388728
90 3 O -2.26174 18.0434 48.8281 -1.2 1 0.203595 0.0537437 0.00944381 0.013649 0.00328114 0.0172774 0.00387929 0.0274219 0.00613316 0.0201831 0.00399425 0.0308195 0.00412904 0.0269729 0.00541405 0.0341163 0.00703706 0.0328046 0.0085668 0.0382632
91 1 Mg -0.0440435 16.5651 46.8269 1.2 1 0.258942 0.0549674 0.019133 0.019141 0.00460244 0.0244297 0.00576791 0.0310277 0.009508 0.0223802 0.00612429 0.0329623 0.00711492 0.0289779 0.00836358 0.035003 0.00944021 0.036217 0.0114193 0.0379239
92 3 O 0.37001 17.9877 48.3925 -1.2 1 0.212209 0.0536402 0.0109298 0.0144471 0.00330749 0.0180984 0.00326501 0.0275241 0.00620944 0.0202422 0.00387675 0.0302345 0.00477559 0.0284726 0.00590903 0.033956 0.00785376 0.0343584 0.00907305 0.0388934
93 1 Mg 1.33775 16.5883 54.4796 1.2 1 0.0730947 0.0314751 0.00287166 0.00530796 0.00118322 0.00739417 0.00320284 0.022023 0.00271431 0.0115994 0.00234311 0.0260001 0.00328678 0.0210986 0.00332197 0.0307435 0.00356464 0.0244157 0.00519037 0.0398849
94 2 Si 1.58206 19.3894 56.4892 2.4 1 0.0326033 0.020118 0.00519392 0.00568082 0.000939633 0.00570908 0.00241064 0.0217231 0.00210794 0.0089116 0.00295601 0.0241702 0.00231012 0.0191557 0.00377387 0.0293608 0.00411551 0.0233495 0.00558394 0.0425984
95 3 O 1.59926 17.7764 56.4742 -1.2 1 0.0321104 0.0201367 0.00522406 0.00522269 0.000691059 0.00517044 0.00222636 0.0217145 0.00303814 0.00912149 0.0018042 0.0239341 0.00256351 0.0182261 0.00307343 0.0299571 0.00430098 0.0234184 0.00488397 0.0420813
96 3 O 1.45147 20.239 52.7294 -1.2 1 0.112031 0.0390055 0.00112647 0.0072737 0.00120289 0.0110278 0.00327993 0.0231883 0.00286487 0.0136512 0.00263208 0.0273849 0.00370763 0.0222535 0.00330786 0.031254 0.00420733 0.026774 0.00622329 0.0397369
97 3 O 0.0686999 19.988 55.9161 -1.2 1 0.0434715 0.0244224 0.00524389 0.00550817 0.00095936 0.00588316 0.0020326 0.0223609 0.00159887 0.00987638 0.00251445 0.0245454 0.00174798 0.0193293 0.0038616 0.0305891 0.00412885 0.0247018 0.00571574 0.0418787
98 3 O 2.69973 19.9705 55.6433 -1.2 1 0.0465781 0.0253788 0.00532723 0.00548216 0.000880625 0.00633043 0.00283099 0.0225813 0.00213803 0.0104543 0.00221539 0.0246368 0.00230286 0.0198639 0.00312837 0.0308292 0.00404864 0.0249283 0.00515534 0.0426451
99 1 Mg -0.126194 18.8651 52.2079 1.2 1 0.116027 0.0416356 0.000824495 0.00791521 0.00190362 0.00970542 0.00209479 0.0238347 0.00243804 0.0145699 0.00255951 0.0278705 0.00282583 0.0226162 0.00403061 0.0314661 0.00427342 0.0275793 0.00635454 0.0389925
100 1 Mg 1.92402 18.5815 49.4545 1.2 1 0.182453 0.053849 0.00544674 0.0112748 0.0014254 0.0151297 0.00383173 0.0256472 0.00482379 0.0195997 0.00361311 0.0298843 0.00444892 0.0273178 0.00503962 0.0342975 0.00576927 0.0320546 0.0086067 0.0390117
101 2 Si 1.38106 20.9117 51.2443 2.4 1 0.144633 0.0477762 0.00227666 0.00980814 0.0020892 0.0127537 0.00361654 0.0252432 0.00361196 0.0165508 0.00446002 0.0279642 0.00370141 0.0250515 0.0050305 0.0325294 0.00368975 0.0300761 0.00815667 0.0401437
102 3 O 1.48527 22.4795 51.3054 -1.2 1 0.14556 0.0458347 0.00289957 0.00968569 0.00198424 0.012519 0.00329753 0.0245275 0.00413175 0.015867 0.00252667 0.0285138 0.00368882 0.0246913 0.00341962 0.0332012 0.00502667 0.0292893 0.00680048 0.0404053
103 3 O 1.48312 19.9509 57.9044 -1.2 1 0.0160721 0.0136656 0.00365914 0.00514121 0.000688782 0.00554734 0.00180608 0.0220397 0.00152886 0.0087217 0.0021886 0.0240868 0.00216437 0.0180476 0.00326911 0.0293538 0.00295704 0.023131 0.00385907 0.0421337
104 3 O 0.0615419 20.2804 50.6669 -1.2 1 0.154213 0.0473857 0.00384574 0.0105483 0.00325133 0.0133285 0.00335431 0.0254434 0.00390531 0.0165014 0.00283066 0.0285303 0.00369359 0.0255262 0.00454668 0.0325063 0.003805 0.0300796 0.00744161 0.0394778
105 1 Mg -3.09665 18.8643 52.3122 1.2 1 0.123456 0.0416978 0.00149365 0.00773105 0.00144837 0.0115447 0.00245814 0.0238995 0.00242947 0.0151692 0.00262217 0.0277481 0.00270711 0.0232023 0.0038135 0.0313786 0.00410559 0.0276082 0.00639078 0.0387119
106 3 O 2.61548 20.2646 50.4626 -1.2 1 0.158481 0.0495667 0.00383596 0.00970373 0.00155499 0.013883 0.0033927 0.0256002 0.00430413 0.0180778 0.00291574 0.0287144 0.00344563 0.026033 0.00462801 0.0332734 0.00437885 0.0301383 0.00693959 0.0393555
107 1 Mg -1.41286 18.9549 55.0442 1.2 1 0.0561675 0.0281757 0.0045939 0.00565752 0.00161994 0.00601959 0.00229285 0.0224439 0.00179463 0.0109785 0.00257379 0.0250646 0.00200093 0.0202815 0.00384995 0.030668 0.00414407 0.0245321 0.0060747 0.0411272
108 2 Si -1.75505 16.841 53.2052 2.4 1 0.0986524 0.0371317 0.00185453 0.00680739 0.00248056 0.00815387 0.0016557 0.0226205 0.00279492 0.0128148 0.00296455 0.0260508 0.00227231 0.0217305 0.00366112 0.0310399 0.00491824 0.0262236 0.00680952 0.0399792
109 3 O -1.69513 15.1486 53.3058 -1.2 1 0.0961033 0.0352545 0.00204571 0.00635279 0.00243367 0.00827652 0.0014682 0.0222897 0.00249809 0.0119695 0.00205983 0.0263929 0.00232832 0.0207925 0.00359014 0.030745 0.00403672 0.0253233 0.00679758 0.0396353
110 3 O -1.12868 18.1227 46.4249 -1.2 1 0.268205 0.0551484 0.0209204 0.0202111 0.00477372 0.0241049 0.00600316 0.0317119 0.0083534 0.0220402 0.00585935 0.0335267 0.00677671 0.0273488 0.00852137 0.0368134 0.0110582 0.0375463 0.0119825 0.0382113
111 3 O -2.91302 17.5709 53.8701 -1.2 1 0.0866572 0.0339838 0.00199584 0.0056573 0.00172694 0.00879723 0.00199451 0.0235227 0.00248589 0.0125061 0.00191091 0.0255769 0.00301417 0.0217862 0.0034 0.0303618 0.00485687 0.0256621 0.00473463 0.0400251
112 3 O -0.297142 17.4647 53.8535 -1.2 1 0.0809007 0.0336253 0.00291459 0.00584178 0.00220738 0.0068414 0.00161395 0.0225892 0.00161324 0.0115009 0.00208585 0.0253091 0.00214018 0.021543 0.00362446 0.0308059 0.00397572 0.0256525 0.00671028 0.0388517
113 1 Mg -3.12429 26.1663 57.7968 1.2 1 0.0168624 0.0138767 0.00371205 0.00576479 0.00138588 0.00544084 0.0012784 0.0217979 0.00199563 0.00858288 0.00280119 0.0256761 0.00271618 0.0181989 0.00261501 0.02972 0.00374816 0.0238667 0.00525403 0.042516
114 1 Mg -1.48778 25.88 49.8402 1.2 1 0.180135 0.0500292 0.00704967 0.013169 0.00298263 0.0157665 0.00278165 0.0269695 0.00473724 0.0184881 0.0043582 0.0307588 0.00348376 0.0259352 0.0052221 0.0342652 0.00530164 0.0314638 0.00824236 0.039794
115 2 Si -1.00491 23.3922 47.9274 2.4 1 0.232674 0.0561787 0.0151072 0.0179942 0.00389762 0.0214287 0.00449225 0.0287108 0.00821305 0.0210638 0.0052201 0.0318836 0.0061089 0.0289655 0.00642951 0.0353604 0.00875974 0.0345953 0.0102784 0.0401858
116 3 O -0.927602 24.9615 47.9909 -1.2 1 0.225392 0.0542204 0.0140342 0.0173823 0.00405938 0.0206058 0.00430496 0.0285472 0.00728394 0.0204944 0.00559962 0.0312737 0.00518722 0.0280721 0.00690722 0.03568 0.00767746 0.0345077 0.00970171 0.0402034
117 3 O -1.55795 22.2588 51.7696 -1.2 1 0.133475 0.0425355 0.00228713 0.00969238 0.00281411 0.0116913 0.00166783 0.0245453 0.00311365 0.0150535 0.00252933 0.0283585 0.00348009 0.0231502 0.00429769 0.032337 0.00473529 0.0277474 0.006908 0.0405212
118 3 O -2.17411 22.8111 48.8277 -1.2 1 0.20339 0.0553302 0.00969637 0.0146246 0.00312063 0.0175257 0.00388727 0.0281091 0.00607882 0.0207373 0.0040352 0.0309606 0.00423611 0.027815 0.00565918 0.0350321 0.00694255 0.0334653 0.00855098 0.03957
119 1 Mg 0.0423997 21.3296 46.8225 1.2 1 0.256618 0.0569127 0.0194314 0.0199429 0.0044408 0.0251671 0.006114 0.0316399 0.00920852 0.0227083 0.00628992 0.0334585 0.00697579 0.0290658 0.00872262 0.0355555 0.00915894 0.0369244 0.0114832 0.0396417
120 3 O 0.458537 22.7495 48.3911 -1.2 1 0.211575 0.0552847 0.0107134 0.0157359 0.00351998 0.0187802 0.00326831 0.0283759 0.00655818 0.020672 0.00376607 0.0306512 0.00519009 0.0290199 0.00581379 0.034742 0.00735427 0.0349854 0.00905038 0.0405381