ITEM: TIMESTEP
17400
ITEM: NUMBER OF ATOMS
10500
ITEM: BOX BOUNDS xy xz yz pp pp pp
0	8.9688	2.9896
0	118.725	0
0	252.977	0
ITEM: ATOMS id type element xu yu zu q Q_1 Q_2 Q_3 Q_4 Q_5 Q_6 Q_7 Q_8 Q_9 Q_10 Q_11 Q_12 Q_13 Q_14 Q_15 Q_16 Q_17 Q_18 Q_19 Q_20 Q_21
1 1 Mg -3.35586 7.04984 57.4329 1.2 1 0.0215387 0.0145109 0.00494655 0.00545643 0.00156915 0.00627794 0.000935546 0.023507 0.00154966 0.0093678 0.00171128 0.0294979 0.00260452 0.0209895 0.00239479 0.0339647 0.00298951 0.0256234 0.00415067 0.0496273
2 1 Mg -1.82655 6.90154 50.0912 1.2 1 0.174806 0.0483205 0.00605852 0.0100951 0.00327707 0.0086515 0.00441803 0.0234205 0.00529895 0.0147393 0.00434929 0.0256163 0.00501596 0.0210808 0.00664357 0.0300554 0.00591484 0.0262634 0.00865666 0.0353287
3 2 Si -0.257935 3.96038 48.0876 2.4 1 0.22459 0.0538058 0.0120653 0.0123576 0.00256772 0.00972832 0.00383519 0.0204723 0.00589401 0.0169373 0.00431235 0.0242235 0.00528242 0.0205901 0.0061374 0.027288 0.00704816 0.0250964 0.00921773 0.0330063
4 3 O -0.335812 5.46814 47.6264 -1.2 1 0.232076 0.0534326 0.0139962 0.0133952 0.0032308 0.0105366 0.00491713 0.0213253 0.00661897 0.017629 0.00453089 0.0246556 0.00487332 0.0211912 0.00591647 0.0276401 0.00768643 0.0259791 0.0098274 0.0317588
5 3 O -2.03793 3.43377 51.8941 -1.2 1 0.128013 0.0411823 0.00207786 0.00728397 0.00200405 0.00701916 0.00326706 0.021007 0.00297278 0.0117555 0.00317504 0.0254701 0.00389761 0.0183702 0.00469221 0.0300358 0.00514585 0.024064 0.00767274 0.0388948
6 3 O -1.54015 3.53929 48.9521 -1.2 1 0.201768 0.0520881 0.0093711 0.010751 0.00266162 0.00850167 0.00383521 0.0204831 0.00502432 0.015463 0.0045037 0.0238096 0.00447547 0.0201244 0.00598205 0.0280632 0.00575158 0.0243651 0.00883635 0.0330738
7 1 Mg 1.82954 2.54582 47.1376 1.2 1 0.24458 0.0533425 0.0162569 0.0153851 0.00314172 0.0111848 0.00319042 0.0202037 0.00577494 0.0158627 0.00460132 0.0242299 0.00590964 0.0195539 0.00730113 0.0258323 0.00668558 0.0237112 0.00903773 0.0310698
8 3 O 1.22989 3.66364 48.7877 -1.2 1 0.203544 0.0510695 0.00959585 0.0118741 0.00212257 0.00938785 0.00400998 0.0206348 0.00442935 0.0151301 0.00382089 0.0240486 0.00455162 0.0198348 0.00653136 0.0274858 0.00484858 0.0245379 0.00911156 0.0338728
9 1 Mg 0.984665 2.27515 54.5831 1.2 1 0.068523 0.0295601 0.00462395 0.00522922 0.00130817 0.0053613 0.00319848 0.021983 0.00281211 0.010334 0.00264812 0.027062 0.00380422 0.0203395 0.00426376 0.0324623 0.00283889 0.0248595 0.00594712 0.044528
10 2 Si 1.03763 5.02047 56.4622 2.4 1 0.0320643 0.0195881 0.0060117 0.00591709 0.00118581 0.00622741 0.00241269 0.0230266 0.00194973 0.00916611 0.00351809 0.0273808 0.00283678 0.0206377 0.0046453 0.0332606 0.00316647 0.0254849 0.00589514 0.0493222
11 3 O 0.986432 3.4387 56.4597 -1.2 1 0.0363856 0.0202806 0.005963 0.00561748 0.00102269 0.00540603 0.00238997 0.0222052 0.00292594 0.00903545 0.00259496 0.0278531 0.00292403 0.0196377 0.0030286 0.0332591 0.00396894 0.0256353 0.00479271 0.0483133
12 3 O 1.10813 6.07342 52.8172 -1.2 1 0.104437 0.0366713 0.00218558 0.00669479 0.00201103 0.0068884 0.00365283 0.0230622 0.00376074 0.0115982 0.00307427 0.0267293 0.00415971 0.0196023 0.0050044 0.0311513 0.00439886 0.0253543 0.00653409 0.040631
13 3 O -0.21298 5.74486 55.8714 -1.2 1 0.0439944 0.0237413 0.00583463 0.0053017 0.00120057 0.00520295 0.00284131 0.0230981 0.00222062 0.0101763 0.00276308 0.0277121 0.00306204 0.0207086 0.00468698 0.033523 0.00310431 0.025806 0.00541806 0.047408
14 3 O 2.34517 5.70629 55.8172 -1.2 1 0.0404062 0.0229569 0.00599868 0.0051478 0.00113261 0.00561661 0.00267089 0.0231765 0.0016635 0.00959722 0.00287031 0.0276042 0.00316088 0.0207584 0.00441936 0.0345197 0.0030318 0.026093 0.00556303 0.047291
15 1 Mg -0.459401 4.67631 52.2426 1.2 1 0.123088 0.0412822 0.0017869 0.00690836 0.00227757 0.00650982 0.00283057 0.022158 0.00350713 0.0125596 0.00278072 0.0264254 0.00386594 0.0195617 0.00455857 0.0303649 0.00421584 0.0245733 0.00671039 0.0382582
16 1 Mg 2.79456 3.9971 49.9987 1.2 1 0.17533 0.050199 0.00576609 0.00994871 0.00257606 0.007988 0.00466982 0.0211987 0.00364951 0.0148061 0.00270791 0.0243047 0.00455621 0.0208051 0.0071164 0.0288976 0.00448959 0.0248941 0.00948633 0.0345954
17 2 Si 1.16169 6.59457 51.2556 2.4 1 0.145677 0.0459014 0.00217309 0.00884187 0.00252486 0.00811901 0.00430616 0.0227775 0.00481564 0.0138248 0.00455787 0.0254177 0.00464489 0.0213256 0.0070605 0.0311161 0.00493374 0.0261876 0.00895572 0.037818
18 3 O 1.28989 8.18905 51.2909 -1.2 1 0.145618 0.0450161 0.00243317 0.0089796 0.0024051 0.00900437 0.00431073 0.0234333 0.00463591 0.0137012 0.00385999 0.0272655 0.00438452 0.0219021 0.0052319 0.0311108 0.00556557 0.0267125 0.00810919 0.0389649
19 3 O 1.11316 5.65178 57.9528 -1.2 1 0.0161295 0.0115231 0.0039375 0.00587522 0.00107371 0.00634906 0.00152043 0.0234757 0.00141128 0.0088382 0.00253683 0.0286873 0.00269789 0.0210149 0.00270402 0.0339741 0.00272089 0.0259413 0.00380513 0.0507804
20 3 O -0.184847 6.06029 50.6845 -1.2 1 0.158911 0.0454899 0.00466365 0.00905417 0.0030772 0.00778535 0.00427816 0.0228212 0.00481385 0.0141913 0.00307438 0.0249087 0.00435057 0.02064 0.005915 0.029398 0.00518941 0.0255757 0.00796874 0.0369772
21 1 Mg -3.49704 4.67769 52.6661 1.2 1 0.113554 0.0386729 0.00169876 0.00641892 0.00194684 0.00689168 0.00330365 0.021426 0.00372853 0.0116114 0.00325748 0.0262038 0.00377686 0.0192861 0.00460224 0.0303642 0.00405573 0.0243253 0.00707384 0.0397432
22 3 O 2.48581 5.93312 50.6539 -1.2 1 0.156288 0.0474509 0.00381756 0.00840163 0.00182928 0.00848528 0.0043959 0.0227724 0.00469102 0.0141488 0.00393916 0.0249047 0.00452826 0.0211116 0.00645821 0.0305014 0.00468329 0.0259184 0.0088529 0.0366035
23 1 Mg -1.99491 4.71298 55.1822 1.2 1 0.0505008 0.0262693 0.00625423 0.00525691 0.00133357 0.00563493 0.00217416 0.0226209 0.00317037 0.0100634 0.00327911 0.0278814 0.0025559 0.020443 0.00392519 0.0334348 0.00389812 0.0255059 0.00607467 0.045695
24 2 Si -1.97026 2.65285 53.2863 2.4 1 0.10051 0.0360805 0.00266592 0.00638269 0.00252931 0.006342 0.00257765 0.0216352 0.00323876 0.0111744 0.00290545 0.0256168 0.00324713 0.0199518 0.00374301 0.0309412 0.00388652 0.0243066 0.00622149 0.0419005
25 3 O -2.00602 1.09378 53.1529 -1.2 1 0.0994705 0.0361708 0.00274405 0.00660158 0.00264285 0.00601874 0.00243021 0.0211821 0.00303764 0.0105619 0.00264834 0.0264254 0.00344935 0.0193405 0.00488468 0.0309306 0.00370854 0.0239365 0.00680287 0.0414931
26 3 O -0.0467762 2.97103 46.8385 -1.2 1 0.251819 0.0537794 0.0169396 0.0147591 0.00308428 0.0102237 0.00357739 0.0198813 0.00643895 0.0169853 0.00583708 0.0238619 0.00704005 0.0191563 0.00821751 0.0257988 0.00675917 0.0239797 0.0103844 0.0322568
27 3 O -3.24644 3.31115 54.0842 -1.2 1 0.0795896 0.0317223 0.00379965 0.00502419 0.00169294 0.00560149 0.00253228 0.0217772 0.00314186 0.0107908 0.00235162 0.026022 0.00280627 0.0197418 0.00389871 0.0318579 0.00354414 0.0241333 0.00591072 0.043146
28 3 O -0.755503 3.30213 54.0219 -1.2 1 0.0807916 0.0324331 0.00400198 0.00511936 0.00194287 0.0060804 0.00188583 0.0221812 0.0029031 0.0108252 0.00210392 0.0263361 0.00314725 0.0201318 0.00353748 0.0319869 0.00347902 0.0250888 0.00560457 0.0427092
29 1 Mg -3.24319 11.766 57.3485 1.2 1 0.021927 0.0142712 0.00515193 0.00536647 0.00114622 0.00625908 0.00127998 0.023859 0.00168544 0.00956102 0.00158707 0.0302551 0.00218125 0.0210573 0.00211046 0.0340707 0.00297584 0.0257447 0.00397293 0.0500834
30 1 Mg -1.75014 11.5838 49.8362 1.2 1 0.182622 0.0482829 0.00728388 0.0122286 0.00407032 0.0124302 0.00473876 0.0246756 0.00596841 0.0158408 0.0048887 0.0286646 0.00430244 0.0240107 0.00687746 0.0331706 0.00671843 0.0289756 0.00945258 0.0379051
31 2 Si -1.18003 9.02138 47.9309 2.4 1 0.240487 0.0524727 0.0154756 0.0155032 0.00519109 0.0132474 0.00758044 0.0233466 0.00806155 0.0173956 0.00675248 0.0260859 0.00498628 0.0230661 0.00709879 0.0302443 0.00869917 0.0287495 0.0120127 0.0344271
32 3 O -1.23224 10.5991 47.9811 -1.2 1 0.228334 0.0530399 0.0131782 0.0157044 0.00523222 0.0140099 0.00626392 0.0243199 0.0081374 0.0175147 0.00677678 0.0276907 0.00528432 0.0239283 0.00835611 0.0324446 0.00901274 0.0305187 0.0108679 0.0352738
33 3 O -1.79016 8.01447 51.8693 -1.2 1 0.130982 0.0415009 0.00178998 0.00858748 0.00317943 0.00731724 0.0030197 0.0232189 0.0043282 0.0128734 0.00355235 0.0272498 0.00409926 0.0209596 0.00489318 0.0317425 0.00546393 0.0257604 0.00800542 0.0394739
34 3 O -2.30986 8.37215 48.8528 -1.2 1 0.204104 0.0528525 0.00925927 0.0123348 0.0041134 0.0102786 0.00607392 0.0237555 0.00659629 0.0173102 0.00487263 0.0262431 0.00412316 0.0231186 0.00633086 0.0312776 0.00689935 0.0284523 0.00960673 0.0345837
35 1 Mg 0.154883 7.08234 46.8007 1.2 1 0.257664 0.0529657 0.0181984 0.0158996 0.00561766 0.0133289 0.00846412 0.0237563 0.00794333 0.017715 0.00686608 0.024658 0.00685042 0.021847 0.00855909 0.028942 0.00972543 0.0283847 0.0129001 0.031817
36 3 O 0.325447 8.50934 48.3809 -1.2 1 0.217277 0.053798 0.0112022 0.0138884 0.00407756 0.0120412 0.00625702 0.0244166 0.00699559 0.0173894 0.00565715 0.0260154 0.00518142 0.0241381 0.00577488 0.0302663 0.00755023 0.029121 0.0103792 0.0345971
37 1 Mg 1.14627 7.13544 54.5873 1.2 1 0.0666887 0.0300194 0.00486901 0.00543215 0.0016743 0.0056353 0.00262635 0.0228607 0.0026816 0.0107804 0.00282708 0.0276267 0.00337913 0.021228 0.00393141 0.0332407 0.00328016 0.0248414 0.00581233 0.044339
38 2 Si 1.10186 9.79548 56.4373 2.4 1 0.0330426 0.0201656 0.0062585 0.0061212 0.00104113 0.00560365 0.00240612 0.0232347 0.00206206 0.00926471 0.00371674 0.0284658 0.00267686 0.021507 0.00446588 0.0341366 0.00340502 0.0250139 0.00627402 0.0497082
39 3 O 1.1439 8.24858 56.5958 -1.2 1 0.0295431 0.018304 0.00575668 0.00570339 0.00116965 0.00603927 0.00144611 0.0237505 0.00250386 0.00857784 0.00222213 0.0286826 0.00291587 0.0206351 0.00262927 0.0342198 0.0038161 0.0257189 0.00535397 0.0498724
40 3 O 1.28624 10.7248 52.7351 -1.2 1 0.109785 0.03742 0.00208878 0.00745975 0.00226684 0.0093024 0.00328193 0.0241753 0.00359985 0.0122988 0.00380318 0.0283232 0.00437133 0.021986 0.00465768 0.0328981 0.004287 0.0267335 0.00724334 0.0422466
41 3 O -0.185192 10.5251 55.7588 -1.2 1 0.0479479 0.0245688 0.00558865 0.00565975 0.0010448 0.00620863 0.00261412 0.0242489 0.00184427 0.0106676 0.00259506 0.0282746 0.00310342 0.0222151 0.00437908 0.034263 0.00368937 0.0265935 0.00618089 0.0485858
42 3 O 2.34365 10.4313 55.632 -1.2 1 0.0455409 0.0248523 0.0064348 0.00566905 0.000970717 0.00591385 0.00239318 0.0233993 0.00217655 0.0102431 0.00267611 0.0286108 0.00307368 0.0220542 0.0036488 0.0347258 0.0033689 0.0261063 0.00575085 0.04834
43 1 Mg -0.262694 9.34741 52.2523 1.2 1 0.112764 0.0406298 0.00266369 0.00777827 0.00273731 0.00770336 0.00273537 0.0242275 0.00389216 0.0124389 0.0037866 0.028023 0.0039701 0.021532 0.00556171 0.0327128 0.00475052 0.0268286 0.00763007 0.0407553
44 1 Mg 1.87648 9.01537 49.4629 1.2 1 0.182183 0.0523685 0.00580636 0.0107992 0.00297539 0.0104474 0.00608 0.0239087 0.00563269 0.0162972 0.00483134 0.0270511 0.00496329 0.0233773 0.00628435 0.0319133 0.00573781 0.028664 0.00979533 0.0364604
45 2 Si 1.21415 11.3799 51.2378 2.4 1 0.145972 0.0462011 0.00193832 0.0100017 0.00283757 0.0106481 0.00406811 0.0248005 0.00482212 0.0147159 0.00472958 0.0276224 0.00449742 0.0240211 0.00608537 0.0330137 0.00485282 0.0289899 0.00918337 0.0405609
46 3 O 1.31634 12.9512 51.3023 -1.2 1 0.145647 0.0443863 0.00271899 0.00965549 0.00271162 0.0113294 0.003548 0.0244141 0.00505821 0.0144034 0.00340843 0.029101 0.00447434 0.0243182 0.0051586 0.0339915 0.0057569 0.0288214 0.00825274 0.0414632
47 3 O 1.28558 10.5606 57.8751 -1.2 1 0.0177006 0.0124464 0.00430871 0.00592413 0.00122544 0.00630201 0.00109778 0.0234492 0.00150343 0.00861547 0.00256656 0.0291697 0.00222911 0.0209623 0.00202303 0.0342528 0.00265854 0.0254467 0.00400276 0.0508429
48 3 O -0.115718 10.7564 50.681 -1.2 1 0.154266 0.0464127 0.00357552 0.0105236 0.00353728 0.0103069 0.00409739 0.0246445 0.00492365 0.0142103 0.00386257 0.0280297 0.00456949 0.0232078 0.00628913 0.0324258 0.00503482 0.0281311 0.0090036 0.039596
49 1 Mg -3.26386 9.35564 52.3622 1.2 1 0.120872 0.0398096 0.00140411 0.00768612 0.00199444 0.0091571 0.00353393 0.0238452 0.00433133 0.0130376 0.00387966 0.027828 0.00363161 0.021801 0.00487869 0.0326759 0.00463791 0.0265625 0.0079113 0.0395644
50 3 O 2.45216 10.7265 50.4558 -1.2 1 0.15988 0.0481733 0.00365215 0.00951729 0.00245899 0.0111372 0.00479029 0.0242687 0.0053823 0.0158109 0.00406805 0.0273644 0.00420844 0.0240914 0.00616867 0.0331027 0.0053241 0.0287444 0.0089284 0.038706
51 1 Mg -1.85096 9.62822 54.9998 1.2 1 0.0554561 0.0279916 0.00566874 0.00604708 0.00167449 0.00596332 0.00224564 0.023536 0.0029568 0.0103502 0.00340244 0.028381 0.00276178 0.0217308 0.00394451 0.0340394 0.00450331 0.0262676 0.00667116 0.0467649
52 2 Si -1.86704 7.37719 53.3622 2.4 1 0.0934016 0.0364335 0.00318633 0.00653936 0.00293278 0.00617984 0.00265501 0.0229819 0.00427493 0.0118149 0.00305463 0.0270979 0.0030877 0.0214222 0.00349804 0.0323677 0.00481546 0.0252078 0.00618795 0.0420982
53 3 O -1.93041 5.85092 53.2853 -1.2 1 0.0959596 0.0349998 0.00274689 0.00591483 0.00208549 0.00644979 0.0025724 0.0222539 0.00378398 0.0108587 0.00293133 0.0264774 0.00291627 0.0198099 0.00465786 0.0321691 0.00352709 0.0250581 0.00680183 0.0417204
54 3 O -1.19417 8.46968 46.4488 -1.2 1 0.270013 0.0530099 0.0207147 0.0175754 0.00549156 0.0143652 0.00886235 0.0249428 0.00857563 0.0178174 0.00729936 0.0252927 0.00611556 0.0215111 0.00945287 0.0302293 0.0102968 0.0299619 0.0121787 0.0316241
55 3 O -3.10327 8.03 54.0282 -1.2 1 0.0820592 0.0319431 0.00325356 0.00562561 0.00193132 0.00681322 0.00233548 0.0231607 0.00345991 0.0112479 0.00274311 0.0270084 0.00273288 0.0212261 0.00365423 0.0330477 0.00483041 0.0253358 0.00632075 0.0431963
56 3 O -0.656716 8.14617 54.0483 -1.2 1 0.0750278 0.0318449 0.00461115 0.00540091 0.00225855 0.00554024 0.00144154 0.0235243 0.00332151 0.0108027 0.00265397 0.0275511 0.00270423 0.0212721 0.00386509 0.0333129 0.00427339 0.0258377 0.00646162 0.0440124
57 1 Mg -3.26523 16.4627 57.5187 1.2 1 0.0214569 0.0137512 0.00513406 0.0059224 0.00140301 0.00605025 0.00129067 0.0240393 0.00190095 0.0093657 0.00165791 0.0304805 0.00233113 0.0210043 0.00236018 0.0341819 0.00315172 0.0254567 0.00387424 0.0515357
58 1 Mg -1.6714 16.3544 49.8412 1.2 1 0.178357 0.0484386 0.00694677 0.0129443 0.00347862 0.0149321 0.00321612 0.0267346 0.0049892 0.0173138 0.00419034 0.0314706 0.00423689 0.0262271 0.00605211 0.0350866 0.00619876 0.0307311 0.00920166 0.0415332
59 2 Si -1.18567 13.8526 47.9314 2.4 1 0.232627 0.0535699 0.0148572 0.0170722 0.00479272 0.0179761 0.00500234 0.0269466 0.0085372 0.019292 0.00598677 0.030749 0.00537066 0.0282886 0.00679316 0.0344158 0.00939841 0.0325321 0.0115945 0.0384469
60 3 O -1.09664 15.4205 47.9915 -1.2 1 0.231594 0.0529553 0.0146356 0.0173633 0.00507277 0.0192293 0.00465807 0.0275201 0.00785239 0.0196159 0.00605845 0.0311226 0.00558888 0.0278979 0.00800473 0.0355892 0.00889783 0.0336455 0.0109419 0.039366
61 3 O -1.73493 12.7491 51.7772 -1.2 1 0.134247 0.0418469 0.0021619 0.00983499 0.00312743 0.00991825 0.00175813 0.0249123 0.00418004 0.0141298 0.00320589 0.0293463 0.00432993 0.0240749 0.00453962 0.0335984 0.00523815 0.0281374 0.00770068 0.0424506
62 3 O -2.36115 13.2717 48.8238 -1.2 1 0.202229 0.052557 0.00955893 0.0140491 0.00460355 0.0141529 0.00473664 0.0268409 0.00644241 0.0188612 0.00497889 0.0302689 0.0042174 0.0265804 0.00629153 0.0345183 0.00752232 0.0318327 0.0100272 0.038346
63 1 Mg -0.159928 11.7639 46.8533 1.2 1 0.259381 0.0538252 0.0189964 0.0186731 0.00603284 0.0197085 0.00721663 0.0279201 0.00953775 0.0194308 0.00759512 0.029982 0.00636819 0.0271481 0.00810643 0.0333045 0.0104738 0.0335982 0.0136021 0.0357295
64 3 O 0.2623 13.1866 48.413 -1.2 1 0.214658 0.0534566 0.0114987 0.0151857 0.00418365 0.0159411 0.0045734 0.0267689 0.00720498 0.0184716 0.00476607 0.0293782 0.00487962 0.0279723 0.00562292 0.0337932 0.00810475 0.033281 0.0104158 0.0390627
65 1 Mg 1.23412 11.8498 54.5152 1.2 1 0.0714145 0.0309609 0.00445929 0.00583381 0.0018578 0.00698855 0.00256126 0.0234972 0.00268996 0.0113176 0.00262819 0.028881 0.00363561 0.022584 0.003599 0.0343048 0.00367924 0.025725 0.00587048 0.0455636
66 2 Si 1.35981 14.4932 56.3401 2.4 1 0.0344936 0.0196392 0.00632868 0.00662001 0.000911794 0.006024 0.00187246 0.0236618 0.00186444 0.00972988 0.00330571 0.0291589 0.00244918 0.0216352 0.00416349 0.0340919 0.00313196 0.0254435 0.00531172 0.0511207
67 3 O 1.32242 12.8996 56.3938 -1.2 1 0.0363613 0.0201277 0.00597857 0.00642609 0.00078427 0.00555082 0.00205036 0.0231464 0.00288762 0.0095326 0.00201233 0.0297028 0.00290335 0.021234 0.00247081 0.0344408 0.00419155 0.0254091 0.00483272 0.0502422
68 3 O 1.36565 15.4813 52.729 -1.2 1 0.11084 0.0377825 0.00111612 0.00795611 0.00180718 0.0105509 0.00287455 0.0248114 0.00350911 0.0134358 0.00329035 0.029754 0.00410772 0.0234204 0.00412206 0.0341157 0.004534 0.0283468 0.00703126 0.0451317
69 3 O 0.0988819 15.1825 55.6938 -1.2 1 0.0501012 0.0245684 0.00496249 0.00616316 0.000932566 0.00637292 0.00190851 0.0232702 0.00191362 0.0107752 0.00239289 0.0291899 0.00238015 0.0218893 0.00313438 0.0347265 0.00332794 0.0262593 0.00508402 0.0495383
70 3 O 2.60397 15.1775 55.6917 -1.2 1 0.0434751 0.0233834 0.0061839 0.00610216 0.00119729 0.00598246 0.00226865 0.0239791 0.00217603 0.0102776 0.0022038 0.0288908 0.0025129 0.0219333 0.00284062 0.035056 0.00318072 0.0269839 0.005598 0.0502787
71 1 Mg -0.206989 14.1049 52.2121 1.2 1 0.115805 0.0414737 0.00150824 0.00855408 0.00258517 0.00907912 0.00224751 0.025216 0.00376097 0.0137658 0.00337013 0.0299838 0.00337102 0.023896 0.00436501 0.0340363 0.00438529 0.028467 0.00712084 0.0429948
72 1 Mg 1.82591 13.8102 49.4556 1.2 1 0.183636 0.0527658 0.00567394 0.0121367 0.00291069 0.0132816 0.00445951 0.0255967 0.00547379 0.0179095 0.00445559 0.0295631 0.00441818 0.026829 0.00643965 0.0352396 0.00596823 0.031919 0.00977594 0.0393063
73 2 Si 1.29285 16.1518 51.2434 2.4 1 0.146028 0.0470664 0.00212793 0.0104712 0.0023621 0.0123873 0.00350765 0.0256618 0.00447797 0.0159252 0.00482939 0.0293321 0.00432562 0.025942 0.00626148 0.0344475 0.00429501 0.0307033 0.00930064 0.0435445
74 3 O 1.39496 17.7199 51.3047 -1.2 1 0.143521 0.0444841 0.00254876 0.00994435 0.0017933 0.0125766 0.00290139 0.0252599 0.00423433 0.0151056 0.00299743 0.0301826 0.0039409 0.0251686 0.00411802 0.0348843 0.00563646 0.0298609 0.00782664 0.0443892
75 3 O 1.3017 15.0908 57.9104 -1.2 1 0.0172431 0.0116302 0.0042658 0.00602608 0.00103757 0.00635926 0.00141074 0.0242143 0.00168698 0.00889899 0.00269777 0.029921 0.00197265 0.0207302 0.00265016 0.0341729 0.00286159 0.0256023 0.00398242 0.0517265
76 3 O -0.0269106 15.5178 50.6688 -1.2 1 0.154033 0.0465732 0.00397539 0.011159 0.00315227 0.0124354 0.00350342 0.0257318 0.00445458 0.015664 0.00326314 0.0296396 0.00428716 0.0259185 0.00548875 0.0343604 0.00442866 0.0304989 0.00863091 0.0423263
77 1 Mg -3.18391 14.1057 52.3125 1.2 1 0.122644 0.0409575 0.0011194 0.00855419 0.00195813 0.010661 0.00253499 0.0247254 0.00392011 0.0142156 0.00310285 0.0296688 0.00351434 0.0241489 0.00431675 0.0339411 0.00442038 0.0280983 0.00677398 0.0425801
78 3 O 2.52432 15.503 50.4579 -1.2 1 0.15925 0.0488114 0.00412768 0.0103921 0.00230008 0.0130332 0.00362027 0.0254572 0.00487179 0.0170751 0.00376358 0.0296047 0.00381207 0.0264055 0.00623498 0.0347345 0.00511143 0.0305156 0.00853719 0.0421345
79 1 Mg -1.70552 14.0504 55.0638 1.2 1 0.0551933 0.0272668 0.00571368 0.00660914 0.00146857 0.00656366 0.00216255 0.023959 0.0026855 0.0107656 0.00317814 0.029511 0.0021801 0.0225431 0.00381169 0.0346789 0.0044027 0.026807 0.00619212 0.0487181
80 2 Si -1.73664 12.1173 53.2439 2.4 1 0.0999611 0.0369728 0.00287043 0.00785184 0.00240352 0.00808698 0.00159261 0.0240167 0.00407722 0.0126771 0.00291522 0.0284162 0.00366408 0.0235926 0.00376582 0.0336777 0.00527347 0.0271763 0.00675376 0.0448306
81 3 O -1.7111 10.5748 53.1459 -1.2 1 0.0975834 0.03591 0.00337327 0.00708598 0.00259278 0.00750312 0.00197266 0.0234561 0.00370798 0.0112039 0.00340498 0.0277504 0.00347212 0.0214491 0.00480862 0.0334215 0.00443584 0.0264681 0.00799032 0.0437216
82 3 O -1.21337 13.3381 46.4311 -1.2 1 0.27104 0.0528054 0.020961 0.0201509 0.00655516 0.020617 0.0072504 0.0299343 0.00943746 0.0204772 0.00680815 0.0312613 0.0059134 0.0269489 0.00878555 0.0356486 0.0122225 0.0354318 0.013661 0.0360001
83 3 O -3.00419 12.7349 53.9144 -1.2 1 0.0846471 0.0330166 0.00362009 0.00632761 0.00173038 0.00833484 0.00154333 0.0238552 0.00307599 0.0121275 0.00247954 0.0285441 0.00318826 0.0228906 0.00348349 0.0343764 0.00405339 0.0266734 0.00621074 0.0459351
84 3 O -0.435312 12.7524 53.929 -1.2 1 0.0795346 0.0327141 0.00421894 0.00655741 0.0025504 0.00617403 0.00134005 0.024233 0.00308766 0.0117292 0.00240676 0.0284121 0.00310368 0.0228902 0.00396665 0.0346439 0.00410403 0.0272129 0.00668365 0.0460428
85 1 Mg -3.05419 21.2303 57.3232 1.2 1 0.0224741 0.0138949 0.00532848 0.00632284 0.00113476 0.006416 0.00141542 0.0239817 0.00204952 0.00948424 0.00164878 0.0300527 0.00217949 0.0211043 0.0023748 0.0342714 0.00314416 0.0257979 0.00345331 0.0526011
86 1 Mg -1.5831 21.1217 49.8405 1.2 1 0.181492 0.0493285 0.00696338 0.0133189 0.00328005 0.0156721 0.00305332 0.0268063 0.00438586 0.017763 0.00465572 0.0313626 0.00399803 0.0267378 0.00630641 0.0356615 0.00581672 0.0310796 0.00975722 0.0421935
87 2 Si -1.09384 18.6291 47.9287 2.4 1 0.231426 0.0545027 0.0146051 0.0173565 0.00389798 0.0203855 0.00400837 0.028401 0.0075234 0.0200064 0.00539007 0.0321293 0.00575517 0.0288991 0.00641224 0.0363127 0.00916863 0.0337634 0.0111661 0.0413708
88 3 O -1.02071 20.1985 47.9911 -1.2 1 0.230447 0.0539462 0.0145999 0.017573 0.00444849 0.0208336 0.00418727 0.0282697 0.0070743 0.020165 0.0058562 0.0318911 0.00575162 0.0283167 0.00778786 0.0367559 0.00836389 0.0341106 0.0109362 0.0411986
89 3 O -1.65002 17.5002 51.771 -1.2 1 0.133875 0.0419668 0.00197226 0.0102789 0.00281199 0.0115155 0.00154388 0.0252774 0.0032584 0.0144526 0.0031842 0.0300067 0.00414117 0.0245053 0.00424986 0.0344887 0.00533467 0.0285284 0.00776929 0.0444151
90 3 O -2.26174 18.0434 48.8281 -1.2 1 0.205199 0.0541576 0.00977408 0.0149033 0.00370853 0.0170326 0.00400592 0.0279774 0.00585808 0.0196685 0.00424977 0.0315961 0.00435293 0.0280381 0.00619845 0.0361645 0.00715161 0.0331827 0.00977467 0.0410397
91 1 Mg -0.0440435 16.5651 46.8269 1.2 1 0.256551 0.0546756 0.0183074 0.0198451 0.005 0.0240164 0.00512774 0.0313539 0.0090381 0.0218256 0.00612929 0.0337026 0.00654146 0.0292591 0.00812002 0.0357551 0.0100053 0.0363067 0.0125216 0.0400553
92 3 O 0.37001 17.9877 48.3925 -1.2 1 0.214662 0.054374 0.0111772 0.0158578 0.00381869 0.0182442 0.00345611 0.0285958 0.00638189 0.019555 0.00401673 0.0314001 0.00495474 0.0290905 0.0056604 0.0354723 0.00767631 0.0349693 0.0103428 0.0415944
93 1 Mg 1.33912 16.5142 54.6195 1.2 1 0.0704817 0.0303636 0.00401974 0.00652046 0.00134905 0.0075598 0.0026608 0.0239486 0.00284913 0.0119271 0.00271519 0.0296462 0.00366727 0.0233107 0.00316104 0.0348341 0.0037208 0.0264621 0.00556139 0.0477911
94 2 Si 1.27783 19.2483 56.3427 2.4 1 0.0348245 0.0196458 0.00602447 0.00678649 0.00112142 0.00624327 0.00213842 0.0237818 0.00200262 0.00956759 0.00353593 0.0287281 0.00254489 0.0221117 0.00444394 0.0343439 0.00354646 0.0254818 0.00583084 0.0527672
95 3 O 1.34844 17.6526 56.4895 -1.2 1 0.0304447 0.0180735 0.00579249 0.00643973 0.00122933 0.00593323 0.0017799 0.0241532 0.0030958 0.00904351 0.00213508 0.0294477 0.00300508 0.0211405 0.00242081 0.0344051 0.00427314 0.0258149 0.00493901 0.0520803
96 3 O 1.45147 20.239 52.7294 -1.2 1 0.10935 0.0376795 0.00143825 0.00828656 0.00162704 0.0112058 0.00312045 0.0251371 0.00249288 0.0133325 0.00347903 0.0298256 0.00407261 0.0236475 0.0045026 0.0345398 0.00393625 0.0283388 0.00718014 0.0465658
97 3 O 0.016376 19.9056 55.6983 -1.2 1 0.0489236 0.0243207 0.00528296 0.00635556 0.00101669 0.00684238 0.0021978 0.0243911 0.00200431 0.0104555 0.00250737 0.0287552 0.00272431 0.0224347 0.00412215 0.0348926 0.00346364 0.0266726 0.00537193 0.0513703
98 3 O 2.56843 19.8738 55.6812 -1.2 1 0.0441016 0.0239316 0.00634887 0.00647003 0.00106902 0.00664751 0.00243098 0.024147 0.00216462 0.0101411 0.00259323 0.028688 0.0027487 0.0223829 0.0035986 0.0351448 0.00311946 0.026695 0.00578394 0.0514367
99 1 Mg -0.126194 18.8651 52.2079 1.2 1 0.11615 0.0419453 0.00185489 0.00919463 0.00242841 0.0101508 0.00203464 0.0253087 0.00300689 0.0142765 0.00325852 0.03028 0.00358167 0.0243596 0.00406531 0.034667 0.0042507 0.0289407 0.0074853 0.0448342
100 1 Mg 1.92402 18.5815 49.4545 1.2 1 0.18301 0.053784 0.00565013 0.0123418 0.00203667 0.0149572 0.00390578 0.026364 0.00462557 0.0185104 0.00393093 0.0308956 0.00445319 0.0276767 0.00528212 0.0364444 0.00621348 0.0325496 0.00954273 0.0420984
101 2 Si 1.38106 20.9117 51.2443 2.4 1 0.146261 0.0470264 0.00176975 0.0107533 0.00235788 0.0133537 0.00366389 0.0256664 0.00341247 0.0161544 0.00477821 0.0292888 0.00428967 0.0260447 0.0063122 0.0348913 0.00389445 0.0307187 0.00952324 0.0445879
102 3 O 1.48527 22.4795 51.3054 -1.2 1 0.142176 0.0431882 0.00207147 0.0100991 0.00221026 0.0130262 0.00302127 0.0250971 0.00378177 0.0149322 0.00311447 0.029895 0.0038831 0.0249083 0.00448333 0.0353505 0.00529294 0.0296803 0.00823445 0.0450387
103 3 O 1.41704 19.9307 57.8434 -1.2 1 0.0180758 0.011901 0.00424092 0.00657242 0.00122349 0.00636098 0.00129831 0.0243777 0.00167027 0.00872444 0.00261492 0.0296493 0.00217974 0.0211295 0.00300898 0.0340841 0.00312386 0.0256262 0.0043965 0.0534049
104 3 O 0.0615419 20.2804 50.6669 -1.2 1 0.15445 0.0465379 0.00351518 0.0115348 0.0035073 0.0135494 0.00367174 0.0258784 0.00353523 0.0156874 0.00335445 0.0298459 0.00427575 0.0262133 0.00534241 0.0351833 0.0043003 0.0305377 0.00863415 0.0442635
105 1 Mg -3.09665 18.8643 52.3122 1.2 1 0.12277 0.0415523 0.00114948 0.00890802 0.00147494 0.0116786 0.00228935 0.0250595 0.00286432 0.0147832 0.00293638 0.0301426 0.00350648 0.0249486 0.00380477 0.0343789 0.00437549 0.0285655 0.00718992 0.0444252
106 3 O 2.61548 20.2646 50.4626 -1.2 1 0.160013 0.0493265 0.00354191 0.0108608 0.00179898 0.014046 0.00346809 0.0263244 0.0034873 0.0176973 0.00349034 0.02996 0.00412438 0.0267984 0.00550565 0.0355159 0.00456652 0.0305257 0.00872069 0.0432302
107 1 Mg -1.72177 18.8332 55.1278 1.2 1 0.0540003 0.0272181 0.00551081 0.00691464 0.00145707 0.00690443 0.0023096 0.0244013 0.00262078 0.0107271 0.00325747 0.0292879 0.00245652 0.0225451 0.00405461 0.034785 0.00410997 0.0268286 0.00593297 0.0501296
108 2 Si -1.6651 16.8301 53.2445 2.4 1 0.0967116 0.0368172 0.00293281 0.00813684 0.00221154 0.0081842 0.00116337 0.0243743 0.00358595 0.0129848 0.00270101 0.0290663 0.00327588 0.0240733 0.00332914 0.0344396 0.00474036 0.0278593 0.00635012 0.0470799
109 3 O -1.7297 15.2445 53.2423 -1.2 1 0.0956175 0.0355472 0.00288773 0.00766661 0.00203544 0.00825613 0.00151662 0.0241368 0.00363426 0.0122903 0.00287734 0.0293931 0.00286094 0.0231893 0.00415625 0.0343484 0.00375126 0.0272443 0.00712294 0.0463683
110 3 O -1.12868 18.1227 46.4249 -1.2 1 0.268129 0.0548121 0.0201971 0.0210615 0.00564441 0.0241735 0.00574766 0.0319876 0.00780554 0.0215609 0.00576733 0.0338838 0.0065371 0.0275468 0.00883333 0.0379657 0.0114363 0.0372107 0.0130567 0.0400372
111 3 O -2.95582 17.5184 53.9055 -1.2 1 0.082803 0.032974 0.00317437 0.00666992 0.00133871 0.00896328 0.00157191 0.0243433 0.00255355 0.0122265 0.00266236 0.0289437 0.00282361 0.0234313 0.00283852 0.0346639 0.0040951 0.0270363 0.00605866 0.0474594
112 3 O -0.362703 17.5409 53.9371 -1.2 1 0.0777523 0.0324248 0.00371208 0.00678621 0.00233949 0.0068291 0.000774691 0.0243405 0.00263743 0.0116011 0.00223326 0.0286277 0.00256741 0.0234381 0.00353121 0.0349728 0.00383885 0.0275886 0.00660133 0.0479179
113 1 Mg -2.89601 26.0337 57.27 1.2 1 0.0215315 0.0134077 0.00523946 0.00640191 0.0011837 0.00655734 0.00139514 0.0237693 0.00201759 0.00939662 0.00146323 0.0298416 0.00198944 0.0211883 0.00242492 0.0344156 0.00284445 0.0258591 0.00359872 0.0531705
114 1 Mg -1.48778 25.88 49.8402 1.2 1 0.18169 0.0492628 0.00715475 0.0133664 0.00366648 0.0161375 0.00317536 0.0267698 0.00407359 0.0180519 0.00480649 0.0314388 0.00407826 0.0270244 0.00664549 0.0359161 0.00587767 0.0311042 0.0101256 0.0421382
115 2 Si -1.00491 23.3922 47.9274 2.4 1 0.232748 0.05505 0.0149568 0.0181962 0.00446561 0.0212171 0.00469633 0.0286443 0.00726965 0.0206317 0.00555702 0.0320633 0.00606474 0.0294413 0.00644663 0.0366133 0.00917553 0.0340018 0.0112941 0.0410222
116 3 O -0.927602 24.9615 47.9909 -1.2 1 0.230586 0.0538035 0.0145494 0.0178609 0.00459036 0.0212338 0.00396507 0.0282653 0.00695591 0.0205139 0.00601488 0.0318296 0.00592932 0.028668 0.00809493 0.0368962 0.00866568 0.0341599 0.0110629 0.0408401
117 3 O -1.55795 22.2588 51.7696 -1.2 1 0.134426 0.0419808 0.00197973 0.0104789 0.00295231 0.0120361 0.00191382 0.0253845 0.0024673 0.0146034 0.00290227 0.0299865 0.00431926 0.0245758 0.0041837 0.034912 0.00515721 0.0286205 0.00794467 0.0452691
118 3 O -2.17411 22.8111 48.8277 -1.2 1 0.206611 0.0548417 0.00996953 0.0152114 0.00369042 0.0176002 0.00392759 0.0281329 0.00533171 0.0200779 0.0044227 0.0313203 0.00466677 0.0282944 0.00614645 0.0366781 0.00697936 0.0333447 0.0101844 0.0411927
119 1 Mg 0.0423997 21.3296 46.8225 1.2 1 0.257964 0.0558213 0.0191406 0.0203619 0.0052516 0.0253053 0.00580805 0.0317721 0.00854343 0.0223556 0.00640228 0.0337766 0.00721861 0.0295292 0.00909649 0.036915 0.00947837 0.0366156 0.0128698 0.0405354
120 3 O 0.458537 22.7495 48.3911 -1.2 1 0.214782 0.0544428 0.0112375 0.0161704 0.00406454 0.0188388 0.00342328 0.0285155 0.00583429 0.0199238 0.00422066 0.0313025 0.00544009 0.0293346 0.00596861 0.0360729 0.00769621 0.0347906 0.0106138 0.0419454
121 1 Mg 1.45447 21.2463 54.5202 1.2 1 0.0726071 0.0310002 0.00444307 0.00683926 0.00153046 0.00784409 0.00263699 0.0238973 0.00253659 0.0117858 0.00255888 0.0293716 0.00383447 0.0235599 0.00365628 0.0352414 0.00369831 0.026343 0.00566655 0.0488003