ITEM: TIMESTEP
23400
ITEM: NUMBER OF ATOMS
10500
ITEM: BOX BOUNDS xy xz yz pp pp pp
0	8.9688	2.9896
0	118.725	0
0	252.977	0
ITEM: ATOMS id type element xu yu zu q Q_1 Q_2 Q_3 Q_4 Q_5 Q_6 Q_7 Q_8 Q_9 Q_10 Q_11 Q_12 Q_13 Q_14 Q_15 Q_16 Q_17 Q_18 Q_19 Q_20 Q_21
1 1 Mg -3.44891 7.06808 57.4685 1.2 1 0.021741 0.0144769 0.00505096 0.00652499 0.00136796 0.00670725 0.00151728 0.0232918 0.00158555 0.00904791 0.00195552 0.0289138 0.00256436 0.0194867 0.00211864 0.0327712 0.00326051 0.0249121 0.0052259 0.0494643
2 1 Mg -1.82655 6.90154 50.0912 1.2 1 0.175033 0.0487312 0.00571158 0.0106943 0.0032615 0.00927838 0.00425523 0.0227592 0.00492947 0.0151481 0.00436213 0.02563 0.00466864 0.0212835 0.00635735 0.0303073 0.00578133 0.0262048 0.00875037 0.0348553
3 2 Si -0.257935 3.96038 48.0876 2.4 1 0.220841 0.0548308 0.0113488 0.0128323 0.00227207 0.0100665 0.00381417 0.0202991 0.0059235 0.017207 0.0047007 0.0243973 0.00501158 0.0208039 0.00529014 0.0274498 0.0071893 0.0253103 0.00885689 0.0328459
4 3 O -0.335812 5.46814 47.6264 -1.2 1 0.230377 0.0543427 0.0135219 0.0138818 0.00299276 0.011046 0.00458751 0.0210456 0.00672266 0.0177586 0.00512271 0.0251669 0.00473396 0.0211447 0.0054057 0.0276162 0.00777791 0.02613 0.0101904 0.0314623
5 3 O -2.03793 3.43377 51.8941 -1.2 1 0.126951 0.0420293 0.00118741 0.00799507 0.00167704 0.00717789 0.00260763 0.0208139 0.00328278 0.0118699 0.0031819 0.0259691 0.00348184 0.0180373 0.00396049 0.0296286 0.00535545 0.0234567 0.00766945 0.0378296
6 3 O -1.54015 3.53929 48.9521 -1.2 1 0.20113 0.0538924 0.00867122 0.0116629 0.00228318 0.00873463 0.00367631 0.0201338 0.00534759 0.0156919 0.00448193 0.0241138 0.00432295 0.0202772 0.00564797 0.0279218 0.00579732 0.0247112 0.00869676 0.032471
7 1 Mg 1.82954 2.54582 47.1376 1.2 1 0.24681 0.0553058 0.016501 0.0163237 0.00351716 0.0112655 0.00399593 0.0201362 0.00654896 0.0160881 0.00535531 0.0240387 0.00665612 0.0193641 0.00780001 0.0256251 0.00660868 0.0237872 0.00897423 0.030865
8 3 O 1.22989 3.66364 48.7877 -1.2 1 0.201689 0.0521039 0.00889236 0.0123126 0.00269019 0.00965141 0.00404951 0.0205164 0.00438298 0.0154754 0.00405003 0.0240401 0.00477354 0.0199486 0.0058507 0.0275129 0.00508056 0.0245754 0.00873371 0.033721
9 1 Mg 1.05019 2.37871 54.5246 1.2 1 0.0681664 0.0302138 0.00469688 0.00619245 0.00127209 0.00557165 0.00283494 0.0219539 0.00287198 0.0098342 0.00304382 0.0273282 0.00391807 0.0195425 0.00384685 0.0313343 0.00309174 0.0236956 0.00679196 0.0436992
10 2 Si 0.889252 5.02423 56.5964 2.4 1 0.0315521 0.0187766 0.00585548 0.00708115 0.00118989 0.00623078 0.00207786 0.0223283 0.0022863 0.00881048 0.00369458 0.0275926 0.0032809 0.0193888 0.00451131 0.0326697 0.00380639 0.0241256 0.00684494 0.0487522
11 3 O 0.950616 3.4813 56.7233 -1.2 1 0.0296128 0.0179292 0.00624847 0.00681175 0.00108663 0.00611994 0.00226284 0.0225727 0.00282528 0.00852563 0.00240737 0.0280198 0.00328906 0.0191335 0.00327815 0.0329715 0.00446462 0.0247437 0.00645261 0.0480843
12 3 O 1.10813 6.07342 52.8172 -1.2 1 0.105566 0.0368406 0.00216271 0.00751699 0.00217888 0.00747648 0.00347524 0.0227453 0.00352262 0.0120143 0.00291286 0.0266665 0.00400099 0.0195806 0.00504068 0.0310764 0.00450448 0.0249746 0.00709497 0.0401674
13 3 O -0.344738 5.59592 55.8489 -1.2 1 0.0441209 0.0236458 0.00614375 0.00611913 0.0012571 0.0058803 0.00247365 0.0229954 0.00218031 0.00997651 0.00281058 0.0276767 0.00309663 0.0197465 0.00395347 0.0328377 0.00361105 0.0249837 0.00707824 0.0473832
14 3 O 2.21861 5.67327 55.8757 -1.2 1 0.0416643 0.0230832 0.00644505 0.0061807 0.000968245 0.00618745 0.00234951 0.0227802 0.00179916 0.00961102 0.0027791 0.0277305 0.00310655 0.019992 0.00384347 0.0333724 0.00344398 0.0251342 0.00682978 0.0468308
15 1 Mg -0.459401 4.67631 52.2426 1.2 1 0.122133 0.0415237 0.00137701 0.00777325 0.0021119 0.0070984 0.0026723 0.0218219 0.0035535 0.0126721 0.00297736 0.026612 0.00368646 0.0193439 0.00412681 0.0303365 0.00431132 0.0242178 0.00704229 0.0376547
16 1 Mg 2.79456 3.9971 49.9987 1.2 1 0.173583 0.0511285 0.00486798 0.0106293 0.00274672 0.00815476 0.0044507 0.0210266 0.00369623 0.0152479 0.00264565 0.024767 0.00436249 0.0204693 0.00616286 0.0288737 0.0045985 0.0248634 0.00890737 0.034221
17 2 Si 1.16169 6.59457 51.2556 2.4 1 0.144345 0.0455333 0.0017974 0.00937362 0.00265313 0.00880748 0.00405774 0.0223627 0.00434209 0.0139838 0.00404489 0.0254304 0.00433407 0.0211077 0.00645049 0.0313819 0.00455262 0.0260474 0.00858344 0.037294
18 3 O 1.28989 8.18905 51.2909 -1.2 1 0.1455 0.0448693 0.00201789 0.00938512 0.00266323 0.00980862 0.00404328 0.0229385 0.00448224 0.0139851 0.00375668 0.027028 0.00379018 0.0219195 0.00515129 0.0315566 0.00538932 0.0266181 0.00807259 0.0390549
19 3 O 0.902952 5.65638 58.0574 -1.2 1 0.0168784 0.0119847 0.00422792 0.00696478 0.00119435 0.00673098 0.00191774 0.0231939 0.00156592 0.00832579 0.00286261 0.0286495 0.00277685 0.0197201 0.00340311 0.0330073 0.00344071 0.0249367 0.00551159 0.0499283
20 3 O -0.184847 6.06029 50.6845 -1.2 1 0.160574 0.0465175 0.00422243 0.00992183 0.00332231 0.00840056 0.00407375 0.0222033 0.00474879 0.0144866 0.00307327 0.025155 0.00396039 0.0208278 0.00518807 0.0295861 0.00520065 0.0254354 0.00822492 0.0364081
21 1 Mg -3.49704 4.67769 52.6661 1.2 1 0.112149 0.0385932 0.0011066 0.00724729 0.00211601 0.00729085 0.00303742 0.0209392 0.00372165 0.0115462 0.00328001 0.0263621 0.00348265 0.0190335 0.00397715 0.030174 0.00442885 0.0236319 0.00724556 0.0389247
22 3 O 2.48581 5.93312 50.6539 -1.2 1 0.155075 0.0477633 0.00323167 0.00898642 0.00187985 0.00922388 0.00403593 0.0222051 0.00445328 0.014361 0.00383803 0.0249873 0.00409445 0.0210822 0.0062259 0.0305978 0.00440015 0.0257879 0.00835277 0.0360984
23 1 Mg -2.03371 4.62086 55.2413 1.2 1 0.0512671 0.0265656 0.00663964 0.00638837 0.0013452 0.0060934 0.0022475 0.0223952 0.00276112 0.00990126 0.00334339 0.027622 0.00275535 0.0198096 0.00422152 0.0328798 0.00402692 0.0248005 0.00724904 0.0452221
24 2 Si -1.93133 2.66766 53.3112 2.4 1 0.099663 0.0368821 0.00231021 0.00709243 0.00200912 0.00650239 0.00218857 0.0214698 0.00307224 0.0111855 0.00319548 0.0260682 0.00306295 0.0191502 0.00325998 0.0303892 0.00425548 0.0233385 0.0069402 0.0410142
25 3 O -1.97143 1.1119 53.1851 -1.2 1 0.0981877 0.036458 0.00252469 0.0073892 0.00217827 0.00613604 0.00217967 0.0214311 0.00303245 0.0104532 0.00302756 0.026654 0.00364549 0.0183676 0.00460241 0.0302229 0.00356739 0.0234469 0.0073587 0.0410346
26 3 O -0.0467762 2.97103 46.8385 -1.2 1 0.24984 0.0555124 0.0168856 0.015472 0.00315315 0.0100501 0.00392116 0.0200246 0.00660833 0.0170516 0.00607158 0.0239717 0.00707079 0.0191844 0.00801319 0.0257193 0.00704233 0.0241369 0.0100028 0.0319683
27 3 O -3.20731 3.30773 54.0626 -1.2 1 0.0800851 0.0324902 0.00376033 0.00614786 0.00174905 0.00606033 0.00202729 0.0215881 0.00322517 0.0105866 0.00261868 0.0263812 0.0028278 0.019226 0.00358657 0.0310083 0.00407558 0.0233865 0.00690952 0.0420174
28 3 O -0.60006 3.29193 53.9794 -1.2 1 0.081126 0.0335022 0.004079 0.00651316 0.00162639 0.00654772 0.00200887 0.0221545 0.00282164 0.0106952 0.00250572 0.0264714 0.00347173 0.0198664 0.0031318 0.0312684 0.00370228 0.0242566 0.00656761 0.0424192
29 1 Mg -3.32492 11.7812 57.3689 1.2 1 0.0223765 0.0145075 0.00450381 0.00623474 0.00133989 0.00665605 0.00155323 0.023276 0.00215699 0.00930192 0.00224202 0.0291967 0.00201227 0.0197969 0.00257044 0.0326887 0.00329173 0.0252869 0.00459348 0.0506669
30 1 Mg -1.75014 11.5838 49.8362 1.2 1 0.182802 0.0475762 0.00694179 0.012203 0.00431539 0.0131569 0.00478375 0.0247394 0.00552611 0.0165041 0.0051133 0.028336 0.00437685 0.0242152 0.00699386 0.0335422 0.00679431 0.0291208 0.0100096 0.0381489
31 2 Si -1.18003 9.02138 47.9309 2.4 1 0.237422 0.0524151 0.0149697 0.0153208 0.00504409 0.0135519 0.00756633 0.0230547 0.00823003 0.0176273 0.00727195 0.0262524 0.00479464 0.0231346 0.0069865 0.0307396 0.0091925 0.0286996 0.0126108 0.0344591
32 3 O -1.23224 10.5991 47.9811 -1.2 1 0.227775 0.0529165 0.0129604 0.0155153 0.00519656 0.0145493 0.00626265 0.0244213 0.00818302 0.0180007 0.00723477 0.0276032 0.00513758 0.0242187 0.0085296 0.033025 0.00940823 0.0305075 0.011736 0.0353317
33 3 O -1.79016 8.01447 51.8693 -1.2 1 0.132335 0.041318 0.00138421 0.00903029 0.00332532 0.00805383 0.0028595 0.0227755 0.00387082 0.0132663 0.00363012 0.0270545 0.00375321 0.0207965 0.00462116 0.0318982 0.00545311 0.0254533 0.00824827 0.0396088
34 3 O -2.30986 8.37215 48.8528 -1.2 1 0.203204 0.0528156 0.00869647 0.0124184 0.00413132 0.011113 0.00604941 0.0234216 0.00624154 0.0175839 0.00496257 0.0263388 0.00417514 0.0232408 0.00610935 0.0318642 0.00695008 0.0281722 0.00993816 0.034666
35 1 Mg 0.154883 7.08234 46.8007 1.2 1 0.256073 0.0539969 0.0180987 0.015961 0.00552554 0.0138201 0.00838035 0.0234832 0.00797819 0.0178057 0.00717905 0.024981 0.00705284 0.0218211 0.00826792 0.0294291 0.00996577 0.0286159 0.0132794 0.0317643
36 3 O 0.325447 8.50934 48.3809 -1.2 1 0.216474 0.0539148 0.0106824 0.0139807 0.00418063 0.0126605 0.00623179 0.0242672 0.00690108 0.0176193 0.00601382 0.0260784 0.00494689 0.0242099 0.00584996 0.0308115 0.00780221 0.0289271 0.0109588 0.0344967
37 1 Mg 1.15904 7.11942 54.5979 1.2 1 0.0679951 0.0297547 0.0047672 0.00638316 0.00156719 0.0064456 0.00259433 0.022395 0.00279799 0.0108159 0.00308253 0.0273928 0.0034305 0.0202478 0.00378883 0.0327852 0.00405017 0.0243104 0.00690676 0.0443612
38 2 Si 1.03079 9.70081 56.4598 2.4 1 0.0340305 0.0197375 0.00587105 0.00714849 0.00123795 0.00658786 0.00248515 0.022698 0.00186325 0.00895805 0.00362599 0.0278254 0.00254143 0.0203764 0.00442704 0.0331164 0.00373497 0.0246369 0.00699525 0.050394
39 3 O 0.926533 8.13887 56.4971 -1.2 1 0.0332042 0.0194885 0.00610196 0.00671564 0.00100124 0.00656557 0.00171539 0.022527 0.00283799 0.00864543 0.00217467 0.0281453 0.00333099 0.0191285 0.00250321 0.0327173 0.00443186 0.0244209 0.00578954 0.0496475
40 3 O 1.28624 10.7248 52.7351 -1.2 1 0.111155 0.0372717 0.00191377 0.00768908 0.00233313 0.0100802 0.00311437 0.0236277 0.00320883 0.012653 0.00360243 0.0276086 0.004275 0.0220421 0.0045551 0.0328432 0.00387258 0.0268912 0.00747559 0.0427166
41 3 O -0.274188 10.4864 55.835 -1.2 1 0.047272 0.0238539 0.00530606 0.00640586 0.00101992 0.00691735 0.00203921 0.0238543 0.00169831 0.010203 0.00283148 0.0276108 0.00272255 0.0208742 0.00384548 0.0336652 0.00324693 0.0259512 0.00633133 0.0492314
42 3 O 2.32984 10.3591 55.7607 -1.2 1 0.0436759 0.0233308 0.00586488 0.00654588 0.00112236 0.00655909 0.00227204 0.0229594 0.00204225 0.00958886 0.00265785 0.0279033 0.00270635 0.0205084 0.00338074 0.0337429 0.00298872 0.0256917 0.00636539 0.0489624
43 1 Mg -0.262694 9.34741 52.2523 1.2 1 0.113895 0.040035 0.00269854 0.00827927 0.00284332 0.00846345 0.00276306 0.0234906 0.00322699 0.0127065 0.00344574 0.0275866 0.00364421 0.0215812 0.00517913 0.0328548 0.00434454 0.0267533 0.00810896 0.041222
44 1 Mg 1.87648 9.01537 49.4629 1.2 1 0.182939 0.0523291 0.00515389 0.0111827 0.00299246 0.0112878 0.00603638 0.0233565 0.00551086 0.0166668 0.00487258 0.0267081 0.00438684 0.0237852 0.00642286 0.0322859 0.00541166 0.0284966 0.010103 0.0364293
45 2 Si 1.21415 11.3799 51.2378 2.4 1 0.147154 0.0458845 0.00206214 0.0100539 0.0031827 0.0116077 0.00385579 0.0243489 0.00442476 0.0150657 0.00476284 0.0269825 0.00421645 0.0245734 0.00621634 0.0334193 0.0043655 0.029016 0.00933641 0.0410483
46 3 O 1.31634 12.9512 51.3023 -1.2 1 0.147854 0.0439071 0.00295806 0.00972049 0.00253861 0.0122253 0.00332775 0.0246315 0.00472737 0.0151042 0.00337349 0.0283034 0.00439235 0.0249034 0.00454618 0.0340985 0.00525711 0.0291822 0.00851309 0.0421859
47 3 O 1.13999 10.4092 57.9049 -1.2 1 0.0169104 0.0123929 0.00376036 0.00650031 0.00141272 0.00713201 0.0016765 0.0235651 0.00184616 0.00819171 0.00298962 0.028612 0.00263185 0.0195262 0.00354328 0.0323504 0.00352274 0.0250755 0.00506621 0.0513685
48 3 O -0.115718 10.7564 50.681 -1.2 1 0.157844 0.0464592 0.00339728 0.0108824 0.00373698 0.0112799 0.0040432 0.0242062 0.00453246 0.0150376 0.0037883 0.0273392 0.00422889 0.0240425 0.00573629 0.0326176 0.0051159 0.0282959 0.00937376 0.0396047
49 1 Mg -3.26386 9.35564 52.3622 1.2 1 0.122154 0.0393552 0.00131497 0.00787568 0.00218789 0.0098415 0.00360364 0.0230356 0.00374272 0.0129353 0.00396989 0.0272369 0.00349154 0.0214283 0.00489071 0.0329527 0.00416773 0.0262668 0.00799398 0.0400442
50 3 O 2.45216 10.7265 50.4558 -1.2 1 0.161837 0.0479045 0.00350863 0.00987117 0.0026206 0.012091 0.00456573 0.0238821 0.00491495 0.0162044 0.00433522 0.0269585 0.00382097 0.0243603 0.00639762 0.0333388 0.00537587 0.0287344 0.00933356 0.0390109
51 1 Mg -1.80655 9.46014 55.1042 1.2 1 0.0553466 0.0272852 0.00575288 0.00657347 0.0017186 0.00667197 0.00228105 0.0229232 0.00264659 0.00971268 0.00289353 0.0279303 0.00281171 0.0207558 0.00315011 0.0333219 0.00453142 0.0254797 0.00682331 0.0474721
52 2 Si -1.83979 7.288 53.3653 2.4 1 0.0943953 0.0359906 0.00363354 0.00761003 0.00287457 0.00708441 0.00259557 0.0224934 0.0037883 0.0120408 0.00317062 0.0267759 0.00317641 0.0209635 0.00350499 0.0322299 0.00496656 0.0245063 0.00658852 0.0424283
53 3 O -1.93759 5.7908 53.2852 -1.2 1 0.0970042 0.035194 0.00278052 0.00701876 0.00181099 0.00723652 0.00234468 0.0215652 0.00371765 0.0109924 0.00324937 0.0262806 0.00319141 0.0195046 0.00463189 0.0321414 0.0038332 0.0243577 0.00724866 0.0413517
54 3 O -1.19417 8.46968 46.4488 -1.2 1 0.269096 0.053438 0.0203895 0.0176309 0.00552239 0.0149007 0.00887187 0.0246874 0.00824775 0.0179473 0.00763911 0.0255897 0.00621821 0.0216215 0.00937539 0.0306218 0.0106598 0.0301049 0.0127842 0.0317228
55 3 O -3.06508 8.03741 54.0233 -1.2 1 0.083471 0.0313878 0.00325818 0.00650194 0.00226112 0.00761637 0.00231205 0.022527 0.00287098 0.0113554 0.00253359 0.0266786 0.0030867 0.0205718 0.0033984 0.0327821 0.00494679 0.0245582 0.00727043 0.0436696
56 3 O -0.576727 7.98869 54.0002 -1.2 1 0.0796999 0.0327853 0.00464127 0.00665311 0.00227713 0.00601688 0.00188774 0.0226504 0.00273722 0.0111877 0.00240952 0.0270468 0.00306894 0.0203424 0.00363175 0.0328997 0.00433178 0.025479 0.00685628 0.044269
57 1 Mg -3.21429 16.644 57.4393 1.2 1 0.0205133 0.0142103 0.00399187 0.00610188 0.00154734 0.00669049 0.00155466 0.0230774 0.00176761 0.00935915 0.00176948 0.0288205 0.00196864 0.0198384 0.00240044 0.0328651 0.00329936 0.0257916 0.00438372 0.0508963
58 1 Mg -1.6714 16.3544 49.8412 1.2 1 0.181148 0.047595 0.00655979 0.0126006 0.00349942 0.0153694 0.00355741 0.0265769 0.00486552 0.0179562 0.00461722 0.03098 0.00372244 0.0264478 0.00664454 0.0353573 0.00578933 0.0313532 0.00985424 0.0410949
59 2 Si -1.18567 13.8526 47.9314 2.4 1 0.235386 0.0535778 0.0148415 0.0167375 0.00496127 0.0185487 0.00541642 0.0278319 0.00882968 0.0202522 0.00638312 0.0306066 0.00569964 0.0288239 0.0069754 0.0350102 0.00996901 0.032891 0.011905 0.0381047
60 3 O -1.09664 15.4205 47.9915 -1.2 1 0.23239 0.0520548 0.0140852 0.0169771 0.00542396 0.0195739 0.00476495 0.0279309 0.00834853 0.0202126 0.00667078 0.030962 0.0058192 0.0281415 0.00829665 0.0359809 0.00939984 0.0337772 0.0113428 0.0390841
61 3 O -1.73493 12.7491 51.7772 -1.2 1 0.135407 0.0410799 0.00245193 0.00976685 0.00336149 0.0105771 0.00168269 0.024623 0.00381235 0.0143718 0.00301014 0.028641 0.00423523 0.0237982 0.00484865 0.0336631 0.00504395 0.0279148 0.0084254 0.0429011
62 3 O -2.36115 13.2717 48.8238 -1.2 1 0.207508 0.053008 0.0097751 0.0138692 0.00492288 0.0148422 0.00503332 0.0269859 0.00678719 0.019835 0.005334 0.0298765 0.00446352 0.0273194 0.00613794 0.0352305 0.00794219 0.031847 0.0105952 0.0382466
63 1 Mg -0.159928 11.7639 46.8533 1.2 1 0.259265 0.0535265 0.0187855 0.0183586 0.00604903 0.0202146 0.00752932 0.0282555 0.00982521 0.0200822 0.00815866 0.029988 0.00660672 0.0273646 0.00849436 0.0339163 0.0111503 0.0335307 0.0143177 0.0358154
64 3 O 0.2623 13.1866 48.413 -1.2 1 0.21347 0.0523682 0.0108176 0.0148141 0.00457827 0.0163462 0.00466968 0.026691 0.00743061 0.019038 0.00536781 0.0291469 0.00497387 0.0283636 0.00579748 0.034391 0.00840166 0.0326194 0.0110378 0.0389403
65 1 Mg 1.34597 11.84 54.53 1.2 1 0.0761763 0.031313 0.00327907 0.00629347 0.00190677 0.00809746 0.00265552 0.0233734 0.0025341 0.0114752 0.00260006 0.028065 0.00354968 0.0223849 0.00310798 0.0337523 0.0037107 0.0259314 0.0060755 0.0456736
66 2 Si 1.27969 14.5056 56.4587 2.4 1 0.0318252 0.0185424 0.00511755 0.00673045 0.00124149 0.00669927 0.00202544 0.0225643 0.00205644 0.00912592 0.00336469 0.0279772 0.00257874 0.0205762 0.00435653 0.0332924 0.00389947 0.025386 0.00601934 0.0517963
67 3 O 1.31127 12.9175 56.4926 -1.2 1 0.0302083 0.0179646 0.00550548 0.00676344 0.00124293 0.0066744 0.00202328 0.0233549 0.00331363 0.00851749 0.0021376 0.0284034 0.00269948 0.0200731 0.00274635 0.0334855 0.00432263 0.0258892 0.00577305 0.0515169
68 3 O 1.36565 15.4813 52.729 -1.2 1 0.112404 0.0368419 0.00143855 0.0079812 0.00204242 0.0114733 0.00321232 0.0248316 0.00278407 0.0139562 0.00373117 0.0290892 0.00380163 0.0235177 0.00474363 0.03366 0.00353146 0.0285944 0.00749686 0.0453166
69 3 O -0.0398257 15.1013 55.777 -1.2 1 0.0473479 0.023799 0.00500245 0.00661416 0.00114644 0.00720145 0.00205934 0.0233387 0.00156187 0.0099347 0.0023551 0.0278616 0.00225092 0.0208498 0.00309735 0.0341105 0.00336226 0.0268595 0.005775 0.0508532
70 3 O 2.49556 15.1614 55.8341 -1.2 1 0.0418185 0.022158 0.00546741 0.00644772 0.000973922 0.00661935 0.00261751 0.023398 0.00205161 0.00986264 0.00237137 0.0279106 0.00222796 0.0211017 0.00347819 0.0341114 0.0029555 0.0264984 0.00603695 0.0502251
71 1 Mg -0.206989 14.1049 52.2121 1.2 1 0.118276 0.040798 0.00171063 0.00865734 0.00272045 0.00989178 0.00218254 0.0250931 0.00326354 0.0141383 0.00329299 0.0292893 0.00357669 0.0241055 0.0044836 0.0338819 0.00351424 0.0285194 0.00739587 0.0434712
72 1 Mg 1.82591 13.8102 49.4556 1.2 1 0.185524 0.0519968 0.00556221 0.0119636 0.003235 0.0141364 0.0046143 0.0253564 0.00549695 0.0183666 0.00496198 0.0291177 0.00462328 0.0272092 0.00628177 0.0354537 0.00624587 0.0313039 0.0104058 0.0393831
73 2 Si 1.29285 16.1518 51.2434 2.4 1 0.148659 0.0457842 0.00176528 0.0105842 0.0026879 0.0129764 0.00359332 0.0258335 0.00411043 0.0164168 0.00500467 0.0284935 0.00387142 0.0260385 0.00607911 0.034606 0.00398632 0.0313355 0.009632 0.0435757
74 3 O 1.39496 17.7199 51.3047 -1.2 1 0.143587 0.0426224 0.00209072 0.00990516 0.0019364 0.0126821 0.00308543 0.0250706 0.00402661 0.0152537 0.00322411 0.0292544 0.00348307 0.0246147 0.00468821 0.0349434 0.00498738 0.0305148 0.00846207 0.0439822
75 3 O 1.25784 15.1845 58.0035 -1.2 1 0.0152125 0.0118245 0.00354692 0.00635813 0.00169043 0.00684591 0.00167173 0.02356 0.00173067 0.00833328 0.00261857 0.0280533 0.00252264 0.0199569 0.00289492 0.0328269 0.00329818 0.0257602 0.00478417 0.0516679
76 3 O -0.0269106 15.5178 50.6688 -1.2 1 0.158175 0.0457153 0.0040453 0.0112183 0.0035422 0.0132918 0.00370575 0.0258927 0.00421317 0.0161198 0.00312118 0.0293102 0.00392279 0.0261375 0.00578849 0.0343557 0.00421764 0.0305159 0.00889564 0.0426683
77 1 Mg -3.18391 14.1057 52.3125 1.2 1 0.124833 0.0403199 0.00168128 0.00841468 0.00207786 0.0113953 0.00264293 0.0245193 0.00320901 0.0145914 0.00309608 0.0290727 0.00363108 0.0242299 0.00445524 0.0337683 0.0035299 0.0281064 0.00749702 0.0430379
78 3 O 2.52432 15.503 50.4579 -1.2 1 0.162591 0.0478023 0.00397125 0.0105251 0.00239845 0.0138157 0.00376935 0.0259673 0.0043443 0.0180546 0.00374417 0.0292502 0.00406391 0.0269765 0.00590982 0.0347985 0.00497246 0.0307532 0.00894719 0.0419993
79 1 Mg -1.69357 14.0996 55.0946 1.2 1 0.0559717 0.0272319 0.00517714 0.00680815 0.00145796 0.00694815 0.00214636 0.0236784 0.00271237 0.0107161 0.00336849 0.0283287 0.00217587 0.0218492 0.00366618 0.0338998 0.0040559 0.026812 0.00644609 0.0491978
80 2 Si -1.73962 12.1132 53.2838 2.4 1 0.0981192 0.0363447 0.00319168 0.00789325 0.00263358 0.00847209 0.00159631 0.0239238 0.00342045 0.0125649 0.0026709 0.0276419 0.00354826 0.0231736 0.00324105 0.0337786 0.00436961 0.0269878 0.00722168 0.0452751
81 3 O -1.77992 10.558 53.2487 -1.2 1 0.0958739 0.0345943 0.00321989 0.00729652 0.00273741 0.00834529 0.00200801 0.0228485 0.00352968 0.0113155 0.00311168 0.0272336 0.00311837 0.0215426 0.0038963 0.0334444 0.00408418 0.0257337 0.0077946 0.0446428
82 3 O -1.21337 13.3381 46.4311 -1.2 1 0.271016 0.0527759 0.0210368 0.0198825 0.00667869 0.0210374 0.00756064 0.0302442 0.00993009 0.0211101 0.00733097 0.0312132 0.00603403 0.0271188 0.00898493 0.0360946 0.0128189 0.0354589 0.0140801 0.03609
83 3 O -2.94067 12.7913 53.9778 -1.2 1 0.0846186 0.0326565 0.00272784 0.00650686 0.00191606 0.0089239 0.00179079 0.0238147 0.00256837 0.0121251 0.00237859 0.0278469 0.00319066 0.0227125 0.00315155 0.0340044 0.00350391 0.0267191 0.00652277 0.0462044
84 3 O -0.386429 12.7986 53.8989 -1.2 1 0.0807233 0.0322646 0.00322135 0.00661013 0.00261251 0.00696496 0.00151607 0.0242787 0.00252476 0.0117694 0.00216738 0.027889 0.00296431 0.0227764 0.00303812 0.0342019 0.00375857 0.0269761 0.00637189 0.0465682
85 1 Mg -3.09496 21.2267 57.3219 1.2 1 0.0194115 0.0147216 0.00449813 0.00588702 0.000995173 0.00664995 0.00128367 0.0232501 0.00173853 0.00956396 0.00148899 0.0286622 0.0015236 0.0201611 0.00248253 0.0333144 0.00284792 0.0265708 0.0038623 0.0511716
86 1 Mg -1.5831 21.1217 49.8405 1.2 1 0.182024 0.0486019 0.0068193 0.0126814 0.00323073 0.0156705 0.00309546 0.0269503 0.0045641 0.0178324 0.00472787 0.0309811 0.00387632 0.0262581 0.00644485 0.0357821 0.00588201 0.032132 0.0094507 0.0415954
87 2 Si -1.09384 18.6291 47.9287 2.4 1 0.232606 0.0537953 0.0138577 0.0173219 0.00411441 0.020414 0.00461517 0.028986 0.00816144 0.0204828 0.00576109 0.0319865 0.00602238 0.0293628 0.00653762 0.0364215 0.00966866 0.0344851 0.0110358 0.0406454
88 3 O -1.02071 20.1985 47.9911 -1.2 1 0.229856 0.0524341 0.0137333 0.0172229 0.00421814 0.0205722 0.00448331 0.028508 0.00734014 0.0202847 0.00610411 0.0314616 0.00575312 0.0280146 0.00829321 0.0369949 0.00858969 0.0346793 0.0110569 0.040604
89 3 O -1.65002 17.5002 51.771 -1.2 1 0.135616 0.0410966 0.00243094 0.00980912 0.00291879 0.0118909 0.00176745 0.0253753 0.00304353 0.0148566 0.00272262 0.0292952 0.0040325 0.024243 0.00449375 0.0342748 0.0049062 0.0292766 0.00825546 0.0442028
90 3 O -2.26174 18.0434 48.8281 -1.2 1 0.208034 0.0532638 0.00918723 0.0148106 0.00391332 0.017238 0.00426602 0.0283352 0.00633128 0.0203567 0.00447459 0.0311804 0.00452393 0.0281342 0.0061255 0.0365483 0.00751997 0.0337419 0.00991906 0.0404765
91 1 Mg -0.0440435 16.5651 46.8269 1.2 1 0.259494 0.0540369 0.0179722 0.0199619 0.00559184 0.0242734 0.00592422 0.0316365 0.010011 0.022271 0.00711747 0.0333406 0.00712213 0.0297833 0.00899043 0.0361982 0.0106515 0.0367348 0.0128566 0.0397956
92 3 O 0.37001 17.9877 48.3925 -1.2 1 0.215782 0.0531003 0.0103313 0.0158687 0.00392848 0.0183115 0.00378535 0.0289362 0.00680708 0.020132 0.00433796 0.0310509 0.00515021 0.0292609 0.00602381 0.0358387 0.00823236 0.0351703 0.0104625 0.0413517
93 1 Mg 1.26005 16.6308 54.5807 1.2 1 0.0713633 0.0302657 0.00380629 0.00645589 0.00131259 0.00812536 0.00276598 0.0233127 0.00183585 0.0117832 0.00213404 0.0286385 0.00315292 0.0225585 0.00405103 0.034312 0.00358671 0.0268294 0.00632987 0.0479396
94 2 Si 1.33757 19.2469 56.3715 2.4 1 0.0315854 0.0195372 0.00545041 0.00664801 0.00125928 0.0067622 0.00177778 0.0227497 0.0020542 0.00943176 0.00293939 0.0272295 0.00217886 0.0207875 0.00425651 0.0332046 0.00382524 0.0263511 0.00582693 0.0524746
95 3 O 1.20505 17.6514 56.5896 -1.2 1 0.0275203 0.0176299 0.00525438 0.00633449 0.00120019 0.00658757 0.00184611 0.022962 0.00249201 0.00886519 0.00184625 0.0279345 0.00246506 0.0197072 0.00292635 0.0332937 0.00394757 0.0263161 0.00526395 0.051285
96 3 O 1.45147 20.239 52.7294 -1.2 1 0.110046 0.0371034 0.00131506 0.00768488 0.0015584 0.0115309 0.00291268 0.0248328 0.00266007 0.0137375 0.00328548 0.0288722 0.00377462 0.0233973 0.00405917 0.0339496 0.00389464 0.0291974 0.00699941 0.0458717
97 3 O 0.036908 19.9315 55.8161 -1.2 1 0.0449647 0.0241807 0.00476628 0.0063761 0.00106969 0.00681293 0.00215933 0.023631 0.00165069 0.0105595 0.00241435 0.027451 0.00254042 0.0210991 0.0041459 0.0339839 0.00308405 0.0273484 0.00580343 0.0510187
98 3 O 2.56476 19.9195 55.5532 -1.2 1 0.0484643 0.0253128 0.00508324 0.00623737 0.00117545 0.0069434 0.00243966 0.0229681 0.00212559 0.0103966 0.0022193 0.0272806 0.00268802 0.0215993 0.0039355 0.034052 0.00301225 0.0271242 0.00602801 0.0506411
99 1 Mg -0.126194 18.8651 52.2079 1.2 1 0.116622 0.0409577 0.00190853 0.00878356 0.0024642 0.0103517 0.00206307 0.0251683 0.00281604 0.0144744 0.00297713 0.0292956 0.00348677 0.024083 0.00415661 0.034307 0.00370772 0.0296954 0.00767298 0.0446677
100 1 Mg 1.92402 18.5815 49.4545 1.2 1 0.183779 0.0522902 0.00491896 0.0121956 0.00204097 0.015127 0.00396945 0.0269419 0.00478347 0.0191931 0.00414108 0.0304899 0.00444165 0.0273989 0.00536301 0.036408 0.00603087 0.0330623 0.00972497 0.0418483
101 2 Si 1.38106 20.9117 51.2443 2.4 1 0.142739 0.0452213 0.00176 0.0101109 0.00229403 0.0129569 0.00355197 0.0256474 0.00389476 0.0159925 0.00407714 0.0288444 0.0039548 0.0253571 0.00443005 0.0345729 0.00391217 0.0312221 0.00846128 0.0445275
102 3 O 1.48527 22.4795 51.3054 -1.2 1 0.14319 0.0434132 0.00261054 0.00950938 0.00187754 0.0126969 0.00319127 0.0252421 0.00368093 0.0153885 0.00304707 0.0294759 0.00390429 0.0249207 0.00403896 0.0347568 0.00501239 0.0306841 0.00777036 0.0441899
103 3 O 1.59509 19.8816 57.9116 -1.2 1 0.0143367 0.0121613 0.00370021 0.00611154 0.00138228 0.00649031 0.00154005 0.0235116 0.00167395 0.00878624 0.00272347 0.0279366 0.00258622 0.0202158 0.00348381 0.033061 0.0030835 0.0263938 0.00476654 0.052127
104 3 O 0.0615419 20.2804 50.6669 -1.2 1 0.1575 0.0463036 0.0035259 0.0113361 0.00349707 0.0136878 0.00371618 0.0258387 0.00370923 0.0159598 0.00296131 0.0294441 0.0038922 0.0261488 0.00547761 0.0348072 0.00379276 0.0313342 0.00875478 0.0434279
105 1 Mg -3.09665 18.8643 52.3122 1.2 1 0.12389 0.0402928 0.0013064 0.00860118 0.00164565 0.0119303 0.00246238 0.024777 0.00260034 0.0150773 0.00278511 0.0291531 0.00331008 0.0245489 0.00396962 0.0342707 0.0040122 0.0294706 0.00751854 0.0440771
106 3 O 2.61548 20.2646 50.4626 -1.2 1 0.156977 0.0473478 0.00326342 0.0103299 0.00171534 0.0138232 0.00366154 0.0262062 0.00358183 0.0173675 0.00344188 0.0291653 0.00351769 0.0260057 0.00546619 0.0353616 0.00434561 0.0314403 0.00837145 0.042854
107 1 Mg -1.66084 18.9369 55.0128 1.2 1 0.0568469 0.0278943 0.00473309 0.00668592 0.00157852 0.00704898 0.00224546 0.0234893 0.00215374 0.011266 0.00304529 0.027868 0.00212873 0.0220789 0.00397816 0.0340189 0.00403041 0.0274665 0.00637267 0.0493221
108 2 Si -1.65945 16.7625 53.2467 2.4 1 0.0969705 0.035795 0.00263976 0.00811586 0.00230808 0.00864298 0.00148849 0.0242266 0.0027541 0.013085 0.00205244 0.0279531 0.00301925 0.0235767 0.00338017 0.0340731 0.00415033 0.028163 0.00686483 0.0471132
109 3 O -1.75724 15.2536 53.2034 -1.2 1 0.0978255 0.0350848 0.00270358 0.0077355 0.00246605 0.00895443 0.00155536 0.0240933 0.00303615 0.0124951 0.0025403 0.0285806 0.00288871 0.0228639 0.00432534 0.034061 0.00350143 0.0275604 0.00774009 0.0466568
110 3 O -1.12868 18.1227 46.4249 -1.2 1 0.268756 0.0542567 0.019882 0.0210493 0.00563094 0.0240685 0.00615144 0.0324229 0.00894917 0.0220708 0.00600752 0.0337215 0.00699837 0.0278869 0.00880226 0.0378312 0.0120304 0.0374929 0.0129927 0.0398865
111 3 O -2.85364 17.4624 53.9956 -1.2 1 0.0823395 0.031903 0.00268103 0.00647047 0.0015088 0.00909603 0.00188658 0.0239825 0.00205513 0.0122631 0.00195215 0.0277112 0.00262476 0.0229281 0.00303551 0.0341297 0.00360383 0.0278075 0.00634608 0.0477018
112 3 O -0.319304 17.5278 53.7665 -1.2 1 0.0846171 0.033123 0.0030068 0.00674518 0.0029075 0.00779715 0.0013047 0.024272 0.00238252 0.0121231 0.00200171 0.0277826 0.00305 0.0237065 0.00344499 0.0341439 0.00362742 0.0279149 0.00650757 0.0474406
113 1 Mg -2.96922 26.1091 57.3096 1.2 1 0.0193435 0.0145902 0.00441027 0.00607526 0.000911471 0.00616611 0.0011897 0.0231703 0.00187948 0.0094406 0.0013682 0.0295394 0.00155315 0.0202784 0.00206572 0.0335568 0.00259082 0.0258368 0.00325294 0.0511681
114 1 Mg -1.48778 25.88 49.8402 1.2 1 0.178162 0.0477014 0.00664219 0.0126869 0.00320004 0.0155247 0.00327836 0.0270423 0.00408768 0.0173518 0.00461008 0.031328 0.00398046 0.0257789 0.00628798 0.0355896 0.00567606 0.0313357 0.00933995 0.0418378
115 2 Si -1.00491 23.3922 47.9274 2.4 1 0.232277 0.0532008 0.0140835 0.0176663 0.00408612 0.0209245 0.0041559 0.0284732 0.00736397 0.0201522 0.00559665 0.0319564 0.00578509 0.0284053 0.00670669 0.0365087 0.00929964 0.0346207 0.0112989 0.0408761
116 3 O -0.927602 24.9615 47.9909 -1.2 1 0.231613 0.05272 0.0139888 0.0178141 0.00409122 0.0208308 0.00401345 0.0283435 0.00703622 0.0200417 0.00627514 0.0318998 0.0060468 0.0277521 0.00814315 0.0367861 0.00896489 0.034654 0.0111884 0.0409011
117 3 O -1.55795 22.2588 51.7696 -1.2 1 0.134285 0.0414803 0.00210856 0.00981101 0.00285866 0.0119996 0.00169777 0.0251447 0.00267952 0.0145531 0.00269256 0.0294208 0.00393568 0.0239562 0.00435043 0.0344751 0.0051038 0.0295705 0.00777287 0.0443736
118 3 O -2.17411 22.8111 48.8277 -1.2 1 0.202908 0.0527229 0.00918395 0.0145616 0.00350743 0.0173474 0.00372603 0.0282973 0.00522036 0.0198168 0.00439218 0.0313793 0.00445055 0.0273694 0.00608593 0.0363929 0.00687291 0.0336309 0.00969473 0.0410178
119 1 Mg 0.0423997 21.3296 46.8225 1.2 1 0.257255 0.0541085 0.0180546 0.0200653 0.00497044 0.0249283 0.00592877 0.0317113 0.00867741 0.0221713 0.00670007 0.0333852 0.00688915 0.0292439 0.00902623 0.0367099 0.00990997 0.0370907 0.0126219 0.0403716
120 3 O 0.458537 22.7495 48.3911 -1.2 1 0.212602 0.0530183 0.0103934 0.0158043 0.00366165 0.0182692 0.00336546 0.0283059 0.00584095 0.0196672 0.00402138 0.0310587 0.00516088 0.02852 0.00607397 0.0360549 0.00739794 0.0350639 0.0103859 0.0418546