ITEM: TIMESTEP
32900
ITEM: NUMBER OF ATOMS
10500
ITEM: BOX BOUNDS xy xz yz pp pp pp
0	8.9688	2.9896
0	118.725	0
0	252.977	0
ITEM: ATOMS id type element xu yu zu q Q_1 Q_2 Q_3 Q_4 Q_5 Q_6 Q_7 Q_8 Q_9 Q_10 Q_11 Q_12 Q_13 Q_14 Q_15 Q_16 Q_17 Q_18 Q_19 Q_20 Q_21
1 1 Mg -3.44512 6.92384 57.6076 1.2 1 0.0204148 0.0139473 0.00500194 0.00532004 0.00174459 0.00636906 0.000990317 0.0225248 0.00181684 0.00933297 0.00169732 0.0283089 0.0029218 0.0196218 0.00227867 0.0323245 0.00310524 0.0256286 0.00465595 0.0492801
2 1 Mg -1.82655 6.90154 50.0912 1.2 1 0.177375 0.0474329 0.00641083 0.00993996 0.00341277 0.00883983 0.00420945 0.0226734 0.00446213 0.0146814 0.00515835 0.0255207 0.00487881 0.0206198 0.00681878 0.0294946 0.00563592 0.0253895 0.00955667 0.035157
3 2 Si -0.257935 3.96038 48.0876 2.4 1 0.22603 0.0536274 0.0125363 0.012112 0.00282008 0.00955206 0.00363614 0.0203427 0.00542723 0.0169496 0.00470205 0.0242346 0.00536779 0.0198967 0.00583006 0.0267051 0.00670735 0.0243821 0.0091647 0.0320699
4 3 O -0.335812 5.46814 47.6264 -1.2 1 0.233793 0.0529348 0.0141745 0.013315 0.00330712 0.0107418 0.004664 0.0210642 0.00605426 0.0176591 0.00529704 0.0249317 0.00509182 0.0205286 0.0056682 0.0271035 0.00736792 0.025127 0.0100081 0.031107
5 3 O -2.03793 3.43377 51.8941 -1.2 1 0.130161 0.0413245 0.00284728 0.0063024 0.00209955 0.00685454 0.00280908 0.0206006 0.0023516 0.0113963 0.00349884 0.0251012 0.00392681 0.017498 0.00429945 0.0290233 0.00528802 0.0236435 0.00824395 0.0374223
6 3 O -1.54015 3.53929 48.9521 -1.2 1 0.203607 0.0520443 0.00982471 0.0105238 0.00263587 0.00853925 0.00363677 0.020284 0.00483769 0.0154118 0.00522943 0.0236323 0.00444007 0.0191491 0.00557983 0.0272198 0.00567981 0.0237651 0.00891151 0.0322375
7 1 Mg 1.82954 2.54582 47.1376 1.2 1 0.247802 0.0533349 0.0170891 0.0151553 0.00326561 0.0111267 0.00364303 0.0200191 0.00564126 0.0161102 0.00504442 0.0238879 0.00621838 0.0191392 0.00744134 0.0250704 0.0061915 0.0228404 0.00895171 0.0301893
8 3 O 1.22989 3.66364 48.7877 -1.2 1 0.205368 0.0507456 0.010274 0.0114782 0.00263742 0.00919663 0.00402223 0.0201659 0.00385512 0.0150856 0.00408881 0.0236061 0.00467817 0.0190089 0.00639287 0.0269423 0.00458993 0.0236689 0.00922498 0.0332899
9 1 Mg 1.03509 2.31349 54.5573 1.2 1 0.0703503 0.0299452 0.00462145 0.00438939 0.00152222 0.00512969 0.00228336 0.0215057 0.00257984 0.00993259 0.00309923 0.0263632 0.00337099 0.018569 0.00378684 0.0318077 0.00374844 0.0244676 0.00667715 0.0425221
10 2 Si 0.934657 4.94165 56.4506 2.4 1 0.0342509 0.0200512 0.00646039 0.00557975 0.00125367 0.00645137 0.00235703 0.0222357 0.00151581 0.00853081 0.00377249 0.0266482 0.00273562 0.0193303 0.00373048 0.0321047 0.00306183 0.0252109 0.00600132 0.0479745
11 3 O 0.810646 3.4478 56.4934 -1.2 1 0.0349596 0.019614 0.00587981 0.00493966 0.00153263 0.00544228 0.00172849 0.0219858 0.0025574 0.00859419 0.00219972 0.026978 0.00300908 0.018181 0.00227891 0.031945 0.0039662 0.025368 0.00521997 0.0464402
12 3 O 1.10813 6.07342 52.8172 -1.2 1 0.106562 0.0357951 0.00278673 0.00624639 0.00229798 0.00707375 0.0031319 0.0222312 0.00278567 0.01133 0.00334183 0.0260434 0.00427966 0.0187824 0.00467323 0.0305473 0.00427284 0.0250661 0.0074842 0.0403915
13 3 O -0.240524 5.69607 55.765 -1.2 1 0.046359 0.0237606 0.00600587 0.00510465 0.00145989 0.00550569 0.00205974 0.0220905 0.00182854 0.00944076 0.0026341 0.0267734 0.00293334 0.0187615 0.00361834 0.03206 0.00315586 0.0254627 0.00607739 0.04678
14 3 O 2.33006 5.52768 55.8637 -1.2 1 0.0417226 0.0225693 0.00646882 0.00481252 0.00097 0.00603998 0.00203164 0.0222557 0.0013633 0.00889819 0.00275292 0.0268301 0.00279205 0.0189287 0.00357478 0.033022 0.00296135 0.026091 0.00632898 0.0468379
15 1 Mg -0.459401 4.67631 52.2426 1.2 1 0.125205 0.0408852 0.00282644 0.00617103 0.0025822 0.00666164 0.00257152 0.0216108 0.00303935 0.0121265 0.00318821 0.0260928 0.00420486 0.0186829 0.00482373 0.029601 0.00435178 0.0239053 0.00751932 0.037405
16 1 Mg 2.79456 3.9971 49.9987 1.2 1 0.175502 0.0498931 0.00615535 0.00926285 0.00282299 0.00765986 0.00421536 0.0208859 0.00349575 0.0147354 0.00315904 0.0245576 0.0043413 0.0194517 0.00581477 0.028195 0.00473569 0.0241264 0.00944004 0.0337644
17 2 Si 1.16169 6.59457 51.2556 2.4 1 0.14842 0.0452456 0.0030849 0.00841127 0.00283594 0.00805755 0.00413217 0.0219814 0.00364711 0.0136891 0.00479534 0.0251998 0.00468622 0.0205441 0.00679691 0.0305798 0.00454713 0.0255151 0.00973768 0.037459
18 3 O 1.28989 8.18905 51.2909 -1.2 1 0.145442 0.0435492 0.00307112 0.00874198 0.00270614 0.00914366 0.00391357 0.0228139 0.00369065 0.0134909 0.00434546 0.0267357 0.00392328 0.0209051 0.00493436 0.030733 0.0055179 0.026487 0.00868161 0.039117
19 3 O 0.994071 5.61373 57.9709 -1.2 1 0.01608 0.011746 0.00400933 0.0053687 0.00120889 0.00657925 0.00112787 0.0223662 0.00140288 0.00806775 0.00252128 0.0274014 0.00232315 0.0194504 0.0026976 0.0327018 0.00229702 0.0258628 0.00411311 0.0497867
20 3 O -0.184847 6.06029 50.6845 -1.2 1 0.161558 0.0448589 0.0054298 0.00873295 0.00345718 0.00775529 0.00413001 0.0218958 0.00376702 0.0138106 0.00362337 0.0249428 0.00423177 0.0197516 0.00619438 0.0287938 0.00483632 0.0247119 0.00937051 0.0368413
21 1 Mg -3.49704 4.67769 52.6661 1.2 1 0.115688 0.038284 0.00221674 0.00562305 0.00220491 0.0067374 0.00296791 0.0209107 0.00310377 0.0113009 0.00385665 0.0257308 0.00402599 0.0184237 0.00439177 0.0295615 0.00410001 0.0236532 0.00818253 0.0389248
22 3 O 2.48581 5.93312 50.6539 -1.2 1 0.159487 0.0470256 0.00428352 0.00802198 0.00177195 0.00849637 0.00409582 0.0220057 0.00381826 0.0141943 0.00422737 0.024694 0.00459158 0.0202231 0.0059421 0.0299128 0.00437906 0.0253435 0.00926438 0.0358566
23 1 Mg -1.97536 4.62115 55.1377 1.2 1 0.0527894 0.0263189 0.00618907 0.00486579 0.00161871 0.00590288 0.00181383 0.0217969 0.00272308 0.00922631 0.00313005 0.0272394 0.00280249 0.0191388 0.00338311 0.0322409 0.00431987 0.0252802 0.00655605 0.0445081
24 2 Si -2.00867 2.7879 53.343 2.4 1 0.100995 0.0372828 0.0032047 0.00525332 0.00293835 0.00580098 0.00224701 0.0209963 0.00293486 0.0109201 0.00306335 0.0252905 0.00332511 0.0187839 0.0039261 0.0300397 0.00469543 0.0238079 0.00720346 0.039451
25 3 O -1.92315 1.21862 53.2734 -1.2 1 0.0963907 0.0350671 0.00254294 0.00528833 0.00286253 0.00550899 0.00205298 0.0206436 0.00285048 0.0101394 0.00303829 0.0255135 0.00291943 0.0180427 0.00416709 0.0306784 0.00421433 0.0238637 0.00711859 0.0398866
26 3 O -0.0467762 2.97103 46.8385 -1.2 1 0.252563 0.0539983 0.0175189 0.0145619 0.0031469 0.00984345 0.00384355 0.0199894 0.00631887 0.0171285 0.00621399 0.0239771 0.0066785 0.0186747 0.00817642 0.0251839 0.00637457 0.0232495 0.0101144 0.0312729
27 3 O -3.25064 3.35152 54.0143 -1.2 1 0.0821692 0.0320366 0.0037977 0.00445216 0.00221139 0.00588986 0.00221879 0.0215217 0.00253117 0.0106341 0.00277226 0.0254281 0.00275684 0.018651 0.003257 0.0307991 0.00416561 0.0241496 0.00675451 0.0411487
28 3 O -0.730764 3.46398 54.0142 -1.2 1 0.0813123 0.031707 0.00400695 0.00461098 0.00194277 0.00610971 0.00189087 0.0215156 0.00271605 0.0103936 0.00189202 0.0257423 0.0029834 0.0188959 0.0030474 0.0310478 0.00331384 0.0247109 0.00647877 0.0413802
29 1 Mg -3.35427 11.7273 57.4623 1.2 1 0.0226393 0.0142211 0.00479139 0.00619405 0.00144662 0.00670633 0.00143611 0.0221655 0.00192729 0.00951651 0.00191504 0.0284461 0.0020577 0.0203783 0.00261602 0.032654 0.00295425 0.026058 0.00482284 0.0501074
30 1 Mg -1.75014 11.5838 49.8362 1.2 1 0.18584 0.0477901 0.00771824 0.0124159 0.00438039 0.0127905 0.00477849 0.0240645 0.00477107 0.0160205 0.00531626 0.0283644 0.00418667 0.0240587 0.00722853 0.0331179 0.00676 0.0287955 0.0104208 0.0381083
31 2 Si -1.18003 9.02138 47.9309 2.4 1 0.239857 0.0514946 0.0152833 0.0154971 0.00529532 0.013185 0.00770591 0.0233025 0.00732611 0.0172485 0.00746661 0.0261121 0.00506324 0.0227234 0.0073017 0.0304674 0.00852451 0.0282821 0.0122336 0.0345129
32 3 O -1.23224 10.5991 47.9811 -1.2 1 0.231723 0.0525829 0.0134001 0.0158092 0.00534224 0.0144088 0.00665968 0.0244802 0.00762644 0.0176319 0.00765712 0.0277527 0.00537714 0.0239249 0.00835243 0.032511 0.00902471 0.0305172 0.0113751 0.0350917
33 3 O -1.79016 8.01447 51.8693 -1.2 1 0.133945 0.0406751 0.00270908 0.00836623 0.00368252 0.0077745 0.00279294 0.022417 0.00315458 0.0126504 0.00388717 0.0271638 0.0040313 0.0199449 0.00465243 0.0312383 0.00571434 0.0254565 0.00900581 0.0398116
34 3 O -2.30986 8.37215 48.8528 -1.2 1 0.206978 0.0523451 0.00957079 0.012472 0.00431855 0.0107794 0.00621562 0.0233806 0.00558273 0.0173005 0.00554671 0.0261236 0.00475081 0.0227286 0.00643526 0.0313395 0.00660146 0.0276853 0.0102368 0.0346848
35 1 Mg 0.154883 7.08234 46.8007 1.2 1 0.261307 0.0527747 0.0185697 0.0163324 0.0060103 0.0132941 0.00882692 0.0237163 0.00741551 0.0176031 0.00743753 0.0252065 0.00756813 0.0213594 0.00896835 0.0288791 0.00942818 0.0279073 0.013257 0.0314998
36 3 O 0.325447 8.50934 48.3809 -1.2 1 0.217593 0.0525931 0.0109848 0.0140403 0.00445555 0.011987 0.00637125 0.0241285 0.00612914 0.0171536 0.00632523 0.0261404 0.00499169 0.0236341 0.00591306 0.0302644 0.00700309 0.0285484 0.010975 0.034595
37 1 Mg 1.20495 7.09116 54.649 1.2 1 0.0668683 0.0289316 0.00474324 0.00544129 0.00167799 0.00606393 0.00238391 0.0217279 0.0019868 0.010309 0.00326585 0.0265636 0.00333256 0.0199163 0.0033146 0.0320307 0.00355777 0.0246456 0.00697185 0.0444957
38 2 Si 1.09735 9.77072 56.3608 2.4 1 0.0347204 0.0198919 0.00601454 0.00645202 0.00138629 0.00673483 0.00214004 0.0219149 0.00197291 0.00841535 0.00386313 0.0271248 0.0026263 0.0207669 0.00407334 0.0325435 0.0034427 0.0256365 0.00685968 0.050271
39 3 O 1.08987 8.22113 56.5707 -1.2 1 0.0314743 0.0187139 0.00579886 0.00549052 0.00116858 0.00635695 0.0016802 0.0221869 0.00263496 0.00808587 0.00262261 0.0275264 0.0032641 0.0193014 0.00288333 0.0323406 0.00367483 0.025908 0.00597212 0.0491913
40 3 O 1.28624 10.7248 52.7351 -1.2 1 0.112174 0.036943 0.00262114 0.00755459 0.00232862 0.00976499 0.00307012 0.0231966 0.0024872 0.0121473 0.00383632 0.0273157 0.00450242 0.0216557 0.00507442 0.0323652 0.00413199 0.027207 0.00790319 0.0426739
41 3 O -0.123468 10.5285 55.684 -1.2 1 0.0523515 0.0249895 0.00510675 0.00614711 0.00112963 0.00703094 0.00193418 0.0227501 0.00198827 0.0098166 0.00238488 0.0271561 0.00296293 0.0211742 0.00381294 0.0327552 0.00335786 0.026184 0.00586522 0.0482161
42 3 O 2.3361 10.4472 55.8383 -1.2 1 0.0441848 0.0231352 0.00595168 0.00605544 0.00116433 0.00666653 0.00195971 0.0222276 0.0019772 0.00940043 0.00231602 0.0273678 0.00304404 0.0209448 0.00312664 0.0329754 0.0028556 0.026266 0.00627337 0.0485056
43 1 Mg -0.262694 9.34741 52.2523 1.2 1 0.114426 0.039807 0.00318112 0.00787324 0.0031121 0.00819831 0.00240029 0.0234731 0.00298736 0.0123679 0.00346046 0.0276881 0.00426718 0.0209782 0.00522516 0.0317509 0.00453683 0.026596 0.00832137 0.0410294
44 1 Mg 1.87648 9.01537 49.4629 1.2 1 0.185916 0.0516958 0.00592274 0.0112659 0.00330279 0.0109028 0.00617749 0.0235845 0.00509975 0.0164895 0.00571119 0.0267952 0.00499874 0.0232917 0.00620813 0.0317896 0.00558133 0.0285585 0.0102228 0.0363976
45 2 Si 1.21415 11.3799 51.2378 2.4 1 0.149514 0.0457604 0.00261046 0.00996394 0.00304211 0.011071 0.00375371 0.0239309 0.00379985 0.0145883 0.00491336 0.0270904 0.00451518 0.0240861 0.00593962 0.0327932 0.00476924 0.0289941 0.00977673 0.0406066
46 3 O 1.31634 12.9512 51.3023 -1.2 1 0.149081 0.0437265 0.00352723 0.00986606 0.00252727 0.0116508 0.00330876 0.0234213 0.00396308 0.0143496 0.0035165 0.0282573 0.00418139 0.0245136 0.00503585 0.0336514 0.005555 0.0292145 0.00849674 0.0409796
47 3 O 1.08242 10.2904 58.0014 -1.2 1 0.0171016 0.0113083 0.00372313 0.00606169 0.00163549 0.00678996 0.00136946 0.0227182 0.00148358 0.00836204 0.00311851 0.0276651 0.00224775 0.0203182 0.00304637 0.0327523 0.00276706 0.0263621 0.00411136 0.0513532
48 3 O -0.115718 10.7564 50.681 -1.2 1 0.157049 0.0453328 0.00405163 0.0107405 0.00365267 0.0105847 0.00384042 0.0240555 0.00371436 0.0143131 0.00365302 0.0276256 0.00438446 0.023191 0.00617523 0.0322851 0.00535129 0.0280924 0.0100198 0.039978
49 1 Mg -3.26386 9.35564 52.3622 1.2 1 0.124302 0.0393182 0.00228914 0.0076652 0.00246687 0.00966864 0.00357127 0.022665 0.00300205 0.0126198 0.00410399 0.0269706 0.00379857 0.0209912 0.00499671 0.0321525 0.00447459 0.0265012 0.00849632 0.0398848
50 3 O 2.45216 10.7265 50.4558 -1.2 1 0.166115 0.0482436 0.00433192 0.00987135 0.00274435 0.011638 0.00482296 0.0234883 0.00435095 0.0159818 0.00455932 0.0272744 0.00411275 0.0241624 0.00620667 0.0329597 0.00544306 0.0284906 0.00979068 0.0386404
51 1 Mg -1.84806 9.63052 54.9662 1.2 1 0.0570365 0.0271594 0.00565893 0.00624659 0.00224357 0.00671336 0.00199628 0.0224806 0.00268338 0.00963944 0.00309569 0.0273912 0.0032012 0.0206197 0.00303442 0.0325076 0.00455292 0.0262714 0.00677739 0.0466649
52 2 Si -1.73014 7.33499 53.3631 2.4 1 0.0946951 0.0356671 0.00373093 0.00624422 0.00352734 0.00693742 0.00232448 0.0218244 0.00300505 0.0113853 0.0031212 0.0265523 0.00362867 0.0198937 0.00337938 0.0313037 0.00492764 0.0249614 0.00717561 0.0427116
53 3 O -1.89343 5.84433 53.2966 -1.2 1 0.0972052 0.034006 0.00266879 0.00541645 0.00275817 0.00661328 0.00196534 0.0211731 0.00312431 0.0104325 0.00316655 0.0260619 0.00320316 0.0187105 0.00412108 0.0311728 0.00389124 0.0244733 0.00754389 0.0413149
54 3 O -1.19417 8.46968 46.4488 -1.2 1 0.271099 0.0525566 0.0204294 0.0181012 0.0059404 0.0145492 0.00887036 0.0246236 0.00766103 0.017731 0.00775492 0.0257657 0.0063755 0.0212158 0.00942034 0.0304117 0.0101539 0.0294736 0.0125396 0.0316255
55 3 O -3.02417 8.0831 54.0796 -1.2 1 0.0802163 0.0311263 0.00398628 0.00561639 0.00262757 0.00753086 0.00230906 0.0219574 0.00213933 0.0110871 0.00259707 0.0260162 0.00319669 0.0201166 0.00370065 0.0323346 0.00426941 0.0254396 0.0079246 0.043248
56 3 O -0.490289 8.13026 53.8856 -1.2 1 0.0806517 0.0315457 0.00433307 0.00576609 0.00292033 0.00667821 0.00169172 0.0224245 0.00231297 0.0109495 0.00281791 0.0264315 0.00330106 0.0202889 0.00378632 0.031906 0.00384249 0.0259752 0.0070004 0.0444031
57 1 Mg -3.22967 16.4995 57.3661 1.2 1 0.0213013 0.014194 0.00436192 0.00605221 0.00137359 0.00664661 0.00155352 0.0220134 0.00182639 0.00892505 0.00187153 0.0276348 0.00220539 0.0198595 0.00231266 0.0328317 0.00301876 0.025989 0.00370192 0.050051
58 1 Mg -1.6714 16.3544 49.8412 1.2 1 0.182434 0.0474908 0.00717888 0.0128179 0.00388784 0.0148353 0.00299988 0.0252118 0.0043371 0.017236 0.00470622 0.0305903 0.0041483 0.0261549 0.00683743 0.034517 0.00597746 0.0310731 0.0100918 0.0397339
59 2 Si -1.18567 13.8526 47.9314 2.4 1 0.234827 0.0529857 0.014948 0.0170596 0.00484693 0.0179552 0.00517769 0.0266542 0.00818733 0.0195695 0.00655901 0.03056 0.00584379 0.0284391 0.00684927 0.0347186 0.00997913 0.0326253 0.0113694 0.0376961
60 3 O -1.09664 15.4205 47.9915 -1.2 1 0.233971 0.051997 0.0147184 0.0173396 0.00524713 0.0190553 0.00458106 0.0269634 0.00764888 0.0197197 0.00659113 0.0307742 0.00572903 0.0278833 0.00815612 0.0354049 0.00927551 0.0338499 0.0109859 0.038268
61 3 O -1.73493 12.7491 51.7772 -1.2 1 0.136045 0.0412477 0.00288754 0.00996541 0.00358426 0.0103114 0.00182996 0.0241647 0.00323857 0.0139554 0.00288688 0.0283045 0.00440441 0.0239702 0.00473422 0.0329115 0.00524625 0.0280495 0.00819055 0.0422487
62 3 O -2.36115 13.2717 48.8238 -1.2 1 0.209368 0.0527638 0.0102101 0.0142097 0.00491526 0.0145835 0.00496768 0.0261891 0.00601267 0.0191554 0.00534928 0.0298447 0.00468731 0.0270129 0.00619708 0.034754 0.00781017 0.0317884 0.0105108 0.0376731
63 1 Mg -0.159928 11.7639 46.8533 1.2 1 0.258637 0.0525954 0.0185015 0.018533 0.00602583 0.0194551 0.00738287 0.027933 0.00882422 0.0195887 0.00835844 0.0300474 0.00633744 0.0271606 0.008013 0.0333036 0.0104843 0.0332283 0.0136384 0.0358837
64 3 O 0.2623 13.1866 48.413 -1.2 1 0.217028 0.0524065 0.0114738 0.0152957 0.00445772 0.0159767 0.00458004 0.0263863 0.00684403 0.0185695 0.00524676 0.0292108 0.00519889 0.028017 0.00576547 0.0338545 0.00814762 0.032827 0.0106899 0.0381978
65 1 Mg 1.15467 11.8221 54.5725 1.2 1 0.0743161 0.0311072 0.00438053 0.00639756 0.00193794 0.00774539 0.00259563 0.022312 0.00201449 0.0111085 0.00212381 0.0278421 0.00394775 0.0224447 0.00387934 0.0334836 0.00353867 0.0261788 0.0064739 0.0454136
66 2 Si 1.2917 14.3937 56.491 2.4 1 0.0323248 0.0183814 0.00532867 0.00678389 0.00172013 0.00646679 0.00134538 0.0217184 0.00171983 0.00866842 0.00252087 0.0270566 0.0023785 0.0207613 0.00350874 0.0329311 0.00320421 0.0263069 0.00515386 0.0507465
67 3 O 1.1699 12.8536 56.616 -1.2 1 0.0294747 0.0170727 0.00531368 0.00666648 0.00140942 0.00645887 0.00157331 0.0222737 0.0024777 0.00831736 0.00209884 0.0278467 0.00275967 0.0202398 0.00296776 0.0328595 0.00370148 0.0263299 0.00526784 0.0503337
68 3 O 1.36565 15.4813 52.729 -1.2 1 0.111488 0.036934 0.00147876 0.00807254 0.00214817 0.0108358 0.00282894 0.0234578 0.00219834 0.0130122 0.0032893 0.0284953 0.0040743 0.0231391 0.00454153 0.0334765 0.00366789 0.0285682 0.00726459 0.043891
69 3 O 0.0538822 15.0459 55.7867 -1.2 1 0.0477367 0.023359 0.00498164 0.00669077 0.00134159 0.00707843 0.00210943 0.0219114 0.00153935 0.00975854 0.00235834 0.0272482 0.00248404 0.0210852 0.00391561 0.0338448 0.00323528 0.0271196 0.00551319 0.0491265
70 3 O 2.52685 15.0579 55.7233 -1.2 1 0.0445994 0.0229609 0.00566236 0.00658395 0.00119695 0.00697739 0.0022806 0.0223993 0.00189298 0.00960482 0.00225756 0.0269479 0.00262422 0.0211558 0.00376663 0.033669 0.00312482 0.0272868 0.0058477 0.0493037
71 1 Mg -0.206989 14.1049 52.2121 1.2 1 0.11962 0.0410695 0.00196802 0.00902568 0.00307224 0.00959955 0.00217574 0.0239099 0.00246916 0.0136028 0.00316425 0.0286025 0.00360052 0.0239047 0.00445456 0.0335869 0.00368606 0.0288481 0.00790449 0.0420576
72 1 Mg 1.82591 13.8102 49.4556 1.2 1 0.186153 0.0519167 0.00641304 0.0120625 0.00310385 0.0135731 0.00437163 0.0246101 0.00473277 0.0178954 0.00481505 0.0289557 0.00479834 0.0267087 0.00596766 0.0348496 0.00651361 0.031343 0.00994706 0.0384829
73 2 Si 1.29285 16.1518 51.2434 2.4 1 0.146775 0.045372 0.00252341 0.0106468 0.00272723 0.0124512 0.00343765 0.0247809 0.00354468 0.0156948 0.00440074 0.0284073 0.00434827 0.0254116 0.00551199 0.0334905 0.00453943 0.0304429 0.00917027 0.0419559
74 3 O 1.39496 17.7199 51.3047 -1.2 1 0.141876 0.0422812 0.00254768 0.0098368 0.00178779 0.0122998 0.00264908 0.0239754 0.00349404 0.0147819 0.0031595 0.0288204 0.0040676 0.0243781 0.00531759 0.0341433 0.00517473 0.0300244 0.0082119 0.0421007
75 3 O 1.31313 15.1342 57.9318 -1.2 1 0.0163391 0.0112936 0.00361441 0.00654244 0.00166207 0.00672142 0.00124823 0.02219 0.00112759 0.00802884 0.00188705 0.0273348 0.00215804 0.0198265 0.00226147 0.0328205 0.00271918 0.0264615 0.00343284 0.0512589
76 3 O -0.0269106 15.5178 50.6688 -1.2 1 0.159977 0.0460942 0.0046172 0.0117073 0.0033941 0.0128777 0.00339521 0.0242407 0.00340114 0.0154509 0.00334542 0.0286463 0.00404367 0.0259379 0.00622797 0.0337073 0.00443036 0.0306089 0.00941384 0.0410604
77 1 Mg -3.18391 14.1057 52.3125 1.2 1 0.125362 0.0407094 0.00187783 0.00893586 0.00245481 0.0111439 0.00253431 0.0238308 0.00302518 0.0141932 0.00280929 0.028892 0.00363991 0.0242127 0.00375721 0.033039 0.00424269 0.0284706 0.00710576 0.0410362
78 3 O 2.52432 15.503 50.4579 -1.2 1 0.161922 0.0473815 0.00448029 0.0105677 0.0026919 0.0131775 0.00369103 0.024691 0.00392641 0.0171277 0.00370844 0.0287782 0.00417091 0.0266057 0.00606518 0.0340749 0.00502329 0.0306046 0.00888972 0.0402829
79 1 Mg -1.67321 14.1324 55.2296 1.2 1 0.0534742 0.0260437 0.00531973 0.00682292 0.00189557 0.00672434 0.00199036 0.0226041 0.00227922 0.010109 0.00237162 0.0280816 0.00236814 0.0221412 0.00374791 0.0334394 0.00407231 0.0266285 0.00630134 0.0476599
80 2 Si -1.70732 12.1215 53.3149 2.4 1 0.100257 0.036784 0.00297702 0.00805115 0.0032538 0.00844551 0.00180376 0.0231959 0.00318338 0.0121718 0.00239189 0.0272787 0.00398717 0.0231167 0.0032532 0.0330182 0.00490725 0.0270603 0.00707366 0.0443695
81 3 O -1.73875 10.5653 53.1627 -1.2 1 0.0990766 0.0350302 0.00333336 0.00704768 0.0033446 0.00822833 0.00170556 0.0219983 0.00269873 0.0109198 0.00285157 0.0273218 0.00360336 0.0211313 0.00437335 0.0327305 0.00468679 0.026069 0.00850703 0.0439393
82 3 O -1.21337 13.3381 46.4311 -1.2 1 0.272535 0.0519106 0.0209377 0.0202796 0.0068484 0.0204618 0.00714386 0.0297949 0.0091388 0.0207218 0.00730337 0.0312368 0.00634 0.026836 0.00901852 0.035746 0.0124074 0.0353279 0.0138416 0.0359414
83 3 O -2.99732 12.6691 53.9726 -1.2 1 0.0864502 0.0329093 0.00295734 0.00651423 0.00235614 0.00887733 0.00169643 0.0228286 0.002376 0.0116597 0.00200857 0.0273413 0.00328287 0.0225054 0.00331935 0.0334317 0.00410508 0.0270025 0.00663182 0.0448901
84 3 O -0.35322 12.7538 53.9168 -1.2 1 0.0833279 0.0329058 0.00344064 0.00677807 0.00304904 0.00722634 0.00151588 0.0233484 0.00202748 0.0115567 0.00216851 0.0274911 0.00334042 0.022772 0.00356829 0.0335994 0.00389578 0.0274691 0.00633939 0.0449931
85 1 Mg -2.94719 21.0791 57.3128 1.2 1 0.0193092 0.0145747 0.00449547 0.00569014 0.00149852 0.0070043 0.00143656 0.0217726 0.00133401 0.00848226 0.00161641 0.0271007 0.0017257 0.0194149 0.00255992 0.0327883 0.00330609 0.0259442 0.00432589 0.0494668
86 1 Mg -1.5831 21.1217 49.8405 1.2 1 0.181006 0.0472108 0.00706241 0.0130458 0.00365947 0.0149502 0.00303541 0.0257826 0.00376304 0.0171945 0.00458513 0.0302629 0.00440861 0.0256042 0.0063441 0.0349609 0.00562378 0.0315717 0.00945739 0.040697
87 2 Si -1.09384 18.6291 47.9287 2.4 1 0.234941 0.052532 0.0146427 0.0172459 0.00414118 0.020364 0.0037789 0.0276743 0.0070375 0.0198077 0.00583206 0.0317273 0.00620988 0.0288331 0.00694759 0.0357546 0.00967432 0.0340269 0.0114298 0.0399272
88 3 O -1.02071 20.1985 47.9911 -1.2 1 0.232656 0.0512231 0.0141589 0.0176361 0.00447985 0.0203741 0.00403095 0.0274525 0.00614248 0.0197446 0.00637261 0.0313203 0.00604864 0.027784 0.00787709 0.0359805 0.00829063 0.0343987 0.011337 0.0399905
89 3 O -1.65002 17.5002 51.771 -1.2 1 0.136816 0.0414658 0.00264013 0.0103461 0.00303688 0.011464 0.0016427 0.0239062 0.0022655 0.0141957 0.00284661 0.0288115 0.00432011 0.0240337 0.00484622 0.0337249 0.00520686 0.0290987 0.00840414 0.0422109
90 3 O -2.26174 18.0434 48.8281 -1.2 1 0.204449 0.0514178 0.00954238 0.0145248 0.00410299 0.0168328 0.00342825 0.0271371 0.00487185 0.0194028 0.00406442 0.0311194 0.00475163 0.0274801 0.00604709 0.0354174 0.00724855 0.0330343 0.00992231 0.0391446
91 1 Mg -0.0440435 16.5651 46.8269 1.2 1 0.26154 0.0531552 0.0183178 0.0200563 0.00563424 0.0239222 0.00533789 0.0306581 0.00902718 0.0217047 0.0069114 0.0331411 0.00711687 0.0291773 0.00918735 0.0358515 0.0104885 0.036526 0.0123485 0.0391151
92 3 O 0.37001 17.9877 48.3925 -1.2 1 0.21637 0.0521966 0.0110904 0.0160917 0.00386891 0.0179887 0.00318076 0.0279317 0.00568371 0.0194188 0.00436975 0.0308652 0.00524847 0.0286609 0.00585544 0.0349392 0.00820097 0.0349228 0.0104327 0.0402409
93 1 Mg 1.30566 16.4749 54.5535 1.2 1 0.0732293 0.030559 0.00327315 0.00656599 0.00183866 0.00815556 0.00239444 0.0221241 0.00238104 0.0114624 0.00201589 0.0277626 0.00366917 0.0230056 0.00360216 0.0341894 0.00326764 0.0270875 0.00578117 0.0462397
94 2 Si 1.50767 19.1608 56.238 2.4 1 0.0362544 0.0213312 0.00521839 0.00677882 0.00130655 0.00709256 0.00232144 0.0218838 0.00165212 0.00873533 0.00319664 0.0263938 0.00240992 0.0210373 0.0037576 0.0333148 0.00324248 0.0258443 0.00609633 0.0496036
95 3 O 1.25509 17.631 56.243 -1.2 1 0.0394711 0.0214188 0.00510174 0.0064507 0.00141665 0.00668488 0.00175263 0.0215274 0.00280911 0.00883393 0.00238746 0.0269876 0.00304125 0.0206462 0.00296292 0.0334086 0.00400524 0.0257226 0.00543191 0.0491149
96 3 O 1.45147 20.239 52.7294 -1.2 1 0.109979 0.0366384 0.00106604 0.00766001 0.0017992 0.0110239 0.00263094 0.0230702 0.00211358 0.0126321 0.00321448 0.0280051 0.00371646 0.0225339 0.00395518 0.0334088 0.00369666 0.028561 0.00684915 0.0441652
97 3 O 0.219284 19.8579 55.6589 -1.2 1 0.0502886 0.0246037 0.00419455 0.00614829 0.00138104 0.00717756 0.00212767 0.0217631 0.00158043 0.00967655 0.00215093 0.0264962 0.0028516 0.0209634 0.00369563 0.0339589 0.00308545 0.0265533 0.00557295 0.047884
98 3 O 2.79621 19.8135 55.6221 -1.2 1 0.0452955 0.0242599 0.00524612 0.00615907 0.00154189 0.00728978 0.00319904 0.022438 0.00185867 0.00919268 0.00263213 0.0262906 0.00256571 0.0208388 0.00350135 0.0338379 0.00298023 0.0269517 0.00603732 0.0491324
99 1 Mg -0.126194 18.8651 52.2079 1.2 1 0.118275 0.0409567 0.0017506 0.0092376 0.00252936 0.00986452 0.00190097 0.0237518 0.00225336 0.0140214 0.00268902 0.0286688 0.00382953 0.0237395 0.00425835 0.0338833 0.0039584 0.0292354 0.0078368 0.0424048
100 1 Mg 1.92402 18.5815 49.4545 1.2 1 0.184806 0.0514233 0.00582534 0.0123602 0.00220027 0.0146587 0.00343057 0.0255798 0.00407048 0.0184181 0.00377281 0.0301766 0.00491052 0.0271267 0.00538944 0.0355564 0.0060511 0.0327508 0.00988089 0.0403505
101 2 Si 1.38106 20.9117 51.2443 2.4 1 0.146066 0.0447327 0.00211884 0.010471 0.0024479 0.0127804 0.0030419 0.0245783 0.00298205 0.0157049 0.00410938 0.0282813 0.00411449 0.0248996 0.00501603 0.0337462 0.00383775 0.0309473 0.00890027 0.0431515
102 3 O 1.48527 22.4795 51.3054 -1.2 1 0.143109 0.0420811 0.00274782 0.00971708 0.00189443 0.0122271 0.00261731 0.0234981 0.0033801 0.0144613 0.00341968 0.0286159 0.00384037 0.0238215 0.004663 0.0340797 0.00469573 0.0303757 0.00808543 0.0433623
103 3 O 1.55564 19.6814 57.7339 -1.2 1 0.0152468 0.01262 0.0034527 0.00634978 0.00130638 0.00710013 0.00170012 0.022223 0.00141353 0.00783975 0.00214361 0.0268415 0.00213935 0.0195634 0.00298603 0.0323844 0.00314754 0.0257037 0.00424691 0.049988
104 3 O 0.0615419 20.2804 50.6669 -1.2 1 0.157709 0.0454599 0.00402982 0.011592 0.0035222 0.0131433 0.00291008 0.0244704 0.00311619 0.0154742 0.00304302 0.0287991 0.00404061 0.0255167 0.00513785 0.034075 0.00394233 0.0310569 0.00895257 0.0420004
105 1 Mg -3.09665 18.8643 52.3122 1.2 1 0.124003 0.040411 0.00149166 0.00862403 0.00198334 0.0114928 0.00229043 0.0235376 0.00253189 0.0140591 0.0030465 0.0283605 0.00359854 0.0240396 0.00356421 0.033488 0.00459795 0.0289269 0.00727187 0.0426109
106 3 O 2.61548 20.2646 50.4626 -1.2 1 0.160206 0.0469229 0.00400509 0.0105712 0.00230158 0.0135583 0.00307921 0.0248842 0.00312954 0.0169213 0.00339968 0.028737 0.00424638 0.025684 0.00512061 0.0343277 0.00471847 0.0308153 0.0086604 0.0416941
107 1 Mg -1.42869 19.0386 54.9592 1.2 1 0.0564593 0.0273654 0.00468664 0.00703666 0.00202909 0.00713356 0.00250249 0.0227589 0.00176887 0.0103 0.00306533 0.0272639 0.00215047 0.0217344 0.0042965 0.0334982 0.00398573 0.0267511 0.00638739 0.0475538
108 2 Si -1.75326 16.7346 53.2978 2.4 1 0.0957642 0.0357535 0.00257323 0.00808575 0.00245671 0.00866701 0.00156469 0.022894 0.00239093 0.0122453 0.00242625 0.0276028 0.00331925 0.0234679 0.00362981 0.0339074 0.00423728 0.0279765 0.00686933 0.0448242
109 3 O -1.73224 15.2032 53.1998 -1.2 1 0.0979483 0.0352756 0.00235873 0.00795792 0.00286028 0.00871513 0.0012082 0.0225089 0.00257601 0.0118632 0.00275194 0.0280941 0.0028958 0.0230371 0.00453381 0.0336356 0.00357975 0.0274939 0.00794455 0.0450146
110 3 O -1.12868 18.1227 46.4249 -1.2 1 0.271507 0.0523216 0.0197909 0.0210177 0.00560366 0.0241021 0.00513746 0.0313285 0.00725723 0.0214978 0.00608201 0.0335429 0.00691038 0.0273718 0.00923251 0.0374394 0.0121508 0.0375778 0.0126543 0.0389428
111 3 O -3.03003 17.4884 53.8027 -1.2 1 0.0870237 0.0333707 0.00270504 0.00676199 0.00176005 0.009158 0.00182722 0.0229852 0.00186774 0.0116011 0.00204392 0.027271 0.00320778 0.0230544 0.00315705 0.0339541 0.00359592 0.0278601 0.00609463 0.0454745
112 3 O -0.385264 17.3682 53.9408 -1.2 1 0.078091 0.0317664 0.00350669 0.00690119 0.00263591 0.00722923 0.00147811 0.0227129 0.00181605 0.0111559 0.0020491 0.0270626 0.0030679 0.0229442 0.0038011 0.0343908 0.00355642 0.0276608 0.00660069 0.0461947
113 1 Mg -2.9916 25.8949 57.3298 1.2 1 0.018123 0.0145809 0.00455939 0.00524457 0.00159385 0.0067059 0.00122363 0.022085 0.0015911 0.00865786 0.00190162 0.0272162 0.00229935 0.0194523 0.00313822 0.0327664 0.00386278 0.0255641 0.00440871 0.0489729
114 1 Mg -1.48778 25.88 49.8402 1.2 1 0.180786 0.0473537 0.00676252 0.0130395 0.00338056 0.0148516 0.00298414 0.0259842 0.003379 0.0168768 0.00491744 0.0304472 0.00394518 0.0255065 0.00679352 0.0352073 0.00547345 0.0320704 0.0101958 0.0421743
115 2 Si -1.00491 23.3922 47.9274 2.4 1 0.236984 0.0521333 0.0144452 0.0184017 0.00421948 0.0207605 0.00429194 0.0279722 0.00570284 0.0198857 0.00597151 0.0317088 0.00621687 0.0281653 0.00662434 0.0356863 0.00884077 0.0346713 0.0122432 0.0409194
116 3 O -0.927602 24.9615 47.9909 -1.2 1 0.234425 0.0517043 0.0140133 0.0181432 0.00423662 0.0204743 0.00395248 0.0276533 0.00601103 0.0197582 0.00656812 0.0314942 0.00625703 0.0275895 0.00787448 0.0359788 0.00849774 0.0348481 0.0119096 0.0411047
117 3 O -1.55795 22.2588 51.7696 -1.2 1 0.136203 0.041603 0.00248712 0.0102233 0.00307026 0.0112045 0.00165199 0.0236868 0.00234255 0.0138931 0.00295822 0.0284846 0.00439801 0.0235485 0.0042051 0.0339739 0.00491878 0.0295061 0.00793542 0.0433954
118 3 O -2.17411 22.8111 48.8277 -1.2 1 0.204603 0.0509704 0.00935813 0.014937 0.00361452 0.0167844 0.00351424 0.0268513 0.00399407 0.0190117 0.0046476 0.0307455 0.00481683 0.0266447 0.00613358 0.035567 0.00705383 0.0336058 0.0107447 0.0406624
119 1 Mg 0.0423997 21.3296 46.8225 1.2 1 0.262285 0.0523992 0.0183682 0.0206112 0.00510265 0.0247561 0.00571111 0.0311596 0.00748006 0.0220324 0.00752574 0.0335747 0.00741968 0.0289267 0.00938949 0.0359884 0.00978625 0.0366687 0.0134226 0.0401248
120 3 O 0.458537 22.7495 48.3911 -1.2 1 0.212195 0.0510663 0.0106567 0.0157869 0.00367497 0.0176888 0.00314433 0.0271387 0.0047527 0.0191703 0.0046903 0.030507 0.00540491 0.0283661 0.00590201 0.0351105 0.00752341 0.0347163 0.0111155 0.0415498