ITEM: TIMESTEP
56400
ITEM: NUMBER OF ATOMS
10500
ITEM: BOX BOUNDS xy xz yz pp pp pp
0	8.9688	2.9896
0	118.725	0
0	252.977	0
ITEM: ATOMS id type element xu yu zu q Q_1 Q_2 Q_3 Q_4 Q_5 Q_6 Q_7 Q_8 Q_9 Q_10 Q_11 Q_12 Q_13 Q_14 Q_15 Q_16 Q_17 Q_18 Q_19 Q_20 Q_21
1 1 Mg -3.47476 7.03298 57.3325 1.2 1 0.0223831 0.0161195 0.00512223 0.00530276 0.00151556 0.0066859 0.00112282 0.0207774 0.00145409 0.00924208 0.00162985 0.0263593 0.00248209 0.0181653 0.00293509 0.0327131 0.00326337 0.0253405 0.00473365 0.0456544
2 1 Mg -1.82655 6.90154 50.0912 1.2 1 0.175214 0.0477507 0.00645416 0.0096419 0.0034325 0.0086939 0.00381863 0.0214942 0.00391762 0.0155555 0.00418808 0.0247148 0.00416418 0.0203366 0.00722885 0.0297138 0.00566568 0.0269389 0.00935138 0.0348095
3 2 Si -0.257935 3.96038 48.0876 2.4 1 0.223753 0.0521387 0.0120699 0.0115751 0.0030107 0.00994196 0.00349496 0.0193793 0.00526274 0.0169887 0.00468968 0.0239392 0.00539356 0.0203837 0.00586982 0.0264798 0.00726067 0.0254771 0.0093514 0.0322639
4 3 O -0.335812 5.46814 47.6264 -1.2 1 0.232798 0.0517272 0.0139951 0.0128315 0.00347635 0.0109828 0.00426348 0.0203555 0.00616635 0.0178357 0.00485741 0.0245603 0.00504512 0.0205417 0.00634286 0.0271307 0.00754036 0.0267087 0.0104157 0.0311754
5 3 O -2.03793 3.43377 51.8941 -1.2 1 0.128518 0.0413228 0.00218 0.00669261 0.0016188 0.0072562 0.00247831 0.0200033 0.00237653 0.0120107 0.00302308 0.0240797 0.00329186 0.0175466 0.00427211 0.0288111 0.00530377 0.0246771 0.00762578 0.0371361
6 3 O -1.54015 3.53929 48.9521 -1.2 1 0.200257 0.0504364 0.0092434 0.010378 0.00258739 0.0086629 0.00331896 0.0197985 0.00454229 0.0149851 0.00461466 0.023304 0.00430024 0.019159 0.00628015 0.0273116 0.00597429 0.0249972 0.00897913 0.0319306
7 1 Mg 1.82954 2.54582 47.1376 1.2 1 0.249076 0.052887 0.0169032 0.0150982 0.00340686 0.0112305 0.00330456 0.0197559 0.00583115 0.0159105 0.00462687 0.0239243 0.00687378 0.0188529 0.00756507 0.0246111 0.00659204 0.0238755 0.00902045 0.0302149
8 3 O 1.22989 3.66364 48.7877 -1.2 1 0.205151 0.0501624 0.0099005 0.0113599 0.00275435 0.00973483 0.00346821 0.019884 0.00392694 0.0154629 0.0037243 0.0231431 0.0046788 0.0194637 0.00646583 0.026694 0.00480442 0.0249871 0.00887993 0.0327792
9 1 Mg 1.25432 2.34129 54.4336 1.2 1 0.0709409 0.0307687 0.00442808 0.00458831 0.0016611 0.00583971 0.00246339 0.0203827 0.00275446 0.0101322 0.00301283 0.0249006 0.00304624 0.0188448 0.00319692 0.0302645 0.00361342 0.0243919 0.00574915 0.0412982
10 2 Si 0.833298 5.00422 56.3412 2.4 1 0.03317 0.021021 0.00624935 0.00562422 0.00134114 0.00670346 0.00252939 0.0210661 0.0016608 0.00912644 0.00352611 0.0247196 0.00253741 0.0183969 0.00398119 0.0319833 0.00331511 0.0258101 0.00541905 0.0454544
11 3 O 0.809436 3.46978 56.5266 -1.2 1 0.0318654 0.0196908 0.00543105 0.00517466 0.00134941 0.00607296 0.00169388 0.0204589 0.00270555 0.00863678 0.00215433 0.025163 0.00295923 0.017359 0.00232522 0.0315599 0.003699 0.0256069 0.00449799 0.0444583
12 3 O 1.10813 6.07342 52.8172 -1.2 1 0.104484 0.0364863 0.00220027 0.00634846 0.00238351 0.00727185 0.0031041 0.0212664 0.00248135 0.0123965 0.00271855 0.0246486 0.00347085 0.0181122 0.00488728 0.0307454 0.00414638 0.026414 0.00669628 0.0390611
13 3 O -0.334831 5.77832 55.5953 -1.2 1 0.0499847 0.026009 0.0053914 0.00515518 0.00135518 0.00619293 0.00226375 0.0210652 0.00189221 0.0107147 0.00237534 0.0254727 0.00263537 0.0180473 0.00432012 0.03194 0.0036942 0.0261199 0.00507407 0.044081
14 3 O 2.16166 5.63879 55.7394 -1.2 1 0.0400485 0.0233893 0.00611199 0.00508897 0.000970955 0.00623481 0.0024847 0.0209913 0.0010961 0.00996845 0.0027433 0.0253776 0.00252131 0.0183285 0.00396037 0.0330388 0.00319866 0.0261979 0.00599461 0.0439427
15 1 Mg -0.459401 4.67631 52.2426 1.2 1 0.125088 0.0414968 0.00185933 0.00674174 0.0022384 0.00679566 0.0023593 0.0205736 0.00300749 0.0132084 0.00226845 0.0248427 0.00321146 0.0183647 0.00416396 0.0296784 0.0045655 0.0254657 0.00674725 0.0365081
16 1 Mg 2.79456 3.9971 49.9987 1.2 1 0.177385 0.049896 0.00622595 0.00949346 0.00280335 0.00823924 0.00407197 0.0201137 0.0031092 0.0150814 0.00262773 0.0232623 0.00424999 0.0200971 0.00698298 0.0281025 0.00453027 0.0255865 0.00920545 0.0332386
17 2 Si 1.16169 6.59457 51.2556 2.4 1 0.14666 0.0457162 0.00305423 0.00852077 0.00281324 0.00837271 0.00373356 0.0211606 0.00360268 0.0147683 0.00432862 0.0242557 0.00389244 0.0198686 0.00679324 0.0306949 0.00526997 0.0270878 0.00873963 0.0366363
18 3 O 1.28989 8.18905 51.2909 -1.2 1 0.144349 0.0441767 0.00279272 0.00894606 0.00267686 0.00927263 0.00347948 0.0214826 0.00366717 0.0143512 0.00393718 0.0257251 0.00333996 0.0197815 0.00563712 0.0309795 0.00598946 0.0278015 0.00851211 0.038299
19 3 O 1.00329 5.60341 57.8044 -1.2 1 0.0155284 0.0125509 0.00362386 0.00566985 0.00104139 0.00698133 0.0016645 0.0210452 0.00162041 0.00835473 0.00280509 0.0255668 0.00246586 0.0181841 0.00349067 0.0329009 0.00263743 0.0257764 0.00425898 0.0464885
20 3 O -0.184847 6.06029 50.6845 -1.2 1 0.160953 0.0455484 0.00503595 0.00890048 0.00337174 0.00796973 0.0037133 0.0211189 0.0038958 0.0146965 0.00286698 0.0239697 0.0038152 0.0193105 0.0061857 0.0288783 0.0051029 0.0264806 0.00853988 0.0357774
21 1 Mg -3.49704 4.67769 52.6661 1.2 1 0.113877 0.0388287 0.0018291 0.0062755 0.00206303 0.00720464 0.00272566 0.0201824 0.0030158 0.0124492 0.00333411 0.0244409 0.0029371 0.0181682 0.00449874 0.0293347 0.00415529 0.0251485 0.0069752 0.0378687
22 3 O 2.48581 5.93312 50.6539 -1.2 1 0.158254 0.0471925 0.00444735 0.00812009 0.00196932 0.00884836 0.00366655 0.0210564 0.00340025 0.0152132 0.00394857 0.0236722 0.00390477 0.019872 0.00599825 0.0298653 0.00497403 0.0268266 0.00840129 0.0348478
23 1 Mg -2.15403 4.70872 55.1675 1.2 1 0.0499261 0.0267198 0.00620484 0.00496284 0.00132407 0.00596807 0.00198606 0.0204659 0.002612 0.00977666 0.00340951 0.0258328 0.00195339 0.0177829 0.00361748 0.0317144 0.00392572 0.0257419 0.00572544 0.0429214
24 2 Si -1.94704 2.70269 53.3458 2.4 1 0.100047 0.0363676 0.00261394 0.00550734 0.00223222 0.0067809 0.00208583 0.0205532 0.00281835 0.0112852 0.00263592 0.0243812 0.00268658 0.0187361 0.00307657 0.0295219 0.00440287 0.0245915 0.00598833 0.0394577
25 3 O -2.0904 1.06866 53.2855 -1.2 1 0.09529 0.0347349 0.00237301 0.00526818 0.0027848 0.00614398 0.00197586 0.0201141 0.00284757 0.0102655 0.00267148 0.0249125 0.00261207 0.0181687 0.00395691 0.0290339 0.00344587 0.0237568 0.00638441 0.0395057
26 3 O -0.0467762 2.97103 46.8385 -1.2 1 0.254244 0.0526149 0.0171455 0.0144336 0.00379205 0.0103594 0.0034658 0.0193698 0.00618181 0.0169807 0.00646788 0.0236651 0.00734715 0.0189393 0.00816965 0.0247138 0.00679135 0.0241891 0.0100835 0.0313451
27 3 O -3.2995 3.33463 54.1093 -1.2 1 0.0787873 0.0317362 0.00383086 0.00450011 0.00152247 0.00608862 0.00241336 0.0204369 0.00253944 0.0110234 0.00272778 0.0241139 0.00226232 0.0182933 0.00335142 0.0301671 0.00381397 0.0246597 0.00597234 0.0405666
28 3 O -0.653548 3.33064 53.8388 -1.2 1 0.0819194 0.0334702 0.00398986 0.00448349 0.00160974 0.0066383 0.0017159 0.0207501 0.00219028 0.0113144 0.00190954 0.0242764 0.00299391 0.018896 0.00325444 0.0302743 0.00380357 0.0255649 0.00570508 0.0408762
29 1 Mg -3.39243 11.6125 57.5394 1.2 1 0.021018 0.0145679 0.00465419 0.00529968 0.00161229 0.00614944 0.00153011 0.0212188 0.00171919 0.00997544 0.00241133 0.0270098 0.00264018 0.0188413 0.00319677 0.0335793 0.00331456 0.0262762 0.0047981 0.0458174
30 1 Mg -1.75014 11.5838 49.8362 1.2 1 0.182762 0.0476912 0.00768518 0.0118495 0.0044641 0.0123346 0.00452377 0.0231473 0.00469937 0.0173044 0.00524494 0.0274216 0.00400786 0.023833 0.00733445 0.0328049 0.00738333 0.0302038 0.0104638 0.0374987
31 2 Si -1.18003 9.02138 47.9309 2.4 1 0.240257 0.0512589 0.0157716 0.0147568 0.00537273 0.0133825 0.00699921 0.0222405 0.00695889 0.0178722 0.00781024 0.0256638 0.00503925 0.0223559 0.00757446 0.0303709 0.00955422 0.029577 0.0124793 0.0344103
32 3 O -1.23224 10.5991 47.9811 -1.2 1 0.23065 0.0522871 0.0135597 0.0152472 0.00544437 0.0142283 0.00594544 0.0234516 0.00703546 0.0182578 0.00796181 0.0270978 0.00507458 0.0238026 0.00834812 0.0323392 0.0100081 0.0320323 0.0118874 0.0350641
33 3 O -1.79016 8.01447 51.8693 -1.2 1 0.133276 0.0418722 0.00212661 0.00832935 0.00367858 0.00789766 0.00264578 0.0212949 0.00298334 0.0140211 0.00351555 0.0256814 0.00355886 0.0194005 0.00506221 0.0312353 0.00570106 0.0271495 0.00853593 0.038462
34 3 O -2.30986 8.37215 48.8528 -1.2 1 0.206082 0.052573 0.00997353 0.0118189 0.00439656 0.010705 0.00558233 0.0227128 0.00539207 0.0180115 0.00544392 0.0255184 0.00420117 0.0223731 0.00694615 0.0313704 0.00752723 0.0292468 0.0103757 0.0346879
35 1 Mg 0.154883 7.08234 46.8007 1.2 1 0.259662 0.0522043 0.0187266 0.015472 0.00577028 0.01349 0.00793666 0.0229125 0.00740461 0.0181094 0.00783789 0.0248587 0.00713835 0.0211848 0.00889756 0.0290859 0.0106346 0.0292496 0.0134929 0.0317615
36 3 O 0.325447 8.50934 48.3809 -1.2 1 0.217422 0.0529873 0.0115039 0.0133211 0.00423344 0.0120014 0.00578381 0.0232018 0.00597298 0.0181846 0.00621385 0.0256327 0.00499181 0.02332 0.00609521 0.0300038 0.00813176 0.0302173 0.0108879 0.0342087
37 1 Mg 1.05175 7.04552 54.6751 1.2 1 0.0652584 0.0295566 0.00472869 0.00563013 0.0016526 0.00623072 0.00234002 0.0206388 0.00203023 0.0114334 0.00232751 0.0255652 0.00293055 0.0191268 0.00383893 0.0327061 0.00414038 0.0253884 0.00613926 0.0424764
38 2 Si 0.916917 9.86312 56.4997 2.4 1 0.0312851 0.0199366 0.00506607 0.00623473 0.00109672 0.007014 0.00222564 0.0209558 0.00181126 0.00937551 0.00367024 0.0260497 0.00273984 0.0191004 0.00460205 0.0333094 0.00383973 0.0257725 0.00629519 0.0461033
39 3 O 1.01694 8.20129 56.5803 -1.2 1 0.0278442 0.018225 0.00546588 0.00578079 0.00113486 0.00688682 0.00197157 0.0213125 0.00268981 0.00863471 0.00230866 0.0262884 0.00308518 0.0180431 0.00303458 0.0339659 0.00435673 0.0265254 0.00602434 0.0467269
40 3 O 1.28624 10.7248 52.7351 -1.2 1 0.110411 0.0376074 0.00178626 0.00745927 0.00244481 0.0098068 0.00256151 0.0220276 0.00268058 0.0133776 0.00325132 0.0261703 0.00388409 0.0208202 0.00488343 0.0328985 0.00438175 0.0282249 0.00728035 0.0412368
41 3 O -0.246533 10.443 55.7145 -1.2 1 0.0506651 0.025469 0.00469181 0.00590305 0.00154071 0.00695381 0.00206417 0.0214705 0.00146064 0.0110939 0.00228259 0.0257627 0.00265893 0.0194495 0.00392109 0.0342689 0.00348686 0.0274002 0.00604589 0.0450557
42 3 O 2.24875 10.3807 55.8581 -1.2 1 0.0437495 0.024166 0.00572727 0.00558642 0.00145015 0.00657529 0.0022443 0.0214356 0.00149329 0.0107392 0.00239399 0.0259665 0.00306009 0.0196072 0.00374996 0.0342912 0.00340289 0.0272766 0.00623378 0.0455027
43 1 Mg -0.262694 9.34741 52.2523 1.2 1 0.114177 0.0410178 0.00267193 0.0080216 0.00304281 0.0082924 0.00226898 0.0222186 0.00284945 0.0134919 0.00325744 0.0263009 0.0036138 0.0201514 0.00529657 0.0321639 0.00491335 0.0279275 0.00763973 0.0397008
44 1 Mg 1.87648 9.01537 49.4629 1.2 1 0.183608 0.0517482 0.00634295 0.0105285 0.00315006 0.0108217 0.00518313 0.0221786 0.00466834 0.0172671 0.00517793 0.0258509 0.00461469 0.0225694 0.00702727 0.0316687 0.00645039 0.0299759 0.0103642 0.03614
45 2 Si 1.21415 11.3799 51.2378 2.4 1 0.146908 0.0457206 0.0023268 0.00973802 0.00305656 0.0111776 0.00348166 0.0228874 0.00360736 0.0157103 0.00465586 0.025986 0.00416109 0.0237547 0.0060509 0.0324936 0.0054288 0.030172 0.00957989 0.0397342
46 3 O 1.31634 12.9512 51.3023 -1.2 1 0.145679 0.043745 0.003344 0.00947617 0.00261945 0.0118677 0.00324476 0.0226661 0.00407392 0.0158608 0.00389512 0.0275633 0.00386283 0.0241664 0.00566094 0.0333641 0.00551278 0.0300443 0.00856127 0.0403925
47 3 O 0.932416 10.5211 57.9758 -1.2 1 0.0169442 0.0123762 0.00354988 0.0056317 0.00149868 0.00676966 0.0015389 0.0215211 0.00158797 0.00865945 0.00329164 0.0262942 0.0026922 0.0185473 0.00343739 0.0339502 0.0031452 0.0265615 0.0053946 0.0470562
48 3 O -0.115718 10.7564 50.681 -1.2 1 0.158092 0.0466148 0.00438632 0.0107279 0.00358245 0.0105762 0.00372867 0.0223334 0.00373034 0.0156132 0.00390389 0.0264468 0.00421547 0.0231605 0.00626489 0.0319199 0.00599095 0.029289 0.00971673 0.0386109
49 1 Mg -3.26386 9.35564 52.3622 1.2 1 0.121893 0.0397607 0.00158733 0.00767129 0.00251437 0.00987952 0.00301463 0.0215754 0.00305582 0.0139334 0.00401372 0.0259575 0.00342771 0.0200435 0.00496226 0.0321661 0.00473753 0.0274662 0.00782848 0.0385244
50 3 O 2.45216 10.7265 50.4558 -1.2 1 0.16178 0.0475128 0.00434147 0.00948733 0.00252712 0.0113874 0.0040212 0.0222712 0.00421962 0.0170053 0.00455163 0.0258711 0.00381637 0.0235122 0.00671717 0.0327724 0.006085 0.0299496 0.00944452 0.0383244
51 1 Mg -2.14881 9.7712 54.86 1.2 1 0.0590206 0.0297578 0.00585785 0.00579764 0.00237845 0.00657222 0.00208294 0.0210785 0.001831 0.0109058 0.00274962 0.0265171 0.00273811 0.019495 0.00415933 0.033487 0.00436085 0.0268216 0.00679316 0.0430738
52 2 Si -1.85524 7.33114 53.4986 2.4 1 0.08854 0.0355805 0.00373853 0.00634274 0.00302465 0.00690219 0.00227843 0.0208969 0.00311693 0.0123657 0.00235037 0.0255349 0.00264925 0.0190054 0.00385171 0.0316847 0.00484604 0.026336 0.00631578 0.0411967
53 3 O -1.88315 5.8228 53.1828 -1.2 1 0.0974311 0.035433 0.00265884 0.00560687 0.00226573 0.00687966 0.00195844 0.0204149 0.00322292 0.0116339 0.00287019 0.0249521 0.00264461 0.0182124 0.00474094 0.031295 0.00382635 0.0260167 0.00692188 0.0396959
54 3 O -1.19417 8.46968 46.4488 -1.2 1 0.272005 0.0521216 0.0210015 0.0172314 0.00588843 0.0146454 0.00828326 0.0237383 0.00738234 0.0183692 0.00803946 0.0253838 0.00641081 0.0210368 0.00972922 0.0303915 0.0110789 0.0308471 0.0131875 0.0316776
55 3 O -3.10102 8.03693 54.0027 -1.2 1 0.0829101 0.0324199 0.00318166 0.00563548 0.00239019 0.00754721 0.00228843 0.0210242 0.00255154 0.0123978 0.00264295 0.0251484 0.00272583 0.0190975 0.00428985 0.0325643 0.0043392 0.0262551 0.00723693 0.0410149
56 3 O -0.547253 8.01358 53.9105 -1.2 1 0.0799431 0.033841 0.00442993 0.00593048 0.0026635 0.00593319 0.00168239 0.0211476 0.0021205 0.0120506 0.00199426 0.0254089 0.00293675 0.0189316 0.00397049 0.0325079 0.00437961 0.0271257 0.00664013 0.0417646
57 1 Mg -3.22675 16.4616 57.1627 1.2 1 0.0219916 0.0154289 0.00495659 0.00555482 0.00137801 0.00661111 0.00182256 0.0209845 0.00172939 0.0101284 0.00223959 0.0261587 0.00226775 0.0197226 0.00317883 0.0323203 0.00380584 0.0259553 0.00488692 0.0448533
58 1 Mg -1.6714 16.3544 49.8412 1.2 1 0.179429 0.0480723 0.00728196 0.0126535 0.00368134 0.0151443 0.00321348 0.0252804 0.00392644 0.0186777 0.00463347 0.0300798 0.0039997 0.0265447 0.00572924 0.0340358 0.00608382 0.0321696 0.0098088 0.0399517
59 2 Si -1.18567 13.8526 47.9314 2.4 1 0.233254 0.0527544 0.0155088 0.0159557 0.00502874 0.0180797 0.00480671 0.0258011 0.007638 0.0203397 0.00729829 0.0296941 0.00547773 0.0282986 0.0070457 0.034233 0.0101933 0.0336584 0.0130652 0.0381769
60 3 O -1.09664 15.4205 47.9915 -1.2 1 0.233651 0.0522465 0.015181 0.016764 0.00550636 0.0194399 0.00460744 0.0264175 0.00695017 0.0207873 0.00753833 0.0303186 0.00595029 0.0282593 0.00831522 0.0350623 0.00976221 0.0349151 0.0127272 0.0386778
61 3 O -1.73493 12.7491 51.7772 -1.2 1 0.135341 0.0420643 0.00291543 0.00956436 0.00367138 0.0103683 0.00204507 0.0232186 0.00322959 0.0153029 0.00320883 0.0273889 0.0036748 0.0235663 0.00495968 0.0327955 0.0054018 0.0294809 0.00793497 0.0408964
62 3 O -2.36115 13.2717 48.8238 -1.2 1 0.2078 0.0529528 0.0102904 0.0136862 0.00510442 0.0145552 0.00476461 0.0254896 0.00565662 0.0205714 0.00541643 0.0291696 0.00477847 0.0269242 0.00623252 0.0342085 0.00863814 0.0331899 0.0115414 0.0378207
63 1 Mg -0.159928 11.7639 46.8533 1.2 1 0.261527 0.0526125 0.0192341 0.0180217 0.00619269 0.0198297 0.00690973 0.0269829 0.00864457 0.0200361 0.00908437 0.0294936 0.00653806 0.0270194 0.00887672 0.0333389 0.0118849 0.0344373 0.0148638 0.0358995
64 3 O 0.2623 13.1866 48.413 -1.2 1 0.218047 0.0529043 0.0120438 0.0148378 0.00470039 0.0160598 0.00461271 0.0254378 0.00627774 0.0196764 0.00614527 0.0281461 0.00519194 0.0283366 0.00638411 0.0337442 0.00903905 0.0344024 0.0119591 0.0383271
65 1 Mg 1.18817 11.8242 54.5229 1.2 1 0.0730177 0.0316817 0.00391939 0.00598014 0.00213108 0.00771864 0.00264867 0.0210714 0.00213892 0.0123798 0.00227491 0.0266114 0.00350315 0.0213522 0.00426151 0.0341954 0.0035678 0.0266805 0.00602933 0.0434334
66 2 Si 0.964209 14.4141 56.4096 2.4 1 0.0320952 0.0194551 0.00569026 0.00641493 0.00174198 0.00694283 0.00210161 0.0210404 0.001869 0.00939584 0.00305014 0.0256188 0.00255603 0.0201756 0.00383668 0.0330497 0.00380479 0.0265887 0.00616628 0.0468926
67 3 O 0.989262 12.9177 56.5062 -1.2 1 0.0322922 0.0193622 0.00545374 0.00592938 0.00141351 0.00679101 0.00195139 0.0215236 0.00246062 0.00948314 0.00205669 0.0266524 0.00282464 0.0195462 0.00340102 0.0335671 0.00391038 0.0267294 0.00534666 0.0468374
68 3 O 1.36565 15.4813 52.729 -1.2 1 0.111052 0.037498 0.00107691 0.00803816 0.00201839 0.0111075 0.00279362 0.022618 0.00253938 0.0149368 0.002981 0.0273556 0.00362179 0.0234039 0.00413514 0.0328214 0.00440329 0.0296906 0.00665267 0.0424822
69 3 O -0.262865 15.1573 55.6313 -1.2 1 0.0502882 0.0252949 0.0049713 0.00623549 0.0015261 0.00729866 0.00227577 0.0219978 0.00170712 0.0114736 0.00277828 0.0257313 0.00257912 0.0214082 0.00426281 0.0331832 0.00379689 0.0278165 0.00554601 0.0455769
70 3 O 2.27621 15.0451 55.6846 -1.2 1 0.043362 0.0237986 0.00592541 0.00623372 0.00144061 0.00651462 0.00211785 0.0210833 0.00158054 0.0107332 0.00259495 0.0257001 0.00239271 0.0206374 0.00387742 0.0337263 0.00351933 0.0274461 0.00614987 0.0450404
71 1 Mg -0.206989 14.1049 52.2121 1.2 1 0.117792 0.0415001 0.00167638 0.00855879 0.0030992 0.00960038 0.00214101 0.023208 0.0029335 0.0151299 0.00307678 0.0277375 0.00317394 0.0234939 0.00418627 0.0332907 0.0042231 0.0297149 0.00702298 0.0409826
72 1 Mg 1.82591 13.8102 49.4556 1.2 1 0.184157 0.0519117 0.00653655 0.0113178 0.00333658 0.0137129 0.00424869 0.0236218 0.00431009 0.0194123 0.00490756 0.0281559 0.0046164 0.0269366 0.0060198 0.0344544 0.00682299 0.0325509 0.0106109 0.0385463
73 2 Si 1.29285 16.1518 51.2434 2.4 1 0.141787 0.0447728 0.00235245 0.00987748 0.00269966 0.0126758 0.00306209 0.0236873 0.00347388 0.0169135 0.00417508 0.0273562 0.00382891 0.0257977 0.00474172 0.0330836 0.00459998 0.0314147 0.00858401 0.0418125
74 3 O 1.39496 17.7199 51.3047 -1.2 1 0.145245 0.0440703 0.00290574 0.00995698 0.00211162 0.0131147 0.00292318 0.0238375 0.00334266 0.016774 0.00335734 0.0282773 0.00401685 0.0253943 0.00394282 0.0333139 0.00506192 0.0312344 0.0079028 0.0418934
75 3 O 1.11624 15.1937 57.8774 -1.2 1 0.0161829 0.0126984 0.0041624 0.00563592 0.00160158 0.00670849 0.00169328 0.0216044 0.00161797 0.00919784 0.00290054 0.0257968 0.00246046 0.0197336 0.00277141 0.0326025 0.00320463 0.0263084 0.00458535 0.0459285
76 3 O -0.0269106 15.5178 50.6688 -1.2 1 0.157396 0.0463756 0.00460207 0.0112023 0.00364708 0.0131446 0.00279398 0.0238942 0.00398521 0.0170188 0.00354012 0.0281948 0.00361297 0.0263365 0.00534109 0.0334326 0.00454697 0.0314362 0.00865037 0.0407944
77 1 Mg -3.18391 14.1057 52.3125 1.2 1 0.12452 0.0409173 0.00192617 0.00838176 0.0025825 0.0114152 0.00258321 0.0226179 0.00269322 0.0154457 0.0029918 0.0274505 0.00316681 0.0238486 0.00411431 0.0331381 0.00427633 0.0293949 0.00696462 0.0404789
78 3 O 2.52432 15.503 50.4579 -1.2 1 0.159544 0.0475316 0.00466594 0.0100412 0.00267909 0.0134744 0.0034825 0.0241216 0.00349152 0.0187692 0.00403892 0.0282153 0.0036039 0.0263316 0.00594369 0.0340782 0.00508738 0.0315813 0.00890008 0.0403145
79 1 Mg -1.85034 14.0939 55.1934 1.2 1 0.0532467 0.0268654 0.00540711 0.0060825 0.00184406 0.00678973 0.00239369 0.0219515 0.00224118 0.0111987 0.00246462 0.0262744 0.00226309 0.0216129 0.0039704 0.0339351 0.00414498 0.0276485 0.00549963 0.0449661
80 2 Si -1.75022 12.2126 53.1897 2.4 1 0.102487 0.0376299 0.00245237 0.00762669 0.00352373 0.00852887 0.00194062 0.0225498 0.00322881 0.0138475 0.00262877 0.0265886 0.00311908 0.0223325 0.00390133 0.0333601 0.00505026 0.0282649 0.00685298 0.0421498
81 3 O -1.90425 10.592 53.1306 -1.2 1 0.100696 0.0370263 0.00292104 0.00712835 0.00319619 0.0083742 0.00180878 0.0214204 0.0028119 0.0126749 0.00303571 0.0259887 0.00326277 0.020068 0.00489541 0.0333545 0.00458563 0.0273567 0.00785332 0.0417758
82 3 O -1.21337 13.3381 46.4311 -1.2 1 0.273171 0.0519119 0.021549 0.0196608 0.00665678 0.0207721 0.00670323 0.0288109 0.00831488 0.0211662 0.00805095 0.0307176 0.00621472 0.0267831 0.00933924 0.035447 0.0134024 0.0363173 0.0152297 0.0364299
83 3 O -3.00699 12.7651 53.989 -1.2 1 0.0849208 0.0333089 0.00302686 0.00623718 0.0023321 0.00896199 0.00178073 0.0218037 0.00208427 0.0130116 0.002423 0.0261113 0.00252012 0.0219813 0.00424474 0.0334602 0.00351732 0.0280227 0.00616808 0.042535
84 3 O -0.298656 12.8033 53.7711 -1.2 1 0.0857042 0.0337621 0.00286349 0.00671069 0.00315407 0.00745274 0.00178171 0.0225181 0.00228664 0.0128006 0.00202597 0.0260678 0.00287805 0.0223435 0.00366114 0.0339399 0.00416859 0.0282761 0.00550381 0.0433643
85 1 Mg -3.30974 21.0416 57.4097 1.2 1 0.0203664 0.0155526 0.0050941 0.00633899 0.00107163 0.00705011 0.00197781 0.0207941 0.00185258 0.0107178 0.00270203 0.024571 0.00255873 0.0194783 0.00281939 0.031271 0.00397162 0.0259827 0.00469716 0.0433689
86 1 Mg -1.5831 21.1217 49.8405 1.2 1 0.180608 0.0486229 0.00715216 0.0128874 0.00319592 0.0161569 0.00279446 0.0257818 0.00317446 0.0191732 0.00469742 0.0295318 0.00396276 0.0267903 0.00610415 0.0342245 0.00582325 0.0330991 0.00985759 0.0399267
87 2 Si -1.09384 18.6291 47.9287 2.4 1 0.233653 0.0536585 0.0144429 0.0175281 0.00378287 0.020597 0.00468775 0.0274869 0.00655733 0.0214 0.00641857 0.0314676 0.00632694 0.0297356 0.00675227 0.0356381 0.00992841 0.035526 0.0123133 0.0402989
88 3 O -1.02071 20.1985 47.9911 -1.2 1 0.2321 0.0529275 0.0144473 0.0176103 0.00459141 0.0211498 0.00436613 0.0277009 0.00622395 0.0211934 0.00700441 0.0311755 0.00621942 0.0286517 0.00807979 0.0359724 0.00893064 0.0358846 0.0121202 0.0401972
89 3 O -1.65002 17.5002 51.771 -1.2 1 0.134575 0.041898 0.00226826 0.0102617 0.0029543 0.0120565 0.0014375 0.0233931 0.00247116 0.0155801 0.00289423 0.0277167 0.00371027 0.0245548 0.00421445 0.0328683 0.00514613 0.0301664 0.00755327 0.041765
90 3 O -2.26174 18.0434 48.8281 -1.2 1 0.203079 0.0525767 0.00975524 0.0143877 0.00380945 0.0172007 0.00394592 0.027015 0.0048277 0.0206521 0.0048795 0.0306504 0.00486361 0.0278523 0.00582379 0.0354414 0.00754637 0.0343099 0.0108767 0.0401321
91 1 Mg -0.0440435 16.5651 46.8269 1.2 1 0.256726 0.0533545 0.0183417 0.019419 0.00505752 0.0237881 0.00541668 0.0302923 0.00819888 0.0227805 0.00742164 0.0327924 0.00661388 0.029905 0.00835875 0.035271 0.0106581 0.0374927 0.0136912 0.0394345
92 3 O 0.37001 17.9877 48.3925 -1.2 1 0.214916 0.0533014 0.0113815 0.015767 0.00391281 0.0183156 0.00374976 0.0277738 0.00554883 0.0208552 0.00514115 0.0304199 0.00565219 0.0295052 0.00621902 0.0349603 0.00840207 0.0361162 0.0111736 0.04103
93 1 Mg 1.37165 16.3608 54.5191 1.2 1 0.0727552 0.0310962 0.00360505 0.00650429 0.00173757 0.00818074 0.00224018 0.0215032 0.0022131 0.012875 0.00235518 0.0262794 0.0029454 0.0224515 0.00351613 0.0333997 0.0042066 0.0279225 0.005333 0.0433428
94 2 Si 1.23686 19.0515 56.3223 2.4 1 0.0338812 0.020897 0.00555518 0.00680634 0.00130988 0.00733502 0.00194103 0.020876 0.00148171 0.00996758 0.00317546 0.0240568 0.00292512 0.0208046 0.00372929 0.0320027 0.00383041 0.0263404 0.00555863 0.0454181
95 3 O 1.19183 17.5643 56.3289 -1.2 1 0.0369881 0.0209686 0.00530033 0.00662519 0.00143783 0.00668409 0.00233795 0.0206552 0.00313475 0.00940157 0.00249193 0.024941 0.00347026 0.0202119 0.00331591 0.0324734 0.00516004 0.0263366 0.00538065 0.0454121
96 3 O 1.45147 20.239 52.7294 -1.2 1 0.110599 0.0380942 0.0011666 0.00834127 0.0016863 0.0118932 0.00275601 0.0227795 0.00257018 0.0150001 0.0032971 0.0267102 0.00368749 0.0233916 0.00414382 0.0321353 0.00363804 0.0299458 0.00642286 0.0421859
97 3 O -0.0390171 19.8945 55.8569 -1.2 1 0.0434738 0.0239372 0.005276 0.0067667 0.00114973 0.00748895 0.00209824 0.0215046 0.00167013 0.0109908 0.00264331 0.0241146 0.00280766 0.0213293 0.00429515 0.0323293 0.00407199 0.0274122 0.00504998 0.0449059
98 3 O 2.51303 19.6776 55.5591 -1.2 1 0.0462203 0.0250421 0.00538835 0.00654273 0.00147589 0.0076858 0.0024211 0.0213211 0.00190199 0.0108197 0.00232053 0.0242888 0.00270714 0.0212786 0.00318716 0.0327952 0.00382814 0.0276216 0.00535088 0.0448115
99 1 Mg -0.126194 18.8651 52.2079 1.2 1 0.116649 0.0417921 0.00143392 0.00919585 0.00244264 0.0104474 0.00189801 0.0232526 0.00217936 0.0157431 0.00278883 0.0274501 0.00310297 0.0244009 0.00355984 0.0326566 0.00378171 0.0304398 0.00674412 0.0416771
100 1 Mg 1.92402 18.5815 49.4545 1.2 1 0.1844 0.0525797 0.00582959 0.0122703 0.00231662 0.0153737 0.00382985 0.0256844 0.0039388 0.0201191 0.00479953 0.0296204 0.00503809 0.0278082 0.0051997 0.0351762 0.00620767 0.0339646 0.0103592 0.041008
101 2 Si 1.38106 20.9117 51.2443 2.4 1 0.144597 0.0462615 0.00243853 0.0108671 0.00238912 0.0135866 0.00319389 0.0245061 0.00276741 0.0175775 0.00445003 0.0273185 0.00372495 0.0260074 0.00460543 0.0328559 0.00374925 0.0322011 0.00829752 0.0416248
102 3 O 1.48527 22.4795 51.3054 -1.2 1 0.143717 0.0441229 0.0028476 0.0102935 0.00200306 0.013265 0.00298342 0.0237738 0.00304518 0.0167525 0.00303649 0.0273172 0.00349698 0.0249803 0.00386553 0.0330226 0.0049218 0.0315348 0.00731098 0.041213
103 3 O 1.40556 19.7374 57.8413 -1.2 1 0.0151593 0.0129429 0.00377138 0.00626344 0.00123482 0.00694597 0.00150295 0.021198 0.00159901 0.00982418 0.00281188 0.0244697 0.0028974 0.0193127 0.00365524 0.0315595 0.00407425 0.0257977 0.00512269 0.044244
104 3 O 0.0615419 20.2804 50.6669 -1.2 1 0.15665 0.0469226 0.00424334 0.0118395 0.00340761 0.0142439 0.00337871 0.0243069 0.00319607 0.0173345 0.00342567 0.0280498 0.00384878 0.0268749 0.00460151 0.0332838 0.00443852 0.0321161 0.00854128 0.0413363
105 1 Mg -3.09665 18.8643 52.3122 1.2 1 0.122357 0.0407446 0.00117505 0.00887249 0.00166126 0.0120571 0.00194957 0.0228912 0.00216617 0.0155407 0.00273798 0.027005 0.00324327 0.0247975 0.00344006 0.032363 0.00403713 0.0301231 0.00631603 0.0409369
106 3 O 2.61548 20.2646 50.4626 -1.2 1 0.157091 0.0477821 0.00395906 0.0105842 0.00159949 0.0142903 0.00292467 0.0250767 0.00277 0.0187698 0.00374887 0.0277188 0.00389861 0.0267555 0.00505989 0.0337457 0.00419883 0.0322818 0.00813889 0.0406959
107 1 Mg -1.67443 18.8129 55.1032 1.2 1 0.0535661 0.0273602 0.00490574 0.00692916 0.00184345 0.00770212 0.00245668 0.0218067 0.00215796 0.0116205 0.00281512 0.0250718 0.00231738 0.0220863 0.00388778 0.0327267 0.00445328 0.0281794 0.0053397 0.0444358
108 2 Si -1.46123 16.7519 53.1608 2.4 1 0.0992247 0.0367245 0.00204448 0.00819524 0.00297235 0.00875677 0.00162313 0.0224374 0.00282192 0.0140665 0.00242526 0.0264017 0.0030366 0.0238554 0.00269215 0.0327541 0.0041936 0.0292142 0.00591402 0.0436885
109 3 O -1.68227 15.1973 53.1023 -1.2 1 0.0975318 0.035894 0.00262992 0.00785211 0.0028363 0.00892765 0.00146311 0.021755 0.00252152 0.0133568 0.00229795 0.0269167 0.00277567 0.0226283 0.00462508 0.033347 0.0036541 0.0284254 0.00717497 0.0432657
110 3 O -1.12868 18.1227 46.4249 -1.2 1 0.270477 0.0532598 0.0201322 0.0208144 0.00570073 0.0242884 0.00571536 0.0311251 0.00693649 0.02238 0.00686685 0.0333616 0.00715354 0.028178 0.00927967 0.0373619 0.0124557 0.0383308 0.0143024 0.0399279
111 3 O -2.8718 17.3379 53.9824 -1.2 1 0.0833168 0.0327982 0.00282298 0.00681217 0.00155043 0.00919993 0.00146904 0.021739 0.00171395 0.0133668 0.00200848 0.0259228 0.00255043 0.0231897 0.00300745 0.0330804 0.0031935 0.0283774 0.00513298 0.0430734
112 3 O -0.284718 17.3347 53.8308 -1.2 1 0.0824302 0.0341166 0.00331803 0.00708446 0.00265321 0.00766926 0.00155245 0.0222157 0.00189956 0.0130764 0.00250545 0.0261096 0.0030708 0.0234013 0.00337186 0.0331033 0.00420175 0.028594 0.00529957 0.0438146
113 1 Mg -3.27882 25.9368 57.3369 1.2 1 0.0214349 0.0157096 0.00541156 0.00651397 0.00100217 0.00718812 0.00162714 0.0210561 0.00192152 0.00968311 0.00211726 0.0250742 0.00199969 0.0197027 0.00245231 0.0316951 0.00346096 0.0258357 0.00390346 0.044317
114 1 Mg -1.48778 25.88 49.8402 1.2 1 0.181296 0.049521 0.00720871 0.0133043 0.00342113 0.016153 0.00343185 0.0260285 0.00341568 0.019162 0.00481606 0.0297143 0.00353803 0.026743 0.00609262 0.0345573 0.00573522 0.033395 0.00989148 0.039383
115 2 Si -1.00491 23.3922 47.9274 2.4 1 0.235153 0.0549009 0.0150276 0.018041 0.00448674 0.0219418 0.00489155 0.0282549 0.00657067 0.0216821 0.00624338 0.0316999 0.0064157 0.0293025 0.00711256 0.0353877 0.00934925 0.0358383 0.0122183 0.0397069
116 3 O -0.927602 24.9615 47.9909 -1.2 1 0.23286 0.0540472 0.0148967 0.017954 0.00483429 0.0217467 0.00459589 0.0281736 0.00650856 0.0214237 0.00699754 0.0310901 0.00604357 0.0285376 0.00801311 0.0355715 0.00871035 0.0358855 0.0115907 0.0393592
117 3 O -1.55795 22.2588 51.7696 -1.2 1 0.135044 0.0425515 0.00244968 0.0104474 0.00241728 0.0125781 0.00178887 0.0240354 0.0018683 0.016159 0.00244175 0.0273519 0.003858 0.024828 0.00430698 0.032425 0.00506023 0.0309289 0.007577 0.0414849
118 3 O -2.17411 22.8111 48.8277 -1.2 1 0.204038 0.0534533 0.00939725 0.0150997 0.00355505 0.0176936 0.00380582 0.0276695 0.00405867 0.0212595 0.00478748 0.030527 0.00472281 0.0282916 0.00605601 0.0351977 0.00688473 0.0347975 0.0105119 0.0394883
119 1 Mg 0.0423997 21.3296 46.8225 1.2 1 0.257552 0.0542571 0.0185071 0.0201675 0.00532855 0.0251939 0.00587689 0.0311023 0.00733301 0.0233209 0.00723336 0.0335282 0.00723541 0.0296354 0.00876169 0.0356035 0.010414 0.0377261 0.0132356 0.0401455
120 3 O 0.458537 22.7495 48.3911 -1.2 1 0.217464 0.0545814 0.0114224 0.0165091 0.00441504 0.0194838 0.00398771 0.027989 0.00512695 0.0212496 0.00506546 0.0304933 0.00587168 0.0298469 0.00638099 0.0348357 0.00795237 0.0361754 0.0109597 0.040494
121 1 Mg 1.37786 21.2975 54.4722 1.2 1 0.0724057 0.0319117 0.00336671 0.00676377 0.00170292 0.00869658 0.00219075 0.0215319 0.00247608 0.0129669 0.00180014 0.0254903 0.00315158 0.0227663 0.00326617 0.0323001 0.00429114 0.0281634 0.00474519 0.0428746