ITEM: TIMESTEP
42500
ITEM: NUMBER OF ATOMS
10500
ITEM: BOX BOUNDS xy xz yz pp pp pp
0	8.9688	2.9896
0	118.725	0
0	252.977	0
ITEM: ATOMS id type element xu yu zu q Q_1 Q_2 Q_3 Q_4 Q_5 Q_6 Q_7 Q_8 Q_9 Q_10 Q_11 Q_12 Q_13 Q_14 Q_15 Q_16 Q_17 Q_18 Q_19 Q_20 Q_21
1 1 Mg -3.43571 7.00481 57.6619 1.2 1 0.0191006 0.0153867 0.00446287 0.00568568 0.00159064 0.00590309 0.00139217 0.021665 0.000881856 0.00954002 0.001788 0.0265522 0.00365779 0.0197945 0.00251568 0.0332421 0.0028385 0.0240201 0.00520104 0.0445493
2 1 Mg -1.82655 6.90154 50.0912 1.2 1 0.176196 0.0481452 0.00605219 0.0104778 0.00318907 0.00918147 0.00402316 0.0223652 0.00460349 0.0154213 0.00441228 0.0248219 0.00437291 0.0216876 0.00639652 0.0293885 0.00593305 0.0256513 0.00873044 0.0335291
3 2 Si -0.257935 3.96038 48.0876 2.4 1 0.223465 0.0540832 0.0114719 0.0133705 0.00257764 0.00977362 0.00382764 0.0203983 0.00593223 0.016939 0.00490832 0.0240648 0.00548138 0.020919 0.005781 0.0262493 0.0068903 0.025398 0.00929715 0.0317568
4 3 O -0.335812 5.46814 47.6264 -1.2 1 0.231014 0.0532402 0.0131045 0.0143123 0.00312692 0.0105916 0.00471133 0.0212043 0.0066046 0.0178102 0.0049379 0.0246874 0.00488125 0.0213737 0.00594749 0.026658 0.00775476 0.0260069 0.0101416 0.0305404
5 3 O -2.03793 3.43377 51.8941 -1.2 1 0.127866 0.0414442 0.00217245 0.00718894 0.00175145 0.00698377 0.00252897 0.0203805 0.00276543 0.012026 0.00334617 0.0243605 0.00356175 0.0187324 0.00372696 0.028041 0.00518279 0.0233463 0.00725447 0.0348552
6 3 O -1.54015 3.53929 48.9521 -1.2 1 0.198244 0.0515932 0.00811813 0.0116305 0.00259051 0.00863025 0.00354161 0.0205655 0.00518112 0.0153836 0.00477818 0.0235434 0.00441876 0.0205765 0.00556787 0.0267632 0.00530198 0.0251163 0.00828975 0.0309174
7 1 Mg 1.82954 2.54582 47.1376 1.2 1 0.245714 0.0538289 0.0158183 0.0163013 0.00339977 0.01072 0.00364561 0.0205328 0.00606746 0.0158176 0.00497184 0.0236375 0.00641583 0.0204525 0.00691979 0.024675 0.00659686 0.0243685 0.00917078 0.0299468
8 3 O 1.22989 3.66364 48.7877 -1.2 1 0.203936 0.0514763 0.00909313 0.0127962 0.00244617 0.009513 0.00412371 0.0205812 0.00436454 0.0155065 0.00398457 0.0233481 0.00457905 0.0203119 0.00608132 0.0262562 0.0043766 0.0247756 0.00878833 0.0318914
9 1 Mg 0.947019 2.27121 54.5416 1.2 1 0.0692932 0.0302626 0.00369932 0.00470952 0.0013505 0.00571047 0.00263372 0.0212443 0.00244651 0.0103221 0.0031583 0.0252713 0.00376816 0.0199921 0.00398645 0.0306447 0.00333109 0.0235015 0.00623671 0.0389743
10 2 Si 0.786243 4.94236 56.3009 2.4 1 0.0355074 0.0228194 0.00526558 0.00564928 0.00138845 0.00627756 0.00266643 0.0216593 0.00153161 0.00973407 0.00392879 0.0255757 0.00285843 0.0200627 0.00474208 0.0322829 0.00308705 0.0236662 0.00615653 0.0428739
11 3 O 0.699429 3.33051 56.5324 -1.2 1 0.0320927 0.0205105 0.00484876 0.00518499 0.00133026 0.00612133 0.00161998 0.0215177 0.00196002 0.00917371 0.00211083 0.0260106 0.00291425 0.0194781 0.00236484 0.031787 0.0033622 0.0239648 0.00489179 0.0422088
12 3 O 1.10813 6.07342 52.8172 -1.2 1 0.106442 0.0375732 0.00182161 0.00689491 0.00212147 0.00747426 0.00323215 0.0217539 0.00293285 0.0120071 0.00327525 0.025158 0.00421364 0.019839 0.00457141 0.0304217 0.00440732 0.0246142 0.00661251 0.0372132
13 3 O -0.564424 5.64301 55.8829 -1.2 1 0.0421291 0.0244188 0.00524175 0.00524961 0.0012591 0.00570696 0.00194379 0.0216408 0.00160603 0.00976504 0.00296719 0.025441 0.0027821 0.0195489 0.0036843 0.0324398 0.00313422 0.0241299 0.00624425 0.0425269
14 3 O 2.01112 5.62212 55.6744 -1.2 1 0.0441118 0.0256976 0.00548659 0.0052656 0.00109183 0.0061947 0.00201832 0.0216758 0.00134683 0.0100959 0.00342697 0.0255148 0.00272193 0.0198478 0.00414255 0.0327308 0.00291753 0.0241898 0.00598779 0.0414346
15 1 Mg -0.459401 4.67631 52.2426 1.2 1 0.123322 0.0414844 0.00193201 0.00723084 0.00221556 0.00675023 0.00249305 0.0211938 0.00291151 0.0125862 0.00298001 0.0250718 0.00375703 0.0198739 0.00442577 0.0291341 0.00413918 0.0238149 0.00680678 0.0346693
16 1 Mg 2.79456 3.9971 49.9987 1.2 1 0.172836 0.0499404 0.00504132 0.0104933 0.00258657 0.00818157 0.00401358 0.021029 0.00358249 0.0150298 0.00294503 0.0239226 0.00370183 0.0207939 0.0056288 0.0277465 0.00411835 0.0250065 0.0085127 0.0320487
17 2 Si 1.16169 6.59457 51.2556 2.4 1 0.145666 0.0459411 0.00249091 0.00906655 0.00268221 0.00855104 0.00405855 0.0218437 0.00402633 0.0139464 0.00469662 0.0244881 0.00432926 0.0214689 0.00668531 0.030435 0.00456616 0.0256937 0.0086808 0.0355617
18 3 O 1.28989 8.18905 51.2909 -1.2 1 0.147087 0.0452188 0.00254389 0.00936404 0.00265373 0.00957819 0.00382593 0.0222667 0.00409041 0.0142127 0.00398678 0.0261238 0.00399221 0.0221269 0.00508295 0.0313272 0.00579683 0.02685 0.00772433 0.0373471
19 3 O 0.987534 5.58412 57.9501 -1.2 1 0.0152913 0.0137808 0.00373605 0.0058896 0.00140556 0.00668823 0.00147358 0.0217195 0.00149518 0.0089205 0.00282531 0.0259745 0.0025449 0.0199256 0.00337244 0.033082 0.00273915 0.0241442 0.00500414 0.0447091
20 3 O -0.184847 6.06029 50.6845 -1.2 1 0.159996 0.0455735 0.00476667 0.00967729 0.00324508 0.00818001 0.00385964 0.0216597 0.00408011 0.0142009 0.00342791 0.0241827 0.00377923 0.0207176 0.00561672 0.0285912 0.00480568 0.0252337 0.00862544 0.0348257
21 1 Mg -3.49704 4.67769 52.6661 1.2 1 0.115533 0.0396029 0.00168406 0.00640506 0.00191098 0.00718676 0.00287421 0.0204247 0.00325751 0.0118277 0.00379377 0.0247611 0.00366016 0.0194263 0.00446243 0.0291586 0.00411088 0.0233639 0.00707749 0.0357216
22 3 O 2.48581 5.93312 50.6539 -1.2 1 0.156865 0.0475628 0.00382137 0.00878337 0.00166285 0.00917141 0.00403738 0.0217436 0.00395039 0.0145946 0.00414431 0.0239525 0.00413432 0.0215011 0.00581558 0.029353 0.00435889 0.0254836 0.00819042 0.0341495
23 1 Mg -2.18355 4.68458 55.2825 1.2 1 0.049628 0.0273903 0.00552935 0.00542182 0.0013651 0.00597035 0.00165425 0.0213699 0.0023399 0.00979597 0.00300572 0.0258093 0.00218489 0.0201994 0.00359099 0.0317662 0.00360017 0.0238703 0.0060966 0.0409984
24 2 Si -2.02066 2.68042 53.2594 2.4 1 0.103085 0.0375189 0.00242738 0.00631989 0.00213023 0.00620305 0.00191855 0.0202922 0.00295578 0.0113321 0.00282088 0.0241862 0.00308829 0.019525 0.00336273 0.0287694 0.00458377 0.0228154 0.0065135 0.0366376
25 3 O -1.99901 1.0618 53.1997 -1.2 1 0.0983642 0.0356639 0.00230014 0.0058742 0.00251619 0.00605779 0.00196459 0.020379 0.00286965 0.0106311 0.0032524 0.0251107 0.00335098 0.0193889 0.00393127 0.0292623 0.003696 0.0227122 0.00681076 0.036623
26 3 O -0.0467762 2.97103 46.8385 -1.2 1 0.250695 0.0542247 0.0161246 0.0158146 0.00364013 0.00980418 0.00384041 0.0201377 0.00669387 0.0167826 0.00647744 0.0237491 0.00703816 0.0195262 0.00790019 0.0249732 0.00697565 0.0247427 0.0103478 0.0312683
27 3 O -3.21034 3.26825 54.1531 -1.2 1 0.0800311 0.0326985 0.00292457 0.0051244 0.00163372 0.00600921 0.00210621 0.0207215 0.00263559 0.0109838 0.00283909 0.0244675 0.0027029 0.0194729 0.00324715 0.0299414 0.00383269 0.0230199 0.00634354 0.0377868
28 3 O -0.683545 3.17791 53.8541 -1.2 1 0.0833951 0.034163 0.00331224 0.00533201 0.00202915 0.00648671 0.00166793 0.021221 0.00234424 0.0108177 0.00253622 0.0248056 0.00345934 0.0199523 0.00301664 0.0299752 0.00351168 0.0237671 0.00616734 0.0382852
29 1 Mg -3.42352 11.8339 57.5492 1.2 1 0.021021 0.0152873 0.00409828 0.00549984 0.0013257 0.005913 0.00163103 0.0223032 0.001952 0.00995327 0.00194536 0.0273157 0.00271604 0.0199696 0.00292241 0.0339615 0.00292778 0.0250282 0.00463989 0.047186
30 1 Mg -1.75014 11.5838 49.8362 1.2 1 0.183988 0.0477135 0.00751603 0.0126401 0.00430466 0.0126263 0.00500534 0.024455 0.00513068 0.016095 0.00500915 0.028032 0.00428891 0.0243935 0.0074775 0.0337245 0.00698818 0.0292349 0.0103861 0.0374822
31 2 Si -1.18003 9.02138 47.9309 2.4 1 0.239308 0.0523847 0.0150487 0.0159105 0.00511822 0.0134503 0.00773209 0.0234015 0.00779753 0.0178753 0.0069554 0.0260865 0.00508087 0.0233658 0.0073755 0.0301489 0.00908314 0.0282381 0.0122261 0.0337529
32 3 O -1.23224 10.5991 47.9811 -1.2 1 0.229479 0.052989 0.0130698 0.0158394 0.00506592 0.0143215 0.00639237 0.0246159 0.00824547 0.0179161 0.00697445 0.0276355 0.00532785 0.0243124 0.00858616 0.0327083 0.00962738 0.0305397 0.0113319 0.0346304
33 3 O -1.79016 8.01447 51.8693 -1.2 1 0.131985 0.0411295 0.0021586 0.00874818 0.00327245 0.00793804 0.00268375 0.0220062 0.00323606 0.0130296 0.00348111 0.0259303 0.00373381 0.0207633 0.00493508 0.0312672 0.00562941 0.0253885 0.008485 0.0377134
34 3 O -2.30986 8.37215 48.8528 -1.2 1 0.20468 0.052512 0.00888735 0.0128958 0.00399049 0.0107752 0.00616695 0.0232612 0.00583639 0.0176513 0.00525101 0.0257135 0.004541 0.0234316 0.00666813 0.031204 0.00684258 0.0278036 0.010001 0.0338445
35 1 Mg 0.154883 7.08234 46.8007 1.2 1 0.255763 0.0537346 0.0181593 0.0161085 0.00579777 0.0137687 0.0086691 0.0237327 0.00781034 0.0181351 0.00729678 0.025024 0.00699978 0.0223468 0.0082409 0.0284511 0.0097817 0.0282058 0.013177 0.0312515
36 3 O 0.325447 8.50934 48.3809 -1.2 1 0.217973 0.0537633 0.0107605 0.0144957 0.00432854 0.0123585 0.00647053 0.0241331 0.00683558 0.0176334 0.00606225 0.0261329 0.00525314 0.0245167 0.00642533 0.0300419 0.00806028 0.0286967 0.010877 0.0339811
37 1 Mg 1.20112 7.12138 54.5306 1.2 1 0.0688843 0.0313256 0.00389505 0.00583591 0.00164922 0.00676452 0.00202912 0.0215177 0.00230296 0.0110626 0.00343082 0.0251308 0.0034849 0.0206197 0.00327999 0.032697 0.00401544 0.0247755 0.00655903 0.0408006
38 2 Si 1.01049 9.66201 56.4914 2.4 1 0.0330348 0.0210101 0.00534932 0.00626364 0.00148007 0.00638578 0.00198958 0.0221135 0.00187815 0.00949946 0.00362645 0.0258593 0.00291621 0.0207172 0.00360438 0.0339926 0.00312579 0.0246962 0.00633124 0.0465711
39 3 O 0.998551 8.12102 56.5719 -1.2 1 0.0290782 0.0197009 0.0055374 0.00587644 0.0014474 0.00643695 0.0018544 0.0217826 0.00222925 0.00884345 0.00238607 0.0260279 0.00316113 0.0195025 0.00297424 0.0332822 0.00391476 0.0244923 0.00593194 0.0451768
40 3 O 1.28624 10.7248 52.7351 -1.2 1 0.11265 0.0382101 0.00171092 0.00815789 0.00255819 0.00977771 0.00309844 0.0232906 0.0029113 0.0127539 0.00374603 0.0265114 0.00450045 0.0221023 0.00504931 0.0333627 0.00411738 0.0274863 0.00770344 0.0408477
41 3 O -0.24385 10.4897 55.854 -1.2 1 0.04677 0.0249244 0.00504787 0.00593159 0.00123466 0.00670233 0.00193679 0.0229678 0.00176825 0.0102213 0.00275188 0.0257025 0.00292732 0.0207412 0.0036657 0.0343285 0.00302399 0.0260795 0.00597237 0.0460231
42 3 O 2.37538 10.3449 55.9717 -1.2 1 0.0398722 0.0233362 0.00563466 0.00610585 0.00141932 0.00621008 0.0027807 0.0223937 0.00203282 0.0102004 0.00293958 0.0260029 0.00320359 0.0208712 0.00349275 0.0346204 0.0026897 0.0257256 0.00641672 0.0458505
43 1 Mg -0.262694 9.34741 52.2523 1.2 1 0.114566 0.0407193 0.00243137 0.00839234 0.00287573 0.00814455 0.00232061 0.0230945 0.00297235 0.0126304 0.00308707 0.0266056 0.00360106 0.021674 0.00493475 0.032782 0.00486748 0.0270182 0.00783402 0.0392357
44 1 Mg 1.87648 9.01537 49.4629 1.2 1 0.185633 0.0525447 0.00527244 0.011822 0.00308411 0.0112802 0.00627939 0.0236575 0.00534358 0.0167725 0.00524925 0.0263101 0.00471944 0.0238773 0.00677013 0.0318155 0.00566524 0.0287566 0.00996808 0.0352745
45 2 Si 1.21415 11.3799 51.2378 2.4 1 0.148254 0.045885 0.00227615 0.0103016 0.00341792 0.0111189 0.00410755 0.0240206 0.00387579 0.0147039 0.0048655 0.0266591 0.00426281 0.0244344 0.00666683 0.0338933 0.00518692 0.0295223 0.00957639 0.0397255
46 3 O 1.31634 12.9512 51.3023 -1.2 1 0.14785 0.044055 0.00304371 0.0101997 0.00281039 0.0117219 0.00333961 0.0244291 0.00428236 0.0147271 0.0037433 0.0281342 0.00418272 0.0247899 0.00540227 0.0346884 0.00540474 0.0297768 0.00844763 0.0409605
47 3 O 0.989774 10.4444 57.9957 -1.2 1 0.0161824 0.0134205 0.00346753 0.00563274 0.00151376 0.00650117 0.00171613 0.0223947 0.00169918 0.00894577 0.00302097 0.0263305 0.00274695 0.0200608 0.00323692 0.0336941 0.0025271 0.0249659 0.0050992 0.0474706
48 3 O -0.115718 10.7564 50.681 -1.2 1 0.158801 0.0464362 0.00413299 0.0113425 0.00393634 0.0107943 0.00455426 0.0234317 0.00394349 0.0144307 0.00391485 0.0266678 0.00438457 0.0238198 0.00635599 0.0331475 0.00561128 0.0285914 0.00968877 0.0387306
49 1 Mg -3.26386 9.35564 52.3622 1.2 1 0.122662 0.0396489 0.00160924 0.00804577 0.00221824 0.00982132 0.00343461 0.0225197 0.00333011 0.0129803 0.00390337 0.0262612 0.0035883 0.0216453 0.00516723 0.0328702 0.00467778 0.0265311 0.00784501 0.0381308
50 3 O 2.45216 10.7265 50.4558 -1.2 1 0.16598 0.048635 0.0039005 0.0102999 0.00265861 0.0119077 0.00488248 0.0236275 0.00481325 0.0164727 0.00431626 0.0270274 0.00393955 0.024766 0.00636497 0.0336976 0.00621197 0.0288905 0.00935653 0.0377488
51 1 Mg -1.84145 9.45078 55.1226 1.2 1 0.0538987 0.0279745 0.00515081 0.00612194 0.00153293 0.00665575 0.00220804 0.0224934 0.00222864 0.00995875 0.00340774 0.0261468 0.00274457 0.0209277 0.003693 0.0335179 0.00407976 0.0255725 0.00663826 0.043969
52 2 Si -1.74572 7.48996 53.4054 2.4 1 0.0949132 0.0361606 0.00242865 0.00694121 0.00279373 0.00745141 0.00229609 0.0214816 0.00298898 0.0118607 0.00308372 0.0251516 0.00339527 0.0210603 0.00364579 0.03161 0.00485259 0.0244252 0.00709027 0.0398034
53 3 O -1.82211 5.90864 53.3557 -1.2 1 0.0965576 0.0352735 0.00195607 0.00610042 0.00216263 0.00720243 0.0018655 0.0211138 0.00292756 0.0112486 0.00331417 0.0243359 0.00310899 0.020032 0.00446132 0.0310356 0.003381 0.0240966 0.00713952 0.0382829
54 3 O -1.19417 8.46968 46.4488 -1.2 1 0.26857 0.0533938 0.0202418 0.0181371 0.00587119 0.0146963 0.00896662 0.0247154 0.00826224 0.0180176 0.00747756 0.0258034 0.00632661 0.0221253 0.00955667 0.0301477 0.0103364 0.0296377 0.0127119 0.0314491
55 3 O -3.09616 8.16047 53.989 -1.2 1 0.0831783 0.0325071 0.00269151 0.00634164 0.00210045 0.00779992 0.00232409 0.0216073 0.00224327 0.0116086 0.00245077 0.0251642 0.00309409 0.0209588 0.0034335 0.0324646 0.00437201 0.0246836 0.00724978 0.0405126
56 3 O -0.513327 8.14066 54.1194 -1.2 1 0.0745173 0.0318295 0.00401214 0.00618 0.00221873 0.00648379 0.00136545 0.0219968 0.0019301 0.0109815 0.00260661 0.0249882 0.00311364 0.0208579 0.0037202 0.0327913 0.00402505 0.0256521 0.00673209 0.0420287
57 1 Mg -3.2127 16.7786 57.4738 1.2 1 0.0215922 0.0151925 0.00443594 0.00535613 0.00151564 0.00605978 0.00175245 0.0223117 0.00192099 0.00932037 0.00237061 0.0275435 0.00277838 0.0199821 0.00298637 0.033404 0.00319419 0.0251668 0.00532765 0.0469879
58 1 Mg -1.6714 16.3544 49.8412 1.2 1 0.181564 0.0480211 0.00673876 0.0131564 0.00346041 0.0150872 0.00356976 0.0264266 0.00502204 0.0176793 0.00478162 0.0307257 0.00438666 0.0263528 0.00689765 0.0359663 0.00605595 0.0318161 0.00968153 0.0404059
59 2 Si -1.18567 13.8526 47.9314 2.4 1 0.234268 0.0536745 0.0146588 0.0172046 0.00443167 0.0179938 0.00541806 0.0277041 0.00916319 0.0198488 0.0063737 0.0308715 0.00595414 0.0286965 0.00704105 0.0354536 0.0103632 0.0331111 0.0119913 0.0375063
60 3 O -1.09664 15.4205 47.9915 -1.2 1 0.232966 0.0524877 0.0141317 0.0178207 0.00498907 0.0195985 0.00517462 0.0282757 0.00809899 0.019874 0.00647331 0.0312512 0.00551188 0.0280255 0.00843709 0.0361836 0.00928915 0.0345398 0.0115918 0.0380796
61 3 O -1.73493 12.7491 51.7772 -1.2 1 0.135318 0.0410094 0.00264865 0.01008 0.00329396 0.0101392 0.00192919 0.0241914 0.00337476 0.0136552 0.00269265 0.0280511 0.00391498 0.0232459 0.00484279 0.0342566 0.00520611 0.0286121 0.00836815 0.0417023
62 3 O -2.36115 13.2717 48.8238 -1.2 1 0.207205 0.0524877 0.00938626 0.0146725 0.00461136 0.014516 0.00518204 0.0268483 0.00652739 0.0192532 0.0049938 0.0298721 0.00471026 0.0269598 0.00669087 0.0355609 0.00810231 0.0319981 0.01111 0.0375935
63 1 Mg -0.159928 11.7639 46.8533 1.2 1 0.258613 0.0539142 0.0183505 0.0188594 0.0057698 0.019827 0.0074911 0.0288443 0.00961082 0.0197806 0.00713294 0.0304624 0.00658604 0.0274132 0.00833519 0.0335344 0.0109744 0.0336111 0.0137075 0.0347715
64 3 O 0.2623 13.1866 48.413 -1.2 1 0.213261 0.0521793 0.0107415 0.0153167 0.00421123 0.0159671 0.00478363 0.0268911 0.00720148 0.0184607 0.00505969 0.0290703 0.00497193 0.0280956 0.00596725 0.0346891 0.0086796 0.0334181 0.0114165 0.037683
65 1 Mg 1.29904 11.8467 54.7749 1.2 1 0.0659986 0.0305185 0.00423641 0.00632579 0.00154437 0.00645338 0.00253915 0.0220612 0.00233678 0.0107889 0.00221723 0.026617 0.00373601 0.0220395 0.00326445 0.034967 0.00370591 0.025567 0.00639309 0.0444592
66 2 Si 1.1989 14.4256 56.487 2.4 1 0.0320329 0.0191679 0.0049144 0.00607375 0.00163397 0.0064708 0.0020663 0.0226339 0.00216278 0.0085331 0.00289741 0.0265621 0.00289632 0.0209654 0.00352557 0.0343492 0.00322303 0.0257438 0.00584724 0.0489378
67 3 O 1.10361 12.9055 56.6266 -1.2 1 0.0287063 0.0176919 0.00468303 0.00585507 0.00156348 0.00587012 0.00136268 0.0229632 0.00256811 0.00853074 0.00233319 0.0266523 0.00305611 0.0200809 0.00315913 0.0341418 0.00321198 0.0257782 0.00526769 0.0482996
68 3 O 1.36565 15.4813 52.729 -1.2 1 0.113068 0.0375438 0.00146852 0.00836367 0.00216061 0.0109071 0.00312767 0.0242576 0.00272596 0.0130581 0.00327166 0.0280976 0.00384721 0.0230397 0.00427868 0.0349547 0.0042796 0.0290287 0.00702805 0.0439812
69 3 O 0.0561682 15.1648 55.8237 -1.2 1 0.0469667 0.0239084 0.00482037 0.0058774 0.00116369 0.0068645 0.00204893 0.0225336 0.00167919 0.00911461 0.00237379 0.0266932 0.00270976 0.020738 0.00316263 0.0348006 0.00350815 0.0266993 0.00534168 0.0476568
70 3 O 2.53956 15.0092 55.7604 -1.2 1 0.0435403 0.023525 0.00545488 0.00589188 0.00113531 0.00631359 0.00240436 0.0228514 0.00193499 0.00949081 0.00292181 0.0266481 0.00270198 0.0214124 0.00340757 0.0351403 0.00319312 0.0267499 0.00620398 0.0474691
71 1 Mg -0.206989 14.1049 52.2121 1.2 1 0.117573 0.0406883 0.00157854 0.00910682 0.0027186 0.0092507 0.00223807 0.0244809 0.00296867 0.0134216 0.00274066 0.0284519 0.00344394 0.0237461 0.00481254 0.0348683 0.00379066 0.028772 0.00743274 0.0422619
72 1 Mg 1.82591 13.8102 49.4556 1.2 1 0.185369 0.0515712 0.00550895 0.0123682 0.00308957 0.0137087 0.00470454 0.0255984 0.0050763 0.0179163 0.00448369 0.0290308 0.00477284 0.0266159 0.00662433 0.0358338 0.00651336 0.0320296 0.0106081 0.0382386
73 2 Si 1.29285 16.1518 51.2434 2.4 1 0.146963 0.0457462 0.00240752 0.010774 0.00262775 0.0127604 0.00377305 0.0254963 0.00385081 0.0157917 0.00461006 0.028368 0.0041373 0.0255909 0.00604585 0.0355304 0.00425844 0.0316044 0.00909862 0.0424375
74 3 O 1.39496 17.7199 51.3047 -1.2 1 0.143631 0.043139 0.00234742 0.0101289 0.00196282 0.0124917 0.00303756 0.0250067 0.00373134 0.0149553 0.00289873 0.0288995 0.00399358 0.0246651 0.00438671 0.0354747 0.00545966 0.0307296 0.00778789 0.0422664
75 3 O 1.17609 15.0736 57.97 -1.2 1 0.0159719 0.0123818 0.00319491 0.00555763 0.0017277 0.00627214 0.00166439 0.0224288 0.00146163 0.00832304 0.00302536 0.0267168 0.00296453 0.0198004 0.00279789 0.0333582 0.00246225 0.0252247 0.00453218 0.0485296
76 3 O -0.0269106 15.5178 50.6688 -1.2 1 0.159223 0.0464425 0.00447229 0.0117977 0.00344092 0.012866 0.00374592 0.0254744 0.00406239 0.0156543 0.00342812 0.028971 0.00370145 0.0260546 0.00583741 0.0350038 0.00417166 0.0311783 0.00886654 0.0410945
77 1 Mg -3.18391 14.1057 52.3125 1.2 1 0.125172 0.0408307 0.00156152 0.00883814 0.00220701 0.0112408 0.00270519 0.0243981 0.00316189 0.0139424 0.00315013 0.0281809 0.00351548 0.0239387 0.00449527 0.0348017 0.00419431 0.0289479 0.00728785 0.0416844
78 3 O 2.52432 15.503 50.4579 -1.2 1 0.161533 0.0479168 0.00428686 0.0107481 0.00259186 0.0135325 0.00398199 0.0258165 0.00418121 0.017566 0.00380077 0.0288117 0.00414148 0.0267738 0.0061783 0.0355294 0.00539243 0.0311917 0.00896107 0.0406265
79 1 Mg -1.59702 14.2952 55.1052 1.2 1 0.0557205 0.0271611 0.00485532 0.00651815 0.00151434 0.00638454 0.00191775 0.023385 0.00239153 0.0101896 0.00285803 0.0269443 0.00264663 0.0219898 0.00370348 0.0347874 0.00369165 0.0267053 0.00566569 0.0467128
80 2 Si -1.69505 12.0954 53.402 2.4 1 0.095918 0.0361271 0.0029032 0.00789152 0.00257142 0.00819311 0.001839 0.0233079 0.00285738 0.0121721 0.0021444 0.0266441 0.00342185 0.0228022 0.00332291 0.0342801 0.00383073 0.0272495 0.0070132 0.0435829
81 3 O -1.84803 10.5507 53.3376 -1.2 1 0.0957332 0.0351305 0.00268173 0.00733036 0.00263864 0.00818832 0.00166444 0.0222502 0.00293584 0.0110781 0.00271539 0.0262052 0.00324054 0.0215941 0.00449364 0.0337971 0.00434593 0.0262129 0.00804197 0.0425707
82 3 O -1.21337 13.3381 46.4311 -1.2 1 0.269832 0.053039 0.0205947 0.0204891 0.00650734 0.0205015 0.00755091 0.0302971 0.0097724 0.0205368 0.00682642 0.0316612 0.00603254 0.027019 0.00910323 0.036 0.0125407 0.0352881 0.0135294 0.0354856
83 3 O -3.01906 12.7431 54.0195 -1.2 1 0.085825 0.0336538 0.00272056 0.00685155 0.00194494 0.00858294 0.00184343 0.0233173 0.00233893 0.0119058 0.00197232 0.0268583 0.0031915 0.0226327 0.00326512 0.0347704 0.00367779 0.0270872 0.00617141 0.0441241
84 3 O -0.36115 12.9001 54.0276 -1.2 1 0.0788603 0.0322887 0.00343786 0.00678337 0.00232344 0.0063745 0.00160821 0.0236918 0.00210632 0.0110577 0.00197495 0.0264608 0.00298444 0.0225665 0.00367242 0.035041 0.00351576 0.027514 0.00627803 0.0451103
85 1 Mg -3.24173 21.135 57.4579 1.2 1 0.0218427 0.0146389 0.00467508 0.00495763 0.00150843 0.00652533 0.00153232 0.0217787 0.00177077 0.00890353 0.00241782 0.0268119 0.00201791 0.0191923 0.00250034 0.0326052 0.00338368 0.0258296 0.00507868 0.0471863
86 1 Mg -1.5831 21.1217 49.8405 1.2 1 0.180838 0.0486069 0.00669929 0.0133406 0.00332806 0.0157467 0.00314158 0.0268476 0.0043666 0.0175843 0.004462 0.030463 0.00384423 0.0259387 0.00680764 0.0358204 0.00592755 0.0322342 0.0092245 0.0405019
87 2 Si -1.09384 18.6291 47.9287 2.4 1 0.233561 0.0541815 0.0138277 0.018417 0.00372372 0.0204912 0.00466877 0.029048 0.00746111 0.0203337 0.00604444 0.0320183 0.00571165 0.029037 0.00630952 0.0364856 0.00936494 0.0349707 0.0110639 0.0402478
88 3 O -1.02071 20.1985 47.9911 -1.2 1 0.230461 0.0532872 0.0138076 0.018012 0.00430271 0.0206934 0.00443788 0.0285318 0.00729258 0.0201634 0.00659132 0.0315949 0.00536117 0.0279837 0.00812858 0.0367745 0.0087908 0.0350812 0.0109992 0.040219
89 3 O -1.65002 17.5002 51.771 -1.2 1 0.135546 0.0412916 0.00215875 0.0105209 0.00253864 0.0115408 0.00182799 0.0249101 0.00283005 0.0143323 0.0025844 0.0286248 0.00394912 0.0239057 0.00443907 0.0351525 0.00493322 0.0297053 0.00777559 0.0426331
90 3 O -2.26174 18.0434 48.8281 -1.2 1 0.205459 0.0531755 0.00932954 0.0151227 0.00358916 0.0172389 0.00415466 0.0281561 0.00590718 0.0199278 0.004609 0.0309808 0.0044025 0.0277685 0.00607236 0.0367394 0.00734636 0.0341181 0.00987966 0.0397668
91 1 Mg -0.0440435 16.5651 46.8269 1.2 1 0.260372 0.0551037 0.0186342 0.0207426 0.0047662 0.0245091 0.00645478 0.0318423 0.00990165 0.0220913 0.00751635 0.0337939 0.00715804 0.0294838 0.00898298 0.0364397 0.00999462 0.0370105 0.0126876 0.0393587
92 3 O 0.37001 17.9877 48.3925 -1.2 1 0.214703 0.0531179 0.0103627 0.0163267 0.0036564 0.0181393 0.00381123 0.0283191 0.00635404 0.0195517 0.00482077 0.0309516 0.00462999 0.0289425 0.00622881 0.0361333 0.00785682 0.0353088 0.0105353 0.040934
93 1 Mg 1.44533 16.5703 54.6246 1.2 1 0.0724091 0.0307268 0.00374344 0.00643747 0.0014518 0.00765288 0.00270849 0.0225781 0.00243424 0.0113215 0.00200455 0.0276154 0.00363328 0.0226922 0.00336786 0.035026 0.00375 0.0267314 0.00617048 0.0451681
94 2 Si 1.24939 19.1879 56.3825 2.4 1 0.0333532 0.0198559 0.00568343 0.00602389 0.00158111 0.00680972 0.00174645 0.0219298 0.0019333 0.00837558 0.00309121 0.0261331 0.00284593 0.0207331 0.00355666 0.0330941 0.00387508 0.0257299 0.00651534 0.0482089
95 3 O 1.34596 17.6469 56.3872 -1.2 1 0.0364251 0.0208746 0.00544437 0.00577376 0.00137507 0.00609406 0.00203949 0.0220024 0.00283583 0.00819943 0.0022732 0.0268072 0.00345778 0.0204585 0.00276271 0.0336958 0.0046042 0.0256577 0.00643367 0.0476065
96 3 O 1.45147 20.239 52.7294 -1.2 1 0.112423 0.0374698 0.00103212 0.00847581 0.00157965 0.0116864 0.00281888 0.0242818 0.00250274 0.0131648 0.00298135 0.0278593 0.00384148 0.0229133 0.00428149 0.0342735 0.0041139 0.0290426 0.00662845 0.0431357
97 3 O -0.0575703 19.9557 55.8774 -1.2 1 0.0461392 0.0235054 0.00545487 0.00581497 0.00141773 0.00705349 0.00234866 0.0223984 0.00176388 0.00908167 0.00293332 0.0261545 0.00305663 0.0202642 0.00441925 0.0337824 0.00384774 0.0263921 0.00646782 0.0471805
98 3 O 2.55315 19.816 55.7612 -1.2 1 0.0445111 0.0235542 0.00609495 0.00579699 0.00127034 0.00684241 0.0024098 0.0220823 0.00215522 0.00914435 0.00250017 0.0261572 0.00282586 0.0210403 0.00343683 0.0341489 0.00340508 0.0268788 0.00616801 0.0470012
99 1 Mg -0.126194 18.8651 52.2079 1.2 1 0.118345 0.0411797 0.001678 0.00931226 0.00207976 0.0103013 0.00213168 0.024606 0.0023038 0.0138772 0.00298651 0.0285413 0.00347118 0.0238608 0.00434286 0.0350842 0.00390053 0.0299348 0.00755878 0.0423907
100 1 Mg 1.92402 18.5815 49.4545 1.2 1 0.181876 0.0519736 0.00471103 0.0126127 0.0020625 0.0150297 0.0038033 0.0262549 0.00454278 0.0186402 0.00405451 0.0303971 0.00449559 0.0276176 0.00595032 0.0367766 0.00601011 0.0332753 0.00975725 0.0409792
101 2 Si 1.38106 20.9117 51.2443 2.4 1 0.147227 0.0465 0.00173536 0.0109993 0.00245792 0.0136179 0.00370867 0.0253802 0.00317819 0.0158796 0.00475717 0.0280114 0.00420226 0.0254253 0.00670386 0.0348083 0.004192 0.0315727 0.00926735 0.0420623
102 3 O 1.48527 22.4795 51.3054 -1.2 1 0.14527 0.0438151 0.0024548 0.00995988 0.00197273 0.0130656 0.00286967 0.0245094 0.00365946 0.0148999 0.002984 0.0285498 0.00360013 0.0245083 0.00481166 0.0348907 0.00512993 0.0307975 0.00779491 0.0422811
103 3 O 1.32023 19.8406 57.9858 -1.2 1 0.0166845 0.0126057 0.00359179 0.00505961 0.00158341 0.00670831 0.00169678 0.0226294 0.00169588 0.0083121 0.00325977 0.0260903 0.00302744 0.019406 0.00307875 0.0323582 0.00301886 0.0257605 0.00505171 0.0481463
104 3 O 0.0615419 20.2804 50.6669 -1.2 1 0.156965 0.0462369 0.00352633 0.0120264 0.00322534 0.0137441 0.00351724 0.0255558 0.00338663 0.0157972 0.00295243 0.0288012 0.00399242 0.0258042 0.00537293 0.0349527 0.0044905 0.0313489 0.0085478 0.041698
105 1 Mg -3.09665 18.8643 52.3122 1.2 1 0.123493 0.0403795 0.000933013 0.00912722 0.00141476 0.0117578 0.00211751 0.0244768 0.00242962 0.0145776 0.00241818 0.0287409 0.00323575 0.0243061 0.00372741 0.0346388 0.00425685 0.0295149 0.00687906 0.0420616
106 3 O 2.61548 20.2646 50.4626 -1.2 1 0.160896 0.0484464 0.00362928 0.0111994 0.00184641 0.0142671 0.00359345 0.0258798 0.00343318 0.0172282 0.00336239 0.0287992 0.00379962 0.0265156 0.00564143 0.0353329 0.0047735 0.0317162 0.00815797 0.0414006
107 1 Mg -1.64438 18.8504 55.0372 1.2 1 0.0582021 0.0277935 0.00532464 0.00652794 0.00187218 0.00728844 0.00206773 0.0228284 0.00189573 0.0099908 0.00277417 0.0268076 0.00235365 0.0214588 0.00390789 0.0344428 0.00421631 0.0274727 0.00655316 0.0459025
108 2 Si -1.55388 16.8166 53.3419 2.4 1 0.0976425 0.0365145 0.00266923 0.0082896 0.00216747 0.00856937 0.00143001 0.0237304 0.00266148 0.0123521 0.00229708 0.0274218 0.00330965 0.0236808 0.00307703 0.0351053 0.00444729 0.0284997 0.00677457 0.045002
109 3 O -1.66246 15.2852 53.1626 -1.2 1 0.0980984 0.0356497 0.00259329 0.00809713 0.00223792 0.00878572 0.00139883 0.0231933 0.00265269 0.011565 0.00223521 0.0278059 0.0029404 0.0227749 0.00421339 0.035162 0.00370218 0.0277681 0.00753628 0.0450509
110 3 O -1.12868 18.1227 46.4249 -1.2 1 0.26759 0.0545957 0.0197226 0.0215915 0.00543947 0.023934 0.00637159 0.0327476 0.00844431 0.0215253 0.00637191 0.0339532 0.00675363 0.0275369 0.00853747 0.038099 0.0118356 0.0376533 0.0130354 0.039432
111 3 O -2.67278 17.4388 54.0931 -1.2 1 0.0818089 0.0328675 0.00338802 0.00683073 0.00152326 0.00861251 0.00178318 0.0228566 0.0016782 0.0115094 0.00202129 0.0273186 0.00280975 0.0228901 0.00305842 0.0350978 0.00333767 0.0276705 0.00679034 0.0446735
112 3 O -0.195211 17.665 53.8602 -1.2 1 0.0832598 0.0325481 0.00321565 0.00704939 0.00206205 0.00758825 0.00128623 0.0235452 0.00206212 0.0112972 0.00217842 0.02707 0.00284584 0.0229263 0.00343895 0.0348483 0.00426754 0.0279521 0.00654974 0.0451337
113 1 Mg -2.97407 26.0754 57.2607 1.2 1 0.0221579 0.0151006 0.0048456 0.00441828 0.00150374 0.00712467 0.00133431 0.0215362 0.00171892 0.00905399 0.00242178 0.0270308 0.00191828 0.0183681 0.00277289 0.0328101 0.00330881 0.0259033 0.00518084 0.0484905
114 1 Mg -1.48778 25.88 49.8402 1.2 1 0.182203 0.0487664 0.00695096 0.0130262 0.00335495 0.0160733 0.00249243 0.0259762 0.00386297 0.0177045 0.00434527 0.0309168 0.00358951 0.0257722 0.00668047 0.0350564 0.00587452 0.0319554 0.00954582 0.0411063
115 2 Si -1.00491 23.3922 47.9274 2.4 1 0.232434 0.0546239 0.0146345 0.0179875 0.00408445 0.0212381 0.00434833 0.0287328 0.00737141 0.020186 0.00600657 0.032062 0.00535363 0.0283543 0.00659363 0.0360225 0.00920412 0.0349254 0.0113489 0.0404027
116 3 O -0.927602 24.9615 47.9909 -1.2 1 0.229429 0.0533179 0.0143128 0.0174025 0.00437836 0.0209382 0.00388257 0.0281831 0.00691655 0.0200121 0.00614621 0.0316721 0.00527849 0.0279054 0.00733374 0.0362626 0.00832449 0.0348895 0.0107308 0.0403134
117 3 O -1.55795 22.2588 51.7696 -1.2 1 0.136052 0.0417556 0.0022228 0.0104147 0.00288041 0.0121376 0.00179396 0.0246569 0.00250124 0.0141848 0.00295621 0.0285416 0.00392915 0.0237171 0.00455154 0.0343889 0.00474026 0.0296114 0.00734535 0.0424673
118 3 O -2.17411 22.8111 48.8277 -1.2 1 0.204512 0.0538794 0.00891645 0.0152715 0.00360167 0.0175256 0.00324758 0.0283267 0.00513508 0.0198421 0.00437201 0.0311296 0.00413222 0.0273743 0.00571664 0.0361971 0.00703117 0.0343203 0.00995978 0.0403428
119 1 Mg 0.0423997 21.3296 46.8225 1.2 1 0.255691 0.0553031 0.0181437 0.0206085 0.00490281 0.024824 0.00584671 0.0316181 0.00855035 0.0216053 0.0069689 0.0333973 0.00616124 0.028911 0.00806333 0.0365829 0.00962367 0.0374798 0.0123727 0.0404209
120 3 O 0.458537 22.7495 48.3911 -1.2 1 0.214883 0.0541728 0.0105836 0.0165896 0.00374781 0.0187789 0.00334057 0.0283282 0.00594649 0.0197835 0.00455598 0.0309693 0.00502829 0.0287419 0.00578306 0.0355498 0.00768495 0.035505 0.010568 0.0411751