ITEM: TIMESTEP
20100
ITEM: NUMBER OF ATOMS
10500
ITEM: BOX BOUNDS xy xz yz pp pp pp
0	8.9688	2.9896
0	118.725	0
0	252.977	0
ITEM: ATOMS id type element xu yu zu q Q_1 Q_2 Q_3 Q_4 Q_5 Q_6 Q_7 Q_8 Q_9 Q_10 Q_11 Q_12 Q_13 Q_14 Q_15 Q_16 Q_17 Q_18 Q_19 Q_20 Q_21
1 1 Mg -3.20863 6.89194 57.4086 1.2 1 0.0227253 0.0150191 0.00510766 0.00572204 0.00102552 0.00633905 0.00114162 0.0229018 0.00125339 0.00949093 0.00181257 0.0280937 0.00220229 0.0199211 0.00259769 0.0335401 0.00296375 0.0259816 0.004274 0.0481547
2 1 Mg -1.82655 6.90154 50.0912 1.2 1 0.175333 0.0467706 0.00578423 0.0104898 0.00317458 0.00917238 0.00438909 0.0228647 0.00492607 0.0140279 0.00451984 0.0252833 0.00462795 0.0210834 0.00622014 0.0291851 0.00560828 0.0253532 0.0084833 0.0345549
3 2 Si -0.257935 3.96038 48.0876 2.4 1 0.224616 0.0528774 0.0111258 0.0129604 0.0026002 0.00963428 0.00379767 0.0205085 0.00613874 0.0165355 0.00428854 0.0242834 0.00546202 0.0211809 0.0053689 0.0266141 0.00674081 0.0247713 0.00854721 0.0329469
4 3 O -0.335812 5.46814 47.6264 -1.2 1 0.232156 0.0522331 0.0128106 0.0139702 0.00337966 0.0106275 0.00471084 0.0211444 0.00644722 0.0170891 0.00467679 0.0248668 0.00488121 0.0215478 0.00547006 0.0268861 0.00727694 0.0254279 0.0090149 0.0313672
5 3 O -2.03793 3.43377 51.8941 -1.2 1 0.128888 0.0405093 0.00234585 0.00729663 0.00202193 0.00697817 0.00296579 0.0206481 0.00271319 0.0112631 0.00328448 0.0250585 0.00378256 0.0188448 0.00427993 0.0296167 0.00531241 0.0236755 0.0077412 0.0377416
6 3 O -1.54015 3.53929 48.9521 -1.2 1 0.202359 0.0509687 0.00870038 0.0110735 0.00235349 0.0086283 0.00377498 0.0205153 0.00513403 0.0150188 0.00448478 0.0237722 0.00466146 0.0207703 0.00565309 0.0274704 0.0057341 0.0241262 0.00831308 0.0328954
7 1 Mg 1.82954 2.54582 47.1376 1.2 1 0.2452 0.0523418 0.0155374 0.0155909 0.00280799 0.0111767 0.00361578 0.0204098 0.00579726 0.0155443 0.00505794 0.0241998 0.00623782 0.0204708 0.00708575 0.0252201 0.00681508 0.0237463 0.00839568 0.0309949
8 3 O 1.22989 3.66364 48.7877 -1.2 1 0.205379 0.0500518 0.00915023 0.0120802 0.00210064 0.00972637 0.00407225 0.0205791 0.00435628 0.0146951 0.00368327 0.0237661 0.0048761 0.0204879 0.00595331 0.0267432 0.00487477 0.0241103 0.00864203 0.0334355
9 1 Mg 0.972252 2.29692 54.6648 1.2 1 0.0682591 0.0289066 0.00466395 0.00502914 0.00149769 0.00539102 0.00318531 0.0217925 0.00255962 0.0102234 0.0028271 0.0265149 0.00376867 0.0203991 0.00431705 0.0328218 0.00290832 0.0244541 0.00655375 0.0434694
10 2 Si 1.17186 4.90774 56.409 2.4 1 0.0329869 0.0194904 0.0060114 0.00593192 0.00130818 0.00669251 0.00265084 0.0223493 0.00188758 0.00888355 0.00320195 0.0266307 0.00256442 0.0203767 0.0040254 0.0334254 0.00321745 0.0251851 0.00624494 0.0484366
11 3 O 1.00484 3.36654 56.4758 -1.2 1 0.0361717 0.0201236 0.00577612 0.00539397 0.00112207 0.00556873 0.0024987 0.0222768 0.00292234 0.00871048 0.0027185 0.0276523 0.0031485 0.0194665 0.00294787 0.0333011 0.00389915 0.0252129 0.0055272 0.0473138
12 3 O 1.10813 6.07342 52.8172 -1.2 1 0.107028 0.0365252 0.00251185 0.00722579 0.0022484 0.00732589 0.00347589 0.0222931 0.00325197 0.0108698 0.00291225 0.0257817 0.00411048 0.0195641 0.00468418 0.0305699 0.00451385 0.0249843 0.00691055 0.0395387
13 3 O -0.193771 5.62753 55.8086 -1.2 1 0.0464763 0.0239744 0.0057262 0.00536223 0.00143365 0.00547351 0.00268125 0.0223417 0.0022762 0.00984243 0.00296595 0.0269154 0.00302184 0.0201252 0.00472446 0.0330926 0.00306505 0.0252833 0.00575784 0.0459949
14 3 O 2.40248 5.57118 55.8075 -1.2 1 0.0420503 0.0229292 0.00627246 0.00521403 0.00102355 0.00640239 0.00269124 0.0225353 0.00141713 0.00918847 0.00260232 0.0268197 0.00308664 0.01995 0.00437708 0.0338278 0.002867 0.0259264 0.00629247 0.046412
15 1 Mg -0.459401 4.67631 52.2426 1.2 1 0.123709 0.0404518 0.0022539 0.00738092 0.00232306 0.0069017 0.00269454 0.0213385 0.00299556 0.0119555 0.00299667 0.0258028 0.00408913 0.0196917 0.00454583 0.0298834 0.00455692 0.0237983 0.00722483 0.0372317
16 1 Mg 2.79456 3.9971 49.9987 1.2 1 0.174878 0.0488063 0.00526007 0.0101077 0.00242112 0.00826605 0.00467332 0.0211155 0.00357879 0.0144502 0.00282537 0.0242266 0.00472274 0.0212147 0.00605565 0.0281502 0.00434072 0.0244996 0.00870887 0.0339224
17 2 Si 1.16169 6.59457 51.2556 2.4 1 0.14703 0.045215 0.00225576 0.00951099 0.00257541 0.00863836 0.00398377 0.0219905 0.00447178 0.0127938 0.0044338 0.0247477 0.00443914 0.0211273 0.00612449 0.030115 0.00453382 0.025354 0.00900829 0.0368746
18 3 O 1.28989 8.18905 51.2909 -1.2 1 0.146693 0.0443548 0.00258603 0.00959285 0.00235722 0.00943982 0.00424068 0.0226066 0.00431842 0.0128753 0.00380583 0.0267078 0.00399757 0.0217097 0.00495545 0.0304567 0.00528541 0.0258675 0.00810667 0.037963
19 3 O 1.19359 5.57016 57.9354 -1.2 1 0.0158444 0.012107 0.00372129 0.00583764 0.0011052 0.00658279 0.00151085 0.0231044 0.00160692 0.00887028 0.00233372 0.0277902 0.00248969 0.0202429 0.00296699 0.0341008 0.00234788 0.0261166 0.00365735 0.0497613
20 3 O -0.184847 6.06029 50.6845 -1.2 1 0.15937 0.0446033 0.00434904 0.00965042 0.00316987 0.00836381 0.00407828 0.0222118 0.00453522 0.0133218 0.00309461 0.0246256 0.00401427 0.020688 0.00552683 0.0284349 0.00505223 0.024804 0.00793968 0.0359847
21 1 Mg -3.49704 4.67769 52.6661 1.2 1 0.116352 0.03845 0.00191799 0.00685442 0.00220493 0.00718373 0.0030297 0.0209721 0.00348887 0.0111252 0.00338382 0.025567 0.00366151 0.0192753 0.00429292 0.0298042 0.00437159 0.0236547 0.00777178 0.0383747
22 3 O 2.48581 5.93312 50.6539 -1.2 1 0.155548 0.0460484 0.00325945 0.0089108 0.00186369 0.00891825 0.00428094 0.0218273 0.00411244 0.0132761 0.00370598 0.0244048 0.0045849 0.0209311 0.00591976 0.0296821 0.00421588 0.0251568 0.00900502 0.0354304
23 1 Mg -1.77335 4.62887 55.2937 1.2 1 0.0515073 0.0258075 0.00628822 0.00531536 0.0017128 0.00582515 0.00236338 0.0219082 0.00248473 0.00947253 0.00329756 0.0271579 0.00254681 0.020273 0.00451582 0.0331179 0.00374991 0.0250723 0.00649685 0.0450122
24 2 Si -1.98464 2.59151 53.3015 2.4 1 0.100198 0.0351043 0.00318045 0.00603327 0.00233234 0.00638574 0.00238274 0.0211982 0.00286317 0.0109342 0.00330683 0.0250818 0.00313511 0.0201538 0.00371338 0.031019 0.00426024 0.0237637 0.00690992 0.0407714
25 3 O -2.02635 1.03049 53.1268 -1.2 1 0.10081 0.0353595 0.00304232 0.00607518 0.00276915 0.00587326 0.00239392 0.0211789 0.00287563 0.0106575 0.00300515 0.0260165 0.00334683 0.019575 0.00446451 0.031145 0.00422336 0.0238746 0.00701687 0.0403706
26 3 O -0.0467762 2.97103 46.8385 -1.2 1 0.252023 0.0530889 0.0162595 0.0150444 0.00302598 0.0101368 0.00380205 0.0201126 0.00675896 0.0165798 0.00598856 0.0238044 0.00717709 0.0200086 0.00764858 0.0251692 0.00678783 0.0239973 0.0094072 0.032269
27 3 O -3.24269 3.20315 54.0649 -1.2 1 0.0805606 0.031355 0.00384185 0.00501382 0.00174122 0.00589857 0.00226559 0.0213206 0.00274482 0.0103474 0.00250976 0.0255979 0.00277132 0.0197875 0.00364741 0.0317161 0.00362788 0.0237065 0.00697023 0.0420647
28 3 O -0.764411 3.20967 54.0632 -1.2 1 0.0814176 0.0319397 0.00411566 0.00514074 0.00194664 0.00616702 0.00201881 0.0217439 0.00253843 0.0106105 0.00271722 0.0258398 0.00324839 0.0203567 0.00344166 0.0319878 0.00328988 0.0246025 0.0065895 0.0417587
29 1 Mg -3.08269 11.7198 57.5028 1.2 1 0.0215642 0.014191 0.00457353 0.00623991 0.00156735 0.00615201 0.00143688 0.0236092 0.0019022 0.00962059 0.00146852 0.028926 0.00249968 0.0202738 0.00258676 0.0336581 0.00227785 0.0255606 0.00343815 0.049241
30 1 Mg -1.75014 11.5838 49.8362 1.2 1 0.182667 0.0478155 0.00686857 0.0128527 0.00397669 0.0127087 0.00478576 0.0243773 0.00573258 0.0154677 0.00495036 0.0284125 0.00440035 0.0235456 0.00669887 0.0327214 0.00663785 0.0278124 0.00913841 0.0370625
31 2 Si -1.18003 9.02138 47.9309 2.4 1 0.237621 0.0514336 0.0141843 0.0158506 0.00518646 0.0132052 0.00755909 0.0230837 0.00852243 0.0168834 0.00693317 0.0263396 0.00499564 0.0229129 0.0067179 0.0299697 0.00861348 0.0273897 0.0116646 0.0340961
32 3 O -1.23224 10.5991 47.9811 -1.2 1 0.227624 0.0522182 0.0121211 0.0161968 0.00494969 0.0141581 0.00629671 0.0243306 0.00828301 0.0171875 0.00660905 0.0276555 0.00534196 0.0237978 0.00777409 0.0323802 0.00883116 0.0292668 0.0103009 0.0344807
33 3 O -1.79016 8.01447 51.8693 -1.2 1 0.132293 0.0405548 0.0021276 0.00898018 0.00324246 0.00790489 0.00313855 0.022579 0.0037426 0.0120972 0.00358229 0.0265272 0.00392285 0.0206558 0.00454346 0.0307759 0.00540449 0.024992 0.00814428 0.0386245
34 3 O -2.30986 8.37215 48.8528 -1.2 1 0.205124 0.051705 0.00867573 0.012864 0.0039747 0.0108135 0.00607415 0.0233576 0.00626411 0.0166277 0.00488521 0.0260443 0.00441244 0.0230291 0.00606272 0.0306832 0.00655468 0.0269368 0.00939794 0.0339109
35 1 Mg 0.154883 7.08234 46.8007 1.2 1 0.259404 0.0525743 0.0171918 0.01686 0.00574541 0.013491 0.00853556 0.0237604 0.00812563 0.0173448 0.0074366 0.0251297 0.00733171 0.0219049 0.00868528 0.0284234 0.00913114 0.0275122 0.0125461 0.0315692
36 3 O 0.325447 8.50934 48.3809 -1.2 1 0.219851 0.0531861 0.0104344 0.0148236 0.00384109 0.0124645 0.0063412 0.0242881 0.00712985 0.0169203 0.00577988 0.0257479 0.00539624 0.0240529 0.00555454 0.0297716 0.0074716 0.0278634 0.0101002 0.0335149
37 1 Mg 1.20275 7.04619 54.6942 1.2 1 0.0668785 0.0288829 0.00452427 0.00578566 0.00156692 0.0061547 0.00263452 0.022313 0.00245738 0.0102036 0.00292836 0.0267022 0.00362105 0.0204997 0.00383812 0.032855 0.00324954 0.0250101 0.00658078 0.0437729
38 2 Si 1.42659 9.67624 56.5153 2.4 1 0.0325376 0.019228 0.00583317 0.006681 0.00109448 0.00630891 0.00250301 0.0231855 0.00183561 0.00910621 0.00271439 0.0272341 0.0024512 0.0208997 0.00366631 0.0334614 0.00305004 0.0256989 0.00520246 0.0494079
39 3 O 1.30227 8.14029 56.6348 -1.2 1 0.0302326 0.0182157 0.00559236 0.00602218 0.000947046 0.0061927 0.00158073 0.0225495 0.00248502 0.00848695 0.00228159 0.0275454 0.00273221 0.0195553 0.00323094 0.033647 0.0033209 0.0254701 0.00507449 0.0483943
40 3 O 1.28624 10.7248 52.7351 -1.2 1 0.111293 0.0376087 0.00191341 0.00829074 0.00220221 0.00962267 0.0032246 0.0236008 0.00345375 0.0118206 0.00351908 0.0274878 0.00437803 0.0214811 0.00456778 0.0326436 0.00434072 0.0263088 0.00704894 0.0414559
41 3 O 0.124023 10.4448 55.8314 -1.2 1 0.0468221 0.0240094 0.0053008 0.00656612 0.00114439 0.00627092 0.00219702 0.0227498 0.0018647 0.00958855 0.00232841 0.0275837 0.00279857 0.0206714 0.00352766 0.0340525 0.00306577 0.0253116 0.0054354 0.0469734
42 3 O 2.70949 10.3701 55.9348 -1.2 1 0.0406717 0.0228026 0.00632295 0.00632716 0.00117691 0.00625118 0.00256526 0.0235903 0.0018207 0.00973474 0.00292445 0.0275169 0.00276666 0.0209297 0.00375269 0.034218 0.00260008 0.0261679 0.00562412 0.0480858
43 1 Mg -0.262694 9.34741 52.2523 1.2 1 0.112561 0.0397327 0.00273983 0.00865899 0.00262042 0.00803102 0.00262553 0.0233438 0.00338195 0.0117067 0.00325938 0.0275592 0.00384379 0.0208103 0.00488369 0.0320692 0.00416602 0.0260404 0.00740849 0.0395166
44 1 Mg 1.87648 9.01537 49.4629 1.2 1 0.18327 0.0514761 0.00499577 0.0118414 0.00263917 0.0108616 0.00608241 0.023287 0.00561765 0.0157355 0.00465584 0.0267546 0.00479012 0.0232942 0.00588003 0.0311406 0.00519652 0.0272483 0.00988125 0.0352517
45 2 Si 1.21415 11.3799 51.2378 2.4 1 0.147957 0.0458896 0.00170291 0.0107128 0.00246816 0.0110688 0.00402955 0.0241969 0.0043917 0.0140919 0.00472673 0.0269957 0.00444621 0.023366 0.00570799 0.0330413 0.00487041 0.0278548 0.00897777 0.0399203
46 3 O 1.31634 12.9512 51.3023 -1.2 1 0.14544 0.0444939 0.00244382 0.010516 0.00220889 0.0116772 0.00377006 0.0244292 0.00464591 0.0143201 0.00338841 0.0287887 0.00446549 0.0237571 0.00447955 0.0336398 0.0053374 0.0280922 0.00765492 0.0404779
47 3 O 1.31676 10.3471 58.0425 -1.2 1 0.0166599 0.0119429 0.0037627 0.0062716 0.00109566 0.00630304 0.00151984 0.0236347 0.00169557 0.00877054 0.00214778 0.0279487 0.00229521 0.0204471 0.00275222 0.0338 0.00212669 0.0259424 0.00333937 0.0500286
48 3 O -0.115718 10.7564 50.681 -1.2 1 0.157887 0.0465985 0.00305635 0.0115853 0.00313517 0.0109148 0.00413575 0.024462 0.00470253 0.014121 0.00361104 0.027467 0.00468539 0.0232646 0.00514065 0.031758 0.0048708 0.027189 0.0087293 0.0384757
49 1 Mg -3.26386 9.35564 52.3622 1.2 1 0.12376 0.0395621 0.00174135 0.00804816 0.00229911 0.00943505 0.00378666 0.0232189 0.00366598 0.0120854 0.00395807 0.0268532 0.00373292 0.0211333 0.00464715 0.0320576 0.00447994 0.0258309 0.0082159 0.0389327
50 3 O 2.45216 10.7265 50.4558 -1.2 1 0.161186 0.0473652 0.00331216 0.0103723 0.0025491 0.0114673 0.00482817 0.0234784 0.00492332 0.0150158 0.00405164 0.0270782 0.00406448 0.0234763 0.00611942 0.0324881 0.0052268 0.0272684 0.00902313 0.0382103
51 1 Mg -1.51777 9.39712 55.2556 1.2 1 0.050525 0.0258633 0.00581773 0.0068799 0.00182975 0.00589916 0.00239518 0.0232246 0.0026694 0.00948819 0.00335819 0.0276589 0.002973 0.0207095 0.00343375 0.0333128 0.00360526 0.0252575 0.00627843 0.046359
52 2 Si -1.76716 7.33793 53.3807 2.4 1 0.0943719 0.0358006 0.00353683 0.00713987 0.00280485 0.00677691 0.00226219 0.0219918 0.00350124 0.0108006 0.00301738 0.0262312 0.00305302 0.0206302 0.0034188 0.0315108 0.00494441 0.0244708 0.00677464 0.0416348
53 3 O -1.88136 5.76099 53.3344 -1.2 1 0.0960932 0.0338063 0.00254735 0.00618599 0.00228814 0.00675578 0.00206228 0.0212555 0.00349125 0.0100698 0.00326339 0.0255771 0.00298438 0.0197088 0.00435413 0.0315725 0.00386117 0.024317 0.00745529 0.0407102
54 3 O -1.19417 8.46968 46.4488 -1.2 1 0.269504 0.0525323 0.0193682 0.0184222 0.00568462 0.0147302 0.0086243 0.0247255 0.0084925 0.0173816 0.00718839 0.0255463 0.00619008 0.0214697 0.00913731 0.0301365 0.00977661 0.0290957 0.0111156 0.0310282
55 3 O -3.09618 8.02301 54.1387 -1.2 1 0.0786312 0.0305427 0.003633 0.00624151 0.0018823 0.0073494 0.00238425 0.0225882 0.00261215 0.010418 0.00250283 0.0263614 0.00330461 0.0206042 0.00363419 0.0326254 0.00428759 0.0252036 0.00697067 0.0428491
56 3 O -0.506481 8.06506 53.9984 -1.2 1 0.076795 0.0316938 0.00472895 0.00627373 0.00231244 0.0059109 0.00167085 0.022535 0.00250024 0.0102182 0.00273533 0.0265423 0.0027165 0.0203766 0.00386523 0.0327416 0.00370936 0.0255417 0.00675193 0.0427679
57 1 Mg -3.12773 16.5597 57.4895 1.2 1 0.0217596 0.0144757 0.00523954 0.00630748 0.00124048 0.00607691 0.00157745 0.023667 0.00219662 0.00992807 0.00228773 0.0292826 0.00183157 0.0204046 0.00223979 0.0340609 0.00273108 0.0254001 0.00384708 0.0485536
58 1 Mg -1.6714 16.3544 49.8412 1.2 1 0.178968 0.0494841 0.00685161 0.0136642 0.0030942 0.0151734 0.00302521 0.0262708 0.00533023 0.0176349 0.00457994 0.0313186 0.00401807 0.0259174 0.0064992 0.0349839 0.00526518 0.0307424 0.00824 0.0397617
59 2 Si -1.18567 13.8526 47.9314 2.4 1 0.231088 0.0541895 0.0144066 0.0173506 0.00429018 0.0181132 0.00526265 0.027088 0.00893021 0.0196312 0.00556869 0.0308769 0.00565172 0.028092 0.00579603 0.0347571 0.00938628 0.0318964 0.0101094 0.0375687
60 3 O -1.09664 15.4205 47.9915 -1.2 1 0.227967 0.0531696 0.0139505 0.017583 0.00441925 0.0190926 0.00458999 0.0275516 0.00807311 0.0195864 0.00576614 0.0309779 0.00545683 0.0272912 0.00757304 0.0357005 0.00791721 0.0329376 0.00937429 0.0382303
61 3 O -1.73493 12.7491 51.7772 -1.2 1 0.134109 0.041614 0.00178794 0.0103912 0.00277968 0.0101915 0.00188772 0.0245692 0.00406785 0.0136187 0.00295569 0.0287843 0.00419431 0.022998 0.00455845 0.0331641 0.00515339 0.0269315 0.00765576 0.041217
62 3 O -2.36115 13.2717 48.8238 -1.2 1 0.20401 0.0532434 0.0094252 0.0146449 0.00412612 0.0146419 0.00500191 0.0265655 0.00663704 0.0190339 0.0047996 0.0302642 0.00433589 0.0264898 0.00546003 0.0343891 0.00729829 0.0307708 0.00905346 0.0369742
63 1 Mg -0.159928 11.7639 46.8533 1.2 1 0.258153 0.0536397 0.017997 0.0190151 0.00599936 0.0198654 0.00724732 0.0281065 0.00972039 0.0194746 0.00738442 0.0302101 0.00666046 0.0269154 0.00786785 0.0336713 0.0104363 0.0326401 0.0120913 0.0350257
64 3 O 0.2623 13.1866 48.413 -1.2 1 0.21304 0.05319 0.0107929 0.0156005 0.00347761 0.0160979 0.00458643 0.0267856 0.00767685 0.0182644 0.00454704 0.02949 0.00486226 0.0274517 0.00482715 0.0339627 0.00801301 0.0319255 0.00918763 0.0376823
65 1 Mg 1.37777 11.75 54.5975 1.2 1 0.0743976 0.0310775 0.00352308 0.00713361 0.00171309 0.00760908 0.002754 0.023182 0.00287232 0.0112953 0.00232754 0.028292 0.00366964 0.0221853 0.00317278 0.033612 0.00412264 0.025161 0.00563714 0.0442527
66 2 Si 1.41874 14.4674 56.3992 2.4 1 0.0345808 0.0199534 0.00579956 0.00717212 0.00132628 0.00566262 0.00214295 0.0234263 0.00176359 0.00949745 0.00314543 0.0284561 0.00270593 0.0209727 0.00444076 0.0340861 0.00287602 0.0252161 0.00553009 0.0494853
67 3 O 1.35575 12.9092 56.5142 -1.2 1 0.0309184 0.018599 0.00574906 0.00692223 0.00134747 0.00590681 0.00196009 0.0233422 0.00306191 0.0088473 0.00187369 0.0282687 0.00307703 0.0202927 0.00259019 0.0340586 0.00327418 0.0254823 0.00440139 0.0494792
68 3 O 1.36565 15.4813 52.729 -1.2 1 0.11205 0.0386301 0.0011689 0.0087642 0.00197897 0.010766 0.00339199 0.0244921 0.00337083 0.0134441 0.00324809 0.0292935 0.00420926 0.0226285 0.00455376 0.0337726 0.0043477 0.0276292 0.00660512 0.0430261
69 3 O 0.110534 15.1659 55.8043 -1.2 1 0.0470302 0.0242533 0.00547331 0.00674736 0.00132399 0.0064566 0.00278967 0.0237339 0.00182777 0.0103358 0.00248047 0.0283081 0.00282131 0.0212562 0.00416594 0.0343951 0.00329118 0.0263435 0.00522842 0.0478985
70 3 O 2.70048 15.1097 55.6492 -1.2 1 0.0460327 0.0248353 0.00611962 0.00679766 0.00127204 0.00634815 0.00295862 0.0239101 0.00211012 0.0104518 0.00265461 0.0281035 0.00297254 0.0216825 0.00382907 0.0343734 0.00328855 0.026334 0.00577761 0.0481119
71 1 Mg -0.206989 14.1049 52.2121 1.2 1 0.115844 0.0413945 0.0014233 0.00932727 0.0021596 0.0092029 0.0024557 0.0247646 0.00354745 0.0135417 0.00307273 0.0295314 0.00359409 0.0229362 0.00416912 0.0338372 0.00394818 0.0273749 0.0068089 0.0414718
72 1 Mg 1.82591 13.8102 49.4556 1.2 1 0.183214 0.0532286 0.00563723 0.0126008 0.00237484 0.0137542 0.0045608 0.0255459 0.00572758 0.0175178 0.00491483 0.0295282 0.0045743 0.0262531 0.00587032 0.0349207 0.00606141 0.0305125 0.00876597 0.0380227
73 2 Si 1.29285 16.1518 51.2434 2.4 1 0.143825 0.0468631 0.00193184 0.0112004 0.00221928 0.0125309 0.00368457 0.0256782 0.00422363 0.0159037 0.0049693 0.0291617 0.00459281 0.0252144 0.00593228 0.0341156 0.00397651 0.0302577 0.00805529 0.0417627
74 3 O 1.39496 17.7199 51.3047 -1.2 1 0.145103 0.046008 0.00294109 0.0107776 0.00174343 0.0124628 0.0033535 0.0246256 0.00428957 0.0155586 0.00315859 0.0298429 0.00378667 0.024705 0.00407085 0.0346241 0.00531461 0.0299645 0.0072619 0.041404
75 3 O 1.48484 15.1944 57.9109 -1.2 1 0.01676 0.0120279 0.00412449 0.00657297 0.00109841 0.0061827 0.00171907 0.0236723 0.00161177 0.00903021 0.0027977 0.0289414 0.00244313 0.020408 0.00353219 0.0337388 0.00257966 0.025332 0.00424008 0.0499351
76 3 O -0.0269106 15.5178 50.6688 -1.2 1 0.156797 0.0475115 0.00372019 0.0120419 0.00303677 0.0129555 0.00335583 0.0259238 0.0046194 0.0159063 0.00294711 0.0295482 0.00437573 0.0258054 0.00526298 0.0337903 0.00410855 0.0298019 0.00771045 0.0404987
77 1 Mg -3.18391 14.1057 52.3125 1.2 1 0.123609 0.0414135 0.000994951 0.00920885 0.00165983 0.010869 0.00290247 0.0245942 0.00372105 0.0140665 0.00294885 0.0290268 0.0037648 0.0232292 0.00429729 0.0336235 0.00451238 0.0276031 0.00682863 0.0412898
78 3 O 2.52432 15.503 50.4579 -1.2 1 0.161976 0.0499396 0.00414715 0.0113192 0.00237535 0.0136382 0.00397058 0.0258533 0.00514361 0.0177776 0.00398028 0.0298174 0.0040224 0.026219 0.00580596 0.034447 0.00512984 0.0300022 0.00786573 0.040139
79 1 Mg -1.58776 14.113 55.0799 1.2 1 0.0579151 0.0283456 0.004858 0.00740194 0.00162427 0.00611678 0.00260986 0.0237729 0.00261497 0.0107424 0.00340847 0.0286137 0.00275503 0.0215909 0.00421154 0.0340482 0.00414444 0.0258977 0.00589464 0.0463693
80 2 Si -1.71193 12.0595 53.255 2.4 1 0.098126 0.0370622 0.00288236 0.00838204 0.00256593 0.00796541 0.00201518 0.0237144 0.00377463 0.0120785 0.00257781 0.0280338 0.00395323 0.02259 0.00319624 0.0334903 0.00522457 0.0260015 0.00639264 0.0433364
81 3 O -1.73068 10.4659 53.2564 -1.2 1 0.096077 0.0344114 0.00315487 0.00749118 0.00254059 0.00771571 0.0017806 0.0226872 0.00307871 0.0105694 0.00300115 0.0271553 0.00343743 0.0206787 0.00434969 0.0331286 0.00416431 0.0251642 0.00788015 0.0428764
82 3 O -1.21337 13.3381 46.4311 -1.2 1 0.269409 0.0534754 0.0204244 0.0206214 0.00640614 0.0207376 0.00709598 0.030125 0.009887 0.0206804 0.00633708 0.0313362 0.00585026 0.0265743 0.00845362 0.0360675 0.0121357 0.0347432 0.0117087 0.0350807
83 3 O -2.92597 12.7463 53.9584 -1.2 1 0.084638 0.0329804 0.0030097 0.00714508 0.00167467 0.00860523 0.00216767 0.0239423 0.00292702 0.0118054 0.00228373 0.0280677 0.00332384 0.0221127 0.00332533 0.0339788 0.00421437 0.0259744 0.00618643 0.0446896
84 3 O -0.383191 12.7559 53.8375 -1.2 1 0.0840062 0.0331032 0.00307821 0.00759464 0.0024691 0.00689585 0.0018732 0.0238684 0.0030474 0.0113664 0.0023601 0.0280218 0.00307741 0.0223222 0.00388928 0.0338607 0.00424226 0.02604 0.00582817 0.0442489
85 1 Mg -2.82484 21.2129 57.4531 1.2 1 0.0220357 0.014852 0.00497432 0.00564492 0.00143115 0.00623132 0.00148598 0.0231113 0.0015729 0.00948736 0.00195681 0.0289931 0.0019898 0.0201366 0.00208839 0.0331475 0.00245474 0.025211 0.00376138 0.0484418
86 1 Mg -1.5831 21.1217 49.8405 1.2 1 0.179501 0.0507009 0.00696134 0.0134474 0.00288074 0.0156947 0.00285131 0.0260431 0.00476964 0.0179859 0.00469556 0.0311794 0.00355282 0.0257667 0.00652839 0.0350327 0.00519249 0.0321729 0.008655 0.0392581
87 2 Si -1.09384 18.6291 47.9287 2.4 1 0.230921 0.056533 0.014363 0.0183709 0.00373658 0.0204674 0.00394682 0.0282643 0.00828118 0.0205228 0.00552273 0.0323653 0.00595969 0.0286794 0.0058042 0.0359619 0.00909798 0.0342063 0.00965538 0.0393123
88 3 O -1.02071 20.1985 47.9911 -1.2 1 0.228233 0.0553267 0.0139696 0.0183858 0.00384601 0.020537 0.00393117 0.0278457 0.00752914 0.0202403 0.0057841 0.0318983 0.005482 0.0276733 0.00723372 0.0360748 0.00796257 0.0347132 0.00893652 0.0390825
89 3 O -1.65002 17.5002 51.771 -1.2 1 0.133894 0.0425776 0.00192847 0.0107769 0.00253589 0.0115632 0.00143952 0.0250691 0.00350253 0.0147753 0.00283971 0.0297691 0.0038952 0.023872 0.00404691 0.0341896 0.00499983 0.0284245 0.00706127 0.0417254
90 3 O -2.26174 18.0434 48.8281 -1.2 1 0.200481 0.0548123 0.00914463 0.0151499 0.00313152 0.0170455 0.00342561 0.0278435 0.00619263 0.0197754 0.00432474 0.0313284 0.00399315 0.0272277 0.00575513 0.0359257 0.00646057 0.033393 0.00811658 0.0391224
91 1 Mg -0.0440435 16.5651 46.8269 1.2 1 0.25431 0.0559252 0.018264 0.020042 0.00480562 0.0238968 0.00528445 0.0310641 0.00964036 0.0221398 0.00608378 0.0336349 0.00678159 0.0289552 0.00775771 0.0361497 0.00922772 0.036379 0.0107596 0.0390348
92 3 O 0.37001 17.9877 48.3925 -1.2 1 0.212552 0.0554728 0.0106508 0.0165464 0.00311197 0.0180304 0.00310855 0.0283912 0.00688461 0.0198253 0.00377221 0.0314264 0.00461639 0.0284781 0.00528476 0.0352707 0.00733329 0.0348069 0.00845567 0.0397373
93 1 Mg 1.37326 16.4941 54.5569 1.2 1 0.0726294 0.0314579 0.00370218 0.00707459 0.00132224 0.00778916 0.00284718 0.0234804 0.00257134 0.0120342 0.00221779 0.0290096 0.00342049 0.0222799 0.00329125 0.0344706 0.00420646 0.0259771 0.00525116 0.0446145
94 2 Si 1.45337 19.2414 56.4269 2.4 1 0.0319836 0.0195618 0.00584418 0.00684566 0.00114918 0.00573958 0.00177204 0.0230185 0.00162755 0.00968988 0.00286517 0.0281812 0.00225766 0.0208807 0.00405092 0.0340469 0.00320404 0.0250588 0.00577588 0.0489802
95 3 O 1.5162 17.6608 56.4815 -1.2 1 0.031993 0.0193158 0.00589799 0.00671922 0.00100217 0.00552721 0.00211889 0.0229728 0.00262636 0.00941887 0.0021943 0.0285735 0.00276363 0.0203775 0.00241036 0.034175 0.00334993 0.0252158 0.00469965 0.0484408
96 3 O 1.45147 20.239 52.7294 -1.2 1 0.110138 0.039213 0.00142693 0.00860666 0.00131554 0.0110083 0.00344843 0.0242082 0.00294114 0.0135802 0.00323673 0.0292194 0.00403927 0.022493 0.00422105 0.0337625 0.00409999 0.0282831 0.00663163 0.0427541
97 3 O 0.22745 19.891 55.7778 -1.2 1 0.0473057 0.0250903 0.00498359 0.00624092 0.00105473 0.00667235 0.00255481 0.0230379 0.00169924 0.0105933 0.00284662 0.027966 0.00261205 0.0214663 0.00352911 0.0343258 0.003511 0.0261818 0.00516616 0.0468844
98 3 O 2.79095 19.8437 55.7615 -1.2 1 0.0420324 0.0239419 0.00602345 0.00626398 0.00133269 0.00612949 0.00254287 0.0233547 0.00159054 0.0104207 0.00245361 0.0280596 0.00250648 0.0212093 0.0034171 0.0344826 0.00311691 0.0264069 0.00539988 0.0477964
99 1 Mg -0.126194 18.8651 52.2079 1.2 1 0.115288 0.0424265 0.00168957 0.00949816 0.00178803 0.00987838 0.00235784 0.0246381 0.00274045 0.0144085 0.00310381 0.0297542 0.0034686 0.0234017 0.00464994 0.0344108 0.00406313 0.0289004 0.00730678 0.0417328
100 1 Mg 1.92402 18.5815 49.4545 1.2 1 0.181171 0.055343 0.00540968 0.0130526 0.00142407 0.0149626 0.00391702 0.0264759 0.00522323 0.0191614 0.00406591 0.0309367 0.0042883 0.0275194 0.00509435 0.0357932 0.0056196 0.0329064 0.00813127 0.039829
101 2 Si 1.38106 20.9117 51.2443 2.4 1 0.145199 0.0486376 0.00194639 0.0108783 0.00169698 0.0127558 0.00351798 0.0253271 0.00367617 0.0161682 0.00446938 0.0291131 0.00421177 0.0250046 0.00558428 0.0342237 0.00411042 0.0313767 0.00829657 0.0412575
102 3 O 1.48527 22.4795 51.3054 -1.2 1 0.145331 0.0465129 0.00283058 0.0101895 0.00163466 0.0125724 0.003034 0.0244479 0.00406929 0.0156722 0.00307268 0.0297815 0.00366763 0.0248356 0.0039105 0.0342086 0.00504861 0.0304725 0.00727313 0.041192
103 3 O 1.4941 19.8689 57.8943 -1.2 1 0.0174979 0.0122562 0.0042694 0.00613144 0.000978725 0.00605145 0.001635 0.0229963 0.00156079 0.00894035 0.00279199 0.0285436 0.00250952 0.0198195 0.00295111 0.0337473 0.00277778 0.0247952 0.00401316 0.0489083
104 3 O 0.0615419 20.2804 50.6669 -1.2 1 0.154585 0.0489093 0.00335525 0.0120289 0.00297917 0.0134947 0.00326567 0.0257924 0.00416823 0.0165092 0.00318704 0.0297705 0.00419942 0.0260355 0.005102 0.0341561 0.00434927 0.0313944 0.00760141 0.0409687
105 1 Mg -3.09665 18.8643 52.3122 1.2 1 0.12223 0.0423435 0.00119307 0.00922854 0.00151848 0.0116245 0.00261208 0.0247288 0.00308499 0.0150215 0.00269107 0.0296473 0.0033281 0.0237588 0.00334972 0.0341141 0.00449162 0.028761 0.00663495 0.0413237
106 3 O 2.61548 20.2646 50.4626 -1.2 1 0.159182 0.050916 0.00371608 0.011137 0.00159631 0.0139559 0.00360682 0.0254601 0.00427572 0.017627 0.00343226 0.0297895 0.00379816 0.0263742 0.00481534 0.0345286 0.00469051 0.0313064 0.00762583 0.0402584
107 1 Mg -1.39917 18.8591 55.1923 1.2 1 0.0514919 0.0270059 0.00583146 0.00680919 0.0017153 0.00654511 0.00243778 0.0240958 0.00227672 0.010858 0.00295551 0.0288562 0.00269112 0.0216681 0.00386767 0.0343016 0.00436252 0.0262837 0.00606687 0.0467869
108 2 Si -1.65341 16.7988 53.3236 2.4 1 0.0939553 0.0366738 0.0032516 0.00884347 0.00193659 0.00814291 0.00161852 0.0239026 0.00314988 0.0128538 0.00251411 0.0288998 0.00310985 0.0229757 0.00356364 0.0342899 0.00479083 0.0269746 0.00636699 0.0444973
109 3 O -1.69746 15.2718 53.2178 -1.2 1 0.095358 0.035759 0.00267814 0.00842231 0.0018998 0.00830088 0.00148776 0.0237831 0.00345537 0.0122049 0.00256502 0.0290307 0.00303607 0.0221612 0.00438522 0.0340089 0.00391249 0.0264687 0.00682656 0.0444557
110 3 O -1.12868 18.1227 46.4249 -1.2 1 0.265656 0.056551 0.0201871 0.0213927 0.00514288 0.0237308 0.00576902 0.032137 0.00873651 0.0219847 0.00554493 0.0340152 0.00655539 0.0269398 0.00844469 0.0378973 0.0112109 0.0375154 0.0109187 0.0388864
111 3 O -2.90566 17.4978 53.9767 -1.2 1 0.0831964 0.0335405 0.00311252 0.00719648 0.00103718 0.00903647 0.00191474 0.024244 0.00219273 0.0126953 0.0017326 0.0286599 0.00295823 0.0230128 0.00307524 0.0340647 0.00388687 0.0271098 0.00609251 0.0446419
112 3 O -0.370399 17.5216 53.9795 -1.2 1 0.0788066 0.0338213 0.0037613 0.00745354 0.00218408 0.00662192 0.00178154 0.0238527 0.00281558 0.0119146 0.00311901 0.0281889 0.00248173 0.0226223 0.00382195 0.034651 0.00406589 0.0272729 0.0066053 0.0445124
113 1 Mg -2.74019 26.0554 57.2839 1.2 1 0.0226886 0.0152106 0.00503667 0.00543728 0.00171282 0.00616901 0.00120598 0.0228073 0.00145281 0.00859665 0.00196593 0.028749 0.00195831 0.0199756 0.00198994 0.0327943 0.00307791 0.0248012 0.00351483 0.0482397
114 1 Mg -1.48778 25.88 49.8402 1.2 1 0.179053 0.0504321 0.00718805 0.0128949 0.00281792 0.0156127 0.00225006 0.0260221 0.0044213 0.0179673 0.00453868 0.0313918 0.00337866 0.0260036 0.00572855 0.034247 0.00515521 0.0319759 0.00817187 0.0398333
115 2 Si -1.00491 23.3922 47.9274 2.4 1 0.232145 0.057112 0.0149451 0.0184941 0.00388898 0.0213042 0.00420165 0.028291 0.00772563 0.0206079 0.00505732 0.0322944 0.00575171 0.0286939 0.00594078 0.0353684 0.00874962 0.0350619 0.00951424 0.03921
116 3 O -0.927602 24.9615 47.9909 -1.2 1 0.228585 0.0556837 0.0147832 0.0177839 0.00374531 0.0206456 0.00384819 0.0279586 0.00695257 0.0202385 0.00559262 0.0319315 0.00544059 0.0280115 0.00706087 0.035527 0.00789346 0.035205 0.00910149 0.0393503
117 3 O -1.55795 22.2588 51.7696 -1.2 1 0.13322 0.0432653 0.00215709 0.0103696 0.00263423 0.0118774 0.00167104 0.0244619 0.00304932 0.0148686 0.00294944 0.0293747 0.00370388 0.023887 0.00398158 0.033516 0.00491396 0.0292173 0.00726971 0.0412605
118 3 O -2.17411 22.8111 48.8277 -1.2 1 0.201931 0.0555529 0.00936444 0.0150583 0.00283829 0.0173988 0.0032172 0.027515 0.00570389 0.0200488 0.00398984 0.031274 0.00405966 0.0274296 0.00541092 0.035238 0.00659488 0.0343659 0.00823505 0.0386597
119 1 Mg 0.0423997 21.3296 46.8225 1.2 1 0.255528 0.0576183 0.0183365 0.0213856 0.00534935 0.0249992 0.00546194 0.0313161 0.00882811 0.0223907 0.0059575 0.0338067 0.00696973 0.0288323 0.00840562 0.0361129 0.00900436 0.037474 0.0106446 0.0391416
120 3 O 0.458537 22.7495 48.3911 -1.2 1 0.2149 0.0569443 0.0112937 0.0167747 0.00340195 0.018808 0.0031699 0.0282013 0.006631 0.0201326 0.0039112 0.0310818 0.00495627 0.0288242 0.0053229 0.0348917 0.00702788 0.0362348 0.00852746 0.0397138
121 1 Mg 1.40246 21.3355 54.5156 1.2 1 0.0722397 0.0321553 0.00351855 0.00635474 0.00151331 0.00801332 0.00304926 0.0229836 0.00217771 0.0119209 0.0025852 0.0286065 0.00339755 0.022375 0.0034136 0.0341269 0.00377274 0.0260908 0.0053686 0.0443318