ITEM: TIMESTEP
77700
ITEM: NUMBER OF ATOMS
10500
ITEM: BOX BOUNDS xy xz yz pp pp pp
0	8.9688	2.9896
0	118.725	0
0	252.977	0
ITEM: ATOMS id type element xu yu zu q Q_1 Q_2 Q_3 Q_4 Q_5 Q_6 Q_7 Q_8 Q_9 Q_10 Q_11 Q_12 Q_13 Q_14 Q_15 Q_16 Q_17 Q_18 Q_19 Q_20 Q_21
1 1 Mg -3.40454 6.89622 57.1903 1.2 1 0.0240204 0.0177072 0.00496941 0.00568421 0.000734244 0.00667987 0.00147615 0.019551 0.00148395 0.00939822 0.00163172 0.0243302 0.00266495 0.0178144 0.00268166 0.030011 0.003499 0.0238877 0.00505249 0.037528
2 1 Mg -1.82655 6.90154 50.0912 1.2 1 0.177182 0.0490875 0.00653497 0.0106914 0.00295799 0.00884461 0.00386528 0.0218453 0.00414676 0.0150848 0.0042623 0.0237841 0.00438038 0.0212485 0.00629254 0.0291629 0.00554595 0.0264744 0.00791945 0.0320152
3 2 Si -0.257935 3.96038 48.0876 2.4 1 0.225567 0.0540695 0.0126541 0.0126281 0.00193139 0.00925725 0.00391096 0.019827 0.00521295 0.017256 0.00454965 0.023644 0.0053362 0.0206531 0.00603491 0.0268349 0.00682003 0.0254667 0.00864448 0.0313441
4 3 O -0.335812 5.46814 47.6264 -1.2 1 0.233226 0.0531993 0.0145071 0.013616 0.00285966 0.0103715 0.00478865 0.020523 0.00604799 0.0179512 0.00506978 0.0242102 0.00467985 0.0214039 0.00610738 0.0268164 0.00705897 0.0262972 0.00972986 0.0302526
5 3 O -2.03793 3.43377 51.8941 -1.2 1 0.126692 0.0420018 0.0015857 0.00760617 0.00163389 0.00629571 0.00221196 0.0193833 0.00308481 0.0116453 0.00329103 0.0225374 0.00359156 0.0176008 0.00410648 0.0277587 0.00497806 0.0235968 0.00670142 0.0333234
6 3 O -1.54015 3.53929 48.9521 -1.2 1 0.203019 0.0523585 0.00952927 0.0116678 0.00174639 0.00801537 0.00370162 0.0196085 0.00509216 0.0156647 0.00452688 0.0224395 0.00446894 0.0196975 0.00612125 0.0271021 0.00541897 0.0252767 0.00836404 0.0302347
7 1 Mg 1.82954 2.54582 47.1376 1.2 1 0.246226 0.0526302 0.0162162 0.0160087 0.00281836 0.010469 0.00369237 0.019932 0.00505411 0.0158925 0.00477272 0.0234666 0.00568409 0.0189491 0.00728292 0.0254551 0.00621821 0.0239339 0.00834228 0.0295378
8 3 O 1.22989 3.66364 48.7877 -1.2 1 0.204552 0.0511276 0.00982966 0.0124276 0.00208517 0.00894065 0.00412971 0.0198819 0.00407751 0.0149343 0.0039674 0.0227723 0.00451506 0.0192433 0.00614764 0.0265643 0.00484864 0.0247143 0.00847965 0.0316552
9 1 Mg 1.14808 2.51308 54.6053 1.2 1 0.0671131 0.0313507 0.00432087 0.00490051 0.00133151 0.00523962 0.00219083 0.0191919 0.00322 0.00983181 0.00287475 0.0228782 0.00381137 0.0181558 0.00391889 0.028681 0.00306871 0.0227354 0.00603058 0.035025
10 2 Si 0.853556 4.90157 56.5153 2.4 1 0.0310998 0.0216867 0.00562992 0.00601324 0.00122321 0.00619146 0.00158391 0.0195115 0.00188241 0.0089229 0.00271121 0.0227695 0.00331199 0.0179345 0.00388148 0.0290782 0.00319477 0.0240106 0.00559702 0.0375697
11 3 O 0.998762 3.21109 56.5847 -1.2 1 0.0314886 0.0212748 0.0053873 0.00557888 0.00134478 0.00538996 0.00170247 0.0188098 0.00299063 0.00869598 0.00216933 0.0229891 0.00267204 0.01692 0.00342041 0.0289475 0.00390532 0.0237887 0.00512939 0.036556
12 3 O 1.10813 6.07342 52.8172 -1.2 1 0.10638 0.0381298 0.00196464 0.00720676 0.00219167 0.00693849 0.00296969 0.0208478 0.00332535 0.0117138 0.00275188 0.0236456 0.00375989 0.0188253 0.00440136 0.029284 0.00390519 0.0248446 0.00671499 0.03435
13 3 O -0.476892 5.63846 55.9401 -1.2 1 0.0402607 0.0242731 0.00599052 0.00508089 0.00147539 0.00545656 0.00166657 0.0200709 0.001923 0.00946147 0.00242419 0.0235874 0.00253121 0.0181188 0.00426184 0.0302277 0.00359584 0.0242302 0.00640947 0.0375142
14 3 O 1.98676 5.43908 55.7313 -1.2 1 0.0431593 0.0257067 0.00558913 0.00496186 0.00125406 0.00603411 0.00186594 0.0197072 0.00193564 0.010081 0.00267248 0.0233191 0.00333036 0.0187168 0.00403296 0.030186 0.00325418 0.0243575 0.00558687 0.0362657
15 1 Mg -0.459401 4.67631 52.2426 1.2 1 0.122652 0.0417432 0.00128699 0.00713712 0.00208289 0.00617593 0.00233387 0.0203545 0.00301637 0.0123203 0.00297114 0.0235211 0.00358896 0.0188664 0.00389824 0.0285664 0.00410889 0.0239146 0.00622537 0.0327861
16 1 Mg 2.79456 3.9971 49.9987 1.2 1 0.172585 0.0502753 0.005735 0.010334 0.00255285 0.00766134 0.00413259 0.0200445 0.00327055 0.014585 0.00261398 0.0225617 0.00441805 0.0198513 0.00575421 0.0276123 0.00428791 0.0250399 0.0079961 0.0315318
17 2 Si 1.16169 6.59457 51.2556 2.4 1 0.143029 0.0454423 0.00212288 0.00884752 0.00271558 0.00816153 0.00362116 0.0209649 0.00366674 0.0133662 0.00357408 0.023237 0.00413724 0.0210962 0.00541594 0.0293867 0.00498481 0.025686 0.00821953 0.0333152
18 3 O 1.28989 8.18905 51.2909 -1.2 1 0.144121 0.0452874 0.0023037 0.00959324 0.00253642 0.00920253 0.0035383 0.0216934 0.00406217 0.0135832 0.00362682 0.0250522 0.00376372 0.0214273 0.00538899 0.0304457 0.00524828 0.027295 0.00773415 0.0348655
19 3 O 1.0506 5.51793 57.9394 -1.2 1 0.0154162 0.0137584 0.00371631 0.00589295 0.00133692 0.006653 0.00168519 0.0195546 0.00182675 0.00919534 0.00246026 0.0235842 0.00300233 0.0180578 0.00341576 0.0294684 0.00352559 0.0244439 0.00529129 0.0378787
20 3 O -0.184847 6.06029 50.6845 -1.2 1 0.163563 0.0471724 0.0051423 0.00984224 0.00293349 0.00799292 0.00389971 0.0208265 0.00437453 0.0141795 0.0032853 0.0229955 0.00399639 0.0206481 0.00464759 0.0283996 0.00474059 0.0254941 0.00800982 0.033219
21 1 Mg -3.49704 4.67769 52.6661 1.2 1 0.113406 0.0398864 0.00147224 0.00674585 0.00182634 0.00649242 0.00264703 0.0194368 0.00355315 0.0116117 0.00326547 0.0231382 0.00366788 0.0188124 0.00404103 0.0279817 0.0044175 0.0235057 0.00663173 0.0331726
22 3 O 2.48581 5.93312 50.6539 -1.2 1 0.156905 0.0479346 0.00365963 0.0088333 0.00170984 0.00842797 0.00369674 0.0209464 0.00388088 0.0140123 0.00379558 0.0228313 0.00422253 0.0210401 0.00606518 0.0294618 0.00460884 0.0260162 0.00786374 0.0327218
23 1 Mg -1.94274 4.4837 55.3208 1.2 1 0.0495495 0.0277721 0.00571851 0.00536189 0.00156724 0.00542499 0.00183881 0.0193888 0.00235788 0.00981842 0.00238843 0.0235134 0.00290366 0.0184713 0.00363596 0.0295279 0.00382812 0.0234397 0.0060807 0.035553
24 2 Si -1.79047 2.72516 53.3894 2.4 1 0.0935814 0.0365579 0.00259153 0.00606771 0.00235039 0.00530447 0.00215164 0.0197355 0.00287879 0.0111297 0.00314853 0.0229377 0.00320525 0.0182199 0.00358512 0.0278108 0.00431441 0.0231902 0.00608659 0.0342941
25 3 O -2.01481 1.1636 53.1686 -1.2 1 0.098777 0.0369701 0.00223841 0.00674989 0.0022352 0.00517569 0.00208534 0.0189276 0.00277598 0.0100443 0.00247529 0.0224612 0.00387052 0.0171237 0.00461314 0.027857 0.0041077 0.0230238 0.00658201 0.0343429
26 3 O -0.0467762 2.97103 46.8385 -1.2 1 0.252473 0.0538892 0.0172217 0.0153009 0.00262585 0.009537 0.00382995 0.0194994 0.00585769 0.0172255 0.00572793 0.0233865 0.00670474 0.0188554 0.00881235 0.0255866 0.00640169 0.0245893 0.0098317 0.03066
27 3 O -3.0697 3.15719 54.1106 -1.2 1 0.0802187 0.0337529 0.00353915 0.00513391 0.00187785 0.00565971 0.00184854 0.0192096 0.00265774 0.0105992 0.00249122 0.022555 0.00300792 0.0182775 0.00390716 0.0282944 0.00362221 0.023184 0.00605872 0.0340229
28 3 O -0.47308 3.4259 54.0249 -1.2 1 0.0778288 0.0332411 0.00360847 0.00521676 0.00164434 0.00559924 0.00194074 0.0197104 0.00210731 0.0101757 0.00229163 0.0227906 0.00350075 0.0183903 0.0033232 0.0285038 0.0034028 0.023548 0.00542075 0.0347924
29 1 Mg -3.45727 11.5005 57.3614 1.2 1 0.0232096 0.0159981 0.00512326 0.00574012 0.000943462 0.00661119 0.00188072 0.0199473 0.00218946 0.00968472 0.00221649 0.025479 0.00219228 0.0181047 0.00296199 0.031379 0.00357198 0.0251963 0.00439293 0.0400867
30 1 Mg -1.75014 11.5838 49.8362 1.2 1 0.183309 0.0487558 0.00762155 0.0126441 0.0040818 0.0127362 0.00448945 0.0235315 0.00484169 0.0162409 0.00514049 0.0270389 0.00400964 0.0240327 0.00721431 0.0323828 0.00709773 0.029218 0.00883837 0.0351767
31 2 Si -1.18003 9.02138 47.9309 2.4 1 0.241363 0.0522397 0.0160117 0.0153086 0.00542921 0.0133549 0.0077279 0.0225308 0.00714572 0.0173478 0.00723997 0.0252896 0.00415684 0.0232807 0.00727197 0.0301615 0.0094493 0.02892 0.0116262 0.0333856
32 3 O -1.23224 10.5991 47.9811 -1.2 1 0.230797 0.0533474 0.0138117 0.0157461 0.00538396 0.0144207 0.00653581 0.0240291 0.0073159 0.0178119 0.00740622 0.0265169 0.0048556 0.0244258 0.00865007 0.0328132 0.0096023 0.0313071 0.0107258 0.0333342
33 3 O -1.79016 8.01447 51.8693 -1.2 1 0.130504 0.04218 0.00185059 0.0090064 0.00291665 0.00760588 0.00270162 0.0210112 0.00304755 0.0124967 0.00334943 0.0243577 0.00390521 0.0204438 0.00455056 0.0305043 0.00531491 0.0257158 0.00764944 0.0351288
34 3 O -2.30986 8.37215 48.8528 -1.2 1 0.203813 0.0526468 0.00989831 0.0122089 0.00390647 0.0104696 0.00613424 0.0226863 0.00538405 0.0169555 0.00481952 0.0250996 0.0037959 0.0232954 0.00665184 0.0308611 0.00708409 0.0280702 0.00931817 0.0326415
35 1 Mg 0.154883 7.08234 46.8007 1.2 1 0.261173 0.0528928 0.0190954 0.0157476 0.00579423 0.0133484 0.00895056 0.0230118 0.00726339 0.0178971 0.0072885 0.024325 0.00670487 0.0217977 0.00904564 0.0287516 0.0098478 0.0285481 0.012354 0.0313258
36 3 O 0.325447 8.50934 48.3809 -1.2 1 0.218913 0.0535889 0.0120767 0.0137322 0.0041008 0.0121458 0.00621704 0.023396 0.00586127 0.0173679 0.00629114 0.0248247 0.00446752 0.0240641 0.00618237 0.0302541 0.0076605 0.0287807 0.0104675 0.0327231
37 1 Mg 1.16098 6.91759 54.5265 1.2 1 0.0692333 0.0318928 0.00484553 0.00563285 0.00154516 0.00617907 0.0021722 0.0200238 0.00281772 0.0106308 0.00285452 0.0236833 0.00310777 0.0192656 0.00377654 0.0303778 0.00363439 0.0242751 0.00630778 0.0360809
38 2 Si 1.14659 9.53496 56.2854 2.4 1 0.0346346 0.0217695 0.00570836 0.00641514 0.00129289 0.00639233 0.0014652 0.0200506 0.00193958 0.00948183 0.00253254 0.0241043 0.00231569 0.0196256 0.00358394 0.0311247 0.00341835 0.0250381 0.00523761 0.0399312
39 3 O 0.962327 7.99733 56.3807 -1.2 1 0.0338878 0.0216592 0.00580518 0.00592232 0.00116451 0.00650504 0.00132467 0.0196569 0.00288528 0.00909515 0.00178639 0.0239634 0.00286964 0.0185392 0.00305537 0.0305574 0.00391572 0.0238775 0.00533034 0.039001
40 3 O 1.28624 10.7248 52.7351 -1.2 1 0.110644 0.0388279 0.00211167 0.00832603 0.00179036 0.00959245 0.00268253 0.0214609 0.0030574 0.012442 0.00305166 0.0251561 0.004006 0.0210365 0.00416428 0.0313593 0.00391639 0.0270916 0.00605655 0.0367673
41 3 O -0.220168 10.2532 55.9471 -1.2 1 0.0399363 0.0230053 0.0053736 0.00579825 0.000743978 0.00638549 0.00165209 0.0201438 0.00169777 0.00944254 0.00196091 0.0247905 0.00238198 0.0192393 0.00346416 0.0318399 0.00358667 0.0254691 0.00545329 0.0395923
42 3 O 2.35399 10.2854 55.5495 -1.2 1 0.0487177 0.0263593 0.00553577 0.00589759 0.00102108 0.00681209 0.00210805 0.0201676 0.00168037 0.00980979 0.00183023 0.0242479 0.00301797 0.0199385 0.00337651 0.031743 0.00361736 0.0254504 0.00537224 0.0392558
43 1 Mg -0.262694 9.34741 52.2523 1.2 1 0.1146 0.0420441 0.00241275 0.00878441 0.00267648 0.00803696 0.00235983 0.0220251 0.00304856 0.0124881 0.00308433 0.025346 0.00336804 0.0210472 0.00450608 0.0312471 0.00444927 0.0266577 0.00666352 0.034961
44 1 Mg 1.87648 9.01537 49.4629 1.2 1 0.187848 0.0532039 0.00648036 0.0116663 0.0030309 0.0109035 0.0061195 0.0229885 0.00483418 0.0163301 0.00521762 0.0252953 0.00410676 0.0237621 0.0065833 0.0313925 0.00549576 0.0289031 0.00955517 0.0336871
45 2 Si 1.21415 11.3799 51.2378 2.4 1 0.146092 0.046626 0.00213549 0.0103418 0.00259795 0.0111924 0.00337748 0.0228882 0.00403155 0.0150199 0.00438003 0.0253585 0.00380293 0.0238679 0.00626129 0.032532 0.00457338 0.0290038 0.00783836 0.0362875
46 3 O 1.31634 12.9512 51.3023 -1.2 1 0.145047 0.0447162 0.00298882 0.0100086 0.00206622 0.0116304 0.00306125 0.0236369 0.00393605 0.0149161 0.00395622 0.0267318 0.00334065 0.0242123 0.0048374 0.0324738 0.00512943 0.028937 0.00704287 0.03726
47 3 O 1.37095 10.1621 57.797 -1.2 1 0.0171318 0.0133086 0.0035785 0.00598962 0.00112953 0.0068415 0.00139126 0.0198551 0.00164467 0.00881245 0.00169655 0.024436 0.00294036 0.0184153 0.00303715 0.0305831 0.00393818 0.0253711 0.00440543 0.0403284
48 3 O -0.115718 10.7564 50.681 -1.2 1 0.159455 0.0483664 0.00412649 0.0116072 0.00347225 0.010944 0.0037328 0.023128 0.00453692 0.0148054 0.00386535 0.0260785 0.00372505 0.023355 0.00565089 0.0315565 0.0054951 0.0285904 0.00827979 0.0354276
49 1 Mg -3.26386 9.35564 52.3622 1.2 1 0.120677 0.0406882 0.00136623 0.00811857 0.00186331 0.00930185 0.00313228 0.021231 0.00347216 0.0124323 0.00381347 0.0247844 0.00307539 0.0209367 0.0046976 0.0312595 0.00438323 0.026243 0.00693339 0.0348633
50 3 O 2.45216 10.7265 50.4558 -1.2 1 0.161905 0.0489408 0.00414725 0.0102968 0.00234922 0.011715 0.00426896 0.0233933 0.00471117 0.0163037 0.00428841 0.0257293 0.00358148 0.0237611 0.00627357 0.0321436 0.00555644 0.0288825 0.00809325 0.035336
51 1 Mg -1.79514 9.26779 55.2539 1.2 1 0.0521535 0.0270846 0.00499512 0.00556948 0.00180505 0.00661762 0.00180331 0.0201884 0.00221034 0.009653 0.00221356 0.0246479 0.00243674 0.0196789 0.00367774 0.0312893 0.00400151 0.0252023 0.00579105 0.0386177
52 2 Si -1.87647 7.35707 53.429 2.4 1 0.0929129 0.0369462 0.00305714 0.00659136 0.00272575 0.0066929 0.00213932 0.0202918 0.00298903 0.0117275 0.00302433 0.024081 0.00323404 0.0204468 0.00304627 0.0308775 0.00492234 0.0247739 0.00598056 0.0357808
53 3 O -1.96771 5.71595 53.2496 -1.2 1 0.0970666 0.0363879 0.00235952 0.00625532 0.00169281 0.0064352 0.00186582 0.0197185 0.00334963 0.0107538 0.00294299 0.0232857 0.00297076 0.019173 0.00444405 0.0300964 0.00345906 0.024172 0.00638966 0.0351691
54 3 O -1.19417 8.46968 46.4488 -1.2 1 0.271438 0.052384 0.0210042 0.0172681 0.00561611 0.014521 0.00904388 0.0240232 0.00742321 0.0179373 0.00791775 0.0249863 0.0056303 0.022091 0.00959853 0.0300147 0.0105501 0.0303037 0.0120229 0.0311761
55 3 O -3.02996 8.03476 54.1595 -1.2 1 0.0783607 0.0323379 0.00326062 0.00569929 0.00242372 0.00744596 0.00211986 0.0202366 0.00253458 0.0110783 0.00226361 0.0234284 0.0028638 0.0201177 0.00335812 0.0311281 0.00366249 0.0247699 0.00590653 0.0363575
56 3 O -0.607991 8.07883 54.0405 -1.2 1 0.0761577 0.0329853 0.00437727 0.00589719 0.00253322 0.00632213 0.0011712 0.0209434 0.00230508 0.0107853 0.00251326 0.0239747 0.00276196 0.0200203 0.00317328 0.0313677 0.00383708 0.025485 0.00612586 0.0370223
57 1 Mg -2.98597 16.2989 57.0434 1.2 1 0.0250923 0.0166716 0.00515176 0.0058086 0.000961548 0.00626603 0.00221779 0.0212295 0.00207986 0.00942328 0.00198077 0.0258723 0.00166112 0.0182639 0.00333316 0.0317192 0.0037888 0.0247915 0.00439748 0.0409562
58 1 Mg -1.6714 16.3544 49.8412 1.2 1 0.179278 0.0491337 0.00719537 0.0129235 0.00340992 0.0149504 0.00303236 0.0251695 0.00409023 0.0178007 0.00487694 0.029839 0.00306337 0.0260501 0.00695277 0.0342299 0.00623953 0.03156 0.00868482 0.0374736
59 2 Si -1.18567 13.8526 47.9314 2.4 1 0.23492 0.0540927 0.0154666 0.016979 0.00477623 0.0181139 0.00526013 0.0264722 0.00810373 0.019707 0.00696284 0.0298952 0.00499777 0.0285719 0.00689859 0.0349723 0.0101213 0.0335795 0.0112701 0.0364456
60 3 O -1.09664 15.4205 47.9915 -1.2 1 0.231635 0.0531602 0.0150055 0.0172135 0.00480121 0.0191177 0.00446128 0.0270844 0.00753095 0.0201279 0.00692501 0.0303269 0.00515689 0.0279223 0.00856316 0.0354868 0.00956577 0.034336 0.010456 0.0369659
61 3 O -1.73493 12.7491 51.7772 -1.2 1 0.133963 0.0426453 0.00218502 0.0102559 0.00319433 0.0104087 0.00173994 0.0230846 0.00361378 0.0142946 0.00321636 0.0267016 0.00385561 0.0231436 0.00443215 0.0318975 0.005151 0.0278191 0.00704033 0.0374186
62 3 O -2.36115 13.2717 48.8238 -1.2 1 0.206122 0.0532465 0.0103411 0.0141715 0.00452993 0.0145499 0.00496719 0.0258086 0.00579739 0.0193922 0.00553715 0.0291002 0.0036433 0.0270991 0.00673678 0.0342893 0.0084765 0.0323812 0.0095821 0.0353852
63 1 Mg -0.159928 11.7639 46.8533 1.2 1 0.259826 0.05385 0.0193432 0.0186028 0.00611326 0.019814 0.00735609 0.0271393 0.00851578 0.019596 0.00880456 0.0294456 0.00599872 0.0276596 0.00864427 0.0338902 0.0109691 0.0342736 0.0133595 0.0344387
64 3 O 0.2623 13.1866 48.413 -1.2 1 0.216644 0.0537293 0.0120088 0.0152875 0.00400591 0.0161045 0.00475885 0.0262427 0.00718395 0.018772 0.00584668 0.0283619 0.00458115 0.028045 0.00579872 0.0340231 0.00901837 0.0336697 0.0098166 0.0358882
65 1 Mg 1.48397 11.863 54.6448 1.2 1 0.0727385 0.032397 0.00460111 0.00625999 0.00169942 0.00785582 0.00241651 0.0207033 0.00247417 0.0111437 0.00215138 0.0251869 0.00296313 0.0208425 0.00291042 0.0317537 0.00381798 0.025719 0.00530642 0.0381903
66 2 Si 1.22296 14.3315 56.3803 2.4 1 0.034545 0.0206625 0.00562165 0.00649287 0.00121262 0.00621768 0.00154961 0.0209443 0.00160953 0.00947397 0.00235348 0.0246619 0.00175684 0.0194478 0.00315907 0.0320136 0.00379558 0.0254129 0.00502805 0.0420889
67 3 O 1.20992 12.7319 56.5212 -1.2 1 0.0295327 0.0185893 0.00575401 0.00604659 0.000912474 0.00619185 0.00184306 0.0203695 0.00292617 0.00893062 0.00181622 0.0254535 0.00272307 0.0183373 0.00272818 0.0313579 0.00418554 0.02544 0.00492198 0.0410634
68 3 O 1.36565 15.4813 52.729 -1.2 1 0.110849 0.0386881 0.000732872 0.00841456 0.00159277 0.0107211 0.00323744 0.0231476 0.0025722 0.0136211 0.00311029 0.0268412 0.00322574 0.0219214 0.00527672 0.0323305 0.00351381 0.0281568 0.00616122 0.0389397
69 3 O 0.160507 15.1712 55.7342 -1.2 1 0.04788 0.0249858 0.00465007 0.00629053 0.000622123 0.00652499 0.00237414 0.0212656 0.00178135 0.0103887 0.0026082 0.0249635 0.00264009 0.020197 0.00379338 0.0328959 0.00365596 0.0261143 0.00490728 0.0410338
70 3 O 2.53842 15.0399 55.7914 -1.2 1 0.0415085 0.0234721 0.00564321 0.006087 0.00108208 0.00589978 0.00251259 0.0208617 0.00202738 0.00961683 0.00264253 0.025075 0.00246875 0.0195515 0.003792 0.0324865 0.00389186 0.0256734 0.00524959 0.0410033
71 1 Mg -0.206989 14.1049 52.2121 1.2 1 0.118596 0.042889 0.0012205 0.00949429 0.0026947 0.00919917 0.00227833 0.0232595 0.00322299 0.0141756 0.00325058 0.0272258 0.00293634 0.0230795 0.00430012 0.0327378 0.00374845 0.028309 0.00637394 0.037199
72 1 Mg 1.82591 13.8102 49.4556 1.2 1 0.186729 0.0534578 0.00681893 0.0120229 0.00277707 0.0137127 0.00460654 0.0248283 0.00491365 0.0183024 0.00551627 0.028187 0.00438916 0.0271907 0.00655801 0.0343803 0.00699013 0.0318396 0.00894708 0.0360018
73 2 Si 1.29285 16.1518 51.2434 2.4 1 0.144483 0.0470605 0.00207358 0.0110382 0.00217947 0.0122938 0.00370921 0.0244681 0.00393405 0.0161862 0.00466339 0.0270673 0.00357857 0.0255236 0.0057781 0.0334065 0.00431645 0.0305072 0.00791911 0.0384773
74 3 O 1.39496 17.7199 51.3047 -1.2 1 0.143798 0.0450541 0.00281722 0.0101778 0.00167645 0.0123977 0.00338369 0.0243081 0.00344226 0.0157503 0.00322241 0.02836 0.00330546 0.0247729 0.00418242 0.0334055 0.00465125 0.0299215 0.00673428 0.0387592
75 3 O 1.34211 14.9124 57.9083 -1.2 1 0.0171029 0.0125727 0.00362814 0.00550988 0.00104806 0.00646406 0.00159011 0.0212976 0.0017576 0.00854337 0.00294102 0.0249528 0.00229278 0.0182621 0.0031354 0.0316699 0.00362387 0.025119 0.00446509 0.0417997
76 3 O -0.0269106 15.5178 50.6688 -1.2 1 0.158711 0.0482792 0.00447672 0.0119473 0.0030971 0.0128377 0.0031647 0.0247729 0.00437156 0.0165701 0.00382246 0.0281515 0.00323105 0.0262268 0.00608023 0.0331538 0.00399373 0.0307652 0.00767442 0.0377074
77 1 Mg -3.18391 14.1057 52.3125 1.2 1 0.123232 0.0419981 0.00114093 0.00887688 0.00198528 0.0111049 0.00243525 0.0229371 0.00309942 0.0144941 0.00308813 0.0269764 0.00316929 0.0233635 0.00405104 0.0319601 0.00392977 0.0281645 0.00602741 0.0368948
78 3 O 2.52432 15.503 50.4579 -1.2 1 0.163704 0.0500141 0.00470933 0.0111929 0.00210309 0.0133825 0.00394476 0.0250065 0.00437616 0.0180425 0.00394492 0.028142 0.003484 0.0269278 0.00528929 0.033539 0.00562244 0.0311336 0.00771237 0.0373856
79 1 Mg -1.68403 14.1353 55.2624 1.2 1 0.049472 0.0262995 0.00546324 0.00656767 0.00137585 0.0062049 0.00238308 0.0216492 0.00272555 0.0103871 0.00247517 0.0261444 0.00243689 0.0201918 0.00377696 0.0328346 0.0038574 0.0255831 0.00498935 0.0406422
80 2 Si -1.52277 12.0099 53.3576 2.4 1 0.0937942 0.0369583 0.00312185 0.0076504 0.00263396 0.00798069 0.00139975 0.0216048 0.00343208 0.0121398 0.0021689 0.0250383 0.00295285 0.0219554 0.00278047 0.031967 0.00427157 0.0266429 0.00576094 0.0382497
81 3 O -1.85972 10.5611 53.183 -1.2 1 0.0974812 0.0368304 0.00262825 0.00748704 0.00261294 0.00809774 0.0017253 0.0209019 0.00345411 0.0113013 0.00270257 0.0247224 0.00277903 0.0208922 0.00361066 0.0318173 0.00405383 0.0261497 0.00638674 0.037592
82 3 O -1.21337 13.3381 46.4311 -1.2 1 0.271169 0.0530898 0.0210926 0.0203143 0.00670932 0.0205506 0.00705184 0.0295825 0.00917813 0.0207499 0.00772618 0.0310246 0.00548746 0.0270881 0.00903883 0.0360015 0.0131827 0.0359242 0.0129408 0.0349621
83 3 O -2.77493 12.763 54.0167 -1.2 1 0.082988 0.0333734 0.00285277 0.00659047 0.00190552 0.00863774 0.00135782 0.0214228 0.00239719 0.0121161 0.00229849 0.025292 0.00262763 0.0215699 0.0034422 0.0322635 0.00302149 0.0265576 0.00534736 0.0383
84 3 O -0.234271 12.8533 53.9982 -1.2 1 0.0798596 0.0336879 0.00380982 0.00690779 0.00237903 0.00687922 0.00172409 0.0221493 0.00240704 0.0118742 0.00211565 0.0254693 0.00229548 0.0218254 0.00303818 0.0319374 0.00397369 0.0268226 0.00496643 0.0385849
85 1 Mg -3.17682 21.1767 57.4337 1.2 1 0.021312 0.0142073 0.00407042 0.00526838 0.00129607 0.00581519 0.00180273 0.0204208 0.00166065 0.0103791 0.00234941 0.0252392 0.00205427 0.0185767 0.00348038 0.0305153 0.00350307 0.0252798 0.00424944 0.0407449
86 1 Mg -1.5831 21.1217 49.8405 1.2 1 0.180084 0.0494022 0.00711591 0.0126166 0.0027967 0.0155519 0.00265711 0.025906 0.00407653 0.0185668 0.00434009 0.0301052 0.00323392 0.0263821 0.005661 0.0339442 0.00575974 0.0317767 0.00845459 0.0380563
87 2 Si -1.09384 18.6291 47.9287 2.4 1 0.229613 0.0545403 0.0145645 0.0169496 0.00387968 0.0202305 0.00408909 0.0280582 0.00740464 0.0207744 0.00595997 0.0315209 0.00543058 0.0287254 0.00640182 0.0355578 0.00935765 0.034116 0.0100828 0.038964
88 3 O -1.02071 20.1985 47.9911 -1.2 1 0.230383 0.0538326 0.0147028 0.0174867 0.00409514 0.0205003 0.00444734 0.0279077 0.00681841 0.020773 0.00627181 0.0311456 0.00559743 0.0283971 0.0075082 0.0361608 0.00839157 0.0343414 0.00969593 0.0388294
89 3 O -1.65002 17.5002 51.771 -1.2 1 0.135291 0.0432435 0.00238797 0.0101414 0.00280113 0.0117241 0.00168967 0.02408 0.0029289 0.0153132 0.00289519 0.0277573 0.00348202 0.0240994 0.00411477 0.0329731 0.00507148 0.0291013 0.0062632 0.0387696
90 3 O -2.26174 18.0434 48.8281 -1.2 1 0.201341 0.053664 0.00951236 0.0144404 0.00343075 0.016797 0.00352998 0.0275487 0.00549546 0.020155 0.00421167 0.0304814 0.00344153 0.0275497 0.00573621 0.0353517 0.00749298 0.0336188 0.00891721 0.0378526
91 1 Mg -0.0440435 16.5651 46.8269 1.2 1 0.258488 0.0551342 0.018778 0.0197994 0.00492834 0.0240074 0.00555035 0.0307794 0.00913981 0.0225141 0.00723487 0.032866 0.00674857 0.0293733 0.00901146 0.0360318 0.0107547 0.0372467 0.0117617 0.0386167
92 3 O 0.37001 17.9877 48.3925 -1.2 1 0.214413 0.0545165 0.0113736 0.0159232 0.00340866 0.0178346 0.00357213 0.0280669 0.00650489 0.0202084 0.00464329 0.0304835 0.00468307 0.0291007 0.00587662 0.0351587 0.00824701 0.035054 0.00913688 0.0389349
93 1 Mg 1.19203 16.4152 54.521 1.2 1 0.0716383 0.0315452 0.00344244 0.00655813 0.00126197 0.0078626 0.00278891 0.022114 0.00226563 0.0117238 0.00192896 0.0258981 0.0026363 0.0210971 0.00349076 0.0327148 0.00399082 0.0264706 0.00464375 0.0395466
94 2 Si 1.46544 19.0579 56.5132 2.4 1 0.0302446 0.0193673 0.00515185 0.00633752 0.0011657 0.00620179 0.00193915 0.021043 0.00204835 0.00903961 0.00259788 0.0249128 0.00185306 0.0191655 0.00416596 0.0308515 0.00401586 0.0246312 0.00553187 0.0424431
95 3 O 1.35083 17.4473 56.4183 -1.2 1 0.0340567 0.0207747 0.00535147 0.00607382 0.000863656 0.00627127 0.00271703 0.0215627 0.00284374 0.00911904 0.00180659 0.0251653 0.00272481 0.0190823 0.00347212 0.0320453 0.00452567 0.0254814 0.0051961 0.0417687
96 3 O 1.45147 20.239 52.7294 -1.2 1 0.109165 0.0382018 0.000640771 0.00761116 0.00123277 0.0108088 0.00322854 0.023015 0.00261924 0.0138616 0.0028733 0.0271 0.00368116 0.0223475 0.00470985 0.0317908 0.00428831 0.028151 0.00577254 0.0389851
97 3 O 0.204508 19.7454 55.6616 -1.2 1 0.0502164 0.0257186 0.00422593 0.00572025 0.000755575 0.00650198 0.00217178 0.0211794 0.00178535 0.0104252 0.00259322 0.0249472 0.00190681 0.0204613 0.00454087 0.0316737 0.00383769 0.02582 0.00459595 0.0406727
98 3 O 2.64756 19.7883 55.7678 -1.2 1 0.0422656 0.0242418 0.00552192 0.00596705 0.00118551 0.00618017 0.0027417 0.0214666 0.00183966 0.00995129 0.00271633 0.0246847 0.00219566 0.0197964 0.00441042 0.032123 0.00431254 0.0260878 0.00539844 0.0414958
99 1 Mg -0.126194 18.8651 52.2079 1.2 1 0.115668 0.0423279 0.000944931 0.00912789 0.00203328 0.00973195 0.00226513 0.0240392 0.00274996 0.0148203 0.00285593 0.0277569 0.00265544 0.0231644 0.0043034 0.0329752 0.00420281 0.0291788 0.00597528 0.0383537
100 1 Mg 1.92402 18.5815 49.4545 1.2 1 0.182033 0.0535328 0.00588673 0.0120625 0.00175634 0.0148323 0.00424596 0.0260287 0.00459808 0.0192767 0.00416548 0.0294483 0.0043884 0.0278836 0.00493848 0.035121 0.00604587 0.0329431 0.00876489 0.0386683
101 2 Si 1.38106 20.9117 51.2443 2.4 1 0.143721 0.046764 0.00198604 0.0104414 0.00184462 0.012649 0.00338787 0.0245993 0.00361693 0.016493 0.00421781 0.0271224 0.00380358 0.025518 0.00489181 0.0328532 0.00379816 0.0308369 0.00727931 0.0394856
102 3 O 1.48527 22.4795 51.3054 -1.2 1 0.142622 0.0438213 0.00295979 0.00906895 0.00177525 0.0123939 0.00296364 0.0232357 0.00340079 0.0157211 0.00336608 0.0275463 0.0033946 0.0244271 0.00418654 0.0327038 0.00470786 0.0297355 0.00633108 0.0388318
103 3 O 1.3214 19.7577 57.8579 -1.2 1 0.0166916 0.0125899 0.0033914 0.00557883 0.00128817 0.00597516 0.00167494 0.0208138 0.00176402 0.00913786 0.00267894 0.0247473 0.00204909 0.0183334 0.00351816 0.030578 0.00326077 0.0247925 0.00447116 0.0414693
104 3 O 0.0615419 20.2804 50.6669 -1.2 1 0.155262 0.0477687 0.0042168 0.0114602 0.00287522 0.0134137 0.00333604 0.0250287 0.00351553 0.0168061 0.00279489 0.028158 0.00379477 0.0262427 0.00485091 0.0331254 0.00441559 0.0310108 0.00722964 0.0392434
105 1 Mg -3.09665 18.8643 52.3122 1.2 1 0.122161 0.0415043 0.00105197 0.00869248 0.0015545 0.0113712 0.0026099 0.023399 0.002448 0.0146373 0.00293596 0.0273644 0.00257638 0.0233257 0.00368365 0.0325434 0.00416842 0.0287443 0.00566525 0.0384102
106 3 O 2.61548 20.2646 50.4626 -1.2 1 0.158082 0.0490295 0.0040532 0.0103867 0.00145415 0.0138019 0.0032819 0.025152 0.00353054 0.0179282 0.00358416 0.0282672 0.00316701 0.0264888 0.00480103 0.0336914 0.00503608 0.030808 0.0069358 0.0387187
107 1 Mg -1.57729 18.8317 55.1897 1.2 1 0.0524676 0.0271723 0.00503558 0.00643626 0.00157641 0.00668069 0.0025144 0.0220017 0.00249901 0.0105027 0.00333217 0.0253598 0.00175493 0.0203385 0.00454742 0.0320969 0.00450875 0.0265421 0.00520471 0.0405302
108 2 Si -1.76846 16.7819 53.1862 2.4 1 0.0984492 0.0381311 0.00252312 0.00837867 0.00269908 0.008352 0.00156406 0.022488 0.00314068 0.0128844 0.00265928 0.0260289 0.00232715 0.022794 0.00356893 0.033008 0.00496754 0.0275563 0.00551204 0.0394263
109 3 O -1.63646 15.259 53.0898 -1.2 1 0.0999596 0.0381571 0.00253476 0.0084204 0.00253516 0.00862097 0.00207751 0.0223508 0.00299395 0.0126528 0.00245854 0.0265911 0.00273999 0.0222996 0.00460955 0.0327711 0.00368761 0.0271074 0.00650067 0.0392494
110 3 O -1.12868 18.1227 46.4249 -1.2 1 0.267966 0.0549695 0.0203454 0.0209366 0.00532561 0.0239146 0.00558735 0.0316503 0.00799511 0.0223407 0.00625403 0.0333939 0.00610813 0.0273946 0.00930198 0.0377957 0.0121394 0.0381004 0.0118858 0.0386337
111 3 O -2.99825 17.3914 54.0984 -1.2 1 0.080852 0.0327215 0.00266475 0.00643688 0.00144387 0.00898111 0.0015301 0.0225378 0.00194096 0.012018 0.00186795 0.0254491 0.00242498 0.0216061 0.00302255 0.0326944 0.00389862 0.0270454 0.00481723 0.0393786
112 3 O -0.508214 17.4157 54.0105 -1.2 1 0.0775397 0.0336292 0.00381566 0.00698713 0.00214842 0.00676616 0.00162923 0.0226418 0.00240476 0.0115416 0.00242539 0.0255554 0.00186133 0.0216282 0.00396811 0.0328842 0.00395124 0.0273022 0.00551804 0.0395654
113 1 Mg -2.59706 25.7635 57.0207 1.2 1 0.0246614 0.0159889 0.00471579 0.00543333 0.00111897 0.00612196 0.00198308 0.0187945 0.00199673 0.00992915 0.00260876 0.0234129 0.00279378 0.0188496 0.0035608 0.0293819 0.00420839 0.0243297 0.00429696 0.039528
114 1 Mg -1.48778 25.88 49.8402 1.2 1 0.181117 0.0485713 0.00714156 0.0120415 0.0031668 0.0154369 0.00279976 0.0256004 0.00352634 0.018495 0.00418372 0.029944 0.00350547 0.0261585 0.00544876 0.0344842 0.00554258 0.0318807 0.00857266 0.0379627
115 2 Si -1.00491 23.3922 47.9274 2.4 1 0.233207 0.0549345 0.015215 0.0174901 0.00434429 0.0212054 0.00467176 0.0279751 0.00668439 0.020831 0.00553627 0.0316806 0.00551017 0.0290188 0.00594038 0.0358009 0.00875098 0.034481 0.00999893 0.0391874
116 3 O -0.927602 24.9615 47.9909 -1.2 1 0.229491 0.0532733 0.0146632 0.0171061 0.00413184 0.0205141 0.00434345 0.0277754 0.00654687 0.0202854 0.00598489 0.0311019 0.0056687 0.0280413 0.00744707 0.0360737 0.00833747 0.0345567 0.0098498 0.0387483
117 3 O -1.55795 22.2588 51.7696 -1.2 1 0.134596 0.0423587 0.00231692 0.0095218 0.00269787 0.0119608 0.00139612 0.0235742 0.00228414 0.0152464 0.00278974 0.0278719 0.00364997 0.0241267 0.00393731 0.0325378 0.00507185 0.0287462 0.00633026 0.0390766
118 3 O -2.17411 22.8111 48.8277 -1.2 1 0.203645 0.0537882 0.00979067 0.0142658 0.00320806 0.0174009 0.00377273 0.0272928 0.00456319 0.0205415 0.00427029 0.0306826 0.00396521 0.0278946 0.00567141 0.0353533 0.00662765 0.0338448 0.00891738 0.038321
119 1 Mg 0.0423997 21.3296 46.8225 1.2 1 0.258003 0.0554818 0.0189152 0.0201353 0.00533108 0.0250431 0.00608422 0.031311 0.00795467 0.0228246 0.00677153 0.0331017 0.00700908 0.0293635 0.00858068 0.0363553 0.00937484 0.0367333 0.011706 0.0392459
120 3 O 0.458537 22.7495 48.3911 -1.2 1 0.214857 0.0545209 0.0113658 0.0157736 0.00363275 0.018498 0.00337124 0.0277759 0.00560687 0.0204219 0.00415811 0.0304769 0.00485296 0.0292924 0.00571677 0.0353942 0.00775958 0.0353939 0.00896588 0.0394966