ITEM: TIMESTEP
71300
ITEM: NUMBER OF ATOMS
10500
ITEM: BOX BOUNDS xy xz yz pp pp pp
0	8.9688	2.9896
0	118.725	0
0	252.977	0
ITEM: ATOMS id type element xu yu zu q Q_1 Q_2 Q_3 Q_4 Q_5 Q_6 Q_7 Q_8 Q_9 Q_10 Q_11 Q_12 Q_13 Q_14 Q_15 Q_16 Q_17 Q_18 Q_19 Q_20 Q_21
1 1 Mg -3.42777 7.04578 57.305 1.2 1 0.0235645 0.0172699 0.00486439 0.00380035 0.00163469 0.00683588 0.00104122 0.021309 0.00189803 0.00861525 0.00163509 0.0252813 0.00215072 0.0179986 0.00309191 0.0316749 0.00366443 0.024148 0.00469229 0.0416228
2 1 Mg -1.82655 6.90154 50.0912 1.2 1 0.177153 0.0464909 0.00620967 0.00991507 0.00300512 0.00801173 0.00398166 0.0222242 0.0041257 0.0142919 0.00513748 0.0246958 0.00415126 0.0205105 0.00650966 0.028716 0.0061676 0.0245952 0.00886815 0.0336529
3 2 Si -0.257935 3.96038 48.0876 2.4 1 0.225372 0.0517812 0.0118834 0.0122408 0.00218458 0.00890465 0.00360285 0.0200962 0.00529491 0.0168674 0.00441245 0.024034 0.00503972 0.0205024 0.00583725 0.0266666 0.00675272 0.0247219 0.00823985 0.0323535
4 3 O -0.335812 5.46814 47.6264 -1.2 1 0.231915 0.0517403 0.0139746 0.0131912 0.00301143 0.00961686 0.00461619 0.02069 0.0057282 0.017366 0.00485516 0.0245867 0.00460161 0.0209834 0.00580476 0.0267124 0.00727445 0.0252496 0.00921858 0.0309067
5 3 O -2.03793 3.43377 51.8941 -1.2 1 0.130329 0.0398592 0.00223614 0.00647598 0.00210556 0.00666674 0.0022187 0.0199815 0.00240865 0.0116485 0.00352511 0.0248805 0.00373003 0.0178487 0.00458757 0.0290092 0.00492357 0.0235708 0.00746167 0.0365439
6 3 O -1.54015 3.53929 48.9521 -1.2 1 0.200739 0.0492997 0.0085451 0.0107479 0.0021835 0.00797495 0.00332573 0.0202018 0.00452894 0.0144889 0.00478948 0.0237626 0.00398149 0.0193779 0.00581359 0.0275475 0.00555764 0.0237483 0.008094 0.0323393
7 1 Mg 1.82954 2.54582 47.1376 1.2 1 0.247523 0.0511766 0.0159315 0.0152677 0.00279114 0.0107512 0.00339101 0.0200853 0.00555656 0.01547 0.0046924 0.0238688 0.00593912 0.0194875 0.00766226 0.0252627 0.00634741 0.0234155 0.00810769 0.0306216
8 3 O 1.22989 3.66364 48.7877 -1.2 1 0.206571 0.0492591 0.00939105 0.0119856 0.0022728 0.00897212 0.00355769 0.0201957 0.00410772 0.0146189 0.00410075 0.0237124 0.00435409 0.0193966 0.00611786 0.0267814 0.00458201 0.0240271 0.00811188 0.0328552
9 1 Mg 0.970992 2.18968 54.5518 1.2 1 0.0710339 0.0287909 0.00483745 0.00372594 0.00174722 0.00568319 0.00230624 0.0203197 0.00253667 0.00937391 0.00292016 0.0254927 0.00317468 0.0176554 0.00479822 0.0311462 0.00319868 0.0246974 0.00603164 0.0399987
10 2 Si 1.17961 4.90787 56.3187 2.4 1 0.0342235 0.0200084 0.00575335 0.00436394 0.00160977 0.00664516 0.00149713 0.0211818 0.00228327 0.00871519 0.00225303 0.0253274 0.00231633 0.0178927 0.00308229 0.0317215 0.00363297 0.0250771 0.00479388 0.0430394
11 3 O 1.10368 3.35919 56.4567 -1.2 1 0.0379348 0.0212113 0.00575132 0.00397699 0.00151599 0.00589185 0.00207882 0.0206837 0.00232962 0.00844567 0.00208792 0.0257121 0.0019758 0.0167245 0.0038086 0.0318194 0.00330586 0.0256657 0.00521946 0.0420942
12 3 O 1.10813 6.07342 52.8172 -1.2 1 0.107585 0.0359336 0.00233078 0.00559269 0.00229607 0.00652539 0.00322772 0.0214674 0.00302708 0.0111309 0.00295906 0.0252674 0.0037414 0.0186604 0.00555109 0.0302371 0.00413887 0.0238713 0.00679444 0.0371972
13 3 O -0.0969114 5.46798 55.6043 -1.2 1 0.0507678 0.0249369 0.00523984 0.00386252 0.00167565 0.00565276 0.00229519 0.0203623 0.00233215 0.00870025 0.00249083 0.0255697 0.00229427 0.0180132 0.00441003 0.0321396 0.00342552 0.0243597 0.00574602 0.0412856
14 3 O 2.40957 5.80568 55.7754 -1.2 1 0.0440629 0.0239879 0.00599583 0.00389092 0.00146403 0.00630892 0.00256848 0.0211423 0.00232739 0.00910146 0.00268004 0.0256162 0.00241931 0.0183164 0.00489931 0.0322962 0.0035586 0.025006 0.00588086 0.041635
15 1 Mg -0.459401 4.67631 52.2426 1.2 1 0.125405 0.0399002 0.00219681 0.00614635 0.00248496 0.0060879 0.00228825 0.0208732 0.00284888 0.0122389 0.00303186 0.0254065 0.00409123 0.0187701 0.00492044 0.0295649 0.004512 0.0234116 0.00639016 0.0355331
16 1 Mg 2.79456 3.9971 49.9987 1.2 1 0.17585 0.0483943 0.0057102 0.00958392 0.0024845 0.00778286 0.00404615 0.0203698 0.00302865 0.0143406 0.0033016 0.0239914 0.00448055 0.0201077 0.00629112 0.0283774 0.00468577 0.0243218 0.00870115 0.033281
17 2 Si 1.16169 6.59457 51.2556 2.4 1 0.148497 0.0449243 0.00246707 0.00827312 0.00268558 0.00760871 0.00359785 0.0215385 0.00398433 0.0132435 0.00485461 0.0243358 0.00391297 0.0205972 0.00646486 0.0295626 0.00499519 0.0244323 0.00876008 0.0351335
18 3 O 1.28989 8.18905 51.2909 -1.2 1 0.147441 0.0440601 0.00283274 0.00834814 0.0029277 0.00819992 0.0038439 0.0222352 0.00341328 0.0129904 0.00457091 0.025913 0.00395114 0.0207117 0.00572472 0.0296246 0.00542847 0.0249754 0.00800103 0.0361792
19 3 O 1.03776 5.64647 57.8629 -1.2 1 0.0156637 0.0136487 0.00391254 0.00425334 0.00159109 0.00685132 0.00119626 0.0209439 0.00247346 0.00804208 0.00169971 0.0250457 0.0020455 0.0176207 0.00358276 0.0321779 0.00345652 0.0253509 0.00373905 0.0429883
20 3 O -0.184847 6.06029 50.6845 -1.2 1 0.164268 0.0447921 0.00514761 0.00904396 0.0032631 0.00728581 0.00400855 0.0217141 0.0041659 0.0138045 0.00373858 0.0241355 0.00401381 0.0202163 0.00535663 0.0280049 0.00514057 0.0242958 0.00826637 0.035135
21 1 Mg -3.49704 4.67769 52.6661 1.2 1 0.117528 0.0377159 0.00186754 0.00554826 0.00246462 0.00651913 0.00271442 0.0202739 0.00294417 0.0114466 0.00366213 0.0255117 0.00362925 0.0182463 0.0047566 0.0292475 0.00431945 0.0229703 0.0069895 0.0368723
22 3 O 2.48581 5.93312 50.6539 -1.2 1 0.158963 0.0462066 0.00388702 0.0078928 0.00177384 0.0079287 0.00380852 0.0215549 0.00368669 0.0139577 0.00465552 0.0240566 0.00386907 0.020668 0.00630941 0.0291645 0.00498954 0.0246849 0.00836715 0.0341071
23 1 Mg -1.86555 4.71561 55.2079 1.2 1 0.0531992 0.026276 0.00573577 0.00423102 0.00155629 0.005933 0.00189773 0.0208201 0.00270193 0.00933971 0.00307624 0.0261169 0.00224294 0.0186093 0.00463539 0.0316108 0.00399486 0.0247504 0.00558063 0.0406899
24 2 Si -1.92591 2.59175 53.2349 2.4 1 0.10413 0.0353106 0.00287927 0.00519338 0.00249704 0.0062518 0.00180419 0.0198657 0.00292265 0.010899 0.00308002 0.0245534 0.0030957 0.0181552 0.003663 0.02985 0.00438967 0.024304 0.00629401 0.0380999
25 3 O -1.94043 0.985301 53.0674 -1.2 1 0.104325 0.0345096 0.00266119 0.00530656 0.00276405 0.00612468 0.0015675 0.0197118 0.00262336 0.00993202 0.002921 0.0251037 0.00335356 0.0172444 0.00458822 0.0295923 0.00410602 0.0243011 0.00618878 0.038071
26 3 O -0.0467762 2.97103 46.8385 -1.2 1 0.254569 0.0516612 0.0164089 0.0149706 0.00303269 0.00956159 0.00354642 0.0197612 0.00606812 0.0165329 0.00611349 0.023742 0.00677053 0.0190149 0.00837481 0.024968 0.00648403 0.0236675 0.0093053 0.0318408
27 3 O -3.29981 3.32455 53.9954 -1.2 1 0.0828168 0.0309768 0.00349431 0.00374343 0.00187408 0.00592618 0.00179615 0.0207599 0.00229691 0.0103706 0.00250808 0.0248744 0.00238281 0.0179821 0.00394109 0.030313 0.00395729 0.0240404 0.00600304 0.0392282
28 3 O -0.710567 3.31843 54.0921 -1.2 1 0.0810651 0.0308555 0.00382643 0.00382419 0.00217571 0.00628252 0.00119536 0.0205638 0.0019219 0.0103195 0.00233993 0.0249885 0.00291085 0.0184213 0.00392069 0.0308148 0.0035518 0.024987 0.00595892 0.0390095
29 1 Mg -3.19413 11.7363 57.1632 1.2 1 0.0221835 0.0175804 0.0042622 0.00461946 0.00131905 0.00676923 0.00154059 0.0210021 0.00160003 0.00906554 0.00167397 0.0260207 0.00205683 0.0191745 0.00307358 0.0314843 0.00315273 0.0239728 0.00389007 0.0397117
30 1 Mg -1.75014 11.5838 49.8362 1.2 1 0.187167 0.0480246 0.00811116 0.01172 0.00451133 0.0117532 0.00469946 0.0239921 0.00492676 0.0155773 0.005496 0.0275219 0.00442442 0.0235063 0.00697815 0.0318311 0.007167 0.028105 0.00956087 0.0348909
31 2 Si -1.18003 9.02138 47.9309 2.4 1 0.241618 0.051234 0.0153947 0.0156292 0.00550869 0.0119329 0.0073812 0.0233239 0.0071182 0.0168027 0.00758207 0.025974 0.00491025 0.02238 0.0072343 0.0295197 0.00955779 0.0278066 0.012237 0.0328422
32 3 O -1.23224 10.5991 47.9811 -1.2 1 0.230055 0.0517709 0.0131535 0.0156551 0.00576774 0.0128801 0.00646201 0.0244976 0.00692833 0.0166912 0.00746929 0.0270136 0.00529336 0.023161 0.00787119 0.0315813 0.00947368 0.029805 0.010858 0.0330145
33 3 O -1.79016 8.01447 51.8693 -1.2 1 0.13417 0.0406748 0.00251575 0.00771638 0.00342639 0.00704318 0.00259979 0.0219108 0.00309082 0.0125293 0.0039911 0.025679 0.0036964 0.0203224 0.00498607 0.0300041 0.00541999 0.0238738 0.00790066 0.0360217
34 3 O -2.30986 8.37215 48.8528 -1.2 1 0.205398 0.0514233 0.00948814 0.0121563 0.00437695 0.00967198 0.00588006 0.0231237 0.00531653 0.0167036 0.00546704 0.0255759 0.00440498 0.0223258 0.00683567 0.0299767 0.0070482 0.0266044 0.00977026 0.0327784
35 1 Mg 0.154883 7.08234 46.8007 1.2 1 0.258706 0.0519242 0.0182603 0.0157982 0.00573882 0.0120199 0.00800973 0.0236168 0.00731894 0.0177028 0.00758294 0.0250636 0.00635008 0.0214413 0.00865521 0.0286038 0.0100565 0.0277166 0.0125601 0.0308464
36 3 O 0.325447 8.50934 48.3809 -1.2 1 0.217003 0.0522449 0.0110199 0.0139855 0.00419614 0.0107383 0.00598476 0.0241115 0.00582262 0.0167937 0.00643613 0.0252318 0.00464176 0.0233264 0.00544676 0.0292397 0.0079307 0.0278334 0.0103247 0.0324787
37 1 Mg 1.15131 7.09294 54.6203 1.2 1 0.0683708 0.0297523 0.00418791 0.00418178 0.00208657 0.00618501 0.00210868 0.0210178 0.00237356 0.00971282 0.00305349 0.0256446 0.00278042 0.0190761 0.00426029 0.031896 0.0043325 0.0235029 0.00593096 0.0394229
38 2 Si 1.19362 9.65419 56.3307 2.4 1 0.0343103 0.0217038 0.00467986 0.00466983 0.00171602 0.00631587 0.00190645 0.0214524 0.00206182 0.00844545 0.00267291 0.0248568 0.00229707 0.0196223 0.0040856 0.0317114 0.00407226 0.0234637 0.0055658 0.0413332
39 3 O 1.07481 8.02313 56.5367 -1.2 1 0.0301702 0.0194374 0.00518572 0.00412184 0.00148048 0.00626091 0.0015388 0.0208428 0.00263543 0.00752262 0.00187781 0.0254665 0.00295732 0.0179623 0.00343261 0.0317901 0.0045403 0.024063 0.005116 0.0417694
40 3 O 1.28624 10.7248 52.7351 -1.2 1 0.111548 0.0379647 0.00164521 0.00603273 0.00269114 0.00881941 0.0027004 0.0224482 0.00263826 0.0117066 0.00406713 0.0262189 0.00452239 0.020709 0.00531852 0.0315339 0.00434945 0.0253418 0.00703102 0.0374496
41 3 O -0.0863492 10.3647 55.7563 -1.2 1 0.048625 0.0264104 0.003932 0.0044951 0.00190573 0.00615312 0.00212929 0.0215243 0.00202838 0.00941662 0.0026544 0.025248 0.00252092 0.0200327 0.00458447 0.031926 0.00376134 0.0238987 0.00574424 0.0401023
42 3 O 2.4673 10.3962 55.6719 -1.2 1 0.0445979 0.0257242 0.0047441 0.00468135 0.00143889 0.00645828 0.00206089 0.0211802 0.00183537 0.00907424 0.00223561 0.0251202 0.00252691 0.0199119 0.00402723 0.0324181 0.00327632 0.0242377 0.00507303 0.0402497
43 1 Mg -0.262694 9.34741 52.2523 1.2 1 0.115258 0.0407078 0.00226649 0.00713147 0.00341158 0.00745331 0.00214574 0.0226506 0.00262557 0.0120441 0.00365496 0.0262412 0.00368091 0.0205578 0.00540847 0.0309702 0.00467416 0.0247956 0.00756554 0.0363496
44 1 Mg 1.87648 9.01537 49.4629 1.2 1 0.186586 0.0518784 0.00630364 0.0109467 0.00342799 0.00978321 0.00604024 0.0235138 0.00476697 0.0160032 0.00572078 0.0259776 0.00488243 0.0227344 0.00636263 0.0301071 0.00581657 0.0273745 0.00997011 0.0337318
45 2 Si 1.21415 11.3799 51.2378 2.4 1 0.146038 0.0456624 0.00280782 0.00858767 0.00331621 0.00995153 0.00343442 0.0236355 0.00395915 0.0139481 0.00470856 0.0257258 0.00467184 0.0228358 0.00563676 0.0312538 0.00531315 0.027246 0.00841764 0.0364948
46 3 O 1.31634 12.9512 51.3023 -1.2 1 0.143803 0.0435276 0.00368674 0.00835973 0.00301607 0.0105232 0.00316081 0.0232646 0.0041594 0.0141371 0.00377149 0.0273943 0.00448838 0.0236861 0.00532219 0.0317973 0.00567772 0.0279577 0.00749586 0.03662
47 3 O 1.1604 10.4253 57.8841 -1.2 1 0.0156319 0.0142214 0.00365266 0.00450728 0.00137914 0.00647053 0.00110117 0.0208618 0.00186283 0.0080597 0.00208682 0.0246383 0.00207217 0.0188594 0.00300444 0.0313929 0.00299662 0.0237549 0.00345795 0.0404311
48 3 O -0.115718 10.7564 50.681 -1.2 1 0.156742 0.0460937 0.00423106 0.0100932 0.00382558 0.00964505 0.00356807 0.0235501 0.00406252 0.0138239 0.00406877 0.0265368 0.00411682 0.0225394 0.00639036 0.0304454 0.00514162 0.0265746 0.00941185 0.035564
49 1 Mg -3.26386 9.35564 52.3622 1.2 1 0.122198 0.0392555 0.00190102 0.0065821 0.00246 0.0087007 0.00333354 0.0222725 0.00289496 0.0119961 0.0044901 0.0256482 0.00333998 0.0205677 0.00582438 0.0309065 0.00439144 0.0250627 0.00787053 0.0354396
50 3 O 2.45216 10.7265 50.4558 -1.2 1 0.162469 0.0475496 0.00434489 0.00871694 0.00260843 0.0104188 0.00449373 0.0230298 0.00414171 0.0150929 0.00458913 0.0262974 0.00429565 0.0232263 0.00616812 0.0313863 0.00565316 0.0275136 0.00895697 0.0350699
51 1 Mg -1.73393 9.58441 55.4454 1.2 1 0.050644 0.0272908 0.00461863 0.00451336 0.00209441 0.00655126 0.00208785 0.0216348 0.00231776 0.0095687 0.00291848 0.0255295 0.00243149 0.0200978 0.00432665 0.0315732 0.00465144 0.0239143 0.00606657 0.0396519
52 2 Si -1.76037 7.39151 53.4072 2.4 1 0.0959543 0.0360549 0.00312236 0.00551018 0.00325816 0.00638707 0.00201927 0.0208707 0.0030507 0.0109597 0.00301703 0.025351 0.00285206 0.0198082 0.00398939 0.0303928 0.00489094 0.0230365 0.00637678 0.0375473
53 3 O -1.84688 5.83795 53.3137 -1.2 1 0.0997189 0.0339763 0.00237657 0.00478799 0.00246201 0.00610809 0.00170945 0.0204176 0.00274733 0.0103289 0.00348956 0.0253733 0.0030288 0.0184975 0.00489981 0.0306784 0.00385005 0.0238098 0.00682519 0.0377899
54 3 O -1.19417 8.46968 46.4488 -1.2 1 0.270904 0.0522548 0.0207152 0.0179197 0.0060228 0.0129482 0.0086216 0.0247536 0.00739344 0.0174935 0.00790216 0.025554 0.00567722 0.0210648 0.00942471 0.0299393 0.0104389 0.0290678 0.0117598 0.0305426
55 3 O -3.10054 8.00193 54.0065 -1.2 1 0.0831818 0.0317767 0.00254317 0.00424373 0.00191862 0.00739666 0.00187908 0.0211095 0.00235247 0.0105313 0.00263447 0.0249166 0.00268937 0.0194271 0.00461845 0.0313873 0.00452276 0.0236136 0.00688908 0.0379762
56 3 O -0.549431 8.08317 54.1337 -1.2 1 0.0758482 0.0317557 0.00342783 0.00432433 0.00272239 0.00607002 0.00144082 0.0215573 0.00234151 0.0099228 0.00264239 0.0249499 0.00250547 0.0197061 0.0041484 0.0315291 0.00446666 0.0241558 0.00657734 0.0389141
57 1 Mg -3.34587 16.514 57.365 1.2 1 0.020295 0.015744 0.00435667 0.0053951 0.00112726 0.00672836 0.00151991 0.0207848 0.00177609 0.00866105 0.00153639 0.0257613 0.00171016 0.0192249 0.00230489 0.0309163 0.00381556 0.0242575 0.00266532 0.0404603
58 1 Mg -1.6714 16.3544 49.8412 1.2 1 0.176101 0.0474978 0.00749352 0.0119285 0.00348016 0.0143181 0.00287221 0.0260234 0.00457249 0.0171525 0.00426377 0.0296798 0.0040753 0.0249969 0.00578591 0.0336404 0.00588907 0.0307391 0.00800006 0.0378113
59 2 Si -1.18567 13.8526 47.9314 2.4 1 0.232669 0.0527802 0.0154861 0.0158933 0.00489572 0.0169811 0.00530503 0.0266878 0.00735955 0.0185335 0.00629846 0.0294685 0.00542785 0.0272954 0.00625169 0.0333441 0.00950254 0.0319742 0.011044 0.0361373
60 3 O -1.09664 15.4205 47.9915 -1.2 1 0.234841 0.0527448 0.0157208 0.0166839 0.00510746 0.0185852 0.00497822 0.0274494 0.00703476 0.0189041 0.00684153 0.0300667 0.00575534 0.0270738 0.00768004 0.034632 0.00949513 0.0339739 0.0105597 0.0369235
61 3 O -1.73493 12.7491 51.7772 -1.2 1 0.135284 0.0417511 0.00325149 0.00861032 0.00345398 0.00966462 0.00183304 0.0234661 0.00338837 0.0137607 0.00331841 0.0272167 0.00413717 0.0228878 0.00484609 0.0314951 0.00534056 0.0268408 0.00717886 0.0370014
62 3 O -2.36115 13.2717 48.8238 -1.2 1 0.203634 0.0520078 0.0105903 0.0130652 0.00504033 0.0137714 0.00486208 0.0262245 0.00538325 0.018291 0.00497884 0.0289117 0.00468947 0.0259073 0.0059327 0.0329755 0.00776735 0.0309404 0.00983015 0.0353777
63 1 Mg -0.159928 11.7639 46.8533 1.2 1 0.263275 0.0529215 0.0194372 0.0185745 0.00644244 0.0182975 0.00761626 0.0284452 0.00840957 0.0189778 0.00870757 0.0298183 0.00668965 0.0263865 0.00822233 0.0326201 0.0108465 0.0326158 0.0135575 0.034006
64 3 O 0.2623 13.1866 48.413 -1.2 1 0.21574 0.0523894 0.0122079 0.0147748 0.00447544 0.0149559 0.00473471 0.0271323 0.00644763 0.0178486 0.00557644 0.0284909 0.00504733 0.0268388 0.00536571 0.0325093 0.00868293 0.0321882 0.0100082 0.0359298
65 1 Mg 1.14803 11.8268 54.5807 1.2 1 0.0715641 0.0319161 0.00310473 0.00480032 0.00226638 0.00701884 0.00227455 0.0212777 0.00212758 0.0108582 0.00226372 0.0264422 0.00321981 0.0210876 0.00377034 0.0325267 0.00356877 0.0243531 0.00565776 0.0386542
66 2 Si 1.20744 14.2621 56.2682 2.4 1 0.036996 0.0227239 0.00463276 0.00554343 0.00135046 0.00652237 0.00118415 0.0210074 0.00184712 0.0090316 0.00262544 0.0254424 0.00258383 0.0200239 0.00285396 0.0318339 0.00290293 0.0246061 0.00407428 0.0406224
67 3 O 1.24634 12.8371 56.3232 -1.2 1 0.0385748 0.0231703 0.00413255 0.00522289 0.00130789 0.00615626 0.00161995 0.0204694 0.00271152 0.00880668 0.00167479 0.0260501 0.00301435 0.0193735 0.00309331 0.0319159 0.00415053 0.023893 0.00403545 0.0398295
68 3 O 1.36565 15.4813 52.729 -1.2 1 0.111359 0.0378746 0.00120851 0.00706361 0.00220351 0.0103464 0.0029129 0.0232387 0.00268613 0.0136515 0.00376586 0.0273405 0.00418831 0.0224852 0.00445676 0.0320214 0.00415201 0.027576 0.00635495 0.0383849
69 3 O -0.0752419 15.0119 55.6459 -1.2 1 0.0498301 0.0263406 0.00368488 0.00545112 0.00138684 0.00666642 0.00150469 0.0208641 0.00189025 0.0101236 0.00240302 0.0255238 0.00264295 0.0205406 0.00319775 0.0320507 0.00316419 0.0249136 0.00404089 0.0396597
70 3 O 2.45865 14.9898 55.8145 -1.2 1 0.041811 0.0244083 0.00474134 0.00564316 0.00111687 0.00646405 0.0018412 0.0209325 0.00186467 0.00944295 0.00263417 0.0255997 0.00243868 0.0201018 0.0036033 0.0324609 0.0034353 0.0252797 0.00486962 0.039909
71 1 Mg -0.206989 14.1049 52.2121 1.2 1 0.116778 0.0416372 0.00132681 0.00789354 0.003034 0.00882938 0.00215552 0.0239081 0.00305966 0.0137947 0.00315912 0.0275036 0.00336484 0.0231056 0.00405021 0.0320343 0.00402991 0.0272284 0.00623183 0.0372152
72 1 Mg 1.82591 13.8102 49.4556 1.2 1 0.185547 0.0524934 0.00739188 0.0111949 0.00337108 0.0127221 0.00484806 0.0248792 0.00490599 0.0172233 0.00523591 0.0281472 0.00509751 0.0257414 0.00607541 0.033206 0.00692765 0.0306645 0.00939851 0.03602
73 2 Si 1.29285 16.1518 51.2434 2.4 1 0.144805 0.0461052 0.00271578 0.00966097 0.00292928 0.0118449 0.00368956 0.0245457 0.00380282 0.0157656 0.00472996 0.0275717 0.00454228 0.0248063 0.00503828 0.0327181 0.00484424 0.0300715 0.00813932 0.0386514
74 3 O 1.39496 17.7199 51.3047 -1.2 1 0.142453 0.0433964 0.00290525 0.00923025 0.00219454 0.0120295 0.00291045 0.024276 0.00325274 0.0156271 0.00330869 0.0284664 0.0040982 0.0241668 0.00433409 0.032756 0.00548817 0.0298341 0.00717821 0.0387702
75 3 O 1.04576 15.0938 57.7562 -1.2 1 0.0150337 0.0140383 0.0040003 0.00528827 0.00131695 0.00656294 0.00173131 0.0204844 0.00145852 0.0084087 0.00246598 0.0250168 0.00176679 0.019255 0.00251406 0.0309244 0.00316047 0.0239407 0.00257874 0.0398897
76 3 O -0.0269106 15.5178 50.6688 -1.2 1 0.157796 0.0468662 0.00527943 0.0107339 0.00365649 0.0120324 0.00360549 0.0246464 0.00385641 0.0152797 0.00335293 0.0279738 0.00424116 0.0248882 0.00520942 0.0329861 0.00412229 0.0297759 0.00794311 0.0380573
77 1 Mg -3.18391 14.1057 52.3125 1.2 1 0.124678 0.0412526 0.00228969 0.00747532 0.0022674 0.0104263 0.00285151 0.0235468 0.0032057 0.0141553 0.00389762 0.0272865 0.00359257 0.0231855 0.00407014 0.0320968 0.0044902 0.0274884 0.00610203 0.0368532
78 3 O 2.52432 15.503 50.4579 -1.2 1 0.160751 0.0484824 0.00528624 0.00969122 0.00248071 0.0126863 0.00391399 0.0250674 0.00424994 0.0172366 0.00375165 0.0280655 0.0040578 0.0256945 0.00511059 0.0328731 0.00551027 0.0302005 0.00776789 0.0374294
79 1 Mg -1.70774 14.1221 55.2819 1.2 1 0.0499422 0.0276813 0.00441965 0.00555011 0.0017476 0.00652709 0.00174621 0.0217788 0.0023424 0.0106169 0.00292848 0.0265788 0.00228982 0.0209618 0.00364532 0.0316389 0.00397588 0.0248047 0.00515423 0.0394642
80 2 Si -1.52229 12.1868 53.3014 2.4 1 0.100125 0.0377118 0.00176655 0.00653799 0.00307475 0.00782408 0.00169362 0.0224256 0.00333436 0.012239 0.00238444 0.0262983 0.00296157 0.0222107 0.00416712 0.031582 0.00454857 0.0256171 0.00603478 0.0378687
81 3 O -1.52634 10.7481 53.2671 -1.2 1 0.0971082 0.0360585 0.00216391 0.00597547 0.00304898 0.00760285 0.00161763 0.0214239 0.00268916 0.0108315 0.00314003 0.0258486 0.00266174 0.0205923 0.00498792 0.0315789 0.00422523 0.0245006 0.00723547 0.0378283
82 3 O -1.21337 13.3381 46.4311 -1.2 1 0.272447 0.0521096 0.0214654 0.0198371 0.00683784 0.0194006 0.00688491 0.030133 0.0084035 0.0200109 0.00739229 0.0309588 0.00595733 0.0262312 0.00857612 0.0349821 0.0123697 0.0347852 0.0135499 0.0348042
83 3 O -2.74157 12.8636 54.0594 -1.2 1 0.0821215 0.0342985 0.00189995 0.00525579 0.00229143 0.00809199 0.00148065 0.0221314 0.00240834 0.0115768 0.00274673 0.0262671 0.00262893 0.021562 0.00407144 0.0320987 0.00375783 0.0254825 0.00568997 0.0377614
84 3 O -0.239947 12.9546 53.7128 -1.2 1 0.0853694 0.034488 0.00167631 0.00563484 0.00322246 0.00685328 0.00184735 0.022917 0.002659 0.0117849 0.00278519 0.0261375 0.00274745 0.0217143 0.0033995 0.0320963 0.00370567 0.0256868 0.00502839 0.0381613
85 1 Mg -3.40919 21.073 57.3963 1.2 1 0.0229616 0.0156034 0.00464679 0.00617881 0.00119041 0.00681053 0.0015045 0.0207254 0.00204344 0.00845543 0.00220215 0.0261761 0.00210225 0.0186192 0.00334524 0.0297685 0.00419899 0.0250293 0.00413229 0.0431586
86 1 Mg -1.5831 21.1217 49.8405 1.2 1 0.18114 0.0484777 0.00738876 0.0125802 0.00268339 0.0156925 0.0031085 0.0260433 0.00378698 0.018495 0.00456392 0.0304585 0.00425533 0.0257961 0.00547179 0.0340849 0.00614997 0.0326471 0.00919611 0.0393674
87 2 Si -1.09384 18.6291 47.9287 2.4 1 0.231788 0.0530502 0.0146912 0.0166873 0.00336789 0.0198785 0.0047217 0.0277943 0.00630349 0.019851 0.00579831 0.031384 0.00570294 0.0283711 0.0058929 0.0350714 0.00965509 0.0350696 0.0106526 0.0393357
88 3 O -1.02071 20.1985 47.9911 -1.2 1 0.232346 0.0525175 0.0146786 0.0172534 0.00395572 0.0205519 0.00451836 0.0275802 0.00578377 0.020264 0.00692413 0.0311972 0.00583525 0.0276656 0.00771715 0.0357234 0.00923188 0.035532 0.0113644 0.0392942
89 3 O -1.65002 17.5002 51.771 -1.2 1 0.133845 0.0414268 0.00264267 0.00933459 0.00282085 0.0112074 0.00155707 0.0239089 0.00290692 0.0145497 0.00265426 0.0279098 0.00409823 0.0233318 0.00383762 0.0324447 0.00570717 0.0291013 0.00690117 0.0386996
90 3 O -2.26174 18.0434 48.8281 -1.2 1 0.20156 0.0525632 0.00985704 0.01411 0.00345285 0.0165993 0.00373176 0.0276065 0.00499387 0.0194889 0.00418873 0.0306094 0.00443633 0.0269332 0.00532406 0.0348165 0.00727563 0.0338193 0.00915313 0.0383481
91 1 Mg -0.0440435 16.5651 46.8269 1.2 1 0.256027 0.0538313 0.0189142 0.0188546 0.00485732 0.0227439 0.00565242 0.0311801 0.00810409 0.0212542 0.00674561 0.0326439 0.00621677 0.0288629 0.00750602 0.0349317 0.0102216 0.0364766 0.0116196 0.0385028
92 3 O 0.37001 17.9877 48.3925 -1.2 1 0.212918 0.0529926 0.0114798 0.0153834 0.00361497 0.0174449 0.00367792 0.0283325 0.00554797 0.0196503 0.00425739 0.030494 0.00478083 0.0282978 0.00536927 0.0343937 0.00786722 0.0353612 0.0093785 0.0392077
93 1 Mg 1.12343 16.4467 54.4764 1.2 1 0.0734828 0.03215 0.00278543 0.00588395 0.00161723 0.00794156 0.00234741 0.0219576 0.00215525 0.0119665 0.00218832 0.0268494 0.00328362 0.0219036 0.00321734 0.0319249 0.00441349 0.025598 0.00516522 0.0391791
94 2 Si 1.25476 19.1344 56.2305 2.4 1 0.036828 0.0215039 0.00502851 0.00630532 0.00103798 0.00657929 0.00144191 0.0210866 0.00165581 0.0088181 0.00290193 0.0252487 0.00275346 0.0198041 0.00311539 0.03077 0.00401704 0.0251755 0.00481622 0.0427345
95 3 O 1.23276 17.4665 56.3144 -1.2 1 0.0384738 0.0227465 0.00483181 0.00593729 0.00114331 0.0063896 0.00168468 0.0202397 0.00259487 0.00885581 0.00196543 0.0257494 0.00292962 0.0194304 0.00317357 0.0312172 0.00456491 0.0244515 0.00440824 0.0406682
96 3 O 1.45147 20.239 52.7294 -1.2 1 0.110445 0.0375775 0.00105678 0.00700405 0.00159062 0.0112938 0.00280767 0.0233788 0.00244296 0.014197 0.0031919 0.027408 0.00407963 0.0224914 0.00358866 0.031956 0.00454416 0.0289244 0.00652854 0.0406856
97 3 O -0.0317716 19.833 55.5107 -1.2 1 0.0521434 0.0263806 0.00410916 0.00591673 0.00129751 0.00724179 0.00162013 0.0216615 0.0020506 0.0108888 0.00222702 0.0255676 0.003172 0.0208981 0.0033024 0.0312124 0.00404785 0.0263356 0.00500711 0.0422343
98 3 O 2.3587 19.8301 55.6106 -1.2 1 0.0432769 0.0240323 0.00512935 0.00613223 0.00107752 0.0064523 0.00180134 0.021063 0.00186402 0.00958556 0.0019969 0.0254734 0.00288481 0.0198178 0.00329086 0.0309834 0.00412204 0.0258152 0.0053003 0.0425207
99 1 Mg -0.126194 18.8651 52.2079 1.2 1 0.114342 0.040586 0.000953476 0.00811054 0.00232373 0.00986339 0.00190983 0.0235557 0.00259549 0.0142599 0.00270537 0.027812 0.00362254 0.0228818 0.00294149 0.0322437 0.00446993 0.0287467 0.0062887 0.0392665
100 1 Mg 1.92402 18.5815 49.4545 1.2 1 0.183664 0.0528172 0.00603677 0.0120076 0.0022762 0.0145224 0.00430299 0.0260824 0.00407961 0.0188332 0.00432806 0.0295838 0.00487464 0.026803 0.00490269 0.0348999 0.00633367 0.033734 0.00922846 0.0388484
101 2 Si 1.38106 20.9117 51.2443 2.4 1 0.144037 0.0460077 0.00250279 0.00943136 0.00228316 0.0129097 0.00349546 0.0243213 0.00310774 0.0167554 0.0042703 0.0280376 0.00425855 0.0253644 0.00432239 0.0325616 0.00456089 0.0314542 0.00814688 0.040698
102 3 O 1.48527 22.4795 51.3054 -1.2 1 0.142743 0.0435747 0.00292646 0.00915014 0.00202809 0.0126319 0.00320936 0.0237122 0.00334455 0.0161136 0.00321694 0.0285387 0.0037358 0.023971 0.00417376 0.0328603 0.00550497 0.0309881 0.00763291 0.0412648
103 3 O 1.0949 19.6775 57.8047 -1.2 1 0.0162474 0.0128975 0.00361891 0.00585214 0.00158047 0.00653832 0.00165564 0.0210745 0.001717 0.00793803 0.00238728 0.0252965 0.00229737 0.018561 0.00357132 0.029755 0.00369674 0.0247553 0.00321526 0.0421586
104 3 O 0.0615419 20.2804 50.6669 -1.2 1 0.154311 0.0462361 0.00401472 0.0107446 0.00316318 0.0133448 0.00291939 0.0244882 0.0033624 0.0163804 0.00293155 0.0284479 0.00405981 0.0256841 0.00410271 0.032976 0.00469084 0.0315741 0.00777219 0.0401347
105 1 Mg -3.09665 18.8643 52.3122 1.2 1 0.120543 0.0397309 0.0014692 0.00790194 0.00155334 0.0112173 0.00248645 0.0233751 0.00219967 0.0145479 0.00272913 0.0278297 0.00361238 0.0232049 0.00267415 0.0318424 0.00469963 0.0286102 0.00614213 0.0389037
106 3 O 2.61548 20.2646 50.4626 -1.2 1 0.159677 0.0484592 0.00446062 0.00994755 0.00134169 0.013844 0.00349567 0.0252494 0.00304898 0.0182368 0.00338641 0.0286214 0.00416108 0.0259705 0.00417473 0.0334107 0.00478907 0.0317322 0.00797798 0.0398765
107 1 Mg -1.81684 19.1368 55.1 1.2 1 0.0529142 0.027174 0.00469705 0.00603584 0.00187611 0.00716521 0.0020164 0.0219665 0.00242133 0.0104233 0.00276073 0.0265233 0.00255353 0.0204719 0.00383085 0.0309434 0.00520939 0.0259491 0.00488958 0.041678
108 2 Si -1.65802 16.8149 53.1886 2.4 1 0.101009 0.0372324 0.000984236 0.00739564 0.00245389 0.00832046 0.00156829 0.0228234 0.00324267 0.0134513 0.00229488 0.0267395 0.00308889 0.0227602 0.00355068 0.0322105 0.0052925 0.0273705 0.00523992 0.0392656
109 3 O -1.79406 15.2816 53.1659 -1.2 1 0.0979323 0.0366068 0.00162269 0.00694688 0.00254091 0.00816654 0.00147837 0.0222719 0.00311519 0.0123093 0.00250171 0.0269473 0.00294016 0.0217909 0.00427119 0.0323529 0.00432785 0.026516 0.0060372 0.0390527
110 3 O -1.12868 18.1227 46.4249 -1.2 1 0.270577 0.0530957 0.0206774 0.02032 0.00522524 0.0234795 0.00582674 0.0316695 0.00685672 0.0216023 0.00628801 0.0332201 0.00654577 0.0272495 0.00880686 0.0372118 0.0119686 0.0379586 0.0127815 0.0388235
111 3 O -2.93351 17.6188 53.9078 -1.2 1 0.0859897 0.0334115 0.00188 0.00609653 0.0018239 0.00913728 0.00187484 0.0225834 0.00221265 0.0123558 0.00164119 0.0258495 0.00285939 0.022022 0.00258122 0.0321162 0.00434974 0.0271733 0.0055433 0.0395208
112 3 O -0.35966 17.3811 53.8146 -1.2 1 0.082367 0.0343446 0.00254684 0.00632328 0.00248239 0.00721561 0.00149168 0.0224133 0.00243308 0.0120173 0.00189078 0.0262009 0.00324697 0.0220983 0.0032026 0.0324001 0.00476463 0.02675 0.00517179 0.040115
113 1 Mg -3.12583 25.838 57.5967 1.2 1 0.0201777 0.0147147 0.00431586 0.00588441 0.00184491 0.00692647 0.00174642 0.0200219 0.0020826 0.00901466 0.0018654 0.0256082 0.0021245 0.0181777 0.00300693 0.030045 0.00409672 0.0256131 0.00506691 0.0423754
114 1 Mg -1.48778 25.88 49.8402 1.2 1 0.179669 0.0489745 0.00739712 0.0130971 0.00278748 0.0158868 0.0030156 0.0259037 0.00321463 0.0190585 0.00463605 0.0298188 0.00377957 0.0261185 0.00620146 0.0339846 0.00620775 0.0328743 0.0102729 0.0400852
115 2 Si -1.00491 23.3922 47.9274 2.4 1 0.23066 0.0537116 0.0145645 0.0179952 0.00367672 0.0208084 0.00427915 0.0277965 0.0063099 0.0211296 0.00672034 0.0318429 0.00543642 0.0283255 0.00671261 0.0351557 0.0092178 0.0352304 0.0123661 0.0401763
116 3 O -0.927602 24.9615 47.9909 -1.2 1 0.229613 0.0537538 0.014514 0.0181557 0.00390123 0.020779 0.0038499 0.0276007 0.00605493 0.0212635 0.00668247 0.0314195 0.00541335 0.0279661 0.00778943 0.0352463 0.00951357 0.0357534 0.012249 0.04018
117 3 O -1.55795 22.2588 51.7696 -1.2 1 0.135156 0.0421421 0.00251447 0.00975796 0.0025114 0.0120359 0.00150241 0.0242487 0.00201027 0.0156632 0.00275229 0.0285511 0.00385583 0.0237591 0.00349558 0.0323647 0.00536612 0.0302372 0.00748907 0.0411866
118 3 O -2.17411 22.8111 48.8277 -1.2 1 0.205406 0.0537472 0.0100641 0.0148006 0.00293207 0.0175028 0.00404321 0.0276702 0.00463241 0.0208166 0.00488091 0.0310008 0.00459395 0.0275122 0.0061235 0.0349808 0.00748806 0.0348226 0.0106463 0.0396639
119 1 Mg 0.0423997 21.3296 46.8225 1.2 1 0.260771 0.0537909 0.0190065 0.0202938 0.00433732 0.0248424 0.00604036 0.0314163 0.00751593 0.0229728 0.00764192 0.0337194 0.00696143 0.0289098 0.00913618 0.0359067 0.0106307 0.037799 0.0134952 0.0394257
120 3 O 0.458537 22.7495 48.3911 -1.2 1 0.213096 0.0533548 0.0111793 0.0157166 0.00341614 0.0183203 0.00324403 0.0273768 0.00509455 0.0205127 0.00490514 0.0304636 0.00519678 0.0288123 0.00607652 0.0347069 0.00826864 0.0360479 0.011117 0.0406033