ITEM: TIMESTEP
18400
ITEM: NUMBER OF ATOMS
10500
ITEM: BOX BOUNDS xy xz yz pp pp pp
0	8.9688	2.9896
0	118.725	0
0	252.977	0
ITEM: ATOMS id type element xu yu zu q Q_1 Q_2 Q_3 Q_4 Q_5 Q_6 Q_7 Q_8 Q_9 Q_10 Q_11 Q_12 Q_13 Q_14 Q_15 Q_16 Q_17 Q_18 Q_19 Q_20 Q_21
1 1 Mg -3.35855 7.09582 57.5268 1.2 1 0.022413 0.0156403 0.00559417 0.00633717 0.00118504 0.0067514 0.000889115 0.0227856 0.00157174 0.00940777 0.00177012 0.0285926 0.00267821 0.0199304 0.00244338 0.0327108 0.00289794 0.0262094 0.00404344 0.0490091
2 1 Mg -1.82655 6.90154 50.0912 1.2 1 0.175187 0.0480979 0.00644757 0.00982736 0.00319418 0.00852341 0.00446611 0.0228002 0.0042823 0.0142574 0.00475223 0.0256338 0.00464558 0.0205507 0.00622518 0.0294209 0.00556586 0.0258624 0.00895917 0.0353429
3 2 Si -0.257935 3.96038 48.0876 2.4 1 0.225614 0.054048 0.0127086 0.0121515 0.00244188 0.00947351 0.00400792 0.0204163 0.00572664 0.016676 0.00437614 0.0244961 0.00575722 0.0203367 0.00578504 0.0269073 0.00686623 0.0250567 0.00894995 0.0330243
4 3 O -0.335812 5.46814 47.6264 -1.2 1 0.233015 0.0536062 0.0145845 0.0131752 0.00315226 0.0105357 0.00496614 0.0209997 0.00623948 0.0173338 0.00504549 0.0251473 0.00516035 0.0208002 0.00556544 0.0271779 0.00729014 0.0258023 0.00949481 0.0317054
5 3 O -2.03793 3.43377 51.8941 -1.2 1 0.129103 0.0416806 0.00215065 0.00660341 0.00191912 0.00670672 0.00296466 0.0208057 0.00265609 0.0116553 0.00314683 0.0254775 0.00371724 0.0184349 0.00394055 0.0295916 0.0051369 0.0239829 0.00820859 0.0390499
6 3 O -1.54015 3.53929 48.9521 -1.2 1 0.204403 0.0528292 0.0098065 0.0107419 0.00241513 0.00836911 0.0039563 0.0201792 0.00500827 0.0153305 0.00458389 0.0240269 0.00471743 0.0200782 0.00606419 0.0277226 0.00552241 0.0243719 0.0087923 0.0331355
7 1 Mg 1.82954 2.54582 47.1376 1.2 1 0.245989 0.0531924 0.0169413 0.015109 0.00292614 0.011013 0.00356506 0.0202227 0.00551121 0.0156367 0.00445558 0.0242549 0.00638422 0.0193489 0.00737758 0.0253629 0.0066213 0.0237315 0.00886663 0.0308716
8 3 O 1.22989 3.66364 48.7877 -1.2 1 0.204919 0.0512349 0.00994167 0.0115981 0.00209946 0.00927066 0.00419761 0.0203266 0.00402895 0.0150189 0.00397079 0.0238732 0.00506586 0.0197234 0.00572643 0.0273158 0.00458388 0.0245697 0.00879096 0.034186
9 1 Mg 0.99887 2.25777 54.4527 1.2 1 0.0721105 0.0307077 0.00444615 0.00487498 0.00148291 0.00505319 0.00279385 0.0216555 0.00267198 0.00988023 0.00295829 0.0270332 0.00387343 0.0195496 0.00390015 0.0316831 0.00323736 0.024646 0.00662672 0.0445464
10 2 Si 1.12485 5.00543 56.4165 2.4 1 0.0323553 0.0197483 0.00641263 0.00621431 0.000878426 0.00677569 0.00233799 0.0224387 0.00164088 0.00898339 0.00288264 0.027245 0.00230684 0.0199779 0.00420249 0.0321948 0.0032214 0.0259266 0.00605832 0.0496304
11 3 O 1.01895 3.51213 56.5813 -1.2 1 0.032598 0.0199186 0.00604943 0.00579171 0.000759798 0.00580865 0.00202347 0.0220175 0.00239124 0.00857703 0.00225549 0.027964 0.00247608 0.0192165 0.00337453 0.0323894 0.00354504 0.0260266 0.00530719 0.049084
12 3 O 1.10813 6.07342 52.8172 -1.2 1 0.105905 0.036761 0.00264743 0.00627558 0.00220158 0.00707495 0.0033383 0.0222824 0.0034544 0.0113269 0.00316866 0.0261886 0.00368086 0.0193011 0.00379717 0.0308081 0.00441324 0.0254438 0.00710269 0.0409367
13 3 O -0.146522 5.69742 55.7255 -1.2 1 0.0470373 0.0248499 0.00634293 0.00553909 0.00119646 0.00565888 0.0020021 0.0218933 0.00197988 0.0100115 0.00222226 0.0273553 0.00263976 0.0195131 0.00443346 0.0324073 0.00301692 0.0258711 0.00583599 0.0473459
14 3 O 2.38057 5.63326 55.6529 -1.2 1 0.0438736 0.0244355 0.00672584 0.00537235 0.00115126 0.00614122 0.00228602 0.0226535 0.00124849 0.00937239 0.00268352 0.0273327 0.00260598 0.0198595 0.00428275 0.0334437 0.00293261 0.0266786 0.00618665 0.047731
15 1 Mg -0.459401 4.67631 52.2426 1.2 1 0.12313 0.041399 0.00215679 0.00649893 0.0021048 0.00644225 0.00269338 0.021432 0.00319685 0.0122845 0.00269591 0.0262957 0.00392158 0.0193843 0.00416257 0.0298762 0.00426053 0.0243352 0.00719957 0.0384837
16 1 Mg 2.79456 3.9971 49.9987 1.2 1 0.176695 0.0503944 0.00595583 0.00960675 0.00270299 0.00775547 0.00473929 0.0210423 0.00319377 0.0148805 0.00289645 0.0247879 0.00467146 0.0204483 0.00610982 0.0287547 0.00455554 0.0248873 0.00949757 0.0346152
17 2 Si 1.16169 6.59457 51.2556 2.4 1 0.147791 0.0462392 0.00262002 0.00861922 0.00259883 0.0082677 0.00415158 0.021974 0.00413071 0.0134646 0.00452561 0.0251428 0.00444575 0.0205431 0.00619837 0.0306115 0.00463818 0.0260345 0.00895448 0.0379785
18 3 O 1.28989 8.18905 51.2909 -1.2 1 0.144471 0.0446175 0.0024895 0.00905749 0.00240545 0.00889782 0.00409936 0.0224838 0.00434965 0.0130428 0.00380879 0.0265877 0.00370405 0.0207756 0.00441954 0.0308866 0.00521523 0.0267682 0.0082122 0.0390111
19 3 O 1.18681 5.71269 57.8543 -1.2 1 0.0167073 0.0133862 0.00462112 0.00632716 0.00110806 0.00699794 0.00119104 0.0228354 0.00156868 0.00871221 0.00223865 0.0281965 0.00233151 0.020018 0.00330039 0.0328463 0.00262948 0.0265641 0.00381614 0.0505568
20 3 O -0.184847 6.06029 50.6845 -1.2 1 0.159111 0.0454319 0.00460483 0.00868904 0.00319854 0.00782564 0.00419737 0.0219701 0.00416605 0.0136647 0.00325131 0.0250384 0.00430226 0.0198412 0.00597167 0.0289243 0.00477593 0.0254102 0.00866836 0.037193
21 1 Mg -3.49704 4.67769 52.6661 1.2 1 0.113037 0.0384476 0.00199703 0.00588545 0.0019391 0.00683392 0.00323809 0.0208912 0.00346442 0.0112561 0.00331976 0.0257979 0.00354145 0.019151 0.00367589 0.0296283 0.00407655 0.0241798 0.00771895 0.0402712
22 3 O 2.48581 5.93312 50.6539 -1.2 1 0.156943 0.0475751 0.00388161 0.00800201 0.0018156 0.00843365 0.00433525 0.0220884 0.00390295 0.0137501 0.00421265 0.0249809 0.00448507 0.0206271 0.0056324 0.0299078 0.00439654 0.0257133 0.00883659 0.0366232
23 1 Mg -1.87174 4.61839 55.116 1.2 1 0.0522108 0.0274125 0.00652923 0.00541314 0.00124939 0.00572015 0.00208304 0.0218998 0.00277335 0.00984002 0.00314342 0.0273789 0.0022995 0.0200397 0.00409377 0.03248 0.0036819 0.0258599 0.00643316 0.0463334
24 2 Si -1.94662 2.66497 53.3206 2.4 1 0.101334 0.0366036 0.00288941 0.00550177 0.00232884 0.00595294 0.00242591 0.021298 0.00285575 0.011096 0.00280826 0.025619 0.00313744 0.0195658 0.00313142 0.0305435 0.0039266 0.0241907 0.00700591 0.0418348
25 3 O -1.99538 1.06651 53.1746 -1.2 1 0.0986899 0.0358461 0.00283805 0.00578505 0.00286188 0.00543418 0.00216833 0.0208137 0.00306388 0.0103176 0.00268791 0.0263647 0.00313927 0.0189132 0.00393421 0.0306088 0.00386541 0.0238219 0.0071884 0.0420775
26 3 O -0.0467762 2.97103 46.8385 -1.2 1 0.252702 0.054067 0.0177119 0.0144837 0.00289712 0.0100579 0.00386805 0.0198486 0.00622418 0.0168075 0.00576999 0.0240338 0.00733192 0.0190483 0.00809114 0.0253768 0.00673545 0.0239407 0.00999459 0.0319988
27 3 O -3.28655 3.23479 54.0082 -1.2 1 0.0811058 0.0326209 0.00404292 0.00484136 0.00157577 0.00558216 0.00244762 0.0213936 0.00255996 0.010569 0.00264335 0.0258931 0.00270746 0.0193257 0.00301744 0.0309147 0.00406691 0.0244006 0.00685975 0.0431699
28 3 O -0.640253 3.27816 53.9693 -1.2 1 0.0821518 0.0331836 0.00439394 0.00496735 0.00173956 0.00582871 0.00189031 0.0214438 0.00245032 0.0104808 0.00197614 0.0263616 0.00322329 0.0196391 0.00316246 0.03121 0.00365638 0.0249374 0.00678393 0.0433055
29 1 Mg -3.06486 11.835 57.2815 1.2 1 0.0237399 0.0152306 0.00578938 0.00631059 0.00118236 0.00646915 0.00147972 0.0227373 0.0020478 0.00965456 0.00131516 0.0284551 0.00266558 0.0199434 0.00279332 0.0337914 0.00281656 0.0265584 0.00427379 0.0489154
30 1 Mg -1.75014 11.5838 49.8362 1.2 1 0.182362 0.0485251 0.00717079 0.0126215 0.00413844 0.0123428 0.00474206 0.0240089 0.00541569 0.0154052 0.00523261 0.0281283 0.00436315 0.0234529 0.0070659 0.0327183 0.00634538 0.0293185 0.00941837 0.0370573
31 2 Si -1.18003 9.02138 47.9309 2.4 1 0.240425 0.0528158 0.0156307 0.0155709 0.00547314 0.0130717 0.00761332 0.0229593 0.00781146 0.0172248 0.00723548 0.0262251 0.00536849 0.0225792 0.00695498 0.0301098 0.00852467 0.0283857 0.0116333 0.0340584
32 3 O -1.23224 10.5991 47.9811 -1.2 1 0.230115 0.0536026 0.0133952 0.0159231 0.00532363 0.0141596 0.00634819 0.0240347 0.00796392 0.0173953 0.0071449 0.0275656 0.00579018 0.0236253 0.00804166 0.0321221 0.00882651 0.0305414 0.0102653 0.0346222
33 3 O -1.79016 8.01447 51.8693 -1.2 1 0.133008 0.0417296 0.00207117 0.00844361 0.00348607 0.00740815 0.0031419 0.0222038 0.00347405 0.0124166 0.00377542 0.0268593 0.00340457 0.020186 0.00457261 0.0309912 0.00538409 0.0256541 0.0085674 0.0393766
34 3 O -2.30986 8.37215 48.8528 -1.2 1 0.204753 0.0530295 0.00957346 0.012122 0.00414314 0.0100966 0.00625228 0.0231898 0.00607726 0.016955 0.00500464 0.0262519 0.00432816 0.0225907 0.00579435 0.0310461 0.00654615 0.0278818 0.00927753 0.0343778
35 1 Mg 0.154883 7.08234 46.8007 1.2 1 0.258212 0.0531677 0.0188889 0.0153979 0.00569205 0.0132383 0.00849932 0.0233869 0.00763136 0.0175329 0.0073404 0.0252043 0.00731508 0.0212776 0.00837252 0.0288988 0.00947001 0.0282503 0.0126187 0.0316335
36 3 O 0.325447 8.50934 48.3809 -1.2 1 0.215958 0.0535009 0.0111511 0.0136458 0.00398805 0.012002 0.00603912 0.0237157 0.0064173 0.0169613 0.00561335 0.0261115 0.00502962 0.0234123 0.00567562 0.0299133 0.00702873 0.0286054 0.0101147 0.0343077
37 1 Mg 1.09884 7.09018 54.6003 1.2 1 0.0682394 0.0301006 0.00511944 0.00572024 0.00169829 0.00618221 0.00234278 0.0222216 0.00243854 0.0104369 0.00320696 0.0270094 0.00324795 0.0202084 0.00380753 0.0325229 0.00348434 0.0254258 0.00685274 0.0442719
38 2 Si 1.29521 9.75615 56.5065 2.4 1 0.0330221 0.0196215 0.00639859 0.00677599 0.00109216 0.00635786 0.00224694 0.022707 0.00189005 0.00900492 0.00288058 0.0268029 0.00245118 0.0206397 0.00396348 0.0331802 0.00278609 0.0262893 0.00576877 0.0493159
39 3 O 1.16051 8.22499 56.522 -1.2 1 0.0320968 0.0195173 0.00648886 0.00644006 0.00092348 0.00629836 0.00189183 0.0223215 0.00279765 0.0086913 0.00228393 0.027548 0.00306965 0.0195228 0.00300947 0.0330822 0.00365048 0.0261951 0.00528081 0.0486497
40 3 O 1.28624 10.7248 52.7351 -1.2 1 0.111628 0.0380638 0.0025201 0.00801265 0.00231441 0.00924862 0.00299634 0.0232011 0.00340946 0.0120356 0.00388589 0.0270145 0.0043026 0.0214089 0.00465326 0.0326604 0.00413364 0.0275495 0.00736498 0.0417986
41 3 O -0.0329036 10.4853 55.8217 -1.2 1 0.0491599 0.0249281 0.00592875 0.00636383 0.00131701 0.00616665 0.00249813 0.0227001 0.00194932 0.00995236 0.00227552 0.0270162 0.00312377 0.0207334 0.00445421 0.0338403 0.00298367 0.0267695 0.00594905 0.0472956
42 3 O 2.46108 10.4658 55.721 -1.2 1 0.0463528 0.0250724 0.00680719 0.00624496 0.00109392 0.00623303 0.0020619 0.0224786 0.00200691 0.00969329 0.00240386 0.0272707 0.00280719 0.0204365 0.00408294 0.0340837 0.00273145 0.0271257 0.00551139 0.0472944
43 1 Mg -0.262694 9.34741 52.2523 1.2 1 0.114538 0.0408284 0.00292956 0.00805179 0.00275799 0.00771303 0.00271615 0.0231776 0.00335182 0.012089 0.00355242 0.0272255 0.00356884 0.0207718 0.00529021 0.0323252 0.00440225 0.0274438 0.00791085 0.0402243
44 1 Mg 1.87648 9.01537 49.4629 1.2 1 0.185249 0.0531554 0.00588375 0.0114675 0.00288638 0.0104388 0.00620205 0.0233133 0.00541496 0.0159667 0.00500509 0.0266775 0.00494018 0.0229359 0.00598397 0.0313154 0.00532881 0.0285795 0.00964617 0.0359047
45 2 Si 1.21415 11.3799 51.2378 2.4 1 0.147301 0.0468417 0.00181583 0.0103975 0.00266722 0.0106569 0.00389619 0.0239305 0.004188 0.0143378 0.00451016 0.0268177 0.00443939 0.0234135 0.00546957 0.0325988 0.004832 0.029356 0.00893033 0.039782
46 3 O 1.31634 12.9512 51.3023 -1.2 1 0.148279 0.0457269 0.00260906 0.010475 0.00252782 0.0114431 0.00366056 0.024015 0.0046682 0.0143567 0.00345795 0.028401 0.00430813 0.0243288 0.0046365 0.0335025 0.0051675 0.0296751 0.0078852 0.0403313
47 3 O 1.25625 10.4406 58.0182 -1.2 1 0.0180657 0.0126855 0.00466962 0.00650818 0.00114282 0.00651729 0.00142756 0.0231755 0.00173901 0.00876175 0.00196983 0.0277425 0.00253372 0.0201814 0.00277102 0.0338886 0.00232173 0.0268094 0.00363724 0.0501494
48 3 O -0.115718 10.7564 50.681 -1.2 1 0.156197 0.0468241 0.00337306 0.0109979 0.00332353 0.0103847 0.00412394 0.0237869 0.0043333 0.0140625 0.00374691 0.0271027 0.00426172 0.0226531 0.00607241 0.0319044 0.00467252 0.028638 0.00901129 0.0385533
49 1 Mg -3.26386 9.35564 52.3622 1.2 1 0.121127 0.03982 0.00176905 0.00785604 0.0022707 0.00919637 0.0035166 0.0227066 0.00374885 0.0122836 0.0038106 0.0270996 0.00332704 0.0209895 0.00418423 0.0321868 0.00448776 0.0268679 0.00782833 0.0391187
50 3 O 2.45216 10.7265 50.4558 -1.2 1 0.161858 0.0488918 0.00365632 0.0100822 0.00273929 0.0111809 0.0048628 0.0232827 0.00477638 0.0152018 0.00428866 0.0268176 0.00410505 0.0234675 0.00600539 0.0325955 0.00493716 0.0289949 0.00900308 0.0380626
51 1 Mg -1.7844 9.4837 55.1807 1.2 1 0.0549417 0.0278075 0.00596272 0.00617531 0.00150106 0.00636506 0.00246512 0.022683 0.00289846 0.00977536 0.00302991 0.0273442 0.00291598 0.0207348 0.00407669 0.0329747 0.00390448 0.0267032 0.00647492 0.0459252
52 2 Si -1.89387 7.33624 53.3833 2.4 1 0.0940004 0.0363961 0.0036357 0.00646944 0.00279587 0.00654645 0.00269984 0.022032 0.00364443 0.0114236 0.0030912 0.0265918 0.00260311 0.0202736 0.00348445 0.0316504 0.00463239 0.0253295 0.00716429 0.0426563
53 3 O -1.96715 5.80244 53.3366 -1.2 1 0.0950779 0.0345008 0.00290606 0.00548081 0.00205509 0.00655901 0.00225742 0.0214269 0.00325804 0.0104506 0.00268504 0.0263975 0.00262565 0.0193686 0.00354884 0.0314015 0.00366537 0.0250565 0.00706377 0.0420556
54 3 O -1.19417 8.46968 46.4488 -1.2 1 0.270268 0.0533527 0.021015 0.0173688 0.00568703 0.0145342 0.00873736 0.0243423 0.00808622 0.0176174 0.00772214 0.0256779 0.0065962 0.021113 0.00935541 0.0302309 0.010007 0.0299967 0.011949 0.0312802
55 3 O -3.15124 8.07887 54.0079 -1.2 1 0.0839949 0.0323455 0.00343345 0.00590594 0.00195199 0.00768985 0.00251471 0.0224315 0.0028944 0.0109208 0.00261524 0.0261885 0.00269461 0.0205181 0.00295455 0.0322889 0.00463964 0.0260619 0.00723133 0.0429935
56 3 O -0.586077 8.0039 53.9958 -1.2 1 0.0801586 0.0333317 0.00481731 0.00580976 0.00221899 0.00577379 0.00206689 0.022253 0.00273404 0.0107736 0.00277116 0.0269557 0.00232305 0.0200308 0.00400993 0.0322634 0.00387162 0.0262462 0.00680918 0.0431505
57 1 Mg -2.99977 16.4465 57.3524 1.2 1 0.0229152 0.0144652 0.00532376 0.00656459 0.00151432 0.00596869 0.00126575 0.0237111 0.00219445 0.00967027 0.00162202 0.0286307 0.00230782 0.0201818 0.0025436 0.0340182 0.00258932 0.0258775 0.00403332 0.0492875
58 1 Mg -1.6714 16.3544 49.8412 1.2 1 0.180761 0.0492082 0.00700426 0.0137326 0.0032866 0.0149745 0.00320014 0.0261926 0.00507417 0.0175679 0.00450232 0.0310965 0.00395677 0.0259954 0.00679132 0.0349789 0.00590262 0.0317299 0.00871658 0.040216
59 2 Si -1.18567 13.8526 47.9314 2.4 1 0.233902 0.0548509 0.0148862 0.0178934 0.00503848 0.0181454 0.00513779 0.0269004 0.00851439 0.0195641 0.0057688 0.0305109 0.00571464 0.0279157 0.00679114 0.0341471 0.0090949 0.0332416 0.0106524 0.0369561
60 3 O -1.09664 15.4205 47.9915 -1.2 1 0.228768 0.0536868 0.0142511 0.0179141 0.00503281 0.0188431 0.0045779 0.027276 0.00783222 0.0195169 0.00587362 0.0309275 0.00555988 0.0272744 0.00801058 0.0353306 0.00829174 0.034181 0.00976092 0.0382714
61 3 O -1.73493 12.7491 51.7772 -1.2 1 0.135499 0.0423764 0.00218143 0.0104999 0.00310225 0.00986896 0.00198662 0.024122 0.00379702 0.0138941 0.00329633 0.0285697 0.00410641 0.023388 0.00476511 0.0331134 0.00508959 0.0283842 0.00783781 0.0411152
62 3 O -2.36115 13.2717 48.8238 -1.2 1 0.202274 0.0533829 0.00931898 0.0145972 0.00459501 0.0142137 0.00474934 0.0261839 0.00638504 0.0188571 0.0049674 0.0301814 0.00446145 0.0262907 0.00593739 0.0340708 0.0074103 0.0322818 0.00920423 0.0368772
63 1 Mg -0.159928 11.7639 46.8533 1.2 1 0.258923 0.054346 0.0187916 0.0190828 0.00648388 0.0196571 0.00710475 0.0275606 0.00916667 0.0195827 0.00769641 0.0299898 0.00690348 0.02675 0.00800775 0.033021 0.010136 0.0334901 0.0126548 0.035208
64 3 O 0.2623 13.1866 48.413 -1.2 1 0.214267 0.0539892 0.0110801 0.0155964 0.00416054 0.0161137 0.00447797 0.0265519 0.00744985 0.0184453 0.0047457 0.0292119 0.00511954 0.0275293 0.0052024 0.0335236 0.00818681 0.0334718 0.00953631 0.0378037
65 1 Mg 1.19272 11.7139 54.5497 1.2 1 0.0724013 0.0313377 0.00472023 0.00670902 0.00187011 0.00683062 0.00253354 0.0228016 0.0026369 0.0111196 0.00224155 0.0274658 0.00387038 0.0218429 0.00365521 0.034018 0.00361604 0.0265431 0.00617888 0.0442787
66 2 Si 1.4724 14.4322 56.3269 2.4 1 0.0357491 0.0199894 0.0063563 0.00707332 0.00129559 0.00614902 0.00235128 0.0232008 0.00212543 0.0092877 0.00303991 0.027512 0.00267509 0.0210626 0.00449234 0.0339808 0.00300041 0.0264805 0.0051725 0.0496157
67 3 O 1.40372 12.9027 56.5218 -1.2 1 0.0317178 0.0189969 0.00651892 0.00664425 0.00118028 0.00599685 0.0022503 0.0223585 0.00303119 0.00904193 0.00183398 0.0278239 0.00298148 0.0201848 0.00337549 0.0340245 0.00288104 0.0265805 0.0050312 0.0489991
68 3 O 1.36565 15.4813 52.729 -1.2 1 0.11217 0.0386372 0.00130334 0.00900296 0.00206488 0.0105773 0.00324007 0.0245637 0.00309706 0.0134489 0.00350117 0.029127 0.00409027 0.0226711 0.0046594 0.0338676 0.00375714 0.0287718 0.00674285 0.0434745
69 3 O 0.247682 15.1104 55.6496 -1.2 1 0.0515914 0.0251861 0.00519237 0.00679085 0.000999737 0.00621058 0.00220752 0.0223922 0.0016782 0.0104574 0.00202749 0.0275817 0.00274535 0.0212253 0.00374744 0.0346586 0.00266045 0.0265786 0.00553902 0.0472854
70 3 O 2.76469 15.1575 55.6749 -1.2 1 0.0462654 0.0244028 0.00615771 0.00667648 0.00157094 0.00620523 0.00234845 0.0238206 0.00224341 0.00988565 0.00240813 0.0275988 0.0029371 0.0212693 0.00386007 0.0347227 0.00282417 0.0275461 0.00548909 0.0486284
71 1 Mg -0.206989 14.1049 52.2121 1.2 1 0.117196 0.0419403 0.0016312 0.00948858 0.00245979 0.00902047 0.00251224 0.0243137 0.00334237 0.0136422 0.00307805 0.0290365 0.003568 0.0232161 0.00485217 0.0338361 0.00379956 0.0288476 0.00731737 0.0414662
72 1 Mg 1.82591 13.8102 49.4556 1.2 1 0.186249 0.0544141 0.00598654 0.0128754 0.00307723 0.0137895 0.00482055 0.0252828 0.00556768 0.0177834 0.00491421 0.0293419 0.00477609 0.0263633 0.00608819 0.0347459 0.00644026 0.0323062 0.00941212 0.0376164
73 2 Si 1.29285 16.1518 51.2434 2.4 1 0.145813 0.0474652 0.00196784 0.0112491 0.00230261 0.0123359 0.00377963 0.0254062 0.00425877 0.0158971 0.00470499 0.0289539 0.00414592 0.0252629 0.00625653 0.0343167 0.00403476 0.0314182 0.00849231 0.0418888
74 3 O 1.39496 17.7199 51.3047 -1.2 1 0.146455 0.0455107 0.00245426 0.0107052 0.00161121 0.0125275 0.00293383 0.0251728 0.00435669 0.0156657 0.00268478 0.0297753 0.00411127 0.0249501 0.0039379 0.0349286 0.00622096 0.0306873 0.00728793 0.0427821
75 3 O 1.44495 15.1872 57.8672 -1.2 1 0.0180648 0.0119794 0.00449901 0.00668252 0.00108935 0.00628198 0.00178264 0.0234996 0.00193567 0.00891503 0.00217455 0.0279081 0.0021005 0.0203546 0.00253778 0.0341347 0.00231968 0.025957 0.00355497 0.0503227
76 3 O -0.0269106 15.5178 50.6688 -1.2 1 0.158066 0.0478063 0.00401878 0.0121994 0.00320907 0.012735 0.00388074 0.0254694 0.00431976 0.0158684 0.00319946 0.0292111 0.00408416 0.0257373 0.00577703 0.0339788 0.00412757 0.0310033 0.00831005 0.0409653
77 1 Mg -3.18391 14.1057 52.3125 1.2 1 0.12525 0.0421897 0.00143283 0.00944051 0.00190599 0.0106359 0.0028653 0.0244974 0.00379442 0.0143419 0.00287833 0.0289617 0.00361169 0.0235843 0.00394851 0.0333405 0.00454103 0.0289111 0.00703195 0.0414273
78 3 O 2.52432 15.503 50.4579 -1.2 1 0.161245 0.0499032 0.00426053 0.0113842 0.00248878 0.0132603 0.00412356 0.025453 0.00494301 0.017477 0.00347746 0.0294658 0.0039252 0.0264442 0.00562555 0.0342326 0.00501108 0.031123 0.00814672 0.0405113
79 1 Mg -1.49268 14.1879 55.1602 1.2 1 0.0545862 0.0279563 0.00567672 0.00729528 0.00149979 0.00591291 0.00234905 0.0236649 0.00266782 0.0107714 0.00304089 0.0282638 0.0026056 0.0216215 0.00414035 0.0343559 0.00367711 0.0272666 0.00616503 0.0471828
80 2 Si -1.78794 12.0675 53.2467 2.4 1 0.0984779 0.037376 0.00325403 0.00816808 0.00259484 0.00780538 0.00199374 0.0232041 0.00379013 0.0120989 0.00284494 0.0273051 0.00322089 0.0223598 0.00358257 0.0333185 0.00507017 0.0277796 0.00719764 0.0437391
81 3 O -1.73803 10.5135 53.2081 -1.2 1 0.098072 0.0359751 0.00355098 0.00733139 0.00256552 0.00760177 0.00177089 0.0222778 0.00328618 0.010864 0.00288404 0.0270725 0.00331665 0.0207686 0.00440858 0.0328276 0.00428484 0.0266671 0.00809903 0.0429147
82 3 O -1.21337 13.3381 46.4311 -1.2 1 0.269968 0.0539093 0.0209668 0.0207407 0.00713672 0.0204216 0.00708614 0.0297 0.00928844 0.0207289 0.00692482 0.0311229 0.00596135 0.0264953 0.00866045 0.0354947 0.0119638 0.0357148 0.012612 0.0352645
83 3 O -3.03595 12.7276 53.9278 -1.2 1 0.086699 0.0342957 0.0035746 0.00711291 0.00166585 0.00837075 0.00201709 0.0235698 0.00301662 0.0118072 0.00238197 0.0274141 0.0033842 0.0222129 0.0035747 0.0337488 0.00387795 0.0275609 0.00601141 0.0447072
84 3 O -0.460599 12.7882 54.0171 -1.2 1 0.0793628 0.0328872 0.00420366 0.00703346 0.00222327 0.00621861 0.00164176 0.0235259 0.00256314 0.011316 0.00215112 0.027151 0.00278456 0.022228 0.00399221 0.0341323 0.00326038 0.0278961 0.00682509 0.0443313
85 1 Mg -3.01458 21.3504 57.413 1.2 1 0.0236319 0.0136787 0.00482997 0.00604895 0.00184847 0.00605529 0.00144344 0.0238565 0.00192904 0.00954519 0.00185644 0.0291821 0.00227641 0.0207382 0.00231052 0.0342593 0.00285582 0.0256732 0.00469505 0.050271
86 1 Mg -1.5831 21.1217 49.8405 1.2 1 0.179786 0.0489498 0.00672726 0.0135905 0.00310936 0.0154285 0.00342714 0.0268398 0.00474489 0.0178029 0.00483342 0.0313744 0.00382028 0.0262274 0.00704778 0.0356271 0.00548669 0.0320706 0.0086298 0.0405023
87 2 Si -1.09384 18.6291 47.9287 2.4 1 0.230298 0.0548921 0.0139903 0.0182189 0.00394327 0.0201861 0.00400889 0.0284747 0.0077592 0.0202765 0.00533734 0.0322964 0.00580765 0.0287352 0.00654011 0.0359896 0.0091811 0.0345045 0.00980522 0.04014
88 3 O -1.02071 20.1985 47.9911 -1.2 1 0.229655 0.0537486 0.0136885 0.0183819 0.00412929 0.0205452 0.00434234 0.0284555 0.00736471 0.0202447 0.00571553 0.0319808 0.00570694 0.0280311 0.00771969 0.0362869 0.00832413 0.0346525 0.00961589 0.0400675
89 3 O -1.65002 17.5002 51.771 -1.2 1 0.135445 0.0424385 0.00176253 0.0109504 0.00269883 0.0115202 0.00182751 0.025138 0.00321944 0.0149411 0.00284036 0.0295917 0.00403255 0.0241194 0.00454664 0.0344338 0.00515431 0.0293659 0.00728645 0.0426101
90 3 O -2.26174 18.0434 48.8281 -1.2 1 0.202105 0.0541526 0.00893305 0.015344 0.00351725 0.0167676 0.00352203 0.0279963 0.0061111 0.0196919 0.00409233 0.0315786 0.0040778 0.0274652 0.00635413 0.0358363 0.00720879 0.0340957 0.00861671 0.0398281
91 1 Mg -0.0440435 16.5651 46.8269 1.2 1 0.257309 0.0560362 0.018358 0.0207355 0.00566815 0.0239664 0.00534348 0.031263 0.00950109 0.0218587 0.00620598 0.0335959 0.00719322 0.029033 0.00877261 0.0358143 0.00952965 0.0370895 0.0112353 0.0391141
92 3 O 0.37001 17.9877 48.3925 -1.2 1 0.212194 0.0543991 0.0104169 0.0164241 0.00337211 0.01791 0.00340967 0.0281555 0.00651477 0.0197865 0.0037369 0.0313077 0.00469256 0.0287862 0.00585709 0.0352639 0.00745282 0.0353999 0.00919377 0.0403143
93 1 Mg 1.30236 16.6718 54.638 1.2 1 0.070388 0.0304935 0.00418173 0.00718602 0.0015732 0.00716507 0.00256943 0.0236945 0.00272878 0.0116999 0.00220906 0.0285933 0.00362086 0.022345 0.00336548 0.0349171 0.00332757 0.0269768 0.00570218 0.0460374
94 2 Si 1.40801 19.2279 56.4949 2.4 1 0.0326639 0.0183941 0.00541338 0.00707458 0.00138357 0.00570906 0.00177413 0.0237479 0.00211671 0.00943776 0.00318432 0.027833 0.00243886 0.0213758 0.0039351 0.0347399 0.00328449 0.0256956 0.00544304 0.0507375
95 3 O 1.33676 17.637 56.5425 -1.2 1 0.0303648 0.0180406 0.00586726 0.00691429 0.00139135 0.00580439 0.00193883 0.0237516 0.00296493 0.00905876 0.00193439 0.0281902 0.00251131 0.0204693 0.00299035 0.0345736 0.00340398 0.0262255 0.00478501 0.0496281
96 3 O 1.45147 20.239 52.7294 -1.2 1 0.112098 0.038516 0.000711493 0.00866801 0.00157767 0.0110679 0.00365145 0.0248646 0.00276999 0.0134642 0.00321275 0.0297499 0.0043512 0.0230909 0.00460714 0.0344471 0.00405741 0.0290156 0.00683793 0.0441117
97 3 O 0.145939 19.8634 55.722 -1.2 1 0.0503423 0.0245278 0.00445575 0.00654239 0.00126717 0.00645909 0.0021588 0.0235044 0.00162041 0.0102453 0.00230533 0.0281151 0.00252571 0.0214641 0.00321452 0.0353881 0.00310228 0.0268724 0.00560314 0.0481575
98 3 O 2.66664 19.8784 55.8007 -1.2 1 0.043308 0.0227085 0.00609945 0.00653732 0.00148584 0.00607718 0.00238885 0.023984 0.00188739 0.00993164 0.00207399 0.02783 0.00265315 0.0212009 0.0036193 0.0352108 0.00270274 0.0271165 0.0059669 0.0493187
99 1 Mg -0.126194 18.8651 52.2079 1.2 1 0.116267 0.0419244 0.00144051 0.0096471 0.00205874 0.00977822 0.00228363 0.0251671 0.00288702 0.0144685 0.00284327 0.0298705 0.00356984 0.0237143 0.00415196 0.0347419 0.00406816 0.0296597 0.00683042 0.0427983
100 1 Mg 1.92402 18.5815 49.4545 1.2 1 0.183873 0.0546277 0.00513075 0.0132121 0.00158327 0.0150584 0.00429411 0.0270392 0.00492241 0.0191958 0.00378973 0.0310453 0.00462915 0.027657 0.00573358 0.0361272 0.00605871 0.0340135 0.00895181 0.040599
101 2 Si 1.38106 20.9117 51.2443 2.4 1 0.146494 0.0472341 0.00165623 0.0110564 0.0020718 0.0127801 0.00368158 0.0258987 0.00402625 0.0161444 0.00469361 0.0292523 0.00412078 0.0254993 0.00581103 0.0350096 0.00383926 0.0315457 0.00831397 0.0428772
102 3 O 1.48527 22.4795 51.3054 -1.2 1 0.14394 0.0442773 0.00246405 0.0100423 0.00195785 0.0125125 0.00320721 0.0249052 0.00387583 0.0150375 0.00318599 0.0303491 0.00387621 0.0247054 0.00476196 0.0351136 0.00503944 0.0303031 0.00754647 0.0426171
103 3 O 1.34431 19.9509 57.9069 -1.2 1 0.0183862 0.0113948 0.00392665 0.00645483 0.00125201 0.00635172 0.00143098 0.0238862 0.00164483 0.00889194 0.00253554 0.0287236 0.00213078 0.0205295 0.0028943 0.0343434 0.0023246 0.0255588 0.00399639 0.0508057
104 3 O 0.0615419 20.2804 50.6669 -1.2 1 0.155987 0.0472397 0.00332342 0.01201 0.00319533 0.0135775 0.00384358 0.0262069 0.00396671 0.0165019 0.00314341 0.0298186 0.00427399 0.0263219 0.00542163 0.034741 0.00406615 0.0316973 0.00783152 0.0423397
105 1 Mg -3.09665 18.8643 52.3122 1.2 1 0.122872 0.0413609 0.000925462 0.00926323 0.00133755 0.0113358 0.00278427 0.0249386 0.00272949 0.0148275 0.00263616 0.0296688 0.00348531 0.0240416 0.004042 0.0345655 0.00408953 0.029344 0.00685128 0.0425143
106 3 O 2.61548 20.2646 50.4626 -1.2 1 0.160491 0.0495393 0.00363075 0.0112605 0.00170258 0.0138871 0.00375165 0.0261454 0.00408853 0.01762 0.00345948 0.0299515 0.0037919 0.0263835 0.00557463 0.0352113 0.00476864 0.0316081 0.00781999 0.0416477
107 1 Mg -1.5502 18.9693 55.0096 1.2 1 0.0574382 0.0279369 0.005222 0.00711264 0.00192797 0.00663082 0.0019711 0.0240771 0.0024588 0.0112044 0.00281909 0.0281991 0.00232961 0.0219566 0.00375412 0.034672 0.00423145 0.0272653 0.00599354 0.0471099
108 2 Si -1.73708 16.7928 53.2317 2.4 1 0.0978632 0.0374912 0.00244243 0.00870193 0.00214798 0.00809656 0.00152779 0.0238622 0.00332361 0.0128653 0.00256352 0.0282278 0.00301297 0.023085 0.00349856 0.0345803 0.00455971 0.028239 0.00647036 0.0448306
109 3 O -1.6544 15.255 53.1442 -1.2 1 0.0992784 0.0370143 0.00287925 0.00854731 0.00194133 0.00835351 0.0017428 0.0236227 0.0031735 0.0120873 0.00269695 0.028404 0.003135 0.0222028 0.00479819 0.0341882 0.0032438 0.0280527 0.00743992 0.0447406
110 3 O -1.12868 18.1227 46.4249 -1.2 1 0.266737 0.0558187 0.020116 0.0218313 0.00581135 0.0238013 0.00558429 0.0319577 0.00810949 0.021782 0.00566365 0.0339251 0.00654909 0.0272379 0.00889392 0.0376151 0.0112964 0.0378807 0.0115155 0.0388962
111 3 O -2.99573 17.5241 53.8382 -1.2 1 0.0861637 0.034116 0.00282048 0.0073899 0.00145411 0.00874197 0.00183589 0.0245612 0.00231078 0.0123765 0.00204829 0.0282177 0.00315406 0.0230044 0.00273953 0.0345074 0.0038221 0.0280235 0.00576313 0.0454867
112 3 O -0.494345 17.4774 53.9711 -1.2 1 0.0790451 0.0333178 0.00371379 0.00763389 0.00230223 0.00665177 0.00112433 0.0241903 0.00268742 0.0118567 0.00263337 0.0280847 0.00249798 0.0229421 0.0037424 0.0351135 0.00342255 0.0281949 0.00626441 0.0449595
113 1 Mg -2.99933 25.9616 57.4983 1.2 1 0.0228624 0.0133207 0.0047463 0.00593318 0.0018242 0.00638719 0.00141408 0.023579 0.00197282 0.00944046 0.00194528 0.0295606 0.00212866 0.0206883 0.00245822 0.0339892 0.00312116 0.0260509 0.00484222 0.0509125
114 1 Mg -1.48778 25.88 49.8402 1.2 1 0.180297 0.0483908 0.00665997 0.0133783 0.00326542 0.0157443 0.00300302 0.0266657 0.00449574 0.0177012 0.00479177 0.0316178 0.00399633 0.0262928 0.0067047 0.0355431 0.00599284 0.0319258 0.0092176 0.0406586
115 2 Si -1.00491 23.3922 47.9274 2.4 1 0.230167 0.0542298 0.0140845 0.0182515 0.00417034 0.0209867 0.00436192 0.0285182 0.00743175 0.0203099 0.00539018 0.0324184 0.00557994 0.028518 0.00607577 0.0361668 0.00898299 0.0346934 0.0101643 0.0399039
116 3 O -0.927602 24.9615 47.9909 -1.2 1 0.230289 0.0534107 0.0137931 0.0181226 0.00438983 0.0209628 0.00398819 0.028353 0.00736918 0.0202229 0.00578111 0.0322588 0.00576644 0.027754 0.00768036 0.0366186 0.00865743 0.0348103 0.0101027 0.0399616
117 3 O -1.55795 22.2588 51.7696 -1.2 1 0.135547 0.04181 0.00187395 0.010359 0.00297729 0.0118309 0.00210802 0.0255186 0.00275719 0.0148892 0.00290758 0.03012 0.00419183 0.0243312 0.00414883 0.0347011 0.00496624 0.029359 0.00726933 0.0432799
118 3 O -2.17411 22.8111 48.8277 -1.2 1 0.203282 0.0534506 0.00903459 0.0151409 0.0032941 0.0174674 0.00376244 0.0279515 0.00543475 0.0198457 0.00448808 0.0316948 0.00430322 0.0276227 0.00637707 0.0361569 0.00692254 0.0340389 0.00895136 0.0397069
119 1 Mg 0.0423997 21.3296 46.8225 1.2 1 0.257138 0.0554964 0.0180851 0.0211394 0.00526078 0.0251504 0.00588517 0.0319517 0.00883065 0.0223211 0.00636628 0.0340275 0.00709272 0.0291099 0.00908014 0.0365353 0.00957819 0.0370972 0.0118722 0.0396239
120 3 O 0.458537 22.7495 48.3911 -1.2 1 0.212541 0.0539973 0.0102906 0.0163364 0.00339064 0.0185115 0.00306012 0.028324 0.00639844 0.0201073 0.00393053 0.0315002 0.00503578 0.0289203 0.00580004 0.0355857 0.00803601 0.0352307 0.00929042 0.0408816