ITEM: TIMESTEP
14800
ITEM: NUMBER OF ATOMS
10500
ITEM: BOX BOUNDS xy xz yz pp pp pp
0	8.9688	2.9896
0	118.725	0
0	252.977	0
ITEM: ATOMS id type element xu yu zu q Q_1 Q_2 Q_3 Q_4 Q_5 Q_6 Q_7 Q_8 Q_9 Q_10 Q_11 Q_12 Q_13 Q_14 Q_15 Q_16 Q_17 Q_18 Q_19 Q_20 Q_21
1 1 Mg -3.4019 7.03034 57.3104 1.2 1 0.023914 0.0148855 0.00544685 0.00526198 0.00161098 0.00710776 0.00100583 0.0219546 0.00148079 0.00917547 0.0015548 0.0293163 0.00243483 0.0198649 0.00260865 0.0333912 0.00306543 0.025586 0.00504332 0.0500352
2 1 Mg -1.82655 6.90154 50.0912 1.2 1 0.178473 0.0480559 0.00679031 0.010289 0.00340303 0.00917157 0.00420259 0.0224028 0.00417656 0.014754 0.00489235 0.0256969 0.00443825 0.0209307 0.00659631 0.0296424 0.00572422 0.0264264 0.00979987 0.035172
3 2 Si -0.257935 3.96038 48.0876 2.4 1 0.226779 0.0530352 0.0122046 0.0124874 0.00276816 0.0099981 0.00356422 0.0200463 0.00543847 0.0166595 0.00466893 0.0243858 0.00546451 0.0202675 0.00610448 0.0269254 0.00707118 0.0250843 0.0093946 0.0326708
4 3 O -0.335812 5.46814 47.6264 -1.2 1 0.234055 0.0525704 0.0138783 0.0136599 0.00323661 0.0110369 0.00459357 0.0208507 0.00610672 0.0173426 0.0050076 0.0248587 0.00508696 0.020812 0.00575291 0.0271464 0.00756533 0.0260198 0.0101436 0.0313503
5 3 O -2.03793 3.43377 51.8941 -1.2 1 0.129837 0.0405657 0.00286263 0.00679308 0.00240103 0.0073909 0.00253496 0.0204317 0.00221187 0.011571 0.00340003 0.0255472 0.00390508 0.0179169 0.00440373 0.0293388 0.00501563 0.0241498 0.00840405 0.0389966
6 3 O -1.54015 3.53929 48.9521 -1.2 1 0.20417 0.0512953 0.00948987 0.0108802 0.00283936 0.0086873 0.0035296 0.0196859 0.00475274 0.0151155 0.00480802 0.0238463 0.00406483 0.0195054 0.00596133 0.0278467 0.0057216 0.0245272 0.00930116 0.0326365
7 1 Mg 1.82954 2.54582 47.1376 1.2 1 0.246902 0.0524104 0.0162803 0.0154219 0.00336192 0.0111841 0.00323637 0.0199979 0.0054828 0.0157452 0.00459601 0.0238649 0.00616107 0.019248 0.00751603 0.0254212 0.00661866 0.0236526 0.00883375 0.0308187
8 3 O 1.22989 3.66364 48.7877 -1.2 1 0.207405 0.0504632 0.0101345 0.0119268 0.00262259 0.00983116 0.00397674 0.0200854 0.00371514 0.0150763 0.00423005 0.0237032 0.00505465 0.0195748 0.00652853 0.0272614 0.0047068 0.0244153 0.00943542 0.0337013
9 1 Mg 1.05283 2.31225 54.4993 1.2 1 0.0709909 0.029805 0.00492356 0.00469689 0.00208061 0.00584037 0.00246788 0.0208567 0.00240243 0.00983659 0.00299158 0.0272683 0.00408768 0.0197126 0.00459029 0.0322208 0.00328121 0.0242001 0.00682544 0.045056
10 2 Si 1.07738 4.99666 56.4745 2.4 1 0.0329782 0.0190275 0.00592163 0.00564375 0.00169443 0.00720344 0.00225375 0.0217975 0.00188344 0.00898361 0.00312094 0.0278098 0.00262419 0.0198893 0.00392798 0.033165 0.00320848 0.025448 0.00652933 0.0502946
11 3 O 0.973511 3.39685 56.5763 -1.2 1 0.0334623 0.018747 0.00581589 0.00508943 0.00153062 0.00643024 0.0020445 0.0218891 0.0023712 0.00874489 0.00207556 0.0284744 0.00267585 0.0191936 0.00336763 0.0331914 0.00343768 0.0256826 0.00535057 0.0494328
12 3 O 1.10813 6.07342 52.8172 -1.2 1 0.107184 0.0359893 0.002746 0.00641868 0.00272971 0.00767202 0.00309232 0.021887 0.00262868 0.0114967 0.00337881 0.0265528 0.00422308 0.0189918 0.00470479 0.031017 0.00419796 0.0257988 0.00771435 0.0413136
13 3 O -0.244685 5.64818 55.8124 -1.2 1 0.0469565 0.0237071 0.0058426 0.00518131 0.00178129 0.00626021 0.00242317 0.0217384 0.00190714 0.00983397 0.00261968 0.0279057 0.00293364 0.0193412 0.00406588 0.033278 0.00299922 0.0258478 0.00673884 0.0481243
14 3 O 2.24912 5.74521 55.7373 -1.2 1 0.0433848 0.0230743 0.0063863 0.00487138 0.00152925 0.00651641 0.002541 0.0220521 0.001587 0.00933237 0.00283892 0.0278606 0.00284393 0.0198819 0.00459004 0.034034 0.00306084 0.0264304 0.00651646 0.0481844
15 1 Mg -0.459401 4.67631 52.2426 1.2 1 0.125375 0.0406222 0.00280336 0.00649853 0.00288636 0.00712626 0.00224148 0.0212037 0.00246776 0.0121997 0.00316796 0.0264366 0.00425509 0.0190935 0.00472298 0.029884 0.00420036 0.0243649 0.00775859 0.0384407
16 1 Mg 2.79456 3.9971 49.9987 1.2 1 0.176821 0.0493199 0.00632911 0.00986786 0.00291917 0.00820312 0.00431954 0.0206454 0.00281615 0.0146931 0.00321783 0.0243386 0.00458808 0.0200764 0.00656231 0.0284422 0.00435516 0.0249598 0.00985478 0.0344944
17 2 Si 1.16169 6.59457 51.2556 2.4 1 0.148595 0.0454661 0.00331977 0.00869082 0.00300529 0.0086458 0.00379599 0.0216541 0.0037693 0.0136481 0.00451481 0.0253416 0.00424778 0.0208243 0.00617665 0.0308043 0.00441118 0.0262579 0.00961861 0.0380037
18 3 O 1.28989 8.18905 51.2909 -1.2 1 0.145884 0.0438563 0.0030841 0.00917887 0.00282412 0.00936822 0.00387741 0.0223936 0.00363082 0.0133258 0.00398589 0.0273654 0.00391835 0.0210902 0.00522376 0.0311729 0.00515026 0.0272222 0.00901758 0.0395043
19 3 O 1.15033 5.68746 57.9339 -1.2 1 0.0172662 0.0115421 0.00400066 0.00569942 0.00146801 0.00752699 0.00109247 0.0222685 0.00125058 0.00851186 0.00237179 0.0286432 0.00235502 0.0201109 0.00273303 0.0340995 0.00228099 0.0261268 0.00415071 0.0519896
20 3 O -0.184847 6.06029 50.6845 -1.2 1 0.161658 0.0448596 0.00555731 0.0089984 0.00362222 0.00836161 0.00384608 0.0215276 0.00371578 0.0137195 0.00347594 0.0253117 0.00424017 0.0199786 0.00606923 0.0290137 0.00473971 0.0254721 0.00939289 0.0370992
21 1 Mg -3.49704 4.67769 52.6661 1.2 1 0.114714 0.0378017 0.00222564 0.00598803 0.00266404 0.0073811 0.00262034 0.0203766 0.00291307 0.0112345 0.00370915 0.0260684 0.00382832 0.0187893 0.00459465 0.0296926 0.00413363 0.0241464 0.00798601 0.0400078
22 3 O 2.48581 5.93312 50.6539 -1.2 1 0.158987 0.0470059 0.00442668 0.00839734 0.0020628 0.00905256 0.00382744 0.0216842 0.00337291 0.0140721 0.0043254 0.0250033 0.00439775 0.0207268 0.0062686 0.0298086 0.0042251 0.0259261 0.0095422 0.0365635
23 1 Mg -1.93002 4.7571 55.2198 1.2 1 0.0516616 0.0255979 0.00628723 0.00499804 0.00205663 0.0063332 0.00172817 0.0217934 0.00282944 0.00954161 0.00314833 0.0283895 0.00264568 0.0195729 0.00402936 0.0332761 0.00397239 0.0255054 0.00684626 0.0464467
24 2 Si -1.92595 2.66622 53.3061 2.4 1 0.102698 0.0358445 0.00308434 0.00551716 0.00295229 0.0064719 0.00214632 0.0208482 0.00252422 0.011064 0.00303574 0.0257994 0.00358182 0.0191466 0.0035855 0.0308473 0.0043051 0.0241307 0.00710435 0.0417387
25 3 O -1.99665 1.11721 53.1507 -1.2 1 0.098981 0.0344263 0.00315129 0.00558713 0.00327869 0.00614287 0.00192606 0.0205243 0.00226296 0.0103605 0.00263317 0.02643 0.00373157 0.018616 0.00477078 0.0309551 0.00359779 0.0238692 0.00740515 0.042178
26 3 O -0.0467762 2.97103 46.8385 -1.2 1 0.253563 0.0532767 0.0170473 0.0148944 0.00346892 0.0102871 0.00371809 0.0196488 0.00628442 0.0168477 0.00605255 0.0237999 0.00695865 0.0188823 0.00850025 0.025403 0.00697996 0.024076 0.010092 0.0318592
27 3 O -3.19494 3.29729 54.0795 -1.2 1 0.0810431 0.0311869 0.00372943 0.0044118 0.0022177 0.00609715 0.00180846 0.0208502 0.00252086 0.0105323 0.00252357 0.0260353 0.00293824 0.0191509 0.0038011 0.0314958 0.00380096 0.0241446 0.00651115 0.0433478
28 3 O -0.666358 3.29932 53.9504 -1.2 1 0.0828201 0.0321287 0.00417429 0.00477648 0.00265129 0.0064449 0.00162372 0.0211444 0.00193385 0.0104735 0.00240686 0.0265365 0.00357515 0.0193586 0.00358224 0.0317586 0.00361304 0.0246985 0.00701343 0.0434743
29 1 Mg -3.46329 11.7784 57.4447 1.2 1 0.0237115 0.0141845 0.00500673 0.00584932 0.0014247 0.00706616 0.00157206 0.0224874 0.00197084 0.00924932 0.00203565 0.0298058 0.00222965 0.0202063 0.00254493 0.0335935 0.00323869 0.0263221 0.00476494 0.0513266
30 1 Mg -1.75014 11.5838 49.8362 1.2 1 0.184877 0.0483089 0.0077013 0.0124219 0.0043806 0.0128609 0.00485472 0.0239822 0.00533467 0.0160484 0.00549035 0.0286987 0.00422976 0.0240619 0.00722519 0.0329063 0.0071734 0.0296327 0.0105185 0.0385882
31 2 Si -1.18003 9.02138 47.9309 2.4 1 0.239405 0.0518682 0.0152818 0.0154935 0.00518177 0.0131404 0.00766966 0.0227773 0.00785081 0.0172252 0.00748327 0.0263566 0.00495558 0.0226764 0.00720476 0.0302142 0.00932191 0.0287712 0.0125043 0.0342552
32 3 O -1.23224 10.5991 47.9811 -1.2 1 0.230925 0.053171 0.0134982 0.0160301 0.00542525 0.0144536 0.00642347 0.0241685 0.00792642 0.0175605 0.00750959 0.0277389 0.00536138 0.0239056 0.00859269 0.0323969 0.00964566 0.0310496 0.0114609 0.0350878
33 3 O -1.79016 8.01447 51.8693 -1.2 1 0.133877 0.0409269 0.0028524 0.00852051 0.0037337 0.00823373 0.00284156 0.0219581 0.00295545 0.0125509 0.0037916 0.0273271 0.00407724 0.0203275 0.00488693 0.0313398 0.00551899 0.0261777 0.00932075 0.0403678
34 3 O -2.30986 8.37215 48.8528 -1.2 1 0.206866 0.0524986 0.00979436 0.0124271 0.00421099 0.0107987 0.00622303 0.0229766 0.00572846 0.0171231 0.0055127 0.0261937 0.00431402 0.0228842 0.00655392 0.0312668 0.0071223 0.0282524 0.0104227 0.0344906
35 1 Mg 0.154883 7.08234 46.8007 1.2 1 0.258686 0.0526916 0.018251 0.0160934 0.00568253 0.0135793 0.00831449 0.0233498 0.00757428 0.0175038 0.00755495 0.0249469 0.00671711 0.0213858 0.00845391 0.0288631 0.0100766 0.0285082 0.0132352 0.0316926
36 3 O 0.325447 8.50934 48.3809 -1.2 1 0.217075 0.0528835 0.0111871 0.0139236 0.00440521 0.0122346 0.00607325 0.0236794 0.00623388 0.0170478 0.00622528 0.0260688 0.00467662 0.023657 0.00615773 0.0300987 0.00750729 0.0288664 0.0110356 0.0344394
37 1 Mg 1.21308 7.18253 54.553 1.2 1 0.0698911 0.0297987 0.00483491 0.0053228 0.00217337 0.00654706 0.00217608 0.0215852 0.00227159 0.0102982 0.00300111 0.0276036 0.00383027 0.0201139 0.00348427 0.0328347 0.00396631 0.025536 0.00719202 0.0453025
38 2 Si 1.0595 9.68921 56.4609 2.4 1 0.0341511 0.0193098 0.00589894 0.0061451 0.00158739 0.00699989 0.00233128 0.0220392 0.00157833 0.00880752 0.00327816 0.0284102 0.00273224 0.0208167 0.00402576 0.033159 0.00357672 0.0261192 0.00682522 0.051052
39 3 O 1.07712 8.1558 56.5922 -1.2 1 0.0308143 0.0176735 0.00603535 0.00573805 0.00122174 0.00708637 0.0016267 0.0220899 0.00249074 0.0082439 0.0020775 0.0288373 0.00307383 0.019336 0.00312245 0.0333443 0.00397993 0.0260637 0.00602994 0.0503837
40 3 O 1.28624 10.7248 52.7351 -1.2 1 0.112342 0.0373582 0.00209137 0.00770205 0.00259197 0.0100359 0.00307109 0.0231019 0.00272505 0.0122717 0.00394567 0.0280997 0.00438229 0.0217145 0.00459123 0.0326024 0.00405208 0.0281021 0.00785611 0.043224
41 3 O -0.215343 10.3848 55.8538 -1.2 1 0.0484339 0.0237675 0.00535249 0.0060657 0.00143486 0.0068927 0.00226229 0.0227556 0.00150098 0.00976576 0.00270151 0.0283324 0.00269421 0.0207351 0.00436384 0.0337418 0.00333772 0.0271209 0.00665826 0.0495466
42 3 O 2.31632 10.4247 55.758 -1.2 1 0.0447211 0.0231754 0.00621592 0.00588999 0.0013133 0.00683453 0.00203695 0.0222976 0.0017483 0.00950038 0.00238901 0.0286614 0.00313062 0.0208579 0.00326891 0.0339471 0.00296618 0.026623 0.00611628 0.0494321
43 1 Mg -0.262694 9.34741 52.2523 1.2 1 0.115668 0.0402492 0.00278481 0.00799711 0.00330824 0.00829529 0.00269239 0.0229755 0.0026012 0.0123716 0.00358065 0.0281543 0.00394204 0.0211193 0.00512192 0.0322834 0.00441692 0.0276005 0.00862009 0.0414193
44 1 Mg 1.87648 9.01537 49.4629 1.2 1 0.186522 0.0523499 0.00603394 0.0115676 0.00332815 0.0109756 0.00608238 0.0230922 0.00506391 0.0163556 0.00554063 0.0269583 0.00460044 0.0232786 0.00659938 0.0317542 0.00576823 0.0288863 0.0106502 0.0362403
45 2 Si 1.21415 11.3799 51.2378 2.4 1 0.150089 0.0465511 0.00255375 0.0105086 0.00335769 0.0113377 0.00373446 0.0236556 0.00413631 0.0146784 0.00503799 0.0273797 0.00436129 0.0240912 0.00599239 0.0331472 0.00482711 0.0295573 0.00988233 0.0414674
46 3 O 1.31634 12.9512 51.3023 -1.2 1 0.147498 0.0441276 0.00312704 0.00993459 0.00276198 0.0119516 0.00335762 0.0240958 0.00419691 0.0147154 0.00394036 0.0288448 0.00424409 0.0246459 0.00457136 0.0336097 0.00513486 0.0295516 0.00854585 0.0422884
47 3 O 1.12949 10.3762 57.9321 -1.2 1 0.0177677 0.0110454 0.00374884 0.00589464 0.0015632 0.00730723 0.00144614 0.0228178 0.00146937 0.00839091 0.00258311 0.0291965 0.00228298 0.0202382 0.00292491 0.0337431 0.00266317 0.0265193 0.00436159 0.0524225
48 3 O -0.115718 10.7564 50.681 -1.2 1 0.156193 0.0458987 0.00398057 0.0107692 0.00384416 0.0107118 0.00393538 0.0236359 0.00378797 0.0142003 0.00404329 0.0277341 0.00454103 0.023244 0.0067848 0.0323602 0.00542858 0.0287762 0.0104745 0.0402806
49 1 Mg -3.26386 9.35564 52.3622 1.2 1 0.124376 0.0396323 0.00204876 0.00772544 0.00246518 0.00980296 0.00350599 0.0223457 0.00309438 0.0125922 0.00433379 0.0275738 0.00367133 0.0211074 0.00494824 0.0324706 0.00426721 0.0273002 0.00842604 0.0402539
50 3 O 2.45216 10.7265 50.4558 -1.2 1 0.163585 0.0481377 0.00413489 0.0100394 0.00274358 0.0116376 0.0044699 0.0232705 0.00435314 0.0157218 0.00457088 0.0275165 0.0040326 0.0239812 0.00630108 0.0326981 0.00550484 0.029245 0.00963978 0.0393436
51 1 Mg -1.8935 9.47376 55.2138 1.2 1 0.0541069 0.0264796 0.00588986 0.00593832 0.00222723 0.00692931 0.00247659 0.0224405 0.00245289 0.00961221 0.0033022 0.028289 0.00300369 0.0206798 0.00362039 0.0332804 0.00431195 0.0266231 0.00691696 0.0478392
52 2 Si -1.7708 7.33863 53.3785 2.4 1 0.0950967 0.0358453 0.00356928 0.00651762 0.00336548 0.00735608 0.00209001 0.0216321 0.00296819 0.0114031 0.00309095 0.0272298 0.00345605 0.0205064 0.0032008 0.0317143 0.00487108 0.0255413 0.00737145 0.0431958
53 3 O -1.94849 5.82423 53.2932 -1.2 1 0.0981363 0.0341067 0.00302057 0.00579708 0.00275071 0.007265 0.00178081 0.0208084 0.00295607 0.0105076 0.00323829 0.0266004 0.0031231 0.0189603 0.00426454 0.0318331 0.00380612 0.0249408 0.00800575 0.0422947
54 3 O -1.19417 8.46968 46.4488 -1.2 1 0.27068 0.0528177 0.020487 0.0180262 0.00583928 0.0147348 0.00860748 0.024357 0.00791988 0.0176149 0.00790885 0.0255721 0.0063589 0.021318 0.00915339 0.0301218 0.0107731 0.0301072 0.0127619 0.0316857
55 3 O -3.07246 8.05592 53.9852 -1.2 1 0.0840888 0.0312659 0.00356953 0.00557153 0.00244154 0.0077536 0.0021572 0.021695 0.00237405 0.0109752 0.00267302 0.0269604 0.00296277 0.0202546 0.00327921 0.0326395 0.00462142 0.0259468 0.00754433 0.0439628
56 3 O -0.497333 8.16419 54.0092 -1.2 1 0.0765292 0.0308879 0.00476718 0.00556405 0.00281283 0.00644823 0.00156114 0.0222211 0.00190448 0.0104849 0.00260332 0.0270692 0.00321338 0.0203799 0.00347552 0.0326224 0.00421447 0.0267914 0.00737186 0.0451907
57 1 Mg -3.18084 16.5137 57.5052 1.2 1 0.0221652 0.0140484 0.00484286 0.00589707 0.00145214 0.00674857 0.00129309 0.0232639 0.00196685 0.00942291 0.00175198 0.0298621 0.00222762 0.0207343 0.00215338 0.0329353 0.00312719 0.0260168 0.00424751 0.0521669
58 1 Mg -1.6714 16.3544 49.8412 1.2 1 0.18159 0.0491042 0.00708003 0.0128707 0.00343309 0.0151472 0.00344245 0.0262765 0.00466091 0.0178249 0.00482948 0.0310747 0.00396002 0.0268114 0.00651516 0.0349543 0.00633179 0.0316777 0.00992869 0.0415919
59 2 Si -1.18567 13.8526 47.9314 2.4 1 0.234674 0.054467 0.0152749 0.0171287 0.00488745 0.0183387 0.00508539 0.0269511 0.00887388 0.0199714 0.00639815 0.0308558 0.00608215 0.0286266 0.00722574 0.0347569 0.0103276 0.0332806 0.0120289 0.0384747
60 3 O -1.09664 15.4205 47.9915 -1.2 1 0.231595 0.0534359 0.0148529 0.0172185 0.00513837 0.0194931 0.00453997 0.0274543 0.00799464 0.02005 0.00640638 0.0309859 0.00571178 0.0281763 0.00828017 0.0356763 0.0093463 0.0340439 0.0112241 0.0392727
61 3 O -1.73493 12.7491 51.7772 -1.2 1 0.135926 0.0416511 0.00257094 0.00996789 0.00351512 0.0104527 0.00185841 0.0239636 0.00337525 0.0138624 0.00319189 0.0291433 0.00443878 0.0234862 0.00495606 0.0333507 0.0055247 0.0288225 0.008692 0.0433858
62 3 O -2.36115 13.2717 48.8238 -1.2 1 0.207617 0.0536483 0.010047 0.0144546 0.00488415 0.014668 0.0048996 0.0263492 0.00646167 0.0193953 0.00536965 0.0301109 0.00475214 0.0271702 0.00630261 0.0348031 0.00818102 0.0322782 0.0108045 0.0385004
63 1 Mg -0.159928 11.7639 46.8533 1.2 1 0.259582 0.053743 0.0188586 0.0188399 0.00632751 0.0198847 0.00730689 0.0276603 0.00926659 0.0196837 0.00817816 0.0301489 0.0066873 0.0271336 0.00862594 0.0334006 0.0114337 0.0340975 0.0139476 0.0358938
64 3 O 0.2623 13.1866 48.413 -1.2 1 0.216751 0.0535901 0.0115175 0.0156709 0.00446363 0.0163606 0.00471935 0.0266055 0.00718187 0.0187337 0.00546605 0.029379 0.00522772 0.0281641 0.00586219 0.033953 0.00883562 0.0338238 0.0112938 0.0389513
65 1 Mg 1.25439 11.8369 54.5215 1.2 1 0.0750118 0.0310008 0.00368147 0.0063518 0.00222386 0.00801962 0.00249906 0.0224433 0.00208291 0.0113357 0.00259557 0.0287544 0.00427926 0.0222659 0.00336344 0.0336856 0.0037177 0.0266414 0.00643137 0.0464826
66 2 Si 1.22564 14.441 56.4089 2.4 1 0.0345246 0.01922 0.00574912 0.00653649 0.00177014 0.00710701 0.00198936 0.0225469 0.00183542 0.00901723 0.00334385 0.0285886 0.00265701 0.0213468 0.00407459 0.0336198 0.00373778 0.0262131 0.00659138 0.0529981
67 3 O 1.18681 12.9269 56.5071 -1.2 1 0.0322244 0.0178945 0.00557763 0.00628344 0.00142617 0.00703186 0.00201194 0.0228047 0.00273986 0.00868235 0.00232976 0.0292581 0.00277382 0.0203656 0.0030886 0.033596 0.00372008 0.0267023 0.00569361 0.0520694
68 3 O 1.36565 15.4813 52.729 -1.2 1 0.111636 0.0374745 0.00129683 0.00789281 0.00229782 0.0112506 0.00311333 0.024399 0.00261253 0.0134735 0.00363095 0.029382 0.0040764 0.0235755 0.0045057 0.0334288 0.00377787 0.0291838 0.00727454 0.045748
69 3 O -0.00279577 15.1454 55.7445 -1.2 1 0.0488571 0.0243584 0.00517661 0.00639641 0.00139856 0.00723002 0.00223007 0.0230464 0.0016754 0.0101143 0.00283627 0.0284729 0.00276084 0.0216136 0.00415489 0.0338363 0.00337015 0.0271576 0.00588688 0.0511259
70 3 O 2.50963 15.1325 55.7107 -1.2 1 0.0449004 0.0235182 0.00580956 0.00639152 0.00140643 0.00704417 0.00257488 0.023234 0.0019747 0.00960391 0.00240727 0.0285329 0.00294571 0.0212055 0.00356633 0.0340831 0.00315175 0.0274424 0.00628289 0.0512707
71 1 Mg -0.206989 14.1049 52.2121 1.2 1 0.117764 0.0413536 0.00169229 0.00892283 0.00298271 0.00972427 0.00230039 0.024165 0.00282104 0.0138508 0.00340729 0.0296496 0.00392041 0.0239269 0.00458659 0.033587 0.0037004 0.0290639 0.00798112 0.0440426
72 1 Mg 1.82591 13.8102 49.4556 1.2 1 0.186547 0.0531396 0.00610966 0.0123528 0.00318246 0.014074 0.00460234 0.0249009 0.00539136 0.018057 0.00545219 0.0293732 0.00489197 0.0270934 0.00621763 0.034933 0.00672684 0.0320134 0.010408 0.0392427
73 2 Si 1.29285 16.1518 51.2434 2.4 1 0.148582 0.0471396 0.00237332 0.0108325 0.00271053 0.0128795 0.00372046 0.02538 0.00392478 0.0161406 0.00516617 0.0287689 0.00415824 0.0261019 0.00593356 0.0341924 0.00442539 0.0312865 0.00955849 0.0440863
74 3 O 1.39496 17.7199 51.3047 -1.2 1 0.145271 0.0444073 0.00270476 0.00997644 0.00201022 0.0126781 0.00345535 0.025382 0.00380419 0.0156369 0.00322613 0.0297796 0.00404862 0.0254026 0.00394909 0.0343737 0.00502073 0.0304745 0.00818073 0.0442333
75 3 O 1.21304 15.118 57.9756 -1.2 1 0.0174616 0.0108215 0.00402327 0.00610289 0.00162672 0.00704762 0.0015873 0.0236155 0.00156795 0.00860796 0.0027936 0.0291344 0.00231235 0.0206151 0.00301313 0.0334488 0.00282621 0.0261451 0.00468824 0.0533096
76 3 O -0.0269106 15.5178 50.6688 -1.2 1 0.157777 0.0469343 0.00427347 0.0113898 0.00340701 0.0131216 0.00346192 0.025425 0.00383529 0.0161045 0.00347885 0.0293787 0.00419054 0.0265956 0.00548647 0.033954 0.00452356 0.0311127 0.00898892 0.0429259
77 1 Mg -3.18391 14.1057 52.3125 1.2 1 0.125031 0.041052 0.00157584 0.00867466 0.0023211 0.0113794 0.00253993 0.0240809 0.00306406 0.0144655 0.00311625 0.0295105 0.0039489 0.024401 0.00436741 0.0332379 0.0042039 0.0289428 0.00751593 0.0433309
78 3 O 2.52432 15.503 50.4579 -1.2 1 0.160656 0.0486676 0.00436591 0.0104732 0.00248437 0.0135111 0.00385785 0.0252108 0.00399262 0.0174549 0.00391014 0.0292162 0.00421207 0.0267849 0.00608794 0.0345435 0.00511731 0.0309781 0.00927998 0.0420365
79 1 Mg -1.67746 14.2614 55.114 1.2 1 0.056689 0.0276709 0.00524032 0.00693817 0.00190095 0.00710069 0.00192495 0.0233204 0.00250787 0.0105883 0.00341336 0.0288864 0.00260281 0.0219319 0.00360608 0.0338815 0.00406163 0.0276318 0.00631623 0.0496952
80 2 Si -1.71823 12.0612 53.2153 2.4 1 0.101731 0.0368971 0.00265361 0.00808571 0.00300195 0.00876669 0.00157266 0.0234299 0.00338238 0.0123553 0.0028882 0.0282452 0.00401484 0.023149 0.00336053 0.0332129 0.00470098 0.0279651 0.00702064 0.04565
81 3 O -1.69858 10.4927 53.2378 -1.2 1 0.0974243 0.0348215 0.00292538 0.00690308 0.00328632 0.00810188 0.00174985 0.0217601 0.00290769 0.0109198 0.00338016 0.0279078 0.00346516 0.0210963 0.00428987 0.0330579 0.00431132 0.0267718 0.00826126 0.0447287
82 3 O -1.21337 13.3381 46.4311 -1.2 1 0.270894 0.0532293 0.021064 0.0204368 0.00688914 0.0209497 0.00693445 0.0296625 0.00923614 0.0208021 0.00728088 0.0313596 0.0063603 0.0269424 0.00888172 0.0356146 0.0130604 0.0359172 0.0137298 0.036302
83 3 O -2.96887 12.7183 53.9677 -1.2 1 0.0859725 0.0330918 0.00291448 0.00653927 0.00214437 0.0089658 0.00167912 0.0231481 0.00221346 0.011794 0.00246672 0.0284702 0.00359863 0.0226043 0.00338889 0.0336505 0.00357124 0.0275443 0.00675676 0.0463462
84 3 O -0.422562 12.7056 53.9421 -1.2 1 0.0810072 0.0327905 0.00370576 0.00683533 0.00274101 0.00688126 0.00117651 0.0234368 0.00245897 0.0113955 0.00258368 0.0283618 0.0032042 0.0226416 0.00367899 0.0338247 0.0036698 0.0277468 0.00682992 0.0469649
85 1 Mg -3.06 21.2922 57.2913 1.2 1 0.0222801 0.0143429 0.00464927 0.00580708 0.00135692 0.00661628 0.00130855 0.0237448 0.00191861 0.00935273 0.00189904 0.0294521 0.0021041 0.0206721 0.00211705 0.0329643 0.00280601 0.0255004 0.00350407 0.0530414
86 1 Mg -1.5831 21.1217 49.8405 1.2 1 0.181484 0.0491535 0.00707144 0.0128041 0.00329523 0.0156752 0.00339573 0.0268955 0.00451027 0.0177396 0.00497033 0.03116 0.00422682 0.0262167 0.00576753 0.0350944 0.00570645 0.0311326 0.00978365 0.0413531
87 2 Si -1.09384 18.6291 47.9287 2.4 1 0.231761 0.054916 0.0144771 0.017443 0.00387 0.0205669 0.0043339 0.0284419 0.00751545 0.0206094 0.0055383 0.0319107 0.00604424 0.0294115 0.0061313 0.0360245 0.00950996 0.0341522 0.0108627 0.0407598
88 3 O -1.02071 20.1985 47.9911 -1.2 1 0.230705 0.0538991 0.0143809 0.0175293 0.00422331 0.0207231 0.00433474 0.028442 0.00729235 0.0203539 0.00606081 0.0316904 0.00602804 0.0282013 0.00733683 0.0362766 0.00859221 0.034204 0.0107714 0.0405471
89 3 O -1.65002 17.5002 51.771 -1.2 1 0.135022 0.0421818 0.00239124 0.0100576 0.00292721 0.011655 0.00179668 0.0250921 0.00288282 0.0146357 0.00271458 0.0295389 0.00428763 0.0244259 0.00437411 0.0341985 0.00493384 0.0293475 0.00836655 0.0444922
90 3 O -2.26174 18.0434 48.8281 -1.2 1 0.207174 0.0546497 0.00995888 0.014999 0.00381594 0.0171388 0.00405844 0.0279286 0.00596581 0.0201163 0.0045045 0.0312144 0.00466007 0.0282842 0.00581287 0.0361647 0.00752529 0.0337076 0.00990557 0.0407162
91 1 Mg -0.0440435 16.5651 46.8269 1.2 1 0.256276 0.055343 0.0185823 0.0198884 0.00501067 0.024168 0.00516144 0.0314147 0.00931732 0.0223478 0.00637261 0.0334412 0.00675095 0.0296516 0.00850003 0.0356979 0.0104785 0.0367168 0.0123095 0.0400402
92 3 O 0.37001 17.9877 48.3925 -1.2 1 0.213624 0.0541518 0.0108668 0.015982 0.00372957 0.0181099 0.00341846 0.0282687 0.00628422 0.0199282 0.00404894 0.031075 0.0052132 0.0292891 0.00571126 0.0354034 0.00780525 0.0347699 0.0102631 0.0416548
93 1 Mg 1.4274 16.4637 54.5234 1.2 1 0.073621 0.0310713 0.0033479 0.006335 0.00159142 0.00808514 0.00262343 0.0231893 0.00221062 0.0117423 0.00216632 0.0292622 0.00399514 0.0232649 0.00346243 0.0339058 0.00344969 0.0270396 0.00606591 0.0485157
94 2 Si 1.36992 19.1676 56.4341 2.4 1 0.0326119 0.018869 0.00550787 0.00612765 0.00137587 0.00666187 0.00168306 0.0234861 0.00208073 0.00893537 0.00282319 0.0286796 0.00230548 0.0213567 0.0030356 0.0329328 0.00358279 0.0258395 0.0053869 0.0532815
95 3 O 1.34293 17.627 56.5342 -1.2 1 0.0305532 0.0178923 0.00555273 0.00625975 0.00166582 0.00657305 0.00190353 0.0235084 0.00271417 0.00850883 0.00217361 0.0289001 0.00260634 0.0206655 0.00262244 0.0332772 0.00379969 0.0262363 0.00551096 0.052903
96 3 O 1.45147 20.239 52.7294 -1.2 1 0.109223 0.0368368 0.00134162 0.00753371 0.00179502 0.0112822 0.00304397 0.0250295 0.00244412 0.0131349 0.00356793 0.0292684 0.00382276 0.0230871 0.00361294 0.0338547 0.00361037 0.0283604 0.00692361 0.0462372
97 3 O 0.148318 19.8821 55.7608 -1.2 1 0.046941 0.0236216 0.00497861 0.00624535 0.00147795 0.00676805 0.00265517 0.0235606 0.00186784 0.00942841 0.00286457 0.0283329 0.00237955 0.0210726 0.00388373 0.0340673 0.00340789 0.0266939 0.00592046 0.051646
98 3 O 2.67707 19.9377 55.7396 -1.2 1 0.0437749 0.0233982 0.0057022 0.00612586 0.00141873 0.00656429 0.00281391 0.0239552 0.0021618 0.00956392 0.00276527 0.0281752 0.00269659 0.0217008 0.00366433 0.0340773 0.00292412 0.0268943 0.00604096 0.0522303
99 1 Mg -0.126194 18.8651 52.2079 1.2 1 0.116486 0.0416272 0.00175489 0.00885796 0.00236429 0.0100806 0.00233322 0.0252922 0.00272949 0.0142821 0.00325759 0.0296746 0.00364884 0.0241519 0.00395984 0.0341475 0.00361423 0.0293501 0.00765831 0.0448001
100 1 Mg 1.92402 18.5815 49.4545 1.2 1 0.181555 0.0533521 0.005372 0.0124227 0.00215805 0.0148113 0.00412499 0.0265527 0.00460004 0.0189178 0.00389535 0.0306193 0.00483726 0.0276664 0.00476241 0.0360156 0.00604546 0.0328103 0.00971296 0.0417499
101 2 Si 1.38106 20.9117 51.2443 2.4 1 0.146518 0.0468883 0.00205041 0.0105376 0.00242183 0.0131708 0.00402332 0.0260907 0.00365561 0.0160454 0.00498274 0.0291069 0.00426771 0.0254685 0.00521164 0.0342774 0.00365859 0.0305235 0.00922492 0.0443363
102 3 O 1.48527 22.4795 51.3054 -1.2 1 0.143368 0.04379 0.00252146 0.00966021 0.00211048 0.0127938 0.00336666 0.0252275 0.0037956 0.0149928 0.00317945 0.0298519 0.00408404 0.0242565 0.00382035 0.0344196 0.00522443 0.0294596 0.00809953 0.0439282
103 3 O 1.38654 19.8882 57.9409 -1.2 1 0.0168562 0.0114769 0.00365638 0.00600115 0.00129292 0.00646345 0.00114798 0.0238158 0.00160903 0.00838974 0.002574 0.0287671 0.00201118 0.0206784 0.00254145 0.0330989 0.00279274 0.0257452 0.00345055 0.0538151
104 3 O 0.0615419 20.2804 50.6669 -1.2 1 0.156277 0.0469008 0.0039483 0.0114919 0.00334317 0.0136505 0.00390787 0.0259795 0.00356525 0.0159226 0.0031973 0.0295888 0.00417147 0.0259752 0.00498605 0.0345174 0.00381904 0.0305685 0.00891614 0.0435247
105 1 Mg -3.09665 18.8643 52.3122 1.2 1 0.123886 0.0413033 0.00125984 0.00863023 0.00157658 0.0115609 0.00280389 0.025025 0.00245788 0.0147996 0.00289094 0.0297165 0.00371583 0.0246292 0.00358212 0.0339798 0.00394945 0.028868 0.00747567 0.044327
106 3 O 2.61548 20.2646 50.4626 -1.2 1 0.160186 0.0491453 0.00394802 0.0105228 0.00181802 0.0140422 0.00392011 0.0262731 0.00346176 0.0175214 0.00365054 0.0296146 0.00433594 0.0265814 0.00482431 0.0345492 0.00453478 0.0305744 0.00881603 0.042835
107 1 Mg -1.67078 18.9449 55.1046 1.2 1 0.0535939 0.0266124 0.0053364 0.00662596 0.00158555 0.00701151 0.00231543 0.0242482 0.00255049 0.0104529 0.00276869 0.0292307 0.00230019 0.0218959 0.00353839 0.0337126 0.00397418 0.0269519 0.00595682 0.0503368
108 2 Si -1.58727 16.801 53.2375 2.4 1 0.0974848 0.0371692 0.00247265 0.00808751 0.00251079 0.0084488 0.00139405 0.0241224 0.00299521 0.0127078 0.0024028 0.02863 0.0034681 0.0239469 0.00306523 0.0339222 0.00413784 0.0284995 0.00690814 0.0472365
109 3 O -1.67669 15.2216 53.1107 -1.2 1 0.098966 0.0361977 0.00258544 0.00788381 0.0024661 0.00904641 0.0015085 0.023629 0.00277656 0.0121704 0.00279763 0.0289619 0.00354867 0.0229471 0.00451413 0.0338965 0.00355759 0.0282619 0.00814762 0.0470939
110 3 O -1.12868 18.1227 46.4249 -1.2 1 0.267809 0.0554549 0.020542 0.0210553 0.00562939 0.0242362 0.00571405 0.0320933 0.00824883 0.021949 0.00589336 0.0336056 0.00691569 0.0278092 0.00861868 0.037733 0.0120947 0.0375773 0.012599 0.0399333
111 3 O -2.87366 17.496 53.9574 -1.2 1 0.0840748 0.0330546 0.0027244 0.00660996 0.00174232 0.00879015 0.0017865 0.0240774 0.00211239 0.0121217 0.00196474 0.0284173 0.00300591 0.0234677 0.00293251 0.0337805 0.00357649 0.0277936 0.00623497 0.0478363
112 3 O -0.28072 17.47 53.8886 -1.2 1 0.0816537 0.0332426 0.00329577 0.00693279 0.00261183 0.00702219 0.00132949 0.0240633 0.00197105 0.0116429 0.00214899 0.0283826 0.00320284 0.0233416 0.00340654 0.0341456 0.00381173 0.0278445 0.00658505 0.0478988
113 1 Mg -2.9024 25.9922 57.3017 1.2 1 0.0219081 0.0139234 0.0047656 0.00597246 0.00132649 0.00624803 0.00129944 0.0239011 0.00196425 0.00920318 0.00149556 0.0297505 0.00223551 0.0204681 0.00218297 0.0329571 0.00272231 0.0252602 0.00317437 0.0530093
114 1 Mg -1.48778 25.88 49.8402 1.2 1 0.179553 0.0483254 0.00699635 0.0130291 0.00326002 0.0155909 0.00329069 0.0270047 0.00411706 0.0174671 0.0047037 0.0313623 0.00421168 0.0254946 0.0057796 0.0350627 0.00581939 0.0308255 0.00963231 0.0417047
115 2 Si -1.00491 23.3922 47.9274 2.4 1 0.231189 0.0542115 0.0145138 0.0176262 0.0043318 0.0210835 0.00435814 0.0285994 0.00740801 0.0201101 0.00546155 0.0321095 0.00579706 0.0281829 0.00586564 0.0358046 0.00908775 0.0339992 0.0109274 0.0404553
116 3 O -0.927602 24.9615 47.9909 -1.2 1 0.229199 0.0532198 0.0141344 0.017496 0.00431963 0.0207575 0.00412936 0.0284029 0.00701267 0.019826 0.00599735 0.0318294 0.00565325 0.027247 0.00743662 0.0362926 0.00853424 0.0338961 0.010797 0.0404617
117 3 O -1.55795 22.2588 51.7696 -1.2 1 0.134901 0.0416463 0.00204783 0.00986737 0.00285279 0.0120444 0.00190124 0.0253818 0.00245775 0.0144054 0.002949 0.0298984 0.00413216 0.0237357 0.00424353 0.0340626 0.00507574 0.0281805 0.00826659 0.0446375
118 3 O -2.17411 22.8111 48.8277 -1.2 1 0.20231 0.0533011 0.00945438 0.0145854 0.00368011 0.0175606 0.00399078 0.0281744 0.0050444 0.0195924 0.00457829 0.0315118 0.00457133 0.0272077 0.00532189 0.0356793 0.00670445 0.032961 0.0098254 0.0404954
119 1 Mg 0.0423997 21.3296 46.8225 1.2 1 0.258394 0.0553718 0.0186831 0.0203012 0.00498345 0.0252124 0.00581441 0.0318089 0.00870567 0.0222668 0.00657503 0.0337072 0.00724612 0.0290715 0.00868153 0.036296 0.00996739 0.0367832 0.0122482 0.0401849
120 3 O 0.458537 22.7495 48.3911 -1.2 1 0.211586 0.0536547 0.0109054 0.015697 0.00386585 0.0184517 0.00352141 0.0285934 0.00633849 0.0193777 0.0044113 0.0313343 0.00522639 0.0282411 0.0050399 0.0351559 0.00781904 0.0341474 0.009999 0.0414015