ITEM: TIMESTEP
52200
ITEM: NUMBER OF ATOMS
10500
ITEM: BOX BOUNDS xy xz yz pp pp pp
0	8.9688	2.9896
0	118.725	0
0	252.977	0
ITEM: ATOMS id type element xu yu zu q Q_1 Q_2 Q_3 Q_4 Q_5 Q_6 Q_7 Q_8 Q_9 Q_10 Q_11 Q_12 Q_13 Q_14 Q_15 Q_16 Q_17 Q_18 Q_19 Q_20 Q_21
1 1 Mg -3.46045 7.05056 57.5407 1.2 1 0.0203359 0.0152617 0.004609 0.00493079 0.00118481 0.00591279 0.00106026 0.0211638 0.00196755 0.00916058 0.00166659 0.026749 0.00219398 0.0196704 0.0018919 0.0300635 0.00240231 0.0247104 0.00326001 0.0451929
2 1 Mg -1.82655 6.90154 50.0912 1.2 1 0.176905 0.0467762 0.00686857 0.00892916 0.00321151 0.00854867 0.0042213 0.0217302 0.00414208 0.0133375 0.00498786 0.0247085 0.00493727 0.0204502 0.00599897 0.0284787 0.00591878 0.0256675 0.00879645 0.0333418
3 2 Si -0.257935 3.96038 48.0876 2.4 1 0.226125 0.0522733 0.0123395 0.0117643 0.00232882 0.00960595 0.00368323 0.0196901 0.00535506 0.0160101 0.0042115 0.0237745 0.00596029 0.0202683 0.00514883 0.0264674 0.00720447 0.0256143 0.0086588 0.0319315
4 3 O -0.335812 5.46814 47.6264 -1.2 1 0.233652 0.0514212 0.0143125 0.0124725 0.00316762 0.0107754 0.00444449 0.0202098 0.00590323 0.0163846 0.00424227 0.0244327 0.00543947 0.0206262 0.00524529 0.0266835 0.00748862 0.0260752 0.00940723 0.0305421
5 3 O -2.03793 3.43377 51.8941 -1.2 1 0.129732 0.0412945 0.00217161 0.00622068 0.00210881 0.00706253 0.00246982 0.0195006 0.00235511 0.0108764 0.0028191 0.0243398 0.00370659 0.0179107 0.00380321 0.0282045 0.00555437 0.0243647 0.00706612 0.0360197
6 3 O -1.54015 3.53929 48.9521 -1.2 1 0.203101 0.0508226 0.00938213 0.010805 0.00238917 0.00837379 0.00367422 0.0196521 0.00427716 0.0142864 0.00459953 0.0235608 0.00524584 0.0199204 0.00549844 0.0270156 0.00569504 0.0251896 0.00835495 0.0315683
7 1 Mg 1.82954 2.54582 47.1376 1.2 1 0.247403 0.051957 0.0164506 0.015281 0.00292687 0.0107845 0.00352073 0.0196846 0.0054512 0.0151285 0.00445268 0.0238928 0.00673556 0.0194059 0.00741294 0.0247447 0.00727251 0.0241904 0.00887741 0.0304489
8 3 O 1.22989 3.66364 48.7877 -1.2 1 0.205431 0.0499176 0.00989195 0.0115819 0.00214861 0.00917298 0.00337802 0.0198447 0.00391636 0.0141917 0.00371485 0.0233545 0.00514841 0.0194968 0.00518186 0.026536 0.00506635 0.0249758 0.0085999 0.0325287
9 1 Mg 0.954799 2.43902 54.6454 1.2 1 0.0680645 0.0301045 0.00458701 0.00468335 0.00110002 0.00570209 0.00282901 0.0197822 0.00270047 0.00893643 0.00226921 0.0247121 0.0034504 0.0193491 0.00354448 0.0301224 0.00315886 0.0247732 0.00594816 0.0407656
10 2 Si 1.06582 5.10539 56.1969 2.4 1 0.0381535 0.0230048 0.00582033 0.00484506 0.00132192 0.0063471 0.00264132 0.0205741 0.00220478 0.0083889 0.00382008 0.0249947 0.00303889 0.0198893 0.00423599 0.0299082 0.00328075 0.0248668 0.00572786 0.0438536
11 3 O 1.01851 3.61037 56.485 -1.2 1 0.0354875 0.0210212 0.0056629 0.00464082 0.00123859 0.00582204 0.00198636 0.0203469 0.00212788 0.00797723 0.00177832 0.0253432 0.00253972 0.0185384 0.00265904 0.0300797 0.00329886 0.0254247 0.00470655 0.0436626
12 3 O 1.10813 6.07342 52.8172 -1.2 1 0.105715 0.036337 0.00217043 0.0052824 0.00234371 0.0069796 0.00332074 0.0209575 0.00292974 0.0103523 0.00298866 0.025037 0.00417388 0.0187757 0.00408067 0.02908 0.00445643 0.0248499 0.00636171 0.0382305
13 3 O -0.186003 5.80289 55.5022 -1.2 1 0.0508972 0.0259152 0.00519272 0.00454085 0.00134915 0.0056482 0.0023014 0.0201819 0.00220698 0.00906941 0.00236772 0.0253679 0.00313987 0.0195667 0.0034195 0.0302007 0.00328962 0.0244864 0.00514048 0.0426717
14 3 O 2.43524 5.60208 55.7357 -1.2 1 0.0421386 0.0236996 0.00613485 0.00431465 0.00143933 0.0063288 0.00221407 0.0210105 0.00164939 0.00885133 0.00250584 0.0255357 0.00298322 0.0198507 0.00362691 0.0309372 0.00325259 0.0257598 0.00561346 0.0434165
15 1 Mg -0.459401 4.67631 52.2426 1.2 1 0.123449 0.040857 0.00221491 0.00617741 0.00254486 0.00660597 0.00243289 0.0200751 0.00281133 0.0113088 0.00275362 0.0252195 0.00406576 0.0189302 0.00404748 0.0285826 0.00467879 0.0242528 0.00662051 0.0358877
16 1 Mg 2.79456 3.9971 49.9987 1.2 1 0.177076 0.0493155 0.00596376 0.00933497 0.00265876 0.00790307 0.00385407 0.0200828 0.00313602 0.0139224 0.00290114 0.0241306 0.00459403 0.0200093 0.00539969 0.0279518 0.00456841 0.0253797 0.00872942 0.0329049
17 2 Si 1.16169 6.59457 51.2556 2.4 1 0.146741 0.0449787 0.00270925 0.00755184 0.00292332 0.00829295 0.00393316 0.0210426 0.00360806 0.0124198 0.00484771 0.0248532 0.00467637 0.0204214 0.00597442 0.0297488 0.00460856 0.0256763 0.00880706 0.0354611
18 3 O 1.28989 8.18905 51.2909 -1.2 1 0.14322 0.0425715 0.00294448 0.0075321 0.00265121 0.00903381 0.00411702 0.0210572 0.00380944 0.011893 0.00347599 0.0259021 0.0040458 0.0198511 0.00472377 0.0298574 0.00520553 0.0260971 0.00764542 0.0371224
19 3 O 1.08813 5.87771 57.8316 -1.2 1 0.0154855 0.0128165 0.00386094 0.0050665 0.0011726 0.00647042 0.00142301 0.0208567 0.00180225 0.00840846 0.00216672 0.0256446 0.00207327 0.0192271 0.00253996 0.0307192 0.00206378 0.0253751 0.00367599 0.0456915
20 3 O -0.184847 6.06029 50.6845 -1.2 1 0.159708 0.044439 0.00531001 0.00818994 0.0034964 0.00818466 0.00392616 0.0210266 0.00399935 0.0124132 0.00331222 0.0241369 0.00441842 0.019859 0.00510941 0.0280593 0.00517202 0.025288 0.00805911 0.0351486
21 1 Mg -3.49704 4.67769 52.6661 1.2 1 0.115219 0.0385563 0.00170021 0.00540757 0.00217881 0.00707595 0.00299818 0.0197003 0.00316358 0.0103556 0.00333188 0.0246483 0.00387119 0.0187173 0.00349434 0.0280217 0.00432068 0.0241878 0.00663926 0.0369769
22 3 O 2.48581 5.93312 50.6539 -1.2 1 0.157496 0.0460238 0.00419693 0.00730784 0.00197269 0.00866176 0.00390893 0.0206938 0.00349754 0.0126292 0.00450031 0.0239591 0.00483848 0.0203796 0.0054481 0.0292391 0.00461679 0.025665 0.00838779 0.0344939
23 1 Mg -1.73916 4.67513 55.1005 1.2 1 0.0524937 0.027298 0.00579811 0.0047456 0.00147991 0.00561864 0.00228441 0.0202697 0.00268771 0.00921783 0.003097 0.0256321 0.00272888 0.0194285 0.00337452 0.0304516 0.00342174 0.0251741 0.00551569 0.0423051
24 2 Si -2.08232 2.59712 53.3239 2.4 1 0.0998309 0.0360253 0.00271496 0.00544522 0.00227712 0.00619069 0.00171762 0.0195358 0.00253576 0.0100784 0.00259742 0.0239629 0.00293712 0.0184154 0.00371904 0.0285099 0.00473648 0.0242799 0.00617454 0.0378636
25 3 O -2.06303 1.04922 53.183 -1.2 1 0.0978916 0.035648 0.00280499 0.00571168 0.00284297 0.00617385 0.00214764 0.0195752 0.00251357 0.00969581 0.00211621 0.0240819 0.00295667 0.0184726 0.00405789 0.0285063 0.00361978 0.0251888 0.006146 0.0376591
26 3 O -0.0467762 2.97103 46.8385 -1.2 1 0.254726 0.0522559 0.0170474 0.0145778 0.00268767 0.00992203 0.00383283 0.0192416 0.00609791 0.0161855 0.00596466 0.0237125 0.00774681 0.0190948 0.00823045 0.0249534 0.0074345 0.0244836 0.00981842 0.0316108
27 3 O -3.28748 3.22573 54.007 -1.2 1 0.0808748 0.0323365 0.00357913 0.00420054 0.00188338 0.00595163 0.00194222 0.0198168 0.00246249 0.00942336 0.00208199 0.0240252 0.00304231 0.0189649 0.00286592 0.0291463 0.00369819 0.0242004 0.00586899 0.0391859
28 3 O -0.679096 3.23742 53.9984 -1.2 1 0.0821414 0.033318 0.00380968 0.00468567 0.00178153 0.00627114 0.0018 0.0200138 0.00226112 0.00953124 0.00208542 0.0241909 0.00315361 0.0190957 0.00290894 0.0294193 0.00366367 0.0249508 0.00604347 0.0395181
29 1 Mg -3.249 11.8439 57.5734 1.2 1 0.0197624 0.0143953 0.00436864 0.00546882 0.00123495 0.00573065 0.00133702 0.0218051 0.00165901 0.00947843 0.00145899 0.027598 0.00234915 0.0199117 0.00194833 0.0303551 0.00222825 0.0250565 0.00394134 0.0447648
30 1 Mg -1.75014 11.5838 49.8362 1.2 1 0.183299 0.0457391 0.00744221 0.0109505 0.00405316 0.0126066 0.00488367 0.0240537 0.00469933 0.0148188 0.00513601 0.0276033 0.00441467 0.023063 0.00692568 0.0321808 0.0066618 0.0282121 0.00912004 0.0356199
31 2 Si -1.18003 9.02138 47.9309 2.4 1 0.242012 0.050102 0.0153402 0.0143533 0.00521881 0.0132663 0.00761803 0.0225431 0.00757425 0.0163662 0.00741917 0.0262005 0.00561011 0.0223886 0.00687093 0.0299371 0.00884163 0.0281974 0.0122066 0.0330816
32 3 O -1.23224 10.5991 47.9811 -1.2 1 0.231973 0.0506319 0.0132898 0.0144092 0.00527401 0.0144733 0.00656038 0.0238883 0.00740587 0.0166861 0.00726084 0.0275701 0.00576046 0.0234937 0.00815549 0.0322442 0.00904339 0.0297539 0.0109611 0.0336824
33 3 O -1.79016 8.01447 51.8693 -1.2 1 0.132939 0.0407582 0.00253827 0.00746233 0.00335516 0.00763196 0.00304549 0.0212652 0.00345011 0.011442 0.00348214 0.0259809 0.00365115 0.0199303 0.00431195 0.0296301 0.00529976 0.0248877 0.00783426 0.03761
34 3 O -2.30986 8.37215 48.8528 -1.2 1 0.204563 0.0505687 0.00970021 0.0110827 0.00424628 0.010538 0.00584903 0.0224881 0.00542022 0.015715 0.00495085 0.0258278 0.00476069 0.0219174 0.00524623 0.0304372 0.00659981 0.0275807 0.00940562 0.0330401
35 1 Mg 0.154883 7.08234 46.8007 1.2 1 0.261335 0.050723 0.0186532 0.0146915 0.00525089 0.0135329 0.00835038 0.0229965 0.00724522 0.0167267 0.00717802 0.024912 0.00721965 0.0210548 0.00858878 0.0285768 0.00998679 0.0280071 0.0130341 0.0308089
36 3 O 0.325447 8.50934 48.3809 -1.2 1 0.220792 0.0516691 0.0116585 0.0128126 0.00437009 0.0120952 0.00619791 0.0230742 0.0062913 0.0160264 0.00589425 0.0256015 0.00544419 0.0233581 0.00610268 0.0299623 0.00755822 0.0281253 0.0109424 0.0334708
37 1 Mg 1.3163 7.37111 54.4526 1.2 1 0.0708496 0.0315227 0.00442644 0.00418587 0.0015499 0.00641261 0.00268266 0.0206565 0.00262633 0.00938776 0.00259993 0.0254679 0.003577 0.02018 0.00310794 0.030261 0.0031965 0.0246215 0.00616835 0.0405532
38 2 Si 1.11826 9.71499 56.5222 2.4 1 0.0306367 0.0194133 0.00528781 0.00573302 0.00112179 0.00637638 0.00211399 0.0212975 0.00234083 0.0087398 0.00251595 0.0258144 0.00265807 0.0206386 0.00255989 0.0301933 0.00329354 0.0249796 0.00511189 0.0458738
39 3 O 1.13071 8.24808 56.3991 -1.2 1 0.0352036 0.0210139 0.00532576 0.00517749 0.000789708 0.0057477 0.00144326 0.0207371 0.00255 0.00838778 0.00174039 0.0264542 0.00283439 0.0194459 0.00269839 0.0304272 0.00412046 0.0246748 0.00485621 0.0447264
40 3 O 1.28624 10.7248 52.7351 -1.2 1 0.109826 0.0367706 0.0015851 0.00587543 0.00224402 0.00929058 0.00329076 0.0222096 0.00301201 0.0113567 0.00373213 0.0264349 0.00420258 0.0209251 0.00395437 0.0307018 0.00391964 0.0267887 0.00679238 0.0396756
41 3 O -0.0654151 10.4068 55.8821 -1.2 1 0.0478602 0.0245257 0.00480651 0.00514231 0.00103308 0.00598599 0.00202522 0.021487 0.00222401 0.00942265 0.00244782 0.0262231 0.00325587 0.0206251 0.00401678 0.0313352 0.00382608 0.025642 0.00530594 0.0440139
42 3 O 2.43835 10.345 55.9092 -1.2 1 0.0400396 0.02318 0.00598051 0.00534394 0.000783519 0.00565124 0.00201291 0.0212001 0.00204097 0.00937545 0.00251782 0.0260031 0.00296324 0.020423 0.00302651 0.0315926 0.00302784 0.0258323 0.00573512 0.0445755
43 1 Mg -0.262694 9.34741 52.2523 1.2 1 0.114785 0.0404016 0.00235592 0.00660661 0.00298969 0.00755407 0.00286007 0.0223121 0.00322199 0.011598 0.00330413 0.0265416 0.00374141 0.0206132 0.00409558 0.0306372 0.00421079 0.0263952 0.00737622 0.0378843
44 1 Mg 1.87648 9.01537 49.4629 1.2 1 0.183429 0.0502092 0.00609078 0.00965216 0.00318455 0.0105568 0.00581217 0.0220487 0.00461488 0.0150383 0.00484838 0.026294 0.00506902 0.0227192 0.00596917 0.0308823 0.00491724 0.0279761 0.00984108 0.0345515
45 2 Si 1.21415 11.3799 51.2378 2.4 1 0.145881 0.0442412 0.00250153 0.00872434 0.00308852 0.0109579 0.00358922 0.0229279 0.00393814 0.0135974 0.00493012 0.0266269 0.00420236 0.0234337 0.00504467 0.0316668 0.00529054 0.0280351 0.00864022 0.0375573
46 3 O 1.31634 12.9512 51.3023 -1.2 1 0.146161 0.0423314 0.00298213 0.00860699 0.00236506 0.0119136 0.00336714 0.0234171 0.00384835 0.0137904 0.00365599 0.0277968 0.0042223 0.0235647 0.00485399 0.0331401 0.00527732 0.0285494 0.00785271 0.0388592
47 3 O 1.18731 10.4578 58.0041 -1.2 1 0.0152955 0.0122901 0.0034604 0.00575676 0.000838712 0.006082 0.00156941 0.0217169 0.00201251 0.00896452 0.00195454 0.026682 0.00234305 0.0200652 0.00232676 0.0303562 0.00219268 0.0251286 0.00347088 0.0460293
48 3 O -0.115718 10.7564 50.681 -1.2 1 0.156353 0.0443378 0.00419423 0.0093557 0.00349075 0.0107362 0.00417089 0.0230655 0.00370159 0.0130749 0.00370587 0.0267071 0.00438916 0.0224011 0.00591644 0.0308937 0.00513909 0.0274396 0.00902187 0.0369792
49 1 Mg -3.26386 9.35564 52.3622 1.2 1 0.122004 0.0391245 0.00158409 0.00610207 0.00258817 0.00882928 0.0038634 0.021324 0.00364668 0.0115407 0.00404919 0.0264831 0.00335604 0.0207975 0.00393346 0.0308849 0.00453765 0.0255519 0.00752607 0.0372247
50 3 O 2.45216 10.7265 50.4558 -1.2 1 0.163753 0.0465157 0.00439348 0.00862533 0.00276225 0.0112977 0.00488537 0.0225834 0.00421924 0.0143789 0.0046934 0.0263636 0.00419208 0.0227869 0.00617827 0.0320715 0.00592346 0.028065 0.00895757 0.0365652
51 1 Mg -1.79635 9.46551 55.0053 1.2 1 0.0552182 0.0282404 0.00507094 0.00523812 0.00166001 0.00597588 0.00267024 0.0211245 0.00302235 0.00967153 0.0031815 0.0261848 0.00313422 0.0209322 0.00333683 0.0313542 0.00392157 0.0258272 0.0059761 0.0432247
52 2 Si -1.7793 7.31299 53.3422 2.4 1 0.0935398 0.0358766 0.00286248 0.00579555 0.00282122 0.00670598 0.00309867 0.0206721 0.00355803 0.0102966 0.00272237 0.025675 0.00313651 0.020219 0.00302071 0.0297464 0.00468225 0.0242852 0.00616337 0.0398354
53 3 O -1.93535 5.81181 53.3902 -1.2 1 0.0959073 0.034365 0.00261655 0.00500871 0.00231854 0.00658834 0.00219309 0.0201496 0.00285568 0.00943909 0.00276562 0.0248441 0.00302635 0.0191339 0.00301852 0.0292407 0.00334054 0.0243838 0.00657903 0.0390803
54 3 O -1.19417 8.46968 46.4488 -1.2 1 0.273985 0.0503353 0.0207794 0.0164811 0.00534318 0.0148851 0.00876659 0.0240044 0.00742882 0.0166167 0.00758423 0.0256378 0.0067599 0.020707 0.00881598 0.0299921 0.0104956 0.0294555 0.0124458 0.0309802
55 3 O -3.02089 8.16797 53.9312 -1.2 1 0.0839045 0.0322713 0.0025608 0.00469384 0.00235464 0.00723595 0.00284512 0.0209958 0.00276571 0.00977535 0.00214895 0.0252303 0.00292081 0.0204473 0.00283359 0.0303711 0.004455 0.0244929 0.00655941 0.0401902
56 3 O -0.451717 8.0394 53.9081 -1.2 1 0.0811366 0.0327432 0.00373805 0.00480782 0.00224234 0.00573618 0.00203741 0.02135 0.00305232 0.00964071 0.00219511 0.0255124 0.00265525 0.0200799 0.00326997 0.0302747 0.00414407 0.0250712 0.00580357 0.0409404
57 1 Mg -2.99701 16.5142 57.3924 1.2 1 0.0201367 0.0150063 0.00516429 0.00582911 0.00118886 0.00604974 0.00195497 0.0229739 0.00214251 0.0100161 0.00194212 0.0280412 0.00176656 0.0198463 0.00215625 0.0316103 0.00331828 0.0258334 0.00461995 0.0451121
58 1 Mg -1.6714 16.3544 49.8412 1.2 1 0.181359 0.0471727 0.00717175 0.0124011 0.00317259 0.015247 0.00319664 0.0257338 0.00456785 0.0169581 0.00466642 0.0304677 0.00384752 0.0254839 0.00680432 0.0353608 0.00587567 0.030939 0.00883503 0.0376408
59 2 Si -1.18567 13.8526 47.9314 2.4 1 0.234202 0.0509447 0.0141641 0.0161307 0.00463544 0.0184502 0.00530678 0.0268086 0.00808394 0.0188399 0.00613264 0.0304063 0.00608757 0.0277531 0.0065426 0.0352624 0.00950068 0.0323367 0.0107478 0.0361785
60 3 O -1.09664 15.4205 47.9915 -1.2 1 0.23231 0.050364 0.0140876 0.016559 0.004871 0.0196311 0.00433786 0.0272662 0.00749056 0.0191077 0.00616136 0.0306017 0.00578946 0.0269679 0.00834854 0.0364558 0.00860342 0.0333936 0.0101454 0.0368085
61 3 O -1.73493 12.7491 51.7772 -1.2 1 0.134683 0.0401532 0.0024946 0.00895857 0.00314809 0.0102657 0.00214335 0.023699 0.00325666 0.0131855 0.0032623 0.0275115 0.00402014 0.023036 0.00500009 0.0321195 0.00533432 0.0274812 0.00768651 0.0395569
62 3 O -2.36115 13.2717 48.8238 -1.2 1 0.208566 0.0509674 0.00966023 0.0134581 0.00487269 0.0147901 0.00484111 0.0260313 0.00558852 0.0186097 0.00534287 0.029811 0.00500063 0.0263306 0.00597939 0.0347735 0.00768858 0.0314111 0.00979527 0.0357707
63 1 Mg -0.159928 11.7639 46.8533 1.2 1 0.260977 0.0505722 0.0181289 0.0174251 0.00592516 0.0200447 0.00726482 0.0276101 0.00877524 0.0187844 0.00799888 0.0298652 0.00670221 0.0267423 0.00783781 0.0336208 0.0109126 0.0327307 0.0131113 0.0346485
64 3 O 0.2623 13.1866 48.413 -1.2 1 0.214933 0.0502149 0.0108821 0.0140936 0.00420205 0.0162571 0.00423527 0.026 0.00678637 0.0178125 0.00505845 0.0288982 0.00532246 0.0273486 0.00543934 0.0343582 0.00840934 0.0320052 0.0100085 0.0369164
65 1 Mg 1.3991 11.8017 54.4538 1.2 1 0.0754306 0.0316838 0.00333218 0.00491463 0.00181516 0.00753555 0.00282561 0.0215906 0.00288778 0.0105912 0.00260213 0.0266567 0.00390674 0.0217963 0.00296439 0.0312073 0.00361868 0.0254095 0.00595138 0.0407986
66 2 Si 1.38841 14.4582 56.3026 2.4 1 0.0339469 0.0204604 0.00569194 0.00612185 0.0010222 0.00622458 0.00272979 0.021929 0.00227948 0.009308 0.00296814 0.0264822 0.00311346 0.0209526 0.00302946 0.0311126 0.00360813 0.0260132 0.00567065 0.0462058
67 3 O 1.32468 12.8704 56.4797 -1.2 1 0.0285712 0.0185348 0.00506455 0.00568057 0.000775031 0.00565753 0.00235117 0.0219669 0.00301036 0.0089744 0.00163926 0.0270881 0.00301756 0.0202285 0.00263891 0.0310645 0.00356597 0.026025 0.00511806 0.0459825
68 3 O 1.36565 15.4813 52.729 -1.2 1 0.111145 0.0373855 0.0010113 0.00743617 0.00170462 0.0110655 0.00319345 0.023583 0.00298394 0.0129367 0.00347227 0.0282559 0.00369079 0.0222581 0.00396414 0.0330269 0.00428482 0.0282031 0.00655084 0.0412839
69 3 O 0.0653774 15.0698 55.769 -1.2 1 0.0459096 0.0243131 0.00499754 0.00597358 0.000921873 0.00623544 0.00242893 0.0219119 0.00204397 0.00982175 0.00269251 0.0268826 0.00303377 0.0209562 0.00385484 0.0322903 0.0039167 0.0266225 0.00520621 0.0447862
70 3 O 2.51251 15.1055 55.4953 -1.2 1 0.04946 0.0257172 0.00504459 0.00554342 0.00105907 0.00634871 0.00267096 0.022284 0.00213857 0.010406 0.0022797 0.0270087 0.00285121 0.0216455 0.0038076 0.0322101 0.0038661 0.0265349 0.00535752 0.0448803
71 1 Mg -0.206989 14.1049 52.2121 1.2 1 0.118939 0.0407336 0.00119956 0.00790568 0.00269748 0.00939563 0.00270818 0.0239563 0.002704 0.0132571 0.0037169 0.0284312 0.00354505 0.0229514 0.00395762 0.0328793 0.00447393 0.0280982 0.00732943 0.0392557
72 1 Mg 1.82591 13.8102 49.4556 1.2 1 0.187604 0.0509514 0.00614813 0.0111495 0.00284993 0.0138725 0.00439825 0.0244662 0.0045509 0.0172765 0.00487432 0.0288534 0.00475751 0.0263211 0.00621163 0.0353363 0.00639825 0.0309978 0.00942512 0.0368934
73 2 Si 1.29285 16.1518 51.2434 2.4 1 0.145563 0.0448302 0.00197011 0.00990586 0.00198487 0.012973 0.00363837 0.0248758 0.00381246 0.0154925 0.00488471 0.0282221 0.00420052 0.0252086 0.00586158 0.0343729 0.00446163 0.0303505 0.00840579 0.0398915
74 3 O 1.39496 17.7199 51.3047 -1.2 1 0.144251 0.0435573 0.00271682 0.00949474 0.000945281 0.0128499 0.00278208 0.0249666 0.00388574 0.0151714 0.00329886 0.0292578 0.00324835 0.0243299 0.00438783 0.0348952 0.0048185 0.0302137 0.00694967 0.039847
75 3 O 1.58603 15.1459 57.7738 -1.2 1 0.0158438 0.0123836 0.00403391 0.00593149 0.00127852 0.0058528 0.00185354 0.0228423 0.00192959 0.00908302 0.00235923 0.0269979 0.0024163 0.0201312 0.00312884 0.0306362 0.00326515 0.0257604 0.00439479 0.0462461
76 3 O -0.0269106 15.5178 50.6688 -1.2 1 0.159577 0.0454273 0.00400011 0.0107508 0.00316804 0.013197 0.00351133 0.0251235 0.00372637 0.0153929 0.00330235 0.0288711 0.00373222 0.0257139 0.00550402 0.0342118 0.00429379 0.0302106 0.00781057 0.0388696
77 1 Mg -3.18391 14.1057 52.3125 1.2 1 0.125215 0.0404539 0.00148513 0.00788925 0.00208419 0.0109835 0.00295583 0.0236064 0.00333558 0.0136524 0.00271694 0.0281022 0.0034494 0.0235119 0.00393036 0.0328566 0.00498359 0.0278082 0.00657445 0.0391383
78 3 O 2.52432 15.503 50.4579 -1.2 1 0.161391 0.0471486 0.00411525 0.0100367 0.00225825 0.0135691 0.00395635 0.0251968 0.00417541 0.0170116 0.00378725 0.0289164 0.00375428 0.0257246 0.00616874 0.0350984 0.00509183 0.0300871 0.00837536 0.0382414
79 1 Mg -1.75474 14.2492 55.0195 1.2 1 0.0569553 0.0280339 0.0047553 0.00603454 0.00167263 0.00657194 0.00247111 0.0223631 0.00269306 0.0103472 0.00301782 0.0274708 0.00279093 0.0216987 0.00346084 0.0321197 0.00448421 0.0267127 0.00559585 0.0436804
80 2 Si -1.64738 12.1118 53.3092 2.4 1 0.0976027 0.0360715 0.00274305 0.00680224 0.0028977 0.0078397 0.00218933 0.022795 0.00301612 0.0116883 0.00289918 0.0266911 0.00367203 0.0226516 0.00298245 0.0316741 0.00489664 0.0268042 0.00680064 0.0417536
81 3 O -1.72922 10.5956 53.2344 -1.2 1 0.0975787 0.035359 0.00273165 0.00597392 0.00279805 0.00768312 0.00201037 0.0214609 0.00276347 0.0101339 0.00269579 0.0261026 0.00324116 0.0207391 0.00352977 0.0310008 0.0039338 0.0257085 0.0072895 0.0403389
82 3 O -1.21337 13.3381 46.4311 -1.2 1 0.27442 0.0499355 0.020392 0.0192725 0.00648805 0.0213716 0.00715412 0.0295618 0.00897717 0.0201014 0.00721155 0.0310506 0.00681412 0.0261751 0.0090083 0.0363107 0.0127769 0.0347987 0.0133172 0.0349633
83 3 O -2.93314 12.781 53.9351 -1.2 1 0.0842305 0.0327793 0.00267488 0.00549925 0.0017257 0.00832197 0.0020439 0.0223528 0.00235076 0.0111618 0.00255157 0.0266497 0.00310837 0.0220918 0.00315316 0.0321228 0.00387168 0.0265383 0.00617094 0.0422035
84 3 O -0.384551 12.804 53.7543 -1.2 1 0.0845478 0.0329512 0.00272677 0.00567622 0.00272308 0.00676146 0.00230795 0.0227533 0.00239837 0.0109823 0.00291118 0.0265389 0.00315486 0.022444 0.00366404 0.0320411 0.00475489 0.0268011 0.00576382 0.0418087
85 1 Mg -2.85376 21.4019 57.2769 1.2 1 0.0207612 0.0158244 0.00545391 0.00603381 0.00145621 0.00620386 0.00159597 0.0222142 0.00194832 0.00995784 0.0019404 0.0275069 0.00187661 0.0193767 0.00248304 0.033314 0.00332404 0.0264673 0.0043125 0.0437093
86 1 Mg -1.5831 21.1217 49.8405 1.2 1 0.180356 0.0484126 0.00717821 0.0129847 0.00282991 0.0156973 0.00308018 0.0261894 0.00407803 0.0176629 0.00466109 0.0308263 0.00351449 0.0251647 0.00695144 0.0357266 0.0057449 0.0317593 0.00873947 0.037729
87 2 Si -1.09384 18.6291 47.9287 2.4 1 0.232751 0.0528314 0.014279 0.0170758 0.00397334 0.0208444 0.00395382 0.0280106 0.00744495 0.0199501 0.00536526 0.0318745 0.00586956 0.027797 0.00649798 0.0364219 0.0092724 0.0339674 0.00991725 0.0378191
88 3 O -1.02071 20.1985 47.9911 -1.2 1 0.229705 0.0521718 0.0142384 0.0170206 0.00414529 0.0207512 0.00421703 0.0280281 0.0069405 0.0197778 0.00558228 0.0315343 0.00533185 0.0269245 0.00778298 0.0365823 0.00796052 0.0341386 0.00895118 0.0377649
89 3 O -1.65002 17.5002 51.771 -1.2 1 0.134884 0.0413054 0.00197801 0.00978407 0.00274851 0.011776 0.001809 0.0248911 0.00292764 0.01449 0.00292323 0.0288764 0.0036418 0.0237927 0.00421336 0.0342074 0.00503639 0.0290274 0.00682929 0.0398127
90 3 O -2.26174 18.0434 48.8281 -1.2 1 0.205192 0.0519213 0.0095167 0.0144467 0.00369896 0.0174148 0.00390705 0.0273827 0.00549326 0.0193656 0.00439623 0.0310405 0.00443193 0.0268707 0.00666176 0.0364135 0.00714151 0.033404 0.00874019 0.0372045
91 1 Mg -0.0440435 16.5651 46.8269 1.2 1 0.258839 0.051947 0.017772 0.0190539 0.00472489 0.024411 0.00515565 0.0307585 0.00897102 0.0216105 0.00664175 0.0330004 0.00703642 0.028598 0.00872339 0.0365436 0.00977969 0.0361125 0.0114349 0.0379911
92 3 O 0.37001 17.9877 48.3925 -1.2 1 0.213207 0.051911 0.0108118 0.0150448 0.003286 0.0182992 0.00309622 0.027937 0.00590234 0.0192166 0.00339589 0.0308314 0.00482604 0.0278609 0.00566804 0.0359986 0.00723172 0.0344861 0.00863516 0.0383162
93 1 Mg 1.27853 16.7158 54.5178 1.2 1 0.0719943 0.0312368 0.00399942 0.00615563 0.001369 0.00776308 0.00314327 0.0226761 0.00245799 0.0117937 0.00262489 0.0280325 0.00327186 0.0221524 0.00364351 0.0333852 0.00356077 0.0264457 0.00555883 0.0421986
94 2 Si 1.52614 19.2076 56.4332 2.4 1 0.0319944 0.0208084 0.00567758 0.00686685 0.00108039 0.00595553 0.00220096 0.0222284 0.00225314 0.0096669 0.00283629 0.0262719 0.00258336 0.0205036 0.00425107 0.0328741 0.00372194 0.0264821 0.00498878 0.0446105
95 3 O 1.48081 17.7136 56.525 -1.2 1 0.0283093 0.0192163 0.00579542 0.00646337 0.00102558 0.00539677 0.0023446 0.0223159 0.00296513 0.0089881 0.00186173 0.0271039 0.00287391 0.0195632 0.00347775 0.0325539 0.00394146 0.0264232 0.00492597 0.0452417
96 3 O 1.45147 20.239 52.7294 -1.2 1 0.108508 0.0383167 0.00105216 0.00782909 0.0013125 0.0111076 0.00306168 0.0243801 0.00275294 0.0134524 0.00306503 0.0283939 0.00361345 0.0218806 0.00441256 0.0343593 0.00395749 0.0293514 0.00635643 0.0407192
97 3 O 0.305808 19.8207 55.6444 -1.2 1 0.0495515 0.0260915 0.00465831 0.00622818 0.000965673 0.00652255 0.00212234 0.0217583 0.00178287 0.0104396 0.002328 0.0267243 0.0021828 0.0206072 0.00358319 0.0343829 0.00369433 0.0272779 0.00486255 0.042759
98 3 O 2.80067 19.8752 55.6656 -1.2 1 0.0433556 0.0251387 0.00556121 0.00606136 0.00132664 0.00627396 0.00270875 0.023138 0.00208086 0.0102466 0.0022594 0.0264454 0.00268595 0.0206784 0.00347264 0.0343113 0.00361703 0.0277485 0.0056486 0.0441709
99 1 Mg -0.126194 18.8651 52.2079 1.2 1 0.115085 0.0414548 0.00131209 0.00893343 0.00199801 0.00988954 0.00239346 0.0243295 0.00237828 0.0138955 0.00264989 0.0287952 0.00291591 0.0229695 0.00427478 0.0347361 0.00395157 0.0295858 0.00654942 0.0397788
100 1 Mg 1.92402 18.5815 49.4545 1.2 1 0.18451 0.0525004 0.00603628 0.011715 0.00157539 0.0153019 0.00406852 0.0262212 0.00424773 0.0186584 0.00367511 0.0303725 0.00454247 0.0267017 0.00537122 0.0366324 0.00663154 0.0330107 0.00839458 0.0381782
101 2 Si 1.38106 20.9117 51.2443 2.4 1 0.143921 0.0460528 0.00190727 0.0100463 0.0014406 0.0129469 0.00354411 0.0250977 0.00344788 0.0156507 0.0043981 0.0284388 0.00393298 0.0244333 0.00594357 0.0347351 0.00441015 0.0312012 0.00809936 0.039579
102 3 O 1.48527 22.4795 51.3054 -1.2 1 0.143067 0.0440904 0.00260497 0.00957893 0.00122807 0.0128667 0.00301065 0.0245813 0.0036058 0.0151942 0.0033753 0.0292962 0.00355463 0.0235728 0.00534691 0.0349312 0.00461794 0.0306544 0.00713323 0.0396976
103 3 O 1.5241 19.9015 57.8735 -1.2 1 0.0151268 0.0129609 0.00396618 0.00617307 0.00147034 0.00598723 0.0013533 0.0221797 0.00188348 0.00926386 0.00208155 0.026814 0.00253628 0.0191816 0.00277012 0.032492 0.00333259 0.0263521 0.004294 0.0438405
104 3 O 0.0615419 20.2804 50.6669 -1.2 1 0.156973 0.0468964 0.0039024 0.0112363 0.00286717 0.0135153 0.00381109 0.0256368 0.0034155 0.0161864 0.00287857 0.0291082 0.00382904 0.0252909 0.00522958 0.0351052 0.00406493 0.0317933 0.00747748 0.039126
105 1 Mg -3.09665 18.8643 52.3122 1.2 1 0.122038 0.0409756 0.00114544 0.00842079 0.00145234 0.0116309 0.00261326 0.0247639 0.00261543 0.0145079 0.00265515 0.0288693 0.00297647 0.0235351 0.00326384 0.0342834 0.00450584 0.0293332 0.00609515 0.0393817
106 3 O 2.61548 20.2646 50.4626 -1.2 1 0.160123 0.0484392 0.00394149 0.0105246 0.00150625 0.0142007 0.0036118 0.0257672 0.00382994 0.0173838 0.00347803 0.0292 0.00356685 0.025589 0.00544527 0.035501 0.00488762 0.0313073 0.00765028 0.0389579
107 1 Mg -1.51775 19.0565 55.0889 1.2 1 0.0536144 0.0279493 0.00494717 0.00672716 0.00156651 0.00649659 0.00204398 0.0232989 0.00263623 0.0109173 0.00283605 0.027579 0.00232314 0.0211264 0.00404182 0.0339779 0.00437406 0.0276834 0.00548688 0.0434248
108 2 Si -1.64606 16.8847 53.31 2.4 1 0.0952703 0.036198 0.00238174 0.00763065 0.00234261 0.00865755 0.00171117 0.0234833 0.00274914 0.012796 0.00271089 0.0279474 0.0028793 0.023091 0.00289806 0.0337623 0.00475856 0.0277571 0.00593883 0.0422219
109 3 O -1.85677 15.3617 53.2501 -1.2 1 0.0953742 0.0344941 0.00240964 0.00714242 0.00213953 0.00853106 0.00199147 0.0223356 0.00256944 0.0116365 0.00280824 0.027708 0.00250071 0.0220401 0.00426531 0.0332856 0.00410561 0.0268154 0.00681836 0.0423629
110 3 O -1.12868 18.1227 46.4249 -1.2 1 0.269945 0.0526391 0.0197802 0.0202456 0.00526213 0.0244413 0.00540322 0.0317721 0.00780415 0.021466 0.00590046 0.0337393 0.00692203 0.0265852 0.00928279 0.0384068 0.0118474 0.0371282 0.0115565 0.0378324
111 3 O -2.94742 17.6506 54.0213 -1.2 1 0.0821161 0.0328189 0.00297978 0.00654625 0.00182993 0.00887071 0.00188801 0.0235869 0.00221644 0.0120678 0.0024524 0.0273162 0.00270684 0.0223582 0.00296416 0.0339814 0.00437617 0.0277477 0.00501382 0.0422398
112 3 O -0.352676 17.4506 53.9763 -1.2 1 0.0772236 0.0329039 0.00365084 0.00661865 0.00213638 0.00698903 0.00142962 0.0234654 0.0021845 0.0117247 0.00297084 0.0272407 0.00248088 0.0222408 0.00379933 0.0341702 0.00422096 0.028053 0.00658535 0.0418804
113 1 Mg -2.68764 25.9676 57.1208 1.2 1 0.0217462 0.0165287 0.00546231 0.00607839 0.00131338 0.00661973 0.0017097 0.0216114 0.00169623 0.00961771 0.00219758 0.0274865 0.0021189 0.0194044 0.00252051 0.0329911 0.00277371 0.0264481 0.00481881 0.0431634
114 1 Mg -1.48778 25.88 49.8402 1.2 1 0.180743 0.0490356 0.00733472 0.012741 0.00275684 0.0157389 0.00283227 0.025889 0.00450534 0.0174924 0.004589 0.0307967 0.00350169 0.025006 0.00696544 0.0347777 0.0056402 0.031705 0.00875887 0.0383865
115 2 Si -1.00491 23.3922 47.9274 2.4 1 0.234048 0.0536544 0.0145562 0.0176499 0.00410417 0.0216347 0.00396245 0.0288031 0.0074273 0.0204429 0.0049716 0.0322629 0.00557885 0.0277937 0.00669035 0.0356811 0.00868392 0.0343401 0.00979305 0.0381506
116 3 O -0.927602 24.9615 47.9909 -1.2 1 0.231487 0.0528593 0.01457 0.0173283 0.00372321 0.0209976 0.00411603 0.0284109 0.00718724 0.0200028 0.00575269 0.0318694 0.00540548 0.0271177 0.00778538 0.036147 0.00845031 0.0345884 0.00927188 0.0384031
117 3 O -1.55795 22.2588 51.7696 -1.2 1 0.134706 0.0422235 0.00190225 0.00987652 0.00257434 0.0118085 0.00188927 0.0246923 0.00241818 0.014697 0.00296039 0.0291931 0.0036474 0.0230936 0.00451802 0.0347432 0.00496928 0.0297556 0.00697966 0.0397963
118 3 O -2.17411 22.8111 48.8277 -1.2 1 0.201901 0.0524773 0.00928964 0.0144101 0.00314508 0.0175073 0.00364533 0.0280309 0.00518194 0.0195017 0.0041491 0.0313783 0.00403305 0.0263854 0.00641419 0.0360753 0.00689099 0.0337533 0.00873123 0.0376992
119 1 Mg 0.0423997 21.3296 46.8225 1.2 1 0.259261 0.0540179 0.0184118 0.020111 0.0053221 0.0254759 0.00558571 0.0315162 0.00859726 0.0222219 0.00619603 0.0337647 0.00721972 0.0282288 0.00911549 0.036476 0.00937633 0.0366286 0.0109919 0.0379539
120 3 O 0.458537 22.7495 48.3911 -1.2 1 0.215507 0.0532249 0.0112977 0.0155584 0.00328974 0.0188331 0.00302094 0.0281067 0.00605617 0.0198692 0.00359712 0.0313057 0.00483307 0.0280648 0.00613448 0.0356682 0.00782797 0.0351049 0.00904212 0.0386097