ITEM: TIMESTEP
50000
ITEM: NUMBER OF ATOMS
10500
ITEM: BOX BOUNDS xy xz yz pp pp pp
0	8.9688	2.9896
0	118.725	0
0	252.977	0
ITEM: ATOMS id type element xu yu zu q Q_1 Q_2 Q_3 Q_4 Q_5 Q_6 Q_7 Q_8 Q_9 Q_10 Q_11 Q_12 Q_13 Q_14 Q_15 Q_16 Q_17 Q_18 Q_19 Q_20 Q_21
1 1 Mg -3.26665 6.99611 57.3707 1.2 1 0.0226293 0.0159285 0.00509533 0.00483781 0.00121156 0.00638441 0.00134835 0.020584 0.00159745 0.00907501 0.00156751 0.0259154 0.00209798 0.0180871 0.0024433 0.0320284 0.00258297 0.0254143 0.00386042 0.0458976
2 1 Mg -1.82655 6.90154 50.0912 1.2 1 0.179411 0.0469612 0.00648613 0.0100508 0.0031787 0.00869002 0.00446658 0.0219315 0.00417796 0.0147147 0.00489917 0.024389 0.00431202 0.0210163 0.00678076 0.0284281 0.00558769 0.0253319 0.00934994 0.032941
3 2 Si -0.257935 3.96038 48.0876 2.4 1 0.224324 0.0511518 0.0105492 0.0127883 0.0026726 0.00966886 0.00374853 0.020096 0.00546054 0.0165991 0.0040165 0.0239485 0.00539068 0.0212924 0.00488231 0.0260718 0.00666917 0.0245796 0.00816138 0.0310656
4 3 O -0.335812 5.46814 47.6264 -1.2 1 0.233011 0.0512834 0.0126683 0.0140742 0.00342853 0.0105637 0.0047749 0.0209658 0.00639856 0.0172492 0.00445406 0.024638 0.00486631 0.0214263 0.00509759 0.026141 0.00701838 0.0253312 0.00898752 0.0298112
5 3 O -2.03793 3.43377 51.8941 -1.2 1 0.131253 0.0398655 0.00263821 0.00730087 0.00182412 0.00672726 0.00260761 0.019852 0.00279028 0.0112207 0.0034204 0.0245732 0.00365442 0.0184422 0.00423281 0.028062 0.00519488 0.0232192 0.00788725 0.0360701
6 3 O -1.54015 3.53929 48.9521 -1.2 1 0.205185 0.0500424 0.00814911 0.0114692 0.00261381 0.0083717 0.00377122 0.0199387 0.00482416 0.0150515 0.00424362 0.0232963 0.00444556 0.0208347 0.00541382 0.0268468 0.0053064 0.0238272 0.00830159 0.0311359
7 1 Mg 1.82954 2.54582 47.1376 1.2 1 0.246196 0.0509484 0.0148276 0.0158002 0.00286255 0.0109073 0.00367407 0.0199775 0.00529164 0.0154199 0.00445128 0.0238699 0.00606196 0.0202038 0.00682106 0.0249369 0.00645176 0.0232435 0.0085881 0.029993
8 3 O 1.22989 3.66364 48.7877 -1.2 1 0.207304 0.0483678 0.00843187 0.0123304 0.00203306 0.009721 0.00379236 0.0195834 0.00369205 0.0149235 0.00366193 0.0230695 0.00467834 0.0203112 0.00586455 0.0261503 0.00449104 0.0238324 0.00879816 0.0316047
9 1 Mg 1.05771 2.30373 54.5333 1.2 1 0.0708442 0.0285551 0.00496922 0.00499589 0.00158208 0.00546159 0.00254069 0.0201041 0.0027674 0.00961388 0.00272904 0.0254548 0.00384181 0.019529 0.00442277 0.0307132 0.00308843 0.0236231 0.00712479 0.0418025
10 2 Si 1.14867 4.95009 56.6365 2.4 1 0.0311261 0.0187749 0.00551064 0.00495298 0.00137148 0.00655084 0.00170239 0.0205926 0.00191425 0.0086002 0.00266944 0.0254657 0.00224088 0.0186604 0.00321453 0.0314297 0.00333285 0.0253138 0.00514316 0.0465192
11 3 O 1.08174 3.31695 56.7985 -1.2 1 0.0259449 0.016699 0.00541929 0.00544757 0.0014595 0.00658076 0.00234383 0.0205541 0.00241111 0.0083798 0.00202085 0.0260827 0.00275188 0.0188305 0.00330616 0.0318287 0.00341407 0.0260272 0.00477113 0.0471236
12 3 O 1.10813 6.07342 52.8172 -1.2 1 0.106667 0.0357418 0.00261311 0.00621229 0.00233009 0.00690292 0.00329669 0.0209445 0.00297492 0.0110162 0.0029449 0.0244817 0.00386047 0.0188276 0.00470139 0.0298077 0.00406614 0.0247354 0.00701586 0.0386808
13 3 O -0.0358659 5.59078 55.8321 -1.2 1 0.0441802 0.0235811 0.00590599 0.00452826 0.00127157 0.00562622 0.00223398 0.0202392 0.00212563 0.00874878 0.00265112 0.0255312 0.00259353 0.0183031 0.00398154 0.0318727 0.00296658 0.0249475 0.00546502 0.0442696
14 3 O 2.43027 5.51147 55.955 -1.2 1 0.0410034 0.0225983 0.00611556 0.00422675 0.000961049 0.00627817 0.0020582 0.0208296 0.00176162 0.00882204 0.00231191 0.0254098 0.0032829 0.018678 0.00466119 0.032095 0.00288516 0.0257414 0.00532604 0.0449262
15 1 Mg -0.459401 4.67631 52.2426 1.2 1 0.124974 0.0395245 0.0027564 0.00689228 0.00215383 0.00651566 0.00248807 0.0204223 0.00304738 0.0119038 0.00293468 0.0248924 0.00409057 0.019254 0.00495788 0.028982 0.00414844 0.0236235 0.00730905 0.0357519
16 1 Mg 2.79456 3.9971 49.9987 1.2 1 0.177745 0.048027 0.00521482 0.0101909 0.00255638 0.00804999 0.00434032 0.020318 0.00312021 0.0145599 0.00296158 0.0237105 0.00445385 0.0206723 0.00606985 0.0274251 0.00402273 0.0239276 0.00894298 0.0322815
17 2 Si 1.16169 6.59457 51.2556 2.4 1 0.147366 0.0443914 0.0030442 0.00833986 0.00262753 0.00835203 0.00377972 0.0212841 0.00373274 0.0131215 0.00439639 0.0239122 0.00378918 0.0205988 0.00551455 0.0295387 0.00466131 0.0253231 0.00878307 0.0355954
18 3 O 1.28989 8.18905 51.2909 -1.2 1 0.14616 0.0437788 0.0033183 0.00830689 0.00248897 0.00929048 0.00389271 0.021667 0.00354461 0.0129587 0.00357862 0.0252728 0.00392089 0.0204305 0.00506515 0.0299816 0.00529283 0.0260172 0.0083148 0.037165
19 3 O 1.22979 5.71007 58.1526 -1.2 1 0.0153093 0.0124159 0.00394008 0.00477037 0.00130609 0.00669192 0.00107962 0.0209026 0.0010197 0.00811861 0.001867 0.0257678 0.00199732 0.0188725 0.00258341 0.0325171 0.002177 0.0263594 0.00323965 0.0475353
20 3 O -0.184847 6.06029 50.6845 -1.2 1 0.164354 0.0444307 0.00504397 0.00928062 0.00336268 0.0080924 0.00408063 0.0212808 0.00420952 0.0135448 0.00348142 0.0238723 0.00369578 0.0202716 0.00561299 0.0277346 0.00479526 0.024694 0.00881787 0.0346512
21 1 Mg -3.49704 4.67769 52.6661 1.2 1 0.115996 0.0370401 0.00230255 0.00655341 0.00217623 0.00692876 0.00294861 0.0197371 0.00333239 0.0110297 0.00373005 0.0246408 0.00342142 0.0189426 0.0042515 0.0285261 0.00381374 0.0233109 0.0077205 0.0371839
22 3 O 2.48581 5.93312 50.6539 -1.2 1 0.159755 0.0455509 0.00368885 0.00843842 0.00185727 0.00885058 0.00421839 0.0208446 0.00353088 0.0137338 0.00437811 0.0237375 0.00413474 0.020948 0.00625446 0.028747 0.00426671 0.0250832 0.00902735 0.0339968
23 1 Mg -1.78307 4.61381 55.3847 1.2 1 0.0499076 0.0254793 0.00588784 0.00445034 0.00151303 0.00559419 0.00229869 0.0207811 0.00263989 0.00903677 0.00299541 0.0258764 0.0026874 0.0193075 0.00416408 0.0309566 0.00358056 0.0247717 0.0060333 0.0433997
24 2 Si -1.9723 2.5704 53.3757 2.4 1 0.100023 0.0342308 0.00297882 0.00616646 0.00190685 0.00611788 0.00188197 0.0202979 0.00264874 0.0104056 0.00318479 0.0245949 0.00305007 0.01891 0.00406395 0.0292065 0.00416324 0.0231673 0.00746165 0.0393838
25 3 O -2.06334 1.06345 53.2694 -1.2 1 0.0990593 0.033926 0.00274004 0.00629587 0.0027277 0.00569345 0.00170562 0.0199319 0.00262352 0.0100545 0.00284767 0.0256754 0.00324003 0.01872 0.00431123 0.0290013 0.00364296 0.0226383 0.0073476 0.0393924
26 3 O -0.0467762 2.97103 46.8385 -1.2 1 0.251317 0.0512566 0.0149743 0.0153522 0.00312995 0.00962307 0.00369489 0.0198711 0.00597517 0.0165215 0.00546643 0.0239651 0.00639957 0.0197029 0.00697792 0.024788 0.00658998 0.0236069 0.00904919 0.0309372
27 3 O -3.21906 3.26557 54.0354 -1.2 1 0.0827622 0.0313672 0.0037447 0.00489959 0.00189626 0.00600526 0.00222417 0.0203204 0.002816 0.0101415 0.00281048 0.0246534 0.00299576 0.0193561 0.0031745 0.0296662 0.00383654 0.0234808 0.00626055 0.0401937
28 3 O -0.781918 3.26248 54.1698 -1.2 1 0.0808505 0.0313947 0.00358816 0.00493477 0.00161903 0.0059577 0.00165366 0.0204435 0.00238083 0.010007 0.00239587 0.0249677 0.00341036 0.0194276 0.00319692 0.0298008 0.00297843 0.023901 0.00623855 0.0401737
29 1 Mg -3.19078 11.8922 57.4547 1.2 1 0.0214156 0.0165655 0.00460295 0.00471096 0.00137226 0.00610796 0.00103078 0.0213644 0.00236388 0.00896902 0.00220535 0.0260661 0.00223678 0.0184073 0.00254833 0.031149 0.00263792 0.0259189 0.00382142 0.0455455
30 1 Mg -1.75014 11.5838 49.8362 1.2 1 0.184727 0.0480968 0.00777647 0.011648 0.00416686 0.0127831 0.00421353 0.0242933 0.00522585 0.0153362 0.00507941 0.0276859 0.00378911 0.0230288 0.00755708 0.0324925 0.0068829 0.0287165 0.00963019 0.0364261
31 2 Si -1.18003 9.02138 47.9309 2.4 1 0.239019 0.0514201 0.014917 0.0151763 0.0049651 0.01323 0.0075624 0.0233852 0.00789856 0.0171739 0.00667935 0.0256026 0.00471058 0.0226418 0.00688785 0.0299343 0.00878163 0.0281487 0.0111548 0.0328478
32 3 O -1.23224 10.5991 47.9811 -1.2 1 0.230289 0.0529245 0.0135376 0.0151915 0.00510664 0.0145587 0.00626816 0.0246467 0.00822562 0.0173252 0.00699951 0.0271075 0.00492803 0.0234637 0.00832218 0.0323313 0.00923302 0.030235 0.0102124 0.0335886
33 3 O -1.79016 8.01447 51.8693 -1.2 1 0.133463 0.0405448 0.00272943 0.00793396 0.00340735 0.00764987 0.0032289 0.0214277 0.00305054 0.0120926 0.00353902 0.0253042 0.00381699 0.019783 0.00507603 0.0298615 0.005599 0.0251672 0.00898291 0.0378045
34 3 O -2.30986 8.37215 48.8528 -1.2 1 0.204421 0.0513116 0.00926922 0.0118915 0.00402061 0.0106271 0.00610183 0.0229441 0.00565085 0.0167133 0.00519728 0.0252851 0.00429125 0.0222438 0.00637687 0.0306797 0.00694774 0.027044 0.00965921 0.0329369
35 1 Mg 0.154883 7.08234 46.8007 1.2 1 0.257744 0.0518827 0.0173284 0.0162146 0.00557128 0.0136535 0.00834978 0.0235619 0.0078264 0.0175677 0.00719192 0.0247084 0.00707001 0.0220187 0.00831083 0.02816 0.00918374 0.0278772 0.0122122 0.0302811
36 3 O 0.325447 8.50934 48.3809 -1.2 1 0.22081 0.0530685 0.0112128 0.0139809 0.00370291 0.0122076 0.00652452 0.0239073 0.00669823 0.0171353 0.0059131 0.0252307 0.00499161 0.0237375 0.0060239 0.0296467 0.00740903 0.0280788 0.0101624 0.0325076
37 1 Mg 1.23015 7.0358 54.6999 1.2 1 0.066896 0.0293197 0.00462074 0.00521513 0.00167329 0.00632007 0.00257156 0.0202139 0.00234753 0.00986747 0.00289541 0.0250569 0.00328994 0.0189784 0.00386574 0.0321231 0.00360921 0.0245886 0.00654001 0.0423492
38 2 Si 1.34454 9.7096 56.4235 2.4 1 0.0333458 0.0208335 0.00615015 0.00560807 0.00144356 0.00657153 0.00226382 0.020989 0.00225278 0.00837097 0.00300929 0.0248114 0.0027118 0.0191069 0.00422804 0.0315336 0.00276811 0.0256641 0.00549389 0.0457331
39 3 O 1.15864 8.22803 56.5256 -1.2 1 0.0313662 0.0198502 0.00594878 0.00523547 0.00111275 0.00625462 0.00169374 0.0208777 0.00226198 0.00802018 0.00207254 0.0251893 0.00301539 0.0181415 0.0031238 0.0318035 0.00338535 0.0259124 0.00478178 0.0459629
40 3 O 1.28624 10.7248 52.7351 -1.2 1 0.113487 0.038432 0.00160666 0.00682212 0.00210866 0.00968858 0.00277468 0.0218747 0.00307731 0.0114644 0.00369244 0.0256644 0.00417993 0.0201323 0.00510934 0.0311448 0.00449516 0.0267667 0.00726609 0.0402376
41 3 O 0.138332 10.6128 55.8431 -1.2 1 0.0471138 0.0254473 0.00508428 0.00520158 0.00103307 0.00652103 0.00196382 0.0210611 0.00208707 0.00876539 0.00256567 0.0246888 0.0030789 0.0192733 0.00447059 0.0317353 0.00314355 0.0260674 0.0052824 0.0441176
42 3 O 2.66202 10.4756 55.8206 -1.2 1 0.042445 0.0247619 0.0062577 0.00504267 0.00139069 0.00623231 0.00257616 0.0214803 0.0023845 0.00882431 0.00288305 0.0251252 0.00272072 0.0189241 0.00403623 0.0320657 0.00301533 0.0270343 0.00581624 0.0456277
43 1 Mg -0.262694 9.34741 52.2523 1.2 1 0.115969 0.0407432 0.00207718 0.00738099 0.00270063 0.00809395 0.00254047 0.0219551 0.0028215 0.0118073 0.00331868 0.0258887 0.00399705 0.0198765 0.00554939 0.0310214 0.00432281 0.0265013 0.00808196 0.0385571
44 1 Mg 1.87648 9.01537 49.4629 1.2 1 0.187236 0.0518002 0.00601101 0.0108332 0.00263252 0.011203 0.00619587 0.0233326 0.00511248 0.0160885 0.0051382 0.025908 0.00454809 0.0230037 0.00638223 0.0307146 0.00549646 0.0279916 0.00988354 0.0340263
45 2 Si 1.21415 11.3799 51.2378 2.4 1 0.147948 0.0462198 0.00269814 0.00922435 0.00263761 0.0112398 0.00335767 0.0234938 0.00405608 0.0139589 0.00469544 0.026449 0.00415852 0.0226895 0.00591054 0.0317977 0.00487517 0.0284558 0.00890365 0.0392807
46 3 O 1.31634 12.9512 51.3023 -1.2 1 0.146973 0.0445678 0.00338222 0.00890759 0.00205532 0.0117802 0.00300231 0.024318 0.0044205 0.0138885 0.0037385 0.0281397 0.00386307 0.0226801 0.00506372 0.0325775 0.00497803 0.0288434 0.00789707 0.0401698
47 3 O 1.34328 10.3276 57.9789 -1.2 1 0.0164096 0.0136778 0.00424593 0.00491033 0.0011201 0.00641197 0.00141612 0.0212335 0.0019682 0.00821509 0.00249795 0.0250168 0.0029902 0.0185769 0.00309691 0.0314736 0.00231229 0.0258603 0.00416373 0.0463195
48 3 O -0.115718 10.7564 50.681 -1.2 1 0.157705 0.0466247 0.00434347 0.0099605 0.00332133 0.0109381 0.00358685 0.0234242 0.00418119 0.0139502 0.00350791 0.0263921 0.00432502 0.0223691 0.0057259 0.0311271 0.00550708 0.0277751 0.00918677 0.037807
49 1 Mg -3.26386 9.35564 52.3622 1.2 1 0.124945 0.0402366 0.00180466 0.00694286 0.00234364 0.00955536 0.0033881 0.0218841 0.00334408 0.0122317 0.00394776 0.0254587 0.00328806 0.0200118 0.00509751 0.030922 0.00461107 0.0265586 0.0082691 0.0374329
50 3 O 2.45216 10.7265 50.4558 -1.2 1 0.164679 0.0482431 0.00451023 0.00929319 0.00271729 0.011677 0.0047167 0.0232588 0.00461187 0.0150523 0.00438879 0.0264403 0.00343162 0.022822 0.00663519 0.0317079 0.00568039 0.0282941 0.00940854 0.0374257
51 1 Mg -1.59379 9.34726 55.126 1.2 1 0.0561518 0.0282689 0.00528571 0.00545192 0.00193076 0.00639692 0.00266452 0.0213219 0.00258034 0.0090717 0.00268756 0.0249544 0.00296433 0.0191561 0.00370298 0.0315612 0.00357207 0.0262179 0.0058392 0.0435538
52 2 Si -1.64295 7.32059 53.3579 2.4 1 0.0959679 0.0351716 0.00289908 0.00585073 0.0028358 0.00688485 0.00316146 0.0207251 0.00365835 0.0108164 0.00279484 0.0246284 0.00353682 0.0194319 0.00377939 0.0301755 0.00430717 0.0246248 0.0067133 0.039857
53 3 O -1.83264 5.78484 53.3909 -1.2 1 0.097046 0.0335977 0.00258336 0.00558683 0.0023024 0.00661997 0.0022494 0.0201162 0.00315556 0.0100455 0.00337579 0.0244879 0.0028226 0.01862 0.00433721 0.0305211 0.00351394 0.0243614 0.00723983 0.0392061
54 3 O -1.19417 8.46968 46.4488 -1.2 1 0.269596 0.0528081 0.0199938 0.0178914 0.00565004 0.0148021 0.00857765 0.024799 0.00836549 0.0174319 0.00739243 0.0253734 0.00613424 0.0214855 0.00893492 0.0297903 0.00991399 0.0292948 0.0110529 0.030111
55 3 O -2.88131 7.99241 54.0592 -1.2 1 0.0846533 0.0322075 0.00319034 0.00530294 0.00229516 0.00705201 0.00254388 0.0202333 0.00258003 0.010212 0.00252847 0.0246474 0.00354534 0.018977 0.00367168 0.0312608 0.00417083 0.0249064 0.00703568 0.0406222
56 3 O -0.269456 8.04519 53.9532 -1.2 1 0.0804242 0.0329204 0.00415649 0.00533678 0.00249563 0.00625086 0.00212175 0.0212468 0.00249957 0.0101867 0.00225942 0.0243502 0.00313398 0.0195786 0.00357402 0.0311276 0.00395408 0.0256724 0.0063522 0.0413189
57 1 Mg -2.95539 16.5547 57.4372 1.2 1 0.0218774 0.0160336 0.00463234 0.00512696 0.00143044 0.00608169 0.00129271 0.0225433 0.00205693 0.00861297 0.00135158 0.0268901 0.00191858 0.0183934 0.00282439 0.0306418 0.00261333 0.0258765 0.00294962 0.0454832
58 1 Mg -1.6714 16.3544 49.8412 1.2 1 0.179473 0.0485539 0.007388 0.0121362 0.00322337 0.0150196 0.00263957 0.0258806 0.00478269 0.0168962 0.0045591 0.031395 0.00331157 0.0248067 0.00657974 0.0343713 0.00552523 0.0307729 0.00847839 0.0390762
59 2 Si -1.18567 13.8526 47.9314 2.4 1 0.234466 0.0545736 0.0155098 0.0162959 0.00486855 0.0184047 0.00487295 0.0276055 0.00894393 0.0191372 0.00614623 0.0310906 0.00541705 0.0274201 0.00639081 0.0346154 0.00940235 0.0325931 0.0106172 0.0368825
60 3 O -1.09664 15.4205 47.9915 -1.2 1 0.233172 0.0535874 0.0151639 0.0169334 0.00511871 0.0198178 0.00452358 0.0281341 0.00789818 0.0192261 0.00600269 0.0314138 0.00541772 0.0271892 0.00770643 0.0350713 0.00818168 0.033945 0.00998111 0.037492
61 3 O -1.73493 12.7491 51.7772 -1.2 1 0.13615 0.0423427 0.00305292 0.00891653 0.00323823 0.0100523 0.00156031 0.0238074 0.00362205 0.0131987 0.00326504 0.0277623 0.00391884 0.0219583 0.00496968 0.0317095 0.00477956 0.0276691 0.00785562 0.0405211
62 3 O -2.36115 13.2717 48.8238 -1.2 1 0.206174 0.053371 0.00997778 0.013591 0.00477497 0.0147742 0.00430345 0.0267794 0.00634204 0.0185988 0.00496922 0.0300743 0.00418766 0.0258285 0.00569154 0.0343051 0.00783077 0.0317199 0.00959948 0.036571
63 1 Mg -0.159928 11.7639 46.8533 1.2 1 0.26149 0.054227 0.0190018 0.0185572 0.00608552 0.0201494 0.00724047 0.0286603 0.00963915 0.0193393 0.00735743 0.0300418 0.00621627 0.0267267 0.00839171 0.0334659 0.0105483 0.0333027 0.0121416 0.034486
64 3 O 0.2623 13.1866 48.413 -1.2 1 0.21626 0.0538321 0.0120475 0.0146246 0.00402137 0.016328 0.00418966 0.0271452 0.00743581 0.0179796 0.00480808 0.0293669 0.00444372 0.0270439 0.00528301 0.0334238 0.00803207 0.0328222 0.00973367 0.0369285
65 1 Mg 1.26941 11.8483 54.7823 1.2 1 0.0658997 0.0312501 0.00409942 0.00538411 0.00159245 0.0063119 0.00227216 0.0211557 0.00273162 0.00984529 0.00209132 0.026085 0.00338158 0.0200014 0.0037341 0.0319512 0.00393846 0.0258656 0.00561518 0.0430742
66 2 Si 1.42782 14.59 56.4113 2.4 1 0.0325668 0.0211967 0.00502144 0.00590429 0.00111323 0.00601575 0.00222411 0.0221431 0.00233616 0.00847667 0.00345455 0.026059 0.00271703 0.0194694 0.00416496 0.0306731 0.00303496 0.0257058 0.00501977 0.0463516
67 3 O 1.27788 12.9386 56.5146 -1.2 1 0.0297048 0.0199403 0.00527097 0.0052069 0.00127196 0.00584212 0.00215963 0.0216433 0.00297767 0.00804093 0.00214956 0.0259256 0.00255602 0.018314 0.00347582 0.0311837 0.00325895 0.0262136 0.00462624 0.046001
68 3 O 1.36565 15.4813 52.729 -1.2 1 0.11178 0.038611 0.000985908 0.00744408 0.00171992 0.010797 0.00279438 0.0242856 0.00289614 0.0126437 0.00369095 0.0287752 0.0034965 0.0210969 0.00503407 0.0323661 0.00359523 0.0280662 0.00668797 0.0426268
69 3 O 0.142732 15.2891 55.7687 -1.2 1 0.0477006 0.0262721 0.0045913 0.00538961 0.000952455 0.00638431 0.00212997 0.0223918 0.00199907 0.0093254 0.00273179 0.0265145 0.00261118 0.0198704 0.00362023 0.0318391 0.00340915 0.0267331 0.00487446 0.0450293
70 3 O 2.7261 15.1956 55.7413 -1.2 1 0.0442392 0.0256056 0.00567423 0.0053897 0.0012989 0.00618541 0.00238019 0.0222594 0.00210441 0.00872393 0.00258451 0.0260928 0.002828 0.0194476 0.00377013 0.0318518 0.00301762 0.0269233 0.00547938 0.0460218
71 1 Mg -0.206989 14.1049 52.2121 1.2 1 0.117828 0.0421914 0.00106578 0.00806371 0.00227727 0.0090077 0.00194252 0.0239601 0.00317729 0.0128275 0.00329602 0.028811 0.00334 0.0217646 0.00453947 0.0322048 0.00370269 0.0280184 0.00709452 0.0406697
72 1 Mg 1.82591 13.8102 49.4556 1.2 1 0.185259 0.0529604 0.00642493 0.0112587 0.00277989 0.0137798 0.00416257 0.0254681 0.00502155 0.0172838 0.00464517 0.0292206 0.00439842 0.0256541 0.00614911 0.034495 0.00629922 0.0313239 0.0097281 0.0374585
73 2 Si 1.29285 16.1518 51.2434 2.4 1 0.147057 0.0469775 0.0022902 0.00984133 0.00211843 0.0127385 0.00354282 0.0252318 0.00390699 0.015162 0.00488033 0.0290963 0.0040359 0.0240536 0.00634521 0.0331567 0.00396506 0.0305277 0.00854312 0.0409799
74 3 O 1.39496 17.7199 51.3047 -1.2 1 0.144804 0.0441456 0.00319113 0.00918903 0.00164067 0.0125623 0.00314085 0.0238892 0.00385567 0.0141812 0.00296933 0.0299717 0.00373154 0.0232065 0.00458866 0.0336349 0.00550846 0.0295533 0.00705555 0.0405213
75 3 O 1.27228 15.107 57.9817 -1.2 1 0.0157917 0.0134534 0.00345189 0.00507431 0.000760461 0.0061299 0.00134657 0.0223178 0.00161599 0.00800696 0.00246161 0.0257323 0.00232812 0.0186794 0.00245662 0.0304848 0.00233999 0.0255702 0.00341996 0.0457129
76 3 O -0.0269106 15.5178 50.6688 -1.2 1 0.157021 0.0474615 0.00445056 0.0103222 0.00304364 0.0129352 0.00296897 0.0254211 0.00406922 0.0151947 0.00308114 0.0292693 0.00393116 0.0249779 0.00565172 0.0330845 0.00424831 0.0302745 0.00788652 0.0406736
77 1 Mg -3.18391 14.1057 52.3125 1.2 1 0.124402 0.0418355 0.0019109 0.00762605 0.00188571 0.0107526 0.00249968 0.0238664 0.00326739 0.0133005 0.00308024 0.0284179 0.00348784 0.0222481 0.00466924 0.0319954 0.00423438 0.0280221 0.00676824 0.0404057
78 3 O 2.52432 15.503 50.4579 -1.2 1 0.161615 0.0490064 0.00463857 0.00963589 0.00204089 0.013331 0.00349295 0.0251789 0.0046267 0.0166134 0.0038234 0.0294529 0.00340081 0.0252915 0.0059634 0.0337214 0.00500918 0.0303316 0.00821844 0.0398901
79 1 Mg -1.51618 14.2046 55.1538 1.2 1 0.05398 0.0287058 0.00506063 0.0055932 0.00148219 0.00556521 0.00240121 0.0222665 0.00272245 0.00964087 0.00342592 0.0268869 0.00266756 0.0197723 0.0039079 0.0319709 0.00356455 0.02664 0.00572662 0.0444158
80 2 Si -1.80829 12.1352 53.2922 2.4 1 0.0983101 0.0377686 0.00195286 0.00685656 0.00260152 0.00778353 0.00196956 0.0223052 0.00359179 0.0113421 0.00308377 0.026313 0.00345487 0.0209958 0.00388181 0.0316585 0.00433666 0.0267552 0.00650567 0.0422054
81 3 O -1.78099 10.4649 53.2053 -1.2 1 0.0972922 0.0355859 0.00251114 0.00607002 0.00281723 0.00794241 0.00185265 0.0211716 0.00281083 0.010346 0.00281483 0.0254183 0.00373139 0.0193395 0.00462171 0.0311921 0.00377224 0.026275 0.00804489 0.0413421
82 3 O -1.21337 13.3381 46.4311 -1.2 1 0.270356 0.0534761 0.0214115 0.0197171 0.00642531 0.0208847 0.00690395 0.0303987 0.00994905 0.0201667 0.00677228 0.0314299 0.00566889 0.0260242 0.00860826 0.0358053 0.0121131 0.035091 0.0119974 0.0346876
83 3 O -3.01265 12.8052 54.0406 -1.2 1 0.0842525 0.0342367 0.00201391 0.00536601 0.0018358 0.00826516 0.00150913 0.0225219 0.00277093 0.0108342 0.00260397 0.0261155 0.0031148 0.020522 0.00328603 0.0317013 0.00368635 0.0268205 0.00575156 0.0428175
84 3 O -0.44007 12.757 53.9535 -1.2 1 0.0810195 0.0344468 0.0028378 0.00582638 0.00238755 0.00598664 0.00218828 0.0228401 0.00284472 0.0104432 0.00284546 0.0265009 0.00283872 0.0206582 0.00397629 0.0320268 0.00368344 0.0267282 0.00575125 0.0431375
85 1 Mg -3.11079 21.0602 57.519 1.2 1 0.019685 0.013816 0.00450723 0.00500473 0.00129663 0.00612428 0.00124531 0.022412 0.00199312 0.00886893 0.00174987 0.0276356 0.00144598 0.0186387 0.00247925 0.0311122 0.00320999 0.0254977 0.00321853 0.0444881
86 1 Mg -1.5831 21.1217 49.8405 1.2 1 0.179022 0.0481364 0.0071605 0.0120892 0.00293525 0.0153782 0.00321164 0.0260991 0.00389724 0.0163992 0.00424959 0.0312079 0.00347919 0.0247724 0.00607928 0.034141 0.00527357 0.0312257 0.00839232 0.0384575
87 2 Si -1.09384 18.6291 47.9287 2.4 1 0.232392 0.0541037 0.0148665 0.0168367 0.00414386 0.0210058 0.00412223 0.0282583 0.00722277 0.0194381 0.00558759 0.0327938 0.00584044 0.0279142 0.0058055 0.0351569 0.00840599 0.034037 0.00978394 0.0389338
88 3 O -1.02071 20.1985 47.9911 -1.2 1 0.23197 0.053067 0.0145546 0.0170274 0.00443505 0.0211859 0.00426949 0.0279599 0.00680019 0.0194508 0.00588847 0.0322255 0.00568397 0.0274386 0.00755541 0.035522 0.00788382 0.0344537 0.0091847 0.0387911
89 3 O -1.65002 17.5002 51.771 -1.2 1 0.134601 0.0419097 0.00256903 0.00954373 0.00294983 0.0114493 0.00148794 0.0244566 0.00267728 0.0136274 0.00268962 0.0297941 0.00350409 0.0226588 0.00443993 0.0330317 0.00483976 0.0284245 0.00692037 0.0414606
90 3 O -2.26174 18.0434 48.8281 -1.2 1 0.203314 0.0530803 0.00985344 0.01381 0.00385792 0.0173428 0.00370186 0.0274584 0.00542242 0.0189251 0.00419263 0.0318457 0.00418021 0.026504 0.00576497 0.0349881 0.00632669 0.033309 0.00873693 0.0385334
91 1 Mg -0.0440435 16.5651 46.8269 1.2 1 0.258872 0.055286 0.019506 0.0191384 0.00509028 0.0246646 0.00523681 0.0314192 0.00939737 0.0212539 0.0065344 0.0340849 0.00702557 0.0287765 0.00822975 0.0356056 0.00929219 0.0364792 0.0113041 0.0384604
92 3 O 0.37001 17.9877 48.3925 -1.2 1 0.213898 0.0538405 0.0112041 0.0152056 0.00379782 0.0183573 0.00298055 0.0277717 0.0064662 0.0189971 0.00421037 0.0318824 0.0046275 0.0280813 0.00535582 0.0345199 0.00742866 0.0345738 0.00897457 0.0396199
93 1 Mg 1.41651 16.7903 54.4793 1.2 1 0.075287 0.032968 0.00322601 0.00586538 0.00168634 0.00783242 0.00289711 0.0228716 0.00262776 0.0107098 0.00270938 0.0284247 0.00313994 0.0207365 0.00332758 0.0327847 0.00344737 0.0267783 0.00535048 0.0430032
94 2 Si 1.46813 19.206 56.3551 2.4 1 0.0342437 0.0207013 0.00582371 0.00617822 0.00138316 0.00595919 0.00183358 0.0220953 0.00173714 0.00847666 0.00309022 0.0267807 0.00188155 0.0195504 0.00377071 0.0316746 0.00328376 0.0258477 0.00496417 0.0457734
95 3 O 1.52967 17.633 56.3468 -1.2 1 0.0348796 0.0213132 0.00544286 0.00593363 0.00144276 0.00557292 0.00172475 0.0219544 0.00290919 0.00848995 0.00192041 0.0268778 0.00280341 0.0188332 0.0030521 0.0317453 0.00433033 0.0257786 0.00440514 0.0459856
96 3 O 1.45147 20.239 52.7294 -1.2 1 0.110916 0.0382916 0.000837303 0.00736138 0.00115932 0.0111379 0.00288777 0.0238599 0.00252798 0.0126067 0.00325809 0.029144 0.00352078 0.0217711 0.0044382 0.0322657 0.0037637 0.0288567 0.00621653 0.0415797
97 3 O 0.16818 19.8231 55.6382 -1.2 1 0.0507338 0.0254006 0.00457635 0.00565979 0.00110636 0.00652676 0.00218505 0.0220909 0.00180771 0.00924878 0.00262264 0.0273625 0.00222018 0.0201045 0.00331874 0.0324063 0.00323443 0.026794 0.0043526 0.0444091
98 3 O 2.75696 19.8129 55.8081 -1.2 1 0.0395368 0.0229542 0.00634018 0.00541941 0.00123524 0.00603329 0.0024817 0.0225443 0.00193081 0.00865468 0.00289597 0.027199 0.00177035 0.0192615 0.00381327 0.0325579 0.00329512 0.0270153 0.00562179 0.0454886
99 1 Mg -0.126194 18.8651 52.2079 1.2 1 0.11651 0.0417022 0.00109371 0.00818699 0.00209874 0.00966306 0.00212996 0.0244055 0.00226942 0.013337 0.00306547 0.0299352 0.00305265 0.0224651 0.00396949 0.0329263 0.00397283 0.0288487 0.00719572 0.041014
100 1 Mg 1.92402 18.5815 49.4545 1.2 1 0.182962 0.0529615 0.00578678 0.0112585 0.00170166 0.0149938 0.00404778 0.0259741 0.00444109 0.018028 0.00374135 0.0310727 0.0045538 0.0261961 0.0047931 0.0349646 0.00578422 0.032574 0.00856285 0.0393805
101 2 Si 1.38106 20.9117 51.2443 2.4 1 0.14362 0.0460859 0.00195127 0.0097476 0.0019909 0.0126966 0.00333562 0.0246926 0.00359652 0.0144261 0.00483073 0.0289673 0.00378583 0.0243903 0.00586821 0.0324544 0.00396283 0.0306319 0.00816499 0.0405333
102 3 O 1.48527 22.4795 51.3054 -1.2 1 0.141695 0.0432728 0.00275822 0.00904094 0.00152385 0.012368 0.00306573 0.0240988 0.00337472 0.0140142 0.00293537 0.0295789 0.0034693 0.022895 0.00476762 0.0327116 0.00492173 0.0301162 0.00726905 0.0402241
103 3 O 1.30926 19.8628 57.9113 -1.2 1 0.0158808 0.0122953 0.00393029 0.0051749 0.00121457 0.00569656 0.00162616 0.0225766 0.0015978 0.0084207 0.00264135 0.0267364 0.00189658 0.0186605 0.00258797 0.031011 0.00229886 0.0258248 0.00248811 0.0450815
104 3 O 0.0615419 20.2804 50.6669 -1.2 1 0.1568 0.0468273 0.00432546 0.010587 0.00316029 0.0133275 0.00370497 0.025269 0.00327275 0.0150224 0.00291771 0.0299604 0.00382158 0.02481 0.00498706 0.0331071 0.00402087 0.0307355 0.00775406 0.0399671
105 1 Mg -3.09665 18.8643 52.3122 1.2 1 0.123212 0.0413083 0.00131866 0.00804119 0.0015862 0.0114494 0.00244978 0.0240712 0.00233385 0.0134803 0.00279991 0.0295378 0.00290795 0.0225493 0.003379 0.0327511 0.00389311 0.0288466 0.00627594 0.0406593
106 3 O 2.61548 20.2646 50.4626 -1.2 1 0.160756 0.0489645 0.0040418 0.00986133 0.00138732 0.0139606 0.00339924 0.0254316 0.00338972 0.016367 0.00312549 0.0300557 0.00365552 0.0252029 0.00440625 0.0334322 0.00443479 0.0310073 0.00741139 0.0397185
107 1 Mg -1.54325 18.9172 55.0688 1.2 1 0.0567229 0.0287413 0.00485485 0.00577953 0.00180596 0.00627189 0.00226955 0.0231286 0.00217795 0.00974926 0.00316913 0.0280224 0.00190068 0.0205296 0.00389431 0.0323083 0.00426679 0.0270659 0.00569334 0.044437
108 2 Si -1.62538 16.8891 53.2143 2.4 1 0.100031 0.0374082 0.00178021 0.00753231 0.00250294 0.00849764 0.00162739 0.0236321 0.00303428 0.0119474 0.00284298 0.0282207 0.0031965 0.0221702 0.00358294 0.0322927 0.00477714 0.0274069 0.00601846 0.0437721
109 3 O -1.65189 15.3427 53.2074 -1.2 1 0.0972864 0.0366013 0.00166347 0.007019 0.00257919 0.00797275 0.00135322 0.0227547 0.0029198 0.011005 0.00299443 0.0279105 0.00290439 0.020769 0.00425267 0.032116 0.00370556 0.0270185 0.00688428 0.0436195
110 3 O -1.12868 18.1227 46.4249 -1.2 1 0.268975 0.0546798 0.020932 0.0203537 0.0055279 0.0244327 0.00566862 0.0320044 0.00798427 0.0209594 0.00609514 0.0342598 0.00680573 0.0270113 0.0085262 0.0374894 0.0110943 0.0374778 0.0118549 0.0387088
111 3 O -2.87016 17.5728 53.8221 -1.2 1 0.0858495 0.0341577 0.0025016 0.00596369 0.00183949 0.00853938 0.00178591 0.0233929 0.00181853 0.0111775 0.00233073 0.0279571 0.00278857 0.0213648 0.0032884 0.0325529 0.00381104 0.0274646 0.00604477 0.0429736
112 3 O -0.355666 17.6001 53.8951 -1.2 1 0.0795478 0.0337123 0.00336851 0.00607951 0.00271046 0.0065067 0.00144054 0.0234129 0.00215758 0.0104229 0.00274749 0.0274931 0.00229592 0.0210237 0.00385491 0.0330675 0.00384756 0.0277327 0.00662181 0.0434104
113 1 Mg -2.75467 25.8823 57.2195 1.2 1 0.0202592 0.0148021 0.00514471 0.00545022 0.00116361 0.0062811 0.00194586 0.0212318 0.00184984 0.0089153 0.00202589 0.0268246 0.00209496 0.0180549 0.00279166 0.0319084 0.00336617 0.0255771 0.00492279 0.0441304
114 1 Mg -1.48778 25.88 49.8402 1.2 1 0.181503 0.0482362 0.0071118 0.0126306 0.00291133 0.0156181 0.00270689 0.0254563 0.00368165 0.0165696 0.00434007 0.0304167 0.00366492 0.0250217 0.00625114 0.0335478 0.00574407 0.0313654 0.00911005 0.0384241
115 2 Si -1.00491 23.3922 47.9274 2.4 1 0.234154 0.0535967 0.0145096 0.0176809 0.00406125 0.0217904 0.00414507 0.0278478 0.00675762 0.0195545 0.00508111 0.0321097 0.00580765 0.0278917 0.00630765 0.0348234 0.00845779 0.0342414 0.0100581 0.0385983
116 3 O -0.927602 24.9615 47.9909 -1.2 1 0.232444 0.0527406 0.0143721 0.0173565 0.00391873 0.021319 0.00376362 0.0274123 0.00666094 0.0194978 0.00553825 0.0314244 0.00565341 0.0271176 0.00729586 0.0348997 0.00814476 0.0344332 0.00955498 0.0386409
117 3 O -1.55795 22.2588 51.7696 -1.2 1 0.133777 0.0415067 0.00241264 0.00946818 0.00280029 0.0118498 0.00172954 0.0241753 0.00238104 0.0132633 0.00258072 0.0294022 0.00349624 0.0225512 0.00381079 0.0326635 0.00518399 0.029172 0.00714567 0.0402453
118 3 O -2.17411 22.8111 48.8277 -1.2 1 0.205199 0.0528957 0.0093524 0.0145132 0.00312344 0.0176552 0.00380274 0.0270773 0.00463469 0.018838 0.00429278 0.0314551 0.00452805 0.026464 0.00592291 0.0344327 0.00634254 0.033536 0.00894649 0.0383222
119 1 Mg 0.0423997 21.3296 46.8225 1.2 1 0.25782 0.0540539 0.0180667 0.0200774 0.0050448 0.0256686 0.00508982 0.0312932 0.00806509 0.0216459 0.00608036 0.0341548 0.00673535 0.0285415 0.00835525 0.0355277 0.00900833 0.0368257 0.0111384 0.0389039
120 3 O 0.458537 22.7495 48.3911 -1.2 1 0.213154 0.0530887 0.0108712 0.0153326 0.0034964 0.0185074 0.00302085 0.0276618 0.0056588 0.0189385 0.00348505 0.0311182 0.00498359 0.0278673 0.00535386 0.0341065 0.00700444 0.0347293 0.00882999 0.0394942