ITEM: TIMESTEP
64900
ITEM: NUMBER OF ATOMS
10500
ITEM: BOX BOUNDS xy xz yz pp pp pp
0	8.9688	2.9896
0	118.725	0
0	252.977	0
ITEM: ATOMS id type element xu yu zu q Q_1 Q_2 Q_3 Q_4 Q_5 Q_6 Q_7 Q_8 Q_9 Q_10 Q_11 Q_12 Q_13 Q_14 Q_15 Q_16 Q_17 Q_18 Q_19 Q_20 Q_21
1 1 Mg -3.36033 7.01596 57.3812 1.2 1 0.0221285 0.0142384 0.00480436 0.00509305 0.00139012 0.00673428 0.000880328 0.0211006 0.00167823 0.009589 0.00157828 0.0254541 0.00244593 0.0187611 0.00254482 0.0314428 0.00319185 0.0248389 0.00424314 0.0416569
2 1 Mg -1.82655 6.90154 50.0912 1.2 1 0.17698 0.0464987 0.00591092 0.0106396 0.0037363 0.00905776 0.00422267 0.0222915 0.00402426 0.0144836 0.00516414 0.024259 0.0051174 0.0217952 0.00699865 0.0300914 0.00567926 0.0259784 0.00904093 0.0333595
3 2 Si -0.257935 3.96038 48.0876 2.4 1 0.224039 0.0527924 0.0119888 0.0130915 0.00302811 0.00964473 0.00390446 0.0197757 0.00527887 0.016249 0.00478554 0.0237965 0.00524706 0.021328 0.00625893 0.0268844 0.00713957 0.0246353 0.00876123 0.0308376
4 3 O -0.335812 5.46814 47.6264 -1.2 1 0.233534 0.0521314 0.0137316 0.0143717 0.00358455 0.0107247 0.00477682 0.0207472 0.00606323 0.0172249 0.00491067 0.0243246 0.00485997 0.0216763 0.00613019 0.0274537 0.00761172 0.0257225 0.00994025 0.0296205
5 3 O -2.03793 3.43377 51.8941 -1.2 1 0.128394 0.0405035 0.00216511 0.00736456 0.00142634 0.00678892 0.00279398 0.019669 0.00246276 0.0111839 0.00318043 0.0240228 0.00372711 0.0186763 0.00446946 0.0292671 0.00512793 0.0237607 0.00709643 0.0339686
6 3 O -1.54015 3.53929 48.9521 -1.2 1 0.201391 0.0507707 0.00857973 0.0118625 0.0029323 0.00849931 0.00377882 0.0198047 0.00446461 0.0147824 0.00488462 0.0231859 0.00442766 0.0206604 0.00611704 0.0272868 0.0055168 0.0246008 0.00839535 0.0301833
7 1 Mg 1.82954 2.54582 47.1376 1.2 1 0.246066 0.0524443 0.0159416 0.0162301 0.00337475 0.010549 0.00365777 0.0199574 0.00498162 0.0150183 0.00462366 0.0232786 0.00577013 0.0197176 0.00739856 0.0251801 0.00653706 0.0231869 0.00827957 0.029495
8 3 O 1.22989 3.66364 48.7877 -1.2 1 0.20603 0.050174 0.00940288 0.012813 0.00277749 0.00934997 0.0040189 0.0197237 0.00371839 0.0144179 0.00403093 0.0227715 0.00487281 0.0203037 0.00629625 0.0270323 0.00470696 0.0241323 0.00859083 0.0314674
9 1 Mg 1.28646 2.38461 54.4006 1.2 1 0.0711568 0.0298613 0.00479563 0.00445389 0.00177275 0.00600036 0.00239502 0.0202269 0.00299769 0.00987741 0.00276092 0.0240035 0.00326081 0.0200306 0.0038009 0.0310668 0.00374862 0.0234912 0.00597012 0.0375651
10 2 Si 0.896975 5.01467 56.3703 2.4 1 0.0348013 0.0195349 0.00611883 0.005027 0.00129403 0.00696974 0.00221972 0.0209812 0.00195609 0.00912999 0.0030679 0.0243205 0.00235072 0.0196238 0.00368145 0.031916 0.00387493 0.0245358 0.00551925 0.0412218
11 3 O 0.817539 3.53818 56.4744 -1.2 1 0.0351661 0.0190987 0.00570011 0.00460218 0.00137228 0.0059735 0.00192573 0.0205745 0.00304417 0.00838365 0.00235634 0.024347 0.00299606 0.0185814 0.00277977 0.0315187 0.00398401 0.0243128 0.00493744 0.040068
12 3 O 1.10813 6.07342 52.8172 -1.2 1 0.104888 0.0350227 0.0026689 0.00676807 0.00253668 0.00722129 0.00318384 0.0214595 0.00287688 0.0111739 0.00291691 0.0248545 0.00413457 0.0199299 0.00427559 0.0306853 0.00416006 0.0250601 0.0063527 0.0366696
13 3 O -0.457315 5.78203 55.8658 -1.2 1 0.0435517 0.022763 0.00585655 0.00492825 0.00129735 0.00644718 0.00259384 0.0207336 0.0022675 0.00984381 0.00249776 0.0250111 0.0026021 0.0194013 0.0037365 0.031944 0.00373975 0.0251394 0.00580194 0.0406319
14 3 O 2.27698 5.79487 55.7513 -1.2 1 0.0416108 0.0221758 0.00608033 0.00481252 0.00124225 0.00649363 0.00205543 0.0213478 0.00199281 0.00939707 0.00271993 0.025196 0.00255156 0.019659 0.00386163 0.0324711 0.00332563 0.0253603 0.00498488 0.0404371
15 1 Mg -0.459401 4.67631 52.2426 1.2 1 0.123758 0.0402437 0.00217263 0.00700643 0.00212991 0.00653687 0.00229545 0.0206737 0.00306562 0.0118918 0.00289291 0.0247866 0.00417833 0.0199322 0.00459065 0.0301357 0.00448201 0.0240415 0.00679257 0.0343241
16 1 Mg 2.79456 3.9971 49.9987 1.2 1 0.173899 0.0486344 0.00553918 0.0106991 0.00275749 0.00826493 0.00404559 0.0200741 0.00276062 0.014423 0.0033014 0.0229544 0.00442068 0.021236 0.00642863 0.0281474 0.00433995 0.0245845 0.0086653 0.0311251
17 2 Si 1.16169 6.59457 51.2556 2.4 1 0.148111 0.0443174 0.0022299 0.00923839 0.00310564 0.00876282 0.00409682 0.0215904 0.00362115 0.0135505 0.0048273 0.0241617 0.0046431 0.0217281 0.00648761 0.0311374 0.00441419 0.0257806 0.00886302 0.0351782
18 3 O 1.28989 8.18905 51.2909 -1.2 1 0.144963 0.0427093 0.00215677 0.00875848 0.00282328 0.00984646 0.00384786 0.0226679 0.00399271 0.013373 0.00416102 0.0255943 0.00379616 0.0218622 0.00489722 0.0314544 0.00496263 0.0269176 0.00794915 0.0371159
19 3 O 1.0196 5.80656 57.8696 -1.2 1 0.0158636 0.0115808 0.00396015 0.00518993 0.000969158 0.00715885 0.0013637 0.0210672 0.00196677 0.00866918 0.00277943 0.0247524 0.00252786 0.0187054 0.00325168 0.0313553 0.00328348 0.0249686 0.0041382 0.0416603
20 3 O -0.184847 6.06029 50.6845 -1.2 1 0.162651 0.044636 0.00467382 0.0099064 0.00379851 0.00836458 0.00398461 0.0212469 0.00431697 0.0135889 0.00352651 0.0240198 0.00398321 0.0209869 0.0056037 0.0295191 0.00524008 0.0252847 0.00833334 0.0343707
21 1 Mg -3.49704 4.67769 52.6661 1.2 1 0.113474 0.0372512 0.00171928 0.00629443 0.00197953 0.0071551 0.00292628 0.0202283 0.00303006 0.0113108 0.00378202 0.0244788 0.00367032 0.0198396 0.00471054 0.0299158 0.00423934 0.0239511 0.00709351 0.0349665
22 3 O 2.48581 5.93312 50.6539 -1.2 1 0.156207 0.0454121 0.00324734 0.00888682 0.00228067 0.00897118 0.00400169 0.021427 0.00368798 0.0138153 0.00415987 0.0235659 0.0045765 0.0215871 0.00573814 0.0301104 0.00455832 0.0255174 0.00833044 0.0335801
23 1 Mg -1.85232 4.70323 55.2205 1.2 1 0.0511715 0.0254924 0.00601316 0.00473311 0.00137702 0.00605312 0.00214374 0.020915 0.00227973 0.0096065 0.00267593 0.0251062 0.00230484 0.0197668 0.00347742 0.032143 0.00383559 0.02471 0.00562437 0.0395437
24 2 Si -1.82734 2.66107 53.3764 2.4 1 0.0973292 0.0343615 0.00274709 0.00581685 0.00183822 0.0064529 0.00217647 0.0203621 0.00261649 0.0106452 0.0027589 0.0238352 0.00321778 0.0196804 0.0038708 0.0303402 0.0043771 0.0239857 0.00613133 0.0358605
25 3 O -2.03513 1.17035 53.2034 -1.2 1 0.0987122 0.0353887 0.00272736 0.00586776 0.00235552 0.00599246 0.00214374 0.0198369 0.00219321 0.0101363 0.0024984 0.0239114 0.00310836 0.0191097 0.00472604 0.0296728 0.00392358 0.0233257 0.00657324 0.0354044
26 3 O -0.0467762 2.97103 46.8385 -1.2 1 0.252736 0.0530759 0.0166974 0.0155122 0.00380977 0.00992383 0.0036738 0.0197206 0.00590567 0.0163102 0.00622331 0.0231878 0.0066419 0.0195242 0.00864651 0.0253871 0.00671669 0.0236738 0.00972054 0.0305023
27 3 O -2.99069 3.32414 54.2181 -1.2 1 0.0789965 0.0307437 0.00394752 0.00465928 0.00152649 0.00640315 0.0024241 0.0203719 0.00225684 0.0103106 0.00270013 0.0238906 0.00235707 0.0197233 0.00415399 0.0306305 0.00404436 0.0237195 0.0058341 0.0366818
28 3 O -0.33201 3.34579 53.9487 -1.2 1 0.0804616 0.0319859 0.00405922 0.00480555 0.00156165 0.00644738 0.00209955 0.0207 0.00243943 0.0103796 0.00245351 0.0240064 0.00354919 0.0203864 0.00361482 0.0311854 0.00369285 0.0242477 0.00560224 0.0368145
29 1 Mg -3.49564 11.9474 57.6088 1.2 1 0.0204743 0.0143643 0.00414227 0.00538572 0.000920039 0.00674003 0.00119378 0.0214984 0.00175777 0.010038 0.00200745 0.0263059 0.00216744 0.0188032 0.00223508 0.0313667 0.00292418 0.0257602 0.00304603 0.0429586
30 1 Mg -1.75014 11.5838 49.8362 1.2 1 0.18297 0.0464835 0.00687311 0.0118664 0.00454971 0.0129959 0.00451048 0.0240385 0.00534877 0.0156829 0.00501317 0.0281168 0.00469502 0.023944 0.00639035 0.0335659 0.00654106 0.0293072 0.00938433 0.0370059
31 2 Si -1.18003 9.02138 47.9309 2.4 1 0.242395 0.0503856 0.0148768 0.0157892 0.00562747 0.0137589 0.00765624 0.0230469 0.00740586 0.0174366 0.00712767 0.0257827 0.00537961 0.0232899 0.00727747 0.0306202 0.00890155 0.0284484 0.0117771 0.033212
32 3 O -1.23224 10.5991 47.9811 -1.2 1 0.230157 0.0511413 0.0127793 0.0155705 0.00562734 0.0146549 0.00622439 0.0241572 0.00743917 0.0175 0.00709883 0.0272262 0.00554646 0.0240297 0.00820051 0.0331647 0.00919153 0.0304515 0.0112139 0.0345205
33 3 O -1.79016 8.01447 51.8693 -1.2 1 0.132862 0.039945 0.00201322 0.00849461 0.00343368 0.0079177 0.00309105 0.0218101 0.00337694 0.0125231 0.00362224 0.0254666 0.00378057 0.0209513 0.00453607 0.0313737 0.00526399 0.0258261 0.00784508 0.0371927
34 3 O -2.30986 8.37215 48.8528 -1.2 1 0.20586 0.0504828 0.00876092 0.0128693 0.00447361 0.0108193 0.00609127 0.0227727 0.00558035 0.0167877 0.00524393 0.0252963 0.00487455 0.0230387 0.00644002 0.0321156 0.00705632 0.0278185 0.0100831 0.0336639
35 1 Mg 0.154883 7.08234 46.8007 1.2 1 0.259497 0.0510079 0.0175102 0.0164922 0.00618085 0.0137834 0.00836813 0.0231977 0.00742887 0.0175229 0.00717188 0.0247427 0.00689065 0.022019 0.0087331 0.0291946 0.00993609 0.0279049 0.0126297 0.0307625
36 3 O 0.325447 8.50934 48.3809 -1.2 1 0.219405 0.0518862 0.0107985 0.0143153 0.00451878 0.0126968 0.00603908 0.023804 0.00638059 0.0171546 0.00591735 0.0253305 0.00514907 0.0242111 0.00613413 0.0308582 0.0075989 0.028715 0.0106924 0.0334937
37 1 Mg 1.19163 7.18034 54.6197 1.2 1 0.0672076 0.0283213 0.00484598 0.00551623 0.00171049 0.00678971 0.00219202 0.0210245 0.00219701 0.010478 0.00329478 0.0250025 0.00317748 0.0203476 0.00335642 0.0324755 0.00402929 0.0251542 0.00611042 0.0397845
38 2 Si 1.13833 9.7638 56.3605 2.4 1 0.0331399 0.0194236 0.00604868 0.00632965 0.00122636 0.00699213 0.00162409 0.0209834 0.00175028 0.00932009 0.00334873 0.0254447 0.00255101 0.0202637 0.00323025 0.0325584 0.00330443 0.025531 0.00488949 0.0435927
39 3 O 1.14818 8.27101 56.5055 -1.2 1 0.0316319 0.0183606 0.00570971 0.00577386 0.00108744 0.00669618 0.00137748 0.0211838 0.00261688 0.00871735 0.00162045 0.0254281 0.00280612 0.0189867 0.00260323 0.0321292 0.00404668 0.0255285 0.00409679 0.0434445
40 3 O 1.28624 10.7248 52.7351 -1.2 1 0.111864 0.0363183 0.00208674 0.00706612 0.00234649 0.0102273 0.00282093 0.0229452 0.00300861 0.0123322 0.00396651 0.0266682 0.00435617 0.0217572 0.00412234 0.0328333 0.00378151 0.027268 0.0067812 0.0400451
41 3 O -0.147933 10.4282 55.747 -1.2 1 0.0480368 0.0239272 0.00517319 0.00579966 0.00105171 0.00702626 0.00171715 0.0222994 0.00199447 0.0101678 0.00233489 0.0257782 0.00280624 0.0206136 0.0034238 0.0330407 0.002898 0.0264565 0.00492139 0.0434981
42 3 O 2.38474 10.5364 55.7466 -1.2 1 0.0437043 0.0232945 0.00583657 0.00573815 0.00114179 0.00680982 0.00161914 0.0218496 0.00177318 0.00973842 0.00244639 0.0258736 0.00281419 0.019995 0.0027334 0.0334178 0.00251452 0.0266929 0.00489728 0.043456
43 1 Mg -0.262694 9.34741 52.2523 1.2 1 0.11432 0.039225 0.00267966 0.00752839 0.0030318 0.00867934 0.00257186 0.0229665 0.00292222 0.0124414 0.00350818 0.0263208 0.00389533 0.021513 0.00477427 0.0327321 0.0040565 0.0272362 0.00748033 0.0382555
44 1 Mg 1.87648 9.01537 49.4629 1.2 1 0.187166 0.0509329 0.00537507 0.0115868 0.00333756 0.0114368 0.00590065 0.0232268 0.0049249 0.0162653 0.00496908 0.0258364 0.00494459 0.0238083 0.00611575 0.0325071 0.00527003 0.028981 0.0101165 0.0352112
45 2 Si 1.21415 11.3799 51.2378 2.4 1 0.148172 0.0448635 0.00178056 0.0095755 0.00289772 0.0117594 0.00359078 0.0237332 0.00403702 0.0146733 0.00503123 0.0267421 0.00424042 0.0239837 0.00541269 0.0334435 0.00459622 0.0292865 0.00863396 0.0395112
46 3 O 1.31634 12.9512 51.3023 -1.2 1 0.147769 0.0434953 0.00276198 0.00918562 0.00240154 0.0122348 0.00332264 0.024067 0.00449345 0.0145182 0.00382795 0.0283291 0.00460495 0.024239 0.00431284 0.0339842 0.00524526 0.0295665 0.0078555 0.0398579
47 3 O 1.13627 10.4327 57.8985 -1.2 1 0.0157624 0.0124313 0.0036414 0.00572814 0.000964567 0.00691903 0.00135837 0.0216754 0.00201808 0.00923238 0.00237338 0.0252847 0.00273728 0.0194117 0.00277846 0.0312909 0.00244736 0.0255528 0.00303083 0.0435203
48 3 O -0.115718 10.7564 50.681 -1.2 1 0.156395 0.0446819 0.00349478 0.0104072 0.00378182 0.0113037 0.00410724 0.0236235 0.00384063 0.0142105 0.00359727 0.0267964 0.00454025 0.0231065 0.00571067 0.0328831 0.00458271 0.0285559 0.00924674 0.0385352
49 1 Mg -3.26386 9.35564 52.3622 1.2 1 0.122933 0.038129 0.00126452 0.00733324 0.00226272 0.00994493 0.00335202 0.0221979 0.00344662 0.0125566 0.00392374 0.0260042 0.00348375 0.0217145 0.00439367 0.0326788 0.00430968 0.0268324 0.00712269 0.0372538
50 3 O 2.45216 10.7265 50.4558 -1.2 1 0.162563 0.0464192 0.00344071 0.00940606 0.00284154 0.0120606 0.00452616 0.0234496 0.00461291 0.0153766 0.0047815 0.0264442 0.0039932 0.0240343 0.00570252 0.0333559 0.00527143 0.028928 0.00857715 0.0376938
51 1 Mg -2.06414 9.54508 55.0722 1.2 1 0.0558105 0.0267008 0.00539736 0.00561581 0.00162154 0.00719512 0.00184671 0.0216176 0.0023761 0.00996797 0.00268328 0.0257906 0.00265313 0.0205104 0.00296679 0.0327979 0.00367865 0.0263382 0.00553451 0.042217
52 2 Si -1.69055 7.45299 53.4551 2.4 1 0.092711 0.0345608 0.00339696 0.00650306 0.00257838 0.00712071 0.002705 0.021207 0.00345689 0.0113522 0.00287966 0.0248966 0.00320525 0.0211128 0.00377269 0.0314761 0.00478469 0.0253184 0.00595032 0.0385488
53 3 O -1.87096 5.82986 53.3477 -1.2 1 0.0951911 0.0330554 0.00268673 0.00573369 0.00207722 0.00666649 0.0021457 0.0203172 0.0028916 0.010632 0.0029706 0.0243895 0.00304943 0.0200985 0.00403057 0.0316062 0.00378314 0.0246297 0.00667797 0.0370371
54 3 O -1.19417 8.46968 46.4488 -1.2 1 0.272046 0.0508503 0.0198597 0.0179446 0.00631482 0.0150514 0.00861636 0.0245133 0.00781473 0.0175362 0.00772488 0.0254467 0.00638619 0.0216632 0.0089996 0.0303899 0.0104725 0.0294626 0.0123969 0.0309642
55 3 O -3.05481 7.98884 54.0405 -1.2 1 0.0817191 0.0301082 0.00318244 0.00542722 0.00185904 0.00779709 0.00217773 0.0210465 0.00278178 0.0109683 0.00236067 0.0245847 0.0026301 0.0205449 0.00328531 0.0323487 0.00440234 0.0255885 0.00610406 0.0391298
56 3 O -0.422045 8.06914 54.0539 -1.2 1 0.0766843 0.0307026 0.00464501 0.0056356 0.00235912 0.0065788 0.0016912 0.0214732 0.00246319 0.0107477 0.00216091 0.0248267 0.00280811 0.0205293 0.0033822 0.0325714 0.00419571 0.0262385 0.00604345 0.0404667
57 1 Mg -3.29326 16.534 57.4492 1.2 1 0.021761 0.0153567 0.0044959 0.00567817 0.00130992 0.00674407 0.00143924 0.021777 0.00190635 0.0101384 0.00145838 0.0258765 0.00170972 0.0192276 0.00177375 0.0310782 0.0026356 0.0260936 0.00356659 0.0423335
58 1 Mg -1.6714 16.3544 49.8412 1.2 1 0.17933 0.0479027 0.00746526 0.0121878 0.00339561 0.0154893 0.00315262 0.0265152 0.00468902 0.0174785 0.00460909 0.0314823 0.00444013 0.0253497 0.00589437 0.0351181 0.00579777 0.0317359 0.00939111 0.0397715
59 2 Si -1.18567 13.8526 47.9314 2.4 1 0.233479 0.0529866 0.0150859 0.0165854 0.00504761 0.0183339 0.00514025 0.027198 0.00857617 0.0193419 0.00649911 0.0308025 0.00593955 0.0277028 0.00652987 0.0350961 0.00940715 0.0332567 0.0117354 0.0373674
60 3 O -1.09664 15.4205 47.9915 -1.2 1 0.231998 0.0525911 0.0150429 0.0166613 0.00518259 0.019764 0.00461989 0.0277727 0.00798441 0.0195131 0.00666911 0.0313785 0.00572192 0.0272251 0.00755838 0.0360182 0.008722 0.0341447 0.0109785 0.0382507
61 3 O -1.73493 12.7491 51.7772 -1.2 1 0.136126 0.0408768 0.00193978 0.00947068 0.0035073 0.0107422 0.00198324 0.0241364 0.00382012 0.0139782 0.00300086 0.0282838 0.00423952 0.0232661 0.00425825 0.0335834 0.00494445 0.0287936 0.0073283 0.0405736
62 3 O -2.36115 13.2717 48.8238 -1.2 1 0.203736 0.0514999 0.00952854 0.0136136 0.00490145 0.0147407 0.00463451 0.0265859 0.00601056 0.0187554 0.00497479 0.0299786 0.00496294 0.0263934 0.00585657 0.0352378 0.00726852 0.0324869 0.0102249 0.0373338
63 1 Mg -0.159928 11.7639 46.8533 1.2 1 0.260649 0.0524393 0.0187815 0.0182101 0.00632658 0.0201234 0.00724892 0.028208 0.00919945 0.0192906 0.0082073 0.0297925 0.00678409 0.0269438 0.00820341 0.0337711 0.010855 0.0336555 0.0139151 0.0354316
64 3 O 0.2623 13.1866 48.413 -1.2 1 0.213986 0.0523082 0.0114855 0.0145112 0.00451027 0.0163595 0.0044682 0.0265735 0.00713143 0.0183262 0.00522334 0.0292123 0.00517858 0.0277699 0.00532336 0.0346486 0.00783544 0.0333536 0.0107123 0.0382352
65 1 Mg 1.37765 11.8737 54.5996 1.2 1 0.0721213 0.0301677 0.00393834 0.00595202 0.00151021 0.00785509 0.00228214 0.0219906 0.00260421 0.0113866 0.0020887 0.0267765 0.00362408 0.0216835 0.00223448 0.0331557 0.00374916 0.0261124 0.00520631 0.0418395
66 2 Si 1.23617 14.4828 56.3028 2.4 1 0.0346772 0.0206738 0.00548532 0.00646152 0.00081139 0.00679959 0.00190314 0.0213369 0.00175517 0.00973128 0.00364223 0.0257271 0.00292941 0.0200202 0.00370467 0.0317664 0.00315654 0.0263519 0.00489658 0.0440655
67 3 O 1.23068 13.0269 56.3607 -1.2 1 0.0357646 0.0207546 0.00524047 0.00631991 0.000685119 0.00633223 0.00181358 0.0209558 0.00334113 0.00942395 0.00147295 0.0259584 0.00304788 0.0198977 0.00261509 0.0324867 0.00393435 0.0261852 0.00404925 0.0441063
68 3 O 1.36565 15.4813 52.729 -1.2 1 0.113065 0.0378004 0.00145149 0.00774334 0.00199349 0.01129 0.00265077 0.0236716 0.00293859 0.0135312 0.00340153 0.0282973 0.00376877 0.0226419 0.00383784 0.0336819 0.00379356 0.0291893 0.00677243 0.0420875
69 3 O -0.0718144 15.2036 55.6343 -1.2 1 0.0516294 0.0256264 0.00472871 0.00607817 0.000984948 0.00744548 0.00187445 0.0218482 0.00150441 0.0107938 0.00231373 0.0260281 0.00281769 0.0207192 0.00300214 0.03297 0.00303451 0.027733 0.00429164 0.0437879
70 3 O 2.53474 15.2542 55.6904 -1.2 1 0.0439879 0.0242556 0.00544636 0.0059691 0.000969387 0.00690077 0.00225005 0.0219812 0.00198447 0.0102216 0.00251711 0.0258481 0.00266858 0.0205057 0.00278139 0.0332847 0.00295584 0.0274862 0.00483851 0.0441746
71 1 Mg -0.206989 14.1049 52.2121 1.2 1 0.118793 0.0409334 0.00120267 0.00838866 0.00283209 0.00980696 0.00202939 0.0241395 0.00319272 0.013749 0.00326972 0.0286914 0.00354198 0.0233277 0.00387821 0.0341172 0.00384541 0.0293951 0.00718384 0.0408602
72 1 Mg 1.82591 13.8102 49.4556 1.2 1 0.18562 0.0519087 0.00609125 0.0113074 0.00312065 0.0142555 0.00435806 0.0250231 0.00516949 0.0176757 0.00506704 0.0292959 0.00480371 0.0266273 0.00567174 0.0357804 0.00621125 0.0321982 0.00988429 0.0381815
73 2 Si 1.29285 16.1518 51.2434 2.4 1 0.14684 0.0461596 0.00241936 0.00990136 0.00237805 0.0131415 0.00323512 0.02502 0.00374571 0.0159395 0.00501732 0.028985 0.00437049 0.0250944 0.00577533 0.0343475 0.00384973 0.0316793 0.00893005 0.0413052
74 3 O 1.39496 17.7199 51.3047 -1.2 1 0.145094 0.0442295 0.00284739 0.00947811 0.0021705 0.0130078 0.00309028 0.0242821 0.00419469 0.0149561 0.00300735 0.029519 0.00406583 0.0240146 0.00399645 0.0347681 0.00599705 0.0308822 0.00795325 0.0415592
75 3 O 1.19751 15.1312 57.9275 -1.2 1 0.0158469 0.0129195 0.0036827 0.00583202 0.000935077 0.00714716 0.00133729 0.0217784 0.00164574 0.00943152 0.00272467 0.0250331 0.00251102 0.0191494 0.00271082 0.0304752 0.00248037 0.0262119 0.00383717 0.0429843
76 3 O -0.0269106 15.5178 50.6688 -1.2 1 0.15686 0.0462505 0.00435551 0.0106305 0.00331473 0.0133779 0.00318561 0.025527 0.00411183 0.0157406 0.00349931 0.0294749 0.00360396 0.02563 0.00526914 0.0343788 0.00373225 0.0313014 0.00845907 0.0410284
77 1 Mg -3.18391 14.1057 52.3125 1.2 1 0.124268 0.040567 0.00147304 0.00820253 0.00209961 0.011353 0.00245793 0.0239269 0.00362111 0.0141759 0.00285856 0.0285255 0.00362601 0.0235076 0.00362733 0.0336964 0.00427767 0.0291151 0.00662319 0.0405196
78 3 O 2.52432 15.503 50.4579 -1.2 1 0.160527 0.0482717 0.00469744 0.00973543 0.00228199 0.0140056 0.0037256 0.0256335 0.00422916 0.0173963 0.00377234 0.0293142 0.00412114 0.0260235 0.00553627 0.0350575 0.00467884 0.0312904 0.00875231 0.0401348
79 1 Mg -1.74967 14.2088 55.0118 1.2 1 0.0577742 0.0283935 0.00459047 0.00623758 0.00121625 0.00727778 0.00226791 0.0222174 0.0025329 0.0113803 0.00334488 0.0264682 0.00298297 0.0212602 0.00336921 0.0333538 0.00371693 0.0279799 0.00501745 0.0431219
80 2 Si -1.66832 12.1101 53.2723 2.4 1 0.0980064 0.036189 0.00273541 0.00742691 0.00261767 0.0089012 0.00178177 0.0232073 0.00349845 0.0123598 0.00233973 0.0267525 0.00365923 0.0227274 0.00313151 0.0334624 0.00433353 0.0275847 0.00601016 0.0420769
81 3 O -1.75134 10.5256 53.2198 -1.2 1 0.0969568 0.034249 0.00306282 0.00666222 0.00260106 0.00845037 0.00165857 0.0216644 0.00301657 0.0111211 0.00267778 0.0263074 0.00327596 0.0211657 0.00361957 0.0332155 0.0042569 0.0262961 0.00663125 0.0409007
82 3 O -1.21337 13.3381 46.4311 -1.2 1 0.271878 0.0517466 0.0206686 0.0198965 0.0068039 0.020827 0.00725211 0.0303479 0.00941501 0.0203083 0.00719122 0.0313708 0.00640267 0.0266119 0.00828595 0.0358662 0.0124546 0.0355224 0.014023 0.0357069
83 3 O -2.98231 12.9291 54.0067 -1.2 1 0.0840078 0.0322652 0.0027095 0.00618008 0.00170101 0.00917974 0.00159102 0.0226274 0.00254848 0.0119968 0.00183734 0.026562 0.00288152 0.0222468 0.00278101 0.0332758 0.00385297 0.0274956 0.0054438 0.0419782
84 3 O -0.4376 12.7106 53.9567 -1.2 1 0.0803971 0.0327716 0.00355006 0.0063968 0.00246811 0.00734356 0.00164519 0.0230463 0.00283536 0.0116946 0.00259606 0.026609 0.0032612 0.0224868 0.00300101 0.0334272 0.0036283 0.0278161 0.00533515 0.0426134
85 1 Mg -3.39947 21.2496 57.6281 1.2 1 0.0213912 0.0136916 0.00387638 0.00543998 0.00125902 0.00625622 0.00156046 0.0213566 0.00209664 0.010218 0.00186535 0.0263585 0.00212914 0.0195886 0.00235497 0.0314163 0.00300185 0.0261058 0.00367581 0.0445505
86 1 Mg -1.5831 21.1217 49.8405 1.2 1 0.181116 0.0486113 0.0073765 0.0130029 0.00300042 0.0158838 0.00330618 0.0266211 0.00395154 0.0181058 0.00493711 0.0318922 0.00390675 0.0254831 0.00567898 0.0347821 0.00607353 0.0319595 0.00973832 0.0395152
87 2 Si -1.09384 18.6291 47.9287 2.4 1 0.235333 0.0549121 0.0147752 0.0174326 0.00357908 0.0211658 0.00458044 0.0291407 0.00750388 0.0204193 0.00606126 0.0332072 0.00611687 0.0285177 0.00590126 0.0359059 0.00887493 0.0346074 0.0108896 0.0395718
88 3 O -1.02071 20.1985 47.9911 -1.2 1 0.231827 0.0538926 0.0146038 0.0171923 0.00405321 0.0210774 0.00454498 0.0290091 0.00727287 0.0201634 0.00679774 0.032784 0.00544476 0.027749 0.00682217 0.0363171 0.00821624 0.0348495 0.0108074 0.0397775
89 3 O -1.65002 17.5002 51.771 -1.2 1 0.135074 0.0416488 0.00244842 0.00978105 0.00255749 0.0121297 0.00176781 0.0245937 0.00280517 0.0147922 0.00283666 0.0293643 0.00366466 0.0233177 0.00433884 0.0341206 0.00499909 0.0296972 0.00775543 0.0417218
90 3 O -2.26174 18.0434 48.8281 -1.2 1 0.20581 0.0533646 0.00961378 0.0142662 0.00348889 0.0174533 0.0039478 0.0280892 0.0056183 0.0197774 0.00464303 0.0321142 0.00454113 0.0271554 0.00541891 0.0362357 0.0071104 0.0340794 0.00962246 0.0395038
91 1 Mg -0.0440435 16.5651 46.8269 1.2 1 0.258485 0.0550503 0.0191285 0.0194664 0.00491896 0.0245443 0.00565716 0.0317905 0.00982734 0.0216933 0.00706702 0.0342022 0.007072 0.0288 0.0083475 0.0361961 0.00975151 0.036775 0.012604 0.0390853
92 3 O 0.37001 17.9877 48.3925 -1.2 1 0.214898 0.0539978 0.0112985 0.0151325 0.00369864 0.0186395 0.0032832 0.028468 0.00630499 0.0197718 0.004729 0.032174 0.00499091 0.0287893 0.00531524 0.0354512 0.00760458 0.0351806 0.0101237 0.0408552
93 1 Mg 1.24483 16.822 54.4534 1.2 1 0.0744193 0.0319006 0.00335264 0.00667583 0.0016121 0.00844716 0.00227015 0.0225424 0.00252909 0.0125989 0.00189103 0.027521 0.00329995 0.0222351 0.00293704 0.0335095 0.0037257 0.0274733 0.00502434 0.0426681
94 2 Si 1.2914 19.386 56.4748 2.4 1 0.0311807 0.0185279 0.00503287 0.00646837 0.00134131 0.00642039 0.00194764 0.0214619 0.00210921 0.00985726 0.00313903 0.0259233 0.00219837 0.020449 0.00335257 0.0315546 0.00317215 0.0261811 0.00462255 0.0455391
95 3 O 1.35456 17.7946 56.4611 -1.2 1 0.0331447 0.0198244 0.00536923 0.00633302 0.00128937 0.00623893 0.00159412 0.0213791 0.0029627 0.00966155 0.00160715 0.0261423 0.00256204 0.0196688 0.0022978 0.0321051 0.00356528 0.0265718 0.00390768 0.0447033
96 3 O 1.45147 20.239 52.7294 -1.2 1 0.110775 0.0381346 0.00159319 0.00814822 0.00183249 0.011313 0.0028338 0.0238973 0.00279144 0.0140483 0.00332819 0.0288651 0.00333795 0.0225147 0.00401267 0.0332035 0.0035432 0.0296138 0.00686072 0.0425271
97 3 O 0.105162 19.9581 55.8002 -1.2 1 0.0478658 0.0246817 0.00528954 0.00614774 0.00141845 0.00699149 0.001858 0.0217332 0.00204148 0.0107313 0.00239083 0.0261327 0.00221528 0.0208948 0.00321971 0.0327921 0.00306822 0.0276004 0.00439519 0.0446421
98 3 O 2.66909 19.9811 55.8745 -1.2 1 0.0406741 0.022767 0.0057176 0.00572125 0.00132815 0.00663662 0.00242456 0.0225227 0.00240825 0.0109115 0.0028115 0.0262456 0.00220666 0.0209025 0.00339694 0.0327463 0.00267437 0.0273648 0.00473179 0.0447154
99 1 Mg -0.126194 18.8651 52.2079 1.2 1 0.116627 0.041424 0.0013268 0.00850901 0.00236379 0.0102454 0.00215321 0.0241302 0.00297403 0.0145718 0.00278064 0.0293267 0.0034005 0.0231151 0.00362107 0.0337809 0.00442877 0.0299389 0.00725555 0.04167
100 1 Mg 1.92402 18.5815 49.4545 1.2 1 0.184783 0.0531539 0.00556708 0.0119664 0.0018294 0.0156742 0.00407929 0.0266133 0.00432104 0.0189307 0.00439438 0.0314463 0.00462588 0.0270034 0.00458736 0.0362095 0.00557564 0.0338412 0.00954579 0.0402784
101 2 Si 1.38106 20.9117 51.2443 2.4 1 0.146213 0.046905 0.00215063 0.0100361 0.0022447 0.0132083 0.00350539 0.0251403 0.00366875 0.0165164 0.0051331 0.0290994 0.0039342 0.0248107 0.00536585 0.033878 0.00437975 0.0318394 0.00914761 0.0413212
102 3 O 1.48527 22.4795 51.3054 -1.2 1 0.147921 0.044871 0.00273629 0.00967594 0.00192409 0.0132269 0.0028298 0.0246938 0.00404516 0.0161672 0.00348373 0.0297085 0.00357465 0.0245754 0.00371992 0.0338333 0.00543635 0.0309592 0.00782058 0.0408917
103 3 O 1.05099 19.9225 57.9343 -1.2 1 0.0175948 0.012751 0.00361252 0.00543627 0.00125035 0.00677975 0.0015545 0.0220522 0.00181831 0.00952403 0.00292169 0.025348 0.00216629 0.0198111 0.00252288 0.0309779 0.0028527 0.0262028 0.00390929 0.0446541
104 3 O 0.0615419 20.2804 50.6669 -1.2 1 0.156519 0.0470743 0.00433573 0.0112435 0.00330964 0.0139554 0.00392759 0.0252437 0.00376135 0.0160004 0.00341104 0.0299742 0.00366986 0.0252418 0.00464556 0.0341109 0.00439949 0.0317515 0.00876791 0.041336
105 1 Mg -3.09665 18.8643 52.3122 1.2 1 0.12401 0.0411665 0.00128338 0.00865406 0.00143693 0.0120117 0.00233501 0.0240416 0.0028211 0.0150541 0.00285897 0.0292963 0.00318018 0.0233141 0.0034662 0.033675 0.00445012 0.0297023 0.00693486 0.0412833
106 3 O 2.61548 20.2646 50.4626 -1.2 1 0.16064 0.0488718 0.00394262 0.0104497 0.00149809 0.0144772 0.00337924 0.0257103 0.00379552 0.0177194 0.00410985 0.0300757 0.00362314 0.0258779 0.00497022 0.0345148 0.00511975 0.0319441 0.00836469 0.0404564
107 1 Mg -1.65725 18.8849 55.0746 1.2 1 0.0549169 0.0277136 0.00510957 0.00610153 0.00148046 0.0072971 0.00207836 0.0225965 0.00218341 0.0116761 0.00287073 0.0270191 0.00212322 0.0215669 0.00356221 0.0329728 0.00376668 0.0278187 0.00465609 0.0442263
108 2 Si -1.70446 16.8276 53.3394 2.4 1 0.0944084 0.035837 0.00254842 0.00758341 0.00200306 0.00915874 0.00157036 0.0231957 0.00251094 0.012915 0.0024708 0.0274862 0.00276223 0.0224667 0.0032007 0.0337895 0.00422951 0.0287051 0.0060163 0.0429957
109 3 O -1.64238 15.3054 53.1516 -1.2 1 0.0981427 0.0359385 0.00242603 0.00757021 0.00230336 0.00921339 0.00147932 0.0230526 0.00294956 0.0124424 0.00285826 0.0276844 0.00288629 0.0219374 0.00381702 0.0337903 0.00336497 0.0286718 0.00678519 0.0428966
110 3 O -1.12868 18.1227 46.4249 -1.2 1 0.267597 0.0548968 0.0203521 0.0208667 0.00519985 0.0242372 0.00613855 0.0325897 0.00833915 0.0214265 0.00632334 0.034841 0.00700824 0.0271745 0.00777867 0.0377935 0.0112425 0.0375859 0.0130212 0.0392355
111 3 O -2.94319 17.5535 53.9725 -1.2 1 0.0841638 0.0332785 0.00285874 0.00657773 0.00123714 0.00943955 0.00175986 0.0231356 0.00209321 0.0128734 0.00164095 0.0274326 0.00268142 0.0223161 0.00288941 0.0334896 0.00418699 0.0280443 0.00535083 0.042809
112 3 O -0.412831 17.5683 53.9349 -1.2 1 0.0780766 0.0327439 0.00340379 0.00682281 0.00232273 0.00743688 0.00136457 0.0230256 0.00205706 0.012118 0.0020355 0.0265678 0.00259901 0.0223597 0.00323961 0.0335467 0.00385446 0.0286273 0.00558848 0.042885
113 1 Mg -3.05205 26.1791 57.4761 1.2 1 0.0225009 0.0131657 0.00497387 0.00530422 0.00125309 0.00640618 0.00150261 0.0215241 0.00239581 0.010392 0.00204735 0.0260176 0.00181675 0.0203333 0.00247105 0.0311121 0.00319672 0.0265906 0.00475513 0.0439028
114 1 Mg -1.48778 25.88 49.8402 1.2 1 0.180744 0.0482192 0.00709243 0.0130039 0.00343901 0.0159577 0.00324905 0.0267922 0.00406846 0.0186475 0.00480857 0.0312705 0.00380077 0.0259563 0.00536106 0.0340241 0.00577108 0.0314667 0.0096423 0.0395351
115 2 Si -1.00491 23.3922 47.9274 2.4 1 0.234081 0.0547687 0.0149147 0.0175667 0.00401351 0.0215486 0.00478781 0.0291969 0.00776234 0.0208928 0.00632625 0.0330385 0.00600028 0.0288644 0.00591918 0.0356234 0.00893023 0.0344247 0.0113201 0.0394725
116 3 O -0.927602 24.9615 47.9909 -1.2 1 0.231654 0.0537419 0.0145349 0.0172895 0.00432879 0.0215238 0.00444013 0.0291085 0.00737714 0.0206958 0.00685849 0.0324618 0.00552572 0.0279971 0.00706908 0.0356858 0.0085694 0.0348728 0.0113991 0.0394565
117 3 O -1.55795 22.2588 51.7696 -1.2 1 0.135196 0.0415793 0.00260931 0.00994771 0.00238488 0.0122525 0.00193983 0.0244761 0.00235308 0.0153172 0.00313609 0.029544 0.00315519 0.0234419 0.00425101 0.0330167 0.00546626 0.0297713 0.00806052 0.0410522
118 3 O -2.17411 22.8111 48.8277 -1.2 1 0.205034 0.0535041 0.0096097 0.0145328 0.00300219 0.0177307 0.00395009 0.0281112 0.00557913 0.0202984 0.00485866 0.0319821 0.00413195 0.0272472 0.00531008 0.035475 0.00706564 0.0337375 0.0100758 0.03935
119 1 Mg 0.0423997 21.3296 46.8225 1.2 1 0.259562 0.0561462 0.0191482 0.0202729 0.00474184 0.0257376 0.00624363 0.0328476 0.00869523 0.0222792 0.00718336 0.0349681 0.007013 0.0290276 0.00822539 0.036176 0.00931054 0.0370237 0.0125048 0.039651
120 3 O 0.458537 22.7495 48.3911 -1.2 1 0.218374 0.0549821 0.0116077 0.0156646 0.0037892 0.0194965 0.00356522 0.0290984 0.00639158 0.0202315 0.00527369 0.0320915 0.00517347 0.0292412 0.00566785 0.0348544 0.00782522 0.0356789 0.0106103 0.0402648