ITEM: TIMESTEP
68000
ITEM: NUMBER OF ATOMS
10500
ITEM: BOX BOUNDS xy xz yz pp pp pp
0	8.9688	2.9896
0	118.725	0
0	252.977	0
ITEM: ATOMS id type element xu yu zu q Q_1 Q_2 Q_3 Q_4 Q_5 Q_6 Q_7 Q_8 Q_9 Q_10 Q_11 Q_12 Q_13 Q_14 Q_15 Q_16 Q_17 Q_18 Q_19 Q_20 Q_21
1 1 Mg -3.56839 7.09476 57.6828 1.2 1 0.0211906 0.0141248 0.00498882 0.0066652 0.00150803 0.00772071 0.00140538 0.0190007 0.00176551 0.00964596 0.00212083 0.024768 0.00230179 0.0180866 0.00229378 0.0311146 0.00273078 0.0258558 0.00434609 0.0388282
2 1 Mg -1.82655 6.90154 50.0912 1.2 1 0.174807 0.0479408 0.00562099 0.010611 0.00354381 0.00981287 0.00398737 0.022111 0.00437919 0.0146495 0.00384915 0.0251741 0.00433589 0.0205999 0.00637998 0.0296254 0.00539035 0.0271348 0.00761334 0.032805
3 2 Si -0.257935 3.96038 48.0876 2.4 1 0.224323 0.0541955 0.0119232 0.0126536 0.00253427 0.0102985 0.00346829 0.020055 0.00574084 0.0172883 0.0047346 0.024429 0.00506722 0.0201274 0.00579266 0.0273876 0.00682047 0.0259449 0.00907513 0.0320165
4 3 O -0.335812 5.46814 47.6264 -1.2 1 0.23201 0.0532835 0.0137587 0.0136031 0.00345466 0.0113695 0.0041885 0.0208593 0.00637428 0.0178194 0.00501474 0.025071 0.00463506 0.0208037 0.00601172 0.0275789 0.00720974 0.0266114 0.0100614 0.030842
5 3 O -2.03793 3.43377 51.8941 -1.2 1 0.128725 0.0417093 0.00180184 0.00737538 0.00222524 0.00735834 0.00227545 0.0200612 0.00251944 0.0114555 0.00295194 0.024147 0.00347858 0.0176795 0.00384191 0.0288433 0.00436825 0.0250801 0.00595659 0.0341621
6 3 O -1.54015 3.53929 48.9521 -1.2 1 0.200203 0.0523268 0.00864037 0.0111395 0.00299286 0.00915566 0.00331456 0.0201157 0.0048333 0.0151865 0.00460155 0.0236781 0.00434537 0.0190731 0.00519072 0.0277763 0.00550598 0.0256482 0.0081587 0.0316543
7 1 Mg 1.82954 2.54582 47.1376 1.2 1 0.244389 0.0539533 0.0164313 0.0155091 0.00349832 0.0113835 0.00319414 0.0198762 0.00579856 0.0156141 0.00463718 0.0238144 0.005603 0.0186752 0.00692593 0.0253366 0.00648817 0.0243984 0.00924366 0.0303268
8 3 O 1.22989 3.66364 48.7877 -1.2 1 0.201958 0.0512412 0.0090136 0.0118766 0.00292403 0.00975095 0.00395309 0.0201011 0.00405728 0.0149667 0.00412968 0.0238483 0.00410652 0.0190359 0.00608938 0.0274538 0.00464754 0.0253614 0.00860531 0.0328328
9 1 Mg 0.887537 2.43827 54.5818 1.2 1 0.0691421 0.030102 0.00450348 0.00586905 0.00158177 0.00622501 0.00262135 0.0195801 0.002416 0.00939275 0.00297391 0.0242239 0.00366135 0.018614 0.00449645 0.0303061 0.00339365 0.0248446 0.00607908 0.0358049
10 2 Si 0.993529 4.94054 56.4321 2.4 1 0.0341947 0.0203044 0.00624153 0.00719422 0.00109991 0.0078795 0.0019822 0.0192472 0.00214348 0.00901906 0.00302668 0.0238254 0.00282613 0.0188014 0.00364956 0.0305445 0.00327132 0.0257893 0.00541289 0.0382172
11 3 O 0.982742 3.40742 56.5216 -1.2 1 0.0362056 0.0209248 0.00582353 0.0066379 0.00107613 0.00677041 0.00189979 0.0190221 0.00322052 0.00867947 0.00283496 0.0242096 0.00284834 0.0177954 0.00291021 0.0303035 0.00358788 0.0257931 0.00551597 0.0374829
12 3 O 1.10813 6.07342 52.8172 -1.2 1 0.107772 0.0372577 0.00251491 0.00716675 0.00252545 0.00802515 0.00290508 0.0209799 0.00300096 0.0112143 0.00276681 0.0248998 0.00400858 0.0185092 0.00437762 0.0305091 0.00389309 0.0260287 0.00594447 0.0345964
13 3 O -0.384361 5.5844 55.9333 -1.2 1 0.0420071 0.0230389 0.00635707 0.0061291 0.00125723 0.00688959 0.00196488 0.0201095 0.00208186 0.00948733 0.00255827 0.024321 0.00256923 0.0185789 0.00386768 0.0312262 0.00329744 0.0263068 0.00567536 0.0381425
14 3 O 2.216 5.75434 55.694 -1.2 1 0.0435533 0.024136 0.00657049 0.00646877 0.000987752 0.00740689 0.00193234 0.0195351 0.00194775 0.00949678 0.00258873 0.0242254 0.00280956 0.0190999 0.00422074 0.0318313 0.00313682 0.0265089 0.00622249 0.0376235
15 1 Mg -0.459401 4.67631 52.2426 1.2 1 0.123365 0.0410793 0.00182805 0.00734451 0.00241385 0.0074367 0.00225417 0.0205121 0.00261135 0.0122013 0.00256567 0.0249147 0.00401832 0.0186084 0.00441465 0.0293792 0.00410295 0.0251763 0.00601602 0.0330426
16 1 Mg 2.79456 3.9971 49.9987 1.2 1 0.175343 0.0503107 0.00492427 0.0101453 0.00329766 0.00843802 0.00407428 0.0203918 0.00341206 0.0147534 0.00273618 0.0242417 0.0041324 0.0199137 0.00665067 0.0288178 0.00410295 0.0258342 0.00867388 0.0325846
17 2 Si 1.16169 6.59457 51.2556 2.4 1 0.146277 0.0456503 0.00208522 0.00902797 0.00309438 0.00933388 0.00388593 0.0210349 0.00381218 0.0136097 0.00351424 0.0246926 0.00432644 0.0208692 0.00680979 0.0303152 0.0046092 0.0268436 0.00758822 0.0334816
18 3 O 1.28989 8.18905 51.2909 -1.2 1 0.146276 0.0454367 0.00237731 0.00955108 0.00301372 0.0103635 0.00373533 0.0215505 0.0042089 0.013323 0.00361142 0.0260521 0.00380209 0.0208681 0.0052701 0.0310958 0.00512669 0.027613 0.00749346 0.0352157
19 3 O 1.14852 5.57119 57.9121 -1.2 1 0.018216 0.0124573 0.00468865 0.00688041 0.00102154 0.0079872 0.00146639 0.0189481 0.00218839 0.00953341 0.00269895 0.0243233 0.00248781 0.0183593 0.00262252 0.030895 0.00286039 0.0263271 0.00443944 0.0386651
20 3 O -0.184847 6.06029 50.6845 -1.2 1 0.162517 0.0460365 0.00443794 0.00973747 0.00373578 0.00895128 0.00412374 0.0211115 0.00411393 0.013974 0.00288232 0.0245085 0.0042006 0.0200653 0.00542503 0.0287817 0.00461194 0.0265927 0.00740534 0.0333129
21 1 Mg -3.49704 4.67769 52.6661 1.2 1 0.115102 0.0388814 0.00178212 0.00686458 0.0020584 0.00778542 0.0027935 0.0197744 0.00312963 0.0113874 0.00320436 0.0245451 0.00356366 0.018164 0.0043444 0.0295966 0.0037064 0.0249304 0.00556495 0.0334608
22 3 O 2.48581 5.93312 50.6539 -1.2 1 0.157949 0.0477717 0.00304956 0.00887958 0.00221457 0.00991555 0.00355143 0.021272 0.00431371 0.0141056 0.00344855 0.0242726 0.00418936 0.020454 0.00559626 0.0298265 0.00453873 0.0266784 0.00719142 0.0329959
23 1 Mg -2.03937 4.80238 55.1797 1.2 1 0.0523893 0.0268885 0.00643008 0.00608984 0.00139771 0.00693091 0.00180002 0.0195091 0.00227766 0.0094512 0.00283359 0.0246523 0.00266484 0.0187818 0.00411541 0.0306154 0.00401641 0.0258606 0.00607373 0.0359785
24 2 Si -1.98847 2.7235 53.3174 2.4 1 0.101057 0.0367464 0.00258431 0.00677126 0.00286046 0.00655991 0.00190027 0.0199061 0.00216136 0.0105584 0.00264796 0.0239442 0.00316464 0.0180216 0.00353301 0.0292638 0.00394169 0.0249582 0.00637827 0.0349963
25 3 O -2.05817 1.1918 53.1779 -1.2 1 0.0986205 0.0364444 0.00219082 0.00682274 0.00306489 0.00619241 0.00230639 0.0198249 0.00209394 0.00988441 0.00261022 0.0239862 0.00344024 0.0175677 0.0046983 0.0289502 0.00377759 0.0245339 0.00583951 0.0355688
26 3 O -0.0467762 2.97103 46.8385 -1.2 1 0.251521 0.0542319 0.0170397 0.0149347 0.00317223 0.0105307 0.00354424 0.019454 0.00631204 0.0169838 0.00603961 0.0237349 0.00646466 0.0183643 0.00851217 0.0256663 0.00650268 0.0246383 0.010424 0.0312763
27 3 O -3.1442 3.32053 54.0937 -1.2 1 0.0796033 0.0319729 0.00379759 0.00556893 0.0018647 0.00664723 0.00237614 0.0193663 0.0022677 0.00998695 0.00210352 0.0237409 0.0029337 0.0180804 0.0039077 0.0297942 0.00346759 0.0248775 0.00598084 0.0347055
28 3 O -0.605029 3.46545 54.0259 -1.2 1 0.080452 0.0323288 0.00383626 0.00588403 0.00189402 0.00692369 0.00170292 0.0199596 0.0019175 0.0103033 0.00216382 0.0240096 0.00352566 0.0189165 0.00358797 0.0297306 0.00337901 0.0254798 0.00553973 0.0352624
29 1 Mg -3.03617 11.5075 57.4673 1.2 1 0.021771 0.0150373 0.00483583 0.00581614 0.000882859 0.00711654 0.000957994 0.0199841 0.00166913 0.00904041 0.00168816 0.0249005 0.0023297 0.0179398 0.00236373 0.0321892 0.00289965 0.0270669 0.00444356 0.0409995
30 1 Mg -1.75014 11.5838 49.8362 1.2 1 0.183025 0.0484199 0.00715668 0.0127447 0.00438488 0.0134484 0.00455429 0.0235638 0.00514449 0.0158379 0.00471222 0.0273948 0.00371052 0.0234966 0.00707847 0.0327984 0.00670583 0.0295436 0.00847342 0.0355396
31 2 Si -1.18003 9.02138 47.9309 2.4 1 0.2402 0.0524443 0.0153132 0.0159475 0.00593925 0.0142057 0.00738395 0.0227423 0.00781633 0.0175527 0.00691449 0.0260914 0.00437641 0.0229865 0.00714722 0.0301218 0.00833779 0.0286981 0.0111672 0.0334841
32 3 O -1.23224 10.5991 47.9811 -1.2 1 0.230241 0.0534499 0.0133633 0.0160614 0.00572979 0.01524 0.00635888 0.0240072 0.00808802 0.0174989 0.00679567 0.0271986 0.00504602 0.0237841 0.00840665 0.0324269 0.00880997 0.0310124 0.00997642 0.0339737
33 3 O -1.79016 8.01447 51.8693 -1.2 1 0.132511 0.0417218 0.00226179 0.00909426 0.00369588 0.00886995 0.00293587 0.0216772 0.00357627 0.0127925 0.00341629 0.0259494 0.00381182 0.0203656 0.00444089 0.0308101 0.00496436 0.0265516 0.00705625 0.0352234
34 3 O -2.30986 8.37215 48.8528 -1.2 1 0.206941 0.0530012 0.00933208 0.0127745 0.0045617 0.0116953 0.00616921 0.0228078 0.00586337 0.0172988 0.00503347 0.0261115 0.00389833 0.0227602 0.00683447 0.0311995 0.00676027 0.0283473 0.00910065 0.0330103
35 1 Mg 0.154883 7.08234 46.8007 1.2 1 0.257161 0.0530705 0.0181039 0.0160396 0.00609417 0.0143262 0.00827189 0.0233136 0.00758898 0.0179543 0.00716606 0.0251903 0.00631168 0.0216533 0.00851478 0.02897 0.0092565 0.0287365 0.0123427 0.0312076
36 3 O 0.325447 8.50934 48.3809 -1.2 1 0.218913 0.0539539 0.0112552 0.0143685 0.00478197 0.0133846 0.00615757 0.0238663 0.00664525 0.0174207 0.00593656 0.0259101 0.00475977 0.023694 0.006345 0.0302674 0.00734242 0.0291148 0.00978885 0.0334392
37 1 Mg 1.18668 7.17449 54.5884 1.2 1 0.0691925 0.0303777 0.00507742 0.00643227 0.00165905 0.00753525 0.00208783 0.0199689 0.00280256 0.0102704 0.0028635 0.024826 0.00321163 0.0193819 0.00346915 0.0321886 0.00354149 0.0259375 0.00632071 0.0369795
38 2 Si 1.29229 9.80449 56.4633 2.4 1 0.0326964 0.0199803 0.00582025 0.00692189 0.0013859 0.00713067 0.00149456 0.0194725 0.00229932 0.00935116 0.00277303 0.0245456 0.00237532 0.0191054 0.00343511 0.0324086 0.00317191 0.0262176 0.00549518 0.0410826
39 3 O 1.0375 8.22877 56.5982 -1.2 1 0.0308692 0.0189314 0.00601764 0.00680261 0.000852519 0.00760565 0.00151967 0.0195054 0.0025818 0.0089024 0.00219207 0.024515 0.00327034 0.017746 0.00247191 0.0324717 0.00335754 0.0265704 0.00519813 0.0400065
40 3 O 1.28624 10.7248 52.7351 -1.2 1 0.112556 0.0392496 0.00201838 0.00846968 0.00222189 0.0106363 0.00288513 0.0219494 0.00313883 0.0121527 0.00277912 0.0261258 0.00459266 0.020623 0.00472722 0.0323823 0.00426072 0.0281799 0.00690199 0.0375025
41 3 O -0.0582771 10.4194 55.9461 -1.2 1 0.0424037 0.0237907 0.00565508 0.00644839 0.000881033 0.00768095 0.00157405 0.0206715 0.00168232 0.00984964 0.00245582 0.0247133 0.00262752 0.0195843 0.00348943 0.0326493 0.00348216 0.0274794 0.00459459 0.0403572
42 3 O 2.41818 10.4348 55.606 -1.2 1 0.0491568 0.0261715 0.00556076 0.00652585 0.000741317 0.00775043 0.00200989 0.0203218 0.00211678 0.00990194 0.00266076 0.0248698 0.00251827 0.019274 0.00348021 0.0329706 0.00321904 0.0274211 0.00561052 0.040178
43 1 Mg -0.262694 9.34741 52.2523 1.2 1 0.113851 0.041182 0.00307295 0.008518 0.00302986 0.00924905 0.00246212 0.0222794 0.00286462 0.0123773 0.00301337 0.026357 0.00383946 0.0207396 0.00510213 0.0317462 0.004523 0.0277948 0.00703347 0.0356181
44 1 Mg 1.87648 9.01537 49.4629 1.2 1 0.18415 0.0527384 0.0054868 0.0116718 0.0032546 0.0120177 0.00591589 0.0229927 0.00530856 0.0163195 0.00499727 0.0264634 0.00429896 0.0232693 0.00678063 0.0316478 0.0058322 0.029005 0.0090294 0.0341697
45 2 Si 1.21415 11.3799 51.2378 2.4 1 0.148148 0.0473367 0.00211311 0.0106437 0.00289287 0.0122126 0.00345818 0.0230812 0.00424362 0.014387 0.00420247 0.0261088 0.00399211 0.0235834 0.00604447 0.0326332 0.00520495 0.0297937 0.00791941 0.037017
46 3 O 1.31634 12.9512 51.3023 -1.2 1 0.143803 0.0449252 0.002678 0.0102008 0.00235295 0.0126257 0.00295387 0.0237402 0.00417077 0.0145161 0.00359362 0.0272412 0.00363291 0.0234061 0.00477636 0.0333635 0.00528428 0.029753 0.00691531 0.0383978
47 3 O 1.45055 10.3149 57.9726 -1.2 1 0.0181288 0.0126207 0.00425818 0.00615796 0.00112027 0.00700998 0.00109341 0.0195385 0.00204035 0.00865406 0.00214129 0.024486 0.00245877 0.0181491 0.00229375 0.0319484 0.00260875 0.0262902 0.00389506 0.0407404
48 3 O -0.115718 10.7564 50.681 -1.2 1 0.157441 0.0472191 0.00328059 0.0113928 0.00385794 0.0119148 0.00399427 0.0230628 0.00425126 0.0141759 0.00348256 0.0265248 0.00436365 0.0231362 0.0066605 0.0320385 0.00535313 0.0291141 0.0086469 0.0362767
49 1 Mg -3.26386 9.35564 52.3622 1.2 1 0.123413 0.0408171 0.00140944 0.00848204 0.00229318 0.0107077 0.00328039 0.0219918 0.00358653 0.0124092 0.00332737 0.0257613 0.00332429 0.020885 0.00461308 0.0320635 0.00461701 0.0276617 0.00699664 0.0350798
50 3 O 2.45216 10.7265 50.4558 -1.2 1 0.16451 0.0492359 0.00366002 0.0105661 0.00261043 0.0126834 0.00449502 0.0231027 0.00490766 0.0159771 0.00380728 0.0265364 0.00373458 0.0237327 0.00616121 0.0329874 0.00547698 0.0295926 0.00807877 0.0355449
51 1 Mg -1.85253 9.4956 55.4226 1.2 1 0.0512997 0.0271383 0.00584062 0.00663268 0.00114198 0.00758316 0.00240514 0.0204706 0.00240376 0.00963555 0.00262712 0.0252523 0.00251122 0.0194889 0.00367181 0.0321213 0.0043628 0.0266335 0.0062136 0.0394582
52 2 Si -1.80633 7.40941 53.4501 2.4 1 0.0939169 0.0362785 0.00383062 0.00719805 0.00298197 0.00782122 0.00261359 0.0205418 0.00312299 0.0114757 0.00288984 0.0252515 0.00353606 0.0199691 0.00339808 0.0309041 0.0046097 0.0257504 0.00582682 0.0357712
53 3 O -1.91237 5.81882 53.2922 -1.2 1 0.0975571 0.034772 0.00281573 0.00668479 0.00214547 0.00775387 0.00180196 0.0198175 0.00342852 0.0105118 0.00313761 0.0243739 0.00362205 0.0187029 0.00480714 0.0304861 0.00390225 0.0257735 0.00588091 0.0348404
54 3 O -1.19417 8.46968 46.4488 -1.2 1 0.269719 0.05304 0.0203477 0.017838 0.0063579 0.0152897 0.00872402 0.0244787 0.00825408 0.0179071 0.0075451 0.0255167 0.00570719 0.0216893 0.00950097 0.0301435 0.00978742 0.0300309 0.0120491 0.0314016
55 3 O -3.11218 8.07742 54.0341 -1.2 1 0.0823226 0.0320091 0.00348426 0.00648821 0.00211533 0.00866931 0.00225414 0.0202189 0.00255047 0.0109278 0.0020631 0.0245336 0.00288671 0.0198792 0.00353016 0.0320892 0.00408979 0.0264182 0.00636673 0.0366764
56 3 O -0.534511 8.00464 54.1222 -1.2 1 0.0765866 0.0324345 0.0046011 0.00633616 0.00208023 0.00739985 0.00198698 0.020456 0.00217759 0.0105061 0.00252591 0.0247881 0.00270134 0.019619 0.00393243 0.0319131 0.00404754 0.026745 0.00642202 0.0369653
57 1 Mg -3.22615 16.2272 57.422 1.2 1 0.0203089 0.014829 0.00430142 0.005352 0.00126936 0.00653808 0.00128387 0.0210084 0.00200803 0.00852815 0.0019495 0.0254394 0.00226513 0.0176078 0.00302162 0.0319596 0.00402988 0.0255675 0.00384032 0.0430092
58 1 Mg -1.6714 16.3544 49.8412 1.2 1 0.181194 0.049829 0.00773028 0.0130497 0.00358264 0.0154944 0.0031252 0.0258858 0.00462505 0.0175084 0.00456558 0.0296805 0.00326191 0.0256867 0.00638369 0.0346212 0.00588927 0.0310345 0.00821938 0.0384594
59 2 Si -1.18567 13.8526 47.9314 2.4 1 0.232571 0.0543301 0.0151158 0.0172461 0.0050615 0.0185775 0.00510084 0.0265957 0.00848493 0.019438 0.00591226 0.02984 0.00520353 0.0280415 0.00687797 0.0345578 0.00946386 0.0327862 0.0102493 0.0368523
60 3 O -1.09664 15.4205 47.9915 -1.2 1 0.231533 0.0536913 0.0150827 0.0174694 0.0051934 0.0199921 0.00444588 0.0272344 0.00798782 0.0196842 0.00632691 0.030113 0.00525273 0.0275803 0.0082339 0.0356063 0.00877952 0.0338032 0.0096871 0.0378408
61 3 O -1.73493 12.7491 51.7772 -1.2 1 0.133668 0.04263 0.00237433 0.0104218 0.00320069 0.0111449 0.00196272 0.0232429 0.00364446 0.0137267 0.00253751 0.027209 0.00384073 0.022567 0.00457317 0.0331039 0.0056138 0.0290019 0.00702088 0.0387566
62 3 O -2.36115 13.2717 48.8238 -1.2 1 0.205406 0.0537659 0.0100179 0.014603 0.00477986 0.0150113 0.00488585 0.0261667 0.00633618 0.0191224 0.00472897 0.0292413 0.00429822 0.0265566 0.00632153 0.0345084 0.00747414 0.0323077 0.00872421 0.0361841
63 1 Mg -0.159928 11.7639 46.8533 1.2 1 0.259251 0.0541822 0.0189237 0.0189308 0.00679145 0.0202982 0.00727869 0.0274102 0.0093899 0.0195663 0.00782058 0.0295154 0.00622343 0.0269265 0.00839998 0.0333147 0.0102958 0.0335118 0.0123906 0.0352966
64 3 O 0.2623 13.1866 48.413 -1.2 1 0.216497 0.0539156 0.0115812 0.0157119 0.00442669 0.0169296 0.00475875 0.0264984 0.00701034 0.0186239 0.00470827 0.0283579 0.00504806 0.0277744 0.00585024 0.0339624 0.00803412 0.0337603 0.00949487 0.0371595
65 1 Mg 1.19384 11.8494 54.5328 1.2 1 0.0724188 0.0326024 0.00445456 0.00676568 0.00153619 0.00856864 0.00225893 0.0210393 0.00215456 0.0111323 0.00239862 0.0258223 0.00364899 0.0204577 0.00360476 0.0330677 0.00412888 0.0272531 0.00611555 0.0386771
66 2 Si 1.30671 14.4499 56.3039 2.4 1 0.0348281 0.0213659 0.00540911 0.00651794 0.00123641 0.00713463 0.00188999 0.0211483 0.00190381 0.00901794 0.00312839 0.0249802 0.0026525 0.0190046 0.002924 0.0326274 0.003654 0.0269016 0.00537234 0.0433474
67 3 O 1.28364 12.8369 56.5398 -1.2 1 0.0302378 0.0194674 0.00548304 0.00624803 0.000965655 0.00684485 0.00178561 0.0207914 0.00321432 0.00849578 0.00213142 0.0251636 0.0030712 0.0183959 0.00256336 0.0325707 0.00418139 0.0272227 0.00505323 0.0421639
68 3 O 1.36565 15.4813 52.729 -1.2 1 0.110081 0.0388436 0.00103108 0.00844119 0.00150632 0.0113318 0.00267889 0.0231266 0.00259989 0.0127317 0.00293771 0.0270079 0.00353757 0.0211325 0.0044573 0.0330781 0.00410095 0.028823 0.00664373 0.0404536
69 3 O 0.172272 15.0205 55.5211 -1.2 1 0.0512611 0.0269185 0.00439402 0.00646778 0.000790362 0.00739753 0.00178487 0.0208682 0.00201961 0.00996193 0.00283668 0.0253903 0.00268621 0.0194714 0.00340492 0.0328417 0.00430431 0.0269596 0.00516845 0.0420604
70 3 O 2.58314 15.1852 55.6987 -1.2 1 0.0426591 0.0246599 0.00579512 0.00611704 0.00103875 0.00690278 0.00265714 0.0212604 0.00222383 0.00965927 0.00269746 0.0249294 0.0024515 0.0188693 0.00315003 0.0332318 0.00359057 0.0275505 0.00613172 0.0430351
71 1 Mg -0.206989 14.1049 52.2121 1.2 1 0.118253 0.043109 0.000701035 0.00928889 0.00250126 0.0102942 0.00207832 0.0235687 0.00311241 0.0136575 0.00313897 0.0273453 0.0030628 0.0224466 0.00413042 0.0336803 0.00485114 0.0291734 0.00628844 0.0386031
72 1 Mg 1.82591 13.8102 49.4556 1.2 1 0.186075 0.0537322 0.00635363 0.0125657 0.00311802 0.0145633 0.00430273 0.0251049 0.00517626 0.0178392 0.00467412 0.0282269 0.00427842 0.0261907 0.00625462 0.035072 0.00666001 0.0320655 0.00845925 0.0368882
73 2 Si 1.29285 16.1518 51.2434 2.4 1 0.14736 0.0478101 0.00255898 0.0106063 0.00250822 0.0134242 0.00326322 0.0244003 0.00423971 0.0157213 0.00486905 0.0273098 0.00333737 0.0247953 0.00623708 0.034187 0.00425796 0.0307079 0.00781732 0.0401106
74 3 O 1.39496 17.7199 51.3047 -1.2 1 0.143442 0.0452645 0.00336823 0.00997944 0.00149893 0.0129478 0.00283032 0.0245713 0.00382721 0.0151179 0.00288997 0.0281711 0.00296767 0.0237829 0.00423014 0.0340582 0.00446147 0.0302446 0.00668036 0.0403816
75 3 O 1.34385 15.0208 57.9427 -1.2 1 0.0168211 0.0126863 0.00353839 0.00555549 0.00107608 0.00673011 0.00156878 0.0213985 0.00203215 0.00805429 0.00246201 0.0248681 0.00246639 0.0180258 0.00246766 0.0319814 0.00358777 0.0259467 0.00412482 0.0430425
76 3 O -0.0269106 15.5178 50.6688 -1.2 1 0.156861 0.0478996 0.0045486 0.0115709 0.00341727 0.0136208 0.00305391 0.0248534 0.00395448 0.0155405 0.0027542 0.0277483 0.00349726 0.0251838 0.00536342 0.033766 0.00431764 0.0307423 0.00726266 0.0389852
77 1 Mg -3.18391 14.1057 52.3125 1.2 1 0.12371 0.0423259 0.00140593 0.00890767 0.00175231 0.0116874 0.00229304 0.0231157 0.00333212 0.0139886 0.00288026 0.0273807 0.00316686 0.0226986 0.00432061 0.03315 0.00487871 0.0285992 0.00593651 0.0386853
78 3 O 2.52432 15.503 50.4579 -1.2 1 0.15933 0.0494979 0.00458116 0.0106171 0.00226381 0.0136945 0.00344535 0.0251548 0.0044045 0.0173077 0.00344414 0.0279756 0.00322767 0.0252693 0.00605679 0.0343842 0.00502039 0.030422 0.00718816 0.0388883
79 1 Mg -1.73796 14.2284 55.1203 1.2 1 0.0535101 0.0282741 0.00521668 0.00658715 0.00133133 0.00739972 0.00197645 0.0212732 0.00267633 0.0098921 0.00311119 0.0259687 0.00260314 0.0197585 0.00357021 0.0331962 0.00448608 0.0274086 0.0055366 0.0414543
80 2 Si -1.71961 12.0558 53.3026 2.4 1 0.0968052 0.0379366 0.00270157 0.00828155 0.00267597 0.00922125 0.00188692 0.0222711 0.00304045 0.0121648 0.00260348 0.0259864 0.00352625 0.0218874 0.00299389 0.0329656 0.00499306 0.0280675 0.00596759 0.0393739
81 3 O -1.68812 10.5013 53.1408 -1.2 1 0.0984817 0.0367209 0.00318994 0.00768625 0.00295766 0.00920499 0.00188563 0.0211523 0.00294431 0.0108657 0.00269803 0.0255901 0.00310495 0.0204066 0.00427334 0.0327652 0.00449893 0.0277018 0.00687348 0.0381795
82 3 O -1.21337 13.3381 46.4311 -1.2 1 0.270692 0.0533549 0.0210262 0.0205085 0.00708865 0.0210297 0.0071013 0.0295163 0.00942942 0.0206726 0.00690895 0.0308254 0.00578457 0.0268868 0.00887798 0.0354001 0.0122121 0.0355391 0.0126336 0.0354982
83 3 O -3.17964 12.8214 54.021 -1.2 1 0.0835882 0.0342139 0.00258199 0.00678885 0.00123088 0.00993582 0.00150226 0.0220404 0.00208224 0.0113548 0.00191355 0.0258713 0.00324523 0.0208175 0.00304001 0.0330796 0.00423161 0.0282094 0.00559221 0.0397269
84 3 O -0.602333 12.7596 54.0241 -1.2 1 0.0778141 0.0338803 0.00377697 0.00712045 0.00230278 0.00778371 0.00167512 0.021979 0.00245287 0.010903 0.00280534 0.025681 0.00275246 0.0211648 0.00337828 0.0333151 0.00388074 0.0283506 0.00614312 0.0399376
85 1 Mg -3.05538 21.2485 57.2425 1.2 1 0.0223786 0.0150602 0.00439358 0.00512204 0.00140446 0.00607866 0.00175488 0.0206558 0.00195076 0.00862614 0.00240026 0.0250229 0.00211924 0.0177555 0.00323433 0.0293113 0.00370246 0.0252489 0.00422033 0.0437412
86 1 Mg -1.5831 21.1217 49.8405 1.2 1 0.181148 0.0494906 0.00787987 0.0129495 0.00287881 0.0161103 0.00295067 0.0265432 0.00408493 0.0175486 0.00459977 0.0301042 0.00380374 0.0252647 0.0062884 0.0343552 0.00538461 0.0308718 0.00928213 0.0393967
87 2 Si -1.09384 18.6291 47.9287 2.4 1 0.230095 0.05467 0.0147501 0.0173879 0.00372337 0.0207387 0.00381004 0.0281915 0.00736397 0.0200416 0.0057549 0.0312928 0.0056084 0.0284862 0.00660418 0.0360451 0.00875466 0.033871 0.0104022 0.039407
88 3 O -1.02071 20.1985 47.9911 -1.2 1 0.22957 0.0539183 0.0147726 0.0172947 0.0041125 0.0210135 0.0040749 0.0282044 0.0073014 0.0198592 0.0063175 0.0312159 0.00551472 0.0277852 0.00775071 0.0363961 0.00790477 0.0341822 0.0101525 0.0393096
89 3 O -1.65002 17.5002 51.771 -1.2 1 0.135069 0.0434451 0.0026936 0.0103429 0.00275967 0.0120965 0.00173487 0.0243736 0.00298831 0.0144234 0.00235138 0.027669 0.0036633 0.0229057 0.00428892 0.0336807 0.00497214 0.0289492 0.00665029 0.0402142
90 3 O -2.26174 18.0434 48.8281 -1.2 1 0.205588 0.0547242 0.0101962 0.0149518 0.00369468 0.0176294 0.00382778 0.0277017 0.00574652 0.0199564 0.0042001 0.0303366 0.00429889 0.0272219 0.00621703 0.0361256 0.00676396 0.0333742 0.00887241 0.0389355
91 1 Mg -0.0440435 16.5651 46.8269 1.2 1 0.258707 0.0553413 0.019247 0.0199445 0.00506841 0.0245058 0.00552969 0.0310729 0.0092714 0.0219378 0.00701535 0.0329055 0.00694064 0.0293847 0.00928574 0.0361861 0.010001 0.0363421 0.0119198 0.0390732
92 3 O 0.37001 17.9877 48.3925 -1.2 1 0.211999 0.0540485 0.0113155 0.0154748 0.00354898 0.018488 0.00314421 0.0277158 0.00634702 0.0194339 0.00451555 0.0302483 0.0046946 0.028477 0.00634729 0.0354793 0.00730823 0.0342209 0.00926897 0.0396694
93 1 Mg 1.56395 16.5435 54.4504 1.2 1 0.0738862 0.0332288 0.00339476 0.00656401 0.00129283 0.00878954 0.00266395 0.0217227 0.0022839 0.0112168 0.00253869 0.0258651 0.00290103 0.020796 0.00316363 0.0324406 0.00451865 0.0270017 0.00546741 0.0410532
94 2 Si 1.18982 19.3566 56.3363 2.4 1 0.0336645 0.02107 0.0052071 0.00622012 0.00133882 0.00639895 0.00216687 0.0202926 0.00238816 0.00831289 0.00340946 0.0246329 0.00259159 0.0186552 0.00480608 0.0306845 0.00420967 0.0250206 0.0054404 0.0445887
95 3 O 1.29534 17.6115 56.4094 -1.2 1 0.0346362 0.0212314 0.00522249 0.00591978 0.00122697 0.00595891 0.00173435 0.0209301 0.00270168 0.00832264 0.00188619 0.0249812 0.0031895 0.0182621 0.00274357 0.0319896 0.0050881 0.0256284 0.00513358 0.0437832
96 3 O 1.45147 20.239 52.7294 -1.2 1 0.109024 0.0385106 0.000775182 0.0079709 0.00118153 0.0114871 0.00279736 0.0233807 0.00220359 0.0129754 0.00251668 0.0267694 0.00314513 0.0217078 0.0043797 0.0320051 0.00320275 0.0283642 0.00594042 0.0413718
97 3 O 0.0824309 20.1606 55.6566 -1.2 1 0.049708 0.0261039 0.00445568 0.00553877 0.000982201 0.00699261 0.00207923 0.0216142 0.00220066 0.00983196 0.00273143 0.0243699 0.00261834 0.0196438 0.00400057 0.031273 0.00403035 0.0266452 0.00454525 0.0439968
98 3 O 2.61167 19.8566 55.7565 -1.2 1 0.0427472 0.0244365 0.00564643 0.00554311 0.00126463 0.00651138 0.00261499 0.0213674 0.00198358 0.00929247 0.00279412 0.0247362 0.00244327 0.0189369 0.00436776 0.0312759 0.00364607 0.0263591 0.00537003 0.0439517
99 1 Mg -0.126194 18.8651 52.2079 1.2 1 0.117448 0.0429532 0.000428403 0.00906036 0.00194623 0.010335 0.00210512 0.0238557 0.00259584 0.0138682 0.0024349 0.0275311 0.00278659 0.0225023 0.00392705 0.03337 0.00386921 0.029064 0.00613219 0.0404036
100 1 Mg 1.92402 18.5815 49.4545 1.2 1 0.183559 0.0539939 0.00607226 0.0124148 0.00205026 0.0155137 0.00386937 0.0262647 0.00457792 0.0187791 0.0041398 0.0296293 0.00421672 0.026672 0.0053851 0.0358917 0.00555221 0.0326136 0.00855654 0.0394207
101 2 Si 1.38106 20.9117 51.2443 2.4 1 0.145901 0.0473318 0.00264702 0.0105049 0.00169216 0.013293 0.0036329 0.0248195 0.00333396 0.0157065 0.00429555 0.0274005 0.00373594 0.0248531 0.00589272 0.0333667 0.00344991 0.0303445 0.0083673 0.0407478
102 3 O 1.48527 22.4795 51.3054 -1.2 1 0.143952 0.0445395 0.00300977 0.0100199 0.001323 0.0128707 0.00307104 0.0243965 0.0038008 0.0145177 0.00275262 0.0279945 0.00335363 0.0233424 0.00417925 0.0332438 0.00436947 0.0300772 0.00729226 0.0418138
103 3 O 1.06941 19.9286 57.8094 -1.2 1 0.0172051 0.0128048 0.00356713 0.00511476 0.00150671 0.00640074 0.00179401 0.0211171 0.00181865 0.00767088 0.0025284 0.0242178 0.00198676 0.0179448 0.00340241 0.0302265 0.00419208 0.0250847 0.0037821 0.044012
104 3 O 0.0615419 20.2804 50.6669 -1.2 1 0.157303 0.0477888 0.00493585 0.0115405 0.00268731 0.0141281 0.00369655 0.0253801 0.00352596 0.0156305 0.0031073 0.0280285 0.00357628 0.0250472 0.00545341 0.0336881 0.00337267 0.0303473 0.00796496 0.0405374
105 1 Mg -3.09665 18.8643 52.3122 1.2 1 0.1231 0.0422937 0.00148463 0.0086049 0.00137906 0.0119277 0.00265849 0.0232954 0.00233282 0.0143427 0.00248999 0.0273441 0.00294257 0.0231342 0.00331115 0.0330492 0.0043924 0.0283392 0.00595994 0.0397194
106 3 O 2.61548 20.2646 50.4626 -1.2 1 0.160019 0.0492916 0.00457743 0.0105211 0.00140049 0.0144128 0.00340826 0.0256507 0.00315501 0.0174425 0.00349983 0.0281941 0.00322699 0.0255542 0.00555371 0.0341983 0.00388679 0.0306023 0.00816911 0.0396041
107 1 Mg -1.63501 18.9264 55.1375 1.2 1 0.0526351 0.0275699 0.00487141 0.00589596 0.00167015 0.0069784 0.00249246 0.0219167 0.00196364 0.0098055 0.00276949 0.0254964 0.00200015 0.0195222 0.00423689 0.0321214 0.00408415 0.0265575 0.00541492 0.0435953
108 2 Si -1.55943 16.8493 53.3369 2.4 1 0.0947223 0.0377495 0.00198878 0.0081182 0.00196892 0.00896367 0.00166235 0.0228627 0.00259492 0.0125654 0.00238539 0.0264221 0.00270254 0.0215316 0.00275315 0.0331874 0.00467388 0.0278862 0.00536055 0.0415117
109 3 O -1.68617 15.2542 53.2481 -1.2 1 0.0955896 0.0367816 0.00211657 0.00815603 0.00225597 0.00934522 0.00151601 0.0220893 0.0028572 0.011775 0.00267238 0.0267387 0.00235628 0.020876 0.00365718 0.0331376 0.00417596 0.0276985 0.00644897 0.0410727
110 3 O -1.12868 18.1227 46.4249 -1.2 1 0.26848 0.0549336 0.0207926 0.021121 0.0054009 0.0242671 0.00557907 0.0319639 0.00830176 0.0216552 0.00604184 0.0332451 0.00696784 0.0274362 0.00884682 0.0379736 0.0118227 0.0372003 0.0120482 0.0392811
111 3 O -2.8075 17.5855 53.903 -1.2 1 0.083119 0.0341565 0.00245175 0.00678831 0.00140811 0.00934505 0.00169652 0.0220234 0.00183748 0.0117954 0.0016495 0.0256933 0.00227986 0.0212123 0.00258632 0.0324729 0.00403274 0.0271256 0.00509055 0.0415245
112 3 O -0.257061 17.6202 53.8689 -1.2 1 0.0826486 0.0346255 0.00262559 0.00700514 0.00241952 0.0078244 0.0023524 0.0224808 0.00252539 0.0114733 0.00223342 0.0253768 0.00284246 0.021155 0.00350592 0.0327145 0.00471375 0.0277464 0.00516667 0.0418513
113 1 Mg -2.98378 26.0533 57.5598 1.2 1 0.0213111 0.0136237 0.00397336 0.00488593 0.00180352 0.00616465 0.00124272 0.0195449 0.00180826 0.00832029 0.00200849 0.0249959 0.00212201 0.0176754 0.00297223 0.0292075 0.00319214 0.0262026 0.00419722 0.0454545
114 1 Mg -1.48778 25.88 49.8402 1.2 1 0.18133 0.0484718 0.00709202 0.0132643 0.00252736 0.015962 0.00317337 0.0260381 0.00413346 0.0173665 0.00473846 0.0300471 0.00393356 0.0246976 0.00687799 0.0337925 0.00559777 0.032051 0.00949488 0.039625
115 2 Si -1.00491 23.3922 47.9274 2.4 1 0.234159 0.0551399 0.0147955 0.018041 0.00376341 0.0215812 0.00452972 0.0292826 0.00763425 0.0201674 0.00614847 0.032073 0.0059497 0.0279598 0.00661976 0.0361041 0.00861765 0.0343973 0.010645 0.0395797
116 3 O -0.927602 24.9615 47.9909 -1.2 1 0.231784 0.053398 0.0144626 0.0176766 0.00352266 0.0212448 0.00427098 0.0286459 0.00748796 0.0199513 0.00677668 0.0316623 0.00596286 0.0273754 0.00813465 0.0360045 0.00838635 0.0344291 0.0107421 0.0395465
117 3 O -1.55795 22.2588 51.7696 -1.2 1 0.135326 0.0429817 0.00301691 0.0101624 0.00279402 0.0125135 0.00189353 0.0241387 0.0020956 0.01401 0.00294497 0.0279282 0.00352837 0.0226353 0.00402781 0.0324121 0.00485402 0.028736 0.00751471 0.0412587
118 3 O -2.17411 22.8111 48.8277 -1.2 1 0.204961 0.0542478 0.00999858 0.0147503 0.00324723 0.0177745 0.00358152 0.0283358 0.00555354 0.0195197 0.00477655 0.0309001 0.00460714 0.0266634 0.00602198 0.0356987 0.00640727 0.033215 0.00976439 0.0394979
119 1 Mg 0.0423997 21.3296 46.8225 1.2 1 0.25656 0.0552329 0.019117 0.0200479 0.00460405 0.0253694 0.00577964 0.031681 0.008667 0.0218609 0.00688056 0.0333869 0.00675505 0.0289146 0.00910186 0.0368897 0.00926247 0.0365463 0.0116961 0.0394217
120 3 O 0.458537 22.7495 48.3911 -1.2 1 0.215296 0.0546655 0.0117189 0.0157713 0.0032892 0.0188596 0.00333271 0.0283252 0.00650723 0.0194185 0.00494992 0.0308495 0.00537377 0.0283407 0.00602882 0.0353892 0.00785325 0.0345615 0.0101101 0.0400361