ITEM: TIMESTEP
43500
ITEM: NUMBER OF ATOMS
10500
ITEM: BOX BOUNDS xy xz yz pp pp pp
0	8.9688	2.9896
0	118.725	0
0	252.977	0
ITEM: ATOMS id type element xu yu zu q Q_1 Q_2 Q_3 Q_4 Q_5 Q_6 Q_7 Q_8 Q_9 Q_10 Q_11 Q_12 Q_13 Q_14 Q_15 Q_16 Q_17 Q_18 Q_19 Q_20 Q_21
1 1 Mg -3.58316 7.03621 57.6286 1.2 1 0.0219474 0.0138261 0.00455367 0.00626778 0.00190243 0.00580337 0.00139645 0.0223079 0.00207643 0.00942082 0.00227551 0.0282187 0.00290464 0.0199293 0.00291978 0.0324257 0.00325731 0.0249777 0.00506897 0.0459839
2 1 Mg -1.82655 6.90154 50.0912 1.2 1 0.175293 0.0495309 0.00608398 0.0110538 0.00317743 0.00795307 0.00477031 0.0228193 0.00507067 0.0147706 0.00479843 0.0256662 0.00472158 0.0208909 0.00642403 0.029329 0.00603816 0.0256793 0.00866766 0.0333495
3 2 Si -0.257935 3.96038 48.0876 2.4 1 0.220468 0.0532158 0.0108757 0.0131867 0.00211638 0.00840397 0.00394364 0.0208299 0.00594398 0.017144 0.00406827 0.0244376 0.00520359 0.0201604 0.00541586 0.0273086 0.00669075 0.0244894 0.00827017 0.0319986
4 3 O -0.335812 5.46814 47.6264 -1.2 1 0.230851 0.0535895 0.0130256 0.0147992 0.00292699 0.00939907 0.0052783 0.0217235 0.00668421 0.0176772 0.00475183 0.0253648 0.00488296 0.0206455 0.00538537 0.0272603 0.00726017 0.0250714 0.00929585 0.0307347
5 3 O -2.03793 3.43377 51.8941 -1.2 1 0.128429 0.041364 0.00211037 0.00780277 0.00194626 0.00589637 0.00315923 0.0211496 0.00324322 0.0112512 0.00350969 0.0251399 0.0037436 0.0180696 0.0042435 0.0286188 0.00561615 0.0234501 0.00779313 0.0363367
6 3 O -1.54015 3.53929 48.9521 -1.2 1 0.200525 0.0522512 0.00786862 0.0121502 0.0022769 0.00740945 0.00383898 0.0208927 0.0055591 0.015008 0.00493084 0.0242542 0.0046122 0.0194702 0.00590611 0.0275962 0.00556984 0.0237425 0.00833301 0.0322012
7 1 Mg 1.82954 2.54582 47.1376 1.2 1 0.246629 0.0531633 0.0155926 0.0165686 0.00311617 0.0104331 0.00421371 0.02072 0.00602462 0.0158392 0.00515297 0.0241418 0.00647968 0.019262 0.00756435 0.0254338 0.00612548 0.022737 0.00850795 0.0307334
8 3 O 1.22989 3.66364 48.7877 -1.2 1 0.203469 0.0509645 0.00862319 0.0130001 0.00210272 0.00841627 0.00419742 0.0210302 0.00441171 0.0147402 0.00386852 0.024419 0.00489126 0.0189992 0.00598421 0.026956 0.00482941 0.023901 0.00869389 0.0329388
9 1 Mg 1.15437 2.31737 54.5324 1.2 1 0.0700106 0.0292966 0.00427073 0.00567026 0.00173941 0.00452993 0.00261398 0.0214074 0.00288196 0.00948178 0.00282141 0.0258329 0.0039932 0.0195359 0.00392155 0.0306774 0.00395354 0.0235408 0.0070139 0.0405499
10 2 Si 1.23933 4.97117 56.5309 2.4 1 0.0328101 0.0189744 0.00565007 0.00660323 0.00148867 0.00608412 0.00219236 0.0220469 0.00188778 0.00854538 0.00285232 0.0262894 0.00276894 0.01985 0.00341775 0.0316329 0.00351725 0.0246857 0.00599968 0.045367
11 3 O 1.09653 3.49969 56.7584 -1.2 1 0.0273785 0.0165823 0.00508601 0.00632475 0.00189392 0.00567947 0.00251966 0.0222776 0.00261304 0.00836837 0.00218731 0.0271631 0.00269581 0.0195041 0.00317134 0.0318047 0.00354309 0.0249098 0.00502151 0.0454544
12 3 O 1.10813 6.07342 52.8172 -1.2 1 0.105856 0.0374657 0.00232452 0.00731763 0.00223627 0.00631143 0.00351855 0.0226611 0.00350428 0.0116419 0.00304333 0.0264166 0.0046223 0.0193579 0.00470269 0.0302179 0.00493138 0.0248232 0.00719705 0.0380337
13 3 O -0.0136537 5.6117 55.6866 -1.2 1 0.0470487 0.0244655 0.00559334 0.00587992 0.00166643 0.00492646 0.00208783 0.0219961 0.00267566 0.00943753 0.00257057 0.0267941 0.00322847 0.0195848 0.00371446 0.0318226 0.00332983 0.0244428 0.0057967 0.043412
14 3 O 2.51266 5.61052 56.0306 -1.2 1 0.0398977 0.0217088 0.00570476 0.00576628 0.00131844 0.00534473 0.00205369 0.0224782 0.00151325 0.00917067 0.00261352 0.026833 0.00303757 0.0199176 0.0039544 0.0321817 0.00314184 0.0250226 0.00684184 0.044093
15 1 Mg -0.459401 4.67631 52.2426 1.2 1 0.12167 0.0407982 0.00154773 0.00769898 0.00211801 0.00537565 0.00286283 0.021832 0.00361705 0.0122038 0.00273141 0.0262154 0.00441221 0.0188358 0.00449402 0.0297503 0.00481184 0.0237677 0.00730458 0.036017
16 1 Mg 2.79456 3.9971 49.9987 1.2 1 0.175904 0.0507893 0.00500685 0.0108883 0.00246174 0.00700715 0.00475248 0.0213891 0.00373641 0.0148581 0.00278603 0.0246594 0.00456314 0.0200384 0.00614279 0.0284687 0.00468311 0.0244363 0.00922248 0.0330284
17 2 Si 1.16169 6.59457 51.2556 2.4 1 0.145869 0.0467059 0.00210479 0.00972825 0.0023534 0.00749053 0.0043782 0.0222463 0.00435674 0.0137785 0.00438259 0.025116 0.00443794 0.0204525 0.00630452 0.0306682 0.00487291 0.0258799 0.00883035 0.0355744
18 3 O 1.28989 8.18905 51.2909 -1.2 1 0.145345 0.0466932 0.00197464 0.0101254 0.00254359 0.0083959 0.00433587 0.0231167 0.00461502 0.0138141 0.00400848 0.0270321 0.00438386 0.02134 0.00545835 0.0308976 0.00560163 0.0271409 0.00786384 0.0369995
19 3 O 1.07062 5.58534 58.1032 -1.2 1 0.0178254 0.0116432 0.00347805 0.00616144 0.00187304 0.00597232 0.00129517 0.0224373 0.00176112 0.00895755 0.00181318 0.0276149 0.00233784 0.0204279 0.00333602 0.0321739 0.00239019 0.0250668 0.00426919 0.0465094
20 3 O -0.184847 6.06029 50.6845 -1.2 1 0.15958 0.0465648 0.00453565 0.00999027 0.00300821 0.00689779 0.00450713 0.0225247 0.00489393 0.0143358 0.00310319 0.0250321 0.00472583 0.0202085 0.00514747 0.0286489 0.00539222 0.0250355 0.00819382 0.0351169
21 1 Mg -3.49704 4.67769 52.6661 1.2 1 0.114182 0.0389047 0.0015164 0.00735269 0.00185292 0.00604965 0.00308529 0.0212939 0.00373593 0.0113233 0.00379752 0.0258828 0.00376828 0.0186225 0.00452482 0.0292537 0.00438532 0.0235297 0.00775572 0.0367584
22 3 O 2.48581 5.93312 50.6539 -1.2 1 0.156583 0.0484003 0.0033465 0.00934203 0.00180019 0.00771297 0.004287 0.0220652 0.00480636 0.014223 0.00398424 0.0248689 0.00458557 0.0208853 0.00542034 0.0297548 0.00482156 0.0254759 0.00826326 0.0343467
23 1 Mg -1.77483 4.69844 55.2019 1.2 1 0.0515967 0.0260827 0.00600621 0.00632219 0.0014731 0.00498886 0.00222343 0.0218134 0.00289493 0.00937614 0.00328698 0.0268125 0.00250674 0.0197442 0.00416872 0.0313585 0.00399732 0.0242228 0.0066725 0.0425245
24 2 Si -1.92173 2.75957 53.3457 2.4 1 0.0990057 0.0365651 0.00286618 0.00699904 0.00257717 0.00486668 0.00269948 0.021032 0.00308891 0.0105458 0.00294405 0.0251464 0.00327944 0.0189775 0.00363472 0.0296264 0.00489131 0.0233343 0.00771865 0.0386661
25 3 O -1.91462 1.28305 53.2465 -1.2 1 0.098316 0.0350189 0.00249259 0.0065298 0.00230656 0.00487266 0.00268919 0.0210124 0.00271457 0.00979346 0.00328166 0.0252494 0.00344695 0.0185547 0.00459891 0.0294176 0.00372671 0.0232145 0.00740936 0.0390216
26 3 O -0.0467762 2.97103 46.8385 -1.2 1 0.251484 0.0537138 0.0160559 0.0160471 0.00333327 0.00896026 0.00423101 0.0205455 0.00662804 0.0171892 0.00617087 0.0242053 0.0069981 0.0187428 0.00843567 0.025631 0.00660861 0.0230818 0.00952901 0.0313999
27 3 O -3.10985 3.3733 54.1759 -1.2 1 0.0776557 0.0307456 0.00374806 0.00591505 0.00147694 0.00505691 0.00216598 0.0210892 0.00246678 0.00970356 0.00235403 0.0257194 0.00300618 0.0190282 0.00403307 0.0301626 0.00405453 0.0230431 0.00727834 0.0399182
28 3 O -0.538702 3.37284 53.9987 -1.2 1 0.0809388 0.0319264 0.00363716 0.0060563 0.00192477 0.00504357 0.00209944 0.0216258 0.00283772 0.0100357 0.00187808 0.0254802 0.00342056 0.0193534 0.00336302 0.0304594 0.0039815 0.0240229 0.00629101 0.0397497
29 1 Mg -3.18768 11.85 57.583 1.2 1 0.023528 0.0146509 0.0047329 0.00604093 0.00159389 0.00620718 0.0012909 0.022981 0.0021507 0.0100005 0.00181835 0.0289929 0.00250058 0.0202835 0.00270846 0.0313915 0.00295136 0.0256741 0.00506415 0.0458724
30 1 Mg -1.75014 11.5838 49.8362 1.2 1 0.179105 0.0505287 0.00717871 0.0135043 0.0043698 0.0125447 0.00464955 0.0245906 0.00595599 0.0160822 0.00512239 0.0287164 0.0045826 0.0240465 0.00657531 0.0327112 0.00687992 0.0297877 0.00873773 0.0370998
31 2 Si -1.18003 9.02138 47.9309 2.4 1 0.235365 0.0535785 0.0150491 0.0161121 0.005413 0.0123394 0.00758614 0.0233217 0.00778633 0.0173362 0.00709156 0.026605 0.00469352 0.022639 0.00667255 0.0297969 0.0090144 0.0284912 0.0116553 0.0336132
32 3 O -1.23224 10.5991 47.9811 -1.2 1 0.226449 0.0552445 0.0133269 0.0166758 0.0054268 0.013919 0.00643477 0.0247178 0.00785418 0.0175647 0.00699385 0.0277428 0.0048672 0.0239949 0.00835963 0.0321994 0.00950064 0.0309982 0.0104557 0.0342964
33 3 O -1.79016 8.01447 51.8693 -1.2 1 0.130094 0.0423937 0.00159372 0.00930925 0.00330503 0.00690526 0.00292802 0.0227961 0.00407015 0.0130988 0.0037026 0.0271891 0.0040092 0.0205304 0.00467992 0.0305803 0.00557597 0.0257707 0.00802088 0.0375405
34 3 O -2.30986 8.37215 48.8528 -1.2 1 0.202478 0.0540843 0.00913768 0.0130392 0.00406109 0.00989905 0.00638991 0.0236165 0.00595913 0.0171955 0.00482346 0.0263294 0.00442271 0.0226831 0.00637507 0.0307985 0.00712585 0.0278095 0.00938259 0.0336212
35 1 Mg 0.154883 7.08234 46.8007 1.2 1 0.255682 0.0538361 0.0178443 0.0165603 0.00565029 0.0123903 0.00872349 0.0241937 0.00777143 0.017621 0.00690471 0.0255135 0.00711079 0.0214815 0.00830015 0.0287775 0.00956596 0.0278251 0.012463 0.0311392
36 3 O 0.325447 8.50934 48.3809 -1.2 1 0.212779 0.0546836 0.0106836 0.0145767 0.00388506 0.0111214 0.00638365 0.0244306 0.00662907 0.0171321 0.00542088 0.0263161 0.00487499 0.0234526 0.00576718 0.0299159 0.00708088 0.0285888 0.00996407 0.0334895
37 1 Mg 1.08704 7.18553 54.6529 1.2 1 0.066452 0.02999 0.00500307 0.00620189 0.00182388 0.00557096 0.00230895 0.022188 0.00278213 0.0107059 0.00260906 0.0272563 0.00419469 0.0205141 0.00415871 0.0317558 0.00357469 0.0245647 0.00751571 0.0413451
38 2 Si 1.19596 9.73879 56.3759 2.4 1 0.0341183 0.0202865 0.006207 0.00699729 0.0012796 0.00574511 0.00232825 0.022703 0.00235877 0.00971888 0.00315636 0.0272811 0.00283888 0.0205962 0.00416823 0.0319153 0.00358166 0.0256046 0.00666735 0.0461813
39 3 O 1.17452 8.0996 56.6221 -1.2 1 0.0315473 0.018924 0.0058183 0.00639287 0.00111734 0.00575775 0.00200793 0.0222156 0.00292705 0.00885923 0.00218138 0.0278147 0.00346476 0.019162 0.00320015 0.0318898 0.00412909 0.024971 0.00605193 0.0452519
40 3 O 1.28624 10.7248 52.7351 -1.2 1 0.108546 0.0390023 0.00205142 0.00900196 0.00240171 0.00932186 0.00307532 0.0232299 0.00409289 0.0125806 0.00348599 0.0276503 0.00463672 0.0219682 0.0040161 0.0322577 0.00457166 0.0276872 0.00668852 0.0397442
41 3 O -0.141579 10.3917 55.8797 -1.2 1 0.0478201 0.0253992 0.00549717 0.00672904 0.0014572 0.00606331 0.00195437 0.0232169 0.00196814 0.0105289 0.00244583 0.0278634 0.00307088 0.0212074 0.0040486 0.0321293 0.00323588 0.0261807 0.00617228 0.0447345
42 3 O 2.44566 10.3832 55.7048 -1.2 1 0.0450018 0.0250499 0.00624742 0.00662082 0.00104753 0.00634178 0.00251581 0.0227216 0.00232477 0.0103157 0.00237162 0.0277131 0.00314523 0.0213112 0.00372507 0.0323598 0.00291472 0.0260279 0.00583793 0.0446417
43 1 Mg -0.262694 9.34741 52.2523 1.2 1 0.110238 0.0415794 0.00297048 0.00938369 0.00244706 0.00759594 0.00251836 0.0236012 0.00406074 0.0127521 0.00323768 0.0278379 0.00358638 0.0212806 0.00477428 0.0315147 0.00475406 0.0271326 0.0074693 0.0384195
44 1 Mg 1.87648 9.01537 49.4629 1.2 1 0.181475 0.0543248 0.00545883 0.0121732 0.0032601 0.0101806 0.00633627 0.0238129 0.00561682 0.0162606 0.00500655 0.0269849 0.00488639 0.0232037 0.00640245 0.0314139 0.00591364 0.0287234 0.00958623 0.0350178
45 2 Si 1.21415 11.3799 51.2378 2.4 1 0.143218 0.0483634 0.00204338 0.0111912 0.0030591 0.0105037 0.00402608 0.0240247 0.00517025 0.0147753 0.00499019 0.0275262 0.00438662 0.0243637 0.00591556 0.0326381 0.00519426 0.0292969 0.00860663 0.0390062
46 3 O 1.31634 12.9512 51.3023 -1.2 1 0.143107 0.04722 0.00268299 0.0112817 0.0032414 0.0116427 0.00393799 0.0245072 0.00537836 0.0153077 0.00356133 0.0291037 0.00448251 0.0248987 0.00456751 0.0330978 0.00548088 0.0301609 0.00770855 0.0398781
47 3 O 1.30809 10.4789 57.885 -1.2 1 0.0208492 0.012717 0.00400958 0.00628511 0.00155027 0.00638563 0.00118704 0.0227244 0.00203249 0.00950378 0.00219699 0.0278102 0.00253961 0.0200898 0.0026502 0.0318026 0.00265618 0.0257519 0.00478697 0.0465898
48 3 O -0.115718 10.7564 50.681 -1.2 1 0.153364 0.0489411 0.00318908 0.0120672 0.00339878 0.0103478 0.00406035 0.0243144 0.00505404 0.0147173 0.00365071 0.0279051 0.0043431 0.0238465 0.005971 0.0319006 0.00522754 0.0287581 0.00854757 0.0379395
49 1 Mg -3.26386 9.35564 52.3622 1.2 1 0.119595 0.0409508 0.00132955 0.00896662 0.00213909 0.00876075 0.003581 0.0233231 0.00433823 0.0129944 0.0038642 0.0273135 0.00352691 0.021713 0.0048902 0.0318314 0.00460546 0.0271344 0.00762769 0.0374773
50 3 O 2.45216 10.7265 50.4558 -1.2 1 0.157475 0.0503467 0.0037062 0.0109836 0.00328053 0.0108568 0.00470667 0.0240583 0.00546834 0.0160054 0.0041501 0.0276784 0.00420261 0.0242136 0.00597842 0.0327516 0.00541213 0.029454 0.00841426 0.0372195
51 1 Mg -1.79459 9.52105 55.1293 1.2 1 0.055432 0.0281122 0.0058345 0.00670753 0.00167413 0.00602567 0.00262448 0.0227319 0.00318443 0.0104634 0.00295794 0.0275949 0.00299904 0.0210282 0.00375842 0.0319544 0.00462507 0.0260515 0.00685788 0.0432446
52 2 Si -1.73445 7.33055 53.4305 2.4 1 0.0904387 0.0361982 0.00358029 0.00742261 0.00265837 0.00600191 0.00241886 0.0223138 0.00404211 0.0116089 0.00299022 0.0268021 0.0035037 0.0204959 0.00381462 0.0308581 0.00481334 0.0246764 0.00706392 0.040005
53 3 O -1.83762 5.83167 53.308 -1.2 1 0.096622 0.0350435 0.0024839 0.00675967 0.00201839 0.00551503 0.00247036 0.0219533 0.00368256 0.0107547 0.00319788 0.0258295 0.00336027 0.019195 0.0047918 0.0311532 0.00390215 0.0244495 0.00775639 0.0385474
54 3 O -1.19417 8.46968 46.4488 -1.2 1 0.267778 0.054404 0.0204578 0.0184793 0.00586101 0.0137847 0.00889492 0.0251038 0.00808266 0.0176731 0.00738841 0.0258384 0.00615815 0.0212082 0.00896486 0.0298341 0.0101994 0.0296228 0.0116308 0.0307965
55 3 O -3.06814 8.06344 53.988 -1.2 1 0.0828096 0.0329253 0.00335887 0.00701613 0.00197783 0.00664958 0.00241397 0.0225774 0.00321263 0.0114573 0.00299187 0.0264907 0.00308528 0.0204509 0.00428014 0.0317781 0.0048597 0.0254351 0.00751663 0.0399824
56 3 O -0.475126 8.06902 54.0359 -1.2 1 0.0759561 0.032911 0.00480067 0.00689532 0.00236821 0.00563484 0.00170854 0.0227936 0.00311399 0.011269 0.00253602 0.0265408 0.00300284 0.0205271 0.0041114 0.0317897 0.00440129 0.026143 0.00683135 0.0411083
57 1 Mg -3.17809 16.4831 57.4359 1.2 1 0.0229657 0.0150123 0.00509707 0.00627335 0.00144174 0.00615614 0.00156173 0.0232372 0.00208618 0.0101535 0.00224838 0.0290367 0.00180144 0.0194316 0.00290363 0.0311957 0.00344835 0.0252152 0.00460345 0.0462416
58 1 Mg -1.6714 16.3544 49.8412 1.2 1 0.176479 0.0513483 0.00733863 0.0140218 0.00355063 0.0152023 0.00299581 0.0259596 0.00510577 0.0180223 0.00445542 0.0312503 0.00382526 0.0259554 0.00602992 0.0342612 0.00576129 0.0320348 0.00858446 0.0397085
59 2 Si -1.18567 13.8526 47.9314 2.4 1 0.226798 0.0563084 0.0152811 0.0173191 0.00499493 0.0178387 0.00473145 0.0268268 0.00854085 0.0195828 0.00611886 0.0307059 0.00518093 0.0282229 0.00631063 0.0340912 0.00957526 0.0334267 0.0106416 0.0375132
60 3 O -1.09664 15.4205 47.9915 -1.2 1 0.229164 0.0562744 0.0153677 0.0180691 0.00536055 0.0194729 0.0044206 0.0277221 0.00816522 0.0199365 0.00649738 0.0311625 0.00560488 0.0276845 0.00784276 0.035148 0.00929081 0.0349433 0.00998217 0.038003
61 3 O -1.73493 12.7491 51.7772 -1.2 1 0.129899 0.0433939 0.00171424 0.0112959 0.00296202 0.010195 0.00174161 0.0246857 0.00440894 0.0145833 0.00323379 0.0291801 0.00361457 0.0235996 0.00402893 0.032945 0.0053992 0.0288581 0.00729638 0.040529
62 3 O -2.36115 13.2717 48.8238 -1.2 1 0.200744 0.055926 0.0101208 0.015077 0.00495372 0.0142357 0.00464598 0.0263811 0.00660614 0.0192723 0.00509425 0.0302283 0.00431759 0.0267939 0.00602456 0.034449 0.00794051 0.0325542 0.00953576 0.0373295
63 1 Mg -0.159928 11.7639 46.8533 1.2 1 0.255803 0.0562155 0.0192387 0.0193092 0.00633045 0.0193144 0.00730127 0.0281419 0.00929209 0.0196663 0.0077749 0.0300495 0.00659691 0.0271721 0.00845443 0.033111 0.0109579 0.0341177 0.0129666 0.0350808
64 3 O 0.2623 13.1866 48.413 -1.2 1 0.208624 0.0559002 0.011628 0.0158664 0.00448003 0.0157912 0.00444058 0.0264269 0.00750284 0.0185488 0.00487459 0.0295424 0.00452966 0.0280141 0.00551724 0.0335214 0.00818923 0.0332968 0.0097477 0.0377355
65 1 Mg 1.369 11.8085 54.5854 1.2 1 0.0736857 0.0327094 0.00404781 0.00723289 0.00189088 0.00758938 0.00276708 0.0232482 0.00339551 0.0120374 0.00254066 0.0281788 0.00345232 0.0226071 0.00298852 0.0324108 0.0040473 0.0261895 0.00556553 0.0416496
66 2 Si 1.22179 14.5403 56.3976 2.4 1 0.032332 0.0195458 0.0060631 0.00730704 0.00131399 0.00635936 0.00217908 0.0230941 0.00208689 0.010027 0.0032805 0.0281097 0.00245783 0.0204741 0.00427577 0.0319294 0.00329149 0.0259129 0.00550357 0.0474637
67 3 O 1.21892 12.9103 56.4754 -1.2 1 0.032541 0.0199533 0.0059704 0.00697753 0.00115366 0.00630116 0.00209544 0.0231982 0.00376959 0.00970144 0.0019244 0.0283354 0.00311607 0.0207774 0.00277484 0.0318177 0.00412617 0.0258957 0.00510865 0.0469782
68 3 O 1.36565 15.4813 52.729 -1.2 1 0.108022 0.0400413 0.00151733 0.00948596 0.00208517 0.0110271 0.0034468 0.0244644 0.00352353 0.014457 0.00333931 0.0292125 0.00414598 0.0230858 0.00424382 0.032772 0.00413145 0.0290287 0.00606934 0.0420114
69 3 O -0.0203831 15.1813 55.6855 -1.2 1 0.0508589 0.0262292 0.00537541 0.0069601 0.00078823 0.00683589 0.00212306 0.0233571 0.00201813 0.0114093 0.00247274 0.0283016 0.00217649 0.0215985 0.0031382 0.0325723 0.00352958 0.0266727 0.00475814 0.0451016
70 3 O 2.51018 15.2595 55.7876 -1.2 1 0.0421871 0.0245527 0.00635735 0.00696134 0.000955918 0.00611399 0.00270115 0.0236568 0.00221961 0.0106311 0.00278183 0.0280304 0.0022812 0.0212863 0.00373409 0.0324755 0.00299211 0.0265734 0.00583856 0.0461705
71 1 Mg -0.206989 14.1049 52.2121 1.2 1 0.113022 0.0432345 0.00161683 0.0101257 0.00262049 0.00943452 0.00283515 0.0247908 0.00366469 0.0143613 0.0032641 0.0294681 0.00363274 0.0235472 0.00410644 0.0331535 0.00446112 0.0289618 0.00670454 0.0407101
72 1 Mg 1.82591 13.8102 49.4556 1.2 1 0.17848 0.0559453 0.00614231 0.0132238 0.00367182 0.0134802 0.00453839 0.0254052 0.00600811 0.0180464 0.0048811 0.0296726 0.00467909 0.026932 0.0058767 0.034606 0.00652809 0.0323553 0.00915115 0.0380216
73 2 Si 1.29285 16.1518 51.2434 2.4 1 0.143928 0.0499043 0.00260214 0.0119617 0.00273742 0.0125715 0.00380553 0.0250541 0.00480477 0.0164869 0.00430423 0.028903 0.00443311 0.0259742 0.0051479 0.0333473 0.00490219 0.0319604 0.00825373 0.041056
74 3 O 1.39496 17.7199 51.3047 -1.2 1 0.14379 0.0479764 0.00281748 0.0114491 0.00207442 0.0128022 0.00320078 0.0246813 0.00456338 0.0164179 0.00263247 0.0298506 0.00362555 0.0252707 0.00369419 0.0337214 0.00575183 0.0310385 0.00744022 0.0410007
75 3 O 1.17423 15.1006 57.8549 -1.2 1 0.0189834 0.0131155 0.00433783 0.00663828 0.00137332 0.0063203 0.00175364 0.023045 0.00215872 0.00976542 0.00319046 0.0282352 0.0020951 0.020034 0.003912 0.0310587 0.00335858 0.0253038 0.00420485 0.0472071
76 3 O -0.0269106 15.5178 50.6688 -1.2 1 0.152445 0.0495141 0.00430707 0.0128838 0.00336172 0.0128146 0.00375969 0.0253061 0.00490366 0.0162958 0.00293792 0.0296583 0.00399088 0.0258559 0.0047809 0.033467 0.00456006 0.0313868 0.00766614 0.0403227
77 1 Mg -3.18391 14.1057 52.3125 1.2 1 0.120654 0.0433848 0.0013246 0.0101001 0.00205076 0.0109132 0.00287946 0.0244376 0.00402657 0.0150549 0.00282665 0.0292626 0.00340581 0.0240588 0.00371958 0.0327903 0.00464847 0.0289603 0.00654383 0.0403094
78 3 O 2.52432 15.503 50.4579 -1.2 1 0.157884 0.0525281 0.00498445 0.0117716 0.00297463 0.0132981 0.00393158 0.0254957 0.0053459 0.0182029 0.00362837 0.0297691 0.00382546 0.0267985 0.00505525 0.0338062 0.00580336 0.0317571 0.00790856 0.0395449
79 1 Mg -1.81447 14.4127 55.2498 1.2 1 0.0506254 0.0274535 0.00587308 0.00703949 0.00158401 0.0065352 0.00215788 0.0236077 0.00230613 0.0112929 0.00221155 0.0290562 0.00217425 0.0215089 0.00375431 0.0319618 0.00403354 0.0263105 0.00573305 0.0447983
80 2 Si -1.62972 12.0947 53.1838 2.4 1 0.0973341 0.0385524 0.00305819 0.0094278 0.00250093 0.00834083 0.00211382 0.0242136 0.00454184 0.0134355 0.00273812 0.0283128 0.0032855 0.0233844 0.00333427 0.0323688 0.00564959 0.0277964 0.0062604 0.0422404
81 3 O -1.6353 10.5278 53.2282 -1.2 1 0.0961207 0.03729 0.00339785 0.00867654 0.00240484 0.00781701 0.00200348 0.0227468 0.00407921 0.0114776 0.00346905 0.0277133 0.00350328 0.0213378 0.00490306 0.0320638 0.00463635 0.0268484 0.00761735 0.0408433
82 3 O -1.21337 13.3381 46.4311 -1.2 1 0.267615 0.0555252 0.021448 0.0207564 0.00708349 0.020569 0.00687079 0.0300454 0.00920087 0.0207845 0.00726668 0.0313193 0.00577423 0.0268424 0.0086576 0.0352942 0.0125628 0.0359712 0.0129332 0.0355247
83 3 O -2.86089 12.8019 53.9607 -1.2 1 0.0838421 0.0353474 0.00348877 0.00781788 0.0016598 0.00844824 0.00203471 0.0237753 0.00348763 0.0130206 0.00224012 0.0283136 0.00314084 0.0230405 0.00346394 0.0327465 0.00425422 0.0270529 0.00563346 0.0423824
84 3 O -0.283348 12.7399 53.9081 -1.2 1 0.0795856 0.034828 0.00369526 0.00789164 0.00274001 0.00698382 0.00203255 0.0244812 0.0032259 0.012828 0.00236527 0.0280379 0.00316504 0.0229876 0.00338406 0.0329776 0.004334 0.0275686 0.00536283 0.0429973
85 1 Mg -2.83625 21.395 57.2768 1.2 1 0.0223432 0.0155264 0.00582193 0.00636215 0.00134782 0.00625659 0.00142661 0.0227915 0.0017248 0.00956528 0.00220832 0.028004 0.00249928 0.0190679 0.00313943 0.0318556 0.00389391 0.0248528 0.00474183 0.0454406
86 1 Mg -1.5831 21.1217 49.8405 1.2 1 0.176073 0.0516737 0.00708046 0.0137921 0.00279483 0.0154831 0.00296187 0.0263878 0.00452452 0.0183957 0.00454656 0.0307777 0.00372097 0.0257493 0.00596377 0.0348373 0.00537095 0.0323549 0.00870836 0.0395264
87 2 Si -1.09384 18.6291 47.9287 2.4 1 0.229559 0.0576076 0.014672 0.0183349 0.00411113 0.0204879 0.00407729 0.0282777 0.00762245 0.0207486 0.00579798 0.0321944 0.0059092 0.0286576 0.00642089 0.0352612 0.00981279 0.0348168 0.0103043 0.0395983
88 3 O -1.02071 20.1985 47.9911 -1.2 1 0.226822 0.056497 0.0146392 0.0182141 0.00435023 0.0205945 0.00415048 0.0281843 0.00713633 0.0206293 0.00587152 0.0317621 0.00552534 0.0279369 0.00755933 0.0356356 0.00893991 0.0351027 0.00999943 0.0394187
89 3 O -1.65002 17.5002 51.771 -1.2 1 0.130784 0.0445268 0.0019943 0.0114317 0.00269315 0.011839 0.00195459 0.025065 0.0034852 0.0155785 0.0028698 0.0296685 0.00380526 0.0240854 0.00337416 0.0332862 0.00486469 0.0296946 0.0065821 0.0411458
90 3 O -2.26174 18.0434 48.8281 -1.2 1 0.201212 0.057401 0.00994675 0.01553 0.00386026 0.017297 0.00365891 0.0275808 0.0061914 0.0202406 0.00408456 0.0315703 0.00407878 0.027767 0.00556167 0.03509 0.00777701 0.0343545 0.00873548 0.0390611
91 1 Mg -0.0440435 16.5651 46.8269 1.2 1 0.253154 0.0577172 0.0189094 0.020225 0.00531504 0.0242584 0.00499538 0.0311862 0.00918719 0.0221928 0.00647511 0.0336604 0.00687734 0.0291208 0.00826165 0.035258 0.0104626 0.0374128 0.0114127 0.0393739
92 3 O 0.37001 17.9877 48.3925 -1.2 1 0.210501 0.0573176 0.0113227 0.0164546 0.00370838 0.0182488 0.00343183 0.0282628 0.00669758 0.0200057 0.00415526 0.0314036 0.00475009 0.02891 0.00589607 0.0347318 0.00845558 0.0358461 0.00939976 0.0400866
93 1 Mg 1.22409 16.425 54.5535 1.2 1 0.0707346 0.0328611 0.00415848 0.00788367 0.0010763 0.00783147 0.00276728 0.023627 0.00267707 0.0129857 0.00245023 0.028829 0.00274926 0.0220901 0.00302473 0.0328038 0.00369586 0.0267265 0.0048955 0.0430668
94 2 Si 1.45271 19.1467 56.5798 2.4 1 0.0300802 0.0188826 0.00604331 0.00749122 0.0013197 0.00589863 0.00203382 0.0229613 0.00167731 0.0103078 0.0035601 0.0276694 0.00238256 0.0197197 0.00410653 0.0320626 0.00339542 0.0251514 0.00575177 0.0464207
95 3 O 1.3293 17.6024 56.6862 -1.2 1 0.0283375 0.0180621 0.00596355 0.00708755 0.0013596 0.00580103 0.00155885 0.0231911 0.00246688 0.00977926 0.00224024 0.0280197 0.00239085 0.0195182 0.00281959 0.0316656 0.003667 0.025515 0.00522122 0.0466082
96 3 O 1.45147 20.239 52.7294 -1.2 1 0.10669 0.0400567 0.000911019 0.00954077 0.00128497 0.011373 0.00322276 0.0244378 0.00294744 0.0141959 0.0029542 0.0291957 0.00393548 0.0226671 0.00418033 0.0332698 0.00400892 0.0292022 0.00622704 0.0420153
97 3 O 0.220963 19.816 55.8439 -1.2 1 0.0422806 0.0246373 0.00588899 0.00714067 0.000904713 0.00669311 0.00223369 0.0229379 0.00166289 0.0109828 0.00261839 0.0276772 0.00230729 0.0207722 0.0035555 0.032971 0.00361738 0.0263565 0.00536687 0.0451395
98 3 O 2.76609 19.7565 55.8127 -1.2 1 0.0406169 0.0237287 0.00641426 0.00698342 0.00107876 0.00663198 0.00225495 0.0234567 0.00186146 0.0107864 0.00234949 0.0276864 0.00234254 0.0204791 0.00326996 0.03313 0.00352935 0.0266168 0.00592512 0.0452933
99 1 Mg -0.126194 18.8651 52.2079 1.2 1 0.111205 0.0437082 0.0015312 0.0101358 0.00176146 0.0101054 0.00251497 0.0248926 0.0029179 0.0148987 0.00275604 0.0294916 0.00335958 0.0234851 0.00362397 0.0337279 0.00382434 0.0294942 0.00657791 0.0410572
100 1 Mg 1.92402 18.5815 49.4545 1.2 1 0.178758 0.0570679 0.00586755 0.0132495 0.00213666 0.0150893 0.00406671 0.0265531 0.00525263 0.0193699 0.00398001 0.0308458 0.00443598 0.027487 0.00509952 0.0351673 0.00659614 0.0338018 0.00904799 0.03992
101 2 Si 1.38106 20.9117 51.2443 2.4 1 0.141584 0.0494733 0.00201626 0.0115663 0.00166164 0.0130889 0.00332892 0.0255577 0.00403437 0.0164536 0.00425699 0.0285534 0.00385226 0.0254901 0.00527977 0.0338203 0.00380076 0.0317853 0.00772884 0.0413133
102 3 O 1.48527 22.4795 51.3054 -1.2 1 0.14115 0.0465193 0.00243278 0.010737 0.00177345 0.0128179 0.00323542 0.0247137 0.00410381 0.0158759 0.002921 0.0293 0.00356061 0.0243631 0.00409303 0.0340051 0.00480666 0.030584 0.00660207 0.0409046
103 3 O 1.42761 19.8185 57.9753 -1.2 1 0.016714 0.0122463 0.00408477 0.00662869 0.00138633 0.00617869 0.00129854 0.0228865 0.00148035 0.00939815 0.00284566 0.0281025 0.00199985 0.0185723 0.00285631 0.0316689 0.0030279 0.025076 0.00398696 0.0462234
104 3 O 0.0615419 20.2804 50.6669 -1.2 1 0.153761 0.050697 0.00385668 0.012814 0.00276821 0.0137478 0.00350218 0.0261657 0.00453115 0.0172319 0.00290437 0.0297821 0.00405835 0.0265213 0.0047734 0.0340533 0.00412375 0.0321259 0.00750945 0.0407987
105 1 Mg -3.09665 18.8643 52.3122 1.2 1 0.11864 0.0433549 0.000927309 0.0101522 0.00127893 0.0118466 0.00247692 0.0246074 0.00311372 0.0154287 0.00271179 0.0295398 0.00310821 0.0236887 0.00264918 0.0331671 0.00410056 0.0294624 0.00575452 0.0405724
106 3 O 2.61548 20.2646 50.4626 -1.2 1 0.155783 0.0517716 0.00387761 0.0116941 0.00148996 0.0138774 0.0035465 0.0259385 0.00423729 0.0179923 0.00326614 0.0294301 0.0036883 0.0264512 0.00451357 0.0342385 0.00462819 0.0318751 0.00753783 0.0406142
107 1 Mg -1.48434 18.9633 55.1766 1.2 1 0.0500834 0.0285184 0.00611229 0.00739507 0.00150914 0.0063824 0.00227926 0.0239661 0.002419 0.0118131 0.00324945 0.0283271 0.00213147 0.0213513 0.00400419 0.0327434 0.00417038 0.0265088 0.00602987 0.0445273
108 2 Si -1.68451 16.8195 53.2339 2.4 1 0.094733 0.0390046 0.00256635 0.00951583 0.00223599 0.00839812 0.00171622 0.023827 0.00368219 0.0138899 0.00258394 0.028726 0.00272276 0.0230496 0.00339659 0.0329036 0.00470234 0.0283399 0.00567317 0.0428548
109 3 O -1.69779 15.2438 53.042 -1.2 1 0.0963839 0.0389311 0.0030906 0.00959325 0.00175211 0.00864706 0.00200105 0.0239711 0.00394451 0.0132713 0.0028789 0.0289181 0.00321629 0.022711 0.0039717 0.0327442 0.00382839 0.0282233 0.00654002 0.0427584
110 3 O -1.12868 18.1227 46.4249 -1.2 1 0.264671 0.0577934 0.0208515 0.0213737 0.00581735 0.0242261 0.00547634 0.0319454 0.00801325 0.0220494 0.00614218 0.0338708 0.00620515 0.0273381 0.00899446 0.0375766 0.0121663 0.0384256 0.0120449 0.0391515
111 3 O -2.94513 17.5463 53.8343 -1.2 1 0.0829342 0.0353994 0.00337063 0.00819646 0.00143567 0.00917434 0.00184286 0.0237513 0.00244305 0.013454 0.00228229 0.0283712 0.00275228 0.0228657 0.00268887 0.0328599 0.00411612 0.0276075 0.0053143 0.0424271
112 3 O -0.294232 17.5229 53.9427 -1.2 1 0.0765349 0.0350494 0.00421201 0.00807928 0.00219321 0.00712932 0.00160398 0.0240506 0.00276104 0.0127414 0.00265802 0.0280431 0.00256341 0.0227361 0.00297169 0.0333999 0.00358164 0.0279908 0.00597086 0.0431345
113 1 Mg -3.04857 25.9039 57.2733 1.2 1 0.0203334 0.0151037 0.00536576 0.00641958 0.00109427 0.0062569 0.00150845 0.0226736 0.00207811 0.00904241 0.00214278 0.028222 0.00200304 0.0194652 0.0031431 0.0316346 0.00315415 0.0251806 0.00418116 0.0448815
114 1 Mg -1.48778 25.88 49.8402 1.2 1 0.178057 0.0506628 0.00689401 0.0133753 0.0028388 0.0154974 0.00254011 0.0267795 0.00420502 0.0179635 0.00434589 0.0309369 0.00342091 0.0257666 0.00573842 0.0344503 0.00568469 0.0321357 0.0083405 0.039922
115 2 Si -1.00491 23.3922 47.9274 2.4 1 0.227889 0.0563745 0.014972 0.0179228 0.00394562 0.0210216 0.0042379 0.0285125 0.00709744 0.0206428 0.00534948 0.0319159 0.00508437 0.0283879 0.00602891 0.035509 0.00891265 0.0349989 0.0102188 0.0396123
116 3 O -0.927602 24.9615 47.9909 -1.2 1 0.228298 0.0552037 0.0148953 0.017873 0.00424932 0.0208446 0.00420192 0.0286639 0.00716327 0.0204369 0.00604549 0.0316042 0.00570341 0.0278553 0.00807163 0.0359084 0.0085246 0.0350317 0.0104885 0.039706
117 3 O -1.55795 22.2588 51.7696 -1.2 1 0.130332 0.0438396 0.00130784 0.0111042 0.00225043 0.0119398 0.00182116 0.025222 0.00292546 0.0152899 0.00273826 0.0289827 0.00380637 0.0238763 0.00350503 0.0334871 0.0051577 0.0296885 0.00635719 0.0414492
118 3 O -2.17411 22.8111 48.8277 -1.2 1 0.198629 0.0562396 0.00969295 0.0149857 0.00300078 0.0172645 0.00344407 0.0280726 0.0052429 0.0201011 0.00416212 0.0314626 0.00395229 0.0273033 0.00586577 0.0353038 0.00714043 0.0344005 0.00876688 0.0391777
119 1 Mg 0.0423997 21.3296 46.8225 1.2 1 0.254774 0.057992 0.0191394 0.0208676 0.00518871 0.0251495 0.00570188 0.0316188 0.00858169 0.0226173 0.00623098 0.0336473 0.00692059 0.028932 0.00918824 0.0361308 0.0101373 0.0378529 0.0119025 0.0392256
120 3 O 0.458537 22.7495 48.3911 -1.2 1 0.2111 0.0570806 0.0112458 0.0165041 0.00342789 0.0188223 0.00331371 0.0288855 0.0064678 0.0203455 0.00406529 0.0311279 0.00499412 0.0288476 0.00584801 0.0353131 0.00797073 0.0359277 0.00934892 0.0403547
121 1 Mg 1.36688 21.148 54.4344 1.2 1 0.0709721 0.0329598 0.00407423 0.0076129 0.00156874 0.00830676 0.00273811 0.0236057 0.00242478 0.0127008 0.00261424 0.0283681 0.00328116 0.0218677 0.00306219 0.0330449 0.00424309 0.0264169 0.00537596 0.0428542