ITEM: TIMESTEP
35400
ITEM: NUMBER OF ATOMS
10500
ITEM: BOX BOUNDS xy xz yz pp pp pp
0	8.9688	2.9896
0	118.725	0
0	252.977	0
ITEM: ATOMS id type element xu yu zu q Q_1 Q_2 Q_3 Q_4 Q_5 Q_6 Q_7 Q_8 Q_9 Q_10 Q_11 Q_12 Q_13 Q_14 Q_15 Q_16 Q_17 Q_18 Q_19 Q_20 Q_21
1 1 Mg -3.21202 7.03001 57.3124 1.2 1 0.0234974 0.0158762 0.00473077 0.00559255 0.00125866 0.00540596 0.00108845 0.0236193 0.00184339 0.0104358 0.00156414 0.0280462 0.00243373 0.020555 0.00242834 0.0327492 0.0024242 0.0244592 0.00420345 0.0452606
2 1 Mg -1.82655 6.90154 50.0912 1.2 1 0.172518 0.048677 0.0057341 0.0106833 0.00300466 0.00796228 0.00441033 0.0233509 0.00530332 0.0143763 0.00498787 0.025486 0.00478129 0.0208507 0.00581455 0.0289658 0.00556802 0.0252406 0.0079465 0.033089
3 2 Si -0.257935 3.96038 48.0876 2.4 1 0.222141 0.0540427 0.0106431 0.0140453 0.00251653 0.00905757 0.00408417 0.0207594 0.00622402 0.0164974 0.00427453 0.0242426 0.00544999 0.0206986 0.005883 0.0264681 0.00743427 0.0244086 0.00817545 0.0312711
4 3 O -0.335812 5.46814 47.6264 -1.2 1 0.230016 0.053772 0.0128608 0.0145997 0.00306154 0.0100184 0.00502129 0.0214995 0.00665537 0.0171583 0.00472834 0.0250257 0.0047401 0.0209109 0.00554207 0.0268221 0.00785434 0.0251622 0.00875855 0.0301187
5 3 O -2.03793 3.43377 51.8941 -1.2 1 0.126509 0.0407542 0.00199641 0.00786095 0.00153012 0.00642955 0.00327683 0.0211312 0.00316327 0.011785 0.00327179 0.0249491 0.00364829 0.0186373 0.00384099 0.028388 0.00466072 0.023308 0.00725676 0.0354026
6 3 O -1.54015 3.53929 48.9521 -1.2 1 0.199809 0.0524268 0.00819799 0.0121551 0.00233907 0.00806132 0.00421359 0.0208388 0.00544622 0.0147263 0.00455662 0.0237936 0.00453717 0.0202074 0.006001 0.0269391 0.00578977 0.023475 0.00826832 0.0308336
7 1 Mg 1.82954 2.54582 47.1376 1.2 1 0.244217 0.0538525 0.0149263 0.0170805 0.00328271 0.0108046 0.00404 0.0208076 0.00619007 0.015672 0.00494316 0.0239743 0.00645178 0.0197068 0.00760437 0.0249408 0.00682397 0.0231269 0.0082198 0.0299029
8 3 O 1.22989 3.66364 48.7877 -1.2 1 0.20165 0.050819 0.00834066 0.0131169 0.00226747 0.00890013 0.00433864 0.0210376 0.00446139 0.0150515 0.00366538 0.0237145 0.00444424 0.0200974 0.00597979 0.0264597 0.00511358 0.0238568 0.00843857 0.0318731
9 1 Mg 1.12792 2.28069 54.612 1.2 1 0.0696608 0.0285974 0.00447354 0.00580391 0.00165262 0.0049906 0.00294925 0.0212518 0.0028857 0.0100771 0.00324943 0.0257274 0.00370778 0.0196436 0.00404868 0.0304839 0.00321561 0.0237311 0.00680571 0.0403216
10 2 Si 1.22866 4.8879 56.5589 2.4 1 0.0320263 0.0184942 0.00552308 0.00600365 0.00154169 0.00555688 0.00228506 0.0226399 0.00183539 0.00963654 0.00314768 0.0259656 0.00251288 0.0201938 0.00466103 0.0317929 0.00308791 0.0244122 0.00631286 0.0450464
11 3 O 1.04134 3.41625 56.6612 -1.2 1 0.0303294 0.0172573 0.00535477 0.00586767 0.00164304 0.00533216 0.0020948 0.0223 0.00257676 0.00916399 0.00221845 0.0267879 0.00279229 0.0192301 0.00383233 0.0316901 0.00354514 0.0248771 0.00594015 0.0447778
12 3 O 1.10813 6.07342 52.8172 -1.2 1 0.105155 0.0373371 0.00187218 0.00728795 0.00194772 0.00628334 0.00379428 0.0230079 0.00386126 0.0117851 0.0032499 0.0261189 0.0040334 0.0201825 0.00477829 0.0297802 0.00432305 0.0243842 0.00655398 0.0373763
13 3 O -0.0379305 5.54697 55.8003 -1.2 1 0.0461267 0.0244909 0.00517675 0.00560053 0.00143345 0.00448397 0.0024991 0.0221526 0.002558 0.0102421 0.00257054 0.0268752 0.00277207 0.0202758 0.00446702 0.0320682 0.00292323 0.0240576 0.00581824 0.0429545
14 3 O 2.53687 5.61949 55.8902 -1.2 1 0.0414437 0.0229033 0.00567995 0.00542678 0.00112662 0.00550601 0.00242359 0.0229849 0.00152704 0.0102841 0.00272166 0.0268096 0.00279264 0.0206229 0.00473982 0.0326649 0.00289187 0.0247935 0.00615688 0.0436008
15 1 Mg -0.459401 4.67631 52.2426 1.2 1 0.121578 0.0411305 0.00162598 0.0079225 0.0020455 0.00578908 0.00298361 0.0218965 0.00353719 0.0124608 0.00279687 0.0261104 0.00357874 0.0196188 0.00424736 0.0292108 0.00407084 0.0234279 0.00659368 0.0352036
16 1 Mg 2.79456 3.9971 49.9987 1.2 1 0.172363 0.0498757 0.00515235 0.0109928 0.00238384 0.00735781 0.00498325 0.0214773 0.00369566 0.0145922 0.00283699 0.0241612 0.00451469 0.0207318 0.00597661 0.0278959 0.00447544 0.0240613 0.00859851 0.0320914
17 2 Si 1.16169 6.59457 51.2556 2.4 1 0.144417 0.0463246 0.00221397 0.00987621 0.00237596 0.00758735 0.00442269 0.023108 0.00484815 0.0133452 0.00440457 0.0251544 0.00441626 0.021113 0.00557913 0.0300095 0.00478227 0.0252869 0.00807922 0.0352032
18 3 O 1.28989 8.18905 51.2909 -1.2 1 0.142611 0.0456016 0.00235203 0.00936593 0.00250915 0.00793035 0.00455216 0.0237209 0.00487889 0.013387 0.00341433 0.0272026 0.00462079 0.0215949 0.00423908 0.0301305 0.00567262 0.0260116 0.00758874 0.0364794
19 3 O 1.24349 5.57262 58.0406 -1.2 1 0.0167328 0.0121309 0.00309227 0.00585864 0.00146293 0.00548164 0.00142112 0.0230654 0.00170166 0.0096028 0.00227297 0.0273321 0.00219262 0.0206971 0.00303627 0.0329072 0.00201642 0.0244393 0.00335015 0.046579
20 3 O -0.184847 6.06029 50.6845 -1.2 1 0.158553 0.046546 0.00455227 0.00997839 0.00299368 0.00713512 0.00431805 0.0228358 0.00544086 0.0138318 0.00334991 0.0248286 0.00402909 0.020801 0.00489162 0.0279622 0.00511323 0.0245887 0.00718717 0.0342123
21 1 Mg -3.49704 4.67769 52.6661 1.2 1 0.11401 0.0387225 0.0016801 0.00719706 0.00206646 0.00607424 0.00341661 0.021421 0.00374945 0.0118056 0.00372825 0.0258147 0.00343769 0.0196499 0.00417506 0.0289532 0.00413292 0.0231863 0.00738757 0.0360556
22 3 O 2.48581 5.93312 50.6539 -1.2 1 0.153994 0.0474655 0.00344144 0.00907747 0.00197331 0.00785306 0.00465942 0.0226434 0.00464146 0.0139147 0.00417838 0.0247306 0.00453246 0.0212825 0.00552711 0.0291438 0.00448748 0.0249232 0.00844864 0.0338649
23 1 Mg -1.80203 4.70413 55.1537 1.2 1 0.0515088 0.0261486 0.00627499 0.00582969 0.00150871 0.0050524 0.00225767 0.0222014 0.0031186 0.0104357 0.00334349 0.0270944 0.00216683 0.0203469 0.0041595 0.0319583 0.00392315 0.0242347 0.00652539 0.0416444
24 2 Si -1.96944 2.66564 53.2918 2.4 1 0.102434 0.0363362 0.00250288 0.00728587 0.00248494 0.00586244 0.00261418 0.0212279 0.00327086 0.0112939 0.00308296 0.0251752 0.00341288 0.0197126 0.00319491 0.0292184 0.00457012 0.023121 0.00654602 0.0374704
25 3 O -2.01124 1.04527 53.3185 -1.2 1 0.0991425 0.0345895 0.00288391 0.00744489 0.00266726 0.00566899 0.00254635 0.0210797 0.00301928 0.0105737 0.0030089 0.0255563 0.00336971 0.0189196 0.0045284 0.0294423 0.00372367 0.0233152 0.00730569 0.0378455
26 3 O -0.0467762 2.97103 46.8385 -1.2 1 0.249554 0.0542791 0.0155169 0.0165211 0.00377353 0.00958522 0.00400478 0.0204045 0.00669408 0.0166199 0.00602653 0.0238959 0.00705355 0.0192249 0.00805177 0.0250944 0.00697725 0.0233368 0.00924514 0.0309054
27 3 O -3.15941 3.32536 54.0711 -1.2 1 0.0794865 0.0307269 0.0037567 0.00565541 0.00164029 0.00534974 0.00223763 0.0215467 0.00287413 0.0108417 0.00287423 0.0253328 0.00256257 0.0196685 0.00407742 0.029947 0.00375987 0.0232938 0.00666231 0.0388339
28 3 O -0.626622 3.31396 53.8328 -1.2 1 0.0844518 0.0335084 0.00377862 0.00609984 0.00213692 0.00548925 0.00214643 0.021686 0.00262875 0.0107837 0.0030967 0.0254311 0.00330624 0.019993 0.00431362 0.0303862 0.00382505 0.0240001 0.00652932 0.0378954
29 1 Mg -3.03678 11.7217 57.2442 1.2 1 0.021411 0.0156238 0.00504973 0.00602851 0.000768672 0.00542852 0.00112144 0.0239479 0.00221145 0.0102103 0.00122622 0.0286851 0.00222767 0.0214092 0.0021164 0.0342551 0.00286279 0.0247286 0.00370493 0.0467277
30 1 Mg -1.75014 11.5838 49.8362 1.2 1 0.180239 0.0487059 0.0068798 0.0126246 0.00388814 0.0118611 0.00464129 0.0251694 0.00596521 0.0155616 0.00526566 0.0284504 0.00450952 0.0235318 0.00615678 0.0328133 0.00677925 0.0283991 0.00864831 0.0366982
31 2 Si -1.18003 9.02138 47.9309 2.4 1 0.236803 0.052826 0.0150928 0.015782 0.00509681 0.0123584 0.0077892 0.0236028 0.00874752 0.0166444 0.00709644 0.0263079 0.00528525 0.0224545 0.00644578 0.0295831 0.00889556 0.0280516 0.0115297 0.0334157
32 3 O -1.23224 10.5991 47.9811 -1.2 1 0.226786 0.0536127 0.0129508 0.016167 0.00481692 0.0134466 0.00676137 0.0250392 0.00849086 0.0169628 0.00691736 0.0273694 0.00560407 0.0232743 0.00792946 0.0319302 0.00899808 0.0302898 0.0102086 0.0338708
33 3 O -1.79016 8.01447 51.8693 -1.2 1 0.128805 0.041744 0.00173812 0.00915502 0.00297397 0.0066188 0.0030609 0.023215 0.0041627 0.0127398 0.00357318 0.02684 0.0038408 0.0209081 0.00424016 0.0308132 0.00554666 0.0247984 0.00746364 0.0369633
34 3 O -2.30986 8.37215 48.8528 -1.2 1 0.198778 0.0528217 0.00879781 0.012795 0.00368586 0.00992151 0.00630425 0.0243059 0.0064539 0.0164535 0.0048925 0.0265338 0.00454217 0.022372 0.00521863 0.0301195 0.00694597 0.0274112 0.00857269 0.0329333
35 1 Mg 0.154883 7.08234 46.8007 1.2 1 0.255997 0.0533452 0.0175674 0.0165651 0.0056245 0.0125232 0.00869609 0.0242882 0.00848569 0.0176279 0.00706689 0.0250931 0.00729797 0.0215281 0.00827653 0.02841 0.00964834 0.0277047 0.0121983 0.0306859
36 3 O 0.325447 8.50934 48.3809 -1.2 1 0.213359 0.0544146 0.0108545 0.0145842 0.00360829 0.0112037 0.00640697 0.0246979 0.00713952 0.0165458 0.00557262 0.0259574 0.00514408 0.0233482 0.00517814 0.0295075 0.00723032 0.0281216 0.00969289 0.0327457
37 1 Mg 1.10741 6.93229 54.6455 1.2 1 0.0659664 0.0299211 0.00404479 0.00573194 0.00141827 0.0053857 0.00259002 0.0232054 0.00294028 0.0108886 0.00305769 0.0264558 0.00297725 0.0210151 0.00333358 0.0321805 0.00352026 0.0247592 0.00600172 0.0408486
38 2 Si 1.2859 9.70053 56.3606 2.4 1 0.034351 0.0221523 0.0054292 0.00639027 0.000677159 0.00500875 0.00192977 0.0236614 0.00243029 0.0100413 0.00291687 0.0267214 0.00246972 0.0220094 0.00328076 0.0339693 0.00327095 0.02471 0.00514613 0.0457371
39 3 O 1.18513 8.09265 56.3713 -1.2 1 0.0354185 0.0219715 0.00509065 0.00610259 0.000997437 0.00514734 0.00174102 0.0232063 0.00310791 0.00967778 0.00228565 0.0272556 0.00340724 0.0210248 0.00226327 0.0331739 0.00349574 0.0238578 0.00452911 0.0451036
40 3 O 1.28624 10.7248 52.7351 -1.2 1 0.107362 0.0384642 0.00185426 0.00773627 0.00220948 0.00829349 0.00337366 0.0242221 0.00374513 0.012326 0.00352375 0.0276212 0.00408449 0.0217849 0.00391597 0.0326524 0.00411869 0.0264732 0.00655897 0.0395545
41 3 O 0.0151383 10.4144 55.7554 -1.2 1 0.0469943 0.0257575 0.00478194 0.00600089 0.00126089 0.00535506 0.00217701 0.0240178 0.002298 0.0105195 0.00222983 0.0273255 0.00290323 0.0223271 0.00321763 0.0342646 0.00332357 0.0252733 0.00526333 0.0447183
42 3 O 2.59672 10.32 55.6296 -1.2 1 0.045915 0.0261496 0.00585614 0.00622133 0.00117724 0.00562919 0.00233561 0.0238823 0.00245504 0.0104737 0.00261511 0.0273072 0.00307238 0.0219395 0.00307083 0.0344416 0.00321014 0.0257028 0.00529128 0.0447582
43 1 Mg -0.262694 9.34741 52.2523 1.2 1 0.110306 0.0413684 0.00254515 0.00859756 0.00234717 0.00670868 0.00243416 0.0241206 0.00405932 0.0124604 0.00314064 0.0280563 0.00343273 0.0212829 0.00447163 0.0323854 0.00434796 0.0259909 0.00681968 0.0382158
44 1 Mg 1.87648 9.01537 49.4629 1.2 1 0.182607 0.0539947 0.00588997 0.0116793 0.00268539 0.0099673 0.00659046 0.0244978 0.0060627 0.016023 0.0052525 0.0267766 0.00522924 0.0234791 0.00538232 0.0305793 0.0057811 0.0281727 0.00913797 0.0340671
45 2 Si 1.21415 11.3799 51.2378 2.4 1 0.14441 0.0470359 0.0021339 0.0104381 0.00264891 0.00984726 0.00408259 0.0249202 0.00492293 0.0146649 0.00488557 0.0273495 0.00453822 0.0236786 0.00526576 0.0328603 0.00491533 0.0280791 0.00827088 0.0388056
46 3 O 1.31634 12.9512 51.3023 -1.2 1 0.145723 0.0460341 0.0030609 0.010305 0.00237642 0.010604 0.00370184 0.0252876 0.00494048 0.0150002 0.00352075 0.0289777 0.00429721 0.0247352 0.00432641 0.0337296 0.00557565 0.0288309 0.00754521 0.0400351
47 3 O 1.44751 10.392 57.8403 -1.2 1 0.0169875 0.0133854 0.0036598 0.00611085 0.000679095 0.00529165 0.00127297 0.0240951 0.00218194 0.00964255 0.00215025 0.0276869 0.00238138 0.0213704 0.00287102 0.0339737 0.00262139 0.0241363 0.00358651 0.0473175
48 3 O -0.115718 10.7564 50.681 -1.2 1 0.152918 0.0476308 0.00309557 0.0111738 0.00295823 0.00952459 0.00389131 0.0255022 0.00538288 0.0144949 0.00360255 0.0277125 0.00440224 0.0234284 0.00464275 0.0317069 0.00508725 0.0275325 0.00802674 0.0377146
49 1 Mg -3.26386 9.35564 52.3622 1.2 1 0.119822 0.0409277 0.00161672 0.0080793 0.00182508 0.00837798 0.00388624 0.0240285 0.00433845 0.0130013 0.00404117 0.0272174 0.00356926 0.0219509 0.00447105 0.0320934 0.00448288 0.0261592 0.00724427 0.0370692
50 3 O 2.45216 10.7265 50.4558 -1.2 1 0.160356 0.0490014 0.00365654 0.0102995 0.00261523 0.0104387 0.00500405 0.024279 0.0054793 0.0156478 0.00426833 0.0272806 0.00394769 0.0240738 0.00519228 0.0323144 0.00539428 0.0281238 0.00841766 0.0369218
51 1 Mg -1.67499 9.50268 55.1572 1.2 1 0.0538241 0.0286512 0.0051543 0.0067765 0.00166146 0.00538548 0.00216328 0.0235325 0.00292707 0.0107671 0.00319167 0.0274028 0.00277645 0.0220896 0.00365536 0.0335776 0.00382411 0.0249766 0.00607149 0.0435647
52 2 Si -1.76545 7.32747 53.3628 2.4 1 0.0929902 0.0369541 0.00309658 0.00736516 0.00260906 0.00578548 0.0026571 0.0226223 0.00420587 0.0117597 0.00301118 0.0264127 0.00289673 0.0213991 0.00344984 0.0315491 0.00488919 0.0240575 0.00600291 0.0390566
53 3 O -1.75427 5.78645 53.4423 -1.2 1 0.0945116 0.0340873 0.00197345 0.00670754 0.00206986 0.00544363 0.00237152 0.021612 0.00381263 0.010958 0.00352955 0.0259482 0.00261569 0.0198402 0.0044842 0.0311612 0.003206 0.0236458 0.00678909 0.0381607
54 3 O -1.19417 8.46968 46.4488 -1.2 1 0.269103 0.0534949 0.0204492 0.0181047 0.00566577 0.0136786 0.00907634 0.0253124 0.0086447 0.0175358 0.00745396 0.0255099 0.00624943 0.0208408 0.00906156 0.0296533 0.0102584 0.0295116 0.0112251 0.0305871
55 3 O -3.05724 7.88328 54.0323 -1.2 1 0.0825187 0.0328108 0.00308684 0.00644139 0.00165068 0.00648269 0.00253981 0.0226634 0.00328992 0.0114522 0.00230747 0.0265561 0.0029126 0.0213129 0.00369196 0.0324192 0.00413176 0.0241695 0.00608423 0.0401224
56 3 O -0.534152 8.13034 54.056 -1.2 1 0.0741157 0.0325902 0.00410934 0.00625331 0.00178161 0.00504355 0.00156399 0.0232031 0.00324353 0.0107654 0.00254673 0.0266116 0.00255785 0.0211137 0.00379614 0.0327245 0.00368894 0.0249256 0.00611484 0.0406148
57 1 Mg -3.09576 16.5874 57.4827 1.2 1 0.0208288 0.0142121 0.00530049 0.00612497 0.00104716 0.00619358 0.00113033 0.0239494 0.00192789 0.00958569 0.00153041 0.028727 0.00198214 0.0208435 0.00230929 0.033269 0.00325815 0.0252228 0.00388893 0.0470767
58 1 Mg -1.6714 16.3544 49.8412 1.2 1 0.177312 0.0485395 0.00668098 0.0129908 0.00308638 0.0143164 0.00329801 0.0260569 0.00474604 0.0170207 0.00496646 0.0310558 0.00375006 0.0255845 0.00690179 0.0352072 0.00567377 0.031255 0.00857065 0.0403825
59 2 Si -1.18567 13.8526 47.9314 2.4 1 0.234188 0.0546108 0.0150454 0.0173883 0.00445859 0.0177047 0.00540459 0.0275811 0.00829639 0.0192466 0.00574939 0.0309349 0.00581783 0.0277457 0.00627681 0.0342022 0.0095127 0.0325708 0.0106148 0.037584
60 3 O -1.09664 15.4205 47.9915 -1.2 1 0.230959 0.0532045 0.0143934 0.0177136 0.00473081 0.0187865 0.00480632 0.0276775 0.00768018 0.0193904 0.00605983 0.0312479 0.00558128 0.0273678 0.00786691 0.0353492 0.00871924 0.0334581 0.00996694 0.0387648
61 3 O -1.73493 12.7491 51.7772 -1.2 1 0.132557 0.0427363 0.00200298 0.0104109 0.00277567 0.00933525 0.00188403 0.0251493 0.00436046 0.0140496 0.00320716 0.0289386 0.00408847 0.0235849 0.0042963 0.0334086 0.00547419 0.027694 0.00734586 0.0403909
62 3 O -2.36115 13.2717 48.8238 -1.2 1 0.201058 0.0532003 0.00946515 0.0145824 0.0044712 0.0138654 0.00479743 0.027013 0.00643073 0.0185667 0.00508181 0.030204 0.00439483 0.0260717 0.00584156 0.0343731 0.00770906 0.0314337 0.0090983 0.0374033
63 1 Mg -0.159928 11.7639 46.8533 1.2 1 0.258541 0.0545827 0.0191398 0.0187103 0.00587041 0.0189389 0.00753547 0.0285869 0.00976685 0.0194123 0.00792683 0.0301559 0.00696121 0.0264516 0.00777002 0.0329287 0.0104357 0.0330041 0.0124723 0.0350501
64 3 O 0.2623 13.1866 48.413 -1.2 1 0.211853 0.0538128 0.011258 0.0156398 0.00369987 0.0149382 0.00459728 0.0267843 0.00756387 0.018006 0.00498466 0.0295069 0.00492003 0.0271547 0.0051535 0.0336312 0.00814904 0.0322359 0.00971258 0.0380122
65 1 Mg 1.27018 11.8329 54.5306 1.2 1 0.0725425 0.0322934 0.00344614 0.00629265 0.00181828 0.0065687 0.0027498 0.0241071 0.00325444 0.0117964 0.0024135 0.0279932 0.00330729 0.022737 0.00267261 0.0340215 0.00406547 0.0258091 0.00533494 0.0422203
66 2 Si 1.37531 14.4477 56.3115 2.4 1 0.0342213 0.0213111 0.00622619 0.00695559 0.00124973 0.00566363 0.00196172 0.0233643 0.00204525 0.00981326 0.0029849 0.0276895 0.00222655 0.0220612 0.00334504 0.0347113 0.00327505 0.0253981 0.00452324 0.0475361
67 3 O 1.39595 12.875 56.4916 -1.2 1 0.0309796 0.0201767 0.0054419 0.00668321 0.000868978 0.00513958 0.00175571 0.0235936 0.00302935 0.00972694 0.00161255 0.0282279 0.00273199 0.021406 0.00252369 0.0341734 0.00382158 0.0251388 0.00421818 0.0468975
68 3 O 1.36565 15.4813 52.729 -1.2 1 0.108326 0.0380053 0.00122626 0.00848182 0.00174232 0.0101163 0.00347062 0.0249177 0.00332184 0.0131917 0.00355911 0.0293462 0.00399842 0.0227999 0.0040205 0.0339319 0.00418405 0.0284356 0.00618388 0.0431082
69 3 O 0.0686068 15.0856 55.7462 -1.2 1 0.0464763 0.0248287 0.0054205 0.00649526 0.00114947 0.00605876 0.00220777 0.0233326 0.00193876 0.0103534 0.00239415 0.0279893 0.00269083 0.0218957 0.0030686 0.0351255 0.00331833 0.0265093 0.0050838 0.0464838
70 3 O 2.66049 15.1991 55.6797 -1.2 1 0.0422361 0.0243124 0.00644451 0.00650776 0.00127074 0.0060255 0.00211433 0.0238842 0.00234573 0.0104841 0.00229088 0.0275737 0.00257022 0.022443 0.00286679 0.0348325 0.00352501 0.0266018 0.00482982 0.0473807
71 1 Mg -0.206989 14.1049 52.2121 1.2 1 0.114586 0.0422939 0.00150652 0.00927087 0.0021623 0.00842399 0.00234529 0.0251382 0.00365429 0.0137888 0.00309014 0.0295652 0.00335583 0.0234921 0.00366282 0.0341771 0.00450752 0.0281667 0.00649689 0.0408793
72 1 Mg 1.82591 13.8102 49.4556 1.2 1 0.183455 0.0538933 0.00576704 0.0128818 0.00262244 0.0128302 0.00465282 0.0258156 0.00552386 0.0176423 0.00495113 0.0295146 0.00451411 0.0263228 0.00631092 0.0350034 0.00617243 0.0314842 0.00910849 0.0383564
73 2 Si 1.29285 16.1518 51.2434 2.4 1 0.145224 0.0473244 0.00177278 0.0110965 0.00199905 0.0118499 0.00362618 0.0255613 0.00436975 0.0157952 0.00507912 0.0292029 0.00438561 0.0253261 0.00604038 0.0344918 0.00412124 0.03098 0.0085129 0.0419803
74 3 O 1.39496 17.7199 51.3047 -1.2 1 0.141726 0.0445366 0.00224463 0.0102274 0.00176194 0.0121092 0.00304098 0.0249599 0.00423169 0.0149728 0.00347346 0.0298707 0.0035952 0.024496 0.00446086 0.0344474 0.00516272 0.0304149 0.00727268 0.0426098
75 3 O 1.45049 15.1239 57.8301 -1.2 1 0.0160559 0.0125878 0.00432354 0.00635347 0.000760057 0.00580781 0.00130151 0.0241758 0.00185645 0.00928715 0.00251611 0.0279882 0.00211677 0.0213076 0.00264732 0.0336435 0.00286185 0.0245293 0.00383255 0.0475476
76 3 O -0.0269106 15.5178 50.6688 -1.2 1 0.15429 0.0475359 0.00391031 0.011426 0.00261854 0.0119178 0.00355897 0.0259551 0.00441917 0.015835 0.00323195 0.0294063 0.00439982 0.0259253 0.00491276 0.0342955 0.00450167 0.030894 0.00756236 0.0413034
77 1 Mg -3.18391 14.1057 52.3125 1.2 1 0.121757 0.0417575 0.00121022 0.0089805 0.00163802 0.0103708 0.00285291 0.024946 0.00384596 0.0143228 0.00316749 0.0291147 0.00354412 0.0238611 0.00382653 0.0337971 0.004521 0.0282772 0.00658965 0.0408403
78 3 O 2.52432 15.503 50.4579 -1.2 1 0.159162 0.0492206 0.00386024 0.0110178 0.00208504 0.0126029 0.00370595 0.025301 0.00480559 0.0171141 0.00372264 0.0296049 0.0038232 0.0261027 0.00557065 0.0346273 0.00493065 0.0307267 0.00798512 0.0407443
79 1 Mg -1.6216 14.2683 55.0878 1.2 1 0.0533344 0.0285428 0.00539034 0.00729634 0.00106924 0.00594662 0.00206499 0.0243235 0.00285463 0.0109341 0.00287538 0.0285573 0.00243208 0.0225363 0.00344481 0.0344969 0.00380724 0.0265979 0.00507255 0.0455433
80 2 Si -1.61291 12.0685 53.1894 2.4 1 0.0989062 0.0383643 0.00246087 0.0088147 0.00223937 0.0071696 0.00170523 0.0242467 0.00439049 0.0126887 0.00267138 0.0280533 0.00333787 0.0233859 0.00319955 0.033743 0.00523233 0.0267135 0.00633998 0.0426166
81 3 O -1.67976 10.5645 53.0738 -1.2 1 0.0986054 0.0380699 0.00314231 0.00799071 0.00213043 0.00711342 0.00225398 0.0235287 0.00390834 0.0115053 0.00317125 0.0274279 0.00315613 0.0216902 0.00385254 0.0331016 0.00432178 0.0257719 0.00703688 0.0407796
82 3 O -1.21337 13.3381 46.4311 -1.2 1 0.270602 0.0534236 0.0213 0.0202388 0.00636754 0.0201522 0.00711967 0.0302237 0.00955701 0.0205086 0.00679399 0.0313532 0.00587835 0.0261553 0.00859888 0.0354607 0.0122179 0.0349389 0.0121235 0.0353119
83 3 O -2.88525 12.7967 53.9725 -1.2 1 0.0833821 0.0343761 0.00306522 0.00713566 0.00142965 0.00789676 0.00194795 0.0241022 0.00313077 0.0122873 0.00213056 0.0282241 0.00311101 0.0231321 0.00304047 0.0342654 0.00393782 0.026537 0.00598363 0.0430097
84 3 O -0.316236 12.7956 53.7905 -1.2 1 0.0834588 0.0348114 0.00276951 0.00749128 0.00235393 0.00610398 0.00189556 0.0241748 0.00378216 0.0118445 0.0027822 0.0280149 0.00303858 0.0230123 0.0034959 0.0343494 0.00448799 0.0267748 0.00552704 0.0427708
85 1 Mg -2.94904 21.4169 57.4876 1.2 1 0.0194992 0.0134828 0.00493453 0.0060041 0.00116368 0.00685294 0.000960995 0.0236891 0.00185269 0.00921831 0.0015534 0.0284977 0.00196008 0.0200164 0.00179204 0.0323056 0.00292357 0.0259183 0.00344538 0.0483143
86 1 Mg -1.5831 21.1217 49.8405 1.2 1 0.179079 0.0488082 0.00667513 0.013248 0.00287127 0.0156097 0.00295797 0.0258943 0.0043322 0.0173216 0.00490503 0.0310118 0.00384801 0.0258609 0.00614697 0.0344427 0.00537823 0.0321304 0.00881074 0.0404348
87 2 Si -1.09384 18.6291 47.9287 2.4 1 0.231024 0.0540584 0.0139985 0.0176257 0.00343899 0.0202793 0.00393049 0.0279939 0.00726694 0.0200134 0.00520272 0.0323494 0.00627472 0.0286276 0.00654071 0.0353591 0.00907149 0.0339565 0.0101815 0.0405911
88 3 O -1.02071 20.1985 47.9911 -1.2 1 0.228546 0.0530488 0.0136678 0.0177144 0.0037455 0.0203616 0.00409204 0.027497 0.00656957 0.0197771 0.00542872 0.0318533 0.00574631 0.0276872 0.00782325 0.0355759 0.0078251 0.0345687 0.009588 0.0400501
89 3 O -1.65002 17.5002 51.771 -1.2 1 0.13328 0.0421073 0.00136272 0.0105692 0.00251771 0.0113143 0.00176108 0.0251539 0.00316886 0.0143983 0.00274854 0.0297436 0.0037776 0.0240503 0.00421002 0.0339418 0.00541782 0.029388 0.00704733 0.0427207
90 3 O -2.26174 18.0434 48.8281 -1.2 1 0.203114 0.0532549 0.00906143 0.0149086 0.00331934 0.0167976 0.00409888 0.0274497 0.00562922 0.0194134 0.00446552 0.0315424 0.00454231 0.0273828 0.00623222 0.0354215 0.00700748 0.0334262 0.00879998 0.0398848
91 1 Mg -0.0440435 16.5651 46.8269 1.2 1 0.254361 0.0542232 0.0177455 0.0198327 0.00462141 0.0232846 0.00534195 0.0311452 0.00865904 0.0216614 0.00597835 0.0338496 0.00640144 0.0289001 0.00773421 0.0352607 0.00966093 0.0361201 0.0110977 0.0394358
92 3 O 0.37001 17.9877 48.3925 -1.2 1 0.212621 0.0538051 0.010418 0.0162978 0.00317099 0.0174511 0.00349512 0.0278335 0.00606765 0.0195185 0.00332671 0.0314575 0.00495746 0.0285881 0.00590483 0.0347615 0.00746628 0.0348889 0.00903149 0.0407221
93 1 Mg 1.34088 16.5163 54.679 1.2 1 0.0668339 0.0300924 0.00453498 0.00663721 0.00129127 0.00731536 0.00285064 0.0235137 0.00262556 0.0114019 0.00220677 0.0286596 0.00352874 0.0228334 0.0031012 0.034725 0.00389969 0.0266031 0.00525467 0.0456302
94 2 Si 1.44837 19.2231 56.3059 2.4 1 0.0335027 0.0198887 0.00625914 0.00697652 0.00118982 0.0066417 0.00202826 0.0227466 0.00209834 0.00938766 0.00332214 0.0274847 0.00257304 0.0216927 0.00386704 0.0333051 0.00351629 0.0257622 0.00548066 0.0485537
95 3 O 1.47683 17.7211 56.554 -1.2 1 0.0272551 0.0173887 0.00574237 0.00669528 0.00115055 0.00576111 0.00184971 0.0235063 0.00265566 0.00882914 0.00214369 0.0281327 0.00254362 0.0206062 0.00306636 0.0333054 0.00386875 0.0254375 0.00393066 0.0480689
96 3 O 1.45147 20.239 52.7294 -1.2 1 0.107771 0.0374329 0.00127406 0.00818431 0.00135628 0.0112554 0.0032756 0.0239755 0.00282407 0.0129541 0.00299524 0.0288152 0.00380177 0.022485 0.00339564 0.0334686 0.00420261 0.0290355 0.00648149 0.0441416
97 3 O 0.213295 19.8286 55.7184 -1.2 1 0.0488436 0.0244366 0.00499854 0.0063136 0.00103498 0.00695955 0.00216068 0.0231383 0.00190985 0.0102525 0.00234369 0.0277803 0.00267714 0.0217629 0.00350309 0.0336042 0.00321796 0.0265634 0.00489945 0.0471235
98 3 O 2.63789 19.7905 55.6355 -1.2 1 0.0444172 0.0241353 0.00621537 0.00636381 0.00133531 0.00688522 0.00261323 0.0233132 0.00234097 0.0100884 0.0020883 0.0278426 0.00292359 0.0214169 0.00317062 0.033475 0.00331549 0.0266924 0.00529032 0.0481154
99 1 Mg -0.126194 18.8651 52.2079 1.2 1 0.113966 0.0412971 0.00185895 0.00919951 0.00183625 0.0097989 0.00232648 0.0244326 0.00272731 0.0139938 0.00308152 0.0296311 0.00335391 0.0233793 0.00385378 0.0337762 0.00420482 0.0295018 0.00677152 0.0427905
100 1 Mg 1.92402 18.5815 49.4545 1.2 1 0.181116 0.0531383 0.00491757 0.012511 0.001674 0.0145861 0.00417936 0.025895 0.00442594 0.0185565 0.00355343 0.0308645 0.00463267 0.0268393 0.00489327 0.0356275 0.0062172 0.0330328 0.00853609 0.0409077
101 2 Si 1.38106 20.9117 51.2443 2.4 1 0.144036 0.0465552 0.00145842 0.0106067 0.00200168 0.0130493 0.00386076 0.025119 0.00333236 0.0156776 0.00476557 0.0289721 0.00424427 0.0250201 0.00577192 0.0336656 0.00376248 0.0316606 0.00825671 0.0426043
102 3 O 1.48527 22.4795 51.3054 -1.2 1 0.140923 0.0437607 0.00224941 0.00975002 0.00145229 0.0128406 0.00315056 0.0245804 0.00365708 0.014931 0.00302788 0.0293555 0.0037658 0.0240912 0.00353918 0.0334738 0.0051737 0.0309931 0.00727702 0.0425787
103 3 O 1.45454 19.9244 57.8646 -1.2 1 0.0156513 0.0113672 0.00404624 0.00625588 0.000947246 0.00654645 0.00146073 0.0236535 0.00182172 0.00883666 0.0021989 0.0279477 0.00240665 0.0205695 0.00291124 0.0326369 0.00265799 0.0250595 0.00385388 0.0485469
104 3 O 0.0615419 20.2804 50.6669 -1.2 1 0.153358 0.0465972 0.0029954 0.0114975 0.00296633 0.0132978 0.00359722 0.0255244 0.00368758 0.0155831 0.00311779 0.0295806 0.00407864 0.0257461 0.00517702 0.0340359 0.00434431 0.031663 0.00795846 0.0422892
105 1 Mg -3.09665 18.8643 52.3122 1.2 1 0.122026 0.0412801 0.00095077 0.0088942 0.00150434 0.0115769 0.00280451 0.0245688 0.00285484 0.0144891 0.00284385 0.0292694 0.00332989 0.0239911 0.00335536 0.0337423 0.00474466 0.0295444 0.00644886 0.0423401
106 3 O 2.61548 20.2646 50.4626 -1.2 1 0.15785 0.0486154 0.0031362 0.0106616 0.00172171 0.0138638 0.00369884 0.0251235 0.00366335 0.0169605 0.00346673 0.0294406 0.00373883 0.0260107 0.0051169 0.0342924 0.00461188 0.031647 0.00786455 0.0414525
107 1 Mg -1.51359 19.0484 55.0855 1.2 1 0.0534163 0.0270887 0.00543761 0.00691325 0.00173677 0.00663009 0.00223134 0.0239398 0.00225497 0.0107281 0.00290216 0.0284141 0.00247932 0.0217081 0.00388197 0.0330538 0.00445043 0.026933 0.00516657 0.0464726
108 2 Si -1.61099 16.8421 53.21 2.4 1 0.0977532 0.0369037 0.00270965 0.00872173 0.00196722 0.00817136 0.0015229 0.0238939 0.00341307 0.0126247 0.00241411 0.0285029 0.00300253 0.0236945 0.00313394 0.0336732 0.00483211 0.0279678 0.00581621 0.0448488
109 3 O -1.6657 15.289 53.238 -1.2 1 0.0938079 0.0360394 0.00291266 0.00835259 0.00210764 0.00789903 0.00158181 0.0238351 0.00346957 0.0119085 0.00275904 0.0288148 0.00284486 0.0228737 0.00379412 0.034246 0.00404035 0.0269911 0.00650838 0.0441261
110 3 O -1.12868 18.1227 46.4249 -1.2 1 0.268452 0.0543521 0.0198228 0.0211566 0.00537944 0.0237328 0.00581239 0.0316256 0.00756355 0.021565 0.00563168 0.0339599 0.00680323 0.0270983 0.0086334 0.0372282 0.0112392 0.0374082 0.0115286 0.0393976
111 3 O -2.90615 17.5034 53.9367 -1.2 1 0.0810142 0.0325091 0.00354974 0.00698375 0.00147304 0.00858178 0.00193314 0.0239227 0.00237568 0.0118677 0.0020916 0.0283562 0.00279331 0.022976 0.0026277 0.0338568 0.00381984 0.0273567 0.0056144 0.0448963
112 3 O -0.292899 17.4862 53.9487 -1.2 1 0.0763439 0.0327986 0.00412994 0.00730269 0.00194714 0.00659354 0.00137145 0.0238361 0.00268985 0.0112123 0.00258663 0.0280026 0.00268006 0.0226649 0.00320102 0.0342583 0.00425599 0.0276637 0.00571025 0.0448737
113 1 Mg -2.82594 26.1984 57.5351 1.2 1 0.0187811 0.0143397 0.00453948 0.00628816 0.000926959 0.00656497 0.000768863 0.023652 0.00202074 0.00899901 0.00150659 0.0282308 0.00211206 0.0190758 0.00185824 0.0322483 0.00279156 0.0259514 0.00300466 0.0486963
114 1 Mg -1.48778 25.88 49.8402 1.2 1 0.179897 0.0496746 0.00678536 0.0131618 0.00257587 0.0162057 0.0030293 0.0260272 0.00438046 0.0172347 0.00443188 0.0310592 0.00373972 0.0252845 0.00577669 0.0338883 0.00555819 0.0323163 0.00899329 0.0394214
115 2 Si -1.00491 23.3922 47.9274 2.4 1 0.23368 0.0554448 0.0145128 0.0184604 0.00356878 0.0214927 0.00400943 0.0277425 0.00719129 0.0203237 0.0045828 0.0320923 0.00629797 0.0283638 0.00611674 0.0348039 0.00885355 0.034839 0.0100499 0.0396293
116 3 O -0.927602 24.9615 47.9909 -1.2 1 0.227945 0.0538578 0.013811 0.0177459 0.00349361 0.0207637 0.00394508 0.0277423 0.00684221 0.0196828 0.00519279 0.0315869 0.00566438 0.0271938 0.00723278 0.0350369 0.00807859 0.0349489 0.00945105 0.0393799
117 3 O -1.55795 22.2588 51.7696 -1.2 1 0.132385 0.042002 0.00169112 0.0102678 0.00263852 0.0121284 0.00178967 0.0242766 0.00289882 0.0141059 0.00256237 0.0292877 0.00371832 0.023354 0.00396883 0.0330322 0.00519417 0.0298253 0.00733624 0.0427035
118 3 O -2.17411 22.8111 48.8277 -1.2 1 0.20016 0.053412 0.00892577 0.0148386 0.00280866 0.0173794 0.00347638 0.0273273 0.00495632 0.0195763 0.00397919 0.0314476 0.00447649 0.026763 0.00541247 0.0345068 0.00648657 0.0341866 0.00864259 0.0393228
119 1 Mg 0.0423997 21.3296 46.8225 1.2 1 0.255655 0.0553239 0.0178973 0.020693 0.00435131 0.0247854 0.00516335 0.0308346 0.00790315 0.0223178 0.00556735 0.0339742 0.00692122 0.0287626 0.00837263 0.0351398 0.00917646 0.037188 0.0109767 0.0397294
120 3 O 0.458537 22.7495 48.3911 -1.2 1 0.213679 0.0548644 0.010636 0.0164575 0.00327023 0.0186922 0.00313026 0.0276547 0.00590141 0.0196159 0.00312792 0.0311416 0.00510267 0.0281304 0.00541059 0.0342335 0.00722375 0.0357834 0.00887101 0.0402621