ITEM: TIMESTEP
42600
ITEM: NUMBER OF ATOMS
10500
ITEM: BOX BOUNDS xy xz yz pp pp pp
0	8.9688	2.9896
0	118.725	0
0	252.977	0
ITEM: ATOMS id type element xu yu zu q Q_1 Q_2 Q_3 Q_4 Q_5 Q_6 Q_7 Q_8 Q_9 Q_10 Q_11 Q_12 Q_13 Q_14 Q_15 Q_16 Q_17 Q_18 Q_19 Q_20 Q_21
1 1 Mg -3.41383 7.08618 57.5734 1.2 1 0.0215799 0.0143322 0.00525241 0.00566344 0.00141885 0.00633865 0.001041 0.022505 0.00173846 0.00914086 0.00165451 0.0275913 0.00261252 0.0186788 0.00270239 0.0313124 0.00310632 0.0253216 0.00390808 0.0448404
2 1 Mg -1.82655 6.90154 50.0912 1.2 1 0.174818 0.0484398 0.00614565 0.0102744 0.00286215 0.00845837 0.00426166 0.0230659 0.00527479 0.0146975 0.00462809 0.0252849 0.00473717 0.0211141 0.00590816 0.028812 0.00586367 0.0259931 0.00864543 0.0342474
3 2 Si -0.257935 3.96038 48.0876 2.4 1 0.224044 0.0534817 0.0114133 0.0124501 0.0021723 0.00947706 0.00402885 0.0206552 0.00588058 0.0170305 0.00487941 0.0242279 0.00505608 0.0206742 0.00553264 0.0264473 0.00727665 0.0251385 0.00908951 0.0325225
4 3 O -0.335812 5.46814 47.6264 -1.2 1 0.231448 0.0527291 0.0132755 0.0135824 0.00297312 0.0102993 0.00472646 0.0213534 0.00642475 0.0174215 0.00504968 0.0248212 0.00454198 0.0210788 0.00573552 0.0266666 0.00739181 0.0258619 0.010154 0.031076
5 3 O -2.03793 3.43377 51.8941 -1.2 1 0.126682 0.0416022 0.00171258 0.00745899 0.00161265 0.00675507 0.00295619 0.0209908 0.00315536 0.0110529 0.00279273 0.0248642 0.003323 0.0174408 0.00370513 0.0281971 0.00464642 0.0240976 0.00707174 0.0369098
6 3 O -1.54015 3.53929 48.9521 -1.2 1 0.201556 0.0514184 0.00871424 0.0110752 0.00229271 0.00824238 0.00363552 0.0202 0.00518909 0.0150987 0.00456811 0.0238005 0.00393247 0.0196228 0.00563123 0.0271419 0.00582712 0.0243319 0.00919233 0.032285
7 1 Mg 1.82954 2.54582 47.1376 1.2 1 0.246533 0.0529949 0.0159505 0.0156498 0.00278147 0.0110082 0.00333449 0.0202281 0.00595166 0.0160406 0.00472981 0.0239381 0.00565494 0.0196217 0.00689182 0.0250348 0.00642878 0.0238348 0.00904176 0.0303828
8 3 O 1.22989 3.66364 48.7877 -1.2 1 0.204584 0.0507919 0.00932316 0.0120132 0.00195194 0.00932965 0.00404637 0.0206494 0.00415355 0.0150798 0.0042213 0.0237433 0.00466881 0.0195685 0.00645825 0.0263034 0.00482038 0.0243158 0.00925994 0.0331253
9 1 Mg 0.93263 2.34823 54.6872 1.2 1 0.0664246 0.0298589 0.00481401 0.00510719 0.00100427 0.00511315 0.00286741 0.021257 0.00257305 0.00907103 0.00255703 0.026003 0.00331241 0.0186891 0.00390399 0.0298038 0.00294455 0.0237951 0.00586772 0.0415957
10 2 Si 1.08933 5.05903 56.5925 2.4 1 0.0304059 0.0188557 0.00591079 0.00589164 0.00106987 0.00617098 0.00232033 0.0219025 0.00199314 0.00829761 0.0030988 0.0260676 0.00259129 0.0186725 0.00441537 0.0304614 0.00312541 0.0247537 0.00541116 0.0454866
11 3 O 0.88396 3.50467 56.6059 -1.2 1 0.0305065 0.0187688 0.00560266 0.00551288 0.00135167 0.00571712 0.00180363 0.0220018 0.00280334 0.00774838 0.00163544 0.0259989 0.00285514 0.0179355 0.00250683 0.0303889 0.00355338 0.0250206 0.00439124 0.0449258
12 3 O 1.10813 6.07342 52.8172 -1.2 1 0.104408 0.0371008 0.0022605 0.00717441 0.00203496 0.00719745 0.00351196 0.0227356 0.0036166 0.0111273 0.00308158 0.0261609 0.00391251 0.0187768 0.00477447 0.0295166 0.00423918 0.0251481 0.00646547 0.0387617
13 3 O -0.263316 5.74374 55.9855 -1.2 1 0.0412107 0.0231361 0.00644076 0.00536269 0.00113643 0.00538266 0.00251845 0.0226927 0.00215658 0.0092556 0.00289993 0.0264441 0.00279999 0.0186901 0.00514935 0.0306161 0.00314357 0.0252985 0.00539601 0.0439406
14 3 O 2.35004 5.72094 55.9164 -1.2 1 0.0396468 0.0227721 0.00633558 0.00542326 0.00101825 0.0059091 0.00229329 0.022435 0.00204043 0.00899989 0.00216374 0.0262467 0.00285905 0.0188776 0.00333344 0.0316847 0.00315357 0.0258492 0.00482888 0.0433672
15 1 Mg -0.459401 4.67631 52.2426 1.2 1 0.122154 0.0413431 0.00161517 0.00721779 0.00204243 0.00665922 0.00259667 0.0218946 0.00350715 0.0118445 0.00260125 0.0258866 0.00360836 0.018823 0.00385598 0.0284058 0.00410521 0.0241722 0.006113 0.0364696
16 1 Mg 2.79456 3.9971 49.9987 1.2 1 0.174914 0.0500696 0.00550931 0.0102314 0.00266442 0.00758855 0.00467412 0.0214142 0.003515 0.014716 0.00287232 0.0243556 0.00461695 0.0200917 0.00645275 0.0276203 0.00447399 0.0247717 0.00967983 0.0337488
17 2 Si 1.16169 6.59457 51.2556 2.4 1 0.145471 0.04588 0.00209222 0.00890071 0.00240817 0.00808426 0.00413457 0.0223712 0.00477063 0.0134284 0.00444472 0.0248096 0.00418115 0.0210051 0.00637561 0.0299653 0.00494416 0.0259732 0.00871597 0.0367345
18 3 O 1.28989 8.18905 51.2909 -1.2 1 0.14446 0.0453044 0.00236686 0.00909433 0.00261713 0.00906315 0.00447153 0.0225006 0.00451965 0.0139503 0.00406687 0.0267595 0.00442603 0.0218449 0.0047218 0.0298228 0.00565142 0.0264971 0.00752661 0.0374026
19 3 O 1.10253 5.76501 57.9899 -1.2 1 0.0174236 0.0117385 0.00387246 0.00581106 0.00102094 0.00658944 0.00153449 0.0222699 0.00186943 0.00822456 0.00252258 0.0267699 0.00256318 0.0184656 0.00340999 0.0312017 0.00284716 0.0253103 0.00397719 0.0457303
20 3 O -0.184847 6.06029 50.6845 -1.2 1 0.15965 0.0458937 0.0047547 0.0094238 0.00270189 0.00758444 0.00400216 0.0222984 0.00473584 0.0137223 0.00309678 0.0248213 0.00403666 0.0202002 0.00514343 0.0283289 0.00523741 0.025498 0.00811901 0.0359386
21 1 Mg -3.49704 4.67769 52.6661 1.2 1 0.113733 0.0390457 0.00140694 0.00680898 0.00177082 0.00678958 0.00324721 0.0211476 0.00385436 0.010782 0.00342786 0.0256171 0.00359471 0.0184445 0.00417459 0.0284983 0.00385388 0.0237933 0.0065855 0.0374851
22 3 O 2.48581 5.93312 50.6539 -1.2 1 0.156009 0.0475171 0.00360819 0.00851843 0.00159594 0.00837697 0.00437868 0.0223851 0.0044471 0.013956 0.00389855 0.0244761 0.00451394 0.0207743 0.00575981 0.0290172 0.00460532 0.0256636 0.00837205 0.0354968
23 1 Mg -1.93274 4.74519 55.2551 1.2 1 0.0488635 0.0259539 0.0067533 0.00546637 0.00124624 0.00566216 0.0019684 0.0217566 0.00327627 0.00889778 0.00308951 0.0265846 0.0021608 0.0187633 0.00365725 0.0304032 0.00358439 0.0247685 0.00560415 0.0422171
24 2 Si -1.9267 2.67436 53.2757 2.4 1 0.0994286 0.0369193 0.00234908 0.00642283 0.00238703 0.00609537 0.00245141 0.0212349 0.00354536 0.0101241 0.00242585 0.0249449 0.00263779 0.0186139 0.00291547 0.0285694 0.00392904 0.0237858 0.00595338 0.0388935
25 3 O -2.12643 1.12386 53.1608 -1.2 1 0.098387 0.0366751 0.00243991 0.00650477 0.00265492 0.00585812 0.00252321 0.0210943 0.00334575 0.00981631 0.00227495 0.0254957 0.00310347 0.0183325 0.00387279 0.02883 0.00386603 0.0232567 0.00630311 0.0391065
26 3 O -0.0467762 2.97103 46.8385 -1.2 1 0.251391 0.0535337 0.0162699 0.0150501 0.00278949 0.00989888 0.00371066 0.020067 0.00661141 0.0167408 0.00614253 0.0238339 0.00679683 0.0192845 0.00809657 0.0250325 0.00685396 0.0240463 0.0102504 0.0316413
27 3 O -3.19741 3.34228 54.159 -1.2 1 0.0780391 0.031827 0.00380034 0.00506036 0.00160504 0.00555021 0.00216967 0.0212448 0.00319379 0.00958936 0.00218852 0.0250637 0.00239495 0.0182812 0.00344588 0.0292468 0.00341757 0.0235488 0.00534268 0.0399539
28 3 O -0.614001 3.24689 53.9981 -1.2 1 0.0794372 0.0330693 0.00405541 0.00552388 0.00170548 0.00600718 0.00191435 0.0218491 0.00329386 0.00966468 0.00164418 0.0254308 0.00293809 0.0188468 0.00327153 0.0294866 0.0035887 0.0244427 0.00540224 0.0406147
29 1 Mg -3.38215 11.9679 57.4817 1.2 1 0.0226718 0.0139022 0.00514865 0.00637055 0.00158632 0.00667466 0.00153518 0.0229703 0.00183868 0.00993759 0.00222545 0.0275023 0.00267828 0.0198689 0.00263879 0.0321399 0.00347328 0.0251738 0.00433316 0.0445275
30 1 Mg -1.75014 11.5838 49.8362 1.2 1 0.179576 0.049531 0.00731794 0.0125936 0.0040362 0.0125664 0.00443949 0.0245793 0.00586863 0.0163722 0.00482186 0.0285288 0.00424166 0.0243564 0.00613949 0.0326565 0.00664325 0.0289149 0.00861173 0.0363983
31 2 Si -1.18003 9.02138 47.9309 2.4 1 0.236749 0.0527006 0.0152406 0.0154379 0.00500211 0.0126394 0.00756627 0.0231149 0.00813792 0.0176396 0.00731774 0.0261831 0.00483308 0.023384 0.00661968 0.0296838 0.00870884 0.0282787 0.0121632 0.034143
32 3 O -1.23224 10.5991 47.9811 -1.2 1 0.228054 0.0540887 0.0135705 0.0161075 0.00523344 0.0140128 0.00621321 0.0243958 0.00798143 0.0178995 0.00740763 0.0277451 0.00523704 0.0242559 0.00819372 0.0323531 0.00916713 0.0307422 0.011178 0.0344452
33 3 O -1.79016 8.01447 51.8693 -1.2 1 0.130002 0.0415495 0.00146748 0.00885138 0.00303448 0.0072023 0.00302815 0.0227785 0.00403391 0.0128333 0.00374812 0.0268119 0.00361502 0.0205485 0.00452254 0.0301277 0.00518285 0.0254664 0.00771872 0.0380794
34 3 O -2.30986 8.37215 48.8528 -1.2 1 0.202573 0.053042 0.00924287 0.0123463 0.00383607 0.0100447 0.00619936 0.0235862 0.00637523 0.0173449 0.00505396 0.0261714 0.00417598 0.0232882 0.00594378 0.0304809 0.00675421 0.0278265 0.00960798 0.033801
35 1 Mg 0.154883 7.08234 46.8007 1.2 1 0.256384 0.0529567 0.0177979 0.0157852 0.0052457 0.0130067 0.00849058 0.0237261 0.00771529 0.0176489 0.00720176 0.0249191 0.00676407 0.0220507 0.00804947 0.0282505 0.00962253 0.0281102 0.0130313 0.0312524
36 3 O 0.325447 8.50934 48.3809 -1.2 1 0.215804 0.0540214 0.0111535 0.0139382 0.00384976 0.0118018 0.00631817 0.0243854 0.00676864 0.0172948 0.00619838 0.0259553 0.00497933 0.0242648 0.00569098 0.0297601 0.00731041 0.028771 0.0106127 0.0339313
37 1 Mg 1.22263 7.09201 54.6608 1.2 1 0.0657147 0.0298972 0.00499189 0.00578831 0.00155293 0.00598327 0.00265949 0.0222982 0.00260774 0.0102557 0.00277045 0.0266369 0.00292187 0.0196545 0.00310239 0.0307553 0.00355214 0.0245785 0.00580986 0.0413368
38 2 Si 1.02237 9.69531 56.4001 2.4 1 0.0331928 0.0199502 0.00671046 0.00673666 0.0011057 0.00615457 0.00222269 0.0226973 0.00220367 0.00936689 0.0031543 0.0266191 0.00250358 0.0198481 0.00402987 0.0320861 0.00358823 0.024929 0.00590864 0.0452261
39 3 O 1.07471 8.12178 56.5684 -1.2 1 0.0305946 0.0188042 0.00639445 0.00617033 0.000875523 0.00620469 0.00213235 0.0221448 0.0032257 0.0084773 0.00197387 0.0269663 0.00294821 0.0184308 0.00270192 0.0313828 0.00379346 0.0246243 0.00502972 0.0448023
40 3 O 1.28624 10.7248 52.7351 -1.2 1 0.10923 0.038369 0.00156658 0.00803715 0.00234214 0.00960291 0.00309143 0.0236107 0.00363268 0.0127468 0.00351023 0.0272894 0.00426097 0.021891 0.0041099 0.031846 0.00413528 0.0266417 0.00673894 0.0395609
41 3 O -0.336389 10.4686 55.8261 -1.2 1 0.0473478 0.0245041 0.00585253 0.00654814 0.00095213 0.00700014 0.00219232 0.0238474 0.00192868 0.010747 0.00213835 0.0271022 0.00257353 0.0206686 0.00405211 0.0323399 0.00358825 0.0260483 0.00534267 0.0443098
42 3 O 2.244 10.3176 55.5906 -1.2 1 0.0469814 0.0254531 0.00663246 0.00635493 0.00108479 0.00670599 0.00227794 0.0230548 0.00279717 0.0100978 0.00223349 0.0272262 0.00324091 0.0208097 0.00341261 0.0324706 0.00347899 0.0256658 0.00562824 0.0434769
43 1 Mg -0.262694 9.34741 52.2523 1.2 1 0.110807 0.0409196 0.00233516 0.00820327 0.0026989 0.00801265 0.00280945 0.0237857 0.00360083 0.0126524 0.00371179 0.0274924 0.00351022 0.0213987 0.00525125 0.0314389 0.00442182 0.0267006 0.0073649 0.0384489
44 1 Mg 1.87648 9.01537 49.4629 1.2 1 0.181586 0.0530802 0.00583235 0.0110241 0.00290142 0.0103218 0.00624527 0.0235459 0.00552288 0.0164548 0.0050008 0.0267133 0.00454233 0.0236626 0.0061954 0.0312059 0.00535606 0.028249 0.00972801 0.0354328
45 2 Si 1.21415 11.3799 51.2378 2.4 1 0.144232 0.0467571 0.00197055 0.0103701 0.00303157 0.0110863 0.00385512 0.0243601 0.00452799 0.0151317 0.00463858 0.027241 0.00413387 0.0242552 0.00567735 0.0322629 0.00472531 0.0286866 0.00829856 0.0387206
46 3 O 1.31634 12.9512 51.3023 -1.2 1 0.147012 0.0469381 0.00285049 0.0103225 0.00290457 0.0116782 0.00360214 0.0242717 0.0050536 0.0153861 0.00376471 0.0283339 0.0045077 0.0252282 0.00482282 0.0331976 0.00491319 0.0290834 0.00769798 0.0389854
47 3 O 1.24073 10.4529 57.8401 -1.2 1 0.019301 0.0121948 0.00484683 0.0062681 0.00119685 0.00685541 0.00152868 0.0228166 0.00175036 0.00909286 0.00272929 0.0270487 0.00279631 0.0194948 0.00341159 0.0318394 0.0033302 0.024922 0.0040356 0.0459167
48 3 O -0.115718 10.7564 50.681 -1.2 1 0.155742 0.04789 0.00356184 0.0113373 0.00354356 0.0105657 0.00426184 0.0243411 0.00486288 0.0149731 0.00389679 0.0275759 0.00401875 0.0238903 0.00517704 0.031478 0.00476851 0.0280354 0.00851234 0.0375314
49 1 Mg -3.26386 9.35564 52.3622 1.2 1 0.118722 0.0399935 0.000881135 0.00777641 0.00204755 0.00928891 0.00352485 0.0233197 0.00398982 0.0129612 0.00390527 0.0271302 0.00328295 0.0213726 0.00439705 0.0313965 0.00449331 0.0262771 0.00701075 0.037522
50 3 O 2.45216 10.7265 50.4558 -1.2 1 0.158854 0.0492513 0.00404619 0.00974948 0.00270925 0.0115683 0.00474153 0.0239622 0.00496607 0.0160993 0.00429767 0.0272033 0.00385618 0.0244299 0.00565676 0.0321956 0.00530612 0.028143 0.00830739 0.0372534
51 1 Mg -1.83575 9.39421 55.1223 1.2 1 0.0532782 0.0270833 0.00605588 0.00638011 0.00188622 0.0065613 0.00218556 0.0228846 0.00290669 0.0100533 0.00321924 0.0268125 0.00235293 0.0202902 0.00420922 0.0319309 0.00410769 0.0257805 0.00584603 0.0430902
52 2 Si -1.83147 7.47646 53.333 2.4 1 0.0968034 0.0369239 0.00290231 0.00714781 0.00303688 0.00647443 0.0029127 0.0220674 0.00423641 0.0117746 0.00321888 0.0263619 0.00289852 0.0205947 0.00390106 0.0302348 0.00505821 0.0245358 0.00608398 0.0397693
53 3 O -1.80944 5.91447 53.4281 -1.2 1 0.0912107 0.0343734 0.00297895 0.0060702 0.00188888 0.00637299 0.00242377 0.0217986 0.00396392 0.0101479 0.00294346 0.0255399 0.00257664 0.0187476 0.00419569 0.0302671 0.00370238 0.024721 0.00594862 0.0395629
54 3 O -1.19417 8.46968 46.4488 -1.2 1 0.268821 0.0533552 0.0204518 0.0174728 0.00532018 0.0140073 0.00903276 0.0250055 0.00821533 0.0177406 0.00785433 0.0256885 0.0059737 0.0218028 0.00925622 0.0298928 0.0101432 0.0297613 0.0125894 0.0311518
55 3 O -3.15529 8.07659 53.9707 -1.2 1 0.0833759 0.0328975 0.00344514 0.00638256 0.00235031 0.00752572 0.00263788 0.0226414 0.00343732 0.0111992 0.00270827 0.0260665 0.00252758 0.0202553 0.00341959 0.0312624 0.00453865 0.0252707 0.00607616 0.0402558
56 3 O -0.602747 8.16989 54.0321 -1.2 1 0.0745325 0.0319684 0.00490306 0.00636806 0.00259358 0.00605456 0.00179621 0.022781 0.0033147 0.0108353 0.00259024 0.026205 0.00223199 0.0201402 0.00360645 0.0312082 0.00441277 0.0257579 0.00577879 0.0414222
57 1 Mg -3.17782 16.44 57.3839 1.2 1 0.0232032 0.0144858 0.00543398 0.00649261 0.00140514 0.00673836 0.00191612 0.023205 0.00202762 0.0102136 0.00210739 0.0265416 0.00223311 0.0203763 0.00276447 0.031678 0.00392674 0.0254406 0.00455584 0.044577
58 1 Mg -1.6714 16.3544 49.8412 1.2 1 0.179084 0.050619 0.00763464 0.0134767 0.00326407 0.0154957 0.00270654 0.0261243 0.00456393 0.0183356 0.00431606 0.0308265 0.00405998 0.0273256 0.00616331 0.0344936 0.00580219 0.0315957 0.00894332 0.0390588
59 2 Si -1.18567 13.8526 47.9314 2.4 1 0.233743 0.0559374 0.0156788 0.0176852 0.00469147 0.0183176 0.0050699 0.0274156 0.00850512 0.0201571 0.00633858 0.0309842 0.00572309 0.0289646 0.0067914 0.0344194 0.00936925 0.0330646 0.0115393 0.0368627
60 3 O -1.09664 15.4205 47.9915 -1.2 1 0.228375 0.054613 0.0151319 0.0176223 0.00499328 0.0193884 0.00399037 0.0272656 0.00771086 0.0198712 0.00653335 0.0311564 0.00547947 0.0283096 0.00786556 0.035353 0.00893599 0.0337784 0.0105234 0.0377893
61 3 O -1.73493 12.7491 51.7772 -1.2 1 0.133044 0.043152 0.00241625 0.0104481 0.00319871 0.0104539 0.00191831 0.0249306 0.00415201 0.0147753 0.00333766 0.0285568 0.00405767 0.0243513 0.00396606 0.0328052 0.00488306 0.0279193 0.00683426 0.0395673
62 3 O -2.36115 13.2717 48.8238 -1.2 1 0.202817 0.0550629 0.0103423 0.014604 0.00450224 0.0146769 0.0044597 0.026836 0.00666454 0.0193636 0.00533245 0.0302351 0.00456485 0.0272934 0.00603868 0.0346399 0.00736075 0.0320906 0.00952618 0.0370052
63 1 Mg -0.159928 11.7639 46.8533 1.2 1 0.254994 0.0548536 0.0189156 0.0187009 0.00581354 0.0196285 0.0069249 0.0281945 0.00952926 0.0200504 0.00778338 0.0304217 0.00653994 0.0273978 0.00797398 0.0334657 0.0104289 0.0338616 0.0136791 0.0350474
64 3 O 0.2623 13.1866 48.413 -1.2 1 0.208598 0.0541923 0.0114551 0.0151931 0.00397102 0.0160074 0.00432468 0.0268519 0.00737314 0.0187516 0.00509336 0.0292636 0.00480048 0.0282462 0.00544645 0.0340204 0.00769093 0.0329894 0.00986273 0.0374752
65 1 Mg 1.22682 11.6922 54.4788 1.2 1 0.0725771 0.0321804 0.00378729 0.00682006 0.00222045 0.00784784 0.00282463 0.0234213 0.00285424 0.0118494 0.00246915 0.0271973 0.00344562 0.0223728 0.00285567 0.0325286 0.00345218 0.0255394 0.00540443 0.0407846
66 2 Si 1.06993 14.3621 56.3332 2.4 1 0.0334918 0.0204062 0.00591638 0.00785046 0.00116462 0.00638874 0.00206282 0.0230206 0.00204581 0.0101325 0.00213765 0.0261643 0.00234098 0.0214894 0.00348994 0.0326649 0.00353885 0.0258083 0.00529194 0.0458525
67 3 O 1.06983 12.8584 56.4946 -1.2 1 0.0317695 0.0193467 0.00601819 0.00716781 0.00124287 0.00635126 0.00208632 0.0226049 0.00323631 0.0099213 0.00171913 0.0267603 0.0029314 0.0204615 0.00273086 0.0327827 0.0040876 0.025781 0.00448626 0.0454447
68 3 O 1.36565 15.4813 52.729 -1.2 1 0.110239 0.039727 0.00142962 0.00855027 0.00200263 0.0113785 0.00309553 0.0242547 0.00320547 0.0143944 0.00301749 0.0280631 0.00446936 0.0242434 0.00427004 0.0328005 0.00386954 0.0284946 0.00664389 0.0407089
69 3 O -0.167416 15.167 55.7925 -1.2 1 0.0468721 0.0252841 0.00526135 0.00713769 0.00126269 0.0071793 0.00242385 0.0236423 0.00165342 0.0112061 0.00214427 0.0262871 0.00250671 0.0221567 0.00373097 0.0332684 0.00322844 0.0270406 0.00558711 0.0449745
70 3 O 2.43403 15.0707 55.6985 -1.2 1 0.0429333 0.0240216 0.00601636 0.00730967 0.000879047 0.00699757 0.00251841 0.0234855 0.00224359 0.0106486 0.00205341 0.0261128 0.00266599 0.0219456 0.00302026 0.0333369 0.00306874 0.0270292 0.0056727 0.0445205
71 1 Mg -0.206989 14.1049 52.2121 1.2 1 0.114839 0.0424591 0.0014708 0.00933769 0.00257352 0.00965942 0.00236608 0.0246137 0.00328042 0.0142127 0.00302258 0.0284233 0.00345485 0.0242624 0.00424692 0.0332993 0.00354471 0.0284221 0.00657952 0.0396641
72 1 Mg 1.82591 13.8102 49.4556 1.2 1 0.182871 0.0551601 0.00654137 0.0124079 0.00304759 0.0141502 0.00422215 0.0257163 0.00597773 0.0183043 0.00501664 0.0294655 0.00495073 0.0275728 0.00584407 0.0345663 0.00617801 0.0317861 0.00892363 0.037712
73 2 Si 1.29285 16.1518 51.2434 2.4 1 0.144642 0.0487051 0.00293273 0.0110911 0.00252467 0.012794 0.00340874 0.0249615 0.00419738 0.0164443 0.00428206 0.0282117 0.00434467 0.0266576 0.00557513 0.0333241 0.00407019 0.0309328 0.00848351 0.0399121
74 3 O 1.39496 17.7199 51.3047 -1.2 1 0.146552 0.0477571 0.00342032 0.0105889 0.00201403 0.0127045 0.0032533 0.0248148 0.00433748 0.0163961 0.00294342 0.0289199 0.00380434 0.0266417 0.00385007 0.0337814 0.00508423 0.0306694 0.00728932 0.0407528
75 3 O 1.12327 15.015 57.9872 -1.2 1 0.018032 0.0115888 0.00465961 0.0068373 0.00162669 0.00679586 0.00209459 0.0234267 0.00155307 0.00986813 0.00296668 0.0263253 0.00260968 0.0206333 0.00369321 0.0318164 0.00393695 0.0252511 0.004703 0.0455213
76 3 O -0.0269106 15.5178 50.6688 -1.2 1 0.156329 0.0492911 0.00459903 0.012232 0.00301787 0.013096 0.00310244 0.0251929 0.00456876 0.0166466 0.00296174 0.0288016 0.00359471 0.0274262 0.00456475 0.0333125 0.00419107 0.0308184 0.00750413 0.0395725
77 1 Mg -3.18391 14.1057 52.3125 1.2 1 0.120559 0.0419948 0.00163922 0.00907449 0.00211848 0.0113904 0.0026209 0.0243288 0.00359299 0.0147681 0.00282959 0.0285977 0.00345905 0.0245187 0.003888 0.0328932 0.00373933 0.0279877 0.00643048 0.0387728
78 3 O 2.52432 15.503 50.4579 -1.2 1 0.155713 0.0502277 0.00475776 0.010949 0.00254619 0.0135565 0.00343146 0.0253189 0.00462584 0.0177773 0.00333894 0.0287814 0.00386822 0.0273145 0.00541222 0.0337473 0.0048384 0.0306931 0.00775732 0.039105
79 1 Mg -1.77565 13.9728 55.2667 1.2 1 0.0514911 0.0267775 0.00540201 0.00721074 0.0015905 0.0072398 0.00225733 0.0238246 0.00241244 0.0114138 0.00271693 0.0271241 0.00226325 0.0225979 0.00374632 0.0332868 0.0037903 0.0269106 0.00552996 0.0436491
80 2 Si -1.70499 12.0335 53.3087 2.4 1 0.0942829 0.0371816 0.00280538 0.00852099 0.00271908 0.00822846 0.00159585 0.0237809 0.00384696 0.0128263 0.00284815 0.0273618 0.00338597 0.0229585 0.00316855 0.03273 0.00459465 0.0270751 0.00650601 0.0416004
81 3 O -1.75813 10.5169 53.1709 -1.2 1 0.0961922 0.0362344 0.00294868 0.00762401 0.00250289 0.00816351 0.00195213 0.0229501 0.00360694 0.0114472 0.0033078 0.0269619 0.00301442 0.0211324 0.00429978 0.0318778 0.00418857 0.025982 0.00742676 0.0407682
82 3 O -1.21337 13.3381 46.4311 -1.2 1 0.268219 0.0546487 0.021637 0.0202886 0.0067247 0.0204164 0.00701126 0.0302284 0.00959451 0.0210583 0.0073426 0.0316559 0.00620914 0.0274958 0.00908836 0.0360087 0.012124 0.0355596 0.0140323 0.0355265
83 3 O -2.82136 12.744 54.0109 -1.2 1 0.0842583 0.0341744 0.00300688 0.00739171 0.00209435 0.00906592 0.00151835 0.0234453 0.0027305 0.0126794 0.00237614 0.0272289 0.00296297 0.0230272 0.00328812 0.0329932 0.00358317 0.026643 0.0058953 0.0414478
84 3 O -0.398023 12.7114 53.9617 -1.2 1 0.0783744 0.0337448 0.0034457 0.00751766 0.00231125 0.00703203 0.00165488 0.0241018 0.00292002 0.0120847 0.00233257 0.0271043 0.00290355 0.0232268 0.00336406 0.0330517 0.00351263 0.0270018 0.00616761 0.0418939
85 1 Mg -3.11885 21.2762 57.1887 1.2 1 0.0220711 0.0152792 0.0051595 0.00599816 0.00108073 0.00628626 0.00186089 0.0228496 0.00209375 0.00957969 0.00230557 0.0257872 0.00184422 0.0207607 0.0024766 0.0307677 0.00353727 0.0247911 0.00434269 0.0453979
86 1 Mg -1.5831 21.1217 49.8405 1.2 1 0.178144 0.0502345 0.00747007 0.0130741 0.00271516 0.0156449 0.00302176 0.0261361 0.00432846 0.0180599 0.00452287 0.0303313 0.00383343 0.0264878 0.00641367 0.0344015 0.00560688 0.0323209 0.00903725 0.0401986
87 2 Si -1.09384 18.6291 47.9287 2.4 1 0.228689 0.0567956 0.0149477 0.017818 0.0034232 0.0204683 0.00379224 0.0284252 0.00760668 0.0207964 0.00621159 0.032306 0.00554952 0.0294341 0.00636307 0.0356164 0.0092008 0.034679 0.010734 0.039798
88 3 O -1.02071 20.1985 47.9911 -1.2 1 0.225043 0.055024 0.0145344 0.0176046 0.00362676 0.0201559 0.00384799 0.028115 0.00667299 0.020724 0.00632441 0.0318208 0.00490808 0.0283721 0.00687349 0.0354915 0.00835686 0.0349686 0.0105485 0.0397672
89 3 O -1.65002 17.5002 51.771 -1.2 1 0.131797 0.0433319 0.00252999 0.010486 0.00241023 0.0117834 0.00175699 0.02473 0.00287864 0.0151257 0.0028981 0.0284482 0.00374367 0.0251957 0.00401882 0.0328637 0.00491821 0.0291826 0.00696874 0.0406698
90 3 O -2.26174 18.0434 48.8281 -1.2 1 0.202673 0.0558612 0.0101993 0.0151329 0.00353283 0.0172927 0.00365172 0.0278491 0.00578202 0.0202215 0.00451139 0.0313144 0.00422994 0.0285859 0.00575772 0.035449 0.00695235 0.0337307 0.00941931 0.0393664
91 1 Mg -0.0440435 16.5651 46.8269 1.2 1 0.255277 0.0569668 0.0193363 0.0202663 0.00509416 0.0243566 0.0050484 0.0308192 0.00917373 0.0221507 0.00670154 0.0338089 0.00685785 0.0298145 0.00846319 0.0359923 0.010174 0.0365217 0.0120607 0.0390046
92 3 O 0.37001 17.9877 48.3925 -1.2 1 0.21287 0.0565821 0.0118123 0.0164033 0.00339897 0.0183517 0.0033204 0.0286271 0.00660928 0.0202227 0.00450188 0.0313749 0.00465044 0.0296958 0.00551162 0.0348649 0.00816967 0.0355487 0.00973135 0.0397068
93 1 Mg 1.17548 16.5761 54.6467 1.2 1 0.0699524 0.0325788 0.00397019 0.00730471 0.0012637 0.00817204 0.00295488 0.023332 0.00252002 0.0124802 0.00219673 0.0271108 0.00313377 0.023414 0.00366193 0.0331321 0.00297445 0.0264777 0.00566856 0.0425577
94 2 Si 1.40018 19.0452 56.5745 2.4 1 0.0308234 0.0190522 0.00613373 0.00712976 0.00117125 0.00665103 0.00188643 0.0221552 0.00178122 0.0095287 0.00325392 0.0254459 0.00203327 0.0214846 0.0039689 0.0314173 0.0034147 0.0251065 0.00548992 0.0463333
95 3 O 1.37045 17.5597 56.6076 -1.2 1 0.0286064 0.018313 0.00613942 0.0070682 0.0012751 0.0062534 0.00209762 0.0227461 0.00277762 0.00933906 0.0023053 0.0254389 0.00231769 0.0207306 0.00253236 0.0318688 0.00419556 0.0256918 0.00494031 0.0456475
96 3 O 1.45147 20.239 52.7294 -1.2 1 0.108645 0.0390617 0.00137687 0.00797074 0.00152108 0.0113758 0.0032808 0.0243027 0.00311343 0.0139859 0.00302862 0.027431 0.00345238 0.0239781 0.00415372 0.0327709 0.0037307 0.0290403 0.0063076 0.0423513
97 3 O 0.231017 19.8697 55.8278 -1.2 1 0.0450272 0.0248002 0.00541156 0.0064416 0.000755383 0.00699395 0.00210244 0.022648 0.00195789 0.0103906 0.0026936 0.0255552 0.00204961 0.0219162 0.00323613 0.0323044 0.00354089 0.0260012 0.00526077 0.0452842
98 3 O 2.59261 19.7312 55.8366 -1.2 1 0.0407373 0.023394 0.00578282 0.00625675 0.00106091 0.00680266 0.00249525 0.023516 0.0020273 0.0103412 0.00284771 0.0253492 0.00259143 0.0223166 0.00358597 0.0320233 0.00321187 0.0264874 0.00523767 0.0450597
99 1 Mg -0.126194 18.8651 52.2079 1.2 1 0.112756 0.0430403 0.00121093 0.00909043 0.00175903 0.00981513 0.00231977 0.024805 0.00289638 0.0149164 0.00253861 0.0283854 0.00290483 0.0245892 0.00397857 0.0330967 0.0038331 0.0292837 0.00683781 0.0411505
100 1 Mg 1.92402 18.5815 49.4545 1.2 1 0.181596 0.0560256 0.00625046 0.012866 0.00194309 0.0151684 0.00402478 0.0268128 0.00466951 0.0196653 0.00401536 0.0305555 0.00443065 0.0286058 0.00512618 0.035414 0.00555929 0.0333587 0.0092822 0.0397658
101 2 Si 1.38106 20.9117 51.2443 2.4 1 0.142963 0.048201 0.00245074 0.0102346 0.00190771 0.0126612 0.00372272 0.0252111 0.00395433 0.0162568 0.00408971 0.0277976 0.00381719 0.0260663 0.00468976 0.0338266 0.00404844 0.0315695 0.00775887 0.0417803
102 3 O 1.48527 22.4795 51.3054 -1.2 1 0.14147 0.044944 0.00288339 0.00943634 0.0017296 0.0125179 0.00344644 0.025069 0.00365086 0.015855 0.0029652 0.0281105 0.00358034 0.0255645 0.0038278 0.0336006 0.00494623 0.0306871 0.00720259 0.0418616
103 3 O 1.38106 19.7421 58.0414 -1.2 1 0.016872 0.0118425 0.00428553 0.00622951 0.00121996 0.00666022 0.00167671 0.023286 0.0017348 0.00917626 0.0029971 0.0256705 0.00255818 0.0204838 0.00302477 0.0309194 0.00318222 0.0245586 0.00505988 0.0457239
104 3 O 0.0615419 20.2804 50.6669 -1.2 1 0.157428 0.0496919 0.00450274 0.0118121 0.00295215 0.0136589 0.00367663 0.0257312 0.00378357 0.0167584 0.00305258 0.0289347 0.00344576 0.0267905 0.00448217 0.0337417 0.00421371 0.0318082 0.00775545 0.0410971
105 1 Mg -3.09665 18.8643 52.3122 1.2 1 0.120625 0.0426743 0.00169446 0.00866105 0.00118348 0.0117496 0.00260184 0.024484 0.00305389 0.0154293 0.00288997 0.0283102 0.00285796 0.0252949 0.0034196 0.0330789 0.00405989 0.0291228 0.00665937 0.0408051
106 3 O 2.61548 20.2646 50.4626 -1.2 1 0.159223 0.0510279 0.00461958 0.0108961 0.00147453 0.0141029 0.00366345 0.026062 0.00396049 0.0181202 0.003391 0.0289019 0.00362711 0.0270977 0.00476223 0.0340832 0.00483659 0.0317059 0.00773758 0.040694
107 1 Mg -1.40445 18.83 55.1587 1.2 1 0.0506515 0.0277264 0.00555316 0.00708113 0.00134189 0.00680669 0.0024403 0.0234879 0.00196739 0.0112619 0.00278545 0.026606 0.00194707 0.0224683 0.00363339 0.0317247 0.00401381 0.0259713 0.00552494 0.0446357
108 2 Si -1.74064 16.8573 53.3972 2.4 1 0.0932437 0.0377446 0.00286434 0.00865958 0.00191663 0.00895384 0.00131449 0.0233114 0.00303713 0.0133387 0.00187022 0.0270633 0.00281346 0.0244862 0.00280042 0.0330803 0.00402792 0.028115 0.00585581 0.0423289
109 3 O -1.73949 15.3854 53.2835 -1.2 1 0.0945834 0.036413 0.00243157 0.0086193 0.00225904 0.00890481 0.0014977 0.0229058 0.00333386 0.012799 0.00250387 0.0275256 0.00300327 0.0234715 0.00437922 0.0332122 0.00341979 0.027126 0.00686297 0.0420108
110 3 O -1.12868 18.1227 46.4249 -1.2 1 0.264957 0.0573301 0.0213312 0.0214001 0.00519495 0.0239762 0.00545961 0.0316909 0.00806811 0.0221088 0.00652035 0.0343474 0.0060527 0.0277655 0.00913527 0.0376485 0.0116895 0.0376074 0.012082 0.0392528
111 3 O -2.99452 17.5886 54.0074 -1.2 1 0.0817606 0.0340378 0.00289255 0.00719234 0.001348 0.00960388 0.00158871 0.0236021 0.00228545 0.0129119 0.0018563 0.0264239 0.00234561 0.0239142 0.00252188 0.0330993 0.00371511 0.0274792 0.00537315 0.0420114
112 3 O -0.404878 17.5546 53.9803 -1.2 1 0.0766253 0.0341762 0.00327998 0.00745135 0.00214144 0.00724041 0.00150852 0.0239752 0.00249009 0.0122495 0.00202844 0.0263291 0.00225091 0.0237952 0.0031284 0.0334041 0.00332018 0.0278127 0.006046 0.0425225
113 1 Mg -3.11065 25.9843 57.4433 1.2 1 0.0211106 0.0143695 0.00460392 0.00479957 0.00130692 0.00652846 0.00150067 0.0224041 0.00222132 0.0100744 0.0018659 0.0262586 0.00192156 0.0202679 0.00208729 0.0311123 0.0035957 0.0252069 0.00448235 0.0462456
114 1 Mg -1.48778 25.88 49.8402 1.2 1 0.180891 0.0490019 0.00729759 0.0125673 0.00297216 0.0155787 0.00303988 0.02654 0.00436234 0.0181661 0.00471859 0.0298467 0.00349285 0.0261812 0.00648471 0.0348845 0.00531879 0.0324676 0.0093445 0.041061
115 2 Si -1.00491 23.3922 47.9274 2.4 1 0.22831 0.0550645 0.0146926 0.0175368 0.00336567 0.0207902 0.00434938 0.0285954 0.0071425 0.0206575 0.00581986 0.0318034 0.0054491 0.0288342 0.00624727 0.0351999 0.00853846 0.0350602 0.0110104 0.0408461
116 3 O -0.927602 24.9615 47.9909 -1.2 1 0.231029 0.053997 0.0147215 0.0175113 0.00361388 0.0210591 0.0039868 0.0286274 0.0066553 0.0208521 0.00591037 0.0314214 0.00560764 0.028202 0.00739171 0.0356823 0.00866092 0.0353148 0.010804 0.0407561
117 3 O -1.55795 22.2588 51.7696 -1.2 1 0.132557 0.0430116 0.00251376 0.00988391 0.0023113 0.011789 0.00186945 0.0245443 0.00272396 0.015111 0.00262138 0.0281076 0.00362685 0.0244718 0.00411526 0.0330933 0.00503855 0.0295742 0.00723103 0.0420638
118 3 O -2.17411 22.8111 48.8277 -1.2 1 0.202574 0.0550308 0.00989232 0.014773 0.0027796 0.0173184 0.00377046 0.0280764 0.00551461 0.0201628 0.00433627 0.0307255 0.00443298 0.0278837 0.00590113 0.0354492 0.00673003 0.034228 0.00983573 0.0402104
119 1 Mg 0.0423997 21.3296 46.8225 1.2 1 0.256243 0.0569507 0.0192144 0.0207662 0.00418071 0.0249268 0.00591401 0.0316757 0.00837531 0.0228312 0.00731461 0.0338458 0.00666559 0.0295127 0.00888282 0.0362206 0.00962977 0.037853 0.0129 0.0403829
120 3 O 0.458537 22.7495 48.3911 -1.2 1 0.212627 0.0554952 0.0114274 0.0160942 0.00317176 0.0183461 0.00374539 0.0280689 0.00615023 0.0202129 0.00465792 0.0306957 0.00493223 0.0291589 0.00605432 0.0350086 0.0073444 0.0355614 0.0103286 0.041258