ITEM: TIMESTEP
37300
ITEM: NUMBER OF ATOMS
10500
ITEM: BOX BOUNDS xy xz yz pp pp pp
0	8.9688	2.9896
0	118.725	0
0	252.977	0
ITEM: ATOMS id type element xu yu zu q Q_1 Q_2 Q_3 Q_4 Q_5 Q_6 Q_7 Q_8 Q_9 Q_10 Q_11 Q_12 Q_13 Q_14 Q_15 Q_16 Q_17 Q_18 Q_19 Q_20 Q_21
1 1 Mg -3.25614 6.94766 57.4535 1.2 1 0.0211353 0.0147115 0.00512264 0.00531043 0.00124216 0.00648709 0.00125177 0.0221356 0.00188491 0.00851476 0.00183878 0.0275561 0.00238693 0.0190164 0.00252987 0.0329878 0.00293197 0.0246576 0.00535624 0.0459585
2 1 Mg -1.82655 6.90154 50.0912 1.2 1 0.176609 0.0473169 0.00639549 0.00988344 0.00333293 0.00880647 0.00395053 0.0220365 0.00411789 0.0137226 0.00469672 0.0251411 0.00443606 0.020291 0.00666568 0.0299271 0.00568639 0.0253989 0.00866985 0.0340778
3 2 Si -0.257935 3.96038 48.0876 2.4 1 0.224543 0.0519369 0.011523 0.012101 0.0025825 0.00950747 0.00358218 0.0200298 0.00551028 0.0163794 0.00366687 0.0240072 0.00552933 0.020164 0.00568407 0.0276278 0.00685427 0.0242943 0.00817141 0.0324885
4 3 O -0.335812 5.46814 47.6264 -1.2 1 0.233358 0.0519649 0.0136036 0.0133854 0.00342656 0.0104328 0.00453236 0.020812 0.00593727 0.0168471 0.00418576 0.0247555 0.00490554 0.0205221 0.00565042 0.0276725 0.00718633 0.0250025 0.00864494 0.0309539
5 3 O -2.03793 3.43377 51.8941 -1.2 1 0.129575 0.0403557 0.00211869 0.00663415 0.001897 0.0067911 0.00232315 0.0199535 0.00284754 0.0106295 0.00313825 0.0248793 0.0038022 0.0175033 0.00402602 0.0294227 0.00525835 0.0231916 0.00769419 0.0374241
6 3 O -1.54015 3.53929 48.9521 -1.2 1 0.204139 0.0506761 0.00896517 0.010716 0.00238693 0.00836713 0.00352833 0.0200325 0.00476591 0.0145336 0.00421651 0.0234355 0.0044541 0.019421 0.00628685 0.0282173 0.00570488 0.0235593 0.00827683 0.0322998
7 1 Mg 1.82954 2.54582 47.1376 1.2 1 0.246847 0.0513587 0.0159689 0.0151719 0.00278411 0.0110275 0.00317565 0.0200215 0.00509317 0.0152533 0.00449065 0.0237949 0.00604011 0.019047 0.00757661 0.0258997 0.00660591 0.0230799 0.00813423 0.030278
8 3 O 1.22989 3.66364 48.7877 -1.2 1 0.205264 0.0491826 0.00922928 0.0115684 0.00199586 0.00938445 0.0036808 0.0197043 0.0037951 0.0141298 0.00317705 0.0235264 0.00496455 0.0190741 0.00630641 0.0275891 0.00433362 0.0234076 0.00868408 0.0333104
9 1 Mg 1.13343 2.35017 54.6031 1.2 1 0.0688049 0.0290886 0.00467384 0.00462777 0.00143657 0.00546971 0.00217434 0.0205315 0.00234572 0.00950704 0.00303565 0.0257396 0.0035375 0.0190895 0.00408163 0.0314408 0.00353831 0.0241348 0.00658686 0.0419037
10 2 Si 1.15584 5.08872 56.477 2.4 1 0.0313833 0.0197949 0.00598162 0.00530677 0.00114214 0.00639022 0.0022897 0.0211695 0.00177461 0.00795032 0.00377695 0.0259374 0.00282436 0.0194136 0.00494406 0.032378 0.00338457 0.0243939 0.00654914 0.0455603
11 3 O 1.12326 3.52039 56.5048 -1.2 1 0.0345819 0.0199327 0.00599141 0.0049117 0.001095 0.0056641 0.00222933 0.0205626 0.002711 0.00774695 0.0025079 0.0265694 0.00270651 0.0186577 0.00301068 0.0321192 0.00395143 0.0249419 0.00543173 0.0451609
12 3 O 1.10813 6.07342 52.8172 -1.2 1 0.106017 0.0361604 0.00203697 0.00608568 0.00248771 0.00700004 0.00331355 0.0217154 0.00297469 0.0104148 0.00325981 0.0256067 0.00386015 0.0183121 0.0047909 0.0311323 0.00447518 0.0243821 0.00738561 0.0388729
13 3 O -0.111681 5.74738 55.7485 -1.2 1 0.0464423 0.0244255 0.00587314 0.00465848 0.00138731 0.00567211 0.00246294 0.0212795 0.00201538 0.0091822 0.00246532 0.0260262 0.00324499 0.0192141 0.0038448 0.0326622 0.00325061 0.0246595 0.0058944 0.0441482
14 3 O 2.40054 5.68284 55.8362 -1.2 1 0.0418115 0.0236787 0.00645604 0.00456707 0.00106046 0.00619842 0.00204368 0.0211022 0.0014569 0.00871194 0.00253242 0.0262205 0.00305975 0.0191469 0.00424232 0.0335065 0.00297287 0.0250119 0.00595663 0.0445611
15 1 Mg -0.459401 4.67631 52.2426 1.2 1 0.124965 0.0407895 0.00205374 0.00663972 0.0022987 0.0062884 0.00224157 0.0208297 0.00303593 0.0116876 0.00292616 0.0258185 0.00411464 0.0186778 0.00483682 0.0303361 0.0044381 0.0233969 0.00721468 0.0366176
16 1 Mg 2.79456 3.9971 49.9987 1.2 1 0.175992 0.0486291 0.00567349 0.00931344 0.00238014 0.00768938 0.00431959 0.0199017 0.00321362 0.0141178 0.00297619 0.0241356 0.00453465 0.0198515 0.00671107 0.0289038 0.00443588 0.0235201 0.00902941 0.0336571
17 2 Si 1.16169 6.59457 51.2556 2.4 1 0.150141 0.0454993 0.00263744 0.00861636 0.00250908 0.008191 0.00380504 0.0215442 0.00377759 0.0127924 0.00462558 0.0246641 0.00405374 0.0201013 0.00682054 0.0309514 0.00460241 0.0253597 0.00919561 0.0361605
18 3 O 1.28989 8.18905 51.2909 -1.2 1 0.147093 0.0440254 0.00283965 0.00869277 0.00272849 0.00905336 0.00392249 0.0210835 0.0036706 0.012578 0.00369842 0.0262199 0.00418917 0.0207575 0.00512435 0.0313551 0.00594448 0.0256369 0.00838366 0.0369654
19 3 O 1.18493 5.70039 57.9325 -1.2 1 0.0153648 0.0122596 0.00413624 0.00538644 0.00112537 0.00648837 0.00141176 0.021794 0.0019837 0.00802715 0.00306755 0.0269853 0.00265731 0.0195064 0.00401397 0.0330365 0.00287438 0.0249094 0.00538886 0.0467269
20 3 O -0.184847 6.06029 50.6845 -1.2 1 0.160607 0.0444232 0.0048336 0.00871546 0.00340878 0.00784045 0.00388065 0.0215571 0.00391728 0.0132698 0.00334064 0.0244006 0.00415041 0.0194481 0.00652075 0.029296 0.00471738 0.0246768 0.00867748 0.0358013
21 1 Mg -3.49704 4.67769 52.6661 1.2 1 0.114263 0.0381022 0.00168598 0.00608463 0.00203297 0.00675246 0.00282987 0.0205205 0.0032753 0.0107994 0.00334537 0.0253691 0.0036249 0.0184225 0.00445236 0.0299927 0.00396301 0.0231903 0.00771454 0.0380228
22 3 O 2.48581 5.93312 50.6539 -1.2 1 0.15754 0.0462427 0.00358957 0.00799053 0.00159521 0.00847207 0.00391666 0.0211232 0.00390129 0.0130493 0.00415316 0.0239831 0.00441069 0.0202556 0.00628001 0.0303432 0.00446655 0.0248747 0.00889253 0.0352113
23 1 Mg -1.90222 4.60794 55.1736 1.2 1 0.0511219 0.0264682 0.00651433 0.00463929 0.00137543 0.00579928 0.00232782 0.0208432 0.00248495 0.00890228 0.00337387 0.0263834 0.00254227 0.0192855 0.00431436 0.032498 0.00415707 0.024749 0.00660899 0.0429419
24 2 Si -1.96572 2.65027 53.3118 2.4 1 0.100488 0.0349971 0.00252721 0.00527345 0.0024241 0.00621523 0.00184938 0.0203354 0.00288162 0.0102648 0.00282151 0.0248747 0.00325084 0.0189358 0.00316028 0.0302437 0.00393922 0.0236769 0.0064363 0.0398641
25 3 O -2.05946 1.13241 53.2391 -1.2 1 0.0977096 0.0342388 0.00237224 0.00524558 0.0027896 0.00574468 0.00199513 0.0198231 0.002382 0.00990599 0.00283504 0.0252202 0.00305969 0.0186007 0.00446757 0.0303128 0.00374279 0.0237743 0.00657077 0.0401187
26 3 O -0.0467762 2.97103 46.8385 -1.2 1 0.253676 0.0519959 0.0166305 0.0145975 0.00278712 0.00995283 0.00377183 0.0196131 0.00600201 0.0164831 0.00556548 0.0235848 0.00695436 0.0186366 0.00860806 0.0258924 0.00667841 0.023342 0.00926585 0.0313971
27 3 O -3.12431 3.42765 54.12 -1.2 1 0.0802236 0.031144 0.00394124 0.00444392 0.00178128 0.00563148 0.00193611 0.0205604 0.00277548 0.010024 0.00238134 0.0249097 0.00267925 0.018878 0.00313164 0.0308021 0.00386778 0.0236698 0.00649522 0.040903
28 3 O -0.660059 3.27962 54.0465 -1.2 1 0.0795078 0.031296 0.0041576 0.00460249 0.00178413 0.00612471 0.00157479 0.0204057 0.00241584 0.0099311 0.00232456 0.025344 0.00332359 0.0193849 0.00367769 0.0313937 0.00327985 0.0243872 0.00639958 0.0407761
29 1 Mg -3.24867 11.772 57.5256 1.2 1 0.022382 0.0146149 0.00467336 0.00550387 0.00166595 0.00617665 0.00120669 0.0224084 0.00165441 0.00819987 0.00161801 0.027945 0.00213644 0.0190407 0.00217155 0.032706 0.0033596 0.0244418 0.00439678 0.0473175
30 1 Mg -1.75014 11.5838 49.8362 1.2 1 0.184109 0.047447 0.00788075 0.0116996 0.00418353 0.0125868 0.00473449 0.0231312 0.00498358 0.0151086 0.00527009 0.0273448 0.00400789 0.0234472 0.00696927 0.0323547 0.0067774 0.0281912 0.00940352 0.0354729
31 2 Si -1.18003 9.02138 47.9309 2.4 1 0.241494 0.0516287 0.0155758 0.0154282 0.00540208 0.0132906 0.00746824 0.0225395 0.00775492 0.0166875 0.00660178 0.0260877 0.00492168 0.0227168 0.00694186 0.0300431 0.00872743 0.0276598 0.0110087 0.0331879
32 3 O -1.23224 10.5991 47.9811 -1.2 1 0.231694 0.0523878 0.0137212 0.0156355 0.00519652 0.0144536 0.00646307 0.0235712 0.00768329 0.0167456 0.00697675 0.0270639 0.00517917 0.0235597 0.00797644 0.031883 0.00917977 0.0300773 0.00987831 0.0334297
33 3 O -1.79016 8.01447 51.8693 -1.2 1 0.133295 0.0410397 0.00214016 0.00810925 0.00360023 0.00731725 0.00273232 0.0218561 0.00302169 0.0117176 0.00387911 0.0263738 0.00395967 0.0202568 0.00450144 0.0314004 0.00566201 0.0245369 0.00838145 0.0376755
34 3 O -2.30986 8.37215 48.8528 -1.2 1 0.206367 0.0518464 0.00957879 0.0121153 0.00420413 0.0106768 0.00607098 0.0223234 0.00581697 0.0163234 0.00510584 0.025839 0.0042291 0.0223365 0.00668348 0.031133 0.00640011 0.0272196 0.00923206 0.0332215
35 1 Mg 0.154883 7.08234 46.8007 1.2 1 0.258465 0.05176 0.0176548 0.0159415 0.00578778 0.0133214 0.00824052 0.0231693 0.00770376 0.0172068 0.00663256 0.0249848 0.00706888 0.02158 0.00828369 0.0290444 0.00923419 0.0273703 0.0118228 0.0312402
36 3 O 0.325447 8.50934 48.3809 -1.2 1 0.217116 0.0521972 0.0110432 0.0138176 0.00403161 0.0119937 0.00594628 0.0232508 0.0062638 0.016405 0.00525161 0.0257613 0.00452776 0.0231558 0.00541659 0.030219 0.00709741 0.0280897 0.00953025 0.0331918
37 1 Mg 1.09984 7.13644 54.6574 1.2 1 0.0672518 0.0297685 0.00458412 0.00494855 0.00167265 0.00590096 0.00250409 0.0212266 0.0023793 0.0095866 0.00277705 0.0261783 0.00346268 0.0195248 0.00379535 0.0330041 0.00386527 0.0244017 0.0066576 0.0420619
38 2 Si 1.40245 9.68815 56.425 2.4 1 0.0335082 0.0201223 0.00594449 0.00597075 0.00123442 0.00608187 0.00178668 0.021931 0.00226784 0.00819076 0.003399 0.0263938 0.00244309 0.0201281 0.00393424 0.032856 0.00369251 0.0241395 0.00686181 0.0467017
39 3 O 1.37172 8.2423 56.6989 -1.2 1 0.0278004 0.0175655 0.00549454 0.00523317 0.00120103 0.00589387 0.00164164 0.0218826 0.00272903 0.00757493 0.00211621 0.0270242 0.00308231 0.0186782 0.00351084 0.0335271 0.00385968 0.024704 0.00635955 0.046416
40 3 O 1.28624 10.7248 52.7351 -1.2 1 0.111609 0.0376347 0.001341 0.00702864 0.00219874 0.00925301 0.00298923 0.022205 0.00260133 0.0109679 0.00390834 0.0266339 0.00440676 0.0209025 0.00482234 0.0323593 0.00459261 0.0260863 0.00769757 0.0398835
41 3 O 0.116247 10.381 55.7139 -1.2 1 0.0496002 0.0246698 0.00503954 0.00540038 0.00121149 0.00590702 0.00204654 0.0216156 0.00163325 0.008582 0.00285392 0.0265514 0.00305955 0.0196994 0.00414463 0.0330146 0.00361595 0.0245321 0.00657907 0.0443992
42 3 O 2.70212 10.3728 55.7212 -1.2 1 0.0440242 0.0240757 0.00590348 0.00525747 0.00131244 0.00622966 0.00254471 0.0222668 0.00204752 0.00887534 0.00337895 0.0265399 0.00256741 0.0201267 0.00428463 0.0331665 0.00390639 0.0252976 0.0069909 0.045796
43 1 Mg -0.262694 9.34741 52.2523 1.2 1 0.114076 0.0402806 0.00208637 0.00733082 0.00269254 0.00758278 0.00270335 0.022378 0.00242772 0.0111672 0.00371494 0.02683 0.00380266 0.0204946 0.0055308 0.0322456 0.00488561 0.0257417 0.00851034 0.0383455
44 1 Mg 1.87648 9.01537 49.4629 1.2 1 0.186553 0.0520751 0.00633998 0.0109667 0.00314295 0.0108467 0.00594151 0.0228641 0.00492722 0.0155653 0.00511527 0.0262811 0.00491258 0.022891 0.00591178 0.0312486 0.00580569 0.028007 0.00943688 0.0342046
45 2 Si 1.21415 11.3799 51.2378 2.4 1 0.148507 0.0459398 0.00254203 0.00970735 0.00281709 0.0108186 0.00371257 0.0231652 0.00379271 0.0136538 0.00493954 0.0263498 0.00441173 0.0231737 0.00579187 0.0322731 0.00509743 0.0283148 0.00925339 0.0380915
46 3 O 1.31634 12.9512 51.3023 -1.2 1 0.143448 0.0427136 0.00315719 0.00913798 0.00235853 0.0113976 0.00302566 0.0233073 0.00412614 0.0136024 0.00372811 0.0275951 0.00396607 0.0233131 0.00506005 0.0330827 0.00544523 0.0282811 0.00819816 0.0391128
47 3 O 1.24284 10.4374 57.9454 -1.2 1 0.0173677 0.0122191 0.00411186 0.00575331 0.00123309 0.00618328 0.00149707 0.0222731 0.0017568 0.00754785 0.0027026 0.0273115 0.00237573 0.0192122 0.00261473 0.0327175 0.00280811 0.0243368 0.00463759 0.0478797
48 3 O -0.115718 10.7564 50.681 -1.2 1 0.160012 0.0464744 0.00443068 0.0105769 0.00359479 0.010423 0.00432954 0.0228487 0.00374585 0.0135343 0.00424075 0.0266624 0.00444528 0.0228579 0.00580572 0.0317263 0.00566878 0.0274565 0.00948719 0.0371038
49 1 Mg -3.26386 9.35564 52.3622 1.2 1 0.123886 0.0402515 0.00147353 0.00721108 0.00227042 0.00907856 0.00335716 0.0222727 0.00300649 0.0117435 0.00418869 0.0265124 0.00351421 0.0207139 0.0051973 0.0321647 0.00505025 0.0258401 0.00818699 0.0373714
50 3 O 2.45216 10.7265 50.4558 -1.2 1 0.163549 0.0479346 0.00435255 0.00934165 0.00252468 0.0113131 0.00445481 0.0224891 0.00435406 0.0147247 0.00451846 0.026308 0.00404339 0.0235084 0.0055965 0.0322234 0.00573923 0.027867 0.00886947 0.0366048
51 1 Mg -1.63804 9.55831 55.2067 1.2 1 0.0560599 0.027313 0.00508496 0.00544488 0.00182202 0.00588422 0.00234712 0.0223516 0.00207527 0.00897108 0.00296076 0.0269653 0.00272944 0.0201014 0.00418479 0.0326894 0.00512614 0.0248702 0.00704411 0.0436482
52 2 Si -1.82307 7.29755 53.4103 2.4 1 0.093338 0.0357529 0.00332808 0.00593247 0.00288713 0.00644758 0.00243944 0.0208865 0.00303551 0.0103846 0.00327593 0.0258678 0.00311235 0.0195665 0.0037835 0.0321604 0.00506155 0.0239851 0.00725932 0.0398105
53 3 O -1.84434 5.75806 53.3159 -1.2 1 0.0981168 0.0345455 0.0025574 0.00533334 0.00238493 0.00623822 0.00206306 0.0206132 0.0034682 0.00978377 0.0034327 0.0255312 0.0031534 0.0185065 0.00464544 0.0319115 0.00386871 0.0239742 0.00756176 0.0393921
54 3 O -1.19417 8.46968 46.4488 -1.2 1 0.270961 0.05182 0.0200589 0.0177405 0.00565737 0.0145405 0.00859065 0.024071 0.00788672 0.017289 0.00715367 0.0254653 0.00615086 0.0210628 0.00911374 0.0303313 0.00973185 0.029195 0.0112099 0.0306844
55 3 O -3.18625 8.00654 54.0019 -1.2 1 0.083867 0.0320858 0.00342755 0.00523642 0.00223115 0.0073739 0.00246159 0.0218896 0.00225184 0.00973981 0.00281137 0.0258289 0.00324982 0.0196906 0.00355429 0.0322013 0.00511033 0.0246034 0.00757563 0.0409615
56 3 O -0.577017 8.06905 54.1156 -1.2 1 0.0749375 0.0308694 0.00430478 0.00508102 0.0023658 0.00592571 0.00172838 0.021909 0.00227245 0.00977263 0.00272537 0.0256192 0.00267817 0.019557 0.00394367 0.0328774 0.00468094 0.025377 0.00714302 0.0412736
57 1 Mg -3.25541 16.3866 57.4463 1.2 1 0.0215679 0.0144373 0.00441909 0.00552011 0.00100097 0.00643493 0.00127358 0.0222177 0.00198459 0.00849283 0.00196368 0.0274095 0.00207798 0.0192749 0.00218189 0.0326554 0.0036623 0.0255346 0.00424301 0.047203
58 1 Mg -1.6714 16.3544 49.8412 1.2 1 0.180629 0.0474356 0.00712591 0.0125756 0.00364648 0.0148074 0.00316861 0.0256772 0.0045821 0.0173819 0.00445984 0.0301187 0.00376456 0.0257883 0.00629733 0.0339607 0.00600859 0.0309595 0.00896091 0.0388733
59 2 Si -1.18567 13.8526 47.9314 2.4 1 0.237076 0.0530867 0.0155532 0.0168571 0.00480292 0.018326 0.00527493 0.0262163 0.00818534 0.0193127 0.00613287 0.0296803 0.00566226 0.0279726 0.0068204 0.033673 0.00998802 0.0322697 0.0114093 0.0362866
60 3 O -1.09664 15.4205 47.9915 -1.2 1 0.234194 0.0518779 0.0149958 0.0171372 0.00505685 0.0194754 0.00476998 0.026824 0.00763917 0.0194725 0.00636749 0.030063 0.00566999 0.0277092 0.00772959 0.034453 0.00907687 0.0334221 0.0109549 0.0373338
61 3 O -1.73493 12.7491 51.7772 -1.2 1 0.13638 0.0413667 0.0028785 0.00937864 0.00334266 0.0100636 0.00208621 0.0229709 0.00302877 0.0128546 0.00329352 0.0275984 0.00423373 0.0230038 0.00465998 0.0327228 0.00572864 0.0275342 0.00820484 0.0396318
62 3 O -2.36115 13.2717 48.8238 -1.2 1 0.204983 0.0520966 0.0101892 0.0137592 0.0045097 0.014529 0.00477539 0.0256048 0.00579583 0.0186737 0.00472948 0.0292321 0.0043944 0.0261092 0.00568962 0.0334675 0.00792086 0.0311598 0.00965219 0.0358516
63 1 Mg -0.159928 11.7639 46.8533 1.2 1 0.261176 0.0525276 0.0189847 0.0184956 0.00607199 0.0200123 0.00730576 0.027209 0.00895822 0.018916 0.00781548 0.0295379 0.00614461 0.0265064 0.00798904 0.0329161 0.0108403 0.0329203 0.0125625 0.0345023
64 3 O 0.2623 13.1866 48.413 -1.2 1 0.216809 0.051808 0.0118804 0.015057 0.00406838 0.0162942 0.00461659 0.0255906 0.00633496 0.0179792 0.00507069 0.0281573 0.00486028 0.0273681 0.00574252 0.033011 0.00791507 0.0325434 0.010421 0.0365198
65 1 Mg 1.04098 11.8816 54.5422 1.2 1 0.0731767 0.0315586 0.00385852 0.0057001 0.00186943 0.00724513 0.00245232 0.0218371 0.00194674 0.0102318 0.00266547 0.0270496 0.00353834 0.0214453 0.00372349 0.0329421 0.00356031 0.0247331 0.00655681 0.0428328
66 2 Si 1.18666 14.3954 56.3386 2.4 1 0.035277 0.0202569 0.00552212 0.00650203 0.00146745 0.0060383 0.00196001 0.0218157 0.00177525 0.00861881 0.003349 0.0263358 0.00263642 0.0203249 0.00400202 0.0330878 0.00364696 0.0251125 0.00578111 0.0476212
67 3 O 1.13658 12.8866 56.3378 -1.2 1 0.0394033 0.0214618 0.00518621 0.00623941 0.00107469 0.00607844 0.00197243 0.0214913 0.00314423 0.00803523 0.00218088 0.0269194 0.00270662 0.0195713 0.00272623 0.032952 0.00474163 0.024743 0.0057009 0.0469234
68 3 O 1.36565 15.4813 52.729 -1.2 1 0.110902 0.036687 0.00081282 0.00736237 0.00208119 0.0106825 0.00286079 0.023266 0.00277684 0.0126866 0.00322746 0.0278597 0.00389204 0.0225531 0.00391545 0.0331505 0.00425848 0.028438 0.00686093 0.0421639
69 3 O -0.0276365 15.2271 55.7735 -1.2 1 0.0479694 0.0241804 0.00500022 0.00611766 0.00117521 0.00675327 0.00240036 0.0221867 0.001856 0.00940994 0.00285144 0.0264735 0.00246414 0.0204531 0.00392275 0.0335373 0.00394199 0.0265148 0.00552643 0.0469063
70 3 O 2.45344 15.0778 55.6413 -1.2 1 0.0460686 0.0240568 0.00560066 0.00606588 0.00129264 0.00649636 0.00243232 0.0221122 0.00191495 0.00935627 0.00198482 0.0269518 0.00238667 0.0203582 0.00307182 0.0337545 0.00357124 0.0261318 0.00616304 0.0467038
71 1 Mg -0.206989 14.1049 52.2121 1.2 1 0.11894 0.0412285 0.00157495 0.00853248 0.00294269 0.00923506 0.00237798 0.0234134 0.00276063 0.0129423 0.00335342 0.0280207 0.00345512 0.0233217 0.00391187 0.0330785 0.00418108 0.0278734 0.00737411 0.0397755
72 1 Mg 1.82591 13.8102 49.4556 1.2 1 0.186428 0.0519949 0.00644606 0.011852 0.0026575 0.0135069 0.00434469 0.0240562 0.00512865 0.0171918 0.00496037 0.0281933 0.00459351 0.0260976 0.00619775 0.0339843 0.00633501 0.0310977 0.00992662 0.0370243
73 2 Si 1.29285 16.1518 51.2434 2.4 1 0.147497 0.0456302 0.00233758 0.0100963 0.00252041 0.0126184 0.00318687 0.0239566 0.00425119 0.0154622 0.00498834 0.0278006 0.00407142 0.025762 0.00568036 0.0333881 0.00420925 0.0306471 0.0087158 0.0412091
74 3 O 1.39496 17.7199 51.3047 -1.2 1 0.144389 0.042945 0.00279285 0.00949815 0.00186375 0.0123085 0.00286481 0.0240378 0.00402241 0.0149843 0.00331941 0.0288105 0.00327052 0.0244735 0.00497098 0.0339253 0.00512221 0.0303398 0.00767919 0.0412307
75 3 O 1.25349 15.0265 57.8785 -1.2 1 0.0163471 0.0120481 0.00365573 0.00594239 0.0008977 0.00613099 0.00150353 0.022524 0.0016039 0.00769112 0.00283089 0.0267644 0.00237959 0.0190362 0.00247085 0.0324616 0.00324277 0.0255448 0.00409392 0.0476535
76 3 O -0.0269106 15.5178 50.6688 -1.2 1 0.157733 0.0457667 0.0042993 0.0112756 0.00348289 0.0128675 0.00326114 0.0241808 0.00376982 0.0152215 0.00326158 0.0281484 0.00415625 0.0254847 0.00555759 0.0333262 0.00427647 0.0304185 0.00862351 0.0398438
77 1 Mg -3.18391 14.1057 52.3125 1.2 1 0.12522 0.0406617 0.00165744 0.00809694 0.00211167 0.0107975 0.0024758 0.0229952 0.00314181 0.0135137 0.00323011 0.0278697 0.00361085 0.0235584 0.00417105 0.0331025 0.00448763 0.0277097 0.00703859 0.0399094
78 3 O 2.52432 15.503 50.4579 -1.2 1 0.161237 0.0474799 0.0045638 0.0101111 0.00230766 0.0132624 0.00338862 0.0247409 0.00430735 0.017144 0.00355076 0.0282713 0.00395973 0.0262096 0.00537564 0.0339634 0.00526072 0.0306635 0.00830933 0.0395707
79 1 Mg -1.7795 14.3638 55.0501 1.2 1 0.0559386 0.0273559 0.00489047 0.00642658 0.0015276 0.00671913 0.00229742 0.022444 0.00229999 0.00947579 0.0027752 0.0275508 0.00225962 0.0210439 0.00365751 0.0332979 0.0048357 0.0262386 0.00626155 0.0450643
80 2 Si -1.85684 12.1455 53.3632 2.4 1 0.0981407 0.0364833 0.00277358 0.00713155 0.0027717 0.00780705 0.00166007 0.0221551 0.00294868 0.0111561 0.00266922 0.0268699 0.00388694 0.0223477 0.00402649 0.0325849 0.00542587 0.0259765 0.00696959 0.0419486
81 3 O -1.75184 10.6209 53.2305 -1.2 1 0.0979041 0.0353975 0.00261721 0.00636416 0.00262238 0.00755228 0.00169232 0.0217302 0.00290656 0.00993833 0.00347292 0.0264472 0.00325144 0.0203435 0.00438496 0.0326253 0.00526254 0.0250131 0.00805456 0.0413397
82 3 O -1.21337 13.3381 46.4311 -1.2 1 0.273066 0.0516439 0.0212944 0.0199839 0.00636602 0.0207184 0.0071625 0.0292056 0.00892299 0.020359 0.00729206 0.0307637 0.00584501 0.0264899 0.0085829 0.03496 0.0122221 0.0349619 0.0133168 0.0348345
83 3 O -3.16428 12.798 53.9206 -1.2 1 0.0857851 0.0327424 0.0026215 0.00588482 0.00162401 0.00859254 0.00213543 0.0223741 0.00211998 0.0106032 0.00245969 0.0266005 0.00313679 0.02162 0.0031228 0.033237 0.00420267 0.0262547 0.00658279 0.0430863
84 3 O -0.610288 12.8285 54.0214 -1.2 1 0.0766209 0.0314326 0.00374701 0.00621084 0.00242029 0.00633409 0.00155626 0.022554 0.00233321 0.0103848 0.00232514 0.0265662 0.00272103 0.0220188 0.00351479 0.0330661 0.00396155 0.025866 0.00671903 0.0433816
85 1 Mg -2.96059 21.0339 57.2208 1.2 1 0.0218382 0.0158226 0.00481466 0.00586342 0.0013054 0.00636264 0.00164645 0.0219162 0.00174956 0.00879436 0.00171945 0.0267433 0.00162587 0.0192999 0.00293243 0.0330812 0.00385352 0.0259515 0.00351684 0.0465137
86 1 Mg -1.5831 21.1217 49.8405 1.2 1 0.180804 0.0486881 0.00741679 0.0127611 0.00332653 0.0152692 0.00289425 0.0268899 0.00454619 0.018219 0.00443078 0.0304821 0.00363566 0.0262067 0.00588628 0.0349967 0.00579534 0.0318947 0.00935521 0.0395585
87 2 Si -1.09384 18.6291 47.9287 2.4 1 0.232712 0.0528721 0.014803 0.0171541 0.00397924 0.0201444 0.00400533 0.0277612 0.0074077 0.0200579 0.0059078 0.03137 0.00585503 0.0287108 0.00643796 0.0355117 0.00928948 0.0341775 0.011582 0.0397598
88 3 O -1.02071 20.1985 47.9911 -1.2 1 0.230991 0.0526075 0.0148316 0.017311 0.00426098 0.0203559 0.00436875 0.0281475 0.00708753 0.0201516 0.00629182 0.0312274 0.00582376 0.0278825 0.00798666 0.0361384 0.00860496 0.0349817 0.0111365 0.0394157
89 3 O -1.65002 17.5002 51.771 -1.2 1 0.13591 0.0413681 0.00272802 0.00983583 0.00301495 0.0114172 0.00164471 0.0240057 0.00284189 0.0142043 0.00286314 0.0285594 0.00395957 0.0240217 0.004576 0.0333715 0.00521963 0.0292232 0.00748891 0.0413149
90 3 O -2.26174 18.0434 48.8281 -1.2 1 0.208304 0.0526627 0.00999608 0.0147336 0.00408122 0.0171875 0.00396972 0.0272829 0.00579109 0.0199514 0.00451306 0.0307598 0.0044228 0.0277448 0.00621266 0.0355169 0.00765072 0.0335859 0.0102436 0.0389833
91 1 Mg -0.0440435 16.5651 46.8269 1.2 1 0.261299 0.0532381 0.0189282 0.0198006 0.00530831 0.0241054 0.00533317 0.0307678 0.00920652 0.0218801 0.0070616 0.0326371 0.00707739 0.0293323 0.00863019 0.034937 0.0102614 0.0358278 0.0131322 0.0385807
92 3 O 0.37001 17.9877 48.3925 -1.2 1 0.211751 0.0517869 0.0109073 0.0153915 0.00355284 0.0176247 0.00302129 0.0270763 0.0059884 0.0195203 0.00455175 0.0303277 0.0047137 0.0288861 0.00578279 0.0346986 0.00820901 0.0344092 0.0104395 0.0398592
93 1 Mg 1.44997 16.3808 54.4742 1.2 1 0.0748847 0.0309404 0.00315659 0.00604654 0.00144617 0.00795514 0.00253075 0.0217789 0.00262838 0.0109669 0.00192861 0.0273214 0.00332726 0.0223018 0.003407 0.0338341 0.00406575 0.0265997 0.00571546 0.0439653
94 2 Si 1.24807 19.1418 56.2187 2.4 1 0.0375698 0.0211053 0.00520407 0.00602974 0.00117411 0.00643715 0.00221408 0.0219733 0.00202559 0.00884577 0.00259148 0.0258003 0.00256577 0.0200546 0.00350874 0.033209 0.00395221 0.0263446 0.00523111 0.0468691
95 3 O 1.28464 17.58 56.4987 -1.2 1 0.0298961 0.01814 0.00521054 0.00583041 0.00115498 0.00591979 0.00193054 0.0223494 0.00300256 0.00791028 0.00205154 0.0267023 0.0023776 0.0191236 0.00267058 0.0332627 0.00482646 0.0263225 0.00547621 0.0478261
96 3 O 1.45147 20.239 52.7294 -1.2 1 0.110614 0.0371255 0.00169973 0.00748396 0.00166796 0.0112121 0.002794 0.0238138 0.00199604 0.0132662 0.00283501 0.0282703 0.00341436 0.0229152 0.00411883 0.0335071 0.00359408 0.0290021 0.00648107 0.0428954
97 3 O -0.0784193 19.8584 55.6486 -1.2 1 0.0499497 0.0252818 0.00461146 0.00577273 0.00126654 0.00694893 0.0022157 0.0227354 0.00158062 0.0101131 0.00208166 0.0262617 0.00210816 0.0206028 0.00360622 0.0335505 0.00359464 0.02711 0.0048499 0.0465788
98 3 O 2.45442 19.8394 55.5775 -1.2 1 0.0457637 0.0242376 0.00524915 0.00590222 0.00132876 0.00667655 0.00232286 0.0222068 0.00186874 0.00979438 0.00162558 0.0262333 0.00215362 0.0206752 0.00345875 0.0335235 0.0035925 0.0268372 0.00517149 0.0459297
99 1 Mg -0.126194 18.8651 52.2079 1.2 1 0.117913 0.0410593 0.00188224 0.00845395 0.00245823 0.0100181 0.00194893 0.0239329 0.00250911 0.014214 0.00253559 0.0285186 0.00298552 0.0238836 0.003816 0.0336285 0.00371543 0.0295492 0.00690526 0.0416759
100 1 Mg 1.92402 18.5815 49.4545 1.2 1 0.184238 0.0520651 0.00589321 0.0122471 0.00199349 0.0148177 0.00359397 0.0258384 0.00421246 0.0189658 0.00375178 0.0298818 0.00440161 0.0274569 0.0054501 0.0357255 0.00594113 0.0331744 0.00975851 0.0400155
101 2 Si 1.38106 20.9117 51.2443 2.4 1 0.147797 0.0465977 0.00272564 0.0103626 0.00229579 0.0130447 0.00360936 0.0252986 0.00370754 0.0165519 0.00487147 0.0283737 0.0038541 0.0256435 0.00605994 0.034071 0.0037352 0.0314354 0.00862574 0.0415066
102 3 O 1.48527 22.4795 51.3054 -1.2 1 0.142691 0.0435088 0.0027784 0.0094998 0.0015046 0.0127785 0.00280917 0.025104 0.00357369 0.0154337 0.00315713 0.0289432 0.00366007 0.0243571 0.00461338 0.0343893 0.00461163 0.0307444 0.00772415 0.0416765
103 3 O 1.3438 19.774 57.8036 -1.2 1 0.0161281 0.0128793 0.00360509 0.00582908 0.00130376 0.00621396 0.00170482 0.0223887 0.00187061 0.00805368 0.0023996 0.0260438 0.00208254 0.0192768 0.00284652 0.0327187 0.00391317 0.0260755 0.00415041 0.0469938
104 3 O 0.0615419 20.2804 50.6669 -1.2 1 0.157247 0.04629 0.00434819 0.0112877 0.00326018 0.0134325 0.00338324 0.0252477 0.0036665 0.0161332 0.00328674 0.0288608 0.00372487 0.0260562 0.00490742 0.0344884 0.00408387 0.0312877 0.00838065 0.0414446
105 1 Mg -3.09665 18.8643 52.3122 1.2 1 0.124542 0.0408152 0.00177181 0.0084929 0.00160408 0.0115625 0.00214355 0.0239029 0.00250015 0.0146895 0.0027414 0.0285398 0.00296204 0.0243552 0.00389893 0.0333518 0.00407226 0.029315 0.0066384 0.0408667
106 3 O 2.61548 20.2646 50.4626 -1.2 1 0.160809 0.0483142 0.0044729 0.0103538 0.00175589 0.0138759 0.0034172 0.0259626 0.00367675 0.0180077 0.00358633 0.0289946 0.00355823 0.0265194 0.0052771 0.0344509 0.00450347 0.03138 0.00849216 0.0406109
107 1 Mg -1.69031 19.0329 55.0381 1.2 1 0.0558655 0.0274828 0.00444174 0.00617386 0.00134518 0.00701091 0.00203827 0.022455 0.0021664 0.0100668 0.00230248 0.0267439 0.00220519 0.0212231 0.00371632 0.0329871 0.00446169 0.0268708 0.00505449 0.0449963
108 2 Si -1.45766 16.8726 53.2488 2.4 1 0.101013 0.0363724 0.00199241 0.00761036 0.00254736 0.00844734 0.00135827 0.0227475 0.00282818 0.0126909 0.0022791 0.0275356 0.00317453 0.0232576 0.00348841 0.0330446 0.00471304 0.0277723 0.00642897 0.0431367
109 3 O -1.67619 15.3542 53.3758 -1.2 1 0.0958572 0.034157 0.00199327 0.0070728 0.00269242 0.00839967 0.00149066 0.0217554 0.00254417 0.0112395 0.00281547 0.0275769 0.00245481 0.0218257 0.00427462 0.033548 0.00374664 0.026909 0.00710777 0.0432565
110 3 O -1.12868 18.1227 46.4249 -1.2 1 0.271093 0.0529124 0.0204404 0.0208351 0.00566166 0.0239414 0.00545206 0.0316751 0.0077129 0.021549 0.00628951 0.0332699 0.00691512 0.0275132 0.00851849 0.0369601 0.0120094 0.0372646 0.0134407 0.0389709
111 3 O -2.80988 17.6111 53.9349 -1.2 1 0.0836807 0.0321627 0.00255586 0.0060876 0.00136423 0.00891462 0.00166321 0.0227581 0.00194045 0.0120601 0.00199309 0.0268775 0.00258553 0.0227108 0.00285545 0.0334132 0.00403533 0.0275978 0.00557378 0.0435127
112 3 O -0.15129 17.513 53.8555 -1.2 1 0.0813486 0.0329305 0.00320175 0.00646109 0.00217026 0.00734042 0.00143747 0.0229167 0.00200155 0.0115915 0.00225623 0.0268645 0.00260482 0.0226973 0.00319358 0.0335578 0.0038674 0.0276973 0.0061516 0.0435663
113 1 Mg -2.95115 25.8857 57.309 1.2 1 0.0216813 0.015673 0.00466172 0.00607376 0.0015801 0.00609275 0.00134955 0.0224966 0.001922 0.00944468 0.00144954 0.0267336 0.00191765 0.0200943 0.0027775 0.0336021 0.00320848 0.0264748 0.00307793 0.0467004
114 1 Mg -1.48778 25.88 49.8402 1.2 1 0.180148 0.0493076 0.00721377 0.0131252 0.00312001 0.0155756 0.00335462 0.027691 0.00456937 0.0181047 0.00454521 0.0309437 0.00417496 0.0263744 0.00631429 0.0351254 0.00587678 0.0324859 0.00955036 0.0404414
115 2 Si -1.00491 23.3922 47.9274 2.4 1 0.233988 0.05428 0.0148152 0.0181202 0.00394842 0.0208323 0.0051365 0.0291072 0.00751 0.020753 0.00586329 0.0319805 0.00593952 0.0289778 0.00680484 0.0360101 0.00964289 0.0352595 0.0115064 0.039789
116 3 O -0.927602 24.9615 47.9909 -1.2 1 0.232597 0.0541821 0.0147894 0.0180773 0.00411387 0.0208536 0.00489327 0.0293195 0.00766543 0.0205509 0.00652931 0.0318019 0.00596613 0.0284175 0.00835026 0.0359967 0.00925006 0.03562 0.0113086 0.039839
117 3 O -1.55795 22.2588 51.7696 -1.2 1 0.135167 0.0421023 0.00273324 0.00995603 0.00277235 0.0117348 0.00171039 0.025002 0.00266502 0.0148037 0.00266513 0.0286565 0.00369259 0.0238493 0.00443828 0.0341032 0.00501994 0.0297682 0.00770504 0.041679
118 3 O -2.17411 22.8111 48.8277 -1.2 1 0.204988 0.0533858 0.00974665 0.0150896 0.00346593 0.0173163 0.00422354 0.0288283 0.00542326 0.0203444 0.0042921 0.0311641 0.00453072 0.0278167 0.00604399 0.0360655 0.00735294 0.0342008 0.00987521 0.0397114
119 1 Mg 0.0423997 21.3296 46.8225 1.2 1 0.257971 0.054158 0.0186504 0.0202241 0.00467484 0.024595 0.00582678 0.0320619 0.00860259 0.0226273 0.00665723 0.0335924 0.00709571 0.0291846 0.00888451 0.0359937 0.010577 0.0373971 0.0129318 0.0395666
120 3 O 0.458537 22.7495 48.3911 -1.2 1 0.214254 0.0538352 0.0113081 0.0161806 0.00347607 0.0182577 0.00368566 0.0285211 0.00618034 0.0201846 0.00421242 0.0307452 0.00512328 0.0291861 0.00625624 0.0356173 0.00793577 0.0355622 0.0104358 0.0404718