ITEM: TIMESTEP
75200
ITEM: NUMBER OF ATOMS
10500
ITEM: BOX BOUNDS xy xz yz pp pp pp
0	8.9688	2.9896
0	118.725	0
0	252.977	0
ITEM: ATOMS id type element xu yu zu q Q_1 Q_2 Q_3 Q_4 Q_5 Q_6 Q_7 Q_8 Q_9 Q_10 Q_11 Q_12 Q_13 Q_14 Q_15 Q_16 Q_17 Q_18 Q_19 Q_20 Q_21
1 1 Mg -3.52438 7.04985 57.6781 1.2 1 0.0197619 0.0138432 0.00417065 0.00506894 0.00212416 0.00639932 0.00141804 0.0204373 0.00155426 0.00874237 0.00188839 0.024748 0.00266868 0.0184747 0.00229878 0.0317924 0.00338956 0.0241324 0.00466088 0.0424792
2 1 Mg -1.82655 6.90154 50.0912 1.2 1 0.17571 0.0456594 0.00613487 0.00948277 0.00304477 0.0082655 0.00419518 0.0215946 0.00362827 0.0142757 0.00435833 0.0230902 0.00479878 0.0212757 0.00679552 0.0284703 0.00569047 0.0248635 0.00819501 0.0310984
3 2 Si -0.257935 3.96038 48.0876 2.4 1 0.226623 0.0517073 0.011273 0.0127052 0.00294215 0.00948161 0.00392629 0.0197725 0.00511412 0.0161733 0.00460023 0.022984 0.00530888 0.0208296 0.00571829 0.0253643 0.00681282 0.024128 0.00813764 0.0300541
4 3 O -0.335812 5.46814 47.6264 -1.2 1 0.232495 0.0510973 0.0129804 0.0135342 0.00366394 0.0103183 0.0044662 0.0206078 0.00572068 0.017143 0.00516213 0.0235167 0.00500762 0.0214475 0.00553669 0.0257564 0.00717453 0.0251453 0.00935185 0.0288477
5 3 O -2.03793 3.43377 51.8941 -1.2 1 0.129784 0.0398653 0.00212253 0.0063509 0.00197094 0.0068045 0.00314748 0.0192666 0.00199187 0.0108051 0.00294706 0.0226511 0.0035953 0.0183498 0.0048022 0.0275331 0.00521413 0.0223275 0.00709443 0.033052
6 3 O -1.54015 3.53929 48.9521 -1.2 1 0.203617 0.049798 0.00865797 0.0110414 0.0025968 0.00833963 0.00379619 0.0192372 0.0044902 0.014505 0.00451039 0.0220501 0.00449777 0.0207038 0.0059622 0.0263477 0.00596267 0.0234977 0.00811344 0.0293719
7 1 Mg 1.82954 2.54582 47.1376 1.2 1 0.250341 0.0518113 0.0154512 0.0163671 0.0032451 0.0109228 0.00389655 0.0194024 0.00570918 0.0154418 0.00497442 0.0231024 0.00681358 0.0202291 0.00771254 0.024288 0.00709242 0.0230869 0.00878146 0.0290397
8 3 O 1.22989 3.66364 48.7877 -1.2 1 0.205824 0.0489561 0.00918771 0.0118038 0.00217947 0.00941823 0.0038282 0.0195947 0.00378069 0.0145693 0.00397447 0.0220374 0.00441869 0.020106 0.0061169 0.025729 0.00452995 0.0233386 0.00821074 0.0301367
9 1 Mg 0.803967 2.19732 54.7061 1.2 1 0.070034 0.0291812 0.00419681 0.00416347 0.00167632 0.00605873 0.00279229 0.0204368 0.00217203 0.00930575 0.00296378 0.0234161 0.00398498 0.0194892 0.00432281 0.0299792 0.0032628 0.0228711 0.00652511 0.0377442
10 2 Si 0.728617 5.03095 56.4854 2.4 1 0.0319128 0.0188417 0.00521009 0.0050164 0.00162226 0.00627234 0.00179649 0.0203235 0.00215479 0.00783097 0.00398864 0.0234297 0.00328623 0.0186404 0.00481425 0.0310511 0.00378298 0.0234816 0.00564174 0.0419521
11 3 O 0.819467 3.42227 56.6293 -1.2 1 0.0313001 0.0180042 0.00490942 0.00477046 0.00173202 0.00612633 0.00188217 0.0203508 0.00231258 0.00771987 0.00222149 0.0239732 0.00290883 0.0185518 0.00325467 0.0308779 0.00381896 0.023723 0.00526117 0.0417041
12 3 O 1.10813 6.07342 52.8172 -1.2 1 0.106652 0.0355512 0.0020315 0.00575021 0.00280038 0.00714193 0.00306267 0.0212783 0.00247346 0.0107917 0.00305179 0.0233891 0.00385517 0.0192885 0.00468112 0.0295928 0.00436918 0.0240095 0.00633581 0.0355083
13 3 O -0.638775 5.62382 55.7699 -1.2 1 0.0473935 0.0240348 0.00499646 0.00405602 0.00156206 0.00620034 0.00212739 0.0206745 0.0019628 0.00896241 0.00292329 0.0237995 0.00305447 0.0189108 0.00432172 0.0310012 0.0037903 0.0240925 0.0058079 0.0398189
14 3 O 2.07902 5.6876 55.7815 -1.2 1 0.0419744 0.0227321 0.00580431 0.00447986 0.00129898 0.00639513 0.00197952 0.0206825 0.00160887 0.00868261 0.00282885 0.0236517 0.00329196 0.0189342 0.0041836 0.0316499 0.0033628 0.0240698 0.00624494 0.0403833
15 1 Mg -0.459401 4.67631 52.2426 1.2 1 0.12502 0.0398922 0.00188146 0.00616816 0.00261847 0.00671445 0.00267137 0.020053 0.00240293 0.0115546 0.00305663 0.0234707 0.00388124 0.0196562 0.00427952 0.0284042 0.00427495 0.0228628 0.00655457 0.0328312
16 1 Mg 2.79456 3.9971 49.9987 1.2 1 0.17573 0.0480353 0.00565235 0.00964332 0.002325 0.00808464 0.00426976 0.0201327 0.0029535 0.0140124 0.00308418 0.0225792 0.00396021 0.0205247 0.0060933 0.0270012 0.00469625 0.0235887 0.00821195 0.0303606
17 2 Si 1.16169 6.59457 51.2556 2.4 1 0.146361 0.0436214 0.00303441 0.00824695 0.00272217 0.00834965 0.00406376 0.0211297 0.00301551 0.0129046 0.00422486 0.0231735 0.00429075 0.0207194 0.00621584 0.0294447 0.00461379 0.0247066 0.00805878 0.0329529
18 3 O 1.28989 8.18905 51.2909 -1.2 1 0.147818 0.0432158 0.00309389 0.00852192 0.00258271 0.00923451 0.00382932 0.0216404 0.00330349 0.0133371 0.00356083 0.0245892 0.00417142 0.02074 0.00601947 0.0304787 0.00552223 0.0259384 0.00761913 0.0350398
19 3 O 0.685119 5.78493 57.972 -1.2 1 0.0165351 0.0120422 0.00373956 0.00533038 0.00127134 0.00677762 0.0011546 0.0208144 0.00154687 0.00786027 0.00288927 0.0239722 0.00296081 0.0188185 0.00332241 0.0317605 0.00312412 0.0241657 0.00476073 0.0434837
20 3 O -0.184847 6.06029 50.6845 -1.2 1 0.164816 0.0442959 0.00541663 0.00891044 0.00345051 0.00812223 0.00422075 0.0208439 0.00333455 0.0131784 0.00331836 0.0225695 0.00390923 0.0205236 0.0056453 0.0275421 0.0050293 0.0239993 0.00789218 0.0323834
21 1 Mg -3.49704 4.67769 52.6661 1.2 1 0.116439 0.0378196 0.00157571 0.00558056 0.00230584 0.00701659 0.00269061 0.0195283 0.00291902 0.0105757 0.00333298 0.0231793 0.00357831 0.0191856 0.0046069 0.0282226 0.00436541 0.0227728 0.00669666 0.0338066
22 3 O 2.48581 5.93312 50.6539 -1.2 1 0.158424 0.0455808 0.00434572 0.00770321 0.00159169 0.00886881 0.00406811 0.0210852 0.0029984 0.0134005 0.00390261 0.0225138 0.00432069 0.0210673 0.00589207 0.0285669 0.0045279 0.0244991 0.00763561 0.0314305
23 1 Mg -2.25863 4.65018 55.2072 1.2 1 0.0518548 0.0259066 0.00555527 0.00418616 0.00186087 0.00588523 0.00188508 0.0200108 0.00196475 0.00864904 0.00303332 0.0238222 0.00264835 0.0190346 0.0043817 0.0305838 0.0039225 0.0231866 0.00670294 0.0387223
24 2 Si -2.20207 2.59538 53.3844 2.4 1 0.0998484 0.0350197 0.00231742 0.00518828 0.002518 0.00618854 0.00214796 0.0196449 0.00238693 0.0100355 0.0026937 0.0228115 0.00309878 0.0188947 0.00402646 0.0278628 0.00388588 0.0217716 0.00642904 0.035711
25 3 O -2.21218 1.11592 53.531 -1.2 1 0.0940876 0.0335753 0.0025515 0.0051397 0.00272545 0.00580566 0.00218958 0.0196679 0.00201592 0.00965931 0.00247334 0.0236415 0.00304124 0.0191285 0.00414744 0.0283477 0.00414983 0.022047 0.00669502 0.0359179
26 3 O -0.0467762 2.97103 46.8385 -1.2 1 0.251588 0.0517999 0.0151062 0.0155462 0.00357121 0.00975441 0.0034279 0.0196147 0.00596397 0.0161062 0.00601403 0.0230567 0.00667662 0.0196864 0.00744582 0.0244211 0.00727797 0.0232757 0.0095311 0.0305463
27 3 O -3.45518 3.3904 53.9827 -1.2 1 0.0824548 0.031421 0.00283351 0.00402795 0.00267866 0.00592893 0.00262484 0.019896 0.00232795 0.00940999 0.00243589 0.0224019 0.00318399 0.0195266 0.00317295 0.0289809 0.00403694 0.0223469 0.00617893 0.0360983
28 3 O -0.932936 3.21077 54.2347 -1.2 1 0.0784284 0.0306459 0.0034361 0.00398551 0.00197262 0.00609698 0.00175079 0.0201358 0.00173165 0.00957263 0.00241189 0.0230288 0.00332534 0.0198485 0.00356238 0.0289152 0.00322565 0.0225325 0.00595483 0.0363792
29 1 Mg -3.41517 11.8465 57.6229 1.2 1 0.02192 0.0145223 0.00424184 0.00554139 0.00136216 0.00614779 0.00117935 0.0201275 0.00190308 0.00958352 0.00198426 0.0248348 0.00191173 0.018476 0.00293286 0.0322776 0.00343314 0.0252578 0.004383 0.042445
30 1 Mg -1.75014 11.5838 49.8362 1.2 1 0.184121 0.0465759 0.00759539 0.0116558 0.00433075 0.0125999 0.00467712 0.0236904 0.0047487 0.0159783 0.0056305 0.0273157 0.00419473 0.0236115 0.00786041 0.032811 0.0068504 0.0291007 0.00988006 0.0359991
31 2 Si -1.18003 9.02138 47.9309 2.4 1 0.239126 0.049967 0.014577 0.015312 0.00551931 0.013417 0.00750029 0.0229808 0.00698403 0.0173646 0.00708423 0.0251504 0.00502087 0.023087 0.00739003 0.0295824 0.00873753 0.0284186 0.012206 0.0321577
32 3 O -1.23224 10.5991 47.9811 -1.2 1 0.230868 0.0514873 0.0128541 0.0156652 0.00546638 0.0146501 0.00626253 0.0243295 0.00749023 0.0175314 0.00741109 0.0270873 0.00524916 0.0238886 0.008573 0.0321951 0.00937597 0.0304608 0.0114644 0.033306
33 3 O -1.79016 8.01447 51.8693 -1.2 1 0.133273 0.0397457 0.0024888 0.00793744 0.00338988 0.00742696 0.00295683 0.0215327 0.00269675 0.0125256 0.00307657 0.0243771 0.0034959 0.0200803 0.00523219 0.0304135 0.00560417 0.024914 0.00771622 0.0349037
34 3 O -2.30986 8.37215 48.8528 -1.2 1 0.203551 0.0497259 0.00891281 0.0119924 0.00435248 0.0105138 0.00589572 0.022974 0.00495976 0.0169929 0.00501047 0.0247236 0.00489259 0.0229955 0.00631366 0.030349 0.00657593 0.0274752 0.00957438 0.03181
35 1 Mg 0.154883 7.08234 46.8007 1.2 1 0.25753 0.0514524 0.0172476 0.0161337 0.00635374 0.0136343 0.00813065 0.0234121 0.00721031 0.0176486 0.00712346 0.024194 0.00734504 0.0223236 0.00789188 0.0278923 0.00963012 0.0281136 0.0130413 0.0296207
36 3 O 0.325447 8.50934 48.3809 -1.2 1 0.216432 0.0509437 0.0106019 0.013731 0.00447024 0.0123499 0.00604039 0.0234658 0.00580012 0.0170824 0.00610863 0.0246243 0.00522685 0.0241747 0.00618555 0.0297184 0.00715451 0.0280304 0.0106503 0.0321317
37 1 Mg 1.25199 7.23432 54.6465 1.2 1 0.0685084 0.0293115 0.00419794 0.00455261 0.00197261 0.00638433 0.00249753 0.0205198 0.00215018 0.0097437 0.00289567 0.0235536 0.00339789 0.0195839 0.00376303 0.0314814 0.00426733 0.0238376 0.00649886 0.0383741
38 2 Si 1.13937 9.67789 56.4316 2.4 1 0.0343427 0.0203987 0.00541286 0.00573918 0.00126333 0.00636025 0.00169731 0.0207578 0.00170118 0.00861836 0.00315389 0.0229326 0.00249732 0.0195523 0.00374227 0.0324927 0.00358909 0.025241 0.00565382 0.042926
39 3 O 1.29946 8.13415 56.4795 -1.2 1 0.0347103 0.0202215 0.0053628 0.00512292 0.00107854 0.00631231 0.0017113 0.0209091 0.00215151 0.00817194 0.00252987 0.0240069 0.00328122 0.0185277 0.00333876 0.0320154 0.00363149 0.024692 0.00539576 0.0421607
40 3 O 1.28624 10.7248 52.7351 -1.2 1 0.113391 0.0372797 0.00238284 0.00691872 0.00229318 0.00941936 0.0027087 0.0220888 0.00259132 0.0123671 0.00385436 0.0250617 0.00399535 0.0210706 0.00551887 0.03251 0.00465123 0.0271308 0.00720426 0.0386874
41 3 O 0.00417129 10.363 55.6274 -1.2 1 0.0535216 0.0257538 0.00445834 0.00562767 0.00145423 0.00649373 0.00155718 0.0206653 0.00187455 0.0101446 0.00243911 0.0237641 0.00304826 0.019818 0.00378846 0.0331379 0.00379903 0.0258518 0.00470763 0.0415836
42 3 O 2.50094 10.5816 55.6979 -1.2 1 0.0460511 0.0245034 0.00559561 0.00579905 0.00088836 0.00668834 0.00237713 0.0208652 0.00197458 0.00996028 0.0028272 0.0235572 0.00241822 0.019833 0.00379624 0.0328284 0.00380974 0.0265461 0.00532329 0.0419477
43 1 Mg -0.262694 9.34741 52.2523 1.2 1 0.115296 0.0395403 0.0025503 0.00740797 0.00304596 0.0077901 0.00238686 0.0223587 0.00249467 0.0126056 0.00283753 0.0251138 0.00343433 0.0210388 0.0049332 0.0318618 0.00494954 0.0263452 0.00724269 0.0367497
44 1 Mg 1.87648 9.01537 49.4629 1.2 1 0.187307 0.0505427 0.00581699 0.0110368 0.00300768 0.0112366 0.00581694 0.02296 0.00496333 0.0162788 0.00508341 0.0253309 0.00497071 0.0232116 0.00681418 0.0311589 0.00551121 0.028458 0.00978236 0.0332613
45 2 Si 1.21415 11.3799 51.2378 2.4 1 0.150024 0.0455929 0.00294926 0.0094895 0.00267965 0.0111837 0.00347033 0.0231245 0.00353602 0.0149176 0.0050651 0.0258786 0.00405935 0.0235444 0.00644477 0.0328245 0.00558491 0.0288584 0.00920763 0.0379637
46 3 O 1.31634 12.9512 51.3023 -1.2 1 0.148796 0.0439496 0.00379144 0.00940371 0.00223449 0.0118789 0.00325607 0.0231179 0.00390211 0.0150352 0.0041975 0.02734 0.00416177 0.0239323 0.00510379 0.0332341 0.00552396 0.0291284 0.00848491 0.0384499
47 3 O 1.08837 10.3267 57.952 -1.2 1 0.017556 0.012915 0.00350384 0.00540565 0.0011915 0.0066038 0.0013451 0.0206368 0.00177127 0.0086641 0.00289981 0.0234004 0.00268455 0.0187372 0.00310192 0.0318014 0.00332893 0.0253692 0.00439669 0.0429647
48 3 O -0.115718 10.7564 50.681 -1.2 1 0.157517 0.0450235 0.00425883 0.010259 0.00358898 0.0106258 0.00381927 0.0229824 0.00360235 0.0144153 0.00373483 0.0260664 0.00398177 0.0228104 0.00636329 0.0320041 0.00572031 0.0281093 0.00921573 0.0366628
49 1 Mg -3.26386 9.35564 52.3622 1.2 1 0.123117 0.0385498 0.00202701 0.0070932 0.00202777 0.00945919 0.00335421 0.0219148 0.00306663 0.0126504 0.00380526 0.0249208 0.00328339 0.0207262 0.00534885 0.0319917 0.00483523 0.0261444 0.00729268 0.035631
50 3 O 2.45216 10.7265 50.4558 -1.2 1 0.163483 0.04681 0.00455692 0.00894361 0.00233155 0.0116374 0.00454248 0.0227695 0.00413005 0.0159663 0.0046966 0.0259648 0.0039993 0.0236486 0.00714693 0.0326587 0.00552839 0.0285687 0.00909988 0.0360043
51 1 Mg -1.89795 9.59566 55.2077 1.2 1 0.0552996 0.02682 0.00504491 0.0052316 0.00190926 0.00663259 0.00215548 0.0215186 0.00233643 0.00979465 0.00290337 0.0242816 0.00254971 0.0196575 0.00353566 0.0320353 0.0040733 0.025659 0.00554526 0.0408841
52 2 Si -1.65923 7.37217 53.4768 2.4 1 0.0925909 0.0342944 0.00281129 0.0055949 0.00314998 0.00661249 0.00256832 0.020641 0.0025962 0.010694 0.00253909 0.0235839 0.00313813 0.020513 0.00405315 0.0307018 0.00490839 0.0241533 0.00645606 0.0366426
53 3 O -1.82841 5.86209 53.512 -1.2 1 0.0932687 0.0328639 0.00212487 0.00472608 0.00257203 0.00634785 0.00215638 0.0196157 0.00230268 0.00947184 0.00291316 0.023108 0.00267072 0.0189434 0.00468751 0.0300223 0.00399922 0.0231744 0.00686379 0.0357208
54 3 O -1.19417 8.46968 46.4488 -1.2 1 0.27034 0.0513752 0.01948 0.0179534 0.0060796 0.0146612 0.00847835 0.0244335 0.00755872 0.0177466 0.00754366 0.0250954 0.0062074 0.0218591 0.00891594 0.0295597 0.0105888 0.0295639 0.0124515 0.0301246
55 3 O -2.86359 8.21157 54.0773 -1.2 1 0.083365 0.0314013 0.00318877 0.00506842 0.00242406 0.00745291 0.00228549 0.0207514 0.00221459 0.01051 0.00250678 0.0235322 0.00301119 0.0201079 0.00415501 0.0318141 0.00425371 0.0243455 0.00712192 0.0377852
56 3 O -0.351551 8.19366 54.0682 -1.2 1 0.0765581 0.030898 0.00393256 0.00488871 0.00245363 0.00620616 0.00195666 0.0210796 0.00185754 0.0103976 0.00249582 0.02314 0.0028584 0.020365 0.0034602 0.0321158 0.00430373 0.0254746 0.0061166 0.0382761
57 1 Mg -3.06199 16.6951 57.2098 1.2 1 0.0246213 0.0154691 0.00467552 0.00520048 0.00177205 0.00643732 0.0014904 0.0201708 0.00196648 0.0094702 0.00196144 0.0248423 0.00228941 0.0189797 0.00319264 0.0315379 0.00334643 0.0252197 0.00396938 0.0428078
58 1 Mg -1.6714 16.3544 49.8412 1.2 1 0.181456 0.0478046 0.00729296 0.0129472 0.00348405 0.0151738 0.00309269 0.0254137 0.00447514 0.0179146 0.00501329 0.029985 0.00356808 0.025923 0.00637892 0.0342961 0.00574418 0.0316727 0.00909328 0.0394981
59 2 Si -1.18567 13.8526 47.9314 2.4 1 0.231531 0.0525744 0.0146705 0.0166913 0.0047009 0.0182395 0.00464151 0.0267219 0.00829086 0.0193791 0.00640188 0.0302606 0.00541206 0.0279334 0.0065097 0.0342385 0.00948771 0.0325388 0.0111326 0.0376746
60 3 O -1.09664 15.4205 47.9915 -1.2 1 0.235209 0.0530522 0.0151231 0.0177325 0.00517741 0.020201 0.00437764 0.0276021 0.00779699 0.019765 0.00680411 0.0307863 0.00561588 0.027521 0.00784695 0.0351396 0.00913775 0.0342539 0.0108681 0.0384329
61 3 O -1.73493 12.7491 51.7772 -1.2 1 0.135524 0.0406625 0.00317265 0.00932711 0.00354982 0.0102265 0.00192319 0.0230347 0.00307568 0.0140059 0.00321532 0.0271532 0.00386076 0.0226268 0.00509714 0.0328661 0.00527949 0.0281929 0.00804289 0.0397789
62 3 O -2.36115 13.2717 48.8238 -1.2 1 0.207972 0.052265 0.0100327 0.0140912 0.00479629 0.0149756 0.00466876 0.0261699 0.00614768 0.0192379 0.00525584 0.0294363 0.00456065 0.0265757 0.00605271 0.0344195 0.00806278 0.0317715 0.0103595 0.036828
63 1 Mg -0.159928 11.7639 46.8533 1.2 1 0.262333 0.0527425 0.0183442 0.0190409 0.00610373 0.0201399 0.00733291 0.0283226 0.00869922 0.0197253 0.00793644 0.0298798 0.00671033 0.0271564 0.00837254 0.0333768 0.0107653 0.0336913 0.013685 0.0349001
64 3 O 0.2623 13.1866 48.413 -1.2 1 0.215356 0.0522069 0.0113839 0.0151834 0.00414421 0.0165272 0.00436111 0.0260908 0.00674764 0.0185519 0.00512941 0.0288116 0.00470563 0.027808 0.00562252 0.0336319 0.0079723 0.0329152 0.0105071 0.037308
65 1 Mg 1.41081 11.7783 54.7226 1.2 1 0.0681823 0.0303979 0.00388904 0.00598958 0.0017755 0.00676745 0.00238103 0.0211163 0.0019774 0.0112196 0.00229912 0.0249075 0.00292915 0.0207367 0.00279985 0.0334757 0.0039658 0.0262021 0.00526302 0.0407388
66 2 Si 1.10646 14.3992 56.5 2.4 1 0.033221 0.0193591 0.00485739 0.00639041 0.00155854 0.00683792 0.00160841 0.0207177 0.00205909 0.00905366 0.00264369 0.0240789 0.00211489 0.0196127 0.00313401 0.0321342 0.00329314 0.0261248 0.00484186 0.0446209
67 3 O 1.26337 12.9055 56.6065 -1.2 1 0.0299738 0.0182549 0.00482948 0.00622606 0.00133816 0.00621872 0.00177418 0.0203642 0.00269777 0.00891247 0.00185166 0.0244305 0.0024988 0.0187489 0.00320245 0.0325176 0.00386018 0.0262355 0.00507054 0.0433076
68 3 O 1.36565 15.4813 52.729 -1.2 1 0.114535 0.0381743 0.00135383 0.00819447 0.00190998 0.0111927 0.00303151 0.0227789 0.00222989 0.0141135 0.00352334 0.0274777 0.00368584 0.0225109 0.00461017 0.0328714 0.00381151 0.0287998 0.00678039 0.0410216
69 3 O -0.12825 15.0922 55.7159 -1.2 1 0.049805 0.0243684 0.0041031 0.00589679 0.00149753 0.00717591 0.00176821 0.0210557 0.00143326 0.0103248 0.0025403 0.0249111 0.00217571 0.0198381 0.00317296 0.0325404 0.00300258 0.0267139 0.00472917 0.0438208
70 3 O 2.41032 15.1619 55.6465 -1.2 1 0.0457313 0.023762 0.00546887 0.00599269 0.00149261 0.00658861 0.00200262 0.0205139 0.00186485 0.00981901 0.0026375 0.0250378 0.00223743 0.0198193 0.00348852 0.033077 0.00331684 0.0263899 0.00534749 0.043436
71 1 Mg -0.206989 14.1049 52.2121 1.2 1 0.119367 0.041204 0.00152083 0.00874411 0.00267329 0.00936814 0.00197748 0.0231446 0.00277176 0.0141606 0.00338237 0.027408 0.00334208 0.0230776 0.00431202 0.0331761 0.00409212 0.0290826 0.00705762 0.0395603
72 1 Mg 1.82591 13.8102 49.4556 1.2 1 0.186798 0.0519674 0.00635897 0.0120449 0.00255242 0.0142235 0.00434477 0.0245674 0.00491242 0.0179441 0.00553682 0.0286852 0.00477746 0.026549 0.00627172 0.0345464 0.00695177 0.0314557 0.00997594 0.0374382
73 2 Si 1.29285 16.1518 51.2434 2.4 1 0.149083 0.0464543 0.00276452 0.0106726 0.00244115 0.0130689 0.0033852 0.0239875 0.00363299 0.0165997 0.00523014 0.0276677 0.00362226 0.0255201 0.00587079 0.0333517 0.00441502 0.0313188 0.0084394 0.0403445
74 3 O 1.39496 17.7199 51.3047 -1.2 1 0.144794 0.0433788 0.00258652 0.0100701 0.0019565 0.012785 0.00302033 0.0238474 0.00354356 0.0159753 0.00376481 0.0283567 0.00353942 0.0247043 0.00438615 0.0332103 0.00468362 0.030686 0.00740149 0.0399225
75 3 O 1.14482 15.0932 57.886 -1.2 1 0.0181556 0.0123923 0.00365314 0.00574558 0.00167621 0.00686114 0.00135171 0.0207507 0.0017742 0.00870946 0.00301679 0.023944 0.00209749 0.0187981 0.00299784 0.0314096 0.00312865 0.025395 0.00452114 0.0444535
76 3 O -0.0269106 15.5178 50.6688 -1.2 1 0.158248 0.0459085 0.00452191 0.0114106 0.00329432 0.013205 0.00341275 0.0238759 0.00353562 0.0159356 0.00379332 0.0281232 0.00332711 0.0256623 0.00590152 0.0335799 0.00443385 0.0307332 0.00814108 0.0400647
77 1 Mg -3.18391 14.1057 52.3125 1.2 1 0.124945 0.040508 0.00221675 0.00837602 0.00211691 0.0110213 0.00235216 0.0229287 0.00277407 0.0144547 0.00323571 0.0275994 0.00334145 0.0233408 0.00453217 0.0325878 0.00443718 0.028527 0.00684281 0.0395269
78 3 O 2.52432 15.503 50.4579 -1.2 1 0.162674 0.0480287 0.00442337 0.010581 0.00212071 0.0136473 0.00356189 0.0246359 0.00367375 0.0180573 0.00401396 0.0285885 0.00359168 0.0264443 0.00580211 0.0339274 0.00546547 0.0308832 0.00793715 0.0392896
79 1 Mg -1.85745 14.0701 55.3111 1.2 1 0.0534124 0.0268006 0.00476347 0.00634158 0.00198523 0.006757 0.00170688 0.0215106 0.00290068 0.010646 0.00320392 0.0252244 0.00257954 0.0203471 0.00301779 0.0329407 0.0037602 0.0273112 0.00511356 0.0430846
80 2 Si -1.66576 12.1364 53.3715 2.4 1 0.0977929 0.0358854 0.0021889 0.00726312 0.00288849 0.00830238 0.00168902 0.022378 0.00292233 0.0125577 0.00253058 0.0256796 0.00332409 0.0221811 0.00347245 0.0329428 0.00444238 0.0272363 0.00647649 0.0405727
81 3 O -1.69328 10.6395 53.2972 -1.2 1 0.0987194 0.0351917 0.0022901 0.00663389 0.00270694 0.00819972 0.00187841 0.0212202 0.00250418 0.0110943 0.00285913 0.0246007 0.00231987 0.0207504 0.00430563 0.0329787 0.00451381 0.0264816 0.00703046 0.0394337
82 3 O -1.21337 13.3381 46.4311 -1.2 1 0.270819 0.0525218 0.0207851 0.0203437 0.00663075 0.0208002 0.00689724 0.029884 0.00901434 0.0205556 0.00720786 0.0313806 0.00587061 0.0265434 0.00870778 0.0356483 0.0125385 0.0354368 0.0137065 0.0356953
83 3 O -2.97115 12.8417 54.0808 -1.2 1 0.0844439 0.0326692 0.00181029 0.00632739 0.00193612 0.00885729 0.00140371 0.0216086 0.00240744 0.0118005 0.00210877 0.0251783 0.00271336 0.0220433 0.00300099 0.0333856 0.00356482 0.0274043 0.0057634 0.0410633
84 3 O -0.311407 12.7548 53.9597 -1.2 1 0.0815575 0.0327334 0.00263496 0.00651423 0.00260301 0.00671432 0.00138567 0.0217093 0.00189134 0.01155 0.00256718 0.0252049 0.00288615 0.0218149 0.00321896 0.0334657 0.0037643 0.0273924 0.00542666 0.0411328
85 1 Mg -3.16407 21.1525 57.3943 1.2 1 0.023574 0.0143473 0.00410486 0.00536041 0.00167671 0.00646202 0.00142078 0.0191341 0.00188595 0.00982882 0.00188221 0.0241629 0.00207803 0.0188122 0.00287461 0.0310027 0.00357837 0.0244595 0.00473663 0.0400156
86 1 Mg -1.5831 21.1217 49.8405 1.2 1 0.17999 0.0489927 0.00749235 0.0133466 0.00309258 0.0156774 0.00297131 0.0258283 0.00374567 0.0185239 0.0044444 0.0299213 0.00403919 0.0261879 0.00546916 0.0339969 0.00607369 0.0317074 0.00908878 0.0379331
87 2 Si -1.09384 18.6291 47.9287 2.4 1 0.23381 0.0542429 0.0146547 0.0176706 0.00387285 0.0207658 0.00403629 0.0280384 0.00738364 0.0206368 0.0060296 0.0317922 0.00622705 0.0288265 0.00617184 0.0354129 0.00967175 0.0345518 0.0114081 0.0393862
88 3 O -1.02071 20.1985 47.9911 -1.2 1 0.230697 0.0536689 0.0144575 0.0180533 0.00420597 0.0208404 0.00408153 0.0279731 0.00684697 0.020579 0.00684459 0.0313682 0.00551883 0.0281687 0.00710272 0.0359855 0.00889407 0.0350878 0.0112862 0.0388591
89 3 O -1.65002 17.5002 51.771 -1.2 1 0.13611 0.0415039 0.00263948 0.0103741 0.00273445 0.0117256 0.00130822 0.0234436 0.00242362 0.0152157 0.00268382 0.0278657 0.00337092 0.0234179 0.00422839 0.0328505 0.00500501 0.0293993 0.00703244 0.0404774
90 3 O -2.26174 18.0434 48.8281 -1.2 1 0.205838 0.0534142 0.00986478 0.0150692 0.00367908 0.0174536 0.00363204 0.0269557 0.0055432 0.0198609 0.00431147 0.0304903 0.00435101 0.0273021 0.00541314 0.0354018 0.00732453 0.0335949 0.00998825 0.0391825
91 1 Mg -0.0440435 16.5651 46.8269 1.2 1 0.258597 0.0550466 0.0190987 0.019898 0.00549122 0.0245047 0.00518105 0.0308881 0.00939823 0.0220018 0.00709574 0.0331958 0.00696525 0.0291402 0.00839084 0.0354478 0.0101369 0.0369414 0.0124618 0.0394314
92 3 O 0.37001 17.9877 48.3925 -1.2 1 0.215353 0.0538863 0.0112626 0.01618 0.00355613 0.0185107 0.00320769 0.0277033 0.00607017 0.0202399 0.00496846 0.0306114 0.00497344 0.0291908 0.00535826 0.0348402 0.00776144 0.0355683 0.0102236 0.0397807
93 1 Mg 1.19001 16.3881 54.6006 1.2 1 0.0752595 0.0310065 0.00320514 0.00617424 0.00166019 0.00832592 0.00236277 0.0212865 0.00239664 0.0123848 0.00209418 0.0263038 0.00341541 0.0216469 0.00304134 0.0328893 0.00385495 0.0265588 0.00545922 0.0414169
94 2 Si 1.18224 19.4108 56.3569 2.4 1 0.0354875 0.0195809 0.00488484 0.00577783 0.00135821 0.0068388 0.00211758 0.0196862 0.00218744 0.00940247 0.00324901 0.0239921 0.00239843 0.0200321 0.00408322 0.0310447 0.00342996 0.0246925 0.00561901 0.041863
95 3 O 1.098 17.7562 56.5483 -1.2 1 0.0323357 0.0180734 0.0049815 0.00546523 0.00153954 0.00670252 0.00158489 0.0205372 0.00285464 0.00922731 0.00185325 0.0244972 0.00227464 0.0186505 0.0037399 0.0314209 0.00393851 0.0250789 0.0049953 0.0434299
96 3 O 1.45147 20.239 52.7294 -1.2 1 0.112448 0.0380511 0.00111688 0.00804156 0.00165929 0.0115776 0.00296687 0.0224562 0.00271698 0.0144747 0.00346073 0.0267869 0.00379252 0.02274 0.00388963 0.0319386 0.00406464 0.0286194 0.0062968 0.0389794
97 3 O -0.00982746 20.1251 55.8522 -1.2 1 0.0493879 0.0243565 0.0043796 0.00580447 0.00152582 0.00717752 0.00206315 0.0204721 0.00206977 0.010939 0.00280777 0.0241296 0.00245107 0.0207275 0.00429551 0.0318236 0.00351818 0.0261776 0.00547002 0.0410012
98 3 O 2.44954 19.8225 55.6197 -1.2 1 0.046342 0.0237716 0.00549915 0.005983 0.00138058 0.00671484 0.00186702 0.0198846 0.00199863 0.0101771 0.00241185 0.0243236 0.00245306 0.0202718 0.00332644 0.0319213 0.00364592 0.025868 0.00529763 0.0410177
99 1 Mg -0.126194 18.8651 52.2079 1.2 1 0.116487 0.0406181 0.00122709 0.0090682 0.00235749 0.010147 0.00214801 0.0234206 0.0022662 0.0150035 0.00300837 0.0275814 0.00299971 0.0233381 0.003891 0.0322697 0.00353187 0.0290012 0.00666161 0.0396479
100 1 Mg 1.92402 18.5815 49.4545 1.2 1 0.184009 0.052771 0.00576771 0.0127678 0.00189764 0.0153406 0.00379536 0.0255387 0.00392924 0.0195302 0.00422069 0.0296857 0.0044165 0.0271968 0.00484123 0.0350548 0.00598885 0.0334911 0.00971743 0.0391916
101 2 Si 1.38106 20.9117 51.2443 2.4 1 0.142573 0.0458202 0.00247652 0.0106105 0.00208694 0.0132277 0.00312035 0.0244118 0.00328347 0.0170987 0.00463082 0.0273437 0.00366495 0.0253227 0.00481483 0.0323703 0.0037251 0.0309196 0.00738843 0.038807
102 3 O 1.48527 22.4795 51.3054 -1.2 1 0.142387 0.0439307 0.00308519 0.00983065 0.00161169 0.0125715 0.00309204 0.0234874 0.00349439 0.0163072 0.00329817 0.0274195 0.00400704 0.02432 0.00334767 0.0322649 0.00544018 0.0298653 0.00683211 0.0378746
103 3 O 1.30414 19.9924 57.9594 -1.2 1 0.0183179 0.0123759 0.00325122 0.00541445 0.00139427 0.0067669 0.00145121 0.01917 0.00192428 0.00892573 0.00241832 0.0234203 0.0023294 0.0187788 0.00335501 0.0312128 0.00298208 0.024873 0.00520008 0.0412986
104 3 O 0.0615419 20.2804 50.6669 -1.2 1 0.156127 0.0466414 0.00458363 0.0117913 0.003206 0.0138011 0.00326343 0.0241832 0.00340493 0.0164149 0.00352852 0.0276629 0.00327321 0.0259303 0.0048535 0.0328011 0.00399433 0.0308946 0.00791288 0.0392048
105 1 Mg -3.09665 18.8643 52.3122 1.2 1 0.123758 0.0407034 0.0014537 0.00900064 0.001443 0.0116048 0.00227547 0.0229421 0.00202679 0.0153048 0.00289243 0.0275887 0.00333323 0.0238339 0.00353263 0.0324097 0.00406159 0.0292925 0.00631281 0.0392169
106 3 O 2.61548 20.2646 50.4626 -1.2 1 0.160433 0.0488284 0.00449319 0.010993 0.00167698 0.0142939 0.00337757 0.0251874 0.00329379 0.0184364 0.00371738 0.028161 0.00384893 0.0264251 0.00479204 0.0335874 0.00484925 0.03162 0.00811926 0.0386601
107 1 Mg -1.71891 19.0939 55.1667 1.2 1 0.0528669 0.0258884 0.00501923 0.00613804 0.00170509 0.00726735 0.00217713 0.0210099 0.00253973 0.0111441 0.00266478 0.0248612 0.00249839 0.0208589 0.00366232 0.0316385 0.00412977 0.026733 0.00528464 0.0415326
108 2 Si -1.59769 16.8291 53.2147 2.4 1 0.100104 0.0361611 0.00165801 0.00785661 0.00248738 0.00886896 0.00144268 0.0223686 0.00237845 0.0133162 0.00216021 0.026614 0.00300515 0.022735 0.00290491 0.0324767 0.00423621 0.0283725 0.00584578 0.0421062
109 3 O -1.77187 15.2359 52.9932 -1.2 1 0.101612 0.0365342 0.00191889 0.00777659 0.00249453 0.00885274 0.0015389 0.0218449 0.00224725 0.0125419 0.0026342 0.0267512 0.00289085 0.0218627 0.00458356 0.0328395 0.00382635 0.0279789 0.00679913 0.0417369
110 3 O -1.12868 18.1227 46.4249 -1.2 1 0.267977 0.0548336 0.0203648 0.0213477 0.00567306 0.0243715 0.00545291 0.0316571 0.0077113 0.0219776 0.00641414 0.0335903 0.0066968 0.0274862 0.00830746 0.0373214 0.0118263 0.0379484 0.0132815 0.039484
111 3 O -2.90126 17.5345 53.9211 -1.2 1 0.0848788 0.0327935 0.00236489 0.00659267 0.00173613 0.00927573 0.00128677 0.021812 0.00176212 0.0125787 0.00171246 0.0256915 0.00278568 0.0224973 0.00243966 0.0326165 0.00369313 0.0274135 0.00525144 0.0414013
112 3 O -0.380994 17.5162 53.9747 -1.2 1 0.0807465 0.0324599 0.00299782 0.006682 0.00238675 0.00709 0.00159869 0.0216984 0.00156274 0.0119213 0.0025085 0.025686 0.00276303 0.0220874 0.00327833 0.0325695 0.00367636 0.0275661 0.00603149 0.0418791
113 1 Mg -3.48947 26.0211 57.8283 1.2 1 0.0205011 0.0128911 0.00343504 0.00445363 0.00187033 0.0057944 0.00174366 0.0202264 0.00168397 0.0105464 0.0024431 0.0240464 0.00235416 0.018677 0.00251618 0.0314607 0.00365442 0.0242277 0.0040295 0.0395066
114 1 Mg -1.48778 25.88 49.8402 1.2 1 0.179191 0.0495044 0.00734812 0.0132376 0.00300591 0.0151074 0.00348748 0.0265078 0.00406034 0.0188842 0.00426555 0.0299413 0.00401819 0.025763 0.00532012 0.0341438 0.00595689 0.0309675 0.00816016 0.0370236
115 2 Si -1.00491 23.3922 47.9274 2.4 1 0.230464 0.0545994 0.0145865 0.0183183 0.00364965 0.0209814 0.00458282 0.0279655 0.00669591 0.0206829 0.00583606 0.0316644 0.0056816 0.0287974 0.00601095 0.0355885 0.00853303 0.0345287 0.0112688 0.0383227
116 3 O -0.927602 24.9615 47.9909 -1.2 1 0.231094 0.0545416 0.0146231 0.0183785 0.00371378 0.0209188 0.00452755 0.0284251 0.00684583 0.020946 0.00663197 0.0315052 0.00574986 0.0282249 0.00710036 0.0359398 0.00859137 0.034933 0.0107475 0.0380174
117 3 O -1.55795 22.2588 51.7696 -1.2 1 0.133634 0.041673 0.00259594 0.0100777 0.00280671 0.0120938 0.00165981 0.0233911 0.00211367 0.0156915 0.00247209 0.0272586 0.00310786 0.0239473 0.0041032 0.0319653 0.00475942 0.0290204 0.00643479 0.0378149
118 3 O -2.17411 22.8111 48.8277 -1.2 1 0.203304 0.0538719 0.00976188 0.0153638 0.00318896 0.0175193 0.00390333 0.0274087 0.00446569 0.0206899 0.00447691 0.0306707 0.0047567 0.0278398 0.00549089 0.0353257 0.00700036 0.0337803 0.00975404 0.0377935
119 1 Mg 0.0423997 21.3296 46.8225 1.2 1 0.255802 0.0552648 0.0185149 0.0208339 0.00436254 0.0249277 0.00557776 0.031461 0.00774952 0.0228037 0.00697384 0.0336616 0.00704034 0.0292617 0.00835504 0.0361362 0.0102301 0.0371771 0.0129885 0.0389288
120 3 O 0.458537 22.7495 48.3911 -1.2 1 0.212615 0.0540453 0.011091 0.0163638 0.00340683 0.0184968 0.00333882 0.0274785 0.00571274 0.0203652 0.00477756 0.0304836 0.00510887 0.0290187 0.00560513 0.034838 0.00746408 0.0348153 0.0100792 0.0388217
121 1 Mg 1.52272 21.3889 54.496 1.2 1 0.074521 0.0304991 0.00282771 0.00617103 0.00182862 0.00813161 0.00226542 0.0207757 0.00289518 0.0118879 0.0019833 0.0255119 0.00347925 0.0216208 0.00327246 0.0318693 0.00355523 0.0262192 0.00505779 0.039062