ITEM: TIMESTEP
58900
ITEM: NUMBER OF ATOMS
10500
ITEM: BOX BOUNDS xy xz yz pp pp pp
0	8.9688	2.9896
0	118.725	0
0	252.977	0
ITEM: ATOMS id type element xu yu zu q Q_1 Q_2 Q_3 Q_4 Q_5 Q_6 Q_7 Q_8 Q_9 Q_10 Q_11 Q_12 Q_13 Q_14 Q_15 Q_16 Q_17 Q_18 Q_19 Q_20 Q_21
1 1 Mg -3.26406 7.25968 57.392 1.2 1 0.0218656 0.0158067 0.00492615 0.00534755 0.000920654 0.00611609 0.000966338 0.0215288 0.00196968 0.0090983 0.00199307 0.025864 0.00198515 0.0183567 0.0026724 0.0301235 0.00259482 0.0239002 0.00421746 0.040461
2 1 Mg -1.82655 6.90154 50.0912 1.2 1 0.175367 0.0483278 0.00707532 0.00931479 0.00364566 0.00900457 0.00401926 0.0222151 0.00461837 0.0135663 0.00446032 0.0245715 0.00437856 0.0201347 0.00581852 0.0283863 0.00521565 0.0260687 0.00793281 0.0318628
3 2 Si -0.257935 3.96038 48.0876 2.4 1 0.222526 0.0538416 0.0121104 0.0122717 0.00313268 0.0101269 0.00317048 0.0195876 0.00586636 0.0164302 0.00394423 0.0242908 0.00531245 0.0202603 0.00571735 0.026276 0.00674184 0.0254782 0.00803805 0.0309226
4 3 O -0.335812 5.46814 47.6264 -1.2 1 0.23175 0.0534582 0.0139879 0.0132807 0.00380971 0.0110734 0.00399048 0.0204304 0.00608054 0.0172054 0.00429921 0.0246021 0.00480329 0.0206308 0.00538456 0.0265542 0.0071118 0.0262168 0.00822175 0.0294058
5 3 O -2.03793 3.43377 51.8941 -1.2 1 0.127814 0.0416065 0.00196829 0.00620431 0.00225496 0.00732633 0.00274908 0.0199803 0.00253566 0.0108937 0.00320114 0.0244691 0.00330598 0.0173969 0.0038337 0.0276082 0.00500494 0.0244915 0.00719978 0.034614
6 3 O -1.54015 3.53929 48.9521 -1.2 1 0.199649 0.0519833 0.00883069 0.0106387 0.00298497 0.00917217 0.00309271 0.0197913 0.00483842 0.015115 0.00426347 0.0234695 0.00423089 0.0199236 0.00536841 0.0270642 0.005577 0.0253797 0.0077215 0.0308009
7 1 Mg 1.82954 2.54582 47.1376 1.2 1 0.244506 0.0534551 0.0161931 0.0154245 0.00294992 0.011804 0.00324339 0.0198531 0.00561436 0.0157656 0.00477021 0.0241802 0.00597946 0.019483 0.00729708 0.0251956 0.00661574 0.024461 0.00782413 0.029606
8 3 O 1.22989 3.66364 48.7877 -1.2 1 0.202488 0.0505856 0.00944012 0.011657 0.00181456 0.0100592 0.00321072 0.0195992 0.00391931 0.0146524 0.00361122 0.0237166 0.00458452 0.0193911 0.00573733 0.0262795 0.00443021 0.0249248 0.00822527 0.0318304
9 1 Mg 1.14241 2.4371 54.3317 1.2 1 0.0740242 0.0310676 0.00414566 0.00444685 0.00169986 0.0056828 0.00322942 0.0208097 0.00242056 0.00993538 0.00344449 0.0250493 0.00359635 0.0186375 0.0039134 0.0297543 0.0036201 0.0244307 0.00582655 0.0385096
10 2 Si 1.24218 4.993 56.4521 2.4 1 0.0314779 0.0196901 0.00602169 0.00557893 0.00103993 0.00667666 0.0016304 0.0210078 0.0021686 0.00877172 0.00310675 0.0246443 0.00169083 0.0190416 0.00384537 0.0296559 0.00313765 0.0243647 0.00495612 0.042061
11 3 O 1.16524 3.40732 56.5179 -1.2 1 0.0342304 0.020525 0.00587507 0.00524317 0.000724229 0.0058938 0.00240613 0.0209322 0.00265323 0.0086466 0.00213347 0.0256284 0.00280211 0.0184852 0.00347989 0.0300152 0.0037438 0.0248373 0.0043666 0.041956
12 3 O 1.10813 6.07342 52.8172 -1.2 1 0.103308 0.0366444 0.00168061 0.0056882 0.00231322 0.00750165 0.00329833 0.0213787 0.00338002 0.0103177 0.00290036 0.0243776 0.00344281 0.0182152 0.00393802 0.0284429 0.00388967 0.0250181 0.00608841 0.0352902
13 3 O 0.00705183 5.73386 55.768 -1.2 1 0.0438634 0.0245896 0.0055613 0.00466726 0.000804937 0.0055205 0.00207256 0.0206939 0.00264693 0.00904976 0.00267536 0.0249286 0.00237003 0.0185454 0.00327762 0.0299616 0.00274889 0.0244449 0.00448387 0.0394928
14 3 O 2.47048 5.60852 55.75 -1.2 1 0.0423138 0.0249217 0.00624874 0.00461603 0.000846302 0.00621619 0.00255446 0.0212648 0.002081 0.00902411 0.00255384 0.0251922 0.00265397 0.0191147 0.00415712 0.0304959 0.00305972 0.0252273 0.00532021 0.0400486
15 1 Mg -0.459401 4.67631 52.2426 1.2 1 0.122581 0.041557 0.00190539 0.00628988 0.00256094 0.00689856 0.00253981 0.0208469 0.00289057 0.0115026 0.00286666 0.0249664 0.00358459 0.0183538 0.00408557 0.0278908 0.00459483 0.0244311 0.00637704 0.0337092
16 1 Mg 2.79456 3.9971 49.9987 1.2 1 0.175316 0.0503564 0.00597756 0.00946014 0.00251048 0.00871001 0.00427879 0.0200882 0.00296829 0.0144224 0.00308008 0.0237871 0.00423771 0.0198427 0.00588446 0.0274165 0.00394636 0.0254884 0.00837689 0.0314853
17 2 Si 1.16169 6.59457 51.2556 2.4 1 0.145034 0.0458546 0.00260969 0.00805094 0.00275555 0.00863435 0.00369606 0.0211601 0.0039661 0.0123597 0.00423754 0.0241523 0.00373103 0.0202345 0.00599693 0.0290528 0.00490809 0.0255817 0.00830878 0.0336409
18 3 O 1.28989 8.18905 51.2909 -1.2 1 0.142599 0.0449043 0.00297315 0.00826152 0.00249712 0.00930187 0.00347261 0.0220438 0.00441844 0.0119361 0.00339068 0.025518 0.00379877 0.0198624 0.00440442 0.0294236 0.00525929 0.0264562 0.00741018 0.0345663
19 3 O 1.30769 5.79318 57.8126 -1.2 1 0.0172045 0.0133894 0.00410169 0.00571435 0.000881059 0.00619082 0.00122401 0.0211085 0.00238255 0.00911235 0.00305782 0.0257444 0.00181617 0.01932 0.00346833 0.0302613 0.00299816 0.0240503 0.00377133 0.0414446
20 3 O -0.184847 6.06029 50.6845 -1.2 1 0.16126 0.0461676 0.00536904 0.00852879 0.00359531 0.00855475 0.004 0.0213682 0.00425001 0.0131229 0.00304285 0.0237854 0.00408694 0.0196213 0.00487019 0.0275319 0.00508904 0.0254392 0.00752569 0.0331779
21 1 Mg -3.49704 4.67769 52.6661 1.2 1 0.114537 0.0393918 0.00153728 0.0059185 0.00196977 0.0075948 0.00300652 0.0205499 0.00332078 0.0106523 0.00338269 0.024469 0.00311621 0.018301 0.00358496 0.0274542 0.00435163 0.0241248 0.00676375 0.0346942
22 3 O 2.48581 5.93312 50.6539 -1.2 1 0.154157 0.0468933 0.00392901 0.00748306 0.00183838 0.00895708 0.00367537 0.0209705 0.00389646 0.0127642 0.00355415 0.023775 0.004062 0.0198547 0.00529025 0.0286028 0.00425334 0.0256344 0.00791379 0.0328103
23 1 Mg -1.72819 4.52493 55.1559 1.2 1 0.0512267 0.0269862 0.00637351 0.00473354 0.00134816 0.00584246 0.00189706 0.021533 0.00270837 0.00953054 0.00311046 0.0255714 0.00240524 0.0184692 0.00414955 0.0304513 0.00350272 0.0257307 0.00537548 0.0394081
24 2 Si -1.83161 2.60931 53.284 2.4 1 0.101246 0.0363802 0.00247345 0.00512554 0.00258702 0.00671691 0.00248464 0.0202625 0.00277445 0.0107395 0.00305283 0.0240928 0.00300657 0.0183754 0.003377 0.0285307 0.00447656 0.0250047 0.00586419 0.0369376
25 3 O -1.98146 1.08305 53.1531 -1.2 1 0.0997705 0.0362015 0.00257906 0.00561336 0.00289307 0.0062639 0.0025542 0.0203459 0.00274918 0.0105306 0.00266009 0.0249683 0.00354719 0.0180222 0.00418248 0.0294955 0.00406959 0.0247959 0.00639289 0.0378421
26 3 O -0.0467762 2.97103 46.8385 -1.2 1 0.251502 0.0540738 0.0171322 0.0147671 0.00321017 0.0108563 0.00338767 0.0194937 0.00634405 0.0170184 0.00570454 0.0238261 0.00686772 0.0191295 0.00836363 0.0250794 0.00659084 0.0247692 0.00905006 0.030751
27 3 O -3.04416 3.25547 54.1346 -1.2 1 0.0792146 0.0320777 0.00375248 0.00432247 0.00183723 0.00604571 0.00224875 0.0203538 0.00286371 0.00975396 0.00220844 0.0243543 0.00274945 0.0184072 0.00312848 0.0289914 0.00407394 0.0240953 0.00550049 0.0377363
28 3 O -0.529928 3.20406 54.0281 -1.2 1 0.0805693 0.0329044 0.00413882 0.00454965 0.00194812 0.0063453 0.00212049 0.0208082 0.002461 0.0102639 0.00255182 0.0244651 0.00280564 0.0186747 0.00328671 0.0292436 0.00333212 0.0253011 0.00592447 0.0373844
29 1 Mg -2.97776 11.7282 57.3408 1.2 1 0.0222286 0.0159338 0.00462733 0.00536 0.00103267 0.00610388 0.000874991 0.0214209 0.0018223 0.00911802 0.00213747 0.0265858 0.00188126 0.0181994 0.00218817 0.031039 0.0022176 0.024632 0.00386899 0.0411679
30 1 Mg -1.75014 11.5838 49.8362 1.2 1 0.180598 0.0490791 0.00819697 0.0118194 0.00394446 0.0121322 0.00398357 0.0239109 0.00553535 0.014572 0.00487876 0.0277064 0.00456668 0.0220669 0.00669573 0.031416 0.00611502 0.0281223 0.00807085 0.0337022
31 2 Si -1.18003 9.02138 47.9309 2.4 1 0.237655 0.0523279 0.0158955 0.0146846 0.00530762 0.0131783 0.00702714 0.0227359 0.00782711 0.0161911 0.00666229 0.0257774 0.00468277 0.0221023 0.00704996 0.0293669 0.00809 0.0278834 0.010459 0.0318163
32 3 O -1.23224 10.5991 47.9811 -1.2 1 0.225965 0.0530357 0.0136901 0.0149776 0.00479628 0.0140045 0.00579072 0.0240434 0.00762125 0.016387 0.00660553 0.0268887 0.00488443 0.0227962 0.00804698 0.0318266 0.00809379 0.0299049 0.00906662 0.0320343
33 3 O -1.79016 8.01447 51.8693 -1.2 1 0.130924 0.0417812 0.00198052 0.0075302 0.0037457 0.00773 0.00275098 0.0213855 0.00363176 0.0113163 0.00331677 0.0255437 0.00333977 0.0191166 0.00407828 0.0293782 0.00517019 0.0250876 0.00747878 0.0344584
34 3 O -2.30986 8.37215 48.8528 -1.2 1 0.200127 0.052267 0.0096906 0.0112713 0.00421114 0.0107277 0.00541483 0.0229103 0.00607296 0.0158572 0.00452624 0.0255337 0.00377759 0.0215768 0.00571478 0.0301422 0.00633244 0.027567 0.00842422 0.0317236
35 1 Mg 0.154883 7.08234 46.8007 1.2 1 0.257341 0.0532063 0.0186502 0.0153912 0.00577555 0.0136097 0.00752733 0.022902 0.00795653 0.0170581 0.00693859 0.0247077 0.00699932 0.0214 0.00840679 0.0282162 0.00920268 0.0277413 0.0112538 0.0303062
36 3 O 0.325447 8.50934 48.3809 -1.2 1 0.216351 0.0541275 0.0118713 0.013498 0.00394936 0.0122223 0.00550184 0.0232512 0.0065675 0.0162777 0.00533761 0.0252248 0.00427777 0.0230343 0.00569945 0.0292255 0.00702973 0.0284231 0.00946848 0.0316646
37 1 Mg 1.10461 7.16915 54.6013 1.2 1 0.0659579 0.0304729 0.00406623 0.00493459 0.00157326 0.00648136 0.00247516 0.0210153 0.00287747 0.00927402 0.00326036 0.0251965 0.00298034 0.0189246 0.00331136 0.0296396 0.00313681 0.0239721 0.00549742 0.0371052
38 2 Si 1.43154 9.91713 56.3791 2.4 1 0.0337297 0.0218514 0.00567438 0.00613169 0.000772888 0.00549392 0.00218539 0.0212767 0.00221518 0.00864574 0.00356291 0.0255202 0.00286727 0.0193036 0.00431935 0.0308782 0.00302447 0.0240713 0.00495135 0.0406864
39 3 O 1.25503 8.38838 56.3833 -1.2 1 0.036049 0.02213 0.00543068 0.00542542 0.000811864 0.00565113 0.00166682 0.0206981 0.00325475 0.0082876 0.00231241 0.0252028 0.00320518 0.0189538 0.00232418 0.0306581 0.00419908 0.023754 0.00454223 0.0401969
40 3 O 1.28624 10.7248 52.7351 -1.2 1 0.111831 0.0397504 0.00161388 0.00721558 0.00213379 0.00902146 0.00267041 0.0217418 0.00368474 0.0106274 0.00357262 0.0261209 0.00444205 0.0201336 0.00455771 0.030905 0.00445063 0.026061 0.00663668 0.0364953
41 3 O 0.258948 10.4978 55.6521 -1.2 1 0.0498738 0.0267024 0.00424906 0.00542636 0.00122999 0.00587987 0.00150544 0.0209484 0.00217424 0.00910447 0.00260259 0.0257243 0.00267738 0.0197215 0.00320424 0.0309587 0.00320486 0.0243176 0.00451227 0.0390273
42 3 O 2.81802 10.5223 55.7217 -1.2 1 0.0430959 0.0250501 0.00582961 0.00551748 0.000948299 0.00626551 0.00260163 0.02151 0.00226116 0.00906887 0.00286666 0.0254991 0.00277743 0.0195692 0.00375394 0.0314665 0.00286299 0.0251835 0.00494458 0.0410507
43 1 Mg -0.262694 9.34741 52.2523 1.2 1 0.111611 0.0415229 0.00173968 0.00746875 0.00253056 0.00756769 0.00210307 0.0222283 0.00372546 0.0109255 0.00323928 0.026389 0.00336909 0.0192822 0.00471839 0.0304033 0.00421674 0.0259358 0.00653113 0.0348131
44 1 Mg 1.87648 9.01537 49.4629 1.2 1 0.184846 0.0536037 0.0066855 0.0106519 0.00251819 0.0110278 0.00567635 0.0231196 0.00553198 0.0152468 0.00476822 0.025925 0.00427786 0.0220459 0.00588456 0.0305549 0.00500528 0.028603 0.00888438 0.0324635
45 2 Si 1.21415 11.3799 51.2378 2.4 1 0.144671 0.0474145 0.00286572 0.0093897 0.00212596 0.0100941 0.00311867 0.0230708 0.00491998 0.0131012 0.0048349 0.0263703 0.00470859 0.0220803 0.00551965 0.0315251 0.00459156 0.0277781 0.00759777 0.0359062
46 3 O 1.31634 12.9512 51.3023 -1.2 1 0.145364 0.0460435 0.00404772 0.00939247 0.0019535 0.0109479 0.00305955 0.0233697 0.00458684 0.0135106 0.00369828 0.0278451 0.00440813 0.0226007 0.00444508 0.0319021 0.00475608 0.0282645 0.00722374 0.0366691
47 3 O 1.51989 10.4951 57.8774 -1.2 1 0.0176782 0.0139426 0.00375331 0.00570665 0.00128519 0.00562228 0.000887004 0.0215389 0.00217066 0.0088389 0.00252661 0.0255185 0.00255853 0.0189031 0.00294155 0.0310472 0.00246304 0.02424 0.00354324 0.0410514
48 3 O -0.115718 10.7564 50.681 -1.2 1 0.153496 0.0475848 0.00397059 0.010083 0.00324327 0.0102767 0.00305509 0.0235562 0.00469085 0.0129257 0.00355855 0.0266491 0.00419479 0.0214116 0.00538274 0.0302235 0.00450269 0.0271286 0.00788215 0.034433
49 1 Mg -3.26386 9.35564 52.3622 1.2 1 0.12129 0.0407762 0.00174822 0.00690312 0.00218297 0.00906394 0.00349455 0.02187 0.0038183 0.01099 0.00394307 0.0256023 0.00304136 0.0196291 0.00430456 0.0303721 0.00412085 0.025821 0.00693814 0.034455
50 3 O 2.45216 10.7265 50.4558 -1.2 1 0.161248 0.0494584 0.00461337 0.00915165 0.00238428 0.0110233 0.0044407 0.0228255 0.00495666 0.0140906 0.00416764 0.0264567 0.00399186 0.0224726 0.00572754 0.0310611 0.00493147 0.0276921 0.00788933 0.0341222
51 1 Mg -1.59027 9.45751 55.0997 1.2 1 0.054304 0.0288717 0.00497097 0.00567862 0.0018345 0.00597871 0.00223805 0.021255 0.00300579 0.00932196 0.00379731 0.0254602 0.00270226 0.0194366 0.00410566 0.0304975 0.00403768 0.0251106 0.00573688 0.0383958
52 2 Si -1.86991 7.33258 53.3988 2.4 1 0.0915987 0.036542 0.00292429 0.00576273 0.00301116 0.00656966 0.00256685 0.0207742 0.00385897 0.00995185 0.0029613 0.0246536 0.00255731 0.0190926 0.00314051 0.0290326 0.00454648 0.0246451 0.00592306 0.0361272
53 3 O -1.90278 5.74594 53.2431 -1.2 1 0.0977361 0.03557 0.00228472 0.00527612 0.00195164 0.00686575 0.00231653 0.0204318 0.0033525 0.00973698 0.00325597 0.0247385 0.00287646 0.0181203 0.00413126 0.0292497 0.00312391 0.0246256 0.00619868 0.0358636
54 3 O -1.19417 8.46968 46.4488 -1.2 1 0.269593 0.0535085 0.0212641 0.0170273 0.00534006 0.0147472 0.00806135 0.0239796 0.00788985 0.0169689 0.0072418 0.0253357 0.00617808 0.0209373 0.00919914 0.0295057 0.00950684 0.0292345 0.0105753 0.0297743
55 3 O -3.23605 8.03219 53.946 -1.2 1 0.0849818 0.0337896 0.00243175 0.00511336 0.00171642 0.00738962 0.0027946 0.0211511 0.00311628 0.0096773 0.00248644 0.0249736 0.00260663 0.0193053 0.00287488 0.0294124 0.00356788 0.0242662 0.00576067 0.0359801
56 3 O -0.672553 8.16794 54.0463 -1.2 1 0.0758066 0.0332345 0.00381903 0.00530686 0.00263061 0.00617858 0.00180358 0.0213098 0.00335678 0.00936206 0.00285206 0.0249984 0.00217404 0.0193115 0.0031931 0.0298103 0.00401381 0.0248315 0.0060627 0.0368691
57 1 Mg -3.00612 16.7112 57.4224 1.2 1 0.0205148 0.0153829 0.00486449 0.00548351 0.00145711 0.00593411 0.000899724 0.0216573 0.00171573 0.00851621 0.00211208 0.0269856 0.00228135 0.0183317 0.00212216 0.0306183 0.00271192 0.0251129 0.00361608 0.0440174
58 1 Mg -1.6714 16.3544 49.8412 1.2 1 0.179392 0.0501779 0.00793311 0.0128137 0.00310232 0.0143701 0.00267297 0.0252462 0.00460334 0.0168466 0.00388305 0.0302808 0.00355985 0.0250355 0.00582378 0.0333608 0.00524293 0.0312205 0.00800332 0.0373219
59 2 Si -1.18567 13.8526 47.9314 2.4 1 0.231468 0.0550278 0.0156264 0.0170297 0.0041911 0.0172496 0.00473441 0.026696 0.00838208 0.01885 0.00562919 0.0302882 0.00553453 0.0274243 0.0060073 0.0337622 0.00853501 0.0324028 0.00975646 0.0350599
60 3 O -1.09664 15.4205 47.9915 -1.2 1 0.230211 0.0543445 0.0154762 0.0172826 0.00440821 0.0184586 0.00417756 0.0271718 0.00770004 0.0190484 0.00577893 0.0304509 0.00568466 0.027038 0.00711608 0.0343682 0.00781732 0.0334077 0.00915132 0.0361408
61 3 O -1.73493 12.7491 51.7772 -1.2 1 0.131541 0.0425505 0.00292029 0.00936706 0.00320207 0.00954608 0.00158351 0.0232051 0.00392611 0.0125392 0.00290252 0.0271743 0.00390761 0.0218401 0.00448907 0.0309407 0.0045413 0.0274191 0.00712836 0.0365798
62 3 O -2.36115 13.2717 48.8238 -1.2 1 0.204134 0.0542116 0.0105836 0.0140208 0.00416912 0.0139996 0.00427727 0.025983 0.00611009 0.0183141 0.00499457 0.0296397 0.00420326 0.0256581 0.00572083 0.0333173 0.00697833 0.0314933 0.00858156 0.0343671
63 1 Mg -0.159928 11.7639 46.8533 1.2 1 0.258309 0.0543491 0.0195946 0.0183095 0.00569185 0.0190369 0.00693137 0.0277784 0.00891876 0.0187877 0.00767996 0.0297174 0.00629457 0.0263643 0.00830055 0.0330332 0.00987941 0.0326732 0.0116937 0.0329611
64 3 O 0.2623 13.1866 48.413 -1.2 1 0.214671 0.0550224 0.0125508 0.0151563 0.00343982 0.0154222 0.00387489 0.0261783 0.00742573 0.0178537 0.00471151 0.0286518 0.00479364 0.0267749 0.00513744 0.0327407 0.00765037 0.0325837 0.00882379 0.035027
65 1 Mg 1.33851 11.946 54.612 1.2 1 0.069549 0.0320686 0.00341584 0.00537554 0.0017355 0.00704369 0.00255125 0.0213578 0.00273433 0.00981371 0.00269461 0.0261496 0.00352295 0.0200751 0.00340115 0.0313192 0.00392639 0.0250562 0.00510072 0.0386783
66 2 Si 1.41509 14.586 56.3895 2.4 1 0.032956 0.0213594 0.00539049 0.00580179 0.00154047 0.00577442 0.00140708 0.0212301 0.00184274 0.00883592 0.00327159 0.0258597 0.00242243 0.019082 0.00408133 0.0308873 0.00308988 0.0249821 0.00486254 0.0433482
67 3 O 1.3677 12.9998 56.5208 -1.2 1 0.0301651 0.0207818 0.00521559 0.00596709 0.00131638 0.00535612 0.00169931 0.0205946 0.00300511 0.00863897 0.00210373 0.0259905 0.00313405 0.0185576 0.00255913 0.0311239 0.00423521 0.0247529 0.00421445 0.0424403
68 3 O 1.36565 15.4813 52.729 -1.2 1 0.107743 0.0392062 0.00103825 0.00753994 0.00160011 0.0102641 0.00312581 0.0234485 0.00281612 0.0126974 0.00320239 0.0278824 0.00444273 0.0213075 0.00450446 0.0312651 0.0038908 0.0279609 0.00643891 0.0400187
69 3 O 0.200681 15.3546 55.7773 -1.2 1 0.0446777 0.0252808 0.00475088 0.00553038 0.0011429 0.00626127 0.00192478 0.0209829 0.00201747 0.00959905 0.00267179 0.0262138 0.0026359 0.0191997 0.00321553 0.0315678 0.00359589 0.025715 0.00474762 0.0426107
70 3 O 2.69775 15.2724 55.764 -1.2 1 0.0411492 0.0252835 0.00604649 0.00563196 0.00121378 0.00612651 0.00201616 0.0215181 0.00219581 0.00934441 0.00274542 0.0261062 0.00257735 0.0195264 0.00383891 0.0317165 0.0032403 0.0261234 0.00535087 0.0436617
71 1 Mg -0.206989 14.1049 52.2121 1.2 1 0.115092 0.0426665 0.00141837 0.00839109 0.00233527 0.00876557 0.00206417 0.022971 0.00294901 0.0125009 0.00289513 0.027929 0.00365098 0.0215626 0.0045022 0.0316429 0.00354671 0.0277661 0.00653928 0.0375313
72 1 Mg 1.82591 13.8102 49.4556 1.2 1 0.183316 0.054573 0.0067823 0.0121497 0.00216688 0.0130117 0.00405271 0.0252089 0.00472041 0.0172626 0.00471625 0.0290802 0.00469036 0.0258728 0.00590162 0.0335883 0.00535033 0.0310699 0.00852398 0.0353085
73 2 Si 1.29285 16.1518 51.2434 2.4 1 0.144857 0.0480557 0.00286262 0.010361 0.00200342 0.0120566 0.00325577 0.0245507 0.00344862 0.0150693 0.00422536 0.0281181 0.00429943 0.0244209 0.0058722 0.0319978 0.00406107 0.0306353 0.00802994 0.0389734
74 3 O 1.39496 17.7199 51.3047 -1.2 1 0.142301 0.0466639 0.00331561 0.0094876 0.00134069 0.0120545 0.00288468 0.0241681 0.00382656 0.0146845 0.00284903 0.0286274 0.00385224 0.0240168 0.00370772 0.0323318 0.00497937 0.0301705 0.00709805 0.0397789
75 3 O 1.55311 15.2157 57.989 -1.2 1 0.015829 0.0128738 0.00394649 0.00550035 0.00104685 0.00581769 0.00111661 0.0223981 0.00189679 0.00822599 0.00306199 0.0263114 0.00292141 0.0180865 0.0030604 0.0308314 0.00256955 0.0249765 0.00444098 0.0439175
76 3 O -0.0269106 15.5178 50.6688 -1.2 1 0.156151 0.0487489 0.00489947 0.0111932 0.00263789 0.0121113 0.00315962 0.0246014 0.00379529 0.0150545 0.00288299 0.0286892 0.0042314 0.0244407 0.00551383 0.0325186 0.00381451 0.0303857 0.00784512 0.0383283
77 1 Mg -3.18391 14.1057 52.3125 1.2 1 0.121663 0.042491 0.00213693 0.00814791 0.00176241 0.0103551 0.00287952 0.0229776 0.00335508 0.0131768 0.00299164 0.027655 0.00366865 0.022171 0.00444214 0.0312787 0.00447481 0.0278247 0.00657455 0.0370772
78 3 O 2.52432 15.503 50.4579 -1.2 1 0.160176 0.0502799 0.00509629 0.0106643 0.00215719 0.012595 0.00360696 0.0245116 0.00418957 0.0162734 0.00316317 0.0286347 0.00368169 0.0251885 0.00543927 0.0323801 0.00443261 0.0303462 0.00801057 0.0378566
79 1 Mg -1.53429 14.3753 55.3393 1.2 1 0.0486383 0.0273323 0.00517515 0.00563875 0.00175178 0.00595727 0.00188803 0.0217225 0.00216434 0.00972163 0.00274419 0.02712 0.00266327 0.0194486 0.00357635 0.0310351 0.00349885 0.0256176 0.00532278 0.0416399
80 2 Si -1.51572 12.1692 53.3004 2.4 1 0.0985405 0.0381497 0.00181385 0.00728091 0.00298463 0.0077898 0.0016862 0.0221732 0.00373845 0.0110729 0.00288974 0.0262308 0.00338786 0.0212509 0.00369014 0.031153 0.00468213 0.0264036 0.00636155 0.0381503
81 3 O -1.51612 10.6307 53.2217 -1.2 1 0.0976048 0.0371636 0.00238476 0.00674742 0.00261012 0.00765146 0.00163757 0.0212802 0.00323968 0.00953055 0.00292385 0.0256173 0.00281273 0.0192804 0.00395093 0.0309716 0.00375919 0.0256036 0.00688253 0.0370474
82 3 O -1.21337 13.3381 46.4311 -1.2 1 0.269842 0.0537838 0.0215969 0.0202788 0.00632077 0.0197884 0.0065794 0.0299422 0.00918004 0.0198871 0.00657114 0.0309746 0.0058368 0.0261362 0.00847179 0.0354778 0.0114741 0.034665 0.0113516 0.0335352
83 3 O -2.76958 12.7778 54.0318 -1.2 1 0.0824865 0.0341064 0.00224357 0.00576331 0.00184014 0.00805592 0.0015206 0.0216684 0.00262566 0.0105213 0.00220567 0.0260137 0.00305934 0.0206818 0.00381405 0.0311198 0.00367283 0.0259772 0.00584534 0.0387893
84 3 O -0.143183 12.8388 53.859 -1.2 1 0.0857319 0.0358526 0.00206386 0.00642346 0.00282192 0.0072769 0.00238611 0.0220971 0.00317858 0.0105171 0.00267296 0.0261154 0.00329433 0.0210686 0.0037022 0.0313017 0.00444085 0.0263778 0.00577783 0.0385081
85 1 Mg -2.98261 21.4603 57.4635 1.2 1 0.0189442 0.0153455 0.0046721 0.00530661 0.00095898 0.00641706 0.00104569 0.0225368 0.00175388 0.00898547 0.00148916 0.0275309 0.00221408 0.0196803 0.00224456 0.0307247 0.00296067 0.02532 0.00318959 0.0459144
86 1 Mg -1.5831 21.1217 49.8405 1.2 1 0.179449 0.0503302 0.00736445 0.0131808 0.00292515 0.0151127 0.00310653 0.025705 0.00416895 0.0173254 0.00443281 0.0304852 0.00393425 0.0252218 0.00569978 0.0331236 0.00504375 0.0316148 0.00800385 0.038696
87 2 Si -1.09384 18.6291 47.9287 2.4 1 0.231254 0.0559979 0.0147953 0.0176232 0.0032605 0.0197603 0.00400149 0.0281774 0.00750484 0.0199652 0.00516521 0.0319644 0.00614953 0.0285482 0.00586187 0.0348217 0.00827394 0.0340872 0.00943201 0.0384552
88 3 O -1.02071 20.1985 47.9911 -1.2 1 0.230256 0.0545979 0.0145934 0.0176764 0.00377092 0.0201115 0.00423173 0.0279063 0.00685882 0.0198221 0.00539728 0.0313608 0.00559838 0.0276142 0.00671067 0.0350888 0.00737878 0.0342877 0.00894131 0.0382484
89 3 O -1.65002 17.5002 51.771 -1.2 1 0.131883 0.0433114 0.00276301 0.00992832 0.00242797 0.0108051 0.00155336 0.0238644 0.00281619 0.0136269 0.00251443 0.0284266 0.00368882 0.0226356 0.00435288 0.0316248 0.00470132 0.0291231 0.00691995 0.0398505
90 3 O -2.26174 18.0434 48.8281 -1.2 1 0.199409 0.0542157 0.00966716 0.0145095 0.00336326 0.0161288 0.00316247 0.027065 0.005493 0.0188936 0.00387162 0.0309456 0.0038931 0.0264268 0.00492848 0.0342581 0.00634147 0.0331858 0.00856205 0.0378727
91 1 Mg -0.0440435 16.5651 46.8269 1.2 1 0.253272 0.0557833 0.0188628 0.0195844 0.00426837 0.0228671 0.00456618 0.0308342 0.00895455 0.0212158 0.0052807 0.0329893 0.00665446 0.0285324 0.00711831 0.0349464 0.00889553 0.0361601 0.0101557 0.0374798
92 3 O 0.37001 17.9877 48.3925 -1.2 1 0.215699 0.0559551 0.0120657 0.0158486 0.00282629 0.0175536 0.00293634 0.0278697 0.0062814 0.0195367 0.00357329 0.0307656 0.00486964 0.0284955 0.00500096 0.034161 0.0071462 0.0348645 0.00870844 0.0381958
93 1 Mg 1.49075 16.4741 54.575 1.2 1 0.0698554 0.0323347 0.00331133 0.00564052 0.00160271 0.00774145 0.00295989 0.0218659 0.00278328 0.0105923 0.00250567 0.0270006 0.00326691 0.0208928 0.00311181 0.0318549 0.00375373 0.0264098 0.00519431 0.0415209
94 2 Si 1.76227 19.3562 56.4983 2.4 1 0.0286554 0.0198798 0.00567945 0.00590538 0.000996557 0.00621995 0.00228136 0.0220579 0.00196346 0.00823967 0.00352342 0.026435 0.00288017 0.0197717 0.00387779 0.0309602 0.00304682 0.0254975 0.0045882 0.0458232
95 3 O 1.6653 17.8494 56.5354 -1.2 1 0.0302393 0.019982 0.00548954 0.00573388 0.00125184 0.00565096 0.00136763 0.0215841 0.00289286 0.00808759 0.00200659 0.0263451 0.0028428 0.0189763 0.00266899 0.0310645 0.00385356 0.0251902 0.00416406 0.0448972
96 3 O 1.45147 20.239 52.7294 -1.2 1 0.107629 0.0400741 0.000339825 0.00776378 0.00108832 0.0109886 0.00296207 0.0232446 0.00281888 0.0124232 0.00268141 0.0280258 0.00374105 0.0218459 0.00316659 0.0313681 0.00422285 0.0288498 0.00584415 0.0410437
97 3 O 0.368375 19.9107 55.7269 -1.2 1 0.0452938 0.0252216 0.00496007 0.00561883 0.000691417 0.00658451 0.00210907 0.0219891 0.00150865 0.00916526 0.00233729 0.0262796 0.00233021 0.0202909 0.00367051 0.031557 0.00286347 0.0262011 0.00463772 0.0438572
98 3 O 3.02679 20.0335 55.7576 -1.2 1 0.0380349 0.0244273 0.0063981 0.00553228 0.000945408 0.00652807 0.0028617 0.0227164 0.00180318 0.00896828 0.00269013 0.0267329 0.00247746 0.0203579 0.00386791 0.0318144 0.00284308 0.0267061 0.00507183 0.0458322
99 1 Mg -0.126194 18.8651 52.2079 1.2 1 0.113935 0.0433694 0.000823943 0.00877645 0.002225 0.00963765 0.00250198 0.0238185 0.00227291 0.0136046 0.00304986 0.0287938 0.00329308 0.0226555 0.0038372 0.0316204 0.00361731 0.0291453 0.00626919 0.0400965
100 1 Mg 1.92402 18.5815 49.4545 1.2 1 0.182606 0.0551758 0.00613842 0.0123776 0.00136477 0.014553 0.00359333 0.0258631 0.0041485 0.0183227 0.00388026 0.0302772 0.00443134 0.0266016 0.0047326 0.0344049 0.00532141 0.0330002 0.00865693 0.0383483
101 2 Si 1.38106 20.9117 51.2443 2.4 1 0.143277 0.0483848 0.00195872 0.0101176 0.00180051 0.0125714 0.00374326 0.0248157 0.0033129 0.0154262 0.00432493 0.0281877 0.0039913 0.0244399 0.00532447 0.0319745 0.00352952 0.031243 0.00763784 0.0405222
102 3 O 1.48527 22.4795 51.3054 -1.2 1 0.142042 0.0459034 0.00285047 0.00976002 0.00148614 0.0124581 0.00300004 0.0243503 0.00356313 0.0148789 0.00302373 0.0289254 0.00347225 0.0239322 0.00346045 0.031956 0.00468081 0.0300642 0.00692993 0.040523
103 3 O 1.60003 20.0491 57.8597 -1.2 1 0.0154766 0.0127802 0.00385671 0.00579905 0.000606819 0.00603051 0.00143898 0.0222924 0.00193368 0.00826229 0.00256342 0.0269894 0.00229787 0.0191304 0.00306624 0.0305247 0.00291911 0.0246096 0.00372621 0.0459904
104 3 O 0.0615419 20.2804 50.6669 -1.2 1 0.15445 0.0489212 0.00410905 0.0113188 0.00291329 0.0130454 0.00359388 0.0252543 0.00373781 0.0155768 0.00300853 0.0292951 0.00346145 0.0249898 0.00463984 0.0320945 0.00369035 0.0311635 0.00754416 0.0397535
105 1 Mg -3.09665 18.8643 52.3122 1.2 1 0.121067 0.0431269 0.00141356 0.00821631 0.00124221 0.0108244 0.00254213 0.0238514 0.00281488 0.0138074 0.00253115 0.0285992 0.00348522 0.0229811 0.00308409 0.0314663 0.00462896 0.0286505 0.00576441 0.0400322
106 3 O 2.61548 20.2646 50.4626 -1.2 1 0.1581 0.0504235 0.00397535 0.0105875 0.00161369 0.013362 0.00337042 0.0246626 0.00370973 0.0165099 0.00334756 0.028843 0.00355253 0.0254521 0.00444242 0.0323051 0.00441751 0.0311131 0.00715443 0.0393411
107 1 Mg -1.28411 18.9143 55.044 1.2 1 0.0532476 0.0285929 0.00506808 0.00605826 0.00180064 0.00638298 0.00201078 0.0223705 0.00193613 0.00950011 0.00278619 0.0267228 0.00244047 0.0203185 0.00356323 0.0310388 0.00380359 0.0263801 0.00538569 0.043675
108 2 Si -1.68207 16.8521 53.2297 2.4 1 0.0966218 0.0389944 0.00177215 0.00765191 0.00246566 0.00776203 0.00199293 0.0224656 0.00306243 0.01217 0.00247593 0.027394 0.0029874 0.0216317 0.00347171 0.03153 0.00484677 0.0277676 0.00605345 0.040653
109 3 O -1.82411 15.2724 53.1214 -1.2 1 0.0977242 0.0380991 0.00183436 0.00726307 0.00195554 0.00812098 0.00175168 0.0220701 0.00312593 0.0114618 0.00284432 0.0271111 0.0032431 0.02076 0.0044837 0.0313094 0.00386112 0.0268521 0.0068326 0.0395062
110 3 O -1.12868 18.1227 46.4249 -1.2 1 0.2678 0.0555674 0.0207797 0.0209366 0.00480416 0.023392 0.00539305 0.0319858 0.00785174 0.0212465 0.00557767 0.0335443 0.00676635 0.0268242 0.00810618 0.0370868 0.0111386 0.0375598 0.0106465 0.0376661
111 3 O -3.0054 17.6234 53.8481 -1.2 1 0.0844019 0.0358002 0.00222586 0.00609927 0.00126815 0.00852307 0.00237133 0.0227926 0.00236741 0.0114186 0.00222975 0.0267674 0.00303572 0.0215398 0.00288533 0.0311152 0.00416847 0.0272562 0.00519641 0.0408415
112 3 O -0.364423 17.4569 53.9754 -1.2 1 0.0752966 0.0338573 0.00324588 0.00618459 0.00223127 0.0064607 0.00128015 0.0224418 0.00212907 0.0105846 0.00237 0.0265574 0.00226703 0.0214438 0.00352898 0.0316581 0.00326782 0.0270071 0.00563229 0.0415302
113 1 Mg -2.89975 26.1187 57.5816 1.2 1 0.0178863 0.0149737 0.00485926 0.00606994 0.00115988 0.00697629 0.00087767 0.0229617 0.00185439 0.0093294 0.00151364 0.0279245 0.00178222 0.0201066 0.00246442 0.0320765 0.00311294 0.0249743 0.00291967 0.0454843
114 1 Mg -1.48778 25.88 49.8402 1.2 1 0.177892 0.050439 0.0070866 0.0131141 0.00267201 0.0155199 0.00297268 0.0260882 0.0044266 0.0171577 0.00482033 0.030411 0.00331008 0.0256777 0.00562451 0.0341059 0.00518118 0.0313215 0.00833287 0.03848
115 2 Si -1.00491 23.3922 47.9274 2.4 1 0.232043 0.0560096 0.0145801 0.0182859 0.00389455 0.020839 0.00465523 0.028126 0.00707185 0.0200985 0.00509567 0.0318198 0.00569345 0.0285323 0.00528743 0.0350963 0.00809861 0.034518 0.00950821 0.0386126
116 3 O -0.927602 24.9615 47.9909 -1.2 1 0.229378 0.0548428 0.014164 0.0177813 0.00366425 0.0208535 0.00396371 0.0280066 0.00697293 0.0198962 0.00542126 0.0312499 0.00534861 0.0274086 0.00653617 0.0351147 0.00784974 0.0343855 0.00899369 0.0387039
117 3 O -1.55795 22.2588 51.7696 -1.2 1 0.132152 0.0437479 0.00214529 0.0101173 0.00253829 0.0115923 0.00171537 0.0241523 0.00254682 0.0141299 0.00280731 0.0283816 0.00319384 0.0232182 0.00399438 0.03168 0.0046511 0.0288847 0.00681236 0.0406901
118 3 O -2.17411 22.8111 48.8277 -1.2 1 0.201397 0.0545499 0.00939413 0.0145587 0.00306485 0.0168969 0.00384321 0.0274218 0.00472704 0.0194588 0.00410717 0.0308351 0.00411032 0.0269809 0.00524133 0.0342699 0.0061338 0.0335998 0.00834154 0.0382138
119 1 Mg 0.0423997 21.3296 46.8225 1.2 1 0.258079 0.0560517 0.0188283 0.020579 0.00469113 0.024675 0.00611997 0.0316137 0.00846654 0.0219883 0.00602667 0.0334838 0.00700327 0.0289205 0.00869526 0.0358831 0.00881793 0.0369785 0.0110576 0.038349
120 3 O 0.458537 22.7495 48.3911 -1.2 1 0.210572 0.055358 0.0109237 0.015516 0.0032495 0.0179828 0.00277439 0.0273159 0.0060094 0.0194117 0.00362694 0.0305862 0.00459452 0.0282702 0.00472685 0.034033 0.00709922 0.034655 0.00854244 0.0391989