ITEM: TIMESTEP
62600
ITEM: NUMBER OF ATOMS
10500
ITEM: BOX BOUNDS xy xz yz pp pp pp
0	8.9688	2.9896
0	118.725	0
0	252.977	0
ITEM: ATOMS id type element xu yu zu q Q_1 Q_2 Q_3 Q_4 Q_5 Q_6 Q_7 Q_8 Q_9 Q_10 Q_11 Q_12 Q_13 Q_14 Q_15 Q_16 Q_17 Q_18 Q_19 Q_20 Q_21
1 1 Mg -3.11904 7.02793 57.5499 1.2 1 0.0200643 0.0143654 0.00480448 0.00591365 0.00166002 0.00701022 0.00097466 0.0206698 0.00180697 0.00867231 0.0020459 0.0262186 0.00258877 0.0174327 0.00299854 0.0304036 0.00343392 0.0249563 0.00501552 0.0425769
2 1 Mg -1.82655 6.90154 50.0912 1.2 1 0.173004 0.0483786 0.00624582 0.0103702 0.00318722 0.00863066 0.00376572 0.022257 0.00513525 0.0142758 0.0042325 0.0242829 0.00459096 0.0199812 0.00610627 0.0288234 0.0059414 0.0266307 0.0079596 0.0324394
3 2 Si -0.257935 3.96038 48.0876 2.4 1 0.224714 0.052814 0.011546 0.0126937 0.00292687 0.00968001 0.00337863 0.0201155 0.00620677 0.017285 0.00390382 0.0241201 0.00543216 0.0204295 0.00569032 0.0266818 0.00666975 0.0251213 0.00875596 0.0316675
4 3 O -0.335812 5.46814 47.6264 -1.2 1 0.232283 0.0524914 0.0135381 0.0136071 0.00381573 0.0108546 0.00408682 0.0207301 0.00671435 0.0179369 0.00445485 0.0245034 0.0048661 0.0208121 0.0052198 0.0268171 0.00723675 0.0259913 0.00905417 0.0302177
5 3 O -2.03793 3.43377 51.8941 -1.2 1 0.127142 0.0411536 0.00194802 0.00747412 0.00209321 0.0075373 0.00255306 0.0202022 0.00303573 0.0115139 0.00294791 0.0241768 0.00364292 0.0175944 0.00426923 0.0280303 0.00502315 0.0242498 0.00729343 0.0355713
6 3 O -1.54015 3.53929 48.9521 -1.2 1 0.201738 0.0512726 0.00906253 0.010987 0.00244651 0.00885654 0.00327489 0.0199788 0.00513867 0.015823 0.00417319 0.0233564 0.00447288 0.0195397 0.00574353 0.0274992 0.005346 0.0246456 0.00832406 0.0313744
7 1 Mg 1.82954 2.54582 47.1376 1.2 1 0.245211 0.052122 0.0158206 0.0154376 0.00275016 0.0113121 0.00346169 0.0199784 0.00550651 0.0162562 0.00499732 0.0239511 0.00596724 0.0193142 0.0075142 0.0257864 0.0065254 0.0236661 0.00869872 0.0301247
8 3 O 1.22989 3.66364 48.7877 -1.2 1 0.203751 0.0499178 0.00914816 0.0120206 0.00183175 0.0096827 0.00347694 0.0199893 0.00452948 0.015122 0.00330894 0.0235325 0.00470703 0.0191758 0.00592942 0.0264993 0.00465985 0.0244412 0.00873537 0.0320218
9 1 Mg 0.986834 2.52228 54.5516 1.2 1 0.0677507 0.0294916 0.00519723 0.0055369 0.00181531 0.00631701 0.0023128 0.0207257 0.00288039 0.0103439 0.00266298 0.0253399 0.0035103 0.0185908 0.00426285 0.0307422 0.00274817 0.0242837 0.00584043 0.0404191
10 2 Si 1.48832 4.92645 56.4199 2.4 1 0.0315049 0.020018 0.00675634 0.00629736 0.00135438 0.00714657 0.002015 0.0210666 0.00184082 0.009009 0.00348979 0.0252204 0.00232534 0.0185637 0.00493884 0.0306777 0.00397124 0.0244814 0.0065234 0.042493
11 3 O 1.15807 3.40471 56.4134 -1.2 1 0.0377527 0.021373 0.0061353 0.00585837 0.00128293 0.0062889 0.00196534 0.0206586 0.00300094 0.009165 0.00237034 0.0259204 0.00307006 0.0176117 0.0031326 0.0310035 0.00360519 0.0248301 0.00506081 0.0422839
12 3 O 1.10813 6.07342 52.8172 -1.2 1 0.104991 0.0376598 0.00218298 0.0072314 0.00272681 0.0075054 0.00286955 0.0214155 0.00380376 0.0108202 0.00280658 0.0244885 0.00422094 0.0186617 0.00463363 0.0289701 0.00494141 0.0255043 0.00628818 0.0359441
13 3 O 0.116385 5.72764 55.7358 -1.2 1 0.0448252 0.0246131 0.00606005 0.00540742 0.00160355 0.00599502 0.00169357 0.0205046 0.00253936 0.00939883 0.00252564 0.0253535 0.00282868 0.0183801 0.00385061 0.0305406 0.0034873 0.0247221 0.00516369 0.0405975
14 3 O 2.69731 5.71007 55.7574 -1.2 1 0.0409775 0.0237947 0.00676828 0.00531594 0.00155186 0.00667985 0.00185557 0.0213752 0.00185227 0.00934181 0.00309636 0.0253374 0.00290196 0.0187816 0.00429552 0.0311474 0.00359611 0.0255193 0.00619427 0.0413763
15 1 Mg -0.459401 4.67631 52.2426 1.2 1 0.120936 0.0409334 0.0013928 0.00747273 0.00229171 0.00694598 0.00215613 0.0206684 0.00357211 0.0122784 0.00231554 0.024707 0.0037379 0.0182874 0.0043674 0.0285495 0.00426429 0.0246008 0.00654726 0.0347531
16 1 Mg 2.79456 3.9971 49.9987 1.2 1 0.1748 0.0498354 0.00540418 0.0102611 0.0023116 0.00840142 0.00419389 0.020345 0.00354549 0.0149341 0.00270427 0.0236652 0.00427929 0.0196718 0.00631758 0.0278107 0.00437019 0.0250574 0.00885269 0.0320822
17 2 Si 1.16169 6.59457 51.2556 2.4 1 0.143847 0.0461347 0.00195381 0.009355 0.00246397 0.00860168 0.00373543 0.0214083 0.00472568 0.0131325 0.00439656 0.0239691 0.00451134 0.0201558 0.00650899 0.0291471 0.0051112 0.0262654 0.00850157 0.0348886
18 3 O 1.28989 8.18905 51.2909 -1.2 1 0.142637 0.0451004 0.00261987 0.00949553 0.00227128 0.0093262 0.00387393 0.0221721 0.00422064 0.0129586 0.00337402 0.0258591 0.00423714 0.0201519 0.00523911 0.0293972 0.00546968 0.0271527 0.00798288 0.035843
19 3 O 1.4705 5.60056 57.9916 -1.2 1 0.0152206 0.0120522 0.00400194 0.00623164 0.00109865 0.00713998 0.00110081 0.0210418 0.00217411 0.00848892 0.00245084 0.0261454 0.0025361 0.0182077 0.00317264 0.0309384 0.00280295 0.0245662 0.00506153 0.0431649
20 3 O -0.184847 6.06029 50.6845 -1.2 1 0.159782 0.0464356 0.00466246 0.00958741 0.00336701 0.00820284 0.00353055 0.021688 0.00509104 0.0139443 0.00291119 0.023853 0.00424128 0.0197974 0.004747 0.0276489 0.00541454 0.0257136 0.00757728 0.0338417
21 1 Mg -3.49704 4.67769 52.6661 1.2 1 0.11357 0.0391891 0.00135797 0.00715808 0.00194688 0.00757198 0.00256634 0.0205496 0.0037119 0.0114266 0.00329639 0.0246948 0.00357082 0.0183516 0.004923 0.0281791 0.00423062 0.024611 0.00720146 0.0356547
22 3 O 2.48581 5.93312 50.6539 -1.2 1 0.154195 0.0472526 0.00339191 0.00870263 0.00170464 0.00880993 0.00360882 0.0212701 0.00465998 0.0136155 0.00353903 0.0237788 0.00438426 0.0200528 0.00562498 0.0287162 0.00497933 0.0258811 0.0083603 0.0338473
23 1 Mg -1.61812 4.65233 55.3353 1.2 1 0.0497879 0.0254852 0.00676565 0.00586358 0.00156034 0.00624488 0.00217309 0.0213198 0.0028089 0.00941645 0.00280334 0.0257181 0.00233272 0.0183125 0.00417138 0.0307325 0.0040225 0.0256048 0.00610682 0.0407568
24 2 Si -1.95108 2.73944 53.3368 2.4 1 0.0996713 0.035614 0.00304043 0.00641402 0.0027629 0.0064566 0.00169215 0.020704 0.00318943 0.0111309 0.00274676 0.0245131 0.00304731 0.0182043 0.00342474 0.0287445 0.00441548 0.0242197 0.00643626 0.0380769
25 3 O -2.04408 1.16547 53.2858 -1.2 1 0.098368 0.035288 0.00263359 0.00635068 0.00288433 0.006505 0.00227683 0.0203833 0.00263871 0.0110619 0.00282668 0.0248142 0.00328452 0.0182025 0.00494617 0.0298996 0.00380864 0.024238 0.00691562 0.0389878
26 3 O -0.0467762 2.97103 46.8385 -1.2 1 0.252194 0.0525656 0.0162216 0.0150284 0.00301423 0.0102991 0.00343189 0.0196694 0.00657731 0.0172 0.00547975 0.0236131 0.00694445 0.0190188 0.0083741 0.0258703 0.00648625 0.0239293 0.00951254 0.031289
27 3 O -3.26585 3.33113 54.146 -1.2 1 0.0780462 0.0311552 0.00425202 0.00524909 0.00176523 0.00681826 0.00180293 0.0209646 0.00289457 0.0106497 0.00213188 0.0244134 0.00292564 0.018226 0.00390168 0.0294269 0.00372929 0.0241503 0.00628439 0.0387851
28 3 O -0.603004 3.26434 54.1368 -1.2 1 0.0789203 0.0316556 0.0043888 0.00539071 0.0020988 0.00671214 0.00178242 0.0210084 0.00299718 0.011113 0.00218861 0.0243872 0.00282394 0.018444 0.00381255 0.0303271 0.00326738 0.0251735 0.0057206 0.0385614
29 1 Mg -2.97967 11.5156 57.2852 1.2 1 0.023319 0.0151568 0.0049493 0.00572997 0.00164863 0.00685601 0.00125167 0.0209661 0.00227152 0.00836719 0.00167908 0.0264914 0.00264308 0.0182394 0.00294596 0.029609 0.00325928 0.0257114 0.0038032 0.0438798
30 1 Mg -1.75014 11.5838 49.8362 1.2 1 0.18444 0.0489423 0.00841607 0.0121056 0.00437336 0.012478 0.00444961 0.0234093 0.00572364 0.0153434 0.00498215 0.0280115 0.00461397 0.0230814 0.00640508 0.0317252 0.00671629 0.028943 0.00854418 0.0359414
31 2 Si -1.18003 9.02138 47.9309 2.4 1 0.240579 0.0523666 0.0154548 0.0153974 0.00565721 0.0135014 0.00722786 0.0229248 0.00827417 0.0170875 0.00662734 0.0258902 0.00486385 0.0226511 0.00678412 0.0293172 0.00862728 0.0282353 0.0110264 0.0330587
32 3 O -1.23224 10.5991 47.9811 -1.2 1 0.226951 0.0530285 0.0135946 0.0150108 0.00524741 0.0138948 0.00573582 0.0239259 0.00791452 0.0170616 0.00652141 0.0271945 0.00501786 0.023427 0.00784994 0.0313965 0.00856349 0.0303113 0.00979541 0.03381
33 3 O -1.79016 8.01447 51.8693 -1.2 1 0.13065 0.0424468 0.00164259 0.00889861 0.0034033 0.00732438 0.00264752 0.0216319 0.00448108 0.0121822 0.00355484 0.0256135 0.00361679 0.0195224 0.00431881 0.0293318 0.00578922 0.026181 0.00793521 0.0358752
34 3 O -2.30986 8.37215 48.8528 -1.2 1 0.201378 0.0525692 0.00925577 0.0121159 0.00422366 0.0103449 0.00531265 0.023184 0.00643621 0.0168007 0.00464535 0.0258984 0.00397879 0.0222102 0.0058821 0.0301504 0.00665747 0.0281733 0.0088632 0.0329393
35 1 Mg 0.154883 7.08234 46.8007 1.2 1 0.257604 0.0527215 0.0178213 0.0162184 0.00619853 0.0136621 0.00806496 0.0233388 0.00831294 0.0179141 0.00676963 0.0246971 0.00715473 0.0216925 0.00835589 0.0283021 0.00915277 0.0279877 0.0119601 0.0308937
36 3 O 0.325447 8.50934 48.3809 -1.2 1 0.216993 0.053971 0.0114893 0.0138677 0.00404531 0.0120724 0.00578788 0.0239146 0.00723065 0.0171702 0.0052498 0.0254685 0.00481978 0.0229506 0.00513976 0.029278 0.007296 0.0287515 0.00951128 0.0325958
37 1 Mg 1.35509 7.10631 54.6349 1.2 1 0.0660659 0.0304839 0.00526524 0.00581369 0.00203477 0.00691055 0.00232636 0.0208628 0.00298145 0.00981366 0.00286682 0.0251592 0.00332708 0.0192229 0.00360691 0.0305658 0.00356861 0.0251219 0.00603054 0.0390774
38 2 Si 1.26094 9.75209 56.332 2.4 1 0.0348267 0.021 0.00595659 0.00635592 0.00149333 0.00678152 0.00159088 0.0211737 0.00214963 0.00848532 0.00352209 0.0250995 0.00288119 0.0196139 0.00329053 0.0300851 0.00346945 0.0256463 0.00496875 0.043358
39 3 O 1.33331 8.16442 56.5421 -1.2 1 0.0309207 0.0195922 0.0058475 0.00600828 0.00110388 0.00666743 0.00167306 0.020749 0.00301164 0.00799823 0.00215288 0.0254672 0.00330094 0.017934 0.00322684 0.0300094 0.00474493 0.0251227 0.00466392 0.0426948
40 3 O 1.28624 10.7248 52.7351 -1.2 1 0.108989 0.0378245 0.00168772 0.00763509 0.00230839 0.00940443 0.00257396 0.0224878 0.00348874 0.0116909 0.00362775 0.0265083 0.00436668 0.0203081 0.00431759 0.0304112 0.00445641 0.0271955 0.0066075 0.0391662
41 3 O -0.070427 10.4854 55.8634 -1.2 1 0.0478072 0.0244222 0.00541541 0.00594497 0.00166367 0.00658382 0.00149613 0.0212421 0.00173268 0.0088823 0.00285839 0.0256136 0.00266491 0.0189468 0.00385011 0.0303324 0.00354285 0.0260832 0.00549107 0.0428013
42 3 O 2.54136 10.2739 55.5773 -1.2 1 0.0478643 0.0258295 0.00623769 0.00569784 0.00154725 0.00667442 0.00181777 0.0210732 0.00253844 0.00909027 0.00269417 0.0261506 0.00277824 0.0193153 0.00321307 0.0307782 0.00368085 0.0260063 0.00518043 0.0429784
43 1 Mg -0.262694 9.34741 52.2523 1.2 1 0.111854 0.0415585 0.0021955 0.00818004 0.00279226 0.00766097 0.0019558 0.0221708 0.00386544 0.0119398 0.00317982 0.0266916 0.00364701 0.0196318 0.00481068 0.030124 0.00515086 0.0270434 0.0071708 0.0369731
44 1 Mg 1.87648 9.01537 49.4629 1.2 1 0.184912 0.0531031 0.00639312 0.0111697 0.00269017 0.0105768 0.00551094 0.0229396 0.00554362 0.0159913 0.00448805 0.0263198 0.00477546 0.0226684 0.00584291 0.0305618 0.00564449 0.0287387 0.0095794 0.0343438
45 2 Si 1.21415 11.3799 51.2378 2.4 1 0.147986 0.0472053 0.00249695 0.0100237 0.00294719 0.010654 0.00353699 0.0228353 0.00433639 0.0140258 0.00472365 0.0267116 0.00478336 0.023377 0.0056584 0.0312206 0.00534309 0.0288306 0.00843241 0.0381333
46 3 O 1.31634 12.9512 51.3023 -1.2 1 0.145576 0.0443142 0.00332174 0.00960062 0.00239994 0.0115456 0.00320368 0.0231744 0.00445933 0.0141262 0.00373609 0.0284472 0.0043121 0.0232129 0.00520264 0.0316645 0.00539597 0.0289769 0.00756988 0.039081
47 3 O 1.48266 10.467 57.8912 -1.2 1 0.0183386 0.0129924 0.00394411 0.00595827 0.00148456 0.00666827 0.00135936 0.0212456 0.00228079 0.00795184 0.00323223 0.0254033 0.00287008 0.0184413 0.00323424 0.0291841 0.00329584 0.0255914 0.00364319 0.0442619
48 3 O -0.115718 10.7564 50.681 -1.2 1 0.156602 0.047685 0.00420503 0.0106213 0.00346486 0.0104077 0.00358446 0.0234006 0.0046939 0.0138748 0.0035536 0.0269787 0.00494445 0.022654 0.00522994 0.0305503 0.00550558 0.0282911 0.00837307 0.0370185
49 1 Mg -3.26386 9.35564 52.3622 1.2 1 0.120802 0.0408117 0.00147021 0.00773702 0.00216008 0.00906447 0.00323058 0.0217743 0.00404999 0.0120189 0.00367945 0.0256168 0.00367631 0.020354 0.00469658 0.0302241 0.00521684 0.0268919 0.00776177 0.0365433
50 3 O 2.45216 10.7265 50.4558 -1.2 1 0.161392 0.048895 0.00449898 0.00973318 0.00283576 0.0111268 0.00445906 0.0229368 0.00492638 0.0151494 0.00402612 0.0268595 0.00419274 0.0229582 0.0058953 0.031341 0.00562839 0.0286875 0.00851965 0.0365626
51 1 Mg -1.61974 9.32836 55.2685 1.2 1 0.050296 0.0261852 0.00630481 0.00591283 0.00182918 0.0062324 0.00206787 0.0212368 0.00304562 0.00931266 0.00372817 0.0256317 0.00291564 0.0191567 0.00396807 0.0301125 0.00428106 0.0257546 0.00593584 0.0420264
52 2 Si -1.76304 7.3805 53.372 2.4 1 0.0914498 0.036315 0.00312418 0.00696057 0.00307667 0.00651467 0.00240242 0.0210255 0.00425456 0.0107283 0.00297358 0.0249719 0.00291605 0.0191826 0.00387829 0.0295571 0.00499453 0.0253589 0.00617166 0.0378864
53 3 O -1.91493 5.76751 53.2797 -1.2 1 0.0940407 0.03451 0.0028036 0.00629587 0.00227714 0.00689161 0.00154785 0.0206034 0.00373897 0.0101153 0.00280316 0.0245401 0.00296316 0.0182147 0.00457538 0.0295558 0.00380352 0.0251484 0.00660472 0.0375602
54 3 O -1.19417 8.46968 46.4488 -1.2 1 0.270331 0.0526815 0.0203028 0.0179449 0.00591862 0.0146683 0.00843181 0.0244289 0.00855302 0.0175858 0.00726523 0.0251869 0.00620695 0.0212431 0.0088431 0.0296167 0.0098812 0.0296398 0.0111432 0.0303925
55 3 O -3.11205 7.96733 54.0113 -1.2 1 0.0813309 0.0323088 0.0033969 0.00585997 0.00214434 0.00772791 0.00195728 0.0211483 0.00322331 0.0102547 0.00236068 0.0248282 0.0030208 0.019362 0.00333936 0.029846 0.00465601 0.0254636 0.00576524 0.039109
56 3 O -0.421188 8.11347 54.0382 -1.2 1 0.0745802 0.0324293 0.00455409 0.00586852 0.00240308 0.00615594 0.00144943 0.0213509 0.00312473 0.00986281 0.00257122 0.0248596 0.00261558 0.0191521 0.00374188 0.0304602 0.00466348 0.0262134 0.00600654 0.0394021
57 1 Mg -2.8858 16.387 57.2191 1.2 1 0.0232528 0.0142617 0.00542842 0.00538637 0.0007741 0.00673731 0.00141458 0.0210779 0.00226181 0.00834797 0.00138854 0.0267497 0.00229599 0.018557 0.00308653 0.0294473 0.00332231 0.0254774 0.00378796 0.0436921
58 1 Mg -1.6714 16.3544 49.8412 1.2 1 0.178933 0.0482479 0.00776715 0.0124736 0.00365739 0.0147394 0.00299411 0.0252464 0.00399152 0.0172807 0.00428118 0.0309377 0.0041822 0.0253982 0.00672256 0.0336518 0.0056505 0.0310314 0.00824909 0.040156
59 2 Si -1.18567 13.8526 47.9314 2.4 1 0.234083 0.054301 0.0162523 0.016096 0.00485956 0.017615 0.00473706 0.0267415 0.00818442 0.0193676 0.00612808 0.0308386 0.00542884 0.0279563 0.00628287 0.0339474 0.00941755 0.0325276 0.0100779 0.0372539
60 3 O -1.09664 15.4205 47.9915 -1.2 1 0.232774 0.0532023 0.0156791 0.0167622 0.00507396 0.0191861 0.00403269 0.0268589 0.00727113 0.0196633 0.00640997 0.0310699 0.00558511 0.0276076 0.00739245 0.0345346 0.00862497 0.0334664 0.00969246 0.0382599
61 3 O -1.73493 12.7491 51.7772 -1.2 1 0.135184 0.0424986 0.00254666 0.00963799 0.00374034 0.0098382 0.00155029 0.023344 0.00389737 0.0136157 0.00314561 0.0281131 0.00416899 0.0226318 0.00459516 0.0312579 0.00504989 0.0280298 0.00702873 0.039718
62 3 O -2.36115 13.2717 48.8238 -1.2 1 0.20635 0.053614 0.0108043 0.013603 0.00476643 0.013922 0.00428382 0.025907 0.00601097 0.0188678 0.00501871 0.0299734 0.00424277 0.0261668 0.00561343 0.0334943 0.00745498 0.03151 0.00892177 0.0369759
63 1 Mg -0.159928 11.7639 46.8533 1.2 1 0.260043 0.0541203 0.0198949 0.0177798 0.00604066 0.0197067 0.0066947 0.0275304 0.00912461 0.0192088 0.00783776 0.0299665 0.00652554 0.0266049 0.00797377 0.0329763 0.0104375 0.0333786 0.0119269 0.0346291
64 3 O 0.2623 13.1866 48.413 -1.2 1 0.215568 0.0539402 0.0127726 0.0143755 0.00421885 0.0154884 0.00407259 0.0260858 0.00701327 0.0182646 0.00515113 0.0293358 0.0046924 0.027287 0.00511955 0.0329989 0.00816924 0.032833 0.00913413 0.0373106
65 1 Mg 1.52196 11.9842 54.6558 1.2 1 0.0711629 0.0309627 0.00419906 0.00587798 0.00186743 0.0074316 0.0023608 0.020876 0.00309303 0.00998809 0.00241239 0.0268867 0.00327803 0.0204934 0.00262928 0.030795 0.00359217 0.0256125 0.00540076 0.0413522
66 2 Si 1.39018 14.509 56.4648 2.4 1 0.0338783 0.0190195 0.00592574 0.00629169 0.00156855 0.00649763 0.00194194 0.0212067 0.00214803 0.0083424 0.00311042 0.0262917 0.00235079 0.0193969 0.00373796 0.0303211 0.00332545 0.025796 0.00488725 0.0447986
67 3 O 1.28392 13.005 56.4089 -1.2 1 0.0363302 0.0205527 0.00568318 0.006272 0.0012574 0.00612804 0.00120624 0.0207455 0.00362084 0.00815382 0.00178709 0.0261955 0.00337853 0.0187186 0.00318075 0.0303331 0.00495421 0.0256639 0.00450132 0.0447706
68 3 O 1.36565 15.4813 52.729 -1.2 1 0.111366 0.0374936 0.000823926 0.00777903 0.00200269 0.0106379 0.00287562 0.022795 0.00292945 0.0132002 0.00315258 0.0284313 0.00408503 0.0221896 0.0039978 0.0314548 0.00409044 0.0286168 0.00620279 0.0416902
69 3 O 0.0065874 15.2045 55.8549 -1.2 1 0.0482874 0.0238936 0.00531191 0.00560495 0.00130651 0.0069803 0.00230591 0.0215961 0.00179713 0.00945087 0.00239225 0.0262768 0.00226478 0.0199356 0.0033153 0.0313939 0.00329858 0.0269424 0.00550047 0.0442648
70 3 O 2.63443 15.1271 55.7563 -1.2 1 0.0439383 0.0232286 0.00601865 0.00556753 0.00131531 0.00655294 0.00172986 0.0214606 0.002068 0.00916508 0.00212309 0.0261852 0.00224885 0.0200983 0.00276188 0.030888 0.00274751 0.0265173 0.00473694 0.0436863
71 1 Mg -0.206989 14.1049 52.2121 1.2 1 0.116512 0.0412781 0.00102686 0.0085182 0.00292788 0.00874974 0.00210627 0.0231355 0.00318432 0.01335 0.00314681 0.0288179 0.00354913 0.0221919 0.00391073 0.0316815 0.00391791 0.0283967 0.00651898 0.0404092
72 1 Mg 1.82591 13.8102 49.4556 1.2 1 0.185911 0.0536148 0.00703654 0.0117615 0.00296481 0.013446 0.00415307 0.0248485 0.00464341 0.0177426 0.00501773 0.0293143 0.004761 0.026046 0.00599511 0.033616 0.00628079 0.0318482 0.00890254 0.0379488
73 2 Si 1.29285 16.1518 51.2434 2.4 1 0.145074 0.0461223 0.00228313 0.0101734 0.00230912 0.0122106 0.00334528 0.0242505 0.00378193 0.0156162 0.00445443 0.0284242 0.00416168 0.0250523 0.00489365 0.0323422 0.00466622 0.0309746 0.00808895 0.0418416
74 3 O 1.39496 17.7199 51.3047 -1.2 1 0.144688 0.0440205 0.0028547 0.00955765 0.00194628 0.0120247 0.0031648 0.023502 0.00369719 0.0149016 0.00330435 0.0294388 0.00357026 0.0241367 0.00487168 0.0331658 0.00532354 0.0299414 0.00713953 0.042069
75 3 O 1.40194 15.0318 57.9832 -1.2 1 0.017629 0.0119269 0.00375981 0.00588913 0.00105454 0.00642842 0.00153667 0.0211369 0.00190923 0.00780579 0.00214151 0.0258206 0.0023603 0.0181185 0.00216785 0.0295034 0.00251314 0.0258507 0.00344938 0.0440163
76 3 O -0.0269106 15.5178 50.6688 -1.2 1 0.154702 0.0466535 0.00448527 0.0108445 0.00332151 0.012281 0.00299851 0.0241926 0.00376185 0.0154116 0.00305024 0.0289994 0.00423045 0.0248788 0.00570068 0.0323768 0.00432689 0.0308002 0.00783196 0.0406148
77 1 Mg -3.18391 14.1057 52.3125 1.2 1 0.123975 0.0413927 0.00135114 0.00843745 0.00250068 0.0108294 0.00260733 0.0231557 0.00337515 0.0138091 0.00317049 0.0284354 0.00359429 0.0231723 0.00402753 0.0311238 0.00422814 0.0283178 0.00609332 0.040115
78 3 O 2.52432 15.503 50.4579 -1.2 1 0.161289 0.0487153 0.00474631 0.0103061 0.00249737 0.0130412 0.00355541 0.0240802 0.00420175 0.0167857 0.00370263 0.0290365 0.00378055 0.0254937 0.0056777 0.0327627 0.00551897 0.0308017 0.00758678 0.0400562
79 1 Mg -1.65853 14.0907 55.1031 1.2 1 0.0563932 0.0274825 0.00540446 0.00583951 0.00184123 0.00662044 0.0021204 0.02202 0.00263818 0.00999525 0.00287868 0.0267445 0.00218925 0.0201072 0.00377256 0.0307902 0.00410781 0.0265591 0.00536 0.0435694
80 2 Si -1.66905 12.0544 53.1706 2.4 1 0.100983 0.0376589 0.00235812 0.00774501 0.00310132 0.00799066 0.00171074 0.0225876 0.00396114 0.0122133 0.00258707 0.0271002 0.00364567 0.0216875 0.0035727 0.0306057 0.00518494 0.0271692 0.0058286 0.0416005
81 3 O -1.87322 10.4429 53.1238 -1.2 1 0.0990059 0.0368023 0.00283293 0.00739036 0.00281337 0.00756983 0.00145961 0.0211556 0.00361952 0.0106997 0.00292784 0.02625 0.00367847 0.0196628 0.00392037 0.0302866 0.00477748 0.026213 0.00682687 0.0396927
82 3 O -1.21337 13.3381 46.4311 -1.2 1 0.271645 0.0533456 0.0220434 0.0194642 0.00625813 0.0204921 0.0067634 0.0297159 0.00925958 0.0202018 0.00704705 0.0313158 0.0058003 0.0263027 0.00852115 0.0354261 0.0122475 0.0351692 0.0119677 0.0350168
83 3 O -2.87097 12.8136 53.9326 -1.2 1 0.0856827 0.033912 0.0031518 0.00620685 0.00246197 0.0086509 0.00153904 0.0220751 0.00300891 0.011144 0.00183125 0.0266062 0.0031321 0.021182 0.00339789 0.0309285 0.00408353 0.0268677 0.00546126 0.0417127
84 3 O -0.311738 12.7361 53.9082 -1.2 1 0.0807986 0.0333453 0.00321244 0.00620728 0.00300047 0.0066143 0.00153398 0.0224258 0.00256398 0.0106797 0.00248666 0.0269556 0.00317447 0.0208819 0.00402592 0.0313832 0.00387709 0.0271509 0.00535151 0.0417791
85 1 Mg -3.07015 21.2083 57.307 1.2 1 0.0214573 0.0147828 0.00467309 0.00507233 0.00113603 0.00630038 0.00155559 0.0218919 0.00194547 0.009885 0.00145335 0.0264527 0.00183225 0.0192822 0.00194966 0.0313808 0.00240033 0.0253005 0.00333943 0.0447597
86 1 Mg -1.5831 21.1217 49.8405 1.2 1 0.181315 0.0489133 0.00738551 0.0129505 0.00308301 0.0153358 0.00289635 0.0252496 0.00403006 0.0177274 0.00470582 0.030382 0.00352847 0.0259447 0.0063911 0.0341768 0.00581623 0.0316026 0.00880646 0.0408846
87 2 Si -1.09384 18.6291 47.9287 2.4 1 0.233875 0.0543212 0.0144028 0.0174833 0.00373966 0.020523 0.00340041 0.0277269 0.00682875 0.020458 0.00566044 0.0322008 0.00590364 0.0288295 0.00651365 0.0350757 0.00948445 0.0343785 0.00992448 0.0403662
88 3 O -1.02071 20.1985 47.9911 -1.2 1 0.232321 0.0534512 0.0146163 0.0176986 0.00364874 0.0204971 0.00354254 0.0269741 0.0066257 0.0204991 0.00602801 0.0316196 0.00561143 0.0280278 0.00742389 0.0352304 0.00841039 0.0345205 0.00948394 0.0402485
89 3 O -1.65002 17.5002 51.771 -1.2 1 0.134996 0.0416512 0.00238828 0.0100355 0.00306384 0.0111981 0.00144845 0.0236798 0.00246553 0.0143714 0.0026562 0.0290292 0.00364606 0.0235228 0.0044021 0.0324385 0.00487045 0.0289556 0.00680881 0.0419888
90 3 O -2.26174 18.0434 48.8281 -1.2 1 0.204594 0.0530948 0.00992646 0.0142866 0.00368232 0.0167826 0.00346085 0.0266176 0.00484743 0.0195985 0.00456296 0.0314222 0.00410221 0.027526 0.00629969 0.0347187 0.00701894 0.0332473 0.00927397 0.0399656
91 1 Mg -0.0440435 16.5651 46.8269 1.2 1 0.258018 0.0547606 0.0192366 0.0194402 0.00477379 0.0239363 0.0046871 0.030614 0.00866981 0.0221188 0.00663175 0.0337171 0.00649526 0.0288803 0.007854 0.0349499 0.0101166 0.0362959 0.0111491 0.0391806
92 3 O 0.37001 17.9877 48.3925 -1.2 1 0.217864 0.0544938 0.0117747 0.0159734 0.0033608 0.0179739 0.0029699 0.0271912 0.00600397 0.0200321 0.00469822 0.0314861 0.00465768 0.0288541 0.0058553 0.0343194 0.00850741 0.0353911 0.00927758 0.0402472
93 1 Mg 1.39495 16.5053 54.5627 1.2 1 0.0721279 0.0302716 0.00394833 0.00572918 0.00161992 0.00742558 0.00270318 0.0216377 0.00251239 0.0111395 0.00212538 0.0277891 0.00320518 0.0214356 0.00326965 0.0319167 0.00324539 0.0261097 0.00472336 0.0427641
94 2 Si 1.49271 19.0728 56.4291 2.4 1 0.0336569 0.0191015 0.0052106 0.00563492 0.00116794 0.00661496 0.00177077 0.0217811 0.0017394 0.00927868 0.0023778 0.0259569 0.00255395 0.0201078 0.00259981 0.0308913 0.00346607 0.0256756 0.0042575 0.045847
95 3 O 1.49752 17.5474 56.5132 -1.2 1 0.031509 0.0180646 0.00541873 0.00551892 0.0010864 0.00616097 0.002158 0.0215822 0.002736 0.00903457 0.00166315 0.0263789 0.00234447 0.0188615 0.0031085 0.0304672 0.00361068 0.0259306 0.00421937 0.0446176
96 3 O 1.45147 20.239 52.7294 -1.2 1 0.109557 0.0376464 0.00138096 0.00751442 0.0017111 0.0108475 0.0028519 0.0232524 0.00259001 0.0137576 0.00287842 0.0281279 0.00346791 0.0224165 0.00376711 0.0323799 0.00407256 0.0284144 0.00585949 0.0429344
97 3 O 0.253146 19.8336 55.78 -1.2 1 0.0480021 0.0243333 0.0049609 0.0055733 0.000946483 0.00669758 0.00217559 0.0212058 0.00151389 0.0102325 0.00198384 0.0260429 0.00237237 0.0205879 0.00332325 0.0323305 0.00319981 0.0263725 0.0046305 0.0446721
98 3 O 2.83999 19.7926 55.8373 -1.2 1 0.0405925 0.0226954 0.00584401 0.00526341 0.00127943 0.00643317 0.00238417 0.0222255 0.0021708 0.00989599 0.00195478 0.0261215 0.00248444 0.0204626 0.00340176 0.0323285 0.00340129 0.0264482 0.00445908 0.0451382
99 1 Mg -0.126194 18.8651 52.2079 1.2 1 0.117242 0.0416762 0.00191546 0.00873014 0.00248961 0.00946861 0.00222739 0.0235755 0.0027431 0.0147121 0.00298407 0.0291106 0.00348951 0.023298 0.00414857 0.0328056 0.00448468 0.0292097 0.00670814 0.0415603
100 1 Mg 1.92402 18.5815 49.4545 1.2 1 0.182927 0.0529627 0.00582002 0.011929 0.00182892 0.0143475 0.00387754 0.0252886 0.00385559 0.0187913 0.00400332 0.0305391 0.00440665 0.0271517 0.00519317 0.0346138 0.00640569 0.032826 0.00886585 0.040891
101 2 Si 1.38106 20.9117 51.2443 2.4 1 0.144138 0.046318 0.00260452 0.0101285 0.00161032 0.0128014 0.00325838 0.0246038 0.00318619 0.0161637 0.00364243 0.0284015 0.00331763 0.02487 0.00461227 0.0329261 0.00524295 0.030926 0.00760545 0.0419468
102 3 O 1.48527 22.4795 51.3054 -1.2 1 0.140178 0.0438505 0.00299205 0.0093737 0.0017293 0.0122306 0.00316593 0.0235614 0.0033711 0.0152558 0.00267927 0.0284146 0.00333262 0.0241352 0.00460832 0.0334903 0.00543118 0.0298492 0.00698522 0.0420157
103 3 O 1.48246 19.9033 57.8647 -1.2 1 0.0164623 0.0118699 0.00370249 0.00554204 0.000962061 0.00649752 0.00174496 0.0217549 0.00150063 0.00908058 0.00200409 0.0261186 0.00243694 0.0188348 0.00239335 0.0304817 0.00307713 0.0250319 0.00348609 0.0449397
104 3 O 0.0615419 20.2804 50.6669 -1.2 1 0.156025 0.0469449 0.00424283 0.0112941 0.00306992 0.0130791 0.00335684 0.024615 0.00308318 0.0160723 0.00311864 0.0292002 0.00398711 0.0259222 0.00541975 0.0334731 0.0049067 0.0310513 0.00778774 0.0420089
105 1 Mg -3.09665 18.8643 52.3122 1.2 1 0.122846 0.0408327 0.00133349 0.0086092 0.00182497 0.0112042 0.00229351 0.0234214 0.00256548 0.0148256 0.00264432 0.0289718 0.00320157 0.0236377 0.00304062 0.0319578 0.00479874 0.0287669 0.00581432 0.0413054
106 3 O 2.61548 20.2646 50.4626 -1.2 1 0.159829 0.0484961 0.00398025 0.0104119 0.00162806 0.0135094 0.00340549 0.0245798 0.00331657 0.0170288 0.00311645 0.0290985 0.00354575 0.026216 0.0051129 0.0337211 0.00524314 0.0309547 0.00749294 0.041438
107 1 Mg -1.39584 18.9244 55.1192 1.2 1 0.0561565 0.0273767 0.00463473 0.00584478 0.00177658 0.00671365 0.00217266 0.0224918 0.00255274 0.0114386 0.0024789 0.027021 0.00243794 0.0213816 0.003152 0.0316669 0.00422149 0.0270643 0.00479441 0.0435187
108 2 Si -1.62043 16.861 53.2707 2.4 1 0.0983524 0.0369462 0.00269676 0.00759928 0.00288247 0.00803938 0.00195195 0.0224171 0.00265809 0.0126005 0.00254166 0.0280568 0.00308568 0.0224044 0.00333768 0.0321779 0.00482451 0.0281161 0.00550806 0.0429609
109 3 O -1.47866 15.3569 53.1161 -1.2 1 0.0984206 0.0361796 0.00244187 0.00744374 0.00258115 0.00846364 0.00170318 0.0218583 0.00306403 0.0116178 0.0024886 0.0278275 0.00300557 0.021344 0.00408291 0.0317339 0.00370818 0.0277296 0.0064046 0.0426487
110 3 O -1.12868 18.1227 46.4249 -1.2 1 0.27013 0.0541517 0.0208323 0.0206216 0.00491523 0.0241196 0.00512126 0.0310621 0.00743404 0.0216463 0.00620694 0.0338421 0.00639522 0.0270084 0.00883678 0.0371745 0.011721 0.0374978 0.0115261 0.0392486
111 3 O -2.94542 17.484 53.8407 -1.2 1 0.0845006 0.0332098 0.00298166 0.00593851 0.00142259 0.00870934 0.00173425 0.0227353 0.00201451 0.0118355 0.00216248 0.0272699 0.00269392 0.0219255 0.00268965 0.0318357 0.00382455 0.0274422 0.00499853 0.0429547
112 3 O -0.322691 17.5167 53.9721 -1.2 1 0.0786773 0.0323665 0.00352736 0.00593919 0.00279449 0.00664708 0.00189386 0.0223883 0.0023405 0.0110502 0.00243445 0.0271145 0.00260246 0.0218458 0.00328268 0.0322921 0.00398201 0.0277201 0.00547909 0.0429697
113 1 Mg -3.04216 26.082 57.4003 1.2 1 0.0197789 0.0154222 0.0044391 0.00483228 0.00127174 0.00634035 0.00130819 0.0218242 0.00195716 0.0102363 0.00196067 0.0259453 0.00206993 0.019082 0.00264328 0.0322923 0.00320757 0.0251856 0.00284802 0.0454523
114 1 Mg -1.48778 25.88 49.8402 1.2 1 0.179807 0.0495369 0.00741063 0.0126799 0.00311635 0.0153668 0.00317618 0.0258609 0.00440811 0.0181491 0.00442484 0.0297665 0.00309783 0.0260746 0.00609405 0.0346444 0.0056014 0.031287 0.00862596 0.0397523
115 2 Si -1.00491 23.3922 47.9274 2.4 1 0.233348 0.0547995 0.0149406 0.0180549 0.00344301 0.0212354 0.00433806 0.027644 0.00726382 0.0205237 0.00535909 0.0312073 0.00550026 0.028798 0.00647456 0.0356627 0.0091807 0.0342156 0.00999105 0.0404105
116 3 O -0.927602 24.9615 47.9909 -1.2 1 0.229285 0.0540876 0.0144216 0.0176243 0.0038832 0.0206813 0.00464217 0.0278811 0.00666101 0.0202928 0.00542155 0.0307457 0.00492005 0.0282675 0.00733896 0.0357326 0.00801295 0.0348225 0.0094658 0.04002
117 3 O -1.55795 22.2588 51.7696 -1.2 1 0.133574 0.0424495 0.00250206 0.00998069 0.00264405 0.0113903 0.00170056 0.0237376 0.00243786 0.0149036 0.00256118 0.0283632 0.00354236 0.0237211 0.00423866 0.0329839 0.00536394 0.0287314 0.00699265 0.042141
118 3 O -2.17411 22.8111 48.8277 -1.2 1 0.202973 0.0536664 0.00978402 0.0147232 0.00293324 0.0172466 0.0039219 0.026958 0.00494851 0.0198395 0.00427026 0.0305019 0.00407977 0.0275153 0.0061247 0.0352008 0.00702542 0.0334011 0.00886863 0.0400278
119 1 Mg 0.0423997 21.3296 46.8225 1.2 1 0.259714 0.05499 0.0186993 0.0206102 0.00446844 0.0252007 0.00531411 0.0303729 0.00808354 0.0226164 0.00643632 0.0331983 0.0068183 0.0289311 0.00852696 0.0354639 0.0093771 0.0371191 0.011466 0.0403167
120 3 O 0.458537 22.7495 48.3911 -1.2 1 0.214039 0.0541367 0.0110791 0.0160476 0.00331956 0.0184253 0.00313874 0.0270301 0.00565543 0.0199938 0.00382612 0.0304009 0.00459049 0.0288869 0.00615689 0.0349032 0.00770199 0.0351353 0.0089824 0.0406415
121 1 Mg 1.3899 21.1773 54.6714 1.2 1 0.0677835 0.030333 0.00418344 0.00578711 0.00136425 0.00735337 0.0023079 0.0218142 0.00223115 0.0114352 0.00207827 0.026862 0.00332994 0.0224201 0.00313418 0.0332515 0.00352468 0.0262576 0.00480768 0.0439021