ITEM: TIMESTEP
50200
ITEM: NUMBER OF ATOMS
10500
ITEM: BOX BOUNDS xy xz yz pp pp pp
0	8.9688	2.9896
0	118.725	0
0	252.977	0
ITEM: ATOMS id type element xu yu zu q Q_1 Q_2 Q_3 Q_4 Q_5 Q_6 Q_7 Q_8 Q_9 Q_10 Q_11 Q_12 Q_13 Q_14 Q_15 Q_16 Q_17 Q_18 Q_19 Q_20 Q_21
1 1 Mg -3.49648 6.89604 57.6988 1.2 1 0.0204407 0.0142039 0.0046364 0.00519603 0.00181407 0.00605274 0.0011484 0.0220928 0.00179558 0.00912844 0.00198098 0.0271407 0.00220721 0.0176333 0.00263855 0.0319953 0.00262804 0.025498 0.00500775 0.0461332
2 1 Mg -1.82655 6.90154 50.0912 1.2 1 0.176781 0.047593 0.00613898 0.0105749 0.00289138 0.00841642 0.00437744 0.0225546 0.0046289 0.0143011 0.00493237 0.0253615 0.00411898 0.0207291 0.0069883 0.0286623 0.00612631 0.025841 0.00903316 0.0333346
3 2 Si -0.257935 3.96038 48.0876 2.4 1 0.223241 0.0526188 0.010952 0.0131913 0.00228856 0.00915487 0.0037419 0.0202231 0.00521738 0.0161379 0.00456309 0.0245206 0.00478048 0.0203898 0.0051541 0.0261082 0.00675419 0.0250459 0.00883314 0.0320617
4 3 O -0.335812 5.46814 47.6264 -1.2 1 0.232187 0.0526641 0.0130104 0.0145757 0.00303562 0.0100346 0.00468192 0.0210377 0.00607177 0.0168027 0.00523892 0.0253109 0.00442554 0.0207754 0.00540058 0.0264358 0.00734646 0.0258028 0.00955245 0.0308128
5 3 O -2.03793 3.43377 51.8941 -1.2 1 0.128095 0.040874 0.0024642 0.00759528 0.001897 0.00658423 0.00283487 0.0205439 0.00231451 0.0111557 0.00340414 0.0248272 0.0038065 0.0177462 0.00408185 0.0280295 0.0049627 0.0242704 0.0073816 0.0362965
6 3 O -1.54015 3.53929 48.9521 -1.2 1 0.203719 0.0518302 0.0085574 0.0118752 0.00236221 0.00812092 0.00376363 0.0199828 0.00488135 0.0148443 0.00467912 0.0239958 0.00393367 0.019915 0.00581218 0.0268757 0.00556017 0.0247658 0.0085292 0.0317831
7 1 Mg 1.82954 2.54582 47.1376 1.2 1 0.246879 0.0528204 0.0156268 0.0164659 0.0028118 0.010851 0.00358126 0.0198502 0.00539864 0.0150993 0.00475275 0.0243615 0.00614576 0.0194814 0.00732245 0.0247285 0.00686089 0.0238463 0.00920903 0.0304911
8 3 O 1.22989 3.66364 48.7877 -1.2 1 0.203869 0.0500307 0.00877357 0.0127312 0.00182769 0.00910508 0.0039055 0.0200207 0.0039684 0.0144848 0.00401971 0.0240284 0.00425152 0.0195564 0.0060923 0.0263728 0.00449092 0.0244526 0.00887554 0.0329209
9 1 Mg 1.07737 2.39835 54.5951 1.2 1 0.0688471 0.0298435 0.00450453 0.00494555 0.00150338 0.00512401 0.00285706 0.0211194 0.00234506 0.00974324 0.00289916 0.0256211 0.00378317 0.0191245 0.0038916 0.03062 0.00275591 0.0248604 0.00645137 0.0407998
10 2 Si 1.12708 4.90819 56.4242 2.4 1 0.0327378 0.0200489 0.00597424 0.00542671 0.00124377 0.00616193 0.00207738 0.0218403 0.00217161 0.00869501 0.0029819 0.025426 0.00247151 0.0186645 0.00422887 0.0314657 0.00348972 0.0254063 0.00647757 0.0457897
11 3 O 1.10098 3.27013 56.648 -1.2 1 0.0299299 0.0186628 0.00565072 0.00499471 0.00138459 0.00541424 0.00177479 0.0220313 0.00264652 0.00876607 0.00236631 0.0260228 0.00223043 0.0183846 0.00297077 0.0316691 0.00359713 0.025748 0.00492993 0.0451129
12 3 O 1.10813 6.07342 52.8172 -1.2 1 0.106604 0.0360234 0.00268257 0.00669059 0.00199415 0.00683795 0.00334288 0.021975 0.00293394 0.0112842 0.00332621 0.025605 0.00428918 0.018755 0.0050835 0.0299856 0.00404865 0.0251201 0.00683095 0.0376491
13 3 O -0.0585948 5.53581 55.7691 -1.2 1 0.0460613 0.0238247 0.005658 0.00493791 0.00120655 0.00515178 0.00245975 0.0212653 0.00242418 0.00925263 0.00279594 0.0260904 0.00292929 0.0179359 0.00487663 0.0316586 0.00325603 0.0249534 0.00627116 0.0435599
14 3 O 2.41886 5.48303 55.8362 -1.2 1 0.042171 0.023219 0.00615168 0.0046355 0.000958885 0.00606861 0.00242399 0.0220273 0.00155891 0.00941169 0.00279643 0.0260249 0.00316135 0.0186041 0.0052088 0.0324182 0.00322398 0.0258318 0.00691277 0.0442073
15 1 Mg -0.459401 4.67631 52.2426 1.2 1 0.12276 0.0401222 0.00260781 0.00728021 0.00211808 0.00630444 0.00260533 0.0212473 0.00278426 0.0119157 0.00303853 0.0256948 0.00393427 0.0188339 0.00497213 0.0289899 0.00424362 0.024257 0.00687365 0.0355761
16 1 Mg 2.79456 3.9971 49.9987 1.2 1 0.174719 0.0496891 0.00513674 0.0108207 0.0025141 0.00758154 0.00396802 0.0208885 0.00325899 0.0141393 0.0030256 0.0247482 0.00411352 0.0197287 0.00595736 0.0275246 0.00450168 0.0248883 0.00886841 0.0330335
17 2 Si 1.16169 6.59457 51.2556 2.4 1 0.146941 0.0448553 0.00258366 0.00915792 0.00240887 0.00783389 0.00413721 0.0220785 0.00375916 0.013172 0.00442857 0.0250399 0.00415292 0.0201616 0.00637034 0.0296957 0.00519459 0.0255347 0.00908388 0.0355613
18 3 O 1.28989 8.18905 51.2909 -1.2 1 0.145998 0.0435081 0.00276648 0.00929211 0.00242629 0.00853014 0.00416665 0.022564 0.00366606 0.0132102 0.00398942 0.0265392 0.00415067 0.0206311 0.00539343 0.0301081 0.00511003 0.0264264 0.00783476 0.0367277
19 3 O 1.01005 5.48688 57.9787 -1.2 1 0.0164329 0.0124223 0.00375874 0.00549394 0.00161951 0.0062283 0.00091354 0.0226495 0.00181249 0.00830161 0.00230148 0.0267688 0.00251302 0.0181879 0.00301045 0.0322706 0.00277007 0.0258606 0.00450745 0.0470136
20 3 O -0.184847 6.06029 50.6845 -1.2 1 0.161345 0.0450548 0.00491482 0.00980942 0.00297482 0.0075724 0.00419135 0.0220719 0.00421892 0.0133802 0.00345205 0.0249744 0.0037788 0.0198018 0.00605082 0.0278286 0.005193 0.0250564 0.00842834 0.0348597
21 1 Mg -3.49704 4.67769 52.6661 1.2 1 0.115672 0.0382809 0.00224003 0.00675197 0.00200886 0.00628163 0.00310306 0.0206283 0.00304054 0.0111153 0.00383129 0.0256763 0.00371003 0.0184328 0.00420895 0.0290451 0.00422792 0.0240057 0.00740665 0.0364822
22 3 O 2.48581 5.93312 50.6539 -1.2 1 0.158046 0.0464201 0.00341533 0.00902971 0.00138003 0.0081535 0.00434699 0.0218865 0.00391955 0.0136794 0.00439709 0.0246798 0.00400471 0.0206332 0.00644985 0.0287996 0.00467528 0.0255502 0.00884636 0.0340593
23 1 Mg -1.81189 4.5893 55.3183 1.2 1 0.050616 0.025661 0.00593423 0.00503279 0.00155203 0.00537541 0.00196769 0.0216254 0.00243183 0.0095539 0.00288773 0.0262504 0.0020357 0.0188145 0.00433271 0.0314909 0.00400842 0.0252613 0.00668751 0.0424195
24 2 Si -2.04394 2.61395 53.2568 2.4 1 0.101495 0.0365417 0.00306859 0.0065974 0.00258277 0.00555005 0.00173971 0.0205512 0.00269829 0.0104668 0.00283397 0.0247678 0.0031121 0.0185323 0.00387128 0.0293185 0.00444313 0.0241675 0.00657206 0.0387409
25 3 O -2.00579 0.991649 53.2465 -1.2 1 0.0971358 0.0348102 0.0026337 0.00612221 0.00289588 0.00555428 0.00193938 0.0204757 0.00254763 0.00993449 0.00252495 0.0252019 0.00328035 0.0179477 0.00436739 0.0294797 0.00393294 0.0244993 0.00675203 0.0388893
26 3 O -0.0467762 2.97103 46.8385 -1.2 1 0.251985 0.0532643 0.0160465 0.015819 0.00289271 0.0095542 0.00362009 0.019658 0.00619707 0.0161361 0.00596337 0.024069 0.00679632 0.0191619 0.00750476 0.024859 0.00671873 0.0241091 0.00991604 0.031862
27 3 O -3.29764 3.26954 54.0314 -1.2 1 0.0807259 0.0316243 0.00389452 0.00503329 0.00190604 0.00555147 0.00226538 0.0211644 0.00243204 0.0102935 0.00270475 0.0247662 0.00282967 0.0186155 0.00344535 0.0303254 0.00403932 0.0246102 0.00648833 0.0397726
28 3 O -0.714432 3.25703 53.9636 -1.2 1 0.082602 0.0326819 0.00403614 0.00529829 0.00210241 0.00591053 0.00161104 0.0212517 0.00232353 0.0102376 0.00230785 0.0254577 0.00341852 0.0189131 0.00380696 0.0300684 0.00330944 0.0249375 0.00670473 0.0396092
29 1 Mg -3.1525 11.7946 57.1972 1.2 1 0.0240461 0.0147648 0.00436316 0.0054423 0.00117705 0.00654054 0.00132394 0.0214178 0.00214092 0.00941501 0.001416 0.0272953 0.00236719 0.0178278 0.00268998 0.0314886 0.00345289 0.0257933 0.00373282 0.0465145
30 1 Mg -1.75014 11.5838 49.8362 1.2 1 0.184908 0.0468094 0.00757678 0.0120712 0.00425873 0.0123977 0.00516581 0.0239327 0.00464514 0.015719 0.00504596 0.0274302 0.00403076 0.0232075 0.00693834 0.0320069 0.00655607 0.0289499 0.00985721 0.0361912
31 2 Si -1.18003 9.02138 47.9309 2.4 1 0.241123 0.0513351 0.0149757 0.0159196 0.00519792 0.0128604 0.0078508 0.0234712 0.00751311 0.0169238 0.00727048 0.0262623 0.00482194 0.0224596 0.00711904 0.0298161 0.00911274 0.028334 0.0120399 0.0335488
32 3 O -1.23224 10.5991 47.9811 -1.2 1 0.229763 0.0516105 0.0129076 0.0157318 0.00514389 0.013893 0.00690027 0.024429 0.00716225 0.0171165 0.00715518 0.027503 0.00543167 0.0234823 0.00843623 0.0322491 0.00930102 0.0301914 0.0108707 0.0344207
33 3 O -1.79016 8.01447 51.8693 -1.2 1 0.132444 0.0402918 0.00208491 0.00867795 0.00314871 0.00759241 0.00285256 0.0224116 0.0032682 0.0125538 0.00397183 0.0265103 0.00415089 0.019954 0.00457962 0.0301358 0.0055484 0.0251709 0.00796363 0.0371248
34 3 O -2.30986 8.37215 48.8528 -1.2 1 0.203105 0.0511066 0.00895513 0.0125229 0.00393882 0.0105032 0.00630956 0.0235566 0.00546261 0.016607 0.00538248 0.0262192 0.00421067 0.0222545 0.0059427 0.0301767 0.00693488 0.027509 0.00948181 0.0333731
35 1 Mg 0.154883 7.08234 46.8007 1.2 1 0.259943 0.0524776 0.0177321 0.0167854 0.00584707 0.0128009 0.00885934 0.0238472 0.00754281 0.0172294 0.00778758 0.0255589 0.00665589 0.0215562 0.00863202 0.0282336 0.00976219 0.0280341 0.0129473 0.0309326
36 3 O 0.325447 8.50934 48.3809 -1.2 1 0.217885 0.052338 0.0109798 0.0143591 0.00394634 0.0115097 0.00664251 0.0241947 0.00613171 0.0168669 0.00621437 0.0258233 0.0044393 0.023373 0.0059124 0.0297139 0.00758636 0.0282646 0.0106727 0.0333886
37 1 Mg 1.1257 7.16746 54.5666 1.2 1 0.0692076 0.0295261 0.00480421 0.00509027 0.00206205 0.00601776 0.0024168 0.0214003 0.00208772 0.0105628 0.00316227 0.0262364 0.00362218 0.0193206 0.00397201 0.0320301 0.00352799 0.0247563 0.00694003 0.040955
38 2 Si 1.37008 9.61847 56.3238 2.4 1 0.0359833 0.0203344 0.00578539 0.00588034 0.00119574 0.00606526 0.0017703 0.0215841 0.00169036 0.00882497 0.00276553 0.0255968 0.00243092 0.0191891 0.00399734 0.0322232 0.00324446 0.0253986 0.00613864 0.0458495
39 3 O 1.2606 8.08555 56.4242 -1.2 1 0.035815 0.0205592 0.00595388 0.00548196 0.00113557 0.0060525 0.00166123 0.0218375 0.00275665 0.00855047 0.00232253 0.0261056 0.00341489 0.0179849 0.00245816 0.0320787 0.00334578 0.0251864 0.00547034 0.0450592
40 3 O 1.28624 10.7248 52.7351 -1.2 1 0.111411 0.035847 0.00190317 0.0071792 0.00221878 0.00915443 0.00315407 0.0224597 0.00262868 0.0119346 0.00339242 0.0261609 0.00426911 0.0203945 0.00411433 0.0314268 0.00391832 0.0266562 0.00707158 0.0391073
41 3 O 0.083891 10.3002 55.8668 -1.2 1 0.0450472 0.0228272 0.00508463 0.00584996 0.00108734 0.00595344 0.00205445 0.0215881 0.00181258 0.00916034 0.00222757 0.0261772 0.00294212 0.0191426 0.00384618 0.0323474 0.00308957 0.025057 0.00584481 0.0448586
42 3 O 2.67963 10.3565 55.6921 -1.2 1 0.047869 0.0235005 0.00541456 0.00548248 0.000941707 0.00653388 0.00273969 0.0220083 0.0018542 0.00954419 0.00268711 0.0261019 0.00300529 0.019151 0.00463782 0.0322312 0.00273382 0.0257662 0.00676283 0.0450408
43 1 Mg -0.262694 9.34741 52.2523 1.2 1 0.114868 0.0396279 0.00281552 0.00789907 0.00305907 0.00766065 0.00258359 0.0230635 0.00309549 0.012319 0.0032455 0.0268726 0.00374151 0.0201954 0.00490162 0.0312 0.00431568 0.0265337 0.00740799 0.0377344
44 1 Mg 1.87648 9.01537 49.4629 1.2 1 0.184746 0.0512405 0.0057785 0.0114666 0.00307927 0.0104037 0.0061657 0.0236294 0.00511091 0.0158557 0.00529763 0.0265881 0.0043825 0.0226164 0.00599413 0.0305093 0.00576291 0.0280128 0.00980451 0.0345433
45 2 Si 1.21415 11.3799 51.2378 2.4 1 0.146964 0.0440689 0.00235373 0.00987497 0.00317107 0.0105105 0.00404665 0.0237097 0.00395295 0.0143681 0.0044175 0.026267 0.0043148 0.0229277 0.00541711 0.0320618 0.00464487 0.0284652 0.00895651 0.038408
46 3 O 1.31634 12.9512 51.3023 -1.2 1 0.147054 0.0423464 0.00289222 0.00954477 0.00272159 0.0114498 0.00360064 0.0238371 0.0041166 0.0142382 0.00360339 0.0278627 0.00440435 0.023174 0.00508524 0.0322933 0.00485505 0.0290753 0.00851927 0.0391454
47 3 O 1.20365 10.2972 57.8986 -1.2 1 0.0179876 0.0127936 0.00360837 0.00561137 0.001455 0.00643869 0.00131951 0.0223675 0.00172613 0.00834597 0.001961 0.0264132 0.0025757 0.0184387 0.00257261 0.0316202 0.00270125 0.0255156 0.00363351 0.0476145
48 3 O -0.115718 10.7564 50.681 -1.2 1 0.159234 0.0453966 0.00410583 0.0109102 0.00344065 0.0103193 0.00458165 0.0241627 0.00418556 0.014128 0.00403389 0.0267353 0.00424165 0.0226552 0.0058215 0.0312584 0.00516838 0.0278848 0.00938033 0.0373555
49 1 Mg -3.26386 9.35564 52.3622 1.2 1 0.123866 0.0386603 0.00136589 0.00791018 0.00192393 0.00917376 0.00344021 0.0226541 0.00330337 0.0124738 0.00416909 0.026093 0.00352913 0.0206142 0.0050964 0.03111 0.00445331 0.0266159 0.00782683 0.0370192
50 3 O 2.45216 10.7265 50.4558 -1.2 1 0.164474 0.0467967 0.00413723 0.00976898 0.0026064 0.0111428 0.00509595 0.0239546 0.00432452 0.0157565 0.00447801 0.0266869 0.00380111 0.0233274 0.00598642 0.0319178 0.00537926 0.0286471 0.00937818 0.0366373
51 1 Mg -1.70829 9.43707 55.2342 1.2 1 0.0547379 0.0259704 0.0052945 0.00591769 0.00185026 0.00608178 0.0024242 0.0220895 0.00220633 0.00976656 0.00257171 0.0265449 0.00257951 0.0189833 0.00377033 0.0316009 0.00436816 0.0253145 0.00684917 0.0434753
52 2 Si -1.6774 7.3771 53.3623 2.4 1 0.0966591 0.0352142 0.00328338 0.00680922 0.00305783 0.00686721 0.00243303 0.021789 0.00325139 0.0113306 0.00332653 0.0258795 0.00358824 0.0199529 0.00391812 0.0306872 0.00523739 0.0246125 0.00675284 0.038975
53 3 O -1.79335 5.84774 53.4221 -1.2 1 0.0957508 0.0333622 0.00303908 0.00591689 0.0025492 0.00622577 0.00195003 0.0210308 0.00291952 0.0103759 0.00324192 0.0253828 0.00284281 0.0186377 0.00460395 0.030583 0.00379866 0.0244495 0.00748748 0.0386434
54 3 O -1.19417 8.46968 46.4488 -1.2 1 0.270518 0.0520474 0.019906 0.0181642 0.00563972 0.0139714 0.00917684 0.0250674 0.00817603 0.01741 0.00768418 0.0258972 0.00586844 0.0212478 0.00915289 0.0298816 0.0104408 0.0293774 0.0119834 0.0309203
55 3 O -3.00666 8.0707 54.11 -1.2 1 0.0794193 0.0302575 0.00374301 0.00563419 0.002162 0.00720934 0.00239627 0.021685 0.00226593 0.0108118 0.00251554 0.0254705 0.00279957 0.0192635 0.00422632 0.0317742 0.00428678 0.0252452 0.00775324 0.0405397
56 3 O -0.404591 8.12807 53.9563 -1.2 1 0.0806068 0.031394 0.0043674 0.00568162 0.00274971 0.00620415 0.00173992 0.0220978 0.00259189 0.010959 0.00261983 0.0254564 0.00289525 0.0198902 0.00378922 0.0314156 0.00412659 0.0258802 0.00680479 0.0409109
57 1 Mg -3.29587 16.433 57.2646 1.2 1 0.0235672 0.0141494 0.00444421 0.00510056 0.00145583 0.00673071 0.00140561 0.0213761 0.00207944 0.00904164 0.00217746 0.027155 0.00191572 0.0179921 0.00266168 0.0313402 0.00397911 0.0257075 0.00454405 0.0464229
58 1 Mg -1.6714 16.3544 49.8412 1.2 1 0.181835 0.0468771 0.00677253 0.0127136 0.00370743 0.0153302 0.00335833 0.0257655 0.00432617 0.0170769 0.00420874 0.0303343 0.0039226 0.0254789 0.00633248 0.0335392 0.00563364 0.0311211 0.0088166 0.0393893
59 2 Si -1.18567 13.8526 47.9314 2.4 1 0.234368 0.051989 0.0146342 0.0166841 0.00453467 0.0178899 0.00558366 0.0269628 0.00820054 0.0193194 0.00616622 0.0302759 0.00559991 0.027802 0.00649031 0.0341368 0.00970689 0.032336 0.0111727 0.0376013
60 3 O -1.09664 15.4205 47.9915 -1.2 1 0.234979 0.0516038 0.0142305 0.0174854 0.00501633 0.0195046 0.00510339 0.0278014 0.00772885 0.0195388 0.00653061 0.0305449 0.00596299 0.0276197 0.00777924 0.0350362 0.00886152 0.0338587 0.0100314 0.0380274
61 3 O -1.73493 12.7491 51.7772 -1.2 1 0.135716 0.039761 0.0022865 0.00955227 0.00328917 0.0100436 0.00203993 0.0236792 0.00306117 0.013533 0.0029364 0.0275426 0.00455 0.0222749 0.00456034 0.032119 0.00545622 0.0279798 0.00830043 0.0398034
62 3 O -2.36115 13.2717 48.8238 -1.2 1 0.204948 0.050729 0.00915155 0.0140548 0.00471262 0.0143187 0.00505047 0.0267938 0.00579845 0.0188614 0.0049956 0.0296626 0.00465042 0.0260996 0.00584897 0.0338543 0.0072986 0.0315787 0.0099757 0.0373974
63 1 Mg -0.159928 11.7639 46.8533 1.2 1 0.256414 0.0519209 0.0178901 0.0182472 0.00578991 0.0190474 0.00721716 0.0282886 0.00884511 0.019307 0.00742088 0.0298771 0.00579749 0.0265649 0.00732723 0.0330636 0.0108347 0.0330275 0.0126298 0.0354225
64 3 O 0.2623 13.1866 48.413 -1.2 1 0.218191 0.0519463 0.0114691 0.0152086 0.00428486 0.0159536 0.00495657 0.0270829 0.00686443 0.0183283 0.00482529 0.0288395 0.00498242 0.0275497 0.00538639 0.0334856 0.00833919 0.0329721 0.0104234 0.0374728
65 1 Mg 1.22739 11.726 54.6568 1.2 1 0.0726921 0.0290664 0.00356704 0.00530971 0.0017888 0.0073327 0.00221119 0.0216237 0.00216305 0.0114351 0.00199467 0.0264704 0.00354833 0.0204553 0.00316169 0.032101 0.00380692 0.0254893 0.00574226 0.0419941
66 2 Si 1.31667 14.3148 56.3974 2.4 1 0.0365772 0.0189848 0.00482116 0.00561288 0.00117665 0.00663049 0.00147286 0.021469 0.00194074 0.00914771 0.00261 0.0264204 0.00245795 0.0190719 0.00296738 0.0311536 0.00427254 0.0255256 0.00530856 0.0465436
67 3 O 1.10287 12.82 56.3803 -1.2 1 0.0375371 0.0194927 0.00487931 0.00557426 0.00103374 0.00620027 0.00149573 0.0214946 0.00271306 0.00868508 0.00165294 0.0266064 0.00281573 0.0185785 0.0028373 0.0316787 0.0049344 0.0256926 0.0049922 0.0461113
68 3 O 1.36565 15.4813 52.729 -1.2 1 0.113278 0.0356188 0.00084458 0.00719918 0.00219728 0.0110496 0.00268244 0.0232852 0.00235203 0.0128614 0.00303258 0.0278516 0.00401013 0.0214043 0.00412578 0.0318807 0.00420771 0.0281754 0.00709369 0.0418251
69 3 O 0.0695411 15.1052 55.6979 -1.2 1 0.051493 0.0232251 0.00413248 0.0052481 0.000957889 0.00704032 0.00174202 0.0216177 0.00181604 0.010025 0.00252985 0.0264281 0.00256736 0.0194 0.00346556 0.0321076 0.00354048 0.0263821 0.00526918 0.0449747
70 3 O 2.47091 15.054 55.6328 -1.2 1 0.0467487 0.0225676 0.00538427 0.00525869 0.00103636 0.00662271 0.00226311 0.0217612 0.00205973 0.00962183 0.00240836 0.0265081 0.00282042 0.0191815 0.00381736 0.0322389 0.00405027 0.0262944 0.00550457 0.0460667
71 1 Mg -0.206989 14.1049 52.2121 1.2 1 0.120013 0.0394782 0.00170117 0.00846808 0.00303144 0.00951733 0.00199953 0.0236517 0.0030257 0.0133924 0.00234748 0.0283145 0.00367482 0.0221602 0.00411656 0.0319625 0.00389291 0.0280595 0.00702453 0.0398791
72 1 Mg 1.82591 13.8102 49.4556 1.2 1 0.185857 0.0507787 0.00558784 0.0120088 0.0032252 0.0136026 0.00465864 0.0255176 0.00503071 0.0173974 0.00484757 0.0288557 0.00497255 0.0260275 0.00592587 0.0341552 0.00628632 0.0314 0.00963472 0.0378496
73 2 Si 1.29285 16.1518 51.2434 2.4 1 0.148226 0.0445255 0.00176965 0.00981971 0.00275432 0.0126027 0.00351116 0.0248497 0.00349623 0.01553 0.00416905 0.0281512 0.00408996 0.0247293 0.005179 0.0323147 0.00400609 0.0305472 0.00841662 0.0409216
74 3 O 1.39496 17.7199 51.3047 -1.2 1 0.146703 0.0432185 0.00262388 0.00943446 0.00206975 0.0128808 0.00311395 0.0238512 0.00351663 0.0147356 0.00273366 0.0289163 0.00403082 0.0239616 0.00417833 0.0327567 0.00540934 0.0301284 0.00752976 0.0410209
75 3 O 1.34892 15.0889 57.8717 -1.2 1 0.0164738 0.0117233 0.00300977 0.00527151 0.00136414 0.0064545 0.00135506 0.0215179 0.00184791 0.00804892 0.00259988 0.026366 0.00225421 0.0180386 0.00277174 0.0315423 0.0038211 0.0258997 0.00435667 0.0472779
76 3 O -0.0269106 15.5178 50.6688 -1.2 1 0.156723 0.0444271 0.00367708 0.0108419 0.00350567 0.012666 0.00341769 0.0248054 0.00345277 0.0150514 0.00272985 0.0284103 0.00416741 0.024674 0.00576944 0.0324841 0.00418552 0.0303356 0.00857426 0.0403156
77 1 Mg -3.18391 14.1057 52.3125 1.2 1 0.12758 0.0394965 0.00144745 0.00815599 0.00239779 0.0110501 0.00247737 0.0236882 0.00308115 0.013889 0.00291743 0.0277759 0.00410749 0.0226626 0.00406847 0.0319082 0.00434772 0.0282865 0.00732218 0.0397894
78 3 O 2.52432 15.503 50.4579 -1.2 1 0.160673 0.0459225 0.003494 0.00997142 0.00249445 0.01331 0.00373919 0.0249717 0.00384582 0.0168499 0.00316064 0.0284991 0.00404774 0.0253166 0.00548468 0.0330747 0.00478101 0.0304321 0.0084777 0.0398252
79 1 Mg -1.63704 14.3031 55.0498 1.2 1 0.0591197 0.0264094 0.00412832 0.00578441 0.00185842 0.00676006 0.0020174 0.0224153 0.00260927 0.0104561 0.00257365 0.0275695 0.00299865 0.0198136 0.00371975 0.031488 0.00454257 0.0263672 0.0053612 0.043758
80 2 Si -1.70471 12.0415 53.3238 2.4 1 0.0992922 0.0352978 0.00291241 0.00756368 0.00312999 0.00793268 0.00172696 0.0229339 0.00308395 0.0122079 0.00181438 0.0267204 0.00388634 0.0216649 0.00300263 0.0318879 0.00476577 0.0267525 0.00659879 0.0413291
81 3 O -1.6953 10.514 53.1647 -1.2 1 0.0986919 0.0344436 0.00282379 0.00694208 0.00294383 0.00768184 0.00184564 0.0221099 0.00279697 0.0113215 0.00285225 0.0261858 0.00335612 0.0202522 0.00410533 0.0316855 0.00449406 0.0260993 0.00748141 0.0406206
82 3 O -1.21337 13.3381 46.4311 -1.2 1 0.272451 0.0514624 0.0205689 0.0201324 0.00641994 0.0204056 0.00745948 0.0301316 0.00910745 0.0204608 0.00686475 0.0309544 0.0058229 0.0266551 0.00864664 0.0353095 0.0122285 0.0348547 0.0126586 0.0354998
83 3 O -2.9451 12.7921 54.0325 -1.2 1 0.085476 0.0309909 0.00247639 0.00568094 0.00188091 0.00865385 0.00156583 0.0223261 0.0025234 0.0116838 0.00168762 0.0264418 0.00325521 0.0208508 0.00294591 0.0318056 0.00373928 0.0266159 0.00586925 0.042467
84 3 O -0.430185 12.7925 53.9445 -1.2 1 0.0818729 0.0313027 0.00336183 0.00592143 0.00298622 0.00653547 0.00173551 0.0228592 0.00268503 0.011361 0.00202266 0.0262576 0.00314858 0.0209279 0.00344989 0.0321644 0.00430765 0.0270425 0.0059811 0.0426395
85 1 Mg -2.94265 21.0545 57.6054 1.2 1 0.0207722 0.0129819 0.00454647 0.00523256 0.00164653 0.00670155 0.00128457 0.0211603 0.0018192 0.00881308 0.00182639 0.0272025 0.00229705 0.0183214 0.00261523 0.0315233 0.00345505 0.0260914 0.00484099 0.0472471
86 1 Mg -1.5831 21.1217 49.8405 1.2 1 0.180691 0.0483109 0.00671938 0.0132826 0.0029373 0.0161098 0.00280656 0.0253046 0.00380006 0.017474 0.00421769 0.0302537 0.00317613 0.0249754 0.00672693 0.0336085 0.00541835 0.0311842 0.00928994 0.0391121
87 2 Si -1.09384 18.6291 47.9287 2.4 1 0.233672 0.0544396 0.0140262 0.017912 0.0039022 0.0208785 0.00466287 0.0281396 0.00725614 0.0201534 0.00552522 0.0317541 0.0058477 0.028458 0.00594311 0.0349689 0.00887362 0.0340457 0.0100997 0.0391213
88 3 O -1.02071 20.1985 47.9911 -1.2 1 0.230072 0.0538582 0.0137561 0.0180032 0.00439207 0.0210888 0.00421367 0.027826 0.00683179 0.0199892 0.00553516 0.0313274 0.00540787 0.0275257 0.00767333 0.0354173 0.00781654 0.0345015 0.00911824 0.0388274
89 3 O -1.65002 17.5002 51.771 -1.2 1 0.136817 0.0404359 0.00240821 0.0095512 0.00304584 0.0121615 0.00148429 0.0238954 0.00229605 0.0139133 0.00265366 0.0287851 0.00412425 0.0228828 0.00424191 0.0325208 0.00532191 0.0290274 0.00804509 0.0415261
90 3 O -2.26174 18.0434 48.8281 -1.2 1 0.203823 0.0519327 0.00913718 0.0145312 0.00397186 0.0174551 0.0039385 0.0273716 0.00503862 0.0194004 0.00372103 0.0307565 0.00414345 0.0270519 0.00597893 0.0345635 0.00650556 0.0332548 0.00874922 0.0385305
91 1 Mg -0.0440435 16.5651 46.8269 1.2 1 0.259573 0.0539753 0.0183414 0.0200323 0.00499693 0.0240545 0.0058534 0.0312214 0.00891422 0.0219352 0.00677351 0.0330775 0.00698265 0.0291871 0.00859714 0.035427 0.00974363 0.0361028 0.0115901 0.038968
92 3 O 0.37001 17.9877 48.3925 -1.2 1 0.215223 0.0535818 0.010743 0.0158964 0.00396699 0.0184029 0.00348934 0.0279044 0.00641929 0.0194825 0.00415627 0.0308187 0.00488469 0.0286197 0.00553525 0.0343579 0.00777458 0.034671 0.00901972 0.0396443
93 1 Mg 1.43778 16.4866 54.4773 1.2 1 0.0769493 0.0298749 0.00284508 0.00578716 0.00189446 0.00818179 0.00223745 0.0218057 0.00235105 0.0113047 0.00231342 0.0273228 0.00348007 0.0208471 0.00320701 0.0323084 0.0046143 0.0263492 0.00554411 0.0434395
94 2 Si 1.43456 19.2722 56.3865 2.4 1 0.03551 0.0182242 0.00537171 0.00566414 0.00168062 0.0066092 0.00199252 0.0209486 0.00220894 0.00862639 0.00304134 0.026397 0.00186472 0.0190658 0.00389445 0.0317474 0.00358114 0.0258249 0.00662424 0.0466868
95 3 O 1.37951 17.6633 56.4304 -1.2 1 0.0357131 0.0186483 0.00513635 0.00561593 0.00154209 0.00651211 0.0017642 0.0214187 0.00252316 0.00831127 0.00211463 0.0266826 0.00250911 0.0184744 0.00238557 0.0318207 0.00406292 0.0261935 0.00577881 0.0462504
96 3 O 1.45147 20.239 52.7294 -1.2 1 0.110955 0.0365974 0.00137452 0.00740751 0.0017643 0.0114407 0.0027045 0.022699 0.00166896 0.0123362 0.00230157 0.0282535 0.00368708 0.0216378 0.00390724 0.0321172 0.00399544 0.0283243 0.00673152 0.042382
97 3 O 0.190176 19.9499 55.7166 -1.2 1 0.0496647 0.0232885 0.00507892 0.00559605 0.00142267 0.00716594 0.0019814 0.0211784 0.00182485 0.00957618 0.00262451 0.0264026 0.00235909 0.0193393 0.00388169 0.0326432 0.00378011 0.0268232 0.00635145 0.0456036
98 3 O 2.78589 19.964 55.9237 -1.2 1 0.0417564 0.0214782 0.00626313 0.0057565 0.0015515 0.00702915 0.00259227 0.0212937 0.00228314 0.00918456 0.00258451 0.0262966 0.00219765 0.019529 0.00358022 0.0322106 0.00346905 0.0266622 0.00643765 0.0464411
99 1 Mg -0.126194 18.8651 52.2079 1.2 1 0.118825 0.0402854 0.00154331 0.00849168 0.00260218 0.0104153 0.00212302 0.0233757 0.00192701 0.0135998 0.00238222 0.0287536 0.00360774 0.0225319 0.00448207 0.0322577 0.00378711 0.0289129 0.00734008 0.0411527
100 1 Mg 1.92402 18.5815 49.4545 1.2 1 0.183161 0.0520415 0.00490809 0.0121289 0.00239546 0.0153447 0.00389529 0.0254764 0.00411551 0.0183629 0.00331763 0.0302243 0.0044093 0.027101 0.00509671 0.034736 0.00524647 0.0325848 0.00854823 0.039301
101 2 Si 1.38106 20.9117 51.2443 2.4 1 0.147418 0.046829 0.00185896 0.01062 0.00228982 0.0134712 0.00340397 0.0242881 0.00283488 0.0153844 0.0038219 0.0280239 0.0037501 0.0243239 0.00578485 0.0326584 0.00393863 0.0309585 0.00881386 0.0408316
102 3 O 1.48527 22.4795 51.3054 -1.2 1 0.146629 0.0448108 0.0025526 0.0102842 0.00192861 0.0131224 0.002938 0.0233731 0.0037668 0.0142736 0.00284297 0.0287592 0.00345855 0.0236528 0.00462916 0.0330588 0.0054004 0.0296795 0.00782011 0.0409782
103 3 O 1.43419 19.8708 57.908 -1.2 1 0.0169079 0.0112562 0.00371544 0.00524929 0.00168373 0.00694413 0.00161755 0.0215309 0.00193783 0.00835735 0.00244644 0.0268968 0.00185973 0.0183639 0.00301 0.0315881 0.00282423 0.026203 0.00465825 0.0474374
104 3 O 0.0615419 20.2804 50.6669 -1.2 1 0.157185 0.0464563 0.003742 0.0115846 0.00339418 0.0140954 0.00325537 0.0250152 0.00317194 0.0156593 0.00288166 0.0293462 0.00374388 0.0249799 0.00529701 0.0326052 0.00389252 0.0307807 0.00837927 0.0405743
105 1 Mg -3.09665 18.8643 52.3122 1.2 1 0.125445 0.0401893 0.00137991 0.00831691 0.00197752 0.0121541 0.0019621 0.0236581 0.00203855 0.0142052 0.00229069 0.0285799 0.00327872 0.0230226 0.00326512 0.0318379 0.00451687 0.0289866 0.00707288 0.0409569
106 3 O 2.61548 20.2646 50.4626 -1.2 1 0.160745 0.0483418 0.00357419 0.010789 0.00189608 0.0145793 0.00318322 0.0246516 0.00308862 0.0168778 0.00294757 0.0288672 0.00354889 0.025297 0.0052098 0.0331517 0.00448752 0.0307038 0.00820502 0.0399491
107 1 Mg -1.41548 19.0262 55.2214 1.2 1 0.053818 0.0255897 0.00568272 0.00626824 0.00199503 0.00680696 0.00211101 0.0218532 0.00172869 0.0100171 0.00222802 0.0275138 0.00215811 0.0198546 0.00352894 0.0322332 0.00460087 0.0264237 0.00654542 0.0451391
108 2 Si -1.61382 16.9285 53.3092 2.4 1 0.0967642 0.0346337 0.00228799 0.0071417 0.00283911 0.00886784 0.0014538 0.0225387 0.00225005 0.0120935 0.00171002 0.0276996 0.00326513 0.0217029 0.0032557 0.0320095 0.00503235 0.0275087 0.00601605 0.0429004
109 3 O -1.49899 15.3647 53.2369 -1.2 1 0.0985585 0.0341001 0.00199521 0.00696133 0.00282188 0.00902019 0.00132596 0.022428 0.00269718 0.0115973 0.00238163 0.0275134 0.00294651 0.0212079 0.00368421 0.0320379 0.00403762 0.0276164 0.00661897 0.0426113
110 3 O -1.12868 18.1227 46.4249 -1.2 1 0.268707 0.0542323 0.0198831 0.0211448 0.00562312 0.0241638 0.00604109 0.0320095 0.00757529 0.0216043 0.00554437 0.0334408 0.00667916 0.0272495 0.00860888 0.0373437 0.011338 0.0371374 0.0111348 0.0387536
111 3 O -2.97135 17.4938 53.9567 -1.2 1 0.0852435 0.0315099 0.0026767 0.00579859 0.00196617 0.00951338 0.00183057 0.0223058 0.0013706 0.0116823 0.00171059 0.0267397 0.00295466 0.0210991 0.00274092 0.0320506 0.00431144 0.0273101 0.00637482 0.0431587
112 3 O -0.334962 17.6483 53.9113 -1.2 1 0.0823846 0.0307671 0.00293437 0.00591906 0.00284821 0.00748624 0.00109928 0.0225133 0.00170419 0.0113355 0.00222323 0.0266732 0.00220717 0.0209039 0.00352382 0.0320785 0.00418879 0.0276049 0.0064468 0.043375
113 1 Mg -3.0113 25.9527 57.363 1.2 1 0.0216321 0.0148361 0.00464274 0.00523472 0.00196283 0.00690529 0.00119326 0.0212491 0.00208306 0.00879798 0.00240844 0.0261021 0.00158532 0.0188566 0.00274454 0.031182 0.00297729 0.0259394 0.00430375 0.0473433
114 1 Mg -1.48778 25.88 49.8402 1.2 1 0.180944 0.0494211 0.00672159 0.013383 0.00288111 0.0162137 0.00289286 0.0250991 0.00368734 0.0173271 0.00440547 0.0299546 0.00331235 0.025602 0.00652752 0.0339078 0.00561629 0.0310999 0.00904246 0.0388455
115 2 Si -1.00491 23.3922 47.9274 2.4 1 0.233087 0.0559282 0.0139624 0.0189336 0.0038291 0.0219638 0.00418779 0.0280251 0.00703196 0.0205376 0.00509264 0.0317238 0.00554753 0.0283475 0.00624899 0.0350628 0.00836307 0.0344815 0.00904896 0.0386909
116 3 O -0.927602 24.9615 47.9909 -1.2 1 0.229342 0.0542029 0.0136099 0.0183421 0.00403065 0.0213231 0.00365029 0.0274093 0.0069426 0.0199611 0.00560797 0.0309755 0.00524101 0.0274023 0.00762268 0.0353523 0.0077844 0.0341103 0.00874512 0.0388116
117 3 O -1.55795 22.2588 51.7696 -1.2 1 0.136017 0.0416803 0.00240715 0.0102491 0.00282341 0.0125252 0.00166708 0.0236913 0.00188096 0.0138858 0.00275706 0.0288438 0.00371813 0.0227216 0.0042589 0.0325086 0.00509547 0.0287454 0.00813545 0.0412179
118 3 O -2.17411 22.8111 48.8277 -1.2 1 0.203175 0.0542493 0.00884326 0.0152215 0.00329055 0.0180642 0.00305713 0.0268329 0.00497171 0.0196392 0.00395337 0.030646 0.00405152 0.0266687 0.00611658 0.0345353 0.00650442 0.033409 0.00843641 0.038122
119 1 Mg 0.0423997 21.3296 46.8225 1.2 1 0.254495 0.0558843 0.0176913 0.0208678 0.00501754 0.0253306 0.00576625 0.031142 0.00830781 0.0221022 0.0062693 0.0334643 0.00643362 0.0287131 0.00822377 0.0358521 0.00866178 0.036903 0.0104816 0.0390195
120 3 O 0.458537 22.7495 48.3911 -1.2 1 0.214757 0.0554127 0.0104113 0.016924 0.00346848 0.0192315 0.00280473 0.0277498 0.00619851 0.0197597 0.0037341 0.0308026 0.00482839 0.0282672 0.00578689 0.0345537 0.00706901 0.0347497 0.00811687 0.0394886