ITEM: TIMESTEP
47600
ITEM: NUMBER OF ATOMS
10500
ITEM: BOX BOUNDS xy xz yz pp pp pp
0	8.9688	2.9896
0	118.725	0
0	252.977	0
ITEM: ATOMS id type element xu yu zu q Q_1 Q_2 Q_3 Q_4 Q_5 Q_6 Q_7 Q_8 Q_9 Q_10 Q_11 Q_12 Q_13 Q_14 Q_15 Q_16 Q_17 Q_18 Q_19 Q_20 Q_21
1 1 Mg -3.58408 7.01599 57.5163 1.2 1 0.0204509 0.0140884 0.00464139 0.006342 0.00116948 0.00712348 0.00117298 0.0225394 0.00206601 0.0094176 0.00181841 0.0273718 0.00272879 0.0190527 0.00199889 0.0317932 0.00294063 0.0256054 0.0045644 0.0461679
2 1 Mg -1.82655 6.90154 50.0912 1.2 1 0.174437 0.0467576 0.00560421 0.0103663 0.00323339 0.00909412 0.00452396 0.0228432 0.00453539 0.0149892 0.00391972 0.0249064 0.00421354 0.0210807 0.00630385 0.029543 0.00598235 0.0259412 0.00967167 0.0338211
3 2 Si -0.257935 3.96038 48.0876 2.4 1 0.224035 0.0530258 0.0111696 0.0130123 0.00214607 0.00996784 0.00385801 0.0202952 0.00578181 0.0170019 0.0047183 0.0239199 0.0051247 0.0203042 0.00606677 0.0265137 0.00726053 0.0247868 0.00967888 0.0316928
4 3 O -0.335812 5.46814 47.6264 -1.2 1 0.231917 0.052247 0.0130345 0.0137392 0.00309898 0.0109695 0.0046921 0.0211877 0.0063439 0.017722 0.00505566 0.0246021 0.00467562 0.0209582 0.00603485 0.0270106 0.00787995 0.0256417 0.0107333 0.030532
5 3 O -2.03793 3.43377 51.8941 -1.2 1 0.130184 0.0407822 0.00213084 0.00688275 0.00214908 0.00740772 0.00254613 0.0200272 0.00246028 0.0117358 0.00317014 0.0243266 0.00348387 0.0177112 0.00422678 0.0285968 0.00531369 0.0238945 0.00769408 0.0356068
6 3 O -1.54015 3.53929 48.9521 -1.2 1 0.201596 0.0512706 0.00864933 0.0111104 0.00256029 0.00888477 0.00336309 0.0200415 0.00494639 0.0151892 0.00459627 0.0233149 0.00408849 0.0196533 0.00585583 0.0268887 0.00591177 0.0242107 0.00930531 0.0314831
7 1 Mg 1.82954 2.54582 47.1376 1.2 1 0.246268 0.0530547 0.0159177 0.0156071 0.00304422 0.0114344 0.00298905 0.0199329 0.00593522 0.0159973 0.00482874 0.0236506 0.0058532 0.0189866 0.00702805 0.024673 0.00682796 0.0236326 0.00899924 0.0297808
8 3 O 1.22989 3.66364 48.7877 -1.2 1 0.203536 0.050131 0.00883949 0.0123002 0.00229688 0.00974221 0.00362382 0.0202477 0.00399453 0.0150113 0.0041486 0.0233424 0.00414741 0.0194743 0.00652351 0.0264842 0.00478955 0.0242134 0.00920874 0.032214
9 1 Mg 0.987492 2.27267 54.6855 1.2 1 0.0678854 0.0291055 0.00405732 0.00493206 0.0016775 0.00564262 0.0021711 0.0200991 0.002722 0.00974195 0.00272308 0.0251929 0.00365153 0.0186201 0.00398519 0.031782 0.00308402 0.0245459 0.00659584 0.0407692
10 2 Si 0.883585 5.07288 56.5244 2.4 1 0.0309482 0.0188342 0.00551946 0.00643086 0.00150884 0.00668676 0.00284603 0.021276 0.0021419 0.00893797 0.00410843 0.0256868 0.00298443 0.0185535 0.00540516 0.0319517 0.00368812 0.0247628 0.00665362 0.0453425
11 3 O 0.826897 3.50016 56.4548 -1.2 1 0.0353529 0.0204368 0.00550923 0.00561737 0.00137957 0.00605262 0.00219148 0.0204076 0.00317661 0.00875048 0.00234122 0.025596 0.00345402 0.0180574 0.00259683 0.032228 0.00393431 0.0249239 0.00592035 0.0432599
12 3 O 1.10813 6.07342 52.8172 -1.2 1 0.105266 0.0359445 0.00192435 0.00691723 0.0026295 0.0075146 0.00340356 0.0219955 0.00298422 0.0117498 0.00275857 0.0250322 0.00373559 0.0190475 0.00455384 0.0296948 0.00421833 0.025404 0.00711284 0.0382991
13 3 O -0.455478 5.75271 55.881 -1.2 1 0.0432946 0.0231392 0.00570565 0.00591821 0.00136203 0.00633939 0.00260156 0.0218337 0.00196512 0.00996894 0.00245852 0.0258642 0.00263959 0.0186698 0.00378316 0.0318055 0.00327305 0.0258035 0.00566866 0.0438897
14 3 O 2.1508 5.70743 55.7777 -1.2 1 0.04076 0.0226152 0.00594148 0.00583912 0.00137969 0.0066455 0.00247183 0.0218741 0.00180777 0.00970437 0.00255407 0.0257273 0.00305591 0.0189549 0.00414711 0.0321456 0.0034789 0.0258542 0.00595397 0.04362
15 1 Mg -0.459401 4.67631 52.2426 1.2 1 0.123416 0.0403157 0.00174195 0.00714986 0.00243041 0.00714347 0.00245884 0.021047 0.00289795 0.0123931 0.00275148 0.0250716 0.00371422 0.0190702 0.00438791 0.0290334 0.00449883 0.0243127 0.00721115 0.0355658
16 1 Mg 2.79456 3.9971 49.9987 1.2 1 0.174128 0.0491037 0.00538811 0.0100707 0.00272693 0.00836238 0.00409063 0.0206283 0.00336001 0.0146923 0.00268758 0.0235587 0.00399351 0.0200553 0.00645823 0.0276264 0.00460378 0.0245481 0.00946461 0.0326163
17 2 Si 1.16169 6.59457 51.2556 2.4 1 0.147363 0.0449469 0.00200088 0.0092755 0.00290039 0.00877693 0.0043316 0.0220623 0.00365461 0.0137542 0.00380905 0.0242753 0.00390796 0.0207863 0.00632398 0.0301528 0.00505827 0.0261451 0.00920414 0.0360444
18 3 O 1.28989 8.18905 51.2909 -1.2 1 0.145173 0.0437215 0.00175238 0.00951942 0.00280222 0.00973178 0.0042317 0.0228634 0.00410129 0.0139807 0.00372039 0.0261686 0.00386066 0.0215145 0.0050974 0.0304945 0.0053817 0.0271259 0.00875311 0.0379807
19 3 O 0.951328 5.6828 58.1479 -1.2 1 0.0138143 0.0109309 0.00347727 0.00635713 0.00103443 0.00709578 0.00139749 0.0228468 0.00170718 0.00850444 0.00272046 0.0269217 0.00254038 0.0192904 0.00346392 0.0325412 0.0030651 0.0253512 0.00469256 0.0471674
20 3 O -0.184847 6.06029 50.6845 -1.2 1 0.162199 0.0451587 0.00443853 0.00999055 0.00338008 0.00824294 0.00412829 0.021856 0.00417783 0.0139031 0.00300604 0.024405 0.00354952 0.0201845 0.00538421 0.0284129 0.00529041 0.025342 0.00907125 0.0353439
21 1 Mg -3.49704 4.67769 52.6661 1.2 1 0.114448 0.0377375 0.00150493 0.00639712 0.00222759 0.00750366 0.00300537 0.0203151 0.00307896 0.0114887 0.00334573 0.0246675 0.00345871 0.0185931 0.00442708 0.0290059 0.0042564 0.024227 0.00765541 0.0366506
22 3 O 2.48581 5.93312 50.6539 -1.2 1 0.157545 0.0466082 0.00352288 0.00871658 0.00193365 0.00893123 0.00421902 0.0217941 0.00382347 0.0143895 0.00367978 0.0239737 0.0042741 0.0210474 0.00568469 0.0294105 0.00501502 0.0257212 0.00940227 0.0346821
23 1 Mg -2.08444 4.93079 55.3138 1.2 1 0.0506424 0.0258902 0.00610844 0.00583858 0.00181995 0.00611398 0.00233595 0.0211668 0.00246291 0.00957154 0.00279777 0.0263165 0.00273526 0.0185109 0.00382447 0.031946 0.0040886 0.0254411 0.00630023 0.0416066
24 2 Si -1.91279 2.71337 53.2948 2.4 1 0.101752 0.0357701 0.00271938 0.00616151 0.00271036 0.0065847 0.00176647 0.0201914 0.00262087 0.0111575 0.00279741 0.0241367 0.0031756 0.0185418 0.00330559 0.0297881 0.00434038 0.0240387 0.00710238 0.0374679
25 3 O -2.0355 1.09186 53.3235 -1.2 1 0.0974371 0.0348932 0.00254539 0.00573632 0.0028655 0.00623177 0.00146635 0.0194024 0.00244769 0.0101547 0.00268389 0.0250109 0.00313135 0.0179309 0.00419268 0.0299576 0.00399466 0.0233974 0.0072042 0.0375516
26 3 O -0.0467762 2.97103 46.8385 -1.2 1 0.251131 0.0534836 0.0161709 0.0151031 0.00301647 0.0104431 0.00325835 0.0198925 0.00668602 0.0169441 0.0060775 0.0233911 0.00662384 0.0189302 0.00835636 0.0250387 0.00697017 0.0238159 0.0102424 0.0310192
27 3 O -3.23173 3.31868 54.1231 -1.2 1 0.0800459 0.0314727 0.00353482 0.00497307 0.0021982 0.0062131 0.00222634 0.0203023 0.00236455 0.0104405 0.00228667 0.0243544 0.00288808 0.0183566 0.00397619 0.0304655 0.00363187 0.0240372 0.00680557 0.0384493
28 3 O -0.558263 3.30262 53.8525 -1.2 1 0.0831833 0.0328665 0.00347967 0.00528566 0.00214892 0.00663336 0.0017173 0.0212487 0.00255101 0.0103027 0.00221033 0.0243771 0.00359235 0.0191435 0.00288111 0.0304637 0.0038527 0.0249891 0.00594058 0.0390088
29 1 Mg -3.51452 11.9888 57.5388 1.2 1 0.0215781 0.013819 0.00381529 0.00653466 0.00130028 0.00736295 0.00139263 0.0225304 0.0021943 0.00906544 0.00195495 0.0281473 0.00257814 0.0191137 0.0025494 0.0308875 0.00364746 0.0261684 0.00421659 0.0483027
30 1 Mg -1.75014 11.5838 49.8362 1.2 1 0.183793 0.0468609 0.00694183 0.0122825 0.00432159 0.0132382 0.00477786 0.0244703 0.00563539 0.0165101 0.00523804 0.0282933 0.00409668 0.0241849 0.00684493 0.0327505 0.00698477 0.0293297 0.0106922 0.0377506
31 2 Si -1.18003 9.02138 47.9309 2.4 1 0.236794 0.0504765 0.014169 0.0153656 0.00495128 0.0131642 0.00775934 0.0233792 0.00775241 0.0177133 0.0072025 0.0257939 0.0045439 0.0232902 0.00723579 0.0306043 0.00946021 0.0281946 0.012916 0.0340058
32 3 O -1.23224 10.5991 47.9811 -1.2 1 0.228544 0.051384 0.0123386 0.0156268 0.00539433 0.0145546 0.00651275 0.0244887 0.00773415 0.0178426 0.00723726 0.0273501 0.00517611 0.0241477 0.00890754 0.0329075 0.00978678 0.0304949 0.0124218 0.0348561
33 3 O -1.79016 8.01447 51.8693 -1.2 1 0.131246 0.0401097 0.00129435 0.00894083 0.00346736 0.00812511 0.00336514 0.0225889 0.00376232 0.0130895 0.00350875 0.0259701 0.00358742 0.0203375 0.00473255 0.0306069 0.00542606 0.0261964 0.00873022 0.0381424
34 3 O -2.30986 8.37215 48.8528 -1.2 1 0.205546 0.0513585 0.00865979 0.0125647 0.0042474 0.0107731 0.00651607 0.0237171 0.00605041 0.0176137 0.00501396 0.0256897 0.00414802 0.0232099 0.00680308 0.0313451 0.0072742 0.0278139 0.0107782 0.0337209
35 1 Mg 0.154883 7.08234 46.8007 1.2 1 0.259762 0.0521912 0.0174487 0.0165124 0.00563048 0.0137202 0.00894097 0.0239424 0.00766743 0.017766 0.00737491 0.0250093 0.00656054 0.021826 0.00926249 0.0288417 0.0101661 0.0278215 0.0138634 0.0311471
36 3 O 0.325447 8.50934 48.3809 -1.2 1 0.217244 0.0523521 0.0102396 0.0142668 0.00434575 0.0125345 0.00649021 0.0244841 0.00640444 0.0174495 0.00595289 0.0257127 0.00478953 0.0240962 0.00651439 0.0302891 0.00808322 0.0285334 0.0116626 0.033698
37 1 Mg 1.14847 7.09922 54.6912 1.2 1 0.0667057 0.0287052 0.00420375 0.00606435 0.00174769 0.00636213 0.00267823 0.0217708 0.00244128 0.0107631 0.00279378 0.02563 0.00330026 0.0196903 0.00319748 0.0315121 0.00369536 0.0256256 0.00650592 0.0422659
38 2 Si 1.04746 9.76357 56.4818 2.4 1 0.0322445 0.0189917 0.00504522 0.00729322 0.00111799 0.00712638 0.00211019 0.0221858 0.00266085 0.00897186 0.00342772 0.0266051 0.00283741 0.0198788 0.00413233 0.0311107 0.00380518 0.0256742 0.00597325 0.0474988
39 3 O 1.03845 8.11649 56.5533 -1.2 1 0.0293747 0.0177644 0.00499596 0.00667374 0.00113405 0.00698121 0.00171052 0.0222442 0.00318254 0.00825345 0.00175435 0.0262948 0.00356929 0.0185696 0.00251833 0.0316207 0.00416908 0.026085 0.0052881 0.0466347
40 3 O 1.28624 10.7248 52.7351 -1.2 1 0.111027 0.0367362 0.00174685 0.00824895 0.00245095 0.0102572 0.00307885 0.0232851 0.00339417 0.0127054 0.00330051 0.0269695 0.00440017 0.0215561 0.0042124 0.0318844 0.00425465 0.027957 0.00748297 0.0415734
41 3 O -0.224495 10.3631 55.9135 -1.2 1 0.0438882 0.0225006 0.00485982 0.00700369 0.00134807 0.00714471 0.00161608 0.0230185 0.00211802 0.0100506 0.00233035 0.0269441 0.00274842 0.0197981 0.00337029 0.0314115 0.0030729 0.0267079 0.00518243 0.0468024
42 3 O 2.23321 10.3862 55.7531 -1.2 1 0.0425481 0.0230249 0.00528906 0.00674546 0.00114821 0.00679319 0.00206718 0.0227874 0.00218778 0.00990748 0.00227398 0.0268571 0.00300518 0.0199957 0.00302097 0.0317464 0.00324436 0.026812 0.00553559 0.0462796
43 1 Mg -0.262694 9.34741 52.2523 1.2 1 0.1141 0.0397766 0.00232704 0.00863524 0.00314914 0.00859565 0.00288106 0.0234214 0.00347964 0.0126858 0.00308728 0.0269279 0.00332752 0.020911 0.0043083 0.0314627 0.0043482 0.0273821 0.00772367 0.0396268
44 1 Mg 1.87648 9.01537 49.4629 1.2 1 0.18392 0.0510229 0.00485336 0.0115857 0.00318737 0.0111321 0.00619917 0.0235602 0.0051741 0.0166394 0.00481973 0.0263038 0.00434896 0.0236325 0.00668645 0.0318754 0.00578827 0.0283954 0.0109302 0.0355418
45 2 Si 1.21415 11.3799 51.2378 2.4 1 0.146472 0.044927 0.00202397 0.0104091 0.00323699 0.0116697 0.00385279 0.0240694 0.00426563 0.0151762 0.00471169 0.0271744 0.004154 0.023991 0.00613323 0.032491 0.00488632 0.029358 0.0097441 0.0405338
46 3 O 1.31634 12.9512 51.3023 -1.2 1 0.145286 0.0423919 0.00256913 0.00979963 0.00269433 0.0123708 0.00346504 0.0243957 0.0046847 0.0151729 0.00358745 0.0285483 0.00442585 0.0241701 0.00474496 0.0328252 0.00510169 0.0296253 0.0086746 0.0412145
47 3 O 1.07356 10.3498 57.9555 -1.2 1 0.0160179 0.0115641 0.00287836 0.00672461 0.00103932 0.00731178 0.00170619 0.0229526 0.00210982 0.00852885 0.00296976 0.0273231 0.00289601 0.0194108 0.00334883 0.0309023 0.00346823 0.0257108 0.00427779 0.0484509
48 3 O -0.115718 10.7564 50.681 -1.2 1 0.1583 0.0457257 0.00337746 0.0113831 0.00369063 0.0113774 0.00426119 0.0242328 0.00445453 0.0149878 0.00371566 0.027463 0.00403631 0.0236092 0.00572285 0.0318531 0.00499701 0.0285862 0.0100198 0.0389353
49 1 Mg -3.26386 9.35564 52.3622 1.2 1 0.122403 0.0390388 0.000953936 0.00807478 0.002223 0.00993438 0.00379869 0.02306 0.00391982 0.0132059 0.00390762 0.0263883 0.00320969 0.0213096 0.0049334 0.0316513 0.00415853 0.0271331 0.00798745 0.0384918
50 3 O 2.45216 10.7265 50.4558 -1.2 1 0.159745 0.0463929 0.00349947 0.00981692 0.00278178 0.0117723 0.00487225 0.0240506 0.00479958 0.0161421 0.00453011 0.0268008 0.00372906 0.0238417 0.00667003 0.0325409 0.00541741 0.0288092 0.00987878 0.0387463
51 1 Mg -1.84532 9.54932 55.1419 1.2 1 0.0548673 0.0267067 0.0048655 0.00694776 0.00171955 0.0068896 0.0025986 0.0225823 0.00285243 0.0101001 0.00321106 0.0263832 0.00306431 0.0203006 0.00380694 0.0316936 0.00409365 0.0268291 0.00595026 0.0445895
52 2 Si -1.80388 7.38508 53.4428 2.4 1 0.0917492 0.034763 0.00314694 0.00713762 0.00317094 0.00712295 0.00298464 0.0218396 0.00350053 0.0118076 0.00261765 0.0255572 0.00295621 0.0200659 0.00313013 0.0306946 0.0044867 0.0254932 0.00680469 0.0401961
53 3 O -1.83518 5.9197 53.4646 -1.2 1 0.0930996 0.03303 0.00253604 0.00629698 0.00259205 0.00712526 0.00250284 0.0206078 0.00323076 0.0108393 0.00286244 0.0247048 0.00275993 0.0186863 0.00382593 0.0307176 0.00388146 0.02488 0.00711319 0.0388274
54 3 O -1.19417 8.46968 46.4488 -1.2 1 0.270172 0.0518399 0.0196003 0.0179044 0.00573045 0.0149218 0.00888173 0.0249539 0.00797826 0.0179539 0.00769671 0.0254339 0.0060008 0.0216723 0.00949281 0.0304277 0.0110209 0.0294646 0.013353 0.031349
55 3 O -3.08898 8.05623 54.0554 -1.2 1 0.0807396 0.0309395 0.00337844 0.00647386 0.00240747 0.00757376 0.00275256 0.0222459 0.0029845 0.011512 0.00244671 0.0254302 0.00311915 0.0198283 0.00349507 0.0316056 0.00441642 0.0260392 0.00707056 0.0410535
56 3 O -0.442093 8.1605 53.9041 -1.2 1 0.0801667 0.0310561 0.00366633 0.00673189 0.00282617 0.00673476 0.00195459 0.0227371 0.00272075 0.0114692 0.00243842 0.0254746 0.00307211 0.0203199 0.0031752 0.0309654 0.00414044 0.0265471 0.00623291 0.0423152
57 1 Mg -3.30063 16.6207 57.3829 1.2 1 0.0206041 0.0136328 0.00435863 0.00651262 0.00136743 0.00707174 0.00151848 0.0222036 0.00170554 0.00927143 0.00179705 0.0278418 0.0020797 0.0187651 0.00289253 0.0306575 0.00306611 0.0260934 0.0038707 0.0472546
58 1 Mg -1.6714 16.3544 49.8412 1.2 1 0.180315 0.0476431 0.00691099 0.0126951 0.00313941 0.0155902 0.00316491 0.0262406 0.0047657 0.0178149 0.00446204 0.0316839 0.00418434 0.025874 0.0063855 0.0340377 0.00598939 0.0316876 0.00952607 0.0407533
59 2 Si -1.18567 13.8526 47.9314 2.4 1 0.233434 0.0526021 0.0145864 0.0164834 0.00472522 0.0183476 0.00507433 0.0272602 0.00875332 0.0199986 0.00665825 0.0309222 0.00563202 0.0283172 0.00699879 0.0347935 0.0102231 0.0333278 0.0123481 0.0381741
60 3 O -1.09664 15.4205 47.9915 -1.2 1 0.231829 0.0518067 0.0143093 0.0169386 0.00519004 0.0197619 0.00419171 0.027415 0.00788148 0.0200058 0.00670044 0.0313918 0.00565553 0.0276495 0.00854182 0.0354145 0.00948852 0.0342815 0.0117981 0.0390377
61 3 O -1.73493 12.7491 51.7772 -1.2 1 0.134052 0.0403121 0.00193693 0.0104113 0.00320637 0.010783 0.00174316 0.0245028 0.00396604 0.0143794 0.00322752 0.0287285 0.00405006 0.0231645 0.00454155 0.0321968 0.00509852 0.0287786 0.0084229 0.0419585
62 3 O -2.36115 13.2717 48.8238 -1.2 1 0.205836 0.0519791 0.00961017 0.0138701 0.00487802 0.014708 0.00474678 0.0269401 0.00646636 0.0196945 0.00534299 0.0302333 0.0043969 0.0267673 0.00622499 0.0346469 0.00803099 0.0321692 0.011159 0.0381469
63 1 Mg -0.159928 11.7639 46.8533 1.2 1 0.257461 0.0523957 0.0183556 0.0180054 0.00579093 0.01974 0.00737018 0.0282762 0.00918385 0.0196516 0.00815828 0.0299342 0.00610632 0.0272249 0.00855135 0.0339371 0.0113735 0.0336756 0.0145568 0.0357009
64 3 O 0.2623 13.1866 48.413 -1.2 1 0.214874 0.0520743 0.0109596 0.0148341 0.00449071 0.0163431 0.004543 0.0266983 0.00734493 0.0188247 0.00532367 0.0296323 0.00510437 0.028067 0.00624114 0.0341979 0.00881104 0.0332684 0.0116475 0.0386909
65 1 Mg 1.36444 11.8668 54.5479 1.2 1 0.0744135 0.0305414 0.00328492 0.00684848 0.00186815 0.00822428 0.00224585 0.0222982 0.00252357 0.0117286 0.00189894 0.0274578 0.00359171 0.0216699 0.00314297 0.0315975 0.0037802 0.0263577 0.00579322 0.0439169
66 2 Si 1.1694 14.5105 56.4106 2.4 1 0.0318129 0.0187647 0.00534387 0.00723118 0.00107385 0.00739196 0.00224198 0.0223706 0.00165601 0.00930725 0.00311011 0.0273456 0.00277224 0.0203966 0.0044543 0.0307508 0.00364002 0.0265111 0.00573727 0.0490669
67 3 O 1.19535 12.9545 56.4062 -1.2 1 0.0347178 0.0195037 0.00494509 0.00714207 0.000941507 0.00684286 0.00190439 0.0223431 0.00326967 0.00916935 0.00184102 0.0273618 0.00320165 0.0196904 0.00292707 0.0312746 0.00464089 0.0264434 0.00485919 0.0486194
68 3 O 1.36565 15.4813 52.729 -1.2 1 0.111154 0.0366498 0.00145643 0.00857918 0.00214953 0.0116949 0.00296145 0.024415 0.00292584 0.0140661 0.003451 0.0293221 0.00405028 0.0226362 0.0050342 0.0320935 0.00379536 0.0291941 0.00732292 0.0437393
69 3 O -0.0296968 15.3219 55.8024 -1.2 1 0.0476655 0.0237641 0.00523438 0.00728657 0.0011295 0.00765801 0.00210416 0.0226057 0.0015507 0.0107033 0.00241461 0.0275131 0.00298836 0.0205485 0.00437227 0.0315196 0.00337442 0.0275727 0.00533284 0.0479453
70 3 O 2.49911 15.2609 55.7452 -1.2 1 0.0432806 0.0229429 0.00588704 0.00688306 0.00109458 0.0069914 0.00233738 0.0227508 0.00187629 0.0101842 0.00224805 0.0273833 0.00269413 0.0207407 0.00363599 0.0319136 0.00319874 0.02774 0.00544795 0.0479466
71 1 Mg -0.206989 14.1049 52.2121 1.2 1 0.117971 0.040396 0.00127217 0.00931697 0.00279784 0.0101049 0.00220196 0.0244874 0.00323102 0.0139029 0.00289384 0.0291227 0.00348275 0.0233057 0.00427498 0.0324973 0.00371834 0.0291986 0.00745983 0.0421895
72 1 Mg 1.82591 13.8102 49.4556 1.2 1 0.183956 0.051027 0.00566196 0.0114935 0.00331146 0.0139016 0.00438089 0.0248707 0.00522035 0.0182588 0.0047705 0.0295103 0.00442339 0.0266447 0.00640368 0.0348532 0.00637853 0.0317269 0.0107532 0.0390925
73 2 Si 1.29285 16.1518 51.2434 2.4 1 0.146936 0.0452427 0.00178526 0.010724 0.00248761 0.0131543 0.00379643 0.0252057 0.00380165 0.0161301 0.0046226 0.0293231 0.00437615 0.0253272 0.00618374 0.0327617 0.00441571 0.031244 0.00919347 0.0426621
74 3 O 1.39496 17.7199 51.3047 -1.2 1 0.142754 0.0428944 0.00217274 0.00980376 0.00215149 0.0128649 0.00360336 0.024426 0.00403754 0.0151047 0.00302503 0.0299334 0.00414899 0.0241226 0.00517651 0.0332134 0.00516336 0.0305376 0.00801913 0.0425613
75 3 O 1.25486 15.0386 57.9805 -1.2 1 0.0157173 0.0111497 0.00351065 0.00636575 0.00139277 0.00756503 0.00145968 0.0225338 0.00142134 0.00861108 0.00279337 0.0272429 0.00271674 0.0193609 0.00367371 0.0299254 0.0034565 0.02631 0.00438647 0.0482638
76 3 O -0.0269106 15.5178 50.6688 -1.2 1 0.158063 0.0457053 0.00388077 0.0114588 0.0033701 0.0135357 0.00354461 0.0254714 0.00420763 0.0161641 0.0030935 0.0299463 0.00391419 0.025629 0.00555757 0.0329339 0.00426623 0.0312001 0.00860207 0.0415922
77 1 Mg -3.18391 14.1057 52.3125 1.2 1 0.122999 0.0395454 0.00133445 0.00905685 0.00200011 0.0117679 0.00246234 0.0242117 0.00350136 0.0144925 0.00293789 0.0291842 0.00342578 0.0237549 0.00425326 0.031746 0.0039274 0.0288769 0.00717084 0.0418908
78 3 O 2.52432 15.503 50.4579 -1.2 1 0.159656 0.0470978 0.00397585 0.0102086 0.00223318 0.0136878 0.00371561 0.0255801 0.004168 0.0177493 0.00347678 0.0297319 0.00408601 0.0260858 0.00561711 0.0332748 0.00523078 0.030851 0.00869289 0.0412226
79 1 Mg -1.74445 14.2275 55.0409 1.2 1 0.0576162 0.0274694 0.00455883 0.00749966 0.0014591 0.00744122 0.00223487 0.0229714 0.00252696 0.0110942 0.00340547 0.0280476 0.00266012 0.0213914 0.00395261 0.0317225 0.00392431 0.0278797 0.00587166 0.0464992
80 2 Si -1.74094 12.1432 53.2638 2.4 1 0.0997654 0.0358783 0.00231874 0.00846415 0.00273938 0.00905808 0.00204881 0.0237696 0.00384279 0.012882 0.00252007 0.0275623 0.0036839 0.02276 0.00328797 0.0318881 0.00431848 0.027921 0.00655713 0.0438748
81 3 O -1.81878 10.5613 53.2613 -1.2 1 0.0956774 0.0342829 0.00267458 0.00778056 0.0030104 0.00867094 0.00184355 0.0226426 0.00337549 0.011489 0.00275858 0.0268078 0.00289874 0.0208033 0.00350454 0.0317849 0.00424464 0.0269334 0.00739121 0.0432359
82 3 O -1.21337 13.3381 46.4311 -1.2 1 0.271483 0.0519068 0.0207737 0.0197922 0.00639405 0.0208454 0.00723324 0.0301904 0.0095074 0.0207247 0.00720284 0.0314171 0.00604946 0.0266199 0.00914177 0.0359804 0.0131131 0.0357047 0.0147195 0.0359654
83 3 O -2.941 12.8358 54.0404 -1.2 1 0.0843516 0.0322345 0.00268745 0.00721417 0.0019843 0.00918825 0.00187924 0.0231889 0.00273444 0.0124694 0.00216179 0.0273407 0.00313121 0.0222485 0.00283333 0.0320711 0.00359031 0.0273897 0.00589418 0.044522
84 3 O -0.367846 12.8202 53.8062 -1.2 1 0.0838058 0.0323176 0.00255035 0.00743506 0.00258273 0.00766007 0.00174518 0.0238758 0.00299612 0.0121111 0.00209753 0.0275851 0.00330855 0.0224188 0.0032691 0.0318757 0.00370789 0.0277645 0.00570116 0.0449349
85 1 Mg -3.04569 21.0552 57.4787 1.2 1 0.0197156 0.0136461 0.00493862 0.00631756 0.00140434 0.00657566 0.0015718 0.0222798 0.00188232 0.00935864 0.00145082 0.0274157 0.00197033 0.0187617 0.00282829 0.0307606 0.00307683 0.0257843 0.00419987 0.0463159
86 1 Mg -1.5831 21.1217 49.8405 1.2 1 0.179608 0.0477985 0.00668094 0.0126251 0.00286118 0.0158744 0.00315436 0.0262545 0.00419751 0.0177457 0.00478238 0.0311463 0.00413925 0.0258378 0.00601733 0.0342965 0.0056516 0.0320199 0.00938617 0.0408218
87 2 Si -1.09384 18.6291 47.9287 2.4 1 0.230889 0.0533117 0.0133924 0.0172796 0.00340831 0.0204952 0.00399331 0.0281837 0.00730766 0.0204613 0.00623159 0.0327922 0.00590197 0.0289198 0.00599019 0.0352365 0.00900653 0.0346294 0.0108775 0.0408211
88 3 O -1.02071 20.1985 47.9911 -1.2 1 0.231542 0.0529601 0.0136382 0.017721 0.00396599 0.0209493 0.00391222 0.0279407 0.00688022 0.0205248 0.00635221 0.0325019 0.00580315 0.0282626 0.00723957 0.0354278 0.00880855 0.0349313 0.0104857 0.0403858
89 3 O -1.65002 17.5002 51.771 -1.2 1 0.134728 0.0408568 0.00207383 0.0102735 0.00285576 0.0123099 0.00177032 0.0248671 0.00265219 0.0148267 0.00287653 0.0298037 0.00405262 0.0238044 0.0042558 0.0327203 0.00466162 0.0295576 0.00785118 0.0428638
90 3 O -2.26174 18.0434 48.8281 -1.2 1 0.205199 0.0529256 0.00867095 0.0146092 0.00357743 0.0172427 0.00346477 0.027819 0.00568063 0.0201144 0.00464556 0.0322087 0.00431859 0.0274791 0.00559988 0.0351709 0.00739759 0.0339254 0.0096846 0.0407273
91 1 Mg -0.0440435 16.5651 46.8269 1.2 1 0.255307 0.0533529 0.0178134 0.019308 0.00441663 0.0241238 0.00513727 0.0309965 0.00921474 0.0221367 0.00692336 0.0340182 0.00643679 0.0291873 0.00813646 0.0355782 0.0104548 0.0371467 0.0126688 0.0399346
92 3 O 0.37001 17.9877 48.3925 -1.2 1 0.21384 0.0527999 0.0102847 0.015525 0.00375631 0.0182401 0.00342362 0.028051 0.00611418 0.0197355 0.00444768 0.0319033 0.00505425 0.0287936 0.00587149 0.0347057 0.00787498 0.0350326 0.0102396 0.0414551
93 1 Mg 1.40944 16.5165 54.5275 1.2 1 0.072634 0.0302116 0.00375087 0.00703377 0.00155798 0.0084596 0.00235245 0.0225724 0.0022208 0.0120485 0.00204517 0.0286726 0.00333217 0.0219124 0.00337694 0.0322323 0.00334988 0.0273689 0.00545588 0.0451694
94 2 Si 1.26508 19.2544 56.49 2.4 1 0.0305494 0.0183071 0.00570118 0.0071415 0.000854929 0.00662261 0.00232997 0.02179 0.00168443 0.00901979 0.00255842 0.0267924 0.00293205 0.0197051 0.00443925 0.0310745 0.00299343 0.0258902 0.00508045 0.0478914
95 3 O 1.19638 17.6774 56.553 -1.2 1 0.028893 0.0174283 0.00547976 0.00699844 0.00117169 0.0068248 0.00205829 0.0223393 0.00280259 0.00896714 0.00181129 0.0272369 0.00281355 0.018883 0.00305478 0.0310475 0.00395445 0.0265396 0.00434636 0.0482505
96 3 O 1.45147 20.239 52.7294 -1.2 1 0.111132 0.0374427 0.00160185 0.00840327 0.00160529 0.0116465 0.00312783 0.0246513 0.00251656 0.0142312 0.00310361 0.0291916 0.00394928 0.0231117 0.00495444 0.0320166 0.00370326 0.029387 0.00693182 0.0435084
97 3 O -0.0403449 19.9538 56.023 -1.2 1 0.0394314 0.0214526 0.00603579 0.00702137 0.000919977 0.00667946 0.0021213 0.0227261 0.00151714 0.00976691 0.00214173 0.0269908 0.0024432 0.0198155 0.00410301 0.0315623 0.00344654 0.0268285 0.00589275 0.0473342
98 3 O 2.57101 19.834 55.7175 -1.2 1 0.0415328 0.0227525 0.00616355 0.00687222 0.000746183 0.00663497 0.00200061 0.0226177 0.00180175 0.00994806 0.0016152 0.0269335 0.00251369 0.0200836 0.00283275 0.0318675 0.00293981 0.0271326 0.0051266 0.0464211
99 1 Mg -0.126194 18.8651 52.2079 1.2 1 0.116056 0.0407531 0.00192758 0.00903378 0.00241031 0.0104655 0.00206351 0.0246643 0.00240588 0.0144927 0.00281209 0.0298972 0.00327705 0.0232591 0.0042438 0.0324981 0.00410438 0.0299698 0.00748301 0.0427702
100 1 Mg 1.92402 18.5815 49.4545 1.2 1 0.182015 0.0518585 0.00459925 0.011953 0.00202803 0.0150892 0.00387489 0.0263205 0.00428329 0.0188378 0.00399751 0.0313823 0.00449318 0.0270677 0.00498988 0.0349299 0.00588596 0.0329848 0.00947194 0.0416596
101 2 Si 1.38106 20.9117 51.2443 2.4 1 0.14365 0.0452294 0.0018426 0.0104538 0.00217597 0.0132516 0.00364001 0.0256342 0.00340983 0.0163011 0.0037681 0.0291321 0.0038944 0.0251248 0.00486076 0.0325837 0.00444968 0.0314446 0.00844662 0.0426218
102 3 O 1.48527 22.4795 51.3054 -1.2 1 0.144483 0.043837 0.0026385 0.00943408 0.00189966 0.012941 0.0036457 0.0246289 0.00370471 0.0157991 0.00291128 0.0296569 0.00406634 0.0248705 0.00447287 0.0331106 0.00521305 0.0306871 0.00735259 0.0421043
103 3 O 1.41974 19.8459 58.0741 -1.2 1 0.0152866 0.0111141 0.00383319 0.00638016 0.00147458 0.0068075 0.00156087 0.0228057 0.00154856 0.00880107 0.00200683 0.0266481 0.00213224 0.0193301 0.00342333 0.0301163 0.0029391 0.0257762 0.00422909 0.0476213
104 3 O 0.0615419 20.2804 50.6669 -1.2 1 0.156671 0.0459582 0.00351764 0.0112711 0.0030683 0.013966 0.00364942 0.0252447 0.00355486 0.0160479 0.00305049 0.0298912 0.00401577 0.0257204 0.00497004 0.03332 0.00433733 0.0315066 0.0084806 0.0421978
105 1 Mg -3.09665 18.8643 52.3122 1.2 1 0.122755 0.0401508 0.0013871 0.00880491 0.00161269 0.0118315 0.00247089 0.0242893 0.00262885 0.0147214 0.00271501 0.0296965 0.00348566 0.0237067 0.00343233 0.0324209 0.00409728 0.0293137 0.00721821 0.0423554
106 3 O 2.61548 20.2646 50.4626 -1.2 1 0.159606 0.0478966 0.00345884 0.0103617 0.00136057 0.0141443 0.00362795 0.0253778 0.00353073 0.0172082 0.00345482 0.0298375 0.00392454 0.0260831 0.00493577 0.0335893 0.00460217 0.0314659 0.00836585 0.0419264
107 1 Mg -1.66784 18.776 55.1661 1.2 1 0.0536317 0.0265954 0.00555113 0.0069776 0.00168487 0.00720859 0.0021956 0.0232374 0.0020493 0.0109494 0.00222545 0.0281028 0.00219843 0.0209862 0.00386002 0.0318158 0.00392398 0.0275333 0.00527721 0.0458506
108 2 Si -1.67589 16.8734 53.225 2.4 1 0.0990459 0.0356989 0.0022475 0.00866867 0.00266133 0.00927039 0.00178876 0.0237323 0.00307243 0.0130573 0.00225053 0.0285961 0.00311826 0.022781 0.00355885 0.0323199 0.00393298 0.0289822 0.00675248 0.0446873
109 3 O -1.69786 15.3051 53.0816 -1.2 1 0.0991024 0.0353594 0.00263033 0.00876363 0.00248451 0.00961125 0.00171307 0.0234567 0.00286369 0.0124507 0.0024637 0.0288715 0.0030723 0.0221394 0.00421985 0.0319444 0.00378724 0.0284537 0.0074457 0.0447526
110 3 O -1.12868 18.1227 46.4249 -1.2 1 0.268878 0.0538337 0.0198609 0.0208523 0.00495231 0.0242678 0.00581695 0.0316461 0.00799918 0.021915 0.00649871 0.0344776 0.00676459 0.0272163 0.00894644 0.0375457 0.0120892 0.038038 0.0135225 0.0399483
111 3 O -3.00675 17.5017 53.8812 -1.2 1 0.0853515 0.0329872 0.00331954 0.00721653 0.00201112 0.00973761 0.00177357 0.0236506 0.00210907 0.0124211 0.00198856 0.0280108 0.00288494 0.0222418 0.00297825 0.0321946 0.00399628 0.0283853 0.00596241 0.0446362
112 3 O -0.348732 17.5829 53.8294 -1.2 1 0.082529 0.032113 0.00319313 0.00730243 0.00271359 0.00784099 0.00138868 0.0239699 0.00205759 0.0122942 0.00210625 0.0279204 0.00290644 0.0225046 0.0033916 0.0322322 0.00349163 0.0286251 0.00631301 0.0448075
113 1 Mg -3.14113 25.9243 57.4656 1.2 1 0.0195887 0.0138064 0.00489995 0.00546126 0.000916712 0.00650065 0.00149724 0.0222696 0.0019528 0.00901799 0.00198925 0.0258565 0.0019167 0.0194444 0.00264613 0.0312094 0.0028937 0.0252875 0.00408851 0.045519
114 1 Mg -1.48778 25.88 49.8402 1.2 1 0.179199 0.0477026 0.00649576 0.0127197 0.00342157 0.0155775 0.00310262 0.026304 0.00433227 0.0178227 0.00483497 0.0307417 0.00383209 0.0260274 0.00618082 0.0345099 0.00542772 0.0323306 0.00916152 0.0407199
115 2 Si -1.00491 23.3922 47.9274 2.4 1 0.233149 0.0537554 0.0145785 0.0176494 0.00343911 0.02138 0.00431701 0.0281845 0.00730696 0.0202722 0.00613934 0.0322928 0.00585186 0.0286933 0.00672668 0.0354334 0.00901076 0.0350176 0.0114271 0.0405354
116 3 O -0.927602 24.9615 47.9909 -1.2 1 0.229459 0.052603 0.0139808 0.017249 0.00429018 0.0208306 0.00436124 0.0281659 0.00685206 0.020095 0.00631201 0.0318989 0.00575663 0.0279639 0.00773521 0.0357027 0.00836797 0.0350855 0.0109879 0.0404084
117 3 O -1.55795 22.2588 51.7696 -1.2 1 0.133299 0.0411554 0.00178729 0.0100903 0.00269718 0.0122848 0.001783 0.0245727 0.00248633 0.014908 0.00298817 0.0293799 0.00371822 0.0239226 0.00381013 0.032731 0.00531631 0.0293181 0.00728975 0.0424097
118 3 O -2.17411 22.8111 48.8277 -1.2 1 0.205811 0.0531619 0.00923607 0.0147725 0.00331574 0.0176089 0.00416286 0.0277984 0.00535498 0.0199215 0.00465011 0.0318567 0.00474557 0.0277736 0.00587574 0.0350414 0.00680553 0.0340217 0.00975884 0.0405021
119 1 Mg 0.0423997 21.3296 46.8225 1.2 1 0.254713 0.0536644 0.017473 0.0200549 0.00383032 0.0248493 0.00571198 0.0310946 0.00779516 0.0223808 0.00685953 0.0342582 0.00642828 0.0290581 0.00777873 0.0354919 0.0096733 0.0373968 0.0122446 0.0401631
120 3 O 0.458537 22.7495 48.3911 -1.2 1 0.218478 0.0541001 0.010774 0.0163124 0.00370028 0.0190875 0.00385043 0.0285986 0.00638113 0.0200568 0.00474021 0.031731 0.00532132 0.0289538 0.00586489 0.0347284 0.00814768 0.036067 0.0103942 0.041152