ITEM: TIMESTEP
10500
ITEM: NUMBER OF ATOMS
10500
ITEM: BOX BOUNDS xy xz yz pp pp pp
0	8.9688	2.9896
0	118.725	0
0	252.977	0
ITEM: ATOMS id type element xu yu zu q Q_1 Q_2 Q_3 Q_4 Q_5 Q_6 Q_7 Q_8 Q_9 Q_10 Q_11 Q_12 Q_13 Q_14 Q_15 Q_16 Q_17 Q_18 Q_19 Q_20 Q_21
1 1 Mg -3.28665 7.12097 57.3765 1.2 1 0.0226525 0.0141391 0.00527654 0.0058294 0.00155482 0.00585728 0.0010935 0.0236875 0.00171652 0.00953298 0.0015893 0.0297154 0.00252669 0.0205546 0.00220122 0.0343305 0.00260654 0.0250095 0.0042211 0.0506117
2 1 Mg -1.82655 6.90154 50.0912 1.2 1 0.174885 0.0477977 0.00645911 0.00944022 0.00313109 0.00849252 0.00460648 0.0233611 0.00472071 0.0145981 0.0047079 0.0261407 0.00451404 0.0206002 0.0067941 0.0298986 0.00585498 0.0255098 0.00922001 0.0355241
3 2 Si -0.257935 3.96038 48.0876 2.4 1 0.225557 0.0537209 0.0124205 0.0121459 0.00266813 0.00936719 0.00365846 0.0203061 0.00590673 0.0172127 0.00422527 0.0246736 0.00539345 0.020079 0.0060781 0.0271381 0.00700677 0.0250243 0.00916784 0.0324663
4 3 O -0.335812 5.46814 47.6264 -1.2 1 0.233123 0.0531494 0.0143128 0.0130677 0.00322514 0.0104784 0.00491773 0.0211503 0.00649412 0.0177653 0.00468189 0.0252142 0.00499421 0.0206898 0.00594037 0.027334 0.00765392 0.0256416 0.00970475 0.0311414
5 3 O -2.03793 3.43377 51.8941 -1.2 1 0.129142 0.0411794 0.00224334 0.0067295 0.00227835 0.00663468 0.00271242 0.0208465 0.00264373 0.0118751 0.00325422 0.0259146 0.00375854 0.0180005 0.00411656 0.030014 0.00543114 0.0240464 0.00804305 0.0385988
6 3 O -1.54015 3.53929 48.9521 -1.2 1 0.20203 0.0522853 0.00918081 0.0106332 0.00294378 0.00824243 0.00360432 0.0203847 0.00532895 0.015307 0.00460405 0.0241088 0.00421869 0.0195281 0.00638645 0.0280843 0.00563712 0.0244986 0.00904561 0.0327938
7 1 Mg 1.82954 2.54582 47.1376 1.2 1 0.245479 0.0532529 0.0165688 0.0152368 0.00317032 0.0108936 0.00333097 0.0201793 0.00560382 0.0160353 0.00458637 0.0242246 0.0059181 0.0188887 0.00749215 0.0257099 0.00662324 0.0236428 0.00869944 0.0304063
8 3 O 1.22989 3.66364 48.7877 -1.2 1 0.204725 0.0507983 0.00968718 0.0117528 0.00226582 0.00934019 0.00389968 0.0204982 0.00423392 0.0150765 0.00389658 0.0243439 0.00471796 0.0193235 0.00622249 0.0273635 0.00475662 0.0243452 0.00891194 0.0335227
9 1 Mg 1.08741 2.3237 54.5676 1.2 1 0.069534 0.0292727 0.00479094 0.00498611 0.00178435 0.00524148 0.00261395 0.0216999 0.00275428 0.0101325 0.00284583 0.0272207 0.00391758 0.0199362 0.00404689 0.0330157 0.00357112 0.0245509 0.00682177 0.0448674
10 2 Si 1.06593 5.0007 56.4226 2.4 1 0.0340299 0.0196931 0.00649039 0.006024 0.00143105 0.00610912 0.00210944 0.0229408 0.00181471 0.00911433 0.00349163 0.0277549 0.00283243 0.0204169 0.00425732 0.0340159 0.00293641 0.0251375 0.00640003 0.0502186
11 3 O 1.04728 3.44305 56.583 -1.2 1 0.0347128 0.019144 0.00590676 0.00552486 0.00147562 0.00553164 0.00204188 0.0226176 0.00250328 0.0087036 0.00212827 0.0287546 0.00283744 0.0196156 0.00311741 0.0337523 0.0036283 0.0255115 0.00537292 0.0492787
12 3 O 1.10813 6.07342 52.8172 -1.2 1 0.106435 0.0366457 0.00227132 0.00624484 0.00220875 0.00657245 0.00345026 0.0230168 0.0033906 0.0114783 0.00333074 0.0267336 0.0041226 0.0192696 0.00467079 0.0314853 0.00464472 0.0249957 0.00718197 0.0412457
13 3 O -0.189886 5.71049 55.8044 -1.2 1 0.0469257 0.0237728 0.00598227 0.00536453 0.00153501 0.00520645 0.00230277 0.0228895 0.00210886 0.0100808 0.0026144 0.0281495 0.00288024 0.0198578 0.00402404 0.0338263 0.00289227 0.0253683 0.0060753 0.0484093
14 3 O 2.32028 5.72577 55.659 -1.2 1 0.0443766 0.0236965 0.00635842 0.0052734 0.00143684 0.00579288 0.00199353 0.0230374 0.00150727 0.00952932 0.00273208 0.0283567 0.0030359 0.0203956 0.00396532 0.0343816 0.00298903 0.0256455 0.00608216 0.0481446
15 1 Mg -0.459401 4.67631 52.2426 1.2 1 0.123239 0.0409041 0.00230639 0.00633459 0.00246582 0.00637246 0.00261653 0.0216882 0.00318018 0.012467 0.00283489 0.026759 0.00398145 0.0191589 0.00450952 0.0304943 0.00451103 0.0242367 0.00733446 0.0386378
16 1 Mg 2.79456 3.9971 49.9987 1.2 1 0.176381 0.0501123 0.00599132 0.00956954 0.00273133 0.00779064 0.00461887 0.0210335 0.00335983 0.0150588 0.00303548 0.0247814 0.00454398 0.0200478 0.00648892 0.0289393 0.00463434 0.0247442 0.0096172 0.0342993
17 2 Si 1.16169 6.59457 51.2556 2.4 1 0.147617 0.046097 0.00264269 0.0083736 0.00247578 0.00804907 0.00432364 0.0227134 0.00438206 0.0137713 0.00461488 0.0256865 0.00443031 0.0206381 0.0069662 0.0310743 0.00446305 0.0258297 0.00930104 0.0379566
18 3 O 1.28989 8.18905 51.2909 -1.2 1 0.144511 0.0444762 0.00259198 0.00857942 0.00246779 0.00860135 0.00419377 0.0233031 0.00444013 0.0132411 0.00400336 0.0275532 0.00383758 0.0210635 0.00509855 0.031182 0.00548264 0.0262238 0.00862379 0.0396468
19 3 O 1.09684 5.67426 57.8746 -1.2 1 0.0182326 0.0116589 0.00408922 0.00609285 0.00149851 0.00609585 0.00123138 0.0232282 0.00156365 0.00871418 0.00232227 0.0291609 0.00236641 0.0203769 0.00279632 0.0348497 0.00262333 0.0255526 0.00373189 0.0519375
20 3 O -0.184847 6.06029 50.6845 -1.2 1 0.161097 0.0457264 0.00507158 0.00868484 0.00328702 0.00782768 0.00426906 0.0224473 0.00445814 0.0141817 0.00330683 0.025478 0.00416851 0.0201843 0.00587388 0.0292323 0.00508587 0.025056 0.00874553 0.0371831
21 1 Mg -3.49704 4.67769 52.6661 1.2 1 0.113897 0.0381814 0.00179783 0.00591714 0.00231296 0.00673371 0.00302064 0.0213327 0.00362108 0.01161 0.00374674 0.0262721 0.00366501 0.0191105 0.00421333 0.030338 0.00416238 0.0239307 0.00774737 0.0397687
22 3 O 2.48581 5.93312 50.6539 -1.2 1 0.156706 0.0470711 0.00393565 0.00770202 0.0017927 0.00842878 0.00421758 0.0223438 0.00435694 0.0142064 0.00415524 0.0252826 0.00441555 0.020849 0.00586063 0.0302886 0.00462579 0.0254734 0.00910564 0.0366318
23 1 Mg -1.85358 4.74095 55.2171 1.2 1 0.0520593 0.0261429 0.00637967 0.00542431 0.00175762 0.00532554 0.00223413 0.022676 0.00313164 0.00985475 0.00341976 0.0284945 0.00269865 0.0201441 0.0041823 0.0335662 0.00392149 0.0252759 0.00657872 0.0469488
24 2 Si -1.85721 2.6826 53.2814 2.4 1 0.101891 0.0360193 0.00291026 0.0057655 0.00283792 0.00576172 0.00212778 0.0212425 0.00293037 0.0112662 0.00301167 0.0261525 0.00346729 0.0192705 0.00333624 0.0309581 0.0046544 0.0242491 0.00705004 0.0411421
25 3 O -1.93707 1.10789 53.09 -1.2 1 0.102106 0.0365946 0.0028824 0.00620437 0.00290946 0.00576969 0.0025667 0.0213657 0.00297306 0.0105325 0.00311309 0.026318 0.00380959 0.0187103 0.00467568 0.031242 0.00385765 0.0243366 0.00741314 0.0408063
26 3 O -0.0467762 2.97103 46.8385 -1.2 1 0.252585 0.053938 0.0174907 0.0145098 0.0029883 0.00977181 0.0036651 0.019751 0.00635312 0.0172305 0.0058147 0.0239267 0.00688216 0.0184673 0.00868096 0.0258157 0.00672023 0.0240346 0.00992911 0.0314213
27 3 O -3.11454 3.31386 54.0974 -1.2 1 0.0801484 0.0313306 0.00393575 0.00470097 0.00208396 0.00556652 0.00175761 0.0215989 0.0027653 0.0108548 0.00235831 0.0263072 0.00287565 0.0193483 0.00359232 0.0321815 0.00339458 0.0241969 0.0066058 0.0433425
28 3 O -0.584614 3.32049 53.9748 -1.2 1 0.0829638 0.0326933 0.00435843 0.00498801 0.00240641 0.00579432 0.00169556 0.0218822 0.0023164 0.0109677 0.00218338 0.0266138 0.00336045 0.0197896 0.00333898 0.0321699 0.00341906 0.0249107 0.00666843 0.0431953
29 1 Mg -3.20062 11.8615 57.368 1.2 1 0.0222236 0.0136429 0.00515975 0.0060839 0.00107034 0.00561878 0.00139286 0.0244507 0.00195686 0.00964699 0.00152835 0.0304018 0.00223155 0.020655 0.00258945 0.0338271 0.00242607 0.0250409 0.00358978 0.0519082
30 1 Mg -1.75014 11.5838 49.8362 1.2 1 0.183619 0.0480639 0.00733757 0.0121347 0.00429594 0.0122883 0.00484911 0.024874 0.00571373 0.0155749 0.00522832 0.0292442 0.00415607 0.0240633 0.00678094 0.0326866 0.00675932 0.0283042 0.00981241 0.0385439
31 2 Si -1.18003 9.02138 47.9309 2.4 1 0.238808 0.0517769 0.0153956 0.0149228 0.00516796 0.0127549 0.00791913 0.0233727 0.00823509 0.017114 0.00705299 0.0266514 0.00501897 0.0226258 0.00723856 0.0301632 0.00916696 0.027663 0.0120472 0.0342927
32 3 O -1.23224 10.5991 47.9811 -1.2 1 0.228771 0.0525926 0.0132488 0.0152967 0.00529392 0.0138688 0.00672012 0.0245788 0.0081457 0.0171753 0.00701186 0.028099 0.00540347 0.0238132 0.00848054 0.0323641 0.00916976 0.0296402 0.0110855 0.0352303
33 3 O -1.79016 8.01447 51.8693 -1.2 1 0.132687 0.0412303 0.00210463 0.00799308 0.00330922 0.00706668 0.0032651 0.0230621 0.00375401 0.0124383 0.00371032 0.0277797 0.00367804 0.0202242 0.0048686 0.0314569 0.00549073 0.0249744 0.0087851 0.0402273
34 3 O -2.30986 8.37215 48.8528 -1.2 1 0.204644 0.0526559 0.0096543 0.0117599 0.00409706 0.0101498 0.00645348 0.023876 0.00633294 0.0169731 0.00493614 0.0267429 0.0041952 0.0227207 0.00614034 0.0310117 0.0068929 0.0272712 0.00982395 0.0344668
35 1 Mg 0.154883 7.08234 46.8007 1.2 1 0.258171 0.0528265 0.0184179 0.0155042 0.00551975 0.0130554 0.00875378 0.0239348 0.00792865 0.0177831 0.00708497 0.0253659 0.00696917 0.0215094 0.00872012 0.0290697 0.0100177 0.0276226 0.0125966 0.0315094
36 3 O 0.325447 8.50934 48.3809 -1.2 1 0.216215 0.0530209 0.0112016 0.0133629 0.00419233 0.0118001 0.00651921 0.024327 0.00660819 0.0169903 0.00569206 0.0263787 0.00472603 0.0234842 0.00610812 0.0300264 0.00743468 0.0280373 0.0105707 0.0342963
37 1 Mg 1.25522 7.11927 54.6131 1.2 1 0.068395 0.0297286 0.00467281 0.00547079 0.00186786 0.00549171 0.00251821 0.0226505 0.00274242 0.010477 0.00299481 0.027972 0.00372683 0.0206122 0.00371512 0.0332911 0.00375672 0.0244719 0.00661931 0.0457987
38 2 Si 1.22126 9.81169 56.4153 2.4 1 0.0336454 0.0194327 0.00622645 0.00668074 0.001184 0.00551252 0.00234479 0.023625 0.00232698 0.00908411 0.00358772 0.0285468 0.00247016 0.0214749 0.00418339 0.0338965 0.00314061 0.0245694 0.00636817 0.0516384
39 3 O 1.17295 8.25034 56.5735 -1.2 1 0.0309525 0.0178751 0.00590914 0.00586016 0.00106137 0.00554042 0.00194425 0.0235569 0.00269841 0.00848422 0.00234118 0.0290602 0.00282532 0.0199737 0.003424 0.0339422 0.00364799 0.0249195 0.005653 0.0505538
40 3 O 1.28624 10.7248 52.7351 -1.2 1 0.110444 0.0373822 0.00181836 0.00741214 0.00235258 0.00897355 0.00315331 0.02421 0.00327503 0.0117005 0.00407939 0.0288011 0.00455026 0.021687 0.00501678 0.0326689 0.00400043 0.026221 0.00739383 0.0435293
41 3 O -0.0521307 10.5039 55.7558 -1.2 1 0.0485055 0.0238682 0.00548766 0.00624733 0.0013105 0.00588511 0.00206545 0.0238707 0.00190775 0.00996687 0.00230202 0.028692 0.00309692 0.0211255 0.00342075 0.0341287 0.00299328 0.0254542 0.00581198 0.049779
42 3 O 2.49331 10.483 55.7286 -1.2 1 0.0450384 0.023726 0.00659711 0.00625653 0.00127647 0.00550455 0.00212157 0.0237438 0.00231919 0.00976902 0.00261684 0.0288212 0.00297882 0.021147 0.00354879 0.0343684 0.00279058 0.0255944 0.00572641 0.0500522
43 1 Mg -0.262694 9.34741 52.2523 1.2 1 0.113593 0.0405282 0.00249551 0.00767017 0.00273126 0.00733683 0.00275493 0.0242361 0.00334466 0.0120106 0.00368143 0.0285793 0.00366553 0.0211019 0.0052122 0.032278 0.00438121 0.0261777 0.00816202 0.0416259
44 1 Mg 1.87648 9.01537 49.4629 1.2 1 0.184028 0.0524185 0.00594518 0.0107329 0.00300494 0.010194 0.00647175 0.0236447 0.00539481 0.0160043 0.00490129 0.0273727 0.00472966 0.0232045 0.00631109 0.0316075 0.00545847 0.0277286 0.0103743 0.0363097
45 2 Si 1.21415 11.3799 51.2378 2.4 1 0.148579 0.0464778 0.00193802 0.00998298 0.00290811 0.010407 0.00404115 0.0246744 0.00454404 0.0143526 0.00500122 0.0280294 0.00419813 0.023999 0.00584839 0.0326591 0.00468642 0.0281536 0.00948085 0.0415314
46 3 O 1.31634 12.9512 51.3023 -1.2 1 0.147208 0.0445662 0.00266784 0.00972977 0.00267996 0.0113131 0.00358689 0.0247777 0.0048102 0.0142465 0.00350804 0.0295935 0.00444264 0.0247629 0.00431486 0.0332975 0.00527432 0.0284716 0.00805706 0.042395
47 3 O 1.22596 10.4609 57.9339 -1.2 1 0.0179182 0.0109773 0.0039685 0.00623831 0.00101237 0.00586224 0.0014803 0.0243763 0.00182375 0.00893904 0.00250126 0.0297734 0.00217273 0.0207171 0.00296041 0.0340971 0.00246437 0.024639 0.00367155 0.0524623
48 3 O -0.115718 10.7564 50.681 -1.2 1 0.154179 0.0458613 0.00347906 0.0102256 0.00329922 0.00996715 0.00404197 0.0246795 0.00435986 0.0139167 0.00389782 0.0282403 0.00445702 0.022977 0.00632225 0.0321165 0.00503963 0.0273231 0.00941103 0.0403264
49 1 Mg -3.26386 9.35564 52.3622 1.2 1 0.12224 0.0396134 0.00156712 0.00732601 0.00229236 0.00874255 0.00398229 0.0237764 0.00376267 0.0124302 0.00407491 0.0282528 0.00339715 0.0211225 0.00460442 0.0323438 0.00440899 0.0259339 0.00817222 0.0405421
50 3 O 2.45216 10.7265 50.4558 -1.2 1 0.161893 0.0481471 0.00370239 0.00961417 0.00272887 0.0107391 0.005009 0.0242387 0.0050266 0.0154553 0.00439008 0.0279786 0.00397288 0.0240104 0.0059254 0.0324956 0.00518236 0.027872 0.00919138 0.0396288
51 1 Mg -1.74169 9.54507 55.1597 1.2 1 0.0552233 0.0266247 0.00563022 0.0060355 0.00185113 0.00556738 0.00270967 0.0238428 0.00281537 0.00977403 0.00325882 0.028854 0.0030461 0.0210302 0.00405675 0.0336452 0.00405065 0.0253407 0.00667346 0.0480799
52 2 Si -1.80039 7.35657 53.3571 2.4 1 0.0951514 0.0360578 0.00309764 0.00633165 0.00299338 0.00618839 0.00280289 0.022869 0.00394195 0.0115045 0.00328205 0.0273915 0.00290582 0.020589 0.00340758 0.0321151 0.00466539 0.0246365 0.0068447 0.0433954
53 3 O -1.81587 5.81447 53.3017 -1.2 1 0.0970719 0.0343674 0.00237245 0.00549916 0.00244178 0.00600227 0.00226935 0.0218891 0.00375649 0.0107988 0.0032902 0.0269139 0.00290354 0.0192005 0.00401877 0.0322603 0.00378312 0.0245331 0.00710742 0.0421017
54 3 O -1.19417 8.46968 46.4488 -1.2 1 0.270435 0.0531103 0.0210443 0.0173266 0.00556975 0.0141993 0.00919352 0.025001 0.0083254 0.0175778 0.00762643 0.0258449 0.00633969 0.0212714 0.00934034 0.0302334 0.0104239 0.0292964 0.0118292 0.0313079
55 3 O -3.08277 8.02867 53.9768 -1.2 1 0.0827131 0.0311724 0.00333648 0.00555836 0.0020556 0.0067093 0.00254421 0.0228774 0.00277569 0.0109669 0.00262648 0.0272666 0.00281281 0.0204452 0.00345759 0.032845 0.0042687 0.0246018 0.00704843 0.0444667
56 3 O -0.479531 8.06062 53.9606 -1.2 1 0.0776664 0.0322179 0.00477647 0.00569741 0.00246282 0.00534244 0.00168988 0.023118 0.00266747 0.0105311 0.0025872 0.0276895 0.00281471 0.0203429 0.00382924 0.0331969 0.00397711 0.0253073 0.00711953 0.0451444
57 1 Mg -3.13373 16.4834 57.4499 1.2 1 0.0212405 0.0134676 0.00510827 0.00631217 0.00126218 0.00586219 0.00136051 0.0248462 0.00200042 0.00957076 0.00172362 0.0307504 0.00172051 0.0209797 0.00203316 0.0335274 0.00266345 0.0254932 0.00347967 0.0524487
58 1 Mg -1.6714 16.3544 49.8412 1.2 1 0.179484 0.0486474 0.00675519 0.0130513 0.00337539 0.0149274 0.00344036 0.026734 0.005006 0.0171279 0.00454514 0.0316555 0.00416397 0.0263614 0.00611172 0.0346783 0.00570124 0.0307966 0.00913127 0.0416757
59 2 Si -1.18567 13.8526 47.9314 2.4 1 0.231216 0.0529919 0.0147529 0.0164557 0.00476787 0.0176981 0.00511245 0.0272238 0.0085716 0.019114 0.00619242 0.0309919 0.00580738 0.0282446 0.00653862 0.0342505 0.00935157 0.0321299 0.0112427 0.0386393
60 3 O -1.09664 15.4205 47.9915 -1.2 1 0.231444 0.0527935 0.0145187 0.0172476 0.00488323 0.0191116 0.00485228 0.0278902 0.008234 0.0194999 0.00642275 0.0314403 0.00595009 0.0279166 0.0080294 0.0354735 0.00885752 0.0332959 0.0108443 0.0394461
61 3 O -1.73493 12.7491 51.7772 -1.2 1 0.134207 0.0411427 0.00195792 0.00968548 0.00328155 0.00968861 0.00192631 0.0249264 0.00392977 0.0134112 0.00313778 0.0297702 0.00405183 0.0235741 0.00471956 0.0328907 0.00513047 0.0272877 0.00797677 0.0432989
62 3 O -2.36115 13.2717 48.8238 -1.2 1 0.205438 0.0531926 0.00984607 0.0142001 0.004736 0.0140257 0.00503605 0.0270653 0.00643512 0.0188623 0.00511375 0.0305753 0.00479228 0.026651 0.00570701 0.034309 0.00751929 0.0311608 0.0100356 0.0386428
63 1 Mg -0.159928 11.7639 46.8533 1.2 1 0.259706 0.0531855 0.018801 0.0184518 0.00605609 0.0196466 0.00758426 0.02823 0.00945095 0.0192481 0.00793136 0.030417 0.0067325 0.0271386 0.00842414 0.0331594 0.0107313 0.0328693 0.0133876 0.0356793
64 3 O 0.2623 13.1866 48.413 -1.2 1 0.21318 0.0526869 0.0111066 0.0149537 0.00432361 0.0155949 0.00470492 0.0266933 0.00722928 0.0180282 0.00503955 0.0298011 0.00512687 0.0279319 0.00553998 0.0335143 0.00795009 0.0321556 0.0106322 0.039099
65 1 Mg 1.24935 11.8143 54.5056 1.2 1 0.0750734 0.0310837 0.00368102 0.00609537 0.00191247 0.00695561 0.0026471 0.0238899 0.00299395 0.0108695 0.00255878 0.029422 0.00386304 0.0223775 0.00297797 0.0337862 0.00373061 0.0252312 0.00572765 0.0464651
66 2 Si 1.24566 14.5098 56.3643 2.4 1 0.0325524 0.0188501 0.00617252 0.00721246 0.00153985 0.00566247 0.00191721 0.0242282 0.00216963 0.00922655 0.00315361 0.0292105 0.00267604 0.0212502 0.00406038 0.0337545 0.00316663 0.0251295 0.00571521 0.0531077
67 3 O 1.20663 12.936 56.4368 -1.2 1 0.0339053 0.0189771 0.00570833 0.00668774 0.00109642 0.00542318 0.00182497 0.0243214 0.00348754 0.00904391 0.00210302 0.0297362 0.00343346 0.0209727 0.00256781 0.03385 0.00430669 0.0252779 0.00444161 0.0524218
68 3 O 1.36565 15.4813 52.729 -1.2 1 0.110768 0.0377519 0.000724616 0.00827445 0.00191106 0.0107034 0.00357313 0.0250196 0.00341026 0.0128935 0.00362444 0.0303227 0.00418498 0.023213 0.00434141 0.0332717 0.00381247 0.0278629 0.00695367 0.0457098
69 3 O -0.00312286 15.2096 55.6946 -1.2 1 0.0488224 0.0241489 0.00491564 0.00637129 0.00132141 0.00638263 0.00223608 0.0248008 0.002143 0.010286 0.00239834 0.0294212 0.002848 0.0221056 0.0034762 0.0339631 0.00325479 0.0262536 0.00492767 0.0510734
70 3 O 2.56592 15.204 55.7369 -1.2 1 0.0426345 0.0232102 0.00625999 0.00655207 0.00145439 0.00560656 0.00227702 0.02449 0.0021672 0.00975052 0.00233164 0.0294443 0.00249005 0.0216815 0.00321452 0.0341997 0.002858 0.0263957 0.00571794 0.0511868
71 1 Mg -0.206989 14.1049 52.2121 1.2 1 0.115875 0.0413135 0.00145124 0.00860551 0.00255733 0.00887141 0.00235202 0.0251788 0.00337433 0.0131639 0.00343676 0.0303712 0.00367564 0.0238208 0.00415109 0.0334577 0.0036778 0.0278641 0.00725666 0.0440441
72 1 Mg 1.82591 13.8102 49.4556 1.2 1 0.185655 0.053032 0.00589585 0.0123107 0.00304236 0.0133635 0.00482791 0.0255831 0.00532946 0.0176022 0.00470439 0.029938 0.0047371 0.0268772 0.00591178 0.0346107 0.00589667 0.031177 0.00997075 0.0394364
73 2 Si 1.29285 16.1518 51.2434 2.4 1 0.147069 0.0471794 0.00192665 0.0107826 0.00243314 0.012333 0.00385362 0.0258655 0.00440572 0.0154895 0.0052326 0.0295538 0.00419585 0.0259695 0.00578985 0.0339893 0.00399579 0.0305585 0.00900027 0.0440208
74 3 O 1.39496 17.7199 51.3047 -1.2 1 0.142931 0.0439498 0.00231318 0.0100086 0.00181852 0.0122732 0.00310291 0.0254863 0.00442373 0.0146311 0.00313339 0.0303166 0.0037802 0.0247352 0.00347199 0.0345656 0.00530037 0.0299346 0.0074441 0.0444205
75 3 O 1.2556 15.1135 57.8712 -1.2 1 0.0167036 0.0112165 0.00416968 0.00656128 0.000879408 0.00582665 0.00181627 0.0247459 0.0020806 0.00898212 0.00238399 0.0300449 0.00216902 0.0208331 0.00259755 0.0333402 0.00215006 0.0250161 0.0034372 0.0532207
76 3 O -0.0269106 15.5178 50.6688 -1.2 1 0.155139 0.0464109 0.00372993 0.0112625 0.00324126 0.0124752 0.00363073 0.0258944 0.00433803 0.0150703 0.00317035 0.0301009 0.00443102 0.0258547 0.00552233 0.0335696 0.00385559 0.0299198 0.0084678 0.0428677
77 1 Mg -3.18391 14.1057 52.3125 1.2 1 0.124324 0.0412345 0.000956937 0.00868656 0.00206703 0.0105592 0.0029378 0.0248929 0.00370926 0.013862 0.00312244 0.0299947 0.00370025 0.0244071 0.00425255 0.0332236 0.00410499 0.0278585 0.00712072 0.0435343
78 3 O 2.52432 15.503 50.4579 -1.2 1 0.160391 0.0489197 0.00394794 0.0105676 0.0024288 0.0131196 0.00408008 0.0260249 0.00469442 0.0171937 0.00386236 0.0301758 0.00416107 0.0268604 0.00564851 0.0340337 0.00475119 0.0301129 0.00836001 0.0422603
79 1 Mg -1.676 14.1537 55.0643 1.2 1 0.0566933 0.0273888 0.00533446 0.0070462 0.00157177 0.00620741 0.00238357 0.0244752 0.00284336 0.0101895 0.00337695 0.0296108 0.00260068 0.0223138 0.00387614 0.0337956 0.00395893 0.0264337 0.00605172 0.0496741
80 2 Si -1.67454 12.0541 53.2146 2.4 1 0.0983128 0.0358646 0.0027856 0.00786854 0.00238895 0.00761561 0.00189304 0.0246079 0.00386841 0.011998 0.00313631 0.028744 0.00353224 0.023083 0.0034243 0.033008 0.00461274 0.0263706 0.00690803 0.0462505
81 3 O -1.7405 10.5009 53.2737 -1.2 1 0.0963584 0.0346403 0.00317981 0.00682137 0.00287079 0.00724793 0.00191016 0.0233577 0.00312994 0.0106626 0.00318859 0.0285392 0.0032901 0.0210581 0.00418872 0.0328936 0.00412776 0.0250845 0.00800442 0.0449477
82 3 O -1.21337 13.3381 46.4311 -1.2 1 0.271002 0.0527648 0.0209002 0.0202634 0.00660248 0.0206027 0.00731372 0.0301441 0.00947737 0.0204382 0.00701732 0.031502 0.00632404 0.0268553 0.00881556 0.0355791 0.0122349 0.0350128 0.0132314 0.0360421
83 3 O -2.93371 12.7405 53.9811 -1.2 1 0.0843139 0.0326131 0.00329397 0.00668457 0.0018604 0.00802856 0.00210851 0.0242753 0.00277922 0.0116097 0.00250501 0.0290945 0.00327881 0.0227352 0.00338345 0.0337372 0.00352332 0.0262687 0.00664676 0.0467853
84 3 O -0.370331 12.8123 53.8442 -1.2 1 0.0840705 0.0329569 0.003047 0.00693956 0.00258605 0.00648339 0.00175921 0.0250383 0.00305453 0.0112202 0.00277783 0.0287939 0.00332347 0.0231944 0.00358579 0.0335184 0.00408852 0.0264313 0.0057584 0.0471068
85 1 Mg -2.99768 21.2584 57.2204 1.2 1 0.0214513 0.0132197 0.00517711 0.00643122 0.00159145 0.00608208 0.00129025 0.0244618 0.00175908 0.00922945 0.00163521 0.0306278 0.00199877 0.02082 0.00196397 0.0337172 0.00270777 0.0263503 0.00338651 0.0528704
86 1 Mg -1.5831 21.1217 49.8405 1.2 1 0.179146 0.0486412 0.00648185 0.0131472 0.0030533 0.015582 0.00364419 0.0270124 0.00442381 0.0172025 0.00467658 0.0318376 0.00401637 0.0259853 0.00622661 0.0354366 0.00561561 0.0313092 0.00935948 0.0419802
87 2 Si -1.09384 18.6291 47.9287 2.4 1 0.231457 0.0544693 0.0141258 0.0176124 0.00338322 0.0201547 0.00428302 0.0286714 0.00760034 0.0199577 0.00581549 0.0327323 0.00618342 0.0289613 0.00607908 0.036105 0.00952691 0.0341478 0.0106158 0.0408922
88 3 O -1.02071 20.1985 47.9911 -1.2 1 0.230432 0.0534393 0.0139759 0.0177133 0.00391839 0.0206484 0.00440181 0.0284844 0.00729886 0.0198104 0.00634332 0.0325775 0.00592647 0.027979 0.00794729 0.0366393 0.00852905 0.0342404 0.010534 0.0407227
89 3 O -1.65002 17.5002 51.771 -1.2 1 0.133633 0.0419669 0.00176251 0.010315 0.00268325 0.0113018 0.00193471 0.0256577 0.00328047 0.0139932 0.00290257 0.0303634 0.00399747 0.0242742 0.00413892 0.0340864 0.00494727 0.0286955 0.00745723 0.0444697
90 3 O -2.26174 18.0434 48.8281 -1.2 1 0.206532 0.0545402 0.00981389 0.0149863 0.00354663 0.016884 0.00405548 0.0281668 0.00590834 0.0196074 0.00452412 0.0318351 0.00478072 0.0279084 0.00568913 0.0361221 0.00713703 0.0333894 0.00948278 0.0409367
91 1 Mg -0.0440435 16.5651 46.8269 1.2 1 0.254507 0.0542089 0.017884 0.0194862 0.00473913 0.0237066 0.0050805 0.0314143 0.00914211 0.0216764 0.00646055 0.0340232 0.00656766 0.0293902 0.00774528 0.0355061 0.00988323 0.0362546 0.0117114 0.0400105
92 3 O 0.37001 17.9877 48.3925 -1.2 1 0.213098 0.0538268 0.0107077 0.0159343 0.00348541 0.0177784 0.00359033 0.0284974 0.00625204 0.0193311 0.00416802 0.031785 0.00530081 0.0290147 0.0057085 0.0354039 0.00751451 0.0346309 0.00990241 0.0415954
93 1 Mg 1.39787 16.5473 54.5723 1.2 1 0.070581 0.0302653 0.0038551 0.0066161 0.00159055 0.00752564 0.0031193 0.0244891 0.00266274 0.0113902 0.00285151 0.0300863 0.00340794 0.0229392 0.0031114 0.0340637 0.00360614 0.0262571 0.00556406 0.0482131
94 2 Si 1.38703 19.2364 56.426 2.4 1 0.0310693 0.0179943 0.00605595 0.00711035 0.00149429 0.00586333 0.00179766 0.0235629 0.00202833 0.00919454 0.00342503 0.0290709 0.00235129 0.0216425 0.00428386 0.0341087 0.00344276 0.0255415 0.0058777 0.0536054
95 3 O 1.27943 17.7024 56.4403 -1.2 1 0.0323717 0.0188599 0.0060174 0.00665903 0.001364 0.0055289 0.00184524 0.0244395 0.00313893 0.00891745 0.00182685 0.0296899 0.00269963 0.0209548 0.00224768 0.0338427 0.00425504 0.0257917 0.00476667 0.0528518
96 3 O 1.45147 20.239 52.7294 -1.2 1 0.109376 0.0377016 0.00123402 0.00820755 0.00150157 0.0112369 0.00345476 0.0250891 0.00265225 0.0129557 0.00361713 0.0303217 0.00396654 0.0231752 0.00432894 0.0340109 0.00391828 0.0285811 0.00691394 0.0463
97 3 O 0.116129 19.9966 55.7614 -1.2 1 0.0459778 0.023625 0.00550943 0.00666141 0.00141862 0.00624198 0.00241935 0.0242459 0.00192972 0.00978949 0.00262781 0.0292112 0.00258771 0.0219047 0.00363411 0.0344838 0.003361 0.0270197 0.00571802 0.0516848
98 3 O 2.64313 19.8831 55.6474 -1.2 1 0.0434914 0.0235253 0.00644918 0.00676602 0.00158673 0.00616168 0.0025951 0.0239738 0.00190923 0.00958721 0.00247234 0.0292656 0.00265095 0.0218487 0.0034354 0.0346426 0.0029227 0.0269421 0.00580781 0.0517559
99 1 Mg -0.126194 18.8651 52.2079 1.2 1 0.114706 0.0413585 0.00182298 0.00906009 0.00199757 0.0097091 0.00250621 0.0253424 0.00253578 0.0137371 0.00324748 0.0306655 0.0035642 0.0240235 0.00397589 0.0342927 0.003806 0.028994 0.00730768 0.0450444
100 1 Mg 1.92402 18.5815 49.4545 1.2 1 0.183013 0.0539381 0.00520135 0.0126629 0.00171312 0.0148161 0.00417616 0.026908 0.00483481 0.018336 0.00439077 0.0314282 0.00460003 0.0274884 0.00494979 0.035999 0.00596087 0.0328748 0.0093514 0.0418487
101 2 Si 1.38106 20.9117 51.2443 2.4 1 0.146739 0.0470844 0.00145977 0.0110489 0.00196427 0.0129938 0.00387471 0.0257383 0.00376865 0.0156131 0.00498925 0.0297306 0.00416745 0.0256154 0.00579124 0.0346199 0.00381282 0.0309771 0.00900279 0.0443083
102 3 O 1.48527 22.4795 51.3054 -1.2 1 0.143305 0.0436811 0.00194621 0.0100763 0.00165719 0.0126522 0.00326536 0.0256546 0.00378421 0.0148614 0.00326082 0.030511 0.00397309 0.0246337 0.00363976 0.0346686 0.00511349 0.030094 0.00782259 0.044483
103 3 O 1.49052 19.9366 57.8995 -1.2 1 0.0164031 0.0107691 0.00416279 0.00658758 0.00116179 0.00607299 0.00140998 0.0245451 0.00192299 0.00857458 0.00235714 0.0299866 0.0021555 0.0208611 0.0025607 0.0337089 0.00254382 0.0259756 0.00344168 0.0539519
104 3 O 0.0615419 20.2804 50.6669 -1.2 1 0.155688 0.0468391 0.00333942 0.0115773 0.00309216 0.0133873 0.0042018 0.0261777 0.00360455 0.0155114 0.00334394 0.0302157 0.00433106 0.0261668 0.00530874 0.0347754 0.00404425 0.030806 0.00839424 0.0437195
105 1 Mg -3.09665 18.8643 52.3122 1.2 1 0.122365 0.0412042 0.000972694 0.00896473 0.00140919 0.0114637 0.00289481 0.025225 0.00282632 0.0141183 0.00309021 0.0304733 0.00348128 0.0242936 0.0032257 0.0340713 0.00409689 0.0287885 0.00658161 0.0443069
106 3 O 2.61548 20.2646 50.4626 -1.2 1 0.157574 0.0486016 0.00310276 0.0109057 0.00177972 0.0136993 0.00406664 0.0260773 0.00356609 0.016848 0.00359038 0.0302074 0.00397598 0.0260515 0.00510607 0.0351554 0.00439972 0.0308016 0.00854947 0.0430578
107 1 Mg -1.56743 18.9663 55.0963 1.2 1 0.0545374 0.0269831 0.00536432 0.00692801 0.00142408 0.00626803 0.00224099 0.0245643 0.00224045 0.010653 0.00327903 0.0294348 0.00248198 0.0225047 0.00372801 0.0340816 0.00399557 0.0269326 0.0059305 0.0502357
108 2 Si -1.60082 16.8373 53.2434 2.4 1 0.0960615 0.0367678 0.00262474 0.00815934 0.00197447 0.00778721 0.00156603 0.0248479 0.00325078 0.0123498 0.00286225 0.0293891 0.00314597 0.0239742 0.00286175 0.0339159 0.00444104 0.0277725 0.00641939 0.0475076
109 3 O -1.70787 15.2934 53.1579 -1.2 1 0.0963015 0.0356829 0.00252294 0.00792923 0.00205242 0.00798599 0.00184459 0.024622 0.00345896 0.0116024 0.00332936 0.0296023 0.00284427 0.0229508 0.00396454 0.0336487 0.00383502 0.0271086 0.00733352 0.0470607
110 3 O -1.12868 18.1227 46.4249 -1.2 1 0.268162 0.0546525 0.020072 0.0209521 0.00508313 0.0241015 0.00591998 0.0321449 0.00808522 0.0215199 0.006109 0.034354 0.00706522 0.0273901 0.00855045 0.037768 0.0117118 0.0372097 0.0122655 0.0398731
111 3 O -2.89488 17.4841 53.9487 -1.2 1 0.0824594 0.0325795 0.00316949 0.00688378 0.0014582 0.00837483 0.00203178 0.0246053 0.00223575 0.0117696 0.00229512 0.0293291 0.00273545 0.0235769 0.00267939 0.034036 0.00356909 0.0271151 0.00598855 0.0479001
112 3 O -0.303585 17.5652 53.8528 -1.2 1 0.0811432 0.0324874 0.00322133 0.00692072 0.00232515 0.00684909 0.00119379 0.0249923 0.00252371 0.0112946 0.00254331 0.0290808 0.0029474 0.0234165 0.00333847 0.0342354 0.00393734 0.0274404 0.00618853 0.047851
113 1 Mg -3.00559 26.0639 57.4211 1.2 1 0.0221342 0.0131481 0.00513112 0.00625644 0.00150132 0.00558911 0.00160647 0.0241743 0.00163333 0.0089303 0.00190163 0.0307965 0.00201729 0.0206137 0.00223491 0.0341213 0.00288501 0.0262674 0.00391568 0.0525377
114 1 Mg -1.48778 25.88 49.8402 1.2 1 0.181484 0.0488078 0.00648932 0.0138199 0.00299272 0.0156553 0.0034499 0.0268205 0.00451816 0.0172496 0.00486512 0.0319633 0.0039899 0.0259975 0.00663923 0.0355491 0.0057401 0.0316736 0.0095948 0.0418867
115 2 Si -1.00491 23.3922 47.9274 2.4 1 0.230878 0.0538256 0.0140339 0.0179423 0.00374239 0.0209272 0.00448429 0.0286772 0.00732409 0.019905 0.00566046 0.0327068 0.00587535 0.0283011 0.00631191 0.0361651 0.00906663 0.0340792 0.0105213 0.0407584
116 3 O -0.927602 24.9615 47.9909 -1.2 1 0.230448 0.0534076 0.0139359 0.018059 0.00374796 0.0207832 0.00436626 0.0285394 0.00741076 0.0199483 0.00608239 0.0324747 0.00586171 0.0276735 0.0079253 0.0364562 0.00870023 0.034342 0.0104953 0.0407289
117 3 O -1.55795 22.2588 51.7696 -1.2 1 0.134021 0.0416445 0.00163057 0.0103371 0.00279545 0.0119353 0.00208118 0.0252971 0.00288985 0.0140493 0.00307825 0.0305745 0.00421974 0.0239933 0.0039621 0.0343731 0.00510756 0.0289773 0.00785901 0.0445966
118 3 O -2.17411 22.8111 48.8277 -1.2 1 0.204936 0.0537487 0.00919301 0.0152015 0.00309376 0.0174406 0.0038894 0.0280192 0.00533447 0.0194252 0.00459043 0.031905 0.00472444 0.0274186 0.0061806 0.0362655 0.0070013 0.0333899 0.00958988 0.0408801
119 1 Mg 0.0423997 21.3296 46.8225 1.2 1 0.25603 0.0545622 0.0177672 0.0205154 0.00448036 0.0248671 0.00597882 0.0318587 0.00854848 0.0218042 0.00676881 0.034227 0.00694091 0.029018 0.00870428 0.0366536 0.0094688 0.0366439 0.0117694 0.0403921
120 3 O 0.458537 22.7495 48.3911 -1.2 1 0.213034 0.0535217 0.0102864 0.0163664 0.00328718 0.0183554 0.00353155 0.0283666 0.00580602 0.0194479 0.00407454 0.0319478 0.00540064 0.0285859 0.00610015 0.0356388 0.00752926 0.0346363 0.0100249 0.0415378