ITEM: TIMESTEP
35300
ITEM: NUMBER OF ATOMS
10500
ITEM: BOX BOUNDS xy xz yz pp pp pp
0	8.9688	2.9896
0	118.725	0
0	252.977	0
ITEM: ATOMS id type element xu yu zu q Q_1 Q_2 Q_3 Q_4 Q_5 Q_6 Q_7 Q_8 Q_9 Q_10 Q_11 Q_12 Q_13 Q_14 Q_15 Q_16 Q_17 Q_18 Q_19 Q_20 Q_21
1 1 Mg -3.39184 7.08767 57.6944 1.2 1 0.0205058 0.0128536 0.00525159 0.00613748 0.00206282 0.00606763 0.00142046 0.0221371 0.00170891 0.00824987 0.00170147 0.0290484 0.00265564 0.0190655 0.00241666 0.0336878 0.00332074 0.0245737 0.0050472 0.0486068
2 1 Mg -1.82655 6.90154 50.0912 1.2 1 0.173985 0.0474722 0.00576892 0.0105386 0.00343932 0.00896352 0.00424586 0.0228902 0.00477194 0.014 0.00434359 0.0259272 0.00457341 0.0201848 0.00657168 0.0295904 0.00569023 0.0251132 0.00851018 0.0340891
3 2 Si -0.257935 3.96038 48.0876 2.4 1 0.22373 0.0541518 0.0117163 0.0130258 0.00283489 0.00972904 0.00376775 0.0206637 0.00607929 0.0162964 0.00429518 0.0246706 0.00493774 0.0200918 0.00588958 0.0271196 0.00688836 0.0247532 0.00824067 0.0320975
4 3 O -0.335812 5.46814 47.6264 -1.2 1 0.23119 0.0536395 0.013391 0.0141723 0.00331411 0.0105755 0.00470254 0.0214862 0.00667945 0.01721 0.00463803 0.0251226 0.00429813 0.0206546 0.00550837 0.0274619 0.00728093 0.0255575 0.00877677 0.0306873
5 3 O -2.03793 3.43377 51.8941 -1.2 1 0.127085 0.0415492 0.00155608 0.00745535 0.00178297 0.00668485 0.00293521 0.0208325 0.00313695 0.0110449 0.00302139 0.0252311 0.00365829 0.0173543 0.00417317 0.0293366 0.0054749 0.0237166 0.00746435 0.0370139
6 3 O -1.54015 3.53929 48.9521 -1.2 1 0.201069 0.0524064 0.00880991 0.0113315 0.00239257 0.00841038 0.0034689 0.0207218 0.00529093 0.0146762 0.00434835 0.0240223 0.00431836 0.0194401 0.00574478 0.0276756 0.00554786 0.0243022 0.00794527 0.0319244
7 1 Mg 1.82954 2.54582 47.1376 1.2 1 0.245849 0.0538942 0.0163671 0.0159342 0.00317313 0.0109232 0.00383224 0.0207369 0.00582024 0.015236 0.00451479 0.0240598 0.00606685 0.0194688 0.00774771 0.0254608 0.00656295 0.0235852 0.00816594 0.0303588
8 3 O 1.22989 3.66364 48.7877 -1.2 1 0.204076 0.0515966 0.00930114 0.0124568 0.0021588 0.00910739 0.00414828 0.0209243 0.00453721 0.0144721 0.0036422 0.0239405 0.004528 0.0191974 0.00632792 0.0273088 0.00466092 0.0241973 0.00846854 0.0328604
9 1 Mg 0.90052 2.41685 54.4279 1.2 1 0.0702167 0.0308031 0.00462731 0.00523169 0.00163936 0.0050944 0.00283869 0.0212988 0.00237785 0.00958741 0.00286303 0.0260385 0.00360306 0.0187403 0.00424638 0.0314319 0.00336032 0.0240493 0.00651467 0.0414515
10 2 Si 1.07582 5.01072 56.5443 2.4 1 0.0311775 0.0189334 0.0061359 0.00616327 0.00129008 0.00639424 0.00212719 0.021989 0.00175577 0.00834298 0.00315728 0.0265913 0.00257875 0.0190674 0.00424655 0.0328318 0.00418103 0.0249998 0.00651677 0.0473989
11 3 O 1.03262 3.51252 56.507 -1.2 1 0.0354803 0.0208984 0.00603388 0.00589621 0.00122209 0.0054298 0.00212967 0.0210056 0.00256751 0.0083152 0.00272685 0.0268254 0.00291636 0.0182034 0.00352689 0.0329499 0.00424313 0.0249792 0.00546536 0.0455068
12 3 O 1.10813 6.07342 52.8172 -1.2 1 0.106113 0.0365411 0.00242004 0.007289 0.00230471 0.00692271 0.00340474 0.0223626 0.00330229 0.0107036 0.00297163 0.0261622 0.00421761 0.0182812 0.00522608 0.0309728 0.00462093 0.0244898 0.00722053 0.0392301
13 3 O -0.228589 5.65204 55.9027 -1.2 1 0.0439675 0.023389 0.00603639 0.00568081 0.00143707 0.00512192 0.00269777 0.0221396 0.00205377 0.00905 0.0028819 0.0271561 0.00330477 0.0187111 0.00482633 0.0331881 0.00395558 0.0250629 0.00654136 0.045727
14 3 O 2.28562 5.6596 55.7627 -1.2 1 0.0418427 0.0233207 0.00672705 0.00552948 0.0011693 0.00567501 0.00186773 0.0220293 0.00135376 0.00907989 0.00244772 0.0272588 0.00309384 0.018989 0.00397285 0.0337789 0.00352797 0.0250935 0.00614473 0.0456225
15 1 Mg -0.459401 4.67631 52.2426 1.2 1 0.122722 0.0409973 0.0019679 0.00750173 0.00239898 0.00637855 0.00249334 0.0212359 0.00321747 0.0116757 0.00297875 0.0263408 0.00389878 0.0184609 0.0044204 0.0295684 0.00466403 0.0233049 0.00712531 0.0364546
16 1 Mg 2.79456 3.9971 49.9987 1.2 1 0.173657 0.0501076 0.00505357 0.0102949 0.00248972 0.00764776 0.00454971 0.0211344 0.00365542 0.014057 0.00311577 0.0246469 0.00425491 0.019669 0.00639585 0.0285856 0.00456672 0.0243307 0.00883731 0.0333784
17 2 Si 1.16169 6.59457 51.2556 2.4 1 0.146081 0.045729 0.00230717 0.00921269 0.00268685 0.00827629 0.00389879 0.0222858 0.00453076 0.0129324 0.00444329 0.0252431 0.00433866 0.0201435 0.00656591 0.0308068 0.00471904 0.025355 0.00865419 0.0363254
18 3 O 1.28989 8.18905 51.2909 -1.2 1 0.146969 0.0452114 0.00269783 0.00965206 0.00262635 0.00925187 0.00387992 0.0226962 0.00446986 0.0128471 0.00365034 0.0272293 0.00389338 0.020544 0.00552059 0.0313343 0.00579048 0.0260887 0.00826827 0.038
19 3 O 1.06929 5.72558 58.0115 -1.2 1 0.0166124 0.011482 0.00435829 0.00622169 0.00140111 0.00662597 0.00168105 0.0222719 0.00125494 0.00784384 0.00266365 0.0283177 0.00238961 0.0189485 0.00326848 0.0338177 0.0033579 0.0259565 0.00470209 0.0491596
20 3 O -0.184847 6.06029 50.6845 -1.2 1 0.159773 0.0456274 0.0047783 0.00960102 0.00350501 0.00814217 0.00428528 0.022287 0.00445691 0.0131345 0.00310454 0.0252739 0.00416172 0.0194383 0.00594799 0.028739 0.00512638 0.0247015 0.00822493 0.0355205
21 1 Mg -3.49704 4.67769 52.6661 1.2 1 0.115072 0.039256 0.00160348 0.00703642 0.00175661 0.00695719 0.00279137 0.0212561 0.00362722 0.0111124 0.00316681 0.0257754 0.00363636 0.0181163 0.00493506 0.0298855 0.00448503 0.0237148 0.00730078 0.0377225
22 3 O 2.48581 5.93312 50.6539 -1.2 1 0.157012 0.0473489 0.00348675 0.00891458 0.00191924 0.00877456 0.00401956 0.0221918 0.0045389 0.0134506 0.00402244 0.0251867 0.00419207 0.0200194 0.00641499 0.0299315 0.00433473 0.0250441 0.0082995 0.0350038
23 1 Mg -2.09179 4.78879 55.1409 1.2 1 0.0502815 0.0265131 0.00653424 0.00574376 0.00161958 0.00558686 0.00179529 0.0213172 0.00245492 0.00896486 0.00313556 0.0272547 0.00239252 0.018929 0.00428808 0.0325489 0.00445657 0.0244656 0.00684831 0.0435068
24 2 Si -2.02787 2.66393 53.3673 2.4 1 0.0998347 0.0369407 0.00300235 0.00640582 0.00215166 0.00560333 0.0020744 0.0207812 0.00292684 0.0107403 0.00294888 0.0250829 0.00291783 0.01858 0.00357832 0.0304373 0.00455684 0.0239203 0.00704446 0.0392915
25 3 O -2.07252 1.11138 53.2136 -1.2 1 0.096573 0.0367951 0.00234609 0.00625649 0.00243669 0.00557834 0.0025731 0.0208082 0.00279741 0.0100645 0.00257499 0.0252032 0.00300356 0.0184215 0.00403262 0.0303158 0.00391432 0.0242958 0.00682308 0.0389348
26 3 O -0.0467762 2.97103 46.8385 -1.2 1 0.250928 0.0542604 0.0167973 0.015322 0.00310568 0.00999538 0.00366991 0.0203922 0.0067658 0.016209 0.00576206 0.0240395 0.0066504 0.0189364 0.00826308 0.0256438 0.00658413 0.0237877 0.00905032 0.0316178
27 3 O -3.27202 3.33838 54.0765 -1.2 1 0.0802316 0.0328667 0.00392515 0.00544603 0.00171613 0.00546728 0.00211988 0.0212679 0.00271817 0.0100418 0.00262138 0.0253547 0.00264862 0.0186147 0.00344039 0.0308661 0.00443245 0.0237616 0.00683998 0.0403704
28 3 O -0.706371 3.35691 53.9484 -1.2 1 0.0814917 0.0331597 0.00404352 0.00538015 0.00187559 0.00581193 0.00219002 0.021165 0.00263117 0.0100369 0.00226619 0.0256257 0.00323131 0.0190274 0.00363197 0.0309577 0.00411913 0.0243704 0.00668397 0.0399303
29 1 Mg -3.25678 11.7855 57.5797 1.2 1 0.023635 0.0127705 0.00508334 0.00634335 0.00213848 0.00628878 0.00143193 0.0226573 0.00193031 0.00889081 0.00173921 0.0299206 0.00257486 0.0196737 0.00293167 0.0343573 0.00334699 0.025897 0.00585057 0.0500406
30 1 Mg -1.75014 11.5838 49.8362 1.2 1 0.18424 0.0480341 0.00758044 0.0126011 0.00445634 0.0128853 0.0046901 0.0244084 0.00537523 0.0157361 0.00513505 0.0288458 0.00406943 0.0234821 0.00739362 0.033064 0.00709917 0.028848 0.0101866 0.038033
31 2 Si -1.18003 9.02138 47.9309 2.4 1 0.239423 0.052805 0.015053 0.0159402 0.00547831 0.0135088 0.00760227 0.0236631 0.00831753 0.017198 0.00685397 0.0264642 0.00491586 0.0225117 0.00696483 0.0301367 0.00880005 0.027949 0.0115974 0.0337957
32 3 O -1.23224 10.5991 47.9811 -1.2 1 0.229653 0.0535154 0.0132636 0.0159358 0.00543132 0.0144437 0.00640519 0.0247215 0.00821167 0.0172717 0.00704948 0.0280437 0.00505477 0.0234747 0.00816632 0.0323562 0.00935703 0.0300339 0.0105927 0.0345879
33 3 O -1.79016 8.01447 51.8693 -1.2 1 0.13189 0.0409229 0.00222174 0.00902506 0.0037011 0.00775794 0.00283687 0.0225914 0.00362918 0.0121818 0.00362981 0.0274898 0.00402881 0.0195842 0.005148 0.0314907 0.00571273 0.0247515 0.00856063 0.0385146
34 3 O -2.30986 8.37215 48.8528 -1.2 1 0.204681 0.052948 0.00902863 0.0126883 0.00437106 0.0107002 0.00606322 0.023671 0.00624228 0.0169942 0.00492936 0.0264492 0.0041023 0.0225177 0.00633283 0.0310417 0.00690795 0.0272473 0.0090185 0.0336606
35 1 Mg 0.154883 7.08234 46.8007 1.2 1 0.261325 0.053866 0.0181731 0.0171113 0.0059396 0.0139214 0.00886782 0.0243673 0.00811941 0.0176502 0.00690045 0.0253896 0.00688435 0.0213174 0.00891058 0.0286882 0.00938631 0.0281545 0.0124798 0.0309236
36 3 O 0.325447 8.50934 48.3809 -1.2 1 0.219649 0.0541726 0.0111044 0.0145913 0.00457896 0.0125115 0.0063673 0.0245212 0.00717921 0.0171284 0.00588149 0.0263881 0.005231 0.0237414 0.00612504 0.0300007 0.00768188 0.0279854 0.0103344 0.0335079
37 1 Mg 1.1434 7.21032 54.7419 1.2 1 0.06488 0.0293589 0.00494435 0.0061649 0.0017001 0.00576856 0.00242035 0.0221548 0.00248901 0.00971768 0.00270923 0.0269497 0.003687 0.0191755 0.0042528 0.0333301 0.0040234 0.0247186 0.00699483 0.0437656
38 2 Si 1.28728 9.82759 56.5759 2.4 1 0.0334507 0.0180981 0.00607073 0.00705398 0.00153353 0.00596902 0.00198864 0.0220166 0.00192341 0.00864367 0.00362466 0.0280872 0.00244841 0.0200624 0.0051716 0.0338976 0.00430681 0.0248964 0.0075794 0.0500013
39 3 O 1.25131 8.23435 56.5841 -1.2 1 0.0318699 0.0178925 0.00621493 0.00652246 0.00146093 0.00612199 0.00164876 0.0222056 0.00253581 0.00770566 0.00208361 0.0281622 0.00304949 0.0182676 0.00346086 0.0340145 0.00454226 0.0250929 0.00670419 0.0487167
40 3 O 1.28624 10.7248 52.7351 -1.2 1 0.113005 0.0378874 0.00207378 0.00833441 0.00234088 0.00948802 0.00309927 0.0234231 0.00310061 0.0117854 0.00378929 0.0280563 0.00446895 0.0212514 0.00588365 0.0330913 0.00472538 0.0268252 0.00824507 0.0421109
41 3 O 0.0285899 10.4452 55.8529 -1.2 1 0.048603 0.0235891 0.00536931 0.00682116 0.00125051 0.00647663 0.00195368 0.0223301 0.00148491 0.00922141 0.00274293 0.0281683 0.00316885 0.0200954 0.00413349 0.0348036 0.00386805 0.0256396 0.00667296 0.047814
42 3 O 2.55672 10.3953 55.8636 -1.2 1 0.0427184 0.0220162 0.00672662 0.00675472 0.00109545 0.00622407 0.00252312 0.0230331 0.00148476 0.00930753 0.00315018 0.0281392 0.00270577 0.0202426 0.00461057 0.0352201 0.00374462 0.0264861 0.00741097 0.0488831
43 1 Mg -0.262694 9.34741 52.2523 1.2 1 0.113901 0.040254 0.00273099 0.00854629 0.00298255 0.00818004 0.00246668 0.0234444 0.00315254 0.0119316 0.00335941 0.0280904 0.00421661 0.0205823 0.00574328 0.0327382 0.00482066 0.0264585 0.00872307 0.0402318
44 1 Mg 1.87648 9.01537 49.4629 1.2 1 0.183104 0.0526963 0.00560824 0.0114883 0.00324794 0.011004 0.00593209 0.0239701 0.00563586 0.0160747 0.00497566 0.0271991 0.00474035 0.02295 0.00627573 0.0315575 0.00590791 0.0278343 0.00948188 0.0351653
45 2 Si 1.21415 11.3799 51.2378 2.4 1 0.14798 0.0462721 0.00228858 0.0106875 0.00315958 0.0112093 0.00383637 0.0242917 0.00440966 0.0145175 0.00467021 0.0274021 0.00442031 0.0235244 0.00633192 0.0331372 0.0055605 0.0285901 0.00953899 0.040438
46 3 O 1.31634 12.9512 51.3023 -1.2 1 0.148978 0.044707 0.00330123 0.0103474 0.00267195 0.0116495 0.00348754 0.0240847 0.00465656 0.0144317 0.0036104 0.0290366 0.00429473 0.0240797 0.00531126 0.034128 0.00597686 0.0289503 0.00864226 0.0412154
47 3 O 1.27885 10.4956 58.0419 -1.2 1 0.0191631 0.0104977 0.00433595 0.00652674 0.00208553 0.00641617 0.00135831 0.0229818 0.0015548 0.00771509 0.00246592 0.0290604 0.00236548 0.0194476 0.00260867 0.034608 0.00331235 0.0259314 0.00523307 0.0513872
48 3 O -0.115718 10.7564 50.681 -1.2 1 0.158104 0.0469097 0.00381701 0.0112866 0.00369915 0.0109945 0.00419092 0.0246052 0.00449281 0.0145712 0.00368378 0.0280379 0.00484927 0.0233833 0.00594655 0.0322483 0.00568997 0.0280241 0.00943823 0.0390845
49 1 Mg -3.26386 9.35564 52.3622 1.2 1 0.12351 0.0398811 0.00167031 0.00835524 0.00240635 0.00944475 0.00337577 0.0231996 0.00374961 0.012402 0.00385825 0.0276196 0.00368446 0.020494 0.0049594 0.0329087 0.00472506 0.0263364 0.00818198 0.0391849
50 3 O 2.45216 10.7265 50.4558 -1.2 1 0.164001 0.048601 0.00414316 0.0104637 0.00275101 0.0116445 0.00474383 0.0237628 0.00513467 0.0158878 0.00431364 0.027759 0.00411647 0.0236805 0.00652749 0.0330983 0.00591601 0.028361 0.00961056 0.0381802
51 1 Mg -1.79821 9.48422 55.3015 1.2 1 0.0537532 0.0261607 0.00587278 0.00669591 0.00172968 0.00610184 0.00226301 0.0230676 0.00247918 0.00919342 0.00310801 0.0283542 0.00299131 0.0200451 0.00412111 0.0340707 0.00512289 0.025568 0.00768388 0.0461204
52 2 Si -1.76335 7.40907 53.4105 2.4 1 0.0941798 0.035911 0.00374897 0.00743469 0.00309138 0.00653561 0.00243603 0.0220622 0.00337111 0.0108326 0.00300885 0.0267527 0.00364302 0.0200269 0.00415643 0.0319205 0.00548387 0.0241094 0.00723906 0.0414757
53 3 O -1.87733 5.86221 53.3624 -1.2 1 0.0963613 0.034289 0.00267853 0.00636589 0.00233792 0.00626257 0.00187344 0.0212743 0.00343999 0.00986387 0.00309112 0.0259789 0.00340933 0.0182948 0.00480797 0.0315366 0.00373394 0.023849 0.00736944 0.0401966
54 3 O -1.19417 8.46968 46.4488 -1.2 1 0.268936 0.053709 0.0203307 0.0182219 0.00585289 0.0148394 0.00885791 0.0249207 0.0085262 0.0176221 0.00731417 0.0259655 0.00601189 0.021147 0.00902033 0.0303125 0.0101367 0.0293669 0.0115662 0.0310869
55 3 O -3.04459 8.04959 54.0987 -1.2 1 0.079088 0.0309914 0.00398612 0.00623662 0.00216016 0.0070188 0.00222499 0.0222815 0.00249203 0.0103048 0.00240249 0.0267372 0.00334787 0.0198171 0.00453285 0.0336346 0.00463052 0.0248381 0.00803685 0.0428908
56 3 O -0.473413 8.13493 54.0664 -1.2 1 0.0758579 0.0310368 0.00478283 0.00645365 0.00243584 0.0060395 0.00153318 0.0226401 0.0022727 0.0100651 0.00233374 0.0269102 0.00342523 0.0196423 0.00434876 0.0332065 0.00435482 0.0254922 0.00751875 0.0434368
57 1 Mg -3.13243 16.669 57.356 1.2 1 0.0229799 0.0142274 0.0045108 0.00620569 0.00183933 0.00583978 0.00141623 0.0228834 0.00205681 0.0090537 0.00209634 0.0293952 0.00202595 0.0200501 0.00260405 0.0344429 0.00319317 0.025825 0.00434123 0.0500361
58 1 Mg -1.6714 16.3544 49.8412 1.2 1 0.181682 0.0483715 0.00702671 0.0128047 0.00351438 0.0148528 0.00317989 0.0260515 0.0049816 0.0174833 0.00436173 0.0310358 0.00390359 0.0261555 0.0065908 0.0350912 0.00623637 0.0315543 0.00923091 0.0407869
59 2 Si -1.18567 13.8526 47.9314 2.4 1 0.230845 0.0537416 0.0150153 0.0165548 0.00482215 0.0178006 0.00511377 0.027061 0.00852919 0.0193081 0.00595033 0.0306918 0.00507632 0.0280124 0.00678413 0.0344693 0.0100856 0.0326804 0.0105309 0.0381227
60 3 O -1.09664 15.4205 47.9915 -1.2 1 0.230236 0.0528141 0.0143154 0.0173179 0.00492508 0.0189155 0.00449263 0.0275842 0.00774604 0.019705 0.00584541 0.031183 0.00517627 0.0275168 0.00761049 0.0352092 0.00960655 0.0340273 0.0103652 0.03888
61 3 O -1.73493 12.7491 51.7772 -1.2 1 0.134566 0.0408864 0.00261635 0.0102019 0.00335894 0.0103219 0.0018247 0.0243025 0.0038528 0.0136003 0.00301188 0.029195 0.00435257 0.0233041 0.00537515 0.0336757 0.00572967 0.0277808 0.00826226 0.0423082
62 3 O -2.36115 13.2717 48.8238 -1.2 1 0.2045 0.0529808 0.00977585 0.0141946 0.00475431 0.014377 0.00472777 0.0266369 0.00658807 0.0190085 0.00493449 0.0303861 0.00408204 0.0264254 0.00614125 0.0344802 0.00836755 0.0316456 0.00973751 0.0377196
63 1 Mg -0.159928 11.7639 46.8533 1.2 1 0.258539 0.0545757 0.0189923 0.0186824 0.00634701 0.019851 0.00737346 0.0282901 0.00972178 0.0195283 0.00776923 0.0303722 0.00655063 0.0268272 0.00834976 0.0333096 0.0108966 0.033269 0.0129247 0.0356864
64 3 O 0.2623 13.1866 48.413 -1.2 1 0.215971 0.0538137 0.0114311 0.0155438 0.00455931 0.0163111 0.00471355 0.0270959 0.00743576 0.0185697 0.00476187 0.0296002 0.00486125 0.0278018 0.00575495 0.0339434 0.00893649 0.0332859 0.0101758 0.0381075
65 1 Mg 1.18689 11.7314 54.575 1.2 1 0.072836 0.0303739 0.00427215 0.00687138 0.00172006 0.00713457 0.002525 0.0224354 0.00246829 0.0108085 0.00208276 0.0287582 0.00390147 0.0218181 0.00436348 0.0351735 0.00396144 0.0258844 0.00657971 0.0456461
66 2 Si 1.35348 14.5169 56.4706 2.4 1 0.0333755 0.0177562 0.0054501 0.00705134 0.00207936 0.00612628 0.00184384 0.0226356 0.00188879 0.00871715 0.0030385 0.0289243 0.0023339 0.0202823 0.00426173 0.0347068 0.00328291 0.0256714 0.00602035 0.0513516
67 3 O 1.25645 12.9659 56.6781 -1.2 1 0.0309501 0.0163306 0.00576731 0.00691367 0.00162173 0.00620162 0.00162769 0.0226269 0.00284587 0.00812634 0.00194343 0.0292162 0.00254764 0.0195715 0.00343869 0.0350909 0.0038691 0.0260951 0.00590253 0.0507463
68 3 O 1.36565 15.4813 52.729 -1.2 1 0.11207 0.037082 0.00111919 0.00803754 0.00189261 0.0105822 0.00317248 0.0243757 0.00288446 0.0132052 0.0033542 0.0297638 0.00413507 0.0227016 0.00544398 0.0341203 0.00436878 0.0283113 0.00736901 0.0442008
69 3 O 0.0855742 15.1836 55.7077 -1.2 1 0.0521697 0.0241325 0.00467846 0.00656669 0.00156266 0.00680881 0.00191394 0.0225458 0.00157534 0.0102821 0.0025585 0.0286072 0.0025279 0.0210322 0.00447939 0.0351915 0.00329735 0.0267135 0.00542135 0.0488898
70 3 O 2.59044 15.1521 55.6897 -1.2 1 0.0454827 0.0229567 0.00591039 0.00675405 0.00163598 0.00619598 0.00220889 0.0231811 0.00197184 0.00984105 0.00261534 0.0286374 0.00225631 0.0209791 0.0041974 0.0354025 0.00332122 0.0271243 0.00622842 0.0498323
71 1 Mg -0.206989 14.1049 52.2121 1.2 1 0.118444 0.0412976 0.00190029 0.00919838 0.00289243 0.00941436 0.00229836 0.0246734 0.00337536 0.0136561 0.00297243 0.0298966 0.00373319 0.0233288 0.00483806 0.0341983 0.00450496 0.0283798 0.00755904 0.0424306
72 1 Mg 1.82591 13.8102 49.4556 1.2 1 0.18535 0.0529425 0.00612852 0.0124063 0.00320686 0.0137658 0.00444891 0.025748 0.00527743 0.0178272 0.00481445 0.0295902 0.00469836 0.0262281 0.00635504 0.0350517 0.0070786 0.0318398 0.0100759 0.0386378
73 2 Si 1.29285 16.1518 51.2434 2.4 1 0.146166 0.0461982 0.00210823 0.010479 0.00250058 0.0120963 0.00333832 0.025663 0.00440686 0.0159845 0.00423839 0.0291206 0.00413625 0.0255304 0.00562946 0.0344114 0.00487712 0.0311865 0.00862789 0.0429764
74 3 O 1.39496 17.7199 51.3047 -1.2 1 0.144113 0.0437358 0.00270723 0.00937066 0.00186317 0.0120379 0.00300923 0.024932 0.00399865 0.0154079 0.00287109 0.0298393 0.00399178 0.0248849 0.00465995 0.0349098 0.00577387 0.0302744 0.00771601 0.0426888
75 3 O 1.26655 15.3101 57.8915 -1.2 1 0.0192371 0.0114348 0.00388133 0.00669335 0.00191227 0.00654206 0.00151182 0.0225434 0.0017838 0.00795327 0.00268883 0.0287825 0.0020778 0.019531 0.00274897 0.0347136 0.00303568 0.0257984 0.00468987 0.0513673
76 3 O -0.0269106 15.5178 50.6688 -1.2 1 0.158122 0.0468527 0.00425109 0.0115285 0.00336373 0.0125971 0.00328499 0.0253077 0.0045009 0.0157088 0.00284784 0.0295024 0.00408771 0.0259889 0.00582434 0.0342363 0.00490954 0.0306892 0.00812354 0.0416163
77 1 Mg -3.18391 14.1057 52.3125 1.2 1 0.125269 0.0410404 0.00197246 0.0088295 0.00217811 0.0109423 0.00265949 0.0242992 0.00349844 0.0141839 0.00287932 0.0297317 0.00390242 0.0237211 0.00502279 0.0339111 0.00461102 0.0282216 0.0074527 0.0422411
78 3 O 2.52432 15.503 50.4579 -1.2 1 0.16086 0.0483 0.00444376 0.0103567 0.00255477 0.0129473 0.00367087 0.0252752 0.00463911 0.0174393 0.00330184 0.0297401 0.00389231 0.0261527 0.00596355 0.0347967 0.00587509 0.0305191 0.00858068 0.0410643
79 1 Mg -1.71082 14.3498 55.0878 1.2 1 0.0572147 0.0269447 0.00524948 0.00709847 0.0020427 0.00666165 0.00200049 0.0232548 0.00286743 0.0105668 0.00282887 0.0293055 0.00251027 0.0215977 0.00379792 0.0350024 0.00433362 0.0267389 0.00631574 0.0478419
80 2 Si -1.7837 12.0469 53.2193 2.4 1 0.0991916 0.0366579 0.00335156 0.0084951 0.00278622 0.00830718 0.00177816 0.0234623 0.00364833 0.0118399 0.00277192 0.0281439 0.00381242 0.0226163 0.00435061 0.0343638 0.00541377 0.0271107 0.00723073 0.0442293
81 3 O -1.7579 10.5505 53.1742 -1.2 1 0.0983374 0.0353625 0.00338692 0.00764441 0.0028224 0.00793532 0.00175273 0.0226451 0.00306477 0.0107125 0.00275202 0.0278897 0.00353444 0.0207022 0.00497346 0.0340472 0.00467907 0.0257443 0.0084535 0.0436625
82 3 O -1.21337 13.3381 46.4311 -1.2 1 0.270042 0.0537811 0.0212841 0.0202995 0.00668269 0.0204867 0.00718151 0.0301732 0.00963243 0.0207932 0.00688758 0.0315066 0.00584229 0.0266102 0.00884113 0.0355624 0.0126555 0.0354477 0.0127866 0.0360052
83 3 O -3.01883 12.7861 53.971 -1.2 1 0.0864952 0.0329758 0.00294846 0.00710283 0.0019381 0.00884535 0.00175997 0.0236785 0.00245719 0.0115229 0.00220191 0.0284652 0.00336572 0.0222026 0.00385765 0.0347273 0.00422779 0.0271075 0.00668705 0.0453739
84 3 O -0.454675 12.6926 53.7928 -1.2 1 0.0881671 0.033798 0.00327903 0.00786815 0.00307876 0.00717743 0.00184183 0.0239136 0.00312009 0.0114778 0.00293468 0.0285727 0.00334048 0.0225831 0.00458474 0.0344471 0.00435878 0.0271176 0.00678076 0.0451865
85 1 Mg -2.97079 21.2852 57.2778 1.2 1 0.0225985 0.0150093 0.00482315 0.0056027 0.00145387 0.00561577 0.0012 0.0224518 0.00194031 0.00900946 0.00150464 0.0282179 0.00222102 0.020215 0.00269278 0.0338634 0.00316653 0.0255934 0.00399817 0.049431
86 1 Mg -1.5831 21.1217 49.8405 1.2 1 0.17869 0.048334 0.00665485 0.0124824 0.00294405 0.014817 0.00324462 0.0269031 0.00451912 0.017808 0.00404471 0.0307875 0.00401152 0.0257614 0.00552063 0.035124 0.00589336 0.0315277 0.00832377 0.040711
87 2 Si -1.09384 18.6291 47.9287 2.4 1 0.232686 0.0541339 0.0143279 0.0173054 0.00340537 0.0200194 0.00422024 0.0282001 0.00728613 0.0200782 0.00556636 0.0320207 0.00594353 0.028939 0.00615779 0.0359438 0.0100441 0.034654 0.0106676 0.0407712
88 3 O -1.02071 20.1985 47.9911 -1.2 1 0.228268 0.0528815 0.0138168 0.0172246 0.00374595 0.019761 0.00430088 0.0280577 0.00675337 0.019921 0.00590968 0.0315633 0.00548639 0.0279129 0.00712695 0.0362013 0.00848471 0.0347791 0.0101856 0.0404511
89 3 O -1.65002 17.5002 51.771 -1.2 1 0.136267 0.0417152 0.00245681 0.00970562 0.00309465 0.0113048 0.00155984 0.0249603 0.00312632 0.0147747 0.0024947 0.0298093 0.00414854 0.0242584 0.00429201 0.0344241 0.00522107 0.0290948 0.00716902 0.0431116
90 3 O -2.26174 18.0434 48.8281 -1.2 1 0.204546 0.0531961 0.0094234 0.0145819 0.00355953 0.0167891 0.0039153 0.0278016 0.00555534 0.0198233 0.00403229 0.0313618 0.00425824 0.0277189 0.00562684 0.0357105 0.00793579 0.0338702 0.00933548 0.0402687
91 1 Mg -0.0440435 16.5651 46.8269 1.2 1 0.256913 0.0546311 0.0185423 0.0194929 0.00471973 0.0235353 0.00537649 0.0309592 0.00902594 0.0218375 0.00646659 0.0332928 0.00653999 0.0293171 0.00827149 0.0357191 0.0104511 0.0369326 0.012014 0.0399246
92 3 O 0.37001 17.9877 48.3925 -1.2 1 0.213913 0.0537757 0.0108391 0.0158524 0.0034843 0.0176459 0.00325409 0.0280614 0.00625526 0.0197395 0.00390562 0.031148 0.00479734 0.0289448 0.00582623 0.0351823 0.00830943 0.0353138 0.00974989 0.0410199
93 1 Mg 1.38841 16.5296 54.6192 1.2 1 0.0726923 0.0297146 0.00346749 0.00631859 0.00177843 0.00752855 0.00270031 0.0230913 0.00216978 0.0112897 0.00241616 0.0291805 0.00318063 0.022242 0.00419994 0.03497 0.00414481 0.0267369 0.00599887 0.0466911
94 2 Si 1.36468 19.2833 56.3701 2.4 1 0.0346192 0.0195373 0.00541269 0.0063283 0.00152969 0.0058832 0.00178183 0.0223066 0.00180709 0.00923943 0.00363541 0.0274273 0.00246246 0.0208757 0.00449211 0.0343276 0.00311744 0.0257915 0.00557007 0.049991
95 3 O 1.39423 17.8239 56.3479 -1.2 1 0.038198 0.0204874 0.00523965 0.00635883 0.00153474 0.005699 0.00160429 0.0226095 0.00241639 0.00890725 0.00191721 0.0283029 0.0027475 0.0200353 0.00292679 0.0348219 0.00419401 0.0259587 0.00586116 0.0496421
96 3 O 1.45147 20.239 52.7294 -1.2 1 0.11094 0.0375542 0.00112595 0.00756598 0.00129923 0.0103437 0.00298321 0.0246952 0.00255207 0.013601 0.00301315 0.0290548 0.0038605 0.0231558 0.00458411 0.0338082 0.0040579 0.0284023 0.00684111 0.043669
97 3 O 0.0692207 20.0352 55.7639 -1.2 1 0.0482321 0.0242265 0.00507768 0.00614342 0.00156564 0.00623232 0.00212783 0.022884 0.00189871 0.0100903 0.00255419 0.0275149 0.00241403 0.0211258 0.00394984 0.0348052 0.00356954 0.0269404 0.00583303 0.0486573
98 3 O 2.65178 19.964 55.5295 -1.2 1 0.0493195 0.0252138 0.00568576 0.00610771 0.00146885 0.00638086 0.00249819 0.0225158 0.00204615 0.0101789 0.00255639 0.0273526 0.00225246 0.0214524 0.00377188 0.0347934 0.00305949 0.0270969 0.00580014 0.0480423
99 1 Mg -0.126194 18.8651 52.2079 1.2 1 0.117542 0.0415567 0.00174416 0.00877847 0.00244963 0.00941092 0.0020196 0.0249025 0.0028513 0.0145424 0.00280307 0.0296791 0.00328176 0.0238693 0.00408518 0.0342813 0.00418241 0.0291331 0.00699768 0.0427708
100 1 Mg 1.92402 18.5815 49.4545 1.2 1 0.180857 0.0525618 0.0051466 0.0120012 0.00182626 0.0142493 0.00381279 0.0262068 0.00454811 0.0189252 0.00357153 0.0306947 0.00455205 0.0273625 0.00500196 0.0359052 0.00642232 0.0329746 0.00923731 0.0412369
101 2 Si 1.38106 20.9117 51.2443 2.4 1 0.145423 0.046675 0.00187067 0.01026 0.00199838 0.0124141 0.00328304 0.0257042 0.00367769 0.0163195 0.00395209 0.0291998 0.00400761 0.0255317 0.00488144 0.0339477 0.00420864 0.0307104 0.00791384 0.0426608
102 3 O 1.48527 22.4795 51.3054 -1.2 1 0.144275 0.0443895 0.00261654 0.00942496 0.00185806 0.0120028 0.00316597 0.0242564 0.00398329 0.0148246 0.00270653 0.0292041 0.00385714 0.0244022 0.00401554 0.0341352 0.00589343 0.0297314 0.00718762 0.0421047
103 3 O 1.45223 19.8868 57.8328 -1.2 1 0.0171711 0.0122477 0.00364852 0.00587197 0.00149747 0.00585879 0.00122829 0.0227807 0.00160349 0.0083815 0.00243379 0.0278848 0.00211138 0.0196947 0.00264848 0.034372 0.00288713 0.0262708 0.00444524 0.0503145
104 3 O 0.0615419 20.2804 50.6669 -1.2 1 0.154848 0.0465469 0.0034554 0.0109539 0.00308432 0.0127072 0.00313178 0.0260487 0.00379688 0.0161129 0.00284445 0.0297066 0.00418901 0.0261847 0.00475536 0.034164 0.00408791 0.0310513 0.00763706 0.042138
105 1 Mg -3.09665 18.8643 52.3122 1.2 1 0.123585 0.0406941 0.00156158 0.00834022 0.00156709 0.0111726 0.00221835 0.0243698 0.00258983 0.0149371 0.00263355 0.0294265 0.00335578 0.02422 0.00359898 0.0343996 0.00457487 0.0287825 0.00640994 0.0423135
106 3 O 2.61548 20.2646 50.4626 -1.2 1 0.15795 0.0480615 0.00369433 0.0101137 0.00153353 0.013334 0.00336655 0.0257157 0.00348217 0.0174642 0.0032689 0.0293473 0.00388082 0.0259978 0.00473991 0.0346733 0.00471499 0.030945 0.00767317 0.041837
107 1 Mg -1.63952 19.0348 55.0654 1.2 1 0.0566483 0.0273132 0.00501469 0.00664132 0.00188845 0.00652213 0.00222741 0.0234002 0.00271183 0.0107303 0.00283846 0.0283023 0.00223459 0.0217242 0.00397603 0.0343397 0.00433327 0.0269056 0.00585938 0.0471068
108 2 Si -1.65306 16.85 53.2216 2.4 1 0.0999235 0.0362979 0.00212211 0.00808097 0.0025668 0.00824247 0.00134449 0.0237853 0.00321183 0.0130217 0.00251789 0.0288999 0.0029062 0.0234112 0.00389417 0.0344197 0.00471599 0.027902 0.00624523 0.0457484
109 3 O -1.72697 15.2587 53.1154 -1.2 1 0.0984813 0.0355175 0.00249225 0.008037 0.00258537 0.00852575 0.00138094 0.0237186 0.00325017 0.0120385 0.00278532 0.0291765 0.00290664 0.0224198 0.00500478 0.0347153 0.00410477 0.0275455 0.00727949 0.045598
110 3 O -1.12868 18.1227 46.4249 -1.2 1 0.268949 0.0544204 0.0202608 0.0208316 0.00512768 0.0235831 0.0058752 0.0318029 0.00790054 0.0216764 0.0057413 0.0337021 0.00660381 0.0271785 0.00859057 0.0374155 0.0123501 0.037704 0.0126389 0.0398618
111 3 O -2.84903 17.4936 53.9359 -1.2 1 0.0840173 0.0323805 0.00264084 0.0064147 0.00185833 0.00841086 0.00163777 0.0235389 0.00236202 0.012275 0.00222529 0.0281855 0.00257794 0.0231931 0.00345533 0.0349228 0.00352548 0.0273867 0.00582588 0.0457064
112 3 O -0.318472 17.5871 53.9 -1.2 1 0.0808211 0.0322424 0.00328275 0.00669499 0.0027068 0.00659958 0.00110517 0.023828 0.00205033 0.0118612 0.00185155 0.02808 0.00250598 0.022932 0.00391508 0.0351054 0.00402126 0.027673 0.00622536 0.0456368
113 1 Mg -2.97111 25.9261 57.3409 1.2 1 0.0215109 0.0160795 0.00464273 0.00599905 0.00157304 0.00605013 0.00145213 0.0226811 0.00171591 0.00914477 0.001348 0.0276546 0.00178167 0.0197478 0.00265182 0.032959 0.00274703 0.0256467 0.00357493 0.048026
114 1 Mg -1.48778 25.88 49.8402 1.2 1 0.18047 0.0497829 0.00696636 0.0131027 0.00283426 0.0155328 0.00302796 0.0266148 0.00444145 0.0174551 0.00408154 0.0308775 0.00384922 0.0259366 0.00568518 0.0346372 0.0057126 0.0314945 0.00797359 0.0397149
115 2 Si -1.00491 23.3922 47.9274 2.4 1 0.231639 0.0543801 0.0143965 0.0178614 0.0032296 0.0205169 0.00433631 0.0281781 0.00713708 0.0200162 0.00542069 0.0320079 0.00584594 0.0284535 0.00585855 0.0357339 0.00906267 0.0346059 0.0103628 0.0403001
116 3 O -0.927602 24.9615 47.9909 -1.2 1 0.229157 0.0539744 0.0143375 0.0176135 0.00370288 0.0203591 0.00416073 0.0281523 0.00690597 0.0197301 0.00572646 0.0315937 0.00595389 0.0277911 0.00741427 0.0359204 0.00842069 0.0346447 0.00987198 0.0397025
117 3 O -1.55795 22.2588 51.7696 -1.2 1 0.13428 0.0417677 0.00211785 0.00989748 0.00275349 0.0112295 0.00169322 0.0248195 0.00271306 0.014471 0.00275758 0.0291617 0.00388758 0.0239656 0.00407868 0.0335662 0.00524158 0.0286984 0.00699772 0.0424916
118 3 O -2.17411 22.8111 48.8277 -1.2 1 0.20429 0.054062 0.00950097 0.0149118 0.00283244 0.0169679 0.00387625 0.028119 0.00514262 0.0199656 0.0041991 0.0314544 0.00474774 0.0274903 0.00526937 0.0356978 0.00733266 0.0337791 0.00874148 0.0399913
119 1 Mg 0.0423997 21.3296 46.8225 1.2 1 0.257007 0.0549174 0.0182255 0.0203713 0.00406701 0.0243622 0.00539098 0.0316283 0.00844316 0.0222605 0.00626152 0.0337555 0.00689398 0.0290233 0.00840481 0.0358257 0.0102491 0.0372328 0.0121937 0.0400829
120 3 O 0.458537 22.7495 48.3911 -1.2 1 0.212163 0.0540097 0.0106352 0.0160978 0.0031562 0.0177435 0.00333746 0.0281644 0.0058948 0.0195803 0.00367463 0.030983 0.00514042 0.0287018 0.00566274 0.0352901 0.00749015 0.0349847 0.00914377 0.040943