ITEM: TIMESTEP
37200
ITEM: NUMBER OF ATOMS
10500
ITEM: BOX BOUNDS xy xz yz pp pp pp
0	8.9688	2.9896
0	118.725	0
0	252.977	0
ITEM: ATOMS id type element xu yu zu q Q_1 Q_2 Q_3 Q_4 Q_5 Q_6 Q_7 Q_8 Q_9 Q_10 Q_11 Q_12 Q_13 Q_14 Q_15 Q_16 Q_17 Q_18 Q_19 Q_20 Q_21
1 1 Mg -3.175 7.10988 57.4928 1.2 1 0.0235007 0.0145825 0.00452854 0.00582946 0.00172784 0.00648354 0.000972015 0.0220493 0.00187661 0.00851874 0.0022652 0.0283848 0.00326259 0.0195511 0.00265337 0.0334302 0.00334478 0.0252232 0.00511209 0.0479236
2 1 Mg -1.82655 6.90154 50.0912 1.2 1 0.174234 0.0472445 0.00575509 0.0102164 0.00311487 0.00844138 0.00425227 0.0226803 0.00481393 0.0143306 0.00426882 0.025012 0.00455253 0.0209076 0.00628775 0.0298134 0.00561503 0.0255184 0.00829911 0.0346191
3 2 Si -0.257935 3.96038 48.0876 2.4 1 0.223108 0.0527706 0.0114579 0.0126326 0.00227575 0.00935073 0.00343771 0.0202477 0.00590526 0.0168931 0.00403511 0.0241718 0.00497919 0.0207712 0.00545262 0.0272484 0.00711992 0.0250083 0.00798246 0.0325747
4 3 O -0.335812 5.46814 47.6264 -1.2 1 0.232222 0.0524967 0.0134341 0.0139987 0.00299847 0.0101726 0.00448233 0.0209833 0.0064927 0.0173434 0.00468261 0.0246382 0.00464048 0.0211829 0.00552937 0.0273191 0.00746331 0.0254828 0.00878811 0.0312074
5 3 O -2.03793 3.43377 51.8941 -1.2 1 0.128288 0.0401852 0.00224002 0.0070477 0.00197941 0.00668775 0.00280179 0.0205747 0.00268151 0.0113394 0.00345383 0.0251654 0.0036369 0.0182236 0.0046273 0.0295197 0.00509847 0.0236367 0.0074704 0.0377508
6 3 O -1.54015 3.53929 48.9521 -1.2 1 0.202688 0.0512486 0.00888397 0.0111516 0.00250755 0.00828138 0.0034326 0.0202162 0.0052212 0.0152837 0.00438738 0.0238652 0.00435102 0.020122 0.00620114 0.028063 0.00588553 0.0244534 0.00821073 0.0326985
7 1 Mg 1.82954 2.54582 47.1376 1.2 1 0.24525 0.0520604 0.0158557 0.0156831 0.00308888 0.0110391 0.00348558 0.0200588 0.0055569 0.0157611 0.00489621 0.0241195 0.00589245 0.0194475 0.00746966 0.0256106 0.00693401 0.0238391 0.00816676 0.0306044
8 3 O 1.22989 3.66364 48.7877 -1.2 1 0.205428 0.0502128 0.00928908 0.0122985 0.00208506 0.00932333 0.00393049 0.020346 0.00463722 0.0150111 0.00361085 0.0237589 0.00482992 0.0197309 0.00635173 0.027369 0.00513262 0.0242658 0.0083525 0.0333802
9 1 Mg 1.10016 2.40016 54.7092 1.2 1 0.069553 0.0289448 0.00441999 0.00441571 0.0015849 0.0050962 0.00264736 0.0211218 0.00280404 0.00976278 0.002884 0.026399 0.00413572 0.0194106 0.0046305 0.032478 0.00333796 0.0238946 0.00694945 0.0427206
10 2 Si 1.19844 5.02784 56.4253 2.4 1 0.0336629 0.0187878 0.00552125 0.0059904 0.0015308 0.00629861 0.0018442 0.0217376 0.00188113 0.00863935 0.00321259 0.0267875 0.00280544 0.0196908 0.00464053 0.0332654 0.0039271 0.0250027 0.00711656 0.0480954
11 3 O 1.20604 3.39671 56.5364 -1.2 1 0.0355454 0.0197165 0.00544497 0.00519309 0.0015809 0.00539841 0.00226469 0.0218717 0.0025886 0.00843564 0.0022315 0.027842 0.00288907 0.0188442 0.00386912 0.0333822 0.00378291 0.0250331 0.00572337 0.0468067
12 3 O 1.10813 6.07342 52.8172 -1.2 1 0.107351 0.0360386 0.00225232 0.00671531 0.00227923 0.00688027 0.00325126 0.022043 0.00318739 0.0110886 0.00301417 0.0259498 0.00419402 0.0195773 0.00489517 0.0310734 0.00464078 0.0249341 0.00710167 0.039312
13 3 O -0.0621719 5.62857 55.6982 -1.2 1 0.0485135 0.0238698 0.00547762 0.00525265 0.00194854 0.00547165 0.00187347 0.0216005 0.0021834 0.00952987 0.0027118 0.027065 0.00316832 0.0195737 0.00388368 0.0331366 0.00360107 0.0246337 0.00631539 0.0457287
14 3 O 2.50842 5.82339 55.7663 -1.2 1 0.0449387 0.0234995 0.00583121 0.00516114 0.00128989 0.00592955 0.00231313 0.021929 0.00178322 0.00909795 0.00293412 0.0270909 0.00311933 0.0198002 0.00469817 0.0337682 0.00377271 0.0253615 0.00753193 0.0461174
15 1 Mg -0.459401 4.67631 52.2426 1.2 1 0.124195 0.0401327 0.00192944 0.00693517 0.00228412 0.00630951 0.00239459 0.0214068 0.00293939 0.0124136 0.00281585 0.0259064 0.00375241 0.019523 0.00441772 0.0304293 0.00430331 0.0239165 0.00712744 0.0371262
16 1 Mg 2.79456 3.9971 49.9987 1.2 1 0.176041 0.0491833 0.00545622 0.0102219 0.00235903 0.00775639 0.0045751 0.0208852 0.00347405 0.0147591 0.00262296 0.0244284 0.00465059 0.0202578 0.00645118 0.0288611 0.00470047 0.0247619 0.0088247 0.0341276
17 2 Si 1.16169 6.59457 51.2556 2.4 1 0.14828 0.0456306 0.00219398 0.00904676 0.00227011 0.00812553 0.00379323 0.0220532 0.00443216 0.0134696 0.00406021 0.024446 0.00405688 0.021372 0.00653382 0.0307568 0.00486932 0.025481 0.00856585 0.0365558
18 3 O 1.28989 8.18905 51.2909 -1.2 1 0.144271 0.0443907 0.00232175 0.00944334 0.00224382 0.00863989 0.00390567 0.021592 0.00421924 0.0127464 0.00346736 0.0261554 0.00356208 0.0211576 0.00497496 0.0312593 0.00561267 0.0256339 0.00805584 0.0375239
19 3 O 1.18285 5.6108 57.9004 -1.2 1 0.0177464 0.0120229 0.0037055 0.00610055 0.00119238 0.00634981 0.00122081 0.0222289 0.00133191 0.0082122 0.00287752 0.0281053 0.00251858 0.0193413 0.00351581 0.0338073 0.00317777 0.0257974 0.00474441 0.0489086
20 3 O -0.184847 6.06029 50.6845 -1.2 1 0.159823 0.0447276 0.00422981 0.00942864 0.00293953 0.00757836 0.00397809 0.0219519 0.00471334 0.0137239 0.00297368 0.0245184 0.00406627 0.0205716 0.00546682 0.0291399 0.00525157 0.0249524 0.00773467 0.0359105
21 1 Mg -3.49704 4.67769 52.6661 1.2 1 0.11566 0.0379855 0.00175582 0.00622057 0.00209117 0.00659445 0.00288602 0.0209848 0.00353699 0.0111834 0.00348326 0.0260192 0.00365219 0.0189602 0.00463891 0.0300553 0.0042434 0.0234091 0.00744879 0.0385976
22 3 O 2.48581 5.93312 50.6539 -1.2 1 0.157867 0.0471701 0.00361228 0.00850535 0.00165271 0.0083483 0.0039504 0.0216852 0.00427495 0.0139781 0.00357182 0.0244596 0.00441397 0.0212826 0.00581585 0.0303302 0.00450095 0.0252811 0.00837045 0.0356753
23 1 Mg -1.71498 4.61296 55.1457 1.2 1 0.0534366 0.0260158 0.00593181 0.00513017 0.00170384 0.00540703 0.00180044 0.0216028 0.00270719 0.0096331 0.00304824 0.0272289 0.00229593 0.0197269 0.00480482 0.0331052 0.00437282 0.02471 0.00674472 0.0442344
24 2 Si -2.05202 2.61999 53.4196 2.4 1 0.0988912 0.0345711 0.00304948 0.00569768 0.00246138 0.00566442 0.00201002 0.0210921 0.00280149 0.0108633 0.00296409 0.0253441 0.00317765 0.0190526 0.00419975 0.0311518 0.00417868 0.0239432 0.00671646 0.0402937
25 3 O -2.06816 1.07495 53.2085 -1.2 1 0.100323 0.035164 0.00281513 0.0057174 0.00290231 0.00541802 0.00250505 0.0205316 0.00280173 0.0103732 0.00271112 0.0256549 0.00348814 0.0185453 0.00504817 0.0311885 0.00379001 0.0237262 0.00709533 0.0401474
26 3 O -0.0467762 2.97103 46.8385 -1.2 1 0.252107 0.052854 0.0165909 0.0150418 0.00307464 0.00992375 0.00350262 0.0197886 0.006439 0.0167349 0.00550094 0.0236754 0.00703536 0.0191973 0.00829446 0.0256584 0.00707749 0.0240602 0.00912834 0.0319566
27 3 O -3.29027 3.31894 54.1347 -1.2 1 0.0812766 0.0310882 0.0037062 0.0045035 0.00196383 0.0056728 0.00223218 0.0218636 0.00251304 0.0103237 0.00249025 0.0256528 0.00299456 0.0191369 0.00445512 0.0312763 0.00379243 0.0236878 0.00738821 0.0416284
28 3 O -0.81127 3.21049 54.1706 -1.2 1 0.0816051 0.0314194 0.00392105 0.00493914 0.00204392 0.00588784 0.00168767 0.021393 0.00228428 0.0104047 0.00211468 0.0259648 0.00305346 0.0197268 0.00418816 0.0320644 0.00332357 0.024262 0.00631852 0.0411627
29 1 Mg -3.1951 11.5806 57.4694 1.2 1 0.0234109 0.0146325 0.00441718 0.00612772 0.00119925 0.00623043 0.00143251 0.0222108 0.00184392 0.00921171 0.00207217 0.0279978 0.00237358 0.0204417 0.00268061 0.0337051 0.00283169 0.0252099 0.00366024 0.0466862
30 1 Mg -1.75014 11.5838 49.8362 1.2 1 0.183158 0.0490043 0.00750978 0.0126177 0.00420307 0.0124814 0.0048326 0.0237757 0.005478 0.0153707 0.004997 0.0277648 0.00430083 0.0239447 0.00666669 0.0329256 0.00684546 0.0280067 0.00925542 0.0363483
31 2 Si -1.18003 9.02138 47.9309 2.4 1 0.237615 0.0524838 0.0149945 0.0158639 0.00515654 0.0125914 0.0073676 0.0228765 0.0082987 0.0168016 0.00677909 0.0259663 0.00459028 0.0229376 0.00638979 0.0300622 0.00853581 0.0273229 0.0113542 0.033929
32 3 O -1.23224 10.5991 47.9811 -1.2 1 0.226009 0.0534535 0.0130702 0.016035 0.0050829 0.0135682 0.00623644 0.0240269 0.00801713 0.0169575 0.00665376 0.0271499 0.00472005 0.0239579 0.00724293 0.0319239 0.00861776 0.0290315 0.00980443 0.0341605
33 3 O -1.79016 8.01447 51.8693 -1.2 1 0.132786 0.0410681 0.00188446 0.00880857 0.0034077 0.00727741 0.00296614 0.0219784 0.00354378 0.0122698 0.00364001 0.026355 0.00349459 0.020688 0.00449411 0.0316268 0.00542278 0.0246758 0.00832539 0.0383408
34 3 O -2.30986 8.37215 48.8528 -1.2 1 0.204799 0.0531618 0.00937599 0.0126599 0.00387559 0.0102147 0.00605859 0.0230885 0.00636788 0.0169601 0.00447548 0.0255241 0.00411453 0.0231181 0.005846 0.0309171 0.00677389 0.0269064 0.00914287 0.0339373
35 1 Mg 0.154883 7.08234 46.8007 1.2 1 0.257469 0.0527787 0.0179967 0.0160713 0.0053097 0.0130113 0.00819849 0.023553 0.00807874 0.0172882 0.00674636 0.0248271 0.00679392 0.0217928 0.0080649 0.0286984 0.00933339 0.0273709 0.0120735 0.0314278
36 3 O 0.325447 8.50934 48.3809 -1.2 1 0.216816 0.0536062 0.0110883 0.0143703 0.00362847 0.0116923 0.00618307 0.0237018 0.00678787 0.0167732 0.00533038 0.0251306 0.00486391 0.024132 0.00550412 0.030008 0.007203 0.0276741 0.00987525 0.0333634
37 1 Mg 1.24182 7.14825 54.6454 1.2 1 0.0701382 0.0295798 0.00469406 0.00560182 0.00211574 0.00608034 0.00236302 0.0216491 0.00272353 0.0100696 0.00305954 0.0266008 0.00364776 0.020347 0.00340438 0.0329167 0.00370386 0.0243323 0.00704456 0.0426523
38 2 Si 1.1255 9.67456 56.4813 2.4 1 0.0351194 0.0197912 0.00545784 0.00672084 0.00169041 0.00603232 0.00181389 0.0212179 0.00227839 0.00817997 0.00292479 0.0264567 0.00271959 0.0205523 0.00355412 0.0334037 0.00367158 0.0250655 0.0059277 0.0470015
39 3 O 1.23848 8.12989 56.6642 -1.2 1 0.0316268 0.0181824 0.00531756 0.00607293 0.00129766 0.00607366 0.00143049 0.0214156 0.00249585 0.00791773 0.00282079 0.0273637 0.00291579 0.0191133 0.00357019 0.0331125 0.00361755 0.0247332 0.00593388 0.0471052
40 3 O 1.28624 10.7248 52.7351 -1.2 1 0.11229 0.0384478 0.00173567 0.00829152 0.0021887 0.00959305 0.00300129 0.0223554 0.00286713 0.0117419 0.00370109 0.0267453 0.00414435 0.021759 0.00444599 0.0328413 0.0042774 0.0264139 0.00728659 0.0404327
41 3 O -0.150385 10.3658 55.8688 -1.2 1 0.049573 0.0244825 0.00514121 0.00629066 0.0014972 0.00621579 0.00198296 0.0221029 0.00147066 0.00915534 0.0022009 0.026832 0.00240744 0.0204843 0.00328976 0.0342202 0.00304899 0.0258308 0.00662011 0.0460396
42 3 O 2.29542 10.286 55.696 -1.2 1 0.0468855 0.0245568 0.00605844 0.00644079 0.00113951 0.00623929 0.00177743 0.02166 0.0018226 0.00929911 0.00272489 0.0265906 0.00267704 0.02108 0.00324 0.0343441 0.00292666 0.0257506 0.00613659 0.0457858
43 1 Mg -0.262694 9.34741 52.2523 1.2 1 0.114085 0.0405275 0.00239492 0.00845704 0.002824 0.00786849 0.00245934 0.0228137 0.00307835 0.0117788 0.00339699 0.026908 0.00347286 0.0212355 0.00457223 0.0322798 0.00446983 0.0259842 0.00757283 0.0392971
44 1 Mg 1.87648 9.01537 49.4629 1.2 1 0.184396 0.053246 0.00571443 0.0116974 0.00279016 0.0104656 0.00612407 0.0231505 0.00571034 0.0162025 0.00427114 0.0262517 0.00460313 0.0237091 0.00573664 0.0312429 0.00557921 0.02746 0.00934129 0.035221
45 2 Si 1.21415 11.3799 51.2378 2.4 1 0.146375 0.0467409 0.00206735 0.0105109 0.00261451 0.0107895 0.00350922 0.0232329 0.00419707 0.014047 0.00442686 0.0260043 0.00431083 0.0240445 0.00484047 0.032454 0.00479755 0.0280789 0.00863519 0.0391457
46 3 O 1.31634 12.9512 51.3023 -1.2 1 0.148753 0.0461812 0.00325583 0.0104084 0.00235686 0.0114854 0.0038009 0.0230613 0.00460777 0.0142849 0.00330457 0.0274538 0.00449398 0.0248822 0.00436572 0.033552 0.00547402 0.0282701 0.00767015 0.0392879
47 3 O 1.25045 10.366 57.9304 -1.2 1 0.0189879 0.0129818 0.00362932 0.00641096 0.00127411 0.00636689 0.0010742 0.0221953 0.00152277 0.00790252 0.00259499 0.0275068 0.00221712 0.0198025 0.00293283 0.0335372 0.00259564 0.025385 0.00371918 0.0484299
48 3 O -0.115718 10.7564 50.681 -1.2 1 0.154635 0.0468231 0.00308755 0.0111668 0.00330225 0.0103456 0.00359883 0.0235947 0.0044766 0.0139397 0.00348818 0.0268069 0.00411379 0.023317 0.00552579 0.0318424 0.0049466 0.0271137 0.00882129 0.0382243
49 1 Mg -3.26386 9.35564 52.3622 1.2 1 0.121888 0.0398951 0.00143953 0.00777599 0.00213744 0.00919022 0.0034722 0.0223147 0.00343694 0.0123964 0.00389331 0.0264512 0.00324669 0.0217551 0.00482341 0.0326161 0.00458142 0.0257494 0.0083597 0.0381684
50 3 O 2.45216 10.7265 50.4558 -1.2 1 0.162234 0.0491322 0.00383801 0.0102876 0.00272558 0.0112973 0.00467761 0.0227797 0.00481744 0.0151611 0.00402138 0.0265375 0.00380153 0.0238907 0.00597523 0.0328871 0.00555787 0.0274678 0.00883272 0.0370658
51 1 Mg -1.77327 9.46426 55.12 1.2 1 0.0577835 0.0277274 0.00522394 0.00613259 0.00209571 0.0063552 0.00241732 0.0220965 0.00226678 0.00936412 0.00304144 0.0268964 0.00279437 0.0212285 0.00383974 0.0335801 0.00451854 0.0253147 0.00712767 0.0444441
52 2 Si -1.79632 7.33587 53.4113 2.4 1 0.0958635 0.0359971 0.00328932 0.00683867 0.0030752 0.00623054 0.00217462 0.0214865 0.00338268 0.0112243 0.00303066 0.0261728 0.00285313 0.0209588 0.00342859 0.0321831 0.0050877 0.0243409 0.00717585 0.0409852
53 3 O -1.76921 5.74676 53.3205 -1.2 1 0.0978461 0.0333829 0.00224446 0.00572505 0.00265828 0.00591784 0.00200214 0.0211683 0.00335175 0.010416 0.00346452 0.0258023 0.00260062 0.0194794 0.00479213 0.0318294 0.00383019 0.0240424 0.0075711 0.0402951
54 3 O -1.19417 8.46968 46.4488 -1.2 1 0.26984 0.0531927 0.0204425 0.0180039 0.00545229 0.0141785 0.00859051 0.0245794 0.00831047 0.0171165 0.00707348 0.0252019 0.00579618 0.0213623 0.00894714 0.0299937 0.00992553 0.0289781 0.0110482 0.0309796
55 3 O -3.00747 8.02016 54.0039 -1.2 1 0.0850191 0.0315097 0.00318542 0.00592091 0.00246558 0.00751469 0.00209146 0.0217347 0.00268207 0.0106384 0.00270996 0.025434 0.00281998 0.0206792 0.00357967 0.0327725 0.00483812 0.0249256 0.00771516 0.0413934
56 3 O -0.476572 8.0538 53.9531 -1.2 1 0.0786855 0.0318863 0.00454314 0.00592583 0.00285968 0.00588525 0.00153168 0.0216262 0.00224642 0.0103607 0.00271418 0.0258913 0.00268093 0.020568 0.00409873 0.0329954 0.00390264 0.0251452 0.00778489 0.0421994
57 1 Mg -3.01373 16.37 57.2167 1.2 1 0.0234438 0.0155753 0.00546275 0.0061733 0.00108597 0.0070275 0.00160718 0.0217327 0.00161472 0.00947433 0.00148153 0.0270282 0.0019586 0.02072 0.00270228 0.0327199 0.00270657 0.0251725 0.00365386 0.0453213
58 1 Mg -1.6714 16.3544 49.8412 1.2 1 0.179728 0.0493453 0.00738653 0.0128374 0.00325128 0.0148836 0.00314518 0.0252825 0.00466851 0.0173812 0.00467314 0.0301868 0.00415067 0.0260162 0.00676456 0.0344991 0.00551732 0.0304059 0.00888727 0.0391983
59 2 Si -1.18567 13.8526 47.9314 2.4 1 0.233986 0.0552216 0.0150754 0.0176607 0.00463295 0.0179436 0.0050802 0.0269935 0.00865607 0.0195689 0.00581624 0.0302025 0.0057226 0.028339 0.0064296 0.0342879 0.00940097 0.0319636 0.0104023 0.036599
60 3 O -1.09664 15.4205 47.9915 -1.2 1 0.232447 0.0544099 0.0149195 0.0178319 0.0049698 0.0193186 0.00467617 0.027562 0.00779929 0.019791 0.00633434 0.0305944 0.00580802 0.0276873 0.00787785 0.0352434 0.00865732 0.0333962 0.00986704 0.0373406
61 3 O -1.73493 12.7491 51.7772 -1.2 1 0.13465 0.0422579 0.00235651 0.0103586 0.00339497 0.0100897 0.00201638 0.0233932 0.00328625 0.013253 0.00293768 0.027659 0.00419784 0.023288 0.00449125 0.0332292 0.00541665 0.0270388 0.00813673 0.040278
62 3 O -2.36115 13.2717 48.8238 -1.2 1 0.206205 0.0545224 0.0100322 0.0147089 0.00465583 0.0143674 0.00478512 0.0261108 0.00657645 0.0190395 0.00485169 0.029351 0.0046549 0.0269117 0.00565902 0.0344272 0.0077487 0.0308847 0.00912814 0.0363177
63 1 Mg -0.159928 11.7639 46.8533 1.2 1 0.258581 0.0546986 0.019044 0.0191909 0.00589522 0.0192875 0.00718175 0.0278935 0.00966427 0.0193827 0.00761878 0.029562 0.00648262 0.0269536 0.00773113 0.0332797 0.0104872 0.0325367 0.0125285 0.0346268
64 3 O 0.2623 13.1866 48.413 -1.2 1 0.215606 0.0544171 0.0114451 0.0159593 0.00388821 0.0159337 0.00452493 0.0263903 0.00735583 0.0182324 0.00482957 0.0287495 0.00474698 0.0275968 0.00514488 0.0334986 0.00840787 0.0320887 0.00918702 0.0369481
65 1 Mg 1.39174 11.6839 54.6138 1.2 1 0.0734565 0.0317826 0.00386515 0.00662684 0.00212268 0.00754442 0.00230855 0.021915 0.00239988 0.0107656 0.00237347 0.0266505 0.00357097 0.0227668 0.0032115 0.0338945 0.00366205 0.0254211 0.00617992 0.0431734
66 2 Si 1.36503 14.4042 56.4375 2.4 1 0.0334239 0.0198526 0.00577339 0.00691391 0.00139568 0.00672362 0.00164075 0.0217835 0.00185012 0.00879899 0.00246258 0.0263823 0.00251788 0.0216318 0.00360652 0.0332742 0.00321062 0.0255652 0.00484424 0.0475901
67 3 O 1.36834 12.9337 56.6892 -1.2 1 0.0300887 0.0182089 0.00538785 0.00651454 0.00114332 0.00599352 0.00170069 0.0218429 0.00286374 0.00822897 0.00164467 0.0270495 0.00263933 0.0205431 0.00294802 0.0339176 0.00338788 0.0255692 0.00464312 0.0478004
68 3 O 1.36565 15.4813 52.729 -1.2 1 0.111664 0.0393248 0.00127651 0.0084574 0.00193138 0.0108025 0.00332688 0.0231898 0.00301148 0.0131331 0.00314384 0.0276709 0.00418179 0.0233402 0.00406469 0.033669 0.00398125 0.0281279 0.00654365 0.0423
69 3 O 0.0689359 15.1253 55.8969 -1.2 1 0.0447109 0.0242694 0.00553475 0.00654436 0.00100644 0.00714246 0.00206372 0.0218034 0.00161292 0.00956593 0.00158995 0.0267256 0.00251349 0.021382 0.00313213 0.0341754 0.00277266 0.0261621 0.00527304 0.0459264
70 3 O 2.65959 15.0547 55.7517 -1.2 1 0.0435761 0.024148 0.00616624 0.00648723 0.00112813 0.00678461 0.00192206 0.0224417 0.00173211 0.00976985 0.00186506 0.0263609 0.00265032 0.0218692 0.00356111 0.0341788 0.0029731 0.0265485 0.00488705 0.0458079
71 1 Mg -0.206989 14.1049 52.2121 1.2 1 0.117201 0.0422988 0.00134507 0.00932958 0.00254997 0.00914244 0.00247018 0.0232668 0.00277818 0.0130434 0.00319018 0.0278803 0.00379538 0.0236604 0.00419645 0.0334471 0.00365988 0.0274824 0.00731249 0.0404043
72 1 Mg 1.82591 13.8102 49.4556 1.2 1 0.183104 0.0537315 0.00594726 0.0124301 0.00271398 0.0135228 0.00449368 0.0246005 0.00538158 0.0173561 0.00479249 0.0286477 0.00474879 0.0267145 0.00589826 0.0346484 0.00621942 0.0302716 0.00897746 0.0373949
73 2 Si 1.29285 16.1518 51.2434 2.4 1 0.147038 0.0479573 0.00242014 0.0110159 0.00217816 0.0125731 0.00346355 0.0243253 0.00401664 0.0156875 0.00505407 0.027599 0.00440721 0.0256447 0.0055378 0.0340717 0.0040679 0.0303554 0.00836311 0.0407169
74 3 O 1.39496 17.7199 51.3047 -1.2 1 0.145104 0.0456401 0.00273064 0.0103111 0.00157967 0.0127859 0.00303503 0.0238476 0.00405571 0.0153804 0.00331632 0.0286835 0.00395522 0.0248678 0.00414886 0.0342133 0.00510922 0.0296155 0.006988 0.0413991
75 3 O 1.48961 15.128 57.9532 -1.2 1 0.0176418 0.0123375 0.00410499 0.00614579 0.00117974 0.006525 0.00141673 0.0217335 0.00153508 0.00838856 0.00224878 0.0268123 0.00238093 0.0206207 0.00280202 0.0331657 0.00250892 0.024678 0.00346266 0.0462877
76 3 O -0.0269106 15.5178 50.6688 -1.2 1 0.158842 0.0484747 0.00457156 0.0118036 0.00299938 0.0127017 0.00349491 0.0247099 0.00407828 0.0159633 0.00313196 0.028382 0.00422083 0.0263125 0.00489377 0.0335319 0.00421272 0.0298873 0.00803194 0.0400135
77 1 Mg -3.18391 14.1057 52.3125 1.2 1 0.124744 0.042386 0.00150361 0.00911394 0.0023537 0.0111526 0.00257843 0.0234586 0.00322246 0.0137464 0.00273853 0.0277224 0.00377964 0.0241879 0.00366422 0.033185 0.00445567 0.0278065 0.00690181 0.0399566
78 3 O 2.52432 15.503 50.4579 -1.2 1 0.163426 0.0505305 0.00463817 0.011223 0.00221654 0.0135253 0.00389278 0.0247101 0.00472778 0.0174598 0.00383393 0.0286318 0.00422157 0.0266437 0.00564993 0.0340356 0.00498632 0.0299804 0.00797572 0.0393393
79 1 Mg -1.47148 13.9225 55.2024 1.2 1 0.0541383 0.0274753 0.00530654 0.00691573 0.00193496 0.00648523 0.00211682 0.0225339 0.00222962 0.0102202 0.00276359 0.0272081 0.00264319 0.0223557 0.0033246 0.034229 0.00322856 0.0257064 0.00555927 0.0449713
80 2 Si -1.52659 11.9644 53.2168 2.4 1 0.098512 0.0375953 0.00291043 0.00845799 0.00293327 0.00815987 0.00160414 0.0224124 0.00300925 0.0116528 0.00275911 0.0265024 0.00354333 0.0229141 0.00314231 0.0333384 0.00475884 0.0265287 0.00705665 0.042346
81 3 O -1.67472 10.4129 53.2031 -1.2 1 0.0986355 0.0357458 0.002829 0.00744957 0.00307419 0.00777282 0.0018115 0.02163 0.00270472 0.0105004 0.0031786 0.0263895 0.00309157 0.0210629 0.00439256 0.033005 0.00392736 0.0253663 0.00827267 0.0416658
82 3 O -1.21337 13.3381 46.4311 -1.2 1 0.269812 0.0541172 0.0211722 0.0207456 0.00669635 0.0204616 0.0069054 0.029912 0.00966355 0.0206051 0.00649406 0.030787 0.00601699 0.0266087 0.00880463 0.0359506 0.0123292 0.0347466 0.0122366 0.0349708
83 3 O -2.79908 12.6332 53.9547 -1.2 1 0.0849658 0.0337577 0.00265884 0.00694358 0.00214485 0.00855367 0.00154143 0.0225005 0.00241033 0.0113844 0.00218209 0.0265586 0.00315808 0.0230027 0.00314044 0.0337509 0.00365199 0.0264023 0.00639338 0.0428198
84 3 O -0.187868 12.7183 53.7787 -1.2 1 0.0867906 0.0347957 0.00276002 0.00729368 0.00236819 0.00759293 0.00142793 0.0231073 0.00210689 0.0114218 0.00238865 0.0265231 0.00291698 0.0232199 0.00314969 0.0336201 0.00324277 0.026659 0.00641669 0.0428529
85 1 Mg -3.09679 21.3125 57.3157 1.2 1 0.0210555 0.0152689 0.00480466 0.0058618 0.00142953 0.00704504 0.00143221 0.0214418 0.00200808 0.00976946 0.0016976 0.0271278 0.00178313 0.020098 0.00239923 0.0318875 0.00297234 0.0249338 0.00373812 0.0439309
86 1 Mg -1.5831 21.1217 49.8405 1.2 1 0.178848 0.0494013 0.00693781 0.012932 0.00294568 0.0158122 0.00260721 0.0257765 0.00396735 0.0179039 0.00479465 0.0308923 0.0036566 0.0256243 0.00647966 0.0345913 0.0053529 0.031544 0.0086983 0.0400753
87 2 Si -1.09384 18.6291 47.9287 2.4 1 0.232489 0.0555627 0.01474 0.017376 0.00398055 0.0209647 0.00391506 0.028014 0.00769261 0.0205014 0.00576287 0.0321396 0.00619192 0.0286371 0.00680543 0.0359177 0.00928487 0.0340559 0.00988871 0.0396699
88 3 O -1.02071 20.1985 47.9911 -1.2 1 0.230062 0.054012 0.0142909 0.0174871 0.00439197 0.0211393 0.00382563 0.027652 0.00689398 0.0203292 0.00597754 0.0316721 0.00568827 0.0276912 0.0077157 0.0359953 0.00787904 0.0343578 0.00991679 0.0399011
89 3 O -1.65002 17.5002 51.771 -1.2 1 0.13434 0.0428901 0.00248373 0.0103221 0.00274398 0.0115821 0.00148582 0.0239278 0.0028363 0.0143833 0.0028538 0.0285521 0.0041463 0.0238121 0.0048396 0.033716 0.00505758 0.0280904 0.00741702 0.0412541
90 3 O -2.26174 18.0434 48.8281 -1.2 1 0.203541 0.0542394 0.00949773 0.0146729 0.00358164 0.0172713 0.00336063 0.0270058 0.00573229 0.0197874 0.00411966 0.0309001 0.004521 0.0274764 0.0060294 0.0354359 0.00702472 0.0329338 0.0088469 0.0387908
91 1 Mg -0.0440435 16.5651 46.8269 1.2 1 0.255362 0.0556171 0.0182834 0.0198352 0.00529268 0.0240183 0.00521719 0.0307983 0.00916434 0.0219098 0.00664049 0.033248 0.00670249 0.0289522 0.0083002 0.035859 0.00955568 0.036228 0.0108202 0.0387154
92 3 O 0.37001 17.9877 48.3925 -1.2 1 0.215602 0.0553754 0.0111825 0.0162041 0.00339902 0.0184806 0.00324731 0.0277556 0.00641531 0.0200489 0.00417597 0.031143 0.00505181 0.0285979 0.00585484 0.0350205 0.00788004 0.0349085 0.00873959 0.0398131
93 1 Mg 1.23933 16.562 54.5992 1.2 1 0.0709951 0.031961 0.0040245 0.00704262 0.00165108 0.00801954 0.00233956 0.0223082 0.0020461 0.0116546 0.00231811 0.0270044 0.00336886 0.0225777 0.00361349 0.0342623 0.00351914 0.0267041 0.00555146 0.0442231
94 2 Si 1.47952 19.2417 56.4865 2.4 1 0.031741 0.0196493 0.00578352 0.00700413 0.000793425 0.00679951 0.00206247 0.0213838 0.00221805 0.00912128 0.00277383 0.0264958 0.00233301 0.0210106 0.00380042 0.0325713 0.00295137 0.0244353 0.00463284 0.0461882
95 3 O 1.42362 17.6697 56.5909 -1.2 1 0.0293696 0.0183471 0.00575896 0.00662782 0.00127369 0.00666262 0.00173281 0.0217696 0.00243571 0.00867653 0.00135679 0.0264055 0.00249976 0.0205544 0.00287732 0.0330438 0.0035857 0.0251463 0.00428682 0.0459794
96 3 O 1.45147 20.239 52.7294 -1.2 1 0.108812 0.0384685 0.00113956 0.00825813 0.0013982 0.0115714 0.00305165 0.0234578 0.00261056 0.0135336 0.00343133 0.0283894 0.00393503 0.022603 0.00434118 0.0334567 0.00391633 0.0281985 0.00609692 0.0423357
97 3 O 0.189793 19.8343 55.7398 -1.2 1 0.0489452 0.0257753 0.00523565 0.00675807 0.000823084 0.00737789 0.00227639 0.0211554 0.0017281 0.0102396 0.00202793 0.0264159 0.00241451 0.0215618 0.00391832 0.0331695 0.00296088 0.0255341 0.00475137 0.0442933
98 3 O 2.74295 19.8507 55.7164 -1.2 1 0.0429221 0.024085 0.00616708 0.00660329 0.00129613 0.00724606 0.00244582 0.0220148 0.00171014 0.00974696 0.00252619 0.0261192 0.00250126 0.0212121 0.00414646 0.0334846 0.00290736 0.0262701 0.00470185 0.0454209
99 1 Mg -0.126194 18.8651 52.2079 1.2 1 0.115624 0.0426597 0.00139315 0.00932806 0.0021376 0.0102074 0.00210293 0.0237221 0.00251633 0.0143263 0.00267419 0.0288125 0.00327992 0.0236822 0.00455513 0.0338148 0.00379479 0.0287632 0.00685943 0.0411147
100 1 Mg 1.92402 18.5815 49.4545 1.2 1 0.182633 0.0540832 0.00567537 0.0122485 0.00171959 0.0154725 0.00410495 0.0258346 0.00465824 0.0186755 0.00437321 0.0302499 0.00500696 0.0270428 0.00553516 0.0355249 0.00581806 0.0325732 0.00893113 0.0397479
101 2 Si 1.38106 20.9117 51.2443 2.4 1 0.146374 0.0477113 0.00162158 0.0111829 0.00203432 0.0136229 0.00340203 0.0246476 0.0035726 0.0160837 0.00504082 0.0284507 0.00401672 0.0250171 0.00591486 0.0341267 0.00368544 0.0311661 0.00773523 0.0421703
102 3 O 1.48527 22.4795 51.3054 -1.2 1 0.142121 0.0441167 0.00264749 0.0101336 0.00161292 0.0131918 0.00341074 0.0236069 0.00347035 0.0151722 0.00340451 0.0292299 0.00377431 0.0236845 0.00510742 0.0339355 0.00492396 0.0300511 0.00700636 0.0418958
103 3 O 1.41505 20.0241 57.8658 -1.2 1 0.0170942 0.012764 0.00416325 0.00650908 0.00112614 0.00725561 0.00128495 0.0213021 0.00188542 0.00856544 0.00260183 0.0265784 0.00225625 0.0200432 0.00300435 0.0321567 0.00260311 0.024161 0.00444756 0.0450758
104 3 O 0.0615419 20.2804 50.6669 -1.2 1 0.154884 0.0477816 0.00384125 0.0114439 0.0034024 0.0141048 0.00324247 0.0247898 0.0031543 0.0162589 0.00332335 0.0289767 0.00406517 0.0256536 0.00536102 0.0338507 0.00446047 0.0310402 0.00779505 0.0413419
105 1 Mg -3.09665 18.8643 52.3122 1.2 1 0.123368 0.0425613 0.00116171 0.00907389 0.00143148 0.0119315 0.00234358 0.023731 0.00253531 0.0147893 0.00301878 0.0286942 0.00333359 0.0239341 0.00400784 0.0336595 0.00422067 0.0286007 0.00629789 0.0412508
106 3 O 2.61548 20.2646 50.4626 -1.2 1 0.160453 0.0500037 0.0038719 0.0109843 0.00149893 0.0146536 0.00331198 0.0253719 0.00381764 0.0177084 0.00398665 0.0291178 0.00374524 0.0260529 0.00565249 0.0344411 0.00467352 0.0312454 0.0073357 0.0408608
107 1 Mg -1.49861 18.9019 55.0863 1.2 1 0.0553403 0.028455 0.00533477 0.00732551 0.0015697 0.0072195 0.00210794 0.0220754 0.00189638 0.0106998 0.00240093 0.0268105 0.00187836 0.0219565 0.00372441 0.0327994 0.00346011 0.0259677 0.00468168 0.0441574
108 2 Si -1.78298 16.8021 53.2568 2.4 1 0.097055 0.0384042 0.00277361 0.00845284 0.0023037 0.00842243 0.0015399 0.0225325 0.00249058 0.012485 0.00195708 0.0273488 0.00332124 0.0236572 0.00353553 0.0339669 0.00419535 0.0268964 0.00604785 0.0427482
109 3 O -1.69755 15.1818 53.2612 -1.2 1 0.0958598 0.0364161 0.0024613 0.00814045 0.00234809 0.00837141 0.00144468 0.0221514 0.0027936 0.0117092 0.00262936 0.0270563 0.00303241 0.0228291 0.00417183 0.0340122 0.00343562 0.0262697 0.00687906 0.0428076
110 3 O -1.12868 18.1227 46.4249 -1.2 1 0.267041 0.0558299 0.0205571 0.0207508 0.00542791 0.0244501 0.00564778 0.0318316 0.00819869 0.0218448 0.00572006 0.0338609 0.00683784 0.0270652 0.00891129 0.0377057 0.0113392 0.0375363 0.0113327 0.0388534
111 3 O -3.02466 17.4707 53.8763 -1.2 1 0.0842315 0.0348635 0.00321142 0.00723654 0.00133864 0.00927322 0.00177002 0.0229189 0.0022316 0.0121237 0.00170521 0.0269198 0.00308601 0.0235196 0.00276937 0.0338388 0.0037657 0.027007 0.00503336 0.0434052
112 3 O -0.439611 17.3847 54.0288 -1.2 1 0.0771607 0.0337857 0.00386199 0.00750757 0.00210335 0.00710748 0.00105711 0.0225107 0.00191392 0.0115847 0.0019174 0.0264713 0.00270145 0.0233028 0.00348899 0.0340659 0.00314769 0.0267915 0.00559482 0.0433984
113 1 Mg -3.10961 26.1821 57.6314 1.2 1 0.0183128 0.015339 0.00414373 0.00655769 0.00131923 0.00690788 0.00111427 0.0211379 0.00182386 0.00982392 0.00165848 0.0265431 0.00230778 0.0191921 0.00210232 0.0315445 0.00333831 0.0254001 0.00416558 0.0435835
114 1 Mg -1.48778 25.88 49.8402 1.2 1 0.179403 0.0493096 0.00698203 0.0132902 0.0029077 0.0159744 0.00277999 0.0257373 0.00382759 0.0175095 0.00500055 0.0309601 0.00370612 0.0254669 0.00616805 0.0344365 0.00531689 0.0317908 0.00897531 0.0406803
115 2 Si -1.00491 23.3922 47.9274 2.4 1 0.23245 0.0546594 0.0146387 0.0180906 0.0042739 0.0216279 0.00385585 0.0278885 0.00708291 0.020313 0.0053722 0.0321707 0.00575589 0.0282103 0.00636803 0.0355277 0.00850027 0.0342161 0.0105947 0.0403619
116 3 O -0.927602 24.9615 47.9909 -1.2 1 0.230678 0.0539042 0.0141021 0.0181275 0.00427985 0.0212036 0.00347216 0.0276721 0.00657357 0.0201061 0.00576683 0.0319126 0.00564178 0.0275426 0.00737639 0.0357311 0.00798961 0.034752 0.0103716 0.0404094
117 3 O -1.55795 22.2588 51.7696 -1.2 1 0.133632 0.0426918 0.002365 0.0104392 0.00279945 0.012232 0.00153524 0.0238755 0.00232956 0.0147976 0.00279686 0.0292591 0.00351224 0.0234276 0.00449786 0.0336543 0.00524903 0.029168 0.00723188 0.0422173
118 3 O -2.17411 22.8111 48.8277 -1.2 1 0.202098 0.0534161 0.00917005 0.014968 0.00311823 0.0179059 0.00338269 0.0272021 0.00485789 0.0198749 0.00435296 0.0311666 0.00413834 0.0269244 0.00622872 0.0353116 0.00642933 0.0337462 0.00926793 0.0399512
119 1 Mg 0.0423997 21.3296 46.8225 1.2 1 0.257696 0.0555966 0.018521 0.0204922 0.005416 0.0254426 0.00557236 0.0312285 0.00838905 0.022332 0.00654669 0.0337782 0.00713565 0.028857 0.00897543 0.0361242 0.0090061 0.0367178 0.0119447 0.0401808
120 3 O 0.458537 22.7495 48.3911 -1.2 1 0.214064 0.0546316 0.0111068 0.0162032 0.00383677 0.0191153 0.00316142 0.0273821 0.00554092 0.0198031 0.00406318 0.0309923 0.00502503 0.0284559 0.0063234 0.0350107 0.00675717 0.0350288 0.00993773 0.0409649