ITEM: TIMESTEP
66300
ITEM: NUMBER OF ATOMS
10500
ITEM: BOX BOUNDS xy xz yz pp pp pp
0	8.9688	2.9896
0	118.725	0
0	252.977	0
ITEM: ATOMS id type element xu yu zu q Q_1 Q_2 Q_3 Q_4 Q_5 Q_6 Q_7 Q_8 Q_9 Q_10 Q_11 Q_12 Q_13 Q_14 Q_15 Q_16 Q_17 Q_18 Q_19 Q_20 Q_21
1 1 Mg -3.38829 7.05359 57.5961 1.2 1 0.0205294 0.0160465 0.00444802 0.0049377 0.00168095 0.00727725 0.00132882 0.0194639 0.00187183 0.0103519 0.00184239 0.0245281 0.00224791 0.0194757 0.00232404 0.0306426 0.00240201 0.0251396 0.00292627 0.0381
2 1 Mg -1.82655 6.90154 50.0912 1.2 1 0.175326 0.046711 0.00622577 0.00945251 0.00341007 0.00968475 0.00373027 0.0219344 0.00357601 0.0155575 0.00493171 0.0247901 0.00479086 0.0214091 0.00558885 0.0289952 0.0062466 0.0257352 0.00854021 0.032343
3 2 Si -0.257935 3.96038 48.0876 2.4 1 0.22357 0.0535837 0.0115416 0.0123519 0.00263756 0.0101894 0.00384927 0.0197026 0.00508196 0.0174644 0.00428545 0.0242131 0.00559597 0.0211972 0.00528511 0.0262809 0.00678167 0.025167 0.00871614 0.0309083
4 3 O -0.335812 5.46814 47.6264 -1.2 1 0.230917 0.053026 0.0132837 0.0132255 0.0036291 0.0114088 0.00421952 0.0203315 0.00574207 0.0182799 0.0046266 0.0247737 0.0049808 0.0216398 0.00545488 0.0268421 0.00718345 0.0257838 0.00960487 0.0299956
5 3 O -2.03793 3.43377 51.8941 -1.2 1 0.12943 0.0413544 0.0026502 0.00650144 0.00183085 0.00722184 0.00260646 0.0192382 0.00231624 0.0125086 0.00343488 0.0238618 0.00393653 0.0192043 0.00434087 0.0276304 0.00537975 0.0237383 0.00737717 0.0328282
6 3 O -1.54015 3.53929 48.9521 -1.2 1 0.201151 0.0517271 0.00866176 0.0106514 0.00239573 0.00883536 0.00347901 0.01951 0.00415756 0.0160205 0.00474929 0.0236942 0.00462652 0.0210631 0.00542113 0.0264281 0.00542621 0.0243428 0.00847221 0.0305116
7 1 Mg 1.82954 2.54582 47.1376 1.2 1 0.243733 0.0529402 0.0154264 0.0152884 0.00287169 0.0113736 0.00311294 0.0200062 0.00507765 0.0160418 0.00467076 0.0238407 0.00608876 0.0200601 0.00627752 0.0246395 0.00666894 0.0236267 0.00840555 0.029486
8 3 O 1.22989 3.66364 48.7877 -1.2 1 0.204151 0.0506431 0.00923175 0.0116672 0.00243163 0.0100113 0.00365058 0.0198215 0.00341067 0.0156175 0.00414596 0.0233995 0.00482964 0.020603 0.00545183 0.0260453 0.0047954 0.0241689 0.00851423 0.0316084
9 1 Mg 1.05761 2.33538 54.7511 1.2 1 0.0661532 0.0304396 0.00455348 0.00419131 0.00168097 0.0060037 0.00217374 0.0192474 0.00341064 0.00974938 0.00334799 0.0234592 0.00381882 0.020068 0.00414859 0.0291932 0.00365779 0.0240289 0.00652162 0.0354416
10 2 Si 0.935623 4.90637 56.3911 2.4 1 0.0353092 0.0220217 0.00608721 0.00487248 0.00147934 0.00710918 0.00189826 0.0196026 0.00249659 0.00998608 0.00330111 0.0234819 0.00301925 0.0201735 0.00415005 0.0302358 0.00309468 0.0249025 0.00537631 0.0380791
11 3 O 1.04662 3.50929 56.5251 -1.2 1 0.0358261 0.0221634 0.00603646 0.00477356 0.00146365 0.00626409 0.00190831 0.0190576 0.00291353 0.00922877 0.00257259 0.0236476 0.00268314 0.0192693 0.00361371 0.0296868 0.00380583 0.0251581 0.00559902 0.0378987
12 3 O 1.10813 6.07342 52.8172 -1.2 1 0.106013 0.0359962 0.00307895 0.0061781 0.00244048 0.00790845 0.00289465 0.0202701 0.00292165 0.0122802 0.00336824 0.024338 0.00375091 0.0195726 0.00434599 0.0289797 0.0043211 0.0244229 0.00650721 0.0349731
13 3 O -0.289794 5.45795 55.8698 -1.2 1 0.0431167 0.0240584 0.00587656 0.00441186 0.00182536 0.00611944 0.00185651 0.0192565 0.00260127 0.010428 0.00324056 0.023999 0.00304127 0.0201018 0.00363947 0.0304084 0.00310404 0.0245354 0.00505734 0.0376749
14 3 O 2.26517 5.66422 55.8459 -1.2 1 0.0415813 0.0237785 0.00617429 0.00457094 0.00174416 0.00718205 0.00221427 0.0196083 0.0019012 0.0104813 0.00358271 0.0240971 0.00327453 0.0203162 0.00492556 0.0313184 0.00320142 0.0256045 0.00501458 0.0378881
15 1 Mg -0.459401 4.67631 52.2426 1.2 1 0.124084 0.0410395 0.00260489 0.00644754 0.00237312 0.00724802 0.00236314 0.0200978 0.00247784 0.013157 0.00334255 0.024431 0.00406217 0.0199288 0.00435699 0.0279772 0.00482514 0.0238025 0.00663956 0.0325147
16 1 Mg 2.79456 3.9971 49.9987 1.2 1 0.173765 0.0493312 0.00543539 0.00939811 0.00280165 0.00812012 0.00377054 0.0197944 0.00268421 0.0153564 0.00331566 0.0240217 0.00465341 0.0212386 0.00543984 0.0271801 0.00485786 0.0245683 0.0086015 0.0311298
17 2 Si 1.16169 6.59457 51.2556 2.4 1 0.149184 0.0452146 0.00307274 0.00845143 0.00308474 0.00926543 0.00354191 0.0207618 0.00267108 0.0144323 0.00481961 0.02443 0.00439354 0.0213379 0.00587243 0.0296431 0.00480864 0.0257511 0.00865231 0.0332958
18 3 O 1.28989 8.18905 51.2909 -1.2 1 0.145975 0.0435055 0.00318815 0.00862762 0.00284374 0.010199 0.00358816 0.0215777 0.00350967 0.0146379 0.00424693 0.0255845 0.00448904 0.0212963 0.00478472 0.0300395 0.00532829 0.026584 0.00806134 0.035288
19 3 O 1.02174 5.76222 57.9772 -1.2 1 0.0165249 0.0145742 0.00419541 0.00497039 0.00110217 0.00742208 0.00132053 0.0197286 0.0017369 0.00997095 0.00265467 0.0236443 0.00207563 0.0203522 0.00268288 0.0313031 0.00263811 0.0258512 0.00351303 0.0381077
20 3 O -0.184847 6.06029 50.6845 -1.2 1 0.163591 0.045442 0.00565876 0.00860042 0.00352654 0.00862193 0.00370331 0.0208971 0.00332557 0.0146878 0.00362155 0.0241743 0.00415846 0.0213037 0.00486471 0.0282032 0.00578421 0.0248815 0.00817565 0.033153
21 1 Mg -3.49704 4.67769 52.6661 1.2 1 0.115192 0.0385608 0.00223018 0.0054949 0.00233209 0.00779116 0.00306114 0.0192638 0.00255265 0.0124058 0.00339439 0.0240449 0.00377198 0.0197515 0.00434154 0.0279366 0.00458011 0.0235337 0.00776201 0.0335844
22 3 O 2.48581 5.93312 50.6539 -1.2 1 0.157176 0.046244 0.00403128 0.00780467 0.00212149 0.00941483 0.00378603 0.0204818 0.00308264 0.0145947 0.00443212 0.0238578 0.00490921 0.0215999 0.00542928 0.0289433 0.00505964 0.0253473 0.00873257 0.0322216
23 1 Mg -1.93729 4.74132 55.2816 1.2 1 0.050146 0.0266702 0.00639 0.00459917 0.00180178 0.00696834 0.00234515 0.0198152 0.00254416 0.0107986 0.00335197 0.0242676 0.00271575 0.0203003 0.00400989 0.0303894 0.0037395 0.0249535 0.0061919 0.0364275
24 2 Si -1.87611 2.64083 53.2543 2.4 1 0.101686 0.0368629 0.00271753 0.00536769 0.00234177 0.00653123 0.00202585 0.0191825 0.00257429 0.0113422 0.00310497 0.0231089 0.0033548 0.0198774 0.00388318 0.0283044 0.00428013 0.0239518 0.00734836 0.0335799
25 3 O -1.90349 1.06791 53.3267 -1.2 1 0.0976059 0.0358805 0.00275364 0.00541955 0.00274959 0.00588484 0.00167492 0.0191077 0.00262776 0.0103565 0.00287611 0.0234273 0.0032463 0.0191677 0.00470803 0.027658 0.00376618 0.0234351 0.00742521 0.0338161
26 3 O -0.0467762 2.97103 46.8385 -1.2 1 0.252568 0.0543132 0.016401 0.0150051 0.00274283 0.0107588 0.00355169 0.0195539 0.00560929 0.0176142 0.00586923 0.0235759 0.0071087 0.0198048 0.00733728 0.024845 0.00643445 0.0245179 0.00978983 0.0306445
27 3 O -3.13318 3.11839 54.1366 -1.2 1 0.0821293 0.0335655 0.00367963 0.00428511 0.00194212 0.00660324 0.00296094 0.0191679 0.00263201 0.0108981 0.00265178 0.023079 0.00326419 0.0196981 0.00442567 0.0288164 0.00421842 0.023655 0.00689408 0.0342127
28 3 O -0.736842 3.29943 53.9792 -1.2 1 0.0829241 0.0335889 0.00382772 0.00444425 0.00212354 0.00655553 0.00135123 0.0198286 0.0025985 0.0110291 0.00267449 0.0233777 0.00405624 0.0203877 0.00374186 0.0285579 0.00376274 0.0243528 0.00648757 0.0345429
29 1 Mg -3.2595 12.0023 56.9471 1.2 1 0.0286934 0.0175575 0.00523063 0.00569104 0.00114552 0.00731588 0.00183554 0.020109 0.00218952 0.00967576 0.00228527 0.0256236 0.00190441 0.0193566 0.00298589 0.0318878 0.00200951 0.0256292 0.0044204 0.0422135
30 1 Mg -1.75014 11.5838 49.8362 1.2 1 0.183065 0.0472001 0.00738482 0.0118774 0.00469414 0.0132379 0.00424165 0.0236253 0.00486864 0.0166318 0.00508652 0.0276553 0.00424436 0.0231533 0.00644552 0.0324322 0.0070693 0.0289436 0.0103081 0.0366881
31 2 Si -1.18003 9.02138 47.9309 2.4 1 0.238342 0.051277 0.0150902 0.014829 0.0054719 0.01384 0.00743935 0.0225115 0.00755604 0.0177095 0.00693233 0.0260133 0.00483986 0.0224122 0.00681803 0.0301406 0.00942846 0.0279742 0.0119362 0.0333283
32 3 O -1.23224 10.5991 47.9811 -1.2 1 0.23028 0.0523718 0.0131983 0.0153815 0.00564079 0.0151749 0.0061355 0.0239719 0.00744529 0.0177465 0.0071592 0.0272559 0.00533691 0.0232816 0.00804781 0.0324104 0.00986347 0.0304083 0.011325 0.034026
33 3 O -1.79016 8.01447 51.8693 -1.2 1 0.132403 0.039831 0.00263632 0.00799455 0.0033166 0.00849861 0.00298019 0.0207403 0.00289178 0.0138165 0.00349756 0.025401 0.00400109 0.0204812 0.00435353 0.0305878 0.00569927 0.0254569 0.00805334 0.0352786
34 3 O -2.30986 8.37215 48.8528 -1.2 1 0.204171 0.0512329 0.00933197 0.0119434 0.00465717 0.0115002 0.00586347 0.0226547 0.00520518 0.0175621 0.00513499 0.0258788 0.0044562 0.0226219 0.00561932 0.0306997 0.00716205 0.0275624 0.00966524 0.033099
35 1 Mg 0.154883 7.08234 46.8007 1.2 1 0.259033 0.0531235 0.0179668 0.0160493 0.00628731 0.0143802 0.00843964 0.0230597 0.00724384 0.018307 0.00743173 0.0250937 0.00700174 0.021796 0.00844436 0.0287697 0.00977943 0.0277345 0.0125152 0.0309289
36 3 O 0.325447 8.50934 48.3809 -1.2 1 0.217262 0.0527634 0.0108139 0.0138644 0.00462808 0.0130128 0.00576783 0.0234173 0.00585656 0.0176596 0.00596882 0.0256367 0.00494636 0.0234968 0.00565562 0.0299404 0.00765933 0.0282231 0.0103953 0.0331807
37 1 Mg 1.17832 7.06861 54.5871 1.2 1 0.0688237 0.0297354 0.00436314 0.00492428 0.00206405 0.00708253 0.00217877 0.0197389 0.00242271 0.0114774 0.00333589 0.0243398 0.00300013 0.0203659 0.0031294 0.0304582 0.0039378 0.0245847 0.00532505 0.036979
38 2 Si 1.14044 9.78773 56.4622 2.4 1 0.0337716 0.0200463 0.00550063 0.00558017 0.00116253 0.00728763 0.00175116 0.0198687 0.00248661 0.00987918 0.00340796 0.0245438 0.00278717 0.019665 0.00324562 0.0315096 0.00281641 0.0256072 0.00451157 0.0408001
39 3 O 1.14561 8.24145 56.4421 -1.2 1 0.0360795 0.0209749 0.00534966 0.00509019 0.00125284 0.00705981 0.00168797 0.0195925 0.00247848 0.00962863 0.00217389 0.0243567 0.00273413 0.0192337 0.0020355 0.0311442 0.00348373 0.0254627 0.00421872 0.0392658
40 3 O 1.28624 10.7248 52.7351 -1.2 1 0.111277 0.0366535 0.00197083 0.0070397 0.00262983 0.0105583 0.00244481 0.0212615 0.00266295 0.0131744 0.00349228 0.0258437 0.00399265 0.0211708 0.00404979 0.0316606 0.00357284 0.0267237 0.0067312 0.0386903
41 3 O -0.12419 10.544 55.7918 -1.2 1 0.0478038 0.0241031 0.00486327 0.00555664 0.00160983 0.00762554 0.00179865 0.0207451 0.00219955 0.0106024 0.00270684 0.0248405 0.00293845 0.019966 0.00307975 0.0320537 0.00300854 0.026088 0.00447335 0.0411897
42 3 O 2.36338 10.5707 55.7158 -1.2 1 0.0454288 0.023861 0.00574375 0.00542447 0.00126013 0.00755501 0.00226303 0.020385 0.00232476 0.0108104 0.00287413 0.0252271 0.00253278 0.0200998 0.0033267 0.0325341 0.00274793 0.0259457 0.00440102 0.0406235
43 1 Mg -0.262694 9.34741 52.2523 1.2 1 0.115446 0.0399206 0.00278793 0.00776141 0.00296533 0.00891789 0.00213737 0.0217158 0.00279058 0.0136251 0.00347015 0.0261087 0.00358688 0.0211076 0.00442458 0.0314163 0.00453167 0.026845 0.00726214 0.0366667
44 1 Mg 1.87648 9.01537 49.4629 1.2 1 0.185558 0.0513126 0.0057106 0.0111171 0.00341043 0.0119099 0.00570579 0.0225132 0.00448776 0.0168497 0.00554614 0.0260543 0.0047451 0.0230429 0.00572256 0.0310162 0.00585728 0.028229 0.00991519 0.0342711
45 2 Si 1.21415 11.3799 51.2378 2.4 1 0.149068 0.0457839 0.00256686 0.00995256 0.00323671 0.0120633 0.00306631 0.0226308 0.00383722 0.0155279 0.00484555 0.025914 0.00406179 0.0235073 0.00552196 0.032743 0.00478224 0.0291657 0.00942653 0.0385855
46 3 O 1.31634 12.9512 51.3023 -1.2 1 0.1437 0.0433049 0.0029488 0.00937033 0.00257826 0.0124052 0.00282194 0.02365 0.0046506 0.0155618 0.00370199 0.0275109 0.00405214 0.0233907 0.00453977 0.0330503 0.00523566 0.0294852 0.0082308 0.0396917
47 3 O 1.01061 10.4761 58.0074 -1.2 1 0.0174306 0.0131273 0.00348193 0.00557342 0.00123198 0.00741798 0.00134472 0.0205215 0.00207351 0.00941975 0.00243158 0.0247836 0.00240848 0.0193981 0.00233294 0.0317176 0.00242335 0.025867 0.00392608 0.0418458
48 3 O -0.115718 10.7564 50.681 -1.2 1 0.157648 0.045521 0.00418536 0.0105966 0.00398601 0.0116254 0.00344128 0.022859 0.00360863 0.0153652 0.00380134 0.0267162 0.00379296 0.0228239 0.00531251 0.0317483 0.00507526 0.0282174 0.00952476 0.0373696
49 1 Mg -3.26386 9.35564 52.3622 1.2 1 0.121309 0.0381047 0.00185337 0.00711909 0.00216342 0.0105189 0.00311997 0.0207284 0.00313565 0.0134594 0.00399134 0.0252562 0.00351675 0.0208949 0.0043315 0.0312308 0.00466064 0.0264488 0.00740738 0.0360148
50 3 O 2.45216 10.7265 50.4558 -1.2 1 0.162739 0.0468788 0.00376679 0.00973348 0.00271698 0.0123551 0.00423665 0.0225153 0.00403198 0.0164626 0.00445418 0.0262531 0.00374748 0.0230162 0.00570778 0.0325644 0.00547371 0.0285487 0.00896803 0.0369685
51 1 Mg -1.8899 9.55113 55.2577 1.2 1 0.0533195 0.0268659 0.0052018 0.00548357 0.00146587 0.00751739 0.00227159 0.020441 0.0028046 0.010767 0.00346518 0.0249426 0.00246447 0.0199963 0.0033717 0.0312858 0.00374733 0.025603 0.00501805 0.0394983
52 2 Si -1.76789 7.32689 53.426 2.4 1 0.0949614 0.0357696 0.00372424 0.00630203 0.00278452 0.00735284 0.00257938 0.0196599 0.00311436 0.0123317 0.00290142 0.0246963 0.00347865 0.0203411 0.00369367 0.0298353 0.00546659 0.0243898 0.00635685 0.0361176
53 3 O -1.93049 5.79228 53.3369 -1.2 1 0.0969691 0.0342772 0.00280039 0.00535183 0.00229884 0.00743226 0.00203611 0.0192683 0.00264798 0.0112871 0.00322833 0.0238382 0.00305795 0.0198365 0.00413207 0.0295527 0.0038909 0.0241413 0.00696591 0.0349851
54 3 O -1.19417 8.46968 46.4488 -1.2 1 0.269815 0.0525566 0.0202958 0.0174557 0.0060219 0.0154425 0.00855343 0.0239666 0.00746744 0.0182149 0.00782077 0.0254978 0.00602595 0.0212778 0.00903181 0.03028 0.0105053 0.0294692 0.0123931 0.0308472
55 3 O -3.01503 8.0292 54.1546 -1.2 1 0.0799214 0.03128 0.00359245 0.0050926 0.00231145 0.00856981 0.00228387 0.0200175 0.00264517 0.0118731 0.00284473 0.0237485 0.00300898 0.0205046 0.003287 0.0307101 0.00421024 0.0251577 0.00574307 0.0362459
56 3 O -0.366819 8.06344 54.0144 -1.2 1 0.0776623 0.0315996 0.00420519 0.00515881 0.00244948 0.00676312 0.0017389 0.0203319 0.00219021 0.0115603 0.00260063 0.0243452 0.00292463 0.0203163 0.00361293 0.0307687 0.00446222 0.0257215 0.00546564 0.037326
57 1 Mg -3.45719 16.5723 57.479 1.2 1 0.0218176 0.0150316 0.0047133 0.0058356 0.00107273 0.00682602 0.00145201 0.0225077 0.00224976 0.00988087 0.0024482 0.0268652 0.00210539 0.0187871 0.00302783 0.0317551 0.0033316 0.0251764 0.00430288 0.044402
58 1 Mg -1.6714 16.3544 49.8412 1.2 1 0.177838 0.0487795 0.00723364 0.0131304 0.003304 0.0151439 0.00355566 0.0261611 0.00447148 0.0182693 0.00436097 0.0308807 0.00388645 0.0253513 0.0064296 0.0345681 0.00624913 0.0317215 0.00964297 0.0400725
59 2 Si -1.18567 13.8526 47.9314 2.4 1 0.23287 0.0534835 0.015169 0.0165681 0.00456161 0.018147 0.00470864 0.0265049 0.00815814 0.0201767 0.00629921 0.030508 0.00604183 0.0277177 0.00673514 0.0342381 0.0101736 0.0331882 0.0121408 0.0376368
60 3 O -1.09664 15.4205 47.9915 -1.2 1 0.232389 0.0535379 0.0151185 0.0173572 0.00464133 0.019656 0.00432941 0.0274441 0.0077785 0.020358 0.00667693 0.0309262 0.00577099 0.0271934 0.00824861 0.0354403 0.00966365 0.0345688 0.0113941 0.0383991
61 3 O -1.73493 12.7491 51.7772 -1.2 1 0.134733 0.0411091 0.00268589 0.00968644 0.00348264 0.0108389 0.00148594 0.0231904 0.00359435 0.0148749 0.00287458 0.0273838 0.00362501 0.0224615 0.00452033 0.0325141 0.00526293 0.0281787 0.00790122 0.0398816
62 3 O -2.36115 13.2717 48.8238 -1.2 1 0.205315 0.0526336 0.00987308 0.014175 0.00472761 0.014769 0.00432181 0.0256926 0.00564257 0.0195227 0.00495264 0.0294212 0.00439516 0.0259306 0.0057374 0.0345902 0.00840314 0.0319895 0.0110818 0.0375963
63 1 Mg -0.159928 11.7639 46.8533 1.2 1 0.259366 0.0532777 0.0190579 0.0180336 0.00601973 0.0202094 0.0069276 0.027259 0.00862441 0.0199325 0.00818027 0.0297455 0.00675636 0.026455 0.00835248 0.0332205 0.0113916 0.0332753 0.0138166 0.035214
64 3 O 0.2623 13.1866 48.413 -1.2 1 0.216053 0.0532964 0.0117932 0.0149843 0.00407356 0.0164712 0.00412979 0.0259563 0.00696104 0.0189815 0.00532217 0.0291004 0.00520309 0.0276835 0.00570903 0.0334546 0.00913725 0.0332842 0.0110903 0.0377922
65 1 Mg 1.31037 11.7706 54.4826 1.2 1 0.0767989 0.0314425 0.0030844 0.00607505 0.00188457 0.00845929 0.00208082 0.0209787 0.00313985 0.0124993 0.00227384 0.0263038 0.00308762 0.0214559 0.00306323 0.0322547 0.00375909 0.0254746 0.00498239 0.0401661
66 2 Si 1.05343 14.5084 56.3424 2.4 1 0.0336785 0.0195501 0.00577432 0.0059922 0.00132619 0.00700993 0.00209609 0.0214276 0.00221543 0.00950442 0.00342982 0.0258438 0.00257488 0.019299 0.00430078 0.0321712 0.00288679 0.0253062 0.00459334 0.0449767
67 3 O 1.26789 13.0463 56.4884 -1.2 1 0.032299 0.0187307 0.00527252 0.00586725 0.00102458 0.00668249 0.00190806 0.0206295 0.00335866 0.00940077 0.00194071 0.0258576 0.00257865 0.0189504 0.00302196 0.032258 0.00326243 0.0251557 0.00442871 0.0434574
68 3 O 1.36565 15.4813 52.729 -1.2 1 0.112867 0.0387768 0.00150631 0.00835159 0.00175728 0.0115735 0.00310129 0.0237674 0.00304941 0.0142999 0.00343342 0.0283378 0.00361937 0.0219805 0.00408584 0.0327268 0.00357137 0.0286811 0.00673257 0.0416293
69 3 O -0.157461 15.2642 55.7895 -1.2 1 0.048617 0.0250606 0.00492085 0.00638192 0.00121584 0.00748524 0.00231669 0.0226851 0.00236096 0.0106558 0.00254723 0.0264562 0.00224587 0.0200164 0.00336431 0.0327523 0.00358667 0.0267654 0.00448757 0.0449941
70 3 O 2.42037 15.2537 55.9028 -1.2 1 0.0396036 0.022218 0.00581426 0.00620479 0.00100452 0.00676877 0.00232391 0.0221734 0.00230149 0.0100074 0.00259696 0.0262885 0.00203948 0.0192363 0.00345743 0.0326159 0.00301905 0.0261443 0.00490882 0.0441803
71 1 Mg -0.206989 14.1049 52.2121 1.2 1 0.117776 0.0416779 0.00112231 0.00887293 0.00281129 0.010041 0.00213047 0.023822 0.00322702 0.0147476 0.00318174 0.0282885 0.00321928 0.0225299 0.00398167 0.033053 0.0036733 0.0285678 0.00688496 0.0403651
72 1 Mg 1.82591 13.8102 49.4556 1.2 1 0.183325 0.0524438 0.00597095 0.0120332 0.00284765 0.0140929 0.00413995 0.0247356 0.00505576 0.0183403 0.00522329 0.0286199 0.00458726 0.0261195 0.00596991 0.0344169 0.00654266 0.0318143 0.0103719 0.0380583
73 2 Si 1.29285 16.1518 51.2434 2.4 1 0.145665 0.0471693 0.00273856 0.0108558 0.00225932 0.0132482 0.00359636 0.0250379 0.0041183 0.0168583 0.00497932 0.0283572 0.00363043 0.0246358 0.00627215 0.0337245 0.0041353 0.0309036 0.0087689 0.0411967
74 3 O 1.39496 17.7199 51.3047 -1.2 1 0.145489 0.0461259 0.00313724 0.0105659 0.00201058 0.0128297 0.00392527 0.0255167 0.00412772 0.0166003 0.00313412 0.0294589 0.00385234 0.0242149 0.0044132 0.0342612 0.00522981 0.0309672 0.00772786 0.0421346
75 3 O 0.960757 15.0446 57.9146 -1.2 1 0.0172469 0.0125683 0.00382733 0.00559525 0.00137965 0.0071679 0.00181516 0.0219854 0.00241432 0.00920711 0.00262706 0.0259908 0.00239172 0.0189998 0.00306708 0.0311463 0.00292566 0.0246194 0.00397461 0.0447258
76 3 O -0.0269106 15.5178 50.6688 -1.2 1 0.152821 0.046333 0.0043588 0.0110906 0.00326683 0.0134895 0.00332462 0.0253021 0.00412079 0.0163242 0.00337439 0.0283776 0.00360974 0.0252379 0.00537339 0.0332042 0.00397348 0.030762 0.00857095 0.040781
77 1 Mg -3.18391 14.1057 52.3125 1.2 1 0.122272 0.0404832 0.00183333 0.0085626 0.00205514 0.0115067 0.00245168 0.0231317 0.00334488 0.0147526 0.0030675 0.02752 0.00310199 0.0228119 0.00405647 0.0325248 0.00378163 0.0284315 0.00625566 0.0395811
78 3 O 2.52432 15.503 50.4579 -1.2 1 0.161907 0.0495579 0.00482993 0.010839 0.00243209 0.0138952 0.00371748 0.025011 0.0044366 0.0184773 0.0037755 0.0288581 0.00353341 0.0260915 0.00556256 0.0338887 0.00522975 0.0309681 0.00851939 0.0396136
79 1 Mg -2.02645 14.4381 55.1538 1.2 1 0.0531519 0.0271394 0.00509379 0.00634556 0.00126749 0.00713193 0.00198613 0.0216735 0.00267963 0.0108102 0.0026348 0.0269077 0.00183019 0.020366 0.00316589 0.0327119 0.00269928 0.0261746 0.00473826 0.0434645
80 2 Si -1.64772 12.2107 53.2355 2.4 1 0.099809 0.0363215 0.00200521 0.00762993 0.00269246 0.00925482 0.00176546 0.0221521 0.00372868 0.0133658 0.0025977 0.0261883 0.00351089 0.0222472 0.00351805 0.0320592 0.00504041 0.0270826 0.00558087 0.0409876
81 3 O -1.88243 10.5555 53.332 -1.2 1 0.0964137 0.0344683 0.00256975 0.00684298 0.00257226 0.00885467 0.00165174 0.0207445 0.00315948 0.0120335 0.00287482 0.0253801 0.00279985 0.0205782 0.00328046 0.031968 0.00422688 0.0263846 0.00638238 0.0393052
82 3 O -1.21337 13.3381 46.4311 -1.2 1 0.270758 0.0529388 0.0212458 0.0198827 0.00650647 0.0208508 0.0066412 0.0294682 0.00874344 0.0210815 0.0076207 0.0313642 0.00645286 0.0262676 0.00850425 0.0354794 0.0130858 0.035607 0.0142682 0.0356611
83 3 O -3.07982 12.9704 53.9119 -1.2 1 0.0866202 0.0332517 0.00209849 0.00618862 0.00138909 0.0097978 0.00149059 0.0221856 0.00312859 0.0127748 0.00190847 0.0258576 0.00268641 0.02158 0.00253291 0.032622 0.00334817 0.0272081 0.00544976 0.0410899
84 3 O -0.370093 12.9031 53.9216 -1.2 1 0.0831994 0.0326258 0.00230223 0.00653804 0.00250136 0.00774711 0.00141579 0.0226059 0.00261218 0.0127346 0.00252826 0.0261488 0.0024926 0.0221562 0.00304362 0.0323492 0.00330745 0.0268331 0.00498075 0.0414601
85 1 Mg -3.25347 21.4541 57.4097 1.2 1 0.0203404 0.015676 0.00471089 0.00597866 0.0015585 0.00700518 0.00149028 0.0234115 0.00240033 0.0101562 0.00228025 0.0279407 0.00257433 0.0197062 0.00290443 0.0317697 0.0037251 0.0255148 0.00480257 0.0450819
86 1 Mg -1.5831 21.1217 49.8405 1.2 1 0.177642 0.0502087 0.00733544 0.0136728 0.00262466 0.0154734 0.00392911 0.027572 0.00505091 0.0183912 0.00485437 0.0314119 0.00363711 0.0252341 0.00653531 0.0352811 0.005844 0.032767 0.00920041 0.0397536
87 2 Si -1.09384 18.6291 47.9287 2.4 1 0.229997 0.0559733 0.0147249 0.0177325 0.00301882 0.0201663 0.00448677 0.0290119 0.00795043 0.0211374 0.0061763 0.0324662 0.00612692 0.0284389 0.00726657 0.0363028 0.00973888 0.0353107 0.0117611 0.0400135
88 3 O -1.02071 20.1985 47.9911 -1.2 1 0.228045 0.0553337 0.0147237 0.0180644 0.00353767 0.0204311 0.00483326 0.0289198 0.00730923 0.0206633 0.00631376 0.0321768 0.0055086 0.0276269 0.00853781 0.0367448 0.0089198 0.0353659 0.0110526 0.0396095
89 3 O -1.65002 17.5002 51.771 -1.2 1 0.133242 0.0428279 0.0026245 0.0106667 0.0025073 0.0118988 0.00221948 0.0254208 0.00311173 0.0155677 0.00280958 0.0289006 0.00352341 0.0235232 0.00453999 0.0334713 0.00487639 0.0298187 0.00706301 0.0413934
90 3 O -2.26174 18.0434 48.8281 -1.2 1 0.203871 0.0553222 0.00994993 0.0153402 0.00344257 0.0169973 0.00396493 0.0282933 0.00595472 0.0205338 0.0047214 0.0313439 0.00428575 0.0272724 0.00655943 0.0361778 0.00750521 0.0345814 0.0101986 0.0397668
91 1 Mg -0.0440435 16.5651 46.8269 1.2 1 0.253206 0.0554678 0.0187775 0.019581 0.00409586 0.0236316 0.00502967 0.0310876 0.00895844 0.0224961 0.00671052 0.0335332 0.00660971 0.02883 0.00859428 0.0358735 0.0105813 0.0372851 0.012869 0.0392354
92 3 O 0.37001 17.9877 48.3925 -1.2 1 0.212841 0.05557 0.0114236 0.0159977 0.00314052 0.018261 0.00340206 0.0286634 0.00677394 0.0204995 0.00473897 0.0311739 0.0052758 0.0286429 0.00631997 0.0355098 0.00852968 0.0357682 0.0105377 0.040547
93 1 Mg 1.3276 16.5229 54.583 1.2 1 0.0724325 0.0316079 0.00304181 0.0067574 0.00121716 0.00844406 0.00267688 0.0232063 0.00268963 0.0123655 0.00226203 0.0277049 0.0029213 0.0214628 0.00288502 0.0331891 0.00362023 0.0269607 0.00507942 0.0428074
94 2 Si 1.2832 19.2455 56.5043 2.4 1 0.0304756 0.0200257 0.00559225 0.00639083 0.00143472 0.00658708 0.00229243 0.0232388 0.00265581 0.00954139 0.00281353 0.0263767 0.00265243 0.0195795 0.00347905 0.0323668 0.0036633 0.0257848 0.00610404 0.0457967
95 3 O 1.33249 17.681 56.5363 -1.2 1 0.029304 0.0189092 0.00543561 0.00618397 0.00120043 0.00644977 0.00209321 0.0227791 0.00354444 0.00924981 0.00165428 0.0267712 0.00316736 0.0188217 0.00329161 0.0323101 0.00408947 0.0254258 0.00482965 0.0458525
96 3 O 1.45147 20.239 52.7294 -1.2 1 0.110205 0.0399983 0.00143737 0.00881578 0.00140355 0.0116837 0.00375688 0.0256624 0.00314702 0.0147524 0.00345003 0.0290413 0.00384902 0.0225444 0.00462499 0.0332812 0.00417718 0.0295624 0.00654417 0.0426718
97 3 O 0.00477372 19.8831 55.7589 -1.2 1 0.0460526 0.0259636 0.00511562 0.00628998 0.00110528 0.00685143 0.00267903 0.0241993 0.00222907 0.0105903 0.00225694 0.0269322 0.00276739 0.0206453 0.00391966 0.03314 0.00364154 0.0273646 0.00541233 0.0458268
98 3 O 2.58539 19.9915 55.8825 -1.2 1 0.0387052 0.0238047 0.00617388 0.00623803 0.00105178 0.00634085 0.00294864 0.0237372 0.00244016 0.0100126 0.00233607 0.0268983 0.0031864 0.0204433 0.00366943 0.0335352 0.00339342 0.0266181 0.00568927 0.0454018
99 1 Mg -0.126194 18.8651 52.2079 1.2 1 0.114603 0.0429152 0.00173311 0.00963895 0.0019552 0.0102369 0.00263989 0.0256247 0.00288377 0.0150645 0.00255631 0.0290769 0.00310546 0.0230237 0.00404548 0.0339352 0.00408299 0.0299269 0.00665594 0.0418783
100 1 Mg 1.92402 18.5815 49.4545 1.2 1 0.181204 0.0551055 0.00615234 0.0128049 0.00202625 0.0149483 0.00435431 0.027059 0.00516015 0.0197272 0.00459231 0.0307 0.00446347 0.0268255 0.00570168 0.0360528 0.00635342 0.0338674 0.00975362 0.0402411
101 2 Si 1.38106 20.9117 51.2443 2.4 1 0.144008 0.0484012 0.00259643 0.0113233 0.00179385 0.0129346 0.00417098 0.0260355 0.00381503 0.0169058 0.0042026 0.02895 0.00392388 0.0250726 0.00623508 0.0343869 0.00418849 0.0317735 0.00858393 0.0417922
102 3 O 1.48527 22.4795 51.3054 -1.2 1 0.146043 0.0468808 0.00318837 0.0105843 0.00188301 0.0128262 0.00386798 0.0258447 0.0043394 0.0161864 0.00308544 0.0296724 0.00392698 0.0244555 0.00410434 0.0339516 0.00528403 0.0310332 0.00759726 0.0413271
103 3 O 1.2752 19.9097 57.8916 -1.2 1 0.0158725 0.0130681 0.00398071 0.00582477 0.00127385 0.00675668 0.00199918 0.023638 0.00263098 0.00950174 0.00273602 0.0268931 0.00260192 0.0197482 0.00300768 0.0313823 0.00354294 0.0251617 0.00470015 0.0461938
104 3 O 0.0615419 20.2804 50.6669 -1.2 1 0.155261 0.0491128 0.00465691 0.0123102 0.00271861 0.0135599 0.00449 0.0265833 0.00427337 0.0170517 0.00321652 0.0299017 0.00376893 0.0256877 0.0048913 0.034501 0.00452832 0.0319971 0.00759819 0.0411162
105 1 Mg -3.09665 18.8643 52.3122 1.2 1 0.120217 0.042143 0.00188903 0.00930745 0.00128933 0.0115874 0.00301092 0.0252601 0.00298506 0.0154433 0.00265155 0.0288931 0.00299191 0.0232258 0.00394806 0.0333954 0.00436197 0.0296226 0.00615002 0.0411828
106 3 O 2.61548 20.2646 50.4626 -1.2 1 0.158122 0.0507259 0.00461059 0.0113105 0.00163889 0.0138246 0.00417685 0.026504 0.00406395 0.0182824 0.00379278 0.0296842 0.00363923 0.0258387 0.00593196 0.0348431 0.00514247 0.032115 0.00813601 0.0409759
107 1 Mg -1.80068 18.9406 55.1955 1.2 1 0.0501647 0.0275521 0.00540974 0.00649342 0.00156833 0.00706646 0.00217873 0.0239416 0.002579 0.0110933 0.00289785 0.027228 0.00215733 0.0208212 0.00364298 0.0330487 0.00396224 0.0268187 0.00543349 0.0445512
108 2 Si -1.56536 16.7831 53.2514 2.4 1 0.0941201 0.0370018 0.00216355 0.0086572 0.00216189 0.0085248 0.0014945 0.0237357 0.00312791 0.01332 0.00241425 0.0274567 0.00253899 0.0221693 0.00328832 0.0334522 0.00406385 0.0284419 0.00583867 0.0431501
109 3 O -1.6253 15.2558 53.1015 -1.2 1 0.0981071 0.036539 0.00221536 0.00813468 0.00225462 0.00926134 0.00189049 0.0228459 0.00283323 0.013046 0.00264491 0.0276269 0.00268136 0.0214041 0.00427972 0.0330445 0.00311031 0.0279603 0.00689792 0.0425904
110 3 O -1.12868 18.1227 46.4249 -1.2 1 0.266261 0.0561977 0.0207169 0.0212417 0.00469123 0.0238532 0.00567935 0.0321947 0.0082235 0.0224875 0.00662631 0.0340798 0.00687164 0.0272609 0.00901132 0.0379565 0.0123807 0.0381051 0.0133956 0.0395777
111 3 O -2.85002 17.577 53.9132 -1.2 1 0.0827212 0.0340074 0.00259517 0.00698009 0.00120486 0.00923344 0.00204054 0.0240158 0.00221791 0.0130507 0.00236671 0.0272439 0.00259924 0.0219435 0.00321659 0.0332735 0.003426 0.0275616 0.00523565 0.0430452
112 3 O -0.278182 17.4494 53.9828 -1.2 1 0.0784816 0.0341217 0.0033419 0.00727615 0.00207797 0.00718657 0.00144784 0.0241768 0.00221656 0.0124417 0.00221892 0.0270602 0.00232646 0.0217347 0.00333649 0.033535 0.00356672 0.0282001 0.00551426 0.0434743
113 1 Mg -2.91263 26.1777 57.4353 1.2 1 0.0193797 0.0148741 0.00409694 0.00597711 0.00175127 0.00691573 0.00164944 0.0233026 0.00207958 0.0107002 0.00224146 0.0279289 0.00237291 0.019403 0.00279552 0.0309115 0.00361753 0.026734 0.00326201 0.0445244
114 1 Mg -1.48778 25.88 49.8402 1.2 1 0.177562 0.0495261 0.00702866 0.013495 0.0028156 0.0154575 0.00364401 0.0279864 0.00524027 0.0175377 0.00458501 0.0308196 0.00358758 0.0245028 0.00603847 0.0346275 0.0059734 0.0325391 0.00798322 0.0385556
115 2 Si -1.00491 23.3922 47.9274 2.4 1 0.230372 0.0561142 0.0150643 0.0182559 0.00324931 0.0207346 0.00536067 0.0296196 0.00778298 0.0204201 0.00594601 0.0326674 0.00540598 0.0276115 0.00646931 0.0356785 0.00931879 0.0352093 0.0107749 0.0397773
116 3 O -0.927602 24.9615 47.9909 -1.2 1 0.230239 0.0548706 0.0145782 0.0182206 0.00364315 0.0206634 0.00480602 0.0295479 0.00778402 0.0201269 0.00623356 0.0321014 0.00542985 0.0267095 0.00812146 0.0358377 0.00930069 0.0353695 0.0102036 0.0396327
117 3 O -1.55795 22.2588 51.7696 -1.2 1 0.131209 0.0432548 0.00248529 0.0108162 0.00232189 0.0121443 0.0023948 0.0261541 0.00317256 0.0152519 0.00329205 0.02968 0.00360342 0.0232843 0.00430274 0.0338034 0.00457361 0.029821 0.00694512 0.0414493
118 3 O -2.17411 22.8111 48.8277 -1.2 1 0.204114 0.055808 0.0100133 0.0153209 0.00282301 0.0174301 0.00462862 0.0290028 0.0059897 0.0201333 0.00471927 0.0315958 0.0040016 0.0266857 0.00626539 0.0357681 0.00761583 0.0345864 0.00930258 0.0394114
119 1 Mg 0.0423997 21.3296 46.8225 1.2 1 0.255524 0.0570722 0.0190567 0.0208573 0.00393966 0.0248949 0.00651227 0.0326923 0.00899701 0.0225351 0.00705767 0.0341038 0.00679179 0.0285936 0.0099402 0.0367644 0.0101738 0.0378713 0.0129119 0.0397005
120 3 O 0.458537 22.7495 48.3911 -1.2 1 0.211833 0.0559371 0.0112761 0.0164896 0.00311392 0.0182506 0.00416712 0.0296695 0.00667184 0.0201318 0.004518 0.03163 0.0048329 0.0278904 0.00639256 0.0353976 0.00832004 0.0359491 0.00979921 0.0406367
121 1 Mg 1.41431 21.4494 54.5043 1.2 1 0.0705023 0.0331664 0.00319823 0.00691166 0.00147247 0.00819561 0.00340209 0.0240889 0.00248273 0.0125286 0.0024035 0.0284442 0.0035744 0.0220653 0.00381153 0.0331828 0.00336857 0.0273775 0.00501439 0.0433404