ITEM: TIMESTEP
3800
ITEM: NUMBER OF ATOMS
10500
ITEM: BOX BOUNDS xy xz yz pp pp pp
0	8.9688	2.9896
0	118.725	0
0	252.977	0
ITEM: ATOMS id type element xu yu zu q Q_1 Q_2 Q_3 Q_4 Q_5 Q_6 Q_7 Q_8 Q_9 Q_10 Q_11 Q_12 Q_13 Q_14 Q_15 Q_16 Q_17 Q_18 Q_19 Q_20 Q_21
1 1 Mg -3.38224 7.00992 57.4215 1.2 1 0.0229661 0.0134913 0.00537574 0.00610143 0.00150837 0.00665155 0.00101752 0.0236017 0.00136061 0.00943195 0.00195928 0.0305125 0.00259586 0.0209305 0.00201703 0.0345506 0.00260334 0.0250724 0.00441508 0.0529982
2 1 Mg -1.82655 6.90154 50.0912 1.2 1 0.17522 0.0472848 0.00631694 0.00947274 0.00335149 0.00894979 0.00432636 0.0230428 0.00424875 0.0142737 0.00498391 0.0263131 0.00468574 0.0209176 0.00657772 0.0299434 0.00569223 0.0253248 0.00943578 0.0363552
3 2 Si -0.257935 3.96038 48.0876 2.4 1 0.225583 0.0530621 0.0119087 0.0123219 0.00269919 0.0097575 0.0035096 0.0203794 0.00559086 0.0167732 0.00460316 0.0248375 0.00549084 0.0204332 0.00571544 0.0269133 0.0069508 0.0243087 0.00925511 0.0333784
4 3 O -0.335812 5.46814 47.6264 -1.2 1 0.232993 0.052639 0.0137127 0.0132629 0.00334451 0.0109467 0.00438833 0.0210401 0.00603936 0.0174507 0.00489417 0.0253793 0.00500261 0.0209701 0.00556218 0.0272509 0.00753508 0.0252409 0.0097338 0.0319359
5 3 O -2.03793 3.43377 51.8941 -1.2 1 0.129455 0.0405516 0.00245834 0.00672835 0.00234538 0.00712617 0.00262503 0.0209382 0.00235008 0.0114414 0.00353975 0.0264298 0.00393992 0.0182334 0.00422281 0.030045 0.00535245 0.0233514 0.00853239 0.0399725
6 3 O -1.54015 3.53929 48.9521 -1.2 1 0.204321 0.0518891 0.00934856 0.0106266 0.00297555 0.0086581 0.00347423 0.0202319 0.00475085 0.0153617 0.00491039 0.024458 0.00437565 0.0200894 0.00587731 0.0275907 0.00551718 0.0236783 0.00919187 0.0335064
7 1 Mg 1.82954 2.54582 47.1376 1.2 1 0.245329 0.0527928 0.0161858 0.0152882 0.00301409 0.0111334 0.0032744 0.0203817 0.00551424 0.0157696 0.00490208 0.0244569 0.00602851 0.019584 0.00727619 0.0252101 0.00639784 0.0231001 0.00891291 0.0311924
8 3 O 1.22989 3.66364 48.7877 -1.2 1 0.206072 0.0504644 0.00964608 0.0117124 0.00222858 0.00967634 0.00383583 0.0204346 0.00375843 0.0149845 0.00408462 0.0244089 0.00486904 0.0197201 0.00608701 0.0270844 0.00449714 0.0236429 0.00943541 0.0344667
9 1 Mg 0.986753 2.26479 54.5992 1.2 1 0.0701445 0.0288007 0.00498192 0.00498377 0.00167591 0.00540362 0.00263327 0.0219956 0.00247954 0.00978397 0.00320417 0.0282652 0.00409469 0.0203932 0.00425487 0.0330044 0.00310539 0.0240389 0.00717753 0.046771
10 2 Si 1.08699 4.95421 56.406 2.4 1 0.0341683 0.0188562 0.00661698 0.00622622 0.00136608 0.00678217 0.00200754 0.0231348 0.00169292 0.00873867 0.00312138 0.02833 0.00301277 0.020834 0.00370391 0.033988 0.0031239 0.0250782 0.00633341 0.0525459
11 3 O 1.0678 3.43879 56.5647 -1.2 1 0.0353819 0.0185383 0.0062117 0.00587896 0.00144305 0.00569517 0.0019247 0.0229436 0.002334 0.00840094 0.00238151 0.0294437 0.00290685 0.0199432 0.00323136 0.03376 0.00374909 0.0250168 0.00581174 0.0515618
12 3 O 1.10813 6.07342 52.8172 -1.2 1 0.105867 0.0355599 0.00275586 0.00627372 0.00244536 0.00725103 0.00345878 0.0228232 0.00290391 0.0111982 0.00335034 0.0274091 0.00427706 0.0195569 0.00436121 0.0316724 0.0043896 0.0246672 0.00737523 0.0426652
13 3 O -0.213396 5.66782 55.7716 -1.2 1 0.0470209 0.0229417 0.00614478 0.00549574 0.00153109 0.00577845 0.0023709 0.0227994 0.00198861 0.00959184 0.00269995 0.0287518 0.00318582 0.0201616 0.00431323 0.0339135 0.00307809 0.0248495 0.00636449 0.0501642
14 3 O 2.33005 5.69592 55.7374 -1.2 1 0.0443609 0.0228364 0.00668656 0.00544027 0.0013151 0.00617843 0.00209791 0.0231202 0.00134828 0.00930194 0.0029501 0.028978 0.00317297 0.0206752 0.00463925 0.0345908 0.00303045 0.0252376 0.00634371 0.0502565
15 1 Mg -0.459401 4.67631 52.2426 1.2 1 0.124915 0.0406634 0.0024172 0.00662843 0.00264385 0.00678737 0.00252801 0.0218687 0.00274396 0.0121096 0.00329801 0.0273309 0.00413318 0.0194752 0.0042555 0.0305229 0.00438867 0.0237337 0.00771652 0.0396187
16 1 Mg 2.79456 3.9971 49.9987 1.2 1 0.176744 0.0495478 0.0058577 0.00954305 0.00267596 0.00813303 0.00448622 0.0210979 0.00308701 0.0147223 0.00326366 0.0252357 0.00464287 0.0203899 0.00620765 0.0287619 0.0044767 0.0241016 0.00993478 0.0353231
17 2 Si 1.16169 6.59457 51.2556 2.4 1 0.148071 0.0452655 0.00261985 0.00876287 0.00283202 0.00837032 0.00419777 0.0222548 0.004071 0.0133411 0.00463232 0.0259621 0.00439943 0.0208984 0.00639008 0.031203 0.00462103 0.0250756 0.00977791 0.0388653
18 3 O 1.28989 8.18905 51.2909 -1.2 1 0.144994 0.0436826 0.00268331 0.00874649 0.00278273 0.00901028 0.00406524 0.0230047 0.00388624 0.0129294 0.0039846 0.0278041 0.00408786 0.0212657 0.00505217 0.0314164 0.00536271 0.0259345 0.00892046 0.0404883
19 3 O 1.10471 5.67125 57.917 -1.2 1 0.0177911 0.0105412 0.00424367 0.00652664 0.00163157 0.00689674 0.00119495 0.0237086 0.0012746 0.00840247 0.00275254 0.029949 0.0026678 0.0210425 0.00338619 0.034909 0.00241568 0.0252833 0.00419603 0.0544115
20 3 O -0.184847 6.06029 50.6845 -1.2 1 0.159614 0.0443375 0.00474544 0.00866944 0.00355604 0.00805514 0.00410974 0.0222195 0.00371666 0.013452 0.00344704 0.0258213 0.00432236 0.0200339 0.00584664 0.0294958 0.00508193 0.0245006 0.00918922 0.0381097
21 1 Mg -3.49704 4.67769 52.6661 1.2 1 0.114849 0.0376964 0.00212822 0.00590772 0.0024338 0.00728485 0.00296334 0.0212378 0.0029862 0.0112007 0.00368495 0.027011 0.00393541 0.0192989 0.00430286 0.0305001 0.00406587 0.0234197 0.0082346 0.0412446
22 3 O 2.48581 5.93312 50.6539 -1.2 1 0.157568 0.0465483 0.00390373 0.00798128 0.00184869 0.00881934 0.00418907 0.0221697 0.0036544 0.0138228 0.00426687 0.0255648 0.00453133 0.0209416 0.00614748 0.0303118 0.00422476 0.0248994 0.00958938 0.0373508
23 1 Mg -1.91873 4.7274 55.2072 1.2 1 0.0520609 0.025236 0.00660266 0.00549723 0.00158348 0.00592269 0.00213991 0.0225485 0.00254854 0.00946155 0.00331932 0.028991 0.00276231 0.0201675 0.00407789 0.0338377 0.00402129 0.0248306 0.00714461 0.0483784
24 2 Si -1.97909 2.66173 53.3082 2.4 1 0.103358 0.0361956 0.00314913 0.00598952 0.00287362 0.00624218 0.0020941 0.0215002 0.00264575 0.0109564 0.0031749 0.0266564 0.00365462 0.0196862 0.00321468 0.0312455 0.0047532 0.0235414 0.00750839 0.0431734
25 3 O -2.00359 1.07745 53.2289 -1.2 1 0.0984429 0.0345281 0.00296685 0.00594103 0.00303502 0.00581035 0.00222581 0.0214173 0.00274606 0.0101604 0.00302754 0.02735 0.00347242 0.0191743 0.00437555 0.031535 0.00407151 0.0232982 0.00778295 0.0434994
26 3 O -0.0467762 2.97103 46.8385 -1.2 1 0.252314 0.0534932 0.0169983 0.0146411 0.00311209 0.0101 0.00364351 0.0199681 0.00631042 0.0169077 0.00612443 0.0241533 0.00700501 0.0191186 0.00806663 0.0252174 0.00658619 0.0233337 0.0101272 0.032347
27 3 O -3.22157 3.28463 54.0989 -1.2 1 0.0805081 0.0306803 0.00406123 0.00489308 0.00214041 0.00583258 0.00182308 0.0216948 0.00253349 0.0103734 0.00270495 0.0270603 0.00300907 0.0197974 0.0036517 0.03215 0.00373457 0.0234574 0.00720865 0.0450288
28 3 O -0.66886 3.2664 53.9909 -1.2 1 0.0828216 0.03209 0.00446078 0.00516549 0.00229995 0.00607736 0.0017715 0.0219267 0.00236446 0.0103694 0.00273315 0.0274299 0.00347142 0.0200051 0.00325112 0.0322877 0.00377057 0.0241359 0.00731226 0.0448302
29 1 Mg -3.3093 11.7878 57.451 1.2 1 0.0233872 0.0130367 0.00491914 0.00621757 0.00147069 0.00631464 0.00132856 0.0239381 0.00175508 0.00936924 0.00169379 0.0310009 0.00243356 0.0213477 0.00233667 0.0344732 0.00242706 0.0251672 0.00399207 0.0544755
30 1 Mg -1.75014 11.5838 49.8362 1.2 1 0.185167 0.0477253 0.00753941 0.0120567 0.00460636 0.0127209 0.0048905 0.0243648 0.00510824 0.0155839 0.00558287 0.0289933 0.00430918 0.0243031 0.00718659 0.0331685 0.00689127 0.0285356 0.0104592 0.0392898
31 2 Si -1.18003 9.02138 47.9309 2.4 1 0.239135 0.0516885 0.0154526 0.0148359 0.00527131 0.013308 0.00747791 0.022964 0.00788853 0.0170557 0.00736271 0.026688 0.00498765 0.0229261 0.00691174 0.030269 0.0091028 0.0279116 0.0122972 0.034807
32 3 O -1.23224 10.5991 47.9811 -1.2 1 0.231025 0.0529161 0.013754 0.0152733 0.0054635 0.0145233 0.00643669 0.0244536 0.00790139 0.017232 0.00749844 0.0280209 0.00537953 0.0240266 0.00821389 0.0325207 0.00938126 0.0302208 0.011145 0.0354255
33 3 O -1.79016 8.01447 51.8693 -1.2 1 0.133606 0.0406745 0.00235177 0.00813363 0.00357574 0.00776911 0.0029277 0.0226133 0.00333851 0.0122098 0.00385884 0.0279131 0.0040743 0.0205311 0.00480608 0.0319772 0.00555882 0.0248656 0.00918762 0.0412437
34 3 O -2.30986 8.37215 48.8528 -1.2 1 0.205179 0.0522463 0.00950908 0.0119576 0.00431858 0.0107268 0.00596857 0.0233647 0.00580202 0.0169305 0.0052031 0.0268705 0.00431327 0.022887 0.00599995 0.0313453 0.0069406 0.0274479 0.00993701 0.0350936
35 1 Mg 0.154883 7.08234 46.8007 1.2 1 0.258401 0.0524458 0.0181581 0.0155388 0.00572473 0.0138018 0.00815015 0.023565 0.00767999 0.0176436 0.00746482 0.0254292 0.00702382 0.0217209 0.00835689 0.02892 0.00969856 0.0277782 0.0130905 0.0320236
36 3 O 0.325447 8.50934 48.3809 -1.2 1 0.21675 0.0526013 0.0110372 0.0135301 0.00447654 0.0122914 0.00598175 0.0239174 0.00626324 0.0168472 0.00592239 0.0264717 0.00465017 0.0237212 0.00570576 0.0301396 0.00729227 0.0281279 0.0106775 0.0348738
37 1 Mg 1.17543 7.12312 54.6077 1.2 1 0.0688404 0.0289985 0.00488269 0.00557812 0.00191795 0.00622624 0.00245011 0.0225375 0.0022469 0.0104426 0.00322366 0.0285887 0.00399288 0.0209727 0.00368726 0.0337793 0.00370974 0.0241888 0.00695812 0.0472362
38 2 Si 1.15414 9.71698 56.4583 2.4 1 0.0346696 0.0185472 0.00629703 0.00661248 0.00155246 0.00646178 0.00215349 0.0236327 0.00179054 0.00885207 0.00329849 0.0288044 0.0029519 0.0218218 0.00389404 0.0345051 0.00326783 0.025172 0.00620464 0.0538947
39 3 O 1.10829 8.19407 56.4958 -1.2 1 0.0322582 0.0175247 0.00617345 0.0062511 0.00126552 0.00634219 0.00161494 0.0233614 0.00254628 0.00823494 0.00238473 0.029655 0.00322684 0.020265 0.00282151 0.0344705 0.00363482 0.0249658 0.00547703 0.0527817
40 3 O 1.28624 10.7248 52.7351 -1.2 1 0.112622 0.0369819 0.00213998 0.00730644 0.00273199 0.00962163 0.00316094 0.0238317 0.00296768 0.0119069 0.00415262 0.0287676 0.00456514 0.0220281 0.00508459 0.0331633 0.00393164 0.0265172 0.0080519 0.0447925
41 3 O -0.0801862 10.471 55.7704 -1.2 1 0.0499181 0.0231661 0.00550934 0.00607768 0.00149344 0.00645798 0.00214008 0.0235632 0.00165936 0.0095625 0.00275885 0.0290353 0.00316539 0.0215245 0.00390414 0.0346889 0.00307462 0.0255623 0.00625798 0.05167
42 3 O 2.44245 10.3755 55.7662 -1.2 1 0.0451319 0.0222818 0.00623952 0.00604146 0.0013418 0.00637311 0.00206831 0.0236412 0.00172671 0.00950036 0.00264887 0.0292834 0.00337872 0.0217656 0.00367855 0.0349237 0.00271034 0.0256811 0.00603023 0.0518849
43 1 Mg -0.262694 9.34741 52.2523 1.2 1 0.113893 0.0398163 0.00295848 0.00760536 0.0032273 0.00777421 0.00250625 0.0236627 0.00308322 0.0119398 0.00350603 0.0289406 0.00414608 0.0213478 0.00509227 0.0327568 0.0043879 0.0261489 0.0083655 0.0427952
44 1 Mg 1.87648 9.01537 49.4629 1.2 1 0.186 0.0521872 0.00608622 0.0110587 0.00331852 0.0108612 0.00609662 0.0234534 0.00520137 0.0160037 0.00549177 0.0274347 0.00482061 0.0233509 0.00618262 0.0317577 0.00564953 0.0279616 0.0103846 0.036748
45 2 Si 1.21415 11.3799 51.2378 2.4 1 0.150182 0.0458832 0.00229718 0.0100747 0.00348387 0.0109892 0.00389001 0.0241541 0.00414398 0.0143441 0.00514342 0.027801 0.00445563 0.0241033 0.00600788 0.0334315 0.00473272 0.0284367 0.00998424 0.0423062
46 3 O 1.31634 12.9512 51.3023 -1.2 1 0.148012 0.0433963 0.00280742 0.00974881 0.00284053 0.0115789 0.00343287 0.0247662 0.00420296 0.0143627 0.00380344 0.0293743 0.0043581 0.0246734 0.00469114 0.0340452 0.00518008 0.0287158 0.00873442 0.0434552
47 3 O 1.16936 10.4208 57.931 -1.2 1 0.018391 0.0104185 0.00393378 0.00650806 0.00152498 0.00665894 0.00146183 0.0242211 0.00142693 0.00852971 0.0028248 0.0302901 0.00264155 0.0213721 0.00314782 0.0345572 0.00252173 0.0251163 0.00399674 0.0551736
48 3 O -0.115718 10.7564 50.681 -1.2 1 0.156571 0.045488 0.00397553 0.010424 0.00393677 0.0104366 0.00427185 0.0240665 0.00382946 0.0138286 0.00402097 0.0281755 0.00462569 0.0230705 0.00650385 0.0325344 0.00499288 0.0275361 0.0100717 0.0409959
49 1 Mg -3.26386 9.35564 52.3622 1.2 1 0.124008 0.039472 0.00167254 0.00732738 0.00252719 0.00939418 0.0036152 0.0233069 0.00358089 0.012297 0.0044607 0.0282484 0.00377432 0.0214218 0.00482533 0.0329066 0.00443409 0.0259635 0.008401 0.0415595
50 3 O 2.45216 10.7265 50.4558 -1.2 1 0.163387 0.0477593 0.00401203 0.00962559 0.00284695 0.0115187 0.0045878 0.0238053 0.00440258 0.0154206 0.00473325 0.0279461 0.00429832 0.0241604 0.0061646 0.0330065 0.00553667 0.0279479 0.0096366 0.0402103
51 1 Mg -1.72859 9.47189 55.1432 1.2 1 0.0570484 0.0264501 0.00552595 0.00637005 0.00196107 0.00618866 0.00252278 0.0235624 0.00262764 0.00972162 0.00358167 0.0293367 0.00300571 0.0215271 0.00396125 0.0341437 0.00429785 0.0252158 0.0070186 0.0499805
52 2 Si -1.79867 7.36728 53.3686 2.4 1 0.0958085 0.0355361 0.00360263 0.00648073 0.00331915 0.00676485 0.00237323 0.0225187 0.00337756 0.0112083 0.00330768 0.027941 0.00349505 0.0209379 0.00322994 0.0325678 0.00495933 0.0243683 0.00723678 0.0443931
53 3 O -1.90033 5.80007 53.2927 -1.2 1 0.096902 0.0333635 0.00290029 0.00569932 0.00268577 0.00670376 0.00212563 0.0217553 0.00338166 0.0103506 0.00340032 0.0272627 0.00316472 0.0196267 0.00426729 0.032493 0.00394166 0.0239627 0.00793829 0.0438389
54 3 O -1.19417 8.46968 46.4488 -1.2 1 0.270696 0.0527598 0.0207232 0.017323 0.00570904 0.0149344 0.00866135 0.0245178 0.00775044 0.017519 0.00788295 0.0259243 0.00633803 0.0214102 0.00903841 0.0301813 0.0104305 0.0296213 0.0122413 0.0316699
55 3 O -3.07813 8.07212 54.0322 -1.2 1 0.0821965 0.0300917 0.0035646 0.00561534 0.00236591 0.00745244 0.00229998 0.0226734 0.00252154 0.0108212 0.00271265 0.0278439 0.0032263 0.0211324 0.00365064 0.0336177 0.00420695 0.0245279 0.00788697 0.0461584
56 3 O -0.502962 8.05352 53.982 -1.2 1 0.0772987 0.0308665 0.00498078 0.00563092 0.00271115 0.0060813 0.00165676 0.023142 0.00235224 0.0105364 0.00268632 0.0279433 0.00316729 0.0209785 0.00393015 0.0336454 0.00383767 0.0253341 0.00749438 0.0467816
57 1 Mg -3.17528 16.5424 57.412 1.2 1 0.0230809 0.0124611 0.00509316 0.0062504 0.00147148 0.00592526 0.00137587 0.0243519 0.00175261 0.00927771 0.00182871 0.0309166 0.00223515 0.0216644 0.00232003 0.0345193 0.00274204 0.0255893 0.00431558 0.0551538
58 1 Mg -1.6714 16.3544 49.8412 1.2 1 0.182173 0.0485218 0.00705737 0.0129588 0.0036587 0.0147261 0.00373467 0.0266272 0.00488159 0.0174159 0.00485636 0.0315901 0.00392682 0.0268385 0.00677736 0.0352886 0.00592453 0.0311019 0.00979122 0.0424385
59 2 Si -1.18567 13.8526 47.9314 2.4 1 0.235482 0.0537788 0.0152229 0.0168965 0.00503127 0.0180977 0.00537247 0.0271778 0.00844855 0.0195328 0.00646726 0.030941 0.00593877 0.0285982 0.00692834 0.0347673 0.0101313 0.0324931 0.0119414 0.0387035
60 3 O -1.09664 15.4205 47.9915 -1.2 1 0.23215 0.0528902 0.0147543 0.0171588 0.00521988 0.0191003 0.00498928 0.0277298 0.00776455 0.0196691 0.00663035 0.0312295 0.00566823 0.0281947 0.0082043 0.0358262 0.00908364 0.0334518 0.0111684 0.0396524
61 3 O -1.73493 12.7491 51.7772 -1.2 1 0.136434 0.0409565 0.00262284 0.00948342 0.0035718 0.0100566 0.00182071 0.0245345 0.0035572 0.0134768 0.00328069 0.0295471 0.00459178 0.0237789 0.00515414 0.0337655 0.00531039 0.0275548 0.00870006 0.0443917
62 3 O -2.36115 13.2717 48.8238 -1.2 1 0.208365 0.0529924 0.0100635 0.0141944 0.00501498 0.0144571 0.00515004 0.0264989 0.0061631 0.0189671 0.00535145 0.0303481 0.00468635 0.027129 0.0061694 0.0349038 0.00798571 0.03148 0.0106498 0.0388998
63 1 Mg -0.159928 11.7639 46.8533 1.2 1 0.260025 0.0533118 0.0188578 0.0183302 0.00648027 0.019949 0.00736002 0.027931 0.00904638 0.019362 0.00810977 0.0303036 0.00664895 0.0272615 0.00833255 0.0334639 0.0109764 0.0332785 0.0135663 0.0359638
64 3 O 0.2623 13.1866 48.413 -1.2 1 0.214509 0.0523778 0.011292 0.0148875 0.0046587 0.0158212 0.00467092 0.0262701 0.00688268 0.0181591 0.00526398 0.0296375 0.00505278 0.028071 0.00562071 0.0339981 0.00821656 0.0323485 0.0110442 0.0392802
65 1 Mg 1.27235 11.8201 54.5266 1.2 1 0.0762477 0.0304061 0.00374278 0.00604785 0.00220018 0.00737565 0.00265073 0.0232778 0.00250905 0.0109523 0.00228688 0.0293782 0.0042028 0.0229526 0.00333455 0.0345004 0.00382955 0.0254855 0.00628757 0.0483506
66 2 Si 1.25033 14.4671 56.3832 2.4 1 0.0345977 0.0179049 0.00602049 0.00658583 0.00166253 0.00628626 0.00208141 0.0237524 0.00197542 0.00885528 0.00335755 0.0293297 0.00281524 0.0220594 0.00431083 0.0346929 0.00326629 0.0256147 0.00619303 0.055674
67 3 O 1.23584 12.9156 56.4797 -1.2 1 0.032786 0.0169669 0.00576655 0.00655397 0.00147049 0.00626075 0.00171986 0.0242548 0.00301333 0.00854021 0.00191826 0.0300304 0.00313065 0.0214325 0.0025804 0.0346523 0.00370805 0.0258311 0.00511632 0.0549712
68 3 O 1.36565 15.4813 52.729 -1.2 1 0.112245 0.0365122 0.00150237 0.00813514 0.00224397 0.0105122 0.00344204 0.0250073 0.00293123 0.0129229 0.00364772 0.0302297 0.00417946 0.0235122 0.00447268 0.03428 0.00390769 0.0282542 0.00728416 0.0472884
69 3 O -0.00207529 15.1638 55.7396 -1.2 1 0.0489891 0.0224754 0.00543848 0.00638611 0.00147649 0.00653781 0.00241504 0.0241359 0.00171218 0.00998052 0.00253114 0.0292727 0.00282895 0.0222978 0.00407203 0.035245 0.00310078 0.0267046 0.00578328 0.0534967
70 3 O 2.55574 15.1344 55.7326 -1.2 1 0.0447804 0.021789 0.00608806 0.00639145 0.0015893 0.00605349 0.00251346 0.0241313 0.00169969 0.00950759 0.00263924 0.0294416 0.00293705 0.0224442 0.00399723 0.0352223 0.00287633 0.0264071 0.0061805 0.0536195
71 1 Mg -0.206989 14.1049 52.2121 1.2 1 0.118426 0.0405204 0.00187397 0.00865075 0.00287126 0.00895393 0.00255779 0.0248698 0.00309644 0.0132787 0.00328731 0.0302292 0.00394663 0.0240751 0.00463044 0.034245 0.00368047 0.0280894 0.0078581 0.0452555
72 1 Mg 1.82591 13.8102 49.4556 1.2 1 0.186523 0.0523471 0.00569644 0.0123459 0.0031678 0.0136771 0.00470304 0.0254992 0.0049504 0.0176385 0.00511314 0.0298303 0.00474762 0.0270897 0.00657686 0.0353512 0.00608721 0.0312711 0.0105324 0.0400074
73 2 Si 1.29285 16.1518 51.2434 2.4 1 0.148562 0.0464223 0.00233334 0.0108295 0.00272256 0.0122178 0.00385142 0.0256954 0.00415591 0.0156424 0.00508395 0.0294515 0.00413965 0.0262502 0.00590572 0.0348263 0.00401001 0.03075 0.00934927 0.0450267
74 3 O 1.39496 17.7199 51.3047 -1.2 1 0.144089 0.0432079 0.00253806 0.0100755 0.00186381 0.0119643 0.00319153 0.0261039 0.00394619 0.0152181 0.00343706 0.0305212 0.00376204 0.0254342 0.00402845 0.0350547 0.00491006 0.0299928 0.00804815 0.0456266
75 3 O 1.275 15.1428 57.8981 -1.2 1 0.0182046 0.00965201 0.0038888 0.00657647 0.00137005 0.00633742 0.00139254 0.0244113 0.00149146 0.00846443 0.00255855 0.0303126 0.00241929 0.0214372 0.00274167 0.0346513 0.002572 0.0254202 0.00407231 0.0560771
76 3 O -0.0269106 15.5178 50.6688 -1.2 1 0.157099 0.0458594 0.00387882 0.0113057 0.00362345 0.0124327 0.00378647 0.0259088 0.0038735 0.0154028 0.00343178 0.0299914 0.00418838 0.0263336 0.00598192 0.0344539 0.00426459 0.0302075 0.00912379 0.0439851
77 1 Mg -3.18391 14.1057 52.3125 1.2 1 0.126586 0.0406052 0.00155014 0.00866984 0.00238022 0.0108385 0.00281801 0.0248715 0.00336766 0.0139503 0.00342372 0.0299874 0.00386634 0.0245342 0.00452039 0.0339898 0.00414546 0.0281446 0.00753286 0.0445644
78 3 O 2.52432 15.503 50.4579 -1.2 1 0.162447 0.0483259 0.00427398 0.010631 0.00262722 0.013089 0.00422327 0.0259366 0.00417617 0.0172513 0.00386268 0.0299675 0.00411304 0.0271678 0.00597288 0.0347723 0.00497387 0.0303595 0.00902963 0.0430449
79 1 Mg -1.66836 14.1729 55.1452 1.2 1 0.054269 0.0253011 0.00579828 0.00665992 0.0019876 0.00610787 0.00213791 0.0244028 0.00275056 0.0101485 0.00333522 0.0299993 0.00268837 0.0226367 0.00397724 0.0349771 0.00390014 0.0264122 0.00643806 0.0523941
80 2 Si -1.72373 12.0794 53.2663 2.4 1 0.0995101 0.0360328 0.00342424 0.0074405 0.00297771 0.00782207 0.00155257 0.0241313 0.00336816 0.0120202 0.00277458 0.0287811 0.00408808 0.0234003 0.00326054 0.0341147 0.00463472 0.0265833 0.00742095 0.0474237
81 3 O -1.75472 10.5246 53.2038 -1.2 1 0.0976139 0.0342369 0.00330491 0.00659151 0.00311585 0.00789126 0.0016264 0.023046 0.00305576 0.0107471 0.00307808 0.02862 0.00368098 0.0214845 0.00401227 0.0337292 0.0044047 0.0254704 0.00826968 0.0463873
82 3 O -1.21337 13.3381 46.4311 -1.2 1 0.271252 0.0529894 0.0211455 0.020203 0.00701017 0.020813 0.0072125 0.0298416 0.00906814 0.0205875 0.00731295 0.0314261 0.00624209 0.0269577 0.00877773 0.0358315 0.0126732 0.0353697 0.0134891 0.0362107
83 3 O -2.9751 12.7779 53.9639 -1.2 1 0.0866885 0.0320377 0.00313011 0.00623001 0.00227752 0.00843812 0.00182867 0.023975 0.00271761 0.0114877 0.00244966 0.0290896 0.00354726 0.022997 0.00341912 0.0344913 0.00387142 0.0265379 0.00683422 0.0484674
84 3 O -0.428956 12.7514 53.9002 -1.2 1 0.0813505 0.031532 0.00400782 0.00636297 0.00282968 0.00621835 0.00118654 0.0242583 0.00267999 0.0108928 0.00233284 0.0289012 0.0033476 0.0230484 0.00364392 0.0348089 0.00371039 0.0267734 0.00694511 0.0490371
85 1 Mg -3.10528 21.2457 57.4482 1.2 1 0.0227545 0.0127884 0.00523586 0.00648211 0.00138262 0.00551908 0.00130781 0.024541 0.00164565 0.00919755 0.00165666 0.0309063 0.002176 0.0216365 0.00239713 0.0346495 0.00264681 0.0256701 0.00408533 0.0550094
86 1 Mg -1.5831 21.1217 49.8405 1.2 1 0.182032 0.0490009 0.00683138 0.0135651 0.00318403 0.0150334 0.00377694 0.0272313 0.00464147 0.0175687 0.00485626 0.0317143 0.00390329 0.0267408 0.00655924 0.0358246 0.00571034 0.0315703 0.00976789 0.0425744
87 2 Si -1.09384 18.6291 47.9287 2.4 1 0.23015 0.0539048 0.01421 0.0173721 0.0041887 0.0199545 0.00431915 0.0285512 0.00747904 0.0201053 0.00576763 0.0322486 0.00569615 0.02918 0.00626699 0.0364113 0.0092987 0.0340166 0.0109082 0.0414899
88 3 O -1.02071 20.1985 47.9911 -1.2 1 0.230695 0.0535925 0.01423 0.0178669 0.00434701 0.0202272 0.00470324 0.0286159 0.00725227 0.0202276 0.00629036 0.0321377 0.00575975 0.0283911 0.00797698 0.036858 0.00841264 0.0343954 0.010956 0.0412913
89 3 O -1.65002 17.5002 51.771 -1.2 1 0.136241 0.0411895 0.00215795 0.0101528 0.00297788 0.011076 0.00196719 0.025545 0.00319678 0.0143177 0.0028498 0.0303298 0.00429651 0.0246666 0.00473639 0.0347028 0.0051414 0.0287972 0.00818906 0.0457812
90 3 O -2.26174 18.0434 48.8281 -1.2 1 0.204543 0.0533625 0.00963218 0.0147843 0.00400104 0.016666 0.00434321 0.0280615 0.00577838 0.019591 0.00462944 0.0317182 0.00433439 0.0282315 0.00636876 0.0363168 0.00710485 0.0332843 0.00994593 0.0414227
91 1 Mg -0.0440435 16.5651 46.8269 1.2 1 0.258871 0.0550049 0.0188256 0.0199916 0.00554017 0.0240775 0.00579032 0.0315035 0.00931846 0.0220104 0.00700342 0.0335442 0.0071018 0.029786 0.00889219 0.036129 0.0101729 0.0363867 0.012628 0.0403575
92 3 O 0.37001 17.9877 48.3925 -1.2 1 0.215559 0.0539016 0.0109449 0.0161478 0.00391895 0.0179213 0.00376206 0.0286344 0.00633739 0.0197235 0.00442709 0.0315375 0.00497501 0.0293538 0.00568866 0.0357412 0.00782261 0.0349808 0.010313 0.0420545
93 1 Mg 1.39893 16.5116 54.5513 1.2 1 0.0734461 0.0293248 0.0041939 0.00651939 0.00192944 0.00721797 0.00315962 0.0240478 0.00250402 0.0113846 0.00239658 0.030154 0.00411087 0.0237016 0.00391529 0.0351827 0.00360301 0.0264652 0.00603704 0.0503403
94 2 Si 1.36283 19.2237 56.3785 2.4 1 0.0358247 0.0183466 0.00612061 0.006699 0.00170069 0.00578794 0.00207109 0.0240851 0.00181316 0.00906718 0.00326283 0.0290301 0.00265542 0.0223882 0.00441204 0.0349074 0.00314086 0.025972 0.00608126 0.0555444
95 3 O 1.32003 17.6563 56.4924 -1.2 1 0.0320119 0.0165867 0.00616944 0.00672067 0.00159257 0.00570268 0.00200914 0.0246178 0.00266333 0.00875671 0.00209227 0.0300981 0.00281142 0.021513 0.00293563 0.0346213 0.00377605 0.026091 0.00554095 0.0552404
96 3 O 1.45147 20.239 52.7294 -1.2 1 0.11148 0.0369635 0.00152304 0.00840183 0.00161916 0.0105905 0.00356589 0.0254405 0.00263523 0.0131323 0.00348281 0.0303029 0.00399502 0.0236207 0.00470323 0.0345124 0.00385429 0.0283827 0.00727827 0.0476778
97 3 O 0.0809807 19.8965 55.7084 -1.2 1 0.0511175 0.0232375 0.00532281 0.00654947 0.00136796 0.00623206 0.00222821 0.0244624 0.00158139 0.0101644 0.00235519 0.0291322 0.00277502 0.0225219 0.00352443 0.035341 0.0030073 0.0268965 0.00564388 0.0532079
98 3 O 2.6419 19.889 55.7065 -1.2 1 0.044854 0.0222557 0.00638514 0.00660996 0.00171269 0.00576629 0.00259702 0.0243098 0.0018297 0.00945972 0.00251209 0.0292209 0.00276323 0.0222251 0.00398255 0.0355094 0.00305363 0.0268281 0.00617958 0.0537777
99 1 Mg -0.126194 18.8651 52.2079 1.2 1 0.116749 0.0408963 0.00209405 0.00924167 0.00218074 0.00928002 0.00262876 0.0255182 0.00280475 0.0140233 0.0029535 0.0306008 0.00381353 0.0244532 0.00439817 0.0349228 0.00371511 0.0290133 0.00777853 0.0463657
100 1 Mg 1.92402 18.5815 49.4545 1.2 1 0.185291 0.0534892 0.00566529 0.0127095 0.00214079 0.0146627 0.00460835 0.0267257 0.00474875 0.0187182 0.00433512 0.0311642 0.0045682 0.0279153 0.0051106 0.0363989 0.00630943 0.032866 0.0098014 0.0423538
101 2 Si 1.38106 20.9117 51.2443 2.4 1 0.147517 0.0466661 0.00185448 0.0112064 0.0023832 0.0122448 0.00420182 0.0262618 0.00382226 0.0158191 0.00470683 0.0294651 0.00414791 0.0260862 0.00589094 0.0350788 0.00377205 0.0312034 0.00924991 0.0454422
102 3 O 1.48527 22.4795 51.3054 -1.2 1 0.145209 0.0436703 0.0020921 0.010372 0.00210207 0.0121163 0.0036623 0.0256706 0.00351728 0.0150408 0.00311864 0.0304605 0.00417271 0.0252194 0.004007 0.0349071 0.00533302 0.0300595 0.00799956 0.0451406
103 3 O 1.35242 19.8954 57.8849 -1.2 1 0.0183631 0.0103045 0.00422465 0.00677591 0.00134366 0.00594949 0.00155804 0.0246221 0.00147522 0.00850764 0.00260496 0.0302628 0.00224961 0.0217494 0.00322143 0.0345593 0.00265845 0.0257234 0.00402709 0.0561265
104 3 O 0.0615419 20.2804 50.6669 -1.2 1 0.157001 0.0464652 0.00372138 0.0120026 0.00337918 0.0128992 0.00424572 0.0262613 0.00355194 0.0157246 0.00312265 0.0303372 0.00418199 0.0263284 0.00551958 0.0349606 0.00394164 0.0308495 0.00901519 0.0447315
105 1 Mg -3.09665 18.8643 52.3122 1.2 1 0.124069 0.0405293 0.00125378 0.00910922 0.00171841 0.010941 0.00285324 0.0254182 0.00278384 0.0146441 0.00276917 0.0306159 0.0035958 0.02502 0.00373022 0.0345308 0.00430005 0.0287746 0.00720995 0.0456188
106 3 O 2.61548 20.2646 50.4626 -1.2 1 0.160047 0.0485746 0.00361113 0.0110234 0.00192709 0.0132757 0.00415339 0.0265727 0.00355046 0.0173648 0.00360993 0.0300905 0.00402854 0.02687 0.00559596 0.0354807 0.00440315 0.0309594 0.00884347 0.0439902
107 1 Mg -1.61041 18.9551 55.0707 1.2 1 0.0577285 0.0266194 0.00564805 0.00709167 0.00189352 0.00610297 0.00207936 0.0247607 0.00257793 0.0106555 0.00309992 0.0295886 0.00263904 0.0229033 0.00380249 0.0349312 0.00412325 0.0270317 0.00643008 0.0523015
108 2 Si -1.62516 16.8319 53.2796 2.4 1 0.0979662 0.0357039 0.00293804 0.00811825 0.00252421 0.00764353 0.00155337 0.024764 0.00311849 0.0124068 0.00266797 0.0295278 0.00339229 0.0241287 0.00334113 0.0348373 0.00459975 0.0277683 0.00714819 0.049133
109 3 O -1.62097 15.2938 53.1689 -1.2 1 0.0984482 0.0348668 0.00293747 0.00764501 0.0026941 0.00806204 0.00177567 0.0243664 0.00302651 0.0117057 0.00266771 0.0297219 0.00339777 0.0232643 0.00448764 0.0347031 0.0036621 0.027472 0.00793571 0.0486462
110 3 O -1.12868 18.1227 46.4249 -1.2 1 0.26824 0.0550132 0.0204101 0.0211688 0.00584732 0.0239196 0.00592043 0.0323107 0.00811279 0.0217871 0.00614123 0.0338932 0.00684454 0.0277635 0.00871434 0.0379156 0.0117502 0.0374372 0.012633 0.040163
111 3 O -2.87167 17.5238 53.9708 -1.2 1 0.0840212 0.0315005 0.00326616 0.00672205 0.00175497 0.00796359 0.00200579 0.0248459 0.00215236 0.0119555 0.00214444 0.0292679 0.00308407 0.0238853 0.00309165 0.0350354 0.00371542 0.0272234 0.00632476 0.0495218
112 3 O -0.275798 17.5212 53.9025 -1.2 1 0.0811993 0.0315601 0.00386635 0.00686764 0.00278272 0.00619773 0.00124453 0.024639 0.00201254 0.0112267 0.00223798 0.0289699 0.00325389 0.0236978 0.00354847 0.0352596 0.00393975 0.0276291 0.00654164 0.0497869
113 1 Mg -2.99211 26.0138 57.45 1.2 1 0.0222546 0.0125163 0.00532187 0.00673086 0.00145665 0.00564778 0.00133411 0.024849 0.00165096 0.00928532 0.00160277 0.0311055 0.00222892 0.0215816 0.00245112 0.0344704 0.00277675 0.0256024 0.00433347 0.0546922
114 1 Mg -1.48778 25.88 49.8402 1.2 1 0.181665 0.048864 0.00649446 0.0136702 0.00307421 0.0153577 0.00361249 0.0271732 0.00454002 0.0176643 0.00488033 0.0319782 0.00395265 0.0265389 0.00649 0.0356801 0.00584614 0.0314563 0.00961126 0.0419622
115 2 Si -1.00491 23.3922 47.9274 2.4 1 0.23264 0.0543006 0.014291 0.0183446 0.0042264 0.0206869 0.00463018 0.0288062 0.00743021 0.02036 0.0056703 0.0325478 0.00573145 0.028716 0.00652695 0.0363581 0.00897045 0.0342563 0.0111401 0.0410921
116 3 O -0.927602 24.9615 47.9909 -1.2 1 0.23048 0.0536472 0.0139947 0.0181732 0.00412801 0.0204555 0.00444389 0.0285968 0.0071727 0.0202131 0.00602216 0.0322868 0.00570066 0.0280742 0.00777493 0.0365882 0.00845681 0.0343941 0.0106721 0.0408924
117 3 O -1.55795 22.2588 51.7696 -1.2 1 0.135549 0.0413233 0.00196376 0.0105444 0.00285162 0.0111985 0.0021987 0.0257039 0.00289197 0.0143993 0.00289906 0.0304159 0.004239 0.0244001 0.00457673 0.0348072 0.00509781 0.0288548 0.00821736 0.045856
118 3 O -2.17411 22.8111 48.8277 -1.2 1 0.207083 0.0541762 0.00938308 0.0156312 0.00331218 0.0170301 0.00426347 0.0283473 0.00547715 0.0198533 0.00461271 0.0317697 0.00447028 0.0279532 0.00601221 0.0366314 0.00705357 0.0337627 0.0098736 0.0413187
119 1 Mg 0.0423997 21.3296 46.8225 1.2 1 0.258161 0.0552969 0.0182899 0.0208815 0.00548058 0.0248005 0.00602909 0.031999 0.00856452 0.0223256 0.00662678 0.0339278 0.00703526 0.0293794 0.00906191 0.0367352 0.00953668 0.0370568 0.0125336 0.0406648
120 3 O 0.458537 22.7495 48.3911 -1.2 1 0.213387 0.053741 0.0103788 0.0165923 0.0037316 0.0179074 0.00373237 0.0285493 0.00595473 0.0197778 0.00395284 0.0316482 0.00512085 0.0290475 0.00589805 0.0358594 0.00728806 0.0349758 0.0102918 0.0421782