ITEM: TIMESTEP
48000
ITEM: NUMBER OF ATOMS
10500
ITEM: BOX BOUNDS xy xz yz pp pp pp
0	8.9688	2.9896
0	118.725	0
0	252.977	0
ITEM: ATOMS id type element xu yu zu q Q_1 Q_2 Q_3 Q_4 Q_5 Q_6 Q_7 Q_8 Q_9 Q_10 Q_11 Q_12 Q_13 Q_14 Q_15 Q_16 Q_17 Q_18 Q_19 Q_20 Q_21
1 1 Mg -3.51419 7.0701 57.622 1.2 1 0.0192528 0.0154537 0.00404002 0.00558514 0.00143302 0.00609121 0.00105096 0.0209439 0.00229021 0.00943473 0.00206713 0.026069 0.00247281 0.0187 0.00207742 0.0326556 0.00234383 0.0253427 0.0037604 0.0427721
2 1 Mg -1.82655 6.90154 50.0912 1.2 1 0.175083 0.0475441 0.00664303 0.0093791 0.00303678 0.0086651 0.00410884 0.0228709 0.00478087 0.0145083 0.00486525 0.024879 0.00448782 0.0208585 0.00623025 0.030072 0.00543514 0.0266918 0.00833072 0.0328753
3 2 Si -0.257935 3.96038 48.0876 2.4 1 0.226571 0.0521978 0.0117394 0.0123109 0.00270247 0.00966338 0.00370588 0.0201359 0.00578057 0.0173546 0.00418552 0.0243061 0.0056601 0.0207517 0.00595039 0.027529 0.00723014 0.0258481 0.00875414 0.0315878
4 3 O -0.335812 5.46814 47.6264 -1.2 1 0.233728 0.0518588 0.0137139 0.013284 0.00355604 0.0106218 0.00466074 0.0208848 0.00647196 0.0178665 0.00455771 0.0249591 0.00500519 0.0211392 0.00589734 0.0277053 0.00768665 0.0265376 0.00943267 0.030196
5 3 O -2.03793 3.43377 51.8941 -1.2 1 0.129526 0.0409011 0.00230709 0.00666614 0.00181459 0.00672234 0.0025933 0.0197136 0.00226637 0.0116699 0.00309182 0.0247864 0.00369234 0.0177692 0.00434851 0.0295975 0.00519558 0.0245585 0.00743034 0.0351762
6 3 O -1.54015 3.53929 48.9521 -1.2 1 0.201312 0.0503929 0.00892799 0.010391 0.00257058 0.00852483 0.00345962 0.0202266 0.00464154 0.0155883 0.00454673 0.0241028 0.00457978 0.0200722 0.0059709 0.0280434 0.00596037 0.025049 0.00858972 0.0317575
7 1 Mg 1.82954 2.54582 47.1376 1.2 1 0.248944 0.0518582 0.0161379 0.0152012 0.00320759 0.0113626 0.0034103 0.0198509 0.00565606 0.0164409 0.00494773 0.0240531 0.00673348 0.019729 0.00761058 0.0256439 0.00727294 0.024274 0.00861031 0.0303116
8 3 O 1.22989 3.66364 48.7877 -1.2 1 0.205525 0.049608 0.00966085 0.0116404 0.00237559 0.009559 0.00365852 0.0197073 0.00423391 0.0153651 0.00369471 0.0239888 0.00476169 0.0199848 0.00619745 0.0274903 0.00469288 0.0246662 0.0089194 0.0326272
9 1 Mg 1.02424 2.3054 54.6163 1.2 1 0.0689535 0.0296806 0.00444371 0.0043225 0.00149554 0.00537281 0.00247056 0.0198227 0.00267127 0.00999279 0.00255515 0.0250899 0.00375791 0.0189594 0.00401344 0.0313544 0.00329021 0.0250423 0.00611128 0.0388572
10 2 Si 1.01918 5.04616 56.2461 2.4 1 0.0360619 0.0222082 0.00544085 0.00540541 0.00155082 0.00626316 0.00199435 0.020193 0.00209611 0.00888268 0.00375685 0.0247939 0.00277922 0.018737 0.00439931 0.0319299 0.00316944 0.0253607 0.00520283 0.0415918
11 3 O 1.03579 3.52596 56.3256 -1.2 1 0.039992 0.0229911 0.00579224 0.00460754 0.00137019 0.00515088 0.00239465 0.0192507 0.00249752 0.00900553 0.00230625 0.0256157 0.00310163 0.018035 0.003201 0.0317416 0.0036817 0.0252093 0.00517298 0.0405729
12 3 O 1.10813 6.07342 52.8172 -1.2 1 0.104566 0.0363632 0.00180716 0.00607363 0.00200659 0.00687687 0.00308117 0.0215162 0.00301052 0.0114596 0.00288025 0.0249047 0.00362087 0.0188078 0.00443405 0.0307856 0.00410126 0.0255082 0.00662553 0.0368122
13 3 O -0.194182 5.69791 55.6542 -1.2 1 0.0475245 0.0259255 0.0052217 0.00484804 0.00153648 0.00596573 0.0021246 0.0209848 0.00271847 0.0102358 0.002476 0.0253029 0.00274068 0.0191292 0.00371137 0.0320828 0.00294189 0.0253746 0.00470916 0.0406983
14 3 O 2.35551 5.71178 55.6965 -1.2 1 0.0428165 0.0246214 0.00582483 0.00470908 0.00135143 0.00619753 0.00190562 0.0210524 0.00170709 0.00969248 0.00260393 0.0253262 0.00275426 0.0188682 0.00376851 0.0329191 0.00311373 0.0263489 0.0050777 0.0410653
15 1 Mg -0.459401 4.67631 52.2426 1.2 1 0.12412 0.04109 0.00215008 0.00666332 0.00215199 0.00660391 0.00245788 0.0207275 0.00288387 0.0125253 0.00281931 0.0251978 0.00372276 0.0191656 0.00407557 0.0300927 0.00452784 0.0248474 0.00655067 0.0347777
16 1 Mg 2.79456 3.9971 49.9987 1.2 1 0.177119 0.0492236 0.0058554 0.00934218 0.00264455 0.00804221 0.00419728 0.0199934 0.0033499 0.015035 0.00298964 0.0244793 0.00453789 0.0205332 0.00654458 0.0291516 0.00467215 0.0252544 0.00930506 0.0324115
17 2 Si 1.16169 6.59457 51.2556 2.4 1 0.146785 0.0451207 0.00249107 0.0083507 0.00254702 0.00823723 0.00408006 0.0216171 0.00418808 0.0136341 0.00485711 0.0244094 0.00453565 0.0208415 0.00615528 0.0311295 0.00466041 0.0264715 0.00834928 0.0344006
18 3 O 1.28989 8.18905 51.2909 -1.2 1 0.145894 0.0444351 0.0026992 0.00852896 0.00220553 0.00897294 0.00415683 0.0224008 0.00450551 0.0132209 0.00368487 0.026175 0.00344901 0.0205692 0.00487712 0.031278 0.00521598 0.0270062 0.00765608 0.0355018
19 3 O 1.01132 5.63482 57.8419 -1.2 1 0.0158971 0.0139481 0.00379766 0.00556412 0.00106332 0.00635587 0.00150941 0.0209392 0.00205056 0.00882001 0.00271634 0.0256267 0.00261726 0.0188933 0.00262422 0.0323874 0.00237567 0.0257062 0.00366761 0.0430543
20 3 O -0.184847 6.06029 50.6845 -1.2 1 0.15951 0.0447212 0.00505376 0.00874873 0.00326456 0.00797209 0.00366767 0.0214197 0.00407089 0.013814 0.00305638 0.0242355 0.00392172 0.019934 0.00537775 0.0294915 0.00500232 0.025778 0.00822792 0.0342792
21 1 Mg -3.49704 4.67769 52.6661 1.2 1 0.113452 0.0378117 0.00159677 0.00572968 0.00202052 0.00682198 0.00288426 0.0200826 0.00284726 0.0114854 0.00315151 0.0250775 0.00347743 0.0183919 0.0043776 0.0299752 0.00390361 0.0245857 0.00745503 0.0358525
22 3 O 2.48581 5.93312 50.6539 -1.2 1 0.157764 0.0469244 0.00409416 0.00787935 0.00179154 0.00874778 0.0038469 0.0215391 0.00411674 0.0140582 0.00414034 0.024223 0.00404592 0.0207768 0.00587274 0.0302881 0.00458576 0.0261616 0.00836596 0.0333068
23 1 Mg -1.90667 4.65771 55.2366 1.2 1 0.0511625 0.0267146 0.00584386 0.00486269 0.0014753 0.00611879 0.002062 0.0205705 0.00221941 0.00985686 0.00262591 0.025728 0.00254429 0.0190827 0.00357912 0.0323839 0.00333849 0.0260567 0.00574592 0.0396909
24 2 Si -1.92424 2.59002 53.334 2.4 1 0.0991039 0.035346 0.00271631 0.00553331 0.00226704 0.00611013 0.0020443 0.0199342 0.00254656 0.0110787 0.00295353 0.024339 0.00325796 0.0184979 0.00426133 0.030513 0.0038942 0.0249224 0.00674566 0.0368162
25 3 O -1.94319 1.05702 53.1604 -1.2 1 0.0997545 0.0354174 0.00281036 0.00570211 0.0028773 0.00579066 0.00173745 0.0197055 0.00282075 0.0107398 0.0023703 0.0251975 0.00337695 0.0179457 0.0045406 0.0301751 0.00349561 0.0245503 0.00702729 0.0366046
26 3 O -0.0467762 2.97103 46.8385 -1.2 1 0.253878 0.0522004 0.0164116 0.0146427 0.00331158 0.0101971 0.0036546 0.0196355 0.00624089 0.0175386 0.00590587 0.0239713 0.00708797 0.0191187 0.00814343 0.0256686 0.00729549 0.0246568 0.00973697 0.0313466
27 3 O -3.15769 3.18111 54.1139 -1.2 1 0.0801994 0.0319767 0.00355186 0.00434701 0.00179596 0.00585337 0.00219701 0.0197055 0.00245824 0.0105019 0.00231903 0.0245954 0.0030454 0.0186392 0.00362218 0.0311005 0.00386441 0.0245726 0.00622088 0.0379176
28 3 O -0.663864 3.26019 54.0127 -1.2 1 0.0802523 0.0321868 0.00367179 0.00469422 0.00168161 0.0060651 0.00172232 0.0199386 0.00203777 0.010579 0.00238568 0.0248824 0.00325958 0.0190336 0.00367186 0.0311793 0.00293129 0.0252196 0.00553713 0.037869
29 1 Mg -3.02753 11.7179 57.3558 1.2 1 0.0227702 0.0160675 0.0045113 0.00567885 0.00113896 0.00645604 0.000811008 0.0218733 0.0022099 0.00967191 0.0017542 0.0258546 0.00246782 0.0186459 0.00255545 0.0320881 0.00305782 0.0257515 0.00381597 0.0425972
30 1 Mg -1.75014 11.5838 49.8362 1.2 1 0.183031 0.0484647 0.00764994 0.0120716 0.00403506 0.0127603 0.00504819 0.0245324 0.00582809 0.0155885 0.00520729 0.0281121 0.00392784 0.0228954 0.00677585 0.0326137 0.00669666 0.0290312 0.00905868 0.0349364
31 2 Si -1.18003 9.02138 47.9309 2.4 1 0.240601 0.0520111 0.0154097 0.0154038 0.00528947 0.0134522 0.00762976 0.0233553 0.0082932 0.0172 0.00693585 0.026254 0.00491748 0.0225008 0.00707726 0.0303893 0.00849264 0.028891 0.0110386 0.0323952
32 3 O -1.23224 10.5991 47.9811 -1.2 1 0.228121 0.0529011 0.0133705 0.0152819 0.0051912 0.0143468 0.00632104 0.0246158 0.00840898 0.0172367 0.00668604 0.0277833 0.00490788 0.0231841 0.0080038 0.0325079 0.00872167 0.030372 0.0097895 0.0330764
33 3 O -1.79016 8.01447 51.8693 -1.2 1 0.132754 0.0414853 0.0021773 0.00797226 0.00309487 0.00756484 0.00314502 0.0221804 0.00389642 0.012473 0.00384425 0.0255491 0.00325048 0.0202025 0.00442857 0.0311698 0.00537755 0.0259582 0.0079722 0.0359417
34 3 O -2.30986 8.37215 48.8528 -1.2 1 0.206065 0.0522093 0.00956016 0.0119328 0.00418185 0.010829 0.00626026 0.0234134 0.00629509 0.0171747 0.00525779 0.0260274 0.00425657 0.02272 0.00634954 0.031761 0.00649994 0.0286687 0.00897812 0.0325645
35 1 Mg 0.154883 7.08234 46.8007 1.2 1 0.258501 0.0517987 0.0178728 0.015693 0.0058564 0.0135402 0.00821203 0.0236184 0.00805759 0.0176056 0.00696596 0.0249267 0.00710527 0.0216243 0.00871157 0.0291967 0.00942766 0.0285023 0.0123116 0.030478
36 3 O 0.325447 8.50934 48.3809 -1.2 1 0.217702 0.0528493 0.0112667 0.0136724 0.00397083 0.0124045 0.00634951 0.0239956 0.00679831 0.0168939 0.00567261 0.0256442 0.00481649 0.0234409 0.00588505 0.0306296 0.0067639 0.0290538 0.00991666 0.0327412
37 1 Mg 1.29657 7.21543 54.6591 1.2 1 0.0673973 0.0306018 0.00397933 0.00524854 0.00160114 0.00628474 0.00247497 0.0211676 0.00241975 0.0106434 0.00270342 0.0255855 0.00331181 0.0198575 0.00312084 0.0324984 0.00350037 0.0249834 0.00612377 0.0393697
38 2 Si 1.35315 9.7528 56.4197 2.4 1 0.0340226 0.0215607 0.00544423 0.00625575 0.00131767 0.00634661 0.0023813 0.0217639 0.002058 0.00934326 0.00369154 0.0248141 0.00237781 0.0198197 0.00395157 0.0324487 0.00299225 0.0253937 0.00554412 0.0430838
39 3 O 1.05889 8.28599 56.6016 -1.2 1 0.0285959 0.0194341 0.00483768 0.00574003 0.00114606 0.00635608 0.00145104 0.0217606 0.00279013 0.00882398 0.00230506 0.0254216 0.00282823 0.0191358 0.00219396 0.0322804 0.00355635 0.0254673 0.00431474 0.0428769
40 3 O 1.28624 10.7248 52.7351 -1.2 1 0.11277 0.0386416 0.00147489 0.00728767 0.00243511 0.00959904 0.00328242 0.0228163 0.00338107 0.0120707 0.00389619 0.0261475 0.00386292 0.020608 0.00465684 0.0324214 0.00449241 0.0272396 0.00693863 0.0380832
41 3 O 0.0698738 10.5001 55.8113 -1.2 1 0.0480298 0.0256827 0.0047151 0.00606344 0.00117097 0.00630784 0.0018536 0.0218944 0.0023465 0.00963231 0.0024117 0.0252426 0.00252394 0.0194184 0.00313079 0.0330178 0.00336714 0.0257503 0.00499855 0.0419287
42 3 O 2.605 10.448 55.7233 -1.2 1 0.0457553 0.0259082 0.00563232 0.00596003 0.00134011 0.00622908 0.00226649 0.0223606 0.00241327 0.00995475 0.00279645 0.0252262 0.00274454 0.0198595 0.00315076 0.0335609 0.0035515 0.0262036 0.00518489 0.0425786
43 1 Mg -0.262694 9.34741 52.2523 1.2 1 0.112942 0.0403886 0.00193765 0.00725425 0.00279831 0.00793795 0.002508 0.0229761 0.00341493 0.0122544 0.00332794 0.0262352 0.00313102 0.0203945 0.00481151 0.0321996 0.00443519 0.0270387 0.00718683 0.0367254
44 1 Mg 1.87648 9.01537 49.4629 1.2 1 0.185288 0.0524397 0.00604625 0.0108658 0.00264124 0.0113391 0.00622524 0.0239794 0.00540232 0.0162025 0.00502232 0.0265874 0.00454608 0.0229018 0.0062882 0.0320262 0.00509607 0.0292812 0.00916707 0.0335031
45 2 Si 1.21415 11.3799 51.2378 2.4 1 0.14577 0.0464183 0.00212413 0.00972927 0.00278001 0.0109469 0.00401709 0.0241705 0.00475073 0.0143034 0.00507018 0.0266843 0.00410837 0.0226257 0.00579244 0.0325999 0.00483036 0.0288736 0.00877441 0.0373304
46 3 O 1.31634 12.9512 51.3023 -1.2 1 0.148834 0.045721 0.00323759 0.0102756 0.00232346 0.0118063 0.00396098 0.0241459 0.00476421 0.0143922 0.00375091 0.028456 0.00393781 0.0233741 0.00478366 0.0333364 0.0049758 0.0291428 0.00776007 0.0375136
47 3 O 1.51726 10.4717 57.9269 -1.2 1 0.0174415 0.014344 0.00363632 0.00586036 0.00115792 0.00629603 0.000893536 0.0223563 0.00205983 0.00924845 0.00263734 0.024893 0.00251551 0.0194341 0.00253036 0.0319871 0.00248613 0.0253547 0.00378508 0.0439642
48 3 O -0.115718 10.7564 50.681 -1.2 1 0.157852 0.0467835 0.00383404 0.0105027 0.00317989 0.0109017 0.00421807 0.0239726 0.00496158 0.0142466 0.00395222 0.0267412 0.00358399 0.0221518 0.00578958 0.0319694 0.00479161 0.0283835 0.00869412 0.0360913
49 1 Mg -3.26386 9.35564 52.3622 1.2 1 0.123136 0.0402293 0.00139729 0.00730054 0.00197048 0.00927886 0.00371109 0.0226629 0.00384822 0.0122474 0.0041113 0.025861 0.00294571 0.0203659 0.00434823 0.0320339 0.00471588 0.0267947 0.00724207 0.0359289
50 3 O 2.45216 10.7265 50.4558 -1.2 1 0.163617 0.0489447 0.00403492 0.00950606 0.00259271 0.0115617 0.0050593 0.0238708 0.00522759 0.0157114 0.00439593 0.0268782 0.0036583 0.0232235 0.00576572 0.0328155 0.00516341 0.0289181 0.00864921 0.0358302
51 1 Mg -1.61206 9.49989 55.1126 1.2 1 0.0555854 0.0286059 0.0043676 0.00607319 0.00191651 0.00610837 0.00223321 0.0221872 0.00268235 0.0101696 0.00326543 0.0257991 0.00245643 0.0202561 0.00387303 0.0330874 0.00385755 0.0257345 0.00564733 0.041499
52 2 Si -1.73571 7.34781 53.5213 2.4 1 0.089511 0.0351892 0.0030136 0.0059084 0.00267501 0.00686565 0.00234894 0.0213523 0.003427 0.0111202 0.00269774 0.0249114 0.00293457 0.0200409 0.0034014 0.0314925 0.00429466 0.0250547 0.0062992 0.0380544
53 3 O -1.8789 5.76259 53.2781 -1.2 1 0.0975733 0.0347929 0.00191847 0.00563436 0.00207465 0.00668186 0.0022009 0.020615 0.00279919 0.0107222 0.0029862 0.0250414 0.00275621 0.0190907 0.00416136 0.0315325 0.00350469 0.0253816 0.00676932 0.0370266
54 3 O -1.19417 8.46968 46.4488 -1.2 1 0.27022 0.0526212 0.0204587 0.0175264 0.00579298 0.0148999 0.00856029 0.0247486 0.00865777 0.017335 0.00730161 0.0256259 0.00622406 0.0210522 0.00888731 0.0303636 0.00994333 0.0299367 0.0113125 0.0303082
55 3 O -2.97967 8.04714 54.0662 -1.2 1 0.0810424 0.0319433 0.00240758 0.00540346 0.00206653 0.00752075 0.00254781 0.0215407 0.002363 0.010897 0.00261685 0.0247169 0.00267155 0.0201455 0.00318563 0.0326234 0.00379358 0.025204 0.0066648 0.0390792
56 3 O -0.498323 8.1578 54.1849 -1.2 1 0.0748549 0.0320057 0.00360605 0.00529544 0.00225486 0.00618582 0.00166748 0.0217641 0.00267591 0.0104796 0.00244146 0.0249111 0.00233305 0.019952 0.00338989 0.0328829 0.00387606 0.0259937 0.00563112 0.0393354
57 1 Mg -2.98909 16.6943 57.4124 1.2 1 0.0229067 0.0153163 0.00490529 0.00631588 0.0014758 0.00633273 0.000859579 0.0223875 0.00235959 0.00969917 0.00178256 0.026454 0.0027504 0.0187537 0.00281414 0.0314913 0.00359671 0.0260601 0.00272377 0.0422848
58 1 Mg -1.6714 16.3544 49.8412 1.2 1 0.177963 0.049503 0.00698302 0.0132435 0.00339177 0.0152294 0.00341181 0.026864 0.00517833 0.0176096 0.00436649 0.0314533 0.00343284 0.025 0.0060613 0.0347041 0.00607908 0.0312378 0.00806113 0.0382457
59 2 Si -1.18567 13.8526 47.9314 2.4 1 0.234429 0.05594 0.0154599 0.0175166 0.00485535 0.0183588 0.00552273 0.0280457 0.00939762 0.0196813 0.0057137 0.031516 0.00555538 0.0274083 0.00646125 0.0343606 0.00928633 0.0328664 0.0100184 0.035912
60 3 O -1.09664 15.4205 47.9915 -1.2 1 0.232552 0.0554634 0.015199 0.0179827 0.00479248 0.0196206 0.00504012 0.028626 0.00902695 0.0198426 0.0059692 0.0317889 0.00550675 0.0268908 0.00703519 0.0354113 0.00883851 0.0340052 0.00897034 0.0367051
61 3 O -1.73493 12.7491 51.7772 -1.2 1 0.134289 0.0417461 0.0021276 0.00987484 0.00313192 0.0101217 0.00225426 0.0244301 0.00378428 0.0138075 0.00323223 0.0279059 0.00354204 0.0220412 0.00472847 0.0323822 0.00506698 0.0281084 0.00766835 0.0386125
62 3 O -2.36115 13.2717 48.8238 -1.2 1 0.20414 0.054087 0.0100039 0.0143213 0.00463812 0.0144945 0.00521456 0.0270589 0.00678874 0.0189394 0.00500815 0.0303467 0.00376534 0.0255472 0.00571599 0.0344992 0.00766199 0.0318622 0.00902131 0.0356789
63 1 Mg -0.159928 11.7639 46.8533 1.2 1 0.257747 0.0549543 0.0190402 0.0186296 0.00626269 0.0198471 0.0073812 0.0286218 0.0102354 0.0192559 0.00724652 0.0306233 0.00666478 0.0263682 0.00769927 0.0332532 0.0101558 0.0332889 0.0118578 0.0342304
64 3 O 0.2623 13.1866 48.413 -1.2 1 0.214197 0.0544139 0.0118351 0.0152133 0.00407276 0.0161857 0.00477227 0.0268193 0.00784716 0.0182252 0.00494057 0.0297994 0.00453149 0.0269804 0.0055621 0.0338341 0.00803068 0.0326133 0.00929558 0.0364051
65 1 Mg 1.31026 11.9963 54.5838 1.2 1 0.072634 0.031872 0.00351909 0.00618379 0.00177298 0.00746908 0.00285311 0.0227527 0.0030212 0.011072 0.00207808 0.026578 0.00328165 0.0206473 0.00358173 0.0328671 0.00394807 0.0262908 0.00605684 0.0401047
66 2 Si 1.52159 14.5618 56.4666 2.4 1 0.0335742 0.020043 0.00601025 0.00676267 0.00136183 0.00638312 0.0017743 0.0222075 0.00245212 0.00931572 0.0029482 0.0258426 0.00230489 0.0192405 0.00373994 0.0319157 0.00309614 0.0260949 0.00434582 0.0439353
67 3 O 1.54692 13.0287 56.4984 -1.2 1 0.0341535 0.0206788 0.00541361 0.00633313 0.00123191 0.00592642 0.00135743 0.0216537 0.00293015 0.00907626 0.00152546 0.025237 0.00281517 0.0189862 0.00289289 0.0327606 0.0034076 0.0258764 0.0040979 0.0431304
68 3 O 1.36565 15.4813 52.729 -1.2 1 0.113172 0.0390742 0.00129584 0.00877988 0.00200364 0.0108096 0.002963 0.0242554 0.00320624 0.0137155 0.00361813 0.0288656 0.00373202 0.0217065 0.00478237 0.0334247 0.0043861 0.028568 0.00672438 0.0399499
69 3 O 0.155707 15.3587 55.9245 -1.2 1 0.0439901 0.0239075 0.00563885 0.00666624 0.00114528 0.006239 0.00189306 0.0220923 0.00202409 0.00994901 0.00224752 0.025915 0.00255109 0.019852 0.00383341 0.0327149 0.00328539 0.0265814 0.00490467 0.0428067
70 3 O 2.80014 15.2945 55.8252 -1.2 1 0.0430401 0.0242475 0.00648213 0.00641698 0.00130655 0.00632583 0.00245331 0.0233395 0.00234601 0.0103202 0.00278824 0.0258237 0.00286577 0.0202528 0.00427906 0.0331951 0.00304285 0.0271578 0.00479856 0.0440805
71 1 Mg -0.206989 14.1049 52.2121 1.2 1 0.117337 0.0417958 0.00110424 0.00912907 0.00249919 0.00924121 0.0026097 0.0245235 0.00333542 0.0136175 0.00305723 0.0286831 0.00305294 0.0219179 0.00455615 0.0334928 0.00387344 0.0284639 0.00670753 0.0389047
72 1 Mg 1.82591 13.8102 49.4556 1.2 1 0.186513 0.0544265 0.00629028 0.01246 0.0029423 0.0139564 0.0052733 0.0259113 0.00568478 0.0181297 0.00503506 0.0296383 0.00397849 0.026127 0.00630105 0.0350059 0.00631613 0.0318023 0.00890647 0.0365581
73 2 Si 1.29285 16.1518 51.2434 2.4 1 0.143094 0.047102 0.00207141 0.0107688 0.00205966 0.0125443 0.00356848 0.0258967 0.00429309 0.0157482 0.00462284 0.0292816 0.00393331 0.0244631 0.00551385 0.0339816 0.0041574 0.0307332 0.00768706 0.0398514
74 3 O 1.39496 17.7199 51.3047 -1.2 1 0.147011 0.0466864 0.00249687 0.0109054 0.00126305 0.0126998 0.00318467 0.025256 0.0044607 0.0157218 0.00313581 0.0299331 0.00314687 0.0245078 0.00413233 0.0348504 0.00509924 0.0306124 0.00658634 0.0402159
75 3 O 1.42217 15.2658 57.9714 -1.2 1 0.018128 0.0129281 0.00440161 0.00610547 0.00114156 0.00628963 0.000840549 0.0220511 0.00247257 0.00881641 0.00254234 0.0254321 0.00218769 0.018395 0.0023878 0.0314871 0.00276939 0.0259647 0.00281405 0.0431372
76 3 O -0.0269106 15.5178 50.6688 -1.2 1 0.156413 0.0479258 0.00388565 0.0118018 0.0028647 0.0131613 0.00372263 0.026449 0.00478647 0.0158986 0.00320327 0.0298345 0.00337201 0.0251006 0.0050021 0.0337926 0.00408362 0.0307316 0.00720381 0.0390322
77 1 Mg -3.18391 14.1057 52.3125 1.2 1 0.123953 0.0420077 0.00149387 0.00879306 0.00194881 0.0108731 0.00299349 0.0247063 0.00350634 0.0142671 0.00311888 0.0284357 0.00313492 0.0225023 0.00428143 0.0331939 0.00460468 0.0285271 0.00717541 0.0391459
78 3 O 2.52432 15.503 50.4579 -1.2 1 0.159059 0.04997 0.0042894 0.010882 0.00242456 0.0134264 0.00400456 0.0260388 0.00516787 0.0174611 0.00366159 0.0298335 0.00323761 0.0257962 0.00534527 0.0343337 0.00502263 0.030803 0.00734485 0.0385856
79 1 Mg -1.55429 14.1482 55.0579 1.2 1 0.0581216 0.028936 0.00478182 0.00668177 0.00186972 0.00632534 0.00205667 0.0231562 0.00263593 0.0113754 0.00302233 0.0266892 0.00261342 0.02064 0.00443966 0.033394 0.00403608 0.0271911 0.00554126 0.0422852
80 2 Si -1.70415 12.081 53.2434 2.4 1 0.0978338 0.0375263 0.00251808 0.00787855 0.00275083 0.00795184 0.00198081 0.0236374 0.00347641 0.0122332 0.00281635 0.0263354 0.00324241 0.0216253 0.0031756 0.0332727 0.00457315 0.0272019 0.00679202 0.0405658
81 3 O -1.76295 10.5013 53.2537 -1.2 1 0.0971244 0.0358131 0.0024913 0.00664968 0.00245847 0.00797426 0.00192131 0.0225152 0.00301028 0.0109293 0.00247492 0.0260117 0.0032074 0.0199128 0.00408676 0.0327429 0.00429782 0.0264104 0.00766559 0.0394649
82 3 O -1.21337 13.3381 46.4311 -1.2 1 0.268574 0.054743 0.0214031 0.0201882 0.00664205 0.0208039 0.0073977 0.0306269 0.0104391 0.020448 0.00669908 0.0318443 0.00599125 0.0260357 0.0078219 0.0356097 0.0119199 0.0351553 0.0119244 0.0343243
83 3 O -2.98481 12.8052 53.8876 -1.2 1 0.0876127 0.0348257 0.00230541 0.00665363 0.00167636 0.00868039 0.00172665 0.0238625 0.00295822 0.0118871 0.00215154 0.0264596 0.00292315 0.021452 0.0033817 0.0329838 0.00396304 0.0273232 0.00607253 0.0406359
84 3 O -0.418754 12.7051 53.9087 -1.2 1 0.0810156 0.034219 0.00334807 0.00696921 0.00252453 0.00650817 0.00185253 0.0235575 0.00245475 0.0113011 0.0023988 0.0264371 0.00275196 0.0212584 0.00400593 0.0333804 0.00366277 0.0270155 0.00679855 0.0409063
85 1 Mg -3.15018 21.5184 57.7996 1.2 1 0.0193827 0.0132066 0.00459067 0.00637659 0.00201241 0.00651551 0.00155806 0.0219552 0.002088 0.0096153 0.0021389 0.027484 0.00222466 0.0195619 0.00225922 0.0311147 0.00350732 0.0257681 0.0038722 0.0428217
86 1 Mg -1.5831 21.1217 49.8405 1.2 1 0.179668 0.0500315 0.00683913 0.0140329 0.00304901 0.0158443 0.00333421 0.0272409 0.00469213 0.0180623 0.00439639 0.031969 0.00331588 0.0254162 0.0061033 0.0357667 0.00607292 0.0323594 0.00844572 0.0390817
87 2 Si -1.09384 18.6291 47.9287 2.4 1 0.232093 0.0571742 0.0147511 0.018224 0.00384592 0.0209647 0.00427462 0.0295268 0.00824352 0.0203287 0.00530498 0.0329505 0.0054115 0.0284689 0.00621159 0.0358127 0.00927841 0.0346869 0.00957202 0.0385054
88 3 O -1.02071 20.1985 47.9911 -1.2 1 0.227433 0.0552786 0.0141802 0.0181103 0.0043821 0.0207894 0.00412459 0.0289662 0.00759308 0.0199415 0.00569872 0.0325519 0.0049436 0.0275717 0.00726532 0.0363825 0.00863846 0.0347788 0.00918588 0.0388957
89 3 O -1.65002 17.5002 51.771 -1.2 1 0.13398 0.0425506 0.00210548 0.0106145 0.00283186 0.0118045 0.00167596 0.0253836 0.00299273 0.0148719 0.00291887 0.0296828 0.00298082 0.0233706 0.00425943 0.0338473 0.00486486 0.029193 0.00631277 0.0402457
90 3 O -2.26174 18.0434 48.8281 -1.2 1 0.202593 0.0555229 0.00944599 0.0150351 0.00391411 0.0174098 0.00396513 0.0284892 0.00655327 0.0198353 0.00415611 0.0321411 0.00355895 0.0269574 0.00552218 0.0357602 0.00752546 0.0336124 0.00829332 0.0383824
91 1 Mg -0.0440435 16.5651 46.8269 1.2 1 0.255043 0.0576164 0.0194782 0.0199484 0.00474861 0.0244226 0.00555323 0.0319269 0.0103401 0.0217365 0.00592762 0.0341982 0.00697887 0.0284176 0.00829656 0.035811 0.00994807 0.036393 0.0107315 0.0378432
92 3 O 0.37001 17.9877 48.3925 -1.2 1 0.208718 0.0553433 0.0107737 0.0157318 0.00315445 0.0180684 0.00302204 0.0288485 0.006955 0.0194916 0.00416612 0.0318941 0.00411073 0.028243 0.00539677 0.0353962 0.00791779 0.0348277 0.00869223 0.0391981
93 1 Mg 1.32216 16.802 54.5167 1.2 1 0.0710255 0.0317544 0.00448973 0.00703333 0.00147316 0.00756448 0.00246467 0.0230781 0.00299959 0.0120201 0.00194792 0.0278317 0.00313116 0.0213317 0.00355327 0.0333343 0.00353634 0.0268197 0.00525073 0.041425
94 2 Si 1.45723 19.2458 56.5348 2.4 1 0.0323331 0.0188947 0.0057963 0.00711751 0.00124398 0.00613591 0.00168172 0.0222044 0.00235043 0.00946831 0.00298863 0.0261932 0.00257737 0.0197188 0.00370318 0.0320367 0.00353179 0.0259997 0.00493043 0.043913
95 3 O 1.5501 17.786 56.4794 -1.2 1 0.0344152 0.0199879 0.00606665 0.00701738 0.00147904 0.00566072 0.00166314 0.0216035 0.00289898 0.00928214 0.00200554 0.0263272 0.00272428 0.0189712 0.00288407 0.0326106 0.00392257 0.0257489 0.00377567 0.0433105
96 3 O 1.45147 20.239 52.7294 -1.2 1 0.11055 0.0391404 0.00143019 0.00912665 0.00142189 0.0114535 0.00307192 0.0243655 0.00256073 0.0137483 0.00311738 0.0291927 0.00378198 0.0224571 0.00432431 0.033716 0.00377695 0.0293496 0.00582985 0.0411109
97 3 O 0.193352 19.9855 55.7898 -1.2 1 0.047693 0.0249631 0.00540636 0.00711389 0.000953104 0.00654843 0.00190476 0.0219969 0.00170933 0.0103274 0.00222442 0.0268868 0.00248749 0.0203734 0.00346602 0.0331288 0.00317299 0.0268591 0.00497515 0.0430769
98 3 O 2.69234 19.9989 55.7418 -1.2 1 0.0441029 0.0247226 0.00605219 0.00689328 0.00132593 0.00668641 0.00236745 0.022558 0.00268486 0.0104297 0.00254191 0.0267073 0.00251313 0.0207905 0.0034987 0.0331849 0.00318317 0.0274818 0.004542 0.0432764
99 1 Mg -0.126194 18.8651 52.2079 1.2 1 0.115017 0.0423103 0.00178103 0.00975042 0.0018562 0.0101366 0.00184345 0.0249667 0.00283399 0.0146448 0.00258777 0.0297753 0.00276967 0.023194 0.00394166 0.0339031 0.00381165 0.0298889 0.00612697 0.0400466
100 1 Mg 1.92402 18.5815 49.4545 1.2 1 0.182836 0.0554473 0.00534683 0.0131231 0.00183535 0.0153545 0.00425571 0.0273905 0.00516347 0.019059 0.00412513 0.0316002 0.0040286 0.0272408 0.00520962 0.0359122 0.00618097 0.0335772 0.00863076 0.0391006
101 2 Si 1.38106 20.9117 51.2443 2.4 1 0.144418 0.0482691 0.0019333 0.0113936 0.0017908 0.01319 0.00350901 0.0256223 0.00383128 0.0161835 0.00477898 0.0292679 0.0039652 0.0248205 0.00591855 0.0343866 0.0044018 0.0318202 0.00812207 0.040643
102 3 O 1.48527 22.4795 51.3054 -1.2 1 0.146985 0.0457188 0.0024305 0.010954 0.00184888 0.0130949 0.0032851 0.0243789 0.00466918 0.0155415 0.00298332 0.029939 0.00355002 0.0245705 0.00440954 0.0351322 0.00566458 0.0310035 0.00711827 0.0404106
103 3 O 1.42201 19.9645 57.9757 -1.2 1 0.0180072 0.0124792 0.00435787 0.00649776 0.00136978 0.00640701 0.00133739 0.0221118 0.00203213 0.00904152 0.00250357 0.0265913 0.00239209 0.0189964 0.00219904 0.0316177 0.00313457 0.0259217 0.00390031 0.0433767
104 3 O 0.0615419 20.2804 50.6669 -1.2 1 0.155088 0.0484686 0.00382309 0.0124588 0.00289034 0.0138747 0.00412237 0.0264103 0.00378004 0.0162827 0.00314296 0.0301515 0.00388106 0.0256299 0.00544158 0.0345541 0.00436607 0.0317376 0.00772462 0.040607
105 1 Mg -3.09665 18.8643 52.3122 1.2 1 0.122695 0.0422854 0.00152158 0.00939363 0.00135801 0.0116385 0.00249203 0.0251889 0.00292368 0.0152791 0.00268243 0.0295608 0.00257569 0.0236765 0.0039112 0.033957 0.00424116 0.02969 0.00592982 0.0400179
106 3 O 2.61548 20.2646 50.4626 -1.2 1 0.158524 0.0505392 0.00390609 0.0114613 0.00162664 0.0141937 0.00352527 0.0262473 0.00409068 0.0176648 0.00349092 0.0300986 0.00318785 0.0259729 0.00520455 0.0347436 0.00489997 0.0318112 0.00724662 0.0396259
107 1 Mg -1.48884 19.0659 55.1532 1.2 1 0.055029 0.0282214 0.00543231 0.00736538 0.00170183 0.00636024 0.00227287 0.0232243 0.00204527 0.0113508 0.00303527 0.0274332 0.00169319 0.0209864 0.00366427 0.0330744 0.00417963 0.027508 0.00483312 0.0425862
108 2 Si -1.68355 16.8532 53.2811 2.4 1 0.0963113 0.0371736 0.00257661 0.0085552 0.00246523 0.00831893 0.00152361 0.0239706 0.002754 0.0134497 0.00237939 0.0282011 0.0024993 0.0223834 0.00343472 0.0338252 0.00461429 0.0282179 0.00539028 0.0414354
109 3 O -1.59407 15.2082 53.2933 -1.2 1 0.0964288 0.03615 0.00253977 0.00802677 0.00213555 0.00824425 0.00140125 0.023571 0.00295282 0.0123866 0.00250409 0.0277882 0.00286716 0.0212271 0.00454454 0.0332419 0.00368688 0.0274013 0.00667556 0.0414801
110 3 O -1.12868 18.1227 46.4249 -1.2 1 0.264361 0.0574866 0.0209109 0.0211914 0.00503069 0.0244218 0.00612098 0.0328817 0.00918095 0.0213225 0.00610014 0.0346563 0.00620819 0.0267441 0.00764327 0.037591 0.0115385 0.0375221 0.0112145 0.0381568
111 3 O -2.9358 17.5392 53.9582 -1.2 1 0.0850015 0.0345467 0.00306265 0.00713709 0.00183583 0.00890255 0.00166558 0.0242879 0.00217892 0.0128319 0.00159822 0.0277531 0.00279419 0.0222973 0.00332441 0.0334687 0.00416868 0.0279187 0.00510341 0.0413971
112 3 O -0.30257 17.636 53.9659 -1.2 1 0.0786615 0.0333209 0.00383941 0.00773173 0.00207002 0.00671546 0.00128579 0.0237318 0.00201148 0.0120336 0.00170174 0.0270793 0.00234576 0.0219281 0.00398189 0.0337804 0.00351684 0.0282071 0.00533756 0.041252
113 1 Mg -2.95653 26.0746 57.5846 1.2 1 0.0205569 0.0139366 0.00471073 0.00652927 0.00196198 0.00673631 0.00123482 0.0225974 0.0019533 0.00993378 0.00188441 0.028062 0.00183259 0.0202998 0.00201272 0.0310059 0.00286332 0.0268752 0.00339835 0.0447824
114 1 Mg -1.48778 25.88 49.8402 1.2 1 0.180524 0.0493286 0.00663099 0.0137459 0.00338319 0.0161568 0.00308537 0.026768 0.00454204 0.0181854 0.004602 0.0314553 0.00380366 0.0264791 0.00612589 0.0352342 0.00589687 0.0323791 0.00871062 0.0395477
115 2 Si -1.00491 23.3922 47.9274 2.4 1 0.22874 0.0551133 0.0139423 0.0183953 0.00428712 0.0210973 0.00421788 0.0289622 0.00771776 0.0205756 0.00542972 0.0325874 0.00506426 0.0287398 0.00593775 0.0358368 0.00898486 0.0349573 0.0097714 0.0390908
116 3 O -0.927602 24.9615 47.9909 -1.2 1 0.229123 0.0538448 0.0138666 0.0182098 0.00431103 0.0210239 0.00415189 0.0287604 0.00724052 0.0204043 0.00591664 0.0320549 0.00525376 0.0279989 0.0075384 0.0362049 0.00880047 0.0351609 0.010012 0.0391079
117 3 O -1.55795 22.2588 51.7696 -1.2 1 0.133006 0.0423477 0.00220925 0.0110972 0.00266523 0.0121189 0.00217442 0.025363 0.0025314 0.0150623 0.00285016 0.0296471 0.00351916 0.0240489 0.00418963 0.03402 0.0052968 0.0301859 0.00653275 0.0406225
118 3 O -2.17411 22.8111 48.8277 -1.2 1 0.204655 0.0551458 0.00913059 0.015781 0.00370467 0.0177237 0.00355851 0.0284864 0.00602905 0.0202954 0.00434958 0.0317794 0.0040685 0.0276629 0.00610229 0.0363324 0.00745185 0.0345338 0.00891952 0.0391032
119 1 Mg 0.0423997 21.3296 46.8225 1.2 1 0.25778 0.0573143 0.0187593 0.0215209 0.00507454 0.0256704 0.00583212 0.0328241 0.00908096 0.0223777 0.00603552 0.0344221 0.00678744 0.0290135 0.00887741 0.0363214 0.00982057 0.0376719 0.0114695 0.0390312
120 3 O 0.458537 22.7495 48.3911 -1.2 1 0.21237 0.0548109 0.0102171 0.0169678 0.00346853 0.0187602 0.00313931 0.0288084 0.00641788 0.0200256 0.0039609 0.0317092 0.00438609 0.0288045 0.00608399 0.0354895 0.00816105 0.0358821 0.00936304 0.0397035
121 1 Mg 1.56214 21.4559 54.6761 1.2 1 0.067465 0.0314946 0.00485217 0.00739219 0.00160843 0.00772848 0.00248663 0.0226753 0.00258403 0.0113089 0.00241496 0.0282156 0.00302075 0.0218331 0.00374026 0.0338713 0.00308481 0.0271707 0.00528235 0.0421195