ITEM: TIMESTEP
76600
ITEM: NUMBER OF ATOMS
10500
ITEM: BOX BOUNDS xy xz yz pp pp pp
0	8.9688	2.9896
0	118.725	0
0	252.977	0
ITEM: ATOMS id type element xu yu zu q Q_1 Q_2 Q_3 Q_4 Q_5 Q_6 Q_7 Q_8 Q_9 Q_10 Q_11 Q_12 Q_13 Q_14 Q_15 Q_16 Q_17 Q_18 Q_19 Q_20 Q_21
1 1 Mg -3.54133 7.20904 57.9699 1.2 1 0.0138076 0.0128217 0.00393017 0.0059364 0.00152853 0.0058437 0.0016683 0.0198146 0.0023076 0.00967728 0.00197694 0.0239549 0.003016 0.0187871 0.00244767 0.0309562 0.00362097 0.0245596 0.00459563 0.0391209
2 1 Mg -1.82655 6.90154 50.0912 1.2 1 0.175146 0.0482934 0.00570896 0.0105683 0.00326367 0.00810776 0.00429857 0.021925 0.0048153 0.0160748 0.00457617 0.0244687 0.00466527 0.0212937 0.00655334 0.0300475 0.0054335 0.0267966 0.00834173 0.0331908
3 2 Si -0.257935 3.96038 48.0876 2.4 1 0.223185 0.0532853 0.0116826 0.0126197 0.00217495 0.00899508 0.00387018 0.0198072 0.00512502 0.0173384 0.00446205 0.0234356 0.00536544 0.020925 0.00570356 0.0271325 0.00698487 0.0256207 0.00848611 0.0315903
4 3 O -0.335812 5.46814 47.6264 -1.2 1 0.232884 0.0528212 0.0138472 0.0137717 0.00309748 0.010095 0.00459484 0.0204331 0.00603691 0.0181903 0.00505749 0.0242982 0.00509544 0.0215518 0.00586999 0.0274069 0.0077247 0.0264095 0.0099831 0.0303986
5 3 O -2.03793 3.43377 51.8941 -1.2 1 0.127171 0.0408123 0.00213191 0.00724351 0.00182265 0.00630838 0.00279127 0.0191938 0.00245178 0.0118559 0.00306321 0.0232214 0.00370606 0.0180947 0.00476856 0.0284697 0.0053557 0.0244445 0.00662191 0.0344248
6 3 O -1.54015 3.53929 48.9521 -1.2 1 0.202475 0.0518827 0.00928139 0.0113028 0.00248528 0.00782191 0.00400521 0.0194757 0.00465095 0.0156992 0.00474891 0.0229534 0.00466756 0.0203605 0.00627708 0.0274334 0.00571423 0.025398 0.00855218 0.0309232
7 1 Mg 1.82954 2.54582 47.1376 1.2 1 0.249149 0.0530536 0.0165348 0.0160933 0.00350387 0.0106448 0.00355171 0.019242 0.00512717 0.0161505 0.00446866 0.0229975 0.00654065 0.0197904 0.00769154 0.0252271 0.00686164 0.024255 0.0084046 0.0295542
8 3 O 1.22989 3.66364 48.7877 -1.2 1 0.205361 0.0510143 0.00963294 0.0124877 0.00226515 0.00881871 0.00412011 0.0198079 0.00402412 0.0153233 0.00369642 0.0228374 0.00484452 0.0198502 0.00667682 0.0270297 0.00483594 0.0247984 0.00882544 0.032311
9 1 Mg 1.29903 2.32791 54.6311 1.2 1 0.0689691 0.0300488 0.00456941 0.00523408 0.00158594 0.00505495 0.00255291 0.0188451 0.00269471 0.00942501 0.00290835 0.0235285 0.00375537 0.0190135 0.00414177 0.0295168 0.0033288 0.0240087 0.00575491 0.0367156
10 2 Si 1.05149 5.13232 56.4873 2.4 1 0.0311179 0.0201663 0.00574525 0.00615373 0.00139284 0.00620071 0.00181938 0.0191841 0.00233455 0.00938849 0.00321748 0.023157 0.00233794 0.018654 0.00492967 0.0303066 0.00360861 0.0247126 0.00550492 0.0392688
11 3 O 0.802403 3.57568 56.5661 -1.2 1 0.0329554 0.0198195 0.00570564 0.00562457 0.00118627 0.00526664 0.00181636 0.0187142 0.00252623 0.00882718 0.00226499 0.023941 0.00268111 0.0184926 0.00342244 0.0303379 0.00309865 0.025089 0.00493146 0.0385618
12 3 O 1.10813 6.07342 52.8172 -1.2 1 0.103827 0.036593 0.00252455 0.00660572 0.00208535 0.00701657 0.0035068 0.0204488 0.00333933 0.0123503 0.0032067 0.0240257 0.00387519 0.0194052 0.00552111 0.0298784 0.00400863 0.0251399 0.00610228 0.0354843
13 3 O -0.195644 5.7054 55.7399 -1.2 1 0.0443794 0.0246764 0.00546594 0.00573283 0.00133051 0.00531564 0.00216822 0.0192382 0.00225841 0.0105997 0.00220985 0.0236953 0.00269195 0.0187629 0.004233 0.0308808 0.00287906 0.0251208 0.00462551 0.0389671
14 3 O 2.28281 5.68834 55.7348 -1.2 1 0.0394316 0.0237036 0.00576778 0.00547134 0.00149469 0.00583219 0.00207225 0.0194062 0.00199851 0.0100292 0.00257346 0.0237904 0.00303573 0.0189289 0.0041303 0.0315805 0.00297104 0.0252777 0.00507078 0.0387378
15 1 Mg -0.459401 4.67631 52.2426 1.2 1 0.122712 0.0411223 0.00240581 0.00672624 0.00216746 0.0064009 0.00271403 0.0201418 0.00291452 0.0130131 0.0033809 0.0242351 0.0040038 0.0194029 0.00519066 0.0293995 0.00437531 0.0242896 0.00656573 0.03398
16 1 Mg 2.79456 3.9971 49.9987 1.2 1 0.175848 0.0501037 0.00572239 0.0105058 0.00277343 0.00723901 0.00430869 0.0201134 0.0033726 0.0151637 0.00272397 0.0231363 0.00483623 0.0207002 0.00688167 0.0280154 0.00426819 0.0254517 0.00870441 0.0321442
17 2 Si 1.16169 6.59457 51.2556 2.4 1 0.14532 0.0457795 0.00247361 0.00903908 0.00225217 0.00767612 0.00399314 0.0209705 0.00390338 0.0148315 0.00438536 0.0235908 0.0044386 0.0214423 0.00600634 0.030486 0.00501444 0.026207 0.00762585 0.0343754
18 3 O 1.28989 8.18905 51.2909 -1.2 1 0.144173 0.045208 0.00264697 0.00954427 0.00241865 0.00858969 0.00444147 0.0214131 0.00414555 0.0147717 0.00388961 0.0252841 0.00365739 0.0215349 0.00500982 0.0311911 0.00560271 0.0271525 0.00757528 0.0357428
19 3 O 1.02557 5.80675 58.0232 -1.2 1 0.0148518 0.0130658 0.00379423 0.00572928 0.00125217 0.00618753 0.00136192 0.0198287 0.00179377 0.00926113 0.00249049 0.0237469 0.00239718 0.0188427 0.00358663 0.0307847 0.0029577 0.0250795 0.00451605 0.0395503
20 3 O -0.184847 6.06029 50.6845 -1.2 1 0.160769 0.046121 0.00474682 0.00943597 0.00295825 0.00741325 0.00413818 0.0208763 0.00419862 0.015063 0.00311268 0.0236642 0.00415191 0.0208554 0.00589131 0.0291008 0.00516382 0.025975 0.00763669 0.034045
21 1 Mg -3.49704 4.67769 52.6661 1.2 1 0.1129 0.0383699 0.00195871 0.00653815 0.00158122 0.0064901 0.00324891 0.0192694 0.00332333 0.0119208 0.00353159 0.0237704 0.00376987 0.018869 0.00466414 0.0292303 0.00426162 0.0239164 0.00642272 0.0347481
22 3 O 2.48581 5.93312 50.6539 -1.2 1 0.156031 0.0475217 0.00369323 0.00864607 0.00168913 0.00805989 0.00400511 0.0210081 0.00383173 0.0149326 0.0044456 0.0232941 0.0045532 0.0214673 0.0059895 0.0298552 0.00474642 0.026343 0.00752074 0.0333166
23 1 Mg -2.11313 4.7623 55.157 1.2 1 0.0505509 0.0268955 0.00598142 0.00537153 0.00170998 0.00559688 0.00187924 0.0189196 0.00258906 0.00998068 0.00290112 0.0244029 0.00243321 0.0188198 0.0044842 0.0313496 0.00391336 0.0246168 0.00582443 0.0371325
24 2 Si -1.77151 2.61706 53.3386 2.4 1 0.098946 0.0352821 0.00247123 0.00589242 0.00245027 0.00567708 0.00200804 0.019116 0.00291161 0.010668 0.0027997 0.0235225 0.00332016 0.0187051 0.00403277 0.0289205 0.00450848 0.0242913 0.00579004 0.0356395
25 3 O -2.14723 1.07443 53.2188 -1.2 1 0.100801 0.0361742 0.00260523 0.00646563 0.0026209 0.00531536 0.00207441 0.0189709 0.0027167 0.00988061 0.00247529 0.0237201 0.00348059 0.0181481 0.00451653 0.0288586 0.00368313 0.0245067 0.00637588 0.0356813
26 3 O -0.0467762 2.97103 46.8385 -1.2 1 0.252023 0.0536856 0.0168558 0.0152948 0.00298605 0.00946997 0.00412805 0.0193202 0.0060391 0.017171 0.00596923 0.0230441 0.00715146 0.0195217 0.00842157 0.0252033 0.00712222 0.0246513 0.00980412 0.0309365
27 3 O -3.09818 3.31947 54.1091 -1.2 1 0.0802989 0.0318738 0.0036361 0.00499405 0.00157255 0.00559377 0.00226377 0.0187932 0.00243465 0.0107979 0.00265149 0.0231175 0.0026972 0.0186654 0.0046128 0.029296 0.00387082 0.0238804 0.00568372 0.0352733
28 3 O -0.535182 3.22403 53.9561 -1.2 1 0.0829874 0.0334968 0.00377506 0.00514758 0.00195406 0.00596587 0.00182618 0.0198879 0.00260261 0.0107123 0.00253234 0.0233086 0.0033137 0.0193947 0.00379041 0.0295356 0.00358847 0.0250452 0.00514527 0.0364485
29 1 Mg -3.20388 11.7689 56.982 1.2 1 0.0233207 0.0181145 0.00567315 0.00657561 0.000922422 0.00624287 0.00214346 0.0200685 0.00227962 0.00979667 0.00205305 0.0238544 0.00197892 0.0186587 0.0023968 0.0319358 0.00270168 0.0249121 0.0048373 0.0403767
30 1 Mg -1.75014 11.5838 49.8362 1.2 1 0.181614 0.0482643 0.00774108 0.0124283 0.00413906 0.012733 0.00470092 0.023912 0.00561905 0.016883 0.00529475 0.0272756 0.00438222 0.0231306 0.0062438 0.0330034 0.00661191 0.0300248 0.00993044 0.0368461
31 2 Si -1.18003 9.02138 47.9309 2.4 1 0.238988 0.0517421 0.0153678 0.0156538 0.00527663 0.0127555 0.00765076 0.0227433 0.00741683 0.0177936 0.00760415 0.0253293 0.00512741 0.022597 0.00702043 0.0302659 0.00899001 0.0288737 0.0118096 0.0342023
32 3 O -1.23224 10.5991 47.9811 -1.2 1 0.227065 0.0523961 0.013238 0.0157468 0.00516282 0.013659 0.00651122 0.0236921 0.00725105 0.0182263 0.00752777 0.026729 0.00536881 0.0235 0.00835672 0.0329487 0.00947103 0.0313394 0.0112657 0.0349788
33 3 O -1.79016 8.01447 51.8693 -1.2 1 0.129896 0.0416634 0.00184659 0.00894772 0.00335848 0.00718744 0.0034784 0.0212903 0.00384192 0.0140626 0.00364589 0.0246778 0.00354211 0.0208523 0.00443545 0.0308568 0.00516428 0.0257238 0.00690443 0.0357102
34 3 O -2.30986 8.37215 48.8528 -1.2 1 0.203512 0.0526656 0.00908657 0.0127876 0.00408805 0.0099082 0.00612289 0.0231759 0.00596659 0.0179032 0.00514748 0.0253004 0.00439831 0.0229484 0.0063555 0.0319285 0.00691755 0.0287812 0.00939121 0.034049
35 1 Mg 0.154883 7.08234 46.8007 1.2 1 0.260693 0.0525112 0.0181642 0.0166107 0.00550416 0.012574 0.00874063 0.0232766 0.00763028 0.0182605 0.0075956 0.0245053 0.00756991 0.0218576 0.00883225 0.0289039 0.0101333 0.0282215 0.012626 0.0312881
36 3 O 0.325447 8.50934 48.3809 -1.2 1 0.2161 0.0529387 0.0110367 0.0142443 0.00367657 0.0116092 0.00645163 0.0235295 0.00632329 0.0180003 0.00629852 0.0249957 0.00512877 0.0237762 0.00608598 0.0304795 0.00787598 0.0293497 0.0104569 0.0337917
37 1 Mg 1.11558 7.03544 54.5122 1.2 1 0.0671873 0.0309966 0.00440716 0.00583014 0.00174136 0.00578459 0.00275208 0.0199678 0.00268447 0.0115635 0.00319688 0.0239885 0.00301568 0.0198428 0.00371243 0.031375 0.00348913 0.0248068 0.00546572 0.0373203
38 2 Si 0.955628 9.80177 56.2699 2.4 1 0.0319687 0.0221793 0.00570338 0.00681025 0.000985051 0.00596559 0.00218796 0.0198252 0.00218273 0.0105252 0.00290215 0.0237936 0.00219792 0.0194269 0.00357683 0.0323803 0.00353656 0.024701 0.00560557 0.0403568
39 3 O 0.838323 8.30869 56.4657 -1.2 1 0.029262 0.0206294 0.00544102 0.0066146 0.00112919 0.00614307 0.00175411 0.0196725 0.00347934 0.00967465 0.00194375 0.0238513 0.00311108 0.0189401 0.00274239 0.0320526 0.00405038 0.0247475 0.00475182 0.0406378
40 3 O 1.28624 10.7248 52.7351 -1.2 1 0.10739 0.0381368 0.00148632 0.00776808 0.00195405 0.00922861 0.00316699 0.0214612 0.00346774 0.0132273 0.00292378 0.0250149 0.00401792 0.0207803 0.00345252 0.0323592 0.00371862 0.0270885 0.00609881 0.0378268
41 3 O -0.228492 10.4334 55.5845 -1.2 1 0.0483454 0.0268871 0.00451124 0.0064329 0.00126649 0.00629991 0.00211258 0.0208078 0.00218427 0.0113679 0.00230584 0.0239155 0.00287533 0.0200593 0.00362109 0.0325196 0.00350565 0.0255076 0.00499761 0.0398124
42 3 O 2.43618 10.3142 55.6064 -1.2 1 0.0448261 0.0261664 0.00574136 0.00639356 0.00111841 0.00646879 0.00257799 0.0205866 0.00231382 0.0108854 0.00249645 0.0237186 0.00269743 0.0193865 0.00328885 0.0329743 0.00315262 0.0259696 0.00532455 0.0394
43 1 Mg -0.262694 9.34741 52.2523 1.2 1 0.110696 0.0407884 0.00236001 0.00844492 0.00252921 0.00764613 0.00258557 0.0217498 0.00374751 0.0139067 0.0030845 0.0251746 0.00318964 0.0207914 0.00466514 0.0322202 0.00396278 0.0272916 0.0064756 0.0362899
44 1 Mg 1.87648 9.01537 49.4629 1.2 1 0.182287 0.052299 0.00592129 0.0115614 0.00286113 0.010334 0.00630182 0.0229165 0.00520376 0.017243 0.0051271 0.0256703 0.00465916 0.0234379 0.00622922 0.0320469 0.00592257 0.029121 0.00936873 0.0348888
45 2 Si 1.21415 11.3799 51.2378 2.4 1 0.145311 0.0465837 0.00248471 0.0102422 0.00280604 0.0107633 0.0038559 0.0229976 0.00454834 0.0162129 0.00434312 0.0257815 0.0038591 0.0231204 0.00526588 0.0329618 0.00462016 0.0294914 0.00873418 0.0377298
46 3 O 1.31634 12.9512 51.3023 -1.2 1 0.144919 0.0445893 0.0034613 0.00966608 0.00257884 0.0117103 0.00391069 0.0236256 0.00450226 0.0158635 0.00360368 0.0266555 0.00399544 0.0234464 0.00411337 0.0334576 0.0049325 0.0299396 0.00786336 0.0390235
47 3 O 1.06138 10.4419 57.7575 -1.2 1 0.0139447 0.0140431 0.00403922 0.00651674 0.00109551 0.00632481 0.0017575 0.0202643 0.00251927 0.00956457 0.00258719 0.0237922 0.00281823 0.0185199 0.00302758 0.0316792 0.00340976 0.0246796 0.00515548 0.0406126
48 3 O -0.115718 10.7564 50.681 -1.2 1 0.155148 0.0468625 0.00380217 0.011412 0.00303836 0.010623 0.00378652 0.0228831 0.00484497 0.0154042 0.00382734 0.0262115 0.00361887 0.0228811 0.00530404 0.0320127 0.00503884 0.0285179 0.00857163 0.0374237
49 1 Mg -3.26386 9.35564 52.3622 1.2 1 0.118762 0.0397917 0.0010761 0.0080153 0.0023114 0.00915346 0.00374653 0.0209823 0.00399607 0.0137399 0.0036286 0.0247855 0.00319505 0.0209172 0.00431418 0.0320455 0.0043478 0.0269298 0.00722402 0.0359349
50 3 O 2.45216 10.7265 50.4558 -1.2 1 0.159747 0.0484486 0.00395072 0.00993633 0.00265709 0.0112876 0.0051191 0.0230353 0.00458085 0.0170336 0.00428673 0.0257817 0.00357318 0.0232112 0.00533472 0.0331353 0.0051177 0.0293686 0.00906743 0.0367441
51 1 Mg -1.85282 9.1869 55.2944 1.2 1 0.0482889 0.0267686 0.00526207 0.00677105 0.0014154 0.00621336 0.00247339 0.0204832 0.00280165 0.0110903 0.00219245 0.024041 0.00237023 0.0198611 0.00296864 0.0324268 0.00322088 0.0256732 0.00486894 0.0388748
52 2 Si -1.8636 7.3444 53.4441 2.4 1 0.0920977 0.0362924 0.00329149 0.00676734 0.00286052 0.00621571 0.00317066 0.0200334 0.00362676 0.0127951 0.00271238 0.024233 0.00269883 0.0206242 0.00392574 0.0312913 0.00441688 0.0248158 0.00582691 0.0363768
53 3 O -1.99455 5.83021 53.3737 -1.2 1 0.0934665 0.0351752 0.00279516 0.00615627 0.00195819 0.00658928 0.00252306 0.0194143 0.00341823 0.0111505 0.00286356 0.0241222 0.00292364 0.0192081 0.00453607 0.0308475 0.00340181 0.0244764 0.00635135 0.0361997
54 3 O -1.19417 8.46968 46.4488 -1.2 1 0.270881 0.0523632 0.0204949 0.0180211 0.00567375 0.0136267 0.00896192 0.0241985 0.0080125 0.0187584 0.00793861 0.0249638 0.00649058 0.0216553 0.00966819 0.0303547 0.0105662 0.0301276 0.012523 0.0317503
55 3 O -3.16868 8.11741 54.0992 -1.2 1 0.0762473 0.03177 0.00321913 0.00614053 0.00216487 0.00723176 0.00269543 0.0200763 0.00287725 0.0122777 0.0022396 0.0232893 0.00255105 0.0202513 0.00378189 0.0318716 0.00376123 0.0251401 0.00556254 0.036598
56 3 O -0.600034 7.99643 54.1542 -1.2 1 0.0743202 0.0327955 0.00409704 0.00606458 0.00249766 0.00581673 0.00238707 0.0205713 0.00291075 0.0117135 0.00211475 0.0239106 0.00257257 0.0203842 0.00327374 0.0315857 0.00388935 0.0256294 0.00537235 0.037924
57 1 Mg -3.51861 16.6133 57.4205 1.2 1 0.0167932 0.0150722 0.00468491 0.0058966 0.00103099 0.00659762 0.00173512 0.0220101 0.00164842 0.0101847 0.00280276 0.0237532 0.00240288 0.018168 0.00300655 0.0310504 0.00419154 0.0255009 0.00493107 0.041974
58 1 Mg -1.6714 16.3544 49.8412 1.2 1 0.178078 0.0472235 0.00722985 0.01244 0.00308257 0.015165 0.00306662 0.0265242 0.00458714 0.0177966 0.00419028 0.0299336 0.00383513 0.0251128 0.00646278 0.0351796 0.00618665 0.0324435 0.0091267 0.040282
59 2 Si -1.18567 13.8526 47.9314 2.4 1 0.23412 0.0528319 0.014879 0.0167859 0.00468192 0.0179056 0.00542471 0.0270842 0.00784963 0.0201813 0.00676162 0.0300063 0.00568155 0.0278799 0.00704085 0.0350851 0.00961663 0.0342451 0.0125086 0.0381823
60 3 O -1.09664 15.4205 47.9915 -1.2 1 0.23286 0.0517323 0.0146776 0.0169077 0.00493449 0.0193125 0.00473938 0.02754 0.00763754 0.0204963 0.0072028 0.030648 0.00593877 0.0273927 0.00823354 0.0360584 0.00930149 0.0352458 0.0121663 0.0391246
61 3 O -1.73493 12.7491 51.7772 -1.2 1 0.132574 0.0420814 0.00217273 0.0103403 0.00265682 0.0104002 0.00223927 0.0232965 0.00406892 0.014993 0.00323507 0.0267353 0.0037243 0.0221483 0.00409708 0.0327553 0.005067 0.0287854 0.00689294 0.0393785
62 3 O -2.36115 13.2717 48.8238 -1.2 1 0.202897 0.0522102 0.0102427 0.0139859 0.00456555 0.0142605 0.0050015 0.0263307 0.00608193 0.0196551 0.00534122 0.0290904 0.00483306 0.0255582 0.00626326 0.0350296 0.00781866 0.0329791 0.011094 0.038
63 1 Mg -0.159928 11.7639 46.8533 1.2 1 0.260425 0.0533176 0.019158 0.018633 0.00622276 0.0194008 0.00739749 0.0274482 0.00900661 0.0203304 0.00885613 0.0293164 0.00678219 0.0269196 0.00837145 0.03364 0.0109744 0.0346744 0.0146287 0.0357525
64 3 O 0.2623 13.1866 48.413 -1.2 1 0.214966 0.052909 0.0118224 0.0151366 0.00415726 0.0161519 0.0047613 0.0268894 0.00718077 0.0195914 0.0057063 0.0283809 0.00535712 0.0275476 0.0054656 0.0342473 0.00836971 0.0344864 0.0114141 0.038428
65 1 Mg 1.23387 11.8648 54.6216 1.2 1 0.067995 0.0317578 0.00398105 0.00644053 0.00165392 0.00744092 0.00240989 0.0211873 0.00278842 0.0124154 0.00205433 0.0245312 0.00296478 0.0209344 0.00272655 0.0329392 0.00363944 0.0258438 0.00509476 0.0388881
66 2 Si 1.11237 14.5129 56.2683 2.4 1 0.0315198 0.0211822 0.00558731 0.00657143 0.00129173 0.00636707 0.00231712 0.0210127 0.00227911 0.00990561 0.00383009 0.0234672 0.00292842 0.0189793 0.0040483 0.0324255 0.00360216 0.0257863 0.00563941 0.0424717
67 3 O 1.24059 12.9547 56.3021 -1.2 1 0.0353183 0.0223542 0.00536535 0.00655502 0.00109325 0.00620177 0.00218532 0.0204652 0.00351532 0.00992093 0.00253136 0.0237939 0.00297755 0.0189859 0.0024594 0.0326794 0.00475425 0.0257387 0.00571483 0.0414448
68 3 O 1.36565 15.4813 52.729 -1.2 1 0.111318 0.0387115 0.000747451 0.00815104 0.00165262 0.011026 0.00325074 0.0233999 0.00312452 0.0141689 0.00282657 0.0268069 0.00340735 0.0216418 0.0037279 0.0333583 0.00422141 0.0293816 0.00634255 0.0413036
69 3 O -0.166886 15.1571 55.6439 -1.2 1 0.0462127 0.0259095 0.00449442 0.00613924 0.00121207 0.00681307 0.00187556 0.0227137 0.00241048 0.0112973 0.00286255 0.024192 0.00296593 0.0200651 0.00354542 0.033161 0.0046206 0.0273956 0.00518135 0.0436508
70 3 O 2.37066 15.2796 55.7869 -1.2 1 0.0385772 0.0239649 0.00565888 0.00612734 0.000962116 0.00611868 0.00236892 0.021456 0.00213518 0.0106687 0.00290683 0.0239851 0.00251325 0.0192459 0.00310231 0.0335613 0.00388437 0.026673 0.00593676 0.0424548
71 1 Mg -0.206989 14.1049 52.2121 1.2 1 0.115692 0.0418381 0.000618623 0.00896842 0.00237774 0.00938471 0.00266834 0.023788 0.00362803 0.0148392 0.00279517 0.0271072 0.00286755 0.0222808 0.00351593 0.033727 0.00384443 0.029471 0.00632164 0.0399749
72 1 Mg 1.82591 13.8102 49.4556 1.2 1 0.183751 0.0519288 0.00622525 0.0120804 0.00332384 0.0137357 0.00503299 0.0248934 0.00502488 0.0187507 0.00509564 0.0280644 0.00454139 0.0259508 0.00613895 0.0350334 0.00608442 0.0329216 0.0104993 0.0383237
73 2 Si 1.29285 16.1518 51.2434 2.4 1 0.144276 0.0455237 0.00209183 0.0104041 0.00210895 0.0128734 0.00358759 0.0249613 0.00423189 0.0169841 0.00423889 0.0274639 0.00365926 0.0245194 0.00530927 0.0341052 0.00409036 0.0319486 0.00857317 0.041745
74 3 O 1.39496 17.7199 51.3047 -1.2 1 0.144393 0.0433367 0.0024778 0.00970088 0.00193605 0.0126854 0.00291945 0.0247535 0.00391151 0.0155284 0.00294834 0.0282063 0.00338428 0.0239134 0.00438463 0.0347986 0.00521178 0.0313315 0.00741077 0.0425191
75 3 O 0.972669 15.0229 57.7449 -1.2 1 0.0126165 0.0133571 0.00428539 0.00644166 0.000833829 0.00656866 0.00202359 0.0219634 0.0020847 0.00989847 0.00276692 0.0230339 0.0026248 0.0182337 0.00330804 0.0308363 0.00321072 0.0250879 0.00531392 0.0418333
76 3 O -0.0269106 15.5178 50.6688 -1.2 1 0.155365 0.0459739 0.00434818 0.0114099 0.00290156 0.0131674 0.00334912 0.0249645 0.00443655 0.0163151 0.00309949 0.0277771 0.00338287 0.0245875 0.00514217 0.0341763 0.00379143 0.0319273 0.00819702 0.0407895
77 1 Mg -3.18391 14.1057 52.3125 1.2 1 0.119836 0.0408355 0.00142741 0.00875131 0.0016666 0.0107837 0.00297354 0.0233349 0.00374384 0.0149562 0.00306465 0.0264085 0.00267857 0.0226666 0.00365626 0.0329315 0.00377308 0.0292481 0.00570837 0.0389915
78 3 O 2.52432 15.503 50.4579 -1.2 1 0.159006 0.0475568 0.00444953 0.0102683 0.00242089 0.0134174 0.00396922 0.0256994 0.00464018 0.0183341 0.00396468 0.0279786 0.00332938 0.0251824 0.00566342 0.0347405 0.00483689 0.0321504 0.0081067 0.0403989
79 1 Mg -1.9197 14.2187 55.0209 1.2 1 0.0529456 0.0285619 0.00462632 0.00684384 0.0013393 0.00675852 0.00255538 0.0220512 0.00340769 0.0112343 0.00299988 0.0244546 0.00300295 0.0203911 0.00334193 0.0331983 0.00423093 0.0276591 0.005345 0.0419797
80 2 Si -1.74982 12.014 53.2522 2.4 1 0.0950533 0.0376654 0.00205574 0.00822379 0.00232118 0.00797137 0.00242833 0.0219353 0.00400756 0.0136622 0.00218565 0.0251504 0.00331961 0.0217616 0.00286122 0.0331468 0.00447226 0.0275859 0.00550595 0.0397754
81 3 O -1.88171 10.4907 52.9377 -1.2 1 0.0989475 0.037284 0.00246673 0.00777883 0.00272326 0.0079843 0.00215004 0.0209859 0.00373724 0.0125767 0.00274159 0.0248148 0.00287871 0.0204382 0.0041477 0.0328218 0.00368634 0.0265381 0.00640537 0.038319
82 3 O -1.21337 13.3381 46.4311 -1.2 1 0.272243 0.0518048 0.0204666 0.0204888 0.00683778 0.0205708 0.00738704 0.029473 0.00904424 0.0212103 0.00783727 0.0308516 0.00637745 0.0267278 0.00873767 0.0356181 0.0126223 0.0363948 0.0150765 0.0363415
83 3 O -3.00564 12.6707 54.0666 -1.2 1 0.0816018 0.0337597 0.00225184 0.00679933 0.00141202 0.00857739 0.00202549 0.0218612 0.00311072 0.0131109 0.00236828 0.0247653 0.00269806 0.0212413 0.00287563 0.0336748 0.00326667 0.0274844 0.00493455 0.0398858
84 3 O -0.410476 12.6741 53.8127 -1.2 1 0.0804683 0.0351423 0.00285503 0.00727109 0.00222262 0.00707707 0.00239196 0.0222848 0.00276252 0.0124431 0.00248352 0.0252082 0.00274553 0.0215773 0.00303474 0.0335511 0.00351139 0.0272762 0.00492762 0.0400501
85 1 Mg -3.09523 21.2474 57.3322 1.2 1 0.0179094 0.0155033 0.0046536 0.0051441 0.000958925 0.00632415 0.00159532 0.0220254 0.00167075 0.00975054 0.00160266 0.0246658 0.00182875 0.0180204 0.00274841 0.030698 0.00320718 0.0255579 0.00401042 0.0437802
86 1 Mg -1.5831 21.1217 49.8405 1.2 1 0.181705 0.0476683 0.00706887 0.0124844 0.00280357 0.0155134 0.00337761 0.0268087 0.00387304 0.0177539 0.00420869 0.030406 0.00370571 0.0256176 0.00635138 0.035092 0.00656781 0.0322862 0.0101298 0.0410837
87 2 Si -1.09384 18.6291 47.9287 2.4 1 0.235294 0.0529348 0.0144202 0.0172074 0.00346163 0.0206221 0.00439126 0.028866 0.0069005 0.0206889 0.00596307 0.0319809 0.00613791 0.0282602 0.00680817 0.0363222 0.00987097 0.0354085 0.0123025 0.0408053
88 3 O -1.02071 20.1985 47.9911 -1.2 1 0.229025 0.0513952 0.0139755 0.0167989 0.00385556 0.0203749 0.00398628 0.0282956 0.0064386 0.0201983 0.00589374 0.0315578 0.00529101 0.0273206 0.00745743 0.0364458 0.00876943 0.0348119 0.0115279 0.0407256
89 3 O -1.65002 17.5002 51.771 -1.2 1 0.13353 0.0415139 0.00223285 0.0100889 0.00243498 0.0119548 0.00105912 0.0248451 0.00277363 0.0150036 0.00275286 0.0275027 0.00346976 0.0233176 0.00503955 0.0338369 0.0048216 0.0302987 0.00653643 0.0421255
90 3 O -2.26174 18.0434 48.8281 -1.2 1 0.20603 0.052383 0.00944307 0.0143012 0.00361975 0.0170266 0.00341702 0.0281747 0.00533851 0.0203253 0.00442965 0.031047 0.00462235 0.0271432 0.00606577 0.0363159 0.00783759 0.0345557 0.010738 0.0405559
91 1 Mg -0.0440435 16.5651 46.8269 1.2 1 0.259957 0.0532934 0.0185322 0.0195797 0.00491253 0.0241498 0.0056915 0.0314408 0.00903521 0.022281 0.00779093 0.0332232 0.00707712 0.0289321 0.0088801 0.0359609 0.0106817 0.0375606 0.0144116 0.0400283
92 3 O 0.37001 17.9877 48.3925 -1.2 1 0.214905 0.0522114 0.0107951 0.0153652 0.00365566 0.0179923 0.00351527 0.0281916 0.0058326 0.0200666 0.00455991 0.0307709 0.0050742 0.0285218 0.00609179 0.0356809 0.00806215 0.0357642 0.0109093 0.0418945
93 1 Mg 1.27596 16.6801 54.6911 1.2 1 0.0662876 0.030979 0.00365245 0.00639373 0.00103791 0.0074979 0.00223073 0.0225176 0.00273656 0.0119253 0.00222547 0.0256567 0.0028225 0.0204331 0.00244975 0.0334318 0.00431154 0.0272794 0.00523157 0.0426157
94 2 Si 1.19527 19.2143 56.3986 2.4 1 0.0290271 0.0203242 0.00577848 0.00635413 0.00130077 0.0061609 0.00242526 0.0216569 0.00223324 0.00892886 0.00324228 0.0236077 0.00294393 0.0190763 0.00347998 0.0313185 0.00388293 0.0258289 0.00573704 0.0450723
95 3 O 1.11547 17.6189 56.5013 -1.2 1 0.0275768 0.0197142 0.00569926 0.00603204 0.00109808 0.0060222 0.00172442 0.0216318 0.00281425 0.00915431 0.00246813 0.0241534 0.0028639 0.0182133 0.00314168 0.0319105 0.00486455 0.0258875 0.00501604 0.0438931
96 3 O 1.45147 20.239 52.7294 -1.2 1 0.108838 0.0375716 0.000747242 0.00744868 0.00147436 0.0113376 0.00287071 0.0243363 0.00251165 0.0139294 0.00265216 0.0273134 0.00371108 0.0219864 0.00444818 0.0331836 0.00410773 0.0298059 0.00653557 0.0434773
97 3 O -0.111964 20.0157 55.7577 -1.2 1 0.0450468 0.025616 0.00503917 0.00567597 0.00116855 0.00644169 0.00169068 0.0230219 0.00210558 0.0101545 0.00279328 0.0242894 0.00244575 0.0201449 0.00335068 0.0321717 0.00366836 0.027364 0.00523938 0.0448167
98 3 O 2.49763 19.9395 55.5466 -1.2 1 0.04638 0.0258647 0.00548519 0.0058447 0.000980119 0.00648244 0.00252203 0.0222202 0.00249259 0.00975652 0.00242612 0.024492 0.00261658 0.0201156 0.00302926 0.0323947 0.00364252 0.0271599 0.00561783 0.045195
99 1 Mg -0.126194 18.8651 52.2079 1.2 1 0.115426 0.0408806 0.00115384 0.00875383 0.00221442 0.0101283 0.00207298 0.0246336 0.00227285 0.0143577 0.00256687 0.0278314 0.00264821 0.0229371 0.00455309 0.0336595 0.00413573 0.0303377 0.00695617 0.0426068
100 1 Mg 1.92402 18.5815 49.4545 1.2 1 0.18504 0.051933 0.0053753 0.0120294 0.00212568 0.0152549 0.00423289 0.0268991 0.00399581 0.0192959 0.00422395 0.0301748 0.00453793 0.0271113 0.00577838 0.036061 0.00623326 0.0341224 0.0101789 0.0413465
101 2 Si 1.38106 20.9117 51.2443 2.4 1 0.146408 0.0457036 0.00184074 0.0103376 0.00225994 0.0129414 0.00328861 0.0253066 0.00307971 0.0162035 0.00409996 0.0277914 0.00347621 0.0250547 0.00577648 0.0337544 0.00456025 0.0315876 0.00869001 0.0427493
102 3 O 1.48527 22.4795 51.3054 -1.2 1 0.144597 0.0435375 0.00269977 0.00946015 0.00163914 0.012753 0.00294028 0.0246462 0.00325073 0.015292 0.00294508 0.0283396 0.00354552 0.0240415 0.00417502 0.0337158 0.00546424 0.0308728 0.00765893 0.0429863
103 3 O 1.39004 19.7827 57.8456 -1.2 1 0.0124908 0.0131258 0.00377016 0.00542163 0.000631404 0.00620875 0.00162902 0.0223237 0.00156489 0.00927461 0.00253449 0.0233076 0.00268535 0.0184783 0.00292877 0.030097 0.00319615 0.0248223 0.00453444 0.0430396
104 3 O 0.0615419 20.2804 50.6669 -1.2 1 0.157717 0.045745 0.00365705 0.0113642 0.00312071 0.0136045 0.00354515 0.0254025 0.00345628 0.0160608 0.00304284 0.0285114 0.00329658 0.0254572 0.00575923 0.0342907 0.00465262 0.0318498 0.00847345 0.0426717
105 1 Mg -3.09665 18.8643 52.3122 1.2 1 0.121561 0.0404335 0.00107538 0.00846557 0.00121314 0.0115271 0.00226859 0.0242531 0.00240065 0.014683 0.00213704 0.0276204 0.00269422 0.0231089 0.00359824 0.0333087 0.00417443 0.030009 0.00592063 0.0418035
106 3 O 2.61548 20.2646 50.4626 -1.2 1 0.157869 0.046999 0.00348497 0.0101187 0.00156464 0.0137596 0.00329538 0.0256764 0.0030797 0.0171624 0.00297453 0.0281439 0.00317929 0.0253039 0.00551156 0.0350395 0.00511519 0.031929 0.0083282 0.042205
107 1 Mg -1.7133 18.8327 54.8656 1.2 1 0.0543816 0.028668 0.00471359 0.00634121 0.00127527 0.00654528 0.00214464 0.0228084 0.00230918 0.0109584 0.00326044 0.0248942 0.00220462 0.020737 0.003726 0.0325283 0.00446518 0.0277818 0.00541287 0.0440808
108 2 Si -1.68168 16.7794 53.165 2.4 1 0.0987431 0.0374982 0.00175946 0.00813052 0.0021731 0.00876191 0.00203528 0.0231667 0.0029893 0.0132613 0.00244441 0.025636 0.00240398 0.0224419 0.00341263 0.0336962 0.00448381 0.0293432 0.00519386 0.043052
109 3 O -1.68898 15.2102 53.1207 -1.2 1 0.0959419 0.0364307 0.00220315 0.00811641 0.00191406 0.00887105 0.0017206 0.0226548 0.00321249 0.0129339 0.00245174 0.0263491 0.00280099 0.0211854 0.00417213 0.0337871 0.00324822 0.0283884 0.0061616 0.0421149
110 3 O -1.12868 18.1227 46.4249 -1.2 1 0.269822 0.0527539 0.0198492 0.0206055 0.00500046 0.0239348 0.00596108 0.0319761 0.00779526 0.0219021 0.00661336 0.0339205 0.00691777 0.0269708 0.00869604 0.0376332 0.0120094 0.0379505 0.0146733 0.0400259
111 3 O -2.85612 17.5455 54.0808 -1.2 1 0.0808322 0.0334111 0.00269565 0.0066288 0.00131919 0.00884464 0.00174323 0.0230073 0.00219162 0.012456 0.00218477 0.0254455 0.00227508 0.0215596 0.0029991 0.0332389 0.0041542 0.0282094 0.00511649 0.0430036
112 3 O -0.329816 17.5898 53.8513 -1.2 1 0.0798111 0.0331874 0.00292335 0.00695362 0.001805 0.00702313 0.00162326 0.0235138 0.00217347 0.0119845 0.00213864 0.0250727 0.0024444 0.0219135 0.00346718 0.0334201 0.00388364 0.028799 0.00476547 0.0437629
113 1 Mg -2.99074 25.9337 57.6203 1.2 1 0.0189599 0.0154384 0.00434336 0.00526977 0.00171047 0.00667735 0.00129884 0.020621 0.00172924 0.00903692 0.00180311 0.0251312 0.00180878 0.0184828 0.0025587 0.0307118 0.00302865 0.0249634 0.00445595 0.0440052
114 1 Mg -1.48778 25.88 49.8402 1.2 1 0.182441 0.0488515 0.00747456 0.0128617 0.00290837 0.0156335 0.00307079 0.0260688 0.0038105 0.0178071 0.00457178 0.0308951 0.00397378 0.0258598 0.00626861 0.0349403 0.00645176 0.0318153 0.0102327 0.0403471
115 2 Si -1.00491 23.3922 47.9274 2.4 1 0.235656 0.0537243 0.0146921 0.0179293 0.00340531 0.0210422 0.00457711 0.0286265 0.00740563 0.02057 0.00588756 0.0322395 0.00609975 0.0284596 0.00653629 0.0361884 0.00939729 0.0342118 0.0116146 0.0405629
116 3 O -0.927602 24.9615 47.9909 -1.2 1 0.22975 0.0526112 0.0138868 0.0175437 0.0036291 0.0205202 0.00434645 0.0282165 0.00694663 0.0201932 0.00615452 0.031761 0.00544276 0.0278064 0.00713491 0.0360533 0.00884681 0.0344176 0.0111214 0.0403954
117 3 O -1.55795 22.2588 51.7696 -1.2 1 0.135037 0.0415475 0.00209396 0.00997824 0.00230982 0.011828 0.00203328 0.0246582 0.00216806 0.0145694 0.0024904 0.0282172 0.00314199 0.0234119 0.00476736 0.0334729 0.00534221 0.0300151 0.00788213 0.0435142
118 3 O -2.17411 22.8111 48.8277 -1.2 1 0.208159 0.0531106 0.00985907 0.014662 0.00322938 0.0172405 0.00371993 0.0278188 0.00489764 0.0199689 0.00412543 0.0308997 0.00454669 0.0272836 0.00601122 0.0361469 0.00749233 0.0337692 0.010478 0.0406617
119 1 Mg 0.0423997 21.3296 46.8225 1.2 1 0.255624 0.0531033 0.0181023 0.0195219 0.00424221 0.02467 0.00546274 0.0314303 0.00779075 0.0219047 0.00636897 0.0336311 0.00631832 0.0285294 0.00784184 0.0358914 0.0102027 0.0365677 0.0128004 0.0404065
120 3 O 0.458537 22.7495 48.3911 -1.2 1 0.214777 0.0522236 0.0104963 0.015635 0.00360332 0.0184921 0.00342336 0.028004 0.00542589 0.0197907 0.00417478 0.0309829 0.00500848 0.0285637 0.0059231 0.0354299 0.00806934 0.0350646 0.0106513 0.0416292