ITEM: TIMESTEP
57000
ITEM: NUMBER OF ATOMS
10500
ITEM: BOX BOUNDS xy xz yz pp pp pp
0	8.9688	2.9896
0	118.725	0
0	252.977	0
ITEM: ATOMS id type element xu yu zu q Q_1 Q_2 Q_3 Q_4 Q_5 Q_6 Q_7 Q_8 Q_9 Q_10 Q_11 Q_12 Q_13 Q_14 Q_15 Q_16 Q_17 Q_18 Q_19 Q_20 Q_21
1 1 Mg -3.20001 6.97812 57.3739 1.2 1 0.0218594 0.0156655 0.0049786 0.00452908 0.000989601 0.00655383 0.00118896 0.021278 0.00177115 0.00885185 0.0016822 0.0255479 0.00206313 0.0175954 0.00249149 0.0300368 0.00257827 0.0249862 0.00460619 0.0434896
2 1 Mg -1.82655 6.90154 50.0912 1.2 1 0.176797 0.0455908 0.00610969 0.0095961 0.00302016 0.00853712 0.00426536 0.022597 0.00510062 0.0146265 0.00452955 0.0247555 0.00466529 0.0202925 0.00633498 0.0291725 0.00543823 0.0249495 0.0082525 0.0327508
3 2 Si -0.257935 3.96038 48.0876 2.4 1 0.225795 0.0504121 0.0108286 0.0123167 0.00254185 0.00983183 0.00375556 0.0199366 0.00558394 0.0170592 0.00408386 0.0236354 0.00507817 0.0207637 0.00584071 0.0265705 0.00664146 0.024761 0.008171 0.0306649
4 3 O -0.335812 5.46814 47.6264 -1.2 1 0.234788 0.0506368 0.0131134 0.0135696 0.00311258 0.0106871 0.00460235 0.0208829 0.00652295 0.017427 0.00463477 0.0244782 0.00477491 0.0211892 0.00618349 0.026987 0.0072941 0.0252651 0.00860322 0.0298397
5 3 O -2.03793 3.43377 51.8941 -1.2 1 0.130909 0.0392142 0.00291229 0.00640064 0.002067 0.00734353 0.00275044 0.0193439 0.00211771 0.0112201 0.00288488 0.0232196 0.0035546 0.0171355 0.00425464 0.027064 0.00512401 0.0238419 0.00788604 0.0336963
6 3 O -1.54015 3.53929 48.9521 -1.2 1 0.20259 0.0481152 0.00807178 0.0107437 0.00248027 0.00863602 0.00351592 0.0195699 0.00486934 0.0149878 0.00413894 0.0228166 0.00421362 0.0192852 0.0057931 0.0267667 0.00552687 0.0241387 0.00837303 0.0301928
7 1 Mg 1.82954 2.54582 47.1376 1.2 1 0.247975 0.0499969 0.015022 0.0157341 0.00340444 0.0113098 0.00360976 0.0199106 0.00537232 0.0157071 0.00494599 0.0235928 0.00587487 0.0195889 0.0071513 0.0243559 0.00622928 0.0233549 0.00820921 0.0288859
8 3 O 1.22989 3.66364 48.7877 -1.2 1 0.208275 0.0480083 0.00899689 0.0116734 0.00262134 0.00966602 0.00393393 0.0197262 0.00417108 0.0148959 0.0037727 0.0229325 0.00463173 0.0197611 0.00623393 0.0258333 0.004496 0.0242406 0.00868727 0.0307684
9 1 Mg 1.09124 2.25364 54.5782 1.2 1 0.0694099 0.0288229 0.00452232 0.00389619 0.00177697 0.0056226 0.00246318 0.0192286 0.00227633 0.00907456 0.00238753 0.0232251 0.00325443 0.0175126 0.00451543 0.0290295 0.00319683 0.0241033 0.006823 0.0380009
10 2 Si 1.4035 4.95286 56.4377 2.4 1 0.0311191 0.0193924 0.00542213 0.0047231 0.00116546 0.00678994 0.00179464 0.0201822 0.00170927 0.00822189 0.0031066 0.0236241 0.00232062 0.0175155 0.00478682 0.0293671 0.00361788 0.0248739 0.00599195 0.0421617
11 3 O 1.3194 3.3234 56.4136 -1.2 1 0.0377401 0.0212896 0.00597498 0.00420445 0.00112217 0.00609689 0.00212297 0.0193562 0.00200972 0.00831683 0.00243684 0.0244354 0.0024033 0.0166002 0.00381993 0.0293189 0.00336088 0.0250968 0.00527733 0.0406427
12 3 O 1.10813 6.07342 52.8172 -1.2 1 0.107537 0.0353861 0.00233443 0.00580057 0.00236363 0.0072869 0.00304978 0.0213041 0.00309273 0.0110092 0.00290602 0.0239283 0.00365881 0.0181622 0.00445241 0.0286626 0.00424722 0.0245243 0.00689705 0.0361236
13 3 O 0.0919317 5.62592 55.8441 -1.2 1 0.0437143 0.0232952 0.00560208 0.00399865 0.00115302 0.00588211 0.00227988 0.020356 0.00180127 0.00884738 0.00240213 0.0239907 0.00273536 0.0174753 0.00428871 0.0299392 0.00325516 0.0254558 0.0060459 0.0412412
14 3 O 2.57336 5.71373 55.7879 -1.2 1 0.0431412 0.0238553 0.0059665 0.00391911 0.000748135 0.00657671 0.00221826 0.0211144 0.00149834 0.00903913 0.00278441 0.0241358 0.00301981 0.0181945 0.00427836 0.0306847 0.00308994 0.0259742 0.00637181 0.0419124
15 1 Mg -0.459401 4.67631 52.2426 1.2 1 0.126228 0.0392166 0.00261275 0.00655448 0.00245176 0.00710105 0.00230729 0.0201541 0.00293391 0.0120931 0.00258761 0.0242629 0.00337683 0.0184099 0.00443172 0.0279209 0.00440459 0.0239434 0.00698215 0.0334364
16 1 Mg 2.79456 3.9971 49.9987 1.2 1 0.176736 0.0466479 0.00554415 0.00930456 0.0026478 0.00807661 0.00435069 0.0199789 0.00315095 0.014544 0.00288679 0.0232449 0.00424868 0.0199023 0.00641514 0.0270656 0.0044126 0.0242357 0.00914309 0.0311214
17 2 Si 1.16169 6.59457 51.2556 2.4 1 0.149748 0.0445766 0.00264943 0.00853109 0.00221402 0.00844441 0.00409414 0.0217407 0.00432581 0.013446 0.00450419 0.0240726 0.0046346 0.0201266 0.00644334 0.0299897 0.00455419 0.0256225 0.00845867 0.0344181
18 3 O 1.28989 8.18905 51.2909 -1.2 1 0.144733 0.0431974 0.00243802 0.00840421 0.00208818 0.00883995 0.00398103 0.0219041 0.00445931 0.0130418 0.00348045 0.0258273 0.00398697 0.0201654 0.00484593 0.0304141 0.00568917 0.0256553 0.00783141 0.0358648
19 3 O 1.51314 5.53939 58.0082 -1.2 1 0.0136221 0.0122155 0.00363335 0.00467477 0.00110351 0.00679386 0.00142074 0.0210099 0.00163625 0.00824256 0.00224583 0.0247138 0.00225952 0.0181172 0.00300878 0.0300461 0.00266147 0.02519 0.00415986 0.0434582
20 3 O -0.184847 6.06029 50.6845 -1.2 1 0.163043 0.0436896 0.00490958 0.00878366 0.00328665 0.00813399 0.00388183 0.0215635 0.00461888 0.0138003 0.00297565 0.023588 0.00381116 0.0196458 0.00527483 0.0279044 0.00505837 0.0246313 0.0078959 0.033687
21 1 Mg -3.49704 4.67769 52.6661 1.2 1 0.11814 0.037659 0.00216763 0.00594037 0.00233427 0.00720394 0.00294168 0.0196766 0.00344824 0.0111787 0.00329817 0.0239574 0.00360151 0.0175799 0.00441751 0.02768 0.00401678 0.0235211 0.0074619 0.0346148
22 3 O 2.48581 5.93312 50.6539 -1.2 1 0.158524 0.0449805 0.0038709 0.00783346 0.00154212 0.00864135 0.00412981 0.0208316 0.00390315 0.0137331 0.00365293 0.023404 0.00457481 0.020226 0.00580161 0.0288546 0.00467814 0.0250584 0.00867273 0.0328119
23 1 Mg -1.63515 4.78007 55.2383 1.2 1 0.0529818 0.0265291 0.00590584 0.00421617 0.00142826 0.00570517 0.00254321 0.0204382 0.00271139 0.00910417 0.00302455 0.0244374 0.00263382 0.0175218 0.00371672 0.0296764 0.00428735 0.0252173 0.00634139 0.0393249
24 2 Si -1.87038 2.68796 53.2817 2.4 1 0.102242 0.0345642 0.00312458 0.00525846 0.00294338 0.00640299 0.00217806 0.019486 0.00225626 0.0106395 0.00277215 0.0230004 0.00287149 0.0176294 0.00368621 0.0278601 0.00393594 0.0244118 0.00700198 0.0354654
25 3 O -1.74868 1.19443 53.3035 -1.2 1 0.0984997 0.0338145 0.00280801 0.00516145 0.00296194 0.00631328 0.002155 0.0189768 0.00215974 0.00986482 0.00277457 0.0230721 0.00280168 0.0170383 0.00437141 0.0277259 0.0031088 0.0243198 0.00672439 0.0356936
26 3 O -0.0467762 2.97103 46.8385 -1.2 1 0.254767 0.0506558 0.0155645 0.0153281 0.00318449 0.0102834 0.00388962 0.0196302 0.00640944 0.0169691 0.00597854 0.023376 0.00672435 0.0193369 0.00819539 0.0246296 0.00630039 0.0238657 0.00917077 0.0295861
27 3 O -3.11868 3.10839 54.0533 -1.2 1 0.0813326 0.030938 0.00381032 0.00380492 0.00196865 0.00602624 0.00191169 0.0195128 0.00223459 0.0097679 0.00187022 0.023175 0.00251639 0.0176846 0.00397197 0.0283054 0.00382735 0.0240078 0.00619254 0.0367045
28 3 O -0.470673 3.44317 53.9784 -1.2 1 0.0800606 0.0307137 0.00425117 0.00372567 0.00234727 0.00635372 0.00136393 0.0198785 0.00169281 0.00983409 0.00184128 0.0231035 0.00288712 0.017677 0.00370023 0.0288878 0.00347095 0.0251188 0.00673051 0.0375281
29 1 Mg -3.25575 11.6214 57.6367 1.2 1 0.0202054 0.014621 0.00445589 0.00490527 0.00140386 0.0064937 0.00153082 0.0227845 0.00215384 0.00885669 0.00299165 0.0267775 0.00173412 0.0189004 0.0027539 0.0315717 0.00329158 0.0250918 0.00406077 0.0463557
30 1 Mg -1.75014 11.5838 49.8362 1.2 1 0.182694 0.0482231 0.00763121 0.0116992 0.00405601 0.012433 0.00419864 0.0242195 0.00583189 0.0158172 0.00512401 0.0278682 0.00398875 0.0235452 0.00619611 0.0321721 0.00642613 0.0275066 0.00894656 0.0368796
31 2 Si -1.18003 9.02138 47.9309 2.4 1 0.239093 0.0510238 0.0150393 0.015085 0.00538107 0.01303 0.00738683 0.023387 0.00837128 0.0172473 0.0066512 0.0258984 0.00498155 0.0226906 0.00714172 0.0299167 0.00789825 0.0272172 0.0105543 0.0336188
32 3 O -1.23224 10.5991 47.9811 -1.2 1 0.228912 0.0523913 0.0133651 0.0153078 0.00512713 0.0141221 0.00621087 0.0244095 0.00811455 0.0176663 0.00636331 0.0270131 0.00516551 0.023572 0.00798047 0.0320202 0.00800051 0.0295232 0.00993767 0.0341201
33 3 O -1.79016 8.01447 51.8693 -1.2 1 0.13384 0.0402825 0.0022632 0.00806316 0.00330902 0.00728313 0.00310154 0.021851 0.00386511 0.0124643 0.00341373 0.0255964 0.00381711 0.0194777 0.0044483 0.0302398 0.00557664 0.0246688 0.00836637 0.0358596
34 3 O -2.30986 8.37215 48.8528 -1.2 1 0.202636 0.0505647 0.00888862 0.0118456 0.00389083 0.0103366 0.00585998 0.0234267 0.0065658 0.0169914 0.00482455 0.0261261 0.00438073 0.0226226 0.0063882 0.030962 0.00652858 0.0269909 0.00852983 0.0333452
35 1 Mg 0.154883 7.08234 46.8007 1.2 1 0.261533 0.0513969 0.0176942 0.0161151 0.00567803 0.013337 0.00843282 0.0240335 0.00802231 0.0179025 0.00706106 0.0248343 0.00700135 0.0217106 0.00876348 0.0287623 0.00899078 0.0274144 0.0113474 0.0308612
36 3 O 0.325447 8.50934 48.3809 -1.2 1 0.218632 0.052412 0.0109921 0.0138007 0.00384618 0.0119082 0.005938 0.0242122 0.00705443 0.0173331 0.00543274 0.0258449 0.00486911 0.0234179 0.00598479 0.0301276 0.00696038 0.0276871 0.00931145 0.0333817
37 1 Mg 1.1982 7.1056 54.9323 1.2 1 0.0609302 0.0284263 0.00513488 0.00458658 0.00111828 0.00566559 0.00247852 0.0201889 0.00239466 0.00928013 0.00248029 0.0244154 0.00327193 0.0183538 0.00335992 0.0303056 0.00356962 0.024103 0.00695526 0.0399638
38 2 Si 1.35895 9.78341 56.3454 2.4 1 0.0361865 0.0214033 0.00539607 0.00567703 0.00107848 0.00615021 0.00166922 0.0219525 0.00217622 0.00876681 0.00319788 0.024941 0.00244873 0.0192932 0.00396664 0.0313342 0.00332004 0.0248858 0.00579592 0.0451355
39 3 O 1.17673 8.12949 56.6387 -1.2 1 0.0289956 0.018434 0.00550301 0.00492069 0.00095815 0.00643597 0.00183413 0.0213926 0.00269601 0.00822749 0.00217118 0.0251685 0.00286203 0.0173741 0.00295659 0.0304899 0.00344648 0.0251858 0.00527246 0.0440002
40 3 O 1.28624 10.7248 52.7351 -1.2 1 0.110498 0.0380314 0.0013288 0.00687405 0.00185975 0.00931748 0.00297292 0.0228815 0.00336708 0.0120597 0.00390128 0.0265355 0.00418494 0.0205342 0.00441065 0.031532 0.00426977 0.0258967 0.00706354 0.0394069
41 3 O 0.0168466 10.3948 55.6417 -1.2 1 0.0503779 0.0255531 0.00430246 0.00501194 0.00145903 0.00628594 0.00188747 0.021957 0.00172703 0.00963226 0.00266544 0.0255696 0.00290721 0.0195628 0.0037863 0.0318547 0.00326143 0.0248656 0.00541841 0.0433227
42 3 O 2.60544 10.3925 55.6492 -1.2 1 0.0455788 0.0247488 0.00557619 0.00523452 0.0012787 0.00655671 0.00192873 0.0225175 0.00189403 0.00948626 0.00297034 0.0257406 0.00259693 0.0194928 0.00377088 0.0318919 0.00301663 0.0253306 0.00573473 0.0448731
43 1 Mg -0.262694 9.34741 52.2523 1.2 1 0.114116 0.0402436 0.00193219 0.00742841 0.0022995 0.0077673 0.00267823 0.0229285 0.00359071 0.0120992 0.00328466 0.0262267 0.00359829 0.0201462 0.00456345 0.031183 0.00465277 0.0259132 0.00756391 0.0375961
44 1 Mg 1.87648 9.01537 49.4629 1.2 1 0.183713 0.0511278 0.00590179 0.0106049 0.00266747 0.0104594 0.00590614 0.0234665 0.00561311 0.0162357 0.00459481 0.0265745 0.0050624 0.0227412 0.00585037 0.031333 0.00545113 0.027562 0.00918824 0.0344834
45 2 Si 1.21415 11.3799 51.2378 2.4 1 0.14712 0.0469419 0.002487 0.00934902 0.00232513 0.0106786 0.00363896 0.0237745 0.00448917 0.0146933 0.00505866 0.0267386 0.0043131 0.0233469 0.00528029 0.0320565 0.0045795 0.0278257 0.00856295 0.0387663
46 3 O 1.31634 12.9512 51.3023 -1.2 1 0.144703 0.0452048 0.00349302 0.00898437 0.00250891 0.0115796 0.00342595 0.0240339 0.00468132 0.0148095 0.00367964 0.0285241 0.0044173 0.02395 0.00411609 0.0322944 0.00521 0.0280115 0.0075683 0.0395244
47 3 O 1.15318 10.3167 57.8576 -1.2 1 0.0165575 0.0128621 0.00393242 0.00532151 0.000903865 0.00663904 0.00164297 0.0223144 0.00215983 0.00853098 0.00285357 0.0261043 0.00230394 0.018809 0.00298177 0.031256 0.00243272 0.0246826 0.00367211 0.0465501
48 3 O -0.115718 10.7564 50.681 -1.2 1 0.156956 0.0467943 0.00385764 0.0100881 0.00299698 0.0103903 0.00389376 0.0237483 0.00450861 0.0144552 0.00376526 0.0270755 0.00452079 0.022714 0.0057838 0.0315211 0.00463052 0.0271923 0.00905639 0.0376351
49 1 Mg -3.26386 9.35564 52.3622 1.2 1 0.122675 0.0394117 0.00149232 0.0070482 0.00205715 0.00902856 0.00356633 0.0225089 0.00390391 0.0123962 0.00389393 0.0260878 0.0035438 0.020288 0.00489346 0.0312502 0.00461292 0.0256306 0.00786018 0.0365696
50 3 O 2.45216 10.7265 50.4558 -1.2 1 0.161646 0.0480007 0.00408777 0.00916327 0.00252188 0.0111003 0.00456324 0.0235377 0.00516859 0.0156456 0.00424784 0.0268024 0.00394109 0.0234146 0.00550617 0.0319498 0.00541738 0.027331 0.00832632 0.0371621
51 1 Mg -1.7858 9.36898 55.2211 1.2 1 0.0520659 0.0267414 0.00529987 0.00517898 0.00183056 0.00648874 0.00263968 0.0220848 0.00317727 0.00931694 0.00288755 0.02581 0.00286083 0.0192429 0.00382248 0.0313173 0.00431207 0.0253275 0.00632016 0.0426858
52 2 Si -1.81231 7.30499 53.4072 2.4 1 0.0949354 0.035349 0.00285676 0.00592904 0.00295398 0.00652367 0.00293565 0.0210517 0.00393737 0.0109164 0.00292307 0.0247568 0.00287591 0.0192551 0.00332048 0.0298774 0.00502366 0.024447 0.00654512 0.0376459
53 3 O -1.818 5.87229 53.3868 -1.2 1 0.0968944 0.0330011 0.00246502 0.00499523 0.00240515 0.00651335 0.0022567 0.0197543 0.00313186 0.0100998 0.00296537 0.0239533 0.00272888 0.0178221 0.00406537 0.0292601 0.00351102 0.0242567 0.00691799 0.0365947
54 3 O -1.19417 8.46968 46.4488 -1.2 1 0.271225 0.0516298 0.02011 0.0176451 0.00554461 0.0141634 0.00872365 0.0248535 0.00841696 0.0177059 0.00733118 0.0252382 0.00628952 0.0213391 0.00936856 0.0302008 0.00968621 0.0288209 0.0107596 0.0307439
55 3 O -3.16248 8.07149 53.995 -1.2 1 0.0840034 0.0316049 0.00267761 0.0051222 0.00180584 0.007371 0.0029247 0.0219319 0.00312391 0.0103115 0.00224283 0.0245619 0.00279431 0.019295 0.00316 0.0303887 0.00455072 0.0248888 0.00675042 0.0392004
56 3 O -0.533921 7.90089 54.186 -1.2 1 0.0769558 0.0318192 0.0042373 0.00487833 0.00249613 0.00617864 0.00199043 0.0213081 0.00310394 0.010091 0.00292385 0.0246375 0.00241361 0.0191051 0.00406668 0.0306395 0.00397506 0.0252832 0.00713489 0.0393353
57 1 Mg -3.08732 16.566 57.2466 1.2 1 0.0205337 0.0145555 0.00495521 0.0051316 0.00124318 0.00653433 0.00146534 0.0229746 0.00196642 0.00954186 0.00198724 0.0273461 0.00241337 0.0205787 0.00227662 0.0315841 0.00295614 0.0251749 0.00508232 0.0468528
58 1 Mg -1.6714 16.3544 49.8412 1.2 1 0.17756 0.0499759 0.00744501 0.012882 0.0035073 0.0149735 0.00345704 0.0264059 0.00450231 0.0177454 0.00425074 0.0307164 0.00338462 0.0262204 0.00526809 0.0338058 0.00567428 0.030859 0.00868535 0.03969
59 2 Si -1.18567 13.8526 47.9314 2.4 1 0.231989 0.0547492 0.0155634 0.0166315 0.00470441 0.0179099 0.00548083 0.0271203 0.0088974 0.0198862 0.00573372 0.0304048 0.00541517 0.0282267 0.00627415 0.0342866 0.00969859 0.0318741 0.0104526 0.03697
60 3 O -1.09664 15.4205 47.9915 -1.2 1 0.231809 0.0543363 0.0154245 0.0172512 0.00496309 0.0194689 0.00500636 0.0281937 0.00842103 0.0199755 0.00628227 0.030895 0.00538287 0.0278254 0.0073528 0.0352087 0.00893358 0.0333717 0.0104133 0.0378693
61 3 O -1.73493 12.7491 51.7772 -1.2 1 0.132854 0.0421533 0.00223138 0.00923831 0.00309311 0.0100953 0.00200513 0.0242662 0.00401726 0.0138982 0.00299099 0.028012 0.00395431 0.0229812 0.00471205 0.0320933 0.00513624 0.0268751 0.00764063 0.0408679
62 3 O -2.36115 13.2717 48.8238 -1.2 1 0.202799 0.0538154 0.0104015 0.013574 0.00449933 0.0144008 0.00492054 0.0268006 0.00655101 0.0193586 0.0048749 0.0298803 0.00439152 0.0263873 0.00517678 0.0338495 0.00722854 0.0306349 0.00900494 0.0370214
63 1 Mg -0.159928 11.7639 46.8533 1.2 1 0.259131 0.0544322 0.0197623 0.0180227 0.0063617 0.0196653 0.00715077 0.0282239 0.00990674 0.0196367 0.00764898 0.0297767 0.00641154 0.0268686 0.00786064 0.0331829 0.0100832 0.032514 0.0121626 0.0347381
64 3 O 0.2623 13.1866 48.413 -1.2 1 0.213931 0.0540524 0.0121093 0.0146534 0.00392188 0.0161027 0.00474804 0.0268862 0.00742951 0.0187452 0.00487122 0.0288355 0.00467228 0.0277838 0.00502332 0.033567 0.00816993 0.0324142 0.00980634 0.0375712
65 1 Mg 1.14685 11.7904 54.4368 1.2 1 0.0743625 0.0326049 0.00332167 0.00551984 0.00200775 0.00780124 0.00273101 0.0228246 0.00263072 0.0111925 0.00284785 0.0270375 0.00339614 0.0208536 0.00302195 0.0320461 0.00415214 0.024752 0.00576325 0.0417538
66 2 Si 1.39839 14.3827 56.306 2.4 1 0.0343867 0.0217149 0.00552906 0.00610957 0.00139639 0.00675862 0.00201182 0.0231604 0.00180048 0.00950926 0.00314264 0.0265536 0.00208632 0.0207697 0.00398846 0.03182 0.00327075 0.0249797 0.0059524 0.0476888
67 3 O 1.25367 12.8976 56.4011 -1.2 1 0.0342357 0.0208262 0.00498849 0.00576289 0.00105046 0.00592462 0.00230018 0.0223957 0.00332825 0.00902837 0.00211087 0.0267379 0.00297795 0.0199201 0.00269469 0.0319207 0.00424267 0.0245266 0.00477624 0.0467105
68 3 O 1.36565 15.4813 52.729 -1.2 1 0.108649 0.039122 0.00107427 0.00765674 0.00184638 0.0108692 0.00320924 0.024531 0.00311584 0.0136969 0.00363675 0.0284622 0.00369344 0.0228451 0.00419608 0.0321866 0.00379336 0.0280276 0.00640999 0.0424914
69 3 O 0.071427 15.2123 55.8216 -1.2 1 0.0449585 0.0248107 0.00461732 0.00570531 0.00123981 0.00700103 0.00219763 0.0230106 0.00176286 0.00999947 0.00263448 0.0269553 0.00252064 0.0213489 0.00467963 0.0322212 0.00336432 0.0258662 0.00555926 0.0465678
70 3 O 2.65054 15.1993 55.766 -1.2 1 0.0418706 0.0243444 0.0056767 0.00571161 0.00136355 0.00679973 0.00248698 0.0232487 0.00186777 0.00986573 0.00245309 0.0268794 0.00216322 0.0214581 0.00315119 0.0327556 0.0028522 0.0259812 0.00602367 0.0472252
71 1 Mg -0.206989 14.1049 52.2121 1.2 1 0.114907 0.0424829 0.0006318 0.00832894 0.00262721 0.00921214 0.00237971 0.0245221 0.00322549 0.013972 0.00307858 0.0284998 0.00324667 0.0233581 0.00373536 0.0324079 0.00401804 0.0277586 0.0067212 0.0408586
72 1 Mg 1.82591 13.8102 49.4556 1.2 1 0.180983 0.0534722 0.00652469 0.011486 0.00279776 0.0134909 0.00473997 0.0257853 0.00547884 0.0180059 0.0050405 0.0291781 0.00461213 0.0264717 0.00533721 0.0338939 0.00612386 0.03047 0.00898916 0.0378225
73 2 Si 1.29285 16.1518 51.2434 2.4 1 0.143403 0.0476321 0.00273537 0.010347 0.0025006 0.0125979 0.0036581 0.0252411 0.0041065 0.0160144 0.00503844 0.0285075 0.00389298 0.0255754 0.00511559 0.0328697 0.00401201 0.0300774 0.00847065 0.0416974
74 3 O 1.39496 17.7199 51.3047 -1.2 1 0.143667 0.0458944 0.00305752 0.0101865 0.00222022 0.0126089 0.0033741 0.0248748 0.00377017 0.0154553 0.00271876 0.0292746 0.00364187 0.0252562 0.00336202 0.0334144 0.00520943 0.0301519 0.007492 0.0420013
75 3 O 1.44956 14.9797 57.9928 -1.2 1 0.0154258 0.0117344 0.00395114 0.00533287 0.00112527 0.00667453 0.00177676 0.0231495 0.00149304 0.00903106 0.00282115 0.0272779 0.00235753 0.0201948 0.0032785 0.0317329 0.00260857 0.0247924 0.00478652 0.0479347
76 3 O -0.0269106 15.5178 50.6688 -1.2 1 0.155629 0.0481644 0.00500144 0.0113024 0.00322846 0.0129623 0.00378309 0.0256038 0.00448749 0.0158037 0.00334039 0.0287227 0.00379082 0.0261273 0.00515537 0.0328986 0.0040692 0.0299916 0.00796127 0.0406238
77 1 Mg -3.18391 14.1057 52.3125 1.2 1 0.121484 0.0419502 0.00173513 0.00816314 0.00181216 0.0107544 0.00290924 0.0242079 0.00349211 0.0142634 0.00318252 0.0282856 0.00326781 0.023321 0.00385239 0.032288 0.0042138 0.0276487 0.0064011 0.0405883
78 3 O 2.52432 15.503 50.4579 -1.2 1 0.161238 0.0503085 0.00489553 0.0107451 0.0025123 0.0133657 0.00405076 0.0255 0.00476707 0.0180143 0.00376072 0.0290737 0.00374254 0.0268011 0.00511264 0.0334599 0.00483303 0.0303005 0.00819157 0.0399768
79 1 Mg -1.50183 14.1566 55.0257 1.2 1 0.0547213 0.0286804 0.00432602 0.0059508 0.00167422 0.00674176 0.00230649 0.0234758 0.00263729 0.0107715 0.00296512 0.0272642 0.00220786 0.0216099 0.00390546 0.0322709 0.00417404 0.0259819 0.00581421 0.0452503
80 2 Si -1.77462 12.073 53.2366 2.4 1 0.097139 0.0377822 0.00209082 0.006952 0.00266929 0.00815506 0.00242802 0.0230234 0.00395583 0.0121258 0.00263492 0.0268931 0.00370088 0.0222699 0.00353189 0.0321451 0.0054573 0.025992 0.0060639 0.042237
81 3 O -1.76018 10.5092 53.1196 -1.2 1 0.0978471 0.0357273 0.00269291 0.00635581 0.00269154 0.00792462 0.00192749 0.0221743 0.00314971 0.0105858 0.00304021 0.0257271 0.00330129 0.0199876 0.00400737 0.0316162 0.00473743 0.0251082 0.00819344 0.0408315
82 3 O -1.21337 13.3381 46.4311 -1.2 1 0.270296 0.0537964 0.0217976 0.0198367 0.00656156 0.0204962 0.00691055 0.0301329 0.00972605 0.0208477 0.00706935 0.0311723 0.0058442 0.0264605 0.00825441 0.0356515 0.0118406 0.0347299 0.0124369 0.0350825
83 3 O -3.01062 12.7231 53.9621 -1.2 1 0.0834645 0.0340438 0.00252286 0.00585974 0.00187988 0.0087652 0.00196348 0.023209 0.00222618 0.0116887 0.00256138 0.0267651 0.00300999 0.0219065 0.00345527 0.0322471 0.00402905 0.025565 0.00621481 0.0428415
84 3 O -0.400984 12.7041 53.8717 -1.2 1 0.081222 0.0346766 0.00272998 0.00599729 0.00292833 0.0068163 0.00225644 0.0238846 0.00288214 0.0113957 0.00276432 0.0268136 0.002932 0.021837 0.00360937 0.0324684 0.00466452 0.0259003 0.00551415 0.0427249
85 1 Mg -3.19312 21.2768 57.554 1.2 1 0.0203922 0.0138501 0.00485078 0.00515692 0.0017923 0.00664861 0.00178578 0.0225051 0.00150408 0.00935423 0.00233715 0.0274584 0.00225599 0.0200227 0.00237629 0.0309609 0.00346167 0.0251045 0.0044199 0.0470025
86 1 Mg -1.5831 21.1217 49.8405 1.2 1 0.179685 0.0499601 0.00750949 0.0133427 0.00323656 0.0155356 0.00316845 0.0264742 0.00439878 0.0181584 0.00443095 0.0308461 0.00383765 0.0265244 0.00531921 0.0346118 0.00570677 0.0317627 0.00933112 0.0400885
87 2 Si -1.09384 18.6291 47.9287 2.4 1 0.229965 0.0556443 0.0148423 0.0174922 0.00366725 0.0202098 0.00452423 0.0286593 0.0075877 0.0205723 0.0054627 0.0322583 0.00587915 0.0292116 0.00579691 0.0354654 0.00909462 0.0341993 0.0107094 0.0398239
88 3 O -1.02071 20.1985 47.9911 -1.2 1 0.23073 0.054857 0.0148278 0.0180235 0.00435352 0.0207943 0.0044161 0.0287824 0.00723057 0.0204192 0.00625806 0.0319315 0.00568955 0.0282217 0.00707259 0.0359515 0.00857039 0.0348827 0.0106624 0.0395437
89 3 O -1.65002 17.5002 51.771 -1.2 1 0.132094 0.0429998 0.00249178 0.0100198 0.00278707 0.0116712 0.00194815 0.0249538 0.00282589 0.0147704 0.00235677 0.0289359 0.0036977 0.024328 0.00395029 0.032546 0.00479116 0.0290221 0.00733825 0.0417555
90 3 O -2.26174 18.0434 48.8281 -1.2 1 0.204978 0.0553718 0.0100791 0.0150924 0.00399012 0.0171792 0.00427254 0.0278588 0.00576693 0.0202057 0.00410933 0.0311999 0.00424769 0.0280914 0.00532346 0.0354306 0.00728985 0.0334261 0.0097186 0.0394164
91 1 Mg -0.0440435 16.5651 46.8269 1.2 1 0.256943 0.0559569 0.0192005 0.0197448 0.00483862 0.0240005 0.0057928 0.0315938 0.00958664 0.0221626 0.00640437 0.0334467 0.00697136 0.0293369 0.00844259 0.035706 0.00979373 0.0358262 0.0121218 0.039028
92 3 O 0.37001 17.9877 48.3925 -1.2 1 0.211768 0.0546375 0.011312 0.015766 0.00346368 0.0180403 0.00351747 0.0283422 0.0060324 0.0198512 0.00387095 0.0309599 0.0049816 0.029192 0.00551882 0.0347235 0.00754372 0.0346216 0.0100307 0.0400489
93 1 Mg 1.34471 16.5039 54.5899 1.2 1 0.0708497 0.0322233 0.00295328 0.00613695 0.00172474 0.00813226 0.00237045 0.0232507 0.00227504 0.0116811 0.00208499 0.0278508 0.00296677 0.0227221 0.00316448 0.0323291 0.00391644 0.0261438 0.00562316 0.0441681
94 2 Si 1.34666 19.0564 56.4457 2.4 1 0.0311572 0.0197948 0.00560908 0.00604354 0.00142876 0.0069098 0.00185765 0.0226179 0.00206741 0.00917896 0.00311295 0.0264731 0.00244504 0.0212239 0.00345673 0.0315086 0.00405268 0.0254522 0.0059688 0.0480766
95 3 O 1.40056 17.535 56.4864 -1.2 1 0.0304118 0.019696 0.00551194 0.00573355 0.00138374 0.00640025 0.00245064 0.0226751 0.00261936 0.00900177 0.00188553 0.027119 0.00311969 0.0208368 0.0029397 0.0312181 0.00430301 0.0248552 0.00577547 0.0474463
96 3 O 1.45147 20.239 52.7294 -1.2 1 0.108137 0.0388765 0.000565438 0.00837514 0.00154787 0.0115151 0.00300451 0.0240871 0.00250514 0.0133096 0.00328223 0.0284259 0.00368158 0.0229019 0.00363566 0.0324761 0.00382875 0.0285488 0.00642294 0.0428152
97 3 O 0.0696937 19.7515 55.7705 -1.2 1 0.0456891 0.0251276 0.00520192 0.00594932 0.00139329 0.00695105 0.00191654 0.0232716 0.0018966 0.00955157 0.00230683 0.0272357 0.00263549 0.0214627 0.00349392 0.0320577 0.00391538 0.0263863 0.00542447 0.0466121
98 3 O 2.67459 19.8274 55.826 -1.2 1 0.0398167 0.0231049 0.00598635 0.00577512 0.0014661 0.00676584 0.0026112 0.0231985 0.0020954 0.00941815 0.00251198 0.0266566 0.00242098 0.0210496 0.00317498 0.0322117 0.00313322 0.0262161 0.00598853 0.0470849
99 1 Mg -0.126194 18.8651 52.2079 1.2 1 0.114241 0.0426846 0.000902674 0.00896181 0.00224506 0.00999863 0.00222214 0.0248187 0.00237415 0.014479 0.00271134 0.0289686 0.00298559 0.0239841 0.00336711 0.0328248 0.00406945 0.0293555 0.00687372 0.0419978
100 1 Mg 1.92402 18.5815 49.4545 1.2 1 0.182648 0.0547496 0.00597887 0.0127594 0.00207569 0.015072 0.00428615 0.0264778 0.00418319 0.0192663 0.00374489 0.030411 0.00430727 0.0277364 0.00467157 0.0352855 0.00582315 0.0330033 0.00949667 0.0401428
101 2 Si 1.38106 20.9117 51.2443 2.4 1 0.144456 0.0479034 0.00225962 0.010937 0.00216153 0.0134343 0.00369712 0.025545 0.0030733 0.0162799 0.00462765 0.0285277 0.00411112 0.0256341 0.00487514 0.033306 0.00356153 0.0311439 0.00850257 0.0420583
102 3 O 1.48527 22.4795 51.3054 -1.2 1 0.141407 0.0447128 0.00266222 0.0102704 0.00172098 0.0129283 0.00284563 0.0249318 0.00347773 0.0155441 0.00272969 0.0290022 0.00378937 0.0245388 0.00300249 0.0330512 0.00491585 0.0300776 0.0073849 0.0416616
103 3 O 1.3806 19.8456 57.9138 -1.2 1 0.016155 0.0114853 0.00402754 0.00521241 0.00124388 0.00653738 0.00188915 0.0227704 0.00202221 0.00881186 0.00269356 0.0267327 0.00236434 0.0201576 0.0030594 0.0314588 0.00297633 0.0250835 0.00449975 0.0474982
104 3 O 0.0615419 20.2804 50.6669 -1.2 1 0.152358 0.04774 0.00415911 0.011685 0.00310624 0.0135037 0.00391602 0.0258211 0.00332361 0.0160324 0.00307031 0.0294504 0.0038527 0.0259851 0.00451525 0.0334216 0.00388912 0.030903 0.00847598 0.0418689
105 1 Mg -3.09665 18.8643 52.3122 1.2 1 0.120382 0.0420584 0.00121526 0.00864747 0.00143968 0.0115705 0.00268877 0.0244973 0.00259603 0.0149096 0.00294312 0.0289038 0.00312884 0.0245025 0.00310122 0.0326437 0.00404963 0.0287365 0.00651789 0.0417061
106 3 O 2.61548 20.2646 50.4626 -1.2 1 0.158163 0.050015 0.00406871 0.0109142 0.00176119 0.014016 0.00351496 0.0259781 0.00308952 0.0177853 0.00321804 0.0294502 0.00371735 0.0268622 0.00410356 0.0337039 0.00477281 0.0310215 0.00800202 0.0411167
107 1 Mg -1.60564 19.0905 55.1989 1.2 1 0.0515086 0.0272249 0.00523157 0.00582504 0.00160921 0.0069043 0.00231145 0.0236732 0.00228136 0.0107287 0.00254779 0.027591 0.00232378 0.0217809 0.00382878 0.0319842 0.00405086 0.0264215 0.00573988 0.0452447
108 2 Si -1.62737 16.8515 53.2789 2.4 1 0.0964062 0.038651 0.00192352 0.00797595 0.00251988 0.008475 0.00179802 0.0237575 0.00329767 0.0131676 0.00229791 0.0279812 0.00296405 0.0236733 0.00338478 0.0326268 0.0049311 0.0280933 0.00612996 0.0438765
109 3 O -1.69771 15.2928 53.3868 -1.2 1 0.0924655 0.0362623 0.00187789 0.00713404 0.00227266 0.00856978 0.00154167 0.0233855 0.00312115 0.0120903 0.00264586 0.0279019 0.0024566 0.0225532 0.00356217 0.0324588 0.00384617 0.0268539 0.00669083 0.0434858
110 3 O -1.12868 18.1227 46.4249 -1.2 1 0.266746 0.055916 0.0208916 0.0208608 0.00533882 0.0240685 0.00594012 0.0325048 0.00836154 0.0220004 0.00590634 0.0337254 0.0066731 0.0274234 0.00810262 0.0372626 0.0115065 0.0371865 0.0122926 0.0391177
111 3 O -2.90004 17.519 53.9428 -1.2 1 0.0821166 0.0342661 0.00259644 0.00636027 0.00142353 0.00926911 0.00162761 0.0239291 0.00207908 0.0124841 0.00186346 0.0275792 0.00283798 0.0231442 0.00270158 0.0324438 0.00408777 0.0272817 0.00569899 0.0436956
112 3 O -0.327854 17.4567 53.7957 -1.2 1 0.0828286 0.0349721 0.00272627 0.00693313 0.00262942 0.00754711 0.00170794 0.0236135 0.0025901 0.012008 0.00250595 0.0273312 0.00306542 0.023691 0.00350764 0.0325354 0.00424669 0.0273951 0.00603278 0.044058
113 1 Mg -3.11753 26.0532 57.3463 1.2 1 0.0221643 0.0135383 0.00530384 0.00552682 0.00165197 0.00700162 0.00165836 0.0216041 0.00160355 0.00958811 0.0027543 0.0270187 0.00253758 0.0189987 0.0026358 0.030989 0.00399468 0.0257859 0.00543573 0.0461286
114 1 Mg -1.48778 25.88 49.8402 1.2 1 0.180039 0.0488771 0.00713382 0.0135389 0.00312184 0.0156474 0.00352343 0.0263817 0.00369472 0.0180867 0.0043386 0.030758 0.00381913 0.0256383 0.00586542 0.0340388 0.00628739 0.0312833 0.0096717 0.0400318
115 2 Si -1.00491 23.3922 47.9274 2.4 1 0.233487 0.0554914 0.0148758 0.0184041 0.00399863 0.0214544 0.00465999 0.0289304 0.00728522 0.0208236 0.00585894 0.0323909 0.00600199 0.0290932 0.00663988 0.0354978 0.00940934 0.0346353 0.0113156 0.0399864
116 3 O -0.927602 24.9615 47.9909 -1.2 1 0.229794 0.0538392 0.0140509 0.0180735 0.0042198 0.0212342 0.00431847 0.0287479 0.00679899 0.0203726 0.00640971 0.0317298 0.00531306 0.0283082 0.00731892 0.0357058 0.00876114 0.0347842 0.0109039 0.0398081
117 3 O -1.55795 22.2588 51.7696 -1.2 1 0.132561 0.0425204 0.0022827 0.0108847 0.0023969 0.0120088 0.0018464 0.0246197 0.00224782 0.0148267 0.00244585 0.0289873 0.00368452 0.0238287 0.00383584 0.0328659 0.00513108 0.029414 0.00754354 0.0421892
118 3 O -2.17411 22.8111 48.8277 -1.2 1 0.201952 0.0546201 0.00978025 0.0153716 0.00358608 0.0174403 0.00363008 0.0278452 0.0050228 0.0200121 0.00411828 0.0312491 0.00411469 0.0276778 0.00544408 0.0352389 0.00697661 0.0338668 0.00966331 0.0394647
119 1 Mg 0.0423997 21.3296 46.8225 1.2 1 0.254847 0.0561344 0.0189622 0.0204483 0.00502072 0.0247873 0.00591419 0.0319114 0.00842023 0.0222276 0.00678087 0.0336639 0.00676683 0.0294372 0.00805512 0.0361717 0.0095132 0.0372844 0.012035 0.0395816
120 3 O 0.458537 22.7495 48.3911 -1.2 1 0.210033 0.0544864 0.010842 0.0160775 0.00363033 0.0186027 0.00324589 0.0280705 0.00569315 0.0199248 0.00439116 0.0312543 0.00480674 0.0290819 0.00574755 0.0348008 0.00752101 0.034876 0.0100678 0.0405643