ITEM: TIMESTEP
134
ITEM: NUMBER OF ATOMS
756
ITEM: BOX BOUNDS pp pp pp
0.0000000000000000e+00 3.0595500000000001e+01
0.0000000000000000e+00 1.7937600000000000e+01
0.0000000000000000e+00 1.4247000000000000e+01
ITEM: ATOMS id type element xu yu zu q c_pe c_s[1] c_s[2] c_s[3] c_s[4] c_s[5] c_s[6]
1 1 Mg 5.291e-07 -5.95237e-07 -8.23413e-07 1.2 -8.09724 3.75101e+06 161513 -481398 -1.7026e+06 957704 1.40443e+06
2 1 Mg 7.37817 4.4844 4.67486 1.2 -8.62986 306865 2.87393e+06 2.14178e+06 1.05557e-06 -780171 1.71184e-06
3 2 Si 9.20425 4.4844 2.04303 2.4 -33.7244 1.0182e+07 8.64778e+06 6.28173e+06 5.42468e-06 -140396 7.84027e-06
4 3 O 9.28577 4.4844 3.59683 -1.2 -9.34654 -3.7129e+06 -4.01607e+06 -2.7102e+06 1.17572e-06 415692 -3.04685e-06
5 3 O 5.59811 4.4844 1.00633 -1.2 -8.90967 -4.41834e+06 -3.5292e+06 -2.92028e+06 -5.95696e-06 1.06661e+06 1.81988e-06
6 3 O 8.54715 5.76202 1.35348 -1.2 -8.8718 -3.64008e+06 -2.93283e+06 -3.43824e+06 582533 214957 -817765
7 1 Mg 7.75795e-07 2.9896 -8.95313e-07 1.2 -8.09724 3.75101e+06 161504 -481395 1.7026e+06 957705 -1.40443e+06
8 3 O 8.54715 3.20677 1.35348 -1.2 -8.8718 -3.64008e+06 -2.93283e+06 -3.43824e+06 -582533 214957 817765
9 1 Mg 2.82033 1.4948 0.0741429 1.2 -8.62985 306860 2.87397e+06 2.14178e+06 0.00859703 -780171 -0.254189
10 2 Si 0.994253 1.4948 2.70597 2.4 -33.7244 1.0182e+07 8.64785e+06 6.28173e+06 -1.16698 -140397 -0.964645
11 3 O 0.912732 1.4948 1.15216 -1.2 -9.34654 -3.7129e+06 -4.0161e+06 -2.7102e+06 0.554206 415691 -0.181484
12 3 O 4.6004 1.4948 3.74267 -1.2 -8.90967 -4.41833e+06 -3.52924e+06 -2.92028e+06 0.837282 1.06661e+06 -0.266399
13 3 O 1.65135 2.77242 3.39552 -1.2 -8.8718 -3.64008e+06 -2.93285e+06 -3.43824e+06 -582534 214958 817765
14 3 O 1.65135 0.217174 3.39552 -1.2 -8.8718 -3.64008e+06 -2.93285e+06 -3.43824e+06 582534 214958 -817766
15 1 Mg 5.09925 2.9896 2.3745 1.2 -8.09724 3.75096e+06 161511 -481382 1.7026e+06 -957699 1.40443e+06
16 1 Mg 7.91958 1.4948 2.30036 1.2 -8.62985 306889 2.87396e+06 2.14178e+06 0.00872306 780173 0.254162
17 2 Si 6.0935 1.4948 4.41753 2.4 -33.7244 1.0182e+07 8.64786e+06 6.28171e+06 -1.16732 140392 0.964667
18 3 O 6.01198 1.4948 5.97133 -1.2 -9.34653 -3.71285e+06 -4.01611e+06 -2.71022e+06 0.554419 -415691 0.181512
19 3 O -0.498854 1.4948 3.38083 -1.2 -8.90967 -4.41833e+06 -3.52923e+06 -2.92027e+06 0.837137 -1.06661e+06 0.266368
20 3 O 6.7506 2.77242 3.72798 -1.2 -8.8718 -3.64004e+06 -2.93286e+06 -3.43824e+06 -582530 -214958 -817765
21 1 Mg 5.09925 5.9792 2.3745 1.2 -8.09724 3.75096e+06 161511 -481382 -1.7026e+06 -957699 -1.40443e+06
22 3 O 6.7506 0.217174 3.72798 -1.2 -8.8718 -3.64004e+06 -2.93286e+06 -3.43823e+06 582529 -214958 817765
23 1 Mg 2.27892 4.4844 2.44864 1.2 -8.62985 306894 2.87392e+06 2.14178e+06 -1.4376e-06 780173 -3.02471e-06
24 2 Si 4.105 4.4844 0.331466 2.4 -33.7244 1.0182e+07 8.64779e+06 6.28172e+06 1.19471e-05 140391 -8.10823e-06
25 3 O 4.18652 4.4844 -1.22234 -1.2 -9.34653 -3.71285e+06 -4.01608e+06 -2.71022e+06 -1.23107e-05 -415692 -3.89885e-06
26 3 O 10.6974 4.4844 1.36817 -1.2 -8.90967 -4.41833e+06 -3.52919e+06 -2.92027e+06 -1.09221e-05 -1.0666e+06 -1.03641e-06
27 3 O 3.4479 5.76202 1.02102 -1.2 -8.87179 -3.64004e+06 -2.93284e+06 -3.43824e+06 582529 -214957 817765
28 3 O 3.4479 3.20677 1.02102 -1.2 -8.87179 -3.64004e+06 -2.93284e+06 -3.43824e+06 -582529 -214957 -817765
29 1 Mg 10.1985 -5.95238e-07 -8.23414e-07 1.2 -8.09724 3.75101e+06 161513 -481398 -1.7026e+06 957704 1.40443e+06
30 1 Mg 17.5767 4.4844 4.67486 1.2 -8.62986 306865 2.87393e+06 2.14178e+06 8.10053e-07 -780171 1.71349e-06
31 2 Si 19.4027 4.4844 2.04303 2.4 -33.7244 1.0182e+07 8.64778e+06 6.28173e+06 5.79507e-06 -140396 6.46021e-06
32 3 O 19.4843 4.4844 3.59683 -1.2 -9.34654 -3.7129e+06 -4.01607e+06 -2.7102e+06 -1.82186e-06 415692 -1.37994e-06
33 3 O 15.7966 4.4844 1.00633 -1.2 -8.90967 -4.41834e+06 -3.5292e+06 -2.92028e+06 -8.66903e-06 1.06661e+06 1.39565e-06
34 3 O 18.7457 5.76202 1.35348 -1.2 -8.8718 -3.64008e+06 -2.93283e+06 -3.43824e+06 582533 214957 -817765
35 1 Mg 10.1985 2.9896 -8.95313e-07 1.2 -8.09724 3.75101e+06 161504 -481395 1.7026e+06 957705 -1.40443e+06
36 3 O 18.7457 3.20677 1.35348 -1.2 -8.8718 -3.64008e+06 -2.93283e+06 -3.43824e+06 -582533 214957 817765
37 1 Mg 13.0188 1.4948 0.0741429 1.2 -8.62985 306860 2.87397e+06 2.14178e+06 0.0085998 -780171 -0.254187
38 2 Si 11.1928 1.4948 2.70597 2.4 -33.7244 1.0182e+07 8.64785e+06 6.28173e+06 -1.16698 -140397 -0.964646
39 3 O 11.1112 1.4948 1.15216 -1.2 -9.34654 -3.7129e+06 -4.0161e+06 -2.7102e+06 0.55421 415691 -0.181483
40 3 O 14.7989 1.4948 3.74267 -1.2 -8.90967 -4.41833e+06 -3.52924e+06 -2.92028e+06 0.837275 1.06661e+06 -0.266395
41 3 O 11.8498 2.77242 3.39552 -1.2 -8.8718 -3.64008e+06 -2.93285e+06 -3.43824e+06 -582534 214958 817765
42 3 O 11.8498 0.217174 3.39552 -1.2 -8.8718 -3.64008e+06 -2.93285e+06 -3.43824e+06 582534 214958 -817766
43 1 Mg 15.2978 2.9896 2.3745 1.2 -8.09724 3.75096e+06 161511 -481382 1.7026e+06 -957699 1.40443e+06
44 1 Mg 18.1181 1.4948 2.30036 1.2 -8.62985 306889 2.87396e+06 2.14178e+06 0.00871888 780173 0.254162
45 2 Si 16.292 1.4948 4.41753 2.4 -33.7244 1.0182e+07 8.64786e+06 6.28171e+06 -1.16732 140392 0.964663
46 3 O 16.2105 1.4948 5.97133 -1.2 -9.34653 -3.71285e+06 -4.01611e+06 -2.71022e+06 0.554413 -415691 0.181518
47 3 O 9.69965 1.4948 3.38083 -1.2 -8.90967 -4.41833e+06 -3.52923e+06 -2.92027e+06 0.837139 -1.06661e+06 0.26637
48 3 O 16.9491 2.77242 3.72798 -1.2 -8.8718 -3.64004e+06 -2.93286e+06 -3.43824e+06 -582530 -214958 -817765
49 1 Mg 15.2978 5.9792 2.3745 1.2 -8.09724 3.75096e+06 161511 -481382 -1.7026e+06 -957699 -1.40443e+06
50 3 O 16.9491 0.217174 3.72798 -1.2 -8.8718 -3.64004e+06 -2.93286e+06 -3.43823e+06 582529 -214958 817765
51 1 Mg 12.4774 4.4844 2.44864 1.2 -8.62985 306894 2.87392e+06 2.14178e+06 -1.6704e-06 780173 -3.37014e-06
52 2 Si 14.3035 4.4844 0.331466 2.4 -33.7244 1.0182e+07 8.64779e+06 6.28172e+06 1.08485e-05 140391 -9.26776e-06
53 3 O 14.385 4.4844 -1.22234 -1.2 -9.34653 -3.71285e+06 -4.01608e+06 -2.71022e+06 -8.168e-06 -415692 -4.78179e-07
54 3 O 20.8959 4.4844 1.36817 -1.2 -8.90967 -4.41833e+06 -3.52919e+06 -2.92027e+06 -1.23015e-05 -1.0666e+06 -3.64463e-07
55 3 O 13.6464 5.76202 1.02102 -1.2 -8.87179 -3.64004e+06 -2.93284e+06 -3.43824e+06 582529 -214957 817765
56 3 O 13.6464 3.20677 1.02102 -1.2 -8.87179 -3.64004e+06 -2.93284e+06 -3.43824e+06 -582529 -214957 -817765
57 1 Mg 20.397 -5.95238e-07 -8.23414e-07 1.2 -8.09724 3.75101e+06 161513 -481398 -1.7026e+06 957704 1.40443e+06
58 1 Mg 27.7752 4.4844 4.67486 1.2 -8.62986 306865 2.87393e+06 2.14178e+06 3.10964e-06 -780171 8.99453e-07
59 2 Si 29.6012 4.4844 2.04303 2.4 -33.7244 1.0182e+07 8.64778e+06 6.28173e+06 4.55437e-06 -140396 4.83115e-06
60 3 O 29.6828 4.4844 3.59683 -1.2 -9.34654 -3.7129e+06 -4.01607e+06 -2.7102e+06 2.88019e-06 415692 -3.81849e-06
61 3 O 25.9951 4.4844 1.00633 -1.2 -8.90967 -4.41834e+06 -3.5292e+06 -2.92028e+06 -4.88035e-06 1.06661e+06 -1.13166e-07
62 3 O 28.9442 5.76202 1.35348 -1.2 -8.8718 -3.64008e+06 -2.93283e+06 -3.43824e+06 582533 214957 -817765
63 1 Mg 20.397 2.9896 -8.95312e-07 1.2 -8.09724 3.75101e+06 161504 -481395 1.7026e+06 957705 -1.40443e+06
64 3 O 28.9442 3.20677 1.35348 -1.2 -8.8718 -3.64008e+06 -2.93283e+06 -3.43824e+06 -582533 214957 817765
65 1 Mg 23.2173 1.4948 0.0741429 1.2 -8.62985 306860 2.87397e+06 2.14178e+06 0.00859726 -780171 -0.254187
66 2 Si 21.3913 1.4948 2.70597 2.4 -33.7244 1.0182e+07 8.64785e+06 6.28173e+06 -1.16699 -140397 -0.964646
67 3 O 21.3097 1.4948 1.15216 -1.2 -9.34654 -3.7129e+06 -4.0161e+06 -2.7102e+06 0.554211 415691 -0.181477
68 3 O 24.9974 1.4948 3.74267 -1.2 -8.90967 -4.41833e+06 -3.52924e+06 -2.92028e+06 0.837275 1.06661e+06 -0.266392
69 3 O 22.0483 2.77242 3.39552 -1.2 -8.8718 -3.64008e+06 -2.93285e+06 -3.43824e+06 -582534 214958 817765
70 3 O 22.0483 0.217174 3.39552 -1.2 -8.8718 -3.64008e+06 -2.93285e+06 -3.43824e+06 582534 214958 -817766
71 1 Mg 25.4963 2.9896 2.3745 1.2 -8.09724 3.75096e+06 161511 -481382 1.7026e+06 -957699 1.40443e+06
72 1 Mg 28.3166 1.4948 2.30036 1.2 -8.62985 306889 2.87396e+06 2.14178e+06 0.00872055 780173 0.254161
73 2 Si 26.4905 1.4948 4.41753 2.4 -33.7244 1.0182e+07 8.64786e+06 6.28171e+06 -1.16732 140392 0.964666
74 3 O 26.409 1.4948 5.97133 -1.2 -9.34653 -3.71285e+06 -4.01611e+06 -2.71022e+06 0.554417 -415691 0.181515
75 3 O 19.8981 1.4948 3.38083 -1.2 -8.90967 -4.41833e+06 -3.52923e+06 -2.92027e+06 0.837141 -1.06661e+06 0.266371
76 3 O 27.1476 2.77242 3.72798 -1.2 -8.8718 -3.64004e+06 -2.93286e+06 -3.43824e+06 -582530 -214958 -817765
77 1 Mg 25.4963 5.9792 2.3745 1.2 -8.09724 3.75096e+06 161511 -481382 -1.7026e+06 -957699 -1.40443e+06
78 3 O 27.1476 0.217174 3.72798 -1.2 -8.8718 -3.64004e+06 -2.93286e+06 -3.43823e+06 582529 -214958 817765
79 1 Mg 22.6759 4.4844 2.44864 1.2 -8.62985 306894 2.87392e+06 2.14178e+06 -7.14326e-07 780173 -4.063e-06
80 2 Si 24.502 4.4844 0.331466 2.4 -33.7244 1.0182e+07 8.64779e+06 6.28172e+06 1.07066e-05 140391 -7.45515e-06
81 3 O 24.5835 4.4844 -1.22234 -1.2 -9.34653 -3.71285e+06 -4.01608e+06 -2.71022e+06 -9.97662e-06 -415692 -7.63377e-07
82 3 O 31.0944 4.4844 1.36817 -1.2 -8.90967 -4.41833e+06 -3.52919e+06 -2.92027e+06 -8.69669e-06 -1.0666e+06 -6.04961e-07
83 3 O 23.8449 5.76202 1.02102 -1.2 -8.87179 -3.64004e+06 -2.93284e+06 -3.43824e+06 582529 -214957 817765
84 3 O 23.8449 3.20677 1.02102 -1.2 -8.87179 -3.64004e+06 -2.93284e+06 -3.43824e+06 -582529 -214957 -817765
85 1 Mg 7.75793e-07 5.9792 -8.95313e-07 1.2 -8.09724 3.75101e+06 161504 -481395 -1.7026e+06 957705 1.40443e+06
86 1 Mg 7.37817 10.4636 4.67486 1.2 -8.62985 306860 2.87397e+06 2.14178e+06 -0.00859753 -780171 0.254188
87 2 Si 9.20425 10.4636 2.04303 2.4 -33.7244 1.0182e+07 8.64785e+06 6.28173e+06 1.16698 -140397 0.964648
88 3 O 9.28577 10.4636 3.59683 -1.2 -9.34654 -3.7129e+06 -4.0161e+06 -2.7102e+06 -0.554207 415691 0.181487
89 3 O 5.5981 10.4636 1.00633 -1.2 -8.90967 -4.41833e+06 -3.52924e+06 -2.92028e+06 -0.837282 1.06661e+06 0.266398
90 3 O 8.54715 11.7412 1.35348 -1.2 -8.8718 -3.64008e+06 -2.93285e+06 -3.43824e+06 582534 214958 -817765
91 1 Mg 5.29097e-07 8.9688 -8.23413e-07 1.2 -8.09724 3.75101e+06 161513 -481398 1.7026e+06 957704 -1.40443e+06
92 3 O 8.54715 9.18597 1.35348 -1.2 -8.8718 -3.64008e+06 -2.93285e+06 -3.43824e+06 -582534 214958 817766
93 1 Mg 2.82033 7.474 0.0741429 1.2 -8.62985 306860 2.87397e+06 2.14178e+06 -0.00860057 -780171 0.254192
94 2 Si 0.994253 7.474 2.70597 2.4 -33.7244 1.0182e+07 8.64785e+06 6.28173e+06 1.167 -140397 0.964656
95 3 O 0.912732 7.474 1.15216 -1.2 -9.34654 -3.7129e+06 -4.0161e+06 -2.7102e+06 -0.554228 415691 0.181492
96 3 O 4.6004 7.474 3.74267 -1.2 -8.90967 -4.41833e+06 -3.52924e+06 -2.92028e+06 -0.837291 1.06661e+06 0.266397
97 3 O 1.65135 8.75162 3.39552 -1.2 -8.8718 -3.64008e+06 -2.93285e+06 -3.43824e+06 -582534 214958 817766
98 3 O 1.65135 6.19637 3.39552 -1.2 -8.8718 -3.64008e+06 -2.93285e+06 -3.43824e+06 582534 214958 -817765
99 1 Mg 5.09925 8.9688 2.3745 1.2 -8.09724 3.75096e+06 161520 -481385 1.7026e+06 -957698 1.40443e+06
100 1 Mg 7.91958 7.474 2.30036 1.2 -8.62985 306889 2.87396e+06 2.14178e+06 -0.00871873 780173 -0.254164
101 2 Si 6.0935 7.474 4.41753 2.4 -33.7244 1.0182e+07 8.64786e+06 6.28171e+06 1.16732 140392 -0.964671
102 3 O 6.01198 7.474 5.97133 -1.2 -9.34653 -3.71285e+06 -4.01611e+06 -2.71022e+06 -0.554409 -415691 -0.181513
103 3 O -0.498854 7.474 3.38083 -1.2 -8.90967 -4.41833e+06 -3.52923e+06 -2.92027e+06 -0.837142 -1.06661e+06 -0.266372
104 3 O 6.7506 8.75162 3.72798 -1.2 -8.8718 -3.64004e+06 -2.93286e+06 -3.43823e+06 -582529 -214958 -817765
105 1 Mg 5.09925 11.9584 2.3745 1.2 -8.09724 3.75096e+06 161511 -481382 -1.7026e+06 -957699 -1.40443e+06
106 3 O 6.7506 6.19637 3.72798 -1.2 -8.8718 -3.64004e+06 -2.93286e+06 -3.43824e+06 582530 -214958 817765
107 1 Mg 2.27892 10.4636 2.44864 1.2 -8.62985 306889 2.87396e+06 2.14178e+06 -0.00872138 780173 -0.254162
108 2 Si 4.105 10.4636 0.331466 2.4 -33.7244 1.0182e+07 8.64786e+06 6.28171e+06 1.16732 140392 -0.964665
109 3 O 4.18652 10.4636 -1.22234 -1.2 -9.34653 -3.71285e+06 -4.01611e+06 -2.71022e+06 -0.55442 -415691 -0.181515
110 3 O 10.6974 10.4636 1.36817 -1.2 -8.90967 -4.41833e+06 -3.52923e+06 -2.92027e+06 -0.837135 -1.06661e+06 -0.266369
111 3 O 3.4479 11.7412 1.02102 -1.2 -8.8718 -3.64004e+06 -2.93286e+06 -3.43824e+06 582530 -214958 817765
112 3 O 3.4479 9.18597 1.02102 -1.2 -8.8718 -3.64004e+06 -2.93286e+06 -3.43823e+06 -582529 -214958 -817765
113 1 Mg 10.1985 5.9792 -8.95313e-07 1.2 -8.09724 3.75101e+06 161504 -481395 -1.7026e+06 957705 1.40443e+06
114 1 Mg 17.5767 10.4636 4.67486 1.2 -8.62985 306860 2.87397e+06 2.14178e+06 -0.00859876 -780171 0.254189
115 2 Si 19.4027 10.4636 2.04303 2.4 -33.7244 1.0182e+07 8.64785e+06 6.28173e+06 1.16699 -140397 0.964651
116 3 O 19.4843 10.4636 3.59683 -1.2 -9.34654 -3.7129e+06 -4.0161e+06 -2.7102e+06 -0.554213 415691 0.181481
117 3 O 15.7966 10.4636 1.00633 -1.2 -8.90967 -4.41833e+06 -3.52924e+06 -2.92028e+06 -0.837276 1.06661e+06 0.266393
118 3 O 18.7457 11.7412 1.35348 -1.2 -8.8718 -3.64008e+06 -2.93285e+06 -3.43824e+06 582534 214958 -817765
119 1 Mg 10.1985 8.9688 -8.23413e-07 1.2 -8.09724 3.75101e+06 161513 -481398 1.7026e+06 957704 -1.40443e+06
120 3 O 18.7457 9.18597 1.35348 -1.2 -8.8718 -3.64008e+06 -2.93285e+06 -3.43824e+06 -582534 214958 817766
121 1 Mg 13.0188 7.474 0.0741429 1.2 -8.62985 306860 2.87397e+06 2.14178e+06 -0.00859959 -780171 0.25419
122 2 Si 11.1928 7.474 2.70597 2.4 -33.7244 1.0182e+07 8.64785e+06 6.28173e+06 1.167 -140397 0.964653
123 3 O 11.1112 7.474 1.15216 -1.2 -9.34654 -3.7129e+06 -4.0161e+06 -2.7102e+06 -0.554225 415691 0.18149
124 3 O 14.7989 7.474 3.74267 -1.2 -8.90967 -4.41833e+06 -3.52924e+06 -2.92028e+06 -0.837286 1.06661e+06 0.266398
125 3 O 11.8498 8.75162 3.39552 -1.2 -8.8718 -3.64008e+06 -2.93285e+06 -3.43824e+06 -582534 214958 817766
126 3 O 11.8498 6.19637 3.39552 -1.2 -8.8718 -3.64008e+06 -2.93285e+06 -3.43824e+06 582534 214958 -817765
127 1 Mg 15.2978 8.9688 2.3745 1.2 -8.09724 3.75096e+06 161520 -481385 1.7026e+06 -957698 1.40443e+06
128 1 Mg 18.1181 7.474 2.30036 1.2 -8.62985 306889 2.87396e+06 2.14178e+06 -0.00871749 780173 -0.254164
129 2 Si 16.292 7.474 4.41753 2.4 -33.7244 1.0182e+07 8.64786e+06 6.28171e+06 1.16733 140392 -0.964671
130 3 O 16.2105 7.474 5.97133 -1.2 -9.34653 -3.71285e+06 -4.01611e+06 -2.71022e+06 -0.55441 -415691 -0.18152
131 3 O 9.69965 7.474 3.38083 -1.2 -8.90967 -4.41833e+06 -3.52923e+06 -2.92027e+06 -0.837142 -1.06661e+06 -0.266374
132 3 O 16.9491 8.75162 3.72798 -1.2 -8.8718 -3.64004e+06 -2.93286e+06 -3.43823e+06 -582529 -214958 -817765
133 1 Mg 15.2978 11.9584 2.3745 1.2 -8.09724 3.75096e+06 161511 -481382 -1.7026e+06 -957699 -1.40443e+06
134 3 O 16.9491 6.19637 3.72798 -1.2 -8.8718 -3.64004e+06 -2.93286e+06 -3.43824e+06 582530 -214958 817765
135 1 Mg 12.4774 10.4636 2.44864 1.2 -8.62985 306889 2.87396e+06 2.14178e+06 -0.00871955 780173 -0.254161
136 2 Si 14.3035 10.4636 0.331466 2.4 -33.7244 1.0182e+07 8.64786e+06 6.28171e+06 1.16732 140392 -0.964668
137 3 O 14.385 10.4636 -1.22234 -1.2 -9.34653 -3.71285e+06 -4.01611e+06 -2.71022e+06 -0.554413 -415691 -0.181515
138 3 O 20.8959 10.4636 1.36817 -1.2 -8.90967 -4.41833e+06 -3.52923e+06 -2.92027e+06 -0.837143 -1.06661e+06 -0.266373
139 3 O 13.6464 11.7412 1.02102 -1.2 -8.8718 -3.64004e+06 -2.93286e+06 -3.43824e+06 582530 -214958 817765
140 3 O 13.6464 9.18597 1.02102 -1.2 -8.8718 -3.64004e+06 -2.93286e+06 -3.43823e+06 -582529 -214958 -817765
141 1 Mg 20.397 5.9792 -8.95312e-07 1.2 -8.09724 3.75101e+06 161504 -481395 -1.7026e+06 957705 1.40443e+06
142 1 Mg 27.7752 10.4636 4.67486 1.2 -8.62985 306860 2.87397e+06 2.14178e+06 -0.008598 -780171 0.254188
143 2 Si 29.6012 10.4636 2.04303 2.4 -33.7244 1.0182e+07 8.64785e+06 6.28173e+06 1.16698 -140397 0.964649
144 3 O 29.6828 10.4636 3.59683 -1.2 -9.34654 -3.7129e+06 -4.0161e+06 -2.7102e+06 -0.554206 415691 0.181485
145 3 O 25.9951 10.4636 1.00633 -1.2 -8.90967 -4.41833e+06 -3.52924e+06 -2.92028e+06 -0.837278 1.06661e+06 0.266397
146 3 O 28.9442 11.7412 1.35348 -1.2 -8.8718 -3.64008e+06 -2.93285e+06 -3.43824e+06 582534 214958 -817765
147 1 Mg 20.397 8.9688 -8.23413e-07 1.2 -8.09724 3.75101e+06 161513 -481398 1.7026e+06 957704 -1.40443e+06
148 3 O 28.9442 9.18597 1.35348 -1.2 -8.8718 -3.64008e+06 -2.93285e+06 -3.43824e+06 -582534 214958 817766
149 1 Mg 23.2173 7.474 0.0741429 1.2 -8.62985 306860 2.87397e+06 2.14178e+06 -0.00859899 -780171 0.25419
150 2 Si 21.3913 7.474 2.70597 2.4 -33.7244 1.0182e+07 8.64785e+06 6.28173e+06 1.167 -140397 0.964654
151 3 O 21.3097 7.474 1.15216 -1.2 -9.34654 -3.7129e+06 -4.0161e+06 -2.7102e+06 -0.554229 415691 0.181485
152 3 O 24.9974 7.474 3.74267 -1.2 -8.90967 -4.41833e+06 -3.52924e+06 -2.92028e+06 -0.837283 1.06661e+06 0.266394
153 3 O 22.0483 8.75162 3.39552 -1.2 -8.8718 -3.64008e+06 -2.93285e+06 -3.43824e+06 -582534 214958 817766
154 3 O 22.0483 6.19637 3.39552 -1.2 -8.8718 -3.64008e+06 -2.93285e+06 -3.43824e+06 582534 214958 -817765
155 1 Mg 25.4963 8.9688 2.3745 1.2 -8.09724 3.75096e+06 161520 -481385 1.7026e+06 -957698 1.40443e+06
156 1 Mg 28.3166 7.474 2.30036 1.2 -8.62985 306889 2.87396e+06 2.14178e+06 -0.00871669 780173 -0.254163
157 2 Si 26.4905 7.474 4.41753 2.4 -33.7244 1.0182e+07 8.64786e+06 6.28171e+06 1.16732 140392 -0.964673
158 3 O 26.409 7.474 5.97133 -1.2 -9.34653 -3.71285e+06 -4.01611e+06 -2.71022e+06 -0.554405 -415691 -0.181515
159 3 O 19.8981 7.474 3.38083 -1.2 -8.90967 -4.41833e+06 -3.52923e+06 -2.92027e+06 -0.837147 -1.06661e+06 -0.266375
160 3 O 27.1476 8.75162 3.72798 -1.2 -8.8718 -3.64004e+06 -2.93286e+06 -3.43823e+06 -582529 -214958 -817765
161 1 Mg 25.4963 11.9584 2.3745 1.2 -8.09724 3.75096e+06 161511 -481382 -1.7026e+06 -957699 -1.40443e+06
162 3 O 27.1476 6.19637 3.72798 -1.2 -8.8718 -3.64004e+06 -2.93286e+06 -3.43824e+06 582530 -214958 817765
163 1 Mg 22.6759 10.4636 2.44864 1.2 -8.62985 306889 2.87396e+06 2.14178e+06 -0.00872019 780173 -0.25416
164 2 Si 24.502 10.4636 0.331466 2.4 -33.7244 1.0182e+07 8.64786e+06 6.28171e+06 1.16732 140392 -0.964668
165 3 O 24.5835 10.4636 -1.22234 -1.2 -9.34653 -3.71285e+06 -4.01611e+06 -2.71022e+06 -0.554417 -415691 -0.181518
166 3 O 31.0944 10.4636 1.36817 -1.2 -8.90967 -4.41833e+06 -3.52923e+06 -2.92027e+06 -0.837137 -1.06661e+06 -0.26637
167 3 O 23.8449 11.7412 1.02102 -1.2 -8.8718 -3.64004e+06 -2.93286e+06 -3.43824e+06 582530 -214958 817765
168 3 O 23.8449 9.18597 1.02102 -1.2 -8.8718 -3.64004e+06 -2.93286e+06 -3.43823e+06 -582529 -214958 -817765
169 1 Mg 2.82402e-07 11.9584 -7.51513e-07 1.2 -8.09724 3.75101e+06 161504 -481395 -1.7026e+06 957705 1.40443e+06
170 1 Mg 7.37817 16.4428 4.67486 1.2 -8.62985 306860 2.87397e+06 2.14178e+06 0.0085998 -780171 -0.254192
171 2 Si 9.20425 16.4428 2.04303 2.4 -33.7244 1.0182e+07 8.64785e+06 6.28173e+06 -1.167 -140397 -0.964657
172 3 O 9.28577 16.4428 3.59683 -1.2 -9.34654 -3.7129e+06 -4.0161e+06 -2.7102e+06 0.554226 415691 -0.181493
173 3 O 5.5981 16.4428 1.00633 -1.2 -8.90967 -4.41833e+06 -3.52924e+06 -2.92028e+06 0.837291 1.06661e+06 -0.266399
174 3 O 8.54715 17.7204 1.35348 -1.2 -8.8718 -3.64008e+06 -2.93285e+06 -3.43824e+06 582534 214958 -817766
175 1 Mg 2.82405e-07 14.948 -7.51513e-07 1.2 -8.09724 3.75101e+06 161504 -481395 1.7026e+06 957705 -1.40443e+06
176 3 O 8.54715 15.1652 1.35348 -1.2 -8.8718 -3.64008e+06 -2.93285e+06 -3.43824e+06 -582534 214958 817765
177 1 Mg 2.82033 13.4532 0.0741431 1.2 -8.62986 306865 2.87393e+06 2.14178e+06 -3.13509e-06 -780171 -1.10622e-06
178 2 Si 0.994253 13.4532 2.70597 2.4 -33.7244 1.0182e+07 8.64778e+06 6.28173e+06 -3.35405e-06 -140396 -5.43593e-06
179 3 O 0.912732 13.4532 1.15216 -1.2 -9.34654 -3.7129e+06 -4.01607e+06 -2.7102e+06 -3.09222e-06 415692 3.97965e-06
180 3 O 4.6004 13.4532 3.74267 -1.2 -8.90967 -4.41834e+06 -3.5292e+06 -2.92028e+06 5.00247e-06 1.06661e+06 1.09228e-07
181 3 O 1.65135 14.7308 3.39552 -1.2 -8.8718 -3.64008e+06 -2.93283e+06 -3.43824e+06 -582533 214957 817765
182 3 O 1.65135 12.1756 3.39552 -1.2 -8.8718 -3.64008e+06 -2.93283e+06 -3.43824e+06 582533 214957 -817765
183 1 Mg 5.09925 14.948 2.3745 1.2 -8.09724 3.75096e+06 161511 -481382 1.7026e+06 -957699 1.40443e+06
184 1 Mg 7.91958 13.4532 2.30036 1.2 -8.62985 306894 2.87392e+06 2.14178e+06 4.3653e-07 780173 3.15733e-06
185 2 Si 6.0935 13.4532 4.41753 2.4 -33.7244 1.0182e+07 8.64779e+06 6.28172e+06 -9.79468e-06 140391 7.3321e-06
186 3 O 6.01198 13.4532 5.97133 -1.2 -9.34653 -3.71285e+06 -4.01608e+06 -2.71022e+06 1.00077e-05 -415692 7.93902e-07
187 3 O -0.498854 13.4532 3.38083 -1.2 -8.90967 -4.41833e+06 -3.52919e+06 -2.92027e+06 8.88057e-06 -1.0666e+06 8.55969e-07
188 3 O 6.7506 14.7308 3.72798 -1.2 -8.87179 -3.64004e+06 -2.93284e+06 -3.43824e+06 -582529 -214957 -817765
189 1 Mg 5.09925 17.9376 2.3745 1.2 -8.09724 3.75096e+06 161520 -481385 -1.7026e+06 -957698 -1.40443e+06
190 3 O 6.7506 12.1756 3.72798 -1.2 -8.87179 -3.64004e+06 -2.93284e+06 -3.43824e+06 582529 -214957 817765
191 1 Mg 2.27892 16.4428 2.44864 1.2 -8.62985 306889 2.87396e+06 2.14178e+06 0.00871817 780173 0.254164
192 2 Si 4.105 16.4428 0.331466 2.4 -33.7244 1.0182e+07 8.64786e+06 6.28171e+06 -1.16732 140392 0.96467
193 3 O 4.18652 16.4428 -1.22234 -1.2 -9.34653 -3.71285e+06 -4.01611e+06 -2.71022e+06 0.554409 -415691 0.181513
194 3 O 10.6974 16.4428 1.36817 -1.2 -8.90967 -4.41833e+06 -3.52923e+06 -2.92027e+06 0.837143 -1.06661e+06 0.266374
195 3 O 3.4479 17.7204 1.02102 -1.2 -8.8718 -3.64004e+06 -2.93286e+06 -3.43823e+06 582529 -214958 817765
196 3 O 3.4479 15.1652 1.02102 -1.2 -8.8718 -3.64004e+06 -2.93286e+06 -3.43824e+06 -582530 -214958 -817765
197 1 Mg 10.1985 11.9584 -7.51513e-07 1.2 -8.09724 3.75101e+06 161504 -481395 -1.7026e+06 957705 1.40443e+06
198 1 Mg 17.5767 16.4428 4.67486 1.2 -8.62985 306860 2.87397e+06 2.14178e+06 0.00859931 -780171 -0.254192
199 2 Si 19.4027 16.4428 2.04303 2.4 -33.7244 1.0182e+07 8.64785e+06 6.28173e+06 -1.167 -140397 -0.964657
200 3 O 19.4843 16.4428 3.59683 -1.2 -9.34654 -3.7129e+06 -4.0161e+06 -2.7102e+06 0.554229 415691 -0.181486
201 3 O 15.7966 16.4428 1.00633 -1.2 -8.90967 -4.41833e+06 -3.52924e+06 -2.92028e+06 0.837289 1.06661e+06 -0.266397
202 3 O 18.7457 17.7204 1.35348 -1.2 -8.8718 -3.64008e+06 -2.93285e+06 -3.43824e+06 582534 214958 -817766
203 1 Mg 10.1985 14.948 -7.51513e-07 1.2 -8.09724 3.75101e+06 161504 -481395 1.7026e+06 957705 -1.40443e+06
204 3 O 18.7457 15.1652 1.35348 -1.2 -8.8718 -3.64008e+06 -2.93285e+06 -3.43824e+06 -582534 214958 817765
205 1 Mg 13.0188 13.4532 0.0741431 1.2 -8.62986 306865 2.87393e+06 2.14178e+06 -1.38372e-06 -780171 -1.39733e-06
206 2 Si 11.1928 13.4532 2.70597 2.4 -33.7244 1.0182e+07 8.64778e+06 6.28173e+06 -4.04995e-06 -140396 -8.0167e-06
207 3 O 11.1112 13.4532 1.15216 -1.2 -9.34654 -3.7129e+06 -4.01607e+06 -2.7102e+06 1.77876e-06 415692 1.83673e-06
208 3 O 14.7989 13.4532 3.74267 -1.2 -8.90967 -4.41834e+06 -3.5292e+06 -2.92028e+06 8.52693e-06 1.06661e+06 -1.53242e-06
209 3 O 11.8498 14.7308 3.39552 -1.2 -8.8718 -3.64008e+06 -2.93283e+06 -3.43824e+06 -582533 214957 817765
210 3 O 11.8498 12.1756 3.39552 -1.2 -8.8718 -3.64008e+06 -2.93283e+06 -3.43824e+06 582533 214957 -817765
211 1 Mg 15.2978 14.948 2.3745 1.2 -8.09724 3.75096e+06 161511 -481382 1.7026e+06 -957699 1.40443e+06
212 1 Mg 18.1181 13.4532 2.30036 1.2 -8.62985 306894 2.87392e+06 2.14178e+06 1.21788e-06 780173 3.86278e-06
213 2 Si 16.292 13.4532 4.41753 2.4 -33.7244 1.0182e+07 8.64779e+06 6.28172e+06 -9.17349e-06 140391 9.27008e-06
214 3 O 16.2105 13.4532 5.97133 -1.2 -9.34653 -3.71285e+06 -4.01608e+06 -2.71022e+06 7.84119e-06 -415692 8.52388e-07
215 3 O 9.69965 13.4532 3.38083 -1.2 -8.90967 -4.41833e+06 -3.52919e+06 -2.92027e+06 1.23015e-05 -1.0666e+06 1.3058e-06
216 3 O 16.9491 14.7308 3.72798 -1.2 -8.87179 -3.64004e+06 -2.93284e+06 -3.43824e+06 -582529 -214957 -817765
217 1 Mg 15.2978 17.9376 2.3745 1.2 -8.09724 3.75096e+06 161520 -481385 -1.7026e+06 -957698 -1.40443e+06
218 3 O 16.9491 12.1756 3.72798 -1.2 -8.87179 -3.64004e+06 -2.93284e+06 -3.43824e+06 582529 -214957 817765
219 1 Mg 12.4774 16.4428 2.44864 1.2 -8.62985 306889 2.87396e+06 2.14178e+06 0.00871883 780173 0.254163
220 2 Si 14.3035 16.4428 0.331466 2.4 -33.7244 1.0182e+07 8.64786e+06 6.28171e+06 -1.16732 140392 0.964676
221 3 O 14.385 16.4428 -1.22234 -1.2 -9.34653 -3.71285e+06 -4.01611e+06 -2.71022e+06 0.554411 -415691 0.181515
222 3 O 20.8959 16.4428 1.36817 -1.2 -8.90967 -4.41833e+06 -3.52923e+06 -2.92027e+06 0.837147 -1.06661e+06 0.266377
223 3 O 13.6464 17.7204 1.02102 -1.2 -8.8718 -3.64004e+06 -2.93286e+06 -3.43823e+06 582529 -214958 817765
224 3 O 13.6464 15.1652 1.02102 -1.2 -8.8718 -3.64004e+06 -2.93286e+06 -3.43824e+06 -582530 -214958 -817765
225 1 Mg 20.397 11.9584 -7.51514e-07 1.2 -8.09724 3.75101e+06 161504 -481395 -1.7026e+06 957705 1.40443e+06
226 1 Mg 27.7752 16.4428 4.67486 1.2 -8.62985 306860 2.87397e+06 2.14178e+06 0.00860177 -780171 -0.25419
227 2 Si 29.6012 16.4428 2.04303 2.4 -33.7244 1.0182e+07 8.64785e+06 6.28173e+06 -1.167 -140397 -0.964659
228 3 O 29.6828 16.4428 3.59683 -1.2 -9.34654 -3.7129e+06 -4.0161e+06 -2.7102e+06 0.554229 415691 -0.181492
229 3 O 25.9951 16.4428 1.00633 -1.2 -8.90967 -4.41833e+06 -3.52924e+06 -2.92028e+06 0.837288 1.06661e+06 -0.266397
230 3 O 28.9442 17.7204 1.35348 -1.2 -8.8718 -3.64008e+06 -2.93285e+06 -3.43824e+06 582534 214958 -817766
231 1 Mg 20.397 14.948 -7.51514e-07 1.2 -8.09724 3.75101e+06 161504 -481395 1.7026e+06 957705 -1.40443e+06
232 3 O 28.9442 15.1652 1.35348 -1.2 -8.8718 -3.64008e+06 -2.93285e+06 -3.43824e+06 -582534 214958 817765
233 1 Mg 23.2173 13.4532 0.0741431 1.2 -8.62986 306865 2.87393e+06 2.14178e+06 -1.34891e-06 -780171 -1.0095e-06
234 2 Si 21.3913 13.4532 2.70597 2.4 -33.7244 1.0182e+07 8.64778e+06 6.28173e+06 -4.25485e-06 -140396 -6.90346e-06
235 3 O 21.3097 13.4532 1.15216 -1.2 -9.34654 -3.7129e+06 -4.01607e+06 -2.7102e+06 -1.29393e-06 415692 2.35464e-06
236 3 O 24.9974 13.4532 3.74267 -1.2 -8.90967 -4.41834e+06 -3.5292e+06 -2.92028e+06 6.20275e-06 1.06661e+06 -2.46391e-06
237 3 O 22.0483 14.7308 3.39552 -1.2 -8.8718 -3.64008e+06 -2.93283e+06 -3.43824e+06 -582533 214957 817765
238 3 O 22.0483 12.1756 3.39552 -1.2 -8.8718 -3.64008e+06 -2.93283e+06 -3.43824e+06 582533 214957 -817765
239 1 Mg 25.4963 14.948 2.3745 1.2 -8.09724 3.75096e+06 161511 -481382 1.7026e+06 -957699 1.40443e+06
240 1 Mg 28.3166 13.4532 2.30036 1.2 -8.62985 306894 2.87392e+06 2.14178e+06 1.00954e-06 780173 3.1264e-06
241 2 Si 26.4905 13.4532 4.41753 2.4 -33.7244 1.0182e+07 8.64779e+06 6.28172e+06 -1.11046e-05 140391 9.12812e-06
242 3 O 26.409 13.4532 5.97133 -1.2 -9.34653 -3.71285e+06 -4.01608e+06 -2.71022e+06 1.24536e-05 -415692 3.63191e-06
243 3 O 19.8981 13.4532 3.38083 -1.2 -8.90967 -4.41833e+06 -3.52919e+06 -2.92027e+06 1.10303e-05 -1.0666e+06 8.59375e-07
244 3 O 27.1476 14.7308 3.72798 -1.2 -8.87179 -3.64004e+06 -2.93284e+06 -3.43824e+06 -582529 -214957 -817765
245 1 Mg 25.4963 17.9376 2.3745 1.2 -8.09724 3.75096e+06 161520 -481385 -1.7026e+06 -957698 -1.40443e+06
246 3 O 27.1476 12.1756 3.72798 -1.2 -8.87179 -3.64004e+06 -2.93284e+06 -3.43824e+06 582529 -214957 817765
247 1 Mg 22.6759 16.4428 2.44864 1.2 -8.62985 306889 2.87396e+06 2.14178e+06 0.00871631 780173 0.254163
248 2 Si 24.502 16.4428 0.331466 2.4 -33.7244 1.0182e+07 8.64786e+06 6.28171e+06 -1.16732 140392 0.964672
249 3 O 24.5835 16.4428 -1.22234 -1.2 -9.34653 -3.71285e+06 -4.01611e+06 -2.71022e+06 0.554407 -415691 0.181517
250 3 O 31.0944 16.4428 1.36817 -1.2 -8.90967 -4.41833e+06 -3.52923e+06 -2.92027e+06 0.837144 -1.06661e+06 0.266374
251 3 O 23.8449 17.7204 1.02102 -1.2 -8.8718 -3.64004e+06 -2.93286e+06 -3.43823e+06 582529 -214958 817765
252 3 O 23.8449 15.1652 1.02102 -1.2 -8.8718 -3.64004e+06 -2.93286e+06 -3.43824e+06 -582530 -214958 -817765
253 1 Mg 5.291e-07 -5.95237e-07 4.749 1.2 -8.09724 3.75101e+06 161513 -481398 -1.7026e+06 957704 1.40443e+06
254 1 Mg 7.37817 4.4844 9.42386 1.2 -8.62986 306865 2.87393e+06 2.14178e+06 4.18003e-06 -780171 2.6767e-06
255 2 Si 9.20425 4.4844 6.79203 2.4 -33.7244 1.0182e+07 8.64778e+06 6.28173e+06 7.10331e-06 -140396 1.00699e-05
256 3 O 9.28577 4.4844 8.34583 -1.2 -9.34654 -3.7129e+06 -4.01607e+06 -2.7102e+06 4.03207e-06 415692 -4.05648e-06
257 3 O 5.59811 4.4844 5.75533 -1.2 -8.90967 -4.41834e+06 -3.5292e+06 -2.92028e+06 -4.13149e-06 1.06661e+06 8.19905e-07
258 3 O 8.54715 5.76202 6.10248 -1.2 -8.8718 -3.64008e+06 -2.93283e+06 -3.43824e+06 582533 214957 -817765
259 1 Mg 7.75795e-07 2.9896 4.749 1.2 -8.09724 3.75101e+06 161504 -481395 1.7026e+06 957705 -1.40443e+06
260 3 O 8.54715 3.20677 6.10248 -1.2 -8.8718 -3.64008e+06 -2.93283e+06 -3.43824e+06 -582533 214957 817765
261 1 Mg 2.82033 1.4948 4.82314 1.2 -8.62985 306860 2.87397e+06 2.14178e+06 0.00859671 -780171 -0.254188
262 2 Si 0.994253 1.4948 7.45497 2.4 -33.7244 1.0182e+07 8.64785e+06 6.28173e+06 -1.16698 -140397 -0.964645
263 3 O 0.912732 1.4948 5.90116 -1.2 -9.34654 -3.7129e+06 -4.0161e+06 -2.7102e+06 0.554205 415691 -0.181486
264 3 O 4.6004 1.4948 8.49167 -1.2 -8.90967 -4.41833e+06 -3.52924e+06 -2.92028e+06 0.83728 1.06661e+06 -0.266397
265 3 O 1.65135 2.77242 8.14452 -1.2 -8.8718 -3.64008e+06 -2.93285e+06 -3.43824e+06 -582534 214958 817765
266 3 O 1.65135 0.217174 8.14452 -1.2 -8.8718 -3.64008e+06 -2.93285e+06 -3.43824e+06 582534 214958 -817766
267 1 Mg 5.09925 2.9896 7.1235 1.2 -8.09724 3.75096e+06 161511 -481382 1.7026e+06 -957699 1.40443e+06
268 1 Mg 7.91958 1.4948 7.04936 1.2 -8.62985 306889 2.87396e+06 2.14178e+06 0.00872165 780173 0.254161
269 2 Si 6.0935 1.4948 9.16653 2.4 -33.7244 1.0182e+07 8.64786e+06 6.28171e+06 -1.16732 140392 0.964663
270 3 O 6.01198 1.4948 10.7203 -1.2 -9.34653 -3.71285e+06 -4.01611e+06 -2.71022e+06 0.554418 -415691 0.181516
271 3 O -0.498854 1.4948 8.12983 -1.2 -8.90967 -4.41833e+06 -3.52923e+06 -2.92027e+06 0.837136 -1.06661e+06 0.266369
272 3 O 6.7506 2.77242 8.47698 -1.2 -8.8718 -3.64004e+06 -2.93286e+06 -3.43824e+06 -582530 -214958 -817765
273 1 Mg 5.09925 5.9792 7.1235 1.2 -8.09724 3.75096e+06 161511 -481382 -1.7026e+06 -957699 -1.40443e+06