ITEM: TIMESTEP
2600
ITEM: NUMBER OF ATOMS
756
ITEM: BOX BOUNDS pp pp pp
0.0000000000000000e+00 3.0595500000000001e+01
0.0000000000000000e+00 1.7937600000000000e+01
0.0000000000000000e+00 1.4247000000000000e+01
ITEM: ATOMS id type element xu yu zu q c_pe c_s[1] c_s[2] c_s[3] c_s[4] c_s[5] c_s[6]
1 1 Mg -0.0309187 0.0336753 0.0446668 1.2 -8.49424 2.73669e+06 623187 198948 -1.83904e+06 355074 1.11864e+06
2 1 Mg 7.44986 4.53989 4.71693 1.2 -8.8588 -492626 3.57475e+06 546238 18659.2 -136963 217031
3 2 Si 9.19285 4.67122 2.14545 2.4 -32.8164 1.01179e+07 9.29438e+06 5.54349e+06 175006 469332 -417745
4 3 O 9.23055 4.62381 3.71692 -1.2 -9.35492 -5.20413e+06 -4.28744e+06 -2.15477e+06 156547 296264 -1.38073e+06
5 3 O 5.53093 4.73428 0.991278 -1.2 -8.74891 -7.81754e+06 -4.66215e+06 -4.72347e+06 -993384 1.71317e+06 -583508
6 3 O 8.53378 5.90928 1.32579 -1.2 -9.42706 -3.61055e+06 -2.94132e+06 -3.07972e+06 -355467 671393 -807660
7 1 Mg 0.0621717 3.08364 0.23625 1.2 -8.46387 2.35995e+06 -1.35185e+06 -324614 1.80325e+06 333880 -944750
8 3 O 8.45201 3.35349 1.51457 -1.2 -9.13804 -3.50072e+06 -1.34817e+06 -4.31435e+06 -3568.91 -261197 1.25729e+06
9 1 Mg 2.77052 1.64128 0.178842 1.2 -8.75819 579879 2.90533e+06 2.84901e+06 274548 -1.06636e+06 463797
10 2 Si 1.01342 1.5054 2.88534 2.4 -34.0642 9.20231e+06 8.06323e+06 8.6692e+06 204753 139411 774043
11 3 O 0.860191 1.67126 1.26441 -1.2 -8.79013 -3.35771e+06 -4.2597e+06 -2.26157e+06 931587 542742 -239217
12 3 O 4.58623 1.4625 3.8869 -1.2 -8.68408 -5.35364e+06 -2.61805e+06 -2.71072e+06 495443 1.41891e+06 -322278
13 3 O 1.72284 2.8187 3.487 -1.2 -8.63761 -2.46595e+06 -1.20624e+06 -3.96278e+06 59143.8 -107258 191416
14 3 O 1.62849 0.223542 3.43884 -1.2 -8.90541 -3.61507e+06 -3.32978e+06 -4.95765e+06 1.30212e+06 -258149 -426675
15 1 Mg 5.14922 3.08204 2.29571 1.2 -8.13221 2.90998e+06 557236 209024 1.63599e+06 -662923 904868
16 1 Mg 7.80794 1.54873 2.18461 1.2 -8.39898 915243 3.03174e+06 1.80873e+06 -254013 787083 550530
17 2 Si 6.10952 1.51372 4.48288 2.4 -34.2007 1.03771e+07 7.41566e+06 6.81106e+06 -1.5404e+06 1.04286e+06 -274314
18 3 O 6.12354 1.4547 6.0874 -1.2 -9.14233 -4.64263e+06 -4.82809e+06 -1.66321e+06 1.17819e+06 -509331 -50469.3
19 3 O -0.516764 1.50624 3.45521 -1.2 -8.61567 -3.68735e+06 -2.52609e+06 -6.02874e+06 582071 -549720 -382778
20 3 O 6.7335 2.72733 3.78866 -1.2 -8.64616 -4.17973e+06 -5.20391e+06 -2.94909e+06 -714708 590284 -509626
21 1 Mg 4.99523 6.15003 2.27938 1.2 -7.90444 3.39586e+06 -758186 -882089 -994014 -679315 -2.67893e+06
22 3 O 6.73824 0.250396 3.77418 -1.2 -8.67622 -4.07181e+06 -4.72711e+06 -4.46181e+06 1.82708e+06 -680425 1.23428e+06
23 1 Mg 2.32281 4.58923 2.3784 1.2 -8.79892 865307 2.5309e+06 2.01759e+06 1417.62 838554 -615070
24 2 Si 4.12993 4.63931 0.276447 2.4 -33.8373 8.75158e+06 8.15739e+06 5.40066e+06 -365796 365738 -329205
25 3 O 4.11357 4.53022 -1.22525 -1.2 -9.26861 -4.13787e+06 -5.05067e+06 -5.39251e+06 -175447 -405913 171522
26 3 O 10.6525 4.54125 1.53498 -1.2 -9.62976 -5.25355e+06 -2.6284e+06 -3.14602e+06 -136614 -91321.5 239964
27 3 O 3.40109 5.88978 0.991195 -1.2 -8.83659 -5.11607e+06 -2.38056e+06 -4.76144e+06 1.31496e+06 -408727 1.47605e+06
28 3 O 3.62201 3.31273 1.05829 -1.2 -8.68458 -4.79418e+06 -2.71522e+06 -4.62725e+06 -1.72045e+06 -630649 -1.25355e+06
29 1 Mg 10.25 -0.0394945 -0.0940756 1.2 -7.63341 3.08294e+06 -688838 115409 -2.11882e+06 1.45076e+06 1.12432e+06
30 1 Mg 17.4283 4.4293 4.60056 1.2 -8.64214 674480 1.37527e+06 1.95813e+06 -62370.4 -1.49975e+06 -32994.4
31 2 Si 19.3561 4.3223 2.03401 2.4 -33.2931 9.8078e+06 8.86592e+06 6.0565e+06 1.67858e+06 -1.02797e+06 1.1292e+06
32 3 O 19.4277 4.40523 3.66315 -1.2 -9.24109 -3.4653e+06 -4.51951e+06 -318574 -935228 1.1305e+06 427643
33 3 O 15.8301 4.27242 1.08596 -1.2 -8.73995 -3.61453e+06 -4.50026e+06 -1.89702e+06 960684 1.72143e+06 784958
34 3 O 18.7459 5.51032 1.37489 -1.2 -9.33533 -4.71383e+06 -4.78934e+06 -5.46489e+06 1.56207e+06 -620295 483346
35 1 Mg 10.0317 3.01106 0.224626 1.2 -7.45575 3.68635e+06 -261969 122895 1.76827e+06 834790 -678325
36 3 O 18.8772 2.89764 1.39654 -1.2 -8.79579 -4.66983e+06 -1.50091e+06 -2.95228e+06 -792792 600967 1.35981e+06
37 1 Mg 12.9837 1.50556 0.0990081 1.2 -8.10495 -51577.4 2.12466e+06 1.1955e+06 -695555 -881640 -344365
38 2 Si 11.3024 1.52975 2.65669 2.4 -33.3027 1.12674e+07 8.76927e+06 3.81515e+06 -34406.6 -607239 586213
39 3 O 11.0854 1.49338 1.1507 -1.2 -9.82769 -3.69743e+06 -3.10222e+06 -4.42025e+06 -328855 1.05053e+06 210838
40 3 O 14.7036 1.58399 3.66164 -1.2 -9.13085 -5.40045e+06 -5.25928e+06 -3.76667e+06 -134756 1.79999e+06 1.04029e+06
41 3 O 11.9401 2.7717 3.37788 -1.2 -8.98074 -5.67578e+06 -3.13084e+06 -2.84208e+06 -1.32678e+06 17001.7 955120
42 3 O 11.9158 0.227312 3.38636 -1.2 -9.01325 -3.96491e+06 -2.78418e+06 -2.48607e+06 227062 -305966 -1.71843e+06
43 1 Mg 15.1528 2.92822 2.48148 1.2 -8.09012 4.1536e+06 -1.73854e+06 -2.2216e+06 221018 -1.0093e+06 2.95771e+06
44 1 Mg 18.0891 1.30736 2.35705 1.2 -9.11634 -151823 3.06017e+06 2.34326e+06 -320273 143071 309569
45 2 Si 16.1191 1.53326 4.46019 2.4 -34.0619 1.04754e+07 9.64666e+06 7.65562e+06 -772762 -2.01587e+06 323983
46 3 O 15.9564 1.45564 5.99536 -1.2 -8.87582 -4.43448e+06 -5.14153e+06 -2.47704e+06 872112 715374 -354218
47 3 O 9.76608 1.58554 3.35056 -1.2 -8.72467 -3.61805e+06 -2.73858e+06 -1.70428e+06 -28823.7 -984795 -136148
48 3 O 16.9305 2.7529 3.7649 -1.2 -8.39043 -2.56151e+06 -4.74909e+06 -4.29087e+06 -143074 -949750 -2.18994e+06
49 1 Mg 15.3549 5.88673 2.38075 1.2 -8.01272 1.95618e+06 1.40646e+06 -768397 -1.70151e+06 -1.58744e+06 -1.55888e+06
50 3 O 16.9111 0.279971 3.70775 -1.2 -8.24226 -2.78136e+06 -3.97627e+06 -3.94188e+06 -1.11285e+06 -680893 1.69577e+06
51 1 Mg 12.402 4.53608 2.49783 1.2 -8.21725 228341 2.06723e+06 1.69895e+06 -235447 -436201 204770
52 2 Si 14.3289 4.39399 0.269648 2.4 -33.185 9.50731e+06 8.40653e+06 6.3936e+06 -156805 1.49766e+06 -428922
53 3 O 14.4446 4.36422 -1.22493 -1.2 -9.68703 -3.44937e+06 -3.72668e+06 -4.68775e+06 -524212 -627887 -66263.4
54 3 O 20.9189 4.3838 1.43326 -1.2 -8.81872 -3.03762e+06 -4.62089e+06 -2.8261e+06 717290 -1.11688e+06 538731
55 3 O 13.8862 5.79232 0.945905 -1.2 -9.04659 -3.21722e+06 -3.82822e+06 -3.52531e+06 941356 -841372 2.10811e+06
56 3 O 13.588 3.23004 1.06195 -1.2 -9.13506 -4.1948e+06 -1.91032e+06 -3.80562e+06 -1.19708e+06 -891776 -792961
57 1 Mg 20.5619 -0.00282471 -0.0473021 1.2 -8.06762 4.03762e+06 361833 -1.00622e+06 -1.23928e+06 316091 115223
58 1 Mg 27.7901 4.51425 4.70823 1.2 -8.84436 -263498 2.88722e+06 1.64621e+06 332377 -450510 474911
59 2 Si 29.5069 4.54955 2.07925 2.4 -34.423 1.01876e+07 7.51497e+06 6.37877e+06 -341681 72029.3 53277.3
60 3 O 29.6941 4.65696 3.59764 -1.2 -8.88359 -3.98614e+06 -4.44619e+06 -4.28501e+06 -201074 637835 -218057
61 3 O 26.0268 4.58766 0.990103 -1.2 -8.77857 -5.85686e+06 -4.35774e+06 -3.16307e+06 -268245 1.21318e+06 373424
62 3 O 28.8785 5.79319 1.35421 -1.2 -8.65973 -4.23773e+06 -3.849e+06 -5.00568e+06 793564 -32258.7 -563804
63 1 Mg 20.3589 2.97184 0.0147023 1.2 -8.16364 3.12104e+06 -57846.1 -386854 1.58422e+06 1.16927e+06 -1.92768e+06
64 3 O 28.9021 3.29548 1.44263 -1.2 -8.57276 -3.72975e+06 -4.4093e+06 -4.36095e+06 -87862.6 440585 262494
65 1 Mg 23.2028 1.40639 0.0590046 1.2 -9.08494 69808.1 2.91977e+06 2.34046e+06 -163263 -105379 468007
66 2 Si 21.3781 1.25505 2.70432 2.4 -34.1462 1.1225e+07 8.61415e+06 4.82774e+06 1.41678e+06 -807503 -619538
67 3 O 21.4054 1.33464 1.11446 -1.2 -9.02012 -4.62862e+06 -3.81006e+06 -3.05732e+06 -169390 -267300 -1.69395e+06
68 3 O 25.0389 1.39876 3.79033 -1.2 -8.73516 -6.65153e+06 -2.8765e+06 -3.98095e+06 667322 -455408 11317.7
69 3 O 22.1538 2.54207 3.2762 -1.2 -8.28179 -3.66061e+06 -1.93098e+06 -3.43467e+06 -357275 -268670 189800
70 3 O 22.0201 0.0215367 3.40831 -1.2 -8.98067 -4.95605e+06 -5.04122e+06 -2.0168e+06 -312676 646862 232419
71 1 Mg 25.6204 2.96395 2.32774 1.2 -8.1733 4.08258e+06 -325551 -407941 2.6513e+06 225869 435399
72 1 Mg 28.2735 1.37998 2.41119 1.2 -8.70306 291347 2.42407e+06 2.5175e+06 651572 171135 -1975.81
73 2 Si 26.3739 1.41492 4.54356 2.4 -34.0799 1.07371e+07 9.28139e+06 4.66416e+06 235810 -336161 -54909.4
74 3 O 26.365 1.39373 6.055 -1.2 -9.29543 -5.35043e+06 -4.46073e+06 -5.45812e+06 636463 -569579 477217
75 3 O 19.9601 1.36095 3.42279 -1.2 -8.88379 -6.33896e+06 -4.28102e+06 -2.02273e+06 -329313 -616240 1.28421e+06
76 3 O 27.2129 2.67768 3.87931 -1.2 -8.27302 -3.32541e+06 -2.23132e+06 -3.04533e+06 466793 -522471 -1.44418e+06
77 1 Mg 25.4643 5.89 2.4159 1.2 -8.25705 3.12457e+06 -691262 -943917 -1.99294e+06 -463976 -1.6496e+06
78 3 O 27.1786 0.151683 3.77795 -1.2 -8.72969 -3.36865e+06 -3.19557e+06 -2.60225e+06 -533383 -919162 1.08306e+06
79 1 Mg 22.7977 4.4421 2.35559 1.2 -8.61216 158974 4.59679e+06 1.48378e+06 59641.4 897299 -139360
80 2 Si 24.5487 4.48255 0.316262 2.4 -33.678 9.1983e+06 1.04925e+07 5.06746e+06 468540 1.402e+06 -903794
81 3 O 24.5383 4.60703 -1.23016 -1.2 -9.46241 -3.1563e+06 -4.17777e+06 -2.68382e+06 -57481.8 -388315 -673663
82 3 O 31.0899 4.5395 1.42153 -1.2 -8.39826 -2.81749e+06 -5.02521e+06 -5.27565e+06 -624465 -1.72601e+06 -955412
83 3 O 23.8918 5.82005 0.95224 -1.2 -8.57454 -4.51226e+06 -1.46123e+06 -4.69353e+06 578810 -328560 300149
84 3 O 23.9774 3.17025 0.980749 -1.2 -8.68894 -3.5951e+06 -2.98919e+06 -4.02358e+06 -711043 -52297.2 -596279
85 1 Mg -0.0246746 5.98504 0.0665036 1.2 -8.30421 3.28227e+06 -152699 -698299 -1.48849e+06 598598 1.17135e+06
86 1 Mg 7.45367 10.4725 4.56221 1.2 -8.34102 -254102 2.66511e+06 1.71891e+06 -223.707 -1.04619e+06 -403442
87 2 Si 9.28548 10.584 1.91798 2.4 -33.298 7.39013e+06 8.05265e+06 6.67448e+06 1.15608e+06 -598460 673260
88 3 O 9.30699 10.5494 3.5826 -1.2 -9.59941 -3.97188e+06 -5.87815e+06 -1.02855e+06 627923 -911812 9487.99
89 3 O 5.459 10.452 0.7567 -1.2 -8.66777 -6.2089e+06 -3.84011e+06 -3.98261e+06 588386 460540 -632711
90 3 O 8.57037 11.7566 1.20525 -1.2 -8.92785 -6.41992e+06 -3.65773e+06 -3.33086e+06 1.51669e+06 259674 -709684
91 1 Mg 0.0619536 9.01892 0.165722 1.2 -7.84858 2.6513e+06 551406 -7021.96 1.87752e+06 -51128.6 -149235
92 3 O 8.72831 9.24992 1.28728 -1.2 -8.88949 -2.67584e+06 -3.56261e+06 -3.29628e+06 -789483 79880 472641
93 1 Mg 2.88561 7.59674 0.0898901 1.2 -8.44515 64188.7 1.70482e+06 2.1494e+06 247551 -843347 -765054
94 2 Si 1.03277 7.53248 2.69266 2.4 -33.9099 7.00691e+06 8.28952e+06 5.64106e+06 -69220.1 -1.73678e+06 1.76275e+06
95 3 O 0.815799 7.53329 1.19588 -1.2 -9.37392 -3.30394e+06 -4.29616e+06 -6.66251e+06 937599 408393 1.16336e+06
96 3 O 4.64622 7.52429 3.67768 -1.2 -9.2374 -4.377e+06 -3.92273e+06 -3.90185e+06 86002.7 587366 -59103.8
97 3 O 1.50194 8.87178 3.46619 -1.2 -8.94687 -4.81334e+06 -5.56725e+06 -3.61851e+06 -2.00981e+06 483389 1.78244e+06
98 3 O 1.75749 6.31985 3.23804 -1.2 -8.56231 -5.1514e+06 -4.12053e+06 -5.22292e+06 2.05255e+06 -292387 -529229
99 1 Mg 5.12832 9.06019 2.27967 1.2 -7.78976 2.99201e+06 -84768.7 -579804 1.90972e+06 -818679 461222
100 1 Mg 7.92001 7.59661 2.31109 1.2 -8.45587 -206370 2.68073e+06 1.66625e+06 780975 1.26595e+06 -1.15867e+06
101 2 Si 6.12409 7.5955 4.28029 2.4 -33.6383 9.22206e+06 9.80276e+06 4.12211e+06 -271203 -232539 -245911
102 3 O 6.05925 7.52349 5.80425 -1.2 -9.07821 -4.57426e+06 -4.05034e+06 -3.05424e+06 537825 -736637 -1.09287e+06
103 3 O -0.418958 7.46647 3.4346 -1.2 -8.36515 -5.32966e+06 -5.13267e+06 -2.72723e+06 -535252 -401037 -464367
104 3 O 6.81015 8.8244 3.56063 -1.2 -9.26311 -3.03003e+06 -4.23521e+06 -4.29476e+06 -576515 -57927.6 -602909
105 1 Mg 4.94122 12.0686 2.21133 1.2 -8.00631 3.39166e+06 -351800 -1.1099e+06 -1.92696e+06 -1.11184e+06 -1.8845e+06
106 3 O 6.84038 6.23284 3.68812 -1.2 -8.40086 -3.34131e+06 -1.39785e+06 -4.32841e+06 -452160 61463.6 782115
107 1 Mg 2.14014 10.3886 2.49489 1.2 -8.20013 -245104 791445 1.5729e+06 -366159 -228633 477550
108 2 Si 3.98375 10.5425 0.217954 2.4 -33.8228 8.68464e+06 8.00492e+06 5.61234e+06 -199994 266852 352924
109 3 O 4.03605 10.4351 -1.3309 -1.2 -9.26652 -4.94735e+06 -4.20866e+06 -4.63719e+06 -134911 -1.27654e+06 -779906
110 3 O 10.6883 10.7517 1.30488 -1.2 -9.20894 -9.03377e+06 -4.1422e+06 -2.01511e+06 -725742 -312578 749108
111 3 O 3.4861 11.8676 0.880198 -1.2 -8.8861 -4.5052e+06 -4.05185e+06 -3.10183e+06 1.52735e+06 -347346 617161
112 3 O 3.31956 9.29267 0.979018 -1.2 -9.12427 -3.51114e+06 -3.09357e+06 -3.58988e+06 -1.75925e+06 -591876 -1.40913e+06
113 1 Mg 10.0483 6.00001 -0.0436604 1.2 -7.38186 3.46044e+06 136904 -1.67724e+06 -1.89356e+06 1.29242e+06 1.28748e+06
114 1 Mg 17.5512 10.4818 4.69564 1.2 -8.47296 546102 2.75303e+06 1.36855e+06 263602 -1.13764e+06 741463
115 2 Si 19.3977 10.3719 2.00863 2.4 -34.2992 8.65384e+06 8.81316e+06 7.8187e+06 514849 253874 -195825
116 3 O 19.4139 10.4465 3.56929 -1.2 -8.94096 -3.35154e+06 -3.65929e+06 -2.53347e+06 25543.7 -25342.8 -73890.4
117 3 O 15.8057 10.4313 0.956069 -1.2 -9.02606 -4.73414e+06 -5.32606e+06 -4.3132e+06 -553321 751744 -264262
118 3 O 18.8288 11.6485 1.3257 -1.2 -8.62485 -3.53679e+06 -3.62689e+06 -4.25257e+06 2.61681e+06 -360317 -267563
119 1 Mg 10.409 9.07963 -0.111948 1.2 -7.73602 4.42852e+06 273659 535852 1.35914e+06 712723 -2.34053e+06
120 3 O 18.8235 9.00477 1.40389 -1.2 -8.50113 -3.15992e+06 -1.48326e+06 -3.91718e+06 -445880 22008 293430
121 1 Mg 13.065 7.35056 0.0947143 1.2 -8.33685 176997 2.06723e+06 2.2752e+06 593060 -951233 245646
122 2 Si 11.259 7.55359 2.74738 2.4 -33.1465 1.06333e+07 6.41759e+06 8.71446e+06 399027 -347113 -1.37262e+06
123 3 O 11.2593 7.487 1.18599 -1.2 -9.76752 -3.88203e+06 -1.7683e+06 -1.01667e+06 -178016 366674 -279087
124 3 O 14.8021 7.42799 3.74015 -1.2 -8.85018 -5.33066e+06 -4.43657e+06 -3.29895e+06 113399 2.39178e+06 -105518
125 3 O 11.8924 8.829 3.36902 -1.2 -9.07004 -4.00062e+06 -2.40349e+06 -4.78529e+06 -1.99573e+06 840382 890224
126 3 O 11.8178 6.24077 3.59945 -1.2 -8.89862 -4.7262e+06 -2.23147e+06 -2.26402e+06 888452 575031 -1.74365e+06
127 1 Mg 15.3689 8.96824 2.30471 1.2 -8.22031 3.52766e+06 -1.10384e+06 -543370 1.88403e+06 -1.09732e+06 1.14418e+06
128 1 Mg 18.0297 7.22289 2.25004 1.2 -8.50835 117276 3.417e+06 1.62426e+06 196368 372988 -545697
129 2 Si 16.2925 7.41981 4.43568 2.4 -33.3444 9.62022e+06 1.01723e+07 5.10789e+06 172489 277272 -1.01435e+06
130 3 O 16.2155 7.4352 5.94918 -1.2 -9.71903 -4.23187e+06 -4.86511e+06 -2.89215e+06 81591.1 -242789 1.09681e+06
131 3 O 9.74042 7.53962 3.43873 -1.2 -8.82948 -4.68838e+06 -2.86583e+06 -2.62441e+06 176185 -2.53105e+06 870958
132 3 O 16.9405 8.7209 3.7435 -1.2 -8.68904 -4.44529e+06 -1.32317e+06 -3.36011e+06 -699928 44341 -809043
133 1 Mg 15.4244 11.7602 2.30669 1.2 -7.89424 3.10583e+06 -341033 -1.43457e+06 -1.98872e+06 -1.15819e+06 -2.10368e+06
134 3 O 16.8972 6.0964 3.66076 -1.2 -9.24338 -4.36341e+06 -2.92054e+06 -2.5449e+06 712452 -529763 1.76021e+06
135 1 Mg 12.4285 10.5001 2.31591 1.2 -8.22457 -516740 3.03995e+06 2.02369e+06 -538749 1.09354e+06 -578147
136 2 Si 14.3151 10.4335 0.332426 2.4 -33.5309 8.90016e+06 8.54774e+06 5.4228e+06 -995025 441081 326181
137 3 O 14.4649 10.3312 -1.22047 -1.2 -9.34475 -4.13543e+06 -4.72077e+06 -3.15342e+06 -275029 -813378 327995
138 3 O 20.9126 10.4175 1.3658 -1.2 -8.72108 -5.5378e+06 -4.26249e+06 -4.3557e+06 1.57789e+06 -1.76186e+06 1.0936e+06
139 3 O 13.5998 11.7223 0.910323 -1.2 -8.90473 -3.69486e+06 -3.04957e+06 -3.48318e+06 461105 387320 29140.3
140 3 O 13.6648 9.19298 1.0412 -1.2 -8.96493 -3.48625e+06 -2.95249e+06 -4.37565e+06 -886218 80599.1 121645
141 1 Mg 20.4348 5.86434 0.140974 1.2 -8.2411 3.13017e+06 -94835.7 -285987 -2.17784e+06 1.35143e+06 1.30414e+06
142 1 Mg 27.6115 10.4774 4.74399 1.2 -8.55657 -672132 1.45232e+06 1.18027e+06 462702 -804785 259470
143 2 Si 29.5194 10.5407 2.11324 2.4 -33.9424 7.55839e+06 6.8842e+06 6.98231e+06 -1.17225e+06 -475181 -1.78602e+06
144 3 O 29.6883 10.5767 3.67067 -1.2 -8.98705 -3.78171e+06 -5.12948e+06 -3.98507e+06 963791 1.08913e+06 -408018
145 3 O 26.0066 10.2995 0.96681 -1.2 -9.33942 -5.48133e+06 -4.65658e+06 -3.54818e+06 704424 1.6357e+06 932047
146 3 O 28.807 11.7322 1.35329 -1.2 -8.49354 -3.431e+06 -4.80918e+06 -3.79283e+06 938368 -96332.9 -598654
147 1 Mg 20.4708 8.87083 0.0348463 1.2 -8.28711 3.20657e+06 250611 -471199 1.74199e+06 1.60047e+06 -1.85817e+06
148 3 O 28.9616 9.31521 1.49502 -1.2 -9.0872 -3.4444e+06 -7.76648e+06 -5.1531e+06 -1.49092e+06 -527860 -157145
149 1 Mg 23.1624 7.58958 0.0735679 1.2 -8.59935 -193626 2.47832e+06 1.68544e+06 -1.03531e+06 -1.16235e+06 -718891
150 2 Si 21.3514 7.33536 2.75695 2.4 -33.5408 8.266e+06 9.86986e+06 5.83498e+06 -418820 181970 -62877.6
151 3 O 21.3598 7.35674 1.15377 -1.2 -9.15628 -4.42334e+06 -4.60383e+06 -2.19064e+06 801102 60881 -764169
152 3 O 25.0322 7.3886 3.7598 -1.2 -8.794 -3.38678e+06 -2.66731e+06 -3.57439e+06 1.62557e+06 815968 -1.21357e+06
153 3 O 21.8365 8.73292 3.40339 -1.2 -8.87941 -3.96016e+06 -2.62979e+06 -4.44452e+06 -562742 -369347 495833
154 3 O 22.0776 6.12676 3.41822 -1.2 -8.96293 -4.26336e+06 -2.85531e+06 -4.34624e+06 896763 -637716 -394659
155 1 Mg 25.4663 8.9965 2.30579 1.2 -7.55483 3.2303e+06 -335192 -1.32716e+06 1.47887e+06 -556645 1.20151e+06
156 1 Mg 28.3885 7.5106 2.19146 1.2 -8.35906 751358 1.98225e+06 2.84405e+06 113891 1.05283e+06 99938.2
157 2 Si 26.5166 7.39621 4.39686 2.4 -33.9962 1.00063e+07 7.27929e+06 8.03235e+06 56756 260175 879626
158 3 O 26.3701 7.3621 6.03504 -1.2 -8.90227 -3.72738e+06 -2.92774e+06 -2.0532e+06 290917 -900747 479545
159 3 O 19.8836 7.21606 3.34197 -1.2 -8.95671 -5.47577e+06 -5.77025e+06 -3.50067e+06 248395 -959117 1.20446e+06
160 3 O 27.2897 8.66004 3.94432 -1.2 -8.90747 -2.6318e+06 -3.46188e+06 -3.35807e+06 -1.06111e+06 -214632 -391842
161 1 Mg 25.5076 11.8838 2.39292 1.2 -7.84217 3.77239e+06 -221633 -744139 -1.90326e+06 -1.27377e+06 -1.1143e+06
162 3 O 27.1218 6.0993 3.7412 -1.2 -8.71736 -4.55745e+06 -3.52107e+06 -3.72483e+06 1.15266e+06 -317984 560715
163 1 Mg 22.6373 10.3403 2.48914 1.2 -8.70718 -220751 2.09933e+06 2.41744e+06 578898 434657 444677
164 2 Si 24.5477 10.389 0.329374 2.4 -33.2625 9.63956e+06 7.53442e+06 7.35189e+06 591081 -1.56788e+06 244422
165 3 O 24.5967 10.444 -1.29348 -1.2 -9.21488 -4.10316e+06 -4.87109e+06 -1.22836e+06 -648034 -80172.6 -275433
166 3 O 31.0526 10.6391 1.49599 -1.2 -8.9961 -5.14975e+06 -2.97352e+06 -5.09646e+06 -481442 -1.68414e+06 367159
167 3 O 23.9731 11.6866 1.05275 -1.2 -8.76279 -3.96721e+06 -5.64559e+06 -4.31849e+06 -20184.4 -171067 1.5001e+06
168 3 O 23.6508 9.24768 0.960586 -1.2 -9.01286 -2.84008e+06 -5.57718e+06 -3.69715e+06 -372280 -622570 -1.533e+06
169 1 Mg 0.0216904 11.9619 -0.0371248 1.2 -7.99756 3.35085e+06 384685 -797528 -1.12797e+06 233461 1.90066e+06
170 1 Mg 7.35888 16.5105 4.55042 1.2 -8.7568 -673891 2.2101e+06 2.35025e+06 38764.6 -269243 386055
171 2 Si 9.26025 16.4923 2.01018 2.4 -33.5463 1.10969e+07 7.05958e+06 5.53455e+06 -997217 1.03344e+06 1.11378e+06
172 3 O 9.21068 16.5037 3.58929 -1.2 -9.36852 -3.89254e+06 -3.28092e+06 -3.31253e+06 679222 933706 793302
173 3 O 5.54502 16.5665 1.08012 -1.2 -8.43982 -4.35672e+06 -4.05028e+06 -3.87827e+06 -622960 1.01028e+06 -1.99404e+06
174 3 O 8.55814 17.7235 1.28227 -1.2 -9.17438 -3.10213e+06 -2.78254e+06 -2.47067e+06 -538721 -442761 -425628
175 1 Mg 0.108857 14.9893 0.0899509 1.2 -8.36461 2.78075e+06 -214741 -1.32066e+06 1.98309e+06 78630.5 -1.36887e+06
176 3 O 8.65264 15.2148 1.3197 -1.2 -8.99084 -5.01183e+06 -3.59242e+06 -2.87201e+06 -459883 -664357 731643
177 1 Mg 2.70239 13.598 -0.104651 1.2 -8.73751 -424854 3.03307e+06 1.90755e+06 412103 -1.17207e+06 -227293
178 2 Si 1.03607 13.3925 2.74415 2.4 -33.3117 1.05516e+07 7.27632e+06 7.78715e+06 164503 -373037 121825
179 3 O 1.00998 13.5567 1.14241 -1.2 -9.13347 -4.34097e+06 -4.14878e+06 -1.78915e+06 237242 -42950.4 69243.7
180 3 O 4.56697 13.3919 3.68432 -1.2 -9.25127 -5.84775e+06 -3.44125e+06 -4.45769e+06 -335912 1.49541e+06 -214476
181 3 O 1.67021 14.6641 3.45878 -1.2 -9.00817 -2.77603e+06 -3.3256e+06 -4.29559e+06 156484 -437988 808102
182 3 O 1.66997 12.1937 3.42997 -1.2 -9.25386 -3.23683e+06 -5.05845e+06 -3.96411e+06 -177532 -440514 -164131
183 1 Mg 5.10581 14.9534 2.42723 1.2 -7.76708 2.86008e+06 -218595 -135415 1.75248e+06 -957597 895531
184 1 Mg 7.91268 13.577 2.17865 1.2 -8.47224 498036 2.64296e+06 2.06709e+06 -361132 1.16239e+06 81537.2
185 2 Si 6.04593 13.4039 4.31079 2.4 -33.1276 9.49566e+06 8.18051e+06 7.78533e+06 -151554 -980243 1.87354e+06
186 3 O 5.95866 13.4293 5.887 -1.2 -9.43612 -3.68135e+06 -3.76882e+06 -954151 -571601 -1.29358e+06 520379
187 3 O -0.61038 13.4989 3.28844 -1.2 -8.80561 -2.31463e+06 -3.25869e+06 -3.53568e+06 -848280 -1.79895e+06 1.05888e+06
188 3 O 6.67157 14.645 3.60935 -1.2 -9.3142 -3.97046e+06 -2.9761e+06 -4.16634e+06 -1.38162e+06 -1.12068e+06 -617639
189 1 Mg 5.05786 17.9247 2.39229 1.2 -7.90007 3.5445e+06 -878873 -1.12762e+06 -2.01476e+06 -76176.8 -257349
190 3 O 6.72834 12.0803 3.49696 -1.2 -8.58568 -2.86634e+06 -1.50847e+06 -2.30092e+06 -392185 -324422 1.71577e+06
191 1 Mg 2.27736 16.3784 2.49936 1.2 -8.51261 -873072 3.15552e+06 2.41285e+06 -464021 -51839.2 41689.5
192 2 Si 4.05959 16.5506 0.360544 2.4 -34.6128 1.08138e+07 7.45948e+06 6.33498e+06 -2.16747e+06 514672 242975
193 3 O 4.15487 16.5058 -1.21362 -1.2 -8.56539 -4.41612e+06 -5.67211e+06 -3.4066e+06 943086 -1.20812e+06 1.25131e+06
194 3 O 10.7834 16.436 1.47664 -1.2 -8.8747 -4.49186e+06 -3.23921e+06 -2.12329e+06 -193647 -945901 -44004.1
195 3 O 3.26735 17.7489 0.983407 -1.2 -8.68931 -3.00804e+06 -3.05936e+06 -4.18483e+06 1.00467e+06 -185944 76296
196 3 O 3.48715 15.2311 0.901782 -1.2 -8.51383 -4.41341e+06 -4.91064e+06 -4.06316e+06 -1.47689e+06 697148 21106.5
197 1 Mg 10.133 12.0249 -0.233967 1.2 -7.99452 3.348e+06 -2.08205e+06 -948258 -1.20377e+06 1.33137e+06 3.15287e+06
198 1 Mg 17.5155 16.3798 4.74437 1.2 -8.93499 358733 3.53949e+06 2.16069e+06 -541222 -2.00339e+06 -309427
199 2 Si 19.5873 16.2363 1.95135 2.4 -34.1204 1.02002e+07 8.04567e+06 8.70394e+06 972575 -394186 222320
200 3 O 19.6049 16.3571 3.64047 -1.2 -8.55531 -4.14656e+06 -3.73128e+06 717367 -546046 -869475 560816
201 3 O 15.8765 16.4333 1.06283 -1.2 -8.96272 -4.32023e+06 -2.45237e+06 -3.96005e+06 -256320 888813 439092
202 3 O 18.8078 17.4367 1.32212 -1.2 -8.52397 -2.77082e+06 -3.52112e+06 -5.00248e+06 243955 242114 -592011
203 1 Mg 10.191 14.916 -0.104658 1.2 -7.64696 3.80651e+06 -748153 -522676 1.3049e+06 1.10804e+06 -789534
204 3 O 18.8436 14.9032 1.39951 -1.2 -8.49822 -2.11404e+06 -3.17047e+06 -3.43046e+06 290853 459517 782577
205 1 Mg 13.0111 13.389 -0.0575528 1.2 -8.50067 979279 1.91689e+06 2.97514e+06 360834 -745146 818551
206 2 Si 11.1756 13.49 2.62105 2.4 -33.6959 1.11537e+07 6.69519e+06 5.48085e+06 -433021 -583932 -105250
207 3 O 11.1545 13.4859 1.11356 -1.2 -9.18321 -4.07592e+06 -5.16807e+06 -3.51957e+06 -202544 75525.9 -894316
208 3 O 14.86 13.5588 3.53411 -1.2 -8.85277 -5.05752e+06 -3.61302e+06 -3.99742e+06 -772102 1.59285e+06 663881
209 3 O 11.799 14.7105 3.33477 -1.2 -8.79445 -3.7888e+06 -4.7235e+06 -5.40355e+06 -159461 428184 972666
210 3 O 12.017 12.2555 3.34458 -1.2 -8.90257 -2.45763e+06 -2.89131e+06 -4.2971e+06 -349623 575323 -1.17999e+06
211 1 Mg 15.3946 14.7634 2.17081 1.2 -8.03119 3.89307e+06 -1.31396e+06 -2.18967e+06 2.02437e+06 -522563 3.06041e+06
212 1 Mg 18.2404 13.2201 2.44637 1.2 -8.67109 -726480 3.1953e+06 2.19517e+06 36292.8 1.40809e+06 85321.7
213 2 Si 16.3148 13.4608 4.30758 2.4 -33.6586 9.08024e+06 8.65252e+06 7.84875e+06 -9273.97 162502 127015
214 3 O 16.1685 13.478 5.87559 -1.2 -8.93804 -3.89434e+06 -3.85267e+06 -2.11516e+06 -144217 304022 962284
215 3 O 9.67506 13.3999 3.2921 -1.2 -9.0595 -4.01126e+06 -2.64482e+06 -3.8138e+06 -837653 -1.09228e+06 169800
216 3 O 17.0788 14.666 3.64736 -1.2 -8.61066 -4.18319e+06 -2.12562e+06 -3.79556e+06 -1.15394e+06 690652 -156420
217 1 Mg 15.3789 17.9537 2.3871 1.2 -8.12296 3.65857e+06 283729 -861627 -1.48258e+06 -1.08099e+06 -1.78663e+06
218 3 O 16.8732 12.0823 3.69937 -1.2 -9.19141 -3.8035e+06 -3.60474e+06 -3.75658e+06 824088 -610018 1.06809e+06
219 1 Mg 12.6386 16.4714 2.44021 1.2 -8.57728 931980 2.86947e+06 1.04331e+06 154659 740942 252247
220 2 Si 14.4207 16.4157 0.341621 2.4 -33.2029 1.08493e+07 7.89723e+06 5.90766e+06 932910 -733149 -600210
221 3 O 14.5146 16.3642 -1.20316 -1.2 -9.63115 -4.06311e+06 -4.6077e+06 -3.09143e+06 10859.4 468370 -561738
222 3 O 21.0218 16.2377 1.32426 -1.2 -9.15024 -5.493e+06 -2.74691e+06 -2.2498e+06 493569 -219492 116123
223 3 O 13.7225 17.7107 0.983878 -1.2 -9.05387 -3.49427e+06 -2.06613e+06 -4.0981e+06 -380442 302468 1.58533e+06
224 3 O 13.6666 15.152 1.01307 -1.2 -9.04769 -2.97293e+06 -2.1349e+06 -2.50443e+06 -198087 119234 -108359
225 1 Mg 20.741 11.8216 0.0363097 1.2 -8.03711 3.68644e+06 -507350 -989886 -1.18563e+06 1.18639e+06 1.82087e+06
226 1 Mg 27.6778 16.3595 4.74921 1.2 -8.35409 -1.05555e+06 3.4604e+06 1.9432e+06 576206 -579128 -339661
227 2 Si 29.6126 16.4422 2.16615 2.4 -33.8934 9.09422e+06 9.80182e+06 5.43096e+06 666632 -43999.8 14558.4
228 3 O 29.7349 16.4218 3.68974 -1.2 -9.73143 -3.89505e+06 -5.93123e+06 -5.47113e+06 -36452.7 -157077 -303425
229 3 O 26.1054 16.4484 1.04045 -1.2 -9.16997 -7.88249e+06 -4.89692e+06 -4.48706e+06 552682 -43081.2 -754830
230 3 O 28.9379 17.7374 1.4358 -1.2 -8.73035 -3.28109e+06 -3.96446e+06 -3.24732e+06 26338.6 1.02226e+06 -2.11263e+06
231 1 Mg 20.4491 14.7085 -0.0866984 1.2 -7.62162 4.67643e+06 472067 -1.80487e+06 1.34888e+06 1.02643e+06 -1.72691e+06
232 3 O 28.9008 15.1929 1.46353 -1.2 -8.35318 -4.61787e+06 -4.76402e+06 -4.79195e+06 -1.00611e+06 763025 2.28309e+06
233 1 Mg 23.2827 13.2958 0.136954 1.2 -8.84312 -1.16232e+06 2.34742e+06 1.59628e+06 566759 -143301 756316
234 2 Si 21.5159 13.3694 2.71866 2.4 -33.2061 1.10735e+07 9.18427e+06 6.2386e+06 -253190 -1.16282e+06 -540605
235 3 O 21.5659 13.3664 1.1508 -1.2 -9.56417 -4.25392e+06 -4.74755e+06 -2.13917e+06 -476536 1.19139e+06 155168
236 3 O 24.9162 13.4835 3.76682 -1.2 -8.64873 -2.89553e+06 -3.18431e+06 -5.40945e+06 -783390 792168 -118762
237 3 O 22.1786 14.6619 3.42231 -1.2 -9.02536 -4.51627e+06 -3.05101e+06 -3.10531e+06 854433 -51964.7 1.69914e+06
238 3 O 22.1613 12.113 3.46741 -1.2 -8.82915 -4.66885e+06 -3.13134e+06 -3.95778e+06 447070 -370393 -7996.01
239 1 Mg 25.5623 14.9147 2.42852 1.2 -8.01827 3.16396e+06 -1.19921e+06 -558539 2.39295e+06 -730497 1.29398e+06
240 1 Mg 28.3344 13.5584 2.32184 1.2 -8.74733 -1.8745e+06 1.9251e+06 1.5298e+06 -334492 222537 135241
241 2 Si 26.4913 13.385 4.36801 2.4 -33.7368 1.12524e+07 8.45387e+06 8.07223e+06 -1.0269e+06 -1.09888e+06 1.46664e+06
242 3 O 26.2518 13.4979 5.95921 -1.2 -8.69004 -3.7597e+06 -4.91486e+06 444578 -768036 -1.3734e+06 182053
243 3 O 20.0003 13.364 3.44035 -1.2 -8.92425 -3.30243e+06 -4.31575e+06 -2.35642e+06 1.09977e+06 -2.51328e+06 598684
244 3 O 27.2135 14.621 3.75822 -1.2 -9.01142 -4.11801e+06 -2.72401e+06 -6.19278e+06 257712 1.40605e+06 -1.01906e+06
245 1 Mg 25.6532 17.8336 2.39134 1.2 -7.94987 3.51736e+06 161400 -934604 -1.98733e+06 -359452 -2.01735e+06
246 3 O 27.1278 12.0261 3.77591 -1.2 -8.97727 -3.28559e+06 -2.84819e+06 -4.6006e+06 193181 165588 2.53455e+06
247 1 Mg 22.7866 16.3251 2.42051 1.2 -8.48322 247243 2.97763e+06 1.62995e+06 -2792.59 150540 8253.76
248 2 Si 24.7411 16.4192 0.371725 2.4 -33.7111 8.33039e+06 1.0775e+07 3.81616e+06 -879196 -1.63042e+06 -279222
249 3 O 24.7716 16.4364 -1.16667 -1.2 -9.29717 -3.68405e+06 -4.67643e+06 -4.45526e+06 489553 -38899.4 428342
250 3 O 31.0642 16.4348 1.50664 -1.2 -8.68592 -5.34699e+06 -4.25168e+06 -4.12195e+06 -567348 -793551 -163489
251 3 O 23.9359 17.6855 1.07477 -1.2 -8.53675 -2.64797e+06 -2.85547e+06 -2.65515e+06 -241969 -207549 711534
252 3 O 24.03 15.0939 0.980384 -1.2 -8.63331 -3.84277e+06 -2.72795e+06 -3.26786e+06 -229735 -629371 -511314
253 1 Mg -0.0836215 -0.107844 4.75845 1.2 -8.03754 2.65638e+06 -277371 286105 -2.5775e+06 148789 327568
254 1 Mg 7.4168 4.65474 9.53894 1.2 -7.77111 543357 3.31092e+06 2.55547e+06 649131 -1.01229e+06 217406
255 2 Si 9.0916 4.55008 6.85491 2.4 -33.4587 1.18416e+07 8.28109e+06 2.88772e+06 -837805 126958 -75756.6
256 3 O 9.40239 4.60092 8.33013 -1.2 -9.73143 -4.40652e+06 -4.71408e+06 -5.004e+06 522703 -134561 484562
257 3 O 5.71328 4.49885 5.68629 -1.2 -8.67315 -4.28445e+06 -3.50778e+06 -2.75081e+06 -1.06745e+06 1.39269e+06 26377.1
258 3 O 8.45767 5.80541 6.14175 -1.2 -8.77386 -4.85611e+06 -2.977e+06 -3.97402e+06 1.03115e+06 -279324 -1.29537e+06
259 1 Mg -0.0380885 2.9417 4.81181 1.2 -8.44704 2.69775e+06 -841886 -826259 2.44077e+06 985968 -1.13142e+06
260 3 O 8.50496 3.25671 6.19449 -1.2 -8.92569 -5.78604e+06 -3.93058e+06 -2.78514e+06 -1.22654e+06 -265338 1.76621e+06
261 1 Mg 2.85977 1.56139 4.91037 1.2 -8.60462 48872.9 2.16755e+06 2.00744e+06 26842.7 -622949 -48141.3
262 2 Si 0.949562 1.5481 7.44229 2.4 -34.713 1.01588e+07 6.60509e+06 7.80438e+06 1.71605e+06 941184 -1.55619e+06
263 3 O 0.747897 1.54402 5.83817 -1.2 -8.94219 -3.96623e+06 -4.43274e+06 -3.04465e+06 524882 -335105 1.03683e+06
264 3 O 4.60528 1.45805 8.63707 -1.2 -8.89099 -3.67292e+06 -2.09176e+06 -2.20328e+06 841611 218203 648104
265 3 O 1.58121 2.82016 8.04328 -1.2 -8.27242 -3.69689e+06 -6.42063e+06 -3.09639e+06 -172862 69102.7 1.61445e+06
266 3 O 1.7026 0.398408 8.16282 -1.2 -8.33341 -6.10639e+06 -5.7543e+06 -2.39244e+06 1.61266e+06 577067 -563069
267 1 Mg 5.25096 2.98078 7.16368 1.2 -8.04872 4.27638e+06 156069 -480130 1.62729e+06 -1.58683e+06 566001
268 1 Mg 8.00151 1.5052 7.02939 1.2 -8.70909 -24578.6 1.4714e+06 1.40472e+06 365850 789073 -651643
269 2 Si 6.13655 1.56649 9.21909 2.4 -33.536 1.14572e+07 7.03782e+06 6.21134e+06 -1.05794e+06 -692837 257661
270 3 O 6.11165 1.66949 10.8051 -1.2 -9.26789 -3.96239e+06 -3.51035e+06 -2.72718e+06 454450 -35974.7 219879
271 3 O -0.460285 1.3666 8.21301 -1.2 -8.09049 -6.62743e+06 -4.68521e+06 -3.55685e+06 472419 -1.56819e+06 706167
272 3 O 6.83341 2.74705 8.49116 -1.2 -9.18584 -2.95135e+06 -2.94199e+06 -4.24553e+06 132310 343606 422211
273 1 Mg 5.11284 6.01781 7.0616 1.2 -8.04371 4.24138e+06 291609 -582241 -1.35413e+06 -1.77968e+06 -1.82372e+06