ITEM: TIMESTEP
4400
ITEM: NUMBER OF ATOMS
756
ITEM: BOX BOUNDS pp pp pp
0.0000000000000000e+00 3.0595500000000001e+01
0.0000000000000000e+00 1.7937600000000000e+01
0.0000000000000000e+00 1.4247000000000000e+01
ITEM: ATOMS id type element xu yu zu q c_pe c_s[1] c_s[2] c_s[3] c_s[4] c_s[5] c_s[6]
1 1 Mg -0.144104 -0.0347501 -0.017602 1.2 -8.38191 3.0915e+06 867149 -689618 -1.12727e+06 527891 1.90654e+06
2 1 Mg 7.28614 4.48325 4.77533 1.2 -8.81004 -361927 2.69231e+06 1.80656e+06 -90083.9 -414586 79516.3
3 2 Si 9.11593 4.46569 2.07424 2.4 -33.6438 1.22254e+07 7.8864e+06 7.9123e+06 -838253 -1.3333e+06 -997885
4 3 O 9.183 4.36422 3.70858 -1.2 -9.17337 -3.92265e+06 -3.85643e+06 21228.2 472659 -241367 351219
5 3 O 5.6453 4.75497 0.9397 -1.2 -8.25568 -6.28988e+06 -2.4408e+06 -3.39936e+06 -1.07102e+06 1.12643e+06 192322
6 3 O 8.4713 5.7952 1.50098 -1.2 -8.42085 -4.75211e+06 -2.79015e+06 -3.04902e+06 -20568.4 831761 -1.00302e+06
7 1 Mg -0.13617 3.02268 -0.00530967 1.2 -8.85383 2.2701e+06 -128384 -738652 1.41708e+06 886204 -1.28065e+06
8 3 O 8.51164 3.25684 1.31682 -1.2 -8.94188 -5.86766e+06 -3.84049e+06 -3.09729e+06 -950976 777749 25836.6
9 1 Mg 2.88057 1.32558 -0.0905975 1.2 -8.62339 681629 3.88961e+06 2.54837e+06 429792 -861454 754788
10 2 Si 1.0635 1.45509 2.65273 2.4 -34.4983 9.8716e+06 1.10177e+07 8.05962e+06 -714193 -599714 -1.17873e+06
11 3 O 0.843609 1.4965 1.08481 -1.2 -8.58379 -2.58089e+06 -4.4948e+06 -2.43325e+06 294572 1.50508e+06 -225391
12 3 O 4.65191 1.51318 3.6735 -1.2 -8.48561 -5.75671e+06 -4.54539e+06 -2.18482e+06 -1.21696e+06 789719 400030
13 3 O 1.72447 2.84775 3.26065 -1.2 -8.60946 -5.31696e+06 -1.2552e+06 -2.98064e+06 -420928 592052 1.85544e+06
14 3 O 1.67503 0.211829 3.39515 -1.2 -8.41618 -4.80454e+06 -2.65925e+06 -3.38739e+06 1.32472e+06 244332 -152972
15 1 Mg 5.10176 3.00158 2.3851 1.2 -8.45166 3.80226e+06 666635 -557393 1.3378e+06 -829978 1.04392e+06
16 1 Mg 7.92112 1.52642 2.33159 1.2 -8.69854 484375 2.11476e+06 2.4392e+06 -247049 1.06181e+06 -271183
17 2 Si 6.09256 1.55191 4.43639 2.4 -34.2892 1.09979e+07 8.12478e+06 4.31168e+06 -1.08434e+06 1.23197e+06 1.19586e+06
18 3 O 6.00083 1.53424 5.9247 -1.2 -9.16063 -5.44134e+06 -4.14361e+06 -5.10178e+06 348420 19648 620889
19 3 O -0.420994 1.5724 3.38037 -1.2 -8.18465 -3.60125e+06 -5.56568e+06 -3.82674e+06 901560 -1.03683e+06 301063
20 3 O 6.70397 2.72819 3.68326 -1.2 -8.59597 -6.13072e+06 -5.86861e+06 -3.19773e+06 -2.09446e+06 -373159 386791
21 1 Mg 5.14522 6.11337 2.42403 1.2 -8.50585 4.37777e+06 -203630 -1.91207e+06 -1.46163e+06 -818584 -1.21708e+06
22 3 O 6.82278 0.213106 3.673 -1.2 -8.52222 -3.12564e+06 -1.49431e+06 -1.99374e+06 -152074 -328434 1.30755e+06
23 1 Mg 2.15794 4.46056 2.29447 1.2 -9.13621 1.63143e+06 1.80189e+06 1.70486e+06 -84910.7 959271 706649
24 2 Si 4.17325 4.56775 0.279736 2.4 -34.987 1.10035e+07 7.3364e+06 7.00763e+06 -68185.3 182244 1.04128e+06
25 3 O 4.22572 4.49547 -1.2742 -1.2 -8.99144 -3.70519e+06 -4.8673e+06 -4.36869e+06 143392 -290232 101143
26 3 O 10.6293 4.48601 1.23764 -1.2 -8.7419 -4.50018e+06 -4.84331e+06 -2.04161e+06 -292732 -2.57635e+06 122084
27 3 O 3.34823 5.7893 0.93892 -1.2 -7.97293 -3.89848e+06 -4.27594e+06 -3.92415e+06 526973 -226715 1.52111e+06
28 3 O 3.57503 3.35391 1.01694 -1.2 -8.19825 -3.86988e+06 -4.88492e+06 -3.87541e+06 -924058 28838.7 -580764
29 1 Mg 10.2711 0.0213508 -0.139986 1.2 -7.62473 3.86264e+06 -660813 -1.90262e+06 -2.20081e+06 1.20739e+06 1.20366e+06
30 1 Mg 17.5294 4.47653 4.77489 1.2 -9.11656 -174870 2.40076e+06 1.68316e+06 31370.2 -934904 -321384
31 2 Si 19.4745 4.53392 2.03156 2.4 -34.056 9.75592e+06 8.80068e+06 5.06888e+06 938305 -2.07835e+06 830035
32 3 O 19.4529 4.65203 3.53019 -1.2 -8.90462 -3.32053e+06 -4.66679e+06 -3.48485e+06 -286907 -5305.48 407964
33 3 O 15.6828 4.51077 0.988456 -1.2 -8.83785 -5.07915e+06 -3.04438e+06 -3.80314e+06 -568505 1.37426e+06 307077
34 3 O 18.8432 5.74887 1.30412 -1.2 -8.80891 -4.5628e+06 -3.61963e+06 -5.47818e+06 765558 200677 624309
35 1 Mg 10.0134 3.02698 0.00617306 1.2 -8.27333 3.68081e+06 -861977 -1.54979e+06 1.46489e+06 867669 -1.75824e+06
36 3 O 18.7088 3.1391 1.44989 -1.2 -8.34166 -2.28322e+06 -851911 -3.76973e+06 -608316 1.31765e+06 1.07355e+06
37 1 Mg 12.959 1.54918 0.0296727 1.2 -8.85855 168972 1.64001e+06 1.50767e+06 -457431 -713331 -393327
38 2 Si 11.2135 1.49359 2.60107 2.4 -33.9707 1.19341e+07 6.06293e+06 5.47923e+06 -760784 -455028 -648269
39 3 O 11.026 1.54459 1.06769 -1.2 -9.23409 -5.05603e+06 -3.77937e+06 -4.19324e+06 161292 872383 -310837
40 3 O 14.7881 1.55428 3.84375 -1.2 -8.80501 -5.43002e+06 -3.30725e+06 -2.43857e+06 286992 988973 -1.18978e+06
41 3 O 11.6585 2.79472 3.27894 -1.2 -8.80657 -6.23694e+06 -4.66427e+06 -4.88295e+06 -1.53291e+06 327862 347428
42 3 O 12.0012 0.272601 3.2607 -1.2 -8.82673 -4.9298e+06 -3.0842e+06 -2.34891e+06 374205 884891 -1.38685e+06
43 1 Mg 15.3294 2.98808 2.2374 1.2 -8.25295 4.52193e+06 -385942 -361495 1.88023e+06 -220295 1.37851e+06
44 1 Mg 18.1762 1.40722 2.3791 1.2 -9.1065 -857495 2.73964e+06 1.99941e+06 -477019 619762 1.16198e+06
45 2 Si 16.2437 1.52323 4.49344 2.4 -34.5581 1.14649e+07 8.615e+06 6.56989e+06 -280220 -1.06466e+06 -1.42107e+06
46 3 O 16.252 1.47377 6.05937 -1.2 -8.90618 -4.51791e+06 -4.7022e+06 -3.37108e+06 377169 634733 1.60391e+06
47 3 O 9.71574 1.30078 3.27285 -1.2 -8.5493 -5.69186e+06 -3.72861e+06 -2.81356e+06 -973748 -795774 -248909
48 3 O 17.025 2.81064 3.92686 -1.2 -7.58388 -4.22111e+06 -4.96144e+06 -4.53981e+06 218806 -330153 -1.69502e+06
49 1 Mg 15.0303 5.97385 2.38326 1.2 -8.40657 3.81769e+06 294050 -2.09245e+06 -1.50337e+06 -1.38543e+06 -1.351e+06
50 3 O 17.007 0.375264 3.63655 -1.2 -8.64119 -3.39739e+06 -4.88135e+06 -4.52579e+06 -131909 -1.2735e+06 1.30866e+06
51 1 Mg 12.3849 4.29819 2.22151 1.2 -8.55994 309635 2.1602e+06 1.40393e+06 -872163 2.15851e+06 620818
52 2 Si 14.2138 4.55941 0.275383 2.4 -33.3026 1.04852e+07 7.4966e+06 7.01788e+06 1.46466e+06 749399 92556.4
53 3 O 14.324 4.46841 -1.26477 -1.2 -9.48716 -3.86459e+06 -3.61416e+06 -2.30037e+06 -87043.9 -507858 188970
54 3 O 20.9184 4.38208 1.31474 -1.2 -9.0261 -5.5887e+06 -3.49319e+06 -3.02961e+06 836032 -649235 -438047
55 3 O 13.5748 5.69408 1.08926 -1.2 -9.06802 -7.0837e+06 -3.14706e+06 -3.57745e+06 1.84245e+06 -669939 192634
56 3 O 13.5523 3.15531 1.02642 -1.2 -8.65786 -3.22617e+06 -2.39547e+06 -3.75653e+06 146745 -165974 -2.97369e+06
57 1 Mg 20.3962 -0.033136 -0.0435878 1.2 -8.2121 3.37817e+06 -493063 -2.15477e+06 -2.22659e+06 1.49647e+06 2.04149e+06
58 1 Mg 27.7092 4.63441 4.77365 1.2 -8.69584 266843 3.51401e+06 2.49016e+06 -172782 -651929 635384
59 2 Si 29.4771 4.5265 2.03962 2.4 -34.7234 9.95474e+06 1.18018e+07 5.90246e+06 -1.35366e+06 -1.80569e+06 -1.51067e+06
60 3 O 29.8062 4.36619 3.48223 -1.2 -8.85375 -3.40409e+06 -5.41369e+06 -6.32935e+06 -31073.1 2.10202e+06 -149454
61 3 O 26.0045 4.41242 0.938034 -1.2 -8.63521 -6.52912e+06 -4.27866e+06 -3.53119e+06 -247605 2.37434e+06 56069.7
62 3 O 28.8105 5.78485 1.30494 -1.2 -8.24689 -4.7112e+06 -2.43543e+06 -2.50149e+06 1.37882e+06 1.18235e+06 -1.66678e+06
63 1 Mg 20.4287 2.81461 0.0995778 1.2 -8.08129 3.72056e+06 -1.03045e+06 -1.98222e+06 1.62306e+06 709182 -1.21795e+06
64 3 O 28.9682 3.12884 1.32106 -1.2 -8.32049 -5.52406e+06 -1.8718e+06 -3.97347e+06 -925910 567479 1.59273e+06
65 1 Mg 23.1256 1.40651 -0.0963243 1.2 -8.70146 -1.05057e+06 3.77697e+06 1.1811e+06 385243 -840035 821156
66 2 Si 21.3998 1.49674 2.68314 2.4 -33.4681 1.14521e+07 8.81465e+06 9.69126e+06 358028 -1.57731e+06 1.42937e+06
67 3 O 21.4504 1.42432 1.03135 -1.2 -9.25591 -4.56895e+06 -5.84156e+06 -472842 286345 -250336 751808
68 3 O 24.9074 1.50812 3.648 -1.2 -9.28217 -4.98438e+06 -3.1907e+06 -2.93024e+06 313464 600139 -126584
69 3 O 22.1253 2.81037 3.43159 -1.2 -8.5776 -3.09785e+06 -266017 -2.33545e+06 36301.2 873172 1.913e+06
70 3 O 21.9686 0.227668 3.41931 -1.2 -8.76336 -4.35529e+06 -4.467e+06 -3.01044e+06 1.59889e+06 1.10909e+06 -1.43469e+06
71 1 Mg 25.6369 2.9834 2.32628 1.2 -8.19346 4.12614e+06 -489840 -1.54701e+06 1.87829e+06 -333330 1.57836e+06
72 1 Mg 28.3656 1.48736 2.32686 1.2 -8.82622 863781 2.70548e+06 2.22568e+06 578787 596387 807904
73 2 Si 26.3437 1.48791 4.32876 2.4 -33.4851 1.04275e+07 7.89602e+06 7.11569e+06 1.32812e+06 314499 -560612
74 3 O 26.3652 1.4318 5.90967 -1.2 -8.97731 -2.94073e+06 -3.31113e+06 -1.03618e+06 24662.1 451810 384703
75 3 O 19.9383 1.51554 3.45792 -1.2 -8.70153 -6.32897e+06 -3.13541e+06 -1.01355e+06 2.07895e+06 -2.47824e+06 375605
76 3 O 27.1496 2.8001 3.73482 -1.2 -8.58228 -3.22965e+06 -1.34619e+06 -2.83937e+06 876485 -1.30958e+06 -206320
77 1 Mg 25.5329 6.00493 2.37943 1.2 -8.39171 3.01864e+06 144975 -1.14247e+06 -1.53008e+06 -299118 -184950
78 3 O 27.1441 0.270939 3.6929 -1.2 -9.10725 -1.98027e+06 -4.08439e+06 -4.56651e+06 -170045 174894 463176
79 1 Mg 22.6693 4.55621 2.35058 1.2 -8.4072 414871 3.62656e+06 2.05057e+06 132307 577605 50140.1
80 2 Si 24.5079 4.52638 0.215679 2.4 -34.0136 9.08965e+06 8.22925e+06 5.11299e+06 783268 1.00384e+06 -491297
81 3 O 24.5159 4.43033 -1.27422 -1.2 -9.38948 -3.11088e+06 -3.11032e+06 -6.30341e+06 -258654 71369 596600
82 3 O 30.9768 4.49659 1.22733 -1.2 -7.78111 -4.58314e+06 -6.19265e+06 -3.97091e+06 -1.0239e+06 -1.22019e+06 22079.1
83 3 O 24.0379 5.84242 0.93757 -1.2 -8.7349 -4.8228e+06 -6.3172e+06 -3.7629e+06 1.43035e+06 -1.46936e+06 1.43358e+06
84 3 O 23.7737 3.33027 0.939175 -1.2 -8.32908 -4.1401e+06 -2.89015e+06 -3.02168e+06 -1.6975e+06 -496529 193096
85 1 Mg 0.0737361 5.89103 -0.218914 1.2 -8.45735 2.59183e+06 -9148.94 -578821 -2.43622e+06 1.13132e+06 1.73094e+06
86 1 Mg 7.36345 10.4655 4.73479 1.2 -8.75087 -798582 2.0488e+06 1.35533e+06 419390 -754841 767143
87 2 Si 9.27007 10.5315 2.19379 2.4 -33.2828 9.94593e+06 8.61488e+06 7.6418e+06 831059 1.67216e+06 1.02851e+06
88 3 O 9.24769 10.5061 3.82092 -1.2 -9.34046 -4.72851e+06 -4.77484e+06 -726177 202481 128974 -262639
89 3 O 5.55676 10.471 1.02861 -1.2 -8.97356 -2.78987e+06 -4.06737e+06 -2.0856e+06 1.90477e+06 981076 419414
90 3 O 8.51524 11.7026 1.45316 -1.2 -8.99157 -3.06191e+06 -4.90074e+06 -3.30904e+06 603485 717955 -1.09474e+06
91 1 Mg 0.0501546 8.84727 0.0460332 1.2 -8.30955 2.71435e+06 308163 -294702 1.94032e+06 983511 -1.85499e+06
92 3 O 8.58501 9.21806 1.4114 -1.2 -8.40943 -2.56776e+06 -3.61988e+06 -2.35899e+06 -132517 773916 1.50036e+06
93 1 Mg 2.80875 7.45196 -0.015337 1.2 -8.52261 -81551.8 1.98474e+06 1.82376e+06 -316921 -685035 -152516
94 2 Si 1.0102 7.4643 2.66027 2.4 -34.6141 1.07358e+07 7.15983e+06 5.3619e+06 -416097 199320 3.11387e+06
95 3 O 0.732709 7.34635 1.15663 -1.2 -8.70278 -4.94668e+06 -5.06487e+06 -4.64785e+06 1.485e+06 730995 965186
96 3 O 4.63614 7.52916 3.75699 -1.2 -8.70181 -5.43141e+06 -3.92912e+06 -3.27305e+06 -741089 1.54725e+06 -786711
97 3 O 1.73554 8.74152 3.37404 -1.2 -8.62026 -3.7856e+06 -3.65694e+06 -3.48546e+06 -148239 924217 1.81048e+06
98 3 O 1.61742 6.23071 3.26613 -1.2 -8.50664 -5.1921e+06 -5.14025e+06 -5.50234e+06 1.9273e+06 -462685 -549084
99 1 Mg 5.079 9.06424 2.5114 1.2 -8.0331 4.03555e+06 -605351 -1.05021e+06 2.02683e+06 -1.08691e+06 1.38991e+06
100 1 Mg 7.87831 7.49682 2.34779 1.2 -9.03593 -253358 2.98313e+06 1.53083e+06 -5841.64 540130 -191504
101 2 Si 6.1175 7.39409 4.4791 2.4 -33.8615 1.08443e+07 9.0245e+06 6.38048e+06 643854 301530 -816612
102 3 O 5.98832 7.47815 6.02015 -1.2 -9.33084 -4.40687e+06 -4.08829e+06 -3.3792e+06 457576 -189764 372744
103 3 O -0.469205 7.5411 3.35376 -1.2 -8.26915 -5.24424e+06 -3.99196e+06 -5.30853e+06 954053 -271226 -466800
104 3 O 6.75064 8.78331 3.78943 -1.2 -8.40111 -3.96429e+06 -1.91587e+06 -4.04818e+06 -1.08409e+06 -798213 -1.97733e+06
105 1 Mg 5.14874 11.9143 2.40108 1.2 -7.69587 3.83857e+06 217157 -449350 -2.31139e+06 -913911 -1.89775e+06
106 3 O 6.74601 6.20085 3.71507 -1.2 -8.59137 -5.36681e+06 -4.03728e+06 -4.67488e+06 381100 -315726 722538
107 1 Mg 2.32632 10.3989 2.44467 1.2 -8.4772 -626018 2.80563e+06 816833 110634 1.92592e+06 -221284
108 2 Si 3.94382 10.3317 0.412494 2.4 -32.9886 1.07931e+07 9.02002e+06 3.90892e+06 234252 1.29134e+06 -2.22839e+06
109 3 O 4.00998 10.5704 -1.1326 -1.2 -9.44154 -4.18719e+06 -3.5786e+06 -3.15486e+06 731393 -1.21072e+06 -1.56664e+06
110 3 O 10.7124 10.5524 1.58943 -1.2 -9.55811 -6.29023e+06 -2.60902e+06 -2.12795e+06 -742712 -1.65901e+06 230840
111 3 O 3.29985 11.5913 1.02798 -1.2 -8.7988 -4.72206e+06 -3.06669e+06 -5.23292e+06 984871 1.59131e+06 -350399
112 3 O 3.39354 9.03448 1.10272 -1.2 -9.40134 -3.27773e+06 -3.91078e+06 -2.33237e+06 364081 145756 120689
113 1 Mg 10.1596 5.89931 -0.070367 1.2 -8.40739 3.68573e+06 -553215 -950675 -2.18917e+06 806122 1.5457e+06
114 1 Mg 17.4494 10.4161 4.62571 1.2 -9.05636 -813883 1.73388e+06 2.48439e+06 118241 -275644 231236
115 2 Si 19.3915 10.5391 2.02036 2.4 -33.4342 9.48276e+06 8.55239e+06 7.45218e+06 1.67139e+06 -217996 179535
116 3 O 19.2897 10.5061 3.66578 -1.2 -8.89595 -4.24709e+06 -4.94335e+06 89614.7 332000 702256 -350145
117 3 O 15.814 10.626 1.03723 -1.2 -8.37183 -3.91325e+06 -3.09846e+06 -3.40228e+06 229695 1.46432e+06 -381330
118 3 O 18.5994 11.6896 1.29253 -1.2 -9.05681 -4.65569e+06 -3.79772e+06 -4.93946e+06 -797719 233104 -738371
119 1 Mg 10.2602 9.11715 0.080702 1.2 -7.77078 3.95153e+06 725536 -571703 1.55609e+06 225540 -889709
120 3 O 18.7489 9.16915 1.33663 -1.2 -8.67964 -2.95406e+06 -1.92651e+06 -4.21723e+06 202417 1.17456e+06 1.33332e+06
121 1 Mg 12.9803 7.52968 0.0538685 1.2 -8.09954 1.30199e+06 2.18745e+06 1.55556e+06 894401 -713069 -455797
122 2 Si 11.1418 7.53238 2.67213 2.4 -33.837 1.16382e+07 7.65882e+06 6.07646e+06 318512 748720 2.11893e+06
123 3 O 11.1057 7.41206 1.14779 -1.2 -9.32761 -4.49398e+06 -2.48389e+06 -3.91261e+06 524593 -775832 968735
124 3 O 14.7439 7.47567 3.79399 -1.2 -8.66931 -6.12349e+06 -3.90851e+06 -2.48059e+06 415430 1.84996e+06 -749564
125 3 O 11.8347 8.79145 3.47038 -1.2 -8.74872 -3.5567e+06 -2.96899e+06 -1.48621e+06 -149534 277820 1.33323e+06
126 3 O 11.8112 6.27518 3.36604 -1.2 -8.51517 -5.19559e+06 -2.74805e+06 -3.7521e+06 1.54032e+06 940160 -891544
127 1 Mg 15.3125 9.01153 2.38445 1.2 -8.41308 3.29289e+06 -226025 -1.31771e+06 2.40002e+06 -313246 -234520
128 1 Mg 18.0227 7.43947 2.25643 1.2 -8.93068 914268 3.83452e+06 2.22833e+06 376429 647967 148790
129 2 Si 16.2366 7.41056 4.4623 2.4 -34.087 1.02368e+07 9.55084e+06 5.2495e+06 627262 56368.1 1.12404e+06
130 3 O 16.1795 7.44439 5.96273 -1.2 -9.56278 -4.39703e+06 -4.35823e+06 -5.2595e+06 -520482 117993 688316
131 3 O 9.70038 7.4969 3.45216 -1.2 -8.71509 -6.23486e+06 -3.09088e+06 -3.33979e+06 491821 -2.27805e+06 -879961
132 3 O 16.925 8.72326 3.74029 -1.2 -8.21991 -4.43014e+06 -3.58559e+06 -3.57872e+06 -764820 -646687 -2.14485e+06
133 1 Mg 15.2656 12.0572 2.42847 1.2 -7.95132 3.58325e+06 -718187 -1.12045e+06 -2.22766e+06 -820445 -1.48054e+06
134 3 O 16.8315 6.18127 3.63201 -1.2 -8.33007 -3.95721e+06 -4.48749e+06 -1.36277e+06 580564 -402677 825709
135 1 Mg 12.5342 10.5392 2.64135 1.2 -8.17467 731740 1.39792e+06 615951 619467 305460 -928147
136 2 Si 14.2015 10.5255 0.352314 2.4 -33.1967 1.05026e+07 6.85325e+06 5.23805e+06 -622892 945211 -170230
137 3 O 14.4227 10.4259 -1.16674 -1.2 -9.70558 -4.44555e+06 -4.60759e+06 -5.03136e+06 312147 -919713 774434
138 3 O 20.8253 10.6059 1.47526 -1.2 -9.33317 -6.73494e+06 -3.84323e+06 -3.36603e+06 -749378 -673967 913981
139 3 O 13.6165 11.7855 1.06532 -1.2 -9.23151 -4.83583e+06 -1.66989e+06 -2.55608e+06 1.32708e+06 -91524.1 790237
140 3 O 13.6916 9.23382 1.00257 -1.2 -9.20367 -4.10353e+06 -3.35004e+06 -3.99918e+06 -1.24342e+06 78990.5 -49031.2
141 1 Mg 20.3195 5.91194 -0.0424529 1.2 -7.97078 3.34434e+06 271553 -1.4947e+06 -1.93494e+06 1.41278e+06 1.51389e+06
142 1 Mg 27.7709 10.687 4.6867 1.2 -8.97491 -1.07643e+06 2.22152e+06 1.49426e+06 867856 -780133 1.00699e+06
143 2 Si 29.5824 10.4769 1.98577 2.4 -34.2029 1.01606e+07 9.23309e+06 5.88626e+06 -839596 -1.37201e+06 -1.27679e+06
144 3 O 29.6236 10.4402 3.53408 -1.2 -8.97385 -3.55812e+06 -6.01706e+06 -3.18719e+06 -587656 647286 -823522
145 3 O 26.096 10.4136 1.0616 -1.2 -8.57307 -5.24207e+06 -3.85029e+06 -4.83175e+06 316776 817981 621838
146 3 O 28.9209 11.7754 1.26204 -1.2 -8.8596 -2.31518e+06 -2.66342e+06 -3.05674e+06 -723984 574288 -781853
147 1 Mg 20.306 8.95551 0.1128 1.2 -7.83278 3.60691e+06 -27117.7 -1.52449e+06 2.22544e+06 1.69784e+06 -2.39918e+06
148 3 O 29.0052 9.21642 1.35344 -1.2 -8.49357 -4.61122e+06 -4.51484e+06 -5.24346e+06 -841283 -719948 -313908
149 1 Mg 23.2878 7.42611 0.128121 1.2 -8.69798 -16449.3 1.43798e+06 995764 657126 -1.11224e+06 479068
150 2 Si 21.3395 7.52559 2.68846 2.4 -33.673 1.14441e+07 7.0995e+06 4.60943e+06 1.4093e+06 -566495 1.11759e+06
151 3 O 21.2563 7.39976 1.18437 -1.2 -9.29535 -4.44892e+06 -3.02019e+06 -5.05888e+06 -296643 327132 176355
152 3 O 25.1364 7.40461 3.74993 -1.2 -8.247 -4.74222e+06 -4.23506e+06 -4.50793e+06 -79426.8 2.07359e+06 -367408
153 3 O 22.0173 8.80679 3.3632 -1.2 -8.58246 -3.69686e+06 -3.06852e+06 -2.87265e+06 -1.13384e+06 9143.67 1.07116e+06
154 3 O 22.0795 6.30798 3.36345 -1.2 -9.05456 -3.564e+06 -3.64557e+06 -4.30753e+06 262707 -453681 -839885
155 1 Mg 25.6322 8.91155 2.32214 1.2 -8.52895 3.62213e+06 -40058.8 -297663 1.26664e+06 -992999 1.46289e+06
156 1 Mg 28.3155 7.48744 2.22525 1.2 -9.10809 127116 2.30054e+06 2.02794e+06 -77310.1 341014 246707
157 2 Si 26.6489 7.52126 4.47625 2.4 -34.7546 1.09681e+07 8.72818e+06 6.82689e+06 -230835 -357808 292037
158 3 O 26.4103 7.54123 5.98847 -1.2 -8.74487 -3.76522e+06 -4.21223e+06 -4.56981e+06 -587221 -1.25976e+06 422073
159 3 O 19.8741 7.52962 3.45877 -1.2 -8.71048 -4.70703e+06 -3.98438e+06 -1.38495e+06 -324075 -950703 -465907
160 3 O 27.1309 8.85502 3.79645 -1.2 -8.15621 -5.13304e+06 -3.49849e+06 -3.55982e+06 -902913 355782 -799504
161 1 Mg 25.5435 12.0321 2.28607 1.2 -8.15679 3.52519e+06 -44330.5 -2.10501e+06 -2.55301e+06 -823861 -1.80149e+06
162 3 O 27.3629 6.29451 3.7168 -1.2 -8.58905 -4.38606e+06 -2.62522e+06 -3.7944e+06 916837 -376678 1.28366e+06
163 1 Mg 22.6084 10.6207 2.41886 1.2 -8.78839 -93067.4 1.42574e+06 1.56244e+06 645324 956553 -2.1592e+06
164 2 Si 24.6003 10.4233 0.399797 2.4 -34.1867 9.2588e+06 9.24703e+06 7.59764e+06 -1.1697e+06 -714814 -930735
165 3 O 24.8295 10.4758 -1.15661 -1.2 -9.04285 -4.38263e+06 -6.14517e+06 -3.15084e+06 -431449 8529.99 692948
166 3 O 31.1457 10.4391 1.36277 -1.2 -8.71031 -3.27794e+06 -3.61243e+06 -2.84278e+06 -1.70497e+06 -772265 196855
167 3 O 23.9515 11.6905 1.11209 -1.2 -8.47632 -3.59911e+06 -3.00571e+06 -4.89578e+06 1.60917e+06 -565930 1.29086e+06
168 3 O 23.9871 9.09785 1.01302 -1.2 -8.5411 -3.63047e+06 -2.88851e+06 -4.52272e+06 -518331 -413584 -1.50298e+06
169 1 Mg 0.0136753 11.8801 -0.0730964 1.2 -8.04239 3.17978e+06 472657 -729236 -1.51486e+06 592614 1.40607e+06
170 1 Mg 7.35709 16.3737 4.51668 1.2 -8.22338 160405 2.91028e+06 2.76261e+06 -1.14339e+06 -706942 -279049
171 2 Si 9.33338 16.6762 1.96372 2.4 -33.1182 1.03674e+07 9.74702e+06 3.59148e+06 1.35395e+06 539037 1.25616e+06
172 3 O 9.50089 16.5082 3.50994 -1.2 -9.4722 -3.83164e+06 -5.87495e+06 -1.52301e+06 26564.7 -4023.99 -647918
173 3 O 5.58934 16.37 0.997736 -1.2 -8.95935 -4.54281e+06 -4.16009e+06 -2.55799e+06 1.25716e+06 1.04325e+06 -751856
174 3 O 8.57028 17.7816 1.32426 -1.2 -9.15584 -3.57192e+06 -5.87192e+06 -4.36392e+06 360951 -1.04371e+06 -14085.2
175 1 Mg 0.058708 14.9416 -0.054395 1.2 -8.15095 2.82696e+06 436189 -1.80794e+06 1.75138e+06 691893 -1.88975e+06
176 3 O 8.53087 15.2476 1.389 -1.2 -8.52945 -2.69961e+06 -447842 -2.89767e+06 985368 102893 240161
177 1 Mg 2.6894 13.3344 0.01261 1.2 -8.63226 -342878 3.54873e+06 2.00393e+06 162382 -595390 171929
178 2 Si 1.05844 13.381 2.66998 2.4 -33.4391 9.73146e+06 8.76889e+06 6.23514e+06 1.01173e+06 -1.119e+06 -914173
179 3 O 1.00724 13.3785 1.09471 -1.2 -9.16932 -4.50451e+06 -5.14615e+06 -2.32686e+06 -157887 -48711.8 -241130
180 3 O 4.63708 13.5582 3.7854 -1.2 -9.62354 -3.62222e+06 -2.44043e+06 -2.26662e+06 -1.23602e+06 1.12393e+06 578537
181 3 O 1.70198 14.6873 3.21221 -1.2 -9.08742 -2.05383e+06 -5.4737e+06 -5.13585e+06 -1.05056e+06 529579 487608
182 3 O 1.71069 12.1292 3.34819 -1.2 -8.8956 -3.39896e+06 -3.45151e+06 -4.55573e+06 620270 597113 -515055
183 1 Mg 5.15409 15.0221 2.50092 1.2 -7.85862 3.92492e+06 614267 -1.30566e+06 1.07651e+06 -1.18178e+06 2.22702e+06
184 1 Mg 8.06555 13.426 2.41538 1.2 -8.51651 -844542 3.27968e+06 1.83891e+06 671477 1.16099e+06 -785490
185 2 Si 6.12576 13.3824 4.43022 2.4 -32.6732 9.91517e+06 9.31924e+06 7.7706e+06 -866699 419978 -1.09245e+06
186 3 O 6.14616 13.3996 6.0145 -1.2 -9.54237 -2.25811e+06 -3.95489e+06 -362063 -89789.5 -132212 487149
187 3 O -0.512292 13.2912 3.33522 -1.2 -9.01235 -2.03371e+06 -3.34869e+06 -3.23038e+06 -118939 -1.06812e+06 708394
188 3 O 6.83416 14.6587 3.68997 -1.2 -9.19552 -3.457e+06 -2.10367e+06 -3.76687e+06 -436761 -741424 -1.0221e+06
189 1 Mg 5.16426 18.0093 2.11852 1.2 -8.04274 4.01595e+06 -53640.6 225192 -1.29816e+06 -861246 -914206
190 3 O 6.88935 12.0791 3.77069 -1.2 -8.98294 -1.70367e+06 -3.31413e+06 -3.93961e+06 -386911 -382837 1.67471e+06
191 1 Mg 2.33112 16.334 2.4156 1.2 -8.82904 -829072 2.9068e+06 1.66354e+06 -560687 1.32927e+06 973287
192 2 Si 4.07054 16.2944 0.355167 2.4 -33.5426 9.21804e+06 8.56167e+06 6.57342e+06 -1.42157e+06 667569 175849
193 3 O 4.1562 16.5274 -1.23021 -1.2 -9.07118 -2.36602e+06 -3.38941e+06 -2.68577e+06 1.15766e+06 -789146 -1.07017e+06
194 3 O 10.8113 16.5066 1.30082 -1.2 -9.37297 -4.01556e+06 -4.22298e+06 -3.70083e+06 -1.45329e+06 -407508 97086.6
195 3 O 3.43977 17.6481 0.999678 -1.2 -8.79144 -3.50683e+06 -1.56359e+06 -4.73736e+06 741937 -183500 442744
196 3 O 3.48178 15.077 1.04587 -1.2 -8.95757 -4.52809e+06 -4.88743e+06 -2.80391e+06 -504693 1.21106e+06 -237184
197 1 Mg 10.1018 11.9625 0.0328764 1.2 -7.57326 3.77142e+06 -233089 -768710 -1.38476e+06 991298 1.16983e+06
198 1 Mg 17.5007 16.5138 4.66843 1.2 -8.33075 466265 3.35121e+06 1.27854e+06 -219898 -2.16484e+06 -867040
199 2 Si 19.631 16.466 2.15814 2.4 -33.4503 1.05745e+07 9.11118e+06 4.78472e+06 -1.4282e+06 -168905 373500
200 3 O 19.5574 16.407 3.65669 -1.2 -9.55081 -3.91332e+06 -3.98863e+06 -4.5189e+06 633889 -380831 -499317
201 3 O 15.8401 16.6122 1.21089 -1.2 -9.56372 -5.85982e+06 -4.24493e+06 -3.10816e+06 78712.3 1.22444e+06 -691802
202 3 O 18.9389 17.6701 1.3639 -1.2 -8.86394 -4.18837e+06 -4.05725e+06 -2.69966e+06 1.8467e+06 1.47631e+06 -1.15338e+06
203 1 Mg 10.2709 15.0692 0.0727045 1.2 -7.65765 3.20945e+06 -1.27697e+06 -1.12599e+06 1.98874e+06 431238 -2.27461e+06
204 3 O 18.8147 15.1502 1.39921 -1.2 -8.8321 -3.53439e+06 -3.01441e+06 -3.16643e+06 909573 970764 1.8666e+06
205 1 Mg 12.9497 13.6904 0.18397 1.2 -7.78322 346761 3.13837e+06 2.16113e+06 -790104 -1.20974e+06 -46226.2
206 2 Si 11.1983 13.4125 2.8018 2.4 -33.0781 9.89795e+06 8.91841e+06 4.29197e+06 -1.03054e+06 81124.4 -540331
207 3 O 11.0677 13.5468 1.29266 -1.2 -9.69273 -3.4887e+06 -3.46818e+06 -3.67491e+06 523669 68515.4 -1.15879e+06
208 3 O 14.6937 13.2616 3.86132 -1.2 -9.10162 -1.52911e+06 -3.4871e+06 -2.38869e+06 520183 1.28931e+06 -739487
209 3 O 11.8666 14.676 3.46738 -1.2 -9.03049 -4.85875e+06 -2.56884e+06 -3.24033e+06 -847582 -484358 859773
210 3 O 11.9277 12.1166 3.50261 -1.2 -9.17636 -4.09346e+06 -4.02572e+06 -3.45503e+06 -118462 -186564 -2.36266e+06
211 1 Mg 15.4468 14.956 2.43251 1.2 -7.25268 3.10033e+06 568123 -1.7112e+06 1.66708e+06 -1.67663e+06 1.42852e+06
212 1 Mg 18.1002 13.5024 2.31065 1.2 -8.27259 -232992 3.50479e+06 1.58955e+06 574536 610031 -236142
213 2 Si 16.2982 13.4548 4.48967 2.4 -32.8363 1.17131e+07 9.55374e+06 3.95348e+06 -1.38772e+06 -482931 2.14094e+06
214 3 O 16.2355 13.3918 6.03057 -1.2 -9.37635 -4.57071e+06 -4.61537e+06 -3.22973e+06 339254 -974900 -11020.3
215 3 O 9.72788 13.4102 3.50361 -1.2 -9.06805 -4.95967e+06 -3.3282e+06 -2.84326e+06 -1.00054e+06 -1.13846e+06 643764
216 3 O 16.8493 14.7225 3.82107 -1.2 -9.66711 -3.39044e+06 -3.88699e+06 -3.58243e+06 321983 114001 -59331.2
217 1 Mg 15.3601 17.9575 2.49551 1.2 -7.91166 4.1133e+06 -781080 -1.78989e+06 -1.0352e+06 -1.09703e+06 -2.50197e+06
218 3 O 17.0986 12.1755 3.78749 -1.2 -8.63833 -3.05299e+06 -2.52519e+06 -3.32969e+06 89311 -553394 497161
219 1 Mg 12.5475 16.485 2.39718 1.2 -8.43925 -220125 3.22114e+06 852849 971464 1.09489e+06 -1.23447e+06
220 2 Si 14.4877 16.4976 0.42432 2.4 -32.728 9.65383e+06 7.99283e+06 6.61835e+06 -1.0615e+06 -926098 957007
221 3 O 14.4632 16.402 -1.16025 -1.2 -9.65758 -4.25273e+06 -3.50062e+06 -1.14505e+06 311583 1.18088e+06 -1.25421e+06
222 3 O 21.0028 16.3926 1.34726 -1.2 -8.55269 -5.57043e+06 -4.49784e+06 -2.04184e+06 1.37656e+06 -799416 571504
223 3 O 13.6751 17.8697 0.986145 -1.2 -8.45063 -2.85406e+06 -2.21393e+06 -3.51632e+06 -462699 -160305 1.32976e+06
224 3 O 13.6874 15.3378 1.13671 -1.2 -9.59856 -2.66863e+06 -4.06606e+06 -3.57937e+06 -367809 -221431 -374914
225 1 Mg 20.2643 11.941 0.0362032 1.2 -8.01359 3.82528e+06 -108640 -503217 -885801 1.3753e+06 1.59484e+06
226 1 Mg 27.6058 16.5736 4.62536 1.2 -8.30034 275953 2.41864e+06 2.50807e+06 935353 -850304 288656
227 2 Si 29.7008 16.4022 2.12213 2.4 -33.5595 1.09297e+07 8.91625e+06 4.58033e+06 602071 -370941 1.1779e+06
228 3 O 29.848 16.5505 3.59959 -1.2 -9.52507 -4.02857e+06 -3.46924e+06 -6.07086e+06 -822296 -389618 922397
229 3 O 26.0287 16.5206 0.886727 -1.2 -8.91009 -4.00821e+06 -3.94984e+06 -1.48249e+06 -641851 874367 325648
230 3 O 28.9878 17.6714 1.43621 -1.2 -8.61876 -3.76473e+06 -3.79829e+06 -2.79212e+06 -525458 681233 -1.18236e+06
231 1 Mg 20.0794 14.8923 -0.0293807 1.2 -8.10225 3.3348e+06 646613 -756405 1.26099e+06 2.23949e+06 -1.25793e+06
232 3 O 29.0301 15.1573 1.39482 -1.2 -9.03767 -2.79549e+06 -5.12141e+06 -2.47347e+06 -516517 1.03068e+06 1.60776e+06
233 1 Mg 23.2147 13.5899 -0.0391134 1.2 -8.94418 -164615 4.1441e+06 2.36971e+06 -825635 -1.18558e+06 -363147
234 2 Si 21.4257 13.4098 2.78549 2.4 -33.979 8.96981e+06 1.01099e+07 8.56026e+06 715458 -60247.1 32203.2
235 3 O 21.3524 13.3757 1.12874 -1.2 -8.53046 -2.1115e+06 -4.85937e+06 -169911 325188 1.54418e+06 -257644
236 3 O 24.8475 13.3959 3.65409 -1.2 -8.92448 -2.2711e+06 -4.52252e+06 -2.73013e+06 -342122 1.35741e+06 -923307
237 3 O 22.0452 14.8081 3.37602 -1.2 -8.43689 -3.03484e+06 -813699 -4.19698e+06 189579 -505744 798600
238 3 O 22.1405 12.1418 3.39465 -1.2 -8.90926 -3.89034e+06 -4.45689e+06 -5.16271e+06 927235 -16331.6 -1.40615e+06
239 1 Mg 25.4261 14.9449 2.44424 1.2 -7.85872 3.01256e+06 -106672 -167088 2.29047e+06 -1.79393e+06 1.90911e+06
240 1 Mg 28.2873 13.5155 2.18419 1.2 -8.34971 -5345.6 2.90275e+06 1.38536e+06 -587381 421662 -217814
241 2 Si 26.4375 13.5009 4.3497 2.4 -33.0827 1.06696e+07 8.77196e+06 5.72929e+06 -1.15711e+06 1.51277e+06 2.36035e+06
242 3 O 26.4465 13.5399 5.90083 -1.2 -9.21244 -3.30725e+06 -5.47527e+06 -2.27849e+06 555887 752585 -562855
243 3 O 19.9228 13.4077 3.26191 -1.2 -9.078 -4.26774e+06 -3.37213e+06 -3.22367e+06 -827463 724574 524340
244 3 O 26.9664 14.7791 3.69618 -1.2 -9.28758 -3.25756e+06 -3.27616e+06 -5.14874e+06 -105989 -257425 48451.8
245 1 Mg 25.4553 17.9102 2.29874 1.2 -7.848 3.94807e+06 241541 -781586 -1.57995e+06 -1.03182e+06 -1.66071e+06
246 3 O 27.182 12.197 3.68091 -1.2 -8.91348 -2.5399e+06 -3.68154e+06 -3.68478e+06 214858 -940879 1.28003e+06
247 1 Mg 22.7604 16.5215 2.42789 1.2 -8.91716 -1.58213e+06 3.73776e+06 2.52332e+06 296452 664062 7187.96
248 2 Si 24.5281 16.4667 0.242631 2.4 -33.8929 1.10919e+07 9.35859e+06 6.356e+06 720657 72403.1 -323080
249 3 O 24.468 16.373 -1.33706 -1.2 -9.00217 -3.69431e+06 -5.19913e+06 -2.55797e+06 -1.51084e+06 259803 -595177
250 3 O 31.1926 16.4274 1.2634 -1.2 -8.54479 -3.2631e+06 -4.19868e+06 -2.44762e+06 -123876 -1.54585e+06 -530278
251 3 O 23.8491 17.7561 0.934631 -1.2 -8.62333 -4.32856e+06 -4.29129e+06 -2.9599e+06 -388424 -80412.8 1.01769e+06
252 3 O 23.8957 15.223 1.02396 -1.2 -8.72073 -3.82076e+06 -3.27079e+06 -2.78422e+06 -474960 -51655.7 -222638
253 1 Mg -0.29086 0.100247 4.83847 1.2 -8.26478 2.77374e+06 263349 -1.05158e+06 -2.13975e+06 346824 324684
254 1 Mg 7.34574 4.62309 9.48121 1.2 -8.39384 -266281 1.53721e+06 2.97707e+06 -306200 -689764 250157
255 2 Si 9.20836 4.38973 6.71715 2.4 -33.6099 1.19482e+07 9.95955e+06 4.93505e+06 -453469 234641 -748613
256 3 O 9.25351 4.44688 8.22118 -1.2 -9.44327 -4.93438e+06 -2.57228e+06 -4.09526e+06 -709004 357359 664689
257 3 O 5.56493 4.55402 5.66363 -1.2 -8.59433 -4.78598e+06 -2.98051e+06 -3.66523e+06 -1.26473e+06 962123 14496.2
258 3 O 8.41681 5.70523 6.05477 -1.2 -8.70618 -3.12655e+06 -217007 -2.82907e+06 -931255 -71188.8 -653477
259 1 Mg 0.212262 3.07573 4.64473 1.2 -8.47099 3.40019e+06 -692370 319553 1.51482e+06 610682 -1.19275e+06
260 3 O 8.61096 3.02504 6.04678 -1.2 -8.59654 -3.67947e+06 -2.72654e+06 -4.8598e+06 -551990 267358 2.22537e+06
261 1 Mg 2.82262 1.39388 4.70618 1.2 -8.63214 611618 2.43717e+06 1.75665e+06 1.16598e+06 -1.34441e+06 835984
262 2 Si 1.0366 1.44779 7.42304 2.4 -33.6086 8.66301e+06 8.54991e+06 8.76351e+06 -211547 37222.7 1.58122e+06
263 3 O 0.834672 1.41384 5.89369 -1.2 -9.2635 -3.10574e+06 -3.99546e+06 -3.48019e+06 1.48156e+06 -296664 -520073
264 3 O 4.65701 1.65711 8.36892 -1.2 -8.99864 -3.45497e+06 -4.52309e+06 -3.7835e+06 -70640.9 2.73146e+06 1.0491e+06
265 3 O 1.71368 2.7823 8.15948 -1.2 -8.52731 -2.57223e+06 -1.79535e+06 -2.98704e+06 46291.1 342572 1.66277e+06
266 3 O 1.73206 0.226302 8.05413 -1.2 -8.999 -2.07271e+06 -3.7561e+06 -5.20368e+06 520141 163129 -584709
267 1 Mg 5.03502 3.06141 7.1418 1.2 -8.16672 3.20762e+06 -911929 -592347 1.83888e+06 -1.10562e+06 2.28146e+06
268 1 Mg 7.91812 1.62828 7.12124 1.2 -8.6749 321068 827916 1.10391e+06 -242545 1.73754e+06 607841
269 2 Si 6.14949 1.65047 9.16067 2.4 -32.819 1.03797e+07 9.08576e+06 7.47032e+06 407254 -363452 -364937
270 3 O 6.07018 1.65355 10.7069 -1.2 -9.66404 -5.19882e+06 -3.45517e+06 -2.61275e+06 -84645.7 245006 -1.25835e+06
271 3 O -0.482328 1.54861 8.16944 -1.2 -9.15589 -3.21716e+06 -2.7968e+06 -3.07775e+06 -539757 -2.16465e+06 550950
272 3 O 6.79221 2.96981 8.38736 -1.2 -8.93089 -3.97573e+06 -1.03836e+06 -3.02332e+06 -322886 -665638 -1.56051e+06