ITEM: TIMESTEP
4500
ITEM: NUMBER OF ATOMS
756
ITEM: BOX BOUNDS pp pp pp
0.0000000000000000e+00 3.0595500000000001e+01
0.0000000000000000e+00 1.7937600000000000e+01
0.0000000000000000e+00 1.4247000000000000e+01
ITEM: ATOMS id type element xu yu zu q c_pe c_s[1] c_s[2] c_s[3] c_s[4] c_s[5] c_s[6]
1 1 Mg -0.120683 -0.0221668 -0.0282476 1.2 -8.36137 3.15215e+06 -254510 -65880.7 -1.20474e+06 911701 1.28257e+06
2 1 Mg 7.35134 4.477 4.76487 1.2 -8.61217 -523701 3.58709e+06 1.65488e+06 69827.6 -820055 206581
3 2 Si 9.11319 4.47774 2.10256 2.4 -33.3083 1.06005e+07 7.81828e+06 5.95787e+06 981043 -1.02218e+06 -54912.7
4 3 O 9.24383 4.34257 3.63314 -1.2 -9.68793 -4.21765e+06 -3.92928e+06 -2.82786e+06 -226286 659983 719802
5 3 O 5.58215 4.7539 0.906037 -1.2 -8.49594 -6.44369e+06 -3.06814e+06 -2.04677e+06 -337647 831792 137811
6 3 O 8.48533 5.73392 1.49755 -1.2 -9.05242 -4.42407e+06 -3.69753e+06 -2.9011e+06 800281 770491 -515987
7 1 Mg -0.140414 3.04034 0.0249452 1.2 -8.36198 3.21477e+06 67656.2 -349708 1.63938e+06 1.75596e+06 -1.70587e+06
8 3 O 8.48965 3.18931 1.29572 -1.2 -8.7815 -4.97673e+06 -3.34077e+06 -2.23277e+06 -1.3482e+06 1.14066e+06 1.47238e+06
9 1 Mg 2.82086 1.32649 -0.0903177 1.2 -8.59203 1.13769e+06 2.9584e+06 2.40051e+06 620031 -967907 737735
10 2 Si 1.07398 1.44365 2.65984 2.4 -34.3619 9.81949e+06 1.07533e+07 8.25527e+06 497189 241864 -1.7468e+06
11 3 O 0.859068 1.4682 1.10659 -1.2 -8.85745 -2.89963e+06 -3.48815e+06 -3.45689e+06 -885746 1.01043e+06 27189.6
12 3 O 4.61564 1.45972 3.66454 -1.2 -8.30587 -5.31298e+06 -4.02351e+06 -1.94179e+06 -702677 2.01959e+06 -232680
13 3 O 1.72727 2.79417 3.2686 -1.2 -8.61718 -5.02406e+06 -2.18313e+06 -3.22301e+06 -1.1556e+06 339266 1.47685e+06
14 3 O 1.71504 0.130426 3.4325 -1.2 -8.18297 -4.1831e+06 -1.02605e+06 -2.3614e+06 -39246.4 233734 -1.18029e+06
15 1 Mg 5.13274 3.05906 2.41088 1.2 -8.57928 3.56977e+06 715779 433929 1.07377e+06 -836551 559141
16 1 Mg 7.93549 1.58387 2.31326 1.2 -8.92237 453242 1.23443e+06 2.17388e+06 -586715 780886 198169
17 2 Si 6.10526 1.46482 4.4263 2.4 -34.4895 1.13526e+07 7.08899e+06 7.76649e+06 -952993 1.50469e+06 1.23644e+06
18 3 O 6.07337 1.5851 5.97759 -1.2 -9.0018 -5.04187e+06 -4.04394e+06 -2.14809e+06 249787 -86460.2 1.08138e+06
19 3 O -0.375688 1.51826 3.39972 -1.2 -8.41569 -4.45143e+06 -4.43861e+06 -3.43759e+06 170155 -1.23915e+06 71038.9
20 3 O 6.72429 2.66794 3.67235 -1.2 -8.43068 -5.49415e+06 -4.64165e+06 -4.47696e+06 -1.1958e+06 -446879 -693894
21 1 Mg 5.16786 6.13595 2.46718 1.2 -8.19175 3.33742e+06 340426 -1.36891e+06 -1.24309e+06 -592560 -1.58415e+06
22 3 O 6.78906 0.22188 3.62489 -1.2 -8.58562 -3.49817e+06 -3.40933e+06 -1.95636e+06 129193 -293207 1.45895e+06
23 1 Mg 2.19378 4.42648 2.28764 1.2 -9.10732 775704 2.15527e+06 1.90095e+06 -442305 744105 73947.2
24 2 Si 4.15001 4.56096 0.239684 2.4 -34.8344 8.59623e+06 9.5878e+06 6.74764e+06 -65212.3 -297705 397513
25 3 O 4.16109 4.44239 -1.28045 -1.2 -9.11789 -2.79047e+06 -4.92512e+06 -5.79207e+06 418623 -8076.29 191647
26 3 O 10.5876 4.45436 1.27311 -1.2 -9.06841 -4.92946e+06 -3.44934e+06 -2.73353e+06 -815575 -1.56699e+06 386210
27 3 O 3.36401 5.79445 0.957755 -1.2 -7.94113 -4.42088e+06 -4.34361e+06 -3.75911e+06 348822 149122 2.38751e+06
28 3 O 3.56472 3.30921 1.01178 -1.2 -8.19912 -3.20977e+06 -4.23045e+06 -3.44619e+06 -646051 263689 -422057
29 1 Mg 10.2839 0.0983158 -0.100486 1.2 -7.64531 2.67081e+06 -1.59674e+06 -2.5607e+06 -2.75726e+06 595885 493441
30 1 Mg 17.5458 4.50676 4.72185 1.2 -8.97803 -246415 3.2111e+06 1.42215e+06 171395 -1.36242e+06 -273162
31 2 Si 19.3789 4.46326 2.01029 2.4 -33.6807 8.83948e+06 9.38564e+06 6.90266e+06 -155193 -2.32359e+06 1.06818e+06
32 3 O 19.4896 4.65165 3.59244 -1.2 -8.89697 -2.93982e+06 -5.01347e+06 -926049 -48988.2 1.05861e+06 829871
33 3 O 15.7595 4.56967 0.928046 -1.2 -9.24773 -2.9858e+06 -3.21231e+06 -3.74087e+06 420976 1.84873e+06 572041
34 3 O 18.9046 5.78634 1.35056 -1.2 -9.04556 -4.12012e+06 -2.58381e+06 -5.56842e+06 975379 -233000 310293
35 1 Mg 10.0391 3.04776 -0.0573415 1.2 -7.93261 3.1622e+06 -378792 -1.17706e+06 1.87476e+06 1631.2 -1.98476e+06
36 3 O 18.7893 3.1299 1.46642 -1.2 -8.97188 -4.83075e+06 -2.5051e+06 -3.79312e+06 -2.80402e+06 600246 781010
37 1 Mg 12.8993 1.55529 -0.00960455 1.2 -8.07173 947509 2.68048e+06 1.32167e+06 -901539 -1.19849e+06 -857799
38 2 Si 11.1987 1.48187 2.59955 2.4 -32.9321 1.12482e+07 6.95497e+06 5.85567e+06 -113575 300738 509036
39 3 O 11.0081 1.45181 1.03527 -1.2 -9.69961 -4.93775e+06 -4.06782e+06 -3.50606e+06 -284339 711915 -622224
40 3 O 14.7687 1.48235 3.77839 -1.2 -9.15164 -5.03802e+06 -3.96025e+06 -1.60265e+06 744339 1.41355e+06 -1.43017e+06
41 3 O 11.699 2.8146 3.32368 -1.2 -9.20273 -5.68932e+06 -2.77108e+06 -3.0716e+06 -1.03034e+06 291362 1.26309e+06
42 3 O 11.9139 0.252952 3.24937 -1.2 -9.34921 -5.25553e+06 -2.6513e+06 -1.95868e+06 722030 299362 -1.02163e+06
43 1 Mg 15.2865 3.05304 2.21011 1.2 -7.59885 3.60778e+06 365182 472271 1.25313e+06 -496268 1.05416e+06
44 1 Mg 18.1259 1.43278 2.32201 1.2 -8.92473 -762626 2.88941e+06 2.19444e+06 341231 -9790.6 699763
45 2 Si 16.1999 1.50935 4.51803 2.4 -34.1054 1.03848e+07 9.80771e+06 6.45627e+06 111918 -1.10692e+06 91594.5
46 3 O 16.164 1.48936 6.06832 -1.2 -9.19522 -4.22769e+06 -4.75727e+06 -4.24915e+06 264799 1.11252e+06 175215
47 3 O 9.71214 1.34371 3.31112 -1.2 -8.71597 -5.47996e+06 -3.97983e+06 -3.41898e+06 -285823 -1.41667e+06 -641300
48 3 O 16.9655 2.78238 3.90681 -1.2 -8.16733 -2.96903e+06 -4.20857e+06 -3.87581e+06 37408.8 -526506 -2.01097e+06
49 1 Mg 15.028 5.94676 2.39527 1.2 -7.89497 3.03093e+06 -629739 -636650 -1.50337e+06 -1.00999e+06 -1.9064e+06
50 3 O 16.9406 0.28813 3.71205 -1.2 -8.45076 -3.45614e+06 -5.11537e+06 -4.14479e+06 -374190 -1.17575e+06 1.2508e+06
51 1 Mg 12.3872 4.32382 2.21029 1.2 -8.11182 -226123 1.49537e+06 1.94949e+06 -308384 1.61601e+06 -205929
52 2 Si 14.2472 4.52363 0.210941 2.4 -32.6905 1.02524e+07 9.26356e+06 6.26391e+06 1.08361e+06 -262705 368312
53 3 O 14.383 4.48496 -1.3151 -1.2 -9.53948 -3.89225e+06 -5.50502e+06 -2.95833e+06 260275 -696225 -593264
54 3 O 20.9348 4.28855 1.28453 -1.2 -8.39049 -3.20612e+06 -5.33049e+06 -3.26748e+06 -169065 -1.26279e+06 -910969
55 3 O 13.5917 5.71389 1.06934 -1.2 -9.19781 -5.1862e+06 -3.11866e+06 -2.79238e+06 644676 -739855 2.07704e+06
56 3 O 13.5397 3.23252 0.997128 -1.2 -9.52449 -1.75764e+06 -2.97115e+06 -3.26002e+06 960824 202918 -2.12085e+06
57 1 Mg 20.3942 -0.0668437 -0.0379747 1.2 -7.85692 2.84637e+06 -79958 -1.53386e+06 -2.27644e+06 1.79444e+06 2.24405e+06
58 1 Mg 27.7424 4.62767 4.77263 1.2 -8.79856 1.01212e+06 3.7864e+06 1.17095e+06 381172 -489391 806670
59 2 Si 29.4886 4.48383 1.9992 2.4 -33.8531 1.09214e+07 8.7422e+06 6.98969e+06 829381 -61641.7 -267895
60 3 O 29.7531 4.47651 3.54779 -1.2 -8.89402 -4.12257e+06 -5.09836e+06 -3.40822e+06 330377 1.09442e+06 153169
61 3 O 25.998 4.48092 0.853376 -1.2 -8.72257 -7.38067e+06 -4.65737e+06 -3.69237e+06 1.85517e+06 1.35547e+06 -641067
62 3 O 28.8123 5.72834 1.40649 -1.2 -8.74398 -4.52696e+06 -3.57446e+06 -3.4162e+06 970545 277437 -377989
63 1 Mg 20.4636 2.91603 0.0724065 1.2 -8.09772 3.31852e+06 -1.78996e+06 -1.6137e+06 1.96315e+06 1.60312e+06 -2.12646e+06
64 3 O 28.855 3.1582 1.27449 -1.2 -8.90183 -3.69751e+06 -2.28484e+06 -2.76685e+06 267815 249427 817488
65 1 Mg 23.1552 1.4666 -0.0760357 1.2 -8.32368 -466440 3.40559e+06 1.59131e+06 -38172.5 -1.28471e+06 36108.1
66 2 Si 21.427 1.53461 2.71757 2.4 -33.939 1.06117e+07 8.18984e+06 6.4546e+06 -1.05085e+06 -1.83212e+06 -1.86202e+06
67 3 O 21.4701 1.45188 1.12234 -1.2 -9.27764 -3.84601e+06 -5.57408e+06 -1.22399e+06 -30892.1 -57031.2 294115
68 3 O 24.8809 1.48892 3.65192 -1.2 -9.01466 -4.81189e+06 -3.58441e+06 -2.59256e+06 -397399 122185 -310111
69 3 O 22.0578 2.78316 3.32271 -1.2 -8.84067 -4.99268e+06 -3.94727e+06 -3.62887e+06 -990419 -373381 663570
70 3 O 22.0618 0.191046 3.40975 -1.2 -8.71199 -4.89844e+06 -2.85242e+06 -2.40762e+06 1.46064e+06 1.22078e+06 -591570
71 1 Mg 25.5945 2.9898 2.26608 1.2 -8.01951 3.95364e+06 386743 -296646 1.55388e+06 -670872 1.58966e+06
72 1 Mg 28.387 1.45054 2.33203 1.2 -8.9344 690696 2.39685e+06 2.85833e+06 147573 1.02286e+06 220802
73 2 Si 26.3361 1.47195 4.33582 2.4 -34.0223 1.06248e+07 8.02219e+06 6.34882e+06 388374 -77753.7 84614.4
74 3 O 26.26 1.42812 5.89453 -1.2 -9.01668 -3.73807e+06 -2.92918e+06 -2.21977e+06 -360831 494710 828694
75 3 O 19.9905 1.50994 3.47638 -1.2 -8.67666 -6.10172e+06 -3.74211e+06 -1.89023e+06 355255 -1.23446e+06 769911
76 3 O 27.096 2.73422 3.76465 -1.2 -8.45146 -3.47159e+06 -3.27034e+06 -2.9991e+06 290983 -681586 -398581
77 1 Mg 25.5222 6.04089 2.34989 1.2 -8.36368 2.59817e+06 95091.6 -272457 -2.37711e+06 -133803 -762928
78 3 O 27.1328 0.239608 3.65857 -1.2 -8.79252 -2.2538e+06 -4.44877e+06 -3.78782e+06 320692 -188363 726841
79 1 Mg 22.7555 4.50313 2.35633 1.2 -8.38391 1.0732e+06 3.86063e+06 1.63135e+06 170419 1.24296e+06 237808
80 2 Si 24.5078 4.50294 0.268335 2.4 -34.0564 8.6938e+06 8.76782e+06 5.98565e+06 -207479 1.05624e+06 808660
81 3 O 24.4964 4.46427 -1.32813 -1.2 -8.88197 -3.29202e+06 -3.70764e+06 -3.09545e+06 716892 -224703 82983
82 3 O 31.0296 4.536 1.24333 -1.2 -8.56251 -3.14585e+06 -4.80796e+06 -3.41437e+06 -2155.27 -1.67708e+06 -649986
83 3 O 24.0815 5.86147 0.922238 -1.2 -8.5101 -6.19135e+06 -5.39268e+06 -4.13596e+06 2.02242e+06 -1.1584e+06 865262
84 3 O 23.8084 3.26397 0.886947 -1.2 -8.84891 -4.57229e+06 -2.66609e+06 -3.20316e+06 -1.22636e+06 260963 882856
85 1 Mg 0.0736621 5.88103 -0.174013 1.2 -8.12219 3.02761e+06 -173077 -902064 -1.65521e+06 1.36915e+06 2.27264e+06
86 1 Mg 7.38238 10.4659 4.76562 1.2 -8.48546 -800168 2.84974e+06 2.00184e+06 -177085 -815650 -152411
87 2 Si 9.26581 10.5407 2.18725 2.4 -33.8844 1.09843e+07 7.17374e+06 7.31433e+06 -145108 -840387 -82932.5
88 3 O 9.25237 10.485 3.78126 -1.2 -9.37494 -4.13114e+06 -4.92328e+06 -2.29122e+06 -420365 534841 -343239
89 3 O 5.48172 10.4574 0.975909 -1.2 -9.18379 -4.23339e+06 -4.76674e+06 -2.51967e+06 161462 936675 3254.2
90 3 O 8.52696 11.7446 1.45402 -1.2 -8.70486 -3.41308e+06 -4.53057e+06 -3.762e+06 282785 1.12246e+06 -1.6536e+06
91 1 Mg 0.0430922 8.87355 -0.0045241 1.2 -8.16996 2.55997e+06 17136.9 -813624 1.73874e+06 237400 -1.44617e+06
92 3 O 8.68047 9.317 1.4382 -1.2 -8.7246 -3.38435e+06 -4.60918e+06 -4.56087e+06 -1.02533e+06 931088 762716
93 1 Mg 2.78434 7.39968 0.0124412 1.2 -8.59926 -82265 1.85609e+06 1.90471e+06 181071 -448037 121107
94 2 Si 0.974093 7.51991 2.67274 2.4 -33.5258 1.06573e+07 1.06639e+07 4.57613e+06 -1.30198e+06 -46048.1 1.36425e+06
95 3 O 0.731814 7.40627 1.16814 -1.2 -9.11444 -4.35551e+06 -5.08443e+06 -3.88654e+06 1.49728e+06 538664 1.29539e+06
96 3 O 4.6487 7.5477 3.7314 -1.2 -8.84672 -3.80522e+06 -4.17429e+06 -3.75032e+06 -360007 983999 -907517
97 3 O 1.72084 8.77251 3.39687 -1.2 -9.18451 -4.56429e+06 -2.39708e+06 -2.3977e+06 -444627 644643 1.58372e+06
98 3 O 1.57735 6.11479 3.26802 -1.2 -8.61544 -3.9579e+06 -1.22829e+06 -4.99193e+06 -106045 669315 -755159
99 1 Mg 5.08743 9.13831 2.48611 1.2 -7.89906 3.2684e+06 -339985 -858554 2.23296e+06 -946959 1.66219e+06
100 1 Mg 7.90917 7.49715 2.4021 1.2 -8.37595 -450519 3.54917e+06 1.1994e+06 531312 583598 -166603
101 2 Si 6.14367 7.42229 4.42883 2.4 -33.3967 9.665e+06 7.94044e+06 6.27216e+06 958292 1.24272e+06 -2.10644e+06
102 3 O 6.00588 7.46181 5.99095 -1.2 -9.2725 -3.85017e+06 -4.2627e+06 -2.62901e+06 636598 -761979 266871
103 3 O -0.485761 7.64975 3.38846 -1.2 -8.75361 -3.90986e+06 -5.14184e+06 -4.89266e+06 322822 -336412 -224171
104 3 O 6.80413 8.7825 3.75513 -1.2 -8.77398 -3.99509e+06 -2.14885e+06 -3.33016e+06 -1.0961e+06 -641683 -1.37555e+06
105 1 Mg 5.05465 11.8579 2.34477 1.2 -7.95677 3.70841e+06 121521 -50442.2 -1.63028e+06 -1.18099e+06 -1.18225e+06
106 3 O 6.78095 6.24533 3.73299 -1.2 -9.09921 -4.73055e+06 -4.90624e+06 -5.36691e+06 510107 -269000 189993
107 1 Mg 2.26718 10.4367 2.49344 1.2 -8.31493 -834236 2.39226e+06 651576 -70442.5 1.98037e+06 135122
108 2 Si 3.93203 10.3579 0.402726 2.4 -33.0103 9.31303e+06 8.87917e+06 5.1411e+06 -369710 -96625.1 -518708
109 3 O 3.99194 10.537 -1.19055 -1.2 -9.38706 -5.06823e+06 -3.18561e+06 -2.18315e+06 493213 -2.37109e+06 -1.24254e+06
110 3 O 10.8064 10.5872 1.60353 -1.2 -8.6756 -4.76604e+06 -2.94688e+06 -3.06188e+06 -1.37407e+06 -1.24744e+06 -65167.8
111 3 O 3.28887 11.6367 1.08935 -1.2 -8.97873 -4.53697e+06 -2.74994e+06 -3.88289e+06 904214 1.2381e+06 -497693
112 3 O 3.43651 9.10103 1.12655 -1.2 -9.24292 -3.92454e+06 -4.93732e+06 -2.3456e+06 -476096 655280 310808
113 1 Mg 10.1642 5.96938 -0.0642501 1.2 -8.04865 2.99816e+06 286029 -1.24623e+06 -1.0581e+06 642843 856970
114 1 Mg 17.4257 10.4395 4.64049 1.2 -8.80213 -900050 1.34818e+06 2.00921e+06 -308224 231363 -457854
115 2 Si 19.3268 10.4965 2.08102 2.4 -34.1541 9.22398e+06 9.22328e+06 5.09843e+06 1.08647e+06 -331157 886057
116 3 O 19.3258 10.4914 3.62377 -1.2 -8.9894 -3.77278e+06 -5.60269e+06 -4.01757e+06 -356356 950455 116928
117 3 O 15.692 10.6081 1.05825 -1.2 -8.58255 -5.06562e+06 -3.3566e+06 -4.71908e+06 42564.6 44449 -1.07061e+06
118 3 O 18.6444 11.7138 1.38111 -1.2 -8.75145 -5.09882e+06 -3.17838e+06 -4.48341e+06 334141 -345888 -1.19937e+06
119 1 Mg 10.253 9.08298 0.10448 1.2 -8.35621 3.65918e+06 109289 -400268 1.50511e+06 -87292.5 -149833
120 3 O 18.6966 9.15822 1.39119 -1.2 -8.81 -2.83e+06 -2.65501e+06 -3.99702e+06 -291303 474729 895301
121 1 Mg 12.977 7.51693 0.124307 1.2 -8.75267 620359 2.2206e+06 957424 79864.5 -70366.5 -628889
122 2 Si 11.1798 7.51977 2.67891 2.4 -32.7747 9.974e+06 9.26066e+06 9.10921e+06 621751 -1.29175e+06 434543
123 3 O 11.2039 7.53613 1.09204 -1.2 -9.52092 -3.93959e+06 -3.59236e+06 -2.27201e+06 -257375 118709 564745
124 3 O 14.7605 7.42847 3.7818 -1.2 -9.21332 -5.53692e+06 -4.1609e+06 -2.66441e+06 1.05538e+06 527425 -172498
125 3 O 11.8752 8.80784 3.50374 -1.2 -9.03593 -2.35392e+06 -969195 -2.3673e+06 198362 678769 2.39526e+06
126 3 O 11.6973 6.20718 3.40401 -1.2 -9.1871 -4.34661e+06 -2.12507e+06 -3.30297e+06 1.32907e+06 1.43078e+06 -727332
127 1 Mg 15.3081 8.97796 2.36188 1.2 -8.06004 2.83731e+06 -644182 -454612 2.15222e+06 50110.3 371210
128 1 Mg 18.015 7.48507 2.26312 1.2 -8.71922 646953 2.87628e+06 2.33387e+06 -300221 977700 -109431
129 2 Si 16.23 7.49451 4.40861 2.4 -33.751 8.51179e+06 9.0865e+06 5.02311e+06 -371750 100907 1.71259e+06
130 3 O 16.1751 7.47837 5.95191 -1.2 -9.58162 -3.26037e+06 -4.58931e+06 -3.60597e+06 -360641 136006 516195
131 3 O 9.65429 7.52455 3.42496 -1.2 -8.98624 -4.06754e+06 -3.30474e+06 -2.50525e+06 923575 -2.73142e+06 211496
132 3 O 16.8957 8.73715 3.76786 -1.2 -8.75678 -4.47307e+06 -4.91199e+06 -4.69935e+06 -578233 290584 -890469
133 1 Mg 15.277 12.0337 2.46893 1.2 -8.26363 3.28408e+06 -892177 -1.0765e+06 -1.80755e+06 -409359 -1.80922e+06
134 3 O 16.8424 6.16502 3.67435 -1.2 -8.52053 -3.95633e+06 -2.39133e+06 -2.09725e+06 452378 -282395 1.15702e+06
135 1 Mg 12.5401 10.5271 2.6206 1.2 -8.46236 -194909 1.76888e+06 1.45044e+06 224448 89034.8 -436030
136 2 Si 14.2103 10.563 0.430972 2.4 -34.5352 9.99208e+06 8.16595e+06 7.15833e+06 -775909 -21851.8 874607
137 3 O 14.3841 10.487 -1.16189 -1.2 -8.59762 -4.81905e+06 -4.3371e+06 -2.66507e+06 213080 -637885 814137
138 3 O 20.8053 10.6026 1.4575 -1.2 -8.75399 -5.22345e+06 -3.712e+06 -3.33248e+06 940591 -683956 130646
139 3 O 13.5431 11.815 1.08714 -1.2 -8.60155 -5.92422e+06 -1.30311e+06 -3.30779e+06 803702 115282 -390929
140 3 O 13.6516 9.19045 0.967613 -1.2 -8.65836 -4.74081e+06 -2.74438e+06 -4.30893e+06 -1.3247e+06 40056.8 -1.02561e+06
141 1 Mg 20.2927 5.92337 -0.0344492 1.2 -7.96033 3.32372e+06 647527 -1.53473e+06 -2.12836e+06 2.20425e+06 1.75579e+06
142 1 Mg 27.7728 10.6655 4.73831 1.2 -8.83664 -1.26783e+06 2.80307e+06 1.2001e+06 213464 -430888 585026
143 2 Si 29.5899 10.4628 2.00483 2.4 -34.1698 9.6831e+06 9.2012e+06 3.46428e+06 -527942 -1.1439e+06 -261860
144 3 O 29.6312 10.4458 3.53047 -1.2 -9.21091 -4.05191e+06 -6.03899e+06 -3.34779e+06 -211516 772616 -261264
145 3 O 26.0804 10.4918 1.06516 -1.2 -8.61656 -6.27661e+06 -4.14239e+06 -3.86586e+06 -26459.3 134079 -39062.3
146 3 O 28.9495 11.6906 1.25685 -1.2 -8.69608 -3.93107e+06 -4.62573e+06 -2.61849e+06 512219 267042 -174595
147 1 Mg 20.3155 8.95121 0.102113 1.2 -8.18141 3.76763e+06 -107744 -1.39844e+06 1.81599e+06 1.63986e+06 -2.80686e+06
148 3 O 28.9984 9.19377 1.32536 -1.2 -8.66301 -4.15909e+06 -5.06889e+06 -4.25765e+06 -212361 -370461 -268417
149 1 Mg 23.3445 7.46017 0.0687819 1.2 -9.05798 -632327 1.98678e+06 948074 41935.9 -703448 413862
150 2 Si 21.3508 7.53644 2.72796 2.4 -33.9603 1.09204e+07 8.49434e+06 4.89108e+06 958411 -1.62243e+06 -346054
151 3 O 21.2897 7.45247 1.17592 -1.2 -8.80768 -4.30433e+06 -3.75955e+06 -3.37895e+06 -433632 105967 630526
152 3 O 25.151 7.45962 3.73094 -1.2 -8.26779 -3.25968e+06 -4.74461e+06 -3.37217e+06 516773 1.08963e+06 136562
153 3 O 21.997 8.81037 3.31516 -1.2 -8.97856 -3.43352e+06 -3.34106e+06 -3.12211e+06 -1.00993e+06 -160990 -262043
154 3 O 22.0659 6.24599 3.33077 -1.2 -8.90633 -3.38554e+06 -2.05848e+06 -3.63702e+06 -167642 -418543 47971.6
155 1 Mg 25.6519 8.92287 2.29382 1.2 -8.41544 3.35657e+06 502989 -579755 1.96775e+06 -531607 1.82471e+06
156 1 Mg 28.3738 7.47636 2.21341 1.2 -8.51311 433279 2.62431e+06 1.69564e+06 -16249.7 696012 -231548
157 2 Si 26.6917 7.5699 4.45273 2.4 -34.3071 1.10227e+07 9.41747e+06 6.08233e+06 61260.3 1.25084e+06 -543156
158 3 O 26.4481 7.53522 6.01909 -1.2 -8.95426 -3.78561e+06 -3.47829e+06 -3.21686e+06 81397.1 -1.29429e+06 -802727
159 3 O 19.8533 7.50097 3.45699 -1.2 -8.66237 -2.90836e+06 -4.78143e+06 -2.11542e+06 -93601.1 -328378 -494061
160 3 O 27.134 8.93029 3.80583 -1.2 -8.54287 -5.14589e+06 -3.80171e+06 -2.12098e+06 -1.03715e+06 -257090 -150052
161 1 Mg 25.523 12.05 2.27294 1.2 -8.30028 3.68911e+06 351276 -1.51102e+06 -1.39593e+06 -572788 -2.13665e+06
162 3 O 27.3105 6.29902 3.80144 -1.2 -8.69806 -5.8363e+06 -2.69573e+06 -3.30277e+06 2.06345e+06 -279342 382199
163 1 Mg 22.6219 10.6171 2.39998 1.2 -8.79944 828412 1.603e+06 2.02883e+06 315033 1.23016e+06 -729040
164 2 Si 24.6024 10.4212 0.410221 2.4 -34.5387 8.64261e+06 7.28462e+06 6.88403e+06 639417 1.51895e+06 -294444
165 3 O 24.7415 10.3925 -1.17751 -1.2 -8.94153 -3.51909e+06 -5.64168e+06 -2.81092e+06 -572174 -345364 38104.5
166 3 O 31.1154 10.4879 1.43954 -1.2 -8.94104 -5.56377e+06 -3.94466e+06 -2.96231e+06 -523895 -568662 211290
167 3 O 23.951 11.638 1.02593 -1.2 -8.55663 -4.9072e+06 -4.81806e+06 -5.01242e+06 1.75644e+06 -966133 187219
168 3 O 23.9615 9.12999 1.00234 -1.2 -8.25635 -3.53327e+06 -5.03056e+06 -4.81431e+06 -379237 -140964 -1.02079e+06
169 1 Mg 0.0231757 11.8007 -0.0352439 1.2 -7.91332 3.07975e+06 474566 -714794 -2.02885e+06 97152.7 1.69461e+06
170 1 Mg 7.35634 16.3857 4.54639 1.2 -8.32983 528407 2.94522e+06 2.39432e+06 -690750 -653778 -516731
171 2 Si 9.35461 16.6075 1.99549 2.4 -33.3575 8.83613e+06 1.00853e+07 3.85465e+06 -1.47795e+06 538382 1.07284e+06
172 3 O 9.49555 16.4607 3.51062 -1.2 -9.62445 -3.82326e+06 -4.92123e+06 -3.68249e+06 620924 369647 -29328.8
173 3 O 5.56181 16.4036 1.03831 -1.2 -9.11112 -3.52368e+06 -4.40449e+06 -2.94144e+06 1.86267e+06 1.17928e+06 -188435
174 3 O 8.61951 17.8357 1.33961 -1.2 -8.82516 -2.9666e+06 -3.91323e+06 -4.06972e+06 95956.9 160880 -1.04663e+06
175 1 Mg 0.044865 14.9643 -0.0169037 1.2 -7.81116 3.19653e+06 661801 -54156.6 1.85482e+06 592341 -1.44281e+06
176 3 O 8.63742 15.2665 1.31767 -1.2 -8.73671 -4.56153e+06 -2.00947e+06 -2.56118e+06 263537 558040 342004
177 1 Mg 2.70358 13.3572 0.00513303 1.2 -8.33633 -179594 2.78005e+06 2.36974e+06 -63509.3 -424430 436771
178 2 Si 1.08308 13.379 2.66165 2.4 -34.3788 1.06165e+07 6.857e+06 4.92024e+06 -1.10413e+06 -535947 778590
179 3 O 1.03214 13.4197 1.10426 -1.2 -9.13794 -5.14785e+06 -4.00837e+06 -3.10974e+06 303518 673614 -1.14102e+06
180 3 O 4.65775 13.4951 3.77333 -1.2 -8.63827 -4.86276e+06 -2.61957e+06 -2.45139e+06 -206246 1.69409e+06 -128552
181 3 O 1.6437 14.6636 3.27834 -1.2 -8.4037 -5.20993e+06 -6.32803e+06 -5.2946e+06 -1.52367e+06 176676 141833
182 3 O 1.76238 12.1864 3.3675 -1.2 -8.85311 -3.88084e+06 -5.31204e+06 -4.98833e+06 1.77395e+06 1008.17 -1.22547e+06
183 1 Mg 5.17218 15.0233 2.46689 1.2 -8.0208 3.23708e+06 1.06199e+06 -942995 1.16203e+06 -1.11235e+06 1.70206e+06
184 1 Mg 8.03711 13.538 2.4241 1.2 -8.64252 -58796.8 2.41058e+06 1.57935e+06 449414 -130096 7885.86
185 2 Si 6.16663 13.3643 4.45682 2.4 -34.1961 9.77213e+06 6.9311e+06 7.23507e+06 -140225 692508 306324
186 3 O 6.14565 13.3995 6.00345 -1.2 -9.17113 -2.72255e+06 -3.8595e+06 -1.96777e+06 -194278 -835576 990506
187 3 O -0.437099 13.4277 3.28546 -1.2 -8.35859 -5.59149e+06 -4.07539e+06 -3.12833e+06 -1.19989e+06 -1.3218e+06 473298
188 3 O 6.84148 14.6369 3.74453 -1.2 -8.80306 -3.94539e+06 -4.23416e+06 -4.03155e+06 -804911 -435933 -1.8958e+06
189 1 Mg 5.17681 17.9927 2.15155 1.2 -8.2346 3.55338e+06 -195918 -175407 -1.51195e+06 -1.13282e+06 -1.62662e+06
190 3 O 6.77858 12.1745 3.71994 -1.2 -8.70248 -4.60123e+06 -5.5155e+06 -3.70242e+06 2.09248e+06 697626 261174
191 1 Mg 2.33995 16.327 2.379 1.2 -8.63911 -277196 3.29929e+06 1.0281e+06 -7123.31 1.31068e+06 352073
192 2 Si 4.0298 16.3202 0.410528 2.4 -32.9304 8.18757e+06 7.43489e+06 8.09238e+06 -142413 369806 -961887
193 3 O 4.18024 16.4817 -1.26889 -1.2 -9.21737 -1.67682e+06 -2.94019e+06 -54889.1 1.06341e+06 -821707 -1.24719e+06
194 3 O 10.7802 16.4386 1.32113 -1.2 -9.25993 -5.47381e+06 -5.12081e+06 -4.17891e+06 -1.39334e+06 -462729 -498606
195 3 O 3.49304 17.6639 0.947884 -1.2 -9.02039 -4.65796e+06 -2.86162e+06 -4.98184e+06 1.56767e+06 163445 107983
196 3 O 3.38634 15.1093 1.0728 -1.2 -9.31337 -4.32212e+06 -4.32921e+06 -2.87316e+06 -495830 1.18285e+06 -31380.9
197 1 Mg 10.0955 12.0192 0.0909641 1.2 -8.34732 3.88741e+06 -318022 -613887 -1.75751e+06 1.27951e+06 2.33533e+06
198 1 Mg 17.49 16.5785 4.72831 1.2 -8.68285 -349610 2.44146e+06 1.40886e+06 -9904.09 -1.90893e+06 -216393
199 2 Si 19.6678 16.4504 2.06481 2.4 -33.2861 1.03659e+07 8.95608e+06 4.77851e+06 -467796 -281018 -238137
200 3 O 19.5547 16.4338 3.62224 -1.2 -9.28027 -3.54126e+06 -3.81197e+06 -2.52598e+06 295059 -1.50552e+06 -237189
201 3 O 15.9228 16.6515 1.18387 -1.2 -8.40478 -3.67902e+06 -3.9528e+06 -3.85881e+06 1.05425e+06 1.34572e+06 -787231
202 3 O 18.9451 17.6951 1.3711 -1.2 -8.91181 -3.76879e+06 -4.01256e+06 -3.75763e+06 242353 1.17449e+06 -778437
203 1 Mg 10.2993 15.0614 0.0492178 1.2 -7.82968 2.61059e+06 -563714 -1.47703e+06 1.20459e+06 425880 -2.455e+06
204 3 O 18.8138 15.155 1.40596 -1.2 -8.77046 -4.18977e+06 -2.79746e+06 -4.00451e+06 1.61757e+06 1.08921e+06 1.14465e+06
205 1 Mg 13.0095 13.7127 0.193268 1.2 -8.30669 913543 2.44363e+06 2.215e+06 -75205.5 -1.45166e+06 -208512
206 2 Si 11.1547 13.3883 2.85538 2.4 -33.9174 9.0086e+06 5.92312e+06 6.67878e+06 -688598 -225805 718385
207 3 O 11.0199 13.5149 1.26676 -1.2 -8.92628 -4.08792e+06 -4.0858e+06 -2.29584e+06 1.23963e+06 339991 -1.19226e+06
208 3 O 14.7385 13.2914 3.82473 -1.2 -8.66003 -3.16177e+06 -3.46263e+06 -3.40171e+06 155513 1.63421e+06 -631667
209 3 O 11.7877 14.6455 3.50381 -1.2 -9.03302 -4.63426e+06 -4.19453e+06 -3.92886e+06 -106396 -150076 -436990
210 3 O 11.8948 12.1889 3.47009 -1.2 -8.80298 -4.84218e+06 -5.41321e+06 -5.81062e+06 667991 -650996 -1.60083e+06
211 1 Mg 15.4053 14.9511 2.50245 1.2 -8.09615 2.12506e+06 945374 -1.09767e+06 2.77806e+06 -1.74745e+06 1.35164e+06
212 1 Mg 18.0719 13.4856 2.35912 1.2 -8.59056 987293 3.69055e+06 1.06224e+06 -360739 1.22071e+06 9141.24
213 2 Si 16.316 13.4413 4.54082 2.4 -33.0855 1.05988e+07 1.00293e+07 3.70769e+06 8256.81 -171730 1.2596e+06
214 3 O 16.1648 13.3528 6.01481 -1.2 -9.68285 -4.55416e+06 -4.22893e+06 -6.49265e+06 -259516 -1.61636e+06 -27467.3
215 3 O 9.67987 13.3081 3.43734 -1.2 -8.89732 -6.80495e+06 -3.01287e+06 -4.08404e+06 -354113 -273327 -215865
216 3 O 16.8294 14.7367 3.80664 -1.2 -9.05047 -4.15876e+06 -3.40639e+06 -3.5662e+06 -267511 -582849 -958736
217 1 Mg 15.3197 18.0067 2.45632 1.2 -8.08619 3.22537e+06 -652871 -1.23877e+06 -1.17799e+06 -1.11948e+06 -2.13554e+06
218 3 O 16.9859 12.1789 3.72191 -1.2 -8.73088 -5.57877e+06 -2.40645e+06 -2.98974e+06 1.15676e+06 -400864 1.54267e+06
219 1 Mg 12.5691 16.4607 2.32204 1.2 -8.00504 477155 3.14281e+06 613765 635474 1.0269e+06 -601964
220 2 Si 14.4301 16.4767 0.440936 2.4 -33.417 9.50756e+06 6.61933e+06 6.33159e+06 205373 1.06184e+06 -120757
221 3 O 14.487 16.3258 -1.13143 -1.2 -9.19612 -4.69029e+06 -4.93043e+06 -3.14531e+06 435611 602957 -1.07739e+06
222 3 O 21.0087 16.3737 1.2825 -1.2 -9.25051 -5.99198e+06 -4.62923e+06 -2.3015e+06 1.06047e+06 -276199 355369
223 3 O 13.777 17.7632 0.951484 -1.2 -9.10718 -4.66665e+06 -3.94783e+06 -3.54239e+06 1.78347e+06 331245 451991
224 3 O 13.7609 15.2838 1.16394 -1.2 -9.43837 -3.79173e+06 -5.69027e+06 -4.26661e+06 -917913 13269.4 -430273
225 1 Mg 20.3244 11.9776 0.0170072 1.2 -8.28871 3.5515e+06 -529494 1.01469e+06 -1.26759e+06 1.32282e+06 1.97391e+06
226 1 Mg 27.5816 16.5558 4.64061 1.2 -8.6443 934463 2.34948e+06 1.96223e+06 423012 -1.01128e+06 819007
227 2 Si 29.7049 16.3919 2.11038 2.4 -34.4458 1.01043e+07 9.86591e+06 6.93391e+06 197747 1.21957e+06 -1.65172e+06
228 3 O 29.7212 16.4973 3.71732 -1.2 -8.53463 -4.61443e+06 -4.80572e+06 -2.70444e+06 -1.57504e+06 -510076 215614
229 3 O 26.0347 16.4217 0.922491 -1.2 -8.56108 -3.92812e+06 -5.03109e+06 -1.73865e+06 -1.19386e+06 283898 -13267.5
230 3 O 28.9907 17.7412 1.36712 -1.2 -8.33662 -3.96927e+06 -1.81789e+06 -2.48106e+06 -480470 825373 -765842
231 1 Mg 20.0718 14.8846 0.0333993 1.2 -7.6596 2.81476e+06 367066 -838627 1.44243e+06 1.90403e+06 -1.8032e+06
232 3 O 29.0547 15.1296 1.55594 -1.2 -8.52475 -4.32507e+06 -5.31745e+06 -3.98329e+06 -949052 -609118 1.2133e+06
233 1 Mg 23.1683 13.572 -0.0189042 1.2 -8.52875 809860 4.07326e+06 1.89745e+06 -197584 -958807 -113827
234 2 Si 21.464 13.4445 2.76323 2.4 -34.4176 9.17326e+06 7.7044e+06 7.72206e+06 1.05477e+06 317514 451006
235 3 O 21.3452 13.4569 1.16291 -1.2 -8.82675 -2.54416e+06 -4.71583e+06 -2.05918e+06 -358661 2.30686e+06 -539604
236 3 O 24.9344 13.4712 3.69196 -1.2 -9.12733 -6.07668e+06 -3.94602e+06 -3.27044e+06 -952871 1.24301e+06 -444889
237 3 O 22.0402 14.7521 3.39336 -1.2 -8.77996 -3.3449e+06 -2.80025e+06 -4.39358e+06 -1.21099e+06 -965891 302526
238 3 O 22.1254 12.1759 3.40903 -1.2 -8.72931 -5.16409e+06 -4.1758e+06 -4.86119e+06 1.69895e+06 -997359 -1.90392e+06
239 1 Mg 25.3416 15.0516 2.42476 1.2 -8.06412 3.49423e+06 -714176 -339161 2.27652e+06 -2.0952e+06 2.06095e+06
240 1 Mg 28.2879 13.4716 2.27131 1.2 -8.9995 704632 3.12956e+06 1.36722e+06 -205779 1.08741e+06 591147
241 2 Si 26.3812 13.5273 4.34666 2.4 -33.9912 1.04129e+07 9.06753e+06 6.05804e+06 439641 -806079 530949
242 3 O 26.4475 13.4494 5.89091 -1.2 -9.03589 -3.67657e+06 -4.46812e+06 -2.22898e+06 -752066 1.37392e+06 -487963
243 3 O 19.9374 13.3129 3.23436 -1.2 -8.35424 -4.57664e+06 -3.2639e+06 -4.03238e+06 111360 -428920 9949.45
244 3 O 27.0241 14.7899 3.68252 -1.2 -8.61434 -4.06136e+06 -2.91366e+06 -4.46311e+06 -1.31439e+06 -107053 -57945.5
245 1 Mg 25.4612 17.9102 2.28325 1.2 -7.93023 4.0762e+06 132299 -1.42626e+06 -2.04293e+06 -1.74936e+06 -1.59297e+06
246 3 O 27.1925 12.2006 3.66844 -1.2 -8.35929 -2.17592e+06 -3.60517e+06 -3.55712e+06 -993769 -227175 1.17613e+06
247 1 Mg 22.709 16.5025 2.42694 1.2 -8.45502 -1.40239e+06 3.37159e+06 1.81094e+06 590734 603727 -131727
248 2 Si 24.4975 16.5051 0.288946 2.4 -33.4609 1.08147e+07 7.87127e+06 5.116e+06 -463547 672868 -209799
249 3 O 24.5214 16.4395 -1.28203 -1.2 -9.33371 -3.96561e+06 -4.12703e+06 -2.9133e+06 -1.32677e+06 -369621 366492
250 3 O 31.1289 16.4736 1.40966 -1.2 -8.84592 -5.10406e+06 -4.59716e+06 -3.06044e+06 -64024.8 -777274 580654
251 3 O 23.9228 17.7744 0.979747 -1.2 -9.17879 -4.44405e+06 -4.52084e+06 -3.30721e+06 844071 91273 -73459.9
252 3 O 23.9311 15.231 1.01397 -1.2 -8.97524 -6.2603e+06 -2.74839e+06 -2.67685e+06 -1.16816e+06 -28860.9 43194.3
253 1 Mg -0.252937 0.0787439 4.86513 1.2 -8.67755 2.61062e+06 324510 -1.62221e+06 -1.94747e+06 1.18611e+06 842515
254 1 Mg 7.41123 4.58985 9.44796 1.2 -8.58436 919974 2.44855e+06 2.22439e+06 -194679 -918905 205738
255 2 Si 9.26606 4.37557 6.68468 2.4 -33.3518 1.10154e+07 9.95301e+06 5.34271e+06 -411939 2.12569e+06 761429
256 3 O 9.28242 4.50113 8.24885 -1.2 -9.07887 -4.97657e+06 -2.52226e+06 -2.36477e+06 -576699 -209337 -127420
257 3 O 5.58067 4.50677 5.70359 -1.2 -8.42052 -4.63756e+06 -3.67266e+06 -2.90089e+06 -1.83182e+06 -133315 -153847
258 3 O 8.34332 5.67757 6.0733 -1.2 -8.74741 -1.97906e+06 -701571 -2.87364e+06 -1.71197e+06 -469031 -377187
259 1 Mg 0.178876 3.09757 4.63767 1.2 -8.5019 3.96484e+06 401567 -1.5686e+06 1.23588e+06 879869 -1.82528e+06
260 3 O 8.5922 3.0355 6.02026 -1.2 -8.59589 -4.36486e+06 -3.59172e+06 -4.26181e+06 -396807 -1928.67 2.18498e+06
261 1 Mg 2.86597 1.4078 4.70539 1.2 -8.98309 363673 3.21366e+06 2.08036e+06 1.1272e+06 -999740 303160
262 2 Si 1.00422 1.44745 7.43211 2.4 -34.2662 8.67769e+06 6.54906e+06 7.95579e+06 707098 173447 1.00732e+06
263 3 O 0.853462 1.37495 5.90982 -1.2 -8.84406 -3.92071e+06 -3.79422e+06 -4.45257e+06 370942 -989014 -626298
264 3 O 4.63007 1.6256 8.43297 -1.2 -8.39771 -2.94301e+06 -4.38842e+06 -3.59255e+06 1997.29 1.81849e+06 1.14722e+06
265 3 O 1.70059 2.75482 8.09047 -1.2 -8.48906 -3.26589e+06 -3.88364e+06 -3.71741e+06 -854197 953998 1.30205e+06
266 3 O 1.72862 0.280276 8.10905 -1.2 -8.42862 -3.15657e+06 -4.07237e+06 -5.05917e+06 594546 212887 -32070.8
267 1 Mg 5.106 3.06119 7.13084 1.2 -8.52075 3.69797e+06 -257657 -209656 1.92765e+06 -709610 1.59906e+06
268 1 Mg 7.97827 1.62924 7.11848 1.2 -8.95415 114004 1.15868e+06 580153 -650648 1.68479e+06 453674
269 2 Si 6.19063 1.67069 9.14789 2.4 -33.6165 1.14271e+07 8.71972e+06 5.24193e+06 175689 630123 739413
270 3 O 6.10701 1.55032 10.6668 -1.2 -9.60836 -5.05175e+06 -3.8219e+06 -4.08512e+06 202582 194884 -1.81212e+06
271 3 O -0.461725 1.56225 8.13137 -1.2 -9.30008 -6.21046e+06 -2.349e+06 -5.33576e+06 -641438 -1.43493e+06 -525034
272 3 O 6.81266 2.90838 8.42154 -1.2 -9.04824 -4.01096e+06 -3.48321e+06 -3.61766e+06 -981125 -586725 -856990