ITEM: TIMESTEP
2100
ITEM: NUMBER OF ATOMS
5600
ITEM: BOX BOUNDS xy xz yz pp pp pp
0.0000000000000000e+00 7.1234999999999999e+00 0.0000000000000000e+00
0.0000000000000000e+00 2.0198500000000001e+02 2.3744999999999998e+00
0.0000000000000000e+00 1.1958400000000000e+02 0.0000000000000000e+00
ITEM: ATOMS id type element xu yu zu q c_pe c_s[1] c_s[2] c_s[3] c_s[4] c_s[5] c_s[6]
1 1 Mg -1.548 49.1202 -0.753639 1.2 -6.73241 -2.3147e+06 -1.44649e+06 3.02103e+06 971204 435716 562970
2 1 Mg 2.86972 51.5566 1.92291 1.2 -7.64548 -2.3264e+06 4.67515e+06 716118 589218 706079 -1.11161e+06
3 2 Si 0.751299 50.9225 0.103124 2.4 -32.2473 4.00615e+06 7.47207e+06 9.83269e+06 -2.03947e+06 -932857 -1.51141e+06
4 3 O 1.87342 49.839 0.355577 -1.2 -8.64693 -4.00273e+06 -1.83833e+06 -6.89779e+06 551652 -1.22358e+06 279048
5 3 O -1.24432 53.8915 1.60694 -1.2 -9.76938 -322462 -3.73804e+06 -3.2331e+06 -1.70673e+06 -59854.1 262982
6 3 O 0.0342151 50.2766 -1.08218 -1.2 -9.95065 -4.23413e+06 -2.09142e+06 -7.11211e+06 1.48676e+06 -1.88861e+06 1.48006e+06
7 1 Mg -2.12975 59.5793 3.07769 1.2 -7.18257 -1.75633e+06 4.01765e+06 39196.2 -1.17502e+06 1.37156e+06 1.2288e+06
8 3 O -0.180331 50.9085 1.47432 -1.2 -9.31511 -3.78184e+06 -3.87185e+06 -1.13502e+06 37201.3 331193 -926573
9 1 Mg -2.18936 56.8444 4.67258 1.2 -8.08751 808054 352510 3.7315e+06 875403 -173752 -161694
10 2 Si 0.536596 58.7111 4.63242 2.4 -31.7542 4.51796e+06 1.16768e+07 8.84285e+06 925104 -371045 -1.13468e+06
11 3 O -1.01462 58.6553 4.56354 -1.2 -10.2431 -1.18843e+06 -3.99191e+06 -3.46295e+06 178263 -493217 401233
12 3 O 1.77954 54.7518 4.54475 -1.2 -9.64478 -2.804e+06 -2.68999e+06 -2.84459e+06 -1.17753e+06 660592 850699
13 3 O 1.3398 57.9615 3.4169 -1.2 -9.57737 -2.25572e+06 -1.73387e+06 -3.2062e+06 -542367 -1.19774e+06 719061
14 3 O 1.25307 58.0077 5.89552 -1.2 -9.69566 -2.15705e+06 -2.54006e+06 -3.76544e+06 -1.07524e+06 1.45568e+06 815570
15 1 Mg 0.341233 54.3099 2.976 1.2 -7.44937 -598727 4.04502e+06 -175245 -238744 -188154 950937
16 1 Mg 0.744954 50.4931 3.14323 1.2 -7.86209 -1374.2 1.36098e+06 -2.16632e+06 49585.6 -252303 1.80793e+06
17 2 Si 2.42435 53.2989 4.5033 2.4 -33.075 7.47828e+06 8.50044e+06 9.98441e+06 420704 728524 1.31928e+06
18 3 O -0.75638 53.3593 4.45781 -1.2 -9.29569 -1.10161e+06 -3.37694e+06 -3.32693e+06 1.70974e+06 666392 -228835
19 3 O 2.46383 49.8471 3.31329 -1.2 -6.98524 -2.48273e+06 -127718 -1.81896e+06 639728 -234510 -2.37206e+06
20 3 O 1.72173 52.5129 3.25924 -1.2 -9.25545 -3.16768e+06 -2.59103e+06 -2.32042e+06 127509 1.84939e+06 423407
21 1 Mg 0.037187 54.3614 -0.00655655 1.2 -6.75844 -3.93839e+06 2.57811e+06 1.75832e+06 495212 1.31532e+06 -2.5397e+06
22 3 O 1.81902 52.5038 5.82567 -1.2 -10.0436 -3.83702e+06 -3.86909e+06 -5.71646e+06 619835 -990629 -669042
23 1 Mg 0.158478 57.2454 1.69318 1.2 -7.73491 1.01791e+06 348823 3.85181e+06 -701888 79658.2 -1.20604e+06
24 2 Si -1.95812 55.3335 1.4624 2.4 -31.6737 3.75973e+06 8.71854e+06 1.16357e+07 -646572 2.66914e+06 -1.89275e+06
25 3 O 1.2139 55.3441 1.52379 -1.2 -10.3592 -840098 -1.96457e+06 -5.07432e+06 -312432 1.45271e+06 1.42998e+06
26 3 O -0.785739 59.2106 1.56974 -1.2 -9.81596 -1.28731e+06 -1.86819e+06 -3.77623e+06 1.50194e+06 744198 78950.6
27 3 O -1.44021 55.9836 0.170626 -1.2 -9.90408 -2.6717e+06 -1.18576e+06 -4.10499e+06 -659069 68157.2 1.13239e+06
28 3 O -1.13914 56.0796 2.86736 -1.2 -8.92748 -475336 -2.06463e+06 280261 768366 2.29747e+06 1.3134e+06
29 1 Mg -2.28797 59.7561 0.28753 1.2 -7.11549 -1.83543e+06 3.43673e+06 482791 -584869 -1.20216e+06 -2.06208e+06
30 1 Mg 2.583 62.551 1.72143 1.2 -8.04255 1.14537e+06 -425159 2.81524e+06 1.25659e+06 -18613.7 -674196
31 2 Si -0.160177 60.7824 1.65764 2.4 -31.9746 3.80882e+06 9.62639e+06 9.22865e+06 1.11806e+06 372394 250788
32 3 O 1.44554 60.7143 1.69837 -1.2 -10.0275 294847 -3.26915e+06 -5.82266e+06 -341225 964307 -365324
33 3 O -1.17139 64.3809 1.74006 -1.2 -8.9658 -3.21882e+06 -3.39031e+06 -3.9192e+06 -2.27376e+06 245019 1.49304e+06
34 3 O -0.851055 61.4794 0.467863 -1.2 -9.8545 -3.21134e+06 -3.25026e+06 -5.69553e+06 117251 967433 685357
35 1 Mg -2.32744 70.121 2.95996 1.2 -7.69995 -1.946e+06 3.29441e+06 -1.02701e+06 -807173 1.96891e+06 894613
36 3 O -0.729528 61.3337 3.00743 -1.2 -9.52336 -3.75496e+06 -2.72432e+06 -3.69332e+06 -193484 -395656 293628
37 1 Mg -2.19202 67.1079 4.75827 1.2 -8.3064 1.76674e+06 -609192 2.9677e+06 1.26528e+06 -13026.1 -923619
38 2 Si 0.550825 69.0958 4.4356 2.4 -32.5542 7.18296e+06 8.6699e+06 1.00291e+07 -896983 -567752 -1.31882e+06
39 3 O -1.02895 69.161 4.49822 -1.2 -9.44 231898 -3.78164e+06 -5.09985e+06 -385806 -569770 248067
40 3 O 1.69947 65.2797 4.68662 -1.2 -9.10635 -1.82031e+06 -4.59642e+06 -4.51399e+06 -1.83644e+06 602703 737474
41 3 O 1.25849 68.2842 3.15189 -1.2 -8.95621 -3.97194e+06 -1.16675e+06 -2.70493e+06 -571875 -1.64758e+06 1.50231e+06
42 3 O 1.18479 68.2987 5.68069 -1.2 -9.47511 -4.4893e+06 -549403 -4.5663e+06 -799122 1.41779e+06 181748
43 1 Mg 0.205323 64.9089 3.24085 1.2 -7.71832 -785170 3.41671e+06 1.07345e+06 427398 -656091 769931
44 1 Mg 0.276413 61.9106 4.66356 1.2 -8.20037 208152 -608258 2.92546e+06 -665713 -85801 -894451
45 2 Si 2.31592 63.7159 4.704 2.4 -32.8313 6.56945e+06 7.98143e+06 9.99847e+06 -522876 -241730 -876205
46 3 O -0.881929 63.8356 4.7139 -1.2 -9.69397 -2.46365e+06 -2.05064e+06 -4.72253e+06 1.8663e+06 -328608 263000
47 3 O 1.28 60.2335 4.62159 -1.2 -9.55178 -1.16347e+06 -2.96609e+06 -3.97754e+06 2.83544e+06 96693.5 995200
48 3 O 1.56014 63.1604 3.41349 -1.2 -9.19405 -2.64514e+06 -3.71541e+06 -3.34042e+06 -275754 1.13943e+06 -530368
49 1 Mg 0.150426 64.8674 0.28518 1.2 -7.7436 -2.82652e+06 1.93714e+06 174694 1.21237e+06 1.74955e+06 -2.65567e+06
50 3 O 1.53667 63.2316 6.01064 -1.2 -9.25757 -2.40379e+06 -4.29021e+06 -2.99064e+06 -564062 -1.25972e+06 2.19099e+06
51 1 Mg 0.319797 67.6648 1.56031 1.2 -8.34469 951479 400826 1.70723e+06 -954562 -286438 -599643
52 2 Si -1.92621 65.9116 1.80063 2.4 -32.9249 6.33221e+06 1.03982e+07 8.27137e+06 -26337.2 -1.54403e+06 -471810
53 3 O 1.26611 65.7333 1.67598 -1.2 -9.72206 -3.05409e+06 -5.10487e+06 -4.42469e+06 715878 -604204 -533063
54 3 O -0.800205 69.6326 1.51779 -1.2 -8.74224 -1.87785e+06 -4.18709e+06 -3.76643e+06 807920 156004 915762
55 3 O -1.11977 66.4852 0.488436 -1.2 -9.07945 -2.07221e+06 -4.29808e+06 -3.62094e+06 497791 -1.21987e+06 869197
56 3 O -1.24358 66.5876 2.98399 -1.2 -9.07745 -2.70408e+06 -3.81731e+06 -4.90965e+06 256953 1.19472e+06 -746472
57 1 Mg -2.43832 70.0529 0.0149148 1.2 -7.89374 -969420 2.9008e+06 -806666 -165748 -843256 -2.553e+06
58 1 Mg 2.4739 72.9389 1.61661 1.2 -8.20823 1.01497e+06 391329 3.12805e+06 875617 452636 -26197.2
59 2 Si -0.171204 71.1239 1.49153 2.4 -33.3381 6.43823e+06 8.84923e+06 1.06591e+07 784379 176355 -1.14762e+06
60 3 O 1.38616 70.9719 1.53725 -1.2 -9.54565 -3.52225e+06 -3.53202e+06 -6.23482e+06 -1.1072e+06 479140 1.04264e+06
61 3 O -1.37197 74.9126 1.76165 -1.2 -9.72087 -2.06049e+06 -2.45444e+06 -3.50562e+06 -1.67024e+06 37770.1 1.5959e+06
62 3 O -1.00036 71.7613 0.25722 -1.2 -8.9034 -3.22505e+06 -3.09521e+06 -4.35815e+06 -154789 2.08697e+06 1.73254e+06
63 1 Mg -2.28632 80.5802 3.14153 1.2 -7.93474 -1.51983e+06 3.47009e+06 194715 -781111 1.52139e+06 1.33416e+06
64 3 O -0.867167 71.7583 2.81811 -1.2 -9.11874 -3.10572e+06 -3.62352e+06 -4.31301e+06 -660179 -1.98933e+06 -796099
65 1 Mg -2.25773 77.5824 4.85359 1.2 -7.60977 -105308 -917875 1.03447e+06 1.59676e+06 -1.99999e+06 585097
66 2 Si 0.398801 79.5349 4.62007 2.4 -32.2428 5.38942e+06 7.78133e+06 1.03804e+07 1.59747e+06 94605.1 -358570
67 3 O -1.19329 79.5873 4.60843 -1.2 -9.97329 -1.51347e+06 -3.15841e+06 -5.73316e+06 823126 865702 -994220
68 3 O 1.37939 75.7256 4.61552 -1.2 -10.2719 -1.48969e+06 -2.45872e+06 -3.97168e+06 -1.44157e+06 306775 445529
69 3 O 0.98227 78.9681 3.27909 -1.2 -8.98026 -4.07422e+06 -3.75419e+06 -2.97921e+06 281874 -291765 -1.02435e+06
70 3 O 1.05588 78.8529 5.87275 -1.2 -9.96979 -1.5715e+06 -2.13099e+06 -4.57117e+06 -779378 468274 632823
71 1 Mg -0.0176097 75.4454 3.16487 1.2 -7.18962 -2.07277e+06 4.14762e+06 16461.1 535335 -1.60002e+06 1.12791e+06
72 1 Mg 0.137385 72.2338 4.37695 1.2 -7.99493 875050 -1.54183e+06 1.52391e+06 -690598 -572316 -454406
73 2 Si 2.05801 74.2555 4.56411 2.4 -31.6476 6.13961e+06 8.33758e+06 1.06611e+07 -46019.5 972055 769994
74 3 O -1.05666 74.3539 4.56788 -1.2 -9.97341 1.54972e+06 -2.404e+06 -5.00435e+06 76814.7 257118 -24242.1
75 3 O 1.17826 70.5646 4.32776 -1.2 -9.87633 -4.51073e+06 -4.36198e+06 -4.59195e+06 1.48603e+06 1.07712e+06 -318287
76 3 O 1.40176 73.5208 3.18989 -1.2 -9.23467 -2.73419e+06 -946561 -2.26125e+06 130522 1.60054e+06 1.25083e+06
77 1 Mg -0.0987956 75.1699 0.243788 1.2 -7.48427 -1.43225e+06 3.59582e+06 85316.9 653921 2.44791e+06 -1.45904e+06
78 3 O 1.47591 73.4463 5.7608 -1.2 -9.97494 -2.40177e+06 -2.00134e+06 -4.60238e+06 277773 -480523 156817
79 1 Mg 0.0329283 78.3908 1.59937 1.2 -8.24785 2.90792e+06 121119 2.23466e+06 -627711 278217 583060
80 2 Si -2.12444 76.403 1.70014 2.4 -32.7983 4.18427e+06 1.09768e+07 9.54714e+06 -95170.4 -21123.3 738507
81 3 O 1.09536 76.3085 1.63407 -1.2 -9.82448 -2.32378e+06 -2.80818e+06 -3.71086e+06 -507301 149500 169155
82 3 O -1.02213 80.1731 1.44603 -1.2 -8.89553 -3.13334e+06 -6.11877e+06 -3.7309e+06 604820 -33789.9 -878272
83 3 O -1.51203 77.0543 0.370352 -1.2 -9.01297 -2.89654e+06 -2.26106e+06 -2.48794e+06 600541 -54232.7 -315225
84 3 O -1.51008 77.2324 2.96028 -1.2 -9.17402 -1.88777e+06 -1.8367e+06 -1.93172e+06 687387 481113 -1082.73
85 1 Mg -2.56286 80.7633 -0.000977657 1.2 -7.5636 -1.10771e+06 3.87599e+06 -526132 -834814 -720444 -2.13875e+06
86 1 Mg 2.24617 83.4593 1.5079 1.2 -8.56859 2.65993e+06 -1.29208e+06 2.80499e+06 102939 46758.1 -138038
87 2 Si -0.293448 81.5711 1.55374 2.4 -33.66 6.12197e+06 9.58682e+06 8.42702e+06 -325167 1.08919e+06 -795004
88 3 O 1.25368 81.4458 1.58699 -1.2 -9.51634 -3.91716e+06 -3.88711e+06 -3.62491e+06 253001 334960 71609.9
89 3 O -1.39778 85.1394 1.52802 -1.2 -9.0943 -3.38613e+06 -4.7305e+06 -3.5782e+06 42516.3 552746 -1.21412e+06
90 3 O -0.976832 82.3921 0.339325 -1.2 -8.6346 -2.14046e+06 -3.93769e+06 -2.62355e+06 -858691 1.32596e+06 736863
91 1 Mg -2.06635 90.968 3.30958 1.2 -7.27366 -1.47328e+06 2.38438e+06 1.97559e+06 -1.06762e+06 1.53295e+06 1.95636e+06
92 3 O -0.983839 82.1727 2.87716 -1.2 -8.98191 -2.97845e+06 -3.46958e+06 -3.50219e+06 -651208 -1.00141e+06 -991152
93 1 Mg -2.22483 87.9967 4.57629 1.2 -7.99882 314252 -1.12129e+06 2.71181e+06 1.20225e+06 -636757 1.13841e+06
94 2 Si 0.603856 89.8765 4.70993 2.4 -32.2418 2.33755e+06 1.00195e+07 9.4855e+06 182543 -568947 -4787.22
95 3 O -0.89645 90.0723 4.77306 -1.2 -9.89129 -2.80413e+06 -4.29733e+06 -3.88576e+06 -373825 -599218 517012
96 3 O 1.4972 86.2997 4.49332 -1.2 -9.11659 -2.37658e+06 -2.37089e+06 -3.27453e+06 -2.60779e+06 1.2108e+06 -1.15266e+06
97 3 O 1.29543 89.2154 3.41542 -1.2 -9.91151 -750870 -1.8854e+06 -3.23012e+06 1.3502e+06 28817.6 1.12605e+06
98 3 O 1.17892 89.0982 5.97749 -1.2 -9.33303 -2.97492e+06 -4.07535e+06 -1.57606e+06 56660.1 -172894 228046
99 1 Mg 0.116612 85.827 2.90041 1.2 -7.54019 -1.0928e+06 2.74764e+06 887130 609447 -398725 2.7917e+06
100 1 Mg 0.0320224 82.7505 4.51679 1.2 -8.02167 1.28763e+06 -248804 4.1533e+06 -626084 -167640 -185602
101 2 Si 2.15786 84.7078 4.53929 2.4 -32.5321 7.65029e+06 9.34988e+06 9.77996e+06 34540.5 -679013 1.40514e+06
102 3 O -1.03833 84.795 4.53433 -1.2 -9.72324 -1.69833e+06 -2.12115e+06 -3.85252e+06 1.05157e+06 -827190 -967227
103 3 O 1.16011 81.0386 4.53885 -1.2 -9.49274 -907281 -3.27571e+06 -5.8738e+06 1.82736e+06 63068.7 -1.42862e+06
104 3 O 1.41736 84.0668 3.2322 -1.2 -9.04216 -3.22607e+06 -1.5762e+06 -3.12184e+06 560369 2.15772e+06 -687589
105 1 Mg 0.00572373 85.994 -0.185562 1.2 -7.22914 -2.53796e+06 2.67039e+06 929510 1.18814e+06 1.01298e+06 -2.15133e+06
106 3 O 1.36239 84.0739 5.78316 -1.2 -9.69205 -1.45974e+06 -1.8162e+06 -4.5397e+06 994215 -1.28094e+06 313371
107 1 Mg 0.105234 88.5929 1.78122 1.2 -7.43645 1.97549e+06 98328 2.70577e+06 87474.2 -80687.8 73207.9
108 2 Si -2.0389 86.583 1.47442 2.4 -32.2614 2.62076e+06 1.05163e+07 9.29707e+06 80833.2 -148468 -657443
109 3 O 1.1451 86.4436 1.39452 -1.2 -10.1632 -2.09059e+06 -4.26458e+06 -4.04944e+06 -379557 -230987 1.09602e+06
110 3 O -0.738936 90.4094 1.72051 -1.2 -9.53653 -2.75825e+06 -3.46708e+06 -3.15569e+06 1.52363e+06 -40383.8 20215.8
111 3 O -1.34528 87.3546 0.199464 -1.2 -9.79592 -1.92278e+06 -3.0973e+06 -3.02096e+06 1.54479e+06 -1.0414e+06 -189860
112 3 O -1.42088 87.3009 2.73738 -1.2 -9.62927 -1.0294e+06 -3.56681e+06 -4.42834e+06 927583 1.50496e+06 -262947
113 1 Mg -2.26166 90.7398 0.181601 1.2 -7.33529 -2.82187e+06 3.14678e+06 77533 -457786 -526285 -1.91827e+06
114 1 Mg 2.43384 93.7547 1.78307 1.2 -7.76872 403457 -1.05022e+06 4.83793e+06 367331 474493 -35195.3
115 2 Si -0.122331 91.9547 1.71962 2.4 -32.3097 5.67144e+06 8.10207e+06 1.03907e+07 -609841 613721 -687931
116 3 O 1.44228 91.8048 1.74392 -1.2 -9.97382 -1.23297e+06 -2.10983e+06 -3.7924e+06 -1.4192e+06 862996 538507
117 3 O -1.11369 95.3843 1.68086 -1.2 -10.2081 -239935 -1.76589e+06 -3.25189e+06 -1.932e+06 749572 -273741
118 3 O -0.88489 92.584 0.469313 -1.2 -9.44879 -2.18594e+06 -2.66383e+06 -2.9423e+06 -516976 1.01783e+06 1.55235e+06
119 1 Mg -2.16882 101.208 3.24772 1.2 -7.33017 -2.0965e+06 3.82091e+06 455362 -893109 1.65279e+06 2.01087e+06
120 3 O -0.779716 92.5251 3.06505 -1.2 -9.62679 -1.71353e+06 -3.21048e+06 -3.31294e+06 126960 -833298 -632174
121 1 Mg -2.19865 98.3718 4.74446 1.2 -7.9074 1.26201e+06 -1.59347e+06 4.63017e+06 435891 -318514 312618
122 2 Si 0.489976 100.275 4.65607 2.4 -32.2446 4.7654e+06 9.08039e+06 1.10077e+07 187660 -291673 2.37536e+06
123 3 O -1.11408 100.215 4.75144 -1.2 -9.96871 -389939 -3.02154e+06 -5.57041e+06 517454 -398315 -1.19552e+06
124 3 O 1.55382 96.6585 4.83666 -1.2 -10.2626 -408426 -1.86924e+06 -3.07983e+06 -1.15077e+06 -388420 269395
125 3 O 1.18353 99.5039 3.39418 -1.2 -9.38893 -2.6701e+06 -1.51891e+06 -2.64764e+06 -1.15336e+06 -1.05326e+06 -301617
126 3 O 1.11937 99.6001 5.99798 -1.2 -9.31921 -3.50007e+06 -4.18964e+06 -2.46826e+06 -677629 522546 -258245
127 1 Mg 0.181831 95.9213 3.31994 1.2 -6.79886 -2.48221e+06 4.42307e+06 808928 1.34424e+06 -1.5295e+06 1.73736e+06
128 1 Mg 0.0777608 93.1537 4.89385 1.2 -7.7608 1.63248e+06 -58920.4 4.08424e+06 -950251 518312 481986
129 2 Si 2.1605 95.1152 4.83645 2.4 -31.2285 4.68909e+06 1.03896e+07 1.04078e+07 -453109 -1.3493e+06 273802
130 3 O -0.915415 95.0799 4.75108 -1.2 -10.2156 2.65833e+06 -2.16511e+06 -4.50051e+06 -668678 -569865 -320856
131 3 O 1.27154 91.3895 4.88504 -1.2 -9.54014 -3.08018e+06 -1.589e+06 -4.03227e+06 -41718 -251467 394138
132 3 O 1.64993 94.4067 3.52122 -1.2 -10.134 -3.21159e+06 -1.36972e+06 -2.30893e+06 240077 277881 -53900.7
133 1 Mg 0.221663 95.963 0.238805 1.2 -7.38289 -3.50078e+06 3.92295e+06 445456 1.4351e+06 1.56068e+06 -694995
134 3 O 1.55651 94.4064 6.16809 -1.2 -9.6363 -1.74308e+06 -1.93466e+06 -2.17112e+06 359377 -933292 -1.16258e+06
135 1 Mg 0.161644 98.9411 1.70433 1.2 -8.18077 1.69245e+06 -1.30374e+06 3.53974e+06 -1.08186e+06 -146976 757815
136 2 Si -1.76997 96.9256 1.65192 2.4 -31.3201 6.98915e+06 1.06838e+07 1.01161e+07 -339317 758736 1.15518e+06
137 3 O 1.37528 96.9739 1.57052 -1.2 -9.95778 1.52016e+06 -2.63184e+06 -3.82079e+06 15521.1 -96271.6 -804414
138 3 O -0.878891 100.651 1.83162 -1.2 -9.58849 -1.99595e+06 -3.93561e+06 -2.83837e+06 1.57274e+06 -41347 -848027
139 3 O -1.05412 97.6371 0.359441 -1.2 -9.49824 -2.83927e+06 -1.44987e+06 -1.69048e+06 1.39469e+06 -874317 -627580
140 3 O -1.03487 97.7048 2.95814 -1.2 -9.55125 -1.5756e+06 -252021 -1.22878e+06 580544 1.29905e+06 405601
141 1 Mg -2.27431 101.089 0.213652 1.2 -7.36733 -1.41076e+06 3.14236e+06 1.61333e+06 -1.54477e+06 -1.02555e+06 -791956
142 1 Mg 7.3449 104.017 1.59715 1.2 -7.82187 1.25399e+06 -1.40136e+06 3.66401e+06 871630 223840 540480
143 2 Si -0.175028 102.177 1.64212 2.4 -32.4082 5.0099e+06 9.24405e+06 7.76656e+06 1.29757e+06 -384696 1.11261e+06
144 3 O 1.41354 102.083 1.70163 -1.2 -9.85593 -1.24936e+06 -3.2608e+06 -3.69552e+06 686538 496677 -824462
145 3 O 3.58471 105.697 1.60257 -1.2 -9.66138 -658834 -4.69764e+06 -4.37208e+06 -1.90209e+06 267188 -636118
146 3 O -0.862392 102.792 0.421676 -1.2 -9.7561 -2.70782e+06 -2.74571e+06 -5.0267e+06 -532037 707622 203157
147 1 Mg 2.65838 111.335 2.97604 1.2 -7.20673 -3.21901e+06 3.02251e+06 158879 -1.09885e+06 1.60261e+06 883132
148 3 O -0.776584 102.908 2.88583 -1.2 -9.30861 -3.22443e+06 -3.70818e+06 -4.44581e+06 4213.08 -312538 -2.05846e+06
149 1 Mg 2.78005 108.661 4.60046 1.2 -8.08529 1.19943e+06 -178209 3.66848e+06 1.38807e+06 -398357 874649
150 2 Si 5.43537 110.41 4.48064 2.4 -32.1462 4.61915e+06 9.54683e+06 9.43116e+06 -538373 -515189 -702797
151 3 O 3.82173 110.54 4.53382 -1.2 -9.94561 25986.9 -3.17811e+06 -4.70493e+06 104913 -1.56843e+06 625155
152 3 O 6.3203 106.747 4.58319 -1.2 -9.37782 -1.67439e+06 -5.97155e+06 -3.16109e+06 369995 360844 -736768
153 3 O 6.14319 109.555 3.33516 -1.2 -9.8695 -1.79963e+06 -3.20811e+06 -4.46356e+06 -309860 -473972 436841
154 3 O 5.88311 109.711 5.84783 -1.2 -8.8493 -3.53048e+06 -3.13761e+06 -2.48268e+06 747867 -75632.2 -44396.5
155 1 Mg 5.00747 106.018 2.99803 1.2 -7.24768 -1.91369e+06 2.85915e+06 252037 1.83699e+06 -1.74221e+06 2.29256e+06
156 1 Mg 0.118718 103.486 4.69929 1.2 -8.02391 1.15781e+06 -1.08211e+06 4.15774e+06 -1.08728e+06 9059.15 -190191
157 2 Si 6.92853 105.303 4.63568 2.4 -32.334 912029 1.00833e+07 7.79349e+06 188137 -1.10913e+06 820482
158 3 O 3.67565 105.262 4.5695 -1.2 -9.89507 -3.44971e+06 -4.21976e+06 -3.96717e+06 848083 -1.01511e+06 -829913
159 3 O 1.15839 101.699 4.73603 -1.2 -9.65579 -1.43213e+06 -4.73869e+06 -5.86647e+06 947714 -50793.7 140020
160 3 O 6.27933 104.632 3.35933 -1.2 -9.44254 -4.86069e+06 -5.1962e+06 -3.3321e+06 173918 -705323 -1.71863e+06
161 1 Mg 4.88747 106.301 0.0662889 1.2 -7.15861 -3.11066e+06 3.85339e+06 215059 1.25432e+06 1.5368e+06 -1.47981e+06
162 3 O 6.15355 104.649 5.92994 -1.2 -9.72021 -2.01083e+06 -4.65372e+06 -3.14261e+06 631553 -764174 417467
163 1 Mg 4.99227 108.91 1.78819 1.2 -7.71125 -205204 -1.16676e+06 3.69734e+06 -759756 -324286 -988640
164 2 Si 2.82645 107.236 1.57457 2.4 -31.8766 2.61561e+06 9.579e+06 9.77689e+06 -1.41068e+06 922755 -325051
165 3 O 6.06447 107.183 1.50449 -1.2 -10.3286 -3.22495e+06 -4.11947e+06 -4.9059e+06 -97940.5 89887.1 379638
166 3 O 4.01361 110.721 1.60649 -1.2 -9.77355 -1.39085e+06 -4.53016e+06 -3.31807e+06 1.57089e+06 711858 -118521
167 3 O 3.50265 107.863 0.308565 -1.2 -9.85129 -3.54516e+06 -3.19566e+06 -3.74441e+06 346710 -167476 1.25362e+06
168 3 O 3.60645 107.853 2.84279 -1.2 -9.48669 -2.25782e+06 -3.40266e+06 -3.67216e+06 628445 1.626e+06 -207343
169 1 Mg 2.55982 111.146 0.0567722 1.2 -7.25516 -1.96915e+06 3.54463e+06 645651 -151691 -472786 -1.75717e+06
170 1 Mg 7.11568 114.143 1.5321 1.2 -7.95147 629472 77322.5 1.55408e+06 438300 574109 -824698
171 2 Si 4.68575 112.231 1.44896 2.4 -32.1695 4.87497e+06 9.43403e+06 9.26144e+06 -879886 35786.7 -788720
172 3 O 6.20077 112.115 1.54957 -1.2 -10.1769 -3.58572e+06 -3.19269e+06 -4.72692e+06 -1.34498e+06 160719 283716
173 3 O 3.50431 115.956 1.33966 -1.2 -9.81879 -735284 -2.82032e+06 -5.08027e+06 -691425 -431678 -493388
174 3 O 3.83721 112.825 0.230452 -1.2 -9.15218 -1.84877e+06 -2.6846e+06 -5.269e+06 35783.5 1.70704e+06 -4944.22
175 1 Mg 2.53703 121.619 2.83183 1.2 -7.05899 -1.86974e+06 1.92128e+06 620100 -1.89146e+06 923057 2.25931e+06
176 3 O 3.86932 112.978 2.66169 -1.2 -9.4158 -2.1709e+06 -3.13503e+06 -5.252e+06 -1.78058e+06 -1.70188e+06 -331138
177 1 Mg 2.41844 118.745 4.36925 1.2 -7.91833 684675 -453523 3.24081e+06 330655 35476.7 -306275
178 2 Si 5.03012 120.539 4.31927 2.4 -32.1064 3.15115e+06 1.05547e+07 8.97324e+06 1.73067e+06 -229719 -1.032e+06
179 3 O 3.48017 120.496 4.37133 -1.2 -10.2276 -2.25963e+06 -3.98808e+06 -4.54102e+06 339904 404320 14514.4
180 3 O 6.12149 116.896 4.2859 -1.2 -9.94751 -3.35991e+06 -5.15067e+06 -3.09163e+06 -252588 -703846 1.66687e+06
181 3 O 5.70436 119.915 3.08339 -1.2 -9.39906 -2.73814e+06 -4.05518e+06 -5.79571e+06 -28971.9 -1.29736e+06 -184170
182 3 O 5.73552 119.907 5.59269 -1.2 -9.54007 -2.49063e+06 -1.95033e+06 -3.30449e+06 -429877 32997.7 513560
183 1 Mg 4.78576 116.457 2.82607 1.2 -7.06958 -2.99648e+06 3.32122e+06 157747 1.08214e+06 -2.3677e+06 1.59456e+06
184 1 Mg 4.71845 113.655 4.33728 1.2 -7.64549 1.39882e+06 -179876 3.59496e+06 -1.46493e+06 -63640.3 -490329
185 2 Si 6.77184 115.485 4.26709 2.4 -32.1669 4.73857e+06 8.23631e+06 8.85089e+06 596044 518888 -803156
186 3 O 3.66045 115.618 4.30041 -1.2 -9.83729 230963 -3.34466e+06 -3.73477e+06 -157429 1.92459e+06 1.28394e+06
187 3 O 6.10543 111.86 4.50079 -1.2 -9.90274 -1.89068e+06 -3.75945e+06 -3.79449e+06 193355 705039 1.04837e+06
188 3 O 6.11827 114.66 3.06311 -1.2 -9.94619 -2.74797e+06 -2.41901e+06 -4.89262e+06 616978 726417 -545754
189 1 Mg 4.8195 116.408 -0.121281 1.2 -7.22857 -2.62435e+06 3.75252e+06 -1.8119e+06 423654 1.87059e+06 -1.9004e+06
190 3 O 6.35854 114.805 5.61938 -1.2 -9.12577 -2.99543e+06 -2.86854e+06 -2.7663e+06 -552390 -185399 691705
191 1 Mg 4.92683 119.316 1.35223 1.2 -7.97189 717976 -337303 2.88575e+06 -668071 -71114 -443581
192 2 Si 2.81446 117.489 1.38107 2.4 -31.9858 1.72132e+06 9.60515e+06 1.02985e+07 -506974 350519 -444390
193 3 O 6.0546 117.416 1.35612 -1.2 -10.1336 -2.09199e+06 -2.97908e+06 -4.92983e+06 91251.7 339809 197520
194 3 O 4.00365 121.095 1.3482 -1.2 -9.22228 -3.52818e+06 -4.61773e+06 -4.07652e+06 677764 -739164 1.03425e+06
195 3 O 3.42021 118.193 0.0827613 -1.2 -9.42013 -2.97207e+06 -3.55555e+06 -1.52855e+06 246246 91932.6 586487
196 3 O 3.44619 118.094 2.73183 -1.2 -9.66487 -2.3282e+06 -3.18667e+06 -2.48463e+06 -267099 85815.4 237610
197 1 Mg 2.40832 121.659 -0.035175 1.2 -7.50289 -1.09794e+06 3.55986e+06 -525445 -1.31634e+06 -1.13681e+06 -2.63041e+06
198 1 Mg 7.07508 124.313 1.40535 1.2 -7.49823 -647247 -136540 4.11139e+06 1.42272e+06 -196171 -120057
199 2 Si 4.44979 122.673 1.49289 2.4 -31.8389 3.44866e+06 8.87408e+06 8.77838e+06 -764417 -16190.7 579796
200 3 O 6.07879 122.48 1.40704 -1.2 -9.85377 -474294 -4.18991e+06 -6.4267e+06 -2.74514e+06 -222658 542906
201 3 O 3.41632 126.251 1.50359 -1.2 -9.93102 -1.5085e+06 -2.12747e+06 -3.97798e+06 -1.00386e+06 57198.8 1.47191e+06
202 3 O 3.72351 123.272 0.306061 -1.2 -9.77791 -4.47626e+06 -6.00057e+06 -4.95003e+06 976022 717386 2.5958e+06
203 1 Mg 2.23547 131.634 2.78391 1.2 -8.25943 -501138 2.17614e+06 749964 -1.28235e+06 1.76383e+06 1.63464e+06
204 3 O 3.72124 123.12 2.81073 -1.2 -9.89667 -4.02894e+06 -4.23718e+06 -6.28929e+06 -584405 -1.70023e+06 -1.52968e+06
205 1 Mg 2.28311 128.918 4.37835 1.2 -8.26632 615609 -960999 1.53463e+06 338203 210625 -348064
206 2 Si 4.92274 130.872 4.46748 2.4 -34.7411 8.22787e+06 7.58872e+06 7.46338e+06 17625 287488 -1.6823e+06
207 3 O 3.3695 130.98 4.4798 -1.2 -8.60476 -4.34452e+06 -3.42021e+06 -5.5772e+06 -1.58263e+06 327347 449314
208 3 O 6.09807 127.252 4.37563 -1.2 -9.82679 -1.8044e+06 -3.94136e+06 -3.93024e+06 -3.12773e+06 -153142 381834
209 3 O 5.66431 130.22 3.26954 -1.2 -8.84755 -4.72228e+06 -4.52091e+06 -4.92791e+06 6079.28 -895123 -1.39739e+06
210 3 O 5.62687 130.373 5.77036 -1.2 -8.50263 -4.91978e+06 -3.91998e+06 -5.09346e+06 -390845 172245 2.1071e+06
211 1 Mg 4.77554 126.714 2.99735 1.2 -6.98068 -2.47022e+06 3.42413e+06 545665 811356 -1.8773e+06 879435
212 1 Mg 4.72619 123.844 4.30044 1.2 -8.2623 111159 -1.09015e+06 1.30624e+06 -1.59457e+06 -518250 155750
213 2 Si 6.74997 125.681 4.48847 2.4 -31.9635 7.50086e+06 1.05467e+07 9.75177e+06 49291.1 -899683 -435949
214 3 O 3.59984 125.783 4.43946 -1.2 -9.91538 47366.4 -3.36236e+06 -4.80085e+06 1.0349e+06 -1.42529e+06 493560
215 3 O 5.77302 122.127 4.28337 -1.2 -9.38452 -949507 -3.80108e+06 -4.12795e+06 2.43115e+06 -718320 36737
216 3 O 6.0471 124.935 3.22889 -1.2 -9.75413 -1.78022e+06 -2.32549e+06 -3.29446e+06 431279 1.83079e+06 1.2875e+06
217 1 Mg 4.83329 126.619 0.0869979 1.2 -7.65016 -1.70037e+06 2.45473e+06 -345514 835429 1.55447e+06 -1.92403e+06
218 3 O 5.89768 125.054 5.73102 -1.2 -9.05457 -2.82815e+06 -2.58039e+06 -2.78253e+06 723066 -1.74093e+06 -275550
219 1 Mg 4.73392 129.577 1.41502 1.2 -8.21978 1.46417e+06 -878439 3.87622e+06 -932497 -3576.37 1.6409e+06
220 2 Si 2.72564 127.726 1.51601 2.4 -32.3672 5.38764e+06 8.90628e+06 1.05904e+07 -13445.3 -69969.1 1.22123e+06
221 3 O 5.85387 127.57 1.40369 -1.2 -9.82214 -204992 -2.74946e+06 -5.63668e+06 -377552 -416770 -564859
222 3 O 3.67891 131.295 1.50311 -1.2 -9.00855 -3.60014e+06 -3.21111e+06 -4.93299e+06 764243 386074 -463361
223 3 O 3.36585 128.395 0.213506 -1.2 -9.008 -3.65279e+06 -2.67717e+06 -3.12568e+06 388001 -621021 -793522
224 3 O 3.27898 128.565 2.74449 -1.2 -9.49404 -2.32007e+06 -2.04816e+06 -4.84756e+06 -89082.9 1.0958e+06 -543471
225 1 Mg 2.31578 131.752 -0.127342 1.2 -7.76656 -1.19837e+06 2.72801e+06 677632 -1.24069e+06 -1.25541e+06 -917556
226 1 Mg 6.95863 134.667 1.5012 1.2 -8.33454 1.18858e+06 478680 3.00003e+06 1.20448e+06 587694 -809108
227 2 Si 4.28359 132.853 1.49621 2.4 -33.4463 5.73756e+06 7.42757e+06 1.15311e+07 -170262 152828 -402750
228 3 O 5.8052 132.72 1.52337 -1.2 -9.2925 -3.186e+06 -2.28281e+06 -5.63317e+06 -1.61608e+06 77684.2 -16094.7
229 3 O 3.34139 136.476 1.48887 -1.2 -9.16947 -2.33903e+06 -4.98015e+06 -4.00197e+06 -531106 698000 -783289
230 3 O 3.52927 133.448 0.187991 -1.2 -9.37629 -2.74385e+06 -2.11742e+06 -3.12651e+06 -132775 1.20595e+06 861243
231 1 Mg 2.38819 142.027 2.82274 1.2 -7.39479 -1.1698e+06 3.54324e+06 175483 -778928 1.20431e+06 1.89952e+06
232 3 O 3.56887 133.504 2.75582 -1.2 -8.6617 -4.32501e+06 -2.20875e+06 -3.24203e+06 1.0737e+06 -912463 838997
233 1 Mg 2.5344 139.326 4.47529 1.2 -8.06508 1.12638e+06 464693 1.87894e+06 999575 -616941 1.16778e+06
234 2 Si 5.11674 141.13 4.2407 2.4 -32.6854 2.0318e+06 9.73931e+06 9.53963e+06 -491680 1.05246e+06 485197
235 3 O 3.5738 141.152 4.3166 -1.2 -10.079 -2.8427e+06 -4.28232e+06 -4.31155e+06 -494480 -254735 -678835
236 3 O 6.08079 137.496 4.46849 -1.2 -8.94797 -2.24877e+06 -3.14641e+06 -2.9282e+06 -1.11663e+06 568144 207826
237 3 O 5.77911 140.461 2.99482 -1.2 -9.4944 -3.3462e+06 -5.17769e+06 -5.02455e+06 633258 -1.09571e+06 -1.47946e+06
238 3 O 5.75309 140.454 5.60494 -1.2 -9.08632 -1.86375e+06 -3.32378e+06 -789889 337659 336868 -582600
239 1 Mg 4.74814 136.972 2.91949 1.2 -7.77507 -364520 3.27479e+06 53685.4 689026 -882226 1.65464e+06
240 1 Mg 4.71313 134.271 4.37644 1.2 -8.60292 1.6032e+06 457707 2.49304e+06 -962515 -44662.4 241271
241 2 Si 6.79487 135.961 4.46936 2.4 -33.2173 4.61343e+06 1.19941e+07 8.21855e+06 -898687 -145917 72195.6
242 3 O 3.56184 136.207 4.46915 -1.2 -9.66658 -3.20283e+06 -4.35441e+06 -3.60475e+06 701340 -224585 879158
243 3 O 5.48918 132.384 4.37958 -1.2 -8.00144 -5.09767e+06 -4.86921e+06 -4.4423e+06 1.05818e+06 -162782 928367
244 3 O 6.08835 135.302 3.14932 -1.2 -9.20525 -2.57117e+06 -4.23953e+06 -2.70358e+06 636373 1.60973e+06 175773
245 1 Mg 4.69799 137.008 -0.0873089 1.2 -7.7362 -2.30415e+06 3.08263e+06 384914 1.03411e+06 2.27643e+06 -1.75215e+06
246 3 O 6.11076 135.299 5.70342 -1.2 -9.07707 -3.83715e+06 -4.60683e+06 -2.98463e+06 -135117 -981896 710808
247 1 Mg 4.9805 139.869 1.40117 1.2 -7.99792 887019 805397 -1.18857e+06 -696535 139593 -261332
248 2 Si 2.64823 137.935 1.43998 2.4 -33.1954 4.00452e+06 9.28783e+06 8.3512e+06 392072 -1.39372e+06 -1.02608e+06
249 3 O 5.87252 137.842 1.43628 -1.2 -9.74037 -4.15929e+06 -3.61603e+06 -4.26022e+06 239068 -1.47601e+06 -128511
250 3 O 3.83728 141.679 1.37467 -1.2 -9.17125 -2.4851e+06 -4.99497e+06 -3.71212e+06 1.6266e+06 185729 68357.8
251 3 O 3.39437 138.601 0.11069 -1.2 -9.11606 -1.60961e+06 -2.49954e+06 -2.58156e+06 517488 -501521 -252206
252 3 O 3.22434 138.599 2.6932 -1.2 -8.99009 -3.34725e+06 -4.84289e+06 -3.84292e+06 -201674 558151 -1.20236e+06
253 1 Mg 2.46655 142.084 -0.184272 1.2 -7.76438 -337449 2.74055e+06 -62919.1 -840806 -480390 -1.89614e+06
254 1 Mg 7.14542 144.91 1.27251 1.2 -8.26692 1.76498e+06 683662 3.81896e+06 569229 150811 611711
255 2 Si 4.52653 143.156 1.25877 2.4 -33.1277 4.96241e+06 9.37111e+06 1.0945e+07 -49347.8 -623628 1.64929e+06
256 3 O 6.07231 143.073 1.33908 -1.2 -9.76585 -2.64576e+06 -2.87317e+06 -4.29311e+06 -787361 524832 -825069
257 3 O 3.54329 146.83 1.13947 -1.2 -9.22512 -2.90914e+06 -1.49856e+06 -3.52355e+06 -373172 245507 287925
258 3 O 3.75294 143.661 -0.0383461 -1.2 -9.007 -3.07714e+06 -3.74072e+06 -3.51695e+06 325976 1.78715e+06 -2629.48
259 1 Mg 1.81059 152.165 1.667 1.2 -7.15095 -2.42573e+06 -1.71318e+06 2.888e+06 138277 -664620 1.48314e+06
260 3 O 3.8681 143.93 2.5549 -1.2 -9.0449 -1.93104e+06 -2.52756e+06 -1.69706e+06 -299605 -1.06508e+06 -693173
261 1 Mg 1.9931 150.297 4.74589 1.2 -7.74338 -1.86498e+06 4.02518e+06 -256.004 194721 1.05874e+06 391367
262 2 Si 4.10069 150.582 2.89006 2.4 -32.1712 7.4192e+06 7.79941e+06 8.0402e+06 -2.33394e+06 -862477 -1.33335e+06
263 3 O 2.65936 151.392 3.17068 -1.2 -9.23848 -1.08718e+06 -634582 -5.60348e+06 -1.19807e+06 -35546.9 -1.01413e+06
264 3 O 6.24358 147.843 4.39672 -1.2 -8.6631 -3.09318e+06 -3.03495e+06 -2.11749e+06 310626 -521145 -1.04285e+06
265 3 O 4.8139 151.448 1.71151 -1.2 -9.47398 -4.92088e+06 -1.44665e+06 -3.95524e+06 703786 -181784 -1.25828e+06
266 3 O 4.85805 150.38 4.2271 -1.2 -9.54385 -3.42408e+06 -4.71707e+06 -2.3424e+06 -569922 1.07741e+06 637672
267 1 Mg 4.85764 147.345 2.71905 1.2 -7.74984 -487324 2.24623e+06 2.06528e+06 2.10174e+06 -1.64043e+06 2.11843e+06
268 1 Mg 4.93464 144.509 4.20441 1.2 -8.21824 1.54373e+06 17171.2 3.92153e+06 -1.49758e+06 -203462 -491287
269 2 Si 6.85901 146.346 4.29439 2.4 -33.6378 5.92266e+06 8.82655e+06 1.08695e+07 -580160 256763 652761
270 3 O 3.66222 146.508 4.23255 -1.2 -9.24147 -2.17605e+06 -2.42976e+06 -3.29698e+06 1.32013e+06 418824 -904498
271 3 O 5.76161 142.569 4.25492 -1.2 -9.45678 -1.91828e+06 -4.98314e+06 -4.25348e+06 425927 403197 -759929
272 3 O 6.16408 145.821 2.91725 -1.2 -9.20612 -3.46863e+06 -2.34769e+06 -2.14406e+06 -36004.6 593222 -1.22214e+06