ITEM: TIMESTEP
3900
ITEM: NUMBER OF ATOMS
5600
ITEM: BOX BOUNDS xy xz yz pp pp pp
0.0000000000000000e+00 7.1234999999999999e+00 0.0000000000000000e+00
0.0000000000000000e+00 2.0198500000000001e+02 2.3744999999999998e+00
0.0000000000000000e+00 1.1958400000000000e+02 0.0000000000000000e+00
ITEM: ATOMS id type element xu yu zu q c_pe c_s[1] c_s[2] c_s[3] c_s[4] c_s[5] c_s[6]
1 1 Mg -1.5688 48.6564 -1.07715 1.2 -7.46558 -2.2992e+06 177825 -532810 1.62741e+06 -13775.6 440607
2 1 Mg 3.08144 51.4248 1.81089 1.2 -8.53052 425873 1.25265e+06 -1.44412e+06 -745266 357921 500492
3 2 Si 0.891603 50.3198 -0.142789 2.4 -33.9114 8.66569e+06 9.35244e+06 5.66893e+06 -1.11799e+06 982895 -1.04906e+06
4 3 O 1.58224 48.9443 -0.210564 -1.2 -8.1036 -6.13818e+06 -3.67516e+06 -4.29877e+06 1.69269e+06 -593120 183912
5 3 O -0.992451 53.556 1.48476 -1.2 -8.81958 -2.3976e+06 -2.34315e+06 -3.25844e+06 -2.09764e+06 27497.7 443431
6 3 O -0.125074 50.04 -1.31159 -1.2 -8.69281 -2.9698e+06 -5.43639e+06 -5.99133e+06 2.8246e+06 -1.56855e+06 2.17696e+06
7 1 Mg -2.03001 59.305 3.08617 1.2 -7.72443 -322942 5.03253e+06 -1.50933e+06 -1.20073e+06 1.65978e+06 1.51529e+06
8 3 O 0.0920353 50.6244 1.1931 -1.2 -8.38795 -5.00958e+06 -4.72868e+06 -3.39408e+06 -1.55029e+06 1.01488e+06 594974
9 1 Mg -1.81559 56.4699 4.60019 1.2 -8.31334 2.01169e+06 192465 3.32248e+06 85344.9 -146812 406612
10 2 Si 0.661845 58.3302 4.65134 2.4 -32.891 5.92867e+06 1.09357e+07 9.60762e+06 -881026 51129.3 -1.08331e+06
11 3 O -0.930634 58.2896 4.67753 -1.2 -9.75813 -796680 -3.5381e+06 -3.42959e+06 -693389 350004 1.28373e+06
12 3 O 1.71565 54.591 4.35586 -1.2 -9.55106 -3.11064e+06 -4.0593e+06 -3.18775e+06 -297289 121912 564588
13 3 O 1.31165 57.6147 3.30058 -1.2 -8.81218 -2.4352e+06 -4.07715e+06 -395799 -415152 -1.64014e+06 -295527
14 3 O 1.32021 57.6215 5.95829 -1.2 -9.17384 -2.32206e+06 -878947 -1.43624e+06 215162 593066 -175297
15 1 Mg 0.403173 53.9779 2.80329 1.2 -7.97598 -1.85306e+06 4.55149e+06 -608674 1.19819e+06 -2.45412e+06 1.44365e+06
16 1 Mg 0.998033 50.3731 2.84213 1.2 -7.91618 1.21675e+06 1.69985e+06 -2.51341e+06 -369612 -107815 707852
17 2 Si 2.37666 53.1628 4.32303 2.4 -32.9762 7.92895e+06 9.38305e+06 7.47752e+06 230044 1.0603e+06 23375.1
18 3 O -0.798391 53.118 4.35888 -1.2 -8.99638 -394178 -3.94106e+06 -3.04821e+06 550876 132771 414492
19 3 O 2.8624 49.9111 2.79542 -1.2 -7.01937 -2.53589e+06 -3.74409e+06 -2.16675e+06 -412906 1.50778e+06 588879
20 3 O 1.82472 52.4209 3.00458 -1.2 -8.95464 -5.20131e+06 -3.25695e+06 -3.12109e+06 154211 1.40669e+06 835255
21 1 Mg 0.156332 54.2144 -0.197564 1.2 -7.94092 -759113 1.31391e+06 -310207 206535 797470 -2.53392e+06
22 3 O 1.74994 52.2908 5.57486 -1.2 -10.1727 -5.42809e+06 -4.55208e+06 -5.29537e+06 798187 -1.8058e+06 -794478
23 1 Mg 0.433877 56.9818 1.61425 1.2 -8.73555 1.51818e+06 349366 1.85913e+06 -1.01918e+06 116842 315392
24 2 Si -1.67737 55.1476 1.55677 2.4 -33.4101 9.44006e+06 1.15478e+07 7.42349e+06 -582984 832785 334125
25 3 O 1.42514 55.1743 1.49768 -1.2 -8.90647 109503 -3.82036e+06 -4.97727e+06 322379 1.44516e+06 -59408.1
26 3 O -0.656854 58.8066 1.63127 -1.2 -9.21339 -1.51335e+06 -4.5289e+06 -2.36815e+06 485744 -537357 -1.112e+06
27 3 O -1.07566 55.8866 0.270423 -1.2 -8.8281 -5.56422e+06 -3.00721e+06 -4.18781e+06 271197 -1.89251e+06 322425
28 3 O -0.96739 55.7534 2.79236 -1.2 -8.97309 -4.41016e+06 -2.94807e+06 -3.0621e+06 27484.5 789324 -7913.94
29 1 Mg -2.21791 59.4372 0.235657 1.2 -7.40042 -1.59962e+06 5.04587e+06 -1.80005e+06 -784293 -935028 -1.33706e+06
30 1 Mg 2.55364 62.4053 1.55783 1.2 -8.22016 2.34512e+06 2.49752e+06 2.14686e+06 278087 -112260 275496
31 2 Si -0.0528084 60.3474 1.62676 2.4 -33.1069 3.85475e+06 1.26174e+07 7.52556e+06 130967 -280213 -133496
32 3 O 1.47789 60.2965 1.60891 -1.2 -9.60976 -3.14683e+06 -4.16774e+06 -4.86906e+06 -642563 613974 -121823
33 3 O -1.3602 64.3195 1.47774 -1.2 -8.97921 -3.72223e+06 -3.06862e+06 -1.42259e+06 -1.55938e+06 1.04472e+06 -1.14441e+06
34 3 O -0.781169 61.1148 0.4457 -1.2 -9.32898 -3.91937e+06 -3.35725e+06 -2.00674e+06 -79885.9 1.37555e+06 -27972.1
35 1 Mg -2.22811 69.881 3.02994 1.2 -7.55503 -1.0937e+06 5.23892e+06 -1.46485e+06 -981846 1.4038e+06 -103819
36 3 O -0.723185 60.8647 3.01355 -1.2 -8.92833 -3.25314e+06 -4.37295e+06 -413221 223674 -763017 -23528.5
37 1 Mg -2.18321 67.1243 4.62144 1.2 -8.98566 1.97523e+06 671556 1.28766e+06 1.26562e+06 -968493 820833
38 2 Si 0.460766 68.9143 4.5325 2.4 -33.2756 6.43398e+06 1.29755e+07 8.06763e+06 -126687 1.00393e+06 -2.99534e+06
39 3 O -1.06728 68.9907 4.54816 -1.2 -9.51669 -2.73789e+06 -4.42054e+06 -2.28113e+06 -867185 -170224 1.71676e+06
40 3 O 1.44452 65.1499 4.62788 -1.2 -8.72705 -4.79757e+06 -7.67202e+06 -2.40634e+06 -315359 -211673 -537641
41 3 O 1.18354 68.1349 3.32768 -1.2 -9.11837 -3.1227e+06 -3.75868e+06 -1.97606e+06 427321 -925819 661647
42 3 O 1.16935 68.1453 5.91222 -1.2 -8.13398 -3.03331e+06 -2.30986e+06 374732 -172335 1.30273e+06 -402177
43 1 Mg -0.0108831 64.7735 3.16239 1.2 -8.09558 104761 4.17845e+06 -266136 -5467.42 -387198 2.32769e+06
44 1 Mg 0.366677 61.6677 4.67102 1.2 -7.90635 2.00682e+06 1.9182e+06 1.81427e+06 -803226 125320 630126
45 2 Si 2.17015 63.8106 4.58726 2.4 -33.2615 6.46933e+06 1.09557e+07 6.33805e+06 598585 1.10882e+06 1.01199e+06
46 3 O -1.00409 63.9422 4.61645 -1.2 -9.30474 -2.43686e+06 -5.19102e+06 -1.27001e+06 -164703 656837 -240731
47 3 O 1.28339 59.7978 4.53433 -1.2 -9.63724 -2.04601e+06 -4.77688e+06 -1.85507e+06 803212 -557893 417066
48 3 O 1.55575 62.9924 3.29933 -1.2 -9.00667 -1.19552e+06 -3.2198e+06 128108 255915 676010 -89159.4
49 1 Mg -0.0378622 64.7552 0.0564878 1.2 -7.6458 -1.43168e+06 4.4708e+06 284276 50482 1.14953e+06 -1.34697e+06
50 3 O 1.52965 63.0692 5.8951 -1.2 -9.52665 -2.49767e+06 -4.6695e+06 -1.31099e+06 856109 -707482 1.45285e+06
51 1 Mg 0.0399507 67.6875 1.66765 1.2 -8.1529 898780 1.56061e+06 1.9234e+06 -377242 188648 -1.60568e+06
52 2 Si -2.08767 65.8693 1.47654 2.4 -33.1013 4.67812e+06 1.22561e+07 6.47805e+06 43214.3 -324163 240641
53 3 O 1.18298 65.6078 1.63142 -1.2 -9.54528 -4.25697e+06 -4.35415e+06 -1.56629e+06 716579 -625294 -887852
54 3 O -0.820368 69.514 1.64445 -1.2 -9.31958 -3.12835e+06 -4.46738e+06 -3.00643e+06 1.38669e+06 934078 447723
55 3 O -1.37436 66.5733 0.280597 -1.2 -9.59244 -779885 -4.40277e+06 -3.98132e+06 190706 -577046 1.61179e+06
56 3 O -1.36247 66.5054 2.77955 -1.2 -8.73503 -3.7582e+06 -3.6555e+06 -1.93428e+06 684597 1.23532e+06 -670269
57 1 Mg -2.2566 69.9566 0.297719 1.2 -7.53561 -781749 5.37041e+06 -1.60057e+06 -561462 -862886 -2.22819e+06
58 1 Mg 2.37269 73.0065 1.58724 1.2 -8.16607 1.46072e+06 980430 1.39622e+06 764348 256303 -1.13354e+06
59 2 Si -0.215412 71.1338 1.69805 2.4 -32.9843 4.88953e+06 1.14393e+07 5.77161e+06 -559974 104709 -3.66835e+06
60 3 O 1.33927 70.9598 1.66133 -1.2 -9.65485 -1.90951e+06 -3.81103e+06 -3.65719e+06 -1.53367e+06 279007 1.06838e+06
61 3 O -1.23813 74.8287 1.49585 -1.2 -9.40269 -2.86839e+06 -4.41399e+06 -4.5118e+06 -1.05941e+06 1.51593e+06 -509962
62 3 O -0.949197 71.8144 0.489786 -1.2 -9.11055 -3.35534e+06 -3.86218e+06 -1.79142e+06 -11084.8 688043 2.44295e+06
63 1 Mg -2.26897 80.3307 2.90086 1.2 -7.45371 -1.22989e+06 2.91771e+06 -121800 -696813 1.74277e+06 1.96132e+06
64 3 O -0.845066 71.6441 2.98714 -1.2 -9.31021 -3.6365e+06 -4.13434e+06 -3.50022e+06 1.12924e+06 -283487 776158
65 1 Mg -2.0541 77.6867 4.40985 1.2 -7.76652 282301 904505 1.80778e+06 971902 302249 -121624
66 2 Si 0.48487 79.3963 4.56008 2.4 -32.1812 3.60512e+06 1.03491e+07 1.06341e+07 -78344.7 498993 -752374
67 3 O -1.08082 79.5106 4.49739 -1.2 -10.1581 -1.39022e+06 -4.1339e+06 -4.84459e+06 106638 831352 -211093
68 3 O 1.58933 75.734 4.57254 -1.2 -9.21952 -2.8544e+06 -6.12935e+06 -2.60291e+06 -979968 99652 825241
69 3 O 1.15214 78.5989 3.35363 -1.2 -9.733 -1.86997e+06 -4.51127e+06 -2.48545e+06 91032.7 -977987 -139670
70 3 O 1.12788 78.8262 5.96461 -1.2 -9.22069 -2.17031e+06 -3.96242e+06 -1.31971e+06 -774226 1.16993e+06 -506836
71 1 Mg 0.0927955 75.3414 3.07874 1.2 -7.50273 -944135 3.46623e+06 -526246 462066 -498376 1.35467e+06
72 1 Mg 0.0577873 72.3728 4.65427 1.2 -7.78459 1.56917e+06 3.0053e+06 109254 -466223 319307 9678.07
73 2 Si 2.30542 74.2897 4.49659 2.4 -33.1102 4.23844e+06 1.13948e+07 6.20233e+06 743883 256.322 -609285
74 3 O -0.909659 74.4645 4.50799 -1.2 -9.8483 -4.1332e+06 -4.23312e+06 -3.21351e+06 334211 695955 295830
75 3 O 1.16204 70.4063 4.54793 -1.2 -9.44217 -1.4317e+06 -3.52587e+06 -864737 1.22207e+06 49842.5 2.03399e+06
76 3 O 1.61261 73.5799 3.28015 -1.2 -9.21187 -1.47279e+06 -4.32893e+06 -4.42072e+06 476140 1.23115e+06 -485285
77 1 Mg -0.105171 75.2862 0.0829131 1.2 -7.6283 -1.95853e+06 4.99074e+06 -2.05592e+06 697197 2.58844e+06 -2.67842e+06
78 3 O 1.62224 73.5774 5.75051 -1.2 -9.16734 -1.14753e+06 -4.20129e+06 -3.59239e+06 -19949.5 -1.38157e+06 1.06907e+06
79 1 Mg 0.194763 78.0041 1.64309 1.2 -8.09375 324942 980842 3.03259e+06 -1.2912e+06 156316 -1.53703e+06
80 2 Si -1.91105 76.3461 1.46206 2.4 -32.3706 3.84382e+06 1.09935e+07 7.67255e+06 110284 250553 -2.98171e+06
81 3 O 1.26985 76.2338 1.53849 -1.2 -9.86647 -776939 -4.18273e+06 -3.35425e+06 522211 -71655.1 615806
82 3 O -0.870988 79.9188 1.56689 -1.2 -8.8938 -3.50375e+06 -3.02091e+06 -3.58224e+06 555689 1.45569e+06 -1.01444e+06
83 3 O -1.33787 77.0522 0.188379 -1.2 -9.11766 -2.52033e+06 -3.97788e+06 -1.90354e+06 -878538 274835 978654
84 3 O -1.22901 76.9088 2.7748 -1.2 -9.68452 -3.55223e+06 -5.40925e+06 -3.18618e+06 -15613.1 931033 -196721
85 1 Mg -2.27196 80.5372 -0.0150667 1.2 -8.08454 12091.3 4.29375e+06 -620007 -686702 -1.51607e+06 -1.75395e+06
86 1 Mg 2.33912 83.427 1.79516 1.2 -7.96517 1.3217e+06 1.04786e+06 2.54812e+06 440070 273417 2424.41
87 2 Si -0.252714 81.4778 1.55245 2.4 -33.2372 4.20749e+06 1.08491e+07 6.99679e+06 -655951 -111652 179916
88 3 O 1.28899 81.292 1.58718 -1.2 -9.50662 -2.90404e+06 -3.48987e+06 -4.06906e+06 -979710 -485714 -230641
89 3 O -1.43211 85.1881 1.88815 -1.2 -9.00415 -2.50084e+06 -5.08788e+06 -2.54018e+06 -2.06646e+06 -562578 -406140
90 3 O -0.849432 82.0898 0.260508 -1.2 -9.06727 -2.77104e+06 -3.98238e+06 -3.0184e+06 628713 -159889 949305
91 1 Mg -2.42355 90.6766 3.00595 1.2 -7.85834 -1.98028e+06 3.08156e+06 -335967 -986687 1.69699e+06 1.69777e+06
92 3 O -0.910864 82.1496 2.79483 -1.2 -9.55979 -2.39168e+06 -2.99244e+06 -4.32392e+06 -43179.5 -176587 -928001
93 1 Mg -2.07015 88.0124 4.75228 1.2 -7.64104 462829 1.1296e+06 2.39608e+06 62681.5 -80595 203762
94 2 Si 0.33798 89.753 4.45197 2.4 -32.4517 4.73852e+06 9.26393e+06 7.62974e+06 -1.63888e+06 -896136 2.11919e+06
95 3 O -1.22525 89.899 4.49269 -1.2 -9.93525 -2.40555e+06 -3.70298e+06 -4.07476e+06 -1.52217e+06 -1.32474e+06 -534782
96 3 O 1.3639 86.1547 4.72832 -1.2 -9.83314 -2.95597e+06 -5.19155e+06 -3.59544e+06 122098 -1.30232e+06 -313958
97 3 O 1.14426 89.0269 3.21237 -1.2 -9.16432 -1.86837e+06 -4.1433e+06 -2.30834e+06 -1.06976e+06 -1.22735e+06 119512
98 3 O 0.992225 89.2048 5.70625 -1.2 -9.68151 -1.44262e+06 -4.6428e+06 -6.07023e+06 353272 474740 1.67121e+06
99 1 Mg 0.0807842 85.5707 3.46095 1.2 -7.40176 -2.40677e+06 3.073e+06 -688014 1.1558e+06 -2.06185e+06 653988
100 1 Mg 0.0211524 82.7147 4.44412 1.2 -7.95853 1.37654e+06 -58115 1.9388e+06 -1.86069e+06 -168885 40059.1
101 2 Si 1.96311 84.6976 4.8048 2.4 -32.1821 3.52821e+06 9.55749e+06 8.01341e+06 920977 -617486 -1.50162e+06
102 3 O -1.23897 84.7577 4.81186 -1.2 -9.7317 -1.05258e+06 -4.09802e+06 -4.00335e+06 970160 -299505 1.50124e+06
103 3 O 1.21493 80.8583 4.44459 -1.2 -9.52643 -2.44675e+06 -3.06875e+06 -4.86715e+06 918996 -181047 241554
104 3 O 1.30879 83.9793 3.50044 -1.2 -9.71145 -3.19067e+06 -3.96213e+06 -2.74973e+06 -124265 694596 875274
105 1 Mg 0.0179759 85.5746 0.346196 1.2 -7.75329 -1.1622e+06 4.00925e+06 140309 226748 127000 -1.6885e+06
106 3 O 1.2881 83.995 6.06425 -1.2 -9.45827 -3.49407e+06 -3.05464e+06 -2.18771e+06 -555378 -156745 886091
107 1 Mg -0.00514001 88.4091 1.56292 1.2 -8.15028 1.33266e+06 1.68703e+06 2.85951e+06 -621538 80142.3 -509095
108 2 Si -2.17004 86.6749 1.79858 2.4 -33.2156 6.19597e+06 1.10159e+07 8.57159e+06 -1.16559e+06 1.07995e+06 -548607
109 3 O 1.03464 86.4924 1.76685 -1.2 -9.63376 -3.45474e+06 -4.59539e+06 -3.68947e+06 155680 1.47484e+06 -710134
110 3 O -1.0807 90.2471 1.54941 -1.2 -9.0245 -3.94495e+06 -3.82303e+06 -3.83825e+06 1.66531e+06 656660 199744
111 3 O -1.63403 87.2436 0.389632 -1.2 -9.03732 -3.76556e+06 -2.94621e+06 -1.15022e+06 -175524 -1.31693e+06 410907
112 3 O -1.32304 87.3606 2.98132 -1.2 -9.1762 -2.63991e+06 -5.48486e+06 -1.19597e+06 1.47094e+06 1.77149e+06 -1.16191e+06
113 1 Mg -2.43148 90.4943 0.109085 1.2 -8.04107 75825.2 4.42594e+06 -812046 -718400 -1.41608e+06 -1.87228e+06
114 1 Mg 2.2962 93.627 1.80213 1.2 -8.27576 812950 696963 1.6498e+06 956122 20365.4 86003.5
115 2 Si -0.367932 91.76 1.49699 2.4 -33.2124 8.37302e+06 9.72045e+06 1.02589e+07 11834.4 -56025.2 -731066
116 3 O 1.16078 91.4949 1.51346 -1.2 -9.34167 -2.7027e+06 -3.92493e+06 -4.13172e+06 -1.58747e+06 280299 1.3263e+06
117 3 O -1.48915 95.4765 1.65503 -1.2 -9.58236 -3.25327e+06 -4.69144e+06 -2.19439e+06 -228244 -197621 -423742
118 3 O -1.17571 92.3589 0.195232 -1.2 -8.71363 -3.59114e+06 -3.05006e+06 -242235 -410948 2.10988e+06 424841
119 1 Mg -2.25802 101.171 3.26523 1.2 -6.88583 -1.98516e+06 3.43952e+06 1.26806e+06 -130570 -101295 1.52607e+06
120 3 O -1.10157 92.404 2.82956 -1.2 -9.30561 -2.6315e+06 -3.15496e+06 -2.64998e+06 -434966 -2.08158e+06 -396672
121 1 Mg -2.3509 98.1766 4.65444 1.2 -7.64667 -278538 270035 2.56228e+06 920322 -291732 -424123
122 2 Si 0.30703 99.9225 4.64563 2.4 -31.5888 3.73673e+06 9.82733e+06 8.43285e+06 923357 1.3499e+06 19859.9
123 3 O -1.24809 100.058 4.54765 -1.2 -10.481 -2.30224e+06 -3.81582e+06 -4.6082e+06 -608496 339355 -790436
124 3 O 1.3197 96.3716 4.56741 -1.2 -9.78729 -1.2684e+06 -4.29518e+06 -3.74769e+06 -2.21876e+06 31490 897014
125 3 O 1.0669 99.3237 3.44082 -1.2 -9.68806 -3.69685e+06 -4.57181e+06 -6.59867e+06 -137344 -2.29053e+06 -1.52414e+06
126 3 O 1.0869 99.2679 5.92523 -1.2 -9.74119 -590534 -5.93886e+06 -3.2049e+06 -708674 1.54287e+06 883996
127 1 Mg -0.00662731 96.0187 3.14244 1.2 -7.37566 -1.42673e+06 3.52304e+06 -140112 1.00644e+06 -1.78836e+06 295733
128 1 Mg -0.0855153 92.9707 4.43929 1.2 -8.33953 846458 -495833 2.79477e+06 -639088 -567089 138295
129 2 Si 2.05899 94.902 4.74225 2.4 -32.3917 7.20445e+06 8.94226e+06 9.97697e+06 144336 642964 -970845
130 3 O -1.13477 94.9322 4.7225 -1.2 -9.82438 -1.60892e+06 -2.39504e+06 -4.23431e+06 518215 -804492 802070
131 3 O 0.970695 91.2402 4.47879 -1.2 -9.25492 -3.39714e+06 -5.93534e+06 -4.28001e+06 1.15895e+06 468036 1.79646e+06
132 3 O 1.31272 94.0602 3.49941 -1.2 -9.15639 -2.2401e+06 -2.39942e+06 -2.94038e+06 843546 2.37361e+06 527857
133 1 Mg -0.069397 96.0064 0.155859 1.2 -7.70334 -942262 4.35005e+06 -907694 985459 841980 -2.84063e+06
134 3 O 1.26913 94.3613 6.04351 -1.2 -9.18804 -3.71282e+06 -2.52515e+06 -4.27988e+06 536179 -2.11077e+06 599596
135 1 Mg 0.26004 98.8107 1.82164 1.2 -7.83082 345885 235841 823043 -266630 -1.11645e+06 -1.09557e+06
136 2 Si -2.01776 96.973 1.61954 2.4 -32.447 4.83519e+06 1.02619e+07 9.24484e+06 2.27539e+06 526875 -1.89569e+06
137 3 O 1.19219 96.9235 1.66203 -1.2 -9.74893 -2.56898e+06 -4.30958e+06 -5.09978e+06 2.1137e+06 -1.00894e+06 645515
138 3 O -0.734871 100.57 1.71829 -1.2 -9.75571 -1.95748e+06 -4.37764e+06 -3.31511e+06 1.35176e+06 -358378 2.2616e+06
139 3 O -1.1427 97.7129 0.412412 -1.2 -9.26034 -3.61564e+06 -3.27427e+06 -2.18101e+06 953202 -2.24442e+06 772652
140 3 O -1.29114 97.574 2.96711 -1.2 -9.50926 -2.12765e+06 -4.35606e+06 -2.1013e+06 344400 1.37111e+06 50237.8
141 1 Mg -2.12625 100.8 0.203016 1.2 -7.81528 -1.62645e+06 3.727e+06 -533816 -1.17854e+06 -1.23863e+06 -3.11124e+06
142 1 Mg 7.18179 103.785 1.73221 1.2 -7.87862 209901 -57349.8 3.9204e+06 344950 -37734.9 1.37306e+06
143 2 Si -0.149216 102.079 1.64016 2.4 -31.9711 6.31941e+06 9.77875e+06 1.09174e+07 -472493 -678740 -300238
144 3 O 1.51302 101.908 1.54392 -1.2 -9.9129 1.12523e+06 -3.46146e+06 -3.68824e+06 -1.26186e+06 -128474 1.32079e+06
145 3 O 3.4226 105.687 1.65194 -1.2 -9.75192 -3.10508e+06 -4.38887e+06 -3.90664e+06 -1.20164e+06 76037.9 -237978
146 3 O -0.806814 102.595 0.26415 -1.2 -8.77246 -4.43125e+06 -3.84531e+06 -805149 -328253 1.26156e+06 452737
147 1 Mg 2.37976 111.267 3.09334 1.2 -7.14578 -2.68525e+06 4.9435e+06 -1.17491e+06 -846400 1.53964e+06 1.60477e+06
148 3 O -0.83214 102.842 2.92351 -1.2 -10.1268 -391793 -2.80727e+06 -2.07102e+06 -1.20963e+06 -1.98574e+06 -527290
149 1 Mg 2.39511 108.461 4.83236 1.2 -7.60829 694711 2.24374e+06 2.10499e+06 787761 -560969 665836
150 2 Si 5.03828 110.396 4.61495 2.4 -31.754 3.28559e+06 1.11913e+07 7.98629e+06 833812 788460 -219354
151 3 O 3.5372 110.369 4.72041 -1.2 -10.214 -2.47488e+06 -3.94632e+06 -3.25476e+06 438906 263182 -723850
152 3 O 6.06767 106.567 4.7452 -1.2 -9.54377 -2.204e+06 -5.46686e+06 -2.27356e+06 -1.75243e+06 291846 192722
153 3 O 5.71956 109.671 3.39193 -1.2 -9.96877 -2.15588e+06 -4.5698e+06 -1.935e+06 -490165 -969518 -722846
154 3 O 5.78125 109.757 6.03994 -1.2 -9.37841 -1.62294e+06 -3.38013e+06 822159 -548800 990550 -260232
155 1 Mg 4.75733 106.11 3.18092 1.2 -7.34101 -1.72674e+06 3.53373e+06 752326 657174 -1.54469e+06 1.54648e+06
156 1 Mg 0.0446558 103.154 4.6923 1.2 -7.9065 447918 414785 2.26189e+06 -796547 88191.2 -562981
157 2 Si 6.79515 105.133 4.76874 2.4 -32.7972 7.89159e+06 8.57428e+06 7.89923e+06 167163 -799414 -969346
158 3 O 3.62286 105.292 4.80708 -1.2 -9.64244 -2.28374e+06 -3.22429e+06 -2.41577e+06 725524 -702891 507894
159 3 O 1.03145 101.407 4.76842 -1.2 -9.68936 -642754 -6.0997e+06 -3.69061e+06 2.23337e+06 -124801 -741838
160 3 O 6.13614 104.458 3.4878 -1.2 -9.47422 -2.18296e+06 -2.34875e+06 -3.74915e+06 -119546 980823 -1.00396e+06
161 1 Mg 4.6673 106.242 0.220424 1.2 -7.17874 -1.52561e+06 3.81183e+06 -1.16205e+06 900013 1.58525e+06 -1.77935e+06
162 3 O 6.04199 104.412 6.02813 -1.2 -8.95161 -1.92231e+06 -3.27861e+06 -1.66472e+06 607989 -1.36891e+06 1.58426e+06
163 1 Mg 5.02559 108.869 1.69653 1.2 -7.47245 283881 632135 1.9242e+06 -758997 4220.93 493091
164 2 Si 2.753 107.15 1.75267 2.4 -31.6214 3.89094e+06 1.11002e+07 8.72182e+06 1.37927e+06 30977.6 -204577
165 3 O 5.86677 106.977 1.66311 -1.2 -10.2462 536176 -4.4203e+06 -3.62601e+06 718267 -95053.4 255820
166 3 O 3.73469 110.741 1.68297 -1.2 -9.96419 -1.76826e+06 -5.99764e+06 -2.28726e+06 632329 -185038 -643510
167 3 O 3.46512 107.865 0.445355 -1.2 -9.59709 -2.64184e+06 -5.18805e+06 -1.02511e+06 614078 -2.07747e+06 -259364
168 3 O 3.32748 107.756 3.05216 -1.2 -9.9559 -737147 -4.52427e+06 -2.07785e+06 -205630 361065 -479516
169 1 Mg 2.36841 111.169 0.136117 1.2 -6.95233 -2.82997e+06 4.8275e+06 -1.06967e+06 -1.49329e+06 -2.16075e+06 -1.46076e+06
170 1 Mg 7.0906 114.093 1.68307 1.2 -8.17602 1.63849e+06 1.29106e+06 1.60448e+06 1.01782e+06 542576 -30458.1
171 2 Si 4.41495 112.17 1.5843 2.4 -31.8592 3.61661e+06 1.26657e+07 6.45016e+06 -510648 482854 633432
172 3 O 5.97217 112.077 1.6179 -1.2 -10.2477 -1.1166e+06 -5.30299e+06 -2.57841e+06 -251726 222419 290449
173 3 O 3.38951 115.929 1.53252 -1.2 -8.97391 -3.29931e+06 -1.99278e+06 -2.08493e+06 -1.51326e+06 745361 327968
174 3 O 3.73959 112.874 0.295229 -1.2 -9.6194 -1.34302e+06 -3.81658e+06 -1.71494e+06 -723923 541903 -739742
175 1 Mg 2.33619 121.756 3.16308 1.2 -7.30977 -2.0588e+06 4.7594e+06 -1.03472e+06 -1.2366e+06 1.45531e+06 1.35466e+06
176 3 O 3.72987 112.98 2.84796 -1.2 -9.60945 -1.80748e+06 -3.37512e+06 -1.45031e+06 -596419 -831804 126547
177 1 Mg 2.31333 118.67 4.51168 1.2 -8.15632 353979 221874 2.01177e+06 -18544.4 372506 -173344
178 2 Si 5.01292 120.79 4.61549 2.4 -32.1974 6.33503e+06 9.37503e+06 9.89838e+06 -516854 631657 -669954
179 3 O 3.41768 120.744 4.62026 -1.2 -9.7666 69159.7 -3.22092e+06 -4.78013e+06 -473798 -411209 -68821.8
180 3 O 6.05881 117.011 4.54233 -1.2 -9.26185 -4.32597e+06 -4.93115e+06 -4.93186e+06 -1.38038e+06 -138550 -465570
181 3 O 5.76073 120.064 3.37886 -1.2 -9.70374 -3.7362e+06 -1.94391e+06 -2.62805e+06 -219355 -1.78086e+06 -78522.1
182 3 O 5.65009 120.17 6.03165 -1.2 -8.92384 -2.54698e+06 -3.49625e+06 -1.40774e+06 -8236.89 1.80123e+06 -306763
183 1 Mg 4.68873 116.61 3.10063 1.2 -7.66436 -1.16974e+06 2.98192e+06 -493970 726973 -1.55588e+06 2.31083e+06
184 1 Mg 4.6027 113.557 4.59615 1.2 -7.80755 1.59956e+06 844766 1.29985e+06 -1.09342e+06 326869 5522.96
185 2 Si 6.65837 115.499 4.50372 2.4 -33.0776 5.08534e+06 9.52234e+06 7.53895e+06 275207 -165227 351705
186 3 O 3.49762 115.653 4.55643 -1.2 -9.47289 -1.24537e+06 -3.99626e+06 -3.91385e+06 749901 -357654 -813751
187 3 O 5.80914 111.84 4.5694 -1.2 -9.77256 -1.08798e+06 -5.22969e+06 -3.41261e+06 1.15625e+06 -312799 -26222.8
188 3 O 6.11296 114.859 3.21661 -1.2 -9.18763 -3.49286e+06 -4.24079e+06 -4.16253e+06 -597592 11265.1 -157419
189 1 Mg 4.78384 116.31 0.1059 1.2 -7.79212 -1.27073e+06 4.4182e+06 19870.4 873316 1.64004e+06 -1.92599e+06
190 3 O 6.0088 114.833 5.76936 -1.2 -9.46315 -2.66471e+06 -4.40975e+06 -3.17288e+06 335509 -403476 1.10701e+06
191 1 Mg 4.88109 119.349 1.77177 1.2 -8.1483 1.6835e+06 445554 2.3539e+06 -693304 -100508 37700.2
192 2 Si 2.69315 117.51 1.56815 2.4 -33.0648 6.45727e+06 1.23861e+07 6.65657e+06 711996 -1.67594e+06 -1.89369e+06
193 3 O 5.85515 117.275 1.67416 -1.2 -9.5217 -1.77522e+06 -4.33648e+06 -3.4831e+06 544672 -1.16255e+06 1.34039e+06
194 3 O 3.77269 121.118 1.74569 -1.2 -9.43606 -1.10377e+06 -5.51645e+06 -3.09719e+06 920739 191602 -526211
195 3 O 3.43608 118.256 0.393567 -1.2 -8.62864 -1.96509e+06 -3.52904e+06 -2.78898e+06 306558 -164980 1.69724e+06
196 3 O 3.26173 118.145 2.85268 -1.2 -9.36546 -2.57584e+06 -4.3576e+06 -5.78433e+06 -173426 1.06676e+06 -280785
197 1 Mg 2.40857 121.502 0.166619 1.2 -7.3644 -1.82644e+06 4.92181e+06 -1.02457e+06 -1.65447e+06 -2.12787e+06 -1.53164e+06
198 1 Mg 6.99767 124.414 1.54259 1.2 -8.09512 869624 1.44509e+06 1.2158e+06 900868 407447 -685941
199 2 Si 4.394 122.632 1.63333 2.4 -32.305 3.25949e+06 1.25975e+07 6.35816e+06 494827 -623511 -83145.1
200 3 O 5.9366 122.633 1.62297 -1.2 -10.0241 -2.16001e+06 -5.07022e+06 -3.1203e+06 -836825 128449 165761
201 3 O 3.28418 126.353 1.38218 -1.2 -8.93244 -3.31153e+06 -3.81163e+06 -3.53838e+06 -1.95681e+06 1.1727e+06 754492
202 3 O 3.68246 123.226 0.365263 -1.2 -9.70435 -2.64383e+06 -4.58195e+06 -1.87713e+06 -444731 117931 1.15664e+06
203 1 Mg 2.29221 131.835 2.90292 1.2 -7.78961 -27943.1 3.66986e+06 1.11399e+06 -836616 954927 651645
204 3 O 3.69113 123.295 2.93165 -1.2 -9.4729 -2.29129e+06 -4.78404e+06 -2.24018e+06 -192547 -814476 -339704
205 1 Mg 2.31602 129.021 4.61841 1.2 -8.11253 607812 295120 2.54417e+06 395509 -642724 217866
206 2 Si 4.96184 131.006 4.56104 2.4 -33.3478 5.95281e+06 8.33897e+06 8.73998e+06 -1.94621e+06 489653 -570870
207 3 O 3.41564 130.985 4.49826 -1.2 -9.41445 -2.86121e+06 -3.44397e+06 -3.24118e+06 -1.40033e+06 1.13203e+06 281105
208 3 O 6.06537 127.301 4.55178 -1.2 -9.99166 -2.31922e+06 -5.84657e+06 -2.99213e+06 -1.30342e+06 -585284 246569
209 3 O 5.62406 130.28 3.23642 -1.2 -9.09905 -3.29575e+06 -3.01374e+06 -2.69604e+06 -105129 -1.86325e+06 -366513
210 3 O 5.776 130.269 5.80134 -1.2 -9.14361 -2.3744e+06 -2.35376e+06 -2.22406e+06 333239 543019 612223
211 1 Mg 4.6306 126.806 2.92725 1.2 -7.36197 -1.06556e+06 4.28049e+06 -361395 489582 -852324 1.58619e+06
212 1 Mg 4.6306 124.012 4.61792 1.2 -7.86407 1.09265e+06 -207466 1.45366e+06 -1.1698e+06 263912 -255274
213 2 Si 6.68608 125.848 4.44405 2.4 -32.0319 4.62651e+06 1.04722e+07 8.63665e+06 -71353.2 802268 -694227
214 3 O 3.55204 125.89 4.4598 -1.2 -10.0105 758141 -4.60185e+06 -3.0839e+06 91524.9 217920 125011
215 3 O 5.65316 122.249 4.65737 -1.2 -9.87715 -2.75935e+06 -5.93686e+06 -4.57493e+06 1.19391e+06 -1.26745e+06 1.10504e+06
216 3 O 6.08018 125.18 3.07099 -1.2 -9.42569 -2.4393e+06 -3.44653e+06 -2.03772e+06 248192 1.40673e+06 802515
217 1 Mg 4.65053 126.662 0.0340389 1.2 -7.86662 -2.17586e+06 3.83063e+06 -1.12396e+06 917638 1.90172e+06 -2.69265e+06
218 3 O 6.04631 125.102 5.71036 -1.2 -9.78628 -3.16375e+06 -4.76551e+06 -985786 1.46144e+06 -682115 1.33219e+06
219 1 Mg 4.78017 129.637 1.58665 1.2 -8.06245 179281 1.11596e+06 2.00697e+06 -736886 -137644 -231778
220 2 Si 2.55496 127.916 1.42713 2.4 -32.6835 4.79979e+06 1.19386e+07 7.49237e+06 -76764.3 -885831 -681127
221 3 O 5.7787 127.661 1.50179 -1.2 -9.931 -2.95212e+06 -4.49198e+06 -2.80362e+06 986238 -208452 453043
222 3 O 3.75865 131.512 1.40567 -1.2 -9.1813 -2.57471e+06 -4.11314e+06 -4.47922e+06 2.12026e+06 -218679 -240308
223 3 O 3.26046 128.476 0.0939284 -1.2 -9.16234 -1.80448e+06 -4.61189e+06 -2.30441e+06 722883 -1.22806e+06 1.43611e+06
224 3 O 3.29169 128.54 2.64839 -1.2 -9.55671 -1.8196e+06 -4.0895e+06 -2.6672e+06 -255168 602643 -1.67393e+06
225 1 Mg 2.37954 131.842 0.0261166 1.2 -7.91394 -1.2729e+06 4.15876e+06 -772371 -1.50226e+06 -2.15133e+06 -1.35894e+06
226 1 Mg 7.15289 134.849 1.54957 1.2 -8.88703 2.57336e+06 -476729 4.31012e+06 1.27138e+06 -63832.9 -157556
227 2 Si 4.39624 133.012 1.53019 2.4 -33.6575 8.85207e+06 8.70963e+06 1.08678e+07 511432 -93893.9 -2.37267e+06
228 3 O 6.00964 132.979 1.45568 -1.2 -9.11784 -791154 -2.64099e+06 -4.23349e+06 -1.01438e+06 5864.9 1.18395e+06
229 3 O 3.39578 136.725 1.47433 -1.2 -9.04574 -2.71484e+06 -2.09751e+06 -3.27067e+06 -1.37621e+06 141336 -1.60637e+06
230 3 O 3.66485 133.809 0.282452 -1.2 -8.23894 -5.11573e+06 -2.393e+06 -551513 -776586 1.14558e+06 853877
231 1 Mg 2.33923 142.385 2.80473 1.2 -7.66976 -689462 3.91493e+06 533824 -890609 1.47488e+06 882311
232 3 O 3.69378 133.506 2.86765 -1.2 -8.95227 -3.18685e+06 -1.84045e+06 -4.75469e+06 58881.6 -1.78199e+06 209999
233 1 Mg 2.21155 139.513 4.37581 1.2 -8.23037 1.34083e+06 -1.39275e+06 3.89454e+06 111348 265883 -690640
234 2 Si 4.98403 141.408 4.42432 2.4 -32.6215 5.16941e+06 1.00631e+07 7.61328e+06 1.00196e+06 -1.28739e+06 1.10551e+06
235 3 O 3.43351 141.473 4.37256 -1.2 -9.82211 -2.24123e+06 -3.82943e+06 -3.12912e+06 540046 253674 -578735
236 3 O 6.11498 137.802 4.48521 -1.2 -9.24888 -5.04518e+06 -6.94286e+06 -3.24335e+06 -433337 -42635.6 760618
237 3 O 5.68876 140.643 3.11853 -1.2 -8.82019 -2.76379e+06 -2.39796e+06 -754782 -368671 -1.20513e+06 321229
238 3 O 5.66129 140.814 5.63316 -1.2 -9.59473 -2.74851e+06 -3.79468e+06 -5.05816e+06 -263011 -277665 1.87151e+06
239 1 Mg 4.70859 137.276 2.9671 1.2 -7.85609 -576579 3.77662e+06 716828 519587 -1.70885e+06 1.64301e+06
240 1 Mg 4.59374 134.379 4.43805 1.2 -8.6443 2.0992e+06 551757 3.0945e+06 -662675 -197853 -275382
241 2 Si 6.6855 136.354 4.53867 2.4 -33.6777 6.47891e+06 7.25018e+06 8.89107e+06 2.24372e+06 312507 207327
242 3 O 3.50237 136.523 4.45924 -1.2 -9.16549 -2.41162e+06 -2.88443e+06 -3.47041e+06 1.64926e+06 248788 306197
243 3 O 5.55041 132.405 4.54096 -1.2 -8.93481 -4.32635e+06 -6.79034e+06 -3.34441e+06 636911 -632262 6862.43
244 3 O 5.9831 135.554 3.3193 -1.2 -8.93799 -1.77299e+06 -1.10303e+06 -3.75859e+06 176345 351463 -240179
245 1 Mg 4.78898 137.244 -0.0425746 1.2 -8.04456 -1.42925e+06 3.45779e+06 473098 385055 712470 -2.17514e+06
246 3 O 6.0453 135.71 5.82426 -1.2 -8.71121 -3.53417e+06 -3.0678e+06 -4.75331e+06 -765705 -951593 761373
247 1 Mg 4.67118 140.063 1.14871 1.2 -7.95555 644137 237958 3.41189e+06 -1.1503e+06 299373 90211.4
248 2 Si 2.6572 138.22 1.39158 2.4 -32.4978 5.7324e+06 1.11038e+07 8.88831e+06 -477319 -835756 336820
249 3 O 5.84743 138.098 1.36366 -1.2 -9.83402 -1.6127e+06 -4.21074e+06 -3.57737e+06 -188598 -1.27066e+06 -1.34564e+06
250 3 O 3.73417 141.891 1.21781 -1.2 -9.29474 -2.62969e+06 -4.2681e+06 -2.90956e+06 848096 -177495 888893
251 3 O 3.43885 138.882 0.02471 -1.2 -9.61834 -1.45541e+06 -2.45705e+06 -2.25962e+06 646639 -1.79496e+06 -519473
252 3 O 3.26817 138.979 2.60197 -1.2 -9.12777 -3.22176e+06 -4.43631e+06 -1.85707e+06 -129024 428548 -681344
253 1 Mg 2.25702 142.303 -0.220622 1.2 -7.66968 -1.15896e+06 2.97949e+06 206364 -1.04338e+06 -1.6729e+06 -1.84638e+06
254 1 Mg 7.1999 145.405 1.34407 1.2 -7.48108 195722 52799.6 3.6465e+06 693906 560231 -423549
255 2 Si 4.31546 143.418 1.29618 2.4 -32.7315 6.37043e+06 8.11026e+06 7.67503e+06 161759 895263 -2.0818e+06
256 3 O 5.89259 143.263 1.25193 -1.2 -9.50303 -1.3994e+06 -2.74374e+06 -3.34305e+06 -1.75799e+06 301608 887908
257 3 O 3.46837 147.104 1.36014 -1.2 -10.6367 -2.22083e+06 -4.29943e+06 -2.46776e+06 -571472 360067 -267123
258 3 O 3.59492 144.107 0.0192315 -1.2 -9.31239 -3.03105e+06 -2.86788e+06 -2.21213e+06 -432860 900832 1.79036e+06
259 1 Mg 1.74005 152.288 1.21849 1.2 -7.75978 -1.34337e+06 -2.49862e+06 2.62283e+06 -114952 851101 -461775
260 3 O 3.63973 143.973 2.53575 -1.2 -9.6734 -2.6026e+06 -3.26689e+06 -4.61912e+06 713642 415573 -1.53392e+06
261 1 Mg 1.93111 150.188 4.68726 1.2 -8.01808 -61247.9 4.41808e+06 1.45752e+06 -345640 769696 -728020
262 2 Si 4.05049 150.956 2.79732 2.4 -33.6551 9.11259e+06 7.28869e+06 6.79147e+06 -1.0144e+06 6879.7 -946284
263 3 O 2.7052 151.725 2.94544 -1.2 -8.02483 -4.84431e+06 -1.43873e+06 -3.51678e+06 238327 2.12002e+06 -1.74155e+06
264 3 O 6.11607 148.191 4.34253 -1.2 -10.0752 -1.01304e+06 -3.13369e+06 -1.4501e+06 -689103 209.615 1.23594e+06
265 3 O 4.76631 151.635 1.53697 -1.2 -9.00162 -6.19165e+06 -523596 -3.93658e+06 562126 712863 -411737
266 3 O 4.86988 150.86 4.11754 -1.2 -8.87466 -4.40913e+06 -4.43061e+06 -2.81544e+06 -1.39066e+06 -367639 1.05537e+06
267 1 Mg 4.94817 147.488 2.66766 1.2 -6.60956 -2.10897e+06 4.04051e+06 334360 1.57831e+06 -2.5382e+06 1.02062e+06
268 1 Mg 4.89898 144.79 4.33069 1.2 -7.47694 1.10817e+06 659071 3.19185e+06 -1.12026e+06 -530363 913463
269 2 Si 6.79791 146.685 4.40665 2.4 -31.1424 3.44274e+06 1.22871e+07 7.00837e+06 -479168 22964.2 741695
270 3 O 3.60912 146.674 4.46218 -1.2 -10.2516 403144 -3.73294e+06 -2.10103e+06 -106592 -463420 186510
271 3 O 5.77227 142.888 4.32989 -1.2 -9.55829 -1.91077e+06 -3.46238e+06 -2.93713e+06 1.70666e+06 -235089 258704
272 3 O 6.12935 145.904 3.07274 -1.2 -10.2846 -815447 -3.01737e+06 -718437 1.09445e+06 1.15827e+06 412470