ITEM: TIMESTEP
3500
ITEM: NUMBER OF ATOMS
5600
ITEM: BOX BOUNDS xy xz yz pp pp pp
0.0000000000000000e+00 7.1234999999999999e+00 0.0000000000000000e+00
0.0000000000000000e+00 2.0198500000000001e+02 2.3744999999999998e+00
0.0000000000000000e+00 1.1958400000000000e+02 0.0000000000000000e+00
ITEM: ATOMS id type element xu yu zu q c_pe c_s[1] c_s[2] c_s[3] c_s[4] c_s[5] c_s[6]
1 1 Mg -1.39717 48.4261 -1.02319 1.2 -7.3311 1.01199e+06 219934 2.91325e+06 16174.4 -199347 124311
2 1 Mg 3.14777 51.7906 1.52355 1.2 -8.46795 1.09875e+06 2.12104e+06 -449768 284221 -741000 -2.15411e+06
3 2 Si 0.834011 50.4402 -0.0561067 2.4 -34.7697 1.14892e+07 9.902e+06 7.15505e+06 -2.31941e+06 1.31668e+06 -4.86405e+06
4 3 O 1.6381 49.0516 0.0402219 -1.2 -7.55159 -2.39473e+06 -179140 -3.8056e+06 -755616 -1.87113e+06 1.7874e+06
5 3 O -1.06091 53.6944 1.39213 -1.2 -9.10356 -3.03193e+06 -3.47806e+06 -1.90228e+06 -1.05847e+06 365052 391583
6 3 O -0.222096 50.0248 -1.17838 -1.2 -8.65519 -3.42244e+06 -3.04896e+06 -3.46659e+06 2.05638e+06 -1.50234e+06 3.4365e+06
7 1 Mg -2.13224 59.3237 3.20251 1.2 -7.44279 -1.99546e+06 4.544e+06 -1.2287e+06 -1.02434e+06 1.87422e+06 2.37656e+06
8 3 O 0.0766596 50.8302 1.25933 -1.2 -8.44667 -5.13503e+06 -4.52975e+06 -2.54293e+06 -863408 -422650 1.42413e+06
9 1 Mg -1.97252 56.3473 4.53324 1.2 -7.84645 1.64908e+06 1.11293e+06 2.77587e+06 324796 409600 -190351
10 2 Si 0.652728 58.445 4.70965 2.4 -32.0652 4.04052e+06 1.07894e+07 8.34111e+06 -1.71263e+06 -521101 992956
11 3 O -0.910067 58.4337 4.59679 -1.2 -10.045 -860210 -3.93049e+06 -2.55399e+06 -453656 -681295 -344420
12 3 O 1.79058 54.5486 4.51114 -1.2 -9.62125 -2.46727e+06 -4.95322e+06 -1.85406e+06 -710638 -429438 14616
13 3 O 1.40175 57.6904 3.35337 -1.2 -9.28241 -1.79744e+06 -3.19178e+06 -506616 -1.0157e+06 -1.06629e+06 -105528
14 3 O 1.26502 57.6797 5.98379 -1.2 -9.54344 -1.48631e+06 -2.64714e+06 -3.00029e+06 -174115 1.17563e+06 -257233
15 1 Mg 0.428155 54.0893 2.87172 1.2 -7.68646 -1.64766e+06 4.07548e+06 63118.5 253146 -817847 1.92389e+06
16 1 Mg 0.881919 50.4707 2.97981 1.2 -8.50164 1.74393e+06 1.12452e+06 -3.12756e+06 124448 -325539 -16802.6
17 2 Si 2.50901 53.154 4.33799 2.4 -32.6316 5.98617e+06 9.82067e+06 7.56439e+06 -206110 332060 1.66325e+06
18 3 O -0.690179 53.2946 4.34001 -1.2 -9.74069 -2.58794e+06 -5.13886e+06 -1.56587e+06 473803 364247 -210766
19 3 O 2.57147 49.6599 2.9416 -1.2 -6.13547 -2.39239e+06 120598 -837739 133321 70710.7 -581348
20 3 O 1.87239 52.4281 3.0315 -1.2 -8.99906 -2.35604e+06 -3.32509e+06 -3.0832e+06 -27158.7 1.15511e+06 931073
21 1 Mg 0.30703 54.4801 -0.230177 1.2 -7.99061 -374093 3.02959e+06 1.70552e+06 685263 1.70587e+06 -837168
22 3 O 1.86683 52.2674 5.54837 -1.2 -10.4565 -2.46998e+06 -6.42927e+06 -5.55353e+06 926131 -1.77258e+06 771014
23 1 Mg 0.294499 57.148 1.7119 1.2 -8.26305 1.19647e+06 591588 1.28646e+06 -1.21596e+06 544763 553776
24 2 Si -1.66649 55.2442 1.51388 2.4 -33.0363 7.23857e+06 1.11089e+07 5.38913e+06 -191371 130199 1.14217e+06
25 3 O 1.44787 55.1175 1.5058 -1.2 -9.36299 -108451 -4.27594e+06 -2.5797e+06 601335 456971 42675.3
26 3 O -0.757556 58.9186 1.60618 -1.2 -9.60573 -3.07412e+06 -5.45178e+06 -2.21756e+06 626592 80398.3 -1.34826e+06
27 3 O -1.04529 56.0734 0.352306 -1.2 -9.16178 -4.03417e+06 -3.87501e+06 -5.18935e+06 -806096 -395005 907574
28 3 O -1.04771 55.8415 2.78461 -1.2 -9.39578 -3.13015e+06 -3.47548e+06 -5.13551e+06 210185 244616 -617755
29 1 Mg -2.18429 59.3042 0.209577 1.2 -7.27143 -1.58441e+06 4.71877e+06 55349.7 -838675 -1.62671e+06 -828905
30 1 Mg 2.41364 62.391 1.52829 1.2 -8.22693 2.07794e+06 1.72015e+06 1.76944e+06 601580 -261351 874963
31 2 Si -0.136316 60.4118 1.7827 2.4 -32.7742 4.41186e+06 1.20368e+07 5.07894e+06 -1.26188e+06 979751 1.47391e+06
32 3 O 1.40249 60.2356 1.80274 -1.2 -9.75464 -2.61129e+06 -4.22933e+06 -2.22232e+06 -900186 293709 -1.0002e+06
33 3 O -1.33092 64.3032 1.58476 -1.2 -8.997 -1.90537e+06 -3.53357e+06 -2.40298e+06 -561462 -167464 403978
34 3 O -0.866957 61.2776 0.621439 -1.2 -9.35235 -745221 -2.69467e+06 -3.51214e+06 -741747 746117 -660780
35 1 Mg -2.18731 70.1425 3.25125 1.2 -7.30915 -1.10796e+06 4.84419e+06 -1.35388e+06 -645539 1.36708e+06 1.44583e+06
36 3 O -0.710859 61.0487 3.06368 -1.2 -9.04706 -3.33055e+06 -3.96527e+06 -6.3426e+06 104791 -1.07348e+06 -1.08324e+06
37 1 Mg -2.32744 67.0275 4.55845 1.2 -8.09855 1.84128e+06 1.81584e+06 1.45193e+06 590080 732688 -64434.6
38 2 Si 0.416947 69.0873 4.738 2.4 -32.2443 3.37161e+06 1.21683e+07 8.31612e+06 348903 573621 -679896
39 3 O -1.07789 69.1683 4.69439 -1.2 -10.0225 -4.11914e+06 -5.20645e+06 -4.04493e+06 -461200 1.5981e+06 -587432
40 3 O 1.52669 65.1884 4.60219 -1.2 -9.16767 -3.23479e+06 -4.32436e+06 -2.17662e+06 -2.0709e+06 581124 -1.6872e+06
41 3 O 1.07456 68.4034 3.4319 -1.2 -9.39833 -2.25121e+06 -3.71052e+06 33236.2 39175.1 6167.21 -825159
42 3 O 1.28761 68.3868 6.07401 -1.2 -9.06062 -2.8995e+06 -3.75667e+06 -260508 -1.56482e+06 2.74073e+06 -538383
43 1 Mg 0.100819 65.0619 3.17921 1.2 -7.85534 -816707 4.06309e+06 301739 813795 -1.27006e+06 1.81916e+06
44 1 Mg 0.287596 61.6941 4.51102 1.2 -8.29835 1.08002e+06 1.1227e+06 324265 -1.3177e+06 -848309 -1.05512e+06
45 2 Si 2.24846 63.684 4.63542 2.4 -33.481 8.6684e+06 9.77593e+06 7.85628e+06 -546308 905888 669485
46 3 O -0.926594 63.7986 4.60374 -1.2 -9.19119 -1.72013e+06 -3.13932e+06 -2.60796e+06 517704 367810 -682818
47 3 O 1.2937 59.8471 4.68719 -1.2 -9.79408 -3.44868e+06 -6.4329e+06 -3.69749e+06 886499 477256 -774355
48 3 O 1.51249 63.0661 3.32167 -1.2 -8.74425 -3.38464e+06 -2.3412e+06 -752736 109665 1.44806e+06 -848554
49 1 Mg 0.113642 64.6227 0.0414068 1.2 -7.78989 -298394 3.54526e+06 391622 1.09602e+06 1.12431e+06 -1.11851e+06
50 3 O 1.6358 62.9937 5.9069 -1.2 -9.34004 -2.90933e+06 -3.17687e+06 -1.78521e+06 -164330 -412461 623522
51 1 Mg 0.221751 67.7204 1.57011 1.2 -7.64981 1.98492e+06 2.51751e+06 1.37963e+06 -690148 408716 1.71759e+06
52 2 Si -1.99115 65.7859 1.58443 2.4 -33.0912 4.58522e+06 1.15542e+07 8.58854e+06 -211287 794228 653570
53 3 O 1.19952 65.8046 1.53272 -1.2 -9.75756 -2.61944e+06 -3.22917e+06 -2.91002e+06 -157172 248002 329518
54 3 O -1.07817 69.5988 1.60431 -1.2 -9.36571 -603489 -3.76698e+06 -582099 1.22237e+06 -317292 -402262
55 3 O -1.38745 66.464 0.308978 -1.2 -9.16621 -2.92635e+06 -3.16206e+06 -517625 -272037 131910 -91683.4
56 3 O -1.33716 66.4219 2.98685 -1.2 -9.33524 -1.69426e+06 -4.65682e+06 -850539 613818 1.36258e+06 -413263
57 1 Mg -2.44139 70.1571 0.026439 1.2 -7.01336 -2.98083e+06 4.50023e+06 -402789 -1.3654e+06 -1.79039e+06 -2.49681e+06
58 1 Mg 2.57642 73.1177 1.55391 1.2 -6.94136 131251 1.61803e+06 1.03948e+06 887509 7174.78 104608
59 2 Si -0.280982 71.1301 1.51788 2.4 -31.7364 4.14418e+06 1.19497e+07 4.59661e+06 2.45032e+06 353780 -1.64227e+06
60 3 O 1.24229 71.027 1.61035 -1.2 -9.98831 -1.88359e+06 -4.60827e+06 -1.80985e+06 775213 701903 402698
61 3 O -1.3406 74.8862 1.61442 -1.2 -10.5472 -600979 -6.64842e+06 -2.24922e+06 -1.66558e+06 -287914 1.71448e+06
62 3 O -0.961199 71.7441 0.238102 -1.2 -10.1265 -2.48233e+06 -3.96134e+06 -3.57494e+06 -749929 1.84855e+06 1.36293e+06
63 1 Mg -2.3345 80.3302 3.1264 1.2 -7.57674 -1.70278e+06 3.105e+06 143304 -1.89643e+06 1.74378e+06 1.90979e+06
64 3 O -0.920661 71.7684 2.79031 -1.2 -10.132 -2.66934e+06 -5.47398e+06 -1.57891e+06 -492224 -411422 -2.28786e+06
65 1 Mg -2.22475 77.5671 4.53021 1.2 -7.761 75129.5 1.57107e+06 1.61754e+06 1.03211e+06 -345026 -609636
66 2 Si 0.408023 79.3462 4.55712 2.4 -32.382 4.78361e+06 1.20306e+07 7.60222e+06 1.19389e+06 -303186 -936168
67 3 O -1.10833 79.4983 4.54196 -1.2 -9.68902 -2.09154e+06 -5.17028e+06 -3.56636e+06 -704851 48470.6 993830
68 3 O 1.52871 75.7878 4.3888 -1.2 -9.91925 -1.14366e+06 -7.59962e+06 -2.81843e+06 -355086 -305541 881527
69 3 O 1.1118 78.8832 3.17944 -1.2 -9.51077 -3.50901e+06 -5.25111e+06 -834207 -758271 -1.06046e+06 -346490
70 3 O 1.16493 78.7682 5.80646 -1.2 -9.54833 -4.13343e+06 -5.03689e+06 -161843 217564 1.13545e+06 2.47302e+06
71 1 Mg 0.186477 75.2075 2.90087 1.2 -6.59736 -2.87339e+06 4.94651e+06 -1.49347e+06 1.24251e+06 -1.84063e+06 886384
72 1 Mg 0.130792 72.4722 4.38365 1.2 -7.37429 -492166 2.51932e+06 1.64167e+06 -1.82243e+06 -269594 450197
73 2 Si 2.10367 74.2967 4.53012 2.4 -31.6432 1.895e+06 1.10778e+07 3.76815e+06 -346685 1.05753e+06 664389
74 3 O -1.10639 74.3406 4.48561 -1.2 -10.1509 -1.7373e+06 -4.24278e+06 -2.26764e+06 1.39768e+06 262517 457587
75 3 O 1.13632 70.5245 4.6677 -1.2 -9.85261 -1.62433e+06 -6.22218e+06 -3.40092e+06 1.60581e+06 -214334 -2.07271e+06
76 3 O 1.34818 73.6371 3.24525 -1.2 -10.2412 -1.5178e+06 -6.58375e+06 -1.30145e+06 -130004 780453 -1.52033e+06
77 1 Mg 0.105251 75.3219 0.0603673 1.2 -6.53567 -2.84359e+06 5.03242e+06 -1.5332e+06 1.18824e+06 1.71009e+06 -1.88536e+06
78 3 O 1.47933 73.8242 5.79559 -1.2 -9.68371 -3.48953e+06 -6.79281e+06 -3.06432e+06 -1.0815e+06 1.41589e+06 1.81239e+06
79 1 Mg 0.155191 78.2223 1.38961 1.2 -7.92708 1.01112e+06 202577 1.4253e+06 -525361 582568 607214
80 2 Si -1.96309 76.4063 1.58869 2.4 -31.4137 3.29934e+06 1.24478e+07 6.12119e+06 -23984.1 -369598 -632414
81 3 O 1.20717 76.3217 1.46083 -1.2 -10.5435 -648142 -4.85207e+06 -2.70091e+06 916802 321044 300761
82 3 O -0.944223 79.9425 1.41196 -1.2 -9.20063 -3.01432e+06 -6.60404e+06 -4.18913e+06 -328458 -727548 1.0408e+06
83 3 O -1.25984 76.8834 0.202798 -1.2 -9.75127 -1.53407e+06 -5.08407e+06 -2.46121e+06 510702 -1.27134e+06 1.11882e+06
84 3 O -1.25705 77.1952 2.71912 -1.2 -9.7662 -1.69896e+06 -4.61514e+06 -2.44255e+06 127418 676535 -256683
85 1 Mg -2.36453 80.6481 0.0371735 1.2 -7.79032 -2.15294e+06 3.70288e+06 -1.56573e+06 -1.60985e+06 -1.95637e+06 -1.43643e+06
86 1 Mg 2.36178 83.314 1.77636 1.2 -7.94384 1.53445e+06 1.99235e+06 2.65261e+06 1.03858e+06 21598.3 -93054.2
87 2 Si -0.35221 81.3892 1.55742 2.4 -32.785 3.79149e+06 9.87028e+06 7.33646e+06 14441.4 303813 -677378
88 3 O 1.18732 81.349 1.52514 -1.2 -9.64001 -2.56087e+06 -4.29347e+06 -3.38225e+06 -435573 -255791 448760
89 3 O -1.34224 85.1983 1.69725 -1.2 -9.10488 -1.92983e+06 -3.81638e+06 -3.41298e+06 -1.70049e+06 -515066 -303953
90 3 O -0.979314 82.0518 0.196522 -1.2 -9.08712 -3.41161e+06 -6.84758e+06 -860634 -609609 1.04065e+06 -82906.8
91 1 Mg -2.29113 90.7059 2.97132 1.2 -8.39379 13256.7 3.55942e+06 -880717 -676190 1.72164e+06 1.62996e+06
92 3 O -1.0278 82.0245 2.82157 -1.2 -9.83455 -2.2007e+06 -3.40098e+06 -2.7724e+06 339858 90154.9 -887179
93 1 Mg -2.39258 87.9558 4.79243 1.2 -8.03445 460210 610477 2.48926e+06 1.03652e+06 625163 -117272
94 2 Si 0.347958 89.7993 4.59185 2.4 -33.4682 6.89719e+06 1.02453e+07 8.44922e+06 1.66748e+06 -1.35134e+06 617725
95 3 O -1.21312 89.8871 4.56521 -1.2 -9.36852 -2.95005e+06 -4.01759e+06 -4.1957e+06 238578 668301 -620944
96 3 O 1.40462 86.206 4.69985 -1.2 -9.32907 -2.24552e+06 -6.17576e+06 -2.98177e+06 -1.72752e+06 802689 357953
97 3 O 0.992809 89.1699 3.18894 -1.2 -8.58465 -2.76551e+06 -5.3703e+06 -275355 -434195 -1.47379e+06 -1.31599e+06
98 3 O 1.09841 89.245 5.79279 -1.2 -9.41672 -3.70382e+06 -4.29777e+06 -4.12195e+06 -70697 679770 1.78127e+06
99 1 Mg -0.164819 85.8388 3.1823 1.2 -7.64698 -2.15839e+06 3.09284e+06 -839676 1.15006e+06 -1.04511e+06 1.27111e+06
100 1 Mg 0.0439168 82.7293 4.39603 1.2 -7.96863 2.18223e+06 2.03651e+06 1.24029e+06 -639076 -645168 -203067
101 2 Si 2.13427 84.7413 4.79725 2.4 -33.3629 5.71098e+06 9.81182e+06 7.59068e+06 -964214 808925 -2.00352e+06
102 3 O -1.06632 84.8281 4.68844 -1.2 -9.58986 -3.20892e+06 -3.47147e+06 -2.9218e+06 -503387 89186.7 1.36209e+06
103 3 O 1.10886 80.9713 4.57346 -1.2 -9.15654 -2.05431e+06 -3.10055e+06 -2.05176e+06 1.14259e+06 -23722.5 -248811
104 3 O 1.46869 84.0312 3.56492 -1.2 -9.21014 -2.4394e+06 -4.05716e+06 -2.15631e+06 635512 396253 -675872
105 1 Mg 0.107503 85.7302 0.173099 1.2 -7.81086 -160614 4.59151e+06 -453163 572496 691624 -1.12077e+06
106 3 O 1.5672 84.1535 6.15849 -1.2 -8.88609 -3.491e+06 -3.09751e+06 -3.66959e+06 534189 -1.05322e+06 446869
107 1 Mg 0.0620731 88.4713 1.53943 1.2 -8.58549 902393 117127 1.56383e+06 -1.33862e+06 -325551 -177373
108 2 Si -2.09804 86.6829 1.8114 2.4 -33.1048 4.1692e+06 1.30896e+07 6.36604e+06 -200011 -2.32407e+06 808952
109 3 O 1.14688 86.6716 1.7798 -1.2 -9.67708 -4.38232e+06 -5.50082e+06 -2.94335e+06 299538 -514920 -584667
110 3 O -1.04795 90.3279 1.47252 -1.2 -8.81939 -3.91342e+06 -7.08996e+06 -5.11163e+06 1.30877e+06 -759994 -519315
111 3 O -1.27414 87.4345 0.579072 -1.2 -8.82567 -2.59814e+06 -5.45197e+06 -2.32207e+06 55186 -1.6888e+06 -52276.4
112 3 O -1.41836 87.2951 3.08076 -1.2 -9.04194 -4.79609e+06 -5.88524e+06 -3.412e+06 670660 948046 -46869.4
113 1 Mg -2.37648 90.7273 0.0446249 1.2 -8.26628 -1.87666e+06 3.54155e+06 -1.76173e+06 -633972 -2.61351e+06 -1.27269e+06
114 1 Mg 2.26903 93.5529 1.73123 1.2 -8.49025 2.49873e+06 1.5251e+06 1.51008e+06 897374 -52192.2 119883
115 2 Si -0.304275 91.7253 1.41574 2.4 -33.8705 6.94752e+06 9.39772e+06 9.65793e+06 -423144 831128 -684184
116 3 O 1.25669 91.6614 1.4622 -1.2 -9.16431 -2.767e+06 -3.55719e+06 -4.89853e+06 98934.9 1.00789e+06 367888
117 3 O -1.26424 95.6143 1.6989 -1.2 -8.75063 -3.46496e+06 -6.5589e+06 -3.73926e+06 -67486.8 569720 882959
118 3 O -1.01383 92.3473 0.0706545 -1.2 -8.4719 -3.38452e+06 -4.99863e+06 -2.29537e+06 -1.10711e+06 1.55657e+06 1.08556e+06
119 1 Mg -2.21668 101.101 3.09836 1.2 -7.54865 -2.08074e+06 3.97832e+06 1.08391e+06 -640364 1.37303e+06 1.66429e+06
120 3 O -0.967368 92.404 2.73523 -1.2 -8.82478 -3.49129e+06 -3.91062e+06 -1.5664e+06 -580541 -1.10881e+06 -923215
121 1 Mg -2.1927 98.193 4.57237 1.2 -7.9197 774959 958213 1.79969e+06 1.12883e+06 934635 -860762
122 2 Si 0.471711 100.032 4.62418 2.4 -33.2192 6.45043e+06 8.92929e+06 7.79954e+06 91745.9 -2.38772e+06 280827
123 3 O -1.09847 100.151 4.78391 -1.2 -9.29464 -2.30693e+06 -3.68359e+06 -3.00127e+06 105597 -1.57752e+06 25072.5
124 3 O 1.44946 96.4362 4.78138 -1.2 -9.66179 -1.46526e+06 -5.07298e+06 -3.60167e+06 -505978 -242555 -1.4406e+06
125 3 O 1.20609 99.3881 3.33042 -1.2 -9.36786 -695213 -3.67151e+06 -2.73315e+06 -551070 -651740 -1.0195e+06
126 3 O 1.04155 99.3877 5.90494 -1.2 -8.83571 -5.36389e+06 -5.40395e+06 -3.1451e+06 245404 507209 1.8404e+06
127 1 Mg -0.00467081 96.0963 3.30246 1.2 -7.62708 -1.36107e+06 3.71228e+06 -693749 989191 -1.03495e+06 2.20422e+06
128 1 Mg -0.117912 93.1855 4.40012 1.2 -8.67906 2.27417e+06 219032 2.45977e+06 -952440 28704.1 -210552
129 2 Si 2.06708 94.9534 4.71848 2.4 -33.1977 4.52342e+06 1.01797e+07 7.74439e+06 200158 919551 1.20901e+06
130 3 O -1.09478 95.0032 4.53774 -1.2 -9.61835 -1.90582e+06 -3.8199e+06 -4.25715e+06 256922 683874 258939
131 3 O 1.13337 91.2818 4.43234 -1.2 -8.29654 -2.6041e+06 -4.56167e+06 -4.41972e+06 1.91585e+06 -480997 -795218
132 3 O 1.37617 94.3193 3.3735 -1.2 -8.78885 -3.3474e+06 -3.13065e+06 -3.07524e+06 234063 472949 641608
133 1 Mg 0.167455 96.0349 0.367873 1.2 -8.00621 -2.40664e+06 4.03199e+06 -1.60647e+06 1.22144e+06 1.86899e+06 -2.65175e+06
134 3 O 1.5271 94.1663 5.88075 -1.2 -8.92253 -3.16509e+06 -4.37515e+06 -5.03991e+06 -579976 434975 585844
135 1 Mg 0.0856555 98.8115 1.55528 1.2 -8.13541 1.80802e+06 249083 2.08243e+06 -759544 905076 -308140
136 2 Si -1.99027 97.0316 1.76269 2.4 -33.1963 3.59981e+06 1.17769e+07 5.96161e+06 -1.03857e+06 -896432 -1.76371e+06
137 3 O 1.23643 96.9464 1.74507 -1.2 -9.58984 -4.43527e+06 -6.10427e+06 -3.33064e+06 -398619 357540 -427410
138 3 O -0.910012 100.591 1.51864 -1.2 -9.58523 -3.25221e+06 -3.28903e+06 -3.44607e+06 1.8329e+06 147963 -334702
139 3 O -1.39924 97.6528 0.376469 -1.2 -8.8691 -2.92809e+06 -5.76196e+06 -1.32747e+06 669020 -311216 2.28284e+06
140 3 O -1.26689 97.6889 2.97173 -1.2 -9.63922 -3.7516e+06 -5.71318e+06 -3.94208e+06 1.02972e+06 804207 -2.03917e+06
141 1 Mg -2.2821 101.162 0.213514 1.2 -7.98007 -1.17924e+06 4.20093e+06 -1.51176e+06 -717769 -1.78594e+06 -1.37815e+06
142 1 Mg 7.38669 103.987 1.65064 1.2 -8.5705 2.62964e+06 -1.11745e+06 1.5588e+06 1.22227e+06 -576034 -8855.8
143 2 Si -0.188405 102.059 1.68331 2.4 -32.5198 7.03614e+06 1.22219e+07 8.34939e+06 858678 1.37474e+06 165785
144 3 O 1.43321 102.017 1.70511 -1.2 -9.517 510673 -5.76111e+06 -4.1271e+06 1.02429e+06 425704 -334385
145 3 O 3.46443 105.787 1.79326 -1.2 -8.8809 -3.97615e+06 -6.5786e+06 -3.53179e+06 -2.60196e+06 -38960.1 1.23884e+06
146 3 O -0.869389 102.912 0.369967 -1.2 -8.95147 -3.62409e+06 -3.05526e+06 -848164 -1.38859e+06 1.61677e+06 -559106
147 1 Mg 2.39176 111.252 3.27122 1.2 -7.68416 -624132 4.28801e+06 520598 -144789 416735 1.09804e+06
148 3 O -0.790598 102.756 2.94905 -1.2 -9.42299 -4.39518e+06 -1.97275e+06 -3.36789e+06 -692088 -555209 487776
149 1 Mg 2.32977 108.378 4.65117 1.2 -8.20211 1.51263e+06 146373 2.42651e+06 275984 556512 27454.2
150 2 Si 4.91192 110.228 4.66701 2.4 -33.2348 4.18738e+06 1.19607e+07 8.16196e+06 415939 -195279 -1.01261e+06
151 3 O 3.44621 110.486 4.7792 -1.2 -9.56862 -5.84333e+06 -5.04614e+06 -3.88479e+06 -983343 -251042 792123
152 3 O 6.10287 106.617 4.6194 -1.2 -9.11431 -4.18548e+06 -5.58291e+06 -5.68869e+06 -2.1729e+06 -874175 52600.1
153 3 O 5.74618 109.597 3.50247 -1.2 -9.33473 -1.40661e+06 -5.57791e+06 -3.64284e+06 -373681 -1.12123e+06 -2.23961e+06
154 3 O 5.66904 109.686 6.06011 -1.2 -8.62339 -4.04677e+06 -4.57701e+06 -1.76259e+06 -903486 1.99883e+06 1.6882e+06
155 1 Mg 4.72827 106.245 3.3416 1.2 -8.15619 -2.80767e+06 2.99785e+06 -712162 -191813 -1.8465e+06 1.14269e+06
156 1 Mg 0.0805845 103.3 4.66892 1.2 -8.42818 2.04796e+06 715488 2.44447e+06 -943917 -454488 -1.0285e+06
157 2 Si 6.88353 105.182 4.62796 2.4 -33.3552 7.5758e+06 8.56516e+06 1.00862e+07 -112380 937137 -1.00834e+06
158 3 O 3.7206 105.347 4.69069 -1.2 -9.32215 -2.42704e+06 -3.47675e+06 -5.23427e+06 -418449 1.20994e+06 879436
159 3 O 1.17301 101.481 4.66843 -1.2 -8.98873 -3.41072e+06 -5.52619e+06 -3.86154e+06 945816 57409.3 1.44826e+06
160 3 O 6.23454 104.527 3.3659 -1.2 -8.71335 -2.84024e+06 -4.05345e+06 -3.33353e+06 104434 394835 -700797
161 1 Mg 4.86033 106.078 0.226033 1.2 -8.47689 -1.41712e+06 4.1277e+06 513916 559549 1.14751e+06 -1.3674e+06
162 3 O 6.19014 104.512 5.96502 -1.2 -8.90985 -3.69491e+06 -3.69593e+06 -1.74429e+06 663909 -1.86869e+06 815902
163 1 Mg 4.87313 109.157 1.67393 1.2 -8.414 1.75756e+06 783546 2.01208e+06 88972.6 -148264 -146932
164 2 Si 2.73583 107.228 1.78319 2.4 -33.872 1.11558e+07 8.87189e+06 7.62338e+06 -316694 -894620 -1.61121e+06
165 3 O 5.85842 107.2 1.77089 -1.2 -8.87117 -1.13209e+06 -3.28012e+06 -3.63607e+06 -202637 -165659 688674
166 3 O 3.87288 110.862 1.6277 -1.2 -9.61891 -3.26264e+06 -7.12498e+06 -2.21606e+06 838223 -703199 -126053
167 3 O 3.46333 107.842 0.435148 -1.2 -8.48198 -4.02003e+06 -3.51365e+06 -1.98067e+06 1.87521e+06 -2.24634e+06 1.60903e+06
168 3 O 3.39669 107.933 3.01052 -1.2 -9.07083 -4.41352e+06 -3.4031e+06 -3.64225e+06 796950 1.19614e+06 -979138
169 1 Mg 2.63902 111.338 0.157743 1.2 -7.61855 -1.80498e+06 3.83832e+06 83563.7 -1.7651e+06 -2.29828e+06 -1.96865e+06
170 1 Mg 7.17103 114.158 1.42066 1.2 -8.44901 1.00123e+06 108684 2.04151e+06 1.34575e+06 -791478 12865.7
171 2 Si 4.47655 112.321 1.63413 2.4 -32.9102 6.46389e+06 8.76504e+06 8.22327e+06 -575926 -1.28847e+06 -636495
172 3 O 6.02246 112.308 1.59809 -1.2 -9.40337 -1.91594e+06 -3.72544e+06 -3.35696e+06 -1.06973e+06 -610954 -52812.6
173 3 O 3.39659 115.958 1.55564 -1.2 -8.83177 -855936 -3.81321e+06 -4.76599e+06 -2.80251e+06 -23341.6 1.43219e+06
174 3 O 3.79409 112.945 0.293808 -1.2 -9.42132 -4.28171e+06 -4.10473e+06 -2.58413e+06 -665875 746661 1.61864e+06
175 1 Mg 2.25973 121.641 3.04589 1.2 -6.97467 -2.56172e+06 4.60256e+06 -119274 -1.1789e+06 1.441e+06 1.09535e+06
176 3 O 3.69616 112.984 2.89642 -1.2 -8.94226 -2.82128e+06 -3.21617e+06 -1.72258e+06 59838.2 -1.41117e+06 -79548.5
177 1 Mg 2.09163 118.871 4.61999 1.2 -7.84015 1.06663e+06 -916731 2.76044e+06 1.69449e+06 -432976 407863
178 2 Si 5.03146 120.722 4.56565 2.4 -31.2603 3.44826e+06 1.17747e+07 6.87909e+06 1.34485e+06 307617 -1.86653e+06
179 3 O 3.44809 120.891 4.55766 -1.2 -10.2636 865736 -5.13277e+06 -2.77431e+06 706828 133690 740056
180 3 O 6.08639 116.995 4.58018 -1.2 -9.25881 -2.92622e+06 -3.64991e+06 -3.09116e+06 -670124 241439 412087
181 3 O 5.64809 120.023 3.3217 -1.2 -10.13 -2.36701e+06 -4.27267e+06 -3.96279e+06 -446854 -735368 -109082
182 3 O 5.59891 119.887 5.85993 -1.2 -9.60094 -3.72276e+06 -2.81175e+06 -1.85176e+06 -200564 648609 -678581
183 1 Mg 4.67987 116.507 3.00204 1.2 -7.82159 -634675 3.36744e+06 33581.2 906370 -1.57553e+06 938655
184 1 Mg 4.6937 113.704 4.5677 1.2 -8.3853 2.15696e+06 641354 3.46047e+06 -1.45107e+06 -434718 -913687
185 2 Si 6.69359 115.451 4.47213 2.4 -33.5062 4.97921e+06 9.68565e+06 7.60566e+06 -1.04894e+06 580745 -94947.7
186 3 O 3.52999 115.546 4.51321 -1.2 -9.28309 -1.31828e+06 -3.66896e+06 -5.06383e+06 189597 438452 612257
187 3 O 5.63199 111.76 4.63442 -1.2 -8.68531 -3.49846e+06 -4.0765e+06 -2.82192e+06 1.32508e+06 -196852 500021
188 3 O 6.0736 114.881 3.15189 -1.2 -9.06124 -3.62578e+06 -2.65252e+06 -2.85244e+06 -174266 -38513.4 -134130
189 1 Mg 4.71797 116.356 0.0353496 1.2 -7.85487 -952249 3.47572e+06 1.37062e+06 464181 756205 -2.69914e+06
190 3 O 6.1188 114.76 5.68691 -1.2 -8.99792 -5.26995e+06 -4.63124e+06 -4.07498e+06 -272246 337747 1.77817e+06
191 1 Mg 4.75632 119.367 1.61827 1.2 -7.95176 -692556 368155 2.08311e+06 -317323 -277317 -500950
192 2 Si 2.61164 117.548 1.50289 2.4 -32.6785 6.81202e+06 8.41856e+06 9.44412e+06 -1.90189e+06 -101140 -1.3185e+06
193 3 O 5.78802 117.6 1.56711 -1.2 -9.71592 -1.93469e+06 -2.52115e+06 -4.59046e+06 220232 -74358.8 1.43028e+06
194 3 O 3.67005 121.052 1.4563 -1.2 -9.68669 -2.4426e+06 -3.11258e+06 -2.04713e+06 2.06099e+06 -188236 1.66513e+06
195 3 O 3.27704 117.969 0.154069 -1.2 -9.22446 -4.41197e+06 -3.15479e+06 -5.53641e+06 -13986.3 -2.0315e+06 2.31987e+06
196 3 O 3.34333 118.124 2.75203 -1.2 -9.26216 -3.06623e+06 -3.48612e+06 -2.9419e+06 24745.1 665057 -732793
197 1 Mg 2.30906 121.264 0.0786038 1.2 -6.96508 -2.43067e+06 3.62335e+06 -1.19303e+06 -1.12262e+06 -1.81128e+06 -1.18027e+06
198 1 Mg 6.97114 124.511 1.34694 1.2 -8.05732 314039 1.34e+06 624071 880428 -581137 101822
199 2 Si 4.33876 122.674 1.55682 2.4 -31.8958 3.97495e+06 1.3033e+07 4.75509e+06 -114483 -571472 1.09595e+06
200 3 O 5.83535 122.437 1.54414 -1.2 -10.1212 -2.56925e+06 -4.77175e+06 -2.2439e+06 -1.56762e+06 -916573 -59372.3
201 3 O 3.20279 126.306 1.41747 -1.2 -9.45047 -1.98628e+06 -3.40906e+06 -1.98544e+06 -794949 83842.6 1.3433e+06
202 3 O 3.63496 123.327 0.350301 -1.2 -9.66519 -2.46256e+06 -4.74758e+06 -4.74404e+06 373523 1.06246e+06 985482
203 1 Mg 2.39947 131.932 3.0374 1.2 -7.70646 -2.95411e+06 3.7596e+06 -319717 -1.09943e+06 1.96098e+06 1.4431e+06
204 3 O 3.54248 123.378 2.76772 -1.2 -9.73691 -1.61927e+06 -3.06967e+06 -3.33969e+06 -1.17403e+06 -953207 652101
205 1 Mg 2.3433 129.119 4.56508 1.2 -7.61312 1.6257e+06 985601 4.14144e+06 710384 363125 -24822.3
206 2 Si 5.05308 131.138 4.5629 2.4 -32.259 4.43105e+06 9.27745e+06 9.65787e+06 1.36653e+06 -1.1763e+06 -1.16684e+06
207 3 O 3.49116 131.168 4.63427 -1.2 -10.007 -1.88387e+06 -3.76007e+06 -4.57929e+06 1.64863e+06 -916573 97723.5
208 3 O 6.03871 127.293 4.3278 -1.2 -9.72183 -1.78481e+06 -1.4212e+06 -2.61572e+06 -1.24327e+06 130006 508056
209 3 O 5.72735 130.536 3.20545 -1.2 -9.37055 -2.07111e+06 -4.17504e+06 -2.19033e+06 -391890 -448326 522301
210 3 O 5.59031 130.352 5.81888 -1.2 -9.40547 -3.24893e+06 -2.73524e+06 -2.80613e+06 -680386 194718 1.40682e+06
211 1 Mg 4.73672 126.872 2.93377 1.2 -7.18286 -955959 4.09668e+06 28236 1.00152e+06 -1.81741e+06 1.20296e+06
212 1 Mg 4.48906 124.023 4.47385 1.2 -7.46648 220005 843365 2.76095e+06 -741819 128188 -905143
213 2 Si 6.70076 125.712 4.39905 2.4 -31.4458 3.94358e+06 1.13225e+07 1.01844e+07 808700 287378 -360157
214 3 O 3.49572 125.896 4.4163 -1.2 -10.3528 -585244 -3.27106e+06 -3.11524e+06 1.61633e+06 335469 96436
215 3 O 5.75567 122.196 4.63607 -1.2 -10.1909 -1.50545e+06 -3.41584e+06 -2.42248e+06 706111 68870.7 -5166.31
216 3 O 5.91937 125.042 3.09177 -1.2 -9.60834 -1.5768e+06 -3.12601e+06 -320864 668539 1.83716e+06 692384
217 1 Mg 4.66132 126.816 -0.0683451 1.2 -7.60742 -1.21824e+06 3.804e+06 -785686 1.32967e+06 983878 -1.86044e+06
218 3 O 5.95647 125.117 5.70577 -1.2 -10.1355 -1.39304e+06 -4.07497e+06 -1.46719e+06 212144 -1.58752e+06 472614
219 1 Mg 4.6563 129.771 1.55681 1.2 -8.04442 1.91447e+06 282997 2.96868e+06 -395550 -271315 -50381.9
220 2 Si 2.62821 127.87 1.37608 2.4 -32.6298 4.86109e+06 1.19158e+07 8.49517e+06 -158708 -287314 -155312
221 3 O 5.81763 127.783 1.3718 -1.2 -9.67683 -1.29983e+06 -3.80991e+06 -4.25265e+06 976314 -1.83466e+06 498678
222 3 O 3.68185 131.519 1.57848 -1.2 -9.58367 -4.35836e+06 -5.00604e+06 -3.28621e+06 1.42983e+06 476416 431718
223 3 O 3.46968 128.419 0.129043 -1.2 -9.35797 -4.03967e+06 -4.49777e+06 -1.14933e+06 307978 -1.21424e+06 1.13805e+06
224 3 O 3.16049 128.663 2.69229 -1.2 -9.50968 -2.15e+06 -2.09428e+06 -560769 -77518.3 709492 1.07684e+06
225 1 Mg 2.38961 131.917 0.0396744 1.2 -8.15546 397308 3.79434e+06 413730 -552742 -1.83959e+06 -976631
226 1 Mg 6.9427 134.854 1.55996 1.2 -8.8629 2.07014e+06 -163574 354318 1.42676e+06 -97055.4 590472
227 2 Si 4.37041 132.964 1.6191 2.4 -33.4838 7.83824e+06 9.443e+06 8.30497e+06 -779067 1.25264e+06 -313615
228 3 O 5.96748 132.912 1.69113 -1.2 -9.06615 -972853 -4.69394e+06 -3.78271e+06 -96381 -742083 -6045.32
229 3 O 3.37426 136.651 1.51668 -1.2 -8.81485 -1.90922e+06 -3.25175e+06 -3.14149e+06 -2.11255e+06 233316 -957658
230 3 O 3.82501 133.667 0.135641 -1.2 -8.30855 -3.204e+06 -1.87824e+06 -440978 -56966.8 1.31176e+06 -1.49214e+06
231 1 Mg 2.28002 142.382 2.82019 1.2 -7.62668 -1.63083e+06 3.97726e+06 -54944.9 -543677 1.34929e+06 849510
232 3 O 3.69589 133.743 2.72655 -1.2 -8.9339 -5.12742e+06 -3.43588e+06 -3.52623e+06 -91974.2 935286 -1.7464e+06
233 1 Mg 2.48705 139.517 4.35131 1.2 -8.01804 1.29625e+06 1.47999e+06 3.7658e+06 486754 -200980 -814474
234 2 Si 4.9871 141.391 4.26881 2.4 -32.3154 5.31935e+06 9.03122e+06 7.52069e+06 -255035 -1.01489e+06 -397258
235 3 O 3.41456 141.446 4.33089 -1.2 -10.0557 -1.78524e+06 -2.1751e+06 -3.22323e+06 -410271 -898762 1.08299e+06
236 3 O 5.98575 137.638 4.45015 -1.2 -9.13735 -1.1641e+06 -2.28605e+06 -4.43529e+06 -196612 -867135 -334598
237 3 O 5.72743 140.726 2.9441 -1.2 -9.16553 -1.79983e+06 -3.44872e+06 -2.84617e+06 -1.12053e+06 -1.67379e+06 682396
238 3 O 5.61924 140.749 5.48673 -1.2 -9.58651 -2.72925e+06 -4.15125e+06 -4.60067e+06 332128 127297 2.38625e+06
239 1 Mg 4.67804 137.301 2.9198 1.2 -7.99904 -233247 3.13651e+06 -516252 1.6762e+06 -1.7103e+06 863490
240 1 Mg 4.66861 134.268 4.59201 1.2 -8.18932 3.05552e+06 -1.31696e+06 3.92014e+06 -1.25161e+06 421253 -199472
241 2 Si 6.63418 136.142 4.46428 2.4 -33.8919 6.20398e+06 7.98434e+06 1.15861e+07 -1.58207e+06 -890357 -554575
242 3 O 3.48808 136.153 4.51989 -1.2 -9.07323 -989790 -1.82731e+06 -5.35891e+06 -540464 186991 -455040
243 3 O 5.81269 132.594 4.6334 -1.2 -9.44206 -1.45107e+06 -3.84593e+06 -4.44831e+06 884027 138848 205849
244 3 O 6.10766 135.478 3.18094 -1.2 -8.75321 -5.59598e+06 -3.43101e+06 -3.62769e+06 -108603 64687.7 -1.68408e+06
245 1 Mg 4.81073 136.805 -0.0105903 1.2 -7.73466 -1.41905e+06 3.82342e+06 773346 1.08277e+06 908889 -2.66791e+06
246 3 O 6.09672 135.5 5.86681 -1.2 -8.7145 -2.80303e+06 -1.97598e+06 -1.2538e+06 15326.8 180503 -504515
247 1 Mg 4.83818 139.956 1.34797 1.2 -8.19738 639466 883199 2.99358e+06 -853263 -236795 -1.07315e+06
248 2 Si 2.68827 138.199 1.26007 2.4 -32.5384 7.3152e+06 1.0887e+07 1.13801e+07 -453230 -934769 -3.19641e+06
249 3 O 5.86429 138.14 1.44039 -1.2 -9.74911 -826227 -3.23892e+06 -3.35334e+06 1.00662e+06 -784176 982618
250 3 O 3.62778 141.82 1.32072 -1.2 -9.18031 -2.98426e+06 -4.66311e+06 -3.76756e+06 897455 -550069 1.44682e+06
251 3 O 3.42258 138.741 -0.113287 -1.2 -9.03838 -1.25473e+06 -2.0363e+06 184621 158622 -1.4064e+06 396837
252 3 O 3.44337 138.836 2.60719 -1.2 -9.26441 -3.19982e+06 -5.10553e+06 1.02137e+06 829584 1.50412e+06 189968
253 1 Mg 2.34695 142.157 -0.134314 1.2 -8.25867 -902784 3.9699e+06 -566974 -966884 -1.97184e+06 -1.59117e+06
254 1 Mg 6.92237 145.287 1.39074 1.2 -8.21171 2.13074e+06 150032 1.74719e+06 256087 292144 259444
255 2 Si 4.35441 143.265 1.2785 2.4 -33.7804 6.58784e+06 9.59789e+06 7.2168e+06 -374964 -17023.5 148493
256 3 O 5.94127 143.184 1.28429 -1.2 -9.27835 -2.49844e+06 -3.03657e+06 -4.0513e+06 644019 145751 737083
257 3 O 3.48991 146.966 1.33653 -1.2 -9.45941 -2.24188e+06 -4.27179e+06 -2.72872e+06 -398349 -304664 1.59444e+06
258 3 O 3.76774 143.902 -0.0249991 -1.2 -8.48188 -4.57197e+06 -3.66111e+06 -4.29418e+06 470663 874433 274117
259 1 Mg 1.91515 152.506 1.29505 1.2 -7.60467 58740.2 -1.89446e+06 3.53806e+06 784121 -1.12444e+06 875403
260 3 O 3.77756 144.04 2.50669 -1.2 -8.98658 -1.98055e+06 -2.97298e+06 -2.55283e+06 501030 -75063.8 -764358
261 1 Mg 1.8708 150.139 4.68974 1.2 -7.76977 93630.1 3.23767e+06 1.59401e+06 -328616 661387 457934
262 2 Si 4.00302 150.858 2.76709 2.4 -33.0925 9.64117e+06 6.4512e+06 9.04243e+06 -348122 278761 -257014
263 3 O 2.72907 151.755 2.85438 -1.2 -8.45726 -4.48783e+06 -539021 -4.74969e+06 -185583 -209750 -2.08331e+06
264 3 O 6.29622 148.175 4.37982 -1.2 -9.80783 -2.13654e+06 -4.25958e+06 -2.21542e+06 -1.1896e+06 -369436 -1.3612e+06
265 3 O 4.9439 151.477 1.59961 -1.2 -9.11301 -4.5815e+06 783898 -4.86118e+06 1.71191e+06 -1.70031e+06 -1.63775e+06
266 3 O 4.77371 150.724 4.19258 -1.2 -9.08487 -2.54032e+06 -3.95566e+06 -1.02334e+06 -1.38967e+06 1.23456e+06 658231
267 1 Mg 4.85211 147.503 2.79425 1.2 -7.13102 -1.80765e+06 4.02707e+06 -43271.5 1.04629e+06 -826965 2.12939e+06
268 1 Mg 4.76819 144.671 4.57841 1.2 -7.39048 631883 197798 3.17556e+06 -110498 854705 1.53543e+06
269 2 Si 6.94167 146.685 4.40424 2.4 -32.0176 4.35989e+06 1.09248e+07 8.67978e+06 274843 -1.03835e+06 995424
270 3 O 3.79533 146.769 4.31319 -1.2 -10.2315 -507487 -3.31364e+06 -3.74603e+06 52305.7 -652629 -1.55973e+06
271 3 O 5.67866 142.868 4.29746 -1.2 -9.8539 -1.17997e+06 -5.28753e+06 -3.12861e+06 1.51802e+06 -54367.1 1.5116e+06