ITEM: TIMESTEP
3000
ITEM: NUMBER OF ATOMS
5600
ITEM: BOX BOUNDS xy xz yz pp pp pp
0.0000000000000000e+00 7.1234999999999999e+00 0.0000000000000000e+00
0.0000000000000000e+00 2.0198500000000001e+02 2.3744999999999998e+00
0.0000000000000000e+00 1.1958400000000000e+02 0.0000000000000000e+00
ITEM: ATOMS id type element xu yu zu q c_pe c_s[1] c_s[2] c_s[3] c_s[4] c_s[5] c_s[6]
1 1 Mg -1.48403 48.5451 -0.687438 1.2 -7.61367 955527 -506729 3.56301e+06 851708 131837 898328
2 1 Mg 3.08288 52.0259 1.48229 1.2 -7.56967 218629 3.13399e+06 -811905 -975724 -914844 -884627
3 2 Si 0.863749 50.4641 0.0275428 2.4 -33.6844 1.0411e+07 1.13827e+07 5.17103e+06 -945296 2.0697e+06 -5.92818e+06
4 3 O 1.90415 49.3106 0.466314 -1.2 -7.46155 -3.13592e+06 -229203 -5.34111e+06 -1.44601e+06 -881007 754846
5 3 O -0.998439 53.8059 1.42197 -1.2 -9.61458 -2.91908e+06 -8.527e+06 -610557 -180333 1.10938e+06 1.4158e+06
6 3 O -0.00749151 49.8361 -1.19848 -1.2 -9.25883 -1.51205e+06 -2.15047e+06 -2.69346e+06 2.37224e+06 372247 1.33092e+06
7 1 Mg -2.17268 59.5656 3.29544 1.2 -7.77583 738445 5.49302e+06 -2.30945e+06 -1.40634e+06 2.05972e+06 1.60583e+06
8 3 O -0.101318 50.7651 1.1338 -1.2 -8.95252 -3.74991e+06 -4.94914e+06 -1.51575e+06 258737 601618 1.0091e+06
9 1 Mg -2.09494 56.5371 4.70459 1.2 -7.98188 -23618.4 2.75242e+06 1.54005e+06 1.62623e+06 -361360 186311
10 2 Si 0.659966 58.3015 4.7466 2.4 -33.1115 3.71578e+06 1.11754e+07 6.00207e+06 186044 515112 381112
11 3 O -0.860409 58.5121 4.67014 -1.2 -9.42515 -3.75365e+06 -4.68054e+06 -3.81047e+06 -1.93613e+06 1.43791e+06 -97115.9
12 3 O 1.66223 54.5663 4.57813 -1.2 -9.32297 -3.14376e+06 -4.57329e+06 -1.5625e+06 -1.18653e+06 777113 -238472
13 3 O 1.22879 57.7056 3.38919 -1.2 -9.04611 -3.91273e+06 -4.19694e+06 -903139 1.44689e+06 43628.5 -1.22571e+06
14 3 O 1.45887 57.7337 5.9294 -1.2 -9.59489 -2.78392e+06 -6.3493e+06 -3.95823e+06 952810 403813 2.03021e+06
15 1 Mg 0.297512 54.2896 3.02537 1.2 -7.51823 423919 5.07654e+06 -231397 808407 -2.01954e+06 138776
16 1 Mg 0.842951 50.7307 2.98684 1.2 -8.47835 2.32016e+06 3.35539e+06 -2.15391e+06 -862452 -354140 25568.5
17 2 Si 2.3518 53.0697 4.59211 2.4 -33.1276 7.63616e+06 1.20215e+07 3.93826e+06 -821653 1.76862e+06 134685
18 3 O -0.845067 53.2127 4.60302 -1.2 -9.04304 -1.60408e+06 -5.4241e+06 153714 1.4634e+06 -484599 123893
19 3 O 2.26405 49.4954 3.28456 -1.2 -5.21229 -2.92329e+06 936545 -3.07835e+06 -12219.9 601628 -1.10771e+06
20 3 O 1.84087 52.5209 3.15801 -1.2 -9.43429 -1.61311e+06 -6.09812e+06 1.30661e+06 -486879 483743 649501
21 1 Mg 0.238009 54.6098 -0.302117 1.2 -7.43599 -1.26826e+06 3.61417e+06 1.03063e+06 1.11175e+06 1.37343e+06 -1.58438e+06
22 3 O 1.73054 52.296 5.79892 -1.2 -10.609 -5.29152e+06 -3.95802e+06 -3.42003e+06 -450686 -697853 327684
23 1 Mg 0.177521 57.1808 1.74722 1.2 -8.25514 2.49326e+06 1.51083e+06 923932 -1.56763e+06 -418899 -376013
24 2 Si -1.69642 55.2286 1.46851 2.4 -33.2787 3.78642e+06 1.06664e+07 4.70074e+06 -902337 -554220 -1.07413e+06
25 3 O 1.50981 55.1469 1.45843 -1.2 -9.29935 -2.68476e+06 -4.70031e+06 -1.058e+06 -844277 -674191 892596
26 3 O -0.836478 59.0361 1.78581 -1.2 -9.12904 -1.80343e+06 -5.11373e+06 -2.88495e+06 749924 -150867 -23723.8
27 3 O -1.10613 55.9236 0.21926 -1.2 -9.2549 -3.51118e+06 -5.77066e+06 -2.61267e+06 -590638 905120 1.74393e+06
28 3 O -1.20161 55.93 2.7776 -1.2 -9.15316 -3.19757e+06 -4.75258e+06 -1.17746e+06 -533705 -549437 33528.9
29 1 Mg -2.27674 59.5964 0.309455 1.2 -7.61654 -800438 4.22474e+06 -238250 -1.36494e+06 -1.63756e+06 -1.9174e+06
30 1 Mg 2.50951 62.3813 1.6603 1.2 -8.65352 2.54652e+06 1.06461e+06 2.058e+06 1.2883e+06 -72635.5 -447938
31 2 Si -0.241248 60.5467 1.70806 2.4 -33.4253 5.98751e+06 1.23784e+07 6.20349e+06 883907 599959 312910
32 3 O 1.36336 60.5646 1.78682 -1.2 -9.27644 -974381 -4.83297e+06 -2.62904e+06 -396146 878105 -468798
33 3 O -1.21639 64.3161 1.82717 -1.2 -8.84654 -4.30057e+06 -3.01479e+06 -2.73163e+06 346632 -733918 315246
34 3 O -0.95089 61.1558 0.454046 -1.2 -9.38489 -3.30488e+06 -4.70427e+06 -3.94188e+06 -709726 439210 482456
35 1 Mg -2.3932 70.2456 2.98725 1.2 -8.57184 -717800 3.49197e+06 -1.09585e+06 -1.07482e+06 1.6734e+06 2.45788e+06
36 3 O -0.85757 61.2595 2.9829 -1.2 -8.69484 -5.05885e+06 -4.02214e+06 -814729 214568 -169241 -540780
37 1 Mg -2.12803 67.2287 4.68445 1.2 -8.05908 1.63969e+06 4.00531e+06 1.1325e+06 209240 -96362.3 -289483
38 2 Si 0.460477 69.0982 4.43639 2.4 -34.0676 8.12833e+06 1.17044e+07 4.51459e+06 -635418 1.32471e+06 48893.7
39 3 O -1.09722 69.3161 4.4887 -1.2 -8.86903 -3.5881e+06 -4.44905e+06 -1.72086e+06 -1.23026e+06 -1.00107e+06 -503402
40 3 O 1.75078 65.2525 4.54222 -1.2 -8.93169 -2.3333e+06 -2.84771e+06 -1.55431e+06 -1.66491e+06 119067 731038
41 3 O 1.2174 68.4738 3.27681 -1.2 -9.02879 -4.25907e+06 -5.59621e+06 -3.41224e+06 -518166 213608 -2.17218e+06
42 3 O 1.14714 68.4469 5.79873 -1.2 -9.06907 -1.20599e+06 -5.54763e+06 -1.87262e+06 -902808 2.4247e+06 1.05466e+06
43 1 Mg 0.208359 64.8475 3.1647 1.2 -7.93122 -63745 4.54727e+06 -719059 238655 -929879 1.15841e+06
44 1 Mg 0.261236 61.9343 4.71618 1.2 -8.68554 1.80147e+06 1.81869e+06 2.35052e+06 -834256 489273 873803
45 2 Si 2.44798 63.7016 4.60258 2.4 -34.0399 6.60685e+06 1.11573e+07 9.56647e+06 139249 41655.7 24679.2
46 3 O -0.812286 63.8469 4.60721 -1.2 -9.2698 -5.33316e+06 -3.80041e+06 -4.50328e+06 1.39022e+06 642058 -277165
47 3 O 1.24187 59.8329 4.75571 -1.2 -8.90342 -3.40721e+06 -5.6793e+06 -3.25839e+06 -98518.4 -927584 449857
48 3 O 1.57528 62.9026 3.47901 -1.2 -8.35662 -3.34653e+06 -3.39922e+06 -2.96046e+06 584834 1.53097e+06 -691644
49 1 Mg 0.147606 64.7806 0.258208 1.2 -8.21404 -328987 3.79062e+06 -758001 979909 1.47188e+06 -2.33802e+06
50 3 O 1.68663 63.1326 5.9595 -1.2 -8.40667 -2.84702e+06 -2.836e+06 -2.35738e+06 441322 -1.95845e+06 143458
51 1 Mg 0.11697 67.8 1.67864 1.2 -8.02112 1.94407e+06 1.56578e+06 2.0847e+06 -1.09333e+06 -357469 479632
52 2 Si -1.86737 65.8324 1.6586 2.4 -33.2135 2.21222e+06 1.19104e+07 7.98612e+06 498133 725658 300622
53 3 O 1.43898 65.6087 1.57446 -1.2 -9.33107 -5.85221e+06 -4.64963e+06 -3.92659e+06 967023 -256807 64259.4
54 3 O -0.937712 69.5805 1.5892 -1.2 -8.72739 -1.90026e+06 -3.52575e+06 -2.88814e+06 730496 481497 -1.43233e+06
55 3 O -1.21182 66.4246 0.311915 -1.2 -9.17621 -4.00449e+06 -3.44658e+06 -2.95351e+06 -595958 -1.04953e+06 471915
56 3 O -1.0952 66.6209 2.87381 -1.2 -9.26323 -1.30283e+06 -4.49743e+06 -284401 -39020 1.04649e+06 375059
57 1 Mg -2.38442 70.1559 -0.0226707 1.2 -7.85456 -772623 3.47321e+06 653716 -570768 -407356 -1.183e+06
58 1 Mg 2.19796 72.9581 1.59564 1.2 -8.73413 1.50728e+06 630751 -1.1015e+06 1.12441e+06 -213508 404031
59 2 Si -0.295053 71.1339 1.48895 2.4 -33.8517 6.32849e+06 1.09265e+07 6.91482e+06 559865 -1.27056e+06 1.18953e+06
60 3 O 1.28546 71.0117 1.4923 -1.2 -9.41448 -3.14303e+06 -4.28168e+06 -3.66254e+06 -440636 47800.4 127081
61 3 O -1.32502 74.8566 1.621 -1.2 -8.73361 -3.17011e+06 -4.64782e+06 -1.58883e+06 -1.38385e+06 -2201.89 -1.16388e+06
62 3 O -0.989561 71.7697 0.328447 -1.2 -9.03676 -3.3814e+06 -4.03455e+06 -4.87255e+06 453172 -141902 852307
63 1 Mg -2.35102 80.6871 3.03096 1.2 -8.02296 170115 5.25924e+06 -2.05164e+06 -222071 320983 1.77626e+06
64 3 O -0.944967 71.7279 2.84247 -1.2 -8.30879 -3.54033e+06 -5.12646e+06 -2.54472e+06 -170356 -982395 -107714
65 1 Mg -2.26567 77.6912 4.60584 1.2 -8.66237 2.07323e+06 2.55715e+06 1.36129e+06 84821.7 -50563.2 -233979
66 2 Si 0.221268 79.5674 4.52754 2.4 -33.9285 4.33746e+06 1.33504e+07 6.12599e+06 -47007.7 -111819 10687.6
67 3 O -1.25859 79.6156 4.48147 -1.2 -9.52991 -6.56092e+06 -4.52955e+06 -2.8977e+06 -931925 663694 -601767
68 3 O 1.46646 75.7603 4.53864 -1.2 -8.87517 -4.39843e+06 -7.48977e+06 -2.71487e+06 -1.10936e+06 236509 1.42793e+06
69 3 O 0.947655 78.9354 3.23109 -1.2 -8.37123 -3.51721e+06 -4.51399e+06 -2.31586e+06 949.941 -1.42579e+06 112072
70 3 O 1.04924 78.8561 5.70226 -1.2 -8.91952 -2.12971e+06 -4.24834e+06 -3.8794e+06 -526052 1.1639e+06 558401
71 1 Mg 0.0887207 75.3241 3.03721 1.2 -8.13582 59179 5.28219e+06 -1.86109e+06 485428 -1.03642e+06 1.41299e+06
72 1 Mg -0.0395698 72.4066 4.52549 1.2 -9.11915 3.68412e+06 1.75627e+06 1.01475e+06 -492894 362628 264282
73 2 Si 2.18029 74.3555 4.53321 2.4 -34.3858 6.10713e+06 1.20623e+07 6.0198e+06 1.12966e+06 878513 980385
74 3 O -1.02918 74.4123 4.55712 -1.2 -9.05883 -4.27065e+06 -5.40924e+06 -3.10632e+06 242712 277292 -232427
75 3 O 1.12478 70.5702 4.49191 -1.2 -7.98882 -5.54672e+06 -5.76499e+06 -2.9056e+06 803285 624915 -951776
76 3 O 1.48348 73.5455 3.22729 -1.2 -8.28764 -3.60386e+06 -2.85487e+06 -3.33594e+06 829129 1.94175e+06 312929
77 1 Mg -0.00351341 75.3202 0.0761765 1.2 -7.68064 -1.39855e+06 5.06077e+06 -1.13638e+06 1.08025e+06 1.41386e+06 -1.4564e+06
78 3 O 1.52516 73.6816 5.75364 -1.2 -8.33516 -4.42603e+06 -5.71224e+06 -4.30877e+06 20728.3 -336905 1.61704e+06
79 1 Mg 0.0409494 78.217 1.6193 1.2 -8.57725 2.09724e+06 2.26946e+06 1.44014e+06 -1.15947e+06 -572890 -616495
80 2 Si -2.01964 76.3698 1.54933 2.4 -33.6997 5.48526e+06 1.35755e+07 4.35361e+06 -421746 1.13055e+06 180990
81 3 O 1.18651 76.2456 1.57055 -1.2 -9.37968 -3.02872e+06 -5.15245e+06 -2.18364e+06 173059 -156040 37361.9
82 3 O -0.991218 80.1211 1.52294 -1.2 -8.9527 -3.71826e+06 -4.80719e+06 -1.31669e+06 601088 -219017 780724
83 3 O -1.35236 77.1255 0.389709 -1.2 -9.2696 -3.74466e+06 -3.73315e+06 -3.90611e+06 36628.5 -171287 678805
84 3 O -1.35898 77.0541 2.83699 -1.2 -8.5941 -2.99902e+06 -4.85974e+06 -2.22228e+06 -106055 677220 -20712.7
85 1 Mg -2.43042 80.4218 0.0581393 1.2 -7.80864 627087 4.4443e+06 -1.24423e+06 -861035 -1.32679e+06 -1.86443e+06
86 1 Mg 2.32134 83.3534 1.69717 1.2 -8.67714 2.59981e+06 1.50876e+06 1.18019e+06 1.23923e+06 292411 77784.2
87 2 Si -0.304786 81.5959 1.55048 2.4 -33.7937 5.29329e+06 1.44534e+07 6.67057e+06 -368336 628758 -255097
88 3 O 1.24027 81.4157 1.60991 -1.2 -9.3413 -2.7682e+06 -6.04615e+06 -2.63547e+06 -417448 260641 1.07492e+06
89 3 O -1.26568 85.1239 1.80054 -1.2 -8.55604 -2.46029e+06 -4.069e+06 -2.45249e+06 -874140 514322 1.03344e+06
90 3 O -0.987144 82.3338 0.296613 -1.2 -8.8785 -3.27849e+06 -5.18012e+06 -735232 -375959 1.09571e+06 519013
91 1 Mg -2.32263 90.7641 3.04062 1.2 -8.48432 -1.11403e+06 4.69656e+06 -622246 -586583 556465 1.56428e+06
92 3 O -0.934203 82.2977 2.88756 -1.2 -8.6984 -3.68385e+06 -5.90573e+06 -646233 542010 -1.48859e+06 715212
93 1 Mg -2.27483 88.0002 4.71482 1.2 -8.75132 2.40731e+06 2.32006e+06 1.5297e+06 -242866 191435 -126331
94 2 Si 0.272119 89.9487 4.57245 2.4 -34.0511 7.33418e+06 1.26518e+07 5.73965e+06 -670488 -429425 291016
95 3 O -1.21522 90.0606 4.526 -1.2 -9.15014 -6.32909e+06 -5.45417e+06 -2.98359e+06 -262995 -1.53812e+06 -134960
96 3 O 1.52166 86.2098 4.63175 -1.2 -8.75004 -4.56248e+06 -5.04604e+06 -1.27837e+06 -495152 -9997.13 519027
97 3 O 1.19457 89.1785 3.38541 -1.2 -8.37165 -3.31344e+06 -4.44721e+06 -2.14733e+06 -1.46745e+06 -1.88949e+06 -59179.6
98 3 O 0.978876 89.2543 5.85491 -1.2 -8.5684 -2.65847e+06 -4.45357e+06 -3.26316e+06 -1.20408e+06 2.0128e+06 520760
99 1 Mg 0.237455 85.748 3.17208 1.2 -8.35406 365545 5.03052e+06 -1.98346e+06 805769 -1.83087e+06 966326
100 1 Mg -0.0598092 82.8943 4.59136 1.2 -8.87625 1.45897e+06 1.30519e+06 1.43051e+06 -1.1683e+06 -136679 -748519
101 2 Si 2.07144 84.647 4.71967 2.4 -34.1058 7.94379e+06 1.20003e+07 4.9346e+06 512049 -450473 -924829
102 3 O -1.09637 84.7989 4.63722 -1.2 -8.76713 -1.74131e+06 -4.70437e+06 -3.18329e+06 1.71616e+06 -985770 630815
103 3 O 0.893061 81.0891 4.56091 -1.2 -8.66323 -2.1713e+06 -5.99175e+06 -2.34502e+06 1.85009e+06 -743881 329181
104 3 O 1.43532 83.9817 3.4142 -1.2 -8.60232 -5.97906e+06 -4.5295e+06 -2.01686e+06 -485849 393918 531870
105 1 Mg -0.0614009 85.5574 0.200778 1.2 -8.18908 -541109 3.97577e+06 -1.17437e+06 1.57611e+06 2.17771e+06 -2.52309e+06
106 3 O 1.33833 84.0968 5.94143 -1.2 -8.9496 -4.26138e+06 -5.58107e+06 -3.05341e+06 153137 -113456 1.94018e+06
107 1 Mg 0.278097 88.5629 1.65646 1.2 -8.74986 2.88626e+06 2.24783e+06 1.42553e+06 -361795 -121740 -464140
108 2 Si -1.95532 86.6617 1.65916 2.4 -34.035 6.28074e+06 1.32606e+07 7.59108e+06 354008 1.18644e+06 -1.57183e+06
109 3 O 1.28562 86.5777 1.63938 -1.2 -9.20035 -4.2163e+06 -4.09553e+06 -3.58092e+06 500083 -60028.9 659709
110 3 O -0.797062 90.4337 1.64413 -1.2 -8.57785 -4.57912e+06 -7.80271e+06 -2.33657e+06 -440721 950899 -55900.4
111 3 O -1.209 87.2735 0.350566 -1.2 -8.7673 -3.47435e+06 -3.13321e+06 -1.28444e+06 587665 -918540 -259308
112 3 O -1.21755 87.4455 2.88939 -1.2 -8.41141 -3.1046e+06 -4.19282e+06 -270478 423268 932112 682739
113 1 Mg -2.27438 90.984 -0.0257779 1.2 -8.4326 495204 4.13546e+06 -700564 -400278 -557490 -2.02725e+06
114 1 Mg 2.48327 93.7308 1.74609 1.2 -8.63846 1.69004e+06 1.53496e+06 1.89449e+06 774989 471225 65162.1
115 2 Si -0.20963 91.8419 1.62953 2.4 -34.3245 7.1373e+06 9.56676e+06 7.09998e+06 -1.03824e+06 -845833 -778818
116 3 O 1.31958 91.7531 1.54596 -1.2 -8.95381 -4.40547e+06 -5.04392e+06 -2.37949e+06 -1.43419e+06 -583965 514068
117 3 O -1.31633 95.5372 1.80745 -1.2 -8.87676 -3.12751e+06 -8.20698e+06 -3.09403e+06 -605248 789314 1.08986e+06
118 3 O -0.926435 92.564 0.3195 -1.2 -8.48778 -4.08548e+06 -3.67769e+06 -259494 -289232 1.16728e+06 574072
119 1 Mg -2.2634 100.962 3.21326 1.2 -8.10426 -1.07509e+06 4.16842e+06 -761277 -1.57504e+06 1.93548e+06 1.76985e+06
120 3 O -0.965775 92.5308 2.89443 -1.2 -8.58519 -3.27624e+06 -5.03396e+06 -2.92715e+06 -36722.8 -1.07568e+06 -788889
121 1 Mg -2.08329 98.2641 5.01914 1.2 -8.85137 2.56468e+06 743258 1.72611e+06 769634 -612141 1.61654e+06
122 2 Si 0.474363 100.198 4.61934 2.4 -34.3435 5.55252e+06 1.06198e+07 7.74338e+06 -470364 -984855 2.31392e+06
123 3 O -1.06745 100.196 4.7567 -1.2 -9.07083 -4.42022e+06 -4.45549e+06 -4.14201e+06 65275.6 -1.12125e+06 -950928
124 3 O 1.58225 96.5144 4.6457 -1.2 -8.50558 -4.33062e+06 -6.17226e+06 -2.37498e+06 -554144 958469 2.09437e+06
125 3 O 1.16684 99.5255 3.24992 -1.2 -8.20569 -3.91399e+06 -4.80827e+06 -1.90837e+06 -241381 -1.55943e+06 169129
126 3 O 1.10204 99.5056 5.84715 -1.2 -8.47822 -5.07151e+06 -4.84315e+06 -3.72264e+06 195992 732553 744086
127 1 Mg 0.194716 96.1083 3.26874 1.2 -8.13529 481923 4.99456e+06 -1.158e+06 948084 -1.5292e+06 1.10251e+06
128 1 Mg 0.0913297 93.1504 4.47787 1.2 -8.75745 2.95827e+06 823723 401674 -796558 -375215 -112369
129 2 Si 2.18515 95.0095 4.62878 2.4 -34.3711 3.92397e+06 1.33737e+07 3.74118e+06 -133271 -574911 -439223
130 3 O -1.05678 95.0866 4.6886 -1.2 -8.99704 -5.20408e+06 -5.74276e+06 -2.95138e+06 772702 -74624.3 998294
131 3 O 1.0379 91.3773 4.58543 -1.2 -8.58518 -4.45394e+06 -7.12949e+06 -1.6683e+06 1.67375e+06 109702 814560
132 3 O 1.5003 94.2329 3.46889 -1.2 -8.76862 -4.24809e+06 -4.67966e+06 -4.26353e+06 -169676 603661 -411300
133 1 Mg -0.0435194 95.8227 0.283283 1.2 -8.1631 -749460 5.14108e+06 -1.61417e+06 646537 649585 -1.51977e+06
134 3 O 1.46996 94.4233 5.8865 -1.2 -8.65558 -5.19349e+06 -6.43938e+06 -4.44009e+06 897396 -325389 581602
135 1 Mg 0.113654 98.9027 1.6874 1.2 -9.20085 2.31955e+06 -60072.6 889877 -542061 123461 55913.5
136 2 Si -1.95752 96.984 1.72602 2.4 -34.7504 6.59608e+06 9.40014e+06 7.60321e+06 -253096 1.01723e+06 818452
137 3 O 1.27732 96.9356 1.69702 -1.2 -8.72656 -5.37467e+06 -4.04865e+06 -3.69587e+06 686898 -1.12395e+06 198545
138 3 O -0.907783 100.573 1.68344 -1.2 -8.64426 -3.90302e+06 -5.09021e+06 -1.96924e+06 1.02171e+06 481660 -337335
139 3 O -1.20621 97.5717 0.522804 -1.2 -8.43627 -5.79261e+06 -4.68424e+06 -3.00293e+06 -752120 664029 1.78787e+06
140 3 O -1.32379 97.6475 3.12709 -1.2 -7.85598 -4.48507e+06 -3.98221e+06 -1.10187e+06 -151268 1.40923e+06 320023
141 1 Mg -2.33837 101.256 0.0749061 1.2 -7.89293 749509 4.55036e+06 46165.7 -953786 -1.62858e+06 -2.13629e+06
142 1 Mg 7.08525 103.873 1.89888 1.2 -8.60688 2.3892e+06 1.21958e+06 1.16521e+06 1.48668e+06 417912 -1.33008e+06
143 2 Si -0.282189 102.108 1.66141 2.4 -34.088 4.08032e+06 1.27443e+07 6.3638e+06 393410 -207910 -1.00786e+06
144 3 O 1.22781 102.069 1.66255 -1.2 -9.13595 -4.23419e+06 -5.05897e+06 -2.86196e+06 -298411 -614423 1.11823e+06
145 3 O 3.587 105.799 1.75451 -1.2 -8.16071 -3.23909e+06 -3.89128e+06 -3.85627e+06 -719941 -33783.6 -554732
146 3 O -0.844365 102.772 0.342542 -1.2 -8.59319 -3.74741e+06 -4.67539e+06 -1.58528e+06 987705 -40683 502696
147 1 Mg 2.4036 111.412 3.09114 1.2 -8.37397 -669925 4.24084e+06 382308 -360715 522942 1.88942e+06
148 3 O -0.967294 102.745 2.9455 -1.2 -8.98155 -3.60895e+06 -4.32169e+06 -2.11776e+06 -303817 -251667 -486721
149 1 Mg 2.48444 108.696 4.61826 1.2 -9.06747 2.51816e+06 671187 2.56496e+06 262574 -159179 -89420.1
150 2 Si 5.00476 110.367 4.5747 2.4 -34.5838 7.11542e+06 1.03796e+07 8.6183e+06 -653449 261740 595294
151 3 O 3.47518 110.508 4.62515 -1.2 -9.11176 -5.26957e+06 -5.04227e+06 -2.90352e+06 -871559 -822505 -387619
152 3 O 6.26379 106.678 4.69694 -1.2 -8.3951 -4.38139e+06 -5.02216e+06 -2.90295e+06 -1.84566e+06 -282059 -990031
153 3 O 5.82032 109.653 3.34725 -1.2 -8.4105 -3.52057e+06 -2.95792e+06 -3.28859e+06 -772607 -1.41788e+06 -545823
154 3 O 5.7244 109.663 5.88832 -1.2 -8.17411 -2.80903e+06 -5.78857e+06 -1.15907e+06 -1.17925e+06 1.6804e+06 661601
155 1 Mg 4.99302 106.51 3.16466 1.2 -8.59128 263929 3.92142e+06 -645157 1.04675e+06 -1.3589e+06 1.52827e+06
156 1 Mg 0.0675234 103.455 4.5669 1.2 -8.86286 1.53905e+06 848363 2.48157e+06 -787949 88672.1 -1.05339e+06
157 2 Si 6.97602 105.209 4.62136 2.4 -34.107 8.38514e+06 1.10844e+07 7.77292e+06 194466 -316879 -2.06383e+06
158 3 O 3.77618 105.257 4.62355 -1.2 -9.00005 -4.0371e+06 -4.57884e+06 -4.52246e+06 983713 566595 134371
159 3 O 1.14072 101.622 4.62597 -1.2 -8.77183 -3.12153e+06 -6.72348e+06 -4.54571e+06 344740 728683 369812
160 3 O 6.1244 104.615 3.40789 -1.2 -8.64257 -4.46648e+06 -4.54963e+06 -4.11847e+06 586606 1.85094e+06 -1.20596e+06
161 1 Mg 4.95823 106.123 0.384843 1.2 -8.53019 -227578 3.95888e+06 -562145 887611 494269 -2.10369e+06
162 3 O 6.27478 104.507 5.95085 -1.2 -8.43081 -3.70261e+06 -4.46356e+06 -1.80554e+06 776329 -2.02931e+06 820197
163 1 Mg 4.8909 109.141 1.57799 1.2 -9.10026 2.44011e+06 -137401 2.36408e+06 -1.32502e+06 -51106 258978
164 2 Si 2.84114 107.308 1.60249 2.4 -34.5762 4.71186e+06 1.0384e+07 8.95166e+06 -1.09983e+06 1.34954e+06 -917202
165 3 O 6.13481 107.194 1.62664 -1.2 -8.93349 -7.44863e+06 -5.08063e+06 -4.69508e+06 156299 -846029 450816
166 3 O 3.83347 110.929 1.72035 -1.2 -8.5846 -3.28823e+06 -4.47422e+06 -2.6872e+06 1.36483e+06 626874 -165433
167 3 O 3.65815 107.91 0.396921 -1.2 -8.47775 -5.68375e+06 -3.71372e+06 -2.808e+06 -273408 -725660 1.32806e+06
168 3 O 3.53112 107.958 2.95993 -1.2 -8.20788 -3.72266e+06 -4.30703e+06 -1.89331e+06 184979 829487 -423135
169 1 Mg 2.5435 111.38 0.0721702 1.2 -8.43321 932464 4.54527e+06 217110 -478622 -1.25015e+06 -924079
170 1 Mg 7.0275 114.197 1.53647 1.2 -8.88247 2.02228e+06 668035 754089 651645 763114 -208714
171 2 Si 4.51188 112.444 1.71164 2.4 -34.2718 7.35838e+06 1.16014e+07 7.28096e+06 -12185.7 -857482 878053
172 3 O 6.08233 112.324 1.62298 -1.2 -9.10959 -3.08736e+06 -4.65404e+06 -2.68316e+06 -623229 -1.53728e+06 -448080
173 3 O 3.41057 115.95 1.51971 -1.2 -8.38381 -3.98233e+06 -5.48865e+06 -2.05403e+06 -1.829e+06 -59556.8 -601086
174 3 O 3.90231 113.053 0.369772 -1.2 -8.51067 -3.81838e+06 -4.28623e+06 -870150 -139732 153698 568252
175 1 Mg 2.1854 121.622 2.9542 1.2 -7.79483 105972 4.73446e+06 -561954 -513389 1.31824e+06 963214
176 3 O 3.76595 113.086 2.94642 -1.2 -8.51462 -3.72077e+06 -5.40941e+06 -2.13176e+06 254181 -789175 -1.0896e+06
177 1 Mg 2.47307 118.805 4.30539 1.2 -8.41984 2.53771e+06 1.4766e+06 392054 182871 767996 -717903
178 2 Si 4.86944 120.655 4.52475 2.4 -33.9751 4.12303e+06 1.18607e+07 6.47938e+06 -926569 -471572 -496088
179 3 O 3.34663 120.705 4.57645 -1.2 -9.36702 -4.65e+06 -4.67373e+06 -3.39112e+06 -1.28623e+06 1.18923e+06 260355
180 3 O 6.1056 116.976 4.33973 -1.2 -8.88817 -3.377e+06 -3.10099e+06 -2.20581e+06 -469445 -155321 -259259
181 3 O 5.48483 119.952 3.26291 -1.2 -8.7627 -2.56634e+06 -5.07164e+06 -2.88252e+06 94575.4 -735757 -523890
182 3 O 5.65209 120.092 5.78053 -1.2 -8.96655 -4.4219e+06 -4.72686e+06 -3.03011e+06 -832557 760876 685806
183 1 Mg 4.78411 116.314 2.92627 1.2 -8.24516 -517015 4.30672e+06 -990018 794120 -1.58742e+06 1.69592e+06
184 1 Mg 4.57558 113.588 4.79501 1.2 -8.58156 2.67576e+06 1.01751e+06 851256 -1.13642e+06 542619 437436
185 2 Si 6.75227 115.44 4.44695 2.4 -34.0032 6.62889e+06 1.18328e+07 6.23596e+06 -249658 27656.6 611295
186 3 O 3.58827 115.527 4.4857 -1.2 -8.98997 -1.37649e+06 -4.53988e+06 -3.87823e+06 -74621.6 -21186.8 -1.00743e+06
187 3 O 5.66893 111.766 4.70544 -1.2 -8.45541 -4.24367e+06 -7.06183e+06 -2.10805e+06 137525 -34386.2 591894
188 3 O 6.22799 114.718 3.18129 -1.2 -8.53395 -5.85766e+06 -5.02181e+06 -3.92596e+06 198894 746899 -1.00161e+06
189 1 Mg 4.79071 116.478 -0.110771 1.2 -7.94102 -319604 4.68284e+06 -1.03558e+06 287455 -71961.6 -1.84338e+06
190 3 O 6.117 114.807 5.72378 -1.2 -9.132 -4.21374e+06 -3.27769e+06 -4.23926e+06 -128660 -1.12982e+06 152026
191 1 Mg 4.57074 119.279 1.52126 1.2 -8.52847 1.45956e+06 1.03627e+06 1.59631e+06 -1.3467e+06 365342 -428691
192 2 Si 2.61691 117.449 1.47921 2.4 -33.7241 7.03223e+06 1.26346e+07 5.47208e+06 -1.11567e+06 -232307 -1.64452e+06
193 3 O 5.83438 117.154 1.40591 -1.2 -9.28797 -4.05832e+06 -5.50635e+06 -2.61247e+06 -65086.7 -56798 179632
194 3 O 3.51849 121.049 1.53734 -1.2 -8.97449 -1.61839e+06 -4.29792e+06 -2.92594e+06 1.63446e+06 -601934 290573
195 3 O 3.33542 118.136 0.21533 -1.2 -8.96396 -2.47335e+06 -4.84883e+06 -2.1328e+06 324105 -1.75761e+06 832026
196 3 O 3.29433 118.143 2.67645 -1.2 -8.92247 -3.56255e+06 -5.94302e+06 -5.14379e+06 -422142 1.29159e+06 -640491
197 1 Mg 2.14732 121.688 0.048813 1.2 -7.93551 -200558 4.08877e+06 -1.55842e+06 -1.45769e+06 -1.52434e+06 -2.16163e+06
198 1 Mg 6.95618 124.505 1.46722 1.2 -8.70861 2.52142e+06 1.34813e+06 1.61325e+06 869463 96698.6 23680.8
199 2 Si 4.27036 122.571 1.46068 2.4 -33.5935 4.75371e+06 1.23649e+07 7.8887e+06 847167 719456 -589900
200 3 O 5.79783 122.606 1.46482 -1.2 -9.49462 -3.82961e+06 -3.99056e+06 -3.93398e+06 464929 803524 237337
201 3 O 3.34597 126.332 1.4699 -1.2 -9.02421 -3.21513e+06 -4.22202e+06 -2.28242e+06 -499948 -177921 620472
202 3 O 3.52974 123.197 0.184776 -1.2 -8.70072 -3.01251e+06 -3.56955e+06 -2.36135e+06 4696.62 715514 -603224
203 1 Mg 2.42074 132.217 3.06933 1.2 -7.58601 -1.13473e+06 3.9283e+06 -1.24291e+06 -1.92462e+06 1.84068e+06 1.49707e+06
204 3 O 3.60501 123.329 2.68143 -1.2 -8.79253 -3.8004e+06 -3.71238e+06 -3.27397e+06 777267 -1.23618e+06 273017
205 1 Mg 2.44065 129.153 4.32489 1.2 -8.06254 864003 1.73409e+06 701613 1.5642e+06 507183 -1.22509e+06
206 2 Si 5.04606 130.933 4.49983 2.4 -32.3294 5.60637e+06 1.32565e+07 8.74227e+06 204256 -1.01831e+06 -1.25115e+06
207 3 O 3.52486 131.109 4.53184 -1.2 -9.81739 -1.18383e+06 -4.01425e+06 -2.79275e+06 -1.19232e+06 -682994 614127
208 3 O 5.93772 127.316 4.54963 -1.2 -8.93329 -1.414e+06 -6.51162e+06 -3.90424e+06 -151785 148736 -265652
209 3 O 5.83202 130.267 3.23834 -1.2 -9.43329 -2.59958e+06 -4.01119e+06 -328184 -114538 -1.86781e+06 779202
210 3 O 5.72374 130.374 5.89865 -1.2 -9.31712 -4.13226e+06 -5.2292e+06 -558443 -564324 2.53179e+06 180863
211 1 Mg 4.59238 126.829 2.98066 1.2 -7.6831 -1.22653e+06 4.50302e+06 -800300 1.44789e+06 -1.81356e+06 2.03266e+06
212 1 Mg 4.55192 123.871 4.44829 1.2 -8.33919 1.75025e+06 564517 2.61393e+06 135293 26604 -760767
213 2 Si 6.69085 125.874 4.44365 2.4 -33.7171 2.9299e+06 1.0361e+07 6.79036e+06 -1.36818e+06 -257342 961552
214 3 O 3.45442 125.81 4.43441 -1.2 -9.44336 -5.19548e+06 -3.58307e+06 -4.90245e+06 -1.03935e+06 -261504 -1.24359e+06
215 3 O 5.43941 122.162 4.32146 -1.2 -8.77791 -3.46741e+06 -6.76063e+06 -2.86146e+06 1.46878e+06 408559 -30667.7
216 3 O 6.10468 125.325 3.12838 -1.2 -8.76625 -4.59095e+06 -4.36037e+06 -3.90499e+06 -16314 -155997 -1.12232e+06
217 1 Mg 4.79922 126.901 -0.0364578 1.2 -7.6815 492094 4.67653e+06 -515378 394300 620617 -1.69976e+06
218 3 O 6.07505 125.198 5.71566 -1.2 -8.80316 -3.80807e+06 -5.55529e+06 -3.47495e+06 -599917 -553495 828291
219 1 Mg 4.8547 129.672 1.5639 1.2 -8.23347 1.63656e+06 1.24148e+06 -135009 -479022 165890 -41611.4
220 2 Si 2.67412 127.832 1.51463 2.4 -33.1626 3.04755e+06 1.414e+07 4.03993e+06 14306.7 125613 230301
221 3 O 5.89576 127.743 1.4692 -1.2 -9.59879 -3.39924e+06 -6.22536e+06 -2.03566e+06 -237266 1.28045e+06 903146
222 3 O 3.84555 131.401 1.59001 -1.2 -9.01801 -3.20673e+06 -6.44804e+06 -1.64402e+06 116130 298442 222582
223 3 O 3.16538 128.573 0.24768 -1.2 -9.01383 -3.90696e+06 -5.58319e+06 -2.85017e+06 -908245 -13931 346593
224 3 O 3.38402 128.513 2.76201 -1.2 -9.54936 -2.86111e+06 -4.8959e+06 -3.31139e+06 990983 243204 -386010
225 1 Mg 2.29297 131.969 -0.0490197 1.2 -7.37606 -1.88855e+06 4.59436e+06 -925391 -1.32437e+06 -1.95591e+06 -2.72562e+06
226 1 Mg 7.08406 134.731 1.60119 1.2 -7.96875 1.23041e+06 685682 639511 1.38153e+06 552920 -558821
227 2 Si 4.37633 132.919 1.45297 2.4 -32.9887 3.08179e+06 1.28335e+07 4.93019e+06 721375 525375 -1.92502e+06
228 3 O 5.91097 132.888 1.5358 -1.2 -9.53554 -2.5409e+06 -6.05026e+06 -3.94276e+06 -981881 797080 1.46055e+06
229 3 O 3.32418 136.53 1.54399 -1.2 -9.45541 -2.36936e+06 -5.88086e+06 -1.94318e+06 -1.71262e+06 83815.5 -286671
230 3 O 3.66567 133.463 0.17381 -1.2 -9.57373 -3.71011e+06 -5.00379e+06 -2.68268e+06 -403200 308583 1.4855e+06
231 1 Mg 2.43939 142.287 2.93889 1.2 -8.28188 42002.1 3.73234e+06 -861951 -1.12143e+06 1.44975e+06 1.54384e+06
232 3 O 3.70149 133.63 2.70102 -1.2 -9.52092 -4.79664e+06 -6.51605e+06 -1.63815e+06 -66292.5 -323723 215381
233 1 Mg 2.46776 139.474 4.42108 1.2 -8.75531 2.47348e+06 617397 1.59729e+06 810041 -540141 -259680
234 2 Si 5.14584 141.36 4.44096 2.4 -33.9615 5.90791e+06 1.10235e+07 9.49257e+06 348466 -511346 -324005
235 3 O 3.5951 141.424 4.31622 -1.2 -9.22807 -3.30867e+06 -4.03217e+06 -4.60796e+06 -577440 362627 593159
236 3 O 6.13789 137.616 4.42078 -1.2 -9.03512 -3.65749e+06 -2.92869e+06 -2.02434e+06 -765212 334782 1.05198e+06
237 3 O 5.85211 140.706 3.06853 -1.2 -8.4299 -3.77822e+06 -3.0364e+06 -72909.6 -149375 -953391 1.10024e+06
238 3 O 5.89874 140.737 5.65036 -1.2 -8.91719 -3.40519e+06 -3.53827e+06 -3.62851e+06 -257092 275024 744141
239 1 Mg 4.74223 136.991 2.99969 1.2 -7.8635 -1.28175e+06 4.84933e+06 -736586 468277 -1.28648e+06 1.26181e+06
240 1 Mg 4.53883 134.261 4.56377 1.2 -7.97073 1.19407e+06 1.52368e+06 2.68976e+06 -723601 -437867 -103827
241 2 Si 6.76337 136.074 4.43501 2.4 -32.7526 5.17575e+06 1.27414e+07 5.87312e+06 353406 3930.17 -2.00353e+06
242 3 O 3.61255 136.157 4.47551 -1.2 -9.64736 -483691 -5.48609e+06 -4.18018e+06 435624 320402 1.15198e+06
243 3 O 5.74262 132.561 4.45324 -1.2 -9.27867 -1.45553e+06 -2.27048e+06 -2.22208e+06 1.09672e+06 -71289 217535
244 3 O 6.14493 135.388 3.21378 -1.2 -9.50908 -3.45071e+06 -5.92438e+06 -3.4478e+06 -191899 275111 -276528
245 1 Mg 4.68874 136.863 -0.0327572 1.2 -7.65502 -1.06584e+06 3.88675e+06 701598 657328 1.23786e+06 -1.37435e+06
246 3 O 6.12168 135.46 5.78733 -1.2 -9.27604 -4.26695e+06 -4.68331e+06 -1.97091e+06 451893 -1.85567e+06 659779
247 1 Mg 4.89562 139.957 1.26398 1.2 -8.6298 2.53503e+06 1.6018e+06 2.42709e+06 40715.6 479189 -18138.6
248 2 Si 2.60364 137.986 1.49072 2.4 -33.3841 7.13127e+06 1.08508e+07 7.95212e+06 1.21713e+06 450021 -433799
249 3 O 5.80771 137.901 1.42802 -1.2 -9.64846 -3.12725e+06 -2.88027e+06 -2.79308e+06 410285 188564 -206075
250 3 O 3.78337 141.764 1.35938 -1.2 -8.72484 -3.83244e+06 -5.17975e+06 -2.9442e+06 132663 125945 1.94281e+06
251 3 O 3.31731 138.781 0.213034 -1.2 -9.04446 -1.40024e+06 -1.42478e+06 -3.23713e+06 814878 -1.60891e+06 45663.1
252 3 O 3.34388 138.686 2.72955 -1.2 -8.34223 -2.53934e+06 -3.99725e+06 -3.36357e+06 605371 1.5566e+06 413911
253 1 Mg 2.4215 142.199 -0.258482 1.2 -8.27426 772289 3.07015e+06 988991 -694693 -1.00566e+06 -2.1174e+06
254 1 Mg 7.05482 144.926 1.36335 1.2 -8.94809 1.61903e+06 22862.7 3.81545e+06 511499 -80129 299406
255 2 Si 4.41265 143.204 1.38928 2.4 -34.2687 7.38085e+06 9.72786e+06 9.23896e+06 -709643 824444 -967026
256 3 O 5.97944 143.202 1.35554 -1.2 -8.94914 -2.54422e+06 -4.03678e+06 -3.44479e+06 -936114 315559 874628
257 3 O 3.4557 146.944 1.48861 -1.2 -8.58747 -4.31451e+06 -3.09458e+06 -4.71612e+06 472523 -453930 2.12274e+06
258 3 O 3.69268 143.866 0.0724635 -1.2 -8.39731 -3.42941e+06 -3.49969e+06 -1.24883e+06 523935 527006 838966
259 1 Mg 1.76982 152.279 1.55876 1.2 -7.5393 -1.40913e+06 -1.57325e+06 4.19056e+06 -665734 -113241 219446
260 3 O 3.76154 143.978 2.6573 -1.2 -8.63452 -4.31257e+06 -3.41305e+06 -2.91277e+06 -157861 -1.44272e+06 282623
261 1 Mg 2.01227 150.34 4.59135 1.2 -8.38913 -1.58401e+06 5.32508e+06 1.21556e+06 -239016 125123 658867
262 2 Si 4.1463 150.809 2.87801 2.4 -33.8821 6.91134e+06 7.91637e+06 4.88513e+06 -1.57642e+06 -11970.7 -1.55983e+06
263 3 O 2.9076 151.753 3.13467 -1.2 -8.65719 -3.41913e+06 -2.35825e+06 -2.5538e+06 380847 337758 -1.08384e+06
264 3 O 6.28524 148.06 4.21722 -1.2 -8.09068 -5.11969e+06 -3.79337e+06 -2.13035e+06 -290403 -67977.7 335741
265 3 O 4.9829 151.238 1.69482 -1.2 -8.99047 -5.8386e+06 -2.7276e+06 -6.01887e+06 -1396.56 1.68641e+06 1.56077e+06
266 3 O 4.95247 150.714 4.16833 -1.2 -8.68795 -6.13623e+06 -5.49525e+06 -4.91729e+06 -544207 -1.01473e+06 1.40254e+06
267 1 Mg 4.83111 147.515 2.79289 1.2 -8.20052 1.08901e+06 3.33685e+06 -829718 1.5538e+06 -2.75019e+06 874164
268 1 Mg 4.6265 144.795 4.1999 1.2 -9.11123 1.95481e+06 -7984.02 2.75158e+06 -1.41149e+06 -353060 -1.32724e+06
269 2 Si 6.78501 146.507 4.35756 2.4 -35.0462 7.8457e+06 1.09616e+07 7.39901e+06 1.26526e+06 -283971 -2.2424e+06
270 3 O 3.60957 146.583 4.27249 -1.2 -8.40788 -3.05784e+06 -4.38432e+06 -4.27389e+06 2.28175e+06 -697333 403326
271 3 O 5.78696 142.874 4.34949 -1.2 -8.50597 -2.7703e+06 -3.94932e+06 -3.96463e+06 919494 -381792 318513
272 3 O 6.08707 145.782 3.16048 -1.2 -8.39836 -5.48563e+06 -3.91109e+06 -2.87836e+06 -1.16185e+06 681681 373357