ITEM: TIMESTEP
300
ITEM: NUMBER OF ATOMS
5600
ITEM: BOX BOUNDS xy xz yz pp pp pp
0.0000000000000000e+00 7.1234999999999999e+00 0.0000000000000000e+00
0.0000000000000000e+00 2.0198500000000001e+02 2.3744999999999998e+00
0.0000000000000000e+00 1.1958400000000000e+02 0.0000000000000000e+00
ITEM: ATOMS id type element xu yu zu q c_pe c_s[1] c_s[2] c_s[3] c_s[4] c_s[5] c_s[6]
1 1 Mg -1.62466 49.9663 -0.890525 1.2 -7.03405 -2.50551e+06 -2.13299e+06 1.54811e+06 422045 404026 131795
2 1 Mg 2.93037 51.8647 2.00326 1.2 -7.94613 -1.88164e+06 4.90604e+06 133138 -114896 -854374 -752002
3 2 Si 0.874699 51.4978 0.312426 2.4 -32.4434 4.09315e+06 7.90586e+06 8.07313e+06 -503202 -215370 2.11386e+06
4 3 O 2.12678 50.6919 0.562606 -1.2 -9.1927 -6.40186e+06 -3.13475e+06 -6.22287e+06 988481 -987731 376658
5 3 O -1.25397 54.1594 1.59627 -1.2 -8.8131 -2.54937e+06 -5.33467e+06 -4.31055e+06 -1.65317e+06 -21539.7 956297
6 3 O 0.0730907 50.7893 -0.876104 -1.2 -9.55884 -4.77553e+06 -1.34752e+06 -6.16554e+06 1.00213e+06 593665 479965
7 1 Mg -2.22856 59.8283 3.25408 1.2 -7.78757 -1.5067e+06 1.6555e+06 1.81638e+06 -749991 817149 1.89501e+06
8 3 O 0.011654 51.493 1.64128 -1.2 -8.96465 -5.49695e+06 -5.86951e+06 -4.03512e+06 -676933 -656743 -1.43552e+06
9 1 Mg -2.22978 57.0465 4.40971 1.2 -8.206 1.11976e+06 -1.05486e+06 4.28413e+06 990545 353545 301326
10 2 Si 0.400407 58.8033 4.6644 2.4 -33.5719 4.81344e+06 6.52602e+06 1.17482e+07 418830 831829 448006
11 3 O -1.15084 58.8342 4.61822 -1.2 -9.53369 -3.41657e+06 -2.85294e+06 -6.17481e+06 -777444 79713.6 217083
12 3 O 1.37505 55.2402 4.59032 -1.2 -9.1725 -3.28792e+06 -3.91814e+06 -4.42319e+06 -1.04492e+06 -35508.1 -198197
13 3 O 1.08389 58.1526 3.44345 -1.2 -9.30961 -3.08671e+06 -3.61856e+06 -5.4297e+06 253754 -226946 -1.79259e+06
14 3 O 1.09313 58.2678 6.04695 -1.2 -8.37649 -4.14615e+06 -3.04301e+06 -3.61659e+06 402801 1.5557e+06 261175
15 1 Mg 0.0343385 54.7336 3.07523 1.2 -7.92422 -2.08016e+06 3.27304e+06 361747 488231 -1.15382e+06 1.63655e+06
16 1 Mg 0.734312 50.9588 3.27054 1.2 -7.82034 1.7494e+06 2.02085e+06 -3.22565e+06 -338785 -511632 1.11111e+06
17 2 Si 2.15762 53.8061 4.5614 2.4 -33.4057 5.99826e+06 7.40135e+06 8.03038e+06 -756293 1.29208e+06 3.30649e+06
18 3 O -1.09694 53.9616 4.55699 -1.2 -9.22885 -4.93237e+06 -3.75969e+06 -4.10092e+06 -34042.3 222307 -814045
19 3 O 2.61552 50.369 3.44599 -1.2 -7.14726 -527884 -32168.8 -2.73891e+06 274533 -393837 -1.35843e+06
20 3 O 1.56527 53.0321 3.29687 -1.2 -8.81097 -3.40958e+06 -2.01401e+06 -4.07001e+06 -718074 -83878.8 -296848
21 1 Mg 0.00430752 54.7135 0.130196 1.2 -7.80512 -1.97406e+06 2.7129e+06 1.12125e+06 1.26412e+06 2.10214e+06 -1.901e+06
22 3 O 1.51526 53.0816 5.79911 -1.2 -10.2092 -4.4266e+06 -3.19643e+06 -7.07564e+06 861871 -1.43698e+06 -966973
23 1 Mg 0.0410319 57.5462 1.70632 1.2 -8.3828 1.89824e+06 -1.47959e+06 4.11172e+06 -336740 100379 318779
24 2 Si -2.02998 55.6126 1.64275 2.4 -33.4776 5.39141e+06 9.02233e+06 7.57246e+06 -995707 -686172 -1.80467e+06
25 3 O 1.17784 55.6477 1.6595 -1.2 -9.44913 -3.80592e+06 -2.92118e+06 -4.95881e+06 -594977 794709 933492
26 3 O -0.916639 59.2728 1.66981 -1.2 -9.10315 -2.60712e+06 -4.43965e+06 -4.82727e+06 2.19006e+06 -113470 267411
27 3 O -1.39867 56.2376 0.32406 -1.2 -8.54822 -3.96151e+06 -3.00124e+06 -5.32089e+06 747436 -586571 1.30093e+06
28 3 O -1.28955 56.3179 2.78036 -1.2 -9.26802 -4.06506e+06 -3.77917e+06 -7.9243e+06 616831 194221 -1.37393e+06
29 1 Mg -2.3 59.7408 0.215348 1.2 -8.02725 -801011 3.03076e+06 587770 -491103 -1.00195e+06 -1.56445e+06
30 1 Mg 2.29324 62.6503 1.55242 1.2 -8.0668 1.07696e+06 638756 3.02243e+06 412389 -280212 -512158
31 2 Si -0.180336 60.7515 1.7024 2.4 -32.912 6.21747e+06 7.42713e+06 1.16495e+07 -522482 716996 -481383
32 3 O 1.34394 60.6534 1.71732 -1.2 -9.75056 -3.50182e+06 -2.32832e+06 -5.2943e+06 -673766 -146551 -183973
33 3 O -1.36151 64.5106 1.64658 -1.2 -9.61928 -1.43721e+06 -2.32782e+06 -3.80818e+06 -656733 507570 2.15976e+06
34 3 O -0.97135 61.3742 0.374198 -1.2 -8.90327 -2.01163e+06 -2.9235e+06 -3.15543e+06 -896028 2.32415e+06 796314
35 1 Mg -2.29942 70.2989 3.14635 1.2 -7.46212 -2.09202e+06 2.25459e+06 1.35339e+06 -1.09949e+06 1.63207e+06 2.07903e+06
36 3 O -0.966523 61.4147 2.93035 -1.2 -9.28829 -3.01315e+06 -2.52824e+06 -5.4382e+06 -575959 -1.94747e+06 -892626
37 1 Mg -2.33177 67.3161 4.5253 1.2 -7.32601 -931016 25425.6 4.59909e+06 941722 469902 -1.57545e+06
38 2 Si 0.349882 69.0806 4.52179 2.4 -31.9664 4.42442e+06 7.07164e+06 1.07017e+07 294516 -787376 -1.18902e+06
39 3 O -1.22915 69.2447 4.63589 -1.2 -10.2078 -1.24709e+06 -2.10507e+06 -4.83511e+06 -1.07825e+06 -11232.8 217475
40 3 O 1.59361 65.4237 4.47769 -1.2 -10.1895 -621718 -4.48378e+06 -4.32657e+06 -664596 -436463 419456
41 3 O 1.03604 68.5941 3.20668 -1.2 -9.56348 -1.37509e+06 -2.77115e+06 -5.89665e+06 -236153 -776638 -682370
42 3 O 1.1012 68.3257 5.69424 -1.2 -9.81106 -1.86425e+06 -2.55405e+06 -3.846e+06 -101672 990136 2.05751e+06
43 1 Mg 0.0806489 65.0092 3.18476 1.2 -6.71835 -1.59167e+06 3.12034e+06 1.7351e+06 672256 -1.1874e+06 60938.2
44 1 Mg -0.00746285 62.06 4.5154 1.2 -8.31471 1.75773e+06 -1.11034e+06 3.92926e+06 -524348 -482896 -631732
45 2 Si 2.1927 63.9257 4.55001 2.4 -32.7292 2.45169e+06 6.79899e+06 1.22749e+07 726201 -224816 -1.20029e+06
46 3 O -1.04059 63.9958 4.63455 -1.2 -10.0214 -3.40202e+06 -1.39587e+06 -5.32124e+06 1.42591e+06 -141594 687160
47 3 O 1.02627 60.2783 4.64444 -1.2 -8.88306 -2.56136e+06 -4.53122e+06 -5.78319e+06 821580 638612 -268102
48 3 O 1.4885 63.2296 3.32434 -1.2 -9.43318 -1.95076e+06 -2.075e+06 -5.43375e+06 65652.6 1.02619e+06 22003.1
49 1 Mg 0.00224107 64.9308 0.189064 1.2 -7.72362 -850594 3.25632e+06 -473143 1.51554e+06 2.01176e+06 -3.06429e+06
50 3 O 1.46494 63.2992 5.86276 -1.2 -8.7653 -3.25942e+06 -1.20199e+06 -2.84709e+06 -276408 -766602 96512.6
51 1 Mg 0.0490485 67.7994 1.55116 1.2 -7.95292 1.15939e+06 -79848.5 2.81174e+06 -1.22314e+06 222264 817709
52 2 Si -2.00958 66.036 1.66528 2.4 -32.087 2.55113e+06 9.62842e+06 1.07169e+07 -521272 -343804 -2.13661e+06
53 3 O 1.22228 65.9372 1.54526 -1.2 -10.0336 -2.02328e+06 -3.20768e+06 -4.60437e+06 894815 214025 1.22152e+06
54 3 O -1.0408 69.6869 1.55726 -1.2 -9.43584 -3.20822e+06 -2.93591e+06 -3.66547e+06 932597 -176776 506520
55 3 O -1.33954 66.6181 0.228079 -1.2 -9.02859 -3.76634e+06 -2.45445e+06 -727920 185275 -820880 283615
56 3 O -1.27039 66.7697 2.81611 -1.2 -10.3101 -1.15621e+06 -2.96286e+06 -4.03227e+06 -487729 885837 128014
57 1 Mg -2.3975 70.2905 0.162973 1.2 -7.87057 -1.31601e+06 2.74661e+06 70025.9 -508136 -1.31215e+06 -1.53928e+06
58 1 Mg 2.24085 72.8976 1.44738 1.2 -8.43919 1.30903e+06 -1.06263e+06 3.86527e+06 1.22545e+06 -137442 157902
59 2 Si -0.335095 71.1436 1.68979 2.4 -32.7672 5.32933e+06 9.22959e+06 9.08744e+06 -409257 703939 683138
60 3 O 1.26131 71.0415 1.64161 -1.2 -9.64626 -1.01847e+06 -4.73127e+06 -6.05489e+06 232304 -100921 -313497
61 3 O -1.38165 74.776 1.57073 -1.2 -8.74046 -3.61127e+06 -3.4364e+06 -4.35247e+06 -1.04644e+06 420688 718331
62 3 O -0.986763 71.9249 0.44378 -1.2 -9.0687 -4.16066e+06 -3.69679e+06 -5.60373e+06 -161112 1.67804e+06 74453.8
63 1 Mg -2.31469 80.4262 3.14858 1.2 -7.34791 -720879 2.48163e+06 1.97053e+06 -708916 860524 1.76261e+06
64 3 O -0.980327 71.827 2.92111 -1.2 -9.39236 -4.08817e+06 -2.56709e+06 -6.1078e+06 -45977.5 -742994 -197710
65 1 Mg -2.333 77.5816 4.60397 1.2 -8.30703 2.43952e+06 -1.77208e+06 4.68562e+06 453594 -17076.7 143897
66 2 Si 0.314908 79.4476 4.61206 2.4 -33.2024 2.41872e+06 7.9285e+06 1.23057e+07 153927 -184702 367382
67 3 O -1.20303 79.5299 4.6326 -1.2 -9.86801 -3.93108e+06 -2.37238e+06 -5.60002e+06 416550 -392465 -27312.7
68 3 O 1.49217 75.7711 4.59746 -1.2 -9.26062 -2.76329e+06 -1.18819e+06 -4.76977e+06 -1.52706e+06 -283224 265087
69 3 O 1.02082 78.6953 3.37321 -1.2 -9.2477 -2.01837e+06 -882524 -5.42613e+06 -318489 -1.03939e+06 -74012.4
70 3 O 0.922033 78.6503 5.88274 -1.2 -8.77276 -3.02926e+06 -1.8379e+06 -4.50928e+06 -249605 784975 -445392
71 1 Mg 0.00532527 75.271 3.19284 1.2 -7.79397 -1.08829e+06 1.89083e+06 2.20398e+06 409586 -549571 1.91588e+06
72 1 Mg -0.0472945 72.4042 4.60456 1.2 -8.15056 1.29154e+06 -1.07682e+06 3.86925e+06 -539675 -270689 -137117
73 2 Si 2.19405 74.2409 4.60086 2.4 -32.7883 4.90865e+06 7.72045e+06 1.4332e+07 478708 790116 751204
74 3 O -1.03738 74.3608 4.65452 -1.2 -9.86878 -2.65954e+06 -2.32477e+06 -5.93777e+06 589856 497252 196082
75 3 O 1.00277 70.6028 4.58988 -1.2 -9.39449 -2.06788e+06 -3.44631e+06 -5.14663e+06 1.53751e+06 251675 -623106
76 3 O 1.45256 73.499 3.28223 -1.2 -8.98939 -1.81606e+06 -627017 -2.11237e+06 698644 1.65478e+06 1.03337e+06
77 1 Mg 0.035914 75.1348 0.222429 1.2 -8.3146 547382 2.51719e+06 822758 449950 1.05628e+06 -1.79337e+06
78 3 O 1.48207 73.5975 5.91775 -1.2 -9.13451 -3.13997e+06 -1.52067e+06 -3.29024e+06 572792 -1.52293e+06 439359
79 1 Mg 0.0944267 78.0977 1.63813 1.2 -8.46108 1.25419e+06 -1.38752e+06 4.28943e+06 -435734 271375 334508
80 2 Si -2.06379 76.2506 1.68607 2.4 -33.8086 6.95625e+06 6.58362e+06 1.19062e+07 560666 -426834 -910148
81 3 O 1.12683 76.0207 1.63306 -1.2 -9.30115 -3.30552e+06 -1.75008e+06 -5.60371e+06 1.03465e+06 506912 643361
82 3 O -0.850386 79.8788 1.61838 -1.2 -9.38079 -2.0817e+06 -4.19464e+06 -5.28099e+06 852325 -540573 175799
83 3 O -1.421 77.0108 0.376818 -1.2 -8.24319 -4.0532e+06 -2.30288e+06 -3.67117e+06 435423 -1.76914e+06 781630
84 3 O -1.29883 76.8801 2.87386 -1.2 -9.18879 -2.61576e+06 -1.71805e+06 -6.93827e+06 -182594 729353 -1.10848e+06
85 1 Mg -2.32899 80.2779 0.245931 1.2 -7.98532 184144 2.48856e+06 1.61696e+06 -841185 -910721 -1.13755e+06
86 1 Mg 2.24838 83.2989 1.47044 1.2 -8.10249 1.95546e+06 -914496 3.34264e+06 797170 -589749 1.32388e+06
87 2 Si -0.280986 81.376 1.62684 2.4 -33.1769 4.55823e+06 6.33452e+06 1.21776e+07 -812414 397133 1.16973e+06
88 3 O 1.29409 81.3481 1.63433 -1.2 -9.70257 -2.02831e+06 -990341 -5.83702e+06 -1.02171e+06 607453 -708888
89 3 O -1.32642 85.0696 1.64565 -1.2 -9.31338 -659594 -3.05751e+06 -4.49684e+06 -1.5036e+06 415391 405368
90 3 O -1.01423 82.0194 0.358485 -1.2 -9.04285 -3.07473e+06 -1.73627e+06 -4.29013e+06 -167161 916741 -566214
91 1 Mg -2.31857 90.6916 3.1643 1.2 -7.05297 -2.07368e+06 2.75848e+06 1.24765e+06 -1.29765e+06 1.79736e+06 1.08548e+06
92 3 O -0.888914 82.0628 2.90463 -1.2 -9.28194 -3.0701e+06 -1.12763e+06 -5.39646e+06 313563 -752320 -490514
93 1 Mg -2.262 87.8979 4.65669 1.2 -8.04672 1.51775e+06 -1.17629e+06 3.54117e+06 692661 -143321 671269
94 2 Si 0.373244 89.784 4.63634 2.4 -32.5875 3.17711e+06 8.10031e+06 1.00594e+07 117403 666050 -2.36038e+06
95 3 O -1.16775 89.7985 4.67364 -1.2 -9.91792 -2.45208e+06 -3.19311e+06 -5.13862e+06 -176565 232486 998740
96 3 O 1.36571 86.1562 4.55762 -1.2 -9.59442 -3.19277e+06 -2.76684e+06 -4.79124e+06 -1.52788e+06 945096 -329508
97 3 O 1.01349 89.0946 3.4281 -1.2 -9.87666 -2.39967e+06 -2.92483e+06 -6.80779e+06 391770 -239022 -952930
98 3 O 1.09995 89.0894 5.9746 -1.2 -8.90997 -3.31025e+06 -2.12241e+06 -2.42549e+06 -618782 1.05489e+06 215526
99 1 Mg 0.030792 85.773 3.09706 1.2 -7.43368 -2.19242e+06 1.96843e+06 1.06456e+06 742967 -1.12132e+06 2.21013e+06
100 1 Mg -0.0649134 82.8652 4.52132 1.2 -8.10675 1.39223e+06 -1.00495e+06 4.9034e+06 -1.2332e+06 -272336 -352559
101 2 Si 2.07955 84.6495 4.56612 2.4 -32.3518 4.74874e+06 7.69789e+06 1.09623e+07 157391 -320449 -749121
102 3 O -1.10152 84.8408 4.60732 -1.2 -9.8816 -1.08302e+06 -2.76701e+06 -6.59312e+06 10547.6 -876814 349797
103 3 O 1.02735 80.8711 4.65976 -1.2 -9.33269 -1.85955e+06 -2.98044e+06 -4.71322e+06 278936 -147201 -261464
104 3 O 1.45487 83.9724 3.33179 -1.2 -9.44047 -2.63579e+06 -1.71602e+06 -4.90262e+06 -223380 323082 -825999
105 1 Mg 0.140756 85.6801 0.0209583 1.2 -7.26332 -1.60974e+06 2.77858e+06 1.63061e+06 897798 365171 -2.11451e+06
106 3 O 1.38537 83.9426 5.85501 -1.2 -9.30374 -3.85129e+06 -2.51048e+06 -4.99449e+06 919303 -1.28565e+06 258250
107 1 Mg 0.142336 88.493 1.77477 1.2 -7.64271 488358 -583340 2.1353e+06 -585638 -39652.5 -399485
108 2 Si -2.06328 86.5323 1.59946 2.4 -32.0619 5.16439e+06 8.42659e+06 1.03707e+07 -1.01448e+06 -284199 -413387
109 3 O 1.07118 86.5188 1.56304 -1.2 -10.2461 -1.00894e+06 -2.73023e+06 -4.8855e+06 -826081 -468123 1.0298e+06
110 3 O -0.991653 90.2961 1.66073 -1.2 -9.97594 -2.22405e+06 -3.07356e+06 -4.98226e+06 1.14112e+06 420327 -163242
111 3 O -1.37594 87.19 0.344367 -1.2 -9.7645 -1.92312e+06 -2.67093e+06 -4.50826e+06 469585 -1.35356e+06 1.29953e+06
112 3 O -1.42811 87.2307 2.89466 -1.2 -9.60803 -1.69411e+06 -2.59903e+06 -4.83721e+06 872764 1.42999e+06 -125501
113 1 Mg -2.3853 90.7519 0.288074 1.2 -7.00236 -2.18954e+06 2.78489e+06 1.07753e+06 -665158 -1.26537e+06 -2.28698e+06
114 1 Mg 2.36162 93.6235 1.6 1.2 -7.6508 608831 -1.97893e+06 4.31408e+06 774887 293190 -1.24321e+06
115 2 Si -0.359002 91.8109 1.74965 2.4 -31.8044 3.04614e+06 7.59149e+06 1.08983e+07 95965.3 247285 -1.18523e+06
116 3 O 1.20384 91.6911 1.70033 -1.2 -10.1745 -448223 -2.67044e+06 -5.37023e+06 -774726 -419580 -142820
117 3 O -1.36024 95.3167 1.62869 -1.2 -10.1204 -1.33125e+06 -2.29642e+06 -4.22665e+06 -2.08455e+06 -558683 810850
118 3 O -0.997828 92.5344 0.462318 -1.2 -9.86258 -2.0541e+06 -1.71668e+06 -3.10781e+06 -51033.4 435823 486056
119 1 Mg -2.29704 100.863 2.98112 1.2 -7.27453 -1.36665e+06 2.24312e+06 1.9192e+06 -1.00556e+06 1.40242e+06 1.73957e+06
120 3 O -1.04703 92.3936 3.01298 -1.2 -9.7561 -2.73253e+06 -2.56506e+06 -4.97744e+06 -147205 -330422 -78241.2
121 1 Mg -2.22726 98.2214 4.50629 1.2 -7.6367 786248 -267152 2.47099e+06 1.22768e+06 469607 -429451
122 2 Si 0.373637 100.021 4.60475 2.4 -32.5912 3.5706e+06 9.37518e+06 1.03145e+07 72442 442826 -1.20924e+06
123 3 O -1.17186 100.149 4.61656 -1.2 -9.99535 -2.05488e+06 -3.26973e+06 -4.10921e+06 -148574 215140 922650
124 3 O 1.3641 96.324 4.5421 -1.2 -9.83308 -849480 -4.3729e+06 -4.0877e+06 -1.89778e+06 -372945 13719.7
125 3 O 1.03179 99.2209 3.41402 -1.2 -9.97071 -1.29601e+06 -2.8151e+06 -4.80842e+06 -207205 -958837 -455809
126 3 O 1.02909 99.405 5.94104 -1.2 -9.14923 -2.21098e+06 -2.56415e+06 -3.43435e+06 52888.2 985379 344208
127 1 Mg -0.0252555 95.8808 3.07372 1.2 -7.04535 -3.66507e+06 2.91159e+06 921493 803664 -1.24769e+06 1.80692e+06
128 1 Mg 0.00504895 93.1216 4.67533 1.2 -7.90542 335331 -460095 3.21153e+06 -830761 160080 -697289
129 2 Si 2.13807 94.8754 4.54821 2.4 -31.4295 4.08405e+06 9.80743e+06 1.0926e+07 -508808 588177 436784
130 3 O -1.06169 94.9309 4.50137 -1.2 -10.4995 -1.54617e+06 -4.07598e+06 -5.23195e+06 129014 611932 -206381
131 3 O 1.04055 91.2355 4.66962 -1.2 -9.55025 -1.8031e+06 -4.10528e+06 -4.31469e+06 631550 401953 887012
132 3 O 1.33683 94.1958 3.25049 -1.2 -9.60239 -1.71745e+06 -2.64474e+06 -2.74776e+06 1.18839e+06 1.91647e+06 -77128.1
133 1 Mg -0.0743543 95.8484 -0.0182525 1.2 -7.21157 -1.70113e+06 2.64679e+06 1.00755e+06 1.12647e+06 1.31516e+06 -2.00021e+06
134 3 O 1.41307 94.2158 5.85879 -1.2 -9.86139 -1.40828e+06 -3.35704e+06 -2.58366e+06 350522 -2.03246e+06 837873
135 1 Mg 0.186519 98.5983 1.64285 1.2 -7.67703 -779204 -1.20567e+06 4.96455e+06 -289967 -35142.8 -126455
136 2 Si -2.03301 96.8493 1.67094 2.4 -30.6939 5.36519e+06 8.76227e+06 1.1825e+07 393349 -600753 -531993
137 3 O 1.12605 96.8491 1.56027 -1.2 -10.4598 1.33198e+06 -3.32784e+06 -5.4356e+06 1.16365e+06 -26738.8 552266
138 3 O -0.906869 100.425 1.54777 -1.2 -9.51276 -1.70114e+06 -4.52862e+06 -5.52325e+06 537279 345062 -615984
139 3 O -1.24235 97.4779 0.27832 -1.2 -9.68603 -2.58285e+06 -2.53155e+06 -1.67385e+06 915386 -2.70148e+06 340064
140 3 O -1.33229 97.508 2.94262 -1.2 -10.3743 -2.19447e+06 -2.2658e+06 -4.0602e+06 607496 1.74472e+06 -289569
141 1 Mg -2.35036 101.042 0.0102174 1.2 -7.49022 -1.10465e+06 1.94496e+06 929414 -1.23115e+06 -1.36309e+06 -867034
142 1 Mg 7.07155 103.876 1.52903 1.2 -7.89932 899333 -105491 4.33355e+06 497248 -161538 639001
143 2 Si -0.291568 101.895 1.58228 2.4 -32.66 2.41135e+06 6.01319e+06 1.17318e+07 -713934 -21891.3 2.31386e+06
144 3 O 1.20078 101.854 1.56204 -1.2 -9.89946 -4.42533e+06 -1.59163e+06 -5.66527e+06 -1.30297e+06 -244862 -930589
145 3 O 3.38302 105.612 1.45381 -1.2 -9.50702 -1.0998e+06 -3.77335e+06 -5.69101e+06 -549148 703678 -39402.5
146 3 O -1.03645 102.518 0.309903 -1.2 -9.4342 -2.76199e+06 -3.75786e+06 -5.05421e+06 107119 1.09096e+06 171851
147 1 Mg 2.3209 111.306 2.91631 1.2 -7.40202 -1.59922e+06 3.09642e+06 795578 -989003 1.29442e+06 1.22869e+06
148 3 O -1.03628 102.555 2.86111 -1.2 -9.23296 -2.32883e+06 -1.66767e+06 -4.07757e+06 192926 -856351 -474863
149 1 Mg 2.50447 108.357 4.47598 1.2 -8.24834 1.95139e+06 469224 2.64036e+06 60908.8 -173814 -547049
150 2 Si 5.05288 110.424 4.50883 2.4 -32.6491 3.40369e+06 1.01361e+07 8.20349e+06 -841498 444592 -1.5514e+06
151 3 O 3.55376 110.475 4.40268 -1.2 -9.95902 -4.07955e+06 -2.83074e+06 -3.35538e+06 134864 -231160 311876
152 3 O 6.17173 106.635 4.59416 -1.2 -8.77364 -3.07564e+06 -5.28401e+06 -3.6434e+06 -895704 246550 -1.18741e+06
153 3 O 5.78957 109.72 3.24829 -1.2 -9.41198 -2.3734e+06 -2.18161e+06 -4.47576e+06 -566337 -898112 421118
154 3 O 5.69365 109.557 5.75725 -1.2 -9.0785 -1.48338e+06 -2.76641e+06 -3.1641e+06 -500062 1.23723e+06 580533
155 1 Mg 4.86511 106.269 2.95941 1.2 -7.70477 322715 2.09684e+06 1.10228e+06 1.17913e+06 -1.03287e+06 737948
156 1 Mg -0.0700098 103.4 4.49096 1.2 -8.27833 1.50298e+06 84871 4.06308e+06 -878134 -78893.9 -790644
157 2 Si 6.79177 105.126 4.66823 2.4 -33.6595 4.74047e+06 7.68368e+06 8.80438e+06 -397193 -143271 -1.51762e+06
158 3 O 3.56676 105.175 4.54953 -1.2 -9.27247 -4.09122e+06 -2.85572e+06 -4.0845e+06 1.05151e+06 -1.43505e+06 609782
159 3 O 1.05846 101.519 4.50215 -1.2 -9.24872 -2.34897e+06 -1.49658e+06 -3.8165e+06 650849 -71165 1.04697e+06
160 3 O 6.16189 104.589 3.30991 -1.2 -8.93397 -3.50571e+06 -3.53856e+06 -3.16391e+06 -347258 544397 -1.14364e+06
161 1 Mg 4.78261 106.023 0.011857 1.2 -7.22236 -1.53795e+06 2.99647e+06 382165 949432 1.66403e+06 -1.97803e+06
162 3 O 6.0251 104.49 5.83612 -1.2 -9.29674 -3.01761e+06 -2.98471e+06 -5.73915e+06 -488838 -171230 2.44241e+06
163 1 Mg 4.83169 109.093 1.61742 1.2 -7.8809 1.44207e+06 291817 3.93741e+06 -887532 -270449 -1.09923e+06
164 2 Si 2.76707 107.104 1.43314 2.4 -32.804 3.05353e+06 7.02123e+06 1.15857e+07 600.405 -227041 -2.83512e+06
165 3 O 5.97764 107.111 1.49089 -1.2 -9.79539 -2.59311e+06 -1.45919e+06 -6.03708e+06 584114 -666789 1.39223e+06
166 3 O 3.70289 110.889 1.49442 -1.2 -9.49801 -2.25506e+06 -1.52887e+06 -4.66813e+06 1.20347e+06 393238 259644
167 3 O 3.45647 107.795 0.165089 -1.2 -9.26781 -2.98259e+06 -2.2001e+06 -3.84487e+06 -797426 -929389 1.35807e+06
168 3 O 3.39884 107.672 2.76881 -1.2 -9.39689 -2.96678e+06 -3.39371e+06 -3.72243e+06 -39744 356232 -97288.6
169 1 Mg 2.39059 111.329 0.0183942 1.2 -7.73307 -482128 3.11857e+06 741665 -1.22729e+06 -1.73262e+06 -1.33235e+06
170 1 Mg 7.07389 114.272 1.519 1.2 -7.98585 1.13932e+06 -191111 3.01591e+06 681031 104903 181123
171 2 Si 4.37682 112.442 1.47391 2.4 -32.4827 5.23404e+06 9.68911e+06 1.00168e+07 628750 408030 439165
172 3 O 5.95802 112.3 1.51983 -1.2 -9.80754 -322036 -3.3453e+06 -4.09385e+06 -369156 583646 -419547
173 3 O 3.52524 115.899 1.55362 -1.2 -9.46244 -3.88009e+06 -5.55962e+06 -4.39244e+06 -602723 -516260 169344
174 3 O 3.68131 113.019 0.154446 -1.2 -9.43527 -2.80958e+06 -3.16085e+06 -1.7586e+06 -18598.5 685562 362166
175 1 Mg 2.28233 121.604 2.8764 1.2 -7.83188 -2.32809e+06 2.07216e+06 842618 -2.35957e+06 1.83235e+06 793176
176 3 O 3.80739 113.115 2.77535 -1.2 -9.59314 -3.15201e+06 -3.09807e+06 -2.12288e+06 -419449 -260078 -432799
177 1 Mg 2.54058 118.851 4.4747 1.2 -8.80865 2.66415e+06 241614 2.72068e+06 796706 -616891 -576222
178 2 Si 5.12175 120.696 4.37527 2.4 -33.8791 5.37519e+06 7.27077e+06 8.4659e+06 -941657 836256 -1.29603e+06
179 3 O 3.60108 120.682 4.41481 -1.2 -9.14616 -4.5008e+06 -3.26905e+06 -4.10649e+06 -695333 -984236 813724
180 3 O 6.1147 116.948 4.53737 -1.2 -8.62454 -3.10492e+06 -944329 -4.61011e+06 -1.07165e+06 -333583 -788.112
181 3 O 5.90113 120.062 3.15308 -1.2 -8.98203 -4.27306e+06 -3.58678e+06 -5.5649e+06 -1.34043e+06 -411933 124726
182 3 O 5.7605 119.937 5.65643 -1.2 -8.54183 -3.04001e+06 -3.21088e+06 -3.77345e+06 237444 504530 1.06992e+06
183 1 Mg 4.714 116.311 3.07746 1.2 -7.76136 -1.73763e+06 2.42857e+06 59508.2 1.66316e+06 -2.57901e+06 2.16495e+06
184 1 Mg 4.58185 113.68 4.55115 1.2 -7.92138 814899 -56327.8 3.63147e+06 -740863 -173253 73997.8
185 2 Si 6.80742 115.369 4.53565 2.4 -32.7951 3.56834e+06 1.10673e+07 1.1302e+07 417530 983179 -689008
186 3 O 3.58031 115.506 4.57854 -1.2 -9.79896 -2.61352e+06 -3.98889e+06 -5.67563e+06 874912 542735 223462
187 3 O 5.7895 111.817 4.65098 -1.2 -9.58436 -1.76583e+06 -5.36377e+06 -3.21235e+06 521572 -444183 -190918
188 3 O 6.09439 114.796 3.20075 -1.2 -9.46475 -2.06052e+06 -4.36648e+06 -2.35884e+06 125919 684884 -460951
189 1 Mg 4.763 116.366 -0.00808638 1.2 -7.61674 -923408 3.094e+06 431566 1.46949e+06 2.1089e+06 -1.55036e+06
190 3 O 6.08279 114.703 5.81482 -1.2 -9.09423 -2.92727e+06 -2.86689e+06 -777657 -253223 -954603 -253302
191 1 Mg 4.98227 119.194 1.52345 1.2 -8.37736 1.72331e+06 -122802 3.75931e+06 -1.3134e+06 -61592.4 -1.16697e+06
192 2 Si 2.91567 117.39 1.55423 2.4 -33.0857 6.27873e+06 7.05033e+06 7.84295e+06 721184 799475 444273
193 3 O 6.07839 117.289 1.50713 -1.2 -9.28895 -1.12258e+06 -2.13831e+06 -3.93197e+06 700252 676881 483643
194 3 O 3.74166 120.991 1.50556 -1.2 -8.93923 -1.8677e+06 -4.22055e+06 -4.73745e+06 440382 744956 436506
195 3 O 3.53913 118.019 0.323746 -1.2 -9.34212 -3.60398e+06 -4.31499e+06 -4.96748e+06 -408409 290964 1.85363e+06
196 3 O 3.61413 118.04 2.82785 -1.2 -9.03356 -2.78637e+06 -2.34974e+06 -4.53119e+06 381732 311190 57850.1
197 1 Mg 2.23826 121.629 -0.0669029 1.2 -8.01517 -935909 2.79183e+06 923988 -1.63892e+06 -1.33016e+06 -2.72993e+06
198 1 Mg 7.04862 124.413 1.469 1.2 -8.76521 2.22735e+06 -149792 3.09479e+06 821521 361803 -516076
199 2 Si 4.39455 122.44 1.46899 2.4 -33.2924 3.1602e+06 9.08715e+06 1.02461e+07 447484 931334 -1.80148e+06
200 3 O 5.86583 122.557 1.44155 -1.2 -9.57442 -5.6115e+06 -3.66938e+06 -4.82672e+06 -561850 191716 361545
201 3 O 3.30572 126.271 1.56712 -1.2 -8.91779 -2.14755e+06 -438526 -3.50663e+06 -2.04061e+06 -57524.1 604032
202 3 O 3.59915 123.1 0.0725126 -1.2 -8.62092 -3.14788e+06 -1.58996e+06 -3.22651e+06 -708904 1.73621e+06 519794
203 1 Mg 2.26769 131.834 2.89651 1.2 -7.5002 -206370 5.01808e+06 -1.19609e+06 -828166 1.14755e+06 1.27546e+06
204 3 O 3.62949 123.141 2.65798 -1.2 -9.08037 -3.63467e+06 -3.75605e+06 -3.31322e+06 -419308 -177179 377880
205 1 Mg 2.30658 129.184 4.50115 1.2 -8.05614 555347 427197 1.96184e+06 1.37812e+06 132350 -143506
206 2 Si 4.99352 130.844 4.52884 2.4 -32.6973 1.456e+06 1.05271e+07 7.29319e+06 865316 781510 377884
207 3 O 3.48513 130.942 4.47153 -1.2 -9.88385 -4.0243e+06 -6.17018e+06 -4.1311e+06 -268166 1.33845e+06 -1.46873e+06
208 3 O 6.04925 127.175 4.4143 -1.2 -9.42062 -3.39187e+06 -3.88921e+06 -3.60104e+06 -1.27315e+06 -422137 -286570
209 3 O 5.62499 130.194 3.24228 -1.2 -9.05532 -4.3194e+06 -5.16979e+06 -2.24876e+06 255305 -386869 -1.29441e+06
210 3 O 5.72097 130.151 5.73251 -1.2 -9.76008 -2.22068e+06 -3.81479e+06 -4.29505e+06 16822.1 25844.8 99953.7
211 1 Mg 4.6879 126.83 3.03463 1.2 -7.66067 -919692 3.87366e+06 -772540 369891 -1.49388e+06 2.57109e+06
212 1 Mg 4.56233 123.896 4.47602 1.2 -8.02589 1.55048e+06 167447 4.06637e+06 -582163 363229 -707985
213 2 Si 6.73524 125.685 4.43141 2.4 -32.6848 3.88178e+06 9.81965e+06 1.10051e+07 965342 -10151.2 93030.5
214 3 O 3.52202 125.869 4.40535 -1.2 -9.94601 -2.42617e+06 -3.13936e+06 -4.89348e+06 853790 -241732 -168684
215 3 O 5.74806 122.101 4.47201 -1.2 -9.08697 -3.1542e+06 -6.75762e+06 -4.48758e+06 -229753 649969 719118
216 3 O 6.0602 125.02 3.05284 -1.2 -8.78513 -2.61e+06 -2.41665e+06 -2.31981e+06 82845.7 1.53257e+06 209301
217 1 Mg 4.77298 126.782 0.0381272 1.2 -7.90106 136735 2.66242e+06 1.06657e+06 484739 527724 -1.6262e+06
218 3 O 6.03281 124.999 5.66458 -1.2 -9.51711 -1.07387e+06 -3.26114e+06 -2.13248e+06 122091 -228262 851554
219 1 Mg 4.79211 129.457 1.34674 1.2 -7.76691 -394299 145163 3.19384e+06 -700756 70482.7 1.45133e+06
220 2 Si 2.58846 127.844 1.49259 2.4 -32.0863 4.06743e+06 1.25729e+07 1.15141e+07 22206.5 30451.1 2.17044e+06
221 3 O 5.8003 127.727 1.48336 -1.2 -10.2125 -1.69628e+06 -5.06025e+06 -4.48231e+06 1.07687e+06 -488206 -756566
222 3 O 3.67453 131.39 1.41739 -1.2 -9.61531 -867525 -6.19784e+06 -3.41204e+06 861464 -844107 24678.3
223 3 O 3.39264 128.377 0.170605 -1.2 -9.70562 -1.61639e+06 -4.11712e+06 -1.01787e+06 359819 -1.87733e+06 -334756
224 3 O 3.29573 128.611 2.82873 -1.2 -9.16958 -1.90313e+06 -3.46702e+06 394191 -243917 1.49871e+06 73955.2
225 1 Mg 2.33703 131.862 -0.0323276 1.2 -7.05497 -2.68878e+06 4.37685e+06 -158874 -1.22107e+06 -1.77446e+06 -1.05356e+06
226 1 Mg 6.90883 134.807 1.28899 1.2 -8.31935 2.03028e+06 1.15916e+06 1.68335e+06 784061 -566701 721176
227 2 Si 4.34359 132.847 1.41082 2.4 -32.7442 4.17583e+06 1.1045e+07 6.70642e+06 -402337 -440040 -131749
228 3 O 5.88744 132.843 1.46626 -1.2 -9.89149 -2.78469e+06 -3.45218e+06 -3.09319e+06 -518065 315653 114909
229 3 O 3.37159 136.605 1.33325 -1.2 -8.75205 -3.30082e+06 -4.77838e+06 -3.27284e+06 -53397.1 879138 176898
230 3 O 3.6269 133.532 0.18804 -1.2 -9.54329 -2.64125e+06 -3.64902e+06 -3.70283e+06 -549647 501580 751746
231 1 Mg 2.32685 142.136 2.84681 1.2 -7.69293 -2.33634e+06 4.28982e+06 -308136 -763793 2.03142e+06 1.15514e+06
232 3 O 3.66436 133.506 2.72343 -1.2 -8.97712 -2.4931e+06 -3.85906e+06 -1.91406e+06 277995 -863339 -343976
233 1 Mg 2.2414 139.308 4.48821 1.2 -8.43266 1.48427e+06 417912 1.76753e+06 1.16722e+06 -1.02243e+06 1.1307e+06
234 2 Si 5.06533 141.203 4.35174 2.4 -33.0654 6.35644e+06 1.01632e+07 6.80078e+06 927991 732395 97634.5
235 3 O 3.50967 141.374 4.46026 -1.2 -9.48901 -2.14584e+06 -3.76451e+06 -2.58551e+06 -233703 -161888 -44573.8
236 3 O 6.02573 137.476 4.52653 -1.2 -8.82824 -4.94158e+06 -5.38589e+06 -4.35438e+06 -1.66649e+06 47197.3 -420788
237 3 O 5.70628 140.337 3.24295 -1.2 -9.39718 -3.25876e+06 -4.11306e+06 -4.00252e+06 65205.2 -468002 -1.12982e+06
238 3 O 5.74174 140.668 5.7278 -1.2 -8.98138 -2.57701e+06 -3.84716e+06 -2.78313e+06 -34076.6 707565 -249925
239 1 Mg 4.80471 137.097 2.91064 1.2 -8.20272 213807 3.21731e+06 326284 777952 -1.33883e+06 1.77198e+06
240 1 Mg 4.63631 134.093 4.40425 1.2 -8.06316 1.87271e+06 1.05155e+06 2.91813e+06 -620926 47085.7 -479842
241 2 Si 6.75714 136.03 4.42999 2.4 -33.6705 7.01903e+06 9.04482e+06 7.58264e+06 81534.3 -143831 -530277
242 3 O 3.59994 136.155 4.4229 -1.2 -9.20189 -1.82916e+06 -3.33225e+06 -3.51812e+06 -321034 -67767.2 -375853
243 3 O 5.68944 132.294 4.46707 -1.2 -9.49685 -2.86302e+06 -6.24131e+06 -3.89241e+06 604355 -583113 -870498
244 3 O 6.12167 135.473 3.11901 -1.2 -8.92129 -3.64862e+06 -4.03689e+06 -2.8425e+06 445675 483250 -1.03915e+06
245 1 Mg 4.66974 137.146 -0.128262 1.2 -7.7416 -1.38166e+06 3.38402e+06 12876.8 1.18102e+06 2.00561e+06 -1.27074e+06
246 3 O 6.16558 135.294 5.68279 -1.2 -9.21374 -2.743e+06 -3.54179e+06 -3.16399e+06 335640 -502915 1.6543e+06
247 1 Mg 4.69081 139.986 1.53169 1.2 -8.2833 1.56116e+06 -465980 2.3225e+06 -317232 -636133 -1.15083e+06
248 2 Si 2.68055 138.075 1.38746 2.4 -33.9234 4.36344e+06 9.36014e+06 6.7921e+06 -718994 874795 -130095
249 3 O 5.92676 137.878 1.41688 -1.2 -9.20053 -5.18524e+06 -4.14979e+06 -3.74965e+06 328892 -351611 569966
250 3 O 3.70858 141.669 1.48325 -1.2 -9.3675 -3.40595e+06 -4.53072e+06 -3.43081e+06 1.9409e+06 876200 -61082.9
251 3 O 3.38467 138.81 0.25134 -1.2 -9.17248 -3.71647e+06 -5.0919e+06 -5.35313e+06 -365179 76260.3 2.09539e+06
252 3 O 3.30623 138.701 2.70405 -1.2 -8.64492 -3.09611e+06 -3.24808e+06 -4.075e+06 38490.1 11584.6 -415248
253 1 Mg 2.43781 142.121 -0.0312773 1.2 -7.861 -961901 4.00718e+06 -404989 -651435 -1.41407e+06 -1.88484e+06
254 1 Mg 7.0292 145.165 1.55812 1.2 -8.36011 1.71899e+06 -717462 1.18825e+06 581002 734286 -239870
255 2 Si 4.40253 143.225 1.4132 2.4 -33.0722 6.32932e+06 1.03084e+07 7.92273e+06 -170275 -1.08462e+06 803586
256 3 O 5.94745 143.046 1.4244 -1.2 -9.44386 -1.9921e+06 -3.36437e+06 -5.03488e+06 -538648 -1.18305e+06 -208696
257 3 O 3.47382 146.779 1.47282 -1.2 -9.17505 -4.46083e+06 -5.0801e+06 -3.52142e+06 -2.02574e+06 -519111 -909681
258 3 O 3.83633 143.778 0.102191 -1.2 -9.08423 -3.76595e+06 -3.18155e+06 -3.69868e+06 507096 -21620.7 710929
259 1 Mg 1.58134 151.964 1.99004 1.2 -7.23498 -2.55906e+06 -1.8079e+06 2.76331e+06 436130 -1.00442e+06 1.07936e+06
260 3 O 3.64876 143.951 2.66264 -1.2 -9.11046 -3.50708e+06 -3.43702e+06 -2.70426e+06 -503767 -1.4017e+06 -27221.1
261 1 Mg 1.8479 149.831 4.84089 1.2 -8.04163 -699599 4.19429e+06 55784.3 -694754 792971 2.36936e+06
262 2 Si 3.86979 150.501 3.06363 2.4 -33.0705 6.93454e+06 7.50073e+06 5.4883e+06 -341145 323544 1.0336e+06
263 3 O 2.43493 151.027 3.35008 -1.2 -8.75064 -6.61998e+06 -3.83157e+06 -6.3362e+06 686588 1.46434e+06 -1.59249e+06
264 3 O 6.17041 147.821 4.37232 -1.2 -9.03461 -2.81091e+06 -5.45403e+06 -2.03924e+06 -1.04973e+06 -483059 -1.02744e+06
265 3 O 4.51884 151.389 1.96216 -1.2 -9.40026 -5.18286e+06 -1.24584e+06 -6.0603e+06 358348 238881 292176
266 3 O 4.73072 150.45 4.33292 -1.2 -8.91414 -5.66909e+06 -4.44496e+06 -4.12891e+06 -1.38052e+06 721841 89813.5
267 1 Mg 4.8315 147.251 2.86142 1.2 -8.12509 -1.37763e+06 3.14991e+06 418892 1.2272e+06 -1.69253e+06 1.13386e+06
268 1 Mg 4.52944 144.264 4.3815 1.2 -8.38014 2.41632e+06 815690 1.35845e+06 135658 -335472 -646249
269 2 Si 6.7998 146.314 4.45094 2.4 -33.8707 7.46095e+06 1.02911e+07 5.2464e+06 558331 463403 837742
270 3 O 3.6247 146.401 4.41077 -1.2 -9.20548 -3.0847e+06 -3.14742e+06 -3.47963e+06 1.00573e+06 -351301 -388795
271 3 O 5.73916 142.682 4.20944 -1.2 -9.10136 -3.08285e+06 -4.87625e+06 -3.4178e+06 878690 638198 1.19465e+06
272 3 O 6.11669 145.675 3.1474 -1.2 -8.57551 -4.48586e+06 -4.40573e+06 -5.34972e+06 1.1981e+06 1.68468e+06 -1.02592e+06
273 1 Mg 4.69004 147.407 -0.256535 1.2 -7.76942 -2.7975e+06 3.31271e+06 543826 260338 1.22546e+06 -2.31858e+06