ITEM: TIMESTEP
4200
ITEM: NUMBER OF ATOMS
5600
ITEM: BOX BOUNDS xy xz yz pp pp pp
0.0000000000000000e+00 7.1234999999999999e+00 0.0000000000000000e+00
0.0000000000000000e+00 2.0198500000000001e+02 2.3744999999999998e+00
0.0000000000000000e+00 1.1958400000000000e+02 0.0000000000000000e+00
ITEM: ATOMS id type element xu yu zu q c_pe c_s[1] c_s[2] c_s[3] c_s[4] c_s[5] c_s[6]
1 1 Mg -1.39234 48.6678 -0.985908 1.2 -7.29468 -1.97298e+06 -576036 2.66797e+06 547437 114400 -692716
2 1 Mg 3.23167 51.5162 1.77901 1.2 -7.80617 -572383 3.77522e+06 145484 738287 -131371 -2.52874e+06
3 2 Si 0.889584 50.2626 -0.0987424 2.4 -33.502 8.16777e+06 1.09081e+07 7.12185e+06 -2.90807e+06 1.87061e+06 -4.33746e+06
4 3 O 1.69586 48.8515 -0.0773299 -1.2 -8.21663 -1.26623e+06 -703171 -4.87591e+06 -701415 -556517 1.29547e+06
5 3 O -1.12089 53.563 1.48692 -1.2 -9.17681 -3.1207e+06 -6.60197e+06 -3.77578e+06 -316909 794956 828349
6 3 O -0.0707208 50.025 -1.38268 -1.2 -9.09009 -3.00426e+06 -4.94963e+06 -5.13322e+06 964000 126449 1.82155e+06
7 1 Mg -2.07561 59.355 3.14111 1.2 -7.75551 -323942 4.07225e+06 -162481 -1.08465e+06 1.48339e+06 2.12104e+06
8 3 O 0.00138648 50.601 1.12263 -1.2 -9.06873 -5.95253e+06 -4.4766e+06 -3.69348e+06 -769898 796661 2.53994e+06
9 1 Mg -1.9503 56.4538 4.5916 1.2 -7.88318 -105801 1.46457e+06 3.53868e+06 757627 -219777 -512554
10 2 Si 0.671311 58.1881 4.65501 2.4 -31.8966 4.12425e+06 1.1017e+07 9.17141e+06 -191987 -735100 -565226
11 3 O -0.851058 58.3371 4.65463 -1.2 -10.1217 -1.41072e+06 -2.73785e+06 -3.97466e+06 -1.30421e+06 -425811 502415
12 3 O 1.7768 54.5619 4.37995 -1.2 -9.45821 -3.47044e+06 -3.20286e+06 -3.75306e+06 -1.33392e+06 513111 1.5205e+06
13 3 O 1.4487 57.6584 3.29645 -1.2 -9.43665 -1.78737e+06 -2.99979e+06 -921786 220477 -1.29457e+06 701809
14 3 O 1.35591 57.4498 5.86831 -1.2 -9.96202 -1.90955e+06 -3.29829e+06 -2.18609e+06 106328 749324 1.21122e+06
15 1 Mg 0.355256 53.9648 3.00993 1.2 -7.43223 -2.21784e+06 3.33139e+06 3423.89 419069 -1.08246e+06 804372
16 1 Mg 0.925366 50.4622 2.80649 1.2 -8.03254 -448369 1.46465e+06 -2.55972e+06 -236285 -353051 -349866
17 2 Si 2.39578 53.0451 4.35285 2.4 -32.2717 6.16611e+06 9.8918e+06 8.02845e+06 991307 798128 -853393
18 3 O -0.832435 53.1934 4.39566 -1.2 -9.61147 -2.95056e+06 -4.81707e+06 -4.39511e+06 2.58766e+06 -440770 1.28442e+06
19 3 O 2.60102 49.6106 2.9392 -1.2 -6.613 -2.45578e+06 1.25795e+06 -1.32602e+06 774254 858535 -1.37463e+06
20 3 O 1.6867 52.3516 3.07964 -1.2 -9.56359 -975986 -4.36651e+06 -4.31374e+06 -413694 2.02508e+06 1.73202e+06
21 1 Mg 0.387062 54.3048 -0.0316017 1.2 -7.92428 -823623 1.81061e+06 -3128.29 580121 388484 -1.82493e+06
22 3 O 1.53606 52.333 5.56998 -1.2 -9.91305 -4.93876e+06 -6.54698e+06 -6.49019e+06 1.96228e+06 -2.39992e+06 274917
23 1 Mg 0.432612 56.8386 1.67445 1.2 -8.21471 1.86669e+06 2.32755e+06 2.0299e+06 -417736 248135 -518387
24 2 Si -1.74475 54.9829 1.54314 2.4 -33.2123 4.11886e+06 9.064e+06 8.77966e+06 1.51986e+06 -768681 1.24179e+06
25 3 O 1.44726 54.9242 1.51855 -1.2 -9.83064 -4.10326e+06 -3.66993e+06 -4.10053e+06 725593 -721266 -344284
26 3 O -0.70459 58.8793 1.66457 -1.2 -8.65481 -2.95417e+06 -2.97862e+06 -2.21946e+06 1.08493e+06 475411 -125680
27 3 O -0.96156 55.6852 0.321124 -1.2 -8.9564 -1.21366e+06 -5.50735e+06 -4.38092e+06 -271521 -875127 139655
28 3 O -1.04757 55.6986 2.79942 -1.2 -9.10267 -1.82732e+06 -3.35496e+06 -3.7678e+06 240241 1.66878e+06 871541
29 1 Mg -2.09991 59.4868 0.151256 1.2 -7.94475 168854 3.22651e+06 -21543.6 -1.14792e+06 -338053 -1.09565e+06
30 1 Mg 2.55762 62.4051 1.61477 1.2 -7.89364 1.17967e+06 1.54664e+06 2.53247e+06 485557 193856 1.01006e+06
31 2 Si -0.0527246 60.4249 1.66702 2.4 -33.4174 6.20084e+06 1.145e+07 7.14665e+06 20323.8 412892 1.62398e+06
32 3 O 1.49953 60.2943 1.71497 -1.2 -9.37483 -2.67438e+06 -4.12326e+06 -3.00551e+06 -948969 1.07413e+06 -526944
33 3 O -1.36261 64.2739 1.64463 -1.2 -10.0368 -1.17279e+06 -5.95977e+06 -3.20032e+06 -795803 -174447 -422851
34 3 O -0.877159 61.0076 0.430876 -1.2 -9.1503 -3.70302e+06 -4.37552e+06 -1.57221e+06 -766643 1.1386e+06 792296
35 1 Mg -2.37809 69.8087 3.05063 1.2 -7.4239 -1.56596e+06 3.2409e+06 -893623 -809495 1.83733e+06 2.16485e+06
36 3 O -0.64422 61.098 2.9649 -1.2 -9.1892 -3.32904e+06 -3.21853e+06 -2.41147e+06 166618 -642367 -2.1691e+06
37 1 Mg -2.09274 67.1052 4.61691 1.2 -8.092 1.3213e+06 1.32197e+06 1.96049e+06 1.00982e+06 110327 1.40767e+06
38 2 Si 0.494367 68.8407 4.54206 2.4 -33.3815 4.12413e+06 1.07511e+07 6.46156e+06 466278 857397 1.53878e+06
39 3 O -1.04653 68.9181 4.62104 -1.2 -9.3741 -2.88501e+06 -3.83836e+06 -3.89776e+06 -298179 -68247.9 202689
40 3 O 1.43334 65.2689 4.46356 -1.2 -9.33214 -1.4026e+06 -1.73186e+06 -985727 -1.27183e+06 484867 -754249
41 3 O 1.07552 68.2762 3.23301 -1.2 -9.61943 -3.33571e+06 -4.96595e+06 -3.50068e+06 410826 -30130.2 -1.66277e+06
42 3 O 1.12623 68.2727 5.83287 -1.2 -8.816 -4.28757e+06 -5.25817e+06 -2.31624e+06 481852 -68249.1 1.32317e+06
43 1 Mg 0.0565932 64.6541 3.00627 1.2 -7.33038 -1.2881e+06 5.18862e+06 -1.2373e+06 738029 -1.24883e+06 1.85361e+06
44 1 Mg 0.278758 61.6302 4.63189 1.2 -7.97194 1.61745e+06 1.64986e+06 1.04054e+06 -1.36873e+06 -182716 862004
45 2 Si 2.17053 63.6829 4.5871 2.4 -32.5236 5.31626e+06 1.24723e+07 4.75076e+06 -1.58272e+06 467706 1.70343e+06
46 3 O -1.01471 63.774 4.54236 -1.2 -9.66236 -1.15193e+06 -4.62629e+06 -2.54287e+06 -552839 -190975 -1.01434e+06
47 3 O 1.33561 59.7893 4.7276 -1.2 -9.54213 -1.75065e+06 -1.78783e+06 -3.0945e+06 1.22935e+06 -601487 -553437
48 3 O 1.59122 62.9281 3.34765 -1.2 -9.39508 -3.44769e+06 -3.52364e+06 -2.13572e+06 -815164 134811 -1.67119e+06
49 1 Mg 0.00427924 64.8749 0.083767 1.2 -6.86397 -2.33493e+06 4.40168e+06 -531573 1.23366e+06 2.09051e+06 -928974
50 3 O 1.58181 63.0368 5.84511 -1.2 -9.72083 -3.18508e+06 -2.78162e+06 -3.93076e+06 -95206.4 55266.9 -469308
51 1 Mg -0.0463094 67.6647 1.65852 1.2 -7.77385 893094 622600 2.75875e+06 -1.18344e+06 -421259 97652
52 2 Si -2.04215 65.7298 1.58123 2.4 -32.2158 1.25942e+06 9.65452e+06 9.01555e+06 -577693 614985 421362
53 3 O 1.21377 65.6763 1.54349 -1.2 -10.0438 -3.53145e+06 -3.61483e+06 -4.74735e+06 262487 396379 23974
54 3 O -0.894793 69.5357 1.72409 -1.2 -9.42347 -1.12188e+06 -3.91541e+06 -4.19018e+06 2.20358e+06 126950 1.06407e+06
55 3 O -1.41396 66.398 0.279105 -1.2 -9.6564 -3.37903e+06 -2.98227e+06 -2.85617e+06 -67686.9 -229877 444528
56 3 O -1.30713 66.4579 2.83979 -1.2 -9.41757 -2.77955e+06 -3.43219e+06 -2.12056e+06 -52829.5 911365 -677358
57 1 Mg -2.25995 69.8764 0.229158 1.2 -7.56157 -239519 3.44205e+06 -427697 201452 -237651 -370576
58 1 Mg 2.36979 72.7011 1.50816 1.2 -8.56473 1.60335e+06 623230 3.73353e+06 104683 222008 882973
59 2 Si -0.153238 71.0852 1.81462 2.4 -33.1128 4.24487e+06 9.59604e+06 1.03917e+07 455773 -432439 2.16863e+06
60 3 O 1.39719 70.9686 1.71186 -1.2 -9.99258 -3.20583e+06 -3.00388e+06 -4.40952e+06 -591895 -932165 -225687
61 3 O -1.39609 74.6812 1.5029 -1.2 -8.17403 -3.78802e+06 -2.6698e+06 -2.12456e+06 -1.09435e+06 475589 724613
62 3 O -0.839155 71.6469 0.503897 -1.2 -9.01721 -2.50951e+06 -4.69072e+06 -2.22382e+06 -291237 1.08048e+06 -373712
63 1 Mg -2.26699 80.3973 2.93761 1.2 -7.45021 -1.24888e+06 5.91151e+06 -1.54726e+06 -831128 1.22115e+06 921488
64 3 O -0.804292 71.6886 3.11578 -1.2 -8.67689 -2.23251e+06 -3.41027e+06 -2.80825e+06 226398 -724610 -33624.5
65 1 Mg -2.03606 77.5324 4.48237 1.2 -8.60897 1.3951e+06 670134 872326 700390 -240355 653232
66 2 Si 0.490728 79.4465 4.54289 2.4 -33.0947 4.72547e+06 1.21251e+07 7.31289e+06 -279996 894063 820102
67 3 O -1.02496 79.4394 4.45963 -1.2 -9.62991 -3.15998e+06 -4.42809e+06 -3.12168e+06 -766085 335459 -414577
68 3 O 1.62956 75.736 4.61755 -1.2 -8.74406 -3.1349e+06 -5.42865e+06 -3.75477e+06 -1.61423e+06 191972 -2.1652e+06
69 3 O 1.19187 78.6439 3.29474 -1.2 -9.13455 -3.89118e+06 -2.97378e+06 -898772 25839 -1.05239e+06 -1.25964e+06
70 3 O 1.19189 78.9442 5.90347 -1.2 -8.82804 -2.79341e+06 -4.4736e+06 -1.65596e+06 85174.6 986386 -265159
71 1 Mg 0.255151 75.437 3.14853 1.2 -8.45513 689114 4.1465e+06 -137664 365178 -199644 804284
72 1 Mg 0.243066 72.3126 4.70615 1.2 -9.10657 2.65192e+06 1.04878e+06 1.82884e+06 -1.09981e+06 -252548 -1.48483e+06
73 2 Si 2.28854 74.2355 4.61447 2.4 -34.8529 8.25168e+06 8.89882e+06 8.19404e+06 -643610 -396863 -1.57846e+06
74 3 O -0.909458 74.2992 4.59902 -1.2 -8.7323 -3.89312e+06 -3.07817e+06 -4.38742e+06 516334 -562713 3901.63
75 3 O 1.19855 70.3703 4.63158 -1.2 -8.74859 -3.45245e+06 -4.61374e+06 -3.14812e+06 1.08781e+06 -145132 1.82783e+06
76 3 O 1.60131 73.6894 3.32725 -1.2 -7.90677 -5.40568e+06 -2.64443e+06 -4.49793e+06 -145981 1.15079e+06 414111
77 1 Mg 0.0908191 75.1489 -0.0978899 1.2 -8.27306 -862837 3.36923e+06 181254 1.08938e+06 1.98363e+06 -1.71237e+06
78 3 O 1.59581 73.4033 5.78904 -1.2 -8.39114 -5.13231e+06 -1.94733e+06 -4.63384e+06 269214 -1.03529e+06 1.16661e+06
79 1 Mg 0.202439 78.2316 1.63348 1.2 -8.6147 2.31252e+06 1.31649e+06 1.12539e+06 -251480 -507610 323504
80 2 Si -2.03903 76.1398 1.51453 2.4 -34.8193 9.47835e+06 1.18226e+07 7.859e+06 795995 647378 -1.40511e+06
81 3 O 1.1537 76.1441 1.52752 -1.2 -8.85416 -4.0905e+06 -3.93118e+06 -2.74572e+06 475140 556069 1.18756e+06
82 3 O -0.831225 80.0031 1.60155 -1.2 -9.45567 -200716 -6.76567e+06 -2.03447e+06 1.78294e+06 959732 103998
83 3 O -1.36924 76.9651 0.271946 -1.2 -8.1947 -3.89106e+06 -787859 -1.57736e+06 215599 -1.03404e+06 -379831
84 3 O -1.25165 76.9032 2.796 -1.2 -8.41159 -2.82608e+06 -2.98264e+06 -3.01749e+06 1.13844e+06 2.53931e+06 -310005
85 1 Mg -2.25004 80.414 0.0241529 1.2 -7.39549 -505637 5.8945e+06 -429747 -298749 -3321.15 -1.3928e+06
86 1 Mg 2.33331 83.3522 1.83869 1.2 -8.40423 1.09217e+06 831004 1.26927e+06 -339589 178650 104841
87 2 Si -0.115757 81.5084 1.53097 2.4 -32.9828 4.21148e+06 1.25264e+07 6.75802e+06 430731 -549123 183248
88 3 O 1.39901 81.5031 1.47606 -1.2 -9.93383 -4.09751e+06 -4.04e+06 -2.8998e+06 -454412 -544846 747557
89 3 O -1.39359 85.0772 1.83534 -1.2 -9.33234 -4.49779e+06 -6.002e+06 -3.08258e+06 -1.17113e+06 -72035.9 897113
90 3 O -0.796011 82.073 0.218169 -1.2 -8.95737 -3.7473e+06 -4.18526e+06 -3.11019e+06 246338 1.58036e+06 207067
91 1 Mg -2.40193 90.7605 2.99754 1.2 -7.4498 -1.26235e+06 6.0141e+06 -1.51548e+06 -1.32016e+06 1.98596e+06 1.61067e+06
92 3 O -0.881042 82.2315 2.76595 -1.2 -9.07042 -2.3792e+06 -4.53992e+06 -1.72414e+06 -457064 -1.44314e+06 -206199
93 1 Mg -2.21956 87.9563 4.74518 1.2 -8.00393 391801 1.55923e+06 1.3597e+06 1.21573e+06 -262206 -249161
94 2 Si 0.345425 89.7152 4.47874 2.4 -32.5487 3.76472e+06 1.33269e+07 4.76302e+06 424529 513725 -463097
95 3 O -1.18678 89.7804 4.64042 -1.2 -9.8538 -2.30907e+06 -5.31588e+06 -2.39515e+06 -350281 643027 -414082
96 3 O 1.35063 86.03 4.8327 -1.2 -9.15264 -874541 -7.72036e+06 -3.01255e+06 -335775 523704 -480718
97 3 O 0.874 89.1256 3.16151 -1.2 -9.28397 -3.54748e+06 -5.80314e+06 -2.65565e+06 381369 -407414 -850390
98 3 O 1.07975 88.9985 5.76652 -1.2 -9.49138 -3.10089e+06 -5.28354e+06 -291916 -270786 859294 675384
99 1 Mg -0.0887121 85.6302 3.20189 1.2 -7.46964 -553332 5.31499e+06 -1.96336e+06 792230 -1.63182e+06 1.23981e+06
100 1 Mg -0.0468273 82.6942 4.60723 1.2 -8.12354 1.65932e+06 1.39992e+06 877410 -984328 434541 -250992
101 2 Si 2.04695 84.6095 4.8492 2.4 -33.0136 3.61398e+06 1.18422e+07 5.15664e+06 -478036 514552 631854
102 3 O -1.13516 84.6681 4.77379 -1.2 -9.8845 -3.30452e+06 -4.34099e+06 -2.5857e+06 -111533 -637034 -853759
103 3 O 1.13298 80.9495 4.39783 -1.2 -9.39693 -1.77273e+06 -5.21848e+06 -1.92939e+06 654843 107731 1.03778e+06
104 3 O 1.38808 83.8926 3.57251 -1.2 -8.89447 -3.06587e+06 -5.14718e+06 -2.44585e+06 -220524 966399 -442137
105 1 Mg -0.150457 85.4658 0.356807 1.2 -7.67232 -1.5549e+06 4.54137e+06 -2.2892e+06 1.14465e+06 1.66925e+06 -2.46894e+06
106 3 O 1.3984 83.9422 6.06352 -1.2 -9.36146 -2.13434e+06 -7.59487e+06 -5.81437e+06 691408 -617560 1.94838e+06
107 1 Mg 0.067031 88.3904 1.5472 1.2 -8.30089 1.45651e+06 1.86883e+06 356432 -1.3171e+06 -160512 -52521.6
108 2 Si -2.04389 86.6106 1.71713 2.4 -33.0118 3.01043e+06 1.32602e+07 4.63349e+06 676371 -654562 -586551
109 3 O 1.18068 86.4571 1.79324 -1.2 -9.52682 -2.44766e+06 -5.73351e+06 -2.85385e+06 582291 -696579 -764379
110 3 O -1.12987 90.1615 1.47009 -1.2 -9.18505 -2.9804e+06 -6.53356e+06 -735403 1.04421e+06 217532 900756
111 3 O -1.33563 87.1462 0.419617 -1.2 -9.1616 -3.33541e+06 -5.25246e+06 -2.16945e+06 -143132 98110.7 -586175
112 3 O -1.4719 87.392 2.91097 -1.2 -9.30471 -3.76296e+06 -5.19475e+06 -2.05742e+06 -1.06314e+06 -284171 -759107
113 1 Mg -2.55693 90.5989 0.068832 1.2 -7.76509 -755334 5.46801e+06 -2.17129e+06 -1.4594e+06 -1.70694e+06 -720842
114 1 Mg 2.29028 93.6439 1.76869 1.2 -8.98027 3.50572e+06 1.54532e+06 357252 1.4047e+06 -208494 208778
115 2 Si -0.43994 91.6495 1.55568 2.4 -33.879 5.67091e+06 1.51214e+07 2.33448e+06 428329 1.09187e+06 1.28753e+06
116 3 O 1.11715 91.6332 1.58107 -1.2 -9.08933 -2.78272e+06 -6.80769e+06 -2.02217e+06 234737 231798 463053
117 3 O -1.31145 95.3686 1.61129 -1.2 -7.9863 -3.35553e+06 -5.49241e+06 -2.55469e+06 -417534 -697201 90661.2
118 3 O -1.03444 92.3314 0.289417 -1.2 -8.44192 -4.32532e+06 -6.38844e+06 -2.05138e+06 180172 106943 836639
119 1 Mg -2.20966 101.101 3.31424 1.2 -8.38068 944800 5.14109e+06 -1.13002e+06 -703863 849385 1.20001e+06
120 3 O -1.04897 92.4204 2.77853 -1.2 -9.02989 -4.22573e+06 -3.41304e+06 -2.53365e+06 -43275.8 278777 -422642
121 1 Mg -2.39223 98.1051 4.66954 1.2 -8.79494 2.69523e+06 610392 2.03891e+06 1.28679e+06 -365342 -535634
122 2 Si 0.350999 99.9528 4.73626 2.4 -34.1692 5.31394e+06 1.12741e+07 7.37196e+06 861256 -2.22253e+06 -910315
123 3 O -1.2028 99.9699 4.77366 -1.2 -9.11788 -3.38172e+06 -4.62356e+06 -4.04828e+06 -568381 -1.1723e+06 402322
124 3 O 1.3323 96.2989 4.57744 -1.2 -8.56336 -4.04763e+06 -6.66344e+06 -3.79395e+06 -143200 586089 -500205
125 3 O 1.11861 99.2923 3.4603 -1.2 -8.32418 -4.37354e+06 -4.32421e+06 -1.56711e+06 335590 -849753 855295
126 3 O 0.926674 99.2868 5.98201 -1.2 -8.87635 -5.06555e+06 -4.60242e+06 -4.84797e+06 297874 237550 1.56235e+06
127 1 Mg 0.0345958 95.8259 3.00368 1.2 -8.38196 328341 3.85407e+06 -821828 1.01781e+06 -1.66552e+06 1.62802e+06
128 1 Mg -0.149496 92.9096 4.65457 1.2 -8.34617 1.84874e+06 1.4399e+06 967542 -1.11606e+06 929049 354841
129 2 Si 1.95141 94.8399 4.70245 2.4 -34.4787 6.4393e+06 9.23442e+06 7.56952e+06 -43904.9 -905432 -1.02277e+06
130 3 O -1.25551 94.9253 4.64454 -1.2 -8.8883 -4.12521e+06 -3.67038e+06 -3.01142e+06 681297 -456399 126492
131 3 O 1.03219 91.2113 4.53166 -1.2 -9.44917 -1.46152e+06 -5.57932e+06 -2.44397e+06 696640 -263135 480075
132 3 O 1.29949 94.1853 3.46282 -1.2 -8.6177 -4.72827e+06 -5.9138e+06 -2.57217e+06 -406317 -487666 -2.44556e+06
133 1 Mg 0.107602 95.8775 0.0515413 1.2 -8.25342 764910 4.88482e+06 -2.2525e+06 1.38465e+06 1.85294e+06 -1.98378e+06
134 3 O 1.31397 94.2785 6.08211 -1.2 -8.48761 -3.0273e+06 -4.62298e+06 -1.65828e+06 -134276 -816671 304645
135 1 Mg 0.170622 98.6187 1.73188 1.2 -8.91874 2.83329e+06 1.12871e+06 2.2989e+06 -135923 -564420 -368105
136 2 Si -2.03688 96.9377 1.69209 2.4 -34.8802 2.70728e+06 1.29125e+07 5.21748e+06 -1.12236e+06 -637824 -255757
137 3 O 1.26687 96.7291 1.61612 -1.2 -8.97668 -8.274e+06 -5.00412e+06 -3.4056e+06 114836 117855 535580
138 3 O -0.901431 100.373 1.80528 -1.2 -8.6449 -3.3213e+06 -2.06204e+06 -904438 1.53853e+06 -754247 156683
139 3 O -1.29181 97.5497 0.458561 -1.2 -8.22327 -3.93499e+06 -6.1005e+06 -3.63528e+06 -483992 -650890 1.80532e+06
140 3 O -1.36164 97.5281 2.91127 -1.2 -8.41913 -3.38049e+06 -5.81638e+06 -4.81812e+06 -384331 -390983 -883347
141 1 Mg -1.95295 100.837 0.172777 1.2 -8.0955 -250969 5.00468e+06 -778475 -1.2609e+06 -1.87797e+06 -2.94601e+06
142 1 Mg 6.96719 103.77 1.73408 1.2 -8.85988 2.237e+06 494454 3.04853e+06 287072 -56302.2 -833473
143 2 Si -0.143788 101.97 1.6564 2.4 -33.5699 6.06145e+06 1.35296e+07 8.7929e+06 -1.62476e+06 356472 -2.66996e+06
144 3 O 1.30897 101.97 1.90521 -1.2 -9.02776 -5.33537e+06 -4.80154e+06 -4.02735e+06 -336600 807180 111606
145 3 O 3.37871 105.563 1.55248 -1.2 -8.46547 -1.84009e+06 -5.55379e+06 -1.43517e+06 -828863 -565328 451946
146 3 O -0.865286 102.556 0.191529 -1.2 -8.48882 -3.20386e+06 -1.55961e+06 262290 -693931 1.68641e+06 -956032
147 1 Mg 2.33822 111.257 3.03615 1.2 -7.75913 -1.53335e+06 5.10257e+06 -2.56413e+06 -978384 1.65078e+06 2.57175e+06
148 3 O -0.952068 102.77 2.80406 -1.2 -8.46721 -5.51139e+06 -3.35449e+06 -426711 -100204 -1.1978e+06 552186
149 1 Mg 2.47785 108.625 4.78668 1.2 -8.36912 2.15699e+06 456328 2.77095e+06 1.50587e+06 -544585 213751
150 2 Si 5.13793 110.354 4.60101 2.4 -33.154 2.75837e+06 1.3325e+07 5.74583e+06 -345263 -1.00215e+06 1.43954e+06
151 3 O 3.59087 110.419 4.57007 -1.2 -9.5775 -2.28182e+06 -5.52188e+06 -3.5312e+06 -475645 -942235 -174651
152 3 O 6.04307 106.702 4.81894 -1.2 -8.98757 -1.38486e+06 -1.31828e+06 -3.36486e+06 -1.11759e+06 785846 1.28846e+06
153 3 O 5.84735 109.579 3.34619 -1.2 -8.89692 -3.46176e+06 -3.78328e+06 -1.34223e+06 -371361 -308768 301209
154 3 O 5.69443 109.728 5.87807 -1.2 -9.24624 -3.29714e+06 -5.23255e+06 -2.74846e+06 1.16176e+06 -805034 1.1907e+06
155 1 Mg 4.82639 105.949 3.19655 1.2 -7.87925 -9997.71 4.82663e+06 -38065.3 1.69651e+06 -1.33253e+06 1.60301e+06
156 1 Mg -0.026506 103.325 4.77387 1.2 -8.5436 1.37803e+06 86037.2 3.16359e+06 -1.52018e+06 286151 1.00672e+06
157 2 Si 6.69537 105.124 4.86528 2.4 -32.9017 6.87267e+06 1.16992e+07 8.74972e+06 -1.28562e+06 -2.16527e+06 38824.6
158 3 O 3.57752 105.156 4.77226 -1.2 -9.47816 415309 -3.85217e+06 -3.88275e+06 -168058 -1.6896e+06 -58835.7
159 3 O 0.920337 101.473 4.61967 -1.2 -8.75222 -2.08629e+06 -4.57907e+06 -3.78089e+06 465189 925078 -532876
160 3 O 6.11521 104.406 3.59132 -1.2 -9.24577 -4.85473e+06 -4.0357e+06 -1.25618e+06 -59344.7 331668 -734507
161 1 Mg 4.95051 106.21 0.0821406 1.2 -8.21867 -588896 4.62622e+06 -1.14313e+06 594810 612254 -1.61998e+06
162 3 O 6.01892 104.507 6.17896 -1.2 -8.88367 -3.18654e+06 -3.16419e+06 -2.61853e+06 456556 -1.09334e+06 -417093
163 1 Mg 4.83812 108.861 1.67662 1.2 -8.89697 2.0412e+06 180920 2.37057e+06 -717130 -65432.3 -689841
164 2 Si 2.76982 107.067 1.74577 2.4 -34.2749 7.12519e+06 1.18862e+07 6.15167e+06 -988180 -34034.2 1.19976e+06
165 3 O 5.92632 107.055 1.7192 -1.2 -9.16353 -2.79355e+06 -4.05401e+06 -2.3917e+06 514102 584586 -833274
166 3 O 3.70277 110.605 1.70192 -1.2 -8.92066 -2.54212e+06 -4.01854e+06 -3.67094e+06 1.77191e+06 163170 -524020
167 3 O 3.42682 107.788 0.537467 -1.2 -8.62905 -3.7811e+06 -5.99879e+06 -3.37952e+06 -317101 -776723 1.28831e+06
168 3 O 3.47946 107.654 3.04292 -1.2 -8.61959 -3.55396e+06 -2.65235e+06 -2.10739e+06 114240 535828 390014
169 1 Mg 2.43649 111.189 0.257843 1.2 -7.89166 -1.30555e+06 4.72517e+06 -1.96027e+06 -1.0501e+06 -1.49408e+06 -1.64401e+06
170 1 Mg 6.95571 114.114 1.70195 1.2 -8.28617 2.10785e+06 1.98787e+06 1.33785e+06 479287 -169778 -47340.4
171 2 Si 4.43548 112.159 1.60509 2.4 -32.9692 4.49282e+06 1.40106e+07 5.95192e+06 34829.2 -930975 232852
172 3 O 5.96858 112.1 1.63219 -1.2 -9.69827 -3.06539e+06 -5.71232e+06 -4.55804e+06 136030 -601742 -65910
173 3 O 3.35388 115.915 1.61895 -1.2 -9.24035 -3.4383e+06 -3.89074e+06 -3.33998e+06 -837697 -318406 116290
174 3 O 3.77376 112.804 0.335557 -1.2 -9.11922 -4.22061e+06 -4.44966e+06 -3.27404e+06 24784.4 1.36263e+06 -729305
175 1 Mg 2.36872 121.724 3.30015 1.2 -7.75123 -1.34406e+06 4.24863e+06 -1.22035e+06 57116.2 986732 803256
176 3 O 3.68926 112.897 2.80564 -1.2 -9.10802 -3.1331e+06 -4.41077e+06 -4.03168e+06 -987169 -1.35647e+06 -538965
177 1 Mg 2.61508 118.911 4.53799 1.2 -8.29616 1.3952e+06 -181653 630167 -29930.1 -208703 429368
178 2 Si 4.94379 120.652 4.64795 2.4 -32.9056 4.91517e+06 1.24838e+07 9.88041e+06 -1.36437e+06 -841523 -728941
179 3 O 3.41737 120.723 4.60525 -1.2 -9.80369 -3.20321e+06 -4.68189e+06 -4.97965e+06 -1.40054e+06 -293934 1.28845e+06
180 3 O 5.91409 116.943 4.54147 -1.2 -8.59973 -2.03285e+06 -6.68653e+06 -2.87059e+06 -1.3137e+06 -585605 1.56738e+06
181 3 O 5.70714 119.805 3.42177 -1.2 -8.89138 -1.52023e+06 -3.61067e+06 -253281 -634772 -1.71888e+06 1.64217e+06
182 3 O 5.64004 120.274 6.02645 -1.2 -8.89377 -3.44712e+06 -3.35649e+06 -2.49559e+06 680548 893603 657778
183 1 Mg 4.60006 116.426 3.12091 1.2 -8.04954 -1.60007e+06 3.76833e+06 -1.64245e+06 1.45645e+06 -2.01244e+06 1.28694e+06
184 1 Mg 4.58796 113.629 4.39623 1.2 -8.74883 1.50778e+06 1.09602e+06 380043 -1.31447e+06 224942 164798
185 2 Si 6.69537 115.522 4.57095 2.4 -33.9273 6.2243e+06 1.20258e+07 6.29514e+06 -409711 -477600 -1.14551e+06
186 3 O 3.4481 115.554 4.50112 -1.2 -9.25825 -5.3245e+06 -4.76253e+06 -3.11061e+06 -88941.1 289261 1.29704e+06
187 3 O 5.7428 111.85 4.55927 -1.2 -9.19574 -3.0217e+06 -5.53149e+06 -1.77441e+06 -17852.2 602712 67143.8
188 3 O 5.94427 114.714 3.40025 -1.2 -8.96914 -3.4459e+06 -4.80999e+06 -2.92861e+06 102041 1.02212e+06 -137310
189 1 Mg 4.7813 116.39 0.203046 1.2 -7.8197 -1.28035e+06 4.09308e+06 -1.17029e+06 1.20903e+06 1.56497e+06 -2.99532e+06
190 3 O 5.9633 114.944 5.92666 -1.2 -8.2971 -3.23853e+06 -5.21569e+06 -2.49133e+06 -187289 -1.87111e+06 696744
191 1 Mg 4.79631 119.314 1.65914 1.2 -8.30148 1.70045e+06 1.13216e+06 2.25393e+06 -941821 -189236 -741020
192 2 Si 2.75581 117.442 1.55124 2.4 -32.8487 7.69011e+06 1.0931e+07 9.16441e+06 301348 -410804 -1.73898e+06
193 3 O 5.90822 117.288 1.54288 -1.2 -9.3189 -148324 -4.12253e+06 -4.26973e+06 1.22651e+06 -781844 515659
194 3 O 3.87799 121.137 1.71824 -1.2 -9.20392 -3.23022e+06 -5.87316e+06 -2.0471e+06 447437 -376767 1.32986e+06
195 3 O 3.52315 118.072 0.253504 -1.2 -9.21576 -3.2443e+06 -2.98234e+06 181819 1.17873e+06 -1.32405e+06 398456
196 3 O 3.43002 118.07 2.90353 -1.2 -9.23931 -4.50673e+06 -4.07398e+06 -455081 632349 1.14318e+06 360413
197 1 Mg 2.47142 121.683 0.249352 1.2 -8.04016 -357236 4.09316e+06 536363 -722441 -1.04541e+06 -1.94048e+06
198 1 Mg 7.06164 124.477 1.52418 1.2 -8.49922 2.11121e+06 912082 1.8507e+06 250903 -573789 -179179
199 2 Si 4.48705 122.602 1.70367 2.4 -33.8498 5.40369e+06 1.03519e+07 7.9327e+06 -634867 -81897.3 -1.20624e+06
200 3 O 6.02607 122.555 1.69359 -1.2 -9.28567 -3.64566e+06 -4.1119e+06 -4.55382e+06 -747821 -448290 350663
201 3 O 3.18928 126.306 1.50507 -1.2 -9.15632 -3.09611e+06 -7.90785e+06 -2.97013e+06 -890177 -668576 1445.27
202 3 O 3.83768 123.23 0.364053 -1.2 -8.73921 -3.72554e+06 -4.39784e+06 -3.98668e+06 -852079 1.35187e+06 541224
203 1 Mg 2.18105 131.813 2.94315 1.2 -8.10038 -602672 3.6634e+06 -90309.8 -605190 1.18326e+06 1.65076e+06
204 3 O 3.69345 123.367 2.8506 -1.2 -8.74622 -4.21943e+06 -3.51048e+06 -3.28576e+06 69668.8 -1.48165e+06 309235
205 1 Mg 2.36543 129.165 4.49089 1.2 -8.26207 819999 -336923 3.31013e+06 594559 161882 -145932
206 2 Si 4.93937 130.732 4.50581 2.4 -32.7856 5.61607e+06 1.22495e+07 9.01487e+06 794493 -848845 -1.52171e+06
207 3 O 3.38465 130.939 4.57995 -1.2 -9.71522 -1.46144e+06 -3.1914e+06 -3.39709e+06 138232 -1.50344e+06 1.25477e+06
208 3 O 5.96584 127.506 4.47947 -1.2 -8.62356 -2.00751e+06 -3.8941e+06 -3.39733e+06 -1.30944e+06 391200 1.03957e+06
209 3 O 5.70966 130.128 3.282 -1.2 -9.35586 -2.12824e+06 -6.11336e+06 -2.84149e+06 -376766 -1.00124e+06 -172798
210 3 O 5.49785 130.147 5.87038 -1.2 -8.95781 -4.01677e+06 -4.32313e+06 -3.09041e+06 131430 2.10924e+06 313117
211 1 Mg 4.61397 126.751 3.04288 1.2 -7.87274 -881407 4.28144e+06 -502738 953333 -977526 1.26021e+06
212 1 Mg 4.70008 124.099 4.57696 1.2 -8.30038 1.05508e+06 751672 2.42011e+06 -930842 56933.3 53011
213 2 Si 6.74046 125.939 4.60393 2.4 -32.8717 2.00495e+06 1.25022e+07 6.74176e+06 -1.42246e+06 675977 -11126.6
214 3 O 3.45788 126.067 4.53351 -1.2 -9.82994 -5.52832e+06 -5.40158e+06 -3.35399e+06 -372751 -53411.7 854965
215 3 O 5.58675 122.249 4.39677 -1.2 -9.00604 -2.61086e+06 -2.33692e+06 -3.54477e+06 1.9507e+06 757970 1.58733e+06
216 3 O 5.98829 125.176 3.37407 -1.2 -9.0485 -2.33797e+06 -4.16365e+06 -2.00134e+06 54525.7 1.06095e+06 99448.9
217 1 Mg 4.64216 126.725 0.0199591 1.2 -8.05678 228339 5.34809e+06 -607650 699631 1.15165e+06 -2.11256e+06
218 3 O 6.00037 125.412 5.84271 -1.2 -9.36469 -2.74046e+06 -5.7224e+06 -5.15328e+06 61999.6 -417919 880075
219 1 Mg 4.77133 129.54 1.55465 1.2 -8.67617 2.44163e+06 967495 2.30675e+06 -465581 -13329.3 -904707
220 2 Si 2.58282 127.741 1.54666 2.4 -33.967 5.5104e+06 9.81231e+06 7.97148e+06 504665 -377324 -2.16081e+06
221 3 O 5.79796 127.803 1.46492 -1.2 -9.19491 -3.76807e+06 -4.32793e+06 -3.98046e+06 1.11882e+06 170377 482296
222 3 O 3.68119 131.506 1.54577 -1.2 -8.91407 -3.16969e+06 -3.59418e+06 -2.28898e+06 861241 136436 -715995
223 3 O 3.32191 128.47 0.224626 -1.2 -8.2875 -3.7802e+06 -3.10887e+06 -747663 540940 -1.2429e+06 868871
224 3 O 3.31243 128.358 2.78904 -1.2 -8.89423 -4.25659e+06 -4.3284e+06 -3.87888e+06 454789 647527 56005.5
225 1 Mg 2.39922 132.02 0.0266654 1.2 -8.45624 153203 3.99316e+06 -466391 -1.13822e+06 -1.57267e+06 -1.79176e+06
226 1 Mg 7.08866 134.928 1.50312 1.2 -8.82263 3.07285e+06 350881 2.87445e+06 456337 185002 -111561
227 2 Si 4.41017 132.963 1.45271 2.4 -34.2281 7.2088e+06 1.06746e+07 8.6329e+06 -128302 -1.31184e+06 1.65337e+06
228 3 O 5.96535 132.831 1.47706 -1.2 -9.07785 -3.21555e+06 -3.34584e+06 -4.09951e+06 323886 -502725 -878163
229 3 O 3.31566 136.675 1.45754 -1.2 -8.89228 -3.36237e+06 -3.768e+06 -1.55637e+06 -1.69757e+06 -239730 943606
230 3 O 3.81727 133.609 0.152417 -1.2 -8.62066 -4.09515e+06 -3.78155e+06 -4.63543e+06 -135264 1.06168e+06 -258490
231 1 Mg 2.32206 142.36 2.80158 1.2 -8.11637 -94748.7 4.68783e+06 -1.16992e+06 -825003 1.51093e+06 1.84524e+06
232 3 O 3.74437 133.827 2.69633 -1.2 -8.37674 -3.18651e+06 -2.46138e+06 -757522 -560211 -505668 374449
233 1 Mg 2.35376 139.735 4.43858 1.2 -8.58598 2.10906e+06 -64290.5 2.36806e+06 1.23144e+06 34776.2 -582270
234 2 Si 5.04531 141.45 4.41302 2.4 -33.8702 5.01532e+06 1.21594e+07 7.61121e+06 733478 613501 -1.08357e+06
235 3 O 3.47378 141.525 4.38328 -1.2 -9.33387 -2.59349e+06 -5.40206e+06 -2.46086e+06 -40422.5 538849 -141703
236 3 O 5.89841 137.915 4.48832 -1.2 -8.77206 -1.85468e+06 -3.73026e+06 -2.41952e+06 -2.63583e+06 108084 740526
237 3 O 5.59338 140.808 3.06561 -1.2 -8.72211 -3.91991e+06 -6.58566e+06 -810897 -260579 101705 -1.44477e+06
238 3 O 5.67843 140.756 5.75671 -1.2 -8.90188 -2.80542e+06 -3.49831e+06 387860 474649 512316 119223
239 1 Mg 4.69882 137.279 2.95622 1.2 -8.12651 -1.55447e+06 5.51258e+06 -4953 644421 -1.48849e+06 1.90579e+06
240 1 Mg 4.59429 134.455 4.47068 1.2 -8.60821 3.21194e+06 1.92089e+06 2.48431e+06 -787053 -123780 630796
241 2 Si 6.78169 136.415 4.46434 2.4 -33.4357 7.34678e+06 1.26286e+07 6.63808e+06 -882667 -238699 1.13622e+06
242 3 O 3.53882 136.375 4.49235 -1.2 -9.29267 -4.18733e+06 -4.0526e+06 -3.61689e+06 -1.07728e+06 -812235 -83925.9
243 3 O 5.76896 132.389 4.42769 -1.2 -8.56599 -1.04825e+06 -211958 -1.63359e+06 1.73911e+06 393207 265049
244 3 O 6.13404 135.646 3.2182 -1.2 -8.60728 -4.10969e+06 -1.97806e+06 -2.75792e+06 665205 850573 134619
245 1 Mg 4.71142 137.35 -0.187391 1.2 -8.08492 180758 4.62804e+06 -467111 642291 692958 -1.75736e+06
246 3 O 5.97419 135.741 5.72365 -1.2 -8.87901 -3.93806e+06 -2.85841e+06 -2.68593e+06 1.70107e+06 -1.54281e+06 340995
247 1 Mg 4.75984 140.259 1.34604 1.2 -8.68284 2.8606e+06 1.22138e+06 1.13848e+06 -602709 -275664 -209577
248 2 Si 2.639 138.177 1.4983 2.4 -33.6325 9.06407e+06 1.32473e+07 5.89411e+06 19297.9 916574 1.89959e+06
249 3 O 5.76015 138.135 1.43422 -1.2 -9.1348 -494645 -4.41166e+06 -2.09567e+06 -388515 773118 -201660
250 3 O 3.59776 141.979 1.26744 -1.2 -9.01615 -2.96715e+06 -6.302e+06 -2.69217e+06 1.21936e+06 46492.7 -536668
251 3 O 3.26679 138.931 0.296391 -1.2 -8.8753 -4.04367e+06 -3.8812e+06 -2.83555e+06 291995 -1.00497e+06 443360
252 3 O 3.2398 138.983 2.84394 -1.2 -8.60962 -3.45347e+06 -1.12946e+06 -1.44727e+06 521889 1.06748e+06 875536
253 1 Mg 2.32262 142.558 -0.193739 1.2 -7.65511 192097 5.10729e+06 -1.47739e+06 -701981 -1.3996e+06 -1.23122e+06
254 1 Mg 7.06345 145.14 1.27033 1.2 -8.76306 2.2481e+06 1.36722e+06 1.84624e+06 1.41044e+06 -456374 -229389
255 2 Si 4.38508 143.413 1.34631 2.4 -33.7425 5.07368e+06 1.25133e+07 5.75366e+06 816315 -2435.55 -520435
256 3 O 5.94195 143.32 1.3413 -1.2 -9.38994 -3.19753e+06 -5.42119e+06 -3.00282e+06 863490 -498357 -8914.21
257 3 O 3.56004 147.194 1.27303 -1.2 -8.05632 -3.93694e+06 -3.23297e+06 -3.46835e+06 -1.08432e+06 -80806.8 684984
258 3 O 3.78982 144.172 0.0949138 -1.2 -8.7279 -3.45625e+06 -5.45903e+06 -2.6348e+06 847841 719848 689203
259 1 Mg 1.72093 152.252 1.47529 1.2 -7.9032 -873993 -665666 1.72908e+06 697796 -856662 1.07078e+06
260 3 O 3.7341 144.091 2.5929 -1.2 -8.82341 -4.34472e+06 -4.72616e+06 -3.53462e+06 -29985.1 -435274 -314972
261 1 Mg 1.93395 150.396 4.65585 1.2 -8.76164 1.31966e+06 4.66912e+06 558230 -269555 938400 -290370
262 2 Si 3.99843 151.01 2.70568 2.4 -34.3155 9.32349e+06 7.44884e+06 8.74947e+06 -1.87208e+06 -587872 -169142
263 3 O 2.58978 151.74 3.03665 -1.2 -8.12962 -3.93547e+06 -1.95827e+06 -5.10478e+06 86397.5 -17038.7 -1.20124e+06
264 3 O 6.09376 148.182 4.20468 -1.2 -8.1579 -3.83684e+06 -1.6703e+06 -1.75904e+06 -1.13392e+06 -537307 -119044
265 3 O 4.63075 151.579 1.38062 -1.2 -8.64061 -5.3988e+06 -2.54248e+06 -3.20261e+06 411567 212170 -7505.08
266 3 O 4.81956 150.995 4.04439 -1.2 -8.417 -5.75958e+06 -4.28625e+06 -542246 -1.13109e+06 188051 150690
267 1 Mg 4.86499 147.683 2.71408 1.2 -8.65101 626313 3.02912e+06 403624 1.44827e+06 -2.41624e+06 1.13467e+06
268 1 Mg 4.55863 144.828 4.21164 1.2 -8.61278 1.46826e+06 2.37317e+06 2.25531e+06 -899933 -408292 -873362
269 2 Si 6.78177 146.624 4.27139 2.4 -34.4062 8.59273e+06 1.16114e+07 7.7688e+06 559499 -193541 -178117
270 3 O 3.59699 146.758 4.29214 -1.2 -8.86259 -2.59116e+06 -3.02297e+06 -2.23444e+06 781292 -13181.9 111012
271 3 O 5.71206 142.865 4.28959 -1.2 -8.67195 -2.91223e+06 -6.0336e+06 -1.94657e+06 -83916.4 219546 -1.26439e+06
272 3 O 6.1169 145.946 2.98095 -1.2 -8.62757 -3.25988e+06 -3.43055e+06 -1.06351e+06 179224 487910 -116616