ITEM: TIMESTEP
400
ITEM: NUMBER OF ATOMS
5600
ITEM: BOX BOUNDS xy xz yz pp pp pp
0.0000000000000000e+00 7.1234999999999999e+00 0.0000000000000000e+00
0.0000000000000000e+00 2.0198500000000001e+02 2.3744999999999998e+00
0.0000000000000000e+00 1.1958400000000000e+02 0.0000000000000000e+00
ITEM: ATOMS id type element xu yu zu q c_pe c_s[1] c_s[2] c_s[3] c_s[4] c_s[5] c_s[6]
1 1 Mg -1.63618 49.94 -0.926483 1.2 -7.87987 -458822 -1.68919e+06 989800 675504 538902 -88924.6
2 1 Mg 2.89684 51.8549 2.04864 1.2 -8.26723 -1.04832e+06 5.85137e+06 -328470 -214083 -715780 -547761
3 2 Si 0.851896 51.5464 0.33866 2.4 -34.1039 7.41336e+06 9.07828e+06 3.94721e+06 -835287 455555 1.34044e+06
4 3 O 2.11062 50.6554 0.510598 -1.2 -8.16337 -7.97074e+06 -2.62774e+06 -5.08392e+06 414448 -958662 1.23667e+06
5 3 O -1.29147 54.0603 1.54879 -1.2 -8.58976 -2.43833e+06 -3.24795e+06 -2.25244e+06 -2.1038e+06 187742 338403
6 3 O 0.0635965 50.8484 -0.848385 -1.2 -8.47561 -6.30919e+06 -1.98864e+06 -7.53833e+06 1.37691e+06 600045 660085
7 1 Mg -2.24855 59.8436 3.26051 1.2 -8.27765 -618061 3.00158e+06 -157972 -796286 1.09501e+06 1.96472e+06
8 3 O -0.015584 51.4283 1.56082 -1.2 -8.51673 -6.11124e+06 -6.10219e+06 -5.54309e+06 -431819 777727 -2.14525e+06
9 1 Mg -2.23953 57.0357 4.41386 1.2 -8.4128 1.45363e+06 75820.6 2.77221e+06 1.18471e+06 229604 -219507
10 2 Si 0.438105 58.8126 4.69329 2.4 -33.9218 6.27889e+06 9.93371e+06 8.22942e+06 110773 343836 -170962
11 3 O -1.14322 58.8583 4.67058 -1.2 -9.20172 -2.21897e+06 -4.5799e+06 -4.26981e+06 -566887 112027 884048
12 3 O 1.42241 55.2595 4.53956 -1.2 -9.21028 -3.9597e+06 -4.32376e+06 -3.54328e+06 -1.55736e+06 -129795 34823.7
13 3 O 1.08464 58.1006 3.44163 -1.2 -8.98268 -3.66944e+06 -4.49565e+06 -3.19791e+06 252155 -674360 -322180
14 3 O 1.08476 58.2533 6.02145 -1.2 -8.63592 -4.21199e+06 -4.62316e+06 -3.19837e+06 491455 794205 927327
15 1 Mg 0.0616337 54.745 3.08334 1.2 -7.88153 -1.88901e+06 4.64297e+06 -622903 335365 -788517 2.07658e+06
16 1 Mg 0.735238 50.9407 3.2789 1.2 -7.95988 2.46209e+06 2.40611e+06 -1.88921e+06 -669689 -79833 1.03481e+06
17 2 Si 2.18179 53.8055 4.53549 2.4 -32.9399 7.63104e+06 9.6927e+06 7.91981e+06 300755 1.2165e+06 2.22259e+06
18 3 O -1.06524 54.011 4.61559 -1.2 -9.3674 -3.71301e+06 -4.8299e+06 -3.22841e+06 1.03862e+06 -168710 -618220
19 3 O 2.64939 50.2981 3.40038 -1.2 -6.96037 -17160.2 685810 -2.59392e+06 -305038 -195482 -1.41776e+06
20 3 O 1.54366 53.0342 3.24828 -1.2 -9.00202 -2.32215e+06 -1.99381e+06 -2.73905e+06 -523414 1.44809e+06 490830
21 1 Mg 0.00201657 54.7225 0.133939 1.2 -7.88222 -1.86398e+06 3.92686e+06 5017.53 1.37687e+06 1.77768e+06 -1.49391e+06
22 3 O 1.43789 53.0218 5.78517 -1.2 -10.1527 -4.94436e+06 -5.19988e+06 -5.14361e+06 -258826 -2.13172e+06 -1.27699e+06
23 1 Mg 0.0827139 57.4797 1.711 1.2 -8.68322 1.60702e+06 398582 2.33268e+06 -631220 345254 423532
24 2 Si -2.04475 55.6332 1.59082 2.4 -33.1625 5.13385e+06 1.39718e+07 4.58014e+06 -789960 -861483 -3931.83
25 3 O 1.17101 55.6083 1.67394 -1.2 -9.64687 -3.43125e+06 -5.30247e+06 -3.46974e+06 -74948.5 455780 303512
26 3 O -0.908085 59.3003 1.71378 -1.2 -8.39285 -3.99015e+06 -6.18064e+06 -3.78466e+06 2.00322e+06 -132083 -682698
27 3 O -1.3669 56.236 0.30602 -1.2 -8.83564 -2.67226e+06 -4.99718e+06 -4.30536e+06 517872 -318556 260506
28 3 O -1.28188 56.3604 2.73448 -1.2 -9.19601 -4.22278e+06 -4.16812e+06 -5.33903e+06 265229 713077 -523569
29 1 Mg -2.28283 59.7154 0.24632 1.2 -8.36658 -452149 3.73342e+06 -363851 -476706 -783084 -1.56671e+06
30 1 Mg 2.32339 62.6186 1.56275 1.2 -8.43536 1.60545e+06 2.47143e+06 1.87044e+06 327596 112375 -40316.1
31 2 Si -0.160193 60.7577 1.67798 2.4 -33.7888 7.07151e+06 1.06048e+07 8.45887e+06 -595922 66656.9 -233064
32 3 O 1.33953 60.576 1.71553 -1.2 -9.33203 -5.51835e+06 -3.94526e+06 -3.68173e+06 -1.05447e+06 242808 -571964
33 3 O -1.34809 64.5213 1.69038 -1.2 -9.06544 -2.90268e+06 -3.73834e+06 -2.44498e+06 -871132 449393 566129
34 3 O -0.999474 61.3847 0.384686 -1.2 -8.78763 -1.96098e+06 -4.1635e+06 -2.16371e+06 -1.16972e+06 2.12669e+06 980071
35 1 Mg -2.34683 70.3188 3.18151 1.2 -8.08635 -955955 4.39795e+06 -802281 -1.04641e+06 1.7173e+06 1.95346e+06
36 3 O -0.959307 61.3633 2.94585 -1.2 -8.65382 -3.02247e+06 -5.70281e+06 -2.94289e+06 -456371 -1.9045e+06 -1.59266e+06
37 1 Mg -2.31467 67.3064 4.51935 1.2 -8.49609 1.37504e+06 1.07641e+06 3.4009e+06 634469 249427 -763639
38 2 Si 0.303894 69.0865 4.46374 2.4 -34.0942 6.66989e+06 1.02524e+07 8.33606e+06 587201 740914 -97914.1
39 3 O -1.22124 69.2254 4.53707 -1.2 -9.25841 -4.32267e+06 -3.85674e+06 -3.60568e+06 -533130 -83184.5 -276399
40 3 O 1.53969 65.4742 4.46477 -1.2 -9.17383 -1.4158e+06 -3.57503e+06 -2.77697e+06 -1.45083e+06 -452053 48819.3
41 3 O 1.00181 68.582 3.1827 -1.2 -8.53357 -4.31279e+06 -4.14927e+06 -4.56143e+06 -353282 -906781 -1.4704e+06
42 3 O 1.0658 68.3398 5.71356 -1.2 -8.57119 -2.98534e+06 -3.85671e+06 -1.37581e+06 -433825 1.40759e+06 1.22906e+06
43 1 Mg 0.0933319 65.0112 3.15295 1.2 -7.79652 -250139 4.7754e+06 -866840 620966 -1.23895e+06 797544
44 1 Mg 0.0265451 62.076 4.57122 1.2 -8.64431 1.87353e+06 970729 1.93033e+06 -497591 -187818 -125654
45 2 Si 2.19318 63.8684 4.56005 2.4 -33.5668 6.09359e+06 1.10084e+07 7.65071e+06 -541230 710350 -184718
46 3 O -0.983887 63.9684 4.60343 -1.2 -9.4475 -2.11736e+06 -2.81626e+06 -3.81827e+06 785487 487897 535075
47 3 O 1.06753 60.2943 4.66094 -1.2 -8.77007 -3.85318e+06 -5.1948e+06 -4.01373e+06 890017 632762 40492.1
48 3 O 1.50039 63.2068 3.3067 -1.2 -8.99821 -3.10713e+06 -3.75885e+06 -2.7005e+06 208817 1.23167e+06 2814.23
49 1 Mg -0.0329755 64.9381 0.202131 1.2 -8.12259 -92573.5 4.21881e+06 -1.21291e+06 1.49347e+06 2.02084e+06 -1.63964e+06
50 3 O 1.54637 63.3295 5.83987 -1.2 -8.82648 -4.50438e+06 -3.49789e+06 -2.70817e+06 -560591 -319931 533871
51 1 Mg 0.0487952 67.8177 1.53955 1.2 -8.88467 2.27618e+06 657318 459355 -1.46022e+06 348223 970223
52 2 Si -2.00736 66.0267 1.59697 2.4 -33.7824 6.29422e+06 1.24644e+07 6.84412e+06 97982.9 1.00726e+06 9920.41
53 3 O 1.19796 65.928 1.60318 -1.2 -9.19208 -2.58729e+06 -4.74357e+06 -3.94377e+06 834560 592841 222497
54 3 O -1.006 69.6543 1.56296 -1.2 -8.76362 -3.17807e+06 -4.20013e+06 -2.26079e+06 596833 -420780 1.04654e+06
55 3 O -1.37033 66.6417 0.272919 -1.2 -8.80749 -4.65105e+06 -3.69863e+06 -2.03187e+06 76631.2 -731035 -609020
56 3 O -1.23793 66.8167 2.79334 -1.2 -8.85938 -3.17446e+06 -4.11045e+06 -1.67949e+06 -79526.2 1.33973e+06 52497.3
57 1 Mg -2.38796 70.3046 0.147403 1.2 -7.81798 -658256 4.51792e+06 -775780 -856833 -1.04559e+06 -2.21837e+06
58 1 Mg 2.22999 72.9359 1.44347 1.2 -8.40792 1.58985e+06 422573 2.03007e+06 1.26268e+06 -146917 -138544
59 2 Si -0.342184 71.1663 1.67428 2.4 -33.5014 4.26844e+06 1.33557e+07 5.04548e+06 410633 -250766 518634
60 3 O 1.20698 71.1456 1.64603 -1.2 -9.41764 -2.78508e+06 -6.31858e+06 -3.75348e+06 199721 -6418.65 236422
61 3 O -1.36768 74.7796 1.55783 -1.2 -8.58929 -3.26846e+06 -6.07205e+06 -3.20456e+06 -928983 876447 1.30388e+06
62 3 O -0.996667 71.902 0.493171 -1.2 -9.25675 -4.79743e+06 -5.9003e+06 -4.58328e+06 332576 593368 1.62101e+06
63 1 Mg -2.31133 80.4452 3.16377 1.2 -7.85512 314626 4.58997e+06 -115973 -780143 1.08762e+06 1.50717e+06
64 3 O -0.939469 71.8046 2.99585 -1.2 -8.91302 -4.41099e+06 -4.60031e+06 -3.24254e+06 70164.6 -666104 603826
65 1 Mg -2.34678 77.579 4.61011 1.2 -8.8546 2.39462e+06 940835 2.69733e+06 850198 99734.5 -162674
66 2 Si 0.347169 79.4108 4.60892 2.4 -34.0595 6.12729e+06 1.07626e+07 7.73991e+06 215094 -250310 105550
67 3 O -1.23916 79.4925 4.61268 -1.2 -9.23289 -2.40097e+06 -3.93805e+06 -3.46303e+06 -410805 -467063 114120
68 3 O 1.48278 75.7053 4.576 -1.2 -8.30052 -3.98834e+06 -4.66708e+06 -4.0363e+06 -1.82729e+06 -330874 1.23224e+06
69 3 O 1.02345 78.7147 3.36118 -1.2 -8.86121 -3.60794e+06 -3.07434e+06 -3.3286e+06 156108 -956727 -235805
70 3 O 0.967069 78.7012 5.88995 -1.2 -8.6017 -4.2564e+06 -4.36568e+06 -2.63761e+06 -24555.3 779476 563101
71 1 Mg 0.0161365 75.2719 3.19678 1.2 -8.36766 -5111.63 3.46795e+06 -344809 181448 -396149 1.29575e+06
72 1 Mg -0.0313407 72.4342 4.62505 1.2 -8.54391 1.38986e+06 1.89468e+06 1.24903e+06 -771235 -362854 -524479
73 2 Si 2.18033 74.1767 4.58644 2.4 -34.239 6.45524e+06 1.10571e+07 8.17987e+06 -321808 712002 86936.1
74 3 O -1.033 74.3455 4.63266 -1.2 -9.18853 -4.08745e+06 -4.28759e+06 -3.45263e+06 932915 719413 581472
75 3 O 1.04869 70.5759 4.61725 -1.2 -8.60624 -3.30102e+06 -5.26403e+06 -3.77838e+06 1.93171e+06 282144 52824.1
76 3 O 1.4649 73.5422 3.29532 -1.2 -8.68899 -2.84459e+06 -4.93098e+06 -927222 65805 1.03204e+06 -455564
77 1 Mg 0.0377391 75.0878 0.196032 1.2 -8.32937 69981.8 4.10303e+06 2377.05 590737 1.25589e+06 -1.56154e+06
78 3 O 1.50139 73.6711 5.89686 -1.2 -8.69107 -3.77229e+06 -5.29504e+06 -2.36078e+06 -31830.1 -634340 2.14367e+06
79 1 Mg 0.0777315 78.0553 1.66699 1.2 -8.89676 2.18576e+06 568186 2.4776e+06 -544117 12022.7 -7101.07
80 2 Si -2.08271 76.2187 1.66879 2.4 -34.6464 7.51331e+06 9.2659e+06 8.85396e+06 166627 -562164 -1.48002e+06
81 3 O 1.13367 76.0444 1.69879 -1.2 -9.03244 -4.81503e+06 -3.31696e+06 -4.14507e+06 575773 -39433.5 1.40419e+06
82 3 O -0.881285 79.8872 1.64563 -1.2 -9.09024 -3.00325e+06 -5.51931e+06 -2.87541e+06 462802 -307439 653965
83 3 O -1.37916 76.9585 0.428357 -1.2 -8.08875 -4.10607e+06 -4.16836e+06 -2.69139e+06 703333 -1.12837e+06 1.46169e+06
84 3 O -1.35049 76.8748 2.92733 -1.2 -8.47078 -3.55036e+06 -3.34702e+06 -4.46576e+06 22078.1 1.55528e+06 -66091.3
85 1 Mg -2.33535 80.2192 0.227925 1.2 -8.12799 572327 4.2103e+06 -82546.6 -881492 -1.14517e+06 -1.56619e+06
86 1 Mg 2.26968 83.2712 1.49474 1.2 -8.82866 3.82083e+06 685515 2.77418e+06 899823 -156290 550766
87 2 Si -0.304992 81.3723 1.61259 2.4 -34.2132 6.21111e+06 1.04123e+07 7.56594e+06 -533008 -412625 983330
88 3 O 1.30182 81.3409 1.60244 -1.2 -9.13555 -1.87918e+06 -2.98645e+06 -3.40324e+06 -414024 342639 -247527
89 3 O -1.30863 85.0969 1.59464 -1.2 -8.25137 -1.87275e+06 -4.90245e+06 -3.1467e+06 -907438 25148.7 1.36228e+06
90 3 O -0.942846 82.0556 0.394312 -1.2 -8.62759 -4.32926e+06 -3.62962e+06 -4.36935e+06 -4592.04 304379 292032
91 1 Mg -2.33648 90.705 3.21236 1.2 -8.01461 -684420 4.68281e+06 -1.04601e+06 -1.08881e+06 1.93469e+06 1.73606e+06
92 3 O -0.859916 82.117 2.91709 -1.2 -8.53059 -3.62363e+06 -2.79445e+06 -3.46883e+06 83471 -792864 164694
93 1 Mg -2.27034 87.9262 4.67742 1.2 -8.61751 2.14056e+06 464803 2.11449e+06 571920 -268774 513442
94 2 Si 0.386368 89.8227 4.71689 2.4 -33.7196 6.3672e+06 1.18034e+07 6.58121e+06 -366071 586853 -462053
95 3 O -1.18632 89.813 4.65966 -1.2 -9.29302 -2.20225e+06 -4.83597e+06 -3.39624e+06 -40648.2 236315 278962
96 3 O 1.44795 86.1864 4.53096 -1.2 -9.02915 -4.09164e+06 -6.04633e+06 -2.61372e+06 -564254 338804 -95912.5
97 3 O 1.03862 89.0813 3.46447 -1.2 -9.00568 -3.98247e+06 -3.89611e+06 -2.87664e+06 108984 -751771 -578079
98 3 O 1.1007 89.1156 6.02266 -1.2 -8.72058 -3.22398e+06 -4.34628e+06 -1.34844e+06 -647365 1.25447e+06 -86335
99 1 Mg 0.0144497 85.8162 3.10948 1.2 -8.18473 -973848 3.99882e+06 -458325 978693 -1.02279e+06 2.05572e+06
100 1 Mg -0.0565458 82.8725 4.51833 1.2 -8.92119 2.68689e+06 588494 2.87196e+06 -1.29616e+06 -574019 -1.15338e+06
101 2 Si 2.06688 84.7036 4.53872 2.4 -34.2446 6.05341e+06 1.00067e+07 6.9419e+06 311032 438795 -544212
102 3 O -1.13587 84.8117 4.52745 -1.2 -9.02255 -3.32865e+06 -4.29912e+06 -4.70799e+06 522140 20226.5 290045
103 3 O 0.995907 80.8658 4.69927 -1.2 -8.76257 -2.80242e+06 -5.22776e+06 -2.77522e+06 543494 -611089 659394
104 3 O 1.41542 83.9912 3.30951 -1.2 -8.40743 -4.62612e+06 -2.56846e+06 -3.87426e+06 -514271 -316744 -115340
105 1 Mg 0.11338 85.7123 0.00501888 1.2 -8.32979 725841 4.26803e+06 405545 1.05916e+06 292284 -1.50275e+06
106 3 O 1.406 83.9755 5.77093 -1.2 -8.63663 -5.08997e+06 -3.91677e+06 -5.05338e+06 365942 -793271 1.09712e+06
107 1 Mg 0.112105 88.5034 1.81095 1.2 -8.56389 2.30336e+06 1.62198e+06 944955 -595079 -264100 12771.8
108 2 Si -2.08532 86.543 1.6219 2.4 -34.1185 6.30362e+06 1.2196e+07 6.92228e+06 -1.04135e+06 -979932 181459
109 3 O 1.13226 86.524 1.57849 -1.2 -9.39425 -5.21259e+06 -4.42284e+06 -2.49606e+06 -832395 -237338 648506
110 3 O -1.00592 90.3367 1.74937 -1.2 -9.00448 -3.25378e+06 -5.01814e+06 -3.39429e+06 758252 804938 -707474
111 3 O -1.36237 87.1674 0.313654 -1.2 -8.54335 -2.75061e+06 -5.09844e+06 -2.2688e+06 588797 -1.63703e+06 794613
112 3 O -1.38747 87.2729 2.84697 -1.2 -8.82059 -3.19649e+06 -4.92643e+06 -3.38978e+06 709866 1.27757e+06 -490040
113 1 Mg -2.4282 90.7745 0.308152 1.2 -8.09496 -101157 4.47936e+06 -840472 -880929 -1.23559e+06 -1.8484e+06
114 1 Mg 2.33327 93.6258 1.58921 1.2 -8.81152 2.80336e+06 253405 2.84377e+06 996267 67110.1 -413890
115 2 Si -0.362722 91.8264 1.77402 2.4 -34.1089 6.44378e+06 1.10562e+07 7.78675e+06 350407 -500256 202516
116 3 O 1.21958 91.7478 1.71513 -1.2 -9.09074 -1.95228e+06 -4.39462e+06 -3.60036e+06 -185250 -526677 -846910
117 3 O -1.35246 95.3899 1.63379 -1.2 -8.4193 -4.02776e+06 -6.8891e+06 -3.51206e+06 -536258 -545257 -512782
118 3 O -0.953661 92.5672 0.505957 -1.2 -8.63665 -4.28799e+06 -3.52122e+06 -1.65145e+06 417855 246789 37970.2
119 1 Mg -2.31307 100.828 2.9997 1.2 -7.99073 -757452 4.15138e+06 -169235 -984683 1.70003e+06 1.76633e+06
120 3 O -1.0007 92.4355 3.08053 -1.2 -8.59655 -4.02983e+06 -4.2695e+06 -2.99066e+06 -569292 -490768 -693118
121 1 Mg -2.24032 98.2415 4.58419 1.2 -8.64204 2.22382e+06 1.37514e+06 1.85027e+06 1.13892e+06 -45485.4 831011
122 2 Si 0.402184 100.054 4.66487 2.4 -33.8005 5.87252e+06 1.14037e+07 7.23437e+06 94514.5 -480610 254183
123 3 O -1.16021 100.096 4.61893 -1.2 -9.36421 -2.51008e+06 -4.37846e+06 -2.7532e+06 -310407 148286 471238
124 3 O 1.40961 96.3184 4.50346 -1.2 -8.30254 -3.28291e+06 -6.47661e+06 -3.90151e+06 -1.56243e+06 -457742 531234
125 3 O 1.07621 99.2544 3.41355 -1.2 -8.96699 -2.85396e+06 -4.66987e+06 -1.61055e+06 -545700 -801722 -345338
126 3 O 1.0549 99.4652 5.96121 -1.2 -8.80239 -3.82307e+06 -3.82428e+06 -2.9967e+06 300891 868549 -26435.2
127 1 Mg 0.0222394 95.8871 3.06181 1.2 -8.6328 -826569 3.41495e+06 -697581 896847 -1.25404e+06 1.52553e+06
128 1 Mg 0.0209053 93.1132 4.67529 1.2 -9.06796 2.17001e+06 785887 1.97416e+06 -826239 -227947 -550573
129 2 Si 2.14495 94.8778 4.52088 2.4 -34.5876 7.30717e+06 1.03518e+07 8.42295e+06 -413792 506088 -208435
130 3 O -1.09802 94.9536 4.57715 -1.2 -9.01073 -5.93643e+06 -4.48887e+06 -4.13011e+06 824754 876258 125401
131 3 O 1.05431 91.249 4.73254 -1.2 -8.88107 -3.33231e+06 -5.92556e+06 -2.90725e+06 749274 58498.7 107315
132 3 O 1.30263 94.2401 3.26138 -1.2 -8.23845 -3.27667e+06 -5.35619e+06 -2.53903e+06 570437 1.51519e+06 -1.0013e+06
133 1 Mg -0.0529938 95.8507 -0.00790676 1.2 -8.21902 322247 3.86344e+06 -532986 792831 1.05155e+06 -2.04999e+06
134 3 O 1.39986 94.2676 5.81446 -1.2 -8.42303 -3.88858e+06 -4.45937e+06 -2.26547e+06 -60913.1 -1.46506e+06 1.2966e+06
135 1 Mg 0.212787 98.5871 1.64138 1.2 -8.59634 1.83203e+06 1.02939e+06 3.06131e+06 -412040 80161 -710184
136 2 Si -2.02542 96.8527 1.61473 2.4 -34.3496 5.79939e+06 9.79962e+06 6.97362e+06 379160 -70259.5 -764355
137 3 O 1.20899 96.7738 1.63068 -1.2 -9.04839 -5.41087e+06 -4.51783e+06 -4.2727e+06 963942 107424 876220
138 3 O -0.954326 100.457 1.5536 -1.2 -8.86284 -3.70353e+06 -6.9103e+06 -4.04134e+06 131353 336525 128574
139 3 O -1.31625 97.4702 0.335015 -1.2 -8.70366 -3.97979e+06 -5.31239e+06 -4.20583e+06 342501 -1.1261e+06 2.20087e+06
140 3 O -1.30081 97.4577 2.87294 -1.2 -8.57247 -4.25157e+06 -5.16316e+06 -3.52363e+06 -40643.8 597414 -1.23199e+06
141 1 Mg -2.35716 101.042 0.0121963 1.2 -8.39064 -352220 3.26126e+06 -1.03294e+06 -1.05205e+06 -1.44274e+06 -1.56976e+06
142 1 Mg 7.07831 103.827 1.56097 1.2 -8.40045 2.1097e+06 1.74084e+06 2.94675e+06 644904 -193482 791782
143 2 Si -0.302191 101.846 1.61624 2.4 -33.7948 7.07303e+06 8.85235e+06 9.10921e+06 -1.28219e+06 550410 1.90502e+06
144 3 O 1.27289 101.799 1.55305 -1.2 -9.22597 -2.84088e+06 -3.2254e+06 -4.06773e+06 -488248 -36366.8 -921805
145 3 O 3.40066 105.636 1.44021 -1.2 -9.27344 -2.30318e+06 -6.05145e+06 -3.76938e+06 197997 654178 -493375
146 3 O -1.0256 102.525 0.288448 -1.2 -8.62983 -3.41175e+06 -5.25457e+06 -2.52117e+06 -398490 1.80104e+06 131555
147 1 Mg 2.31519 111.337 2.91421 1.2 -7.95681 -415693 4.54555e+06 -781636 -1.26027e+06 1.31056e+06 1.4614e+06
148 3 O -0.978589 102.592 2.88076 -1.2 -8.7666 -3.26085e+06 -3.21473e+06 -2.13403e+06 -299270 -1.25936e+06 -798804
149 1 Mg 2.51503 108.343 4.47647 1.2 -8.57996 2.19989e+06 1.53926e+06 915597 -47857.8 -126651 -65315.6
150 2 Si 5.06258 110.429 4.52445 2.4 -33.4993 6.45841e+06 1.2632e+07 5.31237e+06 -1.2862e+06 -285363 -999921
151 3 O 3.52019 110.475 4.46216 -1.2 -9.49184 -3.72281e+06 -4.18936e+06 -1.8229e+06 -785306 -208627 -7997.44
152 3 O 6.11103 106.7 4.58185 -1.2 -8.97335 -2.48868e+06 -4.80465e+06 -2.41647e+06 -1.62197e+06 90705.8 -1.80024e+06
153 3 O 5.85533 109.764 3.24606 -1.2 -8.7804 -2.22363e+06 -4.7673e+06 -2.12015e+06 -513470 -1.17877e+06 -128777
154 3 O 5.73791 109.594 5.74782 -1.2 -8.92447 -2.13172e+06 -3.91198e+06 -2.06979e+06 -371181 1.52512e+06 148666
155 1 Mg 4.89917 106.271 3.00097 1.2 -8.05417 413819 4.42409e+06 -1.66759e+06 1.15567e+06 -1.37264e+06 1.24544e+06
156 1 Mg -0.0811324 103.383 4.492 1.2 -8.76421 1.98537e+06 617571 2.64106e+06 -952977 -254897 -659320
157 2 Si 6.77882 105.166 4.69102 2.4 -33.4754 6.93588e+06 1.16053e+07 7.07591e+06 -654991 349830 -662317
158 3 O 3.59426 105.13 4.54283 -1.2 -9.19668 -1.9435e+06 -4.11427e+06 -2.64794e+06 417215 -1.00915e+06 428472
159 3 O 1.06658 101.512 4.48655 -1.2 -8.86918 -2.76305e+06 -4.66659e+06 -2.79194e+06 695479 -48738.8 387317
160 3 O 6.12255 104.568 3.29868 -1.2 -8.6125 -4.12565e+06 -4.19388e+06 32881.3 3578.12 791138 77745.3
161 1 Mg 4.80406 106.004 0.00237181 1.2 -7.49257 -1.18226e+06 4.44162e+06 -1.23991e+06 1.08752e+06 1.82917e+06 -1.94934e+06
162 3 O 6.08386 104.439 5.85024 -1.2 -9.21365 -3.72919e+06 -2.87361e+06 -3.96e+06 -293632 -220089 1.05785e+06
163 1 Mg 4.81697 109.127 1.57247 1.2 -8.25434 2.45616e+06 1.98867e+06 2.19561e+06 -873893 164023 -287304
164 2 Si 2.82294 107.072 1.40975 2.4 -33.428 6.19462e+06 9.95628e+06 8.279e+06 405312 -775548 -1.58416e+06
165 3 O 5.96568 107.087 1.54537 -1.2 -9.24569 -1.195e+06 -3.39526e+06 -3.6438e+06 193058 -875234 822294
166 3 O 3.76286 110.953 1.47741 -1.2 -9.21856 -3.13208e+06 -4.55864e+06 -2.82207e+06 -30394.4 379986 -55104.5
167 3 O 3.48269 107.837 0.140349 -1.2 -9.04891 -2.86157e+06 -2.97539e+06 -1.80578e+06 -500498 -1.17649e+06 239850
168 3 O 3.38845 107.722 2.75675 -1.2 -8.99265 -4.0919e+06 -4.45831e+06 -973006 158112 371903 -562835
169 1 Mg 2.35543 111.345 -0.0277435 1.2 -7.78641 -19014.5 4.29502e+06 -347951 -1.14186e+06 -1.71049e+06 -1.60969e+06
170 1 Mg 7.05741 114.288 1.50069 1.2 -8.3672 1.91351e+06 315078 1.97446e+06 810644 -295852 36819.7
171 2 Si 4.35634 112.453 1.4586 2.4 -33.659 5.74647e+06 1.0934e+07 7.97354e+06 52064.3 416424 815957
172 3 O 5.93884 112.334 1.51348 -1.2 -9.25911 -1.43854e+06 -4.44976e+06 -3.13344e+06 -678914 205123 -280757
173 3 O 3.54905 115.853 1.51535 -1.2 -9.15001 -2.96466e+06 -5.21186e+06 -2.60844e+06 -723007 -186123 842518
174 3 O 3.7453 113.046 0.134435 -1.2 -9.04635 -3.32532e+06 -4.70502e+06 -2.10227e+06 482434 255226 785025
175 1 Mg 2.3213 121.646 2.85456 1.2 -8.26627 -2.46291e+06 2.69405e+06 -450792 -2.09392e+06 2.08573e+06 2.29966e+06
176 3 O 3.78846 113.144 2.77695 -1.2 -8.84168 -4.47036e+06 -4.19639e+06 -461292 37863 -263739 -434987
177 1 Mg 2.56169 118.873 4.43767 1.2 -8.56887 2.19586e+06 2.14662e+06 2.2341e+06 914936 -155709 -198838
178 2 Si 5.13909 120.672 4.3714 2.4 -33.6397 7.48484e+06 1.12405e+07 7.46374e+06 -603356 343712 527840
179 3 O 3.59234 120.756 4.42463 -1.2 -9.11106 -2.28175e+06 -4.51376e+06 -3.41794e+06 -562817 -673843 -193489
180 3 O 6.16684 116.908 4.51129 -1.2 -8.52021 -2.8853e+06 -3.60267e+06 -3.33968e+06 -759731 -283486 -466955
181 3 O 5.88808 120.036 3.10077 -1.2 -9.05668 -3.87049e+06 -4.32285e+06 -2.77521e+06 -1.40293e+06 -902948 -753537
182 3 O 5.79668 119.938 5.68481 -1.2 -8.94355 -2.81592e+06 -3.28905e+06 -855402 -365856 909386 -120040
183 1 Mg 4.80224 116.29 3.12098 1.2 -8.02315 -1.39004e+06 3.87189e+06 -539589 1.72595e+06 -2.23968e+06 1.90483e+06
184 1 Mg 4.5787 113.664 4.58719 1.2 -8.5889 1.48003e+06 556650 2.2727e+06 -489365 -80515.9 924371
185 2 Si 6.83162 115.362 4.57529 2.4 -33.8308 5.2572e+06 1.21301e+07 7.95377e+06 293672 792694 505718
186 3 O 3.60831 115.476 4.60854 -1.2 -9.34766 -4.06976e+06 -4.91958e+06 -4.47896e+06 1.2769e+06 151721 -211716
187 3 O 5.72635 111.848 4.56572 -1.2 -9.02391 -2.61984e+06 -7.13098e+06 -2.10064e+06 822458 -156679 -757600
188 3 O 6.11182 114.774 3.24592 -1.2 -8.7891 -3.28805e+06 -6.01974e+06 -1.79144e+06 315844 612285 -1.0541e+06
189 1 Mg 4.83978 116.339 -0.0271591 1.2 -7.88064 -732386 4.0568e+06 -208698 1.79173e+06 2.14511e+06 -1.67989e+06
190 3 O 6.07863 114.744 5.80163 -1.2 -8.69455 -3.8818e+06 -4.02602e+06 -1.82008e+06 -367945 -621768 -63927.1
191 1 Mg 5.0477 119.177 1.51446 1.2 -8.59391 2.24735e+06 643149 2.38729e+06 -1.28613e+06 -43572.7 -431500
192 2 Si 2.93401 117.384 1.58767 2.4 -33.4913 6.95558e+06 1.03569e+07 7.10083e+06 299727 -450852 -63196.5
193 3 O 6.11482 117.315 1.54227 -1.2 -9.20766 -1.67852e+06 -3.05007e+06 -3.053e+06 630264 228497 329682
194 3 O 3.65781 120.983 1.50948 -1.2 -8.50461 -1.77354e+06 -4.9888e+06 -4.26024e+06 1.09237e+06 610977 -1.08968e+06
195 3 O 3.59814 118.018 0.291003 -1.2 -8.9469 -3.31729e+06 -4.53623e+06 -2.0529e+06 -279682 -29899.7 978029
196 3 O 3.59598 118.039 2.85213 -1.2 -9.0833 -3.33039e+06 -2.85105e+06 -2.84416e+06 16332.2 324885 175305
197 1 Mg 2.20588 121.627 -0.1247 1.2 -7.90806 -1.4215e+06 3.20289e+06 -2400.26 -1.67032e+06 -1.38176e+06 -1.7518e+06
198 1 Mg 7.03242 124.422 1.43169 1.2 -8.44185 2.23474e+06 2.09296e+06 2.04657e+06 619907 -69623.5 -289396
199 2 Si 4.39304 122.433 1.44181 2.4 -33.2861 4.84753e+06 1.12455e+07 8.02995e+06 829485 1.02167e+06 652540
200 3 O 5.8889 122.497 1.42237 -1.2 -9.64289 -5.28861e+06 -4.25482e+06 -3.84773e+06 270890 578653 -318215
201 3 O 3.32817 126.37 1.57346 -1.2 -8.51858 -3.27974e+06 -3.82987e+06 -3.77243e+06 -1.41857e+06 -392339 1.58838e+06
202 3 O 3.55257 123.066 0.124113 -1.2 -9.17184 -1.49709e+06 -3.29779e+06 -2.54222e+06 -909092 1.65516e+06 231166
203 1 Mg 2.24907 131.815 2.8819 1.2 -7.61398 -975909 4.88211e+06 -553444 -960857 1.40356e+06 833282
204 3 O 3.64246 123.118 2.67504 -1.2 -8.77322 -3.70299e+06 -5.14416e+06 -2.83942e+06 -1.40545e+06 -828439 -531257
205 1 Mg 2.30917 129.15 4.49916 1.2 -8.16152 830179 234703 3.05547e+06 1.18939e+06 -112462 -295701
206 2 Si 4.98932 130.828 4.51748 2.4 -32.4374 5.02141e+06 1.01322e+07 9.71962e+06 1.47725e+06 -172981 -670297
207 3 O 3.4101 130.879 4.43197 -1.2 -9.85325 -895113 -4.90442e+06 -3.96261e+06 188188 267795 -493275
208 3 O 6.01653 127.134 4.40695 -1.2 -8.92471 -3.45326e+06 -4.94753e+06 -5.1941e+06 -1.01166e+06 -613752 305482
209 3 O 5.65655 130.198 3.17136 -1.2 -9.14635 -3.96091e+06 -4.37735e+06 -514209 -440218 -882960 -540964
210 3 O 5.6127 130.158 5.79276 -1.2 -9.5387 -3.05959e+06 -2.85049e+06 -3.0652e+06 -508678 810195 -172668
211 1 Mg 4.65366 126.865 3.01554 1.2 -8.1649 -630223 3.43106e+06 -861477 459432 -1.79698e+06 1.01962e+06
212 1 Mg 4.55901 123.895 4.43894 1.2 -8.63201 2.56509e+06 855832 3.20482e+06 -484765 141092 -75430.7
213 2 Si 6.70255 125.679 4.38236 2.4 -34.1301 6.12389e+06 8.56817e+06 1.05293e+07 281900 138664 -1.23323e+06
214 3 O 3.51574 125.787 4.41944 -1.2 -9.26062 -3.11998e+06 -2.76191e+06 -4.60777e+06 593623 897394 668361
215 3 O 5.78962 122.164 4.39319 -1.2 -8.78313 -4.10334e+06 -3.88741e+06 -3.00786e+06 507207 588919 -351472
216 3 O 5.99323 125.084 3.0866 -1.2 -8.68063 -2.93543e+06 -4.26718e+06 -2.27801e+06 18204.3 681428 -396224
217 1 Mg 4.75604 126.754 0.0109832 1.2 -8.11832 503190 2.28757e+06 1.31097e+06 441499 388740 -2.63296e+06
218 3 O 6.11402 125.05 5.73482 -1.2 -8.42059 -3.14357e+06 -3.77977e+06 -1.08374e+06 -12947.1 -461067 345978
219 1 Mg 4.75932 129.518 1.36112 1.2 -8.23745 779668 141964 2.61558e+06 -698914 329044 -44061.3
220 2 Si 2.57874 127.86 1.49656 2.4 -33.7042 4.92706e+06 1.03371e+07 9.58709e+06 -421807 -365173 -899953
221 3 O 5.819 127.697 1.51335 -1.2 -9.49364 -4.72476e+06 -4.41662e+06 -4.18799e+06 536127 -296977 751155
222 3 O 3.6699 131.358 1.35277 -1.2 -9.52296 -1.5702e+06 -5.48452e+06 -3.53275e+06 1.02288e+06 -836161 1.37825e+06
223 3 O 3.35448 128.379 0.193262 -1.2 -9.00411 -2.52488e+06 -4.60436e+06 -3.0597e+06 341792 -1.36821e+06 1.77231e+06
224 3 O 3.27568 128.564 2.75155 -1.2 -8.8241 -2.86236e+06 -5.1371e+06 -2.64115e+06 -190126 726876 -1.18652e+06
225 1 Mg 2.32251 131.858 -0.0135425 1.2 -7.59708 -1.83371e+06 4.28658e+06 -133946 -1.18076e+06 -1.98597e+06 -1.7572e+06
226 1 Mg 6.88634 134.829 1.27722 1.2 -8.59542 2.57284e+06 330011 1.94414e+06 786132 -386835 379277
227 2 Si 4.31528 132.83 1.44262 2.4 -33.1077 5.68341e+06 1.07362e+07 7.61511e+06 -742579 379475 -715912
228 3 O 5.87039 132.844 1.44452 -1.2 -9.62397 -2.46159e+06 -3.05928e+06 -3.64154e+06 -623824 206976 340359
229 3 O 3.35514 136.601 1.3399 -1.2 -8.98309 -2.47793e+06 -3.98772e+06 -3.19612e+06 -885057 575244 43685.6
230 3 O 3.57122 133.536 0.184231 -1.2 -8.90343 -2.85147e+06 -3.05852e+06 -3.2326e+06 -701761 606387 458599
231 1 Mg 2.34598 142.128 2.83741 1.2 -7.63089 -2.11952e+06 3.63648e+06 601645 -754132 2.053e+06 1.2813e+06
232 3 O 3.64741 133.545 2.70621 -1.2 -8.9784 -2.95541e+06 -2.13501e+06 -2.90937e+06 173556 -539063 187139
233 1 Mg 2.20251 139.306 4.42986 1.2 -8.01435 1.33235e+06 184567 2.67272e+06 780446 -405709 561093
234 2 Si 5.03045 141.184 4.36165 2.4 -32.6806 4.79921e+06 9.09062e+06 8.07531e+06 1.91949e+06 532917 523603
235 3 O 3.51873 141.391 4.47592 -1.2 -9.74945 -3.52207e+06 -3.05865e+06 -3.17668e+06 376635 51762.2 -279913
236 3 O 6.09067 137.484 4.52044 -1.2 -9.19312 -3.98222e+06 -4.16327e+06 -3.68858e+06 -1.4479e+06 -52045.1 -404378
237 3 O 5.68083 140.382 3.20144 -1.2 -9.63177 -2.48343e+06 -4.24411e+06 -4.44453e+06 -362868 -992845 -1.29646e+06
238 3 O 5.72248 140.698 5.72813 -1.2 -9.22834 -2.59631e+06 -3.91887e+06 -2.91144e+06 -468151 412926 683753
239 1 Mg 4.78523 137.117 2.89169 1.2 -7.92496 -803858 3.31727e+06 1.1571e+06 762019 -1.10769e+06 1.89665e+06
240 1 Mg 4.64306 134.075 4.40097 1.2 -8.07577 2.16813e+06 400173 2.94685e+06 -618175 165705 -452543
241 2 Si 6.78584 136.028 4.36526 2.4 -33.3764 6.18786e+06 9.01479e+06 9.60801e+06 152488 -1.16164e+06 397443
242 3 O 3.60053 136.122 4.38583 -1.2 -9.43649 -1.86202e+06 -3.28098e+06 -3.74184e+06 -57933.6 -74261.5 -880068
243 3 O 5.74054 132.309 4.41491 -1.2 -9.56447 -1.96994e+06 -4.17394e+06 -3.98732e+06 1.53265e+06 -121521 -546425
244 3 O 6.14845 135.443 3.07696 -1.2 -9.07135 -4.04158e+06 -2.95902e+06 -3.19543e+06 430303 484198 -1.28867e+06
245 1 Mg 4.66292 137.183 -0.165707 1.2 -7.86247 -1.47686e+06 4.08131e+06 -228276 1.28587e+06 1.97112e+06 -1.50729e+06
246 3 O 6.14042 135.268 5.70354 -1.2 -9.09527 -1.77431e+06 -2.71324e+06 -1.13375e+06 560108 -1.13392e+06 -130609
247 1 Mg 4.67354 139.989 1.52265 1.2 -8.29737 1.16778e+06 -622880 2.44631e+06 -138672 -799321 -812995
248 2 Si 2.64926 138.062 1.39567 2.4 -33.0631 6.20547e+06 1.05307e+07 8.66006e+06 -298473 1.07903e+06 -741620
249 3 O 5.85683 137.916 1.37031 -1.2 -9.60742 -2.95913e+06 -4.06721e+06 -3.38405e+06 567966 -42109.7 807189
250 3 O 3.75941 141.694 1.48704 -1.2 -9.30302 -4.1135e+06 -5.23427e+06 -3.08116e+06 1.57081e+06 723583 -568259
251 3 O 3.38697 138.865 0.214715 -1.2 -9.1334 -3.36214e+06 -3.79336e+06 -2.84306e+06 705897 -1.25701e+06 1.03814e+06
252 3 O 3.35766 138.684 2.7513 -1.2 -9.12395 -1.53733e+06 -2.71927e+06 -2.74391e+06 366850 1.02759e+06 255196
253 1 Mg 2.41735 142.136 -0.0522055 1.2 -8.26117 -551611 4.219e+06 -616062 -717162 -1.34171e+06 -961351
254 1 Mg 7.06277 145.155 1.57269 1.2 -8.63346 1.36901e+06 -1.36083e+06 1.00989e+06 1.01565e+06 1.09085e+06 162608
255 2 Si 4.39522 143.23 1.41081 2.4 -33.7687 7.0451e+06 9.61308e+06 7.37742e+06 -507640 -546002 1.05919e+06
256 3 O 5.94497 143.067 1.36634 -1.2 -9.06467 -2.55469e+06 -3.65024e+06 -4.7765e+06 -935471 -1.18962e+06 -705187
257 3 O 3.42209 146.778 1.39102 -1.2 -8.87566 -4.70705e+06 -7.48584e+06 -3.97409e+06 -451852 -551325 -1.41757e+06
258 3 O 3.84003 143.794 0.0706042 -1.2 -8.44668 -4.82951e+06 -3.03349e+06 -3.60917e+06 652915 110014 -256353
259 1 Mg 1.5702 151.952 1.98723 1.2 -7.67738 -1.59941e+06 -1.92142e+06 2.91992e+06 339637 -863548 812647
260 3 O 3.6349 143.99 2.56164 -1.2 -9.12732 -3.94928e+06 -3.09444e+06 -4.22431e+06 -46356.7 -353330 -1.004e+06
261 1 Mg 1.80726 149.822 4.81689 1.2 -8.61532 -445865 3.88116e+06 97525.6 -287119 825007 2.04428e+06
262 2 Si 3.86282 150.472 3.05041 2.4 -33.9066 7.68831e+06 8.09131e+06 6.33363e+06 -107950 448845 43976.4
263 3 O 2.46467 151.009 3.33992 -1.2 -8.32901 -7.94182e+06 -3.59862e+06 -6.62153e+06 357523 2.00129e+06 -1.22797e+06
264 3 O 6.17879 147.82 4.38146 -1.2 -8.78896 -3.68002e+06 -4.89676e+06 -2.69885e+06 -837257 -378375 -373859
265 3 O 4.48358 151.465 1.96378 -1.2 -8.93484 -5.85051e+06 -41955.8 -4.99031e+06 772320 281383 104539
266 3 O 4.76372 150.374 4.30474 -1.2 -8.38237 -7.04808e+06 -5.00037e+06 -3.27995e+06 -1.38189e+06 607083 577735
267 1 Mg 4.86549 147.248 2.83526 1.2 -8.11353 -503534 3.14765e+06 1.10268e+06 1.413e+06 -1.53745e+06 1.91827e+06
268 1 Mg 4.52412 144.299 4.3991 1.2 -8.23488 2.64573e+06 572488 2.74752e+06 -189031 27672.3 162088
269 2 Si 6.81783 146.323 4.40711 2.4 -33.8763 7.30073e+06 1.02224e+07 7.6711e+06 1.18531e+06 -277241 974556
270 3 O 3.62451 146.413 4.4366 -1.2 -9.23447 -3.31946e+06 -3.15657e+06 -3.96314e+06 1.01417e+06 -722778 -715504
271 3 O 5.79841 142.66 4.22374 -1.2 -9.06237 -1.71693e+06 -4.15943e+06 -3.94569e+06 845311 663855 732302
272 3 O 6.14211 145.65 3.11141 -1.2 -8.75851 -4.05922e+06 -3.70695e+06 -5.45234e+06 1.25839e+06 2.25752e+06 -1.62271e+06
273 1 Mg 4.71378 147.448 -0.259841 1.2 -7.90099 -1.72796e+06 3.57044e+06 155452 452300 1.26671e+06 -1.82534e+06