ITEM: TIMESTEP
500
ITEM: NUMBER OF ATOMS
5600
ITEM: BOX BOUNDS xy xz yz pp pp pp
0.0000000000000000e+00 7.1234999999999999e+00 0.0000000000000000e+00
0.0000000000000000e+00 2.0198500000000001e+02 2.3744999999999998e+00
0.0000000000000000e+00 1.1958400000000000e+02 0.0000000000000000e+00
ITEM: ATOMS id type element xu yu zu q c_pe c_s[1] c_s[2] c_s[3] c_s[4] c_s[5] c_s[6]
1 1 Mg -1.63889 49.8916 -0.951811 1.2 -8.3899 121025 -1.77952e+06 1.55008e+06 739591 487436 -109791
2 1 Mg 2.87308 51.8539 2.1037 1.2 -8.94593 -485542 5.55919e+06 -333080 -236012 -328356 -243080
3 2 Si 0.792807 51.5537 0.331764 2.4 -35.121 1.21047e+07 8.22352e+06 3.78019e+06 -2.04693e+06 4135.59 188276
4 3 O 2.15636 50.628 0.498145 -1.2 -7.38999 -6.26918e+06 -1.31537e+06 -4.67727e+06 -976913 -655153 1.69225e+06
5 3 O -1.34465 54.0478 1.56394 -1.2 -8.28441 -3.44057e+06 -2.2229e+06 -2.13978e+06 -1.62704e+06 612303 -477787
6 3 O 0.0104895 50.927 -0.83861 -1.2 -8.12142 -7.34038e+06 -2.18862e+06 -8.4946e+06 1.03016e+06 793511 580319
7 1 Mg -2.27084 59.8579 3.24486 1.2 -8.27877 -18945.9 5.02356e+06 -2.02973e+06 -777416 1.70922e+06 1.7244e+06
8 3 O -0.0648481 51.3925 1.57656 -1.2 -7.96132 -6.88869e+06 -5.12743e+06 -5.09142e+06 -803016 364036 -1.64667e+06
9 1 Mg -2.22858 57.0119 4.45371 1.2 -8.86227 1.79903e+06 508299 1.39739e+06 874814 141112 -441013
10 2 Si 0.441361 58.837 4.73552 2.4 -33.6383 6.79014e+06 1.36107e+07 5.59441e+06 247137 -423119 -195537
11 3 O -1.12899 58.8853 4.72115 -1.2 -9.27445 -1.82427e+06 -5.7171e+06 -2.47664e+06 -2050.3 197963 892826
12 3 O 1.50651 55.2619 4.47039 -1.2 -8.89605 -5.82607e+06 -5.49171e+06 -3.07109e+06 -903456 -218189 -49004.8
13 3 O 1.09589 58.0405 3.43068 -1.2 -8.53989 -3.92645e+06 -4.18261e+06 -927828 122343 -1.4088e+06 1.4835e+06
14 3 O 1.0913 58.199 5.97107 -1.2 -9.02684 -3.89406e+06 -4.98716e+06 -3.30498e+06 243948 100858 1.23264e+06
15 1 Mg 0.0897786 54.7352 3.09505 1.2 -8.18126 -435553 5.08924e+06 -1.59779e+06 383134 -1.09034e+06 2.29548e+06
16 1 Mg 0.743101 50.9146 3.30006 1.2 -8.41948 3.08246e+06 1.98735e+06 -2.65415e+06 -704191 330514 1.1152e+06
17 2 Si 2.15292 53.8012 4.50785 2.4 -33.7771 9.40921e+06 9.83292e+06 7.4524e+06 1.41754e+06 1.13893e+06 936078
18 3 O -1.03879 54.0191 4.62437 -1.2 -8.77372 -2.18146e+06 -5.53805e+06 -3.49784e+06 1.99459e+06 -319383 -286621
19 3 O 2.6311 50.2756 3.3474 -1.2 -6.45919 -1.06154e+06 581657 -2.17573e+06 -488593 208944 -1.16852e+06
20 3 O 1.57614 53.0277 3.24956 -1.2 -8.59131 -3.73183e+06 -2.88252e+06 -3.72691e+06 -1.01141e+06 1.66783e+06 583862
21 1 Mg -3.98441e-09 54.7293 0.125572 1.2 -7.93915 -1.6356e+06 3.8398e+06 -143388 1.46863e+06 1.63078e+06 -1.94105e+06
22 3 O 1.42032 52.9658 5.7564 -1.2 -9.82943 -6.35389e+06 -5.32786e+06 -5.74133e+06 -525502 -2.42165e+06 -1.31069e+06
23 1 Mg 0.139592 57.4294 1.70691 1.2 -8.71593 1.49766e+06 1.05618e+06 1.43087e+06 -648197 341909 165099
24 2 Si -2.03842 55.624 1.51385 2.4 -33.2921 5.02572e+06 1.5814e+07 6.18143e+06 77572.1 -16998.8 483877
25 3 O 1.17852 55.5462 1.63578 -1.2 -9.58194 -2.76383e+06 -6.28561e+06 -3.45316e+06 563938 -69473.6 -160508
26 3 O -0.886952 59.262 1.74227 -1.2 -8.62628 -4.41284e+06 -6.17969e+06 -2.25092e+06 1.08969e+06 -115851 -460109
27 3 O -1.36034 56.2365 0.231434 -1.2 -9.20292 -2.247e+06 -5.48216e+06 -3.09881e+06 281572 -416876 60348.6
28 3 O -1.29422 56.3881 2.78187 -1.2 -8.74199 -4.13837e+06 -4.26567e+06 -1.29175e+06 146848 1.77211e+06 908545
29 1 Mg -2.27232 59.6809 0.2768 1.2 -8.06436 -838252 4.11971e+06 -224681 -856114 -876692 -2.022e+06
30 1 Mg 2.37605 62.5838 1.57629 1.2 -8.66261 2.60569e+06 2.1512e+06 1.72383e+06 874971 356787 655647
31 2 Si -0.230766 60.7418 1.64769 2.4 -33.9624 6.3233e+06 1.26503e+07 6.25983e+06 -524956 -426824 62527.1
32 3 O 1.32541 60.5688 1.69627 -1.2 -9.15274 -3.01159e+06 -5.25253e+06 -3.12411e+06 -828577 710243 -561256
33 3 O -1.32947 64.5424 1.74113 -1.2 -8.52261 -4.26083e+06 -4.422e+06 -2.34886e+06 -1.17273e+06 264610 -1.27903e+06
34 3 O -0.979781 61.4258 0.429169 -1.2 -9.15998 -3.25365e+06 -3.37974e+06 -3.47037e+06 -1.1127e+06 986468 593349
35 1 Mg -2.40786 70.3125 3.2078 1.2 -8.17846 -1.09005e+06 5.30119e+06 -1.59609e+06 -1.0651e+06 1.70389e+06 1.90512e+06
36 3 O -0.887848 61.3958 2.96336 -1.2 -8.46478 -4.03405e+06 -6.13314e+06 -991874 -522544 -1.09101e+06 -1.04407e+06
37 1 Mg -2.2776 67.3025 4.52336 1.2 -9.33507 3.24173e+06 1.19401e+06 2.99104e+06 545996 220603 102790
38 2 Si 0.294258 69.1152 4.44397 2.4 -34.7125 7.38129e+06 1.23992e+07 8.18247e+06 106025 1.03921e+06 1.41747e+06
39 3 O -1.21714 69.1951 4.45576 -1.2 -8.85556 -4.53031e+06 -5.06944e+06 -3.38502e+06 -26659.6 -573494 -464274
40 3 O 1.49364 65.4856 4.48027 -1.2 -8.06306 -3.14977e+06 -2.32965e+06 -2.8632e+06 -2.16018e+06 -227447 -243140
41 3 O 0.996781 68.5218 3.14124 -1.2 -8.15608 -5.72086e+06 -3.55823e+06 -2.28857e+06 -482800 -1.22237e+06 -673529
42 3 O 0.991893 68.3574 5.73882 -1.2 -8.03929 -4.08639e+06 -3.94928e+06 -382878 -602188 1.51099e+06 -225123
43 1 Mg 0.100636 65.0102 3.0944 1.2 -8.93413 677930 4.84793e+06 -2.72586e+06 200640 -939644 1.97497e+06
44 1 Mg 0.0652154 62.0935 4.65169 1.2 -8.86079 1.64287e+06 1.9039e+06 1.12671e+06 -707781 -51997.4 329060
45 2 Si 2.21189 63.832 4.55764 2.4 -34.3363 1.00563e+07 1.27023e+07 6.69212e+06 -654618 1.04023e+06 692750
46 3 O -0.930343 63.9863 4.54942 -1.2 -8.7756 -1.419e+06 -3.6285e+06 -3.5027e+06 723729 707956 -36197.9
47 3 O 1.15436 60.3312 4.65968 -1.2 -8.94253 -3.6376e+06 -4.85678e+06 -2.46746e+06 1.69931e+06 211109 180833
48 3 O 1.48163 63.182 3.29101 -1.2 -8.44077 -4.30031e+06 -4.62205e+06 -287110 80228.9 1.50746e+06 -324107
49 1 Mg -0.0630238 64.9508 0.20026 1.2 -8.06147 -411645 3.89719e+06 402174 1.29283e+06 1.97284e+06 -732153
50 3 O 1.5894 63.3405 5.86884 -1.2 -8.79368 -4.62828e+06 -4.44886e+06 -1.77231e+06 -161625 -852616 346919
51 1 Mg 0.0539547 67.8498 1.54339 1.2 -9.18291 2.63512e+06 659570 -163295 -1.52287e+06 179210 47332.8
52 2 Si -2.01294 66.0268 1.52546 2.4 -34.5106 8.76653e+06 1.15988e+07 6.54084e+06 93762.7 1.66074e+06 1.14895e+06
53 3 O 1.155 65.9008 1.6885 -1.2 -8.64375 -2.73623e+06 -4.92672e+06 -3.87114e+06 582344 336581 -337311
54 3 O -0.978828 69.6921 1.58432 -1.2 -8.57446 -2.49303e+06 -6.32599e+06 -2.74833e+06 758116 -374886 1.2793e+06
55 3 O -1.37585 66.6519 0.310259 -1.2 -9.01671 -3.91916e+06 -3.66672e+06 -5.24149e+06 -14935.7 -399365 65332.3
56 3 O -1.25337 66.7907 2.80145 -1.2 -7.71507 -5.13053e+06 -5.19616e+06 -770454 117306 1.57689e+06 -452676
57 1 Mg -2.38943 70.2895 0.132336 1.2 -7.67356 -766578 4.85338e+06 -600988 -951939 -865853 -2.38098e+06
58 1 Mg 2.22523 73.0124 1.46815 1.2 -8.1237 909699 600676 1.4858e+06 711334 -195046 -229263
59 2 Si -0.319794 71.17 1.6844 2.4 -33.4206 3.86377e+06 1.36782e+07 5.35986e+06 280733 -294867 -97981.8
60 3 O 1.19493 71.2283 1.64051 -1.2 -9.64104 -4.22549e+06 -5.62747e+06 -2.60837e+06 -543008 368545 345306
61 3 O -1.37316 74.7007 1.5788 -1.2 -9.27515 -1.2429e+06 -6.02215e+06 -2.11443e+06 -1.25961e+06 966103 1.36217e+06
62 3 O -1.07014 71.8748 0.484181 -1.2 -9.36957 -3.67196e+06 -6.48628e+06 -2.62063e+06 132187 701686 1.99344e+06
63 1 Mg -2.31803 80.4743 3.17873 1.2 -8.36936 397104 5.29893e+06 -1.42082e+06 -600294 1.05607e+06 1.14796e+06
64 3 O -0.936836 71.7461 3.06588 -1.2 -8.7754 -3.46474e+06 -6.07996e+06 -1.38829e+06 -94834.4 -979565 309768
65 1 Mg -2.34533 77.5562 4.62394 1.2 -8.67432 785061 2.65907e+06 1.21705e+06 1.14434e+06 369502 -780582
66 2 Si 0.345073 79.3597 4.62533 2.4 -33.6598 8.59679e+06 1.25158e+07 5.76669e+06 69601.3 -286596 -723836
67 3 O -1.26393 79.4593 4.58277 -1.2 -9.07843 -1.05168e+06 -4.70836e+06 -2.83573e+06 -1.19703e+06 -121689 524386
68 3 O 1.4527 75.6591 4.54828 -1.2 -8.53186 -3.50291e+06 -7.53985e+06 -3.46622e+06 -2.13913e+06 -192620 1.52068e+06
69 3 O 1.04603 78.7503 3.33367 -1.2 -8.80863 -4.28543e+06 -4.47625e+06 -708247 402519 -1.22357e+06 4020.59
70 3 O 1.0513 78.7442 5.89913 -1.2 -9.1569 -4.0194e+06 -5.32679e+06 -1.72815e+06 29857.5 1.00929e+06 1.77375e+06
71 1 Mg 0.0313532 75.2764 3.18726 1.2 -7.99688 -417176 4.88239e+06 -2.45949e+06 321010 -647946 1.02647e+06
72 1 Mg 0.00551032 72.4667 4.65757 1.2 -8.53132 1.22781e+06 2.58298e+06 258782 -819987 -80808.9 -443511
73 2 Si 2.14281 74.1634 4.56493 2.4 -33.9842 6.3414e+06 1.27225e+07 3.78674e+06 -854393 -391184 -1.18994e+06
74 3 O -1.01683 74.2936 4.60018 -1.2 -9.25915 -2.83899e+06 -5.58656e+06 -1.89366e+06 779590 440518 716269
75 3 O 1.06592 70.5923 4.65778 -1.2 -8.68348 -3.77286e+06 -5.16325e+06 -2.55425e+06 1.97631e+06 589139 672102
76 3 O 1.4809 73.5757 3.33963 -1.2 -8.89153 -3.84681e+06 -7.69228e+06 -2.23891e+06 -241510 378923 -1.9632e+06
77 1 Mg 0.0340827 75.0621 0.14591 1.2 -7.60822 -1.21006e+06 5.02699e+06 -501256 978881 1.14897e+06 -1.22356e+06
78 3 O 1.49544 73.6668 5.89638 -1.2 -8.84838 -3.15183e+06 -6.36855e+06 -1.79058e+06 9746.39 -342040 2.437e+06
79 1 Mg 0.0522541 77.994 1.69189 1.2 -8.60136 2.31025e+06 2.14642e+06 1.39902e+06 -935057 -285168 -50315.4
80 2 Si -2.06951 76.1994 1.63047 2.4 -33.3486 5.13214e+06 1.30796e+07 6.72261e+06 -788898 -164682 -304523
81 3 O 1.14516 76.0899 1.74158 -1.2 -9.58963 -3.01052e+06 -4.79328e+06 -3.04042e+06 160870 -593809 1.53175e+06
82 3 O -0.971232 79.9031 1.68957 -1.2 -8.76643 -3.27984e+06 -4.82918e+06 -1.401e+06 1.31534e+06 -66204.9 477474
83 3 O -1.34771 76.9002 0.45977 -1.2 -9.03874 -3.19661e+06 -5.3107e+06 -1.7916e+06 456873 -113618 1.08412e+06
84 3 O -1.40538 76.8917 3.00767 -1.2 -8.65486 -3.3489e+06 -4.57064e+06 -634955 190779 1.93423e+06 1.21484e+06
85 1 Mg -2.3569 80.1536 0.183537 1.2 -8.05174 -25035.5 4.97838e+06 -1.23316e+06 -840912 -1.15761e+06 -1.68031e+06
86 1 Mg 2.30533 83.2512 1.5373 1.2 -9.1066 3.80528e+06 2.19932e+06 1.82687e+06 569265 58301.4 -382562
87 2 Si -0.269502 81.4026 1.61449 2.4 -34.4347 7.96555e+06 1.3516e+07 5.53484e+06 -159955 -469832 -760581
88 3 O 1.3162 81.3029 1.59624 -1.2 -9.03822 -2.40922e+06 -4.35152e+06 -1.98283e+06 -86401.9 118825 601013
89 3 O -1.34411 85.1089 1.54904 -1.2 -8.15452 -3.71023e+06 -5.44489e+06 -1.65277e+06 47296.3 -291343 1.5589e+06
90 3 O -0.937268 82.105 0.383988 -1.2 -8.5193 -4.16661e+06 -4.28605e+06 -3.17812e+06 -379110 1.3556e+06 898898
91 1 Mg -2.36547 90.7384 3.26951 1.2 -8.8897 339089 5.10074e+06 -2.02694e+06 -679964 1.78677e+06 2.29904e+06
92 3 O -0.897997 82.1106 2.91205 -1.2 -8.34643 -3.42229e+06 -4.93026e+06 -1.6624e+06 -578237 -1.26602e+06 447555
93 1 Mg -2.2741 87.9677 4.6795 1.2 -8.864 2.16484e+06 1.14071e+06 1.62985e+06 666105 -289227 8753.28
94 2 Si 0.380297 89.8299 4.8326 2.4 -34.0608 7.68428e+06 1.31596e+07 5.80374e+06 -158864 153483 1.47297e+06
95 3 O -1.18304 89.8383 4.66789 -1.2 -9.00565 -2.56232e+06 -5.25913e+06 -2.90392e+06 59700.4 288493 -284681
96 3 O 1.48398 86.2175 4.54096 -1.2 -8.74836 -3.42088e+06 -7.24314e+06 -1.8933e+06 -796739 -150986 777513
97 3 O 1.07625 89.0818 3.49515 -1.2 -8.23721 -4.87351e+06 -4.21302e+06 -169467 -190376 -1.04876e+06 -192699
98 3 O 1.08229 89.1458 6.05124 -1.2 -9.03432 -2.75297e+06 -5.43715e+06 -3.08421e+06 -454026 978275 239993
99 1 Mg -0.00879059 85.8267 3.11837 1.2 -8.31596 -547911 5.41022e+06 -1.26881e+06 1.04299e+06 -1.19076e+06 2.25106e+06
100 1 Mg -0.0376927 82.8713 4.54334 1.2 -9.00607 2.6932e+06 2.26067e+06 1.71879e+06 -944734 -476642 -1.2173e+06
101 2 Si 2.08493 84.7317 4.49564 2.4 -34.4261 6.73991e+06 1.22903e+07 5.26649e+06 209768 1.18291e+06 898408
102 3 O -1.12259 84.7796 4.45781 -1.2 -8.97682 -3.96823e+06 -5.00698e+06 -3.25749e+06 916510 811495 -208331
103 3 O 0.980364 80.8945 4.69428 -1.2 -8.61341 -3.05635e+06 -4.47169e+06 -1.85536e+06 1.50097e+06 -748092 1.03233e+06
104 3 O 1.36123 84.0044 3.22055 -1.2 -8.17223 -4.36871e+06 -2.64942e+06 -2.05518e+06 -9275.51 574051 935985
105 1 Mg 0.0540789 85.7248 -0.00906439 1.2 -8.71388 1.80329e+06 5.19109e+06 -660612 1.08806e+06 792596 -1.01454e+06
106 3 O 1.38237 84.0488 5.69988 -1.2 -8.74106 -4.59928e+06 -5.73636e+06 -3.41688e+06 225951 -938980 1.25718e+06
107 1 Mg 0.0594662 88.5075 1.8329 1.2 -9.08398 3.64641e+06 2.2374e+06 665039 -1.13766e+06 -200540 607522
108 2 Si -2.04545 86.5516 1.61547 2.4 -34.8229 5.17301e+06 1.49203e+07 5.02689e+06 -358759 -822158 1.28998e+06
109 3 O 1.20969 86.5388 1.59471 -1.2 -8.88448 -5.62746e+06 -6.01411e+06 -1.1743e+06 -353096 283835 4683.52
110 3 O -1.03116 90.3686 1.82675 -1.2 -8.05685 -3.65857e+06 -5.22928e+06 -2.73115e+06 1.04424e+06 659450 -972328
111 3 O -1.36663 87.1932 0.249883 -1.2 -8.14034 -3.50857e+06 -6.04773e+06 -341768 457088 -1.37363e+06 18766.7
112 3 O -1.33349 87.3549 2.81394 -1.2 -8.59194 -4.45085e+06 -5.35126e+06 -1.32306e+06 358506 856797 -253243
113 1 Mg -2.46821 90.8034 0.308312 1.2 -8.89047 860119 4.4866e+06 -944063 -1.17252e+06 -1.06345e+06 -1.55955e+06
114 1 Mg 2.28235 93.6377 1.56602 1.2 -9.4454 3.2463e+06 1.09841e+06 1.73855e+06 846709 -500.663 347271
115 2 Si -0.319566 91.8602 1.78972 2.4 -35.586 9.18718e+06 1.21602e+07 7.08129e+06 566251 -949094 978811
116 3 O 1.24553 91.7838 1.75455 -1.2 -8.47886 -4.11347e+06 -4.88988e+06 -3.13753e+06 25218.1 -497750 -1.16545e+06
117 3 O -1.33835 95.3962 1.61 -1.2 -7.87237 -4.84227e+06 -8.8203e+06 -2.80753e+06 202589 -85377.9 -1.32616e+06
118 3 O -0.950478 92.5668 0.542535 -1.2 -7.86556 -5.39913e+06 -4.50838e+06 -1.54005e+06 378189 698600 -102463
119 1 Mg -2.34374 100.804 3.03405 1.2 -8.48738 -703064 4.92255e+06 -2.06799e+06 -1.39663e+06 1.97595e+06 1.64146e+06
120 3 O -0.981504 92.4627 3.13335 -1.2 -7.80408 -4.55624e+06 -5.05708e+06 -1.94862e+06 -627781 -1.07476e+06 -1.50345e+06
121 1 Mg -2.25373 98.2345 4.66852 1.2 -9.30222 2.69034e+06 1.47805e+06 1.73456e+06 997639 -382404 1.24305e+06
122 2 Si 0.420102 100.079 4.71504 2.4 -34.2655 8.03739e+06 1.16641e+07 6.42531e+06 360594 -579084 1.26532e+06
123 3 O -1.15495 100.051 4.60929 -1.2 -8.91802 -2.44579e+06 -4.35338e+06 -2.82849e+06 -425512 473674 72390.2
124 3 O 1.47984 96.4132 4.50433 -1.2 -7.85055 -4.44521e+06 -5.4594e+06 -3.04367e+06 -937647 -419606 1.15091e+06
125 3 O 1.1162 99.3155 3.40057 -1.2 -8.14393 -5.06168e+06 -5.87757e+06 425118 -946646 -888989 -162203
126 3 O 1.11806 99.5194 5.97739 -1.2 -8.73998 -4.75857e+06 -4.01572e+06 -2.97446e+06 270161 840704 -53490.9
127 1 Mg 0.0848858 95.8778 3.0571 1.2 -8.97881 738084 4.15719e+06 -1.54245e+06 1.11759e+06 -1.30294e+06 2.08366e+06
128 1 Mg 0.0356833 93.099 4.68233 1.2 -9.42576 3.50176e+06 732094 1.63891e+06 -1.23487e+06 -505005 513320
129 2 Si 2.08047 94.8765 4.49187 2.4 -35.7312 8.22248e+06 1.16019e+07 6.72776e+06 -595599 -57544.1 61174.1
130 3 O -1.12999 94.9887 4.65862 -1.2 -8.24283 -4.73249e+06 -4.69475e+06 -3.51089e+06 1.08345e+06 682332 173955
131 3 O 1.08695 91.281 4.77357 -1.2 -8.51456 -3.9065e+06 -5.25773e+06 -2.66732e+06 1.08225e+06 -224894 -1.18904e+06
132 3 O 1.34575 94.2552 3.27519 -1.2 -8.16848 -4.96144e+06 -6.10537e+06 -3.19957e+06 120617 429629 -1.48475e+06
133 1 Mg -0.00740327 95.8528 0.0429164 1.2 -8.56062 707318 4.79508e+06 -1.54752e+06 633567 865045 -1.62915e+06
134 3 O 1.40842 94.2933 5.80727 -1.2 -7.84404 -6.0686e+06 -4.11524e+06 -1.93559e+06 -277601 -450788 483947
135 1 Mg 0.222092 98.5961 1.63338 1.2 -9.15794 3.67869e+06 1.3557e+06 2.03169e+06 -508256 44095.7 -421932
136 2 Si -1.99535 96.8351 1.56588 2.4 -35.7079 5.80965e+06 1.10432e+07 4.48898e+06 368618 1.16069e+06 1.47928e+06
137 3 O 1.24174 96.7078 1.66188 -1.2 -8.48291 -7.09968e+06 -5.06621e+06 -3.35705e+06 346493 617268 139181
138 3 O -1.01594 100.373 1.61932 -1.2 -8.57663 -3.5252e+06 -4.84506e+06 -2.20009e+06 1.07401e+06 281830 136578
139 3 O -1.36672 97.4873 0.38562 -1.2 -8.24475 -4.23614e+06 -7.08345e+06 -6.63028e+06 -226525 75054.6 2.51941e+06
140 3 O -1.26655 97.4957 2.83832 -1.2 -7.51444 -4.74119e+06 -5.79939e+06 -2.6863e+06 -385099 600291 -798482
141 1 Mg -2.36236 101.024 0.026249 1.2 -8.50352 -731524 4.73143e+06 -1.55906e+06 -820826 -1.28303e+06 -1.98312e+06
142 1 Mg 7.09108 103.764 1.61495 1.2 -8.81014 3.35409e+06 1.84901e+06 1.51109e+06 924837 -184541 241832
143 2 Si -0.306151 101.841 1.62444 2.4 -34.0776 9.33485e+06 1.40393e+07 5.67743e+06 102718 636363 -516578
144 3 O 1.31998 101.779 1.5724 -1.2 -8.93499 -1.03436e+06 -5.18437e+06 -2.9583e+06 571658 295763 49689.5
145 3 O 3.46636 105.605 1.4064 -1.2 -9.06023 -2.72844e+06 -5.19492e+06 -1.21045e+06 -624862 572597 -335533
146 3 O -0.982945 102.611 0.319383 -1.2 -8.5073 -4.00395e+06 -4.1428e+06 -1.77529e+06 -1.1531e+06 1.53152e+06 -505161
147 1 Mg 2.3183 111.38 2.93507 1.2 -8.37164 497501 4.70027e+06 -777523 -1.30435e+06 1.33077e+06 1.70672e+06
148 3 O -0.915785 102.616 2.8474 -1.2 -8.67918 -4.06749e+06 -4.14405e+06 -2.24625e+06 -704753 -1.03844e+06 -304364
149 1 Mg 2.50255 108.366 4.4639 1.2 -8.43973 2.39802e+06 1.77898e+06 1.52535e+06 467381 -55091.7 -59270.4
150 2 Si 5.11426 110.379 4.52547 2.4 -33.9114 8.53908e+06 1.25988e+07 6.10026e+06 -394792 -667384 -132317
151 3 O 3.49696 110.457 4.52892 -1.2 -9.02982 -1.3804e+06 -4.2071e+06 -2.83608e+06 -1.01253e+06 -36817.7 -308118
152 3 O 6.04151 106.693 4.62413 -1.2 -9.45784 -1.88548e+06 -4.30928e+06 -2.80964e+06 -1.82187e+06 -462697 -1.35929e+06
153 3 O 5.84142 109.783 3.20531 -1.2 -8.78945 -3.06324e+06 -4.61986e+06 -927409 -332020 -1.23587e+06 -911572
154 3 O 5.77523 109.687 5.76573 -1.2 -8.88553 -3.98244e+06 -4.67356e+06 -1.75915e+06 -111732 1.31776e+06 -173086
155 1 Mg 4.90993 106.25 3.06706 1.2 -7.85298 -1.19168e+06 5.76102e+06 -1.59885e+06 1.06516e+06 -1.8668e+06 1.89863e+06
156 1 Mg -0.0864856 103.342 4.50446 1.2 -8.73245 1.98614e+06 1.03566e+06 2.23204e+06 -1.04613e+06 -383660 354507
157 2 Si 6.78342 105.208 4.61957 2.4 -32.8376 7.482e+06 1.32151e+07 7.27525e+06 -234783 360943 1.12395e+06
158 3 O 3.61138 105.156 4.58806 -1.2 -9.48901 -448393 -4.51134e+06 -2.61712e+06 -316287 271630 -630461
159 3 O 1.08338 101.517 4.49845 -1.2 -8.81764 -2.532e+06 -6.8437e+06 -2.68595e+06 1.0344e+06 -319820 -293791
160 3 O 6.08023 104.522 3.27442 -1.2 -8.94242 -3.146e+06 -3.47242e+06 560889 541236 810527 207325
161 1 Mg 4.83747 106.009 0.0191183 1.2 -7.98912 -1.47285e+06 5.58118e+06 -1.85812e+06 951584 1.72713e+06 -1.57881e+06
162 3 O 6.151 104.427 5.91196 -1.2 -8.86201 -4.28876e+06 -3.06111e+06 108546 15588.7 -899110 -1.30132e+06
163 1 Mg 4.80943 109.157 1.51115 1.2 -8.60735 2.7895e+06 2.55615e+06 625080 -865529 164166 793387
164 2 Si 2.82467 107.081 1.40983 2.4 -33.4117 8.33592e+06 1.38521e+07 4.65616e+06 -18147.1 -50687.2 1.01061e+06
165 3 O 5.96471 107.056 1.53426 -1.2 -9.24553 -822724 -4.97272e+06 -1.23976e+06 45403.1 -522360 -230128
166 3 O 3.78053 110.987 1.48214 -1.2 -8.76951 -3.26229e+06 -6.14513e+06 -2.09289e+06 152113 153484 -237056
167 3 O 3.51093 107.85 0.201881 -1.2 -8.98691 -2.93219e+06 -3.50501e+06 -1.73297e+06 291556 -835946 -454763
168 3 O 3.44542 107.83 2.73774 -1.2 -9.02791 -3.09685e+06 -3.1965e+06 -184135 677245 745562 -528396
169 1 Mg 2.3176 111.372 -0.076846 1.2 -7.90758 -254110 4.45292e+06 -470662 -665026 -1.15972e+06 -1.86359e+06
170 1 Mg 7.02907 114.278 1.49151 1.2 -8.61506 2.05227e+06 463513 1.56885e+06 852333 -405193 -205503
171 2 Si 4.3902 112.467 1.46221 2.4 -34.4532 6.45458e+06 1.06263e+07 7.3874e+06 -151267 -28962.4 193076
172 3 O 5.95054 112.363 1.46929 -1.2 -9.03123 -3.45527e+06 -4.30516e+06 -3.04228e+06 -950560 -357582 279334
173 3 O 3.57085 115.844 1.49751 -1.2 -9.04763 -1.69138e+06 -4.82188e+06 -2.02622e+06 -834939 192148 1.4164e+06
174 3 O 3.78486 113.067 0.144091 -1.2 -8.69845 -3.46612e+06 -5.16946e+06 -3.2666e+06 338514 604572 1.4343e+06
175 1 Mg 2.37488 121.684 2.85946 1.2 -7.98323 -2.15912e+06 3.85729e+06 -1.0468e+06 -1.7849e+06 2.63468e+06 3.27662e+06
176 3 O 3.70655 113.126 2.74359 -1.2 -8.3159 -4.61509e+06 -4.91735e+06 -1.10225e+06 447215 -643722 -824175
177 1 Mg 2.57558 118.871 4.40416 1.2 -7.99819 1.2929e+06 2.76314e+06 1.82258e+06 995200 336640 239463
178 2 Si 5.15943 120.646 4.39094 2.4 -32.7074 7.18733e+06 1.37755e+07 6.63576e+06 -178166 -472252 1.83022e+06
179 3 O 3.57411 120.787 4.44865 -1.2 -9.49417 54805.4 -4.861e+06 -2.75043e+06 -517924 -196326 -826040
180 3 O 6.23785 116.867 4.49092 -1.2 -9.05707 -2.68322e+06 -6.45464e+06 -2.53123e+06 -381812 -25926.3 -708247
181 3 O 5.83632 119.971 3.08135 -1.2 -9.33988 -2.90551e+06 -4.21814e+06 -1.50016e+06 -1.27367e+06 -1.13257e+06 -865717
182 3 O 5.83336 119.982 5.67721 -1.2 -9.59883 -2.7831e+06 -3.60077e+06 -364928 -786778 802617 -70799.5
183 1 Mg 4.90095 116.291 3.14898 1.2 -7.84682 -1.2955e+06 4.73394e+06 -1.28295e+06 1.59803e+06 -2.04537e+06 1.33964e+06
184 1 Mg 4.60233 113.63 4.61923 1.2 -8.96065 2.11419e+06 -183005 2.05833e+06 -149704 428746 871211
185 2 Si 6.83055 115.384 4.61705 2.4 -33.8749 5.74276e+06 1.16477e+07 5.80127e+06 492675 -595650 186639
186 3 O 3.65598 115.445 4.59344 -1.2 -9.32558 -3.13666e+06 -5.06379e+06 -3.44458e+06 1.22084e+06 -816831 -27786.8
187 3 O 5.68209 111.918 4.49482 -1.2 -8.53023 -3.4636e+06 -4.80011e+06 -2.32654e+06 1.04341e+06 178105 -659538
188 3 O 6.18317 114.751 3.31373 -1.2 -8.48468 -4.74703e+06 -6.74998e+06 -2.17588e+06 658351 522601 -1.21435e+06
189 1 Mg 4.91996 116.329 -0.0334257 1.2 -7.95569 -1.09707e+06 4.08858e+06 -318071 1.8899e+06 1.9814e+06 -1.7412e+06
190 3 O 6.0841 114.756 5.82294 -1.2 -8.7702 -3.30525e+06 -3.94965e+06 -3.4293e+06 -117309 -233654 75591.2
191 1 Mg 5.09805 119.167 1.48461 1.2 -8.50963 1.96807e+06 1.15049e+06 1.00631e+06 -1.03357e+06 16959.6 24256
192 2 Si 2.92399 117.375 1.61064 2.4 -33.2064 5.60331e+06 1.24932e+07 7.41835e+06 -85111 -1.29883e+06 -622535
193 3 O 6.1481 117.341 1.56891 -1.2 -9.49118 -2.71158e+06 -3.85515e+06 -2.61561e+06 663204 -261645 53845.3
194 3 O 3.62957 120.957 1.46664 -1.2 -8.83233 -2.17721e+06 -4.46451e+06 -3.0176e+06 959482 467213 -1.1733e+06
195 3 O 3.63624 118.019 0.226038 -1.2 -8.79758 -2.39889e+06 -4.66713e+06 620758 -35986.4 -674911 160822
196 3 O 3.56812 118.034 2.8834 -1.2 -9.32968 -3.29266e+06 -3.74175e+06 -1.2402e+06 -486338 506670 148661
197 1 Mg 2.2133 121.599 -0.165377 1.2 -7.80008 -1.44985e+06 3.91948e+06 -1.22555e+06 -1.46556e+06 -1.73537e+06 -1.11855e+06
198 1 Mg 7.0133 124.443 1.40549 1.2 -8.1238 2.53067e+06 2.42082e+06 1.50169e+06 950737 -299184 387810
199 2 Si 4.30012 122.426 1.41214 2.4 -33.0098 6.50016e+06 1.26666e+07 5.96063e+06 747047 438598 3.274e+06
200 3 O 5.93522 122.439 1.35692 -1.2 -9.4353 -424156 -4.61449e+06 -3.4201e+06 653195 396845 -1.01391e+06
201 3 O 3.33114 126.413 1.55067 -1.2 -8.64633 -3.87737e+06 -7.03465e+06 -3.67173e+06 -288078 -711417 1.11746e+06
202 3 O 3.60477 123.091 0.184538 -1.2 -9.54972 -2.90845e+06 -4.38278e+06 -2.55887e+06 -620220 472936 -46296.3
203 1 Mg 2.23952 131.798 2.86591 1.2 -8.1157 -637765 3.80875e+06 617448 -1.15438e+06 1.60853e+06 1.08072e+06
204 3 O 3.69324 123.188 2.70638 -1.2 -8.94049 -3.88833e+06 -4.23267e+06 -2.51485e+06 -1.83289e+06 -1.02205e+06 -697422
205 1 Mg 2.32589 129.065 4.47996 1.2 -8.627 1.59284e+06 147266 3.23205e+06 1.26996e+06 -68738.9 -532961
206 2 Si 4.96404 130.804 4.457 2.4 -33.6138 8.55374e+06 9.81953e+06 1.08935e+07 1.22491e+06 -921126 -1.59662e+06
207 3 O 3.37213 130.874 4.42212 -1.2 -9.19399 -1.02559e+06 -3.7393e+06 -4.07334e+06 183362 -825504 417414
208 3 O 6.00004 127.197 4.42437 -1.2 -8.69419 -2.13151e+06 -4.21021e+06 -4.78583e+06 -1.43695e+06 -458360 783809
209 3 O 5.68763 130.202 3.12156 -1.2 -8.8285 -3.7341e+06 -4.01004e+06 -1.19618e+06 -532144 -1.42546e+06 -464538
210 3 O 5.53708 130.168 5.80886 -1.2 -8.5223 -4.95891e+06 -3.00452e+06 -1.22072e+06 -423722 1.383e+06 79434.7
211 1 Mg 4.60705 126.888 2.9755 1.2 -8.24137 -757960 3.71139e+06 -738134 875237 -1.91936e+06 133869
212 1 Mg 4.55986 123.883 4.39508 1.2 -9.05918 2.50997e+06 332220 2.56862e+06 -708611 -332049 273769
213 2 Si 6.67341 125.671 4.35241 2.4 -34.5945 8.18763e+06 9.35273e+06 9.45208e+06 -983939 346865 -1.97522e+06
214 3 O 3.516 125.688 4.43213 -1.2 -8.80372 -2.58733e+06 -2.54006e+06 -4.36463e+06 438408 1.90827e+06 771654
215 3 O 5.82941 122.226 4.32915 -1.2 -8.79505 -3.5476e+06 -2.13856e+06 -2.03683e+06 1.48356e+06 193561 -1.12998e+06
216 3 O 5.93819 125.103 3.1471 -1.2 -8.76651 -3.77296e+06 -4.69893e+06 -2.8203e+06 -487270 -355067 -658750
217 1 Mg 4.72802 126.725 -0.0191618 1.2 -7.96341 35529.5 3.3389e+06 879004 534602 533164 -2.70559e+06
218 3 O 6.16472 125.086 5.78451 -1.2 -7.69912 -5.35026e+06 -3.35444e+06 -272770 -283786 -539969 -202675
219 1 Mg 4.7124 129.596 1.41077 1.2 -8.84825 2.36003e+06 -621856 2.30745e+06 -574167 313276 -951024
220 2 Si 2.61996 127.834 1.49844 2.4 -34.5773 6.02186e+06 8.26674e+06 6.46702e+06 -570920 -1.50174e+06 -3.22372e+06
221 3 O 5.81568 127.694 1.5179 -1.2 -8.96571 -4.46593e+06 -4.02636e+06 -3.63955e+06 -61021 -199181 1.42678e+06
222 3 O 3.67602 131.318 1.33417 -1.2 -8.82605 -3.43817e+06 -3.58903e+06 -3.75828e+06 916722 -458125 1.56748e+06
223 3 O 3.29829 128.432 0.191518 -1.2 -8.39144 -3.60035e+06 -4.4434e+06 -4.3417e+06 519282 -1.04817e+06 2.33628e+06
224 3 O 3.25174 128.502 2.67198 -1.2 -8.5128 -4.8589e+06 -6.24072e+06 -5.97779e+06 -145274 -254920 -2.05437e+06
225 1 Mg 2.29259 131.863 -0.0197872 1.2 -8.39084 -164692 3.72039e+06 -407816 -1.23897e+06 -2.02781e+06 -2.3171e+06
226 1 Mg 6.89268 134.83 1.29369 1.2 -8.46793 2.50446e+06 523128 2.18547e+06 886586 -9145.16 -212929
227 2 Si 4.27415 132.869 1.46956 2.4 -33.7154 6.88656e+06 9.93376e+06 8.85577e+06 -371763 722695 -783760
228 3 O 5.84274 132.791 1.41007 -1.2 -9.18532 -1.99458e+06 -3.1121e+06 -4.40199e+06 -922525 -12433.9 151164
229 3 O 3.31949 136.594 1.33484 -1.2 -9.42226 -2.00514e+06 -3.91874e+06 -2.57788e+06 -978947 402653 162970
230 3 O 3.56181 133.526 0.14992 -1.2 -8.63377 -3.38562e+06 -3.25112e+06 -1.7882e+06 -510816 737472 648325
231 1 Mg 2.36137 142.133 2.83241 1.2 -7.8428 -1.13528e+06 3.69468e+06 -330303 -555193 1.89553e+06 1.20664e+06
232 3 O 3.65103 133.525 2.71926 -1.2 -9.03334 -3.76362e+06 -2.19404e+06 -3.6624e+06 449662 -51545.7 -62985.5
233 1 Mg 2.20223 139.289 4.37282 1.2 -7.8606 1.44205e+06 -19149.2 2.38827e+06 702434 159807 -178825
234 2 Si 5.018 141.204 4.41497 2.4 -32.7093 4.20309e+06 9.79466e+06 8.34254e+06 1.35882e+06 -474328 -99494.7
235 3 O 3.50563 141.38 4.44049 -1.2 -9.76039 -3.35431e+06 -3.4892e+06 -3.40507e+06 344414 80884.7 173796
236 3 O 6.13959 137.503 4.46792 -1.2 -9.50454 -2.3016e+06 -4.23409e+06 -2.27508e+06 -1.67553e+06 164519 -314175
237 3 O 5.6794 140.428 3.14371 -1.2 -9.38248 -2.22298e+06 -4.1739e+06 -2.21538e+06 -480870 -1.32968e+06 -420292
238 3 O 5.67328 140.644 5.72454 -1.2 -9.52216 -2.75589e+06 -3.95517e+06 -3.19154e+06 -633949 154862 1.2896e+06
239 1 Mg 4.73683 137.121 2.87964 1.2 -7.56075 -1.83867e+06 4.37571e+06 972710 810677 -1.01733e+06 1.8157e+06
240 1 Mg 4.65183 134.079 4.39234 1.2 -8.50863 2.41454e+06 580587 2.11488e+06 -447418 108083 -563473
241 2 Si 6.82692 136.017 4.33357 2.4 -32.8935 5.30395e+06 1.16281e+07 8.97291e+06 73406 -1.2161e+06 803351
242 3 O 3.60162 136.056 4.36477 -1.2 -9.82475 -2.71961e+06 -4.11686e+06 -2.62239e+06 240293 -47032.4 -721436
243 3 O 5.73484 132.327 4.38683 -1.2 -8.80729 -2.86216e+06 -3.05472e+06 -3.71927e+06 2.22949e+06 423895 -318340
244 3 O 6.13043 135.395 3.032 -1.2 -9.1445 -3.2965e+06 -2.60992e+06 -2.17241e+06 573623 1.17853e+06 -384295
245 1 Mg 4.64141 137.212 -0.186717 1.2 -7.85954 -1.53095e+06 4.94176e+06 -1.06797e+06 1.20614e+06 1.82435e+06 -1.52108e+06
246 3 O 6.09805 135.234 5.66922 -1.2 -8.9881 -1.21795e+06 -2.79193e+06 249467 519448 -1.49002e+06 -1.24377e+06
247 1 Mg 4.6796 139.956 1.47159 1.2 -8.24765 1.11046e+06 544424 2.04026e+06 -680747 -492742 -120164
248 2 Si 2.64191 138.055 1.42293 2.4 -32.2543 6.54215e+06 1.18632e+07 8.5017e+06 -145882 885600 -391272
249 3 O 5.8054 137.985 1.3442 -1.2 -9.85702 -293332 -4.59049e+06 -2.96956e+06 293229 398106 318532
250 3 O 3.77197 141.767 1.52387 -1.2 -9.12513 -4.16169e+06 -6.25195e+06 -3.29235e+06 1.40222e+06 598730 -1.15353e+06
251 3 O 3.36244 138.878 0.174456 -1.2 -9.25676 -3.31732e+06 -3.38829e+06 -692543 1.04518e+06 -1.58362e+06 119566
252 3 O 3.36086 138.672 2.78039 -1.2 -9.53804 -1.55711e+06 -3.22259e+06 -1.52913e+06 377387 1.4962e+06 149334
253 1 Mg 2.37888 142.168 -0.0880675 1.2 -8.08103 -1.02506e+06 4.24792e+06 -336491 -957419 -1.64901e+06 -1.13967e+06
254 1 Mg 7.0997 145.101 1.51216 1.2 -8.6421 1.648e+06 -1.02087e+06 1.81851e+06 1.04724e+06 379450 -144244
255 2 Si 4.41504 143.244 1.37254 2.4 -33.9896 6.80627e+06 9.32504e+06 7.70278e+06 -367708 432000 -501140
256 3 O 5.96977 143.099 1.35428 -1.2 -9.1083 -2.98492e+06 -3.82472e+06 -4.21189e+06 -1.0237e+06 -334943 -322228
257 3 O 3.43056 146.747 1.29519 -1.2 -8.9138 -3.48545e+06 -7.44349e+06 -3.53224e+06 -126065 -320958 -1.15616e+06
258 3 O 3.79546 143.806 -0.000558796 -1.2 -8.39572 -4.17737e+06 -3.10443e+06 -2.71936e+06 286095 758158 -620628
259 1 Mg 1.56277 151.961 1.95644 1.2 -8.17783 -142283 -1.8396e+06 1.31639e+06 260876 65443.6 -170732
260 3 O 3.67982 143.968 2.53084 -1.2 -8.96521 -4.1206e+06 -5.03723e+06 -3.48275e+06 246400 -488823 -1.55206e+06
261 1 Mg 1.76282 149.827 4.81494 1.2 -9.11861 -302303 3.75826e+06 -89710.5 368597 699412 1.09635e+06
262 2 Si 3.89129 150.433 3.04241 2.4 -34.9185 9.40017e+06 8.00745e+06 6.54799e+06 -875484 -291636 -1.36595e+06
263 3 O 2.47875 151.001 3.34023 -1.2 -7.66675 -7.32303e+06 -3.01561e+06 -7.28569e+06 -214953 2.2004e+06 -854219
264 3 O 6.16067 147.82 4.37474 -1.2 -8.69914 -3.83316e+06 -5.36017e+06 -2.82358e+06 -665999 -570552 122129
265 3 O 4.44069 151.504 1.94072 -1.2 -8.33811 -6.95807e+06 543188 -3.90062e+06 688024 653220 -218942
266 3 O 4.75425 150.306 4.29115 -1.2 -7.96731 -9.41057e+06 -5.32754e+06 -3.58186e+06 -1.20489e+06 137175 1.17235e+06
267 1 Mg 4.88293 147.247 2.80539 1.2 -7.92755 -802513 3.82041e+06 900204 1.65198e+06 -1.50759e+06 2.00442e+06
268 1 Mg 4.54395 144.383 4.42167 1.2 -8.27205 2.2495e+06 484104 2.99548e+06 -471763 165094 883440
269 2 Si 6.82305 146.339 4.35826 2.4 -33.6833 5.99605e+06 1.10908e+07 8.08654e+06 1.18357e+06 -947913 429930
270 3 O 3.60215 146.398 4.42086 -1.2 -9.36561 -3.86131e+06 -3.69035e+06 -3.89595e+06 782848 -645930 -903522
271 3 O 5.78207 142.657 4.2634 -1.2 -9.18233 -1.9358e+06 -4.38074e+06 -3.29991e+06 669415 352585 7118.17
272 3 O 6.13118 145.653 3.13234 -1.2 -9.10498 -3.32317e+06 -4.16251e+06 -4.36261e+06 770348 1.00587e+06 -1.93761e+06