ITEM: TIMESTEP
600
ITEM: NUMBER OF ATOMS
5600
ITEM: BOX BOUNDS xy xz yz pp pp pp
0.0000000000000000e+00 7.1234999999999999e+00 0.0000000000000000e+00
0.0000000000000000e+00 2.0198500000000001e+02 2.3744999999999998e+00
0.0000000000000000e+00 1.1958400000000000e+02 0.0000000000000000e+00
ITEM: ATOMS id type element xu yu zu q c_pe c_s[1] c_s[2] c_s[3] c_s[4] c_s[5] c_s[6]
1 1 Mg -1.62965 49.8327 -0.961147 1.2 -7.5609 -1.57527e+06 -1.70642e+06 2.56506e+06 389128 -180831 432810
2 1 Mg 2.8634 51.8561 2.14421 1.2 -8.62988 -998880 4.54019e+06 144090 -40725.5 173151 -467302
3 2 Si 0.746041 51.5 0.326121 2.4 -33.785 1.05331e+07 6.57162e+06 6.86093e+06 -2.13546e+06 946.478 111374
4 3 O 2.1283 50.6543 0.504659 -1.2 -8.28387 -3.51138e+06 -1.82406e+06 -4.45105e+06 -408414 -216548 1.83973e+06
5 3 O -1.35693 54.1732 1.61223 -1.2 -8.39565 -4.58594e+06 -6.0543e+06 -3.9008e+06 -679423 581140 -89970.8
6 3 O -0.079033 50.983 -0.877599 -1.2 -9.12448 -5.86604e+06 -2.24567e+06 -6.96031e+06 244394 580421 68530
7 1 Mg -2.28182 59.8653 3.21423 1.2 -7.81043 -599540 3.9059e+06 25521.6 -906233 2.219e+06 1.65655e+06
8 3 O -0.0697057 51.4018 1.68775 -1.2 -8.5077 -6.11233e+06 -4.29902e+06 -3.64222e+06 -1.1696e+06 -1.20578e+06 -688732
9 1 Mg -2.1976 56.9811 4.51206 1.2 -8.829 1.90651e+06 -544650 3.13811e+06 504673 -145339 705901
10 2 Si 0.42726 58.8519 4.71588 2.4 -33.6086 6.38522e+06 1.07126e+07 8.8278e+06 156355 -114495 -65993.2
11 3 O -1.09746 58.9342 4.77319 -1.2 -9.37076 -3.37067e+06 -3.92275e+06 -3.59214e+06 554017 240772 228252
12 3 O 1.53967 55.2254 4.44027 -1.2 -8.88229 -5.90117e+06 -6.32112e+06 -4.09571e+06 -69372.8 58232.7 -51116.8
13 3 O 1.09183 58.0577 3.46295 -1.2 -8.80027 -3.04931e+06 -2.24128e+06 -3.55547e+06 99713.7 -1.15739e+06 419226
14 3 O 1.11189 58.1424 5.97764 -1.2 -8.6028 -3.82211e+06 -3.03963e+06 -3.67993e+06 -424421 521964 355312
15 1 Mg 0.101871 54.7076 3.10154 1.2 -8.16535 265584 3.57166e+06 -328781 376203 -1.46944e+06 1.66081e+06
16 1 Mg 0.755401 50.8855 3.29345 1.2 -8.11472 1.26662e+06 1.43107e+06 -4.51929e+06 -321714 170536 1.16491e+06
17 2 Si 2.14161 53.7864 4.48635 2.4 -34.286 7.58874e+06 6.71171e+06 7.45571e+06 1.23354e+06 1.09223e+06 451327
18 3 O -1.05111 53.9607 4.57269 -1.2 -8.60625 -3.22439e+06 -4.81929e+06 -4.70218e+06 1.6352e+06 -163842 -204727
19 3 O 2.56519 50.2753 3.35883 -1.2 -6.8184 -1.91365e+06 -154697 -2.32581e+06 -62169 397342 -1.08778e+06
20 3 O 1.62531 52.9885 3.28036 -1.2 -8.44862 -4.69049e+06 -3.60983e+06 -6.57576e+06 -1.60447e+06 624228 -31968.5
21 1 Mg 0.0026213 54.7128 0.104868 1.2 -8.14382 -1.41047e+06 2.00668e+06 375349 1.21434e+06 1.44978e+06 -2.84231e+06
22 3 O 1.47732 53.0212 5.71141 -1.2 -9.82747 -6.32678e+06 -3.60354e+06 -7.93344e+06 -9988.03 -2.39635e+06 -856202
23 1 Mg 0.197682 57.4024 1.72295 1.2 -8.59598 1.97567e+06 -489354 2.8503e+06 -629070 97621.6 263852
24 2 Si -2.00714 55.5842 1.4857 2.4 -34.2303 5.28293e+06 9.57999e+06 1.00113e+07 1.15588e+06 594932 -971024
25 3 O 1.18433 55.5054 1.52493 -1.2 -9.198 -3.58553e+06 -4.2522e+06 -5.43863e+06 631627 -499085 475321
26 3 O -0.900943 59.2084 1.73149 -1.2 -9.2459 -3.35439e+06 -3.18747e+06 -3.24483e+06 379692 -286067 142198
27 3 O -1.37551 56.2272 0.177798 -1.2 -8.63745 -4.09965e+06 -3.96112e+06 -4.91276e+06 173888 -861453 689141
28 3 O -1.31864 56.3505 2.76633 -1.2 -8.54116 -3.20256e+06 -4.15452e+06 -2.7911e+06 -116302 1.47656e+06 117537
29 1 Mg -2.28357 59.638 0.295554 1.2 -7.87617 -1.39947e+06 3.19209e+06 581498 -1.16649e+06 -1.03255e+06 -2.22899e+06
30 1 Mg 2.42888 62.5673 1.60015 1.2 -8.48151 2.78204e+06 -379665 3.37155e+06 1.4135e+06 341527 30719.5
31 2 Si -0.296295 60.7199 1.66435 2.4 -33.3324 5.41468e+06 9.95832e+06 8.51154e+06 356513 -245961 393876
32 3 O 1.30206 60.6202 1.64972 -1.2 -9.31761 -597447 -3.95986e+06 -4.9783e+06 8956.04 783310 -275725
33 3 O -1.34308 64.5385 1.6997 -1.2 -8.93287 -3.52381e+06 -3.09353e+06 -4.60387e+06 -992008 18058.4 -531942
34 3 O -0.960773 61.4507 0.47231 -1.2 -9.32605 -4.4455e+06 -1.72852e+06 -5.21972e+06 -624320 121860 407778
35 1 Mg -2.44968 70.2812 3.20612 1.2 -7.71845 -2.21876e+06 2.9663e+06 792850 -1.18488e+06 1.59792e+06 2.11757e+06
36 3 O -0.819805 61.4546 2.97456 -1.2 -8.81565 -4.02044e+06 -2.43971e+06 -3.14974e+06 -344550 23288.9 21309.3
37 1 Mg -2.23072 67.2896 4.53308 1.2 -8.24018 1.32015e+06 512143 4.08103e+06 614101 317129 -412059
38 2 Si 0.330075 69.1186 4.46347 2.4 -32.7485 6.14732e+06 8.91314e+06 1.00641e+07 -172915 553476 1.52807e+06
39 3 O -1.25124 69.1879 4.43551 -1.2 -9.63744 -830853 -3.4352e+06 -5.01324e+06 -88614.5 -935879 -10454.7
40 3 O 1.50139 65.4174 4.53527 -1.2 -8.88828 -2.58202e+06 -1.69611e+06 -4.65497e+06 -1.98457e+06 -57199.3 653587
41 3 O 1.02847 68.5214 3.16015 -1.2 -9.28877 -4.12916e+06 -1.37322e+06 -3.87892e+06 -398123 -1.18041e+06 -516921
42 3 O 0.934898 68.3941 5.73181 -1.2 -9.2955 -2.76394e+06 -2.69805e+06 -3.2044e+06 -250210 1.3793e+06 288966
43 1 Mg 0.101428 65.0068 3.04692 1.2 -8.1334 -543648 3.00008e+06 -114991 45153.9 -543145 1.54418e+06
44 1 Mg 0.107367 62.122 4.71932 1.2 -8.72725 1.85003e+06 -116711 3.6316e+06 -903032 16547.9 430830
45 2 Si 2.25403 63.8623 4.51281 2.4 -33.829 7.48062e+06 8.4807e+06 1.19209e+07 -468633 39067.3 401369
46 3 O -0.965725 64.0094 4.52209 -1.2 -9.23532 -3.1334e+06 -2.03295e+06 -5.27894e+06 758759 793479 -490203
47 3 O 1.2298 60.3178 4.67965 -1.2 -8.98913 -2.9882e+06 -3.51044e+06 -3.90387e+06 1.97279e+06 -199258 254397
48 3 O 1.48891 63.1566 3.32398 -1.2 -8.71664 -3.98529e+06 -2.47713e+06 -3.14038e+06 -336270 780814 -431178
49 1 Mg -0.0720375 64.9547 0.188114 1.2 -7.82654 -670397 2.93484e+06 1.4112e+06 936808 1.96064e+06 -1.96968e+06
50 3 O 1.59793 63.3013 5.92852 -1.2 -8.55717 -3.59738e+06 -2.84529e+06 -1.70223e+06 397486 -1.49531e+06 -562400
51 1 Mg 0.0484669 67.8733 1.58047 1.2 -8.30277 1.94184e+06 -126670 2.39506e+06 -1.1966e+06 -116180 -301687
52 2 Si -2.05086 66.0278 1.57289 2.4 -33.3381 4.89825e+06 8.86983e+06 1.04576e+07 86711.1 252309 -1.1405e+06
53 3 O 1.17339 65.878 1.66759 -1.2 -9.52821 -3.6051e+06 -3.23773e+06 -5.2042e+06 362398 248505 160788
54 3 O -0.968098 69.7631 1.59629 -1.2 -8.94421 -1.66823e+06 -6.54372e+06 -5.73538e+06 681892 -235918 224149
55 3 O -1.34949 66.6539 0.256644 -1.2 -9.08498 -1.94382e+06 -2.15391e+06 -4.37661e+06 379332 -1.15775e+06 372432
56 3 O -1.32781 66.7255 2.80464 -1.2 -8.93523 -3.40092e+06 -4.41124e+06 -3.33893e+06 20806.2 1.06495e+06 -969609
57 1 Mg -2.39913 70.2475 0.135822 1.2 -7.98402 -566989 3.27231e+06 622956 -1.02663e+06 -1.00218e+06 -867743
58 1 Mg 2.2276 73.0911 1.51399 1.2 -8.22265 289984 -1.7548e+06 2.75431e+06 -110171 -199879 121360
59 2 Si -0.326536 71.1626 1.73216 2.4 -33.2732 6.61668e+06 7.18585e+06 1.05316e+07 -104991 464625 682294
60 3 O 1.24326 71.2686 1.62028 -1.2 -9.56286 -2.72288e+06 -2.67986e+06 -4.50824e+06 -794867 551874 -709634
61 3 O -1.38233 74.64 1.61531 -1.2 -9.65082 -822148 -4.20086e+06 -3.41014e+06 -1.95207e+06 366556 596359
62 3 O -1.14165 71.8696 0.42888 -1.2 -8.72278 -3.00989e+06 -4.53198e+06 -2.06929e+06 -90057.1 1.78164e+06 959801
63 1 Mg -2.33291 80.5082 3.18864 1.2 -7.89503 -839477 2.93178e+06 883918 -536107 1.04206e+06 1.40881e+06
64 3 O -0.953738 71.6863 3.08398 -1.2 -8.94318 -2.92218e+06 -4.3068e+06 -4.33819e+06 -130137 -1.15575e+06 -1.13519e+06
65 1 Mg -2.33301 77.5292 4.64103 1.2 -7.87098 -463829 512720 3.16212e+06 1.02605e+06 284565 -246319
66 2 Si 0.307218 79.3511 4.62156 2.4 -32.2663 5.1502e+06 8.55896e+06 1.01666e+07 -144259 -369342 -520478
67 3 O -1.20874 79.4222 4.59678 -1.2 -9.76774 -2.3045e+06 -2.60318e+06 -5.25641e+06 -1.38707e+06 84718.6 306523
68 3 O 1.41018 75.6996 4.56992 -1.2 -9.95834 -1.19862e+06 -3.91096e+06 -4.54902e+06 -2.30602e+06 129088 446206
69 3 O 1.04141 78.7682 3.32797 -1.2 -9.40818 -2.95939e+06 -2.49869e+06 -2.35838e+06 485901 -860796 -300465
70 3 O 1.09328 78.7381 5.90774 -1.2 -9.84782 -2.76006e+06 -2.61663e+06 -3.23189e+06 -160899 1.16887e+06 1.22613e+06
71 1 Mg 0.0358045 75.277 3.1717 1.2 -7.0997 -2.07936e+06 3.64803e+06 -348070 756498 -1.10108e+06 1.82549e+06
72 1 Mg 0.0509321 72.4842 4.69955 1.2 -8.15398 877779 -1.07432e+06 3.07278e+06 -817489 299806 890206
73 2 Si 2.13792 74.2057 4.56749 2.4 -32.0117 4.32261e+06 9.63657e+06 1.08064e+07 -986589 -400997 249986
74 3 O -1.03921 74.2459 4.58649 -1.2 -10.1315 -493607 -3.64495e+06 -4.37631e+06 229786 272465 75500
75 3 O 1.04406 70.6259 4.68061 -1.2 -9.40755 -3.1461e+06 -2.89626e+06 -3.71541e+06 1.88324e+06 454782 518161
76 3 O 1.45398 73.5322 3.31169 -1.2 -9.50675 -3.15747e+06 -3.79364e+06 -3.03998e+06 236703 1.2528e+06 -1.4195e+06
77 1 Mg 0.0173749 75.062 0.0934768 1.2 -7.40116 -782458 4.03572e+06 112798 1.33462e+06 1.09242e+06 -1.10728e+06
78 3 O 1.47517 73.5894 5.94727 -1.2 -9.4529 -2.19657e+06 -2.56811e+06 -1.82583e+06 637715 -890296 78363.9
79 1 Mg 0.0288427 77.952 1.71453 1.2 -7.84647 1.27004e+06 1.1108e+06 3.25442e+06 -1.20772e+06 -341062 662962
80 2 Si -2.03492 76.1947 1.64818 2.4 -31.9094 3.59839e+06 1.11031e+07 9.12917e+06 -1.14077e+06 -394413 1.26085e+06
81 3 O 1.14461 76.1217 1.70472 -1.2 -10.2066 -433342 -3.37712e+06 -4.30253e+06 193323 -602687 492365
82 3 O -1.04189 79.923 1.68861 -1.2 -8.87583 -2.15399e+06 -2.65507e+06 -3.05196e+06 2.07295e+06 -153718 -123466
83 3 O -1.31794 76.8441 0.425601 -1.2 -9.61936 -2.5956e+06 -3.81442e+06 -1.96271e+06 122447 -326724 219981
84 3 O -1.41372 76.8602 3.0031 -1.2 -9.78938 -2.20602e+06 -3.25316e+06 -2.26371e+06 312242 1.47386e+06 -53053.7
85 1 Mg -2.38247 80.0991 0.161203 1.2 -7.74785 -1.09945e+06 3.36907e+06 -283327 -792629 -1.07003e+06 -1.00499e+06
86 1 Mg 2.34997 83.2516 1.57383 1.2 -8.33553 1.69912e+06 1.22478e+06 2.85181e+06 231698 299769 -253139
87 2 Si -0.223679 81.443 1.63997 2.4 -33.1532 6.70687e+06 1.03845e+07 9.01745e+06 388433 6183.99 -645247
88 3 O 1.29507 81.2618 1.6086 -1.2 -9.63832 -3.67008e+06 -2.7513e+06 -3.69635e+06 -179271 13826.6 660724
89 3 O -1.37746 85.1198 1.53973 -1.2 -9.41423 -3.60894e+06 -3.37048e+06 -2.56702e+06 44242.5 -427298 683803
90 3 O -0.978333 82.1217 0.37153 -1.2 -8.98095 -2.81794e+06 -2.81325e+06 -3.22442e+06 -639166 2.25721e+06 783762
91 1 Mg -2.39081 90.7943 3.31567 1.2 -7.82527 -1.08282e+06 2.89723e+06 593271 -522536 1.48383e+06 1.3241e+06
92 3 O -0.971652 82.0725 2.89824 -1.2 -9.20379 -1.5295e+06 -4.17752e+06 -3.70949e+06 -844371 -1.66479e+06 -677440
93 1 Mg -2.27054 88.019 4.64796 1.2 -8.13896 1.01589e+06 -999217 3.75479e+06 928301 -253258 -35440.5
94 2 Si 0.367463 89.8253 4.88088 2.4 -32.5066 3.44111e+06 8.42495e+06 1.00499e+07 167685 -76633.3 140995
95 3 O -1.14354 89.8614 4.77326 -1.2 -9.93099 -3.11017e+06 -2.92442e+06 -5.49271e+06 59820.6 197824 359748
96 3 O 1.46216 86.242 4.55003 -1.2 -9.38295 -1.45462e+06 -3.70556e+06 -4.19475e+06 -1.59328e+06 -645323 1.15948e+06
97 3 O 1.08168 89.1186 3.57411 -1.2 -9.1621 -2.87483e+06 -2.7929e+06 -3.22885e+06 -99384.6 -645918 -70664
98 3 O 1.06158 89.1633 6.10455 -1.2 -9.52784 -2.36292e+06 -3.2602e+06 -6.6703e+06 -271827 957161 1.02211e+06
99 1 Mg -0.012905 85.8086 3.1144 1.2 -7.46236 -2.33887e+06 3.33585e+06 511168 1.13271e+06 -1.40109e+06 2.70896e+06
100 1 Mg -0.0168959 82.8592 4.57653 1.2 -8.04539 905120 1.107e+06 3.44516e+06 -584152 -170791 -70736.5
101 2 Si 2.10354 84.7345 4.41392 2.4 -32.2959 5.94316e+06 9.30164e+06 1.06275e+07 -129195 324004 1.81073e+06
102 3 O -1.08054 84.7547 4.4175 -1.2 -9.96635 -1.44027e+06 -2.84149e+06 -4.94472e+06 811298 828939 -700352
103 3 O 0.954974 80.9254 4.65705 -1.2 -9.41837 -2.0216e+06 -1.51492e+06 -3.42137e+06 1.53957e+06 -450831 -151661
104 3 O 1.33967 84.0405 3.1402 -1.2 -9.30595 -2.40088e+06 -1.04518e+06 -3.10609e+06 493847 1.7501e+06 710213
105 1 Mg -0.00703742 85.7083 -0.0220118 1.2 -7.51452 -145319 3.81144e+06 783074 1.06895e+06 1.43175e+06 -1.44691e+06
106 3 O 1.32558 84.0884 5.70872 -1.2 -9.54513 -2.30937e+06 -3.52696e+06 -2.60027e+06 557157 -2.13018e+06 142677
107 1 Mg 0.0121055 88.5365 1.84028 1.2 -8.07817 1.78746e+06 -407275 2.94362e+06 -1.85309e+06 203710 266158
108 2 Si -1.95897 86.5866 1.55579 2.4 -32.4842 5.35559e+06 1.09277e+07 7.83308e+06 237866 -7231.77 992664
109 3 O 1.18954 86.5633 1.60888 -1.2 -9.59749 579051 -4.49035e+06 -2.90245e+06 312418 419116 235774
110 3 O -1.02302 90.3851 1.85021 -1.2 -8.99795 -1.50183e+06 -3.27261e+06 -3.95481e+06 1.40832e+06 278005 -13965.7
111 3 O -1.35358 87.2459 0.198843 -1.2 -9.54897 -2.35295e+06 -3.6996e+06 -1.4959e+06 266178 -1.15786e+06 395579
112 3 O -1.27276 87.4 2.79054 -1.2 -9.64975 -3.73514e+06 -2.4803e+06 -2.41985e+06 268120 1.06794e+06 588679
113 1 Mg -2.47437 90.8503 0.30348 1.2 -7.71905 -1.11444e+06 2.68865e+06 1.48904e+06 -1.14315e+06 -924693 -2.32806e+06
114 1 Mg 2.22988 93.6516 1.53087 1.2 -8.05258 679018 -1.09021e+06 2.35883e+06 541867 -188767 -425831
115 2 Si -0.278188 91.8955 1.81981 2.4 -33.1332 5.43891e+06 8.84158e+06 1.02983e+07 496597 -454603 -996261
116 3 O 1.2595 91.7958 1.81705 -1.2 -9.80813 -3.49653e+06 -3.27495e+06 -4.73145e+06 -237931 -208332 -291204
117 3 O -1.28902 95.3061 1.58358 -1.2 -9.89883 -1.17743e+06 -3.47661e+06 -3.81658e+06 -1.16553e+06 253282 -259785
118 3 O -0.98365 92.5452 0.56788 -1.2 -9.08891 -2.57769e+06 -3.51488e+06 -3.55174e+06 44205.4 1.2041e+06 1.10337e+06
119 1 Mg -2.37098 100.783 3.07259 1.2 -7.5182 -1.9783e+06 2.73954e+06 -385217 -1.95947e+06 1.92588e+06 1.73146e+06
120 3 O -0.967404 92.4842 3.14701 -1.2 -9.05019 -2.46113e+06 -3.51464e+06 -3.9141e+06 -250924 -1.27103e+06 -832440
121 1 Mg -2.2591 98.2102 4.71983 1.2 -7.94877 422993 -806648 3.528e+06 608934 -609627 825482
122 2 Si 0.41684 100.068 4.70338 2.4 -32.3024 4.79947e+06 8.69653e+06 1.04829e+07 671292 602482 -136064
123 3 O -1.11767 100.073 4.62981 -1.2 -9.84408 -1.61593e+06 -2.65658e+06 -5.35146e+06 -667213 898246 259634
124 3 O 1.50582 96.5291 4.55139 -1.2 -9.87361 -1.7307e+06 -1.98336e+06 -3.05422e+06 -715231 -179840 1.45687e+06
125 3 O 1.11325 99.3735 3.41299 -1.2 -9.45355 -4.42662e+06 -4.42976e+06 -1.65038e+06 -1.14253e+06 -746578 -151708
126 3 O 1.19022 99.5544 6.01965 -1.2 -9.50432 -3.27705e+06 -2.41454e+06 -2.67995e+06 2264.35 1.20864e+06 532649
127 1 Mg 0.126252 95.8672 3.06505 1.2 -6.85978 -2.69934e+06 3.74425e+06 86465.9 1.38118e+06 -1.54399e+06 2.44144e+06
128 1 Mg 0.0383271 93.0866 4.71858 1.2 -7.82119 1.44439e+06 -855346 3.1376e+06 -1.47842e+06 -382028 269023
129 2 Si 2.03445 94.9029 4.50711 2.4 -31.6087 3.77228e+06 1.07358e+07 8.84108e+06 -434175 -432583 338432
130 3 O -1.11957 95.0341 4.6831 -1.2 -10.0033 1.19884e+06 -3.6912e+06 -4.1829e+06 917815 369831 72232.6
131 3 O 1.09508 91.2977 4.82019 -1.2 -9.54449 -1.99982e+06 -3.49534e+06 -4.86733e+06 878059 -376192 -660843
132 3 O 1.4013 94.2433 3.26808 -1.2 -10.136 -2.87751e+06 -3.30798e+06 -4.14198e+06 404317 332677 -493994
133 1 Mg 0.0580997 95.8476 0.127083 1.2 -7.49992 -1.89601e+06 3.8036e+06 -443867 734416 1.02296e+06 -1.84789e+06
134 3 O 1.38824 94.2897 5.83423 -1.2 -9.64559 -3.42354e+06 -2.82091e+06 -1.97775e+06 231718 -270594 -212105
135 1 Mg 0.212078 98.6176 1.6441 1.2 -7.99427 1.29517e+06 -662620 3.87891e+06 -711231 121432 778917
136 2 Si -1.95998 96.809 1.59873 2.4 -31.5773 3.98598e+06 1.14059e+07 1.09085e+07 828017 225062 1.47633e+06
137 3 O 1.18715 96.6801 1.61295 -1.2 -10.4581 163894 -3.5077e+06 -4.88553e+06 254312 474987 -231507
138 3 O -1.01602 100.337 1.66818 -1.2 -9.36776 -1.37422e+06 -3.01678e+06 -3.28971e+06 1.0816e+06 238528 -995906
139 3 O -1.33389 97.5626 0.297871 -1.2 -9.37601 -1.65649e+06 -3.17836e+06 -3.57609e+06 268363 -1.22173e+06 -1.43536e+06
140 3 O -1.22064 97.579 2.85691 -1.2 -9.47715 -931937 -2.36553e+06 -2.25876e+06 257102 1.43202e+06 801210
141 1 Mg -2.35675 100.994 0.0620844 1.2 -7.3581 -1.77051e+06 3.85229e+06 410129 -913369 -993580 -1.05405e+06
142 1 Mg 7.10875 103.696 1.66784 1.2 -8.41183 2.95751e+06 24849.7 2.97549e+06 1.04182e+06 -64516.1 -199057
143 2 Si -0.280072 101.859 1.60668 2.4 -32.8678 3.85679e+06 1.19384e+07 6.76711e+06 977539 -75918.3 -483903
144 3 O 1.26458 101.783 1.60422 -1.2 -9.81638 -2.40065e+06 -4.26283e+06 -4.00908e+06 904583 378251 167407
145 3 O 3.50525 105.606 1.42847 -1.2 -8.82026 -2.86471e+06 -2.32506e+06 -2.28537e+06 -800677 369786 -185050
146 3 O -0.92575 102.637 0.401292 -1.2 -9.25323 -3.27575e+06 -2.45112e+06 -5.25487e+06 -573044 250874 -147682
147 1 Mg 2.33712 111.443 2.96802 1.2 -8.06758 -23764.1 2.6877e+06 1.69324e+06 -1.30297e+06 1.22883e+06 1.69643e+06
148 3 O -0.892464 102.618 2.81809 -1.2 -9.15602 -3.09151e+06 -2.71019e+06 -5.55112e+06 -377646 -426215 10746.7
149 1 Mg 2.48063 108.429 4.45226 1.2 -8.25606 2.49501e+06 -346331 4.89409e+06 980249 -17259.2 -263312
150 2 Si 5.13933 110.343 4.50299 2.4 -33.7339 6.68328e+06 7.34595e+06 1.16093e+07 319057 -239527 552121
151 3 O 3.55447 110.403 4.5541 -1.2 -9.10702 -1.59647e+06 -1.89165e+06 -5.92055e+06 -704921 481223 -529165
152 3 O 6.04491 106.616 4.64893 -1.2 -9.26591 -2.98127e+06 -3.8542e+06 -5.71419e+06 -327316 -779940 -758659
153 3 O 5.7672 109.762 3.17318 -1.2 -9.0542 -3.81447e+06 -1.58783e+06 -3.02695e+06 -196837 -425651 -1.45391e+06
154 3 O 5.82502 109.775 5.78964 -1.2 -8.77488 -5.2781e+06 -2.99004e+06 -3.16953e+06 -50888.4 749471 -154692
155 1 Mg 4.87576 106.221 3.11074 1.2 -7.69068 -1.65397e+06 3.14902e+06 1.88181e+06 894864 -1.98561e+06 1.91206e+06
156 1 Mg -0.0800234 103.292 4.52906 1.2 -8.06193 1.34292e+06 -372041 3.62955e+06 -864901 -281199 560335
157 2 Si 6.79167 105.198 4.54444 2.4 -33.097 4.27146e+06 7.0063e+06 1.12377e+07 144010 106314 1.23218e+06
158 3 O 3.57451 105.26 4.61336 -1.2 -9.59454 -3.1239e+06 -2.56797e+06 -4.76002e+06 -478026 907140 -661794
159 3 O 1.09115 101.576 4.56264 -1.2 -9.5315 -1.34427e+06 -4.19354e+06 -4.75627e+06 1.46324e+06 -765356 138487
160 3 O 6.09879 104.521 3.3069 -1.2 -9.40027 -2.35019e+06 -2.09807e+06 -4.33224e+06 28741 -354853 -991811
161 1 Mg 4.88806 106.023 0.0532035 1.2 -8.23013 -1.0451e+06 3.44366e+06 810253 691802 1.33604e+06 -1.27492e+06
162 3 O 6.23095 104.488 5.90909 -1.2 -8.70814 -3.89341e+06 -3.24067e+06 -1.61738e+06 -304770 -420744 -259229
163 1 Mg 4.80319 109.174 1.45519 1.2 -8.68592 2.71705e+06 17135.2 2.38382e+06 -836763 -39517.6 1.06313e+06
164 2 Si 2.80119 107.128 1.43587 2.4 -33.6898 6.84304e+06 9.83259e+06 7.91211e+06 -241830 767414 1.68754e+06
165 3 O 6.03369 107.008 1.49507 -1.2 -9.3022 -3.96254e+06 -3.36172e+06 -2.73193e+06 461985 -40483.6 -562028
166 3 O 3.75652 110.953 1.4837 -1.2 -8.65461 -2.09117e+06 -3.50443e+06 -3.50742e+06 1.46075e+06 -195092 -75063.1
167 3 O 3.5112 107.843 0.255131 -1.2 -8.73586 -3.35183e+06 -1.8118e+06 -4.84312e+06 320171 -328845 -215770
168 3 O 3.50377 107.891 2.72359 -1.2 -8.9606 -1.8439e+06 -571606 -3.49195e+06 507922 504149 -715642
169 1 Mg 2.29262 111.418 -0.0943829 1.2 -8.16068 -545747 2.83184e+06 995259 -360304 -768141 -1.49923e+06
170 1 Mg 7.01039 114.234 1.51496 1.2 -8.45604 1.12715e+06 -535274 2.5324e+06 915244 -251865 494771
171 2 Si 4.44196 112.483 1.49175 2.4 -33.7605 7.10527e+06 8.63399e+06 1.04318e+07 337134 9019.56 -182546
172 3 O 5.99486 112.383 1.39885 -1.2 -9.39722 -3.60251e+06 -2.90032e+06 -4.59735e+06 -896468 -812854 407667
173 3 O 3.59198 115.91 1.51365 -1.2 -9.10358 -1.22912e+06 -5.76854e+06 -3.88659e+06 -480842 337513 526676
174 3 O 3.78029 113.088 0.153974 -1.2 -8.61626 -3.40731e+06 -3.62958e+06 -3.75686e+06 -71620.1 1.5199e+06 691773
175 1 Mg 2.40959 121.707 2.89467 1.2 -7.48576 -1.49685e+06 3.68965e+06 -216428 -1.58517e+06 3.02963e+06 1.60512e+06
176 3 O 3.62797 113.084 2.7014 -1.2 -8.80141 -3.0368e+06 -4.24992e+06 -3.90728e+06 552447 -955260 -1.47893e+06
177 1 Mg 2.58391 118.852 4.38352 1.2 -8.31533 2.0586e+06 876428 2.87852e+06 856918 499542 -370587
178 2 Si 5.16163 120.661 4.4007 2.4 -33.1999 4.95389e+06 1.03729e+07 7.26057e+06 217853 -537327 -109083
179 3 O 3.6055 120.76 4.46086 -1.2 -9.56879 -2.24864e+06 -3.3577e+06 -3.67483e+06 -225241 362477 16322
180 3 O 6.30595 116.911 4.54665 -1.2 -9.13471 -2.69022e+06 -3.29549e+06 -3.72141e+06 -281361 373270 -279153
181 3 O 5.77931 119.929 3.16248 -1.2 -9.08386 -2.77968e+06 -3.41841e+06 -4.57191e+06 -632115 -352620 -337521
182 3 O 5.86841 120.049 5.64212 -1.2 -9.22989 -3.68318e+06 -3.08121e+06 -3.8725e+06 -494015 113785 1.06472e+06
183 1 Mg 4.97394 116.305 3.13576 1.2 -7.66954 -599350 3.46404e+06 204550 1.51677e+06 -1.65912e+06 1.58183e+06
184 1 Mg 4.64434 113.583 4.62572 1.2 -8.39749 1.59663e+06 -1.49704e+06 4.00163e+06 82009 643611 172018
185 2 Si 6.85302 115.382 4.63338 2.4 -33.1 5.02222e+06 1.02995e+07 9.33246e+06 629533 -2.16928e+06 -882213
186 3 O 3.69354 115.458 4.58941 -1.2 -9.64852 -1.36252e+06 -3.61067e+06 -4.26078e+06 1.12012e+06 -1.39814e+06 354866
187 3 O 5.67786 111.929 4.43995 -1.2 -8.86829 -2.88124e+06 -2.56992e+06 -4.61161e+06 581770 441460 -558088
188 3 O 6.24908 114.727 3.34018 -1.2 -9.14776 -4.27621e+06 -4.5474e+06 -2.73259e+06 881734 797791 -995081
189 1 Mg 4.968 116.345 -0.0183672 1.2 -7.80806 -1.22192e+06 2.5474e+06 673204 1.78027e+06 1.78424e+06 -1.06095e+06
190 3 O 6.11066 114.771 5.92573 -1.2 -9.05178 -1.96623e+06 -2.81754e+06 -3.23247e+06 177537 -1.00051e+06 260843
191 1 Mg 5.11965 119.161 1.42312 1.2 -8.32386 1.6228e+06 582638 1.9163e+06 -829976 312665 59971.3
192 2 Si 2.94115 117.365 1.58836 2.4 -33.2974 5.31194e+06 8.84092e+06 9.64125e+06 -76231.1 -558796 248513
193 3 O 6.13678 117.346 1.57819 -1.2 -9.59571 -2.64817e+06 -2.6192e+06 -3.71237e+06 671106 -228830 -610077
194 3 O 3.65269 120.957 1.42051 -1.2 -9.24052 -2.66684e+06 -3.08921e+06 -2.66789e+06 -401248 120751 703660
195 3 O 3.61926 117.978 0.229508 -1.2 -9.12666 -2.14254e+06 -4.51923e+06 -1.20912e+06 -57111.6 -668033 688625
196 3 O 3.56187 118.016 2.89238 -1.2 -9.03289 -3.56391e+06 -3.09519e+06 -2.67901e+06 -834553 803232 -365404
197 1 Mg 2.26642 121.542 -0.175904 1.2 -8.00788 -691523 3.4613e+06 -668617 -1.30004e+06 -1.87679e+06 -1.99583e+06
198 1 Mg 6.98963 124.469 1.41077 1.2 -8.48301 3.80628e+06 4470.14 2.82798e+06 1.10228e+06 -259251 1.26001e+06
199 2 Si 4.2515 122.424 1.40337 2.4 -33.5039 6.10151e+06 1.11772e+07 7.28308e+06 109086 412980 1.03905e+06
200 3 O 5.87794 122.394 1.29105 -1.2 -9.01041 -310743 -3.97745e+06 -3.96157e+06 644370 -81810 208451
201 3 O 3.30805 126.291 1.47495 -1.2 -9.31706 -2.69151e+06 -3.60402e+06 -2.92731e+06 -822893 -511124 -894141
202 3 O 3.69373 123.191 0.166896 -1.2 -8.67111 -5.01829e+06 -2.63972e+06 -3.41421e+06 149334 -486448 621.908
203 1 Mg 2.23621 131.778 2.8555 1.2 -8.4981 312365 3.40265e+06 387893 -1.06385e+06 1.60805e+06 1.69257e+06
204 3 O 3.73838 123.257 2.67525 -1.2 -9.11375 -3.63376e+06 -2.61859e+06 -4.09107e+06 -1.11669e+06 -296851 -65262.8
205 1 Mg 2.34428 128.965 4.45091 1.2 -8.84491 2.05361e+06 132186 1.49121e+06 732330 186826 -64377.3
206 2 Si 4.93112 130.795 4.39927 2.4 -35.1663 8.17855e+06 1.04409e+07 7.33482e+06 735945 -654181 -478374
207 3 O 3.40577 130.906 4.39973 -1.2 -8.5718 -4.92895e+06 -4.10403e+06 -3.41389e+06 -268677 -984763 245509
208 3 O 6.01288 127.297 4.42959 -1.2 -8.9904 -1.14759e+06 -3.3249e+06 -3.09558e+06 -1.89746e+06 -347066 -250971
209 3 O 5.66965 130.199 3.1376 -1.2 -8.49864 -4.37535e+06 -5.11543e+06 -3.56546e+06 -266229 -866450 -1.71346e+06
210 3 O 5.53024 130.181 5.7058 -1.2 -8.07305 -5.30852e+06 -4.01893e+06 -2.35991e+06 197620 1.04204e+06 1.24107e+06
211 1 Mg 4.57758 126.894 2.94806 1.2 -7.84642 -1.03303e+06 4.74713e+06 -529211 1.31327e+06 -1.66909e+06 2.13017e+06
212 1 Mg 4.56445 123.871 4.36554 1.2 -8.56197 1.09543e+06 -322528 3.25703e+06 -1.1194e+06 -534292 -272724
213 2 Si 6.67304 125.675 4.41284 2.4 -33.3401 6.82474e+06 1.01721e+07 8.86346e+06 -1.11934e+06 1.35403e+06 451071
214 3 O 3.49166 125.655 4.40191 -1.2 -9.32585 -1.72879e+06 -2.31363e+06 -4.67105e+06 598573 1.61461e+06 -262532
215 3 O 5.84338 122.175 4.30114 -1.2 -9.23412 -2.27789e+06 -4.45411e+06 -3.31008e+06 1.3598e+06 161303 282541
216 3 O 5.92072 125.066 3.1439 -1.2 -8.94059 -3.75497e+06 -2.51104e+06 -1.48109e+06 -499675 200262 -588587
217 1 Mg 4.69861 126.722 -0.0349597 1.2 -7.64662 -802669 4.66486e+06 548473 898911 1.04348e+06 -1.03501e+06
218 3 O 6.1469 125.116 5.76699 -1.2 -8.85099 -4.83275e+06 -2.64491e+06 -1.97696e+06 -734368 -97004.9 429683
219 1 Mg 4.6708 129.67 1.46509 1.2 -8.57373 2.05569e+06 -695004 2.35658e+06 -625829 -35580.6 225989
220 2 Si 2.63361 127.801 1.45242 2.4 -32.9328 6.48344e+06 1.1945e+07 8.03692e+06 -393822 -736051 827519
221 3 O 5.79298 127.688 1.47091 -1.2 -9.53746 -238723 -4.35239e+06 -3.28276e+06 18813.6 58638.2 -149250
222 3 O 3.6595 131.351 1.39753 -1.2 -8.72479 -4.24094e+06 -4.37206e+06 -4.37559e+06 746716 62252.6 -615605
223 3 O 3.26397 128.486 0.13738 -1.2 -9.14243 -3.2001e+06 -3.48377e+06 -1.79013e+06 615555 -1.31044e+06 -323452
224 3 O 3.28956 128.507 2.7439 -1.2 -9.15964 -4.19662e+06 -3.84184e+06 -2.07795e+06 591636 1.02244e+06 -1.03256e+06
225 1 Mg 2.25371 131.862 -0.0568484 1.2 -8.16584 -248576 3.29737e+06 -313986 -1.25422e+06 -1.87601e+06 -1.37902e+06
226 1 Mg 6.91545 134.8 1.30477 1.2 -8.30102 2.13904e+06 1.45783e+06 2.18787e+06 952106 101376 -246736
227 2 Si 4.25291 132.902 1.44056 2.4 -33.8823 6.28551e+06 9.47004e+06 8.59656e+06 -139947 38968 383737
228 3 O 5.81202 132.74 1.38749 -1.2 -9.10152 -2.45424e+06 -3.23463e+06 -4.41269e+06 -1.03906e+06 34134.9 -482904
229 3 O 3.26071 136.613 1.33233 -1.2 -9.0906 -2.70774e+06 -5.34088e+06 -2.65392e+06 -135613 316411 56766.1
230 3 O 3.58124 133.529 0.149467 -1.2 -9.16644 -3.0861e+06 -3.75122e+06 -1.89065e+06 -132266 411838 682673
231 1 Mg 2.35879 142.154 2.83767 1.2 -8.28673 319871 4.4382e+06 -1.40801e+06 -357028 1.45157e+06 788269
232 3 O 3.64316 133.474 2.74579 -1.2 -8.72867 -3.87767e+06 -3.9003e+06 -2.72909e+06 503677 -241077 -830950
233 1 Mg 2.24177 139.28 4.33176 1.2 -8.66566 2.58821e+06 667272 1.73704e+06 939535 455814 -679572
234 2 Si 5.02517 141.243 4.43791 2.4 -33.8818 7.0785e+06 1.13798e+07 7.65826e+06 -116813 -718127 -1.54599e+06
235 3 O 3.45026 141.344 4.39522 -1.2 -9.09784 -1.96564e+06 -4.31561e+06 -2.96372e+06 -212361 -90903.2 967494
236 3 O 6.1612 137.471 4.37969 -1.2 -8.67325 -2.61009e+06 -5.65014e+06 -1.98601e+06 -1.82221e+06 362885 -376339
237 3 O 5.7 140.474 3.13717 -1.2 -8.69122 -3.20531e+06 -3.90031e+06 -913562 -115214 -1.14564e+06 484224
238 3 O 5.63389 140.543 5.71641 -1.2 -8.86611 -3.94025e+06 -3.54207e+06 -2.62439e+06 -483976 622442 972738
239 1 Mg 4.68264 137.1 2.8803 1.2 -8.05359 -339060 4.57378e+06 313665 813284 -942391 1.40362e+06
240 1 Mg 4.66758 134.091 4.38649 1.2 -9.06666 2.47451e+06 1.38609e+06 1.73407e+06 -305948 -102394 -495369
241 2 Si 6.8164 135.965 4.3336 2.4 -34.1167 7.66074e+06 1.22326e+07 6.76032e+06 -502461 -386603 -194424
242 3 O 3.62522 136.004 4.36596 -1.2 -9.31471 -3.53204e+06 -4.3401e+06 -1.79589e+06 671577 17799.5 3265.57
243 3 O 5.66674 132.31 4.37575 -1.2 -8.05666 -4.284e+06 -4.88995e+06 -2.87e+06 1.76692e+06 604850 -497612
244 3 O 6.0879 135.391 3.02587 -1.2 -8.68372 -3.12791e+06 -4.08181e+06 -2.26017e+06 301129 1.57808e+06 -464682
245 1 Mg 4.60908 137.226 -0.198686 1.2 -7.78366 -514291 4.25102e+06 -582377 1.03131e+06 1.46717e+06 -1.47736e+06
246 3 O 6.0767 135.241 5.57904 -1.2 -8.57179 -2.62653e+06 -3.86223e+06 -1.20268e+06 -71833.2 -1.25628e+06 391312
247 1 Mg 4.70585 139.915 1.39571 1.2 -8.46333 1.86766e+06 1.00072e+06 1.62709e+06 -1.00573e+06 200761 -64228.8
248 2 Si 2.63535 138.075 1.4323 2.4 -33.566 5.22699e+06 1.07048e+07 6.86779e+06 -269092 507751 -365015
249 3 O 5.8295 138.058 1.36842 -1.2 -9.34745 -2.46132e+06 -4.61342e+06 -3.29113e+06 305268 430718 115028
250 3 O 3.7579 141.791 1.51085 -1.2 -8.82063 -3.42557e+06 -5.02781e+06 -3.6123e+06 1.63271e+06 165808 -639263
251 3 O 3.30428 138.823 0.196433 -1.2 -9.22465 -3.80139e+06 -4.44798e+06 -2.07041e+06 180433 -489172 1.15217e+06
252 3 O 3.30632 138.648 2.74193 -1.2 -8.91783 -3.93206e+06 -4.47889e+06 -3.27449e+06 -218441 645798 -653187
253 1 Mg 2.35226 142.226 -0.126345 1.2 -7.65633 -1.65192e+06 3.15802e+06 520377 -1.24681e+06 -1.79163e+06 -2.86519e+06
254 1 Mg 7.1211 145.015 1.39225 1.2 -8.46783 1.86902e+06 -458750 2.7295e+06 874107 -56733 -1.40655e+06
255 2 Si 4.4545 143.268 1.29707 2.4 -33.5275 6.18607e+06 1.06434e+07 9.78491e+06 283875 297469 -1.75153e+06
256 3 O 6.00854 143.15 1.36471 -1.2 -9.47668 -2.65434e+06 -4.12015e+06 -3.68161e+06 -684628 697219 329291
257 3 O 3.50722 146.705 1.2546 -1.2 -9.19882 -1.83116e+06 -4.22524e+06 -3.12039e+06 -1.1808e+06 -462427 411835
258 3 O 3.73376 143.793 -0.0425007 -1.2 -9.12372 -2.37585e+06 -3.54517e+06 -2.77514e+06 -183144 1.3084e+06 506892
259 1 Mg 1.55374 151.991 1.95015 1.2 -7.8259 -529386 -1.31232e+06 341359 224925 472075 -617012
260 3 O 3.76156 143.96 2.60132 -1.2 -8.49907 -3.87643e+06 -5.83318e+06 -150880 -278110 -1.4935e+06 -383514
261 1 Mg 1.74751 149.848 4.84039 1.2 -8.74092 -839872 3.75701e+06 -113711 620525 622646 734845
262 2 Si 3.92289 150.423 3.02121 2.4 -34.4078 9.61074e+06 7.99524e+06 5.82742e+06 -1.91881e+06 -1.03432e+06 -1.82848e+06
263 3 O 2.4651 150.984 3.32711 -1.2 -7.89217 -5.39428e+06 -2.66538e+06 -7.43013e+06 -602587 1.76866e+06 -717877
264 3 O 6.12932 147.797 4.33743 -1.2 -8.94173 -3.24963e+06 -7.17152e+06 -2.907e+06 -396909 -740598 -10548.5
265 3 O 4.42942 151.49 1.922 -1.2 -8.64354 -6.92754e+06 -255856 -3.4392e+06 632611 1.02043e+06 -294390
266 3 O 4.72074 150.281 4.29115 -1.2 -8.41349 -9.20349e+06 -5.42484e+06 -4.21988e+06 -970773 165831 955086
267 1 Mg 4.87985 147.257 2.77006 1.2 -7.98608 -1.39843e+06 4.38856e+06 -514693 1.91279e+06 -1.65425e+06 1.13289e+06
268 1 Mg 4.5911 144.499 4.43527 1.2 -8.76353 1.99296e+06 475552 2.50226e+06 -743615 90882.1 -48193.4
269 2 Si 6.79583 146.355 4.37311 2.4 -33.8033 5.60229e+06 1.15833e+07 6.28913e+06 826720 -320928 -387772
270 3 O 3.59043 146.356 4.33367 -1.2 -9.33742 -3.56896e+06 -4.43145e+06 -3.51343e+06 636041 -255978 -925523
271 3 O 5.71323 142.682 4.35052 -1.2 -8.97043 -3.55676e+06 -5.25321e+06 -2.47393e+06 863322 178281 344383
272 3 O 6.10641 145.666 3.14402 -1.2 -8.69731 -4.34887e+06 -5.20605e+06 -2.69915e+06 329533 -153.027 -962558
273 1 Mg 4.89326 147.496 -0.204965 1.2 -7.9012 -1.73854e+06 4.44731e+06 132588 909358 1.91983e+06 -1.66751e+06
274 3 O 6.0696 145.654 5.65671 -1.2 -8.70223 -3.55002e+06 -3.67913e+06 -3.69938e+06 -228594 -1.60994e+06 -168136