ITEM: TIMESTEP
1500
ITEM: NUMBER OF ATOMS
11016
ITEM: BOX BOUNDS pp pp pp
-14.54184 24.2364
80.0 135.0
35.0 90.0
ITEM: ATOMS id type x y z Coordination
3 3 -12.7752 84.1066 35.3676 23
13 3 -9.75254 81.5373 42.8159 23
17 1 -11.521 80.9156 36.665 20
15 3 -12.8441 80.7519 40.7255 20
16 3 -9.94512 80.1615 38.0215 21
18 1 -11.0916 83.8702 36.1944 21
19 2 -14.2696 82.452 37.9047 21
20 3 -13.2321 81.3488 37.4572 24
21 3 -10.9236 85.2755 37.9688 25
22 3 -10.5016 82.5301 37.4664 19
23 1 -11.4754 83.7338 39.029 24
24 3 -10.0628 82.0001 39.9696 22
25 1 -11.8042 88.5259 40.7615 28
28 3 -12.9249 86.2664 40.6301 22
31 1 -14.4018 85.9858 39.1668 27
32 1 -13.9306 82.2898 40.6471 20
33 2 -12.2585 85.0745 41.3935 24
34 3 -10.6478 85.1776 41.2244 23
35 3 -12.4651 83.5798 40.7847 23
36 3 -13.4595 83.8121 38.4206 22
37 1 -11.5317 88.6433 35.3507 21
38 3 -12.9325 85.0523 42.8605 23
40 2 -11.692 86.6785 37.9801 24
41 3 -13.1891 86.7094 37.7657 22
43 3 -10.93 87.2305 36.5923 21
44 3 -10.9365 87.4385 39.1474 23
169 1 -11.3017 81.8645 41.5463 22
171 2 -14.1734 82.0985 43.6486 22
172 3 -12.5981 81.9975 43.3944 21
189 1 -14.3285 86.4581 42.1772 26
192 2 -11.4688 87.5744 43.8926 24
193 3 -13.0244 87.5953 43.7852 21
195 3 -10.8367 87.9995 42.5056 24
1380 3 -7.6509 84.7997 36.1278 25
1395 1 -7.27296 83.9011 37.9976 24
1396 2 -9.58999 81.5442 38.4525 26
1397 3 -8.02023 82.0491 38.4327 22
1398 3 -6.0923 85.6408 38.1694 24
1399 3 -5.60377 83.1801 36.9177 21
1400 1 -6.53519 80.945 39.2823 27
1401 3 -5.31129 82.7724 39.4813 24
1402 1 -6.90666 88.4604 41.1188 27
1405 3 -8.09761 86.5537 41.2439 25
1408 1 -9.59381 85.9664 39.6993 25
1409 1 -8.22174 82.5985 41.0833 23
1410 2 -7.29443 85.2043 41.1729 24
1411 3 -5.7227 85.3893 41.1553 23
1412 3 -6.94763 81.1196 41.216 23
1413 3 -7.88703 84.3937 39.9142 25
1414 1 -7.04855 88.5956 35.3477 23
1415 3 -7.80523 84.3069 42.3787 22
1417 2 -6.77164 87.0884 38.2332 25
1418 3 -8.33098 86.8626 38.2479 22
1420 3 -6.19296 87.9019 36.988 22
1421 3 -6.12156 87.7609 39.5168 23
1546 1 -8.34326 80.0342 42.5153 24
1548 2 -9.57161 82.1329 44.2232 21
1549 3 -8.10139 82.3309 44.5923 20
1551 3 -5.17271 82.7838 42.8321 25
1566 1 -9.40249 86.1678 42.6917 24
1572 3 -5.91726 87.9467 42.8141 23
1394 1 -6.6057 82.9637 35.2277 21
39 1 -14.1354 88.9039 37.4617 25
1416 1 -9.76092 88.6538 38.0822 23
1536 3 -7.62633 80.9826 35.8887 23
1374 1 -9.20474 86.1742 36.4161 23
2751 1 -5.69214 85.0048 36.2837 26
1764 3 -8.95826 107.48 52.2824 25
1390 3 -3.94309 80.7603 41.8125 21
1393 3 -3.49578 80.567 35.6094 22
2757 3 -3.87959 85.4472 35.6767 24
2767 3 0.257097 81.4083 42.1876 24
2769 3 -2.84696 81.109 39.4471 24
2770 3 -0.978934 80.872 36.9486 26
2772 1 -2.41289 84.2651 36.4185 24
2773 2 -4.66418 82.5364 38.0055 25
2774 3 -3.27501 83.1439 37.7495 24
2775 3 -1.41796 85.5676 37.8685 24
2776 3 -0.265161 83.2601 36.7661 19
2777 1 -2.35236 83.0868 39.5337 23
2778 3 -0.487831 82.4309 39.2723 21
2779 1 -2.16643 88.467 41.1326 28
2782 3 -3.2786 86.8984 41.0732 26
2785 1 -4.54959 86.3078 39.5206 30
2786 1 -4.55672 83.5686 41.1952 27
2787 2 -2.60307 85.4181 41.188 23
2788 3 -0.943782 85.4356 41.0091 24
2789 3 -1.77049 82.9699 41.5758 22
2790 3 -3.24643 84.6692 39.997 25
2791 1 -4.0637 87.4794 35.7003 24
2792 3 -3.24757 84.921 42.5123 24
2794 2 -1.9931 87.0328 37.9329 23
2795 3 -3.52405 87.2315 37.9917 21
2797 3 -1.3351 87.7721 36.725 20
2798 3 -1.28382 87.6184 39.2529 25
2923 1 -1.31253 81.1426 40.9636 22
2924 1 -1.89993 83.8076 43.5433 29
2925 2 -4.39342 81.4854 43.2582 22
2926 3 -3.03548 81.8045 44.1176 23
2927 3 -0.981903 85.8377 43.9967 22
2928 3 -0.0314909 83.1974 44.2207 23
2943 1 -4.64549 86.4941 42.5119 27
2946 2 -1.7061 87.3085 44.0675 26
2949 3 -1.09533 87.8905 42.7483 24
4134 3 1.81242 84.9174 35.7613 23
4148 1 2.72422 81.0583 36.7028 19
4149 1 2.22224 83.7945 37.663 21
4150 2 -0.0865931 82.0323 37.8238 21
4151 3 1.52602 81.7909 37.8828 21
4152 3 3.50388 85.4043 37.9297 24
4154 1 3.0554 81.187 39.5762 25
4155 3 3.61644 82.8942 36.5386 20
4156 1 2.67821 88.3094 40.9058 26
4159 3 1.63676 86.5369 40.8776 23
4162 1 0.150545 86.2535 39.4915 26
4163 1 0.155222 83.3337 40.9447 25
4164 2 2.33277 85.0906 40.92 23
4165 3 3.88903 85.0199 41.105 23
4166 3 3.42478 82.2802 41.3234 22
4167 3 1.66476 84.3363 39.6674 27
7050 2 10.7153 80.092 47.2688 21
4169 3 1.63672 84.4092 42.1707 25
4171 2 2.82594 86.9669 37.9236 25
4172 3 1.25763 86.9061 37.9257 20
4174 3 3.393 87.8614 36.7671 20
4175 3 3.50103 87.5259 39.2482 24
4300 1 2.83678 80.6322 42.3795 24
4301 1 3.15054 83.3451 42.892 25
4302 2 0.498879 81.7673 43.7511 23
4303 3 2.13003 81.9138 43.9221 22
4305 3 4.77775 83.1335 43.9453 22
4320 1 0.307377 86.3289 42.381 26
4324 3 1.47571 86.8444 44.015 25
4326 3 3.64737 87.6433 42.6232 24
5505 1 3.91764 84.7457 35.8182 23
2793 1 -4.5926 89.0258 37.9139 25
4170 1 0.301781 88.8667 37.8407 26
1539 3 -4.73965 80.9815 37.7078 24
4128 1 0.233151 85.625 36.5824 23
319 3 -9.47086 80.1723 51.2041 24
5667 3 8.24894 80.2807 36.3036 23
4144 3 6.17155 81.8528 41.8733 25
6882 1 7.23017 84.9324 36.03 21
4147 3 4.63178 82.0843 38.6839 25
4153 3 5.41704 81.1486 36.1649 24
4299 3 4.76696 80.6758 43.5772 21
5511 3 5.53811 85.8347 35.5482 22
5521 3 9.09972 83.2006 43.0737 23
5522 3 7.20234 80.3757 39.2866 25
5526 1 7.58855 83.6918 38.4569 23
5527 2 4.9602 82.323 37.1531 24
5528 3 6.16142 83.3706 36.9636 22
5529 3 8.13358 85.5738 37.8341 23
5525 1 7.38238 81.9358 35.747 22
5531 1 8.51735 81.1574 38.0156 22
5532 3 8.74875 83.0606 36.8517 23
5533 1 7.542 88.375 40.8658 26
5536 3 6.372 86.6425 40.9647 25
5539 1 4.86925 86.0661 39.5059 26
5540 1 5.06767 82.971 40.4279 26
5541 2 7.08813 85.1986 41.0127 25
5542 3 8.60072 85.3025 40.7808 25
5543 3 8.69076 82.6084 39.6281 22
5544 3 6.3546 84.411 39.8436 22
5545 1 5.61723 87.7103 35.8037 22
5546 3 6.64911 84.5917 42.4457 23
5548 2 7.59656 87.1021 37.9816 22
5549 3 5.99606 87.1263 38.1898 23
5551 3 7.75242 87.7908 36.5359 19
5552 3 8.48382 87.7265 39.1529 23
5677 1 7.81786 81.5063 40.9727 26
5678 1 7.60338 83.9453 44.1435 24
5679 2 5.73374 81.9586 43.418 21
5682 3 11.2118 82.2242 43.6938 20
5697 1 5.13353 86.1168 42.5968 31
5703 3 8.54876 87.6886 42.5151 24
6888 3 11.0907 84.3944 36.0943 23
6900 3 10.3365 80.252 38.5105 22
6903 1 12.4668 83.9518 37.5283 26
6904 2 10.1392 83.1881 36.1931 24
6905 3 11.085 82.2742 37.2496 23
6906 3 13.3296 85.6166 37.731 22
6908 1 12.2465 80.6399 39.0509 22
6909 3 13.8172 82.1463 39.4839 26
6910 1 12.2678 88.4815 40.6758 26
6913 3 11.2557 86.6184 40.625 23
6916 1 9.75222 86.0976 39.1821 28
6917 1 10.5768 82.514 39.2714 25
6918 2 11.8638 85.1053 40.7125 25
6919 3 13.4554 85.031 40.8494 22
6920 3 11.3084 82.1941 41.0844 23
6921 3 11.3576 84.3762 39.3628 27
6922 1 11.9992 88.582 35.1072 25
6923 3 11.2812 84.6244 42.1693 24
6925 2 12.5543 87.1158 37.6992 23
6926 3 11.0246 87.066 37.8426 21
6928 3 13.1972 87.7578 36.4311 22
6929 3 13.3302 87.7813 38.9719 24
7053 3 13.5678 80.6694 45.0831 24
7054 1 12.7247 80.7771 41.6896 23
7055 1 12.3303 84.1185 43.799 27
7056 2 10.2604 82.4459 42.3963 23
7057 3 9.50881 80.9637 42.0517 21
7058 3 13.4252 85.9066 43.9141 23
7074 1 9.84631 86.0655 42.4657 28
7077 2 12.7628 87.358 43.8156 25
7078 3 11.1822 87.2927 43.8378 22
7080 3 13.4553 87.9039 42.4363 25
5547 1 4.9426 88.8567 38.1355 23
6924 1 9.97449 88.8319 38.1093 25
5508 1 4.2882 103.852 35.1666 20
8809 1 18.653 107.135 53.6701 28
11013 1 -14.2566 85.1177 36.479 23
8259 1 14.7805 85.9597 36.2836 24
6907 3 13.7879 82.4623 37.0266 26
8265 3 15.923 84.4026 35.8726 22
8275 3 17.3212 81.8009 41.485 24
8278 3 18.7922 80.5121 36.8295 24
8280 1 16.8159 83.82 37.557 24
8281 2 14.6902 81.8319 38.1739 21
8282 3 16.234 82.0756 38.1105 20
8283 3 17.887 85.5255 37.9109 24
8284 3 18.548 83.0513 36.2253 20
8285 1 17.3556 81.2884 39.4881 24
8286 3 18.8702 82.5806 38.6366 24
8287 1 17.0907 88.3114 40.8448 26
8290 3 15.9798 86.5275 40.6821 22
8293 1 14.5588 86.1689 39.3048 27
8294 1 14.5079 83.2181 40.9712 25
8295 2 16.6044 85.0583 40.7818 23
8296 3 18.1686 85.0869 40.9241 28
8297 3 14.5692 80.1698 38.0906 18
8298 3 15.8837 84.3431 39.5406 24
8800 3 19.2375 107.499 58.3464 25
8300 3 15.8271 84.4103 42.0527 24
8302 2 17.4093 87.0243 37.8778 23
8303 3 15.8244 87.0742 37.7997 22
8305 3 17.9587 87.5989 36.5207 23
8306 3 18.1042 87.6778 39.1269 23
8431 1 15.911 80.4478 41.9987 24
8432 1 16.6988 83.4267 43.5486 23
8433 2 14.4274 81.6252 44.2364 24
8434 3 14.3898 81.4929 42.5983 22
8435 3 18.5588 85.6018 43.74 21
8436 3 18.4755 82.6297 43.4753 24
8451 1 14.6838 86.2606 42.1933 27
8454 2 17.6589 87.0502 43.6017 25
8455 3 16.1293 86.8271 43.6441 26
8457 3 18.2847 87.6151 42.2867 23
9642 3 20.6807 85.1324 36.2813 23
9652 3 23.7397 82.3813 42.354 23
9636 1 18.8674 85.1823 36.3027 22
9657 1 21.7467 84.0534 37.4657 25
9658 2 19.2508 82.0402 37.2113 23
9659 3 20.8557 82.122 37.2238 22
9660 3 22.9257 85.6208 37.7104 21
9661 3 23.4414 82.9253 36.8122 22
9662 1 21.5349 82.001 39.1374 21
9663 3 23.5863 81.9506 39.1516 21
9664 1 22.3306 88.658 40.3888 25
9667 3 20.9629 86.3134 40.341 23
9670 1 20.0324 87.7046 39.3472 24
9671 1 19.4262 83.9355 39.9263 24
9672 2 21.805 85.0021 40.633 26
9673 3 23.3461 85.1648 40.7632 25
9674 3 19.9247 82.4083 41.3386 22
9675 3 21.3829 84.0051 39.5085 23
3141 3 -4.09319 107.497 52.2665 24
9677 3 21.1989 84.6833 42.1413 23
9679 2 22.3583 87.111 37.55 23
9680 3 20.8381 87.5953 37.6656 21
9682 3 23.0461 87.8376 36.363 22
9683 3 23.0955 87.754 38.9063 22
9808 1 21.7628 81.6172 42.2879 24
9810 2 18.8045 81.6908 42.1527 23
9812 3 23.1658 86.0338 43.7806 25
9828 1 19.7513 86.2686 42.0103 28
9831 2 22.4407 87.4616 43.5224 25
9832 3 20.8566 87.354 43.5386 24
9834 3 22.9936 87.9177 42.1147 26
8301 1 14.6815 88.9011 37.8093 29
9641 3 20.3808 89.669 35.4996 23
9678 1 19.4127 88.9857 36.9851 24
9656 1 22.4568 81.6333 35.7923 24
9559 1 17.4188 106.778 35.3595 22
2 3 -13.3668 89.2034 35.6068 24
5 3 -13.2459 94.5846 35.6963 25
26 2 -14.0086 90.3415 40.6921 24
27 3 -10.7177 90.2424 40.64 21
29 3 -13.3797 89.4701 39.5025 25
30 3 -13.2858 89.7013 41.9521 24
42 3 -11.1473 89.9427 37.5333 24
45 1 -12.2414 91.0947 36.226 23
46 1 -12.5941 94.123 37.4057 26
48 3 -13.3895 92.1655 37.4198 22
49 3 -10.0789 94.6922 37.7531 23
50 3 -10.5452 92.5672 36.3796 23
51 1 -11.7634 91.06 39.113 24
52 3 -10.5407 92.5873 38.9605 24
56 3 -13.1105 96.8486 40.7051 23
59 1 -14.337 96.4542 38.9813 26
60 1 -14.612 93.56 40.5062 25
61 2 -12.3682 95.4264 40.6139 24
62 3 -10.8186 95.3856 40.7272 22
63 3 -13.264 91.8043 40.5451 26
64 3 -12.9869 94.7534 39.3058 24
65 1 -13.8746 96.6528 35.6562 22
66 3 -13.0669 94.7552 41.9692 24
68 2 -11.6971 98.1047 37.6096 23
69 3 -13.1505 97.4468 37.4488 22
191 1 -14.0534 89.4044 43.8469 28
194 3 -10.4743 90.9746 43.5523 26
197 1 -11.8195 91.3932 42.0872 28
198 1 -12.0219 94.3152 43.6523 27
199 2 24.1726 92.5526 43.6231 25
200 3 -13.0745 92.4025 43.6639 23
201 3 -10.956 96.0552 43.7354 25
202 3 -10.5206 93.0796 42.3573 23
217 1 24.2296 96.465 42.0603 28
220 2 -11.7452 97.4985 43.5978 25
221 3 -13.3275 97.3786 43.6418 22
1379 3 -8.66225 89.2067 36.3147 21
1382 3 -8.24578 94.4141 35.491 24
1403 2 -9.10375 90.3678 40.5376 24
1404 3 -5.91901 90.3087 41.0418 24
1406 3 -8.57392 89.8446 39.1797 25
1407 3 -8.43512 89.5963 41.8124 22
1419 3 -5.64737 90.7225 37.8291 23
1422 1 -7.49458 90.3912 37.5543 27
1423 1 -6.83692 93.9623 36.7035 28
1424 2 -9.76973 93.1524 37.7025 23
1425 3 -8.27522 92.4199 37.6418 24
1426 3 -6.16089 95.4465 37.7728 25
1427 3 -5.33731 92.7533 36.501 22
1428 1 -7.3466 92.6886 39.4742 23
1429 3 -5.50037 92.8944 39.1245 23
1433 3 -8.27105 96.7512 40.6942 24
1436 1 -9.6029 96.2398 39.1128 26
1437 1 -9.8957 93.6308 40.6102 25
1438 2 -7.48241 95.3582 40.8891 25
1439 3 -5.93419 95.3816 40.8266 22
1440 3 -8.51402 91.8551 40.842 25
1441 3 -8.15496 94.3929 39.7818 24
1442 1 -9.47381 95.9943 36.2571 23
1443 3 -8.1481 94.8549 42.26 26
1445 2 -6.74392 97.0159 37.7655 23
1446 3 -8.30913 97.0093 37.7142 21
1568 1 -9.28852 89.2061 43.6441 29
1571 3 -5.69293 90.8926 43.8561 27
1574 1 -7.17482 91.2617 42.3819 26
1575 1 -7.11449 94.2958 43.8861 26
1576 2 -9.8144 92.4401 43.6101 25
1577 3 -8.26117 92.3235 43.6985 23
1578 3 -6.16699 96.1123 43.7952 25
1579 3 -5.70287 92.9404 42.4343 25
1594 1 -9.6501 96.4024 42.1666 27
1597 2 -6.86677 97.5796 43.6815 25
1598 3 -8.44642 97.4792 43.7004 22
2801 2 -4.85687 92.155 37.8963 23
2953 2 -4.97924 92.3828 43.7167 25
71 3 -10.7998 97.5515 36.3948 22
72 3 -11.111 97.5933 39.0044 23
1375 1 -9.56953 90.8055 35.7926 23
223 3 -11.063 98.0917 42.322 26
1448 3 -6.02904 97.6007 36.5103 21
1449 3 -6.16539 97.6405 39.0794 25
1600 3 -6.20599 98.105 42.3715 25
4023 1 -1.39786 94.1315 35.3498 22
5400 1 3.14157 93.7741 35.2308 24
2756 3 -3.83828 89.3589 36.209 22
2759 3 -3.18749 94.5206 35.8356 25
2780 2 -4.40239 90.2502 40.9581 24
2781 3 -1.08206 90.2546 40.9442 23
2783 3 -3.70867 89.552 39.7086 23
2784 3 -3.56753 89.5846 42.2155 24
2796 3 -0.935282 90.4784 37.9933 24
2799 1 -1.8886 89.6137 36.4111 22
2800 1 -2.40044 93.814 37.8285 24
2802 3 -3.35328 91.9738 37.9301 23
2803 3 -1.14634 95.3491 37.6365 23
2804 3 -0.79939 92.5941 36.6159 21
2805 1 -2.3336 91.0088 39.3734 29
2806 3 -0.988019 92.6632 39.1975 23
2810 3 -3.29118 96.8 40.8614 23
2813 1 -4.67988 96.3077 39.3123 25
2814 1 -4.72526 93.55 40.7571 26
2815 2 -2.59224 95.2721 40.8142 25
2816 3 -1.05242 95.3296 40.7517 22
2817 3 -3.64719 91.6974 40.9328 24
2818 3 -3.28743 94.631 39.5482 24
2819 1 -4.6081 95.825 36.3325 26
2820 3 -3.30196 94.7024 42.1168 24
2822 2 -1.97235 96.8165 37.6136 23
2823 3 -3.53148 96.7174 37.7088 23
2945 1 -4.4764 89.1016 43.9919 28
2948 3 -0.779246 90.9469 43.8665 26
2951 1 -2.30677 91.319 42.3338 28
2952 1 -2.30893 94.2576 43.8014 28
2954 3 -3.41159 92.2965 43.8129 23
2955 3 -1.28552 96.0298 43.6796 25
2956 3 -0.850887 92.9748 42.4901 24
2971 1 -4.77492 96.51 42.2471 28
2974 2 -2.01586 97.4731 43.5531 25
2975 3 -3.60829 97.4627 43.6919 22
4133 3 1.23747 89.5202 36.159 22
4136 3 1.56488 94.2157 36.1669 23
4157 2 0.480173 90.1304 40.9322 25
4158 3 3.69788 90.244 40.9989 22
4160 3 1.13941 89.4209 39.7442 23
4161 3 1.25365 89.4108 42.2336 23
4173 3 3.88904 90.5033 38.1802 25
4176 1 3.28987 90.1574 36.2797 26
4177 1 2.23798 93.7654 37.9352 26
4178 2 -0.325801 91.9605 37.9663 23
4179 3 1.2527 91.877 37.993 22
4180 3 3.47408 95.4835 37.7834 23
4181 3 3.95861 92.4277 36.5097 23
4182 1 2.44686 91.1658 39.4427 29
4183 3 3.80107 92.7394 39.136 25
4187 3 1.48301 96.7004 40.7404 25
4190 1 0.173664 96.1987 39.1697 28
4191 1 -0.00553244 93.4434 40.7761 27
4192 2 2.18415 95.2331 40.8176 25
4193 3 3.74526 95.3091 40.8451 22
4194 3 1.12851 91.6477 40.9915 26
4195 3 1.44142 94.4199 39.6405 25
4196 1 0.382866 95.7333 36.2523 25
4197 3 1.47839 94.6572 42.1531 25
4199 2 2.89117 97.0406 37.6171 23
4200 3 1.24872 96.9888 37.5534 22
4325 3 4.12592 90.8893 43.9348 25
4328 1 2.60493 91.3382 42.3378 28
4329 1 2.53284 94.2331 43.8249 27
4330 2 -0.0696267 92.4346 43.7285 25
4331 3 1.478 92.2341 43.826 23
4332 3 3.58034 96.0502 43.8044 25
4333 3 3.91301 92.9219 42.5615 24
4348 1 0.10407 96.5039 42.1878 27
4351 2 2.82843 97.5139 43.5647 25
4352 3 1.27868 97.3805 43.6358 22
5555 2 4.48254 92.0002 37.9422 23
5707 2 4.70841 92.4188 43.8059 25
2825 3 -1.52056 97.4305 36.256 25
2826 3 -1.28447 97.5188 38.8558 23
2977 3 -1.31841 98.0362 42.2856 25
4202 3 3.52444 97.5222 36.2919 24
4203 3 3.46691 97.6166 38.9229 24
4354 3 3.519 97.9783 42.2479 24
4129 1 0.380065 91.2885 35.4697 24
2752 1 -4.73537 90.9927 35.6229 22
5506 1 6.03201 92.0172 35.788 24
5510 3 5.33343 89.6508 36.0608 23
5513 3 6.18651 94.0971 36.0369 22
5534 2 5.31888 90.2124 41.0322 25
5535 3 8.56196 90.2776 40.9622 22
5537 3 6.01122 89.5128 39.7701 23
5538 3 6.01291 89.6411 42.3334 24
5550 3 8.69054 90.4168 37.89 24
5553 1 8.49367 89.5386 36.0316 22
5554 1 7.2535 93.8618 37.8015 24
5556 3 6.06107 91.9606 37.8937 21
5557 3 8.50676 95.4878 37.8726 26
5558 3 8.68435 92.5903 36.5248 23
5559 1 7.28486 91.1348 39.366 29
5560 3 8.65989 92.6248 39.1025 23
5564 3 6.29492 96.7764 40.7468 24
5567 1 4.90032 96.236 39.2902 27
5568 1 4.94806 93.4792 40.7721 28
5569 2 7.0246 95.3272 40.8132 25
5570 3 8.5673 95.394 40.8326 22
5571 3 5.91136 91.6699 40.9343 24
5572 3 6.37967 94.4967 39.5875 24
5573 1 4.96192 95.6411 36.3629 26
5574 3 6.34233 94.7281 42.1223 24
5576 2 7.72883 96.9022 37.6985 24
5577 3 6.1796 96.5837 37.6286 22
5699 1 5.13967 89.0733 44.023 26
5702 3 8.85438 90.8956 43.8349 25
5705 1 7.40724 91.3823 42.3845 28
5706 1 7.41296 94.3004 43.762 28
5708 3 6.28258 92.3071 43.8719 23
5709 3 8.4029 96.1043 43.7732 25
5710 3 8.76348 92.9808 42.5639 24
5725 1 4.95775 96.4437 42.2136 28
5728 2 7.65565 97.6027 43.5898 25
5729 3 6.09515 97.461 43.6449 22
6887 3 10.5774 89.3696 36.1438 22
6890 3 11.0788 94.3374 36.16 21
6911 2 10.1404 90.265 40.9605 25
6912 3 13.4748 90.3401 40.9269 24
6914 3 10.8617 89.5808 39.718 24
6915 3 10.92 89.7225 42.2679 25
6927 3 13.4695 90.5121 37.9781 26
6930 1 11.959 90.8589 36.5802 27
6931 1 11.9888 94.0145 37.9677 26
6932 2 9.26292 91.95 37.7722 24
6933 3 10.871 91.9029 37.8431 24
6934 3 13.5259 95.2093 37.5897 23
6935 3 13.5303 92.5242 36.597 23
6936 1 12.1315 91.2497 39.4372 28
6937 3 13.4575 92.7181 39.1815 25
6941 3 11.1093 96.8356 40.7712 24
6944 1 9.85841 96.322 39.2174 28
6945 1 9.64185 93.519 40.7645 28
6946 2 11.82 95.3777 40.7715 24
6947 3 13.3665 95.4337 40.7573 22
6948 3 10.7778 91.7713 40.9261 25
6949 3 11.0846 94.6275 39.5684 23
6950 1 10.1785 96.1576 36.2101 25
6951 3 11.1027 94.7589 42.0912 23
6953 2 12.4772 98.273 37.8095 22
6954 3 11.0756 97.3844 37.6244 24
7076 1 10.0262 89.1067 43.9221 27
7079 3 13.7677 90.9839 43.8055 25
7082 1 12.2862 91.2989 42.3785 28
7083 1 12.1625 94.2815 43.7471 28
7084 2 9.5463 92.3664 43.7866 25
7085 3 11.1033 92.3091 43.8281 23
7086 3 13.1599 96.111 43.7338 25
7087 3 13.617 93.0127 42.4487 23
7102 1 9.7231 96.4299 42.2081 28
7105 2 12.48 97.5836 43.6407 25
7106 3 10.922 97.5198 43.7022 22
8309 2 14.1682 92.0408 37.9649 24
8461 2 14.3571 92.5248 43.6935 25
5579 3 8.47247 97.4855 36.4317 22
5580 3 8.18402 97.7506 38.9512 24
5731 3 8.37283 98.1032 42.2892 24
6956 3 13.4901 97.9281 36.6422 22
6957 3 13.1149 97.8671 39.1864 23
7108 3 13.103 98.2228 42.38 22
3073 3 -1.71508 80.3043 50.0406 19
8154 1 13.0133 94.2305 35.5985 23
11014 1 23.8627 93.7639 34.9118 23
8260 1 14.3167 91.6225 35.1221 22
47 2 23.8595 92.0803 37.6847 23
8264 3 15.4778 89.6646 36.0741 25
8267 3 15.7942 94.3533 35.6886 26
8288 2 14.9894 90.1379 40.9423 25
8289 3 18.319 90.2651 40.939 23
8291 3 15.629 89.4763 39.6551 25
8292 3 15.7998 89.542 42.2399 24
8304 3 18.318 90.4253 37.8572 27
8307 1 16.8464 91.001 36.4169 26
8308 1 16.7244 94.0585 37.4077 26
8310 3 15.7148 91.9264 37.8743 23
8311 3 18.1842 95.5046 37.4549 22
8312 3 18.2175 92.5922 36.5904 23
8313 1 16.9956 91.0681 39.3236 30
8314 3 18.3705 92.58 39.1813 24
8318 3 15.9672 96.777 40.614 23
8321 1 14.4608 96.3421 39.1153 26
8322 1 14.5397 93.5381 40.7057 28
8323 2 16.6665 95.2787 40.6257 25
8324 3 18.227 95.3028 40.6006 22
8325 3 15.7104 91.6229 40.8821 25
8326 3 15.9726 94.5555 39.3788 24
8327 1 14.6172 96.1993 36.2904 24
8328 3 16.0 94.6455 41.9408 23
8330 2 17.5671 96.9799 37.5002 23
8331 3 16.0004 97.0294 37.529 23
8453 1 14.9771 89.2016 43.9577 28
8456 3 18.5824 91.0185 43.9055 23
8459 1 17.0834 91.3084 42.3327 29
8460 1 17.0395 94.3003 43.6381 28
8462 3 15.9412 92.3454 43.8186 23
8463 3 18.0906 96.0776 43.5541 26
8464 3 18.4463 93.021 42.4977 23
8479 1 14.4578 96.5995 42.0416 27
8482 2 17.3096 97.5197 43.4546 25
8483 3 15.7221 97.3913 43.5592 22
9644 3 20.6085 94.3528 35.6243 24
9665 2 19.9038 90.3681 40.9769 24
9666 3 23.1925 90.5079 40.7236 22
9668 3 20.5824 89.5112 39.8583 25
9669 3 20.6611 89.8897 42.3247 25
9681 3 23.1997 90.5994 37.6757 24
9684 1 21.6563 91.1759 36.1452 25
9685 1 21.6209 94.05 37.4154 24
9686 2 18.9225 91.9624 37.8479 23
9687 3 20.4983 91.8953 37.7213 22
9688 3 23.133 95.5402 37.6045 25
9689 3 23.0433 92.761 36.4561 20
9690 1 21.7968 91.2186 39.2128 27
9691 3 23.3455 92.6676 39.0103 23
9695 3 20.8687 96.8096 40.5629 24
9698 1 19.556 96.2434 39.0131 29
9699 1 19.3385 93.556 40.735 27
9700 2 21.5569 95.3272 40.5807 25
9701 3 23.0979 95.3617 40.6149 23
9702 3 20.5187 91.7986 40.7367 25
9703 3 20.8873 94.578 39.3262 23
9704 1 19.6597 96.0813 36.0184 23
9705 3 20.8208 94.8048 41.9061 24
9707 2 22.3803 96.9725 37.4535 23
9708 3 20.8456 96.7728 37.4558 22
9830 1 19.7374 89.3302 43.9005 26
9833 3 23.4918 91.0312 43.656 25
9836 1 22.1104 91.4223 42.2631 28
9837 1 21.8489 94.2598 43.5437 29
9838 2 19.2112 92.4826 43.7675 25
9839 3 20.7767 92.459 43.7347 23
9840 3 22.8772 96.0783 43.6228 25
9841 3 23.3633 93.1079 42.363 23
9856 1 19.4222 96.4695 42.0009 27
9859 2 22.155 97.5922 43.4897 25
9860 3 20.581 97.4689 43.5041 22
8333 3 18.3041 97.6529 36.2412 21
8334 3 18.136 97.5972 38.8527 23
8485 3 17.9398 98.0971 42.1594 24
9710 3 23.0758 97.6795 36.2556 22
9711 3 22.9022 97.7689 38.7678 24
9862 3 22.831 98.0535 42.1525 25
84 3 -13.6489 107.004 40.4053 25
1474 3 -9.11845 107.422 37.3143 23
4 3 -13.2123 99.1048 35.0929 23
7 3 -14.1891 103.491 36.5482 22
53 1 -11.9461 98.5055 40.5615 25
54 2 -14.2635 100.326 40.5953 24
55 3 -11.0161 100.417 40.5165 24
57 3 -13.5464 99.407 39.5087 22
58 3 -13.5992 99.9086 41.9627 25
67 1 24.1844 99.1858 37.6005 25
70 3 -11.5119 99.687 37.3889 22
73 1 -12.4536 100.855 35.9107 22
74 1 -13.0993 104.747 37.4911 26
75 2 -10.1775 102.803 37.3214 20
76 3 -13.8672 101.217 37.3342 24
77 3 -11.4852 105.658 37.6603 22
78 3 -11.1993 102.529 36.1327 21
79 1 -12.226 101.153 38.8068 27
80 3 -10.989 102.742 38.654 25
88 1 -10.2753 103.704 40.2366 28
89 2 -12.9369 105.541 40.4526 24
90 3 -11.3885 105.616 40.4842 21
91 3 -13.588 101.806 40.4114 24
92 3 -13.6066 104.595 39.4035 20
93 1 -10.2106 106.158 36.2783 23
94 3 -13.5849 105.038 41.8891 24
219 1 -14.5091 99.3498 43.6203 25
222 3 -10.8889 101.097 43.544 25
225 1 -12.1401 101.486 41.8902 27
226 1 -12.5691 104.416 43.4227 27
227 2 -10.2315 102.631 43.4054 25
228 3 -13.5379 102.512 43.4667 23
229 3 -11.5695 106.21 43.4041 24
230 3 -10.9837 103.124 42.107 24
245 1 -10.1937 106.547 41.8568 28
1381 3 -8.57199 99.3618 35.369 23
1384 3 -9.30241 104.008 36.6163 20
1430 1 -7.13925 98.5327 40.6677 28
1431 2 -9.42437 100.365 40.5345 24
1432 3 -6.18956 100.46 40.5388 23
1434 3 -8.81453 99.4997 39.3683 23
1435 3 -8.72477 99.8613 41.8898 24
1444 1 -8.95731 99.2626 37.3201 24
1447 3 -6.6866 100.139 37.3221 23
1450 1 -7.68235 101.261 35.8737 23
1451 1 -7.61547 104.134 37.7183 23
1452 2 -5.29449 102.577 37.3605 23
1453 3 -9.01742 101.664 37.4217 24
1454 3 -6.44844 105.666 37.5068 24
1455 3 -6.55743 102.839 36.2631 20
1456 1 -7.53136 101.232 38.7807 26
1457 3 -6.12451 102.869 38.7016 25
1465 1 -5.33727 103.659 40.3584 28
1466 2 -8.12268 105.519 40.4338 24
1467 3 -6.54612 105.711 40.4728 22
1468 3 -8.7505 101.852 40.3885 25
1469 3 -8.66643 104.558 39.3531 23
1470 1 -5.70632 106.749 36.0914 20
1471 3 -8.71842 105.005 41.8523 24
1596 1 -9.72788 99.3243 43.5823 26
1599 3 -6.0159 101.111 43.6022 25
1602 1 -7.41517 101.528 41.9011 28
1603 1 -7.60218 104.314 43.4133 27
1604 2 -5.37266 102.583 43.4494 25
1605 3 -8.6677 102.509 43.4785 24
1606 3 -6.73805 106.224 43.4342 24
1607 3 -6.12434 103.142 42.16 24
1622 1 -5.36175 106.645 41.837 28
1464 1 -5.59139 106.888 38.8482 26
87 1 -10.4431 107.091 38.817 25
97 3 -13.9656 106.889 37.3023 24
3072 3 0.415838 80.3018 53.3746 23
1461 3 -8.87648 106.981 40.348 25
8349 1 18.447 107.273 38.7048 24
4131 1 -0.500451 100.585 35.9656 21
2758 3 -4.05057 99.4608 35.4275 23
2761 3 -4.25383 103.548 36.5805 19
2807 1 -2.32023 98.4866 40.4002 26
2808 2 -4.60652 100.4 40.598 25
2809 3 -1.29711 100.369 40.5327 23
2811 3 -3.94 99.4563 39.5271 21
2812 3 -3.93306 99.9391 41.988 24
2821 1 -4.79138 99.2772 37.5775 26
2824 3 -1.63782 99.9759 37.468 23
2827 1 -2.97687 100.968 36.1145 24
2828 1 -2.79733 104.192 37.6896 23
2829 2 -0.341471 102.846 37.317 19
2830 3 -4.30285 101.376 37.6033 24
2831 3 -2.15341 105.922 37.1168 20
2832 3 -1.48129 102.452 36.2471 21
2833 1 -2.48853 101.12 38.9154 26
2834 3 -1.2823 103.012 38.6105 26
2842 1 -0.355965 103.64 40.3517 26
2843 2 -3.25525 105.465 40.5044 23
2844 3 -1.70129 105.549 40.5907 21
2845 3 -3.95435 101.891 40.4984 23
2846 3 -3.79325 104.569 39.3714 22
2847 1 -0.317834 105.69 36.3179 21
2848 3 -3.91877 104.997 41.8858 24
2973 1 -4.75644 99.3857 43.6885 27
2976 3 -1.14414 101.066 43.6406 26
2979 1 -2.58836 101.521 41.9313 28
2980 1 -2.79621 104.411 43.4045 26
2981 2 -0.508247 102.551 43.4915 25
2982 3 -3.80159 102.507 43.555 22
2983 3 -1.86649 106.284 43.4198 24
2984 3 -1.23539 103.089 42.1894 24
2999 1 -0.491305 106.606 41.8601 27
4135 3 0.917915 99.3656 35.5396 23
4138 3 0.545133 103.985 36.7744 18
4184 1 2.54927 98.5284 40.4329 26
4185 2 0.257154 100.323 40.668 24
4186 3 3.47826 100.465 40.6263 24
4188 3 0.88648 99.4336 39.5441 22
4189 3 0.989533 99.9166 42.0703 25
4198 1 0.0832312 98.8836 37.7054 26
4201 3 3.13857 100.068 37.7098 22
4204 1 2.26088 100.84 36.1751 23
4205 1 2.27537 104.277 37.6783 22
4206 2 4.48355 102.462 37.3859 24
4207 3 0.701181 101.595 37.4152 24
4208 3 3.28794 105.81 37.2822 25
4209 3 3.30824 102.53 36.2674 21
4210 1 2.18852 101.222 38.975 28
4211 3 3.63541 102.815 38.6815 26
4219 1 4.52901 103.66 40.3362 26
4220 2 1.65906 105.652 40.4164 24
4221 3 3.20557 105.98 40.3893 21
4222 3 0.851135 101.832 40.499 24
4223 3 1.17787 104.601 39.3877 23
4224 1 3.90034 106.974 35.856 24
4225 3 0.998237 105.087 41.8039 22
4350 1 0.0465387 99.405 43.6963 25
4353 3 3.68191 101.165 43.56 25
4356 1 2.32281 101.528 41.9494 29
4357 1 2.05595 104.503 43.419 26
4358 2 4.29458 102.674 43.4279 25
4359 3 1.0546 102.486 43.483 22
4360 3 2.92575 106.39 43.378 24
4361 3 3.60669 103.286 42.1437 24
4376 1 4.30895 106.974 41.7821 27
5727 1 4.83208 99.4455 43.6082 25
4218 1 3.94733 107.093 38.6193 27
2838 3 -3.95112 106.947 40.3179 26
4215 3 0.910942 107.141 40.3458 23
4228 3 0.609135 107.163 37.168 23
6982 3 10.1324 107.199 37.3077 23
6885 1 9.78142 100.77 35.9278 25
5512 3 6.02641 99.1383 35.4638 25
5515 3 5.42571 103.693 36.7376 20
5561 1 7.25877 98.659 40.5425 27
5562 2 5.05657 100.377 40.5473 25
5563 3 8.29782 100.598 40.5014 22
5565 3 5.77442 99.5331 39.4199 25
5566 3 5.81382 99.8365 41.9094 24
5575 1 4.93735 99.2427 37.3251 26
5578 3 8.33836 100.218 37.3088 25
5581 1 6.9276 100.929 35.9418 24
5582 1 6.82898 104.496 37.7374 23
5583 2 8.93967 103.001 37.2254 20
5584 3 5.52917 101.327 37.4027 23
5585 3 6.9472 106.348 37.2354 23
5586 3 8.08903 102.508 36.0265 20
5587 1 7.17229 101.052 38.7327 27
5588 3 8.08583 102.88 38.6157 26
5596 1 9.15305 103.542 40.2549 25
5597 2 6.32572 105.962 40.3206 23
5598 3 7.89561 106.208 40.2811 25
5599 3 5.64012 101.901 40.489 24
5600 3 5.85801 104.777 39.4311 21
5601 1 8.57027 106.265 36.1312 19
5602 3 5.76834 105.559 41.7956 22
5730 3 8.4758 101.198 43.4706 25
5733 1 7.05707 101.59 41.9166 28
5734 1 6.78014 104.637 43.3012 26
5735 2 9.04922 102.78 43.3884 25
5736 3 5.85776 102.639 43.4324 23
5737 3 7.81373 106.432 43.3989 23
5738 3 8.29203 103.28 42.0883 23
5753 1 9.11235 106.834 41.8236 27
6889 3 10.8016 99.1645 35.3147 23
6892 3 9.07368 104.537 37.0596 17
6938 1 12.0484 98.7353 40.6699 28
6939 2 9.85633 100.484 40.57 25
6940 3 13.2056 100.627 40.5178 24
6942 3 10.4632 99.5343 39.4719 22
6943 3 10.6306 99.973 41.9037 23
6952 1 9.66894 98.8428 37.7101 25
6955 3 12.2988 99.8972 37.6095 24
6958 1 13.1773 101.254 36.4417 23
6959 1 10.7475 105.328 37.5191 23
6960 2 13.5071 103.977 37.3678 19
6961 3 10.315 102.212 37.2808 23
6962 3 12.7507 105.463 37.3996 20
6963 3 12.9011 103.187 36.0732 19
6964 1 11.7214 101.612 38.74 25
6965 3 13.1327 103.106 38.6234 24
6973 1 14.1326 103.556 40.2872 25
6974 2 11.2011 105.651 40.5149 24
6975 3 12.773 105.836 40.4861 22
6976 3 10.4605 101.968 40.4074 24
6977 3 10.576 104.769 39.3978 22
6978 1 13.4345 106.748 35.9325 24
6979 3 10.5125 105.162 41.8922 23
7104 1 9.70168 99.4883 43.5796 28
7107 3 13.2948 101.171 43.5379 26
7110 1 11.9818 101.624 41.8407 26
7111 1 11.6207 104.501 43.4344 26
7112 2 13.9536 102.706 43.3945 25
7113 3 10.6145 102.656 43.4544 23
7114 3 12.5374 106.38 43.4638 24
7115 3 13.2567 103.223 42.077 23
7130 1 13.8611 106.802 41.9054 27
5592 3 5.5339 107.346 40.0489 25
6972 1 13.8188 106.929 38.8164 29
6969 3 10.5352 107.157 40.4182 24
10180 1 23.2318 107.319 56.6101 26
10253 3 22.6267 80.12 55.1194 22
11016 1 23.2339 104.199 35.2557 22
9653 3 21.1434 80.0719 40.0 21
2850 2 -2.65559 107.42 37.1238 20
6902 1 12.5897 81.2924 35.9481 27
8269 3 15.0036 104.119 36.8283 21
8315 1 17.0413 98.5931 40.3268 25
8316 2 14.7415 100.454 40.4498 24
8317 3 18.0749 100.446 40.4069 25
8319 3 15.4629 99.5628 39.3373 22
8320 3 15.4018 99.9977 41.8585 24
8329 1 15.4633 99.1134 37.1667 24
8332 3 17.4626 100.049 37.3125 22
8335 1 16.4238 100.972 35.7967 23
8336 1 16.6108 104.47 37.9099 24
8337 2 18.6936 102.59 37.1764 23
8338 3 14.9635 101.174 37.1221 26
8339 3 17.7545 105.895 37.1005 23
8340 3 17.4425 102.654 36.179 18
8341 1 16.5023 101.299 38.5107 25
8342 3 17.9609 102.931 38.562 23
8350 1 19.0873 103.497 40.2312 25
8351 2 15.9036 105.867 40.4292 23
8352 3 17.4484 105.986 40.2453 21
8353 3 15.4271 101.957 40.3004 23
8354 3 15.2781 104.972 39.269 21
8355 1 19.9412 105.895 36.557 23
8356 3 15.422 105.21 41.8201 23
8481 1 14.579 99.5264 43.5672 27
8484 3 18.2026 101.174 43.4643 26
8487 1 16.8793 101.446 41.7504 25
8488 1 16.5058 104.44 43.293 27
8489 2 18.8312 102.719 43.3767 25
8490 3 15.5216 102.595 43.4474 23
8491 3 17.4713 106.271 43.305 24
8492 3 18.0547 103.265 42.1023 21
8507 1 18.7185 106.716 41.6768 26
9643 3 20.4656 99.3742 35.3188 25
9646 3 19.5733 103.806 36.5719 18
9692 1 21.8755 98.6008 40.4504 26
9693 2 19.602 100.322 40.3761 24
9694 3 22.9417 100.483 40.5225 23
9696 3 20.3344 99.5422 39.2381 21
9697 3 20.3567 99.8966 41.7548 23
9706 1 19.4466 99.3241 37.1398 24
9709 3 22.5714 100.314 37.2683 24
9712 1 21.2416 101.082 35.8258 23
9713 1 21.4034 103.878 37.5474 21
9714 2 23.6952 102.24 37.1738 22
9715 3 19.8268 101.497 37.2763 24
9716 3 21.9014 105.487 36.518 24