ITEM: TIMESTEP
9500
ITEM: NUMBER OF ATOMS
11016
ITEM: BOX BOUNDS pp pp pp
-14.54184 24.2364
80.0 135.0
35.0 90.0
ITEM: ATOMS id type x y z Coordination
3 3 -12.7594 83.8453 35.2888 23
13 3 -9.73466 81.8494 42.7869 22
17 1 -11.5126 80.7107 37.1568 23
15 3 -12.4286 80.8949 40.5462 24
16 3 -9.53101 80.4083 38.3296 20
18 1 -10.8656 83.4222 35.6151 19
19 2 -14.3436 82.3129 38.0745 22
20 3 -13.2621 81.3001 37.6978 24
21 3 -11.0829 85.3598 38.289 24
22 3 -10.3956 82.5264 37.3833 20
23 1 -11.5578 83.4838 38.9449 27
24 3 -10.0158 82.4296 39.875 23
25 1 -11.6742 88.6959 40.8999 27
28 3 -12.8194 86.3531 40.7034 23
31 1 -14.2733 85.8655 39.1878 25
32 1 -14.247 83.082 40.6249 25
33 2 -12.0591 85.1568 41.4587 24
34 3 -10.4919 85.3555 41.424 25
35 3 -12.381 83.7258 40.8696 22
36 3 -13.6627 83.6674 38.637 22
37 1 -11.5525 88.8283 35.363 20
38 3 -12.8323 84.9935 42.8731 23
40 2 -11.599 86.8975 38.0865 21
41 3 -13.1015 86.978 37.9667 21
43 3 -10.8353 87.3546 36.7221 19
44 3 -10.8288 87.7475 39.277 23
169 1 -11.3267 81.9755 41.6166 25
171 2 -14.0778 82.2684 43.7112 23
172 3 -12.4835 82.3487 43.596 21
189 1 -14.1447 86.4251 42.4381 26
192 2 -11.4456 87.523 44.0103 24
193 3 -13.0066 87.5375 43.8749 21
195 3 -10.8144 88.1265 42.6594 24
1380 3 -8.13185 84.4109 36.6374 24
1395 1 -6.86047 83.9852 38.4735 26
1396 2 -9.36513 81.9889 38.5008 24
1397 3 -7.8209 82.2184 38.6388 22
1398 3 -5.99913 85.7458 38.3617 26
1399 3 -5.30447 83.4746 37.2596 26
1400 1 -6.48701 81.0675 39.5021 27
1401 3 -5.09074 82.6202 39.6177 25
1402 1 -6.87019 88.5578 41.0657 29
1405 3 -8.05265 86.7764 41.1444 25
1408 1 -9.50467 86.2566 39.8164 28
1409 1 -8.43901 82.8509 41.3573 26
1410 2 -7.2707 85.4104 41.2696 24
1411 3 -5.75221 85.5301 41.1805 24
1412 3 -7.25181 81.3129 41.375 29
1413 3 -7.88132 84.4971 40.0785 25
1415 3 -7.80045 84.529 42.5324 22
1417 2 -6.72916 87.1783 38.1598 24
1418 3 -8.30421 87.0481 38.1479 22
1420 3 -6.16327 87.5454 36.7754 23
1421 3 -5.9538 88.0123 39.3638 22
1546 1 -8.67063 80.1715 42.4452 25
1551 3 -4.97472 82.9553 42.9709 26
1566 1 -9.33325 86.234 42.7537 25
1572 3 -5.93385 87.938 42.7752 24
1394 1 -6.68013 83.0802 36.0132 22
39 1 -13.9687 88.8063 37.3911 22
1416 1 -9.52362 88.7249 37.885 22
1536 3 -7.59389 81.1329 36.031 23
1374 1 -9.52338 85.78 36.8752 23
2751 1 -5.00356 85.5396 36.6252 29
11013 1 -14.3231 84.4706 36.2769 23
1414 1 -6.65759 88.9755 35.4673 23
1545 3 -5.16813 80.579 43.9541 25
1570 3 -8.17997 87.3018 44.119 23
1569 2 -6.59424 87.4008 44.0987 25
2758 3 -3.26541 99.5422 35.1116 23
1547 1 -6.40605 83.7665 44.2049 29
173 3 -10.7066 86.1205 44.1627 21
1550 3 -5.96438 85.8609 44.3285 24
9977 3 21.1185 80.0069 52.0602 25
1539 3 -4.70725 80.9352 37.8936 24
1390 3 -3.9066 80.9243 41.8591 21
1393 3 -3.20042 80.757 35.7666 19
2757 3 -3.20525 85.6171 35.9126 24
2767 3 0.551942 81.5833 42.671 24
2769 3 -2.67847 81.0821 39.7884 26
2770 3 -0.530513 80.9373 37.3776 21
2772 1 -2.10972 84.1728 36.7407 24
2773 2 -4.37215 82.5327 38.1643 25
2774 3 -2.96791 82.9217 37.9023 24
2775 3 -1.24646 85.6215 37.9225 25
2776 3 0.142362 83.4162 37.0209 21
2777 1 -2.25671 83.0593 39.746 23
2778 3 -0.335805 82.6467 39.5296 22
2779 1 -1.9242 88.7263 40.9696 29
2782 3 -3.22364 87.0713 41.2133 26
2785 1 -4.60049 86.4524 39.7005 27
2786 1 -4.57872 83.7749 41.2596 29
2787 2 -2.47119 85.5905 41.3258 24
2788 3 -0.946187 85.5753 41.1266 22
2789 3 -1.78407 82.9511 41.8655 23
2790 3 -3.21259 84.7878 40.1022 27
2791 1 -2.95356 87.55 35.3379 25
2792 3 -3.16487 85.0052 42.5965 25
2794 2 -1.93509 87.0938 38.1079 24
2795 3 -3.46246 87.1 38.1463 21
2797 3 -1.484 88.0392 36.9034 22
2798 3 -1.05853 87.6849 39.3494 25
2923 1 -1.16451 81.0283 41.6669 25
2924 1 -2.09291 83.8883 43.8315 29
2925 2 -4.20553 81.6332 43.3787 26
2927 3 -0.956515 86.0218 44.0289 24
2943 1 -4.48711 86.4636 42.7626 27
2946 2 -1.72165 87.4259 44.0383 26
2949 3 -1.02582 88.059 42.6625 24
4134 3 1.9905 85.0769 35.7074 21
4148 1 3.01472 81.0988 36.8268 18
4149 1 2.48482 84.0738 37.7347 23
4150 2 0.195235 82.2219 38.174 20
4151 3 1.84122 81.9161 38.2196 20
4152 3 3.86708 85.5675 37.9638 23
4154 1 3.25303 81.3545 39.7386 23
4155 3 3.97253 83.0174 36.7646 19
4156 1 2.92247 88.3429 40.8819 26
4159 3 1.78501 86.6582 40.9123 25
4162 1 0.219389 86.1158 39.5553 27
4163 1 0.138547 83.3103 41.418 28
4164 2 2.40018 85.1664 40.8723 24
4165 3 3.96458 85.2014 41.0998 23
4166 3 3.41265 82.4492 41.3479 20
4167 3 1.7867 84.4945 39.5347 26
4169 3 1.58388 84.4938 42.0785 24
4171 2 2.97694 86.9765 37.8934 23
4172 3 1.41626 86.8103 37.8982 23
4174 3 3.62728 87.7324 36.6617 22
4175 3 3.61139 87.6099 39.1915 25
4300 1 2.66651 80.9442 42.5555 26
4301 1 3.09281 83.6473 43.0264 28
4305 3 4.82516 83.3246 43.861 22
4320 1 0.365136 86.4517 42.447 27
4324 3 1.61263 87.1022 43.8473 25
4326 3 3.88196 87.9063 42.6033 24
5505 1 4.09745 84.9158 35.9156 22
2793 1 -4.47522 88.8738 38.0909 26
4170 1 0.365078 88.9048 37.7944 24
4128 1 0.3656 85.561 36.65 25
4323 2 3.14131 87.3056 43.8355 26
2947 3 -3.25826 87.3967 44.1159 22
4299 3 4.83755 80.8407 43.4428 23
2766 2 -3.73773 80.1514 40.4287 27
4147 3 5.10337 82.0076 38.7249 23
4168 1 2.72669 88.55 35.0384 22
5667 3 7.99411 80.2416 36.4126 22
4144 3 6.24315 81.9969 41.7824 26
6882 1 7.71315 84.9417 36.2985 20
4153 3 5.15455 80.9444 36.3661 21
5511 3 6.04659 85.5669 35.4965 21
5521 3 9.07009 82.9749 43.1043 25
5526 1 7.85963 83.7123 38.5722 23
5527 2 5.3678 82.2528 37.1682 22
5528 3 6.77239 83.0748 36.896 22
5529 3 8.2855 85.6269 37.9678 23
5525 1 8.04271 81.872 35.549 22
5531 1 8.57294 80.9828 38.2204 22
5532 3 9.53177 82.8772 37.433 18
5533 1 7.62655 88.5119 40.9031 27
5536 3 6.50732 86.6961 40.8282 26
5539 1 5.19975 86.2731 39.4233 28
5540 1 5.15156 83.1294 40.41 27
5541 2 7.22405 85.3064 41.0059 24
5542 3 8.78697 85.444 40.9538 24
5543 3 8.50855 82.335 39.7479 21
5544 3 6.45196 84.5506 39.7556 21
5545 1 5.64377 87.4461 36.0368 26
5546 3 6.58861 84.7988 42.3518 24
5548 2 7.97642 87.1786 38.1139 23
5549 3 6.38138 87.2299 37.9765 22
5551 3 8.53384 88.0283 36.8185 19
5552 3 8.6855 87.7519 39.329 24
5677 1 7.78714 81.0528 41.0109 25
5678 1 7.64617 84.1117 43.9569 25
5679 2 5.70569 82.1874 43.2134 22
5682 3 11.2694 82.0166 43.884 23
5697 1 5.17929 86.4081 42.4371 29
5703 3 8.68134 87.8477 42.5494 25
6888 3 11.3633 84.4846 36.0997 21
6900 3 10.603 80.4721 38.3897 23
6903 1 12.8815 83.8919 38.05 25
6904 2 10.6705 83.0876 36.4021 23
6905 3 11.9975 82.2646 36.978 25
6906 3 13.4294 85.6208 37.9679 25
6908 1 12.6924 80.9787 38.4025 28
6909 3 14.045 82.6159 39.2559 24
6910 1 12.3838 88.4495 40.9355 28
6913 3 11.4583 86.4981 40.9509 23
6916 1 10.0918 86.3904 39.4985 23
6917 1 10.441 82.5308 39.4836 24
6918 2 11.969 84.9072 41.0195 25
6919 3 13.6277 85.0008 41.0706 24
6920 3 11.3463 82.1276 41.2196 23
6921 3 11.5311 84.3286 39.6534 26
6922 1 12.4045 88.7337 35.3281 20
6923 3 11.5397 84.4596 42.4652 25
6925 2 12.7303 87.0109 37.9201 22
6926 3 11.1796 87.1086 38.0572 21
6928 3 13.3889 87.6974 36.6644 21
6929 3 13.3976 87.7148 39.2201 24
7054 1 12.9792 80.9652 41.472 22
7055 1 12.4134 84.0892 44.1809 24
7056 2 10.3516 82.2039 42.55 24
7057 3 9.63324 80.6328 42.2605 23
7074 1 9.91416 86.3114 42.4059 27
7077 2 12.6208 87.4135 43.9573 25
7078 3 11.0542 87.2076 43.9373 23
7080 3 13.3637 87.8416 42.6297 24
5547 1 5.08775 88.9583 38.2018 25
6924 1 10.1046 88.9879 37.9202 26
6907 3 14.6789 82.9006 36.9037 23
6902 1 13.3751 82.2685 35.479 25
5700 2 8.05658 87.4019 43.9903 25
5701 3 6.43719 87.3922 43.9551 24
8434 3 14.5711 81.7609 42.2282 23
7058 3 13.281 85.9841 44.1924 24
10180 1 23.0057 107.332 56.6862 25
6901 3 14.2048 80.3974 35.6214 23
6742 1 9.15476 88.8694 35.1773 20
5744 3 5.70128 107.485 45.9918 25
8299 1 17.2388 88.3178 35.1063 24
8294 1 14.7729 83.3747 40.9655 27
8433 2 14.7399 81.9107 43.845 22
8297 3 14.7252 80.4094 38.1453 22
8117 1 15.4638 83.9082 35.0473 24
8259 1 15.202 86.4639 36.2735 23
8265 3 16.5107 84.9579 36.2357 23
8275 3 17.9421 81.7982 41.3044 24
8278 3 18.9158 80.4282 37.5844 23
8280 1 16.8477 83.9013 37.932 25
8281 2 15.0452 82.0391 38.1582 23
8282 3 16.5387 82.0543 38.4465 25
8283 3 18.2549 85.3115 38.3106 25
8284 3 18.4476 82.7415 36.5168 22
8285 1 17.7846 81.0193 39.513 27
8286 3 19.2245 82.5363 38.9612 24
8287 1 17.1607 88.4886 41.0301 27
8290 3 16.0853 86.5206 41.0004 23
8293 1 14.689 86.1555 39.6907 28
8295 2 16.8375 85.13 41.1696 22
8296 3 18.3502 85.0485 41.3235 28
8298 3 16.2203 84.4062 39.8674 25
8300 3 16.1218 84.3664 42.4046 23
8302 2 17.5687 86.7464 38.1992 23
8303 3 15.9997 86.8747 38.1611 21
8305 3 18.1919 87.3119 36.7483 23
8306 3 18.1688 87.5644 39.3515 25
8431 1 16.3812 80.8763 41.9257 24
8432 1 17.437 83.6468 43.9339 25
8435 3 18.4294 85.5653 44.0414 22
8436 3 18.9944 82.4325 43.3815 22
8451 1 14.6447 86.1879 42.4513 25
8454 2 17.5582 87.1019 43.9182 25
8455 3 16.0393 86.8596 43.8932 25
8457 3 18.2057 87.714 42.6179 24
9642 3 20.5389 84.5936 36.4184 23
9652 3 23.8447 82.3822 42.4096 22
9636 1 18.5771 85.0391 36.2825 24
9657 1 21.7639 83.9424 37.77 26
9658 2 19.3251 81.9329 37.4606 24
9659 3 20.9402 81.8748 37.4012 22
9660 3 23.0409 85.4283 37.8442 22
9661 3 23.5459 82.7682 36.8053 22
9662 1 21.3759 82.0686 39.4789 28
9663 3 23.4848 81.8609 39.3478 24
9664 1 22.3252 88.566 40.7162 25
9667 3 20.893 86.4051 40.7726 24
9670 1 20.054 87.5156 39.4882 24
9671 1 19.286 84.3742 39.7206 27
9672 2 21.816 85.017 41.0218 26
9673 3 23.4143 85.0698 41.0357 25
9674 3 20.699 82.2259 41.4529 24
9675 3 21.4189 84.1505 39.6817 26
9677 3 21.2378 84.6714 42.5085 25
9679 2 22.5633 86.9611 37.7708 23
9680 3 20.9929 87.2438 37.767 21
9682 3 23.1406 87.6765 36.5145 20
9683 3 23.1079 87.4636 39.1774 22
9808 1 21.9523 81.2298 42.6668 22
9810 2 19.3458 81.676 42.0786 23
9812 3 23.1225 85.9104 43.9586 27
9828 1 19.6172 86.3148 42.3906 26
9831 2 22.4069 87.438 43.7602 25
9832 3 20.8124 87.2859 43.7769 23
9834 3 23.0272 87.8508 42.3909 23
8301 1 14.7982 88.8233 37.8952 26
9678 1 19.6545 88.7534 37.0331 24
9656 1 22.3184 81.2833 36.0202 24
9809 1 22.6187 84.1008 43.879 25
9676 1 22.4137 89.0293 35.2912 22
8264 3 15.8 89.0237 36.232 23
4367 3 0.819054 107.474 45.9631 25
9654 3 19.9264 80.1115 41.999 24
9823 1 20.1415 83.8581 44.1981 23
8266 3 15.9329 99.1324 35.2547 25
2 3 -13.3888 89.4577 35.5978 26
5 3 -13.2922 94.4024 35.3921 25
26 2 -13.9872 90.3093 40.5928 24
27 3 -10.6154 90.4182 40.8252 21
29 3 -13.1425 89.6833 39.3274 24
30 3 -13.2937 89.5554 41.8203 23
42 3 -10.9151 90.1651 37.2655 24
45 1 -12.2063 91.3815 36.0239 23
46 1 -12.7198 94.3642 37.2137 24
48 3 -13.4203 92.0391 37.507 21
49 3 -10.1274 94.8217 37.6001 22
50 3 -10.4853 92.7059 36.2355 22
51 1 -11.8018 91.2382 38.8369 27
52 3 -10.5077 92.7468 38.881 25
56 3 -13.1905 96.6566 40.6813 23
59 1 -14.3322 95.8959 38.8878 29
60 1 24.1386 93.3826 40.6012 26
61 2 -12.4649 95.2358 40.6964 25
62 3 -10.9083 95.2948 40.822 22
63 3 -13.4 91.7319 40.8282 26
64 3 -13.1312 94.5186 39.38 25
65 1 -13.4555 96.7778 35.3526 25
66 3 -13.1051 94.5618 42.0204 25
68 2 -11.8068 97.6288 37.6198 25
69 3 -12.8729 96.4568 37.3882 24
191 1 -14.1294 89.2708 43.8862 29
194 3 -10.4594 90.9502 43.8166 26
197 1 -11.8842 91.3687 42.1143 27
198 1 -11.8833 94.2432 43.6887 27
200 3 -13.0448 92.3832 43.6678 22
201 3 -11.098 96.102 43.7932 25
202 3 -10.545 93.0011 42.4423 24
220 2 -11.8205 97.617 43.6083 25
221 3 -13.3363 97.4226 43.5246 23
1379 3 -8.33405 89.5942 36.4182 19
1382 3 -8.20132 94.5052 35.1973 22
1403 2 -9.06211 90.4315 40.7161 25
1404 3 -5.74148 90.2888 41.0308 24
1406 3 -8.51929 89.7614 39.4202 23
1407 3 -8.40607 89.747 42.0266 22
1419 3 -5.68878 90.6509 38.0253 23
1422 1 -7.58054 90.7029 37.7618 25
1423 1 -6.4815 94.3002 36.0368 24
1424 2 -9.78437 93.3288 37.6033 24
1425 3 -8.30737 92.6431 37.7065 26
1426 3 -5.95636 95.6993 37.5232 24
1427 3 -5.36129 92.8823 36.7179 22
1428 1 -7.43233 92.9877 39.4189 24
1429 3 -5.5433 92.878 39.2029 24
1433 3 -8.34544 96.8399 40.8617 24
1436 1 -9.54705 96.2197 39.0953 29
1437 1 -9.84348 93.5253 40.6652 26
1438 2 -7.60764 95.5058 40.9399 25
1439 3 -6.05693 95.4737 40.8432 23
1440 3 -8.49098 91.9729 40.7716 25
1441 3 -8.2611 94.6529 39.8021 22
1442 1 -9.36057 96.0444 36.1139 25
1443 3 -8.25106 94.9036 42.3371 26
1445 2 -6.68179 97.114 37.7214 23
1446 3 -8.26216 96.9745 37.6161 23
1568 1 -9.22327 89.3176 43.7496 27
1571 3 -5.58149 90.9902 43.866 26
1574 1 -6.93546 91.3795 42.222 28
1575 1 -7.3024 94.2951 43.7855 26
1576 2 -9.77739 92.4555 43.7334 25
1577 3 -8.17905 92.3756 43.7354 23
1578 3 -6.1236 96.1948 43.7715 24
1579 3 -5.63469 93.0364 42.5412 24
1594 1 -9.83411 96.3771 42.1075 26
1597 2 -6.82916 97.5925 43.6789 25
1598 3 -8.38263 97.5359 43.771 22
71 3 -10.6848 97.5406 36.465 20
72 3 -11.2031 97.4431 39.0446 25
1375 1 -9.6466 90.7955 35.666 23
1448 3 -6.06077 98.0703 36.6417 21
1449 3 -6.25185 97.6641 39.1109 25
1600 3 -6.1699 98.2115 42.3139 24
223 3 -11.1233 97.9668 42.2522 23
2801 2 -4.96191 92.1049 38.0148 22
217 1 -14.6019 96.438 41.9301 29
199 2 24.1348 92.5167 43.6311 25
2953 2 -4.94695 92.5133 43.8616 25
2945 1 -4.37429 89.1729 43.9479 29
4133 3 0.997166 89.2698 35.8778 24
4023 1 -1.18058 94.2688 35.4021 21
2756 3 -3.69056 89.5123 36.2631 23
2759 3 -3.17295 94.355 35.8342 24
2780 2 -4.22051 90.4028 41.0018 24
2781 3 -0.863824 90.3986 40.9819 24
2783 3 -3.48481 89.604 39.8262 24
2784 3 -3.41378 89.8456 42.4169 24
2796 3 -0.6921 90.6489 38.1119 23
2799 1 -1.87603 89.9257 36.6602 22
2800 1 -2.42599 93.9764 37.8004 24
2802 3 -3.40288 91.8965 38.027 21
2803 3 -1.02303 95.3752 37.5049 24
2804 3 -0.775592 92.7115 36.7073 21
2805 1 -2.03818 91.2722 39.4694 28
2806 3 -0.950235 92.8777 39.3266 23
2810 3 -3.35529 96.9282 40.7365 23
2813 1 -4.72133 96.3779 39.3037 26
2814 1 -4.58101 93.6417 40.7932 25
2815 2 -2.57748 95.4515 40.6786 25
2816 3 -1.00941 95.5115 40.7377 22
2817 3 -3.55323 91.821 40.9267 25
2818 3 -3.37256 94.7451 39.485 24
2819 1 -4.26018 95.7353 36.4125 22
2820 3 -3.28713 94.7904 42.007 24
2822 2 -1.96103 97.9278 37.7428 25
2823 3 -3.39431 97.1596 37.6196 24
2948 3 -0.68338 91.0768 43.9071 26
2951 1 -2.15188 91.4582 42.2727 29
2952 1 -2.19947 94.1503 43.6432 29
2954 3 -3.34434 92.4101 43.9355 24
2955 3 -1.3447 96.0653 43.6675 24
2956 3 -0.759908 93.132 42.5093 23
2971 1 -4.75941 96.5505 42.1445 28
2974 2 -2.00402 97.4883 43.6298 25
2975 3 -3.62701 97.4211 43.643 22
4136 3 1.56171 94.5897 35.8766 24
4157 2 0.727297 90.3133 40.9691 25
4158 3 3.84412 90.4485 40.8597 22
4160 3 1.37977 89.5184 39.7343 22
4161 3 1.46863 89.8145 42.2859 23
4173 3 4.11572 90.578 38.0002 25
4177 1 2.39512 93.9624 37.5829 25
4178 2 -0.206768 92.2481 38.0702 23
4179 3 1.36408 92.2258 38.015 21
4180 3 3.85993 95.521 37.7114 23
4181 3 4.22964 92.5513 36.5485 21
4182 1 2.62431 91.2645 39.2804 27
4183 3 4.09151 92.8397 39.161 23
4187 3 1.48591 96.9103 40.7544 22
4190 1 0.172113 96.3594 39.0788 27
4191 1 0.250722 93.5341 40.7662 26
4192 2 2.28058 95.5052 40.6425 25
4193 3 3.80296 95.5169 40.7155 22
4194 3 1.32044 91.7839 40.8133 24
4195 3 1.56043 94.8455 39.3409 24
4196 1 0.362038 96.1788 36.3622 23
4197 3 1.69138 94.7016 41.9263 23
4199 2 3.18917 97.0301 37.6539 22
4200 3 1.64087 97.1962 37.5571 20
4325 3 4.14859 91.0162 43.8441 25
4328 1 2.63701 91.5389 42.3335 29
4329 1 2.6598 94.3777 43.8116 27
4330 2 0.0521331 92.5453 43.7686 25
4331 3 1.59079 92.4774 43.8202 22
4332 3 3.67152 96.2147 43.6713 24
4333 3 4.2152 93.1138 42.4813 23
4348 1 0.0317925 96.7806 42.047 26
4351 2 2.8824 97.6433 43.5334 26
4352 3 1.23863 97.4075 43.6217 22
2825 3 -1.11973 97.9552 36.3578 23
2826 3 -1.29083 97.7869 39.0849 24
2977 3 -1.40834 98.2388 42.4273 23
4202 3 3.96861 97.7571 36.4711 21
4203 3 3.61746 97.8015 39.0048 24
4129 1 0.543224 91.1858 35.7443 21
2752 1 -4.55402 91.1864 35.611 21
4322 1 0.42073 89.282 43.9258 27
4176 1 4.72199 90.8145 35.5749 20
5555 2 4.77369 92.0767 37.9529 22
5707 2 4.87115 92.4784 43.8168 25
5699 1 5.29675 89.1916 44.0448 27
5510 3 5.93359 89.5079 36.3075 21
5513 3 6.36984 94.3165 35.7239 24
5534 2 5.3925 90.3444 40.9769 25
5535 3 8.68534 90.3147 40.9579 23
5537 3 6.10033 89.525 39.8204 25
5538 3 6.08766 89.7289 42.2943 25
5550 3 8.82609 90.5873 37.9324 24
5553 1 7.55921 90.2812 36.5449 25
5554 1 7.36682 93.8085 37.4089 28
5556 3 6.30994 91.9629 37.9107 24
5557 3 8.58886 95.414 37.615 24
5558 3 8.96939 92.648 36.5456 22
5559 1 7.48337 91.2485 39.3527 29
5560 3 8.87159 92.8174 39.1086 24
5564 3 6.40132 96.8113 40.7167 23
5567 1 5.18979 96.4726 39.2559 26
5568 1 5.1019 93.5927 40.6894 26
5569 2 7.17416 95.3769 40.6432 25
5570 3 8.705 95.4864 40.6982 24
5571 3 6.174 91.7862 40.8827 24
5572 3 6.42901 94.6496 39.4428 24
5573 1 5.27534 95.9835 36.3111 25
5574 3 6.42011 94.7652 42.023 24
5576 2 7.89652 96.9729 37.5784 24
5577 3 6.35591 96.956 37.582 23
5702 3 8.97678 91.0532 43.808 24
5705 1 7.49344 91.4106 42.3217 28
5706 1 7.43968 94.3153 43.7513 27
5708 3 6.38471 92.4292 43.9264 24
5709 3 8.47546 96.1034 43.7211 25
5710 3 8.92711 93.0296 42.4212 24
5725 1 5.11266 96.4189 42.1701 29
5728 2 7.71186 97.5694 43.5425 25
5729 3 6.17833 97.482 43.6027 22
6887 3 10.7775 89.5365 36.1385 22
6890 3 11.1755 94.2252 36.0359 22
6911 2 10.227 90.3017 40.9592 25
6912 3 13.4896 90.2912 40.9282 23
6914 3 10.9853 89.5658 39.7788 25
6915 3 11.0015 89.718 42.2423 25
6927 3 13.436 90.5126 37.9779 25
6930 1 12.0093 91.1023 36.454 25
6931 1 12.1869 93.9669 37.8923 27
6932 2 9.49748 92.1138 37.8845 23
6933 3 11.0851 92.0589 37.9023 23
6934 3 13.7624 95.1488 37.5298 24
6935 3 13.638 92.5463 36.4318 21
6936 1 12.2347 91.2895 39.4619 29
6937 3 13.5841 92.6622 39.1211 25
6941 3 11.294 96.8668 40.8553 22
6944 1 9.94523 96.256 39.0638 27
6945 1 9.95036 93.6953 40.6991 27
6946 2 12.0382 95.4904 40.8046 24
6947 3 13.5605 95.3738 40.7343 22
6948 3 10.9351 91.8254 40.8926 26
6949 3 11.3503 94.7996 39.469 24
6950 1 10.1639 95.9277 36.2978 26
6951 3 11.3047 94.7331 42.0356 23
6954 3 11.1451 97.2195 37.6044 23
7076 1 10.1787 89.1767 43.9975 27
7079 3 13.8036 91.0346 43.894 25
7082 1 12.4214 91.1554 42.3874 29
7083 1 12.3462 94.2399 43.741 28
7084 2 9.63726 92.5563 43.6989 25
7085 3 11.1957 92.4031 43.9078 23
7086 3 13.2485 96.1463 43.6593 25
7087 3 13.7594 92.9949 42.4895 24
7102 1 9.83856 96.4394 42.2289 28
7105 2 12.4879 97.5972 43.5774 25
7106 3 10.9185 97.4585 43.6299 22
8309 2 14.2315 91.9305 37.8193 24
5579 3 8.59591 97.6365 36.3881 21
5580 3 8.36521 97.5694 38.9296 25
6957 3 13.3248 97.6552 38.87 24
7108 3 13.1174 98.2245 42.2648 25
8154 1 12.9768 94.3357 35.5848 24
5731 3 8.45252 98.1576 42.2759 23
6956 3 13.4661 97.9999 36.2862 24
6953 2 12.4968 98.1207 37.6101 23
8453 1 14.8104 89.2301 43.8828 29
8321 1 14.703 96.2037 38.8492 26
8461 2 14.547 92.4519 43.6896 25
8327 1 14.7636 96.1723 36.1748 23
9830 1 19.4793 89.1919 43.9323 25
9641 3 20.5007 89.4851 35.5837 22
47 2 23.8141 91.8683 37.663 24
8267 3 15.8696 94.2114 35.5206 25
8288 2 15.0068 90.2077 40.8722 25
8289 3 18.3368 90.209 40.9785 22
8291 3 15.6769 89.4388 39.671 24
8292 3 15.763 89.572 42.1911 23
8304 3 18.3415 90.2936 37.7982 25
8307 1 16.9389 90.5195 36.4174 25
8308 1 16.666 93.8895 37.5576 25
8310 3 15.7639 91.8897 37.7243 23
8311 3 18.1656 95.2988 37.4467 23
8312 3 18.3102 92.4414 36.587 23
8313 1 17.1205 91.1608 39.3486 27
8314 3 18.502 92.5334 39.0638 25
8318 3 16.0666 96.782 40.5487 23
8322 1 14.6648 93.5933 40.6951 29
8323 2 16.7947 95.3313 40.6609 25
8324 3 18.2779 95.2807 40.714 23
8325 3 15.7512 91.7157 40.7916 24
8326 3 16.1313 94.6438 39.3124 24
8328 3 16.0937 94.6481 41.9249 23
8330 2 17.6447 96.817 37.4928 23
8331 3 16.0855 96.9364 37.3848 25
8456 3 18.5145 90.9707 43.8793 23
8459 1 17.088 91.2879 42.3565 29
8460 1 17.0259 94.4286 43.6586 26
8462 3 16.1034 92.4912 43.866 22
8463 3 18.0527 96.2355 43.5535 24
8464 3 18.5204 92.8442 42.35 24
8479 1 14.6237 96.7032 42.0082 28
8482 2 17.34 97.7373 43.5015 26
8483 3 15.7908 97.5769 43.4893 22
9644 3 20.7665 93.7554 35.4872 26
9665 2 19.8811 90.303 41.0014 24
9666 3 23.2011 90.293 40.7284 22
9668 3 20.5792 89.3876 39.8317 23
9669 3 20.5185 89.7527 42.3232 25
9681 3 23.3714 90.3672 37.903 25
9684 1 21.2669 91.6646 35.6589 23
9685 1 21.6756 93.6504 37.4588 26
9686 2 19.0337 91.7805 37.7767 23
9687 3 20.5848 91.7291 37.6587 21
9688 3 23.1884 95.1218 37.5237 23
9689 3 23.0416 92.4662 36.4207 22
9690 1 21.8922 90.9985 39.2379 26
9691 3 23.1402 92.5644 39.0122 23
9695 3 20.8404 96.553 40.4587 22
9698 1 19.6762 95.9533 38.8326 28
9699 1 19.5075 93.4856 40.511 25
9700 2 21.6344 95.1053 40.5724 25
9701 3 23.1683 95.2779 40.6031 23
9702 3 20.6605 91.6731 40.7571 25
9703 3 20.8661 94.3637 39.3496 23
9704 1 20.1022 97.2132 35.4236 25
9705 3 21.0001 94.587 41.9185 25
9707 2 22.5552 96.6535 37.338 22
9708 3 20.9449 96.6296 37.1338 26
9833 3 23.5166 90.9458 43.7563 25
9836 1 22.0977 91.4118 42.1462 26
9837 1 21.8563 94.1749 43.7352 27
9838 2 19.2818 92.4677 43.5929 25
9839 3 20.8459 92.3839 43.7576 23
9840 3 22.9183 96.1255 43.6745 25
9841 3 23.2667 93.0702 42.4684 20
9856 1 19.4809 96.6236 41.9815 29
9859 2 22.1595 97.6328 43.4388 26
9860 3 20.6154 97.4472 43.3911 23
8333 3 18.5164 97.6689 36.403 22
8334 3 18.1961 97.4637 38.8467 24
8485 3 17.9727 98.2468 42.1353 22
9710 3 23.4833 97.4838 36.2598 24
9711 3 22.9887 97.2983 38.7187 24
9637 1 18.862 94.1912 35.7732 23
9862 3 22.874 98.0801 42.1067 24
11014 1 23.6632 93.8683 35.1528 25
9804 2 20.3408 80.2267 49.1174 23
1381 3 -8.62485 99.3152 35.1651 24
1377 1 -10.7784 104.247 35.455 21
84 3 -13.696 107.12 40.2363 25
53 1 -12.2553 98.4906 40.6355 28
55 3 -11.2382 100.39 40.4379 23
57 3 -13.8863 99.4914 39.6762 22
58 3 -13.6593 99.902 42.0283 23
70 3 -12.6339 99.0181 37.4778 24
73 1 -13.3177 100.708 35.5541 24
74 1 -13.2532 105.023 37.4067 24
75 2 -10.9905 102.264 37.1773 26
76 3 -14.3817 101.142 37.3317 25
77 3 -11.4931 105.677 36.8139 22
78 3 -12.045 102.456 35.9971 20
79 1 -12.4879 100.737 38.6879 22
80 3 -11.585 102.619 38.4985 26
88 1 -10.3592 103.668 40.0176 27
89 2 -13.04 105.635 40.4441 24
90 3 -11.5125 105.774 40.2361 21
91 3 -13.8857 101.902 40.501 25
92 3 -13.6808 104.723 39.3651 19
93 1 -10.9751 107.171 35.4343 24
94 3 -13.594 105.062 41.8172 24
222 3 -10.8924 101.164 43.3997 25
225 1 -12.3239 101.548 41.7368 27
226 1 -12.6008 104.477 43.5089 26
227 2 -10.3383 102.652 43.3176 25
228 3 -13.5799 102.676 43.4546 23
229 3 -11.7117 106.366 43.3948 24
230 3 -10.9582 103.096 41.9475 24
245 1 -10.2085 106.842 41.6944 29
1384 3 -9.72487 103.052 36.7159 24
1430 1 -7.38808 98.6331 40.6096 24
1431 2 -9.65711 100.308 40.4001 25
1432 3 -6.32938 100.64 40.6444 25
1434 3 -8.83051 99.4813 39.2675 21
1435 3 -8.88836 99.8361 41.7564 25
1444 1 -8.96479 99.2889 37.2745 25
1447 3 -7.452 100.809 37.1508 26
1450 1 -8.75265 101.367 35.5239 25
1451 1 -8.10501 104.144 37.2647 23
1452 2 -6.1458 102.086 36.9455 24
1453 3 -10.4091 100.768 37.3717 24
1454 3 -6.86849 105.745 36.8026 23
1455 3 -7.32675 102.897 35.8326 24
1456 1 -7.49068 101.284 39.0224 25
1457 3 -6.53548 102.898 38.3865 24
1465 1 -5.43083 103.623 39.9592 28
1466 2 -8.31921 105.792 39.993 22
1467 3 -6.76933 105.977 39.9385 22
1468 3 -9.02537 101.815 40.3121 26
1469 3 -8.90316 104.77 38.9695 21
1470 1 -6.36263 107.265 35.362 25
1471 3 -8.7705 105.321 41.5828 22
1596 1 -9.65568 99.2707 43.5246 29
1599 3 -5.98912 101.111 43.566 25
1602 1 -7.61134 101.641 41.8063 26
1603 1 -7.6045 104.415 43.1358 26
1604 2 -5.45436 102.664 43.2946 25
1605 3 -8.76429 102.623 43.3368 23
1606 3 -6.7201 106.293 43.1462 25
1607 3 -6.21446 103.311 41.9833 24
1622 1 -5.47934 106.718 41.4164 25
1464 1 -6.15307 106.982 38.1437 26
97 3 -14.1556 106.987 37.2734 24
1461 3 -9.1502 107.197 39.8793 23
2754 1 -6.20957 104.426 35.5398 23
87 1 -10.647 106.858 38.3701 26
2830 3 -4.9992 101.027 37.4508 23
2973 1 -4.75064 99.3409 43.6294 27
2808 2 -4.748 100.44 40.7454 24
54 2 -14.4618 100.413 40.7324 25
4678 1 3.99826 107.298 53.548 28
2753 1 -6.65112 99.159 35.1905 24
4354 3 3.52327 98.24 42.2387 24
2761 3 -5.02252 103.057 36.2349 21
4131 1 -1.41335 100.335 36.2298 25
1613 3 -8.77533 107.402 46.2829 24
2807 1 -2.42658 98.8006 40.5513 28
2809 3 -1.43415 100.501 40.4419 22
2811 3 -4.14424 99.4695 39.7361 23
2812 3 -3.91828 100.119 42.0911 23
2821 1 -4.48071 99.0736 37.5213 26
2824 3 -2.42153 99.5561 37.7423 24
2827 1 -3.85335 101.429 35.4714 25
2828 1 -3.71545 104.491 36.8502 22
2829 2 -1.27634 103.031 37.2143 23
2831 3 -3.34017 106.26 36.3888 25
2832 3 -2.45166 102.278 36.4855 20
2833 1 -3.13719 101.427 38.6848 26
2834 3 -1.69102 102.989 38.7534 22
2842 1 -0.56669 103.758 40.2964 27
2843 2 -3.40972 105.712 39.8155 23
2844 3 -1.78162 105.999 39.7823 25
2845 3 -4.06828 101.927 40.4058 25
2846 3 -4.00533 104.808 38.7416 24
2847 1 -1.48512 106.336 35.8006 21
2848 3 -3.93575 105.165 41.2374 23
2976 3 -1.25219 101.264 43.4654 26
2979 1 -2.63674 101.663 41.7585 28
2980 1 -3.10658 104.736 42.9888 28
2981 2 -0.667744 102.76 43.4358 25
2982 3 -3.92261 102.68 43.3174 23
2983 3 -1.92347 106.342 42.866 24
2984 3 -1.38963 103.284 42.12 22
2999 1 -0.659522 106.753 41.2169 27
4138 3 -1.28528 104.497 36.6496 21
4184 1 2.58874 98.796 40.52 26
4185 2 0.168923 100.56 40.2913 24
4186 3 3.55303 100.548 40.4645 24
4188 3 0.908817 99.8183 39.0652 25
4189 3 0.905929 99.9925 41.5988 22
4198 1 1.44863 99.3283 37.2062 24
4201 3 2.67689 101.147 37.0425 22
4204 1 1.27643 101.759 35.5155 24
4205 1 0.884083 105.276 36.5199 23
4206 2 3.9275 101.944 37.5344 24
4207 3 -0.00804216 102.005 37.0426 26
4208 3 2.73354 106.133 36.8618 22
4209 3 1.71828 103.667 35.5896 24
4210 1 1.40688 102.556 38.4283 24
4211 3 3.36931 102.83 38.7875 22
4219 1 4.46162 103.833 40.0738 26
4220 2 1.57993 105.511 39.712 25
4221 3 3.09607 105.697 39.9499 21
4222 3 0.693824 102.104 40.2811 24
4223 3 0.999592 104.517 38.6722 22
9875 3 20.2567 107.505 46.4781 24
4225 3 0.799078 104.956 41.2189 24
4350 1 -0.0899603 99.6047 43.3315 25
4353 3 3.46749 101.189 43.381 27
4356 1 2.28478 101.771 41.3256 24
4357 1 1.79629 104.487 42.8191 26
4358 2 4.11104 102.739 43.2275 25
4359 3 0.893057 102.793 43.3108 23
4360 3 2.81045 106.285 43.0826 25
4361 3 3.47509 103.391 41.949 22
4376 1 4.18818 106.633 41.4675 28
4218 1 3.78459 107.283 38.111 26
2838 3 -4.23557 107.168 39.8471 25
4215 3 0.913738 106.956 39.6492 21
5508 1 3.49749 104.596 35.882 23
5515 3 4.59619 103.068 36.5389 21
2990 3 -3.97055 107.554 46.1171 23
4135 3 1.51796 99.1786 35.2668 23
5592 3 5.33976 107.386 39.7249 23
5727 1 4.82087 99.5226 43.5454 24
6884 1 8.10247 99.2048 35.3857 27
5575 1 5.87625 99.0694 37.3866 22
8783 1 15.2513 99.8475 55.6766 27
6982 3 10.0413 106.946 37.2953 22
6885 1 10.6564 101.474 35.2827 24
8773 3 16.3348 100.167 57.3127 24
5561 1 7.44071 98.5352 40.5253 27
5562 2 5.07776 100.342 40.4943 23
5563 3 8.2894 100.468 40.6144 22
5565 3 5.91884 99.4018 39.44 21
5566 3 5.73126 99.9144 41.9436 25
5578 3 7.91342 100.049 37.3446 23
5581 1 5.82489 101.362 35.6828 23
5582 1 6.39284 104.208 36.9687 19
5583 2 8.64056 102.616 37.1493 22
5584 3 5.17155 101.0 37.5772 22
5585 3 6.68854 106.273 36.4535 26
5586 3 7.34385 102.625 36.1515 22
5587 1 7.07442 100.931 38.8382 26
5588 3 8.01819 102.765 38.6466 23
5596 1 9.07454 103.556 40.11 26
5597 2 6.17491 105.974 39.8432 22
5598 3 7.7396 106.287 39.8892 27
5599 3 5.64984 101.872 40.3426 23
5600 3 5.7287 104.855 38.7864 22
5601 1 8.58865 105.863 36.1767 22
5602 3 5.67969 105.284 41.2476 23
5730 3 8.45126 101.236 43.5068 25
5733 1 7.01737 101.698 41.8081 28
5734 1 6.70354 104.561 42.8797 26
5735 2 9.06193 102.685 43.3339 25
5736 3 5.7531 102.707 43.3116 22
5737 3 7.74228 106.334 43.018 24
5738 3 8.29644 103.296 42.0373 23
5753 1 9.01419 106.517 41.5084 24
6892 3 9.13827 104.227 36.9217 18
6938 1 12.209 98.7405 40.489 26
6939 2 9.83208 100.4 40.601 25
6940 3 13.0799 100.615 40.5919 23
6942 3 10.4145 99.3688 39.5565 23
6943 3 10.5399 100.065 42.0158 25
6952 1 9.89851 99.2526 37.5534 25
6955 3 12.1246 99.6185 37.6483 23
6958 1 13.1991 100.64 36.3048 24
6959 1 10.7044 105.001 37.4356 22
6960 2 13.2482 103.577 36.9333 18
6961 3 9.96474 101.818 37.1971 23
6962 3 12.5582 105.074 36.7297 23
6963 3 12.3911 102.436 35.9879 20
6964 1 11.689 101.652 38.6224 24
6965 3 13.0955 103.116 38.393 23
6973 1 14.0063 103.786 40.0959 28
6974 2 11.2786 105.704 40.3351 24
6975 3 12.81 105.79 40.2627 21
6976 3 10.5032 101.882 40.2119 26
6977 3 10.6728 104.785 39.2734 24
6978 1 13.3201 106.588 35.7057 22
6979 3 10.7155 105.252 41.7338 23
7104 1 9.72529 99.4303 43.6194 28
7107 3 13.2488 101.221 43.5422 26
7110 1 11.8197 101.709 41.8895 29
7111 1 11.8277 104.503 43.1964 24
7112 2 13.9432 102.677 43.3397 25
7113 3 10.6179 102.717 43.3419 23
7114 3 12.7269 106.388 43.3327 23
7115 3 13.1734 103.353 42.0413 23
7130 1 13.9733 106.795 41.707 27
6969 3 10.4543 107.183 40.367 24
6889 3 10.8897 99.3776 35.2907 24
8481 1 14.3855 99.4799 43.5707 26
8805 2 15.0422 106.137 58.1542 27
219 1 24.1734 99.3971 43.6599 26
7 3 24.2592 103.638 36.7232 21
67 1 23.9799 99.2131 37.9245 25
11016 1 22.9943 104.172 35.2731 23
8269 3 14.7343 103.592 36.3749 21
8315 1 17.0908 98.5414 40.1645 26
8316 2 14.6085 100.45 40.5626 24
8317 3 17.9498 100.524 40.3413 24
8319 3 15.3439 99.4944 39.3793 25
8320 3 15.3914 100.037 41.9401 24
8329 1 15.4401 99.1121 37.3974 24
8332 3 17.3122 100.068 37.4206 22
8335 1 16.2662 101.09 35.8387 23
8336 1 16.3273 104.392 37.4096 24
8337 2 18.6459 102.582 37.1983 22
8338 3 14.836 101.077 37.2693 23
8339 3 17.4049 105.705 36.3195 23
8340 3 17.4372 102.689 36.1229 21
8341 1 16.4733 101.257 38.6924 24
8342 3 17.9398 102.846 38.5546 26
8350 1 18.8224 103.737 40.0771 26
8351 2 16.0656 105.782 40.1182 23
8352 3 17.6375 105.932 39.9695 22
8353 3 15.3262 101.913 40.3485 25
8354 3 15.4147 104.953 38.9555 20
8355 1 19.7497 105.823 36.5952 24
8356 3 15.6092 105.166 41.5293 23
8484 3 18.1335 101.318 43.5543 26
8487 1 16.8041 101.532 41.7615 26
8488 1 16.4814 104.485 43.1201 28
8489 2 18.7545 102.839 43.4114 25
8490 3 15.4645 102.588 43.3475 23
8491 3 17.4847 106.355 43.2382 25
8492 3 18.1696 103.329 42.0281 24
8507 1 18.716 106.659 41.6472 27
9646 3 19.6008 103.695 36.6103 19
9692 1 21.8314 98.4004 40.136 26
9693 2 19.487 100.481 40.5251 23
9694 3 22.7479 100.463 40.5809 23
9696 3 20.0993 99.5056 39.4409 22