ITEM: TIMESTEP
2000
ITEM: NUMBER OF ATOMS
11016
ITEM: BOX BOUNDS pp pp pp
-14.54184 24.2364
80.0 135.0
35.0 90.0
ITEM: ATOMS id type x y z Coordination
3 3 -12.8482 83.9915 35.3239 22
13 3 -9.72274 81.8663 42.742 18
17 1 -11.4344 80.9873 36.8604 22
15 3 -12.5184 81.0202 40.6624 23
16 3 -9.85306 80.5187 38.4036 23
18 1 -11.1838 83.9095 36.137 22
19 2 -14.3197 82.3468 37.9884 20
20 3 -13.3301 81.2507 37.4116 26
21 3 -10.8861 85.5682 38.3433 23
22 3 -10.324 82.9043 37.5022 20
23 1 -11.549 83.7929 38.9963 25
24 3 -10.0099 82.5748 39.9596 23
25 1 -11.6448 88.8623 40.936 27
28 3 -12.7281 86.4944 40.7988 23
31 1 -14.211 86.1238 39.2408 25
32 1 -14.0302 82.5521 40.7152 22
33 2 -12.0968 85.2582 41.4229 26
34 3 -10.5058 85.3667 41.5084 24
35 3 -12.3567 83.818 40.7999 22
36 3 -13.4361 83.6076 38.3665 22
37 1 -11.4369 88.7176 35.2324 22
38 3 -12.75 85.1815 42.8805 23
40 2 -11.461 87.1619 38.061 20
41 3 -13.0196 86.9675 37.9263 21
43 3 -10.6909 87.6553 36.7431 20
44 3 -10.7374 87.9155 39.3615 22
169 1 -11.3328 82.3187 41.5953 23
171 2 -14.0234 82.4482 43.8513 22
172 3 -12.4176 82.3979 43.7327 22
189 1 -14.0273 86.9506 42.2871 25
192 2 -11.3521 87.8028 44.0726 24
193 3 -12.9284 87.7535 43.8917 21
195 3 -10.654 88.4078 42.6584 24
1380 3 -7.84022 84.5735 36.6968 22
1395 1 -7.01501 84.007 38.3784 24
1396 2 -9.38109 82.1468 38.5726 22
1397 3 -7.82887 82.2121 38.6026 22
1398 3 -5.95081 85.8091 38.2828 25
1399 3 -5.48014 83.336 37.0686 20
1400 1 -6.50258 81.0473 39.2656 26
1401 3 -5.08705 82.757 39.5579 26
1402 1 -6.79011 88.6562 41.1302 27
1405 3 -7.94932 86.8342 41.2963 24
1408 1 -9.37872 86.4618 39.8874 26
1409 1 -8.41379 82.9644 41.3753 25
1410 2 -7.15243 85.4225 41.3144 24
1411 3 -5.62303 85.5638 41.1727 23
1412 3 -7.28065 81.2413 41.3436 28
1413 3 -7.85031 84.5677 40.1332 25
1377 1 -10.8511 104.207 35.1609 20
1415 3 -7.63676 84.5668 42.5507 22
1417 2 -6.61682 87.2398 38.1521 24
1418 3 -8.21907 87.1242 38.0825 22
1420 3 -5.99656 87.6756 36.6936 24
1421 3 -6.01783 88.0846 39.3309 22
1546 1 -8.76139 80.2135 42.2629 24
1548 2 -9.3596 82.2546 44.255 22
1549 3 -7.82678 82.1915 44.5551 23
1551 3 -5.01714 82.7438 42.6906 24
1566 1 -9.21364 86.437 42.8387 24
1572 3 -5.81869 88.0632 42.8269 24
1394 1 -6.79119 83.2224 35.6297 22
39 1 -14.1171 89.1492 37.6175 26
1416 1 -9.43545 89.056 37.8838 23
1536 3 -7.76029 81.4131 36.0744 23
1374 1 -9.33942 85.7796 36.8551 24
2751 1 -5.45105 85.1641 36.3864 25
3072 3 0.30716 80.2505 52.9652 22
1390 3 -3.9325 80.5829 41.7332 21
1393 3 -3.69893 80.7765 35.6629 19
2757 3 -3.55805 85.5425 35.9531 27
2767 3 0.350957 81.5574 42.1036 24
2769 3 -2.74422 80.9552 39.6598 25
2770 3 -0.820945 80.8699 37.1443 23
2772 1 -2.14599 84.4154 36.6725 23
2773 2 -4.57017 82.5047 38.0106 25
2774 3 -3.05426 82.962 37.7882 23
2775 3 -1.16586 85.7827 38.0482 25
2776 3 -0.0611866 83.3316 36.785 19
2777 1 -2.34431 83.0066 39.5675 24
2778 3 -0.526622 82.5717 39.2391 21
2779 1 -1.97873 88.779 40.9167 26
2782 3 -2.97144 87.0381 40.9971 25
2785 1 -4.41181 86.3646 39.4924 29
2786 1 -4.46524 83.8503 41.2815 26
2787 2 -2.33359 85.5046 41.1182 24
2788 3 -0.768146 85.4058 40.9998 24
2789 3 -1.89329 82.9276 41.5992 22
2790 3 -3.14246 84.8564 39.9791 25
2791 1 -3.75058 87.5549 36.0823 26
2792 3 -3.10225 85.0999 42.4639 25
2794 2 -1.80038 87.345 38.1299 23
2795 3 -3.32501 87.4591 38.1947 22
2797 3 -1.15779 87.9174 36.7972 20
2798 3 -0.88369 87.9956 39.3065 25
2923 1 -1.06798 81.1508 40.7724 21
2924 1 -2.01462 83.6332 43.4881 28
2925 2 -4.27846 81.4143 43.1617 24
2926 3 -2.92449 81.6175 43.9814 24
2927 3 -0.822631 86.0046 43.8341 25
2928 3 -0.0741165 83.2615 44.0353 23
2943 1 -4.33479 86.7647 42.7381 27
2946 2 -1.53691 87.3957 44.0204 25
2949 3 -0.939567 88.1336 42.6923 22
4134 3 1.97502 85.2224 35.7377 23
4148 1 2.93976 81.1185 36.7364 17
4149 1 2.35497 84.0968 37.6866 23
4150 2 0.0119853 82.1167 37.822 21
4151 3 1.58854 81.9215 37.8812 19
4152 3 3.76844 85.7016 37.812 25
4154 1 3.12014 81.2678 39.6179 24
4155 3 3.90569 83.2182 36.5683 20
4156 1 2.80778 88.5902 40.954 28
4159 3 1.82909 86.7982 40.9998 25
4162 1 0.454347 86.3331 39.4502 26
4163 1 0.0421951 83.4088 41.3542 24
4164 2 2.45807 85.3447 40.9448 23
4165 3 4.00787 85.1885 41.0557 24
4166 3 3.44076 82.3221 41.2325 21
4167 3 1.84067 84.6805 39.5616 27
7050 2 10.8629 80.2808 47.2692 22
4169 3 1.75485 84.5831 42.222 22
4171 2 3.14133 87.2691 37.8883 25
4172 3 1.56754 87.1353 37.971 22
4174 3 3.67655 88.0556 36.6412 19
4175 3 3.80122 87.8209 39.201 24
4300 1 3.08777 80.6896 42.3699 23
4301 1 3.21624 83.4077 42.8683 25
4302 2 0.486409 81.7716 43.6473 23
4303 3 2.14226 81.9185 43.8862 22
4305 3 4.83396 83.145 43.873 22
4320 1 0.350529 86.6811 42.3145 26
4324 3 1.67814 87.1508 43.9447 24
4326 3 3.8887 88.0219 42.6797 22
5505 1 4.00132 85.0576 35.7921 22
2793 1 -4.46345 89.2151 38.2739 26
4170 1 0.678145 89.0639 37.8962 26
1539 3 -4.92299 80.9599 37.7461 23
4128 1 0.333269 85.728 36.5756 23
319 3 -9.56181 80.4344 51.3224 23
5667 3 8.19772 80.3195 36.3702 22
4144 3 6.21964 82.1476 41.8661 23
6882 1 7.16281 85.1006 36.3044 21
4147 3 4.74247 82.2423 38.7218 22
4153 3 5.04286 81.044 36.3601 21
4299 3 4.92911 80.7346 43.5337 22
5511 3 5.75992 86.072 35.4206 24
5521 3 9.54607 83.1398 43.293 24
2990 3 -4.00765 107.489 46.3266 24
5526 1 7.82797 83.8991 38.4719 23
5527 2 5.17016 82.3922 37.1936 21
5528 3 6.50548 83.1772 36.8835 20
5529 3 8.36319 85.7298 37.7972 22
5525 1 7.93779 82.2212 35.6459 20
5531 1 8.63297 81.109 38.2451 18
5532 3 9.19985 83.0109 37.1179 19
5533 1 7.75326 88.5486 40.8475 27
5536 3 6.47754 86.7748 40.9571 24
5539 1 5.18931 86.1898 39.3109 29
5540 1 5.05075 83.2188 40.43 27
5541 2 7.1871 85.3329 41.0511 24
5542 3 8.70884 85.5749 40.9483 24
5543 3 8.709 82.5755 39.8442 23
5544 3 6.45728 84.5857 39.7651 20
5545 1 5.37485 87.9988 35.2881 23
5546 3 6.78936 84.8335 42.4295 25
5548 2 7.99309 87.3135 37.9765 23
5549 3 6.35849 87.362 38.0145 22
5551 3 8.51385 88.1636 36.6687 21
5552 3 8.662 87.9521 39.2166 23
5677 1 7.7867 81.3098 40.8944 25
5678 1 7.73182 84.0819 43.9976 23
5679 2 5.86663 82.0673 43.3854 22
5682 3 11.8982 82.3613 43.6469 18
5697 1 5.32386 86.4762 42.624 30
5703 3 8.73894 87.8839 42.5941 24
6888 3 11.381 84.6043 36.2632 24
6900 3 10.3604 80.379 38.8978 23
6903 1 12.5806 84.1199 37.9126 26
6904 2 10.5321 83.284 36.3416 24
6905 3 11.5034 82.4352 37.517 25
6906 3 13.6169 85.7316 38.1634 24
6908 1 12.2153 80.9187 39.4602 23
6909 3 13.9512 82.5898 39.5901 24
6910 1 12.4163 88.7618 40.8724 28
6913 3 11.4345 86.8381 40.8776 24
6916 1 10.0932 86.441 39.427 25
6917 1 10.5727 82.7081 39.4324 23
6918 2 12.1681 85.3412 40.9414 25
6919 3 13.7458 85.3739 41.097 23
6920 3 11.4963 82.3251 41.1569 23
6921 3 11.5312 84.7022 39.6115 26
6922 1 12.7057 89.0029 35.4328 22
6923 3 11.6071 84.8106 42.2914 24
6925 2 12.8228 87.2284 38.0514 22
6926 3 11.304 87.2325 38.074 20
6928 3 13.482 87.8136 36.7223 22
6929 3 13.4837 88.047 39.2849 24
7053 3 14.2595 80.9848 45.0255 25
7054 1 12.9573 80.852 42.0293 21
7055 1 12.5934 84.3123 44.0514 26
7056 2 10.689 82.3549 42.4974 23
7057 3 9.91661 80.8138 42.3399 23
7058 3 13.5484 86.0441 43.9366 24
7074 1 9.97543 86.202 42.4538 29
7077 2 12.9198 87.5319 43.8868 25
7078 3 11.3403 87.4119 43.9103 22
7080 3 13.4965 88.0661 42.5004 24
5547 1 5.30595 89.0038 38.1462 24
6924 1 10.1916 89.1098 37.9004 27
3301 1 -0.85493 107.478 53.7288 28
8809 1 18.7353 107.192 53.7682 28
11013 1 -14.35 84.7625 36.3209 21
8259 1 14.9152 86.1257 36.5012 26
6907 3 14.0461 82.7159 37.0511 25
8265 3 16.1001 84.5928 36.1671 21
8275 3 17.8046 82.2519 41.4881 23
8278 3 18.8768 80.6168 37.0024 21
8280 1 16.8206 84.0658 37.9002 24
8281 2 14.7001 82.0334 38.3618 22
8282 3 16.2072 82.227 38.3388 22
8283 3 18.1382 85.718 38.0794 24
8284 3 18.5696 82.9508 36.0757 25
8285 1 17.5194 81.8229 39.6041 27
8286 3 18.8739 82.8978 38.5171 24
8287 1 17.344 88.7335 40.9858 27
8290 3 16.3944 86.83 40.9391 23
8293 1 14.9098 86.3478 39.5945 27
8294 1 14.9133 83.4975 41.225 27
8295 2 17.0416 85.3215 41.0324 24
8296 3 18.5743 85.2393 40.9878 27
8297 3 14.6421 80.3665 38.4913 19
8298 3 16.21 84.5663 39.7969 24
9676 1 22.3131 88.7412 35.0378 21
8300 3 16.2715 84.7094 42.2721 22
8302 2 17.5948 87.2729 38.0566 23
8303 3 16.0716 87.2583 37.9546 21
8305 3 18.0958 87.8671 36.6633 23
8306 3 18.2266 87.9593 39.311 24
8431 1 16.6684 80.708 42.2098 23
8432 1 17.3736 83.9689 43.7535 24
8433 2 14.981 82.0809 44.0358 23
8434 3 14.7341 81.7863 42.4717 23
8435 3 18.8058 85.9105 43.8748 23
8436 3 19.0737 82.8812 43.5646 22
8451 1 14.952 86.5081 42.3987 26
8454 2 17.845 87.3041 43.9237 25
8455 3 16.3143 87.0489 43.9073 24
8457 3 18.44 88.0025 42.5673 24
9642 3 20.5903 84.9915 36.6216 23
9652 3 23.9732 82.5177 42.481 21
9636 1 18.6673 84.9959 36.2887 21
9657 1 22.0237 84.143 37.6868 25
9658 2 19.3698 82.144 37.1896 24
9659 3 20.9637 82.0864 37.329 23
9660 3 23.122 85.8105 37.7649 20
9661 3 23.474 82.9184 36.8153 20
9662 1 21.3404 81.9931 39.456 23
9663 3 23.5177 82.0151 39.2404 21
9664 1 22.4995 88.9582 40.6845 25
9667 3 21.1057 86.5345 40.6843 25
9670 1 20.2433 87.8332 39.5359 23
9671 1 19.5075 84.646 39.1621 26
9672 2 21.9039 85.0714 40.8558 26
9673 3 23.4161 85.2784 40.7863 23
9674 3 20.5774 82.4336 41.4052 22
9675 3 21.4013 84.1672 39.6058 26
9804 2 20.351 80.1405 48.9798 23
9677 3 21.5255 84.7714 42.3901 24
9679 2 22.5511 87.3194 37.7337 22
9680 3 20.943 87.5213 37.8302 21
9682 3 23.1746 88.0144 36.5333 20
9683 3 23.2258 87.9649 39.0714 21
9808 1 22.0624 81.7504 42.5795 24
9810 2 19.3268 81.9888 42.1127 24
9812 3 23.3162 86.4605 43.9732 26
9828 1 19.9616 86.5557 42.3127 29
9831 2 22.6225 87.9135 43.7324 23
9832 3 21.0567 87.5953 43.7023 23
9834 3 23.2662 88.315 42.3464 23
8301 1 14.8435 89.2167 37.7695 27
9641 3 20.7202 89.6442 35.6773 22
9678 1 19.6369 89.0489 37.1196 21
9656 1 22.2133 81.8811 35.725 27
9559 1 17.4538 106.73 35.1799 22
2 3 -13.1739 89.503 35.7835 23
5 3 -13.1603 94.7886 35.5539 21
26 2 -13.7673 90.6877 40.7251 24
27 3 -10.5864 90.7314 40.6965 21
29 3 -13.1487 89.9205 39.4231 24
30 3 -13.122 89.9994 42.0044 23
42 3 -10.7839 90.4729 37.4632 23
45 1 -12.1466 91.1338 36.117 24
46 1 -12.4313 94.8404 37.3462 28
48 3 -13.2115 92.1962 37.4436 21
49 3 -10.1799 95.0326 37.6096 23
50 3 -10.4609 92.887 36.3003 22
51 1 -11.7334 91.4772 38.9491 29
52 3 -10.5427 93.0309 39.0097 25
56 3 -13.0264 97.1064 40.6924 23
59 1 -14.2983 96.6354 39.0814 27
60 1 -14.3096 93.8507 40.5768 25
61 2 -12.2758 95.7022 40.6803 25
62 3 -10.7081 95.714 40.8014 22
63 3 -13.1906 92.1491 40.8337 26
64 3 -12.9029 94.9824 39.374 24
65 1 -13.9125 96.8242 35.6413 22
66 3 -12.9591 95.0302 42.0065 24
68 2 -11.7815 98.2486 37.6553 24
69 3 -13.1056 97.3854 37.4414 22
191 1 -13.8868 89.7302 43.8017 29
194 3 -10.3602 91.2341 43.8176 27
197 1 -11.7416 91.787 42.1939 28
198 1 -11.8949 94.5514 43.738 28
199 2 -14.4639 92.9211 43.6159 25
200 3 -12.917 92.706 43.7586 23
201 3 -10.9762 96.2953 43.8061 25
202 3 -10.4549 93.2853 42.5185 24
217 1 -14.4394 96.751 42.0419 28
220 2 -11.6993 97.7654 43.6845 25
221 3 -13.258 97.6773 43.7007 22
1379 3 -8.27665 89.6254 36.308 19
1382 3 -8.12457 94.6076 35.3389 23
1403 2 -8.98353 90.686 40.6817 24
1404 3 -5.7231 90.6368 41.0536 24
1406 3 -8.46003 90.0404 39.3016 24
1407 3 -8.27785 90.0399 42.0002 23
1419 3 -5.61805 90.7161 37.9739 24
1422 1 -7.57465 90.8159 37.6648 27
1423 1 -6.58656 94.2386 36.2593 26
1424 2 -9.80053 93.4784 37.6425 24
1425 3 -8.30492 92.7869 37.6622 26
1426 3 -6.01036 95.555 37.699 24
1427 3 -5.39243 92.7186 36.5212 21
1428 1 -7.32586 93.1539 39.3309 23
1429 3 -5.47445 92.9125 39.1884 25
1433 3 -8.10245 97.1703 40.7575 23
1436 1 -9.48627 96.6052 38.9625 26
1437 1 -9.6517 93.9162 40.729 26
1438 2 -7.4238 95.7422 40.8151 25
1439 3 -5.84389 95.6952 40.7887 22
1440 3 -8.33963 92.1904 40.7789 24
1441 3 -8.15666 94.8845 39.6935 23
1442 1 -9.47052 96.2481 36.0728 24
1443 3 -8.06779 95.1143 42.1988 25
1445 2 -6.59379 97.0598 37.6373 23
1446 3 -8.15226 97.0995 37.4863 23
1568 1 -9.22965 89.5812 43.7925 27
1571 3 -5.44109 91.2346 43.7334 25
1574 1 -6.95144 91.6824 42.2394 28
1575 1 -7.02913 94.5166 43.7989 27
1576 2 -9.68079 92.7114 43.7653 25
1577 3 -8.08088 92.5763 43.7984 23
1578 3 -6.03009 96.2724 43.7592 25
1579 3 -5.61214 93.371 42.5105 23
1594 1 -9.56401 96.8172 42.1334 27
1597 2 -6.7849 97.7476 43.6587 25
1598 3 -8.33986 97.7658 43.6952 22
2801 2 -4.88592 92.1239 37.9571 22
2953 2 -4.80711 92.7526 43.7476 25
71 3 -10.6953 97.8616 36.5324 22
72 3 -11.1071 97.8563 39.0055 24
1375 1 -9.5598 91.0697 35.7831 24
223 3 -10.987 98.3353 42.396 24
1448 3 -5.81349 97.6239 36.4022 22
1449 3 -6.05951 97.7239 38.9863 25
1600 3 -6.10937 98.2791 42.3649 25
4023 1 -1.27287 94.0684 35.303 20
5400 1 3.19025 93.8864 35.1405 22
2756 3 -3.56267 89.4672 36.4254 22
2759 3 -3.13843 94.4537 35.7899 26
2780 2 -4.20062 90.5741 41.0873 24
2781 3 -0.813778 90.5132 40.9037 24
2783 3 -3.43826 89.8633 39.8426 23
2784 3 -3.45221 89.9626 42.3585 23
2796 3 -0.735191 90.6779 37.9681 23
2799 1 -1.73069 89.9485 36.5172 22
2800 1 -2.39589 94.0409 37.7869 24
2802 3 -3.30605 92.0314 37.8599 23
2803 3 -1.10296 95.6843 37.6691 25
2804 3 -0.641928 92.8442 36.6481 20
2805 1 -2.17123 91.3869 39.4722 29
2806 3 -0.846752 92.862 39.2332 23
2810 3 -3.28985 96.9938 40.6536 24
2813 1 -4.66836 96.319 39.2134 27
2814 1 -4.55916 93.8761 40.8349 28
2815 2 -2.59841 95.5916 40.7703 25
2816 3 -1.0298 95.5901 40.8241 23
2817 3 -3.42078 92.0603 41.0055 26
2818 3 -3.23286 94.7536 39.5719 24
2819 1 -4.44153 96.0171 36.2381 24
2820 3 -3.25581 95.0234 42.1284 24
2822 2 -1.88952 97.1849 37.5981 25
2823 3 -3.41204 96.8904 37.651 23
2945 1 -4.47824 89.3949 44.0879 24
2948 3 -0.653137 91.1342 43.9071 25
2951 1 -2.03663 91.5964 42.4232 29
2952 1 -2.19511 94.5146 43.7757 29
2954 3 -3.24996 92.6894 43.9117 23
2955 3 -1.19319 96.3073 43.818 25
2956 3 -0.761992 93.3242 42.6125 23
2971 1 -4.71641 96.7208 42.1877 28
2974 2 -1.96744 97.8007 43.6159 25
2975 3 -3.49974 97.6658 43.6289 22
4133 3 1.50249 89.6266 36.145 21
4136 3 1.59471 94.2814 36.1058 21
4157 2 0.687433 90.3719 40.8846 26
4158 3 3.86592 90.4515 40.982 22
4160 3 1.45198 89.7109 39.6576 23
4161 3 1.439 89.7495 42.1898 23
4173 3 4.08028 90.689 38.0703 24
4176 1 3.70998 90.1599 36.2649 25
4177 1 2.40657 93.9959 37.8926 27
4178 2 -0.139277 92.1828 37.9694 23
4179 3 1.44093 92.0518 37.8867 21
4180 3 3.6974 95.5545 37.6081 23
4181 3 4.20328 92.5942 36.4619 22
4182 1 2.65077 91.3888 39.3761 30
4183 3 4.03574 92.9566 39.081 24
4187 3 1.47595 96.9909 40.7202 24
4190 1 0.182549 96.4418 39.2601 28
4191 1 0.162196 93.7673 40.8545 28
4192 2 2.28412 95.5548 40.8128 25
4193 3 3.82946 95.5578 40.7518 22
4194 3 1.28886 91.9026 40.8435 25
4195 3 1.53134 94.7156 39.6377 24
4196 1 0.491943 95.8476 36.2709 24
4197 3 1.57293 94.9549 42.1355 24
4199 2 3.02666 97.0966 37.5386 23
4200 3 1.43704 97.0684 37.5813 22
4325 3 4.18874 91.0648 43.8768 25
4328 1 2.71285 91.5467 42.2791 29
4329 1 2.65913 94.4401 43.7817 28
4330 2 -0.0130322 92.6516 43.8453 25
4331 3 1.54577 92.5412 43.7936 24
4332 3 3.61641 96.2096 43.7835 25
4333 3 4.03306 93.2052 42.57 23
4348 1 0.0832254 96.6443 42.1695 27
4351 2 2.91771 97.7031 43.6485 25
4352 3 1.37108 97.6701 43.743 23
5555 2 4.71224 92.1396 37.9352 23
5707 2 4.79259 92.5418 43.7993 25
2825 3 -1.33628 97.9618 36.3671 23
2826 3 -1.22087 97.903 38.8754 24
2977 3 -1.29787 98.2806 42.268 25
4202 3 3.64106 97.646 36.2115 23
4203 3 3.58469 97.6785 38.8906 25
4354 3 3.56341 98.1898 42.2946 25
4129 1 0.667765 91.4382 35.4568 22
2752 1 -4.47855 91.0186 35.5673 22
5506 1 5.96793 92.433 35.4561 22
5510 3 5.8231 89.7285 36.1708 22
5513 3 6.42237 94.2775 35.789 22
5534 2 5.4327 90.3367 40.9393 25
5535 3 8.73971 90.5105 40.9949 23
5537 3 6.19472 89.8068 39.6791 24
5538 3 6.16557 89.6723 42.2528 24
5550 3 8.95747 90.713 38.0228 24
5553 1 7.74619 90.1842 36.5295 22
5554 1 7.35063 94.0071 37.6628 26
5556 3 6.25778 92.1171 37.8323 22
5557 3 8.64408 95.6332 37.6885 25
5558 3 8.84268 92.7754 36.5624 23
5559 1 7.58529 91.38 39.3698 28
5560 3 8.8637 92.9503 39.0887 24
5564 3 6.37371 96.9382 40.7602 23
5567 1 5.05649 96.3808 39.1881 27
5568 1 5.00121 93.6388 40.7977 28
5569 2 7.14148 95.522 40.7415 25
5570 3 8.70218 95.6117 40.7643 22
5571 3 6.02941 91.8383 40.9308 24
5572 3 6.42991 94.7525 39.5647 24
5573 1 5.1932 95.847 36.2433 25
5574 3 6.36757 94.9409 42.0763 24
5576 2 7.77841 97.0353 37.5574 23
5577 3 6.25998 96.7725 37.5266 21
5699 1 5.22274 89.2028 43.9156 26
5702 3 9.00739 91.1049 43.7995 25
5705 1 7.52075 91.4056 42.3054 28
5706 1 7.30314 94.4143 43.7635 27
5708 3 6.36298 92.4896 43.7518 22
5709 3 8.42603 96.2291 43.7282 25
5710 3 8.83411 93.164 42.4413 24
5725 1 4.97805 96.5408 42.1641 28
5728 2 7.69059 97.6983 43.5878 25
5729 3 6.12345 97.6098 43.6824 22
6887 3 10.9296 89.6889 36.0974 21
6890 3 11.2776 94.6176 36.1071 22
6911 2 10.295 90.5008 40.9358 25
6912 3 13.5322 90.5558 40.8725 23
6914 3 10.962 89.7692 39.6624 24
6915 3 11.074 89.8847 42.1869 24
6927 3 13.601 90.8174 37.8226 26
6930 1 11.8885 91.4277 36.233 25
6931 1 12.1533 94.3416 37.9198 26
6932 2 9.55246 92.2601 37.8261 24
6933 3 11.0783 92.2085 37.84 23
6934 3 13.6809 95.5232 37.6017 24
6935 3 13.6738 92.9354 36.5045 23
6936 1 12.2838 91.3282 39.3348 30
6937 3 13.6351 92.9067 39.0794 24
6941 3 11.2239 97.0482 40.8642 23
6944 1 9.97882 96.4617 39.1163 28
6945 1 9.83394 93.728 40.7272 27
6946 2 11.9412 95.5989 40.8286 24
6947 3 13.4984 95.6041 40.7214 22
6948 3 10.9712 91.9816 40.8894 25
6949 3 11.1671 94.8685 39.6061 23
6950 1 10.2 96.3717 36.1409 25
6951 3 11.2587 94.9753 42.1557 24
6953 2 12.4237 98.4582 37.7474 22
6954 3 11.0591 97.5706 37.5994 24
7076 1 10.2147 89.1967 43.886 28
7079 3 13.8358 91.1478 43.7507 26
7082 1 12.436 91.5909 42.31 28
7083 1 12.2068 94.4653 43.8306 27
7084 2 9.64318 92.6307 43.6799 25
7085 3 11.2353 92.6352 43.7949 22
7086 3 13.2414 96.1966 43.7224 25
7087 3 13.7861 93.2 42.4253 24
7102 1 9.82254 96.6311 42.2231 28
7105 2 12.5068 97.6502 43.676 25
7106 3 10.9275 97.6388 43.7003 22
8309 2 14.2567 92.2909 37.8102 24
8461 2 14.5044 92.6993 43.7147 25
5579 3 8.44439 97.59 36.2666 24
5580 3 8.3801 97.8288 38.8239 23
5731 3 8.37387 98.2489 42.2939 26
6956 3 13.3825 98.2262 36.4938 22
6957 3 13.1402 98.0588 39.1346 23
7108 3 13.1734 98.3178 42.4312 24
1247 3 -10.3241 85.3106 35.1447 17
8154 1 12.9993 94.5134 35.4074 22
6055 1 8.90909 107.521 53.6441 29
10102 3 22.085 79.9803 48.9042 22
47 2 24.0182 92.3123 37.671 23
8264 3 15.6828 89.7033 35.8548 25
8267 3 16.189 94.2613 35.4906 25
8288 2 15.1107 90.4556 40.8765 25
8289 3 18.4874 90.4529 40.9653 22
8291 3 15.727 89.8428 39.5503 24
8292 3 15.8722 89.8327 42.107 25
8304 3 18.5401 90.5995 37.7111 25
8307 1 17.0924 90.9553 36.4102 26
8308 1 16.8047 94.2016 37.3751 27
8310 3 15.85 92.0492 37.6895 21
8311 3 18.2216 95.5882 37.6019 22
8312 3 18.4026 92.7346 36.5332 24
8313 1 17.0301 91.4985 39.2803 26
8314 3 18.5571 92.7743 39.1276 24
8318 3 15.9817 96.9551 40.5394 25
8321 1 14.5357 96.6246 39.0428 26
8322 1 14.5799 93.7924 40.6455 27
8323 2 16.6915 95.5087 40.6149 26
8324 3 18.2968 95.5707 40.6598 22
8325 3 15.7857 91.9693 40.7749 24
8326 3 16.0992 94.6564 39.4037 23
8327 1 14.5784 96.6992 36.2381 22
8328 3 16.1136 94.9538 42.0035 24
8330 2 17.6148 97.1428 37.5883 23
8331 3 16.0621 97.2602 37.5357 24
8453 1 15.1176 89.3819 43.9084 28
8456 3 18.7271 91.2831 43.7329 24
8459 1 17.294 91.9558 42.1425 26
8460 1 17.0496 94.5426 43.6855 27
8462 3 16.0896 92.6652 43.7792 23
8463 3 18.1328 96.2385 43.6115 25
8464 3 18.6524 93.3366 42.4289 24
8479 1 14.5919 96.8201 41.977 29
8482 2 17.3667 97.7091 43.4696 25
8483 3 15.8041 97.5934 43.5975 22
9644 3 20.714 94.4387 35.644 24
9665 2 20.0447 90.5594 40.9168 24
9666 3 23.4185 90.7854 40.7457 22
9668 3 20.705 89.6938 39.7417 23
9669 3 20.798 90.0056 42.1983 25
9681 3 23.3973 90.8427 37.7484 23
9684 1 21.9061 91.226 36.1444 23
9685 1 21.8065 94.2445 37.3654 26
9686 2 19.1836 92.1272 37.752 23
9687 3 20.7593 92.1272 37.7166 20
9688 3 23.2621 95.7202 37.5501 24
9689 3 23.2261 92.9358 36.4482 19
9690 1 22.1024 91.6861 39.2241 26
9691 3 23.5274 93.0056 39.03 24
9695 3 20.9046 96.9801 40.5662 23
9698 1 19.5911 96.3247 38.9736 28
9699 1 19.5952 93.7699 40.6027 26
9700 2 21.6859 95.5585 40.546 25
9701 3 23.2489 95.6991 40.6375 22
9702 3 20.7099 92.021 40.6963 24
9703 3 20.9978 94.7675 39.3027 24
9704 1 19.8191 96.2788 35.9403 26
9705 3 20.9726 94.9515 41.8807 23
9707 2 22.5065 97.1487 37.4761 23
9708 3 20.9474 96.9088 37.3955 25
9830 1 19.6463 89.396 43.7488 24
9833 3 23.6719 91.3967 43.6439 24
9836 1 22.1875 91.8219 42.1438 28
9837 1 21.9733 94.6112 43.6385 27
9838 2 19.3992 92.7747 43.711 25
9839 3 20.9854 92.6616 43.6848 22
9840 3 22.9046 96.327 43.6234 24
9841 3 23.5298 93.4945 42.3846 23
9856 1 19.4235 96.608 41.9711 27
9859 2 22.1802 97.779 43.4907 25
9860 3 20.6279 97.747 43.5727 22
8333 3 18.3379 97.6922 36.3398 20
8334 3 18.2531 97.8253 38.8699 24
8485 3 17.99 98.2489 42.1475 24
9710 3 23.1964 97.9046 36.2497 21
9711 3 22.9428 97.8462 38.8545 23
9862 3 22.8468 98.2987 42.1692 25
84 3 -13.7433 107.083 40.302 24
9637 1 18.9626 93.8219 35.1023 22
4 3 -13.0977 99.0629 34.9688 23
7 3 -14.4563 103.824 36.4737 19
53 1 -12.133 98.8855 40.5921 28
54 2 -14.4581 100.516 40.5724 24
55 3 -11.1148 100.625 40.4455 23
57 3 -13.7887 99.6501 39.4236 23
58 3 -13.5925 100.043 41.8761 24
67 1 23.9975 99.3799 37.6416 27
70 3 -11.8983 99.8215 37.4076 21
73 1 -12.7102 100.858 35.9238 23
74 1 -13.298 105.098 37.2553 25
75 2 -10.3627 102.595 37.0909 24
76 3 -14.187 101.445 37.2593 25
77 3 -11.5124 105.705 36.8729 21
78 3 -11.6639 102.561 36.1308 19
79 1 -12.5126 101.403 38.719 25
80 3 -11.0149 102.767 38.5404 25
88 1 -10.1999 103.739 40.0827 26
89 2 -12.994 105.605 40.2844 24
90 3 -11.4305 105.796 40.1747 21
91 3 -13.8278 102.004 40.3993 24
92 3 -13.6143 104.758 39.1635 21
93 1 -10.6951 106.958 35.6535 21
94 3 -13.6382 105.024 41.658 23
219 1 -14.4296 99.5648 43.5662 28
222 3 -10.9836 101.287 43.428 27
225 1 -12.276 101.725 41.7915 28
226 1 -12.6498 104.503 43.3112 26
227 2 -10.3009 102.776 43.3118 25
228 3 -13.5829 102.621 43.3975 23
229 3 -11.5308 106.263 43.2476 25
230 3 -11.0198 103.389 42.0427 23
245 1 -10.2807 106.623 41.6164 27
1381 3 -8.38187 99.302 35.2383 22
1384 3 -9.44855 103.68 36.4035 21
1430 1 -7.12677 98.8813 40.4979 25
1431 2 -9.51109 100.588 40.3969 25
1432 3 -6.17022 100.671 40.454 24
1434 3 -8.81327 99.6844 39.3289 24
1435 3 -8.76454 100.239 41.809 24
1444 1 -8.73655 99.2118 37.2221 23
1447 3 -6.74246 100.164 37.3109 22
1450 1 -7.84261 101.247 35.7651 20
1451 1 -7.89039 104.455 37.29 24
1452 2 -5.41501 102.816 37.2866 22
1453 3 -9.3355 101.37 37.1065 25
1454 3 -6.61817 105.808 36.8249 19
1455 3 -6.69559 102.916 36.2648 20
1456 1 -7.40695 101.337 38.742 27
1457 3 -6.2413 102.99 38.6705 27
1465 1 -5.23103 103.905 40.2717 27
1466 2 -8.16307 105.682 40.2558 23
1467 3 -6.56956 105.853 40.104 21
1468 3 -8.85924 102.093 40.267 23
1469 3 -8.76533 104.886 39.0264 21
1470 1 -5.95329 107.085 35.6367 23
1471 3 -8.70056 105.059 41.6152 23
1596 1 -9.58865 99.6336 43.569 27
1599 3 -6.03455 101.318 43.5752 26
1602 1 -7.44356 101.796 41.7812 27
1603 1 -7.72658 104.549 43.2719 26
1604 2 -5.40743 102.815 43.3679 25
1605 3 -8.74868 102.654 43.3804 24
1606 3 -6.73384 106.284 43.3289 25
1607 3 -6.11482 103.331 42.0666 23
1622 1 -5.3625 106.947 41.5667 27
1464 1 -5.64559 106.771 38.4211 27
87 1 -10.4991 106.811 38.4421 26
97 3 -14.0621 106.971 37.1067 25
9654 3 19.4118 80.3521 41.9453 22
1461 3 -8.83704 107.094 40.2955 22
8349 1 18.4617 107.236 38.6661 25
4131 1 -0.605638 100.136 36.0006 23
2758 3 -3.96079 99.5818 35.334 23
2761 3 -4.45412 103.85 36.4892 21
2807 1 -2.32744 98.7882 40.4448 26
2808 2 -4.59121 100.628 40.4856 25
2809 3 -1.37147 100.637 40.6058 21
2811 3 -3.91906 99.771 39.4036 23
2812 3 -3.90239 100.145 41.8734 24
2821 1 -4.57013 99.6354 37.4395 25
2824 3 -1.94897 100.411 37.3834 23
2827 1 -3.01991 101.331 35.881 23
2828 1 -2.79638 104.413 37.2747 21
2829 2 -0.474664 102.875 37.1059 20
2830 3 -4.37387 101.648 37.4742 24
2831 3 -2.31755 106.314 36.6531 23
2832 3 -1.7524 102.901 36.1605 20
2833 1 -2.62692 101.506 38.8228 28
2834 3 -1.22881 103.058 38.5486 26
2842 1 -0.380394 103.754 40.1217 25
2843 2 -3.24111 105.789 40.1677 24
2844 3 -1.6848 105.886 40.1267 22
2845 3 -3.94043 102.159 40.4126 26
2846 3 -3.83681 104.932 38.9778 22
2847 1 -0.44375 105.822 36.2377 21
2848 3 -3.87672 105.181 41.521 23
2973 1 -4.69131 99.6434 43.5884 26
2976 3 -1.16822 101.339 43.5395 26
2979 1 -2.55821 101.757 41.9 28
2980 1 -2.91036 104.658 43.2687 26
2981 2 -0.484452 102.864 43.3518 25
2982 3 -3.83501 102.801 43.4344 22
2983 3 -1.87224 106.358 43.2851 24
2984 3 -1.23848 103.365 42.0442 25
2999 1 -0.497858 106.569 41.7327 29
4135 3 1.022 99.3321 35.3437 25
4138 3 0.380086 104.15 36.8055 17
4184 1 2.56291 98.777 40.3798 25
4185 2 0.190342 100.626 40.6067 24
4186 3 3.53526 100.601 40.4826 24
4188 3 0.898592 99.7385 39.4939 22
4189 3 0.969957 100.173 41.9934 25
4198 1 0.377021 98.9046 37.7913 24
4201 3 2.96866 100.061 37.4406 23
4204 1 2.07559 101.001 35.9165 24
4205 1 2.12737 104.438 37.6323 23
4206 2 4.42172 102.513 37.2164 21
4207 3 0.493128 101.626 37.0333 23
4208 3 3.31579 105.745 37.0411 24
4209 3 3.20592 102.6 36.0941 20
4210 1 2.26867 101.341 38.8138 26
4211 3 3.58662 102.929 38.501 25
4219 1 4.48523 103.655 40.1932 27
4220 2 1.65922 105.776 40.4475 24
4221 3 3.17886 106.068 40.3775 22
4222 3 0.861905 102.023 40.3827 25
4223 3 1.25025 104.713 39.3966 23
4224 1 3.85409 107.071 35.67 23
4225 3 0.988766 105.26 41.8676 23
4350 1 0.185306 99.5876 43.6679 26
4353 3 3.70183 101.318 43.5885 26
4356 1 2.36258 101.719 41.8486 27
4357 1 2.06502 104.663 43.4497 26
4358 2 4.33272 102.779 43.3701 25
4359 3 1.06364 102.725 43.4553 23
4360 3 2.97728 106.419 43.402 24
4361 3 3.63592 103.306 42.0756 25
4376 1 4.37049 106.968 41.7109 26
5727 1 4.96352 99.5921 43.7139 26
4218 1 4.01241 106.995 38.5009 26
2838 3 -3.9945 107.236 40.1421 25
4215 3 0.850714 107.162 40.3485 22
4228 3 0.502272 107.061 37.4525 22
6982 3 10.1093 107.185 37.3615 22
6885 1 9.77541 100.943 35.7485 23
5512 3 6.01419 99.3802 35.2413 23
5515 3 5.44632 103.534 36.4827 21
5561 1 7.50811 98.6476 40.4558 26
5562 2 5.12289 100.408 40.566 24
5563 3 8.33207 100.678 40.5085 23
5565 3 5.84373 99.4946 39.5559 21
5566 3 5.80085 100.057 42.0089 25
5575 1 4.71834 99.4463 36.7362 25
5578 3 8.2235 100.304 37.26 23
5581 1 6.8304 101.084 35.8533 23
5582 1 6.70737 104.503 37.5768 24
5583 2 8.93874 103.084 37.1719 20
5584 3 5.42575 101.306 37.3523 24
5585 3 6.95465 106.34 37.2186 21
5586 3 8.10231 102.593 35.9624 20
5587 1 7.07524 101.176 38.7276 28
5588 3 8.08872 102.995 38.5557 26
5596 1 9.09742 103.688 40.2207 27
5597 2 6.4039 105.832 40.3045 24
5598 3 7.99304 105.945 40.2465 25
5599 3 5.68962 101.955 40.4044 25
5600 3 5.8113 104.761 39.3113 21
5601 1 8.61161 106.401 36.1664 20
5602 3 5.87312 105.407 41.7824 23
5730 3 8.53495 101.321 43.4923 26
5733 1 7.13089 101.613 41.8981 29
5734 1 6.92142 104.569 43.2897 26
5735 2 9.17324 102.82 43.3788 25
5736 3 5.914 102.663 43.4387 22
5737 3 7.88365 106.392 43.4099 24
5738 3 8.42179 103.362 42.0959 25
5753 1 9.15088 106.586 41.8727 25
8424 3 18.7107 80.3366 39.5762 21
6892 3 9.18439 104.614 36.947 17
6938 1 12.1047 98.8908 40.7412 28
6939 2 9.86675 100.572 40.5591 25
6940 3 13.2162 100.67 40.6484 23
6942 3 10.4663 99.5852 39.5235 21
6943 3 10.6564 100.121 41.9692 24
6952 1 9.67485 99.1184 37.7661 24
6955 3 12.2172 100.048 37.6583 23
6958 1 13.1425 101.106 36.3141 22
6959 1 10.8519 105.272 37.5571 23
6960 2 13.5007 103.934 37.1854 18
6961 3 10.2886 102.238 37.3011 24
6962 3 12.727 105.351 37.176 23
6963 3 12.8475 103.048 35.9874 19
6964 1 11.7009 101.802 38.6774 26
6965 3 13.212 103.137 38.5179 23
6973 1 14.112 103.634 40.1954 24
6974 2 11.318 105.664 40.5793 25
6975 3 12.8676 105.826 40.5196 22
6976 3 10.5295 102.036 40.4045 25
6977 3 10.7224 104.799 39.443 23
6978 1 13.4609 106.733 35.9526 22
6979 3 10.7262 105.149 41.9778 23
7104 1 9.7339 99.5799 43.6064 28
7107 3 13.3489 101.206 43.6286 26
7110 1 11.9583 101.736 41.7917 28
7111 1 11.7474 104.533 43.5226 26
7112 2 13.935 102.695 43.3778 25
7113 3 10.7305 102.718 43.5366 23
7114 3 12.6832 106.346 43.5475 25
7115 3 13.2802 103.257 42.0706 25
7130 1 14.0069 106.636 41.9416 28
5592 3 5.59736 107.242 40.0508 23
1378 3 -10.3285 81.2747 35.0603 18
6969 3 10.5378 107.14 40.5714 24
10180 1 23.1677 107.369 56.7075 25
8427 2 16.4783 80.1832 47.4299 22
11016 1 22.9404 104.338 35.069 23
165 2 -13.2371 80.0989 48.3062 25
2754 1 -5.73155 104.249 35.1267 21
6902 1 12.6993 81.5947 36.2048 26
8269 3 14.9794 104.149 36.5825 21
8315 1 17.0993 98.7597 40.3211 26
8316 2 14.7676 100.492 40.4819 25
8317 3 18.0364 100.626 40.462 24
8319 3 15.4814 99.5842 39.4231 24
8320 3 15.4409 100.127 41.9436 24
8329 1 15.5153 99.2542 37.2522 24
8332 3 17.4106 100.062 37.3306 22
8335 1 16.4469 101.025 35.7519 23
8336 1 16.5632 104.472 37.645 25
8337 2 18.6628 102.594 37.1174 23
8338 3 14.9594 101.188 37.0734 24
8339 3 17.7461 105.984 37.0503 23
8340 3 17.4332 102.727 36.0799 18
8341 1 16.4879 101.402 38.6511 25
8342 3 17.9523 102.96 38.511 26
8350 1 18.8112 103.814 40.1618 27
8351 2 15.9813 105.759 40.3665 24
8352 3 17.5622 105.935 40.2563 22
8353 3 15.4161 101.952 40.2618 22
8354 3 15.4593 104.836 39.2459 21
8355 1 19.7739 105.93 36.6405 25
8356 3 15.4995 105.183 41.758 23
8481 1 14.5207 99.6144 43.6576 26
8484 3 18.081 101.231 43.5594 26
8487 1 16.8028 101.7 41.7904 29
8488 1 16.479 104.588 43.3844 26
8489 2 18.7368 102.738 43.3973 25
8490 3 15.5062 102.685 43.4032 23
8491 3 17.4579 106.384 43.428 24
8492 3 18.0503 103.286 42.0825 23
8507 1 18.7692 106.714 41.7697 27
9643 3 20.4699 99.3326 34.9973 24
9646 3 19.5126 103.863 36.5565 19
9692 1 21.8675 98.7365 40.341 26
9693 2 19.5654 100.564 40.4579 24
9694 3 22.8074 100.616 40.5126 23
9696 3 20.3349 99.7164 39.3682 21
9697 3 20.2605 100.113 41.8717 24
9706 1 19.3972 99.4435 37.5215 28
9709 3 22.2395 100.212 37.3633 22
9712 1 21.2186 100.984 35.7266 23
9713 1 21.2979 104.041 37.4858 23
9714 2 23.5682 102.581 37.092 20
9715 3 19.703 101.426 37.1063 24