ITEM: TIMESTEP
6100
ITEM: NUMBER OF ATOMS
10500
ITEM: BOX BOUNDS xy xz yz pp pp pp
0	15.2977	5.09925
0	118.725	0
0	89.688	0
ITEM: ATOMS id type xu yu zu q pCrystal pDisloC pSF pDisloB pDisloA
1 1 6.2404 -6.37941e-06 0 1.2 4.238715461631016e-16 3.3179209196979744e-12 0.9999995370778342 4.62871178935239e-07 4.76693949829015e-11
2 1 3.46349 4.70768 1.4948 1.2 2.28171918221848e-10 2.1974609323303163e-08 0.999999925160938 5.238491550029384e-08 2.5136499976065264e-10
3 2 5.2885 2.02354 1.4948 2.4 3.5564926537346493e-13 8.227220492706384e-10 0.9999999723647764 2.6794441657569795e-08 1.7704272662876475e-11
4 3 5.33628 3.63678 1.4948 -1.2 4.773379617910347e-10 4.151357649877741e-08 0.9999999416999134 8.086728749928828e-09 8.222438714200228e-09
5 3 1.67294 1.04952 1.4948 -1.2 2.2063009293891992e-13 1.6697792276352028e-09 0.9999996932542858 3.0409577349406336e-07 9.799429998749271e-10
6 3 4.59532 1.31737 0.196716 -1.2 2.3342759844185122e-14 4.84371015111924e-10 0.9999998136963231 1.8534201040682678e-07 4.77269159269773e-10
7 1 6.18956 -6.37941e-06 2.9896 1.2 6.019373855429041e-16 1.5280746139325972e-10 0.9999946620601539 5.336138756865761e-06 1.6482764130033774e-09
8 3 4.55118 1.31737 2.79288 -1.2 2.522024268052816e-16 1.1291724030531067e-11 0.999996135100667 3.864731757454439e-06 1.562824967057756e-10
9 1 -1.20682 0.0413099 4.4844 1.2 9.981350715208002e-16 8.969672488086472e-11 0.9999626381315979 3.7360524770793485e-05 1.2539389644143242e-09
10 2 -3.0337 2.72544 4.4844 2.4 6.800702169561903e-12 6.513188905321087e-08 0.9999668038693477 3.3106941500139865e-05 2.4050459598014404e-08
11 3 -3.08099 1.11221 4.4844 -1.2 5.41708566676216e-15 4.177521347840677e-10 0.9999813377051398 1.866054396935929e-05 1.3331402171358246e-09
12 3 0.582463 3.69946 4.4844 -1.2 2.9351572279663466e-12 5.284480978144572e-10 0.9999906202714117 9.369854673209746e-06 9.342524813468554e-09
13 3 -2.29524 3.43162 3.18632 -1.2 1.087395130930246e-10 1.9119852771233796e-08 0.9999995758130542 3.9503455228093447e-07 9.923806160500668e-09
14 3 -2.34216 3.43162 5.78248 -1.2 1.3397199062712416e-12 1.984278455906962e-10 0.9999562733740548 4.372024427161703e-05 6.181906876271293e-09
15 1 1.12778 2.37449 2.9896 1.2 3.0403242855765757e-13 1.0727668537630448e-09 0.9999929125351258 7.0858776782639904e-06 5.141278838771183e-10
16 1 3.92855 2.33318 4.4844 1.2 8.818513984263536e-15 5.7765081385923294e-11 0.9999288425527677 7.115640074291602e-05 9.887089891906503e-10
17 2 2.09341 4.39804 4.4844 2.4 1.51496532615869e-12 3.7172058865114736e-09 0.9999904767080494 9.518807020567263e-06 7.662156021414477e-10
18 3 2.09991 6.01128 4.4844 -1.2 1.6167017454913581e-09 7.315760435570995e-09 0.9999999654332049 1.6150890473966638e-08 9.483446778375532e-09
19 3 -4.52137 3.42402 4.4844 -1.2 1.950674279806939e-12 1.4350264933110262e-09 0.9999911980349042 8.77491034175257e-06 2.561777703137859e-08
20 3 2.80834 3.69187 3.18632 -1.2 2.3677591484687606e-12 6.441822801560353e-10 0.9999999199965292 7.908160043543796e-08 2.7531808520432146e-10
21 1 1.17857 2.37449 0 1.2 1.354759046367866e-14 2.9403277288619637e-10 0.9999993306723065 6.688229672116635e-07 2.1068161088993408e-10
22 3 2.76143 3.69187 5.78248 -1.2 2.6847924582178886e-14 8.644398493921074e-12 0.9999366483107964 6.334888614381272e-05 2.794385850888971e-09
23 1 -1.67381 2.41581 1.4948 1.2 1.4954864781316085e-10 4.256206184036152e-08 0.9999973467004636 2.605279852460334e-06 5.308068585552016e-09
24 2 0.16286 0.350945 1.4948 2.4 3.768233029947722e-13 2.8362478606259623e-09 0.9999990465719717 9.501802679456652e-07 4.1113077047423647e-10
25 3 0.15972 -1.26229 1.4948 -1.2 7.790081786776576e-12 2.8273538684063518e-08 0.9999997373773145 2.2365608742257081e-07 1.0685273351955607e-08
26 3 6.77654 1.32496 1.4948 -1.2 2.225599715920733e-12 7.985025402254577e-09 0.9999998802359543 1.0364477731553372e-07 8.132019830231356e-09
27 3 -0.508028 1.05712 0.196716 -1.2 5.43929982437056e-14 1.9259341679955515e-09 0.9999995340227577 4.6248608738073416e-07 1.5651687742267347e-09
28 3 -0.552171 1.05712 2.79288 -1.2 5.1985850629189163e-14 5.879002834121479e-10 0.9999968126330778 3.1841417992693025e-06 2.637174046704967e-09
29 1 6.31713 4.74899 0 1.2 2.9312742182364196e-10 5.234796231920906e-08 0.9999998931494986 5.307270457718541e-08 1.136712466680257e-09
30 1 3.54847 9.45668 1.4948 1.2 3.208073814626209e-05 3.770574616723988e-07 0.999967442529465 2.5214133825768396e-11 9.964971950864133e-08
31 2 5.36879 6.77254 1.4948 2.4 1.8029325127537243e-06 5.419454855621712e-06 0.9999925944492758 1.5657821696255239e-10 1.830067792125682e-07
32 3 5.41937 8.38578 1.4948 -1.2 0.00038422280831923103 4.187943240155931e-05 0.9995711098260376 3.010180518018669e-13 2.7879329383488152e-06
33 3 1.75158 5.79852 1.4948 -1.2 3.145878682359348e-06 6.872737999781405e-06 0.9999895685646949 7.337245692932983e-11 4.1274524465118193e-07
34 3 4.67421 6.06637 0.196716 -1.2 2.5256808795803876e-08 3.9127909063895737e-07 0.9999995763885936 4.4679676396970743e-11 7.0308332108303585e-09
35 1 6.26654 4.74899 2.9896 1.2 3.541068676097917e-10 2.3114418410953147e-08 0.9999992500345739 7.122752276042052e-07 1.4221670162995596e-08
36 3 4.63043 6.06637 2.79288 -1.2 3.607719926286157e-08 1.6930100047030712e-07 0.9999997628274994 2.0591338932006234e-09 2.973517131844383e-08
37 1 -1.12976 4.79031 4.4844 1.2 9.988863722299905e-11 6.241275359482568e-10 0.9999976984368626 2.2996746512642453e-06 1.1644705409711871e-09
38 2 -2.9517 7.47444 4.4844 2.4 3.62936790038228e-09 8.175062891441109e-08 0.9999977316190616 3.226223579166696e-07 1.8603785833417578e-06
39 3 -3.00198 5.86121 4.4844 -1.2 1.8389293198416405e-10 7.750959659144394e-10 0.9999999363371777 5.938466305505548e-08 3.319176150130245e-09
40 3 0.666315 8.44846 4.4844 -1.2 1.1388571324386965e-07 1.786829169283514e-07 0.9999989046513805 5.298842017837656e-10 8.022501045847152e-07
41 3 -2.21213 8.18062 3.18632 -1.2 2.749125710063274e-07 6.270098220429019e-08 0.9999995768720751 5.3274702039297116e-11 8.546109452311713e-08
42 3 -2.25864 8.18062 5.78248 -1.2 2.3275117013645094e-08 6.0009909929953914e-09 0.9999993577486566 8.033255744114934e-09 6.04941973544561e-07
43 1 1.20893 7.12349 2.9896 1.2 1.3103751015394878e-07 1.581077953703495e-07 0.999999677871552 4.2231511530935804e-09 2.8759985978501976e-08
44 1 4.00982 7.08218 4.4844 1.2 1.899489736136187e-08 9.074921806659939e-09 0.9999998793753735 4.08609815785822e-08 5.169382532919625e-08
45 2 2.17861 9.14704 4.4844 2.4 9.83658940007739e-07 6.228621479102947e-07 0.9999957850197075 8.494015626349206e-09 2.5999651936115035e-06
46 3 2.18828 10.7603 4.4844 -1.2 3.6632081510924214e-06 6.72891424888665e-08 0.9999959946742856 9.868415741744337e-12 2.7481855708307586e-07
47 3 -4.43805 8.17302 4.4844 -1.2 3.197499998210533e-08 5.2460764476161523e-08 0.9999994328598422 3.680243381131393e-10 4.82336363540638e-07
48 3 2.89193 8.44087 3.18632 -1.2 2.0961433276134995e-06 2.3178758187281732e-07 0.9999973691819479 1.2610057991659456e-10 3.027610406249561e-07
49 1 1.25915 7.12349 0 1.2 1.514946595185479e-07 2.7016588503564414e-07 0.999999574340384 4.724482889240198e-10 3.5266190960994365e-09
50 3 2.84547 8.44087 5.78248 -1.2 2.3169834519228336e-08 5.585243385986231e-09 0.9999997081693124 4.769740965172635e-09 2.5830586936188084e-07
51 1 -1.59284 7.16481 1.4948 1.2 9.237699746820599e-07 4.993205797865866e-07 0.9999985456208182 3.480398373078442e-10 3.09405833933257e-08
52 2 0.240329 5.09994 1.4948 2.4 1.2773106437847624e-09 9.670925508015806e-08 0.9999998979233363 3.982504367739175e-09 1.075869427820919e-10
53 3 0.234538 3.48671 1.4948 -1.2 2.1738487019425554e-11 1.2815596216060885e-08 0.9999999689183601 1.4576020742531732e-08 3.668281612725406e-09
54 3 6.85564 6.07396 1.4948 -1.2 4.7740580347949e-07 2.6291392293834174e-06 0.9999964843825476 1.4156360266767558e-10 4.0893085487251606e-07
55 3 -0.429565 5.80612 0.196716 -1.2 2.907715244728101e-09 5.2662859837433276e-08 0.999999943400981 1.6056662039649337e-10 8.678749527256712e-10
56 3 -0.473377 5.80612 2.79288 -1.2 2.432869583927347e-09 8.51293417918725e-09 0.9999999786570586 6.743898958173207e-09 3.6532409766222616e-09
57 1 6.40169 9.49799 0 1.2 3.5748171301740564e-05 1.123357942192768e-06 0.9999630440438094 1.6278065803018827e-12 8.442532337764612e-08
58 1 3.64209 14.2057 1.4948 1.2 0.00023145974278158352 6.560259885388433e-07 0.9997676175520221 9.543841608319384e-13 2.6667824644251716e-07
59 2 5.45748 11.5215 1.4948 2.4 0.0011015333118927987 1.5962796532985292e-05 0.9988823431157381 6.288288795309632e-14 1.6077576994860087e-07
60 3 5.51101 13.1348 1.4948 -1.2 0.013411496702273184 0.00011592054966720334 0.9864651139575991 1.2100484055147287e-14 7.468790441503081e-06
61 3 1.83851 10.5475 1.4948 -1.2 0.0027735522554998594 1.1419603594457343e-05 0.9972134115584642 1.4754120152714027e-14 1.616582430404849e-06
62 3 4.7611 10.8154 0.196716 -1.2 0.0004473618880957899 1.0043712437607102e-05 0.9995421862187859 4.670254622116732e-14 4.0818062979058153e-07
63 1 6.35203 9.49799 2.9896 1.2 1.4339763630595417e-05 1.2716210383903817e-06 0.9999839560154965 6.415025129562962e-11 4.3253568028188545e-07
64 3 4.71833 10.8154 2.79288 -1.2 5.51216926908497e-05 1.1637614681654469e-06 0.9999431824199236 2.1025993430555098e-12 5.321238163476254e-07
65 1 -1.0438 9.53931 4.4844 1.2 1.7604637932278567e-06 5.255636291018912e-08 0.9999978615330732 5.766079159903592e-09 3.1968068496737214e-07
66 2 -2.8604 12.2234 4.4844 2.4 4.4825889953899495e-06 5.605045844966829e-07 0.9999939931730996 4.262495316417414e-10 9.633070677636742e-07
67 3 -2.91391 10.6102 4.4844 -1.2 8.569325408786812e-06 2.8630882530715633e-07 0.9999903179419545 6.48027187518205e-12 8.264173303902081e-07
68 3 0.7596 13.1975 4.4844 -1.2 1.0346947824077846e-05 1.0584648192066897e-06 0.9999866504708629 2.089735390651201e-11 1.944095602297323e-06
69 3 -2.12001 12.9296 3.18632 -1.2 5.840721847403666e-05 7.70602621775739e-07 0.9999403417042758 1.4062127717236118e-12 4.80473219913396e-07
70 3 -2.16532 12.9296 5.78248 -1.2 1.9544809130850603e-05 1.3989609217401732e-07 0.9999770999708967 5.3293891667706e-11 3.2152705851954603e-06
71 1 1.29891 11.8725 2.9896 1.2 9.198093546634521e-05 9.922627211006654e-07 0.999906260970073 1.8134362081813624e-11 7.658136001969162e-07
72 1 4.10033 11.8312 4.4844 1.2 1.942579044437141e-05 4.64309964504199e-08 0.9999796880374335 1.0147185254152585e-09 8.387264029351599e-07
73 2 2.27333 13.896 4.4844 2.4 6.364147125165067e-05 1.238964739330717e-06 0.9999335421465618 1.2968141290420702e-10 1.5772877594303758e-06
74 3 2.28634 15.5093 4.4844 -1.2 8.329741196332253e-05 3.4682007505652583e-07 0.999915730430998 2.805291564979248e-13 6.253366837023961e-07
75 3 -4.34533 12.922 4.4844 -1.2 3.155358899570169e-06 1.69336726103244e-07 0.999995968162053 2.4251703007641486e-11 7.071180645955276e-07
76 3 2.98455 13.1899 3.18632 -1.2 4.799118978672342e-05 5.739115251728633e-07 0.9999509455095028 3.564046382106963e-12 4.89385627483537e-07
77 1 1.34779 11.8725 0 1.2 0.0002787942136695237 2.117674005732555e-06 0.999718710232004 6.768146905178565e-13 3.778796465782077e-07
78 3 2.93934 13.1899 5.78248 -1.2 2.900067641034565e-05 9.509678993268849e-08 0.9999696196443841 7.10710979891074e-11 1.2845113425448402e-06
79 1 -1.50344 11.9138 1.4948 1.2 0.00014438594248065214 9.016751995096608e-07 0.9998544987532224 8.076066385764415e-13 2.1362828986162749e-07
80 2 0.326006 9.84894 1.4948 2.4 0.00017483827266255323 4.646281734847694e-06 0.9998204595858563 8.615417692810497e-14 5.5859660208293756e-08
81 3 0.317364 8.23571 1.4948 -1.2 0.00017538568553894152 8.828679658622262e-06 0.9998150768308774 1.9918475947507442e-12 7.08801937092822e-07
82 3 6.94307 10.823 1.4948 -1.2 0.001411431604685927 1.9058049170427437e-05 0.9985685744117674 1.7786968582632996e-14 9.359343602625558e-07
83 3 -0.343122 10.5551 0.196716 -1.2 0.00014444355516817859 3.798657096126173e-06 0.9998516055282192 7.186099130010151e-14 1.5225944088272268e-07
84 3 -0.385966 10.5551 2.79288 -1.2 4.077670027231863e-05 7.373832799504847e-07 0.9999579798245665 1.6468029789843627e-11 5.060754180216774e-07
85 1 6.49448 14.247 0 1.2 0.0012243268468362513 2.4347077633589506e-06 0.9987725680031739 5.815908387138777e-14 6.704421715719614e-07
86 1 3.74457 18.9547 1.4948 1.2 7.487357666869617e-05 2.706607420752688e-07 0.999924798540771 4.529584925023221e-13 5.722135940189637e-08
87 2 5.55495 16.2705 1.4948 2.4 0.0012527641010085752 1.2682861909502401e-05 0.9987345300973074 3.664935836517025e-15 2.2939769409102678e-08
88 3 5.6115 17.8838 1.4948 -1.2 0.008388205855334525 6.56024136390268e-05 0.9915451221091112 1.6451282238451594e-15 1.06962190722265e-06
89 3 1.93416 15.2965 1.4948 -1.2 0.021481911751445603 4.0716524994850945e-05 0.9784753808651807 1.0259429600797607e-15 1.9908583791718966e-06
90 3 4.85636 15.5644 0.196716 -1.2 0.012693980826543945 4.870047028829642e-05 0.9872559609257788 3.0454247028994725e-15 1.3577773865327827e-06
91 1 6.44662 14.247 2.9896 1.2 0.00011505974649359854 8.11043834519394e-07 0.9998837197331385 2.4873175408154685e-12 4.094740518544153e-07
92 3 4.81537 15.5644 2.79288 -1.2 0.0007013369043574386 6.362611009966104e-06 0.9992910728193488 3.3144712570212707e-13 1.2276649561425252e-06
93 1 -0.948271 14.2883 4.4844 1.2 1.553030730983261e-05 1.112830984070306e-07 0.9999836019626404 4.64424859587126e-10 7.559825334131147e-07
94 2 -2.75928 16.9724 4.4844 2.4 0.00014940177388116907 1.258568158477201e-06 0.9998489491005763 2.6291972986596384e-11 3.905310897267489e-07
95 3 -2.81617 15.3592 4.4844 -1.2 4.0541486958240906e-05 4.384083813274435e-07 0.9999580080634891 5.994009710970562e-13 1.0120405722653792e-06
96 3 0.862762 17.9465 4.4844 -1.2 6.571533457181542e-05 1.6717617070788094e-06 0.9999312637633604 2.03587888852583e-12 1.3491383273752878e-06
97 3 -2.0185 17.6786 3.18632 -1.2 0.00016991537643404122 1.2399871696152366e-06 0.999828581423931 1.3745825110766078e-13 2.632123296797618e-07
98 3 -2.06164 17.6786 5.78248 -1.2 0.0002396675789030343 1.642544088506611e-07 0.9997578403485272 6.8381700450016094e-12 2.3278113230125912e-06
99 1 1.39817 16.6215 2.9896 1.2 0.00032113786435899116 1.3523571949778435e-06 0.9996766704055576 1.8102795188809893e-12 8.393710793634771e-07
100 1 4.20062 16.5802 4.4844 1.2 2.1644671902572786e-05 4.1513150594338995e-08 0.9999778883526286 2.1478388004809078e-10 4.252475346939801e-07
101 2 2.37796 18.645 4.4844 2.4 7.227319912182189e-05 4.773396915941117e-07 0.9999271497830045 7.273283047172501e-12 9.967091559834639e-08
102 3 2.39434 20.2583 4.4844 -1.2 0.00011576985711311968 2.897851703555931e-07 0.999883627793963 4.386227724557652e-14 3.1256370437456054e-07
103 3 -4.24274 17.671 4.4844 -1.2 2.76661446507123e-05 5.19143982758427e-07 0.9999713968360926 2.3788466660887055e-12 4.1787288874348313e-07
104 3 3.08659 17.9389 3.18632 -1.2 0.00010000995945791271 8.786115804891527e-07 0.9998989203495132 2.6911366431262924e-13 1.9107918563395087e-07
105 1 1.44478 16.6215 0 1.2 0.0016045932745520869 1.7137252065430705e-06 0.9983930410833053 9.983307403723978e-14 6.519168430036054e-07
106 3 3.0436 17.9389 5.78248 -1.2 6.878973140461349e-05 4.615871244041732e-08 0.9999305591859814 7.818606938165524e-12 6.049160830470377e-07
107 1 -1.40524 16.6628 1.4948 1.2 0.0012841283851334094 2.3796673998681138e-06 0.9987128504442354 9.453217550684274e-14 6.415031360911629e-07
108 2 0.420358 14.5979 1.4948 2.4 0.0027262061550249626 1.4433604392055701e-05 0.9972592899270213 2.5892589236412032e-14 7.031353676522134e-08
109 3 0.408732 12.9847 1.4948 -1.2 0.01027904034450415 5.3092851786654494e-05 0.9896656952614397 1.0793047022106477e-14 2.1715422520530254e-06
110 3 7.03923 15.572 1.4948 -1.2 0.02417248500148703 0.00011878601502248592 0.9757053980132606 1.6061990600923144e-15 3.3309702255201763e-06
111 3 -0.248332 15.3041 0.196716 -1.2 0.005714561588203518 3.973720977825931e-05 0.9942446075184699 1.2618029967189936e-14 1.093683529533624e-06
112 3 -0.289436 15.3041 2.79288 -1.2 0.0008952018563156558 8.63364424059218e-06 0.9990944557634434 6.690544175456175e-13 1.7087353359255353e-06
113 1 6.59566 18.996 0 1.2 0.0006108913285254528 5.013827566579447e-07 0.9993884706495088 6.259239485238882e-15 1.3663919792857298e-07
114 1 3.85574 23.7037 1.4948 1.2 0.0009377419364085503 6.106420629108678e-07 0.9990614449910099 1.2825770746854162e-13 2.0243039297920957e-07
115 2 5.66125 21.0195 1.4948 2.4 0.001786950864056769 3.097898500935422e-06 0.99820994739585 1.9598578595439105e-15 3.8415834860666366e-09
116 3 5.72074 22.6328 1.4948 -1.2 0.02039074939860724 4.76965305808564e-05 0.9795607641966319 1.0028664330190692e-15 7.898741750147362e-07
117 3 2.03867 20.0455 1.4948 -1.2 0.023247591364564404 3.489968244753846e-05 0.9767166679336229 1.371050311343638e-16 8.410193682835796e-07
118 3 4.96004 20.3134 0.196716 -1.2 0.010675488465132749 1.719528018932172e-05 0.9893069795327198 6.825608717753071e-16 3.3672195539722506e-07
119 1 6.55057 18.996 2.9896 1.2 0.00014593011530181482 5.137552274884847e-07 0.9998533562513842 5.353749969090411e-13 1.998775461667464e-07
120 3 4.92172 20.3134 2.79288 -1.2 0.0004087347602675082 4.217697514918559e-06 0.9995866571597394 9.570514560771645e-14 3.9038238872785966e-07
121 1 -0.84282 19.0373 4.4844 1.2 2.5127181522044058e-05 8.321606619504785e-08 0.9999744303206517 7.826613327643819e-11 3.592034941341357e-07
122 2 -2.64823 21.7214 4.4844 2.4 0.00014315991259465915 3.002557443238752e-07 0.999856504204164 3.1397049699786543e-12 3.5624351169650566e-08
123 3 -2.70847 20.1082 4.4844 -1.2 5.109511138378605e-05 1.9100860391812088e-07 0.9999485501733176 5.676554162705129e-14 1.6370664350194362e-07
124 3 0.97581 22.6955 4.4844 -1.2 0.00021088977320020974 2.015741714978094e-06 0.9997859124625306 9.438224359874975e-13 1.1820216053757699e-06
125 3 -1.9076 22.4276 3.18632 -1.2 0.0004646313362635081 6.40460203527748e-07 0.9995346137058664 2.9766383566535527e-14 1.1449763428858573e-07
126 3 -1.9475 22.4276 5.78248 -1.2 0.00038760314097855276 7.005615499199019e-08 0.9996114954411004 2.342192669907578e-12 8.313594249437291e-07
127 1 1.50678 21.3705 2.9896 1.2 0.0003506303385972143 5.913559586174438e-07 0.999648457419737 2.8923523361016935e-13 3.208854242199112e-07
128 1 4.31086 21.3292 4.4844 1.2 2.1617498849099954e-05 2.1262872878741737e-08 0.9999782696722342 3.707764893477279e-11 9.152897164774522e-08
129 2 2.49243 23.394 4.4844 2.4 0.0005747774909644117 1.0479168519200542e-06 0.9994240226919183 1.1861937063625166e-11 1.518884067483499e-07
130 3 2.51204 25.0073 4.4844 -1.2 0.00012245056312555565 1.9197127545240708e-07 0.99987695111442 7.771465706850899e-14 4.0635109752469804e-07
131 3 -4.13026 22.42 4.4844 -1.2 0.00010927705753727055 6.552630954604993e-07 0.9998897736445861 4.568079857232264e-13 2.9403432534924297e-07
132 3 3.19799 22.6879 3.18632 -1.2 0.0005983899888702734 2.391529794218886e-06 0.9993989478565518 3.860429843068372e-14 2.706247462237366e-07
133 1 1.5501 21.3705 0 1.2 0.0012057515906574202 6.91869142706043e-07 0.9987933866768611 1.0196244657140497e-14 1.6986332371831112e-07
134 3 3.1583 22.6879 5.78248 -1.2 0.00011997637252307398 2.7496454551762492e-08 0.9998796976276954 3.9322854354292626e-12 2.984993988057727e-07
135 1 -1.29822 21.4118 1.4948 1.2 0.001015017815168972 9.272156377397194e-07 0.9989838715033125 1.1432116639551276e-14 1.8346587237536993e-07
136 2 0.523568 19.3469 1.4948 2.4 0.0006698125089453272 3.6354570773430685e-06 0.9993265500025157 3.0304822116750005e-15 2.0314635869351734e-09
137 3 0.508934 17.7337 1.4948 -1.2 0.007532582884735244 5.971891411428142e-05 0.9924070608071944 1.9702842731619704e-15 6.373939482818679e-07
138 3 7.14425 20.321 1.4948 -1.2 0.018309653195341294 6.398846178915567e-05 0.9816256682842069 1.30110783239427e-16 6.900586571126154e-07
139 3 -0.145107 20.0531 0.196716 -1.2 0.0022460339294674597 1.7368978368209463e-05 0.9977364446468545 1.970188519714809e-15 1.5244530825409807e-07
140 3 -0.183601 20.0531 2.79288 -1.2 0.0013460440973895058 6.80782068245826e-06 0.9986468076055356 4.1861349868272107e-14 3.404763459614574e-07
141 1 6.70502 23.745 0 1.2 0.00902935305700469 2.526493770135251e-06 0.9909668210831909 7.814496521951577e-15 1.2993660318139639e-06
142 1 3.97493 28.4527 1.4948 1.2 0.18193730039815448 1.1480315549081919e-05 0.8180320616617979 1.7368288498909948e-12 1.915762275669741e-05
143 2 5.77602 25.7685 1.4948 2.4 0.26665769029928443 2.2958694711846375e-05 0.733319203045373 5.6763422251877164e-15 1.4796062136375625e-07
144 3 5.83821 27.3818 1.4948 -1.2 0.7293318079388313 6.192947320364727e-05 0.2705949585516599 2.0363887396006926e-15 1.1304036304170759e-05
145 3 2.15175 24.7945 1.4948 -1.2 0.7146273028288452 0.00019465518603038645 0.28516662446155605 1.179158585027493e-16 1.1417523568767708e-05
146 3 5.07184 25.0624 0.196716 -1.2 0.40449802703130594 5.706734614480993e-05 0.5954375211888896 2.4943040833348448e-15 7.3844336561956e-06
147 1 6.66374 23.745 2.9896 1.2 0.0012231063810381312 9.62900951331466e-07 0.9987754306477438 1.7760540754578851e-13 5.000700844471261e-07
148 3 5.03707 25.0624 2.79288 -1.2 0.0038582412885684314 8.879627657776318e-06 0.9961314335408414 1.4113445750702281e-13 1.4455427973830619e-06
149 1 -0.727559 23.7863 4.4844 1.2 8.748848283701302e-05 7.960300342585271e-08 0.9999121798937668 2.97961334010596e-11 2.519905936902422e-07
150 2 -2.5277 26.4704 4.4844 2.4 0.0013416620066323502 3.177454151932631e-07 0.9986579065109662 6.604662890942538e-12 1.137303823017161e-07
151 3 -2.59107 24.8572 4.4844 -1.2 0.00013472550324357348 1.5161986834965825e-07 0.9998648882818313 5.04341752008968e-14 2.345950055114454e-07
152 3 1.09817 27.4445 4.4844 -1.2 0.004183969624096518 3.2274022209761667e-06 0.9958068125594524 1.4645092535027437e-12 5.990412764929848e-06
153 3 -1.78784 27.1766 3.18632 -1.2 0.003694583684530165 7.641792884657487e-07 0.9963041738017696 1.4484139203257366e-13 4.783342636111853e-07
154 3 -1.82343 27.1766 5.78248 -1.2 0.0013536593746362223 6.147247951799163e-08 0.9986456158878656 2.223969695511939e-12 6.632627913795072e-07
155 1 1.62435 26.1195 2.9896 1.2 0.009436256171975192 1.828232285731992e-06 0.9905597289923324 2.479700423598618e-13 2.1866031617542874e-06
156 1 4.43064 26.0782 4.4844 1.2 0.00022000269429456296 3.7057819310040355e-08 0.9997798042367814 1.9485697354529268e-11 1.5599161520721382e-07
157 2 2.61607 28.143 4.4844 2.4 0.0017651624694750984 4.3466313847086345e-07 0.9982341240827535 2.314813530311387e-11 2.7876148369174494e-07
158 3 2.63853 29.7563 4.4844 -1.2 0.0002209053762471028 8.106712979981249e-08 0.9997783529642771 9.445102182116469e-13 6.605914082043385e-07
159 3 -4.00841 27.169 4.4844 -1.2 0.0012078938397835479 9.084437788642627e-07 0.9987901942531958 4.549056461117094e-13 1.0034627811140557e-06
160 3 3.3182 27.4369 3.18632 -1.2 0.013662649779509121 4.996953748816201e-06 0.9863294970309038 1.3915609625017622e-13 2.8562357027932463e-06
161 1 1.66335 26.1195 0 1.2 0.11448026083511463 1.728208989114815e-05 0.8854883945985375 3.5667665073025686e-14 1.4062476422758392e-05
162 3 3.28288 27.4369 5.78248 -1.2 0.000182729026189252 1.597135187468733e-08 0.9998170758742072 3.6909158047737266e-12 1.7912455398580495e-07
163 1 -1.18278 26.1608 1.4948 1.2 0.08179985772791296 1.1731597260194733e-05 0.9181812008415295 6.751412024140849e-14 7.2098332346644415e-06
164 2 0.635424 24.0959 1.4948 2.4 0.007103505117149365 3.6551589066678812e-06 0.9928928354946438 2.7076134207239704e-15 4.229296758752279e-09
165 3 0.617906 22.4827 1.4948 -1.2 0.016662863854103684 3.2778994115653664e-05 0.9833039816185032 6.138006889337543e-16 3.7553327941605174e-07
166 3 7.25781 25.07 1.4948 -1.2 0.41955477570367594 0.00017275111370312373 0.5802657352849055 2.6564308887528314e-16 6.737897711944007e-06
167 3 -0.0337363 24.8021 0.196716 -1.2 0.08106509432853147 4.726909940145014e-05 0.9188854879975592 3.3327114636963267e-15 2.1485745111739056e-06
168 3 -0.0687235 24.8021 2.79288 -1.2 0.008379413637053227 1.5960880333815326e-05 0.9916030095992677 9.429602177358435e-14 1.6158832527341788e-06
169 1 6.82195 28.494 0 1.2 0.3279022726677042 3.7975635240078294e-05 0.6720005314437495 1.6283377157312513e-13 5.9220253142739076e-05
170 1 4.10106 33.2017 1.4948 1.2 0.6915456320101089 0.00015014902709558178 0.30784260234273375 8.153180189486864e-11 0.0004616165385253867
171 2 5.89839 30.5175 1.4948 2.4 0.991780536951635 7.053306226807646e-06 0.008211678481749128 4.125395536668663e-15 7.312603832823441e-07
172 3 5.96289 32.1308 1.4948 -1.2 0.9061364563237254 5.9676556308483616e-05 0.09375937019430694 8.814948154470388e-14 4.4496925564260037e-05
173 3 2.27266 29.5435 1.4948 -1.2 0.984369564260584 8.288009667081201e-05 0.015497186821539385 1.8706972925099798e-15 5.036882120072498e-05
174 3 5.19102 29.8114 0.196716 -1.2 0.9750398576662115 1.3721450298758145e-05 0.024928741742172425 3.621568349301559e-15 1.767914131518068e-05
175 1 6.78546 28.494 2.9896 1.2 0.027660451631098454 2.293668416407117e-06 0.9723325599329129 1.266463062179839e-12 4.694766299517751e-06
176 3 5.16061 29.8114 2.79288 -1.2 0.0602354226469213 2.0754225840902428e-05 0.9397320374997865 1.4882522086734224e-12 1.1785625966429662e-05
177 1 -0.603205 28.5353 4.4844 1.2 0.0011743369459804164 2.345958270582366e-07 0.998823298915604 8.627133208445908e-11 2.1294563227281886e-06
178 2 -2.39877 31.2194 4.4844 2.4 0.0015823758247938175 3.483771791701008e-07 0.9984167607511759 5.901051601300887e-11 5.149878354391325e-07
179 3 -2.46483 29.6062 4.4844 -1.2 0.00011690365941746784 6.549273033705449e-08 0.9998827365392096 8.435613131433452e-13 2.9430779764638047e-07
180 3 1.22864 32.1935 4.4844 -1.2 0.0022772947609052963 2.0916869723766345e-06 0.9977130507523957 1.6370971116204038e-11 7.562783360007834e-06
181 3 -1.66032 31.9256 3.18632 -1.2 0.015543441442874974 1.6502565235372053e-06 0.9844515399635763 4.0683584574603785e-12 3.3683329542521718e-06
182 3 -1.69072 31.9256 5.78248 -1.2 0.0006626084051370502 3.5232979632168196e-08 0.9993368713227333 1.2290930684200142e-11 4.850268634732782e-07
183 1 1.7499 30.8685 2.9896 1.2 0.05621215291882808 8.270943989198737e-06 0.9437544830270307 8.495405612613965e-12 2.5093101656443126e-05
184 1 4.55894 30.8272 4.4844 1.2 0.0014695858580677467 6.212644203825148e-08 0.998529597631787 1.173317317181908e-10 7.542663777655677e-07
185 2 2.7476 32.892 4.4844 2.4 0.002618009203493814 7.261908785448191e-07 0.9973801210674061 3.5322436323869234e-10 1.1431849915685654e-06
186 3 2.77235 34.5053 4.4844 -1.2 0.00010069715899501883 6.668231548100597e-08 0.9998981699716154 2.0677232818630788e-11 1.066166395251619e-06
187 3 -3.87837 31.918 4.4844 -1.2 0.0011978014143326215 5.506190588217376e-07 0.9987995350333202 7.80987249405775e-12 2.112925481215569e-06
188 3 3.44611 32.1859 3.18632 -1.2 0.03605953716098742 7.2623051493100275e-06 0.9639198471094833 8.189399480150016e-12 1.3353416193846904e-05
189 1 1.7837 30.8685 0 1.2 0.8753353828739188 3.973548977001715e-05 0.12443293638377376 1.8116808111718314e-13 0.0001919452523566302
190 3 3.41602 32.1859 5.78248 -1.2 0.00010986297661410519 9.795344521045893e-09 0.9998899479060199 3.54716031406673e-11 1.7928654292820005e-07
191 1 -1.05984 30.9098 1.4948 1.2 0.8997531938994903 7.850244498464451e-05 0.09997535113138181 8.484047152114763e-13 0.00019295252329314114
192 2 0.755243 28.8449 1.4948 2.4 0.9498499166347836 5.9747727932521836e-06 0.050143984085037153 2.290215138928566e-15 1.2450738030145725e-07
193 3 0.735127 27.2317 1.4948 -1.2 0.8442121168085662 5.5582341412718156e-05 0.1557248933161025 9.296092236266991e-16 7.4075339229286215e-06
194 3 7.37914 29.819 1.4948 -1.2 0.9658935771201089 0.00012681828672759084 0.033915278827556454 3.4407687407949824e-15 6.43257656049785e-05
195 3 0.0850649 29.5511 0.196716 -1.2 0.8092286915366611 7.179317331366672e-05 0.19066644670187763 4.302824102097232e-14 3.306858810463313e-05
196 3 0.0543974 29.5511 2.79288 -1.2 0.17934167004521542 3.6415280473276334e-05 0.8206050753477728 8.458240765441959e-13 1.683932569558715e-05
197 1 6.94543 33.243 0 1.2 0.9139915634966509 4.353820699565501e-05 0.08567366552957448 8.846623970098823e-13 0.00029123276590123853
198 1 4.23267 37.9507 1.4948 1.2 0.27335722108614385 0.00012566570235174202 0.7261214511672978 1.6027382030386544e-09 0.0003956604414662536
199 2 6.02709 35.2665 1.4948 2.4 0.9970300713151601 2.112942192611247e-05 0.0029426584454205706 7.705031263761485e-14 6.140817419041536e-06
200 3 6.09339 36.8798 1.4948 -1.2 0.3820368126897206 0.00011220247869634413 0.6177352130457607 1.105389446620196e-11 0.00011577177477147243
201 3 2.40018 34.2925 1.4948 -1.2 0.9254329487071807 0.0004667018470473657 0.07355927908391222 1.3672071584461487e-12 0.0005410703604990159
202 3 5.31645 34.5604 0.196716 -1.2 0.9880091280292016 2.909113058909337e-05 0.011847648973173941 9.472192393107298e-14 0.00011413186693434083
203 1 6.91449 33.243 2.9896 1.2 0.09496608277976526 1.2546607303969132e-05 0.9049528586335039 9.040906030797357e-11 6.851188902064091e-05
204 3 5.291 34.5604 2.79288 -1.2 0.028585178029524438 2.6294503550194037e-05 0.9713568289702615 4.4898711007605435e-11 3.16984517637601e-05
205 1 -0.471101 33.2843 4.4844 1.2 0.004176747846965856 3.806254344460544e-07 0.9958183909476096 9.14948852577565e-10 4.479665041917123e-06
206 2 -2.26307 35.9684 4.4844 2.4 0.0001694824633487999 2.789485124034547e-07 0.9998285321054311 3.8001164563049576e-09 1.7026825912341551e-06
207 3 -2.33122 34.3552 4.4844 -1.2 8.719565152762544e-05 6.960319194258505e-08 0.9999120755975893 1.1790804017847117e-11 6.591359038495182e-07
208 3 1.36549 36.9425 4.4844 -1.2 0.00010475597456015543 4.308780483899933e-07 0.9998915803018383 1.4506885070316635e-10 3.2327004781750095e-06
209 3 -1.52658 36.6746 3.18632 -1.2 0.003541972658783346 2.342629092700121e-06 0.9964503933137863 1.023239982309204e-10 5.291296008070323e-06
210 3 -1.55122 36.6746 5.78248 -1.2 6.54452714646481e-05 1.4023938292018436e-08 0.999934256802894 1.6345779663511676e-10 2.837382411196516e-07
211 1 1.882 35.6175 2.9896 1.2 0.026500975305806126 9.107634790144565e-06 0.9734530842234892 2.6534491836491527e-10 3.6832570576143965e-05