ITEM: TIMESTEP
2400
ITEM: NUMBER OF ATOMS
10500
ITEM: BOX BOUNDS xy xz yz pp pp pp
0	15.2977	5.09925
0	118.725	0
0	89.688	0
ITEM: ATOMS id type xu yu zu q pCrystal pDisloC pSF pDisloB pDisloA
1 1 6.2404 -6.37941e-06 0 1.2 4.738516779762115e-16 3.25754032995823e-12 0.9999998010643678 1.9890581716015621e-07 2.6560239891862084e-11
2 1 3.46349 4.70768 1.4948 1.2 2.9483305071599626e-10 2.2981045321634332e-08 0.9999999259029863 5.0656114918767285e-08 1.650154043946983e-10
3 2 5.2885 2.02354 1.4948 2.4 2.287401935077282e-13 4.784196968133611e-10 0.9999999876048521 1.1908365995198355e-08 8.129868005197358e-12
4 3 5.33628 3.63678 1.4948 -1.2 4.742971064739936e-10 3.954951697384084e-08 0.99999994612118 7.236496125095599e-09 6.618516308383408e-09
5 3 1.67294 1.04952 1.4948 -1.2 2.8636111721603247e-13 1.6483805283167618e-09 0.9999997970204426 2.0077043782377082e-07 5.604528170477226e-10
6 3 4.59532 1.31737 0.196716 -1.2 1.4553098450130977e-14 3.332603848533643e-10 0.9999998999843079 9.938386775161124e-08 2.9854548705852825e-10
7 1 6.18956 -6.37941e-06 2.9896 1.2 5.421080110313783e-16 7.439963957865853e-11 0.99999785321751 2.1458853850036455e-06 8.226994839957029e-10
8 3 4.55118 1.31737 2.79288 -1.2 3.749887982157738e-16 1.119327956149274e-11 0.9999987786949089 1.2212220629203056e-06 7.184025537648583e-11
9 1 -1.20682 0.0413099 4.4844 1.2 1.5368627041106656e-15 5.631288372160337e-11 0.9999768393524808 2.3160219664787657e-05 3.7154374230408994e-10
10 2 -3.0337 2.72544 4.4844 2.4 1.2166562839138243e-11 7.321504737135139e-08 0.9999683009664866 3.1610449924994706e-05 1.535637919344179e-08
11 3 -3.08099 1.11221 4.4844 -1.2 4.741424630073836e-15 1.9940905439025973e-10 0.9999907768184648 9.22262776101011e-06 3.5436001220533744e-10
12 3 0.582463 3.69946 4.4844 -1.2 4.7067944021628625e-12 6.189418461837986e-10 0.9999907950413591 9.197397149564995e-06 6.937839823177392e-09
13 3 -2.29524 3.43162 3.18632 -1.2 1.283708841361692e-10 1.8547603102298165e-08 0.9999996162927712 3.581841317419192e-07 6.847123666631209e-09
14 3 -2.34216 3.43162 5.78248 -1.2 2.4980670318560736e-12 1.8566620528045372e-10 0.9999451549715368 5.483870233199651e-05 6.1379607873544665e-09
15 1 1.12778 2.37449 2.9896 1.2 3.499143135615406e-13 1.315777940091514e-09 0.9999924061470576 7.59221303450298e-06 3.237735911589538e-10
16 1 3.92855 2.33318 4.4844 1.2 1.0230842505043072e-14 5.7914957783506396e-11 0.9999329638362334 6.703557099998277e-05 5.348384035463608e-10
17 2 2.09341 4.39804 4.4844 2.4 1.794681960291098e-12 4.50211846123751e-09 0.9999870991589979 1.2895777002066218e-05 5.600931599977891e-10
18 3 2.09991 6.01128 4.4844 -1.2 2.734387532272756e-09 1.1086909038575577e-08 0.9999999569471649 1.55165559364716e-08 1.3714977783457041e-08
19 3 -4.52137 3.42402 4.4844 -1.2 2.8322708202751254e-12 1.7574825923629254e-09 0.9999909119605375 9.063934175014848e-06 2.234497053874447e-08
20 3 2.80834 3.69187 3.18632 -1.2 4.691355980660631e-12 9.351006009773368e-10 0.9999998988640522 9.995944945356152e-08 2.366997932201387e-10
21 1 1.17857 2.37449 0 1.2 1.2891790358443832e-14 2.4872145218940144e-10 0.9999994248306285 5.747623912748467e-07 1.5824602491760273e-10
22 3 2.76143 3.69187 5.78248 -1.2 1.8445884243450193e-13 4.6660539805689133e-11 0.9999767587807367 2.3239156090906055e-05 2.0163223159129415e-09
23 1 -1.67381 2.41581 1.4948 1.2 9.992048132878137e-11 2.4782680014662317e-08 0.9999985649511055 1.4076422995847345e-06 2.5239901853351537e-09
24 2 0.16286 0.350945 1.4948 2.4 2.6894726455195577e-13 1.2950542078121099e-09 0.9999997016269068 2.9698006721192344e-07 9.770399586658862e-11
25 3 0.15972 -1.26229 1.4948 -1.2 7.267321324577825e-12 1.4367814504300698e-08 0.9999998946194977 8.803291116580826e-08 2.9725049359141247e-09
26 3 6.77654 1.32496 1.4948 -1.2 1.1037014921791885e-12 4.28615932617827e-09 0.9999999466872979 4.5039689429903627e-08 3.985744836759527e-09
27 3 -0.508028 1.05712 0.196716 -1.2 4.789246545941041e-14 1.1484350590250776e-09 0.9999997651043762 2.3295634207805796e-07 7.908036595282451e-10
28 3 -0.552171 1.05712 2.79288 -1.2 5.692425838424703e-14 3.5594650856222926e-10 0.9999981170117671 1.8816804957502787e-06 9.517289443658264e-10
29 1 6.31713 4.74899 0 1.2 3.021543990216608e-10 5.5524136525085854e-08 0.9999998991160106 4.4181795253817316e-08 8.75908862230993e-10
30 1 3.54847 9.45668 1.4948 1.2 4.093207873443544e-05 3.7517122334274996e-07 0.9999585896860071 2.640690670396093e-11 1.0303763134901806e-07
31 2 5.36879 6.77254 1.4948 2.4 3.0854908845985625e-06 6.2517572568354624e-06 0.9999905199211854 1.3614185689877877e-10 1.4269453795048996e-07
32 3 5.41937 8.38578 1.4948 -1.2 0.0009379390473136009 7.273531555411059e-05 0.9989851091514701 3.030623553332023e-13 4.216485359716389e-06
33 3 1.75158 5.79852 1.4948 -1.2 4.529391215695269e-06 9.076843652873252e-06 0.9999859718693208 7.100289768625496e-11 4.2182481360396164e-07
34 3 4.67421 6.06637 0.196716 -1.2 3.5589545910998665e-08 3.8589812278547896e-07 0.999999573413993 2.933751238017567e-11 5.06900558918743e-09
35 1 6.26654 4.74899 2.9896 1.2 3.227035402620434e-10 2.0482729231415117e-08 0.9999994367617285 5.344117900644694e-07 8.021054334720595e-09
36 3 4.63043 6.06637 2.79288 -1.2 5.804430789825866e-08 2.3572833541827557e-07 0.9999996617431609 2.421333851207077e-09 4.20628646242567e-08
37 1 -1.12976 4.79031 4.4844 1.2 1.2230484826205732e-10 8.027899131084313e-10 0.9999969131893103 3.0849342444208348e-06 9.5135299429351e-10
38 2 -2.9517 7.47444 4.4844 2.4 5.250940732055235e-09 1.0487458479370175e-07 0.9999960548745095 4.990773092823771e-07 3.335922653723812e-06
39 3 -3.00198 5.86121 4.4844 -1.2 1.999667032928702e-10 8.238550876480937e-10 0.9999999250986803 6.963645614843277e-08 4.241045343292856e-09
40 3 0.666315 8.44846 4.4844 -1.2 1.4241618036558939e-07 2.0109215279166813e-07 0.9999986132613353 5.443225757075926e-10 1.0426860078784767e-06
41 3 -2.21213 8.18062 3.18632 -1.2 4.163626281034888e-07 9.152325226746769e-08 0.9999993608062336 5.716804785053429e-11 1.3125072309182043e-07
42 3 -2.25864 8.18062 5.78248 -1.2 4.749036015868559e-08 8.440677837764331e-09 0.9999991154435084 1.2699675038838152e-08 8.15925771868657e-07
43 1 1.20893 7.12349 2.9896 1.2 1.6756552072017768e-07 2.0488713597618153e-07 0.99999958845305 4.639376318846518e-09 3.445491588333638e-08
44 1 4.00982 7.08218 4.4844 1.2 2.4616801734479167e-08 1.5010800813827804e-08 0.999999846066442 4.0577950645374935e-08 7.3728000739335e-08
45 2 2.17861 9.14704 4.4844 2.4 1.3139567644152155e-06 9.398086320110982e-07 0.9999939060174886 9.93553212546336e-09 3.830281583367191e-06
46 3 2.18828 10.7603 4.4844 -1.2 3.900272653140439e-06 8.008767775883793e-08 0.9999955599483403 1.7314617364645495e-11 4.596740152715791e-07
47 3 -4.43805 8.17302 4.4844 -1.2 5.520781658046518e-08 8.954409614796477e-08 0.9999987999576756 6.540341376214968e-10 1.0546363732462295e-06
48 3 2.89193 8.44087 3.18632 -1.2 2.9652096168566745e-06 3.0967880936170215e-07 0.9999963372959686 1.4126668323559978e-10 3.8767433855517233e-07
49 1 1.25915 7.12349 0 1.2 2.103149755677616e-07 3.161883459271453e-07 0.9999994692496289 4.1103987514298507e-10 3.83600405745861e-09
50 3 2.84547 8.44087 5.78248 -1.2 1.0056254269574252e-07 1.556635077527633e-08 0.9999993344243533 8.53386730445335e-09 5.409128819324305e-07
51 1 -1.59284 7.16481 1.4948 1.2 1.354746929058757e-06 6.164725754150521e-07 0.9999979863163826 4.55605219403912e-10 4.200850561199361e-08
52 2 0.240329 5.09994 1.4948 2.4 1.7290688583912741e-09 1.1844453357342851e-07 0.999999876469993 3.2694663752272157e-09 8.693661971565568e-11
53 3 0.234538 3.48671 1.4948 -1.2 2.2941042217479416e-11 1.430161269177202e-08 0.9999999705336795 1.2399598384573189e-08 2.7421661178192044e-09
54 3 6.85564 6.07396 1.4948 -1.2 6.655971415622036e-07 3.2985501483858147e-06 0.9999956042512517 1.5664049704798714e-10 4.3144481502663786e-07
55 3 -0.429565 5.80612 0.196716 -1.2 4.041618137556323e-09 6.714721975926959e-08 0.9999999278053647 1.4108414288329357e-10 8.647122960399353e-10
56 3 -0.473377 5.80612 2.79288 -1.2 3.963789567448587e-09 1.3999120225497138e-08 0.9999999697029982 7.472552467472497e-09 4.861543700605351e-09
57 1 6.40169 9.49799 0 1.2 5.645935558247359e-05 1.0100756627165504e-06 0.9999424370446472 1.4123445431759286e-12 9.352269028796837e-08
58 1 3.64209 14.2057 1.4948 1.2 0.00023820853504382373 5.103692676283053e-07 0.9997610210991593 7.55877423845627e-13 2.599957795277831e-07
59 2 5.45748 11.5215 1.4948 2.4 0.0012375690250485314 1.1379660840958353e-05 0.998750907091504 5.190819835867835e-14 1.4422256097283494e-07
60 3 5.51101 13.1348 1.4948 -1.2 0.014513976624554122 7.400827017126005e-05 0.985406011763345 8.398800978527945e-15 6.003341920349368e-06
61 3 1.83851 10.5475 1.4948 -1.2 0.003461120372526902 1.2229082853614936e-05 0.9965249758724182 1.769664944540593e-14 1.6746721841301988e-06
62 3 4.7611 10.8154 0.196716 -1.2 0.0006252970815530228 9.0986208192973e-06 0.9993651851845634 4.566815266022939e-14 4.191130250549664e-07
63 1 6.35203 9.49799 2.9896 1.2 1.9437234879800363e-05 1.6214783254777443e-06 0.9999784472599075 6.550646359068215e-11 4.93961381889799e-07
64 3 4.71833 10.8154 2.79288 -1.2 6.460213176137736e-05 1.2581546035107501e-06 0.999933370931609 3.765437736939951e-12 7.687782543204903e-07
65 1 -1.0438 9.53931 4.4844 1.2 1.3943682754925617e-06 4.940941587029946e-08 0.999998207300963 6.180699464490582e-09 3.427406526829684e-07
66 2 -2.8604 12.2234 4.4844 2.4 4.473715269922412e-06 1.1030524192542799e-06 0.9999923702630183 6.538098842643625e-10 2.052315487853425e-06
67 3 -2.91391 10.6102 4.4844 -1.2 5.593771550592274e-06 1.8658191395212962e-07 0.9999935572186657 1.2185592555289186e-11 6.62415679541287e-07
68 3 0.7596 13.1975 4.4844 -1.2 8.654713514342603e-06 7.298996940611699e-07 0.9999888332721465 2.7675717561864952e-11 1.7820869647294408e-06
69 3 -2.12001 12.9296 3.18632 -1.2 5.8438470279670964e-05 8.554323418515702e-07 0.9999401347915481 1.7006531028866467e-12 5.713041226260277e-07
70 3 -2.16532 12.9296 5.78248 -1.2 1.2105407072869616e-05 7.586818191341345e-08 0.9999848138437426 3.6951424424021154e-10 3.004511490937946e-06
71 1 1.29891 11.8725 2.9896 1.2 7.832071335549187e-05 1.1715491591058931e-06 0.9999197085173395 1.5319237385885973e-11 7.99204820523119e-07
72 1 4.10033 11.8312 4.4844 1.2 1.3792757530617054e-05 6.263066117569848e-08 0.9999851783680129 1.2719527245994924e-09 9.649718379350141e-07
73 2 2.27333 13.896 4.4844 2.4 4.443869837611112e-05 1.5736911432529476e-06 0.9999513471586083 2.1312031506046555e-10 2.6402387521262758e-06
74 3 2.28634 15.5093 4.4844 -1.2 5.3869177696067945e-05 2.9046347856509495e-07 0.9999451724719268 4.2627752561884763e-13 6.678864680277704e-07
75 3 -4.34533 12.922 4.4844 -1.2 1.8571148340781852e-06 1.1718177435406521e-07 0.9999972404699368 4.359575099439956e-11 7.851898597599369e-07
76 3 2.98455 13.1899 3.18632 -1.2 4.54535253562668e-05 7.040310021523676e-07 0.9999532887450417 2.88597225404632e-12 5.536957200865057e-07
77 1 1.34779 11.8725 0 1.2 0.0004051586957647077 1.4884501632397654e-06 0.9995929329076803 6.602565174602222e-13 4.199457274189538e-07
78 3 2.93934 13.1899 5.78248 -1.2 6.3885108251470175e-06 3.7982319954843256e-08 0.9999927609260598 1.8636778116772628e-10 8.123944232158646e-07
79 1 -1.50344 11.9138 1.4948 1.2 0.00018821595744451228 8.605857347584138e-07 0.9998106551425379 7.892867201753651e-13 2.6831349357380475e-07
80 2 0.326006 9.84894 1.4948 2.4 0.00022899314559108181 4.316755875003412e-06 0.9997666369930441 9.183401302228183e-14 5.310539599178018e-08
81 3 0.317364 8.23571 1.4948 -1.2 0.0002422634676951983 9.629940164684403e-06 0.9997473370402965 1.915634623472536e-12 7.695499259334838e-07
82 3 6.94307 10.823 1.4948 -1.2 0.002246481554860952 2.380508958848002e-05 0.9977283400941515 1.675103880264166e-14 1.3732613855573168e-06
83 3 -0.343122 10.5551 0.196716 -1.2 0.00021712351952358458 3.82737981169602e-06 0.9997788616729009 8.823910016537134e-14 1.8742767548015295e-07
84 3 -0.385966 10.5551 2.79288 -1.2 4.6280048814591676e-05 9.036782892086077e-07 0.9999521644398311 1.7658167644308895e-11 6.518154026861784e-07
85 1 6.49448 14.247 0 1.2 0.0008717300196466413 9.363201568912732e-07 0.999126939542766 3.3785313287956235e-14 3.9411739185015124e-07
86 1 3.74457 18.9547 1.4948 1.2 3.229123801725993e-05 9.809497557359059e-08 0.9999675850241387 1.7503760478840486e-13 2.5642695358163e-08
87 2 5.55495 16.2705 1.4948 2.4 0.0005336412005876049 5.072565528103687e-06 0.9994612749819083 1.777809663059201e-15 1.1251978231643416e-08
88 3 5.6115 17.8838 1.4948 -1.2 0.004540816544279695 3.0187751070198935e-05 0.9954284254684997 6.497614847959105e-16 5.702361507122731e-07
89 3 1.93416 15.2965 1.4948 -1.2 0.012371921897898328 2.0842415773798624e-05 0.9876060383262154 6.991368783838829e-16 1.1973601179748032e-06
90 3 4.85636 15.5644 0.196716 -1.2 0.004093973987316213 1.7181857091744325e-05 0.9958882344793232 3.655779117158891e-15 6.096762696846728e-07
91 1 6.44662 14.247 2.9896 1.2 9.13152943367547e-05 7.550570050196871e-07 0.9999074591536868 3.342977729670801e-12 4.7049163346178814e-07
92 3 4.81537 15.5644 2.79288 -1.2 0.0003638997235851809 4.295674738489902e-06 0.9996308798124658 3.491097102937622e-13 9.247888623543466e-07
93 1 -0.948271 14.2883 4.4844 1.2 1.1146359253393205e-05 9.699845583468657e-08 0.9999880010811307 5.931153053959091e-10 7.54968037676197e-07
94 2 -2.75928 16.9724 4.4844 2.4 6.804267481647306e-05 1.064000561649711e-06 0.9999305687462526 1.743928574339833e-11 3.2456092643220355e-07
95 3 -2.81617 15.3592 4.4844 -1.2 1.7533859242136975e-05 2.3136576497705857e-07 0.9999815481781889 9.054882168074988e-13 6.865959002950368e-07
96 3 0.862762 17.9465 4.4844 -1.2 2.86228613570052e-05 7.289973084469901e-07 0.9999699719251803 1.8107080554170614e-12 6.762143424766117e-07
97 3 -2.0185 17.6786 3.18632 -1.2 9.282055028189355e-05 5.877461386462582e-07 0.9999064387828255 7.669041737408442e-14 1.5292068025415123e-07
98 3 -2.06164 17.6786 5.78248 -1.2 0.0001269410917521639 1.2338155632560083e-07 0.999871302258762 1.0213599022369391e-11 1.633257717746558e-06
99 1 1.39817 16.6215 2.9896 1.2 0.00016902550976749078 9.429425063628894e-07 0.999829465585361 1.1406632736630849e-12 5.659612293769547e-07
100 1 4.20062 16.5802 4.4844 1.2 1.7138852923464204e-05 5.334198998319432e-08 0.99998241860271 1.8227995275193203e-10 3.890200950202242e-07
101 2 2.37796 18.645 4.4844 2.4 4.2625242830725735e-05 3.8975417316771364e-07 0.9999568724594252 9.812219124867879e-12 1.1253375432366188e-07
102 3 2.39434 20.2583 4.4844 -1.2 6.402526364277577e-05 1.3169980556202158e-07 0.9999356604300798 3.0799142578868696e-14 1.826064469771487e-07
103 3 -4.24274 17.671 4.4844 -1.2 1.4827067133363993e-05 2.8806905702484213e-07 0.9999845627158502 2.8276122404595844e-12 3.221451339761402e-07
104 3 3.08659 17.9389 3.18632 -1.2 8.944952373820227e-05 8.625614664125467e-07 0.9999094373791473 2.2393205646051584e-13 2.505354309745595e-07
105 1 1.44478 16.6215 0 1.2 0.0012625684485805227 8.026186526207915e-07 0.9987361707628569 5.939942496003597e-14 4.581698569873302e-07
106 3 3.0436 17.9389 5.78248 -1.2 3.415470506333833e-05 2.2932248865830017e-08 0.9999655453571722 7.118074902023012e-12 2.769984010042896e-07
107 1 -1.40524 16.6628 1.4948 1.2 0.0006430481386052577 1.0255355283439713e-06 0.9993555751191535 6.049435709947961e-14 3.5120665647137026e-07
108 2 0.420358 14.5979 1.4948 2.4 0.0016535057648244499 1.1087544615775489e-05 0.9983353518343406 1.4257427763216956e-14 5.485620720571124e-08
109 3 0.408732 12.9847 1.4948 -1.2 0.009026973061389103 3.691064674366881e-05 0.9909343445314672 7.9464148569295e-15 1.7717603890839656e-06
110 3 7.03923 15.572 1.4948 -1.2 0.010053604041667552 4.2212535821910945e-05 0.9899028518929363 9.13705482712236e-16 1.3315295674530384e-06
111 3 -0.248332 15.3041 0.196716 -1.2 0.0034174840293102688 1.7833667845348722e-05 0.9965641438057431 5.942163279404756e-15 5.384970959281676e-07
112 3 -0.289436 15.3041 2.79288 -1.2 0.0006511887727721333 6.242441797192882e-06 0.9993408310599821 9.408892907333658e-13 1.7377245108134185e-06
113 1 6.59566 18.996 0 1.2 0.00030839862580521064 1.382830317779293e-07 0.9996914026455264 2.559138897093268e-15 6.044564064924365e-08
114 1 3.85574 23.7037 1.4948 1.2 0.0007820450868719313 3.9873812938844595e-07 0.9992173849730979 1.0144530230408344e-13 1.7120179682567255e-07
115 2 5.66125 21.0195 1.4948 2.4 0.000923927538217345 1.6905012171881544e-06 0.9990743795629508 1.0380892646037717e-15 2.397614889007816e-09
116 3 5.72074 22.6328 1.4948 -1.2 0.018499961636037524 3.3411135792343586e-05 0.9814659311499756 6.145354542067395e-16 6.960782005320193e-07
117 3 2.03867 20.0455 1.4948 -1.2 0.014829477611205068 1.8552602704982325e-05 0.9851513349067368 8.061146430190833e-17 6.348793573714462e-07
118 3 4.96004 20.3134 0.196716 -1.2 0.0039252326766535065 6.73161411434224e-06 0.9960678555747681 4.2302359135176475e-16 1.8013446118103624e-07
119 1 6.55057 18.996 2.9896 1.2 4.796911854355606e-05 2.1826090867525147e-07 0.9999516987013426 3.560536463569924e-13 1.1391884226022555e-07
120 3 4.92172 20.3134 2.79288 -1.2 0.00023783452072942453 1.8226577359822501e-06 0.9997600945175097 6.531354940999863e-14 2.483039631587566e-07
121 1 -0.84282 19.0373 4.4844 1.2 1.3028269374303435e-05 5.321479376472427e-08 0.9999867168827739 3.9028051535453804e-11 2.015940231567503e-07
122 2 -2.64823 21.7214 4.4844 2.4 9.353881469632314e-05 1.85086085882413e-07 0.9999062558525134 1.1386276349697925e-12 2.0245565607029836e-08
123 3 -2.70847 20.1082 4.4844 -1.2 2.0880380157972467e-05 8.302625732306965e-08 0.9999789501997072 4.205742294957734e-14 8.639383948842429e-08
124 3 0.97581 22.6955 4.4844 -1.2 0.0001437251128611511 1.004609422134836e-06 0.9998546967749259 3.3576290358883803e-13 5.735024602604385e-07
125 3 -1.9076 22.4276 3.18632 -1.2 0.00031212136714868515 3.813871402722518e-07 0.9996874190232791 1.4697582543331394e-14 7.82224116420218e-08
126 3 -1.9475 22.4276 5.78248 -1.2 0.0002256628946825603 6.121761016041248e-08 0.9997738205284005 8.179970543538614e-13 4.553584896543826e-07
127 1 1.50678 21.3705 2.9896 1.2 0.00026001657703498697 3.774664666719876e-07 0.9997393312231493 2.1447624558583913e-13 2.7473312872380976e-07
128 1 4.31086 21.3292 4.4844 1.2 1.252036882317933e-05 9.760389505187418e-09 0.9999874273725691 2.253308827317844e-11 4.24756826777083e-08
129 2 2.49243 23.394 4.4844 2.4 0.0001831054268623734 3.178615067687253e-07 0.9998165137289252 5.719952486568905e-12 6.297698061203398e-08
130 3 2.51204 25.0073 4.4844 -1.2 0.0001506705403394143 1.21525110813858e-07 0.9998488990670984 2.982508482899996e-14 3.088674264399349e-07
131 3 -4.13026 22.42 4.4844 -1.2 3.8727039923532705e-05 2.5203961462228504e-07 0.9999609138800798 2.438440327139259e-13 1.0704013533104686e-07
132 3 3.19799 22.6879 3.18632 -1.2 0.0002924024469221247 9.379805012235712e-07 0.9997064922783021 3.8673662567830427e-14 1.6729424029175996e-07
133 1 1.5501 21.3705 0 1.2 0.0011094485008866883 2.983717131245399e-07 0.998890087329379 7.0412338468847216e-15 1.6579801558796026e-07
134 3 3.1583 22.6879 5.78248 -1.2 7.362543685222708e-05 1.1459847487764257e-08 0.9999262710456122 1.1521968681528415e-12 9.205653384872328e-08
135 1 -1.29822 21.4118 1.4948 1.2 0.0006399666759013491 4.364224845108332e-07 0.9993594485003944 7.971832893797964e-15 1.4840121662298262e-07
136 2 0.523568 19.3469 1.4948 2.4 0.00044731433313664943 2.1179147244489975e-06 0.9995505657902648 1.5052677018457542e-15 1.9618751011144442e-09
137 3 0.508934 17.7337 1.4948 -1.2 0.00326326802226875 2.5772140900359698e-05 0.9967105578402605 1.1715174129587366e-15 4.019965729050154e-07
138 3 7.14425 20.321 1.4948 -1.2 0.008285414330556632 2.7130369750517892e-05 0.991687054977715 9.58175100003803e-17 4.0032197839245107e-07
139 3 -0.145107 20.0531 0.196716 -1.2 0.001602324504979712 7.167148306142568e-06 0.9983904161238492 7.132715118161438e-16 9.222286923062532e-08
140 3 -0.183601 20.0531 2.79288 -1.2 0.0008968322881522852 4.470333952371622e-06 0.9990983818835912 2.8669236796951177e-14 3.154942767401169e-07
141 1 6.70502 23.745 0 1.2 0.007133420803294572 1.4187890486621904e-06 0.9928643355433294 3.996638412856915e-15 8.248643235082421e-07
142 1 3.97493 28.4527 1.4948 1.2 0.29339299979107136 1.5944334441618895e-05 0.7065598068744238 1.1084901290002328e-12 3.124899895131732e-05
143 2 5.77602 25.7685 1.4948 2.4 0.28321506953839326 2.1641631087214335e-05 0.7167631411978446 3.646246370207931e-15 1.4763267785131777e-07
144 3 5.83821 27.3818 1.4948 -1.2 0.8040729584875429 6.119751402229821e-05 0.1958538555806737 9.524187284908813e-16 1.1988417762131855e-05
145 3 2.15175 24.7945 1.4948 -1.2 0.6990513854659903 0.00013229083734662812 0.30080643671507823 7.413725109277411e-17 9.88698157911396e-06
146 3 5.07184 25.0624 0.196716 -1.2 0.3840742543602173 4.251330847410586e-05 0.6158768463871681 1.4624594646826334e-15 6.385944137266421e-06
147 1 6.66374 23.745 2.9896 1.2 0.0005723591689272725 5.485158308893275e-07 0.9994267673187207 1.2515241163174493e-13 3.249963902304873e-07
148 3 5.03707 25.0624 2.79288 -1.2 0.0032658948487141646 6.625261753243998e-06 0.9967262165752571 1.0135322196127634e-13 1.2633141745407166e-06
149 1 -0.727559 23.7863 4.4844 1.2 4.5262029445219925e-05 7.208675346759787e-08 0.9999544965863064 8.895743827234421e-12 1.692886010982256e-07
150 2 -2.5277 26.4704 4.4844 2.4 0.0007001492344850326 2.1616617394543821e-07 0.999299579731391 1.974811830551993e-12 5.486597118055296e-08
151 3 -2.59107 24.8572 4.4844 -1.2 7.278766867840725e-05 1.3282774497770663e-07 0.99992691351878 2.1609280125303404e-14 1.659847775240984e-07
152 3 1.09817 27.4445 4.4844 -1.2 0.006724568440999918 2.8664234435681137e-06 0.9932684330822987 4.216951620348541e-13 4.132052830501877e-06
153 3 -1.78784 27.1766 3.18632 -1.2 0.003611172691987976 7.947452181497758e-07 0.996387533805481 7.025824103567637e-14 4.987572460833051e-07
154 3 -1.82343 27.1766 5.78248 -1.2 0.001431995986677583 5.3645324838368944e-08 0.9985674894444071 4.875862439444502e-13 4.609231022773842e-07
155 1 1.62435 26.1195 2.9896 1.2 0.009131887964451935 1.2780583782888786e-06 0.9908648849509333 2.1474333791726078e-13 1.949026017189856e-06
156 1 4.43064 26.0782 4.4844 1.2 0.00015958014499672566 2.4509717384495884e-08 0.9998402919300794 9.241011491916435e-12 1.0340596634663107e-07
157 2 2.61607 28.143 4.4844 2.4 0.004262243607228734 6.67975366674557e-07 0.9957367734571989 1.2652423299708901e-11 3.1494755188453656e-07
158 3 2.63853 29.7563 4.4844 -1.2 0.00039411770596099125 8.10901337445221e-08 0.999604977410653 3.2622233813368395e-13 8.237929217944333e-07
159 3 -4.00841 27.169 4.4844 -1.2 0.0009641222144289928 7.113976637785002e-07 0.999034488045016 2.1591512325505906e-13 6.783426813585304e-07
160 3 3.3182 27.4369 3.18632 -1.2 0.014172113568097985 3.3635960402760268e-06 0.9858219123158848 1.1251248681008539e-13 2.6105198574580675e-06
161 1 1.66335 26.1195 0 1.2 0.10857806439365389 8.698782403836708e-06 0.8914034749491064 1.2401059338030724e-14 9.761874820341978e-06
162 3 3.28288 27.4369 5.78248 -1.2 0.0002532385713984447 9.499446726968301e-09 0.9997466503421655 6.678032140112367e-13 1.0158632586395268e-07
163 1 -1.18278 26.1608 1.4948 1.2 0.07413472257292031 8.008211947159166e-06 0.9258509057866633 3.6733944393056265e-14 6.363428430744e-06
164 2 0.635424 24.0959 1.4948 2.4 0.005033908943924502 1.6368666091560934e-06 0.9949644521503649 1.0864870974678564e-15 2.039101621973506e-09
165 3 0.617906 22.4827 1.4948 -1.2 0.014312325463137314 2.3171078598223415e-05 0.9856641157271775 4.63753841595314e-16 3.877310935884487e-07
166 3 7.25781 25.07 1.4948 -1.2 0.39141297576621903 0.000159240751129048 0.6084206638439663 1.8068307987831724e-16 7.119638688911331e-06
167 3 -0.0337363 24.8021 0.196716 -1.2 0.08783688475888922 2.7449054013431685e-05 0.9121341023482097 8.618657136679752e-16 1.5638388891038722e-06
168 3 -0.0687235 24.8021 2.79288 -1.2 0.005901746145625094 8.247537457701644e-06 0.9940889918167215 6.717430928957267e-14 1.0145001335352426e-06
169 1 6.82195 28.494 0 1.2 0.3819307072825628 2.9077664898642407e-05 0.6179857085834828 9.331045010995463e-14 5.450646896351642e-05
170 1 4.10106 33.2017 1.4948 1.2 0.8283359069662463 0.00016143310212473857 0.1708867622685207 6.842544716279145e-11 0.0006158975946874099
171 2 5.89839 30.5175 1.4948 2.4 0.9959270705255713 7.153595357577321e-06 0.004065077687306701 1.850088617794977e-15 6.981917666928545e-07
172 3 5.96289 32.1308 1.4948 -1.2 0.9556711462083214 5.02852247260997e-05 0.04422935433374494 3.8428257973598654e-14 4.9214233175648935e-05
173 3 2.27266 29.5435 1.4948 -1.2 0.9897955501652443 7.443752812216245e-05 0.010080415786349098 9.313865302187761e-16 4.9596520276645406e-05
174 3 5.19102 29.8114 0.196716 -1.2 0.9873198682128156 9.704509478669167e-06 0.012654334091457402 1.2058670586604897e-15 1.6093186247840402e-05
175 1 6.78546 28.494 2.9896 1.2 0.02539583598171652 3.4447785678859815e-06 0.9745942929493846 6.942568203745203e-13 6.426289634730574e-06
176 3 5.16061 29.8114 2.79288 -1.2 0.09026837617495696 2.7999476458963416e-05 0.9096835236122461 1.1067029353601962e-12 2.010073523431361e-05
177 1 -0.603205 28.5353 4.4844 1.2 0.001288850693092311 1.4431923849226214e-07 0.9987093560322702 4.620879014537608e-11 1.648909196940867e-06
178 2 -2.39877 31.2194 4.4844 2.4 0.003169034863831911 6.564110503157739e-07 0.9968293235272069 4.954364701766082e-11 9.851483678326572e-07
179 3 -2.46483 29.6062 4.4844 -1.2 0.00019246016144542881 1.0169498277120809e-07 0.9998069275025657 4.2693662061371977e-13 5.106405778715349e-07
180 3 1.22864 32.1935 4.4844 -1.2 0.004912198861331066 3.2890429400288704e-06 0.9950698260672742 1.556833241794171e-11 1.4686012887175185e-05
181 3 -1.66032 31.9256 3.18632 -1.2 0.014198074163636758 2.9627509623406233e-06 0.9857940378337774 3.3086761509498245e-12 4.9252483206992204e-06
182 3 -1.69072 31.9256 5.78248 -1.2 0.0008085850652662438 3.1041919911582256e-08 0.9991908638447752 5.467066262081951e-12 5.200425643093733e-07
183 1 1.7499 30.8685 2.9896 1.2 0.13516015035251822 1.0954471373731747e-05 0.8647802317998069 5.726986883575072e-12 4.866337056773933e-05
184 1 4.55894 30.8272 4.4844 1.2 0.0032228793474130294 7.370809034890788e-08 0.9967760082015784 7.325293792713854e-11 1.0386696720770982e-06
185 2 2.7476 32.892 4.4844 2.4 0.004290650490494265 7.953911602118599e-07 0.9957065546035994 2.822920174134188e-10 1.999232453048481e-06
186 3 2.77235 34.5053 4.4844 -1.2 0.0001328199205399671 4.8241788044687e-08 0.9998660609752239 1.051098658129958e-11 1.0708519414501184e-06
187 3 -3.87837 31.918 4.4844 -1.2 0.0012623920770007558 6.116089474591179e-07 0.9987347493573798 4.953818898001679e-12 2.2469517223736612e-06
188 3 3.44611 32.1859 3.18632 -1.2 0.06391310932580016 1.0297442228030838e-05 0.9360510368729364 7.705396985335273e-12 2.5556351332015913e-05
189 1 1.7837 30.8685 0 1.2 0.9198201973045115 3.184492659606393e-05 0.07995078567173144 8.73946936723101e-14 0.00019717209707206338
190 3 3.41602 32.1859 5.78248 -1.2 0.00022269290976334192 1.1683539193073258e-08 0.9997770941575544 1.2840431009297086e-11 2.012363072315151e-07
191 1 -1.05984 30.9098 1.4948 1.2 0.8952875680149592 7.148141516598297e-05 0.1044510559278216 6.909339322860822e-13 0.0001898946413566968
192 2 0.755243 28.8449 1.4948 2.4 0.9480717701795253 5.635024523828602e-06 0.05192245558645792 1.3110991388739929e-15 1.3920948845405168e-07
193 3 0.735127 27.2317 1.4948 -1.2 0.8360183663448084 4.958850588751885e-05 0.16392448985101474 6.628680188860815e-16 7.555298285490907e-06
194 3 7.37914 29.819 1.4948 -1.2 0.9705866919894969 0.0001309562362034762 0.02921345028084341 2.4205681645224032e-15 6.890149344706836e-05
195 3 0.0850649 29.5511 0.196716 -1.2 0.8289153263605884 5.407520262098742e-05 0.17100190386334796 2.6375875888546202e-14 2.869457341425632e-05
196 3 0.0543974 29.5511 2.79288 -1.2 0.22214899237258529 4.4328452403622654e-05 0.7777842670115517 5.641544487013299e-13 2.2412162893805508e-05
197 1 6.94543 33.243 0 1.2 0.9560254248428195 3.385581807958635e-05 0.043619478165705834 3.338307642439779e-13 0.00032124117306193636
198 1 4.23267 37.9507 1.4948 1.2 0.42877571187071384 0.0001488303810773226 0.5704639298823911 2.2127043163069788e-09 0.0006115256531074578
199 2 6.02709 35.2665 1.4948 2.4 0.9987625586193339 1.5401686687794175e-05 0.001215208131264979 4.564996252726757e-14 6.8315626665783175e-06
200 3 6.09339 36.8798 1.4948 -1.2 0.6261968414028575 0.00012707337030635614 0.3734924335704389 1.0743588050593471e-11 0.00018365164564702747
201 3 2.40018 34.2925 1.4948 -1.2 0.9551273366067023 0.00040095443822068643 0.04385579507256652 1.1120398625197507e-12 0.0006159138814049807
202 3 5.31645 34.5604 0.196716 -1.2 0.9931620234477794 2.115788132471481e-05 0.0066997617820268645 7.804931211370628e-14 0.00011705688879338339
203 1 6.91449 33.243 2.9896 1.2 0.114321447863841 1.7182118297536012e-05 0.8855570769255 6.308141245578518e-11 0.00010429302928656285
204 3 5.291 34.5604 2.79288 -1.2 0.046308977135153535 4.5248996116909163e-05 0.9535692271935523 6.94243809463406e-11 7.654660575226857e-05
205 1 -0.471101 33.2843 4.4844 1.2 0.007537629337946222 6.384587189592094e-07 0.9924518968214747 7.168997034920757e-10 9.834664958953817e-06
206 2 -2.26307 35.9684 4.4844 2.4 0.0005254937922539211 3.998905427205591e-07 0.9994692881772702 4.37964780652632e-09 4.8137602859817605e-06
207 3 -2.33122 34.3552 4.4844 -1.2 0.00015691573919047943 7.948236574182699e-08 0.9998420767303196 1.1320732456662288e-11 9.280368006433894e-07
208 3 1.36549 36.9425 4.4844 -1.2 0.0001738818931162931 2.960170372548035e-07 0.9998226245453091 1.2345491202548809e-10 3.1974210858343467e-06
209 3 -1.52658 36.6746 3.18632 -1.2 0.0063508420027490915 2.91481474608379e-06 0.9936375628707808 1.2201444138303273e-10 8.68018971274655e-06
210 3 -1.55122 36.6746 5.78248 -1.2 5.4470017694719996e-05 5.495631540784551e-09 0.9999453475737652 8.362656743497492e-11 1.7682928155268748e-07
211 1 1.882 35.6175 2.9896 1.2 0.05367451539188476 1.7403152079689783e-05 0.9462220388991216 3.0403755784341524e-10 8.60422528796064e-05