ITEM: TIMESTEP
5700
ITEM: NUMBER OF ATOMS
10500
ITEM: BOX BOUNDS xy xz yz pp pp pp
0	15.2977	5.09925
0	118.725	0
0	89.688	0
ITEM: ATOMS id type xu yu zu q pCrystal pDisloC pSF pDisloB pDisloA
1 1 6.2404 -6.37941e-06 0 1.2 4.882978007849715e-16 4.03201660814863e-12 0.9999996468164396 3.5312794667841145e-07 5.157691129976483e-11
2 1 3.46349 4.70768 1.4948 1.2 3.238485034336558e-10 2.510759961158986e-08 0.9999999150139055 5.9343749112782776e-08 2.1089997883518774e-10
3 2 5.2885 2.02354 1.4948 2.4 2.604899571939433e-13 8.105026477160131e-10 0.9999999764883685 2.2683210352628977e-08 1.765232979505501e-11
4 3 5.33628 3.63678 1.4948 -1.2 4.886910980683166e-10 4.4493236918679794e-08 0.9999999367799026 1.0139862153138009e-08 8.0983071732283e-09
5 3 1.67294 1.04952 1.4948 -1.2 2.269963160420804e-13 2.2462570892478026e-09 0.9999997672003631 2.295292381889165e-07 1.0239187903438889e-09
6 3 4.59532 1.31737 0.196716 -1.2 1.1630665185018482e-14 3.721620536709619e-10 0.9999998922555648 1.0698099051026367e-07 3.9127059390541164e-10
7 1 6.18956 -6.37941e-06 2.9896 1.2 3.3277955191979023e-16 8.14985718300677e-11 0.99999714441948 2.8542317254963625e-06 1.2672921820613461e-09
8 3 4.55118 1.31737 2.79288 -1.2 3.5579499225889304e-16 1.4906724819687108e-11 0.9999985064246528 1.4934443072243575e-06 1.1612712520377153e-10
9 1 -1.20682 0.0413099 4.4844 1.2 1.1541351931748908e-15 5.567560538921241e-11 0.9999549266170655 4.507262892614513e-05 6.983356151239287e-10
10 2 -3.0337 2.72544 4.4844 2.4 1.0667258566648029e-11 4.8096326950744694e-08 0.9999409394294252 5.899188269667262e-05 2.0580880290222557e-08
11 3 -3.08099 1.11221 4.4844 -1.2 3.379998760182647e-15 1.7917636310578195e-10 0.9999842300827894 1.5769264260659844e-05 4.737742578481292e-10
12 3 0.582463 3.69946 4.4844 -1.2 6.0647366462228045e-12 6.927881868851378e-10 0.9999956489870682 4.344351529816703e-06 5.9625440121495225e-09
13 3 -2.29524 3.43162 3.18632 -1.2 1.4354658241174325e-10 2.0951268945467208e-08 0.9999996018733779 3.702310372129733e-07 6.800768776898195e-09
14 3 -2.34216 3.43162 5.78248 -1.2 1.629029234641692e-12 1.1738485953204146e-10 0.9999520992008492 4.789747030757066e-05 3.209835303131337e-09
15 1 1.12778 2.37449 2.9896 1.2 3.159307584573143e-13 1.3190548479372155e-09 0.999993450312507 6.547919300802957e-06 4.488203746163852e-10
16 1 3.92855 2.33318 4.4844 1.2 1.1313874780428635e-14 7.532259129684912e-11 0.9999104089529594 8.959031258739031e-05 6.591147361823134e-10
17 2 2.09341 4.39804 4.4844 2.4 1.9779777569655736e-12 3.4937635039614614e-09 0.9999901152487471 9.880783192902754e-06 4.723174657500874e-10
18 3 2.09991 6.01128 4.4844 -1.2 1.925335471059317e-09 9.27013557825437e-09 0.9999999711614724 9.981153182875774e-09 7.661901680865122e-09
19 3 -4.52137 3.42402 4.4844 -1.2 9.81270243780398e-13 7.523147695732135e-10 0.9999847415119342 1.5245912718981085e-05 1.1822045478091044e-08
20 3 2.80834 3.69187 3.18632 -1.2 3.859274749313536e-12 9.041054750019066e-10 0.9999998968993875 1.0182501522404493e-07 3.6763694382060854e-10
21 1 1.17857 2.37449 0 1.2 1.0650257247546332e-14 2.729071520915854e-10 0.9999994973793902 5.021324233234665e-07 2.1527104011706638e-10
22 3 2.76143 3.69187 5.78248 -1.2 6.826323152374825e-14 1.833250024520034e-11 0.9999750144283329 2.498435223736514e-05 1.2010242634447767e-09
23 1 -1.67381 2.41581 1.4948 1.2 1.0036708097046113e-10 3.4371627653283467e-08 0.9999987863815508 1.1744734493068422e-06 4.673000421554763e-09
24 2 0.16286 0.350945 1.4948 2.4 1.858099239518993e-13 1.913940283904818e-09 0.9999994107327583 5.86973603237304e-07 3.795142605239415e-10
25 3 0.15972 -1.26229 1.4948 -1.2 6.275976692911797e-12 2.905479157475962e-08 0.9999997964370871 1.6420708482065687e-07 1.0294766433396382e-08
26 3 6.77654 1.32496 1.4948 -1.2 1.2451116843955272e-12 6.325950594593378e-09 0.9999999308374352 5.642009950460643e-08 6.415263933004113e-09
27 3 -0.508028 1.05712 0.196716 -1.2 3.522873493824057e-14 1.3594384070577766e-09 0.9999997505548945 2.4676819078100845e-07 1.3174402351845707e-09
28 3 -0.552171 1.05712 2.79288 -1.2 9.875299577098298e-14 8.886394917347378e-10 0.9999968023598137 3.192454121109945e-06 4.297330186789616e-09
29 1 6.31713 4.74899 0 1.2 2.6356085314654354e-10 6.453804685130799e-08 0.9999998874690227 4.621105850332397e-08 1.518307402423229e-09
30 1 3.54847 9.45668 1.4948 1.2 4.743422584407809e-05 3.6533709889969745e-07 0.9999520921076561 3.363376800555733e-11 1.0829577343556289e-07
31 2 5.36879 6.77254 1.4948 2.4 3.6978830950756654e-06 6.3446145812287485e-06 0.9999898024293666 2.1244980059625005e-10 1.5486051383041867e-07
32 3 5.41937 8.38578 1.4948 -1.2 0.0008883035377118735 6.303138574645075e-05 0.9990448236127298 4.004192581499981e-13 3.8414634151238535e-06
33 3 1.75158 5.79852 1.4948 -1.2 4.581996936364021e-06 8.900563613302369e-06 0.9999860943522885 6.752258308502755e-11 4.2301963382932295e-07
34 3 4.67421 6.06637 0.196716 -1.2 3.816596507615592e-08 5.875988470917351e-07 0.9999993674209844 3.04343598934132e-11 6.7837633477905025e-09
35 1 6.26654 4.74899 2.9896 1.2 3.2822406029238304e-10 2.0690238336166696e-08 0.9999994523891552 5.201629477822087e-07 6.4294310990784126e-09
36 3 4.63043 6.06637 2.79288 -1.2 3.693785269764496e-08 1.5994398225773675e-07 0.9999997733378877 2.5263622108991462e-09 2.7253908467884408e-08
37 1 -1.12976 4.79031 4.4844 1.2 1.2140691890698538e-10 5.902793016408163e-10 0.9999973390048089 2.6595306509158282e-06 7.52860296865951e-10
38 2 -2.9517 7.47444 4.4844 2.4 5.557767796518998e-09 8.497559393967299e-08 0.999998174731036 2.811158244573128e-07 1.4536197725301085e-06
39 3 -3.00198 5.86121 4.4844 -1.2 1.6833323953944027e-10 5.431918126546212e-10 0.999999960653782 3.6939672180448034e-08 1.6950211346380673e-09
40 3 0.666315 8.44846 4.4844 -1.2 1.4724284873880095e-07 1.699194370539433e-07 0.9999992408779445 2.8904982324356784e-10 4.416707168879097e-07
41 3 -2.21213 8.18062 3.18632 -1.2 3.4506307404181566e-07 6.216340496989348e-08 0.9999995193131516 3.39325763565086e-11 7.342643816943224e-08
42 3 -2.25864 8.18062 5.78248 -1.2 1.3889404877079847e-08 1.868872891536552e-09 0.9999997792073532 7.134961200107231e-09 1.9789941364640687e-07
43 1 1.20893 7.12349 2.9896 1.2 1.8304693348030655e-07 2.04115185649752e-07 0.999999575538799 4.658802945065725e-09 3.2640283754168696e-08
44 1 4.00982 7.08218 4.4844 1.2 2.0205183230444088e-08 8.129916478976529e-09 0.9999998839259586 4.4117679478818175e-08 4.362126047752516e-08
45 2 2.17861 9.14704 4.4844 2.4 9.106723639840506e-07 4.321998511557774e-07 0.9999969175328021 6.993928845482473e-09 1.7326010505846663e-06
46 3 2.18828 10.7603 4.4844 -1.2 4.742642336314549e-06 7.661616701222603e-08 0.9999947570478323 1.0679327667883372e-11 4.2368298494117597e-07
47 3 -4.43805 8.17302 4.4844 -1.2 2.4865079505798124e-08 3.424633442965381e-08 0.9999996568879104 3.2309851722159863e-10 2.836775715455343e-07
48 3 2.89193 8.44087 3.18632 -1.2 2.677816752672125e-06 2.4258612688221455e-07 0.9999967553941844 1.2822572902919342e-10 3.240747034445727e-07
49 1 1.25915 7.12349 0 1.2 1.4954855083676185e-07 2.2763614583876507e-07 0.9999996200708392 3.050656398898075e-10 2.4393993233008865e-09
50 3 2.84547 8.44087 5.78248 -1.2 4.833003148475117e-08 6.1434460597785296e-09 0.9999997497514841 2.668475697204369e-09 1.9310656668033143e-07
51 1 -1.59284 7.16481 1.4948 1.2 1.3914629007342279e-06 5.642007166827841e-07 0.9999980025788826 4.2969328103239867e-10 4.1327804432092935e-08
52 2 0.240329 5.09994 1.4948 2.4 1.9780627799092104e-09 1.2530955264314766e-07 0.9999998691641793 3.4365401493675462e-09 1.116694872527969e-10
53 3 0.234538 3.48671 1.4948 -1.2 2.4691569153706496e-11 1.7822248774826438e-08 0.999999966232665 1.2012178137087778e-08 3.90821445210766e-09
54 3 6.85564 6.07396 1.4948 -1.2 8.172796012845058e-07 3.6717260720069445e-06 0.9999949642541599 1.6462163878078105e-10 5.465755461241815e-07
55 3 -0.429565 5.80612 0.196716 -1.2 4.006944920198422e-09 6.549491590277241e-08 0.9999999293735324 1.4585390778669307e-10 9.787517841221618e-10
56 3 -0.473377 5.80612 2.79288 -1.2 4.742812228567451e-09 1.2651345542147347e-08 0.9999999688067196 9.047005558342465e-09 4.752115879839226e-09
57 1 6.40169 9.49799 0 1.2 5.8893198018402186e-05 1.2510085679717306e-06 0.9999397576285426 1.050554209659682e-12 9.816381651938927e-08
58 1 3.64209 14.2057 1.4948 1.2 0.00027179909554463197 4.318300056314892e-07 0.9997275442159326 1.1134563972879548e-12 2.2485740718132763e-07
59 2 5.45748 11.5215 1.4948 2.4 0.001311325703920284 8.882496218106324e-06 0.9986796796493038 5.815837280895731e-14 1.1215050095560184e-07
60 3 5.51101 13.1348 1.4948 -1.2 0.015723317942798857 7.079122746263231e-05 0.9841998128545397 1.4085126444382884e-14 6.077975178847877e-06
61 3 1.83851 10.5475 1.4948 -1.2 0.00451183119051844 1.1337432644624362e-05 0.9954752231783992 1.8829708655565253e-14 1.6081984239018138e-06
62 3 4.7611 10.8154 0.196716 -1.2 0.0006962023188057736 8.60447020290785e-06 0.9992947825599925 4.1112288828733507e-14 4.106509521383471e-07
63 1 6.35203 9.49799 2.9896 1.2 2.5463645212972704e-05 1.1778833494367872e-06 0.9999729459876305 6.510177483002491e-11 4.124187046385943e-07
64 3 4.71833 10.8154 2.79288 -1.2 7.04578980344643e-05 9.546955196900565e-07 0.9999279128471188 4.387878228572101e-12 6.745549333720296e-07
65 1 -1.0438 9.53931 4.4844 1.2 2.062619040134704e-06 4.139331985727467e-08 0.9999976249608333 5.344006193460975e-09 2.656827952805965e-07
66 2 -2.8604 12.2234 4.4844 2.4 2.192959837557979e-06 2.245204537209117e-07 0.9999970863838383 5.084394927953318e-10 4.9562743497913e-07
67 3 -2.91391 10.6102 4.4844 -1.2 6.244132737629169e-06 1.1574213460856426e-07 0.9999932680225434 6.888861824994141e-12 3.720956986821932e-07
68 3 0.7596 13.1975 4.4844 -1.2 5.377462302193807e-06 3.4210085770201404e-07 0.999993627652582 1.8165426221214688e-11 6.527660982936312e-07
69 3 -2.12001 12.9296 3.18632 -1.2 4.843417317605329e-05 4.4561484374635887e-07 0.9999506842826464 3.5096875825917106e-12 4.359258306731409e-07
70 3 -2.16532 12.9296 5.78248 -1.2 1.4875897400685422e-05 4.6699665736951245e-08 0.9999836478691027 1.0466202512115137e-10 1.429429171570413e-06
71 1 1.29891 11.8725 2.9896 1.2 9.42009542642169e-05 8.33412019287594e-07 0.9999043071440094 1.8440155011568284e-11 6.584712715047858e-07
72 1 4.10033 11.8312 4.4844 1.2 2.1536274314740785e-05 5.418971530576535e-08 0.9999771595331667 1.5583572617474645e-09 1.2484444415942395e-06
73 2 2.27333 13.896 4.4844 2.4 4.107051376242826e-05 8.013573535948295e-07 0.9999569794199781 1.566037324510734e-10 1.1485522953174666e-06
74 3 2.28634 15.5093 4.4844 -1.2 3.436356590880817e-05 1.2095791329769798e-07 0.999965243011451 2.814159937689377e-13 2.7246444125913275e-07
75 3 -4.34533 12.922 4.4844 -1.2 1.778396034369776e-06 9.135710754366051e-08 0.9999975763035804 3.7790202129076694e-11 5.539054861664456e-07
76 3 2.98455 13.1899 3.18632 -1.2 4.439855868630832e-05 4.7063741874623554e-07 0.9999547579871396 3.050941785081278e-12 3.72813711234292e-07
77 1 1.34779 11.8725 0 1.2 0.00027771773199164533 1.280851716252517e-06 0.9997207264375189 5.605814084895168e-13 2.749782081521941e-07
78 3 2.93934 13.1899 5.78248 -1.2 8.838646993851175e-06 3.407201618836702e-08 0.999990458325404 8.048903308669572e-11 6.688751017886099e-07
79 1 -1.50344 11.9138 1.4948 1.2 0.00018255536500100033 7.012627873781956e-07 0.9998165304758027 9.099645598134092e-13 2.1289549513514712e-07
80 2 0.326006 9.84894 1.4948 2.4 0.00026966483994636477 4.2978611780900984e-06 0.999725994779499 7.55102509279898e-14 4.251929765150238e-08
81 3 0.317364 8.23571 1.4948 -1.2 0.0002710893372605159 9.651624178655168e-06 0.9997184988543758 2.1415750256041813e-12 7.601820490037313e-07
82 3 6.94307 10.823 1.4948 -1.2 0.0025145972089565 1.9849613861890538e-05 0.9974643039203636 1.9920779898227887e-14 1.2492567996943838e-06
83 3 -0.343122 10.5551 0.196716 -1.2 0.00020703405531577248 3.943338543525447e-06 0.9997888435066605 1.1690208194439452e-13 1.7909936624420533e-07
84 3 -0.385966 10.5551 2.79288 -1.2 3.58072148698672e-05 5.289267306759935e-07 0.9999633274112778 1.3253036217215106e-11 3.364338728787482e-07
85 1 6.49448 14.247 0 1.2 0.0010535435128067032 1.1692387668255117e-06 0.9989448298844426 5.5820911516827387e-14 4.573639236565996e-07
86 1 3.74457 18.9547 1.4948 1.2 3.9462017054359656e-05 1.3216354125523307e-07 0.9999603807019636 2.449868081094008e-13 2.511719589546758e-08
87 2 5.55495 16.2705 1.4948 2.4 0.0006397213467899459 5.344944870693247e-06 0.9993549187470749 4.302630214258249e-15 1.496126081386854e-08
88 3 5.6115 17.8838 1.4948 -1.2 0.00543784847438644 3.756567048390292e-05 0.9945239235152217 1.530398709241583e-15 6.623399128441821e-07
89 3 1.93416 15.2965 1.4948 -1.2 0.009887753620603724 1.3575957585923092e-05 0.9900980171769996 1.2414702137637076e-15 6.532448131746659e-07
90 3 4.85636 15.5644 0.196716 -1.2 0.004748899422691963 2.0114872785694453e-05 0.9952303245123637 7.0818369031054106e-15 6.611921491634152e-07
91 1 6.44662 14.247 2.9896 1.2 0.00010075649444427847 6.066284159414409e-07 0.9998982430216001 5.946030343864341e-12 3.9384959919865186e-07
92 3 4.81537 15.5644 2.79288 -1.2 0.00035384852185206653 3.457972389634179e-06 0.9996419066592491 4.999551534991741e-13 7.86846008967716e-07
93 1 -0.948271 14.2883 4.4844 1.2 1.118030263539006e-05 4.359571915571497e-08 0.9999884473045443 5.296623805387988e-10 3.2826744184893114e-07
94 2 -2.75928 16.9724 4.4844 2.4 7.53039415522509e-05 6.226688865717263e-07 0.9999237799736381 3.521989000425867e-11 2.9338070195895316e-07
95 3 -2.81617 15.3592 4.4844 -1.2 1.4716524552189968e-05 9.658208522176307e-08 0.9999848885595616 7.452922188805257e-13 2.9833305526361234e-07
96 3 0.862762 17.9465 4.4844 -1.2 2.399668893399406e-05 4.2867018605708327e-07 0.9999752578639557 1.4146188280780312e-12 3.1677551163482073e-07
97 3 -2.0185 17.6786 3.18632 -1.2 6.257797543665728e-05 3.6648698828139353e-07 0.9999369571545551 1.282233859650739e-13 9.838288715581698e-08
98 3 -2.06164 17.6786 5.78248 -1.2 0.00013957513859605948 7.016856136486308e-08 0.999859339456446 1.0582873349172601e-11 1.0152258121980366e-06
99 1 1.39817 16.6215 2.9896 1.2 0.00011336024515031034 6.093120166570907e-07 0.9998856320722849 2.094464732123552e-12 3.9836844788913e-07
100 1 4.20062 16.5802 4.4844 1.2 1.866277012612347e-05 3.952955333829703e-08 0.999980976716527 2.019587585611424e-10 3.2078182871163564e-07
101 2 2.37796 18.645 4.4844 2.4 4.1809551060598126e-05 1.939072217300492e-07 0.9999579485873797 5.5055066673608454e-12 4.794883723752569e-08
102 3 2.39434 20.2583 4.4844 -1.2 5.6036234988933365e-05 9.278777574144214e-08 0.9999437665824913 4.0970174822435306e-14 1.043947001146613e-07
103 3 -4.24274 17.671 4.4844 -1.2 1.3888942790310866e-05 3.256767045329756e-07 0.9999854433336497 4.389825895677624e-12 3.420424628120768e-07
104 3 3.08659 17.9389 3.18632 -1.2 6.139644948489901e-05 5.317404488225904e-07 0.9999379601741529 2.3138649638572815e-13 1.1163568904731329e-07
105 1 1.44478 16.6215 0 1.2 0.000944027713833091 1.0208001793246736e-06 0.999054579612514 7.768474380471603e-14 3.718733976791656e-07
106 3 3.0436 17.9389 5.78248 -1.2 4.391559635164659e-05 1.770477431097169e-08 0.9999558664313376 5.940832232579808e-12 2.0026159586872558e-07
107 1 -1.40524 16.6628 1.4948 1.2 0.0005515993311256313 1.0563798290007839e-06 0.9994470346832666 9.980855501573638e-14 3.096056829077778e-07
108 2 0.420358 14.5979 1.4948 2.4 0.0015229123606752693 8.649571735129542e-06 0.9984683978079845 2.410321895050195e-14 4.025957363291755e-08
109 3 0.408732 12.9847 1.4948 -1.2 0.010341789016988942 3.720566741703822e-05 0.9896191971615472 1.3290182001512377e-14 1.8081540401602483e-06
110 3 7.03923 15.572 1.4948 -1.2 0.010528803528878378 5.2187020984664215e-05 0.9894170791481118 3.079194700644636e-15 1.93030202002644e-06
111 3 -0.248332 15.3041 0.196716 -1.2 0.0017476518733533601 1.9266888165726198e-05 0.9982326663564851 1.623324731484077e-14 4.148819827254286e-07
112 3 -0.289436 15.3041 2.79288 -1.2 0.0004184856886949751 3.7479437511507453e-06 0.9995768890230832 1.1654995711056793e-12 8.773433013129033e-07
113 1 6.59566 18.996 0 1.2 0.00030433254056077316 1.8680493598732247e-07 0.9996954275677419 4.9212671138982454e-15 5.3086754578367945e-08
114 1 3.85574 23.7037 1.4948 1.2 0.0010737918842633075 7.261053146397879e-07 0.9989252309079555 2.2275755886140539e-13 2.511022423264775e-07
115 2 5.66125 21.0195 1.4948 2.4 0.0021118040184764483 2.7631132575883664e-06 0.9978854289831056 1.983166627283001e-15 3.885153745515792e-09
116 3 5.72074 22.6328 1.4948 -1.2 0.033340898434265416 6.17399422530411e-05 0.9665962513777269 1.4045302143771256e-15 1.110245757511838e-06
117 3 2.03867 20.0455 1.4948 -1.2 0.01339547672499767 1.8250436432146126e-05 0.9865858513270082 1.2878669200792281e-16 4.2151155872880034e-07
118 3 4.96004 20.3134 0.196716 -1.2 0.004505311887729786 9.067628508958018e-06 0.9954854583968772 6.966429701718984e-16 1.6208688340548006e-07
119 1 6.55057 18.996 2.9896 1.2 5.7613647037876286e-05 2.395031548793956e-07 0.9999420593369697 5.150003063180421e-13 8.751231994543347e-08
120 3 4.92172 20.3134 2.79288 -1.2 0.0002538276069992809 2.4667274587535124e-06 0.9997434924714503 8.912874898340557e-14 2.1319400364207327e-07
121 1 -0.84282 19.0373 4.4844 1.2 1.688487765837798e-05 4.665266415690442e-08 0.9999829023240435 5.89000825472597e-11 1.6608673979163882e-07
122 2 -2.64823 21.7214 4.4844 2.4 0.00012248714984600343 2.398857162151255e-07 0.999877238959165 4.8436853516657e-12 3.4000434616117955e-08
123 3 -2.70847 20.1082 4.4844 -1.2 1.949048281920964e-05 5.760006189045118e-08 0.9999803911898334 9.054437955064653e-14 6.072720052590373e-08
124 3 0.97581 22.6955 4.4844 -1.2 0.00020330319428698844 1.0621085439634804e-06 0.9997950030873681 6.502230344886919e-13 6.316091501854329e-07
125 3 -1.9076 22.4276 3.18632 -1.2 0.00034438975662950906 4.375629286375151e-07 0.999655091037251 3.7634636092183374e-14 8.164315404924049e-08
126 3 -1.9475 22.4276 5.78248 -1.2 0.0004504142876879171 5.21889507852726e-08 0.9995491823066907 2.281965078199434e-12 3.5121438679556183e-07
127 1 1.50678 21.3705 2.9896 1.2 0.00021888321277679714 4.722950261770425e-07 0.9997803878822613 4.5638481195393e-13 2.5660947931845033e-07
128 1 4.31086 21.3292 4.4844 1.2 1.905210801307703e-05 1.2109781780982625e-08 0.9999808911586522 3.21096621984527e-11 4.4591438088623085e-08
129 2 2.49243 23.394 4.4844 2.4 0.00036162501079927133 4.4891313461069265e-07 0.9996378656677174 6.182763747768752e-12 6.040216235847634e-08
130 3 2.51204 25.0073 4.4844 -1.2 0.00010435917679442652 8.177911354282556e-08 0.9998953835777455 7.419999244817357e-14 1.7546627762810525e-07
131 3 -4.13026 22.42 4.4844 -1.2 8.330880855239589e-05 3.964175529919965e-07 0.9999161297303023 5.721986023568802e-13 1.6504302081653076e-07
132 3 3.19799 22.6879 3.18632 -1.2 0.00042877292483882765 1.1538481626656233e-06 0.9995699103219226 5.84368914829821e-14 1.62905013995484e-07
133 1 1.5501 21.3705 0 1.2 0.0009028088053989594 4.6403069706536314e-07 0.9990965602384757 1.2915688277999846e-14 1.6692541891349325e-07
134 3 3.1583 22.6879 5.78248 -1.2 0.00024860319976763095 2.1118828567619545e-08 0.999751224083438 2.5390195032969504e-12 1.5159542671340697e-07
135 1 -1.29822 21.4118 1.4948 1.2 0.0006359275199735775 4.87967808950504e-07 0.9993634788798841 1.2800266597999948e-14 1.0563231614713486e-07
136 2 0.523568 19.3469 1.4948 2.4 0.0004261976123412908 2.2522254711898594e-06 0.99957154871003 2.207414886965348e-15 1.4521598485621442e-09
137 3 0.508934 17.7337 1.4948 -1.2 0.002714037254144377 2.526936822378118e-05 0.9972604094944475 1.6713277464218933e-15 2.8388318001982107e-07
138 3 7.14425 20.321 1.4948 -1.2 0.012158852482876912 3.904642635445324e-05 0.9878016423427701 1.8389332357585625e-16 4.587479948456076e-07
139 3 -0.145107 20.0531 0.196716 -1.2 0.0015773480124094677 9.595749270934651e-06 0.9984129642314955 1.265953536933675e-15 9.20068294524731e-08
140 3 -0.183601 20.0531 2.79288 -1.2 0.0007616144892034267 3.5391304778249796e-06 0.9992346573724844 4.791971713791967e-14 1.8900779194061667e-07
141 1 6.70502 23.745 0 1.2 0.0068532434612180735 2.1027803670476228e-06 0.9931437571718775 7.205096949476407e-15 8.96586533505996e-07
142 1 3.97493 28.4527 1.4948 1.2 0.16113689608391482 1.7038349285860026e-05 0.8388218087458845 2.0423354584251934e-12 2.425681887318846e-05
143 2 5.77602 25.7685 1.4948 2.4 0.24539679808122172 2.612273051284923e-05 0.7545769474111552 9.2910683643071e-15 1.3177710651051853e-07
144 3 5.83821 27.3818 1.4948 -1.2 0.6477122377922329 8.809624875426185e-05 0.3521861189171677 3.576970720339892e-15 1.3547041845569088e-05
145 3 2.15175 24.7945 1.4948 -1.2 0.6911265733676542 0.0001500223934170138 0.30871329312094997 2.298425504508747e-16 1.0111117985498896e-05
146 3 5.07184 25.0624 0.196716 -1.2 0.31994090020784677 6.088778350038327e-05 0.6799922033970676 3.1511742346798853e-15 6.0086115840890656e-06
147 1 6.66374 23.745 2.9896 1.2 0.0010413256174210675 8.111277707054102e-07 0.9989574567814681 2.4365169373393445e-13 4.064730985688371e-07
148 3 5.03707 25.0624 2.79288 -1.2 0.004820099311033514 9.466215170770248e-06 0.9951689640375947 2.0448931489530205e-13 1.4704359898324997e-06
149 1 -0.727559 23.7863 4.4844 1.2 0.00010862155113673362 9.562410019447664e-08 0.9998909966087683 2.369536257998882e-11 2.8619230538440583e-07
150 2 -2.5277 26.4704 4.4844 2.4 0.0009652771362843807 2.4954355093873994e-07 0.9990344022723108 5.142319496531217e-12 7.104271469630703e-08
151 3 -2.59107 24.8572 4.4844 -1.2 0.0001741862217031471 1.616289965002469e-07 0.9998253996269094 6.916337198195025e-14 2.5252232220331966e-07
152 3 1.09817 27.4445 4.4844 -1.2 0.004011291779365759 2.08757660255258e-06 0.9959833707571897 1.7878013246455635e-12 3.2498850596641824e-06
153 3 -1.78784 27.1766 3.18632 -1.2 0.002862753988635972 8.027548534970594e-07 0.9971359321299976 1.8836860201992397e-13 5.111263313844987e-07
154 3 -1.82343 27.1766 5.78248 -1.2 0.0009271483684837321 3.776904280887533e-08 0.9990723840397827 3.43777680891087e-12 4.298192537731926e-07
155 1 1.62435 26.1195 2.9896 1.2 0.005617085831840496 1.1997152303794834e-06 0.9943803164429847 3.3974197128009185e-13 1.3980096081996208e-06
156 1 4.43064 26.0782 4.4844 1.2 0.0002535102669619579 2.7462679542800278e-08 0.999746343884745 1.800968352136575e-11 1.1836760958078238e-07
157 2 2.61607 28.143 4.4844 2.4 0.0019122498897667353 3.060247087294243e-07 0.9980872288935813 2.7120771224168332e-11 2.1516482828088893e-07
158 3 2.63853 29.7563 4.4844 -1.2 0.0003381634554852744 5.3299672616302683e-08 0.9996612535614243 7.012497223085463e-13 5.296827155292485e-07
159 3 -4.00841 27.169 4.4844 -1.2 0.0007860272848696676 4.751384647418918e-07 0.9992129207458972 5.954029953855577e-13 5.768301761209303e-07
160 3 3.3182 27.4369 3.18632 -1.2 0.006391042393390943 2.3477464712227613e-06 0.9936050949424307 2.1799597589690676e-13 1.5149174881005098e-06
161 1 1.66335 26.1195 0 1.2 0.121733403586921 1.3854062753568377e-05 0.8782407843469534 3.0126768905459704e-14 1.1958003334900862e-05
162 3 3.28288 27.4369 5.78248 -1.2 0.00030017829734171105 7.10683827429995e-09 0.9996997337554734 3.143184209823321e-12 8.083720166764512e-08
163 1 -1.18278 26.1608 1.4948 1.2 0.06318832011814166 1.1547252789535349e-05 0.9367932682732005 8.029626728411587e-14 6.864355785399107e-06
164 2 0.635424 24.0959 1.4948 2.4 0.007698968317048156 2.8181421222590852e-06 0.992298210162319 3.543493714888349e-15 3.3785094426967913e-09
165 3 0.617906 22.4827 1.4948 -1.2 0.015554923095871594 2.7996052815312048e-05 0.984416729941073 6.448087199161581e-16 3.5091024510609003e-07
166 3 7.25781 25.07 1.4948 -1.2 0.39962773580478245 0.00021069339601283786 0.6001535971140746 3.791652214537501e-16 7.973685124490167e-06
167 3 -0.0337363 24.8021 0.196716 -1.2 0.0839054129556918 5.011580724810798e-05 0.9160423622897855 2.6673551244085268e-15 2.1089472755020063e-06
168 3 -0.0687235 24.8021 2.79288 -1.2 0.004664353644912297 1.0723925616661301e-05 0.9953238215800415 1.8835384654148016e-13 1.1008492466338903e-06
169 1 6.82195 28.494 0 1.2 0.19820573186290757 3.4292161290935106e-05 0.8017192883378479 1.0284869375863203e-13 4.0687637848222955e-05
170 1 4.10106 33.2017 1.4948 1.2 0.6352879591203359 0.00022098515692951445 0.3639037327062779 1.252781910008609e-10 0.0005873228911825686
171 2 5.89839 30.5175 1.4948 2.4 0.9871605348778256 1.4317467144141543e-05 0.01282417366989305 8.743867263494135e-15 9.739851268345027e-07
172 3 5.96289 32.1308 1.4948 -1.2 0.892431298825217 7.317208029817556e-05 0.10744128663542854 1.0809593464745475e-13 5.4242458950992695e-05
173 3 2.27266 29.5435 1.4948 -1.2 0.9717103266874361 0.0001564328822894527 0.02805434443909906 3.4920036417699685e-15 7.889599117401966e-05
174 3 5.19102 29.8114 0.196716 -1.2 0.9631866763627462 2.408135077674983e-05 0.03676524970562797 5.304285191088954e-15 2.3992580838586507e-05
175 1 6.78546 28.494 2.9896 1.2 0.021272016432118065 4.124868732549388e-06 0.9787149328112972 2.684497901930074e-12 8.925885172265208e-06
176 3 5.16061 29.8114 2.79288 -1.2 0.049229652324359094 2.1107378541382857e-05 0.9507357717945281 1.900259826013504e-12 1.3468500674846645e-05
177 1 -0.603205 28.5353 4.4844 1.2 0.0010072774824549375 1.7057365372085285e-07 0.9989909744187803 1.5945361909718576e-10 1.5773656546482035e-06
178 2 -2.39877 31.2194 4.4844 2.4 0.003756067307890236 7.175556479450778e-07 0.9962421127412274 1.1096681827418082e-10 1.1022842716772279e-06
179 3 -2.46483 29.6062 4.4844 -1.2 0.0001068916036279824 6.055960909519621e-08 0.9998927997958392 9.226023091555594e-13 2.480399943348051e-07
180 3 1.22864 32.1935 4.4844 -1.2 0.0038201292806324077 2.619968944454794e-06 0.9961666054520811 3.31435043424179e-11 1.0645265200684732e-05
181 3 -1.66032 31.9256 3.18632 -1.2 0.00904988787614701 1.7697369918998721e-06 0.9909453494214792 5.599709524105291e-12 2.9929597869245695e-06
182 3 -1.69072 31.9256 5.78248 -1.2 0.0013658041791553923 6.847850059419397e-08 0.9986333718154583 2.97346433496248e-11 7.554971453557954e-07
183 1 1.7499 30.8685 2.9896 1.2 0.05783063394797606 8.774341974646947e-06 0.9421234312168197 1.2041567452821732e-11 3.716048119048918e-05
184 1 4.55894 30.8272 4.4844 1.2 0.0021988336372377616 5.693994798351091e-08 0.9978003073257444 2.530734109493213e-10 8.018439992229044e-07
185 2 2.7476 32.892 4.4844 2.4 0.004603136328980198 9.613109947322143e-07 0.9953942247670574 4.735874683574812e-10 1.677119382821814e-06
186 3 2.77235 34.5053 4.4844 -1.2 9.207776583937956e-05 3.8267690883133865e-08 0.9999072380256513 1.9595778546981524e-11 6.459212159013953e-07
187 3 -3.87837 31.918 4.4844 -1.2 0.0010154220222691563 5.272973176912763e-07 0.9989812014519547 1.5326609252961645e-11 2.8492131311635253e-06
188 3 3.44611 32.1859 3.18632 -1.2 0.03002652984787313 6.314534361502374e-06 0.9699546531148879 1.020683295704197e-11 1.2502492670126688e-05
189 1 1.7837 30.8685 0 1.2 0.7877470572851857 7.969484143228579e-05 0.21189150102740067 3.530185532578586e-13 0.00028174684563116935
190 3 3.41602 32.1859 5.78248 -1.2 0.00024488042371868286 9.735993588759548e-09 0.9997549353456638 4.049403508484087e-11 1.7445412487883925e-07
191 1 -1.05984 30.9098 1.4948 1.2 0.7823830860316041 0.00011518389591756113 0.21726820507278397 1.465778299080772e-12 0.00023352499823197905
192 2 0.755243 28.8449 1.4948 2.4 0.8717417962920879 1.0887990739477258e-05 0.12824716178389092 4.8765981007400935e-15 1.5393328189589922e-07
193 3 0.735127 27.2317 1.4948 -1.2 0.7399834824636589 8.786815760573054e-05 0.25991891339866524 1.7159541086953052e-15 9.73598006897807e-06
194 3 7.37914 29.819 1.4948 -1.2 0.9259599525413816 0.0002178518839052984 0.07373645582705014 7.502326465955924e-15 8.573974764983897e-05
195 3 0.0850649 29.5511 0.196716 -1.2 0.6312646939104245 8.98453596577801e-05 0.36861196730534107 7.191584513402635e-14 3.349342450658718e-05
196 3 0.0543974 29.5511 2.79288 -1.2 0.10433890963678923 3.4436352830406405e-05 0.8956133667613582 8.243394642959539e-13 1.328724820078854e-05
197 1 6.94543 33.243 0 1.2 0.8391111322052068 6.739096285842281e-05 0.16047423138631928 1.3914247748671376e-12 0.00034724544422320915
198 1 4.23267 37.9507 1.4948 1.2 0.3497831156034977 0.00012356230780155152 0.6496667951229463 2.145693548159769e-09 0.000426524820054338
199 2 6.02709 35.2665 1.4948 2.4 0.9963267712557864 1.9853008496851437e-05 0.0036463660387558478 1.0664128565849831e-13 7.009696858772258e-06
200 3 6.09339 36.8798 1.4948 -1.2 0.5233545664692574 0.00011427864030979272 0.4763953262439082 1.4309952229400065e-11 0.0001358286322098062
201 3 2.40018 34.2925 1.4948 -1.2 0.9071232283348062 0.0005461695218290625 0.09168749996128714 1.967328828266202e-12 0.0006431021801044274
202 3 5.31645 34.5604 0.196716 -1.2 0.9826024329737831 2.771832994486599e-05 0.017261641565099302 1.5650542289990648e-13 0.00010820713101649964
203 1 6.91449 33.243 2.9896 1.2 0.07025467925984827 9.266890618708844e-06 0.929687569390343 1.3615311273746944e-10 4.848432303135308e-05
204 3 5.291 34.5604 2.79288 -1.2 0.027379045001664597 4.53681953415249e-05 0.9725134036825707 1.1519086736034856e-10 6.218300523266873e-05
205 1 -0.471101 33.2843 4.4844 1.2 0.006946014230497997 7.593214666499914e-07 0.9930449071238419 1.063941310573997e-09 8.318260252430154e-06
206 2 -2.26307 35.9684 4.4844 2.4 0.0005197901211441826 4.726176422939579e-07 0.9994752249116127 5.358008888838792e-09 4.506991588363683e-06
207 3 -2.33122 34.3552 4.4844 -1.2 0.00014097722658968246 7.354183287343887e-08 0.9998582673848827 2.418198671870551e-11 6.818225177050372e-07
208 3 1.36549 36.9425 4.4844 -1.2 0.00018296547945867626 3.138650174213404e-07 0.9998136153740923 1.8527764623415682e-10 3.1050961473080987e-06
209 3 -1.52658 36.6746 3.18632 -1.2 0.007514775266916335 3.5384254060104506e-06 0.9924718062341109 1.8892940731308415e-10 9.879884634000173e-06
210 3 -1.55122 36.6746 5.78248 -1.2 0.0001354956079034236 1.0941767107874367e-08 0.9998642349261717 1.7486256789390353e-10 2.583492928818775e-07
211 1 1.882 35.6175 2.9896 1.2 0.025694339283747845 9.8005819250268e-06 0.9742618713982675 3.0261147035573883e-10 3.398843345041507e-05