ITEM: TIMESTEP
9200
ITEM: NUMBER OF ATOMS
10500
ITEM: BOX BOUNDS xy xz yz pp pp pp
0	15.2977	5.09925
0	118.725	0
0	89.688	0
ITEM: ATOMS id type xu yu zu q pCrystal pDisloC pSF pDisloB pDisloA
1 1 6.2404 -6.37941e-06 0 1.2 3.4539310157701766e-16 3.2340658179584495e-12 0.9999995463591523 4.5358820013517376e-07 4.941994613776805e-11
2 1 3.46349 4.70768 1.4948 1.2 3.061828234249782e-10 2.397655910314612e-08 0.9999999076744401 6.777693280098794e-08 2.6588210744765327e-10
3 2 5.2885 2.02354 1.4948 2.4 2.862890366470712e-13 5.583054157296897e-10 0.9999999830181566 1.641349298220359e-08 9.75193540078912e-12
4 3 5.33628 3.63678 1.4948 -1.2 4.2940559948054315e-10 3.8066791285414126e-08 0.9999999454451697 8.041011983621972e-09 8.017620446840104e-09
5 3 1.67294 1.04952 1.4948 -1.2 3.7768181844318516e-13 2.7945797468967426e-09 0.9999997284072122 2.679280652460679e-07 8.697658505788026e-10
6 3 4.59532 1.31737 0.196716 -1.2 3.095399180766241e-14 4.679759298948107e-10 0.9999998739145974 1.2518495677987053e-07 4.3243375781263985e-10
7 1 6.18956 -6.37941e-06 2.9896 1.2 8.796489464007935e-16 1.3864273115394868e-10 0.9999965873778899 3.4115817876745522e-06 9.016836636659989e-10
8 3 4.55118 1.31737 2.79288 -1.2 7.825643629980551e-16 2.242062768387609e-11 0.9999989029839944 1.0968700467459466e-06 1.2354296082167994e-10
9 1 -1.20682 0.0413099 4.4844 1.2 7.487089041761484e-16 4.226670722743393e-11 0.9999678597581871 3.213992878107814e-05 2.7075725112837626e-10
10 2 -3.0337 2.72544 4.4844 2.4 1.1275548691899685e-11 8.12002818068545e-08 0.9999492092926808 5.068263836600666e-05 2.6857389110655152e-08
11 3 -3.08099 1.11221 4.4844 -1.2 3.961522856320003e-15 2.6776029692090693e-10 0.999972289375717 2.7709618212793364e-05 7.383045158165982e-10
12 3 0.582463 3.69946 4.4844 -1.2 5.77109191973899e-12 7.950742010136172e-10 0.9999907168346469 9.275074172864365e-06 7.290332503535078e-09
13 3 -2.29524 3.43162 3.18632 -1.2 8.870900693041196e-11 1.4103808903170185e-08 0.9999995969810941 3.827153915512039e-07 6.110992117151015e-09
14 3 -2.34216 3.43162 5.78248 -1.2 3.409722429498699e-12 3.73553705430754e-10 0.9999551373461943 4.485497245362276e-05 7.304382072314635e-09
15 1 1.12778 2.37449 2.9896 1.2 4.815494386562653e-13 1.814797867092126e-09 0.9999875776867311 1.2419947317750452e-05 5.506687020917294e-10
16 1 3.92855 2.33318 4.4844 1.2 2.0102052338140715e-14 1.0514640184896035e-10 0.9998919826033487 0.00010801675391684001 5.375744125573774e-10
17 2 2.09341 4.39804 4.4844 2.4 3.3632701218650195e-12 6.387249456202912e-09 0.9999823054446076 1.768748402434642e-05 6.807563444487234e-10
18 3 2.09991 6.01128 4.4844 -1.2 2.7859806019972935e-09 1.0641709789666271e-08 0.9999999661665845 1.0188900253042772e-08 1.0216831386512482e-08
19 3 -4.52137 3.42402 4.4844 -1.2 1.2771155292815197e-12 1.1742756081423106e-09 0.9999858875143056 1.4097488448048153e-05 1.3821689863829293e-08
20 3 2.80834 3.69187 3.18632 -1.2 6.326481378210689e-12 1.3636628956811133e-09 0.9999998711822767 1.2707957541452307e-07 3.6815433600319947e-10
21 1 1.17857 2.37449 0 1.2 3.143367588585753e-14 4.595196959990692e-10 0.99999962450569 3.748695660207025e-07 1.6519036917326828e-10
22 3 2.76143 3.69187 5.78248 -1.2 2.1546700850373143e-13 6.518945578926919e-11 0.9999688536826714 3.114443977362592e-05 1.812157295069311e-09
23 1 -1.67381 2.41581 1.4948 1.2 1.3730700661997381e-10 3.887297951852512e-08 0.9999976822016807 2.2745002197773294e-06 4.287806246536977e-09
24 2 0.16286 0.350945 1.4948 2.4 4.1565596515766967e-13 2.954176837493696e-09 0.9999993926776224 6.041221561434278e-07 2.456249398329141e-10
25 3 0.15972 -1.26229 1.4948 -1.2 4.484877140192e-12 1.773633196823147e-08 0.9999998633229219 1.1300158891592502e-07 5.934671862413375e-09
26 3 6.77654 1.32496 1.4948 -1.2 1.7718981315688798e-12 6.852775910760457e-09 0.9999999244211069 6.287725643691242e-08 5.847086671826026e-09
27 3 -0.508028 1.05712 0.196716 -1.2 6.400776016259813e-14 1.975077800884048e-09 0.9999997437806529 2.5281813452680035e-07 1.4260689114205565e-09
28 3 -0.552171 1.05712 2.79288 -1.2 1.0905955891498793e-13 8.449485258181344e-10 0.9999954086463235 4.586684189017171e-06 3.824424641537786e-09
29 1 6.31713 4.74899 0 1.2 3.0400466383862687e-10 4.623309681795454e-08 0.9999999019298732 5.039273636283824e-08 1.1402838345981616e-09
30 1 3.54847 9.45668 1.4948 1.2 6.68706738468472e-05 4.758759896558353e-07 0.9999325092925329 2.3919952088819482e-11 1.441337084375517e-07
31 2 5.36879 6.77254 1.4948 2.4 2.9119543060745536e-06 5.318162276808399e-06 0.999991595156821 1.2799964582121139e-10 1.7459859251266205e-07
32 3 5.41937 8.38578 1.4948 -1.2 0.0007039946876921538 6.164435526382996e-05 0.9992302143285267 3.286907514949943e-13 4.1466281930168665e-06
33 3 1.75158 5.79852 1.4948 -1.2 4.554696659889423e-06 8.774805011546399e-06 0.9999860851687081 8.133275666520892e-11 5.852482907562711e-07
34 3 4.67421 6.06637 0.196716 -1.2 5.2606349657352145e-08 6.302556382882536e-07 0.9999993074871139 4.6312137122558445e-11 9.604590964798973e-09
35 1 6.26654 4.74899 2.9896 1.2 2.6936719883443413e-10 1.6667946168445856e-08 0.9999995389073671 4.364960683111628e-07 7.659250557746517e-09
36 3 4.63043 6.06637 2.79288 -1.2 3.719395050106821e-08 1.357478675767077e-07 0.99999978741547 2.599666999192755e-09 3.704304068445001e-08
37 1 -1.12976 4.79031 4.4844 1.2 1.6449193423804186e-10 5.135494372487939e-10 0.9999971963910718 2.8020651456620773e-06 8.657448852518895e-10
38 2 -2.9517 7.47444 4.4844 2.4 6.357526183765762e-09 8.869378762215026e-08 0.9999970164954588 3.4000621396628784e-07 2.5484470177416297e-06
39 3 -3.00198 5.86121 4.4844 -1.2 3.0588990857785937e-10 9.470264615159668e-10 0.9999999582407932 3.683798835646364e-08 3.668299089062515e-09
40 3 0.666315 8.44846 4.4844 -1.2 2.797063302642085e-07 2.0207428375910117e-07 0.9999983195214861 3.5392231664746153e-10 1.1983439771800938e-06
41 3 -2.21213 8.18062 3.18632 -1.2 8.081762541877477e-07 1.0740160118285086e-07 0.9999989208091759 3.135985943366703e-11 1.6358161180473591e-07
42 3 -2.25864 8.18062 5.78248 -1.2 2.4203167225709805e-08 4.395153865775066e-09 0.9999995682417415 5.122630307598501e-09 3.9803731188545984e-07
43 1 1.20893 7.12349 2.9896 1.2 1.369576306597577e-07 1.4820618498688992e-07 0.9999996857577355 3.3846617564999364e-09 2.5693781168998033e-08
44 1 4.00982 7.08218 4.4844 1.2 2.5182793841335487e-08 7.959729809440953e-09 0.9999998700786334 3.4561310554047395e-08 6.221752829026038e-08
45 2 2.17861 9.14704 4.4844 2.4 2.641468236774031e-06 1.287105165991211e-06 0.9999914701499075 4.938800655852752e-09 4.596337885082765e-06
46 3 2.18828 10.7603 4.4844 -1.2 6.972216261918633e-06 1.1187053408297275e-07 0.99999227319743 1.0368986660650135e-11 6.427054091062905e-07
47 3 -4.43805 8.17302 4.4844 -1.2 5.0737012738909175e-08 5.968146635317824e-08 0.9999992075654389 3.80075815047177e-10 6.816360119982739e-07
48 3 2.89193 8.44087 3.18632 -1.2 4.950332141467903e-06 3.718599225084811e-07 0.9999941581133494 6.976082789926464e-11 5.196248328503826e-07
49 1 1.25915 7.12349 0 1.2 3.9268376420380416e-07 4.902195560683243e-07 0.9999991078648094 6.352873813073419e-10 8.59658858398271e-09
50 3 2.84547 8.44087 5.78248 -1.2 6.359697193471494e-08 7.730166304730804e-09 0.999999680615724 2.7518963162889862e-09 2.453052409650555e-07
51 1 -1.59284 7.16481 1.4948 1.2 1.1213501323684648e-06 5.110451094687491e-07 0.9999983360278779 2.784638838134675e-10 3.12984210539361e-08
52 2 0.240329 5.09994 1.4948 2.4 2.3190832455731577e-09 1.375890151077397e-07 0.9999998544105003 5.545769795373132e-09 1.3562645974016047e-10
53 3 0.234538 3.48671 1.4948 -1.2 4.054678917589362e-11 2.273184052045148e-08 0.9999999560034932 1.7244176602430864e-08 3.97994071445677e-09
54 3 6.85564 6.07396 1.4948 -1.2 6.30365595426376e-07 2.6652812992227647e-06 0.9999962940512749 1.1726075174488534e-10 4.1018456658425673e-07
55 3 -0.429565 5.80612 0.196716 -1.2 5.230397293407514e-09 7.626241565549676e-08 0.9999999170775914 1.9222793679781435e-10 1.2373713510773486e-09
56 3 -0.473377 5.80612 2.79288 -1.2 3.908848098667844e-09 9.753645245379481e-09 0.9999999750590124 6.896404944680387e-09 4.3820890533909775e-09
57 1 6.40169 9.49799 0 1.2 8.223750622381153e-05 1.797079158237795e-06 0.9999157835212626 1.9202938880792016e-12 1.818914358692793e-07
58 1 3.64209 14.2057 1.4948 1.2 0.0006602760858719114 8.693812872094495e-07 0.9993382535890395 1.2516299724823108e-12 6.009425438344092e-07
59 2 5.45748 11.5215 1.4948 2.4 0.0027783520680076477 2.507475245676201e-05 0.9971962308700795 8.037390185064011e-14 3.4230937694096537e-07
60 3 5.51101 13.1348 1.4948 -1.2 0.03808160080729365 0.00020467167809641785 0.9616940369506614 2.1893045306347774e-14 1.9690563928308065e-05
61 3 1.83851 10.5475 1.4948 -1.2 0.00762715061467251 1.9708607793657815e-05 0.9923499858543082 1.6965631115159834e-14 3.1549232028046116e-06
62 3 4.7611 10.8154 0.196716 -1.2 0.0012264201382363176 1.891330880205953e-05 0.9987536926761121 6.607591382287748e-14 9.73876788323694e-07
63 1 6.35203 9.49799 2.9896 1.2 3.6983939193376805e-05 1.7219674025103614e-06 0.9999606499115564 6.27861086966374e-11 6.441190583634281e-07
64 3 4.71833 10.8154 2.79288 -1.2 0.00011945249099073957 1.6793181270213621e-06 0.9998780276741032 2.7443081782129155e-12 8.40514035098511e-07
65 1 -1.0438 9.53931 4.4844 1.2 2.1316419039659493e-06 5.1161735290506e-08 0.9999974059899834 6.207819063595172e-09 4.0499856134893804e-07
66 2 -2.8604 12.2234 4.4844 2.4 1.105561020774155e-05 1.2860730630042448e-06 0.9999847711331709 6.614402291186666e-10 2.886522118326555e-06
67 3 -2.91391 10.6102 4.4844 -1.2 1.0771877093031885e-05 3.347480589577651e-07 0.9999877446490261 9.832607175174212e-12 1.148715993351974e-06
68 3 0.7596 13.1975 4.4844 -1.2 2.2788274495182937e-05 2.4858303245077834e-06 0.9999683738507147 3.535210748967467e-11 6.352009120110817e-06
69 3 -2.12001 12.9296 3.18632 -1.2 9.278176567476608e-05 1.159934620879483e-06 0.999904939906258 3.650674915379952e-12 1.1183898018218586e-06
70 3 -2.16532 12.9296 5.78248 -1.2 1.57264696932171e-05 1.4769026482309908e-07 0.9999793542092235 2.1533460731522173e-10 4.771415489951209e-06
71 1 1.29891 11.8725 2.9896 1.2 0.00022369081809453704 2.2078317188604715e-06 0.9997720909987808 1.7425725338341856e-11 2.0103339867623647e-06
72 1 4.10033 11.8312 4.4844 1.2 1.4310005349810845e-05 4.575218553285722e-08 0.9999847980955837 1.722160502712446e-09 8.444247209234431e-07
73 2 2.27333 13.896 4.4844 2.4 8.070944864684121e-05 2.570199396061383e-06 0.9999115097365976 4.070537053754078e-10 5.21020830460338e-06
74 3 2.28634 15.5093 4.4844 -1.2 0.0001112208257315933 5.475076356753898e-07 0.9998863613319102 5.458747825609796e-13 1.8703341767286876e-06
75 3 -4.34533 12.922 4.4844 -1.2 3.15233624950725e-06 2.110224376607297e-07 0.9999956239423082 3.1125602579623124e-11 1.0126678730980664e-06
76 3 2.98455 13.1899 3.18632 -1.2 0.00010577321202787087 1.5488906808458026e-06 0.9998912555649434 4.359811159014597e-12 1.422327992828435e-06
77 1 1.34779 11.8725 0 1.2 0.0007140787193472708 3.056999494151309e-06 0.999282081381802 8.847857463969437e-13 7.828984773595062e-07
78 3 2.93934 13.1899 5.78248 -1.2 2.0804331449279053e-05 8.340605468607196e-08 0.9999777277737328 9.305357944428436e-11 1.3843957134751902e-06
79 1 -1.50344 11.9138 1.4948 1.2 0.0004412059087832796 1.795260091556229e-06 0.9995563495408624 1.1844462691720846e-12 6.492890757449656e-07
80 2 0.326006 9.84894 1.4948 2.4 0.0004403433298444088 6.730057628267792e-06 0.9995528176878881 1.1093164571303146e-13 1.0892453103492583e-07
81 3 0.317364 8.23571 1.4948 -1.2 0.000320592845262962 1.101426208522332e-05 0.9996673717491127 1.6077143731680835e-12 1.0211419330111533e-06
82 3 6.94307 10.823 1.4948 -1.2 0.004025041893356966 3.761500848661698e-05 0.9959351297964228 1.672515599574959e-14 2.2133017119398453e-06
83 3 -0.343122 10.5551 0.196716 -1.2 0.00040101931993887494 7.281525941545031e-06 0.999591335735098 9.546847326741452e-14 3.634189295258727e-07
84 3 -0.385966 10.5551 2.79288 -1.2 8.639322082941707e-05 1.3356398668158138e-06 0.9999112899688601 9.945039398640667e-12 9.811605021215904e-07
85 1 6.49448 14.247 0 1.2 0.0021273733421172027 2.438132032308916e-06 0.9978692865836951 7.469725528523713e-14 9.019420857559314e-07
86 1 3.74457 18.9547 1.4948 1.2 8.026050686194389e-05 2.1462178964474756e-07 0.9999194694613011 4.3082503200316153e-13 5.540961510812236e-08
87 2 5.55495 16.2705 1.4948 2.4 0.001930900454727263 1.2226845997693633e-05 0.9980568327231676 1.0318369687728706e-14 3.997610140414414e-08
88 3 5.6115 17.8838 1.4948 -1.2 0.012789982898616964 8.710421177858407e-05 0.987120751172219 2.848611943478869e-15 2.1617173776300572e-06
89 3 1.93416 15.2965 1.4948 -1.2 0.04338731832272014 8.28862563636726e-05 0.956524400409049 1.7730801609116972e-15 5.395011870988152e-06
90 3 4.85636 15.5644 0.196716 -1.2 0.018843221834604386 5.414603391965806e-05 0.9811007873009827 5.194279143711596e-15 1.8448304880138623e-06
91 1 6.44662 14.247 2.9896 1.2 0.00022318917027029295 1.3804611567552856e-06 0.999774280676247 6.567324207274819e-12 1.149685758820999e-06
92 3 4.81537 15.5644 2.79288 -1.2 0.0011552612610448757 9.014901459463575e-06 0.9988333515283412 4.522260205334441e-13 2.372308698295635e-06
93 1 -0.948271 14.2883 4.4844 1.2 1.907787288555141e-05 1.530502234519042e-07 0.9999790142630538 1.1026304952108752e-09 1.7537112064688355e-06
94 2 -2.75928 16.9724 4.4844 2.4 7.654064802813117e-05 1.202884347833877e-06 0.9999217050870292 3.2041943867380037e-11 5.513485476633776e-07
95 3 -2.81617 15.3592 4.4844 -1.2 3.685996992807364e-05 5.74434361955668e-07 0.9999605730186982 8.643084232996004e-13 1.9925761435069096e-06
96 3 0.862762 17.9465 4.4844 -1.2 3.3204981645273514e-05 1.1559918692005595e-06 0.9999647410045203 1.3893734725926016e-12 8.980205702228945e-07
97 3 -2.0185 17.6786 3.18632 -1.2 0.00015824775439904665 1.3553537610057129e-06 0.9998398920023357 1.7229211382298287e-13 5.048893302463457e-07
98 3 -2.06164 17.6786 5.78248 -1.2 0.00022182034733692863 1.3396560186153696e-07 0.9997762005724823 7.750731072837795e-12 1.8451068221888664e-06
99 1 1.39817 16.6215 2.9896 1.2 0.00040026844081014783 2.9241310517127865e-06 0.9995939166084056 3.360629588055594e-12 2.890816375875903e-06
100 1 4.20062 16.5802 4.4844 1.2 3.4235066018293724e-05 1.2776094930503102e-07 0.999964221158187 2.83784532170121e-10 1.4157310626309204e-06
101 2 2.37796 18.645 4.4844 2.4 0.00012555571578914685 8.025149173406491e-07 0.9998733433211604 1.469108370484698e-11 2.9843343749617865e-07
102 3 2.39434 20.2583 4.4844 -1.2 9.467506127353126e-05 2.108612790357728e-07 0.9999047813199947 3.9926629347756564e-14 3.3275741666920306e-07
103 3 -4.24274 17.671 4.4844 -1.2 2.1718698653311546e-05 6.401613078720982e-07 0.9999767935209364 5.1114343779105496e-12 8.47613987889281e-07
104 3 3.08659 17.9389 3.18632 -1.2 0.00019346036336591335 2.342339832996119e-06 0.999803327390794 4.313544999230882e-13 8.69905578556052e-07
105 1 1.44478 16.6215 0 1.2 0.0016460650267666993 1.2988540108433416e-06 0.9983519769942557 9.492717716689886e-14 6.591248734659347e-07
106 3 3.0436 17.9389 5.78248 -1.2 6.756531103006034e-05 2.8060233800357517e-08 0.9999321100367917 3.5344436082510847e-12 2.96588404454625e-07
107 1 -1.40524 16.6628 1.4948 1.2 0.0017176437016702883 2.976614352822534e-06 0.9982782096944652 1.5706130780419032e-13 1.169989351964368e-06
108 2 0.420358 14.5979 1.4948 2.4 0.0059915765567230125 2.510037673597211e-05 0.9939831632081871 4.256361000231645e-14 1.5985830441908754e-07
109 3 0.408732 12.9847 1.4948 -1.2 0.02876731809758641 0.00010705540502762011 0.9711194089777798 1.4567574827052078e-14 6.217519590549279e-06
110 3 7.03923 15.572 1.4948 -1.2 0.05287793527563981 0.00019230218088464306 0.9469200649839439 4.052321850528429e-15 9.697559527924409e-06
111 3 -0.248332 15.3041 0.196716 -1.2 0.006049363042596866 3.8645415675734705e-05 0.9939108330976099 1.586492165832063e-14 1.1584440969711572e-06
112 3 -0.289436 15.3041 2.79288 -1.2 0.001813166830435147 1.5917766606905943e-05 0.9981651187756184 1.7530730536780863e-12 5.796625589860942e-06
113 1 6.59566 18.996 0 1.2 0.000541582373821136 2.849867760940041e-07 0.9994580421593233 4.100592182290228e-15 9.048007677091025e-08
114 1 3.85574 23.7037 1.4948 1.2 0.0007360732333454508 4.963620939245633e-07 0.9992632821138641 1.0917313242328988e-13 1.4829058301917027e-07
115 2 5.66125 21.0195 1.4948 2.4 0.0027101521776494246 4.256720577805613e-06 0.9972855840889069 2.4767174886645033e-15 7.0128694358865785e-09
116 3 5.72074 22.6328 1.4948 -1.2 0.027585148827091118 7.610493346353495e-05 0.9723373154664449 1.4076092709479323e-15 1.4307729972268876e-06
117 3 2.03867 20.0455 1.4948 -1.2 0.02765670298089278 3.977950791384146e-05 0.9723022256510825 2.5633029342613706e-16 1.291860107626759e-06
118 3 4.96004 20.3134 0.196716 -1.2 0.005405882987746034 1.051851366921777e-05 0.9945833708998505 7.539527684821945e-16 2.2759874044353023e-07
119 1 6.55057 18.996 2.9896 1.2 0.00014213671391242693 6.716882842869931e-07 0.9998567737520379 8.610001258957243e-13 4.1784490032499995e-07
120 3 4.92172 20.3134 2.79288 -1.2 0.0004044852546953505 4.9507404032492445e-06 0.9995899074552383 1.6658338352082214e-13 6.5654949604389e-07
121 1 -0.84282 19.0373 4.4844 1.2 1.434107944027669e-05 6.823678638489999e-08 0.9999852690083224 5.440579075772693e-11 3.2162103899257126e-07
122 2 -2.64823 21.7214 4.4844 2.4 0.0001299687338046002 3.407743043307775e-07 0.9998696335842189 4.76888151614829e-12 5.690290077657032e-08
123 3 -2.70847 20.1082 4.4844 -1.2 2.4794163370789993e-05 1.2034078405189495e-07 0.9999749421109039 7.219238680461353e-14 1.4338486316222048e-07
124 3 0.97581 22.6955 4.4844 -1.2 0.00033608483224667685 1.9690613792055123e-06 0.9996607255620498 9.798200120141095e-13 1.2205433450121395e-06
125 3 -1.9076 22.4276 3.18632 -1.2 0.0003996978490068096 8.099284287597732e-07 0.9995993230774703 4.2787606216196944e-14 1.691450566594014e-07
126 3 -1.9475 22.4276 5.78248 -1.2 0.0001377211511262689 2.4311310205658966e-08 0.9998620082844294 9.008019711612782e-13 2.46252234425984e-07
127 1 1.50678 21.3705 2.9896 1.2 0.0003535032048486494 6.650439173618059e-07 0.9996453526340661 3.717025763809203e-13 4.791167981374446e-07
128 1 4.31086 21.3292 4.4844 1.2 2.9854108395175444e-05 2.2070442320706004e-08 0.9999700240337411 1.9452953230170686e-11 9.976797151580545e-08
129 2 2.49243 23.394 4.4844 2.4 0.00025062869850775936 4.5503176311529766e-07 0.9997488316613875 8.588602914739484e-12 8.459974879602317e-08
130 3 2.51204 25.0073 4.4844 -1.2 0.00011457442884765588 1.4436674641611604e-07 0.9998849038520559 1.2951441244303717e-13 3.7735221398516296e-07
131 3 -4.13026 22.42 4.4844 -1.2 5.8628640312413126e-05 4.497003603581629e-07 0.9999407185134734 6.488784794301801e-13 2.0314520284271573e-07
132 3 3.19799 22.6879 3.18632 -1.2 0.0005016867251256124 1.4635861055251153e-06 0.9994966277439054 6.277311790795647e-14 2.2194479947296137e-07
133 1 1.5501 21.3705 0 1.2 0.000671244484025132 2.8888027995696844e-07 0.999328363904568 5.8211674091206e-15 1.0273112686188304e-07
134 3 3.1583 22.6879 5.78248 -1.2 7.243563048036e-05 1.308189779426045e-08 0.9999274439678741 2.879177659650524e-12 1.0731687391754999e-07
135 1 -1.29822 21.4118 1.4948 1.2 0.0007714861613251 7.245403381124667e-07 0.9992275980498512 1.2814358305144276e-14 1.912484795229705e-07
136 2 0.523568 19.3469 1.4948 2.4 0.000864513655150599 4.627362912150853e-06 0.9991308544562402 5.336164813412868e-15 4.52569065193461e-09
137 3 0.508934 17.7337 1.4948 -1.2 0.013345177944150032 9.878363780570947e-05 0.9865543618744737 2.905977027939655e-15 1.6765435628371601e-06
138 3 7.14425 20.321 1.4948 -1.2 0.012340132429530071 5.185451678196731e-05 0.9876072170823289 3.342215522585696e-16 7.959713596388483e-07
139 3 -0.145107 20.0531 0.196716 -1.2 0.001022327971724793 1.1601782263182043e-05 0.9989659859872029 1.7561495922530219e-15 8.425880311564326e-08
140 3 -0.183601 20.0531 2.79288 -1.2 0.0022949273228255376 1.3945255034402867e-05 0.9976898472100862 1.005080092422991e-13 1.280211958889785e-06
141 1 6.70502 23.745 0 1.2 0.003869053832558048 2.1245466667017306e-06 0.9961281127633087 5.777151673736616e-15 7.088574609278583e-07
142 1 3.97493 28.4527 1.4948 1.2 0.1821934645354351 2.016316732957783e-05 0.8177581168928787 1.6481552153297525e-12 2.825540270585069e-05
143 2 5.77602 25.7685 1.4948 2.4 0.2907591307280817 3.654399437866026e-05 0.7092040761200223 9.100597827820974e-15 2.4915750643402344e-07
144 3 5.83821 27.3818 1.4948 -1.2 0.7080255546001658 8.934526969581782e-05 0.29186957425875276 3.0231945774041156e-15 1.552587137792702e-05
145 3 2.15175 24.7945 1.4948 -1.2 0.6916120695999419 0.00022605202242040128 0.3081478436101999 1.6056638483907306e-16 1.4034767432243066e-05
146 3 5.07184 25.0624 0.196716 -1.2 0.23997968382561466 5.793530668871996e-05 0.7599555045978281 3.240517556393634e-15 6.876269871328498e-06
147 1 6.66374 23.745 2.9896 1.2 0.0007633598115141441 7.882589855983363e-07 0.9992354163700179 3.020236305384122e-13 4.3555918099981695e-07
148 3 5.03707 25.0624 2.79288 -1.2 0.003139827106675674 7.863459526320527e-06 0.9968508972399588 1.85342982616413e-13 1.4121936478342867e-06
149 1 -0.727559 23.7863 4.4844 1.2 6.920633429608482e-05 9.01981234055497e-08 0.9999304198653413 2.2222069828584106e-11 2.8358001611051007e-07
150 2 -2.5277 26.4704 4.4844 2.4 0.00045531036123192724 2.593976692492068e-07 0.9995443457449125 1.216859487354207e-11 8.448401916461415e-08
151 3 -2.59107 24.8572 4.4844 -1.2 7.357486024392978e-05 1.6255164681296417e-07 0.9999260434444742 6.560749776699021e-14 2.1914357103756096e-07
152 3 1.09817 27.4445 4.4844 -1.2 0.003525841175225867 2.882159455943864e-06 0.9964652332738432 2.6227882163894575e-12 6.043388849289734e-06
153 3 -1.78784 27.1766 3.18632 -1.2 0.0019104634435285156 9.218840082711051e-07 0.9980880883255657 2.8493025055132953e-13 5.263466056224261e-07
154 3 -1.82343 27.1766 5.78248 -1.2 0.0014682767540337136 8.076941842678263e-08 0.9985310000558821 2.774468219252896e-12 6.424178930106929e-07
155 1 1.62435 26.1195 2.9896 1.2 0.005993435598947706 2.471267549878679e-06 0.9940009768144126 6.042531503724528e-13 3.1163184843822535e-06
156 1 4.43064 26.0782 4.4844 1.2 0.00015770011198951002 3.5081365177250626e-08 0.9998420701630857 2.1806992080599945e-11 1.9462175295738994e-07
157 2 2.61607 28.143 4.4844 2.4 0.003322129118726912 1.0368699232123084e-06 0.9966759891088091 9.821956874226541e-11 8.448043143856828e-07
158 3 2.63853 29.7563 4.4844 -1.2 0.00034947028836916947 1.2534493090292563e-07 0.9996492843650223 1.639086098296581e-12 1.1200000375224985e-06
159 3 -4.00841 27.169 4.4844 -1.2 0.0005316588768753404 7.870555047603363e-07 0.9994668259722909 9.12351647602534e-13 7.280944236915745e-07
160 3 3.3182 27.4369 3.18632 -1.2 0.010216178035209652 4.810568842871113e-06 0.9897755999688023 2.934433566422017e-13 3.4114268475661176e-06
161 1 1.66335 26.1195 0 1.2 0.04854951510016923 1.159967851918669e-05 0.9514319667051191 2.8205007311656976e-14 6.918516170657501e-06
162 3 3.28288 27.4369 5.78248 -1.2 0.0003037596681409624 1.329056245440552e-08 0.9996961176127401 3.909135501703834e-12 1.0942465218784304e-07
163 1 -1.18278 26.1608 1.4948 1.2 0.046506794406161574 1.3232335998131422e-05 0.9534726906393032 8.299246482741788e-14 7.282618459079688e-06
164 2 0.635424 24.0959 1.4948 2.4 0.007979665814362422 4.201208958900411e-06 0.9920161271972956 3.2660338769423397e-15 5.779383970326437e-09
165 3 0.617906 22.4827 1.4948 -1.2 0.017838446431178545 4.6621493279650104e-05 0.9821142224753403 1.133819801973604e-15 7.096002035455241e-07
166 3 7.25781 25.07 1.4948 -1.2 0.3892373841876517 0.00024650123155924264 0.6105053990945909 4.501951538682402e-16 1.0715486192974533e-05
167 3 -0.0337363 24.8021 0.196716 -1.2 0.04956286327800994 3.393388825766612e-05 0.9504015862591236 1.7150935814985304e-15 1.6165746033511377e-06
168 3 -0.0687235 24.8021 2.79288 -1.2 0.004471862859262811 1.59522860030226e-05 0.9955103031855135 2.0644696482316768e-13 1.8816690124252653e-06
169 1 6.82195 28.494 0 1.2 0.19563011814343884 3.711413304487511e-05 0.8042838975819981 2.0005927228524899e-13 4.887014131875076e-05
170 1 4.10106 33.2017 1.4948 1.2 0.7264325565631607 0.000265749268370437 0.27245450886428635 1.3153838271899762e-10 0.0008471851726419478
171 2 5.89839 30.5175 1.4948 2.4 0.9869430834923892 1.3164368337277914e-05 0.013042734876950388 9.613850610458322e-15 1.017262307155093e-06
172 3 5.96289 32.1308 1.4948 -1.2 0.9128137298672082 7.973939377402263e-05 0.08704225933770303 9.371685696344013e-14 6.427140122442584e-05
173 3 2.27266 29.5435 1.4948 -1.2 0.9740765588290421 0.00016592133303537627 0.02567114760806913 3.845608094005692e-15 8.637222985613574e-05
174 3 5.19102 29.8114 0.196716 -1.2 0.9678227197691534 2.0419906012697712e-05 0.03212917082605485 5.9483474921667e-15 2.7689498771687907e-05
175 1 6.78546 28.494 2.9896 1.2 0.01701941014796002 3.384720027696565e-06 0.9829708732744494 1.832076866643077e-12 6.3318557370042285e-06
176 3 5.16061 29.8114 2.79288 -1.2 0.07707013210884713 3.7560580088675763e-05 0.9228655963707496 3.0794123641899294e-12 2.6710937237937108e-05
177 1 -0.603205 28.5353 4.4844 1.2 0.0006046766447370379 2.151197145716047e-07 0.9993933773384741 1.1040629023049035e-10 1.7307866691449856e-06
178 2 -2.39877 31.2194 4.4844 2.4 0.0034947587341000357 1.1034239199605385e-06 0.9965022779973653 1.713523695987816e-10 1.8596732668758657e-06
179 3 -2.46483 29.6062 4.4844 -1.2 0.00012783128762472259 1.1770328495407964e-07 0.9998715434554697 1.5941838504593251e-12 5.075520269405914e-07
180 3 1.22864 32.1935 4.4844 -1.2 0.004456073361304051 4.725663520465768e-06 0.9955240817994689 4.1980847598441564e-11 1.5119133719731323e-05
181 3 -1.66032 31.9256 3.18632 -1.2 0.009713165350396308 2.756205800576129e-06 0.9902800463988753 8.488903309811491e-12 4.0320364392558e-06
182 3 -1.69072 31.9256 5.78248 -1.2 0.0006432236426684721 3.436348139532054e-08 0.9993562657337811 2.858234962397233e-11 4.762314841948298e-07
183 1 1.7499 30.8685 2.9896 1.2 0.12635015219161796 1.8912137213200032e-05 0.87356274787889 1.0416675866854177e-11 6.818778186788747e-05
184 1 4.55894 30.8272 4.4844 1.2 0.001677830109347021 9.530502646372834e-08 0.9983210211598911 1.94914158936133e-10 1.0532308260126017e-06
185 2 2.7476 32.892 4.4844 2.4 0.0059966212384872045 1.5200448168031175e-06 0.9939995851104765 3.8729368436562205e-10 2.273218930914542e-06
186 3 2.77235 34.5053 4.4844 -1.2 0.00018759112209913557 8.979182269850576e-08 0.9998111297264569 1.620596425261133e-11 1.1893434119997693e-06
187 3 -3.87837 31.918 4.4844 -1.2 0.0009163938084709722 8.85555502975289e-07 0.9990790176580745 1.6780186653723455e-11 3.702961173193167e-06
188 3 3.44611 32.1859 3.18632 -1.2 0.060239841015578034 1.2360687570386192e-05 0.9397246211528884 1.2332172809363618e-11 2.3177131637172427e-05
189 1 1.7837 30.8685 0 1.2 0.7812656577488009 7.2332232589388e-05 0.21834415921075817 4.4108087052269735e-13 0.00031785080740772564
190 3 3.41602 32.1859 5.78248 -1.2 0.00019013689512493908 1.8298141889073328e-08 0.9998096066351181 4.364342756177738e-11 2.3812797387057295e-07
191 1 -1.05984 30.9098 1.4948 1.2 0.8485589695439667 0.00011524381063943937 0.15106390734184533 1.5483809074084006e-12 0.0002618793019998575
192 2 0.755243 28.8449 1.4948 2.4 0.8915662617491138 1.4759631322336408e-05 0.10841872797984943 5.657276600963473e-15 2.506397100810668e-07
193 3 0.735127 27.2317 1.4948 -1.2 0.7745346809467255 0.00010274671509058205 0.22535078760597432 1.480052264524641e-15 1.1784732202906673e-05
194 3 7.37914 29.819 1.4948 -1.2 0.9440999496804905 0.00022374789730352168 0.05557705754340039 8.124210107934927e-15 9.924487879925128e-05
195 3 0.0850649 29.5511 0.196716 -1.2 0.7058862860854113 0.00011641668799532116 0.29395184636916977 7.477505203104769e-14 4.545085734348841e-05
196 3 0.0543974 29.5511 2.79288 -1.2 0.1533951886054944 7.07843402036621e-05 0.8465012157861298 1.8219351470676276e-12 3.281126635581157e-05
197 1 6.94543 33.243 0 1.2 0.8800168000116829 6.843092281965906e-05 0.11945137980233503 1.4682192766141763e-12 0.000463389261697262
198 1 4.23267 37.9507 1.4948 1.2 0.37583630114028027 0.00012857111580546538 0.6234656099035364 1.9941922882074816e-09 0.0005695158461866999
199 2 6.02709 35.2665 1.4948 2.4 0.9980960123569405 2.3255524051047217e-05 0.0018713004001953853 9.245842029307614e-14 9.431718724044852e-06
200 3 6.09339 36.8798 1.4948 -1.2 0.6065032588838449 0.00019361020313418825 0.3930409198698228 1.6646413035358823e-11 0.00026221102654605505
201 3 2.40018 34.2925 1.4948 -1.2 0.9566601897541245 0.0004896617280229378 0.04212085231139748 1.0718705275940263e-12 0.0007292962053812587
202 3 5.31645 34.5604 0.196716 -1.2 0.9878734478783575 3.524515981661289e-05 0.011902967156405252 1.5155956782441008e-13 0.00018833980527160636
203 1 6.91449 33.243 2.9896 1.2 0.08967252283874982 1.3931115937161655e-05 0.9102430597987942 1.3281312365336368e-10 7.04861137112108e-05
204 3 5.291 34.5604 2.79288 -1.2 0.0516728304072063 4.716255759417407e-05 0.9482114725591995 6.300935071540853e-11 6.853441299651775e-05
205 1 -0.471101 33.2843 4.4844 1.2 0.007892002219660285 1.243227507956331e-06 0.9920946890358024 8.603269280138938e-10 1.2064656704841333e-05
206 2 -2.26307 35.9684 4.4844 2.4 0.0004818523801861271 5.019837797338114e-07 0.9995139547218032 5.5915781660312624e-09 3.6853226582861586e-06
207 3 -2.33122 34.3552 4.4844 -1.2 0.0002026391272255719 1.389491736030393e-07 0.9997960628302566 2.418866540618767e-11 1.159069150385257e-06
208 3 1.36549 36.9425 4.4844 -1.2 0.00021313587277430951 4.320134372701108e-07 0.9997823761530432 1.0952467927905395e-10 4.055851215395603e-06
209 3 -1.52658 36.6746 3.18632 -1.2 0.006175980819215439 3.8110966988743658e-06 0.9938104154335359 1.296116365193549e-10 9.792520935311981e-06
210 3 -1.55122 36.6746 5.78248 -1.2 0.00018819249183801815 1.3681111347949315e-08 0.9998114938916427 1.2444648064626047e-10 2.998109616910062e-07
211 1 1.882 35.6175 2.9896 1.2 0.07010337841667018 1.6272915168084567e-05 0.9298091968043787 2.280659805171191e-10 7.115163572132372e-05