ITEM: TIMESTEP
11600
ITEM: NUMBER OF ATOMS
10500
ITEM: BOX BOUNDS xy xz yz pp pp pp
0	15.2977	5.09925
0	118.725	0
0	89.688	0
ITEM: ATOMS id type xu yu zu q pCrystal pDisloC pSF pDisloB pDisloA
1 1 6.2404 -6.37941e-06 0 1.2 3.1064759314990253e-16 2.253201799211789e-12 0.9999998443485062 1.5563353333487668e-07 1.57127491512005e-11
2 1 3.46349 4.70768 1.4948 1.2 3.3096038496564587e-10 1.911656063237822e-08 0.9999999550699253 2.5376244200079175e-08 1.0630350882883256e-10
3 2 5.2885 2.02354 1.4948 2.4 2.2492923660204707e-13 3.3722545391766964e-10 0.9999999938576565 5.801848998383115e-09 3.0384639948305907e-12
4 3 5.33628 3.63678 1.4948 -1.2 4.731272082135351e-10 2.929564751666296e-08 0.9999999637217207 3.609247997199335e-09 2.900249857107288e-09
5 3 1.67294 1.04952 1.4948 -1.2 2.2478816568297514e-13 1.4284012226775834e-09 0.9999998672824918 1.3099672328648644e-07 2.9216513023953145e-10
6 3 4.59532 1.31737 0.196716 -1.2 2.7592300126555795e-14 4.2088439380032195e-10 0.9999999462809811 5.317255561348146e-08 1.2554652936596368e-10
7 1 6.18956 -6.37941e-06 2.9896 1.2 4.757213827231354e-16 8.565777713663806e-11 0.9999982975334657 1.7017860052088602e-06 5.948770097711348e-10
8 3 4.55118 1.31737 2.79288 -1.2 3.7869649682547404e-16 1.2288742335667217e-11 0.999999093664654 9.062707786159162e-07 5.2281669854754155e-11
9 1 -1.20682 0.0413099 4.4844 1.2 1.2320094528828748e-15 6.37825286887044e-11 0.9999685257088723 3.147398710135247e-05 2.4024607228091956e-10
10 2 -3.0337 2.72544 4.4844 2.4 1.3222020443925351e-11 7.681609467798103e-08 0.9999758698255046 2.4040157070381614e-05 1.3188114766378105e-08
11 3 -3.08099 1.11221 4.4844 -1.2 4.353392134483912e-15 2.46687727704944e-10 0.9999796944911338 2.030474940028798e-05 5.127741326122743e-10
12 3 0.582463 3.69946 4.4844 -1.2 4.111963848686698e-12 7.132276508434197e-10 0.9999936043008719 6.387768056627892e-06 7.213733138904649e-09
13 3 -2.29524 3.43162 3.18632 -1.2 1.1207876776976174e-10 1.774495716140742e-08 0.9999997542637278 2.2304305572504901e-07 4.836183012627287e-09
14 3 -2.34216 3.43162 5.78248 -1.2 9.737607521178814e-12 8.220267125287493e-10 0.9999584229764495 4.1565124467332246e-05 1.1067318148136043e-08
15 1 1.12778 2.37449 2.9896 1.2 3.709467417428196e-13 1.3867602601749535e-09 0.9999944963644757 5.501975199291832e-06 2.7318993650753805e-10
16 1 3.92855 2.33318 4.4844 1.2 1.2324810683424011e-14 8.63867314368416e-11 0.9999466329151867 5.336650478998229e-05 4.936295359782432e-10
17 2 2.09341 4.39804 4.4844 2.4 1.9892354376192848e-12 5.143817122797838e-09 0.9999918540618995 8.140413475981874e-06 3.7881618930308925e-10
18 3 2.09991 6.01128 4.4844 -1.2 1.9100497919877276e-09 1.0105339767666475e-08 0.9999999645724535 1.6088030734756293e-08 7.324131070662336e-09
19 3 -4.52137 3.42402 4.4844 -1.2 3.3751181884457522e-12 1.8347998176981335e-09 0.9999939068038699 6.079527167391097e-06 1.1830786769363738e-08
20 3 2.80834 3.69187 3.18632 -1.2 3.1591036388651176e-12 8.259967583650625e-10 0.9999999353374583 6.36543227316127e-08 1.7906559712407365e-10
21 1 1.17857 2.37449 0 1.2 1.6158428257365788e-14 2.508224393544561e-10 0.9999997069396759 2.927274078102396e-07 8.207148913693482e-11
22 3 2.76143 3.69187 5.78248 -1.2 1.4430979876149532e-13 4.085716158868543e-11 0.9999683521230763 3.164669539694991e-05 1.140519663474592e-09
23 1 -1.67381 2.41581 1.4948 1.2 1.2034757738311376e-10 2.366281419686643e-08 0.9999988122497802 1.1626490629131163e-06 1.3179915009086999e-09
24 2 0.16286 0.350945 1.4948 2.4 2.582088688764361e-13 1.5085018358601153e-09 0.9999993149856224 6.833555768247139e-07 1.500395332860216e-10
25 3 0.15972 -1.26229 1.4948 -1.2 5.857609438470313e-12 1.4641676489732426e-08 0.9999998435949047 1.3725370296570332e-07 4.503858350844271e-09
26 3 6.77654 1.32496 1.4948 -1.2 1.4707382352983207e-12 4.73720761547149e-09 0.9999999567573079 3.562572284594355e-08 2.878290913077633e-09
27 3 -0.508028 1.05712 0.196716 -1.2 4.220800303590425e-14 9.196919893772448e-10 0.999999733447261 2.651765590742888e-07 4.564504423488506e-10
28 3 -0.552171 1.05712 2.79288 -1.2 1.3006910083099704e-13 7.648951440482057e-10 0.9999973514927064 2.6454798783271537e-06 2.2623908782156493e-09
29 1 6.31713 4.74899 0 1.2 2.9687327140786395e-10 2.889245975923149e-08 0.9999999456203327 2.495847706307444e-08 2.3186027754364296e-10
30 1 3.54847 9.45668 1.4948 1.2 3.766442270678363e-05 2.7280276519507786e-07 0.9999619869921945 2.8131682282789127e-11 7.575420725826065e-08
31 2 5.36879 6.77254 1.4948 2.4 1.8405199527233777e-06 3.086474202080756e-06 0.9999950083244427 7.138600062493512e-11 6.461002220428953e-08
32 3 5.41937 8.38578 1.4948 -1.2 0.0007190939129758121 3.3713918988493425e-05 0.999245104029307 3.317089720318101e-13 2.088138394404681e-06
33 3 1.75158 5.79852 1.4948 -1.2 3.877426793857662e-06 5.942781122672768e-06 0.999990006490448 3.379195615565045e-11 1.732678432324039e-07
34 3 4.67421 6.06637 0.196716 -1.2 5.0426955623996144e-08 3.1174163960088266e-07 0.9999996350785905 2.1112602012124123e-11 2.731701912164895e-09
35 1 6.26654 4.74899 2.9896 1.2 2.7790054480451286e-10 1.7289875723669042e-08 0.999999679151637 2.980300319388446e-07 5.250561112946824e-09
36 3 4.63043 6.06637 2.79288 -1.2 4.223502476066406e-08 1.3657852399186678e-07 0.999999795546763 1.8993232042033503e-09 2.3740361780980093e-08
37 1 -1.12976 4.79031 4.4844 1.2 1.4991760087365808e-10 9.339479068805148e-10 0.9999967403285389 3.257486329392778e-06 1.101269010787741e-09
38 2 -2.9517 7.47444 4.4844 2.4 9.367101225582866e-09 1.7502870446927204e-07 0.9999957254565982 3.6848205077286404e-07 3.721665544121782e-06
39 3 -3.00198 5.86121 4.4844 -1.2 4.314017267337703e-10 1.3597045289283785e-09 0.9999999438857843 5.0516949269167895e-08 3.806165730278505e-09
40 3 0.666315 8.44846 4.4844 -1.2 3.438774276932031e-07 4.328991406062282e-07 0.9999975026874982 6.746501345158329e-10 1.71986128378938e-06
41 3 -2.21213 8.18062 3.18632 -1.2 8.704097275023014e-07 1.3806102400111648e-07 0.9999988286926577 2.813283571670648e-11 1.6280845620939808e-07
42 3 -2.25864 8.18062 5.78248 -1.2 3.4903922712030005e-08 5.639196948874648e-09 0.9999994675870166 9.295539245182304e-09 4.825743315352226e-07
43 1 1.20893 7.12349 2.9896 1.2 1.8332408578047185e-07 1.8280092605375432e-07 0.99999960646469 3.983809513157436e-09 2.342649284393882e-08
44 1 4.00982 7.08218 4.4844 1.2 3.370412631921984e-08 1.756424351475641e-08 0.9999998560486137 3.6487872802001984e-08 5.619513695241508e-08
45 2 2.17861 9.14704 4.4844 2.4 2.893578114316823e-06 2.0575042249027557e-06 0.9999899864443905 9.934326367308778e-09 5.052538944788498e-06
46 3 2.18828 10.7603 4.4844 -1.2 1.0776793963181458e-05 2.0239004235583314e-07 0.9999880665216035 1.7461144559426118e-11 9.542769229913257e-07
47 3 -4.43805 8.17302 4.4844 -1.2 4.81083178797422e-08 7.745847921584468e-08 0.999999224667507 6.79088215027058e-10 6.490866115946778e-07
48 3 2.89193 8.44087 3.18632 -1.2 3.3473389273749954e-06 3.0178602157929374e-07 0.9999960524034506 1.2101778361822283e-10 2.983505881515217e-07
49 1 1.25915 7.12349 0 1.2 3.6742521173466825e-07 2.983921229899474e-07 0.9999993307430765 3.445584546788931e-10 3.0950374111981078e-09
50 3 2.84547 8.44087 5.78248 -1.2 4.0802408221432215e-08 8.982824378283925e-09 0.9999995869372356 5.133526637971473e-09 3.5814399893512114e-07
51 1 -1.59284 7.16481 1.4948 1.2 1.2539279918295186e-06 4.023543397850843e-07 0.9999983218404805 2.5717755905106323e-10 2.1620006659692476e-08
52 2 0.240329 5.09994 1.4948 2.4 2.017269595809417e-09 8.447484303363436e-08 0.9999999113009647 2.1709368618240052e-09 3.598576798622152e-11
53 3 0.234538 3.48671 1.4948 -1.2 3.030366109470553e-11 1.6736884387304815e-08 0.9999999745205063 7.280577652357777e-09 1.4317228658629067e-09
54 3 6.85564 6.07396 1.4948 -1.2 4.985672944031104e-07 2.0115239776845028e-06 0.9999973008453699 7.677662110771431e-11 1.8898657597367649e-07
55 3 -0.429565 5.80612 0.196716 -1.2 6.267863337322745e-09 5.155790902747808e-08 0.9999999417182169 1.0226963018776105e-10 3.537477499138079e-10
56 3 -0.473377 5.80612 2.79288 -1.2 3.6968647986664855e-09 9.539160911606026e-09 0.999999980321775 4.423261935397978e-09 2.0189303194311847e-09
57 1 6.40169 9.49799 0 1.2 0.00012333546290563006 1.0590070412926035e-06 0.9998754712675523 3.0932427141072953e-12 1.3425940276804285e-07
58 1 3.64209 14.2057 1.4948 1.2 0.00022689171647251823 3.5514482727659906e-07 0.9997725798468063 8.239861818578961e-13 1.7329107265441592e-07
59 2 5.45748 11.5215 1.4948 2.4 0.0018824800753059242 9.546981250060953e-06 0.9981078295148882 5.5760311392946266e-14 1.434284942685247e-07
60 3 5.51101 13.1348 1.4948 -1.2 0.018741357896762758 6.582876609973064e-05 0.9811868389783225 1.3806729090349641e-14 5.97435879848728e-06
61 3 1.83851 10.5475 1.4948 -1.2 0.0036045517609831876 8.093453658365804e-06 0.996386121355773 2.6569177756071303e-14 1.2334295578088405e-06
62 3 4.7611 10.8154 0.196716 -1.2 0.0009195688139756154 6.820346753276875e-06 0.9990732573539783 6.133075893042744e-14 3.5348523180009095e-07
63 1 6.35203 9.49799 2.9896 1.2 3.6135809053358866e-05 2.1370422443202987e-06 0.9999609621069804 9.028927198868743e-11 7.64951430566561e-07
64 3 4.71833 10.8154 2.79288 -1.2 8.485720942919468e-05 1.412005406564854e-06 0.9999127793583054 5.307497215028208e-12 9.514215547549695e-07
65 1 -1.0438 9.53931 4.4844 1.2 2.4163031872392155e-06 7.20105646491082e-08 0.9999971221588652 5.632322139296493e-09 3.8389506362972524e-07
66 2 -2.8604 12.2234 4.4844 2.4 6.989487942281908e-06 1.2888202834536887e-06 0.9999888694906071 9.77446570959905e-10 2.8512237138297622e-06
67 3 -2.91391 10.6102 4.4844 -1.2 1.0250610887981548e-05 2.4744325782968614e-07 0.9999887797309064 7.619226409156792e-12 7.222073316874304e-07
68 3 0.7596 13.1975 4.4844 -1.2 1.4756944436107144e-05 1.123564182706194e-06 0.9999824290618715 2.939470487130695e-11 1.690400110822913e-06
69 3 -2.12001 12.9296 3.18632 -1.2 0.00013470036512013077 1.1850719084200545e-06 0.9998630869706276 1.658571905124767e-12 1.0275906858452274e-06
70 3 -2.16532 12.9296 5.78248 -1.2 2.6876304783601523e-05 1.405057388385053e-07 0.9999709578832727 1.231796573526643e-10 2.025183023745886e-06
71 1 1.29891 11.8725 2.9896 1.2 9.07686686771383e-05 1.065439628588725e-06 0.9999072369311334 2.578774046579593e-11 9.289347799233955e-07
72 1 4.10033 11.8312 4.4844 1.2 3.7361536635454136e-05 1.2877393011799476e-07 0.9999605372045081 1.6855621864838975e-09 1.970799362466324e-06
73 2 2.27333 13.896 4.4844 2.4 6.836769273344559e-05 2.513357655187152e-06 0.9999253642729685 2.66777051902635e-10 3.7544098720840983e-06
74 3 2.28634 15.5093 4.4844 -1.2 7.358248806064238e-05 3.3986755578961773e-07 0.9999253875362916 3.9603697577758236e-13 6.90107695524468e-07
75 3 -4.34533 12.922 4.4844 -1.2 4.433625893831183e-06 2.290701878966765e-07 0.9999942673006685 4.4006155814070383e-11 1.0699592372397437e-06
76 3 2.98455 13.1899 3.18632 -1.2 0.00011882834542402575 1.49585986588688e-06 0.9998783343259303 3.1517489399324962e-12 1.341465626014101e-06
77 1 1.34779 11.8725 0 1.2 0.000569439615893012 1.1520146009609652e-06 0.9994290276395984 8.496106313920001e-13 3.807290520943682e-07
78 3 2.93934 13.1899 5.78248 -1.2 9.790188234559607e-06 4.449404323123524e-08 0.9999894412918678 9.765373231256828e-11 7.23928197553836e-07
79 1 -1.50344 11.9138 1.4948 1.2 0.0003247726878350435 1.0472834284083067e-06 0.9996738562234989 1.1731512202972066e-12 3.23804067709676e-07
80 2 0.326006 9.84894 1.4948 2.4 0.00021461600259067875 2.0763605862538356e-06 0.9997832814860484 7.345796008717553e-14 2.6150698956646948e-08
81 3 0.317364 8.23571 1.4948 -1.2 0.00023062956975632178 5.466379912797769e-06 0.9997635299843827 1.5957867876821296e-12 3.7406434628347794e-07
82 3 6.94307 10.823 1.4948 -1.2 0.0036096442321080424 2.3066688070095972e-05 0.9963655679237827 2.9028382851324696e-14 1.7211560097245062e-06
83 3 -0.343122 10.5551 0.196716 -1.2 0.00020987082905164612 1.7523612911030407e-06 0.9997882865867295 6.865288564768625e-14 9.022286615886015e-08
84 3 -0.385966 10.5551 2.79288 -1.2 5.680505696667677e-05 6.94681265675466e-07 0.9999420590524423 1.3238647709202028e-11 4.4119608371540454e-07
85 1 6.49448 14.247 0 1.2 0.0015308679443898166 6.944603441836013e-07 0.9984680603128753 7.173577000101644e-14 3.7728232480340335e-07
86 1 3.74457 18.9547 1.4948 1.2 6.59829544435163e-05 1.1690811319753983e-07 0.9999338693193556 2.2083594924684958e-13 3.081786304165076e-08
87 2 5.55495 16.2705 1.4948 2.4 0.0010368516525250486 3.367841239123961e-06 0.9989597700904299 2.270242324502297e-15 1.041579687518667e-08
88 3 5.6115 17.8838 1.4948 -1.2 0.007321235836843553 2.267944725819601e-05 0.9926555779507485 1.1244502314860314e-15 5.067651456591429e-07
89 3 1.93416 15.2965 1.4948 -1.2 0.01297987812779746 1.5600439409255492e-05 0.987003506146593 1.2404271751653973e-15 1.0152861978720217e-06
90 3 4.85636 15.5644 0.196716 -1.2 0.011197183846937861 1.2690002115264034e-05 0.988789592702789 2.762551782670264e-15 5.334481544687167e-07
91 1 6.44662 14.247 2.9896 1.2 0.00017615049715356766 1.26241491934101e-06 0.9998216174606327 6.532651991123197e-12 9.696207604439394e-07
92 3 4.81537 15.5644 2.79288 -1.2 0.0007491133982736446 5.400305077481729e-06 0.9992440892283254 5.59292748203853e-13 1.3970677591912456e-06
93 1 -0.948271 14.2883 4.4844 1.2 1.7611664054052277e-05 1.4751183866516941e-07 0.9999812710260007 6.264067622803055e-10 9.691716968402878e-07
94 2 -2.75928 16.9724 4.4844 2.4 0.00011049969870366039 1.6577833035102596e-06 0.9998873299814864 2.6033180274894768e-11 5.125104700517729e-07
95 3 -2.81617 15.3592 4.4844 -1.2 2.67865826182131e-05 2.531552802257013e-07 0.9999723507733795 1.1431371819289718e-12 6.094875825880827e-07
96 3 0.862762 17.9465 4.4844 -1.2 3.728258158421453e-05 6.352010474300203e-07 0.9999616550210138 2.214719691362625e-12 4.271941338279021e-07
97 3 -2.0185 17.6786 3.18632 -1.2 0.0001458961987134073 7.022550435043652e-07 0.999853267521721 7.050156269175422e-14 1.3402445075595888e-07
98 3 -2.06164 17.6786 5.78248 -1.2 0.00019280669791864942 2.222239962734984e-07 0.9998054549581905 1.1883573631534009e-11 1.5161080091498496e-06
99 1 1.39817 16.6215 2.9896 1.2 0.00015339583327481521 1.1364286711368735e-06 0.9998448634101407 2.562204791494896e-12 6.043253581699647e-07
100 1 4.20062 16.5802 4.4844 1.2 2.322313239602888e-05 6.50836283288014e-08 0.9999763086101107 1.8375470221937078e-10 4.029901120258167e-07
101 2 2.37796 18.645 4.4844 2.4 9.207595427234211e-05 4.1644925547601303e-07 0.99990739892907 9.024386192905117e-12 1.0865837687808227e-07
102 3 2.39434 20.2583 4.4844 -1.2 0.0001018925190322305 1.443364839912611e-07 0.999897763249259 7.519674828457514e-14 1.9989515375489705e-07
103 3 -4.24274 17.671 4.4844 -1.2 2.4085053603563205e-05 4.633375698361691e-07 0.999975087206841 3.5638682630576947e-12 3.6439842427595164e-07
104 3 3.08659 17.9389 3.18632 -1.2 9.515447653053922e-05 9.292956640756923e-07 0.9999037003907071 3.3721592221415846e-13 2.158367544749692e-07
105 1 1.44478 16.6215 0 1.2 0.001939834191482822 4.580916917427518e-07 0.9980593425764195 5.944506967529076e-14 3.651403519351233e-07
106 3 3.0436 17.9389 5.78248 -1.2 8.85443237832384e-05 4.4571514237849056e-08 0.9999110574071679 2.132947207200044e-11 3.5367620429200357e-07
107 1 -1.40524 16.6628 1.4948 1.2 0.0008658544423355725 8.769084768227407e-07 0.9991329587960859 7.02707969421498e-14 3.0985303792722896e-07
108 2 0.420358 14.5979 1.4948 2.4 0.0026251393786012995 5.847611723999468e-06 0.9973689708521325 1.4148952887557572e-14 4.215752222541673e-08
109 3 0.408732 12.9847 1.4948 -1.2 0.0164850214815456 3.4426653134002176e-05 0.9834784374474048 1.114643310266152e-14 2.114417909337963e-06
110 3 7.03923 15.572 1.4948 -1.2 0.017972209877753303 4.477816792805671e-05 0.9819810811002577 1.802239311322146e-15 1.9308540635595897e-06
111 3 -0.248332 15.3041 0.196716 -1.2 0.003444700819588504 8.972778587610415e-06 0.9965459831693105 9.672906139935224e-15 3.432324998867681e-07
112 3 -0.289436 15.3041 2.79288 -1.2 0.0007195724571837653 5.669302064069186e-06 0.9992734748767623 1.3452132638976547e-12 1.283362646982925e-06
113 1 6.59566 18.996 0 1.2 0.0005122787208273502 9.248715826824067e-08 0.999487578271625 3.1706424381668207e-15 5.052038213401648e-08
114 1 3.85574 23.7037 1.4948 1.2 0.0015776828495165274 8.362170467438058e-07 0.9984211551125872 2.4933931630581653e-13 3.258205993406577e-07
115 2 5.66125 21.0195 1.4948 2.4 0.0028340517010742748 2.0329599968786845e-06 0.9971639116102583 1.0114211979204313e-15 3.728663496717886e-09
116 3 5.72074 22.6328 1.4948 -1.2 0.03147165417587496 3.668961448304146e-05 0.9684907923262427 1.5023434047217014e-15 8.638833990349963e-07
117 3 2.03867 20.0455 1.4948 -1.2 0.016220328383055288 1.5212831679129202e-05 0.9837639621876367 1.7830322386092091e-16 4.965976237810103e-07
118 3 4.96004 20.3134 0.196716 -1.2 0.005940321221478995 3.7322344281246193e-06 0.9940558363990752 4.1059389969884897e-16 1.1014501310146358e-07
119 1 6.55057 18.996 2.9896 1.2 8.560224652445604e-05 2.536377069897064e-07 0.9999140267428673 4.668205475630387e-13 1.1737242894184648e-07
120 3 4.92172 20.3134 2.79288 -1.2 0.00039166171237992145 2.4545584625750312e-06 0.9996056609782967 1.2455796312507476e-13 2.2275073242237283e-07
121 1 -0.84282 19.0373 4.4844 1.2 2.68657707396285e-05 9.851364001461792e-08 0.9999727355570908 7.606768836308902e-11 3.000824579542192e-07
122 2 -2.64823 21.7214 4.4844 2.4 0.00010306940035819104 3.471001605041692e-07 0.9998965356010037 4.781475962639596e-12 4.789369803108007e-08
123 3 -2.70847 20.1082 4.4844 -1.2 2.1851033439773175e-05 9.570248894433688e-08 0.9999779757022242 1.8766354452319502e-13 7.756166582314349e-08
124 3 0.97581 22.6955 4.4844 -1.2 0.00015406192628015264 1.0236469323902141e-06 0.9998443512261174 2.5217090053858663e-12 5.631981460666296e-07
125 3 -1.9076 22.4276 3.18632 -1.2 0.0004829999054569454 5.291976066809443e-07 0.9995163442589823 5.601109273812844e-14 1.2663790200352952e-07
126 3 -1.9475 22.4276 5.78248 -1.2 0.0003094083183573485 7.13559278359817e-08 0.9996898019183482 1.7003954335524982e-11 7.183903607028385e-07
127 1 1.50678 21.3705 2.9896 1.2 0.0002534506092979261 6.899556700275618e-07 0.9997455164048922 6.792673373936714e-13 3.430294549274761e-07
128 1 4.31086 21.3292 4.4844 1.2 3.7909476909969956e-05 2.2275613051405797e-08 0.9999619665481705 5.393783808693021e-11 1.0164536747639719e-07
129 2 2.49243 23.394 4.4844 2.4 0.00025518023516762396 6.42374845671565e-07 0.9997440364388562 1.7163705448144444e-11 1.4093397016459892e-07
130 3 2.51204 25.0073 4.4844 -1.2 0.00010229379031444345 1.4026781216956229e-07 0.9998971220203525 3.3011598472481603e-13 4.4392119029469605e-07
131 3 -4.13026 22.42 4.4844 -1.2 3.9274421274591577e-05 2.901464066270908e-07 0.9999602740234195 1.5026948180597845e-12 1.6140740151787055e-07
132 3 3.19799 22.6879 3.18632 -1.2 0.0004456842070005654 1.4227919313763774e-06 0.9995527183848026 7.280957652559687e-14 1.7461619458982228e-07
133 1 1.5501 21.3705 0 1.2 0.0018498458217273723 3.304932378108137e-07 0.9981496653361714 7.444705803358644e-15 1.5834886002413687e-07
134 3 3.1583 22.6879 5.78248 -1.2 0.00012764288627651205 2.0971353616221505e-08 0.9998721548694316 1.5427148316709992e-11 1.812575129296357e-07
135 1 -1.29822 21.4118 1.4948 1.2 0.0007419150064005139 7.117945231630187e-07 0.9992572309050752 1.628648897308032e-14 1.422939904128543e-07
136 2 0.523568 19.3469 1.4948 2.4 0.0006736600152263542 2.3440486246130127e-06 0.9993239940331383 2.166892061569913e-15 1.903009884103866e-09
137 3 0.508934 17.7337 1.4948 -1.2 0.004855956604301814 2.3626444272538724e-05 0.9951200666141102 1.6649810786251151e-15 3.5033730799198625e-07
138 3 7.14425 20.321 1.4948 -1.2 0.011600823254015381 2.3378447191746455e-05 0.9883754495560413 1.314956846263523e-16 3.4874274592956513e-07
139 3 -0.145107 20.0531 0.196716 -1.2 0.0024949636617419796 7.293293274841584e-06 0.9974976450259001 1.6691467752637406e-15 9.801908607091854e-08
140 3 -0.183601 20.0531 2.79288 -1.2 0.0010407468344948146 4.288626824956054e-06 0.9989547262379445 4.7836930756826253e-14 2.3830068224285977e-07
141 1 6.70502 23.745 0 1.2 0.006940866378258574 1.266028735822792e-06 0.9930571925384715 4.922170957745376e-15 6.750545301669286e-07
142 1 3.97493 28.4527 1.4948 1.2 0.2973792391361831 2.6151140041427555e-05 0.7025555279623453 2.4503758466894494e-12 3.9081758973584394e-05
143 2 5.77602 25.7685 1.4948 2.4 0.37246552166548325 2.714390797957484e-05 0.6275070987884798 9.420853485352475e-15 2.356380418189435e-07
144 3 5.83821 27.3818 1.4948 -1.2 0.7973439181557435 9.285218802723384e-05 0.20254701576097697 2.892605611005431e-15 1.6213895244549732e-05
145 3 2.15175 24.7945 1.4948 -1.2 0.7360300772857592 0.0001277072023515163 0.2638318884554928 2.450521728984284e-16 1.0327056400410717e-05
146 3 5.07184 25.0624 0.196716 -1.2 0.36191434732048045 4.941469368036165e-05 0.6380312935675714 2.48851014703019e-15 4.9444182594516844e-06
147 1 6.66374 23.745 2.9896 1.2 0.0007234551988897643 7.794214456632115e-07 0.9992753255434569 5.92209058828185e-13 4.398356225895714e-07
148 3 5.03707 25.0624 2.79288 -1.2 0.002940836518996611 7.989040609156421e-06 0.9970493398592483 7.127168929564259e-13 1.8345804381183523e-06
149 1 -0.727559 23.7863 4.4844 1.2 8.198084092417391e-05 1.0343941605439098e-07 0.9999175931305957 5.4842155307128386e-11 3.2253422819792026e-07
150 2 -2.5277 26.4704 4.4844 2.4 0.001222499276924775 5.839672242363903e-07 0.9987766042528201 1.771078975015601e-11 3.1248532654274864e-07
151 3 -2.59107 24.8572 4.4844 -1.2 8.676819208428803e-05 1.2275325519302283e-07 0.9999128807576558 1.6546621448635026e-13 2.282968434836516e-07
152 3 1.09817 27.4445 4.4844 -1.2 0.005978577672881899 4.694041063187565e-06 0.9940057497070708 7.134156886799607e-12 1.0978571853611014e-05
153 3 -1.78784 27.1766 3.18632 -1.2 0.003257708481061265 1.3213314268534465e-06 0.9967398347592408 6.582689183593659e-13 1.1354276137584889e-06
154 3 -1.82343 27.1766 5.78248 -1.2 0.0009265173934307134 1.0982157806024098e-07 0.9990720450388194 1.642144089052803e-11 1.327729754019738e-06
155 1 1.62435 26.1195 2.9896 1.2 0.01227171239661003 2.1826400249261526e-06 0.9877228490751808 8.261991368559219e-13 3.2558873642235794e-06
156 1 4.43064 26.0782 4.4844 1.2 0.00030763233232245564 6.248589568843308e-08 0.9996919957888803 6.852505144523847e-11 3.09324380025728e-07
157 2 2.61607 28.143 4.4844 2.4 0.0037593144204267847 1.0426613745573213e-06 0.9962383168957987 9.377381285952077e-11 1.3259286215991956e-06
158 3 2.63853 29.7563 4.4844 -1.2 0.00033243934673750803 1.1163194855785681e-07 0.9996659728638666 3.1943877711127734e-12 1.476154246762422e-06
159 3 -4.00841 27.169 4.4844 -1.2 0.0010682996200443151 1.045068698194876e-06 0.9989290705995842 2.5660777217501017e-12 1.5847091059897287e-06
160 3 3.3182 27.4369 3.18632 -1.2 0.013519650095786758 4.50994648802942e-06 0.98647074103477 8.922510484315678e-13 5.0989220628414995e-06
161 1 1.66335 26.1195 0 1.2 0.11741685166467283 1.6655731777189414e-05 0.8825553493454038 2.284061418974556e-14 1.114325812881018e-05
162 3 3.28288 27.4369 5.78248 -1.2 0.0002972966500390971 2.338291029394103e-08 0.9997022962907055 2.221873456894463e-11 3.83654123438362e-07
163 1 -1.18278 26.1608 1.4948 1.2 0.06567493668789862 1.2389076500915646e-05 0.9343050067626324 1.2776936279906472e-13 7.66747283697959e-06
164 2 0.635424 24.0959 1.4948 2.4 0.010205463255591898 3.0223940857410824e-06 0.9897915101303404 2.661263042597335e-15 4.2199844060367665e-09
165 3 0.617906 22.4827 1.4948 -1.2 0.01956837944621207 2.786688716576574e-05 0.98040337019113 8.775734446247873e-16 3.8347549683995187e-07
166 3 7.25781 25.07 1.4948 -1.2 0.3799666908091778 0.0001569909487651049 0.6198681542781139 6.780702406570647e-16 8.163963941941257e-06
167 3 -0.0337363 24.8021 0.196716 -1.2 0.07833792283603551 2.7911116254730436e-05 0.9216327924434109 1.5140084535775617e-15 1.3736042984213432e-06
168 3 -0.0687235 24.8021 2.79288 -1.2 0.006159246745779391 1.7651156123287154e-05 0.9938206324114179 4.5333576661491385e-13 2.4696862234404715e-06
169 1 6.82195 28.494 0 1.2 0.2870195890793248 4.3377320062714764e-05 0.7128836837544484 1.9598763986199789e-13 5.334984597217192e-05
170 1 4.10106 33.2017 1.4948 1.2 0.7514435507332278 0.00023781105738651515 0.24755032644136318 1.0660880556303686e-10 0.0007683116614072731
171 2 5.89839 30.5175 1.4948 2.4 0.994724431396408 9.738473900060975e-06 0.005264672560474106 6.736883350527952e-15 1.15756921059527e-06
172 3 5.96289 32.1308 1.4948 -1.2 0.9282613515160475 8.676289079168635e-05 0.07157888632564852 1.2424289323944848e-13 7.299926738465485e-05
173 3 2.27266 29.5435 1.4948 -1.2 0.9872141203916899 0.0001103112127040165 0.012601658534917855 2.8085421046829474e-15 7.390986068790029e-05
174 3 5.19102 29.8114 0.196716 -1.2 0.9806554889502109 1.8538086257888416e-05 0.01930267841277486 2.981387699445916e-15 2.32945507525647e-05
175 1 6.78546 28.494 2.9896 1.2 0.03699653911862169 7.166478762612409e-06 0.962978375127015 5.718336418957276e-12 1.7919269877425944e-05
176 3 5.16061 29.8114 2.79288 -1.2 0.07566805386258346 3.999362803465807e-05 0.9242547362033164 7.031096327053412e-12 3.72162990282042e-05
177 1 -0.603205 28.5353 4.4844 1.2 0.0017319076520985592 3.8919653981366457e-07 0.9982630930833811 2.1834683218526608e-10 4.609849630703176e-06
178 2 -2.39877 31.2194 4.4844 2.4 0.004065163076074828 1.6416886938938214e-06 0.9959287964740346 4.2473619419053706e-10 4.39833646626207e-06
179 3 -2.46483 29.6062 4.4844 -1.2 0.00013281904974776751 1.1039192779275576e-07 0.9998661122607158 5.508864250450129e-12 9.58292096655338e-07
180 3 1.22864 32.1935 4.4844 -1.2 0.0036920055262156244 3.4815655004763057e-06 0.9962787776562164 7.56868373665945e-11 2.5735176382355627e-05
181 3 -1.66032 31.9256 3.18632 -1.2 0.015115701594207172 4.229326889285388e-06 0.9848717913345855 1.1787518272994646e-11 8.277732528507967e-06
182 3 -1.69072 31.9256 5.78248 -1.2 0.0008929947110015424 8.573986795125018e-08 0.9991055926884166 8.913571942792602e-11 1.3267715794286284e-06
183 1 1.7499 30.8685 2.9896 1.2 0.1308657216362432 1.8349559194390107e-05 0.8690187886196071 2.3280313486511592e-11 9.714016166817682e-05
184 1 4.55894 30.8272 4.4844 1.2 0.0038060809978964463 1.6389248569009395e-07 0.9961900295912666 4.028246647601422e-10 3.7251155240092963e-06
185 2 2.7476 32.892 4.4844 2.4 0.0038599579805260026 1.7299314195886884e-06 0.9961337795933104 2.5023980536012294e-09 4.529992351354451e-06
186 3 2.77235 34.5053 4.4844 -1.2 8.837344247333831e-05 7.352345611677261e-08 0.9999100305432065 5.3325109093507565e-11 1.5224375380291174e-06
187 3 -3.87837 31.918 4.4844 -1.2 0.0008774131363765704 9.477179152856573e-07 0.9991164618215466 3.833055810013661e-11 5.177285825244756e-06
188 3 3.44611 32.1859 3.18632 -1.2 0.04881440656682421 1.941767241575768e-05 0.9511271170096057 1.9611228661360722e-11 3.905873153953973e-05
189 1 1.7837 30.8685 0 1.2 0.8903728187824493 5.437301619388687e-05 0.10933707223075834 2.4168594604638044e-13 0.00023573597035290994
190 3 3.41602 32.1859 5.78248 -1.2 0.00041145446249142245 2.720295824962267e-08 0.9995879979627923 1.3339134958772564e-10 5.2023836927147e-07
191 1 -1.05984 30.9098 1.4948 1.2 0.8784571329264399 0.0001322447576354885 0.12108693337620414 1.912759087195271e-12 0.00032368893780528057
192 2 0.755243 28.8449 1.4948 2.4 0.9552531996064042 1.084837356142712e-05 0.04473573341503779 4.007319035861928e-15 2.186049978477861e-07
193 3 0.735127 27.2317 1.4948 -1.2 0.8692991949564826 7.208180798161723e-05 0.1306182492179461 1.4072642262641083e-15 1.047401758215832e-05
194 3 7.37914 29.819 1.4948 -1.2 0.959361384348 0.0001968556015900841 0.040339792860095695 7.738743290814937e-15 0.00010196719030358717
195 3 0.0850649 29.5511 0.196716 -1.2 0.8415533588159243 7.832103940790245e-05 0.1583314795488938 4.014122117878512e-14 3.684059573252119e-05
196 3 0.0543974 29.5511 2.79288 -1.2 0.22784090028036758 5.590586585954032e-05 0.7720671145331779 1.7572921723981726e-12 3.607931883785552e-05
197 1 6.94543 33.243 0 1.2 0.8755661934350591 8.526606713277499e-05 0.12387393111583163 1.654539837977296e-12 0.0004746093803172811
198 1 4.23267 37.9507 1.4948 1.2 0.33285952275553965 0.00014431258605725227 0.6665067004207993 2.4473109476461564e-09 0.0004894617902935902
199 2 6.02709 35.2665 1.4948 2.4 0.9960485094626353 2.9980756044781882e-05 0.003912987438400028 1.3717847586260981e-13 8.522342789533123e-06
200 3 6.09339 36.8798 1.4948 -1.2 0.4150147823353745 0.00012940469675773314 0.5847164388600355 1.9383041459032064e-11 0.0001393740884471293
201 3 2.40018 34.2925 1.4948 -1.2 0.9193410515447897 0.0005280400518185898 0.07931514642983489 2.08926963933378e-12 0.0008157619714634533
202 3 5.31645 34.5604 0.196716 -1.2 0.9807546285179126 4.6053393330596095e-05 0.019009401191250913 2.7621280553083587e-13 0.00018991689723253758
203 1 6.91449 33.243 2.9896 1.2 0.0806353028156049 1.6348643540932874e-05 0.9192642093849436 1.2702205278884755e-10 8.413902888844019e-05
204 3 5.291 34.5604 2.79288 -1.2 0.02547521500840787 3.469364975099712e-05 0.9744363191760226 1.0570489245269745e-10 5.3772060106668e-05
205 1 -0.471101 33.2843 4.4844 1.2 0.007032943796778195 1.5842066599735442e-06 0.9929474970551365 2.0714283275861277e-09 1.797286999235656e-05
206 2 -2.26307 35.9684 4.4844 2.4 0.0002675048939885635 5.694566005552247e-07 0.999726179288485 2.2266065176055282e-08 5.724094859563019e-06
207 3 -2.33122 34.3552 4.4844 -1.2 9.58275185738667e-05 1.0282133864685505e-07 0.9999028844537663 5.6289588330195665e-11 1.185150032651457e-06
208 3 1.36549 36.9425 4.4844 -1.2 6.275602879695688e-05 2.970573721283147e-07 0.9999345192379633 4.914585664372321e-10 2.4271844054198873e-06
209 3 -1.52658 36.6746 3.18632 -1.2 0.004048730707747889 2.934562675489283e-06 0.9959420132678327 2.2542179815092156e-10 6.321236326649172e-06
210 3 -1.55122 36.6746 5.78248 -1.2 3.8525832488896674e-05 1.0581873136418378e-08 0.9999612443020061 7.030636887429565e-10 2.1858056940300019e-07
211 1 1.882 35.6175 2.9896 1.2 0.037332207922934894 1.530639233560003e-05 0.9625952596869326 3.694079114930439e-10 5.722562838640963e-05