ITEM: TIMESTEP
10700
ITEM: NUMBER OF ATOMS
10500
ITEM: BOX BOUNDS xy xz yz pp pp pp
0	15.2974	5.099
0	118.725	0
0	89.688	0
ITEM: ATOMS id type xu yu zu q pCrystal pDisloC pDisloB pDisloA
1 1 6.2404 -6.37941e-06 0 1.2 1.4318048699014056e-20 3.5410382535721194e-09 0.9999999943440088 2.114953795055965e-09
2 1 3.46349 4.70768 1.4948 1.2 9.86074221973493e-07 0.028468860934699684 0.6084889120628806 0.3630412409282042
3 2 5.2885 2.02354 1.4948 2.4 1.529946590467798e-05 0.9970729529005669 0.00044885836875370455 0.002462889264776831
4 3 5.33628 3.63678 1.4948 -1.2 8.853471505085477e-11 0.9999785221256268 2.1470758455664365e-05 7.02737897915694e-09
5 3 1.67294 1.04952 1.4948 -1.2 3.5141397402046356e-17 0.9151344085605168 0.0848655740638997 1.737557835715063e-08
6 3 4.59532 1.31737 0.196716 -1.2 5.234290814247821e-18 0.7728701544436861 0.2271298443497655 1.2065431695334649e-09
7 1 6.18956 -6.37941e-06 2.9896 1.2 1.0898759974887557e-24 8.488486766349938e-09 0.9999999913507622 1.6074818194718331e-10
8 3 4.55118 1.31737 2.79288 -1.2 1.1017748661193325e-20 0.07502541714721297 0.9249745827805057 7.228408942088061e-11
9 1 -1.20682 0.0413099 4.4844 1.2 8.151508750372841e-27 4.442425762326811e-10 0.9999999995408615 1.4900100735095197e-11
10 2 -3.0337 2.72544 4.4844 2.4 4.522963450363553e-08 0.9990781706975996 7.560809737737798e-05 0.0008461759753861322
11 3 -3.08099 1.11221 4.4844 -1.2 6.280966904760026e-23 0.04602983641026686 0.9539701635861626 3.5650483383071674e-12
12 3 0.582463 3.69946 4.4844 -1.2 1.6825713118499777e-14 0.9972774101563693 0.002722585793110497 4.050505408070859e-09
13 3 -2.29524 3.43162 3.18632 -1.2 3.241349594548976e-13 0.9998229712387087 0.00017702633092300216 2.4300496139748374e-09
14 3 -2.34216 3.43162 5.78248 -1.2 5.929597787303601e-17 0.9776319419561541 0.022368057263909353 7.799336037837741e-10
15 1 1.12778 2.37449 2.9896 1.2 3.652469274074071e-18 9.48977322586837e-07 0.9999987923597091 2.5866296546369524e-07
16 1 3.92855 2.33318 4.4844 1.2 1.2883307949439596e-22 2.8660496822302488e-09 0.9999998939988245 1.031351272502824e-07
17 2 2.09341 4.39804 4.4844 2.4 0.75803105408986 0.24196727280040653 1.6447228221122207e-06 2.8386918054852853e-08
18 3 2.09991 6.01128 4.4844 -1.2 3.306503328427388e-07 0.9999991686932406 4.704934476059506e-07 3.0162975899005935e-08
19 3 -4.52137 3.42402 4.4844 -1.2 5.826919945384869e-16 0.9838812718347619 0.016118725831465123 2.3337694087155498e-09
20 3 2.80834 3.69187 3.18632 -1.2 1.1821547010972165e-14 0.9991505393586096 0.0008494602836214912 3.577584212256729e-10
21 1 1.17857 2.37449 0 1.2 3.016753410263544e-17 6.2994543072824905e-06 0.9999583564572687 3.534408841755781e-05
22 3 2.76143 3.69187 5.78248 -1.2 4.280797526236591e-18 0.9823768056901064 0.017623194176224537 1.3366459074123777e-10
23 1 -1.67381 2.41581 1.4948 1.2 1.3253645572700164e-09 0.010307241428518353 0.9785077999340139 0.01118495731211003
24 2 0.16286 0.350945 1.4948 2.4 2.3025912642127537e-08 0.5162439262487795 0.0011427029226222436 0.4826133478026879
25 3 0.15972 -1.26229 1.4948 -1.2 2.825646640842379e-15 0.9798017218839401 0.020197848424633277 4.2969142192012416e-07
26 3 6.77654 1.32496 1.4948 -1.2 8.809121505170642e-15 0.9948947532631518 0.005105172322887573 7.441395649993132e-08
27 3 -0.508028 1.05712 0.196716 -1.2 1.091357401697771e-18 0.41203794914008124 0.5879620332172476 1.7642674250336885e-08
28 3 -0.552171 1.05712 2.79288 -1.2 1.3728682527586265e-20 0.22645490640240012 0.7735450929231229 6.744750149203595e-10
29 1 6.31713 4.74899 0 1.2 5.826906662512317e-08 0.058540486903310304 0.7488988449789671 0.19256060984865958
30 1 3.54847 9.45668 1.4948 1.2 0.9501405769250022 0.04974241075983656 2.806069234036683e-15 0.00011701231515555913
31 2 5.36879 6.77254 1.4948 2.4 0.9999999981819343 1.8180595180715142e-09 1.5834212271321086e-24 1.9908721748721746e-22
32 3 5.41937 8.38578 1.4948 -1.2 0.9681760288700634 0.03182395046067735 4.4892311592050345e-17 2.0669264119206563e-08
33 3 1.75158 5.79852 1.4948 -1.2 0.0016642082740111008 0.9983350900624429 3.7651323462659037e-11 7.01625894311269e-07
34 3 4.67421 6.06637 0.196716 -1.2 4.786834311644518e-06 0.9999951721920876 3.2338224770857964e-08 8.635375037253357e-09
35 1 6.26654 4.74899 2.9896 1.2 1.3902494257164858e-07 0.0017912263561007313 0.09843113156665419 0.8997775030523035
36 3 4.63043 6.06637 2.79288 -1.2 2.5880463678314562e-06 0.9999973524161679 3.8776187593619343e-08 2.0761276833327628e-08
37 1 -1.12976 4.79031 4.4844 1.2 8.317788777720305e-09 4.2456188782346365e-05 0.9632140167582971 0.03674351873513243
38 2 -2.9517 7.47444 4.4844 2.4 0.9999999999932072 6.79182811736588e-12 4.447264553908021e-22 6.238023498674649e-24
39 3 -3.00198 5.86121 4.4844 -1.2 1.3093209255731662e-08 0.9999967292077003 3.251536448615967e-06 6.1626355388399695e-09
40 3 0.666315 8.44846 4.4844 -1.2 0.008114756380603164 0.9918848794552265 2.1785764062522324e-10 3.639463138703017e-07
41 3 -2.21213 8.18062 3.18632 -1.2 0.016003067449420587 0.9839968925837494 1.1254604022693682e-10 3.985427834430992e-08
42 3 -2.25864 8.18062 5.78248 -1.2 0.0013211642809613944 0.9986787621712228 2.6809829123446272e-09 7.086683809696852e-08
43 1 1.20893 7.12349 2.9896 1.2 0.14131567532077047 0.42609544194543686 7.353212649790671e-07 0.4325881474125301
44 1 4.00982 7.08218 4.4844 1.2 0.001365309453366151 0.0030552878842279654 0.0009290362125377284 0.9946503664498723
45 2 2.17861 9.14704 4.4844 2.4 1.0 4.453917526146956e-17 4.946774782947928e-31 1.2476752015396503e-32
46 3 2.18828 10.7603 4.4844 -1.2 0.9541925875669743 0.045807370297577095 1.0299665517881815e-15 4.213545441188027e-08
47 3 -4.43805 8.17302 4.4844 -1.2 0.0005239410935038541 0.9994759923598221 3.289028013038851e-08 3.365639094647242e-08
48 3 2.89193 8.44087 3.18632 -1.2 0.11462749615791377 0.8853722711114818 8.844193342365647e-12 2.3272176666719132e-07
49 1 1.25915 7.12349 0 1.2 0.1682325310989511 0.680402350642567 3.295946179431497e-07 0.15136478866386632
50 3 2.84547 8.44087 5.78248 -1.2 0.0018872628674998938 0.9981126374645239 1.86522190585253e-09 9.78027511321586e-08
51 1 -1.59284 7.16481 1.4948 1.2 0.23367752301936554 0.7109138259720352 4.333508777144723e-08 0.05540860767351251
52 2 0.240329 5.09994 1.4948 2.4 0.9998760102634644 0.00012398973580915283 2.1722442406146674e-16 7.219848486917449e-13
53 3 0.234538 3.48671 1.4948 -1.2 4.867487106208784e-12 0.9999590662732982 4.088401768133682e-05 4.970415441768536e-08
54 3 6.85564 6.07396 1.4948 -1.2 2.7565217887637892e-05 0.9999723219635729 1.3059085089614477e-09 1.1151262396311346e-07
55 3 -0.429565 5.80612 0.196716 -1.2 8.061428527199346e-07 0.99999911222687 7.66093742272867e-08 5.0209100026312195e-09
56 3 -0.473377 5.80612 2.79288 -1.2 2.6942345986922864e-07 0.9999993848260162 3.35255864786346e-07 1.0494659974561595e-08
57 1 6.40169 9.49799 0 1.2 0.9668096371807254 0.03318624765950666 1.6532796710746693e-15 4.115159766671879e-06
58 1 3.64209 14.2057 1.4948 1.2 0.9863030734684263 0.013694919438648945 5.3625749849939116e-20 2.007092929670245e-06
59 2 5.45748 11.5215 1.4948 2.4 1.0 1.1231342933320212e-15 1.2939118105064135e-38 2.579118059795914e-34
60 3 5.51101 13.1348 1.4948 -1.2 0.9997362976788118 0.00026370194415885914 3.830492508878851e-24 3.770250291092025e-10
61 3 1.83851 10.5475 1.4948 -1.2 0.9995124250062389 0.0004875745475696906 1.2855282570572e-21 4.461920440583309e-10
62 3 4.7611 10.8154 0.196716 -1.2 0.9935022733766065 0.006497725866114525 3.47339816086027e-18 7.5727885941837e-10
63 1 6.35203 9.49799 2.9896 1.2 0.9076390322399369 0.09089899878918967 3.4961976926760116e-14 0.0014619689708332475
64 3 4.71833 10.8154 2.79288 -1.2 0.9807142249402537 0.019285771509880954 2.1396593471848884e-16 3.549871942188448e-09
65 1 -1.0438 9.53931 4.4844 1.2 0.8744017464463569 0.05480140658332017 4.020610222690664e-10 0.07079684656826676
66 2 -2.8604 12.2234 4.4844 2.4 1.0 5.535493278911287e-19 1.7821095626693235e-34 2.0199556312021082e-36
67 3 -2.91391 10.6102 4.4844 -1.2 0.9191897610441787 0.08081019128466374 4.252493329609397e-15 4.7671155853644056e-08
68 3 0.7596 13.1975 4.4844 -1.2 0.8870072336597086 0.11299269548186211 1.7280193143564176e-15 7.085843309130485e-08
69 3 -2.12001 12.9296 3.18632 -1.2 0.983986761410276 0.016013233469247077 5.4704230322861025e-17 5.1204833793017324e-09
70 3 -2.16532 12.9296 5.78248 -1.2 0.9179801313111778 0.08201986631235125 1.3331776621194848e-15 2.376470007886458e-09
71 1 1.29891 11.8725 2.9896 1.2 0.96139175701543 0.0378314091524037 1.5447787861178084e-17 0.0007768338321673729
72 1 4.10033 11.8312 4.4844 1.2 0.9580926595841471 0.016194746604834605 1.6957206190793614e-13 0.025712593810843853
73 2 2.27333 13.896 4.4844 2.4 1.0 1.1428200773818435e-21 2.1717685429333192e-38 9.988468425294817e-39
74 3 2.28634 15.5093 4.4844 -1.2 0.9976992763809364 0.0023007224583151357 7.67205386864397e-19 1.1607506560273985e-09
75 3 -4.34533 12.922 4.4844 -1.2 0.5402302063677268 0.4597697272622955 3.0387301936760753e-13 6.63696758385328e-08
76 3 2.98455 13.1899 3.18632 -1.2 0.9853442736360849 0.01465572270358429 1.469387507221248e-16 3.660327886865483e-09
77 1 1.34779 11.8725 0 1.2 0.9837750659414011 0.016221655853813053 8.222021279339118e-19 3.27820478553435e-06
78 3 2.93934 13.1899 5.78248 -1.2 0.9718831170010058 0.02811688188703886 1.1498924236292707e-16 1.111954884129781e-09
79 1 -1.50344 11.9138 1.4948 1.2 0.9800370496119146 0.0199502746889322 1.037756986124959e-18 1.267569915485452e-05
80 2 0.326006 9.84894 1.4948 2.4 0.9999999999999858 1.141486322145622e-14 6.056391977981983e-36 2.5805873144461925e-33
81 3 0.317364 8.23571 1.4948 -1.2 0.8173318016353878 0.1826681300088869 1.492125077111833e-15 6.8355729208107e-08
82 3 6.94307 10.823 1.4948 -1.2 0.9987614606771268 0.0012385388507774268 2.5028559861673803e-21 4.720992371300792e-10
83 3 -0.343122 10.5551 0.196716 -1.2 0.9888610416153988 0.011138957476365492 1.9765078648599034e-17 9.082378841251343e-10
84 3 -0.385966 10.5551 2.79288 -1.2 0.9557427871662324 0.044257193313067586 1.4021449633424246e-15 1.9520697189488026e-08
85 1 6.49448 14.247 0 1.2 0.9927144435934625 0.007285541770865176 4.255925548562303e-22 1.4635673594230274e-08
86 1 3.74457 18.9547 1.4948 1.2 0.9781516269849513 0.02184701598357572 2.407441450381304e-19 1.3570314692737678e-06
87 2 5.55495 16.2705 1.4948 2.4 1.0 3.842125031640758e-16 2.4034644953914438e-40 1.5120451758756124e-34
88 3 5.6115 17.8838 1.4948 -1.2 0.9993493133716984 0.0006506865088253683 4.0228141223833275e-24 1.1947676791803416e-10
89 3 1.93416 15.2965 1.4948 -1.2 0.9998809177443426 0.00011908222606782938 1.1562978779350593e-24 2.958954971315149e-11
90 3 4.85636 15.5644 0.196716 -1.2 0.9988101936124603 0.0011898062132898915 2.773518810565409e-21 1.74245709727352e-10
91 1 6.44662 14.247 2.9896 1.2 0.9702862321672007 0.029601330938057523 6.59175463699214e-19 0.00011243689474240166
92 3 4.81537 15.5644 2.79288 -1.2 0.9978762454584014 0.0021237539136856505 3.9653244745749907e-19 6.279121617205535e-10
93 1 -0.948271 14.2883 4.4844 1.2 0.959490013295301 0.019310316196708262 6.710273034196627e-15 0.021199670507977875
94 2 -2.75928 16.9724 4.4844 2.4 1.0 1.9470064005849922e-22 7.959180242196582e-40 4.428644891910814e-39
95 3 -2.81617 15.3592 4.4844 -1.2 0.9928354506862206 0.00716454700253668 1.4133681295394595e-17 2.3112419763895813e-09
96 3 0.862762 17.9465 4.4844 -1.2 0.9544971101555785 0.04550288822759249 1.2182950436774644e-16 1.6168324881949858e-09
97 3 -2.0185 17.6786 3.18632 -1.2 0.9949544767437997 0.0050455230777593394 3.577820443812015e-18 1.784391515191965e-10
98 3 -2.06164 17.6786 5.78248 -1.2 0.9967610335945383 0.003238966394915063 3.6039154217914555e-19 1.0551482410373305e-11
99 1 1.39817 16.6215 2.9896 1.2 0.9757888991707706 0.024193039755251625 1.3235837327241913e-20 1.8061073978374766e-05
100 1 4.20062 16.5802 4.4844 1.2 0.9849107448978766 0.012212987570450548 6.451160942383513e-16 0.0028762675316697157
101 2 2.37796 18.645 4.4844 2.4 1.0 1.8849194516751778e-23 4.306036455332685e-40 9.338955106531238e-41
102 3 2.39434 20.2583 4.4844 -1.2 0.9978289126897706 0.0021710872760112403 5.585544990694997e-19 3.421293929276883e-11
103 3 -4.24274 17.671 4.4844 -1.2 0.9151488654030518 0.08485113227271084 5.75060357188263e-16 2.324232130306837e-09
104 3 3.08659 17.9389 3.18632 -1.2 0.9949824490703114 0.005017550718579403 6.794927010536859e-18 2.1110678531335572e-10
105 1 1.44478 16.6215 0 1.2 0.9834233010920991 0.016576633900400543 4.903297584099902e-22 6.500750712456768e-08
106 3 3.0436 17.9389 5.78248 -1.2 0.9913604005189194 0.008639599469118566 4.536734227897174e-18 1.1967784617357328e-11
107 1 -1.40524 16.6628 1.4948 1.2 0.9812740042365442 0.018725478531797627 1.6490527346821815e-21 5.172316581209682e-07
108 2 0.420358 14.5979 1.4948 2.4 1.0 6.49575714997366e-16 4.676186600328297e-39 2.481127116539873e-34
109 3 0.408732 12.9847 1.4948 -1.2 0.9994674292465872 0.0005325705899978286 1.0834365318758592e-22 1.6341153326141865e-10
110 3 7.03923 15.572 1.4948 -1.2 0.9997930409501761 0.00020695899733054896 2.6655896496033146e-24 5.248696583907908e-11
111 3 -0.248332 15.3041 0.196716 -1.2 0.9982595044037417 0.00174049540518427 8.371926617256464e-21 1.910705077176799e-10
112 3 -0.289436 15.3041 2.79288 -1.2 0.9986894769837947 0.0013105224884526487 6.576515620183718e-20 5.277553018076262e-10
113 1 6.59566 18.996 0 1.2 0.9850171008626362 0.014982897628034599 2.21231400890622e-22 1.5093238504069705e-09
114 1 3.85574 23.7037 1.4948 1.2 0.984061450403968 0.015938528016848037 4.4586937093437244e-21 2.157918327223171e-08
115 2 5.66125 21.0195 1.4948 2.4 1.0 5.654663546476955e-19 1.548228740886259e-40 6.158825034646048e-36
116 3 5.72074 22.6328 1.4948 -1.2 0.9992193970522538 0.0007806029433536597 2.6908861769716566e-23 4.393220351058615e-12
117 3 2.03867 20.0455 1.4948 -1.2 0.9998536408671986 0.00014635913078091486 3.2823191422254983e-25 2.0265405523278327e-12
118 3 4.96004 20.3134 0.196716 -1.2 0.9988879807011721 0.0011120192893716266 5.250224351309544e-21 9.461403488535567e-12
119 1 6.55057 18.996 2.9896 1.2 0.9786838789758918 0.02130475054003916 1.2767910681638971e-19 1.1370484068531959e-05
120 3 4.92172 20.3134 2.79288 -1.2 0.9966723531554988 0.003327646798956488 1.2364828179831531e-18 4.554664858664394e-11
121 1 -0.84282 19.0373 4.4844 1.2 0.9939718517138924 0.00577902426740407 3.9750249226677753e-17 0.00024912401869696795
122 2 -2.64823 21.7214 4.4844 2.4 1.0 7.262692801716115e-25 7.183429501494358e-41 7.170625891216076e-42
123 3 -2.70847 20.1082 4.4844 -1.2 0.992581323421862 0.007418676492125431 1.0013291534013437e-17 8.601199926568825e-11
124 3 0.97581 22.6955 4.4844 -1.2 0.9345422983566725 0.06545770161167898 2.4761347535410704e-17 3.165202147509353e-11
125 3 -1.9076 22.4276 3.18632 -1.2 0.9958306385095158 0.004169361488765295 5.8846363850307495e-19 1.7137565689474716e-12
126 3 -1.9475 22.4276 5.78248 -1.2 0.9956314066255025 0.0043685933734395645 1.1842516182975614e-19 1.0535311612086504e-12
127 1 1.50678 21.3705 2.9896 1.2 0.9786536425380151 0.021343842287523444 1.9197908018935693e-20 2.5151744683264992e-06
128 1 4.31086 21.3292 4.4844 1.2 0.9961131874563544 0.0038206859915348923 3.247134497278109e-15 6.612655210710532e-05
129 2 2.49243 23.394 4.4844 2.4 1.0 3.2741734334796264e-25 1.6739595858100168e-40 5.2813977152656934e-43
130 3 2.51204 25.0073 4.4844 -1.2 0.9780168408678628 0.0219831591204371 2.7820066000144543e-17 1.1703249309688051e-11
131 3 -4.13026 22.42 4.4844 -1.2 0.8381422060070796 0.16185779388030835 2.426023725394495e-16 1.1261266912417321e-10
132 3 3.19799 22.6879 3.18632 -1.2 0.994451284205018 0.005548715790565337 2.1544265424367428e-18 4.420497028060073e-12
133 1 1.5501 21.3705 0 1.2 0.9765041817029099 0.02349581554976957 2.9209761770531436e-22 2.7473156799269105e-09
134 3 3.1583 22.6879 5.78248 -1.2 0.9909303802241026 0.009069619774987192 1.3928999750762441e-18 9.079703952902412e-13
135 1 -1.29822 21.4118 1.4948 1.2 0.9879250755866915 0.012074912676697181 1.169632124507669e-21 1.1736608381631214e-08
136 2 0.523568 19.3469 1.4948 2.4 1.0 1.0335095587586822e-17 7.785456903215449e-39 2.387554290486118e-35
137 3 0.508934 17.7337 1.4948 -1.2 0.9984798437417892 0.0015201561614252455 4.520870719837495e-22 9.677932575797064e-11
138 3 7.14425 20.321 1.4948 -1.2 0.9995990220955013 0.00040097790202978865 1.200318475419507e-23 2.464636972971888e-12
139 3 -0.145107 20.0531 0.196716 -1.2 0.9963171674211472 0.003682832565211543 1.753809315386915e-19 1.363536357968776e-11
140 3 -0.183601 20.0531 2.79288 -1.2 0.9988586447216073 0.0011413552681681124 2.5977563134948323e-20 1.0224641863571697e-11
141 1 6.70502 23.745 0 1.2 0.9830679290700903 0.016932070791876412 3.7227650551763587e-23 1.3803795951655016e-10
142 1 3.97493 28.4527 1.4948 1.2 0.990238280805696 0.00976171849272766 1.684199958152556e-23 7.015829604552135e-10
143 2 5.77602 25.7685 1.4948 2.4 1.0 1.101882606014683e-22 1.200114917390918e-40 3.711391786326687e-39
144 3 5.83821 27.3818 1.4948 -1.2 0.9998906942039549 0.00010930579595619827 3.7919583991955784e-24 8.289617363313596e-14
145 3 2.15175 24.7945 1.4948 -1.2 0.9998947764104547 0.00010522358943376138 1.0257503796677889e-25 1.052620631673839e-13
146 3 5.07184 25.0624 0.196716 -1.2 0.9995985388425019 0.00040146115704531424 1.5961372600856556e-21 4.57950255288717e-13
147 1 6.66374 23.745 2.9896 1.2 0.986798028009336 0.013201810466497146 6.184224901111149e-21 1.6152416288040098e-07
148 3 5.03707 25.0624 2.79288 -1.2 0.9949144287519114 0.005085571246200377 1.358471992688708e-18 1.881500062283042e-12
149 1 -0.727559 23.7863 4.4844 1.2 0.9963879215850961 0.0036035576058811793 1.761139024953495e-17 8.520809020689946e-06
150 2 -2.5277 26.4704 4.4844 2.4 1.0 2.5014763870843532e-27 3.365742375098517e-41 3.284584847123732e-45
151 3 -2.59107 24.8572 4.4844 -1.2 0.9782301550338176 0.021769844958890817 9.936180495333058e-18 7.288418691793412e-12
152 3 1.09817 27.4445 4.4844 -1.2 0.976714591629488 0.023285408369123663 1.0108213181621086e-18 1.383113386964603e-12
153 3 -1.78784 27.1766 3.18632 -1.2 0.986582010717601 0.013417989282068594 3.2311623352789832e-18 3.325791981714776e-13
154 3 -1.82343 27.1766 5.78248 -1.2 0.9672757836974595 0.03272421630241395 1.1611951110258623e-18 1.2099701961312224e-13
155 1 1.62435 26.1195 2.9896 1.2 0.990820170848962 0.009179805056346704 3.9321319323918625e-22 2.4094692661521535e-08
156 1 4.43064 26.0782 4.4844 1.2 0.9973209116360878 0.002671543941100513 3.8298601016666346e-15 7.54442280350922e-06
157 2 2.61607 28.143 4.4844 2.4 1.0 2.723363655424844e-28 1.0210732437926901e-40 1.3297983046903014e-46
158 3 2.63853 29.7563 4.4844 -1.2 0.8491733825331832 0.15082661746625994 2.4648659230761493e-16 5.524857114103009e-13
159 3 -4.00841 27.169 4.4844 -1.2 0.8100671240807807 0.18993287591614985 1.1859320142331645e-16 3.0711257069072865e-12
160 3 3.3182 27.4369 3.18632 -1.2 0.9979761104972844 0.002023889502581532 2.8141106736491617e-19 1.3713843817639303e-13
161 1 1.66335 26.1195 0 1.2 0.9777693791941008 0.022230620579037783 8.977547631815469e-24 2.2685882407313207e-10
162 3 3.28288 27.4369 5.78248 -1.2 0.8491753731863667 0.15082462681332143 9.361103488495331e-17 3.136516417011747e-13
163 1 -1.18278 26.1608 1.4948 1.2 0.9925860041164859 0.00741399565278739 1.7197694071544433e-23 2.3072477342635279e-10
164 2 0.635424 24.0959 1.4948 2.4 1.0 8.453190758931417e-21 1.3069122538219388e-38 1.258916228870983e-38
165 3 0.617906 22.4827 1.4948 -1.2 0.999530599707171 0.0004694002920546095 1.3833223054232371e-22 7.77449050901114e-13
166 3 7.25781 25.07 1.4948 -1.2 0.9997499244057512 0.0002500755941683568 7.516235259763059e-24 8.303933033722997e-14
167 3 -0.0337363 24.8021 0.196716 -1.2 0.9993314299872381 0.0006685700123732241 1.0686003730481758e-20 3.9003037766860544e-13
168 3 -0.0687235 24.8021 2.79288 -1.2 0.9964398922837081 0.0035601077152152966 5.498110529300046e-19 1.0739194060492172e-12
169 1 6.82195 28.494 0 1.2 0.9792055449795014 0.020794454824310096 7.559785744580225e-24 1.9618395839440415e-10
170 1 4.10106 33.2017 1.4948 1.2 0.9913359754664811 0.008664019617061458 6.88689213049046e-23 4.916451605407005e-09
171 2 5.89839 30.5175 1.4948 2.4 1.0 7.048372404768712e-26 9.855720043329241e-42 1.0429001874573147e-41
172 3 5.96289 32.1308 1.4948 -1.2 0.9998122549310923 0.00018774506878057142 1.0531539928251564e-22 1.2238199404144575e-13
173 3 2.27266 29.5435 1.4948 -1.2 0.9999237389567213 7.62610431953235e-05 4.52741132258279e-25 7.739288115721272e-14
174 3 5.19102 29.8114 0.196716 -1.2 0.9999673330346204 3.266696534002949e-05 4.284316677457852e-24 4.109469111576935e-14
175 1 6.78546 28.494 2.9896 1.2 0.9965188935610255 0.0034810917498282403 9.443359976371132e-22 1.4689143997607778e-08
176 3 5.16061 29.8114 2.79288 -1.2 0.9960528579377164 0.003947142062133154 4.226683228173217e-19 1.4386322542708578e-13
177 1 -0.603205 28.5353 4.4844 1.2 0.998912024394499 0.0010878394647189373 1.0980031269936709e-16 1.3614078253465893e-07
178 2 -2.39877 31.2194 4.4844 2.4 1.0 4.15222591818982e-28 1.0325582709565861e-39 5.852996918862539e-46
179 3 -2.46483 29.6062 4.4844 -1.2 0.5684875873939141 0.4315124126015841 2.182347936014095e-15 4.504749908725614e-12
180 3 1.22864 32.1935 4.4844 -1.2 0.5419205279968355 0.45807947200092697 4.883921787946032e-16 2.2305724084750704e-12
181 3 -1.66032 31.9256 3.18632 -1.2 0.9794606186127588 0.02053938138700436 5.1814929814004665e-18 2.378407282075381e-13
182 3 -1.69072 31.9256 5.78248 -1.2 0.6142416427923858 0.38575835720714435 3.491141828828994e-17 4.697348509501088e-13
183 1 1.7499 30.8685 2.9896 1.2 0.996886241463321 0.003113753637715429 1.0941097947540347e-22 4.898967833493137e-09
184 1 4.55894 30.8272 4.4844 1.2 0.999474030356838 0.0005259131513611416 6.862167537009461e-18 5.649179656413825e-08
185 2 2.7476 32.892 4.4844 2.4 1.0 3.0136484634639023e-28 2.710876206548485e-39 8.087201190938749e-46
186 3 2.77235 34.5053 4.4844 -1.2 0.21137874650909833 0.7886212534844752 5.3154605327531725e-14 6.374625638053995e-12
187 3 -3.87837 31.918 4.4844 -1.2 0.22988959102324227 0.7701104089734961 8.547414796976676e-16 3.2618744173107433e-12
188 3 3.44611 32.1859 3.18632 -1.2 0.990477695960734 0.009522304038906141 2.6603644280444344e-18 3.668661623459543e-13
189 1 1.7837 30.8685 0 1.2 0.9792966968152343 0.020703302874883887 1.2639617676218636e-25 3.098833834083932e-10
190 3 3.41602 32.1859 5.78248 -1.2 0.22132991228270077 0.7786700877168461 1.4890116773072921e-15 4.56160883560008e-13
191 1 -1.05984 30.9098 1.4948 1.2 0.9930546470090054 0.006945352853152617 2.0410092747553084e-25 1.3784096907391655e-10
192 2 0.755243 28.8449 1.4948 2.4 1.0 4.245734290656065e-25 9.123101606078063e-41 5.104200166734196e-41
193 3 0.735127 27.2317 1.4948 -1.2 0.9998461959027383 0.0001538040972260103 2.213987922567709e-23 3.525830715620389e-14
194 3 7.37914 29.819 1.4948 -1.2 0.9998060491390454 0.00019395086088509346 1.0781323883641889e-23 6.663546252848149e-14
195 3 0.0850649 29.5511 0.196716 -1.2 0.9995403838442292 0.0004596161555978349 5.523870580480814e-21 1.79567478961401e-13
196 3 0.0543974 29.5511 2.79288 -1.2 0.9967990228081787 0.0032009771917037785 2.0307634466160764e-19 1.2310497480152736e-13
197 1 6.94543 33.243 0 1.2 0.9872117883166016 0.012788211484600394 1.3885501086856848e-25 1.9880024702934865e-10
198 1 4.23267 37.9507 1.4948 1.2 0.9862751145048559 0.01372483950065259 1.8886950727777632e-20 4.599449057542647e-08
199 2 6.02709 35.2665 1.4948 2.4 1.0 3.8004208856473525e-25 2.1170107267988516e-39 3.650992935241099e-39
200 3 6.09339 36.8798 1.4948 -1.2 0.9981575733843973 0.0018424266126843187 1.6741019279776458e-19 2.913220375605249e-12
201 3 2.40018 34.2925 1.4948 -1.2 0.9989428821768367 0.0010571178207927773 2.1075471402849105e-21 2.370416688066088e-12
202 3 5.31645 34.5604 0.196716 -1.2 0.9999310044972513 6.899550249764787e-05 8.169059310916854e-23 2.497236651961809e-13
203 1 6.91449 33.243 2.9896 1.2 0.9967138053611583 0.003286167361213555 1.8633776817414753e-21 2.7277634028653077e-08
204 3 5.291 34.5604 2.79288 -1.2 0.919739599266392 0.08026040072846757 3.3344346816744285e-16 5.14500166734284e-12
205 1 -0.471101 33.2843 4.4844 1.2 0.9992085278174437 0.0007914091797881504 6.18250786547626e-17 6.300277228550559e-08
206 2 -2.26307 35.9684 4.4844 2.4 1.0 1.1893413614362587e-26 7.645713961443709e-36 2.4170589145654642e-43
207 3 -2.33122 34.3552 4.4844 -1.2 0.16398709469441625 0.8360129053017052 1.4726985277870764e-14 3.870636800300307e-12
208 3 1.36549 36.9425 4.4844 -1.2 0.04600200599362432 0.953997993999342 4.371847000931053e-13 6.590892751736236e-12
209 3 -1.52658 36.6746 3.18632 -1.2 0.7691262249368499 0.2308737750579243 3.833917610877632e-15 5.223113224894662e-12
210 3 -1.55122 36.6746 5.78248 -1.2 0.06957760481133846 0.93042239518789 9.125479652949476e-15 7.68393634697548e-13
211 1 1.882 35.6175 2.9896 1.2 0.9920893120612437 0.007910547916510538 1.6107894016131077e-19 1.4002224870507595e-07
212 1 4.69415 35.5762 4.4844 1.2 0.9993095106395997 0.0006902702800187203 2.195206840119625e-15 2.1908038113865917e-07
213 2 2.88522 37.641 4.4844 2.4 1.0 6.09943859243837e-25 3.341957793776577e-33 3.233543798963128e-42
214 3 2.91159 39.2543 4.4844 -1.2 0.10165290432761115 0.8983470956663403 8.519001753901245e-13 5.195708817956528e-12
215 3 -3.74183 36.667 4.4844 -1.2 0.025465480881598522 0.9745345191134213 8.379832476016055e-14 4.899123719506222e-12
216 3 3.58014 36.9349 3.18632 -1.2 0.8787229170961718 0.1212770828941513 1.2590335481544915e-15 9.674739814195296e-12
217 1 1.90997 35.6175 0 1.2 0.977191206003418 0.02280879112798208 1.135767101070792e-23 2.868601863535216e-09
218 3 3.55582 36.9349 5.78248 -1.2 0.01587529535864154 0.9841247046409339 3.2080168404217164e-14 3.8877839155895907e-13
219 1 -0.93068 35.6588 1.4948 1.2 0.9931279207706115 0.006872077878630887 1.4613518919298205e-23 1.3507645371308731e-09
220 2 0.881882 33.5939 1.4948 2.4 1.0 2.6936788931475904e-26 2.6008156049098805e-40 1.0711280967019737e-39
221 3 0.859602 31.9807 1.4948 -1.2 0.9998310678435203 0.00016893215643901702 2.5792922261724584e-23 4.093231474895103e-14
222 3 7.507 34.568 1.4948 -1.2 0.9987007183493124 0.0012992816479355195 1.6527683697760192e-21 2.7459618727404867e-12
223 3 0.210186 34.3001 0.196716 -1.2 0.9994079931934045 0.000592006805983992 1.9424921912883337e-20 6.124982626613111e-13
224 3 0.184454 34.3001 2.79288 -1.2 0.9803966099874554 0.019603390011268047 1.8690545699482748e-17 1.2720791079985058e-12
225 1 7.07415 37.992 0 1.2 0.951099185833874 0.048900797582152974 3.5121215138943983e-22 1.658397273143576e-08
226 1 4.36817 42.6997 1.4948 1.2 0.9447019888563941 0.05529650358881961 8.073627520676826e-17 1.5075547882766194e-06
227 2 6.16058 40.0155 1.4948 2.4 1.0 1.9401938714726536e-21 1.5594581335827955e-33 3.5594098538615876e-35
228 3 6.22815 41.6288 1.4948 -1.2 0.9165530762213377 0.08344692361000913 5.530742697220148e-15 1.686409754976487e-10
229 3 2.53282 39.0415 1.4948 -1.2 0.997208991016212 0.0027910089196281733 4.120417967695839e-20 6.415582874712904e-11
230 3 5.44674 39.3094 0.196716 -1.2 0.9990086653612337 0.0009913346212385976 1.054147434211096e-19 1.752919625353387e-11
231 1 7.04922 37.992 2.9896 1.2 0.9914175338610396 0.008579593178937434 1.7922063581798746e-16 2.8729600174315688e-06
232 3 5.42658 39.3094 2.79288 -1.2 0.8338143794936077 0.16618562048644547 9.995385124273458e-15 1.994100742369091e-11
233 1 -0.333062 38.0333 4.4844 1.2 0.9986446301775377 0.0013531100748509978 2.06932733314122e-13 2.2597473987371964e-06
234 2 -2.12255 40.7174 4.4844 2.4 1.0 1.3082310438816524e-23 2.457468740450751e-31 7.877710220676259e-41
235 3 -2.19212 39.1042 4.4844 -1.2 0.046719677214423876 0.9532803227806342 1.355209654793754e-12 3.59268953884946e-12
236 3 1.50676 41.6915 4.4844 -1.2 0.009511349010353986 0.9904886509658672 1.9679794046007932e-11 4.0954294417714695e-12
237 3 -1.3884 41.4236 3.18632 -1.2 0.09676773695613641 0.903232263028568 3.601562485535554e-12 1.1688323973335843e-11
238 3 -1.40713 41.4236 5.78248 -1.2 0.03452032686415441 0.9654796731353468 6.900703015729506e-14 4.303078914607207e-13
239 1 2.01892 40.3665 2.9896 1.2 0.9727146936507998 0.027255089198160134 9.97693193066016e-13 3.021715004039681e-05
240 1 4.83434 40.3252 4.4844 1.2 0.9979471214142313 0.0020368417386279988 3.355758694204135e-12 1.6036843790806236e-05
241 2 3.02698 42.39 4.4844 2.4 1.0 6.349423140245022e-24 4.417055839237873e-31 1.6818520095108826e-41
242 3 3.05433 44.0033 4.4844 -1.2 0.03256773930933493 0.9674322606818586 5.691033494514758e-12 3.1087350518804387e-12
243 3 -3.60077 41.416 4.4844 -1.2 0.00567506318486367 0.9943249368054686 6.3068450379372355e-12 3.358042378912522e-12
244 3 3.71851 41.6839 3.18632 -1.2 0.4412616536209301 0.5587383463595377 7.872436141748247e-13 1.8749399937515525e-11
245 1 2.04077 40.3665 0 1.2 0.8869429800866305 0.11305664743927805 2.824152694169991e-20 3.7247408696809206e-07
246 3 3.70011 41.6839 5.78248 -1.2 0.011928875613674114 0.9880711243853108 3.8594120527125784e-13 6.230912170660765e-13
247 1 -0.796865 40.4078 1.4948 1.2 0.973135644820902 0.02686426014005797 8.473333974901169e-20 9.503903798352898e-08
248 2 1.01387 38.3429 1.4948 2.4 1.0 1.9544661350244484e-23 1.0906547255313346e-35 2.7234696767079097e-36
249 3 0.989947 36.7297 1.4948 -1.2 0.9983104319013905 0.001689568097199489 3.5872343459887196e-20 1.4145809540741785e-12
250 3 7.63988 39.317 1.4948 -1.2 0.9949926072521371 0.005007392702642724 1.172318370298252e-19 4.522394488729862e-11
251 3 0.340253 39.0491 0.196716 -1.2 0.9981360054452704 0.0018639945206420183 2.181888402348627e-19 3.409353304775752e-11
252 3 0.319795 39.0491 2.79288 -1.2 0.7772932931515395 0.22270670682986654 2.3562369462945268e-14 1.85748660597171e-11
253 1 7.20667 42.741 0 1.2 0.7936797373058785 0.20631872250246303 7.612228353878205e-18 1.5401916649275444e-06
254 1 4.50613 47.4487 1.4948 1.2 0.9697152324618555 0.030282953591197054 7.660707199722055e-16 1.813946947332168e-06
255 2 6.29731 44.7645 1.4948 2.4 1.0 1.2387251142827482e-19 3.475523039287529e-30 2.2976600208735874e-33
256 3 6.36567 46.3778 1.4948 -1.2 0.4308388558238185 0.5691611440223644 6.141478792631846e-13 1.532023672810237e-10