ITEM: TIMESTEP
13100
ITEM: NUMBER OF ATOMS
10500
ITEM: BOX BOUNDS xy xz yz pp pp pp
0	15.2977	5.09925
0	118.725	0
0	89.688	0
ITEM: ATOMS id type xu yu zu q pCrystal pDisloC pSF pDisloB pDisloA
1 1 6.2404 -6.37941e-06 0 1.2 5.073678617699837e-16 4.765887894942646e-12 0.999999251064249 7.488741206157525e-07 5.6870344863690935e-11
2 1 3.46349 4.70768 1.4948 1.2 3.59716905137675e-10 3.0146148440019804e-08 0.9999999275050042 4.1668038071937005e-08 3.2108783213608524e-10
3 2 5.2885 2.02354 1.4948 2.4 3.694927765410556e-13 5.929591823014019e-10 0.9999999787022349 2.069511394705895e-08 9.319038357313132e-12
4 3 5.33628 3.63678 1.4948 -1.2 7.353175115017196e-10 5.213807601470963e-08 0.9999999309645228 8.273898806378657e-09 7.888185554432239e-09
5 3 1.67294 1.04952 1.4948 -1.2 3.8094184077105286e-13 1.9431030589482084e-09 0.999999721989123 2.753845052815975e-07 6.828869697355752e-10
6 3 4.59532 1.31737 0.196716 -1.2 2.7005346958733974e-14 3.9080315409476557e-10 0.9999998512450046 1.479841123625461e-07 3.800596147231929e-10
7 1 6.18956 -6.37941e-06 2.9896 1.2 8.851307612462189e-16 1.1143994092941438e-10 0.9999968057924347 3.19333736984104e-06 7.58749573402314e-10
8 3 4.55118 1.31737 2.79288 -1.2 4.665442789771985e-16 1.2575487230928179e-11 0.999998622704762 1.377188088776805e-06 9.457747615086239e-11
9 1 -1.20682 0.0413099 4.4844 1.2 1.316397195432044e-15 5.541675312207702e-11 0.999982225220185 1.777412741301282e-05 5.969800942637247e-10
10 2 -3.0337 2.72544 4.4844 2.4 7.943267777356394e-12 6.630843833897801e-08 0.9999776841171841 2.2230501320281873e-05 1.90651194118605e-08
11 3 -3.08099 1.11221 4.4844 -1.2 5.877421082469726e-15 2.7804270167638893e-10 0.9999906991253722 9.299824305514966e-06 7.722787519280249e-10
12 3 0.582463 3.69946 4.4844 -1.2 4.325022076308711e-12 7.169596178422469e-10 0.9999899743411552 1.0014885890519954e-05 1.0051674291120663e-08
13 3 -2.29524 3.43162 3.18632 -1.2 1.3704358137870494e-10 2.2869148832524976e-08 0.9999996754729736 2.933110336458973e-07 8.209797560403227e-09
14 3 -2.34216 3.43162 5.78248 -1.2 3.327790882686099e-12 3.747880656624997e-10 0.9999418143085981 5.817442803201065e-05 1.0885259677283959e-08
15 1 1.12778 2.37449 2.9896 1.2 4.54188655630705e-13 1.273821512283683e-09 0.9999915939009899 8.404344670369385e-06 4.800666043474361e-10
16 1 3.92855 2.33318 4.4844 1.2 8.791375646909975e-15 4.16299284295799e-11 0.9999204969520131 7.950242473831155e-05 5.81616770002401e-10
17 2 2.09341 4.39804 4.4844 2.4 1.9209724964318097e-12 5.3797762034474405e-09 0.9999902821496635 9.711538130041927e-06 9.305057022965547e-10
18 3 2.09991 6.01128 4.4844 -1.2 2.489063678338332e-09 1.3315190982288101e-08 0.9999999481690351 2.2741746614001324e-08 1.3284963971489797e-08
19 3 -4.52137 3.42402 4.4844 -1.2 2.458789191592528e-12 1.304836206037229e-09 0.9999921130228789 7.874772867043482e-06 1.0896952992577925e-08
20 3 2.80834 3.69187 3.18632 -1.2 3.983155464095831e-12 9.973604948628321e-10 0.9999999060612526 9.248950308350636e-08 4.4790024549815766e-10
21 1 1.17857 2.37449 0 1.2 3.1081601205599304e-14 5.654626515122688e-10 0.9999992082298242 7.908960840553929e-07 3.0859572772231755e-10
22 3 2.76143 3.69187 5.78248 -1.2 4.480197302371835e-14 1.3740835406617232e-11 0.9999390641037186 6.093320282711488e-05 2.6796714008594784e-09
23 1 -1.67381 2.41581 1.4948 1.2 2.0460790919981427e-10 4.820013565285531e-08 0.9999968041764525 3.1413658905144428e-06 6.052914724845492e-09
24 2 0.16286 0.350945 1.4948 2.4 5.282923420823257e-13 2.573626313827423e-09 0.9999993879042987 6.093086045831355e-07 2.1293588862510253e-10
25 3 0.15972 -1.26229 1.4948 -1.2 9.016327188591019e-12 1.6383917264021963e-08 0.9999998649089241 1.1456996283385695e-07 4.128177177478726e-09
26 3 6.77654 1.32496 1.4948 -1.2 2.476899713113098e-12 7.031815390801145e-09 0.9999999090838442 7.803122133571157e-08 5.85064474249796e-09
27 3 -0.508028 1.05712 0.196716 -1.2 7.543578665567607e-14 1.588643762985562e-09 0.9999995775216957 4.1970673307098337e-07 1.1828531063732695e-09
28 3 -0.552171 1.05712 2.79288 -1.2 1.9133024286176528e-13 8.711644978573583e-10 0.9999967505599657 3.2444899674941177e-06 4.078716353563902e-09
29 1 6.31713 4.74899 0 1.2 2.7570284577456246e-10 4.9375224738831e-08 0.9999998870427681 6.188673540396741e-08 1.4195630614507536e-09
30 1 3.54847 9.45668 1.4948 1.2 4.2957589535649074e-05 5.896656412304171e-07 0.9999563216117445 1.7046959726233643e-11 1.311160318923044e-07
31 2 5.36879 6.77254 1.4948 2.4 3.7596299288143134e-06 9.648818099886578e-06 0.9999863193789927 1.6409749191172153e-10 2.7200887781946786e-07
32 3 5.41937 8.38578 1.4948 -1.2 0.0010470859714196423 0.00010809797131704873 0.9988380351388929 4.139710411410004e-13 6.780917962729646e-06
33 3 1.75158 5.79852 1.4948 -1.2 5.86447769069734e-06 1.2554785608562145e-05 0.9999808859524487 9.803491147416635e-11 6.946862181100103e-07
34 3 4.67421 6.06637 0.196716 -1.2 5.0100158860064545e-08 5.56503845152645e-07 0.9999993830067722 6.136332074723863e-11 1.0327864428004715e-08
35 1 6.26654 4.74899 2.9896 1.2 3.098605930904618e-10 2.32282357999998e-08 0.9999994784785226 4.858015126921982e-07 1.2181871448791354e-08
36 3 4.63043 6.06637 2.79288 -1.2 2.899688327105402e-08 1.7325212470777085e-07 0.9999997590002188 2.516662534594282e-09 3.623410371833121e-08
37 1 -1.12976 4.79031 4.4844 1.2 1.703807938470823e-10 1.1814101102907511e-09 0.9999986838152204 1.3133280552215764e-06 1.5049276028507082e-09
38 2 -2.9517 7.47444 4.4844 2.4 9.99475486138318e-09 2.4619773849208577e-07 0.9999926121571915 4.809389093054686e-07 6.650711403350831e-06
39 3 -3.00198 5.86121 4.4844 -1.2 2.6559400709879727e-10 1.1137976721449782e-09 0.9999999185382114 7.721324020637626e-08 2.8691501413653397e-09
40 3 0.666315 8.44846 4.4844 -1.2 2.2466830375785726e-07 3.7446953729722916e-07 0.9999984056633968 5.357435794355786e-10 9.946630168640986e-07
41 3 -2.21213 8.18062 3.18632 -1.2 5.310653528842572e-07 1.4441154235108832e-07 0.999999152849842 5.4678719759014057e-11 1.7161857737952973e-07
42 3 -2.25864 8.18062 5.78248 -1.2 4.898356185735857e-08 1.0565689387511874e-08 0.9999989100884334 4.3201756089725545e-08 9.87160552471837e-07
43 1 1.20893 7.12349 2.9896 1.2 1.7568537953902734e-07 3.0043662331011564e-07 0.9999994739714386 5.520290733203879e-09 4.4386265291867304e-08
44 1 4.00982 7.08218 4.4844 1.2 3.3814923259992906e-08 2.837131140398777e-08 0.9999997824846597 6.690889894460343e-08 8.842019990494709e-08
45 2 2.17861 9.14704 4.4844 2.4 1.4305510344177911e-06 2.412641564371073e-06 0.9999897973616427 1.0579876350172049e-08 6.348865887867342e-06
46 3 2.18828 10.7603 4.4844 -1.2 6.49398264269568e-06 2.342011385478497e-07 0.9999924818012254 4.818366300517925e-11 7.899668164551623e-07
47 3 -4.43805 8.17302 4.4844 -1.2 8.163828265486253e-08 1.5344643555424656e-07 0.9999981888641744 1.206286142245872e-09 1.574844814871814e-06
48 3 2.89193 8.44087 3.18632 -1.2 4.08499767377422e-06 6.134454738749757e-07 0.9999946283418416 1.5515188994601788e-10 6.730598597541283e-07
49 1 1.25915 7.12349 0 1.2 5.252334016613052e-07 4.945960355496213e-07 0.9999989719747502 4.2686947685770826e-10 7.76893867781258e-09
50 3 2.84547 8.44087 5.78248 -1.2 1.545272404219257e-07 4.1065237440102157e-08 0.9999987317276662 3.3197640854401136e-08 1.0394822096196678e-06
51 1 -1.59284 7.16481 1.4948 1.2 1.7593660374021763e-06 8.056235671082336e-07 0.9999973689216485 5.919487954127038e-10 6.549679543127117e-08
52 2 0.240329 5.09994 1.4948 2.4 1.8360644390005171e-09 1.2126455848945196e-07 0.9999998723835627 4.369069377041833e-09 1.4674402914387726e-10
53 3 0.234538 3.48671 1.4948 -1.2 4.394745991473304e-11 2.0833648744809315e-08 0.9999999561922418 1.8297422556468205e-08 4.6327393300014095e-09
54 3 6.85564 6.07396 1.4948 -1.2 1.0111707171493047e-06 4.941153823678871e-06 0.9999932913406087 1.7075335562883778e-10 7.561640929148522e-07
55 3 -0.429565 5.80612 0.196716 -1.2 5.630295160615524e-09 9.543038689638017e-08 0.9999998970664077 2.1881657514931178e-10 1.6540885916311151e-09
56 3 -0.473377 5.80612 2.79288 -1.2 5.144701539935816e-09 1.7736714693503904e-08 0.999999959718992 9.824235469080741e-09 7.575356353492668e-09
57 1 6.40169 9.49799 0 1.2 0.00014092811714473552 2.8096112671913537e-06 0.9998559234152615 2.9516650460915123e-12 3.3885336791560315e-07
58 1 3.64209 14.2057 1.4948 1.2 0.00035619655816939555 8.92056943381091e-07 0.9996425271713735 6.338062906215157e-13 3.842128744653761e-07
59 2 5.45748 11.5215 1.4948 2.4 0.0020735204919149187 2.2583229694308015e-05 0.9979036073358593 3.1351928347768447e-14 2.889425041080603e-07
60 3 5.51101 13.1348 1.4948 -1.2 0.024545960984138922 0.00016099027585218727 0.9752813734095958 1.2709463696507229e-14 1.1675330399627387e-05
61 3 1.83851 10.5475 1.4948 -1.2 0.005453479513910859 2.46908135308149e-05 0.9945185021483308 2.45662136497144e-14 3.327524196277293e-06
62 3 4.7611 10.8154 0.196716 -1.2 0.0016724027378426172 2.1687817099754937e-05 0.9983045808233603 6.9962018401115e-14 1.3286216255425632e-06
63 1 6.35203 9.49799 2.9896 1.2 2.7019094656530698e-05 3.8053609249533345e-06 0.9999681863933184 7.818056176784283e-11 9.89072916697063e-07
64 3 4.71833 10.8154 2.79288 -1.2 7.358100430477358e-05 2.391204585939846e-06 0.9999228367396067 7.60498657818423e-12 1.1910438983341375e-06
65 1 -1.0438 9.53931 4.4844 1.2 2.189891697241964e-06 2.0146914010428894e-07 0.9999968425845049 5.67078608235408e-09 7.603838742606454e-07
66 2 -2.8604 12.2234 4.4844 2.4 5.467728354335713e-06 2.3426219449785875e-06 0.9999888777416501 1.5423996891538704e-09 3.310365646629993e-06
67 3 -2.91391 10.6102 4.4844 -1.2 8.272277137455396e-06 4.1914667537036516e-07 0.9999904038830464 2.7778113162719558e-11 9.046653692063618e-07
68 3 0.7596 13.1975 4.4844 -1.2 7.90541671378414e-06 1.3768139580803147e-06 0.9999887689613168 4.726944926202648e-11 1.9487607438502727e-06
69 3 -2.12001 12.9296 3.18632 -1.2 0.00010474914904911627 2.202268519027048e-06 0.9998919046096605 2.4385849145180132e-12 1.143970336109517e-06
70 3 -2.16532 12.9296 5.78248 -1.2 2.862502222736971e-05 2.6991853943460103e-07 0.999965824212733 1.5797712222524174e-09 5.2792667301756855e-06
71 1 1.29891 11.8725 2.9896 1.2 9.100509265511774e-05 2.656634832177971e-06 0.9999052142505644 2.3074305909387555e-11 1.1239988760576356e-06
72 1 4.10033 11.8312 4.4844 1.2 2.3183031076107997e-05 2.41904993099356e-07 0.9999743410719631 3.4949094939152343e-09 2.2304970561829693e-06
73 2 2.27333 13.896 4.4844 2.4 4.326270150035917e-05 3.8884857796877055e-06 0.9999482500636385 4.331655908745389e-10 4.598315914952614e-06
74 3 2.28634 15.5093 4.4844 -1.2 5.996680873754747e-05 7.894499187745083e-07 0.9999380476158086 2.418275860456367e-12 1.196123117989349e-06
75 3 -4.34533 12.922 4.4844 -1.2 4.59031947121677e-06 4.207456234958905e-07 0.9999930632899209 1.8996734949550764e-10 1.9254550234016842e-06
76 3 2.98455 13.1899 3.18632 -1.2 0.00010489624243627881 2.2901252826236893e-06 0.9998915910233626 4.864249459171384e-12 1.2226040591590092e-06
77 1 1.34779 11.8725 0 1.2 0.0013502967441399233 5.225030937649345e-06 0.9986426440232647 1.0945332194111619e-12 1.8342005608739278e-06
78 3 2.93934 13.1899 5.78248 -1.2 1.0116303675147897e-05 1.0801269638701817e-07 0.9999880420395066 1.1004791752305516e-09 1.732543643038227e-06
79 1 -1.50344 11.9138 1.4948 1.2 0.00039744054670890085 2.356621385213964e-06 0.9995994712920832 1.0957193140767833e-12 7.31538720348916e-07
80 2 0.326006 9.84894 1.4948 2.4 0.00039614231455396874 8.343750173828165e-06 0.9995953984742846 1.0253768258243225e-13 1.1546088743157128e-07
81 3 0.317364 8.23571 1.4948 -1.2 0.000300301731416594 1.368175742064669e-05 0.99968467012239 2.6363777274733092e-12 1.346386135704448e-06
82 3 6.94307 10.823 1.4948 -1.2 0.003109903239649399 3.996304224066012e-05 0.9968479493019831 1.5714758041729923e-14 2.1844161140805046e-06
83 3 -0.343122 10.5551 0.196716 -1.2 0.0004775797970170484 9.630584873007909e-06 0.999512237855585 1.4159897395525138e-13 5.517623779428102e-07
84 3 -0.385966 10.5551 2.79288 -1.2 4.188368146557987e-05 1.563065502234436e-06 0.9999558945345497 1.1506668581906243e-11 6.587069801136757e-07
85 1 6.49448 14.247 0 1.2 0.0038649962375246344 3.860313100483779e-06 0.9961289702166439 8.2308041163683e-14 2.1732326528144985e-06
86 1 3.74457 18.9547 1.4948 1.2 9.16333611891474e-05 2.123581351968734e-07 0.999908101389177 3.8497842420392034e-13 5.289111561166039e-08
87 2 5.55495 16.2705 1.4948 2.4 0.0014921982198179183 1.1779321648047459e-05 0.9984959867368048 3.2787915049695128e-15 3.572173161037221e-08
88 3 5.6115 17.8838 1.4948 -1.2 0.011595456023046376 7.032619520682563e-05 0.9883327773597395 2.2222169948209682e-15 1.440421998590814e-06
89 3 1.93416 15.2965 1.4948 -1.2 0.021418617881980906 4.568429394760455e-05 0.9785332705576147 1.6410925501292923e-15 2.4272664519434905e-06
90 3 4.85636 15.5644 0.196716 -1.2 0.00797564057195666 2.982122245464943e-05 0.9919932923846346 7.613106081767794e-15 1.2458209406393366e-06
91 1 6.44662 14.247 2.9896 1.2 0.00013992993045319524 2.1943854357695353e-06 0.9998570325472442 3.751499407417206e-12 8.43133114603076e-07
92 3 4.81537 15.5644 2.79288 -1.2 0.0005490532627193493 8.916873499075132e-06 0.9994407601393824 7.794325239685531e-13 1.2697236133490408e-06
93 1 -0.948271 14.2883 4.4844 1.2 2.3555093118195054e-05 4.0603634403539473e-07 0.9999744051763386 8.375076505394409e-10 1.6328566965774727e-06
94 2 -2.75928 16.9724 4.4844 2.4 0.00017022086271086917 5.145166743211225e-06 0.9998228328702408 1.6205206258971972e-10 1.8009382554295647e-06
95 3 -2.81617 15.3592 4.4844 -1.2 2.4807997785852525e-05 5.622391611908704e-07 0.9999737244066289 2.6014018872258434e-12 9.05353822406602e-07
96 3 0.862762 17.9465 4.4844 -1.2 3.5048195264822764e-05 1.902026141459153e-06 0.9999610768048547 1.5435154713205284e-11 1.9729582975179143e-06
97 3 -2.0185 17.6786 3.18632 -1.2 0.00021604188699248186 2.155728784443903e-06 0.9997813893913629 4.2454178854640473e-13 4.129924381750802e-07
98 3 -2.06164 17.6786 5.78248 -1.2 0.0002180478064485829 5.326888978287135e-07 0.999775052720512 3.481094004328469e-10 6.366436030169915e-06
99 1 1.39817 16.6215 2.9896 1.2 0.00028502689635394047 2.7071269661616356e-06 0.9997111754840879 3.5250848542515748e-12 1.0904890732246914e-06
100 1 4.20062 16.5802 4.4844 1.2 1.9386180453458485e-05 1.6233526563940218e-07 0.9999797741356761 7.911715631727191e-10 6.765574379600034e-07
101 2 2.37796 18.645 4.4844 2.4 0.00015976519185430322 2.2568179209143474e-06 0.9998371213651381 9.451422703488141e-11 8.565305681159309e-07
102 3 2.39434 20.2583 4.4844 -1.2 0.00010058025700775009 4.2152227025893126e-07 0.9998984228005751 4.3741953081596116e-13 5.754197103450402e-07
103 3 -4.24274 17.671 4.4844 -1.2 2.0881251882569214e-05 7.584883187221861e-07 0.9999775650999457 2.4090648774825027e-11 7.95135769382676e-07
104 3 3.08659 17.9389 3.18632 -1.2 0.00015926085081513822 2.278755616365232e-06 0.9998379426393103 1.1550587190838572e-12 5.177531092280365e-07
105 1 1.44478 16.6215 0 1.2 0.002446589881727587 1.2023446157174895e-06 0.997551447784221 6.904365890678393e-14 7.599893676437173e-07
106 3 3.0436 17.9389 5.78248 -1.2 0.0001330920200228025 1.79593397758363e-07 0.9998647776047652 2.426130083582832e-10 1.9505391956717994e-06
107 1 -1.40524 16.6628 1.4948 1.2 0.0010540339395923909 2.7564228967756874e-06 0.9989424340954745 1.3558956159135518e-13 7.755419009868557e-07
108 2 0.420358 14.5979 1.4948 2.4 0.00463656611566548 3.312216923896452e-05 0.9953300814044227 2.5815254068591702e-14 2.303106512103832e-07
109 3 0.408732 12.9847 1.4948 -1.2 0.016850357870201567 8.457034825255727e-05 0.9830606749763865 1.1278476666162962e-14 4.396805148433879e-06
110 3 7.03923 15.572 1.4948 -1.2 0.019778155158200326 9.432937775957836e-05 0.9801242305341694 1.938668527185119e-15 3.284929862160611e-06
111 3 -0.248332 15.3041 0.196716 -1.2 0.009665109793931355 3.9379934814246984e-05 0.9902940555306609 9.756915635289177e-15 1.4547405855118135e-06
112 3 -0.289436 15.3041 2.79288 -1.2 0.0010138283178881765 1.5173901171691717e-05 0.9989679301198846 1.954672303493021e-12 3.0676590982412366e-06
113 1 6.59566 18.996 0 1.2 0.000541173403771331 2.2007015681179642e-07 0.9994585194721747 3.946765029218566e-15 8.705388991367147e-08
114 1 3.85574 23.7037 1.4948 1.2 0.0009168444721676424 9.021655767980643e-07 0.9990819436112391 3.600199444684427e-13 3.0975064968866193e-07
115 2 5.66125 21.0195 1.4948 2.4 0.0048701690180436375 6.716783086912872e-06 0.9951230981588447 6.1974441453545315e-15 1.6040014172942437e-08
116 3 5.72074 22.6328 1.4948 -1.2 0.02972250275509121 7.746242148461443e-05 0.9701983228871831 2.698555319961411e-15 1.7119362411434816e-06
117 3 2.03867 20.0455 1.4948 -1.2 0.029484632311532262 3.976507370786631e-05 0.970474312153483 3.395587485264726e-16 1.2904612744011536e-06
118 3 4.96004 20.3134 0.196716 -1.2 0.008843193282481045 1.404684219502205e-05 0.9911423977850539 9.776460982710762e-16 3.620902701915858e-07
119 1 6.55057 18.996 2.9896 1.2 0.00017594719881167727 8.792269965918969e-07 0.9998228448176903 1.2716947378937177e-12 3.2875522695723673e-07
120 3 4.92172 20.3134 2.79288 -1.2 0.00033779724712662193 3.567992655956111e-06 0.9996582846300299 2.454943169754665e-13 3.5012994245234077e-07
121 1 -0.84282 19.0373 4.4844 1.2 3.183196053508003e-05 2.905809745175013e-07 0.999967099274733 3.7647629756282806e-10 7.778072856093695e-07
122 2 -2.64823 21.7214 4.4844 2.4 0.00016804273796905606 9.267094190992453e-07 0.9998308965143586 2.0054800140604887e-11 1.340181943952378e-07
123 3 -2.70847 20.1082 4.4844 -1.2 3.259216412712194e-05 2.771527993453202e-07 0.9999668817315064 6.249074844980195e-13 2.4895094486329804e-07
124 3 0.97581 22.6955 4.4844 -1.2 0.00015530257743147233 2.3469496750858424e-06 0.999840624511865 4.63236043968718e-12 1.7259563933582337e-06
125 3 -1.9076 22.4276 3.18632 -1.2 0.0004411707257935606 1.2954642510112316e-06 0.9995573222686541 1.3883683322424842e-13 2.115411562642585e-07
126 3 -1.9475 22.4276 5.78248 -1.2 0.00040654388363797544 1.903399861739694e-07 0.9995916886419874 3.071978192496086e-11 1.577103665169917e-06
127 1 1.50678 21.3705 2.9896 1.2 0.00039872183502896074 1.1717813356888094e-06 0.9995994346256606 1.1737289698899196e-12 6.717568001859394e-07
128 1 4.31086 21.3292 4.4844 1.2 2.4619029727388326e-05 4.148249898335825e-08 0.999975218934809 1.1737114610115124e-10 1.2043559974473933e-07
129 2 2.49243 23.394 4.4844 2.4 0.00041216806472133623 1.2167558580896113e-06 0.9995863135638429 3.07229491296344e-11 3.015848586443294e-07
130 3 2.51204 25.0073 4.4844 -1.2 9.252513730229508e-05 2.3379706634719689e-07 0.9999065804780604 4.932691155954428e-13 6.605870761194655e-07
131 3 -4.13026 22.42 4.4844 -1.2 8.696696481240768e-05 8.162176599754161e-07 0.999911819152912 2.9945355388994928e-12 3.976616192370454e-07
132 3 3.19799 22.6879 3.18632 -1.2 0.0005001995122480717 2.815593289550722e-06 0.9994965317355246 1.5921605801866076e-13 4.5315877592111844e-07
133 1 1.5501 21.3705 0 1.2 0.0009958119954917369 3.017880505000382e-07 0.9990037854627932 7.23281579617149e-15 1.0075365996857357e-07
134 3 3.1583 22.6879 5.78248 -1.2 0.00010886529909109836 3.3513273352100116e-08 0.999890912704129 1.7804009017585992e-11 1.8846570490122744e-07
135 1 -1.29822 21.4118 1.4948 1.2 0.0009720698433460637 8.505137276189594e-07 0.9990268886935807 2.3601155119805434e-14 1.9094932481530273e-07
136 2 0.523568 19.3469 1.4948 2.4 0.0009266428992180957 4.7068192840232354e-06 0.9990686456416588 3.778305412029149e-15 4.639828936203935e-09
137 3 0.508934 17.7337 1.4948 -1.2 0.006060174519559003 5.707267691196323e-05 0.9938819356426642 3.092455830218489e-15 8.171608672347217e-07
138 3 7.14425 20.321 1.4948 -1.2 0.016678036096929798 5.4788431394686484e-05 0.9832664014317362 3.3686691689544935e-16 7.740399429523503e-07
139 3 -0.145107 20.0531 0.196716 -1.2 0.0020897000611329796 8.178390239235066e-06 0.9979020239622192 1.3864254382400846e-15 9.758641075486523e-08
140 3 -0.183601 20.0531 2.79288 -1.2 0.0015379035846190858 1.343288749323812e-05 0.9984479204177854 2.016886371502994e-13 7.431099064306064e-07
141 1 6.70502 23.745 0 1.2 0.005428138077255328 1.477799148578464e-06 0.9945698074714171 9.308690557706647e-15 5.766521766683794e-07
142 1 3.97493 28.4527 1.4948 1.2 0.13491223277414852 1.7749271035049133e-05 0.8650448535998913 2.903613918846332e-12 2.516435201629077e-05
143 2 5.77602 25.7685 1.4948 2.4 0.2628264653297263 2.916956527733502e-05 0.737144125784117 1.3601838372382761e-14 2.393208668184691e-07
144 3 5.83821 27.3818 1.4948 -1.2 0.6704097553255183 0.0001037840717597242 0.32946727311391766 4.899424498840024e-15 1.9187488798168856e-05
145 3 2.15175 24.7945 1.4948 -1.2 0.7177353198624282 0.00022897280373526256 0.28201932913463973 2.8673579975167844e-16 1.6378199198308752e-05
146 3 5.07184 25.0624 0.196716 -1.2 0.2595687182026719 4.81915138109381e-05 0.7403779582781199 4.217793523283483e-15 5.1320053888533965e-06
147 1 6.66374 23.745 2.9896 1.2 0.0009845857371163138 1.431234440053817e-06 0.9990130703067286 9.43067587334626e-13 9.127207665937728e-07
148 3 5.03707 25.0624 2.79288 -1.2 0.00295112948094867 1.2859034275700093e-05 0.9970330922547297 7.39336084671099e-13 2.9192293038140563e-06
149 1 -0.727559 23.7863 4.4844 1.2 7.843711900091591e-05 2.3774418106103773e-07 0.9999208144823633 6.332047980856894e-11 5.105911412905289e-07
150 2 -2.5277 26.4704 4.4844 2.4 0.0007213807741012716 4.929368821095932e-07 0.9992778857637564 2.0114714330746545e-11 2.405051400549058e-07
151 3 -2.59107 24.8572 4.4844 -1.2 8.645791101285431e-05 2.1313440918748263e-07 0.9999130457356814 1.83550392191679e-13 2.8321871394400346e-07
152 3 1.09817 27.4445 4.4844 -1.2 0.0022691987695600824 3.3146855416365878e-06 0.997720801054159 4.627255691109427e-12 6.685486108237999e-06
153 3 -1.78784 27.1766 3.18632 -1.2 0.0021658974395702465 1.0174800619884353e-06 0.997832347661594 4.206308691048139e-13 7.374183569852645e-07
154 3 -1.82343 27.1766 5.78248 -1.2 0.0003486903277493394 5.210942231419009e-08 0.9996508576224074 7.513291468528474e-12 3.999329099683904e-07
155 1 1.62435 26.1195 2.9896 1.2 0.00890259455018254 3.4135542671721523e-06 0.9910884984588892 1.2311775216252249e-12 5.493435426576562e-06
156 1 4.43064 26.0782 4.4844 1.2 0.0001628647068137633 6.014483113204088e-08 0.99983688598561 6.382122239682906e-11 1.89098924880455e-07
157 2 2.61607 28.143 4.4844 2.4 0.001533324677936372 7.110713793871297e-07 0.9984652521221412 1.121686054026887e-10 7.120163805139902e-07
158 3 2.63853 29.7563 4.4844 -1.2 0.00016358330069244314 1.0235971265297733e-07 0.9998352143236338 2.395605554022084e-12 1.1000135611701827e-06
159 3 -4.00841 27.169 4.4844 -1.2 0.00041230009392892263 8.339948719686078e-07 0.9995859870930806 2.0676630733428376e-12 8.788160537294459e-07
160 3 3.3182 27.4369 3.18632 -1.2 0.007208203612790033 4.16904807710201e-06 0.9927841965779256 5.935606046553652e-13 3.4307606188994545e-06
161 1 1.66335 26.1195 0 1.2 0.10133201412314496 1.4862983304355238e-05 0.8986417832874345 2.983526711745629e-14 1.1339606087164658e-05
162 3 3.28288 27.4369 5.78248 -1.2 0.00014935789014708907 1.5701972990449788e-08 0.9998505077049462 8.40186326256849e-12 1.1869452657840642e-07
163 1 -1.18278 26.1608 1.4948 1.2 0.08520900627540481 1.1501946071981605e-05 0.9147710964013874 1.0272468981439788e-13 8.395377027537856e-06
164 2 0.635424 24.0959 1.4948 2.4 0.012870721118474033 4.774308465612196e-06 0.9871244956551554 6.0844972055116456e-15 8.917893896959208e-09
165 3 0.617906 22.4827 1.4948 -1.2 0.018743770692192806 3.890116407013926e-05 0.9812166968088428 1.597629385186526e-15 6.31334897431535e-07
166 3 7.25781 25.07 1.4948 -1.2 0.38694966616508614 0.0002102220187948155 0.6128307381061032 7.036366158731621e-16 9.373710008462427e-06
167 3 -0.0337363 24.8021 0.196716 -1.2 0.09286125051466158 3.419378519383569e-05 0.9071027647887923 1.8612297968642035e-15 1.7909113548155908e-06
168 3 -0.0687235 24.8021 2.79288 -1.2 0.006349444388796909 2.64198043415405e-05 0.9936205040877636 4.919571527514254e-13 3.6317186000388924e-06
169 1 6.82195 28.494 0 1.2 0.15251010424954814 2.803694834385682e-05 0.8474300239361476 1.8588172014717626e-13 3.183486577464678e-05
170 1 4.10106 33.2017 1.4948 1.2 0.5202277739608777 0.00015374338143025055 0.4791924109604799 1.565061482059807e-10 0.0004260715407118602
171 2 5.89839 30.5175 1.4948 2.4 0.9805875289714636 1.223135173143347e-05 0.019399314702753096 6.365069624211016e-15 9.249740473203472e-07
172 3 5.96289 32.1308 1.4948 -1.2 0.8336963129094721 6.379529900871805e-05 0.1661972787495607 1.317943352410995e-13 4.261304182138596e-05
173 3 2.27266 29.5435 1.4948 -1.2 0.96579244143293 0.00016572827041590969 0.033954430929038736 6.524528365601219e-15 8.739936760401802e-05
174 3 5.19102 29.8114 0.196716 -1.2 0.9206865666652188 2.180623968197961e-05 0.0792662077030096 9.241705517500482e-15 2.5419392076697553e-05
175 1 6.78546 28.494 2.9896 1.2 0.020876914436038032 3.474877693607039e-06 0.9791112139279424 3.622078714692812e-12 8.39675470287914e-06
176 3 5.16061 29.8114 2.79288 -1.2 0.03480721003538989 2.5921710448447842e-05 0.9651461320123697 4.812674162559457e-12 2.0736236976290712e-05
177 1 -0.603205 28.5353 4.4844 1.2 0.00043203727454391 3.2441704413842124e-07 0.9995657528551749 1.7681495950827869e-10 1.885276419197028e-06
178 2 -2.39877 31.2194 4.4844 2.4 0.0007459716491181457 3.377017908545224e-07 0.9992531317921137 1.2137664027291177e-10 5.587356017152415e-07
179 3 -2.46483 29.6062 4.4844 -1.2 3.9183483057450174e-05 5.9548250299958817e-08 0.9999604746323513 1.9401412040875568e-12 2.8233439913992157e-07
180 3 1.22864 32.1935 4.4844 -1.2 0.0010075801603475992 1.3185673139453473e-06 0.9989876448205792 2.3238582842827953e-11 3.456428523694546e-06
181 3 -1.66032 31.9256 3.18632 -1.2 0.003775488437431377 1.218018177796546e-06 0.9962217927707077 5.054259866941654e-12 1.5007686287532323e-06
182 3 -1.69072 31.9256 5.78248 -1.2 0.00017156775272897775 2.2257478085909174e-08 0.9998281694761069 2.2051588947730755e-11 2.404916378270245e-07
183 1 1.7499 30.8685 2.9896 1.2 0.049392768450998124 8.238525541303465e-06 0.9505695290319097 1.0523747117678712e-11 2.9463981026899177e-05
184 1 4.55894 30.8272 4.4844 1.2 0.001130967404174172 6.11770333481598e-08 0.9988681541531177 2.591395649157224e-10 8.170065365879995e-07
185 2 2.7476 32.892 4.4844 2.4 0.0012647473429004015 5.596646474979226e-07 0.9987338184745158 5.28156790719633e-10 8.739897858909546e-07
186 3 2.77235 34.5053 4.4844 -1.2 4.422306835612159e-05 3.297104766253232e-08 0.9999552315520236 2.3658507183438325e-11 5.123849136668297e-07
187 3 -3.87837 31.918 4.4844 -1.2 0.00029565718348219375 3.629852560635148e-07 0.9997028771810231 1.1007770187384836e-11 1.1026392355050614e-06
188 3 3.44611 32.1859 3.18632 -1.2 0.021493570664844173 5.374976524281176e-06 0.9784911446395933 1.2091540288564845e-11 9.90970694011158e-06
189 1 1.7837 30.8685 0 1.2 0.7563475187131896 4.718220649713859e-05 0.24341318039112572 2.577228086823818e-13 0.00019211868892320035
190 3 3.41602 32.1859 5.78248 -1.2 0.00012822446944095613 1.0067572982106099e-08 0.9998716850302827 2.3433316970917886e-11 8.040927514860561e-08
191 1 -1.05984 30.9098 1.4948 1.2 0.767403975976388 0.00012277728217063107 0.23223213912563426 2.463707814697392e-12 0.0002411076133459392
192 2 0.755243 28.8449 1.4948 2.4 0.9050851393563708 1.1546571117897594e-05 0.09490311975465911 5.035510019167728e-15 1.9431785431220047e-07
193 3 0.735127 27.2317 1.4948 -1.2 0.7959154054896281 8.802342973370251e-05 0.20398245764766712 2.9561682973263816e-15 1.4113432972334733e-05
194 3 7.37914 29.819 1.4948 -1.2 0.9250031104268183 0.0002793567914452617 0.07460465363092374 1.3344192280301035e-14 0.00011287915080532126
195 3 0.0850649 29.5511 0.196716 -1.2 0.6510609073344509 7.966439994231901e-05 0.3488309811517649 7.126132608148555e-14 2.844711377402872e-05
196 3 0.0543974 29.5511 2.79288 -1.2 0.07972666405194245 4.348850702356714e-05 0.9202112798940655 1.98924456658338e-12 1.8567544979860986e-05
197 1 6.94543 33.243 0 1.2 0.8608426018953952 4.650203770620857e-05 0.1388303159944421 8.643706350530977e-13 0.00028058007159001967
198 1 4.23267 37.9507 1.4948 1.2 0.13641905170639812 7.96867786914518e-05 0.8632937291154078 2.077464913731741e-09 0.00020753032203980136
199 2 6.02709 35.2665 1.4948 2.4 0.99019250129581 2.111555144663952e-05 0.00978064696395473 9.732244443164375e-14 5.7361886928793755e-06
200 3 6.09339 36.8798 1.4948 -1.2 0.17542544843683341 5.9721854946100785e-05 0.8244650069191888 1.1147815075536378e-11 4.982277787920225e-05
201 3 2.40018 34.2925 1.4948 -1.2 0.883465069437469 0.0004232919150598403 0.11565887401639588 1.855504949478209e-12 0.0004527646292127198
202 3 5.31645 34.5604 0.196716 -1.2 0.9631920063250112 3.0034507059554725e-05 0.036673341427565134 2.1372243422367163e-13 0.00010461774015396228
203 1 6.91449 33.243 2.9896 1.2 0.02886228266710448 6.1583311277752544e-06 0.9711114950629548 4.9968123552342576e-11 2.0063888848741192e-05
204 3 5.291 34.5604 2.79288 -1.2 0.01511975163530219 1.861328086344584e-05 0.9848431956760517 4.307212340494332e-11 1.8439364715099695e-05
205 1 -0.471101 33.2843 4.4844 1.2 0.0017669542712379117 5.948736274701329e-07 0.9982281625832423 1.1130017776709603e-09 4.2871588862425195e-06
206 2 -2.26307 35.9684 4.4844 2.4 0.0001247927042123997 2.2412935415111957e-07 0.9998736727340236 4.2870348774187106e-09 1.3061453746653797e-06
207 3 -2.33122 34.3552 4.4844 -1.2 3.13576075749884e-05 4.368501866177419e-08 0.9999683159953818 2.4378012638508505e-11 2.826876410208045e-07
208 3 1.36549 36.9425 4.4844 -1.2 6.71009449766539e-05 2.421264544821e-07 0.9999316591921698 1.7877573134865386e-10 9.975576278959859e-07
209 3 -1.52658 36.6746 3.18632 -1.2 0.0023478326068796193 1.6011414084088466e-06 0.9976479416882724 9.529422148594765e-11 2.6244681441820207e-06
210 3 -1.55122 36.6746 5.78248 -1.2 3.345816363843181e-05 5.073344711103861e-09 0.9999664549453915 2.488530424431649e-10 8.156876645604433e-08
211 1 1.882 35.6175 2.9896 1.2 0.021259402068324187 6.1202487337109045e-06 0.978714543203445 1.9423378244838978e-10 1.9934285268980177e-05