ITEM: TIMESTEP
2500
ITEM: NUMBER OF ATOMS
10500
ITEM: BOX BOUNDS xy xz yz pp pp pp
0	15.2974	5.099
0	118.725	0
0	89.688	0
ITEM: ATOMS id type xu yu zu q pCrystal pDisloC pDisloB pDisloA
1 1 6.2404 -6.37941e-06 0 1.2 7.003700974323972e-22 2.9481631144635655e-10 0.9999999995354756 1.6970559864835513e-10
2 1 3.46349 4.70768 1.4948 1.2 2.4416191714694746e-07 0.057441111401690614 0.3490584961902862 0.5935001482461104
3 2 5.2885 2.02354 1.4948 2.4 2.08592970600188e-06 0.9968221133937679 0.0020504543860756117 0.00112534629044912
4 3 5.33628 3.63678 1.4948 -1.2 2.3359828240840577e-11 0.9999260709959341 7.39211810851135e-05 7.799617289087296e-09
5 3 1.67294 1.04952 1.4948 -1.2 1.53126038978104e-17 0.7905332545970214 0.2094667341982401 1.1204738023932531e-08
6 3 4.59532 1.31737 0.196716 -1.2 2.5848020576880288e-19 0.3237829208346801 0.6762170791073695 5.795147433763935e-11
7 1 6.18956 -6.37941e-06 2.9896 1.2 5.29717643590749e-26 3.2183495211034462e-09 0.9999999967573956 2.425142122399246e-11
8 3 4.55118 1.31737 2.79288 -1.2 1.059545482095909e-22 0.011029650873520529 0.9889703491147315 1.1744301544243351e-11
9 1 -1.20682 0.0413099 4.4844 1.2 4.53392973998794e-29 4.778980340198454e-10 0.9999999994380744 8.402240833853313e-11
10 2 -3.0337 2.72544 4.4844 2.4 2.945720912979303e-11 0.9907923952778815 0.0020522200427917615 0.0071553846498671695
11 3 -3.08099 1.11221 4.4844 -1.2 2.675103406880116e-24 0.028376255306113696 0.9716237446377369 5.615610420458262e-11
12 3 0.582463 3.69946 4.4844 -1.2 2.267467104376371e-16 0.967924577287544 0.032075372861255017 4.985120283999445e-08
13 3 -2.29524 3.43162 3.18632 -1.2 4.004040475005754e-15 0.9983719943847478 0.0016279988410535635 6.774201040198841e-09
14 3 -2.34216 3.43162 5.78248 -1.2 6.485491358363536e-20 0.7199965062134958 0.2800034881382424 5.648261633376793e-09
15 1 1.12778 2.37449 2.9896 1.2 1.6747323098077683e-19 3.6705011848033734e-06 0.9999956515377776 6.779610399875281e-07
16 1 3.92855 2.33318 4.4844 1.2 2.163256881982266e-25 6.347776593609775e-09 0.9999999680036927 2.5648534025406413e-08
17 2 2.09341 4.39804 4.4844 2.4 0.000571640658016996 0.9992654453869589 0.0001602876114562341 2.626343571010555e-06
18 3 2.09991 6.01128 4.4844 -1.2 6.527477712505007e-08 0.9999972170513232 2.2554152478162746e-06 4.6225864762352464e-07
19 3 -4.52137 3.42402 4.4844 -1.2 1.6638910396367436e-18 0.746839101950189 0.2531608952583987 2.7914112239166647e-09
20 3 2.80834 3.69187 3.18632 -1.2 7.0504645950877976e-15 0.9986057734060308 0.001394224631892466 1.962076165521367e-09
21 1 1.17857 2.37449 0 1.2 1.6870132999861199e-18 2.258149054546207e-06 0.9999952580484172 2.483802533536179e-06
22 3 2.76143 3.69187 5.78248 -1.2 7.404180315445923e-21 0.7584002363256279 0.24159976322587873 4.4849399477524705e-10
23 1 -1.67381 2.41581 1.4948 1.2 6.0850690976405904e-12 0.002072795247270282 0.9970993232402869 0.0008278815063637938
24 2 0.16286 0.350945 1.4948 2.4 1.7379110016976673e-08 0.4587965460751711 0.009131978886480716 0.5320714576592351
25 3 0.15972 -1.26229 1.4948 -1.2 7.552464516151487e-16 0.9544349404652763 0.0455647941213392 2.654133802922733e-07
26 3 6.77654 1.32496 1.4948 -1.2 1.355530384315074e-15 0.977439993640924 0.02255998900778843 1.735128975259954e-08
27 3 -0.508028 1.05712 0.196716 -1.2 1.311645693653307e-19 0.17864792904807636 0.8213520689196825 2.0322452372989267e-09
28 3 -0.552171 1.05712 2.79288 -1.2 8.384091657454417e-22 0.193582998570456 0.8064170002061771 1.2233723186177629e-09
29 1 6.31713 4.74899 0 1.2 2.7736333696167262e-08 0.08098356735432222 0.8093553573894328 0.10966104751991464
30 1 3.54847 9.45668 1.4948 1.2 0.8870725129741804 0.11259728298673456 6.3898274499532454e-15 0.00033020403908476305
31 2 5.36879 6.77254 1.4948 2.4 0.9999999582633032 4.1736692914633243e-08 2.1562033362926397e-23 2.34576554975851e-19
32 3 5.41937 8.38578 1.4948 -1.2 0.9564438219866647 0.04355607199914101 3.809798597881277e-17 1.0601418883885297e-07
33 3 1.75158 5.79852 1.4948 -1.2 0.0008846747135135741 0.9991139297509481 4.426196347145861e-11 1.3954912804977345e-06
34 3 4.67421 6.06637 0.196716 -1.2 5.015278922851142e-06 0.9999949432240627 1.985449334034006e-08 2.1642516810537595e-08
35 1 6.26654 4.74899 2.9896 1.2 3.4119643995319815e-10 0.0015458490092017567 0.19935935196325916 0.799094798686342
36 3 4.63043 6.06637 2.79288 -1.2 4.814212855900594e-07 0.9999991624973842 1.7638952620603352e-07 1.796918060096168e-07
37 1 -1.12976 4.79031 4.4844 1.2 1.0109678161508468e-10 8.180598174721951e-05 0.912980337270225 0.08693785664693354
38 2 -2.9517 7.47444 4.4844 2.4 0.9999995245856887 4.754143071574956e-07 2.2170545120313614e-15 8.810343386360467e-17
39 3 -3.00198 5.86121 4.4844 -1.2 2.458735660513515e-10 0.9999409838564426 5.896026419086376e-05 5.5633490167179756e-08
40 3 0.666315 8.44846 4.4844 -1.2 0.0015923902470068902 0.9984057532069033 3.1132231665728145e-09 1.8534328708219802e-06
41 3 -2.21213 8.18062 3.18632 -1.2 0.007607535700763674 0.9923921940932456 3.5107408571086057e-10 2.698549224851102e-07
42 3 -2.25864 8.18062 5.78248 -1.2 5.235120341085052e-05 0.9999467869496302 2.1529979827731365e-07 6.465471568266361e-07
43 1 1.20893 7.12349 2.9896 1.2 0.013069170531759555 0.26577589561702314 8.379091493499735e-07 0.7211540959420628
44 1 4.00982 7.08218 4.4844 1.2 9.173127200207589e-05 0.0018898701986990898 0.0003193090778495591 0.9976990894514491
45 2 2.17861 9.14704 4.4844 2.4 0.999999999999929 7.712919453866254e-14 8.05421928679977e-27 1.5760234006403474e-27
46 3 2.18828 10.7603 4.4844 -1.2 0.8272837846123806 0.1727157256817318 4.4665639683586524e-14 4.897058474087665e-07
47 3 -4.43805 8.17302 4.4844 -1.2 0.0001764416787885682 0.9998223274479088 1.003940131505245e-07 1.130479296642908e-06
48 3 2.89193 8.44087 3.18632 -1.2 0.032196927240984156 0.9678016711702273 4.5336963286187916e-11 1.4015434499927878e-06
49 1 1.25915 7.12349 0 1.2 0.07647026937707042 0.7729378859326216 6.540452234743663e-08 0.1505917792857792
50 3 2.84547 8.44087 5.78248 -1.2 0.00016582389100064303 0.9998334824895415 8.189716884158671e-08 6.117222898163266e-07
51 1 -1.59284 7.16481 1.4948 1.2 0.10267689749501734 0.8509446960353482 5.078349940046179e-09 0.0463784013912875
52 2 0.240329 5.09994 1.4948 2.4 0.9980227538522664 0.0019772461180432863 4.449166932839599e-15 2.969081372239265e-11
53 3 0.234538 3.48671 1.4948 -1.2 1.4653288957273294e-12 0.9998819723642536 0.00011797162541762673 5.600885917599764e-08
54 3 6.85564 6.07396 1.4948 -1.2 1.1472783212360308e-05 0.999988181887789 4.015729604548392e-09 3.413132741994807e-07
55 3 -0.429565 5.80612 0.196716 -1.2 1.50650359524077e-06 0.9999984339650935 4.3094089860960135e-08 1.6437220627767908e-08
56 3 -0.473377 5.80612 2.79288 -1.2 4.371048500601479e-08 0.9999983529476061 1.5299603480014513e-06 7.338155723343081e-08
57 1 6.40169 9.49799 0 1.2 0.9466099934626642 0.05338663938844118 8.348982404430554e-17 3.367148901432253e-06
58 1 3.64209 14.2057 1.4948 1.2 0.9677774982985402 0.03220934781132134 4.952891592306755e-18 1.315389013121528e-05
59 2 5.45748 11.5215 1.4948 2.4 0.9999999999999432 5.1619710273150794e-14 2.9971259582481563e-36 6.044755525843452e-33
60 3 5.51101 13.1348 1.4948 -1.2 0.9992216210596289 0.0007783779660970535 1.6923741815996991e-22 9.74276360502158e-10
61 3 1.83851 10.5475 1.4948 -1.2 0.9990833492732146 0.0009166488638870531 6.0837619715882005e-21 1.862892647424585e-09
62 3 4.7611 10.8154 0.196716 -1.2 0.9805406052782407 0.019459390759370723 3.067379607567672e-17 3.96238986522562e-09
63 1 6.35203 9.49799 2.9896 1.2 0.6861554471595068 0.30754684013611405 3.342592214068655e-13 0.006297712704047596
64 3 4.71833 10.8154 2.79288 -1.2 0.9314421216629327 0.0685578081379909 6.306597560528412e-15 7.019907310824703e-08
65 1 -1.0438 9.53931 4.4844 1.2 0.408286314565924 0.12585567199540207 1.0001384949138686e-08 0.46585800343728334
66 2 -2.8604 12.2234 4.4844 2.4 1.0 3.424457121378852e-16 4.469349861171583e-31 3.389865518354307e-32
67 3 -2.91391 10.6102 4.4844 -1.2 0.7521998176005921 0.2477994747174644 1.0420959994575213e-13 7.076818353361809e-07
68 3 0.7596 13.1975 4.4844 -1.2 0.45867355636771723 0.541325995890035 8.272332243395043e-13 4.477414260199478e-07
69 3 -2.12001 12.9296 3.18632 -1.2 0.9718416122782365 0.028158378171058464 4.522843723632059e-16 9.550698376486257e-09
70 3 -2.16532 12.9296 5.78248 -1.2 0.8148684912896779 0.18513145741241163 7.387394072609723e-14 5.1297831306410055e-08
71 1 1.29891 11.8725 2.9896 1.2 0.9398549751864482 0.05939780726146556 4.073340960588558e-16 0.0007472175520882372
72 1 4.10033 11.8312 4.4844 1.2 0.8576012212157751 0.052506474642764436 2.8439031915841643e-13 0.08989230414118125
73 2 2.27333 13.896 4.4844 2.4 1.0 7.596700355250119e-18 2.658380546432347e-33 1.4771467123232121e-35
74 3 2.28634 15.5093 4.4844 -1.2 0.9900355223476982 0.009964472461711817 3.602737059650048e-17 5.190584883925887e-09
75 3 -4.34533 12.922 4.4844 -1.2 0.40024263123139225 0.5997568226260527 2.4185737156042626e-12 5.461401365967825e-07
76 3 2.98455 13.1899 3.18632 -1.2 0.9547538039955611 0.04524618122806011 3.128949848305486e-15 1.4776372666068648e-08
77 1 1.34779 11.8725 0 1.2 0.9656887055683253 0.0343034228569881 4.744149125489274e-18 7.871574685787146e-06
78 3 2.93934 13.1899 5.78248 -1.2 0.8625944178222897 0.13740554205903455 3.8970475203671655e-14 4.01186357860602e-08
79 1 -1.50344 11.9138 1.4948 1.2 0.9653150206338246 0.034670333247869466 8.324654035462074e-18 1.4646118309517605e-05
80 2 0.326006 9.84894 1.4948 2.4 0.9999999999980957 1.904536619514274e-12 8.533750705497536e-34 1.4975752152028898e-30
81 3 0.317364 8.23571 1.4948 -1.2 0.8033397531853721 0.19665982172460547 1.347344432591089e-15 4.250900280933879e-07
82 3 6.94307 10.823 1.4948 -1.2 0.9972121282801819 0.0027878694970789567 9.925225621855979e-20 2.2227418731360518e-09
83 3 -0.343122 10.5551 0.196716 -1.2 0.9719515543872848 0.028048441405674595 1.5421862747008422e-16 4.207045514695583e-09
84 3 -0.385966 10.5551 2.79288 -1.2 0.9184481512554751 0.08155180876991075 1.3098619530276456e-14 3.9974604665124276e-08
85 1 6.49448 14.247 0 1.2 0.98065278619555 0.01934705250219833 1.277202411837351e-20 1.6130225681726093e-07
86 1 3.74457 18.9547 1.4948 1.2 0.9623774132423988 0.03761515829041878 8.055411371187523e-18 7.428467184566975e-06
87 2 5.55495 16.2705 1.4948 2.4 0.999999999999929 6.419517986657563e-14 1.1241433954377643e-37 1.2007050266143138e-32
88 3 5.6115 17.8838 1.4948 -1.2 0.9971244740423084 0.002875525559365527 5.867979188738634e-22 3.9832990129942193e-10
89 3 1.93416 15.2965 1.4948 -1.2 0.9995115712165319 0.0004884285847884581 3.9826462403150344e-23 1.986741311048437e-10
90 3 4.85636 15.5644 0.196716 -1.2 0.9938837474644376 0.006116251139905663 1.4416389663682793e-19 1.3956629834657926e-09
91 1 6.44662 14.247 2.9896 1.2 0.945518046153948 0.0542875748014152 2.6224322735297486e-17 0.00019437904463782756
92 3 4.81537 15.5644 2.79288 -1.2 0.9898291843058955 0.010170813534740435 2.3753396585061147e-17 2.159360223191758e-09
93 1 -0.948271 14.2883 4.4844 1.2 0.9273311876899417 0.034538585738649784 1.3657327481266092e-13 0.038130226571273525
94 2 -2.75928 16.9724 4.4844 2.4 1.0 1.2070383014704925e-19 4.624228304584699e-36 1.345338582503341e-35
95 3 -2.81617 15.3592 4.4844 -1.2 0.9588057458328697 0.041194222124603476 1.5615167661559437e-15 3.2042532051533214e-08
96 3 0.862762 17.9465 4.4844 -1.2 0.859741651568107 0.14025832887292913 3.534855017457522e-15 1.9558964579414246e-08
97 3 -2.0185 17.6786 3.18632 -1.2 0.9849596330508652 0.015040366375290331 5.3170329463079696e-17 5.738458267955022e-10
98 3 -2.06164 17.6786 5.78248 -1.2 0.9913718182350223 0.008628179916084978 1.1380732939277506e-17 1.8488944101347934e-09
99 1 1.39817 16.6215 2.9896 1.2 0.9557294150516297 0.04415891577659326 5.2802832548073064e-18 0.00011166917177368046
100 1 4.20062 16.5802 4.4844 1.2 0.9625509631594088 0.022479813501782353 3.5889073466036254e-13 0.014969223338447206
101 2 2.37796 18.645 4.4844 2.4 1.0 5.664305989311294e-21 5.407344625942137e-37 5.062801247302875e-38
102 3 2.39434 20.2583 4.4844 -1.2 0.9917994676529245 0.008200532187122689 6.1382102220207086e-18 1.599462148573692e-10
103 3 -4.24274 17.671 4.4844 -1.2 0.727045243130213 0.2729547418085917 2.0082916764478994e-14 1.5061175431171575e-08
104 3 3.08659 17.9389 3.18632 -1.2 0.9696583145811206 0.030341684608616935 5.678425480303688e-16 8.102653254776498e-10
105 1 1.44478 16.6215 0 1.2 0.9476873788168668 0.05231115450571751 3.136432433215927e-20 1.4666774157178824e-06
106 3 3.0436 17.9389 5.78248 -1.2 0.9580644527786769 0.04193554616803015 5.38779415585743e-16 1.0532866848281503e-09
107 1 -1.40524 16.6628 1.4948 1.2 0.9720839106470994 0.027914299815706527 1.6680140176650682e-19 1.789537190102683e-06
108 2 0.420358 14.5979 1.4948 2.4 0.9999999999999432 6.327807170516253e-14 2.832950619415782e-36 2.1838664706484962e-33
109 3 0.408732 12.9847 1.4948 -1.2 0.9984291342264775 0.0015708652947465788 2.0129606583715194e-21 4.787765396991461e-10
110 3 7.03923 15.572 1.4948 -1.2 0.998583234320861 0.0014167652419690936 1.3811178973314788e-21 4.371654588985874e-10
111 3 -0.248332 15.3041 0.196716 -1.2 0.9898780854336913 0.010121912477085876 1.6976068005032707e-19 2.0892181572106486e-09
112 3 -0.289436 15.3041 2.79288 -1.2 0.9865493086708831 0.013450685137240771 2.1347001680451002e-17 6.191870028648234e-09
113 1 6.59566 18.996 0 1.2 0.9629680715624044 0.037031882796279586 3.6985323363557073e-20 4.564131013550239e-08
114 1 3.85574 23.7037 1.4948 1.2 0.9713847839691216 0.02861514126757553 1.3627934998895034e-20 7.476330640249059e-08
115 2 5.66125 21.0195 1.4948 2.4 1.0 3.467306838484529e-18 3.111471932456513e-39 6.944170805240189e-35
116 3 5.72074 22.6328 1.4948 -1.2 0.9972657123917226 0.002734287587726521 7.529393733886781e-22 2.0550714020329063e-11
117 3 2.03867 20.0455 1.4948 -1.2 0.9994358395131385 0.0005641604747635512 1.7019058545435118e-23 1.2101560327876925e-11
118 3 4.96004 20.3134 0.196716 -1.2 0.9926425011039093 0.00735749877028147 2.599753430869921e-19 1.2580382408686007e-10
119 1 6.55057 18.996 2.9896 1.2 0.9664170465032296 0.033562330450616455 9.719591023915013e-18 2.0623046147623174e-05
120 3 4.92172 20.3134 2.79288 -1.2 0.9776351964036061 0.022364803431257706 9.557507282172254e-17 1.6513876025080573e-10
121 1 -0.84282 19.0373 4.4844 1.2 0.9775763718108933 0.02054018914331501 6.238938343509836e-16 0.0018834390457850858
122 2 -2.64823 21.7214 4.4844 2.4 1.0 4.472631386050255e-23 5.4006269640522394e-39 5.0124909226012586e-39
123 3 -2.70847 20.1082 4.4844 -1.2 0.9751123684419681 0.0248876310458479 2.8603585765234395e-16 5.121860726085955e-10
124 3 0.97581 22.6955 4.4844 -1.2 0.9429259319008853 0.05707406794291594 2.129373267131669e-17 1.5619199889277346e-10
125 3 -1.9076 22.4276 3.18632 -1.2 0.9896305618729009 0.010369438117857963 8.942743176778433e-18 9.245738518328158e-12
126 3 -1.9475 22.4276 5.78248 -1.2 0.9907525012787147 0.00924749868895004 2.2845769119860025e-18 3.2339519644498894e-11
127 1 1.50678 21.3705 2.9896 1.2 0.970817234075794 0.02918079125025595 4.0132580762337727e-20 1.974673945788482e-06
128 1 4.31086 21.3292 4.4844 1.2 0.9921413830383136 0.007430953179120543 5.135742665559179e-14 0.0004276637825178996
129 2 2.49243 23.394 4.4844 2.4 1.0 1.6067338590163475e-24 1.3874764033349571e-39 3.5521587417560117e-40
130 3 2.51204 25.0073 4.4844 -1.2 0.9664948447746361 0.033505155204099635 3.993958792807098e-17 2.125935886732109e-11
131 3 -4.13026 22.42 4.4844 -1.2 0.7447172659290601 0.25528273378215016 1.5236342354578315e-15 2.887862775516477e-10
132 3 3.19799 22.6879 3.18632 -1.2 0.9836939392256633 0.016306060758080682 3.207675495242364e-17 1.6252809167460578e-11
133 1 1.5501 21.3705 0 1.2 0.9672495480488559 0.03275043434457531 9.28057633317876e-21 1.7606575723988478e-08
134 3 3.1583 22.6879 5.78248 -1.2 0.9474985831426683 0.0525014168354007 1.7083284271831586e-16 2.192698757603639e-11
135 1 -1.29822 21.4118 1.4948 1.2 0.9801707075191964 0.019829254662277477 3.362046068772125e-20 3.7818532408756493e-08
136 2 0.523568 19.3469 1.4948 2.4 1.0 5.704925660416382e-16 3.919268123840378e-37 2.8848853890300073e-33
137 3 0.508934 17.7337 1.4948 -1.2 0.9945824054116553 0.005417594207178126 8.999958243461187e-21 3.8117112698963933e-10
138 3 7.14425 20.321 1.4948 -1.2 0.9984749954917412 0.001525004497691287 3.0589148740054507e-22 1.0571643053839182e-11
139 3 -0.145107 20.0531 0.196716 -1.2 0.9858288632166715 0.014171136622429853 9.162770830633095e-19 1.608975582992302e-10
140 3 -0.183601 20.0531 2.79288 -1.2 0.9945306556563325 0.005469344299146395 1.079940627738726e-18 4.452359042874702e-11
141 1 6.70502 23.745 0 1.2 0.965859373291069 0.03414062455427482 8.038880240255361e-22 2.154658559778008e-09
142 1 3.97493 28.4527 1.4948 1.2 0.9833748623861683 0.01662513278829111 3.4866500390660205e-23 4.825545178816141e-09
143 2 5.77602 25.7685 1.4948 2.4 1.0 1.9999893567826535e-21 2.1609184894388994e-40 8.948738982202826e-37
144 3 5.83821 27.3818 1.4948 -1.2 0.9996893655765018 0.0003106344220292688 1.3406422566630284e-23 1.4736129840103448e-12
145 3 2.15175 24.7945 1.4948 -1.2 0.9997995301985089 0.00020046980100423798 2.8595856398229992e-25 4.828429236465176e-13
146 3 5.07184 25.0624 0.196716 -1.2 0.9990649836669822 0.000935016329983094 3.1965170811920607e-21 3.028138087032615e-12
147 1 6.66374 23.745 2.9896 1.2 0.9778450688796959 0.022154674890676646 8.980183108804712e-21 2.562296295044288e-07
148 3 5.03707 25.0624 2.79288 -1.2 0.993141959889818 0.006858040096083038 1.5583415809821219e-18 1.4092569076905956e-11
149 1 -0.727559 23.7863 4.4844 1.2 0.9899610023803725 0.00999762313546549 3.040329485850421e-17 4.137448415805341e-05
150 2 -2.5277 26.4704 4.4844 2.4 1.0 9.554610871349581e-26 8.215025037509508e-40 3.144830359333466e-41
151 3 -2.59107 24.8572 4.4844 -1.2 0.9577044297350941 0.042295570225561574 2.7594077356407512e-17 3.9349758199631356e-11
152 3 1.09817 27.4445 4.4844 -1.2 0.9548303414729269 0.04516965851071662 1.6310305945405013e-18 1.6349797954992845e-11
153 3 -1.78784 27.1766 3.18632 -1.2 0.9901856555896742 0.009814344408317185 7.0314446053798e-19 2.014991833236643e-12
154 3 -1.82343 27.1766 5.78248 -1.2 0.9803527474287113 0.019647252569215935 3.7511287759682124e-19 2.078295480944679e-12
155 1 1.62435 26.1195 2.9896 1.2 0.9859077242395994 0.014092203273083949 1.9246128512641946e-22 7.248731243026216e-08
156 1 4.43064 26.0782 4.4844 1.2 0.9943546188603964 0.005633086564946302 1.4059869622925443e-15 1.2294574658492829e-05
157 2 2.61607 28.143 4.4844 2.4 1.0 4.38224901431045e-27 7.411302343734162e-40 2.7114491343332387e-42
158 3 2.63853 29.7563 4.4844 -1.2 0.7008054323938968 0.29919456755357815 1.4486072564784409e-15 5.2516892622554985e-11
159 3 -4.00841 27.169 4.4844 -1.2 0.8537721542384268 0.14622784572365477 1.905020280151273e-17 3.7913311357246634e-11
160 3 3.3182 27.4369 3.18632 -1.2 0.9939341633280196 0.006065836669542054 7.636328185449095e-19 2.4349392828479953e-12
161 1 1.66335 26.1195 0 1.2 0.9485297454416746 0.0514702533715326 3.5770983813256615e-23 1.1867879806131645e-09
162 3 3.28288 27.4369 5.78248 -1.2 0.9382070374386801 0.061792962552850515 1.698118905244985e-17 8.467545135238741e-12
163 1 -1.18278 26.1608 1.4948 1.2 0.9859655286132037 0.014034470036459828 4.256996326837499e-23 1.3503385248519126e-09
164 2 0.635424 24.0959 1.4948 2.4 1.0 1.3782369508141347e-19 5.069146882009083e-38 1.9552990115524384e-36
165 3 0.617906 22.4827 1.4948 -1.2 0.9982092648919175 0.0017907351034280625 1.8276482233470082e-21 4.653146235942406e-12
166 3 7.25781 25.07 1.4948 -1.2 0.9995638365281636 0.00043616347127898035 1.2318938835191424e-23 5.619210577332417e-13
167 3 -0.0337363 24.8021 0.196716 -1.2 0.9967700033978766 0.003229996598246923 9.05802794596045e-20 3.881721602779343e-12
168 3 -0.0687235 24.8021 2.79288 -1.2 0.9971709182765924 0.0028290817186638175 1.7303278013448808e-19 4.737724811301517e-12
169 1 6.82195 28.494 0 1.2 0.9633116301253791 0.03668836855862632 2.243073310304896e-23 1.315994402772464e-09
170 1 4.10106 33.2017 1.4948 1.2 0.9905712102924324 0.009428778127733581 1.7117107079101492e-23 1.1579836474963666e-08
171 2 5.89839 30.5175 1.4948 2.4 1.0 1.3261399949504031e-24 3.449520377704585e-41 1.176792743459514e-38
172 3 5.96289 32.1308 1.4948 -1.2 0.99957846015562 0.00042153984311093644 6.683954514874793e-23 1.2750348302307332e-12
173 3 2.27266 29.5435 1.4948 -1.2 0.9998753601079678 0.0001246398914808146 3.8276255963017555e-25 5.465566976549803e-13
174 3 5.19102 29.8114 0.196716 -1.2 0.9998979815740424 0.00010201842577624759 2.858982977502121e-23 1.7495046383086107e-13
175 1 6.78546 28.494 2.9896 1.2 0.9910059864967757 0.008993893793624806 3.857912595833388e-22 1.1970959646871656e-07
176 3 5.16061 29.8114 2.79288 -1.2 0.9919638676146327 0.008036132380349038 5.427233413781823e-19 5.0251561121898e-12
177 1 -0.603205 28.5353 4.4844 1.2 0.9966573807223735 0.003341649032460122 2.4179311505531172e-18 9.702451702762875e-07
178 2 -2.39877 31.2194 4.4844 2.4 1.0 4.734397517654291e-27 4.072513932083108e-39 1.116085454568092e-41
179 3 -2.46483 29.6062 4.4844 -1.2 0.5780554527032136 0.42194454722402425 1.5508421880997467e-15 7.276731169822052e-11
180 3 1.22864 32.1935 4.4844 -1.2 0.5046148952310889 0.4953851046335636 5.724424265042516e-16 1.3534926717006818e-10
181 3 -1.66032 31.9256 3.18632 -1.2 0.9733840927480772 0.026615907247325883 5.262230673020459e-18 4.59297274408632e-12
182 3 -1.69072 31.9256 5.78248 -1.2 0.6878583591766514 0.31214164079633194 3.1074200185284975e-17 2.7016855454128206e-11
183 1 1.7499 30.8685 2.9896 1.2 0.9925104715630558 0.007489358581456875 1.5505050597505048e-21 1.698554925126223e-07
184 1 4.55894 30.8272 4.4844 1.2 0.9982151070622167 0.0017828386203786164 3.36677674493809e-16 2.0543174085706567e-06
185 2 2.7476 32.892 4.4844 2.4 1.0 1.3105473974032902e-25 1.4111011578936661e-36 9.145638479140554e-41
186 3 2.77235 34.5053 4.4844 -1.2 0.1926388761157764 0.8073611235717483 3.299695187635557e-14 3.1243652610380003e-10
187 3 -3.87837 31.918 4.4844 -1.2 0.20980396541997243 0.7901960345120411 1.0725517202066113e-15 6.798341623983364e-11
188 3 3.44611 32.1859 3.18632 -1.2 0.9482660363011345 0.05173396368208712 3.3490623419192056e-17 1.6776337833926814e-11
189 1 1.7837 30.8685 0 1.2 0.975266205851907 0.024733793306066763 1.5544101389971583e-25 8.420282787586909e-10
190 3 3.41602 32.1859 5.78248 -1.2 0.41283424446610967 0.587165755519299 7.067251711419001e-16 1.4587279949767068e-11
191 1 -1.05984 30.9098 1.4948 1.2 0.9877324806480504 0.01226751837384381 2.1393336142876393e-25 9.781012088325793e-10
192 2 0.755243 28.8449 1.4948 2.4 1.0 3.914641878277901e-24 1.8826943834919527e-40 5.346043401603908e-39
193 3 0.735127 27.2317 1.4948 -1.2 0.9997645119686368 0.0002354880311806716 2.5214873363214567e-23 1.759267344069166e-13
194 3 7.37914 29.819 1.4948 -1.2 0.9994175524870857 0.0005824475109418905 1.5669616922887247e-23 1.978223120359721e-12
195 3 0.0850649 29.5511 0.196716 -1.2 0.998698121814837 0.0013018781845709584 4.520641507831404e-20 5.922570116369831e-13
196 3 0.0543974 29.5511 2.79288 -1.2 0.9968696898663312 0.0031303101319027846 3.633926314218643e-20 1.7615024291355035e-12
197 1 6.94543 33.243 0 1.2 0.979934893709736 0.020065105670585403 2.3181564099814226e-25 6.196761941974932e-10
198 1 4.23267 37.9507 1.4948 1.2 0.9761410540770754 0.023858851119743164 6.826419387919106e-21 9.480318429838236e-08
199 2 6.02709 35.2665 1.4948 2.4 1.0 8.799718476037547e-25 5.781006155521365e-40 5.015075212154718e-38
200 3 6.09339 36.8798 1.4948 -1.2 0.9979289546383779 0.002071045344666001 6.294218608739292e-20 1.695281756435078e-11
201 3 2.40018 34.2925 1.4948 -1.2 0.9990678048274177 0.0009321951622559329 2.489565085167448e-22 1.0332106898870725e-11
202 3 5.31645 34.5604 0.196716 -1.2 0.9999048898022699 9.511019730118055e-05 3.902587851226485e-23 4.326800627068173e-13
203 1 6.91449 33.243 2.9896 1.2 0.9911241675319818 0.00887546613026582 3.020215644389827e-21 3.6633775550003165e-07
204 3 5.291 34.5604 2.79288 -1.2 0.8746741228521434 0.12532587709479434 1.650196034868765e-16 5.30603754895784e-11
205 1 -0.471101 33.2843 4.4844 1.2 0.9974279574963679 0.002569637798230625 2.485421909713243e-16 2.4047054068518224e-06
206 2 -2.26307 35.9684 4.4844 2.4 1.0 3.0898261204256582e-24 2.0569621939179855e-33 1.1544392316684052e-38
207 3 -2.33122 34.3552 4.4844 -1.2 0.08382807299316704 0.9161719268436778 3.970656931881359e-14 1.631160918409645e-10
208 3 1.36549 36.9425 4.4844 -1.2 0.05883593642739621 0.9411640634375512 2.2751250897155103e-13 1.34830060498967e-10
209 3 -1.52658 36.6746 3.18632 -1.2 0.8304307521444502 0.16956924779214408 2.4710343612370943e-15 6.3400347566405e-11
210 3 -1.55122 36.6746 5.78248 -1.2 0.09192650297971137 0.9080734970129287 5.514334776209369e-15 7.357166189070708e-12
211 1 1.882 35.6175 2.9896 1.2 0.987984312033854 0.01201472684038873 1.5296712061332214e-19 9.611257596301999e-07
212 1 4.69415 35.5762 4.4844 1.2 0.9975784656421516 0.0023962406484600743 2.3723774552048384e-14 2.5293709358168582e-05
213 2 2.88522 37.641 4.4844 2.4 1.0 9.517957375352985e-24 1.97712023726173e-33 4.153235987819397e-39
214 3 2.91159 39.2543 4.4844 -1.2 0.067479226255306 0.9325207737091351 7.924913645668824e-13 3.47727602640085e-11
215 3 -3.74183 36.667 4.4844 -1.2 0.01323249058363533 0.9867675093294127 2.2457164641468405e-13 8.673041778541643e-11
216 3 3.58014 36.9349 3.18632 -1.2 0.8970667095610078 0.10293329037875355 9.966552684943852e-16 6.023278397075308e-11
217 1 1.90997 35.6175 0 1.2 0.9709385559879963 0.02906144078458651 3.345209456865587e-24 3.2274158289750585e-09
218 3 3.55582 36.9349 5.78248 -1.2 0.08622570717695557 0.9137742928153907 1.571014833851499e-14 7.644607076222799e-12
219 1 -0.93068 35.6588 1.4948 1.2 0.9912911867252393 0.00870881037370063 2.4398119241557362e-24 2.9010644348667055e-09
220 2 0.881882 33.5939 1.4948 2.4 1.0 1.384844672334401e-25 3.6166848431117977e-40 3.3292697883129703e-38
221 3 0.859602 31.9807 1.4948 -1.2 0.9996830157163438 0.0003169842833497343 2.3998418259804184e-23 3.037712115238858e-13
222 3 7.507 34.568 1.4948 -1.2 0.9985135009122457 0.0014864990646304074 1.318614235948191e-22 2.3121006186648897e-11
223 3 0.210186 34.3001 0.196716 -1.2 0.9989691721754075 0.0010308278203367339 1.0289690920113397e-20 4.260576563083227e-12
224 3 0.184454 34.3001 2.79288 -1.2 0.9798007864438879 0.02019921352294418 4.836358343389363e-18 3.316267359535974e-11
225 1 7.07415 37.992 0 1.2 0.9459089325108931 0.054091048814480513 1.1282743227851591e-22 1.8674627462898814e-08
226 1 4.36817 42.6997 1.4948 1.2 0.9486514152964691 0.05134784488635931 6.66148917043296e-17 7.398171698752591e-07
227 2 6.16058 40.0155 1.4948 2.4 1.0 4.552484075718358e-21 3.3708912610854826e-33 1.5272966392907876e-34
228 3 6.22815 41.6288 1.4948 -1.2 0.9323293314358607 0.06767066836385825 4.608730265007611e-15 2.0028205172184475e-10
229 3 2.53282 39.0415 1.4948 -1.2 0.997134983446654 0.0028650164068902547 4.939112834167809e-20 1.4644974907717184e-10
230 3 5.44674 39.3094 0.196716 -1.2 0.9989179796525954 0.0010820203327029543 1.8547902594785205e-19 1.4707363752392202e-11
231 1 7.04922 37.992 2.9896 1.2 0.9879291428044604 0.012056828022268165 8.829234403264541e-17 1.4029173267438692e-05
232 3 5.42658 39.3094 2.79288 -1.2 0.8616898218797288 0.1383101780134475 5.117846421086984e-15 1.068216040747278e-10
233 1 -0.333062 38.0333 4.4844 1.2 0.997640494572069 0.0023371217222721 7.116926852336868e-14 2.238370559247187e-05
234 2 -2.12255 40.7174 4.4844 2.4 1.0 5.118956219591692e-23 4.851326827623954e-31 7.897202722739985e-39
235 3 -2.19212 39.1042 4.4844 -1.2 0.0577651152011079 0.9422348847421455 5.205423473800554e-13 5.622355864115191e-11
236 3 1.50676 41.6915 4.4844 -1.2 0.007133565759707485 0.9928664341839085 2.889699854663537e-11 2.748945557272597e-11
237 3 -1.3884 41.4236 3.18632 -1.2 0.1348144968318774 0.8651855031272946 2.6672561616320507e-12 3.816070034658162e-11
238 3 -1.40713 41.4236 5.78248 -1.2 0.025907686709579176 0.9740923132884904 1.8196505780835216e-13 1.746109738515356e-12
239 1 2.01892 40.3665 2.9896 1.2 0.9514083033351386 0.04828774649874584 3.003317278289394e-12 0.00030395016310667984
240 1 4.83434 40.3252 4.4844 1.2 0.9978354314758954 0.0021270609716490976 4.188962749127119e-12 3.7507548264571105e-05
241 2 3.02698 42.39 4.4844 2.4 1.0 7.057345145635651e-23 2.0712576230148713e-30 3.059264295259442e-39
242 3 3.05433 44.0033 4.4844 -1.2 0.021006478248294196 0.9789935217286017 1.735200957541109e-11 5.758374442643056e-12
243 3 -3.60077 41.416 4.4844 -1.2 0.011063226028066288 0.9889367739619767 4.423949856223175e-12 5.539322369928756e-12
244 3 3.71851 41.6839 3.18632 -1.2 0.5182492579120449 0.4817507420053113 7.338392505951529e-13 8.190647572925006e-11
245 1 2.04077 40.3665 0 1.2 0.8759040065853541 0.12409578748303529 2.0216591206945106e-20 2.0593161256094489e-07
246 3 3.70011 41.6839 5.78248 -1.2 0.007780855578201826 0.9922191444204279 6.83924838911424e-13 6.906535360038369e-13
247 1 -0.796865 40.4078 1.4948 1.2 0.9607358715375329 0.039263845611370765 1.7755576017002648e-19 2.828510938869176e-07
248 2 1.01387 38.3429 1.4948 2.4 1.0 7.162712667516036e-23 1.0414507115234623e-35 1.281194211044054e-35
249 3 0.989947 36.7297 1.4948 -1.2 0.9985274139337863 0.0014725860574523815 4.22416597075485e-21 8.763187520384185e-12
250 3 7.63988 39.317 1.4948 -1.2 0.995389402810077 0.004610596986680594 7.775411295682254e-20 2.032466329478901e-10
251 3 0.340253 39.0491 0.196716 -1.2 0.9986950883256648 0.0013049116510728638 1.6741867777860697e-19 2.326900977523261e-11
252 3 0.319795 39.0491 2.79288 -1.2 0.7692842107006223 0.23071578915906316 2.1478526516227393e-14 1.4028854433924794e-10
253 1 7.20667 42.741 0 1.2 0.817501955776769 0.18249752640900513 1.780408214759063e-17 5.178142189797042e-07
254 1 4.50613 47.4487 1.4948 1.2 0.9720583722344255 0.027940357644152196 2.3555828624519418e-14 1.2701214037589004e-06
255 2 6.29731 44.7645 1.4948 2.4 1.0 8.736411415451897e-19 5.550594081505081e-29 8.830771691208916e-34
256 3 6.36567 46.3778 1.4948 -1.2 0.364493319965904 0.6355066798716295 2.828569989237105e-12 1.5963864070930223e-10