ITEM: TIMESTEP
13900
ITEM: NUMBER OF ATOMS
10500
ITEM: BOX BOUNDS xy xz yz pp pp pp
0	15.2974	5.099
0	118.725	0
0	89.688	0
ITEM: ATOMS id type xu yu zu q pCrystal pDisloC pDisloB pDisloA
1 1 6.2404 -6.37941e-06 0 1.2 1.4757809823561009e-21 7.513710765680078e-10 0.9999999989854444 2.631826165735802e-10
2 1 3.46349 4.70768 1.4948 1.2 3.9849266338165996e-07 0.033064974151271624 0.626890993269803 0.3400436340862574
3 2 5.2885 2.02354 1.4948 2.4 4.166389762153343e-06 0.9976338097196206 0.0013062314841090993 0.0010557924065060069
4 3 5.33628 3.63678 1.4948 -1.2 3.2496384186934034e-11 0.9999587536408894 4.1238644280526506e-05 7.682340723778782e-09
5 3 1.67294 1.04952 1.4948 -1.2 2.6861429019254598e-17 0.8165182088436634 0.18348178357964892 7.576687478771823e-09
6 3 4.59532 1.31737 0.196716 -1.2 1.3053004625376087e-18 0.46473331427035275 0.5352666854852879 2.443528980836335e-10
7 1 6.18956 -6.37941e-06 2.9896 1.2 1.685987621745126e-25 2.1122210424571512e-09 0.9999999978735445 1.4237184102898464e-11
8 3 4.55118 1.31737 2.79288 -1.2 4.093360471132824e-21 0.03518745696066975 0.964812543010554 2.8775058095297136e-11
9 1 -1.20682 0.0413099 4.4844 1.2 1.0512305918269484e-27 2.0837437893898556e-10 0.9999999997765059 1.5125756712087196e-11
10 2 -3.0337 2.72544 4.4844 2.4 7.604589320022084e-09 0.9988443533898846 0.0004391749399448066 0.0007164640655811009
11 3 -3.08099 1.11221 4.4844 -1.2 1.3800112919972057e-23 0.03676052021208748 0.9632394797796179 8.301304227861593e-12
12 3 0.582463 3.69946 4.4844 -1.2 9.326358212863978e-14 0.9976691918540802 0.0023307979572362338 1.0188588878604777e-08
13 3 -2.29524 3.43162 3.18632 -1.2 1.6074941110704775e-13 0.9997176720710027 0.00028232525658618914 2.6722462884790113e-09
14 3 -2.34216 3.43162 5.78248 -1.2 5.885201414726567e-17 0.9672870930192385 0.03271290568110492 1.2996500140394617e-09
15 1 1.12778 2.37449 2.9896 1.2 7.048689113639744e-18 3.087902073016628e-06 0.9999961517882104 7.60309711435659e-07
16 1 3.92855 2.33318 4.4844 1.2 8.016084594453211e-22 7.501186840037724e-09 0.999999616030979 3.764678323378654e-07
17 2 2.09341 4.39804 4.4844 2.4 0.7842066574029388 0.2157884686004587 4.857629606697353e-06 1.636700057331494e-08
18 3 2.09991 6.01128 4.4844 -1.2 3.3439072496238396e-07 0.999998878712862 7.053147769407672e-07 8.158163039318735e-08
19 3 -4.52137 3.42402 4.4844 -1.2 1.1391843771860136e-16 0.9510468806421759 0.048953118348722714 1.0090995357721022e-09
20 3 2.80834 3.69187 3.18632 -1.2 4.3314811512144105e-14 0.9993996374023472 0.0006003611272061922 1.4704071104022753e-09
21 1 1.17857 2.37449 0 1.2 4.981235258828295e-18 2.4146314801266352e-06 0.999996049120003 1.5362485131676938e-06
22 3 2.76143 3.69187 5.78248 -1.2 3.2939263369977706e-18 0.9655424025048709 0.0344575973846425 1.1048673729475384e-10
23 1 -1.67381 2.41581 1.4948 1.2 4.665070899467102e-11 0.0029254161931968727 0.9963728266072841 0.0007017571528640848
24 2 0.16286 0.350945 1.4948 2.4 3.170797133123865e-09 0.5868684005543199 0.03137487694977263 0.3817567193251134
25 3 0.15972 -1.26229 1.4948 -1.2 1.7531864175933844e-15 0.9588711984537169 0.04112855930705868 2.4223922906599015e-07
26 3 6.77654 1.32496 1.4948 -1.2 6.5446675388702506e-15 0.9902879617641354 0.009712015563880272 2.2671981636633083e-08
27 3 -0.508028 1.05712 0.196716 -1.2 7.763751226418316e-19 0.2779340925045136 0.722065900625339 6.8701432573806636e-09
28 3 -0.552171 1.05712 2.79288 -1.2 2.3252454269780858e-20 0.2749392434122689 0.7250607560011797 5.865455462820733e-10
29 1 6.31713 4.74899 0 1.2 1.576028286709891e-08 0.039962880758193715 0.8946410577650843 0.06539604571643572
30 1 3.54847 9.45668 1.4948 1.2 0.9210055810620981 0.07870618710628827 9.133224566394997e-15 0.0002882318316053376
31 2 5.36879 6.77254 1.4948 2.4 0.9999999934197206 6.580282837520608e-09 1.1923614957236967e-23 1.0913092696855767e-20
32 3 5.41937 8.38578 1.4948 -1.2 0.9556583392784245 0.04434160833679269 1.0009846632883725e-16 5.238477827089416e-08
33 3 1.75158 5.79852 1.4948 -1.2 0.0011074886614953745 0.9988913431443796 5.027544478879098e-11 1.168143847625566e-06
34 3 4.67421 6.06637 0.196716 -1.2 2.866411424072113e-06 0.999997077072203 4.41972790498594e-08 1.2319100443921446e-08
35 1 6.26654 4.74899 2.9896 1.2 3.705814516129916e-08 0.0014138317854921467 0.1021919833823688 0.8963941477739947
36 3 4.63043 6.06637 2.79288 -1.2 2.4036665636961407e-06 0.9999974601099663 6.14499927716455e-08 7.477347637017061e-08
37 1 -1.12976 4.79031 4.4844 1.2 7.11058184038207e-08 0.00023352008306680463 0.6608343361599995 0.33893207265110886
38 2 -2.9517 7.47444 4.4844 2.4 0.999999999914138 8.585985110001831e-11 3.403387199206541e-19 1.3473829262469095e-22
39 3 -3.00198 5.86121 4.4844 -1.2 1.0267998132362873e-08 0.9999919160908675 8.058189306716272e-06 1.545182198310125e-08
40 3 0.666315 8.44846 4.4844 -1.2 0.012329009959389046 0.9876707518523115 2.8763608314390476e-10 2.3790066602687788e-07
41 3 -2.21213 8.18062 3.18632 -1.2 0.02051023883174081 0.9794896765265986 1.1664508847941771e-10 8.452501054218483e-08
42 3 -2.25864 8.18062 5.78248 -1.2 0.0003222517858003246 0.9996776574768307 4.7758719812253355e-08 4.2978649269624816e-08
43 1 1.20893 7.12349 2.9896 1.2 0.08258086458948817 0.32403206964391357 5.874690770158094e-07 0.5933864782975227
44 1 4.00982 7.08218 4.4844 1.2 0.0020945025878598513 0.004586996402065102 0.00020269881430482107 0.9931158021957738
45 2 2.17861 9.14704 4.4844 2.4 1.0 3.93541362222025e-17 1.4705799829514617e-30 3.8058050466135337e-32
46 3 2.18828 10.7603 4.4844 -1.2 0.9220311417882856 0.07796884161628191 6.257469918838132e-15 1.659543058543013e-08
47 3 -4.43805 8.17302 4.4844 -1.2 0.000779648732120037 0.9992201955259463 3.302348127029329e-08 1.227184543278652e-07
48 3 2.89193 8.44087 3.18632 -1.2 0.09400263457307513 0.905996812657743 1.239664979526089e-11 5.527567851825432e-07
49 1 1.25915 7.12349 0 1.2 0.10476496713473114 0.6729230806822393 4.726812869257329e-07 0.2223114795017407
50 3 2.84547 8.44087 5.78248 -1.2 0.0015499528696298526 0.9984500183377566 4.959094064591411e-09 2.3833515317429165e-08
51 1 -1.59284 7.16481 1.4948 1.2 0.1912460371352724 0.7150965368437817 5.6102441059489976e-08 0.09365736991851055
52 2 0.240329 5.09994 1.4948 2.4 0.9994122772854015 0.0005877227117855741 2.5969587001413577e-15 2.814747308133925e-12
53 3 0.234538 3.48671 1.4948 -1.2 4.648467528086169e-12 0.9999200566268811 7.991230576581352e-05 3.1062704210078435e-08
54 3 6.85564 6.07396 1.4948 -1.2 1.8159984003192818e-05 0.9999816457628297 2.40456237780567e-09 1.9184860729654204e-07
55 3 -0.429565 5.80612 0.196716 -1.2 4.140978777194005e-07 0.9999993973808724 1.8188343048790894e-07 6.637817255640555e-09
56 3 -0.473377 5.80612 2.79288 -1.2 1.7044633208625416e-07 0.999999389035482 4.2083875943715413e-07 1.967942099514391e-08
57 1 6.40169 9.49799 0 1.2 0.9508140936205857 0.04917428015652574 4.3917361977547454e-15 1.1626222880781802e-05
58 1 3.64209 14.2057 1.4948 1.2 0.9793853884758241 0.02061184747158956 3.5404321384618325e-19 2.7640525823289385e-06
59 2 5.45748 11.5215 1.4948 2.4 1.0 1.2141908016264852e-15 9.435804270255681e-38 6.104231118999175e-34
60 3 5.51101 13.1348 1.4948 -1.2 0.9994638782621551 0.0005361211033689143 7.520997797792494e-23 6.344712061689586e-10
61 3 1.83851 10.5475 1.4948 -1.2 0.999369797453194 0.0006302018457002634 2.143394612116157e-21 7.011061272530003e-10
62 3 4.7611 10.8154 0.196716 -1.2 0.981503188977826 0.018496808854892473 8.092286492427447e-17 2.167284697278819e-09
63 1 6.35203 9.49799 2.9896 1.2 0.8880493678043913 0.10995310015912144 2.1135721909101283e-14 0.0019975320364730566
64 3 4.71833 10.8154 2.79288 -1.2 0.9750485253354709 0.024951469159590026 5.066319542032133e-16 5.5049452803864776e-09
65 1 -1.0438 9.53931 4.4844 1.2 0.8634071867924588 0.04458048258285895 5.499805788914693e-10 0.09201233007469488
66 2 -2.8604 12.2234 4.4844 2.4 1.0 3.3951070280640686e-20 2.1057676437557457e-35 5.3134862478561745e-37
67 3 -2.91391 10.6102 4.4844 -1.2 0.9247174849758686 0.07528248203577437 4.665701675784741e-15 3.2988351879568826e-08
68 3 0.7596 13.1975 4.4844 -1.2 0.7716049358814743 0.22839504913880454 1.733983571009566e-14 1.4979701395981394e-08
69 3 -2.12001 12.9296 3.18632 -1.2 0.9886838802061176 0.01131611839713071 1.8648207143516497e-17 1.3967459115528735e-09
70 3 -2.16532 12.9296 5.78248 -1.2 0.9363802526583449 0.06361974703056468 9.99963908405284e-16 3.110869531283372e-10
71 1 1.29891 11.8725 2.9896 1.2 0.9631124115254942 0.03642195441727662 4.594123521834907e-17 0.0004656340572224253
72 1 4.10033 11.8312 4.4844 1.2 0.979410979383672 0.012282256559125893 8.26484952994886e-14 0.00830676405712484
73 2 2.27333 13.896 4.4844 2.4 1.0 2.259930107904051e-21 9.855806485994354e-38 6.776375630054667e-40
74 3 2.28634 15.5093 4.4844 -1.2 0.9978471296529842 0.0021528702538510802 4.843204399021114e-19 9.316072073879217e-11
75 3 -4.34533 12.922 4.4844 -1.2 0.5023596871451635 0.49764029394381754 2.8696919187226066e-13 1.8910726024670167e-08
76 3 2.98455 13.1899 3.18632 -1.2 0.9666198016769864 0.03338019687357961 2.127048004446192e-15 1.4494370222621395e-09
77 1 1.34779 11.8725 0 1.2 0.972597951599549 0.0273930802034835 4.821379606670237e-18 8.968196970518676e-06
78 3 2.93934 13.1899 5.78248 -1.2 0.9504505612332386 0.0495494386577846 2.7485531981061944e-16 1.0897995794367931e-10
79 1 -1.50344 11.9138 1.4948 1.2 0.9788398442085439 0.021150606282430397 2.283435604505351e-18 9.549509024306146e-06
80 2 0.326006 9.84894 1.4948 2.4 0.9999999999999574 4.01047449815769e-14 2.22739758202454e-35 1.8333481531794878e-32
81 3 0.317364 8.23571 1.4948 -1.2 0.7919188796846138 0.20808093815656123 1.250988458427017e-15 1.8215881943857144e-07
82 3 6.94307 10.823 1.4948 -1.2 0.9979666118581875 0.002033387298658775 9.167266468196345e-21 8.431496861974084e-10
83 3 -0.343122 10.5551 0.196716 -1.2 0.9663277722797704 0.033672224821535146 3.4685199638170624e-16 2.898700248703719e-09
84 3 -0.385966 10.5551 2.79288 -1.2 0.95326682810528 0.04673316329988628 1.8040278357087373e-15 8.594827057887909e-09
85 1 6.49448 14.247 0 1.2 0.9876096318058593 0.012390290810612724 1.4294321539344085e-20 7.738353073043708e-08
86 1 3.74457 18.9547 1.4948 1.2 0.9766926682893335 0.023306769464191822 1.0370987141502598e-18 5.622464744431243e-07
87 2 5.55495 16.2705 1.4948 2.4 1.0 1.790879635896755e-15 2.4932238269496443e-39 3.502290488408324e-34
88 3 5.6115 17.8838 1.4948 -1.2 0.9986691693910337 0.0013308304847679559 7.227906210324716e-23 1.241930512845426e-10
89 3 1.93416 15.2965 1.4948 -1.2 0.9997161525381365 0.00028384742371383235 8.625561997625997e-24 3.814661451969693e-11
90 3 4.85636 15.5644 0.196716 -1.2 0.9964756317706762 0.0035243679721139783 1.2974630739456107e-19 2.5720857525580596e-10
91 1 6.44662 14.247 2.9896 1.2 0.9783937909448405 0.021585938696510747 2.405326687783004e-19 2.027035864286751e-05
92 3 4.81537 15.5644 2.79288 -1.2 0.9976849680349812 0.0023150318588172434 5.097063546211032e-19 1.0620264843192327e-10
93 1 -0.948271 14.2883 4.4844 1.2 0.982295683552943 0.013411174096649969 8.558135829401942e-15 0.004293142350405184
94 2 -2.75928 16.9724 4.4844 2.4 1.0 4.7647191156638293e-23 1.103557166324664e-40 9.840688762666057e-41
95 3 -2.81617 15.3592 4.4844 -1.2 0.9940519786661585 0.005948020770709627 6.7041481561590915e-18 5.631299864990266e-10
96 3 0.862762 17.9465 4.4844 -1.2 0.9463325582656708 0.05366744132450151 1.0312982320539096e-16 4.098271478297635e-10
97 3 -2.0185 17.6786 3.18632 -1.2 0.9967998335487456 0.0032001664234930765 1.201558540544058e-18 2.776748448445505e-11
98 3 -2.06164 17.6786 5.78248 -1.2 0.9970245231950579 0.002975476800616792 1.5208825166714536e-19 4.319538581495987e-12
99 1 1.39817 16.6215 2.9896 1.2 0.9781944702853991 0.021796613891804005 3.1819342147231527e-20 8.91582279739538e-06
100 1 4.20062 16.5802 4.4844 1.2 0.9927175499441521 0.006453351989446705 1.1801453035360356e-15 0.0008290980664056543
101 2 2.37796 18.645 4.4844 2.4 1.0 1.1212691222940234e-23 1.762803714893436e-40 1.205214208526993e-42
102 3 2.39434 20.2583 4.4844 -1.2 0.9974225847778955 0.002577415216673683 2.5262602938199674e-19 5.4355646170486445e-12
103 3 -4.24274 17.671 4.4844 -1.2 0.8276862129090649 0.17231378669414135 1.3484732501008154e-15 3.967930506610409e-10
104 3 3.08659 17.9389 3.18632 -1.2 0.9772390446138657 0.022760955297988567 1.4944456456835048e-16 8.814429606383229e-11
105 1 1.44478 16.6215 0 1.2 0.9740094878953591 0.025990291709351812 1.420222489943447e-20 2.2039529292479077e-07
106 3 3.0436 17.9389 5.78248 -1.2 0.9705826533183323 0.029417346676246812 3.6020437564488e-17 5.415320626369356e-12
107 1 -1.40524 16.6628 1.4948 1.2 0.9836210682112024 0.0163785959477351 1.1541343866687799e-20 3.3584106008581757e-07
108 2 0.420358 14.5979 1.4948 2.4 1.0 1.3419428319804431e-15 3.045978022403604e-38 4.539247559183757e-34
109 3 0.408732 12.9847 1.4948 -1.2 0.9990967903632547 0.0009032094204492883 6.70784316192256e-22 2.1629303835075433e-10
110 3 7.03923 15.572 1.4948 -1.2 0.999301020784367 0.00069897913610638 1.2016287815882686e-22 7.952744684450442e-11
111 3 -0.248332 15.3041 0.196716 -1.2 0.9949537710223765 0.005046228548854129 1.3253158180792503e-19 4.2876661731642684e-10
112 3 -0.289436 15.3041 2.79288 -1.2 0.9981807180285048 0.0018192815491794093 1.2636738447002766e-19 4.2232053536718847e-10
113 1 6.59566 18.996 0 1.2 0.9824219072359063 0.017578084529528967 1.9340521304689754e-20 8.234565778099298e-09
114 1 3.85574 23.7037 1.4948 1.2 0.9837557390532987 0.01624424040092354 3.23149593350465e-20 2.0545778383705074e-08
115 2 5.66125 21.0195 1.4948 2.4 1.0 1.5431789563645814e-18 6.412652134230482e-40 4.624777059862219e-36
116 3 5.72074 22.6328 1.4948 -1.2 0.9984923833098475 0.001507616685472585 3.03248634726601e-22 4.6766952899630565e-12
117 3 2.03867 20.0455 1.4948 -1.2 0.9996103102406364 0.00038968975571093077 1.051347945073877e-23 3.655880543486669e-12
118 3 4.96004 20.3134 0.196716 -1.2 0.9968687431724221 0.0031312568102921357 8.667830456452266e-20 1.7284355054426356e-11
119 1 6.55057 18.996 2.9896 1.2 0.9811560896118316 0.018839327705033684 9.255978799400319e-19 4.582683141057057e-06
120 3 4.92172 20.3134 2.79288 -1.2 0.992880241272242 0.0071197587063461095 4.425873986904217e-18 2.1417429972252606e-11
121 1 -0.84282 19.0373 4.4844 1.2 0.9944385430728129 0.005452252563268907 1.7470072369737433e-16 0.00010920436391355509
122 2 -2.64823 21.7214 4.4844 2.4 1.0 3.4939755562087243e-25 5.059239718667274e-41 3.793047756573841e-43
123 3 -2.70847 20.1082 4.4844 -1.2 0.992906161161058 0.007093838815575227 2.7206025539137687e-18 2.336624638654663e-11
124 3 0.97581 22.6955 4.4844 -1.2 0.9378610422193524 0.06213895777034751 4.201744978954761e-18 1.0298767568154988e-11
125 3 -1.9076 22.4276 3.18632 -1.2 0.9906126577820589 0.009387342216146575 4.789371774858936e-18 1.7969352863131462e-12
126 3 -1.9475 22.4276 5.78248 -1.2 0.9946216558044639 0.005378344195102931 8.437855308407034e-20 4.339537550233659e-13
127 1 1.50678 21.3705 2.9896 1.2 0.9839217912369964 0.01607719676861758 2.466388194579844e-20 1.011994382607524e-06
128 1 4.31086 21.3292 4.4844 1.2 0.9970668702093354 0.00291149506103495 5.527654528641813e-16 2.163472962321691e-05
129 2 2.49243 23.394 4.4844 2.4 1.0 5.1252776949271597e-26 6.879377294014886e-41 1.0602835214235356e-43
130 3 2.51204 25.0073 4.4844 -1.2 0.9791491152574131 0.020850884740545146 2.039600305581807e-17 2.0453228436666913e-12
131 3 -4.13026 22.42 4.4844 -1.2 0.8869781615625272 0.11302183841633946 7.202952727866273e-17 2.1137127502858578e-11
132 3 3.19799 22.6879 3.18632 -1.2 0.989689217183662 0.01031078281318832 7.88208068332517e-18 3.143437835909601e-12
133 1 1.5501 21.3705 0 1.2 0.975157552934936 0.02484243372695783 3.262488691458182e-20 1.3338110712278233e-08
134 3 3.1583 22.6879 5.78248 -1.2 0.9920332126489688 0.007966787350501813 2.5020607347504656e-19 5.328472310833118e-13
135 1 -1.29822 21.4118 1.4948 1.2 0.9868557747400225 0.013144206020800044 2.1498508774322794e-20 1.9239173654478264e-08
136 2 0.523568 19.3469 1.4948 2.4 1.0 2.6177050931948495e-17 4.0794171822567015e-38 3.670508002720895e-35
137 3 0.508934 17.7337 1.4948 -1.2 0.9972800552696448 0.0027199446486953216 1.648046880715442e-21 8.166054107349097e-11
138 3 7.14425 20.321 1.4948 -1.2 0.9988861137359543 0.001113886260030987 1.8859971977360334e-22 4.008182974985447e-12
139 3 -0.145107 20.0531 0.196716 -1.2 0.9924143824478564 0.007585617525086427 1.704214108102324e-18 2.7060116318663948e-11
140 3 -0.183601 20.0531 2.79288 -1.2 0.9979395866100803 0.00206041338387693 8.548822385029978e-20 6.043138228675663e-12
141 1 6.70502 23.745 0 1.2 0.980868296474094 0.019131702822221403 5.116643335898208e-22 7.03683009917401e-10
142 1 3.97493 28.4527 1.4948 1.2 0.9913648871405927 0.008635111970968789 8.051159753711374e-23 8.884447099324405e-10
143 2 5.77602 25.7685 1.4948 2.4 1.0 2.6951940732866867e-22 2.5065746524401112e-40 6.502831724781098e-39
144 3 5.83821 27.3818 1.4948 -1.2 0.9997662861156384 0.00023371388426003447 4.566194132059875e-23 9.711718351952186e-14
145 3 2.15175 24.7945 1.4948 -1.2 0.9998848322432778 0.00011516775665512376 3.5666668277170853e-25 6.096174647456903e-14
146 3 5.07184 25.0624 0.196716 -1.2 0.9996200024734723 0.0003799975259850161 1.2126384537215962e-21 5.4302736589606e-13
147 1 6.66374 23.745 2.9896 1.2 0.9898201505237488 0.010179744731023689 1.0905154774668574e-20 1.0474523182290322e-07
148 3 5.03707 25.0624 2.79288 -1.2 0.9925881819600418 0.007411818038848628 5.739940420739827e-18 1.1082484700023906e-12
149 1 -0.727559 23.7863 4.4844 1.2 0.9971401699132255 0.0028575112559000083 5.99641096550773e-17 2.318830867886276e-06
150 2 -2.5277 26.4704 4.4844 2.4 1.0 1.3377124322843884e-27 1.3848706978417465e-41 6.572519394019151e-46
151 3 -2.59107 24.8572 4.4844 -1.2 0.9760431708912132 0.02395682910659761 1.084400132621496e-17 2.190430002100182e-12
152 3 1.09817 27.4445 4.4844 -1.2 0.9809945300722241 0.01900546992706538 1.7598210649159646e-18 7.147976177153862e-13
153 3 -1.78784 27.1766 3.18632 -1.2 0.9856417127932557 0.014358287206542416 7.175001124204771e-18 2.0306797421229094e-13
154 3 -1.82343 27.1766 5.78248 -1.2 0.9880916670215449 0.011908332978368182 1.9753811829355704e-19 8.04003490222574e-14
155 1 1.62435 26.1195 2.9896 1.2 0.9939622484144517 0.006037742653990128 3.8479794474803656e-22 8.93156231505407e-09
156 1 4.43064 26.0782 4.4844 1.2 0.9984235844748575 0.0015755275918153868 1.1269099338437155e-15 8.879333316621653e-07
157 2 2.61607 28.143 4.4844 2.4 1.0 3.8424560468729702e-28 9.42149547720705e-41 2.1434734368815141e-47
158 3 2.63853 29.7563 4.4844 -1.2 0.8783544843996347 0.12164551559991067 7.332749215358895e-16 4.5231065795388517e-13
159 3 -4.00841 27.169 4.4844 -1.2 0.8724037768622408 0.12759622313649405 4.965376290725577e-17 1.2648693057726367e-12
160 3 3.3182 27.4369 3.18632 -1.2 0.9942318099019476 0.005768190097898677 7.89184178466955e-18 1.5821747331230438e-13
161 1 1.66335 26.1195 0 1.2 0.9748535021134604 0.02514649735307533 2.7581604291927345e-23 5.334690672272944e-10
162 3 3.28288 27.4369 5.78248 -1.2 0.946336696154174 0.05366330384568815 5.195470644671697e-18 1.4021838681734742e-13
163 1 -1.18278 26.1608 1.4948 1.2 0.9938047973126787 0.006195202382363907 3.717788982061786e-23 3.0495339011771625e-10
164 2 0.635424 24.0959 1.4948 2.4 1.0 2.1318714705413094e-20 3.2092724397076833e-38 9.17885487708929e-39
165 3 0.617906 22.4827 1.4948 -1.2 0.9988117720866494 0.0011882279119532673 1.1454842063774787e-21 1.40400463675504e-12
166 3 7.25781 25.07 1.4948 -1.2 0.9995483658658094 0.00045163413408472083 7.110829543422884e-23 1.0949478172707642e-13
167 3 -0.0337363 24.8021 0.196716 -1.2 0.9984011178078053 0.001598882191506815 1.1610980211575405e-19 6.920510024108905e-13
168 3 -0.0687235 24.8021 2.79288 -1.2 0.9962429831521152 0.003757016847221287 1.3780469308867603e-18 6.672132549607539e-13
169 1 6.82195 28.494 0 1.2 0.9805248107558446 0.01947518890512434 5.088812915165946e-24 3.390289723374249e-10
170 1 4.10106 33.2017 1.4948 1.2 0.9908407692706646 0.009159226562453888 2.17531754462286e-23 4.166877811417085e-09
171 2 5.89839 30.5175 1.4948 2.4 1.0 8.890159508878416e-26 5.835374991195207e-42 2.685089288141142e-41
172 3 5.96289 32.1308 1.4948 -1.2 0.999762400174303 0.00023759982544638725 5.331021087450611e-23 2.544156137827222e-13
173 3 2.27266 29.5435 1.4948 -1.2 0.9998971412596999 0.00010285874025829154 1.3816141228205056e-24 3.990101761376978e-14
174 3 5.19102 29.8114 0.196716 -1.2 0.9999679069978427 3.2093002111144856e-05 4.076950712062817e-24 4.964972153446405e-14
175 1 6.78546 28.494 2.9896 1.2 0.9966621921194525 0.0033377968080939464 1.8998561049535376e-21 1.1072449155825368e-08
176 3 5.16061 29.8114 2.79288 -1.2 0.9882860452328635 0.01171395476701673 1.0003628281910048e-17 1.26011779722671e-13
177 1 -0.603205 28.5353 4.4844 1.2 0.9988191645095246 0.0011805144109576365 3.0893846795979554e-16 3.210795220805318e-07
178 2 -2.39877 31.2194 4.4844 2.4 1.0 8.207689300354743e-28 9.806215184272065e-40 1.1750897658269977e-45
179 3 -2.46483 29.6062 4.4844 -1.2 0.6252250524838143 0.37477494751536633 1.784408768944607e-15 8.152892971067934e-13
180 3 1.22864 32.1935 4.4844 -1.2 0.7483231579083848 0.25167684208959795 1.5506694083333115e-16 2.013358703916751e-12
181 3 -1.66032 31.9256 3.18632 -1.2 0.9816706185906248 0.018329381409072115 8.447933519163172e-18 2.9618685868567646e-13
182 3 -1.69072 31.9256 5.78248 -1.2 0.7995812596333928 0.2004187403658221 3.336730744257492e-17 7.875016502107345e-13
183 1 1.7499 30.8685 2.9896 1.2 0.9966940742193763 0.0033059234993315905 1.5479578738087045e-22 2.2812979386590905e-09
184 1 4.55894 30.8272 4.4844 1.2 0.9992919060257824 0.0007080335805329736 1.8910476710982554e-17 6.039368223481025e-08
185 2 2.7476 32.892 4.4844 2.4 1.0 1.1411875526937481e-27 1.5348367185675505e-38 1.2861126797140297e-44
186 3 2.77235 34.5053 4.4844 -1.2 0.2378134323108851 0.7621865676829406 2.295095842480119e-13 5.940758084425022e-12
187 3 -3.87837 31.918 4.4844 -1.2 0.5751461019659305 0.4248538980295372 3.6997897439951473e-16 4.534834191783224e-12
188 3 3.44611 32.1859 3.18632 -1.2 0.9906077693829807 0.009392230616659215 5.529590741820561e-18 3.657778714657475e-13
189 1 1.7837 30.8685 0 1.2 0.9840756091366473 0.015924390433016293 1.255664032158786e-25 4.3033285396291295e-10
190 3 3.41602 32.1859 5.78248 -1.2 0.3903732730471369 0.6096267269522201 4.612996376422552e-15 6.410766655937947e-13
191 1 -1.05984 30.9098 1.4948 1.2 0.9947755045369019 0.005224495401815543 2.5290021017955603e-25 6.12803359509261e-11
192 2 0.755243 28.8449 1.4948 2.4 1.0 1.4241223209462323e-25 3.7400158076124744e-41 1.0992211478808916e-41
193 3 0.735127 27.2317 1.4948 -1.2 0.9999093543010373 9.064569895473918e-05 1.5885233910090836e-23 8.166859375486773e-15
194 3 7.37914 29.819 1.4948 -1.2 0.9996864704836601 0.00031352951627200605 2.7219473858844086e-23 7.112113327360026e-14
195 3 0.0850649 29.5511 0.196716 -1.2 0.9995915346146005 0.00040846538519882797 3.6699309865340896e-21 1.9422224503608217e-13
196 3 0.0543974 29.5511 2.79288 -1.2 0.9983077956535292 0.001692204346416141 1.4352144549528528e-19 4.757871648712913e-14
197 1 6.94543 33.243 0 1.2 0.9846634263940063 0.015336573081620574 1.4564713627743293e-25 5.243697308236916e-10
198 1 4.23267 37.9507 1.4948 1.2 0.9849613552159203 0.015038605971586494 2.0941897957904526e-21 3.8812497937926623e-08
199 2 6.02709 35.2665 1.4948 2.4 1.0 5.374190722669221e-25 1.3039655501415784e-39 2.513254248682202e-38
200 3 6.09339 36.8798 1.4948 -1.2 0.9978773643817914 0.002122635610024882 8.461312599686428e-20 8.186317564372239e-12
201 3 2.40018 34.2925 1.4948 -1.2 0.999099580212695 0.0009004197841696306 1.3991418843682939e-21 3.1359842481692875e-12
202 3 5.31645 34.5604 0.196716 -1.2 0.9999209845531015 7.901544620794352e-05 3.280639221282278e-23 6.857037809451492e-13
203 1 6.91449 33.243 2.9896 1.2 0.9956460179717835 0.004353949399123581 1.6194460217726827e-21 3.262909804055023e-08
204 3 5.291 34.5604 2.79288 -1.2 0.9279400910240551 0.07205990896706557 4.853897710143086e-16 8.886024694258808e-12
205 1 -0.471101 33.2843 4.4844 1.2 0.9989984819505132 0.0010014552093224154 5.987860939073452e-17 6.284016966176588e-08
206 2 -2.26307 35.9684 4.4844 2.4 1.0 2.6150069645315504e-25 1.1477681253856766e-34 1.747393217046703e-41
207 3 -2.33122 34.3552 4.4844 -1.2 0.3408615955096029 0.659138404479594 2.745475826345898e-14 1.0781621088047538e-11
208 3 1.36549 36.9425 4.4844 -1.2 0.07928469098910822 0.9207153089941073 6.536702429410931e-13 1.6131266795465862e-11
209 3 -1.52658 36.6746 3.18632 -1.2 0.8205598860167677 0.17944011397143697 5.533634835257586e-15 1.1791536264280396e-11
210 3 -1.55122 36.6746 5.78248 -1.2 0.10425570932098249 0.8957442906728736 1.6383672604312996e-14 6.121774861325563e-12
211 1 1.882 35.6175 2.9896 1.2 0.9902016718303708 0.00979818963320687 1.515206206922393e-19 1.3853642715937534e-07
212 1 4.69415 35.5762 4.4844 1.2 0.9990152424577933 0.0009844344555172916 1.6560099479501882e-15 3.230866888734978e-07
213 2 2.88522 37.641 4.4844 2.4 1.0 5.422051209008706e-25 6.726213352307973e-34 4.9463597462019274e-42
214 3 2.91159 39.2543 4.4844 -1.2 0.05627777619967542 0.9437222237894336 3.0310036673377242e-12 7.853002816287263e-12
215 3 -3.74183 36.667 4.4844 -1.2 0.06324822998007737 0.9367517699897251 3.339476589398666e-13 2.9862151097237616e-11
216 3 3.58014 36.9349 3.18632 -1.2 0.8985926365096069 0.10140736347640482 2.920605255467459e-15 1.3979940715508797e-11
217 1 1.90997 35.6175 0 1.2 0.9745317612899976 0.025468230322097215 4.695384962736001e-24 8.387908952265565e-09
218 3 3.55582 36.9349 5.78248 -1.2 0.016973728176149738 0.9830262718228244 2.6174340324878694e-13 7.629588468717213e-13
219 1 -0.93068 35.6588 1.4948 1.2 0.9909157527721919 0.009084245352830771 1.0085756116078954e-23 1.874970270561309e-09
220 2 0.881882 33.5939 1.4948 2.4 1.0 2.0416707188247216e-26 1.549225678157119e-40 2.0878899701090457e-39
221 3 0.859602 31.9807 1.4948 -1.2 0.9998563637365483 0.00014363626342587483 2.0979904987006786e-23 2.1780592695013285e-14
222 3 7.507 34.568 1.4948 -1.2 0.9981179063389843 0.0018820936522310474 1.9710137519885477e-21 8.780621679627428e-12
223 3 0.210186 34.3001 0.196716 -1.2 0.999342829340684 0.0006571706579275455 8.022940371841095e-21 1.3849098544249885e-12
224 3 0.184454 34.3001 2.79288 -1.2 0.983034502277993 0.016965497720850178 3.939611751687444e-17 1.1623085925216815e-12
225 1 7.07415 37.992 0 1.2 0.9611042917477121 0.038895695274406464 3.9916898816948477e-23 1.2977884996425888e-08
226 1 4.36817 42.6997 1.4948 1.2 0.9373274515068492 0.06267003754082236 2.2044070589944612e-16 2.510952333910706e-06
227 2 6.16058 40.0155 1.4948 2.4 1.0 2.3739423590360617e-21 2.300221733256848e-33 9.391966122634005e-35
228 3 6.22815 41.6288 1.4948 -1.2 0.8922176393785368 0.10778236030033385 1.0468103855113975e-14 3.21123358792757e-10
229 3 2.53282 39.0415 1.4948 -1.2 0.9955414909326821 0.004458508913315628 1.3181461267420236e-19 1.5400823834891202e-10
230 3 5.44674 39.3094 0.196716 -1.2 0.9993649582982425 0.0006350416901821089 4.477105744292693e-20 1.1569300787069516e-11
231 1 7.04922 37.992 2.9896 1.2 0.9858290506438088 0.014166586623501823 9.291481624497315e-17 4.362732683974523e-06
232 3 5.42658 39.3094 2.79288 -1.2 0.6962875401239051 0.3037124598045214 5.29851650556407e-14 7.15208101197221e-11
233 1 -0.333062 38.0333 4.4844 1.2 0.9973364106335283 0.0026575873561808555 8.001399863402482e-13 6.0020094970300285e-06
234 2 -2.12255 40.7174 4.4844 2.4 1.0 4.082848225987564e-22 8.07518626075019e-30 2.0126911329272358e-38
235 3 -2.19212 39.1042 4.4844 -1.2 0.07418332106177421 0.9258166789079602 1.9727822454500653e-12 2.828867002606698e-11
236 3 1.50676 41.6915 4.4844 -1.2 0.004291429759693093 0.9957085702176747 1.4351461377522984e-11 8.286452132098345e-12
237 3 -1.3884 41.4236 3.18632 -1.2 0.0625182126615687 0.9374817872978988 5.711001862678214e-12 3.4819061770420005e-11
238 3 -1.40713 41.4236 5.78248 -1.2 0.012169357123183865 0.9878306428750538 5.624824073852297e-13 1.1942413018707981e-12
239 1 2.01892 40.3665 2.9896 1.2 0.9599760740991112 0.039973158783744085 1.8763754353884817e-12 5.076711526820718e-05
240 1 4.83434 40.3252 4.4844 1.2 0.9969489520167915 0.0030338074285777466 3.8170253376994936e-12 1.7240550813273428e-05
241 2 3.02698 42.39 4.4844 2.4 1.0 8.047377153371398e-23 4.479620517446898e-30 6.587249867964007e-39
242 3 3.05433 44.0033 4.4844 -1.2 0.017678303441943433 0.9823216965454138 3.9778129338423205e-12 8.669183225423446e-12
243 3 -3.60077 41.416 4.4844 -1.2 0.004865118369075632 0.9951348816032446 1.6515612302808164e-11 1.116940918982999e-11
244 3 3.71851 41.6839 3.18632 -1.2 0.27576685266993384 0.7242331472281506 1.3277788799357895e-12 1.0058681703642525e-10
245 1 2.04077 40.3665 0 1.2 0.8645580672100875 0.13544155939696925 1.5539248274388998e-20 3.733929402776349e-07
246 3 3.70011 41.6839 5.78248 -1.2 0.0031303924621216114 0.9968696075359518 1.1853209383776796e-12 7.394851262241933e-13
247 1 -0.796865 40.4078 1.4948 1.2 0.9624996317637113 0.037500145750458576 2.1213952778677743e-19 2.2248582637273857e-07
248 2 1.01387 38.3429 1.4948 2.4 1.0 2.2488622931281653e-23 1.0193902401075346e-35 1.5909197559793836e-35
249 3 0.989947 36.7297 1.4948 -1.2 0.9983137428583021 0.0016862571372244755 2.756035378374695e-20 4.468455515739953e-12
250 3 7.63988 39.317 1.4948 -1.2 0.9928106255522374 0.007189374271784365 2.2836952268424623e-19 1.7598333184915134e-10
251 3 0.340253 39.0491 0.196716 -1.2 0.9989270810809521 0.001072918882208877 9.248888634368261e-20 3.68386522299804e-11
252 3 0.319795 39.0491 2.79288 -1.2 0.8001519795768649 0.1998480203928093 3.6999873442076425e-14 3.0282899768911145e-11
253 1 7.20667 42.741 0 1.2 0.7622948420085817 0.23770386886964134 9.630788385856189e-18 1.289121782114621e-06
254 1 4.50613 47.4487 1.4948 1.2 0.9626307918169738 0.03736538526954779 1.5374349939965663e-14 3.822913464868636e-06
255 2 6.29731 44.7645 1.4948 2.4 1.0 9.479737728273683e-19 3.449971312994365e-29 2.385468609876764e-33
256 3 6.36567 46.3778 1.4948 -1.2 0.2912814250844929 0.7087185747591772 2.4292690344763084e-12 1.5389533707057122e-10