ITEM: TIMESTEP
2800
ITEM: NUMBER OF ATOMS
10500
ITEM: BOX BOUNDS xy xz yz pp pp pp
0	15.2977	5.09925
0	118.725	0
0	89.688	0
ITEM: ATOMS id type xu yu zu q pCrystal pDisloC pSF pDisloB pDisloA
1 1 6.2404 -6.37941e-06 0 1.2 3.936121140606019e-16 2.810546078973399e-12 0.9999996435483989 3.5641690150605205e-07 3.18926265783395e-11
2 1 3.46349 4.70768 1.4948 1.2 5.23529728243703e-10 2.9765744663534867e-08 0.9999998910227875 7.840223766537061e-08 2.8570148508644544e-10
3 2 5.2885 2.02354 1.4948 2.4 2.6661336035321376e-13 5.889019750533505e-10 0.9999999788867202 2.0513638057689215e-08 1.0470322994387264e-11
4 3 5.33628 3.63678 1.4948 -1.2 3.6572019303510043e-10 3.0876463608388115e-08 0.9999999536553201 9.070978571220516e-09 6.031511846231526e-09
5 3 1.67294 1.04952 1.4948 -1.2 2.6146044328508156e-13 2.0092917969142184e-09 0.999999756438528 2.4088672476855853e-07 6.651884608049522e-10
6 3 4.59532 1.31737 0.196716 -1.2 1.6951108631771148e-14 3.7967415539325753e-10 0.9999998750304477 1.2427123017077159e-07 3.186296743902057e-10
7 1 6.18956 -6.37941e-06 2.9896 1.2 4.463119238618006e-16 6.670885543478041e-11 0.999997833413405 2.165781786203258e-06 7.381053636055748e-10
8 3 4.55118 1.31737 2.79288 -1.2 2.9492620644084043e-16 9.346655583792508e-12 0.9999988431506507 1.1567656404836155e-06 7.436159306326698e-11
9 1 -1.20682 0.0413099 4.4844 1.2 7.102194090405809e-16 2.2543301274649673e-11 0.9999844094098085 1.5590099242412226e-05 4.684077518630118e-10
10 2 -3.0337 2.72544 4.4844 2.4 7.042131025069491e-12 2.4635187344834616e-08 0.9999780379288669 2.1930783284272782e-05 6.645624260457746e-09
11 3 -3.08099 1.11221 4.4844 -1.2 2.5439391190486147e-15 8.371812590630134e-11 0.9999949238501757 5.075797835837016e-06 2.682730927122726e-10
12 3 0.582463 3.69946 4.4844 -1.2 5.095685906263989e-12 5.666871649975228e-10 0.9999949533844315 5.040146410520952e-06 5.897371168077658e-09
13 3 -2.29524 3.43162 3.18632 -1.2 9.048863310723033e-11 1.003315687661018e-08 0.9999997164943697 2.691315546185913e-07 4.250428117607292e-09
14 3 -2.34216 3.43162 5.78248 -1.2 2.121622182110444e-12 1.1807966171419252e-10 0.9999792976439151 2.0699524629545166e-05 2.7112590449645712e-09
15 1 1.12778 2.37449 2.9896 1.2 2.944670673207732e-13 1.0361898478590234e-09 0.9999917610902047 8.237488109550558e-06 3.8520737820335267e-10
16 1 3.92855 2.33318 4.4844 1.2 1.100183711212616e-14 3.9266339602780785e-11 0.9999481485276093 5.185100763537162e-05 4.2547936774678053e-10
17 2 2.09341 4.39804 4.4844 2.4 2.3357874506250325e-12 3.7174914588261865e-09 0.9999884999437002 1.1495736911487398e-05 5.99562024861904e-10
18 3 2.09991 6.01128 4.4844 -1.2 2.640410305843268e-09 9.322339846280815e-09 0.9999999649401452 1.3211040492353181e-08 9.886068419780668e-09
19 3 -4.52137 3.42402 4.4844 -1.2 1.131416219379892e-12 5.715297908640952e-10 0.999992292948035 7.696869708846948e-06 9.609600864502029e-09
20 3 2.80834 3.69187 3.18632 -1.2 5.077217113583439e-12 9.455583313559922e-10 0.9999998964056172 1.0229667878705828e-07 3.4706996261175894e-10
21 1 1.17857 2.37449 0 1.2 1.5255228860555986e-14 3.414028869114101e-10 0.9999991621584413 8.372753065940385e-07 2.24831444989154e-10
22 3 2.76143 3.69187 5.78248 -1.2 1.5498225885476078e-13 1.8847259191956472e-11 0.9999862309762125 1.3768137923393925e-05 8.668593887556094e-10
23 1 -1.67381 2.41581 1.4948 1.2 9.324568481628247e-11 2.9358338973716785e-08 0.9999979769749245 1.98969642462529e-06 3.877065897356885e-09
24 2 0.16286 0.350945 1.4948 2.4 1.9500829261144778e-13 1.5766456421811342e-09 0.9999992654300198 7.327798971138882e-07 2.1324794687691524e-10
25 3 0.15972 -1.26229 1.4948 -1.2 4.5727211319358704e-12 1.3797886635923657e-08 0.9999998848398586 9.780011343923897e-08 3.557564899731508e-09
26 3 6.77654 1.32496 1.4948 -1.2 1.1483497944964874e-12 5.0881409677443295e-09 0.9999999303960176 5.972008948382952e-08 4.7945983177041486e-09
27 3 -0.508028 1.05712 0.196716 -1.2 3.682968240183418e-14 1.2801780931045474e-09 0.9999996264845792 3.712751668485919e-07 9.60042956683533e-10
28 3 -0.552171 1.05712 2.79288 -1.2 1.0355490917912468e-13 5.574434944028329e-10 0.9999975211982983 2.4758605161356593e-06 2.3836319516935094e-09
29 1 6.31713 4.74899 0 1.2 2.3266424470933151e-10 5.4861298359494686e-08 0.9999998847362188 5.8845682813546784e-08 1.3241427316859299e-09
30 1 3.54847 9.45668 1.4948 1.2 3.4281964943006615e-05 4.103691924004583e-07 0.9999652137202741 3.2056358444834974e-11 9.391353090460265e-08
31 2 5.36879 6.77254 1.4948 2.4 3.0687417192750445e-06 7.40012835621788e-06 0.9999892812199027 2.2353612717980356e-10 2.496864832422038e-07
32 3 5.41937 8.38578 1.4948 -1.2 0.0007602798207583524 7.858583335380076e-05 0.9991560237203179 4.679077028625306e-13 5.110625098987348e-06
33 3 1.75158 5.79852 1.4948 -1.2 4.730252833220017e-06 9.587155020543321e-06 0.999985143222675 1.1330103113154019e-10 5.392561729898915e-07
34 3 4.67421 6.06637 0.196716 -1.2 3.7011467056945396e-08 5.3389269008492e-07 0.9999994190740988 6.580222217915932e-11 9.955940123409904e-09
35 1 6.26654 4.74899 2.9896 1.2 3.176824030647915e-10 1.5554784041327952e-08 0.9999994452587917 5.328953196139135e-07 5.973427269053047e-09
36 3 4.63043 6.06637 2.79288 -1.2 2.660320378102869e-08 1.1192226488057841e-07 0.999999832440835 3.4765424533215678e-09 2.5557155479584905e-08
37 1 -1.12976 4.79031 4.4844 1.2 2.30786524797153e-10 5.437707330829532e-10 0.9999979896374527 2.0086683622067507e-06 9.196311363411931e-10
38 2 -2.9517 7.47444 4.4844 2.4 9.878942602887436e-09 1.397910124389535e-07 0.9999959677580401 3.8749044340753244e-07 3.4950815600401136e-06
39 3 -3.00198 5.86121 4.4844 -1.2 2.458955132667316e-10 5.523263097124582e-10 0.9999999667630141 3.075392046698492e-08 1.6848492436494102e-09
40 3 0.666315 8.44846 4.4844 -1.2 2.3580275829479278e-07 2.376956034794455e-07 0.9999982906385981 5.448027803072093e-10 1.2353182335574178e-06
41 3 -2.21213 8.18062 3.18632 -1.2 4.902085121771767e-07 8.186661549060602e-08 0.9999993093970088 5.60062466319464e-11 1.1847185619335159e-07
42 3 -2.25864 8.18062 5.78248 -1.2 4.3428341889595906e-08 7.20649121066716e-09 0.9999993766095894 6.606138802982394e-09 5.661494358264628e-07
43 1 1.20893 7.12349 2.9896 1.2 1.5585468983399817e-07 1.6412249133794915e-07 0.9999996455743403 4.857182714354324e-09 2.959130076801192e-08
44 1 4.00982 7.08218 4.4844 1.2 3.4752091626935676e-08 1.0674437320614634e-08 0.9999998551913156 4.5852795316503083e-08 5.3529360624555096e-08
45 2 2.17861 9.14704 4.4844 2.4 1.6068667155209126e-06 9.971185620095572e-07 0.999993488602325 9.28952968237696e-09 3.898122861873701e-06
46 3 2.18828 10.7603 4.4844 -1.2 5.402654678949005e-06 1.074653625566367e-07 0.9999940018452501 1.427662298522315e-11 4.880204373056336e-07
47 3 -4.43805 8.17302 4.4844 -1.2 4.146158842872766e-08 5.3442590515499506e-08 0.9999992544992801 5.074932727954494e-10 6.500890540184797e-07
48 3 2.89193 8.44087 3.18632 -1.2 2.5539581969697007e-06 2.644119470986255e-07 0.9999968487178051 1.4878912168779601e-10 3.32763268157656e-07
49 1 1.25915 7.12349 0 1.2 4.268857622212655e-07 5.794736408442759e-07 0.9999989855682004 5.472050121612458e-10 7.525198535777874e-09
50 3 2.84547 8.44087 5.78248 -1.2 6.782179879154793e-08 9.775836099436424e-09 0.9999995184295352 5.880087154401983e-09 3.9809274836467627e-07
51 1 -1.59284 7.16481 1.4948 1.2 1.2004162947687258e-06 6.453043491403927e-07 0.9999981097615306 6.406418302250303e-10 4.3877177187542395e-08
52 2 0.240329 5.09994 1.4948 2.4 2.1294443511238735e-09 1.4643935469354737e-07 0.9999998460620082 5.228361867218111e-09 1.4082626750451086e-10
53 3 0.234538 3.48671 1.4948 -1.2 2.5302257042504944e-11 1.5729020453729412e-08 0.9999999660404632 1.5096089099459598e-08 3.1091222968489485e-09
54 3 6.85564 6.07396 1.4948 -1.2 5.747038269338124e-07 2.9877699952383522e-06 0.9999959878507152 2.0038592194941812e-10 4.4947507621072703e-07
55 3 -0.429565 5.80612 0.196716 -1.2 4.508321827501094e-09 8.621340024498459e-08 0.9999999077001192 2.389074119151797e-10 1.3392529879197787e-09
56 3 -0.473377 5.80612 2.79288 -1.2 2.744167778965488e-09 8.068532033299339e-09 0.9999999772628743 8.430924947489263e-09 3.4934989456709694e-09
57 1 6.40169 9.49799 0 1.2 7.356483520141095e-05 2.6989023053248713e-06 0.9999235093625294 4.761848691889213e-12 2.2689520419868152e-07
58 1 3.64209 14.2057 1.4948 1.2 0.00022599003782647405 6.471590178788533e-07 0.9997730919207097 1.0760811214470259e-12 2.7088137439465966e-07
59 2 5.45748 11.5215 1.4948 2.4 0.0013709473499557928 2.183474962536444e-05 0.9986069559363617 9.04154454049561e-14 2.619639729531978e-07
60 3 5.51101 13.1348 1.4948 -1.2 0.014626878964070257 0.000105974258851727 0.9852597899411037 1.5468182896890296e-14 7.356835961452598e-06
61 3 1.83851 10.5475 1.4948 -1.2 0.003363117919180982 1.5139665365864722e-05 0.9966195541700547 3.0299249975407385e-14 2.1882453640255646e-06
62 3 4.7611 10.8154 0.196716 -1.2 0.0006293013857032683 1.6241698660988034e-05 0.9993537015836345 1.263388818659767e-13 7.553318820085388e-07
63 1 6.35203 9.49799 2.9896 1.2 2.959986062742279e-05 1.9658752881739757e-06 0.9999678066135738 8.896025490499498e-11 6.275615438045637e-07
64 3 4.71833 10.8154 2.79288 -1.2 6.489476103500954e-05 1.1911634154254838e-06 0.9999332261416531 4.702491225460331e-12 6.879291958666202e-07
65 1 -1.0438 9.53931 4.4844 1.2 2.106719011707139e-06 4.938986657862309e-08 0.999997468574811 6.389738660427589e-09 3.6892657654457493e-07
66 2 -2.8604 12.2234 4.4844 2.4 6.950921296614222e-06 9.681089066179622e-07 0.9999905105731179 6.874118277638294e-10 1.5697092693200176e-06
67 3 -2.91391 10.6102 4.4844 -1.2 7.491441858318032e-06 2.005723098846858e-07 0.9999917152743187 1.0527266182282123e-11 5.927009902449041e-07
68 3 0.7596 13.1975 4.4844 -1.2 1.4783968664701799e-05 1.235080619477742e-06 0.9999816534746775 2.1098845711051045e-11 2.3274549417104612e-06
69 3 -2.12001 12.9296 3.18632 -1.2 8.127867467940808e-05 9.7618258790278e-07 0.9999171556054804 1.980354143721638e-12 5.895352695518023e-07
70 3 -2.16532 12.9296 5.78248 -1.2 2.124826356573449e-05 1.2818667630301836e-07 0.9999750596976142 1.9281903286475144e-10 3.5636593291836347e-06
71 1 1.29891 11.8725 2.9896 1.2 9.510762298722281e-05 1.2301569737487354e-06 0.9999028870902064 1.7694756214103357e-11 7.751121379630394e-07
72 1 4.10033 11.8312 4.4844 1.2 1.5753567455094327e-05 5.18456738382685e-08 0.9999832585328998 1.6730093664718481e-09 9.343809548459513e-07
73 2 2.27333 13.896 4.4844 2.4 5.3049809239617814e-05 1.813151711471898e-06 0.9999432742351785 1.0136470892497867e-10 1.8627025001583576e-06
74 3 2.28634 15.5093 4.4844 -1.2 7.050174823716596e-05 2.711722002901607e-07 0.9999287679441862 2.4522944543350706e-13 4.591351261308736e-07
75 3 -4.34533 12.922 4.4844 -1.2 3.7201815517645494e-06 1.6677394529181756e-07 0.9999951599326983 3.508966194557401e-11 9.530767134675762e-07
76 3 2.98455 13.1899 3.18632 -1.2 6.517866874473166e-05 9.353162414302632e-07 0.9999333335682484 2.4852676188976824e-12 5.524442772645614e-07
77 1 1.34779 11.8725 0 1.2 0.00032437735575788885 2.6016566231101104e-06 0.999672497262126 1.340730936216089e-12 5.237241506456784e-07
78 3 2.93934 13.1899 5.78248 -1.2 1.3134934412854819e-05 5.350378096526545e-08 0.999985810633888 9.671506865212411e-11 1.0008312073205304e-06
79 1 -1.50344 11.9138 1.4948 1.2 0.00023092740097025162 1.638123882005592e-06 0.9997670424726643 1.3164683628599726e-12 3.9200116433455107e-07
80 2 0.326006 9.84894 1.4948 2.4 0.0002725208392326019 7.910232751755503e-06 0.9997194519316553 1.735910815305541e-13 1.1699619171056396e-07
81 3 0.317364 8.23571 1.4948 -1.2 0.0002758975702071557 1.3295453635094472e-05 0.9997095616004351 3.220076020485898e-12 1.245372496823806e-06
82 3 6.94307 10.823 1.4948 -1.2 0.0020229165901391915 2.6121246770763864e-05 0.9979495416971041 2.1959393910026312e-14 1.4204659700892508e-06
83 3 -0.343122 10.5551 0.196716 -1.2 0.0002273440393619744 6.873064871786558e-06 0.9997654430357737 2.212660216313972e-13 3.398597652526773e-07
84 3 -0.385966 10.5551 2.79288 -1.2 4.2469639314743814e-05 9.61083818722217e-07 0.9999559774676744 1.265479959434324e-11 5.917965339360604e-07
85 1 6.49448 14.247 0 1.2 0.0014270135167503042 2.480841229343946e-06 0.9985695187545078 1.387255297640299e-13 9.868873668943877e-07
86 1 3.74457 18.9547 1.4948 1.2 5.427101358552625e-05 1.5674134052470036e-07 0.9999455294300267 2.7610510740700987e-13 4.281477803194038e-08
87 2 5.55495 16.2705 1.4948 2.4 0.0009129104255688155 8.912054799483245e-06 0.9990781565888649 3.305115632640683e-15 2.0930762278792177e-08
88 3 5.6115 17.8838 1.4948 -1.2 0.00538370734452661 3.4890241223479335e-05 0.9945807426652544 1.001354601351614e-15 6.59748997770141e-07
89 3 1.93416 15.2965 1.4948 -1.2 0.01567702929022788 3.173698489496846e-05 0.9842896586976612 1.0061066922346068e-15 1.5750272102362398e-06
90 3 4.85636 15.5644 0.196716 -1.2 0.0054135469730396514 2.6709564785810108e-05 0.9945588054189773 7.723873713331212e-15 9.380431855709136e-07
91 1 6.44662 14.247 2.9896 1.2 0.00014320777314765108 1.0330208674913419e-06 0.9998552649424779 3.531978526568883e-12 4.942599819337729e-07
92 3 4.81537 15.5644 2.79288 -1.2 0.0005672089738553116 5.335620658492174e-06 0.9994265957022803 2.8033685951318803e-13 8.59702918847223e-07
93 1 -0.948271 14.2883 4.4844 1.2 2.3816560827230166e-05 1.3432923759835368e-07 0.9999750877753748 5.63386331753532e-10 9.60771177720341e-07
94 2 -2.75928 16.9724 4.4844 2.4 0.00011337653876915739 1.2119287036072363e-06 0.9998850765085904 1.4106075041629e-11 3.3500983003754e-07
95 3 -2.81617 15.3592 4.4844 -1.2 4.0702924558188524e-05 4.392281437209236e-07 0.9999577208402826 8.221981986875791e-13 1.1370061933245225e-06
96 3 0.862762 17.9465 4.4844 -1.2 3.814446774597591e-05 9.96247859693991e-07 0.9999600557507147 1.484793724792432e-12 8.035321960579164e-07
97 3 -2.0185 17.6786 3.18632 -1.2 0.00013237367416224345 7.241027635226763e-07 0.9998667304420542 8.327575137376651e-14 1.7178094273190454e-07
98 3 -2.06164 17.6786 5.78248 -1.2 0.0002085026997797531 2.0958358838104147e-07 0.9997886042902591 5.855014612801584e-12 2.6834205119942735e-06
99 1 1.39817 16.6215 2.9896 1.2 0.0002031558738085282 1.1936556576009562e-06 0.9997950422452231 1.1787362680141555e-12 6.082241283989431e-07
100 1 4.20062 16.5802 4.4844 1.2 4.71615330302637e-05 7.221637940899939e-08 0.9999520948055854 1.3933556103384763e-10 6.713056733564123e-07
101 2 2.37796 18.645 4.4844 2.4 6.818571284093087e-05 5.840427501553766e-07 0.9999311143820442 6.697176327885041e-12 1.1585567256548981e-07
102 3 2.39434 20.2583 4.4844 -1.2 8.160594869120025e-05 1.9961537700366836e-07 0.9999179478568813 3.097637353569917e-14 2.4657902425219907e-07
103 3 -4.24274 17.671 4.4844 -1.2 2.4872738451806148e-05 4.417031331422686e-07 0.9999742515503987 2.2294547949445345e-12 4.3400578225105035e-07
104 3 3.08659 17.9389 3.18632 -1.2 0.00011631706590242049 1.1417302225482865e-06 0.9998823020089407 1.9042615302194087e-13 2.3919474304902427e-07
105 1 1.44478 16.6215 0 1.2 0.0011657710329702705 8.743524319116428e-07 0.9988328744578145 8.589598043758868e-14 4.801566987934823e-07
106 3 3.0436 17.9389 5.78248 -1.2 4.7353468542186256e-05 2.7104367569790663e-08 0.999952256291152 7.52666465313574e-12 3.6312841045986975e-07
107 1 -1.40524 16.6628 1.4948 1.2 0.0007493212753960374 1.5397290260336728e-06 0.9992487299690465 9.164383907303615e-14 4.090264337411286e-07
108 2 0.420358 14.5979 1.4948 2.4 0.002059878664529155 1.3797236491948351e-05 0.9979262631022396 1.797972946083869e-14 6.099671648408211e-08
109 3 0.408732 12.9847 1.4948 -1.2 0.009299660966367624 5.026112249872309e-05 0.990648005135643 1.058081132966176e-14 2.072775481371047e-06
110 3 7.03923 15.572 1.4948 -1.2 0.015496133223612802 6.763128360651356e-05 0.9844342202793015 1.4690424076324108e-15 2.015213483340907e-06
111 3 -0.248332 15.3041 0.196716 -1.2 0.0031966719286320527 2.2359419059257625e-05 0.9967803507439792 1.1662681423124132e-14 6.17908317213868e-07
112 3 -0.289436 15.3041 2.79288 -1.2 0.0006039609938426867 6.458780449705033e-06 0.9993882951826356 7.386403537600044e-13 1.2850423363288714e-06
113 1 6.59566 18.996 0 1.2 0.0003449722832379832 2.0146506612302964e-07 0.9996547421369121 4.637736062167053e-15 8.41147808871062e-08
114 1 3.85574 23.7037 1.4948 1.2 0.001133763678410459 9.569343565705294e-07 0.9988648571516157 2.231596414307214e-13 4.2223539212768086e-07
115 2 5.66125 21.0195 1.4948 2.4 0.00171088626149036 3.8246473275594196e-06 0.998285284224242 1.2655667802503647e-15 4.86693457769992e-09
116 3 5.72074 22.6328 1.4948 -1.2 0.026183755294548906 6.809767318002154e-05 0.9737467459664251 1.0407405792875676e-15 1.4010658400128846e-06
117 3 2.03867 20.0455 1.4948 -1.2 0.02084781565735901 3.0832541773160635e-05 0.9791204430252146 1.0977266815136671e-16 9.087756567607928e-07
118 3 4.96004 20.3134 0.196716 -1.2 0.005480912658035241 9.987556445570313e-06 0.9945088422600352 6.509683846741446e-16 2.5752548762300633e-07
119 1 6.55057 18.996 2.9896 1.2 0.00010454242467289406 3.4145480540406684e-07 0.9998949673376281 2.6371944495064255e-13 1.4878263354753386e-07
120 3 4.92172 20.3134 2.79288 -1.2 0.0003933754381145756 3.600869197123094e-06 0.999602612886391 7.84930282047591e-14 4.1080622527713343e-07
121 1 -0.84282 19.0373 4.4844 1.2 1.7902902806053564e-05 6.495356510280071e-08 0.9999817655888809 4.51607567361696e-11 2.665095882647696e-07
122 2 -2.64823 21.7214 4.4844 2.4 0.00013088859259509318 3.4369196612763067e-07 0.9998687247383655 2.031047578112234e-12 4.2975041621182566e-08
123 3 -2.70847 20.1082 4.4844 -1.2 3.543686788307291e-05 1.4355138331778784e-07 0.9999642927472141 4.483424376424601e-14 1.268334720289781e-07
124 3 0.97581 22.6955 4.4844 -1.2 0.00018451566337052204 1.7850808694260197e-06 0.9998122800694242 8.851134669620769e-13 1.4191854512020213e-06
125 3 -1.9076 22.4276 3.18632 -1.2 0.00042304540438874524 7.272615958800015e-07 0.9995760699629563 2.489961213926684e-14 1.5737103129168e-07
126 3 -1.9475 22.4276 5.78248 -1.2 0.0003145075842878904 8.864126704738752e-08 0.9996846402624116 9.48115647883265e-13 7.635110889709582e-07
127 1 1.50678 21.3705 2.9896 1.2 0.0003243820678085818 5.48049893736985e-07 0.9996747038469631 2.692892331747594e-13 3.660350690790472e-07
128 1 4.31086 21.3292 4.4844 1.2 1.4978684185764367e-05 1.4515556571517405e-08 0.9999849445471682 2.565320980764906e-11 6.222743567247656e-08
129 2 2.49243 23.394 4.4844 2.4 0.0002158194688221007 3.8551634099892463e-07 0.9997837237406078 6.2525795054356e-12 7.126797266647139e-08
130 3 2.51204 25.0073 4.4844 -1.2 0.00010570128328791 1.37965755419693e-07 0.9998938339653607 5.18067995172114e-14 3.2678555096727016e-07
131 3 -4.13026 22.42 4.4844 -1.2 8.091020344365439e-05 5.443896372511586e-07 0.999918274776443 3.77108082954657e-13 2.706300961492171e-07
132 3 3.19799 22.6879 3.18632 -1.2 0.000536273111459031 1.7806089423004847e-06 0.9994616386389766 5.770870465396081e-14 3.076405634842576e-07
133 1 1.5501 21.3705 0 1.2 0.0013898013185586922 4.919922911818771e-07 0.9986094488690594 1.0934939815736372e-14 2.5782007962902555e-07
134 3 3.1583 22.6879 5.78248 -1.2 9.662118033871576e-05 1.7504678609062095e-08 0.9999031971808064 1.7274277822337637e-12 1.6413244436476815e-07
135 1 -1.29822 21.4118 1.4948 1.2 0.000975982463598592 7.507128176130785e-07 0.9990230405006195 1.0933837290195949e-14 2.263229545070259e-07
136 2 0.523568 19.3469 1.4948 2.4 0.0004718546177419399 2.9093414937991704e-06 0.9995252341628029 1.9070090177835497e-15 1.8779609405041675e-09
137 3 0.508934 17.7337 1.4948 -1.2 0.0036880083771667904 3.526756952048092e-05 0.9962763145650614 1.3548033561812924e-15 4.094882503513162e-07
138 3 7.14425 20.321 1.4948 -1.2 0.013629344319288802 5.0652082967257666e-05 0.9863193078952027 1.2267300526790235e-16 6.957025352788483e-07
139 3 -0.145107 20.0531 0.196716 -1.2 0.0018808000533892992 1.0222169855241906e-05 0.9981088542274809 1.4408475958962698e-15 1.2354926672413922e-07
140 3 -0.183601 20.0531 2.79288 -1.2 0.0012926247007200157 6.607110015484263e-06 0.9987003454401692 3.4734060220732806e-14 4.22749063309454e-07
141 1 6.70502 23.745 0 1.2 0.007013980512621908 2.2928626099261796e-06 0.9929823952539971 7.860892814787801e-15 1.3313707678069232e-06
142 1 3.97493 28.4527 1.4948 1.2 0.2653544317379681 2.990645911022499e-05 0.734562141445906 2.0311803747278625e-12 5.352035498878921e-05
143 2 5.77602 25.7685 1.4948 2.4 0.2818867571488494 3.588123748976885e-05 0.7180771660783082 7.066158207698943e-15 1.9553534871238235e-07
144 3 5.83821 27.3818 1.4948 -1.2 0.7600441124140976 0.00011542760914298282 0.23981905860759964 2.45311933875851e-15 2.1401369151429403e-05
145 3 2.15175 24.7945 1.4948 -1.2 0.7738355786870819 0.0002498727955706044 0.22589653432454457 1.2802481098818306e-16 1.8014192807722947e-05
146 3 5.07184 25.0624 0.196716 -1.2 0.36728672742216245 8.887115225991886e-05 0.6326125605874701 3.1761360815455346e-15 1.184083810409217e-05
147 1 6.66374 23.745 2.9896 1.2 0.0009516995688941115 8.336781496378683e-07 0.9990469523503325 1.3310832351993994e-13 5.144024850851829e-07
148 3 5.03707 25.0624 2.79288 -1.2 0.005778710460163043 1.4252507282855418e-05 0.9942040792154139 1.5364848249191098e-13 2.957816981159102e-06
149 1 -0.727559 23.7863 4.4844 1.2 6.139187459168841e-05 8.267753965645391e-08 0.9999381846507853 2.2745852402739896e-11 3.4077433359997567e-07
150 2 -2.5277 26.4704 4.4844 2.4 0.0009109980245507696 2.7306490230842215e-07 0.9990886552028906 2.044290035793664e-12 7.37056084486608e-08
151 3 -2.59107 24.8572 4.4844 -1.2 0.0001336164273628035 2.3985117034059955e-07 0.9998657670001917 3.30165652018816e-14 3.7672123792513234e-07
152 3 1.09817 27.4445 4.4844 -1.2 0.003293156993600116 3.0932641364023818e-06 0.9966986674467337 8.347316916953295e-13 5.082294701686126e-06
153 3 -1.78784 27.1766 3.18632 -1.2 0.0032986095672586694 1.1067485634453676e-06 0.9966995484845841 1.568142161558769e-13 7.351994306176335e-07
154 3 -1.82343 27.1766 5.78248 -1.2 0.00046635794963127556 4.343756713265038e-08 0.9995331901942631 1.244093515874444e-12 4.0841728830902013e-07
155 1 1.62435 26.1195 2.9896 1.2 0.008553030693362029 2.1467247573221068e-06 0.9914412975216165 3.571774761352748e-13 3.5250599068345002e-06
156 1 4.43064 26.0782 4.4844 1.2 0.00014483326876503415 3.485333040734295e-08 0.9998549820991602 1.2989347608880849e-11 1.497657481532034e-07
157 2 2.61607 28.143 4.4844 2.4 0.0014881543079225525 4.174934047929636e-07 0.9985111974179407 1.740736155322255e-11 2.3076332656784552e-07
158 3 2.63853 29.7563 4.4844 -1.2 0.000200410123156824 6.866358050591822e-08 0.9997989183971469 5.35896903958861e-13 6.028155860592837e-07
159 3 -4.00841 27.169 4.4844 -1.2 0.0006473491623783449 6.613268783991794e-07 0.9993513614037062 3.597493610632041e-13 6.281066747950614e-07
160 3 3.3182 27.4369 3.18632 -1.2 0.013114411569669495 4.992805146836763e-06 0.9868765880601529 1.923714358875966e-13 4.0075648381907706e-06
161 1 1.66335 26.1195 0 1.2 0.16161224460867615 2.1340869858561977e-05 0.8383458611331552 3.2200462886757934e-14 2.055338828242179e-05
162 3 3.28288 27.4369 5.78248 -1.2 0.00021313311246533225 1.7404803297499206e-08 0.9997866977412014 1.928942865749058e-12 1.5173960231625001e-07
163 1 -1.18278 26.1608 1.4948 1.2 0.09394449872988193 1.9031022678074077e-05 0.9060220218905022 8.549135120116449e-14 1.4448356854541884e-05
164 2 0.635424 24.0959 1.4948 2.4 0.009243415416310364 4.951233158568096e-06 0.9907516272667416 2.826455141261239e-15 6.0837817775993104e-09
165 3 0.617906 22.4827 1.4948 -1.2 0.019208879229012328 4.4696198356015404e-05 0.9807457974895831 6.899271239354598e-16 6.270830472208561e-07
166 3 7.25781 25.07 1.4948 -1.2 0.4788998424172365 0.0002718696314788145 0.5208147455740337 2.6844228579580265e-16 1.354237725103301e-05
167 3 -0.0337363 24.8021 0.196716 -1.2 0.08905289180877105 5.457839895616997e-05 0.9108893839065817 2.1619793183543433e-15 3.1458856842776176e-06
168 3 -0.0687235 24.8021 2.79288 -1.2 0.008456290071869339 1.662899565522672e-05 0.991525057718733 1.1207540876928747e-13 2.0232136250813204e-06
169 1 6.82195 28.494 0 1.2 0.37657748389584955 4.893986331163087e-05 0.6232834166247716 1.4509915750895572e-13 9.015961591834438e-05
170 1 4.10106 33.2017 1.4948 1.2 0.785545938681365 0.00018136119865811763 0.21362510600427756 7.36141375756309e-11 0.0006475940420897862
171 2 5.89839 30.5175 1.4948 2.4 0.9935725717989131 1.1564574983676275e-05 0.006414789848028052 3.8343538603424735e-15 1.0737780649081483e-06
172 3 5.96289 32.1308 1.4948 -1.2 0.9343955729388955 6.848240194631797e-05 0.06547665189472526 6.07885336160399e-14 5.929276437602725e-05
173 3 2.27266 29.5435 1.4948 -1.2 0.9869601567633238 0.00012924526892244201 0.01282491487856654 1.6146710303495785e-15 8.568308919253217e-05
174 3 5.19102 29.8114 0.196716 -1.2 0.9862044320406415 1.7445128409631046e-05 0.013751470010643783 2.0822254869009453e-15 2.6652820297446148e-05
175 1 6.78546 28.494 2.9896 1.2 0.02610717774772399 3.8560985481163176e-06 0.9738805602039668 1.7892003523456975e-12 8.405947966511558e-06
176 3 5.16061 29.8114 2.79288 -1.2 0.06785502855861117 2.5842487603028857e-05 0.9321026664324266 1.1866355955806155e-12 1.6462520173234946e-05
177 1 -0.603205 28.5353 4.4844 1.2 0.0005745242099712287 1.777358101548377e-07 0.9994237782105458 6.47408923152614e-11 1.5197789361418963e-06
178 2 -2.39877 31.2194 4.4844 2.4 0.0018987479288042248 4.790706697981418e-07 0.998100137609958 4.314192553304488e-11 6.353474253681431e-07
179 3 -2.46483 29.6062 4.4844 -1.2 8.744969615492927e-05 8.041917557431022e-08 0.9999121686849023 6.172382102988809e-13 3.011991474352844e-07
180 3 1.22864 32.1935 4.4844 -1.2 0.003063161348175414 2.7332284635153924e-06 0.9969244947249044 1.3644892854009441e-11 9.61068481527776e-06
181 3 -1.66032 31.9256 3.18632 -1.2 0.008807650530188544 1.9313582071487034e-06 0.9911875613331991 3.529771269958466e-12 2.85677487825401e-06
182 3 -1.69072 31.9256 5.78248 -1.2 0.0003913747379674052 3.4547956945023593e-08 0.9996081694542418 6.943732800560915e-12 4.2125288663128495e-07
183 1 1.7499 30.8685 2.9896 1.2 0.09244145405924949 1.1272095937438528e-05 0.9075023987735681 6.046844670661038e-12 4.487506519192541e-05
184 1 4.55894 30.8272 4.4844 1.2 0.0014597312783292573 5.495265813791646e-08 0.9985394432586768 8.481725501690523e-11 7.704255185674821e-07
185 2 2.7476 32.892 4.4844 2.4 0.002751087556886779 8.817500730015547e-07 0.9972467653986138 2.285578492758143e-10 1.2650658715569997e-06
186 3 2.77235 34.5053 4.4844 -1.2 8.801892395505637e-05 4.990156276487037e-08 0.9999111598437294 7.0122218932646876e-12 7.713237406292541e-07
187 3 -3.87837 31.918 4.4844 -1.2 0.0007003794818739021 5.193788295905547e-07 0.9992971324969845 6.1699607887298885e-12 1.968636137515943e-06
188 3 3.44611 32.1859 3.18632 -1.2 0.0429525104857472 8.642005008821667e-06 0.9570212648939174 7.200519120454947e-12 1.7582608127057353e-05
189 1 1.7837 30.8685 0 1.2 0.9178143256589963 5.269493685954793e-05 0.08184625448954018 1.5195943268722595e-13 0.00028672491444689345
190 3 3.41602 32.1859 5.78248 -1.2 6.783174954202282e-05 7.189026405178946e-09 0.9999320534147728 1.547286322816192e-11 1.076311789803488e-07
191 1 -1.05984 30.9098 1.4948 1.2 0.8886130863988656 0.00010983846923154586 0.11100367827932775 8.76578386734546e-13 0.0002733968517040629
192 2 0.755243 28.8449 1.4948 2.4 0.9480208333998549 1.1734285006614283e-05 0.05196718085382968 2.964665359382193e-15 2.514613032713647e-07
193 3 0.735127 27.2317 1.4948 -1.2 0.8613385552473388 9.212158067270989e-05 0.1385555976541355 1.0006424132796456e-15 1.3725517845170296e-05
194 3 7.37914 29.819 1.4948 -1.2 0.9567235543623295 0.00020473652756139758 0.042971821863897926 4.5893066224311465e-15 9.988724621368356e-05
195 3 0.0850649 29.5511 0.196716 -1.2 0.8401681257915892 0.00010172952242313442 0.15968288677557005 3.6583188924883895e-14 4.725791038682641e-05
196 3 0.0543974 29.5511 2.79288 -1.2 0.1457840916862237 4.678207639821918e-05 0.8541475735576057 7.601486442606044e-13 2.155267900819854e-05
197 1 6.94543 33.243 0 1.2 0.9393881530041597 4.652623526458404e-05 0.0602158978697439 5.229185808337829e-13 0.00034942289030440724
198 1 4.23267 37.9507 1.4948 1.2 0.3637166489024814 0.00012472770500606128 0.6356756060004967 1.5886439006948243e-09 0.00048301580336696507
199 2 6.02709 35.2665 1.4948 2.4 0.9976590862036214 2.0851551326442867e-05 0.0023120672756844957 5.41855913318079e-14 7.994969307927038e-06
200 3 6.09339 36.8798 1.4948 -1.2 0.5671200558377286 0.00011839849433052897 0.43259643796889247 8.748452809773859e-12 0.00016510769030679678
201 3 2.40018 34.2925 1.4948 -1.2 0.9539776618987255 0.000256351820224228 0.04538323119585569 5.394125535708944e-13 0.0003827550846552543
202 3 5.31645 34.5604 0.196716 -1.2 0.985476918954266 2.8553867517864886e-05 0.014359278363180905 1.2522640787799505e-13 0.00013524881491479906
203 1 6.91449 33.243 2.9896 1.2 0.07801092048605365 9.118963168218572e-06 0.9219319385602562 6.320204691983058e-11 4.802192731793336e-05
204 3 5.291 34.5604 2.79288 -1.2 0.033220902172966665 3.723648821925929e-05 0.9666875996634257 4.758261491380983e-11 5.4261627804367975e-05
205 1 -0.471101 33.2843 4.4844 1.2 0.0052070092932681835 4.839151330843946e-07 0.9947862962299452 5.433000712830373e-10 6.210018352520977e-06
206 2 -2.26307 35.9684 4.4844 2.4 0.000263422875031859 3.0713195622826064e-07 0.9997343075039695 2.441590160725448e-09 1.960047456577978e-06
207 3 -2.33122 34.3552 4.4844 -1.2 0.00010882495041318099 7.510788162511723e-08 0.999890435041322 6.228761636377499e-12 6.648941493202901e-07
208 3 1.36549 36.9425 4.4844 -1.2 0.00016625287413368377 3.7988865109062053e-07 0.9998303928388713 5.135621487055966e-11 2.9743469871469635e-06
209 3 -1.52658 36.6746 3.18632 -1.2 0.0064889509714940894 2.9282337363433115e-06 0.9935004089762721 6.927106050899689e-11 7.711749226160431e-06
210 3 -1.55122 36.6746 5.78248 -1.2 6.0047582964811627e-05 5.736210842121329e-09 0.999939819824387 4.334523367705537e-11 1.2681309258336435e-07
211 1 1.882 35.6175 2.9896 1.2 0.05971781998253053 1.4730175099014945e-05 0.9401903237313082 1.4287803712040224e-10 7.71259681850384e-05