ITEM: TIMESTEP
12900
ITEM: NUMBER OF ATOMS
10500
ITEM: BOX BOUNDS xy xz yz pp pp pp
0	15.2974	5.099
0	118.725	0
0	89.688	0
ITEM: ATOMS id type xu yu zu q pCrystal pDisloC pDisloB pDisloA
1 1 6.2404 -6.37941e-06 0 1.2 2.597818981378144e-21 9.080727835289743e-10 0.9999999983513703 7.40550405266492e-10
2 1 3.46349 4.70768 1.4948 1.2 1.0721342765425264e-06 0.040833851267100645 0.5109330787771096 0.44823199782150885
3 2 5.2885 2.02354 1.4948 2.4 2.080497074672434e-06 0.9907814032373339 0.0020223984548082318 0.0071941178107802345
4 3 5.33628 3.63678 1.4948 -1.2 8.050209927828849e-11 0.9999783857475326 2.160580725300687e-05 8.364718403948375e-09
5 3 1.67294 1.04952 1.4948 -1.2 3.146849563405567e-17 0.9065473781454368 0.09345259994812757 2.1906430467950197e-08
6 3 4.59532 1.31737 0.196716 -1.2 1.3468835166512154e-18 0.5558117504976505 0.44418824913020444 3.7214048719650135e-10
7 1 6.18956 -6.37941e-06 2.9896 1.2 1.4215103499857101e-25 3.1684850916531196e-09 0.9999999966685351 1.6297982088452691e-10
8 3 4.55118 1.31737 2.79288 -1.2 2.467041807699673e-20 0.10422154368653634 0.8957784561704986 1.42961164800106e-10
9 1 -1.20682 0.0413099 4.4844 1.2 8.616819953062271e-28 2.3551331974864297e-10 0.9999999997187814 4.570632451876597e-11
10 2 -3.0337 2.72544 4.4844 2.4 8.288408635411493e-08 0.9995596548879396 0.00034859707315345174 9.166515481560256e-05
11 3 -3.08099 1.11221 4.4844 -1.2 1.3043902650945528e-23 0.03758255266208115 0.9624174473355206 2.3963394386804965e-12
12 3 0.582463 3.69946 4.4844 -1.2 5.3609338669132864e-14 0.9976560322100241 0.0023439630331242153 4.756792851452754e-09
13 3 -2.29524 3.43162 3.18632 -1.2 1.4988489840892215e-13 0.9997739693127836 0.0002260289931639544 1.6939091476835985e-09
14 3 -2.34216 3.43162 5.78248 -1.2 3.318667411716932e-17 0.9585522870050793 0.04144771264197767 3.529363052236512e-10
15 1 1.12778 2.37449 2.9896 1.2 1.0709708494536453e-17 1.8827351402673642e-06 0.9999969306243838 1.1866404818390018e-06
16 1 3.92855 2.33318 4.4844 1.2 1.6749300880077564e-22 7.59745301689222e-09 0.9999997634734679 2.2892908044069933e-07
17 2 2.09341 4.39804 4.4844 2.4 0.566736607930219 0.43325622175759465 7.164217785879053e-06 6.094404354986644e-09
18 3 2.09991 6.01128 4.4844 -1.2 4.493677561412026e-07 0.9999986905638043 8.259710826830163e-07 3.409735241351734e-08
19 3 -4.52137 3.42402 4.4844 -1.2 2.4955729334640476e-16 0.9784801515046366 0.021519847842841826 6.525257550353484e-10
20 3 2.80834 3.69187 3.18632 -1.2 1.990608851908608e-14 0.9992862467387197 0.0007137528681571185 3.9310520368300867e-10
21 1 1.17857 2.37449 0 1.2 2.430822360076091e-17 5.055645148914657e-06 0.9999864368526593 8.507502197234618e-06
22 3 2.76143 3.69187 5.78248 -1.2 2.9177157686327304e-18 0.9708155079525755 0.02918449191875476 1.2867117627122083e-10
23 1 -1.67381 2.41581 1.4948 1.2 1.758769088358685e-10 0.007092946695244108 0.9883231157434607 0.004583937385417202
24 2 0.16286 0.350945 1.4948 2.4 4.034208193300774e-09 0.4427683941420385 0.005245628519561721 0.5519859733041934
25 3 0.15972 -1.26229 1.4948 -1.2 8.401779295010763e-16 0.952894638582814 0.0471049780825672 3.833346237875451e-07
26 3 6.77654 1.32496 1.4948 -1.2 4.7509979423218816e-15 0.9932785195417728 0.006721444130649461 3.632757220666205e-08
27 3 -0.508028 1.05712 0.196716 -1.2 4.3957369992126e-19 0.2926207356174506 0.7073792508337707 1.3548782015209675e-08
28 3 -0.552171 1.05712 2.79288 -1.2 1.3591066842562728e-20 0.25580172842530585 0.7441982707556667 8.190317736815837e-10
29 1 6.31713 4.74899 0 1.2 1.3202896519945503e-08 0.0515614768935494 0.6261492426706243 0.32228926723292683
30 1 3.54847 9.45668 1.4948 1.2 0.9295529318400357 0.07010301188860925 1.3740089609424505e-14 0.0003440562713356757
31 2 5.36879 6.77254 1.4948 2.4 0.9999999963087447 3.6912584524257248e-09 1.2596545688157808e-23 4.851846568661882e-22
32 3 5.41937 8.38578 1.4948 -1.2 0.9316144093643477 0.06838556812330862 5.484624890432371e-16 2.2512340245476358e-08
33 3 1.75158 5.79852 1.4948 -1.2 0.0012424818050545965 0.9987571312960405 4.6765206646062175e-11 3.8685213736798385e-07
34 3 4.67421 6.06637 0.196716 -1.2 8.178974771219112e-06 0.9999917862791496 2.8091777317625983e-08 6.654302010534767e-09
35 1 6.26654 4.74899 2.9896 1.2 7.25504645726547e-08 0.0014107979396254609 0.08831109511139802 0.9102780343985176
36 3 4.63043 6.06637 2.79288 -1.2 2.351817641996148e-06 0.9999975629414162 6.801686762174125e-08 1.7224077365410477e-08
37 1 -1.12976 4.79031 4.4844 1.2 5.875484100837882e-09 2.7012684595637894e-05 0.9062712994433401 0.0937016819965837
38 2 -2.9517 7.47444 4.4844 2.4 0.9999999999923261 7.67343685253129e-12 2.4418778761244682e-21 1.4258938444974648e-24
39 3 -3.00198 5.86121 4.4844 -1.2 6.519918455482977e-09 0.9999902212001576 9.769467255791934e-06 2.8126646256646457e-09
40 3 0.666315 8.44846 4.4844 -1.2 0.007561445487636647 0.9924384777778531 1.2643974367398691e-09 7.547011102594141e-08
41 3 -2.21213 8.18062 3.18632 -1.2 0.013849449327530095 0.9861505352790411 2.1208124725822416e-10 1.5181342556365603e-08
42 3 -2.25864 8.18062 5.78248 -1.2 0.000288003475714231 0.9997119339706828 5.706071990756599e-08 5.492887008586932e-09
43 1 1.20893 7.12349 2.9896 1.2 0.11047081453216737 0.40047992683101763 9.633958399487891e-07 0.4890482952409802
44 1 4.00982 7.08218 4.4844 1.2 0.0034140608046935484 0.006099148403751792 0.0010071531507901044 0.9894796376407682
45 2 2.17861 9.14704 4.4844 2.4 1.0 2.898660762312774e-17 1.5239877245050823e-30 1.0988710076071118e-33
46 3 2.18828 10.7603 4.4844 -1.2 0.8902975199568729 0.10970247700883204 2.989635026293049e-14 3.0342705211750084e-09
47 3 -4.43805 8.17302 4.4844 -1.2 0.0006159324093864722 0.9993839953589502 6.155244882825209e-08 1.0679213238356634e-08
48 3 2.89193 8.44087 3.18632 -1.2 0.07099993761967772 0.9289999644591038 3.464658787009337e-11 9.78865775953191e-08
49 1 1.25915 7.12349 0 1.2 0.06926215245690977 0.6071723083490528 2.0046593002345076e-06 0.3235635345347392
50 3 2.84547 8.44087 5.78248 -1.2 0.0017278734708863772 0.9982721151756728 7.827106320574905e-09 3.5263371325135486e-09
51 1 -1.59284 7.16481 1.4948 1.2 0.21772967710932767 0.7321421886252741 3.826200106549171e-08 0.05012809600339486
52 2 0.240329 5.09994 1.4948 2.4 0.9997517858495576 0.00024821414990835577 1.854489866603929e-15 5.31967992763128e-13
53 3 0.234538 3.48671 1.4948 -1.2 3.858695506569655e-12 0.9999341471586992 6.581899882701062e-05 3.383861536870151e-08
54 3 6.85564 6.07396 1.4948 -1.2 1.2684106040710403e-05 0.9999872660542097 2.859849114988955e-09 4.697989698541341e-08
55 3 -0.429565 5.80612 0.196716 -1.2 5.66269543259352e-07 0.9999992665255765 1.6346359522461604e-07 3.741280374018903e-09
56 3 -0.473377 5.80612 2.79288 -1.2 1.815488268659554e-07 0.9999992046108767 6.08383411790569e-07 5.456877623582112e-09
57 1 6.40169 9.49799 0 1.2 0.9567306015063421 0.043261720014656405 6.283580992453792e-15 7.678478989286695e-06
58 1 3.64209 14.2057 1.4948 1.2 0.983915466315157 0.016082296077048176 4.1567983591562056e-19 2.237607792671574e-06
59 2 5.45748 11.5215 1.4948 2.4 1.0 1.3755205793324144e-15 7.2368502085264e-38 3.8154578828254556e-34
60 3 5.51101 13.1348 1.4948 -1.2 0.9996100479501626 0.00038995169988685234 7.449825864033027e-23 3.4994649014883326e-10
61 3 1.83851 10.5475 1.4948 -1.2 0.9992724928819552 0.0007275066717156299 4.61832072582661e-21 4.4632713795545724e-10
62 3 4.7611 10.8154 0.196716 -1.2 0.9858178794355074 0.014182119019457198 2.1335038333953173e-17 1.545028436775342e-09
63 1 6.35203 9.49799 2.9896 1.2 0.9105224117886473 0.08724613696761294 3.2262159090880824e-14 0.0022314512437075318
64 3 4.71833 10.8154 2.79288 -1.2 0.9691742778387374 0.030825719853698034 1.4028572466656228e-15 2.3075664936227765e-09
65 1 -1.0438 9.53931 4.4844 1.2 0.936709957331662 0.026662206097019484 3.534458497033368e-10 0.03662783621786642
66 2 -2.8604 12.2234 4.4844 2.4 1.0 1.3222054067973379e-20 5.1819053732040305e-36 1.224276328783397e-38
67 3 -2.91391 10.6102 4.4844 -1.2 0.9466537856830118 0.05334620853345745 3.7744249856935036e-15 5.78352280409851e-09
68 3 0.7596 13.1975 4.4844 -1.2 0.7737879157528207 0.22621207917006164 3.0613724870618336e-14 5.0770841256121505e-09
69 3 -2.12001 12.9296 3.18632 -1.2 0.9810336833362848 0.018966315655995394 1.5247313462253927e-16 1.0077177624568222e-09
70 3 -2.16532 12.9296 5.78248 -1.2 0.9216572453411753 0.07834275457293324 2.111924747328125e-15 8.588670385668837e-11
71 1 1.29891 11.8725 2.9896 1.2 0.9755473455673099 0.024142689868260396 1.7196597111150575e-17 0.0003099645644320846
72 1 4.10033 11.8312 4.4844 1.2 0.9866572225766603 0.008373432285741238 1.8992866809600094e-14 0.004969345137576682
73 2 2.27333 13.896 4.4844 2.4 1.0 1.3051167729107852e-21 6.530677147410096e-38 5.2596365677258386e-40
74 3 2.28634 15.5093 4.4844 -1.2 0.9977058957440417 0.0022941042065422247 2.4479249234786703e-18 4.9421231273844354e-11
75 3 -4.34533 12.922 4.4844 -1.2 0.5270059634292906 0.47299402939178703 9.009171571647982e-13 7.178027609775594e-09
76 3 2.98455 13.1899 3.18632 -1.2 0.970066842290502 0.029933156846485173 3.0670488038867222e-15 8.630148805068742e-10
77 1 1.34779 11.8725 0 1.2 0.9779692308804424 0.02202541469614073 3.618612039353214e-18 5.354423418399926e-06
78 3 2.93934 13.1899 5.78248 -1.2 0.9180157273563225 0.08198427259040737 1.6802330329837726e-15 5.327442893091455e-11
79 1 -1.50344 11.9138 1.4948 1.2 0.9813418198761825 0.01864980827257926 3.20355737408342e-18 8.371851237921454e-06
80 2 0.326006 9.84894 1.4948 2.4 0.9999999999999716 2.3029428610633456e-14 2.3665691159880884e-35 7.755612211418836e-33
81 3 0.317364 8.23571 1.4948 -1.2 0.8339331024954981 0.1660668490046365 1.5428228927161763e-15 4.849986408291934e-08
82 3 6.94307 10.823 1.4948 -1.2 0.9982929687298931 0.0017070309395365196 1.0350887177903057e-20 3.3057244331925757e-10
83 3 -0.343122 10.5551 0.196716 -1.2 0.9652610897622252 0.03473890782707876 2.7775452996593087e-16 2.4106965608091807e-09
84 3 -0.385966 10.5551 2.79288 -1.2 0.9630481103957226 0.036951885070839 2.116948054530015e-15 4.533441312395111e-09
85 1 6.49448 14.247 0 1.2 0.9908564992329401 0.009143483676807536 1.5007197148140828e-21 1.7090255038776564e-08
86 1 3.74457 18.9547 1.4948 1.2 0.9807309444461103 0.019267538368833447 4.496112535808144e-18 1.5171850498233236e-06
87 2 5.55495 16.2705 1.4948 2.4 1.0 7.826759201113141e-16 2.586406626540521e-39 2.452600082855436e-34
88 3 5.6115 17.8838 1.4948 -1.2 0.9983544166598167 0.0016455832834219937 3.7193590877561775e-22 5.6754249041471555e-11
89 3 1.93416 15.2965 1.4948 -1.2 0.999828228139079 0.00017177184623106664 1.2498411360144337e-23 1.4691747689479966e-11
90 3 4.85636 15.5644 0.196716 -1.2 0.9986353082393665 0.001364691689423167 2.734611534784238e-20 7.121441087520736e-11
91 1 6.44662 14.247 2.9896 1.2 0.9840987961990174 0.015875593889301928 1.4310115950736015e-18 2.5609911681605627e-05
92 3 4.81537 15.5644 2.79288 -1.2 0.9969971739132337 0.003002825947494008 2.7550279226475677e-18 1.3927925005310215e-10
93 1 -0.948271 14.2883 4.4844 1.2 0.9881050635856371 0.008358515279973718 3.967829060181553e-15 0.003536421134383376
94 2 -2.75928 16.9724 4.4844 2.4 1.0 5.459551370414218e-23 1.6277347685637047e-39 9.657514733707119e-41
95 3 -2.81617 15.3592 4.4844 -1.2 0.9830890324916499 0.016910967167461887 1.3937076633034373e-16 3.408876181706811e-10
96 3 0.862762 17.9465 4.4844 -1.2 0.8760824416708948 0.1239175581270643 1.072289967805542e-15 2.0203954608494226e-10
97 3 -2.0185 17.6786 3.18632 -1.2 0.987806669360167 0.012193330604606383 4.0128013366317005e-17 3.5221384359123875e-11
98 3 -2.06164 17.6786 5.78248 -1.2 0.9950773928339367 0.004922607164768983 5.831527787644317e-19 1.2876041340257338e-12
99 1 1.39817 16.6215 2.9896 1.2 0.9798136715770047 0.020159697860108027 5.816777339620453e-19 2.6630562891001555e-05
100 1 4.20062 16.5802 4.4844 1.2 0.9927269590880154 0.00641239228534781 1.1155929527574779e-14 0.0008606486266262066
101 2 2.37796 18.645 4.4844 2.4 1.0 9.454313193833376e-24 1.1059981021706318e-39 1.1062085464943116e-42
102 3 2.39434 20.2583 4.4844 -1.2 0.992510928222755 0.007489071772903183 5.982013322089049e-18 4.339811282807301e-12
103 3 -4.24274 17.671 4.4844 -1.2 0.7677520641768121 0.23224793547712405 4.3537902661468184e-15 3.4606202635814497e-10
104 3 3.08659 17.9389 3.18632 -1.2 0.9670980316880861 0.03290196824572719 5.240311436261756e-16 6.618829012367278e-11
105 1 1.44478 16.6215 0 1.2 0.9779684970296543 0.02203141377131906 3.46375997403425e-21 8.919902060919415e-08
106 3 3.0436 17.9389 5.78248 -1.2 0.9690375842030028 0.03096241579392219 3.2851135554646345e-17 3.076247483379327e-12
107 1 -1.40524 16.6628 1.4948 1.2 0.9878394560731272 0.012160306683915913 1.0000938035402177e-20 2.372429551383379e-07
108 2 0.420358 14.5979 1.4948 2.4 1.0 7.603089795948765e-16 1.8238358892944218e-38 7.06604278438801e-35
109 3 0.408732 12.9847 1.4948 -1.2 0.9994433409590047 0.0005566589431973639 3.568957340252477e-22 9.779957646074534e-11
110 3 7.03923 15.572 1.4948 -1.2 0.9996766098214439 0.00032339014818661245 2.688340388604093e-23 3.0375443127390586e-11
111 3 -0.248332 15.3041 0.196716 -1.2 0.99680435712683 0.003195642665347833 3.898093552502556e-20 2.078214899170585e-10
112 3 -0.289436 15.3041 2.79288 -1.2 0.9972190130774864 0.002780986795594573 1.3405103697146588e-18 1.2691340511907045e-10
113 1 6.59566 18.996 0 1.2 0.9853852088510979 0.014614786960874435 6.453277141019589e-21 4.188022913911253e-09
114 1 3.85574 23.7037 1.4948 1.2 0.9842419002311344 0.015758059064078542 9.978701726550242e-20 4.070478512506642e-08
115 2 5.66125 21.0195 1.4948 2.4 1.0 7.622643949511153e-19 1.623388198290148e-39 2.229332390713529e-36
116 3 5.72074 22.6328 1.4948 -1.2 0.9976623550995635 0.0023376448965592616 2.067352427265547e-21 3.871397727421924e-12
117 3 2.03867 20.0455 1.4948 -1.2 0.9997331496728944 0.0002668503256579125 7.92258002361237e-24 1.4481742321177358e-12
118 3 4.96004 20.3134 0.196716 -1.2 0.9968570938960118 0.003142906067875821 4.3233249742746244e-20 3.611345647133871e-11
119 1 6.55057 18.996 2.9896 1.2 0.9847145051622996 0.015282770156662148 1.9307465056025673e-18 2.7246810376840478e-06
120 3 4.92172 20.3134 2.79288 -1.2 0.9863856845444627 0.01361431544021338 3.113799339416995e-17 1.5317597908593144e-11
121 1 -0.84282 19.0373 4.4844 1.2 0.9950843882881537 0.0048466898776832155 8.22466823740388e-16 6.89218341633213e-05
122 2 -2.64823 21.7214 4.4844 2.4 1.0 1.860413953653212e-24 4.61187958066638e-40 1.3233124534031087e-42
123 3 -2.70847 20.1082 4.4844 -1.2 0.9827358999058653 0.01726410008232563 1.7880235666142324e-17 1.1803433026995931e-11
124 3 0.97581 22.6955 4.4844 -1.2 0.8982978633884061 0.10170213660703532 2.421699207393694e-17 4.554577013500345e-12
125 3 -1.9076 22.4276 3.18632 -1.2 0.9895013113246407 0.010498688674841947 9.195449039196587e-18 5.111069634067824e-13
126 3 -1.9475 22.4276 5.78248 -1.2 0.9864196917834518 0.013580308216150227 2.1054492705894713e-19 3.995032747393134e-13
127 1 1.50678 21.3705 2.9896 1.2 0.9901713508207465 0.009828295676350312 6.887844779403661e-20 3.5350289747948164e-07
128 1 4.31086 21.3292 4.4844 1.2 0.9972041809606628 0.002734378720209161 1.1079580313761287e-13 6.144031901230471e-05
129 2 2.49243 23.394 4.4844 2.4 1.0 2.5672122037940636e-26 1.4721724043875782e-41 3.5092942829649716e-45
130 3 2.51204 25.0073 4.4844 -1.2 0.9573704521677324 0.042629547831205275 6.564520790680554e-17 1.0604734684043615e-12
131 3 -4.13026 22.42 4.4844 -1.2 0.6753524218014186 0.32464757818713913 1.0312656115553719e-15 1.143869713038667e-11
132 3 3.19799 22.6879 3.18632 -1.2 0.9799071612637472 0.020092838734778354 4.3568270446173006e-17 1.4772537245355455e-12
133 1 1.5501 21.3705 0 1.2 0.973553370520115 0.026446618227295274 2.6619718127522868e-21 1.1252583036514954e-08
134 3 3.1583 22.6879 5.78248 -1.2 0.954966468050481 0.04503353194919682 2.93150709477345e-17 3.2894345607174347e-13
135 1 -1.29822 21.4118 1.4948 1.2 0.9901405094176606 0.009859477966218654 3.4667020816791697e-20 1.2616114848414438e-08
136 2 0.523568 19.3469 1.4948 2.4 1.0 1.3030640044224038e-17 5.649443521486256e-38 1.0640333076832707e-35
137 3 0.508934 17.7337 1.4948 -1.2 0.9982251552351011 0.0017748447376487824 2.9809985423183966e-21 2.7246878972418284e-11
138 3 7.14425 20.321 1.4948 -1.2 0.998747823344484 0.0012521766540742765 1.1104711058117455e-21 1.4456372964853703e-12
139 3 -0.145107 20.0531 0.196716 -1.2 0.9941891060595587 0.005810893914461184 3.7338719566638903e-19 2.5984968859586427e-11
140 3 -0.183601 20.0531 2.79288 -1.2 0.9981819274963398 0.001818072501669641 1.2698047099560625e-19 1.9941410631703314e-12
141 1 6.70502 23.745 0 1.2 0.9701824994006217 0.029817499308361986 2.758941990602335e-22 1.2910135332498287e-09
142 1 3.97493 28.4527 1.4948 1.2 0.992688722070699 0.007311277470667225 1.3160341644978358e-23 4.5863581315720367e-10
143 2 5.77602 25.7685 1.4948 2.4 1.0 3.0745522230881986e-22 1.570095086966342e-40 7.7784386458566e-39
144 3 5.83821 27.3818 1.4948 -1.2 0.9997593051625376 0.00024069483734270655 1.7941292663735686e-23 1.1692937128256642e-13
145 3 2.15175 24.7945 1.4948 -1.2 0.9998453974145196 0.00015460258540735036 3.70870707927952e-25 6.894224956802389e-14
146 3 5.07184 25.0624 0.196716 -1.2 0.9995187739303492 0.0004812260686120818 1.1826068457451473e-21 1.043855596029867e-12
147 1 6.66374 23.745 2.9896 1.2 0.9914333785030083 0.008566525284457048 1.0551947043748468e-19 9.621253381723769e-08
148 3 5.03707 25.0624 2.79288 -1.2 0.9881859299805194 0.01181407001831919 1.4760075478245963e-17 1.166629286509448e-12
149 1 -0.727559 23.7863 4.4844 1.2 0.9974882940407767 0.0025053835557372296 9.186037846683154e-16 6.322403482222411e-06
150 2 -2.5277 26.4704 4.4844 2.4 1.0 2.008530057035823e-27 1.3864401523614013e-41 1.276627060599242e-45
151 3 -2.59107 24.8572 4.4844 -1.2 0.9252064382210214 0.0747935617772971 8.955423535184706e-17 1.679969993622455e-12
152 3 1.09817 27.4445 4.4844 -1.2 0.9693090709448304 0.030690929053013696 2.3262187324064536e-18 2.157891118523284e-12
153 3 -1.78784 27.1766 3.18632 -1.2 0.9859200321176796 0.014079967882120872 2.538337068160624e-18 2.0115732303234192e-13
154 3 -1.82343 27.1766 5.78248 -1.2 0.9924114410085284 0.007588558991407832 5.85290845451316e-20 6.253535295802663e-14
155 1 1.62435 26.1195 2.9896 1.2 0.9950541984415756 0.004945790151507905 5.078590543171461e-22 1.140691587985067e-08
156 1 4.43064 26.0782 4.4844 1.2 0.9987027969816651 0.001294204280090409 1.0548615141132774e-14 2.9987382286318196e-06
157 2 2.61607 28.143 4.4844 2.4 1.0 7.543921407475355e-29 2.3214087939586123e-41 2.948159484867173e-47
158 3 2.63853 29.7563 4.4844 -1.2 0.8580135883114856 0.14198641168766654 7.733206181341655e-16 8.466189948826814e-13
159 3 -4.00841 27.169 4.4844 -1.2 0.7861108328979193 0.21388916710032474 9.365257814133283e-17 1.7600700498572552e-12
160 3 3.3182 27.4369 3.18632 -1.2 0.9922377959945904 0.00776220400519067 8.787827016641956e-18 2.1729777488681522e-13
161 1 1.66335 26.1195 0 1.2 0.9744670771557851 0.02553292252184403 5.018825451553956e-24 3.223686635655295e-10
162 3 3.28288 27.4369 5.78248 -1.2 0.91244472103525 0.08755527896442197 1.8904214643117328e-17 3.2529633242439194e-13
163 1 -1.18278 26.1608 1.4948 1.2 0.9925279820407612 0.007472017710043472 1.9615887680713013e-23 2.492017623892066e-10
164 2 0.635424 24.0959 1.4948 2.4 1.0 4.453594171605533e-21 6.437254152875592e-39 6.718608086611774e-39
165 3 0.617906 22.4827 1.4948 -1.2 0.9987565836882497 0.001243416311143448 1.7537968772843368e-21 6.097679873771239e-13
166 3 7.25781 25.07 1.4948 -1.2 0.9996087239643867 0.0003912760355290572 2.1564219422592148e-23 8.439435404802692e-14
167 3 -0.0337363 24.8021 0.196716 -1.2 0.9987900159658243 0.0012099840334862304 1.507375604071274e-20 6.899453755792979e-13
168 3 -0.0687235 24.8021 2.79288 -1.2 0.9968786404971349 0.003121359502444408 3.9966208176725677e-19 4.2340989884502555e-13
169 1 6.82195 28.494 0 1.2 0.9832899526602099 0.016710047196129316 4.252434504679724e-25 1.4366606794303226e-10
170 1 4.10106 33.2017 1.4948 1.2 0.9932549383332606 0.006745059408343311 2.180691718686167e-23 2.2583948962035673e-09
171 2 5.89839 30.5175 1.4948 2.4 1.0 1.1812623964908816e-25 5.4296674543097556e-42 2.074567164203278e-41
172 3 5.96289 32.1308 1.4948 -1.2 0.9997709589106412 0.00022904108923830485 8.384151235959694e-23 1.229672803583527e-13
173 3 2.27266 29.5435 1.4948 -1.2 0.9999056718412227 9.432815873315422e-05 5.652017103704379e-25 5.10838258278492e-14
174 3 5.19102 29.8114 0.196716 -1.2 0.9999604953635206 3.950463643758669e-05 3.0900234355694204e-24 4.353499466180983e-14
175 1 6.78546 28.494 2.9896 1.2 0.9968314990855095 0.0031684870626858077 1.0758753306599115e-21 1.3851808465902762e-08
176 3 5.16061 29.8114 2.79288 -1.2 0.9934445076767132 0.006555492323087398 1.1565270135999605e-18 1.9630235147618335e-13
177 1 -0.603205 28.5353 4.4844 1.2 0.9989903253602889 0.0010092855043496369 8.830338784302323e-17 3.891353664088002e-07
178 2 -2.39877 31.2194 4.4844 2.4 1.0 8.739889121315596e-29 3.2743387938738342e-40 2.549262552738588e-47
179 3 -2.46483 29.6062 4.4844 -1.2 0.7401983558017392 0.25980164419627555 3.65487911204333e-16 1.9835803209097075e-12
180 3 1.22864 32.1935 4.4844 -1.2 0.8298222329044158 0.170177767093055 3.2880978471318116e-17 2.5346802562781514e-12
181 3 -1.66032 31.9256 3.18632 -1.2 0.9669139406042631 0.03308605939535973 1.8494608602137722e-17 3.714986752878997e-13
182 3 -1.69072 31.9256 5.78248 -1.2 0.7834524470301665 0.21654755296956452 5.705482597746843e-18 2.6606864325966367e-13
183 1 1.7499 30.8685 2.9896 1.2 0.9976052759564006 0.002394719014570847 7.309731819926875e-23 5.029027150624596e-09
184 1 4.55894 30.8272 4.4844 1.2 0.9996786010692432 0.00032133698378811404 3.080081876431509e-17 6.194696809646375e-08
185 2 2.7476 32.892 4.4844 2.4 1.0 1.173865801677592e-28 6.690734730150009e-40 8.300816626640809e-47
186 3 2.77235 34.5053 4.4844 -1.2 0.20051009841661543 0.7994899015817362 2.5009988638625155e-14 1.6182183926094743e-12
187 3 -3.87837 31.918 4.4844 -1.2 0.506737125625061 0.4932628743732657 5.306997732702219e-16 1.6712416580773478e-12
188 3 3.44611 32.1859 3.18632 -1.2 0.9820160023175988 0.01798399768192856 1.3044384892274535e-17 4.733083715522778e-13
189 1 1.7837 30.8685 0 1.2 0.9855137590359171 0.014486240774053999 3.1287309370387235e-26 1.9002211875200086e-10
190 3 3.41602 32.1859 5.78248 -1.2 0.47118039789544847 0.5288196021043161 4.1997207449161393e-16 2.3900439676052324e-13
191 1 -1.05984 30.9098 1.4948 1.2 0.9951791855894047 0.004820814354042225 8.983847786219434e-26 5.6548223281441447e-11
192 2 0.755243 28.8449 1.4948 2.4 1.0 8.941300171015167e-26 1.1104580432865472e-41 8.194336985045106e-42
193 3 0.735127 27.2317 1.4948 -1.2 0.9998386411551746 0.00016135884480676137 2.2043446989199928e-23 1.348625223844867e-14
194 3 7.37914 29.819 1.4948 -1.2 0.9997379158983389 0.00026208410161633887 1.2934026731568411e-23 4.8829818223978986e-14
195 3 0.0850649 29.5511 0.196716 -1.2 0.999708276927013 0.0002917230728938295 1.0027167632045178e-21 8.75320146638712e-14
196 3 0.0543974 29.5511 2.79288 -1.2 0.9984425470187321 0.0015574529812057635 3.893599461364062e-20 6.729475301546403e-14
197 1 6.94543 33.243 0 1.2 0.9912208008850817 0.008779199003494156 3.723719452848034e-26 1.114250927294479e-10
198 1 4.23267 37.9507 1.4948 1.2 0.9874674418544431 0.012532538067803394 2.501217232699235e-21 2.0077750813121718e-08
199 2 6.02709 35.2665 1.4948 2.4 1.0 2.194994898142931e-25 1.1935576277963228e-39 2.1938117108825794e-39
200 3 6.09339 36.8798 1.4948 -1.2 0.9973725074296603 0.0026274925669114895 2.4555550098039914e-19 3.4350320166227434e-12
201 3 2.40018 34.2925 1.4948 -1.2 0.9990290676589814 0.0009709323394109727 2.1549029242197935e-21 1.6072043588261312e-12
202 3 5.31645 34.5604 0.196716 -1.2 0.9999148462677557 8.515373209184551e-05 1.0076251665782982e-22 1.5551803999126106e-13
203 1 6.91449 33.243 2.9896 1.2 0.9975936604712392 0.0024063207238771067 3.12986971211019e-21 1.8804883784962718e-08
204 3 5.291 34.5604 2.79288 -1.2 0.9463298800982936 0.05367011989927553 1.9265191030701348e-16 2.4372208222584594e-12
205 1 -0.471101 33.2843 4.4844 1.2 0.9994586705266113 0.0005412307502925646 4.70312446433242e-17 9.87230986043681e-08
206 2 -2.26307 35.9684 4.4844 2.4 1.0 3.254134887095242e-26 2.8963946689878597e-35 1.9411752242213416e-43
207 3 -2.33122 34.3552 4.4844 -1.2 0.1625647095390549 0.8374352904589598 1.7442595158990532e-14 1.96809326462269e-12
208 3 1.36549 36.9425 4.4844 -1.2 0.05487131815627523 0.945128681839142 1.718551429383007e-13 4.414468478449673e-12
209 3 -1.52658 36.6746 3.18632 -1.2 0.7526951792787917 0.2473048207162013 3.717030879220262e-15 5.000164175666365e-12
210 3 -1.55122 36.6746 5.78248 -1.2 0.11179029231332668 0.8882097076862878 2.0116240314800815e-15 3.848963999472748e-13
211 1 1.882 35.6175 2.9896 1.2 0.995566407776738 0.004433560003124892 1.0473647135147887e-20 3.2220131037017966e-08
212 1 4.69415 35.5762 4.4844 1.2 0.9996117996537524 0.0003880269790406365 3.9319723531727436e-15 1.733672035481676e-07
213 2 2.88522 37.641 4.4844 2.4 1.0 4.18265196240604e-26 1.0203361905708919e-34 9.681488176885868e-44
214 3 2.91159 39.2543 4.4844 -1.2 0.05030160010727449 0.9496983998894665 1.0805736530436557e-12 2.1809346075048662e-12
215 3 -3.74183 36.667 4.4844 -1.2 0.02383555934193504 0.9761644406550243 6.664259849802169e-14 2.9686266976552246e-12
216 3 3.58014 36.9349 3.18632 -1.2 0.8463617956112814 0.15363820438475567 3.1829157257465717e-15 3.956039417667623e-12
217 1 1.90997 35.6175 0 1.2 0.9804084810295762 0.019591516136888677 2.18298476520614e-23 2.8335344219810067e-09
218 3 3.55582 36.9349 5.78248 -1.2 0.03921850743432917 0.9607814925653364 1.3736748090729127e-14 3.189328130359831e-13
219 1 -0.93068 35.6588 1.4948 1.2 0.9935240533816256 0.006475945425654369 1.1122740499545973e-23 1.1927217620225542e-09
220 2 0.881882 33.5939 1.4948 2.4 1.0 1.3418808727139197e-26 1.0044141311499585e-40 2.4823592825986297e-40
221 3 0.859602 31.9807 1.4948 -1.2 0.9997926886854643 0.00020731131450726751 2.66329318013075e-23 2.365036542002179e-14
222 3 7.507 34.568 1.4948 -1.2 0.998488021402432 0.0015119785948857337 1.352651486293861e-21 2.676779362162333e-12
223 3 0.210186 34.3001 0.196716 -1.2 0.9996831117551392 0.0003168882446691638 3.156854538327181e-21 1.8692538870051064e-13
224 3 0.184454 34.3001 2.79288 -1.2 0.9851350243385484 0.014864975660603465 7.50349112497443e-18 8.4223791164781e-13
225 1 7.07415 37.992 0 1.2 0.9443206781522205 0.05567930082516237 1.318595043525535e-22 2.1022620370364968e-08
226 1 4.36817 42.6997 1.4948 1.2 0.9341901382314163 0.06580734536388291 6.78649037942576e-17 2.516404697286043e-06
227 2 6.16058 40.0155 1.4948 2.4 1.0 1.3208936527216974e-21 3.4171984488731326e-33 5.241329981585644e-35
228 3 6.22815 41.6288 1.4948 -1.2 0.9018498550660241 0.09815014477800602 7.114322556048391e-15 1.5596190473896088e-10
229 3 2.53282 39.0415 1.4948 -1.2 0.9960543436588569 0.003945656299756206 1.3435494697869163e-19 4.138814245487955e-11
230 3 5.44674 39.3094 0.196716 -1.2 0.9986385842607548 0.0013614157291839178 5.46065345241985e-19 1.0058441012078387e-11
231 1 7.04922 37.992 2.9896 1.2 0.9899251063887707 0.010067934540814122 4.894975878976236e-16 6.959070419698341e-06
232 3 5.42658 39.3094 2.79288 -1.2 0.6475278397633497 0.3524721602051352 3.618149171043268e-14 3.147722954251933e-11
233 1 -0.333062 38.0333 4.4844 1.2 0.9989027850079583 0.0010933758575126806 4.620444750280386e-13 3.839134062504013e-06
234 2 -2.12255 40.7174 4.4844 2.4 1.0 9.372974393870574e-24 1.6429756494674621e-31 9.114879523282107e-41
235 3 -2.19212 39.1042 4.4844 -1.2 0.0385626578528974 0.961437342141937 6.134367157077685e-13 4.55247833218092e-12
236 3 1.50676 41.6915 4.4844 -1.2 0.008351368525128931 0.9916486314672689 5.1024390417058096e-12 2.50346154366694e-12
237 3 -1.3884 41.4236 3.18632 -1.2 0.1270049652548725 0.8729950347339928 1.648997782688536e-12 9.489379988699857e-12
238 3 -1.40713 41.4236 5.78248 -1.2 0.013590448621348948 0.98640955137812 1.1708325164921911e-13 4.200558767601615e-13
239 1 2.01892 40.3665 2.9896 1.2 0.9709239505518652 0.029031824565464756 1.4832895633751177e-12 4.422488118908993e-05
240 1 4.83434 40.3252 4.4844 1.2 0.9989457902725271 0.0010494795585373662 3.805069395619965e-12 4.730165127265982e-06
241 2 3.02698 42.39 4.4844 2.4 1.0 9.737150754444954e-24 9.795235350760913e-32 4.12127823231901e-41
242 3 3.05433 44.0033 4.4844 -1.2 0.050435796231269675 0.9495642037632482 1.848475657634871e-12 3.638457343960576e-12
243 3 -3.60077 41.416 4.4844 -1.2 0.0061066973164600555 0.9938933026771289 2.8945045282738133e-12 3.510422462347196e-12
244 3 3.71851 41.6839 3.18632 -1.2 0.26277680183452784 0.7372231981411916 2.047901548705414e-12 2.2237795835811753e-11
245 1 2.04077 40.3665 0 1.2 0.8579363063964444 0.14206296501470642 2.0139574641236118e-19 7.285888542621584e-07
246 3 3.70011 41.6839 5.78248 -1.2 0.004490964450997328 0.9955090355482735 4.2014970806122077e-13 3.146633500951838e-13
247 1 -0.796865 40.4078 1.4948 1.2 0.9613510705161376 0.038648718541112285 2.0782105589659386e-19 2.1094275091893292e-07
248 2 1.01387 38.3429 1.4948 2.4 1.0 8.652013065124883e-24 1.0492751859358214e-35 1.563229245854436e-36
249 3 0.989947 36.7297 1.4948 -1.2 0.998086238215305 0.0019137617831352345 4.1795989301490227e-20 1.5642538258755179e-12
250 3 7.63988 39.317 1.4948 -1.2 0.990701110000894 0.009298889880253852 5.388843626440114e-19 1.188495103293781e-10
251 3 0.340253 39.0491 0.196716 -1.2 0.9983889023738176 0.0016110976068941523 3.2662553426897176e-19 1.9282905423613525e-11
252 3 0.319795 39.0491 2.79288 -1.2 0.8010276316234707 0.19897236836632862 1.3487806405383619e-14 1.0183444339404201e-11
253 1 7.20667 42.741 0 1.2 0.7585732182310172 0.24142594953866775 6.313955687574031e-18 8.322303117080662e-07
254 1 4.50613 47.4487 1.4948 1.2 0.9653251340035274 0.034672399607598846 1.721836771411722e-15 2.4663888792145926e-06
255 2 6.29731 44.7645 1.4948 2.4 1.0 1.7781544258215545e-19 6.103850774489257e-30 9.967496874905367e-34
256 3 6.36567 46.3778 1.4948 -1.2 0.4913774900367419 0.5086225099275622 1.5091507834033847e-12 3.418172514167956e-11