ITEM: TIMESTEP
1400
ITEM: NUMBER OF ATOMS
10500
ITEM: BOX BOUNDS xy xz yz pp pp pp
0	15.2977	5.09925
0	118.725	0
0	89.688	0
ITEM: ATOMS id type xu yu zu q pCrystal pDisloC pSF pDisloB pDisloA
1 1 6.2404 -6.37941e-06 0 1.2 4.698333536741237e-16 3.225893354255566e-12 0.9999995231407581 4.7681599463765247e-07 4.002400471677259e-11
2 1 3.46349 4.70768 1.4948 1.2 3.9165085195648057e-10 2.4753411875510065e-08 0.9999999095558719 6.50270547628709e-08 2.7201231265725705e-10
3 2 5.2885 2.02354 1.4948 2.4 2.3943036559933486e-13 5.269338035795465e-10 0.999999977081558 2.237945152263955e-08 1.1814165451189844e-11
4 3 5.33628 3.63678 1.4948 -1.2 3.6282657449717704e-10 3.2965760054081216e-08 0.999999950178052 9.811202073767582e-09 6.68216501482092e-09
5 3 1.67294 1.04952 1.4948 -1.2 2.369602435222179e-13 1.6126632458602773e-09 0.9999997094102748 2.882917210663709e-07 6.851070530098104e-10
6 3 4.59532 1.31737 0.196716 -1.2 1.536323622506866e-14 3.296307236821865e-10 0.9999998341091749 1.6518448592127831e-07 3.7669621608431136e-10
7 1 6.18956 -6.37941e-06 2.9896 1.2 4.3135298677424057e-16 8.114678774710919e-11 0.9999968264024285 3.1724961563657663e-06 1.0202741708067412e-09
8 3 4.55118 1.31737 2.79288 -1.2 3.6604437615918345e-16 1.1412022330002663e-11 0.9999986818046429 1.3180891413789812e-06 9.480528404533196e-11
9 1 -1.20682 0.0413099 4.4844 1.2 1.0461103905503804e-15 5.3168298409603996e-11 0.9999733663777088 2.6633019481953896e-05 5.496401892341792e-10
10 2 -3.0337 2.72544 4.4844 2.4 7.123588223048939e-12 4.9099615690933314e-08 0.9999690851739491 3.0850369063289794e-05 1.5350247472824453e-08
11 3 -3.08099 1.11221 4.4844 -1.2 3.4072964019934644e-15 1.6673400736746562e-10 0.9999910723150739 8.927007512213588e-06 5.106787204560787e-10
12 3 0.582463 3.69946 4.4844 -1.2 5.1890835583173135e-12 7.303328836217172e-10 0.9999943323619249 5.659608399263893e-06 7.294159461419232e-09
13 3 -2.29524 3.43162 3.18632 -1.2 9.046138160266445e-11 1.3837667896493278e-08 0.9999996607304247 3.198257073888537e-07 5.515742248018635e-09
14 3 -2.34216 3.43162 5.78248 -1.2 1.830033063311875e-12 1.1518958696867713e-10 0.9999659844980209 3.4011539059974755e-05 3.845898838222078e-09
15 1 1.12778 2.37449 2.9896 1.2 3.332128815087105e-13 1.192184852389471e-09 0.9999892053211836 1.0793027804013394e-05 4.5849121770334703e-10
16 1 3.92855 2.33318 4.4844 1.2 1.1993527369210021e-14 5.8008570855759066e-11 0.9999210723246296 7.892706412519911e-05 5.532306626023517e-10
17 2 2.09341 4.39804 4.4844 2.4 2.034511390019106e-12 4.575637497821621e-09 0.9999871286127322 1.2866171076096894e-05 6.385217611370886e-10
18 3 2.09991 6.01128 4.4844 -1.2 2.661193971990062e-09 1.1267798912284235e-08 0.9999999622760931 1.2308251570495785e-08 1.1486665508286616e-08
19 3 -4.52137 3.42402 4.4844 -1.2 1.064130813695564e-12 9.345316551895335e-10 0.9999895296434038 1.0453876642366319e-05 1.5544353049333135e-08
20 3 2.80834 3.69187 3.18632 -1.2 4.061691956349627e-12 8.999542293824042e-10 0.9999998668668102 1.318768036142174e-07 3.5237681232587594e-10
21 1 1.17857 2.37449 0 1.2 1.0526001325468743e-14 2.5452663862093257e-10 0.9999990598671517 9.39684570751275e-07 1.937344650366355e-10
22 3 2.76143 3.69187 5.78248 -1.2 1.4173448886326177e-13 3.141676347174445e-11 0.9999823290893038 1.7669506197398024e-05 1.3729454378415978e-09
23 1 -1.67381 2.41581 1.4948 1.2 1.0538795078829213e-10 3.3993585900320455e-08 0.999997586900916 2.374756815050186e-06 4.243302107729128e-09
24 2 0.16286 0.350945 1.4948 2.4 2.0885326659952898e-13 1.5741244080265176e-09 0.9999991511281131 8.469855865648703e-07 3.119602774891124e-10
25 3 0.15972 -1.26229 1.4948 -1.2 5.523159551649118e-12 1.4897276798109138e-08 0.9999998305224126 1.490698986400965e-07 5.504884821732362e-09
26 3 6.77654 1.32496 1.4948 -1.2 1.2056076063504877e-12 4.84958353652587e-09 0.9999999094261552 8.012084796216143e-08 5.602204091150312e-09
27 3 -0.508028 1.05712 0.196716 -1.2 3.688800355330116e-14 9.891029299540613e-10 0.9999996061329804 3.919331323310843e-07 9.447417665527602e-10
28 3 -0.552171 1.05712 2.79288 -1.2 1.4046978326328143e-13 7.461730794760331e-10 0.9999967114564683 3.2843348358858655e-06 3.4623830747865286e-09
29 1 6.31713 4.74899 0 1.2 1.9425599087284363e-10 4.0028435197291314e-08 0.9999998922402455 6.650296632205365e-08 1.034096539994045e-09
30 1 3.54847 9.45668 1.4948 1.2 3.492674686458938e-05 3.312459928098194e-07 0.9999646412694281 3.13125852350147e-11 1.0070640606172085e-07
31 2 5.36879 6.77254 1.4948 2.4 1.6704201842797581e-06 4.4054474978402576e-06 0.9999938131944041 1.4489150626385173e-10 1.1079301980880537e-07
32 3 5.41937 8.38578 1.4948 -1.2 0.0005585650933144294 4.836233229371879e-05 0.9993902127279469 3.2294019688449884e-13 2.8598461191092383e-06
33 3 1.75158 5.79852 1.4948 -1.2 3.2909999354011055e-06 7.798454860482859e-06 0.999988527295743 8.802723366757492e-11 3.831614310449276e-07
34 3 4.67421 6.06637 0.196716 -1.2 2.5862921801492045e-08 3.489277102205559e-07 0.9999996194614069 4.689311827223242e-11 5.701065275089593e-09
35 1 6.26654 4.74899 2.9896 1.2 2.2879479712252937e-10 1.5596347571015794e-08 0.9999994080234889 5.702612936621216e-07 5.890075329020211e-09
36 3 4.63043 6.06637 2.79288 -1.2 3.295549020606615e-08 1.3779815829634932e-07 0.9999998040397792 2.152304129495834e-09 2.305427510105609e-08
37 1 -1.12976 4.79031 4.4844 1.2 1.254494632748289e-10 6.314561582291242e-10 0.9999980642855751 1.934120259497228e-06 8.37259675339688e-10
38 2 -2.9517 7.47444 4.4844 2.4 2.4961473329845568e-09 5.754693310182819e-08 0.999998031084408 2.8746155818993157e-07 1.6214109530672587e-06
39 3 -3.00198 5.86121 4.4844 -1.2 1.1833068667895837e-10 4.2944748160456546e-10 0.999999955649984 4.206574702272885e-08 1.7364918001012492e-09
40 3 0.666315 8.44846 4.4844 -1.2 8.978331763168369e-08 1.2925945498955745e-07 0.9999992340361337 2.475105817680018e-10 5.466735789619437e-07
41 3 -2.21213 8.18062 3.18632 -1.2 2.576361581157042e-07 5.975092589632945e-08 0.9999996010192774 3.990042535275981e-11 8.155374123869004e-08
42 3 -2.25864 8.18062 5.78248 -1.2 1.0772548899379656e-08 2.15736484055285e-09 0.9999997360222956 4.5451635071858325e-09 2.4650263291099945e-07
43 1 1.20893 7.12349 2.9896 1.2 1.2149129929530556e-07 1.4875740506507542e-07 0.9999996961113915 4.787783171250033e-09 2.885211759916869e-08
44 1 4.00982 7.08218 4.4844 1.2 1.4872470457363295e-08 7.522098722576974e-09 0.9999999037254004 3.304055733377265e-08 4.0839468796087545e-08
45 2 2.17861 9.14704 4.4844 2.4 1.0378728616055978e-06 6.198554761076671e-07 0.9999962981054178 4.7041334404935696e-09 2.039462110069607e-06
46 3 2.18828 10.7603 4.4844 -1.2 4.109570999910064e-06 7.964617862760677e-08 0.9999954873188771 6.089762641994406e-12 3.234578502318826e-07
47 3 -4.43805 8.17302 4.4844 -1.2 1.82982371425845e-08 3.6096304989339305e-08 0.999999597583492 3.8895592107267623e-10 3.476330096974992e-07
48 3 2.89193 8.44087 3.18632 -1.2 2.167882035027793e-06 2.1613107064610896e-07 0.9999973433480183 9.264986065377165e-11 2.725462323668778e-07
49 1 1.25915 7.12349 0 1.2 2.2581007799912213e-07 3.140784578761103e-07 0.9999994567086415 3.141227240818323e-10 3.0887040336270793e-09
50 3 2.84547 8.44087 5.78248 -1.2 2.9244103504020725e-08 5.36501775914988e-09 0.9999997817034182 2.2272939216644675e-09 1.8146016982477924e-07
51 1 -1.59284 7.16481 1.4948 1.2 6.852593014098007e-07 4.2046885871241505e-07 0.9999988674706675 4.858336828262907e-10 2.6315341509902863e-08
52 2 0.240329 5.09994 1.4948 2.4 1.3177383807390088e-09 1.1386565503045769e-07 0.9999998805383328 4.202714608848334e-09 7.555691918565448e-11
53 3 0.234538 3.48671 1.4948 -1.2 2.1137238607896783e-11 1.5765050712086668e-08 0.999999962712679 1.7852341980047983e-08 3.6487923801385896e-09
54 3 6.85564 6.07396 1.4948 -1.2 4.282901261908514e-07 2.575458466477851e-06 0.9999966485045805 1.7840137248666682e-10 3.4756842886021955e-07
55 3 -0.429565 5.80612 0.196716 -1.2 3.307878774035973e-09 7.180941559041898e-08 0.9999999236794139 2.0501869266237767e-10 9.982762846522008e-10
56 3 -0.473377 5.80612 2.79288 -1.2 2.6182324062019102e-09 9.906188255086483e-09 0.999999975907912 7.864557788465986e-09 3.7031089890672466e-09
57 1 6.40169 9.49799 0 1.2 3.755274883184542e-05 9.121772262934022e-07 0.9999614619983018 1.4151119182284593e-12 7.307422266855515e-08
58 1 3.64209 14.2057 1.4948 1.2 0.00025331660708891485 5.439067243807983e-07 0.9997458501062514 9.220060111565318e-13 2.8937901681018754e-07
59 2 5.45748 11.5215 1.4948 2.4 0.0011127771477212089 1.3420390295799483e-05 0.9988736447478419 5.587308571604103e-14 1.577140815572014e-07
60 3 5.51101 13.1348 1.4948 -1.2 0.01536965000415716 9.626853579640457e-05 0.9845264093502968 9.094010270030582e-15 7.672109733855534e-06
61 3 1.83851 10.5475 1.4948 -1.2 0.003852666761731635 1.183895504837313e-05 0.996133805772052 1.6191147450694742e-14 1.6885111512671776e-06
62 3 4.7611 10.8154 0.196716 -1.2 0.0005714748595119882 1.0085998703861192e-05 0.9994179470641698 5.787625811682319e-14 4.920775565483461e-07
63 1 6.35203 9.49799 2.9896 1.2 1.7705455083445975e-05 1.2444328933789906e-06 0.9999806429853428 5.931097929322898e-11 4.0706737238783103e-07
64 3 4.71833 10.8154 2.79288 -1.2 8.14994917576736e-05 1.369717506876956e-06 0.9999161541024747 3.669929763895558e-12 9.766845963383826e-07
65 1 -1.0438 9.53931 4.4844 1.2 1.037580595673871e-06 3.0751406122356515e-08 0.9999987228250033 3.019408388730679e-09 2.058235880944935e-07
66 2 -2.8604 12.2234 4.4844 2.4 3.2050449176241875e-06 5.438731123449224e-07 0.9999955355941276 2.790862600483246e-10 7.152087556669188e-07
67 3 -2.91391 10.6102 4.4844 -1.2 4.482221958896014e-06 1.3771375802127348e-07 0.9999949644435185 4.970790972777397e-12 4.1561579881904493e-07
68 3 0.7596 13.1975 4.4844 -1.2 1.0449522173847445e-05 8.179372855397555e-07 0.999987348404627 8.949712439372845e-12 1.3841269638694883e-06
69 3 -2.12001 12.9296 3.18632 -1.2 6.502091287978551e-05 7.583360428128339e-07 0.9999336105186559 1.7678964498884764e-12 6.102306497472474e-07
70 3 -2.16532 12.9296 5.78248 -1.2 1.235213503282083e-05 6.471251630837518e-08 0.9999857637990724 5.180382450811188e-11 1.8193015692064486e-06
71 1 1.29891 11.8725 2.9896 1.2 0.00010205267860332577 9.599781261420334e-07 0.9998961213221961 1.4169821978721307e-11 8.660068986474349e-07
72 1 4.10033 11.8312 4.4844 1.2 2.0110904553590958e-05 6.028380969934653e-08 0.9999788170509314 5.638835604262622e-10 1.0111968227737778e-06
73 2 2.27333 13.896 4.4844 2.4 5.298946535876473e-05 9.055102777554641e-07 0.9999449596532606 8.103171979809488e-11 1.1452900730066686e-06
74 3 2.28634 15.5093 4.4844 -1.2 0.00010457357249355209 3.554761128930411e-07 0.999894425698944 1.5036299622425576e-13 6.452523010354057e-07
75 3 -4.34533 12.922 4.4844 -1.2 3.3488694893687973e-06 1.8807050235503564e-07 0.9999956158630605 1.9722198397139855e-11 8.471772305207096e-07
76 3 2.98455 13.1899 3.18632 -1.2 7.213927310719572e-05 8.291547828114155e-07 0.9999263321869035 2.0375506181478764e-12 6.993831645072145e-07
77 1 1.34779 11.8725 0 1.2 0.0003355642192542031 1.4239923596300707e-06 0.9996626520307046 7.589459990064358e-13 3.5975691939287197e-07
78 3 2.93934 13.1899 5.78248 -1.2 1.6424747920494533e-05 4.890724387879523e-08 0.9999829462087583 2.5939271184570922e-11 5.801101318373795e-07
79 1 -1.50344 11.9138 1.4948 1.2 0.00020531488954604675 1.0121627652647784e-06 0.9997933403947313 9.522780000589551e-13 3.325520074790596e-07
80 2 0.326006 9.84894 1.4948 2.4 0.00020117299612243882 3.985854635910891e-06 0.9997947987164366 9.150560698320108e-14 4.243271981690591e-08
81 3 0.317364 8.23571 1.4948 -1.2 0.00017565982847477126 9.053081248628378e-06 0.9998145627537074 2.4285826582889314e-12 7.243341374110835e-07
82 3 6.94307 10.823 1.4948 -1.2 0.0024435883664556367 2.5712132854453408e-05 0.9975292094380527 1.6004651495053284e-14 1.4900626228355072e-06
83 3 -0.343122 10.5551 0.196716 -1.2 0.00017662486424506227 3.906714224040037e-06 0.9998192838580036 1.0405347815499277e-13 1.8456342973647625e-07
84 3 -0.385966 10.5551 2.79288 -1.2 4.1826837763031326e-05 7.045130518948418e-07 0.9999569146712762 1.223115214110922e-11 5.53965680173643e-07
85 1 6.49448 14.247 0 1.2 0.0008226184288972727 1.1447846111112593e-06 0.9991757882453187 4.931635719558934e-14 4.4854112232348576e-07
86 1 3.74457 18.9547 1.4948 1.2 4.334433422626445e-05 1.6687192249939818e-07 0.9999564513064982 2.632387554626411e-13 3.7487096097067065e-08
87 2 5.55495 16.2705 1.4948 2.4 0.0008197390050516956 8.789967230311672e-06 0.9991714543815896 2.4308119520610626e-15 1.6646132858798375e-08
88 3 5.6115 17.8838 1.4948 -1.2 0.006508997584373887 5.3456571883912e-05 0.9934366487217041 1.0253637018719609e-15 8.971220393644699e-07
89 3 1.93416 15.2965 1.4948 -1.2 0.0159785187054297 2.9744784467024507e-05 0.9839902489745087 7.218397794424645e-16 1.4875355870791766e-06
90 3 4.85636 15.5644 0.196716 -1.2 0.00410332763948899 2.2899912272443686e-05 0.9958730450426083 5.0103441929714624e-15 7.274056242291086e-07
91 1 6.44662 14.247 2.9896 1.2 0.00014494674627837627 8.346978620126593e-07 0.999853681353114 2.376753988866629e-12 5.37200371098746e-07
92 3 4.81537 15.5644 2.79288 -1.2 0.0006878738836555266 6.319316503612443e-06 0.9993045973765926 1.9849361543604458e-13 1.2094230515945507e-06
93 1 -0.948271 14.2883 4.4844 1.2 1.6307671708980672e-05 8.488291927737079e-08 0.9999829362120899 2.6750266481147937e-10 6.709657768351941e-07
94 2 -2.75928 16.9724 4.4844 2.4 0.00013016471521163102 9.158649705058421e-07 0.9998686721381668 8.460082222836219e-12 2.4727319011568537e-07
95 3 -2.81617 15.3592 4.4844 -1.2 2.9996885646274063e-05 2.352126656078868e-07 0.9999692571444179 3.19737682477803e-13 5.107569490878027e-07
96 3 0.862762 17.9465 4.4844 -1.2 5.240566482250308e-05 1.0317228155829025e-06 0.9999457412759776 8.60871992547414e-13 8.213355170234137e-07
97 3 -2.0185 17.6786 3.18632 -1.2 0.00021266795789515845 1.092819258486717e-06 0.9997859668151718 6.891806128982562e-14 2.7240761076313947e-07
98 3 -2.06164 17.6786 5.78248 -1.2 0.00020365233250666036 1.223962596106024e-07 0.999794614597013 2.8998940735351088e-12 1.610671314281929e-06
99 1 1.39817 16.6215 2.9896 1.2 0.0002715701903062529 1.1001605740343317e-06 0.9997266102740199 1.1266033533724937e-12 7.193739726286556e-07
100 1 4.20062 16.5802 4.4844 1.2 2.8265958945991205e-05 4.325680238871131e-08 0.9999712390148668 1.4501636818460265e-10 4.516243744666148e-07
101 2 2.37796 18.645 4.4844 2.4 8.889974257124385e-05 4.18489537342614e-07 0.999910598435488 3.5702837231119907e-12 8.332883805467042e-08
102 3 2.39434 20.2583 4.4844 -1.2 0.00014830818007052502 1.8234431732109893e-07 0.9998512842516175 1.810964941067358e-14 2.2522398235419174e-07
103 3 -4.24274 17.671 4.4844 -1.2 3.276232109549089e-05 5.21989405177711e-07 0.9999662333130565 1.3402378163884867e-12 4.823751091896237e-07
104 3 3.08659 17.9389 3.18632 -1.2 0.00011007653827447032 9.024014304280906e-07 0.9998887672336844 2.3575081436176787e-13 2.538263693749867e-07
105 1 1.44478 16.6215 0 1.2 0.000866958954781725 8.806695322164776e-07 0.9991317543168008 7.187969344300221e-14 4.0605881192561495e-07
106 3 3.0436 17.9389 5.78248 -1.2 6.0154378235275274e-05 2.586203065156708e-08 0.999939484102178 3.0141222553108022e-12 3.3565453807156615e-07
107 1 -1.40524 16.6628 1.4948 1.2 0.0009694435663826035 1.7042475873966624e-06 0.9990282965237427 8.778922110584627e-14 5.556622041734012e-07
108 2 0.420358 14.5979 1.4948 2.4 0.0017631007225941155 1.044950116385095e-05 0.998226403238462 1.5573233039123404e-14 4.6537766969714375e-08
109 3 0.408732 12.9847 1.4948 -1.2 0.012396697295360337 5.715376198057821e-05 0.9875433437457067 1.0101763579788037e-14 2.80519694815031e-06
110 3 7.03923 15.572 1.4948 -1.2 0.01651114879510768 7.477657934827811e-05 0.9834116392598266 1.1513043613935547e-15 2.435365713980026e-06
111 3 -0.248332 15.3041 0.196716 -1.2 0.0017313534361743776 2.2914427117661024e-05 0.9982452097866478 1.5315286797745184e-14 5.223500485957465e-07
112 3 -0.289436 15.3041 2.79288 -1.2 0.0009003169145539322 6.330853132370577e-06 0.9990919187164924 5.137090435820629e-13 1.433515303376313e-06
113 1 6.59566 18.996 0 1.2 0.00031307252879067164 2.7677882511309435e-07 0.9996865518572503 5.631778669011737e-15 9.883512382107869e-08
114 1 3.85574 23.7037 1.4948 1.2 0.0010217110219279222 8.557340157905332e-07 0.9989771049074381 2.146660969991578e-13 3.283364077911405e-07
115 2 5.66125 21.0195 1.4948 2.4 0.0023960522323233113 5.6254878851483355e-06 0.9975983153327379 1.6651305505821748e-15 6.9470557706907415e-09
116 3 5.72074 22.6328 1.4948 -1.2 0.030093630628145164 7.585701962523109e-05 0.9698290110653564 1.186601170497891e-15 1.5012868684321741e-06
117 3 2.03867 20.0455 1.4948 -1.2 0.01796912607073665 3.277297837263776e-05 0.9819972204429921 1.1559990159694052e-16 8.805079027385348e-07
118 3 4.96004 20.3134 0.196716 -1.2 0.00432420830089264 1.1682604417474779e-05 0.9956638069627818 8.945546495938905e-16 3.021319119652101e-07
119 1 6.55057 18.996 2.9896 1.2 0.00012595860401000715 4.5181687886707855e-07 0.9998734170738021 2.247824687541766e-13 1.7250507770316796e-07
120 3 4.92172 20.3134 2.79288 -1.2 0.0004257598237323833 3.2729276314124407e-06 0.9995706244407907 6.284244491212415e-14 3.4280778253173635e-07
121 1 -0.84282 19.0373 4.4844 1.2 2.705152845161829e-05 7.028330659026566e-08 0.9999725669089421 2.638090283518341e-11 3.1125291966238843e-07
122 2 -2.64823 21.7214 4.4844 2.4 0.00018907915631988372 2.8423468867048244e-07 0.9998106022532456 1.518127219090193e-12 3.435423290479793e-08
123 3 -2.70847 20.1082 4.4844 -1.2 4.205700151748747e-05 1.37887418691489e-07 0.9999576787350596 2.8368464247733455e-14 1.263759710501254e-07
124 3 0.97581 22.6955 4.4844 -1.2 0.0002778189613753572 1.3052021456419627e-06 0.9997200137848256 2.90732910011874e-13 8.62051364630512e-07
125 3 -1.9076 22.4276 3.18632 -1.2 0.0006021606250660326 6.464710660508692e-07 0.9993970496380223 2.284731697149988e-14 1.43265829299939e-07
126 3 -1.9475 22.4276 5.78248 -1.2 0.00028472160955397705 4.161017687648543e-08 0.9997147767110426 7.397738783642646e-13 4.600684815647783e-07
127 1 1.50678 21.3705 2.9896 1.2 0.00036176863990120136 5.368813853718246e-07 0.9996373598920625 2.265164443461295e-13 3.3458642350947955e-07
128 1 4.31086 21.3292 4.4844 1.2 1.9114382090241035e-05 1.0505006340277306e-08 0.9999808268071794 1.7952417434938296e-11 4.8287765661249614e-08
129 2 2.49243 23.394 4.4844 2.4 0.0002690074220731297 3.290061132656985e-07 0.9997306104911904 3.913999863445024e-12 5.3076705169032765e-08
130 3 2.51204 25.0073 4.4844 -1.2 0.00019788246355272753 1.4039214093897094e-07 0.9998016607132811 3.294339865789299e-14 3.1643099198786856e-07
131 3 -4.13026 22.42 4.4844 -1.2 8.927914856312248e-05 3.6510941327160064e-07 0.9999101981843331 2.170211052895448e-13 1.5755747478122617e-07
132 3 3.19799 22.6879 3.18632 -1.2 0.0005738801905690846 1.31761733193668e-06 0.9994245948193714 3.4588896671193116e-14 2.073726935090605e-07
133 1 1.5501 21.3705 0 1.2 0.0011264727053594142 7.310782365763309e-07 0.9988724795465462 1.8654085793805266e-14 3.166698375441173e-07
134 3 3.1583 22.6879 5.78248 -1.2 0.00017939928821287737 2.0207968277537123e-08 0.9998204065940867 1.041885590228016e-12 1.7390868429052382e-07
135 1 -1.29822 21.4118 1.4948 1.2 0.0009276473786756243 9.776217817953153e-07 0.999071108460394 1.6615175592185547e-14 2.665391314979907e-07
136 2 0.523568 19.3469 1.4948 2.4 0.0004983537412339614 3.42742069628092e-06 0.9994982165165895 2.4081095462200267e-15 2.3214800974171266e-09
137 3 0.508934 17.7337 1.4948 -1.2 0.004298089873683505 4.431963845540741e-05 0.9956570580650886 1.512542272686258e-15 5.32422767134633e-07
138 3 7.14425 20.321 1.4948 -1.2 0.017198735136384445 7.249249527493362e-05 0.9827278588183048 1.3555894141447148e-16 9.135500415541628e-07
139 3 -0.145107 20.0531 0.196716 -1.2 0.0017012401590937125 1.5039916949893178e-05 0.9982835451726774 1.8914627777453003e-15 1.7475128132607279e-07
140 3 -0.183601 20.0531 2.79288 -1.2 0.001981463715890003 1.1667761112821221e-05 0.9980061396615654 3.0399502257390353e-14 7.288613979445796e-07
141 1 6.70502 23.745 0 1.2 0.0068245561004375115 3.089275432016786e-06 0.9931705871128779 1.023986131659741e-14 1.7675112487106608e-06
142 1 3.97493 28.4527 1.4948 1.2 0.23946027949677848 2.00765472391634e-05 0.7604844517149603 1.7476137246703053e-12 3.519223927635702e-05
143 2 5.77602 25.7685 1.4948 2.4 0.40629703456136457 4.3681537887070385e-05 0.5936590079139341 6.96764150782779e-15 2.7598680801036333e-07
144 3 5.83821 27.3818 1.4948 -1.2 0.7751070631836785 9.566859691293316e-05 0.22477994059356232 1.9677111432075715e-15 1.7327625842912418e-05
145 3 2.15175 24.7945 1.4948 -1.2 0.7287400972076546 0.00022969305607461234 0.27101525487017725 1.4133608787273824e-16 1.4954866095537092e-05
146 3 5.07184 25.0624 0.196716 -1.2 0.4294801283394125 9.14790460454098e-05 0.5704129005983425 4.497489894076986e-15 1.5492016190834382e-05
147 1 6.66374 23.745 2.9896 1.2 0.001224730864913328 9.430464741492026e-07 0.998773822067138 1.298140814424417e-13 5.040213430234512e-07
148 3 5.03707 25.0624 2.79288 -1.2 0.0053808750488151934 8.88044607342062e-06 0.9946086565359278 1.007441731098625e-13 1.5879690857537889e-06
149 1 -0.727559 23.7863 4.4844 1.2 8.173764600243467e-05 8.484044543281692e-08 0.9999179239951056 9.038658878305175e-12 2.5350940189825975e-07
150 2 -2.5277 26.4704 4.4844 2.4 0.0009178815919078078 2.1018432009254634e-07 0.999081846869124 2.463564269721483e-12 6.135218464569303e-08
151 3 -2.59107 24.8572 4.4844 -1.2 0.00017478913326370225 1.535162301614419e-07 0.9998248457123861 1.9007723410406472e-14 2.1163809990555252e-07
152 3 1.09817 27.4445 4.4844 -1.2 0.004928186686511845 2.3737995138224883e-06 0.9950650435301952 6.414852421832485e-13 4.395983134214642e-06
153 3 -1.78784 27.1766 3.18632 -1.2 0.003867063185524121 8.2775678671036e-07 0.9961315793637617 1.0425432148193465e-13 5.296938276865264e-07
154 3 -1.82343 27.1766 5.78248 -1.2 0.0016021159079617345 6.293679669628625e-08 0.9983972820135565 6.794282193869547e-13 5.391410024638617e-07
155 1 1.62435 26.1195 2.9896 1.2 0.008242801867234764 1.5240962709234474e-06 0.991753756498361 2.286979157094353e-13 1.9175379016246165e-06
156 1 4.43064 26.0782 4.4844 1.2 0.00019337875111297674 2.3243860597079736e-08 0.9998064959363314 8.867018890522697e-12 1.0205983313939021e-07
157 2 2.61607 28.143 4.4844 2.4 0.0021288184010091046 3.7550155428912445e-07 0.9978705560955005 1.3724794062605307e-11 2.4998820754521905e-07
158 3 2.63853 29.7563 4.4844 -1.2 0.0003617570106935359 7.355412900567426e-08 0.9996374662064144 3.4776296027096864e-13 7.032284169762605e-07
159 3 -4.00841 27.169 4.4844 -1.2 0.0010167262205876158 6.296412733247837e-07 0.9989820152613418 2.2398247875022357e-13 6.288765737757127e-07
160 3 3.3182 27.4369 3.18632 -1.2 0.0135355242743562 3.501779288782899e-06 0.9864583638490195 1.3920932048865305e-13 2.610097199353952e-06
161 1 1.66335 26.1195 0 1.2 0.09528698077543127 1.3930617134719892e-05 0.9046858549436514 3.607846570706055e-14 1.3233663749539818e-05
162 3 3.28288 27.4369 5.78248 -1.2 0.0002482355061545231 1.5150707990407915e-08 0.9997515901346915 1.5488609449951945e-12 1.5920689113382097e-07
163 1 -1.18278 26.1608 1.4948 1.2 0.07090713593607313 1.4494204707701288e-05 0.9290687610157331 1.0584212335768994e-13 9.608843378185697e-06
164 2 0.635424 24.0959 1.4948 2.4 0.007206927501241816 3.8052613753917248e-06 0.9927892625869118 2.7073494391138262e-15 4.650469230855294e-09
165 3 0.617906 22.4827 1.4948 -1.2 0.01626215178265368 4.035180157322893e-05 0.9836969122845192 7.995934859509985e-16 5.841312502281376e-07
166 3 7.25781 25.07 1.4948 -1.2 0.47691459814968085 0.00026460578911327814 0.5228086586243539 3.295809293226816e-16 1.21374368472446e-05
167 3 -0.0337363 24.8021 0.196716 -1.2 0.07264790225236784 5.1733242473649795e-05 0.9272977467025443 3.1188163259854738e-15 2.6178026084248445e-06
168 3 -0.0687235 24.8021 2.79288 -1.2 0.009488494925758834 1.6192434382811896e-05 0.990493180999022 1.2002649945079937e-13 2.13164071793733e-06
169 1 6.82195 28.494 0 1.2 0.2895496398905564 4.834345906509719e-05 0.7103187196599987 2.175712644037599e-13 8.329699016404112e-05
170 1 4.10106 33.2017 1.4948 1.2 0.7808406107219475 0.00016431013792560852 0.2183505426393966 1.015227745593081e-10 0.0006445363992037055
171 2 5.89839 30.5175 1.4948 2.4 0.995831367442431 7.455800711963159e-06 0.004160421739781777 2.7146346879973023e-15 7.550170736234224e-07
172 3 5.96289 32.1308 1.4948 -1.2 0.9425797103857713 6.026498126937098e-05 0.05730570539649185 5.623186051405753e-14 5.43192364118682e-05
173 3 2.27266 29.5435 1.4948 -1.2 0.9900276856939617 8.515050847385382e-05 0.009830333804296876 9.69978027121077e-16 5.6829993272150816e-05
174 3 5.19102 29.8114 0.196716 -1.2 0.985673888559067 1.624416691721291e-05 0.014282133633811303 2.5813388724919048e-15 2.773364019822714e-05
175 1 6.78546 28.494 2.9896 1.2 0.032336463403557295 4.696523072275539e-06 0.9676470529094363 1.2123159649663645e-12 1.1787162718805016e-05
176 3 5.16061 29.8114 2.79288 -1.2 0.09295547083066451 2.7261913835411394e-05 0.9069983200483838 1.0552674343579594e-12 1.8947206054053337e-05
177 1 -0.603205 28.5353 4.4844 1.2 0.0009093203256906613 1.544583915892214e-07 0.9990890818810253 4.1054859607845805e-11 1.4432938304940774e-06
178 2 -2.39877 31.2194 4.4844 2.4 0.0029445977252307554 5.444652253649301e-07 0.9970540178440698 6.523242059352122e-11 8.39900247766793e-07
179 3 -2.46483 29.6062 4.4844 -1.2 0.0001372455659198839 7.504388183083728e-08 0.9998623625265213 4.146312378811844e-13 3.1686326021578716e-07
180 3 1.22864 32.1935 4.4844 -1.2 0.004356227047013847 2.5916186485952056e-06 0.9956270805490834 9.768107719567913e-12 1.4100775485215828e-05
181 3 -1.66032 31.9256 3.18632 -1.2 0.013088860960353842 2.298929575461285e-06 0.986904882400304 3.2738157297115354e-12 3.957706499097425e-06
182 3 -1.69072 31.9256 5.78248 -1.2 0.0007226340428012402 3.172946792463779e-08 0.9992768042419072 4.7312619712276e-12 5.299810978961242e-07
183 1 1.7499 30.8685 2.9896 1.2 0.12773617984886887 9.829149504172072e-06 0.8722098685926835 5.993270824144824e-12 4.412240295272817e-05
184 1 4.55894 30.8272 4.4844 1.2 0.0014281150837406643 3.9212741313120276e-08 0.9985712376473492 8.26733194739354e-11 6.079734959488359e-07
185 2 2.7476 32.892 4.4844 2.4 0.0028768777564711226 6.449527486722489e-07 0.9971208421889518 2.7504125957996166e-10 1.6348267842969752e-06
186 3 2.77235 34.5053 4.4844 -1.2 0.00010379610320405809 4.428705000382514e-08 0.9998952325655242 8.972596319320545e-12 9.270352437114543e-07
187 3 -3.87837 31.918 4.4844 -1.2 0.001251870300366613 6.919004491193755e-07 0.9987440639486401 5.9682186930863984e-12 3.3738445736605307e-06
188 3 3.44611 32.1859 3.18632 -1.2 0.05213523432140523 8.567173015043115e-06 0.9478371511133687 7.47579740957364e-12 1.904738473176545e-05
189 1 1.7837 30.8685 0 1.2 0.8780558877608635 4.745657151333698e-05 0.12162705572040237 2.235567775042537e-13 0.00026959994699051365
190 3 3.41602 32.1859 5.78248 -1.2 0.00014899953364849166 1.2331828300333459e-08 0.9998507806221404 1.4475983638072309e-11 2.074979118047518e-07
191 1 -1.05984 30.9098 1.4948 1.2 0.8709264814275451 9.333753491535869e-05 0.12874052495596874 1.034060928798832e-12 0.0002396560805375732
192 2 0.755243 28.8449 1.4948 2.4 0.9249733442393755 1.062024716820234e-05 0.07501586631807919 3.554240390414686e-15 1.6919537114885508e-07
193 3 0.735127 27.2317 1.4948 -1.2 0.8036557251981447 8.495381260552346e-05 0.19624886119716908 1.2986488527545705e-15 1.0459792085175501e-05
194 3 7.37914 29.819 1.4948 -1.2 0.969762932570329 0.00014562210098079334 0.030013669832882343 2.5967164919033387e-15 7.777549580237766e-05
195 3 0.0850649 29.5511 0.196716 -1.2 0.8068440989551876 9.624582243408505e-05 0.19301544982458646 5.2458588330145773e-14 4.4205397734990736e-05
196 3 0.0543974 29.5511 2.79288 -1.2 0.20676614346960764 5.3475004525562195e-05 0.7931569531404483 6.328923615725146e-13 2.3428384785393418e-05
197 1 6.94543 33.243 0 1.2 0.9308254978138187 4.724267752002112e-05 0.06871799554797949 8.133117774238513e-13 0.000409263959872838
198 1 4.23267 37.9507 1.4948 1.2 0.40119602921818137 0.00013322725965209052 0.5981148224088224 2.3864733222433575e-09 0.0005559187268657925
199 2 6.02709 35.2665 1.4948 2.4 0.9985714674376323 1.7040399843379234e-05 0.0014047294524735022 6.91975485011853e-14 6.762709984025781e-06
200 3 6.09339 36.8798 1.4948 -1.2 0.6224731861242041 0.00013372750722578206 0.3772020813140883 1.2556814039255606e-11 0.00019100504192189115
201 3 2.40018 34.2925 1.4948 -1.2 0.9494114516556803 0.00033072192702976406 0.04973397741949242 8.910732424933023e-13 0.0005238489969091003
202 3 5.31645 34.5604 0.196716 -1.2 0.9920262881533499 2.490938352688699e-05 0.007816231833023147 1.031170979730934e-13 0.00013257063000235062
203 1 6.91449 33.243 2.9896 1.2 0.08726886889972 1.1290724453903385e-05 0.9126545978077453 6.056870928140046e-11 6.524250751332898e-05
204 3 5.291 34.5604 2.79288 -1.2 0.033747375258863156 2.9635502964614747e-05 0.9661793451192515 5.1253110549466415e-11 4.364406767402789e-05
205 1 -0.471101 33.2843 4.4844 1.2 0.0060352634262818535 4.646328865429001e-07 0.9939566926833244 4.777206192861304e-10 7.578779789726939e-06
206 2 -2.26307 35.9684 4.4844 2.4 0.00034166947542877346 3.2909531580955296e-07 0.9996552683042089 4.072624176003104e-09 2.7290524216514233e-06
207 3 -2.33122 34.3552 4.4844 -1.2 0.00013954091307989358 7.908138221431092e-08 0.9998594855087598 8.674932488592008e-12 8.944881069842515e-07
208 3 1.36549 36.9425 4.4844 -1.2 0.00012587431655827224 3.0444979371120104e-07 0.9998704441966504 7.952571038601004e-11 3.3769574749628432e-06
209 3 -1.52658 36.6746 3.18632 -1.2 0.006921848161390992 3.0973993164703005e-06 0.9930661797011792 9.048299652142884e-11 8.874647636493675e-06
210 3 -1.55122 36.6746 5.78248 -1.2 6.487364277184362e-05 9.281989398426965e-09 0.9999349035828655 5.196383149876926e-11 2.1344040352723718e-07
211 1 1.882 35.6175 2.9896 1.2 0.051405175298009996 1.0013198964866213e-05 0.9485363455362041 2.140851697767891e-10 4.846575274090516e-05