ITEM: TIMESTEP
1300
ITEM: NUMBER OF ATOMS
10500
ITEM: BOX BOUNDS xy xz yz pp pp pp
0	15.2977	5.09925
0	118.725	0
0	89.688	0
ITEM: ATOMS id type xu yu zu q pCrystal pDisloC pSF pDisloB pDisloA
1 1 6.2404 -6.37941e-06 0 1.2 3.631315825164339e-16 2.229952216550638e-12 0.9999997756781166 2.242940022337144e-07 2.565336696275306e-11
2 1 3.46349 4.70768 1.4948 1.2 2.477431815942469e-10 2.0405359688585927e-08 0.999999935516174 4.3668904902292604e-08 1.618130156448495e-10
3 2 5.2885 2.02354 1.4948 2.4 1.8017566889709254e-13 4.0793387953263496e-10 0.9999999865014645 1.3083589876888921e-08 6.827522320291767e-12
4 3 5.33628 3.63678 1.4948 -1.2 3.5790943795741163e-10 3.2570275930883893e-08 0.9999999558999103 6.231704265914816e-09 4.940193504788666e-09
5 3 1.67294 1.04952 1.4948 -1.2 2.304736629732233e-13 1.7408009829083849e-09 0.9999998228178569 1.7494436969116183e-07 4.967377885899845e-10
6 3 4.59532 1.31737 0.196716 -1.2 1.824083762769798e-14 3.432559708544762e-10 0.9999998865317601 1.1283717208834557e-07 2.877947723360364e-10
7 1 6.18956 -6.37941e-06 2.9896 1.2 3.9553618441269045e-16 7.88944814109869e-11 0.9999974447666734 2.5542552704162252e-06 8.991659875371835e-10
8 3 4.55118 1.31737 2.79288 -1.2 2.685987981798245e-16 9.662217719568012e-12 0.9999989528454531 1.047071737159065e-06 7.314782385834182e-11
9 1 -1.20682 0.0413099 4.4844 1.2 6.333099407148486e-16 3.965610133571387e-11 0.999975901891056 2.4097412562660284e-05 6.567216907465682e-10
10 2 -3.0337 2.72544 4.4844 2.4 5.8098791827553605e-12 4.448101549118415e-08 0.9999700972054866 2.9846069714183145e-05 1.2237974591742966e-08
11 3 -3.08099 1.11221 4.4844 -1.2 1.6668725501100904e-15 1.2331446628547651e-10 0.999989925259559 1.007411828363981e-05 4.988345775251257e-10
12 3 0.582463 3.69946 4.4844 -1.2 3.2334440732941633e-12 4.788414107233476e-10 0.9999904916751344 9.501972656388724e-06 5.870133232952242e-09
13 3 -2.29524 3.43162 3.18632 -1.2 8.636178872400778e-11 1.432403242076184e-08 0.9999996936300634 2.8729721263923833e-07 4.662334378486791e-09
14 3 -2.34216 3.43162 5.78248 -1.2 1.6657988222041392e-12 1.4376178715506752e-10 0.9999681160828066 3.187922245025098e-05 4.549309361391726e-09
15 1 1.12778 2.37449 2.9896 1.2 3.054985822583487e-13 1.3178126317570732e-09 0.9999919044763588 8.093780268142736e-06 4.2525005625042773e-10
16 1 3.92855 2.33318 4.4844 1.2 6.934101364857796e-15 4.5992022824132444e-11 0.999936615136891 6.338433291175836e-05 4.842013795374468e-10
17 2 2.09341 4.39804 4.4844 2.4 1.2213477187519477e-12 2.8195879421291692e-09 0.999989493739246 1.0503032495901477e-05 4.0744364560932646e-10
18 3 2.09991 6.01128 4.4844 -1.2 1.977799210886492e-09 8.008192517887329e-09 0.9999999717673238 1.0512724430624878e-08 7.733967004869876e-09
19 3 -4.52137 3.42402 4.4844 -1.2 1.462066999667208e-12 9.345041099369318e-10 0.9999947737301088 5.216334384601082e-06 8.999540773019475e-09
20 3 2.80834 3.69187 3.18632 -1.2 2.6755381022193173e-12 7.511746383202111e-10 0.9999999175411921 8.14789147630578e-08 2.260479874960804e-10
21 1 1.17857 2.37449 0 1.2 1.1252814245832867e-14 2.6560668710978034e-10 0.999999461363973 5.382159042048095e-07 1.5450442250609892e-10
22 3 2.76143 3.69187 5.78248 -1.2 8.51118856383849e-14 2.2973033923459207e-11 0.999979156884259 2.0841893657691006e-05 1.199029046079629e-09
23 1 -1.67381 2.41581 1.4948 1.2 9.434562935456217e-11 2.847968798421227e-08 0.9999985955154416 1.3733195089277415e-06 2.591016919745929e-09
24 2 0.16286 0.350945 1.4948 2.4 2.536412456899372e-13 2.0407262110289135e-09 0.9999992355674658 7.621432840251903e-07 2.4826973354952806e-10
25 3 0.15972 -1.26229 1.4948 -1.2 6.4106855368108744e-12 2.017055219405232e-08 0.9999998426552262 1.3106969893666752e-07 6.098115420224495e-09
26 3 6.77654 1.32496 1.4948 -1.2 9.590238623223839e-13 3.931520695407619e-09 0.9999999512518952 4.145159329102127e-08 3.364027930921058e-09
27 3 -0.508028 1.05712 0.196716 -1.2 3.091036013177051e-14 1.0580729567901575e-09 0.9999997417876094 2.5635705633362686e-07 7.972263924530764e-10
28 3 -0.552171 1.05712 2.79288 -1.2 1.0208441690548885e-13 6.5531436131262e-10 0.9999964041502656 3.5924426727809266e-06 2.7516480657893736e-09
29 1 6.31713 4.74899 0 1.2 3.183116638238675e-10 5.7298635473842104e-08 0.9999998977370178 4.3722493728273476e-08 9.235446239111848e-10
30 1 3.54847 9.45668 1.4948 1.2 4.262868379426877e-05 4.133964470750673e-07 0.9999568490175285 3.602760640653422e-11 1.0886620589855245e-07
31 2 5.36879 6.77254 1.4948 2.4 2.2134309555311723e-06 4.821572284470633e-06 0.9999928457986419 1.0383304832337528e-10 1.1909429056101578e-07
32 3 5.41937 8.38578 1.4948 -1.2 0.0006275822022190813 5.362808414522442e-05 0.9993156217148987 3.398620303699418e-13 3.167998392705048e-06
33 3 1.75158 5.79852 1.4948 -1.2 3.0660221380940334e-06 6.507858984581116e-06 0.999990105516028 6.363531106642227e-11 3.205392093231002e-07
34 3 4.67421 6.06637 0.196716 -1.2 3.275129489935541e-08 4.0671240352790307e-07 0.9999995543743123 3.6316108152318065e-11 6.1256674183300895e-09
35 1 6.26654 4.74899 2.9896 1.2 2.2375026658289398e-10 1.4805829282716814e-08 0.9999995594376518 4.207833615107649e-07 4.749409422586133e-09
36 3 4.63043 6.06637 2.79288 -1.2 3.168120282022427e-08 1.3276705253168964e-07 0.9999998150445919 1.8346617242770097e-09 1.867248839236204e-08
37 1 -1.12976 4.79031 4.4844 1.2 1.1041092434258056e-10 6.393806706648587e-10 0.9999982601257998 1.7384436696374163e-06 6.807329931864411e-10
38 2 -2.9517 7.47444 4.4844 2.4 4.271652669787915e-09 8.262701617593788e-08 0.9999978135881263 3.274774349818172e-07 1.772035771012309e-06
39 3 -3.00198 5.86121 4.4844 -1.2 1.796576505313918e-10 6.216976707341594e-10 0.9999999577051719 3.971765303455902e-08 1.7758234932468785e-09
40 3 0.666315 8.44846 4.4844 -1.2 1.1490057254658127e-07 1.5422254741653646e-07 0.9999990515851159 3.776636763389167e-10 6.789141037448162e-07
41 3 -2.21213 8.18062 3.18632 -1.2 5.785934083986929e-07 1.1169451716640243e-07 0.9999991555655198 4.2371250484156777e-11 1.5410418430072718e-07
42 3 -2.25864 8.18062 5.78248 -1.2 2.5920419031223475e-08 4.07056086353979e-09 0.9999995320393495 9.816925496949248e-09 4.28152744598306e-07
43 1 1.20893 7.12349 2.9896 1.2 1.3998988715061613e-07 1.5568892344317653e-07 0.9999996767144478 3.970375373628683e-09 2.363636653134505e-08
44 1 4.00982 7.08218 4.4844 1.2 2.0559618879961255e-08 9.401081628024865e-09 0.9999998775145049 4.344999019817334e-08 4.90748026789185e-08
45 2 2.17861 9.14704 4.4844 2.4 1.544556215024104e-06 8.668709280596044e-07 0.9999943502692484 9.911601478057655e-09 3.2283920038429127e-06
46 3 2.18828 10.7603 4.4844 -1.2 6.093143827775596e-06 1.078841016463358e-07 0.9999931321946681 1.8476705447972913e-11 6.667589305741859e-07
47 3 -4.43805 8.17302 4.4844 -1.2 2.8750951584563746e-08 4.075301757708869e-08 0.9999994705294578 5.793368721322773e-10 4.593872424792782e-07
48 3 2.89193 8.44087 3.18632 -1.2 2.8817756572718745e-06 2.8674791383300137e-07 0.999996496176393 1.377030601906549e-10 3.3516232864198196e-07
49 1 1.25915 7.12349 0 1.2 1.888550348983287e-07 3.4723598938131606e-07 0.9999994594668391 4.491296434134926e-10 3.993008136054749e-09
50 3 2.84547 8.44087 5.78248 -1.2 5.954680140459093e-08 9.446773041079148e-09 0.9999996120792545 4.363623647720892e-09 3.145635420166927e-07
51 1 -1.59284 7.16481 1.4948 1.2 1.1337794145707049e-06 5.441042187531512e-07 0.9999982884037746 4.079916555648523e-10 3.3304597011645055e-08
52 2 0.240329 5.09994 1.4948 2.4 1.4968715332359159e-09 1.0375583162205061e-07 0.9999998910423559 3.6251485326640397e-09 7.97864584911627e-11
53 3 0.234538 3.48671 1.4948 -1.2 2.215561841211431e-11 1.5041125771170922e-08 0.9999999709524166 1.13667606119918e-08 2.617539694703426e-09
54 3 6.85564 6.07396 1.4948 -1.2 5.428938729593264e-07 2.7359492707525826e-06 0.9999964100617894 1.1860603372792524e-10 3.109764576817382e-07
55 3 -0.429565 5.80612 0.196716 -1.2 3.5170437008224322e-09 5.978856550846797e-08 0.9999999357574033 1.3965366956940768e-10 7.973330481252938e-10
56 3 -0.473377 5.80612 2.79288 -1.2 2.5729071982387053e-09 8.790312543130003e-09 0.9999999799546517 5.9106788571554714e-09 2.7714479709099883e-09
57 1 6.40169 9.49799 0 1.2 5.457804810655663e-05 1.347233550535267e-06 0.9999439631139739 1.7666642351250486e-12 1.116025965073841e-07
58 1 3.64209 14.2057 1.4948 1.2 0.00022923418887580736 4.922048822045989e-07 0.9997700318698411 1.1885625665293949e-12 2.4173520793469977e-07
59 2 5.45748 11.5215 1.4948 2.4 0.0011699169972379244 1.4524967804596543e-05 0.9988153832060199 7.349186651313318e-14 1.7482886614463397e-07
60 3 5.51101 13.1348 1.4948 -1.2 0.014766999439860535 8.613964446601088e-05 0.9851393689784533 1.7151554236801844e-14 7.491937206423162e-06
61 3 1.83851 10.5475 1.4948 -1.2 0.004770772348175892 1.4603136517767548e-05 0.9952125373779843 2.401477866199131e-14 2.087137301211949e-06
62 3 4.7611 10.8154 0.196716 -1.2 0.0005651014711899149 1.007695144603393e-05 0.9994243339992731 6.926513502244994e-14 4.875780153192096e-07
63 1 6.35203 9.49799 2.9896 1.2 2.2735869148149365e-05 1.6264320684387886e-06 0.9999751288977794 7.640710658203399e-11 5.087245938574645e-07
64 3 4.71833 10.8154 2.79288 -1.2 6.88799177666844e-05 1.2110057215351535e-06 0.9999291033896555 5.280523899407841e-12 8.056815753695022e-07
65 1 -1.0438 9.53931 4.4844 1.2 1.7486764178205115e-06 5.186467832345609e-08 0.9999978930220862 5.027479172971727e-09 3.014093374469265e-07
66 2 -2.8604 12.2234 4.4844 2.4 4.148615746689525e-06 6.001047814180902e-07 0.9999941907283783 5.57716108507994e-10 1.0599933805101505e-06
67 3 -2.91391 10.6102 4.4844 -1.2 6.835357223543308e-06 1.6607088872552128e-07 0.999992400715298 9.9806618911515e-12 5.978466078123415e-07
68 3 0.7596 13.1975 4.4844 -1.2 1.2422540790229476e-05 1.066895789289165e-06 0.9999837044889842 2.6661801343963865e-11 2.8060477789984835e-06
69 3 -2.12001 12.9296 3.18632 -1.2 0.0001269197601465708 1.2026848188636142e-06 0.9998707318796423 1.7914892478002459e-12 1.1456735945438841e-06
70 3 -2.16532 12.9296 5.78248 -1.2 2.127199981874201e-05 9.629678162462365e-08 0.9999748965615674 1.7366765499832354e-10 3.7349681604277787e-06
71 1 1.29891 11.8725 2.9896 1.2 0.00013460548965333761 1.5482542973458082e-06 0.9998626071737362 2.2446614748085348e-11 1.239059861261172e-06
72 1 4.10033 11.8312 4.4844 1.2 2.0536959674218373e-05 6.202583692712255e-08 0.9999779530951 1.3255293687057853e-09 1.4465938533199282e-06
73 2 2.27333 13.896 4.4844 2.4 6.78347596736143e-05 1.6027710834409704e-06 0.9999271598206221 3.505257316602112e-10 3.4022980934142908e-06
74 3 2.28634 15.5093 4.4844 -1.2 6.960094060156777e-05 3.1542821888072586e-07 0.9999293093829826 3.99026220585149e-13 7.742477925311858e-07
75 3 -4.34533 12.922 4.4844 -1.2 2.4909224004292484e-06 1.485664185779325e-07 0.999996410373816 3.836314841619663e-11 9.50099000730452e-07
76 3 2.98455 13.1899 3.18632 -1.2 8.489250556812649e-05 1.0247881967805026e-06 0.9999131888973902 3.856936548293303e-12 8.938049945263493e-07
77 1 1.34779 11.8725 0 1.2 0.00021369971046459403 1.3149990939087633e-06 0.9997847238122526 7.711383112105324e-13 2.6147741711395704e-07
78 3 2.93934 13.1899 5.78248 -1.2 1.4566266934659177e-05 4.781234189972417e-08 0.9999844317256044 7.989790705697324e-11 9.541152272329812e-07
79 1 -1.50344 11.9138 1.4948 1.2 0.00017930879939701577 1.000778658657919e-06 0.9998194133952734 1.1378070775718432e-12 2.7702553768830013e-07
80 2 0.326006 9.84894 1.4948 2.4 0.00026198615228292875 5.330866372213068e-06 0.9997326204176744 1.0788902061866952e-13 6.256356370865318e-08
81 3 0.317364 8.23571 1.4948 -1.2 0.00023768365484942646 1.0499630638348148e-05 0.999750975027313 2.459320893188435e-12 8.416847360813604e-07
82 3 6.94307 10.823 1.4948 -1.2 0.002478947270536611 2.5364753727229518e-05 0.9974941665814631 2.3152157736935872e-14 1.521394255007213e-06
83 3 -0.343122 10.5551 0.196716 -1.2 0.0001995903025318238 4.361847305380759e-06 0.9997958397061726 1.2590831554478964e-13 2.081438671644735e-07
84 3 -0.385966 10.5551 2.79288 -1.2 4.51486750753305e-05 8.914692569066735e-07 0.9999534450798334 1.0645704398852827e-11 5.147651900892176e-07
85 1 6.49448 14.247 0 1.2 0.0007789822469019835 9.108444258275166e-07 0.9992197271038157 5.959460223249155e-14 3.798047897680666e-07
86 1 3.74457 18.9547 1.4948 1.2 4.554905460227329e-05 1.1385419580563245e-07 0.9999543085080814 2.2511614928820553e-13 2.858289913001187e-08
87 2 5.55495 16.2705 1.4948 2.4 0.0007833263441882386 5.4291203461831295e-06 0.9992112315376268 3.7799776790691354e-15 1.2997842166684696e-08
88 3 5.6115 17.8838 1.4948 -1.2 0.006517313428931299 3.614190920220785e-05 0.99344582365293 9.44194623615364e-16 7.210089332373589e-07
89 3 1.93416 15.2965 1.4948 -1.2 0.014991262561473874 2.4178194799219904e-05 0.9849831753591035 1.1340984024542428e-15 1.3838846161007155e-06
90 3 4.85636 15.5644 0.196716 -1.2 0.004307438634040646 1.804885933238954e-05 0.995673925600084 6.367036561692619e-15 5.869065301994968e-07
91 1 6.44662 14.247 2.9896 1.2 0.0001396561339773632 8.668069585293319e-07 0.9998589030661337 4.637508035414334e-12 5.739882972508046e-07
92 3 4.81537 15.5644 2.79288 -1.2 0.00056568465072194 5.19234342348979e-06 0.9994279379124286 3.7996391510663843e-13 1.1850930516248808e-06
93 1 -0.948271 14.2883 4.4844 1.2 1.863408491091811e-05 1.250038626068143e-07 0.9999800901292328 5.94707296716815e-10 1.1501872907593685e-06
94 2 -2.75928 16.9724 4.4844 2.4 8.899824759666079e-05 8.480537763106257e-07 0.9999098286441761 2.0164418359692125e-11 3.250342891389102e-07
95 3 -2.81617 15.3592 4.4844 -1.2 2.546088880066917e-05 2.3990645423486083e-07 0.9999734766286148 7.340544457810389e-13 8.225753940867233e-07
96 3 0.862762 17.9465 4.4844 -1.2 4.004979545319574e-05 8.014711935852737e-07 0.9999585680766829 1.2135143644432167e-12 5.806554528214812e-07
97 3 -2.0185 17.6786 3.18632 -1.2 0.00014731980828342392 7.523188880200244e-07 0.9998517255132565 9.75999661389843e-14 2.023594679850001e-07
98 3 -2.06164 17.6786 5.78248 -1.2 0.00018206360681397499 1.304411385747035e-07 0.999816280870557 2.473005140550261e-12 1.5250790212196143e-06
99 1 1.39817 16.6215 2.9896 1.2 0.00017638053983119395 8.397542079349792e-07 0.9998222529239854 1.5368047762176012e-12 5.267804362298262e-07
100 1 4.20062 16.5802 4.4844 1.2 1.9476392240120793e-05 4.450130681622143e-08 0.999980060738943 2.457786021069299e-10 4.181217318597645e-07
101 2 2.37796 18.645 4.4844 2.4 6.035596446957504e-05 4.4369770988834675e-07 0.99993910933616 5.953735825221288e-12 9.099570101716452e-08
102 3 2.39434 20.2583 4.4844 -1.2 9.49691651550088e-05 1.7763735952647986e-07 0.9999046526530231 1.7192261779450212e-14 2.0054444862202204e-07
103 3 -4.24274 17.671 4.4844 -1.2 2.316661776426871e-05 4.571054003235061e-07 0.999975898116943 2.1601908909040453e-12 4.781577306148966e-07
104 3 3.08659 17.9389 3.18632 -1.2 8.016033715306269e-05 7.098581134636295e-07 0.9999189148988491 3.094982275494884e-13 2.1490557678882604e-07
105 1 1.44478 16.6215 0 1.2 0.0006758349643154247 5.144230079177828e-07 0.999323394406678 6.084945102149505e-14 2.5620593594988124e-07
106 3 3.0436 17.9389 5.78248 -1.2 3.357981075987568e-05 2.014335433632432e-08 0.9999661409505836 3.967073882370184e-12 2.59091332341863e-07
107 1 -1.40524 16.6628 1.4948 1.2 0.000755605151473123 1.0549134023349602e-06 0.9992429757565123 8.498479639472324e-14 3.6417852222491367e-07
108 2 0.420358 14.5979 1.4948 2.4 0.0017832623621257518 1.146555949862606e-05 0.9982052098352995 2.5352351828311745e-14 6.22430480153298e-08
109 3 0.408732 12.9847 1.4948 -1.2 0.011457845721802347 5.407619896751857e-05 0.9884854834281226 1.4124069113958922e-14 2.5946510912779908e-06
110 3 7.03923 15.572 1.4948 -1.2 0.015761688013062845 6.26608429234767e-05 0.9841732009465396 2.2780814107844463e-15 2.450197469435236e-06
111 3 -0.248332 15.3041 0.196716 -1.2 0.001341429801859542 1.326244594020242e-05 0.9986449730201195 1.5692458948582393e-14 3.347320595380148e-07
112 3 -0.289436 15.3041 2.79288 -1.2 0.0009287114109766887 7.538136366391208e-06 0.9990613937590438 1.4320281004900013e-12 2.3566921803674e-06
113 1 6.59566 18.996 0 1.2 0.00044451030747525295 1.8962966891836326e-07 0.9995552123481432 4.452407247122747e-15 8.771470448502548e-08
114 1 3.85574 23.7037 1.4948 1.2 0.0010333535833112195 5.98553332728369e-07 0.9989658233820798 1.2724772037452864e-13 2.2448115320775204e-07
115 2 5.66125 21.0195 1.4948 2.4 0.0021847291390463502 3.190234458491681e-06 0.997812076159765 1.0460268820885999e-15 4.466730394172561e-09
116 3 5.72074 22.6328 1.4948 -1.2 0.029154857164115172 4.745362531335725e-05 0.9707967477390596 7.328869242088048e-16 9.414715085669102e-07
117 3 2.03867 20.0455 1.4948 -1.2 0.021774631440130535 2.6377977324972102e-05 0.9781981771091278 1.1515746882765228e-16 8.134734173201532e-07
118 3 4.96004 20.3134 0.196716 -1.2 0.00633777272049933 8.136251226569314e-06 0.9936538418595006 6.252985643656882e-16 2.49168770566284e-07
119 1 6.55057 18.996 2.9896 1.2 0.00010833648443579177 3.326836587968789e-07 0.9998911859170924 2.7362627552991105e-13 1.449145412083546e-07
120 3 4.92172 20.3134 2.79288 -1.2 0.00036566589598905947 2.094097659991888e-06 0.9996320457558661 3.824322738722075e-14 1.9425045307815712e-07
121 1 -0.84282 19.0373 4.4844 1.2 2.0980662885443005e-05 4.140356849457392e-08 0.9999787950080039 4.003391706753248e-11 1.828855051296682e-07
122 2 -2.64823 21.7214 4.4844 2.4 0.00020023730316522746 2.455094835579461e-07 0.999799490998863 1.1225632582859363e-12 2.6187364725994442e-08
123 3 -2.70847 20.1082 4.4844 -1.2 3.879824185678485e-05 1.0215109116320504e-07 0.9999610085225106 2.99838354046243e-14 9.108451298966471e-08
124 3 0.97581 22.6955 4.4844 -1.2 0.00029059484428788334 1.5673759570837366e-06 0.9997071106199555 2.381120151453602e-13 7.271595562631251e-07
125 3 -1.9076 22.4276 3.18632 -1.2 0.0005654435820369085 5.392558121474731e-07 0.9994339188185826 1.1903170083874104e-14 9.834356189660583e-08
126 3 -1.9475 22.4276 5.78248 -1.2 0.0003268022741264692 5.6153087857698155e-08 0.9996727478396478 3.4823725207607063e-13 3.937327915701287e-07
127 1 1.50678 21.3705 2.9896 1.2 0.0003477735855013882 6.37650181348524e-07 0.999651175030708 3.595818544309872e-13 4.13733255166214e-07
128 1 4.31086 21.3292 4.4844 1.2 2.09467058713749e-05 1.4603501436087904e-08 0.9999789830433854 1.651398120662323e-11 5.563072987241864e-08
129 2 2.49243 23.394 4.4844 2.4 0.00022349569213262637 3.70163133445123e-07 0.9997760902499255 2.43837762583273e-12 4.3892371703993834e-08
130 3 2.51204 25.0073 4.4844 -1.2 0.00019671314224628533 1.967710162809529e-07 0.9998026947866212 2.8143934021532835e-14 3.9530009411443047e-07
131 3 -4.13026 22.42 4.4844 -1.2 9.027538357686096e-05 4.58212969408849e-07 0.9999091003714827 2.066062859580737e-13 1.6603176415577222e-07
132 3 3.19799 22.6879 3.18632 -1.2 0.0004848378755089203 1.3352023196091196e-06 0.9995136516316377 2.890418667189595e-14 1.752905008836558e-07
133 1 1.5501 21.3705 0 1.2 0.0013817420429240248 4.2600810841405687e-07 0.9986175854202574 1.2506660342644672e-14 2.46528703282699e-07
134 3 3.1583 22.6879 5.78248 -1.2 0.0001024245966436507 1.3474040965073272e-08 0.9998974465608605 6.86885136990608e-13 1.1536777474090507e-07
135 1 -1.29822 21.4118 1.4948 1.2 0.000991684279661397 5.975269551104542e-07 0.9990075350597202 1.053086989045378e-14 1.8313365510987163e-07
136 2 0.523568 19.3469 1.4948 2.4 0.0005542790396826917 2.487444945067951e-06 0.9994432315356092 2.2647449639916453e-15 1.9797634511695846e-09
137 3 0.508934 17.7337 1.4948 -1.2 0.0038927126257457204 3.0113483176694223e-05 0.9960767523633092 1.825702199130264e-15 4.2152776245812775e-07
138 3 7.14425 20.321 1.4948 -1.2 0.015915360199601266 4.331054280809571e-05 0.9840406603607093 1.2506226905099832e-16 6.688968849586097e-07
139 3 -0.145107 20.0531 0.196716 -1.2 0.0019143936458688477 8.208068055992235e-06 0.9980772882803692 1.2727983853714488e-15 1.1000569786654252e-07
140 3 -0.183601 20.0531 2.79288 -1.2 0.0014893959897661442 5.037653203643747e-06 0.9985052427641078 2.643064432383927e-14 3.23592901314401e-07
141 1 6.70502 23.745 0 1.2 0.00873536699096462 1.4673133679796898e-06 0.9912621005925201 4.530474879721278e-15 1.0651031480840303e-06
142 1 3.97493 28.4527 1.4948 1.2 0.2009538757882298 1.7682084369169607e-05 0.7990000030256436 1.3693318830395207e-12 2.843910038466675e-05
143 2 5.77602 25.7685 1.4948 2.4 0.28849889132359013 2.6901975491450626e-05 0.7114740544606157 3.730519441700633e-15 1.5224029849761816e-07
144 3 5.83821 27.3818 1.4948 -1.2 0.708778623312984 8.514519372997163e-05 0.29112290240061817 1.6326570446827461e-15 1.3329092660267023e-05
145 3 2.15175 24.7945 1.4948 -1.2 0.7235655701961187 0.00016392957269527108 0.2762598078069287 7.942175575858025e-17 1.069242426192325e-05
146 3 5.07184 25.0624 0.196716 -1.2 0.350148290658548 5.110347620433363e-05 0.6497931945259662 2.713184314295413e-15 7.411339275425818e-06
147 1 6.66374 23.745 2.9896 1.2 0.0010010654764466861 6.51361145411116e-07 0.9989979500603733 7.22901809557331e-14 3.331019559561988e-07
148 3 5.03707 25.0624 2.79288 -1.2 0.006134839630635349 9.189601345722788e-06 0.993854404623368 7.14726141661403e-14 1.566144583379695e-06
149 1 -0.727559 23.7863 4.4844 1.2 0.00010251519177314529 8.755954149816774e-08 0.999897164846028 8.086289117370974e-12 2.323945643705998e-07
150 2 -2.5277 26.4704 4.4844 2.4 0.0009574072737509981 2.3470828101817653e-07 0.9990423072047299 1.8139186359105499e-12 5.081142335329124e-08
151 3 -2.59107 24.8572 4.4844 -1.2 0.0001507224509883985 1.8698632437072699e-07 0.9998488606692039 1.656249565731948e-14 2.2989346437343824e-07
152 3 1.09817 27.4445 4.4844 -1.2 0.007219989755803791 3.7711221533903627e-06 0.9927697104756703 5.149441740796358e-13 6.5286458517628515e-06
153 3 -1.78784 27.1766 3.18632 -1.2 0.0040228495988310934 9.125686034270046e-07 0.9959756941084981 8.359996239348935e-14 5.437239835170087e-07
154 3 -1.82343 27.1766 5.78248 -1.2 0.0017924377806447208 9.271750865837334e-08 0.9982067559551299 4.955005251021693e-13 7.135462269004143e-07
155 1 1.62435 26.1195 2.9896 1.2 0.010784164941531397 1.8213920474078327e-06 0.989211766725886 1.5969977250054664e-13 2.2469403816926204e-06
156 1 4.43064 26.0782 4.4844 1.2 0.0002109042663491486 3.126264769012528e-08 0.9997889225243257 8.528406589318439e-12 1.419381494462955e-07
157 2 2.61607 28.143 4.4844 2.4 0.002421680124057578 5.129351716706611e-07 0.9975775535896908 1.3825399796565156e-11 2.53337258294554e-07
158 3 2.63853 29.7563 4.4844 -1.2 0.0004286168165994221 1.0354001870346707e-07 0.9995703295252626 4.0190687135883754e-13 9.501177214550349e-07
159 3 -4.00841 27.169 4.4844 -1.2 0.0013639421980277426 9.077862845749542e-07 0.9986343485901974 1.864443470710438e-13 8.014253061884909e-07
160 3 3.3182 27.4369 3.18632 -1.2 0.01438669506216245 3.987624689859953e-06 0.9856065489128679 1.057815109709433e-13 2.7684001744254338e-06
161 1 1.66335 26.1195 0 1.2 0.07369410783081763 1.1522015207762486e-05 0.9262839076993645 2.6388267579259223e-14 1.0462454583545676e-05
162 3 3.28288 27.4369 5.78248 -1.2 0.00023303498733879784 1.5916209451382222e-08 0.9997667877672893 1.0678414425708553e-12 1.6132809059557156e-07
163 1 -1.18278 26.1608 1.4948 1.2 0.07358446696949561 1.1528825261689122e-05 0.9263963492923193 4.7915993535730216e-14 7.65491287783678e-06
164 2 0.635424 24.0959 1.4948 2.4 0.006935483836058729 2.644007309755756e-06 0.9930618692388318 1.3662081685168162e-15 2.9177929985738983e-09
165 3 0.617906 22.4827 1.4948 -1.2 0.017963851010397897 3.017079129307659e-05 0.9820055470266182 5.50932848785486e-16 4.31171687960619e-07
166 3 7.25781 25.07 1.4948 -1.2 0.4590065192042921 0.0001886418033945764 0.5407969588076251 1.5846230060266313e-16 7.880184680952137e-06
167 3 -0.0337363 24.8021 0.196716 -1.2 0.07687775986602512 3.685007317067894e-05 0.9230834373901792 1.9217599075585784e-15 1.952670617006904e-06
168 3 -0.0687235 24.8021 2.79288 -1.2 0.011370719028770782 1.739383667242627e-05 0.9886098158590785 8.785046774651249e-14 2.0712753867251113e-06
169 1 6.82195 28.494 0 1.2 0.2703073371870126 4.398905357787371e-05 0.729569807810977 1.874281161956734e-13 7.88659482493394e-05
170 1 4.10106 33.2017 1.4948 1.2 0.8044355772586176 0.00021520396980954627 0.19448361891814706 9.720111196846213e-11 0.0008655997562212818
171 2 5.89839 30.5175 1.4948 2.4 0.9932499224341073 1.0086572076678231e-05 0.006739098178447239 3.4228594157956907e-15 8.928153623803428e-07
172 3 5.96289 32.1308 1.4948 -1.2 0.9448207731701508 6.979203286148697e-05 0.05504645605824484 6.312990586023902e-14 6.297873867700306e-05
173 3 2.27266 29.5435 1.4948 -1.2 0.9897073277280758 8.021260068805034e-05 0.010157516565418178 9.28041016723207e-16 5.494310581978128e-05
174 3 5.19102 29.8114 0.196716 -1.2 0.9830442714167605 1.8396186682341777e-05 0.01690918667220343 2.707276595540221e-15 2.8145724347025325e-05
175 1 6.78546 28.494 2.9896 1.2 0.031181088661317677 3.8860501908947614e-06 0.968807200152425 7.591838722407713e-13 7.825135302488911e-06
176 3 5.16061 29.8114 2.79288 -1.2 0.11870725296055774 3.2780720663235536e-05 0.8812374385542563 1.1216275970198942e-12 2.2527763407401194e-05
177 1 -0.603205 28.5353 4.4844 1.2 0.00147110869758926 1.587922774168769e-07 0.9985269595931405 4.4604588784307795e-11 1.7728723870121648e-06
178 2 -2.39877 31.2194 4.4844 2.4 0.005390276212982726 7.85303830423925e-07 0.9946077970665611 5.694455187895591e-11 1.1413596874596517e-06
179 3 -2.46483 29.6062 4.4844 -1.2 0.00023116463991236684 1.3001516252426058e-07 0.9997681434858562 4.1498270922636357e-13 5.618586505520916e-07
180 3 1.22864 32.1935 4.4844 -1.2 0.0052985322313176845 3.1369641382568165e-06 0.9946825764737522 1.0678858908696703e-11 1.575432011035799e-05
181 3 -1.66032 31.9256 3.18632 -1.2 0.0192971605158397 3.407730662120063e-06 0.9806934001074402 4.288061790227776e-12 6.031641773973142e-06
182 3 -1.69072 31.9256 5.78248 -1.2 0.0006542179007350009 3.081427066792187e-08 0.9993452350887707 8.477468652325421e-12 5.161877454602942e-07
183 1 1.7499 30.8685 2.9896 1.2 0.16676864300358335 1.2125375311555793e-05 0.833160534313758 6.875492163813208e-12 5.8697300465880106e-05
184 1 4.55894 30.8272 4.4844 1.2 0.002327445931267073 6.83371722944758e-08 0.9976714125770733 9.970699113020571e-11 1.073054787377778e-06
185 2 2.7476 32.892 4.4844 2.4 0.003987452628170241 7.904420544510895e-07 0.996009991458322 3.146522448062014e-10 1.7651568035267166e-06
186 3 2.77235 34.5053 4.4844 -1.2 0.00010958436597754535 4.8786749625732714e-08 0.9998894860979952 1.0456429036158102e-11 8.807388181348517e-07
187 3 -3.87837 31.918 4.4844 -1.2 0.001280646613420656 7.925296251007552e-07 0.9987147326859831 6.571796604024879e-12 3.8281643977783e-06
188 3 3.44611 32.1859 3.18632 -1.2 0.05900735985325576 1.0516607937452965e-05 0.9409575859512435 9.198931002128893e-12 2.4537578360745058e-05
189 1 1.7837 30.8685 0 1.2 0.8631608841943064 5.947941225851283e-05 0.13646778211466729 2.2922433928770496e-13 0.0003118542785418406
190 3 3.41602 32.1859 5.78248 -1.2 0.0001793812266397323 1.0438044766249317e-08 0.999820412040669 1.3694032285688538e-11 1.9628095740487983e-07
191 1 -1.05984 30.9098 1.4948 1.2 0.8769127582743123 0.00012735305882723114 0.12265643945511508 1.4081761362933135e-12 0.00030344921033176455
192 2 0.755243 28.8449 1.4948 2.4 0.9301521328372518 1.011741393268523e-05 0.06983759358383809 2.6623393248083667e-15 1.5616497684920055e-07
193 3 0.735127 27.2317 1.4948 -1.2 0.8393754295893749 6.743466737025906e-05 0.16054879393702162 6.278477647123233e-16 8.341806233177445e-06
194 3 7.37914 29.819 1.4948 -1.2 0.9673880783255955 0.00015175552154290733 0.032385173988841234 2.7107419109161685e-15 7.499216402073686e-05
195 3 0.0850649 29.5511 0.196716 -1.2 0.7660485662684189 0.0001059637360100436 0.23379809229478998 6.392086100287538e-14 4.7377700719140776e-05
196 3 0.0543974 29.5511 2.79288 -1.2 0.2364312862471193 4.1754299882041115e-05 0.7635072316426877 4.386589503133596e-13 1.9727809875925935e-05
197 1 6.94543 33.243 0 1.2 0.9211087422774152 5.719326312864275e-05 0.07838892916057931 1.013262732785709e-12 0.00044513529786845694
198 1 4.23267 37.9507 1.4948 1.2 0.3263078812739397 0.00015418339754512766 0.6729475127741551 2.8590733185646915e-09 0.0005904196952847809
199 2 6.02709 35.2665 1.4948 2.4 0.9985858135949642 1.9129754089553113e-05 0.0013870475275330257 7.792285145728454e-14 8.00912333007815e-06
200 3 6.09339 36.8798 1.4948 -1.2 0.5612512114483812 0.0001599909124846597 0.43838544437084853 1.5523102096892e-11 0.0002033532527572731
201 3 2.40018 34.2925 1.4948 -1.2 0.9519312617705846 0.0004168379191755546 0.04695207626961583 1.1711137874841374e-12 0.0006998240394474916
202 3 5.31645 34.5604 0.196716 -1.2 0.9892612603978546 3.2056249815781606e-05 0.010548718677452511 1.6276352742695925e-13 0.00015796467471487855
203 1 6.91449 33.243 2.9896 1.2 0.1389991874508408 1.7718934898451076e-05 0.8608660570152842 6.980860149302146e-11 0.00011703652916650456
204 3 5.291 34.5604 2.79288 -1.2 0.03991686517879082 4.5059469288769984e-05 0.9599655501143218 7.2175486234085e-11 7.252516542177258e-05
205 1 -0.471101 33.2843 4.4844 1.2 0.007987881916764729 5.75919771563464e-07 0.9920020749177308 6.356231244040698e-10 9.466610107472261e-06
206 2 -2.26307 35.9684 4.4844 2.4 0.00028687555492052866 3.000905401191585e-07 0.999710333384108 5.031079806721921e-09 2.4859393553560816e-06
207 3 -2.33122 34.3552 4.4844 -1.2 0.0001454561363140757 8.278511451861573e-08 0.9998535593436033 1.1464899438344745e-11 9.017234972625873e-07
208 3 1.36549 36.9425 4.4844 -1.2 0.00010809818092037895 2.216428790066567e-07 0.9998893099389211 8.432367787002829e-11 2.370152952335411e-06
209 3 -1.52658 36.6746 3.18632 -1.2 0.006041549717302068 2.809345868172815e-06 0.9939475657530182 1.1447100966711596e-10 8.075069339283103e-06
210 3 -1.55122 36.6746 5.78248 -1.2 8.052887900388522e-05 7.074493319252406e-09 0.9999193304905712 5.159401673969454e-11 1.3350433552318785e-07
211 1 1.882 35.6175 2.9896 1.2 0.06131936149460803 1.0958166586491747e-05 0.9386093034649168 2.6815813529026615e-10 6.0376605724150626e-05