ITEM: TIMESTEP
1200
ITEM: NUMBER OF ATOMS
10500
ITEM: BOX BOUNDS xy xz yz pp pp pp
0	15.2977	5.09925
0	118.725	0
0	89.688	0
ITEM: ATOMS id type xu yu zu q pCrystal pDisloC pSF pDisloB pDisloA
1 1 6.2404 -6.37941e-06 0 1.2 4.207240007788465e-16 2.2348444489566574e-12 0.9999997129556263 2.870128673247338e-07 2.926909681141702e-11
2 1 3.46349 4.70768 1.4948 1.2 5.346994020810859e-10 2.4973122229718393e-08 0.9999999207404673 5.351020758391515e-08 2.4150332785280394e-10
3 2 5.2885 2.02354 1.4948 2.4 2.8369364002548925e-13 4.825556439237798e-10 0.9999999827209366 1.678643373801484e-08 9.795775131100052e-12
4 3 5.33628 3.63678 1.4948 -1.2 5.266927931773074e-10 3.676021933034786e-08 0.9999999475541315 8.582580931734007e-09 6.576381328357846e-09
5 3 1.67294 1.04952 1.4948 -1.2 3.2880104569119647e-13 1.617603198831325e-09 0.9999997528684353 2.4491544798538154e-07 5.981879327573809e-10
6 3 4.59532 1.31737 0.196716 -1.2 2.276525236493955e-14 3.6343259278809736e-10 0.9999998592411387 1.3999172410364296e-07 4.0367564152704837e-10
7 1 6.18956 -6.37941e-06 2.9896 1.2 6.233369131437537e-16 7.315706875935746e-11 0.9999980403462149 1.958788845378508e-06 7.917864709371426e-10
8 3 4.55118 1.31737 2.79288 -1.2 4.944013466970833e-16 1.0513700266860808e-11 0.999998823404549 1.1765065846469911e-06 7.835480780271098e-11
9 1 -1.20682 0.0413099 4.4844 1.2 1.5929673763342614e-15 4.641857810885078e-11 0.9999804129786541 1.958660817896954e-05 3.66744151320769e-10
10 2 -3.0337 2.72544 4.4844 2.4 1.6222203104605595e-11 6.830464128951465e-08 0.9999663094034068 3.360935964507911e-05 1.2916088000659129e-08
11 3 -3.08099 1.11221 4.4844 -1.2 5.173044135876827e-15 1.8701516761894373e-10 0.9999898636097 1.0135790353458968e-05 4.1291992324097756e-10
12 3 0.582463 3.69946 4.4844 -1.2 7.484267645852214e-12 7.429056555679802e-10 0.9999954084937707 4.585172093601349e-06 5.583741870116795e-09
13 3 -2.29524 3.43162 3.18632 -1.2 1.572503621116564e-10 1.7197647193979438e-08 0.9999997038087555 2.7392641917021466e-07 4.9099238871029725e-09
14 3 -2.34216 3.43162 5.78248 -1.2 3.489190852884708e-12 1.4691857514223578e-10 0.999950327462449 4.96683600081638e-05 4.027138761796162e-09
15 1 1.12778 2.37449 2.9896 1.2 4.714288485126533e-13 1.26751629586025e-09 0.9999927117726762 7.286570835861287e-06 3.8849704148447596e-10
16 1 3.92855 2.33318 4.4844 1.2 1.5117693462995483e-14 6.360209022136467e-11 0.999935407835618 6.459150675885343e-05 5.940065167537446e-10
17 2 2.09341 4.39804 4.4844 2.4 3.0135466398243382e-12 4.869427159873669e-09 0.9999909569412649 9.037547689931303e-06 6.386078169742625e-10
18 3 2.09991 6.01128 4.4844 -1.2 3.868765938599235e-09 1.3237475754118488e-08 0.9999999582829995 1.2345290522168052e-08 1.226546651211111e-08
19 3 -4.52137 3.42402 4.4844 -1.2 3.835488081860994e-12 1.990815557067256e-09 0.9999929559184981 7.023684999531989e-06 1.840185507076372e-08
20 3 2.80834 3.69187 3.18632 -1.2 6.278786293973199e-12 9.84071522626876e-10 0.9999999093068551 8.932394239686812e-08 3.788558445524826e-10
21 1 1.17857 2.37449 0 1.2 1.5100426492307318e-14 2.94151146773779e-10 0.9999991246945534 8.747880845901529e-07 2.2319094604197267e-10
22 3 2.76143 3.69187 5.78248 -1.2 2.1962184137067447e-13 4.326441124965714e-11 0.9999801836807565 1.9814708735951814e-05 1.567021344663769e-09
23 1 -1.67381 2.41581 1.4948 1.2 1.1094655077226186e-10 2.4685404676437334e-08 0.9999983699888941 1.602035322074148e-06 3.179428707825965e-09
24 2 0.16286 0.350945 1.4948 2.4 3.137860989651577e-13 1.6607612620778802e-09 0.9999992383734111 7.597036179558287e-07 2.619029611676144e-10
25 3 0.15972 -1.26229 1.4948 -1.2 7.519635449911537e-12 1.6040332915737894e-08 0.9999998704834296 1.0858664204294284e-07 4.882079801545606e-09
26 3 6.77654 1.32496 1.4948 -1.2 1.3452910550925508e-12 4.102892437486033e-09 0.999999940275389 5.161032558928377e-08 4.010053057139181e-09
27 3 -0.508028 1.05712 0.196716 -1.2 4.420972767824977e-14 1.0449603776869496e-09 0.9999996947450183 3.032845474867929e-07 9.25430534145846e-10
28 3 -0.552171 1.05712 2.79288 -1.2 1.3817193610181408e-13 5.07583540872948e-10 0.9999966444557936 3.352448756051898e-06 2.587727444008175e-09
29 1 6.31713 4.74899 0 1.2 2.836075225111388e-10 4.562129642232375e-08 0.9999998956122821 5.7267791576970934e-08 1.2150284737353747e-09
30 1 3.54847 9.45668 1.4948 1.2 5.743804562129697e-05 4.865003425957281e-07 0.9999419249851256 4.3832006720122646e-11 1.504250737397392e-07
31 2 5.36879 6.77254 1.4948 2.4 2.7467892099381002e-06 4.934189871863753e-06 0.9999921713290318 1.5461893063008872e-10 1.4753726280164795e-07
32 3 5.41937 8.38578 1.4948 -1.2 0.001047374169497734 7.279719477882924e-05 0.9988748735774898 4.707376161062859e-13 4.955057759409749e-06
33 3 1.75158 5.79852 1.4948 -1.2 4.374815742518252e-06 7.606022893451252e-06 0.9999876500330831 7.438326712641523e-11 3.69053895133914e-07
34 3 4.67421 6.06637 0.196716 -1.2 3.70165398819397e-08 4.0100023038943244e-07 0.9999995543971634 4.8912444371603876e-11 7.537147370275762e-09
35 1 6.26654 4.74899 2.9896 1.2 3.6594040959040875e-10 1.8026810936728858e-08 0.9999995378308528 4.380589888798746e-07 5.717400144162285e-09
36 3 4.63043 6.06637 2.79288 -1.2 5.0706474409634924e-08 1.7049004889991126e-07 0.9999997498515569 1.988498960505198e-09 2.696342195738329e-08
37 1 -1.12976 4.79031 4.4844 1.2 2.366862943297116e-10 9.390698362925418e-10 0.9999978341400897 2.1636577643262604e-06 1.026387857138688e-09
38 2 -2.9517 7.47444 4.4844 2.4 9.221558611244559e-09 1.5290071167041147e-07 0.9999963894557121 3.202137215907145e-07 3.1282082915791906e-06
39 3 -3.00198 5.86121 4.4844 -1.2 3.195533576802293e-10 8.27732321906206e-10 0.9999999510852445 4.5003746899439116e-08 2.7637232607084944e-09
40 3 0.666315 8.44846 4.4844 -1.2 2.7745367865289293e-07 3.101022028826379e-07 0.9999979861091177 5.093851260360961e-10 1.4258256093307408e-06
41 3 -2.21213 8.18062 3.18632 -1.2 1.0447077941850354e-06 1.6294190659123787e-07 0.9999985603262178 4.4937726125051234e-11 2.3197913936084394e-07
42 3 -2.25864 8.18062 5.78248 -1.2 4.962095752336814e-08 7.106689697559067e-09 0.9999992454798137 1.0427175172568535e-08 6.873653703964883e-07
43 1 1.20893 7.12349 2.9896 1.2 2.413165357386977e-07 2.4363992179545744e-07 0.9999994687831152 4.948232406709289e-09 4.131219744143812e-08
44 1 4.00982 7.08218 4.4844 1.2 4.0321771733778745e-08 1.917564969401365e-08 0.999999815322542 3.809522167314501e-08 8.708481511958139e-08
45 2 2.17861 9.14704 4.4844 2.4 2.695271287819835e-06 1.6014601354123079e-06 0.9999895639908796 1.015620717725477e-08 6.129121496247543e-06
46 3 2.18828 10.7603 4.4844 -1.2 8.952359576824608e-06 1.6971661223497213e-07 0.9999897996078586 2.1408257858706646e-11 1.0782945503921308e-06
47 3 -4.43805 8.17302 4.4844 -1.2 3.904848966142348e-08 6.077000803429207e-08 0.9999992313740448 5.757820508143519e-10 6.682316714018938e-07
48 3 2.89193 8.44087 3.18632 -1.2 4.111941108306907e-06 3.594898404459074e-07 0.9999950410451849 1.5271504215249735e-10 4.873711457928883e-07
49 1 1.25915 7.12349 0 1.2 2.3483199650619767e-07 3.7208112141588664e-07 0.9999993880148875 5.398544832211118e-10 4.5321350908145015e-09
50 3 2.84547 8.44087 5.78248 -1.2 5.5906952913815755e-08 9.288494030478718e-09 0.999999489909515 5.718602488280876e-09 4.3917643406013397e-07
51 1 -1.59284 7.16481 1.4948 1.2 1.1639373104787532e-06 4.78788738933976e-07 0.99999832264929 4.847051527615431e-10 3.413995344453011e-08
52 2 0.240329 5.09994 1.4948 2.4 2.0808256499964386e-09 1.1169545615772184e-07 0.9999998820719965 4.055984514826931e-09 9.573038419622754e-11
53 3 0.234538 3.48671 1.4948 -1.2 3.36728836904696e-11 1.6374909266600934e-08 0.9999999651744537 1.5251899637736106e-08 3.1650575164218644e-09
54 3 6.85564 6.07396 1.4948 -1.2 5.924227622053112e-07 2.5520658191420384e-06 0.9999965257307749 1.5169572866050387e-10 3.2962895184285784e-07
55 3 -0.429565 5.80612 0.196716 -1.2 4.082298474319011e-09 6.03690096785711e-08 0.999999934398604 1.8835722442365915e-10 9.617337477010712e-10
56 3 -0.473377 5.80612 2.79288 -1.2 4.848830534738819e-09 1.1107017153306422e-08 0.9999999725712317 7.593513756403077e-09 3.8794138173708135e-09
57 1 6.40169 9.49799 0 1.2 4.642683188668716e-05 1.0235055362959607e-06 0.9999524554218103 1.746843697277138e-12 9.423902279169601e-08
58 1 3.64209 14.2057 1.4948 1.2 0.0002552274119098665 4.848441029052372e-07 0.9997440346127173 1.0325131892658345e-12 2.531302338883739e-07
59 2 5.45748 11.5215 1.4948 2.4 0.001547953780984621 1.5476434532411052e-05 0.9984363575920854 6.593058887070693e-14 2.121923377493007e-07
60 3 5.51101 13.1348 1.4948 -1.2 0.015402075629504308 8.20877033519334e-05 0.984509064470034 1.3027285149491701e-14 6.772197103618969e-06
61 3 1.83851 10.5475 1.4948 -1.2 0.006032958171674554 1.6299318803206535e-05 0.9939481838685651 2.9473969981375036e-14 2.5586409266508626e-06
62 3 4.7611 10.8154 0.196716 -1.2 0.0006014249588177037 8.153211259136657e-06 0.9993899885321152 6.374892603924619e-14 4.3329774207424785e-07
63 1 6.35203 9.49799 2.9896 1.2 3.994418522324156e-05 2.2126323911985645e-06 0.999956994559813 8.628002937200319e-11 8.485362921347756e-07
64 3 4.71833 10.8154 2.79288 -1.2 0.00011307294664147895 1.7055436290755583e-06 0.9998839975238488 4.439631693735734e-12 1.2239814400614976e-06
65 1 -1.0438 9.53931 4.4844 1.2 2.8614168485167667e-06 7.602308004119262e-08 0.9999965165459194 6.1371546574544775e-09 5.398769939771343e-07
66 2 -2.8604 12.2234 4.4844 2.4 5.572098203094364e-06 8.940463006960241e-07 0.9999919924734265 5.685674634766397e-10 1.5408135001487932e-06
67 3 -2.91391 10.6102 4.4844 -1.2 8.546879551330593e-06 2.2285078462395888e-07 0.9999903868821957 1.1401354178935505e-11 8.433760613597503e-07
68 3 0.7596 13.1975 4.4844 -1.2 1.536841586577982e-05 1.1156508703750531e-06 0.9999811593136855 2.1982961296578643e-11 2.3565975958534724e-06
69 3 -2.12001 12.9296 3.18632 -1.2 0.0001408332493004732 1.1812799544427485e-06 0.9998566677903415 2.735429127931542e-12 1.3176776624053783e-06
70 3 -2.16532 12.9296 5.78248 -1.2 2.8852961651388767e-05 1.2372770688768463e-07 0.9999676187228383 1.8165678269599645e-10 3.4044061458117016e-06
71 1 1.29891 11.8725 2.9896 1.2 0.00017393007215575488 1.8090051498326117e-06 0.9998226943321302 2.3002021717099257e-11 1.5665675558092236e-06
72 1 4.10033 11.8312 4.4844 1.2 3.800435255850564e-05 1.2814155222554055e-07 0.9999591555072231 1.5357758250530284e-09 2.710462896206552e-06
73 2 2.27333 13.896 4.4844 2.4 6.877433425479949e-05 1.837142894321609e-06 0.9999262395500018 2.2225677096391122e-10 3.14875058747672e-06
74 3 2.28634 15.5093 4.4844 -1.2 7.812909794651355e-05 3.868206647159129e-07 0.999920613754964 4.013391306779147e-13 8.703260193609219e-07
75 3 -4.34533 12.922 4.4844 -1.2 4.660490923419478e-06 2.219959366136673e-07 0.9999935086296233 5.616969771557951e-11 1.6088273426883801e-06
76 3 2.98455 13.1899 3.18632 -1.2 9.00828583972124e-05 1.106206397357642e-06 0.9999077390495716 4.422819585147578e-12 1.071881212265848e-06
77 1 1.34779 11.8725 0 1.2 0.00029711271033282276 1.505796506744017e-06 0.9997010354648641 9.218128924899112e-13 3.460273780540061e-07
78 3 2.93934 13.1899 5.78248 -1.2 1.7721011329509507e-05 6.254637746595007e-08 0.9999809255863767 1.231865593650882e-10 1.2907327276400058e-06
79 1 -1.50344 11.9138 1.4948 1.2 0.0002464827979986877 1.081650690751316e-06 0.9997520812073214 1.2301352560364646e-12 3.5434275665943376e-07
80 2 0.326006 9.84894 1.4948 2.4 0.00032905497285410355 5.4528337966948685e-06 0.9996654224918096 1.4514919522996516e-13 6.970139802935144e-08
81 3 0.317364 8.23571 1.4948 -1.2 0.0002973233405622426 1.0894873187980646e-05 0.99969074648474 3.0773732439053644e-12 1.035298425622254e-06
82 3 6.94307 10.823 1.4948 -1.2 0.0029668208206001818 2.6551139585096035e-05 0.9970048625240067 2.339348833045803e-14 1.7655157835004695e-06
83 3 -0.343122 10.5551 0.196716 -1.2 0.00024854301423958157 4.228476093176912e-06 0.999747005965889 1.3141670305790777e-13 2.225436507194898e-07
84 3 -0.385966 10.5551 2.79288 -1.2 7.721722930047309e-05 1.0281293739231627e-06 0.9999210129239114 1.519545643933948e-11 7.41702215404973e-07
85 1 6.49448 14.247 0 1.2 0.0007972443343394997 9.148284495535356e-07 0.9992014790233378 5.882858310313948e-14 3.6181381054594374e-07
86 1 3.74457 18.9547 1.4948 1.2 4.2734351749334596e-05 1.0846668515327993e-07 0.9999571289140655 2.1865407808956226e-13 2.826727777359542e-08
87 2 5.55495 16.2705 1.4948 2.4 0.0007294876748741221 5.508064744333195e-06 0.9992649926159545 2.2083755349594472e-15 1.1644418299176677e-08
88 3 5.6115 17.8838 1.4948 -1.2 0.005189092752535563 3.006003664869264e-05 0.9947803197723887 9.057274332211651e-16 5.274384194457932e-07
89 3 1.93416 15.2965 1.4948 -1.2 0.016165819719252232 2.7253390106619918e-05 0.9838054037620537 9.904113943163288e-16 1.5231285851682427e-06
90 3 4.85636 15.5644 0.196716 -1.2 0.004489785769234317 1.809810146189445e-05 0.9954915112493952 5.273284818773987e-15 6.048799003913222e-07
91 1 6.44662 14.247 2.9896 1.2 0.00016863806726780746 9.953292185926174e-07 0.9998296665215705 4.383015491287519e-12 7.000775663125057e-07
92 3 4.81537 15.5644 2.79288 -1.2 0.000654456433480203 5.976992009900743e-06 0.9993381542810119 3.9538622788755114e-13 1.4122931056614481e-06
93 1 -0.948271 14.2883 4.4844 1.2 2.190435577885777e-05 1.2934561087393682e-07 0.9999767925232297 5.474717624327031e-10 1.173227904752227e-06
94 2 -2.75928 16.9724 4.4844 2.4 0.00010016313204208584 1.0459781271162953e-06 0.999898488989592 1.4107010663043152e-11 3.0188613191069473e-07
95 3 -2.81617 15.3592 4.4844 -1.2 2.909802497802272e-05 2.7249002088714884e-07 0.9999698086500334 7.838155238137591e-13 8.208341775969601e-07
96 3 0.862762 17.9465 4.4844 -1.2 4.455175372664464e-05 1.1140113384345407e-06 0.9999533951664177 1.4492266239031675e-12 9.390670661346115e-07
97 3 -2.0185 17.6786 3.18632 -1.2 0.00013341968665489401 7.628922918853682e-07 0.9998656226049595 9.202155085111167e-14 1.9481600549255766e-07
98 3 -2.06164 17.6786 5.78248 -1.2 0.00012848402747631587 1.1404533578066717e-07 0.9998695117333374 7.575777334020682e-12 1.890186268657313e-06
99 1 1.39817 16.6215 2.9896 1.2 0.0002799625402559972 1.1421404487183352e-06 0.999718155546794 1.2943691340228762e-12 7.397712063745917e-07
100 1 4.20062 16.5802 4.4844 1.2 2.540669776950204e-05 5.3359125314608655e-08 0.9999740189475175 2.439084897448135e-10 5.207516750913574e-07
101 2 2.37796 18.645 4.4844 2.4 7.156641705404314e-05 4.5779435634072334e-07 0.9999278700913744 6.568000518953822e-12 1.0569064133135485e-07
102 3 2.39434 20.2583 4.4844 -1.2 0.00010521599528738384 1.9719779907942e-07 0.9998943662647829 2.3420837703533337e-14 2.2054211035363013e-07
103 3 -4.24274 17.671 4.4844 -1.2 2.4859310224518763e-05 5.03350759833872e-07 0.9999740777280699 2.18266462779353e-12 5.596087567240716e-07
104 3 3.08659 17.9389 3.18632 -1.2 0.00010311775962103802 7.883276600904407e-07 0.9998958379437622 3.3123193523225557e-13 2.559686288995463e-07
105 1 1.44478 16.6215 0 1.2 0.0007236773326702381 5.651368777287602e-07 0.9992754865705096 6.838359663721514e-14 2.7095987587984834e-07
106 3 3.0436 17.9389 5.78248 -1.2 5.089628501419996e-05 2.62593066675103e-08 0.9999487439115465 5.7908871010212095e-12 3.3353834280726346e-07
107 1 -1.40524 16.6628 1.4948 1.2 0.000787886480501179 1.1486333658689435e-06 0.99921057338938 8.23140438676413e-14 3.91496676977478e-07
108 2 0.420358 14.5979 1.4948 2.4 0.002108500336582057 1.3280649976543779e-05 0.9978781534619469 1.780742103967656e-14 6.555148248628847e-08
109 3 0.408732 12.9847 1.4948 -1.2 0.015250658919732256 6.22992898569226e-05 0.9846836045564215 1.462157158864217e-14 3.437233978594176e-06
110 3 7.03923 15.572 1.4948 -1.2 0.01580184546017245 5.868570445821583e-05 0.9841374099368149 1.5891860884087686e-15 2.0588985578898048e-06
111 3 -0.248332 15.3041 0.196716 -1.2 0.0015183403573738906 1.6214451718230608e-05 0.9984650655641882 1.406244083069631e-14 3.796267036258291e-07
112 3 -0.289436 15.3041 2.79288 -1.2 0.0008253582621873857 6.641053462487077e-06 0.999166445986273 6.571876928986307e-13 1.5546974227758372e-06
113 1 6.59566 18.996 0 1.2 0.0003550530515855714 1.716994674199837e-07 0.9996446980283422 5.0944455405543576e-15 7.722059888282324e-08
114 1 3.85574 23.7037 1.4948 1.2 0.0013417539218347743 8.195977028733782e-07 0.9986570651258553 1.5642863229303968e-13 3.613544495028019e-07
115 2 5.66125 21.0195 1.4948 2.4 0.0016428839867888465 3.047946624369123e-06 0.9983540649036606 9.246337712066745e-16 3.162932036162375e-09
116 3 5.72074 22.6328 1.4948 -1.2 0.03352584012708959 5.9343229708153734e-05 0.9664136067945969 7.820477701035568e-16 1.2098486064972037e-06
117 3 2.03867 20.0455 1.4948 -1.2 0.018407877757815848 2.4844543370200032e-05 0.9815665512931954 9.665564038023558e-17 7.264056142966472e-07
118 3 4.96004 20.3134 0.196716 -1.2 0.004839431930654186 7.387661801607742e-06 0.995152965525876 7.104091603891518e-16 2.1488167309201124e-07
119 1 6.55057 18.996 2.9896 1.2 8.114203391584941e-05 2.880114020060603e-07 0.9999184609569352 2.1340837311841146e-13 1.0899753786168232e-07
120 3 4.92172 20.3134 2.79288 -1.2 0.0003612332312908438 2.7328393197860075e-06 0.9996357758224281 5.774708023951126e-14 2.5810690388436705e-07
121 1 -0.84282 19.0373 4.4844 1.2 1.9284494146813678e-05 7.114577041756932e-08 0.9999803633214873 3.9056726920816775e-11 2.80999536181795e-07
122 2 -2.64823 21.7214 4.4844 2.4 0.00013838509688330795 3.253680744242468e-07 0.9998612557671931 1.634398618232615e-12 3.3766216048477564e-08
123 3 -2.70847 20.1082 4.4844 -1.2 3.120006919897027e-05 1.2067962402904818e-07 0.9999685670545794 3.74290234142858e-14 1.1219656224987733e-07
124 3 0.97581 22.6955 4.4844 -1.2 0.0002558490432559143 1.5531698076046632e-06 0.9997417222875153 3.074813964311679e-13 8.7549911284396e-07
125 3 -1.9076 22.4276 3.18632 -1.2 0.0005421512529809455 6.591768964705274e-07 0.9994570704447181 1.591400227506988e-14 1.1912538919136156e-07
126 3 -1.9475 22.4276 5.78248 -1.2 0.0002701019778344295 6.13027648868729e-08 0.9997293478660522 5.930480955248702e-13 4.888527521855107e-07
127 1 1.50678 21.3705 2.9896 1.2 0.00027302417189646 4.3807668920533833e-07 0.9997262875570886 1.6791365802676452e-13 2.50194150900041e-07
128 1 4.31086 21.3292 4.4844 1.2 1.7005565900517792e-05 1.1247770569974562e-08 0.9999829400506889 1.6453175029804012e-11 4.3119184546013826e-08
129 2 2.49243 23.394 4.4844 2.4 0.000276403363465042 4.3756566853676e-07 0.9997231009963558 3.6431173135036625e-12 5.807086327380002e-08
130 3 2.51204 25.0073 4.4844 -1.2 0.00015193588640719126 1.3354131760620613e-07 0.999847661788539 3.916539470933088e-14 2.687836908532796e-07
131 3 -4.13026 22.42 4.4844 -1.2 7.117110630223282e-05 4.406672945239899e-07 0.9999282237605985 2.354134499301648e-13 1.6446557186950263e-07
132 3 3.19799 22.6879 3.18632 -1.2 0.000461163402288845 1.2290726321326937e-06 0.9995374298216957 2.737899770120925e-14 1.777033614653326e-07
133 1 1.5501 21.3705 0 1.2 0.0015135329329319515 5.315037339085609e-07 0.9984856329729183 1.31340062488805e-14 3.025904087938266e-07
134 3 3.1583 22.6879 5.78248 -1.2 9.755559409950078e-05 1.4629791775655526e-08 0.9999022916041531 1.464102584262365e-12 1.3817049687017015e-07
135 1 -1.29822 21.4118 1.4948 1.2 0.0008174228281382949 6.334763697113715e-07 0.9991817753468419 1.0269272151704517e-14 1.6834864466622617e-07
136 2 0.523568 19.3469 1.4948 2.4 0.0004949450268379474 2.7187150153370842e-06 0.9995023344854502 1.5531943333525751e-15 1.7727006544481775e-09
137 3 0.508934 17.7337 1.4948 -1.2 0.0038938590385148883 3.178425957208174e-05 0.9960739521685722 1.3697398099443505e-15 4.045333351721922e-07
138 3 7.14425 20.321 1.4948 -1.2 0.012572374700065636 4.0533972026191355e-05 0.9873865727716225 9.411001039549145e-17 5.185562873214714e-07
139 3 -0.145107 20.0531 0.196716 -1.2 0.0018335276884884756 9.424125103618047e-06 0.9981569270427382 1.4127468300545575e-15 1.2114366678219464e-07
140 3 -0.183601 20.0531 2.79288 -1.2 0.0014697298849684149 7.903596990129568e-06 0.9985218254125849 4.3269616804163356e-14 5.411054069631241e-07
141 1 6.70502 23.745 0 1.2 0.0142551600161923 2.5632396992665697e-06 0.9857400602745623 6.2454078420402036e-15 2.21646953899088e-06
142 1 3.97493 28.4527 1.4948 1.2 0.2814834386211334 2.5675059063257026e-05 0.7184427250206401 1.911940808709315e-12 4.816129725535006e-05
143 2 5.77602 25.7685 1.4948 2.4 0.429086327483178 3.9558838906073714e-05 0.5708738775709988 4.507220088889961e-15 2.361069092424288e-07
144 3 5.83821 27.3818 1.4948 -1.2 0.8129705869074259 8.885286241895378e-05 0.1869230057873397 1.5575544481153003e-15 1.7554442808748902e-05
145 3 2.15175 24.7945 1.4948 -1.2 0.8186029021230747 0.0001891567116112707 0.18119375611765332 7.33465246227879e-17 1.4185047666306912e-05
146 3 5.07184 25.0624 0.196716 -1.2 0.4952162640335586 6.728434621748707e-05 0.5047034317846505 2.9698799787233013e-15 1.30198355644632e-05
147 1 6.66374 23.745 2.9896 1.2 0.000980955430803907 7.30285234597737e-07 0.9990179117439627 9.312529245672688e-14 4.0253990113196267e-07
148 3 5.03707 25.0624 2.79288 -1.2 0.0052498551666195 9.870806815741661e-06 0.9947384190598612 1.0663253328754818e-13 1.8549665924420148e-06
149 1 -0.727559 23.7863 4.4844 1.2 7.294982280229493e-05 1.0276708688345333e-07 0.9999266671182121 9.455773156479312e-12 2.802824439896498e-07
150 2 -2.5277 26.4704 4.4844 2.4 0.0015171943098158482 3.5842452696084115e-07 0.9984823411012375 2.0202176041692394e-12 1.0616240575046985e-07
151 3 -2.59107 24.8572 4.4844 -1.2 0.00013540075043552748 1.9197669146426166e-07 0.9998641664794644 2.1631749372541695e-14 2.40793387805085e-07
152 3 1.09817 27.4445 4.4844 -1.2 0.0053177465199894455 3.957581233752262e-06 0.9946716144066403 1.1067860368512179e-12 6.681491025703698e-06
153 3 -1.78784 27.1766 3.18632 -1.2 0.0038814695749370765 1.1361098055693536e-06 0.9961166593703037 1.2377481126451204e-13 7.349448320906197e-07
154 3 -1.82343 27.1766 5.78248 -1.2 0.0011591438664249353 6.642616794580559e-08 0.9988402616409527 7.218956676963424e-13 5.280657320470805e-07
155 1 1.62435 26.1195 2.9896 1.2 0.010453889497188128 1.9365798982960494e-06 0.9895414086826987 2.5602214454316865e-13 2.7652399609791014e-06
156 1 4.43064 26.0782 4.4844 1.2 0.00018346763887332714 3.154542175003145e-08 0.9998163623827867 1.077407797997333e-11 1.384221431650046e-07
157 2 2.61607 28.143 4.4844 2.4 0.002637602004425528 6.521405177809304e-07 0.997361355947195 2.2245509771506042e-11 3.8988561317382723e-07
158 3 2.63853 29.7563 4.4844 -1.2 0.00038367128525388023 9.97207303154826e-08 0.999615252586424 5.662003315462445e-13 9.764070300528222e-07
159 3 -4.00841 27.169 4.4844 -1.2 0.0010990912480472713 8.316586195008531e-07 0.9988992347035492 2.6015048583211953e-13 8.423895248081579e-07
160 3 3.3182 27.4369 3.18632 -1.2 0.015746935823934907 4.489451823439524e-06 0.9842448727912564 1.7114131822167422e-13 3.701932811063774e-06
161 1 1.66335 26.1195 0 1.2 0.1664280089647275 1.696936159933457e-05 0.8335348797992196 2.910707563704554e-14 2.014187442240306e-05
162 3 3.28288 27.4369 5.78248 -1.2 0.00025240898310725915 1.3400869956187438e-08 0.9997474342675147 1.7357370179488739e-12 1.4334677472515911e-07
163 1 -1.18278 26.1608 1.4948 1.2 0.12753289378480615 1.7473369208035367e-05 0.872434511433592 7.622766902828618e-14 1.512141231328663e-05
164 2 0.635424 24.0959 1.4948 2.4 0.01139287621902123 4.4988850526815005e-06 0.9886026196407504 1.9463756187779743e-15 5.255168129339132e-09
165 3 0.617906 22.4827 1.4948 -1.2 0.018470037650538864 3.369987552256465e-05 0.9814957715648822 5.27894712184387e-16 4.90909053686222e-07
166 3 7.25781 25.07 1.4948 -1.2 0.5510805489040601 0.00021976233180369043 0.4486877148809978 2.073060163711641e-16 1.1973883131179641e-05
167 3 -0.0337363 24.8021 0.196716 -1.2 0.13111220373913018 5.417132339280455e-05 0.8688302013542041 2.1283260206701673e-15 3.42358326660093e-06
168 3 -0.0687235 24.8021 2.79288 -1.2 0.008185338912025896 1.3047919530955221e-05 0.9918001831845339 6.980800623783013e-14 1.4299838434120381e-06
169 1 6.82195 28.494 0 1.2 0.5950754444884644 3.697644140847008e-05 0.40478646479505087 8.056172727101774e-14 0.00010111427499705427
170 1 4.10106 33.2017 1.4948 1.2 0.7761997878186803 0.00019544880694373544 0.22273575904321008 1.477974883614117e-10 0.0008690041833676016
171 2 5.89839 30.5175 1.4948 2.4 0.9934343923340437 1.0821576380814008e-05 0.006553976931915839 3.6319223632786105e-15 8.091576547631262e-07
172 3 5.96289 32.1308 1.4948 -1.2 0.9372515049496469 6.768642860324865e-05 0.06261656285309374 7.421473521659328e-14 6.42457685846896e-05
173 3 2.27266 29.5435 1.4948 -1.2 0.9892265805139516 9.407789055998551e-05 0.01061450698131918 1.2354012783195005e-15 6.48346141635406e-05
174 3 5.19102 29.8114 0.196716 -1.2 0.9829654495184764 1.4640538835199145e-05 0.016992915769166648 2.864486597278056e-15 2.699417351492444e-05
175 1 6.78546 28.494 2.9896 1.2 0.03755111723634733 5.391812279902351e-06 0.9624307535863129 1.290514726553005e-12 1.2737363776130804e-05
176 3 5.16061 29.8114 2.79288 -1.2 0.08941099755756542 3.284183739636407e-05 0.9105331491210841 1.6230550564112806e-12 2.3011482333641435e-05
177 1 -0.603205 28.5353 4.4844 1.2 0.0008872623931520005 1.8334838619007004e-07 0.999110924972006 4.4036720851648315e-11 1.629242413060763e-06
178 2 -2.39877 31.2194 4.4844 2.4 0.003717226788621547 8.2824607493108e-07 0.9962805418384185 8.829244606511341e-11 1.4030385948599106e-06
179 3 -2.46483 29.6062 4.4844 -1.2 0.00018246270246063525 1.0800588281286662e-07 0.9998169385682384 5.271911659808233e-13 4.907228856713486e-07
180 3 1.22864 32.1935 4.4844 -1.2 0.004270475172473266 2.7602346705610683e-06 0.9957095334321264 1.618608792776966e-11 1.7231144545123102e-05
181 3 -1.66032 31.9256 3.18632 -1.2 0.017502371329951825 3.3879833864580484e-06 0.9824880555063312 4.512542111632527e-12 6.185175820518412e-06
182 3 -1.69072 31.9256 5.78248 -1.2 0.0007421603157897011 4.211621304904628e-08 0.999257103644003 7.590946317920585e-12 6.939164041749105e-07
183 1 1.7499 30.8685 2.9896 1.2 0.13617195683664235 1.2557653172189992e-05 0.863756127320404 8.455222934791306e-12 5.9358181324145026e-05
184 1 4.55894 30.8272 4.4844 1.2 0.0018816895147325758 5.772765251956565e-08 0.9981172667431252 1.309439193985334e-10 9.858835487161536e-07
185 2 2.7476 32.892 4.4844 2.4 0.0033383826869650547 6.874124911002224e-07 0.9966590938430305 4.175097250190142e-10 1.8356400019481591e-06
186 3 2.77235 34.5053 4.4844 -1.2 0.00010237310865868339 4.118608308802134e-08 0.9998967082965764 1.1443701198509917e-11 8.77397234871255e-07
187 3 -3.87837 31.918 4.4844 -1.2 0.00107968430550005 6.647002263200944e-07 0.9989160170710379 8.395400509741739e-12 3.6339148450312432e-06
188 3 3.44611 32.1859 3.18632 -1.2 0.05449953422048948 9.80056174209612e-06 0.9454663788525197 1.1449762128695467e-11 2.428635379500197e-05
189 1 1.7837 30.8685 0 1.2 0.9040625490846168 5.665250865511056e-05 0.09552237205356164 2.061496291380505e-13 0.0003584263529636063
190 3 3.41602 32.1859 5.78248 -1.2 0.00018057912887561541 1.2215789858912388e-08 0.9998191740929714 1.6242098845928916e-11 2.3454612771636774e-07
191 1 -1.05984 30.9098 1.4948 1.2 0.9116202301161306 9.420797899607255e-05 0.08801765128649651 9.065666987717504e-13 0.00026791061746336023
192 2 0.755243 28.8449 1.4948 2.4 0.9630954783567577 7.979588233058886e-06 0.03689637895394485 1.8514515220250804e-15 1.6310105627307002e-07
193 3 0.735127 27.2317 1.4948 -1.2 0.8618297110148166 7.050746469495055e-05 0.13808985553574468 8.093021994826717e-16 9.92598474337421e-06
194 3 7.37914 29.819 1.4948 -1.2 0.9753731023625369 0.00015357412391875055 0.0243930545928185 2.4913785843999965e-15 8.02689207183367e-05
195 3 0.0850649 29.5511 0.196716 -1.2 0.8641820771078245 8.569224084105766e-05 0.13568300899121255 3.826105461209804e-14 4.9221660084902246e-05
196 3 0.0543974 29.5511 2.79288 -1.2 0.22916235289592887 6.733427003848132e-05 0.7707384615086917 8.325795128867733e-13 3.1851324505121806e-05
197 1 6.94543 33.243 0 1.2 0.9339024065878689 4.8086509364725325e-05 0.06557728795537836 1.0545479483050221e-12 0.00047221894633482934
198 1 4.23267 37.9507 1.4948 1.2 0.3802732278494529 0.00013904031214829928 0.6190246844019476 2.487578841628529e-09 0.0005630449488733429
199 2 6.02709 35.2665 1.4948 2.4 0.997716099815122 2.1111084093626443e-05 0.0022552427015182764 9.563727343201188e-14 7.5463991689436945e-06
200 3 6.09339 36.8798 1.4948 -1.2 0.6099802109073607 0.00014980498776048548 0.38967209413377996 1.5076851108792865e-11 0.00019788995602774162
201 3 2.40018 34.2925 1.4948 -1.2 0.9389357582265531 0.00046196764766907205 0.05984209419941824 1.7589673765036785e-12 0.0007601799246012498
202 3 5.31645 34.5604 0.196716 -1.2 0.9879757326353692 3.0290822386716444e-05 0.011833013239330366 1.543593242138827e-13 0.00016096330276045006
203 1 6.91449 33.243 2.9896 1.2 0.11700408662627919 1.5628057121226105e-05 0.8828680163231618 8.619011277670224e-11 0.00011226890724349327
204 3 5.291 34.5604 2.79288 -1.2 0.03295847410206014 3.18206263866455e-05 0.9669566079192703 6.478440413668191e-11 5.309728749653688e-05
205 1 -0.471101 33.2843 4.4844 1.2 0.007519505718917056 6.671017583120718e-07 0.9924683094978578 8.024825237419081e-10 1.1516878986359008e-05
206 2 -2.26307 35.9684 4.4844 2.4 0.00032763932221002235 2.9746660766529864e-07 0.9996693913879963 4.532309618908238e-09 2.6672908829541784e-06
207 3 -2.33122 34.3552 4.4844 -1.2 0.0001404188038514671 7.473117056947234e-08 0.9998586721985837 9.618422153234192e-12 8.342567727389047e-07
208 3 1.36549 36.9425 4.4844 -1.2 0.00011578131855685621 2.65928015024836e-07 0.9998810221113709 1.242153633108026e-10 2.930517842266064e-06
209 3 -1.52658 36.6746 3.18632 -1.2 0.006567128769618003 2.873492129515128e-06 0.9934215140759787 1.0263789340329461e-10 8.483559636391604e-06
210 3 -1.55122 36.6746 5.78248 -1.2 6.777184825469957e-05 6.972013820236082e-09 0.9999320202291404 6.027790724704637e-11 2.0089030885423426e-07
211 1 1.882 35.6175 2.9896 1.2 0.05334933617753725 1.2003172027551394e-05 0.9465752922553752 2.8905373880701325e-10 6.336810601287934e-05