ITEM: TIMESTEP
600
ITEM: NUMBER OF ATOMS
10500
ITEM: BOX BOUNDS xy xz yz pp pp pp
0	15.2974	5.099
0	118.725	0
0	89.688	0
ITEM: ATOMS id type xu yu zu q pCrystal pDisloC pDisloB pDisloA
1 1 6.2404 -6.37941e-06 0 1.2 8.554942709552281e-21 1.2157904822941228e-09 0.9999999980656895 7.185196829606963e-10
2 1 3.46349 4.70768 1.4948 1.2 1.0490365693617771e-06 0.028997200002934577 0.47475618334490066 0.49624556761559674
3 2 5.2885 2.02354 1.4948 2.4 6.091427769377905e-06 0.9799398775861389 0.0029034597871877674 0.01715057119890638
4 3 5.33628 3.63678 1.4948 -1.2 1.0881622628070082e-10 0.9999762152558505 2.3760733326958476e-05 2.390200651182779e-08
5 3 1.67294 1.04952 1.4948 -1.2 4.277915347935102e-17 0.8005539235068809 0.19944607192967573 4.563440550267527e-09
6 3 4.59532 1.31737 0.196716 -1.2 5.44501987011012e-18 0.6282077972583957 0.3717922025436086 1.9799700874690001e-10
7 1 6.18956 -6.37941e-06 2.9896 1.2 1.6829302066275272e-24 2.334147852479447e-09 0.9999999975550935 1.1075702302617687e-10
8 3 4.55118 1.31737 2.79288 -1.2 1.9431841190442652e-21 0.019269004431509272 0.9807309955621576 6.3369264546587625e-12
9 1 -1.20682 0.0413099 4.4844 1.2 1.804011897034242e-27 7.780262283703199e-11 0.9999999998854605 3.6735759622891443e-11
10 2 -3.0337 2.72544 4.4844 2.4 1.83933130438926e-07 0.9924598397102085 0.0008578060532990787 0.006682170303361711
11 3 -3.08099 1.11221 4.4844 -1.2 2.92634506858345e-23 0.03694377274545321 0.9630562272383288 1.6211500881659695e-11
12 3 0.582463 3.69946 4.4844 -1.2 1.195305432541104e-14 0.9938372074163165 0.006162787179554485 5.404118935549735e-09
13 3 -2.29524 3.43162 3.18632 -1.2 1.0547862303246849e-13 0.999610718720829 0.00038927760579686725 3.6732641243009847e-09
14 3 -2.34216 3.43162 5.78248 -1.2 1.466764002753102e-17 0.9425247740698728 0.05747522564879717 2.8133124336196004e-10
15 1 1.12778 2.37449 2.9896 1.2 4.370452425704568e-18 7.696862954822598e-07 0.9999985587713679 6.715423427156103e-07
16 1 3.92855 2.33318 4.4844 1.2 1.0543455183809531e-21 3.6125352352597103e-09 0.9999991904403212 8.05947149310901e-07
17 2 2.09341 4.39804 4.4844 2.4 0.5892538351625777 0.4106384415423794 0.00010746033529834675 2.629597424864013e-07
18 3 2.09991 6.01128 4.4844 -1.2 1.0651829362811881e-07 0.9999977711739771 2.077793009361956e-06 4.4514718571238604e-08
19 3 -4.52137 3.42402 4.4844 -1.2 4.6789288563815283e-17 0.9316972715978091 0.06830272762917142 7.730219308566048e-10
20 3 2.80834 3.69187 3.18632 -1.2 2.3995506801341578e-14 0.9987841109761124 0.001215887305830158 1.718027408426375e-09
21 1 1.17857 2.37449 0 1.2 2.605937238917332e-17 1.3539717801480336e-06 0.9999984260139906 2.2001422651882356e-07
22 3 2.76143 3.69187 5.78248 -1.2 1.2152549923678041e-17 0.9678704409343688 0.032129558925289535 1.4034233991436908e-10
23 1 -1.67381 2.41581 1.4948 1.2 1.4057593139155411e-11 0.0004322796781775986 0.9994150955699665 0.00015262473779212524
24 2 0.16286 0.350945 1.4948 2.4 2.2070522259631576e-08 0.7798360385641123 0.08078821111557573 0.13937572824978775
25 3 0.15972 -1.26229 1.4948 -1.2 2.218050495581015e-15 0.9193408798822212 0.08065906628570489 5.383207584831451e-08
26 3 6.77654 1.32496 1.4948 -1.2 5.600640910706617e-15 0.9811064762219269 0.018893513618223307 1.015984787862486e-08
27 3 -0.508028 1.05712 0.196716 -1.2 2.530025904851964e-18 0.2432353220089347 0.7567646774594771 5.315930597811122e-10
28 3 -0.552171 1.05712 2.79288 -1.2 6.96079493355079e-21 0.10653705261158658 0.8934629471897703 1.9864377487007814e-10
29 1 6.31713 4.74899 0 1.2 4.4968433510383464e-07 0.0654584396280184 0.7267394891943483 0.2078016214933049
30 1 3.54847 9.45668 1.4948 1.2 0.9205361510930892 0.07904129254993243 2.2940088877425067e-15 0.0004225563569827737
31 2 5.36879 6.77254 1.4948 2.4 0.9999999986442987 1.3556986694980772e-09 1.3203855138800807e-24 3.2976084464285352e-21
32 3 5.41937 8.38578 1.4948 -1.2 0.9810589269075327 0.018941047244321045 1.1341355794973077e-17 2.584815187081972e-08
33 3 1.75158 5.79852 1.4948 -1.2 0.0028930025991554076 0.9971059759403078 1.898586202131504e-11 1.021441550017103e-06
34 3 4.67421 6.06637 0.196716 -1.2 2.290434537915564e-05 0.999977071303229 8.308168148565803e-09 1.6043216682445462e-08
35 1 6.26654 4.74899 2.9896 1.2 6.332755155061856e-09 0.00036588622809621005 0.0544060402042982 0.9452280672348545
36 3 4.63043 6.06637 2.79288 -1.2 2.3605482825984094e-06 0.9999974773107271 7.520698975178589e-08 8.693400481378748e-08
37 1 -1.12976 4.79031 4.4844 1.2 3.3725155862395843e-09 2.7713951500322492e-05 0.9059288393995681 0.09404344327642294
38 2 -2.9517 7.47444 4.4844 2.4 0.9999999997778275 2.221669619661457e-10 3.629617694504289e-19 2.5559500707633428e-21
39 3 -3.00198 5.86121 4.4844 -1.2 7.053826364670519e-10 0.999976770293379 2.3226206192975303e-05 2.7950385088827843e-09
40 3 0.666315 8.44846 4.4844 -1.2 0.0018542820217701205 0.998145670202153 3.3162460392633094e-09 4.445983200313023e-08
41 3 -2.21213 8.18062 3.18632 -1.2 0.022891567302860277 0.9771083722699342 1.4007285336590492e-10 6.028712998348529e-08
42 3 -2.25864 8.18062 5.78248 -1.2 0.00021744292180245512 0.9997825019396969 3.743252611198613e-08 1.7705978991852218e-08
43 1 1.20893 7.12349 2.9896 1.2 0.050617611715845084 0.2737600894071795 7.070158107869287e-07 0.6756215918611685
44 1 4.00982 7.08218 4.4844 1.2 0.004222488002129866 0.009643749314299585 0.00016626019624412314 0.9859675024873309
45 2 2.17861 9.14704 4.4844 2.4 1.0 8.521253482210354e-16 3.06808621538364e-28 2.4859499274903783e-31
46 3 2.18828 10.7603 4.4844 -1.2 0.6693223760334323 0.3306775911137543 5.111031460264734e-13 3.2852295476302707e-08
47 3 -4.43805 8.17302 4.4844 -1.2 0.0002868876362468824 0.9997129248756522 8.415590723081182e-08 1.0333219286707542e-07
48 3 2.89193 8.44087 3.18632 -1.2 0.04171203029957939 0.9582877664976062 7.005298774104922e-11 2.0313275819503153e-07
49 1 1.25915 7.12349 0 1.2 0.23548324773287257 0.7350160988957892 2.7200426366056662e-08 0.029500626170911103
50 3 2.84547 8.44087 5.78248 -1.2 0.000569691415061508 0.999430260124059 1.4331224306227594e-08 3.412965396715129e-08
51 1 -1.59284 7.16481 1.4948 1.2 0.26565353276637865 0.7115994556652062 8.352499695955239e-10 0.022747010733163348
52 2 0.240329 5.09994 1.4948 2.4 0.9999399822845819 6.00177148424681e-05 2.0855072931465295e-16 5.780775636594373e-13
53 3 0.234538 3.48671 1.4948 -1.2 7.725771252195372e-12 0.9999206066221928 7.935215197430128e-05 4.121810853275017e-08
54 3 6.85564 6.07396 1.4948 -1.2 2.5468328752180895e-05 0.9999743881055602 2.1728960920243756e-09 1.413927896713235e-07
55 3 -0.429565 5.80612 0.196716 -1.2 5.624222938583114e-06 0.999994345765584 2.4131851554032928e-08 5.879624010972788e-09
56 3 -0.473377 5.80612 2.79288 -1.2 5.551998120228697e-08 0.9999983780311021 1.560218154239716e-06 6.230756153347266e-09
57 1 6.40169 9.49799 0 1.2 0.9682463391287728 0.031751472156084516 6.301248643265657e-17 2.1887151453894582e-06
58 1 3.64209 14.2057 1.4948 1.2 0.9781829156046078 0.021814540604614827 2.6827618099073862e-19 2.5437907786417404e-06
59 2 5.45748 11.5215 1.4948 2.4 0.9999999999999858 1.89957902775472e-14 1.742490649446468e-37 1.7675971086492115e-33
60 3 5.51101 13.1348 1.4948 -1.2 0.9994952748727897 0.0005047242867716697 4.342996579621667e-23 8.404323204300441e-10
61 3 1.83851 10.5475 1.4948 -1.2 0.9994551175633163 0.0005448811125350294 1.2170122116578519e-21 1.324145559227191e-09
62 3 4.7611 10.8154 0.196716 -1.2 0.9932530414641131 0.006746957002868621 1.7398634227313605e-18 1.53301254654815e-09
63 1 6.35203 9.49799 2.9896 1.2 0.8425748824043798 0.15278863509221788 4.678008618729428e-14 0.004636482503352862
64 3 4.71833 10.8154 2.79288 -1.2 0.9527518184423728 0.04724815168677104 2.411970048103183e-15 2.9870847706110485e-08
65 1 -1.0438 9.53931 4.4844 1.2 0.6884359038928062 0.05071916333805113 3.067987784632012e-08 0.2608449020892582
66 2 -2.8604 12.2234 4.4844 2.4 1.0 3.265057647684582e-17 3.5935493292891566e-32 3.290921424376623e-34
67 3 -2.91391 10.6102 4.4844 -1.2 0.7338935476534099 0.26610637531187914 1.9761657433217958e-13 7.703450622735883e-08
68 3 0.7596 13.1975 4.4844 -1.2 0.4700211359370789 0.529978790745161 1.0059983992526729e-12 7.331675075137089e-08
69 3 -2.12001 12.9296 3.18632 -1.2 0.9780860885732279 0.021913907404342913 2.9818984753175737e-16 4.022431935124841e-09
70 3 -2.16532 12.9296 5.78248 -1.2 0.7030661398833223 0.2969338486304926 1.16794279654145e-13 1.1486066084687933e-08
71 1 1.29891 11.8725 2.9896 1.2 0.9604955688207634 0.03885397009021107 9.87431892684262e-16 0.000650461089029751
72 1 4.10033 11.8312 4.4844 1.2 0.9328204132189964 0.024676586838106553 2.075324276968532e-12 0.04250299994082501
73 2 2.27333 13.896 4.4844 2.4 1.0 9.388847252849653e-18 8.369793915164038e-34 5.703446050896901e-36
74 3 2.28634 15.5093 4.4844 -1.2 0.9780807093255818 0.02191928681523382 2.0136979992730565e-16 3.8591779135208805e-09
75 3 -4.34533 12.922 4.4844 -1.2 0.2768398747784052 0.7231600068528168 4.97320696150838e-12 1.1836380029209372e-07
76 3 2.98455 13.1899 3.18632 -1.2 0.9279306667951017 0.07206932668082089 1.1333797692218777e-14 6.524067172575231e-09
77 1 1.34779 11.8725 0 1.2 0.9795531355283756 0.02044546790083745 7.409618722939141e-19 1.3965707855561838e-06
78 3 2.93934 13.1899 5.78248 -1.2 0.5933617467587826 0.40663824107528884 2.687483234806749e-13 1.216566587751775e-08
79 1 -1.50344 11.9138 1.4948 1.2 0.9753388545921836 0.02465618213737445 4.1011024232387205e-19 4.963270437646397e-06
80 2 0.326006 9.84894 1.4948 2.4 0.999999999999929 7.503750203798491e-14 1.689961141428292e-35 1.2325602615549759e-31
81 3 0.317364 8.23571 1.4948 -1.2 0.9154396024046837 0.08456025061043008 1.1784422803932898e-16 1.4698488155324566e-07
82 3 6.94307 10.823 1.4948 -1.2 0.9988465091091989 0.0011534901531447333 4.0834586227356606e-21 7.376620128461097e-10
83 3 -0.343122 10.5551 0.196716 -1.2 0.9900151266292971 0.009984871816871466 5.734322229569797e-18 1.5538309259808926e-09
84 3 -0.385966 10.5551 2.79288 -1.2 0.9069150524357219 0.09308493621734584 3.5970708899803976e-14 1.1346901694560785e-08
85 1 6.49448 14.247 0 1.2 0.9851980792775853 0.014801892714627526 2.2900055945783276e-21 2.8007780895102095e-08
86 1 3.74457 18.9547 1.4948 1.2 0.9612002249181617 0.03879547191737373 1.080661544973623e-18 4.30316446681809e-06
87 2 5.55495 16.2705 1.4948 2.4 0.9999999999998863 1.0732760976315786e-13 4.3172140878098887e-38 5.8148886983900165e-33
88 3 5.6115 17.8838 1.4948 -1.2 0.9979158520420329 0.002084147396727264 2.677646430666511e-22 5.612437935430968e-10
89 3 1.93416 15.2965 1.4948 -1.2 0.9997169290368603 0.00028307087566611987 1.738307179689224e-23 8.74768981503838e-11
90 3 4.85636 15.5644 0.196716 -1.2 0.9956960752970024 0.004303923700827575 2.9127002527128407e-20 1.0021642994867614e-09
91 1 6.44662 14.247 2.9896 1.2 0.9550575255814289 0.04474686396142778 3.095169163229503e-17 0.0001956104571461174
92 3 4.81537 15.5644 2.79288 -1.2 0.98862538042374 0.011374616857309743 2.6939762945468212e-17 2.7189549618865787e-09
93 1 -0.948271 14.2883 4.4844 1.2 0.9536582403700681 0.025998894210767516 1.0967639503133523e-12 0.02034286541806572
94 2 -2.75928 16.9724 4.4844 2.4 1.0 2.758056634176869e-19 2.6690320394793947e-36 1.8308941502732745e-36
95 3 -2.81617 15.3592 4.4844 -1.2 0.9641065620965749 0.03589342276921945 4.871181204270833e-16 1.5134207635091895e-08
96 3 0.862762 17.9465 4.4844 -1.2 0.735075247282461 0.26492473512449766 9.039357726569055e-15 1.759303448034125e-08
97 3 -2.0185 17.6786 3.18632 -1.2 0.9729810399837225 0.027018959327530585 1.5119041026831543e-16 6.887395424271262e-10
98 3 -2.06164 17.6786 5.78248 -1.2 0.9734230280381585 0.02657697016157982 3.9789311081314917e-17 1.800255704730413e-09
99 1 1.39817 16.6215 2.9896 1.2 0.95459471402516 0.04529776630329433 5.020726125682728e-18 0.00010751967154582611
100 1 4.20062 16.5802 4.4844 1.2 0.9672263009779076 0.01924906474033802 3.3609791274722813e-12 0.013524634278390011
101 2 2.37796 18.645 4.4844 2.4 1.0 1.2346350197124893e-20 3.071578071768553e-37 6.172959411126726e-39
102 3 2.39434 20.2583 4.4844 -1.2 0.9620164386156553 0.03798356073862839 1.7064453771501794e-16 6.457179778510499e-10
103 3 -4.24274 17.671 4.4844 -1.2 0.6365166292280502 0.3634833545506685 4.0600269256754075e-14 1.6221235519442156e-08
104 3 3.08659 17.9389 3.18632 -1.2 0.9433941057946371 0.05660589302335983 1.2295590924667236e-15 1.1819995275513184e-09
105 1 1.44478 16.6215 0 1.2 0.9591172114542617 0.04088242693293152 7.149457198091546e-21 3.6161280901463524e-07
106 3 3.0436 17.9389 5.78248 -1.2 0.8217019096341333 0.17829808750355358 5.494191858398768e-15 2.8623085572244314e-09
107 1 -1.40524 16.6628 1.4948 1.2 0.9725982054547209 0.027401063619128554 1.2822066685736629e-20 7.309261462963408e-07
108 2 0.420358 14.5979 1.4948 2.4 0.9999999999999432 5.95460793803776e-14 2.6183052780537772e-37 3.2864148601694585e-33
109 3 0.408732 12.9847 1.4948 -1.2 0.9991241631241299 0.0008758365492765242 3.0439584013795607e-22 3.2659862682401805e-10
110 3 7.03923 15.572 1.4948 -1.2 0.9992505894401765 0.0007494103243481888 1.9300749970896676e-22 2.35478683420675e-10
111 3 -0.248332 15.3041 0.196716 -1.2 0.992393513634839 0.007606484774419975 7.93473807191679e-20 1.5907478491007952e-09
112 3 -0.289436 15.3041 2.79288 -1.2 0.9892716450096081 0.010728351022169303 9.593380212424844e-18 3.968222975277414e-09
113 1 6.59566 18.996 0 1.2 0.9529339034459926 0.04706603818806213 9.692001625722024e-21 5.836594088843262e-08
114 1 3.85574 23.7037 1.4948 1.2 0.9708182050283547 0.02918166412917544 4.1961761627690463e-20 1.308424651287994e-07
115 2 5.66125 21.0195 1.4948 2.4 1.0 2.5417829504875762e-17 8.937947783956426e-39 2.8052291285443422e-34
116 3 5.72074 22.6328 1.4948 -1.2 0.9972873076548741 0.002712692321204278 9.678927221102458e-22 2.3924417967845536e-11
117 3 2.03867 20.0455 1.4948 -1.2 0.999396711032411 0.0006032889407473534 2.0487486848121305e-23 2.684488107043709e-11
118 3 4.96004 20.3134 0.196716 -1.2 0.9949208642194478 0.005079135526888691 4.769269251331007e-20 2.5365831325690925e-10
119 1 6.55057 18.996 2.9896 1.2 0.9628627327480392 0.0371140230576163 4.6363582641404444e-18 2.3244194350029085e-05
120 3 4.92172 20.3134 2.79288 -1.2 0.9736167921640785 0.026383207569071768 1.4789667920154985e-16 2.6684344082987097e-10
121 1 -0.84282 19.0373 4.4844 1.2 0.9840995288401176 0.01486182773917581 1.615810940379348e-13 0.00103864342054371
122 2 -2.64823 21.7214 4.4844 2.4 1.0 2.808376635864429e-22 1.681143223547145e-38 8.596159886994877e-40
123 3 -2.70847 20.1082 4.4844 -1.2 0.9380208439252655 0.06197915502993442 6.82525642667235e-16 1.0448052971500412e-09
124 3 0.97581 22.6955 4.4844 -1.2 0.7011386574559941 0.29886134188280233 5.079757956692265e-16 6.611986323238145e-10
125 3 -1.9076 22.4276 3.18632 -1.2 0.9582416537619245 0.04175834622407393 2.444685365560376e-16 1.399952099186033e-11
126 3 -1.9475 22.4276 5.78248 -1.2 0.9145353785463127 0.08546462124925418 2.4189173502100944e-17 2.0442728113335497e-10
127 1 1.50678 21.3705 2.9896 1.2 0.9804572533702873 0.01953992014574254 6.369210406716154e-19 2.8264839720900704e-06
128 1 4.31086 21.3292 4.4844 1.2 0.9941569718473244 0.0054601346465692965 6.563956794247084e-12 0.0003828934995409721
129 2 2.49243 23.394 4.4844 2.4 1.0 9.382864840894212e-24 9.028237156750094e-39 7.200261491542978e-42
130 3 2.51204 25.0073 4.4844 -1.2 0.7763225164810033 0.22367748349262506 4.480519853899133e-15 2.6372509418662587e-11
131 3 -4.13026 22.42 4.4844 -1.2 0.5276723951339313 0.4723276043191593 3.901307144207347e-15 5.469086253020274e-10
132 3 3.19799 22.6879 3.18632 -1.2 0.9299416009470428 0.07005839902597163 7.836218707222043e-16 2.6989894084368935e-11
133 1 1.5501 21.3705 0 1.2 0.9329468706360726 0.06705301999283385 7.136873751865607e-21 1.0937108743574659e-07
134 3 3.1583 22.6879 5.78248 -1.2 0.6903167748200872 0.30968322484498617 4.559409523129203e-15 3.3492213034310433e-10
135 1 -1.29822 21.4118 1.4948 1.2 0.9735761633595994 0.02642376637135014 2.0141718171241034e-20 7.026905736212734e-08
136 2 0.523568 19.3469 1.4948 2.4 1.0 3.1104986896360053e-16 9.63242778899021e-38 1.3539092243706404e-33
137 3 0.508934 17.7337 1.4948 -1.2 0.995662260910678 0.004337738636488152 3.730905598897407e-21 4.528349946110881e-10
138 3 7.14425 20.321 1.4948 -1.2 0.9984391999277145 0.001560800053523661 1.9987294389046396e-21 1.8767646679635025e-11
139 3 -0.145107 20.0531 0.196716 -1.2 0.9774580624533049 0.02254193698406297 4.347429830170496e-18 5.626379027594267e-10
140 3 -0.183601 20.0531 2.79288 -1.2 0.9886231672183758 0.011376832649841052 3.591281257943915e-18 1.3178707634701546e-10
141 1 6.70502 23.745 0 1.2 0.9488479122281039 0.051152080642090016 3.4855569289556777e-22 7.129800879803973e-09
142 1 3.97493 28.4527 1.4948 1.2 0.977351184500326 0.02264881261488478 4.7259296820324215e-24 2.884784666616563e-09
143 2 5.77602 25.7685 1.4948 2.4 1.0 6.414874499257329e-22 2.0216407139366373e-40 5.276303214069514e-38
144 3 5.83821 27.3818 1.4948 -1.2 0.9997433596432422 0.0002566403561043886 1.6791593372911342e-23 6.592968022234219e-13
145 3 2.15175 24.7945 1.4948 -1.2 0.9998428474891679 0.00015715251046606748 7.437612819235778e-25 3.6124435966327484e-13
146 3 5.07184 25.0624 0.196716 -1.2 0.9994115568201823 0.0005884431751534862 7.185903033671195e-22 4.657926082235225e-12
147 1 6.66374 23.745 2.9896 1.2 0.9843571339095837 0.01564247138887026 2.929715192273405e-19 3.947015457961075e-07
148 3 5.03707 25.0624 2.79288 -1.2 0.9822985481737495 0.017701451821319474 7.24603244948394e-17 4.9310182978173466e-12
149 1 -0.727559 23.7863 4.4844 1.2 0.9932449604345146 0.006711146554332374 3.3479604998176635e-14 4.3893011116754715e-05
150 2 -2.5277 26.4704 4.4844 2.4 1.0 1.3882353685379108e-26 1.0746635262509899e-40 5.444026835121767e-45
151 3 -2.59107 24.8572 4.4844 -1.2 0.8948660304852225 0.10513396947325715 3.152897909157514e-16 4.151704013850663e-11
152 3 1.09817 27.4445 4.4844 -1.2 0.8622151299739939 0.13778487001221326 1.0114197400793776e-16 1.3796340277145537e-11
153 3 -1.78784 27.1766 3.18632 -1.2 0.9814577153613456 0.018542284637485223 1.61979721294347e-17 1.1694552592903462e-12
154 3 -1.82343 27.1766 5.78248 -1.2 0.879408943203255 0.12059105679164096 1.321801808439628e-17 5.0973841825683135e-12
155 1 1.62435 26.1195 2.9896 1.2 0.9914434878397973 0.008556483291816356 2.39491207052021e-21 2.8868391908957947e-08
156 1 4.43064 26.0782 4.4844 1.2 0.9958273933783447 0.004154958167770146 1.4197927157977584e-13 1.7648453741506706e-05
157 2 2.61607 28.143 4.4844 2.4 1.0 1.8823106747683183e-27 6.911841085978659e-40 2.777300149781122e-46
158 3 2.63853 29.7563 4.4844 -1.2 0.5435044464430583 0.45649555355231314 1.6518837894906016e-14 4.610107012821981e-12
159 3 -4.00841 27.169 4.4844 -1.2 0.6029833689036703 0.39701663107242446 5.880464465920115e-16 2.3909196364987128e-11
160 3 3.3182 27.4369 3.18632 -1.2 0.9850474079426571 0.014952592056220324 3.264109041806471e-17 1.1221809674264324e-12
161 1 1.66335 26.1195 0 1.2 0.9591045945467335 0.040895403970061917 1.7822309249708235e-23 1.4832088053463987e-09
162 3 3.28288 27.4369 5.78248 -1.2 0.377178336740503 0.6228216632555866 4.68549912227365e-15 3.908867814317802e-12
163 1 -1.18278 26.1608 1.4948 1.2 0.9824850378992581 0.017514960888767372 9.211620066754544e-24 1.2119787254811317e-09
164 2 0.635424 24.0959 1.4948 2.4 1.0 3.2136996891184936e-20 3.122169986330699e-38 1.8204653189236153e-37
165 3 0.617906 22.4827 1.4948 -1.2 0.9981677569512184 0.0018322430406168965 2.3308908748725776e-21 8.162476489662036e-12
166 3 7.25781 25.07 1.4948 -1.2 0.9994281312202439 0.0005718687789212857 6.300062158053463e-23 8.408857469362694e-13
167 3 -0.0337363 24.8021 0.196716 -1.2 0.9984208280227703 0.0015791719717962113 1.4811832304768542e-20 5.435087711609899e-12
168 3 -0.0687235 24.8021 2.79288 -1.2 0.9872441080274356 0.012755891967934276 1.3802992166286593e-17 4.63522295360503e-12
169 1 6.82195 28.494 0 1.2 0.9638941598084636 0.03610583922205511 1.2938558918022294e-25 9.694775256555389e-10
170 1 4.10106 33.2017 1.4948 1.2 0.9855191954705643 0.014480798811963128 2.0863830684423446e-24 5.717476051433921e-09
171 2 5.89839 30.5175 1.4948 2.4 1.0 4.39433902523599e-26 1.211650852906306e-42 9.25660123200329e-40
172 3 5.96289 32.1308 1.4948 -1.2 0.9997723765604648 0.0002276234389042969 2.3628247477074666e-23 6.33429190190529e-13
173 3 2.27266 29.5435 1.4948 -1.2 0.9998592608054306 0.00014073919419694048 2.094531308297474e-24 3.6517429188122497e-13
174 3 5.19102 29.8114 0.196716 -1.2 0.9999707454799324 2.9254519877402386e-05 6.325137287301318e-25 1.8342646462912666e-13
175 1 6.78546 28.494 2.9896 1.2 0.9908901023591836 0.009109824512479405 7.012451654296206e-22 7.312834177936568e-08
176 3 5.16061 29.8114 2.79288 -1.2 0.9827356987778744 0.017264301220788588 9.709389300584525e-18 1.3417919594036697e-12
177 1 -0.603205 28.5353 4.4844 1.2 0.9971099097180869 0.002888652518762035 3.0114145103089003e-15 1.437763146378357e-06
178 2 -2.39877 31.2194 4.4844 2.4 1.0 2.771205118989902e-27 2.1324966330464123e-39 3.022801222024537e-44
179 3 -2.46483 29.6062 4.4844 -1.2 0.2661110259876336 0.733888974003209 2.3454248510284966e-14 9.137210531068788e-12
180 3 1.22864 32.1935 4.4844 -1.2 0.4000921608326489 0.5999078391393025 1.492323075551999e-15 2.805059353498039e-11
181 3 -1.66032 31.9256 3.18632 -1.2 0.9098944018749966 0.0901055981213307 1.195938222016726e-16 3.669440049336331e-12
182 3 -1.69072 31.9256 5.78248 -1.2 0.2609140692405908 0.7390859307511164 4.103680326036509e-16 8.288582102259397e-12
183 1 1.7499 30.8685 2.9896 1.2 0.990663749529037 0.009336222480229282 9.505512411520658e-23 2.7990731488467545e-08
184 1 4.55894 30.8272 4.4844 1.2 0.9985292536543262 0.0014702335556840914 1.889631708004632e-15 5.127899940085003e-07
185 2 2.7476 32.892 4.4844 2.4 1.0 9.651756757713427e-28 3.0265073899588836e-39 2.7955247075055037e-44
186 3 2.77235 34.5053 4.4844 -1.2 0.07977444172120766 0.9202255582711797 1.2476583591753377e-13 7.484200938270567e-12
187 3 -3.87837 31.918 4.4844 -1.2 0.1325208004070166 0.8674791995703637 4.2238609538341265e-15 2.2616373798511633e-11
188 3 3.44611 32.1859 3.18632 -1.2 0.9648663709590998 0.035133629036941866 2.3245924553650007e-17 3.957683619762647e-12
189 1 1.7837 30.8685 0 1.2 0.9778483579355955 0.022151641809972995 3.510789480141271e-27 2.54437198013596e-10
190 3 3.41602 32.1859 5.78248 -1.2 0.06739882448238838 0.9326011755136804 8.734752402074902e-15 3.9209930235758494e-12
191 1 -1.05984 30.9098 1.4948 1.2 0.9877152222527834 0.012284777570103907 1.883328858032176e-26 1.7711364172100397e-10
192 2 0.755243 28.8449 1.4948 2.4 1.0 4.842840463561785e-25 2.599091263809064e-41 2.4359046530935886e-39
193 3 0.735127 27.2317 1.4948 -1.2 0.9998052901207455 0.00019470987915110074 2.11871804138083e-23 1.0891444060230637e-13
194 3 7.37914 29.819 1.4948 -1.2 0.9996445790405787 0.00035542095871819403 1.039156650713044e-23 7.097137920382118e-13
195 3 0.0850649 29.5511 0.196716 -1.2 0.9995862644984937 0.00041373550048933393 1.1119856786314014e-21 1.0210509000124882e-12
196 3 0.0543974 29.5511 2.79288 -1.2 0.9948672075404931 0.005132792458939313 7.152684238543238e-19 5.608791684093995e-13
197 1 6.94543 33.243 0 1.2 0.976611432856092 0.023388566765861075 4.839532786609201e-27 3.780407109800343e-10
198 1 4.23267 37.9507 1.4948 1.2 0.9779823402125021 0.022017612016085788 7.160821147189899e-22 4.777141826492144e-08
199 2 6.02709 35.2665 1.4948 2.4 1.0 2.520152900066814e-25 1.323611043794584e-40 8.009938919978327e-38
200 3 6.09339 36.8798 1.4948 -1.2 0.9982742362241419 0.0017257637562292255 3.760442244313522e-20 1.962403018326266e-11
201 3 2.40018 34.2925 1.4948 -1.2 0.9992331655999499 0.0007668343937638164 5.403358405237894e-22 6.2807724791266675e-12
202 3 5.31645 34.5604 0.196716 -1.2 0.9999531501654365 4.684983395517533e-05 3.768518881533068e-24 6.09677426849904e-13
203 1 6.91449 33.243 2.9896 1.2 0.9920959046178243 0.007904017844198159 1.0631396987108933e-21 7.753797449969804e-08
204 3 5.291 34.5604 2.79288 -1.2 0.9224996106423842 0.07750038934472388 2.663949651359268e-16 1.2892845318809113e-11
205 1 -0.471101 33.2843 4.4844 1.2 0.997995358906479 0.002004399984986779 1.2381004542819792e-16 2.4110854004758437e-07
206 2 -2.26307 35.9684 4.4844 2.4 1.0 5.374043818578922e-26 4.6513922891016763e-36 7.350879741159871e-42
207 3 -2.33122 34.3552 4.4844 -1.2 0.11327323366478084 0.8867267663173265 3.157181250270341e-14 1.785960708110704e-11
208 3 1.36549 36.9425 4.4844 -1.2 0.03473068044832519 0.9652693195316209 1.0233595474135538e-13 1.995235045852139e-11
209 3 -1.52658 36.6746 3.18632 -1.2 0.8279297401106921 0.17207025987005894 1.7697366783094843e-15 1.924446471536923e-11
210 3 -1.55122 36.6746 5.78248 -1.2 0.01640974186859923 0.9835902581264166 5.612128281810301e-15 4.982115177253802e-12
211 1 1.882 35.6175 2.9896 1.2 0.9896943193171367 0.010305538616684637 1.986355421601798e-20 1.4206617173941993e-07
212 1 4.69415 35.5762 4.4844 1.2 0.998888544740813 0.001110794102900046 3.217181411046799e-15 6.611562827431048e-07
213 2 2.88522 37.641 4.4844 2.4 1.0 2.4900037365976285e-25 1.5340430141508575e-35 1.0630275165333687e-41
214 3 2.91159 39.2543 4.4844 -1.2 0.06699607307107261 0.9330039268923397 3.7207051244584576e-13 3.621650919638892e-11
215 3 -3.74183 36.667 4.4844 -1.2 0.020694521334041725 0.9793054786398809 9.685054141190514e-14 2.5974627190046976e-11
216 3 3.58014 36.9349 3.18632 -1.2 0.9166824363198866 0.08331756365455388 3.3212239949709296e-16 2.5557780998940768e-11
217 1 1.90997 35.6175 0 1.2 0.9700190636001196 0.029980933883580575 3.582851155789729e-25 2.516298824094372e-09
218 3 3.55582 36.9349 5.78248 -1.2 0.00707648133661268 0.9929235186616421 4.1957094782933264e-14 1.705420102147776e-12
219 1 -0.93068 35.6588 1.4948 1.2 0.9891545882029461 0.010845410070973912 1.1747240789150466e-24 1.72608410170385e-09
220 2 0.881882 33.5939 1.4948 2.4 1.0 1.8500737752371847e-26 2.7840402990549395e-41 2.976192832127872e-38
221 3 0.859602 31.9807 1.4948 -1.2 0.9997933333255961 0.0002066666741404385 7.152117559089382e-24 2.600715850983561e-13
222 3 7.507 34.568 1.4948 -1.2 0.9980419314434551 0.0019580685422723875 1.0288184812430672e-21 1.4271898829435819e-11
223 3 0.210186 34.3001 0.196716 -1.2 0.9995239256058881 0.0004760743925264351 4.170299363817673e-21 1.5903180477258876e-12
224 3 0.184454 34.3001 2.79288 -1.2 0.9732222776260523 0.02677772236944223 3.2776485677943263e-17 4.499998635325856e-12
225 1 7.07415 37.992 0 1.2 0.915590128501788 0.08440984026592482 3.272828351040826e-23 3.123228411870384e-08
226 1 4.36817 42.6997 1.4948 1.2 0.9364664664426599 0.06353175832377993 6.730287623802781e-18 1.7752335651762896e-06
227 2 6.16058 40.0155 1.4948 2.4 1.0 4.073414278212076e-21 5.460833037641274e-34 9.501327595407162e-34
228 3 6.22815 41.6288 1.4948 -1.2 0.9346947340052506 0.06530526539916486 1.777402230470789e-15 5.955841924518787e-10
229 3 2.53282 39.0415 1.4948 -1.2 0.9965414386622674 0.0034585610498179165 9.328953416321446e-20 2.879200919164529e-10
230 3 5.44674 39.3094 0.196716 -1.2 0.9992534560237433 0.0007465439439106579 5.42142391345766e-20 3.234108698034556e-11
231 1 7.04922 37.992 2.9896 1.2 0.9866359778246953 0.013360519665870235 2.041046903239041e-17 3.5025094360221133e-06
232 3 5.42658 39.3094 2.79288 -1.2 0.7717978500511851 0.2282021498440825 1.047155863269933e-14 1.0471904621112694e-10
233 1 -0.333062 38.0333 4.4844 1.2 0.9981499099023969 0.0018455217395817395 7.634411050374104e-14 4.568357947047921e-06
234 2 -2.12255 40.7174 4.4844 2.4 1.0 2.486014581642504e-23 1.637939978918342e-32 2.3105533976408353e-39
235 3 -2.19212 39.1042 4.4844 -1.2 0.0807743415289426 0.9192256584471368 1.6765372657025063e-13 2.3752680939034703e-11
236 3 1.50676 41.6915 4.4844 -1.2 0.004528346738875886 0.9954716532082218 6.355337541363431e-12 4.65501426733825e-11
237 3 -1.3884 41.4236 3.18632 -1.2 0.24420025130580011 0.7557997485683597 2.899600638890321e-13 1.2555224638792518e-10
238 3 -1.40713 41.4236 5.78248 -1.2 0.0080195843624144 0.9919804156268917 8.649345482839378e-14 1.0602817931752576e-11
239 1 2.01892 40.3665 2.9896 1.2 0.9649237383031996 0.035005709070179955 7.508452700043493e-13 7.05526258713971e-05
240 1 4.83434 40.3252 4.4844 1.2 0.997571219837567 0.0024092740402478223 3.3917958302254403e-13 1.9506121849792872e-05
241 2 3.02698 42.39 4.4844 2.4 1.0 7.003508424694561e-23 1.5223344158149444e-31 3.783220585357125e-39
242 3 3.05433 44.0033 4.4844 -1.2 0.034242110699420056 0.9657578892515969 1.3680934841471567e-12 4.76112625821493e-11
243 3 -3.60077 41.416 4.4844 -1.2 0.008591388460339012 0.9914086114964037 1.822383187940974e-12 4.1438357236672215e-11
244 3 3.71851 41.6839 3.18632 -1.2 0.4531025013696513 0.5468974984642079 2.071989794952333e-13 1.6593122327782293e-10
245 1 2.04077 40.3665 0 1.2 0.8176868319822632 0.18231248646170461 9.186990010268932e-21 6.815560256776457e-07
246 3 3.70011 41.6839 5.78248 -1.2 0.0032536661464877656 0.9967463338457565 2.0784069722792092e-13 7.545248106852955e-12
247 1 -0.796865 40.4078 1.4948 1.2 0.951092919853545 0.0489067271784475 5.687800816788854e-20 3.529680034937481e-07
248 2 1.01387 38.3429 1.4948 2.4 1.0 2.652400339647505e-23 2.8931465544716005e-36 3.1095595758823107e-35
249 3 0.989947 36.7297 1.4948 -1.2 0.9988642295146172 0.001135770482516129 8.920172378583552e-21 2.8696871289557635e-12
250 3 7.63988 39.317 1.4948 -1.2 0.9938854054284512 0.006114594153273713 1.1431102881216305e-19 4.182793271488131e-10
251 3 0.340253 39.0491 0.196716 -1.2 0.9982338925439387 0.0017661073310691893 2.0102940165144953e-19 1.2498921552769805e-10
252 3 0.319795 39.0491 2.79288 -1.2 0.8254457712449723 0.17455422867571302 1.3231968095828191e-14 7.930332131798065e-11
253 1 7.20667 42.741 0 1.2 0.7297857231975732 0.2702123463943938 1.976756088841624e-18 1.930408038871553e-06
254 1 4.50613 47.4487 1.4948 1.2 0.9683659338976764 0.031631077943179875 1.2398151871470697e-15 2.9881591421383614e-06
255 2 6.29731 44.7645 1.4948 2.4 1.0 7.423167051787417e-19 2.8169761825807057e-30 3.085821105116849e-33
256 3 6.36567 46.3778 1.4948 -1.2 0.4911232809781416 0.5088767186555807 5.569617406237804e-13 3.657179943838651e-10