ITEM: TIMESTEP
1700
ITEM: NUMBER OF ATOMS
10500
ITEM: BOX BOUNDS xy xz yz pp pp pp
0	15.2974	5.099
0	118.725	0
0	89.688	0
ITEM: ATOMS id type xu yu zu q pCrystal pDisloC pDisloB pDisloA
1 1 6.2404 -6.37941e-06 0 1.2 4.512061687751174e-21 1.6161080694229691e-09 0.9999999979417709 4.421273302483547e-10
2 1 3.46349 4.70768 1.4948 1.2 5.140988762504271e-07 0.032765855112071335 0.31046180328473433 0.6567718275043171
3 2 5.2885 2.02354 1.4948 2.4 4.53330325468316e-06 0.9962557360784657 0.00029533708152735665 0.0034443935367526727
4 3 5.33628 3.63678 1.4948 -1.2 3.846633276461622e-11 0.9999667496780111 3.3239207959418896e-05 1.1075566502418076e-08
5 3 1.67294 1.04952 1.4948 -1.2 9.093607218209929e-18 0.8983868269812527 0.10161315994590848 1.3072844128484511e-08
6 3 4.59532 1.31737 0.196716 -1.2 9.444510639453992e-19 0.6093032417840303 0.39069675795326714 2.627083450953512e-10
7 1 6.18956 -6.37941e-06 2.9896 1.2 1.011299712635089e-23 3.086839751376762e-08 0.9999999689105441 2.2106525979960254e-10
8 3 4.55118 1.31737 2.79288 -1.2 2.797112030836129e-21 0.047923723004306654 0.9520762769368672 5.882137511700644e-11
9 1 -1.20682 0.0413099 4.4844 1.2 4.69632796781628e-30 4.0132082320840665e-11 0.9999999999591296 7.377635030843866e-13
10 2 -3.0337 2.72544 4.4844 2.4 1.574784662578333e-11 0.9963818556962891 0.0028698292798295783 0.0007483150081380354
11 3 -3.08099 1.11221 4.4844 -1.2 2.933191788013915e-25 0.014487460316800663 0.9855125396820115 1.1830421929221625e-12
12 3 0.582463 3.69946 4.4844 -1.2 1.4795924759097923e-16 0.9714277145191438 0.02857228352009614 1.9607668850825374e-09
13 3 -2.29524 3.43162 3.18632 -1.2 2.9725004559859247e-15 0.9982891008564189 0.0017108979518933682 1.1916824666352834e-09
14 3 -2.34216 3.43162 5.78248 -1.2 2.0941548941516362e-19 0.8542062595687687 0.14579373916662403 1.2646076288916e-09
15 1 1.12778 2.37449 2.9896 1.2 9.218816198720997e-20 8.144821688481477e-07 0.9999990550958332 1.3042199616956288e-07
16 1 3.92855 2.33318 4.4844 1.2 4.2368188163779646e-24 7.357633756018066e-09 0.9999999549800985 3.7662261351268544e-08
17 2 2.09341 4.39804 4.4844 2.4 0.001028643803681387 0.9987745657998515 0.0001958799438313551 9.104526396631121e-07
18 3 2.09991 6.01128 4.4844 -1.2 1.3543184509512506e-08 0.9999936964886023 6.159451255157006e-06 1.3051696212418329e-07
19 3 -4.52137 3.42402 4.4844 -1.2 9.945617509141223e-19 0.7403109212384968 0.259689078304778 4.567225821054125e-10
20 3 2.80834 3.69187 3.18632 -1.2 9.84652086639847e-16 0.9969527617142178 0.003047237785902423 4.998828003423295e-10
21 1 1.17857 2.37449 0 1.2 5.283684430191827e-18 1.1107246152318118e-05 0.9999820679163919 6.824837460091393e-06
22 3 2.76143 3.69187 5.78248 -1.2 1.2258784434848462e-20 0.7691552676235263 0.2308447321448459 2.3163369153543018e-10
23 1 -1.67381 2.41581 1.4948 1.2 2.308824183646692e-10 0.011912883043286679 0.9802798088619014 0.00780730786393151
24 2 0.16286 0.350945 1.4948 2.4 1.993105432336696e-09 0.41835088456895175 0.002847969228643466 0.578801144209299
25 3 0.15972 -1.26229 1.4948 -1.2 3.4999047837764557e-15 0.9836462859405094 0.0163534807518419 2.3330765198725646e-07
26 3 6.77654 1.32496 1.4948 -1.2 4.799785268334322e-15 0.994567475265111 0.00543246439680753 6.033808047672876e-08
27 3 -0.508028 1.05712 0.196716 -1.2 1.5028119545063352e-19 0.2650159658104977 0.7349840281509704 6.038526036468033e-09
28 3 -0.552171 1.05712 2.79288 -1.2 1.0106954794073767e-21 0.13775198211536852 0.862248017526738 3.5789255118954805e-10
29 1 6.31713 4.74899 0 1.2 2.9671315363989396e-08 0.08544604855446401 0.6328955690220519 0.28165835275216655
30 1 3.54847 9.45668 1.4948 1.2 0.8853141968480845 0.11412842921229678 3.250705298396221e-14 0.0005573739395895569
31 2 5.36879 6.77254 1.4948 2.4 0.9999999414569646 5.854303236144126e-08 1.1668491670758877e-22 1.718369270584943e-20
32 3 5.41937 8.38578 1.4948 -1.2 0.9558356709983905 0.044164281268518804 2.1467178631947603e-16 4.773309146761004e-08
33 3 1.75158 5.79852 1.4948 -1.2 0.0003232937517903577 0.9996758700092402 2.1843857909038252e-10 8.360205268673289e-07
34 3 4.67421 6.06637 0.196716 -1.2 3.737392516426154e-06 0.9999962213376872 2.5334967559983313e-08 1.5934822574939964e-08
35 1 6.26654 4.74899 2.9896 1.2 1.1342090648267547e-09 0.0013994424789886813 0.3389525384789302 0.6596480179078719
36 3 4.63043 6.06637 2.79288 -1.2 1.2457293493713238e-07 0.9999992743169419 5.511222292972078e-07 4.998789344854167e-08
37 1 -1.12976 4.79031 4.4844 1.2 3.668156023628154e-12 8.746863926018713e-06 0.9919103219393643 0.008080931193036512
38 2 -2.9517 7.47444 4.4844 2.4 0.9999999715348769 2.846512575311143e-08 5.2912590177860754e-17 6.906953390386459e-19
39 3 -3.00198 5.86121 4.4844 -1.2 5.291404819002155e-11 0.9999284149945262 7.157897309987711e-05 5.979456742670463e-09
40 3 0.666315 8.44846 4.4844 -1.2 0.00046787590255314613 0.9995310652747547 1.0332690206307134e-08 1.048489999256592e-06
41 3 -2.21213 8.18062 3.18632 -1.2 0.0017494323878832006 0.9982504755216389 2.2906441223600985e-09 8.97998400609006e-08
42 3 -2.25864 8.18062 5.78248 -1.2 9.628322101773127e-06 0.9999897333956592 4.6835222151455673e-07 1.6993001081159936e-07
43 1 1.20893 7.12349 2.9896 1.2 0.006919203737571685 0.11445894247888364 3.192457403950068e-05 0.8785899292095083
44 1 4.00982 7.08218 4.4844 1.2 2.9801180711036482e-05 0.0010148457923901697 0.002357014738426216 0.9965983382884771
45 2 2.17861 9.14704 4.4844 2.4 0.9999999999996732 3.238727520413951e-13 4.813760261339781e-26 3.798446666357812e-27
46 3 2.18828 10.7603 4.4844 -1.2 0.627951016320176 0.3720480312171277 2.7365634244288497e-13 9.524624180708121e-07
47 3 -4.43805 8.17302 4.4844 -1.2 1.905553646280746e-05 0.9999795932849789 1.2342309207644325e-06 1.1694764399711581e-07
48 3 2.89193 8.44087 3.18632 -1.2 0.01149426124883283 0.9885052056439382 1.3991780877406985e-10 5.329673161044883e-07
49 1 1.25915 7.12349 0 1.2 0.09395028500917867 0.8041369853996699 3.312403542829009e-08 0.10191269646711616
50 3 2.84547 8.44087 5.78248 -1.2 3.897079094032915e-05 0.9999605278698798 1.6455235176279452e-07 3.367868260153065e-07
51 1 -1.59284 7.16481 1.4948 1.2 0.08951745474970596 0.748130234461001 1.606066698765272e-07 0.16235215018262478
52 2 0.240329 5.09994 1.4948 2.4 0.9959816047808996 0.004018395188276 2.2740572917832227e-14 3.080230108447211e-11
53 3 0.234538 3.48671 1.4948 -1.2 6.621086172128121e-13 0.9999116806810504 8.827847193880144e-05 4.0846353495706396e-08
54 3 6.85564 6.07396 1.4948 -1.2 6.9495468771813496e-06 0.9999929259864287 6.990773373944225e-09 1.1747592519221691e-07
55 3 -0.429565 5.80612 0.196716 -1.2 3.0881148877986506e-07 0.9999995634448695 1.1863069311844781e-07 9.112948832473397e-09
56 3 -0.473377 5.80612 2.79288 -1.2 9.112038651208804e-09 0.9999961351241717 3.850467761455638e-06 5.296034600729648e-09
57 1 6.40169 9.49799 0 1.2 0.9521791598804994 0.047812050182845574 1.1740698504412403e-15 8.789936647598978e-06
58 1 3.64209 14.2057 1.4948 1.2 0.9784802015065612 0.021514316834701726 9.913907084433329e-20 5.481658735794897e-06
59 2 5.45748 11.5215 1.4948 2.4 0.9999999999999858 1.0310859508523843e-14 8.8712272278237e-38 2.9414339715458933e-33
60 3 5.51101 13.1348 1.4948 -1.2 0.9996663501183276 0.00033364890460601263 1.077164485002907e-23 9.770710012161943e-10
61 3 1.83851 10.5475 1.4948 -1.2 0.9992093634622214 0.0007906349539728952 5.526925894972795e-21 1.583799224285667e-09
62 3 4.7611 10.8154 0.196716 -1.2 0.9877855480813061 0.012214447326319145 1.1490326344140628e-17 4.592373682060831e-09
63 1 6.35203 9.49799 2.9896 1.2 0.7202443451518542 0.274040771218412 1.443478968695739e-12 0.00571488362828398
64 3 4.71833 10.8154 2.79288 -1.2 0.9535402212624671 0.046459751947702334 3.2587613156199755e-15 2.6789827980171616e-08
65 1 -1.0438 9.53931 4.4844 1.2 0.2063956629756303 0.08287638755069456 1.4405732445326492e-07 0.7107278054163458
66 2 -2.8604 12.2234 4.4844 2.4 1.0 1.4866659113663973e-16 1.89502815431556e-31 3.835979695867599e-32
67 3 -2.91391 10.6102 4.4844 -1.2 0.4909177082596862 0.5090812088354527 7.037905160602029e-13 1.0829041542589298e-06
68 3 0.7596 13.1975 4.4844 -1.2 0.5706511677039426 0.42934835460223975 1.5581226905679047e-13 4.776936677095525e-07
69 3 -2.12001 12.9296 3.18632 -1.2 0.9724781767647201 0.02752180833096923 2.1255517688142863e-16 1.4904314966894697e-08
70 3 -2.16532 12.9296 5.78248 -1.2 0.6628456450170428 0.33715426405838067 7.723120259710423e-14 9.092450334142185e-08
71 1 1.29891 11.8725 2.9896 1.2 0.9120819491675077 0.08634512753940024 6.515465574129976e-16 0.0015729232930910908
72 1 4.10033 11.8312 4.4844 1.2 0.8718456593106907 0.05702783205932369 9.992050462447248e-12 0.07112650861999764
73 2 2.27333 13.896 4.4844 2.4 1.0 1.443074590387679e-18 3.593919571000411e-35 9.027858841207179e-35
74 3 2.28634 15.5093 4.4844 -1.2 0.9911452672008397 0.008854727535593153 3.4267960709483766e-18 5.263562684166057e-09
75 3 -4.34533 12.922 4.4844 -1.2 0.21473334608405406 0.7852660966082068 3.401966953052593e-12 5.573043367223889e-07
76 3 2.98455 13.1899 3.18632 -1.2 0.9436582450297225 0.056341718026627755 1.5847069216054314e-15 3.6943650749918334e-08
77 1 1.34779 11.8725 0 1.2 0.973830632154177 0.02616167305920638 9.953690300052247e-19 7.694786618935607e-06
78 3 2.93934 13.1899 5.78248 -1.2 0.6571806967105467 0.3428192577211808 5.057953384604385e-14 4.5568222706166074e-08
79 1 -1.50344 11.9138 1.4948 1.2 0.9768042325904012 0.023176409171323648 3.691704694348979e-18 1.9358238268620224e-05
80 2 0.326006 9.84894 1.4948 2.4 0.9999999999993605 6.348760210688544e-13 6.872879889505268e-34 3.0606806273837022e-31
81 3 0.317364 8.23571 1.4948 -1.2 0.6685139583189956 0.33148585087592947 1.9278243279475314e-14 1.9080506256730151e-07
82 3 6.94307 10.823 1.4948 -1.2 0.9981080917807682 0.001891907047428673 1.1592875116533687e-20 1.1718034608372835e-09
83 3 -0.343122 10.5551 0.196716 -1.2 0.9792348917656211 0.02076510439539483 3.6456585958619005e-17 3.838985037944176e-09
84 3 -0.385966 10.5551 2.79288 -1.2 0.8741204581968997 0.1258794424962968 2.0679670177658865e-14 9.930678075181961e-08
85 1 6.49448 14.247 0 1.2 0.9921737803370321 0.007826186929593172 7.598865354915614e-22 3.2733372282363454e-08
86 1 3.74457 18.9547 1.4948 1.2 0.978654307206013 0.021343555453047003 4.88772762413893e-19 2.137340939503796e-06
87 2 5.55495 16.2705 1.4948 2.4 1.0 4.844452438167286e-15 8.522416898537844e-40 6.180376569088363e-34
88 3 5.6115 17.8838 1.4948 -1.2 0.9988169922987867 0.0011830074755461754 2.07286098876598e-23 2.2566052254336355e-10
89 3 1.93416 15.2965 1.4948 -1.2 0.9997753196693141 0.00022468023626443277 2.996796434328139e-24 9.442244595597683e-11
90 3 4.85636 15.5644 0.196716 -1.2 0.9990142113345998 0.000985788488091855 9.716652032992234e-22 1.773115812649478e-10
91 1 6.44662 14.247 2.9896 1.2 0.9654142672986523 0.03449471496249056 2.2017312596160725e-18 9.101773885350286e-05
92 3 4.81537 15.5644 2.79288 -1.2 0.9912708306919196 0.008729166359052389 4.768306912102451e-18 2.9490219392635894e-09
93 1 -0.948271 14.2883 4.4844 1.2 0.9201236740629732 0.045764879829998065 5.943133953010292e-13 0.034111446106430604
94 2 -2.75928 16.9724 4.4844 2.4 1.0 1.6842849435465036e-20 4.88317964876233e-38 2.05692839060693e-36
95 3 -2.81617 15.3592 4.4844 -1.2 0.9501724161670609 0.04982756877643195 6.526379048711048e-16 1.505651267748796e-08
96 3 0.862762 17.9465 4.4844 -1.2 0.637575548345328 0.3624244396204255 9.600734871011946e-15 1.2034241248696915e-08
97 3 -2.0185 17.6786 3.18632 -1.2 0.986898896268227 0.01310110342041002 7.28497822638792e-18 3.1136948274933716e-10
98 3 -2.06164 17.6786 5.78248 -1.2 0.9716108966958459 0.028389103040737638 1.0925570211187504e-17 2.634137981369694e-10
99 1 1.39817 16.6215 2.9896 1.2 0.9686077962044761 0.03132577662248643 7.203637656613703e-19 6.642717303080836e-05
100 1 4.20062 16.5802 4.4844 1.2 0.9653082974502695 0.020565349824411203 2.321809878897012e-13 0.014126352725086107
101 2 2.37796 18.645 4.4844 2.4 1.0 2.0134160950673584e-21 9.114611132278183e-38 9.375423909045058e-39
102 3 2.39434 20.2583 4.4844 -1.2 0.9898751882757689 0.010124811629503174 2.923708761371045e-18 9.472680665428467e-11
103 3 -4.24274 17.671 4.4844 -1.2 0.6285142662875702 0.3714857267406841 8.765889384270327e-15 6.971733330838745e-09
104 3 3.08659 17.9389 3.18632 -1.2 0.9544444327678786 0.04555556600322349 7.178931141719009e-16 1.2288970783953502e-09
105 1 1.44478 16.6215 0 1.2 0.986992199586994 0.013007738752087357 7.229848021235472e-22 6.166091203494871e-08
106 3 3.0436 17.9389 5.78248 -1.2 0.8926588442328921 0.10734115560978062 3.2690237779397973e-16 1.5733200450947595e-10
107 1 -1.40524 16.6628 1.4948 1.2 0.9825975066847321 0.017401839604245937 6.414355414933841e-21 6.537110246932072e-07
108 2 0.420358 14.5979 1.4948 2.4 0.9999999999999858 1.0020714049737117e-14 5.780040009433855e-38 4.10210602295722e-33
109 3 0.408732 12.9847 1.4948 -1.2 0.9991638439493498 0.0008361555521799611 3.18007595944444e-22 4.984671578881767e-10
110 3 7.03923 15.572 1.4948 -1.2 0.9996618974962046 0.00033810235501826653 8.11139481023985e-24 1.487767094865299e-10
111 3 -0.248332 15.3041 0.196716 -1.2 0.9950808848421663 0.004919114464086116 7.931056066962858e-20 6.937418188577594e-10
112 3 -0.289436 15.3041 2.79288 -1.2 0.9957149174914973 0.004285079698208648 4.20775409633622e-19 2.8102905077526498e-09
113 1 6.59566 18.996 0 1.2 0.9872237568320187 0.012776237155946942 2.2719908675124942e-21 6.01202762681433e-09
114 1 3.85574 23.7037 1.4948 1.2 0.9827526158354388 0.017247343375406683 2.5238458348021493e-20 4.078914950443985e-08
115 2 5.66125 21.0195 1.4948 2.4 1.0 3.4600840274066563e-18 2.750147665916304e-40 2.1141491288811558e-35
116 3 5.72074 22.6328 1.4948 -1.2 0.9984111665197707 0.0015888334697905368 1.1413307101593704e-22 1.044374568553496e-11
117 3 2.03867 20.0455 1.4948 -1.2 0.9996872617423067 0.00031273825048349995 3.3562218438646626e-24 7.208829234005127e-12
118 3 4.96004 20.3134 0.196716 -1.2 0.9958020970967485 0.004197902835495362 4.59678821962625e-20 6.77503670060447e-11
119 1 6.55057 18.996 2.9896 1.2 0.9728703843838752 0.027118119946791697 8.192397693473701e-19 1.1495669335753568e-05
120 3 4.92172 20.3134 2.79288 -1.2 0.9891833553421799 0.010816644534696924 8.570345290211921e-18 1.2312895915331352e-10
121 1 -0.84282 19.0373 4.4844 1.2 0.9914251211189491 0.00823142560039081 2.1894206196041597e-15 0.00034345328065720274
122 2 -2.64823 21.7214 4.4844 2.4 1.0 1.4964079960543113e-23 7.586047463873925e-40 1.191290064762353e-40
123 3 -2.70847 20.1082 4.4844 -1.2 0.9480215576364828 0.05197844217703881 2.256835194089386e-16 1.864804469174936e-10
124 3 0.97581 22.6955 4.4844 -1.2 0.8365111137984661 0.16348888612679915 5.710473200432563e-17 7.473048539210438e-11
125 3 -1.9076 22.4276 3.18632 -1.2 0.9923271844988418 0.007672815497005513 8.258954774492238e-19 4.154109952724889e-12
126 3 -1.9475 22.4276 5.78248 -1.2 0.9489776763888993 0.05102232360724747 4.0164116888360785e-18 3.848067168402668e-12
127 1 1.50678 21.3705 2.9896 1.2 0.9826780181605791 0.017316698584341653 3.162267854656012e-19 5.283255076047722e-06
128 1 4.31086 21.3292 4.4844 1.2 0.9960732315511767 0.0038057648845044303 2.8104874563409866e-13 0.00012100356403744635
129 2 2.49243 23.394 4.4844 2.4 1.0 8.708410967852967e-25 4.207142965727261e-40 4.215677729030751e-43
130 3 2.51204 25.0073 4.4844 -1.2 0.9722051337261672 0.02779486626940191 1.045899241237077e-17 4.435413628631456e-12
131 3 -4.13026 22.42 4.4844 -1.2 0.6736269948704291 0.32637300507473155 5.64863178871219e-16 5.4845321874825166e-11
132 3 3.19799 22.6879 3.18632 -1.2 0.9827057798679477 0.017294220122515323 2.0328162705254193e-17 9.536460294603809e-12
133 1 1.5501 21.3705 0 1.2 0.9814930522034029 0.018506938070098476 2.7574824250111177e-21 9.72649270669852e-09
134 3 3.1583 22.6879 5.78248 -1.2 0.9309562420472903 0.06904375794875053 1.0337076808871719e-17 3.961912682604599e-12
135 1 -1.29822 21.4118 1.4948 1.2 0.9871126061853297 0.0128873634518983 6.620908992433317e-21 3.0362777318029065e-08
136 2 0.523568 19.3469 1.4948 2.4 1.0 1.3162961180907002e-16 2.4505220255904183e-38 1.2741292456209801e-34
137 3 0.508934 17.7337 1.4948 -1.2 0.9975256680628285 0.0024743317218438457 6.522267624309581e-22 2.1533409031378837e-10
138 3 7.14425 20.321 1.4948 -1.2 0.9990150033062131 0.0009849966810510126 9.856379285543016e-23 1.2737922723112107e-11
139 3 -0.145107 20.0531 0.196716 -1.2 0.9962414808097151 0.003758519168791914 1.0012381513595023e-19 2.1493255160269287e-11
140 3 -0.183601 20.0531 2.79288 -1.2 0.9963690584389067 0.0036309415174355887 1.0097992981744794e-19 4.3650939659583505e-11
141 1 6.70502 23.745 0 1.2 0.9704885422553359 0.02951145675643224 2.680817026202902e-22 9.882315300598972e-10
142 1 3.97493 28.4527 1.4948 1.2 0.9859706185136415 0.014029380352639169 3.6215255152299e-23 1.1337253564184608e-09
143 2 5.77602 25.7685 1.4948 2.4 1.0 4.256444898163059e-21 1.6312166528611925e-39 3.681629200296039e-38
144 3 5.83821 27.3818 1.4948 -1.2 0.9997731101425923 0.00022688985714171958 3.121910047059242e-23 2.700831995393605e-13
145 3 2.15175 24.7945 1.4948 -1.2 0.9998560782956917 0.00014392170405935317 3.41520280316971e-25 2.4724824814355375e-13
146 3 5.07184 25.0624 0.196716 -1.2 0.9990982956027756 0.0009017043943279138 2.4916413516854854e-21 2.89036650859235e-12
147 1 6.66374 23.745 2.9896 1.2 0.9878063646382464 0.01219353609050176 1.2316739152454956e-20 9.92712465243499e-08
148 3 5.03707 25.0624 2.79288 -1.2 0.9922406788511192 0.007759321146329917 3.0207625367679316e-18 2.554102487958554e-12
149 1 -0.727559 23.7863 4.4844 1.2 0.9963716657675921 0.003621481166748822 5.038151707886467e-16 6.853065659312085e-06
150 2 -2.5277 26.4704 4.4844 2.4 1.0 1.3710928833965105e-27 1.431520512632323e-41 2.8754393340503706e-45
151 3 -2.59107 24.8572 4.4844 -1.2 0.9026283251985958 0.09737167479207005 5.510242548772073e-17 9.336026493804363e-12
152 3 1.09817 27.4445 4.4844 -1.2 0.9052341442728522 0.0947658557200718 1.6704430296311135e-17 7.0761176239412744e-12
153 3 -1.78784 27.1766 3.18632 -1.2 0.9764105217155803 0.023589478282695916 1.3286857143498694e-17 1.7170871409229148e-12
154 3 -1.82343 27.1766 5.78248 -1.2 0.945397823150416 0.05460217684898255 1.543537582700016e-18 6.006641776259303e-13
155 1 1.62435 26.1195 2.9896 1.2 0.9903512895639436 0.009648678000213446 4.194605022051121e-21 3.2435845009791536e-08
156 1 4.43064 26.0782 4.4844 1.2 0.9980306260491342 0.001968740101882874 5.318361484419524e-17 6.338489810394509e-07
157 2 2.61607 28.143 4.4844 2.4 1.0 4.021943793965484e-27 3.2550455670260315e-39 3.5655725307963543e-45
158 3 2.63853 29.7563 4.4844 -1.2 0.7953371304941682 0.20466286950359128 3.35083433758377e-15 2.242532969360881e-12
159 3 -4.00841 27.169 4.4844 -1.2 0.7869625875854369 0.2130374124101127 8.834656897846808e-17 4.449206668192681e-12
160 3 3.3182 27.4369 3.18632 -1.2 0.994026058132646 0.005973941866767001 3.716347999480374e-18 5.846686087190338e-13
161 1 1.66335 26.1195 0 1.2 0.9547031145571705 0.04529688388349811 6.901546021170071e-23 1.5593353486776381e-09
162 3 3.28288 27.4369 5.78248 -1.2 0.8613036966367728 0.13869630336222247 6.226975582833238e-17 9.986456453039193e-13
163 1 -1.18278 26.1608 1.4948 1.2 0.9862332083965026 0.013766790622445853 5.1335283215219566e-23 9.810537725350065e-10
164 2 0.635424 24.0959 1.4948 2.4 1.0 2.838833807223346e-19 1.3853621093037415e-38 3.3757064032397176e-37
165 3 0.617906 22.4827 1.4948 -1.2 0.9985128387581799 0.001487161235833311 4.402103192547172e-22 5.981745351333197e-12
166 3 7.25781 25.07 1.4948 -1.2 0.9995243774407125 0.00047562255889249954 3.1440601312101847e-23 3.949656070701815e-13
167 3 -0.0337363 24.8021 0.196716 -1.2 0.9987119147502695 0.0012880852480974992 3.740481670860483e-20 1.6309188981077465e-12
168 3 -0.0687235 24.8021 2.79288 -1.2 0.9921395112925785 0.007860488702986822 1.866535788855529e-18 4.429744550650408e-12
169 1 6.82195 28.494 0 1.2 0.9540385331945723 0.04596146573611998 6.207196219423391e-23 1.0693011281268062e-09
170 1 4.10106 33.2017 1.4948 1.2 0.9859060524423396 0.014093927716423284 9.824669501537865e-22 1.9841238223429506e-08
171 2 5.89839 30.5175 1.4948 2.4 1.0 1.2727618651729409e-24 3.6568272261879183e-40 3.0965062024570723e-40
172 3 5.96289 32.1308 1.4948 -1.2 0.9995341974549551 0.00046580254460228907 1.459211870333701e-21 4.3790628136742004e-13
173 3 2.27266 29.5435 1.4948 -1.2 0.9998916873549719 0.0001083126448434415 2.09068142505436e-24 1.8877086855212148e-13
174 3 5.19102 29.8114 0.196716 -1.2 0.9998157410589662 0.00018425894066242713 4.567042014868439e-22 3.7259351855191694e-13
175 1 6.78546 28.494 2.9896 1.2 0.9926693875374183 0.007330573971394457 1.1650806187149602e-21 3.849119368069371e-08
176 3 5.16061 29.8114 2.79288 -1.2 0.9958434444496461 0.004156555550107932 1.5165474845386495e-18 2.4799448088939464e-13
177 1 -0.603205 28.5353 4.4844 1.2 0.9983455201573233 0.0016538472569386708 8.564300990593629e-16 6.325857392869277e-07
178 2 -2.39877 31.2194 4.4844 2.4 1.0 3.1248625795307432e-27 5.51273573015667e-38 7.181341700871582e-45
179 3 -2.46483 29.6062 4.4844 -1.2 0.4251847968910944 0.5748152031051321 5.420121762675029e-15 3.77098606143736e-12
180 3 1.22864 32.1935 4.4844 -1.2 0.6730690859031558 0.326930914091868 1.3512783187892125e-15 4.9696478675702156e-12
181 3 -1.66032 31.9256 3.18632 -1.2 0.9482884652019323 0.05171153479730861 4.074308906510193e-16 7.541524823968899e-13
182 3 -1.69072 31.9256 5.78248 -1.2 0.6320176783616611 0.36798232163678185 9.061926455856728e-17 1.5603784961036932e-12
183 1 1.7499 30.8685 2.9896 1.2 0.9932506469395888 0.006749335596709299 1.030896618583553e-21 1.7463708141765886e-08
184 1 4.55894 30.8272 4.4844 1.2 0.9989840128662651 0.0010157251749813782 6.99782678580725e-16 2.619587562938327e-07
185 2 2.7476 32.892 4.4844 2.4 1.0 4.795847182555629e-27 1.7483471256340335e-37 3.0284600277874503e-44
186 3 2.77235 34.5053 4.4844 -1.2 0.23928971628860596 0.7607102837018295 2.61146338673952e-13 9.306525511794144e-12
187 3 -3.87837 31.918 4.4844 -1.2 0.3542170664718586 0.6457829335234968 2.7901885535247886e-15 4.646154984317479e-12
188 3 3.44611 32.1859 3.18632 -1.2 0.9794704893813018 0.020529510617398335 3.925973467952739e-17 1.29305821464439e-12
189 1 1.7837 30.8685 0 1.2 0.960169354553958 0.03983064325662388 2.0074634376076987e-24 2.189421737895033e-09
190 3 3.41602 32.1859 5.78248 -1.2 0.6020218530557343 0.3979781469429333 1.4445814179326885e-15 1.3355863972697443e-12
191 1 -1.05984 30.9098 1.4948 1.2 0.9881892492019348 0.011810750079663604 6.826673585579723e-24 7.184060842526901e-10
192 2 0.755243 28.8449 1.4948 2.4 1.0 8.30666032416425e-24 1.0835436074645233e-39 1.3747047894085737e-39
193 3 0.735127 27.2317 1.4948 -1.2 0.9997801919344581 0.0002198080654287052 4.2009401403541553e-23 1.118490975147297e-13
194 3 7.37914 29.819 1.4948 -1.2 0.9996609204912491 0.0003390795085584004 7.509077380805932e-23 1.9157555275775108e-13
195 3 0.0850649 29.5511 0.196716 -1.2 0.99912936238509 0.000870637613838542 2.1841350114328645e-20 1.0725151677370085e-12
196 3 0.0543974 29.5511 2.79288 -1.2 0.9964511367670186 0.0035488632325753034 9.110367661799986e-19 4.0249029478716504e-13
197 1 6.94543 33.243 0 1.2 0.96660302104155 0.03339697493495077 1.455862505041611e-22 4.023503240257779e-09
198 1 4.23267 37.9507 1.4948 1.2 0.9750314014692274 0.024968440898440903 1.2506082618503142e-19 1.5763233694318142e-07
199 2 6.02709 35.2665 1.4948 2.4 1.0 2.0756872938252286e-24 2.695637177332613e-38 3.057705362740627e-38
200 3 6.09339 36.8798 1.4948 -1.2 0.9929999166029525 0.007000083384107085 4.959384402608623e-18 1.2939300956622235e-11
201 3 2.40018 34.2925 1.4948 -1.2 0.9982351135008729 0.0017648864924996361 1.2044140195553348e-20 6.6233406329926285e-12
202 3 5.31645 34.5604 0.196716 -1.2 0.9996568666993556 0.0003431332987238243 5.019807751400886e-21 1.9167923045157737e-12
203 1 6.91449 33.243 2.9896 1.2 0.9944656483470636 0.0055342756153735845 8.863747972336771e-21 7.603756728527172e-08
204 3 5.291 34.5604 2.79288 -1.2 0.8743724792461042 0.12562752074082625 4.241723082372645e-15 1.306221627959461e-11
205 1 -0.471101 33.2843 4.4844 1.2 0.9991202924193803 0.0008796406061080691 1.4989988357095818e-16 6.697450512108629e-08
206 2 -2.26307 35.9684 4.4844 2.4 1.0 1.5251231019761373e-24 1.1078828887227322e-32 1.527871231162471e-40
207 3 -2.33122 34.3552 4.4844 -1.2 0.14508525495009314 0.8549147450464416 9.698293284380272e-14 3.3742331738739516e-12
208 3 1.36549 36.9425 4.4844 -1.2 0.024479878807421966 0.9755201211779478 4.754742166435163e-12 9.881671396413604e-12
209 3 -1.52658 36.6746 3.18632 -1.2 0.6510097197806726 0.348990280204736 3.902617718318208e-14 1.4554106885044852e-11
210 3 -1.55122 36.6746 5.78248 -1.2 0.10805221157387783 0.8919477884173864 3.7933746261089076e-14 8.692070973434551e-12
211 1 1.882 35.6175 2.9896 1.2 0.9901986337119381 0.009800985321277274 7.032264882707123e-18 3.809667857197297e-07
212 1 4.69415 35.5762 4.4844 1.2 0.9990343823687401 0.0009649223673345876 1.1005763502519354e-13 6.952638211153532e-07
213 2 2.88522 37.641 4.4844 2.4 1.0 1.5907371638974926e-23 1.9750371580202605e-31 6.857666698242801e-40
214 3 2.91159 39.2543 4.4844 -1.2 0.016121294825056753 0.9838787051540661 9.648959104629205e-12 1.122809894235467e-11
215 3 -3.74183 36.667 4.4844 -1.2 0.00788746203207435 0.9921125379541833 1.5683869076113244e-12 1.2177505673480848e-11
216 3 3.58014 36.9349 3.18632 -1.2 0.5090696126154666 0.49093038736364325 2.332713036389416e-13 2.0649857284692512e-11
217 1 1.90997 35.6175 0 1.2 0.9543524181953394 0.04564754119438234 2.7989685827970725e-21 4.0610275201199246e-08
218 3 3.55582 36.9349 5.78248 -1.2 0.04363012135627196 0.9563698786419378 1.3189006349626366e-13 1.6562436537205309e-12
219 1 -0.93068 35.6588 1.4948 1.2 0.9865175098158568 0.013482478948553662 3.702256123838334e-21 1.1235591883116282e-08
220 2 0.881882 33.5939 1.4948 2.4 1.0 1.9126660363929034e-24 3.5745762963434993e-38 3.183055169749295e-38
221 3 0.859602 31.9807 1.4948 -1.2 0.9995635632423011 0.00043643675749833745 6.814504384017761e-22 2.0132026741857318e-13
222 3 7.507 34.568 1.4948 -1.2 0.9974702892419073 0.0025297107478828964 1.6316640120959955e-20 1.0206142267183579e-11
223 3 0.210186 34.3001 0.196716 -1.2 0.998216850847353 0.0017831491497535552 4.1070243960439853e-19 2.8914335869760744e-12
224 3 0.184454 34.3001 2.79288 -1.2 0.9569090836434885 0.043090916352717314 2.1467994305489694e-16 3.801001219945754e-12
225 1 7.07415 37.992 0 1.2 0.9086825430833699 0.09131730962525254 1.3335864765082988e-20 1.4729137461197532e-07
226 1 4.36817 42.6997 1.4948 1.2 0.9050958695423271 0.09489648159675665 7.521873939757662e-16 7.6488609193294e-06
227 2 6.16058 40.0155 1.4948 2.4 1.0 1.2229189338494275e-20 5.185419528961195e-32 5.2783424007254104e-34
228 3 6.22815 41.6288 1.4948 -1.2 0.8224130672813186 0.17758693226684888 3.2563408641628456e-14 4.5180263488745586e-10
229 3 2.53282 39.0415 1.4948 -1.2 0.9914274238682743 0.008572575901904906 1.0727609101052619e-18 2.2982536453618135e-10
230 3 5.44674 39.3094 0.196716 -1.2 0.9974208027091223 0.002579197256726677 2.737543828666687e-18 3.4148939647293316e-11
231 1 7.04922 37.992 2.9896 1.2 0.9799617757616975 0.020013878934629758 1.3141496696130577e-14 2.4345303661308922e-05
232 3 5.42658 39.3094 2.79288 -1.2 0.47921458737927625 0.5207854124930057 1.7491296340116986e-13 1.2755019479349013e-10
233 1 -0.333062 38.0333 4.4844 1.2 0.9962011456041419 0.003782298770533691 1.1128668003715784e-11 1.655561419242566e-05
234 2 -2.12255 40.7174 4.4844 2.4 1.0 7.001725610354615e-22 8.464438212852364e-29 5.967821260606087e-38
235 3 -2.19212 39.1042 4.4844 -1.2 0.011242915020039806 0.9887570849575509 1.1996214507146021e-11 1.0414564569005027e-11
236 3 1.50676 41.6915 4.4844 -1.2 0.0015664857621865704 0.9984335142035815 2.473163116528276e-11 9.502492256357242e-12
237 3 -1.3884 41.4236 3.18632 -1.2 0.030657103935411815 0.9693428960191377 1.0825146074754873e-11 3.463190926348082e-11
238 3 -1.40713 41.4236 5.78248 -1.2 0.0010605551839738324 0.9989394448126943 2.5976446085884964e-12 7.410446354293946e-13
239 1 2.01892 40.3665 2.9896 1.2 0.9162343985063472 0.08300662312082872 9.840752785582944e-11 0.0007589782744189957
240 1 4.83434 40.3252 4.4844 1.2 0.9946314549075403 0.005219103642128073 2.47247856260607e-10 0.00014944120307829457
241 2 3.02698 42.39 4.4844 2.4 1.0 3.2782691175195537e-22 7.812579438673413e-30 8.915122964299864e-39
242 3 3.05433 44.0033 4.4844 -1.2 0.01143096400654253 0.9885690359822961 5.243948718052124e-12 5.920651732806062e-12
243 3 -3.60077 41.416 4.4844 -1.2 0.0018454424579464534 0.9981545575234287 1.4144322713888682e-11 4.481613323882303e-12
244 3 3.71851 41.6839 3.18632 -1.2 0.1368717858951681 0.8631282140404081 4.0124025650555975e-12 6.04063605419636e-11
245 1 2.04077 40.3665 0 1.2 0.8225385174575596 0.17746092112722975 1.0862193092518387e-19 5.614152095313705e-07
246 3 3.70011 41.6839 5.78248 -1.2 0.001677600695134365 0.9983223993013542 2.579221270575897e-12 9.318203629306678e-13
247 1 -0.796865 40.4078 1.4948 1.2 0.9451668748337796 0.05483244423833264 3.2715402204208332e-18 6.809278931034331e-07
248 2 1.01387 38.3429 1.4948 2.4 1.0 4.609775789586122e-22 1.0443264786790812e-33 2.87553005811302e-35
249 3 0.989947 36.7297 1.4948 -1.2 0.9947664627424306 0.005233537251838292 1.5423319096852375e-18 5.7343320981072854e-12
250 3 7.63988 39.317 1.4948 -1.2 0.9861013493891625 0.013898650162813561 1.811956327468806e-18 4.480215475013373e-10
251 3 0.340253 39.0491 0.196716 -1.2 0.9950523521107325 0.004947647790150915 5.054450622568307e-18 9.911054243695803e-11
252 3 0.319795 39.0491 2.79288 -1.2 0.4327952087165737 0.5672047911672738 4.183113570084812e-13 1.1573404448175148e-10
253 1 7.20667 42.741 0 1.2 0.7492313965168693 0.2507675095121078 6.050931286450874e-18 1.093971024745737e-06
254 1 4.50613 47.4487 1.4948 1.2 0.9595182458720302 0.04047427765345083 3.3786927906370047e-14 7.476474478993492e-06
255 2 6.29731 44.7645 1.4948 2.4 1.0 1.5543137973819183e-18 3.3690338751557574e-29 6.505625212127819e-33
256 3 6.36567 46.3778 1.4948 -1.2 0.43712770730866096 0.5628722925254755 1.8327637975710178e-12 1.6403594553624968e-10