ITEM: TIMESTEP
1900
ITEM: NUMBER OF ATOMS
10500
ITEM: BOX BOUNDS xy xz yz pp pp pp
0	15.2977	5.09925
0	118.725	0
0	89.688	0
ITEM: ATOMS id type xu yu zu q pCrystal pDisloC pSF pDisloB pDisloA
1 1 6.2404 -6.37941e-06 0 1.2 4.691550637282079e-16 3.2124817012963986e-12 0.9999996198220641 3.801161595016072e-07 5.856381285726829e-11
2 1 3.46349 4.70768 1.4948 1.2 5.179129325113775e-10 3.069688350145705e-08 0.9999999003324312 6.798745305712855e-08 4.65313748075036e-10
3 2 5.2885 2.02354 1.4948 2.4 2.1854812335892147e-13 6.221399412498203e-10 0.9999999754458034 2.3911648385221773e-08 2.018838722170922e-11
4 3 5.33628 3.63678 1.4948 -1.2 3.7383962952103547e-10 3.6786103447943705e-08 0.9999999406987303 1.1008091076725637e-08 1.1133239393136791e-08
5 3 1.67294 1.04952 1.4948 -1.2 2.0588886385654593e-13 1.6937823514050271e-09 0.999999662119919 3.352163695407631e-07 9.697215845512599e-10
6 3 4.59532 1.31737 0.196716 -1.2 1.5192058581843635e-14 3.864150318203945e-10 0.9999998443306147 1.546750309876332e-07 6.079173182497583e-10
7 1 6.18956 -6.37941e-06 2.9896 1.2 6.37256983436833e-16 1.1110671147909925e-10 0.9999952868572219 4.711501430213939e-06 1.5302443336367394e-09
8 3 4.55118 1.31737 2.79288 -1.2 3.623434253115783e-16 1.2679688659481906e-11 0.999997909367377 2.090462861885224e-06 1.5707942672387287e-10
9 1 -1.20682 0.0413099 4.4844 1.2 2.207396863718768e-15 8.625613902417143e-11 0.9999657415207374 3.42572426648949e-05 1.1503402052056617e-09
10 2 -3.0337 2.72544 4.4844 2.4 1.2340803181555613e-11 7.266752240858602e-08 0.9999377484493279 6.213333644635755e-05 4.5534363114815874e-08
11 3 -3.08099 1.11221 4.4844 -1.2 5.901651408901626e-15 2.3436105986322597e-10 0.9999836753791769 1.6323433860382895e-05 9.525930968268114e-10
12 3 0.582463 3.69946 4.4844 -1.2 7.278169925947221e-12 6.50026510079518e-10 0.9999936817391355 6.308291044414929e-06 9.312517487155634e-09
13 3 -2.29524 3.43162 3.18632 -1.2 1.3006513542055748e-10 1.6625350847370752e-08 0.9999995619881865 4.1127312198693123e-07 9.983277258682047e-09
14 3 -2.34216 3.43162 5.78248 -1.2 2.9011767953302126e-12 1.3798205523996947e-10 0.999951428714803 4.8564120961090283e-05 7.0233467523388035e-09
15 1 1.12778 2.37449 2.9896 1.2 3.587619517021762e-13 1.4026573373944379e-09 0.9999905053907668 9.492449537893902e-06 7.566831894273522e-10
16 1 3.92855 2.33318 4.4844 1.2 1.6464112439127063e-14 6.140636072397253e-11 0.9999132682180274 8.673080909928431e-05 9.114498788433845e-10
17 2 2.09341 4.39804 4.4844 2.4 3.113234543209589e-12 5.6568729302597274e-09 0.9999874161434351 1.2577013977880973e-05 1.1825977177014156e-09
18 3 2.09991 6.01128 4.4844 -1.2 3.703297210857469e-09 1.2775116141653744e-08 0.9999999494001357 1.715821924201315e-08 1.696323073481114e-08
19 3 -4.52137 3.42402 4.4844 -1.2 1.3232894576996597e-12 7.856874448724095e-10 0.9999829647545881 1.7007105214507373e-05 2.7353193629897853e-08
20 3 2.80834 3.69187 3.18632 -1.2 3.440477653545111e-12 8.802743442631642e-10 0.9999998643011402 1.3432695354501932e-07 4.881955958501588e-10
21 1 1.17857 2.37449 0 1.2 8.578330070969692e-15 2.476397792839674e-10 0.9999992207827029 7.786658719024067e-07 3.0378290604548487e-10
22 3 2.76143 3.69187 5.78248 -1.2 2.9281711806666406e-13 3.729563775044379e-11 0.9999811170224965 1.888085962866913e-05 2.0802836642809694e-09
23 1 -1.67381 2.41581 1.4948 1.2 9.54820860953522e-11 3.22201532437757e-08 0.9999977137624385 2.247824707150082e-06 6.09722142866445e-09
24 2 0.16286 0.350945 1.4948 2.4 2.684823887971093e-13 2.193104596320093e-09 0.9999989904563742 1.0068603121498495e-06 4.899415402660096e-10
25 3 0.15972 -1.26229 1.4948 -1.2 8.20939376673372e-12 2.0356741124670023e-08 0.9999997750622751 1.9529457301265538e-07 9.278207534150114e-09
26 3 6.77654 1.32496 1.4948 -1.2 1.3388858686885958e-12 6.1326600964544345e-09 0.9999999032800748 8.197848137241165e-08 8.607438173404447e-09
27 3 -0.508028 1.05712 0.196716 -1.2 3.542050921525184e-14 1.1373526634003102e-09 0.9999995928816905 4.0424467987195864e-07 1.7362460654431414e-09
28 3 -0.552171 1.05712 2.79288 -1.2 1.363355540565225e-13 8.921474253030717e-10 0.9999957421401415 4.250469272629222e-06 6.498298775535497e-09
29 1 6.31713 4.74899 0 1.2 1.5466202084601333e-10 3.9972901146364377e-08 0.9999999085154101 4.9895114414436923e-08 1.4619092612213398e-09
30 1 3.54847 9.45668 1.4948 1.2 4.884522505493996e-05 4.3460079075045424e-07 0.9999505884378914 3.051084824739527e-11 1.3170575426560037e-07
31 2 5.36879 6.77254 1.4948 2.4 2.5525227572376935e-06 6.84358094652718e-06 0.9999903057816165 2.4108309862516385e-10 2.978736018439975e-07
32 3 5.41937 8.38578 1.4948 -1.2 0.0007830609694888717 7.838980065990872e-05 0.9991328407340246 4.42557998782862e-13 5.708495389096704e-06
33 3 1.75158 5.79852 1.4948 -1.2 4.054934411759969e-06 9.168305385742603e-06 0.9999861584640963 9.166192452167201e-11 6.182044440965489e-07
34 3 4.67421 6.06637 0.196716 -1.2 2.5585240988602872e-08 4.6676698264631875e-07 0.9999994981883 4.56493547681946e-11 9.413824504699687e-09
35 1 6.26654 4.74899 2.9896 1.2 2.926579097465114e-10 1.6987527304199506e-08 0.9999993855481404 5.858614043282394e-07 1.1310275887222037e-08
36 3 4.63043 6.06637 2.79288 -1.2 4.10254026886993e-08 1.7204150357292946e-07 0.9999997414547345 2.854299791657147e-09 4.2624060907232126e-08
37 1 -1.12976 4.79031 4.4844 1.2 2.0482981227922846e-10 7.424282195286172e-10 0.9999971952506255 2.8021706348898924e-06 1.6314826241146087e-09
38 2 -2.9517 7.47444 4.4844 2.4 5.8044697648597325e-09 9.090836958517721e-08 0.9999948646520931 5.828641392118926e-07 4.455770931507836e-06
39 3 -3.00198 5.86121 4.4844 -1.2 2.2611572648809345e-10 6.050501955316658e-10 0.9999999273501059 6.825429209473376e-08 3.5644405468734892e-09
40 3 0.666315 8.44846 4.4844 -1.2 1.7377848110103473e-07 1.808595295486614e-07 0.9999985106718304 5.819674656564701e-10 1.1341081875219496e-06
41 3 -2.21213 8.18062 3.18632 -1.2 9.070719747452277e-07 1.4196856756061247e-07 0.9999986701398914 5.72213801324656e-11 2.8076234474758346e-07
42 3 -2.25864 8.18062 5.78248 -1.2 2.9410284058726135e-08 4.985837981890439e-09 0.9999993809153052 7.364843944492754e-09 5.773237309984677e-07
43 1 1.20893 7.12349 2.9896 1.2 1.7905437601416014e-07 1.8811025872116863e-07 0.9999995810407708 5.9745641717776304e-09 4.5820031597481155e-08
44 1 4.00982 7.08218 4.4844 1.2 3.955107243659427e-08 1.6910066710294217e-08 0.9999997973448905 4.3733672884204056e-08 1.0246029345284777e-07
45 2 2.17861 9.14704 4.4844 2.4 1.5381849482074993e-06 9.125708427282843e-07 0.9999926731755094 9.877451736922892e-09 4.866191245640889e-06
46 3 2.18828 10.7603 4.4844 -1.2 5.49715433177322e-06 9.499852014006523e-08 0.9999938158453231 1.4490920634894766e-11 5.919873389954789e-07
47 3 -4.43805 8.17302 4.4844 -1.2 4.574004323633486e-08 5.177229286030906e-08 0.9999990170965559 6.336986496575861e-10 8.847574081937486e-07
48 3 2.89193 8.44087 3.18632 -1.2 2.936211374371105e-06 3.012216531746265e-07 0.9999962647558632 1.3830469611477141e-10 4.976728052182408e-07
49 1 1.25915 7.12349 0 1.2 2.4043057686381194e-07 4.084921292546617e-07 0.9999993463720931 2.4891627472140914e-10 4.456287017163891e-09
50 3 2.84547 8.44087 5.78248 -1.2 3.290756428284325e-08 5.115630803508896e-09 0.9999996097344928 5.030881627459206e-09 3.472114368011386e-07
51 1 -1.59284 7.16481 1.4948 1.2 9.801190106445362e-07 5.443527603604534e-07 0.9999984335856926 4.852208732642601e-10 4.145731928821874e-08
52 2 0.240329 5.09994 1.4948 2.4 1.2637445099613424e-09 1.203951504595862e-07 0.9999998734716025 4.7330246332548085e-09 1.3648296302438326e-10
53 3 0.234538 3.48671 1.4948 -1.2 2.149611083009887e-11 1.5428317698669025e-08 0.9999999639818504 1.6051534195179e-08 4.516797306238804e-09
54 3 6.85564 6.07396 1.4948 -1.2 6.362142632200938e-07 3.2921586247557315e-06 0.9999954529446805 1.812062105297707e-10 6.185012277621931e-07
55 3 -0.429565 5.80612 0.196716 -1.2 2.9279538971929928e-09 7.25138579943132e-08 0.9999999230490489 1.7867932403394035e-10 1.3304663602573981e-09
56 3 -0.473377 5.80612 2.79288 -1.2 4.429256913649472e-09 1.1409988592120493e-08 0.9999999646710769 1.3090562066961093e-08 6.399112236613445e-09
57 1 6.40169 9.49799 0 1.2 4.547220539012808e-05 1.4834103519829214e-06 0.999952927379668 1.8146068708646605e-12 1.1700278198791691e-07
58 1 3.64209 14.2057 1.4948 1.2 0.0002356274362184702 5.040826067144167e-07 0.9997635838948206 1.0084933413905984e-12 2.845853417931646e-07
59 2 5.45748 11.5215 1.4948 2.4 0.0015884769876782013 1.5897217669918335e-05 0.9983953844103545 9.053902893581179e-14 2.4138420830525625e-07
60 3 5.51101 13.1348 1.4948 -1.2 0.01928439480172025 0.0001055320826960031 0.9805996614391811 1.2783639956955304e-14 1.041167638679499e-05
61 3 1.83851 10.5475 1.4948 -1.2 0.0047879232798977624 1.6483350076513433e-05 0.9951928744460504 2.1935639147881432e-14 2.718923952681233e-06
62 3 4.7611 10.8154 0.196716 -1.2 0.0006815206399389184 1.3772516710276704e-05 0.999304003121442 7.07420159211162e-14 7.037218433034617e-07
63 1 6.35203 9.49799 2.9896 1.2 2.984335854473563e-05 1.9503643157546274e-06 0.9999673927603392 7.580463232446219e-11 8.134410023989091e-07
64 3 4.71833 10.8154 2.79288 -1.2 9.361917789867133e-05 1.3003397750194327e-06 0.9999042396192134 2.7651110178359724e-12 8.408603441921938e-07
65 1 -1.0438 9.53931 4.4844 1.2 1.9199415441694536e-06 4.7954293746379874e-08 0.9999976295372861 5.572951926114378e-09 3.9699392570205114e-07
66 2 -2.8604 12.2234 4.4844 2.4 5.93254344460481e-06 7.182282285974469e-07 0.9999920467527313 3.5980511083039013e-10 1.3021157909222648e-06
67 3 -2.91391 10.6102 4.4844 -1.2 8.869469683647351e-06 2.134056335565904e-07 0.999990043328666 7.311839049687835e-12 8.73788707179617e-07
68 3 0.7596 13.1975 4.4844 -1.2 1.3504854558305207e-05 7.975699922819389e-07 0.9999839157641672 1.3299486573222602e-11 1.7817979814348873e-06
69 3 -2.12001 12.9296 3.18632 -1.2 9.298710934199762e-05 9.562775294407857e-07 0.9999052724502799 1.276471119853144e-12 7.841615653030484e-07
70 3 -2.16532 12.9296 5.78248 -1.2 2.2890619995433075e-05 9.721632028368163e-08 0.9999744672663667 6.515233944384989e-11 2.544832169494987e-06
71 1 1.29891 11.8725 2.9896 1.2 0.00010949432387654436 1.1182576046227004e-06 0.9998883828129334 1.8403466262119736e-11 1.0045871851081058e-06
72 1 4.10033 11.8312 4.4844 1.2 1.569753355609963e-05 4.622169935948495e-08 0.9999832333731594 1.2746785881866058e-09 1.0215969064887807e-06
73 2 2.27333 13.896 4.4844 2.4 6.310734467208333e-05 1.1083233998874825e-06 0.9999339279485284 1.0094032712153182e-10 1.856282452508697e-06
74 3 2.28634 15.5093 4.4844 -1.2 8.761400136493995e-05 2.578987153012888e-07 0.999911531809715 1.8794332904735445e-13 5.962900157122986e-07
75 3 -4.34533 12.922 4.4844 -1.2 3.3143081773074807e-06 1.3745142675010296e-07 0.9999956545250142 2.3263501166821854e-11 8.936921168140443e-07
76 3 2.98455 13.1899 3.18632 -1.2 8.705039504274049e-05 8.788683112473818e-07 0.9999112710849918 2.438703093450657e-12 7.996492110900328e-07
77 1 1.34779 11.8725 0 1.2 0.0003583166450600057 2.2737365760184777e-06 0.9996388790004824 8.019098961785921e-13 5.306170864033973e-07
78 3 2.93934 13.1899 5.78248 -1.2 1.0669551299006255e-05 2.885084593609865e-08 0.9999886831334684 4.7014779588331604e-11 6.184173748366728e-07
79 1 -1.50344 11.9138 1.4948 1.2 0.0002847249465661652 1.475751392538626e-06 0.9997133185673613 1.0637448123804769e-12 4.807336182328755e-07
80 2 0.326006 9.84894 1.4948 2.4 0.0004392931219753102 9.630928580833383e-06 0.9995509306593328 1.6368232414821482e-13 1.4528994716464377e-07
81 3 0.317364 8.23571 1.4948 -1.2 0.0003209129773472471 1.6359070647016178e-05 0.9996610330936959 3.369811590590711e-12 1.6948549438326707e-06
82 3 6.94307 10.823 1.4948 -1.2 0.00356190571137748 3.810266724778566e-05 0.9963974581754339 1.876244282943673e-14 2.5334459174807803e-06
83 3 -0.343122 10.5551 0.196716 -1.2 0.0003328198417090516 8.536376993093582e-06 0.9996581828631477 1.5321346528407796e-13 4.609179909740106e-07
84 3 -0.385966 10.5551 2.79288 -1.2 6.027587788892642e-05 9.986551922928688e-07 0.9999379550766518 1.350892900195557e-11 7.703767550796734e-07
85 1 6.49448 14.247 0 1.2 0.001263291335037803 1.852240150224271e-06 0.9987341220718559 7.356050887787915e-14 7.343528832816204e-07
86 1 3.74457 18.9547 1.4948 1.2 6.660863514472028e-05 2.1021352459087083e-07 0.9999331305657603 2.9432793259921053e-13 5.058526955524843e-08
87 2 5.55495 16.2705 1.4948 2.4 0.000941520579465788 8.539253362747538e-06 0.9990499192373693 2.8826798788354403e-15 2.0929795301172203e-08
88 3 5.6115 17.8838 1.4948 -1.2 0.00745702095599453 4.4359676644202644e-05 0.992497687539554 1.1140264212705312e-15 9.318278077468844e-07
89 3 1.93416 15.2965 1.4948 -1.2 0.018716263811883075 2.7055686481756254e-05 0.9812550352432124 8.112929322022559e-16 1.6452584165647765e-06
90 3 4.85636 15.5644 0.196716 -1.2 0.009620737929834004 2.920340704130862e-05 0.990348857623686 3.38488020559237e-15 1.2010394386268454e-06
91 1 6.44662 14.247 2.9896 1.2 0.0001252167953771095 8.530301677784757e-07 0.9998732825227907 3.3529990839319074e-12 6.476483155370276e-07
92 3 4.81537 15.5644 2.79288 -1.2 0.0006488660855613503 5.284160129356094e-06 0.9993446427220608 2.879028299918717e-13 1.2070319618841e-06
93 1 -0.948271 14.2883 4.4844 1.2 2.2410166112394118e-05 1.020747697785735e-07 0.9999766276907462 3.3079871055828284e-10 8.59737567229466e-07
94 2 -2.75928 16.9724 4.4844 2.4 0.00010957144858977967 7.738714510981178e-07 0.9998894131430709 8.295366198224728e-12 2.415285903446737e-07
95 3 -2.81617 15.3592 4.4844 -1.2 3.1753253518439524e-05 2.2978819825968299e-07 0.9999673639229792 4.0092264930204423e-13 6.530349039478172e-07
96 3 0.862762 17.9465 4.4844 -1.2 4.134429428016582e-05 6.595510947656877e-07 0.9999574351818066 8.573724886492233e-13 5.609719594785746e-07
97 3 -2.0185 17.6786 3.18632 -1.2 0.00017666659901566437 7.416788296824203e-07 0.9998223931100876 6.218839729596186e-14 1.9861200056493975e-07
98 3 -2.06164 17.6786 5.78248 -1.2 0.0002184864520983018 1.0406692681978789e-07 0.9997801106008132 2.3035253184317846e-12 1.298877858702295e-06
99 1 1.39817 16.6215 2.9896 1.2 0.00026404239758856486 1.0512754256103735e-06 0.9997342279037691 1.1547508780414391e-12 6.784220690654255e-07
100 1 4.20062 16.5802 4.4844 1.2 2.5655341571880783e-05 3.370857552961851e-08 0.9999739727368102 1.4964823228879567e-10 3.3806339306030215e-07
101 2 2.37796 18.645 4.4844 2.4 6.246867098464016e-05 3.265772698962204e-07 0.9999371314220523 3.791898194296516e-12 7.332589574177159e-08
102 3 2.39434 20.2583 4.4844 -1.2 0.00013014275530122226 1.726049874725848e-07 0.9998694569130546 1.5220908176992018e-14 2.2772664441609074e-07
103 3 -4.24274 17.671 4.4844 -1.2 2.7036929221099734e-05 3.458574342214165e-07 0.9999722774349084 1.2524317006591494e-12 3.397771898095125e-07
104 3 3.08659 17.9389 3.18632 -1.2 0.00011587435457713303 7.723452106234854e-07 0.9998831126023434 2.434887847343984e-13 2.4069762078177104e-07
105 1 1.44478 16.6215 0 1.2 0.0013806211319731293 1.0058217577093264e-06 0.9986178233133902 8.761367275634011e-14 5.497327903274652e-07
106 3 3.0436 17.9389 5.78248 -1.2 5.282863157631863e-05 1.586148500676804e-08 0.9999469399657589 3.059113844708565e-12 2.155381235839926e-07
107 1 -1.40524 16.6628 1.4948 1.2 0.0009289642726098528 1.5316207008117693e-06 0.9990689814553086 9.66097208704356e-14 5.226512830044203e-07
108 2 0.420358 14.5979 1.4948 2.4 0.0025928601860263426 1.4583257916676635e-05 0.9973924734671736 1.9069515617601225e-14 8.308886142419916e-08
109 3 0.408732 12.9847 1.4948 -1.2 0.01612374376038557 6.672757317327105e-05 0.9838059543459846 1.0471776547497709e-14 3.5743204457621164e-06
110 3 7.03923 15.572 1.4948 -1.2 0.017624489307817678 6.575472313849296e-05 0.9823071176442347 1.416429640679253e-15 2.638324812965949e-06
111 3 -0.248332 15.3041 0.196716 -1.2 0.002279148495399314 2.330887346945095e-05 0.9976968980887004 1.7699166727114814e-14 6.445424105738028e-07
112 3 -0.289436 15.3041 2.79288 -1.2 0.000974389342669608 6.924213988626838e-06 0.9990165451021515 1.068560645446803e-12 2.1413401194968336e-06
113 1 6.59566 18.996 0 1.2 0.00036474675323721175 2.136022306289257e-07 0.9996349535766706 4.402278067124209e-15 8.606785204998586e-08
114 1 3.85574 23.7037 1.4948 1.2 0.0013202350595211134 9.597081629560404e-07 0.998678452425234 1.609895542379808e-13 3.5280692539624896e-07
115 2 5.66125 21.0195 1.4948 2.4 0.002225938806754641 4.856298100275209e-06 0.9977691992403092 1.3618032891105273e-15 5.654834091174722e-09
116 3 5.72074 22.6328 1.4948 -1.2 0.03697963530676108 7.485894085178806e-05 0.9629440949663909 8.221477359046789e-16 1.41078599420961e-06
117 3 2.03867 20.0455 1.4948 -1.2 0.0298167506365628 3.859383093258545e-05 0.9701435454642964 1.0613227911039898e-16 1.1100682150307341e-06
118 3 4.96004 20.3134 0.196716 -1.2 0.006217442834514826 1.1934027423519655e-05 0.9937703225933362 6.426684003147352e-16 3.0054473042799465e-07
119 1 6.55057 18.996 2.9896 1.2 9.411868218158392e-05 3.0901412311029297e-07 0.9999054466852713 2.2828119636838136e-13 1.2561819868526618e-07
120 3 4.92172 20.3134 2.79288 -1.2 0.0004891491749710685 3.3989279263020177e-06 0.9995070875108916 6.057640262047701e-14 3.643861479978505e-07
121 1 -0.84282 19.0373 4.4844 1.2 2.260998018114057e-05 4.3389753263499626e-08 0.9999771566387659 2.12829376250902e-11 1.899700134681439e-07
122 2 -2.64823 21.7214 4.4844 2.4 0.00021572327178379008 2.7401354482751206e-07 0.9997839744404629 9.72588825024092e-13 2.8273229743956563e-08
123 3 -2.70847 20.1082 4.4844 -1.2 5.719201379859193e-05 1.3364486402865392e-07 0.9999425644647898 2.001468926889616e-14 1.0987653237178024e-07
124 3 0.97581 22.6955 4.4844 -1.2 0.0003701037024729858 1.5398101192889382e-06 0.99962758991857 2.870751132666639e-13 7.66568557406342e-07
125 3 -1.9076 22.4276 3.18632 -1.2 0.0005696361036540159 7.106104831352061e-07 0.9994295313002848 1.3001917662537168e-14 1.219855596974006e-07
126 3 -1.9475 22.4276 5.78248 -1.2 0.00040845305248252237 3.877164513240671e-08 0.9995911243613893 4.784206221819734e-13 3.8381399771068207e-07
127 1 1.50678 21.3705 2.9896 1.2 0.0005153993116461933 6.343939481073903e-07 0.9994835612148228 1.8905104905288296e-13 4.050793917235149e-07
128 1 4.31086 21.3292 4.4844 1.2 1.990865770663229e-05 1.0223716912201033e-08 0.9999800390973087 1.2254355048255376e-11 4.20090160651648e-08
129 2 2.49243 23.394 4.4844 2.4 0.0003855654431084587 4.3262492488455506e-07 0.9996139376181978 3.2674291956343757e-12 6.431050622309282e-08
130 3 2.51204 25.0073 4.4844 -1.2 0.0002491292641741976 1.573165314537901e-07 0.999750381234158 2.4169431236787933e-14 3.32185118481131e-07
131 3 -4.13026 22.42 4.4844 -1.2 0.000108991583472211 4.4013381737016683e-07 0.9998903936131633 1.4776315787976462e-13 1.746694053959179e-07
132 3 3.19799 22.6879 3.18632 -1.2 0.0006137056382775547 1.4645204061282764e-06 0.9993846186013223 2.587710980785164e-14 2.112399615559973e-07
133 1 1.5501 21.3705 0 1.2 0.001876820392019452 7.229044660382992e-07 0.9981221203447467 1.2241669308468872e-14 3.363587534816161e-07
134 3 3.1583 22.6879 5.78248 -1.2 0.00014799915970755084 1.145770520883362e-08 0.9998518719189806 6.125340496165231e-13 1.1746299138053444e-07
135 1 -1.29822 21.4118 1.4948 1.2 0.001160971027900492 8.86532986377633e-07 0.9988379145099012 9.914302535671235e-15 2.2792919944903004e-07
136 2 0.523568 19.3469 1.4948 2.4 0.0007063785822783322 3.3542309123950654e-06 0.9992902650793513 1.7988828235170173e-15 2.107459751347672e-09
137 3 0.508934 17.7337 1.4948 -1.2 0.005516356045109257 4.442116015095912e-05 0.9944386402866787 1.687969534441615e-15 5.825080585678184e-07
138 3 7.14425 20.321 1.4948 -1.2 0.01707046137277694 5.7219089893461295e-05 0.9828715592776461 1.2566966825966316e-16 7.602596823645337e-07
139 3 -0.145107 20.0531 0.196716 -1.2 0.0025467412475993763 1.2837743763553903e-05 0.9974402755475132 1.3697476373208117e-15 1.4546112627679328e-07
140 3 -0.183601 20.0531 2.79288 -1.2 0.0025864908508717844 1.1840895373076065e-05 0.997400797616877 4.386279675794732e-14 8.706368407411505e-07
141 1 6.70502 23.745 0 1.2 0.008638674169838684 2.558072323043507e-06 0.9913575113199464 7.571206959644377e-15 1.256437878380726e-06
142 1 3.97493 28.4527 1.4948 1.2 0.2466891947110042 2.155136474539601e-05 0.7532500461905942 2.0561109099034368e-12 3.920773159586593e-05
143 2 5.77602 25.7685 1.4948 2.4 0.3862889305309002 4.29976386767625e-05 0.6136678415955713 5.2447322030420085e-15 2.3023484990507938e-07
144 3 5.83821 27.3818 1.4948 -1.2 0.7860743789600799 8.25072570790675e-05 0.2138279624468214 1.6520176361932829e-15 1.5151336023074577e-05
145 3 2.15175 24.7945 1.4948 -1.2 0.7958690301307004 0.00020810845598460688 0.20390950937832272 7.896662558297932e-17 1.3352034988685647e-05
146 3 5.07184 25.0624 0.196716 -1.2 0.3936411447951847 6.919863065740326e-05 0.6062797950597207 3.2299282667293704e-15 9.861514433694896e-06
147 1 6.66374 23.745 2.9896 1.2 0.0009032732162325447 8.097660665536924e-07 0.9990955326136345 8.015330344076282e-14 3.844039920918014e-07
148 3 5.03707 25.0624 2.79288 -1.2 0.0057984282600691914 9.693586956330899e-06 0.9941901442543225 8.256540849258325e-14 1.733898565568502e-06
149 1 -0.727559 23.7863 4.4844 1.2 9.09189341222232e-05 5.4973903652152456e-08 0.999908843307165 8.016171164227547e-12 1.827767943353885e-07
150 2 -2.5277 26.4704 4.4844 2.4 0.0010478777054727152 1.7284172438557555e-07 0.9989519014824395 1.6076883499032613e-12 4.7968749763846854e-08
151 3 -2.59107 24.8572 4.4844 -1.2 0.00020917759132954523 1.5058772325694228e-07 0.9997904890613668 1.2723662038763273e-14 1.827595712907205e-07
152 3 1.09817 27.4445 4.4844 -1.2 0.0068263277936365194 2.5821906525709523e-06 0.9931666188502162 4.679099178869293e-13 4.471165023515965e-06
153 3 -1.78784 27.1766 3.18632 -1.2 0.0044714759131516905 7.138976593669132e-07 0.9955273644014802 7.172816320672365e-14 4.457876435356474e-07
154 3 -1.82343 27.1766 5.78248 -1.2 0.0023709339536545707 5.424181845698147e-08 0.99762861279101 4.0643911621960794e-13 3.9901310467652607e-07
155 1 1.62435 26.1195 2.9896 1.2 0.011311412236325546 1.5664547273029182e-06 0.9886849267680293 1.8360124428074944e-13 2.094540730561216e-06
156 1 4.43064 26.0782 4.4844 1.2 0.0002238023087816487 2.3697096109520657e-08 0.9997760502359909 9.138554426184722e-12 1.2374898775884383e-07
157 2 2.61607 28.143 4.4844 2.4 0.0025597596526157327 3.434451342920937e-07 0.9974396492068877 1.3251517794709942e-11 2.4768210410443293e-07
158 3 2.63853 29.7563 4.4844 -1.2 0.0004340570774474358 6.821284003474317e-08 0.9995651947387486 4.592707752538633e-13 6.799705025172389e-07
159 3 -4.00841 27.169 4.4844 -1.2 0.0011026633524142792 6.061976527048358e-07 0.9988960890055403 2.3039979311452944e-13 6.41444157949377e-07
160 3 3.3182 27.4369 3.18632 -1.2 0.014424061230348893 3.4493925161979646e-06 0.9855698899458104 1.2612364086670875e-13 2.5994311913812074e-06
161 1 1.66335 26.1195 0 1.2 0.09484517052815783 1.5225959705196468e-05 0.9051259955861551 3.0883418590944375e-14 1.3607925947436439e-05
162 3 3.28288 27.4369 5.78248 -1.2 0.00023149780755409924 1.062332313233099e-08 0.9997683724100634 1.2485313487538731e-12 1.1915780525713674e-07
163 1 -1.18278 26.1608 1.4948 1.2 0.10603054649167534 1.5277314658497977e-05 0.8939427689740983 6.425440795666938e-14 1.140721949813189e-05
164 2 0.635424 24.0959 1.4948 2.4 0.009441144057505981 4.001930072359987e-06 0.990554849836671 1.8109693830094287e-15 4.175754867136793e-09
165 3 0.617906 22.4827 1.4948 -1.2 0.023004164283678893 4.562036388728125e-05 0.9769496023575748 5.182988697736075e-16 6.129948522589406e-07
166 3 7.25781 25.07 1.4948 -1.2 0.5171890858546425 0.0002447964505599233 0.4825552060523248 2.1854743540579647e-16 1.0911642466341013e-05
167 3 -0.0337363 24.8021 0.196716 -1.2 0.12431358517325962 5.8098590545840526e-05 0.8756251058608088 1.8710507267187778e-15 3.2103753897068e-06
168 3 -0.0687235 24.8021 2.79288 -1.2 0.014504584480130287 1.8460019238387768e-05 0.9854746483685143 6.559713828721286e-14 2.307132049248307e-06
169 1 6.82195 28.494 0 1.2 0.4383093505893129 3.870860584471125e-05 0.5615681762353445 1.1315048224173663e-13 8.376456938255123e-05
170 1 4.10106 33.2017 1.4948 1.2 0.7578005575067471 0.00018668455105655564 0.2412336332831202 1.695784901325812e-10 0.0007791244894914112
171 2 5.89839 30.5175 1.4948 2.4 0.9942185331776556 7.96014069351646e-06 0.005772719094424939 3.779719694053933e-15 7.875872203803473e-07
172 3 5.96289 32.1308 1.4948 -1.2 0.9304030752476989 6.1708529073702e-05 0.0694773035282546 9.927010550641985e-14 5.79126948678578e-05
173 3 2.27266 29.5435 1.4948 -1.2 0.9869779100339268 7.953827459502017e-05 0.012885135471010428 1.4400057762256328e-15 5.741622046827777e-05
174 3 5.19102 29.8114 0.196716 -1.2 0.9764177743823651 1.4756070277655212e-05 0.023542912020663068 3.926728642460968e-15 2.4557526692260188e-05
175 1 6.78546 28.494 2.9896 1.2 0.030999198628334335 3.2372518234257524e-06 0.9689898182536062 1.0994764228586584e-12 7.745865142305481e-06
176 3 5.16061 29.8114 2.79288 -1.2 0.10661864810141466 2.3710725335432977e-05 0.893338033809591 1.3837704969571674e-12 1.9607362274774287e-05
177 1 -0.603205 28.5353 4.4844 1.2 0.00115360534377049 1.394540959501604e-07 0.9988450023919035 3.393427765970392e-11 1.2527762919308013e-06
178 2 -2.39877 31.2194 4.4844 2.4 0.004424746821299043 5.100641133419272e-07 0.9955739068822436 5.944197598144556e-11 8.361728970499774e-07
179 3 -2.46483 29.6062 4.4844 -1.2 0.00019664934883662524 6.944192902393996e-08 0.9998029758204997 3.7660105272941196e-13 3.053883609366417e-07
180 3 1.22864 32.1935 4.4844 -1.2 0.004286519981983128 2.3287856545466068e-06 0.9956988639652603 1.9368424778209564e-11 1.2287247736488737e-05
181 3 -1.66032 31.9256 3.18632 -1.2 0.01565612090207382 2.341821411115305e-06 0.9843370982229782 5.1733816655211835e-12 4.439048367089342e-06
182 3 -1.69072 31.9256 5.78248 -1.2 0.0008648902364578071 2.97739682775683e-08 0.999134665391434 6.218904686167374e-12 4.145919190860872e-07
183 1 1.7499 30.8685 2.9896 1.2 0.12200701457081656 9.125562851497664e-06 0.8779404334017492 8.214125663275385e-12 4.342645636340852e-05
184 1 4.55894 30.8272 4.4844 1.2 0.002572006510222469 5.253287112279967e-08 0.997426949363822 1.3140419372064362e-10 9.914616799776337e-07
185 2 2.7476 32.892 4.4844 2.4 0.0032289819673310075 4.928098539597559e-07 0.9967690508253662 3.620575759516826e-10 1.474035387501723e-06
186 3 2.77235 34.5053 4.4844 -1.2 0.00010898990367128277 3.873799411349256e-08 0.9998900705626859 1.4862339992073336e-11 9.00780790411025e-07
187 3 -3.87837 31.918 4.4844 -1.2 0.0013296734345768359 5.592711325939466e-07 0.9986667764799495 9.19455465779252e-12 2.9908051501134174e-06
188 3 3.44611 32.1859 3.18632 -1.2 0.052759021994498854 7.392473429597555e-06 0.9472127690822397 1.1212223980349598e-11 2.0816438618139908e-05
189 1 1.7837 30.8685 0 1.2 0.8335457810593567 5.8948411787115324e-05 0.16610673748133853 3.429558874363164e-13 0.0002885330471734645
190 3 3.41602 32.1859 5.78248 -1.2 0.00018665823043994425 8.543904239872118e-09 0.999813176894799 1.9211220997664024e-11 1.5631164890754948e-07
191 1 -1.05984 30.9098 1.4948 1.2 0.8850197315198379 8.965481563685814e-05 0.11466075769256708 1.1644869529973845e-12 0.0002298559707921995
192 2 0.755243 28.8449 1.4948 2.4 0.9498351343091735 7.170804035028096e-06 0.05015754767050871 1.8775460417475433e-15 1.472162838720579e-07
193 3 0.735127 27.2317 1.4948 -1.2 0.8345865893331518 6.559484856719108e-05 0.16533919417847875 8.327667096886802e-16 8.621639807231315e-06
194 3 7.37914 29.819 1.4948 -1.2 0.9658744713824177 0.0001247379911968996 0.03393097419592526 3.150660866684707e-15 6.981643045859831e-05
195 3 0.0850649 29.5511 0.196716 -1.2 0.7680724615958393 8.375532963133847e-05 0.23180537523532213 4.9682013799907937e-14 3.840783915173331e-05
196 3 0.0543974 29.5511 2.79288 -1.2 0.25823525969963806 4.5147168783910886e-05 0.7416956913308095 7.603193667996792e-13 2.3901800011678628e-05
197 1 6.94543 33.243 0 1.2 0.8827692568049743 6.110659677165829e-05 0.11671049482263754 1.9237440275254567e-12 0.0004591417736860035
198 1 4.23267 37.9507 1.4948 1.2 0.41953766807405857 0.00018596401111117868 0.5795432097587042 3.863960856575389e-09 0.0007331542921669658
199 2 6.02709 35.2665 1.4948 2.4 0.9980348283445569 2.1261144214040092e-05 0.0019362913501435079 1.1969605790302771e-13 7.6191609617525794e-06
200 3 6.09339 36.8798 1.4948 -1.2 0.5661495094815623 0.00015852826393663777 0.43349266513020945 1.96798836843887e-11 0.00019929710461241302
201 3 2.40018 34.2925 1.4948 -1.2 0.9362157145017437 0.0003919329576892589 0.06274207204448713 1.918842309145376e-12 0.000650280494160855
202 3 5.31645 34.5604 0.196716 -1.2 0.9848667877579893 3.23225014955856e-05 0.014940406956533602 2.7133671703545533e-13 0.00016048278370948981
203 1 6.91449 33.243 2.9896 1.2 0.1115968850221742 1.2563032920737142e-05 0.8882756546623287 1.6108952038397147e-10 0.00011489712149028514
204 3 5.291 34.5604 2.79288 -1.2 0.0411605706200974 3.0229605450292747e-05 0.9587596333371096 8.454009635862206e-11 4.956635279953672e-05
205 1 -0.471101 33.2843 4.4844 1.2 0.0067661133843290215 4.993886277052258e-07 0.9932253910382791 8.778886267196628e-10 7.995310878873085e-06
206 2 -2.26307 35.9684 4.4844 2.4 0.0003448846878530439 3.273362548828255e-07 0.9996518401615822 6.503713716440286e-09 2.94131060079438e-06
207 3 -2.33122 34.3552 4.4844 -1.2 0.00012340920799077908 6.638071004051522e-08 0.9998757966483779 1.2893815620587891e-11 7.277500301395633e-07
208 3 1.36549 36.9425 4.4844 -1.2 0.00012268191475522336 2.982504222752775e-07 0.9998735183677225 1.6135352074513997e-10 3.5013057441024934e-06
209 3 -1.52658 36.6746 3.18632 -1.2 0.00641573607268606 3.101589545605921e-06 0.9935715057481813 1.9243182515460087e-10 9.656397150034798e-06
210 3 -1.55122 36.6746 5.78248 -1.2 7.087029212219646e-05 9.014907312522823e-09 0.9999288979469312 1.152522492935636e-10 2.2263078999654337e-07
211 1 1.882 35.6175 2.9896 1.2 0.06531492723901919 1.3328087268596063e-05 0.9345940442452505 5.317310848337293e-10 7.769989673546613e-05