ITEM: TIMESTEP
3600
ITEM: NUMBER OF ATOMS
10500
ITEM: BOX BOUNDS xy xz yz pp pp pp
0	15.2977	5.09925
0	118.725	0
0	89.688	0
ITEM: ATOMS id type xu yu zu q pCrystal pDisloC pSF pDisloB pDisloA
1 1 6.2404 -6.37941e-06 0 1.2 5.880284097114517e-16 2.900624547579086e-12 0.9999996002613134 3.9970953862412886e-07 2.6244133794334052e-11
2 1 3.46349 4.70768 1.4948 1.2 2.6967361462301966e-10 1.7839607938398825e-08 0.9999999331546428 4.8584868540960344e-08 1.5120785007832253e-10
3 2 5.2885 2.02354 1.4948 2.4 2.665738744869332e-13 4.391438439035829e-10 0.9999999795304009 2.0021081168260845e-08 9.104036164339767e-12
4 3 5.33628 3.63678 1.4948 -1.2 4.780215750561159e-10 3.009880592085751e-08 0.9999999567391464 7.677793824827751e-09 5.0062314400266946e-09
5 3 1.67294 1.04952 1.4948 -1.2 2.2056879805056751e-13 1.4534280686116682e-09 0.999999698044323 2.9980613397183837e-07 6.958972398359006e-10
6 3 4.59532 1.31737 0.196716 -1.2 2.5887800247876715e-14 4.075338026233023e-10 0.9999998431217118 1.5611506295829137e-07 3.5565955767844636e-10
7 1 6.18956 -6.37941e-06 2.9896 1.2 3.3102463313612684e-16 6.148771735948042e-11 0.9999974295971649 2.569592048743606e-06 7.49299151945523e-10
8 3 4.55118 1.31737 2.79288 -1.2 3.1336921264012763e-16 9.79056667675049e-12 0.9999982542982654 1.745591576686494e-06 1.003688036894257e-10
9 1 -1.20682 0.0413099 4.4844 1.2 1.131764528273216e-15 4.639810180129277e-11 0.9999712479584101 2.875135903213179e-05 6.361556736160738e-10
10 2 -3.0337 2.72544 4.4844 2.4 4.772987462104157e-12 2.894329382174528e-08 0.9999650097668082 3.494837882672347e-05 1.2906300809099218e-08
11 3 -3.08099 1.11221 4.4844 -1.2 3.9706444008776355e-15 1.4920939427781168e-10 0.9999900566886976 9.94272141116498e-06 4.4067797402558977e-10
12 3 0.582463 3.69946 4.4844 -1.2 6.663698730153403e-12 6.099837846512871e-10 0.9999946545360012 5.338044140241834e-06 6.803216844251109e-09
13 3 -2.29524 3.43162 3.18632 -1.2 8.940408368747863e-11 1.0843298435901499e-08 0.9999996888377525 2.9575950641478166e-07 4.470034023542107e-09
14 3 -2.34216 3.43162 5.78248 -1.2 3.0029213369182067e-12 1.7284850930436446e-10 0.999956466538436 4.352852893254309e-05 4.756779013188115e-09
15 1 1.12778 2.37449 2.9896 1.2 3.1493915078973103e-13 1.0677584058244334e-09 0.9999912674486081 8.73099326919179e-06 4.900496266285684e-10
16 1 3.92855 2.33318 4.4844 1.2 1.106805033821203e-14 5.4028191902635804e-11 0.999929281356796 7.071809338350217e-05 4.957851592924188e-10
17 2 2.09341 4.39804 4.4844 2.4 2.4216378718127775e-12 4.046654050600301e-09 0.9999877794316 1.2215978592409681e-05 5.407358192158434e-10
18 3 2.09991 6.01128 4.4844 -1.2 2.3470012153963746e-09 8.052888067659392e-09 0.9999999703141786 1.1618445456757236e-08 7.66749349662043e-09
19 3 -4.52137 3.42402 4.4844 -1.2 1.129726182140563e-12 5.501452518910492e-10 0.9999886114789318 1.1379767913809315e-05 8.20187567643765e-09
20 3 2.80834 3.69187 3.18632 -1.2 3.519891331482494e-12 7.426200941316645e-10 0.9999998946870703 1.0431965266713284e-07 2.471409806926677e-10
21 1 1.17857 2.37449 0 1.2 1.1304824661035873e-14 1.9918238512421038e-10 0.9999989867856999 1.0128529202508147e-06 1.621863120570752e-10
22 3 2.76143 3.69187 5.78248 -1.2 1.7996051392264997e-13 3.378138083090032e-11 0.9999822245213076 1.7774180807275923e-05 1.2639301256719362e-09
23 1 -1.67381 2.41581 1.4948 1.2 9.152069157640713e-11 2.428937225344204e-08 0.9999981548783947 1.818232235257403e-06 2.508474987058528e-09
24 2 0.16286 0.350945 1.4948 2.4 2.511698970362947e-13 1.693409276613539e-09 0.9999993064997301 6.916175862985899e-07 1.8901882220721183e-10
25 3 0.15972 -1.26229 1.4948 -1.2 7.296924508579999e-12 1.99346418069675e-08 0.9999998122903867 1.6177728789853656e-07 5.990387306078031e-09
26 3 6.77654 1.32496 1.4948 -1.2 1.451162477775596e-12 4.659069522884596e-09 0.9999999230585276 6.817062773876457e-08 4.1103202720744764e-09
27 3 -0.508028 1.05712 0.196716 -1.2 3.4617518571152165e-14 9.04618491590939e-10 0.9999995563832715 4.4186091363808224e-07 8.511649561523279e-10
28 3 -0.552171 1.05712 2.79288 -1.2 1.0045964354682514e-13 7.095368648647068e-10 0.9999965738616511 3.4217244527322066e-06 3.704257468643658e-09
29 1 6.31713 4.74899 0 1.2 3.6650455625576615e-10 4.577350900441962e-08 0.9999999059783322 4.71358679327197e-08 7.457868902605163e-10
30 1 3.54847 9.45668 1.4948 1.2 4.09690735215086e-05 2.50883552639277e-07 0.9999587147113763 2.406944798160079e-11 6.530748542243095e-08
31 2 5.36879 6.77254 1.4948 2.4 2.060901670855162e-06 3.4515881493653285e-06 0.9999944021947801 1.5593379338794565e-10 8.515946536249011e-08
32 3 5.41937 8.38578 1.4948 -1.2 0.0006058520765071011 4.110402977942005e-05 0.9993506109410184 3.553586103927546e-13 2.432952344993708e-06
33 3 1.75158 5.79852 1.4948 -1.2 3.4885975694291098e-06 5.281781613987391e-06 0.9999909855928178 6.527257996746674e-11 2.4396272743747104e-07
34 3 4.67421 6.06637 0.196716 -1.2 2.9500415454836797e-08 2.8427734433476616e-07 0.9999996823076679 3.3089317652535e-11 3.881480530297939e-09
35 1 6.26654 4.74899 2.9896 1.2 2.3720532259044e-10 1.1989474832742171e-08 0.9999995233842468 4.592112643490546e-07 5.177811151205444e-09
36 3 4.63043 6.06637 2.79288 -1.2 4.7302180677795076e-08 1.698249639150084e-07 0.999999754262662 2.217294063996828e-09 2.639290071180566e-08
37 1 -1.12976 4.79031 4.4844 1.2 1.825722085000224e-10 6.470120235321855e-10 0.9999978658121657 2.1324610037865955e-06 8.972401466974995e-10
38 2 -2.9517 7.47444 4.4844 2.4 5.1499660471042795e-09 8.146974185580772e-08 0.9999970191284665 4.5413870443142006e-07 2.4401131160724153e-06
39 3 -3.00198 5.86121 4.4844 -1.2 2.094951506690436e-10 5.79254919585454e-10 0.9999999501765314 4.7156187208620674e-08 1.878536101611597e-09
40 3 0.666315 8.44846 4.4844 -1.2 2.3693685236008542e-07 2.553215744981223e-07 0.9999987007871083 4.855758078715989e-10 8.064688890589899e-07
41 3 -2.21213 8.18062 3.18632 -1.2 5.947211134916669e-07 9.57298826113177e-08 0.9999991788794734 4.145789951668207e-11 1.3062807680163678e-07
42 3 -2.25864 8.18062 5.78248 -1.2 3.1468933539215136e-08 4.103332161150036e-09 0.9999995353493261 1.2295678826794104e-08 4.167827240812534e-07
43 1 1.20893 7.12349 2.9896 1.2 1.7027681857525757e-07 1.6667706982370364e-07 0.9999996320209557 4.8343857444802595e-09 2.6190768188841745e-08
44 1 4.00982 7.08218 4.4844 1.2 2.4841768866406626e-08 9.977650830342993e-09 0.9999998718904461 4.545419597624675e-08 4.783593502371271e-08
45 2 2.17861 9.14704 4.4844 2.4 1.3656907928821604e-06 9.303235122541992e-07 0.9999941458333811 1.1410388494248503e-08 3.5467419270211136e-06
46 3 2.18828 10.7603 4.4844 -1.2 5.214902135291122e-06 1.1291170106150092e-07 0.9999939785268698 2.4902215174530303e-11 6.936343939389263e-07
47 3 -4.43805 8.17302 4.4844 -1.2 5.894751319482711e-08 7.137736458302235e-08 0.9999993641791921 7.268554924492523e-10 5.0476906874113e-07
48 3 2.89193 8.44087 3.18632 -1.2 3.2887495984738612e-06 2.8457765260878786e-07 0.9999960614114911 1.7333675344734643e-10 3.65087917422366e-07
49 1 1.25915 7.12349 0 1.2 3.5905485247353223e-07 2.381305811366352e-07 0.9999994000421802 1.9822923718282575e-10 2.574156262739831e-09
50 3 2.84547 8.44087 5.78248 -1.2 5.2059432425839185e-08 8.352813163842025e-09 0.999999597299815 6.78810035718783e-09 3.354998394952494e-07
51 1 -1.59284 7.16481 1.4948 1.2 1.026004344719851e-06 3.7244601968976946e-07 0.999998579088413 3.700862012842331e-10 2.2091142991333892e-08
52 2 0.240329 5.09994 1.4948 2.4 1.5342758596563869e-09 7.440156780023905e-08 0.9999999205492887 3.452650526738892e-09 6.22178954699521e-11
53 3 0.234538 3.48671 1.4948 -1.2 2.3585471834420277e-11 1.2497314787363606e-08 0.9999999713536032 1.3718497755999086e-08 2.4069925141104507e-09
54 3 6.85564 6.07396 1.4948 -1.2 4.485402905443847e-07 1.877718161462548e-06 0.9999974214796329 1.5269293787750496e-10 2.5210922528245314e-07
55 3 -0.429565 5.80612 0.196716 -1.2 4.323106315019588e-09 4.4804735597273174e-08 0.9999999501720408 1.349503062416651e-10 5.65164398677178e-10
56 3 -0.473377 5.80612 2.79288 -1.2 3.0405642531944402e-09 8.333586536006314e-09 0.9999999777579236 7.879334472343836e-09 2.9885916021569024e-09
57 1 6.40169 9.49799 0 1.2 6.418908542517478e-05 8.339036212429283e-07 0.9999349000557194 1.0436933456412918e-12 7.695419007430128e-08
58 1 3.64209 14.2057 1.4948 1.2 0.0003047983690222575 4.31104180981364e-07 0.9996945011536892 1.2685929467178152e-12 2.6937183265107294e-07
59 2 5.45748 11.5215 1.4948 2.4 0.0010166145049592715 7.702855793756283e-06 0.9989755788084533 4.9652480216289514e-14 1.0383074782869461e-07
60 3 5.51101 13.1348 1.4948 -1.2 0.013724660680128066 5.969471018301548e-05 0.9862100345310738 1.5978103734707847e-14 5.610078605204296e-06
61 3 1.83851 10.5475 1.4948 -1.2 0.004196507523128886 9.731332327858565e-06 0.9957922885341519 2.502561560087985e-14 1.4726103700803007e-06
62 3 4.7611 10.8154 0.196716 -1.2 0.0005749165745958546 5.832036138293996e-06 0.9994189818634437 3.9736694645740994e-14 2.6952578466715514e-07
63 1 6.35203 9.49799 2.9896 1.2 2.1724492891933645e-05 1.4613139875946316e-06 0.9999763399016719 8.83646006401392e-11 4.742030822303829e-07
64 3 4.71833 10.8154 2.79288 -1.2 7.335900760873638e-05 1.1095793769116563e-06 0.9999247122028537 6.521397161519808e-12 8.192036340443521e-07
65 1 -1.0438 9.53931 4.4844 1.2 2.1412583583889284e-06 6.408121438795086e-08 0.9999974721223145 6.106267411300085e-09 3.164318514647374e-07
66 2 -2.8604 12.2234 4.4844 2.4 3.9456003896701144e-06 6.922542450921979e-07 0.9999940870578307 6.91250177768667e-10 1.2743962870085053e-06
67 3 -2.91391 10.6102 4.4844 -1.2 6.215087699497461e-06 1.7435985032961622e-07 0.9999930082644962 1.2425691853529128e-11 6.022755249217413e-07
68 3 0.7596 13.1975 4.4844 -1.2 1.1340843366062907e-05 8.825828323169231e-07 0.9999856341876423 5.2047888413544966e-11 2.1423341101689404e-06
69 3 -2.12001 12.9296 3.18632 -1.2 0.0001023499388448356 9.639260070935692e-07 0.9998956338738622 3.5022149705042014e-12 1.0522577902333153e-06
70 3 -2.16532 12.9296 5.78248 -1.2 2.7148923318503673e-05 1.8932203367440111e-07 0.9999688261002476 2.387523547577593e-10 3.83541564518827e-06
71 1 1.29891 11.8725 2.9896 1.2 0.00012768748000260285 1.4206757931114515e-06 0.9998696370790507 3.210235288502535e-11 1.254733049443639e-06
72 1 4.10033 11.8312 4.4844 1.2 2.1668187147698346e-05 8.532638043630678e-08 0.9999760168914663 2.4059405880810336e-09 2.2271890715242633e-06
73 2 2.27333 13.896 4.4844 2.4 5.266753914645736e-05 1.7582926428024781e-06 0.9999422234463614 3.780049388020759e-10 3.350343843013783e-06
74 3 2.28634 15.5093 4.4844 -1.2 5.9218650937891006e-05 2.9341685932010294e-07 0.999939820826604 5.857026153368635e-13 6.671050115964783e-07
75 3 -4.34533 12.922 4.4844 -1.2 2.001573333586069e-06 1.1733015104456461e-07 0.9999971218677566 5.088012521190734e-11 7.591778819861568e-07
76 3 2.98455 13.1899 3.18632 -1.2 6.791298979541793e-05 1.028729414201927e-06 0.9999300936951871 5.718302440705991e-12 9.645798778871906e-07
77 1 1.34779 11.8725 0 1.2 0.00033008755562779785 8.318809468871166e-07 0.9996688497321434 4.3359749273067484e-13 2.308308460868106e-07
78 3 2.93934 13.1899 5.78248 -1.2 6.4797588736921525e-06 3.249390093402769e-08 0.9999927354963603 1.5003972901929347e-10 7.521008310863156e-07
79 1 -1.50344 11.9138 1.4948 1.2 0.00018638877316406527 7.591078851558167e-07 0.9998126206533089 8.601692652132987e-13 2.3146478043344924e-07
80 2 0.326006 9.84894 1.4948 2.4 0.00023782580212486313 3.232431465218195e-06 0.999758902719725 9.36166353819176e-14 3.904659798542111e-08
81 3 0.317364 8.23571 1.4948 -1.2 0.0002331590341864584 7.177244738795225e-06 0.9997591158610253 1.8219633289762503e-12 5.478582283463231e-07
82 3 6.94307 10.823 1.4948 -1.2 0.0018901998493146559 1.53269418453103e-05 0.9980935574435065 1.7867357645884495e-14 9.157653162727835e-07
83 3 -0.343122 10.5551 0.196716 -1.2 0.0002038743777798291 2.3018253478673243e-06 0.999793708752433 8.734892076781143e-14 1.150443451464627e-07
84 3 -0.385966 10.5551 2.79288 -1.2 4.4737009275748276e-05 8.847332026634613e-07 0.9999537703068997 1.5157381917857172e-11 6.079354623846475e-07
85 1 6.49448 14.247 0 1.2 0.00099445892405334 6.815459231156308e-07 0.9990045158253457 4.3845461337267964e-14 3.437046287790608e-07
86 1 3.74457 18.9547 1.4948 1.2 4.967761239799001e-05 1.1530450629061632e-07 0.9999501752761576 2.749396390106133e-13 3.1806661936113334e-08
87 2 5.55495 16.2705 1.4948 2.4 0.000568552967687593 3.374740880287869e-06 0.9994280619923722 3.647318265641227e-15 1.0299052499212463e-08
88 3 5.6115 17.8838 1.4948 -1.2 0.005831560906928937 2.986795368591049e-05 0.9941378472480651 1.3523114716992453e-15 7.23891318212809e-07
89 3 1.93416 15.2965 1.4948 -1.2 0.014525625664896919 2.0556007582091938e-05 0.9854524973949732 1.3065657258673546e-15 1.3209325449768266e-06
90 3 4.85636 15.5644 0.196716 -1.2 0.007226039855248653 1.3507873677577729e-05 0.9927598823795091 2.8615658767132134e-15 5.698915640900246e-07
91 1 6.44662 14.247 2.9896 1.2 0.00010760066915241161 7.568532315997946e-07 0.9998910840622033 5.650011366270692e-12 5.584097593403611e-07
92 3 4.81537 15.5644 2.79288 -1.2 0.0005004951378852776 3.928429834430083e-06 0.9994947076146735 3.16690306601151e-13 8.68817284931599e-07
93 1 -0.948271 14.2883 4.4844 1.2 1.697348958208023e-05 1.2635913936346054e-07 0.9999820124973986 8.057131604327961e-10 8.868481613689482e-07
94 2 -2.75928 16.9724 4.4844 2.4 6.237494479096929e-05 1.0313190456002803e-06 0.9999362229179111 2.5730325565018656e-11 3.7079252430483387e-07
95 3 -2.81617 15.3592 4.4844 -1.2 1.5822172053054026e-05 2.0646441015038855e-07 0.9999832995128095 1.2875384129533084e-12 6.718494457971988e-07
96 3 0.862762 17.9465 4.4844 -1.2 2.3657986801055475e-05 6.441906538966331e-07 0.9999751433983455 2.679786897270487e-12 5.544215268818536e-07
97 3 -2.0185 17.6786 3.18632 -1.2 0.00014473761186610944 6.411614433935549e-07 0.9998544299579439 9.568531503630947e-14 1.912686553177528e-07
98 3 -2.06164 17.6786 5.78248 -1.2 8.423318551353459e-05 9.53619798297429e-08 0.9999144603013568 1.5590915247732638e-11 1.2111355646625098e-06
99 1 1.39817 16.6215 2.9896 1.2 0.00016158023031052215 1.1306860751110746e-06 0.9998364330298807 3.137113462280573e-12 8.560505925459361e-07
100 1 4.20062 16.5802 4.4844 1.2 4.234953764979726e-05 6.600719156643396e-08 0.9999568955577757 2.0413510292607715e-10 6.886932424151898e-07
101 2 2.37796 18.645 4.4844 2.4 5.690997579218405e-05 4.3545890819634427e-07 0.9999425378231136 1.0754007338724347e-11 1.167314318234242e-07
102 3 2.39434 20.2583 4.4844 -1.2 7.07535595253923e-05 1.5463847575884508e-07 0.9999289137474966 4.1378729352489424e-14 1.7805445407070874e-07
103 3 -4.24274 17.671 4.4844 -1.2 1.637486688226044e-05 3.306221921820316e-07 0.9999829552685353 3.0557771417488662e-12 3.392393279839737e-07
104 3 3.08659 17.9389 3.18632 -1.2 8.52957781947066e-05 6.962960373558902e-07 0.9999137565655324 4.28244146170975e-13 2.513598070015495e-07
105 1 1.44478 16.6215 0 1.2 0.0008869188491376121 4.272683255215872e-07 0.9991123884954874 6.210144948426358e-14 2.653869817734753e-07
106 3 3.0436 17.9389 5.78248 -1.2 4.555489048558434e-05 2.1497232607967664e-08 0.9999542116859707 1.1395315178973491e-11 2.1191492155986647e-07
107 1 -1.40524 16.6628 1.4948 1.2 0.00046816101751878366 7.136146981639686e-07 0.9995308933899708 6.780273275362085e-14 2.3197774349791263e-07
108 2 0.420358 14.5979 1.4948 2.4 0.0017318395619994762 8.252307097999396e-06 0.9982598580349551 1.9008660603466483e-14 5.009592934303975e-08
109 3 0.408732 12.9847 1.4948 -1.2 0.013063236509016437 3.868085691087776e-05 0.9868958136229454 1.2873869903256948e-14 2.269011111032675e-06
110 3 7.03923 15.572 1.4948 -1.2 0.012028342960916767 4.3530490434121304e-05 0.9879263418993877 2.017441811752082e-15 1.7846492574286284e-06
111 3 -0.248332 15.3041 0.196716 -1.2 0.0013531751133083574 1.076075391333266e-05 0.9986357723265691 1.3076067496234168e-14 2.9180619327527075e-07
112 3 -0.289436 15.3041 2.79288 -1.2 0.0006092312558238728 4.8638225822324435e-06 0.9993845370424163 1.4289842289015117e-12 1.3678777517035601e-06
113 1 6.59566 18.996 0 1.2 0.0003533792234367491 1.2568978774099022e-07 0.9996464378041816 4.355722452781313e-15 5.728258319971588e-08
114 1 3.85574 23.7037 1.4948 1.2 0.001150919880385101 6.016336800483887e-07 0.998848259867265 1.5769782660039943e-13 2.186185143454574e-07
115 2 5.66125 21.0195 1.4948 2.4 0.0015827755216404563 2.5380441661071145e-06 0.9984146824182194 1.5512794838417936e-15 4.015975751127579e-09
116 3 5.72074 22.6328 1.4948 -1.2 0.02327196402698255 4.103793500452314e-05 0.9766861676571647 9.645882901288688e-16 8.303808468790693e-07
117 3 2.03867 20.0455 1.4948 -1.2 0.015926464714990596 2.0591042836718256e-05 0.984052306555283 1.2519500919822934e-16 6.376868942450779e-07
118 3 4.96004 20.3134 0.196716 -1.2 0.004707459683441547 5.50694574623574e-06 0.9952868862442905 5.319740806124435e-16 1.4712652317830508e-07
119 1 6.55057 18.996 2.9896 1.2 6.032780496711592e-05 2.592247477706382e-07 0.9999392937227971 4.3003002760649907e-13 1.192470519706408e-07
120 3 4.92172 20.3134 2.79288 -1.2 0.00027409635479109905 1.9995029942768774e-06 0.9997236965837251 7.360258040184739e-14 2.075584208930807e-07
121 1 -0.84282 19.0373 4.4844 1.2 1.0899336049124258e-05 4.9242632484566275e-08 0.9999888858471616 5.693942558624169e-11 1.6551721199581572e-07
122 2 -2.64823 21.7214 4.4844 2.4 6.750901613086865e-05 2.693361103186001e-07 0.9999321924801325 3.3264174848315392e-12 2.9164301054490095e-08
123 3 -2.70847 20.1082 4.4844 -1.2 2.2630101535138267e-05 1.0174107232722878e-07 0.9999771779880413 7.198099938831214e-14 9.016927567449493e-08
124 3 0.97581 22.6955 4.4844 -1.2 0.00017659733838272537 1.4020951095678719e-06 0.9998213570873818 7.369668744748414e-13 6.434783844756187e-07
125 3 -1.9076 22.4276 3.18632 -1.2 0.00029761160746507627 5.61086742267284e-07 0.9997017390447253 2.577294890586592e-14 8.826103845785766e-08
126 3 -1.9475 22.4276 5.78248 -1.2 0.00014704079122493797 4.3610364050428307e-08 0.9998526480716795 1.0696093425205949e-12 2.6752566164217056e-07
127 1 1.50678 21.3705 2.9896 1.2 0.0002813025637991099 6.132205549618632e-07 0.999717731229874 4.087166576140566e-13 3.5298535863217815e-07
128 1 4.31086 21.3292 4.4844 1.2 1.075604114323e-05 1.5093770300703174e-08 0.9999891836482302 2.7646973916926633e-11 4.518920737651896e-08
129 2 2.49243 23.394 4.4844 2.4 0.0002930618531087176 6.035657790670413e-07 0.9997062591341902 6.0080142831039785e-12 7.54409184819639e-08
130 3 2.51204 25.0073 4.4844 -1.2 0.0001415897949027751 1.9961580045826713e-07 0.999857843498372 7.301271668329695e-14 3.670908574034457e-07
131 3 -4.13026 22.42 4.4844 -1.2 3.524653808243879e-05 3.443302578219994e-07 0.9999642955174787 4.555920537345405e-13 1.1361371987131492e-07
132 3 3.19799 22.6879 3.18632 -1.2 0.0006943103274102395 2.181438648971193e-06 0.9993032817815345 3.21932750624149e-14 2.264523752846338e-07
133 1 1.5501 21.3705 0 1.2 0.0011328175835305183 3.604091315225518e-07 0.9988666355828071 9.766926236391597e-15 1.864245172715414e-07
134 3 3.1583 22.6879 5.78248 -1.2 6.647942405951762e-05 1.5498648642155297e-08 0.9999333954976553 2.866971933465304e-12 1.0957676340599036e-07
135 1 -1.29822 21.4118 1.4948 1.2 0.0006754677306944547 5.116831290928352e-07 0.999323889718728 1.0627185264544189e-14 1.3086744313721039e-07
136 2 0.523568 19.3469 1.4948 2.4 0.0003421142808612524 1.7712492443869583e-06 0.9996561132198957 1.83246618867498e-15 1.2500027132744915e-09
137 3 0.508934 17.7337 1.4948 -1.2 0.002849113278792807 2.3312966652099687e-05 0.9971272669784607 1.7285903938999483e-15 3.067760946881939e-07
138 3 7.14425 20.321 1.4948 -1.2 0.00951944547436735 2.6954933372275163e-05 0.9904531635247873 1.6004907317902127e-16 4.360674675804174e-07
139 3 -0.145107 20.0531 0.196716 -1.2 0.001185944524047966 5.981516908267847e-06 0.998808010985411 1.157996783055488e-15 6.297362879572806e-08
140 3 -0.183601 20.0531 2.79288 -1.2 0.0007363136620536523 4.223803136379866e-06 0.9992592064350343 4.728445794363724e-14 2.5609973497783046e-07
141 1 6.70502 23.745 0 1.2 0.008460855630798507 1.284518243397241e-06 0.9915369637164567 5.078201430602093e-15 8.961344961962055e-07
142 1 3.97493 28.4527 1.4948 1.2 0.14216510163491541 1.571288524120116e-05 0.8577998831950769 1.4532167468867602e-12 1.9302283311032463e-05
143 2 5.77602 25.7685 1.4948 2.4 0.2520757195130214 2.3113483699252723e-05 0.7479010535322455 4.980290332665227e-15 1.1347103324520889e-07
144 3 5.83821 27.3818 1.4948 -1.2 0.6382056378332931 7.459836417638269e-05 0.36170874906239264 2.2506943245647897e-15 1.1014740130059613e-05
145 3 2.15175 24.7945 1.4948 -1.2 0.757948992803341 0.00017061407922817993 0.2418694415348416 1.0037976082606193e-16 1.0951582588567609e-05
146 3 5.07184 25.0624 0.196716 -1.2 0.40941264300067554 5.21925698575009e-05 0.5905281631772268 2.2553423995221235e-15 7.001252238718015e-06
147 1 6.66374 23.745 2.9896 1.2 0.0007273006630255633 7.176827232624725e-07 0.9992716435056894 1.6557697038249353e-13 3.381483930615101e-07
148 3 5.03707 25.0624 2.79288 -1.2 0.0031817485289331636 8.838906452054871e-06 0.9968081370786891 1.3083356369888033e-13 1.2754858007615606e-06
149 1 -0.727559 23.7863 4.4844 1.2 5.602146067204806e-05 7.420519373045445e-08 0.9999437032488582 2.4074082350200633e-11 2.010612066537315e-07
150 2 -2.5277 26.4704 4.4844 2.4 0.0004746145644693626 3.1540145485479845e-07 0.9995249951006931 5.397609405464824e-12 7.492799062325127e-08
151 3 -2.59107 24.8572 4.4844 -1.2 7.970675771642632e-05 1.9705722861364503e-07 0.9999198744690472 5.05080651403211e-14 2.217159625991045e-07
152 3 1.09817 27.4445 4.4844 -1.2 0.0030630689002232414 3.4317707703041327e-06 0.9969281644863719 1.4840368162326555e-12 5.3348411550623235e-06
153 3 -1.78784 27.1766 3.18632 -1.2 0.002300349088708218 1.145738455614613e-06 0.997698035504527 1.1279434511616219e-13 4.6966819658400345e-07
154 3 -1.82343 27.1766 5.78248 -1.2 0.0005497770271569209 7.474404933553793e-08 0.9994495624965136 1.905344598332654e-12 5.857303718529499e-07
155 1 1.62435 26.1195 2.9896 1.2 0.008285436901088433 2.8088558688675277e-06 0.9917085767520758 4.2232928153511944e-13 3.17749054493157e-06
156 1 4.43064 26.0782 4.4844 1.2 0.00013636164081383441 3.3298898794252054e-08 0.9998634950245627 1.4942116272107414e-11 1.1002078341786485e-07
157 2 2.61607 28.143 4.4844 2.4 0.0011557313204375625 4.908586683562624e-07 0.998843500771684 2.6262311999981662e-11 2.7702295133480686e-07
158 3 2.63853 29.7563 4.4844 -1.2 0.00010860344881822979 7.65230967462446e-08 0.9998907186892386 1.0700512728140611e-12 6.013377826446127e-07
159 3 -4.00841 27.169 4.4844 -1.2 0.000332404944671943 7.555096029800331e-07 0.9996661491448896 6.516939575437955e-13 6.904001774607591e-07
160 3 3.3182 27.4369 3.18632 -1.2 0.011058929919423028 4.303824225177371e-06 0.9889342250261496 1.9726372331724649e-13 2.5412300022578895e-06
161 1 1.66335 26.1195 0 1.2 0.10419437922845066 1.0389080558631905e-05 0.8957852532027801 2.520037665810582e-14 9.978488185035694e-06
162 3 3.28288 27.4369 5.78248 -1.2 0.00013602627091137686 1.4896816229045634e-08 0.999863825054145 3.18230388335024e-12 1.337749479512927e-07
163 1 -1.18278 26.1608 1.4948 1.2 0.06655959447298176 1.207938618849412e-05 0.9334209979187177 5.82226154264143e-14 7.3282220540223525e-06
164 2 0.635424 24.0959 1.4948 2.4 0.006056717936577619 2.5825578460249687e-06 0.9939406970926293 1.7129380546346033e-15 2.412951983978904e-09
165 3 0.617906 22.4827 1.4948 -1.2 0.017151592133570114 2.6626127962714815e-05 0.9828214295251824 4.888440027583383e-16 3.5221328127021155e-07
166 3 7.25781 25.07 1.4948 -1.2 0.3881349049956792 0.0001599237534365729 0.6116982496798622 2.660313801990895e-16 6.921571020736733e-06
167 3 -0.0337363 24.8021 0.196716 -1.2 0.0826086142764057 3.482298303003807e-05 0.9173546291106323 1.9403302368844965e-15 1.9336299261535907e-06
168 3 -0.0687235 24.8021 2.79288 -1.2 0.005898564424410995 1.2819718134112181e-05 0.9940875319045585 9.831078513655617e-14 1.0839527954937102e-06
169 1 6.82195 28.494 0 1.2 0.3434078846355939 3.6235064826032625e-05 0.6564937553152623 8.97286278912821e-14 6.212498422270094e-05
170 1 4.10106 33.2017 1.4948 1.2 0.5787568020959839 0.00017125654119205612 0.4205687518248744 1.5590511623181667e-10 0.0005031893820498116
171 2 5.89839 30.5175 1.4948 2.4 0.9880360281318327 1.0195369856858403e-05 0.011953035695491247 3.4512410787072706e-15 7.408028106543036e-07
172 3 5.96289 32.1308 1.4948 -1.2 0.8503950543595614 7.653040289751205e-05 0.1494766953635012 1.1903638022520453e-13 5.171987392580209e-05
173 3 2.27266 29.5435 1.4948 -1.2 0.9671540419314133 0.0001374587629721016 0.032637638032725895 3.526816970823034e-15 7.086127288310354e-05
174 3 5.19102 29.8114 0.196716 -1.2 0.9697735041319857 1.7596543307258055e-05 0.030185948874791365 2.9248775656965685e-15 2.2950449911878158e-05
175 1 6.78546 28.494 2.9896 1.2 0.016250508325848328 3.3918254938982394e-06 0.9837410289948992 1.2053663994209607e-12 5.070852552391299e-06
176 3 5.16061 29.8114 2.79288 -1.2 0.030545649825763774 2.0883076642067885e-05 0.9694227612868215 1.9817144256474556e-12 1.0705808791065617e-05
177 1 -0.603205 28.5353 4.4844 1.2 0.0006746846228862168 2.9200815862951544e-07 0.9993226959333964 8.607462266989696e-11 2.327349484260291e-06
178 2 -2.39877 31.2194 4.4844 2.4 0.001348794712968785 5.946383228286769e-07 0.9986499139302019 1.0689587281684531e-10 6.966116068323975e-07
179 3 -2.46483 29.6062 4.4844 -1.2 8.335050225480931e-05 1.0992377879816918e-07 0.9999160242052307 1.2500633275104882e-12 5.153674834462644e-07
180 3 1.22864 32.1935 4.4844 -1.2 0.0017885676821311552 3.599188519184084e-06 0.9981978511973972 2.8154306927985733e-11 9.981903797346137e-06
181 3 -1.66032 31.9256 3.18632 -1.2 0.004459267186276624 1.7976747409236765e-06 0.9955367887130384 4.3180004272877055e-12 2.146421632423079e-06
182 3 -1.69072 31.9256 5.78248 -1.2 0.00025311063166823906 4.438145992663746e-08 0.999746286769854 1.8087113064823627e-11 5.581989342059418e-07
183 1 1.7499 30.8685 2.9896 1.2 0.05404111913597422 8.544821399919898e-06 0.9459202356356269 7.74871931835628e-12 3.0100399249992472e-05
184 1 4.55894 30.8272 4.4844 1.2 0.0009480230532797257 6.085362559666314e-08 0.999051238265918 1.5509850249382785e-10 6.776720719894163e-07
185 2 2.7476 32.892 4.4844 2.4 0.0010088637074861795 7.387160586728778e-07 0.9989892501561458 5.918730370675574e-10 1.1468284330552192e-06
186 3 2.77235 34.5053 4.4844 -1.2 3.81019770031801e-05 3.8047777806025187e-08 0.9999613228003392 1.8712954472867958e-11 5.371561710752748e-07
187 3 -3.87837 31.918 4.4844 -1.2 0.0004314023591678556 5.344954050351327e-07 0.999566570194557 8.42750118215091e-12 1.4929424478301713e-06
188 3 3.44611 32.1859 3.18632 -1.2 0.02124318335982288 7.093733347751271e-06 0.978737795510017 9.86240349538442e-12 1.1927386956700363e-05
189 1 1.7837 30.8685 0 1.2 0.7642369738433452 5.2669693379379e-05 0.23548929639307234 1.773772208020493e-13 0.00022106007002518034
190 3 3.41602 32.1859 5.78248 -1.2 5.730983560381992e-05 7.610382492477088e-09 0.9999425562601125 2.785330737817618e-11 1.262660407970063e-07
191 1 -1.05984 30.9098 1.4948 1.2 0.751318493129731 0.00013469060537582957 0.24831896446114368 1.7241597949719391e-12 0.00022785180202619236
192 2 0.755243 28.8449 1.4948 2.4 0.8793461721167276 1.0516603088860992e-05 0.1206431629734478 3.332123735612836e-15 1.4830673175001126e-07
193 3 0.735127 27.2317 1.4948 -1.2 0.8225091571876396 7.294709317144765e-05 0.1774093129026315 8.787871691526634e-16 8.582816557912005e-06
194 3 7.37914 29.819 1.4948 -1.2 0.9036319925519783 0.00023557107494926612 0.09605046794607604 6.903062196840406e-15 8.196842698424959e-05
195 3 0.0850649 29.5511 0.196716 -1.2 0.6897917605677425 7.200274289507683e-05 0.3101075254327361 4.2342628313331316e-14 2.8711256584709476e-05
196 3 0.0543974 29.5511 2.79288 -1.2 0.12140013188989979 5.565839605645201e-05 0.8785219651432633 1.138323033573469e-12 2.2244569637879464e-05
197 1 6.94543 33.243 0 1.2 0.8531513584706472 5.101451277125525e-05 0.1464897416631 1.0998685812338278e-12 0.0003078853523843917
198 1 4.23267 37.9507 1.4948 1.2 0.22651998873626664 0.00010362564132140111 0.7730239338627053 2.662677997900874e-09 0.0003524490970251481
199 2 6.02709 35.2665 1.4948 2.4 0.9944286917978803 2.6093094421844827e-05 0.00553812689915399 9.533105582951574e-14 7.088208454938206e-06
200 3 6.09339 36.8798 1.4948 -1.2 0.3568476324933441 0.00010425478130585673 0.6429376872836234 1.595247572054257e-11 0.00011042542577892743
201 3 2.40018 34.2925 1.4948 -1.2 0.855674350770257 0.0005123779362459435 0.14323626450532664 2.427086649023972e-12 0.0005770067857420083
202 3 5.31645 34.5604 0.196716 -1.2 0.9719613699900256 3.6260093109217705e-05 0.027851113026071524 2.115421386159109e-13 0.00015125689057598075
203 1 6.91449 33.243 2.9896 1.2 0.04841027569335369 1.397336193394125e-05 0.9515139212743675 7.680683876671662e-11 6.182959353587489e-05
204 3 5.291 34.5604 2.79288 -1.2 0.017177479734926657 2.192815704687271e-05 0.9827740837557031 5.7483980697986434e-11 2.6508294836789356e-05
205 1 -0.471101 33.2843 4.4844 1.2 0.003676912222417054 5.991628107557377e-07 0.9963149807900599 1.2702570254463806e-09 7.506554461885156e-06
206 2 -2.26307 35.9684 4.4844 2.4 0.00011112426530848189 2.649218181969656e-07 0.9998868690706348 5.09402183259464e-09 1.7366482147069434e-06
207 3 -2.33122 34.3552 4.4844 -1.2 5.221228588347239e-05 7.247457650015215e-08 0.9999471427253863 1.9252977558386806e-11 5.724949026928624e-07
208 3 1.36549 36.9425 4.4844 -1.2 4.1382452612146436e-05 2.1898110535609348e-07 0.9999566453664288 1.7488192759889063e-10 1.7530249675975835e-06
209 3 -1.52658 36.6746 3.18632 -1.2 0.002826479469240745 1.944020820326504e-06 0.9971675416714919 1.1391751284391373e-10 4.034724530611026e-06
210 3 -1.55122 36.6746 5.78248 -1.2 2.919467109461333e-05 8.48452670185986e-09 0.9999706335340934 1.2128779609024e-10 1.6318900209849606e-07
211 1 1.882 35.6175 2.9896 1.2 0.018411028090205922 9.664333611852647e-06 0.9815433559979774 3.221772908927123e-10 3.5951256030548205e-05