ITEM: TIMESTEP
11100
ITEM: NUMBER OF ATOMS
10500
ITEM: BOX BOUNDS xy xz yz pp pp pp
0	15.2977	5.09925
0	118.725	0
0	89.688	0
ITEM: ATOMS id type xu yu zu q pCrystal pDisloC pSF pDisloB pDisloA
1 1 6.2404 -6.37941e-06 0 1.2 2.827806599211456e-16 1.14784488124358e-12 0.999999875308071 1.2468026693891865e-07 1.0509447176281638e-11
2 1 3.46349 4.70768 1.4948 1.2 3.506778744729866e-10 1.6406691537364336e-08 0.9999999503539113 3.276153338230536e-08 1.2718726242490814e-10
3 2 5.2885 2.02354 1.4948 2.4 1.404400448579755e-13 2.491432974480891e-10 0.9999999926198342 7.127661384665869e-09 3.21682273003672e-12
4 3 5.33628 3.63678 1.4948 -1.2 3.49738675294289e-10 2.0574297267898398e-08 0.9999999725869347 3.5256653342424336e-09 2.9633708712748113e-09
5 3 1.67294 1.04952 1.4948 -1.2 4.446529347710084e-13 2.0848491998775984e-09 0.9999998218917926 1.7561214812851063e-07 4.107686810165043e-10
6 3 4.59532 1.31737 0.196716 -1.2 1.4014918825706561e-14 1.6396752710879555e-10 0.9999999417430717 5.796226874019284e-08 1.306827421874375e-10
7 1 6.18956 -6.37941e-06 2.9896 1.2 6.91800661784091e-16 5.751174958877142e-11 0.99999814168239 1.8578758094124913e-06 3.8429427158264753e-10
8 3 4.55118 1.31737 2.79288 -1.2 4.3382737941916366e-16 1.1339073919710234e-11 0.9999990278580988 9.72080802701057e-07 4.975536510238028e-11
9 1 -1.20682 0.0413099 4.4844 1.2 7.810291247483103e-16 2.4640615091273023e-11 0.999973451730707 2.6548128590687984e-05 1.1605725415879648e-10
10 2 -3.0337 2.72544 4.4844 2.4 9.07159849977687e-12 5.806533766075712e-08 0.9999762789980631 2.3650915217868267e-05 1.201230809244994e-08
11 3 -3.08099 1.11221 4.4844 -1.2 3.7219380769322985e-15 1.6477964398712708e-10 0.9999920132831526 7.986240867731674e-06 3.1120144419331563e-10
12 3 0.582463 3.69946 4.4844 -1.2 5.458381296888172e-12 7.146696963414906e-10 0.9999922012991066 7.79074355344316e-06 7.237207524106652e-09
13 3 -2.29524 3.43162 3.18632 -1.2 1.4649051112363628e-10 1.4065973369420365e-08 0.999999787261808 1.9449726896476954e-07 4.028462921666385e-09
14 3 -2.34216 3.43162 5.78248 -1.2 2.1610777084418493e-12 2.5815112043795554e-10 0.999955179768596 4.4814436277634883e-05 5.534809140130853e-09
15 1 1.12778 2.37449 2.9896 1.2 7.294809313312816e-13 1.5466003372462006e-09 0.9999921869412817 7.811189127343273e-06 3.2226638186566376e-10
16 1 3.92855 2.33318 4.4844 1.2 1.544442963746436e-14 7.583137655646759e-11 0.9999477117851036 5.228775724317933e-05 3.8180187538154765e-10
17 2 2.09341 4.39804 4.4844 2.4 3.1053640687869858e-12 4.9404807049470845e-09 0.9999906720658405 9.322462953623504e-06 5.276261835092367e-10
18 3 2.09991 6.01128 4.4844 -1.2 3.830234070162182e-09 1.6761656301456175e-08 0.9999999560700995 1.1984008937309015e-08 1.1354002368124768e-08
19 3 -4.52137 3.42402 4.4844 -1.2 1.838761601986467e-12 1.2991344702047606e-09 0.9999941399564171 5.846554399826446e-06 1.2188216411691678e-08
20 3 2.80834 3.69187 3.18632 -1.2 4.6834984746156085e-12 9.25642776984385e-10 0.9999999298131452 6.904983796859236e-08 2.0669051668743507e-10
21 1 1.17857 2.37449 0 1.2 1.9537896305399836e-14 2.1051671897271978e-10 0.9999997545815108 2.4515108995567533e-07 5.6857687674365683e-11
22 3 2.76143 3.69187 5.78248 -1.2 1.825906258929913e-14 6.211211893223545e-12 0.9999427821215789 5.72170679180224e-05 8.042756107760042e-10
23 1 -1.67381 2.41581 1.4948 1.2 1.3249277604446103e-10 2.3603748706298317e-08 0.9999984957673804 1.4787075476089552e-06 1.7888368491687733e-09
24 2 0.16286 0.350945 1.4948 2.4 3.734221897455091e-13 1.7146875499635824e-09 0.9999995167908682 4.813613760898368e-07 1.3270135378961045e-10
25 3 0.15972 -1.26229 1.4948 -1.2 6.439231581018534e-12 1.4262156613111821e-08 0.9999999215926496 6.163993176962622e-08 2.498823550404774e-09
26 3 6.77654 1.32496 1.4948 -1.2 9.34329844449476e-13 2.5117902010748572e-09 0.9999999685914109 2.698478726996539e-08 1.9110820966292537e-09
27 3 -0.508028 1.05712 0.196716 -1.2 2.5392558299023444e-14 5.385215303495428e-10 0.9999999109705056 8.82564345280233e-08 2.3451102646087584e-10
28 3 -0.552171 1.05712 2.79288 -1.2 2.286785910545303e-13 6.508374530802583e-10 0.9999967707381203 3.226312585221819e-06 2.2982343354160088e-09
29 1 6.31713 4.74899 0 1.2 2.602381971997118e-10 2.427547160936299e-08 0.9999999476694525 2.7314504081957572e-08 4.803401393657049e-10
30 1 3.54847 9.45668 1.4948 1.2 6.659634058292499e-05 5.755828496290203e-07 0.9999327009125246 2.075843149304112e-11 1.271432869901162e-07
31 2 5.36879 6.77254 1.4948 2.4 4.093151227673984e-06 4.364141567253528e-06 0.9999914109508641 8.791480780134507e-11 1.3166842076982555e-07
32 3 5.41937 8.38578 1.4948 -1.2 0.0009819330973427382 6.704151421557526e-05 0.998946933440228 3.904492968733942e-13 4.091947827712026e-06
33 3 1.75158 5.79852 1.4948 -1.2 5.0900224435756366e-06 6.714320895180268e-06 0.9999878439505667 4.566209452888266e-11 3.516604370394796e-07
34 3 4.67421 6.06637 0.196716 -1.2 5.964608217365004e-08 4.078855221239495e-07 0.999999526163576 2.3488216961877452e-11 6.281335640375266e-09
35 1 6.26654 4.74899 2.9896 1.2 3.302244614073958e-10 1.5271002419853075e-08 0.9999996691399936 3.0974627367633464e-07 5.5125025704335645e-09
36 3 4.63043 6.06637 2.79288 -1.2 5.8805757530353615e-08 2.4200803380906104e-07 0.9999996644965131 1.4568842827180552e-09 3.323281268606405e-08
37 1 -1.12976 4.79031 4.4844 1.2 2.0354731900578773e-10 8.594588836637668e-10 0.999997892945902 2.1051742299044544e-06 8.168550706108478e-10
38 2 -2.9517 7.47444 4.4844 2.4 1.899920446004008e-08 2.4338704654736057e-07 0.9999944767530358 3.511463499073977e-07 4.909714361385339e-06
39 3 -3.00198 5.86121 4.4844 -1.2 2.7854196257014017e-10 1.0079808091217993e-09 0.9999999597110197 3.579376338126571e-08 3.2086927383550564e-09
40 3 0.666315 8.44846 4.4844 -1.2 1.8189161726893101e-07 2.6267563988106496e-07 0.9999984348946525 4.717498381673526e-10 1.120066339828801e-06
41 3 -2.21213 8.18062 3.18632 -1.2 1.2845720199593497e-06 2.5261814055523764e-07 0.9999981662107064 3.3758373047946535e-11 2.965653791055802e-07
42 3 -2.25864 8.18062 5.78248 -1.2 5.7189722951714614e-08 6.310164277907033e-09 0.9999990065055716 1.554786313962502e-08 9.144466831621436e-07
43 1 1.20893 7.12349 2.9896 1.2 2.7926020756840165e-07 2.814051147845173e-07 0.9999993932854772 4.172054919208962e-09 4.187714980660382e-08
44 1 4.00982 7.08218 4.4844 1.2 5.080345788673308e-08 2.2667461947005138e-08 0.9999998203231276 3.062680574351803e-08 7.557914790096333e-08
45 2 2.17861 9.14704 4.4844 2.4 2.834849227615509e-06 1.5909113300375681e-06 0.9999887528080625 1.3341904572121569e-08 6.8080894726996475e-06
46 3 2.18828 10.7603 4.4844 -1.2 1.3067670369847062e-05 2.1904268741008352e-07 0.9999853238381665 3.8465594818735835e-11 1.3894103099136707e-06
47 3 -4.43805 8.17302 4.4844 -1.2 1.0933265500609709e-07 1.3973629399130503e-07 0.9999986432519103 7.186781589900716e-10 1.1069604626077445e-06
48 3 2.89193 8.44087 3.18632 -1.2 4.236037265497642e-06 3.7532938340309445e-07 0.9999949309472111 1.5789581471874082e-10 4.575282396610511e-07
49 1 1.25915 7.12349 0 1.2 9.151036836486697e-07 4.6283696798277214e-07 0.9999986142161187 3.2403185304659024e-10 7.519194130150489e-09
50 3 2.84547 8.44087 5.78248 -1.2 1.1760569147742608e-07 1.729873287185312e-08 0.9999993374071102 6.938519119471531e-09 5.207499445351392e-07
51 1 -1.59284 7.16481 1.4948 1.2 2.0517794495478023e-06 6.368462593299927e-07 0.999997267138195 4.0519468231154644e-10 4.3830901469120306e-08
52 2 0.240329 5.09994 1.4948 2.4 2.568532092518739e-09 9.54301862878413e-08 0.9999998995814586 2.33644901186715e-09 8.337372271679593e-11
53 3 0.234538 3.48671 1.4948 -1.2 4.949979927552475e-11 1.7402446173000728e-08 0.9999999717146442 8.706151168024864e-09 2.1272645181344792e-09
54 3 6.85564 6.07396 1.4948 -1.2 8.379506851523083e-07 2.6922878274577646e-06 0.9999960616767783 9.953942020207893e-11 4.079851696815318e-07
55 3 -0.429565 5.80612 0.196716 -1.2 6.839547471803841e-09 5.23003907666435e-08 0.9999999400992312 1.0941937170877365e-10 6.514095153545734e-10
56 3 -0.473377 5.80612 2.79288 -1.2 6.62402987440917e-09 1.4153895467042898e-08 0.9999999671649965 7.307946057109189e-09 4.7491261379069765e-09
57 1 6.40169 9.49799 0 1.2 0.00014693003998729587 1.6118620752936927e-06 0.9998512325125759 1.9323054150970798e-12 2.2558343126138173e-07
58 1 3.64209 14.2057 1.4948 1.2 0.00042082660962981035 1.0390355083461559e-06 0.999577641260914 1.881735207069658e-12 4.930920724234062e-07
59 2 5.45748 11.5215 1.4948 2.4 0.0023973515097292014 1.954212322718452e-05 0.9975828376730224 7.949963503569792e-14 2.686939377521588e-07
60 3 5.51101 13.1348 1.4948 -1.2 0.020172384920862062 0.0001320792000852549 0.979685828948302 2.627052209891565e-14 9.706930721008767e-06
61 3 1.83851 10.5475 1.4948 -1.2 0.006685538757328242 2.356630133594247e-05 0.9932879526873194 2.7937692230114618e-14 2.9422539860279207e-06
62 3 4.7611 10.8154 0.196716 -1.2 0.0013127341824123355 1.4314995017338133e-05 0.9986722155338893 6.915798174890839e-14 7.352886108025293e-07
63 1 6.35203 9.49799 2.9896 1.2 3.4305650786456494e-05 3.1777023492048325e-06 0.9999616572643244 8.462235448761956e-11 8.592979244349453e-07
64 3 4.71833 10.8154 2.79288 -1.2 0.00012171030461354489 2.964928552454679e-06 0.9998732390910137 1.3561132747244728e-11 2.08566226612532e-06
65 1 -1.0438 9.53931 4.4844 1.2 3.9770163481002224e-06 1.1335301948452429e-07 0.9999951810440999 8.134068710032621e-09 7.204524599556842e-07
66 2 -2.8604 12.2234 4.4844 2.4 1.3719896171150323e-05 1.895963322239757e-06 0.9999804423807065 1.5171705807074925e-09 3.94024262356947e-06
67 3 -2.91391 10.6102 4.4844 -1.2 1.9743774493067197e-05 4.6251773260025495e-07 0.999978034013905 2.3738813033729062e-11 1.7596701369096087e-06
68 3 0.7596 13.1975 4.4844 -1.2 2.3685453703630876e-05 1.5896120811472407e-06 0.9999704801891048 1.1300123719368993e-10 4.244632106825106e-06
69 3 -2.12001 12.9296 3.18632 -1.2 0.00011742752184538814 1.9814582879088066e-06 0.9998789821876478 6.6734388457394625e-12 1.6088255387131724e-06
70 3 -2.16532 12.9296 5.78248 -1.2 0.00010212947130758946 5.360247362516287e-07 0.9998832097302148 7.832786774670337e-10 1.4123990464433393e-05
71 1 1.29891 11.8725 2.9896 1.2 0.0003506241839111751 5.317937286780885e-06 0.9996398993588697 5.371418901519755e-11 4.1584662229518615e-06
72 1 4.10033 11.8312 4.4844 1.2 5.528308011003851e-05 1.8164650735897772e-07 0.9999402358306213 4.2824786834664325e-09 4.2951602827307045e-06
73 2 2.27333 13.896 4.4844 2.4 0.00015108953405180262 4.359908737402095e-06 0.9998307928604985 1.7474851431897455e-09 1.3755949229427158e-05
74 3 2.28634 15.5093 4.4844 -1.2 0.00012494912048679777 8.722680563927554e-07 0.9998716407489461 3.5139123976834824e-12 2.537858997841097e-06
75 3 -4.34533 12.922 4.4844 -1.2 5.852172875658838e-06 4.575887392932442e-07 0.9999895854079207 1.9255523494417327e-10 4.104637908763341e-06
76 3 2.98455 13.1899 3.18632 -1.2 0.0001365089149229743 2.5302257266347795e-06 0.9998584516945626 1.4574297533395573e-11 2.509150220289284e-06
77 1 1.34779 11.8725 0 1.2 0.0005003939707739163 2.321939035678406e-06 0.9994967594530898 7.815761378451059e-13 5.246363238659737e-07
78 3 2.93934 13.1899 5.78248 -1.2 4.5923732501476806e-05 1.6933646663644833e-07 0.9999504515662089 8.769709006996396e-10 3.4544878455742947e-06
79 1 -1.50344 11.9138 1.4948 1.2 0.0003534326969248563 1.9579150085976293e-06 0.9996440930183668 1.2954645122932277e-12 5.163684028456301e-07
80 2 0.326006 9.84894 1.4948 2.4 0.000433339624665489 7.001891350988302e-06 0.999559579711249 1.3294481470221726e-13 7.877260291283072e-08
81 3 0.317364 8.23571 1.4948 -1.2 0.0004430806963011498 1.334563302400114e-05 0.999542423676748 2.0598282977225298e-12 1.1499918734362417e-06
82 3 6.94307 10.823 1.4948 -1.2 0.0030832509711790266 3.584056148213334e-05 0.9968790188795107 3.03960688919709e-14 1.8895877917076452e-06
83 3 -0.343122 10.5551 0.196716 -1.2 0.0003129436447090881 4.794744200673885e-06 0.9996820579188118 1.1847994220385412e-13 2.0369216311571535e-07
84 3 -0.385966 10.5551 2.79288 -1.2 0.00010579555262768363 3.220408795438212e-06 0.9998892703733617 2.727281088444198e-11 1.7136379485190887e-06
85 1 6.49448 14.247 0 1.2 0.0010500502768271162 1.4105902507713479e-06 0.9989480575307488 4.808986132364818e-14 4.816021303870791e-07
86 1 3.74457 18.9547 1.4948 1.2 5.731393598006301e-05 2.031227897468853e-07 0.9999424420383952 3.483900264099094e-13 4.090248560997213e-08
87 2 5.55495 16.2705 1.4948 2.4 0.0010566469114242966 8.087223989830924e-06 0.9989352413600392 6.0329202141347365e-15 2.4504547603933775e-08
88 3 5.6115 17.8838 1.4948 -1.2 0.00918920376094182 7.0756052729309e-05 0.9907388596810899 1.5978842340966802e-15 1.180505231116525e-06
89 3 1.93416 15.2965 1.4948 -1.2 0.03465233966387447 6.316087628673438e-05 0.9652805158862315 2.696811581868401e-15 3.983573600400076e-06
90 3 4.85636 15.5644 0.196716 -1.2 0.007681593621050535 2.695896616327938e-05 0.9922904914703384 3.861618581203087e-15 9.559424505569623e-07
91 1 6.44662 14.247 2.9896 1.2 0.00020400231409181763 2.1604007015738343e-06 0.9997923537179766 1.6448056279417182e-11 1.4835507860946175e-06
92 3 4.81537 15.5644 2.79288 -1.2 0.0009800311810585723 1.3799788953013352e-05 0.9990037573521823 1.009770555694387e-12 2.411676792846145e-06
93 1 -0.948271 14.2883 4.4844 1.2 3.71536478227429e-05 3.648771593764564e-07 0.9999596971143107 1.874337362617526e-09 2.7824863693015353e-06
94 2 -2.75928 16.9724 4.4844 2.4 0.00014980373579636863 2.3791561632435634e-06 0.9998467788912481 9.490094979104937e-11 1.038121892911302e-06
95 3 -2.81617 15.3592 4.4844 -1.2 4.757879849116417e-05 6.920466413477395e-07 0.9999497869991519 4.519408443664161e-12 1.9421511917643777e-06
96 3 0.862762 17.9465 4.4844 -1.2 7.048636842701995e-05 2.574924652460896e-06 0.9999247926996679 9.344986205162468e-12 2.145997901588372e-06
97 3 -2.0185 17.6786 3.18632 -1.2 0.00019813526769777413 1.4924343574434312e-06 0.9998000137911509 3.1319830514110274e-13 3.585064767696512e-07
98 3 -2.06164 17.6786 5.78248 -1.2 0.0004308483060442312 4.732395624665507e-07 0.9995635029692631 5.347528472045141e-11 5.175431654776812e-06
99 1 1.39817 16.6215 2.9896 1.2 0.00033222505781812405 2.6998927893276016e-06 0.9996630491679301 7.086765873354987e-12 2.025874380063358e-06
100 1 4.20062 16.5802 4.4844 1.2 3.9830988897010614e-05 1.230125477746754e-07 0.9999589808170257 9.181024923668565e-10 1.064263427556088e-06
101 2 2.37796 18.645 4.4844 2.4 7.496776318472057e-05 9.128941459717477e-07 0.9999238533938112 2.835472455164972e-11 2.659204965164264e-07
102 3 2.39434 20.2583 4.4844 -1.2 9.236314049619475e-05 3.051380465799106e-07 0.9999070489846529 1.0199528623031098e-13 2.8273670062541985e-07
103 3 -4.24274 17.671 4.4844 -1.2 3.784322674419789e-05 1.0376971878337863e-06 0.9999600284227841 1.5654396777747362e-11 1.0906376253563942e-06
104 3 3.08659 17.9389 3.18632 -1.2 0.00010212244707933118 1.0851382831331958e-06 0.9998965057922165 7.724949153633782e-13 2.866216495891963e-07
105 1 1.44478 16.6215 0 1.2 0.001340117857424331 1.20858874968411e-06 0.9986581561771763 9.878894895361964e-14 5.17376550137649e-07
106 3 3.0436 17.9389 5.78248 -1.2 0.00016009227924356672 1.1293450209309127e-07 0.9998388488045299 5.4921257945223194e-11 9.459268003735242e-07
107 1 -1.40524 16.6628 1.4948 1.2 0.0011772877687551257 2.41843922418111e-06 0.9988196135913067 1.3891029004200912e-13 6.802005709217633e-07
108 2 0.420358 14.5979 1.4948 2.4 0.004539667047702741 2.9682234073431815e-05 0.9954304804780821 4.2623556359055755e-14 1.7024010539650092e-07
109 3 0.408732 12.9847 1.4948 -1.2 0.029128252011214002 0.00014638974379559553 0.970718410122857 2.7646475590367003e-14 6.948122109492424e-06
110 3 7.03923 15.572 1.4948 -1.2 0.015753411028336255 9.496857976222724e-05 0.9841485198085393 5.265318113405584e-15 3.10058335092336e-06
111 3 -0.248332 15.3041 0.196716 -1.2 0.002642570949592738 2.780543470169563e-05 0.9973290400398629 1.8687153714539658e-14 5.835758257424793e-07
112 3 -0.289436 15.3041 2.79288 -1.2 0.001568622826097981 2.0202387785576224e-05 0.9984044301010491 5.458617928673452e-12 6.7446796106396415e-06
113 1 6.59566 18.996 0 1.2 0.00044571243689349606 2.959113438307169e-07 0.9995538975656311 4.234352366394665e-15 9.408612521676358e-08
114 1 3.85574 23.7037 1.4948 1.2 0.0014304398484136455 5.695117712307844e-07 0.9985688069297205 8.06924769044735e-14 1.8371001895791894e-07
115 2 5.66125 21.0195 1.4948 2.4 0.0015475776904249731 3.3370213377630464e-06 0.9984490806677717 1.4867655889618227e-15 4.620457782096076e-09
116 3 5.72074 22.6328 1.4948 -1.2 0.02629451536064505 4.9772128439212124e-05 0.9736548451587255 1.042389326217497e-15 8.673521878074499e-07
117 3 2.03867 20.0455 1.4948 -1.2 0.02808103104217001 3.244155073051689e-05 0.9718854803115144 1.8026539549754097e-16 1.047095589506631e-06
118 3 4.96004 20.3134 0.196716 -1.2 0.004921566197234568 8.676334279392928e-06 0.9950695498493115 7.860097671687434e-16 2.0761917767329586e-07
119 1 6.55057 18.996 2.9896 1.2 0.00010336236064906712 5.264911852593443e-07 0.9998959321026698 6.311516816257303e-13 1.7904486138510183e-07
120 3 4.92172 20.3134 2.79288 -1.2 0.0002741555767572825 2.5594730317823424e-06 0.9997230762807198 8.822509225634317e-14 2.0866940590472075e-07
121 1 -0.84282 19.0373 4.4844 1.2 2.7697613683780916e-05 1.250525134728185e-07 0.9999717619996461 1.2354180123729702e-10 4.15210609113444e-07
122 2 -2.64823 21.7214 4.4844 2.4 0.00015000581103235478 4.6515549204832923e-07 0.9998494670106092 7.238403105334712e-12 6.201563443170704e-08
123 3 -2.70847 20.1082 4.4844 -1.2 2.4287105962442864e-05 1.444097848186022e-07 0.9999754514943288 1.68558351044303e-13 1.1698975222399979e-07
124 3 0.97581 22.6955 4.4844 -1.2 0.00029999414145671124 1.7872933865885888e-06 0.99969749700624 7.189574426486057e-13 7.215582036361052e-07
125 3 -1.9076 22.4276 3.18632 -1.2 0.0003436505967926603 6.871435613035993e-07 0.9996555868824639 1.7592744457177947e-14 7.537717033480635e-08
126 3 -1.9475 22.4276 5.78248 -1.2 0.00040071113938058573 1.1385588720237557e-07 0.9995986167605632 2.7624554212544387e-12 5.582414039546715e-07
127 1 1.50678 21.3705 2.9896 1.2 0.000425968012318482 8.00444763643636e-07 0.9995727842835332 4.98106068274473e-13 4.472588804338415e-07
128 1 4.31086 21.3292 4.4844 1.2 1.6051709210510075e-05 2.0392078083297227e-08 0.9999838607229604 5.629073952205516e-11 6.711945537330848e-08
129 2 2.49243 23.394 4.4844 2.4 0.00030091173117475427 4.78286475935198e-07 0.9996985468884189 3.687315813808121e-12 6.309024420510351e-08
130 3 2.51204 25.0073 4.4844 -1.2 0.0001569041125714126 1.5078923091293756e-07 0.999842666550688 9.03596548747033e-14 2.7854742516796694e-07
131 3 -4.13026 22.42 4.4844 -1.2 4.3315325671434164e-05 4.999884535277308e-07 0.9999560098016302 1.0091808987606713e-12 1.748832423471763e-07
132 3 3.19799 22.6879 3.18632 -1.2 0.0003281645138135692 1.0219804865290708e-06 0.9996706938677155 5.14281200040461e-14 1.1963793442954266e-07
133 1 1.5501 21.3705 0 1.2 0.0008893590358123191 3.572479411805751e-07 0.9991101504511026 1.2674811183609316e-14 1.3326513418628674e-07
134 3 3.1583 22.6879 5.78248 -1.2 6.781112241167234e-05 3.036621058449837e-08 0.9999319273410066 8.03524158043238e-12 2.3116232944927643e-07
135 1 -1.29822 21.4118 1.4948 1.2 0.000529043532817416 5.337137363892812e-07 0.9994703180066961 8.699055990390819e-15 1.0474674713628053e-07
136 2 0.523568 19.3469 1.4948 2.4 0.001077195343351986 4.499713671880542e-06 0.9989183004603348 3.3588610284307436e-15 4.482642088412173e-09
137 3 0.508934 17.7337 1.4948 -1.2 0.006230707415199031 5.633452292720639e-05 0.993712153577734 3.0933983349720243e-15 8.044841361381063e-07
138 3 7.14425 20.321 1.4948 -1.2 0.0123914903846104 4.439018607498302e-05 0.9875635622404291 1.7814643356633397e-16 5.571888800194241e-07
139 3 -0.145107 20.0531 0.196716 -1.2 0.002078241740246636 9.847595793066743e-06 0.9979118021415194 1.3396905993574268e-15 1.0852243754167878e-07
140 3 -0.183601 20.0531 2.79288 -1.2 0.0018569777314536085 1.4171015725921533e-05 0.9981281380357797 6.089899604564464e-14 7.132169821107483e-07
141 1 6.70502 23.745 0 1.2 0.009392677210794807 2.0051580140582943e-06 0.9906041884515255 6.4639254170367956e-15 1.1291796591590916e-06
142 1 3.97493 28.4527 1.4948 1.2 0.12121962100366168 1.5102023173905964e-05 0.8787470709844623 1.8978961295264777e-12 1.8205986798916427e-05
143 2 5.77602 25.7685 1.4948 2.4 0.27877443598867646 2.4454114978359058e-05 0.721200963677247 5.047582032709469e-15 1.4621909334256565e-07
144 3 5.83821 27.3818 1.4948 -1.2 0.5473990839919864 6.532105486991561e-05 0.4525263544401929 2.770533826890071e-15 9.24051294471638e-06
145 3 2.15175 24.7945 1.4948 -1.2 0.7412832718682149 0.00013808099473176314 0.2585693457348497 1.0579739488747829e-16 9.301402209335752e-06
146 3 5.07184 25.0624 0.196716 -1.2 0.351528893877103 5.5962275095558174e-05 0.648408001495874 3.2888937912077245e-15 7.142351925755051e-06
147 1 6.66374 23.745 2.9896 1.2 0.000702354801731203 5.919928072880683e-07 0.9992967884427563 1.5311031673774798e-13 2.6476254624930347e-07
148 3 5.03707 25.0624 2.79288 -1.2 0.0031102736407419276 6.351905007242082e-06 0.9968824658340777 1.6572625397681726e-13 9.086200118244385e-07
149 1 -0.727559 23.7863 4.4844 1.2 8.839013467444197e-05 1.2588551760238737e-07 0.99991127212377 1.479920609759426e-11 2.1184123914800354e-07
150 2 -2.5277 26.4704 4.4844 2.4 0.000589758038154342 2.146669113669048e-07 0.9994099668895727 5.074664008686775e-12 6.040028718779928e-08
151 3 -2.59107 24.8572 4.4844 -1.2 8.22092373043191e-05 1.370817409594807e-07 0.9999174680171099 7.232202803401215e-14 1.856637712398625e-07
152 3 1.09817 27.4445 4.4844 -1.2 0.002206416514444155 2.3362628371024924e-06 0.9977884447852414 2.022006270577431e-12 2.802435457970845e-06
153 3 -1.78784 27.1766 3.18632 -1.2 0.004794190312652644 7.321096183956807e-07 0.9952045550024645 1.3200739106070966e-13 5.225751282486018e-07
154 3 -1.82343 27.1766 5.78248 -1.2 0.0008862988521091767 5.7409706118813796e-08 0.9991132719267324 3.0527636866277685e-12 3.7180839846483443e-07
155 1 1.62435 26.1195 2.9896 1.2 0.006608159780623794 1.6885590208287741e-06 0.9933886472714022 3.50735150654985e-13 1.5043885993410235e-06
156 1 4.43064 26.0782 4.4844 1.2 0.00013835123238585827 3.1275755654215723e-08 0.9998614964933513 3.303122179033513e-11 1.2096548006391686e-07
157 2 2.61607 28.143 4.4844 2.4 0.0021120689180162177 5.485391891671261e-07 0.997887054770767 3.565822373180894e-11 3.2773636902255686e-07
158 3 2.63853 29.7563 4.4844 -1.2 0.00021215030922380935 6.770895915557768e-08 0.9997872118893337 1.301127261178715e-12 5.70091182956277e-07
159 3 -4.00841 27.169 4.4844 -1.2 0.00045394221803750644 5.298969108727079e-07 0.9995449855272296 7.980056135420253e-13 5.423570285496099e-07
160 3 3.3182 27.4369 3.18632 -1.2 0.007359362277075708 2.7176106445345025e-06 0.992636401476827 1.9085298118506887e-13 1.5186352645523167e-06
161 1 1.66335 26.1195 0 1.2 0.06372906015868585 1.0396903207475005e-05 0.9362536536856031 3.341978191501286e-14 6.889252474354494e-06
162 3 3.28288 27.4369 5.78248 -1.2 0.00020401662778068552 1.1631890938314617e-08 0.9997958292144515 6.649558109795851e-12 1.4251922120188222e-07
163 1 -1.18278 26.1608 1.4948 1.2 0.05554525289604166 1.1239271975676965e-05 0.9444373478263145 8.813807911635345e-14 6.160005584053228e-06
164 2 0.635424 24.0959 1.4948 2.4 0.008108674543874601 3.532464717233974e-06 0.99188778937833 1.4578687417474523e-15 3.613080562525831e-09
165 3 0.617906 22.4827 1.4948 -1.2 0.016800632117291107 3.411958023600448e-05 0.9831648335394478 5.734179971487366e-16 4.1476302944077415e-07
166 3 7.25781 25.07 1.4948 -1.2 0.37590354414995847 0.00016334871583457001 0.6239264137728225 2.9939438203916607e-16 6.693361389068372e-06
167 3 -0.0337363 24.8021 0.196716 -1.2 0.06198805977330317 2.917232641933356e-05 0.9379813936853956 2.0832986435804677e-15 1.3742148801792448e-06
168 3 -0.0687235 24.8021 2.79288 -1.2 0.011563391483594003 1.5914378478788085e-05 0.9884191299527744 9.245250993830814e-14 1.5641850624159154e-06
169 1 6.82195 28.494 0 1.2 0.19856573256921672 3.2849957967627957e-05 0.8013526539004032 1.9051616741392213e-13 4.876357222403707e-05
170 1 4.10106 33.2017 1.4948 1.2 0.4823232751312337 0.00023157198484581855 0.5169247436063601 2.3198355510567568e-10 0.0005204090455699364
171 2 5.89839 30.5175 1.4948 2.4 0.9781489818461416 1.468588288179311e-05 0.021835343052265956 1.3250500718416458e-14 9.89218694892764e-07
172 3 5.96289 32.1308 1.4948 -1.2 0.7601896300653522 9.355251918000848e-05 0.23966071768973096 3.2297261462029174e-13 5.609972542053093e-05
173 3 2.27266 29.5435 1.4948 -1.2 0.9739466904946554 0.00011577713881079116 0.0258723422130566 2.673392919225381e-15 6.519015348056473e-05
174 3 5.19102 29.8114 0.196716 -1.2 0.9466205373815473 2.4958740445277616e-05 0.05332294646749459 7.873096346810104e-15 3.155741050031339e-05
175 1 6.78546 28.494 2.9896 1.2 0.020955677083776377 2.9222002257498863e-06 0.9790358393036994 1.739193223900869e-12 5.561410553940356e-06
176 3 5.16061 29.8114 2.79288 -1.2 0.04127461422411662 1.7427313415191655e-05 0.9586990808622442 2.2300517845147674e-12 8.877597986921976e-06
177 1 -0.603205 28.5353 4.4844 1.2 0.000680388240896598 1.3750579802655112e-07 0.999318559477784 1.0954576693228228e-10 9.146659759624279e-07
178 2 -2.39877 31.2194 4.4844 2.4 0.0016159265727306302 4.703431110309356e-07 0.9983830397442173 8.149703895862017e-11 5.632584401155817e-07
179 3 -2.46483 29.6062 4.4844 -1.2 5.93755578823425e-05 4.9384165422778526e-08 0.999940416820123 1.4006380455398485e-12 1.5823642412060936e-07
180 3 1.22864 32.1935 4.4844 -1.2 0.0012465110341291468 1.204690981741353e-06 0.99874797547108 2.5562358547482285e-11 4.308778246595673e-06
181 3 -1.66032 31.9256 3.18632 -1.2 0.00558729306719092 1.6394925759353073e-06 0.9944095257930298 4.527638391845115e-12 1.5416426740657719e-06
182 3 -1.69072 31.9256 5.78248 -1.2 0.00040439219727608674 2.763053272838626e-08 0.9995952110854154 4.147334997027537e-11 3.690453034689797e-07
183 1 1.7499 30.8685 2.9896 1.2 0.03593818998896902 8.1862297284984e-06 0.9640348016896144 1.2968212822545567e-11 1.8822078715224582e-05
184 1 4.55894 30.8272 4.4844 1.2 0.0012926596018025607 6.187594682878355e-08 0.9987065987031168 2.669361846411407e-10 6.795522020814443e-07
185 2 2.7476 32.892 4.4844 2.4 0.0016246013115052632 6.091446217172863e-07 0.9983737185191089 5.134081412931657e-10 1.070511363072252e-06
186 3 2.77235 34.5053 4.4844 -1.2 4.611371414711127e-05 2.8145486831878387e-08 0.9999533701677764 2.463150091261113e-11 4.87947954175948e-07
187 3 -3.87837 31.918 4.4844 -1.2 0.0004609490815523294 3.897266135100729e-07 0.9995371083076862 2.1002382580202916e-11 1.5528631384867158e-06
188 3 3.44611 32.1859 3.18632 -1.2 0.016989135684933026 5.281566643668076e-06 0.9829971029017027 1.511403752305728e-11 8.47983161114735e-06
189 1 1.7837 30.8685 0 1.2 0.6465660482616306 7.969780462185941e-05 0.35308219879536057 6.401349040927347e-13 0.0002720551377443832
190 3 3.41602 32.1859 5.78248 -1.2 7.876010091668003e-05 6.940220848543725e-09 0.9999211259207602 3.370654756602095e-11 1.0700440131409354e-07
191 1 -1.05984 30.9098 1.4948 1.2 0.7005191874753044 0.0001336408090428488 0.2991123257788456 3.678431731477968e-12 0.00023484593313023188
192 2 0.755243 28.8449 1.4948 2.4 0.8912908541043139 1.1276683150615685e-05 0.10869770015742933 4.4908143063715e-15 1.6905510837105863e-07
193 3 0.735127 27.2317 1.4948 -1.2 0.7396195982016922 8.051243319507433e-05 0.2602917213823684 1.45521831826581e-15 8.167982738254579e-06
194 3 7.37914 29.819 1.4948 -1.2 0.8563966447451551 0.00017061220120989559 0.14336813698293654 1.603932758523888e-14 6.460607067646206e-05
195 3 0.0850649 29.5511 0.196716 -1.2 0.6165161710728938 9.200958943666111e-05 0.38335610774732576 8.734909425427214e-14 3.571159025012271e-05
196 3 0.0543974 29.5511 2.79288 -1.2 0.09394547413385955 3.741052473183056e-05 0.906004453063338 1.195718086460612e-12 1.2662276876084326e-05
197 1 6.94543 33.243 0 1.2 0.5222727236963554 8.861446501223162e-05 0.47725929426417396 6.586603751033967e-12 0.00037936756787096935
198 1 4.23267 37.9507 1.4948 1.2 0.19172519436792881 0.00010619666493195383 0.8078283866533051 2.8803819401151877e-09 0.00034021943344537817
199 2 6.02709 35.2665 1.4948 2.4 0.9938782401864166 3.5473176317154335e-05 0.006076233322490799 3.800905002877578e-13 1.005331439030433e-05
200 3 6.09339 36.8798 1.4948 -1.2 0.24119467748450577 0.00011315596037723592 0.7585902005306342 2.7354725034940893e-11 0.00010196599713460168
201 3 2.40018 34.2925 1.4948 -1.2 0.83626948803978 0.000509820146160685 0.162698524121089 4.068469397820769e-12 0.0005221676889044845
202 3 5.31645 34.5604 0.196716 -1.2 0.9272529122667205 6.28668181811457e-05 0.07245703237836686 1.059528870863566e-12 0.00022718853567840332
203 1 6.91449 33.243 2.9896 1.2 0.034588158860144644 7.916270050135789e-06 0.9653700431963492 1.848619030082257e-10 3.388148858730798e-05
204 3 5.291 34.5604 2.79288 -1.2 0.011811968060665277 2.2077996102201013e-05 0.9881409567832499 1.0481541524930716e-10 2.4997055162002954e-05
205 1 -0.471101 33.2843 4.4844 1.2 0.0024947737805593845 4.787127645081896e-07 0.9975012014591356 1.20450170968924e-09 3.544843039153314e-06
206 2 -2.26307 35.9684 4.4844 2.4 0.00012216654257245641 1.7853719352632504e-07 0.9998764162936995 3.574915114159501e-09 1.2350516245366325e-06
207 3 -2.33122 34.3552 4.4844 -1.2 5.398507446015233e-05 3.295406082690407e-08 0.9999457438936598 2.1426272805409336e-11 2.3805639016401984e-07
208 3 1.36549 36.9425 4.4844 -1.2 4.191802612760756e-05 1.3102271234066546e-07 0.9999568717738663 1.7453353394085023e-10 1.0790027661037825e-06
209 3 -1.52658 36.6746 3.18632 -1.2 0.001951979626804812 1.1668146302734673e-06 0.9980443209522898 1.285921306857101e-10 2.532477677755027e-06
210 3 -1.55122 36.6746 5.78248 -1.2 5.4184712841035875e-05 4.067320606242092e-09 0.9999457260173462 1.6089806976070437e-10 8.504159069018759e-08
211 1 1.882 35.6175 2.9896 1.2 0.02135469791818966 8.055923536918335e-06 0.9786118259610318 2.983968754832055e-10 2.5419898844022028e-05