ITEM: TIMESTEP
12500
ITEM: NUMBER OF ATOMS
10500
ITEM: BOX BOUNDS xy xz yz pp pp pp
0	15.2974	5.099
0	118.725	0
0	89.688	0
ITEM: ATOMS id type xu yu zu q pCrystal pDisloC pDisloB pDisloA
1 1 6.2404 -6.37941e-06 0 1.2 1.0810563768721581e-20 1.3477716222020956e-09 0.9999999981772163 4.750065564486707e-10
2 1 3.46349 4.70768 1.4948 1.2 8.154110594783747e-07 0.012883253420756509 0.7450169383615681 0.242098992806619
3 2 5.2885 2.02354 1.4948 2.4 2.4892222145537142e-05 0.9973690689080768 0.0015573315661639587 0.0010487073036114134
4 3 5.33628 3.63678 1.4948 -1.2 9.806091701846442e-11 0.9999696631243999 3.033210478114895e-05 4.6727553180999894e-09
5 3 1.67294 1.04952 1.4948 -1.2 6.101807184855561e-17 0.8663405349944673 0.13365945534653212 9.659006756796849e-09
6 3 4.59532 1.31737 0.196716 -1.2 3.4676196884853857e-18 0.5937380727099391 0.40626192715063525 1.3942349656852607e-10
7 1 6.18956 -6.37941e-06 2.9896 1.2 1.6231129118534488e-25 4.6980325280880465e-09 0.9999999952756298 2.633351840483113e-11
8 3 4.55118 1.31737 2.79288 -1.2 3.9747622573787765e-21 0.03579687830538859 0.9642031216723415 2.2276460828685698e-11
9 1 -1.20682 0.0413099 4.4844 1.2 1.928128314085269e-30 1.0915342619290745e-11 0.9999999999886597 4.1917047212761486e-13
10 2 -3.0337 2.72544 4.4844 2.4 4.919665708298268e-09 0.9984808460273504 0.0008145483154334979 0.0007046007375510144
11 3 -3.08099 1.11221 4.4844 -1.2 1.141093322718891e-24 0.012800430482027834 0.9871995695170288 9.460306329208452e-13
12 3 0.582463 3.69946 4.4844 -1.2 8.798405505447303e-15 0.9959941724330398 0.00400582468509528 2.881858451381027e-09
13 3 -2.29524 3.43162 3.18632 -1.2 6.558582028104519e-14 0.9996863639340807 0.00031363404913923513 2.016714472303135e-09
14 3 -2.34216 3.43162 5.78248 -1.2 2.2001811175305906e-18 0.9284498049798866 0.07155019489185178 1.28268056095155e-10
15 1 1.12778 2.37449 2.9896 1.2 1.5404008821442206e-18 5.43606770523505e-07 0.9999992949059687 1.6148726087845915e-07
16 1 3.92855 2.33318 4.4844 1.2 8.23561314070619e-23 3.1363147606753822e-09 0.999999837788791 1.5907489659939506e-07
17 2 2.09341 4.39804 4.4844 2.4 0.7104795087452467 0.2895140930073114 6.376431004541873e-06 2.181643582882796e-08
18 3 2.09991 6.01128 4.4844 -1.2 3.4880552129529476e-07 0.9999991866729839 4.264546657411379e-07 3.806682731003699e-08
19 3 -4.52137 3.42402 4.4844 -1.2 1.603962712201364e-17 0.9156698683616479 0.08433013119459111 4.4375954593527556e-10
20 3 2.80834 3.69187 3.18632 -1.2 3.1459886630673014e-14 0.999311719211069 0.0006882802980213949 4.908852149882294e-10
21 1 1.17857 2.37449 0 1.2 6.762199377663718e-18 1.134927012660125e-06 0.9999956382097592 3.2268632211741024e-06
22 3 2.76143 3.69187 5.78248 -1.2 6.469568052514454e-20 0.898497115632838 0.10150288434521822 2.1937213144142766e-11
23 1 -1.67381 2.41581 1.4948 1.2 2.3555755519857637e-10 0.003624155641804247 0.9950396729790686 0.001336171143563648
24 2 0.16286 0.350945 1.4948 2.4 4.655016676474227e-08 0.634703391240264 0.008275912536941868 0.3570206496726285
25 3 0.15972 -1.26229 1.4948 -1.2 4.096440556605433e-15 0.9535690530147326 0.046430697451657 2.4953360674406565e-07
26 3 6.77654 1.32496 1.4948 -1.2 7.574359278860431e-15 0.9922443813905147 0.00775559712419716 2.1485282095093624e-08
27 3 -0.508028 1.05712 0.196716 -1.2 4.660129103154276e-19 0.2079183212497736 0.7920816765636741 2.1865460842355498e-09
28 3 -0.552171 1.05712 2.79288 -1.2 1.9881449482671737e-21 0.11995006174963362 0.8800499380271432 2.2322563036340434e-10
29 1 6.31713 4.74899 0 1.2 7.963318018662904e-09 0.01798320372486899 0.8325731157322148 0.14944367257960325
30 1 3.54847 9.45668 1.4948 1.2 0.9506351048671262 0.04910248294409047 7.136779979488052e-15 0.00026241218877473907
31 2 5.36879 6.77254 1.4948 2.4 0.9999999989945678 1.0054332776197264e-09 1.7327462656839245e-24 1.315649428111759e-22
32 3 5.41937 8.38578 1.4948 -1.2 0.9741990484925909 0.025800935670787888 5.76110862122418e-17 1.5836622418770565e-08
33 3 1.75158 5.79852 1.4948 -1.2 0.002186113959352373 0.9978135006258844 3.896400726886252e-11 3.853757925263337e-07
34 3 4.67421 6.06637 0.196716 -1.2 5.916327909552854e-06 0.9999940178553305 5.9115384535267986e-08 6.701375348375249e-09
35 1 6.26654 4.74899 2.9896 1.2 5.126810495972589e-08 0.0013351888112107064 0.30713257198511784 0.6915321879355705
36 3 4.63043 6.06637 2.79288 -1.2 2.866053969668046e-06 0.9999970735837184 4.6164153180452887e-08 1.4198162276462466e-08
37 1 -1.12976 4.79031 4.4844 1.2 4.186484956292714e-09 2.6045489697805074e-05 0.9154492148184377 0.08452473550537878
38 2 -2.9517 7.47444 4.4844 2.4 0.9999999998974687 1.0253312649939697e-10 2.3822103966447692e-20 3.027496618187608e-23
39 3 -3.00198 5.86121 4.4844 -1.2 2.3368534046654675e-09 0.9999910219142419 8.97236319932388e-06 3.3857021276409307e-09
40 3 0.666315 8.44846 4.4844 -1.2 0.00918764671470925 0.9908120993020018 2.6554215217741147e-10 2.537177407104117e-07
41 3 -2.21213 8.18062 3.18632 -1.2 0.05851674089646305 0.9414832041710948 3.4675370689293766e-11 5.489776780847923e-08
42 3 -2.25864 8.18062 5.78248 -1.2 0.0002241280985471814 0.9997758341475212 2.8245036892330824e-08 9.50888768018109e-09
43 1 1.20893 7.12349 2.9896 1.2 0.1307346326861498 0.3784087264262856 8.404408420024747e-07 0.49085580044671767
44 1 4.00982 7.08218 4.4844 1.2 0.0029691575693725 0.005998788143184881 0.0133428050330751 0.977689249254369
45 2 2.17861 9.14704 4.4844 2.4 1.0 3.4131747835782017e-16 1.5050915445226227e-29 3.018845236470299e-32
46 3 2.18828 10.7603 4.4844 -1.2 0.9046705440142105 0.09532942705168192 2.021598685865251e-14 2.893408473865329e-08
47 3 -4.43805 8.17302 4.4844 -1.2 0.00021371570993497372 0.9997861583398499 1.1328106043990853e-07 1.266915334938814e-08
48 3 2.89193 8.44087 3.18632 -1.2 0.059128205694241674 0.9408716995205582 4.3069297895995914e-11 9.47421336143324e-08
49 1 1.25915 7.12349 0 1.2 0.08710601186954718 0.5622396229605019 4.294609402924192e-07 0.35065393570900677
50 3 2.84547 8.44087 5.78248 -1.2 0.001800409183551037 0.9981995750680178 4.04180242278041e-09 1.1706633656285701e-08
51 1 -1.59284 7.16481 1.4948 1.2 0.27104978003614494 0.691445712686796 2.2645370868944906e-08 0.037504484631684265
52 2 0.240329 5.09994 1.4948 2.4 0.9999030205505036 9.697944921232414e-05 8.687229168988375e-16 2.8336933964521487e-13
53 3 0.234538 3.48671 1.4948 -1.2 5.042807109271605e-12 0.999913082103909 8.689436836342411e-05 2.3522686568824176e-08
54 3 6.85564 6.07396 1.4948 -1.2 3.860781238701761e-05 0.9999613314286234 1.905284696136516e-09 5.8853701202609824e-08
55 3 -0.429565 5.80612 0.196716 -1.2 1.0471415433766278e-06 0.9999988295103208 1.1796323296304008e-07 5.3849012294175716e-09
56 3 -0.473377 5.80612 2.79288 -1.2 2.148074468515157e-07 0.9999994474031374 3.307380891917863e-07 7.051322166090161e-09
57 1 6.40169 9.49799 0 1.2 0.9676671280329808 0.0323265500484129 2.8699750985193676e-16 6.3219186099387976e-06
58 1 3.64209 14.2057 1.4948 1.2 0.9822010426506063 0.017796602778976524 1.931698975553632e-20 2.354570422613593e-06
59 2 5.45748 11.5215 1.4948 2.4 1.0 6.8324102394421e-16 9.458194755923205e-39 1.8067498964821776e-34
60 3 5.51101 13.1348 1.4948 -1.2 0.9997844245578208 0.00021557471832852135 3.431719574221926e-24 7.238563967667152e-10
61 3 1.83851 10.5475 1.4948 -1.2 0.9996518599161747 0.0003481397743629192 1.1817409352346698e-21 3.094559745979381e-10
62 3 4.7611 10.8154 0.196716 -1.2 0.9973705213198015 0.0026294782153738552 5.66460247577827e-19 4.6482667477949904e-10
63 1 6.35203 9.49799 2.9896 1.2 0.9325785088455277 0.06684388436539586 2.0388358543745923e-14 0.0005776067890579023
64 3 4.71833 10.8154 2.79288 -1.2 0.9879026841305758 0.012097313640601022 1.3902812414096046e-16 2.2288283533971004e-09
65 1 -1.0438 9.53931 4.4844 1.2 0.866826631006959 0.050333276575666115 1.7711225589178286e-10 0.08284009224025964
66 2 -2.8604 12.2234 4.4844 2.4 1.0 3.5889452058104794e-19 1.4532400018064269e-34 9.282514961527248e-37
67 3 -2.91391 10.6102 4.4844 -1.2 0.9070360956024707 0.09296387562508936 1.6009167177523044e-14 2.8772418817877106e-08
68 3 0.7596 13.1975 4.4844 -1.2 0.8835860524548419 0.11641392405617772 9.606014761073271e-15 2.3488963864519533e-08
69 3 -2.12001 12.9296 3.18632 -1.2 0.9933037445845103 0.0066962539594935255 1.0148112686703587e-17 1.4560004666520514e-09
70 3 -2.16532 12.9296 5.78248 -1.2 0.9588382793172552 0.04116171987967751 1.27178326021596e-15 8.030687307422242e-10
71 1 1.29891 11.8725 2.9896 1.2 0.9650688953694047 0.03414175591169642 4.756774545128604e-17 0.0007893487189006859
72 1 4.10033 11.8312 4.4844 1.2 0.9760487597988592 0.011284296292048144 5.350500957827117e-13 0.012666943908559426
73 2 2.27333 13.896 4.4844 2.4 1.0 1.5600690971427322e-20 4.389122081232318e-37 1.2231925918727053e-38
74 3 2.28634 15.5093 4.4844 -1.2 0.9976124655746141 0.0023875333842946706 1.2372118958619836e-18 1.0410923410418098e-09
75 3 -4.34533 12.922 4.4844 -1.2 0.5885272711327043 0.41147269743201287 6.199869959806281e-13 3.1434659483980693e-08
76 3 2.98455 13.1899 3.18632 -1.2 0.9853665253181203 0.014633471958004364 2.290085953545167e-16 2.723877193099138e-09
77 1 1.34779 11.8725 0 1.2 0.9773783140667699 0.02260638295504209 5.171572444287742e-19 1.530297819270513e-05
78 3 2.93934 13.1899 5.78248 -1.2 0.8771648352583719 0.12283516424016162 1.1401524682997451e-14 5.014536832630565e-10
79 1 -1.50344 11.9138 1.4948 1.2 0.9848673411723049 0.01512627406107048 2.8366453237646555e-19 6.38476661782112e-06
80 2 0.326006 9.84894 1.4948 2.4 1.0 6.093594230939276e-15 2.389129871246114e-36 4.850921430425026e-34
81 3 0.317364 8.23571 1.4948 -1.2 0.8931528504564371 0.10684711172103804 7.659817930432981e-16 3.7822518704248854e-08
82 3 6.94307 10.823 1.4948 -1.2 0.9993400540828937 0.0006599456219435627 4.664932668802688e-22 2.951593072248152e-10
83 3 -0.343122 10.5551 0.196716 -1.2 0.9906880934041083 0.009311905263459359 1.7653027993727473e-17 1.3324363860982573e-09
84 3 -0.385966 10.5551 2.79288 -1.2 0.9704046113803138 0.029595379378355605 9.864206234225993e-16 9.241329882598968e-09
85 1 6.49448 14.247 0 1.2 0.98963370069999 0.010366258785639513 9.693890632726987e-22 4.0514363377122144e-08
86 1 3.74457 18.9547 1.4948 1.2 0.9810046965471327 0.018994875441407287 9.744636284231534e-20 4.280114559255947e-07
87 2 5.55495 16.2705 1.4948 2.4 1.0 9.549959575466032e-16 1.10473176539019e-39 2.9407313882937283e-34
88 3 5.6115 17.8838 1.4948 -1.2 0.9989638123941261 0.0010361874877062164 8.046539772796473e-23 1.1816986424659326e-10
89 3 1.93416 15.2965 1.4948 -1.2 0.999842974080235 0.00015702583597642595 1.1182392898767741e-24 8.37923520105894e-11
90 3 4.85636 15.5644 0.196716 -1.2 0.9989437416123909 0.0010562582434821893 2.917888079901583e-21 1.4411991480190673e-10
91 1 6.44662 14.247 2.9896 1.2 0.9774811438953342 0.022460370681936008 3.90741694042699e-19 5.8485422733452315e-05
92 3 4.81537 15.5644 2.79288 -1.2 0.9982260331737665 0.0017739664283948138 2.861509810905349e-19 3.978328634631047e-10
93 1 -0.948271 14.2883 4.4844 1.2 0.9835724282405659 0.011646222637651792 2.6374856073139197e-15 0.0047813491217792315
94 2 -2.75928 16.9724 4.4844 2.4 1.0 5.341559441409334e-21 1.7797680360629254e-38 2.5282477883603576e-38
95 3 -2.81617 15.3592 4.4844 -1.2 0.9921172164176659 0.007882781318210175 5.333999976280363e-17 2.264130935620011e-09
96 3 0.862762 17.9465 4.4844 -1.2 0.8542598969387206 0.1457400992134605 1.5262417165438625e-15 3.847819579049377e-09
97 3 -2.0185 17.6786 3.18632 -1.2 0.9898028897213434 0.010197110099196455 2.6089049769405832e-17 1.7945467583108116e-10
98 3 -2.06164 17.6786 5.78248 -1.2 0.9921989511974717 0.0078010487655864715 4.2530544478438734e-18 3.693628257594499e-11
99 1 1.39817 16.6215 2.9896 1.2 0.9778247462817432 0.022157480791345826 1.7720411630743693e-20 1.7772926906531626e-05
100 1 4.20062 16.5802 4.4844 1.2 0.991673084074858 0.006664682255484836 2.5799875010801407e-14 0.0016622336696339517
101 2 2.37796 18.645 4.4844 2.4 1.0 1.047769488287438e-22 8.940044576996423e-40 1.0510347744056563e-40
102 3 2.39434 20.2583 4.4844 -1.2 0.9951336965809084 0.004866303385612312 1.8300607257706264e-18 3.3481098225056565e-11
103 3 -4.24274 17.671 4.4844 -1.2 0.8704020252094344 0.12959797264112258 2.3752971082724063e-15 2.1494349885479396e-09
104 3 3.08659 17.9389 3.18632 -1.2 0.987749779549702 0.01225022015831345 2.780398573396506e-17 2.9198918596572507e-10
105 1 1.44478 16.6215 0 1.2 0.9787883598683491 0.02121157607387411 7.673944353861633e-22 6.405777306269737e-08
106 3 3.0436 17.9389 5.78248 -1.2 0.9638054466256749 0.03619455327441799 2.4804284193670304e-16 9.991371245491597e-11
107 1 -1.40524 16.6628 1.4948 1.2 0.9848549761217347 0.015144770765502647 4.869972133632596e-21 2.531127640162367e-07
108 2 0.420358 14.5979 1.4948 2.4 1.0 4.958626578298085e-16 8.392098030652832e-39 1.1690125571678906e-34
109 3 0.408732 12.9847 1.4948 -1.2 0.9996282678870099 0.0003717320049700976 9.365008187445977e-23 1.0801931188363108e-10
110 3 7.03923 15.572 1.4948 -1.2 0.9996876852463594 0.0003123146924019358 3.0937869794869076e-23 6.123232984329719e-11
111 3 -0.248332 15.3041 0.196716 -1.2 0.9956867518360946 0.004313247467382747 1.9346462483573787e-19 6.965222538393779e-10
112 3 -0.289436 15.3041 2.79288 -1.2 0.998262095338088 0.0017379038673984435 1.1046177562318602e-19 7.945067344772946e-10
113 1 6.59566 18.996 0 1.2 0.9786533890365022 0.021346600285828438 1.2352681848801371e-20 1.0677671592141333e-08
114 1 3.85574 23.7037 1.4948 1.2 0.9812498847446137 0.018750078960537372 2.4326049261678084e-20 3.6294851891265084e-08
115 2 5.66125 21.0195 1.4948 2.4 1.0 2.0151331985020605e-18 9.42233587492704e-40 1.083961384704496e-35
116 3 5.72074 22.6328 1.4948 -1.2 0.9983312554479342 0.00166874454437564 2.2369391157100463e-22 7.697232187885643e-12
117 3 2.03867 20.0455 1.4948 -1.2 0.9996621228897459 0.0003378771034739386 2.106674520011539e-24 6.775565971935708e-12
118 3 4.96004 20.3134 0.196716 -1.2 0.9969836483383127 0.0030163516328314665 3.6809185350879425e-20 2.8859519397554636e-11
119 1 6.55057 18.996 2.9896 1.2 0.9779786813521325 0.022015544641413767 1.1435712957821695e-18 5.77400645673898e-06
120 3 4.92172 20.3134 2.79288 -1.2 0.9941425474811457 0.005857452477841162 4.926626278830783e-18 4.101714260921452e-11
121 1 -0.84282 19.0373 4.4844 1.2 0.9925372108532164 0.006846091565922896 3.340628880441318e-15 0.0006166975808583596
122 2 -2.64823 21.7214 4.4844 2.4 1.0 2.5256115821480018e-24 4.834936455296747e-41 9.505899547994243e-42
123 3 -2.70847 20.1082 4.4844 -1.2 0.9863079346146811 0.013692065313891904 3.502105920498153e-17 7.14216675909001e-11
124 3 0.97581 22.6955 4.4844 -1.2 0.9518068341100285 0.048193165812695844 7.734328737425938e-18 7.727275341815943e-11
125 3 -1.9076 22.4276 3.18632 -1.2 0.9963878488532737 0.003612151144806973 7.093716153264363e-19 1.920157256197257e-12
126 3 -1.9475 22.4276 5.78248 -1.2 0.9943394373940263 0.005660562604424698 1.301063287581085e-19 1.5433322514912981e-12
127 1 1.50678 21.3705 2.9896 1.2 0.983147538373798 0.016849747189462888 4.428380940239635e-20 2.7144367429696476e-06
128 1 4.31086 21.3292 4.4844 1.2 0.9962088308462678 0.0036305344879707 4.517292543027537e-14 0.00016063466571648757
129 2 2.49243 23.394 4.4844 2.4 1.0 8.482346549371873e-26 4.881351343466327e-41 1.769012479093101e-43
130 3 2.51204 25.0073 4.4844 -1.2 0.9744475503987963 0.025552449587074026 2.0214649885061965e-17 1.4134344158622506e-11
131 3 -4.13026 22.42 4.4844 -1.2 0.7980299236468105 0.2019700762611157 5.491522792119064e-16 9.20753031505294e-11
132 3 3.19799 22.6879 3.18632 -1.2 0.979559380658556 0.020440619335979574 6.745712365362393e-17 5.467070008858173e-12
133 1 1.5501 21.3705 0 1.2 0.9675649253632753 0.03243505804751732 2.675739324743321e-21 1.658921058319205e-08
134 3 3.1583 22.6879 5.78248 -1.2 0.9634396128415765 0.03656038714737687 2.1391902549583615e-17 1.104808191468808e-11
135 1 -1.29822 21.4118 1.4948 1.2 0.9859827973659488 0.014017183666970396 9.676763487021762e-21 1.8967081230550533e-08
136 2 0.523568 19.3469 1.4948 2.4 1.0 1.8815188625707643e-17 2.2106183027834567e-38 6.572814062589961e-35
137 3 0.508934 17.7337 1.4948 -1.2 0.997430723910415 0.00256927594805412 3.640634409285854e-21 1.4152750446548067e-10
138 3 7.14425 20.321 1.4948 -1.2 0.9989286039420403 0.0010713960523794559 2.2967421316610455e-22 5.5737448484385334e-12
139 3 -0.145107 20.0531 0.196716 -1.2 0.9930824909005351 0.0069175090553316556 5.729328480129415e-19 4.413197598491255e-11
140 3 -0.183601 20.0531 2.79288 -1.2 0.9976779958024924 0.0023220041804210023 1.627780926442651e-19 1.7093412586390816e-11
141 1 6.70502 23.745 0 1.2 0.9682047459866095 0.03179525280595628 2.959456986524189e-22 1.2074306548794502e-09
142 1 3.97493 28.4527 1.4948 1.2 0.9913412387628048 0.008658760587028604 3.098180298950572e-23 6.501623772682202e-10
143 2 5.77602 25.7685 1.4948 2.4 1.0 2.235669890789874e-22 1.3977742456821074e-40 1.5373774621126545e-38
144 3 5.83821 27.3818 1.4948 -1.2 0.9997225325986278 0.0002774674012194641 4.119790766674266e-23 1.5859648527619098e-13
145 3 2.15175 24.7945 1.4948 -1.2 0.9998767496253943 0.00012325037449689166 1.5186580451864878e-25 1.153637879715229e-13
146 3 5.07184 25.0624 0.196716 -1.2 0.9992643910556278 0.000735608942910532 4.026870094581123e-21 1.4660800133553594e-12
147 1 6.66374 23.745 2.9896 1.2 0.9883183305601825 0.011681543750562823 1.3979323301158356e-20 1.2568925010839413e-07
148 3 5.03707 25.0624 2.79288 -1.2 0.9889959901214622 0.011004009876525517 8.983870608332932e-18 2.0181420310474287e-12
149 1 -0.727559 23.7863 4.4844 1.2 0.9961259148580464 0.0038607036862901584 5.314016497261326e-16 1.3381455656129433e-05
150 2 -2.5277 26.4704 4.4844 2.4 1.0 8.42057296923186e-27 1.845173842602958e-40 1.4082981960193428e-44
151 3 -2.59107 24.8572 4.4844 -1.2 0.9311196709921675 0.06888032899051097 1.197898770023613e-16 1.7320001928568233e-11
152 3 1.09817 27.4445 4.4844 -1.2 0.9108301545712696 0.0891698454149985 3.269915064365261e-17 1.3729226077376537e-11
153 3 -1.78784 27.1766 3.18632 -1.2 0.9901546639327145 0.009845336066708201 4.11031597939993e-18 5.748458034538803e-13
154 3 -1.82343 27.1766 5.78248 -1.2 0.9506522394654644 0.049347760532996415 8.841436119852898e-19 1.5425170983533828e-12
155 1 1.62435 26.1195 2.9896 1.2 0.990966195383587 0.00903376596341498 6.240468696436222e-22 3.865299681284077e-08
156 1 4.43064 26.0782 4.4844 1.2 0.9983376120075447 0.001661533759694941 1.0289386400328428e-16 8.542327625469255e-07
157 2 2.61607 28.143 4.4844 2.4 1.0 1.059887004349041e-27 2.961230327929233e-40 4.477381975600584e-45
158 3 2.63853 29.7563 4.4844 -1.2 0.5688835758642037 0.43111642412744633 1.6686105382894892e-14 8.333762383093953e-12
159 3 -4.00841 27.169 4.4844 -1.2 0.7855223190232455 0.21447768096818234 1.5828935924232264e-16 8.56624607974967e-12
160 3 3.3182 27.4369 3.18632 -1.2 0.9865264673545217 0.013473532644618947 1.400701463578188e-17 8.573003241441189e-13
161 1 1.66335 26.1195 0 1.2 0.9666378498641071 0.03336214915976312 5.445564305146825e-23 9.761285329496984e-10
162 3 3.28288 27.4369 5.78248 -1.2 0.712386917502783 0.2876130824941324 5.022811368856489e-16 3.0847136348057275e-12
163 1 -1.18278 26.1608 1.4948 1.2 0.9903672588619628 0.00963274076026844 2.701297109879571e-23 3.7777101192981633e-10
164 2 0.635424 24.0959 1.4948 2.4 1.0 8.854657059358151e-21 9.690993798474609e-39 2.611028943624699e-38
165 3 0.617906 22.4827 1.4948 -1.2 0.9988075943265566 0.0011924056715887092 9.320569093041275e-22 1.850845187000745e-12
166 3 7.25781 25.07 1.4948 -1.2 0.9995221313876198 0.00047786861212015664 1.934365820377198e-23 2.5528840251500883e-13
167 3 -0.0337363 24.8021 0.196716 -1.2 0.9987258455043972 0.0012741544943053386 8.142405587844981e-21 1.2930416570965439e-12
168 3 -0.0687235 24.8021 2.79288 -1.2 0.9955030960258352 0.004496903972133839 9.856358981980534e-19 2.026390394566917e-12
169 1 6.82195 28.494 0 1.2 0.9793750966680258 0.020624903061636977 2.805659838819776e-24 2.7034256313197484e-10
170 1 4.10106 33.2017 1.4948 1.2 0.9922867310343179 0.007713264082658731 8.019037356504711e-23 4.883028488590327e-09
171 2 5.89839 30.5175 1.4948 2.4 1.0 8.442366355513855e-26 9.513050815132124e-42 2.6868179140758836e-41
172 3 5.96289 32.1308 1.4948 -1.2 0.9997468136417532 0.0002531863580420831 1.1293288952596747e-22 2.0509414058444427e-13
173 3 2.27266 29.5435 1.4948 -1.2 0.9997802150090639 0.00021978499077881538 6.830615975787845e-24 1.6328753309950347e-13
174 3 5.19102 29.8114 0.196716 -1.2 0.9999586635497517 4.133645019438145e-05 8.438331692359144e-24 5.79137661811302e-14
175 1 6.78546 28.494 2.9896 1.2 0.9938043716731678 0.0061955553258456345 1.1390503736887363e-20 7.30009827117562e-08
176 3 5.16061 29.8114 2.79288 -1.2 0.974890748930319 0.02510925106871967 3.484074522265286e-17 9.641565186917963e-13
177 1 -0.603205 28.5353 4.4844 1.2 0.9984891178906198 0.0015102576000159851 2.6098848023609735e-16 6.245093583137325e-07
178 2 -2.39877 31.2194 4.4844 2.4 1.0 3.467336415850222e-27 8.281806953263069e-39 4.82798057471766e-44
179 3 -2.46483 29.6062 4.4844 -1.2 0.4307790267688709 0.5692209732148027 6.648099754402701e-15 1.6322259820073584e-11
180 3 1.22864 32.1935 4.4844 -1.2 0.3744713049041458 0.6255286950823173 3.3702993777352522e-15 1.3535564300588404e-11
181 3 -1.66032 31.9256 3.18632 -1.2 0.955379105104538 0.04462089489445678 3.7285582632232795e-17 1.0067718669814025e-12
182 3 -1.69072 31.9256 5.78248 -1.2 0.13085790414849424 0.8691420958494417 2.3162608332349534e-15 2.0567517066409172e-12
183 1 1.7499 30.8685 2.9896 1.2 0.9952139312380273 0.004786053856873956 7.058727037201791e-21 1.490509910811081e-08
184 1 4.55894 30.8272 4.4844 1.2 0.9990883587702837 0.000911363499200093 6.017000862605748e-16 2.7773051510315517e-07
185 2 2.7476 32.892 4.4844 2.4 1.0 1.0462439404068895e-26 5.785128192968223e-37 1.0449403204098338e-44
186 3 2.77235 34.5053 4.4844 -1.2 0.06695721457298377 0.9330427854232625 8.431912948067073e-13 2.9046649657827797e-12
187 3 -3.87837 31.918 4.4844 -1.2 0.19825898467201458 0.8017410153238296 2.119146694006627e-15 4.149797967906481e-12
188 3 3.44611 32.1859 3.18632 -1.2 0.9593185145263138 0.04068148547250018 7.499212136059283e-17 1.1925099601192915e-12
189 1 1.7837 30.8685 0 1.2 0.9776587953964769 0.022341203958719188 4.280242902725285e-25 6.447972437427736e-10
190 3 3.41602 32.1859 5.78248 -1.2 0.06421010623892713 0.9357898937600547 9.812593122516329e-15 1.0067522619825786e-12
191 1 -1.05984 30.9098 1.4948 1.2 0.9932326483826698 0.0067673514778531785 1.8497439115841796e-24 1.394738201703225e-10
192 2 0.755243 28.8449 1.4948 2.4 1.0 3.9008077982599295e-25 1.130486154658164e-40 8.635623879523695e-41
193 3 0.735127 27.2317 1.4948 -1.2 0.9998491684132043 0.00015083158674375558 1.2171029564387387e-23 4.910970926379992e-14
194 3 7.37914 29.819 1.4948 -1.2 0.9992851516122169 0.000714848387579202 1.6831158510854893e-22 2.060046413076464e-13
195 3 0.0850649 29.5511 0.196716 -1.2 0.9993266756676586 0.0006733243320727948 8.38312753720576e-21 2.7324368722128715e-13
196 3 0.0543974 29.5511 2.79288 -1.2 0.9922215092785682 0.007778490721037652 1.5117467697628696e-18 3.8803973162298437e-13
197 1 6.94543 33.243 0 1.2 0.9860126128128676 0.01398738704862626 4.144544854039529e-26 1.3850062578634248e-10
198 1 4.23267 37.9507 1.4948 1.2 0.986616346905098 0.013383631179895567 3.9425012694534704e-21 2.191500522982326e-08
199 2 6.02709 35.2665 1.4948 2.4 1.0 4.279966077300448e-25 2.2713912662330607e-39 3.323431345195063e-39
200 3 6.09339 36.8798 1.4948 -1.2 0.9982779230565932 0.0017220769403307583 1.2898918607349773e-19 3.083007533063307e-12
201 3 2.40018 34.2925 1.4948 -1.2 0.9991973387184646 0.0008026612801622559 1.2091359772433648e-21 1.3697108368569643e-12
202 3 5.31645 34.5604 0.196716 -1.2 0.9999410404383265 5.895956147396838e-05 2.4783817362177443e-23 2.0477833960926915e-13
203 1 6.91449 33.243 2.9896 1.2 0.9951206986606655 0.004879249865602848 9.116586151360024e-21 5.1473737776948025e-08
204 3 5.291 34.5604 2.79288 -1.2 0.8900654978598863 0.10993450213500006 7.377354710531522e-16 5.1164609343301465e-12
205 1 -0.471101 33.2843 4.4844 1.2 0.9988469414346821 0.001152832539795883 1.5201966933524606e-15 2.260255229501691e-07
206 2 -2.26307 35.9684 4.4844 2.4 1.0 2.865204375647724e-25 6.268223976064586e-34 1.8760376901356707e-41
207 3 -2.33122 34.3552 4.4844 -1.2 0.09657639617574354 0.9034236038184267 1.3700837624173877e-13 5.699197208356773e-12
208 3 1.36549 36.9425 4.4844 -1.2 0.021437690736762 0.9785623092535871 2.0008078546647883e-12 7.65204735728848e-12
209 3 -1.52658 36.6746 3.18632 -1.2 0.7821071429153766 0.21789285707989609 5.8877036798090774e-15 4.727851965439112e-12
210 3 -1.55122 36.6746 5.78248 -1.2 0.01051491856127502 0.9894850814364538 2.832160884679322e-13 1.9938545233969682e-12
211 1 1.882 35.6175 2.9896 1.2 0.9934210544374551 0.006578849411673418 7.236716764923814e-19 9.615086872574054e-08
212 1 4.69415 35.5762 4.4844 1.2 0.998787672129561 0.0012114376237358838 4.833219096445931e-14 8.902466546958032e-07
213 2 2.88522 37.641 4.4844 2.4 1.0 2.340904914306391e-24 2.4127610631544695e-32 1.8558621928503265e-41
214 3 2.91159 39.2543 4.4844 -1.2 0.023616951010723933 0.9763830489785272 7.978452980959055e-12 2.767488722312279e-12
215 3 -3.74183 36.667 4.4844 -1.2 0.02726249544628978 0.9727375045465702 2.1924812769517073e-13 6.921774677712026e-12
216 3 3.58014 36.9349 3.18632 -1.2 0.7422525819647083 0.25774741802294254 2.2584079748793935e-14 1.2329469227378924e-11
217 1 1.90997 35.6175 0 1.2 0.9749092950664214 0.025090701190055475 2.2495501903170434e-23 3.743517341320866e-09
218 3 3.55582 36.9349 5.78248 -1.2 0.004745330597709821 0.9952546694014331 4.979843797876012e-13 3.585223676418673e-13
219 1 -0.93068 35.6588 1.4948 1.2 0.9926469045320364 0.007353094686493511 9.349937843079762e-24 7.814694635773066e-10
220 2 0.881882 33.5939 1.4948 2.4 1.0 3.0716800694679375e-26 2.6944182633466384e-40 8.565860698116739e-40
221 3 0.859602 31.9807 1.4948 -1.2 0.9995129359800033 0.00048706401991547953 1.986344210080068e-22 7.90142792005206e-14
222 3 7.507 34.568 1.4948 -1.2 0.9983512629736572 0.001648737023573128 2.585526216067352e-21 2.776042620074012e-12
223 3 0.210186 34.3001 0.196716 -1.2 0.9992978072587622 0.0007021927408143973 4.003135019958399e-20 4.2106353726031174e-13
224 3 0.184454 34.3001 2.79288 -1.2 0.9475024788056072 0.0524975211908757 1.5269959999316718e-16 3.513953794676025e-12
225 1 7.07415 37.992 0 1.2 0.9631361650448327 0.03686382978550177 2.9883609598264227e-23 5.16966280047176e-09
226 1 4.36817 42.6997 1.4948 1.2 0.938552107084534 0.06144710101044549 2.056551835608984e-17 7.919050222152861e-07
227 2 6.16058 40.0155 1.4948 2.4 1.0 1.5334777196297728e-21 1.672481181964079e-33 1.4331027414992638e-34
228 3 6.22815 41.6288 1.4948 -1.2 0.9189507974442065 0.08104920233104315 7.218977652307285e-15 2.247502719426232e-10
229 3 2.53282 39.0415 1.4948 -1.2 0.9970558557302677 0.002944144202938171 1.1847621539899174e-19 6.679030277232961e-11
230 3 5.44674 39.3094 0.196716 -1.2 0.9994067559279595 0.0005932440622851656 5.560635932385165e-20 9.748785709823988e-12
231 1 7.04922 37.992 2.9896 1.2 0.9869361676917264 0.013057348608402318 6.008563008696372e-16 6.4836998636389825e-06
232 3 5.42658 39.3094 2.79288 -1.2 0.8257467440087906 0.17425325596368735 2.2744707132462025e-14 2.7504687838496156e-11
233 1 -0.333062 38.0333 4.4844 1.2 0.9976001188309404 0.0023915048876289625 7.408551156157622e-12 8.376274024743064e-06
234 2 -2.12255 40.7174 4.4844 2.4 1.0 8.279471515667614e-23 8.399607732074584e-30 1.2442176913033612e-39
235 3 -2.19212 39.1042 4.4844 -1.2 0.021560413901838594 0.9784395860789197 1.1600064247823606e-11 7.635289987053054e-12
236 3 1.50676 41.6915 4.4844 -1.2 0.005551734597806129 0.9944482653267981 6.943350280575298e-11 5.964891377857154e-12
237 3 -1.3884 41.4236 3.18632 -1.2 0.14306638362979346 0.8569336163537075 3.1935819892727205e-12 1.3303516429465943e-11
238 3 -1.40713 41.4236 5.78248 -1.2 0.007948778673657592 0.992051221324951 1.0787099193710603e-12 3.163043492955521e-13
239 1 2.01892 40.3665 2.9896 1.2 0.9581656309548052 0.041731838237887356 4.917506192613507e-12 0.00010253080238975509
240 1 4.83434 40.3252 4.4844 1.2 0.9965266981246801 0.003401888712159664 7.204845350996595e-11 7.141309111449667e-05
241 2 3.02698 42.39 4.4844 2.4 1.0 8.32439445599831e-23 2.7938001163716244e-29 2.7638534299036868e-40
242 3 3.05433 44.0033 4.4844 -1.2 0.02548540518533219 0.9745145948008636 1.1506586361986664e-11 2.296022887212827e-12
243 3 -3.60077 41.416 4.4844 -1.2 0.003624189900765139 0.9963758100769065 2.0240162915417935e-11 2.0938492764532804e-12
244 3 3.71851 41.6839 3.18632 -1.2 0.2507566274902117 0.7492433724607725 4.885432472864519e-12 4.4131093566578115e-11
245 1 2.04077 40.3665 0 1.2 0.8877245655338937 0.11227528143375864 1.869604999405136e-20 1.5303234812571698e-07
246 3 3.70011 41.6839 5.78248 -1.2 0.0019681088793475463 0.998031891115021 5.514275573288652e-12 1.2078790199011164e-13
247 1 -0.796865 40.4078 1.4948 1.2 0.9692619653613359 0.03073795571648374 1.9916318277569785e-19 7.892217514871699e-08
248 2 1.01387 38.3429 1.4948 2.4 1.0 2.044345321395027e-23 1.7074219193050643e-35 2.000962372076474e-36
249 3 0.989947 36.7297 1.4948 -1.2 0.9986867280564076 0.0013132719425221003 3.9251048991659166e-20 1.065135911766794e-12
250 3 7.63988 39.317 1.4948 -1.2 0.9946092523457336 0.005390747582328802 2.258887121785421e-19 7.193567135313572e-11
251 3 0.340253 39.0491 0.196716 -1.2 0.9989730626426411 0.0010269373371805121 1.213854603830571e-19 2.018125150250736e-11
252 3 0.319795 39.0491 2.79288 -1.2 0.8119352741705261 0.18806472581514272 3.1933443285153566e-14 1.4304069736374248e-11
253 1 7.20667 42.741 0 1.2 0.8095141459376884 0.1904853795920878 4.723045336790852e-18 4.7447022010627774e-07
254 1 4.50613 47.4487 1.4948 1.2 0.969746527753574 0.03025223357134056 3.761650660675985e-15 1.2386750808640256e-06
255 2 6.29731 44.7645 1.4948 2.4 1.0 2.6614278993212795e-19 6.858155090469355e-30 8.136046454200551e-34
256 3 6.36567 46.3778 1.4948 -1.2 0.4378379995515583 0.5621620003634004 1.7016362334926268e-12 8.33390156383637e-11