ITEM: TIMESTEP
12100
ITEM: NUMBER OF ATOMS
10500
ITEM: BOX BOUNDS xy xz yz pp pp pp
0	15.2977	5.09925
0	118.725	0
0	89.688	0
ITEM: ATOMS id type xu yu zu q pCrystal pDisloC pSF pDisloB pDisloA
1 1 6.2404 -6.37941e-06 0 1.2 3.888823181177727e-16 2.6273079471067166e-12 0.9999998179772002 1.8197603525623502e-07 4.413845145245062e-11
2 1 3.46349 4.70768 1.4948 1.2 3.9596202081461217e-10 3.090933278881132e-08 0.9999998808024841 8.735421856746109e-08 5.379993455038916e-10
3 2 5.2885 2.02354 1.4948 2.4 2.6590999483361344e-13 7.878964127148726e-10 0.9999999783847218 2.0803877746381193e-08 2.3237537895119178e-11
4 3 5.33628 3.63678 1.4948 -1.2 4.2191855938905673e-10 4.851339189629102e-08 0.9999999206917383 1.614485682332379e-08 1.4228098685770718e-08
5 3 1.67294 1.04952 1.4948 -1.2 3.3139415207948863e-13 3.346295556031422e-09 0.9999996816456127 3.133235285780755e-07 1.6842333353128016e-09
6 3 4.59532 1.31737 0.196716 -1.2 1.2179139556117271e-14 3.476649394485311e-10 0.9999998903533995 1.0885719397462828e-07 4.417224766466448e-10
7 1 6.18956 -6.37941e-06 2.9896 1.2 6.17913757001397e-16 1.4426929882282313e-10 0.9999966060430735 3.391994528541711e-06 1.8181269385127981e-09
8 3 4.55118 1.31737 2.79288 -1.2 3.6291479684586484e-16 1.6333335149597584e-11 0.9999968889752258 3.1108146593929948e-06 1.937802620595978e-10
9 1 -1.20682 0.0413099 4.4844 1.2 1.078052374687017e-15 1.1600563265750419e-10 0.9999606676572032 3.933098156939681e-05 1.2452184574609715e-09
10 2 -3.0337 2.72544 4.4844 2.4 1.1475485190083916e-11 1.2185447812150316e-07 0.9999174340545072 8.232580625352234e-05 1.182732861568113e-07
11 3 -3.08099 1.11221 4.4844 -1.2 4.9783753407408125e-15 3.7124105425124676e-10 0.999975852329082 2.4145750072756585e-05 1.5495954891651494e-09
12 3 0.582463 3.69946 4.4844 -1.2 4.641065351132235e-12 7.694157205469733e-10 0.9999831194197532 1.6865343790302082e-05 1.4462400335830132e-08
13 3 -2.29524 3.43162 3.18632 -1.2 9.924878079776024e-11 1.7329453168783363e-08 0.9999992040264983 7.648781251781805e-07 1.3666679673284787e-08
14 3 -2.34216 3.43162 5.78248 -1.2 1.6372089495239986e-12 2.0095604776422829e-10 0.9998439268778434 0.0001560592647696899 1.3654794429620603e-08
15 1 1.12778 2.37449 2.9896 1.2 3.1223831355036456e-13 2.2397584822797958e-09 0.9999889541196286 1.1042348934469642e-05 1.2913649103337907e-09
16 1 3.92855 2.33318 4.4844 1.2 7.37137612601046e-15 6.743215284720656e-11 0.9998914012246269 0.00010859702398333679 1.6839468832166102e-09
17 2 2.09341 4.39804 4.4844 2.4 1.58226278647025e-12 6.0757838518432155e-09 0.9999770743081448 2.291824171942952e-05 1.3727760881874585e-09
18 3 2.09991 6.01128 4.4844 -1.2 3.189405033266e-09 1.833716402715329e-08 0.9999998563100082 9.454848522252408e-08 2.761493344237933e-08
19 3 -4.52137 3.42402 4.4844 -1.2 8.636064012764562e-13 8.362409995718865e-10 0.9999609407047342 3.903128026306408e-05 2.71778914091445e-08
20 3 2.80834 3.69187 3.18632 -1.2 2.991322778329082e-12 1.2706650311002589e-09 0.9999997128032717 2.847152476394016e-07 1.2078271586233013e-09
21 1 1.17857 2.37449 0 1.2 1.0566143363270158e-14 2.756043430761152e-10 0.9999992601053017 7.393046590927231e-07 3.144310592358261e-10
22 3 2.76143 3.69187 5.78248 -1.2 1.5008198881447813e-13 3.8594024911937534e-11 0.9999426007333133 5.7396152365102866e-05 3.075580400761786e-09
23 1 -1.67381 2.41581 1.4948 1.2 1.0697395503286052e-10 4.436248861822023e-08 0.9999977119843946 2.2356485757160786e-06 7.897571235750461e-09
24 2 0.16286 0.350945 1.4948 2.4 2.7618566309175855e-13 3.6356264210080746e-09 0.9999991136118871 8.820982369016056e-07 6.539770926438679e-10
25 3 0.15972 -1.26229 1.4948 -1.2 1.1008579010514797e-11 2.8268881961243113e-08 0.9999998353464428 1.2823963753596375e-07 8.134031462222235e-09
26 3 6.77654 1.32496 1.4948 -1.2 1.4840308072735802e-12 6.842290970052187e-09 0.9999999158246204 6.901053589863671e-08 8.32107286363287e-09
27 3 -0.508028 1.05712 0.196716 -1.2 3.411198072521273e-14 1.434402062891317e-09 0.999999664251646 3.324294884908438e-07 1.884423788171311e-09
28 3 -0.552171 1.05712 2.79288 -1.2 1.7993771114745575e-13 1.736587974843278e-09 0.9999953902147591 4.594787985109712e-06 1.3260488486463195e-08
29 1 6.31713 4.74899 0 1.2 2.50843584855163e-10 6.112242971847589e-08 0.9999998848961051 5.2285754175162e-08 1.4448723551015394e-09
30 1 3.54847 9.45668 1.4948 1.2 6.223641870761584e-05 8.140055231777024e-07 0.9999367286763622 5.815772209320144e-11 2.2084124257756166e-07
31 2 5.36879 6.77254 1.4948 2.4 2.528433035254765e-06 8.186631606767383e-06 0.9999890102984121 3.2582798560696665e-10 2.7431111176384683e-07
32 3 5.41937 8.38578 1.4948 -1.2 0.001374643121233777 0.0001684188932992209 0.9984461808197997 1.1272260143721106e-12 1.0757164542970517e-05
33 3 1.75158 5.79852 1.4948 -1.2 2.9290329594705006e-06 1.0785741312114768e-05 0.9999857557477289 1.5578407458972753e-10 5.293222140399364e-07
34 3 4.67421 6.06637 0.196716 -1.2 3.608993840420097e-08 6.722809791839271e-07 0.9999992817634243 4.887078039068396e-11 9.816788755000394e-09
35 1 6.26654 4.74899 2.9896 1.2 2.0089657308564724e-10 1.6846436952871664e-08 0.9999989385734216 1.0288076890885556e-06 1.557155399225771e-08
36 3 4.63043 6.06637 2.79288 -1.2 2.1192293602619608e-08 1.998474277895791e-07 0.9999997154745423 1.229210709754067e-08 5.1193632682561215e-08
37 1 -1.12976 4.79031 4.4844 1.2 1.3187701805440097e-10 8.776465921823194e-10 0.9999960047851687 3.992235159635684e-06 1.970145185705699e-09
38 2 -2.9517 7.47444 4.4844 2.4 4.4669438836279515e-09 1.2632647791371882e-07 0.9999912507879761 1.9623206410750053e-06 6.656097958375707e-06
39 3 -3.00198 5.86121 4.4844 -1.2 1.3103751024330452e-10 7.092279348516713e-10 0.9999996093134963 3.852403256171654e-07 4.605918371554355e-09
40 3 0.666315 8.44846 4.4844 -1.2 1.4914877062574693e-07 2.4950969823971327e-07 0.9999983753547051 2.754557898645309e-09 1.223232274480664e-06
41 3 -2.21213 8.18062 3.18632 -1.2 6.054993365390801e-07 2.3044094748776182e-07 0.9999988034120886 2.1931512568759512e-10 3.6042830990537267e-07
42 3 -2.25864 8.18062 5.78248 -1.2 2.819015821003e-08 5.653662972767795e-09 0.9999991238967142 1.249365495893446e-07 7.173229171191258e-07
43 1 1.20893 7.12349 2.9896 1.2 1.258025058027886e-07 2.793580099608847e-07 0.9999995356090151 1.2403019684962162e-08 4.682745201689677e-08
44 1 4.00982 7.08218 4.4844 1.2 1.4880296245989101e-08 1.5023499751884504e-08 0.9999997061723752 1.7785835608194175e-07 8.606546632303157e-08
45 2 2.17861 9.14704 4.4844 2.4 1.6195226917164626e-06 2.1632559541925943e-06 0.9999826149700684 7.840050299940939e-08 1.3523850782633121e-05
46 3 2.18828 10.7603 4.4844 -1.2 5.203630382715759e-06 2.2598218662963297e-07 0.9999932225847508 1.1518163380241167e-10 1.3476875020672421e-06
47 3 -4.43805 8.17302 4.4844 -1.2 3.5302550580896834e-08 8.440815212203709e-08 0.9999985255839687 5.949395290609125e-09 1.3487559399062177e-06
48 3 2.89193 8.44087 3.18632 -1.2 3.926409911339752e-06 7.773517315467421e-07 0.9999941127301141 6.431721232228998e-10 1.1828650780796189e-06
49 1 1.25915 7.12349 0 1.2 5.138791163924497e-07 5.09382749057841e-07 0.9999989707887419 3.0336901154025253e-10 5.646030631466368e-09
50 3 2.84547 8.44087 5.78248 -1.2 4.593891005682089e-08 1.3462445941437027e-08 0.9999992621235543 4.0850338780038915e-08 6.376247447001684e-07
51 1 -1.59284 7.16481 1.4948 1.2 1.3125728502072797e-06 8.012070339160563e-07 0.9999978279792997 7.99665089937903e-10 5.744114440692064e-08
52 2 0.240329 5.09994 1.4948 2.4 1.098534414977967e-09 1.2639831969936642e-07 0.9999998673060108 5.065132906618685e-09 1.3200074500987888e-10
53 3 0.234538 3.48671 1.4948 -1.2 2.7273469238534037e-11 2.7382670844443626e-08 0.999999937740741 2.6048189267450898e-08 8.80112415432008e-09
54 3 6.85564 6.07396 1.4948 -1.2 4.5177943367966193e-07 3.3938148665327477e-06 0.9999955519288355 3.859690069787683e-10 6.020908933165487e-07
55 3 -0.429565 5.80612 0.196716 -1.2 3.8237647648715844e-09 7.65445487015582e-08 0.9999999184255761 1.8746801609663966e-10 1.0186462996602834e-09
56 3 -0.473377 5.80612 2.79288 -1.2 2.3082060225604866e-09 1.2703260791114757e-08 0.9999999522246565 2.447869745958085e-08 8.285183180442383e-09
57 1 6.40169 9.49799 0 1.2 0.00016721825892648814 2.7409869200694246e-06 0.9998297763546904 1.7261932368574774e-12 2.6439773973100935e-07
58 1 3.64209 14.2057 1.4948 1.2 0.0004034270696715852 1.0942529532920461e-06 0.999595051875863 1.3104637600732431e-12 4.2680019750200584e-07
59 2 5.45748 11.5215 1.4948 2.4 0.0022392473437978385 2.4125754037238688e-05 0.9977362190095841 1.1226921807271958e-13 4.078924748950137e-07
60 3 5.51101 13.1348 1.4948 -1.2 0.02751646839789753 0.00020786683037440874 0.9722584557646863 3.435136708317046e-14 1.7209007000534623e-05
61 3 1.83851 10.5475 1.4948 -1.2 0.006469347151150085 3.0615766565214995e-05 0.9934953963194357 6.517213182252737e-14 4.640762786557408e-06
62 3 4.7611 10.8154 0.196716 -1.2 0.0013135956478606263 1.6793621115499067e-05 0.9986686609063958 7.659151704510805e-14 9.498245530395911e-07
63 1 6.35203 9.49799 2.9896 1.2 3.1532978636151306e-05 5.707374727944601e-06 0.9999610201169222 3.542787137513904e-10 1.7391754364392478e-06
64 3 4.71833 10.8154 2.79288 -1.2 9.056901942590599e-05 3.7613012843874395e-06 0.9999027561001729 3.2151394708765537e-11 2.9135469654151187e-06
65 1 -1.0438 9.53931 4.4844 1.2 2.606178324406174e-06 1.5283413714539167e-07 0.9999962840364112 1.9817860419826425e-08 9.371332672021162e-07
66 2 -2.8604 12.2234 4.4844 2.4 4.484564727735662e-06 1.5458696815926223e-06 0.9999899676478956 6.782870430704481e-09 3.995134827853499e-06
67 3 -2.91391 10.6102 4.4844 -1.2 7.855289563254219e-06 5.088459516838415e-07 0.9999898716296283 1.0658648451986698e-10 1.7641282719300184e-06
68 3 0.7596 13.1975 4.4844 -1.2 2.5656542294473036e-05 3.2030226232482566e-06 0.9999648440159334 1.5264045011683654e-10 6.296266511478318e-06
69 3 -2.12001 12.9296 3.18632 -1.2 9.484591691762901e-05 1.98666508014729e-06 0.999901400107231 2.063442038902695e-11 1.7672901340011727e-06
70 3 -2.16532 12.9296 5.78248 -1.2 2.0845828512802148e-05 1.914653591570557e-07 0.9999749520444972 1.1034253155619864e-09 4.0095582067921096e-06
71 1 1.29891 11.8725 2.9896 1.2 8.640805850405658e-05 2.316692088625458e-06 0.9999098080067036 6.082232315412344e-11 1.4671818842934773e-06
72 1 4.10033 11.8312 4.4844 1.2 1.3022329083331865e-05 1.444123932371055e-07 0.9999846851911562 1.1113028498960235e-08 2.136954333506237e-06
73 2 2.27333 13.896 4.4844 2.4 8.949996842577709e-05 4.720395572128238e-06 0.9998924068540808 2.2310514831221527e-09 1.3370550873322948e-05
74 3 2.28634 15.5093 4.4844 -1.2 0.00010007762398791723 1.1513089940015311e-06 0.9998959804059663 3.4470828159096186e-12 2.790657610454902e-06
75 3 -4.34533 12.922 4.4844 -1.2 2.988582383343021e-06 2.9485402580778076e-07 0.9999948857543368 3.2883962013015194e-10 1.8304804151423266e-06
76 3 2.98455 13.1899 3.18632 -1.2 8.407817110928718e-05 2.390224444294492e-06 0.9999115754849459 1.5550972559967334e-11 1.956103951786102e-06
77 1 1.34779 11.8725 0 1.2 0.0006928400264884664 2.3179884754374674e-06 0.9993042137803677 5.154103537863097e-13 6.28204156327201e-07
78 3 2.93934 13.1899 5.78248 -1.2 8.289255109725682e-05 5.487576566493645e-07 0.9999079885297997 3.5127849481942662e-09 8.56664865881058e-06
79 1 -1.50344 11.9138 1.4948 1.2 0.0004150939535453206 2.5370092794235308e-06 0.9995816090524196 2.0922773342355213e-12 7.599826604253621e-07
80 2 0.326006 9.84894 1.4948 2.4 0.0004168822885290124 1.1901308769869815e-05 0.999571055870239 2.4421932971750293e-13 1.6053221152423062e-07
81 3 0.317364 8.23571 1.4948 -1.2 0.0003041013679459454 2.092684648893492e-05 0.9996732160641577 6.780422534435501e-12 1.7557146222114451e-06
82 3 6.94307 10.823 1.4948 -1.2 0.0036088900709741684 4.8404930032207415e-05 0.9963396008782609 5.642558736515767e-14 3.104120672938038e-06
83 3 -0.343122 10.5551 0.196716 -1.2 0.0006583983428961969 8.292631979951443e-06 0.9993328569509483 7.692864438404592e-14 4.520741018845386e-07
84 3 -0.385966 10.5551 2.79288 -1.2 4.8902118814352705e-05 1.9765658907749123e-06 0.9999478519206305 4.195796870951709e-11 1.2693527015314311e-06
85 1 6.49448 14.247 0 1.2 0.0019071539268937954 2.0455929759074793e-06 0.9980899504002093 4.42682006715185e-14 8.500798738812005e-07
86 1 3.74457 18.9547 1.4948 1.2 7.758392072015288e-05 3.0935738059471675e-07 0.9999220485489593 5.819529934930856e-13 5.8172362275534096e-08
87 2 5.55495 16.2705 1.4948 2.4 0.0013777812572927145 1.470444841882366e-05 0.9986074674527375 8.222248449960684e-15 4.6841542553622584e-08
88 3 5.6115 17.8838 1.4948 -1.2 0.01186586673250483 9.655961684640071e-05 0.988035768409936 3.427086320537685e-15 1.8052407036969042e-06
89 3 1.93416 15.2965 1.4948 -1.2 0.021186586024649325 5.772562546494838e-05 0.9787527143681104 3.4227254937684883e-15 2.973981777110066e-06
90 3 4.85636 15.5644 0.196716 -1.2 0.011628296458468725 6.358064348082486e-05 0.9883062954834674 6.3377353470657975e-15 1.8274145770845285e-06
91 1 6.44662 14.247 2.9896 1.2 0.0001891683106241338 2.0746649068848697e-06 0.9998074906725181 1.7357892476625602e-11 1.26633458655609e-06
92 3 4.81537 15.5644 2.79288 -1.2 0.0007369504827359884 1.318729787167882e-05 0.9992471028086214 1.6977315693733644e-12 2.7594090730676288e-06
93 1 -0.948271 14.2883 4.4844 1.2 1.4860948644236409e-05 2.07267237563386e-07 0.9999834390012127 3.4864721867992477e-09 1.4892964292415822e-06
94 2 -2.75928 16.9724 4.4844 2.4 7.001653221269465e-05 1.662976364930234e-06 0.9999274859071889 1.8023491933856077e-10 8.344039963888547e-07
95 3 -2.81617 15.3592 4.4844 -1.2 2.0716187834532202e-05 4.021508387080492e-07 0.9999778567639618 6.561577779534081e-12 1.0248908039323738e-06
96 3 0.862762 17.9465 4.4844 -1.2 3.573273709172072e-05 1.7774815171833732e-06 0.9999607319946319 2.049788060333986e-11 1.7577662574373926e-06
97 3 -2.0185 17.6786 3.18632 -1.2 0.00013381745913459135 1.7976063698955767e-06 0.9998640105784049 4.1153285391689603e-13 3.743556848514341e-07
98 3 -2.06164 17.6786 5.78248 -1.2 0.00026210674342839064 3.3473626757908604e-07 0.9997333486514062 1.7049317431098983e-10 4.209698402221789e-06
99 1 1.39817 16.6215 2.9896 1.2 0.00018309404763391335 3.5965417426334614e-06 0.9998117454420576 8.12406668196878e-12 1.563960443100796e-06
100 1 4.20062 16.5802 4.4844 1.2 4.277365707442057e-05 1.9797626752240695e-07 0.9999555192940834 8.968586785064434e-10 1.5081757108056702e-06
101 2 2.37796 18.645 4.4844 2.4 0.0001033407166522801 1.465436989737914e-06 0.9998946323155823 9.48468261547065e-11 5.614359263364824e-07
102 3 2.39434 20.2583 4.4844 -1.2 5.470758334920161e-05 2.458615149047468e-07 0.9999446855546689 3.90740410407743e-13 3.6100007012645567e-07
103 3 -4.24274 17.671 4.4844 -1.2 1.3078704434163895e-05 4.948557294016116e-07 0.9999857320792341 2.690584050824402e-11 6.943336991163809e-07
104 3 3.08659 17.9389 3.18632 -1.2 0.00012707044958659093 2.2461154976776723e-06 0.999870146098921 1.1088232393302405e-12 5.373348799249966e-07
105 1 1.44478 16.6215 0 1.2 0.0017417234714065164 1.384227322586416e-06 0.9982563400829276 7.37818269317207e-14 5.522182657625667e-07
106 3 3.0436 17.9389 5.78248 -1.2 7.078149443862176e-05 8.307360661242535e-08 0.9999284879212903 7.571733436509067e-11 6.47434949588137e-07
107 1 -1.40524 16.6628 1.4948 1.2 0.0013074394963821033 4.184748205753489e-06 0.9986873076240996 2.1337723904686525e-13 1.0681310987065548e-06
108 2 0.420358 14.5979 1.4948 2.4 0.004828069017726125 4.195429974868201e-05 0.9951296842244637 6.77509884417549e-14 2.9245799045103586e-07
109 3 0.408732 12.9847 1.4948 -1.2 0.01955223707269855 0.00010994923727918203 0.9803322422872928 3.364087628900925e-14 5.571402697479358e-06
110 3 7.03923 15.572 1.4948 -1.2 0.030886040862378016 0.0001756685604016937 0.968932149300937 6.6015792603166295e-15 6.141276280765761e-06
111 3 -0.248332 15.3041 0.196716 -1.2 0.003533892703188309 4.0905320838130405e-05 0.9964243015011425 2.3585940192575556e-14 9.004748062679835e-07
112 3 -0.289436 15.3041 2.79288 -1.2 0.0009403798189472425 1.6682749002371766e-05 0.9990394421531026 4.9740290830434165e-12 3.4952739733953693e-06
113 1 6.59566 18.996 0 1.2 0.0008992917303878354 5.775544272321241e-07 0.9990999626594511 7.928897427663866e-15 1.6805572926647747e-07
114 1 3.85574 23.7037 1.4948 1.2 0.0015087245993383107 7.672850775963899e-07 0.9984902303029016 2.5956428353869587e-13 2.778124181122966e-07
115 2 5.66125 21.0195 1.4948 2.4 0.0033144392161730423 6.384459957116427e-06 0.9966791636482552 3.5145681878676192e-15 1.2675610949660047e-08
116 3 5.72074 22.6328 1.4948 -1.2 0.03868101737806522 7.220811485959607e-05 0.961245099678764 2.079401142726167e-15 1.6748283100069305e-06
117 3 2.03867 20.0455 1.4948 -1.2 0.017183340631617965 3.445458238640688e-05 0.9827812825255706 3.7642654562710514e-16 9.22260420482265e-07
118 3 4.96004 20.3134 0.196716 -1.2 0.008384674515057634 1.601575413696529e-05 0.9915989594107901 1.058781118076281e-15 3.5032000769829677e-07
119 1 6.55057 18.996 2.9896 1.2 0.00011043337252633009 7.846299127795915e-07 0.9998884405702725 2.7149783680848364e-12 3.4142457289417495e-07
120 3 4.92172 20.3134 2.79288 -1.2 0.0003393160298705283 5.280390850676309e-06 0.9996548440538424 4.268112787654733e-13 5.595250137715922e-07
121 1 -0.84282 19.0373 4.4844 1.2 1.659485139225442e-05 1.1420344948977344e-07 0.9999829033626687 3.40256655965187e-10 3.872422331093156e-07
122 2 -2.64823 21.7214 4.4844 2.4 5.6214627069007384e-05 4.0171243961974936e-07 0.9999433051875067 3.855416905405551e-11 7.843442949173164e-08
123 3 -2.70847 20.1082 4.4844 -1.2 1.4704958785190968e-05 1.3267518349634955e-07 0.9999850325484124 7.070448070112045e-13 1.2981690899734653e-07
124 3 0.97581 22.6955 4.4844 -1.2 0.00013033877546134693 1.4711363042532232e-06 0.999867369884969 4.880462131409419e-12 8.201983795628021e-07
125 3 -1.9076 22.4276 3.18632 -1.2 0.00021057416725112408 5.723156158593444e-07 0.999788765003255 1.0830684131324156e-13 8.85137690041168e-08
126 3 -1.9475 22.4276 5.78248 -1.2 0.00011359236787368515 9.913593250389154e-08 0.9998855397549539 1.6943866464336167e-11 7.687242925581304e-07
127 1 1.50678 21.3705 2.9896 1.2 0.00016333267766482413 5.697554616159e-07 0.9998358161769728 9.809092386551608e-13 2.8138891724685144e-07
128 1 4.31086 21.3292 4.4844 1.2 1.0881311114732824e-05 3.39804346192998e-08 0.999988988908071 1.86991045361948e-10 9.561338415029848e-08
129 2 2.49243 23.394 4.4844 2.4 0.00015902667298795263 6.211529376996576e-07 0.9998401977819812 4.833029646882474e-11 1.5434376183819236e-07
130 3 2.51204 25.0073 4.4844 -1.2 7.248897080132423e-05 1.1681477162550877e-07 0.9999270536646926 3.815659929421901e-13 3.4054935926213173e-07
131 3 -4.13026 22.42 4.4844 -1.2 2.3313708365705234e-05 3.743635882751206e-07 0.9999761739014145 3.270549828418121e-12 1.380233586666652e-07
132 3 3.19799 22.6879 3.18632 -1.2 0.0004544267145735446 2.2682378920789714e-06 0.9995430428382018 1.48667437090552e-13 2.6220918060163666e-07
133 1 1.5501 21.3705 0 1.2 0.0023756437807382295 9.53858560161828e-07 0.9976230230067548 1.7072516189998315e-14 3.7935392952745994e-07
134 3 3.1583 22.6879 5.78248 -1.2 0.00012028111954676627 2.810594342367607e-08 0.9998795017351968 2.3574121207587395e-11 1.8901574483071467e-07
135 1 -1.29822 21.4118 1.4948 1.2 0.0006801299869791133 1.0382846932164653e-06 0.9993186211273408 2.5439613874604927e-14 2.1060095540520888e-07
136 2 0.523568 19.3469 1.4948 2.4 0.0006434068382289334 6.117435829860091e-06 0.999350470350395 6.801035843902433e-15 5.3755340163113465e-09
137 3 0.508934 17.7337 1.4948 -1.2 0.005993333750326263 8.113413937511866e-05 0.9939245189957384 4.701761871631496e-15 1.0131145540880918e-06
138 3 7.14425 20.321 1.4948 -1.2 0.011626958895487398 5.3835056101457e-05 0.9883185047781972 3.884351920032915e-16 7.012702158678631e-07
139 3 -0.145107 20.0531 0.196716 -1.2 0.0022687324228623127 1.4037856892285265e-05 0.9977170827046715 2.126574270621301e-15 1.4701556556342933e-07
140 3 -0.183601 20.0531 2.79288 -1.2 0.0008292352513853174 1.0062934919844338e-05 0.999160049611794 1.972378751354063e-13 6.522017030727223e-07
141 1 6.70502 23.745 0 1.2 0.012796265820132931 2.829162907182675e-06 0.9871994131904911 9.523819981408444e-15 1.4918264636795148e-06
142 1 3.97493 28.4527 1.4948 1.2 0.25088806561501664 1.8006512065964497e-05 0.7490632549651538 3.0169254961941032e-12 3.067290475154451e-05
143 2 5.77602 25.7685 1.4948 2.4 0.3989428464344882 2.3757394122828662e-05 0.6010331520104584 8.72071384292558e-15 2.441609225587562e-07
144 3 5.83821 27.3818 1.4948 -1.2 0.8145659756651695 5.7737552014228334e-05 0.1853631843941847 3.252307922116918e-15 1.310238862558577e-05
145 3 2.15175 24.7945 1.4948 -1.2 0.7294279675648478 0.00014716823666301304 0.2704149010502486 2.2782487558871637e-16 9.963148243212932e-06
146 3 5.07184 25.0624 0.196716 -1.2 0.5232139404483456 4.913504748693322e-05 0.47672876520725144 2.0551502670390755e-15 8.159296921168551e-06
147 1 6.66374 23.745 2.9896 1.2 0.0007147516157852313 7.72059691010115e-07 0.9992840833251073 5.983166234595033e-13 3.9299882247888786e-07
148 3 5.03707 25.0624 2.79288 -1.2 0.0013930272503077654 4.926965045943494e-06 0.9986012906118189 5.388430358939936e-13 7.551722857522688e-07
149 1 -0.727559 23.7863 4.4844 1.2 3.6564307482440636e-05 1.1591036245735993e-07 0.9999630510042562 6.875366811650157e-11 2.687091482754547e-07
150 2 -2.5277 26.4704 4.4844 2.4 0.00029667470112778287 2.657429811599438e-07 0.9997029449568196 3.897388169296423e-11 1.1456010052868838e-07
151 3 -2.59107 24.8572 4.4844 -1.2 3.1756829614069356e-05 1.069477972139022e-07 0.9999679612069766 3.3485260156490235e-13 1.7501527440026936e-07
152 3 1.09817 27.4445 4.4844 -1.2 0.0017433775199124182 2.171117579563797e-06 0.9982503402212412 7.606194351421893e-12 4.1111336649581785e-06
153 3 -1.78784 27.1766 3.18632 -1.2 0.0014060601367427063 5.799280996241477e-07 0.9985930055337011 5.533072140970299e-13 3.5440090866714365e-07
154 3 -1.82343 27.1766 5.78248 -1.2 0.000515489490858288 6.355444050902287e-08 0.9994836206940635 1.8672699605426266e-11 8.262419660027539e-07
155 1 1.62435 26.1195 2.9896 1.2 0.005621349412334085 1.4682869483182395e-06 0.9943755094679539 8.215254650855659e-13 1.6728319387059112e-06
156 1 4.43064 26.0782 4.4844 1.2 0.00010504293578966654 3.661504503969511e-08 0.9998947854635503 5.391858470262789e-11 1.349316991757359e-07
157 2 2.61607 28.143 4.4844 2.4 0.001157939281702585 6.54897960157953e-07 0.9988407871452135 1.5863029910385283e-10 6.185164880179341e-07
158 3 2.63853 29.7563 4.4844 -1.2 0.00019595661226842677 8.71870597799072e-08 0.9998030535967589 4.910307486207955e-12 9.025990065395115e-07
159 3 -4.00841 27.169 4.4844 -1.2 0.00023469996520289214 4.672898678913345e-07 0.9997643411849261 2.4790392383050986e-12 4.91557526477725e-07
160 3 3.3182 27.4369 3.18632 -1.2 0.0073897074906908765 3.174947562813295e-06 0.9926049096382998 5.112003280139952e-13 2.207922940019649e-06
161 1 1.66335 26.1195 0 1.2 0.1864885381742355 1.3270559698615766e-05 0.8134833951004944 2.117677611993332e-14 1.4796165546728376e-05
162 3 3.28288 27.4369 5.78248 -1.2 0.00018780196946006987 2.056546855531612e-08 0.9998119739867598 1.8604935458384874e-11 2.0345971183446105e-07
163 1 -1.18278 26.1608 1.4948 1.2 0.10189216069617439 1.639665425978706e-05 0.8980801646770276 1.6549013409073958e-13 1.1277972379393988e-05
164 2 0.635424 24.0959 1.4948 2.4 0.00945066271837602 3.532204796009034e-06 0.9905458004771885 3.6757669851155515e-15 4.599630957633022e-09
165 3 0.617906 22.4827 1.4948 -1.2 0.025001765544174073 5.268036542913153e-05 0.9749448080925746 1.603208816283959e-15 7.459978161188269e-07
166 3 7.25781 25.07 1.4948 -1.2 0.44451758548974735 0.00016955691746775776 0.5553048238095253 5.657551331593518e-16 8.033783262600911e-06
167 3 -0.0337363 24.8021 0.196716 -1.2 0.13270687597252198 4.1161229746733825e-05 0.8672495264262889 1.8406686759747546e-15 2.4363714337378624e-06
168 3 -0.0687235 24.8021 2.79288 -1.2 0.0031698916371480416 1.0565677454942777e-05 0.9968183717720593 3.8145554328359244e-13 1.1709129507453143e-06
169 1 6.82195 28.494 0 1.2 0.449205847540649 3.551379315158173e-05 0.5506888964926204 2.0873115982681944e-13 6.974217336833866e-05
170 1 4.10106 33.2017 1.4948 1.2 0.7397779771600276 0.00021372194086482474 0.25923558487323856 2.5734873879644623e-10 0.0007727157685214345
171 2 5.89839 30.5175 1.4948 2.4 0.9951340748410893 7.963802476309649e-06 0.0048571101141647935 5.3292218215634654e-15 8.5124225832184e-07
172 3 5.96289 32.1308 1.4948 -1.2 0.9422199852167207 5.5223642591395896e-05 0.05767678268762848 1.147243570273107e-13 4.800845293759163e-05
173 3 2.27266 29.5435 1.4948 -1.2 0.9811514682819884 0.0001180740236618654 0.018661398335298056 5.627767873753876e-15 6.905935904310977e-05
174 3 5.19102 29.8114 0.196716 -1.2 0.9817367382511789 1.2625033669981728e-05 0.01823133715748631 3.887300356546091e-15 1.9299557662522805e-05
175 1 6.78546 28.494 2.9896 1.2 0.01921955112489485 3.955363351035507e-06 0.9807684453829342 5.969829514852083e-12 8.048122853847233e-06
176 3 5.16061 29.8114 2.79288 -1.2 0.07954438164756585 3.609722689573318e-05 0.9203946893879128 6.379979920436169e-12 2.4831731242149524e-05
177 1 -0.603205 28.5353 4.4844 1.2 0.0006412452003882191 2.4214639094177413e-07 0.9993564511842857 3.9486160001950684e-10 2.061074077651232e-06
178 2 -2.39877 31.2194 4.4844 2.4 0.0022232897766430166 1.0232459416233526e-06 0.9977731349826879 4.4084903890898005e-10 2.5515538820832803e-06
179 3 -2.46483 29.6062 4.4844 -1.2 7.742418942322256e-05 6.944981653193739e-08 0.9999221411861549 3.743051256270562e-12 3.651708648722597e-07
180 3 1.22864 32.1935 4.4844 -1.2 0.0021324499239424566 3.407091122795733e-06 0.9978445733296619 1.3390687961120023e-10 1.9569521365509364e-05
181 3 -1.66032 31.9256 3.18632 -1.2 0.011755444882560351 4.2651964613482136e-06 0.9882334419996719 1.4118867313844807e-11 6.847907182981116e-06
182 3 -1.69072 31.9256 5.78248 -1.2 0.0005663078864010026 5.3484695184484534e-08 0.9994327371927806 6.544999854369027e-11 9.013706754308924e-07
183 1 1.7499 30.8685 2.9896 1.2 0.08258858530831222 1.3788716350669786e-05 0.9173331650714995 3.817094432829876e-11 6.446086566782528e-05
184 1 4.55894 30.8272 4.4844 1.2 0.0014669526713956935 1.0382304997708384e-07 0.9985314225877259 4.750462982449346e-10 1.5204427790772648e-06
185 2 2.7476 32.892 4.4844 2.4 0.0016931195414614966 7.146829198100858e-07 0.9983036175629022 2.2548263706160824e-09 2.545957894478598e-06
186 3 2.77235 34.5053 4.4844 -1.2 6.792825089914792e-05 6.24324088038773e-08 0.9999308930919003 7.312261964725206e-11 1.1161516706469593e-06
187 3 -3.87837 31.918 4.4844 -1.2 0.0006488887691046594 7.372975147450242e-07 0.9993465468025281 4.159798483675069e-11 3.827089248129685e-06
188 3 3.44611 32.1859 3.18632 -1.2 0.047540445052612186 1.2157630666572092e-05 0.9524199286544592 3.017072159299033e-11 2.7468632084433316e-05
189 1 1.7837 30.8685 0 1.2 0.9036252899590883 5.1000562307537555e-05 0.09607573122498744 2.1258270931438104e-13 0.0002479782534081287
190 3 3.41602 32.1859 5.78248 -1.2 0.00012366761056203278 1.6421195307820278e-08 0.9998759049019107 2.2059474109037375e-10 4.1084573286198057e-07
191 1 -1.05984 30.9098 1.4948 1.2 0.9380658466384235 7.503585933457204e-05 0.06164065520425402 1.2899419391413109e-12 0.00021846229669837187
192 2 0.755243 28.8449 1.4948 2.4 0.9688849790713587 6.7288313948991695e-06 0.031108141209365354 2.4069392070975876e-15 1.5088788086648364e-07
193 3 0.735127 27.2317 1.4948 -1.2 0.8822520666649565 5.962164743474305e-05 0.11767992634349587 1.3448213780058091e-15 8.385344106348566e-06
194 3 7.37914 29.819 1.4948 -1.2 0.9632242419655636 0.0001594645062148355 0.0365382633651215 8.709189967863161e-15 7.803016309406672e-05
195 3 0.0850649 29.5511 0.196716 -1.2 0.8553466358209866 6.520254404789201e-05 0.1445551498507653 3.559375343275129e-14 3.3011784158594096e-05
196 3 0.0543974 29.5511 2.79288 -1.2 0.09861823230744673 3.078873748799562e-05 0.9013365938092306 1.7644112092589768e-12 1.4385144072059177e-05
197 1 6.94543 33.243 0 1.2 0.902906187167715 5.5941549435369535e-05 0.09667724524867718 1.9646896044102455e-12 0.00036062603221058724
198 1 4.23267 37.9507 1.4948 1.2 0.2666170644992902 0.00010290934563168323 0.7329297580655179 2.912839257195507e-09 0.0003502651767226984
199 2 6.02709 35.2665 1.4948 2.4 0.997299629490278 2.67221754888511e-05 0.002665110862148533 2.4139952354641167e-13 8.53747183772807e-06
200 3 6.09339 36.8798 1.4948 -1.2 0.548195552936968 0.00015325237113748412 0.45148156124350264 2.3185621326439883e-11 0.00016963342520593183
201 3 2.40018 34.2925 1.4948 -1.2 0.9264545538011094 0.0005179238497518639 0.07230488720615627 2.8469813197872823e-12 0.0007226351401367433
202 3 5.31645 34.5604 0.196716 -1.2 0.9788319999524513 4.655292209884585e-05 0.020975674802489717 3.944715783140094e-13 0.00014577232256116524
203 1 6.91449 33.243 2.9896 1.2 0.08269764508923415 1.9328025798648196e-05 0.917171181429748 2.0676485183531144e-10 0.0001118452484523313
204 3 5.291 34.5604 2.79288 -1.2 0.016115885422344767 2.765411709804551e-05 0.9838175974733767 1.339933642965512e-10 3.886285319004241e-05
205 1 -0.471101 33.2843 4.4844 1.2 0.005049138338153795 1.2949356524843777e-06 0.9949307916874479 3.547549053268079e-09 1.877149119083988e-05
206 2 -2.26307 35.9684 4.4844 2.4 0.0002026002482654724 3.9342968432733447e-07 0.9997933562798657 1.5039249453046484e-08 3.6350029318976915e-06
207 3 -2.33122 34.3552 4.4844 -1.2 9.065240469657111e-05 9.777841204478777e-08 0.9999080292339577 6.022390443704489e-11 1.2205227105395945e-06
208 3 1.36549 36.9425 4.4844 -1.2 0.00013781972878147556 4.783108417276948e-07 0.9998577075420431 5.01815848087701e-10 3.993916517234575e-06
209 3 -1.52658 36.6746 3.18632 -1.2 0.004158268405573841 3.096123413211649e-06 0.9958310575260757 2.4792846608794276e-10 7.57769701048337e-06
210 3 -1.55122 36.6746 5.78248 -1.2 6.484634880172102e-05 1.246251594438179e-08 0.9999348444895391 2.609740446994341e-10 2.964381655717737e-07
211 1 1.882 35.6175 2.9896 1.2 0.025321321048702702 1.0656702878703973e-05 0.9746147757443465 6.557598590559396e-10 5.324584831449436e-05