ITEM: TIMESTEP
4900
ITEM: NUMBER OF ATOMS
10500
ITEM: BOX BOUNDS xy xz yz pp pp pp
0	15.2977	5.09925
0	118.725	0
0	89.688	0
ITEM: ATOMS id type xu yu zu q pCrystal pDisloC pSF pDisloB pDisloA
1 1 6.2404 -6.37941e-06 0 1.2 2.4106347929668976e-16 2.1493956570963296e-12 0.9999996442497043 3.5571476249381657e-07 3.338210110713893e-11
2 1 3.46349 4.70768 1.4948 1.2 3.199554738612603e-10 1.8199201938939785e-08 0.9999999356785331 4.564038964064699e-08 1.6191891614354563e-10
3 2 5.2885 2.02354 1.4948 2.4 1.7315387318582016e-13 3.5344024348757534e-10 0.9999999857261913 1.391406462121394e-08 6.125465745820388e-12
4 3 5.33628 3.63678 1.4948 -1.2 2.991504499901736e-10 2.4294974610219385e-08 0.9999999649524234 6.523527755969394e-09 3.929916961836232e-09
5 3 1.67294 1.04952 1.4948 -1.2 1.468347152276175e-13 1.364879118847614e-09 0.9999997588848408 2.3904710672073456e-07 7.030277642146612e-10
6 3 4.59532 1.31737 0.196716 -1.2 1.567662264221275e-14 3.1917438414899626e-10 0.9999998455182441 1.538284283030915e-07 3.341348476619064e-10
7 1 6.18956 -6.37941e-06 2.9896 1.2 2.9151152560356206e-16 6.959886692694521e-11 0.9999977996170536 2.199387687628612e-06 9.256567010297954e-10
8 3 4.55118 1.31737 2.79288 -1.2 1.8631332291421457e-16 7.122826052516203e-12 0.9999986208510154 1.3790734164037022e-06 6.844192314451345e-11
9 1 -1.20682 0.0413099 4.4844 1.2 4.150653126778185e-16 2.9455304294466047e-11 0.9999844251815082 1.557450255431562e-05 2.8648836396163265e-10
10 2 -3.0337 2.72544 4.4844 2.4 7.882622924619717e-12 6.663873243621147e-08 0.9999765396169155 2.33729499527091e-05 2.0786520171181903e-08
11 3 -3.08099 1.11221 4.4844 -1.2 3.4901863317900653e-15 2.266983523905471e-10 0.9999856269635871 1.437222997507907e-05 5.797332139379169e-10
12 3 0.582463 3.69946 4.4844 -1.2 3.4820294260529835e-12 6.278884132859501e-10 0.9999924895719892 7.503674188110279e-06 6.12245172132528e-09
13 3 -2.29524 3.43162 3.18632 -1.2 5.426811340412552e-11 1.0284204076599888e-08 0.9999996276885366 3.575249192785099e-07 4.448067208557699e-09
14 3 -2.34216 3.43162 5.78248 -1.2 2.1725805066987274e-12 1.9869172141747528e-10 0.9999400743592308 5.99202200490101e-05 5.219860267198936e-09
15 1 1.12778 2.37449 2.9896 1.2 2.709851914845487e-13 1.187307119820774e-09 0.9999922238737831 7.77444552076858e-06 4.931158581749452e-10
16 1 3.92855 2.33318 4.4844 1.2 1.0674789826260139e-14 7.068692552973994e-11 0.9999460016459248 5.39973858859922e-05 8.974888572056403e-10
17 2 2.09341 4.39804 4.4844 2.4 1.98180380697532e-12 4.769924780303004e-09 0.9999900938176118 9.900706530233683e-06 7.03946445858556e-10
18 3 2.09991 6.01128 4.4844 -1.2 1.8400191888160288e-09 9.864053528924566e-09 0.9999999609096343 1.7120662220446905e-08 1.0265634885090836e-08
19 3 -4.52137 3.42402 4.4844 -1.2 1.3950380452263554e-12 1.189378960072747e-09 0.9999890559117712 1.092443975788673e-05 1.8457690479179263e-08
20 3 2.80834 3.69187 3.18632 -1.2 2.9806658836759187e-12 8.405848483124911e-10 0.9999999097711095 8.903700003156845e-08 3.48318964394151e-10
21 1 1.17857 2.37449 0 1.2 8.779658690978408e-15 1.9923227818211708e-10 0.9999991964995831 8.030436449523196e-07 2.575239265204423e-10
22 3 2.76143 3.69187 5.78248 -1.2 1.0129304104523442e-13 4.250888007338257e-11 0.9999668533018997 3.314341220134596e-05 3.243286382012826e-09
23 1 -1.67381 2.41581 1.4948 1.2 6.446160855101215e-11 1.960136744930195e-08 0.9999980195683378 1.9578197459474932e-06 2.9460803010042447e-09
24 2 0.16286 0.350945 1.4948 2.4 1.7628955387289095e-13 1.6384005980862832e-09 0.9999989811430442 1.016856429964141e-06 3.6194585164827576e-10
25 3 0.15972 -1.26229 1.4948 -1.2 4.297488999939841e-12 1.8539886998059586e-08 0.9999997979444037 1.7326572706805364e-07 1.0245678916627781e-08
26 3 6.77654 1.32496 1.4948 -1.2 7.319713904195605e-13 3.3956774783067964e-09 0.9999999233221673 6.897148173039292e-08 4.3099386083450104e-09
27 3 -0.508028 1.05712 0.196716 -1.2 2.2180354892924952e-14 7.691971715262609e-10 0.9999994546208124 5.434917545991235e-07 1.1182135395907326e-09
28 3 -0.552171 1.05712 2.79288 -1.2 2.8029898256399583e-14 3.399261269616323e-10 0.9999981232699173 1.875274566764083e-06 1.115563638865042e-09
29 1 6.31713 4.74899 0 1.2 2.1224291660274378e-10 3.1828994818774967e-08 0.9999999207320545 4.6586609071002044e-08 6.400924130062581e-10
30 1 3.54847 9.45668 1.4948 1.2 2.455612068869488e-05 2.154901055101117e-07 0.9999751811825918 1.186969247087042e-11 4.719473979484478e-08
31 2 5.36879 6.77254 1.4948 2.4 1.4555863446900586e-06 3.187402276189645e-06 0.9999952878272503 8.730635269148928e-11 6.909682285330283e-08
32 3 5.41937 8.38578 1.4948 -1.2 0.0004915322515982515 4.0016342982961244e-05 0.9994662066445029 1.9197890986462386e-13 2.244760723116991e-06
33 3 1.75158 5.79852 1.4948 -1.2 3.7270765654901363e-06 8.32782986081757e-06 0.9999875446273652 7.261015287315771e-11 4.0039359449803236e-07
34 3 4.67421 6.06637 0.196716 -1.2 3.021458200471333e-08 3.045661406538651e-07 0.9999996609671775 3.8278248896043876e-11 4.213816861769828e-09
35 1 6.26654 4.74899 2.9896 1.2 2.046103736510676e-10 1.3622177473540365e-08 0.9999995294533305 4.503344371758578e-07 6.385446492809262e-09
36 3 4.63043 6.06637 2.79288 -1.2 2.7697467806339095e-08 1.7538961339552763e-07 0.9999997669613224 2.2216023114782036e-09 2.7729995640428296e-08
37 1 -1.12976 4.79031 4.4844 1.2 1.2172627712272278e-10 7.697542912874558e-10 0.9999977878332967 2.2100417670932994e-06 1.2334545898521974e-09
38 2 -2.9517 7.47444 4.4844 2.4 5.031529750696027e-09 1.1260163893035771e-07 0.9999966541346038 4.6059705297625834e-07 2.7676351742403328e-06
39 3 -3.00198 5.86121 4.4844 -1.2 1.4459405861842224e-10 6.811372572615361e-10 0.9999999139694077 8.270241191800026e-08 2.5024424120962606e-09
40 3 0.666315 8.44846 4.4844 -1.2 1.415359196866052e-07 2.2893632160571364e-07 0.9999984923922933 6.283542326744298e-10 1.1365071120456985e-06
41 3 -2.21213 8.18062 3.18632 -1.2 4.913918599794118e-07 1.1669292296569623e-07 0.9999992321529269 3.808704514073864e-11 1.597241959762285e-07
42 3 -2.25864 8.18062 5.78248 -1.2 2.0331355290119828e-08 5.500205934494566e-09 0.9999993020469609 1.4014861468684162e-08 6.581066123413526e-07
43 1 1.20893 7.12349 2.9896 1.2 1.3350254007901542e-07 1.8960890187488604e-07 0.9999996400202429 4.482067608191606e-09 3.238624570889013e-08
44 1 4.00982 7.08218 4.4844 1.2 2.509983162182562e-08 1.3937779559304085e-08 0.9999998300748703 5.612777358689518e-08 7.475975049926614e-08
45 2 2.17861 9.14704 4.4844 2.4 1.0508779737087207e-06 1.1160192974012768e-06 0.9999935637698275 9.092409432990713e-09 4.260240498289023e-06
46 3 2.18828 10.7603 4.4844 -1.2 4.310215461484361e-06 1.368145366295957e-07 0.9999948612062202 2.5894620152900748e-11 6.917378842976356e-07
47 3 -4.43805 8.17302 4.4844 -1.2 2.7543166828235728e-08 5.473290743320359e-08 0.9999992300752447 1.2721597427953261e-09 6.863765283264281e-07
48 3 2.89193 8.44087 3.18632 -1.2 2.8761845113854e-06 3.361133622870639e-07 0.9999963904231552 1.1759357027006897e-10 3.9716137586711705e-07
49 1 1.25915 7.12349 0 1.2 2.4634914501771247e-07 2.876555497812237e-07 0.9999994607149778 5.805817928929852e-10 4.699749863419706e-09
50 3 2.84547 8.44087 5.78248 -1.2 1.0784302149944958e-07 2.1092820385317893e-08 0.999999271959718 1.1041830921653737e-08 5.880626038795078e-07
51 1 -1.59284 7.16481 1.4948 1.2 7.891989644010553e-07 3.6391480876300755e-07 0.9999988211793733 4.0634148399294355e-10 2.5300508081841456e-08
52 2 0.240329 5.09994 1.4948 2.4 1.1103845966377117e-09 7.603535863934836e-08 0.9999999183279049 4.454483120172268e-09 7.186457814328083e-11
53 3 0.234538 3.48671 1.4948 -1.2 1.9150510683516582e-11 1.4429206141292619e-08 0.9999999658546989 1.631397761727548e-08 3.382971001677471e-09
54 3 6.85564 6.07396 1.4948 -1.2 3.005572358693665e-07 1.6795675982477404e-06 0.9999977680386006 1.5077734740091738e-10 2.516857820456454e-07
55 3 -0.429565 5.80612 0.196716 -1.2 3.610827330585815e-09 5.385758145452408e-08 0.9999999416128292 1.7353659683646877e-10 7.452235141564192e-10
56 3 -0.473377 5.80612 2.79288 -1.2 2.453841533957738e-09 8.06822380605506e-09 0.9999999780367264 8.67190196688935e-09 2.7693002866895473e-09
57 1 6.40169 9.49799 0 1.2 7.324161102954072e-05 8.748674509408154e-07 0.9999257680171512 1.915588042562592e-12 1.1550245120101802e-07
58 1 3.64209 14.2057 1.4948 1.2 0.00022141625677832714 3.5335074989595385e-07 0.9997780183903292 7.744698289580148e-13 2.1200136411694835e-07
59 2 5.45748 11.5215 1.4948 2.4 0.0009656026868815873 7.252891415917916e-06 0.9990270741774725 1.7778863972831946e-14 7.024420847799382e-08
60 3 5.51101 13.1348 1.4948 -1.2 0.01524834655290865 6.367982188173374e-05 0.9846829608337396 8.243155028239284e-15 5.012791467384527e-06
61 3 1.83851 10.5475 1.4948 -1.2 0.0031769049158070868 9.278293825774844e-06 0.9968125832342593 1.1478382362420793e-14 1.2335560980299849e-06
62 3 4.7611 10.8154 0.196716 -1.2 0.0005164548245357695 5.699761769245397e-06 0.9994775885762062 2.927117799137699e-14 2.5683745505894846e-07
63 1 6.35203 9.49799 2.9896 1.2 2.0194889252126765e-05 1.8465191940451758e-06 0.9999772461939427 8.764779892872661e-11 7.12309957112795e-07
64 3 4.71833 10.8154 2.79288 -1.2 8.494301183453326e-05 1.683048758435938e-06 0.9999125243570731 3.348678966813847e-12 8.495789920252353e-07
65 1 -1.0438 9.53931 4.4844 1.2 1.304157946732464e-06 5.826838841182117e-08 0.9999982571879381 7.00213165409465e-09 3.733835903396532e-07
66 2 -2.8604 12.2234 4.4844 2.4 4.233761082727524e-06 1.2692767619005611e-06 0.9999922819981586 7.927802127651448e-10 2.2141712234683654e-06
67 3 -2.91391 10.6102 4.4844 -1.2 5.672567758453927e-06 2.614560671894557e-07 0.999993335331607 1.4486934381316182e-11 7.3063007528676e-07
68 3 0.7596 13.1975 4.4844 -1.2 9.052961519412876e-06 1.6614357118967563e-06 0.9999857293371751 5.095697772376094e-11 3.556214641041548e-06
69 3 -2.12001 12.9296 3.18632 -1.2 8.915748874230563e-05 1.3896738408010562e-06 0.999908401867722 1.8973050573671324e-12 1.0509677957953056e-06
70 3 -2.16532 12.9296 5.78248 -1.2 1.4432046703257296e-05 1.743691847975893e-07 0.9999806655420945 4.377903029335023e-10 4.72760422172818e-06
71 1 1.29891 11.8725 2.9896 1.2 0.00010970231343383897 1.4095909665887703e-06 0.9998876681552852 2.2691082573330052e-11 1.2199176267423623e-06
72 1 4.10033 11.8312 4.4844 1.2 1.4130523478847259e-05 6.401590789283418e-08 0.9999846393253314 2.094253136810076e-09 1.1640410297128677e-06
73 2 2.27333 13.896 4.4844 2.4 5.362362113698047e-05 2.606696701044132e-06 0.9999397972124555 3.229631610964194e-10 3.972146748176283e-06
74 3 2.28634 15.5093 4.4844 -1.2 6.141747059784986e-05 5.062478352961074e-07 0.999936922082459 7.352357073322289e-13 1.154198378210724e-06
75 3 -4.34533 12.922 4.4844 -1.2 1.93275652192887e-06 2.1085269760647435e-07 0.9999964380277562 6.222246992516631e-11 1.4183007963589941e-06
76 3 2.98455 13.1899 3.18632 -1.2 6.63190628609267e-05 1.0433617359373504e-06 0.9999315316727684 4.081577391333459e-12 1.10589854847601e-06
77 1 1.34779 11.8725 0 1.2 0.00031645563608925635 7.908433922004924e-07 0.9996825464425946 3.463487171556351e-13 2.0707757711941142e-07
78 3 2.93934 13.1899 5.78248 -1.2 1.0497366810371966e-05 8.611577133181578e-08 0.9999881778415091 1.78883939892165e-10 1.238497021777976e-06
79 1 -1.50344 11.9138 1.4948 1.2 0.00020926073561804457 7.645577455760805e-07 0.9997897491332741 5.352110421026223e-13 2.25572827694588e-07
80 2 0.326006 9.84894 1.4948 2.4 0.00015872839258814265 2.7987355683866628e-06 0.9998384483227466 4.153648367150842e-14 2.4549057333034173e-08
81 3 0.317364 8.23571 1.4948 -1.2 0.00015979214285574925 6.779867414787232e-06 0.9998328727605397 1.691594741930593e-12 5.552274928049062e-07
82 3 6.94307 10.823 1.4948 -1.2 0.001842355569705461 1.681103625572496e-05 0.9981400036167949 7.863534628520466e-15 8.297772405310604e-07
83 3 -0.343122 10.5551 0.196716 -1.2 0.00012896931095596388 1.942662571271351e-06 0.999869012835339 4.31127466517659e-14 7.519108638569456e-08
84 3 -0.385966 10.5551 2.79288 -1.2 3.734620735771747e-05 8.031738315579898e-07 0.9999614096267139 1.2148257209671538e-11 4.409799420682607e-07
85 1 6.49448 14.247 0 1.2 0.00105955135341972 5.402144965784136e-07 0.9989396250962628 2.8378791334453205e-14 2.833357862900228e-07
86 1 3.74457 18.9547 1.4948 1.2 4.607001572200077e-05 8.594066102963483e-08 0.9999538201044359 1.8475312134309316e-13 2.3938999717216532e-08
87 2 5.55495 16.2705 1.4948 2.4 0.0007162720610182365 2.90479917725886e-06 0.9992808155021757 1.88526157341901e-15 7.637622864610476e-09
88 3 5.6115 17.8838 1.4948 -1.2 0.008579461494950022 3.3400920558600734e-05 0.9913863620389107 1.1051554767715724e-15 7.75545583252955e-07
89 3 1.93416 15.2965 1.4948 -1.2 0.012755874181506487 1.866485270513279e-05 0.9872244111776708 8.315182815301385e-16 1.0497881187958529e-06
90 3 4.85636 15.5644 0.196716 -1.2 0.004722843082446061 1.2876041890168965e-05 0.9952638569163449 3.4117382048524164e-15 4.239593175790322e-07
91 1 6.44662 14.247 2.9896 1.2 0.0001556696182196396 1.1438523014263996e-06 0.9998424747185659 3.748745265416747e-12 7.118071607865391e-07
92 3 4.81537 15.5644 2.79288 -1.2 0.00046818480051257915 4.818672067683048e-06 0.9995259920484788 3.936006635911684e-13 1.0044785525751777e-06
93 1 -0.948271 14.2883 4.4844 1.2 1.4590565040241088e-05 2.020711134195369e-07 0.9999836704137011 9.47152565763741e-10 1.5360029937549445e-06
94 2 -2.75928 16.9724 4.4844 2.4 4.8233606245506965e-05 1.2887433525881358e-06 0.999950085851524 3.195563054264757e-11 3.917669245205703e-07
95 3 -2.81617 15.3592 4.4844 -1.2 1.7905631708230378e-05 4.1339612474011267e-07 0.9999805804130363 1.40183725003057e-12 1.1005577359162357e-06
96 3 0.862762 17.9465 4.4844 -1.2 3.176224200603315e-05 9.780639007766662e-07 0.9999663776548927 2.3708167279761437e-12 8.820368335005602e-07
97 3 -2.0185 17.6786 3.18632 -1.2 0.00012467947876500232 1.0084322522660374e-06 0.9998740312182011 1.373841957076836e-13 2.8087064963791875e-07
98 3 -2.06164 17.6786 5.78248 -1.2 0.00015460089251967984 1.4836192638192524e-07 0.9998435369885215 1.6770762016235385e-11 1.7137402609005431e-06
99 1 1.39817 16.6215 2.9896 1.2 0.00020610498443896492 1.1527664398037385e-06 0.9997919948981103 1.7709802680253695e-12 7.47349245151718e-07
100 1 4.20062 16.5802 4.4844 1.2 1.375853536794559e-05 5.902381574209358e-08 0.9999856448245132 3.940899781941485e-10 5.372222156667647e-07
101 2 2.37796 18.645 4.4844 2.4 6.019144614556177e-05 3.9815104242032625e-07 0.9999392809551761 1.3670088410290675e-11 1.2943396064123005e-07
102 3 2.39434 20.2583 4.4844 -1.2 7.108193665275918e-05 1.2165432553688995e-07 0.9999286585353397 4.202115970460586e-14 1.3787364623154606e-07
103 3 -4.24274 17.671 4.4844 -1.2 1.41859977885218e-05 4.821886737822463e-07 0.999984904976844 4.278848727504411e-12 4.2683241661774054e-07
104 3 3.08659 17.9389 3.18632 -1.2 6.874294216252593e-05 7.347146061565415e-07 0.9999302543953456 5.607053683459755e-13 2.679473227876926e-07
105 1 1.44478 16.6215 0 1.2 0.0008690310516638936 3.7144530205145017e-07 0.9991303906564835 3.0906004539745906e-14 2.0684652199737418e-07
106 3 3.0436 17.9389 5.78248 -1.2 6.690766337531936e-05 3.6251942543027675e-08 0.9999328064719252 5.916406097393805e-12 2.496068474026737e-07
107 1 -1.40524 16.6628 1.4948 1.2 0.0008422427515504905 1.184646577263094e-06 0.9991561667871295 8.523792843271566e-14 4.058146561498334e-07
108 2 0.420358 14.5979 1.4948 2.4 0.001736759753341397 8.237079342610916e-06 0.9982549685355304 1.4297512777767548e-14 3.4631768423181645e-08
109 3 0.408732 12.9847 1.4948 -1.2 0.008974300784646318 3.105459920735219e-05 0.9909932694844685 7.715804147985532e-15 1.3751316703932838e-06
110 3 7.03923 15.572 1.4948 -1.2 0.018089884790820458 6.040997624281713e-05 0.9818472395834636 1.676314600899092e-15 2.4656494655498492e-06
111 3 -0.248332 15.3041 0.196716 -1.2 0.0016345767745220355 1.092205967197262e-05 0.9983542640607534 6.357846595237747e-15 2.3710504499768748e-07
112 3 -0.289436 15.3041 2.79288 -1.2 0.0008091538570199674 8.57464492573381e-06 0.9991794340305751 1.7362679636053432e-12 2.837465744271569e-06
113 1 6.59566 18.996 0 1.2 0.0004688209403788905 1.1286004624314724e-07 0.9995310043645446 2.5146789319340683e-15 6.183502960576405e-08
114 1 3.85574 23.7037 1.4948 1.2 0.0008408959294912537 4.2358864834869606e-07 0.9991585330005681 1.0927573260558526e-13 1.4748117625441656e-07
115 2 5.66125 21.0195 1.4948 2.4 0.001677435372702722 1.6166391821799017e-06 0.9983209453923604 1.0436328746053248e-15 2.595757122556208e-09
116 3 5.72074 22.6328 1.4948 -1.2 0.022500144053056746 3.6645960772764324e-05 0.9774624513831194 8.407598898335286e-16 7.586030502596936e-07
117 3 2.03867 20.0455 1.4948 -1.2 0.02028982923114818 1.8349742307842595e-05 0.9796911422847935 1.0461189756581474e-16 6.787417533265653e-07
118 3 4.96004 20.3134 0.196716 -1.2 0.0023643398458626777 4.165884412353109e-06 0.9976313982039595 7.654630294824297e-16 9.60657700494223e-08
119 1 6.55057 18.996 2.9896 1.2 0.00010927894921227538 3.4917334339774825e-07 0.9998901893525063 3.7795925237532446e-13 1.8252456197380244e-07
120 3 4.92172 20.3134 2.79288 -1.2 0.00028525714798146294 1.932105258714114e-06 0.9997125768503676 6.99478829647706e-14 2.3389632045893708e-07
121 1 -0.84282 19.0373 4.4844 1.2 1.5247105432858233e-05 5.644975261018514e-08 0.9999844626285174 6.437457916473248e-11 2.337519210451044e-07
122 2 -2.64823 21.7214 4.4844 2.4 0.00017939857353206027 2.644376626355618e-07 0.9998203012006266 1.3889838333420363e-12 3.578679224334178e-08
123 3 -2.70847 20.1082 4.4844 -1.2 2.3004515104341297e-05 8.317949516293443e-08 0.9999768367344616 5.739413795445823e-14 7.557088332575554e-08
124 3 0.97581 22.6955 4.4844 -1.2 0.00029300816666959087 1.1031690657665644e-06 0.9997052856290779 4.998973848067951e-13 6.030346891577611e-07
125 3 -1.9076 22.4276 3.18632 -1.2 0.000585218749893412 4.369577224398021e-07 0.9994142412892474 1.4363031526862776e-14 1.0300311559985623e-07
126 3 -1.9475 22.4276 5.78248 -1.2 0.0003083655402905332 3.88490922516993e-08 0.999691354543971 9.792825899440787e-13 2.410656700625222e-07
127 1 1.50678 21.3705 2.9896 1.2 0.000241616381945055 3.0069532845514525e-07 0.9997578914107538 1.731058067734387e-13 1.915117944044345e-07
128 1 4.31086 21.3292 4.4844 1.2 3.206121740026455e-05 1.619868389599449e-08 0.9999678615426295 1.1558302594494938e-11 6.102973115275998e-08
129 2 2.49243 23.394 4.4844 2.4 0.000325003853387905 2.682286236416448e-07 0.9996746739282413 4.121551004593299e-12 5.398562362864104e-08
130 3 2.51204 25.0073 4.4844 -1.2 0.0001700153183416141 1.2419350111944488e-07 0.9998295712546209 3.981779192756147e-14 2.8923349428197915e-07
131 3 -4.13026 22.42 4.4844 -1.2 6.595116604705492e-05 2.430181741527925e-07 0.999933728052235 2.7221219573317926e-13 7.776326830339545e-08
132 3 3.19799 22.6879 3.18632 -1.2 0.0004344706669040958 8.697042400002268e-07 0.9995645332580415 2.2194369001734078e-14 1.263707874180346e-07
133 1 1.5501 21.3705 0 1.2 0.0009030479831523954 2.05196413122269e-07 0.9990966292408645 6.94914443059355e-15 1.1757956608727579e-07
134 3 3.1583 22.6879 5.78248 -1.2 9.036882499678729e-05 9.685216497047582e-09 0.9999095351315004 1.940811133615864e-12 8.635634133149454e-08
135 1 -1.29822 21.4118 1.4948 1.2 0.0004525757802323567 3.0177612377788325e-07 0.9995470431344058 8.052335609235118e-15 7.930923237297991e-08
136 2 0.523568 19.3469 1.4948 2.4 0.0006151946119000755 2.2098232300950585e-06 0.9993825935083447 1.8111081583411327e-15 2.056518331881236e-09
137 3 0.508934 17.7337 1.4948 -1.2 0.0041492955185866405 3.207479058125118e-05 0.995818181001948 1.6880214706616276e-15 4.486888833845812e-07
138 3 7.14425 20.321 1.4948 -1.2 0.01202701083513446 2.8495978656738714e-05 0.9879440533445119 1.2575597736546106e-16 4.3984169026795383e-07
139 3 -0.145107 20.0531 0.196716 -1.2 0.0015640257572212604 4.376269241164623e-06 0.9984315452405392 6.299310265259743e-16 5.273299853333757e-08
140 3 -0.183601 20.0531 2.79288 -1.2 0.001097007828654018 4.657034235242352e-06 0.9988979857207819 4.445437323393836e-14 3.4941628746045896e-07
141 1 6.70502 23.745 0 1.2 0.006453001284072934 1.0425275319125615e-06 0.9935452901665716 5.265081843879014e-15 6.660218235971128e-07
142 1 3.97493 28.4527 1.4948 1.2 0.17980345956461607 1.5207862188573688e-05 0.8201591707851861 1.454658256556154e-12 2.216178656170905e-05
143 2 5.77602 25.7685 1.4948 2.4 0.2617603926517152 1.989390099944383e-05 0.7382195931018097 4.007177713666505e-15 1.2034547207080169e-07
144 3 5.83821 27.3818 1.4948 -1.2 0.6865800191083329 6.930894985778044e-05 0.3133395768293772 1.6292505002736311e-15 1.1095112434231216e-05
145 3 2.15175 24.7945 1.4948 -1.2 0.6910274483936667 9.30249674982658e-05 0.3088726766250743 7.831023157536048e-17 6.850013755360923e-06
146 3 5.07184 25.0624 0.196716 -1.2 0.3327322481138499 3.4950532529599725e-05 0.6672267105118388 2.6043361247909167e-15 6.09084177691823e-06
147 1 6.66374 23.745 2.9896 1.2 0.000739479766275533 5.829916518896831e-07 0.9992596019407995 1.4276003115461895e-13 3.3530113117256953e-07
148 3 5.03707 25.0624 2.79288 -1.2 0.003519273028789382 5.735385856283282e-06 0.9964739035407586 9.875845394040989e-14 1.088044492918743e-06
149 1 -0.727559 23.7863 4.4844 1.2 7.663470148721447e-05 7.491092357462108e-08 0.9999231367293447 7.830208210358827e-12 1.536504186306768e-07
150 2 -2.5277 26.4704 4.4844 2.4 0.0006223041001200069 1.8408035242901247e-07 0.9993774588819696 3.9173462182772195e-12 5.293363717519954e-08
151 3 -2.59107 24.8572 4.4844 -1.2 0.00011042003224556575 1.094399728678851e-07 0.9998893399402426 2.6690274083356832e-14 1.3058751201486679e-07
152 3 1.09817 27.4445 4.4844 -1.2 0.004255621926138496 2.8261664898214166e-06 0.9957375910289981 7.781234644865691e-13 3.960877600544692e-06
153 3 -1.78784 27.1766 3.18632 -1.2 0.0028572383531509484 8.010041715599408e-07 0.9971414758178283 1.2256016969309912e-13 4.848247282592404e-07
154 3 -1.82343 27.1766 5.78248 -1.2 0.0012725161842646084 5.383007836915936e-08 0.9987269784068363 1.74026465853884e-12 4.5157707392169826e-07
155 1 1.62435 26.1195 2.9896 1.2 0.007227021746918295 1.4974680709376164e-06 0.9927695085212837 2.8738002643887507e-13 1.972263441378509e-06
156 1 4.43064 26.0782 4.4844 1.2 0.0001487458018131596 2.2289406920484216e-08 0.999851135307162 1.3103049815758708e-11 9.658851669197361e-08
157 2 2.61607 28.143 4.4844 2.4 0.0015917481169172715 2.760052869338997e-07 0.9984078198183958 1.0328509749624369e-11 1.560490757116783e-07
158 3 2.63853 29.7563 4.4844 -1.2 0.0004405020066002436 1.3377608098983343e-07 0.999558217967462 5.685287947794523e-13 1.1462492835931245e-06
159 3 -4.00841 27.169 4.4844 -1.2 0.0008089912538917379 7.489076597539492e-07 0.999189549132759 4.0926305828649813e-13 7.107052808000947e-07
160 3 3.3182 27.4369 3.18632 -1.2 0.011128332296647786 3.034338541973261e-06 0.9888663084966327 1.1832966128099174e-13 2.3248680567295555e-06
161 1 1.66335 26.1195 0 1.2 0.09218443606308248 8.89481576827271e-06 0.907797590554679 1.9035553656399364e-14 9.07856645057707e-06
162 3 3.28288 27.4369 5.78248 -1.2 0.00022182092338163506 1.2956151863281903e-08 0.9997780256748302 2.1619468412760705e-12 1.4044347477429395e-07
163 1 -1.18278 26.1608 1.4948 1.2 0.059838057465295545 7.404596810154182e-06 0.9401492651755626 4.446876890289341e-14 5.272762289375076e-06
164 2 0.635424 24.0959 1.4948 2.4 0.0080566170109653 1.9525568594161346e-06 0.9919414274719722 1.246829050092142e-15 2.9601992867995246e-09
165 3 0.617906 22.4827 1.4948 -1.2 0.010716647991741445 1.6822626903585117e-05 0.9892662802934302 4.661447998345839e-16 2.4908792930675173e-07
166 3 7.25781 25.07 1.4948 -1.2 0.39799036902990265 0.00014895002930124344 0.6018541064378963 2.006745565024212e-16 6.574502906576394e-06
167 3 -0.0337363 24.8021 0.196716 -1.2 0.08128354136260742 2.283949725289527e-05 0.9186923492635789 1.0658171722994183e-15 1.2698765597053888e-06
168 3 -0.0687235 24.8021 2.79288 -1.2 0.005819091195302276 6.9387833903721495e-06 0.9941732275728095 5.299029907141577e-14 7.424484507745307e-07
169 1 6.82195 28.494 0 1.2 0.27630336779785264 2.7271874234849196e-05 0.7236290279006894 1.0728475543191926e-13 4.033242711014432e-05
170 1 4.10106 33.2017 1.4948 1.2 0.7571656770252572 0.00018774071366404498 0.24208000674260294 5.994927748007522e-11 0.0005665754585329909
171 2 5.89839 30.5175 1.4948 2.4 0.9882117948943234 1.1140866762550786e-05 0.01177618379909823 3.5375915366702115e-15 8.804398141936074e-07
172 3 5.96289 32.1308 1.4948 -1.2 0.9274142876903871 6.927393857709668e-05 0.07246542268592017 4.916027739028906e-14 5.101568506722597e-05
173 3 2.27266 29.5435 1.4948 -1.2 0.9856810589859608 9.616243387631308e-05 0.014169871074791038 1.0917955654575055e-15 5.290750536437987e-05
174 3 5.19102 29.8114 0.196716 -1.2 0.9689074778262885 1.4011195485901264e-05 0.031059145691370745 3.1411685349562076e-15 1.9365286847004647e-05
175 1 6.78546 28.494 2.9896 1.2 0.022700054519920722 3.024220402873188e-06 0.977290711663361 1.337506321909742e-12 6.209594980242728e-06
176 3 5.16061 29.8114 2.79288 -1.2 0.06361350590581111 2.9086581898841265e-05 0.9363395220736733 1.4815399032800009e-12 1.788543714208957e-05
177 1 -0.603205 28.5353 4.4844 1.2 0.001354282953980451 2.2199116940072438e-07 0.9986435025316047 6.464670462546237e-11 1.992458592624187e-06
178 2 -2.39877 31.2194 4.4844 2.4 0.0026366312107411276 7.251666550502677e-07 0.9973618060177655 4.955091723917135e-11 8.375552865629008e-07
179 3 -2.46483 29.6062 4.4844 -1.2 0.0001615573346925846 1.250006168286795e-07 0.9998378168758746 5.800245810851964e-13 5.00788231207111e-07
180 3 1.22864 32.1935 4.4844 -1.2 0.005249704116316709 4.863115001892312e-06 0.9947306585615231 1.627468587297995e-11 1.4774190879113418e-05
181 3 -1.66032 31.9256 3.18632 -1.2 0.013326962846269198 2.8455816140720494e-06 0.9866660935997648 3.448819147415507e-12 4.097968907505553e-06
182 3 -1.69072 31.9256 5.78248 -1.2 0.0007964558654611051 5.5390155418743166e-08 0.9992028033908109 8.427496497039969e-12 6.853451408044554e-07
183 1 1.7499 30.8685 2.9896 1.2 0.1307711030612369 1.849165590370375e-05 0.869137252737027 6.508495517220794e-12 7.315253932321877e-05
184 1 4.55894 30.8272 4.4844 1.2 0.0020732789261827217 8.55649828629878e-08 0.9979254739507007 1.3351143262721824e-10 1.1614246201334204e-06
185 2 2.7476 32.892 4.4844 2.4 0.0046166935115257044 1.2333126959268604e-06 0.9953803317394655 2.3697047695046206e-10 1.74119933555257e-06
186 3 2.77235 34.5053 4.4844 -1.2 0.00013984983542822475 7.594944774633416e-08 0.999858842617725 1.1159994685174378e-11 1.2315862355941726e-06
187 3 -3.87837 31.918 4.4844 -1.2 0.0011139921838390163 9.452038770175873e-07 0.9988815050287833 5.650443257263688e-12 3.5575778456667666e-06
188 3 3.44611 32.1859 3.18632 -1.2 0.03743992727847695 1.0093583962944152e-05 0.9625311621137208 7.801053482480642e-12 1.881701603635559e-05
189 1 1.7837 30.8685 0 1.2 0.8813231472792767 4.771340266013571e-05 0.11839922807380841 1.3372426361959567e-13 0.0002299112441143596
190 3 3.41602 32.1859 5.78248 -1.2 0.0002000874919390722 1.4699206505908486e-08 0.999799731217076 1.07877914291177e-11 1.665809965198617e-07
191 1 -1.05984 30.9098 1.4948 1.2 0.8797816506753333 9.199887851164533e-05 0.11991087959033651 8.232829374365633e-13 0.00021547085499219122
192 2 0.755243 28.8449 1.4948 2.4 0.9424515253893374 6.81326100021886e-06 0.05754153164480137 1.4764844065198988e-15 1.2970486008642754e-07
193 3 0.735127 27.2317 1.4948 -1.2 0.8081439835327299 5.636217964339899e-05 0.19179196640278945 7.947868406031615e-16 7.687884837708882e-06
194 3 7.37914 29.819 1.4948 -1.2 0.9438861990861372 0.00018294718580850276 0.05586033817091776 3.927706261078635e-15 7.05155571353418e-05
195 3 0.0850649 29.5511 0.196716 -1.2 0.786858678706089 6.146441290545064e-05 0.21305031168368183 2.8498875851520265e-14 2.9545197290861754e-05
196 3 0.0543974 29.5511 2.79288 -1.2 0.2212531225088575 6.498951711380807e-05 0.7786528604922278 6.517305191106804e-13 2.9027481148749025e-05
197 1 6.94543 33.243 0 1.2 0.926846003381773 4.554750413708885e-05 0.07280679092529761 4.794003766619478e-13 0.00030165818831809685
198 1 4.23267 37.9507 1.4948 1.2 0.3128348773429126 0.00013629652725625832 0.6866041651087906 1.963874902631027e-09 0.0004246590571657047
199 2 6.02709 35.2665 1.4948 2.4 0.9977529136392022 2.2917817112956793e-05 0.0022158042019374854 5.842418621486367e-14 8.364341683376384e-06
200 3 6.09339 36.8798 1.4948 -1.2 0.4698054374173369 0.00014369375657356518 0.5298998717332528 1.1072076659043828e-11 0.00015099708177126737
201 3 2.40018 34.2925 1.4948 -1.2 0.9524841358274349 0.0004044101859141499 0.04656040689744263 6.917316204037779e-13 0.0005510470885191865
202 3 5.31645 34.5604 0.196716 -1.2 0.9879314864564239 2.7534144122100126e-05 0.011917507880703993 1.0292857669706342e-13 0.00012347151865034806
203 1 6.91449 33.243 2.9896 1.2 0.08669021931881725 1.1563964159104322e-05 0.913244968363712 5.280837972020714e-11 5.324830050225454e-05
204 3 5.291 34.5604 2.79288 -1.2 0.035837769039194015 4.709551441400981e-05 0.9640487986327767 6.589745293249261e-11 6.633674771857985e-05
205 1 -0.471101 33.2843 4.4844 1.2 0.0053688427106800465 6.426255440418248e-07 0.9946226348812064 6.015032259264378e-10 7.879181071122577e-06
206 2 -2.26307 35.9684 4.4844 2.4 0.00036669469189121173 4.4326024781347595e-07 0.999630035039337 2.8051322116222405e-09 2.8242033965861477e-06
207 3 -2.33122 34.3552 4.4844 -1.2 0.0001331335398939099 1.0227234446949757e-07 0.9998659383067685 1.0745995197378828e-11 8.258702439412239e-07
208 3 1.36549 36.9425 4.4844 -1.2 0.00020401409275732626 5.497787245477166e-07 0.9997920339491176 6.830636897698818e-11 3.4021110942700907e-06
209 3 -1.52658 36.6746 3.18632 -1.2 0.008084676975659576 4.012533863148538e-06 0.9919016000339707 9.14108326737922e-11 9.710365096150361e-06
210 3 -1.55122 36.6746 5.78248 -1.2 6.52592870795572e-05 1.0860554216508807e-08 0.9999345283570827 5.285218915940707e-11 2.01442427516309e-07
211 1 1.882 35.6175 2.9896 1.2 0.06370837922896863 1.3346769554426375e-05 0.9362175235960042 1.6540959248563086e-10 6.075024006629669e-05