ITEM: TIMESTEP
14600
ITEM: NUMBER OF ATOMS
10500
ITEM: BOX BOUNDS xy xz yz pp pp pp
0	15.2977	5.09925
0	118.725	0
0	89.688	0
ITEM: ATOMS id type xu yu zu q pCrystal pDisloC pSF pDisloB pDisloA
1 1 6.2404 -6.37941e-06 0 1.2 4.474373848995898e-16 3.1291530515029734e-12 0.9999997032162341 2.967534668904167e-07 2.7172366038095342e-11
2 1 3.46349 4.70768 1.4948 1.2 3.338806337474901e-10 2.688105043782362e-08 0.9999998858758014 8.674053916810984e-08 1.6873041490436604e-10
3 2 5.2885 2.02354 1.4948 2.4 2.6404035499429596e-13 5.686456414592844e-10 0.9999999706576976 2.8763418714407015e-08 9.977323473044363e-12
4 3 5.33628 3.63678 1.4948 -1.2 3.679074199882128e-10 3.128730202787535e-08 0.9999999507437435 1.1490640457444475e-08 6.110412555899433e-09
5 3 1.67294 1.04952 1.4948 -1.2 2.467663629210334e-13 1.2635768913528308e-09 0.9999996414859641 3.568426578656075e-07 4.07549808817427e-10
6 3 4.59532 1.31737 0.196716 -1.2 2.0979238384027884e-14 3.566175410065251e-10 0.9999998686250622 1.307780186794556e-07 2.4027412215446e-10
7 1 6.18956 -6.37941e-06 2.9896 1.2 4.107149297257495e-16 9.138662185902347e-11 0.9999958645346642 4.1348771390810875e-06 4.968162179315005e-10
8 3 4.55118 1.31737 2.79288 -1.2 2.8656589931193e-16 8.784534380721484e-12 0.9999971300458385 2.8699015077752333e-06 4.387503239341312e-11
9 1 -1.20682 0.0413099 4.4844 1.2 1.388674071288803e-15 5.948064135599654e-11 0.9999508751347229 4.9124576342002104e-05 2.2945826044032727e-10
10 2 -3.0337 2.72544 4.4844 2.4 5.035443006490073e-12 3.59969663267633e-08 0.999967289484805 3.266507666568412e-05 9.436525287628604e-09
11 3 -3.08099 1.11221 4.4844 -1.2 3.248003784259075e-15 1.543951632604042e-10 0.9999808260714265 1.9173555778731862e-05 2.1839938997908904e-10
12 3 0.582463 3.69946 4.4844 -1.2 6.8742611822254765e-12 8.481142517480035e-10 0.9999872176251442 1.2775738980795746e-05 5.780885939396325e-09
13 3 -2.29524 3.43162 3.18632 -1.2 9.185796189830053e-11 1.4761097551783833e-08 0.9999993523951326 6.279013308211747e-07 4.8505865346588615e-09
14 3 -2.34216 3.43162 5.78248 -1.2 4.204374878557061e-12 3.039566068912225e-10 0.9999207723577633 7.922398809172697e-05 3.345987118800935e-09
15 1 1.12778 2.37449 2.9896 1.2 3.83939898265714e-13 1.125486361296458e-09 0.9999890354346939 1.0963185604557902e-05 2.5383259947716363e-10
16 1 3.92855 2.33318 4.4844 1.2 9.708261054523339e-15 4.780355778923051e-11 0.9998861151978828 0.00011388450763951335 2.466678023918809e-10
17 2 2.09341 4.39804 4.4844 2.4 2.6303028809747497e-12 4.763446423472407e-09 0.999985039573017 1.4955317554139642e-05 3.4334724816984683e-10
18 3 2.09991 6.01128 4.4844 -1.2 3.2401722473718407e-09 1.2725763590402156e-08 0.9999999484793576 2.8610338652941387e-08 6.944362784660032e-09
19 3 -4.52137 3.42402 4.4844 -1.2 1.3399621193185016e-12 1.128647118505299e-09 0.9999789191843459 2.1067896841122613e-05 1.1788825694659478e-08
20 3 2.80834 3.69187 3.18632 -1.2 3.6283795968471544e-12 6.923216252301094e-10 0.99999986145428 1.3764412815979282e-07 2.05644969498466e-10
21 1 1.17857 2.37449 0 1.2 1.4203786729784354e-14 2.7549522981162004e-10 0.9999992674609485 7.321054596355007e-07 1.5807820132114098e-10
22 3 2.76143 3.69187 5.78248 -1.2 1.341625867757893e-13 2.739938181945199e-11 0.9999344748781619 6.552419802794362e-05 8.962800147046867e-10
23 1 -1.67381 2.41581 1.4948 1.2 1.5585171259048243e-10 2.559273889593299e-08 0.9999967077453868 3.262368260233234e-06 4.13776378673823e-09
24 2 0.16286 0.350945 1.4948 2.4 2.2989300546816333e-13 1.0199734542396549e-09 0.9999990704408276 9.283838720823196e-07 1.5509416873297025e-10
25 3 0.15972 -1.26229 1.4948 -1.2 8.201975493653439e-12 1.595906647824843e-08 0.9999997595596573 2.2058081344000738e-07 3.892258837366068e-09
26 3 6.77654 1.32496 1.4948 -1.2 1.2746729873170161e-12 4.256432110066892e-09 0.9999998992519801 9.273743193881853e-08 3.752881436338779e-09
27 3 -0.508028 1.05712 0.196716 -1.2 4.930657250900108e-14 1.1748876110739552e-09 0.999999589148131 4.0897036883295134e-07 7.065582885759259e-10
28 3 -0.552171 1.05712 2.79288 -1.2 6.61193304195714e-14 4.060215408961736e-10 0.999997006589059 2.9923075861167088e-06 6.972684178105218e-10
29 1 6.31713 4.74899 0 1.2 3.123227004511324e-10 5.761704932717619e-08 0.9999998884439156 5.259743584775203e-08 1.0292701372350079e-09
30 1 3.54847 9.45668 1.4948 1.2 3.031996600062394e-05 4.217532258453282e-07 0.9999691657566281 1.6985520691380245e-11 9.250715635267643e-08
31 2 5.36879 6.77254 1.4948 2.4 1.9184251343274354e-06 4.528954445873986e-06 0.9999934364839297 1.7007902870071212e-10 1.1596640977312191e-07
32 3 5.41937 8.38578 1.4948 -1.2 0.0007478062754467187 7.704440574309815e-05 0.9991706211596528 3.3723486756139215e-13 4.528158820950922e-06
33 3 1.75158 5.79852 1.4948 -1.2 4.275931219311937e-06 1.004550123700509e-05 0.9999852304529097 1.0725907875644043e-10 4.4800738178204363e-07
34 3 4.67421 6.06637 0.196716 -1.2 3.204039017037156e-08 4.4747594355251386e-07 0.9999995138557596 5.231319010057215e-11 6.575599275835198e-09
35 1 6.26654 4.74899 2.9896 1.2 1.8293401356198567e-10 1.89478676400304e-08 0.9999986836676977 1.2889708731421376e-06 8.230629179589e-09
36 3 4.63043 6.06637 2.79288 -1.2 2.9600326178094294e-08 1.3701177546546254e-07 0.9999998147383197 2.9520748470501606e-09 1.5697508969393174e-08
37 1 -1.12976 4.79031 4.4844 1.2 2.395400873988431e-10 1.3219827322496612e-09 0.9999955012261394 4.496226069042334e-06 9.862731655597348e-10
38 2 -2.9517 7.47444 4.4844 2.4 6.689517024533312e-09 1.1621078668932276e-07 0.9999969132996999 6.308319911892246e-07 2.332968006608454e-06
39 3 -3.00198 5.86121 4.4844 -1.2 2.2062115713896125e-10 8.351894160636133e-10 0.9999998893357035 1.0715530183069041e-07 2.4531791716787893e-09
40 3 0.666315 8.44846 4.4844 -1.2 9.368744384362376e-08 1.498145764826231e-07 0.9999992203656715 8.491530098863166e-10 5.352831525405623e-07
41 3 -2.21213 8.18062 3.18632 -1.2 3.88555306357262e-07 9.563893657536165e-08 0.9999994186667875 8.896510793263711e-11 9.705000878324045e-08
42 3 -2.25864 8.18062 5.78248 -1.2 2.2711970439758726e-08 4.474647780262868e-09 0.9999997598512356 1.58180425069263e-08 1.9714410156745326e-07
43 1 1.20893 7.12349 2.9896 1.2 1.1614989728102061e-07 1.795036252474189e-07 0.999999678300947 4.740089245513249e-09 2.1305440906743756e-08
44 1 4.00982 7.08218 4.4844 1.2 2.0869521442539054e-08 1.4850898123553122e-08 0.9999998436425537 7.774881195106156e-08 4.288821938599299e-08
45 2 2.17861 9.14704 4.4844 2.4 1.1622182934334994e-06 6.762889561354933e-07 0.9999960399939418 9.856728633003029e-09 2.111642085699037e-06
46 3 2.18828 10.7603 4.4844 -1.2 4.43631707554997e-06 9.70157271981727e-08 0.9999951759643692 1.6437801264565134e-11 2.906863850999254e-07
47 3 -4.43805 8.17302 4.4844 -1.2 4.94358404924402e-08 9.064918719217307e-08 0.9999991884952688 1.190814917771664e-09 6.702288872190952e-07
48 3 2.89193 8.44087 3.18632 -1.2 1.92498977397207e-06 2.2355879491404703e-07 0.9999976335038816 1.4046403196107234e-10 2.1780708767013968e-07
49 1 1.25915 7.12349 0 1.2 2.285449413280206e-07 3.467509975625476e-07 0.9999994197192996 5.584543080268169e-10 4.426314222134478e-09
50 3 2.84547 8.44087 5.78248 -1.2 7.74967017908383e-08 1.4824454141807106e-08 0.9999995750336602 1.5589004978113946e-08 3.170561842744742e-07
51 1 -1.59284 7.16481 1.4948 1.2 1.0620109798987658e-06 6.235624150115654e-07 0.9999982749747814 5.554286699768902e-10 3.889639113019686e-08
52 2 0.240329 5.09994 1.4948 2.4 1.6219648540050401e-09 1.2375397586719606e-07 0.9999998693357753 5.1789540778637905e-09 1.0933397202234273e-10
53 3 0.234538 3.48671 1.4948 -1.2 2.8471494506879328e-11 1.3112700859444763e-08 0.9999999635408734 2.066781592779141e-08 2.6501338638019674e-09
54 3 6.85564 6.07396 1.4948 -1.2 5.226143227860785e-07 2.9303562826204804e-06 0.999996138234461 2.2373941513155806e-10 4.0857119082069175e-07
55 3 -0.429565 5.80612 0.196716 -1.2 4.713117316238279e-09 7.515087444224194e-08 0.9999999188346924 1.8497992480781435e-10 1.1163381034166349e-09
56 3 -0.473377 5.80612 2.79288 -1.2 2.792929686088391e-09 1.0523374659823397e-08 0.9999999707452365 1.26031517804486e-08 3.3353133736361156e-09
57 1 6.40169 9.49799 0 1.2 6.719374210917335e-05 1.778711055470921e-06 0.9999308726771591 1.9041066914551667e-12 1.5486777646346479e-07
58 1 3.64209 14.2057 1.4948 1.2 0.0002744459291625127 8.391051956039356e-07 0.999724459634195 9.1508712281279e-13 2.553305260871017e-07
59 2 5.45748 11.5215 1.4948 2.4 0.0013636058620436478 1.3016211878591415e-05 0.9986232401275893 4.56348298143317e-14 1.3779844258537242e-07
60 3 5.51101 13.1348 1.4948 -1.2 0.017706517081903208 0.00013186547222335964 0.9821536686575638 1.2659629910298608e-14 7.948788302110167e-06
61 3 1.83851 10.5475 1.4948 -1.2 0.0037446328124266463 1.5474234669763e-05 0.9962378313924738 1.632425509286335e-14 2.0615604165081747e-06
62 3 4.7611 10.8154 0.196716 -1.2 0.0006899421097725541 1.4310120757025573e-05 0.9992951470487774 5.301884592097673e-14 6.007206343147999e-07
63 1 6.35203 9.49799 2.9896 1.2 2.6795215909206638e-05 2.047537979467744e-06 0.9999705716541774 1.059488745516706e-10 5.854859889877005e-07
64 3 4.71833 10.8154 2.79288 -1.2 0.000108636262869533 2.0671091174878e-06 0.9998884688804801 3.687849119272645e-12 8.277438442676746e-07
65 1 -1.0438 9.53931 4.4844 1.2 1.646670851345232e-06 8.11717385775266e-08 0.9999979713502654 5.751774488737969e-09 2.950553664255844e-07
66 2 -2.8604 12.2234 4.4844 2.4 6.550226153645504e-06 1.2215723064185798e-06 0.9999907642133825 9.7267092972867e-10 1.4630154825294967e-06
67 3 -2.91391 10.6102 4.4844 -1.2 8.105114356449126e-06 3.0499765390590836e-07 0.9999910197727139 1.5414211242612112e-11 5.700998563799865e-07
68 3 0.7596 13.1975 4.4844 -1.2 1.930280856501629e-05 1.4248907912965702e-06 0.9999772467680623 3.763910811277143e-11 2.0254949486048622e-06
69 3 -2.12001 12.9296 3.18632 -1.2 9.199350662556238e-05 1.1988127689086677e-06 0.9999062045245506 2.7728053341178373e-12 6.03153278775357e-07
70 3 -2.16532 12.9296 5.78248 -1.2 3.5262874566123415e-05 3.569078780215011e-07 0.9999593002309195 4.853600607903428e-10 5.079501281516595e-06
71 1 1.29891 11.8725 2.9896 1.2 7.782904778146852e-05 1.2319814415508456e-06 0.9999203397712386 1.3927249599476895e-11 5.991856044433811e-07
72 1 4.10033 11.8312 4.4844 1.2 2.2943202816604654e-05 7.866846956706244e-08 0.9999758325279849 2.227558960967431e-09 1.1433731640049964e-06
73 2 2.27333 13.896 4.4844 2.4 0.00014299054874123841 2.859998061407161e-06 0.9998513750980795 2.1219373501173406e-10 2.7741429306571797e-06
74 3 2.28634 15.5093 4.4844 -1.2 0.00016165678614270447 8.868878355972156e-07 0.9998364793382384 5.662167269754147e-13 9.769872175888495e-07
75 3 -4.34533 12.922 4.4844 -1.2 5.944438937242442e-06 3.861669067700262e-07 0.99999205784953 6.456677724785084e-11 1.6114800573856381e-06
76 3 2.98455 13.1899 3.18632 -1.2 6.460238405783479e-05 1.05550025004129e-06 0.9999337750859965 4.0805427503621366e-12 5.670256189255917e-07
77 1 1.34779 11.8725 0 1.2 0.00030246813872418347 3.386789993542833e-06 0.9996934196875963 1.2973671080996735e-12 7.253823821193821e-07
78 3 2.93934 13.1899 5.78248 -1.2 2.8273851016985697e-05 1.208519703493596e-07 0.9999696357791968 3.2212735445748647e-10 1.9691956898120273e-06
79 1 -1.50344 11.9138 1.4948 1.2 0.00026964301542868043 1.2884820488760679e-06 0.9997287205737455 8.56303458355587e-13 3.479279275982162e-07
80 2 0.326006 9.84894 1.4948 2.4 0.0003110015170846659 6.011085851031422e-06 0.9996829139247252 1.0424483396782907e-13 7.347223452233363e-08
81 3 0.317364 8.23571 1.4948 -1.2 0.0002218480001098526 1.1787251307580236e-05 0.99976557617664 2.825741908726408e-12 7.885691230125116e-07
82 3 6.94307 10.823 1.4948 -1.2 0.0026215489853980574 3.055054072029718e-05 0.9973462995841272 1.5453921644083883e-14 1.6008897326483203e-06
83 3 -0.343122 10.5551 0.196716 -1.2 0.0002560125741682576 5.17547079152317e-06 0.9997386353909358 5.185713666662001e-14 1.7656405533278488e-07
84 3 -0.385966 10.5551 2.79288 -1.2 4.404853205571413e-05 1.0584283331687057e-06 0.9999544237365547 1.0035435686183997e-11 4.692930165648699e-07
85 1 6.49448 14.247 0 1.2 0.0015686153843872737 2.5210555292237923e-06 0.9984280284690963 9.856026980607893e-14 8.350908951808687e-07
86 1 3.74457 18.9547 1.4948 1.2 0.00011702238435591039 4.004063306866637e-07 0.9998825010901027 4.0372668732870085e-13 7.611880242937621e-08
87 2 5.55495 16.2705 1.4948 2.4 0.0018411675589159566 1.5136024928939213e-05 0.9981436715039639 2.921693812696327e-15 2.4912194414369706e-08
88 3 5.6115 17.8838 1.4948 -1.2 0.014195724577100693 0.00012151503885342795 0.985681039057724 1.6982489198967842e-15 1.7213263260140137e-06
89 3 1.93416 15.2965 1.4948 -1.2 0.03238245700651225 6.148195366743794e-05 0.9675537182943387 6.645913072606592e-16 2.3427454780357076e-06
90 3 4.85636 15.5644 0.196716 -1.2 0.019095113348388468 5.953867801208631e-05 0.9808437627364478 2.8426883953876797e-15 1.5852371510260739e-06
91 1 6.44662 14.247 2.9896 1.2 0.00021098744765259098 1.6704914643750796e-06 0.9997866469404052 4.357680972997545e-12 6.951161159846346e-07
92 3 4.81537 15.5644 2.79288 -1.2 0.0012307761927926447 1.2430043183324214e-05 0.9987551148630438 4.734508459084173e-13 1.6789005119812542e-06
93 1 -0.948271 14.2883 4.4844 1.2 5.530118489035362e-05 3.381987245168566e-07 0.999942529754583 1.2100746011099523e-09 1.8296517262133484e-06
94 2 -2.75928 16.9724 4.4844 2.4 0.0002699135133423675 5.349221009692911e-06 0.9997236980725828 3.995989078517342e-11 1.0391531068478934e-06
95 3 -2.81617 15.3592 4.4844 -1.2 4.476478138181928e-05 9.408221838357718e-07 0.9999529823767974 1.5495089238426935e-12 1.3120180941734422e-06
96 3 0.862762 17.9465 4.4844 -1.2 7.95944229723791e-05 3.01578739059638e-06 0.9999154784548737 3.99374755756291e-12 1.9113307675367094e-06
97 3 -2.0185 17.6786 3.18632 -1.2 0.00044126218776889423 2.8049752559201746e-06 0.9995554423600849 1.8862401791964375e-13 4.904767053982719e-07
98 3 -2.06164 17.6786 5.78248 -1.2 0.0006586372598448765 8.043241742161437e-07 0.9993326085724122 5.400371128812796e-11 7.94978956248207e-06
99 1 1.39817 16.6215 2.9896 1.2 0.0005107538587481907 3.1952092117240505e-06 0.9994849200540612 1.5727696725758194e-12 1.1308764049012107e-06
100 1 4.20062 16.5802 4.4844 1.2 5.3391373085905077e-05 1.9247972966018135e-07 0.9999454323287279 3.438560575736781e-10 9.83474600837697e-07
101 2 2.37796 18.645 4.4844 2.4 0.000121211541248789 1.2653679005511908e-06 0.9998773375539545 1.5032307588769953e-11 1.855218628693299e-07
102 3 2.39434 20.2583 4.4844 -1.2 0.00017365738703887124 4.59473331625876e-07 0.9998254862411295 9.097729587464718e-14 3.968984114700395e-07
103 3 -4.24274 17.671 4.4844 -1.2 5.715598572443055e-05 1.5299865032576975e-06 0.9999403173943647 6.178452407390221e-12 9.966272293382924e-07
104 3 3.08659 17.9389 3.18632 -1.2 0.00017036417861901573 2.2886451677352856e-06 0.9998269887053235 4.969147328695131e-13 3.584703903711311e-07
105 1 1.44478 16.6215 0 1.2 0.0028757601874218964 2.057028448691776e-06 0.9971214032752375 7.440948112265884e-14 7.795088111309338e-07
106 3 3.0436 17.9389 5.78248 -1.2 8.939993470866041e-05 1.185929437317451e-07 0.9999095557510916 3.350179184497761e-11 9.256877483393872e-07
107 1 -1.40524 16.6628 1.4948 1.2 0.0010841881804773232 2.187584937759093e-06 0.9989131724393444 5.526737784129122e-14 4.517951816812841e-07
108 2 0.420358 14.5979 1.4948 2.4 0.0029646922297967117 2.076872432333884e-05 0.9970144577836844 1.2029733011385932e-14 8.126218752975962e-08
109 3 0.408732 12.9847 1.4948 -1.2 0.010228606512862243 6.375511401578777e-05 0.9897054694126295 7.791866114111894e-15 2.1689604781775507e-06
110 3 7.03923 15.572 1.4948 -1.2 0.023542447983757837 0.00010006276151168782 0.9763550796806488 9.946420378017611e-16 2.4095740855777257e-06
111 3 -0.248332 15.3041 0.196716 -1.2 0.004281326567153539 2.8730698449831802e-05 0.9956893307344347 8.075667439238946e-15 6.119999533137822e-07
112 3 -0.289436 15.3041 2.79288 -1.2 0.0011683017040545363 1.274173098565772e-05 0.9988174413902519 5.97946811138954e-13 1.5151741129924605e-06
113 1 6.59566 18.996 0 1.2 0.0005827118094955906 3.833541954968295e-07 0.9994167927838699 3.89377289213702e-15 1.1205242967598308e-07
114 1 3.85574 23.7037 1.4948 1.2 0.0007510484790142521 8.698872326005464e-07 0.9992478627770305 2.2701917607303448e-13 2.1885649167505836e-07
115 2 5.66125 21.0195 1.4948 2.4 0.002998711567018206 7.2706710714183795e-06 0.9969940105712007 1.6867933084915042e-15 7.190702935733368e-09
116 3 5.72074 22.6328 1.4948 -1.2 0.027515340469056883 9.623345981351597e-05 0.972387028431556 1.6613438253036886e-15 1.3976395674482179e-06
117 3 2.03867 20.0455 1.4948 -1.2 0.048704009664574166 8.232267042752756e-05 0.9512118865515282 1.8686468477895394e-16 1.7811134751149287e-06
118 3 4.96004 20.3134 0.196716 -1.2 0.01039436365455868 1.6859477654883036e-05 0.9895884351804675 7.380591490477643e-16 3.416873209761317e-07
119 1 6.55057 18.996 2.9896 1.2 0.0002632836404205955 1.2442228046403912e-06 0.9997350821385746 6.27726209864549e-13 3.8999757180436133e-07
120 3 4.92172 20.3134 2.79288 -1.2 0.0007926263174962898 9.303152517085564e-06 0.9991973345799644 1.5292866135391273e-13 7.359498690688068e-07
121 1 -0.84282 19.0373 4.4844 1.2 5.584315444441444e-05 2.1045294682865906e-07 0.9999432278604727 1.5445633321656982e-10 7.183776852492168e-07
122 2 -2.64823 21.7214 4.4844 2.4 0.00027251372489960654 6.804388327247486e-07 0.9997267311488426 4.036625463987759e-12 7.468339506689671e-08
123 3 -2.70847 20.1082 4.4844 -1.2 4.4076059186361815e-05 2.0409560483347393e-07 0.9999556095424581 1.0334882376325225e-13 1.1030264624880344e-07
124 3 0.97581 22.6955 4.4844 -1.2 0.00038370867736531067 3.1587748192225113e-06 0.9996110642537007 2.7941227043701856e-12 2.068291317735485e-06
125 3 -1.9076 22.4276 3.18632 -1.2 0.00044678696343509295 1.1211392246121434e-06 0.9995519562201858 6.46137111840548e-14 1.3567709415963548e-07
126 3 -1.9475 22.4276 5.78248 -1.2 0.00040644743550269743 1.2162556299881903e-07 0.9995924462802714 8.505969797354784e-12 9.84650151065851e-07
127 1 1.50678 21.3705 2.9896 1.2 0.0005959370755240394 1.2366254955511205e-06 0.9994022376027951 4.006632505709673e-13 5.886957825130413e-07
128 1 4.31086 21.3292 4.4844 1.2 2.4288848862906783e-05 3.634875475335571e-08 0.9999755704408598 5.7403236851102945e-11 1.0430412564239367e-07
129 2 2.49243 23.394 4.4844 2.4 0.0002390334651073293 7.187348142394095e-07 0.9997601581038715 9.585812962964356e-12 8.968661647283932e-08
130 3 2.51204 25.0073 4.4844 -1.2 0.00011679697375425628 2.4489753303810984e-07 0.9998825436696882 2.6832542718694297e-13 4.144587602937507e-07
131 3 -4.13026 22.42 4.4844 -1.2 7.444282798860109e-05 9.25139335499135e-07 0.9999242710835282 1.39185960293603e-12 3.6094775627828e-07
132 3 3.19799 22.6879 3.18632 -1.2 0.0005849315225090999 2.6263637188126064e-06 0.9994120971757268 1.2308388162823685e-13 3.449379210483759e-07
133 1 1.5501 21.3705 0 1.2 0.001702862924527753 6.589946461289917e-07 0.9982962478607655 9.595232614290119e-15 2.3022005065174437e-07
134 3 3.1583 22.6879 5.78248 -1.2 0.00027613925228426396 6.52921174896385e-08 0.9997234642790945 6.316061648671032e-12 3.311701899633748e-07
135 1 -1.29822 21.4118 1.4948 1.2 0.0013925894363904481 1.4426859507000503e-06 0.998605697187837 1.6793863478916312e-14 2.7068980525297267e-07
136 2 0.523568 19.3469 1.4948 2.4 0.0010503427223522309 7.4757819748216225e-06 0.9989421780002404 2.3864769614835277e-15 3.4954289295707112e-09
137 3 0.508934 17.7337 1.4948 -1.2 0.006631529633858783 7.200067310997035e-05 0.9932958608039736 1.5591498827868075e-15 6.088890558421991e-07
138 3 7.14425 20.321 1.4948 -1.2 0.027770006906823377 0.00011765635931127085 0.972111159033269 2.2556079411623106e-16 1.177700590369983e-06
139 3 -0.145107 20.0531 0.196716 -1.2 0.0029428775525107346 1.7309098360339343e-05 0.997039674463833 1.3913786834336297e-15 1.3888529490410804e-07
140 3 -0.183601 20.0531 2.79288 -1.2 0.0030895174493698104 2.5120418727160404e-05 0.9968842328564783 6.090196819539133e-14 1.1292753601186711e-06
141 1 6.70502 23.745 0 1.2 0.008237337730262029 2.246758492948723e-06 0.9917592912453422 5.041762804749433e-15 1.1242658932159858e-06
142 1 3.97493 28.4527 1.4948 1.2 0.1298726524804119 1.3038401484256669e-05 0.8700999002069322 1.6451557900480075e-12 1.4408909519374503e-05
143 2 5.77602 25.7685 1.4948 2.4 0.2263762724470652 3.8406118638200146e-05 0.7735851116123665 8.523807331929045e-15 2.0982192586636068e-07
144 3 5.83821 27.3818 1.4948 -1.2 0.681707546218955 0.00010852368122628524 0.31816853255818633 3.16548786111202e-15 1.539754163601675e-05
145 3 2.15175 24.7945 1.4948 -1.2 0.755799526903502 0.00031707900945944197 0.24386765065672034 1.9273299149636667e-16 1.5743430324800206e-05
146 3 5.07184 25.0624 0.196716 -1.2 0.27503532145147325 6.8396882751553e-05 0.7248893182357511 4.094087904591012e-15 6.963430021758425e-06
147 1 6.66374 23.745 2.9896 1.2 0.0009697622429859978 1.4614293165035225e-06 0.9990280958441169 3.966512374110097e-13 6.804831785583186e-07
148 3 5.03707 25.0624 2.79288 -1.2 0.0022872133809004225 8.487376919143436e-06 0.9977031891491713 1.7615111363999917e-13 1.1100928380517565e-06
149 1 -0.727559 23.7863 4.4844 1.2 8.121342520190961e-05 2.245568399983178e-07 0.999917965382941 5.256252462645687e-11 5.965824598177127e-07
150 2 -2.5277 26.4704 4.4844 2.4 0.00039707619082685085 3.1673737351574625e-07 0.9996025259991776 1.7266878106628796e-11 8.105535460800073e-08
151 3 -2.59107 24.8572 4.4844 -1.2 9.05860129273758e-05 2.7655635179742454e-07 0.9999088234484677 1.258557123944563e-13 3.1398212991639574e-07
152 3 1.09817 27.4445 4.4844 -1.2 0.0025260950060553766 3.930048191102204e-06 0.9974640887899753 5.1527668690843095e-12 5.8861506240464006e-06
153 3 -1.78784 27.1766 3.18632 -1.2 0.001716276060713968 9.852403150938495e-07 0.9982822784173223 3.577238253298576e-13 4.602812910264882e-07
154 3 -1.82343 27.1766 5.78248 -1.2 0.0005663182492399161 8.210233136162714e-08 0.9994329163618452 8.167343359653694e-12 6.832784130506978e-07
155 1 1.62435 26.1195 2.9896 1.2 0.009079666756797984 3.00231682734764e-06 0.990914416770145 4.5181329353705264e-13 2.9141557810666767e-06
156 1 4.43064 26.0782 4.4844 1.2 0.0001446300454349493 5.0467847863418125e-08 0.999855131854346 4.1806945766523526e-11 1.875905664300155e-07
157 2 2.61607 28.143 4.4844 2.4 0.001020384933562872 6.928227661753832e-07 0.9989784823774275 8.411686254580073e-11 4.397821262964238e-07
158 3 2.63853 29.7563 4.4844 -1.2 0.00014367914682602325 1.4390086445443383e-07 0.9998550341026369 1.6483949470257086e-12 1.1428480175502748e-06
159 3 -4.00841 27.169 4.4844 -1.2 0.0004747814814394152 8.343408780078246e-07 0.9995238116817408 8.678655800142586e-13 5.724950754765824e-07
160 3 3.3182 27.4369 3.18632 -1.2 0.007101896802967424 6.034657043575665e-06 0.9928887999693212 4.5050841248998584e-13 3.268570210713253e-06
161 1 1.66335 26.1195 0 1.2 0.07505670924823367 1.232889575286408e-05 0.9249226411368722 2.6540121405248645e-14 8.320719113646089e-06
162 3 3.28288 27.4369 5.78248 -1.2 0.00010814565252325788 1.8674584889972938e-08 0.999891636144316 1.0759515726162282e-11 1.9951780976763446e-07
163 1 -1.18278 26.1608 1.4948 1.2 0.06946471311718587 1.8273591825742208e-05 0.9305090672876412 6.651774646557797e-14 7.946003280395603e-06
164 2 0.635424 24.0959 1.4948 2.4 0.01354807278228973 7.381275996752797e-06 0.9864445402140855 2.624076375527999e-15 5.727627264531579e-09
165 3 0.617906 22.4827 1.4948 -1.2 0.032215940079944785 7.636751469989731e-05 0.9677068719127353 8.404633813939998e-16 8.204926202734819e-07
166 3 7.25781 25.07 1.4948 -1.2 0.3752099316478676 0.00027736631718160517 0.6245028667274571 4.776408821209772e-16 9.83530749274866e-06
167 3 -0.0337363 24.8021 0.196716 -1.2 0.09331915697454657 4.45493484273306e-05 0.9066345525797742 1.941340433810018e-15 1.7410972534677117e-06
168 3 -0.0687235 24.8021 2.79288 -1.2 0.007966600137808795 2.3845404922561013e-05 0.9920075094022428 1.82981132583772e-13 2.045054847480592e-06
169 1 6.82195 28.494 0 1.2 0.2516234878546319 2.7141246993458357e-05 0.7483198533784057 1.1989871590821597e-13 2.9517519850370923e-05
170 1 4.10106 33.2017 1.4948 1.2 0.6568124255865794 0.00019626268997800819 0.34248620575382455 1.695661795706185e-10 0.0005051058000466646
171 2 5.89839 30.5175 1.4948 2.4 0.9882397690436582 1.087697722756407e-05 0.011748599839013425 5.071057423476761e-15 7.541400912721e-07
172 3 5.96289 32.1308 1.4948 -1.2 0.9050234037379336 5.873052900746793e-05 0.09487801564483506 1.1295524815045792e-13 3.9850088113826836e-05
173 3 2.27266 29.5435 1.4948 -1.2 0.9748038998039225 0.00011430769421174523 0.025025410692289585 2.7481207624255915e-15 5.6381809569499947e-05
174 3 5.19102 29.8114 0.196716 -1.2 0.9717547939308605 1.3078516687537388e-05 0.028217450391145607 3.868654770955785e-15 1.4677161296599275e-05
175 1 6.78546 28.494 2.9896 1.2 0.01695738932451426 3.107836869011646e-06 0.9830337029343362 2.8083496705211224e-12 5.799901471465442e-06
176 3 5.16061 29.8114 2.79288 -1.2 0.033678195229527155 2.4131948796112237e-05 0.9662836117561344 3.6971226650883025e-12 1.406106184774672e-05
177 1 -0.603205 28.5353 4.4844 1.2 0.00034007969751544473 2.456830628594361e-07 0.9996581616284352 1.7633433137280635e-10 1.5128146575896455e-06
178 2 -2.39877 31.2194 4.4844 2.4 0.000880987912494468 6.589727548838873e-07 0.9991175737176151 1.3998642184764596e-10 7.792571436316209e-07
179 3 -2.46483 29.6062 4.4844 -1.2 2.6396400960191237e-05 5.679919518439478e-08 0.9999733742247054 1.6545016184420105e-12 1.7257349138288544e-07
180 3 1.22864 32.1935 4.4844 -1.2 0.002119501948297592 4.200187664151805e-06 0.997866048469192 2.8441212200179805e-11 1.0249366409357158e-05
181 3 -1.66032 31.9256 3.18632 -1.2 0.005513392339050868 2.2013244492528186e-06 0.994482516761368 5.0172554704870865e-12 1.889570111759888e-06
182 3 -1.69072 31.9256 5.78248 -1.2 0.0002426974213483146 3.285619281395634e-08 0.9997569397727213 2.0711976511399317e-11 3.299290266320651e-07
183 1 1.7499 30.8685 2.9896 1.2 0.06011006366987783 9.067242163414777e-06 0.9398547215341702 6.627464458898993e-12 2.61475471604081e-05
184 1 4.55894 30.8272 4.4844 1.2 0.0007141765595909198 8.125085376336903e-08 0.9992846725194283 2.136414024736758e-10 1.0694564892713548e-06
185 2 2.7476 32.892 4.4844 2.4 0.001121182293297887 7.283689564406417e-07 0.998877357626405 4.003303160856075e-10 7.313110084027413e-07
186 3 2.77235 34.5053 4.4844 -1.2 4.899299246706945e-05 6.13493633677256e-08 0.9999502512908391 2.035396232707983e-11 6.943469694856376e-07
187 3 -3.87837 31.918 4.4844 -1.2 0.00034305307527460215 6.952808587387773e-07 0.99965404151199 1.5443341066741426e-11 2.210116427774109e-06
188 3 3.44611 32.1859 3.18632 -1.2 0.02048325539631576 7.151418439173386e-06 0.9794984714697561 1.127783755660933e-11 1.1121704216422227e-05
189 1 1.7837 30.8685 0 1.2 0.7568130742757687 6.581359768956904e-05 0.242889025504886 5.409321696166057e-13 0.00023208662111187864
190 3 3.41602 32.1859 5.78248 -1.2 2.8706960458279707e-05 9.898472937231378e-09 0.9999711530526996 4.2321888213088886e-11 1.3004605333489788e-07
191 1 -1.05984 30.9098 1.4948 1.2 0.7722868226632303 0.00012622407110092008 0.22738224390858297 1.9346236261828398e-12 0.00020470935514763544
192 2 0.755243 28.8449 1.4948 2.4 0.894040568657448 1.0481436541126168e-05 0.10594878804546445 3.370210622574941e-15 1.6186054812175805e-07
193 3 0.735127 27.2317 1.4948 -1.2 0.7218388925106053 0.00010742561051507888 0.27804405305428515 2.2572367896997814e-15 9.628824589937013e-06
194 3 7.37914 29.819 1.4948 -1.2 0.9359479737798366 0.00018771679374656472 0.06379200188215256 8.497184236816993e-15 7.230754425610383e-05
195 3 0.0850649 29.5511 0.196716 -1.2 0.7598947613969144 8.916228121555675e-05 0.2399872537368601 4.0366911693824576e-14 2.882258497396675e-05
196 3 0.0543974 29.5511 2.79288 -1.2 0.10379352052188293 5.170729105602518e-05 0.8961368566091701 1.6413065274804501e-12 1.7915576246306494e-05
197 1 6.94543 33.243 0 1.2 0.9507531291023062 3.0541310411318677e-05 0.048997356564083 6.499409083138131e-13 0.00021897302254622847
198 1 4.23267 37.9507 1.4948 1.2 0.32421199655582805 0.00013581736442186868 0.675237350055789 2.475202876421816e-09 0.00041483354875558994
199 2 6.02709 35.2665 1.4948 2.4 0.998127757642331 1.991281443923754e-05 0.001845911391415315 8.97820564250129e-14 6.418151730062409e-06
200 3 6.09339 36.8798 1.4948 -1.2 0.505852038819979 0.00014257380289416744 0.49387159600638136 1.5678227669505013e-11 0.0001337913550613684
201 3 2.40018 34.2925 1.4948 -1.2 0.9280280432725474 0.0004936325205349447 0.07094737200554599 1.6965650355720058e-12 0.000530952199678791
202 3 5.31645 34.5604 0.196716 -1.2 0.9914019634821286 1.9055120643391307e-05 0.008494143709265526 1.348029047022712e-13 8.483768783409484e-05
203 1 6.91449 33.243 2.9896 1.2 0.04456834421569405 7.766794371056706e-06 0.9553935709787854 9.122416238652164e-11 3.0317919930798507e-05
204 3 5.291 34.5604 2.79288 -1.2 0.01430375325658809 3.209475413071957e-05 0.9856337460952034 8.161500826661251e-11 3.0405812469121394e-05
205 1 -0.471101 33.2843 4.4844 1.2 0.0026540180354950537 7.153295408582592e-07 0.9973397250644873 1.1153588411830612e-09 5.540455110884164e-06
206 2 -2.26307 35.9684 4.4844 2.4 0.00018881912990509892 3.3590581550032845e-07 0.9998095783119832 4.6350036238893766e-09 1.2620172956846371e-06
207 3 -2.33122 34.3552 4.4844 -1.2 7.433538020835781e-05 8.80404708571683e-08 0.9999249594710443 1.4999065309667392e-11 6.170932800721011e-07
208 3 1.36549 36.9425 4.4844 -1.2 9.062325131176788e-05 4.4418015107766156e-07 0.9999064161195852 1.470612719275131e-10 2.51630188953175e-06
209 3 -1.52658 36.6746 3.18632 -1.2 0.005470949820433889 3.4611476248778075e-06 0.9945192181459745 1.2758552283470486e-10 6.370758374242861e-06
210 3 -1.55122 36.6746 5.78248 -1.2 2.3160796797928346e-05 9.709122212932175e-09 0.9999767239907019 2.1627212015251363e-10 1.0528710586701564e-07
211 1 1.882 35.6175 2.9896 1.2 0.03090938680531415 1.4435714702639952e-05 0.9690303994796519 2.544440781453383e-10 4.577774589136303e-05