ITEM: TIMESTEP
11400
ITEM: NUMBER OF ATOMS
10500
ITEM: BOX BOUNDS xy xz yz pp pp pp
0	15.2977	5.09925
0	118.725	0
0	89.688	0
ITEM: ATOMS id type xu yu zu q pCrystal pDisloC pSF pDisloB pDisloA
1 1 6.2404 -6.37941e-06 0 1.2 3.393680297385445e-16 2.374388411217287e-12 0.9999997552736646 2.4469740802542664e-07 2.6559369727236315e-11
2 1 3.46349 4.70768 1.4948 1.2 6.072466943616673e-10 4.5149369107638655e-08 0.9999998439064919 1.0975787056021981e-07 5.790149284001174e-10
3 2 5.2885 2.02354 1.4948 2.4 1.7738384086124074e-13 5.500533063840991e-10 0.999999979794538 1.9638292756268785e-08 1.6943630467443787e-11
4 3 5.33628 3.63678 1.4948 -1.2 3.7692778235540754e-10 4.657448544531543e-08 0.9999999290755167 1.1941052260401551e-08 1.2032023763909685e-08
5 3 1.67294 1.04952 1.4948 -1.2 1.3397148591259452e-13 1.6165040617607233e-09 0.9999997217994651 2.758082451680518e-07 7.756572733518151e-10
6 3 4.59532 1.31737 0.196716 -1.2 7.949234951247794e-15 2.316425167613343e-10 0.9999998812174411 1.1829464560558509e-07 2.5625774658793054e-10
7 1 6.18956 -6.37941e-06 2.9896 1.2 1.377726797663691e-16 5.317255208043009e-11 0.9999979739669331 2.0247934327229985e-06 1.1864646900110479e-09
8 3 4.55118 1.31737 2.79288 -1.2 2.3362266079658583e-16 1.556516564256105e-11 0.9999954707822492 4.528935172788382e-06 2.670101226630935e-10
9 1 -1.20682 0.0413099 4.4844 1.2 5.563150990056622e-16 2.9812524030303976e-11 0.9999776344589876 2.2365079797367465e-05 4.313989836396733e-10
10 2 -3.0337 2.72544 4.4844 2.4 4.690446892478536e-12 5.3026972227259946e-08 0.9999581479654355 4.175645296334731e-05 4.254994155527138e-08
11 3 -3.08099 1.11221 4.4844 -1.2 2.280610702831301e-15 1.606635300002306e-10 0.9999812705699402 1.8728241790231175e-05 1.0276085328440415e-09
12 3 0.582463 3.69946 4.4844 -1.2 7.034994691114962e-12 1.045351840752421e-09 0.9999822239684583 1.7760770191178154e-05 1.4208964123462685e-08
13 3 -2.29524 3.43162 3.18632 -1.2 8.511491075698114e-11 1.6629754991984946e-08 0.9999995053782642 4.687326475790945e-07 9.174221239554309e-09
14 3 -2.34216 3.43162 5.78248 -1.2 3.1954220112936836e-12 3.4218497091323646e-10 0.9999523192525656 4.767252369232673e-05 7.878355280649647e-09
15 1 1.12778 2.37449 2.9896 1.2 3.047599580307329e-13 1.7482736041405097e-09 0.9999886349982825 1.136225759295937e-05 9.955408997917698e-10
16 1 3.92855 2.33318 4.4844 1.2 8.748674532395211e-15 6.275405346158508e-11 0.9998648272574853 0.00013517153789047084 1.141857806709536e-09
17 2 2.09341 4.39804 4.4844 2.4 2.5401617546840182e-12 6.565229894562584e-09 0.9999780869519717 2.1905427455623396e-05 1.052797025229876e-09
18 3 2.09991 6.01128 4.4844 -1.2 2.7866503822975327e-09 1.6418909923316798e-08 0.9999999071798314 5.018140440053745e-08 2.3433208848399822e-08
19 3 -4.52137 3.42402 4.4844 -1.2 9.737536976780051e-13 7.227825723586333e-10 0.9999783129994081 2.166908698532312e-05 1.7189852325128776e-08
20 3 2.80834 3.69187 3.18632 -1.2 3.6241542008096407e-12 1.3727890795474956e-09 0.9999997417851936 2.56168260260099e-07 6.701263626072632e-10
21 1 1.17857 2.37449 0 1.2 1.893124530942864e-14 2.956797461639355e-10 0.9999994435947583 5.559817857455029e-07 1.2775889842430408e-10
22 3 2.76143 3.69187 5.78248 -1.2 9.030830734230002e-14 2.9771357276968755e-11 0.9999479448072593 5.204868028885563e-05 6.482583416894472e-09
23 1 -1.67381 2.41581 1.4948 1.2 7.776561812796273e-11 2.729612597588616e-08 0.9999980137378346 1.9546135982010893e-06 4.27467144042561e-09
24 2 0.16286 0.350945 1.4948 2.4 1.2880380316746522e-13 1.7236990977264631e-09 0.9999991325826653 8.65305409236307e-07 3.8809178507689093e-10
25 3 0.15972 -1.26229 1.4948 -1.2 3.2841928376535147e-12 1.7956651521772998e-08 0.9999998341768186 1.4229681747027642e-07 5.566424776500816e-09
26 3 6.77654 1.32496 1.4948 -1.2 6.639391733154376e-13 4.3891614055432895e-09 0.9999999194669901 7.011419987986378e-08 6.028990040326587e-09
27 3 -0.508028 1.05712 0.196716 -1.2 3.602342011027539e-14 1.385861377964373e-09 0.9999996342683304 3.6321301795573435e-07 1.1327495630112906e-09
28 3 -0.552171 1.05712 2.79288 -1.2 1.9574567618895308e-14 2.3621086130180807e-10 0.999996685879018 3.3125833042422318e-06 1.3014533000881306e-09
29 1 6.31713 4.74899 0 1.2 4.1240247666773374e-10 6.636288761888389e-08 0.9999998668152958 6.515115640826902e-08 1.258264069676325e-09
30 1 3.54847 9.45668 1.4948 1.2 7.77156239987997e-05 1.1225043178248476e-06 0.9999208742024333 7.689039736876465e-11 2.8759235551983626e-07
31 2 5.36879 6.77254 1.4948 2.4 6.7532170568432645e-06 1.5779925808631505e-05 0.999976974982663 3.087489178133658e-10 4.915657266293095e-07
32 3 5.41937 8.38578 1.4948 -1.2 0.0014694700197513627 0.00015108397754268904 0.9983689438282511 1.2754536176003919e-12 1.0502173184876256e-05
33 3 1.75158 5.79852 1.4948 -1.2 8.091918823187342e-06 1.96586976223133e-05 0.9999710375642936 2.2193648551515903e-10 1.2115973299849474e-06
34 3 4.67421 6.06637 0.196716 -1.2 8.204438357600603e-08 8.441999797192998e-07 0.9999990648307427 3.272131949367394e-11 8.892176346749592e-09
35 1 6.26654 4.74899 2.9896 1.2 2.9337611324454447e-10 3.0616803809493065e-08 0.9999988966127921 1.0543117140432075e-06 1.816531806131777e-08
36 3 4.63043 6.06637 2.79288 -1.2 3.795503890634925e-08 2.7103610903773854e-07 0.9999996079028848 9.990703834995497e-09 7.311526895300676e-08
37 1 -1.12976 4.79031 4.4844 1.2 1.851591723224779e-10 1.169343560136499e-09 0.9999961480569659 3.848767717055859e-06 1.8208085498136908e-09
38 2 -2.9517 7.47444 4.4844 2.4 9.685955640394004e-09 1.840040200477797e-07 0.9999924585638817 1.3917817544690488e-06 5.955964389469486e-06
39 3 -3.00198 5.86121 4.4844 -1.2 4.101342091421289e-10 1.4354145187330955e-09 0.9999998654906738 1.2714225880285366e-07 5.521516586781994e-09
40 3 0.666315 8.44846 4.4844 -1.2 4.232014834841135e-07 6.618219226362425e-07 0.9999961193807941 2.7458227106988835e-09 2.7928499791898124e-06
41 3 -2.21213 8.18062 3.18632 -1.2 1.1910391777740738e-06 3.6794131205157387e-07 0.9999979510156254 2.0728708263005287e-10 4.897966045126449e-07
42 3 -2.25864 8.18062 5.78248 -1.2 7.774344868215512e-08 1.587711907599161e-08 0.9999983968246998 6.208595264211933e-08 1.4474687835891945e-06
43 1 1.20893 7.12349 2.9896 1.2 1.708042977969796e-07 3.485255079666629e-07 0.9999994088476611 1.2548466147074055e-08 5.9274065319514495e-08
44 1 4.00982 7.08218 4.4844 1.2 3.016462223533678e-08 2.0320826396036764e-08 0.9999996624605104 1.6429878330655132e-07 1.2275525123149268e-07
45 2 2.17861 9.14704 4.4844 2.4 1.9637854591192767e-06 2.3712640443274715e-06 0.9999867226131538 4.4116936083410335e-08 8.898220405747139e-06
46 3 2.18828 10.7603 4.4844 -1.2 5.849854344499833e-06 1.9118066857266729e-07 0.9999925482046844 1.76880108877511e-10 1.4105834264199923e-06
47 3 -4.43805 8.17302 4.4844 -1.2 8.245189255211808e-08 1.2504408068113547e-07 0.9999979584499762 3.490414451057019e-09 1.8305636382535442e-06
48 3 2.89193 8.44087 3.18632 -1.2 3.7020732182515533e-06 6.99445701671889e-07 0.9999947379524233 6.676977440100576e-10 8.598609545035522e-07
49 1 1.25915 7.12349 0 1.2 6.177460648687895e-07 6.929403843883728e-07 0.9999986796434163 4.257425785459742e-10 9.244389213154604e-09
50 3 2.84547 8.44087 5.78248 -1.2 1.2137786765983055e-07 2.2618128547390124e-08 0.9999986676827952 4.4839872736799235e-08 1.143481336915536e-06
51 1 -1.59284 7.16481 1.4948 1.2 2.07188411189211e-06 1.2523289462484054e-06 0.9999965840785527 7.914434051272822e-10 9.091693994549131e-08
52 2 0.240329 5.09994 1.4948 2.4 2.5741158247513802e-09 1.8895567939858937e-07 0.999999803562394 4.730760742123149e-09 1.7704784312019007e-10
53 3 0.234538 3.48671 1.4948 -1.2 2.6645954787878997e-11 1.8536905190665974e-08 0.99999995878217 1.807960507644847e-08 4.574676315892591e-09
54 3 6.85564 6.07396 1.4948 -1.2 1.2511408163241405e-06 6.845322330377311e-06 0.9999909227520488 3.391927908094036e-10 9.804456091642966e-07
55 3 -0.429565 5.80612 0.196716 -1.2 7.684479885394552e-09 1.1049224602852348e-07 0.9999998799578763 1.8721390033359496e-10 1.6781883119077892e-09
56 3 -0.473377 5.80612 2.79288 -1.2 4.324668165320945e-09 2.170109893540388e-08 0.9999999451364816 1.978181000632641e-08 9.055937779366382e-09
57 1 6.40169 9.49799 0 1.2 8.50216139885447e-05 2.324231481460566e-06 0.999912443767392 1.8487889281964153e-12 2.1038528787445346e-07
58 1 3.64209 14.2057 1.4948 1.2 0.00017549872844169195 8.797962887040157e-07 0.9998232567536448 2.8324772648650226e-12 3.6471879197384093e-07
59 2 5.45748 11.5215 1.4948 2.4 0.001684309533704262 3.124592118298988e-05 0.9982839809289331 2.1430915696320583e-13 4.6361596092581604e-07
60 3 5.51101 13.1348 1.4948 -1.2 0.014553153203518712 0.00015283016501257892 0.985281410882525 5.5868375684155083e-14 1.260574888880404e-05
61 3 1.83851 10.5475 1.4948 -1.2 0.004923699158019417 3.468300741559534e-05 0.9950364951983985 1.1072324504152224e-13 5.122636050816098e-06
62 3 4.7611 10.8154 0.196716 -1.2 0.0008605759289457647 1.9840414915841813e-05 0.9991186385150135 1.3095297621014935e-13 9.451409973753722e-07
63 1 6.35203 9.49799 2.9896 1.2 4.9269469402004935e-05 6.254272779842974e-06 0.9999426165735423 3.542373352947812e-10 1.8593300452535413e-06
64 3 4.71833 10.8154 2.79288 -1.2 4.541034899973032e-05 2.348404225652969e-06 0.99995097900617 2.341168375238595e-11 1.2622171957719752e-06
65 1 -1.0438 9.53931 4.4844 1.2 1.9821951264666573e-06 1.2315880975201871e-07 0.9999969991867605 3.2224970571909125e-08 8.632343321933487e-07
66 2 -2.8604 12.2234 4.4844 2.4 2.398729251201147e-06 1.249701125092583e-06 0.9999933647191465 3.987240868426376e-09 2.9828632380166058e-06
67 3 -2.91391 10.6102 4.4844 -1.2 7.6077726463772265e-06 4.746997823150697e-07 0.9999901741289959 8.408470481852805e-11 1.7433144861865462e-06
68 3 0.7596 13.1975 4.4844 -1.2 5.781386280003829e-06 1.0686215628975048e-06 0.9999896447605164 2.558747322410668e-10 3.5049757683126175e-06
69 3 -2.12001 12.9296 3.18632 -1.2 4.3408692256169294e-05 1.6063685681289261e-06 0.9999534802043194 1.734773470428532e-11 1.5047175154081522e-06
70 3 -2.16532 12.9296 5.78248 -1.2 1.3013859700113343e-05 1.3010186920971422e-07 0.9999815828488093 2.429502461495237e-09 5.27076012007224e-06
71 1 1.29891 11.8725 2.9896 1.2 5.703297636129018e-05 2.5085807704220248e-06 0.9999389227697735 9.790271177487864e-11 1.5355751912219227e-06
72 1 4.10033 11.8312 4.4844 1.2 1.1527210193291176e-05 1.1434449979460186e-07 0.9999864397886673 7.399260197291987e-09 1.911257380322904e-06
73 2 2.27333 13.896 4.4844 2.4 2.3118332725285032e-05 2.1407842456116923e-06 0.9999697984669277 1.7893611157291628e-09 4.94062674250328e-06
74 3 2.28634 15.5093 4.4844 -1.2 2.6675155083965917e-05 3.5575629489109815e-07 0.9999719858031574 2.925714742414297e-12 9.832825315656692e-07
75 3 -4.34533 12.922 4.4844 -1.2 1.3005843621072624e-06 1.5042853349060487e-07 0.999997328188473 2.9892705625364643e-10 1.2204997050491426e-06
76 3 2.98455 13.1899 3.18632 -1.2 4.194663704498404e-05 1.4622402715216664e-06 0.9999553353824863 1.2155470730498268e-11 1.2557280413252724e-06
77 1 1.34779 11.8725 0 1.2 0.0004793241043586146 4.6449078631871515e-06 0.9995151270519956 1.3773786315316176e-12 9.039344117710376e-07
78 3 2.93934 13.1899 5.78248 -1.2 9.722028196193365e-06 8.178571415546535e-08 0.9999884172543485 1.4919220904519305e-09 1.7774398212466073e-06
79 1 -1.50344 11.9138 1.4948 1.2 0.00026204607538065397 2.9226559509243404e-06 0.9997342659416864 3.477990259605688e-12 7.653235073538071e-07
80 2 0.326006 9.84894 1.4948 2.4 0.00045464851679562316 1.7332592911647316e-05 0.999527786512236 3.5982382387602665e-13 2.3237769792076603e-07
81 3 0.317364 8.23571 1.4948 -1.2 0.0004687543860921228 3.1035222070482144e-05 0.999497325534343 6.836757277531915e-12 2.884850657719286e-06
82 3 6.94307 10.823 1.4948 -1.2 0.003945981488084027 6.789535632839256e-05 0.9959817511899601 9.32972359825909e-14 4.371965530376571e-06
83 3 -0.343122 10.5551 0.196716 -1.2 0.0003748624245141806 1.1056313203366436e-05 0.9996135432948483 1.766459207703812e-13 5.379672601887611e-07
84 3 -0.385966 10.5551 2.79288 -1.2 2.8916696926415394e-05 1.8487556899571554e-06 0.9999681937956593 6.146291625728841e-11 1.0406902656553235e-06
85 1 6.49448 14.247 0 1.2 0.001129821448045247 1.951923066808591e-06 0.9988675320302312 1.0319920821234037e-13 6.945985522094082e-07
86 1 3.74457 18.9547 1.4948 1.2 3.613931517877928e-05 1.1624932810484477e-07 0.9999637209290991 4.580367123597308e-13 2.3505938473247345e-08
87 2 5.55495 16.2705 1.4948 2.4 0.000655773177764564 9.455290415748468e-06 0.9993347414609018 1.1621034459726059e-14 3.0070908246342693e-08
88 3 5.6115 17.8838 1.4948 -1.2 0.004132489532173421 3.249312671297978e-05 0.9958343769924877 1.976952944190218e-15 6.403486267064726e-07
89 3 1.93416 15.2965 1.4948 -1.2 0.008069254372927983 3.0637709113862476e-05 0.9918985389234334 2.890673313167345e-15 1.568994515819275e-06
90 3 4.85636 15.5644 0.196716 -1.2 0.006124393696453487 2.5748138336604482e-05 0.9938490726271723 5.5162846667744406e-15 7.855380304852222e-07
91 1 6.44662 14.247 2.9896 1.2 6.591067050412886e-05 1.4386077396385804e-06 0.9999317639113152 2.3728430542923262e-11 8.867867180095928e-07
92 3 4.81537 15.5644 2.79288 -1.2 0.00016189154502244091 4.887545550123548e-06 0.9998322454386827 1.880580828073942e-12 9.754688589489983e-07
93 1 -0.948271 14.2883 4.4844 1.2 7.261220779388896e-06 1.6707167035070848e-07 0.9999913591311872 3.1264106508632572e-09 1.2094499463407941e-06
94 2 -2.75928 16.9724 4.4844 2.4 2.5713105444695787e-05 1.1261060332683765e-06 0.9999726271096315 1.0052709181637457e-10 5.335783615317535e-07
95 3 -2.81617 15.3592 4.4844 -1.2 9.950381173840929e-06 2.620542517940628e-07 0.9999888490498419 5.062277522620822e-12 9.385096676718685e-07
96 3 0.862762 17.9465 4.4844 -1.2 1.7258389524892813e-05 8.341636974679219e-07 0.9999812689484553 6.52554520081971e-12 6.384918016074307e-07
97 3 -2.0185 17.6786 3.18632 -1.2 5.569849710305323e-05 6.842825989820757e-07 0.9999434425863987 2.7808052859623094e-13 1.7463362227126885e-07
98 3 -2.06164 17.6786 5.78248 -1.2 7.761471452809173e-05 1.4708202801455442e-07 0.9999205901516991 2.8600120480953777e-11 1.6480231494204336e-06
99 1 1.39817 16.6215 2.9896 1.2 6.55194238578182e-05 9.751173182205357e-07 0.9999329994140206 3.645177842468469e-12 5.060411638023141e-07
100 1 4.20062 16.5802 4.4844 1.2 7.216911399309398e-06 6.340056936585836e-08 0.9999923355279617 5.551402855973167e-10 3.836049232951267e-07
101 2 2.37796 18.645 4.4844 2.4 2.742421922502467e-05 4.929498921568179e-07 0.9999719253331049 3.554180538300155e-11 1.574622349534932e-07
102 3 2.39434 20.2583 4.4844 -1.2 5.0039774014454384e-05 1.646896501184736e-07 0.999949634778199 7.19685612105526e-14 1.607580670133925e-07
103 3 -4.24274 17.671 4.4844 -1.2 5.0594424579550605e-06 3.7821250247397313e-07 0.9999941947256269 6.824885900522368e-12 3.6761258544088256e-07
104 3 3.08659 17.9389 3.18632 -1.2 4.1370700685767334e-05 1.0541030684007994e-06 0.9999573272544676 6.003435099446107e-13 2.4794118355862303e-07
105 1 1.44478 16.6215 0 1.2 0.0006422113284088622 5.575466174299125e-07 0.9993570003525788 8.4031510344254e-14 2.3077231272264408e-07
106 3 3.0436 17.9389 5.78248 -1.2 5.112308579716482e-05 5.625667651557013e-08 0.9999482935702075 5.681455777313197e-11 5.270305058826921e-07
107 1 -1.40524 16.6628 1.4948 1.2 0.00029259877998066613 9.424190992726817e-07 0.999706224139216 1.2790318049159918e-13 2.3466157920937942e-07
108 2 0.420358 14.5979 1.4948 2.4 0.001160898359646747 1.2412946610432308e-05 0.9988266137107729 7.042656644976838e-14 7.498290221086587e-08
109 3 0.408732 12.9847 1.4948 -1.2 0.007163220615547564 6.90924364405975e-05 0.9927643951001145 4.206604326041447e-14 3.2918478565959245e-06
110 3 7.03923 15.572 1.4948 -1.2 0.0073745536026051765 5.29430789243168e-05 0.9925705866955787 6.217614637949041e-15 1.916622889093691e-06
111 3 -0.248332 15.3041 0.196716 -1.2 0.001999468750541977 1.8907927493174623e-05 0.9979810730891506 1.8386198009660874e-14 5.502328005059442e-07
112 3 -0.289436 15.3041 2.79288 -1.2 0.0002935870049653728 7.636251022037508e-06 0.9996967174993715 4.298133225554313e-12 2.0592403458925947e-06
113 1 6.59566 18.996 0 1.2 0.00046372101373609576 1.2675005507360243e-07 0.9995360934317269 4.8805552353203626e-15 5.88044719206999e-08
114 1 3.85574 23.7037 1.4948 1.2 0.0014554178400203782 6.775426445327419e-07 0.998543697580136 2.0025531050852884e-13 2.0703699573895436e-07
115 2 5.66125 21.0195 1.4948 2.4 0.0016650196269766214 2.331507972311926e-06 0.9983326458407596 1.5489271935641087e-15 3.024295396311001e-09
116 3 5.72074 22.6328 1.4948 -1.2 0.03946519422662309 4.784350851322275e-05 0.9604861691017785 7.729431561572951e-16 7.931630884036993e-07
117 3 2.03867 20.0455 1.4948 -1.2 0.017280259366380443 2.3338402940925813e-05 0.9826956608178086 2.1554427926760962e-16 7.414128677684786e-07
118 3 4.96004 20.3134 0.196716 -1.2 0.005190790754451905 4.982416439573118e-06 0.9948040944940489 7.926949862659417e-16 1.3233506451305653e-07
119 1 6.55057 18.996 2.9896 1.2 4.3562907722928114e-05 2.781798157131257e-07 0.9999560438562187 7.999313678893295e-13 1.1505544453345505e-07
120 3 4.92172 20.3134 2.79288 -1.2 0.0002216853069499696 1.7890799644931393e-06 0.9997763991536066 5.855954200000901e-14 1.2645941975742442e-07
121 1 -0.84282 19.0373 4.4844 1.2 1.2042611713653365e-05 5.8902280317163325e-08 0.9999877113624259 1.0875471370779472e-10 1.8701482539229623e-07
122 2 -2.64823 21.7214 4.4844 2.4 7.235506743525455e-05 2.861807954676996e-07 0.9999273315011904 3.861728762194782e-12 2.724671743842239e-08
123 3 -2.70847 20.1082 4.4844 -1.2 7.5588241598527975e-06 6.918881092811172e-08 0.999992330467771 1.1479981656524785e-13 4.151913868104386e-08
124 3 0.97581 22.6955 4.4844 -1.2 0.0001633482606619023 1.4045788545421617e-06 0.9998347402609308 1.1811444272033144e-12 5.068983657174636e-07
125 3 -1.9076 22.4276 3.18632 -1.2 0.0005211497533647479 7.166359431956614e-07 0.9994780358541027 1.323752508222996e-14 9.775657630172925e-08
126 3 -1.9475 22.4276 5.78248 -1.2 0.00017575766659374558 4.525673057514881e-08 0.9998240137604819 2.5778364453846313e-12 1.8331361584656872e-07
127 1 1.50678 21.3705 2.9896 1.2 0.00021166174346989983 4.6583196998616e-07 0.9997876288504677 5.158904412459365e-13 2.435735697880773e-07
128 1 4.31086 21.3292 4.4844 1.2 1.9409353728964678e-05 1.4763224550317163e-08 0.9999805334216235 2.1777454404708e-11 4.2439645499737174e-08
129 2 2.49243 23.394 4.4844 2.4 0.00031241510537440204 3.358767765382281e-07 0.9996871955487754 7.852827322203075e-12 5.346122196030769e-08
130 3 2.51204 25.0073 4.4844 -1.2 0.00029109969603664993 1.5440264528532135e-07 0.9997085141070263 8.326956521723927e-14 2.317942081145938e-07
131 3 -4.13026 22.42 4.4844 -1.2 4.98632629659383e-05 3.901413381852988e-07 0.9999496517087413 5.775237272675375e-13 9.488637742566952e-08
132 3 3.19799 22.6879 3.18632 -1.2 0.0003302633242102414 8.81962246418414e-07 0.9996687629940197 4.734040078657519e-14 9.17194827065536e-08
133 1 1.5501 21.3705 0 1.2 0.001155125950156138 2.2587852326272294e-07 0.9988445461440015 9.820209911568754e-15 1.0202731107796325e-07
134 3 3.1583 22.6879 5.78248 -1.2 0.00015977267650036975 2.8633761045832705e-08 0.9998400531963665 4.922960571211873e-12 1.4548844607212516e-07
135 1 -1.29822 21.4118 1.4948 1.2 0.0007994925981300082 4.796290801705901e-07 0.9991999141436076 7.758886068102185e-15 1.1362917628765327e-07
136 2 0.523568 19.3469 1.4948 2.4 0.0005736152555238699 2.8800130051312833e-06 0.9994235020074161 4.139495488792892e-15 2.7240465144993595e-09
137 3 0.508934 17.7337 1.4948 -1.2 0.0023447551838907082 2.7587541819429135e-05 0.9976273051921333 3.0820248310803946e-15 3.520821528334803e-07
138 3 7.14425 20.321 1.4948 -1.2 0.007613686349982848 2.041174050469921e-05 0.9923656468345582 1.776008261620113e-16 2.550749563606179e-07
139 3 -0.145107 20.0531 0.196716 -1.2 0.001356010130181486 5.128533941865093e-06 0.9986387958375398 1.8601707330700817e-15 6.549833667452015e-08
140 3 -0.183601 20.0531 2.79288 -1.2 0.0006193957414721797 5.016212731215999e-06 0.9993752879148308 7.186256548727466e-14 3.001308953802698e-07
141 1 6.70502 23.745 0 1.2 0.014695252018456353 1.4506840518171467e-06 0.9853022609044423 9.032400653543228e-15 1.0363930339022645e-06
142 1 3.97493 28.4527 1.4948 1.2 0.3448086217697596 1.6405237815827177e-05 0.6551437082026799 1.7211347635197938e-12 3.1264788021033264e-05
143 2 5.77602 25.7685 1.4948 2.4 0.4817359268650685 2.3914473450381193e-05 0.518239993429313 6.220566212855261e-15 1.652321591556525e-07
144 3 5.83821 27.3818 1.4948 -1.2 0.8762654337991325 5.1383867346486536e-05 0.1236729656711673 1.3773327740807656e-15 1.0216662349451402e-05
145 3 2.15175 24.7945 1.4948 -1.2 0.797942672397302 0.00010237900647047338 0.2019478394130549 1.0647174662683914e-16 7.1091831735176925e-06
146 3 5.07184 25.0624 0.196716 -1.2 0.42562967711307154 3.590543684950531e-05 0.5743279791109375 5.24207846871354e-15 6.438339142491863e-06
147 1 6.66374 23.745 2.9896 1.2 0.000721381090153684 5.9726927242562e-07 0.9992778015152779 1.1997992441132553e-13 2.2012517537282496e-07
148 3 5.03707 25.0624 2.79288 -1.2 0.007144073326232463 8.326380263120454e-06 0.9928464086842951 1.2467148723825177e-13 1.191609091256769e-06
149 1 -0.727559 23.7863 4.4844 1.2 6.113633977503071e-05 8.318058486796115e-08 0.9999386490004761 1.810076989016652e-11 1.3146106524056955e-07
150 2 -2.5277 26.4704 4.4844 2.4 0.0013810628414069645 2.3141980904492442e-07 0.9986186566753965 3.693156569935929e-12 4.905969824541432e-08
151 3 -2.59107 24.8572 4.4844 -1.2 0.00011207643204290672 1.6249602529414332e-07 0.999887643612756 4.4913858268375997e-14 1.1745913047869892e-07
152 3 1.09817 27.4445 4.4844 -1.2 0.017643406200022114 3.951856638684238e-06 0.9823471103145647 1.517264351744988e-12 5.531627259321236e-06
153 3 -1.78784 27.1766 3.18632 -1.2 0.007169441251015541 1.006148047533235e-06 0.9928290629721256 1.905806427463914e-13 4.89628621036362e-07
154 3 -1.82343 27.1766 5.78248 -1.2 0.0038884781209074636 7.89571224001584e-08 0.9961109975966675 1.6295527222735931e-12 4.45323672631959e-07
155 1 1.62435 26.1195 2.9896 1.2 0.020083547921473 1.953625882349811e-06 0.979912216788903 2.521472583599882e-13 2.2816634854153863e-06
156 1 4.43064 26.0782 4.4844 1.2 0.0002687253091710672 4.86989648119644e-08 0.9997310663186948 1.2048998823256233e-11 1.5966111630415467e-07
157 2 2.61607 28.143 4.4844 2.4 0.01421641440840693 6.074540795682488e-07 0.9857824734184554 1.591276629194361e-11 5.047031400257153e-07
158 3 2.63853 29.7563 4.4844 -1.2 0.001440435782773228 1.2944670912102027e-07 0.9985581905492759 7.716314332833381e-13 1.2442204725887152e-06
159 3 -4.00841 27.169 4.4844 -1.2 0.0021636295465921663 9.100577533589805e-07 0.9978347140304371 5.707342942724568e-13 7.463646401263509e-07
160 3 3.3182 27.4369 3.18632 -1.2 0.04430448437171205 6.498389560172777e-06 0.9556849505864043 1.68631441928251e-13 4.0666521532532365e-06
161 1 1.66335 26.1195 0 1.2 0.12717688300531876 1.053753559945225e-05 0.8728002074276053 4.386707395323228e-14 1.2372031427078092e-05
162 3 3.28288 27.4369 5.78248 -1.2 0.0007590234994275704 1.905848007959141e-08 0.9992407314063205 4.891554360807516e-12 2.2603087966354092e-07
163 1 -1.18278 26.1608 1.4948 1.2 0.15120338558792162 1.1336328990972358e-05 0.8487758883045834 5.051052917517053e-14 9.38977844944934e-06
164 2 0.635424 24.0959 1.4948 2.4 0.010656518933882022 1.934497069506952e-06 0.9893415432232823 1.4497221162661683e-15 3.345771280738418e-09
165 3 0.617906 22.4827 1.4948 -1.2 0.013837313042298268 1.8744518970675298e-05 0.9861436953329064 6.16131003447096e-16 2.4710582655657364e-07
166 3 7.25781 25.07 1.4948 -1.2 0.5491720602087075 0.00013831550545512932 0.4506836806857126 2.151871197297166e-16 5.9436001246278955e-06
167 3 -0.0337363 24.8021 0.196716 -1.2 0.10123700325261148 2.247480381203689e-05 0.8987390631102824 2.1987029580758273e-15 1.458833286966232e-06
168 3 -0.0687235 24.8021 2.79288 -1.2 0.009650557955691067 1.38930338036727e-05 0.9903342207400877 1.3816482706890316e-13 1.3282702827349815e-06
169 1 6.82195 28.494 0 1.2 0.5300330674932188 4.290910904804378e-05 0.4698361362989965 1.997517763926462e-13 8.788709853240497e-05
170 1 4.10106 33.2017 1.4948 1.2 0.8761818557869795 0.00014195043073183028 0.1230531425588904 8.501455388121926e-11 0.0006230511383876852
171 2 5.89839 30.5175 1.4948 2.4 0.99757295548282 6.02983622980115e-06 0.0024202799358301217 3.9123379674198296e-15 7.347451173346764e-07
172 3 5.96289 32.1308 1.4948 -1.2 0.9626194167828863 5.264594934595608e-05 0.03728065999604616 6.581273568450325e-14 4.72772716583784e-05
173 3 2.27266 29.5435 1.4948 -1.2 0.9940371635796742 5.530175590251444e-05 0.005864529500240493 1.1135057907428957e-15 4.3005164183088355e-05
174 3 5.19102 29.8114 0.196716 -1.2 0.9825221600146511 1.7030539561360927e-05 0.017433210162252515 5.883765936077148e-15 2.7599283523122448e-05
175 1 6.78546 28.494 2.9896 1.2 0.05420623545346855 4.663500476736617e-06 0.945779527588464 3.250442798649401e-12 9.573454339266238e-06
176 3 5.16061 29.8114 2.79288 -1.2 0.26415255981383057 3.597114161813385e-05 0.735782473758601 1.4421248662045157e-12 2.899528450431584e-05
177 1 -0.603205 28.5353 4.4844 1.2 0.0037477416883576436 2.68346652866247e-07 0.9962498049259562 7.182106093136385e-11 2.1849672071914383e-06
178 2 -2.39877 31.2194 4.4844 2.4 0.022588417794631173 1.4683191794443535e-06 0.9774078618748855 8.896330973213124e-11 2.2519223418625345e-06
179 3 -2.46483 29.6062 4.4844 -1.2 0.0006780731083431035 1.4106941105138296e-07 0.999321247165997 9.570558520696564e-13 5.386552980679857e-07
180 3 1.22864 32.1935 4.4844 -1.2 0.01975413578547674 5.161395667029798e-06 0.9802103173477538 2.004119851247834e-11 3.0385451062124014e-05
181 3 -1.66032 31.9256 3.18632 -1.2 0.04262079791552337 4.668990826143354e-06 0.9573662983609984 6.165783313241987e-12 8.234726480000573e-06
182 3 -1.69072 31.9256 5.78248 -1.2 0.002601484410582145 3.846668987315653e-08 0.9973978225952934 2.4760918317817965e-11 6.545026683494175e-07
183 1 1.7499 30.8685 2.9896 1.2 0.2844651241066291 1.7681068377087845e-05 0.7154151333607116 1.1987731550006276e-11 0.00010206145229668619
184 1 4.55894 30.8272 4.4844 1.2 0.006468443610394102 9.741595195803694e-08 0.9935296590177903 1.647931804583128e-10 1.7997910692496905e-06
185 2 2.7476 32.892 4.4844 2.4 0.018615802026657934 1.4336991437917506e-06 0.9813800933458426 3.591515860544736e-10 2.670569199044486e-06
186 3 2.77235 34.5053 4.4844 -1.2 0.00038311351686937556 7.735547088645126e-08 0.9996154182891677 1.489945220999707e-11 1.3908235873019156e-06
187 3 -3.87837 31.918 4.4844 -1.2 0.004371299509300635 1.1640124953774708e-06 0.9956214703349231 1.2492705708370328e-11 6.066130790425027e-06
188 3 3.44611 32.1859 3.18632 -1.2 0.14177262264815746 1.2486437931235402e-05 0.8581835042388898 1.123849017950296e-11 3.138666378665038e-05
189 1 1.7837 30.8685 0 1.2 0.9049029277272755 6.94168819522649e-05 0.09462091839388152 4.117768802973348e-13 0.0004067369964782481
190 3 3.41602 32.1859 5.78248 -1.2 0.0009104226322214678 2.4615857803242275e-08 0.9990891276884668 4.5754125097706135e-11 4.250176959563311e-07
191 1 -1.05984 30.9098 1.4948 1.2 0.9506907705474757 7.460260697850511e-05 0.04898888468500871 9.973285852167864e-13 0.00024574215954672963
192 2 0.755243 28.8449 1.4948 2.4 0.9805870544007724 4.648715195750377e-06 0.019408164331472872 1.6236648262659004e-15 1.3255255181419665e-07
193 3 0.735127 27.2317 1.4948 -1.2 0.8684471104470565 4.543841391867925e-05 0.13150074481762497 1.0531127219695942e-15 6.70632139421907e-06
194 3 7.37914 29.819 1.4948 -1.2 0.9816449154523996 0.00012972061212095283 0.018151898517078123 4.735384839578171e-15 7.346541840191065e-05
195 3 0.0850649 29.5511 0.196716 -1.2 0.8426756728987415 7.639534067759038e-05 0.15720788968956373 6.98190569839871e-14 4.004207095318641e-05
196 3 0.0543974 29.5511 2.79288 -1.2 0.4733199350143976 5.5034914040309473e-05 0.5265929703118516 7.04291634103947e-13 3.205975901249053e-05
197 1 6.94543 33.243 0 1.2 0.9329780573657716 5.618792326881786e-05 0.0665700816167542 1.7996415284285637e-12 0.000395673092401988
198 1 4.23267 37.9507 1.4948 1.2 0.5161472248580116 0.00016558445315779555 0.48311447294701754 2.2299923773104606e-09 0.0005727155118185998
199 2 6.02709 35.2665 1.4948 2.4 0.9989716079136622 1.5231226101650615e-05 0.00100786165696294 5.093298030422032e-14 5.299203223662489e-06
200 3 6.09339 36.8798 1.4948 -1.2 0.6296517979041513 0.0001529014884689431 0.37002772742844836 1.4911477349254867e-11 0.00016757316401490074
201 3 2.40018 34.2925 1.4948 -1.2 0.9718054189320743 0.0002855329667391108 0.027493993850425783 8.763533569145447e-13 0.000415054249879958
202 3 5.31645 34.5604 0.196716 -1.2 0.9911917322840805 3.498998746641777e-05 0.008624970141892169 2.2159033064364928e-13 0.0001483075863409967
203 1 6.91449 33.243 2.9896 1.2 0.2150377877646954 2.015247666654095e-05 0.7848122584173802 8.123551825663142e-11 0.00012980126002679036
204 3 5.291 34.5604 2.79288 -1.2 0.0758152084938858 4.592645585865209e-05 0.9240785563106513 6.389360996320895e-11 6.0308675711361484e-05
205 1 -0.471101 33.2843 4.4844 1.2 0.018753105802855104 7.448386743609527e-07 0.9812338952359495 7.815767726142878e-10 1.2253340943647032e-05
206 2 -2.26307 35.9684 4.4844 2.4 0.0010691117918780674 5.203803007097164e-07 0.9989259010984249 4.3039094001975275e-09 4.462425491174801e-06
207 3 -2.33122 34.3552 4.4844 -1.2 0.00034498480183400756 1.0694975928065414e-07 0.9996538655790876 1.6897381536577146e-11 1.042652423950009e-06
208 3 1.36549 36.9425 4.4844 -1.2 0.000333548104730141 4.273420396196557e-07 0.9996620111129599 1.1866035618274468e-10 4.013321607194601e-06
209 3 -1.52658 36.6746 3.18632 -1.2 0.012842954988886077 5.135815085640803e-06 0.9871398936203467 1.6378447354391674e-10 1.2015411890905165e-05
210 3 -1.55122 36.6746 5.78248 -1.2 0.0001953456959602339 2.235307541071641e-08 0.9998042065544803 1.5495457375320238e-10 4.2524153033849687e-07
211 1 1.882 35.6175 2.9896 1.2 0.10112558884217156 2.2700899751955507e-05 0.8987193191919056 4.853668620121219e-10 0.00013239058080809208