ITEM: TIMESTEP
2200
ITEM: NUMBER OF ATOMS
10500
ITEM: BOX BOUNDS xy xz yz pp pp pp
0	15.2974	5.099
0	118.725	0
0	89.688	0
ITEM: ATOMS id type xu yu zu q pCrystal pDisloC pDisloB pDisloA
1 1 6.2404 -6.37941e-06 0 1.2 6.9818565313415495e-22 1.1449894118329618e-09 0.9999999985909938 2.640156855381194e-10
2 1 3.46349 4.70768 1.4948 1.2 2.2069917910737826e-07 0.023295481866016442 0.24281120623700317 0.7338930911978058
3 2 5.2885 2.02354 1.4948 2.4 1.3395372402342256e-06 0.9934079540441207 0.0020243444998517225 0.004566361918785573
4 3 5.33628 3.63678 1.4948 -1.2 3.2249794005018947e-11 0.9999588953492928 4.108047014903661e-05 2.4148307411105903e-08
5 3 1.67294 1.04952 1.4948 -1.2 7.955226475365608e-18 0.7532279230778796 0.2467720698658272 7.056292538596546e-09
6 3 4.59532 1.31737 0.196716 -1.2 2.0906846220510945e-19 0.3685589078467447 0.6314410920016221 1.516343328028231e-10
7 1 6.18956 -6.37941e-06 2.9896 1.2 5.71126262483538e-25 7.544173356549108e-09 0.9999999922591201 1.9670374919618084e-10
8 3 4.55118 1.31737 2.79288 -1.2 4.8285863412555005e-23 0.01428464980747879 0.9857153501812255 1.1294480543384782e-11
9 1 -1.20682 0.0413099 4.4844 1.2 9.676815384306997e-29 4.645359995792681e-10 0.999999999370857 1.646058664745981e-10
10 2 -3.0337 2.72544 4.4844 2.4 1.1700501998560666e-09 0.997289971676185 0.001354620367942929 0.0013554067858222126
11 3 -3.08099 1.11221 4.4844 -1.2 6.293892097203662e-25 0.020646257816173515 0.9793537421816836 2.1382639140680154e-12
12 3 0.582463 3.69946 4.4844 -1.2 2.42803796973585e-15 0.9895805689938549 0.01041942209921969 8.906928070805747e-09
13 3 -2.29524 3.43162 3.18632 -1.2 2.421128549762103e-14 0.999477151630933 0.0005228415211368833 6.847905417097038e-09
14 3 -2.34216 3.43162 5.78248 -1.2 2.8687571777102785e-19 0.7626742410154642 0.23732575878182946 2.027047632323858e-10
15 1 1.12778 2.37449 2.9896 1.2 3.233595486528273e-19 1.0084425043722267e-06 0.999998545712876 4.4584461275191287e-07
16 1 3.92855 2.33318 4.4844 1.2 5.0352510629766446e-24 7.003074904767865e-09 0.9999996631983378 3.2979858640610535e-07
17 2 2.09341 4.39804 4.4844 2.4 0.004718805239496472 0.9951223119553967 0.00015783705382961118 1.045751278494853e-06
18 3 2.09991 6.01128 4.4844 -1.2 2.0221135005809047e-08 0.9999890976506277 1.0836583896598226e-05 4.554433524168335e-08
19 3 -4.52137 3.42402 4.4844 -1.2 2.0200170601373807e-17 0.8906556564461262 0.10934434138919194 2.164678230236423e-09
20 3 2.80834 3.69187 3.18632 -1.2 4.59913250992838e-15 0.9973083896616599 0.0026916089928232774 1.3455101912182903e-09
21 1 1.17857 2.37449 0 1.2 4.700271703313012e-19 1.0876754145115388e-06 0.999998536938425 3.753861674462321e-07
22 3 2.76143 3.69187 5.78248 -1.2 3.7191910440241385e-19 0.9101744684603745 0.08982553045033823 1.0892938038108296e-09
23 1 -1.67381 2.41581 1.4948 1.2 9.561876136239147e-13 0.0007704127943701256 0.9989943607844057 0.00023522642026564626
24 2 0.16286 0.350945 1.4948 2.4 1.8964839584503957e-09 0.6095494648327126 0.036970124643134275 0.35348040862766833
25 3 0.15972 -1.26229 1.4948 -1.2 5.936651779162509e-16 0.929151865393904 0.07084804025280794 9.435328956719796e-08
26 3 6.77654 1.32496 1.4948 -1.2 1.3525340587961809e-15 0.9732852667231465 0.02671471536466185 1.7912194296685755e-08
27 3 -0.508028 1.05712 0.196716 -1.2 1.449202805080436e-20 0.08442225258643173 0.9155777471714626 2.421028400358264e-10
28 3 -0.552171 1.05712 2.79288 -1.2 2.7846724980925397e-21 0.15361710423735755 0.846382895495324 2.673130233226092e-10
29 1 6.31713 4.74899 0 1.2 6.377973274738577e-08 0.1260625320979783 0.303444969915419 0.5704924342068682
30 1 3.54847 9.45668 1.4948 1.2 0.9068150566613236 0.09273853949442738 5.1201176489001414e-15 0.00044640384424176894
31 2 5.36879 6.77254 1.4948 2.4 0.9999999834173111 1.6582682759222436e-08 6.2570601113544e-24 2.4097662089766078e-20
32 3 5.41937 8.38578 1.4948 -1.2 0.973293417563814 0.026706546155269593 4.168791490995271e-17 3.6280912713425025e-08
33 3 1.75158 5.79852 1.4948 -1.2 0.0004976612078629909 0.9995010681835363 1.0846369448293498e-10 1.2705001408086876e-06
34 3 4.67421 6.06637 0.196716 -1.2 6.45923484463494e-06 0.999993499096106 1.7794860859821712e-08 2.3874182439466535e-08
35 1 6.26654 4.74899 2.9896 1.2 9.51463150874069e-10 0.0004560006413719637 0.028953387714161612 0.9705906106929991
36 3 4.63043 6.06637 2.79288 -1.2 8.057849959497801e-07 0.9999989196397233 1.86818447836447e-07 8.775683426697645e-08
37 1 -1.12976 4.79031 4.4844 1.2 1.3524105828586519e-10 2.2652409287045224e-05 0.9594948044057536 0.0404825430497162
38 2 -2.9517 7.47444 4.4844 2.4 0.999999977981503 2.2018494723851498e-08 2.792140749867964e-17 9.267565250925003e-20
39 3 -3.00198 5.86121 4.4844 -1.2 1.923528094049252e-10 0.9999051992351219 9.479793387593784e-05 2.6386425576556437e-09
40 3 0.666315 8.44846 4.4844 -1.2 0.0013718431159446332 0.9986279991970822 8.723192554397195e-09 1.4896377859434796e-07
41 3 -2.21213 8.18062 3.18632 -1.2 0.00748763164307207 0.9925123092620444 6.405949783892457e-10 5.845429500489492e-08
42 3 -2.25864 8.18062 5.78248 -1.2 0.00020042184680998438 0.9997993476867587 1.5683891929528695e-07 7.362751697143253e-08
43 1 1.20893 7.12349 2.9896 1.2 0.0100833271556904 0.13584990951426892 8.783475558706021e-07 0.8540658849824803
44 1 4.00982 7.08218 4.4844 1.2 0.00018528637774260003 0.0023042853632218394 0.0012365683645559169 0.9962738598944765
45 2 2.17861 9.14704 4.4844 2.4 0.9999999999999005 9.367643382131911e-14 5.0229922034528614e-26 2.0460015372072703e-29
46 3 2.18828 10.7603 4.4844 -1.2 0.5972812286223653 0.40271868159059615 1.1214605516348187e-12 8.978592125922138e-08
47 3 -4.43805 8.17302 4.4844 -1.2 0.00014139311138833467 0.9998581117000354 4.176990508375074e-07 7.748952747222867e-08
48 3 2.89193 8.44087 3.18632 -1.2 0.021367707967953325 0.9786320930167676 2.2505109240809348e-10 1.987902254847632e-07
49 1 1.25915 7.12349 0 1.2 0.13595592753244468 0.798590567218224 1.936025361016538e-08 0.0654534858890711
50 3 2.84547 8.44087 5.78248 -1.2 4.4402448222099376e-05 0.9999549395069378 6.175938493639485e-07 4.0450994417345436e-08
51 1 -1.59284 7.16481 1.4948 1.2 0.13756383352880758 0.798584722172359 3.556387734789621e-09 0.06385144074244788
52 2 0.240329 5.09994 1.4948 2.4 0.9986827888889591 0.0013172110779569022 2.5520281297784647e-15 3.30813279121827e-11
53 3 0.234538 3.48671 1.4948 -1.2 4.1618938357982115e-13 0.99972335534121 0.00027661798646520813 2.6671914738827696e-08
54 3 6.85564 6.07396 1.4948 -1.2 2.4567045801651582e-05 0.9999750218187307 1.6419164473837582e-09 4.094935533802341e-07
55 3 -0.429565 5.80612 0.196716 -1.2 1.6107748175119206e-06 0.9999983221100316 4.9096403983847295e-08 1.801875260774481e-08
56 3 -0.473377 5.80612 2.79288 -1.2 5.726007363762181e-08 0.9999983936740305 1.532771356801008e-06 1.629454332537471e-08
57 1 6.40169 9.49799 0 1.2 0.9508347128008496 0.0491605317911995 2.8685857184557243e-16 4.755407944128238e-06
58 1 3.64209 14.2057 1.4948 1.2 0.9780326925752183 0.021965623551188706 3.080736777251851e-19 1.6838735957129804e-06
59 2 5.45748 11.5215 1.4948 2.4 0.9999999999999716 2.1601164673859254e-14 1.1045170283314895e-36 2.431122003970763e-33
60 3 5.51101 13.1348 1.4948 -1.2 0.9994212178819066 0.0005787815718550985 1.2226917243492725e-22 5.462324909949893e-10
61 3 1.83851 10.5475 1.4948 -1.2 0.9993433150145766 0.0006566844674654886 2.8140278771082096e-21 5.179545381305334e-10
62 3 4.7611 10.8154 0.196716 -1.2 0.9908139565802065 0.009186042194239451 1.1909419426591826e-17 1.2255511158980541e-09
63 1 6.35203 9.49799 2.9896 1.2 0.7873582584238547 0.207603061403572 2.679316048372805e-13 0.005038680172302907
64 3 4.71833 10.8154 2.79288 -1.2 0.941013706141183 0.05898628090780455 1.2877992370305109e-14 1.2951004173860303e-08
65 1 -1.0438 9.53931 4.4844 1.2 0.586525515798465 0.11011735627173004 4.664075181343722e-08 0.3033570812890463
66 2 -2.8604 12.2234 4.4844 2.4 1.0 5.074981545204618e-16 2.9362204722299233e-30 9.65013188909112e-33
67 3 -2.91391 10.6102 4.4844 -1.2 0.7090212515670998 0.29097859677914956 5.19754578129067e-13 1.5165322811192354e-07
68 3 0.7596 13.1975 4.4844 -1.2 0.39963328588112507 0.6003665923257084 1.8137069078987436e-12 1.2179135944754713e-07
69 3 -2.12001 12.9296 3.18632 -1.2 0.964630327700456 0.035369667084545205 1.0482281990281107e-15 5.214997240976462e-09
70 3 -2.16532 12.9296 5.78248 -1.2 0.8264112184650639 0.17358876982721805 8.894466503215697e-14 1.1707627536176627e-08
71 1 1.29891 11.8725 2.9896 1.2 0.94092282785668 0.058532280454592335 9.224136084332255e-16 0.0005448916887326416
72 1 4.10033 11.8312 4.4844 1.2 0.8642853055558148 0.037773645171249336 7.023316892578781e-11 0.09794104920270774
73 2 2.27333 13.896 4.4844 2.4 1.0 4.2906350066138106e-18 2.6410307352749564e-32 2.4171185601985916e-35
74 3 2.28634 15.5093 4.4844 -1.2 0.9885977437837368 0.011402253190656226 4.0908699284170835e-17 3.0256054315670304e-09
75 3 -4.34533 12.922 4.4844 -1.2 0.17640733060181737 0.8235926084044465 2.8808597433719804e-11 6.096492378980568e-08
76 3 2.98455 13.1899 3.18632 -1.2 0.9336618392875146 0.06633814891260248 6.7283372717562305e-15 1.179987007706345e-08
77 1 1.34779 11.8725 0 1.2 0.9797585975141354 0.020239564552476847 4.0744737699889686e-19 1.837933384877316e-06
78 3 2.93934 13.1899 5.78248 -1.2 0.5981570842892299 0.40184290618175633 8.553112066734799e-13 9.528165195732032e-09
79 1 -1.50344 11.9138 1.4948 1.2 0.9757338564994587 0.024257766762759796 2.2862261792453984e-18 8.37673778178711e-06
80 2 0.326006 9.84894 1.4948 2.4 0.9999999999998437 1.5834471884644387e-13 2.3287109180631847e-35 4.5086193991135696e-32
81 3 0.317364 8.23571 1.4948 -1.2 0.8838370376714322 0.1161628018465525 3.3376928295119386e-16 1.604820102081744e-07
82 3 6.94307 10.823 1.4948 -1.2 0.9987165693660109 0.0012834301328552766 7.358983701797601e-21 5.011312881009999e-10
83 3 -0.343122 10.5551 0.196716 -1.2 0.9898210087308924 0.010178989746132303 1.08956812447464e-17 1.5229750838414853e-09
84 3 -0.385966 10.5551 2.79288 -1.2 0.9062856229698012 0.09371435621346684 4.53356290303358e-14 2.081668059006987e-08
85 1 6.49448 14.247 0 1.2 0.9895063412390918 0.010493647125073263 1.3326078355630158e-21 1.1635834658586706e-08
86 1 3.74457 18.9547 1.4948 1.2 0.9728838865271365 0.027113851173829365 1.6530474875825572e-18 2.262299032601851e-06
87 2 5.55495 16.2705 1.4948 2.4 0.9999999999999858 1.8968774869406854e-14 7.570616243904044e-38 9.671248746384867e-34
88 3 5.6115 17.8838 1.4948 -1.2 0.998262656366874 0.0017373433276599158 6.340339439236504e-23 3.054653557741891e-10
89 3 1.93416 15.2965 1.4948 -1.2 0.9997328213828669 0.0002671785525598274 5.8027761229596916e-24 6.457978188474877e-11
90 3 4.85636 15.5644 0.196716 -1.2 0.9983869062360885 0.001613093630823703 6.1555053657833855e-21 1.3308368035012547e-10
91 1 6.44662 14.247 2.9896 1.2 0.956640493530426 0.043271895293893956 3.653044179085519e-17 8.761117568333542e-05
92 3 4.81537 15.5644 2.79288 -1.2 0.9875836992686337 0.012416298387958434 3.517813435082188e-17 2.3434106826963495e-09
93 1 -0.948271 14.2883 4.4844 1.2 0.9425679190173334 0.03525024412555106 8.641905102660139e-13 0.022181836856251507
94 2 -2.75928 16.9724 4.4844 2.4 1.0 1.6996266113424153e-19 1.9107130472366008e-35 4.855549210522235e-36
95 3 -2.81617 15.3592 4.4844 -1.2 0.9571446883295102 0.042855293932050155 1.3944382218540045e-15 1.7738431849277033e-08
96 3 0.862762 17.9465 4.4844 -1.2 0.8952425374943863 0.10475745329169764 1.1049098822778734e-15 9.21391395382847e-09
97 3 -2.0185 17.6786 3.18632 -1.2 0.9950780107489906 0.004921988847054846 3.569594364380771e-18 4.0394831424631596e-10
98 3 -2.06164 17.6786 5.78248 -1.2 0.9962247919450665 0.0037752078913745658 3.971069330002352e-19 1.6355808374548144e-10
99 1 1.39817 16.6215 2.9896 1.2 0.9570971522404156 0.04278203344526806 2.5078246965659324e-18 0.00012081431431459072
100 1 4.20062 16.5802 4.4844 1.2 0.9833087394341988 0.014398936228723881 1.763469117844537e-14 0.0022923243370553703
101 2 2.37796 18.645 4.4844 2.4 1.0 3.872286157039117e-22 4.1324081575086697e-38 5.338519486064029e-39
102 3 2.39434 20.2583 4.4844 -1.2 0.9927568624260452 0.007243137330205374 2.71253800305963e-18 2.437508929966549e-10
103 3 -4.24274 17.671 4.4844 -1.2 0.796266940139421 0.20373305224544758 3.630714011641443e-15 7.615131949507636e-09
104 3 3.08659 17.9389 3.18632 -1.2 0.9605802004489153 0.03941979784105146 4.071783301391987e-16 1.710027537732177e-09
105 1 1.44478 16.6215 0 1.2 0.9792799666478857 0.020719966433701723 2.9666755237837677e-21 6.691841550252685e-08
106 3 3.0436 17.9389 5.78248 -1.2 0.992309508179108 0.007690491731608033 2.4320040999857233e-18 8.928068321840426e-11
107 1 -1.40524 16.6628 1.4948 1.2 0.9834895842318083 0.01650959126440727 1.4531655981604905e-19 8.245037782742995e-07
108 2 0.420358 14.5979 1.4948 2.4 0.9999999999999858 2.1354449383312205e-14 3.2617054902335082e-37 8.093664011492118e-34
109 3 0.408732 12.9847 1.4948 -1.2 0.9992582395329653 0.0007417603228579943 3.7853898407728196e-22 1.4417538724042076e-10
110 3 7.03923 15.572 1.4948 -1.2 0.9990839988777112 0.0009160010042516761 2.968423381340688e-22 1.1803978689941892e-10
111 3 -0.248332 15.3041 0.196716 -1.2 0.9967073029442777 0.0032926968085718457 4.6273814087610525e-20 2.471573325183509e-10
112 3 -0.289436 15.3041 2.79288 -1.2 0.991229153362091 0.008770840493397566 5.413279670527377e-18 6.144512207624725e-09
113 1 6.59566 18.996 0 1.2 0.9793446249735602 0.02065536739262527 1.9280210518971982e-20 7.633809502517052e-09
114 1 3.85574 23.7037 1.4948 1.2 0.9686789604130576 0.031320721909343124 3.0012329817257355e-19 3.176775974158579e-07
115 2 5.66125 21.0195 1.4948 2.4 1.0 6.703736088500473e-17 1.0695585938549092e-38 1.574053838844426e-34
116 3 5.72074 22.6328 1.4948 -1.2 0.997505948599139 0.002494051365948588 2.416299579308006e-22 3.491132413459452e-11
117 3 2.03867 20.0455 1.4948 -1.2 0.9992938256042471 0.0007061743736385481 1.520217313010167e-23 2.2114321663533163e-11
118 3 4.96004 20.3134 0.196716 -1.2 0.984728329877858 0.015271669911608264 1.0403110740291754e-18 2.1053348318197358e-10
119 1 6.55057 18.996 2.9896 1.2 0.9650775911341677 0.034886231087063964 2.157207574080829e-18 3.617777876365662e-05
120 3 4.92172 20.3134 2.79288 -1.2 0.9800028333830146 0.019997165763631194 1.909349251611256e-17 8.533538754367883e-10
121 1 -0.84282 19.0373 4.4844 1.2 0.9850713292937932 0.014216153820779148 3.2523437825992086e-16 0.0007125168854260307
122 2 -2.64823 21.7214 4.4844 2.4 1.0 1.8287397754324283e-22 5.902745818594436e-39 3.337720276811309e-39
123 3 -2.70847 20.1082 4.4844 -1.2 0.9832998165839039 0.016700181910136135 1.9449502299798933e-17 1.5059591910929363e-09
124 3 0.97581 22.6955 4.4844 -1.2 0.9263825159597819 0.07361748357487197 1.597505077130941e-17 4.6534127917677443e-10
125 3 -1.9076 22.4276 3.18632 -1.2 0.9894110466386768 0.010588953342077328 3.346220797391709e-18 1.9248675458851447e-11
126 3 -1.9475 22.4276 5.78248 -1.2 0.9951115573457034 0.004888442641969119 7.42110684380714e-20 1.2330712381776635e-11
127 1 1.50678 21.3705 2.9896 1.2 0.9724262922829743 0.02756421194526236 2.0860027628541836e-19 9.495771762774813e-06
128 1 4.31086 21.3292 4.4844 1.2 0.992543141665783 0.00624403443858436 1.2411124578716372e-13 0.0012128238955089736
129 2 2.49243 23.394 4.4844 2.4 1.0 4.112350097526706e-24 1.3940365841134489e-39 2.9129991239788367e-41
130 3 2.51204 25.0073 4.4844 -1.2 0.97955022784788 0.020449772108463694 1.361202525937356e-17 4.365593159283987e-11
131 3 -4.13026 22.42 4.4844 -1.2 0.7804839691241828 0.2195160303910852 2.2622963326625037e-16 4.84729598425119e-10
132 3 3.19799 22.6879 3.18632 -1.2 0.9913185828101496 0.008681417160707342 6.879650766852283e-18 2.914156373371522e-11
133 1 1.5501 21.3705 0 1.2 0.961624185123665 0.03837577016234393 4.0191078491462414e-20 4.4713991839179754e-08
134 3 3.1583 22.6879 5.78248 -1.2 0.9803115618820306 0.019688438094887583 1.1058936536461383e-17 2.3086723232803078e-11
135 1 -1.29822 21.4118 1.4948 1.2 0.9813210214256542 0.018678882224364438 5.538290250641262e-20 9.634998414236146e-08
136 2 0.523568 19.3469 1.4948 2.4 1.0 9.738388874329986e-16 1.0509048306195099e-36 1.0268283496861208e-33
137 3 0.508934 17.7337 1.4948 -1.2 0.99575540610419 0.004244593650897181 3.945617917886721e-21 2.4491093952912287e-10
138 3 7.14425 20.321 1.4948 -1.2 0.9976810849386138 0.0023189150323962367 1.0976462349472867e-21 2.8996465112550684e-11
139 3 -0.145107 20.0531 0.196716 -1.2 0.9857258966484711 0.014274103269939423 1.5361586814673746e-18 8.15833063848816e-11
140 3 -0.183601 20.0531 2.79288 -1.2 0.9949463137001974 0.005053686160997082 3.6964845511862234e-19 1.388028140339044e-10
141 1 6.70502 23.745 0 1.2 0.956839403622753 0.04316059245940519 3.943076486710868e-21 3.917835251408118e-09
142 1 3.97493 28.4527 1.4948 1.2 0.9869348597941775 0.01306513813371971 1.3020121778744866e-22 2.0721018443767167e-09
143 2 5.77602 25.7685 1.4948 2.4 1.0 4.69056919726754e-21 9.8899274812798e-40 3.3033740266128624e-37
144 3 5.83821 27.3818 1.4948 -1.2 0.9995272424072164 0.00047275759183621315 1.0736899756132423e-22 9.50552909148502e-13
145 3 2.15175 24.7945 1.4948 -1.2 0.9997681971176912 0.00023180288159458884 3.819167368582675e-25 7.085640022818525e-13
146 3 5.07184 25.0624 0.196716 -1.2 0.9957689726457988 0.004231027340743929 2.328566429939698e-19 1.3455531082881106e-11
147 1 6.66374 23.745 2.9896 1.2 0.9815893303665756 0.018409946584536676 9.39060281785239e-20 7.230488860274066e-07
148 3 5.03707 25.0624 2.79288 -1.2 0.9889057051343034 0.01109429485225471 8.524848024263804e-18 1.3442487150925086e-11
149 1 -0.727559 23.7863 4.4844 1.2 0.9945274559573178 0.005440546756568496 4.5283938272451254e-17 3.199728610784619e-05
150 2 -2.5277 26.4704 4.4844 2.4 1.0 1.1200322197702618e-25 1.0080029066905291e-39 3.234451182327437e-43
151 3 -2.59107 24.8572 4.4844 -1.2 0.9720407116669293 0.027959288288381814 1.4553473725414525e-17 4.468934625364267e-11
152 3 1.09817 27.4445 4.4844 -1.2 0.9566533146345809 0.04334668534284123 7.170161536737974e-18 2.258193335256898e-11
153 3 -1.78784 27.1766 3.18632 -1.2 0.9781418670104577 0.021858132987952108 1.1288000094791955e-17 1.5939069034304467e-12
154 3 -1.82343 27.1766 5.78248 -1.2 0.9846938844123385 0.015306115584876483 1.5194118250370672e-18 2.7888564616841057e-12
155 1 1.62435 26.1195 2.9896 1.2 0.9877109090656536 0.012289008957536117 7.583480303404739e-22 8.197680998730753e-08
156 1 4.43064 26.0782 4.4844 1.2 0.995736992769876 0.004233614875154674 1.9301585407020003e-14 2.9392354955364444e-05
157 2 2.61607 28.143 4.4844 2.4 1.0 2.701687701252508e-27 2.6983033645219037e-39 6.143151460986484e-44
158 3 2.63853 29.7563 4.4844 -1.2 0.7841019859217662 0.21589801404783276 2.344813094580395e-15 3.040371337169575e-11
159 3 -4.00841 27.169 4.4844 -1.2 0.789591383097459 0.21040861689159734 2.939465396301616e-16 1.0936202367945633e-11
160 3 3.3182 27.4369 3.18632 -1.2 0.9944486933591656 0.005551306638571219 2.581666909418817e-18 2.266234210863176e-12
161 1 1.66335 26.1195 0 1.2 0.9523893060683629 0.04761069139617919 7.334159274712194e-22 2.5354631821258752e-09
162 3 3.28288 27.4369 5.78248 -1.2 0.9259480338480537 0.07405196614666115 1.6102630519808223e-16 5.286343188669336e-12
163 1 -1.18278 26.1608 1.4948 1.2 0.984299846169159 0.015700151973894846 4.960121991828077e-22 1.856945982457584e-09
164 2 0.635424 24.0959 1.4948 2.4 1.0 7.715269248752854e-19 2.23580652929325e-37 1.2971442147208548e-36
165 3 0.617906 22.4827 1.4948 -1.2 0.9972229707689428 0.0027770292184325506 2.047842101111356e-21 1.2625660308119513e-11
166 3 7.25781 25.07 1.4948 -1.2 0.9991851440039382 0.0008148559952634396 7.143527498496513e-23 8.011620069954109e-13
167 3 -0.0337363 24.8021 0.196716 -1.2 0.9973338940741107 0.0026661059223720557 5.2642102344543054e-20 3.5126884701686283e-12
168 3 -0.0687235 24.8021 2.79288 -1.2 0.9961498620337206 0.003850137959909532 3.625710212022048e-19 6.373880300020599e-12
169 1 6.82195 28.494 0 1.2 0.9568804488697986 0.04311954927908203 1.6584381238275088e-22 1.8511136074623643e-09
170 1 4.10106 33.2017 1.4948 1.2 0.9908162015943495 0.009183788714455398 2.4843922067522147e-22 9.691190769579108e-09
171 2 5.89839 30.5175 1.4948 2.4 1.0 8.061042030095961e-25 4.03440933150583e-41 8.414825029816988e-40
172 3 5.96289 32.1308 1.4948 -1.2 0.9993914423051259 0.000608557694073437 4.777080819565195e-22 8.064226357811192e-13
173 3 2.27266 29.5435 1.4948 -1.2 0.999810493290237 0.00018950670918725955 1.9056367692196495e-24 5.721037379908739e-13
174 3 5.19102 29.8114 0.196716 -1.2 0.9998411397953891 0.00015886020435721155 2.008123258199807e-22 2.572117946484486e-13
175 1 6.78546 28.494 2.9896 1.2 0.9945762207703641 0.005423688941488962 2.74813727049036e-20 9.028814714983185e-08
176 3 5.16061 29.8114 2.79288 -1.2 0.9837654241044166 0.016234575893499564 9.786785875018989e-18 2.0774816877819405e-12
177 1 -0.603205 28.5353 4.4844 1.2 0.9980733493569884 0.0019233184622388167 3.504147543222712e-16 3.3321807665223796e-06
178 2 -2.39877 31.2194 4.4844 2.4 1.0 1.3171288597842186e-26 5.37781833441376e-38 5.082312042880724e-44
179 3 -2.46483 29.6062 4.4844 -1.2 0.5137524525868905 0.4862475473969015 6.7386152336123565e-15 1.6205669716676028e-11
180 3 1.22864 32.1935 4.4844 -1.2 0.6551142496097367 0.34488575037247116 7.341817055877134e-16 1.7785681162385857e-11
181 3 -1.66032 31.9256 3.18632 -1.2 0.9131641030914052 0.08683589690530691 2.1651987006795227e-16 3.2847843267818667e-12
182 3 -1.69072 31.9256 5.78248 -1.2 0.7550577165311759 0.24494228346621638 6.894777963773534e-17 2.6083707474571024e-12
183 1 1.7499 30.8685 2.9896 1.2 0.9940766436782874 0.005923287034213544 1.3546704470448186e-21 6.928750090517452e-08
184 1 4.55894 30.8272 4.4844 1.2 0.9991147196694302 0.0008846070235458486 2.5229524047532124e-15 6.733070187147701e-07
185 2 2.7476 32.892 4.4844 2.4 1.0 1.8971662541521945e-26 5.076436609933871e-37 1.3302458821814437e-43
186 3 2.77235 34.5053 4.4844 -1.2 0.15163655774549215 0.8483634422358824 7.19825690718327e-14 1.854686279363214e-11
187 3 -3.87837 31.918 4.4844 -1.2 0.21656741719515735 0.7834325827895643 3.605733640569237e-15 1.527213221554566e-11
188 3 3.44611 32.1859 3.18632 -1.2 0.9661436683338632 0.033856331662657994 6.12599773233193e-17 3.4844037223260067e-12
189 1 1.7837 30.8685 0 1.2 0.9578197085298965 0.042180289845216774 2.2806329460288897e-24 1.6248894408108524e-09
190 3 3.41602 32.1859 5.78248 -1.2 0.2669574995291891 0.7330425004676915 6.222670520713022e-15 3.117378415561246e-12
191 1 -1.05984 30.9098 1.4948 1.2 0.989522741370556 0.01047725734663703 9.547542199564595e-24 1.2828036964757688e-09
192 2 0.755243 28.8449 1.4948 2.4 1.0 2.0297903261891597e-23 7.839605413192637e-40 7.902671913505589e-39
193 3 0.735127 27.2317 1.4948 -1.2 0.9996814587436932 0.0003185412561247637 6.240643028592811e-23 1.8754694034048793e-13
194 3 7.37914 29.819 1.4948 -1.2 0.9993439648202126 0.0006560351788144938 7.999805853659272e-23 9.7420853222505e-13
195 3 0.0850649 29.5511 0.196716 -1.2 0.9988099881703068 0.0011900118289888768 2.0709240730470378e-20 6.991323601475057e-13
196 3 0.0543974 29.5511 2.79288 -1.2 0.9946970795131045 0.005302920485618847 4.1266442721418484e-19 1.2704273465890611e-12
197 1 6.94543 33.243 0 1.2 0.9783033051926118 0.021696694135947516 6.866785883213639e-25 6.714438121678958e-10
198 1 4.23267 37.9507 1.4948 1.2 0.9775651477616328 0.022434726278325767 2.5784599120739445e-20 1.259600422638642e-07
199 2 6.02709 35.2665 1.4948 2.4 1.0 9.667318772128549e-25 1.6793715940403056e-39 3.078095417798287e-38
200 3 6.09339 36.8798 1.4948 -1.2 0.9960404505609771 0.003959549427636227 5.700992834327246e-19 1.1383855760502247e-11
201 3 2.40018 34.2925 1.4948 -1.2 0.9986342486776568 0.0013657513138989716 1.4222138401369735e-21 8.440480726151567e-12
202 3 5.31645 34.5604 0.196716 -1.2 0.9998445102064497 0.00015548979294420268 3.535975302537866e-22 6.014131557857419e-13
203 1 6.91449 33.243 2.9896 1.2 0.9951965480789672 0.0048033187106180835 3.782568756360319e-20 1.33210417844287e-07
204 3 5.291 34.5604 2.79288 -1.2 0.9219864731742209 0.07801352681869812 1.4552781251273956e-16 7.076755127116365e-12
205 1 -0.471101 33.2843 4.4844 1.2 0.9988121752609692 0.0011871438458336276 3.2118210095238428e-15 6.808931910741106e-07
206 2 -2.26307 35.9684 4.4844 2.4 1.0 9.908908722917366e-25 1.8324614862075804e-33 3.9164242888373365e-41
207 3 -2.33122 34.3552 4.4844 -1.2 0.10985354538817695 0.8901464546022076 8.561149551238472e-14 9.532490850712842e-12
208 3 1.36549 36.9425 4.4844 -1.2 0.03600504828266099 0.9639949517023169 2.9745059440892125e-13 1.472835018185639e-11
209 3 -1.52658 36.6746 3.18632 -1.2 0.6308797853054935 0.3691202146856269 9.089637774682713e-15 8.870223300558554e-12
210 3 -1.55122 36.6746 5.78248 -1.2 0.018501726291108647 0.9814982737070903 5.325849427159842e-14 1.7410813410964434e-12
211 1 1.882 35.6175 2.9896 1.2 0.9940152814720618 0.005984534814064964 3.960053950619909e-19 1.8371387761054048e-07
212 1 4.69415 35.5762 4.4844 1.2 0.9993300637042581 0.0006686655642271587 2.6688487451656315e-14 1.270731490767336e-06
213 2 2.88522 37.641 4.4844 2.4 1.0 2.4522865498353803e-24 2.2217889141282967e-33 1.0283150311088147e-40
214 3 2.91159 39.2543 4.4844 -1.2 0.021647461523488783 0.9783525384453723 1.3308147697526814e-12 2.9802515687513345e-11
215 3 -3.74183 36.667 4.4844 -1.2 0.009671830337073773 0.9903281696567504 2.1238778816045164e-13 5.9586848657985864e-12
216 3 3.58014 36.9349 3.18632 -1.2 0.8154581419227872 0.18454185805541862 3.988254890095244e-15 2.1790919392178455e-11
217 1 1.90997 35.6175 0 1.2 0.9688335961984007 0.031166399182672173 1.650709674978612e-23 4.618920522346699e-09
218 3 3.55582 36.9349 5.78248 -1.2 0.08169416675080368 0.9183058332459773 3.863046261434688e-14 3.1744658679702766e-12
219 1 -0.93068 35.6588 1.4948 1.2 0.9915489196157515 0.008451076044895915 3.2273139291275184e-23 4.339346912578245e-09
220 2 0.881882 33.5939 1.4948 2.4 1.0 1.7708504377441857e-25 1.086508825483414e-39 1.6812613446177678e-38
221 3 0.859602 31.9807 1.4948 -1.2 0.9993829872295423 0.0006170127701188334 2.714704686801208e-22 3.3507857175563447e-13
222 3 7.507 34.568 1.4948 -1.2 0.998370482658459 0.0016295173323613824 9.086282747648638e-22 9.18366548390643e-12
223 3 0.210186 34.3001 0.196716 -1.2 0.9989443622269342 0.0010556377707568656 2.4356822092621018e-20 2.309283120271347e-12
224 3 0.184454 34.3001 2.79288 -1.2 0.96212952274501 0.037870477248499 5.609104067908439e-17 6.4848576153592214e-12
225 1 7.07415 37.992 0 1.2 0.9320561258696352 0.0679438573402492 2.3217950680862094e-22 1.679011735031946e-08
226 1 4.36817 42.6997 1.4948 1.2 0.9172248989326256 0.08277082987819552 3.1774834450725267e-16 4.271189175326518e-06
227 2 6.16058 40.0155 1.4948 2.4 1.0 1.992901500564582e-20 1.1357959408201822e-32 1.7126958965203088e-33
228 3 6.22815 41.6288 1.4948 -1.2 0.8567040287746993 0.14329597071023006 1.3514805645949155e-14 5.15052020424576e-10
229 3 2.53282 39.0415 1.4948 -1.2 0.9961906005474859 0.0038093992304508058 1.0026127392317816e-19 2.2205937191014208e-10
230 3 5.44674 39.3094 0.196716 -1.2 0.9987909536968709 0.0012090462824275474 2.956438284824281e-19 2.0697857483813055e-11
231 1 7.04922 37.992 2.9896 1.2 0.9883276812734716 0.011652167749497504 1.7325755670111619e-15 2.015097703142036e-05
232 3 5.42658 39.3094 2.79288 -1.2 0.5970847653789396 0.4029152344977214 4.454857311149377e-14 1.232932439574019e-10
233 1 -0.333062 38.0333 4.4844 1.2 0.9979715429205032 0.0020165602390683724 2.3852037988817432e-12 1.1896838038381594e-05
234 2 -2.12255 40.7174 4.4844 2.4 1.0 2.5380583811422497e-22 3.897547459833098e-29 2.6043915684288913e-38
235 3 -2.19212 39.1042 4.4844 -1.2 0.016333870140569483 0.9836661298462618 2.870499735159139e-12 1.0300123918721021e-11
236 3 1.50676 41.6915 4.4844 -1.2 0.002252614015936052 0.9977473858914088 6.214284272887936e-11 3.0519214122016786e-11
237 3 -1.3884 41.4236 3.18632 -1.2 0.06843821005507533 0.9315617898894869 4.5375908214462745e-12 5.090442692335044e-11
238 3 -1.40713 41.4236 5.78248 -1.2 0.009712700829135014 0.9902872991687153 6.915694880224049e-13 1.4552341394190114e-12
239 1 2.01892 40.3665 2.9896 1.2 0.9460951884007867 0.053323130448818076 1.6996048672603723e-11 0.0005816811334032267
240 1 4.83434 40.3252 4.4844 1.2 0.9978289348468884 0.0021433016245085428 2.153398195317427e-12 2.776352644314586e-05
241 2 3.02698 42.39 4.4844 2.4 1.0 8.892839428551183e-22 5.029269698362954e-29 3.339655485496621e-37
242 3 3.05433 44.0033 4.4844 -1.2 0.012012000739520192 0.9879879992365406 1.5046910579899317e-11 8.890923257859732e-12
243 3 -3.60077 41.416 4.4844 -1.2 0.0030278131729864887 0.9969721868101188 7.545231163933081e-12 9.356435943779997e-12
244 3 3.71851 41.6839 3.18632 -1.2 0.2832297466413104 0.7167702531769703 1.4003666052596092e-12 1.8031689314475303e-10
245 1 2.04077 40.3665 0 1.2 0.8133010947285285 0.18669823232583893 2.8982917181133234e-19 6.72945631056866e-07
246 3 3.70011 41.6839 5.78248 -1.2 0.0018683610687745312 0.99813163892612 2.766418525300537e-12 2.3408314609758836e-12
247 1 -0.796865 40.4078 1.4948 1.2 0.9615445348032988 0.03845505908787359 6.871224178834645e-19 4.061088229691378e-07
248 2 1.01387 38.3429 1.4948 2.4 1.0 1.0586112895152776e-22 8.265869922624248e-35 1.5692843454040931e-35
249 3 0.989947 36.7297 1.4948 -1.2 0.9969523716412699 0.0030476283521945592 5.052759807142311e-20 6.5402653908755085e-12
250 3 7.63988 39.317 1.4948 -1.2 0.9904198438580288 0.009580155833781098 4.48301678290111e-19 3.0819363691523234e-10
251 3 0.340253 39.0491 0.196716 -1.2 0.9968560331174081 0.0031439668391064542 1.4507349607227946e-18 4.3484210771430735e-11
252 3 0.319795 39.0491 2.79288 -1.2 0.6144461604896594 0.38555383928157494 6.574430131662285e-14 2.2869717788337837e-10
253 1 7.20667 42.741 0 1.2 0.6582617273070994 0.34173432913417506 1.54098654179532e-16 3.943558728512691e-06
254 1 4.50613 47.4487 1.4948 1.2 0.9657478918601937 0.034248440387012385 2.756445401881095e-14 3.66775275995059e-06
255 2 6.29731 44.7645 1.4948 2.4 1.0 2.4918359681085124e-18 6.646832202833928e-29 1.2601555598082733e-32