ITEM: TIMESTEP
14600
ITEM: NUMBER OF ATOMS
10500
ITEM: BOX BOUNDS xy xz yz pp pp pp
0	15.2974	5.099
0	118.725	0
0	89.688	0
ITEM: ATOMS id type xu yu zu q pCrystal pDisloC pDisloB pDisloA
1 1 6.2404 -6.37941e-06 0 1.2 6.539336665642834e-21 1.5585792063729385e-09 0.9999999975864142 8.550033701136999e-10
2 1 3.46349 4.70768 1.4948 1.2 1.0471541349769146e-06 0.023533051098106897 0.43892849173903065 0.5375374100087297
3 2 5.2885 2.02354 1.4948 2.4 5.74496539721153e-06 0.996226327102728 0.002634218115898848 0.001133709815974994
4 3 5.33628 3.63678 1.4948 -1.2 5.5619782601115635e-11 0.9999554441599215 4.4551094466333716e-05 4.689986373217485e-09
5 3 1.67294 1.04952 1.4948 -1.2 2.9340250657000485e-17 0.9132954248050924 0.08670456393071703 1.126419095182648e-08
6 3 4.59532 1.31737 0.196716 -1.2 7.016599387688477e-19 0.5461990201411171 0.4538009796353471 2.235391996624194e-10
7 1 6.18956 -6.37941e-06 2.9896 1.2 2.233462283455142e-24 2.221116566377156e-08 0.9999999775977246 1.9111461387824557e-10
8 3 4.55118 1.31737 2.79288 -1.2 2.269516810681103e-20 0.08939250966174535 0.9106074902699947 6.825618795265777e-11
9 1 -1.20682 0.0413099 4.4844 1.2 1.0816665051136785e-28 2.885584655023142e-10 0.9999999996921218 1.9316862693556753e-11
10 2 -3.0337 2.72544 4.4844 2.4 5.553380781675854e-10 0.9989977898918505 0.0008271129226865631 0.00017509663013118483
11 3 -3.08099 1.11221 4.4844 -1.2 8.956842915052653e-26 0.012828721923256426 0.9871712780749887 1.758344955892066e-12
12 3 0.582463 3.69946 4.4844 -1.2 2.2441409405117625e-15 0.9940790943182638 0.005920903232600173 2.4491306697443856e-09
13 3 -2.29524 3.43162 3.18632 -1.2 4.4741937164876314e-14 0.9995878858983049 0.0004121128031773898 1.2984698783088158e-09
14 3 -2.34216 3.43162 5.78248 -1.2 3.514658078246962e-18 0.9511427139999425 0.04885728522945733 7.706004104030954e-10
15 1 1.12778 2.37449 2.9896 1.2 6.168930447507863e-18 4.100906859981691e-06 0.9999951787918182 7.203013180000254e-07
16 1 3.92855 2.33318 4.4844 1.2 1.2209855564977661e-23 6.3896693957333786e-09 0.9999999510010736 4.2609250245216384e-08
17 2 2.09341 4.39804 4.4844 2.4 0.41786558275460145 0.582120397572401 1.4005491925023525e-05 1.4181077265843047e-08
18 3 2.09991 6.01128 4.4844 -1.2 2.7310138641301366e-07 0.9999986725219969 9.877538950697303e-07 6.662272206780907e-08
19 3 -4.52137 3.42402 4.4844 -1.2 6.512055368332136e-17 0.9669600174380125 0.033039981180405645 1.3815815587974465e-09
20 3 2.80834 3.69187 3.18632 -1.2 1.309030580174242e-14 0.999207196595711 0.0007928029965914963 4.0768869754388566e-10
21 1 1.17857 2.37449 0 1.2 1.6893963813672914e-17 5.593035227861784e-06 0.9999622120558632 3.219490891217906e-05
22 3 2.76143 3.69187 5.78248 -1.2 1.0895572944530663e-19 0.9381749730657888 0.06182502688954727 4.4660966608830314e-11
23 1 -1.67381 2.41581 1.4948 1.2 1.61174105616707e-10 0.006591029155388915 0.9897482412021207 0.0036607294813133153
24 2 0.16286 0.350945 1.4948 2.4 2.2018484686760213e-08 0.557400601927126 0.005409271011267405 0.43719010504312006
25 3 0.15972 -1.26229 1.4948 -1.2 2.421942360593595e-15 0.9764504154222181 0.023549296336496602 2.8824128148812347e-07
26 3 6.77654 1.32496 1.4948 -1.2 6.213269760785809e-15 0.9925709456560411 0.007429027082570683 2.7261384303543572e-08
27 3 -0.508028 1.05712 0.196716 -1.2 4.439832546639523e-19 0.3085279953912235 0.6914719937980585 1.081071289817592e-08
28 3 -0.552171 1.05712 2.79288 -1.2 1.9968789578749608e-20 0.35134523987370747 0.6486547595107391 6.155592028075184e-10
29 1 6.31713 4.74899 0 1.2 6.5157511259043945e-09 0.0169076975660023 0.884450125574066 0.09864217034418518
30 1 3.54847 9.45668 1.4948 1.2 0.9359376289696326 0.06388368461311379 7.321704962573206e-15 0.00017868641724063
31 2 5.36879 6.77254 1.4948 2.4 0.9999999935450319 6.454967466879665e-09 4.991240133376592e-23 9.24530302223318e-22
32 3 5.41937 8.38578 1.4948 -1.2 0.9424213142429141 0.05757865066865713 6.090299864819432e-16 3.508843295623198e-08
33 3 1.75158 5.79852 1.4948 -1.2 0.0007844759943048544 0.9992147790728186 6.246093999688283e-11 7.448704223632273e-07
34 3 4.67421 6.06637 0.196716 -1.2 1.634777294328929e-06 0.9999982443626215 1.1336972707514067e-07 7.490358402958064e-09
35 1 6.26654 4.74899 2.9896 1.2 2.8655388420736457e-08 0.0013071405575526627 0.2427655414735242 0.7559272893135391
36 3 4.63043 6.06637 2.79288 -1.2 2.3136302017001874e-06 0.9999975687632481 7.560856003990668e-08 4.199798725989238e-08
37 1 -1.12976 4.79031 4.4844 1.2 2.147037189743678e-09 4.188405432160199e-05 0.8849586324762465 0.11499948132239377
38 2 -2.9517 7.47444 4.4844 2.4 0.9999999998781561 1.218389096842724e-10 1.195872164850038e-19 8.159597212547297e-23
39 3 -3.00198 5.86121 4.4844 -1.2 3.986048833577493e-09 0.9999890717358823 1.0911458653296887e-05 1.2819414344898287e-08
40 3 0.666315 8.44846 4.4844 -1.2 0.006367837858918737 0.9936317659151926 1.8568334452654367e-09 3.943690513533294e-07
41 3 -2.21213 8.18062 3.18632 -1.2 0.012100627562061208 0.9878993169182185 2.8593129608608504e-10 5.523378767340727e-08
42 3 -2.25864 8.18062 5.78248 -1.2 0.0005737317699760961 0.9994260956093711 6.958774447034789e-08 1.0303290821555148e-07
43 1 1.20893 7.12349 2.9896 1.2 0.0955135463344045 0.43240860600046765 8.433227364378011e-07 0.47207700434238725
44 1 4.00982 7.08218 4.4844 1.2 0.0007380015608437899 0.002647435621975361 0.0005054161767516251 0.9961091466404238
45 2 2.17861 9.14704 4.4844 2.4 1.0 6.93771535458836e-16 5.604697998297988e-29 2.5937566812114106e-31
46 3 2.18828 10.7603 4.4844 -1.2 0.8485563366476013 0.15144355991280578 1.1611800526345292e-13 1.0343948235978495e-07
47 3 -4.43805 8.17302 4.4844 -1.2 0.001165878836986712 0.9988339647677802 4.630819447673527e-08 1.1008703617584102e-07
48 3 2.89193 8.44087 3.18632 -1.2 0.05275311212962568 0.947246644529726 6.144196244341778e-11 2.432792028034397e-07
49 1 1.25915 7.12349 0 1.2 0.05961386792696387 0.5818095481730531 3.851426153361594e-07 0.3585761987573688
50 3 2.84547 8.44087 5.78248 -1.2 0.0013064780034416025 0.9986933821556748 2.1219236881032124e-08 1.1862164267436126e-07
51 1 -1.59284 7.16481 1.4948 1.2 0.14376239590249082 0.7784062893261727 1.099364055823154e-07 0.07783120483493237
52 2 0.240329 5.09994 1.4948 2.4 0.999475991375952 0.0005240086183942907 5.42300388867621e-15 5.648381866188084e-12
53 3 0.234538 3.48671 1.4948 -1.2 1.774097925689796e-12 0.9999358645337553 6.409221778888546e-05 4.324667803931599e-08
54 3 6.85564 6.07396 1.4948 -1.2 1.349355168190685e-05 0.9999864164985578 4.774860573451506e-09 8.517490461024421e-08
55 3 -0.429565 5.80612 0.196716 -1.2 2.2240295186765321e-07 0.9999995346162026 2.3556438402666467e-07 7.416464066556225e-09
56 3 -0.473377 5.80612 2.79288 -1.2 1.1597366243850057e-07 0.9999994378805769 4.3869057794803204e-07 7.455176871573572e-09
57 1 6.40169 9.49799 0 1.2 0.9400517902421005 0.05992254402125646 1.250046171502758e-14 2.566573663585423e-05
58 1 3.64209 14.2057 1.4948 1.2 0.9770556655088336 0.022942202454250132 1.1454444752628668e-19 2.1320369226058005e-06
59 2 5.45748 11.5215 1.4948 2.4 1.0 4.195570784851768e-15 1.7017735151046966e-37 2.582255988124659e-33
60 3 5.51101 13.1348 1.4948 -1.2 0.9996239950850893 0.00037600420067261035 2.3266661593428337e-23 7.142331834676283e-10
61 3 1.83851 10.5475 1.4948 -1.2 0.9991748279724202 0.0008251712882960565 1.1254319388343034e-20 7.392891640006926e-10
62 3 4.7611 10.8154 0.196716 -1.2 0.974581627866813 0.02541836930093263 1.3148143165161186e-16 2.8322589306055718e-09
63 1 6.35203 9.49799 2.9896 1.2 0.8645108664046011 0.13089032066563822 3.878638032770469e-14 0.004598812929719306
64 3 4.71833 10.8154 2.79288 -1.2 0.9752002591607299 0.024799733979860406 8.853353738558421e-16 6.8594026626723645e-09
65 1 -1.0438 9.53931 4.4844 1.2 0.7715807224826714 0.06229234249272305 7.919971299287562e-10 0.1661269342326034
66 2 -2.8604 12.2234 4.4844 2.4 1.0 5.040844581938306e-19 1.2792160721911078e-34 2.2502993860003706e-35
67 3 -2.91391 10.6102 4.4844 -1.2 0.9125899780875385 0.08740997458205313 1.729620188882799e-14 4.733039046333232e-08
68 3 0.7596 13.1975 4.4844 -1.2 0.7827928601458821 0.21720708256160648 4.4498094255542165e-14 5.7292465381578913e-08
69 3 -2.12001 12.9296 3.18632 -1.2 0.9894386102610172 0.010561387621572509 3.559883832378281e-17 2.117410356257805e-09
70 3 -2.16532 12.9296 5.78248 -1.2 0.9659386909668207 0.03406130759514527 4.52312524477381e-16 1.4380346652114315e-09
71 1 1.29891 11.8725 2.9896 1.2 0.9469841593728682 0.0522416397484332 9.082521493739607e-17 0.0007742008786989413
72 1 4.10033 11.8312 4.4844 1.2 0.9464630068644734 0.020738242209031654 1.2236911387331276e-12 0.03279875092527807
73 2 2.27333 13.896 4.4844 2.4 1.0 8.975536090775823e-21 5.752862038036405e-37 2.0097985718261574e-38
74 3 2.28634 15.5093 4.4844 -1.2 0.9976955448404217 0.002304454864394039 6.946299778784159e-19 2.951886436337504e-10
75 3 -4.34533 12.922 4.4844 -1.2 0.6013435801158524 0.39865637244737007 3.8934226844294215e-13 4.7436383612529906e-08
76 3 2.98455 13.1899 3.18632 -1.2 0.9695037906527323 0.03049620412507137 2.1608744938737795e-15 5.222200181519655e-09
77 1 1.34779 11.8725 0 1.2 0.9697842701846642 0.030206267085726657 2.2927543762660347e-18 9.462729609719531e-06
78 3 2.93934 13.1899 5.78248 -1.2 0.8621562351310718 0.13784376263625364 1.549779306145004e-14 2.232662057794411e-09
79 1 -1.50344 11.9138 1.4948 1.2 0.9691672273532236 0.030821790265910136 2.244233373751799e-18 1.0982380863912647e-05
80 2 0.326006 9.84894 1.4948 2.4 0.9999999999999574 3.765189175750389e-14 1.588556538521385e-34 1.8864403241810972e-32
81 3 0.317364 8.23571 1.4948 -1.2 0.7152765204257983 0.28472338899907024 1.0147302114430889e-14 9.057512743729186e-08
82 3 6.94307 10.823 1.4948 -1.2 0.9979328201475437 0.0020671788121875956 1.60701987439593e-20 1.040270177251249e-09
83 3 -0.343122 10.5551 0.196716 -1.2 0.9726436134610763 0.02735638420895668 1.9700296645810827e-16 2.329965885260796e-09
84 3 -0.385966 10.5551 2.79288 -1.2 0.9700352016087305 0.029964788511547432 1.5278098655769753e-15 9.879715599012444e-09
85 1 6.49448 14.247 0 1.2 0.9855159185139128 0.01448399395957236 4.129161991366916e-21 8.752652125222923e-08
86 1 3.74457 18.9547 1.4948 1.2 0.9724727429260284 0.027525453315174763 3.795587536778116e-19 1.803758796515121e-06
87 2 5.55495 16.2705 1.4948 2.4 1.0 8.955021723926586e-16 1.4411167265988194e-39 1.2951628362719113e-33
88 3 5.6115 17.8838 1.4948 -1.2 0.9989999298382521 0.0010000700251843776 5.145041147617959e-23 1.3656516877423953e-10
89 3 1.93416 15.2965 1.4948 -1.2 0.9998090281771934 0.0001909717713755533 3.2879553364354626e-24 5.143029098320679e-11
90 3 4.85636 15.5644 0.196716 -1.2 0.9990136589984306 0.0009863408340306298 2.9621498354055807e-21 1.6753670546225226e-10
91 1 6.44662 14.247 2.9896 1.2 0.9718956857210188 0.02806569803177898 2.6991226955018896e-19 3.8616247206169025e-05
92 3 4.81537 15.5644 2.79288 -1.2 0.9967559280364705 0.0032440714378456216 1.9673001733448318e-18 5.256849526156785e-10
93 1 -0.948271 14.2883 4.4844 1.2 0.97087328744262 0.020332888212499404 8.182052681411606e-15 0.008793824344872244
94 2 -2.75928 16.9724 4.4844 2.4 1.0 4.829884262813101e-22 2.4725949438490128e-39 4.872849555935557e-39
95 3 -2.81617 15.3592 4.4844 -1.2 0.990600892288021 0.009399105509835077 3.7453726757233375e-17 2.2021477349943733e-09
96 3 0.862762 17.9465 4.4844 -1.2 0.9560280606837229 0.0439719389848013 9.8401272947273e-17 3.3147426022021176e-10
97 3 -2.0185 17.6786 3.18632 -1.2 0.9952448598714393 0.004755140052431514 1.370543186864778e-18 7.61349511743695e-11
98 3 -2.06164 17.6786 5.78248 -1.2 0.9954367070891382 0.004563292901462811 6.988899125523676e-19 9.402432303397284e-12
99 1 1.39817 16.6215 2.9896 1.2 0.965424563405515 0.034528863783222494 1.4411515051162125e-19 4.6572811259420434e-05
100 1 4.20062 16.5802 4.4844 1.2 0.982433686368488 0.012259977135128879 2.943224902411138e-14 0.005306336496356854
101 2 2.37796 18.645 4.4844 2.4 1.0 9.197015979332913e-24 2.1145112735282166e-40 4.894220466651646e-42
102 3 2.39434 20.2583 4.4844 -1.2 0.9956301677267192 0.004369832255055295 1.2394338450682489e-18 1.8226993520783037e-11
103 3 -4.24274 17.671 4.4844 -1.2 0.8247821991447694 0.17521779988779737 1.3512259052496846e-15 9.674332093426798e-10
104 3 3.08659 17.9389 3.18632 -1.2 0.9705410657848194 0.02945893394559165 3.2591167176901028e-16 2.695876548620439e-10
105 1 1.44478 16.6215 0 1.2 0.9673792353900578 0.03262063823488527 1.0028418619645549e-21 1.2637505145150114e-07
106 3 3.0436 17.9389 5.78248 -1.2 0.9927945530893262 0.007205446904204627 9.727960520449861e-19 6.4723119960461646e-12
107 1 -1.40524 16.6628 1.4948 1.2 0.9770861129980044 0.02291358703986002 1.278303482531609e-21 2.9996213480042867e-07
108 2 0.420358 14.5979 1.4948 2.4 1.0 8.631142723277861e-16 1.1901947334894375e-38 1.3197327623706504e-33
109 3 0.408732 12.9847 1.4948 -1.2 0.9991680613218298 0.0008319384760451182 8.084126135577734e-22 2.0212390605667163e-10
110 3 7.03923 15.572 1.4948 -1.2 0.9995552083651208 0.0004447915106000839 3.275611455998577e-23 1.2428240056728998e-10
111 3 -0.248332 15.3041 0.196716 -1.2 0.9965763832199497 0.0034236163614651555 4.285936685267258e-20 4.1858788296724535e-10
112 3 -0.289436 15.3041 2.79288 -1.2 0.9982199557494258 0.0017800435789584864 1.0862070072512607e-19 6.716138493696017e-10
113 1 6.59566 18.996 0 1.2 0.9785740816070277 0.0214259136572063 8.726240172734769e-22 4.735767633860579e-09
114 1 3.85574 23.7037 1.4948 1.2 0.9798544073731856 0.020145562760723955 7.240202819517536e-21 2.986608473323821e-08
115 2 5.66125 21.0195 1.4948 2.4 1.0 1.7661364903345435e-18 5.318098953653627e-40 2.5103344457425233e-35
116 3 5.72074 22.6328 1.4948 -1.2 0.9985533994552647 0.0014466005377004832 1.9486350650309092e-22 7.0343443151995174e-12
117 3 2.03867 20.0455 1.4948 -1.2 0.9996955399919195 0.00030446000362468827 4.591735899936248e-24 4.452932536645379e-12
118 3 4.96004 20.3134 0.196716 -1.2 0.9986851957814232 0.0013148041987735436 5.371759763462246e-21 1.9808045835465043e-11
119 1 6.55057 18.996 2.9896 1.2 0.9789150256697694 0.02107877836218761 1.729325103415721e-19 6.195968041534456e-06
120 3 4.92172 20.3134 2.79288 -1.2 0.9929951905475278 0.0070048094133958305 2.2408410247411467e-18 3.908099506904176e-11
121 1 -0.84282 19.0373 4.4844 1.2 0.9926997397935424 0.0070768948154920795 4.379154115685093e-16 0.00022336539096617857
122 2 -2.64823 21.7214 4.4844 2.4 1.0 1.4199340534079876e-25 1.4899271583131912e-41 2.9117501162658597e-43
123 3 -2.70847 20.1082 4.4844 -1.2 0.9881706253786642 0.011829374590731898 6.5838046561244206e-18 3.0602310325535985e-11
124 3 0.97581 22.6955 4.4844 -1.2 0.8421491157211112 0.1578508842501134 5.6814341893332e-17 2.8782320056564857e-11
125 3 -1.9076 22.4276 3.18632 -1.2 0.9942069320323553 0.005793067966529906 9.968509490279911e-19 1.1157726569059154e-12
126 3 -1.9475 22.4276 5.78248 -1.2 0.993931789417123 0.006068210582369878 6.288020341369968e-20 5.06419014049664e-13
127 1 1.50678 21.3705 2.9896 1.2 0.982648721186084 0.017350409078143062 1.7992366715154044e-20 8.697357781075691e-07
128 1 4.31086 21.3292 4.4844 1.2 0.9972699089675496 0.002699101210146493 1.1066573808234836e-15 3.098982230360279e-05
129 2 2.49243 23.394 4.4844 2.4 1.0 1.7874869771650778e-25 6.667953956584539e-41 6.185892591757333e-43
130 3 2.51204 25.0073 4.4844 -1.2 0.9676039628211228 0.03239603717376197 2.6324833091006345e-17 5.109550745482927e-12
131 3 -4.13026 22.42 4.4844 -1.2 0.7715649080196516 0.22843509195147274 3.1467699611315696e-16 2.888097862420156e-11
132 3 3.19799 22.6879 3.18632 -1.2 0.986145727087897 0.013854272908470385 8.602431208108647e-18 3.6320507635045887e-12
133 1 1.5501 21.3705 0 1.2 0.9597415025087223 0.040258483755454946 1.2105646794543709e-21 1.3735822310443664e-08
134 3 3.1583 22.6879 5.78248 -1.2 0.97016957515763 0.02983042484193388 3.626969440249074e-18 4.3629667575936535e-13
135 1 -1.29822 21.4118 1.4948 1.2 0.9841674321088456 0.015832555013646867 2.059668873048118e-21 1.2877501074652383e-08
136 2 0.523568 19.3469 1.4948 2.4 1.0 3.105999634413557e-17 2.083457647372847e-38 3.001990679223746e-34
137 3 0.508934 17.7337 1.4948 -1.2 0.9983915721940964 0.0016084277125712346 4.677862993034764e-22 9.333530254290999e-11
138 3 7.14425 20.321 1.4948 -1.2 0.9991954327003334 0.0008045672956832346 1.0140816158456481e-22 3.983472356652254e-12
139 3 -0.145107 20.0531 0.196716 -1.2 0.9941645311050735 0.005835468842117399 3.0571094631476767e-19 5.280497530314996e-11
140 3 -0.183601 20.0531 2.79288 -1.2 0.9969406491633941 0.003059350826867806 2.254764613723426e-19 9.738366475410333e-12
141 1 6.70502 23.745 0 1.2 0.9734896927843733 0.026510306627760216 1.147095192223474e-22 5.878655234882783e-10
142 1 3.97493 28.4527 1.4948 1.2 0.9875045089253327 0.01249549037243214 1.3436393586642363e-23 7.022367953488807e-10
143 2 5.77602 25.7685 1.4948 2.4 1.0 4.998044128767966e-22 2.099270682692816e-40 4.1249938657742204e-38
144 3 5.83821 27.3818 1.4948 -1.2 0.9997951567484841 0.00020484325135629978 2.2307177270680428e-23 1.6024485305981172e-13
145 3 2.15175 24.7945 1.4948 -1.2 0.9998344940613075 0.00016550593854524674 3.7805930045146997e-25 1.4713448321827189e-13
146 3 5.07184 25.0624 0.196716 -1.2 0.9993769018940325 0.0006230981047589104 1.11696909926336e-21 1.205222719307648e-12
147 1 6.66374 23.745 2.9896 1.2 0.9865964170401714 0.013403482841947183 8.324337814755395e-21 1.001178789347184e-07
148 3 5.03707 25.0624 2.79288 -1.2 0.9920490449165196 0.007950955081456136 3.168767174682512e-18 2.0292694546291487e-12
149 1 -0.727559 23.7863 4.4844 1.2 0.9966708469277482 0.003315219984320151 2.4764037613382764e-15 1.3933087933879554e-05
150 2 -2.5277 26.4704 4.4844 2.4 1.0 1.1381507194865911e-26 7.877850056684243e-41 8.350338119471727e-45
151 3 -2.59107 24.8572 4.4844 -1.2 0.9572345491598138 0.042765450836477294 1.596015780457018e-17 3.701918043209479e-12
152 3 1.09817 27.4445 4.4844 -1.2 0.9382324963798255 0.06176750361614234 7.688832617017658e-18 4.0298240503356154e-12
153 3 -1.78784 27.1766 3.18632 -1.2 0.9877059257380842 0.012294074261605689 3.949546171140349e-18 3.1578869242159955e-13
154 3 -1.82343 27.1766 5.78248 -1.2 0.9554986630830594 0.044501336916583784 7.227139908129258e-19 3.5109551099817183e-13
155 1 1.62435 26.1195 2.9896 1.2 0.9919984352173741 0.008001552323525198 9.792124905300047e-23 1.2459101408294766e-08
156 1 4.43064 26.0782 4.4844 1.2 0.9976446116017116 0.002353029965607262 1.749942148390267e-15 2.358432681255793e-06
157 2 2.61607 28.143 4.4844 2.4 1.0 1.5006927959114354e-27 8.494277557566609e-41 7.086367961724258e-45
158 3 2.63853 29.7563 4.4844 -1.2 0.6968809759352422 0.30311902405973057 2.391636601801069e-15 5.018782186821307e-12
159 3 -4.00841 27.169 4.4844 -1.2 0.7468631308718419 0.2531368691250182 1.2095863014256757e-16 3.1451834907189828e-12
160 3 3.3182 27.4369 3.18632 -1.2 0.993472381367243 0.006527618632166573 1.5480191950787789e-18 5.842637209769865e-13
161 1 1.66335 26.1195 0 1.2 0.9669500714353922 0.0330499278957099 4.463622219749941e-23 6.688967059252034e-10
162 3 3.28288 27.4369 5.78248 -1.2 0.7156571847928253 0.28434281520654386 2.569102683051194e-16 6.329436319610211e-13
163 1 -1.18278 26.1608 1.4948 1.2 0.9892076513979071 0.010792348348219719 9.990024507970718e-24 2.538747691269625e-10
164 2 0.635424 24.0959 1.4948 2.4 1.0 4.176476304978714e-20 2.4594264019694907e-38 2.1496773022010408e-37
165 3 0.617906 22.4827 1.4948 -1.2 0.9984316024179489 0.00156839757915456 1.421857569655706e-21 2.896876514095458e-12
166 3 7.25781 25.07 1.4948 -1.2 0.9995854322867609 0.00041456771306833926 2.3431693072405314e-23 1.7626239627325684e-13
167 3 -0.0337363 24.8021 0.196716 -1.2 0.9990152856429969 0.0009847143561514272 7.670065052575121e-21 8.448534517830111e-13
168 3 -0.0687235 24.8021 2.79288 -1.2 0.9968188896709775 0.0031811103275610183 1.9222148797740423e-19 1.4631242466253315e-12
169 1 6.82195 28.494 0 1.2 0.9663497850757967 0.03365021429309275 3.826913594998459e-24 6.311133973925778e-10
170 1 4.10106 33.2017 1.4948 1.2 0.9867700717113772 0.013229922706817393 7.510784954142125e-24 5.581806693501867e-09
171 2 5.89839 30.5175 1.4948 2.4 1.0 6.971420861122608e-26 2.2473648062528614e-42 5.72275206942035e-41
172 3 5.96289 32.1308 1.4948 -1.2 0.9998180957387537 0.00018190426082064545 1.920523190986344e-23 4.2890501533547617e-13
173 3 2.27266 29.5435 1.4948 -1.2 0.9999060957208129 9.390427909297532e-05 3.9574265415089184e-25 1.0026135779448094e-13
174 3 5.19102 29.8114 0.196716 -1.2 0.9999560669081679 4.393309174307437e-05 1.9363406713996356e-24 9.427791276872059e-14
175 1 6.78546 28.494 2.9896 1.2 0.9930406510174755 0.006959331301373992 2.6240535334767436e-21 1.768114715088857e-08
176 3 5.16061 29.8114 2.79288 -1.2 0.9955944624834676 0.004405537516215451 4.915596465479994e-19 3.220125656038259e-13
177 1 -0.603205 28.5353 4.4844 1.2 0.9984580942171373 0.0015412556805040232 4.541964064567462e-16 6.501023565571505e-07
178 2 -2.39877 31.2194 4.4844 2.4 1.0 1.2269183410240202e-27 4.371447596366641e-40 6.510715613669195e-45
179 3 -2.46483 29.6062 4.4844 -1.2 0.49361331366821026 0.5063866863279688 2.4505939410771927e-15 3.817467179175394e-12
180 3 1.22864 32.1935 4.4844 -1.2 0.6917246046173693 0.3082753953766037 2.185057677307818e-16 6.0240883683756795e-12
181 3 -1.66032 31.9256 3.18632 -1.2 0.9607159291828837 0.0392840708161647 1.9170291667835656e-17 9.538348304009075e-13
182 3 -1.69072 31.9256 5.78248 -1.2 0.6435334957934968 0.35646650420523085 5.459283665775457e-17 1.2694730926192162e-12
183 1 1.7499 30.8685 2.9896 1.2 0.9930248737399219 0.006975112587243341 3.1430535681919116e-22 1.3672839096314498e-08
184 1 4.55894 30.8272 4.4844 1.2 0.9987677808967603 0.0012317988485471747 2.6848381369987812e-16 4.2025469611415803e-07
185 2 2.7476 32.892 4.4844 2.4 1.0 5.28136538264956e-28 2.725496192158805e-39 4.193729483429593e-46
186 3 2.77235 34.5053 4.4844 -1.2 0.2856941917690576 0.7143058082268268 7.394361391289709e-14 4.040046482759221e-12
187 3 -3.87837 31.918 4.4844 -1.2 0.34681230543421876 0.6531876945604435 7.285125601409654e-16 5.34212716296329e-12
188 3 3.44611 32.1859 3.18632 -1.2 0.9829365901451627 0.01706340985344444 5.8795528100581865e-18 1.388235580004226e-12
189 1 1.7837 30.8685 0 1.2 0.9682512821191144 0.03174871731662975 8.218652635487382e-26 5.642522080048672e-10
190 3 3.41602 32.1859 5.78248 -1.2 0.2849259849917176 0.7150740150071259 2.759546753104871e-15 1.1478183038732763e-12
191 1 -1.05984 30.9098 1.4948 1.2 0.9906264111845688 0.009373588681199346 2.218617473779726e-25 1.3422562999014056e-10
192 2 0.755243 28.8449 1.4948 2.4 1.0 8.904725892467608e-25 3.94419547557036e-41 2.027480934468674e-40
193 3 0.735127 27.2317 1.4948 -1.2 0.9997948065089654 0.0002051934909861513 2.368378697586337e-23 4.476854964700406e-14
194 3 7.37914 29.819 1.4948 -1.2 0.9996529911972712 0.0003470088024627718 1.1086226493357186e-23 2.674250754360827e-13
195 3 0.0850649 29.5511 0.196716 -1.2 0.999300470763042 0.0006995292364365015 5.306585730079742e-21 5.253217267772721e-13
196 3 0.0543974 29.5511 2.79288 -1.2 0.9961836232319631 0.003816376767814468 1.78511271639404e-19 2.212015060888379e-13
197 1 6.94543 33.243 0 1.2 0.9754646487994745 0.024535350697353468 1.992679687092539e-25 5.031729615796021e-10
198 1 4.23267 37.9507 1.4948 1.2 0.983965898824206 0.01603408139595292 1.581557922575398e-21 1.9779843887707547e-08
199 2 6.02709 35.2665 1.4948 2.4 1.0 3.5247564908625347e-25 3.679011254981439e-40 6.788834412332773e-39
200 3 6.09339 36.8798 1.4948 -1.2 0.9983224761997714 0.0016775237962988881 1.2435674054953698e-19 3.923817572769016e-12
201 3 2.40018 34.2925 1.4948 -1.2 0.9990132739882803 0.0009867260066756345 6.9368652491293955e-22 5.042223760565186e-12
202 3 5.31645 34.5604 0.196716 -1.2 0.9998994113068754 0.00010058869250567613 6.27163478404153e-23 6.135509845010554e-13
203 1 6.91449 33.243 2.9896 1.2 0.9944291873646226 0.00557076868657502 7.561436943732365e-22 4.394879900765465e-08
204 3 5.291 34.5604 2.79288 -1.2 0.9561532441280657 0.04384675586770477 5.851539503803464e-17 4.223443834440679e-12
205 1 -0.471101 33.2843 4.4844 1.2 0.9989488838934156 0.0010510268702476773 1.3256755072212364e-16 8.923633441682524e-08
206 2 -2.26307 35.9684 4.4844 2.4 1.0 7.858083576062551e-27 2.0096033897655062e-36 4.0253952471459064e-44
207 3 -2.33122 34.3552 4.4844 -1.2 0.24545149754201856 0.7545485024504425 1.888925597641316e-14 7.513156194059303e-12
208 3 1.36549 36.9425 4.4844 -1.2 0.04277652430905289 0.9572234756853041 4.4402568261565536e-13 5.196288322985601e-12
209 3 -1.52658 36.6746 3.18632 -1.2 0.923672459457845 0.07632754053995824 5.390901906651213e-16 2.1902978772627405e-12
210 3 -1.55122 36.6746 5.78248 -1.2 0.0728868177726089 0.9271131822253665 6.526773493961351e-15 2.0156719365382244e-12
211 1 1.882 35.6175 2.9896 1.2 0.9910455508329765 0.008954359238455225 2.9692814624524605e-20 8.992856276881181e-08
212 1 4.69415 35.5762 4.4844 1.2 0.9993403022779651 0.0006594948123813508 3.225358232569867e-15 2.0290964390705038e-07
213 2 2.88522 37.641 4.4844 2.4 1.0 2.5429917968727265e-25 1.012532279446583e-34 2.5957591752097454e-42
214 3 2.91159 39.2543 4.4844 -1.2 0.04660438234035098 0.9533956176552058 2.1794739550502842e-12 2.26283235968032e-12
215 3 -3.74183 36.667 4.4844 -1.2 0.05251578170508035 0.9474842182865437 1.209554239008415e-13 8.258316465784443e-12
216 3 3.58014 36.9349 3.18632 -1.2 0.8797869117172735 0.12021308827542816 2.1062882430629024e-15 7.294822774588782e-12
217 1 1.90997 35.6175 0 1.2 0.9635274111991626 0.03647258450864236 6.997692275631513e-24 4.292199304522804e-09
218 3 3.55582 36.9349 5.78248 -1.2 0.034678261610163304 0.9653217383894426 3.9136736208784425e-14 3.55249486943537e-13
219 1 -0.93068 35.6588 1.4948 1.2 0.9911171565008053 0.00888284241202778 1.0224286281037887e-23 1.087164096595314e-09
220 2 0.881882 33.5939 1.4948 2.4 1.0 3.854115730573987e-26 1.2928766558706682e-40 5.5085393436465376e-39
221 3 0.859602 31.9807 1.4948 -1.2 0.9998072864606654 0.000192713539245986 1.4552083452161093e-23 9.127375157363543e-14
222 3 7.507 34.568 1.4948 -1.2 0.998149531705839 0.0018504682889428933 1.7040324291430966e-21 5.210955975298004e-12
223 3 0.210186 34.3001 0.196716 -1.2 0.9993947597674987 0.0006052402311803461 8.983501048107481e-21 1.3197971482031394e-12
224 3 0.184454 34.3001 2.79288 -1.2 0.9805581211056856 0.019441878892941848 1.3573595697859191e-17 1.3781815112081593e-12
225 1 7.07415 37.992 0 1.2 0.9416899982402785 0.058309987805230536 1.1692201691294722e-22 1.3954483832431015e-08
226 1 4.36817 42.6997 1.4948 1.2 0.938929492006214 0.06106921516449679 3.030152244707633e-17 1.2928292929195899e-06
227 2 6.16058 40.0155 1.4948 2.4 1.0 8.89628480508771e-22 7.149481212144997e-34 6.257690861209963e-35
228 3 6.22815 41.6288 1.4948 -1.2 0.9084729511669342 0.09152704869642331 7.272842972730362e-15 1.3663085713335433e-10
229 3 2.53282 39.0415 1.4948 -1.2 0.9979802364071746 0.0020197635147693074 3.31003834864673e-20 7.805659655982591e-11
230 3 5.44674 39.3094 0.196716 -1.2 0.9990647158967667 0.0009352840928828921 2.502305069043801e-19 1.0345901256369461e-11
231 1 7.04922 37.992 2.9896 1.2 0.9880318098622557 0.011964401272640385 6.534691531233723e-17 3.7888651005247817e-06
232 3 5.42658 39.3094 2.79288 -1.2 0.7773272830840883 0.2226727169035791 2.6032855473919776e-14 1.2306897594806419e-11
233 1 -0.333062 38.0333 4.4844 1.2 0.9986406699786923 0.001357758659713992 4.673434883486155e-14 1.5713615486866423e-06
234 2 -2.12255 40.7174 4.4844 2.4 1.0 8.057214647177534e-25 9.334590589022131e-33 5.233728636581067e-42
235 3 -2.19212 39.1042 4.4844 -1.2 0.0885690239040362 0.9114309760915736 7.039563932532882e-13 3.687623142224621e-12
236 3 1.50676 41.6915 4.4844 -1.2 0.002477461223647749 0.9975225387611127 1.3339416556071811e-11 1.899522638110302e-12
237 3 -1.3884 41.4236 3.18632 -1.2 0.08457527677864247 0.9154247232075284 1.3666103480860912e-12 1.246943098395409e-11
238 3 -1.40713 41.4236 5.78248 -1.2 0.029173907629624397 0.970826092369719 7.89952163392244e-14 5.734966582663406e-13
239 1 2.01892 40.3665 2.9896 1.2 0.9557815002393979 0.04416720783870067 2.903614104956688e-13 5.129192161645937e-05
240 1 4.83434 40.3252 4.4844 1.2 0.9967789255461214 0.003203959898993806 1.9066130284957196e-12 1.7114552978027357e-05
241 2 3.02698 42.39 4.4844 2.4 1.0 2.153775119656224e-23 1.3068412405231215e-30 3.8584214831317785e-40
242 3 3.05433 44.0033 4.4844 -1.2 0.01524636893898526 0.9847536310563598 3.3422609276079988e-12 1.3167719548020357e-12
243 3 -3.60077 41.416 4.4844 -1.2 0.009514037771295482 0.9904859622211587 4.267879110096475e-12 3.2828636708179522e-12
244 3 3.71851 41.6839 3.18632 -1.2 0.2879861948409239 0.7120138051373096 1.473235998807527e-12 2.0298213765014357e-11
245 1 2.04077 40.3665 0 1.2 0.8117928241040295 0.18820692707704292 2.0614907320501928e-20 2.4881892315995295e-07
246 3 3.70011 41.6839 5.78248 -1.2 0.001515797307372252 0.9984842026914325 1.0824597860871698e-12 1.1762175653248325e-13
247 1 -0.796865 40.4078 1.4948 1.2 0.9577133184008187 0.04228650575057284 1.7259798368425742e-19 1.7584860574023533e-07
248 2 1.01387 38.3429 1.4948 2.4 1.0 1.819653329716258e-23 7.405184961044505e-36 2.2422349378978747e-36
249 3 0.989947 36.7297 1.4948 -1.2 0.9989685833399635 0.001031416658946635 1.3094883326160871e-20 1.0953151157666471e-12
250 3 7.63988 39.317 1.4948 -1.2 0.9947873550059152 0.005212644890468209 1.8939678380077113e-19 1.036213976174518e-10
251 3 0.340253 39.0491 0.196716 -1.2 0.9990000465930116 0.0009999533824482246 1.0926732788280847e-19 2.4541752545477767e-11
252 3 0.319795 39.0491 2.79288 -1.2 0.8762897177412767 0.12371028224538137 7.016522020616128e-15 1.3331682949686973e-11
253 1 7.20667 42.741 0 1.2 0.7770487678984612 0.22295046797922657 1.1672410542447981e-17 7.641223112836747e-07
254 1 4.50613 47.4487 1.4948 1.2 0.9750798144773702 0.0249191867024883 1.9789300643936054e-15 9.98820138869139e-07
255 2 6.29731 44.7645 1.4948 2.4 1.0 1.2739852187217877e-19 2.0403585417301787e-30 1.1430868409515982e-33
256 3 6.36567 46.3778 1.4948 -1.2 0.4649082372480909 0.5350917626765385 7.422808015475738e-13 7.463379392153946e-11