ITEM: TIMESTEP
3200
ITEM: NUMBER OF ATOMS
10500
ITEM: BOX BOUNDS xy xz yz pp pp pp
0	15.2974	5.099
0	118.725	0
0	89.688	0
ITEM: ATOMS id type xu yu zu q pCrystal pDisloC pDisloB pDisloA
1 1 6.2404 -6.37941e-06 0 1.2 6.649208908519193e-22 8.796636126582168e-10 0.9999999982639594 8.563707319614439e-10
2 1 3.46349 4.70768 1.4948 1.2 8.542241553385859e-07 0.03658677293864775 0.28964709870507854 0.67376527413212
3 2 5.2885 2.02354 1.4948 2.4 2.59509461422134e-07 0.9891767447270525 0.0061857092092914515 0.004637286554191235
4 3 5.33628 3.63678 1.4948 -1.2 3.231468021571344e-11 0.9999682152320378 3.177268134820128e-05 1.2054303247377002e-08
5 3 1.67294 1.04952 1.4948 -1.2 2.871077581095999e-17 0.9456878126601134 0.05431217993322073 7.406664182053915e-09
6 3 4.59532 1.31737 0.196716 -1.2 1.6489868771636186e-19 0.44050040141481683 0.559499598499223 8.595438767017788e-11
7 1 6.18956 -6.37941e-06 2.9896 1.2 8.953882061358386e-25 2.648387881493308e-08 0.999999973233557 2.8256163526089493e-10
8 3 4.55118 1.31737 2.79288 -1.2 2.993070005877707e-22 0.023671946547619636 0.976328053436239 1.614147056941427e-11
9 1 -1.20682 0.0413099 4.4844 1.2 1.1312514345053362e-28 9.707321656426305e-10 0.9999999990182289 1.1038910957373179e-11
10 2 -3.0337 2.72544 4.4844 2.4 1.8686400085492708e-11 0.9984190312671591 0.0012598376861322799 0.0003211310280264278
11 3 -3.08099 1.11221 4.4844 -1.2 2.1820696755847093e-25 0.011698328573569169 0.9883016714254446 9.836333256208172e-13
12 3 0.582463 3.69946 4.4844 -1.2 6.67260535663206e-15 0.9962180005482079 0.0037819926898484983 6.761934797693147e-09
13 3 -2.29524 3.43162 3.18632 -1.2 3.476226581455299e-14 0.9997377200318702 0.0002622734312226741 6.536872155345738e-09
14 3 -2.34216 3.43162 5.78248 -1.2 2.6838733658266614e-18 0.8953987398755423 0.10460125910126568 1.0231873990238889e-09
15 1 1.12778 2.37449 2.9896 1.2 2.1126780825568416e-18 4.172443867278692e-06 0.9999947112905847 1.1162655508505947e-06
16 1 3.92855 2.33318 4.4844 1.2 2.6446188198977796e-24 8.08278812438e-09 0.9999999328550211 5.9062190369981256e-08
17 2 2.09341 4.39804 4.4844 2.4 0.025704204601712043 0.9742578535620859 3.781748143910968e-05 1.2435476206731936e-07
18 3 2.09991 6.01128 4.4844 -1.2 9.131162592664705e-08 0.9999985821996905 1.147365795817965e-06 1.7912288293937026e-07
19 3 -4.52137 3.42402 4.4844 -1.2 7.339084739284458e-18 0.8341325300458 0.1658674674633388 2.490865749601976e-09
20 3 2.80834 3.69187 3.18632 -1.2 1.2068104216051831e-14 0.99889636218267 0.0011036365320085213 1.2853157907658337e-09
21 1 1.17857 2.37449 0 1.2 2.988217075136992e-19 9.93247591873973e-07 0.9999982920907319 7.146616701755218e-07
22 3 2.76143 3.69187 5.78248 -1.2 1.8653667986700377e-19 0.8829947631413094 0.1170052365507744 3.079153351794811e-10
23 1 -1.67381 2.41581 1.4948 1.2 1.3185019218951201e-11 0.0021617745199409124 0.9969515228468773 0.0008867026200034646
24 2 0.16286 0.350945 1.4948 2.4 6.313415038324501e-09 0.6908744447840013 0.010163466912598718 0.2989620819899865
25 3 0.15972 -1.26229 1.4948 -1.2 1.8705073581106842e-15 0.9790068056651704 0.020992974446391074 2.1988844339442897e-07
26 3 6.77654 1.32496 1.4948 -1.2 2.3032698965873906e-15 0.9900736391388495 0.009926341316770887 1.9544372349879296e-08
27 3 -0.508028 1.05712 0.196716 -1.2 1.2723488726482757e-19 0.22379767769395914 0.7762023208402395 1.4657998975999907e-09
28 3 -0.552171 1.05712 2.79288 -1.2 3.55777808711548e-21 0.24317379159623784 0.7568262080263846 3.773754346211752e-10
29 1 6.31713 4.74899 0 1.2 7.742492326364235e-09 0.03977049994810514 0.8899826103693631 0.0702468819400396
30 1 3.54847 9.45668 1.4948 1.2 0.8760843349728498 0.12323364656242704 2.4098571096680774e-14 0.0006820184647040585
31 2 5.36879 6.77254 1.4948 2.4 0.9999999706659257 2.9334080856122622e-08 1.000922240266219e-22 1.0852411344683575e-19
32 3 5.41937 8.38578 1.4948 -1.2 0.9208448311506549 0.07915509974458364 4.759003407340523e-16 6.910475852518992e-08
33 3 1.75158 5.79852 1.4948 -1.2 0.0010828461843988108 0.9989162635207951 5.737076326254258e-11 8.902374380082264e-07
34 3 4.67421 6.06637 0.196716 -1.2 1.8719965490726597e-06 0.9999980774938712 3.8926993153437136e-08 1.1582581508887623e-08
35 1 6.26654 4.74899 2.9896 1.2 1.2341341916913485e-08 0.0029643044465787493 0.08173704501586382 0.9152986381962098
36 3 4.63043 6.06637 2.79288 -1.2 4.987925740692431e-07 0.9999992318925274 1.7883021650864287e-07 9.048468216141607e-08
37 1 -1.12976 4.79031 4.4844 1.2 1.3364973541556815e-10 0.00010435761034047472 0.9382345375141488 0.061661104741858375
38 2 -2.9517 7.47444 4.4844 2.4 0.9999999926121177 7.387885786572351e-09 9.608261234344357e-18 2.4455472407385545e-19
39 3 -3.00198 5.86121 4.4844 -1.2 2.5439231320993246e-09 0.9999902201267228 9.758738298189007e-06 1.8591059020247687e-08
40 3 0.666315 8.44846 4.4844 -1.2 0.0014857398656792427 0.9985136731967006 2.900542359870351e-09 5.840370780374365e-07
41 3 -2.21213 8.18062 3.18632 -1.2 0.0051728314387147435 0.9948270496336596 3.073304864107296e-10 1.1862029045234395e-07
42 3 -2.25864 8.18062 5.78248 -1.2 0.00023444364768169992 0.9997652780318921 3.788660410644397e-08 2.4043382490668407e-07
43 1 1.20893 7.12349 2.9896 1.2 0.019544917696019883 0.2872649039795727 5.214787187153965e-06 0.6931849635372169
44 1 4.00982 7.08218 4.4844 1.2 0.0008589384528523775 0.0063728545227129275 0.0005724390802608525 0.9921957679441759
45 2 2.17861 9.14704 4.4844 2.4 1.0 6.407468650024908e-15 4.1742599558563785e-27 1.6269810034015147e-28
46 3 2.18828 10.7603 4.4844 -1.2 0.45364717432990076 0.546352513055515 9.107174510946313e-13 3.126136797722176e-07
47 3 -4.43805 8.17302 4.4844 -1.2 0.0001261465133224927 0.9998735391847305 1.0115633750163576e-07 2.13145608640986e-07
48 3 2.89193 8.44087 3.18632 -1.2 0.029829976872293457 0.9701697362551427 8.025860807323772e-11 2.8679230172622723e-07
49 1 1.25915 7.12349 0 1.2 0.10507610093669968 0.8122622544044984 2.6211896708699683e-07 0.08266138253983288
50 3 2.84547 8.44087 5.78248 -1.2 0.0005484238779787322 0.9994514098106045 8.309133763402155e-09 1.5800228163088743e-07
51 1 -1.59284 7.16481 1.4948 1.2 0.09737673265765776 0.8096914654362252 6.508806694882563e-08 0.09293173681805522
52 2 0.240329 5.09994 1.4948 2.4 0.9977214978604838 0.0022785021302368703 2.331511102798888e-14 9.254077796598191e-12
53 3 0.234538 3.48671 1.4948 -1.2 1.1971671957245092e-12 0.9998957554047775 0.00010421497428785497 2.961973261106504e-08
54 3 6.85564 6.07396 1.4948 -1.2 1.2081368402961391e-05 0.999987775838472 3.0977681035781488e-09 1.396953576046299e-07
55 3 -0.429565 5.80612 0.196716 -1.2 5.897808545865092e-07 0.9999993105008361 9.457052790481462e-08 5.14778206659439e-09
56 3 -0.473377 5.80612 2.79288 -1.2 7.238259303966143e-08 0.999999117163006 7.911152050272297e-07 1.9339193791970714e-08
57 1 6.40169 9.49799 0 1.2 0.9452912204866176 0.054698491227521226 1.075491988043842e-15 1.0288285860263973e-05
58 1 3.64209 14.2057 1.4948 1.2 0.9679340015693965 0.032061575951790884 1.1230246530334823e-19 4.4224788173433805e-06
59 2 5.45748 11.5215 1.4948 2.4 0.9999999999999858 1.519211111932537e-14 1.7189026542809123e-36 1.3564673693334345e-32
60 3 5.51101 13.1348 1.4948 -1.2 0.9990164137809869 0.0009835846887310293 6.081101993386816e-22 1.5302769001222995e-09
61 3 1.83851 10.5475 1.4948 -1.2 0.9984163041849254 0.0015836941852501115 2.2559975986088702e-20 1.6298209443663677e-09
62 3 4.7611 10.8154 0.196716 -1.2 0.9920678498080634 0.007932149049268422 6.372882623945195e-18 1.1426735486863167e-09
63 1 6.35203 9.49799 2.9896 1.2 0.7180780997056398 0.2642975702261524 8.047426120021469e-13 0.017624330067401727
64 3 4.71833 10.8154 2.79288 -1.2 0.917693127410007 0.08230683518932419 8.27112464980375e-15 3.740066365102655e-08
65 1 -1.0438 9.53931 4.4844 1.2 0.5920769588797109 0.13929247635173095 5.447269856515414e-09 0.26863055932128443
66 2 -2.8604 12.2234 4.4844 2.4 1.0 3.677337638340051e-18 1.4186041690740506e-32 6.94405785926683e-33
67 3 -2.91391 10.6102 4.4844 -1.2 0.7617215383576473 0.2382780778052183 4.074559334448987e-14 3.8383709885372793e-07
68 3 0.7596 13.1975 4.4844 -1.2 0.6206154347243111 0.37938445019808764 1.0647975798424414e-13 1.1507749329540132e-07
69 3 -2.12001 12.9296 3.18632 -1.2 0.9356947413487083 0.06430524078065303 1.1278158649442563e-15 1.7870633432010186e-08
70 3 -2.16532 12.9296 5.78248 -1.2 0.879710131286012 0.12028985554751245 3.066131678757678e-15 1.3166475645914142e-08
71 1 1.29891 11.8725 2.9896 1.2 0.9022855793047722 0.08845669249659457 1.9868513068763874e-15 0.00925772819862985
72 1 4.10033 11.8312 4.4844 1.2 0.8950721511373305 0.03462269482406307 5.205765159248393e-12 0.07030515403340593
73 2 2.27333 13.896 4.4844 2.4 1.0 2.943347590089211e-20 2.9004713473175867e-36 4.3644954383166475e-36
74 3 2.28634 15.5093 4.4844 -1.2 0.9966858626271988 0.0033141349919370996 8.320427341257971e-19 2.3808680000615832e-09
75 3 -4.34533 12.922 4.4844 -1.2 0.22325170872666728 0.7767481439049415 3.085454159584972e-12 1.473652991020764e-07
76 3 2.98455 13.1899 3.18632 -1.2 0.873577063140985 0.1264229154532074 1.8151142380463427e-14 2.1405796385646575e-08
77 1 1.34779 11.8725 0 1.2 0.9715676275483077 0.028427879654561648 6.827999051397107e-19 4.492797130955381e-06
78 3 2.93934 13.1899 5.78248 -1.2 0.7750688706450879 0.2249311173943527 3.652414522807749e-14 1.1960523687784892e-08
79 1 -1.50344 11.9138 1.4948 1.2 0.9697631925895044 0.030217714587718235 9.067944169489176e-18 1.909282277247202e-05
80 2 0.326006 9.84894 1.4948 2.4 0.9999999999999147 8.431245068694165e-14 9.332912010946098e-35 9.795942736990612e-32
81 3 0.317364 8.23571 1.4948 -1.2 0.7823556450288723 0.21764426078787227 2.0124964859243585e-15 9.418325368446573e-08
82 3 6.94307 10.823 1.4948 -1.2 0.9961232319921045 0.0038767669302772786 4.753035689154884e-20 1.0776166684555983e-09
83 3 -0.343122 10.5551 0.196716 -1.2 0.9807532127541699 0.019246785710538613 4.1544820820148707e-17 1.5352894931164294e-09
84 3 -0.385966 10.5551 2.79288 -1.2 0.8043733768262509 0.19562653821140963 6.187397024683049e-14 8.49622767206802e-08
85 1 6.49448 14.247 0 1.2 0.9878085531648825 0.012191416802738832 1.4003036864954213e-21 3.003238200763781e-08
86 1 3.74457 18.9547 1.4948 1.2 0.9709747826861082 0.029024383388568584 4.130005813812342e-19 8.339253285121208e-07
87 2 5.55495 16.2705 1.4948 2.4 1.0 1.4092280942733047e-15 2.5211242344380132e-39 8.495398259069381e-34
88 3 5.6115 17.8838 1.4948 -1.2 0.9978371814104008 0.0021628183290525404 2.3797721478473674e-22 2.6054976081706906e-10
89 3 1.93416 15.2965 1.4948 -1.2 0.9997675448541531 0.0002324550872478704 4.153145033065581e-24 5.860317947942065e-11
90 3 4.85636 15.5644 0.196716 -1.2 0.9985674152784415 0.0014325845907707461 1.4625759153011833e-20 1.307931814974108e-10
91 1 6.44662 14.247 2.9896 1.2 0.9575866525255285 0.04228422964617824 3.873874554317543e-18 0.0001291178282889264
92 3 4.81537 15.5644 2.79288 -1.2 0.9957240560852227 0.004275943180888287 1.4622913388808988e-18 7.33886618507733e-10
93 1 -0.948271 14.2883 4.4844 1.2 0.9405413532826348 0.04050379658290944 4.851104809229959e-15 0.018954850134444288
94 2 -2.75928 16.9724 4.4844 2.4 1.0 1.7894641259294405e-21 6.768835824867564e-39 1.8374094911886412e-37
95 3 -2.81617 15.3592 4.4844 -1.2 0.9774277993669874 0.022572197334296124 1.3440451594572156e-16 3.298714242541058e-09
96 3 0.862762 17.9465 4.4844 -1.2 0.9609341204979569 0.03906587696202364 3.47397584288302e-17 2.5400195035772893e-09
97 3 -2.0185 17.6786 3.18632 -1.2 0.9878192288285553 0.012180770904446542 1.1164215165822818e-17 2.6700431505838003e-10
98 3 -2.06164 17.6786 5.78248 -1.2 0.9973341271569152 0.002665872825729918 4.825239390761761e-19 1.7360391872557015e-11
99 1 1.39817 16.6215 2.9896 1.2 0.9591366888505669 0.040835085016619914 7.546433111598799e-20 2.8226132810552304e-05
100 1 4.20062 16.5802 4.4844 1.2 0.9599710780777208 0.02768701868406993 6.734722229152413e-15 0.01234190323820426
101 2 2.37796 18.645 4.4844 2.4 1.0 3.768341324308678e-23 1.3319194028911698e-39 9.574405205897998e-40
102 3 2.39434 20.2583 4.4844 -1.2 0.9988102041896615 0.001189795771353226 7.1692785603331e-20 3.8984025786544435e-11
103 3 -4.24274 17.671 4.4844 -1.2 0.9044175770769896 0.09558241891556461 4.462655798221877e-16 4.007438714036983e-09
104 3 3.08659 17.9389 3.18632 -1.2 0.9747705213965244 0.02522947773645948 1.2414844707366125e-16 8.670162581339404e-10
105 1 1.44478 16.6215 0 1.2 0.9790329600134723 0.020966989243599316 3.0589338355155703e-21 5.0742925044031875e-08
106 3 3.0436 17.9389 5.78248 -1.2 0.99493806013283 0.00506193983302443 4.744029267735087e-18 3.414599189271768e-11
107 1 -1.40524 16.6628 1.4948 1.2 0.9780519001700143 0.02194751697807501 4.4120160690542e-20 5.828519093059495e-07
108 2 0.420358 14.5979 1.4948 2.4 1.0 1.8426228460716737e-15 2.2012544962356937e-38 1.1816381802933317e-33
109 3 0.408732 12.9847 1.4948 -1.2 0.9988576022069153 0.0011423974525002995 7.148853404867709e-22 3.4057862324493455e-10
110 3 7.03923 15.572 1.4948 -1.2 0.9993665621403937 0.000633437770484824 6.156319878950189e-23 8.91226300647543e-11
111 3 -0.248332 15.3041 0.196716 -1.2 0.9966884678243197 0.003311531974074471 7.492599224199276e-20 2.0160312524397286e-10
112 3 -0.289436 15.3041 2.79288 -1.2 0.9962631553406772 0.0037368438179252185 1.0858083733739462e-18 8.4140244796169e-10
113 1 6.59566 18.996 0 1.2 0.9869814438137201 0.013018553408629544 9.104718614681312e-21 2.7776507739814566e-09
114 1 3.85574 23.7037 1.4948 1.2 0.9737470901237866 0.026252782311517387 1.9616621083352006e-20 1.2756469483104448e-07
115 2 5.66125 21.0195 1.4948 2.4 1.0 5.2235985361555796e-18 9.876491673840626e-40 7.507741471160619e-35
116 3 5.72074 22.6328 1.4948 -1.2 0.9974264922365854 0.0025735077359470065 3.797431267267787e-22 2.7470036522485743e-11
117 3 2.03867 20.0455 1.4948 -1.2 0.9995606668658908 0.00043933313042741646 1.6915778268773544e-24 3.685284264491651e-12
118 3 4.96004 20.3134 0.196716 -1.2 0.9979497882866418 0.0020502117020659506 7.388597549832646e-21 1.1293401102628417e-11
119 1 6.55057 18.996 2.9896 1.2 0.9610457702997309 0.03893971706624349 3.6643766497717825e-19 1.4512634028604786e-05
120 3 4.92172 20.3134 2.79288 -1.2 0.9974512387230716 0.0025487612264297466 1.952286040044708e-19 5.049734901313021e-11
121 1 -0.84282 19.0373 4.4844 1.2 0.9821180764057936 0.017708469825573923 1.7861037773451247e-17 0.0001734537686303489
122 2 -2.64823 21.7214 4.4844 2.4 1.0 4.1555007127652776e-24 1.1157547242580491e-40 1.5133077751750826e-40
123 3 -2.70847 20.1082 4.4844 -1.2 0.9969840971464117 0.0030159027982843796 4.602026565089688e-19 5.530949750905196e-11
124 3 0.97581 22.6955 4.4844 -1.2 0.9865117829896148 0.013488216913858734 7.019406211156791e-19 9.652309725548173e-11
125 3 -1.9076 22.4276 3.18632 -1.2 0.9949676817559147 0.005032318236559285 4.814114995299837e-19 7.52575709384817e-12
126 3 -1.9475 22.4276 5.78248 -1.2 0.998424614160402 0.00157538583581404 1.422239828251545e-20 3.780614065211677e-12
127 1 1.50678 21.3705 2.9896 1.2 0.9753982833586765 0.024600026785621613 1.3625389528001594e-20 1.6898557018115288e-06
128 1 4.31086 21.3292 4.4844 1.2 0.9855001163875613 0.013724160644929437 4.004458470349736e-15 0.0007757229675051348
129 2 2.49243 23.394 4.4844 2.4 1.0 4.217427524064228e-25 7.300301824368319e-41 1.7299959240979083e-40
130 3 2.51204 25.0073 4.4844 -1.2 0.9839906203785731 0.01600937952142366 1.841156283740685e-17 1.0000476967355904e-10
131 3 -4.13026 22.42 4.4844 -1.2 0.912794486298897 0.08720551346595214 7.973992693175417e-17 2.3515089962992884e-10
132 3 3.19799 22.6879 3.18632 -1.2 0.9928782585417796 0.007121741439640427 1.233969219376491e-18 1.8577985879156053e-11
133 1 1.5501 21.3705 0 1.2 0.9777454065435923 0.022254590510578296 2.202128123143128e-21 2.9458315515962717e-09
134 3 3.1583 22.6879 5.78248 -1.2 0.9980005456382222 0.001999454359015013 1.4874196836379004e-19 2.7626516264589235e-12
135 1 -1.29822 21.4118 1.4948 1.2 0.9834994670894102 0.01650049154568257 8.229058870150243e-21 4.136490986841582e-08
136 2 0.523568 19.3469 1.4948 2.4 1.0 1.5112752203344356e-17 3.008324040677546e-38 2.50903386608285e-35
137 3 0.508934 17.7337 1.4948 -1.2 0.9968658266208615 0.003134173268609791 1.5655059802469483e-21 1.1052830112209404e-10
138 3 7.14425 20.321 1.4948 -1.2 0.9985563193791406 0.001443680616624532 1.1536877474756957e-22 4.238290909438064e-12
139 3 -0.145107 20.0531 0.196716 -1.2 0.983733855279586 0.016266144680020505 6.645541766469044e-18 4.039287045803693e-11
140 3 -0.183601 20.0531 2.79288 -1.2 0.9971548015119412 0.0028451984634414516 7.634023358167335e-20 2.4613862994581654e-11
141 1 6.70502 23.745 0 1.2 0.9661245633590929 0.03387543442092357 5.753548921251397e-22 2.2199833354283874e-09
142 1 3.97493 28.4527 1.4948 1.2 0.9780137618506739 0.021986227672822056 5.403534205736407e-23 1.0476510084621526e-08
143 2 5.77602 25.7685 1.4948 2.4 1.0 6.596537318931332e-22 7.040316784574913e-41 5.643041076826748e-37
144 3 5.83821 27.3818 1.4948 -1.2 0.9997840288984488 0.00021597110005271958 4.6122114279971706e-24 1.4996557295101387e-12
145 3 2.15175 24.7945 1.4948 -1.2 0.9998757132820324 0.0001242867173933869 4.697809947628571e-26 5.701741094100945e-13
146 3 5.07184 25.0624 0.196716 -1.2 0.9993857793236003 0.0006142206748531928 2.9491542476587224e-22 1.5431491874556997e-12
147 1 6.66374 23.745 2.9896 1.2 0.9742845348459706 0.02571488974371015 2.3297963984711015e-21 5.754103203215649e-07
148 3 5.03707 25.0624 2.79288 -1.2 0.9971820841595447 0.0028179158313735905 1.0334222768428751e-19 9.082564801302304e-12
149 1 -0.727559 23.7863 4.4844 1.2 0.9920073144198966 0.007979606186613312 9.799348629248593e-18 1.3079393488281895e-05
150 2 -2.5277 26.4704 4.4844 2.4 1.0 1.3755861284808865e-26 1.376201617847244e-40 2.1189099878202236e-42
151 3 -2.59107 24.8572 4.4844 -1.2 0.9856937323437386 0.014306267594607317 7.638953536507156e-18 6.164899237732703e-11
152 3 1.09817 27.4445 4.4844 -1.2 0.9849868233631536 0.015013176621572963 6.101055934863971e-19 1.527344304452924e-11
153 3 -1.78784 27.1766 3.18632 -1.2 0.9963002960782557 0.003699703919352637 2.3342840085947755e-19 2.389570595003861e-12
154 3 -1.82343 27.1766 5.78248 -1.2 0.9951836776165607 0.004816322379960651 1.229310968437719e-19 3.4856786417110785e-12
155 1 1.62435 26.1195 2.9896 1.2 0.9740060265595378 0.0259937571576751 5.106459944490946e-22 2.1628278007295082e-07
156 1 4.43064 26.0782 4.4844 1.2 0.9964203299781328 0.0035675236588971603 2.3011720432548255e-16 1.2146362968052025e-05
157 2 2.61607 28.143 4.4844 2.4 1.0 7.528790274604096e-27 2.329462523824295e-39 9.730086656698264e-43
158 3 2.63853 29.7563 4.4844 -1.2 0.9079356254533473 0.09206437451404845 8.381477105137032e-16 3.261049523841583e-11
159 3 -4.00841 27.169 4.4844 -1.2 0.8723839092001632 0.12761609074645838 5.749895359725423e-17 5.3384152688634865e-11
160 3 3.3182 27.4369 3.18632 -1.2 0.9967169337114432 0.0032830662844798002 5.984333649699612e-19 4.078548941797216e-12
161 1 1.66335 26.1195 0 1.2 0.968406393859755 0.03159360593464991 2.3659400106749463e-24 2.0560097854204528e-10
162 3 3.28288 27.4369 5.78248 -1.2 0.9708929483127712 0.029107051684149017 1.14195605154739e-17 3.078062318282879e-12
163 1 -1.18278 26.1608 1.4948 1.2 0.9825752637064331 0.01742473527438656 3.844711341426747e-24 1.0191849459498366e-09
164 2 0.635424 24.0959 1.4948 2.4 1.0 1.8580846799988132e-20 7.379127998112939e-39 6.970683462121417e-37
165 3 0.617906 22.4827 1.4948 -1.2 0.9989293980903033 0.0010706019064162372 1.1209551788565558e-22 3.2736550855454853e-12
166 3 7.25781 25.07 1.4948 -1.2 0.9996523802074393 0.0003476197918559162 5.768045593661757e-25 6.998764176631234e-13
167 3 -0.0337363 24.8021 0.196716 -1.2 0.9986394494720345 0.001360550525597689 1.4419524547636178e-20 2.364789724655166e-12
168 3 -0.0687235 24.8021 2.79288 -1.2 0.997464642402741 0.002535357590937095 8.286949853525298e-20 6.326739024521719e-12
169 1 6.82195 28.494 0 1.2 0.9445139010737247 0.05548609729399587 2.281126841172977e-23 1.6322826302055918e-09
170 1 4.10106 33.2017 1.4948 1.2 0.9854978374016533 0.014502141652403107 1.2307147983980484e-22 2.0945937747873382e-08
171 2 5.89839 30.5175 1.4948 2.4 1.0 6.239176970490582e-25 1.1594440024792064e-41 1.5205860223920942e-39
172 3 5.96289 32.1308 1.4948 -1.2 0.9997676965255007 0.0002323034734817781 4.699016925974786e-23 1.0215291653958197e-12
173 3 2.27266 29.5435 1.4948 -1.2 0.999912666915907 8.733308333910718e-05 1.477220111705389e-25 7.506621329182531e-13
174 3 5.19102 29.8114 0.196716 -1.2 0.9999267392214468 7.326077834965605e-05 7.133001659442026e-24 1.9746741405321034e-13
175 1 6.78546 28.494 2.9896 1.2 0.9890906847980614 0.010909011520232903 1.744686350751021e-21 3.0368170765854353e-07
176 3 5.16061 29.8114 2.79288 -1.2 0.9960754860222463 0.0039245139757176795 1.2892367973125845e-19 2.035982870466953e-12
177 1 -0.603205 28.5353 4.4844 1.2 0.9974360064879333 0.0025623516422018052 2.1801539798131133e-18 1.641869860030442e-06
178 2 -2.39877 31.2194 4.4844 2.4 1.0 1.401863206364348e-26 2.3701711690252244e-37 1.4507940884976795e-42
179 3 -2.46483 29.6062 4.4844 -1.2 0.8135130458501593 0.18648695407414534 4.79965743566549e-16 7.569958751884057e-11
180 3 1.22864 32.1935 4.4844 -1.2 0.842604167588689 0.15739583239209903 1.7018989987269518e-16 1.9213433409591972e-11
181 3 -1.66032 31.9256 3.18632 -1.2 0.9660340073496944 0.03396599264673398 3.668166410389825e-17 3.567723489093982e-12
182 3 -1.69072 31.9256 5.78248 -1.2 0.8594852112401933 0.1405147887452431 2.8190343141965763e-16 1.456329488882472e-11
183 1 1.7499 30.8685 2.9896 1.2 0.9939975991470684 0.006002367937707499 2.7657535244769187e-22 3.291521960708978e-08
184 1 4.55894 30.8272 4.4844 1.2 0.9981913993847356 0.0018062822312705537 3.0807451598346394e-16 2.3183839996327685e-06
185 2 2.7476 32.892 4.4844 2.4 1.0 2.3613227943578333e-26 2.08054115930362e-36 1.1058005283076965e-42
186 3 2.77235 34.5053 4.4844 -1.2 0.11027552877347199 0.8897244711878773 9.64937457138135e-13 3.7679590111538186e-11
187 3 -3.87837 31.918 4.4844 -1.2 0.6013582197784938 0.398641780182259 1.6814823842084363e-15 3.924103853912541e-11
188 3 3.44611 32.1859 3.18632 -1.2 0.9864708389283998 0.01352916106879957 1.0698353371091095e-17 2.796483362971164e-12
189 1 1.7837 30.8685 0 1.2 0.9474239860435617 0.052576012375900566 1.0499734685733332e-25 1.5805339221685425e-09
190 3 3.41602 32.1859 5.78248 -1.2 0.4467147031378941 0.5532852968483946 1.881441391162663e-14 1.3695143798979855e-11
191 1 -1.05984 30.9098 1.4948 1.2 0.9847114754829711 0.015288523462607364 3.314553911648887e-25 1.0544252235438248e-09
192 2 0.755243 28.8449 1.4948 2.4 1.0 1.206697217851871e-24 1.1287444501947182e-40 7.153653332302059e-39
193 3 0.735127 27.2317 1.4948 -1.2 0.9998461312357628 0.00015386876408678826 4.4348299650676065e-24 1.4813423576341884e-13
194 3 7.37914 29.819 1.4948 -1.2 0.9997110935386465 0.0002889064602342247 2.4654409704236234e-24 1.1250570225551093e-12
195 3 0.0850649 29.5511 0.196716 -1.2 0.9989801548935812 0.0010198451050085898 7.108017886325188e-21 1.4150779131487676e-12
196 3 0.0543974 29.5511 2.79288 -1.2 0.9983550093839119 0.0016449906135172073 3.0496730437876124e-20 2.564185431108543e-12
197 1 6.94543 33.243 0 1.2 0.9748838567119454 0.025116142731038568 2.548608696418801e-25 5.570136851225219e-10
198 1 4.23267 37.9507 1.4948 1.2 0.9725993733662466 0.02740055425685584 5.073612252375167e-20 7.237689596945208e-08
199 2 6.02709 35.2665 1.4948 2.4 1.0 4.16077801581492e-24 2.0494871510502189e-38 2.6521916308623332e-37
200 3 6.09339 36.8798 1.4948 -1.2 0.9947096790068135 0.005290320974908419 2.486444786074139e-18 1.8277194761047044e-11
201 3 2.40018 34.2925 1.4948 -1.2 0.9988205499612636 0.0011794500326078223 3.760022199830701e-21 6.128114303318885e-12
202 3 5.31645 34.5604 0.196716 -1.2 0.9999078313433041 9.216865628364593e-05 1.2209576411046617e-22 4.1152269978063027e-13
203 1 6.91449 33.243 2.9896 1.2 0.9944256887947229 0.00557419345230731 1.0189018178374394e-20 1.1775296372775886e-07
204 3 5.291 34.5604 2.79288 -1.2 0.9459036886806037 0.05409631130147818 3.616801767101072e-16 1.7910684914721912e-11
205 1 -0.471101 33.2843 4.4844 1.2 0.9987936514857784 0.0012059089337877439 4.913052216769771e-17 4.3958043000799117e-07
206 2 -2.26307 35.9684 4.4844 2.4 1.0 1.803653419717148e-24 4.824038266731968e-33 1.0283379888757677e-39
207 3 -2.33122 34.3552 4.4844 -1.2 0.2411500240866052 0.7588499758577508 6.79580867693085e-14 5.5572655629869986e-11
208 3 1.36549 36.9425 4.4844 -1.2 0.057625139296061445 0.9423748605368187 2.8055607725009404e-12 1.6431532962045886e-10
209 3 -1.52658 36.6746 3.18632 -1.2 0.49599290334465873 0.5040070965627743 6.40533661415565e-14 9.250269071177783e-11
210 3 -1.55122 36.6746 5.78248 -1.2 0.06520304614054648 0.9347969538182549 3.238562170958916e-13 4.087289880785093e-11
211 1 1.882 35.6175 2.9896 1.2 0.9884414965634503 0.011558221219046606 5.231354283222617e-19 2.822174970419613e-07
212 1 4.69415 35.5762 4.4844 1.2 0.9984383244852978 0.0015574881674869812 3.390127178356528e-14 4.187347176540322e-06
213 2 2.88522 37.641 4.4844 2.4 1.0 5.278209678273227e-23 2.3812923522638476e-31 6.985542730277288e-39
214 3 2.91159 39.2543 4.4844 -1.2 0.03321065754219483 0.9667893423058571 1.4448670803722322e-11 1.374968285747231e-10
215 3 -3.74183 36.667 4.4844 -1.2 0.037591423679848406 0.9624085762179997 5.808357879396599e-13 1.0157828319796652e-10
216 3 3.58014 36.9349 3.18632 -1.2 0.8468016131501327 0.15319838681488562 9.857486036728299e-15 3.4978461742872176e-11
217 1 1.90997 35.6175 0 1.2 0.9621971341568689 0.037802862749053784 5.724558998384675e-24 3.0940781557260725e-09
218 3 3.55582 36.9349 5.78248 -1.2 0.023418241813590864 0.9765817581697317 6.898476573564377e-13 1.5985936174152365e-11
219 1 -0.93068 35.6588 1.4948 1.2 0.9819282348629523 0.018071757181291597 2.6209583599752314e-22 7.955760487310869e-09
220 2 0.881882 33.5939 1.4948 2.4 1.0 2.3247038133756326e-25 4.430169332443003e-39 7.285027030291562e-38
221 3 0.859602 31.9807 1.4948 -1.2 0.9997201148080213 0.00027988519174435375 2.3783667330407412e-23 2.3017357620069306e-13
222 3 7.507 34.568 1.4948 -1.2 0.9973260149183671 0.002673985067651206 4.899347691707015e-21 1.398370733882258e-11
223 3 0.210186 34.3001 0.196716 -1.2 0.9989102656835579 0.0010897343142156927 4.5458898393479536e-20 2.2234713373002145e-12
224 3 0.184454 34.3001 2.79288 -1.2 0.9499346720284525 0.05006532795890765 1.4954757217428912e-16 1.2642451859322572e-11
225 1 7.07415 37.992 0 1.2 0.9015849133630576 0.09841507023922975 4.392809405023652e-22 1.6397713522743634e-08
226 1 4.36817 42.6997 1.4948 1.2 0.8920796907335004 0.10791742405014881 8.587785503747894e-16 2.885216353292642e-06
227 2 6.16058 40.0155 1.4948 2.4 1.0 2.486593065387254e-20 1.387370422786997e-32 3.0552589874684474e-33
228 3 6.22815 41.6288 1.4948 -1.2 0.782398597370196 0.21760140206264947 1.124100374217795e-13 5.670427459019553e-10
229 3 2.53282 39.0415 1.4948 -1.2 0.9947485073736202 0.005251492510471753 9.689493097978978e-19 1.1590932398552364e-10
230 3 5.44674 39.3094 0.196716 -1.2 0.9991131642655984 0.0008868357214455114 1.7453770303421944e-19 1.2951783376653162e-11
231 1 7.04922 37.992 2.9896 1.2 0.9783610101490218 0.021611234883408933 5.423622860709941e-15 2.7754967559348907e-05
232 3 5.42658 39.3094 2.79288 -1.2 0.517298491791738 0.48270150804551815 3.815402868857257e-13 1.6236276620716105e-10
233 1 -0.333062 38.0333 4.4844 1.2 0.9960910335561188 0.003862044862709054 4.293646357472513e-12 4.69215768741792e-05
234 2 -2.12255 40.7174 4.4844 2.4 1.0 1.0913004771109347e-20 9.011052704655365e-28 1.5492917589700987e-35
235 3 -2.19212 39.1042 4.4844 -1.2 0.04356908340520487 0.9564309164714563 3.653719449855493e-12 1.1968647649122838e-10
236 3 1.50676 41.6915 4.4844 -1.2 0.009027605275866756 0.9909723946025004 4.146920030244671e-11 8.016850257512574e-11
237 3 -1.3884 41.4236 3.18632 -1.2 0.04020934539042508 0.9597906544383844 1.0000253909298543e-11 1.611914498761227e-10
238 3 -1.40713 41.4236 5.78248 -1.2 0.01728361715065158 0.9827163828359846 4.124384566398722e-12 9.236232570829387e-12
239 1 2.01892 40.3665 2.9896 1.2 0.9213304330424129 0.07823017290732247 2.7663375315977648e-11 0.00043939402259463673
240 1 4.83434 40.3252 4.4844 1.2 0.995471928277604 0.004290293770391072 1.2826570117906657e-10 0.00023777782373763786
241 2 3.02698 42.39 4.4844 2.4 1.0 5.712179560173166e-22 3.744712603957437e-29 4.433894233302859e-38
242 3 3.05433 44.0033 4.4844 -1.2 0.032632108163346156 0.9673678917917726 9.94533438163025e-12 3.494167259800479e-11
243 3 -3.60077 41.416 4.4844 -1.2 0.0031301091414687493 0.9968698907061286 6.591373220069615e-11 8.649028700466752e-11
244 3 3.71851 41.6839 3.18632 -1.2 0.20864565146943245 0.7913543482974909 2.5256721148696092e-12 2.3055627453420318e-10
245 1 2.04077 40.3665 0 1.2 0.7820067499187677 0.21799311917220734 2.0272439732733676e-20 1.3090902850978233e-07
246 3 3.70011 41.6839 5.78248 -1.2 0.004132920933336181 0.9958670790298194 1.0592703685152054e-11 2.6258149101625636e-11
247 1 -0.796865 40.4078 1.4948 1.2 0.9296827140537718 0.07031672974007115 1.7106645233064951e-18 5.562061591974313e-07
248 2 1.01387 38.3429 1.4948 2.4 1.0 1.7859965499679439e-22 5.063015863799923e-34 3.3341480290039586e-35
249 3 0.989947 36.7297 1.4948 -1.2 0.9963501804082555 0.0036498195884371925 3.558643936323749e-19 3.3084430310253077e-12
250 3 7.63988 39.317 1.4948 -1.2 0.9827115409262228 0.017288458603666047 2.776149088769193e-18 4.701148701443734e-10
251 3 0.340253 39.0491 0.196716 -1.2 0.9964690327544709 0.00353096719380361 2.097752406664129e-18 5.1729477047537424e-11
252 3 0.319795 39.0491 2.79288 -1.2 0.5842118573773988 0.4157881424811266 2.1676528381069695e-13 1.412645468943131e-10
253 1 7.20667 42.741 0 1.2 0.6523340601318831 0.347664709320885 4.10429543092721e-17 1.2305472260546888e-06
254 1 4.50613 47.4487 1.4948 1.2 0.9450625310050796 0.0549282677331384 7.450990927525557e-15 9.20126178019605e-06
255 2 6.29731 44.7645 1.4948 2.4 1.0 4.796528052413009e-18 1.1500994203489137e-28 1.2520726455155949e-31
256 3 6.36567 46.3778 1.4948 -1.2 0.16450254337600523 0.8354974559962991 9.35330068147233e-12 6.183394623604327e-10