ITEM: TIMESTEP
7400
ITEM: NUMBER OF ATOMS
10500
ITEM: BOX BOUNDS xy xz yz pp pp pp
0	15.2977	5.09925
0	118.725	0
0	89.688	0
ITEM: ATOMS id type xu yu zu q pCrystal pDisloC pSF pDisloB pDisloA
1 1 6.2404 -6.37941e-06 0 1.2 3.2437526968431317e-16 2.395828054974095e-12 0.9999996692910266 3.306649053737375e-07 4.166642953128959e-11
2 1 3.46349 4.70768 1.4948 1.2 1.5710159097964373e-10 1.7913170857397647e-08 0.9999999435570588 3.817173577537104e-08 2.009377414628469e-10
3 2 5.2885 2.02354 1.4948 2.4 1.3443517227942614e-13 3.873020212678433e-10 0.9999999855918561 1.4011861573701955e-08 8.840598311361881e-12
4 3 5.33628 3.63678 1.4948 -1.2 2.0483165525137185e-10 2.6833049052747043e-08 0.9999999614780827 5.562078474383459e-09 5.921962792717956e-09
5 3 1.67294 1.04952 1.4948 -1.2 1.9110623397624427e-13 1.1826941634148695e-09 0.9999998206665329 1.7762210143258197e-07 5.284773400810438e-10
6 3 4.59532 1.31737 0.196716 -1.2 7.965520029957269e-15 2.263948205628211e-10 0.9999998748121549 1.2463385923971093e-07 3.275838067094914e-10
7 1 6.18956 -6.37941e-06 2.9896 1.2 2.8355220988598937e-16 4.898425563925094e-11 0.9999988908694672 1.1085322263261135e-06 5.493261856789054e-10
8 3 4.55118 1.31737 2.79288 -1.2 1.1247213867748982e-16 5.536088012205593e-12 0.9999987779976826 1.2219207532863635e-06 7.602737106657361e-11
9 1 -1.20682 0.0413099 4.4844 1.2 6.41286111688285e-16 2.99209189126958e-11 0.9999905326716545 9.467039626383745e-06 2.587909479878349e-10
10 2 -3.0337 2.72544 4.4844 2.4 5.442736746893634e-12 5.95433978964965e-08 0.9999805512331622 1.9375252957329033e-05 1.3965042578119144e-08
11 3 -3.08099 1.11221 4.4844 -1.2 2.001105936855194e-15 1.6112882429435787e-10 0.9999932771816477 6.722251857309424e-06 4.0536246002265677e-10
12 3 0.582463 3.69946 4.4844 -1.2 1.8612897624971977e-12 4.735907983423359e-10 0.9999900605765925 9.930767903742907e-06 8.180049423198964e-09
13 3 -2.29524 3.43162 3.18632 -1.2 5.085094527380432e-11 1.211802091554299e-08 0.9999997488234018 2.3319050980788185e-07 5.817211905223252e-09
14 3 -2.34216 3.43162 5.78248 -1.2 1.15202121035928e-12 1.87186171326438e-10 0.9999515171020726 4.847455450033777e-05 8.155090849168995e-09
15 1 1.12778 2.37449 2.9896 1.2 1.8414108605258694e-13 9.590455855310578e-10 0.9999944369005915 5.5616698033699945e-06 4.703818794325901e-10
16 1 3.92855 2.33318 4.4844 1.2 2.9605129520543227e-15 3.876627407261094e-11 0.9999623723988771 3.762698550562879e-05 5.768449311317422e-10
17 2 2.09341 4.39804 4.4844 2.4 9.777825428450795e-13 4.649093102151901e-09 0.9999925366738128 7.458226939141875e-06 4.4917704755596877e-10
18 3 2.09991 6.01128 4.4844 -1.2 1.705438630709136e-09 1.2757010779494882e-08 0.999999964433713 1.1489943208891074e-08 9.613900443718359e-09
19 3 -4.52137 3.42402 4.4844 -1.2 4.2329317762735935e-13 4.660493154387295e-10 0.9999837573355789 1.62330485848707e-05 9.149360861639357e-09
20 3 2.80834 3.69187 3.18632 -1.2 1.355446636468056e-12 6.026637540376021e-10 0.9999999248594121 7.418451951782068e-08 3.520477206680795e-10
21 1 1.17857 2.37449 0 1.2 7.807059096504527e-15 1.9683953507804629e-10 0.9999994852220527 5.143867518250243e-07 1.9434343209178155e-10
22 3 2.76143 3.69187 5.78248 -1.2 7.463476036576922e-14 3.414420175207537e-11 0.9999718967210489 2.8100757806328714e-05 2.486928889142652e-09
23 1 -1.67381 2.41581 1.4948 1.2 5.697977611050234e-11 1.6831153662905722e-08 0.9999985917397507 1.3893976656839987e-06 1.9744559067885217e-09
24 2 0.16286 0.350945 1.4948 2.4 2.6770038995564027e-13 1.5122882088833048e-09 0.9999995910393108 4.0730918320946454e-07 1.3895433718168212e-10
25 3 0.15972 -1.26229 1.4948 -1.2 5.864586567227426e-12 1.1546439069171437e-08 0.9999999000217678 8.51678978273458e-08 3.258024960865009e-09
26 3 6.77654 1.32496 1.4948 -1.2 7.178813320714882e-13 3.4875922469596574e-09 0.99999994591535 4.624645486671278e-08 4.349884169203811e-09
27 3 -0.508028 1.05712 0.196716 -1.2 3.2798305413850206e-14 9.910709634726658e-10 0.999999660361639 3.377391274101095e-07 9.081332877938508e-10
28 3 -0.552171 1.05712 2.79288 -1.2 5.697797524232711e-14 3.7675647805430275e-10 0.9999976287908485 2.3685092202490944e-06 2.323111780824937e-09
29 1 6.31713 4.74899 0 1.2 1.3296392658421417e-10 2.766852641692167e-08 0.9999999279921238 4.324938882153472e-08 9.570010983525793e-10
30 1 3.54847 9.45668 1.4948 1.2 5.12668256800535e-05 4.613248276735768e-07 0.9999481448350674 2.8984548107161172e-11 1.269854457549528e-07
31 2 5.36879 6.77254 1.4948 2.4 1.4179874227021894e-06 3.6750403476571086e-06 0.9999948182928009 1.0594068032179149e-10 8.857349034634881e-08
32 3 5.41937 8.38578 1.4948 -1.2 0.0007030038016508858 6.201463688821164e-05 0.9992314373821177 2.8838259226416825e-13 3.5441790619654114e-06
33 3 1.75158 5.79852 1.4948 -1.2 2.2969595106216994e-06 5.710788440609196e-06 0.9999917182526619 5.384547425962402e-11 2.739455428982041e-07
34 3 4.67421 6.06637 0.196716 -1.2 2.187678993496278e-08 3.3510317548909726e-07 0.9999996369852174 3.085355435861343e-11 6.003965398881867e-09
35 1 6.26654 4.74899 2.9896 1.2 1.0856690299324163e-10 1.1329527255388379e-08 0.9999996607050725 3.2217231430406985e-07 5.684521916677712e-09
36 3 4.63043 6.06637 2.79288 -1.2 1.9394461016861765e-08 1.2112073815652853e-07 0.9999998354578132 1.8056978395764053e-09 2.222128851289262e-08
37 1 -1.12976 4.79031 4.4844 1.2 5.409561979882223e-11 6.25980079303385e-10 0.9999983981597933 1.5999840783159227e-06 1.1760485280450541e-09
38 2 -2.9517 7.47444 4.4844 2.4 4.796276341121889e-09 1.416834216557122e-07 0.9999963967324393 3.1340001544360464e-07 3.1433878494941104e-06
39 3 -3.00198 5.86121 4.4844 -1.2 9.679379479050725e-11 7.141628346941678e-10 0.9999999225272264 7.30497392140873e-08 3.6120722340427424e-09
40 3 0.666315 8.44846 4.4844 -1.2 1.8514990520241796e-07 2.5026233400899873e-07 0.9999988808304049 5.072599718123948e-10 6.832500921270402e-07
41 3 -2.21213 8.18062 3.18632 -1.2 5.756934811318994e-07 1.383516128111063e-07 0.9999991255652376 3.879022407348726e-11 1.603508847410885e-07
42 3 -2.25864 8.18062 5.78248 -1.2 1.4736340083003529e-08 3.889788089664461e-09 0.9999995649829523 1.6399782547683435e-08 3.9999113003843316e-07
43 1 1.20893 7.12349 2.9896 1.2 1.3492048961584017e-07 2.1513167361204867e-07 0.9999996136739391 4.0301542821872875e-09 3.2243740932731245e-08
44 1 4.00982 7.08218 4.4844 1.2 1.7443117291892176e-08 1.8148393707646523e-08 0.9999998707645913 3.736962978726105e-08 5.62742709170385e-08
45 2 2.17861 9.14704 4.4844 2.4 1.9163482587954284e-06 1.5318801645440996e-06 0.9999919460289888 1.2784119756767285e-08 4.59295847388485e-06
46 3 2.18828 10.7603 4.4844 -1.2 9.243191971495206e-06 2.290953670933337e-07 0.9999894241854055 2.941267792522962e-11 1.1034978456074541e-06
47 3 -4.43805 8.17302 4.4844 -1.2 3.097528700675828e-08 7.245580156237161e-08 0.9999992716285485 6.764055672464966e-10 6.242639597110265e-07
48 3 2.89193 8.44087 3.18632 -1.2 3.828981426668206e-06 5.083511425322681e-07 0.9999951080193059 1.0092449645827712e-10 5.545472024594473e-07
49 1 1.25915 7.12349 0 1.2 2.449735758285696e-07 3.418085413156883e-07 0.9999994090585927 2.2826807363830234e-10 3.93101959457092e-09
50 3 2.84547 8.44087 5.78248 -1.2 3.4399639180277666e-08 1.0045780424192896e-08 0.9999995741928612 8.144111200487933e-09 3.7321761376530515e-07
51 1 -1.59284 7.16481 1.4948 1.2 9.270631440594997e-07 4.935320494398672e-07 0.9999985498693887 2.603963875004794e-10 2.9275018166345202e-08
52 2 0.240329 5.09994 1.4948 2.4 1.1609008577085235e-09 8.48161258452583e-08 0.9999999111813378 2.7684109027362736e-09 7.32231047566205e-11
53 3 0.234538 3.48671 1.4948 -1.2 1.923458123278064e-11 1.16538043851483e-08 0.9999999753254943 1.0219649750488149e-08 2.7818179825824884e-09
54 3 6.85564 6.07396 1.4948 -1.2 2.8814063738544977e-07 2.0817909635195984e-06 0.9999973962344703 8.967831687832045e-11 2.3374425469257154e-07
55 3 -0.429565 5.80612 0.196716 -1.2 2.7238992715725956e-09 5.388444795599153e-08 0.9999999424837699 1.1840803241658181e-10 7.894745124105338e-10
56 3 -0.473377 5.80612 2.79288 -1.2 2.0481851295726183e-09 9.98278958484397e-09 0.9999999792789966 5.541812760181193e-09 3.148219181479585e-09
57 1 6.40169 9.49799 0 1.2 6.786671612454302e-05 1.1026551806200807e-06 0.9999309122037956 1.2255676446120038e-12 1.1842367678870507e-07
58 1 3.64209 14.2057 1.4948 1.2 0.00031305994543385807 7.214605264741173e-07 0.9996858631134974 1.4891008881650224e-12 3.5547904710327125e-07
59 2 5.45748 11.5215 1.4948 2.4 0.002269375475981585 1.877130526279332e-05 0.9977115518051333 7.737946071736183e-14 3.014135434198338e-07
60 3 5.51101 13.1348 1.4948 -1.2 0.02480667443261711 0.00013553677319621025 0.9750459613460117 1.9234068466924012e-14 1.182744815218501e-05
61 3 1.83851 10.5475 1.4948 -1.2 0.007076945888573751 2.0806866657345342e-05 0.9928990484969682 1.9736605373066842e-14 3.1987477836793308e-06
62 3 4.7611 10.8154 0.196716 -1.2 0.000977806651046028 1.340809349753236e-05 0.999008012784791 5.4007892900702597e-14 7.724706134412271e-07
63 1 6.35203 9.49799 2.9896 1.2 2.4692942421063494e-05 1.791363226903786e-06 0.9999729371655006 7.828000222518918e-11 5.784505749015326e-07
64 3 4.71833 10.8154 2.79288 -1.2 0.00010530892425600778 2.0386471294750385e-06 0.9998916359293717 4.728216262186257e-12 1.0164945157738364e-06
65 1 -1.0438 9.53931 4.4844 1.2 1.2905713856336974e-06 4.3440028506501634e-08 0.9999984349127002 5.691321690472143e-09 2.2538455885233023e-07
66 2 -2.8604 12.2234 4.4844 2.4 5.653871549127629e-06 9.402469977229702e-07 0.9999918359094285 1.045580508361354e-09 1.5689264382189744e-06
67 3 -2.91391 10.6102 4.4844 -1.2 8.127032170737449e-06 2.3618261592049937e-07 0.9999910476226698 1.3654521013349451e-11 5.891488889659336e-07
68 3 0.7596 13.1975 4.4844 -1.2 1.8480784889449552e-05 1.9784818798780862e-06 0.9999757571579229 5.6179420970885416e-11 3.7835191261330193e-06
69 3 -2.12001 12.9296 3.18632 -1.2 0.0002011702476662895 1.7593063352437477e-06 0.9997955572262968 2.4924759023180476e-12 1.5132172043102245e-06
70 3 -2.16532 12.9296 5.78248 -1.2 4.909394907503455e-05 3.710805814607417e-07 0.9999426214370988 5.485192226590659e-10 7.912984730261205e-06
71 1 1.29891 11.8725 2.9896 1.2 0.00020123366867669628 2.616018114420097e-06 0.9997940450069026 3.664436487296768e-11 2.1052696689650086e-06
72 1 4.10033 11.8312 4.4844 1.2 2.7507858325539464e-05 1.2421458210326292e-07 0.9999703425629393 3.4136595069350014e-09 2.021950489219121e-06
73 2 2.27333 13.896 4.4844 2.4 8.964030767273236e-05 3.2722169545500285e-06 0.9999021731432081 5.358205787884072e-10 4.913796337363432e-06
74 3 2.28634 15.5093 4.4844 -1.2 0.00011811461457587022 7.895607959657732e-07 0.9998793830779386 1.4502473164048578e-12 1.7127452382217402e-06
75 3 -4.34533 12.922 4.4844 -1.2 5.458192173648188e-06 3.588299300369472e-07 0.9999922559015609 8.598580248725387e-11 1.926990349500085e-06
76 3 2.98455 13.1899 3.18632 -1.2 9.522108343580201e-05 1.614549752767434e-06 0.9999018756229836 6.805471573639591e-12 1.2887370212281722e-06
77 1 1.34779 11.8725 0 1.2 0.0004933211561785962 2.4904525607575918e-06 0.9995035521288229 6.384128059568101e-13 6.36261804414538e-07
78 3 2.93934 13.1899 5.78248 -1.2 2.094065602153389e-05 1.0786590526671542e-07 0.9999773497738859 2.8174222913626535e-10 1.6014224403131008e-06
79 1 -1.50344 11.9138 1.4948 1.2 0.0004662979795997955 1.9326204492170847e-06 0.9995311040176231 1.2403375202557457e-12 6.653810902416377e-07
80 2 0.326006 9.84894 1.4948 2.4 0.0004210896121337775 7.1025020914544106e-06 0.9995717127819949 1.0077585847954797e-13 9.510367398823173e-08
81 3 0.317364 8.23571 1.4948 -1.2 0.00021752354919537175 1.000301381247283e-05 0.9997715751431259 2.375846009936616e-12 8.982914943214615e-07
82 3 6.94307 10.823 1.4948 -1.2 0.004626365826040416 4.306411456160235e-05 0.9953277590141576 2.3622388943384744e-14 2.81104521053013e-06
83 3 -0.343122 10.5551 0.196716 -1.2 0.0003568554665216284 6.331058223284545e-06 0.9996364955338982 8.071573496202439e-14 3.179412733843979e-07
84 3 -0.385966 10.5551 2.79288 -1.2 5.888971003769417e-05 1.1002750217486636e-06 0.9999393760613772 1.114808609205158e-11 6.339424203406518e-07
85 1 6.49448 14.247 0 1.2 0.0018627354917697075 1.6024590887122566e-06 0.9981348669098445 5.848360824591718e-14 7.951392377040446e-07
86 1 3.74457 18.9547 1.4948 1.2 5.4185117900322274e-05 1.561614443140146e-07 0.9999456128498823 4.418090295802996e-13 4.587033165765557e-08
87 2 5.55495 16.2705 1.4948 2.4 0.0008912954699813162 7.4043286650778064e-06 0.9991012820294148 3.710160871069833e-15 1.8171932670847405e-08
88 3 5.6115 17.8838 1.4948 -1.2 0.00881024653341594 4.9721458093727746e-05 0.9911388436981956 2.1894761045152313e-15 1.1883102949386406e-06
89 3 1.93416 15.2965 1.4948 -1.2 0.02598303903775301 4.419322707976141e-05 0.9739700404234712 1.7881832633973963e-15 2.72731169587796e-06
90 3 4.85636 15.5644 0.196716 -1.2 0.0055531127793834595 2.4059861209282142e-05 0.9944220993616053 6.089818025072716e-15 7.279978018745148e-07
91 1 6.44662 14.247 2.9896 1.2 0.0002211585420091356 1.3915194005944138e-06 0.9997764492371333 7.921839495309901e-12 1.0006935397748035e-06
92 3 4.81537 15.5644 2.79288 -1.2 0.000985136190616676 9.776407389675486e-06 0.999002520481245 8.394306366224364e-13 2.5669199106079977e-06
93 1 -0.948271 14.2883 4.4844 1.2 2.1516162278467172e-05 1.886889316745502e-07 0.9999767201103762 1.1177792822168022e-09 1.5739206338459691e-06
94 2 -2.75928 16.9724 4.4844 2.4 0.00013236469418440635 1.394758423623765e-06 0.9998657187142119 3.1573299248342456e-11 5.218016010089896e-07
95 3 -2.81617 15.3592 4.4844 -1.2 2.9356801699758264e-05 4.0874509994784486e-07 0.9999690260965505 1.9387478615159265e-12 1.2083547173796938e-06
96 3 0.862762 17.9465 4.4844 -1.2 4.073236271946286e-05 1.1386139220680249e-06 0.999957136638343 4.811319756818869e-12 9.923802065780866e-07
97 3 -2.0185 17.6786 3.18632 -1.2 0.00016119040378069857 1.415063802487525e-06 0.9998370693353696 1.382731760671869e-13 3.251969140293741e-07
98 3 -2.06164 17.6786 5.78248 -1.2 0.00011185242461394544 1.736328191338938e-07 0.9998858138958892 2.8087439347721987e-11 2.160018594557912e-06
99 1 1.39817 16.6215 2.9896 1.2 0.0002950463808856294 1.477885306690371e-06 0.9997022281396709 3.6095729009323085e-12 1.2475905227323405e-06
100 1 4.20062 16.5802 4.4844 1.2 2.2851748553973186e-05 8.008966013313272e-08 0.9999761414999604 9.374241953160418e-10 9.25724402268107e-07
101 2 2.37796 18.645 4.4844 2.4 4.873781856361157e-05 5.400484578041531e-07 0.9999505223191907 2.927986411920419e-11 1.9978450516612147e-07
102 3 2.39434 20.2583 4.4844 -1.2 7.668714120527147e-05 2.0972220836165643e-07 0.9999227300972815 9.581937665258434e-14 3.73039209455881e-07
103 3 -4.24274 17.671 4.4844 -1.2 1.8089374642244862e-05 4.804453790107498e-07 0.9999809272159896 9.098404941095488e-12 5.029548932315936e-07
104 3 3.08659 17.9389 3.18632 -1.2 0.00011901779441671582 1.1024433980176828e-06 0.9998793502142145 8.598314524188128e-13 5.295471058366561e-07
105 1 1.44478 16.6215 0 1.2 0.0014408340951238326 9.735822429372206e-07 0.9985576767689384 8.061077405951329e-14 5.15553608300515e-07
106 3 3.0436 17.9389 5.78248 -1.2 5.1701784125218103e-05 4.833299223260597e-08 0.9999478636366135 1.8129327380917873e-11 3.8622814622625095e-07
107 1 -1.40524 16.6628 1.4948 1.2 0.001162033959354989 1.7595283417479553e-06 0.9988355605855475 1.4357258596709755e-13 6.459266153725256e-07
108 2 0.420358 14.5979 1.4948 2.4 0.005619361579595379 2.3566012277974147e-05 0.9943569287733937 3.8761296602558e-14 1.4363469593206985e-07
109 3 0.408732 12.9847 1.4948 -1.2 0.02572666959224474 0.00010972132860364806 0.9741575918537222 1.794154339246838e-14 6.0172254086661775e-06
110 3 7.03923 15.572 1.4948 -1.2 0.023329076774336082 9.080548537295209e-05 0.9765763787668168 2.9560163730013118e-15 3.7389734680395543e-06
111 3 -0.248332 15.3041 0.196716 -1.2 0.0038209320649190905 3.178761688500426e-05 0.9961465247635063 1.6537098517246812e-14 7.555546733991926e-07
112 3 -0.289436 15.3041 2.79288 -1.2 0.0014047936607411086 1.1610293284750268e-05 0.9985804911170535 1.9417595956691967e-12 3.1049269769202527e-06
113 1 6.59566 18.996 0 1.2 0.00042072534837463057 1.8597234961124612e-07 0.9995790143783265 3.584152117383633e-15 7.430094448926396e-08
114 1 3.85574 23.7037 1.4948 1.2 0.0012118088641932527 6.193052946704185e-07 0.9987873019089095 2.1409288094576119e-13 2.699213923080454e-07
115 2 5.66125 21.0195 1.4948 2.4 0.0023699464674133038 3.1075161361782127e-06 0.9976269399883934 2.2849084953140717e-15 6.0280620079225715e-09
116 3 5.72074 22.6328 1.4948 -1.2 0.0338106783777376 5.3613539768637227e-05 0.9661342951176352 1.578764171747447e-15 1.4129648538343534e-06
117 3 2.03867 20.0455 1.4948 -1.2 0.018359209378065688 2.3341155095896133e-05 0.9816166571871645 1.9634953594952272e-16 7.922796726106214e-07
118 3 4.96004 20.3134 0.196716 -1.2 0.005388880012084577 6.563586333241245e-06 0.9946043737730287 6.764373696552405e-16 1.8262855405395162e-07
119 1 6.55057 18.996 2.9896 1.2 8.85497069001048e-05 4.4608255420224027e-07 0.9999107476060094 1.0448766478853065e-12 2.5660348438005484e-07
120 3 4.92172 20.3134 2.79288 -1.2 0.0003336861841228065 2.9205118684958684e-06 0.9996630100045052 1.6002322858999602e-13 3.832993409372307e-07
121 1 -0.84282 19.0373 4.4844 1.2 1.5214514897960357e-05 8.155040437476116e-08 0.9999843776418532 8.104744517114e-11 3.2621180125965374e-07
122 2 -2.64823 21.7214 4.4844 2.4 6.612257756876025e-05 2.8877524944708463e-07 0.9999335527218329 4.652532594569605e-12 3.5920689799729616e-08
123 3 -2.70847 20.1082 4.4844 -1.2 1.4583905436967243e-05 1.0480910021060826e-07 0.9999852072659123 1.1483893089398085e-13 1.0401943262078076e-07
124 3 0.97581 22.6955 4.4844 -1.2 0.00013491716829882856 1.2603424609900884e-06 0.9998631735526046 1.34608797465928e-12 6.489352898409367e-07
125 3 -1.9076 22.4276 3.18632 -1.2 0.0003826978879103514 8.389197045706637e-07 0.9996162872603663 5.283593345167696e-14 1.7593196090171237e-07
126 3 -1.9475 22.4276 5.78248 -1.2 0.0001428773444144734 5.0673199839697576e-08 0.9998567076149448 2.42169978728778e-12 3.643650184027382e-07
127 1 1.50678 21.3705 2.9896 1.2 0.00018922681976186694 4.709789402164624e-07 0.9998099581614965 5.001421773793724e-13 3.4403929969455606e-07
128 1 4.31086 21.3292 4.4844 1.2 1.0642154091472298e-05 1.566484133732993e-08 0.9999892789215916 6.20970587804542e-11 6.319737563777572e-08
129 2 2.49243 23.394 4.4844 2.4 0.00020302316940277798 4.6821488143834665e-07 0.9997964376620945 1.0140004568395259e-11 7.094348713040315e-08
130 3 2.51204 25.0073 4.4844 -1.2 0.00010772906716583554 1.7400002266032933e-07 0.9998915781812119 1.5608274152377684e-13 5.187514453599124e-07
131 3 -4.13026 22.42 4.4844 -1.2 3.235197895913811e-05 3.176454158476753e-07 0.9999671987627954 8.76461906462664e-13 1.316119474161068e-07
132 3 3.19799 22.6879 3.18632 -1.2 0.0003362227210903603 1.102997635573328e-06 0.9996624790427654 8.012259498470946e-14 1.952384301874631e-07
133 1 1.5501 21.3705 0 1.2 0.0014344034749976492 3.4288206608718334e-07 0.9985650849239336 1.085339656679996e-14 1.6871899571168502e-07
134 3 3.1583 22.6879 5.78248 -1.2 3.844500532669158e-05 1.0280907399215887e-08 0.9999614708010045 3.2803362357993126e-12 7.3909486346939e-08
135 1 -1.29822 21.4118 1.4948 1.2 0.0006156299185080377 5.002009673746661e-07 0.9993837289137141 1.7152927545536618e-14 1.4096679366673975e-07
136 2 0.523568 19.3469 1.4948 2.4 0.0007046327713851593 3.949517179122062e-06 0.9992914147562176 3.078932265723508e-15 2.9552134168929873e-09
137 3 0.508934 17.7337 1.4948 -1.2 0.0065554256860345965 6.048536616959733e-05 0.9933832527941606 3.086800258667019e-15 8.361536353679686e-07
138 3 7.14425 20.321 1.4948 -1.2 0.01230151095037136 3.842826105539027e-05 0.9876594148460323 2.241483902798841e-16 6.459425353433855e-07
139 3 -0.145107 20.0531 0.196716 -1.2 0.0020387402432709982 7.846857816087646e-06 0.9979533221629167 1.0550091214864448e-15 9.073599904146146e-08
140 3 -0.183601 20.0531 2.79288 -1.2 0.0013203989503036359 8.717371111834834e-06 0.9986701450456892 1.200978367753719e-13 7.386327743540155e-07
141 1 6.70502 23.745 0 1.2 0.0077020476730531185 1.014308403189461e-06 0.9922961660902962 5.3069289230035436e-15 7.719282381766647e-07
142 1 3.97493 28.4527 1.4948 1.2 0.2413271843633497 1.4661120002256122e-05 0.7586349621348781 1.51752569816057e-12 2.3192380256109458e-05
143 2 5.77602 25.7685 1.4948 2.4 0.33250951044601146 1.975792972627699e-05 0.6674705902843374 5.416449616348234e-15 1.4133992049128808e-07
144 3 5.83821 27.3818 1.4948 -1.2 0.7755575235273257 6.309874374919882e-05 0.22436863722254746 2.061956411171745e-15 1.0740506371132554e-05
145 3 2.15175 24.7945 1.4948 -1.2 0.799617435473208 0.00014699398273658104 0.20022308383553508 1.2428333493307724e-16 1.2486708522258193e-05
146 3 5.07184 25.0624 0.196716 -1.2 0.37505966439004645 3.7855681663125295e-05 0.6248968672263026 2.3048860783021696e-15 5.612701990570536e-06
147 1 6.66374 23.745 2.9896 1.2 0.0010724053493846417 1.1018652311388916e-06 0.9989257501236715 3.731719846260769e-13 7.426613381295581e-07
148 3 5.03707 25.0624 2.79288 -1.2 0.0054152091195399515 8.26604578334073e-06 0.9945746262585743 1.6500597520996195e-13 1.8985759355387066e-06
149 1 -0.727559 23.7863 4.4844 1.2 6.013017678627128e-05 1.0079312093945427e-07 0.99993943772033 3.3566096810946736e-11 3.312762028193278e-07
150 2 -2.5277 26.4704 4.4844 2.4 0.0010403324914198503 3.34519701258954e-07 0.9989591983939562 1.1360913766175451e-11 1.3458356537658023e-07
151 3 -2.59107 24.8572 4.4844 -1.2 7.203942231148383e-05 1.4364799144108257e-07 0.9999276299886499 8.938349793137083e-14 1.8694095603228165e-07
152 3 1.09817 27.4445 4.4844 -1.2 0.0024511778250361697 3.1200695493967527e-06 0.9975412037510951 3.5007615234017366e-12 4.498350818755756e-06
153 3 -1.78784 27.1766 3.18632 -1.2 0.003481651904538361 1.157298813940386e-06 0.9965164737599793 3.250239348734285e-13 7.170363503768955e-07
154 3 -1.82343 27.1766 5.78248 -1.2 0.0009581062039897795 5.570298885437653e-08 0.9990413997833955 2.609046629519876e-12 4.383070199126414e-07
155 1 1.62435 26.1195 2.9896 1.2 0.008726888904343047 2.3572496090782564e-06 0.9912671322345491 6.190295851337811e-13 3.6216108746708014e-06
156 1 4.43064 26.0782 4.4844 1.2 0.0001169370038333499 3.050973678066537e-08 0.9998829042671536 2.6558954191675772e-11 1.2819272402574614e-07
157 2 2.61607 28.143 4.4844 2.4 0.001436676260114652 3.137738078179806e-07 0.9985627648788336 3.52976493320512e-11 2.4505194845900235e-07
158 3 2.63853 29.7563 4.4844 -1.2 0.00021611353490749626 1.2242834521210205e-07 0.999782626882624 1.992161842581656e-12 1.1371521335718142e-06
159 3 -4.00841 27.169 4.4844 -1.2 0.0006392917401352391 1.045597118879489e-06 0.9993585836699315 1.2142285761196202e-12 1.0789916051370403e-06
160 3 3.3182 27.4369 3.18632 -1.2 0.015848918732454167 4.6139119474100235e-06 0.9841432377017404 2.764866795301388e-13 3.229653588354161e-06
161 1 1.66335 26.1195 0 1.2 0.10679560804432457 7.877156227623394e-06 0.8931895659281598 2.2523827581561153e-14 6.948871264790583e-06
162 3 3.28288 27.4369 5.78248 -1.2 0.00013906617618109844 1.0025193579307138e-08 0.9998608195099488 4.791785120413289e-12 1.0428389105078185e-07
163 1 -1.18278 26.1608 1.4948 1.2 0.0928883425937213 1.1282502677992674e-05 0.9070928925357444 6.266190843136133e-14 7.482367789908646e-06
164 2 0.635424 24.0959 1.4948 2.4 0.011165184227247858 4.1028591429497335e-06 0.9888307075902971 2.997607627736022e-15 5.323314337787481e-09
165 3 0.617906 22.4827 1.4948 -1.2 0.016278705056228717 3.8853815201960124e-05 0.9836818164871101 1.369795869181345e-15 6.246414544780185e-07
166 3 7.25781 25.07 1.4948 -1.2 0.4855053551267056 0.00017597628553081085 0.5143095231024398 3.4394791404498884e-16 9.145485326036822e-06
167 3 -0.0337363 24.8021 0.196716 -1.2 0.08303266743599978 2.228543017719003e-05 0.9169439866649137 1.0607241546199223e-15 1.0604689071178132e-06
168 3 -0.0687235 24.8021 2.79288 -1.2 0.007809931252279569 1.80809177509876e-05 0.9921696459827274 2.0707647632891182e-13 2.3418470282873073e-06
169 1 6.82195 28.494 0 1.2 0.3507068874053469 3.410236119027071e-05 0.6492076456849711 1.9360492020637853e-13 5.136454829892607e-05
170 1 4.10106 33.2017 1.4948 1.2 0.768455901644979 0.00018848427376801343 0.23076716465848152 1.290472671221021e-10 0.0005884492937184827
171 2 5.89839 30.5175 1.4948 2.4 0.9944340116791786 6.81882760425121e-06 0.005558501128750431 3.147118220232817e-15 6.68364462611964e-07
172 3 5.96289 32.1308 1.4948 -1.2 0.9388831911366173 5.899902158176253e-05 0.06101500380575032 9.137606301622008e-14 4.280603596106165e-05
173 3 2.27266 29.5435 1.4948 -1.2 0.9884474518079924 8.428447462063437e-05 0.01142031939597384 1.6042997866680131e-15 4.794432141409897e-05
174 3 5.19102 29.8114 0.196716 -1.2 0.980989670894733 1.365990410255549e-05 0.01897733667307001 3.386899923855102e-15 1.933252809469612e-05
175 1 6.78546 28.494 2.9896 1.2 0.027372869694886073 4.048378099715133e-06 0.9726153529179994 1.8540525926063197e-12 7.729007155287612e-06
176 3 5.16061 29.8114 2.79288 -1.2 0.0897274818208842 4.0764093803242725e-05 0.9102063917533139 2.9020800870466054e-12 2.536232910168319e-05
177 1 -0.603205 28.5353 4.4844 1.2 0.0007459736396520333 2.1683497984508218e-07 0.9992516846770243 1.4387285978498465e-10 2.1247044743603677e-06
178 2 -2.39877 31.2194 4.4844 2.4 0.004214551799063011 1.3673474150560183e-06 0.9957820502461328 2.1041787972371224e-10 2.030396972624798e-06
179 3 -2.46483 29.6062 4.4844 -1.2 9.004062261711708e-05 1.1126474027228611e-07 0.9999093519722172 1.82681974078275e-12 4.961386051068606e-07
180 3 1.22864 32.1935 4.4844 -1.2 0.0027287982215248086 4.325329636335237e-06 0.9972560678286081 4.122555763036046e-11 1.0808579008208474e-05
181 3 -1.66032 31.9256 3.18632 -1.2 0.016114747971631937 4.1420504794028355e-06 0.9838764279972535 7.31749589461118e-12 4.68197331175816e-06
182 3 -1.69072 31.9256 5.78248 -1.2 0.00021277805666215284 2.6113480828058388e-08 0.9997868198574236 3.412623970963122e-11 3.7593830492112187e-07
183 1 1.7499 30.8685 2.9896 1.2 0.12513059591947892 1.5488031625585527e-05 0.8747927498232803 1.215827039067137e-11 6.116621346172608e-05
184 1 4.55894 30.8272 4.4844 1.2 0.001284523052640746 9.984571711025138e-08 0.9987144187165778 2.2165386899155698e-10 9.581634155412836e-07
185 2 2.7476 32.892 4.4844 2.4 0.0021039980718006975 7.636627082757593e-07 0.9978939652716929 5.59848695032755e-10 1.2724339535652424e-06
186 3 2.77235 34.5053 4.4844 -1.2 8.843933627751594e-05 5.6364752115846376e-08 0.9999106345774241 2.7029378685710157e-11 8.696945125126451e-07
187 3 -3.87837 31.918 4.4844 -1.2 0.0006490104522688649 8.741724194634098e-07 0.9993470326146335 1.749397210513423e-11 3.0827431910522096e-06
188 3 3.44611 32.1859 3.18632 -1.2 0.03820680950903262 8.840916641433601e-06 0.9617695222300352 1.4470511679423463e-11 1.4827329816084576e-05
189 1 1.7837 30.8685 0 1.2 0.7564079310535785 8.118201986263315e-05 0.24319612745252253 6.234469922939285e-13 0.0003147594734108746
190 3 3.41602 32.1859 5.78248 -1.2 0.00013989357186158053 2.289993369546282e-08 0.9998598214588178 7.569789618918423e-11 2.619936839221569e-07
191 1 -1.05984 30.9098 1.4948 1.2 0.9020997431517209 9.406608378352694e-05 0.09761719872699406 8.623278238476179e-13 0.00018899203663239888
192 2 0.755243 28.8449 1.4948 2.4 0.955159356880521 5.913757941784404e-06 0.044834620477942316 1.2990752934516422e-15 1.0888358774047577e-07
193 3 0.735127 27.2317 1.4948 -1.2 0.8917095575384679 6.189657131748779e-05 0.10822023300177076 7.094648303929685e-16 8.312888442526776e-06
194 3 7.37914 29.819 1.4948 -1.2 0.9713075545514223 0.00012619994467897577 0.028512035990484453 3.947371276529539e-15 5.420951340770813e-05
195 3 0.0850649 29.5511 0.196716 -1.2 0.7919619050667738 7.521129299904672e-05 0.2079348532893785 4.531443321104861e-14 2.8030350800361352e-05
196 3 0.0543974 29.5511 2.79288 -1.2 0.2423545324367476 5.4229903707711026e-05 0.7575675782864882 1.056432415577052e-12 2.365937199336554e-05
197 1 6.94543 33.243 0 1.2 0.9466478311577102 5.1087612156345546e-05 0.05294492398605526 1.1541387756270426e-12 0.00035615724292685855
198 1 4.23267 37.9507 1.4948 1.2 0.4727390526451921 0.00018994766581809195 0.5263813650866945 3.6150203644451985e-09 0.0006896309872801324
199 2 6.02709 35.2665 1.4948 2.4 0.9982098714537716 2.4176116125909792e-05 0.0017576401326223363 1.603292068879581e-13 8.312297313320633e-06
200 3 6.09339 36.8798 1.4948 -1.2 0.5971380097914275 0.000172426187290592 0.4025039430943076 2.7298018048392798e-11 0.00018562089967146013
201 3 2.40018 34.2925 1.4948 -1.2 0.9440236701843346 0.000517406473250176 0.05485466152117836 2.227471520751273e-12 0.0006042618190057933
202 3 5.31645 34.5604 0.196716 -1.2 0.9904444278437038 3.1097745389226786e-05 0.009386072416899052 2.493662334940094e-13 0.0001384019937577222
203 1 6.91449 33.243 2.9896 1.2 0.11689726988573733 1.4552231519856213e-05 0.8830225529060908 1.3131927092267548e-10 6.56248453396218e-05
204 3 5.291 34.5604 2.79288 -1.2 0.03338687703142463 5.1958558811760726e-05 0.9665047503752147 1.1150951691544503e-10 5.641392303881755e-05
205 1 -0.471101 33.2843 4.4844 1.2 0.004177895973013382 6.509076671552862e-07 0.9958149382194768 1.5987202709493275e-09 6.513301123553529e-06
206 2 -2.26307 35.9684 4.4844 2.4 0.00022385867788809666 4.1837071277966847e-07 0.999773334322303 8.555218823369786e-09 2.3800738809800853e-06
207 3 -2.33122 34.3552 4.4844 -1.2 0.00010168892474629158 1.1059086830907742e-07 0.9998975857502155 2.3616889069035475e-11 6.147105581224066e-07
208 3 1.36549 36.9425 4.4844 -1.2 0.00010210324722220837 3.735724777658605e-07 0.9998948237079143 1.757818894083472e-10 2.699296600382708e-06
209 3 -1.52658 36.6746 3.18632 -1.2 0.007819896843659854 4.84803005933056e-06 0.9921645823648161 2.2916042498040062e-10 1.0672532307470331e-05
210 3 -1.55122 36.6746 5.78248 -1.2 3.573634220630608e-05 5.873966689905213e-09 0.9999641030460731 2.2704398218290453e-10 1.5451070828008026e-07
211 1 1.882 35.6175 2.9896 1.2 0.05834574862572333 1.6568311855269193e-05 0.9415737953088712 4.151998262680291e-10 6.388733834738176e-05