ITEM: TIMESTEP
4800
ITEM: NUMBER OF ATOMS
10500
ITEM: BOX BOUNDS xy xz yz pp pp pp
0	15.2974	5.099
0	118.725	0
0	89.688	0
ITEM: ATOMS id type xu yu zu q pCrystal pDisloC pDisloB pDisloA
1 1 6.2404 -6.37941e-06 0 1.2 3.3424302185065383e-22 5.762167981077075e-10 0.9999999985841868 8.395982686693671e-10
2 1 3.46349 4.70768 1.4948 1.2 5.618256601443825e-08 0.007254163012565771 0.850835924802709 0.141909856002166
3 2 5.2885 2.02354 1.4948 2.4 2.810461486962373e-06 0.9951935047704931 0.003740282146309192 0.0010634026217129352
4 3 5.33628 3.63678 1.4948 -1.2 7.230087327089081e-12 0.999903303988635 9.669238483705282e-05 3.6192945656783656e-09
5 3 1.67294 1.04952 1.4948 -1.2 1.508740174683355e-17 0.88903914327617 0.11096084586485873 1.0858967432119143e-08
6 3 4.59532 1.31737 0.196716 -1.2 8.083704658488708e-20 0.38063472568185724 0.6193652740816766 2.364692045897254e-10
7 1 6.18956 -6.37941e-06 2.9896 1.2 1.4537270395818829e-26 7.462299562928686e-10 0.9999999992481037 5.66126995385497e-12
8 3 4.55118 1.31737 2.79288 -1.2 2.0555952602635665e-21 0.03173476522465898 0.9682652347725808 2.7564366348221498e-12
9 1 -1.20682 0.0413099 4.4844 1.2 5.513360982411495e-29 5.0062764325903454e-11 0.9999999999470077 2.9314058217279885e-12
10 2 -3.0337 2.72544 4.4844 2.4 7.614543939669512e-09 0.9990373255290992 0.0007649402937350817 0.00019772656262450185
11 3 -3.08099 1.11221 4.4844 -1.2 1.205729196953222e-24 0.019507545031095096 0.9804924549684171 4.816705075508029e-13
12 3 0.582463 3.69946 4.4844 -1.2 2.7647206100214392e-15 0.9959832494787645 0.004016749535319706 9.859146717056393e-10
13 3 -2.29524 3.43162 3.18632 -1.2 2.0655088097731117e-14 0.9994030960710062 0.0005969036392506234 2.897158521708289e-10
14 3 -2.34216 3.43162 5.78248 -1.2 1.2302172920321916e-17 0.9728641075165092 0.027135891769136326 7.143573073952275e-10
15 1 1.12778 2.37449 2.9896 1.2 4.1003522386635527e-19 2.723890394723491e-07 0.9999996522067854 7.540417488131037e-08
16 1 3.92855 2.33318 4.4844 1.2 4.7412838457659876e-23 7.752016921861336e-10 0.9999999870773736 1.2147427296140655e-08
17 2 2.09341 4.39804 4.4844 2.4 0.597516685472213 0.40247424967037226 9.06118857811615e-06 3.668837349623222e-09
18 3 2.09991 6.01128 4.4844 -1.2 1.3745842445192293e-07 0.9999992443567876 5.95712813030299e-07 2.247197222084366e-08
19 3 -4.52137 3.42402 4.4844 -1.2 4.426151598682871e-17 0.9690223187243461 0.03097768110282966 1.7281875835258617e-10
20 3 2.80834 3.69187 3.18632 -1.2 2.6824973337937072e-14 0.9995869290708078 0.0004130708112658698 1.1789925884084915e-10
21 1 1.17857 2.37449 0 1.2 7.018112532374413e-20 1.1977651334418046e-06 0.9999948691852899 3.933049569445344e-06
22 3 2.76143 3.69187 5.78248 -1.2 1.8849404570420994e-19 0.9683157021959654 0.03168429772972497 7.430644997054887e-11
23 1 -1.67381 2.41581 1.4948 1.2 8.320034495309885e-12 0.0008308533816266011 0.9983691618104815 0.000799984799565198
24 2 0.16286 0.350945 1.4948 2.4 5.981776794179817e-09 0.5166891202145095 0.006954261908918964 0.47635661189479395
25 3 0.15972 -1.26229 1.4948 -1.2 1.4217260015329524e-15 0.9851224860608337 0.014877075969703146 4.3796946240995384e-07
26 3 6.77654 1.32496 1.4948 -1.2 1.618979655296681e-15 0.9873358156867106 0.012664168587082657 1.5726202932000605e-08
27 3 -0.508028 1.05712 0.196716 -1.2 2.330949605060342e-19 0.28555553128039185 0.7144444573631841 1.1356420509806252e-08
28 3 -0.552171 1.05712 2.79288 -1.2 4.2267888419314566e-22 0.11628670079846039 0.8837132991437985 5.7737637895574896e-11
29 1 6.31713 4.74899 0 1.2 3.731350882678626e-11 0.0025672310935620423 0.9646673436549439 0.032765425214180625
30 1 3.54847 9.45668 1.4948 1.2 0.9113096037689471 0.08783935570327242 1.6497255076351885e-14 0.0008510405277637383
31 2 5.36879 6.77254 1.4948 2.4 0.9999999780031461 2.1996849997997578e-08 2.523190203556961e-22 9.34649573704117e-21
32 3 5.41937 8.38578 1.4948 -1.2 0.9174695545691128 0.0825303355570114 7.369838217024523e-16 1.0987386843810494e-07
33 3 1.75158 5.79852 1.4948 -1.2 0.0002485215651146916 0.9997510980862032 1.5296796904425075e-10 3.801957165710532e-07
34 3 4.67421 6.06637 0.196716 -1.2 3.2036608031600456e-07 0.9999994492985091 2.1352887117224385e-07 1.6806535963190715e-08
35 1 6.26654 4.74899 2.9896 1.2 2.5289633264312124e-08 0.000671784651391859 0.518352944464566 0.4809752455944102
36 3 4.63043 6.06637 2.79288 -1.2 7.42113035976864e-07 0.9999991546422413 8.93775192547034e-08 1.3867209492130321e-08
37 1 -1.12976 4.79031 4.4844 1.2 7.559091034828113e-09 2.1666571198506753e-05 0.8798662919856259 0.12011203388408286
38 2 -2.9517 7.47444 4.4844 2.4 0.9999999999858034 1.420349787645063e-11 2.0538572508971765e-21 2.807645705125252e-24
39 3 -3.00198 5.86121 4.4844 -1.2 1.2386813857224585e-08 0.9999981604338908 1.8232333294124382e-06 3.945967394017109e-09
40 3 0.666315 8.44846 4.4844 -1.2 0.00790246800934853 0.9920972114480731 3.0539022047166424e-10 3.202371835092541e-07
41 3 -2.21213 8.18062 3.18632 -1.2 0.01946289343368568 0.9805370650938434 1.1483249277186791e-10 4.1357633457713005e-08
42 3 -2.25864 8.18062 5.78248 -1.2 0.0017132667732693329 0.9982866379016919 3.6681962105292803e-09 9.165683781569423e-08
43 1 1.20893 7.12349 2.9896 1.2 0.03917907460660522 0.11867597158021953 4.821262638652084e-06 0.8421401325505369
44 1 4.00982 7.08218 4.4844 1.2 0.008107192384224938 0.007498228582343188 0.00027196948315719914 0.9841226095502683
45 2 2.17861 9.14704 4.4844 2.4 1.0 5.611376747746446e-17 3.987144825258818e-31 3.43287581813184e-33
46 3 2.18828 10.7603 4.4844 -1.2 0.9585855944534998 0.041414338756470076 1.3285202051039367e-15 6.679003583984848e-08
47 3 -4.43805 8.17302 4.4844 -1.2 0.0014205580008170642 0.998579382498699 1.1803050416879154e-08 4.7697435944187835e-08
48 3 2.89193 8.44087 3.18632 -1.2 0.046557802485451896 0.9534420572145463 2.877031367570714e-11 1.4027123315375294e-07
49 1 1.25915 7.12349 0 1.2 0.0058216316383989785 0.19320456211864653 2.599816741311636e-06 0.800971206426207
50 3 2.84547 8.44087 5.78248 -1.2 0.011859442125507888 0.9881403982240186 1.870667216226926e-10 1.594634116343726e-07
51 1 -1.59284 7.16481 1.4948 1.2 0.12539361813832825 0.6098612702101402 1.4164338658927872e-07 0.2647449700081466
52 2 0.240329 5.09994 1.4948 2.4 0.9991017439518334 0.000898256045694152 1.6560813856072517e-14 2.4628467105223197e-12
53 3 0.234538 3.48671 1.4948 -1.2 4.341201262371384e-13 0.9998450036795071 0.00015498157265201253 1.4747412552086937e-08
54 3 6.85564 6.07396 1.4948 -1.2 8.240493745027125e-06 0.9999916764943835 5.804327630371436e-09 7.720754752601942e-08
55 3 -0.429565 5.80612 0.196716 -1.2 3.467567027929028e-08 0.9999992021174989 7.580845255648982e-07 5.12230136796507e-09
56 3 -0.473377 5.80612 2.79288 -1.2 3.54538518108393e-08 0.9999990869365879 8.752383906246534e-07 2.371174590152405e-09
57 1 6.40169 9.49799 0 1.2 0.8889677169136098 0.11083936093667411 4.755144259363888e-14 0.00019292214967417493
58 1 3.64209 14.2057 1.4948 1.2 0.9651200125248934 0.03485754064724025 5.686248133460871e-19 2.2446827859869505e-05
59 2 5.45748 11.5215 1.4948 2.4 0.9999999999999716 2.4553982779619002e-14 1.9554972492035673e-36 2.1840359624845008e-32
60 3 5.51101 13.1348 1.4948 -1.2 0.9992214246734541 0.0007785724588588611 1.675924519915207e-22 2.8676855064703687e-09
61 3 1.83851 10.5475 1.4948 -1.2 0.9990483054527729 0.0009516935391953629 9.894497870684703e-21 1.0080286171720923e-09
62 3 4.7611 10.8154 0.196716 -1.2 0.9714634468423244 0.02853654024378305 8.324572831619064e-17 1.2913892574707685e-08
63 1 6.35203 9.49799 2.9896 1.2 0.8952412139650618 0.1002088480101379 2.0674200495841504e-14 0.0045499380247863526
64 3 4.71833 10.8154 2.79288 -1.2 0.9849216007753561 0.015078394713823788 2.5214145135930883e-16 4.51081698345711e-09
65 1 -1.0438 9.53931 4.4844 1.2 0.90800646238419 0.04119003110074022 1.8977807361178465e-11 0.05080350649609273
66 2 -2.8604 12.2234 4.4844 2.4 1.0 6.474175312083447e-19 4.372753355966929e-34 4.569662497831237e-36
67 3 -2.91391 10.6102 4.4844 -1.2 0.9757228411094045 0.02427712993178741 3.7150453974261696e-16 2.895880100512818e-08
68 3 0.7596 13.1975 4.4844 -1.2 0.9248373085081456 0.07516262717814855 2.464833784213549e-15 6.431370524868028e-08
69 3 -2.12001 12.9296 3.18632 -1.2 0.9894816470393925 0.010518348272923179 4.5087016914468804e-17 4.687678753670795e-09
70 3 -2.16532 12.9296 5.78248 -1.2 0.9947842846738545 0.005215712505507904 7.002331664951288e-18 2.820633542141984e-09
71 1 1.29891 11.8725 2.9896 1.2 0.9442124506408761 0.052311571532342255 9.07254831662486e-17 0.003475977826784723
72 1 4.10033 11.8312 4.4844 1.2 0.9708516804540831 0.015082511175800763 1.723148135564729e-14 0.014065808370095289
73 2 2.27333 13.896 4.4844 2.4 1.0 6.108403331019801e-20 2.9057583588066418e-36 4.512931986899937e-37
74 3 2.28634 15.5093 4.4844 -1.2 0.9986112486647091 0.0013887500546327582 3.8241537345918776e-19 1.2806623301554207e-09
75 3 -4.34533 12.922 4.4844 -1.2 0.6490615934289273 0.35093813793498335 5.351186903297726e-13 2.686355480572379e-07
76 3 2.98455 13.1899 3.18632 -1.2 0.9778736626453433 0.02212633060091711 5.548998993996102e-16 6.753743541974422e-09
77 1 1.34779 11.8725 0 1.2 0.9107166531843701 0.08885187966743135 4.0514074555412635e-16 0.00043146714820205164
78 3 2.93934 13.1899 5.78248 -1.2 0.9798150773903559 0.020184920096502544 3.658368075511315e-16 2.5131376988606406e-09
79 1 -1.50344 11.9138 1.4948 1.2 0.9736935909397331 0.026271749703839848 4.168833688554264e-18 3.465935642178474e-05
80 2 0.326006 9.84894 1.4948 2.4 0.9999999999998579 1.4434270236331768e-13 1.0577760149461653e-33 4.1850906683558604e-32
81 3 0.317364 8.23571 1.4948 -1.2 0.6153429894238366 0.38465682448734184 2.1665399818551814e-14 1.8608880478082422e-07
82 3 6.94307 10.823 1.4948 -1.2 0.998649162096231 0.0013508368785349373 7.543762180262384e-21 1.0252308749722794e-09
83 3 -0.343122 10.5551 0.196716 -1.2 0.9576468645845068 0.042353129356013756 5.458501488062447e-16 6.059472722856674e-09
84 3 -0.385966 10.5551 2.79288 -1.2 0.9627725496649843 0.03722743231982559 1.6529847972706498e-15 1.8015183155289407e-08
85 1 6.49448 14.247 0 1.2 0.9699098588094023 0.030089785033140776 1.3781508996581565e-19 3.561574503036531e-07
86 1 3.74457 18.9547 1.4948 1.2 0.9629351431477255 0.03706006548193108 5.9282645133698156e-18 4.79137034197229e-06
87 2 5.55495 16.2705 1.4948 2.4 0.9999999999999432 5.1472801486783416e-14 5.308189801771098e-38 7.737729840771374e-33
88 3 5.6115 17.8838 1.4948 -1.2 0.9979584541205105 0.0020415453681216977 4.4148781359717955e-22 5.113675117385566e-10
89 3 1.93416 15.2965 1.4948 -1.2 0.9994565690603233 0.0005434305641626313 4.359240551132105e-23 3.7551219824681443e-10
90 3 4.85636 15.5644 0.196716 -1.2 0.9954037709812172 0.004596228116193033 5.68087969630621e-20 9.025932179445475e-10
91 1 6.44662 14.247 2.9896 1.2 0.9690043563581497 0.03088861885760772 9.962221753230192e-19 0.00010702478424702802
92 3 4.81537 15.5644 2.79288 -1.2 0.9972080518648148 0.0027919465369784387 7.080455801295952e-19 1.5982093991404394e-09
93 1 -0.948271 14.2883 4.4844 1.2 0.9501916402033612 0.024966446418997836 1.04351455498272e-15 0.02484191337763754
94 2 -2.75928 16.9724 4.4844 2.4 1.0 2.048420143982229e-21 2.1174330269923745e-38 4.136152122063571e-37
95 3 -2.81617 15.3592 4.4844 -1.2 0.995545029405738 0.004454964892743157 4.809365299451136e-18 5.70151697107051e-09
96 3 0.862762 17.9465 4.4844 -1.2 0.9702876446639509 0.029712348732891112 3.1193255862458966e-17 6.6031540767080894e-09
97 3 -2.0185 17.6786 3.18632 -1.2 0.986646945416777 0.013353053856252173 2.667151357876925e-17 7.269744238140134e-10
98 3 -2.06164 17.6786 5.78248 -1.2 0.999121281709859 0.0008787181317291968 7.065733884809481e-20 1.5841391274001628e-10
99 1 1.39817 16.6215 2.9896 1.2 0.944774971781085 0.05508126415967463 2.8841363603095605e-19 0.00014376405924117444
100 1 4.20062 16.5802 4.4844 1.2 0.9791843314143464 0.01899820679457135 6.340554490617736e-17 0.0018174617910806142
101 2 2.37796 18.645 4.4844 2.4 1.0 8.22243646491701e-22 5.953458352401547e-38 4.233183074894936e-38
102 3 2.39434 20.2583 4.4844 -1.2 0.9973377885468264 0.002662211244026089 2.1035123251147936e-18 2.091416614462256e-10
103 3 -4.24274 17.671 4.4844 -1.2 0.9033974860418827 0.09660249928399775 1.0835802010378076e-15 1.4674118129941069e-08
104 3 3.08659 17.9389 3.18632 -1.2 0.9855556649027473 0.014444334507485935 4.08186683215218e-17 5.897720421686551e-10
105 1 1.44478 16.6215 0 1.2 0.954594744448557 0.045403526419127746 9.325163835444755e-20 1.7291323217168308e-06
106 3 3.0436 17.9389 5.78248 -1.2 0.9944196550236246 0.005580344745502357 1.8594757710526118e-17 2.3086949573559383e-10
107 1 -1.40524 16.6628 1.4948 1.2 0.9742068324624257 0.025791801562499727 1.7933308555517717e-20 1.3659750797779278e-06
108 2 0.420358 14.5979 1.4948 2.4 0.9999999999999716 2.2437388895874444e-14 6.776160691655035e-37 4.350753142285257e-33
109 3 0.408732 12.9847 1.4948 -1.2 0.9989556349566303 0.0010443646635573444 8.014253289943545e-22 3.7981010938091733e-10
110 3 7.03923 15.572 1.4948 -1.2 0.9994435081070199 0.0005564916898179225 2.5266909939763995e-23 2.0316936820496277e-10
111 3 -0.248332 15.3041 0.196716 -1.2 0.9930293304969813 0.006970668431083206 9.65151495082405e-20 1.0719400493416064e-09
112 3 -0.289436 15.3041 2.79288 -1.2 0.9968844156617072 0.0031155819107471085 3.597797576688735e-19 2.427538926051564e-09
113 1 6.59566 18.996 0 1.2 0.9662195361785951 0.0337804274739472 9.514611939079743e-20 3.6347459701234415e-08
114 1 3.85574 23.7037 1.4948 1.2 0.9679569276428197 0.03204295532408516 5.0984325377302817e-20 1.1703309904320191e-07
115 2 5.66125 21.0195 1.4948 2.4 1.0 6.259968643289978e-17 1.3978551980003212e-38 5.401961504616444e-34
116 3 5.72074 22.6328 1.4948 -1.2 0.9973980841415302 0.002601915832728391 1.185425331438844e-21 2.5741189410715167e-11
117 3 2.03867 20.0455 1.4948 -1.2 0.9994821959965112 0.0005178039923673202 1.6602386107208365e-23 1.1114821438642958e-11
118 3 4.96004 20.3134 0.196716 -1.2 0.989017141652737 0.010982858225059313 9.080635385568736e-19 1.2220120982038196e-10
119 1 6.55057 18.996 2.9896 1.2 0.9503467158000338 0.04960409062816072 3.1770198054170823e-18 4.9193571806870247e-05
120 3 4.92172 20.3134 2.79288 -1.2 0.9901691747766516 0.0098308250347386 1.1176068644390514e-17 1.8860651387058739e-10
121 1 -0.84282 19.0373 4.4844 1.2 0.9810775229746937 0.018031140102411008 1.3396073133517603e-16 0.000891336922892572
122 2 -2.64823 21.7214 4.4844 2.4 1.0 7.47042388931844e-23 1.3502748215543286e-38 5.522310683499664e-39
123 3 -2.70847 20.1082 4.4844 -1.2 0.9882913571709012 0.011708642234848674 1.497792436702102e-17 5.942545539963867e-10
124 3 0.97581 22.6955 4.4844 -1.2 0.9474563520808054 0.052543647598486676 5.538449070763817e-17 3.207071363079126e-10
125 3 -1.9076 22.4276 3.18632 -1.2 0.9881625746285286 0.011837425360736037 1.2013399466814647e-17 1.0739207753201562e-11
126 3 -1.9475 22.4276 5.78248 -1.2 0.9970439995021413 0.002956000480321788 5.224620287856307e-19 1.753507404181955e-11
127 1 1.50678 21.3705 2.9896 1.2 0.9518369664827957 0.04815565090077434 1.2851651267776106e-19 7.382616427839109e-06
128 1 4.31086 21.3292 4.4844 1.2 0.9869626841259791 0.012726498511924407 4.526849138343802e-15 0.00031081736208566187
129 2 2.49243 23.394 4.4844 2.4 1.0 3.967327394099868e-24 1.551352172716185e-39 5.149400061571899e-40
130 3 2.51204 25.0073 4.4844 -1.2 0.9860821334660729 0.01391786650834066 1.4590111101580694e-17 2.559311132830563e-11
131 3 -4.13026 22.42 4.4844 -1.2 0.7735207165342356 0.22647928328528874 4.060591711527798e-15 1.8047351217279476e-10
132 3 3.19799 22.6879 3.18632 -1.2 0.9815321224509828 0.01846787752970559 4.452388121649559e-17 1.9306310006837897e-11
133 1 1.5501 21.3705 0 1.2 0.9405201691150107 0.059479760885572615 1.2262449758266542e-19 6.99994187832044e-08
134 3 3.1583 22.6879 5.78248 -1.2 0.9725397738592245 0.02746022609367596 1.700170999041883e-16 4.71002470775219e-11
135 1 -1.29822 21.4118 1.4948 1.2 0.9666743440860763 0.0333255724414242 5.705438298428181e-20 8.347249671353597e-08
136 2 0.523568 19.3469 1.4948 2.4 1.0 5.072355302101455e-16 5.576775084335155e-37 1.1619369905626157e-33
137 3 0.508934 17.7337 1.4948 -1.2 0.9960220506448996 0.003977949087818511 3.889125115746681e-21 2.672886673547622e-10
138 3 7.14425 20.321 1.4948 -1.2 0.9986549558741541 0.0013450441129307844 3.920416521688439e-22 1.2918454315178911e-11
139 3 -0.145107 20.0531 0.196716 -1.2 0.9736998928235151 0.026300106944151188 1.2692341417608166e-17 2.3233498074576024e-10
140 3 -0.183601 20.0531 2.79288 -1.2 0.9961598098719197 0.0038401900541828416 8.283033624577649e-19 7.389376392922578e-11
141 1 6.70502 23.745 0 1.2 0.9528843006887033 0.04711569597506086 2.335389015221737e-21 3.336235541322142e-09
142 1 3.97493 28.4527 1.4948 1.2 0.9812289173803255 0.018771080702852785 2.1081488769961148e-23 1.9168189982608934e-09
143 2 5.77602 25.7685 1.4948 2.4 1.0 1.913580555357304e-21 5.462912361311733e-40 6.01682296726614e-37
144 3 5.83821 27.3818 1.4948 -1.2 0.9997698753360481 0.00023012466336017192 1.9624676824348974e-23 5.937866653517644e-13
145 3 2.15175 24.7945 1.4948 -1.2 0.9998280179987938 0.0001719820007729906 4.214910667310056e-25 4.326074239246993e-13
146 3 5.07184 25.0624 0.196716 -1.2 0.9992276346890309 0.0007723653097527303 3.320903287949084e-21 1.2148993261524856e-12
147 1 6.66374 23.745 2.9896 1.2 0.9598596674812043 0.04013963502271031 1.9719953981821482e-20 6.974960815382845e-07
148 3 5.03707 25.0624 2.79288 -1.2 0.9924501844621635 0.00754981553296792 2.6762448055123624e-18 4.87086020798108e-12
149 1 -0.727559 23.7863 4.4844 1.2 0.9893698834371113 0.010590559249497053 1.2735534199793245e-16 3.955731338819458e-05
150 2 -2.5277 26.4704 4.4844 2.4 1.0 2.397056128513232e-27 2.1489588056919677e-41 4.0034296311690943e-44
151 3 -2.59107 24.8572 4.4844 -1.2 0.9850124414518077 0.01498755852775807 5.574593150094592e-18 2.043450678914055e-11
152 3 1.09817 27.4445 4.4844 -1.2 0.9860288506814449 0.013971149311329699 2.053805891030198e-19 7.219383579574597e-12
153 3 -1.78784 27.1766 3.18632 -1.2 0.9912420429538764 0.008757957044664281 1.0005571270327707e-18 1.465619612296912e-12
154 3 -1.82343 27.1766 5.78248 -1.2 0.9950408011616121 0.0049591988376656605 2.4024913825814588e-20 7.289642936043069e-13
155 1 1.62435 26.1195 2.9896 1.2 0.9802798017057729 0.0197201682521344 4.4646895083284195e-23 3.004209845680966e-08
156 1 4.43064 26.0782 4.4844 1.2 0.995173341494455 0.004823816864910737 9.240041605309436e-17 2.8416406338245615e-06
157 2 2.61607 28.143 4.4844 2.4 1.0 4.852605900394669e-28 3.675849981251506e-41 2.7943917462430807e-44
158 3 2.63853 29.7563 4.4844 -1.2 0.9479155812188591 0.052084418778813556 4.532331079951771e-17 2.3281687877330148e-12
159 3 -4.00841 27.169 4.4844 -1.2 0.9432959354806381 0.05670406450910711 1.3040878980506765e-17 1.0255921470923144e-11
160 3 3.3182 27.4369 3.18632 -1.2 0.99560160549344 0.004398394505071952 8.106649523521185e-19 1.4861538197903788e-12
161 1 1.66335 26.1195 0 1.2 0.9608397829324232 0.03916021643079527 1.3625227215100212e-23 6.367876742001401e-10
162 3 3.28288 27.4369 5.78248 -1.2 0.990788904264242 0.009211095734746075 8.521640170734635e-19 1.0165317414875424e-12
163 1 -1.18278 26.1608 1.4948 1.2 0.9813392305080659 0.01866076857764745 5.5715915420908075e-24 9.142852138137306e-10
164 2 0.635424 24.0959 1.4948 2.4 1.0 1.2255209146912876e-19 8.623880925689542e-38 1.1387422394058134e-36
165 3 0.617906 22.4827 1.4948 -1.2 0.9975090141990843 0.0024909857944897195 8.018910990865542e-21 6.418787093031492e-12
166 3 7.25781 25.07 1.4948 -1.2 0.9994735486470266 0.0005264513524677417 4.232637131989903e-23 5.059357430963506e-13
167 3 -0.0337363 24.8021 0.196716 -1.2 0.9977685799436704 0.0022314200542893382 1.0538755766831601e-19 2.0460246393938862e-12
168 3 -0.0687235 24.8021 2.79288 -1.2 0.9960633408617234 0.0039366591336183155 5.970263998360899e-19 4.653001562083859e-12
169 1 6.82195 28.494 0 1.2 0.9689747149429798 0.03102528466676488 7.340706911837443e-24 3.902531716734263e-10
170 1 4.10106 33.2017 1.4948 1.2 0.987065698907009 0.012934293502805184 1.0645708581799371e-23 7.590179548662714e-09
171 2 5.89839 30.5175 1.4948 2.4 1.0 2.7987294965357283e-25 5.4959848508748116e-42 2.1420325198220354e-39
172 3 5.96289 32.1308 1.4948 -1.2 0.999845575347822 0.0001544246516526121 1.5671223919576042e-23 5.200315588421865e-13
173 3 2.27266 29.5435 1.4948 -1.2 0.9999283658482274 7.163415162378831e-05 1.4206306384335542e-25 1.4546242254689828e-13
174 3 5.19102 29.8114 0.196716 -1.2 0.999956029598015 4.397040188294084e-05 2.1783652724776943e-24 9.924501155543983e-14
175 1 6.78546 28.494 2.9896 1.2 0.9900859436904431 0.009914005102281567 6.486488090631664e-23 5.1207277558240414e-08
176 3 5.16061 29.8114 2.79288 -1.2 0.9962933347890001 0.003706665210625892 1.147938849112942e-19 3.7781809327831854e-13
177 1 -0.603205 28.5353 4.4844 1.2 0.9978890904819321 0.0021104705877349884 8.258104068347664e-19 4.3893033090209126e-07
178 2 -2.39877 31.2194 4.4844 2.4 1.0 1.2250567297573166e-28 3.169180642323415e-41 3.704020172304503e-45
179 3 -2.46483 29.6062 4.4844 -1.2 0.8970473472812801 0.10295265271179947 2.3377652087282988e-17 6.922553267086003e-12
180 3 1.22864 32.1935 4.4844 -1.2 0.9515510787418348 0.04844892125454766 2.02724029379311e-18 3.6191737481189557e-12
181 3 -1.66032 31.9256 3.18632 -1.2 0.9926956557383906 0.007304344260871819 5.964402594346127e-19 7.438664225681073e-13
182 3 -1.69072 31.9256 5.78248 -1.2 0.9869834391399751 0.013016560859603557 5.751713822276394e-20 4.2285726066648204e-13
183 1 1.7499 30.8685 2.9896 1.2 0.9936790850745543 0.0063209094706678185 1.5465211913734994e-24 5.45478377936902e-09
184 1 4.55894 30.8272 4.4844 1.2 0.9994637199115255 0.0005362604132054637 1.0388648771407537e-19 1.9675263673444328e-08
185 2 2.7476 32.892 4.4844 2.4 1.0 3.5877208644333744e-28 5.295541961038366e-40 4.942932394557668e-44
186 3 2.77235 34.5053 4.4844 -1.2 0.4837030503528958 0.516296949634066 1.437565478092426e-14 1.3027607432119878e-11
187 3 -3.87837 31.918 4.4844 -1.2 0.8669992685218303 0.13300073147461206 1.7424770882109197e-17 3.5623381315088856e-12
188 3 3.44611 32.1859 3.18632 -1.2 0.9943750969174667 0.005624903081767583 7.810370158595706e-19 7.62871041631332e-13
189 1 1.7837 30.8685 0 1.2 0.9748544132273563 0.025145586429477552 2.0642578626709383e-26 3.4316263451564525e-10
190 3 3.41602 32.1859 5.78248 -1.2 0.7991977049334359 0.2008022950654172 6.383996287798141e-17 1.1477314098887712e-12
191 1 -1.05984 30.9098 1.4948 1.2 0.9887479391144588 0.011252060559964453 4.3261361112404645e-26 3.255825953663757e-10
192 2 0.755243 28.8449 1.4948 2.4 1.0 3.7094075216386705e-25 2.204926112179481e-41 3.09023524783032e-40
193 3 0.735127 27.2317 1.4948 -1.2 0.9998226423188269 0.00017735768109386883 1.2352836779042652e-23 7.793386789093449e-14
194 3 7.37914 29.819 1.4948 -1.2 0.9997916447414656 0.00020835525803469755 1.2781485128229228e-24 4.965792434227771e-13
195 3 0.0850649 29.5511 0.196716 -1.2 0.9995243418110885 0.0004756581885835801 2.9212748222841955e-21 3.314453018378779e-13
196 3 0.0543974 29.5511 2.79288 -1.2 0.9989679603093142 0.001032039690345764 1.3298010932926289e-20 3.416623177791873e-13
197 1 6.94543 33.243 0 1.2 0.9794600761373782 0.020539923631186292 1.106170342246715e-26 2.314307592948614e-10
198 1 4.23267 37.9507 1.4948 1.2 0.9732441916455656 0.0267557138600132 7.500426962501294e-21 9.449442557170053e-08
199 2 6.02709 35.2665 1.4948 2.4 1.0 1.7748174583542737e-24 2.6201912054330306e-39 2.888325256542053e-37
200 3 6.09339 36.8798 1.4948 -1.2 0.9968914075917139 0.0031085923911690276 4.1295324893826977e-19 1.7121120546655538e-11
201 3 2.40018 34.2925 1.4948 -1.2 0.9994582701362466 0.0005417298567147889 2.6761142929652146e-22 7.037415142403791e-12
202 3 5.31645 34.5604 0.196716 -1.2 0.9999514824045147 4.8517595142324985e-05 1.511786987870217e-23 3.45487840713094e-13
203 1 6.91449 33.243 2.9896 1.2 0.9958528633351119 0.004147120382820974 1.703260502162811e-22 1.628206063638635e-08
204 3 5.291 34.5604 2.79288 -1.2 0.9713047424369757 0.028695257558250305 3.230223811841392e-17 4.7752535238933465e-12
205 1 -0.471101 33.2843 4.4844 1.2 0.9991240980474455 0.0008758573959473998 6.73687982162285e-19 4.4556605299131495e-08
206 2 -2.26307 35.9684 4.4844 2.4 1.0 3.0496433595077055e-26 1.7861941102470476e-35 4.850949931136166e-42
207 3 -2.33122 34.3552 4.4844 -1.2 0.6196551375717543 0.3803448624098826 2.8415368082905816e-15 1.835838964146734e-11
208 3 1.36549 36.9425 4.4844 -1.2 0.11994339242116553 0.8800566075409767 1.457605837639853e-13 3.771575715198096e-11
209 3 -1.52658 36.6746 3.18632 -1.2 0.8081248755265799 0.19187512444759564 9.76998254897462e-15 2.581871150742826e-11
210 3 -1.55122 36.6746 5.78248 -1.2 0.181860414591913 0.8181395854046888 7.627278332363882e-15 3.3840352500273304e-12
211 1 1.882 35.6175 2.9896 1.2 0.991438635297577 0.008561262039765418 7.469257663363444e-21 1.0266265868312896e-07
212 1 4.69415 35.5762 4.4844 1.2 0.9989712138431991 0.0010282465814141699 2.4342995821845295e-16 5.395753825741193e-07
213 2 2.88522 37.641 4.4844 2.4 1.0 1.708634017891649e-24 3.50354348317315e-33 4.755875712816839e-40
214 3 2.91159 39.2543 4.4844 -1.2 0.07338515149289274 0.9266148484515161 1.563451302589219e-12 5.402839282178501e-11
215 3 -3.74183 36.667 4.4844 -1.2 0.1485512709816159 0.8514487289673243 8.547008503184732e-14 5.097837774194609e-11
216 3 3.58014 36.9349 3.18632 -1.2 0.9151937720089733 0.08480622796827286 1.2250689964202729e-15 2.2745681065951133e-11
217 1 1.90997 35.6175 0 1.2 0.9677815147386899 0.032218481618939365 1.792428277336994e-24 3.642363779791562e-09
218 3 3.55582 36.9349 5.78248 -1.2 0.16925439276786994 0.8307456072276876 1.1006896075524988e-14 4.434900399710561e-12
219 1 -0.93068 35.6588 1.4948 1.2 0.9866833369895956 0.013316660056197492 4.785330384144781e-24 2.954208604403292e-09
220 2 0.881882 33.5939 1.4948 2.4 1.0 7.739428341024506e-26 8.458545859948771e-40 1.3813296003581286e-38
221 3 0.859602 31.9807 1.4948 -1.2 0.9998244745723407 0.0001755254275464301 2.0344221203453832e-23 1.0769208018631333e-13
222 3 7.507 34.568 1.4948 -1.2 0.9991208922109928 0.0008791077780381278 2.5104296296292643e-22 1.0966150171762469e-11
223 3 0.210186 34.3001 0.196716 -1.2 0.999378591674227 0.0006214083240582991 7.078449273740947e-21 1.7153761853110898e-12
224 3 0.184454 34.3001 2.79288 -1.2 0.9910793645912132 0.008920635406565205 4.6961728513305156e-18 2.225355405009133e-12
225 1 7.07415 37.992 0 1.2 0.9099179300112725 0.09008204971726522 3.6888065248900484e-22 2.0271459220417945e-08
226 1 4.36817 42.6997 1.4948 1.2 0.8553259047425067 0.14465367430329962 5.651405044506556e-15 2.0420954194117106e-05
227 2 6.16058 40.0155 1.4948 2.4 1.0 3.560694332984456e-20 1.5840461529529832e-32 1.8902824769838407e-32
228 3 6.22815 41.6288 1.4948 -1.2 0.7421362397570022 0.2578637573244022 7.435948692026936e-14 2.918522446398695e-09
229 3 2.53282 39.0415 1.4948 -1.2 0.9940317462060364 0.005968253380761772 6.076832512563946e-19 4.132027283289001e-10
230 3 5.44674 39.3094 0.196716 -1.2 0.9984401098380856 0.0015598900861115857 3.2396887913576127e-19 7.580300661393993e-11
231 1 7.04922 37.992 2.9896 1.2 0.9828629723350821 0.017124827932122673 2.0162607357184124e-16 1.2199732801948779e-05
232 3 5.42658 39.3094 2.79288 -1.2 0.5086760002946793 0.49132399956036177 3.5604527734989404e-13 1.445997019524564e-10
233 1 -0.333062 38.0333 4.4844 1.2 0.9977084334412687 0.0022811643806332667 3.5065206060997705e-14 1.0402178058668228e-05
234 2 -2.12255 40.7174 4.4844 2.4 1.0 2.802409057963117e-22 5.106631820499424e-30 1.6200305292870463e-36
235 3 -2.19212 39.1042 4.4844 -1.2 0.11239312384171313 0.8876068760621009 1.0920070975440346e-12 9.509993618930279e-11
236 3 1.50676 41.6915 4.4844 -1.2 0.008072370416346834 0.9919276294850196 1.5956655436992102e-11 8.267205600403841e-11
237 3 -1.3884 41.4236 3.18632 -1.2 0.041154844130207986 0.9588451557511394 6.5498078900504155e-12 1.1210104779622104e-10
238 3 -1.40713 41.4236 5.78248 -1.2 0.011818651668633127 0.9881813483219897 6.914407248633418e-13 8.690035628312661e-12
239 1 2.01892 40.3665 2.9896 1.2 0.9191098911827955 0.08020550283830302 8.66724808801793e-12 0.0006846059702273436
240 1 4.83434 40.3252 4.4844 1.2 0.9947480581234958 0.005091121622937062 1.0802188646787837e-11 0.0001608202427581594
241 2 3.02698 42.39 4.4844 2.4 1.0 2.9418437460480384e-22 2.0582631471976142e-29 3.136510757937086e-37
242 3 3.05433 44.0033 4.4844 -1.2 0.015133574201004868 0.9848664257051387 3.336145721345285e-11 6.050001276608528e-11
243 3 -3.60077 41.416 4.4844 -1.2 0.003990738000661172 0.9960092619246829 2.1031471565543743e-11 5.3617566833743504e-11
244 3 3.71851 41.6839 3.18632 -1.2 0.145911430855069 0.854088568728224 4.248946756337638e-12 4.124567469810204e-10
245 1 2.04077 40.3665 0 1.2 0.7772638478783153 0.2227355355778529 7.592677070006405e-20 6.165438272795754e-07
246 3 3.70011 41.6839 5.78248 -1.2 0.01626815427339643 0.9837318457063391 1.705987407545018e-12 1.8563411513959713e-11
247 1 -0.796865 40.4078 1.4948 1.2 0.9179952341893612 0.08200345762156871 8.833942501550428e-18 1.3081890688819565e-06
248 2 1.01387 38.3429 1.4948 2.4 1.0 2.4798328260664486e-22 3.482022858847042e-34 5.898646716730973e-35
249 3 0.989947 36.7297 1.4948 -1.2 0.9984048770526507 0.0015951229414326808 3.8536955700537935e-20 5.910256757875186e-12
250 3 7.63988 39.317 1.4948 -1.2 0.9863704970470661 0.013629502122635707 1.27936588785634e-18 8.30294729422303e-10
251 3 0.340253 39.0491 0.196716 -1.2 0.9970673415132735 0.0029326583438215657 1.475447614547455e-18 1.4290968645681968e-10
252 3 0.319795 39.0491 2.79288 -1.2 0.8128070269994533 0.18719297287348188 3.116438428165757e-14 1.2703247970028236e-10
253 1 7.20667 42.741 0 1.2 0.6506022341702116 0.349394645975187 1.5471059200815538e-16 3.119854601583683e-06
254 1 4.50613 47.4487 1.4948 1.2 0.8959481637945307 0.1040182948463364 1.2545181596140167e-13 3.3541359008524416e-05
255 2 6.29731 44.7645 1.4948 2.4 1.0 5.3269472360535866e-17 7.185010185138663e-28 3.7460886607978e-30