ITEM: TIMESTEP
6000
ITEM: NUMBER OF ATOMS
10500
ITEM: BOX BOUNDS xy xz yz pp pp pp
0	15.2974	5.099
0	118.725	0
0	89.688	0
ITEM: ATOMS id type xu yu zu q pCrystal pDisloC pDisloB pDisloA
1 1 6.2404 -6.37941e-06 0 1.2 7.857176937426649e-22 1.2331174171653251e-09 0.999999998658808 1.0808132066224857e-10
2 1 3.46349 4.70768 1.4948 1.2 9.330846777376862e-07 0.04234203340980127 0.34662047017686765 0.6110365633286515
3 2 5.2885 2.02354 1.4948 2.4 2.812990327441174e-06 0.9965010097510006 0.0014561221794563946 0.0020400550792121367
4 3 5.33628 3.63678 1.4948 -1.2 8.147946640291796e-11 0.9999818106402641 1.8167644510618107e-05 2.163374432931864e-08
5 3 1.67294 1.04952 1.4948 -1.2 1.3790843935035635e-17 0.8095896830066353 0.1904103130927378 3.9006263910337945e-09
6 3 4.59532 1.31737 0.196716 -1.2 5.642447696867657e-19 0.363951699532086 0.636048300377693 9.021960657714107e-11
7 1 6.18956 -6.37941e-06 2.9896 1.2 2.995175283086072e-26 1.947204119859849e-09 0.9999999980410905 1.1708690148825454e-11
8 3 4.55118 1.31737 2.79288 -1.2 1.345075256816202e-21 0.031319386588152906 0.9686806134002917 1.1550862143333588e-11
9 1 -1.20682 0.0413099 4.4844 1.2 2.858606919818696e-29 1.0307417155681531e-10 0.9999999998845226 1.2401438557918126e-11
10 2 -3.0337 2.72544 4.4844 2.4 7.085185494337971e-09 0.9990230942842141 0.0003538215191467037 0.0006230771114549732
11 3 -3.08099 1.11221 4.4844 -1.2 2.306887841758992e-24 0.020193782544468256 0.979806217452538 2.9934102989977463e-12
12 3 0.582463 3.69946 4.4844 -1.2 1.391881015951305e-14 0.9960537691232085 0.003946221042268113 9.834505460823098e-09
13 3 -2.29524 3.43162 3.18632 -1.2 1.0308007215972275e-13 0.9997977949711004 0.000202196315848063 8.712951325045129e-09
14 3 -2.34216 3.43162 5.78248 -1.2 2.035394770374857e-17 0.9459213432636993 0.05407865631436958 4.2193440056043355e-10
15 1 1.12778 2.37449 2.9896 1.2 1.165516271297993e-18 1.956628272387265e-06 0.9999978336533548 2.0971837116271333e-07
16 1 3.92855 2.33318 4.4844 1.2 1.1949652016741222e-22 8.728616277153142e-09 0.9999998483472412 1.4292414831355674e-07
17 2 2.09341 4.39804 4.4844 2.4 0.39104901172643475 0.608930563326561 2.0195083675624747e-05 2.2986333386218178e-07
18 3 2.09991 6.01128 4.4844 -1.2 4.915989527051832e-07 0.9999989109007676 3.7505493585494404e-07 2.224453402972331e-07
19 3 -4.52137 3.42402 4.4844 -1.2 1.2735017443214928e-16 0.9497693777439 0.05023062096208311 1.294013927736725e-09
20 3 2.80834 3.69187 3.18632 -1.2 3.445568566876428e-14 0.9994113153506708 0.0005886831538703067 1.4954249284670824e-09
21 1 1.17857 2.37449 0 1.2 2.9890350166872084e-18 2.288608939496102e-06 0.9999970060543913 7.053366753990028e-07
22 3 2.76143 3.69187 5.78248 -1.2 1.8681484917317546e-18 0.9518281060476855 0.04817189374227138 2.1004595627500424e-10
23 1 -1.67381 2.41581 1.4948 1.2 4.3974530012716734e-11 0.0024595849368973504 0.9971113757530374 0.0004290392660947258
24 2 0.16286 0.350945 1.4948 2.4 1.8932123245341805e-09 0.7885532529501476 0.027227548466284755 0.18421919669035278
25 3 0.15972 -1.26229 1.4948 -1.2 1.5535904394896305e-15 0.9439239832885096 0.056075892088970736 1.2462252442791923e-07
26 3 6.77654 1.32496 1.4948 -1.2 2.4854357805362747e-15 0.9835410740506725 0.016458910648433748 1.530089126108953e-08
27 3 -0.508028 1.05712 0.196716 -1.2 2.8159744664987983e-19 0.17093386275611305 0.8290661362238257 1.0200585083739092e-09
28 3 -0.552171 1.05712 2.79288 -1.2 1.400788481287164e-21 0.19283418717047696 0.8071658123094413 5.200855461840374e-10
29 1 6.31713 4.74899 0 1.2 2.987076604715232e-08 0.05414508207106443 0.8846419942440102 0.06121289381416558
30 1 3.54847 9.45668 1.4948 1.2 0.9219735386343724 0.07763173924655106 6.636387785676808e-16 0.00039472211907008123
31 2 5.36879 6.77254 1.4948 2.4 0.9999999982413783 1.7586149540867699e-09 6.439264259749221e-25 5.0235292916281846e-21
32 3 5.41937 8.38578 1.4948 -1.2 0.9720335611274797 0.027966402439482264 3.375802543695584e-17 3.64330448567897e-08
33 3 1.75158 5.79852 1.4948 -1.2 0.0016925542043828934 0.9983067618171723 3.5210433969053686e-11 6.839432287521944e-07
34 3 4.67421 6.06637 0.196716 -1.2 1.3382749330520415e-05 0.9999865916788708 8.864173483807647e-09 1.6707631885908677e-08
35 1 6.26654 4.74899 2.9896 1.2 2.8974026484027254e-08 0.001016834229757786 0.04299739956790045 0.9559857372283117
36 3 4.63043 6.06637 2.79288 -1.2 3.055191758634043e-06 0.9999968406474294 4.5262045695351266e-08 5.889877111454169e-08
37 1 -1.12976 4.79031 4.4844 1.2 2.1518983446797505e-08 0.00013688218837364829 0.40626206017906813 0.5936010361135802
38 2 -2.9517 7.47444 4.4844 2.4 0.999999999949992 5.00061692856673e-11 4.6770640571977834e-20 6.27701553221249e-23
39 3 -3.00198 5.86121 4.4844 -1.2 8.431596516983617e-09 0.9999916911009743 8.293780545333315e-06 6.6868769577005356e-09
40 3 0.666315 8.44846 4.4844 -1.2 0.011520107164099147 0.9884793683263351 3.046732394390763e-10 5.242048989793641e-07
41 3 -2.21213 8.18062 3.18632 -1.2 0.03081567080216262 0.9691842633528635 6.84636347882921e-11 6.577651288057874e-08
42 3 -2.25864 8.18062 5.78248 -1.2 0.00030799269375387253 0.9996919288608165 5.8915264985951036e-08 1.9530171276373022e-08
43 1 1.20893 7.12349 2.9896 1.2 0.05190005794652561 0.23682415260147358 1.7286883974731261e-07 0.7112756165831596
44 1 4.00982 7.08218 4.4844 1.2 0.0018594616261614638 0.005657534554220378 0.0001730692444404547 0.9923099345751822
45 2 2.17861 9.14704 4.4844 2.4 1.0 6.066857672153809e-17 1.5145150041520652e-30 1.81335420459234e-32
46 3 2.18828 10.7603 4.4844 -1.2 0.9222408724594081 0.07775909912667482 1.1582976977198013e-14 2.8413904817792286e-08
47 3 -4.43805 8.17302 4.4844 -1.2 0.0006397246259738768 0.9993601560029118 6.192088487418592e-08 5.745022438288682e-08
48 3 2.89193 8.44087 3.18632 -1.2 0.11340275317898665 0.8865967920774833 1.2496761810553531e-11 4.5473103836294976e-07
49 1 1.25915 7.12349 0 1.2 0.08825791919168331 0.7742473509942364 3.283595591595711e-07 0.13749440145451974
50 3 2.84547 8.44087 5.78248 -1.2 0.0009857546112386603 0.9990141965056963 1.114663073779943e-08 3.773643588848945e-08
51 1 -1.59284 7.16481 1.4948 1.2 0.22100831504098323 0.7173937885782449 6.475236379043743e-09 0.06159788990553797
52 2 0.240329 5.09994 1.4948 2.4 0.9996981834092651 0.0003018165892866712 1.60823182161401e-15 1.4478764311630481e-12
53 3 0.234538 3.48671 1.4948 -1.2 2.8051195734941304e-12 0.9999156986706386 8.426991045781262e-05 3.1416096184606714e-08
54 3 6.85564 6.07396 1.4948 -1.2 2.1648790303412983e-05 0.9999782041999171 1.8841806366844297e-09 1.4512559890903393e-07
55 3 -0.429565 5.80612 0.196716 -1.2 8.492737225394632e-07 0.9999990192927704 1.2494082335308036e-07 6.492678041464775e-09
56 3 -0.473377 5.80612 2.79288 -1.2 1.33600552097779e-07 0.9999994788586485 3.6363986849370347e-07 2.3900929577603255e-08
57 1 6.40169 9.49799 0 1.2 0.9601231162199008 0.03987325225985526 2.1381516330469862e-16 3.6315202457614758e-06
58 1 3.64209 14.2057 1.4948 1.2 0.9870245639658589 0.012974785096986328 9.288799194337929e-21 6.509371572768736e-07
59 2 5.45748 11.5215 1.4948 2.4 1.0 4.513423297658208e-16 6.187452633847114e-39 4.929454377616449e-34
60 3 5.51101 13.1348 1.4948 -1.2 0.9998278681363321 0.0001721315952332954 2.9224816632328528e-24 2.684412469681595e-10
61 3 1.83851 10.5475 1.4948 -1.2 0.9995599873421992 0.00044001212658928077 9.530982798238099e-22 5.31211956566936e-10
62 3 4.7611 10.8154 0.196716 -1.2 0.991361900841568 0.008638097577805776 7.13204725674906e-18 1.5806292058593573e-09
63 1 6.35203 9.49799 2.9896 1.2 0.8991451588093228 0.0990712960097966 8.942188820989536e-15 0.0017835451808755384
64 3 4.71833 10.8154 2.79288 -1.2 0.9894501876582157 0.010549809600515077 8.39761372509705e-17 2.7412675152171475e-09
65 1 -1.0438 9.53931 4.4844 1.2 0.851841776119973 0.045198269170495825 1.0801149383927618e-09 0.10295995362941608
66 2 -2.8604 12.2234 4.4844 2.4 1.0 7.98548084519801e-20 7.371411906981618e-35 8.401614985315909e-38
67 3 -2.91391 10.6102 4.4844 -1.2 0.9212641326578291 0.07873585848690266 1.190702622529579e-14 8.855250986588383e-09
68 3 0.7596 13.1975 4.4844 -1.2 0.8260284872461437 0.17397150192233513 1.1988522421091475e-14 1.0831515777508835e-08
69 3 -2.12001 12.9296 3.18632 -1.2 0.9941839961601693 0.00581600340160161 2.3385664945368064e-17 4.382244311016034e-10
70 3 -2.16532 12.9296 5.78248 -1.2 0.9177193650109841 0.0822806346829409 2.5760235076151877e-15 3.060729632840296e-10
71 1 1.29891 11.8725 2.9896 1.2 0.9742515801924988 0.025490031304701035 5.4509046238785844e-18 0.00025838850280101184
72 1 4.10033 11.8312 4.4844 1.2 0.9658119581081038 0.01153501400371926 6.668689204321674e-13 0.022653027887506134
73 2 2.27333 13.896 4.4844 2.4 1.0 8.784314073444637e-22 3.9933537250814944e-38 1.1043242659265068e-39
74 3 2.28634 15.5093 4.4844 -1.2 0.9980761180484062 0.0019238818404897255 4.923160413727203e-19 1.1109939369295292e-10
75 3 -4.34533 12.922 4.4844 -1.2 0.5786548384244375 0.421345151381695 4.185606359892282e-13 1.019344399578505e-08
76 3 2.98455 13.1899 3.18632 -1.2 0.9894323679003262 0.010567631382577611 1.2013696641235023e-16 7.170959446892243e-10
77 1 1.34779 11.8725 0 1.2 0.9714296131483814 0.028562029958717403 1.0838732895306558e-18 8.35689290469861e-06
78 3 2.93934 13.1899 5.78248 -1.2 0.8955685987639795 0.10443140098483797 3.838365557681639e-15 2.511829929000756e-10
79 1 -1.50344 11.9138 1.4948 1.2 0.9813388340789996 0.018656256952176837 1.2767062632594763e-19 4.908968824173934e-06
80 2 0.326006 9.84894 1.4948 2.4 0.9999999999999858 1.4870454792072772e-14 5.272318824832319e-36 1.249715118079498e-32
81 3 0.317364 8.23571 1.4948 -1.2 0.8460056169311376 0.15399427851671124 7.283920096690979e-16 1.0455214733103681e-07
82 3 6.94307 10.823 1.4948 -1.2 0.9990880114065365 0.0009119881321420054 1.335816125871352e-21 4.6132817279198113e-10
83 3 -0.343122 10.5551 0.196716 -1.2 0.979593940575899 0.02040605698496986 6.457580332750911e-17 2.439128168239224e-09
84 3 -0.385966 10.5551 2.79288 -1.2 0.980304107814446 0.01969588574918399 4.3631630425484113e-16 6.436375629118786e-09
85 1 6.49448 14.247 0 1.2 0.9912791434220471 0.008720843350651014 2.4068218657559546e-22 1.3227294914484233e-08
86 1 3.74457 18.9547 1.4948 1.2 0.984786235945527 0.015213138186636213 3.1552514143465176e-19 6.258678320980909e-07
87 2 5.55495 16.2705 1.4948 2.4 1.0 1.432891274828811e-16 1.3324347146918326e-40 7.643304623098503e-35
88 3 5.6115 17.8838 1.4948 -1.2 0.9993587192265112 0.0006412807210561684 8.404111174119542e-24 5.2433459292975166e-11
89 3 1.93416 15.2965 1.4948 -1.2 0.9999110404595597 8.895952891887922e-05 1.161422636782412e-24 1.1524617176479351e-11
90 3 4.85636 15.5644 0.196716 -1.2 0.9991519915429382 0.0008480083554453793 1.8923811463073316e-21 1.0162030904833436e-10
91 1 6.44662 14.247 2.9896 1.2 0.981062522670735 0.018907276348171183 2.5216910118984086e-19 3.020098109573463e-05
92 3 4.81537 15.5644 2.79288 -1.2 0.9985042080425025 0.0014957917463454889 1.941126680902412e-19 2.1114634600665982e-10
93 1 -0.948271 14.2883 4.4844 1.2 0.988764218563972 0.008868799898311288 4.24751741366257e-15 0.0023669815377126164
94 2 -2.75928 16.9724 4.4844 2.4 1.0 7.928903663864354e-23 9.036585306413273e-40 1.4415720080003272e-40
95 3 -2.81617 15.3592 4.4844 -1.2 0.993261790164699 0.006738209213427154 1.695621886000793e-17 6.218754514835738e-10
96 3 0.862762 17.9465 4.4844 -1.2 0.9058960430231735 0.0941039564549087 2.8004476949820404e-16 5.219189817024955e-10
97 3 -2.0185 17.6786 3.18632 -1.2 0.9951232484931181 0.004876751488352293 2.497271778104657e-18 1.8532977855659057e-11
98 3 -2.06164 17.6786 5.78248 -1.2 0.9969736682941106 0.003026331703649757 8.598417889273145e-20 2.244971841524752e-12
99 1 1.39817 16.6215 2.9896 1.2 0.9797206892173543 0.020255628356001844 9.522207872718117e-20 2.368242663685118e-05
100 1 4.20062 16.5802 4.4844 1.2 0.9931553925405074 0.005670808657728548 5.92938970030125e-15 0.0011737988017526142
101 2 2.37796 18.645 4.4844 2.4 1.0 1.404302609157984e-23 5.014315764006266e-40 8.183967712148771e-42
102 3 2.39434 20.2583 4.4844 -1.2 0.9972786560055601 0.002721343990746778 4.15263790588024e-19 3.69832809014676e-12
103 3 -4.24274 17.671 4.4844 -1.2 0.8786961992936072 0.12130380047843344 1.1005441864789164e-15 2.2795112507654003e-10
104 3 3.08659 17.9389 3.18632 -1.2 0.9934285713356383 0.0065714286066532535 9.602080040060373e-18 5.770413836368402e-11
105 1 1.44478 16.6215 0 1.2 0.9842255549248378 0.015774385293359873 4.292128899460242e-22 5.978180228027344e-08
106 3 3.0436 17.9389 5.78248 -1.2 0.9831908132649899 0.016809186733087622 9.385570050625932e-18 1.9169733706207212e-12
107 1 -1.40524 16.6628 1.4948 1.2 0.9869707510646921 0.013029122312039766 9.33859519987453e-22 1.2662326659761146e-07
108 2 0.420358 14.5979 1.4948 2.4 1.0 3.87308519862133e-16 1.8956027459584628e-39 1.8551555866243781e-34
109 3 0.408732 12.9847 1.4948 -1.2 0.9995985353107892 0.00040146453416019045 6.460834199696033e-23 1.5504419925194036e-10
110 3 7.03923 15.572 1.4948 -1.2 0.9998071529259936 0.00019284703183454586 2.7708132130692343e-24 4.216517954285693e-11
111 3 -0.248332 15.3041 0.196716 -1.2 0.9983782094185796 0.001621790318937835 4.6061685471674234e-21 2.624791471766349e-10
112 3 -0.289436 15.3041 2.79288 -1.2 0.9986978339376117 0.0013021658676377783 5.778806567268473e-20 1.947508067736171e-10
113 1 6.59566 18.996 0 1.2 0.9878837842656295 0.012116214488278348 5.7188356174893835e-22 1.24608907017969e-09
114 1 3.85574 23.7037 1.4948 1.2 0.9885590700618909 0.011440920100840846 5.5249893215134934e-21 9.837275138201827e-09
115 2 5.66125 21.0195 1.4948 2.4 1.0 1.7358209040286844e-19 4.061195343832498e-41 8.280638152414064e-37
116 3 5.72074 22.6328 1.4948 -1.2 0.9988522801746432 0.0011477198235897556 9.50712113131424e-23 1.770362254822155e-12
117 3 2.03867 20.0455 1.4948 -1.2 0.9997877437861478 0.00021225621194992627 1.6223805289147699e-24 1.908563457519007e-12
118 3 4.96004 20.3134 0.196716 -1.2 0.9983951448173775 0.0016048551719360332 6.808450299306002e-21 1.0679836605737452e-11
119 1 6.55057 18.996 2.9896 1.2 0.9866003957573298 0.013398092357066856 1.9908875227350244e-19 1.5118855969541048e-06
120 3 4.92172 20.3134 2.79288 -1.2 0.9974381591075496 0.002561840886998913 3.657772736349663e-19 5.449749460466486e-12
121 1 -0.84282 19.0373 4.4844 1.2 0.995931663916014 0.004012722593581825 1.0013236298144995e-16 5.561349040785992e-05
122 2 -2.64823 21.7214 4.4844 2.4 1.0 6.0360249884587005e-25 2.228963009588633e-41 1.1817374617183126e-42
123 3 -2.70847 20.1082 4.4844 -1.2 0.9926459478993322 0.007354052082975738 1.782302801490336e-18 1.7691305391286017e-11
124 3 0.97581 22.6955 4.4844 -1.2 0.9373986895087923 0.06260131048427632 2.5239478716186375e-18 6.936841693465598e-12
125 3 -1.9076 22.4276 3.18632 -1.2 0.9902237968227299 0.009776203176644571 2.4275978059939615e-18 6.253229098318894e-13
126 3 -1.9475 22.4276 5.78248 -1.2 0.9939271728574101 0.006072827142362705 1.6629467299791142e-20 2.246403587135389e-13
127 1 1.50678 21.3705 2.9896 1.2 0.9897540481225792 0.010245236730514234 2.6226181602727825e-20 7.151469033221572e-07
128 1 4.31086 21.3292 4.4844 1.2 0.9973091951493133 0.0026082128515497955 6.202484298215673e-14 8.259199907914363e-05
129 2 2.49243 23.394 4.4844 2.4 1.0 3.216118617933327e-26 3.3605463037221316e-41 2.3972924083717427e-44
130 3 2.51204 25.0073 4.4844 -1.2 0.9647268515293677 0.03527314846879666 3.728598695716743e-17 1.8403728277649443e-12
131 3 -4.13026 22.42 4.4844 -1.2 0.7819916724643926 0.218008327521923 2.2707619809841315e-16 1.3677942243383771e-11
132 3 3.19799 22.6879 3.18632 -1.2 0.9916200089337164 0.00837999106535461 4.266488642652552e-18 9.235230937576866e-13
133 1 1.5501 21.3705 0 1.2 0.9800482338705256 0.019951762416927463 3.91075250079077e-22 3.7125495887577406e-09
134 3 3.1583 22.6879 5.78248 -1.2 0.9622760878768621 0.03772391212258555 5.8872595404669104e-18 5.549845753862209e-13
135 1 -1.29822 21.4118 1.4948 1.2 0.9913367368169369 0.008663259193752541 1.5327767363657972e-21 3.9893085505635856e-09
136 2 0.523568 19.3469 1.4948 2.4 1.0 4.33381330931261e-18 6.452867960275679e-39 1.204619343980064e-35
137 3 0.508934 17.7337 1.4948 -1.2 0.9989878442121682 0.0010121557566423545 3.3111688341098796e-22 3.1189783328637786e-11
138 3 7.14425 20.321 1.4948 -1.2 0.9995404301724683 0.00045956982658730165 5.916796500768438e-23 9.476025577156746e-13
139 3 -0.145107 20.0531 0.196716 -1.2 0.9962215988193892 0.0037784011667657213 2.3051046267279695e-19 1.3839119895965795e-11
140 3 -0.183601 20.0531 2.79288 -1.2 0.9974381655718779 0.002561834422966476 1.8463290205340147e-19 5.160148156501355e-12
141 1 6.70502 23.745 0 1.2 0.9797108426218677 0.02028915712968426 4.244285469147824e-23 2.484525745845956e-10
142 1 3.97493 28.4527 1.4948 1.2 0.9907832669623459 0.009216732141536135 3.088600770579777e-23 8.961174527488232e-10
143 2 5.77602 25.7685 1.4948 2.4 1.0 3.597482708123733e-23 8.988697447788907e-42 7.3179080400084035e-40
144 3 5.83821 27.3818 1.4948 -1.2 0.9998252336375288 0.00017476636237574072 7.542000108473006e-24 9.065362628581635e-14
145 3 2.15175 24.7945 1.4948 -1.2 0.9999024876216555 9.75123783035761e-05 6.512473783157461e-26 4.380134197473573e-14
146 3 5.07184 25.0624 0.196716 -1.2 0.9995031240746968 0.0004968759243818838 2.9106949996222953e-22 9.254936876075634e-13
147 1 6.66374 23.745 2.9896 1.2 0.9918613761419459 0.008138572161279103 7.316852753157783e-21 5.169676887163279e-08
148 3 5.03707 25.0624 2.79288 -1.2 0.9922088164085661 0.007791183590654204 2.1198013474997068e-18 7.855361422418938e-13
149 1 -0.727559 23.7863 4.4844 1.2 0.9979800114094692 0.0020180402736834696 4.8930221704545935e-17 1.948316851974325e-06
150 2 -2.5277 26.4704 4.4844 2.4 1.0 1.3841459380056763e-27 1.1757965009479879e-41 1.9221281898768315e-46
151 3 -2.59107 24.8572 4.4844 -1.2 0.971711472306042 0.02828852769170857 4.524820049910318e-18 2.2528498363387846e-12
152 3 1.09817 27.4445 4.4844 -1.2 0.9085518936069737 0.0914481063921921 3.669182655405524e-18 8.354729221498334e-13
153 3 -1.78784 27.1766 3.18632 -1.2 0.9842840913710609 0.01571590862872418 3.2159837955247683e-18 2.0983496618372058e-13
154 3 -1.82343 27.1766 5.78248 -1.2 0.9665836615044229 0.03341633849542041 1.1453637280072627e-19 1.614438356908652e-13
155 1 1.62435 26.1195 2.9896 1.2 0.9943854356003876 0.005614555550628272 5.068041842017142e-22 8.848979260128967e-09
156 1 4.43064 26.0782 4.4844 1.2 0.9984416352713411 0.0015569846737755902 7.467644630335387e-15 1.3800548787533472e-06
157 2 2.61607 28.143 4.4844 2.4 1.0 1.7388983727839506e-27 4.982340090549401e-40 6.3428638590434215e-46
158 3 2.63853 29.7563 4.4844 -1.2 0.6025834206571021 0.3974165793415866 4.503665465469974e-15 1.3133243091438176e-12
159 3 -4.00841 27.169 4.4844 -1.2 0.8343346825124803 0.16566531748667132 1.5083054755869646e-17 8.480191119313882e-13
160 3 3.3182 27.4369 3.18632 -1.2 0.9901770655928821 0.009822934406938811 3.2218005732519587e-18 1.8025057593197854e-13
161 1 1.66335 26.1195 0 1.2 0.9768171772794657 0.02318282243859655 8.319577804005744e-24 2.8193315645585227e-10
162 3 3.28288 27.4369 5.78248 -1.2 0.7295543043930194 0.27044569560673226 1.119858249098311e-16 2.502644464850549e-13
163 1 -1.18278 26.1608 1.4948 1.2 0.9913491675372182 0.008650832258160643 1.2116827668426106e-23 2.0462529517415334e-10
164 2 0.635424 24.0959 1.4948 2.4 1.0 2.6860432311892043e-21 2.765022375002755e-39 6.999370574084866e-39
165 3 0.617906 22.4827 1.4948 -1.2 0.9993295492507579 0.0006704507485702526 2.1409016540073505e-22 6.684552249456498e-13
166 3 7.25781 25.07 1.4948 -1.2 0.99966325829402 0.0003367417059166663 4.074750249119363e-24 6.499439575968885e-14
167 3 -0.0337363 24.8021 0.196716 -1.2 0.999112044603359 0.0008879553960527062 8.91396560802862e-21 5.887109577106496e-13
168 3 -0.0687235 24.8021 2.79288 -1.2 0.9962706351049831 0.003729364894764589 5.1591214880365685e-19 2.545512660354841e-13
169 1 6.82195 28.494 0 1.2 0.9736104238587149 0.02638957596234786 2.490479241925931e-25 1.7894123315843072e-10
170 1 4.10106 33.2017 1.4948 1.2 0.9907510452462616 0.009248948290812596 2.2545079396742017e-23 6.4629308277661734e-09
171 2 5.89839 30.5175 1.4948 2.4 1.0 4.896519292164834e-26 5.706561781490819e-42 1.9460177229333602e-41
172 3 5.96289 32.1308 1.4948 -1.2 0.9997135322268959 0.00028646777279369974 5.624596424344602e-23 3.122545249164961e-13
173 3 2.27266 29.5435 1.4948 -1.2 0.9998568374304978 0.0001431625694271019 1.2831424710503331e-24 7.735595484847054e-14
174 3 5.19102 29.8114 0.196716 -1.2 0.9999581463584256 4.1853641521102666e-05 1.982964745951891e-24 5.729425189578465e-14
175 1 6.78546 28.494 2.9896 1.2 0.996470628926377 0.0035293601375729878 8.572086117609089e-22 1.0936044138421484e-08
176 3 5.16061 29.8114 2.79288 -1.2 0.9919156032542773 0.008084396745555635 1.6760882487988615e-18 1.7067819827430554e-13
177 1 -0.603205 28.5353 4.4844 1.2 0.9991543679995405 0.0008453912824203533 2.719508404137446e-16 2.4071803801622055e-07
178 2 -2.39877 31.2194 4.4844 2.4 1.0 6.510152414405501e-28 2.6276010363783052e-39 7.086830062815791e-46
179 3 -2.46483 29.6062 4.4844 -1.2 0.30034047421562937 0.6996595257822398 5.9871365850255405e-15 2.12990132907648e-12
180 3 1.22864 32.1935 4.4844 -1.2 0.40836138132245575 0.5916386186728342 2.5188932465710342e-15 4.7017058697752855e-12
181 3 -1.66032 31.9256 3.18632 -1.2 0.9342479404575493 0.06575205954187327 1.0640944380859639e-16 5.734867950102647e-13
182 3 -1.69072 31.9256 5.78248 -1.2 0.19905121358097597 0.8009487864182854 6.848698149320727e-16 7.437135621287731e-13
183 1 1.7499 30.8685 2.9896 1.2 0.9956182337421101 0.004381754284726899 1.2996090459501872e-21 1.1973164819200414e-08
184 1 4.55894 30.8272 4.4844 1.2 0.9993464462068298 0.0006534036083324966 2.7597213704139405e-15 1.5018484130861897e-07
185 2 2.7476 32.892 4.4844 2.4 1.0 1.0260415885023448e-26 5.560967572861836e-37 3.4077925041317656e-44
186 3 2.77235 34.5053 4.4844 -1.2 0.04859302291053113 0.951406977085305 3.6920341538389203e-13 3.7919552000833085e-12
187 3 -3.87837 31.918 4.4844 -1.2 0.17240016198666613 0.8275998380111493 2.7281831543095037e-15 2.1820606079525354e-12
188 3 3.44611 32.1859 3.18632 -1.2 0.9491981323639397 0.05080186763460278 6.090408909958384e-17 1.4621895070745904e-12
189 1 1.7837 30.8685 0 1.2 0.9810499200600981 0.018950079702185787 4.7999636554869675e-26 2.377162312675238e-10
190 3 3.41602 32.1859 5.78248 -1.2 0.0909199749583687 0.9090800250413111 7.171177369275328e-15 3.1008723998143144e-13
191 1 -1.05984 30.9098 1.4948 1.2 0.9927237966989632 0.007276203186148539 2.0399375125152015e-25 1.1488429427785037e-10
192 2 0.755243 28.8449 1.4948 2.4 1.0 3.1034599620804797e-25 2.1727313458669003e-41 3.7328338826558374e-41
193 3 0.735127 27.2317 1.4948 -1.2 0.9998557731447602 0.00014422685522623175 8.260401746007952e-24 1.797027236444806e-14
194 3 7.37914 29.819 1.4948 -1.2 0.9996432928150364 0.000356707184887849 2.403380164481069e-23 7.990657397603791e-14
195 3 0.0850649 29.5511 0.196716 -1.2 0.9996229670315531 0.0003770329682282754 1.4249614509542138e-21 2.1901871486319806e-13
196 3 0.0543974 29.5511 2.79288 -1.2 0.9949125700234477 0.0050874299764047445 3.104582656528332e-19 1.4830662430125104e-13
197 1 6.94543 33.243 0 1.2 0.982484279455469 0.01751572020132436 3.5375933584233e-26 3.43200480829621e-10
198 1 4.23267 37.9507 1.4948 1.2 0.97827141416671 0.021728477874161288 1.6172569966778794e-20 1.0795913546011652e-07
199 2 6.02709 35.2665 1.4948 2.4 1.0 6.017895466613568e-25 1.9490143228697277e-39 2.999513957096916e-38
200 3 6.09339 36.8798 1.4948 -1.2 0.9964154853518594 0.0035845146360381935 1.3984064653044821e-19 1.2108670666899633e-11
201 3 2.40018 34.2925 1.4948 -1.2 0.9985378727779611 0.0014621272165197255 1.4553497249836941e-21 5.5249537603445656e-12
202 3 5.31645 34.5604 0.196716 -1.2 0.9999264340439481 7.35659556681637e-05 2.8066834216863476e-23 3.8621527574683034e-13
203 1 6.91449 33.243 2.9896 1.2 0.9941804749203191 0.005819441707550324 7.203976114275069e-21 8.337213271420216e-08
204 3 5.291 34.5604 2.79288 -1.2 0.8471894801309001 0.15281051985846267 5.454207611358428e-16 1.063426555616358e-11
205 1 -0.471101 33.2843 4.4844 1.2 0.9986652740120571 0.0013345301835830743 2.4028433147196763e-15 1.958043532728643e-07
206 2 -2.26307 35.9684 4.4844 2.4 1.0 6.0348092327627115e-25 1.3789692153096942e-33 3.754836121586127e-41
207 3 -2.33122 34.3552 4.4844 -1.2 0.03503934216198923 0.9649606578353609 9.136835387645514e-14 2.5644353462424663e-12
208 3 1.36549 36.9425 4.4844 -1.2 0.012044424061649503 0.9879555759301132 1.7825263871932996e-12 6.4488551462511085e-12
209 3 -1.52658 36.6746 3.18632 -1.2 0.6447536071876128 0.3552463928015367 1.108168408529649e-14 1.0840785354861335e-11
210 3 -1.55122 36.6746 5.78248 -1.2 0.03737285074001816 0.9626271492578816 1.425576267555726e-14 2.0844744515432036e-12
211 1 1.882 35.6175 2.9896 1.2 0.989958722041681 0.010041011108736628 5.505918983944343e-19 2.6684958673583946e-07
212 1 4.69415 35.5762 4.4844 1.2 0.9982053816518812 0.0017919943486414327 1.3993019917189275e-13 2.623999340226238e-06
213 2 2.88522 37.641 4.4844 2.4 1.0 4.116856437421105e-24 1.0984199141765735e-32 3.747743906485975e-41
214 3 2.91159 39.2543 4.4844 -1.2 0.022700599576246785 0.9772994004153275 3.5256997677253747e-12 4.899343704141932e-12
215 3 -3.74183 36.667 4.4844 -1.2 0.00424067994135209 0.9957593200518562 6.672281658308002e-13 6.126759682674071e-12
216 3 3.58014 36.9349 3.18632 -1.2 0.6718800813921427 0.3281199185840404 1.071771772759484e-14 2.3806708337860822e-11
217 1 1.90997 35.6175 0 1.2 0.9661304061625061 0.0338695872354265 5.594852011004764e-24 6.602068609896268e-09
218 3 3.55582 36.9349 5.78248 -1.2 0.021492316548577993 0.9785076834503151 1.0912329592638187e-13 9.930057746567508e-13
219 1 -0.93068 35.6588 1.4948 1.2 0.9903731737440783 0.009626823036298271 5.834425007084018e-23 3.219626927059565e-09
220 2 0.881882 33.5939 1.4948 2.4 1.0 2.707630365113616e-26 3.1516148050624217e-40 5.68803884539001e-39
221 3 0.859602 31.9807 1.4948 -1.2 0.9997386659589202 0.00026133404102665083 2.555011013654312e-23 4.688169433636164e-14
222 3 7.507 34.568 1.4948 -1.2 0.9975075952947451 0.0024924046984781236 2.272065130263174e-21 6.777346691228745e-12
223 3 0.210186 34.3001 0.196716 -1.2 0.9992216500196534 0.0007783499782903393 1.2174473091851854e-20 2.054320794190352e-12
224 3 0.184454 34.3001 2.79288 -1.2 0.9465031745316047 0.05349682546430125 8.840741874922441e-17 4.088274843233615e-12
225 1 7.07415 37.992 0 1.2 0.9452767031588882 0.05472327218903604 6.845261989548118e-23 2.4652077444775207e-08
226 1 4.36817 42.6997 1.4948 1.2 0.93336912148399 0.06662927534023685 1.4779637944410206e-16 1.6031757776341535e-06
227 2 6.16058 40.0155 1.4948 2.4 1.0 2.3789801641431944e-21 2.7580587033946663e-33 3.6625564624302543e-34
228 3 6.22815 41.6288 1.4948 -1.2 0.875912337733838 0.12408766197776698 1.0060284171663414e-14 2.8839113196000363e-10
229 3 2.53282 39.0415 1.4948 -1.2 0.9960181194406909 0.003981880462616429 1.2599274224408092e-19 9.669771939425572e-11
230 3 5.44674 39.3094 0.196716 -1.2 0.9991044190729441 0.0008955809097052158 6.495460457326346e-20 1.7350412109809246e-11
231 1 7.04922 37.992 2.9896 1.2 0.9837258579567483 0.016261413584454373 8.182127833530334e-16 1.2728458802085122e-05
232 3 5.42658 39.3094 2.79288 -1.2 0.5083244609636136 0.49167553893270893 5.6512293910696226e-14 1.0362766159476939e-10
233 1 -0.333062 38.0333 4.4844 1.2 0.9974092771454297 0.0025836629527151724 2.869032434958451e-12 7.0598989917926985e-06
234 2 -2.12255 40.7174 4.4844 2.4 1.0 3.809940996441694e-23 4.055893794803208e-30 4.0618358620538286e-39
235 3 -2.19212 39.1042 4.4844 -1.2 0.015096825174431762 0.9849031748102537 4.502342929753233e-12 1.0819280904311333e-11
236 3 1.50676 41.6915 4.4844 -1.2 0.0037667902050139163 0.9962332097605757 3.142098025828873e-11 2.9882743355137134e-12
237 3 -1.3884 41.4236 3.18632 -1.2 0.037638557193054964 0.9623614427822802 4.9460816913656404e-12 1.9721154633764312e-11
238 3 -1.40713 41.4236 5.78248 -1.2 0.0038954466488441185 0.9961045533490476 9.268269191844534e-13 1.1863437885257055e-12
239 1 2.01892 40.3665 2.9896 1.2 0.9469256517548555 0.05277982179382606 1.1003751171916662e-11 0.00029452644031775614
240 1 4.83434 40.3252 4.4844 1.2 0.9966874084191332 0.0032918714880751086 7.913745602996861e-12 2.0720084876747034e-05
241 2 3.02698 42.39 4.4844 2.4 1.0 1.883501566633571e-23 1.7553860015158752e-30 1.1198692021381418e-39
242 3 3.05433 44.0033 4.4844 -1.2 0.03439951882631978 0.9656004811670182 1.5182084994513892e-12 5.143886133424e-12
243 3 -3.60077 41.416 4.4844 -1.2 0.0022453779591392322 0.997754622029221 8.784484625243434e-12 2.8531191778519622e-12
244 3 3.71851 41.6839 3.18632 -1.2 0.1358365876533769 0.8641634123109994 2.456091334295042e-12 3.3170744132744985e-11
245 1 2.04077 40.3665 0 1.2 0.8258555936342061 0.17414389321264545 3.3209097544062355e-20 5.131531522006624e-07
246 3 3.70011 41.6839 5.78248 -1.2 0.003925943109685913 0.9960740568892992 7.294565974544199e-13 2.818962041590614e-13
247 1 -0.796865 40.4078 1.4948 1.2 0.9499143698823842 0.05008504609285567 6.542551319163295e-19 5.840247568619383e-07
248 2 1.01387 38.3429 1.4948 2.4 1.0 3.0049912312749295e-23 2.415017801239658e-35 3.457936385079919e-35
249 3 0.989947 36.7297 1.4948 -1.2 0.9970435287175722 0.0029564712790619524 6.680434067530629e-20 3.363814740141084e-12
250 3 7.63988 39.317 1.4948 -1.2 0.984832138824682 0.015167860667505223 7.660353461908318e-19 5.078132721578054e-10
251 3 0.340253 39.0491 0.196716 -1.2 0.9981803459940803 0.0018196539567992697 3.190433139126319e-19 4.912119496433651e-11
252 3 0.319795 39.0491 2.79288 -1.2 0.43480980686410625 0.5651901930885853 2.013911530403728e-13 4.710309568346865e-11
253 1 7.20667 42.741 0 1.2 0.8007231712717242 0.19927612906356995 1.1517805914107043e-17 6.996647026884306e-07
254 1 4.50613 47.4487 1.4948 1.2 0.9755035300269586 0.024494884066577013 8.75134552101347e-15 1.5859064578114111e-06
255 2 6.29731 44.7645 1.4948 2.4 1.0 4.502834308526577e-19 1.503858551931292e-29 4.0862728483149926e-33
256 3 6.36567 46.3778 1.4948 -1.2 0.3192354677761029 0.680764532066409 2.1694376354129453e-12 1.5531516786888848e-10