ITEM: TIMESTEP
3800
ITEM: NUMBER OF ATOMS
10500
ITEM: BOX BOUNDS xy xz yz pp pp pp
0	15.2977	5.09925
0	118.725	0
0	89.688	0
ITEM: ATOMS id type xu yu zu q pCrystal pDisloC pSF pDisloB pDisloA
1 1 6.2404 -6.37941e-06 0 1.2 4.229642636019815e-16 2.788292798146115e-12 0.9999997801332896 2.1983695149390633e-07 2.696387505296004e-11
2 1 3.46349 4.70768 1.4948 1.2 5.657336620172544e-10 3.8047554432030936e-08 0.9999999112700987 4.982705510255524e-08 2.895633827479943e-10
3 2 5.2885 2.02354 1.4948 2.4 2.7717382672513505e-13 5.631309438631822e-10 0.9999999849149931 1.4511850433256141e-08 9.742991714569786e-12
4 3 5.33628 3.63678 1.4948 -1.2 5.577260698582188e-10 4.334337490216303e-08 0.9999999434525664 6.630695182780097e-09 6.015639872067997e-09
5 3 1.67294 1.04952 1.4948 -1.2 3.455251038030494e-13 2.0201249617837505e-09 0.9999997619322868 2.353083203697147e-07 7.389257180033799e-10
6 3 4.59532 1.31737 0.196716 -1.2 1.9192608065158767e-14 3.5414831260242455e-10 0.9999998984590854 1.0091512526285294e-07 2.7162681771913727e-10
7 1 6.18956 -6.37941e-06 2.9896 1.2 5.372444664629264e-16 8.193679389282695e-11 0.99999766063683 2.338507541004048e-06 7.736902853105913e-10
8 3 4.55118 1.31737 2.79288 -1.2 3.940281037298751e-16 1.1777593412711114e-11 0.9999982259632352 1.773925103820959e-06 9.987703679189442e-11
9 1 -1.20682 0.0413099 4.4844 1.2 2.7478376330874743e-15 1.0176164868047256e-10 0.9999749639367378 2.5035265559975546e-05 6.959440297392372e-10
10 2 -3.0337 2.72544 4.4844 2.4 1.4063425773158192e-11 9.223932301534828e-08 0.9999761500578456 2.3735946338751644e-05 2.174242734034707e-08
11 3 -3.08099 1.11221 4.4844 -1.2 5.812027541184731e-15 2.6193424350923854e-10 0.9999885986720708 1.1400406678877798e-05 6.593143912871258e-10
12 3 0.582463 3.69946 4.4844 -1.2 9.405244030890636e-12 1.0760443960119874e-09 0.9999916207613831 8.367662057294234e-06 1.0491111725987353e-08
13 3 -2.29524 3.43162 3.18632 -1.2 1.6701176821745884e-10 2.1150597963103992e-08 0.9999995974220852 3.7290656455242425e-07 8.353736078683723e-09
14 3 -2.34216 3.43162 5.78248 -1.2 5.505296360105276e-12 3.604395629573686e-10 0.9999391666330274 6.082340364977506e-05 9.597384465653262e-09
15 1 1.12778 2.37449 2.9896 1.2 6.409991307824732e-13 1.585701636964999e-09 0.9999931049098301 6.893058264435923e-06 4.455679762388341e-10
16 1 3.92855 2.33318 4.4844 1.2 1.461326432770888e-14 7.45717447478558e-11 0.9999373524969316 6.264682146775245e-05 6.070193259451784e-10
17 2 2.09341 4.39804 4.4844 2.4 4.32404506688121e-12 8.125520405446444e-09 0.9999860025407755 1.3987977176548122e-05 1.3522002305152263e-09
18 3 2.09991 6.01128 4.4844 -1.2 3.707140277169723e-09 1.5838161176998222e-08 0.9999999422111204 2.119766652087149e-08 1.704591843110493e-08
19 3 -4.52137 3.42402 4.4844 -1.2 2.8548839069751095e-12 1.3449825219063292e-09 0.9999898539246175 1.0126661964343813e-05 1.806557847731217e-08
20 3 2.80834 3.69187 3.18632 -1.2 6.106134506981112e-12 1.2679405806885188e-09 0.9999999079938291 9.029598052031673e-08 4.3614382334022853e-10
21 1 1.17857 2.37449 0 1.2 1.0979038771380231e-14 2.5997170300981557e-10 0.9999993701927672 6.293670315027047e-07 1.8021611476347697e-10
22 3 2.76143 3.69187 5.78248 -1.2 1.0732105481055109e-13 2.632634159150695e-11 0.9999568702690869 4.312662153473883e-05 3.082946020613748e-09
23 1 -1.67381 2.41581 1.4948 1.2 9.373750584890422e-11 2.4604869283280126e-08 0.9999986558972518 1.31667571893574e-06 2.7284261640552886e-09
24 2 0.16286 0.350945 1.4948 2.4 3.3481019404455523e-13 2.190388636145852e-09 0.9999992165305485 7.810064823377083e-07 2.7225233459939294e-10
25 3 0.15972 -1.26229 1.4948 -1.2 9.000252638406804e-12 2.079607355294034e-08 0.9999998518276353 1.220005776186588e-07 5.366707341387614e-09
26 3 6.77654 1.32496 1.4948 -1.2 1.322750646583884e-12 4.552729111273071e-09 0.9999999417934066 4.955567656580213e-08 4.096871558449478e-09
27 3 -0.508028 1.05712 0.196716 -1.2 3.7765488970044923e-14 1.0727965202119481e-09 0.999999711312454 2.867543887517449e-07 8.603298065339067e-10
28 3 -0.552171 1.05712 2.79288 -1.2 2.276871909315334e-13 1.1763922720235025e-09 0.9999966369947931 3.357047850737295e-06 4.7807367813799034e-09
29 1 6.31713 4.74899 0 1.2 3.2088331785252367e-10 4.824804165952506e-08 0.9999999157295214 3.5005210104243884e-08 6.963422013453909e-10
30 1 3.54847 9.45668 1.4948 1.2 3.399579587676636e-05 4.6725606923044124e-07 0.9999654347073037 3.416608233344962e-11 1.0220659058432468e-07
31 2 5.36879 6.77254 1.4948 2.4 3.0905931865500735e-06 8.023175443073236e-06 0.9999886694930213 1.8282620592669582e-10 2.1655552876215385e-07
32 3 5.41937 8.38578 1.4948 -1.2 0.0008832587971168494 8.934266590707093e-05 0.999022229489296 4.853026802872676e-13 5.169047197847264e-06
33 3 1.75158 5.79852 1.4948 -1.2 5.6649831921156225e-06 1.2036460020675013e-05 0.9999817360374647 8.837935439958943e-11 5.62430943803385e-07
34 3 4.67421 6.06637 0.196716 -1.2 3.3648383458421594e-08 3.504060033351173e-07 0.9999996108234843 3.450850663661918e-11 5.087623637640643e-09
35 1 6.26654 4.74899 2.9896 1.2 3.1055720864225084e-10 2.5250850202477847e-08 0.9999994219679672 5.433661057395083e-07 9.104516055809963e-09
36 3 4.63043 6.06637 2.79288 -1.2 4.112093431897457e-08 2.5051726977384844e-07 0.9999996637642138 3.028152417236652e-09 4.15694361154513e-08
37 1 -1.12976 4.79031 4.4844 1.2 2.1558535184322987e-10 1.341397438028774e-09 0.9999976674360259 2.329320793483601e-06 1.686194505789774e-09
38 2 -2.9517 7.47444 4.4844 2.4 6.216705408270305e-09 1.2494685926366633e-07 0.9999946209308496 6.828475052973953e-07 4.565058075034718e-06
39 3 -3.00198 5.86121 4.4844 -1.2 2.752448013800555e-10 9.786063756577886e-10 0.9999999086433646 8.63675789113853e-08 3.7352103789826535e-09
40 3 0.666315 8.44846 4.4844 -1.2 2.5494302219602866e-07 3.468414496442432e-07 0.9999980972512273 1.0099692498167887e-09 1.2999543385790413e-06
41 3 -2.21213 8.18062 3.18632 -1.2 3.941677851924006e-07 1.0356940355700049e-07 0.9999993649454693 7.911978097128457e-11 1.372382280996378e-07
42 3 -2.25864 8.18062 5.78248 -1.2 4.9130361727076905e-08 6.399577893545067e-09 0.9999992696640982 2.7900228314444727e-08 6.46905740064717e-07
43 1 1.20893 7.12349 2.9896 1.2 1.5326813541171665e-07 2.735543534466417e-07 0.9999995288198251 5.371611072234287e-09 3.898607034511191e-08
44 1 4.00982 7.08218 4.4844 1.2 3.549949611240658e-08 2.2551750076144277e-08 0.9999997883413212 5.68657046784039e-08 9.67417235858157e-08
45 2 2.17861 9.14704 4.4844 2.4 1.391922957759035e-06 1.413189433988649e-06 0.9999909253559085 2.2519971048380467e-08 6.247011727436564e-06
46 3 2.18828 10.7603 4.4844 -1.2 4.265305597743918e-06 1.4605070057020846e-07 0.9999947547104431 4.6447306161896857e-11 8.338868065065344e-07
47 3 -4.43805 8.17302 4.4844 -1.2 8.250281843063088e-08 1.1517196821884263e-07 0.9999987294011675 1.4561668365026758e-09 1.0714678796702424e-06
48 3 2.89193 8.44087 3.18632 -1.2 2.840082026253851e-06 4.498906954203142e-07 0.9999962143955119 2.4444792584856357e-10 4.953873199361602e-07
49 1 1.25915 7.12349 0 1.2 3.8492665289283114e-07 3.303583582059663e-07 0.999999280044779 3.01744107281967e-10 4.3684608666303755e-09
50 3 2.84547 8.44087 5.78248 -1.2 3.281582360025716e-07 4.5142987447552346e-08 0.9999984391710188 2.564886692179535e-08 1.1618788845434143e-06
51 1 -1.59284 7.16481 1.4948 1.2 1.3339857804028374e-06 6.945164993980113e-07 0.999997926231889 4.776096889212144e-10 4.478821635549061e-08
52 2 0.240329 5.09994 1.4948 2.4 1.7200029848540353e-09 1.1580263712521758e-07 0.9999998784158709 3.954149346931987e-09 1.0734579868316122e-10
53 3 0.234538 3.48671 1.4948 -1.2 3.315468675624458e-11 1.564526321724744e-08 0.9999999674593744 1.3734341904603984e-08 3.1278665776547882e-09
54 3 6.85564 6.07396 1.4948 -1.2 6.293159254344422e-07 3.66187509872815e-06 0.9999951950727324 1.8061109034655464e-10 5.135556260383388e-07
55 3 -0.429565 5.80612 0.196716 -1.2 5.412657415333232e-09 6.870053594617782e-08 0.9999999249363071 1.2685170266838873e-10 8.236444638682174e-10
56 3 -0.473377 5.80612 2.79288 -1.2 3.2799117153406764e-09 1.2123782406105946e-08 0.9999999702095868 9.526113890478698e-09 4.860606798617859e-09
57 1 6.40169 9.49799 0 1.2 5.6668344142907246e-05 9.364838519790186e-07 0.9999423109772879 1.201779463066727e-12 8.419351878710693e-08
58 1 3.64209 14.2057 1.4948 1.2 0.00023599558461862054 7.082155115272868e-07 0.9997630150540742 1.2410789352927921e-12 2.8114456127456416e-07
59 2 5.45748 11.5215 1.4948 2.4 0.0013656239148581797 1.779967622080946e-05 0.9986163264303242 8.528349775249271e-14 2.4997851375908395e-07
60 3 5.51101 13.1348 1.4948 -1.2 0.012356014988020235 0.00010078523908464395 0.987535873414575 1.7721860285087543e-14 7.326358308400561e-06
61 3 1.83851 10.5475 1.4948 -1.2 0.004292437377312624 2.2137985388337867e-05 0.9956827359316184 4.033199609494892e-14 2.6887056383517543e-06
62 3 4.7611 10.8154 0.196716 -1.2 0.0006004586125479786 9.277967648141217e-06 0.9993898276309765 5.373211852886139e-14 4.3578876670445717e-07
63 1 6.35203 9.49799 2.9896 1.2 1.995503283346607e-05 2.55462512793982e-06 0.9999768066949031 1.338903565441406e-10 6.835132439067962e-07
64 3 4.71833 10.8154 2.79288 -1.2 5.532620250271142e-05 1.8389491451842442e-06 0.9999418285422431 8.169222662274523e-12 1.0062979455935681e-06
65 1 -1.0438 9.53931 4.4844 1.2 2.0021011295696966e-06 1.0051949584659246e-07 0.9999974274515161 7.283712210978604e-09 4.6264414444796567e-07
66 2 -2.8604 12.2234 4.4844 2.4 3.111244488540274e-06 1.0045172420927185e-06 0.9999937302948052 2.333211793548034e-09 2.151610255383485e-06
67 3 -2.91391 10.6102 4.4844 -1.2 3.917313873343069e-06 1.6314948952442814e-07 0.9999954379079026 2.5639196964428584e-11 4.816030929125856e-07
68 3 0.7596 13.1975 4.4844 -1.2 7.639344950463753e-06 9.75087063364105e-07 0.9999894395781421 8.157602971161559e-11 1.945908266997668e-06
69 3 -2.12001 12.9296 3.18632 -1.2 9.98435282207715e-05 1.6477602384892703e-06 0.9998972028096769 4.531454242385289e-12 1.3058973306872992e-06
70 3 -2.16532 12.9296 5.78248 -1.2 1.3948217264514159e-05 1.4130425018480222e-07 0.9999832716346623 3.8694289284457844e-10 2.6384568836825673e-06
71 1 1.29891 11.8725 2.9896 1.2 8.798522340177385e-05 2.5032499774787713e-06 0.9999081639144047 3.615793158107395e-11 1.347576061474443e-06
72 1 4.10033 11.8312 4.4844 1.2 1.564835580135746e-05 1.1727047724807202e-07 0.9999821655853381 3.963712068008921e-09 2.06482467684418e-06
73 2 2.27333 13.896 4.4844 2.4 3.647694455434807e-05 2.821507566953373e-06 0.9999562972760796 7.225602125776492e-10 4.40354923972684e-06
74 3 2.28634 15.5093 4.4844 -1.2 5.589415219051595e-05 5.35451976503058e-07 0.999942562962064 1.0383788577124961e-12 1.0074327264268305e-06
75 3 -4.34533 12.922 4.4844 -1.2 1.2810451533015724e-06 1.191878179592988e-07 0.9999976066067624 1.1294407249770048e-10 9.930473282282853e-07
76 3 2.98455 13.1899 3.18632 -1.2 5.933500018449144e-05 1.6802623626000863e-06 0.9999378879468518 7.763280017550507e-12 1.0967828392745995e-06
77 1 1.34779 11.8725 0 1.2 0.00033500219097403394 1.5555280770924942e-06 0.9996630525925724 5.978138109609528e-13 3.8968778317756584e-07
78 3 2.93934 13.1899 5.78248 -1.2 6.901424114944266e-06 6.332279500386012e-08 0.9999917910385674 6.060844943843385e-10 1.2436084411284666e-06
79 1 -1.50344 11.9138 1.4948 1.2 0.00024224723137837006 1.6943806152345514e-06 0.9997556155187358 1.3504222222383445e-12 4.428679263504062e-07
80 2 0.326006 9.84894 1.4948 2.4 0.00030800905822120876 8.368278951500979e-06 0.9996835210569437 1.4767376293548966e-13 1.0160574164044819e-07
81 3 0.317364 8.23571 1.4948 -1.2 0.00028288766631639144 1.3714359113363254e-05 0.9997023711085302 2.768268552262301e-12 1.026863274987325e-06
82 3 6.94307 10.823 1.4948 -1.2 0.0025745066844153554 3.639865153608598e-05 0.9973871499085225 3.511586372383718e-14 1.944755488067184e-06
83 3 -0.343122 10.5551 0.196716 -1.2 0.0002277836794997277 4.741115431881755e-06 0.9997672782584813 8.88063840378394e-14 1.9694649327284878e-07
84 3 -0.385966 10.5551 2.79288 -1.2 3.437213954027064e-05 1.3737634323163892e-06 0.9999636513794101 1.9346623445188853e-11 6.026982730822116e-07
85 1 6.49448 14.247 0 1.2 0.0010425697011192908 1.031107286909163e-06 0.9989559523435534 4.553916454083199e-14 4.468479978216908e-07
86 1 3.74457 18.9547 1.4948 1.2 5.1288847843972574e-05 1.7640368839200584e-07 0.999948495528289 3.0675243336862293e-13 3.921987450960457e-08
87 2 5.55495 16.2705 1.4948 2.4 0.0008058294691197726 6.1703063947551055e-06 0.9991879859826165 3.3885372379800196e-15 1.4241862127732201e-08
88 3 5.6115 17.8838 1.4948 -1.2 0.006847767974740852 4.3900214641896647e-05 0.9931074918666728 1.3089947247298628e-15 8.399439412309801e-07
89 3 1.93416 15.2965 1.4948 -1.2 0.012842479734602938 3.1795656578511174e-05 0.9871241486442672 1.4097513100195411e-15 1.575964552039085e-06
90 3 4.85636 15.5644 0.196716 -1.2 0.009647507554511423 2.507365807823004e-05 0.990326505971268 3.3819565317831795e-15 9.128161436219628e-07
91 1 6.44662 14.247 2.9896 1.2 0.00011108963503898654 1.3495006455661465e-06 0.9998868567666348 8.686466924063189e-12 7.040889994079116e-07
92 3 4.81537 15.5644 2.79288 -1.2 0.0004069271752695378 7.347743537596215e-06 0.9995846907529337 4.63660274243699e-13 1.0343278005764534e-06
93 1 -0.948271 14.2883 4.4844 1.2 1.1575129063552584e-05 1.8133830252989978e-07 0.9999872168132032 1.1462813080156338e-09 1.02557314237761e-06
94 2 -2.75928 16.9724 4.4844 2.4 7.332187504794088e-05 2.2556399720870464e-06 0.9999237147890699 5.057235646464813e-11 7.076453321036955e-07
95 3 -2.81617 15.3592 4.4844 -1.2 1.5651288078399985e-05 3.22926496617432e-07 0.9999831737937875 2.23584308662685e-12 8.519893963936218e-07
96 3 0.862762 17.9465 4.4844 -1.2 3.635175615409155e-05 1.7692352664386269e-06 0.9999604451689007 4.580015821566166e-12 1.4338350989985277e-06
97 3 -2.0185 17.6786 3.18632 -1.2 0.00012074065681610645 1.4572845097815084e-06 0.9998775252338289 1.3684168944116153e-13 2.7682471205722883e-07
98 3 -2.06164 17.6786 5.78248 -1.2 0.00013519563646785252 1.9696903541923649e-07 0.999861865201036 3.869744402389591e-11 2.7421547670093907e-06
99 1 1.39817 16.6215 2.9896 1.2 0.00019008949472963964 1.7527964139514126e-06 0.9998073313160015 2.200425813286035e-12 8.263906598451471e-07
100 1 4.20062 16.5802 4.4844 1.2 2.085352678898798e-05 1.0969649061929875e-07 0.9999784437971805 3.1264514011942256e-10 5.92666900577274e-07
101 2 2.37796 18.645 4.4844 2.4 7.068533500407905e-05 1.072364633874626e-06 0.9999279651838718 2.427835614540051e-11 2.770922146714388e-07
102 3 2.39434 20.2583 4.4844 -1.2 6.145806244338383e-05 2.3539460332349738e-07 0.9999379889390323 1.0293105992216156e-13 3.176038127008885e-07
103 3 -4.24274 17.671 4.4844 -1.2 1.5432140970850113e-05 5.535588579461789e-07 0.9999834566130871 6.169223060558419e-12 5.576809216404505e-07
104 3 3.08659 17.9389 3.18632 -1.2 0.00011843330768554541 1.8246499011753391e-06 0.9998793689640276 4.171973743804656e-13 3.7307797185457477e-07
105 1 1.44478 16.6215 0 1.2 0.0014544775719991484 7.343492250645106e-07 0.9985443609751478 5.082425820284333e-14 4.2710357977119345e-07
106 3 3.0436 17.9389 5.78248 -1.2 8.022720186117139e-05 7.098409248734033e-08 0.9999191228268459 2.069664603856993e-11 5.789665017056247e-07
107 1 -1.40524 16.6628 1.4948 1.2 0.000679178965491971 1.494140243099402e-06 0.9993188693908359 9.709556350080743e-14 4.5750333702890473e-07
108 2 0.420358 14.5979 1.4948 2.4 0.0018781025889855634 1.3873620577646914e-05 0.9981079579714113 2.0891032957360954e-14 6.581899844066535e-08
109 3 0.408732 12.9847 1.4948 -1.2 0.01080405458181859 7.180679691021936e-05 0.9891212511026459 1.5206825804419085e-14 2.887518612108796e-06
110 3 7.03923 15.572 1.4948 -1.2 0.014993647404663909 7.989589485833375e-05 0.9849237990224946 2.1577537103087414e-15 2.657677975178144e-06
111 3 -0.248332 15.3041 0.196716 -1.2 0.0035429054966508826 2.0174556085958684e-05 0.9964363381655644 7.155011389252064e-15 5.817816854261365e-07
112 3 -0.289436 15.3041 2.79288 -1.2 0.0005961980005002586 8.3865289847334e-06 0.9993936819430808 2.0899572434945825e-12 1.7335253399124175e-06
113 1 6.59566 18.996 0 1.2 0.0004785498560595815 1.595738825925176e-07 0.9995212171755019 3.76227333802081e-15 7.339455571105135e-08
114 1 3.85574 23.7037 1.4948 1.2 0.0010472243561328901 6.270176626733185e-07 0.9989519061903026 1.6781710092973995e-13 2.42435734088025e-07
115 2 5.66125 21.0195 1.4948 2.4 0.0015892981823100825 2.9948370676927463e-06 0.9984077032430367 1.24692127508865e-15 3.737579104869374e-09
116 3 5.72074 22.6328 1.4948 -1.2 0.028322783625744474 4.9521573628175216e-05 0.97162669331934 1.093621506695415e-15 1.001481286456498e-06
117 3 2.03867 20.0455 1.4948 -1.2 0.020576066835902518 3.148042725602388e-05 0.9793915591414533 1.6731495698808723e-16 8.935953883681999e-07
118 3 4.96004 20.3134 0.196716 -1.2 0.005776307600914055 8.783100401970518e-06 0.9942146846746839 7.632187401912403e-16 2.2462400443397132e-07
119 1 6.55057 18.996 2.9896 1.2 9.27333665149043e-05 5.346768862451068e-07 0.999906522092067 6.040485480262984e-13 2.09863932971698e-07
120 3 4.92172 20.3134 2.79288 -1.2 0.0003220228579144382 3.157080208188675e-06 0.9996745466833032 1.0896847595119609e-13 2.7337846787409303e-07
121 1 -0.84282 19.0373 4.4844 1.2 1.703675605517354e-05 1.3941198073946504e-07 0.9999822950706684 1.1173213581074116e-10 5.286495620327058e-07
122 2 -2.64823 21.7214 4.4844 2.4 0.00019633796077612098 4.902807815457126e-07 0.9998030853922432 4.3366093170972526e-12 8.636186612801685e-08
123 3 -2.70847 20.1082 4.4844 -1.2 2.8036423953038685e-05 1.50864685948302e-07 0.9999716497382498 1.4269786208951234e-13 1.629729635217441e-07
124 3 0.97581 22.6955 4.4844 -1.2 0.0002611653986752753 2.1195707393526167e-06 0.9997353815118549 1.4687649155861861e-12 1.3335172618577221e-06
125 3 -1.9076 22.4276 3.18632 -1.2 0.0005854473071291626 9.995567448486687e-07 0.9994133421168739 5.689938180462796e-14 2.1101919640199942e-07
126 3 -1.9475 22.4276 5.78248 -1.2 0.0003817311370354159 1.0492993225191222e-07 0.9996169737175108 4.709437877637098e-12 1.1902108153508167e-06
127 1 1.50678 21.3705 2.9896 1.2 0.000321311273380829 6.97528827635928e-07 0.9996775221677487 5.625770566728468e-13 4.69029474415178e-07
128 1 4.31086 21.3292 4.4844 1.2 1.7349707223804228e-05 1.968358493713467e-08 0.9999825591245844 4.9349458898406214e-11 7.143525496146502e-08
129 2 2.49243 23.394 4.4844 2.4 0.0003475957691368955 7.812411690649874e-07 0.9996514679898857 1.0933596120818604e-11 1.5498887808426362e-07
130 3 2.51204 25.0073 4.4844 -1.2 0.00021900211631888385 2.447674841012398e-07 0.9997799228005423 1.2134310290325702e-13 8.303155374752123e-07
131 3 -4.13026 22.42 4.4844 -1.2 5.08144104394099e-05 4.552498353283816e-07 0.9999485103761906 8.40078334208752e-13 2.1996268979850016e-07
132 3 3.19799 22.6879 3.18632 -1.2 0.000504759795145421 1.8903022462204484e-06 0.9994930652206879 9.072914097169222e-14 2.8468182842473323e-07
133 1 1.5501 21.3705 0 1.2 0.0018613690516427817 5.630709196085124e-07 0.9981377808109612 1.1285412517537865e-14 2.870664612397746e-07
134 3 3.1583 22.6879 5.78248 -1.2 8.542217424132979e-05 1.5552277919525946e-08 0.999914393999737 4.773911387459253e-12 1.6826897393109683e-07
135 1 -1.29822 21.4118 1.4948 1.2 0.0011325973276054857 9.141247852450861e-07 0.99886624582224 1.622102415573941e-14 2.4272534977953005e-07
136 2 0.523568 19.3469 1.4948 2.4 0.0006318382390369228 3.1178853342244644e-06 0.9993650417494216 2.3181336959472486e-15 2.126205183165827e-09
137 3 0.508934 17.7337 1.4948 -1.2 0.003928644403137742 3.850406844522117e-05 0.9960323751096782 2.0788708502539206e-15 4.7641874118423047e-07
138 3 7.14425 20.321 1.4948 -1.2 0.013118593392636232 4.4704383670334196e-05 0.98683609820759 1.770443268476399e-16 6.040161007529153e-07
139 3 -0.145107 20.0531 0.196716 -1.2 0.0019237410889242877 8.309546628235507e-06 0.9980678570392094 1.2248402189330668e-15 9.232524288766953e-08
140 3 -0.183601 20.0531 2.79288 -1.2 0.001087217477826945 1.1789921806734731e-05 0.9989002223887826 9.729383784193084e-14 7.702114835243558e-07
141 1 6.70502 23.745 0 1.2 0.009904992648201367 1.6037999922024686e-06 0.9900922979531998 3.9618071394505096e-15 1.1055986063723066e-06
142 1 3.97493 28.4527 1.4948 1.2 0.22474918284560497 1.6444964769253694e-05 0.7752073239482208 1.3422812574521393e-12 2.7048240069233433e-05
143 2 5.77602 25.7685 1.4948 2.4 0.2911465550094274 3.1231687708257995e-05 0.7088219884481031 6.392679872001133e-15 2.2485475928440366e-07
144 3 5.83821 27.3818 1.4948 -1.2 0.7809881415542441 6.981863041535241e-05 0.21892806422178496 1.515969278027254e-15 1.3975593554710655e-05
145 3 2.15175 24.7945 1.4948 -1.2 0.681103903879585 0.0001707668579559356 0.31871448729430374 1.5346313994620455e-16 1.084196815875143e-05
146 3 5.07184 25.0624 0.196716 -1.2 0.3587806274048306 5.294913787855002e-05 0.6411595719070453 2.4032510434816115e-15 6.851550248631024e-06
147 1 6.66374 23.745 2.9896 1.2 0.0011818676472764064 1.2128394457281454e-06 0.9988161158467139 4.0615925862989635e-13 8.036661622368181e-07
148 3 5.03707 25.0624 2.79288 -1.2 0.0030463511663473305 6.416703952771167e-06 0.9969459794655194 1.7999991302166765e-13 1.2526639994328555e-06
149 1 -0.727559 23.7863 4.4844 1.2 7.604561258604701e-05 1.1616537321070611e-07 0.9999234526086619 2.2025981160108734e-11 3.855913533348437e-07
150 2 -2.5277 26.4704 4.4844 2.4 0.0008036808634271793 2.489570982480961e-07 0.9991959682122483 6.530234255413274e-12 1.0196069952166807e-07
151 3 -2.59107 24.8572 4.4844 -1.2 0.00010122652423361016 1.5213448824168876e-07 0.9998983627555127 5.852456168360869e-14 2.585857080008412e-07
152 3 1.09817 27.4445 4.4844 -1.2 0.006047655764959733 3.7718797197429094e-06 0.9939419852991341 1.8692409207062766e-12 6.587054310309131e-06
153 3 -1.78784 27.1766 3.18632 -1.2 0.002750719861099741 6.395073654620707e-07 0.997248153974545 1.5610281274064036e-13 4.86656832477787e-07
154 3 -1.82343 27.1766 5.78248 -1.2 0.0013859568986620027 7.200533318272766e-08 0.9986132290078918 1.2313388505458037e-12 7.420868751989546e-07
155 1 1.62435 26.1195 2.9896 1.2 0.008775806475869946 1.8380897835291105e-06 0.9912197977593926 3.175676362797956e-13 2.557674637048781e-06
156 1 4.43064 26.0782 4.4844 1.2 0.00022074288274673913 3.0903512020083125e-08 0.9997790546600529 2.1079463690878858e-11 1.715326100001232e-07
157 2 2.61607 28.143 4.4844 2.4 0.0015439482414538166 4.985734281064486e-07 0.9984549627877713 4.8142523032654736e-11 5.903492034653977e-07
158 3 2.63853 29.7563 4.4844 -1.2 0.00022557076541665443 6.391377248207083e-08 0.9997734091689152 7.861526852022903e-13 9.561511128366654e-07
159 3 -4.00841 27.169 4.4844 -1.2 0.0010299269339795508 6.479025339018098e-07 0.9989685915876987 4.037015261328966e-13 8.335753836810815e-07
160 3 3.3182 27.4369 3.18632 -1.2 0.010944221263628581 3.579257122442564e-06 0.9890490984260782 2.1440016187431273e-13 3.1010529585618425e-06
161 1 1.66335 26.1195 0 1.2 0.06432614948038498 1.2525922874535382e-05 0.9356530253242478 2.083560872522857e-14 8.299272475628677e-06
162 3 3.28288 27.4369 5.78248 -1.2 0.00017483181578378907 9.178634963704964e-09 0.9998249942408258 3.2062543647024585e-12 1.6476155216320032e-07
163 1 -1.18278 26.1608 1.4948 1.2 0.06536013009205616 1.4003815618401247e-05 0.9346180490660958 6.700997617205478e-14 7.81702616443528e-06
164 2 0.635424 24.0959 1.4948 2.4 0.009072293140442467 3.660760234486132e-06 0.9909240418682774 2.0908734491885857e-15 4.231046743220002e-09
165 3 0.617906 22.4827 1.4948 -1.2 0.022556720517782215 4.064628359462517e-05 0.9774020595132505 8.270357792916356e-16 5.736853670434562e-07
166 3 7.25781 25.07 1.4948 -1.2 0.4094369055303628 0.00019755878847174096 0.5903566817073448 3.425934244521731e-16 8.853973818355927e-06
167 3 -0.0337363 24.8021 0.196716 -1.2 0.07938015409260245 3.9322677096195064e-05 0.9205788171958661 1.5961253626747828e-15 1.7060344283062638e-06
168 3 -0.0687235 24.8021 2.79288 -1.2 0.009154258297026464 2.1311636751141685e-05 0.9908215050173524 2.2755110400063576e-13 2.9250486391181152e-06
169 1 6.82195 28.494 0 1.2 0.5180642386093665 3.79591398833696e-05 0.48182349910410166 6.381940572865924e-14 7.430314658639279e-05
170 1 4.10106 33.2017 1.4948 1.2 0.7719873601304816 0.00016937633780202192 0.2272265681305826 7.940853357179173e-11 0.000616695321730669
171 2 5.89839 30.5175 1.4948 2.4 0.9931608199669287 9.128614503191768e-06 0.0068290553478078135 2.9159940891400737e-15 9.960707629098588e-07
172 3 5.96289 32.1308 1.4948 -1.2 0.9297386665556511 5.6850918708908996e-05 0.07015502327223092 4.594744792176858e-14 4.9459253365285826e-05
173 3 2.27266 29.5435 1.4948 -1.2 0.9879211343287491 8.395026897455871e-05 0.011936223566615297 1.1143864449299223e-15 5.869183566325863e-05
174 3 5.19102 29.8114 0.196716 -1.2 0.986414158745581 1.1494004098881897e-05 0.013556590580271612 1.3595706105256445e-15 1.775667005423154e-05
175 1 6.78546 28.494 2.9896 1.2 0.023898224480170423 2.3083948188796605e-06 0.9760938380446251 1.3917565434846727e-12 5.629078993821249e-06
176 3 5.16061 29.8114 2.79288 -1.2 0.0867041357780337 2.6401206262035755e-05 0.9132464302814228 1.54473819275171e-12 2.30327327366704e-05
177 1 -0.603205 28.5353 4.4844 1.2 0.001002117738708144 1.584191309130134e-07 0.9989957267149725 7.994465252118048e-11 1.9970472463370913e-06
178 2 -2.39877 31.2194 4.4844 2.4 0.00300104541557361 7.969751188682543e-07 0.9969966901677108 1.0965895218741765e-10 1.4673319370019488e-06
179 3 -2.46483 29.6062 4.4844 -1.2 0.00014247188822897762 7.492321008947243e-08 0.9998570392302647 7.358843996170079e-13 4.1395756274802965e-07
180 3 1.22864 32.1935 4.4844 -1.2 0.0032770556208729096 2.6930586062045077e-06 0.9967067901030479 1.8176782289848293e-11 1.3461199295158873e-05
181 3 -1.66032 31.9256 3.18632 -1.2 0.010874443638699459 2.6618751729313098e-06 0.9891180400415115 4.200910348640033e-12 4.854440414336069e-06
182 3 -1.69072 31.9256 5.78248 -1.2 0.00043837896319503746 2.1195619213278533e-08 0.9995612506316982 4.887831434679189e-12 3.4920460185426596e-07
183 1 1.7499 30.8685 2.9896 1.2 0.11087735546919583 8.719027898046372e-06 0.889075023556801 5.108873938169535e-12 3.890194099284069e-05
184 1 4.55894 30.8272 4.4844 1.2 0.0016796365267884145 4.980627147983092e-08 0.9983194002349612 1.0948780026004714e-10 9.1332249793934e-07
185 2 2.7476 32.892 4.4844 2.4 0.002473871241736248 6.160703290795098e-07 0.9975237079358367 4.0852308869175773e-10 1.8043435699965501e-06
186 3 2.77235 34.5053 4.4844 -1.2 8.171387195113073e-05 5.397138950490127e-08 0.9999171603095941 1.8626492895630373e-11 1.0718284448346016e-06
187 3 -3.87837 31.918 4.4844 -1.2 0.0009975030219354683 6.036952059428731e-07 0.998999019965831 6.730923528855572e-12 2.873310302353091e-06
188 3 3.44611 32.1859 3.18632 -1.2 0.03983560192302426 6.886903419577227e-06 0.9601396250954828 7.825525083747942e-12 1.7886070244372183e-05
189 1 1.7837 30.8685 0 1.2 0.8967087629212374 7.020153940780204e-05 0.10289105901891216 1.5338889119299556e-13 0.00032997652029123365
190 3 3.41602 32.1859 5.78248 -1.2 0.00013950504249824033 8.264034610767226e-09 0.9998603050403968 1.9331694494044686e-11 1.8163373891489487e-07
191 1 -1.05984 30.9098 1.4948 1.2 0.8825732076338063 9.522197686103736e-05 0.11711407017457426 6.767768510523608e-13 0.00021750021408651482
192 2 0.755243 28.8449 1.4948 2.4 0.9398704179679918 9.861338378965241e-06 0.06011952250834279 1.7758879129636381e-15 1.9818527740049022e-07
193 3 0.735127 27.2317 1.4948 -1.2 0.7910501610386385 8.776926873472679e-05 0.20885204885693293 1.3046105989005547e-15 1.0020835697291035e-05
194 3 7.37914 29.819 1.4948 -1.2 0.9594499569669586 0.00015348072081616213 0.0403209401190246 2.7906819257139198e-15 7.562219320299074e-05
195 3 0.0850649 29.5511 0.196716 -1.2 0.7992693116513596 9.329644475664218e-05 0.2006001500465551 2.680524022019958e-14 3.7241857298558035e-05
196 3 0.0543974 29.5511 2.79288 -1.2 0.17149766728018118 5.84437265589065e-05 0.8284101738979196 1.1721421332318154e-12 3.371509416262178e-05
197 1 6.94543 33.243 0 1.2 0.9447044231285022 3.436788546228443e-05 0.05498009585970977 4.203433282976708e-13 0.00028111312590177484
198 1 4.23267 37.9507 1.4948 1.2 0.5043336912464073 0.00019321055941353497 0.4947263358037034 2.724465681221913e-09 0.0007467596660103656
199 2 6.02709 35.2665 1.4948 2.4 0.998022145076314 1.8667996116727643e-05 0.001951392273957413 6.987736726562829e-14 7.794653541912738e-06
200 3 6.09339 36.8798 1.4948 -1.2 0.6653133135264648 0.00015097738011297186 0.3343390536474952 1.3971566187859101e-11 0.00019665543194946966
201 3 2.40018 34.2925 1.4948 -1.2 0.9273406995414833 0.00040560461535434154 0.07167099027755026 1.4815087582598666e-12 0.0005827055641301347
202 3 5.31645 34.5604 0.196716 -1.2 0.993355344843989 2.0265281913220134e-05 0.006521198725436037 6.873290647604095e-14 0.00010319114859447976
203 1 6.91449 33.243 2.9896 1.2 0.09181949561954231 1.1955133977724754e-05 0.9080970902881444 4.791294230188836e-11 7.145891042879907e-05
204 3 5.291 34.5604 2.79288 -1.2 0.02862870399229454 3.881449994082823e-05 0.9712701120971435 7.077926923534974e-11 6.23693398412294e-05
205 1 -0.471101 33.2843 4.4844 1.2 0.00672485986003694 5.55960930657424e-07 0.9932643687606985 9.235448600937693e-10 1.0214494784293546e-05
206 2 -2.26307 35.9684 4.4844 2.4 0.00032408916597120456 4.439682681819685e-07 0.9996709803585307 8.534857589220496e-09 4.477972371352117e-06
207 3 -2.33122 34.3552 4.4844 -1.2 0.00010809801196945541 6.963049785616735e-08 0.999890929280178 1.3520813977961865e-11 9.030638268426412e-07
208 3 1.36549 36.9425 4.4844 -1.2 0.00010401392675419142 2.9544654812853327e-07 0.999892331847728 1.724735075838285e-10 3.35860649652535e-06
209 3 -1.52658 36.6746 3.18632 -1.2 0.013203708767203268 4.227976292496578e-06 0.9867764448156856 1.313413000233782e-10 1.5618309471120637e-05
210 3 -1.55122 36.6746 5.78248 -1.2 8.506892245785375e-05 1.290177251316892e-08 0.9999146489745188 9.209364182559017e-11 2.6910916386658547e-07
211 1 1.882 35.6175 2.9896 1.2 0.04442297627718953 1.0737548549231924e-05 0.9555197966397947 2.473347792944026e-10 4.648928712708652e-05