ITEM: TIMESTEP
14200
ITEM: NUMBER OF ATOMS
10500
ITEM: BOX BOUNDS xy xz yz pp pp pp
0	15.2977	5.09925
0	118.725	0
0	89.688	0
ITEM: ATOMS id type xu yu zu q pCrystal pDisloC pSF pDisloB pDisloA
1 1 6.2404 -6.37941e-06 0 1.2 4.956881063916314e-16 3.674233017323771e-12 0.9999996521392555 3.4779719622162487e-07 5.986983222428955e-11
2 1 3.46349 4.70768 1.4948 1.2 6.505774372894424e-10 4.546959030609537e-08 0.9999998644861513 8.902661203589408e-08 3.6706715424526014e-10
3 2 5.2885 2.02354 1.4948 2.4 3.1531757526036073e-13 1.0193634415726003e-09 0.9999999698099917 2.914470990427793e-08 2.5621824663281854e-11
4 3 5.33628 3.63678 1.4948 -1.2 6.573629293431379e-10 5.2576753712680134e-08 0.9999999204682015 1.5541741082204254e-08 1.0755938230194952e-08
5 3 1.67294 1.04952 1.4948 -1.2 2.8086398382038883e-13 2.6928161616807285e-09 0.9999997580643063 2.38441684771159e-07 8.009118086465799e-10
6 3 4.59532 1.31737 0.196716 -1.2 1.6206043316668253e-14 5.398610828819385e-10 0.9999998325432811 1.6617463880095348e-07 7.422097420711145e-10
7 1 6.18956 -6.37941e-06 2.9896 1.2 4.3128591903031556e-16 6.529812579265813e-11 0.99999851558912 1.4836813427495028e-06 6.642413527984938e-10
8 3 4.55118 1.31737 2.79288 -1.2 4.878917342328658e-16 1.5995118185247973e-11 0.9999986694659851 1.330418486546857e-06 9.95354098313439e-11
9 1 -1.20682 0.0413099 4.4844 1.2 3.1600400490791816e-15 5.3840732398718433e-11 0.9999813996312528 1.8600055451115225e-05 2.5945724365928915e-10
10 2 -3.0337 2.72544 4.4844 2.4 2.5137846251808746e-11 4.857272771067554e-08 0.9999724793123295 2.7467030815877055e-05 5.05898681369817e-09
11 3 -3.08099 1.11221 4.4844 -1.2 1.5790922302310242e-14 2.2789951843140605e-10 0.9999951302687204 4.869188548235373e-06 3.148128113136472e-10
12 3 0.582463 3.69946 4.4844 -1.2 1.5182007953770975e-11 1.0911027404303933e-09 0.9999965199027958 3.4693750445710652e-06 9.615875722231242e-09
13 3 -2.29524 3.43162 3.18632 -1.2 2.390011398742642e-10 1.7357500757706188e-08 0.9999997219533401 2.564135028158642e-07 4.036654403016438e-09
14 3 -2.34216 3.43162 5.78248 -1.2 1.1276664826140734e-11 3.3469895834677337e-10 0.9999873184468763 1.2679420442693954e-05 1.7867081176954444e-09
15 1 1.12778 2.37449 2.9896 1.2 5.864515997594967e-13 2.03775004166236e-09 0.9999942159450812 5.781662291013406e-06 3.5429167852269297e-10
16 1 3.92855 2.33318 4.4844 1.2 6.00407903302634e-14 1.5646638736858066e-10 0.9999589757286542 4.102374024259834e-05 3.745750964887609e-10
17 2 2.09341 4.39804 4.4844 2.4 7.712961410639722e-12 7.868656399865271e-09 0.9999842061029474 1.5785098118216353e-05 9.225581824529516e-10
18 3 2.09991 6.01128 4.4844 -1.2 6.993840605482307e-09 2.949363869659381e-08 0.9999999219421513 1.951602528623266e-08 2.205434753400866e-08
19 3 -4.52137 3.42402 4.4844 -1.2 3.1098449036733992e-12 1.396741657692215e-09 0.9999953586903265 4.633913476402987e-06 5.996351455884814e-09
20 3 2.80834 3.69187 3.18632 -1.2 1.0266873905393002e-11 2.007718631996922e-09 0.9999998498110869 1.4775646234977556e-07 4.1446007199944075e-10
21 1 1.17857 2.37449 0 1.2 1.8024333797999207e-14 5.447287822936133e-10 0.999999344173519 6.550021295196232e-07 2.7960683775657235e-10
22 3 2.76143 3.69187 5.78248 -1.2 1.9943648432921383e-13 1.7231989920438043e-11 0.9999922948658888 7.704455081764405e-06 6.615959869926673e-10
23 1 -1.67381 2.41581 1.4948 1.2 9.457485512047002e-11 3.52342224564567e-08 0.9999988733797047 1.088214883619483e-06 3.0766131458201765e-09
24 2 0.16286 0.350945 1.4948 2.4 3.23164571786694e-13 2.7961881030874933e-09 0.9999997196350388 2.774129198658297e-07 1.5553392918614355e-10
25 3 0.15972 -1.26229 1.4948 -1.2 4.699132465738452e-12 1.4127934378457783e-08 0.9999999070330475 7.559471965369045e-08 3.2396025938843864e-09
26 3 6.77654 1.32496 1.4948 -1.2 1.0523782995616032e-12 5.883080998764842e-09 0.9999999361957228 5.144290496267283e-08 6.477238361591059e-09
27 3 -0.508028 1.05712 0.196716 -1.2 3.5784073258706705e-14 1.5767285782803944e-09 0.999999677303658 3.194819149470128e-07 1.6376603099656807e-09
28 3 -0.552171 1.05712 2.79288 -1.2 6.690524831829378e-14 3.7412298037919467e-10 0.9999985676224723 1.4311353290761723e-06 8.680152882285708e-10
29 1 6.31713 4.74899 0 1.2 3.14771504287273e-10 9.503090080356588e-08 0.9999998141572948 8.811130205043992e-08 2.385731677691771e-09
30 1 3.54847 9.45668 1.4948 1.2 0.0001088735720158933 1.0759064564707367e-06 0.9998896177389797 9.319872075825617e-11 4.3268934866836904e-07
31 2 5.36879 6.77254 1.4948 2.4 5.407091441620234e-06 1.061346589049217e-05 0.999983657284919 5.082207007113547e-10 3.216495276915154e-07
32 3 5.41937 8.38578 1.4948 -1.2 0.0019836465929671393 0.00018010945481566608 0.997821818584237 1.286917721154855e-12 1.4425366686971574e-05
33 3 1.75158 5.79852 1.4948 -1.2 7.059747054991816e-06 1.4429897099387154e-05 0.9999776762598084 1.670543648428547e-10 8.339289800963062e-07
34 3 4.67421 6.06637 0.196716 -1.2 3.454976995330646e-08 8.223370695834871e-07 0.9999991313817496 9.086001273494309e-11 1.1640554637918302e-08
35 1 6.26654 4.74899 2.9896 1.2 6.906286348636497e-10 3.024950933516296e-08 0.9999992155198165 7.3990507383248e-07 1.36349743877616e-08
36 3 4.63043 6.06637 2.79288 -1.2 9.069555192214899e-08 2.804950824187714e-07 0.9999995738419953 3.921596093171998e-09 5.1045778788300154e-08
37 1 -1.12976 4.79031 4.4844 1.2 7.596272428321331e-10 1.5699745950872194e-09 0.9999983488438591 1.6479266921010171e-06 8.998469794866341e-10
38 2 -2.9517 7.47444 4.4844 2.4 1.0677023085523908e-08 1.1751629851351302e-07 0.9999961984203549 5.692397501803517e-07 3.104146573136692e-06
39 3 -3.00198 5.86121 4.4844 -1.2 4.127222897970947e-10 1.0393103097530993e-09 0.9999999598758657 3.612860942610836e-08 2.5434927077819257e-09
40 3 0.666315 8.44846 4.4844 -1.2 2.135033415471181e-07 2.433557701093917e-07 0.9999987999124709 7.246389552568599e-10 7.425037726940538e-07
41 3 -2.21213 8.18062 3.18632 -1.2 7.825169475878604e-07 1.5491322696608372e-07 0.9999987927297735 1.4001334767736705e-10 2.6970003538758513e-07
42 3 -2.25864 8.18062 5.78248 -1.2 6.107753383355596e-08 1.0270935096098233e-08 0.9999991276442127 1.5325729326065188e-08 7.856815901778588e-07
43 1 1.20893 7.12349 2.9896 1.2 3.479525608366123e-07 3.33737067272988e-07 0.9999992415069164 1.0021943867007857e-08 6.678150529731019e-08
44 1 4.00982 7.08218 4.4844 1.2 8.019898635451764e-08 2.5611915692452575e-08 0.9999996728982234 7.96167437410311e-08 1.4167412394355854e-07
45 2 2.17861 9.14704 4.4844 2.4 2.5025628604822014e-06 1.1722948783155452e-06 0.9999919442804851 1.31562148722898e-08 4.367705559356288e-06
46 3 2.18828 10.7603 4.4844 -1.2 1.1168819141043157e-05 2.2520313994669295e-07 0.999987244887852 4.236187015729656e-11 1.3610474992620358e-06
47 3 -4.43805 8.17302 4.4844 -1.2 1.0198521280957633e-07 1.1340260318575233e-07 0.9999986024762921 1.318096835442585e-09 1.1808177984076121e-06
48 3 2.89193 8.44087 3.18632 -1.2 5.5735053534603865e-06 5.073810317342503e-07 0.999993022321676 4.030644172605427e-10 8.963888733352659e-07
49 1 1.25915 7.12349 0 1.2 5.609240881451023e-07 1.044302628108779e-06 0.9999983849930739 4.650936373323211e-10 9.315122128000815e-09
50 3 2.84547 8.44087 5.78248 -1.2 3.954912602852994e-08 9.633213518213744e-09 0.999999576856841 6.032336999898834e-09 3.6792847709229294e-07
51 1 -1.59284 7.16481 1.4948 1.2 2.4318334172161037e-06 1.1438874376764986e-06 0.999996329014396 9.286502162385164e-10 9.433610394606674e-08
52 2 0.240329 5.09994 1.4948 2.4 3.184934506842691e-09 2.2485943449011378e-07 0.99999976430233 7.405755824158437e-09 2.475447254378794e-10
53 3 0.234538 3.48671 1.4948 -1.2 5.0188874433678064e-11 3.4499864111225796e-08 0.999999941728463 1.902113665562468e-08 4.7003411313000796e-09
54 3 6.85564 6.07396 1.4948 -1.2 8.034930944305156e-07 3.560730870725509e-06 0.9999948025380755 4.69567900751788e-10 8.32768391612757e-07
55 3 -0.429565 5.80612 0.196716 -1.2 6.912771103704025e-09 1.9529312464865918e-07 0.9999997946742594 3.9914645423392404e-10 2.720696435750695e-09
56 3 -0.473377 5.80612 2.79288 -1.2 7.627964907913674e-09 1.6637995373484393e-08 0.9999999446812653 2.1739219156880343e-08 9.313551572132711e-09
57 1 6.40169 9.49799 0 1.2 7.02397108079773e-05 3.235670581365485e-06 0.9999262754098418 5.1987854811755185e-12 2.492035650383256e-07
58 1 3.64209 14.2057 1.4948 1.2 0.0006033808293162066 1.6191496798009285e-06 0.9993943413800986 1.5910235054275462e-12 6.586393087420161e-07
59 2 5.45748 11.5215 1.4948 2.4 0.0033339248522550485 3.660703080066985e-05 0.9966288655760607 1.665207820437991e-13 6.025407146950525e-07
60 3 5.51101 13.1348 1.4948 -1.2 0.03420342332229591 0.00021944195646661502 0.9655576540147415 2.9850182230758613e-14 1.948070646266938e-05
61 3 1.83851 10.5475 1.4948 -1.2 0.011885273230893497 3.7486831890365e-05 0.9880713488754934 9.164774690585297e-14 5.8910616363332985e-06
62 3 4.7611 10.8154 0.196716 -1.2 0.0010510695561946127 2.1877129225994218e-05 0.99892630260258 7.955449189426511e-14 7.507119229805705e-07
63 1 6.35203 9.49799 2.9896 1.2 8.107503568422507e-05 3.987992375134176e-06 0.9999127666917549 2.4912178647384643e-10 2.170031068618642e-06
64 3 4.71833 10.8154 2.79288 -1.2 0.0003045086982528222 4.279724882532035e-06 0.9996864926942431 2.269290236218644e-11 4.718859924394713e-06
65 1 -1.0438 9.53931 4.4844 1.2 3.897540611164439e-06 8.72058078866724e-08 0.9999954174368478 1.0676227853933176e-08 5.871405107916875e-07
66 2 -2.8604 12.2234 4.4844 2.4 1.2954571172650928e-05 1.3366763408882163e-06 0.9999817892600671 2.3066986937321885e-09 3.91718571778062e-06
67 3 -2.91391 10.6102 4.4844 -1.2 2.1767686247868932e-05 5.216700150431674e-07 0.9999755964261374 4.052835543038769e-11 2.1141770712577703e-06
68 3 0.7596 13.1975 4.4844 -1.2 1.782958973456074e-05 1.1474050006766279e-06 0.9999791994492027 4.157182690288835e-11 1.8235144834206142e-06
69 3 -2.12001 12.9296 3.18632 -1.2 0.00025178373872874175 3.014299904981566e-06 0.9997421410440497 1.1366946996305269e-11 3.0609059429935925e-06
70 3 -2.16532 12.9296 5.78248 -1.2 7.600815594545464e-05 3.28582300916711e-07 0.9999167192348083 8.307250663672711e-10 6.9431962187431904e-06
71 1 1.29891 11.8725 2.9896 1.2 0.00030799706166277554 4.453733251156826e-06 0.9996838578382335 5.84077511136014e-11 3.6913084454826967e-06
72 1 4.10033 11.8312 4.4844 1.2 5.826524486975442e-05 2.0397904166282257e-07 0.9999355322027547 7.040825332410161e-09 5.991532506226534e-06
73 2 2.27333 13.896 4.4844 2.4 0.00017359785307636993 3.609495492478967e-06 0.9998149826062837 5.386940461183831e-10 7.809506456918376e-06
74 3 2.28634 15.5093 4.4844 -1.2 0.000217160475692978 9.306102559171101e-07 0.9997798704575858 1.1820375387752391e-12 2.03845527966048e-06
75 3 -4.34533 12.922 4.4844 -1.2 9.140421164959223e-06 4.5816415836591084e-07 0.9999861576446529 2.3535997439312265e-10 4.243534661864995e-06
76 3 2.98455 13.1899 3.18632 -1.2 0.0001595654625463752 2.286930269699078e-06 0.9998360460048931 1.0307820755452959e-11 2.101591988517313e-06
77 1 1.34779 11.8725 0 1.2 0.00035643791195384824 3.2127939300422337e-06 0.9996397638740735 7.348469134872138e-13 5.854193122916241e-07
78 3 2.93934 13.1899 5.78248 -1.2 5.069859162094658e-05 2.2396122651964497e-07 0.9999455043416465 7.193983046671495e-10 3.5723861094436447e-06
79 1 -1.50344 11.9138 1.4948 1.2 0.00044815392963998616 2.8473393701313843e-06 0.9995481511073787 1.7142792400190053e-12 8.476218966151943e-07
80 2 0.326006 9.84894 1.4948 2.4 0.0006453978844620399 1.2974830651317381e-05 0.9993414794582252 3.131633373599902e-13 1.4782635232917373e-07
81 3 0.317364 8.23571 1.4948 -1.2 0.0005444426673358018 2.9772996937673506e-05 0.9994225553086948 1.0638392919749654e-11 3.229016396207931e-06
82 3 6.94307 10.823 1.4948 -1.2 0.00746059673877888 8.174194681027683e-05 0.992451130250882 6.429367871083593e-14 6.5310634678138426e-06
83 3 -0.343122 10.5551 0.196716 -1.2 0.0003535346146075595 1.3362355457589492e-05 0.9996325447761278 2.479572812463904e-13 5.582535582012913e-07
84 3 -0.385966 10.5551 2.79288 -1.2 0.0001365283090114882 2.3363719611392103e-06 0.9998592975982944 3.251960884564571e-11 1.8376882085161268e-06
85 1 6.49448 14.247 0 1.2 0.0016820038804814723 3.7722950885616975e-06 0.9983129493257478 9.561970291267723e-14 1.274498580038961e-06
86 1 3.74457 18.9547 1.4948 1.2 0.00011586530468765193 4.906395715196432e-07 0.9998835490457928 3.9045984990860815e-13 9.500956273119255e-08
87 2 5.55495 16.2705 1.4948 2.4 0.0021774144606926606 1.9563467059175016e-05 0.9978029534658548 7.396245441504838e-15 6.860637931249192e-08
88 3 5.6115 17.8838 1.4948 -1.2 0.013631558430406063 0.00011381377614094801 0.9862519197526468 3.85583417552248e-15 2.7080408056971728e-06
89 3 1.93416 15.2965 1.4948 -1.2 0.03165372931819861 7.22827463490808e-05 0.9682697999513958 2.040531774916549e-15 4.187984051040228e-06
90 3 4.85636 15.5644 0.196716 -1.2 0.011277770996376904 6.890392475361364e-05 0.9886512626881283 1.0831884096510368e-14 2.062390729534528e-06
91 1 6.44662 14.247 2.9896 1.2 0.0004116882493562706 2.304367095891383e-06 0.9995841870247513 1.075620090090448e-11 1.820348042679093e-06
92 3 4.81537 15.5644 2.79288 -1.2 0.001387771488888708 1.5790161435766057e-05 0.9985926224350726 1.0792187035346528e-12 3.815913525784503e-06
93 1 -0.948271 14.2883 4.4844 1.2 5.019799968177895e-05 1.7831112574626614e-07 0.99994804746186 1.856538127908981e-09 1.5743707874603528e-06
94 2 -2.75928 16.9724 4.4844 2.4 0.00038325508982410696 3.3207659098241156e-06 0.9996116597657155 6.636046789666388e-11 1.764312191960433e-06
95 3 -2.81617 15.3592 4.4844 -1.2 6.207729934021391e-05 5.218463778411047e-07 0.9999355296718936 4.722416347318764e-12 1.8711776671224492e-06
96 3 0.862762 17.9465 4.4844 -1.2 0.00010153749999870252 1.8772384189355394e-06 0.9998944660781647 9.298524150935064e-12 2.1191741255938464e-06
97 3 -2.0185 17.6786 3.18632 -1.2 0.0010270855339368063 2.787828107046208e-06 0.9989690236800114 2.0802128091855037e-13 1.1029577341698084e-06
98 3 -2.06164 17.6786 5.78248 -1.2 0.0010039576891110518 5.392900127984887e-07 0.998987475386781 9.168463903057193e-11 8.027542408409608e-06
99 1 1.39817 16.6215 2.9896 1.2 0.0004849916992891214 3.7058200403436887e-06 0.9995089454245351 3.94399513708687e-12 2.3570521872900763e-06
100 1 4.20062 16.5802 4.4844 1.2 0.00016006616850562565 2.929170754072943e-07 0.9998371942927603 4.070700997119448e-10 2.4462145865271033e-06
101 2 2.37796 18.645 4.4844 2.4 0.00016578048770989298 1.0369106942280336e-06 0.9998327994319001 1.9890037738036163e-11 3.8314979999839953e-07
102 3 2.39434 20.2583 4.4844 -1.2 0.00021536008792082836 4.154538776551117e-07 0.9997833878128932 3.24255326111563e-13 8.366449806109846e-07
103 3 -4.24274 17.671 4.4844 -1.2 4.9061990741198035e-05 7.040208122348831e-07 0.9999490566367727 1.2856025072268086e-11 1.177338814299102e-06
104 3 3.08659 17.9389 3.18632 -1.2 0.0002063208697874606 1.9650054190067095e-06 0.9997911699239828 7.046909165252604e-13 5.442001124038324e-07
105 1 1.44478 16.6215 0 1.2 0.0019439670460017558 2.6536334591133197e-06 0.9980523596512643 1.0472569832472071e-13 1.019669173517075e-06
106 3 3.0436 17.9389 5.78248 -1.2 0.00012311452511430397 8.421816577024069e-08 0.9998754325151296 6.711399025601784e-11 1.3686744826110448e-06
107 1 -1.40524 16.6628 1.4948 1.2 0.0012682956731019694 3.518896779472824e-06 0.9987269734107138 1.7834826394200461e-13 1.212019232235033e-06
108 2 0.420358 14.5979 1.4948 2.4 0.0040979506459169375 3.747444277799947e-05 0.9958643643272553 3.332135947220494e-14 2.1058401091556698e-07
109 3 0.408732 12.9847 1.4948 -1.2 0.03331965028559968 0.0001735229733472787 0.9664964610493423 3.1518141121978944e-14 1.036569168092252e-05
110 3 7.03923 15.572 1.4948 -1.2 0.03559760044717202 0.00016675977330190585 0.9642285786993711 3.715446508973942e-15 7.061080157385502e-06
111 3 -0.248332 15.3041 0.196716 -1.2 0.0022805560126288186 5.1628435096230794e-05 0.9976668140067727 2.123650326937137e-14 1.0015454834628362e-06
112 3 -0.289436 15.3041 2.79288 -1.2 0.0017110453787870605 1.799304865013324e-05 0.9982665919405919 1.982169227241566e-12 4.369629995349706e-06
113 1 6.59566 18.996 0 1.2 0.0005418712928953715 7.636714446612405e-07 0.999457144210798 1.2723801836917326e-14 2.208248529593704e-07
114 1 3.85574 23.7037 1.4948 1.2 0.001164775381754089 1.109941522605212e-06 0.9988336574953394 5.403124726635493e-13 4.571808447588862e-07
115 2 5.66125 21.0195 1.4948 2.4 0.003869712550646265 1.0322771254104344e-05 0.9961199384478251 6.6207306164765296e-15 2.6230269227557585e-08
116 3 5.72074 22.6328 1.4948 -1.2 0.033457222607332214 8.81270731082337e-05 0.9664523040476777 4.284861383106071e-15 2.346271871437762e-06
117 3 2.03867 20.0455 1.4948 -1.2 0.03416473472226719 5.1936335403416695e-05 0.9657812149388503 3.762432294756304e-16 2.1140034740432174e-06
118 3 4.96004 20.3134 0.196716 -1.2 0.0034326940055498666 2.6624005300082982e-05 0.996540083385088 5.0792394209013274e-15 5.986040572106921e-07
119 1 6.55057 18.996 2.9896 1.2 0.0002492955993989967 1.1489006741261188e-06 0.9997488849789726 1.8403945989267645e-12 6.705191077640759e-07
120 3 4.92172 20.3134 2.79288 -1.2 0.0004980493308439523 4.267760730063349e-06 0.9994970051648856 3.1296570139447154e-13 6.777432321137941e-07
121 1 -0.84282 19.0373 4.4844 1.2 7.691780872699726e-05 1.6558160547666867e-07 0.9999219460328161 2.2890123084926903e-10 9.70347944737044e-07
122 2 -2.64823 21.7214 4.4844 2.4 0.00021227667133512186 5.411743949346617e-07 0.9997870668846776 1.2569036193145147e-11 1.1525703059326029e-07
123 3 -2.70847 20.1082 4.4844 -1.2 5.693166526455632e-05 2.119392239578926e-07 0.9999425917580395 3.9318275216396716e-13 2.6463707887602885e-07
124 3 0.97581 22.6955 4.4844 -1.2 0.00030906196767042715 2.521608060024293e-06 0.9996857659446036 4.174565339535697e-12 2.6504754881968186e-06
125 3 -1.9076 22.4276 3.18632 -1.2 0.00045320361663496976 6.541465124277022e-07 0.9995459481976147 1.1052120716334347e-13 1.9403913170274163e-07
126 3 -1.9475 22.4276 5.78248 -1.2 0.000980600832026772 2.369974443254467e-07 0.9990159472080268 4.978318706333275e-11 3.214912718210988e-06
127 1 1.50678 21.3705 2.9896 1.2 0.000542088443097886 8.085370770937598e-07 0.9994564105940026 9.953827168970493e-13 6.924248282014625e-07
128 1 4.31086 21.3292 4.4844 1.2 3.397018212219548e-05 4.011107958445852e-08 0.9999658101635096 1.2920394517337504e-10 1.7941408809170148e-07
129 2 2.49243 23.394 4.4844 2.4 0.00044460614813546793 9.214946770629819e-07 0.9995541573225694 4.452198976030155e-11 3.149900891793375e-07
130 3 2.51204 25.0073 4.4844 -1.2 0.00010314039405522682 1.3485720335395527e-07 0.9998963482395172 3.311676874442394e-13 3.765088905666271e-07
131 3 -4.13026 22.42 4.4844 -1.2 0.00010211000098446266 7.532622242745364e-07 0.9998966398371738 2.9439352666908352e-12 4.968966767859722e-07
132 3 3.19799 22.6879 3.18632 -1.2 0.0007261967933246457 2.281734706913607e-06 0.9992710142839487 1.7181367306673114e-13 5.071878482695563e-07
133 1 1.5501 21.3705 0 1.2 0.0015239622225033166 1.5609227668776125e-06 0.9984739694324677 3.461586464813487e-14 5.074222322962307e-07
134 3 3.1583 22.6879 5.78248 -1.2 0.0002236735933027407 4.3693138570890734e-08 0.9997759193439975 1.725042569394416e-11 3.6335231794535624e-07
135 1 -1.29822 21.4118 1.4948 1.2 0.001474707145437891 2.0797002024018382e-06 0.998522623888881 5.076520341741764e-14 5.892654265861749e-07
136 2 0.523568 19.3469 1.4948 2.4 0.0017399983587063918 1.1275558637742815e-05 0.9982487120206374 5.8965023733879326e-15 1.4062016124292801e-08
137 3 0.508934 17.7337 1.4948 -1.2 0.0063416331342665815 7.291898370163108e-05 0.9935842157413884 4.1256030063588934e-15 1.232140636940743e-06
138 3 7.14425 20.321 1.4948 -1.2 0.01912314324555542 9.353756652298722e-05 0.980781697386768 6.51103898918538e-16 1.6218011583627254e-06
139 3 -0.145107 20.0531 0.196716 -1.2 0.0036274623135848986 3.346048871739293e-05 0.9963386967330251 3.0358490186614182e-15 3.804646667163871e-07
140 3 -0.183601 20.0531 2.79288 -1.2 0.0038091429265966537 2.0029888077295815e-05 0.9961686864118426 1.502876932714725e-13 2.140773329292479e-06
141 1 6.70502 23.745 0 1.2 0.006305452931838778 3.739404668838262e-06 0.9936892943532871 2.5529331367067124e-14 1.5133101730988728e-06
142 1 3.97493 28.4527 1.4948 1.2 0.16581681028399817 1.5889836662028253e-05 0.8341445921932544 2.6437007458181716e-12 2.270768344258292e-05
143 2 5.77602 25.7685 1.4948 2.4 0.23052459054812943 3.098226046125457e-05 0.7694441732879236 2.3217112243274445e-14 2.5390345659348227e-07
144 3 5.83821 27.3818 1.4948 -1.2 0.6152841807350871 8.063970295299945e-05 0.3846225215565505 5.0558969753097436e-15 1.265800540386831e-05
145 3 2.15175 24.7945 1.4948 -1.2 0.711510121662128 0.0001526784773382164 0.28832203842418325 4.672448928409522e-16 1.5161436350620966e-05
146 3 5.07184 25.0624 0.196716 -1.2 0.25385655197451695 6.725963729180227e-05 0.7460662112627806 1.1859038350247397e-14 9.977125395737992e-06
147 1 6.66374 23.745 2.9896 1.2 0.0009195921209244729 8.506713384006386e-07 0.9990789562078134 6.022142257628966e-13 6.00999315725322e-07
148 3 5.03707 25.0624 2.79288 -1.2 0.002989989023677663 5.460895203067858e-06 0.9970035050627454 2.4469373692477573e-13 1.04501813379557e-06
149 1 -0.727559 23.7863 4.4844 1.2 5.367810481226105e-05 1.4005110052320373e-07 0.9999456967301373 7.293250803528056e-11 4.850410146966084e-07
150 2 -2.5277 26.4704 4.4844 2.4 0.0006819245652221382 2.4785605967923656e-07 0.9993177348430434 9.779688090344812e-12 9.27258928444714e-08
151 3 -2.59107 24.8572 4.4844 -1.2 7.774747691918531e-05 1.1587033894011689e-07 0.9999219118987771 1.5525422490337768e-13 2.2475381479112424e-07
152 3 1.09817 27.4445 4.4844 -1.2 0.002831845420226959 2.5531432969246327e-06 0.9971615385449101 2.664851918690586e-12 4.062888900508683e-06
153 3 -1.78784 27.1766 3.18632 -1.2 0.0013744131232998546 9.100146046843593e-07 0.9986242345275684 2.872049720291963e-13 4.42334233864678e-07
154 3 -1.82343 27.1766 5.78248 -1.2 0.0005538530186612334 3.0292015390056785e-08 0.9994458558423592 7.319170822199232e-12 2.608396401408362e-07
155 1 1.62435 26.1195 2.9896 1.2 0.009684680648700393 2.431147029709805e-06 0.9903087949118062 1.2575044478912539e-12 4.093291208415662e-06
156 1 4.43064 26.0782 4.4844 1.2 0.00017002890267952154 2.9143775359445215e-08 0.9998298304893292 3.613184635734638e-11 1.1142807714915411e-07
157 2 2.61607 28.143 4.4844 2.4 0.0011922875831594994 4.4731648207027177e-07 0.9988069766441946 6.489623380991867e-11 2.8839126760867575e-07
158 3 2.63853 29.7563 4.4844 -1.2 0.0001742985188449148 8.627092071690513e-08 0.9998248829617911 1.9027925575066867e-12 7.32246538363296e-07
159 3 -4.00841 27.169 4.4844 -1.2 0.00027798309449119204 3.0932778833895654e-07 0.9997214948575058 7.166857462655551e-13 2.12719504693873e-07
160 3 3.3182 27.4369 3.18632 -1.2 0.006325636292482766 2.03573573583013e-06 0.9936707301496149 3.9070952671829146e-13 1.5978217698283375e-06
161 1 1.66335 26.1195 0 1.2 0.10371081396286497 1.908833582445978e-05 0.8962554176216233 6.208253683351346e-14 1.4680079626276869e-05
162 3 3.28288 27.4369 5.78248 -1.2 0.0004133059790227345 3.0677826498998434e-08 0.9995865247267125 7.492908981196065e-12 1.3860894078980138e-07
163 1 -1.18278 26.1608 1.4948 1.2 0.05482432188373711 1.5108556655811007e-05 0.9451514302544234 1.7522873966580187e-13 9.139305011713123e-06
164 2 0.635424 24.0959 1.4948 2.4 0.015789560027344718 5.5187660948861485e-06 0.9842049112509927 7.440845737920007e-15 9.9555551068222e-09
165 3 0.617906 22.4827 1.4948 -1.2 0.0344568812462651 7.945312086729392e-05 0.9654620664907901 2.3617819525888284e-15 1.5991420779430712e-06
166 3 7.25781 25.07 1.4948 -1.2 0.3840228855973074 0.0002855440085011032 0.615678358306003 1.081755522556638e-15 1.3212088181943039e-05
167 3 -0.0337363 24.8021 0.196716 -1.2 0.15586910992664094 7.432317272751984e-05 0.8440522136304802 4.173608069911536e-15 4.353270140661717e-06
168 3 -0.0687235 24.8021 2.79288 -1.2 0.008662753851487058 2.0037359624600283e-05 0.9913138674146618 4.874983692330302e-13 3.3413737334531353e-06
169 1 6.82195 28.494 0 1.2 0.2176287891943423 3.5952894403726704e-05 0.7822986773813819 2.1187701031752118e-13 3.658052965964846e-05
170 1 4.10106 33.2017 1.4948 1.2 0.41083152021549507 0.00020488740687980725 0.5885394890235319 1.830627236345385e-10 0.00042410317103736125
171 2 5.89839 30.5175 1.4948 2.4 0.9709559295779419 1.1978095207657089e-05 0.029031355267362672 1.0267717193502807e-14 7.370594771850736e-07
172 3 5.96289 32.1308 1.4948 -1.2 0.7454304107567725 8.791656728771918e-05 0.25443794308198175 2.264385076888207e-13 4.3729593734411355e-05
173 3 2.27266 29.5435 1.4948 -1.2 0.9752053974956126 0.0001120761234541042 0.02462329813364769 3.615636612583735e-15 5.922824728438913e-05
174 3 5.19102 29.8114 0.196716 -1.2 0.9256315833968144 2.479059509836874e-05 0.07431524134018057 1.459281957494227e-14 2.8384667885477082e-05
175 1 6.78546 28.494 2.9896 1.2 0.00977817104317841 2.3308756928893883e-06 0.9902149756455424 3.441375209691781e-12 4.522432145504019e-06
176 3 5.16061 29.8114 2.79288 -1.2 0.027076700668718933 1.1125319171732452e-05 0.972906010453586 1.6243514605863476e-12 6.163556896023115e-06
177 1 -0.603205 28.5353 4.4844 1.2 0.0005152312035572995 2.3337686968333924e-07 0.9994830905308771 1.4186269609479805e-10 1.4447468358724616e-06
178 2 -2.39877 31.2194 4.4844 2.4 0.0013268915730034541 5.043960944944766e-07 0.9986719555352822 1.0760004703507353e-10 6.483880163943317e-07
179 3 -2.46483 29.6062 4.4844 -1.2 4.107053881257177e-05 5.5610099629874195e-08 0.9999587050796425 2.069305963582535e-12 1.687693731769019e-07
180 3 1.22864 32.1935 4.4844 -1.2 0.0018810097891886564 2.4488677365612926e-06 0.9981106888072139 2.18724468724648e-11 5.852513988120035e-06
181 3 -1.66032 31.9256 3.18632 -1.2 0.004315069416058521 1.547133439278714e-06 0.9956819771249942 4.383435544953549e-12 1.406321119542652e-06
182 3 -1.69072 31.9256 5.78248 -1.2 0.00032821754975415247 3.24115160462673e-08 0.9996714527063112 4.1500284554685865e-11 2.9729091266187865e-07
183 1 1.7499 30.8685 2.9896 1.2 0.05272500543783071 8.342835955368171e-06 0.9472378978464587 1.04732114541265e-11 2.875386927522768e-05
184 1 4.55894 30.8272 4.4844 1.2 0.0010832546633730573 6.262985063299342e-08 0.9989160565406652 2.690903979461012e-10 6.258970148628086e-07
185 2 2.7476 32.892 4.4844 2.4 0.002045934633157392 8.229870947923002e-07 0.9979523685904967 4.261682557564162e-10 8.733630843198181e-07
186 3 2.77235 34.5053 4.4844 -1.2 5.075745115274175e-05 3.634301206592442e-08 0.9999488110357093 1.8201801709507803e-11 3.9515192497612557e-07
187 3 -3.87837 31.918 4.4844 -1.2 0.0005335751125685831 6.578493741258827e-07 0.9994641625158321 1.508082936043512e-11 1.604507149026497e-06
188 3 3.44611 32.1859 3.18632 -1.2 0.014013561848776461 5.340957858609133e-06 0.9859741999107756 1.3089907290363868e-11 6.897269502662501e-06
189 1 1.7837 30.8685 0 1.2 0.6675866615249743 8.10854212416862e-05 0.33207307409723 9.570676963512701e-13 0.00025917895560076035
190 3 3.41602 32.1859 5.78248 -1.2 0.0001556804224373924 1.3998999819160866e-08 0.9998441927609871 4.327319154555318e-11 1.1277430157261551e-07
191 1 -1.05984 30.9098 1.4948 1.2 0.6636960540570278 0.00011198178104089159 0.33601328223828314 2.4970509160161407e-12 0.00017868192115558525
192 2 0.755243 28.8449 1.4948 2.4 0.8735199606990606 1.0783878555755667e-05 0.1264690703244455 8.083487587898713e-15 1.8509792461940234e-07
193 3 0.735127 27.2317 1.4948 -1.2 0.7880298089539561 7.871539916934461e-05 0.2118805165206631 2.727540316077598e-15 1.0959126212752295e-05
194 3 7.37914 29.819 1.4948 -1.2 0.8746947154232435 0.00019013471165912172 0.12504455434708756 1.560333509850159e-14 7.059551798771859e-05
195 3 0.0850649 29.5511 0.196716 -1.2 0.698654736063864 7.841583527714935e-05 0.3012397833016453 6.563656043899852e-14 2.706479915070281e-05
196 3 0.0543974 29.5511 2.79288 -1.2 0.09489127799293369 3.2601017639026526e-05 0.9050637594513646 1.048120685125234e-12 1.236153701492404e-05
197 1 6.94543 33.243 0 1.2 0.6288196106251837 6.0842606680125575e-05 0.37085046342173283 2.662296810712461e-12 0.00026908334374243565
198 1 4.23267 37.9507 1.4948 1.2 0.1430095340355638 0.00011932272248879147 0.8566045788927594 2.2574692620962734e-09 0.0002665620917174473
199 2 6.02709 35.2665 1.4948 2.4 0.9863807734143063 3.945686608049966e-05 0.0135714726382679 1.89516509436528e-13 8.297081152039065e-06
200 3 6.09339 36.8798 1.4948 -1.2 0.18572703331769064 0.00011441763335928689 0.8140786557433755 1.796040115041144e-11 7.989328761305908e-05
201 3 2.40018 34.2925 1.4948 -1.2 0.8459623796146246 0.00039669812676759183 0.15326514650890222 1.4755002370755241e-12 0.00037577574823633217
202 3 5.31645 34.5604 0.196716 -1.2 0.9455109890098342 5.291974066486633e-05 0.0542508102108622 5.775594584975682e-13 0.000185281038068242
203 1 6.91449 33.243 2.9896 1.2 0.029940397520410923 7.6950434603575e-06 0.9700286275167107 5.163828223004547e-11 2.327986777946437e-05
204 3 5.291 34.5604 2.79288 -1.2 0.013794156566694327 2.7188534125204208e-05 0.9861528219566645 6.674022580990881e-11 2.5832875774216973e-05
205 1 -0.471101 33.2843 4.4844 1.2 0.0038307159521786057 7.130298784344403e-07 0.9961628352264402 1.2576445469566778e-09 5.73453386089349e-06
206 2 -2.26307 35.9684 4.4844 2.4 0.0002240055091099713 6.576295260365735e-07 0.9997735619297559 5.132225490895843e-09 1.7697993758961561e-06
207 3 -2.33122 34.3552 4.4844 -1.2 5.703753764686556e-05 8.727655588942849e-08 0.9999422833960653 2.4064580054705867e-11 5.917656624692216e-07
208 3 1.36549 36.9425 4.4844 -1.2 9.199399249385069e-05 3.686474928638413e-07 0.9999058774693835 1.0651505234578067e-10 1.7597841101393463e-06
209 3 -1.52658 36.6746 3.18632 -1.2 0.002979786391431419 2.8074989786359563e-06 0.9970131536782547 8.953795430751859e-11 4.252341799200115e-06
210 3 -1.55122 36.6746 5.78248 -1.2 8.811421391814787e-05 1.3913872274617265e-08 0.9999116980402222 2.48984766770196e-10 1.7358300698477448e-07
211 1 1.882 35.6175 2.9896 1.2 0.014384931237805217 9.096660207074178e-06 0.9855762090592917 2.2456182973034192e-10 2.9762818137881373e-05