ITEM: TIMESTEP
4000
ITEM: NUMBER OF ATOMS
10500
ITEM: BOX BOUNDS xy xz yz pp pp pp
0	15.2977	5.09925
0	118.725	0
0	89.688	0
ITEM: ATOMS id type xu yu zu q pCrystal pDisloC pSF pDisloB pDisloA
1 1 6.2404 -6.37941e-06 0 1.2 4.594463530850484e-16 3.2539590502992474e-12 0.9999996102386794 3.8970962321238035e-07 4.843965324612574e-11
2 1 3.46349 4.70768 1.4948 1.2 4.712428021480046e-10 3.1292230005195535e-08 0.9999999175778135 5.035444828562097e-08 3.042645102928795e-10
3 2 5.2885 2.02354 1.4948 2.4 2.7312354123108194e-13 6.310899628103272e-10 0.9999999806347974 1.8720419783204627e-08 1.3415935995065173e-11
4 3 5.33628 3.63678 1.4948 -1.2 4.931010788846689e-10 4.80713580559177e-08 0.9999999331233647 8.389521403934406e-09 9.922652646306415e-09
5 3 1.67294 1.04952 1.4948 -1.2 2.8620531130840995e-13 2.056823873973594e-09 0.9999997047731749 2.921998798672689e-07 9.698349622031566e-10
6 3 4.59532 1.31737 0.196716 -1.2 1.735927009130227e-14 3.639553064096231e-10 0.9999998683917768 1.308217410096258e-07 4.2251661015506705e-10
7 1 6.18956 -6.37941e-06 2.9896 1.2 6.223099981467685e-16 8.568412197854579e-11 0.9999970227356823 2.976010995708875e-06 1.1676386904402442e-09
8 3 4.55118 1.31737 2.79288 -1.2 4.078337608546962e-16 1.6172400136112337e-11 0.9999976726470632 2.327162485472007e-06 1.7428009341470794e-10
9 1 -1.20682 0.0413099 4.4844 1.2 2.8135914072681346e-15 8.192453201297251e-11 0.9999791311639015 2.0867878895651694e-05 8.752765458479765e-10
10 2 -3.0337 2.72544 4.4844 2.4 9.732089365266764e-12 9.949280673842393e-08 0.9999653581000469 3.449459068502302e-05 4.780673207612466e-08
11 3 -3.08099 1.11221 4.4844 -1.2 9.460452939703725e-15 3.8038926233618457e-10 0.9999905057181676 9.492641955253714e-06 1.2594733834203078e-09
12 3 0.582463 3.69946 4.4844 -1.2 5.771238999310103e-12 1.2358089414558523e-09 0.9999861433867446 1.3837701520128026e-05 1.7670149632151204e-08
13 3 -2.29524 3.43162 3.18632 -1.2 1.4086229112076238e-10 2.2096228385820888e-08 0.9999997081362011 2.591582597604515e-07 1.0468441451102689e-08
14 3 -2.34216 3.43162 5.78248 -1.2 3.0515296970294073e-12 4.0742449455552715e-10 0.9999331889821534 6.679415171650649e-05 1.6455647741684133e-08
15 1 1.12778 2.37449 2.9896 1.2 3.881806515773813e-13 2.029051173540987e-09 0.9999908050205416 9.192134818203896e-06 8.152065546839943e-10
16 1 3.92855 2.33318 4.4844 1.2 1.2217371314034813e-14 7.749533532332692e-11 0.9999252455909423 7.475323916519033e-05 1.0923790344447435e-09
17 2 2.09341 4.39804 4.4844 2.4 2.0154659700327984e-12 6.949029234199948e-09 0.9999851806093584 1.4811338741739285e-05 1.1008591958005726e-09
18 3 2.09991 6.01128 4.4844 -1.2 3.1623582098029444e-09 2.208005927877923e-08 0.9999999311789646 2.1907705660773428e-08 2.167091880150009e-08
19 3 -4.52137 3.42402 4.4844 -1.2 1.2267108680310014e-12 9.312202121811075e-10 0.9999879338965139 1.204560790641384e-05 1.9563139615473028e-08
20 3 2.80834 3.69187 3.18632 -1.2 4.662015020003719e-12 1.3703197171637181e-09 0.9999998737466678 1.242242335598398e-07 6.541127358971285e-10
21 1 1.17857 2.37449 0 1.2 1.9001538446836274e-14 3.340795516411638e-10 0.99999937572279 6.237661058965622e-07 1.7700838349764253e-10
22 3 2.76143 3.69187 5.78248 -1.2 1.205134976737628e-13 3.6710013385017584e-11 0.9999640270887573 3.596927669730634e-05 3.5977204297038903e-09
23 1 -1.67381 2.41581 1.4948 1.2 1.1920729382315281e-10 3.1402518625426376e-08 0.9999979575458976 2.0057761022822338e-06 5.156267796423371e-09
24 2 0.16286 0.350945 1.4948 2.4 3.551630639517061e-13 1.8971091912584575e-09 0.9999992528548722 7.449939073415262e-07 2.537544101137878e-10
25 3 0.15972 -1.26229 1.4948 -1.2 7.228483838349587e-12 1.5334843594763448e-08 0.999999818669226 1.600663408160704e-07 5.9223658922835026e-09
26 3 6.77654 1.32496 1.4948 -1.2 1.2101542479874157e-12 5.142952145828953e-09 0.9999999032194797 8.455191864737723e-08 7.084442365982808e-09
27 3 -0.508028 1.05712 0.196716 -1.2 5.92399309785389e-14 1.5176135505751492e-09 0.9999995899636348 4.07051461325791e-07 1.4672272534963147e-09
28 3 -0.552171 1.05712 2.79288 -1.2 2.1097698544416618e-13 9.125563011545372e-10 0.9999966305423053 3.3635972975200652e-06 4.947628090742907e-09
29 1 6.31713 4.74899 0 1.2 3.825255568593094e-10 5.917444798697698e-08 0.9999999002958667 3.906811382221444e-08 1.0790474285341003e-09
30 1 3.54847 9.45668 1.4948 1.2 4.363252420453019e-05 4.531024955110031e-07 0.9999557718380352 3.72161253647892e-11 1.4249804783743206e-07
31 2 5.36879 6.77254 1.4948 2.4 3.307623703459613e-06 7.254152740005253e-06 0.9999892702276545 1.3309616987557398e-10 1.6786280421482286e-07
32 3 5.41937 8.38578 1.4948 -1.2 0.0010286919951696745 9.379584966814612e-05 0.9988717342181582 3.900885605831651e-13 5.777936617070665e-06
33 3 1.75158 5.79852 1.4948 -1.2 4.686767742478116e-06 1.0857981115374828e-05 0.9999839421557729 7.126137341272799e-11 5.130241011585319e-07
34 3 4.67421 6.06637 0.196716 -1.2 4.310810033405579e-08 5.014009058629967e-07 0.9999994474054111 3.021944701928039e-11 8.055367073169412e-09
35 1 6.26654 4.74899 2.9896 1.2 2.0788586316502816e-10 1.9272361252876344e-08 0.9999995169796166 4.512405094272697e-07 1.2299629597428417e-08
36 3 4.63043 6.06637 2.79288 -1.2 4.6626311251786016e-08 2.5874640651844896e-07 0.9999996488745259 2.2431687907346832e-09 4.350959077352227e-08
37 1 -1.12976 4.79031 4.4844 1.2 1.3953952135304205e-10 1.0700907191644875e-09 0.9999981984701405 1.7982332440396434e-06 2.0869881395737733e-09
38 2 -2.9517 7.47444 4.4844 2.4 6.867989815758106e-09 1.476417477751087e-07 0.9999944799038918 4.671084089262148e-07 4.898477965631748e-06
39 3 -3.00198 5.86121 4.4844 -1.2 1.8717059815162713e-10 9.19171237835881e-10 0.9999999188590498 7.597083251958233e-08 4.063772748243308e-09
40 3 0.666315 8.44846 4.4844 -1.2 2.254928885161344e-07 3.3754846548622803e-07 0.9999982360848417 5.261478420016422e-10 1.200347655557439e-06
41 3 -2.21213 8.18062 3.18632 -1.2 4.0538488330182036e-07 1.0136197274932052e-07 0.9999993408543345 5.304763940422235e-11 1.5234576598248185e-07
42 3 -2.25864 8.18062 5.78248 -1.2 3.8047941272062624e-08 7.458412648891346e-09 0.9999990204546628 1.367767633274452e-08 9.203613068736282e-07
43 1 1.20893 7.12349 2.9896 1.2 1.815610158382412e-07 2.5493238015911336e-07 0.9999995164215708 4.385864736933824e-09 4.26991735499927e-08
44 1 4.00982 7.08218 4.4844 1.2 2.7086728535826576e-08 1.997812136676701e-08 0.9999997902089965 4.7877484641996414e-08 1.1484866242556166e-07
45 2 2.17861 9.14704 4.4844 2.4 2.1947817487036193e-06 1.6301290998248156e-06 0.9999898597325492 9.972801605693503e-09 6.305383798002356e-06
46 3 2.18828 10.7603 4.4844 -1.2 8.738411023838461e-06 2.2127611128531337e-07 0.9999899864713198 1.57847653419083e-11 1.0538257670350095e-06
47 3 -4.43805 8.17302 4.4844 -1.2 4.864704883994742e-08 1.0245377575786502e-07 0.9999984284400781 8.644997690961663e-10 1.4195945987781256e-06
48 3 2.89193 8.44087 3.18632 -1.2 3.7489540866841224e-06 4.1011226112840094e-07 0.9999953164474931 1.2917641358819028e-10 5.243569797104223e-07
49 1 1.25915 7.12349 0 1.2 4.105876666263014e-07 3.8984480167896986e-07 0.9999991952709988 2.1261741331439978e-10 4.083908646031869e-09
50 3 2.84547 8.44087 5.78248 -1.2 1.0425108495931734e-07 2.2533769870848474e-08 0.9999991414627365 6.018275888640624e-09 7.257341280235984e-07
51 1 -1.59284 7.16481 1.4948 1.2 1.4008474856930182e-06 6.172134740069075e-07 0.9999979402558988 3.239092267968422e-10 4.135922912898712e-08
52 2 0.240329 5.09994 1.4948 2.4 1.9688635887632358e-09 1.1991522633687472e-07 0.9999998744250939 3.5729144394588665e-09 1.179087227717414e-10
53 3 0.234538 3.48671 1.4948 -1.2 3.1277615193399836e-11 1.9605307868984423e-08 0.9999999637463766 1.269987678367566e-08 3.917157025076073e-09
54 3 6.85564 6.07396 1.4948 -1.2 7.325794899778091e-07 4.318309941005237e-06 0.9999943173312176 1.4191537740375802e-10 6.31637440303178e-07
55 3 -0.429565 5.80612 0.196716 -1.2 5.649678180075778e-09 8.195789533300518e-08 0.9999999111290276 1.2221800822758614e-10 1.141181365745724e-09
56 3 -0.473377 5.80612 2.79288 -1.2 2.491945349354081e-09 1.149626492016874e-08 0.9999999746410996 6.750005091308434e-09 4.62067985904104e-09
57 1 6.40169 9.49799 0 1.2 5.2193421774054755e-05 1.1899579853011473e-06 0.9999465197316196 1.6363825003781954e-12 9.688698997965779e-08
58 1 3.64209 14.2057 1.4948 1.2 0.00026840336372583104 5.787383598462502e-07 0.999730709973213 1.026276211946709e-12 3.0792367384001856e-07
59 2 5.45748 11.5215 1.4948 2.4 0.0015511074199606048 1.9713250834074637e-05 0.9984288997816259 1.1550974099552502e-13 2.7954745759423165e-07
60 3 5.51101 13.1348 1.4948 -1.2 0.016153010393999623 0.00011473057231254333 0.9837220675887106 1.8259058290225715e-14 1.0191444958505039e-05
61 3 1.83851 10.5475 1.4948 -1.2 0.0067186487473083305 2.0689227675360662e-05 0.9932576627011539 2.930339042477508e-14 2.999323837251854e-06
62 3 4.7611 10.8154 0.196716 -1.2 0.00044406710538817754 9.73552320191823e-06 0.9995457527156415 8.052599525625033e-14 4.446556889120831e-07
63 1 6.35203 9.49799 2.9896 1.2 2.5690560083362348e-05 2.2426383890632066e-06 0.9999712401778356 8.003660851070591e-11 8.26543658511315e-07
64 3 4.71833 10.8154 2.79288 -1.2 0.00012398145651127304 2.2426865600757964e-06 0.9998722610090182 4.7977578055307076e-12 1.514843115338488e-06
65 1 -1.0438 9.53931 4.4844 1.2 1.0428299998693866e-06 5.0466040925535474e-08 0.9999985567654092 4.633606587528945e-09 3.4530494445247186e-07
66 2 -2.8604 12.2234 4.4844 2.4 5.178540724825877e-06 1.1488326846451658e-06 0.9999915787677507 8.20371559894444e-10 2.093038463189161e-06
67 3 -2.91391 10.6102 4.4844 -1.2 5.396372938850393e-06 2.457060906775733e-07 0.9999935169178801 1.1620570392480609e-11 8.409914650470024e-07
68 3 0.7596 13.1975 4.4844 -1.2 1.6763764155657685e-05 2.0768605118531756e-06 0.9999771211738876 2.737367813559632e-11 4.038174067077442e-06
69 3 -2.12001 12.9296 3.18632 -1.2 8.048389923178614e-05 1.2253104441055847e-06 0.9999171654331491 3.520438807956849e-12 1.1253536578433693e-06
70 3 -2.16532 12.9296 5.78248 -1.2 2.570371255333336e-05 2.049863871966312e-07 0.9999692812057249 1.340852827654615e-10 4.809961245624273e-06
71 1 1.29891 11.8725 2.9896 1.2 0.00023003991572269006 2.696617730817855e-06 0.9997651423640314 2.4748363155853122e-11 2.1210777707462466e-06
72 1 4.10033 11.8312 4.4844 1.2 1.6953122337978823e-05 8.224575052184173e-08 0.9999815972070647 2.22378888599644e-09 1.365201058030852e-06
73 2 2.27333 13.896 4.4844 2.4 0.0001254404472062688 3.4924975592063048e-06 0.9998654175434599 2.7715689296522175e-10 5.649234617787236e-06
74 3 2.28634 15.5093 4.4844 -1.2 9.864803618724486e-05 6.279098841924479e-07 0.9998993175111741 4.017225820682502e-13 1.4065423503634605e-06
75 3 -4.34533 12.922 4.4844 -1.2 4.284379433747251e-06 3.361097782910121e-07 0.9999938459351444 3.839455892822865e-11 1.5335372437394798e-06
76 3 2.98455 13.1899 3.18632 -1.2 8.241452877368154e-05 1.319512216705116e-06 0.9999150257215867 5.38291201434969e-12 1.2402320470226491e-06
77 1 1.34779 11.8725 0 1.2 0.0001841598771394763 1.5536760905926375e-06 0.9998140072065973 8.033983578867926e-13 2.7923937373308923e-07
78 3 2.93934 13.1899 5.78248 -1.2 1.3775153846471217e-05 7.246580820818454e-08 0.9999850539434011 7.946844925345468e-11 1.0983574750367226e-06
79 1 -1.50344 11.9138 1.4948 1.2 0.00023042124371659491 1.2142180141301787e-06 0.9997680137646489 1.2739177858911069e-12 3.5077234317380786e-07
80 2 0.326006 9.84894 1.4948 2.4 0.00044787367871833663 7.276273841059239e-06 0.9995447599171758 1.3143032645527125e-13 9.013013776739321e-08
81 3 0.317364 8.23571 1.4948 -1.2 0.00031162364265470947 1.3360770698623633e-05 0.999673927465322 2.0703501039291976e-12 1.0881192558364422e-06
82 3 6.94307 10.823 1.4948 -1.2 0.003939904025886312 4.325478154431252e-05 0.9960138846045737 3.378855325752856e-14 2.9565879631869764e-06
83 3 -0.343122 10.5551 0.196716 -1.2 0.00024031545661792368 5.0319139398981725e-06 0.9997544133159008 1.4262503257747534e-13 2.3931339644553915e-07
84 3 -0.385966 10.5551 2.79288 -1.2 6.734477293212814e-05 1.1840226707555444e-06 0.9999306663392901 1.4680284736671913e-11 8.048504314625004e-07
85 1 6.49448 14.247 0 1.2 0.00038194370043213784 1.0299200667109379e-06 0.9996167584743534 7.581190642909518e-14 2.679050661072712e-07
86 1 3.74457 18.9547 1.4948 1.2 4.5040416011907644e-05 1.8349909896867694e-07 0.9999547278133184 3.31026926858608e-13 4.8271246700388246e-08
87 2 5.55495 16.2705 1.4948 2.4 0.0006811605313731835 8.497092079739192e-06 0.9993103169360522 7.319595228676453e-15 2.5440484655245365e-08
88 3 5.6115 17.8838 1.4948 -1.2 0.007564549542572187 6.304113629354483e-05 0.9923708224818932 2.109668516756293e-15 1.5868392379910132e-06
89 3 1.93416 15.2965 1.4948 -1.2 0.01846281999899808 3.857786987038069e-05 0.9814962802013653 1.7668051502404388e-15 2.321929766720621e-06
90 3 4.85636 15.5644 0.196716 -1.2 0.0055713596264338715 2.3427221300310147e-05 0.9944043608362335 5.403531910079193e-15 8.523160303572967e-07
91 1 6.44662 14.247 2.9896 1.2 0.00019098793608424887 1.333852993811796e-06 0.9998065770076816 5.318660951472261e-12 1.1011979183407908e-06
92 3 4.81537 15.5644 2.79288 -1.2 0.0005476624417933883 6.00724727919629e-06 0.9994449681939233 2.714941924094715e-13 1.3621167306672328e-06
93 1 -0.948271 14.2883 4.4844 1.2 2.0700851767477414e-05 2.1704781665183457e-07 0.9999772389380311 6.02531756936032e-10 1.8425598489823327e-06
94 2 -2.75928 16.9724 4.4844 2.4 0.00010972360750686997 1.7298062248709088e-06 0.9998878837808897 1.763806862677096e-11 6.627877355558074e-07
95 3 -2.81617 15.3592 4.4844 -1.2 2.927126245131471e-05 4.410581968444826e-07 0.9999689659102883 7.819425117340736e-13 1.3217682750777532e-06
96 3 0.862762 17.9465 4.4844 -1.2 3.251850534433916e-05 1.2907981318722215e-06 0.9999652921174144 8.291961047607328e-13 8.985782844301863e-07
97 3 -2.0185 17.6786 3.18632 -1.2 0.00021057671725591704 1.2968479428395082e-06 0.9997876185811571 9.260164867331405e-14 5.078535489909557e-07
98 3 -2.06164 17.6786 5.78248 -1.2 0.0001696692560672399 1.5579243341747298e-07 0.9998284737474248 6.419272050846519e-12 1.701197660751505e-06
99 1 1.39817 16.6215 2.9896 1.2 0.0002501555413165402 1.6136786358341945e-06 0.9997469387869785 2.1841553421766098e-12 1.2919908904975964e-06
100 1 4.20062 16.5802 4.4844 1.2 2.5200351255107394e-05 6.604853147460348e-08 0.9999742264629462 1.8103166135326494e-10 5.069562340034254e-07
101 2 2.37796 18.645 4.4844 2.4 6.515766002649033e-05 5.740624492820371e-07 0.9999341485675132 6.235175708993624e-12 1.1970376923351802e-07
102 3 2.39434 20.2583 4.4844 -1.2 7.20510168508573e-05 1.7697070475288755e-07 0.9999275835501998 2.0350983741174465e-14 1.884622268949024e-07
103 3 -4.24274 17.671 4.4844 -1.2 1.8177312742267514e-05 4.787233533115312e-07 0.9999808780242934 2.327752208284013e-12 4.6593727887397646e-07
104 3 3.08659 17.9389 3.18632 -1.2 8.368746268854647e-05 9.923389399875895e-07 0.9999150009965452 3.0693476189870725e-13 3.1920152343368094e-07
105 1 1.44478 16.6215 0 1.2 0.0006807000854172706 7.273531401674609e-07 0.999318236826595 9.199446541753311e-14 3.3573476051342474e-07
106 3 3.0436 17.9389 5.78248 -1.2 8.782938084142765e-05 4.5365591735381256e-08 0.9999118111477483 3.890919245418372e-12 3.1410192556368574e-07
107 1 -1.40524 16.6628 1.4948 1.2 0.000808012059054891 1.8748105870031842e-06 0.9991895215309086 1.838986468756399e-13 5.915992607155716e-07
108 2 0.420358 14.5979 1.4948 2.4 0.0030238715677194427 1.8936329319763157e-05 0.9969570805914396 5.796497221853208e-14 1.1151145907589501e-07
109 3 0.408732 12.9847 1.4948 -1.2 0.016670168617780645 8.523600520040201e-05 0.9832400170603344 2.348262787496543e-14 4.578316667458821e-06
110 3 7.03923 15.572 1.4948 -1.2 0.020302659144956745 0.0001207555798106717 0.9795711996853349 3.9916400397237704e-15 5.385589899105067e-06
111 3 -0.248332 15.3041 0.196716 -1.2 0.0013028444040149956 1.901662909657792e-05 0.9986776598517545 2.5118417531765424e-14 4.791151075162946e-07
112 3 -0.289436 15.3041 2.79288 -1.2 0.0009567053281192035 9.621022115736424e-06 0.9990310876022559 1.0532043731936499e-12 2.5860464500492393e-06
113 1 6.59566 18.996 0 1.2 0.00021119800049293152 1.55087270178091e-07 0.9997885868160238 6.6265215717821756e-15 6.009620598876432e-08
114 1 3.85574 23.7037 1.4948 1.2 0.001367140566715887 6.423604212907232e-07 0.9986319447044275 1.173718155303861e-13 2.723683134981462e-07
115 2 5.66125 21.0195 1.4948 2.4 0.0013562107332770583 2.728342025385687e-06 0.9986410570929721 1.910029445373172e-15 3.831724307326572e-09
116 3 5.72074 22.6328 1.4948 -1.2 0.028167823968171 5.226271843358598e-05 0.9717787043107383 9.361902945136164e-16 1.2090026498770945e-06
117 3 2.03867 20.0455 1.4948 -1.2 0.018319568424217413 3.1044479952881965e-05 0.9816482494295454 1.7695620512450115e-16 1.1376662875133781e-06
118 3 4.96004 20.3134 0.196716 -1.2 0.004632436675959046 8.632809345515572e-06 0.9953586795377894 7.532921014183642e-16 2.5097691075145343e-07
119 1 6.55057 18.996 2.9896 1.2 7.563506199793693e-05 4.0657294071114117e-07 0.9999237667523269 4.2008330434763015e-13 1.916123095735998e-07
120 3 4.92172 20.3134 2.79288 -1.2 0.00030330672939585127 3.5150578822461443e-06 0.9996927411967219 8.51999117105659e-14 4.370159123477794e-07
121 1 -0.84282 19.0373 4.4844 1.2 1.2262969956399623e-05 6.073073408916122e-08 0.9999874673198035 2.9926742231998287e-11 2.089495734679324e-07
122 2 -2.64823 21.7214 4.4844 2.4 0.0001260821198631197 3.2007207578296606e-07 0.9998735638758245 1.1739765204478415e-12 3.393106559797922e-08
123 3 -2.70847 20.1082 4.4844 -1.2 1.664397830586816e-05 9.796110171096202e-08 0.9999831619847802 4.1267941821277183e-14 9.607577557615681e-08
124 3 0.97581 22.6955 4.4844 -1.2 0.00023471886312588245 1.3060386708986888e-06 0.9997634242561088 2.041050891268009e-13 5.508418969804949e-07
125 3 -1.9076 22.4276 3.18632 -1.2 0.00033129018980369173 6.040132843292572e-07 0.9996679969893474 1.657792842432631e-14 1.0880755526011662e-07
126 3 -1.9475 22.4276 5.78248 -1.2 0.00018402330630048466 4.9561539193361594e-08 0.9998156313658615 4.45126310915918e-13 2.957658593126413e-07
127 1 1.50678 21.3705 2.9896 1.2 0.00026718288920144796 6.014929456208236e-07 0.9997317657621849 3.474618937176926e-13 4.4985532248007027e-07
128 1 4.31086 21.3292 4.4844 1.2 1.1911963059787769e-05 1.3283991281222848e-08 0.9999880374061697 1.7433437690612568e-11 3.732934728763165e-08
129 2 2.49243 23.394 4.4844 2.4 0.0001731406704125093 3.5984696016346764e-07 0.9998264550926695 3.5581413653825265e-12 4.438639528193628e-08
130 3 2.51204 25.0073 4.4844 -1.2 0.000163356890867369 1.6446232155361198e-07 0.9998361625615493 3.1311813855387284e-14 3.1608523564880627e-07
131 3 -4.13026 22.42 4.4844 -1.2 4.5738197679149256e-05 3.9904198282980805e-07 0.9999537324175254 2.5021963098778355e-13 1.3034255517801196e-07
132 3 3.19799 22.6879 3.18632 -1.2 0.0003193374419018809 1.2222202681881688e-06 0.9996792738388506 3.218878688525829e-14 1.664989424875086e-07
133 1 1.5501 21.3705 0 1.2 0.0009091440327384336 3.077701534626592e-07 0.9990903892948988 1.0187077115687259e-14 1.5890219921065207e-07
134 3 3.1583 22.6879 5.78248 -1.2 5.0481953732396816e-05 9.398092276377883e-09 0.9999494331711335 1.109817811797415e-12 7.547592566710122e-08
135 1 -1.29822 21.4118 1.4948 1.2 0.0005007065867732849 4.751444151717197e-07 0.999498690069 1.4897318947135517e-14 1.281998006603036e-07
136 2 0.523568 19.3469 1.4948 2.4 0.0005381218452353576 3.507776613826413e-06 0.9994583677089665 4.3105575614552204e-15 2.6691855849340808e-09
137 3 0.508934 17.7337 1.4948 -1.2 0.0048195380532523365 4.632139250891248e-05 0.9951333441382896 3.2644499760360395e-15 7.964159410925126e-07
138 3 7.14425 20.321 1.4948 -1.2 0.011304020223257626 5.161684785176021e-05 0.9886435043298669 2.312440402382496e-16 8.585990186380889e-07
139 3 -0.145107 20.0531 0.196716 -1.2 0.001188260939433171 7.2720689398347555e-06 0.9988043808405542 1.5259470194230782e-15 8.615106813256031e-08
140 3 -0.183601 20.0531 2.79288 -1.2 0.0007971194738567687 5.1218094807552505e-06 0.9991974322014167 3.56215721070314e-14 3.265152064908336e-07
141 1 6.70502 23.745 0 1.2 0.006619185893483795 1.3080543170117193e-06 0.9933786626397113 5.924636109438054e-15 8.434124788211688e-07
142 1 3.97493 28.4527 1.4948 1.2 0.25777902768631866 1.8405595172011417e-05 0.7421706440612768 1.474277454916864e-12 3.192265576085419e-05
143 2 5.77602 25.7685 1.4948 2.4 0.31876619953608 2.6606127144508747e-05 0.6812070481517156 4.05055027418722e-15 1.461850529359832e-07
144 3 5.83821 27.3818 1.4948 -1.2 0.7813274225784086 7.063128590673037e-05 0.21858918007388747 1.333492745264384e-15 1.2766061789020434e-05
145 3 2.15175 24.7945 1.4948 -1.2 0.7626918953310008 0.00015125641784850995 0.2371458841820529 8.020965401739578e-17 1.0964069104186768e-05
146 3 5.07184 25.0624 0.196716 -1.2 0.40342337332047756 4.67276142918999e-05 0.5965224196408534 2.4858604839761943e-15 7.47942436976929e-06
147 1 6.66374 23.745 2.9896 1.2 0.0006302091812238288 6.122639194413457e-07 0.9993688627977428 9.996321851229945e-14 3.1575702081329595e-07
148 3 5.03707 25.0624 2.79288 -1.2 0.003961651388682462 7.850622649602902e-06 0.9960291182202133 9.858350770182417e-14 1.3797683492404442e-06
149 1 -0.727559 23.7863 4.4844 1.2 5.74569462785422e-05 8.166286521424763e-08 0.9999422795137134 6.74500368772382e-12 1.818703935569047e-07
150 2 -2.5277 26.4704 4.4844 2.4 0.0005896617174027322 2.2531413687148133e-07 0.999410064058516 2.113263006834084e-12 4.890782817968961e-08
151 3 -2.59107 24.8572 4.4844 -1.2 9.04216508031583e-05 1.5076498649970348e-07 0.9999092735426741 2.3190452170131404e-14 1.540415188698744e-07
152 3 1.09817 27.4445 4.4844 -1.2 0.005570137615276607 3.176063156256236e-06 0.994422543317058 7.493442160817622e-13 4.143003753735636e-06
153 3 -1.78784 27.1766 3.18632 -1.2 0.0021707891033531626 6.229490157626719e-07 0.9978282542577878 8.514892080537383e-14 3.3368975368944847e-07
154 3 -1.82343 27.1766 5.78248 -1.2 0.0021521706055599517 7.880113838119002e-08 0.9978471871205905 5.280834953017943e-13 5.634721871500906e-07
155 1 1.62435 26.1195 2.9896 1.2 0.00954673399215995 1.6449184542247263e-06 0.9904494621370531 1.8366602407514323e-13 2.1589521484715712e-06
156 1 4.43064 26.0782 4.4844 1.2 0.00021270821428800564 3.6130327912232344e-08 0.9997871337819005 8.422029448203463e-12 1.218650574610079e-07
157 2 2.61607 28.143 4.4844 2.4 0.002634196221401717 4.5579896822754646e-07 0.9973650361139224 1.2722353830985228e-11 3.1185298676227053e-07
158 3 2.63853 29.7563 4.4844 -1.2 0.0003967531791514559 7.275250049008008e-08 0.9996024821602216 4.384971968353239e-13 6.919076910998853e-07
159 3 -4.00841 27.169 4.4844 -1.2 0.0010381458795340691 8.587172340451879e-07 0.9989601897539514 2.435456380521438e-13 8.056490337476226e-07
160 3 3.3182 27.4369 3.18632 -1.2 0.015567192519872696 3.766469053969612e-06 0.9844263889469481 1.1850456660592615e-13 2.652064004311115e-06
161 1 1.66335 26.1195 0 1.2 0.08234068850932155 9.820954342376928e-06 0.9176402750666873 2.2805811822225707e-14 9.215469622437686e-06
162 3 3.28288 27.4369 5.78248 -1.2 0.00022345853078010875 1.2304420690664113e-08 0.9997764104193285 1.1617427626671113e-12 1.1874430551970056e-07
163 1 -1.18278 26.1608 1.4948 1.2 0.06740707511148336 9.765346381408659e-06 0.93257662457019 5.015039493667577e-14 6.534971901729229e-06
164 2 0.635424 24.0959 1.4948 2.4 0.007092823616272653 3.025849653722745e-06 0.9929041470258273 1.962450174695859e-15 3.508237297583444e-09
165 3 0.617906 22.4827 1.4948 -1.2 0.015855003923433593 3.518362123112002e-05 0.9841092237105471 7.691973380009136e-16 5.887447837976247e-07
166 3 7.25781 25.07 1.4948 -1.2 0.4163262336700854 0.00017294108483786657 0.5834930536792182 2.0649737798671254e-16 7.771565856479626e-06
167 3 -0.0337363 24.8021 0.196716 -1.2 0.06233475654620163 2.657811589478457e-05 0.9376372386679586 1.5903220865325173e-15 1.4266699453961302e-06
168 3 -0.0687235 24.8021 2.79288 -1.2 0.006319850388346999 8.820017039419277e-06 0.9936703665283456 5.868696447831204e-14 9.630662050459643e-07
169 1 6.82195 28.494 0 1.2 0.3807652896357069 3.748164416937337e-05 0.6191227298221179 1.49727041146547e-13 7.449889785365476e-05
170 1 4.10106 33.2017 1.4948 1.2 0.7410509984392694 0.00019467240635537208 0.2580605807001723 1.5235229301108667e-10 0.0006937483018454255
171 2 5.89839 30.5175 1.4948 2.4 0.9942140110190613 8.12102817225605e-06 0.005777043766226966 2.8845980051219866e-15 8.241865381211197e-07
172 3 5.96289 32.1308 1.4948 -1.2 0.9477631084655989 5.5283677475907865e-05 0.05212795521712395 6.093313000741292e-14 5.3652639742116446e-05
173 3 2.27266 29.5435 1.4948 -1.2 0.9860142630463654 8.844078021930561e-05 0.013840650243059027 1.4525496467993556e-15 5.6645930352764396e-05
174 3 5.19102 29.8114 0.196716 -1.2 0.9841501572709722 1.2654072571982926e-05 0.015816306588054215 2.3361972172987743e-15 2.0882068397471922e-05
175 1 6.78546 28.494 2.9896 1.2 0.024704425038089967 3.5730873765647225e-06 0.9752851616825586 1.0099243301384432e-12 6.8401909582393315e-06
176 3 5.16061 29.8114 2.79288 -1.2 0.10355902124803 3.265988190525531e-05 0.8963850855659503 1.4352532736603128e-12 2.3233302682592473e-05
177 1 -0.603205 28.5353 4.4844 1.2 0.0015103383612448606 1.49519854706928e-07 0.9984880858912963 5.418834359764291e-11 1.4261734112126226e-06
178 2 -2.39877 31.2194 4.4844 2.4 0.0065040378203784785 1.1753083602272473e-06 0.9934930111418414 9.872858354718153e-11 1.7756306946226202e-06
179 3 -2.46483 29.6062 4.4844 -1.2 0.00023358993208215395 1.1121725926869235e-07 0.9997658281751582 4.2204651981549316e-13 4.7067508516724283e-07
180 3 1.22864 32.1935 4.4844 -1.2 0.007357792397560675 3.5820736385761284e-06 0.992619829724888 1.705351949625565e-11 1.8795786859121953e-05
181 3 -1.66032 31.9256 3.18632 -1.2 0.015533255585465923 3.1217602685315286e-06 0.9844580272720811 4.603481850509787e-12 5.59537757872846e-06
182 3 -1.69072 31.9256 5.78248 -1.2 0.0009975807229846386 4.777020343110287e-08 0.999001751533179 8.034208176543352e-12 6.199656010308585e-07
183 1 1.7499 30.8685 2.9896 1.2 0.16965160206345323 1.199964307462581e-05 0.830280415411602 7.845710527714516e-12 5.598287401992712e-05
184 1 4.55894 30.8272 4.4844 1.2 0.0027912795780540606 7.598217706554455e-08 0.9972073937599124 9.665861208522856e-11 1.250583198761021e-06
185 2 2.7476 32.892 4.4844 2.4 0.004610938265716133 7.14295464138865e-07 0.9953860843899162 4.231332559991439e-10 2.2626257685249983e-06
186 3 2.77235 34.5053 4.4844 -1.2 0.00014424097781145018 5.402317085567639e-08 0.9998546830625913 1.4237705401651806e-11 1.021922192745319e-06
187 3 -3.87837 31.918 4.4844 -1.2 0.0016499470226494608 9.52405781186227e-07 0.9983447492020581 9.375480776058548e-12 4.351360130798635e-06
188 3 3.44611 32.1859 3.18632 -1.2 0.057705756307707724 9.116893420281616e-06 0.9422641692729208 9.492906809220006e-12 2.0957516458530096e-05
189 1 1.7837 30.8685 0 1.2 0.8372557163214316 7.146720451006336e-05 0.16234113403975756 3.3442624372468726e-13 0.00033168243395969666
190 3 3.41602 32.1859 5.78248 -1.2 0.0002873998855712935 1.594654663601894e-08 0.9997122969422986 2.2636911052311337e-11 2.87202952122416e-07
191 1 -1.05984 30.9098 1.4948 1.2 0.8971599541281224 8.652421229643672e-05 0.10253512400538217 7.716758865284112e-13 0.00021839765343429818
192 2 0.755243 28.8449 1.4948 2.4 0.9421431181761095 7.986845476409821e-06 0.0578487412933415 2.1690298776723575e-15 1.5368507761442338e-07
193 3 0.735127 27.2317 1.4948 -1.2 0.8415923935422629 6.119578785218315e-05 0.15833835948673305 7.609816127944716e-16 8.051183149766025e-06
194 3 7.37914 29.819 1.4948 -1.2 0.9636813269853371 0.00015321144603777997 0.03608961837447413 3.5407886104651707e-15 7.584319414169466e-05
195 3 0.0850649 29.5511 0.196716 -1.2 0.7715115745238549 8.427551424755974e-05 0.22836621785432226 5.5390485764573e-14 3.793210752065162e-05
196 3 0.0543974 29.5511 2.79288 -1.2 0.2214525470727598 5.1737156570764935e-05 0.7784701222386974 7.433393693964622e-13 2.5593531224995755e-05
197 1 6.94543 33.243 0 1.2 0.9204220451421029 4.668544949299433e-05 0.0791428099027655 1.2850189574595353e-12 0.0003884595043484636
198 1 4.23267 37.9507 1.4948 1.2 0.40596082876981926 0.0001540502326279394 0.5932403707894818 2.4662181053628464e-09 0.0006447477418505293
199 2 6.02709 35.2665 1.4948 2.4 0.998144413086364 2.1874426372585317e-05 0.0018250641983629417 1.1766424329188575e-13 8.64828877563642e-06
200 3 6.09339 36.8798 1.4948 -1.2 0.5525010441873905 0.000150686418507364 0.4471475336051769 1.582437171768158e-11 0.00020073577310039022
201 3 2.40018 34.2925 1.4948 -1.2 0.9469798752503911 0.00042247429592307553 0.05187468536155119 1.8145085468084731e-12 0.0007229650903228576
202 3 5.31645 34.5604 0.196716 -1.2 0.9877828984048179 3.20906452967097e-05 0.012013125564878999 2.0878658617689178e-13 0.0001718853847930429
203 1 6.91449 33.243 2.9896 1.2 0.10889524383384323 1.697451950183593e-05 0.8909883201407771 7.905639981025814e-11 9.946142682431533e-05
204 3 5.291 34.5604 2.79288 -1.2 0.04302171377304887 4.4594187080468074e-05 0.9568605091473377 7.506095608875198e-11 7.318281747101368e-05
205 1 -0.471101 33.2843 4.4844 1.2 0.00780398578337417 8.994161077970453e-07 0.9921834842491255 6.874126141292066e-10 1.1629863978976995e-05
206 2 -2.26307 35.9684 4.4844 2.4 0.00042174116645894184 3.62188454882026e-07 0.9995746399426891 4.328717738131298e-09 3.2523736788355497e-06
207 3 -2.33122 34.3552 4.4844 -1.2 0.0002223106744283373 1.1567142263221405e-07 0.9997763832071515 1.1821444363476631e-11 1.1904351754175376e-06
208 3 1.36549 36.9425 4.4844 -1.2 0.00021300813888126924 3.820738345219683e-07 0.9997830615225937 1.254854014688299e-10 3.5481392112319553e-06
209 3 -1.52658 36.6746 3.18632 -1.2 0.004928444880798144 2.731872738581156e-06 0.9950606998213681 1.2068101224058567e-10 8.123304411618175e-06
210 3 -1.55122 36.6746 5.78248 -1.2 0.00010220444749724638 9.813028914840495e-09 0.9998975668525387 7.501126795837121e-11 2.1881191706025605e-07
211 1 1.882 35.6175 2.9896 1.2 0.06421938338254583 1.4426158482695988e-05 0.9356888695721541 3.2046350020861265e-10 7.732056635197055e-05