ITEM: TIMESTEP
8900
ITEM: NUMBER OF ATOMS
10500
ITEM: BOX BOUNDS xy xz yz pp pp pp
0	15.2977	5.09925
0	118.725	0
0	89.688	0
ITEM: ATOMS id type xu yu zu q pCrystal pDisloC pSF pDisloB pDisloA
1 1 6.2404 -6.37941e-06 0 1.2 4.25421807765264e-16 2.8593847407674238e-12 0.9999996286366702 3.713101668829603e-07 5.0304783798179517e-11
2 1 3.46349 4.70768 1.4948 1.2 3.2560398611187215e-10 2.2192047158605605e-08 0.999999895000576 8.224114286272452e-08 2.4063063314318726e-10
3 2 5.2885 2.02354 1.4948 2.4 2.3235921078946307e-13 4.2158747491554813e-10 0.9999999843207946 1.524763192004657e-08 9.759532355841319e-12
4 3 5.33628 3.63678 1.4948 -1.2 3.7749395427115017e-10 2.9669442174808345e-08 0.9999999542056212 8.99495360208132e-09 6.752488847936307e-09
5 3 1.67294 1.04952 1.4948 -1.2 3.44175396772099e-13 2.357056713992454e-09 0.999999721606638 2.750645579815199e-07 9.713972048699217e-10
6 3 4.59532 1.31737 0.196716 -1.2 1.7304573044336905e-14 3.737676829612943e-10 0.9999998416249963 1.5750749904396182e-07 4.937152526399889e-10
7 1 6.18956 -6.37941e-06 2.9896 1.2 4.624925057195762e-16 7.605196838610533e-11 0.999997543037756 2.4559725729462153e-06 9.136147801952929e-10
8 3 4.55118 1.31737 2.79288 -1.2 4.127406289136557e-16 1.4629933993002497e-11 0.9999985119995203 1.487854526492728e-06 1.3132770965102533e-10
9 1 -1.20682 0.0413099 4.4844 1.2 1.1797004850116082e-15 4.9115420549309603e-11 0.9999767579785668 2.324151394656816e-05 4.5836897732716716e-10
10 2 -3.0337 2.72544 4.4844 2.4 7.425883726670005e-12 4.883579858381076e-08 0.9999652923841001 3.46411260542361e-05 1.7646623824717108e-08
11 3 -3.08099 1.11221 4.4844 -1.2 3.608099873423852e-15 2.0025935373579814e-10 0.9999877087880475 1.2290415208185827e-05 5.964843202488143e-10
12 3 0.582463 3.69946 4.4844 -1.2 3.992736876892446e-12 6.518395802908211e-10 0.9999897316120732 1.0257849655487887e-05 9.882432464194835e-09
13 3 -2.29524 3.43162 3.18632 -1.2 9.035195956330951e-11 1.1080883178545497e-08 0.9999996390905407 3.4515154827324996e-07 4.586671116933087e-09
14 3 -2.34216 3.43162 5.78248 -1.2 1.185893569680954e-12 1.1011153807661085e-10 0.9999269263234728 7.306996618765143e-05 3.5990409787070764e-09
15 1 1.12778 2.37449 2.9896 1.2 3.9562550927220437e-13 1.529148435691426e-09 0.999990738136208 9.259723631938942e-06 6.106105805925825e-10
16 1 3.92855 2.33318 4.4844 1.2 6.930293496509884e-15 4.899068303406342e-11 0.9998956418111319 0.0001043574892596638 6.506166527242206e-10
17 2 2.09341 4.39804 4.4844 2.4 1.5250833725574398e-12 6.628955260017321e-09 0.9999831585845494 1.6833988299596376e-05 7.966761909923362e-10
18 3 2.09991 6.01128 4.4844 -1.2 2.389679204016775e-09 1.2338944664836112e-08 0.999999955161699 2.020570526181891e-08 9.903967900257942e-09
19 3 -4.52137 3.42402 4.4844 -1.2 8.147989364205449e-13 7.780634350594621e-10 0.9999786234046729 2.135905344150911e-05 1.6763001523789246e-08
20 3 2.80834 3.69187 3.18632 -1.2 4.699947283974931e-12 1.0699303409251288e-09 0.9999998299126676 1.6854776016638288e-07 4.649420582198134e-10
21 1 1.17857 2.37449 0 1.2 2.1508700637777774e-14 4.017625066156048e-10 0.9999993775540991 6.218354720813772e-07 2.0864776812469187e-10
22 3 2.76143 3.69187 5.78248 -1.2 6.711171887821746e-14 2.970521900511554e-11 0.9999436109342936 5.6385890532601704e-05 3.1454053282547232e-09
23 1 -1.67381 2.41581 1.4948 1.2 1.136594183588935e-10 2.9642175091242824e-08 0.9999977246496905 2.2412964025275257e-06 4.298070185059634e-09
24 2 0.16286 0.350945 1.4948 2.4 3.2991700159690176e-13 2.5053905767419455e-09 0.9999993576781423 6.395342776235721e-07 2.818564351013361e-10
25 3 0.15972 -1.26229 1.4948 -1.2 6.681613937252483e-12 1.793398784424266e-08 0.99999986992824 1.0650681636421494e-07 5.624269889918695e-09
26 3 6.77654 1.32496 1.4948 -1.2 9.757697604213568e-13 3.9020057847686214e-09 0.9999999301372806 6.000645276394115e-08 5.953282459900649e-09
27 3 -0.508028 1.05712 0.196716 -1.2 5.221274786609979e-14 1.5383406215934716e-09 0.999999610139701 3.870522730930517e-07 1.2696274668762405e-09
28 3 -0.552171 1.05712 2.79288 -1.2 1.0015178618277857e-13 5.615027593338949e-10 0.9999964891168204 3.506580483537832e-06 3.7410973935362236e-09
29 1 6.31713 4.74899 0 1.2 1.5827664914515623e-10 3.252095818677452e-08 0.9999999109105357 5.557509295442466e-08 8.351366079626188e-10
30 1 3.54847 9.45668 1.4948 1.2 7.292628996142396e-05 4.363036576267993e-07 0.9999265127813997 2.4431894884650534e-11 1.246005485266609e-07
31 2 5.36879 6.77254 1.4948 2.4 3.971741241464862e-06 6.6306360850859595e-06 0.999989203789199 1.7273957559880265e-10 1.9366073758567675e-07
32 3 5.41937 8.38578 1.4948 -1.2 0.0011255964881025694 7.453139322759192e-05 0.998794782555665 4.2460468096571776e-13 5.0895625759567074e-06
33 3 1.75158 5.79852 1.4948 -1.2 4.473328525040208e-06 8.549153028441953e-06 0.9999865095838104 1.1498338237931538e-10 4.6781965521873163e-07
34 3 4.67421 6.06637 0.196716 -1.2 3.8270281191843604e-08 4.704107013716912e-07 0.9999994845109846 4.823949056219221e-11 6.75979407136455e-09
35 1 6.26654 4.74899 2.9896 1.2 2.6140718356735534e-10 1.5984295326222276e-08 0.9999992685707016 7.077572981437948e-07 7.426300806676156e-09
36 3 4.63043 6.06637 2.79288 -1.2 5.077082376231796e-08 1.757683210600898e-07 0.99999974042972 3.1944986578787424e-09 2.9836638610356194e-08
37 1 -1.12976 4.79031 4.4844 1.2 8.201438310827005e-11 4.771195327452162e-10 0.9999966202795448 3.3783366374977735e-06 8.246859670384003e-10
38 2 -2.9517 7.47444 4.4844 2.4 8.892680362374477e-09 1.411997774119006e-07 0.9999966257481474 5.798888205492471e-07 2.644270573237594e-06
39 3 -3.00198 5.86121 4.4844 -1.2 1.470777825347309e-10 6.046218568983467e-10 0.9999999340129642 6.308181193449429e-08 2.153528270294519e-09
40 3 0.666315 8.44846 4.4844 -1.2 2.668137320284197e-07 2.8045717332738917e-07 0.9999988027181308 4.1292532315206967e-10 6.495980375827977e-07
41 3 -2.21213 8.18062 3.18632 -1.2 4.7156538256466425e-07 7.841526675437788e-08 0.9999993529987524 5.831007800827817e-11 9.696228145571195e-08
42 3 -2.25864 8.18062 5.78248 -1.2 3.092209350364406e-08 4.637854958776018e-09 0.9999995402240449 1.673588279034672e-08 4.07480122246302e-07
43 1 1.20893 7.12349 2.9896 1.2 1.9399885754151415e-07 1.9280823884403676e-07 0.9999995747420252 5.363727307373608e-09 3.30871475013017e-08
44 1 4.00982 7.08218 4.4844 1.2 1.4525940304156461e-08 8.882803485103539e-09 0.9999998705621861 6.845762476561868e-08 3.757145068297197e-08
45 2 2.17861 9.14704 4.4844 2.4 2.0063452726003287e-06 1.118820255654733e-06 0.9999937360907369 6.796898947935797e-09 3.131946833463975e-06
46 3 2.18828 10.7603 4.4844 -1.2 5.777088368921237e-06 7.801776273273313e-08 0.9999938632933979 1.2532626937836222e-11 2.81587934266114e-07
47 3 -4.43805 8.17302 4.4844 -1.2 7.523693088447234e-08 8.213932983045262e-08 0.9999991268727061 8.256408798955108e-10 7.14925391359621e-07
48 3 2.89193 8.44087 3.18632 -1.2 3.988445795554025e-06 2.9115416463037026e-07 0.9999953566431486 1.460904588710115e-10 3.636107999291427e-07
49 1 1.25915 7.12349 0 1.2 2.5086981860427367e-07 4.668449141665156e-07 0.9999992764955922 6.382131479264071e-10 5.151465967636808e-09
50 3 2.84547 8.44087 5.78248 -1.2 1.3857101219314992e-07 2.0471567360963577e-08 0.9999993903956022 1.0563077971889686e-08 4.399987352635935e-07
51 1 -1.59284 7.16481 1.4948 1.2 1.4555878571254818e-06 5.433662268267896e-07 0.9999979623284089 4.4687067187576456e-10 3.827063134492574e-08
52 2 0.240329 5.09994 1.4948 2.4 2.1464974981463003e-09 1.1865001371260481e-07 0.9999998725776545 6.508615517545029e-09 1.172207185933108e-10
53 3 0.234538 3.48671 1.4948 -1.2 2.974375926232745e-11 1.7580240194800865e-08 0.9999999583962174 1.981140336060539e-08 4.182397668907209e-09
54 3 6.85564 6.07396 1.4948 -1.2 8.863399089511182e-07 3.4459831572473395e-06 0.9999950960158963 2.2260277875907193e-10 5.714384388449928e-07
55 3 -0.429565 5.80612 0.196716 -1.2 3.728276446077913e-09 6.353017413618853e-08 0.9999999315038531 2.627736178799851e-10 9.749215569197524e-10
56 3 -0.473377 5.80612 2.79288 -1.2 3.797075081074928e-09 9.721021858133228e-09 0.9999999727788381 1.0009370944314742e-08 3.6936965677412737e-09
57 1 6.40169 9.49799 0 1.2 9.853964342941654e-05 2.683449214044296e-06 0.9998985822273397 1.88549649608326e-12 1.9467812669193677e-07
58 1 3.64209 14.2057 1.4948 1.2 0.0002720417911137019 6.941689928638253e-07 0.9997270259470077 5.710949396175555e-13 2.3809230928815849e-07
59 2 5.45748 11.5215 1.4948 2.4 0.0022167832082155494 1.8759513999709485e-05 0.9977642258836631 5.239252659968096e-14 2.3139406345352633e-07
60 3 5.51101 13.1348 1.4948 -1.2 0.021988465898163095 0.0001280978747715423 0.9778744037873679 1.1345830202276425e-14 9.032439690208966e-06
61 3 1.83851 10.5475 1.4948 -1.2 0.006838381995354002 1.7193551573837493e-05 0.9931420236652792 1.6650825971924513e-14 2.400787781237458e-06
62 3 4.7611 10.8154 0.196716 -1.2 0.000775887777768274 1.2999557986247895e-05 0.9992105370759692 5.019662033580301e-14 5.755882222573431e-07
63 1 6.35203 9.49799 2.9896 1.2 3.4944732730213306e-05 2.049623430673853e-06 0.9999622981460643 1.0036994873209361e-10 7.073974004803771e-07
64 3 4.71833 10.8154 2.79288 -1.2 0.00011084567571470175 1.2710810584907303e-06 0.9998871034313898 4.559077420324907e-12 7.79807278456358e-07
65 1 -1.0438 9.53931 4.4844 1.2 1.3797792619590407e-06 3.771824519791022e-08 0.9999984088567981 4.853635319864424e-09 1.687920615007192e-07
66 2 -2.8604 12.2234 4.4844 2.4 7.329793745879298e-06 7.125959623861964e-07 0.9999904503909486 8.47671393748722e-10 1.506371675733066e-06
67 3 -2.91391 10.6102 4.4844 -1.2 1.0087689203918144e-05 1.8143402057216732e-07 0.9999892174435088 1.291854854444317e-11 5.134203500907624e-07
68 3 0.7596 13.1975 4.4844 -1.2 1.500383534538035e-05 8.232114006085661e-07 0.9999824769951102 4.0941896350790475e-11 1.6959171958387432e-06
69 3 -2.12001 12.9296 3.18632 -1.2 8.872572230628747e-05 7.729034509197223e-07 0.9999100772109086 1.777263587448682e-12 4.2416155606607597e-07
70 3 -2.16532 12.9296 5.78248 -1.2 1.0470349128479409e-05 4.634263980103829e-08 0.9999881917892414 2.97783034818249e-10 1.2912212089388645e-06
71 1 1.29891 11.8725 2.9896 1.2 0.00011765234920991484 9.706386635020411e-07 0.9998807919641624 1.337020043255037e-11 5.850345895561958e-07
72 1 4.10033 11.8312 4.4844 1.2 1.9198711353161835e-05 6.484653286890239e-08 0.9999798456113789 1.466381691174775e-09 8.893643553173221e-07
73 2 2.27333 13.896 4.4844 2.4 6.609597842134826e-05 1.2853859248491725e-06 0.9999309701014271 2.2867243040200584e-10 1.6483055529288015e-06
74 3 2.28634 15.5093 4.4844 -1.2 6.387788090735091e-05 2.7348668892928075e-07 0.9999354425844417 3.9990086628737885e-13 4.0604756031424256e-07
75 3 -4.34533 12.922 4.4844 -1.2 2.7130911814770964e-06 1.0601927462273954e-07 0.999996523407152 5.896997767065521e-11 6.574234201929971e-07
76 3 2.98455 13.1899 3.18632 -1.2 7.609196500587264e-05 7.088248784273099e-07 0.9999227833584349 2.485497731685958e-12 4.1584919611913376e-07
77 1 1.34779 11.8725 0 1.2 0.0004089552125112484 2.4993197771296803e-06 0.9995880609633037 6.313567301392926e-13 4.845037764473892e-07
78 3 2.93934 13.1899 5.78248 -1.2 7.982008872520356e-06 3.8310719478842903e-08 0.9999913012533931 1.9821858379586514e-10 6.782287972594369e-07
79 1 -1.50344 11.9138 1.4948 1.2 0.00026339260982460394 1.1972681833494956e-06 0.9997351029331657 6.869431640291475e-13 3.071881351832498e-07
80 2 0.326006 9.84894 1.4948 2.4 0.00040659331724593977 6.57929148423673e-06 0.9995867493448697 1.0769051767480744e-13 7.8046290179816e-08
81 3 0.317364 8.23571 1.4948 -1.2 0.0004200300160490553 1.5138837220383381e-05 0.9995634400374449 3.1643367157079804e-12 1.391106118307182e-06
82 3 6.94307 10.823 1.4948 -1.2 0.003143552381520662 2.630105105680475e-05 0.9968286625299337 1.4746543426670274e-14 1.4840374775155341e-06
83 3 -0.343122 10.5551 0.196716 -1.2 0.0002541252758256036 5.3707453915064386e-06 0.9997402673645223 6.511291972045328e-14 2.36614197758311e-07
84 3 -0.385966 10.5551 2.79288 -1.2 4.9666977956858176e-05 7.546429868439282e-07 0.9999491724646352 9.528388206227447e-12 4.0590489507707907e-07
85 1 6.49448 14.247 0 1.2 0.001016620213373369 3.013572510801151e-06 0.9989796141788646 7.463449091407031e-14 7.520351779036591e-07
86 1 3.74457 18.9547 1.4948 1.2 5.457525818509326e-05 2.233322330539943e-07 0.9999451578928157 3.378284797602854e-13 4.351643192840129e-08
87 2 5.55495 16.2705 1.4948 2.4 0.0010722543006048775 1.3340948264852394e-05 0.9989143782954901 4.1975776404269255e-15 2.6455632004270794e-08
88 3 5.6115 17.8838 1.4948 -1.2 0.00721723773973646 6.399731948853554e-05 0.992717676964052 1.3273503807697256e-15 1.0879767174586604e-06
89 3 1.93416 15.2965 1.4948 -1.2 0.01793300888550506 3.047863870287674e-05 0.9820352064588902 7.798036298463637e-16 1.3060169073424013e-06
90 3 4.85636 15.5644 0.196716 -1.2 0.007888814088746273 3.987600532721677e-05 0.9920701805420099 3.57431641107742e-15 1.1293639123130556e-06
91 1 6.44662 14.247 2.9896 1.2 0.0002122333813735238 1.1354772792709455e-06 0.9997860681166287 3.721316001818389e-12 5.630209965212128e-07
92 3 4.81537 15.5644 2.79288 -1.2 0.0005388990975378698 4.748277618597135e-06 0.9994556772951144 2.2664771991438835e-13 6.753294978192167e-07
93 1 -0.948271 14.2883 4.4844 1.2 1.8456487859165705e-05 9.532012335341384e-08 0.9999808805175686 7.764991137819763e-10 5.668979473492288e-07
94 2 -2.75928 16.9724 4.4844 2.4 0.00010465748109321283 8.95442579316086e-07 0.9998941427816863 3.626452142958415e-11 3.042583807518516e-07
95 3 -2.81617 15.3592 4.4844 -1.2 4.1144140749857554e-05 3.203953984601645e-07 0.9999578192946673 1.2331467042322472e-12 7.161679547112928e-07
96 3 0.862762 17.9465 4.4844 -1.2 3.897715360621224e-05 9.309008936764867e-07 0.9999593773903498 1.8261488718134345e-12 7.145533223235577e-07
97 3 -2.0185 17.6786 3.18632 -1.2 0.0002226167844432699 9.809648407974453e-07 0.9997762135634682 9.5519074644759e-14 1.8868714693423994e-07
98 3 -2.06164 17.6786 5.78248 -1.2 0.00013486078776183734 1.1666467311915233e-07 0.9998632350782537 2.182601295054724e-11 1.7874474786805104e-06
99 1 1.39817 16.6215 2.9896 1.2 0.00021810509477541726 1.124039556962131e-06 0.9997803038605401 1.3521347826377257e-12 4.6700376838907627e-07
100 1 4.20062 16.5802 4.4844 1.2 2.9267213776823886e-05 5.661847560980371e-08 0.9999703452506153 2.888924407160819e-10 3.306282330108131e-07
101 2 2.37796 18.645 4.4844 2.4 0.0001031384854522142 6.767158851735487e-07 0.9998960428685402 1.0120291503345495e-11 1.4192000107543069e-07
102 3 2.39434 20.2583 4.4844 -1.2 0.00014214694487427358 2.641829882788739e-07 0.9998573048835439 6.119606983962483e-14 2.83988538871457e-07
103 3 -4.24274 17.671 4.4844 -1.2 3.000637776803676e-05 4.6406228789399534e-07 0.9999690937133572 4.297830266334237e-12 4.35842288390331e-07
104 3 3.08659 17.9389 3.18632 -1.2 0.000139744533898838 1.2159270965436724e-06 0.9998587701334881 4.0342837452078404e-13 2.6940511593880774e-07
105 1 1.44478 16.6215 0 1.2 0.0009485684757546348 1.5611317020115211e-06 0.9990494359173017 7.43820312207287e-14 4.34475162720328e-07
106 3 3.0436 17.9389 5.78248 -1.2 5.408913608849496e-05 3.873389224820856e-08 0.9999455096617158 1.3955831236225005e-11 3.624543439856303e-07
107 1 -1.40524 16.6628 1.4948 1.2 0.0007350591311584604 1.9339349996252016e-06 0.999262586763142 1.0409305700054699e-13 4.201705981068824e-07
108 2 0.420358 14.5979 1.4948 2.4 0.0018902828071947254 1.1137968297357757e-05 0.9980985309516093 1.683856754893189e-14 4.8272888276734586e-08
109 3 0.408732 12.9847 1.4948 -1.2 0.011676357797884899 4.578264496977869e-05 0.9882757372462643 8.35279144504391e-15 2.1223108693830723e-06
110 3 7.03923 15.572 1.4948 -1.2 0.01851721360311703 9.258573879365414e-05 0.9813875675782655 1.3710031629021258e-15 2.6330798227618355e-06
111 3 -0.248332 15.3041 0.196716 -1.2 0.003695862418034093 3.117765625936179e-05 0.9962722031886501 9.591183810688593e-15 7.567370435952679e-07
112 3 -0.289436 15.3041 2.79288 -1.2 0.0010407598002005428 6.698384756176865e-06 0.9989510893723654 9.765240941237325e-13 1.4524416957182236e-06
113 1 6.59566 18.996 0 1.2 0.0003940803107760711 5.856033338911879e-07 0.9996051954906888 6.324623571731201e-15 1.38595193483407e-07
114 1 3.85574 23.7037 1.4948 1.2 0.0020623210321492973 1.8168972126652923e-06 0.9979352278710174 3.4315731228061466e-13 6.34199279072768e-07
115 2 5.66125 21.0195 1.4948 2.4 0.004545805369664627 1.0198063475136806e-05 0.995443980910141 3.3742199558207382e-15 1.5656716466173028e-08
116 3 5.72074 22.6328 1.4948 -1.2 0.05378080233947553 0.00013154862146918075 0.9460847250849519 2.444971694778308e-15 2.9239541005337377e-06
117 3 2.03867 20.0455 1.4948 -1.2 0.025959215590944083 4.969285074801954e-05 0.9739898944618017 1.8687458175361928e-16 1.1970965077167174e-06
118 3 4.96004 20.3134 0.196716 -1.2 0.0043541202995153235 1.930156796520787e-05 0.9956262652030036 1.0776878326733476e-15 3.129295148317315e-07
119 1 6.55057 18.996 2.9896 1.2 0.0001842079534849859 5.727541197991675e-07 0.999815021430019 3.697853325625315e-13 1.978619997265762e-07
120 3 4.92172 20.3134 2.79288 -1.2 0.0007296075511988621 5.594217850700745e-06 0.9992642529740329 1.3018438723629628e-13 5.452567888192926e-07
121 1 -0.84282 19.0373 4.4844 1.2 2.0661405587702893e-05 7.334968219543865e-08 0.999978998000422 8.344727717681307e-11 2.6716085948790237e-07
122 2 -2.64823 21.7214 4.4844 2.4 0.00026977751105480775 3.7237835374561993e-07 0.9997297827216794 6.634354691527895e-12 6.738227438886515e-08
123 3 -2.70847 20.1082 4.4844 -1.2 4.646218043969099e-05 1.2570850819284576e-07 0.9999533162305497 9.983208757854311e-14 9.588039704421675e-08
124 3 0.97581 22.6955 4.4844 -1.2 0.00034008525299524786 2.0636733342518575e-06 0.9996564167764568 1.3514681649472258e-12 1.4342958685270544e-06
125 3 -1.9076 22.4276 3.18632 -1.2 0.001243010669714564 1.0846139284206604e-06 0.9987556280973758 4.898568455006075e-14 2.7661892985656565e-07
126 3 -1.9475 22.4276 5.78248 -1.2 0.0005969346419268504 1.2030047113060557e-07 0.9994017332573775 3.6516908173629365e-12 1.2117965720336713e-06
127 1 1.50678 21.3705 2.9896 1.2 0.0005109872107689284 9.955210903577445e-07 0.9994875391960205 4.855041471659363e-13 4.780716380127578e-07
128 1 4.31086 21.3292 4.4844 1.2 3.075493497238658e-05 2.6268051701293316e-08 0.9999691255931318 4.6055136867368256e-11 9.315778485224562e-08
129 2 2.49243 23.394 4.4844 2.4 0.0006133101333128709 1.1807160067141555e-06 0.999385319576456 1.3944115363317456e-11 1.8956028679603483e-07
130 3 2.51204 25.0073 4.4844 -1.2 0.00016287008781573094 2.143416311198308e-07 0.9998364099043612 1.331309674818342e-13 5.05666063794676e-07
131 3 -4.13026 22.42 4.4844 -1.2 0.00014928362229622372 6.67956905374089e-07 0.9998496779281719 9.088340427960807e-13 3.704917145465459e-07
132 3 3.19799 22.6879 3.18632 -1.2 0.0007508929116196323 3.337300570085663e-06 0.9992453627172714 1.0913492717845094e-13 4.070704306189941e-07
133 1 1.5501 21.3705 0 1.2 0.0025588851408288905 1.5461843778142067e-06 0.9974390790870912 2.363076232377367e-14 4.895876739856043e-07
134 3 3.1583 22.6879 5.78248 -1.2 9.800551086261543e-05 1.9160465772877436e-08 0.9999017838832166 5.220310808299195e-12 1.9144023058534586e-07
135 1 -1.29822 21.4118 1.4948 1.2 0.0010577500272434396 1.3870881816872245e-06 0.9989406280661892 1.8672637752762238e-14 2.3481836059427036e-07
136 2 0.523568 19.3469 1.4948 2.4 0.0006653263113618795 5.30780786140736e-06 0.9993293629138709 3.812117164919947e-15 2.9669088891774816e-09
137 3 0.508934 17.7337 1.4948 -1.2 0.0040838805015935556 4.31339218618809e-05 0.9958725685085982 1.699744030828804e-15 4.17067950327019e-07
138 3 7.14425 20.321 1.4948 -1.2 0.025778242498288296 9.201179992298267e-05 0.9741286402426117 1.801840685586762e-16 1.1054591763462529e-06
139 3 -0.145107 20.0531 0.196716 -1.2 0.002413138340402155 2.0924917787269792e-05 0.997565745938096 2.1957882036275608e-15 1.9080370739281917e-07
140 3 -0.183601 20.0531 2.79288 -1.2 0.0013453955408922987 9.682787734916035e-06 0.9986444823588447 5.195597311090921e-14 4.393124725934274e-07
141 1 6.70502 23.745 0 1.2 0.011623632302938348 6.45799708367808e-06 0.9883675402098193 1.7195143745646164e-14 2.3694901398951582e-06
142 1 3.97493 28.4527 1.4948 1.2 0.22703133787488067 3.168037724875882e-05 0.772895108430241 2.324032779638107e-12 4.187331531239682e-05
143 2 5.77602 25.7685 1.4948 2.4 0.5329253842656148 6.646099311659907e-05 0.4670076794748753 1.0226111662076123e-14 4.752663846438778e-07
144 3 5.83821 27.3818 1.4948 -1.2 0.7812189414600169 0.00012344324382227285 0.21863658035076072 2.8973763932745238e-15 2.1034945401883327e-05
145 3 2.15175 24.7945 1.4948 -1.2 0.8268119695413932 0.0002955926563320553 0.17287482463543927 1.7470679995241297e-16 1.7613166838651712e-05
146 3 5.07184 25.0624 0.196716 -1.2 0.542713829502978 0.00011193910265634259 0.4571598952991733 3.87671024160245e-15 1.4336095190504375e-05
147 1 6.66374 23.745 2.9896 1.2 0.002145904424549136 1.7420391072926091e-06 0.997851342952351 3.256139431916697e-13 1.0105836723597615e-06
148 3 5.03707 25.0624 2.79288 -1.2 0.004521012173728081 1.3376703943320634e-05 0.9954633235664198 2.435057059645897e-13 2.287555666094816e-06
149 1 -0.727559 23.7863 4.4844 1.2 9.563503476749201e-05 1.6102523920217374e-07 0.9999036901667687 3.699672653595575e-11 5.137362344134737e-07
150 2 -2.5277 26.4704 4.4844 2.4 0.0005134618118870979 3.060879010754943e-07 0.9994861317397163 1.0605101509902734e-11 1.0034988987725127e-07
151 3 -2.59107 24.8572 4.4844 -1.2 0.00013759615939836774 2.454151332924664e-07 0.9998617910542819 1.0425243027023941e-13 3.673710888378446e-07
152 3 1.09817 27.4445 4.4844 -1.2 0.002914501929596564 3.947443495312715e-06 0.9970729232632881 4.14576992008982e-12 8.62735946987182e-06
153 3 -1.78784 27.1766 3.18632 -1.2 0.0029305981622930522 1.1486381582281517e-06 0.9970674853420424 3.7484744240819885e-13 7.678571248636158e-07
154 3 -1.82343 27.1766 5.78248 -1.2 0.0005448867756724608 6.731716814624382e-08 0.9994545239590779 2.7628996624493906e-12 5.219453212826233e-07
155 1 1.62435 26.1195 2.9896 1.2 0.010139965294487699 2.699875848643591e-06 0.9898538213749032 6.461777458326141e-13 3.513454119338799e-06
156 1 4.43064 26.0782 4.4844 1.2 0.00012648327225230348 3.0802136984781797e-08 0.9998733626496811 2.1704432410207683e-11 1.2325422132336833e-07
157 2 2.61607 28.143 4.4844 2.4 0.001306990317419789 6.912178666965634e-07 0.9986919790058641 3.9567885952820216e-11 3.394192802470005e-07
158 3 2.63853 29.7563 4.4844 -1.2 0.00013189261965573985 9.099341942253792e-08 0.9998673121992383 1.3425792668777218e-12 7.04186339224431e-07
159 3 -4.00841 27.169 4.4844 -1.2 0.0005585912335873907 7.326517280962156e-07 0.9994399532226985 6.257632534546015e-13 7.228913566642498e-07
160 3 3.3182 27.4369 3.18632 -1.2 0.011101850876239928 5.239217539492972e-06 0.9888890663732268 3.371791836910396e-13 3.843532652119907e-06
161 1 1.66335 26.1195 0 1.2 0.18820546371921523 2.8787480303784006e-05 0.8117456379092332 4.1164479883099895e-14 2.0110891208431887e-05
162 3 3.28288 27.4369 5.78248 -1.2 0.00010253608356847469 1.0655308997637353e-08 0.9998973665833134 2.7789685631652723e-12 8.667503652977583e-08
163 1 -1.18278 26.1608 1.4948 1.2 0.10265180019305352 2.38781100379966e-05 0.8973108565487375 1.601112709896747e-13 1.3465148010704849e-05
164 2 0.635424 24.0959 1.4948 2.4 0.015153820559546291 9.374973597024187e-06 0.9848367938624657 5.80539634618946e-15 1.060438143107442e-08
165 3 0.617906 22.4827 1.4948 -1.2 0.028014712053642997 6.197083580009364e-05 0.9719225722827576 1.0717708984426445e-15 7.448277953829958e-07
166 3 7.25781 25.07 1.4948 -1.2 0.5090257144393664 0.0003408687734896385 0.4906186652481058 6.057670948099146e-16 1.4751539043299168e-05
167 3 -0.0337363 24.8021 0.196716 -1.2 0.1326633068091279 9.247080523319901e-05 0.8672400705801223 3.765703130295069e-15 4.1518055131180465e-06
168 3 -0.0687235 24.8021 2.79288 -1.2 0.012606843137276664 3.321817411172465e-05 0.9873558266918661 3.6226718297132683e-13 4.111996379591637e-06
169 1 6.82195 28.494 0 1.2 0.3104883089285627 4.750813724505314e-05 0.6894110265668025 1.6723454775647404e-13 5.315636722434739e-05
170 1 4.10106 33.2017 1.4948 1.2 0.6395685240868443 0.0002071283790983081 0.3595387633099573 1.8343662232518245e-10 0.0006855840406694269
171 2 5.89839 30.5175 1.4948 2.4 0.9874874457060934 1.4427337797017254e-05 0.01249686429631694 7.993357611480902e-15 1.2626597852146431e-06
172 3 5.96289 32.1308 1.4948 -1.2 0.875578608142183 8.619054058195412e-05 0.1242765498363313 1.3338271899953222e-13 5.865148076611995e-05
173 3 2.27266 29.5435 1.4948 -1.2 0.9850189488420129 0.00011112919476818658 0.014805108686879058 1.9264139132610088e-15 6.481327633289169e-05
174 3 5.19102 29.8114 0.196716 -1.2 0.970363961035601 1.999375740107582e-05 0.029591441041711828 4.725529396258559e-15 2.4604165283029552e-05
175 1 6.78546 28.494 2.9896 1.2 0.01905526831858681 4.60156466739572e-06 0.9809317723883305 2.1251607694926426e-12 8.357726293941957e-06
176 3 5.16061 29.8114 2.79288 -1.2 0.044715417978929944 2.2962523672031802e-05 0.9552483775326179 1.744153549038534e-12 1.3241963040804054e-05
177 1 -0.603205 28.5353 4.4844 1.2 0.00045536660560113534 2.8794968674650534e-07 0.9995419288623538 1.4986118432831998e-10 2.41643249052202e-06
178 2 -2.39877 31.2194 4.4844 2.4 0.0008034058837804529 5.48899160997828e-07 0.9991955810909121 9.124818291242044e-11 4.640349021796121e-07
179 3 -2.46483 29.6062 4.4844 -1.2 6.235935990797326e-05 1.2360794527097864e-07 0.9999370374794342 1.6261549362863612e-12 4.795510903801774e-07
180 3 1.22864 32.1935 4.4844 -1.2 0.0018885664516563683 3.615754355060813e-06 0.9980965347736827 2.1675598428101518e-11 1.1282998631204732e-05
181 3 -1.66032 31.9256 3.18632 -1.2 0.006707893791523441 2.2928473241739137e-06 0.9932868521489381 4.802084972395514e-12 2.9612074161130644e-06
182 3 -1.69072 31.9256 5.78248 -1.2 0.0003557041078463687 7.823333920289722e-08 0.999643440865401 2.1618194598861e-11 7.767718023794161e-07
183 1 1.7499 30.8685 2.9896 1.2 0.06173652776099451 8.80108110220557e-06 0.9382237530089187 9.469885647735142e-12 3.091813951722373e-05
184 1 4.55894 30.8272 4.4844 1.2 0.0005239954975283584 4.956302898210323e-08 0.999475464662515 1.4418715857115792e-10 4.901327456079558e-07
185 2 2.7476 32.892 4.4844 2.4 0.0018958192626517773 1.0967696870676903e-06 0.9981018677313964 5.94667225033006e-10 1.21564159942947e-06
186 3 2.77235 34.5053 4.4844 -1.2 5.081204112202525e-05 8.795179826116309e-08 0.9999478223756731 3.086084547303362e-11 1.2776005443974447e-06
187 3 -3.87837 31.918 4.4844 -1.2 0.0003988683055526616 6.241537207080193e-07 0.9995986003858599 9.757987103587521e-12 1.9071451146293697e-06
188 3 3.44611 32.1859 3.18632 -1.2 0.018630482200510966 7.129458484563236e-06 0.9813512186178444 1.07913465743766e-11 1.1169712363381063e-05
189 1 1.7837 30.8685 0 1.2 0.8637869509629275 7.309549589851342e-05 0.13585572566381854 3.438369492034403e-13 0.0002842278770104241
190 3 3.41602 32.1859 5.78248 -1.2 4.500445585742701e-05 1.298319550531546e-08 0.9999548322328417 4.43288416328761e-11 1.502837801853809e-07
191 1 -1.05984 30.9098 1.4948 1.2 0.8272172109040462 0.00011388495314532002 0.17244188039693958 1.4353567286229695e-12 0.00022702374443920456
192 2 0.755243 28.8449 1.4948 2.4 0.9284186622015895 1.2183375472643425e-05 0.07156895220256516 5.4267551165007605e-15 2.022203622046701e-07
193 3 0.735127 27.2317 1.4948 -1.2 0.8376257599158227 0.00010781261163483125 0.16225431705530646 1.906336067870516e-15 1.2110417240089522e-05
194 3 7.37914 29.819 1.4948 -1.2 0.9542812180280735 0.00021237041756307735 0.04541192817086262 5.380279242552173e-15 9.448338348849582e-05
195 3 0.0850649 29.5511 0.196716 -1.2 0.8115923925403715 0.00010077557539923611 0.18826550115397353 6.49759940470975e-14 4.1330730191773785e-05
196 3 0.0543974 29.5511 2.79288 -1.2 0.16591833385127266 8.582302470236246e-05 0.8339580981774545 1.7081049685778224e-12 3.77449448665949e-05
197 1 6.94543 33.243 0 1.2 0.912884544367801 5.758817799471423e-05 0.08669344901248559 1.1468803739642736e-12 0.0003644184405663985
198 1 4.23267 37.9507 1.4948 1.2 0.1967361925759832 0.00010882768298379648 0.8028259576808031 2.470646784891037e-09 0.00032901958958313405
199 2 6.02709 35.2665 1.4948 2.4 0.994865089785361 2.907072264296876e-05 0.005096980677230499 1.6061947117397698e-13 8.858814602798826e-06
200 3 6.09339 36.8798 1.4948 -1.2 0.35738038847011816 0.00011094352459338612 0.6423972735580555 1.5231635442258046e-11 0.00011139443199626895
201 3 2.40018 34.2925 1.4948 -1.2 0.897911433796054 0.0006537500728963803 0.10072385670161697 2.1476866759114313e-12 0.0007109594272783099
202 3 5.31645 34.5604 0.196716 -1.2 0.9850640274438016 2.8069365120158454e-05 0.014780277973510742 1.5756279919590526e-13 0.00012762521741659222
203 1 6.91449 33.243 2.9896 1.2 0.034630141515733605 7.149771484336243e-06 0.9653391797934068 4.525710363442855e-11 2.3528874115840785e-05
204 3 5.291 34.5604 2.79288 -1.2 0.015332903462429222 3.180979990257323e-05 0.9845996031584389 7.349573913420534e-11 3.568350572686628e-05
205 1 -0.471101 33.2843 4.4844 1.2 0.002838514424779738 8.653249764552819e-07 0.9971522767100157 1.5040402307375892e-09 8.342036188804814e-06
206 2 -2.26307 35.9684 4.4844 2.4 0.00019594609827017044 4.079902653529437e-07 0.9998015914990912 4.7100319535938184e-09 2.0497023413887466e-06
207 3 -2.33122 34.3552 4.4844 -1.2 7.456024776647867e-05 1.2260259516409968e-07 0.999924404523205 2.246796141210425e-11 9.126039600778066e-07
208 3 1.36549 36.9425 4.4844 -1.2 7.361064942904215e-05 4.0217687677604647e-07 0.9999230173218336 1.7459270443980433e-10 2.969677271432153e-06
209 3 -1.52658 36.6746 3.18632 -1.2 0.004566323665785957 2.803565576338027e-06 0.9954239646349653 1.1011925718794635e-10 6.908023558829311e-06
210 3 -1.55122 36.6746 5.78248 -1.2 3.384005383234143e-05 7.3240625765573805e-09 0.9999660093160652 1.555429966512083e-10 1.431504979163763e-07
211 1 1.882 35.6175 2.9896 1.2 0.021345737990646606 1.0540531886781212e-05 0.9786040348322744 2.3394627627674263e-10 3.968641125247567e-05