ITEM: TIMESTEP
7100
ITEM: NUMBER OF ATOMS
10500
ITEM: BOX BOUNDS xy xz yz pp pp pp
0	15.2977	5.09925
0	118.725	0
0	89.688	0
ITEM: ATOMS id type xu yu zu q pCrystal pDisloC pSF pDisloB pDisloA
1 1 6.2404 -6.37941e-06 0 1.2 7.504968175933263e-16 3.532857049430941e-12 0.9999996049159349 3.950366851932315e-07 4.384916857403211e-11
2 1 3.46349 4.70768 1.4948 1.2 2.862728860495041e-10 1.7642877586209545e-08 0.9999999464322414 3.536378562588549e-08 2.7482606212984625e-10
3 2 5.2885 2.02354 1.4948 2.4 3.4526700134997066e-13 6.987160175743736e-10 0.9999999779349198 2.1347665639302818e-08 1.8350923324407734e-11
4 3 5.33628 3.63678 1.4948 -1.2 3.899467070893557e-10 3.344648456882572e-08 0.999999950754359 6.854911255912004e-09 8.554304379483727e-09
5 3 1.67294 1.04952 1.4948 -1.2 2.802559785334622e-13 1.4377877133101258e-09 0.999999755266616 2.4244477346254256e-07 8.505361509644258e-10
6 3 4.59532 1.31737 0.196716 -1.2 1.8790876453426385e-14 3.076022216735689e-10 0.9999998869127957 1.1244762582345605e-07 3.319515974530148e-10
7 1 6.18956 -6.37941e-06 2.9896 1.2 8.642310159336253e-16 1.1751290472026148e-10 0.9999959868369311 4.011200844424401e-06 1.8447054373569454e-09
8 3 4.55118 1.31737 2.79288 -1.2 4.396070144446301e-16 1.2097468849558607e-11 0.9999984818711751 1.5179324728958114e-06 1.8425752266839613e-10
9 1 -1.20682 0.0413099 4.4844 1.2 2.3790531423972376e-15 7.749725009446172e-11 0.9999446831983837 5.531579906791749e-05 9.250484799636192e-10
10 2 -3.0337 2.72544 4.4844 2.4 7.716983610486408e-12 7.274875174708884e-08 0.9999677325427905 3.2155965451659624e-05 3.873529204362646e-08
11 3 -3.08099 1.11221 4.4844 -1.2 6.251390952038563e-15 3.200013625168091e-10 0.999985558192994 1.443981436619661e-05 1.6726350306731967e-09
12 3 0.582463 3.69946 4.4844 -1.2 3.795578892613578e-12 5.997321611819189e-10 0.9999934333355639 6.548304008543948e-06 1.7756906708470263e-08
13 3 -2.29524 3.43162 3.18632 -1.2 7.873096318373246e-11 1.1919710328773235e-08 0.9999996902914088 2.909134594923087e-07 6.796692378657715e-09
14 3 -2.34216 3.43162 5.78248 -1.2 2.0152157761375353e-12 2.1100912419150435e-10 0.9999483781658828 5.1615026026590476e-05 6.59506784410311e-09
15 1 1.12778 2.37449 2.9896 1.2 3.705540017388122e-13 1.2991645576111489e-09 0.9999915971957063 8.400456519524604e-06 1.0482437775002961e-09
16 1 3.92855 2.33318 4.4844 1.2 1.1683545431142796e-14 6.082122355255549e-11 0.9999400597716822 5.9939236105089645e-05 9.313815351873718e-10
17 2 2.09341 4.39804 4.4844 2.4 1.6475270496626647e-12 4.463627926172658e-09 0.9999890417561101 1.095288156958889e-05 8.970437187598822e-10
18 3 2.09991 6.01128 4.4844 -1.2 2.3350755144139977e-09 1.1144591248409774e-08 0.9999999479244379 2.221981662540416e-08 1.6376080171679443e-08
19 3 -4.52137 3.42402 4.4844 -1.2 1.1671662364110763e-12 9.60392497041177e-10 0.9999894300968027 1.054178044343068e-05 2.716119665909496e-08
20 3 2.80834 3.69187 3.18632 -1.2 3.4272585052960736e-12 8.299849056266593e-10 0.9999999006589397 9.790286310751866e-08 6.047787932290736e-10
21 1 1.17857 2.37449 0 1.2 1.8273703509494304e-14 2.0049043432140361e-10 0.9999995952786629 4.0438957871953304e-07 1.312478773003647e-10
22 3 2.76143 3.69187 5.78248 -1.2 1.0393416810416097e-13 2.1321290705431173e-11 0.9999665396221246 3.3456207281978284e-05 4.149168829431808e-09
23 1 -1.67381 2.41581 1.4948 1.2 1.0571499494662486e-10 2.6870406953768812e-08 0.9999983895581472 1.5792452792158256e-06 4.220448572038007e-09
24 2 0.16286 0.350945 1.4948 2.4 3.578364153063338e-13 2.0780059364467167e-09 0.999999483546736 5.141373071287293e-07 2.375991828770746e-10
25 3 0.15972 -1.26229 1.4948 -1.2 7.929920600244209e-12 2.0262427855728958e-08 0.9999997377782879 2.3221170747456922e-07 9.739652786848826e-09
26 3 6.77654 1.32496 1.4948 -1.2 1.5242323649025552e-12 5.746815802990593e-09 0.9999999024584886 8.352535895007428e-08 8.267812658129207e-09
27 3 -0.508028 1.05712 0.196716 -1.2 7.377048873461837e-14 1.3531086273823576e-09 0.9999996529012555 3.4430682666019465e-07 1.4387320698527848e-09
28 3 -0.552171 1.05712 2.79288 -1.2 1.7111703092242089e-13 7.552770346193263e-10 0.9999965787246315 3.414019331878482e-06 6.500586960682326e-09
29 1 6.31713 4.74899 0 1.2 3.016705276239652e-10 3.783726232222251e-08 0.9999999231179432 3.7845366674069015e-08 8.977589491068655e-10
30 1 3.54847 9.45668 1.4948 1.2 4.1845135180639384e-05 4.2650189319397277e-07 0.9999575924160592 4.2700860807097065e-11 1.3590416637103219e-07
31 2 5.36879 6.77254 1.4948 2.4 1.9873676466003485e-06 4.874090855543269e-06 0.9999929756438215 1.549267610072225e-10 1.6274275126670178e-07
32 3 5.41937 8.38578 1.4948 -1.2 0.0008831774714807241 6.773881922518211e-05 0.9990444133272136 5.252887603643346e-13 4.670381557925613e-06
33 3 1.75158 5.79852 1.4948 -1.2 3.3962185010292204e-06 7.279396893463322e-06 0.9999889103009573 5.846643777119673e-11 4.14025179142063e-07
34 3 4.67421 6.06637 0.196716 -1.2 3.23644331834363e-08 3.4784374943365643e-07 0.9999996133674395 2.919299012929818e-11 6.39519129249749e-09
35 1 6.26654 4.74899 2.9896 1.2 1.8280783232907173e-10 1.5688560940623892e-08 0.999999583992904 3.8927376418490034e-07 1.086195878587571e-08
36 3 4.63043 6.06637 2.79288 -1.2 2.7495419899212718e-08 1.6924413927419918e-07 0.999999766142891 2.5869355724716844e-09 3.4530607853381906e-08
37 1 -1.12976 4.79031 4.4844 1.2 1.335916676808594e-10 8.356097256976278e-10 0.9999976893624002 2.3075488315592913e-06 2.119571520207343e-09
38 2 -2.9517 7.47444 4.4844 2.4 3.2526171731230166e-09 9.920515367236007e-08 0.9999955473089924 6.004946180155272e-07 3.7497386238015137e-06
39 3 -3.00198 5.86121 4.4844 -1.2 1.2200761613223921e-10 6.811435185670199e-10 0.9999998731953719 1.226798967503335e-07 3.321579322995903e-09
40 3 0.666315 8.44846 4.4844 -1.2 1.5385483132486159e-07 3.0693810041086446e-07 0.9999980350043934 6.935641622108488e-10 1.503509106618313e-06
41 3 -2.21213 8.18062 3.18632 -1.2 6.806629227964841e-07 1.700604025218379e-07 0.9999988665802306 5.567210871201049e-11 2.8264076709234424e-07
42 3 -2.25864 8.18062 5.78248 -1.2 2.9579958074014262e-08 8.252893414432388e-09 0.9999990486298009 2.2797017681055274e-08 8.907403259954768e-07
43 1 1.20893 7.12349 2.9896 1.2 1.8100217032351857e-07 2.5560743128315247e-07 0.9999994960106298 6.6964857810409776e-09 6.068328132587991e-08
44 1 4.00982 7.08218 4.4844 1.2 1.7241531855582493e-08 1.3504966311825144e-08 0.999999841342783 5.742573358531148e-08 7.048498566471094e-08
45 2 2.17861 9.14704 4.4844 2.4 1.4417638389367924e-06 1.4778364719525274e-06 0.9999918205202645 1.3588104148468751e-08 5.246291319447505e-06
46 3 2.18828 10.7603 4.4844 -1.2 5.338136669903878e-06 1.6039027084247048e-07 0.9999933846897556 3.370938458647949e-11 1.1167495969398262e-06
47 3 -4.43805 8.17302 4.4844 -1.2 2.414678771201808e-08 5.72694762163238e-08 0.99999904064922 1.6132743002317544e-09 8.763212472522005e-07
48 3 2.89193 8.44087 3.18632 -1.2 2.6445053820663787e-06 4.1514284144643166e-07 0.9999962496464274 2.8340213522322976e-10 6.904219444835457e-07
49 1 1.25915 7.12349 0 1.2 1.5915977247745513e-07 1.8645539834288778e-07 0.9999996520628011 2.1946554504247609e-10 2.1025560440373643e-09
50 3 2.84547 8.44087 5.78248 -1.2 1.1115539163659246e-07 2.6450765586854063e-08 0.9999990867565791 1.1292717190518075e-08 7.643445437126197e-07
51 1 -1.59284 7.16481 1.4948 1.2 1.03507449851466e-06 5.021177623582972e-07 0.9999984287403388 3.7387509430245924e-10 3.369353002679702e-08
52 2 0.240329 5.09994 1.4948 2.4 1.3357698069696484e-09 9.701373157575172e-08 0.9999998989422403 2.6070115014090974e-09 1.0125318261859137e-10
53 3 0.234538 3.48671 1.4948 -1.2 2.9018156223375987e-11 1.375652515399221e-08 0.9999999717914112 1.0436537194496977e-08 3.986507802609006e-09
54 3 6.85564 6.07396 1.4948 -1.2 4.722120158685606e-07 2.5576427210566997e-06 0.9999965938098855 1.4644203285958135e-10 3.761889371084551e-07
55 3 -0.429565 5.80612 0.196716 -1.2 4.9218743495050125e-09 5.982985285272548e-08 0.9999999342619382 9.845015640644139e-11 8.878875627489493e-10
56 3 -0.473377 5.80612 2.79288 -1.2 2.6133316213586862e-09 1.0511581916421534e-08 0.9999999736303952 8.039197638639952e-09 5.20548925836362e-09
57 1 6.40169 9.49799 0 1.2 4.257804151088666e-05 6.347393285666876e-07 0.9999567189362615 1.0978579186731604e-12 6.828180772547815e-08
58 1 3.64209 14.2057 1.4948 1.2 0.0002810333212678204 6.670598848433893e-07 0.9997179854277561 1.1557169903592135e-12 3.141899414078111e-07
59 2 5.45748 11.5215 1.4948 2.4 0.001373608020944134 9.88366256163544e-06 0.9986163521812491 9.979138817465364e-14 1.5613514785242478e-07
60 3 5.51101 13.1348 1.4948 -1.2 0.016421919722956316 8.975314416093573e-05 0.9834808265872322 1.6182366105174912e-14 7.500545639857774e-06
61 3 1.83851 10.5475 1.4948 -1.2 0.005067529188485041 1.7929304237283357e-05 0.9949116534353224 3.634260105760038e-14 2.8880719180955905e-06
62 3 4.7611 10.8154 0.196716 -1.2 0.0005685339783329479 8.06531851718714e-06 0.9994229889182112 5.5741318545178295e-14 4.117848855646826e-07
63 1 6.35203 9.49799 2.9896 1.2 2.515926612886728e-05 2.04035259680849e-06 0.9999720157982771 1.08293857813094e-10 7.844747062767414e-07
64 3 4.71833 10.8154 2.79288 -1.2 8.973043619499122e-05 2.2951319795808748e-06 0.9999063030087901 7.927380804134487e-12 1.6714151145010807e-06
65 1 -1.0438 9.53931 4.4844 1.2 2.2065144286058075e-06 1.2458123701265357e-07 0.9999968709343604 6.418259031157061e-09 7.915517174702285e-07
66 2 -2.8604 12.2234 4.4844 2.4 3.925206506882886e-06 1.3713567793436384e-06 0.9999919061024369 1.2462538641649952e-09 2.7960880213536975e-06
67 3 -2.91391 10.6102 4.4844 -1.2 6.0457787775683805e-06 3.3560094540114517e-07 0.9999921055872643 1.9824569467152962e-11 1.5130131895901467e-06
68 3 0.7596 13.1975 4.4844 -1.2 1.4158967132254279e-05 1.3358687371778134e-06 0.9999819446041321 5.5561184417092516e-11 2.5605044407420715e-06
69 3 -2.12001 12.9296 3.18632 -1.2 8.837281434372678e-05 2.0639606341205753e-06 0.9999078919011608 4.753319241324996e-12 1.671319113282023e-06
70 3 -2.16532 12.9296 5.78248 -1.2 1.653272366320578e-05 2.026541837644066e-07 0.9999769003224159 3.41878951360976e-10 6.363957857087026e-06
71 1 1.29891 11.8725 2.9896 1.2 0.00011091731310662613 1.8015630327131513e-06 0.9998857860849838 3.578912733461636e-11 1.4950030806215e-06
72 1 4.10033 11.8312 4.4844 1.2 1.4036170481854491e-05 8.169452791422717e-08 0.9999839548801102 3.3904107446650787e-09 1.923864463977096e-06
73 2 2.27333 13.896 4.4844 2.4 9.199299769302503e-05 2.3516639726061563e-06 0.9999001376031267 7.126736990058846e-10 5.517022539779324e-06
74 3 2.28634 15.5093 4.4844 -1.2 9.476369455348382e-05 5.141638377173251e-07 0.9999036649195957 7.916665516780377e-13 1.057221223043532e-06
75 3 -4.34533 12.922 4.4844 -1.2 2.812373253314241e-06 2.845315158007446e-07 0.9999949698798963 9.934007142205875e-11 1.933115998623975e-06
76 3 2.98455 13.1899 3.18632 -1.2 5.86897937825345e-05 9.82462433540259e-07 0.9999392071171482 8.780677265257593e-12 1.1206178502914366e-06
77 1 1.34779 11.8725 0 1.2 0.0004019160945860647 1.4247633910122282e-06 0.9995963113924787 5.418938271593871e-13 3.477490017679574e-07
78 3 2.93934 13.1899 5.78248 -1.2 2.1963764266325227e-05 1.399805170087459e-07 0.999975553500656 2.7079998827134673e-10 2.3424837625556627e-06
79 1 -1.50344 11.9138 1.4948 1.2 0.00024763259862672595 1.24616576329733e-06 0.9997507346489771 1.3341639725308508e-12 3.865853033356158e-07
80 2 0.326006 9.84894 1.4948 2.4 0.0003534855471917292 5.97847671992636e-06 0.9996404577150502 2.210090176449159e-13 7.826081805508107e-08
81 3 0.317364 8.23571 1.4948 -1.2 0.00024774807624503215 1.1199454181385869e-05 0.9997400504530229 2.903395359855281e-12 1.0020136493476115e-06
82 3 6.94307 10.823 1.4948 -1.2 0.003374796682632341 3.517765096055224e-05 0.9965876373891802 3.964793303844611e-14 2.3882771815629353e-06
83 3 -0.343122 10.5551 0.196716 -1.2 0.00024541049724476625 4.127684244957355e-06 0.9997502519893248 1.1428523147832783e-13 2.0982907652072653e-07
84 3 -0.385966 10.5551 2.79288 -1.2 4.602773945191133e-05 1.1450938895880111e-06 0.9999519780961263 2.3305599686753883e-11 8.490472217598818e-07
85 1 6.49448 14.247 0 1.2 0.0008301605887301736 8.472053776422976e-07 0.9991686557076774 3.9033478519468084e-14 3.3649817693505664e-07
86 1 3.74457 18.9547 1.4948 1.2 8.409307418717102e-05 2.0641905118620203e-07 0.9999156567132887 2.148315084848921e-13 4.379325749589913e-08
87 2 5.55495 16.2705 1.4948 2.4 0.0010282396218576945 7.344055718423027e-06 0.9989643984967128 3.2042692119699585e-15 1.7825714539259914e-08
88 3 5.6115 17.8838 1.4948 -1.2 0.009926043362514335 5.6387759686842886e-05 0.9900167206016132 8.229747432930658e-16 8.482761847591323e-07
89 3 1.93416 15.2965 1.4948 -1.2 0.0275621690967716 3.6912162866778544e-05 0.9723988111148442 1.2206140708695383e-15 2.107625516608497e-06
90 3 4.85636 15.5644 0.196716 -1.2 0.006588346756139406 2.1422110093118032e-05 0.9933895523687113 4.564649483985432e-15 6.787650549214691e-07
91 1 6.44662 14.247 2.9896 1.2 0.0001429154234335233 1.2730614219975186e-06 0.9998550522243773 7.192655964944078e-12 7.59283577801901e-07
92 3 4.81537 15.5644 2.79288 -1.2 0.0007820742041496144 8.366605869791946e-06 0.9992080711064223 3.8047756220971243e-13 1.4880831748801544e-06
93 1 -0.948271 14.2883 4.4844 1.2 1.7020483567286233e-05 1.6584248126820386e-07 0.9999815034875107 1.272592723421145e-09 1.3089138518702063e-06
94 2 -2.75928 16.9724 4.4844 2.4 0.00013315185181736773 1.9188545331100733e-06 0.9998641359364014 4.9032774943111626e-11 7.933082183662811e-07
95 3 -2.81617 15.3592 4.4844 -1.2 2.607435234966059e-05 4.6515842471853023e-07 0.9999719226889937 2.38384464713632e-12 1.537797851991245e-06
96 3 0.862762 17.9465 4.4844 -1.2 5.315975805002427e-05 1.4879155341851118e-06 0.9999443563821632 3.1634682445390677e-12 9.959410947676542e-07
97 3 -2.0185 17.6786 3.18632 -1.2 0.00017622226200273588 1.222918093557208e-06 0.999822305687312 1.1697378832827257e-13 2.4913247537804545e-07
98 3 -2.06164 17.6786 5.78248 -1.2 0.00011808269303477476 1.8322776446424552e-07 0.9998799199530983 1.3288613933844573e-11 1.8141128110215016e-06
99 1 1.39817 16.6215 2.9896 1.2 0.0004337011004294484 2.0772910045281233e-06 0.9995630851828017 2.182364943406499e-12 1.1364235822631113e-06
100 1 4.20062 16.5802 4.4844 1.2 2.0102896250205058e-05 7.945336009655156e-08 0.9999791763981981 4.300493780404163e-10 6.408221376247521e-07
101 2 2.37796 18.645 4.4844 2.4 0.00012056163949627131 8.083791510009348e-07 0.9998784741824716 9.46063185071623e-12 1.5578941570316166e-07
102 3 2.39434 20.2583 4.4844 -1.2 0.00016208115669145726 4.2418170723436457e-07 0.9998371317928142 4.6450212863471054e-14 3.628687447894537e-07
103 3 -4.24274 17.671 4.4844 -1.2 1.887166159966954e-05 6.471302001415228e-07 0.999980059583254 4.312640960135345e-12 4.21620631988209e-07
104 3 3.08659 17.9389 3.18632 -1.2 0.00022806235125270765 2.13808219738888e-06 0.9997693808758034 2.697911037260386e-13 4.1869047974803e-07
105 1 1.44478 16.6215 0 1.2 0.0015916785848287152 1.022739453981493e-06 0.998406761953296 6.75784702117344e-14 5.367223566831564e-07
106 3 3.0436 17.9389 5.78248 -1.2 7.189232610849174e-05 4.713457584191459e-08 0.9999275589313931 1.3495911670347551e-11 5.015944312304698e-07
107 1 -1.40524 16.6628 1.4948 1.2 0.0012376660976882797 1.8092221117992652e-06 0.9987600563076052 7.475832593352032e-14 4.6837251720368186e-07
108 2 0.420358 14.5979 1.4948 2.4 0.004674720047547384 2.4073963905331354e-05 0.9953010515152336 3.8632521131694184e-14 1.5447327234160007e-07
109 3 0.408732 12.9847 1.4948 -1.2 0.017585009123001663 8.476462418754436e-05 0.9823255436966905 2.2926932768830673e-14 4.68255610328045e-06
110 3 7.03923 15.572 1.4948 -1.2 0.01711782787824344 6.603252250809963e-05 0.9828140269015522 2.078721217020957e-15 2.1126976930513235e-06
111 3 -0.248332 15.3041 0.196716 -1.2 0.002572419041591656 1.972674332834773e-05 0.9974073318284739 1.4346203922122644e-14 5.223865951779898e-07
112 3 -0.289436 15.3041 2.79288 -1.2 0.0009402987358074634 1.190587470609054e-05 0.9990445316517684 2.1312980930497536e-12 3.263735579880441e-06
113 1 6.59566 18.996 0 1.2 0.0006756743357536578 2.604565980307507e-07 0.9993239579306125 4.4627431851891024e-15 1.0727703296681582e-07
114 1 3.85574 23.7037 1.4948 1.2 0.002070316065565505 1.1055470521667338e-06 0.9979282326812781 1.205340321242899e-13 3.4570597980979443e-07
115 2 5.66125 21.0195 1.4948 2.4 0.0034650945799680685 4.450202818238635e-06 0.9965304497071404 8.333374842004294e-16 5.510065917967225e-09
116 3 5.72074 22.6328 1.4948 -1.2 0.03721986825770248 6.028126461733367e-05 0.9627188675285825 8.386309959086167e-16 9.82949093587259e-07
117 3 2.03867 20.0455 1.4948 -1.2 0.040640656598827755 3.757469457734304e-05 0.9593208000109904 9.955982290128558e-17 9.686955978225672e-07
118 3 4.96004 20.3134 0.196716 -1.2 0.00961045895764959 1.1912105334875256e-05 0.9903773018954386 6.960294425954298e-16 3.270415800518467e-07
119 1 6.55057 18.996 2.9896 1.2 0.00012419255443941497 4.2066492722064175e-07 0.9998752509005246 2.6729806428091125e-13 1.358798417340977e-07
120 3 4.92172 20.3134 2.79288 -1.2 0.0005714970815509741 4.819334307701056e-06 0.9994232912398321 7.62689232958208e-14 3.923442275014521e-07
121 1 -0.84282 19.0373 4.4844 1.2 2.0983533280342823e-05 6.501063704920461e-08 0.9999787590978367 7.21411718842384e-11 1.9228610196298009e-07
122 2 -2.64823 21.7214 4.4844 2.4 0.00016864731007458955 6.010111864845144e-07 0.9998306971986882 4.542381750854886e-12 5.447551200205331e-08
123 3 -2.70847 20.1082 4.4844 -1.2 2.5085069285661482e-05 1.502155548976343e-07 0.9999746788555399 6.804256665385554e-14 8.585954474212349e-08
124 3 0.97581 22.6955 4.4844 -1.2 0.0002800408836231895 2.242908093162446e-06 0.9997167838900578 4.898414317501282e-13 9.323177406722472e-07
125 3 -1.9076 22.4276 3.18632 -1.2 0.0005322535641670297 8.380656287505583e-07 0.9994668097168525 1.8790692228487726e-14 9.865333203073228e-08
126 3 -1.9475 22.4276 5.78248 -1.2 0.00041933188456969684 9.61034533262314e-08 0.9995798927727355 3.2237723131236266e-12 6.79236014110281e-07
127 1 1.50678 21.3705 2.9896 1.2 0.0007533917975797164 1.023949241256131e-06 0.9992451265463208 2.2268824554105043e-13 4.5770662875135484e-07
128 1 4.31086 21.3292 4.4844 1.2 1.923916002389993e-05 2.8099568571570767e-08 0.9999806650556664 3.2712356991225274e-11 6.7652033414252e-08
129 2 2.49243 23.394 4.4844 2.4 0.0006899484087953488 9.560529374463384e-07 0.9993089970080704 3.583151278282973e-12 9.852661280827549e-08
130 3 2.51204 25.0073 4.4844 -1.2 0.00014217604077358347 1.825890240634823e-07 0.999857339589883 8.523733362755523e-14 3.01780232804579e-07
131 3 -4.13026 22.42 4.4844 -1.2 8.683800543528938e-05 8.194616679598049e-07 0.9999121153266375 4.935783656402367e-13 2.2720575906938735e-07
132 3 3.19799 22.6879 3.18632 -1.2 0.0006342664513057708 2.037067166499421e-06 0.9993634961268454 3.303160214425972e-14 2.0035465447117066e-07
133 1 1.5501 21.3705 0 1.2 0.002001501976558518 6.387613607139075e-07 0.997997526983907 1.3966235471240306e-14 3.322781609595341e-07
134 3 3.1583 22.6879 5.78248 -1.2 7.699840559847173e-05 2.1530024804583318e-08 0.999922791908858 4.543714255401091e-12 1.8815097724817695e-07
135 1 -1.29822 21.4118 1.4948 1.2 0.0012345080796304724 9.437403576595795e-07 0.9987643362290365 1.1157559508660968e-14 2.1195096087679803e-07
136 2 0.523568 19.3469 1.4948 2.4 0.0010728791536650348 4.887625642928856e-06 0.9989222301432765 2.307096886133225e-15 3.0774175848473213e-09
137 3 0.508934 17.7337 1.4948 -1.2 0.008284837562746925 5.216532703380998e-05 0.9916623714703756 1.6882273168320418e-15 6.256398444264081e-07
138 3 7.14425 20.321 1.4948 -1.2 0.021163903727467542 5.340474391295542e-05 0.978782069927235 8.764826572822009e-17 6.216013802440006e-07
139 3 -0.145107 20.0531 0.196716 -1.2 0.003007243495342848 1.308484939835616e-05 0.996979508987582 1.529863951101202e-15 1.6266767519846085e-07
140 3 -0.183601 20.0531 2.79288 -1.2 0.002795549935931494 1.1100202475551932e-05 0.9971927395721778 3.916180528853576e-14 6.102893705360158e-07
141 1 6.70502 23.745 0 1.2 0.012037995318252075 2.1071764714266588e-06 0.9879583930621328 1.0471537303810458e-14 1.5044431339565397e-06
142 1 3.97493 28.4527 1.4948 1.2 0.24303101613151756 1.7378317365498243e-05 0.756926558550377 1.2628091590834176e-12 2.504699948095938e-05
143 2 5.77602 25.7685 1.4948 2.4 0.4423916089385389 2.8021416343789107e-05 0.5575801846491885 4.071336424715355e-15 1.8499593022489745e-07
144 3 5.83821 27.3818 1.4948 -1.2 0.7746048693936929 7.515346298553854e-05 0.2253076949088645 1.6469835119352966e-15 1.2282234452367716e-05
145 3 2.15175 24.7945 1.4948 -1.2 0.8312874335398519 0.00017159788740973142 0.16852968591800271 7.520880976939615e-17 1.1282654736296217e-05
146 3 5.07184 25.0624 0.196716 -1.2 0.4034036424849972 4.5617345972685864e-05 0.5965428979241805 2.8978458737036884e-15 7.842244853953687e-06
147 1 6.66374 23.745 2.9896 1.2 0.0016247546034264383 9.374545634286753e-07 0.9983738980370455 1.2980028216372582e-13 4.0990484190385305e-07
148 3 5.03707 25.0624 2.79288 -1.2 0.006610237929218837 9.531366498140688e-06 0.9933787760354429 9.560357707850467e-14 1.4546687436504042e-06
149 1 -0.727559 23.7863 4.4844 1.2 0.00010983675010704958 1.324228715348079e-07 0.9998897242665857 2.5015838601337835e-11 3.0653541677186305e-07
150 2 -2.5277 26.4704 4.4844 2.4 0.0021171911916245045 5.927807611351186e-07 0.9978820732304241 3.78800913767444e-12 1.4279339916715427e-07
151 3 -2.59107 24.8572 4.4844 -1.2 0.00013842188120300716 1.9177304536426094e-07 0.99986119232628 4.286962768601011e-14 1.9401942784924823e-07
152 3 1.09817 27.4445 4.4844 -1.2 0.005491040906031016 4.670462217472767e-06 0.9944982698727304 1.8697144641687136e-12 6.018757153351268e-06
153 3 -1.78784 27.1766 3.18632 -1.2 0.006200270362143673 1.2330531672342065e-06 0.9937978017668939 1.6073166790060331e-13 6.9481762866956e-07
154 3 -1.82343 27.1766 5.78248 -1.2 0.0021517919320309296 1.8246630772798203e-07 0.9978467468510666 4.042606737462145e-12 1.2787465512379734e-06
155 1 1.62435 26.1195 2.9896 1.2 0.01353976188912031 2.2863406804569863e-06 0.986455273487286 2.529811805525084e-13 2.6782826558726948e-06
156 1 4.43064 26.0782 4.4844 1.2 0.00017889592136255753 5.625932814048066e-08 0.9998208682407119 1.2874351544406108e-11 1.7956572173397703e-07
157 2 2.61607 28.143 4.4844 2.4 0.003174115170427753 1.1177868310347628e-06 0.9968242768882012 4.067292503094004e-11 4.901138605966121e-07
158 3 2.63853 29.7563 4.4844 -1.2 0.00027984499530189175 1.2296771213156662e-07 0.9997191044268827 1.0986161380564278e-12 9.276090074560379e-07
159 3 -4.00841 27.169 4.4844 -1.2 0.0012923787419846908 1.3817234834068208e-06 0.998705048740148 5.698881110021009e-13 1.190793821143766e-06
160 3 3.3182 27.4369 3.18632 -1.2 0.020682436447397142 7.566038345180771e-06 0.9793059612548893 1.6314485603091144e-13 4.036259207156341e-06
161 1 1.66335 26.1195 0 1.2 0.11593801736585731 1.2996093702378131e-05 0.8840361236148866 2.7708774783595668e-14 1.2862925522124102e-05
162 3 3.28288 27.4369 5.78248 -1.2 0.00027770320803675657 2.573980380363388e-08 0.9997220625962389 3.4528708219112483e-12 2.084524636889459e-07
163 1 -1.18278 26.1608 1.4948 1.2 0.11013067038190047 1.4470980893520378e-05 0.8898440983705677 8.066630143157439e-14 1.0760266552238693e-05
164 2 0.635424 24.0959 1.4948 2.4 0.013374969505096467 4.637413926386583e-06 0.986620387599839 2.074442592424471e-15 5.4811310056019574e-09
165 3 0.617906 22.4827 1.4948 -1.2 0.028937623370105907 4.692294458123813e-05 0.9710148474077623 6.246689651875177e-16 6.062775564691592e-07
166 3 7.25781 25.07 1.4948 -1.2 0.6333850297807847 0.00019839225798862252 0.3664065052816054 2.162178423426634e-16 1.0072679625569966e-05
167 3 -0.0337363 24.8021 0.196716 -1.2 0.11570985399396419 5.500073231930513e-05 0.884232123078283 2.736318146319743e-15 3.022195432397073e-06
168 3 -0.0687235 24.8021 2.79288 -1.2 0.01634697662437997 2.088016042122748e-05 0.9836303330148968 6.381044744673364e-14 1.810200234994852e-06
169 1 6.82195 28.494 0 1.2 0.30023008058323997 3.212847700342101e-05 0.6996806515662624 2.0192024429796116e-13 5.713937328785933e-05
170 1 4.10106 33.2017 1.4948 1.2 0.7493797230833009 0.00016124461675365995 0.24993308029501762 8.591305865017469e-11 0.0005259519190160244
171 2 5.89839 30.5175 1.4948 2.4 0.988851125471349 9.73771722168384e-06 0.011138471277374494 3.881084847486968e-15 6.655340494225014e-07
172 3 5.96289 32.1308 1.4948 -1.2 0.8974522683913295 6.399749848196236e-05 0.10243822437586657 7.989971930554373e-14 4.5509734248469765e-05
173 3 2.27266 29.5435 1.4948 -1.2 0.9856133647167661 6.589567283727725e-05 0.014282297661752796 1.1576530540956268e-15 3.844194863690615e-05
174 3 5.19102 29.8114 0.196716 -1.2 0.9734344921820404 1.4500380095793453e-05 0.026530582777868145 2.917293506923466e-15 2.0424659986725657e-05
175 1 6.78546 28.494 2.9896 1.2 0.0497396122997163 5.072396113094478e-06 0.9502454160826423 1.8752329398679244e-12 9.899219654191493e-06
176 3 5.16061 29.8114 2.79288 -1.2 0.08891370732892896 2.798615022896533e-05 0.9110430582260548 1.0907486146405808e-12 1.5248293696755618e-05
177 1 -0.603205 28.5353 4.4844 1.2 0.0010682602036808271 2.9509087956380476e-07 0.9989292488788862 1.809175712820039e-10 2.195645636407597e-06
178 2 -2.39877 31.2194 4.4844 2.4 0.003474030678583162 1.2105071224391782e-06 0.9965231117810823 1.453807847550353e-10 1.6468878289640732e-06
179 3 -2.46483 29.6062 4.4844 -1.2 0.0001711659547473222 1.269647215313933e-07 0.9998282617107904 1.505294307773293e-12 4.453682310942162e-07
180 3 1.22864 32.1935 4.4844 -1.2 0.00333313691155248 4.141592070969839e-06 0.9966503348735913 2.2032666344691022e-11 1.238660074954854e-05
181 3 -1.66032 31.9256 3.18632 -1.2 0.013868690739684575 3.579520715498016e-06 0.986123238463556 5.541864228075417e-12 4.491270497437738e-06
182 3 -1.69072 31.9256 5.78248 -1.2 0.0004482519504692299 6.560367352584326e-08 0.9995506360071706 3.776045173627108e-11 1.0464009228421604e-06
183 1 1.7499 30.8685 2.9896 1.2 0.1473833165006508 1.4599715440569105e-05 0.8525548738778618 6.218631872124339e-12 4.720989982603866e-05
184 1 4.55894 30.8272 4.4844 1.2 0.0023671443357899005 1.4523192640131895e-07 0.9976311941597668 1.5641206513268996e-10 1.5161161069314897e-06
185 2 2.7476 32.892 4.4844 2.4 0.005097592144571861 2.3617753769088706e-06 0.9948974862312946 6.021057174295266e-10 2.559246651300338e-06
186 3 2.77235 34.5053 4.4844 -1.2 7.69555177907153e-05 5.974748412453947e-08 0.9999221448927536 2.2074841580015456e-11 8.398198966973318e-07
187 3 -3.87837 31.918 4.4844 -1.2 0.0011652086553272697 1.220642327890495e-06 0.9988294850096039 1.3053014826199616e-11 4.085679686405605e-06
188 3 3.44611 32.1859 3.18632 -1.2 0.03824289032259647 1.0392046659383815e-05 0.9617321668730666 8.860910857566104e-12 1.4550748817089212e-05
189 1 1.7837 30.8685 0 1.2 0.8325243897531149 3.801242668962775e-05 0.1672291191967951 2.213141887578075e-13 0.00020847862317943384
190 3 3.41602 32.1859 5.78248 -1.2 6.387751477437672e-05 1.1957832928279861e-08 0.9999359311876991 5.0596859492604655e-11 1.7928909566887183e-07
191 1 -1.05984 30.9098 1.4948 1.2 0.9047071662329559 6.875203883081196e-05 0.09505594308506093 5.61862631143101e-13 0.00016813864258752455
192 2 0.755243 28.8449 1.4948 2.4 0.9519185211808718 8.147646185005057e-06 0.048073200832663865 1.8484441950521884e-15 1.3034028108876792e-07
193 3 0.735127 27.2317 1.4948 -1.2 0.8684367726879603 6.384530471408659e-05 0.13149033026635934 8.029457178404796e-16 9.051740962702595e-06
194 3 7.37914 29.819 1.4948 -1.2 0.9597663907978937 0.0001519926944920076 0.040014590061416055 4.093595056689833e-15 6.702644619001612e-05
195 3 0.0850649 29.5511 0.196716 -1.2 0.7243492891621675 8.203677170389396e-05 0.2755333058246488 4.8462578591451366e-14 3.5368241438161636e-05
196 3 0.0543974 29.5511 2.79288 -1.2 0.1758346076673828 3.859172536434617e-05 0.8241138425937243 6.183409262435793e-13 1.2958012913950385e-05
197 1 6.94543 33.243 0 1.2 0.8860023027794449 5.192893684749242e-05 0.1136024690504164 1.0668101144924009e-12 0.0003432992322293019
198 1 4.23267 37.9507 1.4948 1.2 0.33863927704153596 0.00012580086850580598 0.6607935851225412 1.2670654126073137e-09 0.0004413357003446763
199 2 6.02709 35.2665 1.4948 2.4 0.9975274716069921 2.1682857456580413e-05 0.0024443696644426373 5.336403775446028e-14 6.475871060646627e-06
200 3 6.09339 36.8798 1.4948 -1.2 0.5246710027304045 0.0001254113006328599 0.47506006164241893 9.469167715338324e-12 0.00014352431707152078
201 3 2.40018 34.2925 1.4948 -1.2 0.8970442336048813 0.00042549461477110864 0.1020247273093621 1.5175175553769898e-12 0.0005055444694726489
202 3 5.31645 34.5604 0.196716 -1.2 0.9770789341958017 3.529324105436756e-05 0.02273877994383909 1.444655713530737e-13 0.00014699261916018794
203 1 6.91449 33.243 2.9896 1.2 0.08314966128369247 1.560448739494113e-05 0.9167694579832671 6.268945101496331e-11 6.527618295807453e-05
204 3 5.291 34.5604 2.79288 -1.2 0.025117333937891343 4.228990589827052e-05 0.9747986952120787 6.292667325558903e-11 4.1680881199713344e-05
205 1 -0.471101 33.2843 4.4844 1.2 0.005350715904661867 1.1222866408236964e-06 0.9946368446759352 1.4816937765971442e-09 1.131565107138637e-05
206 2 -2.26307 35.9684 4.4844 2.4 0.0002251385489994775 3.974181965684588e-07 0.9997724282963066 5.371227111517355e-09 2.0303652654715286e-06
207 3 -2.33122 34.3552 4.4844 -1.2 8.504652866557731e-05 1.0749857145734028e-07 0.9999137860065771 1.8309475282920197e-11 1.0599478694413204e-06
208 3 1.36549 36.9425 4.4844 -1.2 8.54370745529203e-05 2.988669699396336e-07 0.9999121365884425 1.3316869413850576e-10 2.1273368692329054e-06
209 3 -1.52658 36.6746 3.18632 -1.2 0.009604044758248395 4.7380534461325694e-06 0.9903789917318847 8.072930948870289e-11 1.2225375688841236e-05
210 3 -1.55122 36.6746 5.78248 -1.2 2.830141358194048e-05 7.195592453151102e-09 0.9999715369346948 1.455028044223387e-10 1.54310626589297e-07
211 1 1.882 35.6175 2.9896 1.2 0.04067112967844004 1.1062418542995475e-05 0.9592793612902601 1.7197958016956967e-10 3.844644078014841e-05