ITEM: TIMESTEP
1500
ITEM: NUMBER OF ATOMS
10500
ITEM: BOX BOUNDS xy xz yz pp pp pp
0	8.9688	2.9896
0	118.725	0
0	252.977	0
ITEM: ATOMS id type element xu yu zu q Q_1 Q_2 Q_3 Q_4 Q_5 Q_6 Q_7 Q_8 Q_9 Q_10 Q_11 Q_12 Q_13 Q_14 Q_15 Q_16 Q_17 Q_18 Q_19 Q_20 Q_21
1 1 Mg -3.34087 7.01502 57.4757 1.2 1 0.0226187 0.0128771 0.00575782 0.00656455 0.00150065 0.00645003 0.00116869 0.023639 0.00146416 0.00931792 0.00175756 0.0309857 0.00265956 0.0210873 0.00205247 0.0337701 0.00255012 0.0249406 0.00449804 0.0527532
2 1 Mg -1.82655 6.90154 50.0912 1.2 1 0.17437 0.0470166 0.00572048 0.0104363 0.003053 0.0087453 0.00437969 0.0232249 0.00475324 0.014285 0.00488434 0.0263745 0.00465292 0.0211129 0.00645006 0.0295849 0.00553306 0.0251358 0.0093014 0.036028
3 2 Si -0.257935 3.96038 48.0876 2.4 1 0.224507 0.0532575 0.0113439 0.013007 0.00237098 0.00932221 0.00378943 0.0205367 0.00587791 0.0168839 0.00441705 0.0247238 0.00536807 0.0206023 0.0055611 0.026842 0.00688624 0.0243446 0.00919861 0.0331145
4 3 O -0.335812 5.46814 47.6264 -1.2 1 0.231934 0.0527564 0.0131552 0.0139846 0.003014 0.0103934 0.00467816 0.0212386 0.00631542 0.0175004 0.00484218 0.0253082 0.00481982 0.0210928 0.00552351 0.027211 0.00747339 0.0251783 0.0096573 0.0316928
5 3 O -2.03793 3.43377 51.8941 -1.2 1 0.128574 0.0404416 0.00239949 0.00781946 0.00206262 0.00670154 0.002925 0.021279 0.00277025 0.0113593 0.00340387 0.0262711 0.0038793 0.0184535 0.00407486 0.0296349 0.0051657 0.0231836 0.00826955 0.039787
6 3 O -1.54015 3.53929 48.9521 -1.2 1 0.203398 0.0519764 0.00879149 0.0113999 0.00255479 0.00818235 0.00385995 0.0204408 0.0049813 0.0153725 0.00472924 0.0242636 0.00441909 0.0202456 0.00578335 0.0275975 0.00547973 0.0237092 0.0090003 0.0332747
7 1 Mg 1.82954 2.54582 47.1376 1.2 1 0.244808 0.0528351 0.0157446 0.015861 0.00287893 0.0108297 0.00341872 0.0204957 0.00571739 0.0157352 0.00475825 0.0243105 0.0058577 0.019777 0.00701815 0.0252541 0.00643103 0.023212 0.00875942 0.0310217
8 3 O 1.22989 3.66364 48.7877 -1.2 1 0.205015 0.0505598 0.00906986 0.0125242 0.0020863 0.0092339 0.00429738 0.0207229 0.0042176 0.0150149 0.00400494 0.0242494 0.0048775 0.0199454 0.00596441 0.027014 0.00451278 0.0236605 0.00917225 0.0341471
9 1 Mg 1.02634 2.29144 54.6071 1.2 1 0.0695039 0.0282957 0.00538813 0.00607763 0.00140795 0.00496777 0.00293547 0.0222508 0.0026044 0.010008 0.0031116 0.0284085 0.00415056 0.0204923 0.00445932 0.0322599 0.00292177 0.0236578 0.0069955 0.0464932
10 2 Si 1.09419 4.9646 56.4594 2.4 1 0.0332608 0.0179665 0.00684985 0.00668969 0.00126093 0.00646309 0.00216679 0.023195 0.0017593 0.00892899 0.00347712 0.0287861 0.00278691 0.0208829 0.0044955 0.0333745 0.00335995 0.0247743 0.00682429 0.0523122
11 3 O 1.01808 3.41487 56.5496 -1.2 1 0.0347383 0.017761 0.00659685 0.00671275 0.00124925 0.00562366 0.00199923 0.0231241 0.00256599 0.00846527 0.00244284 0.0295224 0.0031688 0.0201497 0.0030431 0.0332559 0.00385326 0.0249337 0.00575928 0.0513929
12 3 O 1.10813 6.07342 52.8172 -1.2 1 0.105869 0.0354116 0.00328837 0.00723845 0.00224953 0.0069771 0.00352913 0.0231831 0.00347481 0.0111036 0.00334262 0.0276181 0.00444792 0.0198259 0.0046448 0.0310886 0.0043025 0.02448 0.00733275 0.0421836
13 3 O -0.219419 5.67449 55.8601 -1.2 1 0.0452809 0.0221587 0.00689461 0.00615703 0.00153951 0.00532632 0.00243365 0.023075 0.00192109 0.00964494 0.00280367 0.0291657 0.00295674 0.020299 0.00415883 0.0334375 0.00314635 0.0248838 0.00642042 0.0500855
14 3 O 2.36523 5.6395 55.7774 -1.2 1 0.0430191 0.0219064 0.00711801 0.00608718 0.00117424 0.0060463 0.00224547 0.0232005 0.0012873 0.00932271 0.00297502 0.02911 0.00308969 0.0206992 0.00440621 0.0340448 0.00302981 0.0250221 0.00666032 0.0500157
15 1 Mg -0.459401 4.67631 52.2426 1.2 1 0.123611 0.0402832 0.00245008 0.0075473 0.00242825 0.00644896 0.00265819 0.021973 0.00321785 0.0120542 0.00305213 0.0273176 0.00416189 0.0197017 0.00450094 0.0300978 0.00417279 0.0233671 0.00755183 0.0394128
16 1 Mg 2.79456 3.9971 49.9987 1.2 1 0.175841 0.0495095 0.00531118 0.0104443 0.00269043 0.00765228 0.00484394 0.0213817 0.00344373 0.0147232 0.0031719 0.0250602 0.0046287 0.0206016 0.00613702 0.0286306 0.00431894 0.0239824 0.00964843 0.0350626
17 2 Si 1.16169 6.59457 51.2556 2.4 1 0.147218 0.0452726 0.00252311 0.00950224 0.00264209 0.00809812 0.00424709 0.0225926 0.00450628 0.0132492 0.00465401 0.0260547 0.00446528 0.0211737 0.00634862 0.0306584 0.00459191 0.0249868 0.00969368 0.038665
18 3 O 1.28989 8.18905 51.2909 -1.2 1 0.148138 0.0447564 0.00292615 0.00964172 0.00270862 0.00895912 0.00434704 0.0231516 0.00446224 0.0133625 0.00393052 0.0277556 0.00450503 0.0219493 0.00465694 0.0310183 0.00567148 0.02579 0.00877231 0.0400512
19 3 O 1.14215 5.6513 57.9737 -1.2 1 0.0172681 0.00970919 0.00452233 0.00711504 0.0015195 0.00654187 0.00109272 0.0237178 0.00119942 0.00853198 0.00245492 0.0302258 0.00257996 0.0209729 0.00269969 0.034166 0.00225302 0.0254634 0.00392703 0.0540117
20 3 O -0.184847 6.06029 50.6845 -1.2 1 0.160649 0.044911 0.00447863 0.00956005 0.00317774 0.00787952 0.00418515 0.0225963 0.0044217 0.0137456 0.00345887 0.0257596 0.00429676 0.0206855 0.0058559 0.0289201 0.00480328 0.0244317 0.00899046 0.0377142
21 1 Mg -3.49704 4.67769 52.6661 1.2 1 0.115196 0.0377908 0.00247992 0.00696972 0.00222597 0.0067783 0.00318526 0.0214982 0.00344968 0.011185 0.00359956 0.0272098 0.00403122 0.0194779 0.00444799 0.0300641 0.00389862 0.0231292 0.00822178 0.0405833
22 3 O 2.48581 5.93312 50.6539 -1.2 1 0.156702 0.0465118 0.00351487 0.00891132 0.00181415 0.00847565 0.00436087 0.02247 0.00416708 0.0138079 0.00419618 0.0256136 0.00462368 0.0212033 0.00594013 0.0299098 0.00406461 0.024771 0.00942931 0.0371439
23 1 Mg -1.89704 4.6664 55.2138 1.2 1 0.0526317 0.0254928 0.00725794 0.00635364 0.00172468 0.00541848 0.00224682 0.0227179 0.00282893 0.00955654 0.00352587 0.0291371 0.00275762 0.0205625 0.00403684 0.0329955 0.0042294 0.0244998 0.00721916 0.0480074
24 2 Si -1.96992 2.63123 53.2917 2.4 1 0.102684 0.0358383 0.00328226 0.00709364 0.0024699 0.00575843 0.00244407 0.0217894 0.00294641 0.0110194 0.00331574 0.0265654 0.00357314 0.0197607 0.00340433 0.0305753 0.00444881 0.0231885 0.00735378 0.0428489
25 3 O -2.00124 1.08585 53.1902 -1.2 1 0.0979266 0.0343539 0.00329139 0.00710319 0.00272933 0.00527195 0.00241296 0.0218155 0.00286313 0.0102587 0.003123 0.0272495 0.00359098 0.0193428 0.00450437 0.0308104 0.003826 0.023135 0.00762328 0.0432567
26 3 O -0.0467762 2.97103 46.8385 -1.2 1 0.251739 0.0535301 0.0164265 0.0153438 0.00293195 0.0096913 0.00379258 0.0200855 0.00650533 0.0169177 0.00596721 0.0240167 0.00692992 0.019335 0.00784384 0.0253767 0.00664315 0.0235205 0.0100498 0.0321549
27 3 O -3.20095 3.26914 54.0862 -1.2 1 0.0800495 0.0304072 0.0043335 0.0057911 0.00198746 0.0053409 0.00197124 0.0222116 0.00279716 0.0105351 0.00273276 0.0269742 0.00301628 0.0199136 0.00360029 0.0314295 0.00353557 0.0233699 0.00721481 0.0448621
28 3 O -0.655957 3.27521 53.9867 -1.2 1 0.0824587 0.0315869 0.0049697 0.00606339 0.00207381 0.00567278 0.00179849 0.0222693 0.00251094 0.0104023 0.00237167 0.0275315 0.00364427 0.0202119 0.00333348 0.0316189 0.00360439 0.0238197 0.00702304 0.0445103
29 1 Mg -3.26541 11.7728 57.4423 1.2 1 0.0228036 0.0126402 0.00531395 0.00653496 0.00127517 0.00615676 0.00147969 0.024279 0.00203116 0.00938084 0.00176592 0.0313452 0.00233845 0.0215199 0.00216724 0.0341024 0.00259661 0.0252469 0.00391381 0.0540635
30 1 Mg -1.75014 11.5838 49.8362 1.2 1 0.183847 0.0479251 0.00724264 0.01254 0.00437178 0.0125981 0.00483415 0.024815 0.00580694 0.0157187 0.00534492 0.029381 0.00452481 0.0243052 0.00687608 0.0330251 0.00675231 0.0284304 0.0101619 0.0390702
31 2 Si -1.18003 9.02138 47.9309 2.4 1 0.238027 0.0518324 0.014905 0.0154056 0.00510439 0.0129631 0.00761491 0.0233703 0.00832056 0.0170603 0.00715475 0.026729 0.00498919 0.0229723 0.00672398 0.0300384 0.00884459 0.027645 0.0122597 0.0347854
32 3 O -1.23224 10.5991 47.9811 -1.2 1 0.228201 0.0527162 0.0130392 0.0155847 0.00519963 0.0140333 0.00645392 0.0245413 0.00813669 0.0172858 0.007047 0.0282053 0.00550599 0.024071 0.00810255 0.0323618 0.00897989 0.0295772 0.011178 0.0355356
33 3 O -1.79016 8.01447 51.8693 -1.2 1 0.132686 0.0403426 0.0024377 0.00912993 0.00334228 0.00746522 0.00284207 0.0229981 0.00377859 0.0123643 0.00384464 0.0280851 0.00423361 0.0208178 0.00461607 0.0315023 0.00540648 0.0246387 0.00901224 0.0408404
34 3 O -2.30986 8.37215 48.8528 -1.2 1 0.203969 0.0521911 0.00885689 0.0126538 0.00403104 0.0103713 0.00611918 0.0237138 0.00629459 0.0169366 0.0050899 0.0269445 0.00432363 0.0230491 0.00574683 0.0308845 0.0067595 0.027155 0.00992528 0.0349109
35 1 Mg 0.154883 7.08234 46.8007 1.2 1 0.257107 0.0527243 0.0175868 0.0162425 0.00556586 0.0133295 0.00847433 0.0238823 0.00787242 0.0176039 0.0072512 0.0254822 0.00687398 0.0218749 0.00820349 0.028741 0.00954184 0.0275963 0.0130425 0.0318546
36 3 O 0.325447 8.50934 48.3809 -1.2 1 0.217119 0.0531829 0.0106788 0.0143418 0.00400341 0.0121065 0.00633598 0.0244753 0.0068722 0.0170048 0.00590175 0.0266762 0.00503925 0.0240367 0.00552814 0.0298472 0.00731618 0.0278603 0.010715 0.0347022
37 1 Mg 1.1526 7.11043 54.6329 1.2 1 0.0683938 0.0285511 0.00534796 0.00608638 0.00195103 0.00593265 0.00242603 0.022969 0.00259326 0.0104111 0.00324248 0.0286712 0.00392299 0.021057 0.00348736 0.0329491 0.00346597 0.024264 0.00685713 0.0469904
38 2 Si 1.23452 9.70477 56.4557 2.4 1 0.0339456 0.0180938 0.00664565 0.00670612 0.00152786 0.00608343 0.00220641 0.0234195 0.00189826 0.00894087 0.00360061 0.0292349 0.00273395 0.0215836 0.00464325 0.033974 0.00340832 0.0248863 0.00657067 0.0535162
39 3 O 1.21155 8.14298 56.552 -1.2 1 0.0319333 0.0169468 0.00650449 0.00654204 0.00121591 0.00635239 0.00150247 0.0233708 0.00285914 0.00827135 0.00233207 0.0297956 0.00328393 0.0203512 0.00255848 0.033713 0.00388234 0.0249276 0.00556209 0.0525311
40 3 O 1.28624 10.7248 52.7351 -1.2 1 0.111209 0.0370124 0.0024519 0.0081076 0.00258595 0.0093031 0.00344149 0.0241316 0.00335886 0.0117581 0.00397031 0.0290489 0.00464377 0.0220645 0.00463257 0.0328935 0.00394438 0.0263073 0.00768307 0.0442957
41 3 O -0.0359217 10.4103 55.8106 -1.2 1 0.0481344 0.0226306 0.00579365 0.0063265 0.00146308 0.00600742 0.00220722 0.023728 0.00181658 0.00963252 0.00274441 0.0294448 0.00302216 0.0215715 0.00374307 0.0344833 0.00318322 0.0253276 0.00618827 0.0511675
42 3 O 2.50463 10.4121 55.7921 -1.2 1 0.0444185 0.0220669 0.00657871 0.00651385 0.00145343 0.00591015 0.00229797 0.0239153 0.00187005 0.00956123 0.00279163 0.0294821 0.00304343 0.0216119 0.00369706 0.0347269 0.00273597 0.0255132 0.00598794 0.0517263
43 1 Mg -0.262694 9.34741 52.2523 1.2 1 0.11375 0.0398748 0.00320204 0.00841504 0.00298688 0.00774085 0.00267149 0.0242083 0.00358508 0.0119533 0.00368602 0.0290215 0.00409787 0.0216087 0.00512163 0.0325066 0.00426051 0.0260384 0.00834306 0.0422225
44 1 Mg 1.87648 9.01537 49.4629 1.2 1 0.184714 0.052318 0.00558712 0.0116759 0.00301612 0.0106493 0.00643564 0.0238948 0.00574329 0.0159669 0.0052968 0.0275862 0.00485094 0.0235754 0.00593159 0.0313433 0.00550187 0.0276254 0.0104548 0.0365328
45 2 Si 1.21415 11.3799 51.2378 2.4 1 0.148031 0.0460391 0.00207379 0.0105777 0.00318385 0.0107042 0.00411217 0.0247666 0.00470296 0.0143638 0.00490803 0.028052 0.00453173 0.0243361 0.00556598 0.0332401 0.00478374 0.028303 0.0094909 0.0420786
46 3 O 1.31634 12.9512 51.3023 -1.2 1 0.146917 0.0441223 0.0027318 0.0103391 0.00272641 0.0114168 0.0036502 0.0250175 0.00487089 0.014538 0.0036168 0.0296546 0.00436198 0.0249665 0.00415273 0.0338579 0.00532688 0.028578 0.00834732 0.0429261
47 3 O 1.20598 10.3708 57.9375 -1.2 1 0.0183445 0.0101153 0.00429433 0.00690149 0.00129481 0.00647824 0.00136847 0.0241171 0.00174548 0.00839887 0.00245839 0.0304722 0.00246705 0.0212917 0.00268856 0.0340498 0.00255445 0.0249119 0.00371348 0.0548158
48 3 O -0.115718 10.7564 50.681 -1.2 1 0.155912 0.0457218 0.00349839 0.011164 0.00390671 0.010466 0.00434991 0.0246232 0.00454791 0.013972 0.00385869 0.0285678 0.0047127 0.0233705 0.00603872 0.0322046 0.00503303 0.0272848 0.00986101 0.0407665
49 1 Mg -3.26386 9.35564 52.3622 1.2 1 0.123582 0.0394994 0.0019491 0.00816443 0.00232304 0.00919092 0.00377793 0.0239299 0.00395067 0.0124809 0.00434431 0.0284975 0.00380935 0.0217994 0.00497062 0.0325042 0.00437948 0.0258605 0.00858229 0.0413146
50 3 O 2.45216 10.7265 50.4558 -1.2 1 0.162767 0.0481681 0.00375501 0.0103095 0.00278806 0.0111967 0.00500149 0.0241255 0.00517985 0.0155964 0.0045529 0.0281851 0.00418755 0.0243329 0.0061568 0.032758 0.00533751 0.027812 0.00954558 0.0399742
51 1 Mg -1.74456 9.44659 55.1908 1.2 1 0.0550301 0.0255782 0.00607518 0.00667039 0.00192827 0.00604959 0.0021582 0.0239025 0.00283721 0.00949184 0.00321897 0.0295529 0.00291347 0.0214959 0.00370432 0.033701 0.00431767 0.0250655 0.00688625 0.0495518
52 2 Si -1.78619 7.38164 53.3794 2.4 1 0.0962622 0.035418 0.00427393 0.00748024 0.00321699 0.00642713 0.00248302 0.0226187 0.00388732 0.0113679 0.00344285 0.0279036 0.00370424 0.021163 0.00358126 0.032045 0.00511837 0.0239064 0.00717629 0.0439271
53 3 O -1.86346 5.8441 53.3488 -1.2 1 0.0960718 0.0328963 0.00344725 0.00653386 0.00263881 0.00635263 0.00207424 0.022049 0.0035879 0.010349 0.00332439 0.0275083 0.0031812 0.0198334 0.00394 0.0317938 0.00382738 0.0236611 0.00762812 0.0433177
54 3 O -1.19417 8.46968 46.4488 -1.2 1 0.269605 0.052989 0.0201913 0.0179123 0.00551492 0.0144762 0.0089264 0.0249627 0.00823713 0.017522 0.00770405 0.0259774 0.00620283 0.0215376 0.00908683 0.0301457 0.0101102 0.0294163 0.012208 0.0315592
55 3 O -3.06899 8.08701 54.0271 -1.2 1 0.0818463 0.0297109 0.00388049 0.00631688 0.00228663 0.00735039 0.00235758 0.0233135 0.00296407 0.0110756 0.00286064 0.0278565 0.00316837 0.0212072 0.00341131 0.0328694 0.00431121 0.0245863 0.00757208 0.0458699
56 3 O -0.511201 8.07189 54.004 -1.2 1 0.0771021 0.0305814 0.00538371 0.00625056 0.00281257 0.00578201 0.00145386 0.0233092 0.00270408 0.0106333 0.00262948 0.0279528 0.0032109 0.0210642 0.00361039 0.0330335 0.00418232 0.0252133 0.00725668 0.0464675
57 1 Mg -3.15708 16.5002 57.3886 1.2 1 0.0220396 0.0126446 0.00542228 0.00703973 0.00139577 0.00573037 0.00158309 0.0251988 0.00187972 0.00945883 0.00184545 0.031498 0.00217129 0.0217076 0.00201182 0.0339562 0.00264832 0.0255666 0.00379606 0.0543113
58 1 Mg -1.6714 16.3544 49.8412 1.2 1 0.180956 0.0489116 0.00674487 0.0133842 0.00360006 0.0147569 0.00386713 0.0269577 0.00530477 0.0176772 0.00470043 0.031838 0.00408073 0.0268669 0.00640473 0.0351875 0.00588064 0.0310096 0.00950634 0.0420359
59 2 Si -1.18567 13.8526 47.9314 2.4 1 0.232607 0.0541251 0.0149478 0.0168825 0.00474587 0.0177845 0.00542884 0.0275294 0.00899804 0.0197489 0.00610526 0.0311422 0.005796 0.0287559 0.00640095 0.0347103 0.00989905 0.0324473 0.011259 0.0386915
60 3 O -1.09664 15.4205 47.9915 -1.2 1 0.231306 0.0531049 0.0145294 0.0173878 0.00504761 0.0190042 0.00502662 0.0279532 0.0083507 0.0199776 0.00635796 0.0314779 0.00576361 0.0282008 0.00795051 0.0357492 0.00892958 0.0334382 0.0108522 0.0395259
61 3 O -1.73493 12.7491 51.7772 -1.2 1 0.13476 0.0411173 0.00237203 0.0103289 0.00330113 0.00988009 0.00187314 0.0252287 0.00419435 0.0136422 0.00306616 0.0299725 0.00460208 0.0239424 0.00458643 0.0334779 0.00532505 0.0273508 0.00829024 0.0441154
62 3 O -2.36115 13.2717 48.8238 -1.2 1 0.206937 0.0535514 0.0099468 0.0145502 0.00463833 0.0142074 0.00520105 0.0270583 0.0069691 0.0192584 0.00520114 0.0306509 0.00468794 0.0271939 0.00579971 0.0347973 0.00796273 0.0313878 0.0102641 0.0387076
63 1 Mg -0.159928 11.7639 46.8533 1.2 1 0.258876 0.0538459 0.0186002 0.0186357 0.00621864 0.0196823 0.00751161 0.0284031 0.00968975 0.0195167 0.00786216 0.0304732 0.0068958 0.0273428 0.00802065 0.0333803 0.0107104 0.0330793 0.0134047 0.0359863
64 3 O 0.2623 13.1866 48.413 -1.2 1 0.214624 0.0531461 0.0111532 0.0154649 0.00428009 0.0159486 0.0048661 0.0271329 0.00742984 0.0186045 0.00487839 0.029842 0.00519951 0.0283692 0.00545257 0.0339663 0.00806441 0.0325887 0.0107239 0.0391189
65 1 Mg 1.27165 11.806 54.5476 1.2 1 0.0739995 0.0303067 0.00435912 0.00660597 0.00204976 0.00695871 0.00292448 0.0239838 0.00266683 0.0111889 0.00253296 0.029865 0.00410734 0.0231341 0.0034794 0.0341919 0.00359887 0.0252524 0.00610161 0.0480761
66 2 Si 1.27324 14.4438 56.436 2.4 1 0.0337413 0.0179964 0.00644371 0.00714781 0.00160186 0.00577524 0.00208937 0.0245421 0.00200494 0.00926034 0.00350961 0.0299089 0.00272916 0.0221547 0.00434618 0.0344417 0.00336218 0.0254746 0.0059078 0.0549854
67 3 O 1.23187 12.9044 56.5236 -1.2 1 0.0307255 0.0162522 0.00602272 0.00696327 0.00154508 0.0056557 0.00177287 0.0243756 0.00318312 0.00847764 0.00201514 0.0304916 0.00301146 0.0213696 0.00266269 0.0343301 0.00365848 0.0254533 0.005011 0.0542828
68 3 O 1.36565 15.4813 52.729 -1.2 1 0.111388 0.0372992 0.00135137 0.00900423 0.00221849 0.0105879 0.00380383 0.0256345 0.00319671 0.0132638 0.00378262 0.0307609 0.00411115 0.0237 0.00464695 0.0338839 0.00388976 0.0280312 0.00726806 0.0466659
69 3 O 0.00568656 15.1237 55.7614 -1.2 1 0.0483936 0.0229329 0.00572535 0.00713014 0.00146406 0.00612876 0.00250494 0.0250777 0.00203359 0.0103327 0.00273446 0.0299974 0.0028731 0.0228097 0.00388649 0.0346956 0.00343916 0.0264625 0.00562607 0.0529696
70 3 O 2.55166 15.1257 55.739 -1.2 1 0.0434571 0.0218695 0.00635709 0.00710683 0.00163413 0.00567464 0.0025451 0.0245279 0.00199588 0.00975465 0.00254868 0.0299713 0.0027674 0.0222735 0.00350472 0.0349531 0.00284363 0.0261521 0.00587735 0.05309
71 1 Mg -0.206989 14.1049 52.2121 1.2 1 0.117782 0.0412091 0.00201563 0.00966296 0.00272604 0.00922677 0.00266824 0.0256325 0.00372114 0.0135572 0.00337108 0.030679 0.00380491 0.0242881 0.00386064 0.0339719 0.00406761 0.0280221 0.00742138 0.0446094
72 1 Mg 1.82591 13.8102 49.4556 1.2 1 0.186314 0.0531971 0.0058623 0.0127897 0.00300995 0.0135747 0.0049916 0.0261762 0.00574362 0.0179095 0.00516181 0.0301229 0.00476013 0.0271211 0.00614412 0.035149 0.00640352 0.0313419 0.010082 0.0396961
73 2 Si 1.29285 16.1518 51.2434 2.4 1 0.147438 0.0467366 0.00201852 0.0114699 0.00285647 0.0122364 0.0041654 0.0263097 0.00466706 0.015936 0.00498492 0.0296253 0.00414239 0.0264352 0.0057284 0.0346336 0.00416021 0.0307677 0.00920982 0.0446451
74 3 O 1.39496 17.7199 51.3047 -1.2 1 0.144417 0.0441047 0.00216363 0.0108142 0.00232847 0.0121185 0.0034867 0.0262529 0.00415463 0.0154464 0.00306519 0.0306638 0.00397262 0.0257047 0.00357707 0.0348002 0.00527077 0.0300189 0.00783387 0.0449044
75 3 O 1.32447 15.1576 57.9128 -1.2 1 0.0175497 0.00981498 0.00418729 0.00726964 0.00129407 0.00574592 0.0015454 0.0251709 0.00156618 0.00846388 0.00263183 0.0308032 0.00229724 0.021668 0.00270006 0.034236 0.00260337 0.0252943 0.0037381 0.0554579
76 3 O -0.0269106 15.5178 50.6688 -1.2 1 0.156235 0.0463691 0.003648 0.0118233 0.00359222 0.0125191 0.00407819 0.026223 0.00445832 0.0156705 0.00320419 0.0301895 0.0043305 0.0264417 0.00562428 0.0342295 0.00434883 0.0301534 0.00871512 0.0435121
77 1 Mg -3.18391 14.1057 52.3125 1.2 1 0.124315 0.0409733 0.00130351 0.00941125 0.00211658 0.0106996 0.00309539 0.0252938 0.00387736 0.0141714 0.00296522 0.0304423 0.00391904 0.0247425 0.00421564 0.0337318 0.00403475 0.0278158 0.00736003 0.0442558
78 3 O 2.52432 15.503 50.4579 -1.2 1 0.161883 0.0491565 0.00419827 0.0112776 0.00264256 0.0130481 0.00448021 0.0262527 0.00498562 0.0176298 0.00380803 0.030164 0.00404558 0.0273019 0.00588136 0.0346681 0.00496166 0.0303274 0.00888864 0.0427106
79 1 Mg -1.70383 14.1729 55.1 1.2 1 0.0561935 0.0262862 0.00563629 0.00737955 0.00167443 0.00620703 0.0021965 0.0247919 0.00314189 0.010231 0.00319556 0.0303574 0.00259087 0.0227313 0.0036687 0.0344615 0.0041415 0.0262234 0.0063022 0.0513662
80 2 Si -1.70737 12.0727 53.2602 2.4 1 0.0988536 0.0365215 0.00357172 0.00854369 0.00275784 0.00759125 0.00185248 0.024765 0.00413156 0.0121562 0.00286847 0.0292264 0.00415966 0.0236298 0.00300577 0.0336719 0.00501143 0.0263159 0.0070308 0.0471234
81 3 O -1.74049 10.5317 53.2252 -1.2 1 0.0974248 0.0343565 0.00379864 0.00736175 0.00280526 0.00774306 0.0017717 0.0237184 0.00336073 0.0108559 0.00310016 0.0286669 0.0037756 0.0215859 0.00410246 0.0334213 0.00428252 0.0254245 0.00846095 0.0459659
82 3 O -1.21337 13.3381 46.4311 -1.2 1 0.270175 0.0533889 0.0208601 0.0203471 0.00681719 0.0205388 0.00737453 0.0303897 0.00978928 0.0208473 0.00718803 0.0315897 0.00620479 0.0270635 0.00860642 0.0357179 0.0124324 0.0352398 0.0132688 0.0361326
83 3 O -3.00595 12.7743 53.9478 -1.2 1 0.084802 0.0321831 0.00331569 0.00700102 0.00191846 0.00820023 0.00220569 0.0248125 0.00310557 0.011723 0.00241805 0.0293745 0.00350619 0.0231721 0.00311655 0.0341479 0.00394503 0.0263341 0.00643226 0.0483274
84 3 O -0.408768 12.7519 53.897 -1.2 1 0.0815859 0.0319317 0.00399545 0.0071695 0.00268152 0.00620529 0.00157576 0.0248891 0.00292154 0.011396 0.00230305 0.0294926 0.00348578 0.023563 0.00335428 0.0342894 0.00391341 0.0264306 0.00645576 0.048309
85 1 Mg -3.04809 21.2808 57.4229 1.2 1 0.0216072 0.0126106 0.00565413 0.00710611 0.00145152 0.00537848 0.00147739 0.0252869 0.00200234 0.00942346 0.00182689 0.0314246 0.00207837 0.0217753 0.0021316 0.0342114 0.00273901 0.0255806 0.00367097 0.0543688
86 1 Mg -1.5831 21.1217 49.8405 1.2 1 0.181065 0.0490701 0.00644693 0.0138946 0.00305761 0.0151899 0.00372539 0.02755 0.00501783 0.0179949 0.00473574 0.03191 0.00401944 0.0269082 0.00627165 0.0356995 0.00574448 0.0314827 0.00950032 0.0421133
87 2 Si -1.09384 18.6291 47.9287 2.4 1 0.233057 0.0550061 0.0143136 0.018065 0.00386741 0.020183 0.00466046 0.0290272 0.00814404 0.020724 0.00573154 0.0326434 0.00621571 0.0294524 0.00634677 0.0362799 0.00953877 0.0341333 0.0110385 0.0411038
88 3 O -1.02071 20.1985 47.9911 -1.2 1 0.230327 0.0536859 0.0139079 0.0181022 0.00424589 0.0203126 0.00473624 0.0287871 0.00760228 0.0205255 0.00606894 0.0323024 0.00590342 0.0285353 0.00774413 0.0366163 0.00837868 0.0342547 0.010657 0.0409637
89 3 O -1.65002 17.5002 51.771 -1.2 1 0.13474 0.0417117 0.00181952 0.0110964 0.00285231 0.0111481 0.00219584 0.0260724 0.00354044 0.0145779 0.00286655 0.0306083 0.00421851 0.0247845 0.00431855 0.0345528 0.00508667 0.0287199 0.00780523 0.0452846
90 3 O -2.26174 18.0434 48.8281 -1.2 1 0.205192 0.0540285 0.00935689 0.0154941 0.00371014 0.0167783 0.00458459 0.0284571 0.00623565 0.0201725 0.00446789 0.0320195 0.00439436 0.0284306 0.00603719 0.0362848 0.00729904 0.033349 0.00965188 0.0409498
91 1 Mg -0.0440435 16.5651 46.8269 1.2 1 0.25826 0.0551573 0.018428 0.0202096 0.005216 0.0239918 0.00579816 0.0316147 0.00987094 0.0223547 0.00674632 0.033796 0.00718788 0.0298095 0.0086358 0.0360708 0.0100925 0.0365203 0.0124877 0.0400395
92 3 O 0.37001 17.9877 48.3925 -1.2 1 0.213223 0.0538407 0.0104436 0.0163734 0.00374661 0.0176826 0.00380443 0.0286479 0.00651831 0.0200747 0.00399111 0.0316776 0.00510357 0.0294743 0.00573679 0.0356226 0.00762965 0.0346763 0.0101519 0.0417945
93 1 Mg 1.36742 16.5501 54.5768 1.2 1 0.0714171 0.0295281 0.0044255 0.00724326 0.00158529 0.00720721 0.00334903 0.024709 0.00244878 0.0117143 0.00245416 0.0305885 0.00378337 0.0238325 0.0038094 0.0348362 0.00361429 0.0264159 0.00572349 0.049872
94 2 Si 1.40991 19.2213 56.3946 2.4 1 0.0343892 0.0185323 0.00655092 0.00742098 0.00160774 0.0055105 0.00203836 0.0248407 0.00215652 0.00952725 0.00356988 0.0296246 0.00254458 0.0223841 0.00446144 0.0344716 0.00332448 0.0256534 0.00598852 0.054832
95 3 O 1.36617 17.6763 56.4767 -1.2 1 0.0309874 0.0169404 0.00653809 0.00735263 0.00170706 0.00523628 0.00188145 0.025017 0.00313891 0.00873294 0.00206926 0.0303799 0.00354782 0.0217245 0.00262942 0.0343082 0.00438416 0.025713 0.00508006 0.05458
96 3 O 1.45147 20.239 52.7294 -1.2 1 0.109793 0.0372681 0.00191965 0.0090946 0.00184234 0.0106142 0.00362519 0.0260995 0.00296058 0.01338 0.00360063 0.0306182 0.00397737 0.0237992 0.00434656 0.0342782 0.00395891 0.0283194 0.00700515 0.0469806
97 3 O 0.118316 19.889 55.7661 -1.2 1 0.0466595 0.0227498 0.00607105 0.00718062 0.00157213 0.00576599 0.00251174 0.0252215 0.00198067 0.0100353 0.00270354 0.029775 0.00263128 0.0224409 0.00378131 0.0349289 0.00345106 0.0266859 0.00563725 0.0528507
98 3 O 2.69074 19.8894 55.7397 -1.2 1 0.0426209 0.0221122 0.0068955 0.00724064 0.00183602 0.00551018 0.00270876 0.0252207 0.00202961 0.0098407 0.00283962 0.0296221 0.00268434 0.0223876 0.0038072 0.0351887 0.00304816 0.0265147 0.00607931 0.0532917
99 1 Mg -0.126194 18.8651 52.2079 1.2 1 0.115409 0.0410918 0.00260934 0.00999656 0.00224726 0.00934625 0.00261508 0.0260236 0.00302631 0.0142455 0.00310529 0.0309046 0.00364644 0.0246415 0.0042047 0.0346809 0.00390606 0.0289121 0.00745682 0.0457451
100 1 Mg 1.92402 18.5815 49.4545 1.2 1 0.183482 0.0537271 0.00518939 0.0131853 0.0022763 0.0145572 0.00459664 0.027305 0.00514618 0.0189896 0.00423907 0.0314283 0.00450073 0.0280273 0.00500781 0.0362832 0.00624258 0.0327087 0.00959094 0.0419683
101 2 Si 1.38106 20.9117 51.2443 2.4 1 0.147107 0.0470521 0.00170036 0.0118087 0.00257172 0.0124799 0.00413686 0.0265801 0.0041526 0.0162077 0.00478746 0.0297642 0.00412563 0.0262731 0.00585494 0.0349043 0.00386759 0.0309253 0.00930949 0.0448479
102 3 O 1.48527 22.4795 51.3054 -1.2 1 0.143128 0.0436321 0.00203066 0.0107325 0.00233686 0.0120293 0.00367822 0.0260773 0.00404332 0.01521 0.00300586 0.0306005 0.00411323 0.025301 0.00396643 0.0348721 0.00540783 0.0299412 0.00777021 0.0447379
103 3 O 1.44002 19.9054 57.9019 -1.2 1 0.0171779 0.00999585 0.0044468 0.00745066 0.00130698 0.00539691 0.0015275 0.0255681 0.00174576 0.00857474 0.00252669 0.0307997 0.00225724 0.0216381 0.00269964 0.0342974 0.00270849 0.0254764 0.00378516 0.0554386
104 3 O 0.0615419 20.2804 50.6669 -1.2 1 0.155097 0.0466046 0.00336138 0.0122549 0.00334765 0.0129209 0.00412015 0.0267203 0.0039831 0.0161233 0.00315727 0.0305388 0.00430627 0.0266596 0.00518533 0.0348286 0.00415973 0.030765 0.00859521 0.0441373
105 1 Mg -3.09665 18.8643 52.3122 1.2 1 0.123207 0.0410002 0.00137849 0.0099055 0.00158532 0.0109796 0.00304148 0.0259049 0.00308264 0.0148447 0.00286236 0.0307071 0.00353884 0.0251334 0.00369762 0.0345008 0.00412883 0.0287053 0.00710616 0.0451239
106 3 O 2.61548 20.2646 50.4626 -1.2 1 0.159761 0.0490208 0.00339951 0.0116945 0.00198848 0.0134613 0.0042581 0.0270603 0.00404623 0.0177516 0.0035663 0.0304142 0.00409044 0.0271054 0.00510477 0.035294 0.00466499 0.0307966 0.00846878 0.0434746
107 1 Mg -1.59827 18.9509 55.0926 1.2 1 0.0555004 0.0265307 0.00628678 0.00780433 0.00186102 0.00597927 0.00207313 0.0253633 0.0027699 0.0107862 0.00327801 0.0301031 0.00249886 0.0229714 0.00384466 0.0345871 0.0042477 0.0266136 0.00638352 0.0517202
108 2 Si -1.6274 16.8175 53.2587 2.4 1 0.0974665 0.0364685 0.00325934 0.0091694 0.00231434 0.00771493 0.00179844 0.0252632 0.00345293 0.0127935 0.00281053 0.0298134 0.00344298 0.0245519 0.0030145 0.0345105 0.0046416 0.0275912 0.00668117 0.0485915
109 3 O -1.68122 15.2543 53.1913 -1.2 1 0.0967897 0.0351734 0.00316039 0.00849258 0.00222979 0.00800497 0.00203586 0.0248964 0.00360989 0.012024 0.00290467 0.0300919 0.00328764 0.0235394 0.00414443 0.0343784 0.00383089 0.0270307 0.00755985 0.0483265
110 3 O -1.12868 18.1227 46.4249 -1.2 1 0.267531 0.0552418 0.0201154 0.0213841 0.00561141 0.0238085 0.00620193 0.032429 0.00852681 0.022132 0.00590523 0.034081 0.00681425 0.0278856 0.00863314 0.0377775 0.0117049 0.0374897 0.0124325 0.0398369
111 3 O -2.9078 17.5029 53.9542 -1.2 1 0.0822398 0.0316786 0.00359951 0.00757396 0.00150497 0.00808698 0.00207066 0.0252683 0.00247626 0.0121986 0.00216327 0.0297469 0.00304566 0.0241238 0.00295942 0.0345986 0.00376507 0.0268777 0.00610536 0.0493416
112 3 O -0.339481 17.4753 53.9023 -1.2 1 0.0791123 0.0321436 0.00473482 0.00786737 0.00236887 0.00626123 0.00141621 0.0253366 0.0028025 0.0115575 0.00248809 0.0296418 0.00292037 0.0240693 0.00361536 0.0348579 0.00390235 0.027542 0.00683849 0.0492959
113 1 Mg -2.93877 26.0113 57.3855 1.2 1 0.0212954 0.0123858 0.00575189 0.0071618 0.00151856 0.00532768 0.0014764 0.0250509 0.00197535 0.00927281 0.00188027 0.0312817 0.00216713 0.0216426 0.0021257 0.0342756 0.00270666 0.0254574 0.00392739 0.054376
114 1 Mg -1.48778 25.88 49.8402 1.2 1 0.181151 0.0488293 0.00625583 0.0137715 0.00312901 0.0152541 0.00372537 0.0276616 0.00486073 0.0178951 0.00475583 0.0319369 0.00385653 0.026663 0.00639299 0.0357768 0.00575247 0.0313612 0.00960519 0.0421881
115 2 Si -1.00491 23.3922 47.9274 2.4 1 0.232289 0.0542769 0.0140793 0.0185051 0.00411887 0.0208023 0.00465936 0.02914 0.0078824 0.0206257 0.00543925 0.032465 0.00575741 0.028877 0.006396 0.0362989 0.00900724 0.0340916 0.0110727 0.0410171
116 3 O -0.927602 24.9615 47.9909 -1.2 1 0.230301 0.0534954 0.0138453 0.0181435 0.00420575 0.0205531 0.00452685 0.0289525 0.00757795 0.0204722 0.00589226 0.032206 0.00574792 0.0282514 0.00772944 0.0365985 0.00848636 0.0342654 0.0106802 0.0408967
117 3 O -1.55795 22.2588 51.7696 -1.2 1 0.134332 0.0415322 0.00187779 0.0111707 0.0025279 0.0112064 0.0021834 0.0262873 0.00332 0.0146391 0.00303779 0.0306422 0.00429157 0.0246437 0.0042191 0.0347121 0.00513144 0.0287874 0.00787527 0.045327
118 3 O -2.17411 22.8111 48.8277 -1.2 1 0.203489 0.0536004 0.00880001 0.0157627 0.00332605 0.0170705 0.00438164 0.0289246 0.00562386 0.0201784 0.00431847 0.0319864 0.00434864 0.0280276 0.00567014 0.0363037 0.00700314 0.0334541 0.00945612 0.0410864
119 1 Mg 0.0423997 21.3296 46.8225 1.2 1 0.257734 0.055402 0.0181044 0.0209751 0.00530934 0.0249235 0.00608272 0.0321959 0.00890506 0.0226028 0.00647241 0.034062 0.0072227 0.0294876 0.00877538 0.0365527 0.00953338 0.0368828 0.0122797 0.0404508
120 3 O 0.458537 22.7495 48.3911 -1.2 1 0.212955 0.0537413 0.010094 0.0166999 0.00371112 0.0180514 0.00363049 0.0288829 0.00624236 0.0201155 0.00378682 0.0316526 0.00519521 0.0293066 0.00576657 0.0357642 0.00743484 0.0347892 0.010066 0.0418636
121 1 Mg 1.48546 21.3009 54.5323 1.2 1 0.0723488 0.0303518 0.004656 0.00751932 0.00153177 0.00700112 0.00308298 0.025147 0.00228062 0.0117383 0.00264182 0.0303217 0.0037369 0.0238265 0.00370757 0.0349961 0.0036488 0.0264461 0.00561787 0.0496808