ITEM: TIMESTEP
1800
ITEM: NUMBER OF ATOMS
10500
ITEM: BOX BOUNDS xy xz yz pp pp pp
0	8.9688	2.9896
0	118.725	0
0	252.977	0
ITEM: ATOMS id type element xu yu zu q Q_1 Q_2 Q_3 Q_4 Q_5 Q_6 Q_7 Q_8 Q_9 Q_10 Q_11 Q_12 Q_13 Q_14 Q_15 Q_16 Q_17 Q_18 Q_19 Q_20 Q_21
1 1 Mg -3.60221 7.19237 57.1592 1.2 1 0.0256458 0.0160723 0.00435753 0.0050673 0.00126336 0.00643186 0.001592 0.0219877 0.00202363 0.00940961 0.0024777 0.0250905 0.00267945 0.0187443 0.00273784 0.0311772 0.00307055 0.0245892 0.00532058 0.0419477
2 1 Mg -1.80118 6.65312 49.5222 1.2 1 0.176004 0.0492783 0.0070827 0.0103338 0.00273818 0.00856534 0.00397011 0.0216122 0.00523948 0.0159509 0.00429259 0.023288 0.00410593 0.0215974 0.00535715 0.0274574 0.00525235 0.0259659 0.00822126 0.0295986
3 2 Si -0.164674 3.85869 47.9594 2.4 1 0.220082 0.0531594 0.0110804 0.0121071 0.00254156 0.00992602 0.00389764 0.0190415 0.00518823 0.0158559 0.00538684 0.0236921 0.00498675 0.0210672 0.00657402 0.0256613 0.00627862 0.0257746 0.00878383 0.0278011
4 3 O -0.199538 5.31012 47.257 -1.2 1 0.236338 0.0522633 0.0151496 0.0137766 0.00283947 0.0121607 0.0047061 0.0205407 0.00643623 0.0169217 0.00607571 0.0232864 0.00424959 0.0217698 0.00647882 0.0262519 0.00712475 0.0271997 0.0100348 0.026812
5 3 O -2.13501 3.5289 51.7867 -1.2 1 0.124832 0.0398329 0.00119734 0.00687056 0.00139077 0.0072642 0.00322625 0.0195064 0.00305516 0.0115279 0.00328142 0.0232408 0.00314281 0.01821 0.00466056 0.0269545 0.00495416 0.0240732 0.00720705 0.0326836
6 3 O -1.38745 3.6607 48.9683 -1.2 1 0.187688 0.0501642 0.0069358 0.0101945 0.00208484 0.00793595 0.00326059 0.0192368 0.00457011 0.0144769 0.00429995 0.0233498 0.00291263 0.0206022 0.0053518 0.0260019 0.00505226 0.0246446 0.00852625 0.028406
7 1 Mg 1.85102 2.42274 46.9694 1.2 1 0.240377 0.0525012 0.0145405 0.0158206 0.00312145 0.0109472 0.00414934 0.0199871 0.00540884 0.0147384 0.00559926 0.0236669 0.00511823 0.0203924 0.00749992 0.0242837 0.00630428 0.0249922 0.00894033 0.0268979
8 3 O 1.4057 3.64258 48.6542 -1.2 1 0.197745 0.0506059 0.00796044 0.011261 0.00250974 0.00934718 0.00436195 0.0199749 0.00404497 0.0154871 0.00416534 0.0227247 0.00412279 0.0215954 0.00649842 0.0254898 0.00436717 0.0255628 0.0084105 0.0288288
9 1 Mg 1.04522 2.10374 54.4865 1.2 1 0.06623 0.0284234 0.00494289 0.00463913 0.00144273 0.00525814 0.00289751 0.0210844 0.0030238 0.00964931 0.00288348 0.0244171 0.0036427 0.0191606 0.00444441 0.0296459 0.00343763 0.0246374 0.0065364 0.0383472
10 2 Si 0.887785 4.97829 56.2698 2.4 1 0.035159 0.0195854 0.00524402 0.00548392 0.0014326 0.00634739 0.00234278 0.0214504 0.00155433 0.00958391 0.00352333 0.0240352 0.00265191 0.0183801 0.00488357 0.0309357 0.00290473 0.024254 0.0063707 0.0420342
11 3 O 0.791426 3.42967 56.4944 -1.2 1 0.0299855 0.0175177 0.00486617 0.00499329 0.00113641 0.00590099 0.00221292 0.0213094 0.0026839 0.0083721 0.00233163 0.0251084 0.00315906 0.0178861 0.00360819 0.0308018 0.00360744 0.0245927 0.00568789 0.0421309
12 3 O 1.1271 6.22098 52.4873 -1.2 1 0.109008 0.0368104 0.00146969 0.00690705 0.00244508 0.00742596 0.00342244 0.0217613 0.00352224 0.0126174 0.00296273 0.0233042 0.00346173 0.0206327 0.00314349 0.0281521 0.00455365 0.0252686 0.00634814 0.034255
13 3 O -0.462864 5.77298 55.6624 -1.2 1 0.045127 0.0230622 0.00498354 0.00465443 0.00130604 0.00533421 0.0021846 0.0216343 0.00201513 0.0105598 0.00280164 0.0243228 0.003015 0.0188696 0.00431442 0.0303684 0.00325095 0.0245477 0.00639852 0.0404382
14 3 O 2.08946 5.67159 55.5068 -1.2 1 0.0448692 0.0231419 0.0055307 0.00470989 0.00109469 0.00547919 0.00237453 0.0214849 0.00188702 0.0104663 0.00301749 0.0238797 0.00262777 0.0188607 0.00422011 0.0306617 0.00296067 0.0242066 0.00599706 0.0394216
15 1 Mg -0.447598 4.71755 51.9647 1.2 1 0.120546 0.0395123 0.00187914 0.00646501 0.00248125 0.00691694 0.0029307 0.0206793 0.00350382 0.0126932 0.00279657 0.0238114 0.00357774 0.0198634 0.00445608 0.0273964 0.0043943 0.0249269 0.0072125 0.0322306
16 1 Mg 2.88103 3.98613 49.9433 1.2 1 0.167177 0.0479846 0.00460366 0.0094731 0.00181665 0.00841857 0.00432994 0.0202819 0.00353723 0.0144671 0.00338305 0.022328 0.00367891 0.0207786 0.00650122 0.0261523 0.0044113 0.025475 0.00852209 0.0290277
17 2 Si 1.15842 6.73283 50.994 2.4 1 0.144718 0.0439608 0.00319818 0.00861242 0.00276239 0.00851601 0.00449324 0.021316 0.00425697 0.0149976 0.00438485 0.0224175 0.00374376 0.0214977 0.0058345 0.0284098 0.00374326 0.0264945 0.00721967 0.0322382
18 3 O 1.32867 8.35974 51.0862 -1.2 1 0.142898 0.0424838 0.00284301 0.00848628 0.00242175 0.00936462 0.00387105 0.0217436 0.0038463 0.0146364 0.00383297 0.0230919 0.0035201 0.0213723 0.00452289 0.0295387 0.00451364 0.0266003 0.00729923 0.0341162
19 3 O 0.962672 5.70792 57.7514 -1.2 1 0.0168019 0.0121267 0.00312904 0.00519244 0.00138898 0.00673778 0.00179286 0.022005 0.00171006 0.00868553 0.00318221 0.0258044 0.00282548 0.0184871 0.00358827 0.03176 0.00310327 0.0241412 0.00567021 0.0439561
20 3 O -0.152922 6.14653 50.4211 -1.2 1 0.160215 0.0446614 0.00604238 0.00943197 0.00336277 0.00839826 0.0047755 0.0210851 0.0045177 0.0149285 0.003467 0.0228945 0.00376829 0.0213849 0.00478297 0.0269158 0.00445267 0.025791 0.0079282 0.0307464
21 1 Mg -3.45399 4.79405 52.5824 1.2 1 0.110538 0.0374896 0.000829257 0.00616384 0.00194064 0.007111 0.00321709 0.0198291 0.00374086 0.011747 0.00357433 0.023423 0.00268705 0.0191159 0.00430419 0.0275464 0.00414349 0.0241391 0.00674427 0.0331338
22 3 O 2.41715 6.04399 50.2746 -1.2 1 0.159407 0.0476297 0.0043981 0.00858536 0.00190552 0.00870036 0.00491686 0.0209514 0.00451395 0.0151174 0.00408953 0.0223316 0.00330554 0.0213181 0.00556382 0.0279824 0.00346978 0.0257544 0.00815721 0.0304574
23 1 Mg -2.14535 4.70444 55.0047 1.2 1 0.0488715 0.025016 0.00619697 0.00474459 0.00115726 0.00581636 0.00183766 0.0211596 0.00283489 0.00994924 0.00392077 0.024413 0.00243291 0.0188445 0.00436824 0.0303659 0.00359778 0.0250076 0.00701776 0.038823
24 2 Si -1.90019 2.69454 53.1826 2.4 1 0.0972143 0.0349455 0.00279226 0.00535974 0.0023216 0.00613294 0.00289811 0.0201387 0.00356349 0.0111558 0.00304603 0.0234223 0.00297277 0.0192546 0.00398093 0.0283897 0.00489245 0.0242427 0.00668492 0.034965
25 3 O -2.07435 1.14456 52.9819 -1.2 1 0.0983268 0.0352019 0.00304137 0.00593237 0.00233902 0.00597722 0.00281102 0.0204452 0.00309838 0.009748 0.00265069 0.0240408 0.00374049 0.0183961 0.00567039 0.0284088 0.00441151 0.024348 0.00741709 0.0357265
26 3 O 0.0216661 2.78909 46.7922 -1.2 1 0.246976 0.0531651 0.0161409 0.015021 0.00329775 0.0108418 0.0039303 0.0191222 0.00611132 0.015496 0.00687485 0.0238006 0.00659821 0.020945 0.00909967 0.0244497 0.00695396 0.0255062 0.00945519 0.0269159
27 3 O -3.05827 3.28902 54.088 -1.2 1 0.0794512 0.0308563 0.00361668 0.00460879 0.00174533 0.00587539 0.00225949 0.0203888 0.00268589 0.0105839 0.00297298 0.0237084 0.00217564 0.0191043 0.00385848 0.0288239 0.00395526 0.0236795 0.00688981 0.0362327
28 3 O -0.568357 3.24765 53.7026 -1.2 1 0.0819398 0.0319533 0.00355775 0.00493933 0.00199772 0.00624912 0.00246356 0.0209156 0.0030724 0.0109078 0.00205125 0.0238193 0.00341925 0.0193794 0.00414144 0.0291835 0.00414877 0.0248404 0.00656027 0.0368311
29 1 Mg -3.58095 11.9222 57.4649 1.2 1 0.0197734 0.0132814 0.00395301 0.0055093 0.00133337 0.00618643 0.00152784 0.0222406 0.00256379 0.00950839 0.0024657 0.0251506 0.00356624 0.0195992 0.00283806 0.0312924 0.00360749 0.0253259 0.00626049 0.0421571
30 1 Mg -1.59317 11.4417 49.3398 1.2 1 0.190397 0.0475993 0.00889295 0.0118288 0.00300278 0.0117988 0.00445631 0.0239258 0.00575166 0.0177551 0.00433439 0.0259327 0.0036912 0.0237228 0.00455014 0.0329841 0.00700214 0.0279272 0.00953887 0.0346789
31 2 Si -0.938691 8.80976 47.5504 2.4 1 0.240939 0.0515749 0.016096 0.0153434 0.00454672 0.0131871 0.00641275 0.0230092 0.00717312 0.0182668 0.00733371 0.0238258 0.00563565 0.0227326 0.00663766 0.0292235 0.008732 0.0278372 0.0122355 0.0305124
32 3 O -1.04885 10.3674 47.6154 -1.2 1 0.238815 0.0514015 0.0155169 0.0159123 0.00398115 0.0152504 0.00654449 0.0247414 0.00822371 0.0195356 0.00753231 0.0243952 0.0058516 0.0235132 0.00669991 0.0319885 0.00993668 0.0292381 0.0126861 0.0324003
33 3 O -1.85973 8.13567 51.5921 -1.2 1 0.131148 0.0397134 0.00205604 0.00790845 0.00309961 0.00802423 0.00316246 0.0215705 0.00426131 0.0140703 0.00328834 0.0237878 0.00359481 0.0204891 0.00327105 0.029582 0.00479692 0.026222 0.00725475 0.0341363
34 3 O -2.12288 8.17171 48.3694 -1.2 1 0.207049 0.0509614 0.0102332 0.0118952 0.00354348 0.0112423 0.00567562 0.0230764 0.00626779 0.0182733 0.00537039 0.0231807 0.00463304 0.0225235 0.00604719 0.0297075 0.00638067 0.0275085 0.0096124 0.0306793
35 1 Mg 0.210919 6.7686 46.1239 1.2 1 0.277185 0.0530165 0.0232036 0.0170517 0.00446054 0.0146308 0.00861285 0.022834 0.00811164 0.0182108 0.00806914 0.0236038 0.00778548 0.0228341 0.0077631 0.0261896 0.00900768 0.0274593 0.0123232 0.0266816
36 3 O 0.497478 8.35839 48.1247 -1.2 1 0.221139 0.0516088 0.0126438 0.0140907 0.0037948 0.012918 0.00581654 0.0231264 0.00678264 0.0179875 0.00641418 0.0232441 0.00489766 0.0234715 0.00611276 0.0293288 0.00747944 0.0280891 0.011428 0.0308724
37 1 Mg 1.13765 7.21962 54.4366 1.2 1 0.0648139 0.0290051 0.00413582 0.00497968 0.00176867 0.00580993 0.0022096 0.0215694 0.00254844 0.0112145 0.00318634 0.0233673 0.00279413 0.019674 0.00342744 0.0301592 0.00363208 0.024884 0.00624952 0.0374009
38 2 Si 0.939479 9.85783 56.2955 2.4 1 0.0334616 0.0190545 0.00471282 0.00587245 0.00118186 0.00637218 0.00245507 0.0219563 0.00242725 0.00987535 0.00371777 0.0241005 0.00279806 0.0198049 0.00368601 0.0310426 0.0034131 0.0254965 0.00615483 0.0412181
39 3 O 0.830522 8.24969 56.3007 -1.2 1 0.0341268 0.0196463 0.00503735 0.00554511 0.000819294 0.00608491 0.00164645 0.0217332 0.00297831 0.00973632 0.00195015 0.0240611 0.00314983 0.0190217 0.00230666 0.0308294 0.00422875 0.024627 0.00589899 0.0414242
40 3 O 1.44965 10.9495 52.4543 -1.2 1 0.112979 0.0360149 0.0012299 0.00725161 0.0018338 0.00979585 0.00227695 0.0226136 0.00397595 0.0138751 0.00332397 0.0237419 0.00365977 0.0212328 0.00375128 0.0311598 0.00417761 0.0271215 0.00607536 0.0365084
41 3 O -0.33394 10.6002 55.6101 -1.2 1 0.0469898 0.0238133 0.00437875 0.00517025 0.000868429 0.00638692 0.00194383 0.0228246 0.00295294 0.0114923 0.00255078 0.024399 0.00297367 0.0205072 0.00321407 0.0318312 0.00348038 0.0261879 0.00595945 0.041187
42 3 O 2.18669 10.5538 55.6686 -1.2 1 0.0442786 0.0227419 0.00494001 0.0055083 0.00110346 0.00606262 0.00237536 0.0219994 0.00261229 0.0110473 0.00267546 0.0245028 0.0028953 0.020189 0.00288975 0.0318085 0.00317652 0.026052 0.00617256 0.0402573
43 1 Mg -0.257959 9.42215 51.9688 1.2 1 0.115498 0.0389372 0.00124005 0.00766104 0.00249745 0.00827683 0.00225397 0.0226295 0.00420922 0.0143395 0.00302324 0.0241369 0.0029264 0.0213554 0.00377739 0.0305492 0.00401045 0.0265305 0.00637626 0.0350156
44 1 Mg 2.19785 8.76622 49.1927 1.2 1 0.185434 0.0498105 0.00686853 0.0107841 0.0026836 0.0113236 0.00531957 0.0227817 0.0051737 0.0173759 0.00498104 0.0234164 0.00344462 0.0231684 0.00588787 0.0305508 0.00496565 0.0283256 0.00899895 0.0317449
45 2 Si 1.29457 11.4536 50.934 2.4 1 0.147837 0.0445622 0.00260155 0.0093806 0.00248931 0.0109356 0.00366377 0.0226998 0.00432086 0.0161342 0.00396189 0.0238001 0.00376548 0.0236728 0.00602534 0.0328763 0.00462341 0.0289209 0.00817024 0.0362148
46 3 O 1.30946 12.9871 50.9777 -1.2 1 0.152699 0.0429052 0.0035591 0.00962433 0.00254803 0.0119739 0.00337006 0.023546 0.00449432 0.0159877 0.00316244 0.0249135 0.00388945 0.0241352 0.00420906 0.0333397 0.00558926 0.028883 0.00779784 0.0376293
47 3 O 0.812599 10.4048 57.8332 -1.2 1 0.017263 0.0127704 0.00324918 0.00568057 0.00140121 0.00662389 0.00195755 0.0224586 0.00265438 0.00897811 0.00301959 0.0249743 0.00290934 0.0195451 0.00284383 0.0313389 0.00324052 0.0253711 0.00584345 0.04339
48 3 O -0.0665589 10.7548 50.4504 -1.2 1 0.155812 0.0449171 0.00424561 0.0107856 0.00272402 0.010784 0.00441081 0.0230736 0.00441918 0.0153886 0.00333015 0.02403 0.00380851 0.0233459 0.00508229 0.0315836 0.00461488 0.0285388 0.00819047 0.0355741
49 1 Mg -3.32158 9.43276 52.0303 1.2 1 0.12549 0.0372756 0.0022615 0.00728698 0.0017945 0.0101065 0.00321445 0.0216711 0.00447099 0.0136198 0.00355532 0.0235876 0.00335818 0.0212359 0.00410471 0.030642 0.00439889 0.0261994 0.00629684 0.0346909
50 3 O 2.61379 10.6957 50.0158 -1.2 1 0.165932 0.0465512 0.00517909 0.00903219 0.00219488 0.0113337 0.0050368 0.0230711 0.00466512 0.0170119 0.00395309 0.0240434 0.00339766 0.0236342 0.00512104 0.0321301 0.00540466 0.0282895 0.00856338 0.0350929
51 1 Mg -2.19443 9.74526 55.1273 1.2 1 0.0551424 0.0266125 0.00452406 0.00527238 0.00102514 0.00680538 0.00208992 0.022129 0.00352798 0.011174 0.0028717 0.0241385 0.00271821 0.020057 0.00259746 0.0311453 0.00338258 0.025969 0.00551416 0.0395754
52 2 Si -1.75915 7.51259 53.0494 2.4 1 0.0974941 0.0361276 0.00234939 0.00633621 0.00286835 0.00647309 0.00264158 0.02121 0.00410738 0.0134121 0.00299923 0.0236086 0.00279462 0.0206657 0.00322544 0.0293132 0.00536499 0.0246766 0.00628535 0.0355334
53 3 O -1.97421 5.8959 52.9261 -1.2 1 0.10446 0.0344258 0.00113609 0.00596485 0.00232491 0.00678895 0.00293139 0.0204786 0.00439367 0.0122987 0.00349371 0.0228832 0.00331304 0.0188581 0.00447813 0.0281484 0.00318909 0.024383 0.00665944 0.0340806
54 3 O -0.789626 8.30335 45.9767 -1.2 1 0.277582 0.0507993 0.023235 0.017802 0.00499363 0.0167612 0.00950063 0.024208 0.00856045 0.0178585 0.00905081 0.0221212 0.0072284 0.0219557 0.00775012 0.0293028 0.00994247 0.0296616 0.0136692 0.0289503
55 3 O -3.11939 8.16479 53.6574 -1.2 1 0.0828961 0.0332522 0.00262723 0.00513983 0.00237469 0.00697634 0.00300129 0.021353 0.00358229 0.0124322 0.00257589 0.022943 0.00312745 0.0208031 0.0029211 0.0303789 0.00501475 0.025095 0.00566595 0.0357969
56 3 O -0.571278 8.06153 53.7685 -1.2 1 0.0831603 0.0318668 0.00296426 0.0055458 0.00226917 0.00583536 0.00210339 0.0215712 0.00361897 0.0123292 0.00246541 0.0234112 0.00296043 0.0205775 0.00326053 0.0296524 0.0040125 0.025843 0.00604124 0.0369486
57 1 Mg -3.27625 16.6987 57.3751 1.2 1 0.0212692 0.014341 0.00492015 0.00614682 0.000915835 0.00639498 0.00160271 0.0226189 0.00187375 0.0107171 0.002209 0.0259203 0.00231935 0.0208357 0.00190151 0.0308201 0.0026988 0.026732 0.00499698 0.0432373
58 1 Mg -1.63549 16.2692 49.5925 1.2 1 0.184885 0.0470265 0.0069712 0.012589 0.00312944 0.0150822 0.0039666 0.0257745 0.00464124 0.0177506 0.00429739 0.0270372 0.00403756 0.0252827 0.00583603 0.0355099 0.00662434 0.030477 0.00923804 0.037806
59 2 Si -0.960246 13.738 47.5144 2.4 1 0.242054 0.0512007 0.0157248 0.0173978 0.00387257 0.0183239 0.00526393 0.0276911 0.00714232 0.0205205 0.00641479 0.026289 0.00605714 0.0266311 0.00611859 0.035729 0.0101952 0.0309003 0.0133108 0.0363057
60 3 O -0.814067 15.3572 47.4856 -1.2 1 0.241777 0.0511616 0.0148431 0.016924 0.00433064 0.0203838 0.00537054 0.0281266 0.00721943 0.0207934 0.00695905 0.02614 0.00696649 0.0263439 0.00751183 0.0362864 0.00964182 0.0324075 0.012839 0.0375105
61 3 O -1.67698 12.8158 51.5378 -1.2 1 0.133616 0.0400291 0.002109 0.00931837 0.00246003 0.00978625 0.00177353 0.0242285 0.0039121 0.0149152 0.00253502 0.0248944 0.00343122 0.0231209 0.00424126 0.0326969 0.00511776 0.0282271 0.00685985 0.03743
62 3 O -2.2631 13.4272 48.3981 -1.2 1 0.209418 0.0504488 0.0103838 0.0134811 0.00396232 0.0144847 0.00450062 0.0258931 0.00634503 0.0199381 0.00508517 0.0261734 0.00488179 0.0261841 0.00598484 0.035668 0.00804474 0.030309 0.0108398 0.0362657
63 1 Mg 0.203693 11.585 46.8122 1.2 1 0.253961 0.0507185 0.0189434 0.0177385 0.0039321 0.019091 0.00710206 0.0271853 0.00821743 0.0198746 0.00721907 0.0259388 0.00670393 0.0259041 0.00682098 0.0340854 0.0108574 0.0308253 0.0145329 0.0342627
64 3 O 0.309188 12.9781 48.3114 -1.2 1 0.211606 0.0491507 0.0111617 0.0140602 0.00365505 0.0157053 0.00416543 0.026236 0.0058103 0.0192986 0.00536322 0.0251665 0.00499784 0.0263978 0.00527437 0.03513 0.00793594 0.0307563 0.0116717 0.0365476
65 1 Mg 1.22343 12.0268 54.5373 1.2 1 0.0661796 0.0290804 0.00412232 0.0056899 0.00106229 0.00643367 0.00223459 0.0223175 0.00340353 0.0123512 0.00246546 0.024834 0.00324652 0.0219349 0.00292817 0.0316159 0.00435171 0.0261712 0.00628852 0.0393028
66 2 Si 1.12867 14.5062 56.338 2.4 1 0.0301346 0.01723 0.00539635 0.00614692 0.00129183 0.00660987 0.00261242 0.0222463 0.00234457 0.00996014 0.00341784 0.024215 0.00311765 0.0207804 0.00368492 0.0311109 0.00347598 0.0269426 0.00654392 0.0428746
67 3 O 1.04851 12.9674 56.3769 -1.2 1 0.0304069 0.0178435 0.0050466 0.00583933 0.000851544 0.00635901 0.00200575 0.0223226 0.00359506 0.00948877 0.0023823 0.0247627 0.00342839 0.0200307 0.0028469 0.0313071 0.00457115 0.0262364 0.00689419 0.0422471
68 3 O 1.41019 15.6096 52.6923 -1.2 1 0.1112 0.0358951 0.00156258 0.00782613 0.00232945 0.0107174 0.00323628 0.0237787 0.00281733 0.0139907 0.00305968 0.0253859 0.00372437 0.0227949 0.00417799 0.0326665 0.00406441 0.0289456 0.00633688 0.0400282
69 3 O -0.188615 15.2166 55.7876 -1.2 1 0.0441651 0.0224072 0.00540283 0.00571121 0.0010976 0.0064613 0.00191833 0.0228674 0.00248794 0.0112318 0.00261647 0.02481 0.00273685 0.0218916 0.00274545 0.0319341 0.00321892 0.0276928 0.00565561 0.0421735
70 3 O 2.36059 15.2211 55.6256 -1.2 1 0.0453835 0.0228999 0.0055121 0.00616347 0.000863357 0.00649745 0.00281178 0.0228336 0.00271877 0.0110027 0.00256443 0.0243235 0.00284334 0.022141 0.00282759 0.0323241 0.0031512 0.027874 0.00601199 0.0421272
71 1 Mg -0.0757119 14.092 51.978 1.2 1 0.122055 0.0392783 0.00163838 0.00887335 0.00275876 0.00978773 0.00222935 0.0240309 0.00368736 0.015001 0.00348191 0.0250224 0.00355955 0.0240178 0.00443465 0.0327102 0.00384783 0.0286206 0.00648322 0.0383635
72 1 Mg 1.97373 13.8905 49.309 1.2 1 0.185954 0.0496503 0.00635931 0.0115593 0.00340935 0.0142346 0.00488193 0.0249847 0.0050886 0.0180236 0.00482225 0.0255392 0.00428653 0.0256109 0.00558221 0.0356514 0.00650619 0.0301187 0.00985962 0.0367718
73 2 Si 1.38908 16.2561 51.1431 2.4 1 0.145708 0.044188 0.0020195 0.0101908 0.00283175 0.0123823 0.00373383 0.0245011 0.00388494 0.0164629 0.00511725 0.0251521 0.00429789 0.0253533 0.00615525 0.0341042 0.00473432 0.0302584 0.00814526 0.0400243
74 3 O 1.47746 17.8308 51.3347 -1.2 1 0.142995 0.042129 0.00186939 0.00977058 0.00195323 0.0124872 0.00350664 0.0243633 0.00406557 0.0153379 0.00372158 0.0264975 0.00390971 0.023873 0.00478365 0.0340229 0.00536122 0.0299304 0.00755624 0.0408952
75 3 O 1.34602 15.1276 57.8329 -1.2 1 0.0169387 0.0123129 0.00417896 0.0062688 0.00124743 0.006764 0.00194147 0.0230208 0.00224295 0.00982992 0.00318489 0.0249387 0.00301979 0.0208551 0.00302353 0.0305835 0.00312601 0.0263842 0.00611618 0.0433842
76 3 O 0.0912246 15.633 50.5151 -1.2 1 0.158384 0.0448257 0.00377877 0.011284 0.00343677 0.0127618 0.00467789 0.0242619 0.00365958 0.0159421 0.00367034 0.0251758 0.00408241 0.0254957 0.00637722 0.0341979 0.00424456 0.0304303 0.00830457 0.0390804
77 1 Mg -3.17274 14.1772 52.2768 1.2 1 0.1198 0.0374889 0.00170752 0.00807268 0.00194047 0.0108605 0.00272819 0.0240721 0.00332689 0.0147823 0.00305404 0.0251938 0.00297565 0.0237023 0.00372187 0.0330091 0.00392176 0.0286567 0.00636543 0.0381844
78 3 O 2.59794 15.5986 50.3322 -1.2 1 0.160183 0.0462071 0.00347258 0.010047 0.00241003 0.0123792 0.0038365 0.0247569 0.00368224 0.0174398 0.0040638 0.0255482 0.00335285 0.0252855 0.00600118 0.0351727 0.00494557 0.0301002 0.00817961 0.0385449
79 1 Mg -1.93469 14.355 54.9477 1.2 1 0.0546993 0.0258773 0.0052843 0.00593809 0.00100397 0.00695264 0.0019435 0.0223952 0.00352836 0.0114847 0.00322502 0.024578 0.00274921 0.0223505 0.00323348 0.0326348 0.0033909 0.0275305 0.00596857 0.0408198
80 2 Si -1.65875 12.169 53.0168 2.4 1 0.0974052 0.0352213 0.00212819 0.0072556 0.00193605 0.00810845 0.00180217 0.0231939 0.00404333 0.0138119 0.00255351 0.0241093 0.00320479 0.0231307 0.00345633 0.0320555 0.00444925 0.0273352 0.00592497 0.0394367
81 3 O -1.68614 10.5719 52.9046 -1.2 1 0.0978799 0.0347348 0.00204383 0.00686247 0.00218179 0.00794232 0.00179549 0.0220126 0.00408852 0.0126924 0.00272585 0.0239098 0.00296562 0.0207008 0.00358318 0.0314287 0.00420929 0.0266571 0.00608406 0.0370849
82 3 O -0.892826 13.0069 46.1054 -1.2 1 0.273046 0.0497754 0.0214737 0.0194324 0.00468842 0.0218289 0.00821164 0.0288079 0.00833235 0.0202491 0.00760767 0.0255094 0.00751867 0.0255355 0.00713898 0.0367038 0.0120682 0.0321926 0.0154483 0.0355193
83 3 O -2.8734 12.7855 53.7165 -1.2 1 0.0894176 0.0330171 0.00204609 0.00637115 0.00163116 0.00873641 0.00178783 0.0224454 0.00352715 0.0129453 0.0024369 0.023977 0.00337995 0.0225808 0.00370848 0.0326107 0.00409796 0.0271744 0.00559233 0.0384691
84 3 O -0.43934 12.7845 53.6748 -1.2 1 0.0831168 0.0315157 0.00291886 0.00627142 0.00180602 0.00654115 0.00145439 0.0231588 0.0035261 0.0128183 0.00219964 0.0245127 0.00298894 0.0230498 0.00350878 0.0317963 0.00419531 0.0276034 0.00584825 0.0400509
85 1 Mg -2.97082 21.2008 57.5178 1.2 1 0.0200313 0.0144566 0.00503654 0.00717924 0.00103251 0.00695205 0.00136505 0.023577 0.0016133 0.0105145 0.00191544 0.026958 0.00188834 0.0202949 0.00219668 0.0317163 0.00283732 0.0266315 0.00355704 0.0458362
86 1 Mg -1.28489 21.1993 49.6553 1.2 1 0.183731 0.0483685 0.00685695 0.0129494 0.00280747 0.0159804 0.00329457 0.0261576 0.00548135 0.0167947 0.005511 0.0291745 0.00462191 0.0242947 0.00629151 0.0351116 0.00622211 0.0297248 0.00984571 0.0406437
87 2 Si -1.04635 18.6624 47.7861 2.4 1 0.233702 0.0516765 0.0132911 0.0170067 0.00358734 0.0199197 0.00467091 0.0276169 0.00726708 0.0198746 0.00626472 0.028275 0.00722838 0.0260156 0.00592874 0.0364373 0.00979392 0.0307112 0.0129676 0.0396811
88 3 O -1.14157 20.2104 47.9621 -1.2 1 0.223741 0.0531374 0.0115535 0.0162736 0.00420075 0.0197989 0.00428176 0.0263182 0.007061 0.0187079 0.00613551 0.0281662 0.00665857 0.0238623 0.00768377 0.0376441 0.00891127 0.0316801 0.011973 0.0407691
89 3 O -1.80576 17.524 51.7972 -1.2 1 0.130352 0.0398355 0.00215128 0.00960168 0.00228487 0.0106546 0.00276981 0.0244175 0.00272725 0.0150691 0.00357959 0.0262699 0.00367144 0.0235385 0.00477371 0.0334797 0.00547941 0.0289571 0.00731931 0.040102
90 3 O -2.20661 17.9005 48.5868 -1.2 1 0.206119 0.0516939 0.00875568 0.0139822 0.00340568 0.0168176 0.00468881 0.0274098 0.00604158 0.0196744 0.00557863 0.0270951 0.00493189 0.0263886 0.00622818 0.0372003 0.0076829 0.0317143 0.0106433 0.0393048
91 1 Mg 0.441751 16.7102 46.8174 1.2 1 0.246527 0.0524013 0.0146566 0.0176954 0.0034439 0.0212626 0.00551252 0.0296058 0.00732224 0.0215391 0.00649977 0.0278363 0.00755362 0.0265804 0.00736889 0.0368827 0.010367 0.0331882 0.0129028 0.0390021
92 3 O 0.385469 18.1082 48.4335 -1.2 1 0.208083 0.0506815 0.00921106 0.0141804 0.00358202 0.0172448 0.00374034 0.0270716 0.00576736 0.0191685 0.00518736 0.0269278 0.00579234 0.0265335 0.00600772 0.0366007 0.00810935 0.0320393 0.0112376 0.0409882
93 1 Mg 1.37867 16.6253 54.4728 1.2 1 0.0733557 0.0303295 0.00444348 0.0065426 0.00151062 0.00710593 0.00285414 0.0231428 0.00267959 0.0124848 0.00259889 0.0255987 0.00353242 0.0230119 0.00286092 0.0328245 0.00404925 0.0280342 0.0056644 0.0416126
94 2 Si 1.32718 19.2954 56.3989 2.4 1 0.029898 0.0178784 0.00572743 0.00759565 0.00102959 0.00710356 0.00218269 0.0230687 0.00233581 0.00992152 0.00307645 0.0250055 0.00288418 0.0217374 0.00395222 0.031385 0.0033739 0.0271202 0.00490413 0.0461622
95 3 O 1.2515 17.7166 56.5868 -1.2 1 0.0270147 0.0165068 0.00550379 0.00686336 0.000912542 0.00642668 0.00184744 0.0232742 0.00249363 0.0102673 0.00220449 0.0256318 0.00269061 0.0212167 0.00279005 0.0312756 0.00324859 0.0269958 0.0049399 0.044506
96 3 O 1.66895 20.5363 52.6728 -1.2 1 0.108897 0.037578 0.00230409 0.00845745 0.00229187 0.0111698 0.00350976 0.0245043 0.00363919 0.01413 0.00425339 0.0273242 0.00392163 0.022509 0.00498231 0.0333266 0.0045095 0.0289334 0.00730856 0.0427323
97 3 O 0.0299342 20.0233 55.8179 -1.2 1 0.0465511 0.0236867 0.00574298 0.00724202 0.00118706 0.0070794 0.00283337 0.023502 0.00239602 0.0107326 0.00292146 0.026079 0.00278569 0.0218566 0.00391973 0.0327773 0.00364534 0.0280167 0.00556259 0.0460211
98 3 O 2.62008 19.9035 55.7291 -1.2 1 0.0430007 0.0231538 0.00644183 0.00721134 0.00102086 0.00692409 0.00257488 0.0237039 0.00258641 0.0108485 0.00214778 0.0257447 0.00293585 0.0223211 0.00342448 0.0323519 0.00338831 0.0281341 0.00511986 0.044868
99 1 Mg -0.0634017 18.943 51.9919 1.2 1 0.120429 0.040149 0.00230757 0.00921875 0.00276889 0.0104439 0.00281901 0.0244806 0.00278604 0.0146157 0.00337811 0.0269296 0.00318906 0.023451 0.00448929 0.0334444 0.00448504 0.0291912 0.00773966 0.0413927
100 1 Mg 2.04178 18.766 49.4063 1.2 1 0.182846 0.0514109 0.00448258 0.0119274 0.00250394 0.0151946 0.00451616 0.0266375 0.00536483 0.0185453 0.00515025 0.0274973 0.00527511 0.0259217 0.00587562 0.0371742 0.00673961 0.0317309 0.0101086 0.0414337
101 2 Si 1.59782 21.0951 51.1993 2.4 1 0.142925 0.0454849 0.00161398 0.0105206 0.00261217 0.0133699 0.00488545 0.0241957 0.00389576 0.0149792 0.0053519 0.0269102 0.00462922 0.0239403 0.00667517 0.0342277 0.00519473 0.02968 0.00945835 0.0425504
102 3 O 1.67835 22.6528 51.3659 -1.2 1 0.140063 0.0438363 0.00180421 0.00994652 0.00182134 0.0137799 0.00374935 0.0243695 0.00426749 0.0143802 0.00350008 0.0287443 0.00445746 0.0234539 0.00431561 0.0336604 0.00558379 0.0295257 0.00824554 0.0430696
103 3 O 1.47358 19.9351 57.9364 -1.2 1 0.0157885 0.0122206 0.00388767 0.00725617 0.000921153 0.00671169 0.00137254 0.0237696 0.00190463 0.0103726 0.00235555 0.0260749 0.00282822 0.0212319 0.00215962 0.0312295 0.00298252 0.0265997 0.00328595 0.0463121
104 3 O 0.326654 20.3366 50.5883 -1.2 1 0.157366 0.04632 0.00288574 0.0112922 0.00329252 0.0138666 0.00477488 0.0245134 0.00379817 0.0153923 0.00425133 0.0267535 0.00456026 0.0249477 0.00614004 0.0347042 0.00538067 0.030237 0.00957863 0.0423664
105 1 Mg -2.98459 19.0295 52.4539 1.2 1 0.117246 0.0383112 0.00168266 0.00858862 0.00173163 0.011251 0.00306461 0.0240025 0.00327434 0.0144203 0.00372862 0.0266324 0.00336468 0.0230996 0.00389857 0.0332542 0.00462949 0.0289001 0.00700844 0.0410961
106 3 O 2.85237 20.4091 50.439 -1.2 1 0.158536 0.047428 0.00259169 0.0109253 0.00159356 0.0137939 0.00414301 0.0245982 0.00365711 0.0157343 0.00408499 0.0271741 0.00408455 0.0247363 0.00572817 0.0354128 0.0053261 0.0297786 0.0092911 0.0406954
107 1 Mg -1.59734 18.9564 55.0997 1.2 1 0.0525168 0.0259266 0.00591675 0.00711258 0.001506 0.00701818 0.00217905 0.0236616 0.00232111 0.0115625 0.00292536 0.0258789 0.00223571 0.0224293 0.00301881 0.0323469 0.00355955 0.027783 0.00611076 0.0436972
108 2 Si -1.57807 16.823 53.3317 2.4 1 0.0900007 0.0332982 0.00354059 0.00742739 0.00245096 0.00820365 0.00218546 0.0236675 0.00268127 0.01327 0.0030539 0.0251992 0.0029933 0.02389 0.00388025 0.0328792 0.00393787 0.0280521 0.00627488 0.0414108
109 3 O -1.65023 15.2793 53.1536 -1.2 1 0.0962704 0.033303 0.00274645 0.00730885 0.0019844 0.00875988 0.00191245 0.0233516 0.00298879 0.0128316 0.00305325 0.024518 0.00249497 0.0228601 0.00470696 0.0331447 0.00313508 0.0287624 0.00662477 0.0405623
110 3 O -0.869732 18.2212 46.2929 -1.2 1 0.27297 0.0521029 0.0198577 0.0204834 0.0041296 0.0245585 0.006073 0.0312192 0.00818782 0.0216665 0.00683269 0.0293305 0.0082143 0.0252124 0.00840265 0.0380982 0.0110904 0.0332417 0.0137343 0.03914
111 3 O -2.79641 17.5801 54.0415 -1.2 1 0.0803757 0.0314228 0.00371519 0.00666527 0.00151667 0.00834393 0.00243225 0.023478 0.00233657 0.0128413 0.00288177 0.0250733 0.0029872 0.0238952 0.0032082 0.0332975 0.00372309 0.0275369 0.006022 0.0422933
112 3 O -0.290583 17.5388 54.0058 -1.2 1 0.0777302 0.0310574 0.00439376 0.00670915 0.00233741 0.00691094 0.00175174 0.0241853 0.00208753 0.012193 0.00260657 0.0252667 0.00292565 0.0236308 0.00356795 0.0328341 0.00387808 0.0288499 0.00611276 0.0425775
113 1 Mg -2.54701 26.0398 57.4275 1.2 1 0.0218301 0.0151021 0.00537772 0.00743051 0.0011597 0.00701536 0.00109843 0.023007 0.00174279 0.00963728 0.00170666 0.027962 0.00241193 0.0196707 0.00231755 0.0322031 0.00275664 0.0264392 0.00444081 0.0476316
114 1 Mg -1.17316 26.2507 49.859 1.2 1 0.178352 0.0487452 0.00707769 0.0136939 0.00257759 0.0164572 0.00230778 0.0237567 0.00540118 0.0151275 0.00522744 0.0305772 0.00441199 0.0223715 0.00634107 0.0336721 0.00569534 0.0296049 0.0103128 0.0410287
115 2 Si -1.15448 23.5103 47.9112 2.4 1 0.23194 0.0533504 0.013931 0.0183294 0.00383587 0.0215036 0.0022361 0.025997 0.0080202 0.017763 0.00698894 0.0303558 0.00643988 0.0239708 0.00604611 0.0355772 0.00985765 0.0305026 0.0123133 0.0413636
116 3 O -1.23023 25.113 47.8595 -1.2 1 0.226964 0.0552913 0.0131744 0.0178658 0.00403248 0.02144 0.0029238 0.025185 0.00783216 0.0173002 0.00678252 0.0304459 0.00657063 0.0230061 0.00756726 0.0355745 0.00846273 0.0309786 0.0119148 0.0408802
117 3 O -1.29436 22.3359 51.6752 -1.2 1 0.1323 0.0424976 0.00145571 0.0106414 0.00335005 0.0118449 0.00232679 0.0249345 0.00337206 0.0139334 0.00363294 0.0281344 0.00402038 0.0226134 0.00460016 0.0339416 0.00537049 0.0288372 0.00824166 0.0428374
118 3 O -2.29432 22.9309 48.8106 -1.2 1 0.197911 0.0527265 0.00808474 0.0140434 0.00331108 0.0171036 0.00365981 0.0259893 0.00587929 0.0174641 0.00518363 0.0298702 0.00472253 0.0242014 0.00609657 0.0362565 0.00700419 0.0309198 0.0112029 0.0415832
119 1 Mg 0.151075 21.5361 46.716 1.2 1 0.257021 0.0544722 0.0173616 0.0200074 0.00349044 0.024678 0.00453744 0.0282208 0.00769763 0.0189385 0.0067717 0.0312516 0.00841801 0.0238163 0.00826883 0.0363013 0.0092183 0.0322593 0.0138706 0.0403217
120 3 O 0.377686 22.8961 48.4743 -1.2 1 0.209632 0.0540987 0.00970511 0.015259 0.00285008 0.0191811 0.00338137 0.0256884 0.00673964 0.0171628 0.00530952 0.0297321 0.0062217 0.0248917 0.00663595 0.0359601 0.00773437 0.0316647 0.0114906 0.0420558
121 1 Mg 1.70736 21.4038 54.4572 1.2 1 0.0710537 0.0306647 0.00481966 0.00748258 0.00173162 0.00819136 0.00322092 0.0234304 0.00340414 0.0117802 0.00325163 0.0267417 0.00391356 0.0225723 0.00300014 0.0325403 0.00399613 0.0277781 0.00589144 0.0441136