ITEM: TIMESTEP
1400
ITEM: NUMBER OF ATOMS
10500
ITEM: BOX BOUNDS xy xz yz pp pp pp
0	8.9688	2.9896
0	118.725	0
0	252.977	0
ITEM: ATOMS id type element xu yu zu q Q_1 Q_2 Q_3 Q_4 Q_5 Q_6 Q_7 Q_8 Q_9 Q_10 Q_11 Q_12 Q_13 Q_14 Q_15 Q_16 Q_17 Q_18 Q_19 Q_20 Q_21
1 1 Mg -3.52283 6.91543 57.3568 1.2 1 0.0216274 0.0150977 0.00475328 0.00517953 0.00147985 0.00565066 0.00159572 0.0211236 0.00240816 0.00989394 0.00225643 0.0257678 0.00253846 0.0179514 0.00327185 0.0303997 0.0027669 0.0238993 0.00526446 0.0416859
2 1 Mg -1.7098 6.48689 49.4986 1.2 1 0.185817 0.0500363 0.00832517 0.0108732 0.00251804 0.00764748 0.00470115 0.0200697 0.00443515 0.0149876 0.0042513 0.0229472 0.00355073 0.0225848 0.004697 0.0261009 0.00668351 0.0236169 0.00918191 0.029981
3 2 Si -0.111514 3.91313 48.1053 2.4 1 0.214461 0.0530897 0.0106675 0.0121366 0.00226275 0.00930655 0.00382005 0.0191925 0.00433114 0.0145789 0.00476342 0.0232312 0.00450705 0.0233969 0.00500082 0.0253495 0.00700459 0.0230725 0.00848166 0.0296325
4 3 O -0.165497 5.35712 47.3731 -1.2 1 0.233591 0.0532335 0.0149902 0.0138616 0.00256311 0.0102265 0.00441312 0.0192493 0.00528567 0.0154864 0.00505591 0.0234615 0.00420503 0.0236878 0.00557112 0.0251065 0.00828763 0.0238278 0.00994665 0.0278202
5 3 O -1.93706 3.41846 51.7292 -1.2 1 0.127663 0.0412379 0.00184767 0.00721479 0.00194217 0.00721937 0.00310911 0.01924 0.00301335 0.0110156 0.00345097 0.0235433 0.00295721 0.0191015 0.00387998 0.0262438 0.00516461 0.022409 0.00727023 0.0333042
6 3 O -1.42327 3.70682 48.9532 -1.2 1 0.194328 0.051793 0.00823366 0.010947 0.00213266 0.00767798 0.00321518 0.0190368 0.00453911 0.013723 0.00421126 0.0237611 0.003039 0.0224067 0.00506803 0.0255954 0.00596417 0.0223523 0.00847109 0.0289793
7 1 Mg 1.98493 2.50522 47.0263 1.2 1 0.247635 0.0541282 0.0167227 0.0163584 0.00300619 0.0109921 0.00426296 0.0197185 0.00543806 0.0138196 0.00505721 0.0240483 0.00467286 0.0217672 0.00667694 0.02511 0.00797828 0.0227391 0.00869526 0.0275468
8 3 O 1.46314 3.72658 48.7005 -1.2 1 0.196239 0.0512206 0.00873419 0.0115415 0.00182416 0.00857406 0.00413467 0.0192914 0.00314781 0.014109 0.00409556 0.0229665 0.00427431 0.0224917 0.00534488 0.024884 0.00532537 0.0228837 0.0083983 0.0301317
9 1 Mg 0.85548 2.33397 54.4577 1.2 1 0.07142 0.0300871 0.00435984 0.0055584 0.00163734 0.00540892 0.0026057 0.0216317 0.00272137 0.0101741 0.00279433 0.0247057 0.00323644 0.0193094 0.0046101 0.0292497 0.00365229 0.0233813 0.00615571 0.0390453
10 2 Si 0.890178 4.94375 56.2893 2.4 1 0.0332482 0.0198041 0.00575506 0.00580199 0.00158206 0.0058892 0.00220911 0.0213877 0.00192952 0.00954055 0.0030671 0.0241267 0.00274303 0.0180573 0.00437778 0.0297868 0.00305171 0.0237237 0.00579816 0.0422275
11 3 O 0.955221 3.38729 56.4199 -1.2 1 0.0321976 0.0190204 0.00563292 0.0053741 0.00133716 0.00531445 0.00212159 0.0216145 0.00251322 0.00940392 0.00229348 0.0250914 0.00301553 0.0180273 0.00362508 0.0300397 0.00353717 0.0238873 0.00559845 0.0429259
12 3 O 1.18074 6.18658 52.5967 -1.2 1 0.108139 0.0369827 0.00240262 0.00702016 0.00198115 0.00624912 0.00349571 0.0207593 0.00303366 0.0123959 0.00315419 0.0233358 0.0031032 0.0197211 0.00426547 0.0272803 0.00454938 0.0230575 0.00636426 0.0347886
13 3 O -0.430296 5.7127 55.7304 -1.2 1 0.0437435 0.0233818 0.00542538 0.00482417 0.00162992 0.00531367 0.00270222 0.021134 0.00223336 0.01052 0.00265688 0.0245481 0.00285646 0.0182968 0.00493532 0.0292958 0.00331556 0.0239573 0.00604849 0.0406482
14 3 O 2.16625 5.68692 55.5595 -1.2 1 0.0457085 0.0241794 0.00534161 0.00469043 0.00120276 0.00520071 0.00249142 0.0208992 0.0024219 0.0106393 0.00271003 0.0243175 0.00275009 0.018499 0.0038617 0.0296023 0.0033773 0.0237064 0.00525828 0.0394422
15 1 Mg -0.482569 4.82929 52.1745 1.2 1 0.121405 0.0407419 0.00227662 0.00698487 0.00256567 0.0063844 0.00254675 0.02031 0.00334535 0.0120171 0.00293501 0.0248322 0.00289255 0.0204346 0.00396426 0.0271017 0.00442972 0.0223637 0.00764931 0.033488
16 1 Mg 2.87909 4.02453 50.0161 1.2 1 0.17073 0.0493864 0.00540563 0.010007 0.00172427 0.00768831 0.00438921 0.0198664 0.00296035 0.0133662 0.00322139 0.0233483 0.00333092 0.0219645 0.00533174 0.0258662 0.00511281 0.0235729 0.00918979 0.0301681
17 2 Si 1.15817 6.56667 50.9434 2.4 1 0.145133 0.0453935 0.00314988 0.00841222 0.00205956 0.00746184 0.00453872 0.0200777 0.0035793 0.0139854 0.00543203 0.0226222 0.00367567 0.0220063 0.00627005 0.0273511 0.00430255 0.0235806 0.00789715 0.0324975
18 3 O 1.35398 8.19195 50.9599 -1.2 1 0.149754 0.0443037 0.00387598 0.00871379 0.00236111 0.00805617 0.00434041 0.020385 0.00369001 0.0139173 0.00380931 0.0234623 0.00346103 0.0217054 0.00499941 0.0280996 0.00571743 0.0243234 0.00729614 0.0328187
19 3 O 0.918994 5.64698 57.729 -1.2 1 0.0159203 0.0120402 0.00391539 0.00559903 0.00146871 0.00616219 0.00207308 0.0217752 0.00205657 0.00912567 0.00333853 0.0256135 0.00281716 0.0180855 0.00417297 0.0305594 0.00310771 0.0241476 0.00575642 0.0438806
20 3 O -0.12427 5.944 50.3848 -1.2 1 0.16565 0.0467288 0.00651096 0.00982834 0.00302625 0.00743538 0.00482433 0.0203548 0.00399173 0.0141809 0.00405727 0.0230542 0.00352891 0.0227939 0.00466913 0.0257215 0.00491663 0.0233377 0.00823946 0.0315173
21 1 Mg -3.62676 4.68665 52.762 1.2 1 0.109118 0.0374702 0.0012491 0.00618447 0.00211098 0.00625376 0.00292124 0.019511 0.0029369 0.0112987 0.00339093 0.0244163 0.00268082 0.019735 0.00405133 0.0271206 0.00368794 0.0218371 0.00704 0.0345358
22 3 O 2.51882 5.96782 50.3687 -1.2 1 0.158255 0.0476458 0.0047097 0.00849821 0.00149581 0.00767943 0.00477371 0.0201353 0.00387048 0.0145325 0.00460999 0.0225908 0.00348409 0.0218824 0.00509587 0.0268922 0.0044821 0.0232575 0.00836362 0.0317946
23 1 Mg -1.98267 4.65891 55.1078 1.2 1 0.0499601 0.0253795 0.00590598 0.00481279 0.00161764 0.00567579 0.00189334 0.0209131 0.00298866 0.0101742 0.00341427 0.0246957 0.00218817 0.0186964 0.00440327 0.0296712 0.00395463 0.0235248 0.00620106 0.0402731
24 2 Si -2.04494 2.60402 53.2147 2.4 1 0.0986125 0.0365315 0.00316022 0.00622274 0.00194072 0.00619514 0.00222964 0.0200689 0.00341955 0.0111006 0.00334037 0.0236832 0.00311092 0.0200957 0.00375537 0.0279205 0.00502597 0.0225277 0.00653329 0.0372168
25 3 O -2.03235 1.06164 53.2357 -1.2 1 0.0930271 0.0346713 0.0032994 0.0062199 0.00266654 0.00570915 0.00210438 0.0207177 0.00270502 0.0096417 0.00273037 0.0248475 0.00333492 0.0192532 0.00507572 0.0286632 0.00434643 0.02288 0.00756128 0.0383805
26 3 O 0.0464824 2.75528 47.0074 -1.2 1 0.245962 0.0547796 0.0164133 0.0149899 0.00286751 0.00989407 0.00418801 0.0189983 0.00588055 0.0144723 0.0061292 0.0241473 0.00588605 0.0231692 0.00721882 0.0248209 0.00814307 0.0229503 0.00918754 0.0286073
27 3 O -3.32915 3.26935 53.828 -1.2 1 0.0810215 0.0326 0.00400096 0.00529863 0.00231459 0.00567643 0.00214356 0.0205731 0.00275481 0.010801 0.00256713 0.024049 0.00221 0.0195177 0.00319555 0.0283994 0.00438233 0.0224551 0.00653418 0.0378457
28 3 O -0.816663 3.3128 53.9045 -1.2 1 0.0828002 0.0331039 0.00350245 0.00555134 0.00205498 0.00568445 0.00213544 0.0210933 0.00360294 0.0105688 0.00258169 0.024221 0.00250911 0.0198501 0.00353849 0.0285958 0.00395818 0.0234028 0.00653375 0.0379297
29 1 Mg -3.47327 11.8977 57.314 1.2 1 0.0220286 0.0157424 0.00453692 0.00610211 0.00114209 0.00646621 0.00165479 0.0219626 0.00225423 0.01047 0.0023552 0.0262841 0.00260082 0.0193011 0.00307554 0.0309208 0.00365877 0.0254941 0.00509119 0.0410992
30 1 Mg -1.68881 11.5775 49.6243 1.2 1 0.181063 0.0482998 0.00817266 0.0113894 0.00279253 0.0100801 0.00429622 0.0218068 0.00476231 0.0163725 0.00462441 0.024773 0.00378732 0.0237774 0.00546543 0.0302351 0.00660738 0.0256199 0.00890201 0.0329816
31 2 Si -0.938421 8.80415 47.6627 2.4 1 0.237897 0.0528804 0.0156935 0.0153363 0.00353506 0.0108054 0.00646142 0.0207535 0.00587655 0.0169972 0.00623837 0.0233163 0.00520361 0.0238287 0.00663499 0.0274194 0.0100404 0.0256657 0.0124593 0.0294053
32 3 O -1.09 10.3442 47.9408 -1.2 1 0.226286 0.0533144 0.0138037 0.0145606 0.00364593 0.0117272 0.00644507 0.0222829 0.00631753 0.0177168 0.00683722 0.0238132 0.0044923 0.0238903 0.006762 0.0291466 0.00967483 0.0264774 0.0118269 0.03067
33 3 O -1.78524 8.05112 51.6937 -1.2 1 0.133184 0.0406308 0.00312077 0.00817267 0.00303346 0.00696753 0.00331303 0.0204707 0.00383085 0.0135007 0.00330664 0.023175 0.0032749 0.0204058 0.0042599 0.027531 0.00554988 0.0238457 0.00737396 0.0334391
34 3 O -2.12125 8.09251 48.4588 -1.2 1 0.206802 0.0516565 0.0105373 0.0118576 0.00318622 0.00957429 0.00586273 0.0206647 0.00514263 0.0172278 0.00558886 0.0231478 0.00422603 0.0238295 0.00605862 0.027452 0.00768689 0.025182 0.00997946 0.0300154
35 1 Mg 0.211281 6.67161 46.0908 1.2 1 0.280027 0.0543013 0.0241455 0.0182095 0.00432406 0.0125324 0.00869208 0.0212144 0.00687015 0.0174145 0.00709364 0.0235993 0.00717792 0.0249319 0.00816923 0.0251155 0.0100928 0.0260792 0.0135231 0.0271465
36 3 O 0.55057 8.50967 48.146 -1.2 1 0.216592 0.0529606 0.0117503 0.0136597 0.00296963 0.0104599 0.00616298 0.0215106 0.00537114 0.0168393 0.0058784 0.0226887 0.00483468 0.0245989 0.00656265 0.0282473 0.00817845 0.0265968 0.0111459 0.0306456
37 1 Mg 1.22797 7.24471 54.4179 1.2 1 0.0664663 0.0299738 0.00393268 0.00519757 0.0012684 0.00537727 0.0030005 0.0205505 0.00312523 0.0114148 0.00257266 0.0238701 0.00289971 0.0193724 0.00320393 0.0290749 0.0034431 0.023465 0.00618084 0.0370142
38 2 Si 0.957434 9.7973 56.321 2.4 1 0.0313028 0.0195296 0.00530277 0.00627759 0.00158184 0.00645753 0.0026568 0.0208967 0.00276341 0.0101559 0.00381972 0.0244692 0.00276376 0.0192892 0.00415598 0.0302212 0.00313146 0.0244238 0.00688372 0.0412777
39 3 O 1.01227 8.22239 56.4431 -1.2 1 0.0297851 0.0183245 0.00515805 0.00564667 0.00106444 0.00632168 0.0017447 0.0210673 0.00315239 0.00917523 0.00188445 0.0246496 0.00319552 0.0177938 0.00311215 0.0303656 0.00391286 0.0247777 0.0060261 0.0416088
40 3 O 1.32478 10.6165 52.6287 -1.2 1 0.113173 0.0372626 0.0015389 0.0076838 0.00210478 0.00878139 0.00270566 0.0209741 0.0034468 0.0127504 0.00351727 0.023773 0.00333245 0.0209119 0.00398629 0.0295451 0.00403145 0.0249472 0.00595011 0.0347587
41 3 O -0.422014 10.4484 55.8328 -1.2 1 0.0439531 0.0231527 0.00474892 0.00593166 0.0013737 0.00631087 0.00209038 0.0214437 0.00202418 0.0106397 0.00244807 0.025048 0.00240755 0.0188849 0.00299048 0.0298702 0.00300101 0.0247618 0.00630305 0.040205
42 3 O 2.17891 10.5017 55.5963 -1.2 1 0.0445346 0.0241563 0.00524531 0.00599708 0.000926769 0.00606125 0.0020225 0.0213156 0.00261791 0.0107975 0.00233954 0.0249223 0.00277541 0.0195644 0.00304551 0.0311588 0.0030894 0.0251779 0.00554238 0.0394816
43 1 Mg -0.135003 9.30909 51.9748 1.2 1 0.11913 0.0401087 0.00181946 0.00773023 0.00236849 0.00717838 0.00287317 0.0213255 0.00375376 0.0134391 0.00380006 0.0239381 0.00286162 0.0207723 0.00474075 0.0286872 0.0045029 0.0244128 0.00601902 0.0335918
44 1 Mg 2.11586 8.91824 49.181 1.2 1 0.187633 0.0519221 0.00732639 0.0105725 0.00261696 0.00939234 0.00528667 0.0211201 0.00473906 0.0169691 0.00608253 0.0235047 0.00353139 0.0243075 0.00595482 0.0290896 0.00628686 0.0257511 0.00877202 0.030914
45 2 Si 1.27482 11.4316 51.132 2.4 1 0.143227 0.04565 0.00257257 0.00902571 0.00255741 0.00947617 0.00356862 0.0216772 0.00450556 0.0151046 0.00527552 0.0236394 0.00391291 0.0234087 0.00578038 0.0306936 0.00485425 0.0262901 0.00788549 0.0353769
46 3 O 1.40153 12.9417 51.1821 -1.2 1 0.144094 0.0454563 0.00295962 0.00983441 0.0027027 0.0105505 0.00382545 0.0226585 0.00445923 0.0154734 0.00345961 0.0251948 0.00416978 0.0241404 0.00459797 0.0311209 0.00535059 0.0265927 0.00753211 0.0362127
47 3 O 0.985742 10.5086 57.8196 -1.2 1 0.0176202 0.0132544 0.00388758 0.00592668 0.00135942 0.00688662 0.00173674 0.0217455 0.00240369 0.00914319 0.0029453 0.0253506 0.00293738 0.0186963 0.00333399 0.0307625 0.00343752 0.0250795 0.00544868 0.0424001
48 3 O -0.149908 10.9437 50.6272 -1.2 1 0.153375 0.0467446 0.00437949 0.0103853 0.0027105 0.00866448 0.00347157 0.0220448 0.00417265 0.0149743 0.00380806 0.0241217 0.00373152 0.0230251 0.00561372 0.0298751 0.00514385 0.0258088 0.00793583 0.0337541
49 1 Mg -3.0512 9.53789 52.056 1.2 1 0.126339 0.0390242 0.00257014 0.00710948 0.0019956 0.00816582 0.00335365 0.0203412 0.00382629 0.0130965 0.00405054 0.0240371 0.00283975 0.0206509 0.00483147 0.0293637 0.00459434 0.0242258 0.00703315 0.0332875
50 3 O 2.49241 10.7434 50.3681 -1.2 1 0.158685 0.0464596 0.00457951 0.00850556 0.00205787 0.00964959 0.00448208 0.0214571 0.00399348 0.0155101 0.00470783 0.0238453 0.00326336 0.0232557 0.00552983 0.0304158 0.00531337 0.0258993 0.00830036 0.0347988
51 1 Mg -1.95997 9.65324 54.8375 1.2 1 0.0568936 0.0280814 0.00467628 0.00562752 0.0013919 0.0056945 0.00261685 0.0202649 0.00293914 0.011102 0.00341552 0.0247152 0.00247011 0.019396 0.00337571 0.029748 0.00340066 0.0240224 0.00556913 0.038567
52 2 Si -1.80605 7.46599 53.1975 2.4 1 0.0991536 0.0362633 0.00186822 0.00602363 0.00326789 0.00616596 0.00292341 0.020098 0.00388496 0.0126876 0.00313174 0.0235177 0.00245781 0.0202878 0.00366683 0.0277085 0.00469919 0.0230811 0.00613512 0.03543
53 3 O -1.9598 5.86042 53.2522 -1.2 1 0.0897819 0.0336375 0.00291315 0.00535128 0.00238233 0.00592207 0.00251871 0.0199587 0.0034127 0.0110148 0.00329511 0.0237954 0.00227751 0.0194992 0.00436798 0.0283886 0.00387844 0.0228505 0.00725933 0.0361505
54 3 O -0.929129 8.26267 46.1513 -1.2 1 0.272469 0.0527057 0.0227703 0.0175998 0.00427551 0.0133773 0.00889863 0.0223925 0.00662194 0.0173444 0.00744025 0.0220005 0.00633494 0.023343 0.00748341 0.0271522 0.0108381 0.0272852 0.0136257 0.0288859
55 3 O -2.99874 8.18862 53.8691 -1.2 1 0.0818283 0.0325686 0.00268876 0.00536008 0.00211517 0.00619051 0.00280667 0.0200445 0.0031423 0.0121021 0.00269182 0.0228651 0.00269235 0.0200276 0.00363558 0.0291647 0.00441352 0.0235544 0.00596229 0.0357975
56 3 O -0.504625 8.14077 53.8071 -1.2 1 0.0819233 0.0320935 0.00291941 0.00558081 0.00234128 0.0054533 0.00232742 0.0208845 0.00312765 0.0120284 0.00239101 0.023477 0.00249084 0.0204336 0.00340158 0.0285967 0.00389367 0.0243586 0.00624856 0.0368481
57 1 Mg -3.21449 16.5388 57.5264 1.2 1 0.0218572 0.0155901 0.00509707 0.00717768 0.00173626 0.00731085 0.00112789 0.0231104 0.00129394 0.0110464 0.00218273 0.027828 0.00252805 0.0211648 0.00240263 0.0310515 0.00336195 0.026694 0.00480818 0.0437061
58 1 Mg -1.70697 16.3856 49.7854 1.2 1 0.173696 0.0506638 0.00656818 0.012556 0.00269236 0.0136066 0.00377763 0.0258392 0.00519884 0.0181723 0.00466693 0.0277984 0.0043668 0.0270621 0.0053649 0.0331171 0.00609654 0.0283605 0.00843944 0.0375019
59 2 Si -1.05851 13.7209 47.627 2.4 1 0.234143 0.0546843 0.0154229 0.0171858 0.00374132 0.0156909 0.00526535 0.0257791 0.00709681 0.0200641 0.00599285 0.0254027 0.00575665 0.0274745 0.00679784 0.0330821 0.0102105 0.0281517 0.01122 0.0338812
60 3 O -0.818117 15.3226 47.5722 -1.2 1 0.233925 0.0535426 0.0149215 0.0167035 0.00398656 0.0185525 0.0054056 0.026627 0.00754197 0.0205687 0.00662549 0.0259079 0.00660678 0.0275094 0.0071681 0.033894 0.00988174 0.029832 0.0115996 0.0363392
61 3 O -1.84332 12.8408 51.5725 -1.2 1 0.129021 0.0412648 0.00215673 0.0094947 0.0022761 0.00957142 0.00251401 0.0228688 0.00386953 0.0143259 0.00281758 0.0252206 0.00381426 0.0226777 0.00491497 0.0309213 0.0049746 0.0258203 0.00683022 0.0369496
62 3 O -2.31886 13.2479 48.5365 -1.2 1 0.208214 0.0528606 0.0107773 0.0132022 0.00331456 0.0131556 0.00510591 0.0249787 0.00609467 0.0196535 0.00531579 0.0256969 0.0044871 0.0265314 0.00608611 0.0333758 0.00805176 0.0285045 0.00991139 0.0344999
63 1 Mg 0.194453 11.5554 46.9889 1.2 1 0.251204 0.052933 0.0191993 0.0171131 0.00336993 0.0154423 0.00685765 0.0249661 0.00743675 0.0190627 0.00699222 0.0249522 0.00614495 0.0264403 0.00741719 0.0312557 0.0111164 0.0292422 0.0135093 0.0322025
64 3 O 0.316174 13.115 48.3652 -1.2 1 0.208475 0.0517409 0.0113571 0.0138191 0.00327314 0.0136868 0.00409443 0.0247929 0.00587481 0.0187451 0.00488986 0.0247311 0.00474011 0.0265434 0.00560259 0.0326604 0.00763186 0.0284911 0.0103154 0.0349457
65 1 Mg 1.3754 11.8907 54.2831 1.2 1 0.0743104 0.0319295 0.00317399 0.00691889 0.00176933 0.00724042 0.00261926 0.0215349 0.00299281 0.0123497 0.0033242 0.0251683 0.00300715 0.0215208 0.00322102 0.0307153 0.0042032 0.0248469 0.00585598 0.0371676
66 2 Si 1.09878 14.6347 56.3063 2.4 1 0.0323137 0.0204063 0.00559326 0.00760425 0.00172396 0.00727606 0.00253869 0.0218709 0.00173342 0.0105321 0.00376609 0.0258988 0.00297703 0.0214451 0.00448855 0.0310232 0.00330475 0.0259393 0.00638525 0.0424383
67 3 O 0.966403 13.0078 56.3034 -1.2 1 0.0343095 0.0205149 0.00542897 0.00664399 0.00100299 0.00662654 0.00216454 0.0217394 0.00330917 0.0101891 0.00202806 0.0258003 0.00321337 0.0201071 0.00353783 0.0310829 0.0045467 0.0252734 0.00553002 0.0419338
68 3 O 1.23963 15.4368 52.6371 -1.2 1 0.111113 0.038547 0.00132684 0.00891832 0.00220648 0.0109126 0.00343848 0.0234715 0.0037401 0.0142442 0.00373114 0.026212 0.00445109 0.0233466 0.00387152 0.03165 0.0041183 0.0268742 0.00635767 0.038667
69 3 O -0.225296 15.3263 55.8052 -1.2 1 0.0453856 0.0253378 0.00597413 0.00700408 0.00144303 0.00732364 0.0026132 0.0231245 0.00218233 0.0117607 0.00280478 0.0265576 0.00281391 0.0219744 0.00425756 0.0313886 0.00351862 0.0267038 0.00649414 0.043059
70 3 O 2.36415 15.1726 55.552 -1.2 1 0.0445512 0.0252297 0.00595348 0.00725375 0.0011647 0.00701857 0.00241774 0.0226412 0.00224133 0.0112254 0.00238925 0.0261766 0.00325585 0.0220743 0.00266221 0.0317912 0.00311896 0.0268997 0.00585971 0.0419483
71 1 Mg -0.375566 14.2493 51.8759 1.2 1 0.126521 0.042143 0.00152239 0.0100667 0.00259505 0.0106038 0.00249341 0.0239925 0.00381399 0.0150694 0.00350243 0.0260505 0.00382849 0.0239469 0.00424106 0.0313493 0.00391358 0.026468 0.00676768 0.0369249
72 1 Mg 1.90902 13.8364 49.2872 1.2 1 0.181906 0.0527025 0.00607766 0.0112546 0.00271588 0.0126082 0.00492419 0.0238528 0.00491417 0.0184381 0.0047887 0.0255947 0.00429289 0.0258053 0.00605796 0.0336115 0.00642654 0.0284861 0.00887559 0.0355776
73 2 Si 1.18385 16.207 51.198 2.4 1 0.140665 0.0470475 0.00172318 0.0104996 0.00258623 0.011783 0.00372462 0.0239394 0.00426505 0.0162552 0.00523047 0.0257845 0.00490994 0.0255018 0.00601303 0.0323115 0.00454687 0.0282825 0.00854189 0.0390506
74 3 O 1.45854 17.7764 51.3118 -1.2 1 0.141712 0.045917 0.00213674 0.0106492 0.00196683 0.0125212 0.00380217 0.0250463 0.0045963 0.0159112 0.00331621 0.0270922 0.00419467 0.0253862 0.00395551 0.0329738 0.00588875 0.0286182 0.00821258 0.0409088
75 3 O 1.18691 15.3479 57.8589 -1.2 1 0.0173858 0.0138056 0.00440109 0.0068752 0.00144077 0.00721806 0.00165865 0.0225866 0.00204356 0.0102611 0.00280744 0.0266492 0.00264728 0.0213616 0.00297583 0.0311955 0.00284502 0.0262719 0.00486044 0.0436875
76 3 O -0.0595664 15.6277 50.5434 -1.2 1 0.156879 0.0480508 0.00408774 0.0116675 0.00332444 0.0124172 0.00463452 0.0244111 0.00451914 0.0163096 0.00348317 0.0255951 0.00474152 0.0262538 0.00505714 0.0329536 0.00465249 0.0281588 0.00811881 0.0383781
77 1 Mg -3.28738 14.0542 52.209 1.2 1 0.124494 0.04031 0.00218135 0.00901825 0.00190759 0.0112611 0.00275362 0.0228493 0.00397836 0.0146162 0.00393984 0.0253563 0.00382216 0.0234155 0.00402378 0.0320091 0.00407354 0.0264294 0.00670487 0.0369975
78 3 O 2.54756 15.5894 50.3561 -1.2 1 0.158303 0.049393 0.00403516 0.0102012 0.00213771 0.0124731 0.00405033 0.0245783 0.00457707 0.0175852 0.00455255 0.0258335 0.00437244 0.0264928 0.00564091 0.0329026 0.00506242 0.0279824 0.00812967 0.037736
79 1 Mg -1.83774 14.201 55.0347 1.2 1 0.0543089 0.0280831 0.00558577 0.00728593 0.00110759 0.00732938 0.00242325 0.0221904 0.00298799 0.0119142 0.00297021 0.0260789 0.00251283 0.0218167 0.00325735 0.0314945 0.00370503 0.026676 0.00617886 0.0406696
80 2 Si -1.64873 12.2204 53.0719 2.4 1 0.0961188 0.0370162 0.00236429 0.00776204 0.00215851 0.00761772 0.00202032 0.0211889 0.0039146 0.0131299 0.00311021 0.0247008 0.00325827 0.0224461 0.0046732 0.0301414 0.00482648 0.0249331 0.00616658 0.0379391
81 3 O -1.66769 10.6466 53.1095 -1.2 1 0.0945317 0.0354469 0.00229343 0.00697707 0.00239699 0.00749849 0.0023622 0.0210036 0.00348411 0.0122421 0.00329037 0.0237966 0.00243235 0.0206824 0.00357525 0.0302351 0.00427395 0.0250019 0.00595119 0.0366906
82 3 O -0.952284 12.9259 46.2402 -1.2 1 0.270005 0.0535685 0.022345 0.0188032 0.0043569 0.017855 0.00817585 0.0266227 0.00748152 0.0197852 0.00740102 0.0244113 0.00717839 0.0258001 0.00786448 0.0328916 0.0123489 0.0302547 0.0144921 0.0325957
83 3 O -2.78655 12.7984 53.8636 -1.2 1 0.0895069 0.0345934 0.00191457 0.00738229 0.00181497 0.00886594 0.00218531 0.0217085 0.00329335 0.0130767 0.00258587 0.0247132 0.00318684 0.0224093 0.00405806 0.031205 0.00395138 0.0256854 0.00575205 0.0378619
84 3 O -0.406516 12.8366 53.6163 -1.2 1 0.0825858 0.0335241 0.00276593 0.00730832 0.00227489 0.0065717 0.00225003 0.0224643 0.00365846 0.0128658 0.00308181 0.0250047 0.00294981 0.0225417 0.00441254 0.0313531 0.00413415 0.0264547 0.00569862 0.038998
85 1 Mg -2.88571 21.3905 57.512 1.2 1 0.0221309 0.0157895 0.0059136 0.00696622 0.00136062 0.00694642 0.00152479 0.0239669 0.00158702 0.0108278 0.00198577 0.0291398 0.00220118 0.0214898 0.00300307 0.0329075 0.00271078 0.0262308 0.00409637 0.0476994
86 1 Mg -1.50606 21.247 49.7759 1.2 1 0.176404 0.0505078 0.00624616 0.0133842 0.002865 0.0152467 0.00338839 0.0269049 0.00575017 0.016638 0.00558065 0.0302852 0.00450537 0.0264303 0.0061827 0.0348449 0.00645229 0.029031 0.00948418 0.0423608
87 2 Si -1.01841 18.5921 47.8196 2.4 1 0.234924 0.0546328 0.0141006 0.0181813 0.00341932 0.0190078 0.00480495 0.0291555 0.00788781 0.0204775 0.00605794 0.0287408 0.00704434 0.0289254 0.00703141 0.0355798 0.0104104 0.0299686 0.0114793 0.0392882
88 3 O -0.979935 20.1388 47.9381 -1.2 1 0.22461 0.0550993 0.0122672 0.0171342 0.00379136 0.0187608 0.00412249 0.0277844 0.00800286 0.0192704 0.00620791 0.0291628 0.00649045 0.0271656 0.00767172 0.0368581 0.00995546 0.0306671 0.0114028 0.0407653
89 3 O -1.56909 17.7067 51.6174 -1.2 1 0.132511 0.0430662 0.00188424 0.0109273 0.00307864 0.0112266 0.00248126 0.0252949 0.00412002 0.0151574 0.00338984 0.0274714 0.00392408 0.0249333 0.00371958 0.0327492 0.00553883 0.027628 0.00748968 0.0404094
90 3 O -2.34298 17.9639 48.4974 -1.2 1 0.207935 0.0555896 0.00938919 0.0146426 0.00306342 0.0159411 0.00458649 0.028534 0.006948 0.0201266 0.00486165 0.0279979 0.00500715 0.0283089 0.00627289 0.0358223 0.00834387 0.0305093 0.0101513 0.0392236
91 1 Mg 0.366706 16.6856 46.8881 1.2 1 0.245724 0.0552019 0.0153703 0.0183334 0.00325882 0.0200461 0.00605612 0.0291733 0.00779506 0.0211439 0.0058682 0.027841 0.00715784 0.0282917 0.00784841 0.0350041 0.0111363 0.0317166 0.0121944 0.0382553
92 3 O 0.291486 17.8627 48.5228 -1.2 1 0.204508 0.0535567 0.00962977 0.0148417 0.00322888 0.0165011 0.00418795 0.0282357 0.00669519 0.0196438 0.0048915 0.0273123 0.00544852 0.0281738 0.00536139 0.035283 0.00840417 0.0310772 0.0101682 0.0402122
93 1 Mg 1.34876 16.6164 54.4466 1.2 1 0.073922 0.0322822 0.00394479 0.00769189 0.00168686 0.00807665 0.00298308 0.0233385 0.00285184 0.0129532 0.00269387 0.0271548 0.00359667 0.0235634 0.0028192 0.0322793 0.0038673 0.0266084 0.00535419 0.0414778
94 2 Si 1.44947 19.311 56.4396 2.4 1 0.0315006 0.0200853 0.00643758 0.00848877 0.00182171 0.0070238 0.00250852 0.0234422 0.00175557 0.0106933 0.00322583 0.0269464 0.0029764 0.0226862 0.00473504 0.0319599 0.00316321 0.0264336 0.00558777 0.0465283
95 3 O 1.3714 17.76 56.4202 -1.2 1 0.0324336 0.0206913 0.00619809 0.00797496 0.00168486 0.00717747 0.00252464 0.0228989 0.00316627 0.0106266 0.0024226 0.0270767 0.00292864 0.0221801 0.00245739 0.0312732 0.00378671 0.0262296 0.0050035 0.0447702
96 3 O 1.34936 20.2718 52.7302 -1.2 1 0.105249 0.039433 0.00255477 0.00945594 0.00188297 0.0114443 0.00393115 0.0253078 0.00365691 0.0136645 0.00384326 0.028279 0.00397901 0.0236645 0.00441469 0.0329451 0.00428548 0.0280375 0.00708862 0.0440905
97 3 O 0.0303893 19.949 56.0122 -1.2 1 0.0386549 0.022957 0.00692441 0.00777163 0.00172919 0.0071911 0.00281793 0.02408 0.00169586 0.0106983 0.00246121 0.0278748 0.00277403 0.0224494 0.00360668 0.0330357 0.00320745 0.0273032 0.005643 0.047384
98 3 O 2.59997 19.9433 55.6592 -1.2 1 0.0441593 0.0255606 0.00693515 0.00807465 0.00132069 0.00734708 0.00248371 0.0239397 0.0022885 0.0112392 0.00256546 0.0275009 0.00283244 0.023158 0.00347214 0.0331338 0.00291561 0.0276841 0.00535267 0.0460236
99 1 Mg -0.0865125 19.0277 52.3239 1.2 1 0.110916 0.0427502 0.0020676 0.00968971 0.00266583 0.0103682 0.00245136 0.0250715 0.00389863 0.0146937 0.00358802 0.0282875 0.0031429 0.0244826 0.00451721 0.0331816 0.00427638 0.0288889 0.00714835 0.0420675
100 1 Mg 1.89898 18.5141 49.5684 1.2 1 0.177233 0.0532479 0.00488436 0.011833 0.00212747 0.0141547 0.00446986 0.0267781 0.00526641 0.0186417 0.00499303 0.0280038 0.00471013 0.0270609 0.00597758 0.0354116 0.00667572 0.0305169 0.009474 0.0407268
101 2 Si 1.54641 20.9084 51.3033 2.4 1 0.139853 0.0475989 0.00147895 0.0110727 0.00238227 0.01296 0.00455543 0.025621 0.0044876 0.0153684 0.00553099 0.0281971 0.00467199 0.0250201 0.00668456 0.0335173 0.0043383 0.0295788 0.00856877 0.0442651
102 3 O 1.8133 22.4421 51.3064 -1.2 1 0.141975 0.0472712 0.00174844 0.0108546 0.00188741 0.0131666 0.00341283 0.0252482 0.00454554 0.0148669 0.00393985 0.0292558 0.00433877 0.0255056 0.00389248 0.0339952 0.00596925 0.0296416 0.00823365 0.0455434
103 3 O 1.61492 20.0345 57.9679 -1.2 1 0.0173521 0.0132781 0.00456549 0.007402 0.00152864 0.00696451 0.0017373 0.0242503 0.00149455 0.0103125 0.00237208 0.0279465 0.00246503 0.0216607 0.00268108 0.0321498 0.00265215 0.0262428 0.00341228 0.0477109
104 3 O 0.250003 20.5094 50.5245 -1.2 1 0.157777 0.0494929 0.00377015 0.012319 0.00317678 0.0140419 0.00478391 0.0264716 0.00483053 0.0160707 0.00401096 0.0287255 0.00456373 0.0265489 0.00528168 0.0347399 0.00535616 0.0297929 0.00852997 0.0435545
105 1 Mg -3.0325 18.9646 52.3708 1.2 1 0.118435 0.0412991 0.00109689 0.00945804 0.00190264 0.0114226 0.00294118 0.0247167 0.00375303 0.0146512 0.0034213 0.0282918 0.00359191 0.0240791 0.00371688 0.0328991 0.00473684 0.0281686 0.00693953 0.0417502
106 3 O 2.81382 20.1481 50.678 -1.2 1 0.150347 0.0475599 0.00248359 0.0105537 0.00211637 0.0136084 0.00360914 0.0261941 0.00449493 0.0160879 0.00437364 0.0284618 0.00406688 0.025661 0.00653794 0.0347195 0.00486789 0.029401 0.0077524 0.0428264
107 1 Mg -1.64671 19.0496 55.3327 1.2 1 0.0494365 0.0277536 0.00684416 0.0081161 0.00151107 0.00738594 0.00253375 0.0240361 0.00252356 0.0116466 0.00330693 0.0280766 0.00203159 0.0227997 0.00402561 0.0325683 0.00402294 0.0273979 0.00631166 0.0452667
108 2 Si -1.56848 16.9552 53.1552 2.4 1 0.0954308 0.0377129 0.00269146 0.00911918 0.00283762 0.00887822 0.00203526 0.0232482 0.00389717 0.0138113 0.00301389 0.0265912 0.00320075 0.0244122 0.00339265 0.0319636 0.00484676 0.0271611 0.00609749 0.0419841
109 3 O -1.7072 15.4105 53.0084 -1.2 1 0.0976402 0.03643 0.00233932 0.00848548 0.0023865 0.00868133 0.00236648 0.0222363 0.00348046 0.0129794 0.00340397 0.0259501 0.00349446 0.0229272 0.00486737 0.0316757 0.00372649 0.0264223 0.00644249 0.0396946
110 3 O -0.666239 18.1966 46.332 -1.2 1 0.26898 0.0540945 0.0209198 0.0205615 0.00320808 0.023598 0.0062312 0.0324227 0.00897119 0.0217492 0.00727462 0.0289378 0.00799761 0.0284874 0.00806732 0.0365038 0.0116945 0.0324913 0.012352 0.0377964
111 3 O -2.87628 17.5774 53.8582 -1.2 1 0.0835218 0.0339162 0.0033958 0.00814864 0.00208213 0.00913243 0.00193138 0.0232125 0.00299526 0.0130439 0.00222861 0.026443 0.00298264 0.0241117 0.00277613 0.0324852 0.00362105 0.027016 0.00607749 0.0422017
112 3 O -0.265732 17.5779 53.837 -1.2 1 0.0823316 0.0346283 0.00358135 0.00846061 0.00288442 0.00758231 0.00177912 0.0239316 0.0033233 0.0128772 0.00287161 0.026736 0.00261317 0.0242353 0.00354421 0.0326085 0.00426864 0.0277338 0.00601508 0.0424425
113 1 Mg -2.91732 26.0177 57.4837 1.2 1 0.022873 0.0148851 0.00503341 0.00643312 0.00112928 0.00622031 0.00190561 0.0237458 0.00167917 0.00986997 0.00193276 0.028638 0.00252197 0.0198627 0.00280715 0.033592 0.0022344 0.0260732 0.00323619 0.0490525
114 1 Mg -1.10011 26.0739 49.7859 1.2 1 0.177261 0.0486584 0.00675421 0.0141675 0.00274249 0.0168713 0.00370831 0.0261092 0.00509729 0.0151162 0.00495854 0.0316737 0.00479581 0.0239177 0.00641317 0.0345731 0.00736815 0.0292615 0.0107045 0.044754
115 2 Si -1.08873 23.3761 47.7534 2.4 1 0.239815 0.0546861 0.0163917 0.0194221 0.00324205 0.0218377 0.00441992 0.0288201 0.00828659 0.0185725 0.00721894 0.0316471 0.00656216 0.0274148 0.00730309 0.0365942 0.0111442 0.0304688 0.0128336 0.0434987
116 3 O -1.20048 24.9558 47.898 -1.2 1 0.224449 0.0555341 0.0134333 0.0177595 0.00377491 0.0205491 0.00405005 0.0278201 0.00775476 0.0173564 0.00712238 0.0315311 0.00628391 0.0250743 0.00768233 0.0366484 0.00970571 0.0313044 0.012614 0.0440301
117 3 O -1.39209 22.5308 51.7519 -1.2 1 0.130292 0.0437337 0.00165639 0.0113008 0.00312555 0.0111123 0.00226293 0.025578 0.00370527 0.013567 0.00371987 0.0298041 0.00439673 0.0236442 0.00421556 0.0342213 0.00578715 0.0284124 0.00823886 0.0452306
118 3 O -2.35397 22.7107 48.508 -1.2 1 0.206412 0.0552524 0.00977654 0.0154833 0.00302879 0.0172755 0.00468282 0.0290839 0.00694069 0.0180739 0.00562844 0.0306989 0.00490072 0.026973 0.00642128 0.0358333 0.00838742 0.0317921 0.0112869 0.0440755
119 1 Mg 0.0736842 21.317 47.0595 1.2 1 0.248312 0.055823 0.0169557 0.0200467 0.0035923 0.0226108 0.00598896 0.0310499 0.00799367 0.0197806 0.00660194 0.0317328 0.00692425 0.0280476 0.00801796 0.0365464 0.0103135 0.0321699 0.0127816 0.0412817
120 3 O 0.368499 22.9497 48.4722 -1.2 1 0.211168 0.0561937 0.0104777 0.0167245 0.00279183 0.0188549 0.00421263 0.0285241 0.0073585 0.0181194 0.00580813 0.031038 0.00566986 0.0278292 0.00609036 0.0360972 0.0093919 0.0320915 0.0119254 0.0449221
121 1 Mg 1.7055 21.5009 54.5432 1.2 1 0.0684871 0.0319722 0.00503908 0.00789068 0.00126857 0.008358 0.00304711 0.0241996 0.00322182 0.0115559 0.00290404 0.0284525 0.00367135 0.0233296 0.00308444 0.0332732 0.00369607 0.0277291 0.00575876 0.0468328