ITEM: TIMESTEP
4000
ITEM: NUMBER OF ATOMS
10500
ITEM: BOX BOUNDS xy xz yz pp pp pp
0	8.9688	2.9896
0	118.725	0
0	252.977	0
ITEM: ATOMS id type element xu yu zu q Q_1 Q_2 Q_3 Q_4 Q_5 Q_6 Q_7 Q_8 Q_9 Q_10 Q_11 Q_12 Q_13 Q_14 Q_15 Q_16 Q_17 Q_18 Q_19 Q_20 Q_21
1 1 Mg -3.495 7.06863 57.1999 1.2 1 0.0184507 0.0149845 0.00410188 0.00742615 0.00128533 0.00644859 0.00146316 0.0233191 0.00172782 0.0124435 0.00205469 0.0279565 0.00211264 0.0217311 0.00264743 0.0328953 0.0036484 0.0257283 0.00382455 0.0408002
2 1 Mg -1.86805 7.08033 49.5581 1.2 1 0.170864 0.0476952 0.00526313 0.0109256 0.00386291 0.00861797 0.00428477 0.0217306 0.00391021 0.0151909 0.00406822 0.024017 0.00459909 0.0215159 0.00611292 0.0281965 0.00656074 0.0240417 0.00722864 0.0283907
3 2 Si -0.488578 4.10218 47.3834 2.4 1 0.22429 0.0557743 0.0123227 0.0142363 0.00286187 0.0093705 0.00448944 0.0205498 0.00651987 0.0172429 0.00603974 0.0222019 0.00515302 0.0209494 0.00575789 0.0269083 0.00787736 0.0236072 0.00971088 0.0266323
4 3 O -0.686627 5.62646 47.1137 -1.2 1 0.224932 0.0548614 0.0131606 0.0142188 0.0047983 0.00986305 0.00583037 0.0209351 0.00636347 0.0174919 0.00590783 0.0222882 0.00467993 0.0210929 0.00515373 0.026282 0.00852784 0.0237991 0.0100176 0.0256328
5 3 O -2.18079 3.57273 51.1245 -1.2 1 0.127299 0.0430761 0.00215722 0.00892368 0.00153127 0.00647332 0.00271958 0.0209617 0.00335425 0.0130227 0.00321052 0.0235092 0.00399601 0.018628 0.00329415 0.0280619 0.0050707 0.0221825 0.00650817 0.0313608
6 3 O -1.75486 3.55866 48.1942 -1.2 1 0.198087 0.0539554 0.00911679 0.0118005 0.00251718 0.0075276 0.00412784 0.0206897 0.00580186 0.0160491 0.00495231 0.0220151 0.00426864 0.0200625 0.00486536 0.0265933 0.0061439 0.0221747 0.00809677 0.0269957
7 1 Mg 1.46443 2.37902 46.1991 1.2 1 0.25391 0.0568426 0.0184644 0.0175159 0.00478879 0.0100467 0.0045042 0.0199515 0.006456 0.017694 0.00558141 0.0218535 0.00702412 0.0197205 0.00730456 0.0264752 0.00807983 0.0220168 0.00884267 0.0253538
8 3 O 0.899278 3.61499 48.098 -1.2 1 0.203044 0.0532104 0.00951452 0.0131417 0.00244195 0.00769042 0.00391272 0.0199965 0.00447834 0.0163379 0.00472466 0.0215752 0.00396064 0.0199155 0.00494676 0.0274326 0.00595876 0.0225869 0.0075366 0.0267304
9 1 Mg 0.958551 2.39061 53.9597 1.2 1 0.0650956 0.0324824 0.00414999 0.00773718 0.00113068 0.00519575 0.00330774 0.0213702 0.00339637 0.0114021 0.00327991 0.0249826 0.00324037 0.0198999 0.00324512 0.0303757 0.00421138 0.0229457 0.00542011 0.0351485
10 2 Si 0.864608 5.19267 55.9709 2.4 1 0.0282973 0.0203276 0.00534359 0.00835739 0.00134826 0.00611827 0.00264005 0.0221296 0.00199344 0.0113911 0.00321599 0.02588 0.0027002 0.0207244 0.00471514 0.0316071 0.00406101 0.024399 0.00477665 0.0404387
11 3 O 0.841154 3.58723 56.0117 -1.2 1 0.0298913 0.0213788 0.00522498 0.00810557 0.0016958 0.00549416 0.00235553 0.0220197 0.00326325 0.0115024 0.00206614 0.02545 0.00352466 0.0203134 0.00405503 0.0318463 0.00497355 0.0245158 0.005104 0.0393731
12 3 O 1.13736 6.29882 52.1466 -1.2 1 0.107652 0.0394275 0.00175398 0.00908748 0.00259078 0.00761448 0.00347232 0.0215844 0.0036739 0.0132274 0.00299447 0.0246677 0.00434028 0.0204282 0.0038882 0.0287414 0.0053262 0.0240428 0.00656148 0.0327973
13 3 O -0.399615 5.80365 55.294 -1.2 1 0.0393661 0.0248471 0.00595933 0.00775194 0.00160002 0.0058898 0.0021834 0.0231593 0.00241129 0.0122397 0.00229529 0.0261831 0.00270706 0.0213122 0.00352892 0.031975 0.00362758 0.0251764 0.00473826 0.0390939
14 3 O 2.1847 5.8418 55.1529 -1.2 1 0.0401652 0.0250124 0.00593363 0.00773557 0.00135265 0.00647671 0.00243692 0.0227303 0.00200252 0.011994 0.0021853 0.0258775 0.00286895 0.0213747 0.00352895 0.0325182 0.00374141 0.0254564 0.00494526 0.0384414
15 1 Mg -0.592976 4.73509 51.5034 1.2 1 0.125021 0.0433529 0.00141119 0.00952658 0.00193069 0.00649875 0.00277376 0.0212725 0.00333859 0.0134333 0.0027818 0.0240822 0.0040744 0.0198175 0.00401063 0.0288753 0.00472335 0.0230539 0.00685267 0.0301714
16 1 Mg 2.6594 4.1987 49.2776 1.2 1 0.171268 0.0520907 0.00501446 0.0111484 0.0034027 0.00688916 0.00458033 0.0206441 0.00409124 0.0148566 0.0032159 0.0225959 0.00457563 0.0202732 0.00452235 0.0270923 0.00522728 0.0227876 0.00816671 0.028248
17 2 Si 1.08601 6.79147 50.5582 2.4 1 0.143917 0.0476822 0.00151426 0.0100959 0.00311677 0.00812431 0.00396294 0.0214737 0.00429913 0.0144617 0.00415654 0.0238513 0.0038244 0.0218825 0.00603682 0.0295896 0.00581212 0.0251457 0.00814296 0.0300133
18 3 O 1.39964 8.38405 50.6215 -1.2 1 0.144465 0.0466195 0.00208435 0.00966871 0.00282889 0.00964247 0.00394757 0.0213828 0.00439782 0.0150444 0.003719 0.0249975 0.00467205 0.0232005 0.0049903 0.0294994 0.00624368 0.0254626 0.00747733 0.0306093
19 3 O 0.988876 5.80043 57.4862 -1.2 1 0.0157193 0.0140598 0.00368253 0.00783819 0.00106335 0.00636068 0.00176615 0.0231679 0.00209413 0.0116047 0.00245455 0.0270488 0.00278992 0.0212931 0.00388082 0.0327885 0.00337576 0.0255415 0.00405901 0.0415604
20 3 O -0.215057 6.19342 50.0977 -1.2 1 0.161557 0.0471676 0.00493093 0.0105938 0.00350225 0.00765713 0.00396906 0.0211281 0.00427159 0.0150251 0.00288378 0.0229502 0.00439755 0.0217139 0.00469299 0.0273046 0.00603959 0.0237092 0.00744377 0.0294312
21 1 Mg -3.68121 4.67878 51.9224 1.2 1 0.110411 0.0413381 0.00223858 0.00842313 0.00196302 0.00677254 0.00290603 0.0211819 0.00397892 0.0129025 0.00324698 0.02463 0.00364882 0.0194789 0.00325846 0.0284425 0.00483284 0.0227784 0.00638353 0.0315239
22 3 O 2.4287 6.11876 49.9963 -1.2 1 0.153419 0.0481117 0.00322774 0.00948349 0.00294973 0.00857454 0.00379384 0.020996 0.00346986 0.0143803 0.00359761 0.0229684 0.00454792 0.0217846 0.00506605 0.028229 0.00557428 0.0237287 0.00778949 0.0294847
23 1 Mg -2.14215 4.8358 54.6453 1.2 1 0.0498998 0.0286945 0.00593092 0.00774411 0.00131249 0.00610162 0.00149876 0.0221121 0.00271761 0.0118242 0.00306511 0.026119 0.00246324 0.0205393 0.0034506 0.0314552 0.00409118 0.0246375 0.00529595 0.0373301
24 2 Si -1.97395 2.79158 52.6526 2.4 1 0.0972934 0.0385241 0.002376 0.00800718 0.00186234 0.00536369 0.00246562 0.0207227 0.00337323 0.0122033 0.00259541 0.0240528 0.00336134 0.0187067 0.00366941 0.0291069 0.00507706 0.0223704 0.00616086 0.0333192
25 3 O -1.95076 1.26227 52.4477 -1.2 1 0.100567 0.037361 0.00208587 0.00801466 0.00139308 0.00504635 0.0028856 0.0207177 0.00357456 0.0120399 0.00349161 0.0240536 0.00333874 0.0177369 0.00463118 0.0291993 0.00383329 0.021645 0.00531265 0.0324101
26 3 O -0.211184 3.25432 45.9886 -1.2 1 0.259385 0.0578521 0.0192315 0.0175707 0.00396809 0.00908261 0.00510685 0.0197838 0.00716526 0.0181551 0.00657411 0.0217881 0.00721259 0.019999 0.00844785 0.0266177 0.00818531 0.0227541 0.00983511 0.0254694
27 3 O -3.21502 3.51335 53.5043 -1.2 1 0.0750202 0.0348933 0.00392058 0.00778104 0.00172797 0.00560925 0.00211459 0.0211779 0.00332777 0.0124704 0.00257287 0.0244255 0.00269303 0.0200597 0.00354539 0.030302 0.00486281 0.023225 0.00561373 0.0345951
28 3 O -0.69361 3.41408 53.2568 -1.2 1 0.0792707 0.0352677 0.00354905 0.00757347 0.00178289 0.00589692 0.00184791 0.0213996 0.00342951 0.0122487 0.00284242 0.0246485 0.00293166 0.0200936 0.00282875 0.0300387 0.00466772 0.0238002 0.00576392 0.0350774
29 1 Mg -3.25041 11.9359 57.1163 1.2 1 0.021098 0.0154261 0.00405933 0.00686236 0.00161856 0.00701791 0.00153676 0.0230106 0.00185508 0.0128226 0.00205645 0.0283603 0.00214643 0.0225895 0.00286873 0.0334621 0.00289395 0.0266727 0.00335947 0.0407793
30 1 Mg -1.44531 11.9405 49.5109 1.2 1 0.176464 0.0448234 0.00640684 0.0136176 0.00413857 0.0129848 0.0034309 0.0219856 0.00541034 0.016669 0.00531469 0.0261413 0.00453508 0.0249007 0.00660378 0.0295909 0.00578911 0.0268446 0.00828542 0.028675
31 2 Si -1.20671 9.24774 47.3299 2.4 1 0.237338 0.0516343 0.0148632 0.0166226 0.00551286 0.0124575 0.00787514 0.0201914 0.00749806 0.0169275 0.00737727 0.0238067 0.00542527 0.0238018 0.00696687 0.0281535 0.0103628 0.0259135 0.0102811 0.0243039
32 3 O -1.01287 10.7938 47.4025 -1.2 1 0.229882 0.0495554 0.013341 0.0167799 0.00493146 0.0152238 0.00597975 0.0220819 0.00775476 0.0176124 0.00790401 0.0248842 0.0061929 0.0248186 0.0077319 0.0292291 0.00942827 0.0282161 0.0108913 0.0258196
33 3 O -1.7194 8.20467 51.378 -1.2 1 0.124579 0.0421422 0.00159975 0.00967009 0.00354191 0.00819983 0.00249458 0.0217581 0.00349604 0.0142066 0.00419222 0.025477 0.00433911 0.0220189 0.00470272 0.0295782 0.00634605 0.024938 0.00699334 0.0318314
34 3 O -2.27462 8.4282 48.1887 -1.2 1 0.204764 0.0519497 0.00886677 0.0131862 0.00416287 0.00985177 0.00578143 0.0213673 0.00525732 0.0168864 0.00513353 0.0244894 0.00381888 0.0238651 0.00686184 0.0290012 0.00773774 0.0254097 0.00792734 0.0260729
35 1 Mg -0.351411 7.18232 46.1284 1.2 1 0.26301 0.0546163 0.0193434 0.018226 0.00670778 0.0138203 0.00948677 0.0215863 0.0078817 0.0169339 0.0076276 0.0222465 0.00802389 0.0230765 0.00871809 0.0267283 0.0101358 0.0253822 0.0125071 0.0242834
36 3 O 0.279036 8.64518 47.6962 -1.2 1 0.21667 0.0535374 0.0106828 0.0148403 0.00459939 0.0126109 0.0060799 0.0224524 0.00636144 0.0171328 0.0061419 0.0240264 0.00478782 0.0243778 0.00594009 0.0276902 0.00905562 0.0270525 0.00905305 0.0259053
37 1 Mg 1.16206 7.20383 54.0817 1.2 1 0.0652124 0.0317713 0.00492249 0.00789748 0.00158043 0.00659226 0.00258533 0.0225553 0.00230381 0.0128527 0.00289197 0.0258331 0.0034656 0.0215946 0.00282568 0.0308423 0.00405635 0.0249137 0.00602843 0.0363361
38 2 Si 1.18132 9.85236 56.1634 2.4 1 0.0301551 0.0198112 0.00488397 0.00811149 0.00150061 0.00661321 0.00233773 0.0227794 0.00215215 0.0121878 0.00310956 0.0267499 0.00285044 0.02227 0.00423952 0.0328 0.00343224 0.0260385 0.00450707 0.0412269
39 3 O 1.14341 8.30377 56.1919 -1.2 1 0.028046 0.0194911 0.00530357 0.00775303 0.000818899 0.00662043 0.00207922 0.0229971 0.00324859 0.0117162 0.00218402 0.0267036 0.00324592 0.0219224 0.00298722 0.0325101 0.00411117 0.0258721 0.00446841 0.0408264
40 3 O 1.50644 10.8719 52.2131 -1.2 1 0.107008 0.0378269 0.00227956 0.00867139 0.0025183 0.0103116 0.00285552 0.0223293 0.00361978 0.0147689 0.00348795 0.0259376 0.00472398 0.0230857 0.00449589 0.0318295 0.00444862 0.0266447 0.00587671 0.0330792
41 3 O -0.117244 10.5244 55.4382 -1.2 1 0.042846 0.0243841 0.00547373 0.00728846 0.00127873 0.00723827 0.00206175 0.0228559 0.00189334 0.0127528 0.00214377 0.0270176 0.00280692 0.0229591 0.00374043 0.0334266 0.00309941 0.0268996 0.00454679 0.0393405
42 3 O 2.4892 10.4931 55.5175 -1.2 1 0.0402147 0.0240748 0.00618416 0.00733868 0.00134608 0.00732821 0.00296736 0.0234036 0.00255042 0.0127417 0.00257282 0.0265998 0.00298965 0.0232069 0.00386224 0.0337353 0.00362112 0.0272141 0.00459403 0.0394913
43 1 Mg -0.208342 9.51731 51.6065 1.2 1 0.114734 0.0415281 0.00256014 0.00969972 0.00277568 0.00832729 0.00214461 0.0220278 0.00316313 0.0140288 0.00316864 0.0258694 0.00386628 0.0225298 0.00519948 0.0306727 0.00463174 0.0262639 0.00677745 0.0321209
44 1 Mg 1.82703 9.30734 48.6875 1.2 1 0.187175 0.052038 0.00595572 0.0120665 0.00273548 0.0115268 0.00575086 0.0223006 0.00475001 0.0167989 0.00462036 0.0245764 0.0043125 0.0246022 0.00637016 0.0290994 0.00687699 0.0268485 0.00840573 0.027815
45 2 Si 1.39966 11.6108 50.7509 2.4 1 0.143054 0.0448491 0.000944803 0.0107494 0.00311749 0.0115173 0.00350305 0.0211046 0.00452792 0.0154921 0.00495682 0.0252944 0.00508585 0.0255119 0.0061549 0.0311202 0.00513078 0.027468 0.00785711 0.0313534
46 3 O 1.52328 13.1472 50.9386 -1.2 1 0.142737 0.0431334 0.00257904 0.0105683 0.0028185 0.0123417 0.00316092 0.0220658 0.00436933 0.0156389 0.00332663 0.0262649 0.00397692 0.0252824 0.0046059 0.0306728 0.00435069 0.0268826 0.00742742 0.0315985
47 3 O 1.1908 10.4453 57.6541 -1.2 1 0.0161076 0.0132007 0.00291207 0.00731331 0.00116174 0.00710234 0.00174832 0.0234305 0.00174094 0.0121925 0.00235326 0.0279953 0.00289605 0.0223545 0.00361813 0.033285 0.00265697 0.0266117 0.00326034 0.0419775
48 3 O 0.0874405 10.9837 50.2684 -1.2 1 0.154394 0.0452246 0.00353094 0.011983 0.00344945 0.0113505 0.00378477 0.0209841 0.00401835 0.0155139 0.00380041 0.0252783 0.00482699 0.0249391 0.00607671 0.0304826 0.00521458 0.0270239 0.00769705 0.0300692
49 1 Mg -3.34651 9.2898 51.9597 1.2 1 0.114735 0.0396007 0.00166834 0.00856278 0.00214725 0.0101386 0.00269429 0.0217302 0.00360524 0.0145477 0.00352436 0.0260054 0.00404623 0.0230948 0.00455818 0.030841 0.00529328 0.0259044 0.0065789 0.0317031
50 3 O 2.56486 10.9995 49.722 -1.2 1 0.162674 0.0473096 0.00360496 0.0104453 0.00290362 0.0127044 0.00449763 0.021388 0.00445802 0.0166893 0.00443313 0.0255145 0.00455535 0.0257268 0.00590333 0.0300814 0.00541877 0.026742 0.00803398 0.0296746
51 1 Mg -1.93132 9.54384 54.7388 1.2 1 0.0505764 0.0277566 0.00623203 0.00743569 0.00156502 0.00713263 0.0019583 0.0225256 0.00225184 0.0126925 0.00292737 0.0267877 0.00275953 0.0226278 0.00366079 0.0321633 0.0038054 0.0258949 0.00547287 0.0377074
52 2 Si -1.84829 7.41999 52.8742 2.4 1 0.0885747 0.0368042 0.00418946 0.0085308 0.00282522 0.00716355 0.00182707 0.0214289 0.00304172 0.0129573 0.00310316 0.0251493 0.00330641 0.0218225 0.00443277 0.0300878 0.00482507 0.0243159 0.00655532 0.0344738
53 3 O -1.91621 5.8881 52.6959 -1.2 1 0.0939986 0.0366627 0.0028259 0.00821267 0.00221823 0.00655603 0.00212242 0.0217511 0.00389145 0.0123141 0.00286611 0.0244072 0.00350886 0.0201293 0.00446278 0.0300453 0.00459736 0.0240335 0.00651275 0.0335298
54 3 O -1.3725 8.75604 45.852 -1.2 1 0.264199 0.0535533 0.0199421 0.0192146 0.00667211 0.0140443 0.00922863 0.0215909 0.00789401 0.0178978 0.0081815 0.0241561 0.00665238 0.0229801 0.00914956 0.0278478 0.0116719 0.0267177 0.01064 0.0229019
55 3 O -3.04843 8.19322 53.5387 -1.2 1 0.07848 0.0328928 0.00419368 0.00772057 0.00254935 0.00787975 0.00180492 0.0219062 0.00276403 0.0131048 0.00313311 0.0252191 0.00322326 0.0221463 0.00389551 0.0313475 0.00483441 0.0252855 0.00628206 0.0351926
56 3 O -0.526344 8.06777 53.4685 -1.2 1 0.0760451 0.0333866 0.004776 0.00791786 0.00222737 0.00698916 0.00137979 0.0222158 0.00269975 0.0128151 0.00280882 0.0254511 0.00254212 0.0224237 0.0041343 0.0312517 0.00456946 0.0257323 0.00632038 0.03565
57 1 Mg -3.17668 16.5042 57.0872 1.2 1 0.0214942 0.0147468 0.00426633 0.00700741 0.00112782 0.00666869 0.00135048 0.0227351 0.00241351 0.0123824 0.00221927 0.0279291 0.00166602 0.0223489 0.00287262 0.0334075 0.00333917 0.0266636 0.00361589 0.0407379
58 1 Mg -1.33476 16.6117 49.4197 1.2 1 0.177079 0.0454721 0.00683606 0.0122112 0.00301586 0.0136778 0.00454025 0.0230413 0.00513169 0.0163532 0.00561704 0.0263927 0.00522785 0.0245038 0.00641526 0.031303 0.00490726 0.0265241 0.00743697 0.0292466
59 2 Si -0.643536 14.2505 47.4964 2.4 1 0.22918 0.0500153 0.0131462 0.0174715 0.00284152 0.0170756 0.00387489 0.0228896 0.007669 0.0177987 0.00648634 0.025713 0.00672123 0.026607 0.0073829 0.029438 0.00876458 0.028841 0.010819 0.0264599
60 3 O -0.758232 15.8212 47.574 -1.2 1 0.227472 0.049706 0.0132923 0.0170184 0.00321314 0.0165278 0.00441735 0.022054 0.00723017 0.0176221 0.00671178 0.0258279 0.00663481 0.0260161 0.00788543 0.0305756 0.00819601 0.0275966 0.0100031 0.027056
61 3 O -1.51738 12.8705 51.3294 -1.2 1 0.132614 0.0405991 0.0021142 0.0106386 0.00214568 0.010775 0.00199098 0.0221303 0.00380089 0.0154322 0.00383709 0.0268706 0.00380415 0.0241621 0.00375751 0.030864 0.00483797 0.0266465 0.00748708 0.0319562
62 3 O -1.86652 13.5298 48.3259 -1.2 1 0.201827 0.0496379 0.00903471 0.0148348 0.00379509 0.0145198 0.00335241 0.0236413 0.00571642 0.018029 0.00525038 0.0266583 0.00502661 0.0264958 0.00589146 0.0301409 0.00656559 0.0277415 0.0091207 0.0274366
63 1 Mg -0.320183 11.985 46.0816 1.2 1 0.263332 0.0521267 0.0193278 0.0206123 0.00623521 0.0199388 0.00802853 0.0226599 0.00883697 0.0178531 0.00847576 0.0258693 0.00814511 0.0264663 0.00975353 0.0286036 0.0102171 0.0295387 0.0131898 0.024479
64 3 O 0.681487 13.6014 48.0056 -1.2 1 0.213527 0.0507587 0.0101338 0.0158687 0.0028127 0.0160534 0.00400662 0.0228859 0.00655709 0.0179588 0.00560684 0.0255824 0.0059569 0.0280454 0.00671815 0.0295357 0.00778387 0.0289188 0.0101888 0.027441
65 1 Mg 1.36637 12.0753 54.1959 1.2 1 0.0662027 0.0310049 0.00478294 0.00765279 0.0019413 0.00793334 0.00321386 0.0225698 0.00297515 0.0138343 0.00240195 0.0267006 0.00335918 0.0239857 0.00285168 0.0336587 0.00373656 0.0271503 0.00539614 0.0367204
66 2 Si 1.28587 14.5934 56.0305 2.4 1 0.0313481 0.0192239 0.00531283 0.00814333 0.00181901 0.00703304 0.00215884 0.0224259 0.00203838 0.0127713 0.00269211 0.0268712 0.00244938 0.0229846 0.00364032 0.0337889 0.00359791 0.0272305 0.00463259 0.0411556
67 3 O 1.2907 13.0231 56.1568 -1.2 1 0.0293601 0.0192905 0.00536967 0.00773577 0.00118647 0.00672413 0.00164637 0.0223073 0.00302152 0.0123013 0.00158358 0.0269843 0.00292351 0.0231354 0.00260679 0.0334334 0.00317775 0.0268631 0.00409495 0.0408322
68 3 O 1.48421 15.7236 52.2082 -1.2 1 0.110377 0.0364611 0.00149185 0.00862525 0.00262123 0.0114753 0.00370964 0.0225812 0.00325527 0.0146517 0.00347837 0.0267501 0.00445048 0.0238219 0.00449402 0.0320564 0.00418902 0.0267274 0.00630284 0.0335279
69 3 O -0.0151438 15.1644 55.5431 -1.2 1 0.0391073 0.0225973 0.00555732 0.00725895 0.00154811 0.00741168 0.00229215 0.0224564 0.00195196 0.0128574 0.00210075 0.0273516 0.00249721 0.0233125 0.00265521 0.0338675 0.00285709 0.027166 0.00440686 0.039915
70 3 O 2.46334 15.1847 55.2223 -1.2 1 0.042103 0.0242385 0.00598635 0.00723811 0.00184586 0.0073474 0.00224754 0.0225562 0.00245987 0.0130174 0.0021514 0.0272321 0.00254021 0.0237267 0.00315938 0.0343982 0.00289206 0.0273056 0.00478847 0.0389109
71 1 Mg -0.100095 14.2896 51.5559 1.2 1 0.122955 0.0417742 0.00161727 0.0102983 0.00270361 0.00987995 0.00272256 0.0221705 0.00325974 0.0151494 0.00325044 0.0268856 0.003586 0.0246331 0.00466372 0.0317352 0.003803 0.0265285 0.00639678 0.031916
72 1 Mg 2.27567 14.0183 48.9516 1.2 1 0.184358 0.0496197 0.00617865 0.0121094 0.00250982 0.0141722 0.00448331 0.0222311 0.00521235 0.0173279 0.00507133 0.0260576 0.00501514 0.0274489 0.00544702 0.0311424 0.00694746 0.027828 0.0087419 0.0285832
73 2 Si 1.5415 16.3801 50.6835 2.4 1 0.145837 0.0441798 0.00285417 0.0100808 0.00291517 0.0130492 0.00440389 0.0218611 0.00370663 0.0151751 0.00475175 0.0255919 0.00447736 0.0257172 0.0059919 0.0321194 0.00472589 0.0271661 0.00705038 0.031251
74 3 O 1.69796 17.9022 50.7891 -1.2 1 0.147428 0.0430337 0.00329051 0.0100891 0.00286959 0.0126917 0.00545597 0.02212 0.00376006 0.0149429 0.00385348 0.0264982 0.00463611 0.0242178 0.00490122 0.0317451 0.00535214 0.0252266 0.00686454 0.0323751
75 3 O 1.33846 15.2583 57.549 -1.2 1 0.0173707 0.013038 0.0033917 0.00729368 0.0011729 0.00685159 0.00134793 0.0230499 0.00167259 0.0120363 0.00290138 0.027469 0.00238651 0.0223045 0.00389341 0.033212 0.00318271 0.0267683 0.00358279 0.0417359
76 3 O 0.315903 15.6968 50.018 -1.2 1 0.160662 0.045172 0.00476831 0.0116819 0.00336368 0.0134621 0.00436308 0.0223146 0.00429813 0.0158943 0.00389202 0.0262825 0.00414044 0.0261147 0.00573423 0.0307614 0.00418202 0.0270691 0.00729377 0.0303048
77 1 Mg -3.08009 14.291 51.983 1.2 1 0.120223 0.0390859 0.00142972 0.00882392 0.00168965 0.0114454 0.00269505 0.0218749 0.00330848 0.0156082 0.0034361 0.0273392 0.003626 0.0243034 0.0041897 0.0310511 0.00411677 0.0261445 0.00677078 0.0322719
78 3 O 2.80387 15.7284 49.951 -1.2 1 0.155769 0.0456778 0.00335943 0.00984141 0.00215167 0.0136235 0.00464138 0.0224332 0.0040851 0.0169039 0.00419596 0.0264756 0.00412282 0.0258856 0.00592621 0.032063 0.00465772 0.0265702 0.00766506 0.0301223
79 1 Mg -1.74176 14.2522 54.8409 1.2 1 0.0489148 0.0263123 0.00576743 0.00744032 0.00162222 0.00804284 0.0017789 0.0226173 0.00256119 0.0135349 0.00244586 0.027286 0.00216763 0.0240463 0.00321799 0.0337082 0.00281873 0.0270773 0.00473924 0.0382185
80 2 Si -1.48072 12.1815 52.8903 2.4 1 0.0904236 0.0359948 0.00380476 0.00894379 0.00234529 0.00846473 0.00136686 0.0220934 0.00377693 0.0144718 0.00281543 0.0268113 0.00341091 0.0244298 0.00383847 0.0322664 0.00436515 0.0264714 0.00608401 0.0344203
81 3 O -1.54393 10.6659 52.8442 -1.2 1 0.091474 0.0350881 0.00354067 0.00863503 0.00235013 0.00804735 0.00137191 0.0209701 0.00370387 0.0132323 0.00326041 0.026179 0.00337433 0.0228757 0.00479338 0.03197 0.00456231 0.025726 0.00647515 0.0345017
82 3 O -0.742739 13.9545 45.8005 -1.2 1 0.273892 0.0504444 0.0222248 0.0224112 0.00455579 0.0200536 0.00658615 0.0251759 0.00912771 0.0188209 0.00777833 0.0264862 0.00732261 0.0264037 0.0097688 0.0292011 0.0113196 0.0301284 0.0129436 0.0245157
83 3 O -2.83245 12.8 53.5668 -1.2 1 0.0791674 0.0339516 0.00410174 0.00752524 0.00208741 0.00918088 0.00205377 0.0219939 0.00291034 0.0144789 0.00292655 0.0266176 0.00297915 0.0246619 0.00361178 0.0333297 0.00337475 0.0265845 0.00554529 0.0351716
84 3 O -0.325176 12.8893 53.6819 -1.2 1 0.0718419 0.0312821 0.00445737 0.00773693 0.00206164 0.00791474 0.00123415 0.0226449 0.00282177 0.0138668 0.0021047 0.0267069 0.00250946 0.024561 0.00326567 0.0332561 0.00295776 0.0271766 0.00517301 0.0363407
85 1 Mg -2.96314 21.1639 57.104 1.2 1 0.0208057 0.0134218 0.00435699 0.00686712 0.000876718 0.00695473 0.00180772 0.0232352 0.00191638 0.0107615 0.00201985 0.029098 0.00174349 0.0207831 0.00289545 0.0315498 0.00315481 0.0259342 0.00366718 0.0421952
86 1 Mg -1.4774 20.976 49.4109 1.2 1 0.180232 0.0454244 0.00720606 0.0126707 0.00300448 0.0138839 0.0031077 0.0225571 0.00499342 0.0130935 0.00513048 0.0254707 0.00414131 0.0208365 0.00471047 0.0298637 0.00547555 0.0210907 0.00736725 0.0315822
87 2 Si -0.632896 18.9481 47.076 2.4 1 0.240226 0.0485141 0.0158156 0.0179356 0.00414833 0.0182469 0.00720542 0.0230351 0.00694631 0.0163069 0.00648338 0.0252217 0.00706473 0.0232005 0.00635017 0.0293309 0.00831118 0.0246819 0.0099614 0.0290796
88 3 O -0.190111 20.5306 46.9513 -1.2 1 0.240868 0.049229 0.0156027 0.0180011 0.00380399 0.01854 0.00474974 0.0235264 0.00680125 0.0153355 0.0068398 0.0257203 0.00697685 0.0222803 0.00680365 0.0286181 0.00714724 0.0226826 0.00962529 0.0303195
89 3 O -1.33478 17.5837 51.303 -1.2 1 0.132469 0.0398793 0.00212084 0.00975933 0.00188286 0.0112231 0.00346879 0.0231733 0.00325379 0.0145064 0.00327808 0.0263392 0.00343961 0.0226799 0.00387624 0.0321513 0.00480707 0.02532 0.00626496 0.0328645
90 3 O -1.87149 18.8009 48.106 -1.2 1 0.211955 0.0497327 0.010372 0.0149244 0.00288962 0.0151309 0.00556714 0.0233146 0.00664431 0.016191 0.00562936 0.0256815 0.00605834 0.0244231 0.00623057 0.0309823 0.0076419 0.0245446 0.00796622 0.0291831
91 1 Mg 0.317611 16.6565 46.0098 1.2 1 0.263459 0.0522943 0.0196074 0.0203709 0.0048915 0.0216454 0.00924091 0.0249567 0.00983251 0.0175919 0.00781242 0.0256666 0.00967706 0.0254657 0.0107891 0.030733 0.00795752 0.0290549 0.0116874 0.0262448
92 3 O 0.700029 18.2349 47.7984 -1.2 1 0.217329 0.0492324 0.0116522 0.0153281 0.00394377 0.0166705 0.00540203 0.023591 0.00653736 0.0170535 0.00563005 0.0245689 0.00628446 0.0248034 0.00698072 0.0298076 0.00646508 0.0255515 0.0090427 0.0299814
93 1 Mg 1.63111 16.6786 54.2106 1.2 1 0.063272 0.0302028 0.00512845 0.00723496 0.0015118 0.00784787 0.00331173 0.022496 0.0031466 0.0132929 0.00217634 0.0273207 0.00295398 0.0236204 0.00305372 0.033222 0.00401275 0.0264716 0.00506685 0.0372377
94 2 Si 1.47915 19.2625 56.1541 2.4 1 0.0309411 0.018172 0.00502691 0.00768351 0.00130233 0.00659694 0.00232336 0.02314 0.00171631 0.0114282 0.00268799 0.0273945 0.00269137 0.0220233 0.00390287 0.0326137 0.00346253 0.0264132 0.00462978 0.0418329
95 3 O 1.47465 17.6961 56.1895 -1.2 1 0.0280939 0.0177231 0.00501051 0.00734098 0.0009357 0.00648321 0.00184081 0.0225932 0.00270918 0.0119484 0.00196968 0.0278488 0.00314858 0.0226537 0.00282286 0.0330168 0.00369081 0.0262683 0.00377131 0.0407737
96 3 O 1.7363 20.388 52.3449 -1.2 1 0.10758 0.0352337 0.00155661 0.00824755 0.00177147 0.0108878 0.00407045 0.0232879 0.00328713 0.0122759 0.00366965 0.0260354 0.00400063 0.0214281 0.00433946 0.0309731 0.00411685 0.0240018 0.0055257 0.0360065
97 3 O 0.110688 19.9229 55.5243 -1.2 1 0.0418426 0.0224719 0.00539886 0.00698365 0.00102177 0.00733952 0.00238682 0.023535 0.00196638 0.0117777 0.0023538 0.02785 0.00309322 0.0224969 0.00418816 0.0329977 0.00346016 0.0260793 0.00437099 0.0411425
98 3 O 2.67986 19.9577 55.2582 -1.2 1 0.0442674 0.0237306 0.00596488 0.00714117 0.00122636 0.00718706 0.00254009 0.0224206 0.00249413 0.0112813 0.00217331 0.0276633 0.00269236 0.0224269 0.00363065 0.0334664 0.00304812 0.0260797 0.00476506 0.0398043
99 1 Mg 0.057722 18.9263 51.8757 1.2 1 0.113412 0.0389527 0.00148752 0.00900751 0.00196835 0.0100991 0.00324624 0.0233679 0.00353162 0.0136901 0.00327288 0.0270846 0.0037527 0.0226999 0.00430301 0.0319007 0.00432477 0.0248122 0.00545915 0.0339749
100 1 Mg 2.19453 18.9171 48.7141 1.2 1 0.190195 0.0502338 0.00674121 0.0118095 0.00236498 0.0146713 0.00579052 0.0227663 0.00512921 0.0162428 0.00519367 0.0253983 0.00544417 0.0248567 0.00620815 0.0314897 0.00602403 0.0249429 0.00827106 0.0304471
101 2 Si 1.60656 21.0793 50.8754 2.4 1 0.142444 0.0429066 0.00217618 0.0100526 0.00218391 0.0126584 0.00397493 0.021722 0.00403962 0.0128844 0.00482792 0.0252383 0.00463747 0.0223201 0.0055636 0.03022 0.00438013 0.0226125 0.00726598 0.0341442
102 3 O 1.66463 22.6712 50.9741 -1.2 1 0.141454 0.040972 0.00249261 0.00984786 0.00188203 0.012609 0.00297013 0.0208361 0.00412429 0.0120123 0.00430833 0.0263617 0.00382182 0.0208505 0.00410621 0.0295994 0.00593131 0.0203992 0.00775452 0.0349492
103 3 O 1.44726 19.9024 57.7009 -1.2 1 0.0171011 0.0116231 0.00340058 0.00702248 0.00127432 0.00642551 0.00131605 0.0235235 0.00208933 0.0107044 0.00293342 0.0278329 0.00320579 0.0211146 0.00403201 0.0323557 0.00336745 0.0261636 0.00337134 0.0428064
104 3 O 0.23873 20.5555 50.3029 -1.2 1 0.156418 0.0427401 0.00374797 0.0110479 0.00293958 0.0131047 0.0040542 0.0223655 0.00358797 0.013434 0.00406965 0.0253112 0.00443522 0.0224681 0.00512223 0.0305973 0.0042845 0.022668 0.00697045 0.0337877
105 1 Mg -2.98899 18.9375 52.0559 1.2 1 0.117878 0.0381873 0.0013318 0.00840185 0.0016178 0.0109041 0.00404183 0.0220807 0.00301607 0.0135792 0.00378149 0.0267675 0.00412949 0.0225752 0.00436913 0.0317896 0.00454702 0.0240014 0.00574141 0.033549
106 3 O 2.78403 20.3552 50.0998 -1.2 1 0.155114 0.0448477 0.00366905 0.010096 0.00178823 0.0132048 0.0047254 0.0219265 0.00425137 0.014012 0.00454795 0.0253095 0.00457069 0.0227139 0.0051248 0.0309572 0.00457203 0.0228327 0.00680558 0.0322938
107 1 Mg -1.57748 18.8177 54.7435 1.2 1 0.0515775 0.0262492 0.00564142 0.00700104 0.00115693 0.00768444 0.00228873 0.0229035 0.00289477 0.0122553 0.00305632 0.0278631 0.00290093 0.0227946 0.00419979 0.0332959 0.00369267 0.026051 0.00482653 0.0392074
108 2 Si -1.36333 16.8631 52.8172 2.4 1 0.0913037 0.0352419 0.00330628 0.00840898 0.00164065 0.00871419 0.00229653 0.0220567 0.0031307 0.0140475 0.00274112 0.0271214 0.00279971 0.0238875 0.0034943 0.0327993 0.0041527 0.0259758 0.00553125 0.0356105
109 3 O -1.61627 15.3328 52.6099 -1.2 1 0.0986629 0.0356537 0.0021823 0.00839129 0.0017694 0.00929889 0.00228481 0.0212983 0.00350418 0.0139352 0.00345684 0.0268797 0.00345957 0.0235598 0.00434629 0.0321354 0.00309315 0.0262371 0.00634895 0.0341213
110 3 O -0.781627 18.217 45.7148 -1.2 1 0.271884 0.0494885 0.021789 0.0209936 0.00469881 0.0209446 0.00918299 0.0246781 0.00934274 0.0160509 0.00784064 0.0247178 0.00854742 0.0224184 0.00883701 0.029777 0.0089195 0.0265972 0.0113938 0.0276473
111 3 O -2.64248 17.5307 53.5731 -1.2 1 0.0779668 0.0337164 0.0038986 0.00727431 0.00130166 0.00874423 0.0027612 0.0221264 0.00300714 0.0135709 0.00238861 0.0268406 0.00275964 0.0238745 0.00324413 0.0334116 0.00434351 0.0256157 0.0048469 0.0356407
112 3 O -0.13227 17.5225 53.6192 -1.2 1 0.074762 0.0312921 0.00378755 0.00744701 0.00181734 0.0078478 0.00174401 0.0228297 0.00271256 0.0133352 0.00237907 0.0271958 0.00301166 0.0241194 0.0023606 0.0332462 0.00413275 0.0264676 0.00517403 0.0368729
113 1 Mg -2.98405 26.0408 57.38 1.2 1 0.0203115 0.0134246 0.00432235 0.00664671 0.00131768 0.00677399 0.00189217 0.0230166 0.00135418 0.00969592 0.00177008 0.0290808 0.0022504 0.0197562 0.00327797 0.0313918 0.00385681 0.0258797 0.00419103 0.0445184
114 1 Mg -1.38524 26.18 49.862 1.2 1 0.172889 0.044964 0.0061388 0.0117856 0.00292301 0.0131192 0.00306941 0.0199093 0.00483624 0.0116278 0.00523658 0.0257346 0.00468767 0.019163 0.00602033 0.0281119 0.00609186 0.0185762 0.00830212 0.0320509
115 2 Si -0.947969 23.7077 47.9053 2.4 1 0.218696 0.050056 0.0110325 0.0158554 0.00390831 0.0159622 0.00317496 0.0204497 0.00678297 0.0141462 0.00649123 0.0249109 0.00583565 0.0200729 0.00550929 0.0271893 0.00727198 0.017118 0.00988858 0.0313259
116 3 O -1.40813 25.1365 48.0222 -1.2 1 0.205029 0.0490013 0.00889928 0.014416 0.00359948 0.0142782 0.00322779 0.0192854 0.00613929 0.0129268 0.00612556 0.0257028 0.00540158 0.0197879 0.00455358 0.0284848 0.00721101 0.0177133 0.00890241 0.0308481
117 3 O -1.44082 22.3642 51.5575 -1.2 1 0.123544 0.0392838 0.00151404 0.00987599 0.00286799 0.00988952 0.00300416 0.0223843 0.00274628 0.0115083 0.00382857 0.0263107 0.00389596 0.0201351 0.00405382 0.0300057 0.00556623 0.0205908 0.00688082 0.0354888
118 3 O -1.89339 22.6913 48.5854 -1.2 1 0.198002 0.0486521 0.00772622 0.0135852 0.00331716 0.0147699 0.00281771 0.0214597 0.00568883 0.0138075 0.00565118 0.0257989 0.00446114 0.0210155 0.00509176 0.0288747 0.00668949 0.0189394 0.00933731 0.0316041
119 1 Mg 0.498515 22.2373 46.3479 1.2 1 0.247349 0.0520965 0.0159761 0.0187313 0.0049742 0.0190351 0.00341919 0.0216603 0.00718289 0.0145317 0.00755544 0.0254334 0.00901345 0.0205104 0.00839601 0.0281504 0.00707442 0.0195739 0.0104985 0.0305515
120 3 O 0.605871 23.4583 47.9714 -1.2 1 0.211849 0.0508984 0.00935488 0.0148419 0.00333867 0.0173882 0.00354883 0.0214623 0.00671477 0.0139787 0.00679263 0.0246698 0.00708042 0.0213301 0.0062461 0.0285969 0.00646951 0.0197642 0.00951051 0.0312641