ITEM: TIMESTEP
600
ITEM: NUMBER OF ATOMS
10500
ITEM: BOX BOUNDS xy xz yz pp pp pp
0	8.9688	2.9896
0	118.725	0
0	252.977	0
ITEM: ATOMS id type element xu yu zu q Q_1 Q_2 Q_3 Q_4 Q_5 Q_6 Q_7 Q_8 Q_9 Q_10 Q_11 Q_12 Q_13 Q_14 Q_15 Q_16 Q_17 Q_18 Q_19 Q_20 Q_21
1 1 Mg -3.36481 7.01517 57.4527 1.2 1 0.0229191 0.0129351 0.00561207 0.00672854 0.00191212 0.00656217 0.0013679 0.0238071 0.00141424 0.00931734 0.00184608 0.0309799 0.0028007 0.0212795 0.00213912 0.0341939 0.0026694 0.0250293 0.0045343 0.0532949
2 1 Mg -1.82655 6.90154 50.0912 1.2 1 0.175052 0.0467337 0.00583617 0.0100526 0.00322153 0.00890234 0.00441266 0.0231435 0.0045191 0.0143772 0.00483818 0.0262212 0.00461082 0.0212051 0.00653891 0.0298384 0.00557 0.025196 0.00937779 0.0363081
3 2 Si -0.257935 3.96038 48.0876 2.4 1 0.224931 0.0530723 0.0115928 0.0125692 0.00232824 0.00948004 0.00368431 0.0205951 0.00587322 0.0168691 0.00441597 0.0246258 0.00535034 0.0207315 0.00571094 0.0269863 0.00697187 0.0243589 0.00920688 0.03315
4 3 O -0.335812 5.46814 47.6264 -1.2 1 0.232436 0.0525515 0.0133729 0.0135831 0.00306808 0.0106045 0.00462747 0.0212227 0.00636211 0.0175672 0.00480768 0.0252245 0.00478319 0.0211745 0.00555007 0.0273037 0.00755576 0.0252128 0.00972648 0.0317713
5 3 O -2.03793 3.43377 51.8941 -1.2 1 0.129053 0.0401147 0.00247983 0.00743109 0.00215548 0.00696633 0.00285037 0.0212367 0.00276869 0.011394 0.0034238 0.0262653 0.00390796 0.0185447 0.00412546 0.0299342 0.00518508 0.0231173 0.00832266 0.0398637
6 3 O -1.54015 3.53929 48.9521 -1.2 1 0.203807 0.0517121 0.00897908 0.0110145 0.00252069 0.00834491 0.00378429 0.0204865 0.00518812 0.015469 0.00472463 0.0241649 0.00431703 0.0203257 0.00592335 0.0277661 0.0055499 0.0236889 0.00905983 0.0333047
7 1 Mg 1.82954 2.54582 47.1376 1.2 1 0.245005 0.0526171 0.0158038 0.0155443 0.00282498 0.0110005 0.00340621 0.0205411 0.00578475 0.0157727 0.00470104 0.0242498 0.00591382 0.0197856 0.0072169 0.0254154 0.00642122 0.0231706 0.00872427 0.0309476
8 3 O 1.22989 3.66364 48.7877 -1.2 1 0.20542 0.0502941 0.00927637 0.0120884 0.002165 0.0094545 0.00415824 0.0206914 0.0042336 0.0150414 0.00402536 0.0242188 0.00484127 0.0200189 0.00605059 0.0272403 0.00464488 0.0236178 0.00921462 0.0342057
9 1 Mg 1.01712 2.30234 54.5865 1.2 1 0.0697367 0.0283855 0.0053985 0.00581773 0.00175701 0.0051957 0.00291322 0.0223658 0.00269378 0.00979254 0.00300478 0.0283326 0.00423958 0.0206783 0.00439908 0.0326587 0.00299629 0.023734 0.00703095 0.0467146
10 2 Si 1.06968 4.98378 56.4876 2.4 1 0.0334638 0.0176912 0.00680721 0.00662166 0.00175043 0.00675831 0.00214652 0.0232508 0.00171657 0.00882193 0.00350114 0.0285573 0.00300129 0.0209735 0.00436527 0.0337963 0.00338883 0.0248863 0.00676125 0.0527694
11 3 O 1.00826 3.43628 56.5699 -1.2 1 0.0348586 0.0177395 0.00661658 0.00661036 0.00160181 0.00573478 0.00181499 0.0232217 0.00265417 0.00836999 0.00250562 0.0294236 0.00326987 0.0202848 0.00303643 0.0336422 0.00397039 0.0248397 0.00576016 0.0517344
12 3 O 1.10813 6.07342 52.8172 -1.2 1 0.105774 0.0350684 0.00312522 0.0068169 0.00244799 0.00723365 0.00349579 0.0231295 0.00336223 0.0111367 0.00332569 0.0274741 0.00431495 0.0198781 0.00441942 0.0313864 0.00437602 0.0246082 0.00734101 0.042625
13 3 O -0.212202 5.68376 55.8533 -1.2 1 0.0455552 0.021869 0.00678643 0.00611965 0.00192561 0.00557004 0.00259046 0.0230767 0.00211463 0.00963992 0.00298394 0.0291119 0.00306121 0.0203793 0.00456134 0.0338133 0.0032782 0.0248363 0.00653271 0.0504782
14 3 O 2.33678 5.6796 55.7991 -1.2 1 0.042435 0.0213163 0.00699334 0.00611249 0.00169204 0.00613588 0.00210507 0.0233778 0.00142435 0.00928643 0.00284119 0.0292382 0.00314927 0.0208889 0.00379175 0.0344295 0.00292202 0.0250487 0.00633688 0.0503407
15 1 Mg -0.459401 4.67631 52.2426 1.2 1 0.12342 0.0399027 0.0024027 0.00714565 0.00242689 0.00667921 0.0027011 0.0219847 0.00315825 0.0120648 0.00302557 0.0272386 0.00420062 0.0198019 0.00463688 0.030435 0.00407968 0.0234313 0.00759976 0.0397082
16 1 Mg 2.79456 3.9971 49.9987 1.2 1 0.176097 0.0492596 0.0053888 0.0100483 0.00279069 0.00793388 0.0048311 0.0213747 0.00331429 0.0147937 0.00311736 0.0250788 0.00460147 0.0207006 0.00618704 0.0288825 0.00446739 0.0240193 0.0097337 0.0351669
17 2 Si 1.16169 6.59457 51.2556 2.4 1 0.147742 0.0449572 0.00268402 0.0090996 0.00275809 0.0083084 0.00425793 0.0224969 0.00444594 0.0133985 0.0045307 0.0258939 0.00441239 0.0212964 0.00642901 0.0310007 0.00456368 0.0250349 0.00963663 0.0389214
18 3 O 1.28989 8.18905 51.2909 -1.2 1 0.146465 0.0436816 0.00281299 0.00927582 0.00274834 0.00916673 0.00421036 0.0230163 0.00414353 0.0131043 0.00389758 0.0278347 0.00417979 0.0217331 0.00522221 0.0313328 0.00531552 0.0257984 0.00890543 0.0404082
19 3 O 1.11178 5.64269 57.9764 -1.2 1 0.0173688 0.00977145 0.0044775 0.00715651 0.00186903 0.00667371 0.00126437 0.0238472 0.00107708 0.00841877 0.00242555 0.0301256 0.00267721 0.0211693 0.00271961 0.034568 0.00233856 0.0254126 0.00394702 0.0544823
20 3 O -0.184847 6.06029 50.6845 -1.2 1 0.160096 0.0443497 0.00453597 0.00917473 0.00338065 0.00797937 0.00424767 0.0223663 0.00418186 0.0135764 0.00337105 0.0256703 0.00429811 0.0204631 0.00605715 0.0293444 0.00486256 0.0244319 0.00909548 0.0379768
21 1 Mg -3.49704 4.67769 52.6661 1.2 1 0.116126 0.0377719 0.0023286 0.0066257 0.00242847 0.00704897 0.00316495 0.0216813 0.00344946 0.0112202 0.00367884 0.0270833 0.00394234 0.0195309 0.00438007 0.030375 0.00385455 0.0233662 0.00816859 0.0407864
22 3 O 2.48581 5.93312 50.6539 -1.2 1 0.158027 0.0464217 0.00368983 0.00865767 0.00195506 0.00870156 0.00429076 0.0223306 0.00408796 0.0139539 0.00413242 0.0255734 0.00458908 0.0213174 0.00591487 0.0301255 0.00415547 0.0247939 0.00935162 0.0373806
23 1 Mg -1.87341 4.7009 55.2274 1.2 1 0.0526402 0.0249997 0.00698415 0.00630906 0.00195567 0.00551875 0.00217917 0.0230247 0.0030442 0.00954582 0.00334465 0.0292495 0.00278546 0.0206144 0.00402526 0.0335364 0.00431685 0.0245185 0.00687971 0.048565
24 2 Si -1.9571 2.64416 53.3119 2.4 1 0.102589 0.0352788 0.00341821 0.00665831 0.00261246 0.00609162 0.00231481 0.0217685 0.00283887 0.0110355 0.00319862 0.0265183 0.00353637 0.019893 0.00335848 0.0310306 0.00440503 0.0231648 0.00739217 0.0430351
25 3 O -1.9942 1.08691 53.2084 -1.2 1 0.098264 0.0341776 0.00337096 0.00671383 0.00294602 0.00551128 0.00241947 0.0218698 0.00291473 0.0101402 0.00298899 0.0271977 0.00359151 0.0194021 0.00442793 0.0312402 0.00392832 0.0230242 0.00770431 0.0432548
26 3 O -0.0467762 2.97103 46.8385 -1.2 1 0.251931 0.0533775 0.016576 0.0149572 0.00293198 0.00986018 0.0037562 0.0201961 0.00652507 0.0168963 0.00588002 0.0239829 0.0069941 0.0193733 0.00800452 0.02545 0.00671748 0.0235004 0.0100322 0.0321038
27 3 O -3.20859 3.27328 54.121 -1.2 1 0.0800399 0.02998 0.00443004 0.00562748 0.00219861 0.00565454 0.00190974 0.0221164 0.00284521 0.0104598 0.00257986 0.0270138 0.00307043 0.0200431 0.00376056 0.0318489 0.0035344 0.0232153 0.00712626 0.0451367
28 3 O -0.663909 3.29036 54.0065 -1.2 1 0.0823782 0.0312979 0.00494861 0.00583588 0.00215652 0.00599918 0.00190137 0.0222957 0.00242467 0.010344 0.00237159 0.0273895 0.00363176 0.0202942 0.00343848 0.0321365 0.00358899 0.0238928 0.00705372 0.0447925
29 1 Mg -3.23783 11.7847 57.4309 1.2 1 0.0236449 0.012881 0.00529753 0.00675667 0.00154802 0.00626086 0.00142781 0.0241337 0.00194183 0.00945192 0.00166585 0.0314481 0.00243674 0.0214572 0.00235014 0.0344045 0.0023515 0.0253089 0.00383726 0.054445
30 1 Mg -1.75014 11.5838 49.8362 1.2 1 0.18449 0.0478033 0.00736588 0.0121741 0.00453107 0.0126624 0.00491693 0.0246504 0.00555599 0.0156671 0.00530598 0.0292349 0.00439143 0.0244047 0.00703968 0.0332796 0.00682846 0.0283729 0.0102839 0.0390934
31 2 Si -1.18003 9.02138 47.9309 2.4 1 0.240686 0.0519337 0.0151492 0.0153495 0.00528513 0.0132785 0.00760744 0.0235239 0.00795574 0.017195 0.0069959 0.0264492 0.00494892 0.0232527 0.00703359 0.030169 0.00896162 0.0279477 0.012255 0.0347179
32 3 O -1.23224 10.5991 47.9811 -1.2 1 0.23058 0.0530001 0.0134863 0.0154103 0.00547874 0.0144022 0.00652194 0.0246494 0.00809559 0.0172856 0.00723168 0.0279759 0.00538339 0.0242356 0.00825678 0.0325028 0.00928227 0.0299754 0.0110855 0.0354003
33 3 O -1.79016 8.01447 51.8693 -1.2 1 0.13341 0.0401558 0.00248686 0.00867918 0.00349617 0.00765186 0.00283764 0.0228844 0.00360167 0.0123496 0.00382732 0.0279469 0.00412283 0.0209472 0.00483474 0.0317649 0.00550072 0.0247159 0.00912759 0.0412046
34 3 O -2.30986 8.37215 48.8528 -1.2 1 0.2047 0.0520166 0.0090753 0.0123104 0.00426009 0.0104591 0.00614579 0.0236251 0.00608766 0.0170046 0.00501021 0.0267438 0.00416808 0.0232372 0.00601938 0.0312067 0.00693925 0.0272302 0.0100024 0.0351226
35 1 Mg 0.154883 7.08234 46.8007 1.2 1 0.25767 0.0524739 0.0177289 0.015934 0.0057403 0.0135194 0.00832882 0.0237487 0.00779685 0.0176746 0.00713339 0.0253182 0.00680605 0.0219858 0.00829253 0.028765 0.00962336 0.027672 0.0130466 0.031943
36 3 O 0.325447 8.50934 48.3809 -1.2 1 0.217796 0.05302 0.0108329 0.0140592 0.00433576 0.0121697 0.00624245 0.0243282 0.0066617 0.0170708 0.00574641 0.0264417 0.00493151 0.0241744 0.00569367 0.0300717 0.00739562 0.0279614 0.0106276 0.0348112
37 1 Mg 1.17056 7.10683 54.6454 1.2 1 0.069123 0.0284385 0.00531398 0.00598414 0.00219628 0.00607244 0.00248008 0.0228588 0.00252692 0.0103895 0.0032668 0.0287641 0.00404848 0.0212238 0.00372425 0.0333955 0.00363027 0.0242465 0.00701744 0.0474015
38 2 Si 1.19975 9.73907 56.4617 2.4 1 0.0353298 0.0184748 0.00662733 0.00686564 0.00171079 0.00619926 0.00230663 0.0235154 0.0018803 0.00877822 0.00354451 0.0292462 0.00287372 0.0218153 0.00449707 0.034326 0.00343911 0.0250861 0.00675175 0.0539333
39 3 O 1.15487 8.17251 56.5656 -1.2 1 0.0323104 0.0168294 0.00636016 0.00670317 0.0016003 0.00634526 0.00155257 0.0235786 0.00261727 0.00818278 0.00245446 0.0298642 0.00320296 0.0205597 0.0028983 0.0342003 0.00376262 0.0251059 0.00572151 0.0530936
40 3 O 1.28624 10.7248 52.7351 -1.2 1 0.111865 0.0364317 0.00258247 0.00769079 0.0025978 0.00951401 0.00325278 0.0239452 0.00314216 0.0117598 0.00402936 0.0289713 0.00451846 0.0221245 0.0050237 0.0332023 0.00394055 0.0262864 0.00798708 0.0446782
41 3 O -0.0938832 10.4241 55.8217 -1.2 1 0.0494474 0.0227456 0.00596028 0.00658486 0.00178282 0.00624546 0.00229003 0.0237123 0.00165711 0.00960641 0.00274354 0.0294157 0.00307622 0.0215781 0.00412506 0.0346602 0.00311123 0.0255468 0.00650635 0.0517274
42 3 O 2.46062 10.4085 55.7648 -1.2 1 0.0452716 0.0221556 0.00663775 0.00663799 0.0015911 0.0060972 0.00202215 0.0235502 0.00184872 0.00947541 0.00283751 0.0295355 0.0031251 0.0216511 0.00410041 0.0349406 0.00260345 0.0255398 0.00623446 0.0518571
43 1 Mg -0.262694 9.34741 52.2523 1.2 1 0.114729 0.0395599 0.00326461 0.00800334 0.00318363 0.00793961 0.00271535 0.0239828 0.00331338 0.012016 0.00365998 0.0289076 0.00404595 0.0217278 0.00522889 0.0327433 0.00436789 0.0260443 0.00856152 0.0425714
44 1 Mg 1.87648 9.01537 49.4629 1.2 1 0.185568 0.0519166 0.00573669 0.0113184 0.00322125 0.0107348 0.00625631 0.0236768 0.00545795 0.0160926 0.00522213 0.0273505 0.00475342 0.0237393 0.00619741 0.0316794 0.00556669 0.0276701 0.0104604 0.0367581
45 2 Si 1.21415 11.3799 51.2378 2.4 1 0.149605 0.0460155 0.00232267 0.0102933 0.00327209 0.0108946 0.00403178 0.024485 0.00437242 0.0144213 0.00490585 0.0279325 0.00442196 0.0243541 0.0060138 0.0334231 0.00474578 0.0281618 0.00992445 0.0421789
46 3 O 1.31634 12.9512 51.3023 -1.2 1 0.146611 0.0434313 0.00290294 0.0098469 0.00270696 0.0114595 0.00346175 0.025036 0.00442555 0.0143634 0.00361792 0.0296363 0.0043987 0.0247889 0.00439199 0.0341435 0.00523047 0.0283579 0.00856997 0.043242
47 3 O 1.21668 10.4094 57.9472 -1.2 1 0.0187066 0.0102662 0.0042401 0.00713036 0.00162085 0.00649707 0.00120504 0.0242658 0.00151484 0.00831482 0.00263277 0.0305766 0.00243952 0.0214107 0.00292494 0.0344804 0.00253485 0.0252627 0.00392657 0.0554186
48 3 O -0.115718 10.7564 50.681 -1.2 1 0.156769 0.0454476 0.00375407 0.0107163 0.00395592 0.0105698 0.00429939 0.0243844 0.00423046 0.0139828 0.00385806 0.0284407 0.00461504 0.0235333 0.00625824 0.0324539 0.00511379 0.0272315 0.00993695 0.0409107
49 1 Mg -3.26386 9.35564 52.3622 1.2 1 0.123921 0.0391074 0.00199662 0.00781362 0.00249927 0.00933658 0.00361173 0.0235397 0.00364827 0.0124821 0.00409908 0.0284326 0.00375972 0.0219997 0.00516143 0.0327734 0.00441922 0.0257121 0.00881622 0.0416283
50 3 O 2.45216 10.7265 50.4558 -1.2 1 0.16376 0.0479169 0.00392749 0.00990771 0.00286078 0.0113275 0.00478692 0.0238633 0.0048502 0.0156127 0.00448052 0.0279576 0.00414271 0.0244614 0.00633679 0.0330939 0.00536928 0.0278145 0.00972916 0.0401059
51 1 Mg -1.80265 9.47017 55.1478 1.2 1 0.0559245 0.0258552 0.00611272 0.00670839 0.00206833 0.00630282 0.00209864 0.0235301 0.00275684 0.00955651 0.00322021 0.0294401 0.00292857 0.021543 0.00360909 0.0340772 0.00426085 0.0252062 0.00714636 0.0498566
52 2 Si -1.79139 7.35926 53.3727 2.4 1 0.0963145 0.0351005 0.0041886 0.00705584 0.00320413 0.00661479 0.00227682 0.0227126 0.00370033 0.0114278 0.00338278 0.0278635 0.0034556 0.0212301 0.00353303 0.0325212 0.00481987 0.0242393 0.00734378 0.0444941
53 3 O -1.88552 5.80953 53.3446 -1.2 1 0.096375 0.0327625 0.00331215 0.0062516 0.00266107 0.00655708 0.00206199 0.0220465 0.00347116 0.0103367 0.00330845 0.027467 0.00316457 0.0199665 0.00401017 0.0321892 0.0039284 0.023779 0.00769155 0.0436924
54 3 O -1.19417 8.46968 46.4488 -1.2 1 0.27009 0.0528678 0.0203948 0.0176969 0.00568374 0.0146427 0.00877292 0.0247347 0.00804285 0.0175673 0.00763911 0.0257527 0.00614745 0.0217051 0.00903281 0.0301242 0.0102942 0.0294634 0.0121808 0.0315538
55 3 O -3.07425 8.06142 54.0113 -1.2 1 0.0825979 0.0297131 0.00382312 0.00623462 0.00252315 0.00752947 0.00230325 0.0232112 0.00288925 0.0110291 0.00290456 0.0277856 0.00310157 0.0212854 0.00354195 0.0333157 0.00439945 0.0247493 0.00775702 0.0462319
56 3 O -0.514074 8.06851 54.0088 -1.2 1 0.0783348 0.0305334 0.00532798 0.00607836 0.00297017 0.00588642 0.00137442 0.023137 0.00252414 0.0104401 0.00273161 0.0280388 0.00321021 0.021085 0.00388166 0.0334782 0.00430697 0.025279 0.00743396 0.0467368
57 1 Mg -3.17717 16.4929 57.4115 1.2 1 0.0232814 0.0129319 0.00543462 0.00704816 0.00146201 0.00596349 0.00162579 0.0245435 0.00199447 0.00916989 0.0016738 0.0314378 0.00226992 0.0215087 0.00231569 0.0345591 0.00256491 0.0253824 0.00374657 0.0550929
58 1 Mg -1.6714 16.3544 49.8412 1.2 1 0.181837 0.0488623 0.00695691 0.0130533 0.00366749 0.0149438 0.00363438 0.0267274 0.00512594 0.0174814 0.00477224 0.0318633 0.0041521 0.0268795 0.00656204 0.0353139 0.00597057 0.0307511 0.00973682 0.0421705
59 2 Si -1.18567 13.8526 47.9314 2.4 1 0.233125 0.0542791 0.015249 0.0166733 0.00489769 0.0178605 0.00542799 0.0274472 0.0087935 0.0194726 0.00613513 0.0309722 0.00570956 0.0286896 0.00664098 0.0348873 0.00990967 0.0323435 0.0114316 0.0385688
60 3 O -1.09664 15.4205 47.9915 -1.2 1 0.231627 0.053433 0.0149795 0.0170424 0.00522126 0.0192629 0.00497698 0.0278548 0.0082118 0.0197157 0.00648148 0.0313908 0.00575604 0.0281662 0.00814679 0.0358534 0.00892495 0.033265 0.0110298 0.0394424
61 3 O -1.73493 12.7491 51.7772 -1.2 1 0.135859 0.0409373 0.00264214 0.00982658 0.0035713 0.0100058 0.00177479 0.0248665 0.00384084 0.0135782 0.00307096 0.0298551 0.00462622 0.0239383 0.00490744 0.0338747 0.00536322 0.0272207 0.00853872 0.0442251
62 3 O -2.36115 13.2717 48.8238 -1.2 1 0.207596 0.0536136 0.0102081 0.0142658 0.00492817 0.0142932 0.00518255 0.0268312 0.00665622 0.0190907 0.00514485 0.0304606 0.00459626 0.0271761 0.00605346 0.0350177 0.00793681 0.0312984 0.0103402 0.0387118
63 1 Mg -0.159928 11.7639 46.8533 1.2 1 0.259353 0.0539247 0.0189544 0.018462 0.00632412 0.0198912 0.00740744 0.028219 0.00942625 0.0193359 0.00782349 0.030271 0.00665794 0.0273942 0.0082892 0.0335841 0.010848 0.0330859 0.0134303 0.0358832
64 3 O 0.2623 13.1866 48.413 -1.2 1 0.215347 0.0531872 0.0113491 0.0151701 0.00446941 0.0161246 0.00480089 0.0269087 0.00708971 0.0183692 0.00490088 0.0297027 0.00517311 0.0283112 0.00570071 0.0341872 0.00806252 0.0324295 0.0108105 0.0391179
65 1 Mg 1.28444 11.8175 54.5559 1.2 1 0.0734859 0.0297612 0.00465203 0.00637037 0.00212708 0.00700731 0.00257881 0.0237343 0.00248582 0.0109785 0.0025864 0.0297795 0.0041429 0.0229464 0.00361529 0.0345716 0.00366031 0.0255246 0.00639896 0.0486674
66 2 Si 1.28628 14.4582 56.4129 2.4 1 0.035008 0.0181038 0.00650636 0.00706993 0.00169332 0.00589058 0.00208661 0.0239611 0.0020177 0.00890847 0.00348153 0.0297689 0.00286015 0.022037 0.00458694 0.0347144 0.00318775 0.025469 0.00602839 0.0554972
67 3 O 1.26496 12.9096 56.5079 -1.2 1 0.0321918 0.0166419 0.00626345 0.00708047 0.00156595 0.00576732 0.00186614 0.0241994 0.00316389 0.00841212 0.00202652 0.030419 0.00323799 0.0213287 0.00285329 0.0346091 0.00382115 0.0256423 0.00509636 0.0548026
68 3 O 1.36565 15.4813 52.729 -1.2 1 0.112233 0.0369183 0.00156846 0.00855508 0.00234645 0.0106108 0.00346193 0.0251817 0.00292034 0.0129924 0.00365749 0.0306354 0.00415279 0.0235878 0.00460745 0.0342387 0.00383493 0.0278007 0.00736334 0.0470485
69 3 O 0.00980814 15.1506 55.7389 -1.2 1 0.0491534 0.0227562 0.00583013 0.00706219 0.00159801 0.00632548 0.00241461 0.0243668 0.00186625 0.00987418 0.00271253 0.029899 0.00270793 0.0221987 0.00383477 0.0351128 0.00302205 0.0263698 0.00582549 0.0535039
70 3 O 2.56043 15.1421 55.7274 -1.2 1 0.0449069 0.0220432 0.00645392 0.0071147 0.00158138 0.00589552 0.00239317 0.0244064 0.00190482 0.00957771 0.00265761 0.0298963 0.00284421 0.0223128 0.00384767 0.035299 0.00279497 0.0262279 0.00594395 0.0535636
71 1 Mg -0.206989 14.1049 52.2121 1.2 1 0.118481 0.040843 0.00216333 0.00900675 0.00296952 0.00915144 0.00247135 0.0252536 0.00330987 0.0132877 0.00343188 0.0306195 0.00389185 0.0242082 0.004421 0.0342468 0.00389035 0.0278025 0.00771117 0.0448903
72 1 Mg 1.82591 13.8102 49.4556 1.2 1 0.186807 0.0529484 0.0061679 0.0123031 0.00319127 0.0136177 0.00498292 0.0254702 0.0055506 0.0176446 0.0051477 0.0299412 0.00486287 0.0270293 0.00599101 0.0352852 0.00653111 0.0308308 0.0102067 0.0396809
73 2 Si 1.29285 16.1518 51.2434 2.4 1 0.148202 0.0466998 0.00221071 0.0111187 0.00275291 0.0123477 0.00383193 0.0259068 0.0043322 0.0157111 0.00500597 0.0296642 0.0042195 0.0262844 0.00578097 0.0347713 0.00405124 0.0304356 0.00938433 0.0447999
74 3 O 1.39496 17.7199 51.3047 -1.2 1 0.143735 0.0435041 0.00231755 0.0103555 0.00202647 0.0122025 0.00326012 0.0259012 0.00407027 0.0150918 0.00325499 0.0307492 0.0039718 0.025274 0.0039301 0.0349784 0.00513896 0.0295596 0.0081947 0.0453355
75 3 O 1.29254 15.13 57.8955 -1.2 1 0.0185138 0.0103347 0.00434613 0.00730385 0.00141281 0.00599151 0.00151363 0.0246294 0.00158158 0.00825708 0.00260221 0.0307605 0.00236168 0.0213736 0.00285529 0.034568 0.00245211 0.0253657 0.00382267 0.0560927
76 3 O -0.0269106 15.5178 50.6688 -1.2 1 0.157911 0.0464297 0.00407429 0.0116536 0.00366425 0.0126006 0.00392873 0.025949 0.00406956 0.0154002 0.00321495 0.030297 0.00429495 0.0263157 0.00582995 0.0344234 0.00416431 0.0298876 0.00904208 0.0435749
77 1 Mg -3.18391 14.1057 52.3125 1.2 1 0.125547 0.0408701 0.00165517 0.00892956 0.00233643 0.0106976 0.00275749 0.0249446 0.00348938 0.0139947 0.00308575 0.0303444 0.00394004 0.0246924 0.00455957 0.0340914 0.0040112 0.0276035 0.00762034 0.0444394
78 3 O 2.52432 15.503 50.4579 -1.2 1 0.161988 0.0488651 0.00434312 0.0108434 0.00268383 0.0131107 0.0041251 0.0261588 0.00450821 0.0174163 0.00378042 0.0301944 0.00424626 0.0271485 0.00588173 0.034782 0.00499337 0.0300272 0.00884671 0.042899
79 1 Mg -1.69687 14.1849 55.1222 1.2 1 0.0543781 0.0256837 0.00617437 0.00727108 0.00191407 0.0060316 0.00208977 0.024497 0.00295957 0.00998191 0.00326315 0.0304315 0.00264538 0.0225931 0.00362672 0.0349349 0.00391975 0.0261469 0.0064353 0.052165
80 2 Si -1.69989 12.0718 53.2547 2.4 1 0.099742 0.0361418 0.00366899 0.00805978 0.00297318 0.00772204 0.00144075 0.0242959 0.00363647 0.012037 0.00278332 0.0290969 0.00420338 0.0235582 0.00341852 0.0340885 0.00485346 0.0263129 0.00734981 0.0472151
81 3 O -1.7443 10.5249 53.2128 -1.2 1 0.0973642 0.033925 0.00366538 0.00708244 0.00303305 0.00765403 0.00163285 0.0231282 0.00316014 0.0107409 0.0032446 0.0287334 0.00351546 0.0217059 0.00416067 0.0337959 0.00460507 0.0251618 0.0083839 0.0463843
82 3 O -1.21337 13.3381 46.4311 -1.2 1 0.270549 0.0534996 0.0212979 0.0201136 0.00686285 0.0207319 0.0073414 0.0302375 0.00956114 0.0205628 0.00705524 0.0314475 0.00615407 0.0271247 0.00866329 0.0358174 0.012517 0.035162 0.0133013 0.0360432
83 3 O -2.97139 12.7806 53.9538 -1.2 1 0.0860224 0.0319493 0.00343403 0.00668288 0.00229971 0.00824901 0.00163718 0.0242082 0.00277967 0.0115195 0.00226471 0.0293023 0.00354207 0.0232574 0.00351869 0.0344345 0.00381923 0.0261524 0.00668108 0.0485741
84 3 O -0.394043 12.7514 53.9026 -1.2 1 0.0830587 0.0318277 0.00406785 0.00686341 0.00305621 0.00626341 0.00127655 0.0245036 0.00264071 0.0111472 0.00228568 0.0294539 0.00347973 0.0234636 0.00372548 0.0346858 0.0040082 0.026394 0.00675409 0.0485747
85 1 Mg -3.05286 21.2467 57.37 1.2 1 0.0228334 0.0130523 0.0055264 0.00707901 0.00134132 0.00609138 0.00165795 0.0245696 0.00194073 0.00913353 0.0016461 0.0314564 0.00221348 0.021654 0.00226522 0.0344611 0.00271561 0.025296 0.00379997 0.055437
86 1 Mg -1.5831 21.1217 49.8405 1.2 1 0.181682 0.0495022 0.00698064 0.0133547 0.00327929 0.0155003 0.00357308 0.0271824 0.00464297 0.0178668 0.00479218 0.0319717 0.00401599 0.026925 0.00629319 0.035669 0.00571371 0.0312125 0.00990994 0.0425254
87 2 Si -1.09384 18.6291 47.9287 2.4 1 0.23313 0.0553142 0.0149298 0.0176792 0.00404434 0.020498 0.00451482 0.0288811 0.00817548 0.0206264 0.00585044 0.032604 0.00628664 0.029413 0.00654071 0.0362843 0.00953476 0.0339685 0.0112334 0.0412317
88 3 O -1.02071 20.1985 47.9911 -1.2 1 0.23022 0.0540865 0.0146313 0.0176728 0.00445206 0.0206419 0.00456802 0.0286695 0.00756144 0.0204466 0.00624562 0.0323154 0.00584581 0.0285506 0.00784752 0.0366157 0.00835774 0.0340774 0.0109263 0.0411571
89 3 O -1.65002 17.5002 51.771 -1.2 1 0.135892 0.0416742 0.00214236 0.0105486 0.00296018 0.0113235 0.0018171 0.0257076 0.00315596 0.0143719 0.00287035 0.0306305 0.00440885 0.0246766 0.00441479 0.0346939 0.00519806 0.0283975 0.00814809 0.0455623
90 3 O -2.26174 18.0434 48.8281 -1.2 1 0.207051 0.0546625 0.0100041 0.0151258 0.00397602 0.0169915 0.00434675 0.0282233 0.00629766 0.0200045 0.00451451 0.0319021 0.00458102 0.0283964 0.00590613 0.036383 0.00727575 0.033155 0.00992356 0.0412166
91 1 Mg -0.0440435 16.5651 46.8269 1.2 1 0.258272 0.055503 0.018971 0.0199126 0.00530038 0.0243029 0.00575239 0.03155 0.00976652 0.0221272 0.0068709 0.0337013 0.00704644 0.0298231 0.00881244 0.0361475 0.010136 0.0363389 0.0126 0.040047
92 3 O 0.37001 17.9877 48.3925 -1.2 1 0.215062 0.0542932 0.0110604 0.0161162 0.00400851 0.0181657 0.00369563 0.0287384 0.00658873 0.0198211 0.0043136 0.0317441 0.00523635 0.0294863 0.00563417 0.0355314 0.00777371 0.0347073 0.010376 0.0418513
93 1 Mg 1.36961 16.5543 54.538 1.2 1 0.0744837 0.0302908 0.00421318 0.00721431 0.00175866 0.00721359 0.00301572 0.0244114 0.00232862 0.011505 0.00236269 0.030549 0.00388994 0.0236968 0.00361763 0.0350851 0.00368332 0.0262156 0.00594408 0.0501229
94 2 Si 1.38151 19.2087 56.3932 2.4 1 0.0342986 0.0182469 0.00662523 0.0072429 0.00155571 0.00593544 0.00231266 0.0242246 0.00192321 0.00886835 0.00347263 0.0296432 0.0027781 0.0222338 0.00453482 0.0347174 0.00331923 0.0254933 0.00602793 0.0560795
95 3 O 1.33305 17.6614 56.4726 -1.2 1 0.032523 0.0171068 0.00646489 0.00733421 0.0014608 0.00560256 0.00203877 0.0246096 0.00313382 0.00838784 0.00199869 0.0304062 0.0030328 0.0213256 0.00262715 0.034764 0.00410729 0.0258064 0.00502201 0.0553852
96 3 O 1.45147 20.239 52.7294 -1.2 1 0.110463 0.037185 0.00183026 0.00873157 0.00174361 0.0110039 0.00350301 0.0254814 0.00260166 0.0132235 0.00357206 0.0305801 0.004035 0.0238052 0.00424803 0.0343286 0.00382594 0.028115 0.0071797 0.0477673
97 3 O 0.0996285 19.911 55.7527 -1.2 1 0.0482712 0.0230494 0.00596777 0.00712822 0.00134274 0.00633794 0.002497 0.0246877 0.0016685 0.0100502 0.00248097 0.0296486 0.00278618 0.022437 0.00392431 0.0351122 0.00306263 0.0264948 0.00575452 0.053939
98 3 O 2.65404 19.9008 55.7133 -1.2 1 0.0446191 0.0225489 0.00663397 0.0072596 0.00156229 0.00604592 0.00256069 0.0245514 0.00178642 0.00950886 0.00247618 0.0297026 0.0026812 0.0222554 0.00368156 0.0353841 0.00304155 0.0264422 0.00590713 0.0539942
99 1 Mg -0.126194 18.8651 52.2079 1.2 1 0.116662 0.0411705 0.00246426 0.00950899 0.00240364 0.00960636 0.00254943 0.0255762 0.00265951 0.0141083 0.00305549 0.0309554 0.00389321 0.0245895 0.00422181 0.0347576 0.00373676 0.0285641 0.00783643 0.0462765
100 1 Mg 1.92402 18.5815 49.4545 1.2 1 0.185379 0.0539416 0.00550441 0.0129282 0.00226827 0.015022 0.00439414 0.0272697 0.0048501 0.0190064 0.0043087 0.031455 0.00469832 0.0280465 0.00515777 0.0362688 0.00594142 0.0327443 0.00995127 0.042137
101 2 Si 1.38106 20.9117 51.2443 2.4 1 0.1479 0.0470338 0.0020072 0.0113929 0.00256201 0.0127621 0.00394001 0.026188 0.00377285 0.0162047 0.00493527 0.0298271 0.00413323 0.0262772 0.00587926 0.0347738 0.00377145 0.0307542 0.00959693 0.0454243
102 3 O 1.48527 22.4795 51.3054 -1.2 1 0.144137 0.0437058 0.0022436 0.0105224 0.00206295 0.0124871 0.00323453 0.0259308 0.00375308 0.0153673 0.00327877 0.0306412 0.00401242 0.0254294 0.00373791 0.0347964 0.00495705 0.0298136 0.00813991 0.0456217
103 3 O 1.42175 19.8684 57.8896 -1.2 1 0.0182626 0.0104251 0.00459014 0.00744643 0.00136547 0.00595737 0.00160263 0.024702 0.00155432 0.00811327 0.00249072 0.0306967 0.00232625 0.0213878 0.00275353 0.034696 0.0027138 0.0253025 0.00386067 0.0564807
104 3 O 0.0615419 20.2804 50.6669 -1.2 1 0.156104 0.0465777 0.00369589 0.0118407 0.00344946 0.0132636 0.00394397 0.0262669 0.0035847 0.01604 0.0031734 0.0305222 0.004353 0.0266139 0.00524524 0.0348445 0.00412644 0.0304954 0.00898629 0.044689
105 1 Mg -3.09665 18.8643 52.3122 1.2 1 0.124365 0.0411326 0.00148059 0.00933051 0.00163002 0.0112451 0.00281468 0.0255245 0.00273075 0.0147029 0.00287231 0.0307744 0.00377318 0.0251528 0.00379109 0.0344768 0.00408877 0.0283743 0.00741318 0.0456172
106 3 O 2.61548 20.2646 50.4626 -1.2 1 0.15977 0.0489708 0.00366689 0.011034 0.00197555 0.0136519 0.00393975 0.0266789 0.00366405 0.0176158 0.00356873 0.0303422 0.00419365 0.0270503 0.00533906 0.0352159 0.004448 0.0305805 0.00892578 0.0439671
107 1 Mg -1.60059 18.9488 55.0956 1.2 1 0.0567161 0.0265368 0.00599543 0.00770749 0.00177413 0.0063188 0.00218658 0.0249114 0.00261208 0.010342 0.00328874 0.0302383 0.00251267 0.0227262 0.00386886 0.03472 0.00406039 0.0263918 0.00643653 0.0525047
108 2 Si -1.62709 16.8261 53.2466 2.4 1 0.0988337 0.0364005 0.00320009 0.0086744 0.00243792 0.0078392 0.00137788 0.0247926 0.00309969 0.0125362 0.00270266 0.0298211 0.00358976 0.024327 0.00308618 0.0347842 0.00461166 0.0273352 0.00683396 0.0489456
109 3 O -1.65761 15.2649 53.1979 -1.2 1 0.0971999 0.0346308 0.00291892 0.00796424 0.00258103 0.00795924 0.00159653 0.0243042 0.00332053 0.0117235 0.00302345 0.030055 0.00322397 0.0233237 0.00415833 0.0348047 0.00408976 0.0266744 0.00756654 0.0486693
110 3 O -1.12868 18.1227 46.4249 -1.2 1 0.267668 0.0554823 0.0206962 0.0210573 0.00572054 0.0241598 0.00611315 0.0323339 0.00844354 0.0219459 0.00613227 0.0340713 0.00697418 0.027913 0.00861213 0.0378432 0.0116705 0.0373212 0.0126706 0.0399657
111 3 O -2.88298 17.5202 53.9485 -1.2 1 0.0840479 0.0319246 0.00349605 0.00730881 0.00164724 0.00821708 0.00181727 0.0247532 0.00222418 0.0119376 0.0020057 0.0297903 0.00319107 0.0239468 0.00299067 0.0348463 0.00380495 0.0265432 0.00633894 0.0497643
112 3 O -0.327236 17.504 53.8947 -1.2 1 0.0806924 0.0320615 0.00443777 0.00754068 0.00262731 0.00622909 0.00119174 0.0249086 0.00240521 0.0112178 0.00231737 0.02962 0.0031703 0.0237916 0.00357294 0.0351106 0.00401388 0.0272285 0.00679988 0.0499988
113 1 Mg -2.97975 26.0058 57.4185 1.2 1 0.0222602 0.0127776 0.00545425 0.00714873 0.00144748 0.00621895 0.00133876 0.0244789 0.0018215 0.00917457 0.00183597 0.0313627 0.00219761 0.0216276 0.00230072 0.0345317 0.00272653 0.0252664 0.0039755 0.0554848
114 1 Mg -1.48778 25.88 49.8402 1.2 1 0.18132 0.049449 0.00692331 0.0137339 0.00334328 0.0154992 0.00358711 0.0271746 0.00443858 0.0180286 0.00474794 0.032066 0.00400295 0.0268335 0.00626264 0.0355497 0.00570752 0.031287 0.00992964 0.0426124
115 2 Si -1.00491 23.3922 47.9274 2.4 1 0.23402 0.0553743 0.0150157 0.0185022 0.00429391 0.0211701 0.00480218 0.0290602 0.00780806 0.0208362 0.00555675 0.0327885 0.00616333 0.0291487 0.00652293 0.0362012 0.00921342 0.0341967 0.0112952 0.0412219
116 3 O -0.927602 24.9615 47.9909 -1.2 1 0.230238 0.0539563 0.0143853 0.01799 0.00438786 0.0207293 0.00442487 0.0286714 0.0073367 0.0205658 0.00597505 0.0324077 0.00585864 0.0283607 0.00766383 0.0364488 0.00841733 0.0342054 0.0109365 0.0411905
117 3 O -1.55795 22.2588 51.7696 -1.2 1 0.134941 0.0418621 0.00218114 0.0107328 0.00284081 0.0115942 0.0019897 0.0257835 0.00284049 0.0146174 0.00295939 0.0306934 0.00434315 0.0246815 0.00424794 0.0346112 0.00507739 0.0285983 0.00822471 0.0459693
118 3 O -2.17411 22.8111 48.8277 -1.2 1 0.206649 0.0547454 0.00983504 0.0155585 0.00358632 0.0172868 0.00425946 0.0284094 0.00573841 0.0202241 0.00446883 0.0319446 0.00460667 0.0282168 0.00590673 0.0364116 0.00706599 0.0334388 0.0100149 0.0414414
119 1 Mg 0.0423997 21.3296 46.8225 1.2 1 0.25767 0.0558248 0.0188296 0.0206784 0.00537273 0.0252393 0.00611458 0.0320587 0.00889527 0.0225051 0.00651819 0.034109 0.0071823 0.0296037 0.00888018 0.0365261 0.00955911 0.0367595 0.0125147 0.0406533
120 3 O 0.458537 22.7495 48.3911 -1.2 1 0.213129 0.0540641 0.0107677 0.0164214 0.00401979 0.0182731 0.00365383 0.0285476 0.00601492 0.0201634 0.00395397 0.0318126 0.00536092 0.0293655 0.00587193 0.0356126 0.00735221 0.0346999 0.0104606 0.042218