ITEM: TIMESTEP
3500
ITEM: NUMBER OF ATOMS
10500
ITEM: BOX BOUNDS xy xz yz pp pp pp
0	8.9688	2.9896
0	118.725	0
0	252.977	0
ITEM: ATOMS id type element xu yu zu q Q_1 Q_2 Q_3 Q_4 Q_5 Q_6 Q_7 Q_8 Q_9 Q_10 Q_11 Q_12 Q_13 Q_14 Q_15 Q_16 Q_17 Q_18 Q_19 Q_20 Q_21
1 1 Mg -3.30019 7.00792 57.5203 1.2 1 0.0229714 0.0128692 0.00542305 0.00673771 0.00176403 0.00666819 0.00126956 0.0237426 0.00138028 0.00896028 0.00179329 0.0308373 0.00324913 0.0205466 0.00241286 0.0339428 0.00286203 0.0248987 0.00509663 0.0532512
2 1 Mg -1.82655 6.90154 50.0912 1.2 1 0.176043 0.0467041 0.00587115 0.0101673 0.00320516 0.00876146 0.00456022 0.0233186 0.00487176 0.0145036 0.00488023 0.0263753 0.00451204 0.0209975 0.00680412 0.0296297 0.0054808 0.0250161 0.0093952 0.0360397
3 2 Si -0.257935 3.96038 48.0876 2.4 1 0.22516 0.0524435 0.0109315 0.0129932 0.00239194 0.00931042 0.00393304 0.020742 0.00590511 0.0169284 0.00438203 0.0247398 0.00539547 0.0205497 0.00572218 0.0269655 0.00700136 0.0242059 0.00922418 0.0330388
4 3 O -0.335812 5.46814 47.6264 -1.2 1 0.232531 0.0520181 0.0126746 0.0140108 0.00302496 0.0105367 0.00488259 0.0214824 0.00647691 0.0175851 0.00489727 0.0254037 0.00483621 0.0209813 0.00564788 0.0273483 0.00755527 0.0250632 0.00968819 0.0317217
5 3 O -2.03793 3.43377 51.8941 -1.2 1 0.12963 0.0394553 0.00260247 0.00748334 0.00233373 0.0071033 0.00273135 0.0213484 0.00258774 0.011635 0.0034665 0.0262521 0.00398251 0.0183169 0.00408668 0.029586 0.00530969 0.0231258 0.00851971 0.0395932
6 3 O -1.54015 3.53929 48.9521 -1.2 1 0.204243 0.0509359 0.00847295 0.0113043 0.00277205 0.00836317 0.00386247 0.0205865 0.0050942 0.0154718 0.00484796 0.0243359 0.00437841 0.0201257 0.00581637 0.0276323 0.00555552 0.0234977 0.0091414 0.0331509
7 1 Mg 1.82954 2.54582 47.1376 1.2 1 0.245481 0.051805 0.0151644 0.0157982 0.0029593 0.0109919 0.00362801 0.0205462 0.00573396 0.0158223 0.00477989 0.0243469 0.00597351 0.0197323 0.00710828 0.025307 0.00646716 0.0230288 0.00871043 0.0308371
8 3 O 1.22989 3.66364 48.7877 -1.2 1 0.205924 0.0495393 0.00880554 0.012375 0.00226194 0.00934064 0.0043827 0.0208739 0.00412235 0.0151557 0.00391998 0.0243382 0.0048377 0.0197877 0.00609939 0.0270927 0.00462546 0.0235373 0.00930956 0.0340554
9 1 Mg 1.06505 2.31445 54.5931 1.2 1 0.0695097 0.027528 0.004791 0.00560806 0.0019299 0.00518118 0.00271538 0.0222729 0.00257816 0.0100369 0.00300519 0.0278758 0.00429798 0.0200272 0.00425575 0.0321437 0.00309048 0.0236661 0.00725009 0.0465759
10 2 Si 1.16667 4.96334 56.5308 2.4 1 0.0333654 0.0172208 0.00615196 0.00668966 0.00156603 0.00683528 0.00188259 0.0233036 0.00163145 0.0088161 0.00311237 0.0287039 0.00280374 0.0204569 0.00393431 0.0330177 0.00350434 0.0246073 0.00694316 0.052531
11 3 O 1.02508 3.41066 56.6266 -1.2 1 0.0328359 0.0165983 0.00599258 0.00642518 0.00159526 0.00628016 0.00203318 0.0231425 0.00223537 0.00823494 0.00235593 0.0295207 0.00302096 0.0195061 0.00352928 0.0329599 0.00366278 0.0246739 0.00624278 0.0513908
12 3 O 1.10813 6.07342 52.8172 -1.2 1 0.108054 0.0350891 0.00309009 0.00697946 0.0024511 0.00730617 0.00338828 0.0230926 0.00322273 0.0113493 0.00331742 0.0276924 0.00454712 0.0195277 0.00502526 0.0311843 0.00443156 0.0241691 0.00789066 0.04226
13 3 O -0.102528 5.68441 55.8278 -1.2 1 0.0472021 0.0219097 0.00611993 0.00610545 0.00178154 0.00563196 0.00242716 0.0228926 0.00182048 0.00971176 0.00277059 0.028992 0.00309545 0.0198913 0.00417878 0.033315 0.00324022 0.0244821 0.00680557 0.0499918
14 3 O 2.45358 5.67037 55.8417 -1.2 1 0.0435177 0.021257 0.00663871 0.00618838 0.00133717 0.00625446 0.00251056 0.0234385 0.00126016 0.00921617 0.00297778 0.0290486 0.00317037 0.0202477 0.00441036 0.0341534 0.00323687 0.0250838 0.00714553 0.0504788
15 1 Mg -0.459401 4.67631 52.2426 1.2 1 0.124502 0.0395057 0.00246563 0.00737998 0.00263024 0.00670254 0.00246367 0.0221417 0.00316673 0.0123103 0.00292059 0.0273633 0.00408818 0.0194385 0.00452147 0.0302063 0.00432524 0.0232159 0.00773264 0.0394114
16 1 Mg 2.79456 3.9971 49.9987 1.2 1 0.176766 0.0484105 0.00511867 0.0102643 0.00305259 0.00787533 0.0048736 0.021566 0.00341731 0.0149907 0.00313285 0.0251738 0.00455322 0.0205199 0.00616837 0.0286687 0.00449461 0.0239588 0.00999208 0.0350171
17 2 Si 1.16169 6.59457 51.2556 2.4 1 0.148685 0.044565 0.00259386 0.00941693 0.00262332 0.00847614 0.00426246 0.0229297 0.00448778 0.0136224 0.00431336 0.0260605 0.00437266 0.020998 0.00665848 0.0309376 0.00452309 0.025076 0.00960335 0.0388199
18 3 O 1.28989 8.18905 51.2909 -1.2 1 0.146987 0.0437784 0.00294128 0.0092798 0.00254692 0.00909434 0.00434697 0.023541 0.0043779 0.0133918 0.00393438 0.0280553 0.00435426 0.0217464 0.00506678 0.0310789 0.00531707 0.0256994 0.00876647 0.0403152
19 3 O 1.15925 5.68243 58.0021 -1.2 1 0.0174774 0.00965519 0.00401713 0.00697992 0.00176098 0.00686376 0.00131174 0.0238122 0.00116186 0.00820703 0.00251956 0.0302108 0.00268539 0.0205131 0.00299669 0.0340967 0.00248972 0.0252634 0.0044944 0.0542386
20 3 O -0.184847 6.06029 50.6845 -1.2 1 0.16031 0.0437132 0.00433829 0.00940491 0.00319821 0.00804245 0.00421169 0.0225661 0.00427905 0.0137487 0.00334108 0.0258527 0.00427626 0.0202004 0.00630292 0.0291962 0.00485877 0.024192 0.00918034 0.03779
21 1 Mg -3.49704 4.67769 52.6661 1.2 1 0.116554 0.037182 0.00243679 0.00672687 0.00244677 0.00711657 0.00310486 0.0218166 0.00339518 0.0114824 0.0037199 0.0272187 0.00408534 0.0190527 0.0045181 0.030043 0.00387861 0.0231354 0.00830217 0.0406053
22 3 O 2.48581 5.93312 50.6539 -1.2 1 0.157395 0.0456942 0.00356452 0.00869679 0.00185278 0.00859759 0.00435359 0.022634 0.00416297 0.0140157 0.00402928 0.0257288 0.0046201 0.0209869 0.00622086 0.02999 0.00412076 0.0246886 0.00947586 0.0373658
23 1 Mg -1.81943 4.70106 55.1759 1.2 1 0.05283 0.0244666 0.00676743 0.0062996 0.0018373 0.00580077 0.00186657 0.0228595 0.00277069 0.00953121 0.00327792 0.0292229 0.00277949 0.0200275 0.00406061 0.0329852 0.00427259 0.0243421 0.00725962 0.0481207
24 2 Si -1.94409 2.65672 53.325 2.4 1 0.103052 0.0346682 0.00324952 0.00650403 0.00279315 0.00616201 0.0022407 0.0217816 0.00271446 0.0112825 0.00316848 0.0264255 0.00352215 0.019546 0.00328476 0.030543 0.00445642 0.0231049 0.00757344 0.0427488
25 3 O -1.96965 1.08244 53.2342 -1.2 1 0.098032 0.0330581 0.00304905 0.00644736 0.00331729 0.00580649 0.00219089 0.0216569 0.00260804 0.0103603 0.00296685 0.0272092 0.00348184 0.0191865 0.00400558 0.0306566 0.00407422 0.0227866 0.00767968 0.0431513
26 3 O -0.0467762 2.97103 46.8385 -1.2 1 0.252129 0.0527729 0.0159684 0.015282 0.0029734 0.00975033 0.00402618 0.0202339 0.00658052 0.0169894 0.00597875 0.0241121 0.0069949 0.0192577 0.00808808 0.0254657 0.00668634 0.0233148 0.00996014 0.0319526
27 3 O -3.20606 3.28831 54.1122 -1.2 1 0.0810049 0.0298136 0.00419123 0.00557641 0.00217075 0.00574967 0.00196355 0.0220825 0.00269018 0.0106365 0.00267086 0.027128 0.00321686 0.0195286 0.0036814 0.03122 0.00366764 0.0229581 0.00743616 0.0447962
28 3 O -0.652657 3.33143 53.9813 -1.2 1 0.081968 0.0303417 0.00460929 0.00580893 0.00227586 0.00610024 0.00172422 0.0222415 0.0023522 0.0105593 0.00224031 0.0272832 0.00367591 0.0198717 0.00343265 0.0316401 0.00346833 0.0237125 0.00722536 0.0445254
29 1 Mg -3.2159 11.747 57.4549 1.2 1 0.0241098 0.0130424 0.00488767 0.00677349 0.00153562 0.00622246 0.00143753 0.024239 0.00194378 0.0091489 0.00184301 0.0315325 0.00232672 0.02089 0.00235898 0.0345305 0.00260661 0.0252005 0.00428802 0.0542161
30 1 Mg -1.75014 11.5838 49.8362 1.2 1 0.18411 0.047693 0.00709322 0.0124144 0.00440034 0.0125613 0.00491951 0.0248563 0.00584845 0.0158158 0.00519793 0.0294158 0.00443051 0.0241882 0.00711171 0.0331871 0.00672503 0.0283846 0.00988213 0.0390325
31 2 Si -1.18003 9.02138 47.9309 2.4 1 0.23818 0.0517416 0.0146559 0.0153642 0.00515785 0.0129468 0.00778856 0.023615 0.00843186 0.0172644 0.00712638 0.0268858 0.00500983 0.0228078 0.00664007 0.0301777 0.00899749 0.0276395 0.0121699 0.0349231
32 3 O -1.23224 10.5991 47.9811 -1.2 1 0.228197 0.0527241 0.0127993 0.0156368 0.00514318 0.0140276 0.00654548 0.0247007 0.00835578 0.017476 0.00705847 0.0282923 0.00542968 0.0239129 0.0081334 0.0324376 0.0090933 0.0296204 0.0109149 0.0356566
33 3 O -1.79016 8.01447 51.8693 -1.2 1 0.133716 0.0398741 0.00265564 0.00870569 0.00348047 0.00757156 0.00276006 0.0231132 0.00375747 0.0124228 0.00380663 0.0280935 0.00428371 0.0206369 0.00483437 0.0317107 0.00535053 0.0244852 0.00910381 0.0411419
34 3 O -2.30986 8.37215 48.8528 -1.2 1 0.204315 0.0519724 0.00880172 0.012508 0.00396604 0.0103427 0.00609193 0.0239244 0.00631673 0.0170369 0.00489713 0.0269891 0.00421866 0.022827 0.00589819 0.0311384 0.00691668 0.027116 0.00979151 0.0350688
35 1 Mg 0.154883 7.08234 46.8007 1.2 1 0.257474 0.0523109 0.0172537 0.0162595 0.00556446 0.0133 0.00863878 0.0240113 0.00788662 0.0176762 0.00719771 0.0255938 0.0070218 0.0216631 0.00827109 0.0288699 0.00951891 0.0275645 0.0129262 0.031951
36 3 O 0.325447 8.50934 48.3809 -1.2 1 0.215917 0.0525909 0.0103062 0.0140509 0.00415715 0.0121465 0.0063233 0.0245209 0.00685055 0.0169926 0.00564729 0.0267111 0.00484552 0.0237038 0.00561243 0.0301185 0.00716497 0.0277781 0.0105699 0.034847
37 1 Mg 1.16928 7.07514 54.6518 1.2 1 0.0692069 0.0279726 0.00504545 0.00587954 0.00213344 0.00602564 0.00249849 0.022927 0.002341 0.010329 0.00310936 0.0288939 0.00407057 0.0205278 0.00387837 0.0333569 0.00366179 0.023914 0.00758986 0.04709
38 2 Si 1.16334 9.72387 56.4637 2.4 1 0.0349319 0.0183695 0.00622338 0.00694223 0.00170357 0.00607597 0.00234671 0.0234635 0.00195914 0.0086688 0.00356815 0.0295998 0.00284542 0.0212286 0.00433453 0.0344677 0.00337512 0.0246979 0.0070176 0.0536212
39 3 O 1.15378 8.16087 56.5264 -1.2 1 0.0325606 0.016877 0.00605977 0.0067488 0.0016283 0.00638398 0.00147508 0.0236851 0.00262439 0.00813191 0.00230663 0.0299515 0.00342108 0.0201035 0.00271473 0.0339336 0.00368378 0.0248759 0.00602981 0.0529526
40 3 O 1.28624 10.7248 52.7351 -1.2 1 0.113973 0.0372473 0.00243854 0.00783271 0.00260379 0.00931283 0.00317751 0.0244772 0.00333329 0.0120763 0.00384336 0.0291065 0.00451265 0.0220849 0.00496513 0.0331659 0.00405194 0.0262231 0.00810703 0.0443966
41 3 O -0.106449 10.4108 55.8266 -1.2 1 0.0501662 0.0230925 0.00557588 0.00641442 0.0015238 0.00615149 0.00217683 0.0242818 0.00161561 0.00989858 0.00254997 0.0294515 0.00316838 0.0217135 0.00414876 0.0346483 0.00306865 0.0256288 0.00651522 0.0515915
42 3 O 2.4481 10.4101 55.788 -1.2 1 0.044501 0.0218492 0.00654996 0.00657373 0.00166954 0.00576378 0.00187913 0.0235683 0.00182456 0.00924172 0.0026051 0.0297516 0.00314582 0.0211457 0.00362372 0.034933 0.00255719 0.0253638 0.00654616 0.0516917
43 1 Mg -0.262694 9.34741 52.2523 1.2 1 0.114692 0.0394319 0.00310308 0.0080809 0.00311077 0.00769921 0.00255426 0.0242767 0.00337489 0.0120669 0.00357947 0.029131 0.00410263 0.0213338 0.00537598 0.0327609 0.00424925 0.0259471 0.00855436 0.0424538
44 1 Mg 1.87648 9.01537 49.4629 1.2 1 0.184956 0.0520641 0.00549018 0.0114844 0.00301183 0.0106969 0.00643137 0.0240566 0.00577484 0.0161359 0.00496597 0.0276823 0.0048583 0.0233982 0.00608347 0.031576 0.00563834 0.027627 0.0102898 0.0366383
45 2 Si 1.21415 11.3799 51.2378 2.4 1 0.148729 0.0456423 0.002243 0.0102071 0.0031196 0.0107217 0.00399255 0.024773 0.00461069 0.0145119 0.00473141 0.0281087 0.00449475 0.0242686 0.00594529 0.0333072 0.00479214 0.0282932 0.00945901 0.0420228
46 3 O 1.31634 12.9512 51.3023 -1.2 1 0.148598 0.0441937 0.00288068 0.0100839 0.00274976 0.0114904 0.00366077 0.0251735 0.00466507 0.0147092 0.00354213 0.0298855 0.00448561 0.0248825 0.00475547 0.0339996 0.00521703 0.0284895 0.00851374 0.0428716
47 3 O 1.18668 10.3755 57.9514 -1.2 1 0.0183956 0.01021 0.00406781 0.00711233 0.00150195 0.00659837 0.00151165 0.0241819 0.00166747 0.00812608 0.002638 0.0308386 0.0025353 0.0209617 0.0028727 0.0343925 0.00247667 0.0250012 0.00414138 0.0553261
48 3 O -0.115718 10.7564 50.681 -1.2 1 0.15683 0.0454803 0.00354596 0.0105487 0.00387809 0.0105308 0.00424101 0.0248356 0.00455662 0.0143818 0.00372976 0.0285581 0.00494046 0.023594 0.00601233 0.0323248 0.00512375 0.027315 0.00957756 0.0408285
49 1 Mg -3.26386 9.35564 52.3622 1.2 1 0.124172 0.0390174 0.00226572 0.00777922 0.00246684 0.00914887 0.00363601 0.0237909 0.00379461 0.0124638 0.00401904 0.0286205 0.00395222 0.0216772 0.00511231 0.032746 0.00422762 0.0256251 0.00877117 0.0414632
50 3 O 2.45216 10.7265 50.4558 -1.2 1 0.164195 0.0481125 0.00393082 0.0100985 0.00285516 0.0111842 0.00508307 0.0242562 0.00525511 0.0157664 0.00436474 0.028333 0.00416374 0.024312 0.0061823 0.0328806 0.00563581 0.0277473 0.0094868 0.0400039
51 1 Mg -1.82308 9.47044 55.1962 1.2 1 0.0545126 0.0253424 0.00607598 0.00659665 0.00217361 0.00607992 0.00222718 0.0237459 0.00259077 0.00941783 0.00317425 0.0297898 0.00296785 0.021173 0.0036323 0.0341606 0.00425886 0.0250679 0.00758233 0.0499696
52 2 Si -1.79157 7.38322 53.3609 2.4 1 0.0964926 0.0348167 0.00390624 0.00712582 0.00329433 0.00661354 0.00231224 0.022886 0.003656 0.0114154 0.0033438 0.0280298 0.00372039 0.0208825 0.00357773 0.0323805 0.00469353 0.0239861 0.00749449 0.0443907
53 3 O -1.84955 5.83628 53.3434 -1.2 1 0.0969723 0.0324027 0.00321849 0.00643322 0.00277596 0.00659066 0.00200875 0.0221512 0.00342355 0.0104746 0.00315952 0.0275429 0.00333925 0.0195594 0.00418526 0.0319925 0.00382607 0.0235376 0.00787784 0.0435414
54 3 O -1.19417 8.46968 46.4488 -1.2 1 0.269511 0.0529584 0.0199579 0.0180874 0.00552346 0.0144525 0.00898051 0.0251432 0.00849599 0.0176798 0.00768465 0.0260876 0.0062 0.021246 0.00908965 0.0303286 0.0102809 0.029448 0.0121461 0.0316493
55 3 O -3.10204 8.076 53.9964 -1.2 1 0.0829436 0.0297316 0.00372728 0.00615712 0.00241383 0.0073185 0.00216216 0.0232427 0.00268144 0.0108518 0.00269906 0.0281272 0.00339193 0.0209175 0.00380777 0.0331407 0.00434093 0.0243228 0.00812439 0.0461406
56 3 O -0.501104 8.09456 54.0277 -1.2 1 0.0771962 0.0300947 0.00507504 0.006094 0.00279599 0.00574042 0.00120035 0.0234468 0.0025495 0.0103823 0.00264553 0.02832 0.00329724 0.020608 0.00395176 0.0333517 0.0041545 0.0249863 0.00760985 0.0465783
57 1 Mg -3.12047 16.4989 57.3754 1.2 1 0.0233786 0.0127707 0.00498226 0.00714007 0.00155183 0.0058893 0.00136865 0.0245869 0.00213944 0.00922198 0.00169075 0.031383 0.00223267 0.0212118 0.0022798 0.0347999 0.00289024 0.0251022 0.00403208 0.054689
58 1 Mg -1.6714 16.3544 49.8412 1.2 1 0.181733 0.0485354 0.00679207 0.0129829 0.00364073 0.0148132 0.0037593 0.0268386 0.0051349 0.0177813 0.00451368 0.0318461 0.00404961 0.0266862 0.00680964 0.0353141 0.00580034 0.0309741 0.00931501 0.0419082
59 2 Si -1.18567 13.8526 47.9314 2.4 1 0.232812 0.0540242 0.0147358 0.0169494 0.00466132 0.0178605 0.00540158 0.027415 0.00902113 0.0198287 0.00609084 0.0311169 0.00576106 0.0285367 0.00644225 0.034726 0.0100222 0.032567 0.0109748 0.0386561
60 3 O -1.09664 15.4205 47.9915 -1.2 1 0.23153 0.0532117 0.0145417 0.0171785 0.00501051 0.0190246 0.0049963 0.0279443 0.00843255 0.0199971 0.00625394 0.0314892 0.00575328 0.0279766 0.00815652 0.0357662 0.00905959 0.0335344 0.0105575 0.0394411
61 3 O -1.73493 12.7491 51.7772 -1.2 1 0.135879 0.0407953 0.00248715 0.00977867 0.00355479 0.00983688 0.00184472 0.0251341 0.00405711 0.0137212 0.00303298 0.0300354 0.00466327 0.0237656 0.00478744 0.0338302 0.00522541 0.027137 0.00833531 0.0440052
62 3 O -2.36115 13.2717 48.8238 -1.2 1 0.207403 0.053344 0.00965198 0.0145508 0.00459299 0.0142388 0.0051774 0.0269564 0.00688271 0.0193038 0.00518147 0.0306442 0.00464063 0.0270185 0.00598884 0.0348701 0.00792155 0.0315551 0.00984128 0.0386443
63 1 Mg -0.159928 11.7639 46.8533 1.2 1 0.258962 0.0538142 0.0183745 0.0188051 0.00620505 0.0198433 0.00757014 0.0283423 0.00994318 0.0197261 0.00789961 0.0304831 0.0069278 0.0271579 0.00805718 0.0334747 0.0108677 0.0332 0.0131642 0.0359712
64 3 O 0.2623 13.1866 48.413 -1.2 1 0.214839 0.0530469 0.0111232 0.0151774 0.00424468 0.0158447 0.00495824 0.0270336 0.00783666 0.0186455 0.005083 0.0299151 0.00510168 0.0280395 0.00532608 0.0338816 0.00849933 0.0325479 0.0103199 0.0391252
65 1 Mg 1.31608 11.79 54.5285 1.2 1 0.0764663 0.0302529 0.00366689 0.00629489 0.00213037 0.00706752 0.00271736 0.0239394 0.00250062 0.011074 0.00243593 0.0298934 0.00420804 0.0228609 0.00342229 0.0345484 0.00375419 0.0252087 0.00633804 0.0480499
66 2 Si 1.35111 14.44 56.4388 2.4 1 0.0351077 0.0182659 0.00592634 0.0073204 0.00178556 0.00604552 0.00194544 0.024244 0.00203128 0.0090506 0.00330696 0.0299951 0.00263024 0.0218331 0.00437406 0.0349235 0.00338223 0.0253177 0.00636892 0.055286
67 3 O 1.34204 12.8974 56.5409 -1.2 1 0.0320297 0.0166055 0.00592793 0.00711875 0.00157438 0.00605318 0.00181035 0.0241934 0.0032767 0.00824198 0.00216746 0.0306131 0.00304885 0.0208511 0.002999 0.0349093 0.00373322 0.0256169 0.00563228 0.0545711
68 3 O 1.36565 15.4813 52.729 -1.2 1 0.11376 0.0373528 0.00135029 0.00859045 0.0022349 0.0107113 0.00362012 0.0252364 0.00292048 0.0132817 0.00361203 0.0307981 0.00424054 0.0235132 0.00504166 0.0342743 0.00395269 0.0277905 0.00753099 0.0465026
69 3 O 0.0499219 15.1208 55.7704 -1.2 1 0.0485847 0.0226648 0.0053024 0.00704622 0.00139509 0.00642868 0.00224092 0.0242223 0.00162931 0.00979556 0.00259164 0.0299673 0.0026788 0.0217827 0.00372648 0.0355325 0.00305957 0.0263317 0.0060847 0.0529341
70 3 O 2.60216 15.0993 55.7122 -1.2 1 0.0451023 0.0221827 0.00597108 0.00715248 0.00164027 0.00614018 0.00230634 0.0244899 0.00184436 0.00959353 0.00276144 0.0300316 0.00281556 0.0221162 0.00393675 0.0355001 0.00296135 0.0259972 0.0062857 0.0531871
71 1 Mg -0.206989 14.1049 52.2121 1.2 1 0.11784 0.0406543 0.00203567 0.00886177 0.00283956 0.00894724 0.00251713 0.0253648 0.00337269 0.0135553 0.00326542 0.0307335 0.00393297 0.0240852 0.00460337 0.0343002 0.0037783 0.0276606 0.00761195 0.0446909
72 1 Mg 1.82591 13.8102 49.4556 1.2 1 0.186574 0.0530639 0.005644 0.0125749 0.00291802 0.0135975 0.00490736 0.0261669 0.00576953 0.018053 0.00506336 0.030173 0.0047234 0.0269961 0.00640811 0.0352316 0.00636952 0.0314262 0.00988873 0.0395542
73 2 Si 1.29285 16.1518 51.2434 2.4 1 0.148746 0.0465614 0.00193462 0.0110858 0.00266636 0.0122877 0.00403838 0.0261098 0.00448509 0.0160421 0.00492422 0.0297421 0.00408524 0.0261263 0.00625057 0.0347524 0.00403886 0.0305931 0.00935424 0.0444763
74 3 O 1.39496 17.7199 51.3047 -1.2 1 0.143997 0.0430041 0.00221166 0.0101024 0.00205089 0.0121809 0.00324379 0.0259998 0.00386805 0.0152676 0.00312612 0.0307095 0.00382204 0.0250313 0.0042323 0.035061 0.00535505 0.0296028 0.00797292 0.0449125
75 3 O 1.3694 15.1443 57.9138 -1.2 1 0.0185702 0.0101446 0.0039559 0.0074683 0.00150453 0.00614359 0.00114126 0.024738 0.00171493 0.00819775 0.00266088 0.0308927 0.00225574 0.0211686 0.00283842 0.0349658 0.00280275 0.0252091 0.00408375 0.0557092
76 3 O -0.0269106 15.5178 50.6688 -1.2 1 0.156958 0.0460055 0.00376387 0.0113595 0.00365691 0.012468 0.00380526 0.0259887 0.00415626 0.0157841 0.0030945 0.0302496 0.00434349 0.0261241 0.00600834 0.0344312 0.00437351 0.0300654 0.00872085 0.0432267
77 1 Mg -3.18391 14.1057 52.3125 1.2 1 0.125953 0.0409072 0.001428 0.00887911 0.00225712 0.0107509 0.00294842 0.0253314 0.00370487 0.0141936 0.00308741 0.0304665 0.00390231 0.024469 0.00447776 0.0340916 0.00412476 0.027802 0.00742396 0.0440426
78 3 O 2.52432 15.503 50.4579 -1.2 1 0.162605 0.0487207 0.00395267 0.010952 0.00236533 0.0132422 0.00425659 0.0261019 0.00486807 0.0176709 0.00368762 0.030281 0.00410273 0.0271504 0.00615862 0.0347413 0.00485546 0.0302267 0.00876569 0.0426058
79 1 Mg -1.63469 14.1533 55.0899 1.2 1 0.0582191 0.0265469 0.00515638 0.00744184 0.00237212 0.00618325 0.00197897 0.0247565 0.00284915 0.0101697 0.00326634 0.0305194 0.00247016 0.0225098 0.00400988 0.0348424 0.00416712 0.0258697 0.00678364 0.0513952
80 2 Si -1.72179 12.0667 53.2414 2.4 1 0.100686 0.0365146 0.00347198 0.00801818 0.00298512 0.00754975 0.00170181 0.0244682 0.00375934 0.0121877 0.00291659 0.029311 0.00422527 0.023471 0.00344829 0.0340723 0.0050379 0.0262411 0.0072937 0.0468415
81 3 O -1.75492 10.5357 53.1738 -1.2 1 0.0989856 0.0343625 0.00352973 0.00705692 0.00312757 0.00766717 0.00166635 0.0236032 0.00327514 0.0107403 0.00329999 0.0288066 0.00369079 0.0214014 0.00435261 0.0337132 0.00430579 0.0253332 0.00856863 0.0459936
82 3 O -1.21337 13.3381 46.4311 -1.2 1 0.270245 0.0534575 0.0208068 0.0203969 0.00670265 0.0206315 0.00737563 0.0303565 0.0100073 0.0209298 0.00714346 0.0315293 0.00618783 0.0268255 0.008744 0.0358489 0.0125825 0.0353176 0.0130234 0.0361141
83 3 O -3.00332 12.7583 53.9631 -1.2 1 0.0850121 0.0316379 0.00325111 0.00654308 0.00205864 0.00807033 0.00179224 0.024356 0.0024764 0.0115096 0.00223617 0.0294362 0.00362262 0.0229815 0.00359213 0.034595 0.00345121 0.0260489 0.00684607 0.0483927
84 3 O -0.422046 12.7701 53.8847 -1.2 1 0.0831012 0.0319874 0.00360759 0.00682737 0.0029895 0.00622746 0.00128068 0.0248709 0.00260982 0.0112671 0.00245453 0.0294661 0.00349411 0.0231327 0.00357359 0.0347739 0.00372881 0.0265068 0.00696396 0.0481874
85 1 Mg -3.00714 21.2565 57.4314 1.2 1 0.0227513 0.0121802 0.00501313 0.00702154 0.00144187 0.00624668 0.00147343 0.0246533 0.00217215 0.00922431 0.00156162 0.0310629 0.00221356 0.0212986 0.0022548 0.034545 0.00275925 0.024869 0.00389971 0.0548518
86 1 Mg -1.5831 21.1217 49.8405 1.2 1 0.181953 0.0486672 0.00674809 0.0132525 0.00330039 0.0155503 0.00373381 0.0274131 0.00462826 0.0180783 0.00458517 0.0317038 0.00386941 0.0267484 0.00660535 0.0357305 0.00572991 0.0312224 0.00952045 0.0421834
87 2 Si -1.09384 18.6291 47.9287 2.4 1 0.233403 0.0548878 0.0144218 0.0174675 0.0039984 0.020371 0.00478068 0.0291235 0.00829112 0.0207153 0.00557471 0.0325186 0.00614005 0.0293165 0.00657095 0.0362293 0.00984727 0.0340817 0.0106087 0.0410625
88 3 O -1.02071 20.1985 47.9911 -1.2 1 0.230644 0.0535746 0.0139867 0.0176761 0.00430366 0.0205109 0.00483454 0.0289139 0.00776205 0.0205123 0.00590159 0.032183 0.00585878 0.0284152 0.00783592 0.0365107 0.00854297 0.034125 0.0103235 0.0409142
89 3 O -1.65002 17.5002 51.771 -1.2 1 0.136013 0.0409256 0.00188913 0.010221 0.00316199 0.0112874 0.00195127 0.0257988 0.0031659 0.0146297 0.00264222 0.0305882 0.0043312 0.0245782 0.00464719 0.0347226 0.00526163 0.0282876 0.00788751 0.0451686
90 3 O -2.26174 18.0434 48.8281 -1.2 1 0.204342 0.0533318 0.00929484 0.0147325 0.00373006 0.0167774 0.00444471 0.0283154 0.00611542 0.0199673 0.00437803 0.0318823 0.00430051 0.0281295 0.00646374 0.0361213 0.00714929 0.0331945 0.00937511 0.0408962
91 1 Mg -0.0440435 16.5651 46.8269 1.2 1 0.258419 0.0552661 0.0185306 0.0198432 0.0052649 0.0240607 0.00595312 0.0316738 0.0100303 0.022369 0.00653736 0.0337438 0.00708221 0.0295248 0.008842 0.0361497 0.0102751 0.0365866 0.0121673 0.04014
92 3 O 0.37001 17.9877 48.3925 -1.2 1 0.213657 0.0536827 0.0105014 0.0158463 0.00372769 0.017687 0.00388336 0.0287291 0.00666495 0.0200996 0.00383469 0.0316195 0.00512873 0.0293014 0.00597702 0.0355575 0.00780705 0.0345711 0.00978772 0.0415813
93 1 Mg 1.34971 16.5683 54.5744 1.2 1 0.07273 0.0292646 0.00385029 0.00685514 0.00192366 0.00756006 0.00294633 0.0245255 0.00220321 0.0115366 0.00247971 0.0303563 0.00395605 0.0234791 0.00388685 0.035285 0.00357615 0.0261915 0.00607881 0.0498724
94 2 Si 1.41954 19.2141 56.4002 2.4 1 0.0354903 0.0179674 0.00573146 0.00718182 0.0014681 0.0061152 0.00204225 0.0243446 0.00207984 0.00928546 0.00349315 0.0296151 0.00270764 0.021951 0.00448159 0.0350087 0.00321719 0.0249779 0.00591084 0.0550058
95 3 O 1.37809 17.6702 56.5047 -1.2 1 0.0320007 0.0163416 0.00589092 0.00725785 0.00179025 0.00589761 0.00173574 0.0247325 0.0031604 0.00851042 0.0019947 0.0303722 0.00307794 0.0212008 0.00260308 0.0350797 0.00405081 0.0254523 0.00521256 0.054834
96 3 O 1.45147 20.239 52.7294 -1.2 1 0.111315 0.0362457 0.00140284 0.00833399 0.00178098 0.0109827 0.00347986 0.0256038 0.00224612 0.0134674 0.00340527 0.0303433 0.0042104 0.0235767 0.00449818 0.0345692 0.00386442 0.0278595 0.00722584 0.0470577
97 3 O 0.145461 19.8836 55.7441 -1.2 1 0.0493355 0.0223481 0.00534443 0.00696668 0.00139416 0.00636495 0.00240581 0.0243845 0.00166584 0.0101354 0.00265512 0.0294589 0.0027696 0.0222447 0.00402363 0.0355013 0.00309249 0.025926 0.00576822 0.0528213
98 3 O 2.69314 19.8522 55.7013 -1.2 1 0.0445387 0.0214785 0.00616624 0.00710848 0.00168691 0.00615739 0.00243305 0.024626 0.00198059 0.00983656 0.00252293 0.0295126 0.00287018 0.0222955 0.00390819 0.0353767 0.00301701 0.025777 0.00602943 0.0535634
99 1 Mg -0.126194 18.8651 52.2079 1.2 1 0.11779 0.0406152 0.00196689 0.00932128 0.00262514 0.00963797 0.00248602 0.025682 0.00244435 0.0143154 0.002968 0.0308567 0.00385733 0.0244375 0.00432521 0.0347982 0.0039987 0.0284504 0.00759588 0.0456542
100 1 Mg 1.92402 18.5815 49.4545 1.2 1 0.18331 0.0527634 0.00499538 0.0125055 0.00196546 0.014703 0.00447834 0.0274066 0.00495711 0.0190073 0.00395406 0.0313999 0.00462058 0.027666 0.00508556 0.0361243 0.00632446 0.0325172 0.00932865 0.0420123
101 2 Si 1.38106 20.9117 51.2443 2.4 1 0.146981 0.0459912 0.00161336 0.010962 0.00252531 0.0127994 0.0040012 0.02652 0.0034641 0.0162888 0.0044574 0.0296101 0.00433097 0.0260657 0.00562902 0.0349534 0.00396587 0.0305776 0.00914778 0.0449087
102 3 O 1.48527 22.4795 51.3054 -1.2 1 0.142952 0.042251 0.00214315 0.00981709 0.00214397 0.012585 0.00327197 0.0257851 0.00374879 0.0151798 0.00308088 0.0302874 0.0038364 0.0246987 0.00440907 0.0352015 0.00527973 0.0291321 0.0081772 0.0451953
103 3 O 1.48368 19.9041 57.8703 -1.2 1 0.0178793 0.00943692 0.00383994 0.00739276 0.00157079 0.0061801 0.00130355 0.0249666 0.00168931 0.00835768 0.00244942 0.0305938 0.002195 0.0212441 0.00272192 0.0348707 0.00260237 0.024949 0.0037134 0.0559548
104 3 O 0.0615419 20.2804 50.6669 -1.2 1 0.157427 0.0462141 0.00367097 0.0115722 0.00357996 0.013359 0.00412278 0.0266536 0.003502 0.0164037 0.00298042 0.0303792 0.0044944 0.0266946 0.00538015 0.034888 0.00426388 0.0305162 0.0086278 0.0441076
105 1 Mg -3.09665 18.8643 52.3122 1.2 1 0.12548 0.0404814 0.00117397 0.00899685 0.00194978 0.0113095 0.00295413 0.0258401 0.00253551 0.0149307 0.00292928 0.0306624 0.00369106 0.0248916 0.00386707 0.0345203 0.00429124 0.0283686 0.00726248 0.0449702
106 3 O 2.61548 20.2646 50.4626 -1.2 1 0.159478 0.0478039 0.00341202 0.0107879 0.00189678 0.0135348 0.00398066 0.026683 0.00358007 0.0175336 0.00318818 0.0301153 0.00408255 0.0266545 0.00539843 0.0353512 0.00478228 0.0304094 0.00845763 0.0435235
107 1 Mg -1.57463 18.8973 55.1213 1.2 1 0.0556079 0.0254639 0.00570712 0.0074277 0.00213527 0.00618023 0.00213659 0.0250842 0.00257545 0.0105173 0.00312799 0.0302961 0.00250546 0.0224763 0.00392205 0.0349523 0.00427529 0.0258393 0.00641986 0.0520022
108 2 Si -1.64018 16.794 53.2555 2.4 1 0.0972521 0.0354772 0.00288229 0.00848809 0.00264365 0.00787971 0.00136728 0.0250132 0.00307789 0.012633 0.00270274 0.0298286 0.00337531 0.0239403 0.00351557 0.0349552 0.0043375 0.027186 0.00711054 0.0485161
109 3 O -1.65685 15.2345 53.1576 -1.2 1 0.0986749 0.035116 0.00266255 0.00801225 0.00276342 0.00823267 0.00175966 0.024775 0.0034487 0.0120277 0.00304436 0.030066 0.00327184 0.0232546 0.00449498 0.034818 0.00379056 0.0268772 0.00775434 0.0480927
110 3 O -1.12868 18.1227 46.4249 -1.2 1 0.267899 0.0550737 0.0201684 0.0210378 0.00544037 0.0238974 0.00626287 0.0324709 0.00862883 0.0220675 0.00585669 0.0339274 0.00666946 0.0276465 0.00883297 0.0378829 0.0118944 0.0374202 0.0120444 0.039867
111 3 O -2.91123 17.4994 53.9366 -1.2 1 0.0851591 0.0318337 0.00298508 0.0071155 0.00195267 0.00842221 0.00174075 0.0251436 0.00186837 0.0120985 0.0020347 0.029644 0.00318476 0.0237572 0.00317497 0.0350144 0.00355664 0.0269211 0.00669334 0.0492064
112 3 O -0.375245 17.4602 53.929 -1.2 1 0.079973 0.0316224 0.00396094 0.00736142 0.00275703 0.00639175 0.00121686 0.0248342 0.00230401 0.0114546 0.00255443 0.029585 0.00290291 0.0237329 0.00364689 0.0353233 0.00372529 0.0269233 0.00709045 0.0492818
113 1 Mg -2.92935 25.9634 57.4096 1.2 1 0.0220667 0.0121304 0.00533345 0.00686495 0.00148088 0.00644264 0.00152899 0.0242106 0.00201889 0.00894113 0.00176215 0.0309108 0.00222496 0.0212187 0.00220101 0.0341121 0.00286728 0.0246035 0.00378135 0.0546681
114 1 Mg -1.48778 25.88 49.8402 1.2 1 0.18191 0.0489255 0.0068019 0.0130116 0.00370762 0.0157633 0.00367761 0.0275453 0.00451568 0.0181333 0.00477185 0.0317218 0.00392336 0.0267947 0.00642744 0.0357381 0.00584705 0.0309506 0.00976253 0.0424614
115 2 Si -1.00491 23.3922 47.9274 2.4 1 0.233101 0.054497 0.0143322 0.0178972 0.00443125 0.0210727 0.00516443 0.0293064 0.0079596 0.0207484 0.00546024 0.0323715 0.00596913 0.0291827 0.00634525 0.0362925 0.00952963 0.0340491 0.0107892 0.0411383
116 3 O -0.927602 24.9615 47.9909 -1.2 1 0.230738 0.0537172 0.0142186 0.0175351 0.00446319 0.0207969 0.00476049 0.0291057 0.00771098 0.0206856 0.00602644 0.0320956 0.00589451 0.0284179 0.00790264 0.0366155 0.00881221 0.0340153 0.0107471 0.0411635
117 3 O -1.55795 22.2588 51.7696 -1.2 1 0.135546 0.0408723 0.00211628 0.0102251 0.00315047 0.0118043 0.00208428 0.0259136 0.00260305 0.0147106 0.00269563 0.0304478 0.00433736 0.0244971 0.00441339 0.0348085 0.00526538 0.0281598 0.00806879 0.045365
118 3 O -2.17411 22.8111 48.8277 -1.2 1 0.204383 0.0531991 0.008946 0.015016 0.00356845 0.0174427 0.00445164 0.0288765 0.00545507 0.0203803 0.00400651 0.0317757 0.00459232 0.0280826 0.00590649 0.0361737 0.00705735 0.0331404 0.0095293 0.041259
119 1 Mg 0.0423997 21.3296 46.8225 1.2 1 0.258106 0.0553382 0.018385 0.0205386 0.00541244 0.0251018 0.00626918 0.0322689 0.00916024 0.0225871 0.00636488 0.0339182 0.00716392 0.0294708 0.00897181 0.0365777 0.0098292 0.0367023 0.0121589 0.0405401
120 3 O 0.458537 22.7495 48.3911 -1.2 1 0.215238 0.0539486 0.0105309 0.0161846 0.00407022 0.0185691 0.00386519 0.0290341 0.00635814 0.0202686 0.00394596 0.0314769 0.00526698 0.0292994 0.00595899 0.0356845 0.00786369 0.0348236 0.0100281 0.0417482
121 1 Mg 1.47987 21.3107 54.539 1.2 1 0.074271 0.0293208 0.0040997 0.00683484 0.00203012 0.00755384 0.00284942 0.0243212 0.00204929 0.0115617 0.00229669 0.0301373 0.00399252 0.0234298 0.00381255 0.0354416 0.00368223 0.0256716 0.00591505 0.0497676