ITEM: TIMESTEP
4200
ITEM: NUMBER OF ATOMS
10500
ITEM: BOX BOUNDS xy xz yz pp pp pp
0	8.9688	2.9896
0	118.725	0
0	252.977	0
ITEM: ATOMS id type element xu yu zu q Q_1 Q_2 Q_3 Q_4 Q_5 Q_6 Q_7 Q_8 Q_9 Q_10 Q_11 Q_12 Q_13 Q_14 Q_15 Q_16 Q_17 Q_18 Q_19 Q_20 Q_21
1 1 Mg -3.43755 6.98881 57.1772 1.2 1 0.0187434 0.0144967 0.00452076 0.00855223 0.00148303 0.00737821 0.00150695 0.0221948 0.00189431 0.0119205 0.00175716 0.0272017 0.0019347 0.0202314 0.00211717 0.0305679 0.00338345 0.0256422 0.00416696 0.0396958
2 1 Mg -1.92264 7.16244 49.5523 1.2 1 0.170602 0.0453868 0.00450551 0.0118153 0.00411534 0.00904228 0.00424016 0.0199179 0.00442593 0.0141005 0.00472323 0.0245109 0.00441214 0.0211203 0.00601815 0.0267297 0.0066664 0.0238811 0.00771513 0.0279844
3 2 Si -0.454683 4.1086 47.2785 2.4 1 0.226108 0.0539082 0.0116639 0.0141441 0.00311068 0.00851662 0.00368686 0.0184581 0.00614615 0.0163257 0.00530807 0.0224932 0.00558479 0.0197737 0.00640787 0.025188 0.00729263 0.0232441 0.00892968 0.0262676
4 3 O -0.713184 5.63559 46.887 -1.2 1 0.22778 0.0506338 0.0126822 0.0149716 0.00476904 0.010231 0.00444687 0.0187876 0.00597117 0.0162155 0.00576677 0.0227694 0.0044721 0.0205999 0.00503522 0.0248492 0.00805698 0.0234539 0.00917573 0.0251236
5 3 O -2.11505 3.45543 51.2022 -1.2 1 0.126649 0.0415457 0.00180592 0.00910101 0.00192796 0.00641942 0.00214966 0.0194269 0.00329045 0.0120324 0.00297837 0.0235092 0.003731 0.0176554 0.00335914 0.0261218 0.00489183 0.0222715 0.00626293 0.0305767
6 3 O -1.75621 3.57159 48.0627 -1.2 1 0.200374 0.0525216 0.00915974 0.011888 0.00257838 0.00756549 0.00341911 0.0188315 0.00525408 0.0157733 0.00511313 0.0224776 0.00405987 0.0196802 0.00512865 0.0246499 0.00572542 0.0225461 0.00800395 0.0259635
7 1 Mg 1.40333 2.45482 46.2753 1.2 1 0.253449 0.0545242 0.017626 0.0171835 0.00397788 0.00971507 0.0044633 0.018776 0.00624294 0.0161968 0.00545475 0.0221253 0.00653875 0.0187154 0.00739756 0.0239892 0.00799233 0.0234156 0.00991218 0.0247919
8 3 O 1.002 3.75472 48.0405 -1.2 1 0.198882 0.0512344 0.00851946 0.0127807 0.0024799 0.00780881 0.00352538 0.0188169 0.00432844 0.0155933 0.00451599 0.0229159 0.00415693 0.0189939 0.00570546 0.0254719 0.0056906 0.0236345 0.0083748 0.0269636
9 1 Mg 1.12317 2.45446 53.9156 1.2 1 0.0644891 0.0316109 0.00405226 0.00755575 0.00172721 0.00586717 0.00252946 0.0205685 0.00299402 0.0110551 0.00309075 0.024552 0.00334811 0.0191947 0.00310014 0.0287087 0.00385344 0.0238463 0.0055075 0.034473
10 2 Si 0.912339 5.11148 55.9103 2.4 1 0.029873 0.0193954 0.00533016 0.00901887 0.00150273 0.00664297 0.00199239 0.0208651 0.002236 0.0108755 0.00328923 0.024961 0.00261973 0.0196774 0.00459159 0.0299578 0.00391484 0.0251242 0.00453204 0.0388381
11 3 O 0.989973 3.60857 55.8232 -1.2 1 0.032773 0.0219658 0.00545577 0.00874556 0.00160371 0.00628451 0.00221974 0.0207178 0.0031807 0.0107132 0.00216022 0.0248716 0.00319842 0.0191367 0.00343977 0.0302073 0.00506789 0.0253328 0.00542455 0.0378529
12 3 O 1.13215 6.27945 52.2013 -1.2 1 0.104877 0.0369259 0.0023221 0.00894191 0.00241078 0.00800624 0.00290682 0.0209532 0.00386226 0.0123992 0.00338951 0.0248478 0.00366222 0.0193429 0.0035602 0.0272815 0.00488909 0.0242423 0.0063991 0.0323104
13 3 O -0.412721 5.77807 55.3693 -1.2 1 0.0390982 0.0238759 0.00602558 0.00819244 0.00188109 0.00665938 0.00188865 0.0219633 0.00271296 0.0117359 0.00244641 0.0257232 0.00261562 0.0205198 0.00370493 0.0301027 0.00381205 0.0253987 0.00482901 0.0375187
14 3 O 2.12922 5.85476 55.2994 -1.2 1 0.0389192 0.0235376 0.00602677 0.00845331 0.00158055 0.00700646 0.0021246 0.0213689 0.00211244 0.0113811 0.00247061 0.0253922 0.00296164 0.0202946 0.00308751 0.0307573 0.00332092 0.0254377 0.00473038 0.0372755
15 1 Mg -0.647978 4.73558 51.4975 1.2 1 0.122935 0.0412968 0.00131464 0.00919476 0.00237299 0.00621449 0.00243236 0.0195349 0.00357779 0.0123462 0.00317379 0.0243391 0.00406197 0.0191234 0.00361016 0.0269705 0.00467048 0.0230802 0.0071141 0.0297939
16 1 Mg 2.64326 4.13694 49.2272 1.2 1 0.173787 0.0493424 0.00545364 0.0115688 0.00349718 0.00650278 0.00397556 0.0190473 0.00407985 0.014176 0.00377837 0.0230439 0.00425488 0.0195272 0.00437238 0.0251557 0.00495072 0.0225976 0.00858505 0.027505
17 2 Si 1.1174 6.7626 50.5899 2.4 1 0.14531 0.0456342 0.00151789 0.00984783 0.003138 0.00822234 0.00418148 0.0201602 0.00453817 0.013189 0.0042277 0.0242827 0.00407911 0.0207609 0.00587951 0.0282344 0.00559982 0.0248475 0.00868231 0.0295559
18 3 O 1.41223 8.33603 50.5511 -1.2 1 0.146169 0.044727 0.00146993 0.00968976 0.00300085 0.00959874 0.00394512 0.0197217 0.0045642 0.0138367 0.00389318 0.0251253 0.00405189 0.0223045 0.00481219 0.027549 0.0060989 0.0247414 0.00747953 0.0301044
19 3 O 1.09427 5.66399 57.5072 -1.2 1 0.01504 0.0132668 0.00360749 0.00892767 0.00115213 0.0073331 0.00175047 0.0228053 0.00211076 0.0117139 0.0027461 0.0266032 0.00300686 0.0203693 0.00388406 0.0310437 0.00275632 0.0262346 0.00397859 0.0401523
20 3 O -0.274122 6.16976 49.9946 -1.2 1 0.162066 0.0445253 0.00482459 0.0112591 0.00372089 0.00775343 0.0037177 0.0198764 0.00432797 0.0138234 0.00311171 0.0237399 0.00386289 0.020497 0.00429562 0.0259037 0.00577937 0.0236288 0.00757714 0.0289118
21 1 Mg -3.79754 4.72103 51.9951 1.2 1 0.111352 0.0398234 0.00191809 0.00855426 0.00219059 0.00706137 0.00268232 0.0201026 0.00412594 0.0122202 0.00367477 0.0243598 0.00360989 0.0190021 0.00355904 0.0264897 0.00467076 0.0229697 0.00612406 0.0304735
22 3 O 2.40571 6.03476 49.9881 -1.2 1 0.154913 0.0460776 0.00287353 0.00984716 0.00309599 0.00872931 0.00404971 0.0198644 0.00405516 0.0136085 0.00393244 0.0238294 0.00440189 0.0209922 0.00496818 0.0265928 0.00514684 0.0237639 0.00839285 0.0288237
23 1 Mg -2.11745 4.90928 54.6181 1.2 1 0.0488109 0.0271111 0.00568095 0.00795258 0.00206304 0.0066732 0.00174222 0.0212894 0.00350605 0.0115672 0.00298436 0.0259891 0.00238193 0.0198683 0.0031453 0.0299371 0.00422182 0.0249682 0.00482771 0.0363179
24 2 Si -1.979 2.68905 52.5982 2.4 1 0.0971215 0.0366944 0.00183475 0.00840974 0.00213816 0.00507239 0.00212585 0.0198504 0.00368979 0.0115644 0.00294791 0.0238295 0.0031486 0.0172356 0.00317557 0.0272949 0.00457364 0.0228659 0.00573985 0.0325025
25 3 O -2.01966 1.07428 52.4913 -1.2 1 0.096914 0.0376156 0.00149009 0.00813591 0.002022 0.0054146 0.00254379 0.0196447 0.00333314 0.0107666 0.00321443 0.0241998 0.00336211 0.0169957 0.00380014 0.0270899 0.00408633 0.0229225 0.00575625 0.0316396
26 3 O -0.262072 3.34165 45.8861 -1.2 1 0.264098 0.0544901 0.0193502 0.0173583 0.00411244 0.00900383 0.00446568 0.0178315 0.00670022 0.0168844 0.00652165 0.0225917 0.00725208 0.0187416 0.00833914 0.024092 0.00830814 0.0233271 0.0106785 0.0256443
27 3 O -3.13646 3.42805 53.368 -1.2 1 0.0753794 0.0338914 0.00405785 0.0076661 0.00218078 0.00575207 0.00229846 0.0199303 0.00337444 0.0114366 0.00263223 0.0244541 0.00246957 0.0191404 0.00340685 0.0282038 0.00448734 0.0231359 0.00545965 0.033664
28 3 O -0.595758 3.23354 53.2546 -1.2 1 0.0793872 0.0346572 0.00358975 0.00736956 0.00217774 0.00572745 0.0015833 0.0206575 0.00360386 0.0114392 0.00252946 0.0242421 0.00304024 0.0190293 0.00288683 0.0279576 0.00411701 0.0241637 0.005763 0.0340301
29 1 Mg -3.26532 11.9485 57.1439 1.2 1 0.0211447 0.0148079 0.00425067 0.00819304 0.00136851 0.00711703 0.00141192 0.0216523 0.00215351 0.0120751 0.00161422 0.0274813 0.00184154 0.0211498 0.00240116 0.0319065 0.00244773 0.0265325 0.00368249 0.0405595
30 1 Mg -1.6534 11.9432 49.5643 1.2 1 0.172301 0.0455315 0.0049671 0.0132094 0.00360639 0.0131657 0.00366989 0.021773 0.00510495 0.0163907 0.00540376 0.0269327 0.00422905 0.0247367 0.00626783 0.0281458 0.00577192 0.0258928 0.00885276 0.0283582
31 2 Si -1.14656 9.23233 47.3252 2.4 1 0.235331 0.0494404 0.0134274 0.0170918 0.00522633 0.0124726 0.00736442 0.0195204 0.00774794 0.0169956 0.00761638 0.0248648 0.00584533 0.0236113 0.00705833 0.0270168 0.0103427 0.0249702 0.0108854 0.0262669
32 3 O -1.15726 10.8244 47.414 -1.2 1 0.230173 0.0481354 0.012143 0.0175984 0.00473592 0.0160399 0.00614325 0.0224502 0.00812709 0.0177082 0.00825047 0.0252816 0.0052175 0.0246781 0.00747985 0.0280508 0.00958007 0.0268337 0.0107172 0.0265459
33 3 O -1.64836 8.24273 51.2348 -1.2 1 0.12992 0.0402729 0.00124134 0.010334 0.00372412 0.00881969 0.00279998 0.0207716 0.00418161 0.0134609 0.00375477 0.0255202 0.00368993 0.0209212 0.00421967 0.0279796 0.0064182 0.0247955 0.00711757 0.0310197
34 3 O -2.33908 8.54464 48.1517 -1.2 1 0.203902 0.0497942 0.00757812 0.0136835 0.00398868 0.0102383 0.00554362 0.0203321 0.0057558 0.0164591 0.0054635 0.0253508 0.00377337 0.0233893 0.00641405 0.0277964 0.00773752 0.024956 0.00858104 0.0266683
35 1 Mg -0.382455 7.23458 46.0479 1.2 1 0.263243 0.051907 0.0180371 0.0192978 0.006156 0.0139638 0.00961012 0.0213593 0.00791441 0.016379 0.00751114 0.0235209 0.00792919 0.0223433 0.00890689 0.0258235 0.00979897 0.0251625 0.0126637 0.0254281
36 3 O 0.271449 8.62457 47.725 -1.2 1 0.220376 0.0508348 0.0104773 0.0154403 0.00470529 0.0125224 0.00601324 0.0215581 0.00682733 0.01649 0.00640206 0.0244719 0.00539184 0.0238001 0.00613452 0.0267524 0.0088792 0.0259201 0.00915237 0.0268433
37 1 Mg 1.15238 7.28502 54.0944 1.2 1 0.0649414 0.0306282 0.00517536 0.00815405 0.00207115 0.00703455 0.00204142 0.0209913 0.00274972 0.0120891 0.00280772 0.0254337 0.0033416 0.0204997 0.00323061 0.0292036 0.00411543 0.0247107 0.00586342 0.0347158
38 2 Si 1.24528 9.73721 56.0709 2.4 1 0.0305819 0.018933 0.0055451 0.00949915 0.00144016 0.00725169 0.00214739 0.0215907 0.00188362 0.0114684 0.00273312 0.0254669 0.00242035 0.0211076 0.00397306 0.0310064 0.00330596 0.0260981 0.00483363 0.0401428
39 3 O 1.25901 8.16888 56.0609 -1.2 1 0.0279249 0.0184524 0.00583628 0.0088933 0.00131776 0.0070204 0.00191849 0.0210858 0.00300201 0.0108772 0.00189127 0.0258228 0.00312917 0.0203564 0.00271772 0.0306689 0.00367188 0.0253708 0.00435152 0.0391919
40 3 O 1.54452 10.8476 52.2025 -1.2 1 0.110527 0.036095 0.00235417 0.00926989 0.00246241 0.0106768 0.00225933 0.0214033 0.00379738 0.0137155 0.00356046 0.026035 0.0046017 0.0217314 0.00423445 0.029632 0.00402982 0.0257525 0.00594691 0.0326991
41 3 O 0.0557118 10.4588 55.3774 -1.2 1 0.0427913 0.0237936 0.00590749 0.00845396 0.00140548 0.00713176 0.00181459 0.021574 0.00209584 0.0118065 0.00223548 0.026348 0.00324614 0.0216326 0.0038617 0.0308606 0.00315875 0.0260647 0.00555823 0.0390242
42 3 O 2.50929 10.5236 55.4287 -1.2 1 0.0406365 0.0230294 0.00644248 0.00872133 0.00118106 0.00727274 0.00241237 0.0218408 0.00251767 0.0116388 0.00216329 0.0259361 0.00277191 0.0217584 0.00395536 0.0319807 0.00303364 0.026555 0.00539567 0.0386535
43 1 Mg -0.174442 9.59594 51.6063 1.2 1 0.112328 0.0391491 0.00253803 0.0094263 0.00285584 0.00866572 0.00192132 0.0213374 0.00364786 0.0130979 0.00313617 0.0263508 0.00343169 0.0213653 0.00435708 0.0287481 0.00459608 0.0258302 0.00688439 0.0313474
44 1 Mg 1.78279 9.3175 48.7024 1.2 1 0.187305 0.0498419 0.00528328 0.0124056 0.00304458 0.0120272 0.00579299 0.0222843 0.00555489 0.0161099 0.00503569 0.0249468 0.00462583 0.0242682 0.0059031 0.0278974 0.00647819 0.026319 0.00830887 0.0279556
45 2 Si 1.45369 11.5705 50.79 2.4 1 0.141642 0.042787 0.00133622 0.0102769 0.00242854 0.0119017 0.00324914 0.0206979 0.0048055 0.0147632 0.00546476 0.0256091 0.00494706 0.0240347 0.00614553 0.0284301 0.00442495 0.0262946 0.00764361 0.0311453
46 3 O 1.55171 13.149 50.9196 -1.2 1 0.139906 0.0416047 0.00201525 0.0098977 0.00207551 0.012256 0.0030761 0.0219021 0.00472578 0.0152303 0.00374753 0.0265067 0.00437838 0.0245665 0.00407876 0.0287549 0.00458281 0.0260931 0.00739182 0.0316802
47 3 O 1.15788 10.4071 57.5735 -1.2 1 0.0170773 0.0130551 0.00348176 0.00870887 0.000959858 0.00738558 0.00130275 0.0225852 0.00203821 0.0115707 0.00183029 0.0267417 0.00286927 0.0211399 0.0029454 0.0313034 0.00275775 0.0265357 0.00347748 0.0417175
48 3 O 0.00677048 11.0629 50.2249 -1.2 1 0.15321 0.0437841 0.00278309 0.0116695 0.00315188 0.0117803 0.00320236 0.0210484 0.00468146 0.0150991 0.00380803 0.0258599 0.00483953 0.0240848 0.00583263 0.0282558 0.00548154 0.0258575 0.00812634 0.0300635
49 1 Mg -3.21368 9.31612 51.7899 1.2 1 0.121633 0.0383968 0.0014544 0.00917435 0.00245887 0.00977118 0.00270731 0.0202621 0.0040995 0.0134197 0.00380245 0.0259906 0.00363539 0.0222015 0.00446067 0.028938 0.00516576 0.0252013 0.00688838 0.0310346
50 3 O 2.57998 10.949 49.8158 -1.2 1 0.161589 0.0454214 0.00318155 0.0107642 0.00252539 0.0127426 0.00416639 0.0207684 0.00481842 0.0158734 0.0046262 0.026004 0.00444431 0.0245483 0.00557737 0.0283418 0.00547753 0.0256029 0.00827745 0.029908
51 1 Mg -1.88737 9.5434 54.7211 1.2 1 0.0498014 0.0269865 0.00645101 0.00806817 0.00194405 0.00701711 0.00211267 0.0215003 0.00248573 0.0119188 0.0028405 0.0262293 0.00267633 0.0213542 0.00371607 0.0303469 0.00386036 0.02592 0.00578225 0.0369112
52 2 Si -1.72443 7.44581 52.8259 2.4 1 0.087005 0.0348732 0.00461726 0.00863887 0.00342925 0.00706223 0.00192695 0.0204235 0.00371158 0.011908 0.00303973 0.0254299 0.00300197 0.0208998 0.00381828 0.0285304 0.00498626 0.024695 0.00589289 0.0340839
53 3 O -1.91022 5.95343 52.6696 -1.2 1 0.0930915 0.0350622 0.00320843 0.0085377 0.00237665 0.00660276 0.00178261 0.0202676 0.00401362 0.011398 0.00301412 0.0244034 0.00329145 0.0190972 0.0041782 0.0284079 0.0045411 0.0242404 0.00618847 0.0329294
54 3 O -1.24777 8.92577 45.7178 -1.2 1 0.2654 0.0494481 0.018793 0.0198526 0.0063003 0.0156494 0.00954264 0.0222579 0.00825961 0.0174121 0.00852934 0.0243682 0.00615125 0.0232732 0.00890622 0.0266276 0.011838 0.0264296 0.0111403 0.0252486
55 3 O -3.04715 8.18506 53.4739 -1.2 1 0.0785612 0.0316772 0.00450407 0.00819492 0.00288642 0.00778966 0.00174866 0.0205749 0.00322158 0.0120862 0.00270991 0.0251017 0.00280208 0.0210585 0.00371453 0.0298104 0.00458915 0.0249522 0.00600381 0.0342256
56 3 O -0.490091 8.10989 53.4832 -1.2 1 0.0753678 0.0316691 0.00484024 0.00794439 0.00280232 0.00696552 0.00126001 0.0212029 0.00328085 0.0118358 0.00255702 0.0255046 0.00257594 0.0212786 0.00343085 0.0290275 0.00470283 0.0256803 0.00633958 0.0350684
57 1 Mg -3.05771 16.6142 57.1171 1.2 1 0.0221887 0.0148758 0.00434645 0.00807397 0.000857469 0.00763305 0.00151004 0.0219204 0.00231889 0.0121838 0.00189942 0.0281519 0.00161433 0.0212446 0.00244988 0.0323279 0.00240799 0.0261923 0.00376337 0.0403154
58 1 Mg -1.30793 16.7389 49.5336 1.2 1 0.17203 0.0443114 0.00566557 0.0118796 0.00293043 0.0135263 0.00464684 0.0226908 0.00406353 0.0164774 0.00464636 0.0267673 0.00414742 0.0244406 0.00559285 0.0289192 0.00490922 0.0247712 0.00772245 0.0291377
59 2 Si -0.811011 14.2308 47.4225 2.4 1 0.229174 0.0483769 0.0129417 0.0172357 0.00310153 0.0174271 0.00371938 0.0230097 0.00809981 0.0189247 0.00666324 0.0258131 0.00563668 0.0268504 0.00650312 0.0275319 0.00965007 0.0275725 0.0105913 0.0264379
60 3 O -0.965491 15.7905 47.4654 -1.2 1 0.231215 0.0481584 0.0133365 0.0164708 0.00340026 0.0175233 0.00471254 0.0238223 0.00751476 0.0191633 0.00698042 0.0263043 0.00522555 0.0255618 0.00722638 0.0276869 0.00797052 0.026427 0.00951561 0.0265625
61 3 O -1.57414 12.8869 51.4255 -1.2 1 0.132813 0.0391434 0.0020309 0.0108094 0.00233538 0.0108697 0.00141876 0.0217258 0.00399384 0.0149659 0.00405796 0.0271211 0.00406572 0.0230058 0.00398632 0.0290227 0.00478098 0.0253338 0.00780839 0.0316433
62 3 O -1.93737 13.5307 48.2422 -1.2 1 0.20273 0.0486595 0.00796022 0.014457 0.00306282 0.0147076 0.00374934 0.0234087 0.00577489 0.0185998 0.0056633 0.0272513 0.00457606 0.0263017 0.00471721 0.0280403 0.0075018 0.0269461 0.00928688 0.027032
63 1 Mg -0.319916 11.9291 46.0886 1.2 1 0.26327 0.0502643 0.0180576 0.0210714 0.00525707 0.021246 0.00807251 0.0243593 0.00898525 0.0187956 0.00888822 0.0263402 0.00689127 0.0268785 0.00865566 0.027632 0.0106015 0.0291633 0.0127814 0.0260681
64 3 O 0.646756 13.5322 47.9445 -1.2 1 0.212887 0.0497871 0.00941014 0.0153884 0.00298049 0.0161922 0.00382 0.0232937 0.0066687 0.0183699 0.0059559 0.0262471 0.00535767 0.02765 0.00648849 0.027444 0.00816155 0.0279135 0.0101839 0.0272852
65 1 Mg 1.57353 11.8832 54.0867 1.2 1 0.0681616 0.0303824 0.00500034 0.0083909 0.0018219 0.00788243 0.00282028 0.0207938 0.00295393 0.0129458 0.00249681 0.0268594 0.00361589 0.0229515 0.00285813 0.0312679 0.00369758 0.0254948 0.00623887 0.0360171
66 2 Si 1.37881 14.5214 56.058 2.4 1 0.0321612 0.0189391 0.00536843 0.00912978 0.00163573 0.00719169 0.00254837 0.0216104 0.0017973 0.0117004 0.00281494 0.0266922 0.00229652 0.0221557 0.00357067 0.0320201 0.00340994 0.0260538 0.00501814 0.0408421
67 3 O 1.40617 12.994 56.1916 -1.2 1 0.0298403 0.0183803 0.0055313 0.00878183 0.00120143 0.00705444 0.00182061 0.0215421 0.00294692 0.0115497 0.00146326 0.0265218 0.00263321 0.021676 0.00242472 0.0319112 0.00293672 0.0261848 0.00474451 0.0405971
68 3 O 1.50135 15.7524 52.1235 -1.2 1 0.111018 0.0359659 0.00199381 0.00887576 0.00227824 0.0117228 0.00354086 0.0216911 0.00334084 0.0142644 0.00318704 0.0269302 0.00451161 0.0228706 0.00466298 0.0299845 0.00382752 0.0254263 0.00654886 0.0333893
69 3 O 0.0146343 15.3117 55.4621 -1.2 1 0.0434446 0.0234113 0.00583065 0.00842327 0.00162568 0.00754055 0.00268497 0.0214004 0.00223601 0.0121361 0.00199307 0.0274005 0.00263407 0.0219525 0.00371353 0.0322807 0.00286198 0.0260134 0.00483523 0.0394477
70 3 O 2.6483 15.1397 55.2109 -1.2 1 0.0432789 0.0235025 0.00624331 0.00858263 0.00174289 0.00733945 0.00289494 0.0214635 0.00247761 0.0121469 0.00199595 0.02688 0.00263398 0.0223145 0.00303095 0.0326865 0.00248682 0.0259812 0.0053701 0.0386736
71 1 Mg -0.156292 14.3541 51.3407 1.2 1 0.129645 0.0401683 0.00170642 0.0104944 0.0018569 0.0104167 0.00250217 0.0219056 0.00363391 0.0145754 0.00350328 0.027173 0.0038765 0.022923 0.00460778 0.029436 0.00351646 0.0256223 0.00711314 0.031502
72 1 Mg 2.28367 14.0917 48.8809 1.2 1 0.186161 0.0478201 0.00559781 0.0118784 0.00218165 0.0140159 0.00414365 0.0223234 0.00530057 0.0173768 0.00548124 0.0264548 0.00468405 0.0270699 0.00499685 0.0287054 0.007357 0.0267674 0.0092285 0.0282364
73 2 Si 1.55767 16.3483 50.6353 2.4 1 0.147479 0.0432231 0.00292371 0.00969636 0.00267719 0.0128823 0.00466809 0.0212179 0.00405159 0.0148199 0.00468402 0.0259734 0.0041797 0.0243121 0.0058625 0.029834 0.00445461 0.0259884 0.00731749 0.0308593
74 3 O 1.51903 17.9797 50.7883 -1.2 1 0.147737 0.0418725 0.00317485 0.00968728 0.0026332 0.0129681 0.00469848 0.0213434 0.00419409 0.0151894 0.00359249 0.0261165 0.00427178 0.024248 0.00456842 0.0296315 0.00476058 0.0245621 0.00740161 0.0322091
75 3 O 1.46142 15.209 57.5452 -1.2 1 0.0170253 0.0123556 0.00347393 0.00822078 0.00108071 0.00746207 0.00163807 0.0221042 0.00151602 0.011684 0.00250508 0.0272231 0.00197491 0.021106 0.00347434 0.0322706 0.0025968 0.0263035 0.00349924 0.0416562
76 3 O 0.261643 15.7048 49.9589 -1.2 1 0.160608 0.0447894 0.00444623 0.0110022 0.00332628 0.012928 0.00420098 0.0221541 0.00474948 0.0159659 0.00416886 0.0268731 0.00410855 0.0255683 0.00511983 0.0290291 0.00425422 0.0259084 0.00753105 0.0296775
77 1 Mg -3.08461 14.3303 52.0322 1.2 1 0.117621 0.0378531 0.00127729 0.00891803 0.0012566 0.0114306 0.00268202 0.0213756 0.00365009 0.0148325 0.00348996 0.0274622 0.00429266 0.0234214 0.00385084 0.0290427 0.00403461 0.0251477 0.00689184 0.0323921
78 3 O 2.93166 15.7006 50.0072 -1.2 1 0.155506 0.0446309 0.00305912 0.00979551 0.00259316 0.0134927 0.00498388 0.022344 0.00421263 0.0165193 0.00424137 0.0264002 0.00467466 0.0249255 0.00546713 0.0298295 0.0047968 0.0251803 0.00812163 0.0303311
79 1 Mg -1.53666 14.2455 54.8221 1.2 1 0.0499505 0.0257717 0.00578764 0.00837165 0.00122583 0.00769185 0.00225731 0.0216156 0.00268774 0.0130471 0.0023966 0.027371 0.0022912 0.0224119 0.00348964 0.0315637 0.00299441 0.026078 0.00548531 0.0382276
80 2 Si -1.55518 12.2543 52.8638 2.4 1 0.0918543 0.0350491 0.0041306 0.00936895 0.00274331 0.00839676 0.0013324 0.0214882 0.0037497 0.0136592 0.00321548 0.0267544 0.00349263 0.0226714 0.00316081 0.0303542 0.00446119 0.0254764 0.00654882 0.0344233
81 3 O -1.46661 10.6551 52.8364 -1.2 1 0.0922734 0.0341636 0.00376247 0.00900386 0.00277028 0.00813729 0.00142495 0.0204098 0.00390646 0.0124916 0.0030735 0.0262209 0.00336667 0.0213271 0.0045249 0.0297674 0.00437431 0.0253152 0.00692512 0.0343331
82 3 O -0.631421 13.7855 45.9489 -1.2 1 0.264913 0.0482685 0.0193135 0.0208904 0.00380374 0.0211219 0.00638556 0.0271472 0.0091974 0.0196602 0.00835065 0.0261564 0.00573028 0.0273105 0.00848973 0.0283343 0.011778 0.029998 0.0114955 0.0254538
83 3 O -2.90718 12.9123 53.4596 -1.2 1 0.0817906 0.0327121 0.00421838 0.00812799 0.00195793 0.00934094 0.00209161 0.0213975 0.00341181 0.0135728 0.00337922 0.0267618 0.00337158 0.0227692 0.00326754 0.0311263 0.00333682 0.0254711 0.00601373 0.0353337
84 3 O -0.308354 12.9955 53.59 -1.2 1 0.0743779 0.0311254 0.00450078 0.00851024 0.00218635 0.00765998 0.00146261 0.0217586 0.00338042 0.0129296 0.00254405 0.0266229 0.00281396 0.023157 0.00325185 0.0310017 0.00355257 0.0259427 0.00626428 0.0359571
85 1 Mg -2.9565 21.1638 57.0698 1.2 1 0.0205546 0.0136383 0.00413637 0.00770458 0.0010134 0.00756256 0.00150014 0.0224708 0.00218253 0.0107702 0.00169657 0.0293259 0.00171459 0.0201674 0.00289232 0.0317594 0.00311783 0.026053 0.00387598 0.042256
86 1 Mg -1.53612 20.9975 49.4877 1.2 1 0.175878 0.0447805 0.0063657 0.0110772 0.00267583 0.0129062 0.00325526 0.0217219 0.00425344 0.0140359 0.00481973 0.0260344 0.00473048 0.0222223 0.00566319 0.0273113 0.00539415 0.0212236 0.00793926 0.0301995
87 2 Si -0.521632 19.066 47.0649 2.4 1 0.240368 0.0465929 0.0150602 0.0165849 0.00369448 0.0171537 0.00552321 0.0227861 0.00647979 0.0177029 0.00637573 0.0251343 0.00628054 0.0244289 0.00564474 0.0262713 0.0078905 0.0242259 0.00935848 0.0278479
88 3 O -0.17407 20.5721 46.913 -1.2 1 0.239651 0.04772 0.014652 0.01577 0.00413396 0.0166873 0.00411993 0.023159 0.00643187 0.0164774 0.00640535 0.025257 0.00647779 0.0239854 0.00671914 0.0253913 0.00687975 0.0232688 0.00952545 0.0282207
89 3 O -1.40514 17.7019 51.4359 -1.2 1 0.130765 0.0380823 0.00218736 0.00964073 0.00225216 0.0114583 0.00336616 0.0221919 0.00306287 0.0142945 0.0033896 0.026575 0.00354874 0.0221709 0.00370776 0.0297084 0.00506994 0.023967 0.00707796 0.032491
90 3 O -1.79353 18.8501 48.0545 -1.2 1 0.211597 0.0479765 0.00951765 0.0134941 0.00288118 0.0145013 0.00483871 0.0225174 0.00614245 0.0166406 0.00545027 0.0247534 0.00566592 0.0247883 0.00547976 0.0280256 0.0069481 0.0241541 0.00843032 0.0285543
91 1 Mg 0.30832 16.6268 46.0498 1.2 1 0.264553 0.0485706 0.0185579 0.0197214 0.00468687 0.0217607 0.00858925 0.0259464 0.008843 0.0196808 0.00713952 0.025482 0.00704038 0.0255941 0.00878842 0.0281773 0.00878271 0.0280726 0.0108824 0.0254184
92 3 O 0.760396 18.3309 47.7083 -1.2 1 0.225835 0.047995 0.012716 0.01466 0.00401267 0.0159757 0.00467309 0.0228794 0.00637256 0.0174832 0.00590413 0.0249264 0.00574763 0.0254705 0.00685817 0.0267718 0.0071858 0.0250221 0.00877791 0.0284875
93 1 Mg 1.64876 16.6455 54.1215 1.2 1 0.0667228 0.0298632 0.00492867 0.00816493 0.00131581 0.00834244 0.00327297 0.0214537 0.00310827 0.0130267 0.00249853 0.0273471 0.0031854 0.0228177 0.00336543 0.031706 0.00391537 0.0254067 0.00566946 0.036581
94 2 Si 1.45301 19.3244 56.1115 2.4 1 0.0299816 0.0175212 0.00504688 0.00921161 0.00105811 0.00718403 0.00233767 0.0221223 0.00142764 0.0112356 0.00284129 0.027803 0.00260335 0.021163 0.00458284 0.0319662 0.00362485 0.0259577 0.00457946 0.0422622
95 3 O 1.50819 17.7787 56.241 -1.2 1 0.0278985 0.017235 0.00499063 0.00881479 0.00101723 0.00719149 0.00204918 0.0216628 0.0026295 0.0114132 0.00157994 0.0276868 0.0029312 0.0209172 0.00229671 0.0325958 0.00294048 0.0258286 0.00372944 0.0410654
96 3 O 1.65869 20.512 52.3836 -1.2 1 0.104473 0.0350827 0.00177121 0.00846164 0.00190246 0.0107624 0.00381965 0.0218643 0.00353282 0.0123968 0.00296741 0.0263989 0.00436889 0.0212081 0.00450781 0.0295669 0.00365795 0.0238065 0.00578816 0.0360951
97 3 O 0.161631 19.9016 55.4959 -1.2 1 0.0411514 0.0220328 0.00524866 0.00818099 0.00104972 0.0077663 0.00208149 0.0220188 0.00224162 0.0114912 0.0017368 0.0280575 0.00272807 0.021566 0.00332393 0.0321504 0.00294425 0.0253676 0.00441325 0.0412466
98 3 O 2.67746 19.8656 55.3896 -1.2 1 0.0407356 0.0225955 0.00577686 0.00814996 0.00122616 0.00742566 0.00243345 0.0217152 0.00259355 0.0113026 0.00192985 0.027934 0.00285248 0.0217706 0.00324893 0.0324823 0.0026103 0.0256791 0.00475412 0.0402021
99 1 Mg -0.0492409 19.1156 51.7881 1.2 1 0.117817 0.0381793 0.00161713 0.00902196 0.00263734 0.0102975 0.00286771 0.0222033 0.00353271 0.0137008 0.00276565 0.0270451 0.00365724 0.0222919 0.00454299 0.0298197 0.00438541 0.0237376 0.00593697 0.0327269
100 1 Mg 2.27661 18.9266 48.7082 1.2 1 0.190329 0.0472459 0.0071999 0.011041 0.00250828 0.014259 0.00449858 0.021923 0.00485449 0.0159247 0.00562994 0.0249494 0.00519376 0.0246839 0.00579915 0.0284513 0.00532939 0.0240992 0.00845741 0.0299627
101 2 Si 1.63347 21.117 50.8561 2.4 1 0.141592 0.0419058 0.00198571 0.00965117 0.00270586 0.0113677 0.00375245 0.0211931 0.00413445 0.0128621 0.00455742 0.0250725 0.00446928 0.0222741 0.0056635 0.0281663 0.00369218 0.0227995 0.00774196 0.0337251
102 3 O 1.73384 22.6418 50.8769 -1.2 1 0.142507 0.0398113 0.00191139 0.00931448 0.00217615 0.0116645 0.00293494 0.0203132 0.00350376 0.0118063 0.00387857 0.0260508 0.00415619 0.0216434 0.00476827 0.0278006 0.00505369 0.0208286 0.00789756 0.0341386
103 3 O 1.47415 19.9456 57.5671 -1.2 1 0.0168788 0.0117855 0.0033222 0.00850681 0.000813211 0.00763745 0.00148426 0.022649 0.00186552 0.0107555 0.00275781 0.0283749 0.00254616 0.0204194 0.00409849 0.0318585 0.00329012 0.0258198 0.00364699 0.0430593
104 3 O 0.259067 20.533 50.2484 -1.2 1 0.156235 0.0418529 0.00405216 0.0100565 0.00318315 0.0116708 0.00359021 0.0212805 0.00383353 0.0140316 0.00387815 0.0255684 0.00469462 0.023314 0.00521586 0.028176 0.00431692 0.022408 0.00670792 0.0326001
105 1 Mg -2.97708 18.9511 51.9834 1.2 1 0.118457 0.0375312 0.00149433 0.00834294 0.00185108 0.0115758 0.00390592 0.0212618 0.00257205 0.0139563 0.00359076 0.0272299 0.00414577 0.0222441 0.00475839 0.0298648 0.00402868 0.0234434 0.00654876 0.0333675
106 3 O 2.80411 20.2838 50.1824 -1.2 1 0.154944 0.0430429 0.00347859 0.00958011 0.0022904 0.0125091 0.00399177 0.0212028 0.00380891 0.0138297 0.00453851 0.0254662 0.00431346 0.0226987 0.00536191 0.0285279 0.00414916 0.022516 0.00747815 0.0317906
107 1 Mg -1.5484 18.9158 54.8031 1.2 1 0.0500058 0.0251604 0.0057464 0.00780758 0.000812259 0.00804794 0.00234462 0.0218913 0.00286448 0.0119828 0.00296473 0.028123 0.00262036 0.0216105 0.00404745 0.0323511 0.00387548 0.0252733 0.00492112 0.0394373
108 2 Si -1.46217 16.9303 52.8489 2.4 1 0.0913003 0.0341236 0.00360627 0.00879887 0.00135294 0.0088063 0.00192696 0.0215433 0.00324292 0.0136287 0.00217139 0.0273141 0.00311448 0.0228289 0.00335632 0.0305881 0.0039137 0.0248633 0.00625005 0.0351868
109 3 O -1.41524 15.4054 52.6721 -1.2 1 0.0970868 0.0342225 0.00292339 0.00892706 0.00181477 0.00949623 0.0024299 0.0209007 0.00371782 0.0134609 0.00375173 0.0272303 0.00397301 0.022188 0.00502861 0.0303687 0.00271474 0.0252465 0.00713195 0.0342691
110 3 O -0.733164 18.1909 45.7143 -1.2 1 0.272659 0.0481116 0.0204728 0.0196464 0.00434654 0.0206839 0.00875334 0.0255165 0.00897312 0.0183401 0.00765197 0.0246194 0.00741882 0.0236829 0.00779301 0.0271284 0.00980316 0.0270662 0.011526 0.0263902
111 3 O -2.80139 17.5337 53.4419 -1.2 1 0.0826734 0.032825 0.00360197 0.00789373 0.00158485 0.00960578 0.00277312 0.021574 0.00315955 0.0131864 0.00246511 0.0267821 0.00333163 0.0230033 0.00307095 0.0313449 0.00410579 0.0249905 0.00546117 0.0353647
112 3 O -0.23167 17.5621 53.5977 -1.2 1 0.075517 0.030647 0.00396183 0.00799353 0.00175702 0.00806022 0.00185204 0.0219313 0.00288301 0.0128708 0.0022722 0.0275198 0.00280562 0.0228575 0.00319262 0.0314642 0.00380159 0.0253468 0.00616418 0.0363306
113 1 Mg -2.978 26.0174 57.3243 1.2 1 0.0195039 0.0126657 0.00433074 0.00684081 0.00117544 0.0071751 0.0017882 0.0230164 0.00145003 0.00963644 0.00192235 0.0295185 0.00229622 0.0191778 0.00374507 0.0318991 0.00396992 0.0260539 0.00450969 0.0446845
114 1 Mg -1.39518 26.2289 49.6915 1.2 1 0.17416 0.0437901 0.00576633 0.0111918 0.00286269 0.0113086 0.0035719 0.0197292 0.00444819 0.0107054 0.00478525 0.0248721 0.00540027 0.0200533 0.00644699 0.0275279 0.00583705 0.0203068 0.00883053 0.031275
115 2 Si -0.860588 23.7091 47.8747 2.4 1 0.216762 0.0476781 0.0107571 0.0141159 0.0038425 0.0140364 0.00344274 0.0199069 0.00636978 0.0130186 0.00644394 0.0243102 0.00595708 0.0214094 0.00473177 0.025135 0.00733227 0.0185046 0.00962963 0.0296183
116 3 O -1.59875 25.115 48.0016 -1.2 1 0.21054 0.0480101 0.00946529 0.0139634 0.00304443 0.0123561 0.00394935 0.018637 0.0057424 0.0122473 0.00585798 0.024869 0.0066428 0.0209242 0.00510475 0.0263067 0.00677715 0.0187424 0.00902808 0.0294174
117 3 O -1.625 22.3942 51.5277 -1.2 1 0.124867 0.0381668 0.000910671 0.00951275 0.00253625 0.00980909 0.00275271 0.0214726 0.00304277 0.0117082 0.00373851 0.0260987 0.00408786 0.0204024 0.00477577 0.0289626 0.00554478 0.0211457 0.00712533 0.0345477
118 3 O -2.00221 22.6892 48.3969 -1.2 1 0.202238 0.0470725 0.00819183 0.012816 0.00307772 0.0133578 0.00329096 0.0204931 0.00525201 0.0134894 0.0054171 0.0250972 0.00524197 0.021749 0.00541219 0.0264504 0.00662793 0.0197943 0.00993365 0.0300152
119 1 Mg 0.631061 22.1648 46.2719 1.2 1 0.255124 0.0495948 0.0167937 0.0180017 0.00492129 0.018291 0.00523896 0.0226643 0.00754427 0.0143646 0.00722823 0.0252461 0.0090667 0.0221506 0.0087434 0.0246176 0.00714411 0.0207858 0.0110571 0.0282848
120 3 O 0.732325 23.416 47.8752 -1.2 1 0.21438 0.0490184 0.00955113 0.0134307 0.0038886 0.015008 0.00397948 0.0205332 0.00632829 0.0138606 0.00637636 0.0243129 0.00726372 0.0231078 0.00656334 0.0260727 0.00617541 0.0204296 0.0100445 0.029117
121 1 Mg 1.61558 21.4645 54.1559 1.2 1 0.0673834 0.0288869 0.00408831 0.00814947 0.00163949 0.00837803 0.0030639 0.0217679 0.00327805 0.0110131 0.00247754 0.0275514 0.00393923 0.0212059 0.00433702 0.030861 0.00355356 0.0239756 0.00515572 0.0388367