ITEM: TIMESTEP
1000
ITEM: NUMBER OF ATOMS
10500
ITEM: BOX BOUNDS xy xz yz pp pp pp
0	8.9688	2.9896
0	118.725	0
0	252.977	0
ITEM: ATOMS id type element xu yu zu q Q_1 Q_2 Q_3 Q_4 Q_5 Q_6 Q_7 Q_8 Q_9 Q_10 Q_11 Q_12 Q_13 Q_14 Q_15 Q_16 Q_17 Q_18 Q_19 Q_20 Q_21
1 1 Mg -3.54026 7.14359 57.4035 1.2 1 0.019367 0.0149785 0.00566099 0.00570113 0.00117837 0.00606098 0.00130447 0.0219392 0.00178651 0.00993146 0.00233258 0.027659 0.00279645 0.0186498 0.00252254 0.0331681 0.00259152 0.0242167 0.00488507 0.0446265
2 1 Mg -1.73225 6.36708 49.5663 1.2 1 0.182719 0.0516633 0.00880982 0.00990064 0.00242589 0.00777543 0.00422432 0.0195987 0.00415289 0.0152361 0.00448284 0.0229254 0.00320185 0.021832 0.00459036 0.0271036 0.00633901 0.0246433 0.00843072 0.0296883
3 2 Si -0.0437241 3.94559 48.0539 2.4 1 0.215675 0.0556465 0.0115734 0.0114781 0.00200196 0.00942942 0.0035567 0.0189517 0.00495431 0.0156545 0.00528231 0.0231897 0.00541839 0.0242651 0.00617988 0.0270065 0.00746041 0.024756 0.00874278 0.0306787
4 3 O -0.219049 5.40627 47.3845 -1.2 1 0.23641 0.0551902 0.0165022 0.012891 0.0023596 0.010788 0.00415197 0.0189573 0.00540071 0.0165438 0.00553322 0.023101 0.00441747 0.0245443 0.00615852 0.0254612 0.00815774 0.0256511 0.00866925 0.0278381
5 3 O -2.15213 3.46961 51.876 -1.2 1 0.126367 0.042932 0.00172985 0.0067126 0.00199468 0.00675784 0.00292124 0.0192121 0.00266778 0.011413 0.00294884 0.0241046 0.00332523 0.0191428 0.0042417 0.0292419 0.00559344 0.0236067 0.00794597 0.0360163
6 3 O -1.41758 3.72744 48.8959 -1.2 1 0.197783 0.0538563 0.00940698 0.0103533 0.00190234 0.00809528 0.00386443 0.0190039 0.00431816 0.0148798 0.00475288 0.0230363 0.00374808 0.0227603 0.00602763 0.0279169 0.00600249 0.0241614 0.00811719 0.0307156
7 1 Mg 2.1202 2.57081 47.254 1.2 1 0.240868 0.056694 0.015923 0.0152063 0.00335238 0.0104066 0.00414913 0.0198014 0.00624655 0.0136321 0.00580312 0.0241093 0.00633255 0.0213636 0.00850692 0.0264249 0.00775468 0.0237212 0.0100946 0.0302679
8 3 O 1.37792 3.73553 48.7954 -1.2 1 0.196248 0.0539054 0.00884666 0.0104203 0.00207074 0.00857645 0.00388966 0.0188727 0.00343827 0.0150449 0.00408363 0.0227331 0.00430776 0.0226322 0.00557793 0.0271584 0.00530549 0.0241649 0.00881136 0.0315723
9 1 Mg 0.859275 2.41489 54.6336 1.2 1 0.0662123 0.0305561 0.0046726 0.00520812 0.00120596 0.00561894 0.00298847 0.0213202 0.00274133 0.00971264 0.00267255 0.0257731 0.00373271 0.0200012 0.00478452 0.0318828 0.00288065 0.0239944 0.0068026 0.0417846
10 2 Si 0.931135 5.01553 56.3669 2.4 1 0.0329947 0.0217494 0.00652171 0.00547243 0.00144036 0.00627743 0.00233977 0.0218128 0.00192706 0.0094703 0.00374477 0.0259494 0.00314452 0.0191247 0.00480029 0.0325015 0.00337388 0.0246672 0.00612534 0.0450099
11 3 O 0.787885 3.44794 56.4956 -1.2 1 0.0307215 0.0200075 0.00611629 0.00532108 0.00121948 0.00593473 0.0020243 0.021373 0.00232566 0.00873914 0.0026342 0.0268492 0.00305392 0.0181316 0.00339369 0.0323533 0.00356659 0.0240486 0.00564303 0.0454007
12 3 O 1.03622 6.11761 52.7021 -1.2 1 0.103532 0.0385191 0.00169643 0.00612908 0.00215203 0.00652675 0.00345685 0.0208254 0.00323647 0.0119461 0.00358968 0.0241587 0.00349139 0.0201699 0.00422806 0.0295792 0.003958 0.0243069 0.00678468 0.0363395
13 3 O -0.265807 5.70201 55.6566 -1.2 1 0.0425609 0.0250541 0.00602429 0.0050375 0.00156809 0.00487479 0.00203176 0.0211325 0.00250022 0.0104971 0.00289098 0.0259219 0.00284436 0.0190327 0.00378012 0.0321258 0.00318115 0.0241424 0.00559003 0.0427898
14 3 O 2.2671 5.65271 55.6295 -1.2 1 0.0430088 0.0253999 0.00623124 0.00471379 0.00134206 0.005376 0.00237952 0.0216993 0.00208517 0.0105172 0.0028766 0.0255217 0.00276328 0.0192101 0.00433615 0.0325613 0.00306011 0.0250514 0.00571639 0.0424826
15 1 Mg -0.545021 4.69967 52.2306 1.2 1 0.120232 0.0424979 0.00237299 0.00650023 0.00237751 0.00628835 0.00256474 0.0200153 0.00299597 0.0118323 0.00262666 0.0246558 0.00323672 0.0202227 0.00392729 0.0289283 0.00469088 0.0234227 0.00722895 0.0349165
16 1 Mg 2.87684 3.91125 50.0679 1.2 1 0.16771 0.0514679 0.00485119 0.00899706 0.00157476 0.0074742 0.00419982 0.0193002 0.00285631 0.0140349 0.00350348 0.0237862 0.00374945 0.0218245 0.00601676 0.0282937 0.00504557 0.0243963 0.00970823 0.032676
17 2 Si 1.21088 6.59348 51.0564 2.4 1 0.144751 0.0478623 0.00307702 0.00789134 0.00214281 0.00716429 0.00436607 0.0195419 0.00309958 0.0140549 0.00495541 0.023056 0.00378636 0.0221851 0.00686451 0.0287797 0.00435488 0.0244909 0.00883257 0.0327636
18 3 O 1.41573 8.1595 51.0127 -1.2 1 0.149881 0.0477261 0.00374646 0.00829478 0.0020314 0.00800746 0.00411419 0.0201182 0.00327069 0.0143951 0.00370192 0.023688 0.00334451 0.022167 0.00499325 0.0294474 0.00571215 0.0255452 0.00748577 0.0324922
19 3 O 0.902276 5.77107 57.8017 -1.2 1 0.0154197 0.0130234 0.00474909 0.00577188 0.00121797 0.00618806 0.00163114 0.0218129 0.00229774 0.00902912 0.00279264 0.0271254 0.00296128 0.018393 0.00243868 0.0335626 0.00307585 0.0244921 0.0048674 0.0469315
20 3 O -0.0656944 6.01598 50.4015 -1.2 1 0.16704 0.0494543 0.00703591 0.00936453 0.00295622 0.00709944 0.00433084 0.019292 0.0035407 0.0144218 0.00375031 0.0234564 0.00322496 0.0223264 0.00533237 0.0273983 0.00511372 0.0240884 0.00838968 0.031681
21 1 Mg -3.57469 4.78597 52.6439 1.2 1 0.109099 0.0403223 0.00135984 0.00565621 0.00200825 0.00617443 0.00319869 0.0193081 0.0033058 0.011235 0.00343753 0.0243887 0.00304495 0.0199618 0.00382564 0.0292171 0.00408212 0.0233832 0.00732136 0.0357179
22 3 O 2.63311 5.85429 50.6395 -1.2 1 0.153524 0.0489729 0.00427309 0.00779191 0.00154039 0.00757287 0.00414586 0.0200847 0.00339859 0.0140358 0.0039693 0.0226708 0.00376132 0.0219013 0.0056712 0.0285095 0.00411334 0.0246781 0.00839746 0.032628
23 1 Mg -2.04012 4.67072 55.1538 1.2 1 0.047636 0.0279207 0.00656939 0.00497021 0.00140937 0.005394 0.00193491 0.021048 0.00239725 0.0101555 0.00350196 0.0261843 0.00282976 0.0193624 0.00387485 0.0322721 0.00425332 0.0243279 0.00590789 0.0420721
24 2 Si -2.07192 2.63602 53.3481 2.4 1 0.0946128 0.0377462 0.00363002 0.00602012 0.00242608 0.00611128 0.00201128 0.0202685 0.00258324 0.0109718 0.00253759 0.0246402 0.00270411 0.0200832 0.00297635 0.0304328 0.0045067 0.0233493 0.00750024 0.0398591
25 3 O -2.09381 1.08816 53.0328 -1.2 1 0.0986728 0.0384592 0.00315954 0.00643329 0.00303545 0.00591286 0.002458 0.0204984 0.00272021 0.0102486 0.0025736 0.0260901 0.00332717 0.0197953 0.00458203 0.0312519 0.00481682 0.023954 0.00805351 0.0406017
26 3 O 0.0529192 2.72542 47.0093 -1.2 1 0.245309 0.0568363 0.0170339 0.0141353 0.00201259 0.00999521 0.00381459 0.0186127 0.00634897 0.0153137 0.00641893 0.0238788 0.00657779 0.023346 0.00880479 0.0263709 0.00807111 0.024316 0.00967309 0.0305432
27 3 O -3.34899 3.18814 54.0406 -1.2 1 0.0787794 0.0343775 0.00413949 0.00468445 0.00196864 0.0060289 0.00226549 0.0203732 0.00242297 0.0103824 0.00228046 0.0249671 0.00255198 0.0197399 0.00322272 0.0313665 0.00375376 0.0235683 0.00682683 0.040395
28 3 O -0.82859 3.26515 53.9897 -1.2 1 0.0776845 0.0335965 0.00379154 0.00522189 0.00162383 0.00602953 0.00226863 0.0206444 0.00310932 0.0104101 0.00229546 0.0250432 0.00336513 0.0202219 0.00268946 0.0310082 0.003755 0.0236916 0.00640374 0.0400131
29 1 Mg -3.39687 11.8315 57.2606 1.2 1 0.0223383 0.0157239 0.00516134 0.00638523 0.00126734 0.00612169 0.0014978 0.0222724 0.00196901 0.0104271 0.00229383 0.0275547 0.00244185 0.0193124 0.00275538 0.0325577 0.002968 0.0243582 0.00468324 0.0438516
30 1 Mg -1.81505 11.7101 49.8196 1.2 1 0.174303 0.0504181 0.00730977 0.0110895 0.0031207 0.0106456 0.00363182 0.0228685 0.00444969 0.0162514 0.00496939 0.0245372 0.00397383 0.023602 0.00617071 0.0315106 0.00598571 0.0272506 0.00859494 0.0326091
31 2 Si -0.95723 8.88855 47.8176 2.4 1 0.238814 0.0557414 0.0171651 0.0145375 0.00368287 0.0110258 0.00646431 0.0210935 0.00563721 0.0168396 0.00659168 0.0231286 0.00442565 0.0243676 0.00645842 0.027109 0.00936014 0.0265865 0.0117988 0.0278546
32 3 O -1.26672 10.4037 47.8841 -1.2 1 0.226659 0.0553913 0.0149348 0.0145328 0.0040883 0.0118479 0.00562747 0.0225588 0.00655602 0.0176413 0.00734378 0.0235448 0.0044314 0.02392 0.00714265 0.030218 0.00968051 0.0277523 0.0105026 0.0287332
33 3 O -1.66046 7.96678 51.7906 -1.2 1 0.133084 0.042953 0.00267475 0.00793515 0.00267259 0.0067199 0.0027721 0.0205805 0.00303333 0.0135627 0.00364523 0.024062 0.0031594 0.0208453 0.00359395 0.0291505 0.00512939 0.0242342 0.0079681 0.0344072
34 3 O -2.06871 8.12711 48.6927 -1.2 1 0.204741 0.0551601 0.0107838 0.0112483 0.00298273 0.00871746 0.00533482 0.0204746 0.00459987 0.0168479 0.00529841 0.0229922 0.00359716 0.0236352 0.00626625 0.0279351 0.00731316 0.0261647 0.00977037 0.0288981
35 1 Mg 0.130291 6.85009 46.2709 1.2 1 0.276036 0.0570233 0.0245216 0.0162686 0.00439702 0.0124113 0.00881037 0.0205807 0.006362 0.0177025 0.00766101 0.0223301 0.00752425 0.0254271 0.00889373 0.0241277 0.00972449 0.0263818 0.0121861 0.0266293
36 3 O 0.601943 8.47515 48.1427 -1.2 1 0.220403 0.055707 0.0139778 0.0129792 0.00317753 0.00984976 0.00605814 0.0212153 0.00501117 0.0174275 0.00614596 0.0228144 0.0040878 0.0253668 0.0062451 0.0273651 0.00692407 0.026163 0.0104026 0.0286694
37 1 Mg 1.20408 7.26693 54.3909 1.2 1 0.0657702 0.0325098 0.00480294 0.00547698 0.00169632 0.00528428 0.00286635 0.0207601 0.00268994 0.0115889 0.00337727 0.0250816 0.00300668 0.0197513 0.00360667 0.0318775 0.00353133 0.0239956 0.0063133 0.0387779
38 2 Si 1.06722 9.76758 56.3647 2.4 1 0.0310716 0.0204916 0.0062888 0.00663683 0.00222478 0.00612482 0.00287572 0.0216952 0.00231441 0.0106301 0.00421598 0.025721 0.00279261 0.0195121 0.00419399 0.0328296 0.00355758 0.0245076 0.00651648 0.0438504
39 3 O 1.04438 8.24175 56.44 -1.2 1 0.0300068 0.0195556 0.00611314 0.00588235 0.00124107 0.00565214 0.00166847 0.0215147 0.00252687 0.00992994 0.00247961 0.0260028 0.00306022 0.0182301 0.00238527 0.0325838 0.00380148 0.0244425 0.00565654 0.0438046
40 3 O 1.42595 10.7214 52.6189 -1.2 1 0.113483 0.0402489 0.0011189 0.00757868 0.00222877 0.00827374 0.00283995 0.0214739 0.00275213 0.0130341 0.00346795 0.0242712 0.00335488 0.0209008 0.00450238 0.0313819 0.00387044 0.0256378 0.00636334 0.0359976
41 3 O -0.223225 10.4937 55.7204 -1.2 1 0.0470472 0.025337 0.00528346 0.00614255 0.00169199 0.00574171 0.00223068 0.0218997 0.00232568 0.0111677 0.00307683 0.0258911 0.00265208 0.0196149 0.00397461 0.0325135 0.00344373 0.0246292 0.00595926 0.0418817
42 3 O 2.31576 10.4999 55.6149 -1.2 1 0.0442972 0.0253295 0.00605316 0.00640095 0.00147049 0.00581152 0.00258478 0.0216919 0.00232412 0.0114031 0.00281247 0.0256636 0.00282275 0.0200976 0.00311012 0.0331286 0.00345798 0.0249236 0.00528699 0.0416603
43 1 Mg -0.114909 9.16997 52.1194 1.2 1 0.115733 0.0428082 0.00155366 0.00743944 0.00260767 0.00645912 0.0025207 0.0212334 0.00307287 0.0135315 0.00350145 0.0244812 0.00295832 0.0208548 0.00567273 0.0310935 0.00449108 0.0257755 0.0067275 0.0343692
44 1 Mg 2.15505 9.00597 49.2895 1.2 1 0.185108 0.0547582 0.00755257 0.00996752 0.00307107 0.00861136 0.00562845 0.0206505 0.00417933 0.0168324 0.00516648 0.0233022 0.00308368 0.0240542 0.00652537 0.0294202 0.005807 0.0263678 0.0091548 0.0300169
45 2 Si 1.22367 11.3869 51.1379 2.4 1 0.142654 0.0484936 0.00253652 0.00938932 0.00245634 0.00893084 0.00330351 0.0216019 0.00417392 0.0150426 0.00458999 0.0234978 0.00384116 0.0230802 0.00637362 0.0323419 0.0047567 0.0268647 0.00806702 0.0349055
46 3 O 1.28257 12.9777 51.2019 -1.2 1 0.144547 0.046898 0.00324805 0.00978013 0.00213573 0.0099238 0.00333378 0.0229943 0.00447491 0.015393 0.00293142 0.0248711 0.00412316 0.0233293 0.00467255 0.0330674 0.00547189 0.0271726 0.00738288 0.0360168
47 3 O 1.09589 10.53 57.8122 -1.2 1 0.0173581 0.0130025 0.00435302 0.00646198 0.00139611 0.00630228 0.00188146 0.0221251 0.0023268 0.00993507 0.00312219 0.0272387 0.00257157 0.0190973 0.00344439 0.0325963 0.00361478 0.0239272 0.00514957 0.0448978
48 3 O -0.17833 10.7096 50.6077 -1.2 1 0.152203 0.0482767 0.00430781 0.01015 0.00321675 0.00855726 0.00353881 0.0222633 0.0038737 0.0149258 0.00337724 0.0238278 0.00351411 0.0229473 0.00612201 0.0313675 0.00483363 0.0267247 0.00814154 0.0334805
49 1 Mg -3.06429 9.34659 52.0492 1.2 1 0.125393 0.0411703 0.00215257 0.0071188 0.00201688 0.00806849 0.00354807 0.0203109 0.00317903 0.0131696 0.00386754 0.024449 0.00299673 0.0207114 0.00520782 0.0311492 0.00460464 0.0248833 0.0075015 0.0337813
50 3 O 2.35708 10.7399 50.3224 -1.2 1 0.159688 0.0498868 0.00463225 0.00917588 0.00234868 0.00980629 0.00433493 0.0215057 0.00384631 0.0158446 0.00432222 0.0236862 0.00320856 0.023513 0.00625954 0.0318105 0.00508257 0.02665 0.00863744 0.0336311
51 1 Mg -1.92266 9.49379 55.065 1.2 1 0.0536358 0.0283248 0.00546474 0.00594273 0.00138249 0.00571524 0.00247137 0.0210412 0.00237518 0.0110913 0.0034709 0.0254366 0.00253951 0.0194597 0.00346823 0.0326739 0.00302853 0.0248662 0.00580757 0.0405899
52 2 Si -1.68508 7.33597 53.3061 2.4 1 0.0942912 0.0371685 0.00220883 0.00568185 0.0027563 0.00579033 0.0031077 0.0202033 0.00351721 0.0127453 0.00323484 0.0243554 0.00252511 0.0207451 0.0025938 0.0301347 0.00481499 0.0239185 0.00618416 0.0371031
53 3 O -1.94032 5.79419 53.2756 -1.2 1 0.0944365 0.0370198 0.00219309 0.00545963 0.00219863 0.00588362 0.00240828 0.0199985 0.00316371 0.0109457 0.00342141 0.0242377 0.0023205 0.0193986 0.00391282 0.0302259 0.0035816 0.0237479 0.00682645 0.036996
54 3 O -1.09096 8.37899 46.3451 -1.2 1 0.269427 0.0556313 0.0236238 0.0165577 0.00411375 0.0128905 0.00844124 0.0223407 0.00623409 0.0169636 0.00740824 0.0217733 0.00577356 0.0235968 0.00747895 0.0258563 0.0103797 0.0280308 0.0124388 0.0267296
55 3 O -2.98814 8.05519 53.8874 -1.2 1 0.0830452 0.0350519 0.00304172 0.00530756 0.00187841 0.00610672 0.00272105 0.0202406 0.00290992 0.0124209 0.00320542 0.0245035 0.0023938 0.0201662 0.00340636 0.0315646 0.00425613 0.0242918 0.0060795 0.037058
56 3 O -0.484898 8.11168 53.9804 -1.2 1 0.0776035 0.032789 0.00333138 0.00543127 0.00208707 0.00539996 0.00218911 0.02091 0.00283386 0.0120132 0.00264776 0.0245347 0.00236018 0.0201283 0.00286754 0.0313152 0.00387469 0.0250053 0.00629032 0.0387841
57 1 Mg -3.19757 16.6426 57.4328 1.2 1 0.02218 0.0147977 0.00522674 0.00715515 0.00152169 0.00665798 0.00133402 0.0231684 0.0016006 0.0107121 0.00227264 0.0281691 0.00227959 0.0197188 0.00206825 0.0335518 0.00284247 0.0259911 0.00412211 0.0454642
58 1 Mg -1.68988 16.6142 49.8116 1.2 1 0.173112 0.0513026 0.00685774 0.0119298 0.00265345 0.014177 0.00296113 0.0253126 0.00545656 0.0170344 0.0044952 0.0277015 0.00415268 0.024973 0.00652606 0.0352926 0.00603088 0.0285245 0.00786489 0.0369912
59 2 Si -1.10844 13.7472 47.82 2.4 1 0.230478 0.0571119 0.0160329 0.0160812 0.00301126 0.0156437 0.00492913 0.0257001 0.00758018 0.0193108 0.00582006 0.0253254 0.00543481 0.027261 0.00639219 0.0330831 0.010013 0.029498 0.010099 0.0324643
60 3 O -0.933765 15.3252 47.6397 -1.2 1 0.232109 0.0567488 0.0159594 0.0164948 0.00379171 0.0186395 0.00478694 0.0267561 0.00799999 0.0197945 0.0062913 0.0263762 0.00617017 0.0268805 0.00819636 0.03515 0.00992517 0.0308382 0.0101993 0.0346872
61 3 O -1.80293 12.8616 51.6675 -1.2 1 0.131578 0.0438939 0.00256647 0.00957546 0.00290458 0.00897947 0.00170281 0.0233526 0.00368607 0.0143904 0.00303282 0.0255243 0.00344004 0.021928 0.00417992 0.0331269 0.00497369 0.0262524 0.00726604 0.0364811
62 3 O -2.33028 13.2827 48.7174 -1.2 1 0.204926 0.0556572 0.0114617 0.0132105 0.00305175 0.0130984 0.00439324 0.0252354 0.00586387 0.0190755 0.00489757 0.0252283 0.00476647 0.0260437 0.00650003 0.0336143 0.00757285 0.0294547 0.00935331 0.0330515
63 1 Mg 0.0930674 11.5415 47.0672 1.2 1 0.252732 0.0557641 0.0206151 0.0171426 0.00358303 0.0156396 0.00643714 0.0254744 0.00739751 0.0184697 0.00712169 0.0245673 0.00594085 0.0265455 0.00743118 0.0309887 0.010671 0.0306607 0.0122229 0.0300854
64 3 O 0.408424 13.0834 48.3956 -1.2 1 0.206923 0.0552787 0.01161 0.0138197 0.00268458 0.0135694 0.00370844 0.0246139 0.0060712 0.0182309 0.00413721 0.0247139 0.00459004 0.0266554 0.00584627 0.0333067 0.00756055 0.0294049 0.00981807 0.0330354
65 1 Mg 1.40904 11.8281 54.3258 1.2 1 0.0737366 0.0332883 0.00384146 0.00668942 0.00155085 0.0067905 0.00286924 0.0219275 0.00280869 0.0123592 0.00273528 0.0253343 0.00318289 0.0213845 0.00302654 0.0323636 0.00406745 0.0248057 0.00589273 0.0387557
66 2 Si 1.11173 14.6013 56.3098 2.4 1 0.0340669 0.0204218 0.00566238 0.00774626 0.00180321 0.00614908 0.00259667 0.0220891 0.00218682 0.0107406 0.00387256 0.0267492 0.00276926 0.0201203 0.00462307 0.0331666 0.00338264 0.0249747 0.00647942 0.0449221
67 3 O 1.05681 13.0116 56.5441 -1.2 1 0.0284464 0.0182232 0.00566464 0.00684782 0.00142818 0.00597941 0.00194019 0.0224921 0.00262816 0.0103303 0.00221535 0.0269653 0.00300213 0.0195618 0.0027654 0.0326357 0.00384439 0.0248823 0.00517488 0.0442208
68 3 O 1.20734 15.5754 52.6128 -1.2 1 0.109492 0.0394242 0.000701729 0.00871974 0.00211157 0.0106714 0.0031219 0.0241779 0.00313195 0.0141721 0.00363511 0.0265501 0.00388621 0.0221981 0.00457264 0.0337151 0.00382801 0.0270741 0.00591495 0.0392922
69 3 O -0.145555 15.2896 55.627 -1.2 1 0.0479874 0.0258333 0.00580004 0.00795344 0.00124697 0.00672798 0.00257966 0.022663 0.00218166 0.0118066 0.00277417 0.0267411 0.00287821 0.0205177 0.00444988 0.0340091 0.00354985 0.0261512 0.00591241 0.0445891
70 3 O 2.42259 15.2155 55.5773 -1.2 1 0.0466712 0.0254468 0.00589976 0.00753569 0.00130681 0.00637425 0.00285725 0.02246 0.00254728 0.0114476 0.00253989 0.0267717 0.00300777 0.0207094 0.00351912 0.0338421 0.00302592 0.0261377 0.00604529 0.0438042
71 1 Mg -0.371581 14.1777 52.0487 1.2 1 0.122436 0.0425639 0.00158821 0.00910601 0.00244884 0.0105693 0.00185987 0.0242098 0.00389887 0.0147054 0.00328664 0.0263522 0.00359998 0.0227785 0.00427369 0.0333037 0.00379146 0.0265105 0.00587949 0.0370795
72 1 Mg 1.90959 13.8051 49.3737 1.2 1 0.18465 0.0553511 0.00729951 0.0118605 0.00235805 0.0124994 0.0044172 0.0239184 0.00480597 0.0180159 0.00453713 0.0251768 0.00432331 0.0252333 0.00655646 0.0344712 0.00675585 0.0291773 0.00871219 0.0335497
73 2 Si 1.1236 16.1683 51.1104 2.4 1 0.144364 0.0483029 0.00277946 0.0106005 0.00261931 0.0118061 0.00324911 0.0241755 0.00480946 0.0160571 0.00414008 0.0259426 0.00421244 0.0244774 0.00562879 0.0349214 0.0050339 0.0284448 0.00782693 0.0391731
74 3 O 1.35521 17.7605 51.3254 -1.2 1 0.140324 0.0463407 0.00220937 0.0101856 0.00202916 0.0122571 0.00318824 0.0244763 0.00469001 0.0152416 0.00276602 0.0273348 0.00413346 0.0237063 0.00391319 0.0354659 0.00589826 0.0283317 0.00738254 0.0403525
75 3 O 1.14472 15.1897 57.8509 -1.2 1 0.0176874 0.0122015 0.00437159 0.00680787 0.00146359 0.00688891 0.00180887 0.0232448 0.00203013 0.0103456 0.00248181 0.027793 0.00281057 0.0200123 0.00305531 0.0328959 0.00301289 0.0256269 0.00389026 0.0461837
76 3 O -0.116001 15.5498 50.5006 -1.2 1 0.159337 0.0498251 0.00525529 0.0114334 0.00314026 0.0124655 0.00364037 0.0243826 0.0047068 0.0163157 0.00312621 0.0259211 0.00390467 0.0251673 0.0052965 0.0341661 0.00413446 0.0277744 0.00760744 0.0370924
77 1 Mg -3.35702 14.274 52.3167 1.2 1 0.121823 0.0418138 0.00175253 0.00881289 0.00152471 0.0109242 0.0027633 0.0233898 0.00392308 0.0145546 0.00387872 0.0257436 0.00372016 0.0223783 0.00424733 0.0338292 0.00430282 0.0266392 0.0061908 0.0371572
78 3 O 2.47212 15.523 50.2805 -1.2 1 0.158735 0.0510816 0.00453911 0.0109425 0.00209365 0.0123849 0.00375925 0.024723 0.00484151 0.0169309 0.00325157 0.0260291 0.00356251 0.024632 0.0056372 0.0345833 0.00496355 0.027948 0.00759089 0.0373103
79 1 Mg -1.82895 14.2977 55.1821 1.2 1 0.0522531 0.0272604 0.00544366 0.00728422 0.00123593 0.00671861 0.00229886 0.0224975 0.00271113 0.0116506 0.00318248 0.0268801 0.00240875 0.0208155 0.00358827 0.0338356 0.00339501 0.0259168 0.00549218 0.0426328
80 2 Si -1.61888 12.1173 53.1279 2.4 1 0.0965295 0.0374051 0.00190137 0.00763233 0.00196887 0.00750524 0.00178997 0.0219501 0.00360956 0.0131104 0.00285442 0.0248558 0.00324458 0.0218313 0.00352262 0.0322699 0.00410122 0.0251356 0.00627993 0.038977
81 3 O -1.73109 10.5976 53.0614 -1.2 1 0.0956765 0.0369538 0.00202165 0.00671202 0.00227547 0.00717917 0.00202585 0.0214078 0.00291621 0.0122863 0.00339602 0.0242955 0.00262958 0.0204344 0.00366498 0.0322015 0.00384096 0.0254741 0.00669577 0.0376093
82 3 O -1.00809 13.076 46.3902 -1.2 1 0.268076 0.0568416 0.023686 0.0188756 0.00424587 0.0179504 0.0074598 0.0277624 0.00809158 0.0193525 0.00778392 0.0246003 0.00649812 0.0265391 0.00815702 0.032651 0.012475 0.0313876 0.0122952 0.0307431
83 3 O -2.79351 12.8769 53.9041 -1.2 1 0.084126 0.0344073 0.00196162 0.00708569 0.00125758 0.00821732 0.0019093 0.0222278 0.00307485 0.0129407 0.00265204 0.025264 0.00301576 0.0219316 0.00320955 0.0332294 0.00390122 0.0253708 0.00582599 0.0396379
84 3 O -0.325452 12.775 53.6531 -1.2 1 0.0838433 0.0350497 0.00282474 0.00732614 0.00233794 0.00663033 0.00191575 0.0229561 0.00318328 0.0130863 0.00246553 0.0256175 0.00271901 0.0222338 0.00359735 0.0330479 0.00430512 0.025958 0.00560248 0.040283
85 1 Mg -3.02681 21.4121 57.382 1.2 1 0.022802 0.0147382 0.00559223 0.00682539 0.00160343 0.00698828 0.00121114 0.0235253 0.00161839 0.0102218 0.00197755 0.0286335 0.00283702 0.01988 0.0019556 0.0330008 0.00264982 0.0264223 0.00388601 0.0477102
86 1 Mg -1.56382 21.1824 50.0006 1.2 1 0.173047 0.0498486 0.0060104 0.0125632 0.00269305 0.0153884 0.00281096 0.0258026 0.00465151 0.0168129 0.0041904 0.0305487 0.00456737 0.0244908 0.00630983 0.0359163 0.00619908 0.0295057 0.00914599 0.0406531
87 2 Si -1.08919 18.5681 47.9509 2.4 1 0.22541 0.0568337 0.0143333 0.0169578 0.00383312 0.0186375 0.00372824 0.0275751 0.00786555 0.0197453 0.00586406 0.0291701 0.00653824 0.0276938 0.00672649 0.0368834 0.00977622 0.0303042 0.00976472 0.037998
88 3 O -0.937646 20.1007 48.0337 -1.2 1 0.22255 0.0566636 0.0125979 0.0166473 0.00393762 0.0191063 0.00364087 0.0266666 0.00768877 0.0192837 0.00593986 0.0293735 0.00651945 0.0254766 0.00794694 0.0377336 0.00967304 0.0308167 0.0107851 0.0392553
89 3 O -1.6347 17.5627 51.5928 -1.2 1 0.132787 0.0440185 0.00201335 0.0102651 0.00280049 0.01115 0.00184298 0.0248336 0.00404309 0.0148445 0.00291604 0.0276499 0.00400249 0.0231821 0.00361714 0.034994 0.005289 0.0276756 0.00665213 0.0401662
90 3 O -2.44259 17.9507 48.5999 -1.2 1 0.205081 0.0566269 0.0101893 0.0141401 0.00304591 0.0168387 0.00376791 0.0276752 0.0066196 0.0193328 0.00450328 0.0280288 0.00491272 0.0264102 0.00677323 0.037349 0.00831202 0.0307642 0.00839586 0.0376202
91 1 Mg 0.24688 16.4325 46.8942 1.2 1 0.249753 0.0578457 0.0186151 0.0181264 0.00372043 0.021511 0.00537968 0.029714 0.00884794 0.020381 0.00624834 0.0283647 0.00695621 0.0280177 0.00769397 0.0358264 0.0120133 0.0322544 0.0110742 0.0359771
92 3 O 0.247044 17.8497 48.6281 -1.2 1 0.202222 0.054907 0.0102991 0.0139856 0.00348101 0.0165669 0.00365366 0.0271618 0.00681684 0.0191579 0.00443944 0.0276166 0.00521959 0.0268769 0.0056654 0.0368528 0.00802238 0.0307456 0.00939683 0.0385407
93 1 Mg 1.45409 16.7373 54.3862 1.2 1 0.0742181 0.0326247 0.00385569 0.00786442 0.00128993 0.0085189 0.00290104 0.0226026 0.00253846 0.0124039 0.00259634 0.0275447 0.00361838 0.0216213 0.0027682 0.0341791 0.00385668 0.0263823 0.00534794 0.041445
94 2 Si 1.49108 19.3261 56.3997 2.4 1 0.0325737 0.0195937 0.00669981 0.008481 0.00111326 0.00638081 0.00237363 0.0230874 0.00166816 0.0107067 0.00324112 0.0272147 0.00308017 0.0201429 0.00419031 0.033213 0.00307129 0.0261696 0.00630933 0.047348
95 3 O 1.43856 17.7831 56.4755 -1.2 1 0.0349723 0.0205611 0.00653076 0.00835308 0.0014484 0.0060038 0.00241732 0.0220843 0.00315017 0.0105254 0.00202303 0.0276228 0.003906 0.0201477 0.00302833 0.0336106 0.00369815 0.0255676 0.00565306 0.045973
96 3 O 1.64897 20.3828 52.7249 -1.2 1 0.110118 0.0386161 0.00103714 0.00881008 0.00154048 0.0116553 0.00311839 0.0248155 0.00349839 0.0139281 0.00298513 0.0284408 0.00413638 0.0222553 0.00466314 0.0346608 0.00426611 0.0282574 0.00662252 0.0432366
97 3 O 0.179096 19.9078 55.709 -1.2 1 0.0489187 0.0253402 0.00606526 0.00809531 0.00139563 0.00724751 0.00247337 0.022974 0.00177893 0.0117455 0.0023792 0.0277795 0.00353742 0.0212444 0.00333479 0.0340398 0.00278375 0.0265294 0.00586653 0.0467494
98 3 O 2.71182 20.1231 55.7798 -1.2 1 0.0426136 0.0236953 0.00689494 0.00808327 0.00114418 0.00683588 0.0026385 0.0229101 0.00190607 0.0110103 0.00238316 0.0274371 0.00307663 0.0208752 0.00320639 0.0347306 0.0026514 0.027346 0.0054558 0.0469175
99 1 Mg -0.0417808 18.9843 52.3652 1.2 1 0.114285 0.0425303 0.00140209 0.00948712 0.00223863 0.0102701 0.00228488 0.0243375 0.00329451 0.0145248 0.00271833 0.028135 0.00348235 0.0225083 0.00458175 0.0353708 0.00417697 0.0280587 0.00650149 0.0407534
100 1 Mg 1.9843 18.5229 49.4424 1.2 1 0.180914 0.0550769 0.00590674 0.011952 0.00204949 0.0147722 0.00398845 0.0261601 0.00557359 0.0184418 0.00413635 0.0284031 0.0049275 0.0257078 0.00634461 0.0375516 0.0071519 0.0302664 0.0088142 0.0389791
101 2 Si 1.46175 20.987 51.2438 2.4 1 0.142304 0.0473318 0.00114674 0.010429 0.0019048 0.0129993 0.00386176 0.0242589 0.00457777 0.0158022 0.00448912 0.0280237 0.00507129 0.0240554 0.00682066 0.0358188 0.00472362 0.0292636 0.00859813 0.0429498
102 3 O 1.59311 22.5624 51.3065 -1.2 1 0.145761 0.0455275 0.0022469 0.010122 0.00146455 0.0136045 0.00343634 0.0242251 0.00398648 0.0148699 0.00325486 0.02906 0.00409448 0.0235639 0.00437242 0.0356184 0.00612493 0.0297218 0.00786954 0.0442344
103 3 O 1.51837 19.9049 57.9495 -1.2 1 0.0180492 0.0124401 0.00463459 0.00726906 0.00121837 0.00676134 0.00141241 0.0237724 0.00180755 0.0102479 0.00272295 0.0281427 0.00290552 0.0198923 0.00271412 0.0332419 0.00286633 0.0264697 0.00407619 0.048568
104 3 O 0.148713 20.2827 50.8035 -1.2 1 0.148652 0.0480601 0.00255598 0.0109702 0.00277928 0.0133668 0.00449746 0.0254893 0.00386807 0.0159003 0.00290225 0.0285805 0.00454597 0.0243514 0.00551308 0.036316 0.0043721 0.0292184 0.00838754 0.0417972
105 1 Mg -3.06517 18.9639 52.233 1.2 1 0.124269 0.0417506 0.00110721 0.00935884 0.0016281 0.0116303 0.00243576 0.0242815 0.0037027 0.0145718 0.0026463 0.0281154 0.00350792 0.0223317 0.00384422 0.0354823 0.00482197 0.0281124 0.00614234 0.0408156
106 3 O 2.65813 20.2741 50.4376 -1.2 1 0.15774 0.0498308 0.00346493 0.0103621 0.0015573 0.0142667 0.0034619 0.025351 0.00444256 0.0170481 0.00335986 0.0284718 0.00404707 0.0250201 0.00601046 0.0367625 0.00524997 0.029168 0.00733176 0.0409696
107 1 Mg -1.50429 19.0323 55.0876 1.2 1 0.0532881 0.0283549 0.0065336 0.00837695 0.00182451 0.00684199 0.00218671 0.0236033 0.00275684 0.011894 0.00297159 0.027836 0.00269733 0.0211726 0.00321086 0.0346626 0.00400445 0.027322 0.00635777 0.0453692
108 2 Si -1.62682 16.8784 53.0864 2.4 1 0.0998824 0.0382555 0.00202062 0.00933193 0.0022898 0.00872282 0.0017268 0.0231498 0.00366629 0.0135742 0.002519 0.0269311 0.00346052 0.0223891 0.00381399 0.0342452 0.00473559 0.0265704 0.00588809 0.0418927
109 3 O -1.84399 15.3754 53.0161 -1.2 1 0.099037 0.0375542 0.00181905 0.00863564 0.00180718 0.00870221 0.00161094 0.0226434 0.00327358 0.01288 0.00305432 0.0264097 0.0032179 0.0215105 0.00451916 0.0340609 0.00372651 0.0260402 0.00618731 0.0403509
110 3 O -0.76169 18.1227 46.5024 -1.2 1 0.266104 0.0578697 0.0217833 0.0202126 0.00353375 0.0239635 0.00597144 0.0307534 0.00903948 0.0211159 0.00721585 0.0296035 0.00761982 0.0274558 0.00864693 0.0368502 0.0119194 0.0324739 0.0112791 0.0364392
111 3 O -2.91974 17.6154 53.8723 -1.2 1 0.0861522 0.0346228 0.00279964 0.00845656 0.00183276 0.00905191 0.00201477 0.0229295 0.00285611 0.0132233 0.00214002 0.0266857 0.00357861 0.0223439 0.00304712 0.0346886 0.00419774 0.0269302 0.00555023 0.042439
112 3 O -0.391653 17.6324 53.8182 -1.2 1 0.0835575 0.0347156 0.00342263 0.00854557 0.002621 0.00715633 0.00183998 0.0235686 0.00327931 0.0129428 0.00242255 0.0267892 0.00309198 0.0220682 0.00371606 0.0345523 0.00451248 0.0273849 0.00593159 0.0423767
113 1 Mg -2.84385 26.0366 57.495 1.2 1 0.0234013 0.0141618 0.00501638 0.00642551 0.00149831 0.00674005 0.00152658 0.0237665 0.00205153 0.00965748 0.00169967 0.0286834 0.0022825 0.0198277 0.00244543 0.0342665 0.00290309 0.0266499 0.0028055 0.0499658
114 1 Mg -1.48266 25.9645 49.6973 1.2 1 0.180427 0.0484891 0.00680305 0.0122786 0.0029632 0.0169804 0.00314135 0.0254395 0.00510713 0.0168214 0.00518358 0.0312503 0.00477791 0.0247849 0.00656673 0.0356016 0.00693444 0.0306598 0.010037 0.0427943
115 2 Si -1.04922 23.2845 47.9042 2.4 1 0.236512 0.0538596 0.0155204 0.018101 0.00423528 0.0219803 0.0039947 0.0269968 0.00713323 0.0194236 0.00673069 0.0314792 0.00635748 0.026464 0.00638765 0.0369001 0.0112339 0.0308699 0.0119595 0.0411484
116 3 O -1.08415 24.8983 47.9472 -1.2 1 0.227721 0.0539005 0.013126 0.0166144 0.00416006 0.0211512 0.00351679 0.025938 0.00702542 0.0189083 0.00724651 0.0310461 0.0068225 0.0254321 0.00873361 0.0377437 0.0102411 0.0320268 0.0126073 0.0416157
117 3 O -1.31259 22.3113 51.7336 -1.2 1 0.133178 0.0434334 0.00151616 0.0106338 0.00272698 0.0116165 0.00184614 0.0248691 0.00310344 0.014494 0.00366764 0.0294868 0.00417786 0.0229265 0.00438077 0.0354607 0.00573429 0.029037 0.00788868 0.0438386
118 3 O -2.40657 22.7067 48.5582 -1.2 1 0.208337 0.0550321 0.00945807 0.0148521 0.00327809 0.0182752 0.00413402 0.0273946 0.00592535 0.0195308 0.00511605 0.0300763 0.00503143 0.0262668 0.00689725 0.0377118 0.00845794 0.0317544 0.0104514 0.0413643
119 1 Mg 0.224421 21.311 46.9798 1.2 1 0.248648 0.0568807 0.0173236 0.0192694 0.00370286 0.0233599 0.00553407 0.0296015 0.00756283 0.0200926 0.00642691 0.0318871 0.00702723 0.0267678 0.00799703 0.0371859 0.00992343 0.0322972 0.0118619 0.0390388
120 3 O 0.295177 22.6269 48.5667 -1.2 1 0.207197 0.0540489 0.0100754 0.0146797 0.00328509 0.018993 0.00342886 0.0267189 0.00614263 0.0191379 0.0051243 0.0302974 0.00549856 0.0268993 0.00572911 0.0373041 0.00924189 0.0317071 0.0111259 0.042777