ITEM: TIMESTEP
700
ITEM: NUMBER OF ATOMS
10500
ITEM: BOX BOUNDS xy xz yz pp pp pp
0	8.9688	2.9896
0	118.725	0
0	252.977	0
ITEM: ATOMS id type element xu yu zu q Q_1 Q_2 Q_3 Q_4 Q_5 Q_6 Q_7 Q_8 Q_9 Q_10 Q_11 Q_12 Q_13 Q_14 Q_15 Q_16 Q_17 Q_18 Q_19 Q_20 Q_21
1 1 Mg -3.37149 7.0386 57.4464 1.2 1 0.0225371 0.0131108 0.0055252 0.00670106 0.00180178 0.00654042 0.00128979 0.023898 0.00150941 0.00926612 0.00181726 0.0309648 0.00269305 0.0213616 0.00213874 0.034133 0.00258734 0.025074 0.00460473 0.0531357
2 1 Mg -1.82655 6.90154 50.0912 1.2 1 0.175084 0.0469703 0.00593661 0.0100886 0.00327204 0.00883838 0.00439377 0.0232373 0.0046675 0.0143454 0.00483325 0.0263132 0.00469418 0.0212475 0.0065085 0.0298334 0.00557314 0.0252644 0.00933865 0.0362258
3 2 Si -0.257935 3.96038 48.0876 2.4 1 0.225172 0.0529862 0.0116441 0.0125968 0.00248896 0.00950102 0.00374755 0.020653 0.0058923 0.0168229 0.00447958 0.0247123 0.0055096 0.0207258 0.00567648 0.0269383 0.0069622 0.0244838 0.00932092 0.0330796
4 3 O -0.335812 5.46814 47.6264 -1.2 1 0.232654 0.052518 0.0134007 0.013579 0.00312736 0.0106452 0.00469179 0.021269 0.00641703 0.0174859 0.00480794 0.0253164 0.00500275 0.0212099 0.00554395 0.0272812 0.00752379 0.0253257 0.00989266 0.0317424
5 3 O -2.03793 3.43377 51.8941 -1.2 1 0.129157 0.0401855 0.00254009 0.00744051 0.00219433 0.00693062 0.00289015 0.0213226 0.00272332 0.0114009 0.0033704 0.0263338 0.0039822 0.0185151 0.00410119 0.0297508 0.00513244 0.0231402 0.00835798 0.0397213
6 3 O -1.54015 3.53929 48.9521 -1.2 1 0.204107 0.0516885 0.00914814 0.0109985 0.00271006 0.00836928 0.00382234 0.0205104 0.00510544 0.0154346 0.00478749 0.0242489 0.00444549 0.0203066 0.00585468 0.0276399 0.00548273 0.0237476 0.00910414 0.0332237
7 1 Mg 1.82954 2.54582 47.1376 1.2 1 0.245423 0.0524683 0.0159145 0.0155043 0.00304904 0.0110597 0.00337539 0.0205506 0.0056938 0.0157487 0.00473256 0.0243513 0.00612904 0.0198041 0.0071565 0.0252806 0.00637854 0.0232037 0.00878995 0.0308941
8 3 O 1.22989 3.66364 48.7877 -1.2 1 0.205745 0.0502797 0.00946402 0.0121037 0.00224093 0.00946681 0.00419018 0.0207255 0.0042327 0.0150628 0.0040188 0.0243006 0.00495013 0.0199809 0.00597739 0.027108 0.00456447 0.0236481 0.00923767 0.034164
9 1 Mg 1.01805 2.29894 54.5899 1.2 1 0.0694765 0.0283027 0.0053031 0.00579679 0.00156593 0.00510802 0.00290745 0.0224086 0.00270871 0.00977918 0.00295771 0.0283107 0.00418241 0.0206075 0.0043631 0.0323605 0.00291333 0.0236146 0.00694822 0.0465919
10 2 Si 1.07454 4.97908 56.4541 2.4 1 0.032995 0.0179321 0.0066431 0.00667954 0.00149906 0.00662996 0.00212118 0.0233584 0.00161639 0.00881542 0.00340988 0.0286073 0.00280684 0.0209656 0.00435974 0.0336399 0.00321375 0.0249013 0.00670643 0.0526568
11 3 O 1.00454 3.43684 56.5484 -1.2 1 0.0344673 0.0177687 0.0064718 0.00652726 0.00140933 0.00576236 0.00188751 0.0231651 0.00260028 0.00839059 0.00241876 0.0294649 0.00316659 0.0202223 0.00300199 0.0334275 0.00383049 0.0248822 0.00554896 0.0515772
12 3 O 1.10813 6.07342 52.8172 -1.2 1 0.105828 0.0352874 0.00311454 0.00695623 0.00240646 0.00718434 0.00344467 0.0231966 0.00343195 0.0110994 0.00332068 0.0275437 0.00436225 0.0199172 0.00433859 0.0313659 0.00435274 0.0246085 0.00732238 0.0426247
13 3 O -0.209097 5.68382 55.8427 -1.2 1 0.0466881 0.0223883 0.00634707 0.0061402 0.00176195 0.00559915 0.00239561 0.0231021 0.00200413 0.00969479 0.00273562 0.0289363 0.00308771 0.0203593 0.00429515 0.0336315 0.00306309 0.0248937 0.00632131 0.0501613
14 3 O 2.35233 5.66172 55.779 -1.2 1 0.0432178 0.0220749 0.00698244 0.00625181 0.00151937 0.00625815 0.00250303 0.0233408 0.00137455 0.00922396 0.00312374 0.0289441 0.00313009 0.0207637 0.00469149 0.0344909 0.00305912 0.0251329 0.00682795 0.0504261
15 1 Mg -0.459401 4.67631 52.2426 1.2 1 0.123527 0.0399941 0.00250041 0.00720132 0.00251072 0.00671774 0.00263896 0.0220191 0.00315426 0.011982 0.00292163 0.0272944 0.00431259 0.0198146 0.00470557 0.0303216 0.00401172 0.023435 0.00767056 0.0396964
16 1 Mg 2.79456 3.9971 49.9987 1.2 1 0.17633 0.0493038 0.00558803 0.010071 0.00283823 0.00792065 0.00479433 0.0214157 0.00324346 0.0147673 0.00308101 0.0251318 0.00471569 0.0206975 0.00617214 0.028738 0.00438358 0.0240567 0.00980205 0.035072
17 2 Si 1.16169 6.59457 51.2556 2.4 1 0.147871 0.045058 0.00265835 0.00930307 0.00272115 0.00828032 0.00424097 0.0225288 0.00452725 0.0133949 0.0046066 0.0259667 0.00447213 0.0213318 0.00635382 0.0310025 0.00461503 0.0250982 0.009681 0.0389034
18 3 O 1.28989 8.18905 51.2909 -1.2 1 0.1464 0.0439256 0.00269148 0.00949307 0.00273975 0.00903551 0.00423807 0.0231123 0.00433014 0.0131452 0.00391509 0.0279154 0.00423456 0.0217564 0.00511065 0.0313106 0.00535438 0.0258983 0.00883774 0.0403376
19 3 O 1.1037 5.65906 57.956 -1.2 1 0.0169909 0.0100113 0.00426381 0.00704483 0.00174694 0.00661135 0.00135098 0.0239039 0.00111334 0.00842345 0.00243966 0.0301597 0.00248014 0.0211433 0.00283244 0.0345171 0.00230311 0.0254965 0.00394593 0.0543878
20 3 O -0.184847 6.06029 50.6845 -1.2 1 0.160278 0.0443983 0.00456325 0.00931077 0.00341634 0.00798814 0.0041866 0.0223931 0.00423802 0.0135696 0.00331533 0.0257588 0.00434663 0.020485 0.00608333 0.0292707 0.00486676 0.0245138 0.00910624 0.0379226
21 1 Mg -3.49704 4.67769 52.6661 1.2 1 0.116248 0.0378971 0.00236747 0.00670694 0.00244929 0.00697079 0.00322966 0.0217608 0.00350949 0.0112052 0.0036887 0.0271385 0.00399576 0.0195006 0.00434993 0.0302524 0.00382878 0.0233611 0.00814896 0.040709
22 3 O 2.48581 5.93312 50.6539 -1.2 1 0.157252 0.0463601 0.00366714 0.00866442 0.00198448 0.00862376 0.00427864 0.0224706 0.00405286 0.0139297 0.00415628 0.0255413 0.00463229 0.0213201 0.00603697 0.0301757 0.0040844 0.0249185 0.00942599 0.0372984
23 1 Mg -1.87452 4.70172 55.2036 1.2 1 0.0524172 0.0251378 0.00691346 0.00645427 0.00183821 0.00552851 0.00212606 0.0229955 0.00306191 0.00951615 0.00333959 0.0292611 0.0027539 0.0205387 0.00399263 0.0333963 0.00418365 0.024581 0.00689488 0.0484713
24 2 Si -1.95123 2.64252 53.309 2.4 1 0.102007 0.0351665 0.00337359 0.0066233 0.00251252 0.00601378 0.00236874 0.0219076 0.00294245 0.0109655 0.00303981 0.0264735 0.0035361 0.0198462 0.00341874 0.0308344 0.00414772 0.0231758 0.00732174 0.0428824
25 3 O -1.99417 1.0948 53.2119 -1.2 1 0.0981944 0.0340705 0.00329795 0.00659317 0.00296821 0.00557061 0.00237895 0.021827 0.0029635 0.0101356 0.00286145 0.0272335 0.00359571 0.0193522 0.00432323 0.0309813 0.00387176 0.0229533 0.00756827 0.0431017
26 3 O -0.0467762 2.97103 46.8385 -1.2 1 0.252318 0.0532517 0.0166796 0.0148947 0.00318175 0.00995582 0.00383345 0.0201645 0.00646628 0.0169052 0.00606141 0.0240511 0.0070322 0.0193686 0.00802458 0.0253634 0.00668779 0.0235533 0.0101046 0.0319966
27 3 O -3.18915 3.27493 54.1042 -1.2 1 0.0798013 0.0301124 0.00427079 0.00556313 0.00209815 0.00556918 0.00196752 0.0222338 0.00288157 0.0104175 0.0024749 0.0270285 0.00310466 0.0200033 0.00369095 0.0316562 0.00349223 0.023192 0.00708161 0.0449858
28 3 O -0.657973 3.29073 53.979 -1.2 1 0.0822928 0.0313472 0.00491846 0.00585969 0.00210613 0.00596357 0.00189076 0.0223752 0.00255099 0.0102527 0.00221457 0.0274154 0.00358502 0.0202999 0.00342463 0.031887 0.00354927 0.0238488 0.00693983 0.0446971
29 1 Mg -3.27242 11.7733 57.4651 1.2 1 0.0233184 0.0128485 0.00516085 0.00689954 0.00157512 0.00634716 0.00150164 0.0242325 0.0020067 0.00934837 0.00175133 0.0315495 0.00242167 0.0215752 0.00234163 0.0343771 0.00233996 0.0251754 0.00396863 0.0543962
30 1 Mg -1.75014 11.5838 49.8362 1.2 1 0.184449 0.0477668 0.00706132 0.0124248 0.00439478 0.0125387 0.00489766 0.0246598 0.0057122 0.0158299 0.00540383 0.0292529 0.00441612 0.0244244 0.00701756 0.0332494 0.00691555 0.0283936 0.0102522 0.0391469
31 2 Si -1.18003 9.02138 47.9309 2.4 1 0.24056 0.0520025 0.015051 0.0154309 0.0051238 0.0132175 0.00766701 0.0236148 0.00814549 0.0172768 0.00710214 0.0265154 0.00510211 0.0232258 0.00690089 0.0301565 0.00902567 0.0279623 0.0122791 0.0347064
32 3 O -1.23224 10.5991 47.9811 -1.2 1 0.230505 0.0529539 0.0132339 0.0155847 0.00525571 0.0142808 0.00654827 0.0247148 0.00835413 0.01745 0.00730908 0.0280365 0.00549394 0.024227 0.00806712 0.0324874 0.00934637 0.0300219 0.0110853 0.0354081
33 3 O -1.79016 8.01447 51.8693 -1.2 1 0.13337 0.0403903 0.00240027 0.00890381 0.00341198 0.00759148 0.00281099 0.0229915 0.00378131 0.0123707 0.0038647 0.0279909 0.00414233 0.0209545 0.00474654 0.0318056 0.00546779 0.0247802 0.0089788 0.0411633
34 3 O -2.30986 8.37215 48.8528 -1.2 1 0.204651 0.0521449 0.00905399 0.0124034 0.00408489 0.010473 0.0061372 0.0236967 0.00625314 0.0170519 0.00506001 0.0268129 0.00427454 0.023211 0.00590237 0.031222 0.00700405 0.0272751 0.00994974 0.0350749
35 1 Mg 0.154883 7.08234 46.8007 1.2 1 0.257606 0.0525766 0.0177769 0.0158979 0.00560636 0.0134418 0.00837614 0.0239003 0.00795617 0.0176725 0.00713372 0.0254256 0.0070839 0.021956 0.00819 0.0288051 0.00970748 0.0277168 0.0131279 0.0319678
36 3 O 0.325447 8.50934 48.3809 -1.2 1 0.216183 0.0527009 0.010648 0.0138938 0.00422384 0.0120715 0.0061858 0.0242843 0.00670977 0.0169898 0.0057371 0.0264567 0.00477247 0.0240701 0.00565552 0.0300588 0.00729574 0.0279594 0.0106766 0.0349218
37 1 Mg 1.1819 7.11272 54.6244 1.2 1 0.0688629 0.0286929 0.00524691 0.0061675 0.00212995 0.00603299 0.00248146 0.0230378 0.00254423 0.0103402 0.00325747 0.0287742 0.00408506 0.0212879 0.00365727 0.0333611 0.00360514 0.0242631 0.00693983 0.0473377
38 2 Si 1.18191 9.73588 56.4611 2.4 1 0.0349977 0.0185854 0.00662062 0.00704862 0.00168657 0.00627334 0.00222013 0.0236919 0.001832 0.00871769 0.00354326 0.0292351 0.00289874 0.0218497 0.00425564 0.0343618 0.00332351 0.0251321 0.0066496 0.0538369
39 3 O 1.14212 8.18569 56.5462 -1.2 1 0.0323316 0.0171646 0.00634863 0.00677111 0.00151271 0.0063034 0.0016211 0.023533 0.0026935 0.00812712 0.0024566 0.0298646 0.00330856 0.0205717 0.00271906 0.0341217 0.00385266 0.0249968 0.00573539 0.0529191
40 3 O 1.28624 10.7248 52.7351 -1.2 1 0.112169 0.0369451 0.00256503 0.00799099 0.00261646 0.00951922 0.00324669 0.0241692 0.00336311 0.0120104 0.0041725 0.0291006 0.00457919 0.0224608 0.00505936 0.0330398 0.00401851 0.0264252 0.00800269 0.044615
41 3 O -0.0773833 10.4296 55.7818 -1.2 1 0.0492225 0.0228675 0.00593867 0.00670319 0.00180449 0.00626858 0.00219992 0.0238767 0.00164208 0.00974144 0.0026637 0.0294393 0.00310756 0.0217259 0.00385443 0.0346286 0.00301444 0.0255623 0.00635377 0.0515728
42 3 O 2.47863 10.4132 55.7949 -1.2 1 0.0437972 0.0216298 0.00656924 0.00675656 0.00173919 0.00597149 0.00208592 0.023884 0.00186667 0.00931098 0.00283448 0.0295524 0.00323869 0.0218587 0.00367498 0.0349163 0.00255091 0.0256906 0.00617754 0.0519164
43 1 Mg -0.262694 9.34741 52.2523 1.2 1 0.114665 0.0397289 0.00327185 0.00830653 0.0031048 0.00785652 0.0026274 0.0240806 0.00352527 0.0120658 0.00369957 0.0290033 0.00410372 0.0217684 0.00507992 0.0327128 0.00437277 0.0260813 0.0083753 0.042555
44 1 Mg 1.87648 9.01537 49.4629 1.2 1 0.185426 0.0521096 0.00560647 0.0114816 0.00313958 0.0106277 0.00627793 0.0237814 0.00567397 0.0161405 0.00527804 0.0274255 0.00485537 0.0237283 0.00605468 0.0316876 0.00567565 0.0277846 0.0104116 0.0366997
45 2 Si 1.21415 11.3799 51.2378 2.4 1 0.149378 0.0460845 0.00203518 0.0106121 0.0032668 0.0107661 0.00404912 0.0244919 0.00456652 0.0145774 0.00505423 0.0280356 0.00454171 0.0244254 0.00592119 0.0333546 0.00486473 0.0282363 0.00988312 0.0422292
46 3 O 1.31634 12.9512 51.3023 -1.2 1 0.147894 0.0438963 0.00266513 0.0102309 0.00276165 0.0112589 0.0035006 0.0248944 0.00480962 0.0145505 0.0035409 0.0294022 0.00453271 0.0249291 0.00429494 0.0341726 0.00574193 0.0285195 0.0085267 0.0432383
47 3 O 1.17858 10.4178 57.955 -1.2 1 0.0183699 0.0102725 0.0042441 0.00724945 0.00161069 0.0064998 0.00139725 0.0244228 0.00171138 0.00824955 0.0025439 0.0306879 0.00238692 0.0216154 0.00275541 0.0344263 0.0023841 0.025122 0.00388452 0.0553952
48 3 O -0.115718 10.7564 50.681 -1.2 1 0.15585 0.0454547 0.00344255 0.0107917 0.00383962 0.0104172 0.00410461 0.0244513 0.00442641 0.0141887 0.00391928 0.0284463 0.00475051 0.0236218 0.00613953 0.0323876 0.00530841 0.0273302 0.0097901 0.0409995
49 1 Mg -3.26386 9.35564 52.3622 1.2 1 0.123743 0.03937 0.00193683 0.00804477 0.00243538 0.00928181 0.00363391 0.0235954 0.00389063 0.0125118 0.0041767 0.028526 0.00382163 0.0220406 0.00505599 0.0327695 0.0044654 0.0257935 0.00865377 0.0416052
50 3 O 2.45216 10.7265 50.4558 -1.2 1 0.16437 0.0483249 0.00373709 0.0102471 0.00284504 0.0112574 0.00485299 0.0239257 0.00510478 0.0157404 0.0046218 0.0281098 0.00416271 0.024561 0.00606917 0.033004 0.00571773 0.027861 0.00960134 0.0400444
51 1 Mg -1.79116 9.46631 55.1542 1.2 1 0.0558593 0.0259407 0.00614551 0.00685509 0.00208437 0.00637158 0.00211944 0.0236384 0.00282718 0.00954829 0.00333513 0.0295055 0.00301515 0.0216771 0.00351209 0.034005 0.0043267 0.0252124 0.00714451 0.0498136
52 2 Si -1.79708 7.36216 53.3707 2.4 1 0.0962195 0.0353503 0.0041611 0.00728826 0.00312952 0.00660931 0.00231758 0.022849 0.00375864 0.0113526 0.00345434 0.0278917 0.00350788 0.0212603 0.00346442 0.0325085 0.00482863 0.0242479 0.00729033 0.0444854
53 3 O -1.87573 5.8218 53.3365 -1.2 1 0.0963377 0.0330105 0.0032955 0.00646011 0.00260416 0.00654008 0.00207189 0.0221563 0.00350129 0.0102305 0.00333364 0.027495 0.00325788 0.0199589 0.0039708 0.0321365 0.00392872 0.0237676 0.00769195 0.0436995
54 3 O -1.19417 8.46968 46.4488 -1.2 1 0.269957 0.0528817 0.0202328 0.0177651 0.0055451 0.014565 0.0088496 0.0248233 0.00819886 0.0176358 0.00761735 0.0258281 0.00630137 0.0216393 0.00897006 0.0301765 0.0103509 0.0294681 0.0121852 0.0316189
55 3 O -3.08872 8.07574 54.0283 -1.2 1 0.0829344 0.0301701 0.0038812 0.00635633 0.00243315 0.00745193 0.0023105 0.0232181 0.00294079 0.0109372 0.00281116 0.0280135 0.0032562 0.0213522 0.00360176 0.0332022 0.00454291 0.0245272 0.00766273 0.0462046
56 3 O -0.521559 8.07031 54.0086 -1.2 1 0.0779599 0.030872 0.00543323 0.00637353 0.00284482 0.00595648 0.00129551 0.0233292 0.00261536 0.0105214 0.00285932 0.0281597 0.00324306 0.021299 0.00380558 0.0333321 0.0041701 0.0251988 0.00742534 0.0467046
57 1 Mg -3.16628 16.5233 57.3911 1.2 1 0.0226474 0.0127036 0.00524243 0.00733718 0.00161079 0.00574617 0.00157065 0.024769 0.00196968 0.00925665 0.00180017 0.0315833 0.00223989 0.0218137 0.00235676 0.0345781 0.00258736 0.0251286 0.00396847 0.0548141
58 1 Mg -1.6714 16.3544 49.8412 1.2 1 0.181714 0.048343 0.00650016 0.0134511 0.00361479 0.0146945 0.00375865 0.0266868 0.00515789 0.0177087 0.00478939 0.0317513 0.00414144 0.0269534 0.00671645 0.0354183 0.00606549 0.0307278 0.0097529 0.0420842
59 2 Si -1.18567 13.8526 47.9314 2.4 1 0.23323 0.0537412 0.0145443 0.0171059 0.00474688 0.0177513 0.0053669 0.0273122 0.00886227 0.0197566 0.00620122 0.03091 0.00571645 0.0287085 0.00652077 0.0348958 0.0100466 0.032415 0.0114334 0.0386057
60 3 O -1.09664 15.4205 47.9915 -1.2 1 0.231577 0.0529498 0.0142068 0.0175757 0.00510085 0.0190132 0.00496675 0.0277316 0.00818466 0.0199382 0.00641771 0.0313429 0.00576055 0.0281818 0.00803064 0.035885 0.00900093 0.033323 0.0110315 0.0394382
61 3 O -1.73493 12.7491 51.7772 -1.2 1 0.135622 0.0410275 0.00237756 0.010186 0.00336793 0.00987601 0.00181632 0.0249171 0.00396738 0.013746 0.00322155 0.0298624 0.00462941 0.0240567 0.00493657 0.0337699 0.00539282 0.0272954 0.00846037 0.0441893
62 3 O -2.36115 13.2717 48.8238 -1.2 1 0.207628 0.0532552 0.00960754 0.0145821 0.00473307 0.0141745 0.00517968 0.0267814 0.00671822 0.0193073 0.0052362 0.0304125 0.00463411 0.0272567 0.00599011 0.035007 0.00805517 0.0313406 0.0103177 0.0387436
63 1 Mg -0.159928 11.7639 46.8533 1.2 1 0.259534 0.0534458 0.0184073 0.0187857 0.00618979 0.0197353 0.0074552 0.0281999 0.00960229 0.0196174 0.00795935 0.0302938 0.0067552 0.0273771 0.0082018 0.0335609 0.0109314 0.0330845 0.0134863 0.0359115
64 3 O 0.2623 13.1866 48.413 -1.2 1 0.215387 0.0528415 0.0107671 0.0155003 0.00432441 0.015906 0.00476991 0.0268325 0.00718628 0.0186388 0.00492854 0.0297154 0.0051853 0.0283742 0.00554248 0.0341258 0.00818014 0.0324881 0.0107779 0.0391433
65 1 Mg 1.28046 11.8183 54.565 1.2 1 0.073134 0.0300376 0.00460058 0.00664815 0.00206634 0.00701094 0.00270797 0.0238248 0.00249183 0.0109799 0.00266664 0.0299194 0.00421653 0.0231768 0.00353966 0.0345201 0.0036472 0.0255608 0.0063448 0.0485945
66 2 Si 1.29165 14.4719 56.4244 2.4 1 0.0338412 0.0177434 0.00621436 0.007373 0.00180631 0.00582101 0.002095 0.0240464 0.00205159 0.00901978 0.00356972 0.0298668 0.00276273 0.0221983 0.00486458 0.0347636 0.0032538 0.0251948 0.00612343 0.0553997
67 3 O 1.2517 12.9121 56.5187 -1.2 1 0.0317465 0.0166917 0.00618118 0.00738513 0.00156189 0.00579913 0.00188884 0.024361 0.00319974 0.00841046 0.00213332 0.0305673 0.00327344 0.0215861 0.00280209 0.0345694 0.00383105 0.0254903 0.00515269 0.0547001
68 3 O 1.36565 15.4813 52.729 -1.2 1 0.111749 0.0367954 0.00140954 0.0088479 0.00229409 0.0104771 0.00361713 0.0252996 0.0031168 0.0131913 0.00375579 0.030585 0.00421464 0.0237724 0.00461775 0.0343109 0.00396466 0.0277836 0.00736408 0.0469227
69 3 O 0.00196449 15.1393 55.7669 -1.2 1 0.0484374 0.0226618 0.00565401 0.00730318 0.0017067 0.00627525 0.00253316 0.0245536 0.00190823 0.0100216 0.00273578 0.0299108 0.00273076 0.0224606 0.0038863 0.035195 0.00310359 0.0262439 0.00582371 0.053312
70 3 O 2.54818 15.1607 55.7481 -1.2 1 0.0442777 0.0219679 0.00638028 0.00738695 0.00169602 0.00589399 0.00235111 0.0246777 0.00205599 0.00971196 0.00242493 0.030111 0.00279684 0.0226152 0.00337813 0.0352795 0.00274924 0.026147 0.00570179 0.0533473
71 1 Mg -0.206989 14.1049 52.2121 1.2 1 0.118005 0.0408565 0.00205965 0.00932728 0.00286108 0.00900817 0.0026533 0.025368 0.00353568 0.0134914 0.00359474 0.0305819 0.00394408 0.0243527 0.00443264 0.0342286 0.00397152 0.0278637 0.00768349 0.0447972
72 1 Mg 1.82591 13.8102 49.4556 1.2 1 0.186617 0.0527456 0.00560979 0.0126732 0.00318695 0.0134284 0.00504653 0.025431 0.00564273 0.0178779 0.00520693 0.0299074 0.00487294 0.0271251 0.00600546 0.0353105 0.00671248 0.0309073 0.0101688 0.0396684
73 2 Si 1.29285 16.1518 51.2434 2.4 1 0.148055 0.0462795 0.00174725 0.0113545 0.00277304 0.0120793 0.00405185 0.0259382 0.00440596 0.0159667 0.0050792 0.0295846 0.00422929 0.0264164 0.00591868 0.0348501 0.00417963 0.0304382 0.00946868 0.044643
74 3 O 1.39496 17.7199 51.3047 -1.2 1 0.144479 0.043225 0.00201442 0.0106235 0.00208879 0.0119619 0.00332026 0.0260452 0.00405209 0.0154764 0.00331976 0.0305926 0.00405187 0.0257162 0.0038876 0.0350948 0.00524691 0.0295678 0.00813421 0.0451178
75 3 O 1.32773 15.157 57.9048 -1.2 1 0.0179919 0.00990501 0.00428727 0.00755446 0.00165561 0.00598737 0.0014937 0.0248161 0.00159095 0.00825291 0.00267999 0.0307951 0.0023272 0.0216241 0.00286515 0.0346916 0.00267018 0.0251677 0.00382999 0.0559008
76 3 O -0.0269106 15.5178 50.6688 -1.2 1 0.156996 0.045977 0.00361801 0.0117729 0.00367778 0.012341 0.00396548 0.02592 0.00419568 0.0157144 0.00328878 0.0301663 0.00437795 0.0264728 0.0058676 0.0344349 0.00443402 0.0299118 0.00898806 0.0434728
77 1 Mg -3.18391 14.1057 52.3125 1.2 1 0.125137 0.0407971 0.00124782 0.00933523 0.00219738 0.0105365 0.00294348 0.0250295 0.00369102 0.014207 0.00320384 0.0303338 0.0039775 0.0248486 0.0045087 0.034087 0.00412754 0.0276466 0.00757148 0.0443471
78 3 O 2.52432 15.503 50.4579 -1.2 1 0.161713 0.0484983 0.00380261 0.0112854 0.0027081 0.0129731 0.0042731 0.0260825 0.00467153 0.0176953 0.00385108 0.0301173 0.00425131 0.0272746 0.00593332 0.0348702 0.00508949 0.0300289 0.00897116 0.0428243
79 1 Mg -1.70202 14.1816 55.1205 1.2 1 0.0539114 0.0256869 0.00611927 0.00758559 0.00187448 0.00608968 0.00211068 0.0246059 0.00304482 0.0101651 0.00328087 0.030485 0.00266757 0.0228289 0.00370178 0.0350218 0.00406367 0.0260281 0.00642793 0.0520059
80 2 Si -1.70589 12.0804 53.2608 2.4 1 0.0992686 0.0362077 0.0037429 0.00834114 0.00287221 0.0076887 0.00159912 0.0244348 0.0037358 0.0122474 0.00295467 0.0292159 0.00413027 0.0237736 0.00328631 0.0339369 0.00490042 0.0263202 0.00726466 0.0472054
81 3 O -1.76078 10.531 53.2211 -1.2 1 0.0970329 0.0341481 0.00366562 0.00732669 0.00293119 0.00762839 0.00169506 0.0233493 0.00334384 0.0107989 0.00335846 0.0288416 0.00359926 0.0218744 0.00407838 0.0336961 0.00459722 0.0252067 0.0082558 0.0463157
82 3 O -1.21337 13.3381 46.4311 -1.2 1 0.270669 0.0530511 0.0207142 0.0204805 0.00682257 0.0206512 0.00730541 0.0301766 0.00969976 0.0208483 0.00712123 0.0314097 0.00617585 0.0270778 0.00868725 0.0358903 0.0126106 0.0351674 0.0133092 0.0361049
83 3 O -2.97389 12.7614 53.9561 -1.2 1 0.0854913 0.0320061 0.00347283 0.00686538 0.00227967 0.00813946 0.00186598 0.0243238 0.00286927 0.0116875 0.00252867 0.0294421 0.00362727 0.0233324 0.00357184 0.034542 0.00375724 0.0261821 0.00682766 0.0483533
84 3 O -0.425752 12.7682 53.8912 -1.2 1 0.0825576 0.0319118 0.00399898 0.00715657 0.00295711 0.00620068 0.00136392 0.0246964 0.00272565 0.011335 0.00238409 0.0295247 0.00359797 0.0236427 0.00367721 0.0345996 0.00397796 0.0263895 0.00662437 0.0484698
85 1 Mg -3.05234 21.2508 57.4055 1.2 1 0.0224843 0.0126588 0.00512031 0.00705314 0.00157174 0.00550757 0.00154638 0.0248566 0.00200484 0.00942935 0.00175542 0.0313125 0.00213886 0.0217322 0.00230814 0.0348208 0.00266062 0.0252585 0.00371318 0.0550386
86 1 Mg -1.5831 21.1217 49.8405 1.2 1 0.181605 0.048683 0.00664022 0.0137915 0.00330263 0.0152019 0.00372895 0.0272329 0.00475522 0.0179681 0.0048093 0.0317138 0.0040479 0.0269678 0.00646571 0.0358956 0.00573504 0.0311545 0.00982532 0.0424457
87 2 Si -1.09384 18.6291 47.9287 2.4 1 0.229965 0.0537061 0.0137213 0.0176899 0.00399165 0.0197543 0.0044599 0.0285999 0.00789875 0.0203688 0.00553027 0.0322073 0.00583577 0.0292534 0.00612741 0.0364239 0.00933462 0.033729 0.0108488 0.0412768
88 3 O -1.02071 20.1985 47.9911 -1.2 1 0.230689 0.0532994 0.0138805 0.0180446 0.0043471 0.0202709 0.0046488 0.0285592 0.00752585 0.0204815 0.00606188 0.0320915 0.0060092 0.0285138 0.0078172 0.0368058 0.00845207 0.0340108 0.0108712 0.0411594
89 3 O -1.65002 17.5002 51.771 -1.2 1 0.135651 0.0411986 0.00190829 0.010851 0.00290021 0.0109686 0.00199853 0.0257822 0.00325223 0.014565 0.00292321 0.0305281 0.00445446 0.0248285 0.00455963 0.0348057 0.00519856 0.0283167 0.00808654 0.0453743
90 3 O -2.26174 18.0434 48.8281 -1.2 1 0.205751 0.0535196 0.00902621 0.0154634 0.00365438 0.0167323 0.00458676 0.0281887 0.00615748 0.0201287 0.00454809 0.0318748 0.00455702 0.028473 0.00615333 0.036378 0.00732334 0.0330889 0.00985955 0.0410988
91 1 Mg -0.0440435 16.5651 46.8269 1.2 1 0.258506 0.0548256 0.0181006 0.0204208 0.00549396 0.0240528 0.00571207 0.0314256 0.00975379 0.022334 0.00675984 0.0336325 0.00710946 0.0297779 0.00867974 0.036207 0.0101328 0.0363057 0.0125627 0.0400907
92 3 O 0.37001 17.9877 48.3925 -1.2 1 0.215232 0.053613 0.0103485 0.0164794 0.00385011 0.0177983 0.00383988 0.0287704 0.00669806 0.0200115 0.00422132 0.0315901 0.00523053 0.0294791 0.00559491 0.0356442 0.00792725 0.0346841 0.0102838 0.0417969
93 1 Mg 1.36161 16.545 54.5521 1.2 1 0.0740344 0.0300271 0.00421169 0.00736232 0.00184009 0.00714083 0.00311851 0.024458 0.00237883 0.0116705 0.00247601 0.0304666 0.00398767 0.0239381 0.00367051 0.0352723 0.00364672 0.0261274 0.00583795 0.049947
94 2 Si 1.37498 19.2044 56.3861 2.4 1 0.0349762 0.0183482 0.00606464 0.00723082 0.00154726 0.00554037 0.00213359 0.0244958 0.00194766 0.00928183 0.00346301 0.0294433 0.00264564 0.0223813 0.00436065 0.0351228 0.00321374 0.0254483 0.00579141 0.0553917
95 3 O 1.33172 17.6599 56.4707 -1.2 1 0.0319809 0.0168139 0.00625301 0.00741783 0.00159011 0.00540621 0.00195202 0.0248458 0.00315641 0.00859638 0.00209506 0.0303951 0.00305968 0.0215316 0.00263975 0.0349521 0.00417498 0.0256227 0.00513921 0.0550698
96 3 O 1.45147 20.239 52.7294 -1.2 1 0.111388 0.036789 0.00176933 0.00898687 0.00189489 0.010693 0.00367941 0.0256609 0.00283353 0.0135646 0.00385097 0.0305185 0.00416576 0.0239289 0.00480663 0.0345897 0.0038817 0.0279574 0.00735178 0.0474454
97 3 O 0.0933618 19.8916 55.729 -1.2 1 0.0497019 0.0229621 0.00541291 0.00702617 0.00159911 0.0060473 0.00257872 0.0249286 0.00190746 0.0103073 0.00262066 0.0296225 0.00287905 0.0228238 0.00412317 0.0352833 0.00323381 0.0262096 0.00539791 0.0532379
98 3 O 2.65467 19.8765 55.7295 -1.2 1 0.0436741 0.021926 0.00639772 0.00722448 0.00171224 0.00563293 0.00262415 0.0248285 0.00189254 0.00982123 0.00268033 0.0296471 0.00284118 0.02262 0.0040043 0.0355491 0.0028599 0.0261647 0.00587057 0.0536429
99 1 Mg -0.126194 18.8651 52.2079 1.2 1 0.116431 0.0406733 0.00229462 0.00975304 0.00232719 0.0091506 0.00269649 0.0257368 0.00279032 0.0142255 0.00324714 0.0307619 0.00394829 0.024729 0.00433338 0.034945 0.00381043 0.0285117 0.00775474 0.0460005
100 1 Mg 1.92402 18.5815 49.4545 1.2 1 0.183788 0.0528268 0.00502136 0.0130155 0.00227663 0.0145078 0.00469143 0.0269806 0.00501832 0.0190609 0.00414941 0.0311936 0.00481281 0.0278974 0.00493104 0.0363764 0.00650563 0.0323706 0.00969787 0.0421551
101 2 Si 1.38106 20.9117 51.2443 2.4 1 0.147759 0.0465505 0.00181938 0.011575 0.00238237 0.0124518 0.0041492 0.0262413 0.00397581 0.0163054 0.00502829 0.0296146 0.00418456 0.02625 0.00607433 0.0351192 0.0038823 0.030591 0.00960511 0.0452549
102 3 O 1.48527 22.4795 51.3054 -1.2 1 0.142121 0.0427023 0.00205774 0.0105701 0.00205283 0.0121548 0.00330639 0.0259477 0.00383932 0.015359 0.00337827 0.0305711 0.00398048 0.0251154 0.00422801 0.0351031 0.00488203 0.0295288 0.00810338 0.0453626
103 3 O 1.37722 19.8912 57.8866 -1.2 1 0.0175825 0.00994849 0.00406977 0.00755826 0.00154733 0.00546418 0.0013901 0.0251532 0.00171902 0.00845898 0.00232769 0.0307253 0.00209788 0.0216551 0.00289912 0.0348771 0.00278725 0.0252272 0.00392487 0.056197
104 3 O 0.0615419 20.2804 50.6669 -1.2 1 0.155901 0.0459915 0.00356176 0.0120582 0.0034809 0.0128671 0.00410527 0.0263379 0.00373632 0.0161121 0.00321106 0.0302878 0.00437271 0.0265531 0.00539295 0.0351261 0.00425801 0.0303753 0.00889696 0.0445079
105 1 Mg -3.09665 18.8643 52.3122 1.2 1 0.124229 0.0404592 0.0011976 0.00959437 0.00169884 0.0109196 0.00299655 0.0256348 0.00286726 0.0148694 0.00299656 0.0305735 0.00382921 0.0252667 0.00389817 0.0346802 0.00413964 0.0282895 0.00742935 0.0453792
106 3 O 2.61548 20.2646 50.4626 -1.2 1 0.160557 0.0484786 0.00343448 0.0114193 0.00198363 0.0134365 0.00412898 0.0267016 0.00394449 0.0178521 0.00364672 0.0302041 0.00429364 0.0271447 0.00537311 0.0354325 0.00471257 0.0304702 0.00877221 0.0438226
107 1 Mg -1.59209 18.9146 55.0964 1.2 1 0.0565729 0.0263278 0.00590592 0.00771776 0.00206078 0.00593428 0.00220308 0.0250264 0.00276056 0.0105265 0.00340442 0.0300886 0.00250391 0.02294 0.00406414 0.0349131 0.00424728 0.0262733 0.00645279 0.0520549
108 2 Si -1.6202 16.8177 53.2487 2.4 1 0.0984587 0.0360654 0.00322885 0.0089897 0.00238452 0.00766099 0.00152724 0.0249148 0.00321171 0.0128228 0.00280247 0.0297301 0.00364283 0.0245734 0.00322862 0.0348789 0.00464953 0.0272702 0.00686051 0.0487385
109 3 O -1.68317 15.2655 53.1907 -1.2 1 0.0977401 0.0348991 0.00307951 0.00835589 0.00247519 0.00805374 0.00177641 0.0244875 0.00335663 0.0119876 0.00305849 0.0300417 0.00343563 0.0235369 0.00450248 0.0347947 0.00391914 0.0267626 0.00780669 0.0484393
110 3 O -1.12868 18.1227 46.4249 -1.2 1 0.268154 0.0545997 0.0197596 0.0215246 0.00579181 0.0238438 0.00613366 0.0322953 0.00852145 0.0220413 0.00594038 0.0339192 0.00688238 0.0278462 0.00873166 0.0380198 0.0117884 0.03722 0.0125348 0.0399752
111 3 O -2.88783 17.5015 53.9375 -1.2 1 0.0841876 0.0317154 0.00337965 0.00743906 0.00183319 0.00802044 0.00197512 0.0250191 0.00229106 0.0121114 0.0023126 0.0295491 0.00315502 0.0241667 0.00304185 0.0350277 0.00374529 0.0267226 0.00639841 0.0494046
112 3 O -0.328703 17.4991 53.889 -1.2 1 0.0811367 0.0316077 0.0040594 0.00761477 0.00274227 0.00618562 0.00114586 0.0251125 0.00235753 0.0115606 0.00220746 0.0294221 0.00333425 0.0241181 0.00351784 0.0353486 0.00378102 0.0270958 0.00674637 0.049435
113 1 Mg -2.94133 25.9956 57.3535 1.2 1 0.0224318 0.0128071 0.00524586 0.00690842 0.00176721 0.00573901 0.00154782 0.0248297 0.00195408 0.00944054 0.00163513 0.0313467 0.00209453 0.0215438 0.00223797 0.0346232 0.00281023 0.0252354 0.00367883 0.0554046
114 1 Mg -1.48778 25.88 49.8402 1.2 1 0.181396 0.0491417 0.00666141 0.0137729 0.00319312 0.0154062 0.00368208 0.0273732 0.00459989 0.0179626 0.00482175 0.0319005 0.00396978 0.0268062 0.00631315 0.0357357 0.00569906 0.0312161 0.009919 0.0425396
115 2 Si -1.00491 23.3922 47.9274 2.4 1 0.232675 0.0540829 0.014151 0.0185036 0.00422729 0.0207992 0.004686 0.0289162 0.0077435 0.02056 0.00543272 0.0324373 0.00600086 0.0289476 0.00656387 0.0363951 0.00900791 0.0339041 0.0113437 0.0412824
116 3 O -0.927602 24.9615 47.9909 -1.2 1 0.230459 0.0535476 0.0140579 0.0181103 0.00414552 0.0206878 0.0045127 0.0287159 0.00750824 0.0204954 0.00594857 0.032212 0.00594293 0.0283467 0.00771678 0.0366367 0.00847584 0.0340857 0.0109962 0.0411558
117 3 O -1.55795 22.2588 51.7696 -1.2 1 0.134806 0.0411857 0.00199509 0.0109259 0.00290247 0.0112901 0.00218575 0.0259464 0.00299412 0.0146745 0.00297058 0.0304787 0.00441701 0.0246271 0.00435003 0.0349124 0.00502342 0.0284746 0.00803442 0.0457689
118 3 O -2.17411 22.8111 48.8277 -1.2 1 0.20387 0.0534624 0.00908492 0.015674 0.00333881 0.0170639 0.00447113 0.0286848 0.00557232 0.0202082 0.00435613 0.031937 0.00462813 0.0280793 0.00583663 0.0364316 0.00695051 0.0331662 0.00985571 0.0414622
119 1 Mg 0.0423997 21.3296 46.8225 1.2 1 0.258107 0.0550707 0.0180601 0.0210645 0.00545618 0.0249103 0.00606891 0.0320354 0.00895173 0.0225788 0.00647874 0.0339211 0.00724483 0.0295577 0.00889328 0.0367346 0.0096201 0.0367069 0.0125718 0.0406958
120 3 O 0.458537 22.7495 48.3911 -1.2 1 0.213424 0.0535571 0.0102865 0.0166793 0.00377737 0.0180497 0.00372955 0.0285933 0.0061828 0.0200596 0.00392039 0.0315732 0.00540511 0.0292345 0.00586096 0.0358559 0.00746144 0.0346279 0.0104578 0.0422126