ITEM: TIMESTEP
100
ITEM: NUMBER OF ATOMS
10500
ITEM: BOX BOUNDS xy xz yz pp pp pp
0	8.9688	2.9896
0	118.725	0
0	252.977	0
ITEM: ATOMS id type element xu yu zu q Q_1 Q_2 Q_3 Q_4 Q_5 Q_6 Q_7 Q_8 Q_9 Q_10 Q_11 Q_12 Q_13 Q_14 Q_15 Q_16 Q_17 Q_18 Q_19 Q_20 Q_21
1 1 Mg -3.36769 7.05685 57.459 1.2 1 0.0221461 0.013303 0.00503607 0.00616594 0.0014158 0.00616825 0.00112982 0.0232964 0.00115949 0.00961221 0.001775 0.030059 0.00251155 0.0203556 0.00201704 0.0329879 0.00251982 0.0249692 0.00447457 0.0513208
2 1 Mg -1.81765 6.83251 50.0267 1.2 1 0.173398 0.047318 0.00601027 0.010196 0.00320287 0.00836672 0.00453123 0.0230298 0.00441349 0.0140347 0.00499629 0.0257638 0.00460855 0.0202572 0.0065002 0.0289977 0.00566221 0.0253529 0.00907113 0.035256
3 2 Si -0.301437 3.93004 48.0842 2.4 1 0.222888 0.052689 0.0110933 0.0120543 0.00236881 0.00919042 0.00389275 0.0201779 0.00536959 0.0167095 0.00468956 0.024252 0.00538252 0.0205699 0.00552473 0.0263575 0.00658452 0.024169 0.00919644 0.0326035
4 3 O -0.288432 5.4488 47.6242 -1.2 1 0.233334 0.0523495 0.0138272 0.0135903 0.00311707 0.010553 0.00496879 0.0212584 0.00618829 0.017065 0.00495491 0.0245161 0.004803 0.0209831 0.00562522 0.0262376 0.00716881 0.0250196 0.00949924 0.0309076
5 3 O -2.01219 3.45817 51.9216 -1.2 1 0.128889 0.0400332 0.00243826 0.00693666 0.0020851 0.00691498 0.00276157 0.0207237 0.00235921 0.0113891 0.00327487 0.0258989 0.00375062 0.0178271 0.00417764 0.0293094 0.00520277 0.0233954 0.00844408 0.0387871
6 3 O -1.55424 3.59072 48.9595 -1.2 1 0.202999 0.0515053 0.00901291 0.010902 0.002324 0.00816124 0.00373051 0.0203397 0.00465917 0.0151798 0.00492489 0.024266 0.00449517 0.0199434 0.00576887 0.0270872 0.00544937 0.0236449 0.00907421 0.032406
7 1 Mg 1.88583 2.53999 47.1873 1.2 1 0.245588 0.0529269 0.0162063 0.0153437 0.00286928 0.0106215 0.0038419 0.0202491 0.00532732 0.0155947 0.00485188 0.0243011 0.00621614 0.0197106 0.00754931 0.0251235 0.00648535 0.0227374 0.00912757 0.0303627
8 3 O 1.27075 3.68218 48.7385 -1.2 1 0.206153 0.0503304 0.00969033 0.0120461 0.00227103 0.00903447 0.00428831 0.0204916 0.00387143 0.0146601 0.00420749 0.0237552 0.00516365 0.0194388 0.00579522 0.0262877 0.00451978 0.023283 0.00933137 0.0332094
9 1 Mg 1.03866 2.33097 54.493 1.2 1 0.0727859 0.0284815 0.00492444 0.00545916 0.00188989 0.00555307 0.00291331 0.0217699 0.00218939 0.00997274 0.00349009 0.0275828 0.00391071 0.0195412 0.00448452 0.0316478 0.00301532 0.0241012 0.00689784 0.0449299
10 2 Si 1.04274 4.96137 56.5515 2.4 1 0.0322757 0.0176193 0.0060011 0.00627287 0.00149471 0.0063986 0.00235472 0.0227809 0.0016774 0.00888849 0.00341354 0.0280147 0.002529 0.0201955 0.00435236 0.0325257 0.00315544 0.0248691 0.00613633 0.0512577
11 3 O 0.999992 3.37977 56.5109 -1.2 1 0.0359048 0.0182504 0.00620404 0.00588583 0.000912404 0.00555424 0.00216452 0.0222696 0.00282939 0.00868121 0.0027591 0.0286563 0.00300394 0.0192676 0.0030149 0.032844 0.00398832 0.0251766 0.00546971 0.0498931
12 3 O 1.08176 6.1251 52.7855 -1.2 1 0.106013 0.035569 0.00288643 0.006677 0.00211099 0.00691834 0.00372293 0.0226502 0.00307037 0.0111325 0.00343025 0.0268223 0.004132 0.0188295 0.00437869 0.0302383 0.00403892 0.0246759 0.00727129 0.0408865
13 3 O -0.192392 5.66136 55.8428 -1.2 1 0.0451304 0.0222726 0.00624815 0.00575955 0.00149972 0.00521522 0.00276212 0.0225372 0.0020044 0.00969951 0.00264171 0.0282801 0.0028179 0.0194174 0.00433185 0.0328248 0.00303109 0.0248994 0.00612638 0.0487148
14 3 O 2.33132 5.70076 55.7839 -1.2 1 0.0421169 0.0215411 0.0064742 0.00564032 0.00123572 0.00579087 0.00243286 0.0227362 0.00133368 0.00943184 0.00293958 0.0283229 0.00289175 0.019738 0.00406531 0.0333824 0.0028807 0.0252929 0.00618632 0.0487989
15 1 Mg -0.488866 4.70569 52.2286 1.2 1 0.125882 0.0396284 0.00200523 0.00672282 0.00252093 0.00674355 0.0027585 0.0216264 0.00303855 0.0121771 0.00319948 0.0266898 0.00404263 0.0189911 0.00424145 0.0294299 0.00408048 0.0236418 0.00779827 0.0386134
16 1 Mg 2.79375 3.94671 50.0064 1.2 1 0.176147 0.0502581 0.00504322 0.00993057 0.00252934 0.00712208 0.00454638 0.0205961 0.00276686 0.0146235 0.00329237 0.0251135 0.0049831 0.0203436 0.00661217 0.0280941 0.00426118 0.0238306 0.0100025 0.0339425
17 2 Si 1.12431 6.62988 51.2326 2.4 1 0.147779 0.0454394 0.0026567 0.00887937 0.00291969 0.00812963 0.0044675 0.0222327 0.00421449 0.0131048 0.00458396 0.0250922 0.00427909 0.0202133 0.00625979 0.029878 0.00457539 0.0250008 0.00956328 0.0374083
18 3 O 1.30893 8.21475 51.2031 -1.2 1 0.149159 0.0449599 0.00297898 0.00911726 0.0027743 0.00874449 0.00437109 0.0226837 0.00428535 0.0129781 0.00396899 0.0266833 0.00437711 0.0208942 0.00482574 0.0303576 0.00552851 0.0259032 0.00867481 0.0390714
19 3 O 1.04595 5.66654 57.9524 -1.2 1 0.0166634 0.0101782 0.00383071 0.00636102 0.00109548 0.00658593 0.00131131 0.0234079 0.00132342 0.00854527 0.00264266 0.029269 0.00212861 0.0204608 0.00316356 0.0334125 0.00260275 0.0254561 0.0039948 0.0527233
20 3 O -0.144685 6.03858 50.69 -1.2 1 0.162389 0.0450671 0.00518248 0.0090978 0.00351858 0.00753754 0.00457745 0.0218992 0.00407533 0.0133673 0.0033682 0.025042 0.00432935 0.0197613 0.00581515 0.0284442 0.0048747 0.0244499 0.00916204 0.0364937
21 1 Mg -3.49194 4.6815 52.672 1.2 1 0.114203 0.0372809 0.00219385 0.00626946 0.00231285 0.00676884 0.00327554 0.0211356 0.00323057 0.0112699 0.00336691 0.0264018 0.00376894 0.0186997 0.00389878 0.0294967 0.00384648 0.0235627 0.00779245 0.0399719
22 3 O 2.54711 5.86389 50.7205 -1.2 1 0.156266 0.0462132 0.00372784 0.00850429 0.0023768 0.00841392 0.00441895 0.022273 0.00381375 0.0135918 0.00420428 0.0249702 0.00426995 0.0200101 0.00646578 0.0292886 0.00428814 0.0248709 0.00917228 0.0362382
23 1 Mg -1.93026 4.73488 55.2161 1.2 1 0.0511065 0.0245443 0.00694541 0.0057608 0.00150533 0.00556595 0.00219751 0.0224648 0.00302645 0.00985173 0.00310869 0.0284283 0.002493 0.0197847 0.00387535 0.0327679 0.00422443 0.0248447 0.00673609 0.0471917
24 2 Si -1.95157 2.60091 53.3035 2.4 1 0.101089 0.0348321 0.00346014 0.00619592 0.00243617 0.00614944 0.00195729 0.0212004 0.0024716 0.011027 0.00340356 0.0263358 0.00332578 0.0192687 0.00366547 0.0303257 0.00414341 0.0235722 0.00738244 0.0423854
25 3 O -1.98245 1.10627 53.2071 -1.2 1 0.098772 0.0338343 0.00323666 0.00616439 0.00321918 0.0059687 0.00203091 0.0212163 0.00238107 0.0102259 0.002924 0.0268311 0.00366226 0.0185629 0.00444587 0.0303613 0.00401224 0.0234036 0.00755557 0.0423421
26 3 O 0.000223347 2.91788 46.8517 -1.2 1 0.252556 0.0535144 0.0167306 0.014805 0.00297312 0.00968297 0.00439787 0.0199539 0.00608875 0.0166016 0.00604053 0.0240478 0.00710714 0.0194501 0.00817153 0.0248972 0.00674343 0.023022 0.0102413 0.0315924
27 3 O -3.25175 3.23783 54.0365 -1.2 1 0.0807353 0.0303291 0.00437301 0.00520288 0.00197191 0.0056605 0.00199607 0.0215614 0.00265548 0.0105872 0.00241293 0.0264889 0.00302053 0.0193262 0.00328253 0.0311422 0.00376489 0.0236572 0.00702298 0.0439904
28 3 O -0.671936 3.30915 54.0748 -1.2 1 0.0797725 0.0298732 0.00469349 0.00531611 0.00184846 0.00606068 0.0016977 0.0219704 0.00243234 0.0106606 0.00209251 0.0267014 0.00349653 0.0197101 0.00322482 0.0313833 0.00343492 0.0244651 0.00672568 0.0439496
29 1 Mg -3.22973 11.7401 57.4499 1.2 1 0.0230447 0.0135523 0.00519716 0.00620446 0.00132916 0.00594258 0.00139814 0.0240179 0.00168273 0.00970513 0.00170418 0.0303768 0.00257587 0.0207033 0.0027811 0.0336966 0.00270697 0.0256669 0.00411016 0.0525827
30 1 Mg -1.77023 11.5765 49.7906 1.2 1 0.184092 0.0484687 0.00783556 0.012414 0.00438157 0.0123639 0.00483127 0.0241531 0.00543431 0.0152947 0.00515716 0.0282951 0.00456017 0.0232606 0.00675932 0.0321064 0.00679922 0.0283318 0.00982613 0.0383514
31 2 Si -1.19606 8.97307 47.951 2.4 1 0.240073 0.051965 0.0156719 0.0155961 0.00482802 0.0130464 0.00723657 0.0231535 0.00763937 0.0160849 0.00652136 0.0253441 0.0045271 0.0220188 0.00698943 0.0290617 0.00875858 0.0273765 0.0115693 0.0334829
32 3 O -1.20991 10.6243 48.0265 -1.2 1 0.22854 0.0529522 0.0136964 0.0155662 0.00526878 0.0140784 0.0061205 0.0240009 0.00764965 0.0164466 0.00680024 0.0272874 0.00507938 0.0232373 0.00799666 0.031258 0.00907497 0.0291078 0.0110486 0.0351875
33 3 O -1.78153 8.05699 51.8962 -1.2 1 0.13268 0.0406226 0.00243527 0.00843528 0.00334496 0.00715513 0.00312864 0.0223206 0.00334227 0.0120961 0.00400022 0.027002 0.0041695 0.0195734 0.00473432 0.0309989 0.0054059 0.0249939 0.0087784 0.0399996
34 3 O -2.23072 8.32448 48.9105 -1.2 1 0.204645 0.0525035 0.00928166 0.012507 0.00408914 0.0101772 0.00602582 0.0231772 0.00604732 0.0162822 0.00511232 0.0259517 0.00419172 0.0219842 0.00596011 0.0300122 0.0069121 0.0270021 0.00959315 0.034153
35 1 Mg 0.182828 7.15259 46.7877 1.2 1 0.255995 0.0531672 0.0175628 0.015977 0.00582429 0.0130052 0.00843483 0.0235793 0.00763947 0.0167917 0.00716689 0.0242653 0.00668829 0.0215024 0.00816884 0.0275084 0.00928546 0.0272806 0.0119197 0.0310727
36 3 O 0.37567 8.5327 48.3478 -1.2 1 0.217809 0.0535539 0.0110373 0.0141001 0.00435347 0.0118153 0.00634935 0.024042 0.00645905 0.0161128 0.00607887 0.0253688 0.00506666 0.0230431 0.00617031 0.029223 0.00707142 0.0277933 0.0107761 0.034121
37 1 Mg 1.13461 7.13899 54.5893 1.2 1 0.0688418 0.0291841 0.00470634 0.0059419 0.00169548 0.00579531 0.00278991 0.0225052 0.00232272 0.0104117 0.00319077 0.027782 0.00366811 0.0200006 0.00367775 0.0321998 0.00327258 0.0243028 0.0069974 0.045405
38 2 Si 1.1872 9.75504 56.4429 2.4 1 0.0337572 0.0186483 0.00606282 0.00664841 0.00176585 0.0058619 0.00246549 0.0230367 0.00171475 0.00900668 0.00322113 0.0283489 0.0027012 0.0208262 0.00401706 0.0334079 0.00324012 0.0253628 0.00646643 0.0518233
39 3 O 1.18969 8.1768 56.6147 -1.2 1 0.0303221 0.0170478 0.00572049 0.00628001 0.0013335 0.00609502 0.0017002 0.0233731 0.00245611 0.00843086 0.00224982 0.0291787 0.00297196 0.0198493 0.00280263 0.0332173 0.00365555 0.0254153 0.00556229 0.0511595
40 3 O 1.36511 10.7269 52.6717 -1.2 1 0.112325 0.0377733 0.00194946 0.00767506 0.00248969 0.00926209 0.00319205 0.0233693 0.00327049 0.0119072 0.00371397 0.0277284 0.00443862 0.0212536 0.00429201 0.032325 0.00414972 0.0267032 0.00763171 0.0431071
41 3 O -0.0875229 10.4213 55.733 -1.2 1 0.0504812 0.0240894 0.00516228 0.00615604 0.00160251 0.00592663 0.00213891 0.0232405 0.00173952 0.00980178 0.00266118 0.0285071 0.00293214 0.0210575 0.00371857 0.0335187 0.0029675 0.025398 0.00591511 0.0496756
42 3 O 2.43798 10.3308 55.6893 -1.2 1 0.046043 0.0235223 0.00616819 0.00617109 0.0014694 0.0059159 0.00245595 0.0234712 0.00163269 0.0095394 0.0026784 0.0284355 0.00333815 0.0209554 0.00403605 0.0338937 0.00276277 0.0260728 0.0061906 0.0496886
43 1 Mg -0.254992 9.34665 52.2805 1.2 1 0.114086 0.0404428 0.00254163 0.007959 0.00297635 0.0074399 0.00285846 0.0235446 0.0033609 0.0117145 0.00360723 0.0278356 0.00391 0.0204297 0.00515839 0.0317307 0.00422906 0.0262762 0.00837282 0.0409063
44 1 Mg 1.86396 8.96721 49.4187 1.2 1 0.185613 0.052519 0.00607468 0.0111909 0.00322148 0.0103515 0.00638775 0.0231948 0.00535052 0.0153556 0.00531747 0.0264179 0.00461423 0.022414 0.00604852 0.0304611 0.00543338 0.027432 0.0102683 0.0358086
45 2 Si 1.23478 11.3423 51.2393 2.4 1 0.147133 0.046482 0.00229352 0.0101573 0.00316585 0.010168 0.00394104 0.0236109 0.00464369 0.0139858 0.00516471 0.026745 0.0043777 0.023198 0.00565887 0.0324918 0.00467413 0.0281321 0.00947813 0.0411671
46 3 O 1.39085 12.9836 51.2866 -1.2 1 0.146628 0.0440912 0.0028276 0.0102159 0.00250421 0.0114022 0.00341976 0.0241855 0.0046705 0.0140531 0.00347203 0.0287727 0.00439391 0.0237741 0.0041606 0.0330192 0.00529598 0.0285641 0.0083397 0.0420403
47 3 O 1.19912 10.4306 57.9077 -1.2 1 0.0180596 0.0108173 0.00407205 0.0064429 0.00157745 0.00621556 0.00148524 0.0240975 0.00148815 0.00862686 0.00269066 0.0297069 0.00230894 0.0208689 0.0029269 0.0335642 0.00265769 0.0253406 0.00402743 0.0536067
48 3 O -0.124343 10.7483 50.6536 -1.2 1 0.157261 0.0465917 0.00407243 0.0109182 0.00380655 0.010219 0.00448807 0.024058 0.00429722 0.0137817 0.00401141 0.0273553 0.00450768 0.0223976 0.00570534 0.0312171 0.00490078 0.0275112 0.00975987 0.0397903
49 1 Mg -3.24779 9.34091 52.3624 1.2 1 0.122343 0.0392174 0.00193025 0.00753962 0.00230028 0.00889868 0.00387795 0.0228847 0.0035595 0.0121153 0.00401964 0.0274466 0.00365446 0.0203884 0.004637 0.0317385 0.00431506 0.0258569 0.0084729 0.040171
50 3 O 2.41098 10.7244 50.4128 -1.2 1 0.162774 0.048188 0.00419698 0.00993143 0.00279495 0.0111406 0.00484268 0.0233852 0.00487165 0.0150329 0.00427881 0.0269034 0.00399011 0.023053 0.0062043 0.0318949 0.00507711 0.0276716 0.00940258 0.0391087
51 1 Mg -1.8016 9.47322 55.1069 1.2 1 0.0562185 0.0272416 0.00543802 0.00634223 0.0019481 0.00574948 0.00230983 0.0229096 0.00262149 0.00975353 0.00342872 0.0283144 0.00262412 0.020481 0.00374737 0.0330062 0.00403145 0.0254859 0.00709597 0.0476483
52 2 Si -1.77518 7.3903 53.3358 2.4 1 0.098659 0.0354537 0.00320273 0.00686259 0.00299024 0.00637818 0.00270445 0.0222317 0.00358064 0.0114006 0.00352504 0.026868 0.00344312 0.02024 0.00344578 0.0313723 0.00492893 0.0243736 0.00721672 0.0429071
53 3 O -1.90054 5.84355 53.3396 -1.2 1 0.0968283 0.0331133 0.00301719 0.00590074 0.00236061 0.00629143 0.0023015 0.0215448 0.00310368 0.0105112 0.00331039 0.0268002 0.00287926 0.0187262 0.00395 0.0313968 0.0036924 0.0239688 0.00759247 0.042366
54 3 O -1.22565 8.52502 46.4559 -1.2 1 0.270214 0.0533123 0.0206047 0.017977 0.00579459 0.0144779 0.00889048 0.0245106 0.00781648 0.016694 0.00759597 0.0249182 0.00611638 0.0209843 0.00905419 0.028765 0.0099495 0.0289806 0.0117073 0.0309673
55 3 O -3.05894 8.02821 54.028 -1.2 1 0.0828287 0.0307088 0.00341873 0.00572913 0.00198786 0.00666946 0.00247988 0.0224287 0.00273205 0.0108726 0.00278149 0.0267503 0.00298495 0.0201419 0.00342994 0.0321515 0.00439576 0.0248148 0.00726484 0.044203
56 3 O -0.507607 8.07528 54.0457 -1.2 1 0.0769867 0.0309296 0.00461815 0.0057975 0.00256119 0.0054069 0.00156345 0.0226908 0.00247275 0.0102624 0.00257429 0.0269751 0.00307105 0.0199732 0.00352104 0.0323973 0.00415083 0.0253253 0.00708024 0.0449789
57 1 Mg -3.17788 16.5775 57.4085 1.2 1 0.0223398 0.012915 0.0051319 0.00660242 0.00156493 0.00582233 0.00161224 0.0241921 0.00184016 0.00956094 0.00154048 0.0307446 0.00243317 0.021056 0.00238769 0.0337263 0.00273574 0.0258561 0.00417646 0.0534705
58 1 Mg -1.70709 16.3162 49.7567 1.2 1 0.181367 0.048323 0.00676952 0.0128835 0.00356409 0.0149739 0.00353927 0.0256696 0.00446424 0.0171192 0.00438318 0.0313346 0.00401592 0.025535 0.00656124 0.0342441 0.00609362 0.0302266 0.00961339 0.0417848
59 2 Si -1.1373 13.8568 47.9385 2.4 1 0.234994 0.0545101 0.0154686 0.0170605 0.00478552 0.017883 0.00502277 0.0266002 0.0085962 0.0191703 0.00638358 0.0302656 0.00538154 0.0273656 0.00635956 0.0331543 0.00975084 0.0313729 0.0113839 0.038366
60 3 O -1.1367 15.3701 48.015 -1.2 1 0.232448 0.0535829 0.0148098 0.0167751 0.00523424 0.0188527 0.00461424 0.0267332 0.00796876 0.0190845 0.00668065 0.0306607 0.00534192 0.0267332 0.00732425 0.0341789 0.00927425 0.0326979 0.0108857 0.0396881
61 3 O -1.76955 12.7096 51.8035 -1.2 1 0.13498 0.0416934 0.00251676 0.0101709 0.00323289 0.00969799 0.00175895 0.024371 0.00397202 0.0135272 0.00310974 0.0289403 0.00422911 0.0229013 0.00454941 0.0329477 0.00533539 0.0275491 0.00834065 0.0432352
62 3 O -2.35722 13.313 48.8593 -1.2 1 0.207535 0.0538311 0.0103954 0.0143893 0.00460565 0.0140898 0.00480371 0.0259524 0.00652658 0.0187639 0.00525123 0.0295075 0.004205 0.0260825 0.00559341 0.0337185 0.00792523 0.0307522 0.00980133 0.0381734
63 1 Mg -0.15266 11.762 46.8619 1.2 1 0.257407 0.0539319 0.0187913 0.0183824 0.00574411 0.0192809 0.00694589 0.0275997 0.0090136 0.0187777 0.00752003 0.0294653 0.00582839 0.0259654 0.0071846 0.0314456 0.010407 0.0321343 0.0133208 0.035517
64 3 O 0.236316 13.1967 48.4198 -1.2 1 0.215392 0.0531314 0.0118914 0.0153031 0.00472955 0.015533 0.00434069 0.026096 0.00708698 0.0177728 0.00516337 0.02899 0.00466086 0.0271757 0.00510691 0.0325389 0.0080388 0.0319712 0.0106287 0.0388075
65 1 Mg 1.26306 11.8144 54.5648 1.2 1 0.0724101 0.0305558 0.00439889 0.00622653 0.00179058 0.00680794 0.00280336 0.0230873 0.00245167 0.0112606 0.00236424 0.0290327 0.00414029 0.0219023 0.00336153 0.0338104 0.00364945 0.0255491 0.00618041 0.0469357
66 2 Si 1.24985 14.4673 56.4475 2.4 1 0.0334667 0.0183126 0.00622472 0.00691537 0.00170542 0.00585558 0.00237655 0.0234993 0.00201846 0.00927097 0.00375664 0.0293495 0.00287314 0.0215149 0.00429289 0.0340131 0.00333246 0.0256422 0.00598143 0.0538717
67 3 O 1.19044 12.9523 56.5001 -1.2 1 0.031402 0.0173882 0.00606801 0.00668577 0.00171697 0.00558477 0.00175413 0.0236796 0.00305108 0.00877675 0.00210908 0.0295035 0.00335511 0.0206804 0.0026468 0.0338291 0.00392002 0.0256551 0.00502014 0.05299
68 3 O 1.41039 15.4413 52.718 -1.2 1 0.112184 0.037978 0.00103121 0.00870659 0.0019641 0.0104193 0.00338895 0.0245507 0.00314547 0.0132601 0.00348789 0.0297916 0.00407665 0.0230076 0.00408956 0.0336146 0.00394272 0.0281054 0.00750211 0.0458069
69 3 O 0.0125734 15.1439 55.7651 -1.2 1 0.0472829 0.0229745 0.00549928 0.00670592 0.00133354 0.00631404 0.00274829 0.0237894 0.00166157 0.0101418 0.00249282 0.029177 0.00267914 0.0214374 0.00364781 0.0344928 0.00315406 0.026882 0.00569924 0.0517299
70 3 O 2.50589 15.1 55.717 -1.2 1 0.0434556 0.0223487 0.00627042 0.00673523 0.00172227 0.00580042 0.00286793 0.0239366 0.00195699 0.00982214 0.00234638 0.0291813 0.00305087 0.0217001 0.0034679 0.0345153 0.00288953 0.0266976 0.0060643 0.0519571
71 1 Mg -0.217369 14.107 52.2276 1.2 1 0.116766 0.0414324 0.00151286 0.00923653 0.00255866 0.00876176 0.00250326 0.0245643 0.0034946 0.0133479 0.00319143 0.0298683 0.0038677 0.0232638 0.00416886 0.0334587 0.00403687 0.028111 0.0074875 0.0438848
72 1 Mg 1.8121 13.7917 49.4418 1.2 1 0.186687 0.0528485 0.00633945 0.0127123 0.0032698 0.0132429 0.00453316 0.0246955 0.00535717 0.0173608 0.00490662 0.0292221 0.00468844 0.0261992 0.00578898 0.0342305 0.00635605 0.0309131 0.00984244 0.0391138
73 2 Si 1.30062 16.1762 51.2405 2.4 1 0.147757 0.0465935 0.00178164 0.0110382 0.00248293 0.0121551 0.00382783 0.0249786 0.00414589 0.0158045 0.00494962 0.029041 0.00405086 0.0253789 0.00566984 0.0339093 0.00418603 0.0304701 0.00925258 0.0440148
74 3 O 1.44112 17.725 51.3166 -1.2 1 0.143309 0.0432619 0.00177061 0.0100853 0.00187176 0.0122553 0.00321477 0.0249242 0.00364644 0.0151547 0.00319118 0.0303043 0.00391665 0.0244148 0.00390595 0.034229 0.00524494 0.0295795 0.00787635 0.0447831
75 3 O 1.2339 15.1545 57.914 -1.2 1 0.0175935 0.0103519 0.00404952 0.00695731 0.00147791 0.00601124 0.00188305 0.0244192 0.00172803 0.00864167 0.00279786 0.0304279 0.00246343 0.0211723 0.00318907 0.0338604 0.00269223 0.0255969 0.00419432 0.0547172
76 3 O 0.00807199 15.5149 50.7509 -1.2 1 0.15564 0.0461461 0.00378938 0.0113337 0.00344191 0.012389 0.0040402 0.0253443 0.00402992 0.01545 0.00339435 0.029495 0.00445068 0.0253738 0.00610632 0.0335962 0.00427008 0.0300331 0.00898542 0.0431092
77 1 Mg -3.17325 14.0753 52.345 1.2 1 0.123974 0.0410857 0.0012364 0.00920419 0.00203362 0.010479 0.00281281 0.0241704 0.00377037 0.0137706 0.0029858 0.0295509 0.0038605 0.0235216 0.00417175 0.0333432 0.00414948 0.0278723 0.00721646 0.043524
78 3 O 2.53067 15.4747 50.3857 -1.2 1 0.163501 0.0491676 0.00422721 0.0111774 0.00232505 0.0131245 0.00404178 0.025085 0.004725 0.0174205 0.00385493 0.0296505 0.00402866 0.0262951 0.00570387 0.033949 0.00545943 0.0299339 0.00886617 0.0423365
79 1 Mg -1.68797 14.1834 55.0942 1.2 1 0.0565559 0.0270901 0.00546939 0.00715299 0.00200383 0.00626817 0.00212177 0.0238623 0.00281694 0.010419 0.00344084 0.0296011 0.00256188 0.0218939 0.00401197 0.0337378 0.00413705 0.0265766 0.00638103 0.0502292
80 2 Si -1.70698 12.0791 53.2166 2.4 1 0.100285 0.0367715 0.00281028 0.00819664 0.00258188 0.00776253 0.00137556 0.0236055 0.00378772 0.0121091 0.00262263 0.0281358 0.00389296 0.0226152 0.0035052 0.0328526 0.00498053 0.0266971 0.00717846 0.0459698
81 3 O -1.73065 10.4806 53.2158 -1.2 1 0.0971515 0.034783 0.00331224 0.00693709 0.0027663 0.00753206 0.0017687 0.022891 0.00289159 0.0108316 0.0030259 0.0276338 0.00351766 0.0204949 0.00413777 0.0325911 0.00434964 0.0258347 0.00853598 0.044744
82 3 O -1.17672 13.3203 46.459 -1.2 1 0.270696 0.0538751 0.0213872 0.020312 0.00648552 0.0203707 0.00716875 0.0292938 0.00894555 0.0200539 0.00714684 0.0307422 0.00574091 0.0260825 0.00820901 0.0337917 0.0120042 0.0340428 0.0131134 0.0359438
83 3 O -3.03915 12.8115 54.0152 -1.2 1 0.0834078 0.0319715 0.00301046 0.00666812 0.00178627 0.00813483 0.00197905 0.0236363 0.00286397 0.0116596 0.00229787 0.0282312 0.00334891 0.0223793 0.00308986 0.0335416 0.00369874 0.0265677 0.00630473 0.047193
84 3 O -0.39005 12.7678 53.9176 -1.2 1 0.0796894 0.0323463 0.00400855 0.00691923 0.00254153 0.00600844 0.0013265 0.0242836 0.00281698 0.0111871 0.00221137 0.0285751 0.00315987 0.0225897 0.00335048 0.0337125 0.00409041 0.0269905 0.00645091 0.0476494
85 1 Mg -3.0386 21.2209 57.4355 1.2 1 0.0216076 0.0123944 0.00523825 0.00658839 0.0013293 0.00588931 0.00164522 0.0240966 0.00208626 0.00951998 0.00177009 0.0308086 0.00228072 0.0210441 0.00238459 0.0336567 0.00262237 0.0257442 0.00413314 0.0537909
86 1 Mg -1.61674 21.1486 49.7762 1.2 1 0.181806 0.0487858 0.0067727 0.0128511 0.00279174 0.0149278 0.00342525 0.0258187 0.00417029 0.0178768 0.00494649 0.0313284 0.00407417 0.0260162 0.00647877 0.0347245 0.00557023 0.0304441 0.00937168 0.0420186
87 2 Si -1.03385 18.6286 47.9197 2.4 1 0.231628 0.054232 0.0141519 0.0168406 0.00377227 0.0199259 0.00418699 0.0270709 0.00704923 0.0200931 0.00600521 0.0322105 0.00545476 0.0280694 0.00595298 0.0353201 0.00890055 0.0322091 0.0107042 0.0414208
88 3 O -0.976818 20.1871 48.0521 -1.2 1 0.230866 0.0534384 0.0140432 0.0168714 0.00395063 0.0200515 0.00446918 0.0269123 0.00680174 0.0200366 0.00637562 0.0317494 0.0053669 0.0272514 0.00729595 0.0354679 0.00831086 0.0326084 0.010583 0.0412396
89 3 O -1.70073 17.4997 51.7934 -1.2 1 0.134291 0.0410286 0.00163952 0.0103882 0.00285882 0.0113428 0.00193831 0.0248125 0.00286526 0.0144834 0.00275117 0.0299332 0.00410902 0.0237231 0.00435391 0.0339559 0.00570663 0.0282541 0.0079154 0.0448667
90 3 O -2.32363 18.0232 48.7972 -1.2 1 0.207333 0.0538686 0.00962658 0.0145846 0.0034194 0.0169032 0.00386114 0.0269796 0.00577278 0.0199192 0.00486598 0.0312867 0.00401614 0.0273689 0.00565685 0.0355 0.00738544 0.0324919 0.00907104 0.04112
91 1 Mg -0.024646 16.5547 46.8508 1.2 1 0.258997 0.0541929 0.0187819 0.0195643 0.00506166 0.0239432 0.00495547 0.0303121 0.00869306 0.0216005 0.00661391 0.033736 0.00613055 0.0276258 0.0073664 0.0346975 0.0102971 0.0347729 0.0121176 0.0403497
92 3 O 0.35569 17.9224 48.4046 -1.2 1 0.213628 0.0535566 0.0103505 0.0155046 0.00368557 0.0175325 0.00365722 0.0269866 0.0058022 0.0194987 0.00428715 0.0314044 0.0047145 0.0281999 0.00570213 0.0345279 0.00766835 0.0333401 0.0100972 0.0417073
93 1 Mg 1.37916 16.566 54.5682 1.2 1 0.0723818 0.0302825 0.00415605 0.00714688 0.00147403 0.00734313 0.0034496 0.0237019 0.00248979 0.0117291 0.00234365 0.0298996 0.00389602 0.0231737 0.00357448 0.0345298 0.00398649 0.0266457 0.00583 0.0488626
94 2 Si 1.38675 19.1986 56.4601 2.4 1 0.0327359 0.0177943 0.00634967 0.00708104 0.00169989 0.00600972 0.00230077 0.0235702 0.00202322 0.00937103 0.00367592 0.0290669 0.00260767 0.0219033 0.00486889 0.0338692 0.00358939 0.0259644 0.00643177 0.0542401
95 3 O 1.34049 17.6739 56.4959 -1.2 1 0.0307405 0.0167117 0.00610095 0.00694785 0.00174031 0.00573351 0.00206842 0.0240901 0.00291443 0.00876473 0.00189312 0.0297915 0.0033075 0.0211191 0.00248001 0.033908 0.00378893 0.0263803 0.0052562 0.053524
96 3 O 1.40237 20.2431 52.7447 -1.2 1 0.109162 0.0361261 0.00163026 0.00823426 0.00142976 0.0106456 0.00352262 0.0244744 0.00272501 0.0131278 0.00313599 0.0297293 0.00391216 0.0228548 0.00386571 0.0341064 0.00399024 0.0283038 0.00704892 0.0467701
97 3 O 0.122088 19.9162 55.7238 -1.2 1 0.0486287 0.0227666 0.00544571 0.00673946 0.00118589 0.00661406 0.00259418 0.0238222 0.00196809 0.010241 0.0022786 0.0291671 0.00276847 0.0221216 0.00351713 0.0342652 0.00318069 0.0268367 0.00548623 0.0515117
98 3 O 2.66696 19.9189 55.705 -1.2 1 0.0436114 0.0220708 0.00655176 0.00679321 0.00170623 0.00604749 0.0030144 0.0242044 0.00199935 0.00993021 0.00259601 0.0288837 0.00296945 0.0221287 0.00403588 0.0346033 0.00320308 0.0272468 0.0061037 0.052508
99 1 Mg -0.126775 18.9298 52.2013 1.2 1 0.116542 0.0409892 0.00201942 0.00932251 0.00226911 0.00946356 0.0025081 0.0246015 0.00265451 0.0141452 0.00286954 0.0303613 0.00365238 0.0236976 0.00424867 0.0340591 0.00415522 0.0286904 0.00771539 0.0452842
100 1 Mg 1.90303 18.6514 49.4367 1.2 1 0.184264 0.0529154 0.00521101 0.0123322 0.00194163 0.0144321 0.00360856 0.0252785 0.00474441 0.0186801 0.00486587 0.0310086 0.00426788 0.0269564 0.00535458 0.0354853 0.00637137 0.0318014 0.00955283 0.0418927
101 2 Si 1.42077 20.9244 51.2699 2.4 1 0.146974 0.046246 0.00157403 0.0108616 0.00217598 0.0125069 0.0039018 0.0250505 0.00358146 0.0161531 0.00488047 0.0291374 0.00418766 0.0254865 0.00553186 0.0343381 0.00405998 0.0306406 0.00913048 0.0446854
102 3 O 1.44732 22.564 51.3437 -1.2 1 0.141565 0.0422278 0.00190984 0.00988634 0.00171022 0.0123257 0.00343608 0.0248483 0.00367908 0.0152685 0.00351496 0.0302373 0.00404654 0.0244931 0.00421612 0.0338727 0.00489793 0.029398 0.00772489 0.0444552
103 3 O 1.4466 19.8885 57.8765 -1.2 1 0.0170994 0.00977589 0.00424243 0.0068449 0.00143171 0.00608622 0.00153677 0.0244651 0.00177713 0.0086601 0.00264659 0.0301871 0.00247379 0.0212463 0.00313053 0.0337579 0.00302514 0.0258158 0.004089 0.0546472
104 3 O 0.107839 20.2983 50.6435 -1.2 1 0.156927 0.0463152 0.00360747 0.0113997 0.00319605 0.013083 0.00412262 0.0253197 0.003473 0.0161848 0.00355878 0.0300821 0.00437221 0.0259249 0.00532986 0.0341006 0.00410354 0.0302899 0.0084837 0.0439699
105 1 Mg -3.03149 18.8966 52.2741 1.2 1 0.125879 0.0401462 0.00109161 0.00910927 0.00140711 0.0113275 0.00272631 0.0243178 0.00250281 0.014565 0.00288127 0.0303019 0.00365188 0.0238392 0.00388535 0.0340953 0.00432275 0.0284464 0.00750547 0.0446888
106 3 O 2.60247 20.3325 50.4207 -1.2 1 0.160792 0.0485886 0.0034079 0.0108321 0.00145159 0.0133837 0.00383229 0.0251435 0.0035045 0.0175268 0.00382562 0.029824 0.00397391 0.0263776 0.00527875 0.0346747 0.00472882 0.03048 0.00850928 0.0431776
107 1 Mg -1.56664 18.9544 55.1723 1.2 1 0.0537498 0.0255141 0.0061111 0.00718987 0.00188279 0.00625101 0.0023659 0.0243052 0.00252015 0.0105656 0.00316502 0.029547 0.00280788 0.0221204 0.00383039 0.0341161 0.00428778 0.0267987 0.00626133 0.0510442
108 2 Si -1.62645 16.7904 53.245 2.4 1 0.097312 0.0361146 0.00294246 0.00868533 0.00236269 0.00798229 0.00171095 0.0238029 0.00300886 0.0126115 0.00240345 0.0290389 0.00350431 0.0234361 0.00343961 0.0338497 0.00531302 0.0275296 0.00674358 0.047831
109 3 O -1.6251 15.2766 53.1543 -1.2 1 0.0960715 0.0352384 0.00242058 0.00802384 0.0026753 0.00775319 0.00203378 0.0235471 0.00342794 0.0119226 0.00288412 0.0294289 0.00303407 0.0225562 0.00382696 0.0335943 0.0039309 0.0269094 0.00737131 0.0474491
110 3 O -1.13563 18.1466 46.418 -1.2 1 0.268027 0.0551958 0.020102 0.0206013 0.00518345 0.0237463 0.00579682 0.0307419 0.00751093 0.0217988 0.00621445 0.0338191 0.00624536 0.0266387 0.00812116 0.0366812 0.0112838 0.0353251 0.0121991 0.0405783
111 3 O -2.93997 17.5333 53.9419 -1.2 1 0.0825091 0.0317927 0.00328146 0.00711892 0.00138935 0.00845809 0.00215703 0.0238481 0.00218568 0.0121457 0.00212234 0.02894 0.0029354 0.0231931 0.00286827 0.0342442 0.0040342 0.0270941 0.00618377 0.0482971
112 3 O -0.41061 17.5079 53.9174 -1.2 1 0.0792616 0.0321191 0.00432537 0.00735319 0.00239254 0.006438 0.00160157 0.0239412 0.00251516 0.0115353 0.00244501 0.029168 0.00291129 0.0232591 0.0036306 0.0343106 0.00420958 0.0273634 0.00665296 0.0485422
113 1 Mg -2.94603 26.0177 57.4608 1.2 1 0.0213209 0.0124578 0.00527286 0.00647106 0.00135772 0.00580199 0.00130757 0.0245129 0.00202954 0.00939915 0.00172147 0.030765 0.00200746 0.0210246 0.00227597 0.0333436 0.00277346 0.0258047 0.00409727 0.0534815
114 1 Mg -1.46342 25.9075 49.8475 1.2 1 0.180401 0.0480957 0.00657508 0.0128287 0.00300569 0.0150681 0.00350407 0.0256795 0.00421144 0.0175325 0.00485487 0.0314221 0.00418662 0.0261686 0.00652966 0.0347476 0.00547689 0.0305552 0.00936349 0.0419812
115 2 Si -0.985246 23.436 47.9778 2.4 1 0.230247 0.0535235 0.0136412 0.0169463 0.00390095 0.020151 0.00410272 0.0271548 0.00698268 0.0202494 0.00598763 0.0319647 0.0057126 0.0283143 0.00623069 0.035164 0.00878345 0.0324459 0.0105562 0.041201
116 3 O -0.943035 24.9546 48.0331 -1.2 1 0.229628 0.0530442 0.0135346 0.0169531 0.00395004 0.0200097 0.00418167 0.0267441 0.00696058 0.0199624 0.00643306 0.0314764 0.00573437 0.0276574 0.00762803 0.0355045 0.00877724 0.0332529 0.0107051 0.0410831
117 3 O -1.60759 22.3122 51.7846 -1.2 1 0.133817 0.0408088 0.00178748 0.0101548 0.00241423 0.0113272 0.00234759 0.0244585 0.00267188 0.0144581 0.00320231 0.0300574 0.0044207 0.0238074 0.00404743 0.0338639 0.00523361 0.0282579 0.00756628 0.0446767
118 3 O -2.21027 22.8487 48.86 -1.2 1 0.20148 0.052966 0.00867946 0.0145136 0.00300747 0.0163824 0.00377848 0.027044 0.00494452 0.0197265 0.00485263 0.0314496 0.00430312 0.0273882 0.00598803 0.0353001 0.00645804 0.0323494 0.00943477 0.0412222
119 1 Mg 0.0822891 21.2997 46.7904 1.2 1 0.258543 0.0549197 0.0182245 0.0196245 0.00488852 0.0245571 0.00585477 0.0302328 0.00808512 0.0223791 0.00675603 0.0335994 0.00672832 0.0284517 0.00807999 0.0352899 0.00918092 0.0349642 0.0120323 0.040698
120 3 O 0.393568 22.7342 48.4394 -1.2 1 0.211855 0.053047 0.0102473 0.0152586 0.00339065 0.0177329 0.00334171 0.0267621 0.0057149 0.0197862 0.00450925 0.0311251 0.00485689 0.0284376 0.00547233 0.0346092 0.00749079 0.0332612 0.00984839 0.0418376
121 1 Mg 1.49186 21.3362 54.5099 1.2 1 0.0747017 0.0300072 0.0042965 0.00700307 0.00138145 0.0073342 0.00324179 0.0234667 0.00241036 0.0117593 0.00260219 0.0297195 0.00381349 0.023207 0.00351048 0.0344365 0.00363772 0.0264932 0.0057436 0.0487751