ITEM: TIMESTEP
3400
ITEM: NUMBER OF ATOMS
10500
ITEM: BOX BOUNDS xy xz yz pp pp pp
0	8.9688	2.9896
0	118.725	0
0	252.977	0
ITEM: ATOMS id type element xu yu zu q Q_1 Q_2 Q_3 Q_4 Q_5 Q_6 Q_7 Q_8 Q_9 Q_10 Q_11 Q_12 Q_13 Q_14 Q_15 Q_16 Q_17 Q_18 Q_19 Q_20 Q_21
1 1 Mg -3.64161 7.25435 57.1269 1.2 1 0.0213035 0.0151261 0.00435653 0.0071666 0.00106192 0.00600154 0.00190209 0.021966 0.0025406 0.0113127 0.00223235 0.0266721 0.00295996 0.0201515 0.00273768 0.0290896 0.00357297 0.0243705 0.00446137 0.0402449
2 1 Mg -1.86588 7.08251 49.3936 1.2 1 0.174106 0.0499066 0.00663349 0.0110059 0.00399871 0.00852678 0.00470466 0.0208307 0.00418742 0.0168794 0.0050695 0.0235056 0.00513392 0.0220631 0.0061911 0.0257683 0.00565224 0.0227733 0.00733366 0.0280287
3 2 Si -0.444879 3.9676 47.5789 2.4 1 0.220356 0.0577678 0.0112421 0.0134002 0.00295745 0.00725346 0.0047806 0.0190194 0.00597837 0.0172659 0.00602729 0.0236018 0.00584202 0.0198555 0.00580043 0.0243905 0.00713506 0.0228817 0.00883071 0.028327
4 3 O -0.509329 5.52955 47.2887 -1.2 1 0.224064 0.0566986 0.0130225 0.0139593 0.004654 0.00849475 0.0062174 0.019914 0.0066336 0.018939 0.00611549 0.0234252 0.00555457 0.0211938 0.00572374 0.0248774 0.0076368 0.0226249 0.00897709 0.0273675
5 3 O -1.99836 3.60506 51.3521 -1.2 1 0.127663 0.0426597 0.00139144 0.00837132 0.0017803 0.00557004 0.00354361 0.0193811 0.00335256 0.0127593 0.00430819 0.0237254 0.00384699 0.0175818 0.00319295 0.0252858 0.00480109 0.0220786 0.00680802 0.0309613
6 3 O -1.69455 3.46701 48.4028 -1.2 1 0.201891 0.0544499 0.00987653 0.011527 0.00299494 0.00640997 0.00485007 0.0189819 0.00495804 0.0166009 0.00589834 0.0236326 0.0041702 0.0197887 0.0050209 0.0243254 0.00518056 0.0219231 0.00851186 0.0276024
7 1 Mg 1.5639 2.43948 46.4459 1.2 1 0.250795 0.0576365 0.0173384 0.0161616 0.00502753 0.00916964 0.00454279 0.0183472 0.0044653 0.017462 0.00548807 0.0241514 0.00648246 0.0186458 0.00651284 0.0237931 0.00668645 0.0225457 0.0095979 0.0280126
8 3 O 1.04063 3.52098 48.1276 -1.2 1 0.20304 0.0536001 0.00985405 0.0121962 0.0033794 0.00744302 0.00385431 0.0181124 0.00459882 0.0159979 0.00526407 0.0232539 0.00429339 0.0196423 0.00546004 0.0249819 0.00521576 0.0226177 0.00892233 0.0278831
9 1 Mg 0.85349 2.26451 53.9221 1.2 1 0.0701343 0.0315597 0.00445084 0.00710734 0.00141413 0.00524818 0.0029099 0.0210716 0.00342507 0.0114455 0.00328829 0.0248833 0.00323179 0.0181567 0.00351147 0.0276176 0.00359404 0.0231239 0.00608563 0.0355615
10 2 Si 0.896037 4.9752 56.0989 2.4 1 0.0307877 0.0194907 0.00611623 0.00771974 0.00130488 0.00532776 0.00323681 0.0217103 0.00281386 0.0105333 0.00319334 0.0251493 0.00281002 0.0197874 0.00423008 0.0292765 0.00393942 0.0241514 0.00581648 0.0403031
11 3 O 0.900378 3.41955 56.1457 -1.2 1 0.0264007 0.0180353 0.00538082 0.00738195 0.00118092 0.00585715 0.00301096 0.0213307 0.00324481 0.0100046 0.00232539 0.0258979 0.00415348 0.0193697 0.00316013 0.0292331 0.00439996 0.0245471 0.00525576 0.0400936
12 3 O 1.07131 6.24385 52.1919 -1.2 1 0.110479 0.0410448 0.00169625 0.00810103 0.0023049 0.00685011 0.00371608 0.0216237 0.00430137 0.0147125 0.00367313 0.0238871 0.00473335 0.0203026 0.00405443 0.0260827 0.00483584 0.0230983 0.00688888 0.031636
13 3 O -0.388743 5.76762 55.5176 -1.2 1 0.0409866 0.0235773 0.00625223 0.00673246 0.00130384 0.00512744 0.0030697 0.0215273 0.00257293 0.0113213 0.0027975 0.0254497 0.00308178 0.0194695 0.00389112 0.0287725 0.00341239 0.0243024 0.0052612 0.0389246
14 3 O 2.06173 5.64615 55.2878 -1.2 1 0.0419931 0.0244807 0.00636137 0.00682551 0.00121518 0.00588168 0.00292534 0.0218578 0.00238287 0.011739 0.00256806 0.0255873 0.00322493 0.019855 0.00303747 0.0293301 0.00361452 0.0246314 0.00576873 0.0378644
15 1 Mg -0.447847 4.91824 51.7131 1.2 1 0.118552 0.0424197 0.0011501 0.00816291 0.00214128 0.00607038 0.00292679 0.0207431 0.00355268 0.0138153 0.00367192 0.0243092 0.00390597 0.0193745 0.00284482 0.0256962 0.0042323 0.0227773 0.00694045 0.0311276
16 1 Mg 2.58673 4.08769 49.3543 1.2 1 0.177699 0.0528866 0.00578372 0.0106141 0.00331696 0.00629873 0.00413594 0.0188225 0.00411049 0.0153637 0.00430568 0.0234452 0.00455255 0.0201595 0.00526357 0.0249348 0.00443954 0.0221874 0.00877698 0.028976
17 2 Si 1.09588 6.83376 50.6859 2.4 1 0.144109 0.0489796 0.00201394 0.00930322 0.00297661 0.00766529 0.00423439 0.0205428 0.00466445 0.0160206 0.00478827 0.0230069 0.00439817 0.021552 0.00542143 0.0269854 0.00464502 0.0236274 0.00729675 0.0299508
18 3 O 1.32898 8.401 50.7973 -1.2 1 0.141702 0.0480578 0.0023217 0.00920268 0.00323207 0.00916461 0.00414029 0.0209945 0.00421163 0.0168108 0.00401631 0.0237891 0.00351086 0.0228463 0.00500569 0.0266643 0.00484596 0.0236265 0.00676612 0.0294763
19 3 O 1.01332 5.66838 57.6018 -1.2 1 0.0177482 0.0133085 0.00380056 0.00694144 0.00110046 0.00612516 0.00228693 0.0226391 0.0027102 0.0104211 0.00261994 0.0268181 0.00370129 0.0199407 0.00363061 0.0290702 0.00379353 0.0246392 0.00460178 0.0419986
20 3 O -0.289 6.30485 50.135 -1.2 1 0.15916 0.0485542 0.00431755 0.0105317 0.00396612 0.00709746 0.00490383 0.0203705 0.00524712 0.0155966 0.0040482 0.023098 0.00476699 0.0220009 0.0047987 0.0252121 0.00458954 0.0227083 0.00754309 0.0296706
21 1 Mg -3.47087 4.84842 52.186 1.2 1 0.109733 0.0402788 0.00130966 0.00759977 0.00196208 0.00602282 0.00368869 0.0199136 0.00344751 0.012898 0.00393577 0.0239417 0.00369164 0.0187535 0.00308316 0.0259094 0.00429293 0.0222623 0.0063131 0.0314243
22 3 O 2.41682 6.16893 49.9371 -1.2 1 0.155528 0.0500341 0.00298459 0.00922601 0.002847 0.0078609 0.00413747 0.0198994 0.00383011 0.016097 0.0043103 0.0231271 0.00431274 0.0216517 0.00463695 0.0257965 0.00467298 0.0226718 0.00789122 0.0294093
23 1 Mg -2.01928 4.65263 54.8013 1.2 1 0.0488559 0.0264609 0.00608022 0.00662274 0.00111302 0.00573053 0.00236673 0.0211309 0.00305452 0.0114705 0.00301837 0.0251807 0.00308913 0.0192281 0.00398837 0.0283104 0.00388198 0.0239764 0.00540006 0.0365218
24 2 Si -1.98192 2.79608 52.6663 2.4 1 0.101215 0.0367038 0.00218504 0.00752575 0.00182428 0.00472893 0.0024328 0.0196977 0.00343435 0.0120747 0.00324554 0.0240872 0.00350458 0.0183255 0.00290758 0.0260044 0.00405967 0.0223735 0.00619785 0.0338229
25 3 O -2.08613 1.09823 52.6514 -1.2 1 0.0980345 0.0363049 0.00224419 0.00730654 0.00213437 0.00504917 0.00237356 0.0200823 0.00370548 0.0111178 0.00325961 0.0244496 0.00327373 0.0174092 0.00384319 0.0269032 0.00355257 0.0222643 0.00631243 0.0333395
26 3 O -0.241954 3.03985 46.2093 -1.2 1 0.251121 0.057783 0.0182864 0.0153531 0.00448673 0.00749652 0.00493605 0.0188966 0.00637213 0.0175214 0.00754033 0.0234634 0.00734282 0.0186416 0.00734782 0.0241166 0.00780661 0.0227987 0.00998284 0.0282986
27 3 O -3.3546 3.30157 53.3748 -1.2 1 0.0837984 0.0346568 0.00331655 0.00701524 0.00176001 0.00512963 0.00298322 0.020961 0.00334924 0.0120568 0.00285742 0.023718 0.00284257 0.0184503 0.00242737 0.0267661 0.00406225 0.0229236 0.00561184 0.0343503
28 3 O -0.873552 3.24669 53.6393 -1.2 1 0.0749866 0.0321769 0.00445027 0.00672984 0.00144365 0.00532655 0.002265 0.0204696 0.00280747 0.0116403 0.00282236 0.0242446 0.00275315 0.0186148 0.00253419 0.027278 0.00368649 0.023522 0.00597643 0.0350465
29 1 Mg -3.25944 11.8272 57.1354 1.2 1 0.0204637 0.0149872 0.00473964 0.00720171 0.0013652 0.00707978 0.00142171 0.0221521 0.00203937 0.0120663 0.00263096 0.0261072 0.00222251 0.0212624 0.00276647 0.0292942 0.00312584 0.0247013 0.00477307 0.0388112
30 1 Mg -1.62938 11.6296 49.0602 1.2 1 0.189564 0.0512871 0.00949956 0.0130003 0.00407887 0.0133531 0.00513105 0.0217957 0.00507081 0.0189101 0.004996 0.0233128 0.00278008 0.0246869 0.00696828 0.027157 0.00590192 0.0253749 0.00711006 0.0273278
31 2 Si -1.11807 9.26543 47.4439 2.4 1 0.232639 0.0570149 0.0161926 0.0157982 0.00550103 0.0124388 0.00740457 0.0210326 0.00690969 0.0193746 0.00815223 0.0222776 0.0045736 0.0239443 0.00734838 0.0264222 0.00896432 0.0249427 0.00837843 0.026518
32 3 O -1.13809 10.8269 47.205 -1.2 1 0.229446 0.0559322 0.0146802 0.0162924 0.00516758 0.0152641 0.00679394 0.0226994 0.00598143 0.0195804 0.00741473 0.0225925 0.00456285 0.0244904 0.00889303 0.027312 0.00828287 0.0273147 0.00865513 0.0260595
33 3 O -1.95079 8.12024 51.5269 -1.2 1 0.12324 0.0436171 0.00122945 0.00887466 0.00273872 0.00771648 0.00319635 0.0210515 0.00404367 0.0153671 0.00383684 0.0236933 0.00406455 0.0211256 0.00443641 0.0261479 0.00563456 0.0234104 0.00681582 0.0308688
34 3 O -2.04647 8.79893 48.5839 -1.2 1 0.194839 0.0545918 0.00883414 0.0128988 0.00448646 0.00993139 0.00617975 0.0218368 0.00557036 0.0183904 0.0054698 0.0237614 0.00334169 0.023134 0.00592544 0.0261674 0.0062481 0.023651 0.0072107 0.0266999
35 1 Mg -0.0238381 7.08678 46.3947 1.2 1 0.250386 0.0584321 0.0177055 0.0167963 0.00671592 0.0117098 0.00791709 0.0215051 0.00763897 0.0194652 0.00815731 0.0222223 0.00706746 0.0227055 0.0083402 0.0256962 0.00837702 0.0243798 0.010057 0.0267576
36 3 O 0.512369 8.71282 47.801 -1.2 1 0.216171 0.0584702 0.0120161 0.0141945 0.00485138 0.0124699 0.00624304 0.0223179 0.00717799 0.0202085 0.00753671 0.0227702 0.00561192 0.0249231 0.0070577 0.02683 0.00808168 0.0260259 0.00875963 0.0264351
37 1 Mg 1.13376 7.10415 54.1039 1.2 1 0.0669592 0.0321579 0.00467151 0.00719417 0.00150571 0.00586654 0.0031418 0.0213308 0.00285142 0.0131001 0.00327593 0.0247047 0.00388812 0.0213834 0.00305941 0.0280361 0.0038273 0.0230246 0.00653034 0.0351737
38 2 Si 0.957732 9.87703 56.1537 2.4 1 0.0313362 0.0201705 0.00587706 0.008311 0.000998943 0.00651602 0.00295627 0.0214599 0.00215746 0.0120414 0.00351343 0.0250594 0.00341724 0.021706 0.00447416 0.0292224 0.00409637 0.0234914 0.00658793 0.0387508
39 3 O 0.893411 8.37535 56.285 -1.2 1 0.0294313 0.0190073 0.00549942 0.00755036 0.00082587 0.00603515 0.0019828 0.0218765 0.00352006 0.0111987 0.00204923 0.0254461 0.00435271 0.0211693 0.00333727 0.0292325 0.00492925 0.0242017 0.00545524 0.0397036
40 3 O 1.27907 10.8368 52.1171 -1.2 1 0.111692 0.0407927 0.00165574 0.00872508 0.00292889 0.00996511 0.00290556 0.0211905 0.00382478 0.0152056 0.00306864 0.0238378 0.00413187 0.0228668 0.00440368 0.0274858 0.00374687 0.0240919 0.00607065 0.0305129
41 3 O -0.285346 10.6151 55.6331 -1.2 1 0.0403782 0.0242043 0.00602271 0.00723991 0.00119757 0.00664354 0.00286352 0.0225347 0.00186676 0.0131227 0.00294402 0.0253774 0.00388961 0.0216447 0.00403836 0.0290736 0.00400596 0.0242531 0.00600192 0.0376889
42 3 O 2.29381 10.4645 55.4735 -1.2 1 0.0404329 0.0242919 0.0061871 0.00752698 0.00146501 0.00632513 0.00325977 0.0220742 0.00236482 0.0128758 0.00272433 0.0247597 0.00341503 0.0217536 0.0032154 0.029378 0.00358727 0.0242987 0.00546607 0.0364956
43 1 Mg -0.433574 9.49434 51.6824 1.2 1 0.116529 0.0434952 0.00137334 0.0090638 0.00273593 0.0083137 0.00260446 0.0212132 0.00370905 0.0149286 0.00311235 0.0240488 0.0033938 0.0219841 0.00392513 0.0269394 0.00487716 0.0237956 0.00587592 0.0296996
44 1 Mg 1.77327 9.33446 49.0669 1.2 1 0.179636 0.0550444 0.00562274 0.0112996 0.00362129 0.0110491 0.00551634 0.021715 0.00431554 0.0184856 0.00536923 0.0230312 0.00376416 0.0241331 0.00639411 0.0268202 0.00538273 0.0252015 0.00776257 0.0278332
45 2 Si 1.36306 11.5293 50.6607 2.4 1 0.144397 0.0477848 0.00232329 0.00952204 0.00322617 0.0110633 0.00369913 0.0210371 0.00379991 0.0168406 0.00474802 0.0225376 0.00370555 0.02461 0.00621011 0.0280561 0.00481445 0.0257257 0.00659304 0.0291564
46 3 O 1.38152 13.1494 50.8199 -1.2 1 0.14407 0.0469269 0.00291133 0.00947719 0.00314624 0.0117992 0.00379488 0.0215561 0.00401499 0.0170671 0.00338445 0.0236746 0.00356737 0.0253452 0.00513584 0.0283375 0.00402738 0.0262483 0.00647715 0.0293596
47 3 O 1.17969 10.4733 57.6889 -1.2 1 0.0183952 0.013515 0.00393876 0.00771326 0.00127643 0.00708851 0.00222361 0.0223849 0.00179008 0.0111687 0.00288523 0.0258058 0.00337565 0.0213382 0.00357785 0.0292903 0.00381817 0.0243935 0.00524093 0.040357
48 3 O 0.0346038 10.8874 49.8437 -1.2 1 0.167338 0.0511593 0.00623938 0.0114534 0.00391042 0.0116946 0.00492705 0.0213867 0.00459437 0.0179403 0.00469437 0.0227885 0.00334394 0.0251093 0.00587062 0.0269751 0.0049812 0.0250156 0.00694602 0.0278611
49 1 Mg -3.32652 9.47738 52.2224 1.2 1 0.114095 0.0401385 0.000965323 0.00788696 0.00237124 0.00977101 0.00318141 0.0205483 0.00351498 0.0152015 0.00394059 0.0237415 0.00341471 0.0221632 0.00442353 0.027101 0.00454463 0.0232633 0.00679157 0.0303653
50 3 O 2.5164 10.9573 49.8693 -1.2 1 0.163202 0.0516889 0.00485412 0.00984042 0.00299773 0.0114988 0.00480595 0.0214371 0.00451503 0.0183112 0.00435011 0.0231872 0.00326227 0.0243312 0.00605587 0.027103 0.00496653 0.0251516 0.00718851 0.0283045
51 1 Mg -1.81868 9.51765 54.907 1.2 1 0.0509955 0.0278179 0.00619321 0.00729212 0.00135397 0.00692799 0.00309099 0.0217733 0.00320411 0.0128203 0.00342675 0.0246524 0.00370255 0.0213488 0.00398563 0.0284671 0.00435995 0.0242535 0.00592432 0.0360557
52 2 Si -1.92914 7.48238 53.0052 2.4 1 0.0917832 0.0380932 0.00314532 0.00776569 0.00262287 0.00619352 0.00299699 0.0212024 0.00386516 0.0140822 0.0035331 0.023964 0.00357386 0.0208963 0.00370244 0.0268618 0.00506375 0.0227119 0.00677554 0.0332557
53 3 O -1.84604 5.87747 53.0512 -1.2 1 0.0937889 0.0358426 0.00233727 0.00704035 0.00195162 0.00627775 0.00283529 0.0204559 0.00354055 0.0124305 0.0035391 0.0239369 0.00306909 0.0193868 0.00410416 0.0266118 0.00387319 0.0225635 0.0064738 0.0334148
54 3 O -1.40934 8.4127 46.094 -1.2 1 0.262274 0.0577611 0.0215151 0.0182829 0.00680379 0.0133965 0.00911574 0.0229267 0.00725222 0.0205464 0.00830501 0.0217049 0.00565776 0.0229351 0.00898161 0.0267321 0.00968464 0.025138 0.00966752 0.0252154
55 3 O -3.07612 8.17694 53.8703 -1.2 1 0.0708766 0.0324942 0.00469007 0.00671434 0.00203659 0.00711013 0.00236751 0.0209596 0.00279013 0.0131814 0.0028814 0.0239314 0.00320862 0.0214533 0.00317018 0.0282887 0.00460276 0.0230739 0.00605602 0.0339085
56 3 O -0.508787 8.19852 53.4807 -1.2 1 0.0784777 0.0350072 0.00381421 0.00721507 0.00189018 0.00639045 0.00212529 0.0210882 0.00349411 0.0132586 0.00295642 0.0239211 0.00300055 0.0214428 0.00365526 0.0276243 0.00440825 0.0235688 0.00576843 0.0343206
57 1 Mg -3.23265 16.5437 57.0462 1.2 1 0.0216969 0.0152204 0.00556714 0.00740034 0.000898495 0.00721053 0.00182861 0.0217384 0.00220125 0.0121305 0.00221138 0.026353 0.00219564 0.0208775 0.00320789 0.0299579 0.00312559 0.0251717 0.00418401 0.0386271
58 1 Mg -1.48531 16.6882 49.3609 1.2 1 0.174745 0.0497529 0.00772099 0.0127 0.00213455 0.0148297 0.00476411 0.0238683 0.00440358 0.0180823 0.00544432 0.0242039 0.00448847 0.0248408 0.00689166 0.0282557 0.00450287 0.0280185 0.0068011 0.0277786
59 2 Si -0.559958 14.2366 47.5925 2.4 1 0.22606 0.054005 0.0151596 0.0164913 0.00318495 0.0184142 0.00476295 0.0245522 0.00691396 0.0196407 0.00613619 0.023439 0.00531199 0.0270622 0.00807078 0.0280513 0.00715265 0.0300163 0.00948641 0.0265512
60 3 O -0.642849 15.7623 47.6402 -1.2 1 0.220993 0.054949 0.0142941 0.0162033 0.00267583 0.018434 0.00528528 0.024455 0.00635998 0.0193093 0.00661707 0.0237571 0.00559263 0.0260919 0.00915129 0.0291709 0.00756519 0.0304563 0.00933396 0.0264863
61 3 O -1.70255 12.7449 51.3382 -1.2 1 0.13019 0.043302 0.00233136 0.00994424 0.00246762 0.0102107 0.00235706 0.0221919 0.00394539 0.0166342 0.00277113 0.0239367 0.00253261 0.0231557 0.00372572 0.02767 0.00412069 0.0258811 0.00561056 0.0305008
62 3 O -1.64655 13.4824 48.5325 -1.2 1 0.198768 0.0541794 0.0105702 0.0144363 0.00441803 0.0151967 0.00490285 0.0249037 0.0058383 0.0199858 0.0056612 0.0242118 0.00383559 0.0265846 0.00727789 0.0283307 0.00648673 0.0280018 0.0075169 0.0265451
63 1 Mg -0.266181 12.0283 46.0603 1.2 1 0.264826 0.0567751 0.0221857 0.0194826 0.00639291 0.0219315 0.00822066 0.0252348 0.00749234 0.0204823 0.00788836 0.0234857 0.00526303 0.0270289 0.010066 0.0280725 0.00986543 0.0307657 0.0109839 0.0262231
64 3 O 0.7467 13.4571 47.8644 -1.2 1 0.213215 0.0560716 0.0122585 0.0146944 0.00350907 0.0159467 0.0049508 0.0237722 0.00575755 0.0198275 0.00511982 0.0232394 0.00459029 0.0280825 0.00701652 0.028109 0.00697671 0.0298858 0.00919218 0.026702
65 1 Mg 1.43727 11.8904 54.2549 1.2 1 0.0662132 0.0318691 0.00492652 0.00713798 0.00214063 0.00740908 0.00345053 0.0213764 0.00354618 0.0136401 0.00250197 0.0246622 0.00356156 0.0225806 0.00287231 0.0292361 0.00352379 0.0242863 0.00531802 0.0336216
66 2 Si 1.1043 14.63 56.0877 2.4 1 0.0302855 0.0193175 0.00607095 0.00800645 0.00147372 0.00712291 0.00279457 0.0211321 0.00197802 0.0118184 0.0040637 0.0247784 0.00264928 0.0215891 0.00403163 0.029115 0.00319695 0.0247642 0.00513618 0.0375405
67 3 O 1.08475 13.0934 56.1792 -1.2 1 0.0293471 0.0192423 0.00560942 0.00786893 0.00116932 0.00633343 0.00201785 0.0211388 0.00335975 0.0119407 0.00243501 0.0247295 0.00323167 0.0215587 0.0029396 0.0291508 0.00413963 0.0243707 0.0050853 0.0375384
68 3 O 1.74207 15.4924 52.2938 -1.2 1 0.112358 0.0394546 0.00103563 0.00812162 0.00191079 0.011141 0.00302913 0.0220341 0.00407982 0.015648 0.00417423 0.0241871 0.00403966 0.0227071 0.00415152 0.0282829 0.00336056 0.0263305 0.00550977 0.0304572
69 3 O -0.29302 15.3677 55.5701 -1.2 1 0.0420813 0.0240203 0.00605904 0.00745412 0.00134439 0.00707349 0.00300554 0.0220183 0.00179781 0.0129463 0.00267515 0.025201 0.00263311 0.0215621 0.00295647 0.0292157 0.00281668 0.0253683 0.00531558 0.0373143
70 3 O 2.34985 15.2543 55.3603 -1.2 1 0.04262 0.0245304 0.00620903 0.0072706 0.00142927 0.00708087 0.00215901 0.0215389 0.00239185 0.0129504 0.00220385 0.0252114 0.00287085 0.0222904 0.00283383 0.0296856 0.00279083 0.0255979 0.00465814 0.0357926
71 1 Mg 0.0580942 14.1342 52.0494 1.2 1 0.112231 0.0420539 0.00105928 0.00863107 0.0025755 0.0101796 0.00251928 0.0222437 0.00386708 0.0161712 0.00347905 0.0248598 0.00337673 0.0233539 0.00429664 0.0281748 0.00364579 0.025647 0.00494799 0.0294072
72 1 Mg 2.41967 13.8094 49.0799 1.2 1 0.180416 0.0532318 0.00707673 0.0109738 0.00279543 0.013838 0.00480334 0.0227677 0.00494392 0.0188286 0.00541376 0.0238542 0.00351843 0.0264268 0.00675441 0.0290659 0.00567322 0.0280991 0.00807429 0.0275629
73 2 Si 1.54994 16.1907 50.8102 2.4 1 0.144658 0.0475334 0.00281216 0.00967629 0.00236289 0.012543 0.00393468 0.0221614 0.00430986 0.0169926 0.00515118 0.0231355 0.00431537 0.0246132 0.00643388 0.0284515 0.00436093 0.0285329 0.00726447 0.0293598
74 3 O 1.65946 17.7755 50.9257 -1.2 1 0.139071 0.047127 0.00235955 0.0091246 0.00246997 0.012324 0.00485427 0.0216662 0.00457423 0.0162121 0.00363003 0.0238592 0.00408288 0.0239765 0.00484158 0.0279498 0.00517374 0.0279152 0.00672375 0.031045
75 3 O 1.17234 15.2165 57.6244 -1.2 1 0.0181115 0.0134072 0.00451889 0.00798646 0.00112355 0.00720099 0.00208535 0.0222834 0.00154375 0.0116863 0.00316996 0.025833 0.0025489 0.0212543 0.00342778 0.0293806 0.00320591 0.025598 0.00445316 0.0394544
76 3 O 0.104161 15.7005 50.46 -1.2 1 0.150891 0.0483857 0.0042014 0.0108092 0.002775 0.0127243 0.00418415 0.0220756 0.0042732 0.0169284 0.00387905 0.023591 0.00371242 0.024774 0.00560304 0.0280672 0.00402154 0.0282118 0.00659959 0.0285295
77 1 Mg -2.98153 14.0559 51.9883 1.2 1 0.118421 0.0410023 0.00115937 0.0082059 0.00167578 0.0112575 0.00287225 0.0207833 0.00369423 0.015788 0.0034138 0.0242639 0.00309794 0.0233195 0.00442996 0.0280959 0.00435535 0.025432 0.00560545 0.0296364
78 3 O 2.65437 15.637 49.8914 -1.2 1 0.158915 0.0501871 0.00431925 0.00998601 0.00224869 0.013918 0.00414173 0.0229223 0.00474256 0.0186016 0.0049775 0.0241562 0.00410489 0.0253419 0.00606114 0.0291355 0.00442168 0.0280349 0.00750857 0.0282697
79 1 Mg -1.9541 14.3041 54.7702 1.2 1 0.0515353 0.0280807 0.00547432 0.00729552 0.0012961 0.00748803 0.00190787 0.0212422 0.00297572 0.0134459 0.00304035 0.0252534 0.00254532 0.0225289 0.00286294 0.0285342 0.00305736 0.0251329 0.0049115 0.0350767
80 2 Si -1.61441 12.0863 52.8317 2.4 1 0.092606 0.0386162 0.00293518 0.00816866 0.00267914 0.00787765 0.0019342 0.021176 0.00402671 0.0149269 0.00283393 0.0239061 0.00290743 0.0230363 0.00308061 0.0281571 0.00403529 0.024727 0.00545202 0.0320703
81 3 O -1.79557 10.5825 52.8868 -1.2 1 0.0973919 0.038024 0.00277792 0.0080855 0.0026101 0.00787648 0.00244861 0.0208274 0.0033931 0.0142063 0.00342425 0.0235601 0.003444 0.0216304 0.00466521 0.0278331 0.00460503 0.0235805 0.00629593 0.0313572
82 3 O -0.841416 13.8075 45.9881 -1.2 1 0.263376 0.0562853 0.0228083 0.0207444 0.00500613 0.0215591 0.00738726 0.0267881 0.00723076 0.0205169 0.00753232 0.0243849 0.00556975 0.0272333 0.0107354 0.0283488 0.00916592 0.0311082 0.0106382 0.0261212
83 3 O -2.80745 12.78 53.576 -1.2 1 0.082983 0.0354012 0.00326787 0.00715632 0.00206187 0.00890078 0.00183668 0.0213072 0.00359543 0.0146463 0.00277185 0.0238901 0.00279107 0.0229494 0.00318286 0.0292087 0.00352544 0.0246725 0.00480967 0.032027
84 3 O -0.35094 12.7273 53.4428 -1.2 1 0.0799107 0.0361414 0.004027 0.0075531 0.0023195 0.00715968 0.00155512 0.0218625 0.00379415 0.0142078 0.00288256 0.0242908 0.0029489 0.0232186 0.00329053 0.0284037 0.00400708 0.0250498 0.00530598 0.032385
85 1 Mg -2.83954 21.3022 57.3451 1.2 1 0.0199282 0.0148986 0.00502744 0.00725557 0.00122007 0.00714305 0.00152776 0.022541 0.00194319 0.0114174 0.00220003 0.0268147 0.00190244 0.019721 0.00245412 0.0314759 0.00316648 0.0260964 0.00464218 0.0415726
86 1 Mg -1.42517 20.9481 49.3032 1.2 1 0.183013 0.0495724 0.00757663 0.0134966 0.00276588 0.0141323 0.00363479 0.0229839 0.00447539 0.0153791 0.00505443 0.0245919 0.00335667 0.0205334 0.00607436 0.0282921 0.00570306 0.0262274 0.00828712 0.0302124
87 2 Si -0.680315 18.9446 47.3567 2.4 1 0.229626 0.054275 0.0152112 0.0173213 0.00321507 0.0183921 0.00622936 0.0236258 0.00646547 0.0173966 0.00543415 0.0238168 0.00570744 0.0250129 0.00740113 0.0273032 0.00854081 0.0297307 0.00949625 0.0296157
88 3 O -0.655881 20.5039 47.4279 -1.2 1 0.228046 0.0542475 0.0147718 0.0178117 0.00301643 0.0179185 0.00411648 0.0237169 0.00689323 0.016572 0.00598756 0.0233755 0.00613746 0.022331 0.00792361 0.0277707 0.00833882 0.0286411 0.00979105 0.0300853
89 3 O -1.46286 17.6272 51.3648 -1.2 1 0.132682 0.0431018 0.00256303 0.010208 0.00260036 0.0116494 0.00303133 0.0229069 0.00356978 0.0158011 0.00340458 0.0241252 0.00295176 0.0225524 0.00407512 0.0282173 0.00503727 0.0271951 0.00600429 0.0303558
90 3 O -1.82126 18.402 48.3767 -1.2 1 0.198081 0.0532614 0.00952917 0.0143881 0.00283374 0.0158314 0.00530795 0.0241653 0.00552779 0.0174207 0.00525944 0.0240721 0.00412207 0.0246763 0.0059026 0.0284724 0.00649406 0.0288533 0.0076078 0.0281487
91 1 Mg 0.119966 16.7776 46.1792 1.2 1 0.263195 0.0564758 0.0219997 0.0205289 0.00411823 0.0240963 0.00809493 0.0275872 0.00870795 0.019798 0.00777726 0.0240619 0.00864857 0.0269592 0.0122216 0.0286292 0.0093954 0.0334136 0.0121214 0.0281142
92 3 O 0.806506 18.3942 47.6672 -1.2 1 0.220552 0.0560841 0.0134901 0.0158669 0.00276645 0.0176929 0.00442948 0.0249816 0.00637207 0.0181792 0.00551782 0.0233514 0.00608295 0.0256743 0.00764555 0.0272859 0.00810792 0.030878 0.0100814 0.0295073
93 1 Mg 1.73515 16.6874 54.057 1.2 1 0.0698208 0.0332993 0.00468106 0.00705123 0.00199158 0.00792205 0.0030277 0.0212215 0.00337232 0.0140875 0.00249105 0.0250962 0.00408148 0.0224156 0.00358324 0.0292002 0.00452906 0.0251721 0.0048819 0.033584
94 2 Si 1.49732 19.244 56.1955 2.4 1 0.0325725 0.0202246 0.00587694 0.00780408 0.00128471 0.00678913 0.00220626 0.0221587 0.00216262 0.0117359 0.00333934 0.0249452 0.00320844 0.0209223 0.00328177 0.030571 0.00362321 0.0261639 0.00513682 0.0398602
95 3 O 1.32464 17.653 56.2039 -1.2 1 0.0294232 0.019009 0.00651687 0.00809205 0.000781885 0.00660526 0.00208811 0.0211816 0.00327941 0.0115288 0.00238724 0.0249963 0.00306251 0.0210276 0.00260111 0.0296766 0.0036782 0.0253668 0.00481237 0.0389191
96 3 O 1.71501 20.2837 52.3451 -1.2 1 0.108152 0.0388163 0.00123442 0.00811024 0.00184943 0.0109063 0.00406259 0.0224145 0.00359374 0.0135538 0.00396499 0.0237912 0.00365222 0.0209727 0.00452945 0.028735 0.00439833 0.0265319 0.00588142 0.0340569
97 3 O 0.205903 20.0095 55.7792 -1.2 1 0.0385199 0.022868 0.00620827 0.0072579 0.00100414 0.00700664 0.00270018 0.022326 0.00179931 0.0115323 0.00286554 0.025343 0.00313128 0.0203521 0.00380635 0.0311741 0.00343148 0.0264036 0.00534529 0.0402185
98 3 O 2.6701 19.7654 55.4068 -1.2 1 0.0403032 0.0242555 0.00664979 0.00706733 0.00133284 0.00706029 0.00254727 0.0221974 0.00264391 0.0119628 0.00283284 0.0249869 0.00324507 0.0210378 0.00292784 0.0309635 0.00344099 0.0268456 0.00510948 0.0382974
99 1 Mg 0.172221 18.8711 51.8384 1.2 1 0.115857 0.0416944 0.00115372 0.00908028 0.00224374 0.00994143 0.00373944 0.0227256 0.00343105 0.0147445 0.00364345 0.0240668 0.00357735 0.0216602 0.00519839 0.0278165 0.00404372 0.0271557 0.00641321 0.0320056
100 1 Mg 2.17191 18.7689 49.0612 1.2 1 0.179284 0.053396 0.00592065 0.011033 0.0019608 0.0142733 0.00528871 0.0236629 0.00473312 0.0176947 0.00496892 0.023662 0.00366836 0.0250022 0.00620657 0.0278581 0.00570369 0.0292615 0.00812379 0.029936
101 2 Si 1.46906 20.9409 50.941 2.4 1 0.143401 0.0458244 0.0023813 0.00969188 0.00288411 0.011996 0.00406676 0.0215471 0.00398061 0.0139023 0.00459817 0.023331 0.00351193 0.0208841 0.00571796 0.0278995 0.00523203 0.0267312 0.00809833 0.0330617
102 3 O 1.58878 22.5825 51.1247 -1.2 1 0.141037 0.0434687 0.00225327 0.00963332 0.00196361 0.0122681 0.00336773 0.0210922 0.00425666 0.0134591 0.00363229 0.0242034 0.00372338 0.0198061 0.00448775 0.0288512 0.00561705 0.0258603 0.00752215 0.0355052
103 3 O 1.63353 19.7821 57.7447 -1.2 1 0.0165138 0.0133485 0.0041139 0.00777945 0.00105886 0.00679685 0.0018441 0.0228061 0.00195737 0.0113115 0.00259687 0.0261187 0.00255855 0.0207435 0.00340091 0.0307334 0.00347229 0.0260154 0.00425564 0.0414175
104 3 O 0.202987 20.2413 50.2928 -1.2 1 0.155359 0.046304 0.00418506 0.0112865 0.00296178 0.0130529 0.00491551 0.0221714 0.00407283 0.0141875 0.00384214 0.0232494 0.00361128 0.0218111 0.00538307 0.0280943 0.00500466 0.0273469 0.00728023 0.0323577
105 1 Mg -2.76238 18.9836 52.0022 1.2 1 0.116335 0.0403494 0.00140943 0.00826256 0.00164282 0.010862 0.00357037 0.0221278 0.00361659 0.0146433 0.00374415 0.024016 0.00357188 0.0223746 0.00479449 0.0282851 0.00432847 0.0271514 0.00571538 0.0316187
106 3 O 2.79392 20.4451 50.0597 -1.2 1 0.156896 0.0497925 0.00374927 0.010212 0.00224035 0.0123157 0.00446902 0.021798 0.00431885 0.0154501 0.00433101 0.0236539 0.00395615 0.0218507 0.00501469 0.0285249 0.00503236 0.0269647 0.00696905 0.0303766
107 1 Mg -1.55521 19.0836 55.0389 1.2 1 0.0488739 0.0269694 0.00620917 0.00727248 0.00118891 0.00698777 0.00261349 0.0221767 0.00290438 0.0126455 0.00384875 0.0251567 0.00352166 0.0210512 0.00396348 0.0300186 0.00416612 0.0261933 0.00576623 0.0373503
108 2 Si -1.41275 16.9307 52.8293 2.4 1 0.0938661 0.0377028 0.00235362 0.00800869 0.00242118 0.00829251 0.00193635 0.0213512 0.00318729 0.0146437 0.00311488 0.0243188 0.0027379 0.0228595 0.00381057 0.0282245 0.0041202 0.0259712 0.00471815 0.0325823
109 3 O -1.34927 15.3676 52.9016 -1.2 1 0.0955876 0.0379145 0.00205468 0.00819083 0.00240826 0.00871401 0.00195951 0.0207798 0.00380456 0.0145705 0.00385294 0.0242483 0.00296374 0.0224355 0.00374874 0.028358 0.00318584 0.0259223 0.00508108 0.0317986
110 3 O -0.870493 18.4028 45.8604 -1.2 1 0.265389 0.0552949 0.0225792 0.0208884 0.00330939 0.0226413 0.0087183 0.0278478 0.00768106 0.0182368 0.00713057 0.0236089 0.00730441 0.0247345 0.00990864 0.0279081 0.0099211 0.0322718 0.0107819 0.0281099
111 3 O -2.54365 17.5224 53.6809 -1.2 1 0.0776159 0.0343861 0.00375586 0.00684737 0.00215344 0.00853256 0.00236165 0.0213574 0.00313464 0.0144204 0.00289222 0.0241392 0.00282617 0.0229272 0.00412944 0.0295813 0.00431871 0.0257221 0.00486278 0.0330742
112 3 O -0.0468638 17.4744 53.3602 -1.2 1 0.0799935 0.035501 0.00383774 0.00716491 0.00230817 0.00738563 0.00175725 0.022209 0.00293222 0.0139696 0.00269071 0.0247056 0.00332198 0.0225036 0.00315565 0.0289087 0.00451045 0.0268445 0.00550222 0.0344105
113 1 Mg -2.73715 26.0589 57.4227 1.2 1 0.0212648 0.0143616 0.00540958 0.00679467 0.00166342 0.00642734 0.00128836 0.0229709 0.00204218 0.0102077 0.00234658 0.0273426 0.00379308 0.0194474 0.00266579 0.0324474 0.00355533 0.0252966 0.00544491 0.0455316
114 1 Mg -1.3087 26.2509 49.6606 1.2 1 0.176487 0.04701 0.00698219 0.0131147 0.00309223 0.0128453 0.00344316 0.0202534 0.00523674 0.0140134 0.00520497 0.0245396 0.00438222 0.0185134 0.00608617 0.0296233 0.00648776 0.0228695 0.0089324 0.0342016
115 2 Si -0.957018 23.7478 48.0481 2.4 1 0.212855 0.0530836 0.0115782 0.017008 0.00345855 0.0155869 0.00257818 0.0207219 0.00760166 0.0156291 0.00576224 0.0236006 0.0053615 0.0206114 0.00705152 0.0281195 0.00786249 0.0245871 0.0100567 0.0327372
116 3 O -1.56507 25.1438 48.0057 -1.2 1 0.212091 0.052556 0.0108475 0.0168701 0.00324371 0.0149045 0.00383153 0.0194109 0.00672833 0.0152437 0.00556557 0.0239029 0.00512027 0.0178212 0.00622188 0.0288618 0.0074146 0.0235282 0.00977942 0.0322785
117 3 O -1.18603 22.4296 51.5789 -1.2 1 0.127606 0.0418386 0.00113273 0.0104889 0.00281383 0.0103182 0.0027831 0.0218127 0.00357705 0.0131168 0.00380059 0.0244213 0.00341511 0.0193652 0.00411697 0.0284 0.00506508 0.0254564 0.00704814 0.0343036
118 3 O -2.00194 22.7508 48.6451 -1.2 1 0.197447 0.0523666 0.00864434 0.0148069 0.00338217 0.0145412 0.00283515 0.0215789 0.00602849 0.0153957 0.00529571 0.0241128 0.00410606 0.0207211 0.00628962 0.028181 0.00695115 0.0259197 0.00942859 0.0319537
119 1 Mg 0.0167714 21.9472 46.3857 1.2 1 0.258823 0.0551553 0.0198399 0.0211328 0.00424587 0.0213637 0.00480595 0.0242161 0.00788175 0.0168687 0.00644867 0.0239177 0.00790912 0.0215064 0.00942166 0.0275239 0.00882622 0.0287205 0.0128325 0.0305434
120 3 O 0.473136 23.2463 48.3255 -1.2 1 0.201228 0.0534259 0.00906235 0.0150061 0.00294855 0.0149422 0.00346119 0.0214642 0.00645412 0.015684 0.00534086 0.0238431 0.00514015 0.02147 0.00643476 0.0278039 0.00707739 0.0265119 0.0102023 0.0330288