ITEM: TIMESTEP
2600
ITEM: NUMBER OF ATOMS
10500
ITEM: BOX BOUNDS xy xz yz pp pp pp
0	8.9688	2.9896
0	118.725	0
0	252.977	0
ITEM: ATOMS id type element xu yu zu q Q_1 Q_2 Q_3 Q_4 Q_5 Q_6 Q_7 Q_8 Q_9 Q_10 Q_11 Q_12 Q_13 Q_14 Q_15 Q_16 Q_17 Q_18 Q_19 Q_20 Q_21
1 1 Mg -3.38076 7.01052 57.5071 1.2 1 0.0225512 0.0129549 0.00540884 0.0066039 0.00160441 0.00655956 0.00109781 0.0241032 0.00126775 0.00963923 0.00182724 0.030876 0.00287251 0.0214095 0.00208709 0.0341854 0.00264516 0.025093 0.00456786 0.0521601
2 1 Mg -1.82655 6.90154 50.0912 1.2 1 0.175769 0.0472104 0.0057804 0.0103765 0.00327001 0.00891385 0.00452236 0.0231657 0.00483536 0.0142262 0.00501771 0.026335 0.00460835 0.021373 0.00687218 0.0297612 0.00539319 0.0254033 0.00921349 0.0360271
3 2 Si -0.257935 3.96038 48.0876 2.4 1 0.224227 0.0536955 0.0115413 0.012853 0.00243639 0.00952447 0.00374761 0.02057 0.00587955 0.0167003 0.00448464 0.0248175 0.00529738 0.0208881 0.00573751 0.0269433 0.00697106 0.0247053 0.00917229 0.033332
4 3 O -0.335812 5.46814 47.6264 -1.2 1 0.232028 0.0529568 0.0132567 0.0138627 0.00310237 0.0106047 0.00466445 0.0212666 0.00636088 0.0172673 0.00483636 0.0254241 0.00488606 0.0213157 0.00565735 0.0271466 0.00749095 0.0254258 0.00963579 0.0319738
5 3 O -2.03793 3.43377 51.8941 -1.2 1 0.128508 0.0407279 0.00213409 0.00751313 0.002191 0.00682821 0.00273648 0.0213108 0.00280049 0.0114759 0.00329609 0.0264048 0.00388351 0.0188491 0.00412832 0.0300943 0.00517936 0.0234056 0.00810153 0.039754
6 3 O -1.54015 3.53929 48.9521 -1.2 1 0.203223 0.052299 0.00883496 0.0111859 0.00262235 0.00845251 0.00374619 0.0203968 0.00500665 0.0153615 0.00468611 0.0243531 0.00436066 0.0205734 0.00596444 0.0277539 0.00555489 0.0240841 0.0089875 0.0333699
7 1 Mg 1.82954 2.54582 47.1376 1.2 1 0.24454 0.0533635 0.0160041 0.0156285 0.00289712 0.0110477 0.00349905 0.0203521 0.00552245 0.0156404 0.00486325 0.0244199 0.00590758 0.0199388 0.00717088 0.0253834 0.00642276 0.0234878 0.00883422 0.0311382
8 3 O 1.22989 3.66364 48.7877 -1.2 1 0.204797 0.0509325 0.00910776 0.012229 0.00223056 0.00950709 0.00407966 0.0205932 0.00425181 0.0149547 0.00405773 0.0243999 0.0048516 0.0202107 0.00615708 0.0272075 0.00471383 0.0239989 0.00910144 0.0343599
9 1 Mg 1.05202 2.32949 54.5779 1.2 1 0.0695756 0.0286574 0.00529976 0.00548541 0.00183591 0.00518977 0.0027916 0.0223928 0.00253912 0.0100933 0.00289725 0.0282576 0.00419638 0.0208435 0.00431297 0.033009 0.00296638 0.0239607 0.00702721 0.0461884
10 2 Si 1.08216 4.94115 56.4437 2.4 1 0.0340928 0.0185328 0.0067748 0.00664122 0.00170467 0.0067421 0.0023486 0.0237466 0.00168205 0.00916589 0.00323188 0.0286567 0.0029671 0.0213452 0.00418504 0.0337633 0.00333559 0.0249008 0.00703225 0.0516459
11 3 O 1.01752 3.38096 56.5664 -1.2 1 0.0334996 0.0176481 0.00648853 0.0062014 0.00152866 0.00592846 0.00223511 0.0231783 0.00228873 0.00869396 0.00244646 0.0295891 0.00297267 0.0202729 0.00355929 0.0337368 0.00388243 0.0250085 0.00575414 0.0507093
12 3 O 1.10813 6.07342 52.8172 -1.2 1 0.106077 0.0355415 0.00296295 0.00696712 0.00252601 0.00720635 0.00341188 0.0232531 0.00328002 0.0111417 0.00325084 0.0274185 0.00422132 0.020085 0.00433661 0.0315337 0.00433303 0.0248576 0.0071705 0.0422568
13 3 O -0.208583 5.65458 55.8301 -1.2 1 0.0470195 0.0226942 0.00631061 0.00602294 0.00176611 0.00562862 0.00239215 0.0234921 0.00190882 0.00996804 0.00264572 0.0289795 0.00313269 0.0206898 0.00418931 0.0338346 0.00298906 0.0250521 0.00633452 0.0494641
14 3 O 2.32561 5.63584 55.7911 -1.2 1 0.0420562 0.0217396 0.00695268 0.00600972 0.001446 0.00610706 0.0022226 0.023373 0.00133226 0.00938135 0.00285633 0.0290396 0.0030774 0.0209743 0.00406557 0.0346074 0.00284923 0.0251774 0.00672514 0.0496267
15 1 Mg -0.459401 4.67631 52.2426 1.2 1 0.122959 0.0402686 0.00232727 0.00736661 0.00257563 0.00667653 0.00269163 0.0221296 0.00308422 0.0120937 0.00294365 0.0273709 0.0041707 0.0200829 0.00465647 0.0305098 0.00407118 0.023639 0.0075995 0.0395346
16 1 Mg 2.79456 3.9971 49.9987 1.2 1 0.175533 0.0496994 0.00514006 0.0101577 0.00273317 0.00792132 0.00467781 0.0214331 0.00341821 0.0147284 0.00308036 0.025188 0.00464375 0.0209041 0.0063526 0.0288878 0.00436787 0.0243742 0.00941853 0.0351716
17 2 Si 1.16169 6.59457 51.2556 2.4 1 0.147484 0.0452471 0.00253305 0.00931023 0.0027867 0.00841449 0.00422905 0.0225878 0.00450009 0.0131264 0.00464849 0.0260453 0.00451931 0.0214733 0.00651252 0.0309452 0.00455839 0.0253201 0.00948194 0.0387159
18 3 O 1.28989 8.18905 51.2909 -1.2 1 0.147761 0.04424 0.0028307 0.00966686 0.00271074 0.00918132 0.00427003 0.0229785 0.00426005 0.012959 0.0039599 0.0277575 0.00451503 0.0219141 0.00499278 0.0313225 0.00556169 0.0259564 0.00870199 0.0401508
19 3 O 1.10361 5.63733 57.9696 -1.2 1 0.0174231 0.00984184 0.00415485 0.00675403 0.0016305 0.00673935 0.00124485 0.0240626 0.000854443 0.00885739 0.00245524 0.0302291 0.00264825 0.0211363 0.00315528 0.0345392 0.00239887 0.0253964 0.00419583 0.053101
20 3 O -0.184847 6.06029 50.6845 -1.2 1 0.159647 0.0446834 0.0044033 0.00945428 0.003372 0.00804733 0.00419975 0.0224099 0.00430917 0.0134461 0.00338353 0.0258016 0.00433958 0.0206299 0.00617714 0.0293804 0.00483631 0.0247004 0.00876171 0.0377978
21 1 Mg -3.49704 4.67769 52.6661 1.2 1 0.11528 0.0380305 0.00226165 0.00678721 0.00233248 0.00699665 0.00316842 0.0216409 0.00344145 0.0112128 0.00348963 0.0273004 0.00407901 0.0198755 0.00449533 0.0304479 0.00395378 0.0234444 0.00800814 0.0405244
22 3 O 2.48581 5.93312 50.6539 -1.2 1 0.157558 0.0467618 0.0035263 0.00884971 0.00193934 0.00874937 0.00430422 0.0224885 0.00429248 0.013826 0.00416956 0.0257397 0.00470968 0.0215075 0.00596193 0.0300863 0.00414951 0.0250291 0.00908878 0.0372147
23 1 Mg -1.90447 4.65991 55.2058 1.2 1 0.0523289 0.0256008 0.0069335 0.00609676 0.00193108 0.00585773 0.00223598 0.0230386 0.00281592 0.00969414 0.00342659 0.02901 0.00272016 0.0209599 0.00435471 0.0336444 0.00410018 0.0248158 0.00734798 0.0478293
24 2 Si -1.93104 2.62982 53.3158 2.4 1 0.100925 0.0357152 0.00328831 0.00666011 0.0025889 0.00591879 0.00214993 0.0218963 0.00289587 0.011012 0.0031444 0.0265735 0.00343857 0.0201786 0.00356705 0.0313902 0.00422733 0.0235516 0.00734302 0.0429001
25 3 O -1.98763 1.0936 53.1682 -1.2 1 0.101222 0.0357053 0.00319145 0.00681405 0.00290288 0.00566 0.0022717 0.0217017 0.00286133 0.0102693 0.00307296 0.027091 0.00376728 0.0195647 0.00466809 0.0312975 0.00389172 0.0235972 0.00770195 0.0424244
26 3 O -0.0467762 2.97103 46.8385 -1.2 1 0.251403 0.0541105 0.0169045 0.0149911 0.00291713 0.00998094 0.00377763 0.0200091 0.00628352 0.0168319 0.00604087 0.0240752 0.00697434 0.0195353 0.00805882 0.0254056 0.00662785 0.0238261 0.0101825 0.0322717
27 3 O -3.20153 3.28327 54.1065 -1.2 1 0.0799409 0.030655 0.00424385 0.00557685 0.00207189 0.00578843 0.00199089 0.022228 0.00270118 0.0106622 0.00249809 0.0270903 0.00318145 0.0202798 0.00358847 0.032056 0.00339235 0.0234543 0.00725429 0.0445765
28 3 O -0.646562 3.26579 53.9967 -1.2 1 0.0815508 0.0316849 0.00475521 0.00581331 0.00209699 0.00599742 0.00177794 0.0225295 0.0023439 0.0105423 0.00231624 0.0274236 0.00343967 0.0205661 0.00357962 0.0324173 0.00343363 0.0242892 0.00705532 0.0444296
29 1 Mg -3.16706 11.7421 57.392 1.2 1 0.0228348 0.0123304 0.00512066 0.00661004 0.000974874 0.00602634 0.00131808 0.0247162 0.00207504 0.00989409 0.00166812 0.0312767 0.00236288 0.0214065 0.00237869 0.0343569 0.00254812 0.0252672 0.00359034 0.0531719
30 1 Mg -1.75014 11.5838 49.8362 1.2 1 0.183405 0.0468983 0.00685274 0.0124411 0.00439767 0.0127426 0.00490662 0.0247446 0.00561508 0.0153816 0.00537196 0.0291025 0.00458273 0.0241448 0.00722819 0.0331162 0.00657666 0.0283972 0.00997117 0.0387493
31 2 Si -1.18003 9.02138 47.9309 2.4 1 0.238713 0.0512734 0.0144865 0.0155694 0.0053212 0.0132419 0.00766945 0.0231906 0.00813744 0.016864 0.00726043 0.0267931 0.00520289 0.0230235 0.00680147 0.0300403 0.00897362 0.027673 0.0120389 0.0349756
32 3 O -1.23224 10.5991 47.9811 -1.2 1 0.22914 0.052044 0.0126083 0.0157323 0.0053737 0.0142872 0.00646402 0.0244089 0.00803301 0.016978 0.00707951 0.028138 0.0057682 0.0240673 0.00819801 0.0323279 0.0089862 0.0295806 0.0108608 0.0354985
33 3 O -1.79016 8.01447 51.8693 -1.2 1 0.133102 0.040316 0.0023778 0.00905542 0.00345766 0.00769886 0.00308559 0.0230677 0.00359414 0.0122348 0.00389066 0.0280667 0.00421983 0.0210625 0.00492249 0.0316811 0.00527079 0.024871 0.00895945 0.0409174
34 3 O -2.30986 8.37215 48.8528 -1.2 1 0.204699 0.0517416 0.00859483 0.0127697 0.00419203 0.0106913 0.00614823 0.0236177 0.00605319 0.0166705 0.00521443 0.0269348 0.00436433 0.0231553 0.00594151 0.0310785 0.00683624 0.0272366 0.00972106 0.0351557
35 1 Mg 0.154883 7.08234 46.8007 1.2 1 0.257545 0.0523671 0.017317 0.0163027 0.00578064 0.0135608 0.00842263 0.0236229 0.00776568 0.0174584 0.00726565 0.0254714 0.00700591 0.0218923 0.00831458 0.0286947 0.00964657 0.0277049 0.012869 0.0321755
36 3 O 0.325447 8.50934 48.3809 -1.2 1 0.217605 0.052604 0.010508 0.014279 0.00437459 0.0122589 0.00644659 0.0241309 0.00652996 0.016761 0.00590078 0.0263478 0.00520142 0.0241237 0.0058863 0.0300708 0.00723085 0.0278845 0.0106758 0.0348933
37 1 Mg 1.18034 7.08728 54.6499 1.2 1 0.0685542 0.0286267 0.00512018 0.00610339 0.00213214 0.0061982 0.00257269 0.0232621 0.00232284 0.0105807 0.00339501 0.0286313 0.00393181 0.0213656 0.00379652 0.0334004 0.00347238 0.0245999 0.00692051 0.0467176
38 2 Si 1.26451 9.70231 56.4619 2.4 1 0.0333517 0.0176536 0.00626531 0.0069076 0.00144895 0.0060764 0.00210373 0.023843 0.0021267 0.00926574 0.00358532 0.0293555 0.00260387 0.0221139 0.00412722 0.0342964 0.00333821 0.0249486 0.00630096 0.0531435
39 3 O 1.16447 8.15043 56.5665 -1.2 1 0.0318626 0.0169505 0.00611639 0.0066709 0.00131261 0.00616356 0.00156143 0.0238824 0.00253524 0.00852489 0.00235945 0.0298298 0.00317636 0.0207648 0.00283201 0.0340461 0.00369818 0.0250842 0.00554336 0.051974
40 3 O 1.28624 10.7248 52.7351 -1.2 1 0.110874 0.0362152 0.00278499 0.00795276 0.00228516 0.00937311 0.00325405 0.0241973 0.00339165 0.0116464 0.00380876 0.0287818 0.00467115 0.022237 0.00446309 0.033114 0.00399253 0.0264729 0.00736026 0.0440391
41 3 O -0.0366637 10.4017 55.8069 -1.2 1 0.0485795 0.0223586 0.00568141 0.00646992 0.00122839 0.0062012 0.00212227 0.0240461 0.00170903 0.00981795 0.00262142 0.029384 0.00290517 0.0216128 0.00371873 0.0347292 0.00304613 0.0256572 0.00610036 0.0505244
42 3 O 2.52097 10.3748 55.7551 -1.2 1 0.0444445 0.0220346 0.00658394 0.00661069 0.00120508 0.00605192 0.00214256 0.0239343 0.00178716 0.00976485 0.00292051 0.0293175 0.00308552 0.0218242 0.00382566 0.0349451 0.00261638 0.025576 0.0061742 0.0510627
43 1 Mg -0.262694 9.34741 52.2523 1.2 1 0.114423 0.0395576 0.00356886 0.00841977 0.00295738 0.00790925 0.00274349 0.0242265 0.00339283 0.0118003 0.00377832 0.0289016 0.00411414 0.0217408 0.0053407 0.0326283 0.00422241 0.026216 0.00840011 0.0421633
44 1 Mg 1.87648 9.01537 49.4629 1.2 1 0.185488 0.0518693 0.005446 0.0117216 0.00314673 0.0108845 0.00647581 0.0237977 0.00546757 0.0157453 0.0052979 0.0275169 0.00506579 0.0236827 0.0060712 0.031492 0.00545697 0.0277038 0.0102062 0.0366595
45 2 Si 1.21415 11.3799 51.2378 2.4 1 0.149399 0.0456862 0.00204661 0.0107081 0.00309246 0.0109517 0.00427063 0.0247576 0.00461075 0.0142177 0.00494801 0.0279614 0.0046272 0.0243199 0.00586205 0.0332378 0.00482706 0.0281867 0.0096446 0.0416293
46 3 O 1.31634 12.9512 51.3023 -1.2 1 0.145231 0.0426604 0.00247041 0.0100492 0.00258895 0.0115511 0.00367904 0.0251508 0.00484243 0.0140458 0.00353951 0.0296047 0.00443275 0.0243345 0.00447723 0.0340529 0.00533907 0.0282367 0.0082101 0.0425538
47 3 O 1.30456 10.3813 57.9298 -1.2 1 0.0180038 0.00981389 0.0039553 0.00692997 0.00112641 0.00631718 0.00122272 0.0248066 0.00177857 0.00879186 0.00268665 0.0304269 0.00250941 0.0214844 0.00273515 0.0345165 0.00253298 0.0251989 0.00371505 0.0541084
48 3 O -0.115718 10.7564 50.681 -1.2 1 0.157005 0.0453472 0.00343884 0.0109592 0.003725 0.0107486 0.00415306 0.024753 0.00446899 0.0140191 0.00395652 0.0283016 0.0050295 0.0237987 0.00599171 0.0322923 0.00494567 0.0274773 0.00945664 0.0405243
49 1 Mg -3.26386 9.35564 52.3622 1.2 1 0.124048 0.0392268 0.00208149 0.00820746 0.00225706 0.00940558 0.00382963 0.0239443 0.00396343 0.0123077 0.00420395 0.0284476 0.00391558 0.0220062 0.00503989 0.0325972 0.00430032 0.0260181 0.00861058 0.0410611
50 3 O 2.45216 10.7265 50.4558 -1.2 1 0.163592 0.0475552 0.00361769 0.0103229 0.00271638 0.0114748 0.00510803 0.0240389 0.00506012 0.0153496 0.00444234 0.028004 0.00449185 0.0244541 0.00614874 0.0328976 0.00528405 0.0279097 0.00947646 0.0397553
51 1 Mg -1.74066 9.4483 55.1599 1.2 1 0.0549953 0.0253504 0.00602109 0.00663555 0.00186091 0.00601044 0.00199668 0.0242294 0.00268601 0.00973664 0.0029462 0.0296792 0.00300245 0.0217165 0.00347528 0.033898 0.00429792 0.0251999 0.00669073 0.0489198
52 2 Si -1.81377 7.34774 53.3541 2.4 1 0.0964581 0.0355404 0.00412969 0.0073202 0.00326897 0.00676375 0.00248883 0.0228652 0.00349777 0.0113007 0.00336087 0.0279149 0.00358478 0.0215271 0.00349446 0.0324696 0.00485012 0.0243335 0.00731784 0.0440374
53 3 O -1.88721 5.81193 53.3264 -1.2 1 0.0964541 0.0334552 0.00319146 0.00644394 0.00276001 0.00665621 0.00223589 0.0223072 0.00363844 0.0103588 0.00326422 0.0274001 0.00318179 0.0202549 0.0043103 0.0323035 0.00371179 0.0240739 0.00761512 0.0433458
54 3 O -1.19417 8.46968 46.4488 -1.2 1 0.27029 0.052411 0.0198555 0.0181062 0.00571591 0.0147301 0.00891595 0.024669 0.00812101 0.0174027 0.00776367 0.0260133 0.00630393 0.0214793 0.00922899 0.0300479 0.0101735 0.0293663 0.0119389 0.0317726
55 3 O -3.09322 8.0511 53.9871 -1.2 1 0.083832 0.0304279 0.00392912 0.00640774 0.00239172 0.00741268 0.00226796 0.02341 0.00296505 0.0109709 0.00284377 0.0279922 0.00319735 0.0212355 0.00353565 0.0330717 0.00465381 0.0248393 0.00751401 0.0453544
56 3 O -0.514105 8.0411 54.0313 -1.2 1 0.0770653 0.0305925 0.00548625 0.00626928 0.00258781 0.00599834 0.00184595 0.0234576 0.00237636 0.0106112 0.00280496 0.0283632 0.00295028 0.0212791 0.00409119 0.0334722 0.00366164 0.0254119 0.00766652 0.0459565
57 1 Mg -3.0297 16.4554 57.3195 1.2 1 0.0227654 0.0120732 0.005239 0.00721183 0.0013217 0.00564872 0.00126634 0.0250999 0.00195349 0.00945229 0.00166453 0.0312505 0.00229794 0.0213438 0.00234148 0.0343303 0.00269555 0.0248303 0.00358464 0.053447
58 1 Mg -1.6714 16.3544 49.8412 1.2 1 0.181948 0.0478003 0.0065011 0.0130591 0.00374552 0.0152033 0.00368867 0.0268222 0.00521063 0.0172293 0.00471936 0.0317137 0.00430761 0.0264044 0.00660032 0.0352744 0.00569703 0.0307958 0.00902861 0.0412503
59 2 Si -1.18567 13.8526 47.9314 2.4 1 0.231792 0.0527098 0.0142855 0.0166229 0.00493354 0.0181047 0.00525682 0.0271733 0.00859205 0.0190632 0.00587123 0.0308973 0.00576688 0.0282776 0.00627876 0.0346046 0.00956685 0.0322166 0.0107946 0.0382549
60 3 O -1.09664 15.4205 47.9915 -1.2 1 0.232374 0.0522568 0.0142346 0.0170818 0.00524541 0.019415 0.00497719 0.027807 0.0081281 0.0194979 0.00610957 0.0312441 0.0059963 0.0277937 0.00785037 0.03568 0.00881495 0.033357 0.0103888 0.038897
61 3 O -1.73493 12.7491 51.7772 -1.2 1 0.134686 0.0401846 0.00232535 0.0102489 0.0032227 0.0100871 0.00191125 0.0252861 0.00402842 0.013539 0.00305961 0.0297868 0.0046591 0.0239122 0.004808 0.0335999 0.00516406 0.0271937 0.00824677 0.0435492
62 3 O -2.36115 13.2717 48.8238 -1.2 1 0.204914 0.0518814 0.00918174 0.0143123 0.00476093 0.0145437 0.00516515 0.0268206 0.00648498 0.0185729 0.00515973 0.03059 0.00479296 0.0268233 0.00606917 0.0345981 0.00759093 0.0312201 0.00978916 0.0382292
63 1 Mg -0.159928 11.7639 46.8533 1.2 1 0.260074 0.0528831 0.0180725 0.0187866 0.00629455 0.0199682 0.00755036 0.0281242 0.00947878 0.0192837 0.00784104 0.0303731 0.00700271 0.0270467 0.00812736 0.0333818 0.0108168 0.0329794 0.013106 0.0358089
64 3 O 0.2623 13.1866 48.413 -1.2 1 0.215631 0.0523404 0.0106681 0.0154591 0.00434443 0.0161166 0.00491613 0.0269972 0.00715563 0.0182139 0.0046611 0.0296727 0.00534424 0.0280131 0.00533696 0.0339934 0.00811832 0.0323985 0.0102926 0.038742
65 1 Mg 1.2788 11.7557 54.5625 1.2 1 0.073797 0.0293624 0.00444116 0.00643778 0.00177226 0.00714339 0.00286091 0.0240517 0.00259743 0.0112986 0.00255587 0.029775 0.00410292 0.0229655 0.00369295 0.0345713 0.00354465 0.0252128 0.00611084 0.0473061
66 2 Si 1.38096 14.4178 56.3596 2.4 1 0.0358115 0.0183231 0.00632551 0.0074259 0.00132313 0.00599607 0.00200243 0.024475 0.0021165 0.00949822 0.00328674 0.029926 0.00273681 0.02209 0.00430894 0.0346369 0.00308001 0.0250396 0.00574163 0.0535536
67 3 O 1.34598 12.8816 56.5197 -1.2 1 0.030977 0.01621 0.0059236 0.00715469 0.00115807 0.00587728 0.00182084 0.0246362 0.0031706 0.00874097 0.00204575 0.0305707 0.00310112 0.0214275 0.00271481 0.0345106 0.003658 0.0252796 0.00499595 0.0532597
68 3 O 1.36565 15.4813 52.729 -1.2 1 0.111741 0.0362654 0.00185963 0.00862014 0.00221739 0.0106306 0.00366187 0.0255126 0.00308342 0.0129688 0.00348157 0.0304217 0.00417356 0.0233829 0.00412047 0.0342923 0.00403483 0.0275992 0.00698553 0.0456898
69 3 O 0.101983 15.0762 55.6583 -1.2 1 0.0514845 0.022789 0.00523545 0.00693052 0.00113398 0.00622733 0.00229625 0.0242511 0.00185631 0.0103684 0.00236494 0.0300241 0.00271795 0.0223006 0.00344942 0.0351283 0.00278521 0.0255266 0.00547588 0.0512506
70 3 O 2.65528 15.103 55.6919 -1.2 1 0.0451516 0.0218326 0.00640131 0.00712867 0.0016156 0.00583091 0.0025689 0.0249208 0.00203328 0.010055 0.00284133 0.0296813 0.00277857 0.0225079 0.00394793 0.0351498 0.00286926 0.0259613 0.00591793 0.0522374
71 1 Mg -0.206989 14.1049 52.2121 1.2 1 0.117979 0.0403611 0.0022233 0.00928285 0.00258587 0.00915689 0.00261496 0.0254721 0.00364876 0.0132957 0.00308806 0.0305265 0.00390574 0.0240493 0.00401536 0.0342939 0.00386767 0.0274754 0.00723685 0.0438034
72 1 Mg 1.82591 13.8102 49.4556 1.2 1 0.186052 0.0520757 0.00546512 0.0126098 0.00308705 0.0137749 0.00492085 0.0262998 0.00545582 0.0175046 0.00481701 0.0299541 0.0051766 0.0267077 0.00595776 0.0350776 0.00638284 0.0311169 0.00960665 0.0393111
73 2 Si 1.29285 16.1518 51.2434 2.4 1 0.146455 0.0451991 0.0016718 0.0107053 0.00274648 0.0125962 0.00417174 0.0262693 0.00419589 0.0156061 0.00504 0.0297546 0.00443488 0.0257473 0.00585978 0.0347127 0.00386611 0.0302131 0.00867387 0.0437453
74 3 O 1.39496 17.7199 51.3047 -1.2 1 0.144071 0.0424591 0.00217199 0.0100916 0.00218465 0.0124009 0.00346162 0.0258707 0.00397961 0.0149142 0.00307806 0.0305717 0.00395077 0.0247021 0.00418585 0.035078 0.0052307 0.0293379 0.00762001 0.0440811
75 3 O 1.40546 15.1418 57.8259 -1.2 1 0.0177324 0.00975643 0.00414512 0.00732635 0.000942739 0.00572559 0.0014253 0.024946 0.00191192 0.0086319 0.0026251 0.0310281 0.00239462 0.0214086 0.00307794 0.0342282 0.00281503 0.0245654 0.00402499 0.0543616
76 3 O -0.0269106 15.5178 50.6688 -1.2 1 0.158737 0.0458471 0.00367801 0.0115901 0.00355953 0.0129492 0.00402884 0.0262415 0.00425739 0.0154786 0.00313567 0.0301255 0.00442822 0.0261885 0.00535882 0.0343642 0.00398492 0.0298459 0.00836389 0.0424834
77 1 Mg -3.18391 14.1057 52.3125 1.2 1 0.125653 0.0401748 0.00152446 0.0090748 0.0020567 0.0109477 0.00318568 0.0254055 0.00379377 0.013941 0.00321273 0.0302872 0.00401761 0.0244136 0.00426273 0.0339047 0.00417495 0.0275838 0.00742456 0.0433416
78 3 O 2.52432 15.503 50.4579 -1.2 1 0.16186 0.0476992 0.00364389 0.0108521 0.00257051 0.0134209 0.00435779 0.0259234 0.0047305 0.0170194 0.00368039 0.0300982 0.00413988 0.0265051 0.00596433 0.0347655 0.00484913 0.0298029 0.00865363 0.0419366
79 1 Mg -1.6277 14.1331 55.0933 1.2 1 0.0567753 0.0257861 0.00562224 0.00748509 0.00157453 0.00615144 0.00201166 0.0248719 0.00317448 0.0102848 0.00324313 0.0303138 0.00251251 0.022526 0.00378608 0.034654 0.00392514 0.0257044 0.00620496 0.0504141
80 2 Si -1.66857 12.0548 53.2588 2.4 1 0.098539 0.035586 0.00391227 0.0083722 0.00244815 0.00776136 0.00161054 0.024762 0.00383176 0.0120623 0.00280856 0.0290167 0.00401261 0.0235836 0.0031942 0.0339941 0.00453943 0.0262599 0.00707544 0.0463744
81 3 O -1.72685 10.4928 53.2169 -1.2 1 0.0975897 0.0339625 0.00386663 0.00742603 0.00277365 0.00776025 0.00162513 0.0234629 0.00336521 0.0107763 0.00330805 0.0287517 0.00374082 0.0217174 0.00464739 0.0336508 0.00411373 0.025228 0.00843138 0.0456004
82 3 O -1.21337 13.3381 46.4311 -1.2 1 0.271629 0.0523814 0.0204704 0.0202854 0.00674107 0.0208514 0.00729194 0.0300791 0.00943641 0.0204794 0.00697508 0.0312995 0.00620238 0.0267386 0.00879363 0.0357253 0.0124936 0.0350789 0.012691 0.0358228
83 3 O -2.94571 12.7559 53.9713 -1.2 1 0.0847678 0.0311823 0.00360609 0.00703582 0.0017215 0.0083504 0.00190751 0.0246806 0.00301498 0.0116582 0.00238972 0.0293098 0.00348831 0.0232791 0.00340396 0.0342884 0.00367026 0.0259421 0.00653195 0.047552
84 3 O -0.352171 12.7467 53.8854 -1.2 1 0.081935 0.0313807 0.00418795 0.00725438 0.00253901 0.006416 0.00161806 0.0246676 0.00285757 0.0112893 0.00234856 0.0293507 0.00341975 0.0232634 0.00350528 0.0346699 0.00389551 0.0261733 0.00643674 0.0474023
85 1 Mg -3.00859 21.2265 57.402 1.2 1 0.0225848 0.0119792 0.00522129 0.00700203 0.00134064 0.00602947 0.00129237 0.0249324 0.001968 0.00929138 0.00165095 0.0310494 0.00207167 0.021157 0.00215041 0.0343313 0.00288579 0.0251167 0.00388002 0.0539519
86 1 Mg -1.5831 21.1217 49.8405 1.2 1 0.181094 0.0479797 0.00652394 0.0129152 0.00338402 0.0157843 0.00360912 0.0272249 0.00458256 0.0174428 0.00488064 0.031625 0.00396835 0.0262497 0.0068754 0.0355741 0.00540863 0.0312692 0.00931689 0.0416057
87 2 Si -1.09384 18.6291 47.9287 2.4 1 0.232608 0.0537472 0.0138798 0.0172715 0.00431952 0.0206573 0.0045967 0.0287747 0.00770916 0.0201751 0.00543415 0.0323896 0.00614218 0.0289652 0.00600336 0.036113 0.00934633 0.034039 0.0101593 0.0404827
88 3 O -1.02071 20.1985 47.9911 -1.2 1 0.231262 0.0529249 0.013873 0.0173512 0.00445747 0.0208887 0.0045361 0.0286791 0.00747918 0.0200813 0.00596581 0.032097 0.00595133 0.028021 0.00778277 0.0364741 0.00825912 0.0341372 0.00984722 0.0403657
89 3 O -1.65002 17.5002 51.771 -1.2 1 0.135531 0.0406217 0.00175705 0.0103702 0.00295706 0.0114967 0.0020348 0.0258861 0.00333772 0.0141512 0.0028678 0.0305915 0.00440061 0.0241887 0.00435009 0.0347979 0.00522217 0.0281517 0.00776748 0.0443607
90 3 O -2.26174 18.0434 48.8281 -1.2 1 0.20341 0.0523456 0.00895581 0.0146355 0.00396685 0.0171295 0.00424706 0.0282976 0.0056637 0.0194284 0.00425002 0.0317398 0.00455547 0.0276535 0.00606568 0.0361095 0.00682746 0.0330739 0.00897044 0.0403113
91 1 Mg -0.0440435 16.5651 46.8269 1.2 1 0.259457 0.0542903 0.0182657 0.0196222 0.00553552 0.0243307 0.00574667 0.0315392 0.00961081 0.0220375 0.00645091 0.0335754 0.00727068 0.0293465 0.00862571 0.0360287 0.00996602 0.0364543 0.0118998 0.0396169
92 3 O 0.37001 17.9877 48.3925 -1.2 1 0.212687 0.0526804 0.0103422 0.0154069 0.00401776 0.0180116 0.00367365 0.0281925 0.00650778 0.0193227 0.00376725 0.0314934 0.005074 0.0288083 0.00564271 0.0355823 0.00763168 0.0340819 0.00949226 0.0411237
93 1 Mg 1.4179 16.5539 54.5012 1.2 1 0.0747313 0.0291628 0.00426698 0.00705292 0.00169276 0.00744504 0.00306771 0.0245604 0.00257367 0.011573 0.00255558 0.0304837 0.00378692 0.0232979 0.00332928 0.0349594 0.00381614 0.0257862 0.00575055 0.0483634
94 2 Si 1.46738 19.1867 56.3562 2.4 1 0.0353441 0.0181221 0.00646111 0.00725815 0.00141208 0.0059354 0.00206959 0.0243942 0.00180099 0.0092571 0.00350741 0.0298131 0.00267631 0.021881 0.00447098 0.0347134 0.00326042 0.0248683 0.00592854 0.0538096
95 3 O 1.42585 17.6383 56.4436 -1.2 1 0.03416 0.0173083 0.00619963 0.00740056 0.00135665 0.00543426 0.00179234 0.0245178 0.00284731 0.00883565 0.00214123 0.0303476 0.00315977 0.0213086 0.00268553 0.0346698 0.00413226 0.0249381 0.00488796 0.0530007
96 3 O 1.45147 20.239 52.7294 -1.2 1 0.111352 0.0365021 0.00195287 0.00848349 0.00172029 0.0110664 0.00349346 0.0257921 0.0024929 0.013052 0.00334798 0.030374 0.00394821 0.0232009 0.00424239 0.034498 0.00382318 0.0279275 0.00693113 0.0463253
97 3 O 0.193011 19.8963 55.7265 -1.2 1 0.0487178 0.0220865 0.00582474 0.00695274 0.00130828 0.00646121 0.00229902 0.0245951 0.00145337 0.0100716 0.00249832 0.0295507 0.00274369 0.0218986 0.0039551 0.0352474 0.00304195 0.0261949 0.00564995 0.0519464
98 3 O 2.72954 19.8634 55.7142 -1.2 1 0.0439429 0.0214401 0.00658837 0.00712198 0.00170592 0.00601062 0.00250163 0.0248468 0.00177054 0.00971075 0.00254028 0.0297027 0.00271362 0.0221612 0.00386406 0.0352026 0.00308289 0.0260183 0.00594446 0.0526061
99 1 Mg -0.126194 18.8651 52.2079 1.2 1 0.117177 0.0401706 0.00249345 0.00926187 0.00238621 0.00988267 0.00259962 0.0257095 0.00272787 0.0138989 0.00292087 0.0307597 0.00380364 0.0240299 0.0040525 0.0348726 0.00389814 0.0283742 0.00733376 0.0447831
100 1 Mg 1.92402 18.5815 49.4545 1.2 1 0.18464 0.0525842 0.00497523 0.012426 0.0022051 0.0151903 0.00440572 0.0270667 0.00487984 0.018412 0.00434411 0.031273 0.00472349 0.0274512 0.00520571 0.0362567 0.00599565 0.0325082 0.00902809 0.0412753
101 2 Si 1.38106 20.9117 51.2443 2.4 1 0.145803 0.0454346 0.00164382 0.0106124 0.00237831 0.0131136 0.00417769 0.026497 0.00342448 0.0157408 0.00468461 0.0298152 0.00443637 0.0255574 0.00593567 0.0347641 0.00375322 0.0306324 0.00879711 0.044133
102 3 O 1.48527 22.4795 51.3054 -1.2 1 0.14427 0.0426588 0.00212983 0.00995387 0.00203229 0.0127482 0.00336509 0.0258173 0.00374545 0.0147455 0.00306999 0.0304207 0.00393848 0.0245231 0.0042431 0.0349439 0.00525468 0.0296524 0.00780597 0.0443758
103 3 O 1.47718 19.8477 57.8689 -1.2 1 0.017735 0.00951062 0.00419902 0.00724409 0.00129121 0.00577189 0.00123571 0.0249701 0.00152289 0.00839305 0.00252317 0.0307958 0.00225656 0.0211075 0.00301858 0.0344408 0.00299003 0.0247512 0.0041288 0.0548388
104 3 O 0.0615419 20.2804 50.6669 -1.2 1 0.155261 0.0453494 0.00326629 0.0112156 0.0035557 0.0135597 0.00411076 0.0264406 0.00341897 0.0155238 0.00306246 0.0302181 0.00444902 0.0257772 0.00561287 0.0350096 0.00413398 0.0304052 0.00855175 0.0434464
105 1 Mg -3.09665 18.8643 52.3122 1.2 1 0.125502 0.0402135 0.00147677 0.00909798 0.00190354 0.0115751 0.00313679 0.025707 0.00279584 0.0144232 0.00277767 0.0304888 0.00370063 0.0245093 0.00338638 0.034629 0.00446807 0.0283829 0.00705734 0.0443266
106 3 O 2.61548 20.2646 50.4626 -1.2 1 0.160795 0.0478404 0.00322087 0.0109072 0.00209932 0.0140574 0.00409487 0.0263493 0.00369674 0.0170069 0.00348609 0.0302508 0.00399399 0.0262924 0.00555157 0.0352308 0.00448935 0.030513 0.00836919 0.0427197
107 1 Mg -1.50356 18.9387 55.1197 1.2 1 0.0568511 0.0254225 0.0057353 0.00749772 0.00187632 0.00636854 0.00204674 0.0252187 0.00238402 0.0103776 0.00298963 0.0301919 0.00254198 0.0225142 0.00387325 0.0348409 0.00437327 0.026036 0.0059914 0.0507884
108 2 Si -1.60692 16.8077 53.2476 2.4 1 0.0972061 0.03505 0.00346348 0.00863031 0.00234083 0.00795762 0.00174579 0.0250626 0.00320997 0.0124563 0.00265494 0.0298208 0.00333066 0.0238049 0.00313117 0.0348532 0.00459724 0.026909 0.00662033 0.0478048
109 3 O -1.65379 15.2441 53.1582 -1.2 1 0.0975863 0.0343347 0.00327915 0.00815893 0.00226071 0.00828578 0.00189056 0.0246744 0.00341011 0.011842 0.00284565 0.0299758 0.00326907 0.0231501 0.00421124 0.0346076 0.00374942 0.0264872 0.00741196 0.0473727
110 3 O -1.12868 18.1227 46.4249 -1.2 1 0.269044 0.0540546 0.0198208 0.0208333 0.00576376 0.0242488 0.00586213 0.0323642 0.00826339 0.0217502 0.00578852 0.0337406 0.00682963 0.0273602 0.00865294 0.0378211 0.0117414 0.0373602 0.0116895 0.0394213
111 3 O -2.84801 17.4935 53.9414 -1.2 1 0.0840621 0.0309582 0.00370204 0.00718792 0.00176418 0.00846878 0.00201455 0.0249645 0.00219768 0.0119931 0.00209224 0.0296839 0.00292155 0.0236608 0.00277497 0.0347681 0.00370207 0.0263997 0.00636506 0.0483714
112 3 O -0.281602 17.4994 53.8756 -1.2 1 0.0816947 0.0310871 0.0043748 0.00738202 0.00264515 0.0068083 0.0014343 0.0248468 0.00222987 0.0114302 0.00224843 0.0295363 0.00322985 0.0234101 0.00333551 0.0350502 0.00415829 0.026688 0.00623953 0.0481636
113 1 Mg -2.87466 25.9964 57.4064 1.2 1 0.0226433 0.0116744 0.00521504 0.00679832 0.00147981 0.00668387 0.00117232 0.0244138 0.00180722 0.009179 0.00170035 0.0310804 0.00205674 0.021086 0.00230313 0.0341093 0.0027985 0.0252756 0.00416783 0.0544775
114 1 Mg -1.48778 25.88 49.8402 1.2 1 0.18103 0.0477114 0.00661356 0.0132959 0.00337358 0.0159023 0.003562 0.0271949 0.00458848 0.0174413 0.00491352 0.0317382 0.00381161 0.0259925 0.00680529 0.035503 0.00544 0.0314428 0.00943544 0.0417335
115 2 Si -1.00491 23.3922 47.9274 2.4 1 0.235045 0.0540857 0.0141272 0.0181384 0.00441861 0.0216309 0.00461715 0.0291044 0.0078354 0.0204115 0.00552716 0.0326322 0.00610509 0.0286297 0.00653739 0.036135 0.00913431 0.034223 0.0102609 0.0404744
116 3 O -0.927602 24.9615 47.9909 -1.2 1 0.231061 0.0528174 0.0137232 0.017662 0.00443085 0.0210894 0.00431345 0.0287904 0.00743473 0.0201272 0.00589947 0.0322911 0.00576808 0.0277675 0.00777504 0.0364405 0.00832683 0.0343587 0.00981187 0.0403713
117 3 O -1.55795 22.2588 51.7696 -1.2 1 0.135127 0.0405993 0.00203764 0.0101252 0.00320225 0.0119942 0.00198006 0.0258873 0.00280281 0.0142065 0.00291937 0.0306068 0.00431728 0.0240192 0.00420277 0.0346135 0.00504029 0.0284383 0.00798426 0.0447211
118 3 O -2.17411 22.8111 48.8277 -1.2 1 0.204555 0.0526277 0.00887468 0.0148751 0.00349123 0.0177532 0.00405777 0.0283488 0.00541503 0.0196216 0.00446831 0.0317486 0.00455608 0.0275151 0.00633669 0.0360885 0.00669798 0.0334697 0.00917338 0.0403915
119 1 Mg 0.0423997 21.3296 46.8225 1.2 1 0.258706 0.0546263 0.0180842 0.0202437 0.00544845 0.0255001 0.00595664 0.0320465 0.00892137 0.022263 0.00632749 0.033918 0.00713899 0.0290464 0.00895208 0.036464 0.00954485 0.0368197 0.0115488 0.0400113
120 3 O 0.458537 22.7495 48.3911 -1.2 1 0.213955 0.0529055 0.0101483 0.0158342 0.0039301 0.0187182 0.00345054 0.0286289 0.00610825 0.0196724 0.00364647 0.0315451 0.005244 0.0286963 0.00601586 0.0356429 0.00730845 0.0346418 0.00950972 0.0412417