ITEM: TIMESTEP
1800
ITEM: NUMBER OF ATOMS
10500
ITEM: BOX BOUNDS xy xz yz pp pp pp
0	8.9688	2.9896
0	118.725	0
0	252.977	0
ITEM: ATOMS id type element xu yu zu q Q_1 Q_2 Q_3 Q_4 Q_5 Q_6 Q_7 Q_8 Q_9 Q_10 Q_11 Q_12 Q_13 Q_14 Q_15 Q_16 Q_17 Q_18 Q_19 Q_20 Q_21
1 1 Mg -3.30335 6.99785 57.4345 1.2 1 0.0220506 0.0132655 0.00544709 0.00635638 0.00138509 0.00652613 0.00120183 0.0238407 0.00149491 0.00909335 0.0018416 0.0309184 0.00260771 0.0213694 0.00200826 0.0340329 0.00265406 0.0251456 0.00447944 0.0528145
2 1 Mg -1.82655 6.90154 50.0912 1.2 1 0.175308 0.0466008 0.0057499 0.0101038 0.00299584 0.00878096 0.0044267 0.0233066 0.00464192 0.0142911 0.00501341 0.0262435 0.00459778 0.0211753 0.00646864 0.029596 0.0056996 0.024952 0.00945383 0.0360973
3 2 Si -0.257935 3.96038 48.0876 2.4 1 0.225296 0.0528192 0.0113707 0.0126716 0.00251973 0.00950726 0.00393917 0.0207269 0.00586515 0.0168319 0.00439781 0.0247236 0.00539835 0.0206968 0.00569543 0.0269283 0.00694078 0.0241201 0.00922006 0.0330955
4 3 O -0.335812 5.46814 47.6264 -1.2 1 0.23267 0.0523181 0.0131445 0.0136523 0.00314057 0.0106507 0.00477332 0.021341 0.00632272 0.0175256 0.0048725 0.0252988 0.00482342 0.0211696 0.00550975 0.0271919 0.00749412 0.0249918 0.00964373 0.0316969
5 3 O -2.03793 3.43377 51.8941 -1.2 1 0.129309 0.039929 0.00236129 0.00733046 0.00217809 0.00698114 0.00293404 0.0213501 0.00263593 0.01135 0.00352828 0.0263266 0.00397177 0.0185665 0.00399842 0.0296159 0.00526823 0.0227921 0.00844625 0.0396623
6 3 O -1.54015 3.53929 48.9521 -1.2 1 0.204306 0.0514382 0.00880076 0.0110996 0.00266719 0.00839022 0.00396423 0.0206056 0.00507089 0.0153811 0.00474991 0.0242803 0.00446383 0.0201971 0.00585593 0.0275796 0.00552097 0.0234424 0.00911113 0.0332081
7 1 Mg 1.82954 2.54582 47.1376 1.2 1 0.245285 0.0525002 0.0156754 0.0156382 0.00295842 0.0108649 0.00372792 0.0207079 0.00567476 0.0156141 0.00465175 0.0243244 0.00597452 0.0197353 0.00720933 0.0253462 0.0064192 0.0229749 0.00880778 0.0310475
8 3 O 1.22989 3.66364 48.7877 -1.2 1 0.205985 0.0499328 0.00906071 0.0121637 0.00227594 0.00939863 0.0043337 0.0208234 0.00417776 0.0149159 0.00402368 0.024326 0.00496103 0.0198533 0.00603017 0.0270488 0.00461742 0.0233488 0.00930654 0.0341988
9 1 Mg 1.02803 2.30657 54.5673 1.2 1 0.0698711 0.0282519 0.00504135 0.00560726 0.00175343 0.00521725 0.0029957 0.0226733 0.00261535 0.00990608 0.00318043 0.0282756 0.00409367 0.020673 0.00403107 0.032371 0.00296992 0.0235623 0.00686082 0.0463158
10 2 Si 1.11429 4.94535 56.4697 2.4 1 0.0326109 0.0175712 0.00649806 0.00638776 0.00142628 0.00672054 0.00226582 0.0235828 0.00159281 0.00868879 0.00332997 0.0285912 0.00280759 0.0211344 0.00398438 0.0335874 0.0031829 0.0249059 0.00643779 0.0524559
11 3 O 1.03761 3.39973 56.5736 -1.2 1 0.034217 0.0176364 0.00628757 0.00629299 0.00140407 0.0056541 0.001965 0.0235145 0.00250189 0.00827309 0.00241834 0.0296387 0.00304304 0.0203853 0.00306957 0.0332668 0.00370384 0.0246901 0.00555444 0.0511479
12 3 O 1.10813 6.07342 52.8172 -1.2 1 0.10599 0.0351571 0.00299318 0.00684224 0.00228467 0.00719267 0.00353619 0.0232642 0.00329805 0.0109791 0.00344435 0.0274706 0.00436169 0.0199241 0.00434042 0.0311034 0.00436976 0.0244768 0.00744708 0.042394
13 3 O -0.188894 5.61636 55.8306 -1.2 1 0.0447974 0.0219389 0.00646116 0.00583093 0.00172261 0.00558747 0.00247781 0.0233052 0.00191007 0.00940687 0.00281086 0.0289324 0.00302824 0.0204873 0.00409234 0.0337514 0.00302034 0.0248658 0.0063944 0.0501213
14 3 O 2.36835 5.67008 55.7868 -1.2 1 0.0427527 0.0218889 0.00689518 0.00579922 0.00127172 0.00626224 0.00250391 0.0234221 0.00129785 0.00904878 0.00292207 0.0290549 0.00305517 0.0208227 0.00405156 0.0343428 0.00291759 0.0252212 0.00659388 0.0502116
15 1 Mg -0.459401 4.67631 52.2426 1.2 1 0.12369 0.0397825 0.00235887 0.00715191 0.00240363 0.00675286 0.00270111 0.0220204 0.00308818 0.0119927 0.0030202 0.0272629 0.0042316 0.0197813 0.00453262 0.0301562 0.00424435 0.0231273 0.00770228 0.0395241
16 1 Mg 2.79456 3.9971 49.9987 1.2 1 0.176573 0.0490078 0.00531687 0.010042 0.00277249 0.00788803 0.0049424 0.0214525 0.0033607 0.014806 0.0031699 0.0251291 0.0046801 0.0206308 0.00615498 0.0286249 0.00450153 0.0238084 0.00983069 0.0350791
17 2 Si 1.16169 6.59457 51.2556 2.4 1 0.148065 0.0448268 0.00260142 0.00918115 0.00266997 0.00839333 0.00421438 0.0225646 0.00448286 0.0132314 0.00470432 0.0259015 0.00446668 0.0212386 0.00635964 0.0307611 0.0046224 0.0248188 0.00981121 0.0386852
18 3 O 1.28989 8.18905 51.2909 -1.2 1 0.146634 0.0434876 0.00290487 0.00936901 0.00263456 0.00901299 0.00397261 0.0231175 0.00424443 0.012924 0.00409321 0.0275737 0.00416466 0.0216523 0.00474963 0.0311081 0.00559493 0.0256554 0.00883368 0.0402304
19 3 O 1.14606 5.629 57.9677 -1.2 1 0.0166791 0.0100456 0.00424158 0.00673941 0.00130512 0.0065816 0.00143203 0.0238737 0.00138215 0.00816276 0.00232219 0.0300234 0.0024788 0.0211826 0.00252395 0.0345598 0.00242013 0.0254108 0.00386234 0.0539448
20 3 O -0.184847 6.06029 50.6845 -1.2 1 0.160498 0.0442233 0.0044776 0.00922311 0.00331087 0.00810895 0.00416561 0.0224048 0.00420064 0.0134766 0.00347862 0.0257058 0.00422428 0.020409 0.00601818 0.0290683 0.00493672 0.0241773 0.00917306 0.0377278
21 1 Mg -3.49704 4.67769 52.6661 1.2 1 0.116428 0.0375946 0.00222701 0.00666624 0.00243254 0.00712269 0.00322176 0.0217497 0.00342407 0.0112155 0.00375239 0.0271483 0.00399508 0.0195547 0.0042751 0.0300792 0.00394142 0.0230965 0.00817924 0.040567
22 3 O 2.48581 5.93312 50.6539 -1.2 1 0.157588 0.0460145 0.00350492 0.00860574 0.00171899 0.00867369 0.00438317 0.0225049 0.00399992 0.0138117 0.00427039 0.0255392 0.00460939 0.0212595 0.00601364 0.0299649 0.0041687 0.024631 0.00955424 0.0371634
23 1 Mg -1.87249 4.65776 55.2248 1.2 1 0.0520804 0.0248284 0.00671737 0.00612729 0.00169257 0.00570986 0.00223125 0.0230806 0.00291231 0.00935251 0.00346317 0.0292128 0.00282749 0.0207175 0.00406156 0.0332732 0.0040927 0.0244812 0.00689768 0.0483129
24 2 Si -1.93391 2.63706 53.3148 2.4 1 0.102197 0.0348677 0.00322312 0.00644432 0.00252097 0.00616173 0.00244596 0.0219318 0.00292451 0.0109808 0.00321029 0.0265783 0.00353211 0.0199218 0.00327642 0.03073 0.00423655 0.022931 0.00728026 0.0427714
25 3 O -1.97597 1.0939 53.2049 -1.2 1 0.0984299 0.0338361 0.00309206 0.00650003 0.00297768 0.00553218 0.00247775 0.021927 0.00292849 0.0102377 0.00294855 0.0273105 0.00355262 0.0194344 0.00421516 0.0309194 0.00395635 0.0227728 0.00755776 0.0430289
26 3 O -0.0467762 2.97103 46.8385 -1.2 1 0.252296 0.053115 0.0163512 0.0151132 0.00302911 0.00971537 0.00410101 0.020356 0.00648179 0.0168441 0.00596627 0.0240807 0.0069579 0.0193665 0.00805202 0.025461 0.00667024 0.0233004 0.0100898 0.0321946
27 3 O -3.19446 3.26115 54.1 -1.2 1 0.0799109 0.0298764 0.00421234 0.0054364 0.00202659 0.00568217 0.00206385 0.0221936 0.00269216 0.0104152 0.00256541 0.0270796 0.00316935 0.0201645 0.00346044 0.0316103 0.00347806 0.023077 0.00708229 0.0447909
28 3 O -0.653021 3.30219 53.9643 -1.2 1 0.0823102 0.0311712 0.00466365 0.00576981 0.00207291 0.00605845 0.00200312 0.0224302 0.00247607 0.0103394 0.00232091 0.0274813 0.00364567 0.0203571 0.0031842 0.0317997 0.0036018 0.0236377 0.0069106 0.0445371
29 1 Mg -3.26379 11.7632 57.4726 1.2 1 0.0221148 0.0131473 0.00519338 0.00639877 0.0011757 0.00602257 0.00140729 0.0244408 0.00204445 0.00937924 0.00170255 0.0311936 0.00205915 0.0216125 0.00217344 0.034261 0.00249963 0.025432 0.00354196 0.0538337
30 1 Mg -1.75014 11.5838 49.8362 1.2 1 0.184605 0.0472002 0.00697378 0.0125215 0.00431953 0.0124127 0.0048743 0.0248917 0.00571723 0.0157511 0.00546905 0.0291228 0.00449842 0.0243918 0.00702278 0.0330404 0.00685889 0.0281731 0.0102289 0.0389796
31 2 Si -1.18003 9.02138 47.9309 2.4 1 0.241094 0.0513024 0.0148161 0.0155021 0.00516921 0.0131069 0.00760699 0.0237229 0.00804443 0.0172429 0.00725556 0.026498 0.00511323 0.0231407 0.00691529 0.0300391 0.00896319 0.0276555 0.0121299 0.0345796
32 3 O -1.23224 10.5991 47.9811 -1.2 1 0.229247 0.0519859 0.0127659 0.0156478 0.00528439 0.0139916 0.00640104 0.0245862 0.00803408 0.0173045 0.00714658 0.0280006 0.00562723 0.0241709 0.00811478 0.0323629 0.00902645 0.0294015 0.0110319 0.0354378
33 3 O -1.79016 8.01447 51.8693 -1.2 1 0.13358 0.0401548 0.00251507 0.00877103 0.00331201 0.00765532 0.00276294 0.0229814 0.00359325 0.0121617 0.00397812 0.0279298 0.00413704 0.0208846 0.00478334 0.0314464 0.00555819 0.0245715 0.00914695 0.0409396
34 3 O -2.30986 8.37215 48.8528 -1.2 1 0.205079 0.0515385 0.00877774 0.012379 0.00402616 0.0103714 0.00608497 0.0238246 0.00622961 0.0169697 0.0052047 0.0268011 0.00431321 0.023181 0.00587172 0.0309704 0.00699539 0.0268799 0.00991977 0.0349024
35 1 Mg 0.154883 7.08234 46.8007 1.2 1 0.257866 0.0520875 0.017424 0.0160556 0.00570906 0.0134075 0.00838502 0.0238981 0.00787427 0.0176725 0.00731528 0.025356 0.00687161 0.0219317 0.00824454 0.028759 0.00959961 0.027438 0.012925 0.0318738
36 3 O 0.325447 8.50934 48.3809 -1.2 1 0.218136 0.0525576 0.010562 0.0142046 0.00415991 0.0120928 0.0062628 0.0244841 0.00676818 0.0170793 0.00602427 0.0264853 0.00500818 0.0240988 0.00548029 0.0299104 0.00749863 0.0276894 0.0106288 0.0345862
37 1 Mg 1.17014 7.10943 54.6487 1.2 1 0.0683401 0.0285865 0.005093 0.00583406 0.00184775 0.00610213 0.00257615 0.0230018 0.002382 0.0102614 0.00335559 0.02863 0.0039417 0.0212513 0.00368768 0.0333335 0.00350907 0.0243275 0.00706865 0.0471465
38 2 Si 1.2182 9.72776 56.4677 2.4 1 0.0337282 0.0186072 0.00635694 0.00670731 0.00137279 0.00610192 0.00219232 0.0234571 0.00196935 0.00850866 0.00361333 0.0290407 0.00253859 0.0217584 0.00464572 0.0342217 0.00345823 0.0251526 0.00662119 0.053548
39 3 O 1.18299 8.16307 56.5567 -1.2 1 0.0314325 0.0172071 0.00618221 0.00639951 0.00114851 0.00627192 0.00145387 0.0237243 0.00267205 0.00794726 0.00251665 0.0296749 0.00296574 0.0206774 0.00283863 0.0340213 0.00370704 0.0252181 0.00569004 0.0526605
40 3 O 1.28624 10.7248 52.7351 -1.2 1 0.112068 0.0366235 0.00265375 0.00792828 0.00227488 0.00933496 0.00318404 0.0244071 0.00338402 0.0118655 0.00428801 0.0289024 0.00447303 0.0224036 0.00503394 0.0327704 0.00412655 0.0262313 0.00803893 0.0443449
41 3 O -0.044888 10.4148 55.8 -1.2 1 0.0481145 0.022865 0.00570219 0.00623334 0.00134905 0.00617294 0.0021925 0.0237478 0.00174839 0.00938072 0.00266254 0.0292121 0.00284314 0.021571 0.00374236 0.034533 0.00304686 0.0256951 0.00619993 0.0510107
42 3 O 2.5075 10.4147 55.7959 -1.2 1 0.0440296 0.0223563 0.0065811 0.00637874 0.00131685 0.00604394 0.00205134 0.0238905 0.00185783 0.00919184 0.00271349 0.0292112 0.00293421 0.021728 0.0035022 0.0348465 0.00267206 0.0258622 0.00588512 0.0515936
43 1 Mg -0.262694 9.34741 52.2523 1.2 1 0.114664 0.039593 0.00332748 0.00818368 0.00287408 0.0078387 0.00256612 0.0241602 0.00344721 0.0118397 0.00389313 0.0288299 0.00401747 0.0217206 0.00507709 0.0323601 0.00455467 0.0259448 0.0085121 0.0422815
44 1 Mg 1.87648 9.01537 49.4629 1.2 1 0.185852 0.0515893 0.00555332 0.0114693 0.00303939 0.0106439 0.00626648 0.023866 0.00563531 0.0160478 0.00542428 0.0273846 0.00485471 0.0236769 0.00604671 0.0313841 0.00567444 0.0274336 0.0104336 0.0364327
45 2 Si 1.21415 11.3799 51.2378 2.4 1 0.149484 0.0456251 0.00210292 0.0105983 0.0029783 0.0107185 0.00405676 0.0247231 0.00455941 0.0144331 0.0051918 0.0278779 0.00451318 0.0243116 0.00588633 0.0330767 0.00490437 0.0280344 0.00999086 0.041913
46 3 O 1.31634 12.9512 51.3023 -1.2 1 0.147052 0.0432898 0.00260368 0.0101241 0.0026499 0.0112741 0.00366715 0.0250777 0.00448979 0.0144855 0.00363266 0.0295918 0.00480886 0.0250061 0.00447476 0.0337535 0.00546341 0.028265 0.00838 0.0427738
47 3 O 1.21372 10.4088 57.9704 -1.2 1 0.0167192 0.0103764 0.00410991 0.00678871 0.00104473 0.00627264 0.00143617 0.0247186 0.00197355 0.0082125 0.00253403 0.0303512 0.00223035 0.0216549 0.00278182 0.0343915 0.00237288 0.0254881 0.00353645 0.0549572
48 3 O -0.115718 10.7564 50.681 -1.2 1 0.156074 0.0449862 0.00352324 0.0107998 0.00362961 0.010435 0.00404125 0.024562 0.00436947 0.014017 0.00402859 0.0282729 0.00482437 0.0235197 0.00619881 0.0321878 0.00531591 0.027121 0.00993687 0.0407134
49 1 Mg -3.26386 9.35564 52.3622 1.2 1 0.124385 0.0391686 0.00205475 0.00806859 0.00220082 0.00930253 0.0036702 0.0238648 0.00384839 0.0123657 0.00450707 0.0283153 0.00380325 0.0219655 0.00500254 0.0323665 0.0045956 0.0257644 0.0088019 0.0412492
50 3 O 2.45216 10.7265 50.4558 -1.2 1 0.163835 0.0473987 0.00376101 0.0101266 0.00260418 0.0111698 0.00486962 0.024032 0.00500359 0.0155811 0.00467985 0.0279245 0.00423859 0.0244413 0.00622118 0.0327459 0.00545332 0.0276344 0.00970058 0.0398491
51 1 Mg -1.74187 9.47216 55.162 1.2 1 0.05482 0.0258423 0.00592256 0.00649202 0.00174398 0.00613777 0.00213028 0.0239198 0.0028527 0.00935131 0.00325598 0.0294371 0.00290424 0.0215624 0.00352584 0.0337824 0.00438496 0.0252464 0.00685594 0.0494058
52 2 Si -1.79268 7.3651 53.3773 2.4 1 0.0966422 0.0355143 0.00400291 0.00710556 0.00308989 0.00670833 0.0023168 0.0227734 0.00364312 0.0111604 0.00358476 0.0278886 0.00343382 0.0212692 0.0033821 0.032213 0.00500125 0.0241398 0.00745935 0.0442135
53 3 O -1.87004 5.81314 53.3412 -1.2 1 0.0964276 0.0328609 0.00317464 0.00623567 0.0025169 0.00662108 0.00206727 0.0221112 0.00344634 0.0102454 0.00333555 0.0274113 0.00319536 0.0200102 0.00393468 0.0320078 0.00384182 0.0236801 0.00777586 0.043512
54 3 O -1.19417 8.46968 46.4488 -1.2 1 0.270394 0.0523688 0.020097 0.0178442 0.00557969 0.0144403 0.00878269 0.02491 0.00829449 0.0176712 0.0077727 0.0258453 0.00617762 0.0215653 0.00908625 0.030085 0.0102431 0.029218 0.0119067 0.0314427
55 3 O -3.08034 8.06388 54.0271 -1.2 1 0.0817596 0.0298971 0.00361312 0.00607552 0.0021847 0.00743539 0.00230421 0.0232394 0.00277468 0.0107972 0.00295919 0.0278136 0.00309878 0.0214005 0.00353504 0.0331463 0.00426421 0.0247262 0.00772765 0.0459631
56 3 O -0.540223 8.07389 54.0204 -1.2 1 0.0768387 0.0306501 0.00513077 0.00592736 0.0024125 0.00592721 0.00135648 0.0233288 0.00254419 0.0101794 0.00296258 0.0281971 0.00310618 0.0211739 0.00380184 0.0332315 0.00395743 0.0251609 0.00758196 0.0462037
57 1 Mg -3.15101 16.5027 57.3761 1.2 1 0.0211385 0.0133718 0.00508238 0.00674144 0.00114082 0.00552917 0.00154878 0.0253611 0.00214832 0.00944353 0.00153925 0.0313353 0.00194541 0.0217486 0.00213174 0.0342929 0.00252753 0.0254408 0.0036011 0.0541531
58 1 Mg -1.6714 16.3544 49.8412 1.2 1 0.181599 0.0480712 0.00652159 0.0133988 0.00354264 0.0146494 0.00389997 0.0272646 0.00546051 0.0175432 0.00488545 0.0315999 0.00417467 0.0268406 0.00660519 0.0351575 0.00585196 0.0307218 0.00938232 0.042073
59 2 Si -1.18567 13.8526 47.9314 2.4 1 0.23166 0.0527792 0.014259 0.0168809 0.00492663 0.0175232 0.00537257 0.0275326 0.00882957 0.019382 0.00612352 0.0307289 0.00566573 0.0285493 0.00639046 0.0345987 0.00962487 0.0320741 0.0112178 0.0386798
60 3 O -1.09664 15.4205 47.9915 -1.2 1 0.232066 0.0523983 0.0140897 0.0174412 0.00516692 0.0190838 0.00507478 0.028133 0.00838983 0.0198852 0.0064265 0.0311946 0.00595554 0.0282122 0.00794807 0.0356266 0.00886939 0.0332286 0.0109219 0.0394408
61 3 O -1.73493 12.7491 51.7772 -1.2 1 0.135504 0.0405432 0.0024777 0.0101999 0.00325587 0.00980348 0.00175074 0.0252417 0.00405547 0.0136226 0.00309143 0.0297811 0.00464676 0.0239566 0.00486871 0.033562 0.00532513 0.0270635 0.0084603 0.04391
62 3 O -2.36115 13.2717 48.8238 -1.2 1 0.206415 0.0522546 0.00922886 0.0145827 0.00476574 0.0141208 0.00531089 0.0272119 0.00673933 0.019187 0.00531268 0.0305125 0.00475187 0.0272006 0.00595279 0.0345803 0.00781249 0.031061 0.0101722 0.0386115
63 1 Mg -0.159928 11.7639 46.8533 1.2 1 0.259909 0.0529183 0.0181715 0.0189222 0.00635222 0.0195019 0.00748342 0.0284463 0.00958911 0.0195191 0.00798609 0.0302612 0.00684647 0.0273136 0.00805376 0.0333656 0.0108217 0.0328716 0.0132727 0.0358082
64 3 O 0.2623 13.1866 48.413 -1.2 1 0.215595 0.0523234 0.0107415 0.0155129 0.00435181 0.0158498 0.00483078 0.027238 0.00732074 0.0185535 0.00494146 0.0295856 0.00533402 0.0282613 0.00543203 0.0339303 0.00804886 0.032319 0.0106228 0.0389865
65 1 Mg 1.27687 11.7924 54.5755 1.2 1 0.0725557 0.0297987 0.00471126 0.00650969 0.001647 0.00680623 0.00270105 0.0240499 0.0026943 0.0109792 0.00260711 0.0296226 0.00396499 0.0230803 0.00344902 0.0343429 0.0035892 0.0254387 0.00625598 0.0482473
66 2 Si 1.30027 14.4438 56.38 2.4 1 0.0348952 0.0190711 0.00604275 0.00707516 0.00149338 0.00567792 0.0019724 0.0248451 0.00223731 0.00914287 0.00308499 0.0294696 0.00255169 0.0222421 0.00367829 0.0346984 0.00312293 0.0257334 0.00551475 0.0544815
67 3 O 1.2566 12.9092 56.5018 -1.2 1 0.0303899 0.0169386 0.00608243 0.00691629 0.00128967 0.00559985 0.00183898 0.0246555 0.00336245 0.00837181 0.00203324 0.0302323 0.0030158 0.0214817 0.00273251 0.0344493 0.00376624 0.0256818 0.00489456 0.0541474
68 3 O 1.36565 15.4813 52.729 -1.2 1 0.111413 0.0366621 0.00155014 0.00872138 0.0019837 0.0101866 0.00370415 0.025702 0.00327829 0.0130291 0.00358042 0.0303801 0.0042741 0.02373 0.00419052 0.0340591 0.0041879 0.0277624 0.00701762 0.0465131
69 3 O 0.0189963 15.1197 55.738 -1.2 1 0.0489195 0.0230275 0.00533511 0.0068437 0.00138331 0.0060542 0.00251224 0.0250022 0.00195607 0.0100227 0.00246556 0.0298264 0.00264871 0.0225203 0.00374994 0.0348136 0.00304982 0.0262245 0.00537375 0.0524817
70 3 O 2.57088 15.1278 55.7016 -1.2 1 0.0444342 0.0228638 0.00620015 0.00686245 0.00151229 0.00574735 0.00265054 0.025009 0.00208428 0.00973765 0.00265676 0.0297373 0.0025915 0.0224555 0.00409716 0.0351282 0.0030321 0.0263543 0.00598291 0.0528538
71 1 Mg -0.206989 14.1049 52.2121 1.2 1 0.118403 0.0407641 0.00218475 0.00948203 0.00269498 0.00894936 0.00258392 0.0258087 0.0036486 0.0134855 0.00347163 0.0305455 0.00387677 0.0243451 0.004066 0.0339487 0.00401421 0.0276786 0.00751501 0.0443959
72 1 Mg 1.82591 13.8102 49.4556 1.2 1 0.184721 0.0518383 0.00540841 0.0124323 0.0030954 0.0132591 0.00491677 0.0262512 0.00576436 0.0176821 0.00513081 0.0299354 0.00515426 0.0269666 0.00586572 0.0349047 0.00645681 0.0306433 0.00987418 0.0398249
73 2 Si 1.29285 16.1518 51.2434 2.4 1 0.148707 0.046158 0.00157848 0.0112743 0.00268745 0.0121575 0.00420305 0.0264614 0.0045859 0.0158716 0.00525648 0.0295273 0.00421724 0.026279 0.00603027 0.0344757 0.00399991 0.0302539 0.00940261 0.0444303
74 3 O 1.39496 17.7199 51.3047 -1.2 1 0.142343 0.0426921 0.00196133 0.0104012 0.00214882 0.0120333 0.00358044 0.0264762 0.00413437 0.0150552 0.0034202 0.0307233 0.00400306 0.0253113 0.00421304 0.0347191 0.0050069 0.0294662 0.00784861 0.0447369
75 3 O 1.32226 15.1457 57.8817 -1.2 1 0.0165547 0.0107993 0.00411042 0.00708348 0.00114864 0.00556719 0.00152894 0.0252229 0.00194091 0.00836941 0.00235775 0.0306978 0.00215868 0.0216353 0.00291814 0.0342451 0.00285823 0.0252041 0.00387081 0.055279
76 3 O -0.0269106 15.5178 50.6688 -1.2 1 0.157529 0.0458812 0.00371067 0.0119294 0.00366196 0.0123799 0.00402849 0.0264246 0.00433105 0.0154702 0.00331448 0.0300972 0.00430437 0.0263338 0.00570489 0.0341425 0.0040349 0.029742 0.00870075 0.0431808
77 1 Mg -3.18391 14.1057 52.3125 1.2 1 0.124963 0.0404797 0.00142547 0.00924818 0.0019417 0.0104417 0.0030123 0.0255087 0.0037326 0.0140942 0.00316724 0.03024 0.00395226 0.0247196 0.00447023 0.033827 0.00403867 0.0275133 0.00750149 0.0440132
78 3 O 2.52432 15.503 50.4579 -1.2 1 0.16087 0.0478633 0.00377039 0.0109504 0.00254933 0.0127375 0.00447094 0.0267451 0.00476638 0.0174802 0.00390588 0.0299629 0.00436393 0.0270597 0.00589869 0.0346146 0.00475228 0.0298712 0.00869708 0.0426482
79 1 Mg -1.70503 14.1647 55.1251 1.2 1 0.0546832 0.0259006 0.00591111 0.00718898 0.00158573 0.00611328 0.00235927 0.0249095 0.00318322 0.0100468 0.00340895 0.0301636 0.00236406 0.0226934 0.00394326 0.0346909 0.00393433 0.026097 0.00649958 0.0512749
80 2 Si -1.68657 12.0817 53.2536 2.4 1 0.0990278 0.0360147 0.00380723 0.00814152 0.00270061 0.00756044 0.00157288 0.0246809 0.00397162 0.0120268 0.00286884 0.0290074 0.00409217 0.0236376 0.00332404 0.0337371 0.00494229 0.0262256 0.00715792 0.0467862
81 3 O -1.73216 10.5206 53.2381 -1.2 1 0.0968507 0.0339815 0.00370822 0.00711864 0.0027807 0.00753859 0.00169317 0.0234349 0.00344517 0.0106439 0.00341406 0.0286173 0.00338672 0.0217934 0.00409783 0.0334849 0.00465332 0.0251429 0.00832915 0.0460279
82 3 O -1.21337 13.3381 46.4311 -1.2 1 0.271221 0.0523659 0.0202757 0.0208057 0.00699208 0.0203716 0.00736114 0.0304326 0.00979856 0.020731 0.00716588 0.0313304 0.00609425 0.0270367 0.00875802 0.035728 0.012537 0.0350282 0.0130803 0.0360746
83 3 O -2.93623 12.7654 53.9693 -1.2 1 0.0848964 0.0318815 0.00351869 0.00681175 0.00181023 0.00808964 0.00192418 0.0246824 0.00304609 0.0115625 0.00237901 0.0291847 0.00341979 0.02335 0.00340014 0.0341794 0.00393017 0.0260478 0.00665968 0.0480862
84 3 O -0.398749 12.7575 53.8783 -1.2 1 0.081979 0.031795 0.00402763 0.00706705 0.00266403 0.0060459 0.00141576 0.0248935 0.00290863 0.0111606 0.00232885 0.0293016 0.00324044 0.0235458 0.00362715 0.0344276 0.00403446 0.0263271 0.00648714 0.0480297
85 1 Mg -3.06588 21.2254 57.4037 1.2 1 0.0210239 0.0127088 0.00527507 0.00671338 0.00108132 0.00582918 0.00147026 0.0253096 0.00177025 0.00961162 0.00174128 0.031344 0.002028 0.021675 0.00199054 0.0342243 0.00278901 0.0256506 0.00378264 0.0541429
86 1 Mg -1.5831 21.1217 49.8405 1.2 1 0.181706 0.0484976 0.00649858 0.0135348 0.00324037 0.0156258 0.00379876 0.0275484 0.00489663 0.0176438 0.00487283 0.0316619 0.00401932 0.0267949 0.0063171 0.0355944 0.0057152 0.0312576 0.00950552 0.0421833
87 2 Si -1.09384 18.6291 47.9287 2.4 1 0.232317 0.0538802 0.0137707 0.0178175 0.00401108 0.0202432 0.00485213 0.029065 0.00809817 0.0205045 0.00571835 0.0322257 0.00624297 0.0294588 0.00614788 0.0361713 0.00942386 0.0339403 0.010756 0.0412735
88 3 O -1.02071 20.1985 47.9911 -1.2 1 0.231057 0.0529201 0.0137272 0.0179031 0.00444136 0.0206877 0.00478844 0.0289058 0.00768846 0.0203608 0.00627304 0.0320685 0.00611569 0.028455 0.00786775 0.0366054 0.00836942 0.0340388 0.0106919 0.041087
89 3 O -1.65002 17.5002 51.771 -1.2 1 0.135069 0.0411885 0.00188144 0.0107354 0.00280096 0.011059 0.00211251 0.0264004 0.00356812 0.0144385 0.00300826 0.0304888 0.00441876 0.0246781 0.00432703 0.0345595 0.00513004 0.0283053 0.00774528 0.0450767
90 3 O -2.26174 18.0434 48.8281 -1.2 1 0.204645 0.0528617 0.00897132 0.015225 0.00372654 0.0167585 0.00477739 0.0289052 0.00619115 0.0199719 0.00456434 0.0317745 0.00475338 0.0282498 0.00575499 0.0360215 0.00708303 0.0329728 0.0094207 0.0411295
91 1 Mg -0.0440435 16.5651 46.8269 1.2 1 0.259106 0.0543022 0.0179233 0.0203095 0.00540304 0.0239898 0.00597393 0.0318331 0.0100039 0.022225 0.00682728 0.0334507 0.00717502 0.0298022 0.00869674 0.0360004 0.0100656 0.0363563 0.0125083 0.040147
92 3 O 0.37001 17.9877 48.3925 -1.2 1 0.2156 0.053396 0.010354 0.0162737 0.00401956 0.0180495 0.00396352 0.0292015 0.00691622 0.0198946 0.00432617 0.0314999 0.00547109 0.029454 0.00555822 0.0354592 0.00773843 0.0346223 0.010106 0.0417383
93 1 Mg 1.38299 16.5012 54.5367 1.2 1 0.0729369 0.0300143 0.00422352 0.0072521 0.00146656 0.00680257 0.00318587 0.0250624 0.00235695 0.0116636 0.0023598 0.0303655 0.00371632 0.0238532 0.00357451 0.0348843 0.00370608 0.0262286 0.00569884 0.0494392
94 2 Si 1.37941 19.1756 56.3768 2.4 1 0.0341752 0.0188413 0.00626344 0.00713625 0.00123018 0.00568105 0.00218706 0.0250885 0.00214442 0.00938093 0.00333431 0.0294218 0.00264626 0.0224478 0.00391811 0.0346289 0.00340294 0.0258235 0.00572562 0.0546166
95 3 O 1.33589 17.615 56.4449 -1.2 1 0.0332496 0.0184375 0.00585988 0.00715793 0.00119262 0.00509261 0.00209576 0.0251531 0.00310868 0.00872678 0.00202786 0.0301374 0.00317022 0.0215328 0.00257443 0.0346724 0.00434608 0.0257288 0.00495434 0.0538481
96 3 O 1.45147 20.239 52.7294 -1.2 1 0.109169 0.0366326 0.00162757 0.00874016 0.00153825 0.010864 0.00369365 0.0261167 0.00280715 0.0131994 0.00348168 0.0304018 0.00406617 0.023713 0.00410742 0.0342071 0.0040329 0.0282038 0.0069201 0.0469786
97 3 O 0.0960515 19.872 55.7628 -1.2 1 0.0462632 0.0225758 0.00577582 0.00690139 0.00125169 0.00600215 0.00258952 0.0252051 0.00183358 0.00993362 0.00250489 0.0296904 0.00269297 0.0223871 0.00362088 0.0348337 0.00344145 0.0265533 0.00552868 0.0527287
98 3 O 2.64309 19.8636 55.6983 -1.2 1 0.0431373 0.0224028 0.00650292 0.00691246 0.00137468 0.00586772 0.00272975 0.0250997 0.0019992 0.009918 0.00246168 0.0295456 0.00274227 0.022479 0.00339227 0.0350114 0.00328639 0.0264422 0.00577195 0.0529292
99 1 Mg -0.126194 18.8651 52.2079 1.2 1 0.116227 0.0407086 0.00231754 0.00958168 0.00233039 0.00958134 0.00273618 0.0263112 0.00296291 0.0140162 0.00334925 0.0306656 0.00377511 0.0244982 0.00397148 0.034566 0.00386755 0.0287734 0.00745263 0.045437
100 1 Mg 1.92402 18.5815 49.4545 1.2 1 0.185254 0.0528573 0.00511214 0.0130077 0.00235836 0.0147579 0.00489172 0.0277418 0.00490886 0.0190528 0.00419027 0.0311178 0.00501608 0.0278489 0.00487357 0.0360768 0.00611999 0.0326653 0.00940913 0.0418915
101 2 Si 1.38106 20.9117 51.2443 2.4 1 0.147765 0.046219 0.00166923 0.0113376 0.00254381 0.0129125 0.00429143 0.0265671 0.00399462 0.0159122 0.00490673 0.0295437 0.00424352 0.0261169 0.00600604 0.0347601 0.00383448 0.0307478 0.00938791 0.0448622
102 3 O 1.48527 22.4795 51.3054 -1.2 1 0.141776 0.0425403 0.0018794 0.0105059 0.00206219 0.0126359 0.00351171 0.0261381 0.00386761 0.0149475 0.00333455 0.0305715 0.00390299 0.0249364 0.00423068 0.0346385 0.00503086 0.0296882 0.00792666 0.0448902
103 3 O 1.42824 19.8494 57.8862 -1.2 1 0.0163777 0.0104414 0.00406825 0.00714531 0.00107175 0.00558275 0.00149731 0.0255447 0.00169768 0.0085731 0.00240872 0.0306707 0.00237038 0.0215475 0.00283359 0.0343861 0.00302635 0.0255091 0.00398867 0.0552404
104 3 O 0.0615419 20.2804 50.6669 -1.2 1 0.155467 0.045893 0.00365555 0.0118918 0.00356564 0.0132092 0.00453199 0.0268413 0.00381647 0.0157043 0.00317323 0.0302195 0.00442206 0.0262923 0.00546319 0.0348758 0.00393696 0.0304638 0.00879038 0.0441044
105 1 Mg -3.09665 18.8643 52.3122 1.2 1 0.12363 0.0404082 0.00127652 0.0094545 0.00146856 0.0110666 0.00319046 0.0261354 0.00301151 0.0146156 0.00289001 0.0306099 0.00375339 0.0251194 0.0037146 0.0343242 0.00417075 0.0283945 0.00707973 0.044969
106 3 O 2.61548 20.2646 50.4626 -1.2 1 0.158678 0.0475631 0.00312143 0.0111122 0.00187828 0.013529 0.00430845 0.026908 0.00384331 0.0171364 0.00353793 0.0300486 0.00411501 0.0265531 0.0053065 0.0351805 0.00444046 0.0304286 0.00859066 0.0435079
107 1 Mg -1.61689 18.9207 55.1216 1.2 1 0.0534164 0.0258666 0.00618248 0.00743014 0.00148317 0.00609835 0.00241943 0.0254499 0.00252983 0.0102707 0.00330136 0.0302759 0.0025439 0.0227189 0.00386662 0.0345442 0.00420631 0.0264044 0.00625974 0.0515427
108 2 Si -1.61799 16.8108 53.2437 2.4 1 0.0977175 0.0361242 0.00321258 0.00870161 0.00233426 0.00755231 0.00168054 0.0254992 0.00347989 0.0126905 0.00276631 0.0297068 0.00345812 0.0244691 0.00292476 0.0345701 0.0046273 0.0272925 0.00661352 0.0483432
109 3 O -1.68586 15.2616 53.1773 -1.2 1 0.0973356 0.0348008 0.00330198 0.00835192 0.00221655 0.00782801 0.00182906 0.0249364 0.00356651 0.0118802 0.00299726 0.0299274 0.00326897 0.0234622 0.00445057 0.0344484 0.00381336 0.0267837 0.00770149 0.048107
110 3 O -1.12868 18.1227 46.4249 -1.2 1 0.268736 0.0541242 0.0196092 0.0214332 0.00588899 0.0239104 0.00629786 0.0326199 0.0087212 0.0219388 0.00598472 0.0337388 0.0070334 0.0278648 0.00865694 0.0377959 0.0116771 0.0372474 0.0125032 0.0400398
111 3 O -2.86869 17.5004 53.9655 -1.2 1 0.083193 0.0318319 0.00348843 0.00720542 0.00135081 0.00780724 0.00212517 0.0254152 0.00252093 0.0120154 0.00205948 0.0295903 0.00305253 0.0241342 0.00289854 0.0346248 0.00372008 0.0267304 0.00618047 0.0490427
112 3 O -0.29975 17.4898 53.8707 -1.2 1 0.080405 0.0318092 0.00421984 0.00742594 0.00241539 0.00617069 0.00144521 0.0254056 0.00248883 0.0114094 0.00219991 0.029411 0.003279 0.0238764 0.00327591 0.0349514 0.00402522 0.0271916 0.00634574 0.0489424
113 1 Mg -2.89845 25.9889 57.3511 1.2 1 0.0209186 0.0121859 0.00531272 0.00716263 0.000780243 0.00647356 0.00140599 0.0248173 0.00169074 0.00941864 0.00161247 0.0314627 0.00198415 0.0214582 0.00194232 0.0338268 0.00268028 0.0258962 0.00360358 0.0544626
114 1 Mg -1.48778 25.88 49.8402 1.2 1 0.181797 0.0479907 0.00628663 0.0138642 0.00339572 0.0160508 0.003612 0.0271381 0.00451329 0.0177033 0.00493999 0.0317411 0.00392144 0.0264889 0.00633525 0.0352772 0.00578763 0.0312043 0.00973062 0.0421359
115 2 Si -1.00491 23.3922 47.9274 2.4 1 0.234822 0.0541564 0.0141759 0.0185297 0.0043937 0.0215008 0.00490498 0.0291228 0.00788712 0.0205379 0.0055331 0.0325981 0.00619992 0.0288946 0.00664449 0.0362426 0.00932602 0.0340597 0.010987 0.0410512
116 3 O -0.927602 24.9615 47.9909 -1.2 1 0.23087 0.0528028 0.0136186 0.0180542 0.00440823 0.0211 0.00450194 0.0287475 0.00739984 0.0202073 0.00593674 0.0321564 0.00582898 0.0280858 0.00774467 0.0364246 0.00846581 0.0340491 0.0106258 0.0408461
117 3 O -1.55795 22.2588 51.7696 -1.2 1 0.134242 0.0409823 0.00184496 0.0108545 0.00276648 0.0118847 0.00222172 0.0260796 0.00307743 0.0143449 0.00305664 0.0304847 0.00428485 0.0244157 0.00420104 0.0344931 0.00515094 0.0286563 0.00794342 0.0451939
118 3 O -2.17411 22.8111 48.8277 -1.2 1 0.202783 0.0524242 0.00868934 0.0152507 0.00349068 0.0174433 0.00442441 0.0286969 0.00535221 0.0197216 0.00439845 0.0317879 0.00457376 0.0277105 0.0058991 0.0360767 0.00674585 0.0331261 0.00956496 0.0411329
119 1 Mg 0.0423997 21.3296 46.8225 1.2 1 0.258593 0.054676 0.0180743 0.0206983 0.00553333 0.0253542 0.00624162 0.0322292 0.00903845 0.0222613 0.00657654 0.0338485 0.00715791 0.0294948 0.00907498 0.0365681 0.00962399 0.0366722 0.0123363 0.0406937
120 3 O 0.458537 22.7495 48.3911 -1.2 1 0.215327 0.0532942 0.010264 0.0165099 0.00416793 0.0188206 0.00378092 0.0289368 0.006281 0.0197699 0.00406287 0.0316038 0.00543926 0.029014 0.00569284 0.0356204 0.0076369 0.0347899 0.0102026 0.0417881