ITEM: TIMESTEP
4700
ITEM: NUMBER OF ATOMS
10500
ITEM: BOX BOUNDS xy xz yz pp pp pp
0	8.9688	2.9896
0	118.725	0
0	252.977	0
ITEM: ATOMS id type element xu yu zu q Q_1 Q_2 Q_3 Q_4 Q_5 Q_6 Q_7 Q_8 Q_9 Q_10 Q_11 Q_12 Q_13 Q_14 Q_15 Q_16 Q_17 Q_18 Q_19 Q_20 Q_21
1 1 Mg -3.32973 7.07496 56.7333 1.2 1 0.0210013 0.0180936 0.00525614 0.00798483 0.0014134 0.00696495 0.00161234 0.0222664 0.00164541 0.0119124 0.00197978 0.0272859 0.0023167 0.0211538 0.00294651 0.030876 0.00259395 0.0265091 0.00389743 0.039948
2 1 Mg -1.86415 7.14784 49.3351 1.2 1 0.172699 0.0472011 0.00638806 0.0116466 0.00391956 0.00767903 0.00507559 0.0208297 0.00520388 0.0147486 0.00459832 0.0238048 0.00462537 0.0212509 0.00540841 0.0282665 0.00603044 0.0248324 0.00697106 0.0273668
3 2 Si -0.503836 4.1659 47.0532 2.4 1 0.227229 0.051574 0.0128454 0.0138344 0.00308662 0.0084566 0.0051102 0.0190317 0.00649063 0.0174589 0.00491041 0.0229063 0.00575654 0.019474 0.00670781 0.0252613 0.00797439 0.0247006 0.00815494 0.0260623
4 3 O -0.721027 5.72351 46.6014 -1.2 1 0.242654 0.0514853 0.0161728 0.0157255 0.0051327 0.0102957 0.00747639 0.0210172 0.00704235 0.0178834 0.00618894 0.0231039 0.00626731 0.0198466 0.00689751 0.0255504 0.00810821 0.0256404 0.00813464 0.0243164
5 3 O -2.16635 3.48613 51.1571 -1.2 1 0.126961 0.0415527 0.00155933 0.00798019 0.00153629 0.00607477 0.00291836 0.0198359 0.00339239 0.0122759 0.00333371 0.0230113 0.00377873 0.0189607 0.00337965 0.027781 0.00495132 0.0242374 0.00601548 0.0299524
6 3 O -1.70271 3.72179 48.0573 -1.2 1 0.199087 0.0511022 0.00932101 0.0114244 0.00259442 0.00755525 0.00469665 0.0188414 0.00519904 0.0155742 0.00462241 0.0221632 0.00417056 0.0200134 0.00509689 0.0260434 0.00659217 0.0242324 0.00723387 0.0253433
7 1 Mg 1.63413 2.71339 46.3677 1.2 1 0.24114 0.0511481 0.0153869 0.0154815 0.00288151 0.0105392 0.00435956 0.0185314 0.00567442 0.0158867 0.00537216 0.0219631 0.00720986 0.0185034 0.00739833 0.0243175 0.00814566 0.0244108 0.00879957 0.0256905
8 3 O 1.07813 4.08211 47.6976 -1.2 1 0.213386 0.0508554 0.0109661 0.0134304 0.00248881 0.00913381 0.00426398 0.018728 0.00520845 0.0159016 0.004673 0.02167 0.00464453 0.0190576 0.00667072 0.0260204 0.00603815 0.024452 0.00863541 0.0270356
9 1 Mg 1.02013 2.38032 53.8905 1.2 1 0.0620645 0.0320613 0.00493018 0.00690044 0.00143299 0.00505843 0.00267827 0.021353 0.0030949 0.0111507 0.00317106 0.0249657 0.0033617 0.0201924 0.0029005 0.0298605 0.00296424 0.0255318 0.00508442 0.0350331
10 2 Si 0.973854 5.00268 55.8437 2.4 1 0.0271298 0.0212687 0.00593957 0.00868543 0.00176546 0.00639286 0.00197297 0.0218056 0.0023416 0.0110593 0.00328889 0.0255426 0.00278119 0.021058 0.00396507 0.0312385 0.00363506 0.0266641 0.00486395 0.0399281
11 3 O 0.884048 3.41047 55.8914 -1.2 1 0.0266952 0.0213737 0.00563886 0.0079761 0.00150921 0.00582141 0.00199075 0.0217294 0.00357603 0.0107643 0.00245861 0.026113 0.00355987 0.0204246 0.00264074 0.0303784 0.00365872 0.0262585 0.00414363 0.0392109
12 3 O 1.04069 6.0297 52.0707 -1.2 1 0.101486 0.0396978 0.00246065 0.00780282 0.00240525 0.00630959 0.00385918 0.0210982 0.00381141 0.0128156 0.00302946 0.0240146 0.00371266 0.0205384 0.00359166 0.0291787 0.00467717 0.0250782 0.00607781 0.0313464
13 3 O -0.32307 5.74131 55.2207 -1.2 1 0.0404181 0.0262607 0.00590618 0.00732418 0.00186684 0.00564672 0.0020513 0.0209581 0.00246939 0.0111861 0.00234875 0.0260508 0.00299273 0.0207015 0.00291577 0.0307383 0.00263055 0.0260637 0.00462575 0.0373543
14 3 O 2.18558 5.64603 55.1344 -1.2 1 0.0403665 0.026273 0.00629578 0.00736665 0.00171442 0.00639801 0.00217837 0.0215663 0.00212754 0.0113752 0.00267691 0.0258911 0.00315026 0.0212005 0.00325079 0.0309803 0.00340469 0.0262306 0.00471313 0.0371694
15 1 Mg -0.568966 4.80943 51.3284 1.2 1 0.121975 0.0425498 0.000900645 0.00831114 0.00212588 0.00581943 0.00308941 0.0201212 0.00365401 0.012561 0.00304665 0.0239025 0.00365139 0.0194859 0.00336964 0.0278065 0.005087 0.0244144 0.00593528 0.0291337
16 1 Mg 2.53647 4.03323 49.0174 1.2 1 0.182347 0.0494831 0.00631573 0.011418 0.00280359 0.00749966 0.00466392 0.0184214 0.00380046 0.0148173 0.00350087 0.0222995 0.00393111 0.019717 0.00529507 0.0271259 0.00531389 0.0246097 0.00803871 0.0264772
17 2 Si 1.06784 6.72922 50.5388 2.4 1 0.146168 0.0465092 0.00229059 0.00943122 0.00306284 0.00801767 0.00453376 0.0201606 0.00425002 0.0138804 0.00430365 0.0230048 0.00408677 0.0211227 0.0051023 0.029322 0.00549282 0.0256355 0.00774192 0.0289226
18 3 O 1.38843 8.28608 50.6637 -1.2 1 0.144656 0.0460017 0.00256775 0.0098036 0.0030211 0.00856757 0.00425589 0.0206062 0.00474937 0.0143835 0.00375112 0.0246779 0.00442776 0.0218219 0.00399283 0.0292682 0.00609376 0.0253448 0.00690154 0.0300776
19 3 O 1.22435 5.74485 57.4407 -1.2 1 0.014249 0.015234 0.00421353 0.00862866 0.00160771 0.0067984 0.00144855 0.0229 0.00191914 0.0115024 0.00210732 0.0273652 0.00304308 0.0212454 0.00306146 0.0307269 0.00302847 0.0265177 0.00338967 0.0414733
20 3 O -0.236868 6.17603 49.8692 -1.2 1 0.162009 0.0461805 0.00526405 0.0108578 0.00358106 0.00735562 0.00468526 0.020604 0.00494848 0.0147674 0.0026776 0.0228365 0.00360577 0.0209838 0.0040719 0.0273978 0.00601416 0.0250245 0.00677191 0.0289236
21 1 Mg -3.44324 4.77952 52.0458 1.2 1 0.109323 0.0397475 0.00111429 0.00750529 0.00234084 0.00627071 0.00285885 0.0198887 0.00369098 0.0123447 0.00332697 0.0237922 0.00338542 0.0202548 0.0032293 0.0283518 0.00443802 0.0243631 0.00597633 0.0302765
22 3 O 2.46 6.15764 49.9828 -1.2 1 0.15016 0.0467634 0.00300407 0.00897373 0.00292911 0.0082986 0.00457116 0.0206264 0.0039873 0.0141887 0.0039228 0.0227589 0.00454706 0.0209788 0.00499404 0.028445 0.00514184 0.0255931 0.00777282 0.028653
23 1 Mg -1.85656 4.78189 54.6076 1.2 1 0.0467764 0.0290297 0.00608979 0.00698686 0.00198422 0.00566173 0.00213544 0.021357 0.00296459 0.0112905 0.00336741 0.026272 0.00254431 0.0207038 0.00378823 0.029966 0.00372966 0.0257722 0.00503384 0.0364762
24 2 Si -1.86504 2.77836 52.5634 2.4 1 0.0938827 0.0368689 0.0027182 0.00694733 0.0022025 0.00494056 0.0021224 0.0199781 0.00328083 0.0113722 0.00327248 0.023619 0.00305282 0.0193845 0.00314587 0.0278587 0.00471091 0.0242158 0.00560794 0.0321845
25 3 O -1.98457 1.23805 52.575 -1.2 1 0.0933886 0.0369047 0.00291382 0.00742525 0.0021248 0.0048731 0.00212753 0.0198692 0.00322078 0.0105618 0.00301216 0.0235177 0.00333666 0.0184254 0.00326634 0.0276575 0.00370768 0.0238971 0.00594814 0.0323322
26 3 O -0.348961 3.23083 45.8812 -1.2 1 0.264114 0.0510796 0.0190992 0.0162872 0.00457295 0.00952375 0.00642287 0.0184156 0.00706987 0.0178897 0.00663369 0.0226211 0.00788636 0.0180944 0.00935416 0.0244119 0.00817865 0.0239084 0.0106024 0.0267008
27 3 O -3.02491 3.32711 53.5567 -1.2 1 0.0710753 0.0340765 0.00459205 0.00650638 0.00172271 0.00517802 0.00166296 0.0205024 0.00228679 0.0114338 0.00283808 0.0242644 0.00240825 0.0204903 0.00305247 0.0293775 0.00360063 0.0247736 0.005146 0.034084
28 3 O -0.503225 3.41121 53.1805 -1.2 1 0.0809183 0.0351807 0.00301147 0.00651316 0.00212259 0.00532965 0.00165602 0.0208601 0.00321401 0.0114488 0.00273492 0.0238936 0.00308656 0.0202591 0.00254109 0.0289523 0.00420923 0.0250659 0.0042701 0.0332885
29 1 Mg -3.29661 11.9449 57.1961 1.2 1 0.0195771 0.0155769 0.00463528 0.00804351 0.00131067 0.00664068 0.00121507 0.0215797 0.00204277 0.0108162 0.00204802 0.02761 0.00257845 0.0210522 0.00263992 0.0306287 0.0023978 0.0261377 0.0043372 0.040702
30 1 Mg -1.62147 11.7823 49.1879 1.2 1 0.182102 0.0487902 0.00815974 0.013011 0.00382641 0.0123509 0.00331556 0.0231755 0.00601684 0.0163973 0.00523505 0.026262 0.004848 0.0231395 0.00626628 0.02943 0.00650879 0.0255419 0.00837978 0.0294014
31 2 Si -1.22187 9.39957 47.408 2.4 1 0.230233 0.0527269 0.0152142 0.0164474 0.0049341 0.0109774 0.00738747 0.0216698 0.00909457 0.0177537 0.00736082 0.0248036 0.00532788 0.0230073 0.00533516 0.028691 0.0101994 0.0256329 0.00986801 0.0268537
32 3 O -1.2089 10.8883 47.5271 -1.2 1 0.21842 0.0529025 0.0127838 0.0158656 0.00506283 0.0126054 0.00569794 0.0230834 0.00792003 0.0178914 0.00704332 0.0254652 0.00520042 0.0232266 0.00734876 0.0303955 0.00909659 0.0265256 0.00939623 0.0270053
33 3 O -1.55677 8.22533 51.1888 -1.2 1 0.130895 0.041956 0.00200873 0.00962891 0.00383372 0.006869 0.00292401 0.0207855 0.00430301 0.0138112 0.00415313 0.0250641 0.00429387 0.0212304 0.00400532 0.0289847 0.00518335 0.0245878 0.00656797 0.0310066
34 3 O -2.40593 8.62719 48.0644 -1.2 1 0.200906 0.0532609 0.00966843 0.0130972 0.0046923 0.00919801 0.00610315 0.0217946 0.00661912 0.017256 0.00527226 0.0247523 0.00442787 0.0225008 0.00547629 0.0293599 0.00766366 0.0261086 0.00786936 0.027088
35 1 Mg -0.117381 7.41405 45.747 1.2 1 0.271185 0.0519905 0.0213723 0.0191365 0.00714595 0.0134734 0.0106911 0.0237296 0.00922876 0.0188368 0.00725964 0.0248059 0.00801838 0.0220346 0.00870732 0.0274856 0.0109544 0.0281472 0.0114204 0.0253571
36 3 O 0.241886 8.84589 47.8457 -1.2 1 0.208253 0.0534391 0.0108245 0.0143618 0.00449469 0.010481 0.00660898 0.0223387 0.00797649 0.0174555 0.00624388 0.0248931 0.00559538 0.0237614 0.0058841 0.0291104 0.00854328 0.0271078 0.00850308 0.0275749
37 1 Mg 1.4301 7.28616 54.0209 1.2 1 0.065683 0.0328677 0.00449252 0.00687492 0.00226651 0.00603193 0.00267732 0.0212355 0.00279582 0.0122664 0.00274633 0.0251785 0.00330907 0.0221167 0.00332439 0.0308122 0.00353219 0.0254865 0.00535388 0.034286
38 2 Si 1.319 9.79739 55.963 2.4 1 0.0311521 0.0213567 0.00604156 0.00874108 0.00165011 0.00602456 0.0024283 0.0208559 0.00208322 0.0111405 0.00295484 0.0256621 0.00301516 0.021735 0.00438983 0.0306477 0.00320358 0.0257172 0.00508619 0.0398752
39 3 O 1.25666 8.25308 55.9963 -1.2 1 0.0289092 0.0211895 0.00603716 0.00839009 0.0013124 0.00645897 0.00204543 0.021229 0.00300676 0.0111611 0.00192379 0.0262175 0.00312561 0.0214753 0.00270126 0.0308317 0.00335266 0.0261532 0.00433095 0.0391812
40 3 O 1.26461 10.996 52.1236 -1.2 1 0.107307 0.0391475 0.00168892 0.00866263 0.00272939 0.00933177 0.0030763 0.0214455 0.00342211 0.0131029 0.00349112 0.0259441 0.00526748 0.0221396 0.00438716 0.0301961 0.00446505 0.0255838 0.0068692 0.0335719
41 3 O 0.0595188 10.5645 55.3195 -1.2 1 0.04589 0.0261655 0.00551774 0.00795188 0.00175347 0.00596202 0.00230721 0.0211831 0.00186182 0.0115927 0.00197785 0.0261349 0.00327928 0.0221205 0.00360464 0.0309738 0.00291078 0.0252471 0.00602492 0.0388949
42 3 O 2.63588 10.3278 55.1258 -1.2 1 0.0457904 0.0274378 0.00622356 0.00798139 0.00166999 0.0064173 0.00233585 0.0209544 0.00216319 0.0112776 0.00225831 0.0260976 0.00384317 0.0223395 0.00292304 0.0311954 0.00291207 0.0256626 0.00600632 0.0378822
43 1 Mg -0.12612 9.54871 51.7835 1.2 1 0.109955 0.0420131 0.00192354 0.00880744 0.00291316 0.0071725 0.00248722 0.0213365 0.00344993 0.0133737 0.00306068 0.0260023 0.00388418 0.0213827 0.00455911 0.0300535 0.00443682 0.0256302 0.00671591 0.0314171
44 1 Mg 1.73037 9.21157 48.9225 1.2 1 0.180702 0.0529174 0.00651243 0.0114301 0.00361452 0.0102908 0.00583276 0.0227516 0.00554144 0.0164007 0.00466707 0.024529 0.00476173 0.0228877 0.0060637 0.0297317 0.00650963 0.027294 0.00792923 0.0277496
45 2 Si 1.31842 11.5996 50.693 2.4 1 0.139957 0.0467857 0.00214865 0.0100136 0.00251173 0.0103882 0.00333416 0.0214337 0.00473133 0.0146499 0.00516273 0.0257599 0.00531681 0.0231266 0.00613364 0.0294335 0.00495138 0.0256996 0.00815205 0.0321612
46 3 O 1.46584 13.1739 50.7524 -1.2 1 0.141819 0.0461813 0.00283169 0.00973467 0.00232371 0.0106378 0.00344598 0.0221592 0.00475429 0.0147788 0.0038241 0.0266491 0.00518072 0.0238463 0.00525535 0.0299067 0.00571812 0.0247992 0.00780021 0.0318736
47 3 O 1.38946 10.559 57.4435 -1.2 1 0.0168578 0.0148972 0.00453824 0.00813629 0.00119532 0.00667344 0.00138421 0.022109 0.00171211 0.0107319 0.00233645 0.0265597 0.0030064 0.0217179 0.0029188 0.03028 0.00276534 0.0261864 0.00365733 0.0417737
48 3 O -0.0274024 11.0036 50.0555 -1.2 1 0.154156 0.0491658 0.00353512 0.0114732 0.0032905 0.0093676 0.00415307 0.0213425 0.00463709 0.0150984 0.00396086 0.0258637 0.00502119 0.0232404 0.00580609 0.0303791 0.0054604 0.0251569 0.0076754 0.0302785
49 1 Mg -3.03984 9.67457 51.5128 1.2 1 0.125893 0.0417037 0.00172066 0.00867551 0.00246407 0.00877713 0.00330697 0.0214426 0.00444027 0.0137649 0.00403204 0.0254619 0.0042221 0.0216707 0.00483539 0.0296993 0.00504973 0.0253961 0.00686444 0.0304952
50 3 O 2.50832 10.8949 49.9498 -1.2 1 0.156609 0.0483482 0.00408381 0.00996154 0.00290851 0.0104222 0.00413488 0.0213529 0.00514714 0.0154418 0.0043778 0.0255925 0.00457776 0.0235191 0.00576296 0.0294554 0.00583015 0.0254972 0.00795577 0.0298311
51 1 Mg -1.53004 9.52832 54.553 1.2 1 0.0499444 0.029323 0.00607934 0.00785054 0.00217474 0.0060552 0.00239903 0.0214256 0.00287356 0.0115959 0.00285909 0.0260243 0.00313443 0.0224405 0.00374003 0.0307693 0.00387167 0.0255599 0.00577895 0.037168
52 2 Si -1.71229 7.45279 52.7368 2.4 1 0.0831268 0.0370637 0.0043279 0.00727624 0.00312876 0.00585139 0.00184698 0.0203941 0.00358661 0.0123117 0.00309546 0.0254198 0.0032275 0.0213478 0.00335613 0.029519 0.00382652 0.0252589 0.00561311 0.0338665
53 3 O -1.8335 5.96071 52.7226 -1.2 1 0.0931719 0.0362489 0.00222064 0.00706504 0.00261556 0.00555088 0.00246519 0.0203099 0.0038427 0.0116586 0.00346362 0.0238692 0.00341362 0.0201992 0.00374743 0.0294528 0.00370572 0.0249516 0.00565502 0.0323699
54 3 O -1.15641 9.20125 45.7315 -1.2 1 0.269652 0.0526408 0.0225193 0.019867 0.00695123 0.0142138 0.00978085 0.0249603 0.00967259 0.019273 0.00763364 0.0249575 0.00601851 0.0227535 0.00815418 0.0282648 0.0121097 0.0282942 0.0107329 0.0262657
55 3 O -2.94166 8.17392 53.3735 -1.2 1 0.0750325 0.0346805 0.00466123 0.00682326 0.00269527 0.0062307 0.00191902 0.0208823 0.00300033 0.0123469 0.00290293 0.0249596 0.00324058 0.0219839 0.00355245 0.0310683 0.0039909 0.0252846 0.00591294 0.0336615
56 3 O -0.4101 8.22678 53.3383 -1.2 1 0.0773119 0.034535 0.00381443 0.00729286 0.00339101 0.0058477 0.00161783 0.0211673 0.00336682 0.0123832 0.00325176 0.0250372 0.0029855 0.0218236 0.00367473 0.0305445 0.00440589 0.0258647 0.0055971 0.0347322
57 1 Mg -2.99608 16.5179 57.0035 1.2 1 0.0218398 0.0153437 0.00458214 0.007358 0.00123806 0.00648721 0.00128581 0.0217318 0.00221661 0.0100815 0.00228819 0.0276835 0.00249282 0.0203714 0.00269091 0.0310499 0.00273458 0.0248412 0.00466158 0.0416782
58 1 Mg -1.3643 16.9927 49.1892 1.2 1 0.177692 0.0468727 0.00750541 0.0122764 0.00318851 0.0127619 0.004142 0.0237459 0.0045506 0.0145859 0.00448728 0.0257772 0.00500644 0.0234152 0.00577264 0.0306808 0.00545683 0.0238259 0.00756798 0.0308005
59 2 Si -0.981876 14.1018 47.3913 2.4 1 0.227901 0.0531305 0.0141581 0.0170038 0.00380104 0.0159109 0.00406676 0.0243797 0.00785028 0.0175169 0.00574336 0.0257894 0.00575925 0.0252311 0.0072218 0.0315774 0.0096672 0.0272928 0.00979861 0.0284421
60 3 O -1.07558 15.7648 47.466 -1.2 1 0.226875 0.0527651 0.0137987 0.0169756 0.00396277 0.0151688 0.0048112 0.0247212 0.00713232 0.016796 0.00641184 0.0252163 0.00606426 0.0237534 0.00805599 0.0308702 0.00765344 0.0252752 0.00900984 0.0283745
61 3 O -1.60446 13.0699 51.3953 -1.2 1 0.127754 0.0423492 0.00223936 0.0100092 0.00305772 0.00950871 0.00165682 0.0219831 0.00362984 0.0136621 0.00360988 0.0263977 0.00480751 0.0224399 0.00438822 0.0301792 0.0053188 0.0241072 0.00748053 0.0323031
62 3 O -2.20832 13.4975 48.3057 -1.2 1 0.199833 0.0524977 0.00984468 0.0133962 0.00362666 0.0133627 0.00325788 0.0234127 0.00599368 0.0172647 0.00456399 0.0264465 0.00488276 0.0246405 0.00643841 0.0298333 0.00724411 0.02578 0.00894493 0.029035
63 1 Mg -0.307676 11.7174 46.0072 1.2 1 0.263773 0.0543751 0.0200255 0.0209055 0.00547383 0.018018 0.00831029 0.0257257 0.0107272 0.0199598 0.008147 0.0275387 0.0076154 0.0248664 0.0103649 0.0303339 0.0100038 0.0289154 0.0118844 0.0271632
64 3 O 0.487158 13.6542 47.9987 -1.2 1 0.209725 0.0533212 0.0113075 0.015121 0.0024376 0.0141148 0.00249493 0.0236725 0.00708721 0.0173509 0.00509907 0.0258079 0.00541226 0.0262758 0.00687049 0.0307625 0.0085632 0.0268865 0.009681 0.0283523
65 1 Mg 1.43086 11.7515 53.9858 1.2 1 0.0687308 0.0332422 0.00458816 0.0075645 0.00238145 0.00697866 0.00289145 0.0213954 0.00303962 0.0121849 0.00258295 0.0267455 0.00455613 0.0231274 0.00343498 0.0307376 0.00370225 0.0250626 0.00645854 0.0357009
66 2 Si 1.71403 14.533 56.0106 2.4 1 0.0298845 0.019555 0.00560635 0.00808857 0.00143525 0.0061921 0.00181922 0.021126 0.00232396 0.00970412 0.00265275 0.026853 0.0029699 0.0211213 0.00341349 0.0301368 0.00287909 0.0249343 0.00481898 0.0411968
67 3 O 1.40255 13.0546 56.1076 -1.2 1 0.0287607 0.0196461 0.00568442 0.00829872 0.00117741 0.0059463 0.00187081 0.0211985 0.00338503 0.0100878 0.00200546 0.0266491 0.00349366 0.0213701 0.00302074 0.0301899 0.00338305 0.0253683 0.004965 0.0408828
68 3 O 1.46057 15.703 52.1435 -1.2 1 0.107454 0.0382183 0.00155313 0.00864883 0.00198067 0.00987151 0.00315812 0.0216578 0.00366804 0.0123879 0.00313778 0.0265007 0.00492872 0.0218205 0.00473331 0.0303669 0.00423631 0.0242749 0.00703033 0.0346481
69 3 O 0.334497 15.1814 55.273 -1.2 1 0.0449787 0.0251381 0.00555532 0.00756389 0.00115178 0.00624214 0.0018157 0.0208943 0.00222373 0.0104304 0.00220617 0.026659 0.0028989 0.0218515 0.00274515 0.0313198 0.00305183 0.0248888 0.00552256 0.0399371
70 3 O 2.9286 15.2829 55.3916 -1.2 1 0.0393007 0.0237683 0.00613897 0.00776842 0.00135825 0.0064772 0.00267584 0.0217411 0.00225337 0.0101665 0.00221508 0.0266701 0.00309473 0.0219228 0.00327183 0.0313174 0.00268789 0.0251618 0.00584377 0.0404465
71 1 Mg -0.191362 14.3983 51.2773 1.2 1 0.126401 0.0430603 0.00226429 0.00979849 0.00231766 0.00933179 0.00277647 0.0224144 0.00394188 0.0134179 0.00319372 0.0267053 0.00525127 0.022382 0.00547242 0.0300218 0.00406592 0.0241195 0.00750894 0.0323711
72 1 Mg 2.056 14.2898 48.9673 1.2 1 0.180525 0.0511219 0.00627381 0.0116448 0.00213646 0.0123244 0.00373185 0.0231003 0.00489841 0.0161178 0.00478513 0.0259819 0.00550095 0.025171 0.00569815 0.0307567 0.0071999 0.0255589 0.00873125 0.0295284
73 2 Si 1.51949 16.4564 50.7396 2.4 1 0.14466 0.0455299 0.00280005 0.00963027 0.00260905 0.0108551 0.00417004 0.0217208 0.00403614 0.0132663 0.00454198 0.0252743 0.0053139 0.0228212 0.00645754 0.030971 0.00460993 0.0243353 0.00808604 0.0321606
74 3 O 1.58256 18.0621 50.8918 -1.2 1 0.135469 0.0438313 0.00238316 0.00877331 0.00200033 0.00967593 0.00429625 0.0219429 0.00373667 0.0128418 0.00283539 0.02615 0.00446657 0.0231435 0.00473322 0.0310804 0.0046763 0.0230595 0.00650292 0.0339391
75 3 O 1.58651 15.1791 57.5125 -1.2 1 0.0168352 0.0133767 0.00390891 0.00783309 0.000964487 0.00690261 0.00158729 0.0217406 0.00188456 0.00998187 0.0027821 0.0270624 0.00281459 0.0206809 0.00310329 0.0300515 0.00270386 0.0251574 0.00401512 0.0423253
76 3 O 0.180636 15.9153 50.0743 -1.2 1 0.154151 0.0474952 0.00435069 0.010971 0.00292531 0.0103569 0.00389615 0.02274 0.00471951 0.0144632 0.00317331 0.0257192 0.00482014 0.0238085 0.00530082 0.0309643 0.00464547 0.0239356 0.00738243 0.0313406
77 1 Mg -3.08171 14.246 52.0588 1.2 1 0.117689 0.0406776 0.00188224 0.00847507 0.00179178 0.0103989 0.00288706 0.0219555 0.00376781 0.013376 0.00317218 0.0270095 0.00502872 0.0227415 0.00434861 0.0301386 0.0048182 0.024173 0.00731352 0.0325866
78 3 O 2.7557 16.0086 49.8198 -1.2 1 0.156812 0.0484614 0.00392009 0.00977766 0.00223716 0.0116996 0.00452305 0.0223998 0.00457226 0.0143542 0.00398827 0.0256558 0.00541599 0.0243624 0.00503319 0.0314528 0.00570542 0.0244836 0.00797323 0.0318033
79 1 Mg -1.32464 14.3028 54.725 1.2 1 0.0522295 0.0283098 0.00568254 0.0079316 0.00145664 0.00625572 0.00167555 0.0215983 0.00275639 0.0110448 0.00281953 0.0268521 0.00324336 0.0224319 0.00344839 0.0305567 0.00363429 0.0246915 0.00602107 0.0385865
80 2 Si -1.50967 12.2415 52.6967 2.4 1 0.0931681 0.0379266 0.00340262 0.00858375 0.00291506 0.00760987 0.001665 0.0217813 0.00388939 0.0128506 0.00276569 0.0260987 0.00431847 0.0227744 0.00365514 0.0305291 0.00492419 0.0247149 0.00691594 0.0348645
81 3 O -1.71534 10.6845 52.4808 -1.2 1 0.0978754 0.038208 0.00267387 0.00860489 0.00270165 0.00766095 0.00184529 0.0204665 0.00371433 0.012375 0.0034641 0.025825 0.00432992 0.0219725 0.00492584 0.0302353 0.00424662 0.024479 0.00712944 0.0336106
82 3 O -0.973608 13.4856 45.9722 -1.2 1 0.266858 0.0520181 0.021039 0.0210975 0.00471686 0.0189214 0.00631211 0.0276371 0.00893476 0.0188744 0.00717005 0.0256935 0.0064726 0.0239631 0.00848479 0.0318317 0.0108572 0.0293471 0.0112913 0.0269609
83 3 O -2.6632 12.9366 53.6263 -1.2 1 0.0758672 0.0346531 0.00422282 0.00756511 0.0024209 0.00714022 0.00191827 0.0215222 0.0027372 0.0119458 0.00255161 0.0265597 0.00398525 0.0230484 0.00373176 0.0309149 0.00396877 0.0245433 0.00729604 0.0360818
84 3 O -0.113693 12.7728 53.351 -1.2 1 0.0821802 0.035641 0.00322369 0.00820754 0.00300013 0.00701348 0.00170545 0.0220605 0.00358996 0.0121428 0.00267369 0.026847 0.00370259 0.0229506 0.00336307 0.0308204 0.00429632 0.0250232 0.00675878 0.0358314
85 1 Mg -3.07501 21.4132 57.0619 1.2 1 0.0197556 0.0144695 0.00420874 0.00634812 0.00116131 0.00582298 0.00167847 0.0231436 0.00215831 0.00922936 0.0021382 0.0283942 0.00191505 0.0196873 0.00322668 0.0317641 0.00312893 0.0239876 0.00367115 0.0442028
86 1 Mg -1.47294 21.0954 49.6531 1.2 1 0.166706 0.0452533 0.00557316 0.00963161 0.00273447 0.0102637 0.00402251 0.0226918 0.00319737 0.012398 0.00362242 0.0257408 0.0045022 0.0221726 0.0046084 0.0297269 0.00537625 0.0208646 0.00816468 0.0333546
87 2 Si -0.260406 19.1231 47.0815 2.4 1 0.238034 0.048923 0.0155585 0.0163191 0.00402962 0.0154634 0.00544739 0.0230584 0.0063394 0.0152325 0.0055474 0.024606 0.00619264 0.0235863 0.00684244 0.0285557 0.00778498 0.0237114 0.00876588 0.0303984
88 3 O 0.0159915 20.6539 46.9358 -1.2 1 0.24185 0.0476648 0.0159055 0.0161392 0.00346912 0.0153329 0.00568604 0.0236587 0.00624703 0.0143707 0.0059325 0.0244273 0.00558566 0.0231754 0.00584983 0.0275659 0.00746368 0.0233553 0.00825286 0.0296268
89 3 O -1.44451 17.867 51.3604 -1.2 1 0.128196 0.0400953 0.00193716 0.00910858 0.00229242 0.00914201 0.00362036 0.0220653 0.00317427 0.0115564 0.00300775 0.0254575 0.00365533 0.0208731 0.00409484 0.0310596 0.0039533 0.022798 0.00638747 0.0344648
90 3 O -1.48332 18.7438 48.2627 -1.2 1 0.205435 0.0481819 0.0107506 0.0132562 0.00354168 0.0135701 0.00491081 0.0234231 0.00530589 0.0141302 0.00477014 0.0247491 0.00464176 0.0231 0.00536911 0.0300026 0.00694461 0.0227522 0.00779856 0.0313216
91 1 Mg -0.00784596 16.7723 46.3268 1.2 1 0.249527 0.0525811 0.0171001 0.0186313 0.00448013 0.0179154 0.00709129 0.0259275 0.00766999 0.0164547 0.00583923 0.0260576 0.0074812 0.0231134 0.00798674 0.0309913 0.00841767 0.0263445 0.0102241 0.0281618
92 3 O 0.949016 18.2117 47.6546 -1.2 1 0.220389 0.0503103 0.0124708 0.0145804 0.00436208 0.013763 0.00548919 0.0236267 0.0059257 0.0155459 0.00475853 0.0243364 0.00616536 0.0239385 0.00654776 0.0301085 0.00685337 0.0239785 0.00853335 0.0303209
93 1 Mg 1.26426 16.5581 54.0428 1.2 1 0.066828 0.0312947 0.00439555 0.00752316 0.00153582 0.0068624 0.00267321 0.0215355 0.00371886 0.0110408 0.00236675 0.0270339 0.00361604 0.02185 0.00369196 0.0315062 0.00356593 0.0243584 0.00630738 0.0383466
94 2 Si 1.5077 19.2819 56.1138 2.4 1 0.0299076 0.0189579 0.00548282 0.00766362 0.000869593 0.00593525 0.00218204 0.0221018 0.00204733 0.00906455 0.00318016 0.0262232 0.00270995 0.0205239 0.00405767 0.0318996 0.00274713 0.0244165 0.00497168 0.0428752
95 3 O 1.43937 17.7142 56.1209 -1.2 1 0.0315184 0.0196163 0.00508147 0.00778696 0.00108589 0.00561368 0.00179494 0.0209709 0.00327101 0.00943974 0.00188714 0.0266856 0.00288402 0.0209841 0.00293659 0.0313392 0.00336225 0.0239362 0.00474125 0.0414549
96 3 O 1.45161 20.4322 52.2895 -1.2 1 0.102991 0.0358328 0.0012991 0.00708614 0.00159826 0.00818356 0.00415848 0.02213 0.00315488 0.0103893 0.00276694 0.0257141 0.00393881 0.0211092 0.00410816 0.0308914 0.0034599 0.0222691 0.00550691 0.0370292
97 3 O 0.195365 20.0194 55.3814 -1.2 1 0.042506 0.0236901 0.00531379 0.00660804 0.000958522 0.00599234 0.00234226 0.0219228 0.00202307 0.00942963 0.00204674 0.0269365 0.00264428 0.0208405 0.00298016 0.0322357 0.00288989 0.0234362 0.00421686 0.0413056
98 3 O 2.79917 20.0684 55.4552 -1.2 1 0.038598 0.0224926 0.00532185 0.00641362 0.00118564 0.00575904 0.00299391 0.022806 0.00241372 0.00966996 0.00233872 0.0270426 0.00245795 0.0209971 0.00395086 0.0323397 0.00280336 0.0239941 0.00511887 0.0423282
99 1 Mg -0.165606 19.1908 51.7426 1.2 1 0.113649 0.0400822 0.00133029 0.00823077 0.0024696 0.0077134 0.00316725 0.0218814 0.00301951 0.011609 0.00255517 0.0265094 0.00312271 0.0212732 0.00442694 0.0310162 0.0033977 0.0220801 0.00586652 0.0351865
100 1 Mg 2.44244 18.84 48.7949 1.2 1 0.181688 0.0491899 0.00647682 0.0105664 0.00219997 0.0111164 0.00469758 0.022069 0.00400451 0.0145116 0.0039254 0.0251289 0.0050878 0.0238221 0.00552789 0.0303686 0.00556364 0.022982 0.00765698 0.0321346
101 2 Si 1.45785 21.137 50.783 2.4 1 0.145377 0.0417743 0.00297247 0.00857512 0.00218203 0.00987937 0.00461113 0.0216083 0.00368143 0.0111112 0.00414852 0.0245377 0.00440004 0.0210668 0.00585267 0.0299006 0.00321994 0.0226249 0.00820362 0.0359065
102 3 O 1.52753 22.6908 50.8631 -1.2 1 0.141535 0.0392878 0.0025421 0.0080291 0.00148562 0.00978534 0.0042629 0.0210344 0.00286178 0.00992284 0.00348093 0.0252053 0.00417762 0.0202762 0.00437323 0.0296526 0.00489947 0.0215877 0.00846191 0.0361056
103 3 O 1.36251 19.9176 57.5985 -1.2 1 0.0152175 0.0122186 0.00358687 0.00715665 0.00097327 0.00624519 0.00164617 0.0229231 0.00185976 0.00920034 0.00269847 0.0277256 0.00273424 0.0197854 0.00344897 0.0313221 0.0033269 0.0242138 0.00395337 0.0447469
104 3 O 0.234214 20.5212 50.1148 -1.2 1 0.160258 0.043547 0.005385 0.00942458 0.00331697 0.00947055 0.00493206 0.0215916 0.00371087 0.0124912 0.00376466 0.0249927 0.00439301 0.0225265 0.00512298 0.0294269 0.00396461 0.0218145 0.00726216 0.0345399
105 1 Mg -3.06844 19.0916 51.8825 1.2 1 0.11845 0.0387959 0.00128566 0.00762764 0.00188945 0.00931423 0.00413776 0.0220959 0.00285181 0.0118288 0.00314838 0.0257859 0.00389903 0.021573 0.00462237 0.0306847 0.00335785 0.0223837 0.0064046 0.0352821
106 3 O 2.78298 20.4594 50.0685 -1.2 1 0.157407 0.0446154 0.00482584 0.00848889 0.0015839 0.0103289 0.00438061 0.0218569 0.00339403 0.0123727 0.00328429 0.0249821 0.00416784 0.021987 0.00446183 0.0296956 0.00406794 0.0220478 0.00746238 0.0343573
107 1 Mg -1.46986 19.2128 54.7354 1.2 1 0.0495923 0.0266476 0.00592135 0.00718105 0.00130627 0.00586811 0.00238952 0.0221601 0.00215002 0.0101235 0.00278891 0.0273334 0.00227269 0.0210465 0.00312364 0.0318932 0.00285075 0.0236578 0.00527696 0.0401129
108 2 Si -1.53216 17.1488 52.7745 2.4 1 0.097023 0.0374401 0.00283428 0.00796119 0.00239151 0.00793451 0.00256688 0.021297 0.00356522 0.0114576 0.00327879 0.0264278 0.00369533 0.0222441 0.0038427 0.0309266 0.00478136 0.0231068 0.00673126 0.0363253
109 3 O -1.47897 15.5525 52.6726 -1.2 1 0.096084 0.0367233 0.00274339 0.00832006 0.00197984 0.00819529 0.0021795 0.0210886 0.00381022 0.0112493 0.00295814 0.0264551 0.00439162 0.0215037 0.00474383 0.0309258 0.00354109 0.0239923 0.00724896 0.0356146
110 3 O -0.683642 18.3934 45.7277 -1.2 1 0.275221 0.0497936 0.0220029 0.02063 0.00525545 0.0194122 0.00837821 0.0268881 0.0079967 0.0152988 0.00656253 0.0247564 0.00752433 0.0214322 0.00904895 0.0302558 0.00960452 0.0262215 0.0107581 0.0276823
111 3 O -2.8367 17.7075 53.5003 -1.2 1 0.0804002 0.0329956 0.00375354 0.00671311 0.0015625 0.00839441 0.0027234 0.0222148 0.00330981 0.0112166 0.00257458 0.0261254 0.00325134 0.0220874 0.00365937 0.0313943 0.00370524 0.0236983 0.00567913 0.037292
112 3 O -0.208437 17.7766 53.4713 -1.2 1 0.0767014 0.0328235 0.00362272 0.00721704 0.00223206 0.00636241 0.00212797 0.0215504 0.00307781 0.0104748 0.00252927 0.0262845 0.00271911 0.0222113 0.00380791 0.0317032 0.00350784 0.0237385 0.00596604 0.0375464
113 1 Mg -3.16826 26.0271 57.0491 1.2 1 0.0184535 0.0142711 0.00449787 0.00551085 0.00069206 0.00535281 0.00163824 0.0228096 0.00188843 0.0087887 0.00224765 0.0283303 0.00308984 0.0188074 0.00357683 0.0307656 0.00417918 0.0230568 0.00570233 0.0447117
114 1 Mg -1.36083 26.2244 49.3877 1.2 1 0.181986 0.0426347 0.00736934 0.0102437 0.00282537 0.0105983 0.00344737 0.0211843 0.00544488 0.010358 0.00443262 0.023869 0.00553603 0.0201198 0.00542098 0.0268951 0.00503936 0.0218804 0.0095067 0.0323698
115 2 Si -0.848951 23.5316 47.5704 2.4 1 0.236334 0.0450766 0.0140102 0.0149669 0.00296109 0.0142451 0.00412557 0.0208761 0.0062174 0.0128125 0.00535015 0.0228154 0.00648078 0.021029 0.00618965 0.0265568 0.00670269 0.0205438 0.010026 0.0311061
116 3 O -1.69504 24.8774 47.6682 -1.2 1 0.221321 0.0450725 0.0108765 0.0133013 0.0028921 0.0126598 0.00355822 0.019978 0.00655295 0.0117809 0.00497497 0.0222319 0.00666936 0.0194038 0.00746372 0.0269028 0.00572655 0.0214243 0.0107893 0.0304013
117 3 O -1.50659 22.3999 51.456 -1.2 1 0.12872 0.0386722 0.00159538 0.00806919 0.00284529 0.00827897 0.00313076 0.0225618 0.00274311 0.0103901 0.00333169 0.0254767 0.00411814 0.0201975 0.0041398 0.0298802 0.00533769 0.0213125 0.00765164 0.0361934
118 3 O -1.86339 22.577 48.4019 -1.2 1 0.20465 0.046288 0.00930578 0.0124147 0.00350574 0.0121089 0.00296802 0.0213389 0.00442723 0.011852 0.00481009 0.0248299 0.00501302 0.0212316 0.00623751 0.0286653 0.00539196 0.0209819 0.0106055 0.0323872
119 1 Mg 0.703971 22.1865 46.1109 1.2 1 0.266082 0.0473401 0.0189118 0.0192652 0.00421356 0.0171948 0.00608721 0.023017 0.00725995 0.0136668 0.00534472 0.0243292 0.00838971 0.0214833 0.00867657 0.0262808 0.00684103 0.0217518 0.010684 0.0294567
120 3 O 0.649174 23.2811 47.9758 -1.2 1 0.21249 0.04724 0.00982055 0.012849 0.00325123 0.0131748 0.00488362 0.0220452 0.0054463 0.0131752 0.00469575 0.0236656 0.00669635 0.022053 0.00652942 0.0279444 0.00517155 0.0217533 0.00986299 0.0321748