ITEM: TIMESTEP
400
ITEM: NUMBER OF ATOMS
10500
ITEM: BOX BOUNDS xy xz yz pp pp pp
0	8.9688	2.9896
0	118.725	0
0	252.977	0
ITEM: ATOMS id type element xu yu zu q Q_1 Q_2 Q_3 Q_4 Q_5 Q_6 Q_7 Q_8 Q_9 Q_10 Q_11 Q_12 Q_13 Q_14 Q_15 Q_16 Q_17 Q_18 Q_19 Q_20 Q_21
1 1 Mg -3.42422 7.08632 57.4816 1.2 1 0.0184962 0.0139242 0.00440644 0.00625334 0.00113756 0.00613212 0.00127199 0.0222866 0.00158101 0.00978301 0.00158109 0.0279871 0.00216538 0.0200368 0.00220208 0.032231 0.00231578 0.0249755 0.00389575 0.0472673
2 1 Mg -1.80926 6.49984 49.9024 1.2 1 0.177209 0.0500181 0.00644625 0.0116785 0.00310743 0.00865608 0.00440085 0.0218702 0.00389719 0.013989 0.00416321 0.0241453 0.00449701 0.020444 0.00571999 0.026933 0.00632774 0.0247205 0.00863198 0.0330874
3 2 Si -0.157235 3.97411 48.0047 2.4 1 0.226694 0.0552871 0.0118239 0.0133759 0.00313968 0.00971855 0.00390727 0.0195692 0.0052216 0.0155401 0.00515841 0.0236143 0.00590793 0.0207207 0.00517016 0.0241729 0.00650944 0.023182 0.00840414 0.0313544
4 3 O -0.240284 5.46519 47.4533 -1.2 1 0.237185 0.0531622 0.0147912 0.0147773 0.00352145 0.0115607 0.00478388 0.0205796 0.00554697 0.0160297 0.00535805 0.0235767 0.0046778 0.0209746 0.00564762 0.0243461 0.00717731 0.0245817 0.00865892 0.0297854
5 3 O -1.947 3.3613 51.8459 -1.2 1 0.128768 0.0422999 0.00215977 0.00793217 0.0018655 0.00721835 0.00259701 0.0199669 0.00259385 0.0106462 0.00321395 0.0246455 0.00385017 0.0173525 0.00387073 0.0271029 0.00542924 0.0230093 0.00846663 0.0375136
6 3 O -1.49507 3.62028 48.9222 -1.2 1 0.200699 0.0548987 0.0082342 0.0114306 0.00315862 0.00789051 0.00328128 0.0190164 0.00503703 0.0141851 0.00491514 0.0235899 0.00475551 0.0202471 0.00531529 0.0249795 0.00521822 0.0224795 0.00905371 0.0316764
7 1 Mg 2.0156 2.57335 47.2844 1.2 1 0.244246 0.0558898 0.0161273 0.0157201 0.00407882 0.0107102 0.00337907 0.0200939 0.00509515 0.0133973 0.00562744 0.0239052 0.00626624 0.0191447 0.00702075 0.0238402 0.00687939 0.0221567 0.00820324 0.0306795
8 3 O 1.26478 3.71742 48.794 -1.2 1 0.200068 0.0533301 0.00835324 0.0120639 0.00265725 0.00958013 0.00464085 0.0197477 0.00380981 0.0139451 0.00445911 0.0230443 0.00546674 0.0196624 0.00537305 0.0249129 0.00434016 0.0231453 0.00887527 0.0322677
9 1 Mg 0.982029 2.3492 54.4417 1.2 1 0.0709826 0.0306842 0.00460903 0.00595196 0.00157191 0.00563028 0.00271489 0.0211293 0.00259182 0.00926916 0.00305633 0.0265783 0.00395358 0.0190146 0.00420776 0.029899 0.00329005 0.0243607 0.00639511 0.0432839
10 2 Si 1.03065 4.94767 56.5067 2.4 1 0.0302211 0.0187936 0.00571787 0.00646884 0.00110314 0.00664786 0.00214407 0.0218835 0.0017819 0.00897463 0.00316023 0.0260423 0.00265178 0.0198615 0.00454867 0.0310306 0.00313743 0.0250911 0.00541228 0.0483133
11 3 O 1.02927 3.40159 56.5156 -1.2 1 0.0334174 0.0194711 0.0061234 0.00604266 0.00101882 0.00572057 0.00231613 0.0212991 0.00301728 0.0083583 0.00260562 0.0272759 0.00335365 0.0184737 0.00320836 0.0312498 0.00432482 0.0253553 0.00518466 0.0475333
12 3 O 1.0128 6.18037 52.808 -1.2 1 0.102146 0.0374586 0.00267873 0.00756944 0.00193322 0.00718967 0.00352312 0.0218289 0.00331133 0.0108457 0.00278144 0.0246121 0.00392588 0.0189657 0.00406756 0.028635 0.00389905 0.024839 0.00692532 0.0393043
13 3 O -0.29292 5.68595 55.8635 -1.2 1 0.0403179 0.0230306 0.00611477 0.00582463 0.00118408 0.00544855 0.00238203 0.0220967 0.00222237 0.00971885 0.0021813 0.0262139 0.00274707 0.0195444 0.00413406 0.0316594 0.00282594 0.0253329 0.00529633 0.0462717
14 3 O 2.24199 5.68091 55.8832 -1.2 1 0.0395279 0.0225076 0.00599065 0.00570208 0.000852285 0.00605019 0.00200382 0.0221411 0.00148522 0.00937622 0.00208147 0.0261827 0.00255997 0.0193474 0.00370306 0.0318178 0.00246567 0.0257103 0.00515713 0.0458544
15 1 Mg -0.508381 4.78166 52.1856 1.2 1 0.12478 0.0416459 0.00209444 0.00790143 0.00228741 0.00716878 0.00268783 0.0208311 0.00307929 0.0114571 0.00252172 0.0249437 0.00397046 0.0189261 0.00347231 0.0273784 0.00437536 0.0236029 0.00770034 0.0371221
16 1 Mg 2.74352 3.86297 50.0965 1.2 1 0.172153 0.0517408 0.00508105 0.0104345 0.00238853 0.00745738 0.00445196 0.019758 0.00280697 0.0132109 0.00325474 0.0238015 0.00492459 0.0198316 0.00559395 0.0257911 0.00471743 0.0229796 0.00947005 0.0336655
17 2 Si 1.21917 6.57962 51.1758 2.4 1 0.146957 0.0466913 0.00247867 0.00978271 0.00245817 0.00857224 0.00458696 0.0209722 0.00392089 0.0128994 0.00428628 0.0228851 0.00442541 0.0206062 0.00595371 0.0281532 0.00412761 0.0248187 0.00918009 0.0360031
18 3 O 1.35565 8.16015 51.1263 -1.2 1 0.147588 0.0458339 0.00295904 0.00979127 0.00271204 0.0091037 0.00466415 0.0216151 0.00396014 0.0132199 0.00372802 0.0242332 0.00405072 0.0217045 0.00431084 0.0287054 0.005059 0.025575 0.00832645 0.0365955
19 3 O 1.00146 5.57429 58.0427 -1.2 1 0.0147247 0.011506 0.00332087 0.00606146 0.00101312 0.00635754 0.00151028 0.022808 0.0015328 0.00881075 0.00246249 0.0273985 0.0023081 0.0197714 0.00307384 0.0324196 0.00231005 0.0255631 0.00358488 0.0487381
20 3 O -0.0754295 6.0423 50.5615 -1.2 1 0.164682 0.0471175 0.00538582 0.0103317 0.00329649 0.00788202 0.00463913 0.0207663 0.00363839 0.0130566 0.00303235 0.0233793 0.00416291 0.020076 0.00501173 0.026305 0.00470822 0.0241772 0.00891542 0.0346189
21 1 Mg -3.5313 4.78087 52.6283 1.2 1 0.11189 0.0391857 0.00187998 0.00715023 0.00197286 0.00695129 0.00346306 0.0205105 0.00389598 0.0108378 0.00300548 0.0245837 0.00379385 0.0186039 0.00351437 0.0278435 0.00393466 0.0235779 0.0076508 0.0382504
22 3 O 2.52399 5.87827 50.7983 -1.2 1 0.153519 0.0468807 0.00356202 0.00957793 0.00212143 0.00825178 0.00401563 0.0211733 0.00361794 0.0128569 0.00334481 0.0231134 0.00416598 0.0198228 0.00531296 0.0279578 0.00466773 0.0245716 0.00877095 0.0349581
23 1 Mg -1.99889 4.82135 55.1988 1.2 1 0.049328 0.0257439 0.00628633 0.00562932 0.00138019 0.00588005 0.00217731 0.0216592 0.00294691 0.00937584 0.00269676 0.0267775 0.0025651 0.019315 0.00367569 0.0309919 0.00384279 0.0248433 0.00583974 0.0447028
24 2 Si -1.9854 2.63386 53.3507 2.4 1 0.0974007 0.036366 0.00300165 0.00694492 0.00215444 0.00638251 0.00180609 0.0206252 0.00288858 0.0100497 0.00296742 0.0253819 0.00324316 0.0186364 0.0034704 0.0284705 0.00463218 0.0234267 0.00715243 0.0415281
25 3 O -2.07362 1.13227 53.2192 -1.2 1 0.0949087 0.0357009 0.00280811 0.00685337 0.00301776 0.00598652 0.00198608 0.0207433 0.00296323 0.009376 0.00279637 0.0262596 0.00368833 0.0182127 0.00380691 0.0286259 0.00420929 0.0234276 0.00686679 0.0417902
26 3 O -0.0250113 2.79778 46.9642 -1.2 1 0.250824 0.0560881 0.0165062 0.0152963 0.00394466 0.0101596 0.00436054 0.0194664 0.00589253 0.0150952 0.00696188 0.0241294 0.00712495 0.0193566 0.00768923 0.0234417 0.00673495 0.0227893 0.00891736 0.0313475
27 3 O -3.29159 3.34704 54.0114 -1.2 1 0.079065 0.0320247 0.00372631 0.00567451 0.00151572 0.006017 0.00211737 0.0214448 0.00290572 0.0101819 0.00224009 0.0250796 0.00264347 0.0190426 0.0026521 0.0293425 0.00398786 0.0240848 0.00644095 0.0426759
28 3 O -0.737972 3.30224 54.0703 -1.2 1 0.0780223 0.0319928 0.00416038 0.00576897 0.00167452 0.00621701 0.00192546 0.0212297 0.00287198 0.0101746 0.00196263 0.0255324 0.00328415 0.0195061 0.00301244 0.029488 0.00330178 0.024534 0.00625835 0.0424217
29 1 Mg -3.21167 11.7221 57.4223 1.2 1 0.0204994 0.0139658 0.00502991 0.00624794 0.00088582 0.00611302 0.00160226 0.0231698 0.00228195 0.00999685 0.00202706 0.0271883 0.00252261 0.0209458 0.00323194 0.0333729 0.00275179 0.0258357 0.00422368 0.0475461
30 1 Mg -1.79482 11.5423 49.7562 1.2 1 0.183445 0.0496376 0.0076221 0.0134459 0.0039271 0.0128594 0.00511565 0.0242593 0.00507261 0.0157107 0.00470873 0.0261287 0.0040088 0.0244354 0.00635279 0.0304275 0.00647697 0.0273884 0.00941988 0.0356173
31 2 Si -1.10769 9.03125 48.0084 2.4 1 0.235782 0.0535343 0.0149631 0.0163181 0.00528847 0.0130158 0.00779254 0.0226729 0.00732121 0.0166906 0.00665256 0.0237708 0.00437432 0.0230548 0.00666661 0.02685 0.00885107 0.0262655 0.0113403 0.0320867
32 3 O -1.23138 10.5972 48.08 -1.2 1 0.226712 0.0543336 0.0133223 0.0167627 0.00508106 0.0144019 0.00635906 0.0239068 0.00678478 0.0169837 0.00629598 0.0255427 0.00492031 0.0245025 0.00748074 0.029814 0.00852279 0.0278314 0.010811 0.0329255
33 3 O -1.66829 8.00959 51.8531 -1.2 1 0.134212 0.0421246 0.00211604 0.00975083 0.00320813 0.0079543 0.00287554 0.0218846 0.0032531 0.0127428 0.00337674 0.0245989 0.00396027 0.020492 0.0041902 0.0290996 0.00552811 0.0249465 0.00850501 0.0380132
34 3 O -2.19253 8.23237 48.8997 -1.2 1 0.204702 0.0543452 0.0091595 0.0135729 0.0042101 0.0107189 0.0062135 0.0224632 0.00528901 0.0164862 0.0049249 0.0240021 0.00429635 0.0227837 0.00590625 0.0284416 0.00662126 0.0262296 0.00963879 0.0322811
35 1 Mg 0.228838 7.19272 46.7186 1.2 1 0.257502 0.0547558 0.0176015 0.017821 0.00616926 0.0138312 0.00898703 0.0232677 0.00773762 0.0172402 0.00735112 0.0235621 0.00596421 0.0219737 0.00758224 0.0253055 0.00955388 0.0266581 0.0119253 0.029782
36 3 O 0.452918 8.52872 48.163 -1.2 1 0.218046 0.0547896 0.0110905 0.0152696 0.00444212 0.0124792 0.00640061 0.0232026 0.00634708 0.0167776 0.00592305 0.0233825 0.00488762 0.0240451 0.00628281 0.0277396 0.0070956 0.0272318 0.0104434 0.0325058
37 1 Mg 1.16346 7.12385 54.606 1.2 1 0.066598 0.0301627 0.00465636 0.00642919 0.00147228 0.00594036 0.00275751 0.0216379 0.00276985 0.0105717 0.00239557 0.0251522 0.00350591 0.0203056 0.00313905 0.0311234 0.00345991 0.0247632 0.00625223 0.0430547
38 2 Si 1.12245 9.76385 56.3556 2.4 1 0.0330818 0.0202069 0.0061215 0.00721879 0.00151173 0.00611322 0.002375 0.0223296 0.00207174 0.00934449 0.00340198 0.0252878 0.00260299 0.0207915 0.00368681 0.0321736 0.00340035 0.0257933 0.00600009 0.0470655
39 3 O 1.08727 8.19562 56.5924 -1.2 1 0.0285979 0.0186688 0.00527042 0.00633379 0.000939443 0.00601628 0.00159847 0.0222296 0.00246896 0.00867268 0.00173419 0.0262627 0.00318733 0.0196238 0.00286724 0.0319759 0.00341335 0.0254251 0.00477504 0.0468863
40 3 O 1.41167 10.6671 52.664 -1.2 1 0.112099 0.0390863 0.00169726 0.00882117 0.00203785 0.00948258 0.00280709 0.0222945 0.00354214 0.0124571 0.00358496 0.0246028 0.00412875 0.0219171 0.00442344 0.0308727 0.00401686 0.0266255 0.00698675 0.039518
41 3 O -0.113281 10.4654 55.6728 -1.2 1 0.0481925 0.024637 0.00537269 0.00654977 0.00106202 0.00622734 0.00208722 0.022686 0.00216429 0.0103502 0.00262694 0.0253323 0.00258445 0.0211046 0.00352903 0.0324506 0.00303201 0.0259104 0.0050195 0.0455227
42 3 O 2.42321 10.3837 55.6301 -1.2 1 0.0459576 0.0247665 0.00609161 0.00654438 0.00103385 0.00635271 0.00278169 0.0225285 0.00228454 0.0099601 0.00266575 0.0253081 0.00308499 0.0214856 0.00322637 0.0327536 0.0033166 0.0263957 0.00514914 0.0453715
43 1 Mg -0.173339 9.42898 52.2939 1.2 1 0.114079 0.0413761 0.00216837 0.00907438 0.00249888 0.00822098 0.00283654 0.0226108 0.00307091 0.0123911 0.0032214 0.024872 0.0037126 0.0214206 0.00514995 0.0299852 0.00387303 0.026049 0.00756439 0.0381082
44 1 Mg 1.99673 8.92361 49.3101 1.2 1 0.185149 0.0535353 0.00597687 0.0119243 0.00359831 0.0108525 0.00624926 0.0225933 0.00509063 0.0158499 0.00507691 0.0242648 0.00450093 0.0234656 0.00568428 0.029245 0.00535542 0.0267672 0.0100302 0.0335885
45 2 Si 1.27666 11.34 51.0693 2.4 1 0.147944 0.0472407 0.0016654 0.0112488 0.00264304 0.01098 0.00418099 0.0228619 0.00432327 0.0147108 0.00466183 0.0242375 0.00397655 0.0240119 0.00585669 0.0307112 0.00427989 0.0272197 0.00905346 0.0383674
46 3 O 1.34448 12.9053 51.2806 -1.2 1 0.144843 0.0457805 0.00262596 0.011032 0.00228698 0.0118422 0.00335596 0.0234177 0.00450949 0.0146955 0.00325287 0.0259093 0.00405236 0.0251769 0.00447163 0.0316626 0.00558484 0.0277218 0.00801585 0.0393438
47 3 O 1.21982 10.4954 57.8193 -1.2 1 0.0165895 0.0124056 0.00393233 0.00644752 0.00138645 0.00619637 0.00211618 0.0231284 0.00217375 0.00900397 0.00310894 0.0267478 0.00242849 0.0207842 0.00288547 0.0327797 0.00292075 0.0252418 0.00439405 0.0483086
48 3 O -0.115061 10.7907 50.7436 -1.2 1 0.153176 0.0466228 0.00346499 0.0117238 0.00337936 0.0105557 0.00412433 0.0235653 0.00405128 0.0144912 0.00346075 0.0250963 0.0038554 0.0235252 0.00571414 0.0299606 0.00493045 0.0269136 0.00944646 0.0376619
49 1 Mg -3.19054 9.30897 52.3021 1.2 1 0.123266 0.040908 0.0014691 0.0087545 0.00220308 0.00923307 0.00356269 0.0222072 0.00349912 0.0125905 0.0034572 0.0248554 0.0034903 0.0213662 0.00445587 0.0302604 0.00415503 0.0259755 0.00793965 0.0374069
50 3 O 2.41698 10.6931 50.1374 -1.2 1 0.168121 0.050537 0.00416434 0.0112158 0.00284974 0.0117631 0.00512142 0.0229238 0.00457921 0.0157429 0.00402269 0.0248145 0.003967 0.0246085 0.00534774 0.0310156 0.00572932 0.0267467 0.00917054 0.0357758
51 1 Mg -1.81461 9.47464 55.0097 1.2 1 0.0548396 0.0280625 0.00548782 0.00695813 0.00129998 0.00622299 0.00233294 0.0220023 0.00286633 0.0100319 0.00331482 0.0253921 0.00302693 0.0205514 0.00329015 0.0319384 0.00327758 0.0255541 0.00581889 0.0440297
52 2 Si -1.748 7.37042 53.3339 2.4 1 0.096518 0.0361123 0.00308285 0.00758232 0.00242558 0.00696839 0.00295248 0.0217169 0.00377769 0.011396 0.00261466 0.0244579 0.00311798 0.0205393 0.00272054 0.0300769 0.00470787 0.0248012 0.00674521 0.04084
53 3 O -1.86541 5.81452 53.3312 -1.2 1 0.0956232 0.0344243 0.00283539 0.00667635 0.00187298 0.00667159 0.0024473 0.0204906 0.00324346 0.010333 0.00261192 0.0245819 0.00304098 0.0187871 0.00350758 0.029661 0.00338906 0.0241952 0.00686815 0.0402619
54 3 O -1.34683 8.53054 46.4911 -1.2 1 0.268941 0.0552933 0.0201901 0.0197025 0.00591552 0.0156349 0.0093807 0.0246503 0.00681429 0.0176526 0.00692324 0.0232571 0.00553663 0.0218251 0.00849639 0.0265676 0.0100924 0.0275208 0.0115563 0.029513
55 3 O -3.10232 8.04195 53.9172 -1.2 1 0.0843398 0.0324706 0.00287671 0.00660032 0.0017509 0.00728525 0.00283457 0.0215243 0.00286248 0.0109184 0.00216347 0.0243418 0.00285157 0.0203831 0.00311845 0.0307972 0.00399225 0.0251482 0.00647163 0.0409748
56 3 O -0.532621 8.11235 54.0094 -1.2 1 0.0780044 0.0320407 0.00424459 0.00660854 0.00211857 0.00615382 0.00192636 0.0218555 0.00276321 0.0106394 0.00210406 0.024388 0.00256802 0.0204682 0.00300205 0.0307877 0.00386643 0.0256931 0.00642926 0.042367
57 1 Mg -3.23416 16.6566 57.3784 1.2 1 0.0217538 0.0140353 0.00494681 0.00699084 0.00139351 0.00628397 0.00152546 0.0235289 0.00223259 0.00959877 0.00196852 0.0283207 0.00232407 0.0204939 0.00261892 0.0325678 0.00316866 0.0255132 0.00422632 0.0483334
58 1 Mg -1.79494 16.2262 49.6274 1.2 1 0.182437 0.0501801 0.00697677 0.0139504 0.00300666 0.0154801 0.00366546 0.0251322 0.004747 0.0169894 0.00423002 0.0285603 0.00369789 0.0269964 0.00629288 0.0337625 0.00679044 0.0297183 0.00939251 0.0392583
59 2 Si -1.15611 13.8347 47.9624 2.4 1 0.233966 0.0547242 0.0154149 0.0182459 0.00442048 0.0182115 0.00534816 0.0268771 0.00847395 0.0189167 0.00620237 0.027761 0.00540387 0.0290366 0.00657376 0.0323812 0.0104856 0.0303654 0.0113301 0.0365421
60 3 O -1.07596 15.37 47.9295 -1.2 1 0.231936 0.0555927 0.0148233 0.0180513 0.00443534 0.0195759 0.00483385 0.0267724 0.00763007 0.0195143 0.00665203 0.0284881 0.00531325 0.028765 0.0073261 0.0335142 0.00984677 0.0318592 0.0107373 0.0371513
61 3 O -1.81069 12.7254 51.7028 -1.2 1 0.133778 0.0432566 0.00185966 0.0114445 0.00263273 0.0101797 0.00191537 0.024071 0.00391815 0.014328 0.00313645 0.0262512 0.00370642 0.0240328 0.00437908 0.0318279 0.00501692 0.02712 0.00763114 0.0406319
62 3 O -2.30847 13.2443 48.8255 -1.2 1 0.206385 0.0548493 0.0101013 0.0152055 0.00403651 0.0148965 0.00481028 0.0262386 0.00635777 0.0195018 0.00562002 0.0271317 0.00463455 0.0277091 0.00590407 0.0326511 0.0077477 0.0299413 0.0092747 0.0359993
63 1 Mg -0.109111 11.6703 46.9263 1.2 1 0.255565 0.054777 0.0184065 0.0194518 0.00520618 0.0197611 0.00706765 0.0281249 0.00846984 0.0192271 0.00701615 0.0274288 0.00567075 0.0271257 0.00732443 0.0301391 0.0104237 0.0305474 0.0126327 0.0334157
64 3 O 0.311776 13.1528 48.4747 -1.2 1 0.21131 0.0540507 0.010983 0.0157951 0.00388567 0.016487 0.0043746 0.0261042 0.00659192 0.0183754 0.00467385 0.0264679 0.00479681 0.0284306 0.00572048 0.0320307 0.00794537 0.0306056 0.010465 0.0369002
65 1 Mg 1.21855 11.8226 54.5384 1.2 1 0.0727668 0.032133 0.00435349 0.00742934 0.00147928 0.00720681 0.00272323 0.0226848 0.00299232 0.0118292 0.00227661 0.0258337 0.00391818 0.0225893 0.00323634 0.0325037 0.00414686 0.0257279 0.00551056 0.0425192
66 2 Si 1.20349 14.469 56.4229 2.4 1 0.032414 0.0195274 0.00645504 0.00761186 0.00120211 0.00648298 0.00203408 0.0229586 0.00229434 0.00972582 0.00406325 0.0264998 0.00266252 0.0219682 0.0045341 0.0327235 0.00314193 0.0255081 0.00545077 0.048641
67 3 O 1.21397 12.966 56.4576 -1.2 1 0.0300165 0.0188625 0.00624977 0.00718536 0.000997219 0.00581143 0.00230762 0.0222291 0.00312758 0.00922832 0.00221465 0.0265716 0.00323291 0.0208509 0.00275277 0.0328045 0.00362069 0.0253697 0.00462598 0.0476091
68 3 O 1.5334 15.5323 52.6897 -1.2 1 0.110772 0.0393399 0.00143877 0.00945108 0.00159183 0.0117108 0.00323926 0.0241291 0.00324161 0.0137097 0.00358638 0.0268307 0.00389344 0.0239628 0.00373804 0.0326048 0.00447438 0.0280153 0.00676686 0.0418998
69 3 O -0.0954708 15.193 55.7923 -1.2 1 0.0450355 0.0235347 0.0056537 0.00707614 0.00119841 0.0068531 0.00223646 0.0238379 0.00209702 0.0108292 0.00234328 0.0264061 0.00282335 0.0225604 0.00318962 0.033319 0.00316645 0.0267236 0.00525433 0.0473895
70 3 O 2.4314 15.203 55.7577 -1.2 1 0.0418132 0.0231766 0.00640133 0.00732534 0.00105694 0.00650325 0.00246324 0.0234874 0.00227531 0.01026 0.00231225 0.0264549 0.00271395 0.0219304 0.00323188 0.0332382 0.00298368 0.0267848 0.00557285 0.0469137
71 1 Mg -0.157472 14.1102 52.2275 1.2 1 0.11738 0.0426247 0.00106944 0.010021 0.0024581 0.0100917 0.00266142 0.0244545 0.00361885 0.0142493 0.00358605 0.0269488 0.00377282 0.0244515 0.00383851 0.0324772 0.00460274 0.0278425 0.00652703 0.0407742
72 1 Mg 1.86979 13.7829 49.4759 1.2 1 0.186304 0.0529951 0.00674793 0.0130776 0.00271254 0.0143098 0.0043611 0.0245296 0.00553179 0.0180067 0.00502626 0.0268102 0.00456318 0.0279365 0.00597086 0.0332982 0.00692571 0.0297994 0.00940057 0.0372505
73 2 Si 1.36474 16.2012 51.2372 2.4 1 0.145609 0.0472921 0.00193261 0.0113519 0.00233905 0.0130666 0.00360808 0.0244697 0.00373528 0.0159236 0.00495635 0.0268257 0.00383665 0.0266365 0.00583576 0.0330729 0.00456357 0.0294329 0.00887438 0.0405467
74 3 O 1.44021 17.7815 51.2911 -1.2 1 0.142783 0.0453841 0.00169725 0.0107685 0.00180714 0.0133141 0.00303612 0.0240671 0.00332458 0.0148938 0.00333593 0.0280022 0.00377935 0.0256738 0.00451494 0.0333377 0.00547683 0.0289902 0.0074646 0.0413531
75 3 O 1.2611 15.1353 57.9051 -1.2 1 0.0166741 0.0113108 0.0038297 0.00692039 0.00112633 0.00643291 0.00216008 0.0237486 0.00216823 0.00902503 0.00264495 0.0276804 0.0027067 0.0211064 0.00303514 0.0329488 0.00260602 0.0253298 0.00399762 0.0493696
76 3 O -0.0654236 15.5714 50.7131 -1.2 1 0.153325 0.0480449 0.0033895 0.0121991 0.00316025 0.0125452 0.0043923 0.0245811 0.00337663 0.0152867 0.00311764 0.026569 0.00407597 0.0265371 0.0057142 0.0331257 0.0046793 0.0293601 0.00874751 0.0402389
77 1 Mg -3.1832 14.015 52.4054 1.2 1 0.121861 0.0419115 0.00117972 0.0100282 0.00154615 0.0113598 0.0026764 0.0240617 0.00412146 0.0143881 0.00321074 0.0265643 0.00374725 0.0246259 0.00403848 0.032643 0.00452968 0.0273917 0.00657144 0.040075
78 3 O 2.4265 15.5606 50.2865 -1.2 1 0.163832 0.0506202 0.00415157 0.0120133 0.00181387 0.01399 0.00407667 0.0248718 0.00442144 0.0173262 0.00373335 0.0273106 0.0039359 0.0276608 0.00583437 0.0334598 0.00567807 0.0290674 0.00857315 0.0391147
79 1 Mg -1.73633 14.2279 55.0241 1.2 1 0.0548274 0.0277985 0.00563436 0.00761889 0.00146863 0.00718726 0.00210845 0.0232041 0.00321658 0.0109983 0.00316303 0.0268034 0.00272011 0.0223369 0.00331467 0.0328926 0.00391848 0.0261932 0.00542117 0.04533
80 2 Si -1.75547 12.0202 53.3159 2.4 1 0.092392 0.0362093 0.00366397 0.00877479 0.00196746 0.0085282 0.00160584 0.0228653 0.00344837 0.0119399 0.00244488 0.0255561 0.00335365 0.0226617 0.00330108 0.0316518 0.00397337 0.0264722 0.0066097 0.0426249
81 3 O -1.71557 10.4714 53.2107 -1.2 1 0.095865 0.0357912 0.00337129 0.00823234 0.00242705 0.0075273 0.00200533 0.0218786 0.00289966 0.0110517 0.00307822 0.0248047 0.00270448 0.021058 0.00457833 0.0312975 0.00364946 0.025903 0.00799906 0.0415719
82 3 O -1.12317 13.2961 46.4943 -1.2 1 0.274006 0.0543375 0.0218837 0.021331 0.00584055 0.0218296 0.00728468 0.0296533 0.00877645 0.0205426 0.00736497 0.0282783 0.00617227 0.0280282 0.00889005 0.032523 0.0123761 0.0326404 0.0131525 0.0347752
83 3 O -2.94479 12.7073 53.9776 -1.2 1 0.0840041 0.0336216 0.00326057 0.00771787 0.00161613 0.00861613 0.00208642 0.0228151 0.00339291 0.011938 0.00199684 0.025438 0.00348792 0.0231069 0.00333141 0.0324544 0.00431437 0.0260556 0.00601217 0.0428192
84 3 O -0.414317 12.7573 53.8512 -1.2 1 0.0845511 0.0345449 0.0033665 0.00826432 0.00235064 0.00713441 0.00188823 0.0240175 0.00350543 0.0121962 0.00262136 0.0254603 0.00323455 0.0240155 0.00322202 0.0326038 0.00467505 0.0270959 0.00537547 0.0433422
85 1 Mg -2.9359 21.2315 57.4895 1.2 1 0.0222434 0.0136231 0.00545214 0.00642393 0.00161528 0.007215 0.00168851 0.0230852 0.00195678 0.00920014 0.00186578 0.0286742 0.00245255 0.0202896 0.00265101 0.0317467 0.00303177 0.0258017 0.0046758 0.0495725
86 1 Mg -1.57587 21.1923 49.6591 1.2 1 0.181309 0.0508624 0.00769214 0.012983 0.00281093 0.0153382 0.00315164 0.0244938 0.00430307 0.0169034 0.00491459 0.0289069 0.00383331 0.026196 0.00618887 0.033738 0.00610546 0.0300081 0.00892038 0.0400076
87 2 Si -1.09434 18.5402 47.9656 2.4 1 0.231979 0.0569319 0.0144279 0.0179931 0.00385934 0.0202855 0.00455264 0.026664 0.00726637 0.0202037 0.00606238 0.0296243 0.00583956 0.0294341 0.00679824 0.0344993 0.0101924 0.0320786 0.0107264 0.0397637
88 3 O -0.782463 20.1327 48.0557 -1.2 1 0.223795 0.0554846 0.0132103 0.0167418 0.00370424 0.019974 0.00397335 0.026178 0.00630204 0.0195894 0.00576741 0.0292919 0.00559718 0.0276514 0.00780583 0.0348583 0.00873273 0.0320439 0.00972289 0.0400305
89 3 O -1.63524 17.5318 51.758 -1.2 1 0.13379 0.0431139 0.00159351 0.0111754 0.00248179 0.0120026 0.00231543 0.0242934 0.00303872 0.0144886 0.0029288 0.0274917 0.00379946 0.0246113 0.00433111 0.033411 0.00558646 0.0282787 0.00785516 0.0418739
90 3 O -2.35476 18.1172 48.7026 -1.2 1 0.205932 0.0559015 0.00961417 0.0152111 0.00299831 0.0169138 0.00372451 0.0264826 0.00559461 0.0196968 0.00523445 0.0288378 0.00420754 0.028684 0.00631946 0.0352362 0.00808357 0.0319501 0.00877553 0.0396552
91 1 Mg 0.00731162 16.5308 46.9009 1.2 1 0.256861 0.0566884 0.0186411 0.0205506 0.00427201 0.0240734 0.00581217 0.0296064 0.00841272 0.0210145 0.00692221 0.0308264 0.00620689 0.0296002 0.00788285 0.0342361 0.0111576 0.0342792 0.0121409 0.038203
92 3 O 0.360703 17.8363 48.4731 -1.2 1 0.208664 0.0549713 0.00992096 0.015494 0.00339181 0.0178441 0.00353189 0.0261682 0.00560451 0.019365 0.00446893 0.0287857 0.00477863 0.0293989 0.00631666 0.0347046 0.00846267 0.0321418 0.0101015 0.0400617
93 1 Mg 1.31728 16.5799 54.5651 1.2 1 0.0734977 0.0320981 0.00378945 0.00793253 0.00132561 0.00839996 0.00259418 0.0234088 0.00261994 0.0119095 0.00219862 0.0270905 0.00344006 0.0236884 0.00322108 0.0334117 0.00404803 0.0267332 0.00567217 0.044482
94 2 Si 1.44218 19.2489 56.3764 2.4 1 0.0317015 0.01841 0.00640936 0.00769277 0.00179552 0.00723681 0.00244103 0.0231358 0.00243771 0.00934375 0.00349485 0.0271872 0.00249376 0.0215194 0.00449661 0.0322318 0.00399285 0.0257794 0.00659564 0.0499581
95 3 O 1.30665 17.7134 56.5258 -1.2 1 0.0283034 0.0167844 0.00576305 0.00713491 0.00162156 0.00650297 0.00177739 0.0233217 0.00322799 0.00916868 0.00184829 0.027731 0.00283718 0.0209998 0.00270373 0.0325856 0.00373571 0.0257955 0.00510553 0.0492033
96 3 O 1.61614 20.327 52.7025 -1.2 1 0.11044 0.0388131 0.00190225 0.00912887 0.00167045 0.011729 0.00321831 0.0238917 0.00267964 0.013143 0.00319233 0.0279633 0.00407736 0.0236448 0.00403109 0.033176 0.00442435 0.0280219 0.00691518 0.043839
97 3 O 0.15799 19.9998 55.7744 -1.2 1 0.0464941 0.0234654 0.0057338 0.00708734 0.00173427 0.00724029 0.00274906 0.0231022 0.00176054 0.0099486 0.00282534 0.027684 0.0023703 0.0217287 0.00412695 0.0328332 0.00342911 0.0263744 0.00617042 0.0483821
98 3 O 2.75433 19.836 55.7814 -1.2 1 0.041463 0.0222493 0.00661698 0.00699359 0.00162964 0.00711957 0.00240437 0.0227534 0.00208139 0.00965279 0.00237629 0.0273122 0.00290169 0.0217894 0.00363576 0.0329851 0.0033448 0.0262836 0.0062137 0.04812
99 1 Mg -0.0734749 18.9538 52.1678 1.2 1 0.11785 0.0422645 0.00163548 0.00980569 0.00258685 0.010887 0.0025992 0.0243818 0.00225849 0.014558 0.00309728 0.028273 0.00348968 0.0246039 0.0046776 0.0331846 0.0041864 0.0283692 0.00734586 0.0420446
100 1 Mg 1.82455 18.804 49.4012 1.2 1 0.185765 0.0546271 0.00548937 0.0129634 0.002198 0.0157121 0.00333356 0.0246783 0.00487745 0.0184636 0.00496287 0.0286038 0.00480641 0.028271 0.00654036 0.0354204 0.00629953 0.0313096 0.00944405 0.0402653
101 2 Si 1.38385 21.0476 51.2236 2.4 1 0.146412 0.0475805 0.00204936 0.0108486 0.00220455 0.0135015 0.00350432 0.0237162 0.00347973 0.0152847 0.00493256 0.0274028 0.00437889 0.0256204 0.00601816 0.033807 0.00452544 0.0295589 0.00881302 0.0424734
102 3 O 1.43632 22.5679 51.4658 -1.2 1 0.140048 0.0434328 0.00238316 0.00983378 0.00160964 0.0129595 0.00309965 0.0231275 0.00343231 0.0139551 0.0035038 0.0281287 0.00391758 0.0237985 0.00472278 0.0332822 0.00538686 0.0283794 0.00747707 0.0424559
103 3 O 1.51452 19.9418 57.9263 -1.2 1 0.0167774 0.0106369 0.00407376 0.00675546 0.00153893 0.0071663 0.00169577 0.0235412 0.00185958 0.0087407 0.00269503 0.0282704 0.0024788 0.0205979 0.00350426 0.0319274 0.00313788 0.0255386 0.00467816 0.0507574
104 3 O 0.0833513 20.4014 50.6503 -1.2 1 0.15559 0.048061 0.00379201 0.0115243 0.00355545 0.0135782 0.00361145 0.0242604 0.003469 0.0156043 0.00391112 0.0280074 0.00409355 0.0262167 0.00603828 0.0338475 0.00466912 0.029705 0.00859447 0.041831
105 1 Mg -2.964 18.9964 52.1962 1.2 1 0.124567 0.0419809 0.000991759 0.00987397 0.00153882 0.0121899 0.00249235 0.0239422 0.00249733 0.0142781 0.00311334 0.0281611 0.00340521 0.0244873 0.00393069 0.0331939 0.00463504 0.0280397 0.00702981 0.0417813
106 3 O 2.67033 20.453 50.3985 -1.2 1 0.159316 0.0506065 0.00312436 0.0109727 0.00155141 0.0139823 0.00331049 0.0241974 0.00341586 0.0167464 0.003655 0.0278249 0.00393564 0.0269381 0.0050752 0.0340964 0.00561224 0.0297437 0.00851654 0.0409922
107 1 Mg -1.50267 18.9792 55.1969 1.2 1 0.0520595 0.0258423 0.0060486 0.00715664 0.00179662 0.00740617 0.00240456 0.0231356 0.00237996 0.0106669 0.00297 0.0275968 0.00227359 0.0223454 0.00400198 0.0329397 0.00400977 0.0259699 0.00662903 0.046958
108 2 Si -1.72885 16.8578 53.2369 2.4 1 0.0988259 0.0369572 0.00226652 0.00908952 0.00255205 0.00955504 0.00195973 0.0236559 0.00304522 0.0131343 0.00255491 0.0267773 0.00317051 0.0244982 0.00318377 0.033142 0.00475766 0.0273524 0.00610469 0.0439422
109 3 O -1.69435 15.2697 53.2128 -1.2 1 0.094721 0.0360833 0.00257057 0.00878185 0.00216278 0.00887257 0.00176236 0.022883 0.00325779 0.0123646 0.00293592 0.0265868 0.00293951 0.0234869 0.0034541 0.0332003 0.00405937 0.0264564 0.00648187 0.043442
110 3 O -0.934508 18.1774 46.4096 -1.2 1 0.267863 0.057277 0.0206786 0.0216484 0.00423012 0.0243876 0.00564712 0.0302873 0.00809832 0.0218287 0.00691939 0.0309044 0.00632141 0.0288271 0.00907091 0.0356789 0.0124374 0.0355164 0.0119044 0.0397351
111 3 O -2.93502 17.5009 53.9203 -1.2 1 0.08454 0.0337511 0.00328748 0.00789169 0.00178686 0.0095357 0.00191859 0.0232935 0.00218511 0.012192 0.00202948 0.0262067 0.00298741 0.024161 0.00306519 0.033475 0.00405753 0.0270916 0.00589955 0.0440946
112 3 O -0.404252 17.5071 53.9659 -1.2 1 0.0775894 0.0327867 0.00427315 0.00782972 0.00228719 0.00739937 0.0014264 0.0236375 0.00232398 0.0117203 0.00203082 0.0265769 0.00254614 0.0237807 0.00360803 0.0336071 0.00425862 0.0274535 0.00645376 0.0451366
113 1 Mg -2.99242 26.1189 57.5131 1.2 1 0.0223035 0.0141214 0.0046862 0.00556124 0.00179749 0.00688959 0.00129636 0.0225612 0.00171585 0.00867693 0.0015894 0.0292444 0.00205816 0.0203391 0.00235058 0.0316792 0.0030574 0.0255085 0.00375451 0.0500081
114 1 Mg -1.37323 25.9849 49.8653 1.2 1 0.181497 0.0498929 0.00748818 0.0121171 0.00335648 0.0149756 0.00268236 0.0238624 0.00443649 0.0164924 0.00516886 0.0289442 0.00429469 0.0256338 0.00675529 0.0335355 0.00567684 0.0293187 0.00882845 0.0395554
115 2 Si -0.996506 23.3276 48.0607 2.4 1 0.227782 0.0563705 0.0145559 0.0170893 0.00412915 0.0194178 0.00407263 0.0256338 0.00622081 0.0189243 0.00585695 0.0290888 0.00518389 0.0279684 0.00623274 0.0345025 0.00858683 0.0315589 0.00921616 0.0396817
116 3 O -0.952149 24.9218 47.9157 -1.2 1 0.228173 0.0561618 0.0142588 0.0167124 0.00377148 0.0189082 0.00406411 0.0245507 0.00617421 0.0180944 0.00624458 0.0288066 0.00531342 0.0262547 0.00698838 0.0348675 0.00851257 0.0324178 0.00955804 0.038966
117 3 O -1.71012 22.261 51.9002 -1.2 1 0.130866 0.0422044 0.00208854 0.00991534 0.00234198 0.0120975 0.00208136 0.0231721 0.0024658 0.0134799 0.00293106 0.0279767 0.00398998 0.0239008 0.0043139 0.0326912 0.00506553 0.0272964 0.00707086 0.0424246
118 3 O -2.27101 22.8966 48.8988 -1.2 1 0.200793 0.0553643 0.00956803 0.0140122 0.00306527 0.0160827 0.00319303 0.0251499 0.00478453 0.0184638 0.00483054 0.0289745 0.00398374 0.0272503 0.00612294 0.0346764 0.00706114 0.0310339 0.00885921 0.039542
119 1 Mg 0.231695 21.0983 46.8186 1.2 1 0.259331 0.0573582 0.0194444 0.020388 0.00411738 0.0240059 0.00537742 0.0294328 0.00774428 0.0209254 0.00625258 0.0311055 0.00642717 0.0283491 0.00814503 0.0347916 0.0103651 0.0348803 0.0109777 0.0388358
120 3 O 0.44372 22.8115 48.7205 -1.2 1 0.206325 0.0542187 0.0108145 0.0147436 0.00345407 0.0176353 0.00286713 0.0255353 0.00497426 0.0185779 0.00459255 0.0287343 0.00450861 0.0277142 0.00529234 0.0342728 0.00787533 0.0317877 0.0090905 0.0401061