ITEM: TIMESTEP
10000
ITEM: NUMBER OF ATOMS
11016
ITEM: BOX BOUNDS pp pp pp
-14.54184 24.2364
80.0 135.0
35.0 90.0
ITEM: ATOMS id type x y z coord q2 q3 q4 q5 q6 q7 q8 q2_mono q3_mono q4_mono q5_mono q6_mono q7_mono q8_mono
3 3 -13.0285 85.0133 36.3005 21 0.0388502  0.0447791  0.119539  0.0786845  0.128322  0.0608934  0.100014  0.0195607  0.0258319  0.0624322  0.0541582  0.233651  0.0638968  0.0992679  
12 2 -13.0056 81.6197 40.1396 23 0.0459621  0.0662023  0.174506  0.0452537  0.100573  0.0574386  0.163386  0.0586433  0.0457004  0.211871  0.0865459  0.269854  0.067203  0.182028  
13 3 -9.64271 81.7378 39.6533 23 0.040129  0.0368736  0.132434  0.0322156  0.109491  0.0475481  0.133394  0.0191508  0.0251246  0.057218  0.0583115  0.139664  0.0765741  0.0993987  
14 3 -12.1571 80.2921 40.1486 21 0.0304734  0.0525449  0.157001  0.0490914  0.122943  0.0533634  0.151497  0.0160259  0.0162455  0.0939461  0.0714821  0.182372  0.0815361  0.106207  
15 3 -13.1749 82.3432 41.584 22 0.0336559  0.0325418  0.0873578  0.0299141  0.0857542  0.0462405  0.107429  0.0236508  0.0228559  0.0641348  0.0521284  0.212736  0.062138  0.110226  
16 3 -10.0291 80.8619 35.8534 21 0.0280462  0.0540869  0.177002  0.0470279  0.0795082  0.0447367  0.108529  0.0236865  0.032479  0.0882196  0.0485544  0.210059  0.0389391  0.130521  
18 1 -12.9029 84.0509 38.0501 24 0.0328297  0.0731202  0.217698  0.0614158  0.13181  0.0546125  0.163009  0.0381817  0.0365273  0.0816024  0.0394497  0.223418  0.0576264  0.161623  
20 3 -12.6134 81.5636 36.7042 23 0.0263338  0.0394  0.107779  0.0537403  0.0737232  0.0403155  0.120268  0.0134433  0.0310553  0.0727313  0.0617091  0.133089  0.060543  0.115256  
21 3 -11.3411 85.3509 38.3422 22 0.0499109  0.0531463  0.176863  0.0506779  0.14145  0.0603968  0.145868  0.0161673  0.0291814  0.105549  0.0505495  0.287305  0.0800585  0.126017  
23 1 -11.0375 81.2235 38.1395 19 0.0466015  0.0567572  0.136327  0.0367202  0.0817446  0.0409951  0.174504  0.0189983  0.0309422  0.104175  0.0471258  0.180632  0.0660876  0.170864  
24 3 -9.81631 83.1298 37.2097 20 0.0289906  0.0587905  0.156024  0.0519255  0.083515  0.0579206  0.142453  0.00812737  0.0374395  0.0557104  0.0591741  0.176628  0.0589468  0.127649  
25 1 -12.0114 88.5422 41.102 27 0.0418138  0.0817393  0.171592  0.0833262  0.182843  0.0824552  0.27125  0.0463053  0.0374639  0.0521295  0.0613  0.225068  0.0580501  0.227005  
28 3 -13.2336 86.7719 41.2445 24 0.0482586  0.0625918  0.0947373  0.0568843  0.181808  0.0543391  0.221428  0.00957956  0.0271582  0.109361  0.072365  0.355409  0.0775013  0.203804  
31 1 -14.2145 87.6045 39.7978 23 0.0339087  0.0337071  0.118446  0.0508749  0.170547  0.0509101  0.209693  0.0398658  0.0399546  0.0446877  0.0272269  0.214528  0.047501  0.167995  
33 2 -12.7552 85.1842 41.1937 25 0.0320972  0.0644369  0.189882  0.0618688  0.172642  0.0745641  0.166406  0.0492362  0.0623356  0.198646  0.0760625  0.255589  0.0562201  0.147665  
34 3 -11.1978 84.976 41.2307 28 0.0227806  0.0621681  0.10449  0.0483258  0.126689  0.0540646  0.133087  0.0270231  0.0147331  0.0861101  0.0687335  0.262057  0.105552  0.142448  
35 3 -12.1682 82.6094 39.2141 20 0.0396033  0.0787009  0.18199  0.0450141  0.104264  0.0418601  0.182882  0.0136829  0.04282  0.0500296  0.0599546  0.160572  0.0634461  0.121145  
36 3 -13.5797 84.7004 39.9259 25 0.0214426  0.0582175  0.154067  0.0342061  0.151092  0.0495124  0.141107  0.0149438  0.026506  0.0902692  0.0612471  0.271891  0.0976082  0.132773  
38 3 -13.2233 84.7423 42.682 23 0.0365549  0.0620997  0.148636  0.0528744  0.134077  0.0654788  0.145864  0.0124341  0.0406197  0.092237  0.0580849  0.265592  0.0869174  0.161668  
40 2 -11.8765 86.8482 38.1518 22 0.0389431  0.0824152  0.141275  0.0788873  0.158336  0.0665969  0.125782  0.0409938  0.0334904  0.169768  0.0448347  0.265151  0.0593698  0.151641  
41 3 -13.4231 87.2185 38.081 25 0.0293174  0.0873078  0.0935298  0.0635  0.160404  0.06842  0.10132  0.0135222  0.0297673  0.0970081  0.0800406  0.318531  0.0569693  0.167085  
43 3 -11.2313 87.3413 36.7875 24 0.0288378  0.0563583  0.0906507  0.0574664  0.169774  0.0533928  0.0967577  0.0164753  0.0206925  0.116274  0.0636116  0.303332  0.0435612  0.119018  
44 3 -11.2656 87.6813 39.3961 24 0.0255751  0.0603214  0.120871  0.0354783  0.169927  0.0577647  0.160803  0.0154982  0.0382325  0.122866  0.0978357  0.346207  0.092412  0.1896  
168 3 -9.97237 80.9472 42.7488 23 0.0241272  0.0588267  0.0949021  0.0235184  0.110649  0.0533817  0.0964487  0.0183976  0.0355375  0.0540754  0.0509563  0.184799  0.0872705  0.115433  
170 1 -11.8689 84.0624 44.0378 26 0.0335435  0.0624126  0.152035  0.0616614  0.116672  0.0512005  0.135836  0.0336447  0.0379474  0.111541  0.0605691  0.210947  0.0398328  0.199769  
171 2 -13.9776 82.2422 42.9639 20 0.0308705  0.0601738  0.139956  0.0566737  0.133648  0.099472  0.110072  0.0614913  0.0602231  0.224074  0.0814442  0.298777  0.0646043  0.193133  
174 3 -10.1569 83.1643 43.8561 20 0.022298  0.030299  0.188079  0.0463072  0.123125  0.069651  0.137496  0.0317054  0.0198022  0.0888741  0.0866182  0.201792  0.113619  0.12984  
192 2 -11.7354 87.4152 44.047 25 0.0279467  0.0952054  0.208508  0.0614557  0.145171  0.0727782  0.257563  0.051402  0.0400658  0.268838  0.0664958  0.29918  0.063844  0.172364  
195 3 -11.0342 87.8546 42.7031 23 0.0281946  0.085053  0.0925943  0.0534141  0.189291  0.054499  0.268801  0.0102464  0.0222315  0.110167  0.0903828  0.376406  0.0790096  0.225147  
1380 3 -8.52536 85.3894 36.2668 22 0.0344709  0.0413302  0.115586  0.0841859  0.136406  0.0334112  0.112739  0.0199426  0.0205283  0.0615586  0.0643366  0.251549  0.0786615  0.108585  
1389 2 -8.14862 81.8186 40.1464 23 0.0366238  0.0992259  0.199801  0.0625532  0.141586  0.0705185  0.151024  0.0583151  0.0449858  0.210905  0.0859594  0.272312  0.0665975  0.183572  
1391 3 -7.5369 80.363 40.0859 20 0.0208188  0.0555454  0.18173  0.0434446  0.137212  0.0550343  0.134474  0.0141561  0.0265288  0.090974  0.071256  0.176821  0.0832598  0.116123  
1392 3 -8.23663 82.369 41.6718 22 0.0341325  0.0407811  0.0911038  0.037235  0.0920316  0.0531491  0.0993745  0.0238918  0.021044  0.0657166  0.0414646  0.211637  0.0640182  0.127927  
1393 3 -5.18055 80.7601 35.9285 20 0.0442737  0.0653974  0.168393  0.0468715  0.101724  0.052196  0.106416  0.0231503  0.0371442  0.0861898  0.0783714  0.198508  0.0588192  0.124581  
1395 1 -8.17939 84.1827 37.955 22 0.015692  0.0556032  0.176734  0.0619881  0.110624  0.0474241  0.152576  0.0306242  0.0477163  0.0797011  0.0310026  0.207836  0.0550868  0.151739  
1396 2 -9.1305 82.1433 36.1087 22 0.0327763  0.0605018  0.160289  0.0531467  0.0937404  0.0758402  0.133525  0.0413418  0.0306891  0.187658  0.0643374  0.240108  0.0545738  0.169671  
1397 3 -7.76787 81.6023 36.7638 21 0.0249026  0.0681271  0.112492  0.0568628  0.0865019  0.040973  0.111381  0.0152467  0.0355012  0.0649128  0.0604305  0.150492  0.0545717  0.112268  
1398 3 -6.5159 85.4218 38.1395 22 0.0505356  0.0342168  0.170959  0.0591113  0.156191  0.0488748  0.166594  0.0226845  0.0291155  0.0891278  0.0455901  0.283561  0.0439546  0.13663  
1400 1 -6.17088 81.2059 38.2052 19 0.0424277  0.0963503  0.172573  0.0553829  0.122274  0.0485375  0.156461  0.0249185  0.0413941  0.11093  0.0498463  0.190339  0.0599684  0.173611  
1402 1 -7.18003 88.5129 41.1299 24 0.0420666  0.0830554  0.169677  0.0853627  0.178979  0.0852067  0.26922  0.0521695  0.0351153  0.0557015  0.0623776  0.214406  0.0547775  0.226272  
1405 3 -8.47448 86.8051 41.2703 24 0.0482443  0.0619363  0.081005  0.0574666  0.178647  0.0493721  0.212472  0.0197871  0.0188505  0.123771  0.0532248  0.376612  0.0655151  0.218082  
1408 1 -9.40956 87.6637 39.8364 21 0.0278349  0.0420657  0.128225  0.0566992  0.157194  0.0545654  0.209707  0.0269673  0.039279  0.0424511  0.0237189  0.224864  0.0531262  0.172085  
1409 1 -10.5307 83.839 39.481 23 0.0635598  0.0770164  0.160834  0.065394  0.110493  0.0731542  0.152956  0.0232457  0.0522957  0.065161  0.0752023  0.184982  0.0670467  0.166493  
1410 2 -7.91844 85.2578 41.1979 25 0.0385281  0.0754735  0.12253  0.0609765  0.163636  0.0707753  0.173459  0.0497595  0.0634431  0.199368  0.0745788  0.255103  0.0541975  0.146476  
1411 3 -6.35183 85.1273 41.2061 26 0.0220929  0.068081  0.0996813  0.0449924  0.132735  0.0547097  0.151287  0.037943  0.0138589  0.090854  0.0683507  0.285129  0.109367  0.163825  
1412 3 -7.16338 82.7264 39.2849 21 0.0381286  0.0853094  0.132563  0.0418278  0.106891  0.0503957  0.132167  0.0178057  0.0336803  0.0532814  0.0505695  0.165138  0.0653853  0.102372  
1413 3 -8.70034 84.7168 39.9222 24 0.026772  0.0413551  0.133853  0.0302049  0.159167  0.0522144  0.131819  0.0123081  0.0324627  0.0939533  0.0651194  0.276196  0.0712058  0.128482  
1414 1 -10.5167 85.0758 36.4078 23 0.027087  0.0482718  0.136945  0.080613  0.125576  0.0637541  0.138612  0.0264712  0.0644401  0.106065  0.0644718  0.209643  0.0663586  0.1468  
1415 3 -8.35542 84.7771 42.6904 24 0.0372622  0.0579288  0.150671  0.0638647  0.132902  0.0573402  0.15784  0.0105268  0.0370759  0.0919345  0.0544029  0.266399  0.0846682  0.157748  
1417 2 -7.03314 86.9635 38.1209 24 0.0292489  0.0566959  0.100043  0.0804352  0.146822  0.0724787  0.183574  0.0409974  0.0333928  0.169854  0.0451227  0.264777  0.0586477  0.151623  
1418 3 -8.56201 87.3501 38.1605 22 0.028778  0.086861  0.09662  0.0518567  0.1421  0.0622779  0.108499  0.0111898  0.0300034  0.0994535  0.0779213  0.325633  0.0764944  0.174419  
1420 3 -6.42229 87.6258 36.835 21 0.0269702  0.046877  0.109622  0.059196  0.161062  0.0304272  0.0958682  0.0136163  0.0264014  0.120469  0.0623907  0.316854  0.0412239  0.140414  
1421 3 -6.38636 87.6458 39.4463 24 0.0298783  0.0532466  0.11032  0.0341998  0.158626  0.0585374  0.16597  0.0151993  0.0395049  0.127398  0.0892056  0.358828  0.084628  0.202112  
1545 3 -5.15202 80.9248 42.696 23 0.024582  0.0426821  0.124173  0.0352611  0.120069  0.0588092  0.0997851  0.0155813  0.036576  0.0529223  0.0448945  0.180919  0.0748882  0.1177  
1547 1 -7.00331 84.0989 44.0253 27 0.0378903  0.0668336  0.152598  0.0637404  0.121299  0.047895  0.139942  0.0339523  0.0366807  0.112366  0.0606153  0.21084  0.0390197  0.200065  
1548 2 -9.0997 82.2536 43.0267 21 0.0259781  0.0690567  0.148467  0.0658539  0.132266  0.0793305  0.128921  0.0613672  0.0589974  0.22417  0.0821853  0.299465  0.0646014  0.193702  
1551 3 -5.32979 83.1413 43.813 20 0.0250281  0.0394369  0.191733  0.0548939  0.130134  0.0608385  0.151536  0.0318314  0.0185111  0.0881951  0.0872057  0.208468  0.117994  0.133163  
1566 1 -9.98352 86.0136 42.5209 26 0.0444566  0.0929712  0.150045  0.04167  0.152463  0.0875336  0.176146  0.0290349  0.0485203  0.0787137  0.0704613  0.168328  0.0570362  0.176178  
1569 2 -6.88297 87.4244 44.0885 25 0.0303791  0.0888389  0.206611  0.0762511  0.127041  0.0821002  0.26855  0.0516675  0.0399466  0.269291  0.0675598  0.299459  0.0636923  0.172223  
1572 3 -6.18377 87.8401 42.7346 23 0.0268659  0.0701728  0.0907427  0.0482346  0.176285  0.0504633  0.272717  0.00995216  0.0211144  0.112488  0.0887239  0.381426  0.0745494  0.225162  
2786 1 -5.70732 84.0909 39.4314 25 0.0509542  0.0520378  0.149637  0.0423615  0.115795  0.0455263  0.118363  0.0279162  0.0399655  0.0921535  0.0493769  0.191809  0.0567876  0.141687  
2791 1 -5.33036 84.8976 36.4982 21 0.0330929  0.0288359  0.161692  0.0866833  0.103083  0.0682185  0.135895  0.0286214  0.040599  0.117155  0.0582075  0.207805  0.0687867  0.158386  
2751 1 -7.77746 87.4051 35.3628 26 0.0292525  0.0485814  0.146648  0.0373266  0.155379  0.0486292  0.12462  0.0310409  0.0370798  0.117686  0.0728616  0.245644  0.0955541  0.233155  
1374 1 -12.4939 87.6552 35.2644 25 0.0399569  0.0756254  0.122019  0.0437579  0.142119  0.056034  0.104041  0.0247503  0.0357588  0.124684  0.0741631  0.246721  0.0882618  0.237992  
2943 1 -5.05072 86.0967 42.5632 28 0.0427921  0.0657975  0.142643  0.0350315  0.142683  0.0657187  0.188215  0.0261969  0.0358482  0.0957323  0.0820826  0.170768  0.0566308  0.183595  
1416 1 -9.87102 88.6961 37.2456 24 0.0343241  0.0594901  0.161605  0.0781158  0.15748  0.0489713  0.100495  0.0272322  0.0280677  0.0929447  0.0465026  0.253266  0.0674317  0.225237  
19 2 -14.0107 82.0767 36.1685 23 0.0516429  0.0566288  0.143704  0.0615713  0.0802668  0.0789033  0.15011  0.0416709  0.0305709  0.187823  0.0641054  0.240146  0.0550289  0.169127  
1401 3 -4.93534 83.0211 37.3772 19 0.0284137  0.0884835  0.1742  0.0564422  0.102099  0.0676252  0.145986  0.00921099  0.0438662  0.0606152  0.0639146  0.160854  0.071577  0.111054  
1390 3 -4.7561 81.1859 39.6697 23 0.0349168  0.0462921  0.13617  0.0274101  0.116113  0.0579355  0.123137  0.0168271  0.0207755  0.0658641  0.0632363  0.14014  0.0719362  0.0858524  
2793 1 -4.92918 88.8049 37.2729 21 0.0358785  0.067368  0.188814  0.104102  0.157771  0.0713524  0.0990635  0.0362255  0.0320755  0.0841032  0.0508078  0.24548  0.0684576  0.206239  
169 1 -10.4893 134.806 41.1371 25 0.021807  0.0622088  0.12231  0.0617343  0.12794  0.059653  0.136682  0.0521345  0.0372434  0.105929  0.0927613  0.198976  0.0752976  0.240456  
1546 1 -5.73474 134.818 41.0021 24 0.0165655  0.0757814  0.119362  0.0614362  0.152829  0.0754182  0.128313  0.031643  0.0460515  0.091107  0.08269  0.17829  0.0646029  0.197294  
193 3 -13.2812 87.3783 44.1291 23 0.0152497  0.0556343  0.212096  0.0451744  0.146864  0.056696  0.23238  0.0212482  0.0235477  0.0973626  0.0634259  0.338194  0.0575069  0.196798  
1570 3 -8.42146 87.4011 44.1513 23 0.0167022  0.05944  0.209939  0.0552522  0.151767  0.0498386  0.243628  0.0207382  0.0232836  0.0982597  0.0638315  0.336282  0.0617964  0.193018  
2773 2 -4.3161 82.0767 36.1685 23 0.0516431  0.0566306  0.1437  0.0615739  0.0802611  0.0789013  0.150112  0.0416706  0.0305704  0.187822  0.0641059  0.240146  0.0550288  0.169126  
2757 3 -3.33392 85.0133 36.3005 21 0.0388518  0.0447785  0.119539  0.0786836  0.128324  0.0608961  0.100013  0.019561  0.0258317  0.0624296  0.0541574  0.233651  0.0638976  0.0992645  
2766 2 -3.31101 81.6197 40.1396 23 0.0459592  0.0662051  0.174506  0.0452525  0.100581  0.0574367  0.163381  0.0586429  0.0457002  0.21187  0.0865458  0.269855  0.0672028  0.182028  
2767 3 0.05185 81.7378 39.6533 23 0.0401302  0.0368742  0.132434  0.0322137  0.109492  0.0475461  0.133392  0.0191506  0.0251245  0.0572182  0.0583123  0.139664  0.0765733  0.0993979  
2768 3 -2.46257 80.2921 40.1486 21 0.0304736  0.0525458  0.156999  0.0490921  0.122944  0.0533646  0.151495  0.0160258  0.016245  0.0939458  0.0714823  0.182372  0.0815361  0.106207  
2769 3 -3.4803 82.3432 41.584 22 0.0336536  0.0325426  0.0873534  0.0299129  0.0857556  0.0462403  0.107426  0.0236506  0.022856  0.0641337  0.0521289  0.212736  0.0621382  0.110227  
2770 3 -0.33456 80.8619 35.8534 21 0.0280469  0.0540861  0.177003  0.0470276  0.0795084  0.0447358  0.108523  0.0236867  0.0324778  0.0882188  0.0485543  0.210059  0.038938  0.13052  
2772 1 -3.20831 84.0509 38.0501 24 0.0328306  0.0731184  0.217697  0.0614176  0.13181  0.0546125  0.163008  0.038182  0.0365277  0.0816036  0.0394497  0.223415  0.0576269  0.161621  
2774 3 -2.91884 81.5636 36.7042 23 0.0263329  0.0394005  0.107778  0.0537409  0.0737216  0.0403155  0.120265  0.0134434  0.0310553  0.0727338  0.0617104  0.133089  0.0605435  0.115256  
2775 3 -1.64652 85.3509 38.3422 22 0.0499108  0.0531466  0.176864  0.0506781  0.141448  0.0603981  0.145868  0.0161672  0.0291815  0.105547  0.0505506  0.287304  0.080059  0.126015  
2777 1 -1.34299 81.2235 38.1395 19 0.0466018  0.0567572  0.136329  0.0367214  0.0817439  0.0409933  0.1745  0.0189987  0.0309426  0.104177  0.0471259  0.18063  0.0660869  0.170862  
2778 3 -0.121749 83.1298 37.2097 20 0.0289894  0.0587914  0.156025  0.0519253  0.0835158  0.0579194  0.142452  0.00812721  0.0374397  0.0557097  0.0591744  0.176627  0.0589463  0.127648  
2779 1 -2.31688 88.5422 41.102 27 0.0418132  0.0817378  0.171593  0.0833247  0.182837  0.082454  0.271252  0.0463061  0.0374631  0.0521311  0.0612992  0.225066  0.0580502  0.227008  
2782 3 -3.53901 86.7719 41.2445 24 0.0482575  0.0625925  0.0947379  0.0568832  0.181807  0.0543408  0.221426  0.00958017  0.027158  0.10936  0.0723657  0.355409  0.0775021  0.203802  
2785 1 -4.51995 87.6045 39.7978 23 0.0339096  0.0337059  0.118446  0.050874  0.170549  0.0509116  0.209693  0.0398662  0.0399546  0.0446882  0.0272266  0.214526  0.0475011  0.167996  
2787 2 -3.06069 85.1842 41.1937 25 0.0320975  0.0644367  0.18988  0.0618691  0.17264  0.0745639  0.166403  0.0492358  0.0623354  0.198645  0.0760624  0.255591  0.0562199  0.147664  
2788 3 -1.50325 84.976 41.2307 28 0.0227813  0.0621671  0.10449  0.0483263  0.126687  0.0540642  0.133087  0.0270228  0.0147337  0.0861083  0.0687337  0.262057  0.105552  0.142448  
2789 3 -2.47369 82.6094 39.2141 20 0.0396006  0.0787006  0.18199  0.0450138  0.104266  0.0418608  0.182878  0.0136834  0.0428201  0.0500291  0.0599544  0.160572  0.0634454  0.121143  
2790 3 -3.88516 84.7004 39.9259 25 0.0214394  0.0582181  0.154064  0.0342062  0.15109  0.0495138  0.141104  0.0149437  0.0265062  0.0902664  0.0612469  0.27189  0.0976075  0.132769  
2792 3 -3.52877 84.7423 42.682 23 0.036555  0.0621  0.148634  0.0528748  0.134074  0.0654782  0.14586  0.012434  0.0406191  0.0922373  0.0580832  0.265594  0.0869168  0.161668  
2794 2 -2.18194 86.8482 38.1518 22 0.0389425  0.0824162  0.141276  0.078888  0.158333  0.0665978  0.125783  0.0409935  0.0334906  0.169767  0.0448341  0.265152  0.0593698  0.151641  
2795 3 -3.72854 87.2185 38.081 25 0.0293177  0.0873084  0.0935286  0.0634991  0.160406  0.06842  0.101319  0.0135225  0.0297671  0.097007  0.0800405  0.318529  0.0569706  0.167083  
2797 3 -1.53678 87.3413 36.7875 24 0.028838  0.0563592  0.0906497  0.0574669  0.169775  0.053394  0.0967582  0.0164756  0.0206925  0.116273  0.0636122  0.303332  0.0435606  0.119017  
2798 3 -1.57103 87.6813 39.3961 24 0.0255746  0.060322  0.120871  0.035477  0.169922  0.0577634  0.160805  0.0154982  0.0382331  0.122865  0.0978357  0.346206  0.0924126  0.189598  
2922 3 -0.277806 80.9472 42.7488 23 0.0241267  0.0588272  0.0948996  0.0235161  0.110648  0.0533822  0.0964478  0.0183974  0.0355375  0.0540759  0.0509579  0.184799  0.0872707  0.115435  
2924 1 -2.17438 84.0624 44.0378 26 0.0335434  0.0624123  0.152036  0.0616623  0.116669  0.0511993  0.135837  0.0336443  0.0379477  0.111542  0.060569  0.210946  0.0398328  0.199766  
2925 2 -4.28307 82.2422 42.9639 20 0.0308706  0.0601742  0.139954  0.0566731  0.13365  0.099471  0.110067  0.0614911  0.0602233  0.224074  0.0814445  0.298779  0.0646046  0.193133  
2928 3 -0.462315 83.1643 43.8561 20 0.0222993  0.0302986  0.188081  0.0463061  0.123124  0.0696495  0.137496  0.0317042  0.019802  0.0888729  0.0866168  0.201794  0.113619  0.129842  
2946 2 -2.04083 87.4152 44.047 25 0.0279453  0.0952034  0.208507  0.0614556  0.145169  0.0727776  0.257559  0.0514017  0.0400661  0.268837  0.0664962  0.29918  0.0638442  0.172362  
2949 3 -1.33968 87.8546 42.7031 23 0.0281941  0.0850519  0.0925945  0.0534132  0.189289  0.0544988  0.268802  0.0102462  0.0222318  0.110166  0.0903837  0.376406  0.0790113  0.225147  
4134 3 1.1692 85.3894 36.2668 22 0.0344713  0.0413299  0.115587  0.0841862  0.136406  0.0334107  0.112739  0.0199427  0.0205273  0.0615585  0.0643368  0.251548  0.0786621  0.108584  
4143 2 1.54594 81.8186 40.1464 23 0.0366231  0.0992255  0.199801  0.0625536  0.141586  0.0705181  0.151022  0.0583148  0.0449857  0.210904  0.0859594  0.272312  0.0665979  0.183572  
4145 3 2.15766 80.363 40.0859 20 0.020819  0.0555452  0.181729  0.0434445  0.137212  0.0550341  0.134472  0.014156  0.0265286  0.0909739  0.0712562  0.176821  0.08326  0.116123  
4146 3 1.45793 82.369 41.6718 22 0.0341322  0.0407812  0.0911042  0.0372347  0.0920309  0.0531487  0.0993744  0.0238918  0.0210446  0.0657164  0.0414647  0.211636  0.0640186  0.127927  
4147 3 4.51401 80.7601 35.9285 20 0.0442737  0.0653973  0.168393  0.0468715  0.101725  0.052196  0.106416  0.0231502  0.0371442  0.0861898  0.0783714  0.198508  0.0588193  0.124582  
4149 1 1.51517 84.1827 37.955 22 0.0156922  0.055603  0.176735  0.0619874  0.110624  0.0474251  0.152576  0.0306248  0.0477162  0.0797023  0.031003  0.207835  0.0550874  0.151737  
4150 2 0.564059 82.1433 36.1087 22 0.0327757  0.0605027  0.160289  0.0531465  0.0937414  0.0758402  0.133524  0.0413414  0.0306887  0.187658  0.0643375  0.240108  0.0545733  0.169671  
4151 3 1.92669 81.6023 36.7638 21 0.024902  0.0681271  0.112493  0.0568629  0.0865014  0.0409724  0.111378  0.015247  0.0355009  0.0649127  0.0604307  0.150493  0.0545721  0.112268  
4152 3 3.17866 85.4218 38.1395 22 0.0505357  0.0342168  0.170958  0.0591112  0.156191  0.048875  0.166594  0.0226844  0.0291157  0.0891281  0.0455904  0.283561  0.0439547  0.13663  
4154 1 3.52368 81.2059 38.2052 19 0.0424277  0.0963502  0.172573  0.0553827  0.122274  0.0485375  0.156461  0.0249189  0.0413939  0.110931  0.0498458  0.190338  0.0599683  0.173609  
4156 1 2.51453 88.5129 41.1299 24 0.0420664  0.0830551  0.169677  0.0853627  0.178979  0.0852068  0.26922  0.0521696  0.0351154  0.055701  0.0623777  0.214407  0.0547776  0.226273  
4159 3 1.22008 86.8051 41.2703 24 0.0482442  0.061935  0.0810061  0.0574666  0.178646  0.049371  0.212473  0.0197866  0.0188506  0.123771  0.0532254  0.376612  0.0655167  0.218083  
4162 1 0.284998 87.6637 39.8364 21 0.0278348  0.0420653  0.128225  0.0566991  0.157193  0.0545651  0.209709  0.0269675  0.039279  0.0424509  0.0237195  0.224863  0.0531266  0.172086  
4163 1 -0.836132 83.839 39.481 23 0.0635587  0.0770157  0.160835  0.0653953  0.110493  0.0731533  0.152953  0.0232458  0.0522955  0.0651624  0.0752028  0.18498  0.0670464  0.166491  
4164 2 1.77612 85.2578 41.1979 25 0.0385282  0.0754729  0.12253  0.0609772  0.163635  0.0707744  0.17346  0.0497592  0.063443  0.199367  0.0745789  0.255104  0.0541976  0.146475  
4165 3 3.34272 85.1273 41.2061 26 0.0220929  0.0680811  0.0996815  0.0449924  0.132735  0.0547097  0.151287  0.037943  0.0138589  0.0908541  0.0683508  0.285129  0.109367  0.163825  
4166 3 2.53118 82.7264 39.2849 21 0.0381284  0.0853092  0.132563  0.0418277  0.106891  0.0503954  0.132166  0.0178058  0.0336803  0.0532814  0.0505696  0.165138  0.0653855  0.102372  
4167 3 0.994223 84.7168 39.9222 24 0.0267718  0.0413548  0.133853  0.030205  0.159166  0.0522142  0.131819  0.0123083  0.032463  0.0939525  0.0651198  0.276195  0.0712053  0.128482  
4168 1 -0.822145 85.0758 36.4078 23 0.0270886  0.0482735  0.136946  0.0806129  0.125577  0.0637551  0.13861  0.0264716  0.06444  0.106066  0.0644717  0.209641  0.0663589  0.146797  
4169 3 1.33914 84.7771 42.6904 24 0.0372624  0.057929  0.150672  0.0638649  0.132903  0.0573397  0.157841  0.0105266  0.0370755  0.0919339  0.0544031  0.266399  0.0846683  0.157749  
4171 2 2.66142 86.9635 38.1209 24 0.0292488  0.0566959  0.100043  0.0804354  0.146823  0.0724786  0.183575  0.0409973  0.0333928  0.169854  0.0451231  0.264778  0.0586479  0.151623  
4172 3 1.13255 87.3501 38.1605 22 0.0287784  0.0868608  0.0966204  0.0518569  0.142099  0.0622784  0.108501  0.0111898  0.0300035  0.099454  0.0779224  0.325633  0.0764953  0.174419  
4174 3 3.27227 87.6258 36.835 21 0.0269699  0.0468769  0.109622  0.0591959  0.161062  0.0304274  0.0958687  0.0136164  0.0264014  0.120469  0.0623906  0.316854  0.041224  0.140414  
4175 3 3.3082 87.6458 39.4463 24 0.0298783  0.0532463  0.11032  0.0341997  0.158626  0.0585375  0.165971  0.0151992  0.0395051  0.127398  0.0892059  0.358828  0.0846281  0.202112  
4299 3 4.54254 80.9248 42.696 23 0.024582  0.0426821  0.124173  0.0352612  0.120069  0.0588088  0.0997853  0.0155813  0.0365759  0.0529222  0.0448946  0.180919  0.0748882  0.1177  
4301 1 2.69125 84.0989 44.0253 27 0.0378897  0.0668337  0.152597  0.0637407  0.121298  0.0478952  0.139941  0.0339519  0.036681  0.112367  0.0606157  0.21084  0.0390191  0.200063  
4302 2 0.594857 82.2536 43.0267 21 0.0259772  0.0690566  0.148467  0.0658534  0.132265  0.079331  0.12892  0.0613671  0.0589973  0.224169  0.0821856  0.299466  0.0646018  0.193702  
4305 3 4.36477 83.1413 43.813 20 0.0250278  0.0394369  0.191733  0.0548937  0.130135  0.0608382  0.151536  0.0318313  0.018511  0.0881947  0.0872055  0.208467  0.117994  0.133164  
4320 1 -0.288957 86.0136 42.5209 26 0.0444562  0.0929719  0.150045  0.0416696  0.152464  0.0875344  0.176147  0.0290351  0.0485197  0.0787149  0.0704613  0.168327  0.0570367  0.176179  
4323 2 2.81159 87.4244 44.0885 25 0.0303792  0.0888386  0.206611  0.0762513  0.127041  0.0821002  0.26855  0.0516677  0.0399469  0.26929  0.0675598  0.299459  0.0636926  0.172222  
4326 3 3.51079 87.8401 42.7346 23 0.0268659  0.0701729  0.0907429  0.0482346  0.176285  0.0504634  0.272717  0.00995234  0.0211145  0.112489  0.0887238  0.381427  0.0745494  0.225162  
5505 1 1.9171 87.4051 35.3628 26 0.0292524  0.0485814  0.146648  0.0373276  0.155378  0.0486297  0.124619  0.0310407  0.03708  0.117686  0.072862  0.245644  0.0955541  0.233154  
5540 1 3.98724 84.0909 39.4314 25 0.0509541  0.0520377  0.149637  0.0423614  0.115795  0.0455263  0.118363  0.0279165  0.0399654  0.0921539  0.0493766  0.191809  0.0567879  0.141687  
5545 1 4.3642 84.8976 36.4982 21 0.033093  0.0288358  0.161692  0.0866833  0.103083  0.0682184  0.135895  0.0286213  0.0405989  0.117156  0.0582075  0.207805  0.0687866  0.158386  
4128 1 -2.79932 87.6552 35.2644 25 0.0399561  0.0756245  0.122018  0.0437585  0.142119  0.0560352  0.10404  0.0247502  0.0357587  0.124683  0.0741633  0.246719  0.0882617  0.23799  
5697 1 4.64384 86.0967 42.5632 28 0.0427922  0.0657974  0.142644  0.0350316  0.142683  0.0657188  0.188215  0.0261969  0.0358482  0.0957326  0.0820827  0.170769  0.0566303  0.183595  
4170 1 -0.176455 88.6961 37.2456 24 0.0343238  0.0594902  0.161606  0.0781163  0.157479  0.0489707  0.100495  0.0272322  0.0280672  0.0929439  0.0465026  0.253266  0.067432  0.225237  
4155 3 4.75922 83.0211 37.3772 19 0.0284136  0.0884835  0.1742  0.0564423  0.102099  0.0676252  0.145986  0.00921097  0.0438663  0.0606153  0.0639143  0.160854  0.0715773  0.111055  
4144 3 4.93846 81.1859 39.6697 23 0.0349168  0.0462921  0.13617  0.0274101  0.116113  0.0579354  0.123137  0.0168272  0.0207756  0.0658643  0.0632363  0.14014  0.0719364  0.0858524  
5547 1 4.76537 88.8049 37.2729 21 0.0358785  0.067368  0.188815  0.104102  0.157771  0.0713524  0.0990643  0.0362256  0.0320756  0.0841033  0.0508076  0.245481  0.0684578  0.206239  
2923 1 -0.794712 134.806 41.1371 25 0.0218062  0.0622093  0.122312  0.0617348  0.12794  0.0596538  0.13668  0.0521343  0.0372432  0.105928  0.092761  0.198974  0.0752974  0.240451  
4300 1 3.95982 134.818 41.0021 24 0.0165656  0.0757814  0.119362  0.0614361  0.152829  0.075418  0.128313  0.0316428  0.0460513  0.0911068  0.0826897  0.178289  0.0646026  0.197293  
2947 3 -3.58661 87.3783 44.1291 23 0.0152496  0.0556337  0.212097  0.0451745  0.146867  0.0566968  0.232379  0.0212474  0.0235478  0.0973625  0.0634247  0.338196  0.0575063  0.1968  
4324 3 1.2731 87.4011 44.1513 23 0.0167027  0.0594397  0.209939  0.0552515  0.151768  0.0498383  0.243627  0.0207376  0.023283  0.0982605  0.0638319  0.336283  0.061797  0.193018  
5527 2 5.37846 82.0767 36.1685 23 0.0516429  0.0566306  0.1437  0.0615741  0.0802613  0.0789014  0.150112  0.0416706  0.0305705  0.187822  0.0641056  0.240146  0.0550284  0.169126  
8259 1 11.6117 87.4051 35.3628 26 0.0292541  0.048582  0.146652  0.0373266  0.155376  0.0486304  0.124614  0.0310411  0.037081  0.117686  0.0728613  0.245643  0.0955534  0.233154  
6882 1 6.89524 87.6552 35.2644 25 0.0399558  0.0756245  0.122018  0.0437584  0.142119  0.0560349  0.10404  0.0247501  0.0357586  0.124683  0.074163  0.24672  0.0882618  0.237991  
5511 3 6.36064 85.0133 36.3005 21 0.0388515  0.0447787  0.119538  0.0786835  0.128324  0.0608955  0.100012  0.0195609  0.0258314  0.0624297  0.0541573  0.23365  0.063898  0.0992645  
5520 2 6.38355 81.6197 40.1396 23 0.0459593  0.0662048  0.174506  0.0452523  0.10058  0.0574363  0.163381  0.0586427  0.0457003  0.21187  0.0865456  0.269855  0.0672023  0.182027  
5521 3 9.74641 81.7378 39.6533 23 0.0401311  0.0368734  0.132434  0.032213  0.109493  0.0475463  0.133391  0.0191508  0.0251248  0.0572195  0.0583128  0.139664  0.0765738  0.0993979  
5522 3 7.23199 80.2921 40.1486 21 0.0304735  0.0525459  0.156999  0.0490921  0.122944  0.0533644  0.151495  0.0160258  0.0162447  0.093946  0.071482  0.182372  0.0815362  0.106207  
5523 3 6.21426 82.3432 41.584 22 0.0336537  0.0325425  0.0873532  0.0299131  0.0857552  0.0462404  0.107426  0.0236508  0.0228557  0.0641338  0.0521288  0.212736  0.062138  0.110227  
5524 3 9.36 80.8619 35.8534 21 0.0280468  0.0540856  0.177003  0.0470272  0.0795102  0.0447351  0.108525  0.0236868  0.0324777  0.0882183  0.0485555  0.210059  0.0389386  0.130521  
5526 1 6.48625 84.0509 38.0501 24 0.0328306  0.0731184  0.217697  0.0614174  0.131811  0.0546123  0.163007  0.0381822  0.0365277  0.0816037  0.0394498  0.223415  0.057627  0.16162  
5528 3 6.77572 81.5636 36.7042 23 0.026333  0.0394004  0.107778  0.0537411  0.073723  0.0403157  0.120264  0.0134433  0.0310553  0.0727338  0.0617105  0.133089  0.0605438  0.115256  
5529 3 8.04803 85.3509 38.3422 22 0.0499104  0.0531485  0.176861  0.0506776  0.141447  0.0603989  0.145864  0.0161676  0.0291816  0.105546  0.0505496  0.287303  0.0800587  0.126017  
5531 1 8.35157 81.2235 38.1395 19 0.0466017  0.0567558  0.136329  0.0367215  0.0817445  0.0409939  0.174498  0.0189986  0.0309421  0.104176  0.0471256  0.180629  0.0660867  0.17086  
5532 3 9.57281 83.1298 37.2097 20 0.0289893  0.0587915  0.156025  0.0519251  0.083518  0.0579194  0.14245  0.00812708  0.0374406  0.0557086  0.0591746  0.176625  0.0589462  0.12765  
5533 1 7.37768 88.5422 41.102 27 0.0418131  0.0817363  0.171592  0.0833242  0.182837  0.0824539  0.27125  0.0463061  0.0374636  0.0521309  0.0612991  0.225066  0.0580498  0.227007  