ITEM: TIMESTEP
4500
ITEM: NUMBER OF ATOMS
11016
ITEM: BOX BOUNDS pp pp pp
-14.54184 24.2364
80.0 135.0
35.0 90.0
ITEM: ATOMS id type x y z coord q2 q3 q4 q5 q6 q7 q8 q2_mono q3_mono q4_mono q5_mono q6_mono q7_mono q8_mono
3 3 -13.3653 85.1425 36.3492 22 0.0320661  0.035218  0.119794  0.0921584  0.131124  0.062408  0.136022  0.0172581  0.0255027  0.0751375  0.0573418  0.272925  0.0691273  0.119524  
12 2 -12.9795 81.6949 40.1684 24 0.0386632  0.089305  0.171694  0.0654066  0.132437  0.0719222  0.170864  0.0595585  0.0510911  0.210945  0.0929775  0.272309  0.0676783  0.184005  
13 3 -9.65199 81.4725 39.7892 23 0.0490786  0.0377984  0.124226  0.0406251  0.12901  0.063832  0.133209  0.0235336  0.0339553  0.0599655  0.0632223  0.162702  0.0799716  0.12072  
14 3 -12.287 80.2916 40.1067 20 0.0257496  0.0468757  0.147876  0.0429565  0.138538  0.0563483  0.147344  0.0183  0.0195324  0.0998333  0.0767677  0.206413  0.0885826  0.130315  
15 3 -13.0233 82.3557 41.6517 23 0.0290358  0.0312015  0.0783542  0.0295762  0.0937898  0.0510418  0.115604  0.0227529  0.0212228  0.0680548  0.0439911  0.228204  0.0618087  0.130905  
16 3 -9.8384 80.6827 35.9599 21 0.0379754  0.0453309  0.144923  0.0361968  0.116737  0.0433991  0.114687  0.0195581  0.0438875  0.0894684  0.0752105  0.207001  0.0541038  0.151989  
18 1 -12.9219 84.1134 38.0099 25 0.0225002  0.0924808  0.267235  0.0626904  0.154447  0.0725677  0.237287  0.0434798  0.0333869  0.101349  0.060413  0.21312  0.0739731  0.1129  
20 3 -12.4328 81.7119 36.5775 24 0.0282472  0.0431925  0.116632  0.0477093  0.120149  0.0477263  0.146385  0.0170246  0.0296288  0.0603277  0.0681482  0.181714  0.0569694  0.141974  
21 3 -11.2066 85.2692 38.1694 23 0.0427867  0.0431631  0.162214  0.0743871  0.159604  0.0626736  0.164357  0.0270867  0.0317916  0.111408  0.0550815  0.314069  0.0528235  0.172675  
23 1 -10.9667 81.2207 38.1813 21 0.0447238  0.0761451  0.125379  0.0443311  0.132949  0.0504693  0.173047  0.0235501  0.0373964  0.105484  0.0781074  0.194569  0.0700511  0.175796  
24 3 -9.73136 82.8835 37.4052 20 0.0309997  0.0749149  0.191973  0.0629954  0.122974  0.0654196  0.196078  0.00743454  0.0392753  0.0594389  0.0659019  0.19721  0.0702344  0.163219  
25 1 -11.842 88.5012 41.0761 27 0.0435235  0.0899129  0.175212  0.0676857  0.209984  0.0718385  0.261262  0.0409344  0.0357842  0.0863719  0.0579259  0.220362  0.0535689  0.217814  
28 3 -13.0691 86.7668 41.2541 23 0.0313785  0.0620821  0.104361  0.0600746  0.183493  0.0520905  0.207106  0.0159997  0.0237218  0.105911  0.0632855  0.355675  0.0677087  0.205169  
31 1 -13.8973 87.4536 39.6805 25 0.0289434  0.055719  0.0641422  0.0527103  0.177943  0.0516149  0.176377  0.0290573  0.049181  0.0782645  0.0498857  0.189798  0.0472004  0.112969  
33 2 -12.6435 85.1711 41.2119 25 0.0308544  0.0575094  0.156712  0.0727564  0.15944  0.0656174  0.137754  0.0494387  0.0694178  0.201315  0.0713243  0.262657  0.0597618  0.153106  
34 3 -11.0933 84.9466 41.2213 27 0.0231284  0.0658744  0.1019  0.046325  0.130891  0.0572044  0.11279  0.0268189  0.0139683  0.0877113  0.0566114  0.272194  0.105516  0.137192  
35 3 -12.1123 82.6302 39.2142 20 0.0331306  0.0801614  0.159311  0.0548052  0.135351  0.0523906  0.196135  0.0177113  0.0433405  0.0570726  0.0643604  0.182032  0.0626171  0.14724  
36 3 -13.4798 84.7304 39.9265 23 0.0243967  0.0362943  0.12661  0.0424347  0.166894  0.0499119  0.131891  0.0106063  0.028211  0.100542  0.0581764  0.294916  0.0896043  0.149757  
38 3 -13.1391 84.7495 42.6925 24 0.0379698  0.0623213  0.150556  0.0587442  0.138988  0.0630218  0.147418  0.0114362  0.0321957  0.0957051  0.0563181  0.253324  0.0857291  0.145403  
40 2 -11.4736 86.8488 38.0513 25 0.0350141  0.0626574  0.146892  0.0581044  0.152884  0.0629928  0.101824  0.044702  0.0347596  0.16777  0.0427971  0.260894  0.0531998  0.161276  
41 3 -12.9818 87.324 37.9807 23 0.0185168  0.0674161  0.109236  0.0552122  0.139806  0.0783744  0.123327  0.0147386  0.0345359  0.099162  0.0891899  0.317714  0.0873779  0.182279  
43 3 -10.6456 87.3831 36.8508 21 0.0194558  0.0614075  0.111805  0.0565951  0.128705  0.0459886  0.106584  0.00778641  0.0307188  0.118807  0.0572167  0.30396  0.0364897  0.144452  
44 3 -10.935 87.5657 39.4216 24 0.0243822  0.0480604  0.0978968  0.0398391  0.15365  0.0595803  0.148907  0.0166808  0.0407728  0.114863  0.0863649  0.336151  0.0824403  0.190015  
168 3 -9.93093 80.9751 42.7285 23 0.0272102  0.0621486  0.0934911  0.0373653  0.122096  0.0614184  0.102048  0.0166269  0.0355669  0.0597726  0.0541681  0.200709  0.0864667  0.132364  
170 1 -11.7875 84.0998 44.0519 27 0.0330649  0.0631112  0.151865  0.062028  0.1123  0.0520089  0.138227  0.0337806  0.0317136  0.114365  0.0536226  0.211823  0.038441  0.20643  
171 2 -13.8846 82.2594 43.0148 21 0.0212919  0.0662486  0.140383  0.0598652  0.133257  0.0885023  0.127863  0.061216  0.0575541  0.220732  0.082602  0.300275  0.0677963  0.187924  
174 3 -10.0927 83.1676 43.8653 20 0.0229174  0.0369559  0.193669  0.0430008  0.125482  0.0695792  0.14322  0.030037  0.0173623  0.0843995  0.0865989  0.209583  0.112698  0.131018  
192 2 -11.6249 87.4414 44.0595 24 0.0285945  0.0897842  0.209545  0.0711882  0.130715  0.0811382  0.271567  0.0499977  0.0377527  0.264258  0.0678595  0.303307  0.0705132  0.16948  
193 3 -13.1682 87.3955 44.1256 24 0.0155914  0.0605644  0.212734  0.0510049  0.155784  0.0517078  0.251627  0.0212461  0.0225439  0.0958899  0.0658816  0.338198  0.0590406  0.192737  
195 3 -10.8933 87.871 42.72 23 0.0281662  0.0851562  0.0905588  0.047318  0.193235  0.045998  0.26694  0.00484176  0.0171237  0.0997864  0.0840813  0.37243  0.0684706  0.221223  
1380 3 -8.51803 85.1425 36.3492 22 0.0320659  0.0352189  0.119795  0.0921588  0.131124  0.0624077  0.136023  0.0172582  0.0255024  0.0751368  0.0573408  0.272927  0.0691271  0.119526  
1389 2 -8.13219 81.6949 40.1684 24 0.0386639  0.0893051  0.171692  0.0654077  0.13244  0.0719227  0.170866  0.0595584  0.0510908  0.210946  0.0929777  0.27231  0.0676777  0.184005  
1391 3 -7.43973 80.2916 40.1067 20 0.0257502  0.0468762  0.147874  0.0429574  0.138539  0.0563473  0.147347  0.0182991  0.0195322  0.0998337  0.0767688  0.206413  0.0885833  0.130316  
1392 3 -8.17599 82.3557 41.6517 23 0.0290348  0.0312017  0.0783517  0.0295769  0.0937889  0.0510427  0.115607  0.0227526  0.021223  0.0680554  0.0439917  0.228206  0.0618089  0.130907  
1393 3 -4.99112 80.6827 35.9599 21 0.0379747  0.0453309  0.144923  0.0361975  0.11674  0.0433985  0.114689  0.0195578  0.0438863  0.0894701  0.0752122  0.207002  0.0541036  0.15199  
1395 1 -8.07459 84.1134 38.0099 25 0.0224994  0.0924817  0.267237  0.0626903  0.154448  0.0725662  0.237289  0.0434797  0.033388  0.10135  0.0604141  0.213117  0.0739723  0.112899  
1396 2 -9.07023 82.048 36.1428 22 0.0360963  0.0595392  0.172665  0.0661936  0.0940206  0.0738834  0.145578  0.0444846  0.0342438  0.190517  0.0646866  0.244093  0.0582705  0.187944  
1397 3 -7.58551 81.7119 36.5775 24 0.028248  0.0431923  0.116634  0.0477104  0.120149  0.0477253  0.146385  0.017025  0.0296289  0.0603269  0.0681488  0.181714  0.0569694  0.141973  
1398 3 -6.3593 85.2692 38.1694 23 0.0427866  0.0431636  0.162214  0.0743874  0.159604  0.0626755  0.16436  0.0270865  0.0317911  0.111408  0.0550813  0.314071  0.0528247  0.172674  
1400 1 -6.11938 81.2207 38.1813 21 0.0447234  0.0761443  0.125378  0.0443313  0.132951  0.0504718  0.173049  0.0235501  0.0373964  0.105484  0.0781071  0.194567  0.070051  0.175797  
1401 3 -4.88408 82.8835 37.4052 20 0.0309993  0.0749156  0.19197  0.0629969  0.122974  0.06542  0.196083  0.00743431  0.0392746  0.0594388  0.0659019  0.197211  0.0702356  0.163219  
1402 1 -6.99476 88.5012 41.0761 27 0.0435228  0.0899119  0.175213  0.0676846  0.209983  0.0718394  0.261266  0.0409344  0.0357844  0.0863717  0.0579277  0.22036  0.0535682  0.217811  
1405 3 -8.22178 86.7668 41.2541 23 0.0313786  0.0620818  0.104362  0.0600754  0.183495  0.052091  0.207105  0.0159998  0.0237225  0.105912  0.0632858  0.355676  0.0677099  0.205167  
1408 1 -9.04999 87.4536 39.6805 25 0.0289447  0.0557187  0.0641436  0.05271  0.177945  0.0516167  0.176377  0.0290573  0.0491812  0.0782644  0.0498865  0.189796  0.0472015  0.112966  
1409 1 -10.4481 83.8385 39.4766 24 0.0566184  0.0704131  0.155526  0.0664122  0.126598  0.0496666  0.170077  0.0226265  0.0340093  0.0859254  0.0680273  0.168002  0.0554604  0.131659  
1410 2 -7.79624 85.1711 41.2119 25 0.0308536  0.0575107  0.15671  0.0727547  0.159441  0.0656193  0.137752  0.0494384  0.0694181  0.201316  0.0713241  0.262657  0.0597605  0.153106  
1411 3 -6.24606 84.9466 41.2213 27 0.023128  0.0658731  0.101901  0.0463252  0.13089  0.0572036  0.112794  0.0268193  0.0139684  0.0877108  0.056611  0.272195  0.105516  0.137193  
1412 3 -7.26504 82.6302 39.2142 20 0.0331293  0.0801618  0.159309  0.0548038  0.135353  0.0523923  0.196136  0.0177109  0.0433403  0.0570737  0.0643607  0.182034  0.0626173  0.14724  
1413 3 -8.6325 84.7304 39.9265 23 0.0243952  0.036295  0.126608  0.0424344  0.166895  0.0499121  0.131893  0.0106059  0.0282103  0.100542  0.0581766  0.294918  0.0896041  0.149758  
1414 1 -10.4194 84.5598 36.3396 23 0.0387551  0.0435669  0.156072  0.112136  0.132507  0.0667926  0.190075  0.0199458  0.0459384  0.112517  0.0672699  0.188109  0.0555585  0.113399  
1415 3 -8.29183 84.7495 42.6925 24 0.0379693  0.0623221  0.150554  0.0587476  0.138985  0.0630206  0.147417  0.0114364  0.0321954  0.0957076  0.0563183  0.253326  0.0857298  0.1454  
1417 2 -6.62632 86.8488 38.0513 25 0.0350129  0.0626581  0.146896  0.0581065  0.152881  0.0629945  0.101825  0.0447019  0.0347587  0.167771  0.0427971  0.260894  0.0531996  0.161275  
1418 3 -8.1345 87.324 37.9807 23 0.0185157  0.0674159  0.109238  0.055212  0.139805  0.0783746  0.123329  0.0147391  0.0345356  0.0991608  0.0891906  0.317714  0.0873771  0.182278  
1420 3 -5.79837 87.3831 36.8508 21 0.0194563  0.0614078  0.111805  0.0565962  0.128703  0.0459894  0.106582  0.0077868  0.0307189  0.118808  0.0572177  0.303961  0.0364922  0.144452  
1421 3 -6.08768 87.5657 39.4216 24 0.0243813  0.0480604  0.0978996  0.0398391  0.153649  0.0595786  0.148909  0.0166808  0.0407726  0.114862  0.0863639  0.336151  0.0824402  0.190016  
1545 3 -5.08365 80.9751 42.7285 23 0.0272103  0.0621483  0.0934916  0.0373646  0.122096  0.0614184  0.102049  0.0166265  0.035567  0.0597722  0.0541687  0.200708  0.0864668  0.132366  
1547 1 -6.94026 84.0998 44.0519 27 0.0330646  0.0631123  0.151866  0.0620288  0.112296  0.0520089  0.13823  0.0337807  0.0317139  0.114364  0.0536218  0.211822  0.0384417  0.20643  
1548 2 -9.03732 82.2594 43.0148 21 0.0212912  0.0662491  0.140383  0.0598653  0.133252  0.0885019  0.127866  0.0612161  0.0575541  0.220732  0.0826011  0.300276  0.0677949  0.187924  
1551 3 -5.24541 83.1676 43.8653 20 0.0229182  0.0369561  0.193671  0.0429998  0.125481  0.06958  0.143221  0.0300371  0.0173618  0.0844006  0.0865986  0.209585  0.112698  0.131019  
1566 1 -9.82181 86.0818 42.5333 28 0.0436951  0.0930063  0.156341  0.0387939  0.159366  0.0821501  0.157185  0.025567  0.0461553  0.0955027  0.0715773  0.161312  0.0519901  0.16461  
1569 2 -6.77767 87.4414 44.0595 24 0.028594  0.089782  0.209545  0.0711889  0.130715  0.0811385  0.271571  0.0499977  0.0377529  0.264258  0.067859  0.303307  0.0705126  0.169481  
1570 3 -8.32092 87.3955 44.1256 24 0.0155914  0.0605649  0.212733  0.0510058  0.155786  0.0517087  0.251625  0.0212461  0.022545  0.0958915  0.0658802  0.3382  0.0590387  0.192735  
1572 3 -6.04598 87.871 42.72 23 0.0281671  0.0851563  0.0905621  0.047317  0.193235  0.0459981  0.266944  0.0048421  0.0171237  0.0997851  0.0840809  0.372429  0.0684706  0.221223  
2786 1 -5.60085 83.8385 39.4766 24 0.0566183  0.0704127  0.155525  0.0664124  0.126599  0.0496656  0.17008  0.0226267  0.0340104  0.085927  0.0680277  0.168001  0.0554609  0.131659  
2791 1 -5.57216 84.5598 36.3396 23 0.0387561  0.0435671  0.156073  0.112136  0.132505  0.0667933  0.190077  0.0199457  0.045939  0.112517  0.06727  0.188109  0.0555576  0.113401  
2751 1 -8.71 87.165 35.8994 24 0.0251511  0.0533889  0.107178  0.0552578  0.136221  0.0504713  0.102262  0.0239162  0.0250948  0.137855  0.0571508  0.20219  0.0642536  0.160054  
1374 1 -13.5573 87.165 35.8994 24 0.0251512  0.0533885  0.107184  0.0552573  0.136223  0.0504715  0.102259  0.0239162  0.025095  0.137854  0.0571522  0.202191  0.0642533  0.160054  
2943 1 -4.97453 86.0818 42.5333 28 0.0436955  0.0930055  0.156341  0.0387948  0.159366  0.0821485  0.157189  0.0255668  0.0461554  0.0955041  0.0715773  0.16131  0.0519904  0.164608  
39 1 -14.3835 88.9688 37.5683 22 0.0380356  0.0933625  0.124375  0.0914102  0.154955  0.0970158  0.157906  0.0189699  0.0344191  0.117956  0.0523273  0.20885  0.0731242  0.194852  
1416 1 -9.53622 88.9688 37.5683 22 0.038038  0.0933636  0.124376  0.0914104  0.154956  0.0970159  0.157906  0.0189688  0.0344194  0.117957  0.0523278  0.20885  0.0731257  0.19485  
19 2 -13.9175 82.048 36.1428 22 0.0360966  0.0595406  0.172661  0.0661937  0.0940185  0.0738828  0.145584  0.0444839  0.0342437  0.190515  0.0646864  0.244093  0.0582704  0.187942  
9652 3 -14.4993 81.4725 39.7892 23 0.0490776  0.0377986  0.124225  0.0406227  0.12901  0.0638301  0.13321  0.0235336  0.0339565  0.0599659  0.0632242  0.1627  0.0799719  0.120721  
1390 3 -4.80471 81.4725 39.7892 23 0.0490779  0.0377988  0.124225  0.040624  0.129011  0.0638319  0.133211  0.0235333  0.0339564  0.0599665  0.0632233  0.162701  0.0799719  0.120721  
2773 2 -4.22295 82.048 36.1428 22 0.036096  0.0595395  0.172664  0.0661929  0.09402  0.0738837  0.145581  0.0444843  0.0342439  0.190517  0.0646873  0.244093  0.0582703  0.187942  
2757 3 -3.67075 85.1425 36.3492 22 0.0320665  0.0352177  0.119797  0.0921585  0.131124  0.0624083  0.136024  0.0172584  0.0255018  0.0751364  0.057341  0.272927  0.0691278  0.119525  
2766 2 -3.28491 81.6949 40.1684 24 0.0386639  0.0893051  0.171693  0.0654077  0.132441  0.0719229  0.170869  0.0595584  0.0510908  0.210946  0.0929773  0.272309  0.067678  0.184005  
2767 3 0.0425674 81.4725 39.7892 23 0.0490779  0.0377986  0.124225  0.0406241  0.129011  0.0638318  0.133211  0.0235333  0.0339564  0.0599664  0.0632233  0.162701  0.0799719  0.120721  
2768 3 -2.59245 80.2916 40.1067 20 0.0257503  0.0468761  0.147875  0.0429564  0.13854  0.0563473  0.147348  0.0182993  0.019532  0.0998339  0.0767689  0.206413  0.0885831  0.130316  
2769 3 -3.32871 82.3557 41.6517 23 0.0290349  0.0312013  0.0783527  0.0295766  0.0937888  0.0510425  0.115607  0.0227526  0.0212232  0.0680551  0.0439917  0.228205  0.0618092  0.130907  
2770 3 -0.143836 80.6827 35.9599 21 0.0379747  0.0453308  0.144923  0.0361975  0.11674  0.0433986  0.114688  0.0195579  0.0438863  0.0894702  0.0752122  0.207002  0.0541037  0.151989  
2772 1 -3.22731 84.1134 38.0099 25 0.0224996  0.0924819  0.267236  0.0626911  0.154448  0.072566  0.237291  0.0434796  0.0333887  0.101349  0.0604136  0.213118  0.0739719  0.112901  
2774 3 -2.73823 81.7119 36.5775 24 0.0282477  0.0431922  0.116633  0.0477098  0.12015  0.0477258  0.146387  0.017025  0.0296289  0.0603277  0.0681484  0.181714  0.0569689  0.141974  
2775 3 -1.51202 85.2692 38.1694 23 0.0427865  0.0431633  0.162214  0.0743873  0.159604  0.0626756  0.16436  0.0270865  0.0317912  0.111408  0.0550814  0.314071  0.0528247  0.172674  
2777 1 -1.2721 81.2207 38.1813 21 0.0447235  0.0761442  0.125378  0.0443314  0.132951  0.0504717  0.173049  0.02355  0.0373967  0.105483  0.0781077  0.194568  0.070051  0.175798  
2778 3 -0.0368039 82.8835 37.4052 20 0.0309994  0.0749155  0.19197  0.062997  0.122974  0.0654201  0.196083  0.00743436  0.0392746  0.0594387  0.0659018  0.197211  0.0702356  0.163219  
2779 1 -2.14748 88.5012 41.0761 27 0.0435231  0.0899117  0.175214  0.0676845  0.209983  0.0718395  0.261267  0.0409346  0.0357842  0.0863721  0.0579269  0.22036  0.0535687  0.217812  
2782 3 -3.3745 86.7668 41.2541 23 0.0313785  0.062082  0.104363  0.0600745  0.183495  0.0520909  0.207106  0.0159998  0.0237221  0.10591  0.0632851  0.355675  0.0677096  0.205168  
2785 1 -4.20271 87.4536 39.6805 25 0.028944  0.055718  0.0641446  0.0527104  0.177945  0.0516162  0.17638  0.0290575  0.0491816  0.0782649  0.0498862  0.189796  0.0472007  0.112967  
2787 2 -2.94896 85.1711 41.2119 25 0.0308534  0.0575105  0.15671  0.0727553  0.159441  0.0656194  0.137752  0.0494382  0.0694178  0.201315  0.0713242  0.262657  0.0597609  0.153106  
2788 3 -1.39878 84.9466 41.2213 27 0.0231281  0.065873  0.101901  0.0463253  0.13089  0.0572037  0.112794  0.0268191  0.0139681  0.0877107  0.0566111  0.272195  0.105516  0.137193  
2789 3 -2.41776 82.6302 39.2142 20 0.0331294  0.0801618  0.159309  0.0548046  0.135353  0.052392  0.196137  0.0177109  0.0433403  0.0570737  0.0643605  0.182034  0.0626172  0.14724  
2790 3 -3.78522 84.7304 39.9265 23 0.024395  0.0362942  0.126609  0.0424349  0.166895  0.049912  0.131893  0.0106061  0.0282106  0.100542  0.058177  0.294918  0.0896041  0.149759  
2792 3 -3.44455 84.7495 42.6925 24 0.03797  0.062322  0.150554  0.0587471  0.138986  0.0630216  0.147418  0.0114361  0.0321955  0.0957064  0.0563174  0.253325  0.0857292  0.145401  
2794 2 -1.77904 86.8488 38.0513 25 0.0350132  0.062658  0.146896  0.058106  0.152882  0.0629943  0.101826  0.0447017  0.034759  0.167771  0.0427973  0.260894  0.0531997  0.161275  
2795 3 -3.28722 87.324 37.9807 23 0.0185153  0.0674159  0.109238  0.0552131  0.139806  0.0783751  0.123328  0.014739  0.0345361  0.0991607  0.0891903  0.317714  0.0873777  0.182279  
2797 3 -0.951087 87.3831 36.8508 21 0.0194562  0.0614077  0.111805  0.056596  0.128703  0.0459892  0.106583  0.00778674  0.0307189  0.118808  0.0572176  0.303961  0.0364919  0.144452  
2798 3 -1.2404 87.5657 39.4216 24 0.0243814  0.0480603  0.0978997  0.0398392  0.153649  0.0595786  0.148909  0.0166808  0.0407727  0.114862  0.0863643  0.33615  0.08244  0.190016  
2922 3 -0.236373 80.9751 42.7285 23 0.0272104  0.0621483  0.0934915  0.0373646  0.122096  0.0614184  0.102049  0.0166265  0.0355669  0.0597723  0.0541687  0.200708  0.0864669  0.132366  
2924 1 -2.09298 84.0998 44.0519 27 0.0330648  0.0631118  0.151865  0.0620289  0.112296  0.0520092  0.138229  0.0337807  0.0317136  0.114365  0.0536222  0.211822  0.0384412  0.20643  
2925 2 -4.19004 82.2594 43.0148 21 0.0212914  0.0662486  0.140384  0.0598645  0.133251  0.0885014  0.127866  0.0612156  0.057554  0.220732  0.0826007  0.300275  0.0677951  0.187925  
2928 3 -0.398126 83.1676 43.8653 20 0.0229182  0.036956  0.193671  0.0429998  0.125481  0.06958  0.143221  0.0300372  0.0173619  0.0844004  0.0865984  0.209584  0.112698  0.131019  
2946 2 -1.93039 87.4414 44.0595 24 0.0285938  0.0897822  0.209545  0.0711885  0.130715  0.0811383  0.271571  0.0499976  0.0377528  0.264258  0.0678593  0.303307  0.0705129  0.16948  
2947 3 -3.47364 87.3955 44.1256 24 0.0155894  0.0605644  0.212735  0.0510057  0.155785  0.0517088  0.251629  0.0212459  0.0225447  0.0958908  0.0658808  0.3382  0.0590395  0.192736  
2949 3 -1.1987 87.871 42.72 23 0.0281672  0.0851563  0.0905621  0.047317  0.193234  0.0459981  0.266944  0.00484191  0.0171235  0.0997846  0.0840813  0.372428  0.0684707  0.221224  
4134 3 1.17653 85.1425 36.3492 22 0.0320665  0.0352177  0.119797  0.0921586  0.131124  0.0624084  0.136024  0.0172584  0.0255018  0.0751364  0.057341  0.272927  0.0691278  0.119525  
4143 2 1.56237 81.6949 40.1684 24 0.0386639  0.0893051  0.171693  0.0654077  0.132441  0.0719229  0.170868  0.0595584  0.0510907  0.210946  0.0929774  0.272309  0.0676779  0.184005  
4145 3 2.25483 80.2916 40.1067 20 0.0257503  0.0468762  0.147875  0.0429564  0.138539  0.0563473  0.147348  0.0182992  0.019532  0.0998339  0.0767689  0.206413  0.0885832  0.130316  
4146 3 1.51857 82.3557 41.6517 23 0.0290349  0.0312013  0.0783527  0.0295766  0.0937889  0.0510425  0.115607  0.0227526  0.0212231  0.0680552  0.0439917  0.228205  0.0618093  0.130907  
4147 3 4.70344 80.6827 35.9599 21 0.0379748  0.0453309  0.144923  0.0361976  0.11674  0.0433985  0.114689  0.019558  0.0438864  0.0894704  0.0752123  0.207002  0.0541038  0.151989  
4149 1 1.61997 84.1134 38.0099 25 0.0224996  0.0924819  0.267236  0.062691  0.154448  0.0725661  0.237291  0.0434796  0.0333887  0.101349  0.0604134  0.213118  0.073972  0.112901  
4150 2 0.624329 82.048 36.1428 22 0.0360959  0.0595396  0.172664  0.0661931  0.0940199  0.0738836  0.145581  0.0444843  0.034244  0.190516  0.0646873  0.244093  0.0582703  0.187942  
4151 3 2.10905 81.7119 36.5775 24 0.0282477  0.0431922  0.116633  0.0477098  0.12015  0.0477259  0.146387  0.017025  0.029629  0.0603277  0.0681484  0.181714  0.0569689  0.141974  
4152 3 3.33526 85.2692 38.1694 23 0.0427865  0.0431633  0.162214  0.0743873  0.159604  0.0626756  0.16436  0.0270865  0.0317912  0.111408  0.0550814  0.314071  0.0528247  0.172674  
4154 1 3.57518 81.2207 38.1813 21 0.0447235  0.0761443  0.125378  0.0443314  0.132951  0.0504719  0.173049  0.0235502  0.0373968  0.105483  0.0781076  0.194568  0.070051  0.175798  
4155 3 4.81048 82.8835 37.4052 20 0.0309993  0.0749155  0.19197  0.062997  0.122975  0.06542  0.196083  0.00743433  0.0392746  0.0594389  0.0659017  0.197211  0.0702356  0.163219  
4156 1 2.6998 88.5012 41.0761 27 0.0435231  0.0899117  0.175214  0.0676846  0.209983  0.0718396  0.261267  0.0409346  0.0357842  0.0863722  0.0579269  0.22036  0.0535686  0.217812  
4159 3 1.47278 86.7668 41.2541 23 0.0313785  0.0620821  0.104363  0.0600745  0.183495  0.0520909  0.207106  0.0159998  0.0237221  0.10591  0.0632851  0.355675  0.0677096  0.205168  
4162 1 0.644572 87.4536 39.6805 25 0.028944  0.055718  0.0641446  0.0527104  0.177945  0.0516162  0.17638  0.0290575  0.0491814  0.0782646  0.0498861  0.189796  0.0472007  0.112967  
4163 1 -0.753568 83.8385 39.4766 24 0.0566182  0.0704125  0.155526  0.0664123  0.126599  0.0496656  0.17008  0.0226269  0.0340102  0.0859268  0.0680276  0.168001  0.0554608  0.131659  
4164 2 1.89832 85.1711 41.2119 25 0.0308534  0.0575105  0.15671  0.0727553  0.159441  0.0656194  0.137752  0.0494383  0.0694178  0.201315  0.0713243  0.262656  0.0597609  0.153106  
4165 3 3.4485 84.9466 41.2213 27 0.0231281  0.0658731  0.101901  0.0463252  0.13089  0.0572038  0.112794  0.0268192  0.0139681  0.0877107  0.056611  0.272195  0.105516  0.137193  
4166 3 2.42952 82.6302 39.2142 20 0.0331294  0.0801617  0.159309  0.0548045  0.135353  0.052392  0.196137  0.0177109  0.0433404  0.0570737  0.0643605  0.182034  0.0626173  0.14724  
4167 3 1.06206 84.7304 39.9265 23 0.0243949  0.0362943  0.126609  0.0424349  0.166895  0.049912  0.131893  0.0106062  0.0282106  0.100542  0.058177  0.294918  0.0896041  0.149759  
4168 1 -0.724879 84.5598 36.3396 23 0.0387559  0.0435672  0.156073  0.112136  0.132506  0.0667935  0.190077  0.0199458  0.0459388  0.112517  0.0672701  0.188109  0.0555578  0.113401  
4169 3 1.40273 84.7495 42.6925 24 0.03797  0.062322  0.150554  0.0587471  0.138986  0.0630216  0.147418  0.0114361  0.0321955  0.0957064  0.0563174  0.253325  0.0857292  0.145401  
4171 2 3.06824 86.8488 38.0513 25 0.0350132  0.062658  0.146896  0.058106  0.152882  0.0629942  0.101826  0.0447017  0.0347591  0.167771  0.0427972  0.260894  0.0531997  0.161275  
4172 3 1.56006 87.324 37.9807 23 0.0185153  0.0674159  0.109238  0.0552131  0.139806  0.0783751  0.123328  0.014739  0.0345361  0.0991607  0.0891903  0.317714  0.0873777  0.182279  
4174 3 3.89619 87.3831 36.8508 21 0.0194563  0.0614078  0.111805  0.056596  0.128703  0.0459892  0.106583  0.00778672  0.0307189  0.118808  0.0572176  0.303962  0.0364919  0.144452  
4175 3 3.60688 87.5657 39.4216 24 0.0243814  0.0480603  0.0978996  0.0398392  0.153649  0.0595785  0.148909  0.0166808  0.0407727  0.114862  0.0863643  0.33615  0.08244  0.190016  
4299 3 4.61091 80.9751 42.7285 23 0.0272103  0.0621484  0.0934916  0.0373646  0.122096  0.0614183  0.102049  0.0166265  0.035567  0.0597721  0.0541687  0.200708  0.0864669  0.132366  
4301 1 2.7543 84.0998 44.0519 27 0.0330648  0.0631117  0.151865  0.0620288  0.112296  0.0520093  0.138229  0.0337808  0.0317137  0.114365  0.0536222  0.211823  0.0384411  0.20643  
4302 2 0.657241 82.2594 43.0148 21 0.0212914  0.0662485  0.140383  0.0598645  0.133251  0.0885014  0.127866  0.0612157  0.057554  0.220732  0.0826008  0.300275  0.067795  0.187924  
4305 3 4.44915 83.1676 43.8653 20 0.0229182  0.0369561  0.19367  0.0429998  0.125481  0.0695801  0.143221  0.0300372  0.0173619  0.0844004  0.0865985  0.209585  0.112698  0.131019  
4320 1 -0.127249 86.0818 42.5333 28 0.0436955  0.0930054  0.156341  0.0387948  0.159366  0.0821485  0.157189  0.0255668  0.0461552  0.0955042  0.0715773  0.16131  0.05199  0.164608  
4323 2 2.91689 87.4414 44.0595 24 0.0285938  0.0897822  0.209545  0.0711885  0.130715  0.0811383  0.271571  0.0499978  0.0377528  0.264258  0.0678594  0.303306  0.0705129  0.16948  
4324 3 1.37364 87.3955 44.1256 24 0.0155894  0.0605644  0.212735  0.0510057  0.155785  0.0517088  0.251629  0.0212459  0.0225447  0.0958907  0.0658809  0.3382  0.0590395  0.192736  
4326 3 3.64858 87.871 42.72 23 0.0281672  0.0851563  0.090562  0.0473171  0.193234  0.0459981  0.266944  0.00484191  0.0171235  0.0997846  0.0840812  0.372429  0.0684707  0.221224  
5505 1 0.984562 87.165 35.8994 24 0.0251509  0.0533887  0.10718  0.0552576  0.13622  0.0504715  0.10226  0.0239159  0.0250949  0.137854  0.0571511  0.20219  0.0642535  0.160053  
5540 1 4.09371 83.8385 39.4766 24 0.0566182  0.0704125  0.155525  0.0664123  0.126599  0.0496657  0.17008  0.022627  0.0340102  0.085927  0.0680275  0.168001  0.0554607  0.131659  
5545 1 4.1224 84.5598 36.3396 23 0.038756  0.0435672  0.156073  0.112136  0.132505  0.0667933  0.190076  0.0199458  0.0459388  0.112517  0.06727  0.188109  0.0555578  0.113401  
4128 1 -3.86272 87.165 35.8994 24 0.0251509  0.0533888  0.107179  0.0552575  0.13622  0.0504715  0.10226  0.0239159  0.0250947  0.137854  0.057151  0.20219  0.0642538  0.160053  
5697 1 4.72003 86.0818 42.5333 28 0.0436955  0.0930055  0.156341  0.0387948  0.159366  0.0821485  0.157189  0.0255667  0.046155  0.095504  0.0715773  0.161311  0.05199  0.164608  
2793 1 -4.68894 88.9688 37.5683 22 0.0380368  0.0933629  0.124378  0.0914098  0.154956  0.0970159  0.157906  0.0189692  0.0344185  0.117957  0.052328  0.208849  0.0731255  0.194849  
4170 1 0.158338 88.9688 37.5683 22 0.0380368  0.0933629  0.124378  0.0914098  0.154956  0.0970159  0.157906  0.0189691  0.0344187  0.117957  0.0523278  0.208849  0.0731253  0.194849  
4144 3 4.88985 81.4725 39.7892 23 0.0490779  0.0377988  0.124225  0.040624  0.129011  0.063832  0.133211  0.0235333  0.0339563  0.0599665  0.0632234  0.162701  0.0799719  0.120721  
5527 2 5.47161 82.048 36.1428 22 0.0360961  0.0595395  0.172664  0.0661928  0.0940199  0.0738837  0.145581  0.0444844  0.034244  0.190517  0.0646875  0.244093  0.0582707  0.187942  
8259 1 10.6791 87.165 35.8994 24 0.0251512  0.0533883  0.107182  0.0552576  0.136221  0.0504709  0.102261  0.0239167  0.0250949  0.137853  0.057152  0.202189  0.0642536  0.160054  
6882 1 5.83184 87.165 35.8994 24 0.025151  0.0533887  0.107179  0.0552574  0.136219  0.0504715  0.10226  0.0239161  0.0250948  0.137854  0.0571515  0.20219  0.0642533  0.160054  
5511 3 6.02381 85.1425 36.3492 22 0.0320666  0.0352177  0.119797  0.0921585  0.131124  0.0624083  0.136023  0.0172584  0.025502  0.0751364  0.0573414  0.272927  0.0691277  0.119525  
5520 2 6.40965 81.6949 40.1684 24 0.0386643  0.0893051  0.171693  0.0654076  0.132441  0.0719231  0.170869  0.0595589  0.0510909  0.210946  0.0929775  0.272309  0.0676781  0.184005  
5521 3 9.73713 81.4725 39.7892 23 0.0490773  0.0377982  0.124227  0.0406231  0.129009  0.0638331  0.13321  0.0235337  0.0339559  0.0599659  0.0632237  0.162701  0.0799721  0.12072  
5522 3 7.10211 80.2916 40.1067 20 0.0257506  0.0468761  0.147875  0.0429565  0.13854  0.0563476  0.147348  0.0182992  0.0195322  0.0998337  0.0767691  0.206413  0.088583  0.130316  
5523 3 6.36585 82.3557 41.6517 23 0.0290351  0.0312012  0.078353  0.0295765  0.0937888  0.0510426  0.115607  0.0227526  0.0212232  0.0680549  0.0439917  0.228204  0.0618091  0.130907  
5524 3 9.55072 80.6827 35.9599 21 0.0379752  0.0453307  0.144924  0.0361977  0.11674  0.0433976  0.11469  0.0195574  0.0438868  0.0894704  0.0752123  0.207001  0.0541025  0.15199  
5526 1 6.46725 84.1134 38.0099 25 0.0224995  0.0924821  0.267235  0.0626908  0.154448  0.0725663  0.23729  0.0434795  0.0333882  0.101349  0.0604132  0.213118  0.0739723  0.112901  
5528 3 6.95633 81.7119 36.5775 24 0.0282479  0.0431921  0.116633  0.0477099  0.12015  0.0477256  0.146387  0.0170251  0.0296286  0.060328  0.0681487  0.181714  0.0569686  0.141973  
5529 3 8.18254 85.2692 38.1694 23 0.0427865  0.0431635  0.162213  0.0743872  0.159603  0.0626752  0.164359  0.0270866  0.0317909  0.111408  0.0550818  0.314071  0.0528244  0.172673  
5531 1 8.42246 81.2207 38.1813 21 0.0447235  0.0761436  0.125379  0.0443302  0.13295  0.0504731  0.173049  0.0235499  0.0373967  0.105484  0.0781077  0.194569  0.0700506  0.175796  
5532 3 9.65776 82.8835 37.4052 20 0.0309995  0.0749154  0.191969  0.0629968  0.122973  0.0654207  0.196083  0.00743456  0.039275  0.0594391  0.0659012  0.19721  0.0702358  0.163218  
5533 1 7.54708 88.5012 41.0761 27 0.0435229  0.0899125  0.175215  0.0676847  0.209984  0.0718404  0.261265  0.0409344  0.0357845  0.0863724  0.0579268  0.22036  0.0535685  0.217812  
5536 3 6.32006 86.7668 41.2541 23 0.0313786  0.0620819  0.104363  0.0600745  0.183495  0.0520909  0.207106  0.016  0.0237222  0.10591  0.0632851  0.355675  0.0677095  0.205168  
5539 1 5.49185 87.4536 39.6805 25 0.0289441  0.0557178  0.0641446  0.0527104  0.177945  0.0516162  0.17638  0.0290576  0.0491813  0.0782649  0.0498858  0.189796  0.0472006  0.112968  
5541 2 6.7456 85.1711 41.2119 25 0.0308534  0.0575104  0.156711  0.0727551  0.159441  0.0656193  0.137752  0.0494386  0.0694179  0.201315  0.0713243  0.262657  0.0597608  0.153105  