ITEM: TIMESTEP
7000
ITEM: NUMBER OF ATOMS
11016
ITEM: BOX BOUNDS pp pp pp
-14.54184 24.2364
80.0 135.0
35.0 90.0
ITEM: ATOMS id type x y z coord q2 q3 q4 q5 q6 q7 q8 q2_mono q3_mono q4_mono q5_mono q6_mono q7_mono q8_mono
3 3 -13.3017 85.1603 36.3805 22 0.031817  0.0356526  0.117545  0.0927898  0.122633  0.0599503  0.127533  0.0195174  0.0255401  0.0742529  0.0591538  0.276398  0.07279  0.121924  
12 2 -12.9106 81.7252 40.2219 24 0.0393278  0.0924599  0.1725  0.0646779  0.129769  0.0713432  0.177052  0.0600615  0.0486329  0.213797  0.0931905  0.271057  0.0698833  0.180869  
13 3 -9.58381 81.495 39.8381 23 0.036318  0.0358293  0.127423  0.0385471  0.136478  0.0637852  0.141907  0.0241304  0.0328803  0.0606352  0.0616276  0.160613  0.0787433  0.116982  
14 3 -12.2105 80.323 40.1193 20 0.024643  0.0468076  0.148969  0.0446485  0.139378  0.0549172  0.151156  0.0181256  0.0190319  0.100939  0.0762957  0.208802  0.0871535  0.122522  
15 3 -12.9423 82.3486 41.7181 22 0.0323008  0.0361382  0.0822227  0.0346121  0.0929588  0.0512818  0.112534  0.0226178  0.0206781  0.0653425  0.0464998  0.228689  0.0638675  0.125785  
16 3 -9.85309 80.7272 35.9689 21 0.0276002  0.0441463  0.147164  0.045802  0.108208  0.0437644  0.111324  0.0232715  0.0343755  0.0884742  0.0608347  0.222923  0.0537201  0.154484  
18 1 -12.8716 84.0943 38.0292 25 0.026754  0.098571  0.244962  0.0678721  0.136367  0.0580156  0.218012  0.041839  0.0319276  0.0944855  0.0577773  0.215983  0.0713501  0.119503  
20 3 -12.4478 81.6933 36.6657 24 0.0290935  0.0415311  0.115516  0.0490796  0.108177  0.0448931  0.150585  0.0174904  0.0291278  0.0606869  0.0652188  0.181501  0.0567795  0.138173  
21 3 -11.2016 85.3157 38.2048 23 0.043827  0.042642  0.171998  0.0745607  0.149971  0.0676937  0.152496  0.0225229  0.0347414  0.109327  0.0551126  0.306167  0.0605948  0.15463  
23 1 -10.9385 81.2218 38.2224 21 0.0442498  0.0751718  0.130183  0.0411267  0.121779  0.0496131  0.178898  0.0206476  0.035726  0.10438  0.0762755  0.197889  0.0695622  0.178856  
24 3 -9.73551 82.9246 37.4248 20 0.032923  0.0755016  0.190953  0.06149  0.115281  0.0656584  0.192269  0.00752253  0.039912  0.0583229  0.0634959  0.191382  0.0681423  0.157199  
25 1 -11.8292 88.5411 41.0786 27 0.0438513  0.0897943  0.178454  0.0693573  0.210599  0.0737668  0.267951  0.0416324  0.0155203  0.0659781  0.0670487  0.229646  0.0466731  0.219226  
28 3 -13.0645 86.823 41.2227 23 0.040322  0.0703238  0.091554  0.0629582  0.186526  0.0553918  0.227981  0.0168273  0.0188646  0.1122  0.0521375  0.372726  0.0711743  0.207201  
31 1 -13.9057 87.5522 39.6707 25 0.0287283  0.0563976  0.0674664  0.0550432  0.17564  0.0472771  0.182431  0.0316269  0.0475005  0.0670518  0.0446275  0.19143  0.0434041  0.113855  
33 2 -12.6072 85.2315 41.2063 25 0.0281306  0.0767443  0.15814  0.0639983  0.165545  0.0828072  0.157835  0.0498693  0.0627246  0.194122  0.0777536  0.257446  0.0620245  0.14494  
34 3 -11.0564 85.0352 41.2329 26 0.0194154  0.0674262  0.100354  0.0450425  0.131809  0.0575522  0.128413  0.0261464  0.0150592  0.0882865  0.0599014  0.271411  0.105482  0.141438  
35 3 -12.0503 82.6655 39.2744 20 0.0345114  0.0824659  0.163477  0.0537845  0.126808  0.0525184  0.198269  0.0181226  0.0421836  0.0555127  0.0642798  0.173839  0.0648723  0.14568  
36 3 -13.4435 84.7353 39.9429 23 0.0244607  0.0375318  0.131772  0.0401395  0.160488  0.0480865  0.135034  0.0108362  0.0287201  0.101171  0.0617384  0.288729  0.0880188  0.14736  
38 3 -13.0974 84.8145 42.6876 24 0.0343829  0.083949  0.153886  0.0568594  0.130251  0.0664647  0.141569  0.00944131  0.0375896  0.0896396  0.0585682  0.269774  0.0854113  0.158969  
40 2 -11.5042 86.8866 38.0566 25 0.0292433  0.0725511  0.152841  0.0670389  0.143883  0.0744612  0.114418  0.0439486  0.0424822  0.170176  0.0565403  0.259155  0.0701476  0.151779  
41 3 -13.0127 87.3799 37.9701 23 0.0197611  0.0690915  0.111062  0.0554312  0.137342  0.0805034  0.110798  0.0152677  0.0343503  0.101622  0.0878789  0.322357  0.0833762  0.182925  
43 3 -10.695 87.3797 36.8174 21 0.0208594  0.0551064  0.0998574  0.0522802  0.127852  0.0419661  0.111248  0.0116915  0.0284377  0.126406  0.0666929  0.321456  0.049154  0.151323  
44 3 -10.9474 87.6232 39.3972 24 0.0244517  0.0470823  0.0976478  0.0422549  0.151517  0.0625678  0.151333  0.0162217  0.04233  0.120573  0.0866508  0.34151  0.0839291  0.191925  
168 3 -9.86363 80.9461 42.7766 23 0.0246487  0.0621794  0.0963592  0.0351315  0.127847  0.0683837  0.109371  0.0177082  0.0370949  0.0577697  0.0511377  0.203663  0.0872382  0.126649  
170 1 -11.7324 84.1182 44.0037 27 0.0332471  0.061578  0.156071  0.0617647  0.107703  0.053458  0.127477  0.0348987  0.0330289  0.112574  0.0558085  0.207955  0.0386926  0.201193  
171 2 -13.8283 82.2347 43.058 19 0.0268862  0.0568423  0.127782  0.0598722  0.124359  0.090786  0.120325  0.0625168  0.0592858  0.218907  0.0850416  0.301043  0.0673849  0.189589  
174 3 -10.0365 83.1773 43.8569 21 0.0229188  0.0369204  0.192051  0.0450983  0.117864  0.0684725  0.131214  0.0296231  0.0181694  0.0833322  0.0838632  0.213106  0.111842  0.127245  
192 2 -11.6044 87.4632 44.062 24 0.0273785  0.103136  0.210416  0.0593495  0.143568  0.0773816  0.263387  0.0523449  0.0425469  0.273509  0.0586617  0.307529  0.0653494  0.170436  
193 3 -13.1511 87.4365 44.0935 22 0.0148935  0.0621017  0.215029  0.0524943  0.154489  0.0507291  0.255729  0.0213238  0.0230036  0.0937427  0.0662473  0.340068  0.058597  0.196678  
195 3 -10.8744 87.9111 42.7294 23 0.0280504  0.0852912  0.0891059  0.0517995  0.195284  0.0476946  0.278982  0.00988844  0.0215751  0.104404  0.0920441  0.377548  0.0829655  0.222288  
1380 3 -8.4544 85.1603 36.3805 22 0.0318168  0.035654  0.117541  0.0927911  0.122631  0.0599522  0.127538  0.0195173  0.0255389  0.0742547  0.0591544  0.276398  0.07279  0.121924  
1389 2 -8.0633 81.7252 40.2219 24 0.0393294  0.0924602  0.172503  0.0646802  0.129773  0.0713452  0.177056  0.0600617  0.0486328  0.213798  0.0931906  0.271057  0.0698841  0.180868  
1391 3 -7.36325 80.323 40.1193 20 0.0246441  0.0468067  0.14897  0.0446498  0.139379  0.0549165  0.151159  0.0181253  0.0190321  0.10094  0.0762953  0.208802  0.0871531  0.122524  
1392 3 -8.09497 82.3486 41.7181 22 0.0323001  0.0361372  0.0822184  0.0346115  0.0929599  0.0512801  0.112535  0.0226171  0.0206783  0.065343  0.0465008  0.228692  0.0638687  0.125788  
1393 3 -5.00581 80.7272 35.9689 21 0.0276003  0.0441464  0.147164  0.0458016  0.10821  0.0437634  0.111325  0.0232713  0.0343734  0.0884718  0.0608354  0.222923  0.0537188  0.154483  
1395 1 -8.02435 84.0943 38.0292 25 0.0267545  0.0985726  0.244961  0.0678761  0.136361  0.0580172  0.218011  0.0418385  0.031927  0.0944831  0.0577764  0.215985  0.0713499  0.119506  
1396 2 -9.06122 82.0776 36.182 22 0.0367731  0.0600552  0.171029  0.0659426  0.0857533  0.0750048  0.153089  0.0435493  0.0345658  0.189723  0.0642836  0.241734  0.0593916  0.185873  
1397 3 -7.60052 81.6933 36.6658 24 0.029094  0.0415304  0.115519  0.0490792  0.108175  0.0448912  0.15059  0.0174901  0.0291283  0.0606876  0.06522  0.1815  0.0567808  0.138173  
1398 3 -6.35432 85.3157 38.2048 23 0.0438273  0.0426422  0.171997  0.0745588  0.149972  0.0676934  0.152501  0.0225234  0.0347405  0.109326  0.0551126  0.306167  0.0605934  0.154628  
1400 1 -6.09118 81.2218 38.2224 21 0.04425  0.075172  0.130181  0.0411247  0.121781  0.0496116  0.1789  0.0206479  0.0357258  0.10438  0.0762754  0.197888  0.0695607  0.178857  
1402 1 -6.9819 88.5411 41.0786 27 0.043852  0.0897919  0.178453  0.0693575  0.210597  0.073768  0.267948  0.0416323  0.0155198  0.0659779  0.0670486  0.229646  0.0466736  0.219227  
1405 3 -8.21726 86.823 41.2227 23 0.0403239  0.0703233  0.091555  0.0629587  0.186524  0.0553916  0.227984  0.0168269  0.0188649  0.1122  0.0521386  0.372726  0.0711758  0.207199  
1408 1 -9.05846 87.5522 39.6707 25 0.0287288  0.056398  0.0674649  0.0550438  0.175638  0.0472766  0.18243  0.031627  0.047501  0.0670524  0.0446277  0.19143  0.0434041  0.113856  
1409 1 -10.4117 83.887 39.4964 24 0.0565976  0.0705303  0.152872  0.0647167  0.129639  0.0500451  0.167903  0.0239936  0.034502  0.0797749  0.0671389  0.175895  0.0517984  0.137777  
1410 2 -7.75995 85.2315 41.2063 25 0.0281314  0.0767449  0.158142  0.0639999  0.165545  0.0828092  0.157839  0.0498696  0.0627246  0.194123  0.0777535  0.257445  0.0620246  0.144941  
1411 3 -6.20914 85.0352 41.2329 26 0.0194162  0.0674265  0.100353  0.0450421  0.131807  0.0575521  0.128414  0.0261465  0.0150596  0.0882865  0.0599015  0.271411  0.105482  0.141437  
1412 3 -7.20301 82.6655 39.2744 20 0.0345119  0.0824659  0.163476  0.0537831  0.126805  0.0525199  0.198268  0.0181223  0.042184  0.0555156  0.0642777  0.173841  0.0648717  0.145679  
1413 3 -8.5962 84.7353 39.9429 23 0.0244613  0.0375329  0.131772  0.040142  0.16049  0.0480878  0.13503  0.0108356  0.028721  0.10117  0.061738  0.288731  0.0880189  0.147358  
1414 1 -10.3659 84.64 36.3887 25 0.0451349  0.0662212  0.179454  0.122516  0.116832  0.0923274  0.189656  0.0202526  0.0434902  0.110049  0.0668241  0.18658  0.0580765  0.113529  
1415 3 -8.25015 84.8145 42.6876 24 0.0343826  0.083948  0.153885  0.0568605  0.130247  0.0664658  0.141569  0.00944136  0.0375903  0.089641  0.058569  0.269775  0.0854119  0.15897  
1417 2 -6.65695 86.8866 38.0566 25 0.0292452  0.072552  0.152839  0.0670379  0.143888  0.0744619  0.114416  0.0439488  0.0424821  0.170177  0.0565398  0.259154  0.0701474  0.15178  
1418 3 -8.16544 87.3799 37.9701 23 0.0197618  0.0690923  0.111064  0.0554299  0.137341  0.0805032  0.110798  0.0152683  0.0343492  0.101623  0.0878793  0.322357  0.0833751  0.182923  
1420 3 -5.84767 87.3797 36.8174 21 0.0208587  0.0551067  0.0998546  0.0522821  0.127853  0.0419673  0.111246  0.0116913  0.0284371  0.126406  0.0666941  0.321453  0.0491562  0.15132  
1421 3 -6.10008 87.6232 39.3972 24 0.0244525  0.047083  0.0976473  0.042254  0.151519  0.0625694  0.151332  0.0162223  0.0423308  0.120573  0.0866511  0.341509  0.0839311  0.191924  
1545 3 -5.01635 80.9461 42.7766 23 0.0246485  0.0621797  0.0963573  0.0351287  0.127847  0.0683843  0.10937  0.0177079  0.0370939  0.0577695  0.0511391  0.203662  0.0872383  0.126652  
1547 1 -6.88512 84.1182 44.0037 27 0.0332462  0.0615766  0.156071  0.0617671  0.107699  0.0534557  0.127477  0.0348989  0.0330289  0.112575  0.0558087  0.207956  0.0386916  0.201192  
1548 2 -8.98102 82.2347 43.058 19 0.0268852  0.056841  0.127779  0.0598734  0.124364  0.0907823  0.12032  0.062517  0.0592858  0.218909  0.0850414  0.301043  0.067385  0.189589  
1551 3 -5.18918 83.1773 43.8569 21 0.0229185  0.0369205  0.19205  0.0450984  0.117862  0.068471  0.131213  0.0296226  0.0181699  0.0833325  0.0838633  0.213105  0.111842  0.127246  
1566 1 -9.74645 86.1767 42.5412 27 0.0412413  0.0654578  0.14792  0.0290198  0.146992  0.0676949  0.174598  0.0258604  0.0469274  0.0871992  0.0708438  0.166068  0.0490726  0.162538  
1569 2 -6.75712 87.4632 44.062 24 0.0273791  0.103137  0.210415  0.0593476  0.143568  0.0773829  0.263386  0.0523453  0.0425467  0.273509  0.0586616  0.307528  0.0653488  0.170437  
1570 3 -8.3038 87.4365 44.0935 22 0.0148931  0.062102  0.215028  0.0524936  0.154484  0.050728  0.25573  0.0213239  0.0230051  0.0937441  0.0662475  0.340067  0.0585986  0.196677  
1572 3 -6.02713 87.9111 42.7294 23 0.0280507  0.0852914  0.0891073  0.0517995  0.195285  0.0476967  0.278983  0.00988839  0.0215756  0.104405  0.0920452  0.377549  0.0829657  0.222287  
2786 1 -5.56442 83.887 39.4964 24 0.0565976  0.07053  0.152872  0.0647162  0.129637  0.0500445  0.167906  0.0239936  0.0345019  0.0797734  0.0671386  0.175896  0.0517987  0.13778  
2791 1 -5.51862 84.64 36.3887 25 0.0451355  0.0662198  0.179453  0.122518  0.116831  0.092329  0.189665  0.0202527  0.0434904  0.110049  0.0668226  0.186581  0.058076  0.113531  
2751 1 -8.56583 87.1682 35.8439 25 0.0245911  0.0574957  0.105002  0.0537503  0.134486  0.0524807  0.114299  0.0247545  0.0265328  0.135239  0.0575192  0.20084  0.0717743  0.156189  
1374 1 -13.4131 87.1682 35.8439 25 0.0245923  0.0574939  0.105002  0.0537492  0.134487  0.0524799  0.114302  0.024754  0.0265328  0.135238  0.057519  0.200839  0.0717728  0.156189  
2943 1 -4.89917 86.1767 42.5412 27 0.0412413  0.065458  0.147921  0.0290192  0.146992  0.0676949  0.174598  0.0258608  0.0469276  0.0871975  0.0708442  0.16607  0.0490724  0.162539  
39 1 -14.4422 88.9493 37.4406 22 0.0351629  0.0686444  0.131285  0.0881843  0.152662  0.0790681  0.130479  0.0222591  0.0489141  0.110671  0.053105  0.20375  0.0645615  0.18894  
1416 1 -9.59491 88.9493 37.4406 22 0.0351644  0.0686431  0.131287  0.0881822  0.152663  0.0790658  0.130483  0.0222586  0.048914  0.110671  0.0531041  0.203749  0.0645606  0.18894  
19 2 -13.9085 82.0776 36.182 22 0.0367712  0.0600558  0.171027  0.0659454  0.0857536  0.0750069  0.153091  0.0435494  0.0345659  0.189724  0.0642839  0.241733  0.0593916  0.185873  
9652 3 -14.4311 81.495 39.8381 23 0.0363189  0.0358294  0.127422  0.0385473  0.136478  0.0637855  0.141907  0.0241304  0.0328796  0.0606339  0.061629  0.160612  0.0787447  0.116983  
9663 3 -14.5828 82.9246 37.4248 20 0.0329224  0.0755006  0.190951  0.0614882  0.115279  0.0656625  0.192273  0.00752266  0.0399112  0.0583222  0.0634948  0.191383  0.0681436  0.157201  
191 1 -14.2217 89.2572 43.9899 29 0.0467848  0.103201  0.09171  0.0625295  0.170069  0.0836523  0.321783  0.0448817  0.0334526  0.0725413  0.0687495  0.251252  0.0535141  0.272336  
1568 1 -9.37438 89.2572 43.9899 29 0.0467872  0.103198  0.0917084  0.062529  0.170057  0.0836469  0.321782  0.0448819  0.0334532  0.0725411  0.0687494  0.251252  0.0535134  0.272337  
172 3 -12.7346 82.1096 44.2523 21 0.0259915  0.0421882  0.131921  0.0457971  0.106181  0.0400556  0.133808  0.0217969  0.0301997  0.0741066  0.0570413  0.201994  0.0813913  0.116936  
1549 3 -7.88732 82.1096 44.2523 21 0.0259892  0.04219  0.131921  0.045798  0.106178  0.0400563  0.133808  0.0217963  0.0301987  0.0741056  0.0570435  0.201995  0.0813907  0.116941  
1401 3 -4.88823 82.9246 37.4248 20 0.032922  0.0755015  0.190953  0.0614873  0.11528  0.0656615  0.192274  0.0075222  0.0399113  0.058324  0.0634948  0.191382  0.0681432  0.157201  
1390 3 -4.73653 81.495 39.8381 23 0.0363187  0.0358291  0.12742  0.038548  0.136479  0.063785  0.141907  0.0241305  0.0328804  0.0606355  0.0616281  0.160614  0.0787443  0.116982  
2773 2 -4.21394 82.0776 36.182 22 0.0367716  0.0600537  0.171029  0.0659422  0.0857542  0.0750069  0.153092  0.0435495  0.0345656  0.189723  0.0642835  0.241734  0.0593913  0.185873  
2757 3 -3.60712 85.1603 36.3805 22 0.0318159  0.0356536  0.117542  0.0927898  0.122636  0.0599506  0.127534  0.0195176  0.0255401  0.0742539  0.0591534  0.276398  0.0727901  0.121925  
2766 2 -3.21602 81.7252 40.2219 24 0.0393279  0.0924593  0.1725  0.0646795  0.129773  0.0713449  0.177053  0.0600615  0.0486331  0.213797  0.0931905  0.271056  0.0698838  0.180868  
2767 3 0.110747 81.495 39.8381 23 0.036319  0.0358291  0.127421  0.0385469  0.136479  0.0637853  0.141907  0.0241301  0.0328795  0.0606349  0.0616272  0.160614  0.0787433  0.116982  
2768 3 -2.51596 80.323 40.1193 20 0.0246433  0.0468062  0.148967  0.0446486  0.139379  0.0549161  0.151158  0.0181255  0.019032  0.100939  0.0762966  0.208803  0.0871543  0.122523  
2769 3 -3.2477 82.3486 41.7181 22 0.0323  0.0361375  0.0822188  0.0346117  0.0929592  0.0512806  0.112535  0.0226176  0.0206785  0.0653424  0.0465004  0.22869  0.063869  0.125788  
2770 3 -0.158526 80.7272 35.9689 21 0.0276006  0.0441461  0.147164  0.0458014  0.108208  0.0437636  0.111324  0.0232714  0.0343745  0.0884729  0.0608341  0.222922  0.0537193  0.154482  
2772 1 -3.17707 84.0943 38.0292 25 0.0267548  0.098573  0.24496  0.0678735  0.136367  0.0580159  0.218011  0.0418383  0.0319267  0.0944828  0.0577764  0.215985  0.0713501  0.119507  
2774 3 -2.75324 81.6933 36.6657 24 0.0290938  0.0415303  0.115516  0.0490791  0.108178  0.0448917  0.150588  0.0174905  0.0291283  0.0606895  0.0652199  0.181502  0.0567803  0.138173  
2775 3 -1.50704 85.3157 38.2048 23 0.0438277  0.0426417  0.171996  0.0745602  0.149972  0.067694  0.152499  0.0225229  0.0347413  0.109326  0.055113  0.306168  0.0605963  0.15463  
2777 1 -1.2439 81.2218 38.2224 21 0.04425  0.0751714  0.130181  0.0411261  0.12178  0.0496128  0.1789  0.0206477  0.0357254  0.104379  0.0762755  0.197888  0.0695618  0.178857  
2778 3 -0.0409491 82.9246 37.4248 20 0.0329228  0.0755007  0.190951  0.0614902  0.115278  0.0656583  0.192272  0.00752256  0.0399114  0.0583252  0.0634957  0.191383  0.0681433  0.1572  
2779 1 -2.13462 88.5411 41.0786 27 0.0438521  0.0897917  0.178454  0.0693576  0.210599  0.0737661  0.26795  0.0416321  0.0155198  0.0659777  0.0670491  0.229646  0.0466735  0.219226  
2782 3 -3.36998 86.823 41.2227 23 0.040324  0.0703235  0.0915549  0.0629587  0.186524  0.0553914  0.227985  0.0168271  0.0188644  0.1122  0.0521385  0.372727  0.0711764  0.207199  
2785 1 -4.21119 87.5522 39.6707 25 0.0287293  0.0563974  0.067466  0.0550436  0.17564  0.0472762  0.182432  0.0316273  0.047501  0.0670519  0.0446276  0.191431  0.0434038  0.113856  
2787 2 -2.91267 85.2315 41.2063 25 0.0281309  0.0767453  0.158142  0.0639997  0.165545  0.0828098  0.15784  0.0498695  0.0627246  0.194123  0.0777532  0.257445  0.0620244  0.144941  
2788 3 -1.36186 85.0352 41.2329 26 0.0194159  0.0674264  0.100353  0.045042  0.131807  0.0575518  0.128414  0.0261465  0.0150597  0.0882864  0.0599015  0.271411  0.105482  0.141437  
2789 3 -2.35573 82.6655 39.2744 20 0.034511  0.0824652  0.163475  0.0537842  0.126808  0.0525203  0.198269  0.0181227  0.0421844  0.0555145  0.0642792  0.173841  0.0648726  0.14568  
2790 3 -3.74892 84.7353 39.9429 23 0.0244613  0.0375328  0.131771  0.0401414  0.160489  0.0480876  0.135033  0.0108359  0.0287209  0.101169  0.0617383  0.288731  0.088019  0.147359  
2792 3 -3.40287 84.8145 42.6876 24 0.0343826  0.0839482  0.153885  0.0568608  0.130248  0.0664656  0.141569  0.00944126  0.0375896  0.0896404  0.0585694  0.269774  0.0854123  0.15897  
2794 2 -1.80967 86.8866 38.0566 25 0.0292454  0.0725519  0.15284  0.0670383  0.143887  0.074462  0.114416  0.0439489  0.042482  0.170176  0.0565396  0.259154  0.0701474  0.15178  
2795 3 -3.31816 87.3799 37.9701 23 0.019761  0.0690918  0.111063  0.0554296  0.137341  0.0805042  0.110796  0.0152677  0.0343497  0.101621  0.0878797  0.322356  0.083377  0.182923  
2797 3 -1.0004 87.3797 36.8174 21 0.0208587  0.0551067  0.0998574  0.0522807  0.127852  0.0419673  0.111244  0.0116914  0.0284376  0.126405  0.0666928  0.321454  0.0491554  0.151321  
2798 3 -1.25279 87.6232 39.3972 24 0.0244523  0.0470822  0.0976479  0.0422545  0.151519  0.0625674  0.151334  0.016222  0.0423306  0.120573  0.0866509  0.34151  0.0839303  0.191924  
2922 3 -0.169071 80.9461 42.7766 23 0.0246487  0.0621795  0.0963569  0.0351288  0.127847  0.0683841  0.109371  0.0177079  0.0370941  0.0577698  0.0511392  0.203662  0.0872381  0.126652  
2924 1 -2.03784 84.1182 44.0037 27 0.033246  0.0615775  0.15607  0.0617666  0.107699  0.0534564  0.127476  0.0348987  0.0330291  0.112574  0.0558086  0.207955  0.0386917  0.201193  
2925 2 -4.13374 82.2347 43.058 19 0.0268844  0.0568411  0.127778  0.0598725  0.124361  0.0907837  0.120322  0.0625168  0.059286  0.218908  0.0850414  0.301043  0.067385  0.189588  
2928 3 -0.341902 83.1773 43.8569 21 0.0229186  0.0369206  0.19205  0.0450985  0.117861  0.0684713  0.131213  0.0296226  0.0181696  0.0833323  0.0838634  0.213104  0.111842  0.127246  
2946 2 -1.90984 87.4632 44.062 24 0.0273791  0.103137  0.210415  0.0593482  0.143568  0.0773827  0.263386  0.0523454  0.0425467  0.273509  0.0586613  0.307528  0.0653489  0.170437  
2947 3 -3.45652 87.4365 44.0935 22 0.0148938  0.0621019  0.215028  0.0524939  0.154485  0.0507281  0.25573  0.0213236  0.0230048  0.0937436  0.0662477  0.340067  0.0585984  0.196677  
2949 3 -1.17985 87.9111 42.7294 23 0.0280505  0.0852914  0.0891073  0.0517994  0.195285  0.0476966  0.278983  0.00988845  0.0215755  0.104405  0.0920451  0.377549  0.0829658  0.222287  
4134 3 1.24016 85.1603 36.3805 22 0.0318166  0.0356541  0.11754  0.0927914  0.122631  0.0599519  0.127539  0.0195172  0.0255389  0.0742546  0.0591544  0.276398  0.0727902  0.121925  
4143 2 1.63126 81.7252 40.2219 24 0.0393292  0.0924597  0.172502  0.0646796  0.129773  0.0713441  0.177055  0.0600615  0.0486329  0.213797  0.0931906  0.271056  0.0698836  0.180868  
4145 3 2.33131 80.323 40.1193 20 0.0246441  0.0468065  0.148969  0.0446498  0.139379  0.0549164  0.151159  0.0181252  0.0190319  0.100939  0.076295  0.208802  0.0871528  0.122524  
4146 3 1.59959 82.3486 41.7181 22 0.0323  0.0361375  0.0822182  0.0346118  0.0929593  0.0512805  0.112536  0.0226172  0.0206784  0.065343  0.0465008  0.22869  0.0638691  0.125789  
4147 3 4.68875 80.7272 35.9689 21 0.0276002  0.0441464  0.147164  0.0458016  0.10821  0.0437635  0.111325  0.0232713  0.0343734  0.0884716  0.0608355  0.222923  0.0537188  0.154483  
4149 1 1.67021 84.0943 38.0292 25 0.0267546  0.0985724  0.24496  0.0678756  0.136361  0.0580165  0.218013  0.0418384  0.0319266  0.0944828  0.0577766  0.215985  0.0713501  0.119507  
4150 2 0.633336 82.0776 36.182 22 0.0367725  0.0600558  0.171028  0.0659426  0.0857534  0.0750048  0.153092  0.0435496  0.0345655  0.189723  0.0642836  0.241733  0.0593913  0.185873  
4151 3 2.09404 81.6933 36.6658 24 0.0290942  0.0415303  0.115518  0.0490793  0.108175  0.0448912  0.150591  0.0174903  0.0291279  0.0606877  0.0652201  0.181501  0.0567807  0.138173  
4152 3 3.34024 85.3157 38.2048 23 0.0438273  0.0426421  0.171996  0.0745588  0.149972  0.0676933  0.152501  0.0225235  0.0347404  0.109326  0.0551126  0.306168  0.0605933  0.154628  
4154 1 3.60338 81.2218 38.2224 21 0.04425  0.0751721  0.130181  0.0411246  0.121781  0.0496117  0.1789  0.0206476  0.0357259  0.10438  0.0762754  0.197888  0.0695614  0.178858  
4156 1 2.71266 88.5411 41.0786 27 0.0438523  0.0897919  0.178453  0.0693575  0.210598  0.0737681  0.267948  0.0416323  0.0155197  0.0659778  0.0670492  0.229646  0.0466736  0.219226  
4159 3 1.4773 86.823 41.2227 23 0.040324  0.0703234  0.0915545  0.0629589  0.186524  0.0553914  0.227984  0.0168269  0.0188647  0.1122  0.0521388  0.372726  0.0711763  0.207199  
4162 1 0.636095 87.5522 39.6707 25 0.0287288  0.0563975  0.0674659  0.0550438  0.175639  0.0472765  0.182432  0.0316272  0.0475009  0.0670521  0.0446277  0.191431  0.0434039  0.113856  
4163 1 -0.717142 83.887 39.4964 24 0.0565979  0.0705294  0.152871  0.0647163  0.129638  0.0500443  0.167905  0.0239934  0.0345019  0.0797732  0.0671388  0.175896  0.0517987  0.13778  
4164 2 1.93461 85.2315 41.2063 25 0.0281312  0.0767447  0.158142  0.064  0.165545  0.0828092  0.157839  0.0498696  0.0627247  0.194123  0.0777532  0.257445  0.0620243  0.144941  
4165 3 3.48542 85.0352 41.2329 26 0.0194162  0.0674265  0.100353  0.0450421  0.131807  0.057552  0.128414  0.0261465  0.0150595  0.0882865  0.0599015  0.271411  0.105482  0.141437  
4166 3 2.49155 82.6655 39.2744 20 0.0345118  0.0824661  0.163476  0.0537835  0.126805  0.05252  0.198269  0.0181224  0.0421838  0.0555156  0.0642776  0.173841  0.0648718  0.145679  
4167 3 1.09836 84.7353 39.9429 23 0.0244611  0.0375322  0.131771  0.0401413  0.160489  0.0480878  0.135033  0.0108358  0.0287209  0.10117  0.0617379  0.288731  0.0880188  0.147358  
4168 1 -0.671345 84.64 36.3887 25 0.0451344  0.0662203  0.179453  0.122517  0.116831  0.0923273  0.189658  0.0202529  0.0434901  0.110049  0.0668234  0.186581  0.0580763  0.113531  
4169 3 1.44441 84.8145 42.6876 24 0.0343826  0.0839481  0.153885  0.0568608  0.130248  0.0664654  0.141569  0.00944125  0.0375896  0.0896404  0.0585691  0.269774  0.0854123  0.15897  
4171 2 3.03761 86.8866 38.0566 25 0.0292457  0.0725521  0.152839  0.0670379  0.143888  0.074462  0.114416  0.0439489  0.042482  0.170176  0.0565396  0.259154  0.0701474  0.15178  
4172 3 1.52912 87.3799 37.9701 23 0.019761  0.0690922  0.111063  0.0554304  0.137341  0.0805049  0.110796  0.0152683  0.0343492  0.101622  0.0878803  0.322356  0.0833761  0.182923  
4174 3 3.84689 87.3797 36.8174 21 0.0208587  0.0551069  0.0998546  0.0522821  0.127853  0.0419672  0.111246  0.0116913  0.0284372  0.126405  0.0666942  0.321453  0.0491561  0.15132  
4175 3 3.59448 87.6232 39.3972 24 0.0244527  0.0470831  0.0976476  0.0422541  0.151519  0.0625693  0.151333  0.0162223  0.0423309  0.120573  0.0866515  0.341509  0.0839309  0.191924  
4299 3 4.67821 80.9461 42.7766 23 0.0246486  0.0621797  0.0963573  0.0351287  0.127847  0.0683843  0.10937  0.0177078  0.037094  0.05777  0.0511392  0.203662  0.0872382  0.126652  
4301 1 2.80944 84.1182 44.0037 27 0.033246  0.0615774  0.15607  0.0617666  0.107698  0.0534562  0.127476  0.0348987  0.0330291  0.112574  0.0558087  0.207955  0.0386916  0.201193  
4302 2 0.713544 82.2347 43.058 19 0.0268846  0.0568411  0.127778  0.0598727  0.124361  0.0907837  0.120322  0.0625169  0.0592859  0.218907  0.0850413  0.301042  0.0673849  0.189588  
4305 3 4.50538 83.1773 43.8569 21 0.0229185  0.0369206  0.19205  0.0450986  0.117862  0.0684709  0.131213  0.0296226  0.0181696  0.0833322  0.0838634  0.213104  0.111842  0.127246  
4320 1 -0.0518943 86.1767 42.5412 27 0.0412414  0.0654579  0.147921  0.0290192  0.146992  0.0676948  0.174598  0.0258607  0.0469278  0.0871974  0.0708444  0.16607  0.0490726  0.162539  
4323 2 2.93744 87.4632 44.062 24 0.0273792  0.103137  0.210415  0.0593481  0.143568  0.0773829  0.263386  0.0523453  0.0425468  0.273509  0.0586614  0.307528  0.0653489  0.170437  
4324 3 1.39076 87.4365 44.0935 22 0.0148939  0.062102  0.215028  0.0524939  0.154485  0.050728  0.25573  0.0213236  0.0230048  0.0937436  0.0662477  0.340067  0.0585985  0.196677  
4326 3 3.66743 87.9111 42.7294 23 0.0280507  0.0852914  0.0891073  0.0517995  0.195285  0.0476966  0.278983  0.00988845  0.0215755  0.104405  0.0920452  0.377549  0.0829658  0.222287  
5505 1 1.12873 87.1682 35.8439 25 0.0245911  0.0574951  0.105002  0.05375  0.134487  0.0524802  0.1143  0.0247542  0.0265329  0.13524  0.0575196  0.20084  0.071773  0.15619  
5540 1 4.13014 83.887 39.4964 24 0.0565977  0.0705299  0.152872  0.0647162  0.129637  0.0500445  0.167906  0.0239934  0.0345022  0.079773  0.0671386  0.175896  0.0517989  0.13778  
5545 1 4.17594 84.64 36.3887 25 0.0451354  0.0662198  0.179453  0.122518  0.116831  0.092329  0.189665  0.0202528  0.0434904  0.11005  0.0668227  0.186581  0.0580759  0.113531  
4128 1 -3.71855 87.1682 35.8439 25 0.0245912  0.0574937  0.105001  0.05375  0.134487  0.0524789  0.114301  0.0247542  0.0265331  0.13524  0.0575196  0.20084  0.0717731  0.15619  
5697 1 4.79539 86.1767 42.5412 27 0.0412414  0.065458  0.147921  0.0290193  0.146992  0.0676949  0.174598  0.0258607  0.046928  0.0871974  0.0708443  0.166069  0.0490724  0.162539  
2793 1 -4.74763 88.9493 37.4406 22 0.0351631  0.0686439  0.131287  0.0881825  0.152663  0.0790676  0.130481  0.0222585  0.0489143  0.110672  0.0531043  0.203749  0.0645608  0.188941  
4170 1 0.0996495 88.9493 37.4406 22 0.0351637  0.0686428  0.131289  0.088183  0.152662  0.0790661  0.130478  0.0222587  0.0489143  0.110673  0.0531047  0.203749  0.0645608  0.188941  
2945 1 -4.5271 89.2572 43.9899 29 0.0467865  0.1032  0.0917081  0.0625285  0.170061  0.0836508  0.321783  0.0448817  0.0334531  0.0725413  0.0687495  0.251252  0.053514  0.272336  
4322 1 0.320184 89.2572 43.9899 29 0.0467863  0.1032  0.091708  0.0625286  0.170061  0.0836504  0.321783  0.0448816  0.0334531  0.072541  0.0687494  0.251252  0.053514  0.272336  
2926 3 -3.04004 82.1096 44.2523 21 0.0259915  0.0421897  0.131919  0.0457977  0.10618  0.0400571  0.133805  0.0217964  0.0301985  0.074107  0.0570425  0.201994  0.0813908  0.116939  
4303 3 1.80724 82.1096 44.2523 21 0.0259915  0.0421898  0.131919  0.0457979  0.10618  0.0400572  0.133806  0.0217963  0.0301986  0.074107  0.0570428  0.201995  0.0813908  0.116939  
4155 3 4.80633 82.9246 37.4248 20 0.032922  0.0755015  0.190953  0.0614873  0.11528  0.0656616  0.192274  0.00752222  0.0399113  0.0583239  0.0634949  0.191382  0.0681431  0.157201  
4144 3 4.95803 81.495 39.8381 23 0.0363187  0.0358291  0.12742  0.038548  0.136479  0.0637849  0.141907  0.0241305  0.0328803  0.0606356  0.0616281  0.160614  0.0787443  0.116982  
5527 2 5.48062 82.0776 36.182 22 0.0367713  0.0600534  0.171029  0.0659423  0.085754  0.075007  0.153092  0.0435497  0.0345656  0.189723  0.0642835  0.241733  0.0593913  0.185873  
8259 1 10.8233 87.1682 35.8439 25 0.0245914  0.0574952  0.105002  0.0537495  0.134486  0.0524817  0.1143  0.0247543  0.0265325  0.135238  0.0575197  0.200839  0.0717733  0.156188  
6882 1 5.97601 87.1682 35.8439 25 0.0245911  0.0574935  0.105001  0.0537503  0.134487  0.0524787  0.114301  0.0247543  0.0265334  0.135239  0.0575191  0.20084  0.0717731  0.15619  
5511 3 6.08744 85.1603 36.3805 22 0.031816  0.0356535  0.117542  0.0927899  0.122636  0.0599505  0.127534  0.0195176  0.0255399  0.0742539  0.0591534  0.276398  0.0727899  0.121925  
5520 2 6.47854 81.7252 40.2219 24 0.0393283  0.0924596  0.1725  0.0646797  0.129773  0.0713449  0.177054  0.0600617  0.0486331  0.213797  0.0931903  0.271056  0.0698833  0.180868  
5521 3 9.80531 81.495 39.8381 23 0.0363186  0.0358297  0.127423  0.0385472  0.136477  0.0637871  0.141908  0.0241304  0.0328783  0.0606341  0.0616279  0.160612  0.0787436  0.116982  
5522 3 7.1786 80.323 40.1193 20 0.0246437  0.0468063  0.148967  0.0446488  0.139379  0.0549161  0.151158  0.0181256  0.0190322  0.100939  0.0762968  0.208802  0.0871538  0.122522  
5523 3 6.44686 82.3486 41.7181 22 0.0323  0.0361379  0.0822195  0.0346115  0.0929593  0.0512807  0.112535  0.0226176  0.0206787  0.0653422  0.0465005  0.228689  0.0638689  0.125788  
5524 3 9.53603 80.7272 35.9689 21 0.0275999  0.0441463  0.147164  0.0458011  0.108206  0.0437629  0.111325  0.0232711  0.0343751  0.0884721  0.0608337  0.222923  0.0537188  0.154483  