ITEM: TIMESTEP
5500
ITEM: NUMBER OF ATOMS
10500
ITEM: BOX BOUNDS xy xz yz pp pp pp
0	15.2977	5.09925
0	118.725	0
0	89.688	0
ITEM: ATOMS id type element xu yu zu q Q_1 Q_2 Q_3 Q_4 Q_5 Q_6 Q_7 Q_8 Q_9 Q_10 Q_11 Q_12 Q_13 Q_14 Q_15 Q_16 Q_17 Q_18 Q_19 Q_20 Q_21
1 1 Mg 6.2404 -6.37941e-06 0 1.2 1 0.00134945 0.00399174 0.00123057 0.00487292 0.00117931 0.00558583 0.00224289 0.016244 0.00215718 0.00580342 0.00214667 0.0219226 0.00245138 0.0134859 0.00346742 0.0205898 0.00398002 0.0142303 0.00395323 0.0406199
2 1 Mg 3.46349 4.70768 1.4948 1.2 1 0.00113504 0.00336969 0.00162977 0.00456331 0.00196108 0.00619636 0.00351406 0.0188626 0.002696 0.00707006 0.00299307 0.0258032 0.00322166 0.0137966 0.00435632 0.0251998 0.00537436 0.017306 0.0057824 0.0437772
3 2 Si 5.2885 2.02354 1.4948 2.4 1 0.000874813 0.00327609 0.00210002 0.00467076 0.00177157 0.00573192 0.00250081 0.0171095 0.00243177 0.00618397 0.00213017 0.0234277 0.00272196 0.0134774 0.00369484 0.0215969 0.00380846 0.0154098 0.00443702 0.0412359
4 3 O 5.33628 3.63678 1.4948 -1.2 1 0.000629762 0.00280353 0.00180256 0.00489613 0.00213383 0.00635439 0.00288092 0.0178806 0.00218967 0.00676157 0.0019436 0.0252796 0.00257419 0.013631 0.00428943 0.0239569 0.00501184 0.0165304 0.0057987 0.0428497
5 3 O 1.67294 1.04952 1.4948 -1.2 1 0.00179732 0.00337677 0.00211908 0.00431538 0.00129071 0.00569876 0.00241835 0.0169911 0.00230301 0.00616735 0.00219634 0.0228774 0.0026051 0.0127429 0.0033213 0.0218632 0.00457048 0.0156887 0.00479466 0.0403269
6 3 O 4.59532 1.31737 0.196716 -1.2 1 0.00138739 0.00299885 0.00198818 0.00445838 0.00189538 0.00563792 0.00235284 0.0172383 0.00276246 0.00622144 0.00195514 0.0224448 0.00325291 0.0128464 0.00428103 0.0214968 0.00408279 0.0149529 0.00457028 0.0408624
7 1 Mg 6.18956 -6.37941e-06 2.9896 1.2 1 0.00121312 0.00431762 0.00151895 0.00426641 0.00123207 0.00574043 0.00243143 0.0161945 0.00264742 0.00569651 0.00169832 0.0225893 0.00275572 0.0132859 0.00362933 0.020586 0.00440983 0.0148945 0.00500671 0.0391191
8 3 O 4.55118 1.31737 2.79288 -1.2 1 0.00128892 0.00428134 0.00206959 0.00438861 0.00172573 0.00570989 0.00253829 0.0170709 0.00242194 0.00704565 0.0022331 0.0220092 0.00331026 0.0122057 0.0033745 0.021624 0.00478374 0.0156002 0.00529837 0.0403085
9 1 Mg -1.20682 0.0413099 4.4844 1.2 1 0.000612693 0.00272343 0.00175193 0.00469565 0.00132229 0.00545263 0.00195179 0.0163817 0.0021384 0.00619016 0.0021763 0.0230972 0.00308699 0.0116707 0.00363095 0.0209769 0.00533414 0.0158571 0.00540437 0.0391154
10 2 Si -3.0337 2.72544 4.4844 2.4 1 0.000581814 0.00320608 0.00186424 0.0049614 0.00215874 0.00620071 0.00323834 0.0169842 0.00320708 0.00651608 0.00230511 0.0243951 0.00334963 0.0128823 0.00404318 0.0226089 0.00544427 0.0178273 0.0064376 0.0404064
11 3 O -3.08099 1.11221 4.4844 -1.2 1 0.000794059 0.00364023 0.00190767 0.00438775 0.0012461 0.00540595 0.00241083 0.0163251 0.00274024 0.00586543 0.00211399 0.0226946 0.00334682 0.0113048 0.00355316 0.0213963 0.00509863 0.0164042 0.00573121 0.0388757
12 3 O 0.582463 3.69946 4.4844 -1.2 1 0.00197842 0.00447545 0.00203776 0.00463635 0.00249058 0.006772 0.0035761 0.0176385 0.00333058 0.00670968 0.00331311 0.0251779 0.00431067 0.0129164 0.00445052 0.0244737 0.00691574 0.0189519 0.00843847 0.0424474
13 3 O -2.29524 3.43162 3.18632 -1.2 1 0.000919693 0.00283882 0.00260074 0.00473701 0.0022003 0.00615433 0.00293255 0.0180667 0.00311417 0.0068847 0.00272437 0.0247793 0.00343253 0.0129675 0.00477236 0.0243183 0.00599898 0.0180328 0.00676868 0.0423537
14 3 O -2.34216 3.43162 5.78248 -1.2 1 0.00195357 0.00385681 0.00127389 0.00516139 0.00260982 0.00621659 0.00330278 0.0174612 0.00291508 0.00761631 0.00272666 0.0240443 0.00452311 0.0125456 0.00420924 0.0237029 0.00657956 0.0196939 0.00791727 0.0413223
15 1 Mg 1.12778 2.37449 2.9896 1.2 1 0.00162457 0.0037229 0.0023619 0.00463597 0.00212052 0.00598858 0.00301124 0.0168926 0.00259419 0.0063453 0.00244455 0.0238043 0.0032999 0.012913 0.00343671 0.0220013 0.00486603 0.0166424 0.00567148 0.0410987
16 1 Mg 3.92855 2.33318 4.4844 1.2 1 0.00119213 0.004191 0.00170186 0.00439057 0.00187561 0.00579852 0.00350427 0.0170475 0.00313849 0.00634612 0.00296688 0.0233031 0.00364295 0.0132911 0.00515352 0.0220347 0.0064673 0.0173507 0.00718023 0.0405935
17 2 Si 2.09341 4.39804 4.4844 2.4 1 0.00146493 0.0042451 0.00197229 0.00440587 0.00291901 0.00609835 0.0037556 0.0185253 0.0034308 0.00695091 0.00347709 0.0253459 0.00464404 0.0140595 0.00455262 0.0248961 0.00685313 0.0187918 0.00857725 0.0440973
18 3 O 2.09991 6.01128 4.4844 -1.2 1 0.00204051 0.00455637 0.00164133 0.00436609 0.0029644 0.00669658 0.00327689 0.0195914 0.00278577 0.00740965 0.0031821 0.0272085 0.00440982 0.0144612 0.00484844 0.0277047 0.00695533 0.0198734 0.00841891 0.0461571
19 3 O -4.52137 3.42402 4.4844 -1.2 1 0.000790203 0.00354535 0.00212451 0.00475532 0.00229931 0.00704241 0.00355027 0.0173239 0.00323019 0.00656486 0.00302084 0.0242692 0.00409553 0.0129007 0.00420816 0.0231293 0.00631565 0.0180226 0.00765669 0.0418477
20 3 O 2.80834 3.69187 3.18632 -1.2 1 0.00115118 0.00379672 0.0017682 0.00392783 0.00199726 0.00594938 0.00299982 0.0176628 0.00304314 0.0066146 0.00288141 0.024458 0.00362478 0.012963 0.00469291 0.0239039 0.00575294 0.0172326 0.00655961 0.042852
21 1 Mg 1.17857 2.37449 0 1.2 1 0.00234383 0.00357079 0.00215966 0.00422203 0.001404 0.00553222 0.00246293 0.0172548 0.00237481 0.00672915 0.00287574 0.0232578 0.00290949 0.0132863 0.00362266 0.021603 0.00434864 0.0150283 0.00469393 0.0408586
22 3 O 2.76143 3.69187 5.78248 -1.2 1 0.0018217 0.00422768 0.00171596 0.00451764 0.00224839 0.00563607 0.002954 0.0180121 0.00327306 0.00748812 0.00310758 0.0239649 0.0047744 0.0131629 0.0054421 0.0235718 0.00664302 0.0190837 0.00794632 0.0421766
23 1 Mg -1.67381 2.41581 1.4948 1.2 1 0.00149741 0.00267175 0.00257424 0.00489428 0.00140531 0.00597341 0.00237945 0.016783 0.00277887 0.00646016 0.00201758 0.0242596 0.00247083 0.0141322 0.00282996 0.0222267 0.00435583 0.0161486 0.00486585 0.0417048
24 2 Si 0.16286 0.350945 1.4948 2.4 1 0.00225529 0.00273751 0.00285113 0.00460682 0.00119396 0.00629496 0.00273986 0.0164548 0.0022683 0.00531743 0.00196309 0.0229607 0.00240612 0.0134339 0.00310732 0.020706 0.00456263 0.0148438 0.00432319 0.0403643
25 3 O 0.15972 -1.26229 1.4948 -1.2 1 0.00212455 0.00254139 0.00294534 0.00449576 0.00184031 0.0059005 0.00250064 0.0165097 0.00229079 0.0056061 0.00244173 0.0228738 0.00256459 0.0137099 0.00291351 0.0216963 0.00417939 0.0146649 0.0039358 0.0407942
26 3 O 6.77654 1.32496 1.4948 -1.2 1 0.00129035 0.00359604 0.0016266 0.0046943 0.0012751 0.00600724 0.00231582 0.0168355 0.00246094 0.00560869 0.00178622 0.0237921 0.00267263 0.013544 0.00357482 0.0218442 0.00457011 0.0153515 0.00442696 0.0408641
27 3 O -0.508028 1.05712 0.196716 -1.2 1 0.00195347 0.00280308 0.00338485 0.00424598 0.00133401 0.00559384 0.00246303 0.017163 0.00175339 0.00668365 0.00259705 0.0221905 0.002697 0.0127911 0.00310725 0.0211907 0.00415606 0.0151778 0.00437325 0.0402306
28 3 O -0.552171 1.05712 2.79288 -1.2 1 0.00110066 0.00242586 0.00285987 0.00452229 0.00142426 0.00596023 0.00238651 0.0164055 0.00243792 0.00646039 0.00179619 0.022934 0.00294611 0.0117043 0.0034432 0.0216255 0.00510954 0.0158535 0.00498362 0.039822
29 1 Mg 6.31713 4.74899 0 1.2 1 0.00108192 0.00276972 0.00206188 0.00486207 0.00227843 0.00622515 0.0032619 0.0181863 0.00275875 0.00706414 0.00231652 0.0253023 0.00291988 0.0137701 0.00432856 0.0245604 0.00478328 0.0164012 0.00601913 0.0427332
30 1 Mg 3.54847 9.45668 1.4948 1.2 1 0.00138035 0.00335376 0.00183724 0.004838 0.00208278 0.00778981 0.00308137 0.0215497 0.00160077 0.00841743 0.00250134 0.028722 0.00325167 0.0157012 0.00405555 0.0291469 0.00431722 0.0182941 0.00409335 0.0487949
31 2 Si 5.36879 6.77254 1.4948 2.4 1 0.000657565 0.0031653 0.00195 0.00519804 0.00263359 0.00702962 0.00370602 0.0197838 0.0026465 0.00790985 0.00258971 0.0277462 0.00323552 0.0154207 0.00432196 0.0268653 0.00471717 0.0174578 0.0053107 0.0465361
32 3 O 5.41937 8.38578 1.4948 -1.2 1 0.00108798 0.00323723 0.00170142 0.00517802 0.00219989 0.00783024 0.0031174 0.0211741 0.00214244 0.00843809 0.00248538 0.0291692 0.00237825 0.0156968 0.00323556 0.0290472 0.00474895 0.0175359 0.00496019 0.0480729
33 3 O 1.75158 5.79852 1.4948 -1.2 1 0.0011431 0.00355381 0.00167902 0.00422165 0.00239103 0.0061704 0.00324915 0.0196814 0.00271571 0.00734332 0.00276568 0.0279879 0.00300127 0.0154936 0.00365888 0.0267927 0.00538038 0.0177528 0.00558974 0.0457154
34 3 O 4.67421 6.06637 0.196716 -1.2 1 0.000719359 0.00306513 0.00165829 0.00498263 0.00199413 0.00694238 0.00294037 0.0199506 0.00233579 0.00830603 0.00228294 0.0264108 0.0035536 0.0143881 0.00435783 0.0265539 0.00479388 0.0168625 0.00567198 0.0449805
35 1 Mg 6.26654 4.74899 2.9896 1.2 1 0.00146909 0.00308584 0.00226021 0.00507612 0.00260631 0.0067257 0.0037714 0.018151 0.00364303 0.0071789 0.00226908 0.02614 0.00384734 0.0144659 0.00498684 0.0250508 0.00597952 0.0177972 0.00712996 0.0439326
36 3 O 4.63043 6.06637 2.79288 -1.2 1 0.00195397 0.00346295 0.0017571 0.00506302 0.00233234 0.00697476 0.00342709 0.0197436 0.00319323 0.00794241 0.00252766 0.0263944 0.00405328 0.0146397 0.00448384 0.0273808 0.00597122 0.0184624 0.00713733 0.0458234
37 1 Mg -1.12976 4.79031 4.4844 1.2 1 0.0018368 0.00419836 0.00165888 0.00500153 0.00232083 0.00643026 0.00330285 0.0183444 0.00352063 0.00728982 0.0032196 0.0263244 0.00436622 0.0142857 0.00472157 0.0259403 0.00758641 0.0195751 0.0082913 0.0447259
38 2 Si -2.9517 7.47444 4.4844 2.4 1 0.00255497 0.00417299 0.00135676 0.00538833 0.00284075 0.00671372 0.00372755 0.0206482 0.00321563 0.00791822 0.00323028 0.0279303 0.00476303 0.0161137 0.00552534 0.0282837 0.00710976 0.0194896 0.00840078 0.0483003
39 3 O -3.00198 5.86121 4.4844 -1.2 1 0.00196449 0.00436688 0.00123465 0.00521779 0.00306761 0.00658077 0.00409838 0.0192286 0.00344584 0.00782113 0.00289201 0.0263358 0.00466487 0.0141988 0.00490117 0.0271872 0.00716277 0.0198741 0.00855406 0.0461182
40 3 O 0.666315 8.44846 4.4844 -1.2 1 0.0028393 0.00483712 0.00132846 0.00510687 0.00285552 0.00762554 0.0030438 0.0214424 0.00309166 0.00794889 0.0033443 0.0289421 0.00487916 0.0159678 0.00467983 0.0293876 0.00672606 0.0200944 0.00819136 0.04921
41 3 O -2.21213 8.18062 3.18632 -1.2 1 0.00218429 0.00430292 0.00150946 0.00465031 0.00256347 0.00656305 0.00286031 0.0209587 0.00273111 0.00823586 0.00295508 0.0279842 0.00440503 0.0160029 0.0050768 0.0290552 0.00592491 0.0190284 0.00679944 0.0488979
42 3 O -2.25864 8.18062 5.78248 -1.2 1 0.00314373 0.00481336 0.00157251 0.00515042 0.00296821 0.00632639 0.00290873 0.0211457 0.00243388 0.0086921 0.00383769 0.0275462 0.00463971 0.0165978 0.00574552 0.0296536 0.00743707 0.0212428 0.00840991 0.0501296
43 1 Mg 1.20893 7.12349 2.9896 1.2 1 0.00169722 0.00405076 0.00167209 0.00468086 0.00272729 0.00691133 0.00366441 0.0199242 0.00278619 0.00807621 0.00282174 0.0282179 0.00364219 0.0157235 0.00394791 0.0275456 0.00569997 0.0185563 0.00642716 0.0471535
44 1 Mg 4.00982 7.08218 4.4844 1.2 1 0.0022868 0.0041338 0.00159562 0.00504137 0.00268926 0.00673172 0.0038114 0.0203514 0.00339846 0.00773944 0.00331101 0.0278836 0.00443238 0.0165657 0.00583745 0.0283414 0.00739214 0.0195921 0.00842387 0.0477289
45 2 Si 2.17861 9.14704 4.4844 2.4 1 0.00257651 0.00442349 0.00158396 0.00503493 0.0029021 0.00757295 0.00362428 0.0215168 0.00288209 0.00822166 0.00322508 0.0286148 0.00486576 0.0166051 0.00467315 0.0297535 0.00617683 0.0199716 0.00714992 0.0507911
46 3 O 2.18828 10.7603 4.4844 -1.2 1 0.00321933 0.00461404 0.00185671 0.00479549 0.00268967 0.0072716 0.00293687 0.0213468 0.00265322 0.00812851 0.00240358 0.0290707 0.00422453 0.0158036 0.00452623 0.0309988 0.00631885 0.0201212 0.00695275 0.0513714
47 3 O -4.43805 8.17302 4.4844 -1.2 1 0.0018435 0.00444744 0.00163273 0.00523385 0.00272948 0.00792802 0.00326583 0.0211414 0.00327243 0.00831799 0.00321258 0.0288823 0.00498472 0.0161443 0.00502444 0.029429 0.00696385 0.0198226 0.00885057 0.0490631
48 3 O 2.89193 8.44087 3.18632 -1.2 1 0.00233939 0.0038157 0.00166409 0.004654 0.00247377 0.00705598 0.00331147 0.0208231 0.00278806 0.00848502 0.00307835 0.0279981 0.00402454 0.0159575 0.00475777 0.0291184 0.0059774 0.0189191 0.00601532 0.0489932
49 1 Mg 1.25915 7.12349 0 1.2 1 0.000698513 0.00316006 0.00150597 0.00445544 0.00182022 0.00733788 0.00279255 0.0203593 0.00271229 0.00827572 0.00263563 0.0276651 0.00350909 0.0145051 0.00363076 0.0275775 0.00470082 0.0175379 0.00464671 0.0459631
50 3 O 2.84547 8.44087 5.78248 -1.2 1 0.00263186 0.00495681 0.00153081 0.00487204 0.00262143 0.00682442 0.00317057 0.0214289 0.00309633 0.00889218 0.00357928 0.0276155 0.00567409 0.0166203 0.0054386 0.0300101 0.00654026 0.0215424 0.00799801 0.0502457
51 1 Mg -1.59284 7.16481 1.4948 1.2 1 0.00108797 0.00337629 0.00134617 0.00483937 0.00182271 0.00651343 0.0028096 0.0201024 0.00276869 0.00793903 0.00188003 0.0278657 0.00345613 0.015585 0.00388048 0.0271622 0.00465856 0.0177113 0.00569408 0.0466866
52 2 Si 0.240329 5.09994 1.4948 2.4 1 0.00116755 0.0035939 0.00203645 0.00425064 0.00187137 0.00692682 0.00301279 0.0190743 0.00305266 0.00738637 0.00236804 0.0261523 0.00296898 0.014605 0.00423231 0.0247601 0.0051577 0.0170904 0.00533077 0.044685
53 3 O 0.234538 3.48671 1.4948 -1.2 1 0.00172255 0.00374356 0.00260617 0.00444724 0.00186403 0.00651894 0.00259939 0.0179974 0.00331917 0.00703097 0.00246733 0.0246492 0.00332863 0.0135761 0.00400824 0.0240049 0.00549482 0.0162201 0.00552043 0.0424369
54 3 O 6.85564 6.07396 1.4948 -1.2 1 0.000971196 0.00279701 0.00222744 0.00496493 0.00242157 0.00626871 0.00315146 0.0200669 0.00297243 0.00755729 0.00217595 0.0278296 0.00342897 0.0147272 0.00478224 0.026856 0.00566081 0.0177572 0.00631606 0.0455178
55 3 O -0.429565 5.80612 0.196716 -1.2 1 0.00101042 0.00334817 0.00225397 0.00435232 0.00189493 0.0072164 0.00257252 0.0196525 0.00274562 0.00849727 0.00258853 0.0258114 0.00274946 0.0142604 0.00396627 0.0258047 0.0050758 0.0168786 0.00585132 0.0450784
56 3 O -0.473377 5.80612 2.79288 -1.2 1 0.00179604 0.00363216 0.00185342 0.00465045 0.00230246 0.00694797 0.00308657 0.019427 0.00304392 0.00812356 0.00310982 0.0260909 0.00397162 0.0145767 0.00459793 0.0264273 0.00646081 0.0187285 0.00682447 0.0460786
57 1 Mg 6.40169 9.49799 0 1.2 1 0.000471501 0.00383167 0.00153666 0.00488856 0.00155452 0.00844402 0.00205278 0.021237 0.00152043 0.00890759 0.00191562 0.02908 0.00254933 0.0147454 0.00278028 0.0297827 0.00375651 0.0180588 0.00428469 0.0474597
58 1 Mg 3.64209 14.2057 1.4948 1.2 1 0.00220741 0.00318646 0.00161084 0.00454089 0.00184158 0.00883208 0.00182087 0.0218556 0.00150568 0.00869061 0.00239849 0.0285868 0.00264776 0.016166 0.00325099 0.0294668 0.00364195 0.017008 0.00361315 0.0495882
59 2 Si 5.45748 11.5215 1.4948 2.4 1 0.00206463 0.0033217 0.00177292 0.00477314 0.00179483 0.00829308 0.00220008 0.021391 0.00155751 0.00830371 0.00191723 0.0290178 0.00275247 0.0162524 0.00355715 0.0291297 0.00412629 0.0170577 0.00394027 0.04931
60 3 O 5.51101 13.1348 1.4948 -1.2 1 0.00219224 0.00329977 0.0017488 0.00478374 0.00164418 0.00913883 0.00192497 0.0214022 0.00171986 0.00860945 0.00181296 0.0296412 0.00225266 0.0161151 0.00298385 0.0298397 0.00378803 0.0167452 0.00368591 0.0492112
61 3 O 1.83851 10.5475 1.4948 -1.2 1 0.00123222 0.00364795 0.00166774 0.00490613 0.0018398 0.00782295 0.00243493 0.0217679 0.00168432 0.00839481 0.00231965 0.0295681 0.00272529 0.0158434 0.00341392 0.0298496 0.00417408 0.0179278 0.00356448 0.0493008
62 3 O 4.7611 10.8154 0.196716 -1.2 1 0.00100954 0.00314476 0.00181079 0.00488257 0.00169948 0.00863738 0.00233463 0.0215561 0.0013521 0.00874929 0.00209534 0.0285376 0.00307587 0.015601 0.0040719 0.0294042 0.00375078 0.0173025 0.00383529 0.0484367
63 1 Mg 6.35203 9.49799 2.9896 1.2 1 0.00153004 0.00388288 0.0015585 0.00487956 0.00258615 0.00770474 0.00336987 0.0206441 0.0030141 0.00855939 0.00216026 0.0294456 0.00392456 0.0162226 0.00348631 0.0292876 0.00453892 0.0185448 0.00563475 0.0490148
64 3 O 4.71833 10.8154 2.79288 -1.2 1 0.00247176 0.00364987 0.00159633 0.00466564 0.00225682 0.00824336 0.002255 0.0215096 0.00202669 0.00893652 0.00224799 0.0285672 0.00351098 0.0158739 0.0041067 0.0302336 0.00535399 0.0184011 0.00561581 0.0501455
65 1 Mg -1.0438 9.53931 4.4844 1.2 1 0.00301755 0.00479446 0.00153352 0.00460406 0.00296825 0.00693275 0.00274506 0.0212389 0.00280579 0.00834017 0.00285299 0.0289082 0.00417153 0.016611 0.00477938 0.0299917 0.00665015 0.0201307 0.00729942 0.0505336
66 2 Si -2.8604 12.2234 4.4844 2.4 1 0.00320356 0.00419917 0.00176845 0.00463497 0.00268837 0.00787651 0.0031357 0.0221689 0.0028692 0.00844906 0.00244859 0.0287439 0.00429272 0.0167053 0.00458184 0.0302659 0.00588664 0.0195165 0.00661965 0.052152
67 3 O -2.91391 10.6102 4.4844 -1.2 1 0.00320728 0.00457648 0.00167302 0.00459123 0.00283839 0.00720329 0.00322275 0.0209124 0.00263389 0.00787785 0.00227018 0.0290914 0.00444533 0.0159832 0.00445813 0.0308172 0.00606809 0.0198564 0.00689176 0.0510756
68 3 O 0.7596 13.1975 4.4844 -1.2 1 0.00317678 0.00416663 0.00177678 0.00501149 0.00279159 0.00865157 0.00247207 0.0224662 0.00280823 0.00830942 0.00288785 0.0293122 0.00441428 0.0164025 0.00425779 0.030457 0.00619385 0.0194374 0.00676702 0.0518554
69 3 O -2.12001 12.9296 3.18632 -1.2 1 0.0032521 0.00395464 0.001594 0.00431085 0.00247708 0.00772602 0.00229355 0.0219282 0.00237953 0.00843435 0.00247395 0.0282599 0.00380242 0.0164179 0.00478691 0.0305666 0.00524904 0.0185601 0.00546533 0.0511037
70 3 O -2.16532 12.9296 5.78248 -1.2 1 0.00363284 0.00458659 0.00165459 0.0047482 0.00290704 0.00707849 0.0023817 0.022518 0.00263432 0.008503 0.0031351 0.0283795 0.00436179 0.0171526 0.00536552 0.0314995 0.00645997 0.0211375 0.00684751 0.0538425
71 1 Mg 1.29891 11.8725 2.9896 1.2 1 0.00265762 0.00360614 0.00182072 0.00485092 0.00242689 0.00808084 0.00286246 0.0213221 0.00252367 0.00852491 0.00212707 0.0294313 0.00346931 0.0162404 0.00353332 0.0300893 0.00464803 0.0179099 0.00493795 0.0499911
72 1 Mg 4.10033 11.8312 4.4844 1.2 1 0.00306162 0.00406716 0.00192935 0.00450529 0.00262691 0.00744307 0.00276551 0.0217123 0.00260238 0.00829312 0.00281133 0.029465 0.00392292 0.0174255 0.00512857 0.0305642 0.00671201 0.019543 0.00640919 0.0516689
73 2 Si 2.27333 13.896 4.4844 2.4 1 0.00318444 0.00374705 0.00181251 0.00500855 0.00293573 0.00793638 0.00300174 0.0221311 0.00256606 0.00825874 0.00294566 0.0285983 0.00387889 0.0167647 0.00436545 0.0304047 0.00565565 0.0190107 0.00634243 0.0527615
74 3 O 2.28634 15.5093 4.4844 -1.2 1 0.00325674 0.00397546 0.00187096 0.00465846 0.00301865 0.00734945 0.00280452 0.0213562 0.00278211 0.00769859 0.0023327 0.0291249 0.00350808 0.0160998 0.00397798 0.0308864 0.00583259 0.0187338 0.00641092 0.0523161
75 3 O -4.34533 12.922 4.4844 -1.2 1 0.00291313 0.00413435 0.00198958 0.00474206 0.00281715 0.00848165 0.00306 0.0222077 0.0028894 0.00846294 0.00261113 0.0292654 0.00419627 0.0164291 0.00490095 0.0307035 0.00643327 0.0198386 0.00723725 0.05194
76 3 O 2.98455 13.1899 3.18632 -1.2 1 0.00299762 0.0035106 0.00170514 0.00444596 0.00253125 0.00800232 0.00224069 0.0220481 0.00226533 0.00859089 0.00243455 0.0284051 0.00355436 0.0161143 0.00430322 0.0302319 0.00556193 0.0184073 0.00555972 0.0509133
77 1 Mg 1.34779 11.8725 0 1.2 1 0.00119565 0.00318317 0.0012032 0.00478746 0.00141883 0.00894304 0.00166484 0.0213872 0.00121752 0.00913198 0.00204713 0.0292496 0.00297714 0.0148937 0.00313213 0.0301425 0.0032768 0.0173733 0.00347713 0.0480725
78 3 O 2.93934 13.1899 5.78248 -1.2 1 0.00323504 0.00446028 0.00179328 0.00496117 0.00274622 0.00724621 0.00258352 0.0223775 0.00259788 0.00849492 0.00310182 0.0282786 0.00450954 0.0169635 0.00476036 0.0314577 0.00634525 0.0213556 0.00679638 0.053869
79 1 Mg -1.50344 11.9138 1.4948 1.2 1 0.00159675 0.00364929 0.00135523 0.00461037 0.00145256 0.00838767 0.00205052 0.0217999 0.00227995 0.00855367 0.00155243 0.0289372 0.00363802 0.0161539 0.00347865 0.02972 0.00347358 0.0176102 0.00392677 0.0491047
80 2 Si 0.326006 9.84894 1.4948 2.4 1 0.000856722 0.00360114 0.00123147 0.00506588 0.00183915 0.00827288 0.00214974 0.0213204 0.00205738 0.0084751 0.00173496 0.0287586 0.00311691 0.0157715 0.00378422 0.028889 0.00379119 0.017869 0.00366962 0.0485843
81 3 O 0.317364 8.23571 1.4948 -1.2 1 0.00131973 0.00371339 0.0010927 0.00462689 0.00192201 0.00783834 0.00218759 0.0205039 0.0024622 0.00805982 0.0019267 0.0288554 0.00359659 0.0158044 0.00402116 0.0285998 0.00449483 0.0178343 0.0043294 0.0476537
82 3 O 6.94307 10.823 1.4948 -1.2 1 0.00153017 0.00374557 0.00146095 0.00464298 0.00183183 0.00785155 0.00268063 0.0219924 0.00226856 0.00835782 0.00159388 0.0296965 0.00309195 0.0158994 0.00344972 0.0298977 0.0037943 0.0180173 0.00422374 0.0492536
83 3 O -0.343122 10.5551 0.196716 -1.2 1 0.000955273 0.0033031 0.00116029 0.00476168 0.00156867 0.00870125 0.00203182 0.0214704 0.00157933 0.00903988 0.00205915 0.028362 0.00342412 0.0154138 0.00423605 0.0294029 0.00354266 0.0175476 0.00373694 0.0483168
84 3 O -0.385966 10.5551 2.79288 -1.2 1 0.00280837 0.00396248 0.00121854 0.00461638 0.0024894 0.00814476 0.00227339 0.0217811 0.00201354 0.00914367 0.0024616 0.0279988 0.00404335 0.0160929 0.00429129 0.030003 0.0051954 0.0187518 0.00507228 0.0501747
85 1 Mg 6.49448 14.247 0 1.2 1 0.00131872 0.00349882 0.00166284 0.00487245 0.00130052 0.00929121 0.00141729 0.0214276 0.00123304 0.0085981 0.00146245 0.029112 0.0017405 0.0154807 0.00258325 0.0299354 0.00325916 0.0166683 0.00317116 0.0481281
86 1 Mg 3.74457 18.9547 1.4948 1.2 1 0.00207708 0.00297964 0.00137103 0.00382668 0.00195493 0.00849847 0.00141864 0.0223569 0.0018245 0.00812183 0.00233773 0.0279884 0.00246922 0.0165757 0.00356942 0.0287549 0.00362332 0.0164459 0.00339533 0.0501591
87 2 Si 5.55495 16.2705 1.4948 2.4 1 0.00255855 0.00283797 0.0013713 0.00433515 0.00189427 0.00886592 0.00149843 0.021626 0.00140335 0.00796531 0.00139663 0.0288149 0.00240414 0.0163753 0.00300767 0.0287533 0.00373826 0.0159942 0.00379801 0.0496721
88 3 O 5.6115 17.8838 1.4948 -1.2 1 0.00245302 0.00292583 0.00166397 0.00413382 0.00190678 0.00912241 0.00165441 0.0218118 0.00182502 0.007866 0.00164186 0.02898 0.00202672 0.01656 0.00279301 0.0289275 0.00333158 0.0158098 0.00358183 0.0496942
89 3 O 1.93416 15.2965 1.4948 -1.2 1 0.00240097 0.00309878 0.00156866 0.0045079 0.00183107 0.00839725 0.00214717 0.0220412 0.00187357 0.00805472 0.00157337 0.0293466 0.00207798 0.0162182 0.00292836 0.0296983 0.00364282 0.0165911 0.00340982 0.0499798
90 3 O 4.85636 15.5644 0.196716 -1.2 1 0.00206381 0.00264572 0.00154811 0.00466368 0.00149261 0.0091826 0.00142079 0.0215167 0.000943572 0.00828294 0.00174774 0.0283501 0.00271311 0.0160914 0.00372011 0.0292595 0.0033589 0.0159439 0.00325591 0.0489769
91 1 Mg 6.44662 14.247 2.9896 1.2 1 0.00206347 0.003554 0.00144514 0.0044547 0.00252533 0.00856252 0.00279763 0.0210557 0.00259508 0.00856549 0.00189681 0.029449 0.00311899 0.0163704 0.00320018 0.0297906 0.00415881 0.0176608 0.00477951 0.05018
92 3 O 4.81537 15.5644 2.79288 -1.2 1 0.00292674 0.00317572 0.00144265 0.0042317 0.00243952 0.00876822 0.00181786 0.0220593 0.00163339 0.00859986 0.00191901 0.0282504 0.00285533 0.0164335 0.00361841 0.0296506 0.00469942 0.017238 0.00497984 0.0507619
93 1 Mg -0.948271 14.2883 4.4844 1.2 1 0.00342668 0.00377019 0.00162672 0.00450308 0.00281437 0.00786983 0.00264156 0.0219478 0.00275612 0.00827429 0.00281008 0.0290379 0.00358941 0.0170341 0.00507696 0.0305793 0.00594956 0.0189485 0.00643805 0.0522412
94 2 Si -2.75928 16.9724 4.4844 2.4 1 0.00297285 0.00339229 0.00176781 0.00450724 0.00290122 0.00795462 0.00275082 0.0223546 0.00281441 0.00784514 0.00272284 0.0284637 0.0036311 0.0170316 0.00451822 0.0298669 0.00518065 0.0183928 0.00599598 0.0531082
95 3 O -2.81617 15.3592 4.4844 -1.2 1 0.00337483 0.00378778 0.00169708 0.00440962 0.00299248 0.00763204 0.00274164 0.021534 0.00263127 0.0077214 0.00235363 0.0291502 0.00387826 0.016265 0.00418673 0.0306806 0.00606727 0.0186204 0.00663621 0.0523228
96 3 O 0.862762 17.9465 4.4844 -1.2 1 0.00265894 0.0036793 0.00170683 0.00450047 0.00298103 0.00834972 0.002424 0.0226716 0.00262273 0.00781876 0.00266088 0.0290494 0.00388927 0.0170512 0.00423564 0.0295986 0.0056571 0.0185987 0.00614739 0.0526934
97 3 O -2.0185 17.6786 3.18632 -1.2 1 0.00288791 0.00318771 0.00167665 0.00392243 0.00265929 0.00765419 0.00230071 0.0224698 0.00241265 0.00799973 0.00224544 0.0279196 0.00354978 0.0165206 0.00450364 0.0300068 0.00480578 0.017579 0.00521467 0.0517638
98 3 O -2.06164 17.6786 5.78248 -1.2 1 0.00321249 0.00380091 0.00174683 0.00450079 0.00295309 0.00702436 0.00253165 0.0227482 0.00251072 0.0078088 0.0026171 0.028382 0.00377532 0.017512 0.00473802 0.0310864 0.00587553 0.020425 0.00620115 0.0549396
99 1 Mg 1.39817 16.6215 2.9896 1.2 1 0.00282952 0.00317136 0.00166839 0.00443174 0.00260088 0.0083234 0.00260263 0.02153 0.00260847 0.00812441 0.00201222 0.0291072 0.00274996 0.0166374 0.00322436 0.0295531 0.00412701 0.0166698 0.0044517 0.0506572
100 1 Mg 4.20062 16.5802 4.4844 1.2 1 0.00302697 0.00348623 0.0019259 0.00438679 0.00279024 0.0077156 0.00250027 0.0220404 0.0031073 0.00772096 0.00289719 0.0288684 0.0034603 0.0174657 0.00518198 0.0300982 0.00637196 0.0184937 0.0061309 0.0525032
101 2 Si 2.37796 18.645 4.4844 2.4 1 0.00264474 0.00316853 0.00161767 0.00456582 0.00294796 0.00788848 0.00278617 0.0227154 0.00267126 0.00795205 0.00274877 0.0281695 0.00361286 0.0173395 0.00438 0.0294833 0.00533629 0.0180509 0.00573032 0.0537608
102 3 O 2.39434 20.2583 4.4844 -1.2 1 0.00254606 0.00356265 0.00159997 0.00447119 0.00291032 0.00685872 0.00267377 0.021805 0.00277775 0.00736117 0.00211241 0.0289109 0.0035864 0.0167867 0.00393119 0.0301279 0.00565195 0.0182016 0.00642186 0.0532156
103 3 O -4.24274 17.671 4.4844 -1.2 1 0.00267544 0.00379847 0.0019899 0.00455206 0.00292722 0.00858442 0.00268335 0.022603 0.00289388 0.00786711 0.00261376 0.0290346 0.00360934 0.0169359 0.00486859 0.0300053 0.00595757 0.018771 0.00646044 0.0527266
104 3 O 3.08659 17.9389 3.18632 -1.2 1 0.00283139 0.00300015 0.00173577 0.00393669 0.0028203 0.00784261 0.0021176 0.0223728 0.00237474 0.00802978 0.00232596 0.0280037 0.0032387 0.0165902 0.00416803 0.0295215 0.00528495 0.0174065 0.00542721 0.051665
105 1 Mg 1.44478 16.6215 0 1.2 1 0.00242993 0.00284285 0.0012276 0.00428068 0.00140228 0.00902597 0.00129633 0.021635 0.00142265 0.00824686 0.00151077 0.0289243 0.00237966 0.0157307 0.0025332 0.0292813 0.00301693 0.0161822 0.00324153 0.0487431
106 3 O 3.0436 17.9389 5.78248 -1.2 1 0.00269758 0.00391428 0.001826 0.00485947 0.00280537 0.00703371 0.00247381 0.0225988 0.00242616 0.00803695 0.00306149 0.0282166 0.00407849 0.0171518 0.00507543 0.030978 0.00609464 0.0204116 0.00630648 0.0548834
107 1 Mg -1.40524 16.6628 1.4948 1.2 1 0.00215072 0.00321714 0.00128397 0.00439337 0.00180832 0.00870783 0.00192363 0.0222873 0.0017781 0.0082479 0.00178376 0.028502 0.00313842 0.0166779 0.00301787 0.0293363 0.00292928 0.0165912 0.00334014 0.0496728
108 2 Si 0.420358 14.5979 1.4948 2.4 1 0.00215527 0.00306199 0.00150252 0.00487736 0.00196595 0.00913272 0.00193047 0.0215324 0.00167838 0.00821041 0.00141862 0.0286848 0.00293616 0.0165036 0.00351631 0.0288001 0.00340382 0.0164894 0.00357941 0.0494385
109 3 O 0.408732 12.9847 1.4948 -1.2 1 0.00202139 0.00323531 0.00126882 0.0047726 0.0018565 0.00911003 0.0016447 0.0212772 0.00212242 0.00844099 0.0015747 0.0293217 0.00317185 0.0160301 0.00316416 0.0298588 0.00321143 0.0169632 0.00371824 0.049249
110 3 O 7.03923 15.572 1.4948 -1.2 1 0.00222493 0.00315675 0.00147265 0.00442056 0.0020622 0.00835575 0.00237349 0.0218654 0.00223359 0.00802171 0.00152548 0.0294717 0.00267508 0.0163779 0.00294036 0.0296228 0.00338845 0.0167258 0.00394333 0.049752
111 3 O -0.248332 15.3041 0.196716 -1.2 1 0.00210494 0.00289103 0.00130732 0.00452262 0.00119047 0.00906713 0.00187567 0.0213899 0.00127187 0.00831257 0.00165182 0.0283662 0.00291531 0.0159459 0.00370234 0.0292265 0.00295999 0.0161696 0.00331302 0.0488121
112 3 O -0.289436 15.3041 2.79288 -1.2 1 0.0032885 0.00333788 0.0013496 0.00430381 0.00255004 0.0087073 0.00210035 0.0221742 0.00186287 0.00880119 0.00206277 0.0278568 0.00316724 0.016726 0.0037228 0.0296715 0.00437795 0.017665 0.00467369 0.0507874
113 1 Mg 6.59566 18.996 0 1.2 1 0.00156724 0.00312942 0.00162756 0.00426523 0.00108372 0.00864588 0.00112325 0.022077 0.00121011 0.00778846 0.00135126 0.0284427 0.00193167 0.0163193 0.0023757 0.0286835 0.00297783 0.015985 0.00303545 0.0487514
114 1 Mg 3.85574 23.7037 1.4948 1.2 1 0.00186614 0.00239819 0.00124804 0.00402314 0.00188128 0.00729432 0.00134002 0.0233447 0.00176922 0.00756264 0.00224709 0.0274546 0.00243831 0.017614 0.00374744 0.0284162 0.00340717 0.0172167 0.00357529 0.0509432
115 2 Si 5.66125 21.0195 1.4948 2.4 1 0.00206087 0.00240281 0.00117996 0.00395917 0.00206952 0.00809489 0.00158615 0.021988 0.00143117 0.00754082 0.0014505 0.0283124 0.00241202 0.0172993 0.00279278 0.0281023 0.00363628 0.0157653 0.00409994 0.0503583
116 3 O 5.72074 22.6328 1.4948 -1.2 1 0.0020603 0.00245975 0.00169913 0.00393533 0.00196985 0.00805192 0.00168016 0.0225113 0.00184249 0.00732112 0.00149541 0.0282153 0.0020582 0.017317 0.00292475 0.0283961 0.00332144 0.0163056 0.00379645 0.0503657
117 3 O 2.03867 20.0455 1.4948 -1.2 1 0.00185995 0.00301464 0.00149018 0.00412315 0.0019402 0.00773371 0.00216424 0.0224598 0.00231297 0.00754291 0.00156545 0.0287602 0.00213103 0.0171926 0.00252862 0.0288902 0.00354032 0.0160973 0.00351399 0.0505291
118 3 O 4.96004 20.3134 0.196716 -1.2 1 0.00188685 0.00234533 0.00146088 0.0040039 0.00142485 0.00822526 0.0010422 0.0218825 0.00110074 0.0075542 0.00153921 0.0279481 0.00264125 0.0165962 0.00398532 0.0286428 0.00311849 0.0153418 0.00300174 0.0495573
119 1 Mg 6.55057 18.996 2.9896 1.2 1 0.00189488 0.00318997 0.00141918 0.00395352 0.00262651 0.00814851 0.00286107 0.0215673 0.00261613 0.00791134 0.00180428 0.0293173 0.00296392 0.0169876 0.00297942 0.0289516 0.00390871 0.0168703 0.00477766 0.0509339