ITEM: TIMESTEP
4600
ITEM: NUMBER OF ATOMS
10500
ITEM: BOX BOUNDS xy xz yz pp pp pp
0	15.2974	5.099
0	118.725	0
0	89.688	0
ITEM: ATOMS id type element xu yu zu q Q_1 Q_2 Q_3 Q_4 Q_5 Q_6 Q_7 Q_8 Q_9 Q_10 Q_11 Q_12 Q_13 Q_14 Q_15 Q_16 Q_17 Q_18 Q_19 Q_20 Q_21
1 1 Mg 6.2404 -6.37941e-06 0 1.2 1 0.00165449 0.00389335 0.00123129 0.00458342 0.00126258 0.00552623 0.00211732 0.0162228 0.00224642 0.00576407 0.00223409 0.0216643 0.00282977 0.0136077 0.0037663 0.0205032 0.00418409 0.0138838 0.00391159 0.040345
2 1 Mg 3.46349 4.70768 1.4948 1.2 1 0.000920184 0.00313118 0.00145351 0.00434763 0.00187585 0.00613575 0.00360431 0.0187233 0.00294988 0.00690986 0.00296282 0.0255619 0.00360109 0.013799 0.00459986 0.0251324 0.00533919 0.0171078 0.00567541 0.0435185
3 2 Si 5.2885 2.02354 1.4948 2.4 1 0.000684323 0.00326725 0.00197944 0.00440696 0.00188345 0.00572969 0.0023517 0.0171641 0.00246253 0.00611514 0.00224406 0.0231254 0.00320367 0.0135608 0.00403538 0.0215494 0.0041358 0.0151669 0.00436455 0.0410407
4 3 O 5.33628 3.63678 1.4948 -1.2 1 0.000231473 0.00286602 0.00158311 0.00469429 0.00217856 0.00633536 0.0027806 0.0178885 0.00229886 0.00669261 0.00206394 0.0249775 0.00294309 0.0137155 0.00463016 0.0239059 0.00517048 0.016382 0.00566092 0.0424571
5 3 O 1.67294 1.04952 1.4948 -1.2 1 0.00188386 0.00311724 0.00213819 0.00413322 0.00129459 0.00566621 0.00238817 0.0170037 0.00241878 0.0061273 0.00212926 0.0225191 0.00272981 0.0129396 0.00335356 0.0217678 0.00452698 0.0155509 0.00457871 0.0402337
6 3 O 4.59532 1.31737 0.196716 -1.2 1 0.00145653 0.00292996 0.00210313 0.00413869 0.0021251 0.00568534 0.00237682 0.0172104 0.00271895 0.0062625 0.00216395 0.0222306 0.00356699 0.0128537 0.00458055 0.0213864 0.00432786 0.0146858 0.00456712 0.0407508
7 1 Mg 6.18956 -6.37941e-06 2.9896 1.2 1 0.00094414 0.00418108 0.00160804 0.00395104 0.00134087 0.00552267 0.0022829 0.0162875 0.00263257 0.00556901 0.00182954 0.0222619 0.00291687 0.0133096 0.00376593 0.0205667 0.00427001 0.0147034 0.00468829 0.0388896
8 3 O 4.55118 1.31737 2.79288 -1.2 1 0.000813905 0.00391438 0.00202602 0.0041697 0.00171002 0.00557024 0.0024345 0.0171591 0.00260971 0.0068873 0.00234955 0.021694 0.0034262 0.0123837 0.00345767 0.0215587 0.00484463 0.0155388 0.00509923 0.0400962
9 1 Mg -1.20682 0.0413099 4.4844 1.2 1 0.00074632 0.00263796 0.00174638 0.00446683 0.00128012 0.00541104 0.00182516 0.016419 0.00239373 0.00615463 0.0020408 0.0226484 0.00304656 0.0116045 0.00373737 0.0207545 0.00536444 0.0156661 0.00495083 0.0388054
10 2 Si -3.0337 2.72544 4.4844 2.4 1 0.00101643 0.0031268 0.00168434 0.00471217 0.00193405 0.00596292 0.00313179 0.0170047 0.00346989 0.0061716 0.002334 0.0240729 0.00344153 0.0129238 0.00414119 0.0225539 0.0054964 0.0178808 0.00610954 0.0401426
11 3 O -3.08099 1.11221 4.4844 -1.2 1 0.0011767 0.00335681 0.00170303 0.00410945 0.00113873 0.00534099 0.00218308 0.0163405 0.0028243 0.00569806 0.00213656 0.0222983 0.00332804 0.0113455 0.00359057 0.0212118 0.00514721 0.0165004 0.00536924 0.0385178
12 3 O 0.582463 3.69946 4.4844 -1.2 1 0.00156679 0.00423726 0.00221699 0.00446063 0.00246944 0.00662353 0.00342264 0.0174201 0.00348593 0.00662239 0.00313422 0.024861 0.00432601 0.0127579 0.00431726 0.0242428 0.00709224 0.0186622 0.0083577 0.0417748
13 3 O -2.29524 3.43162 3.18632 -1.2 1 0.000108103 0.00295589 0.00254378 0.0045383 0.00210521 0.00600583 0.00279997 0.0179824 0.00338851 0.00657301 0.00262338 0.0243541 0.00339878 0.0129535 0.0048035 0.0242522 0.00602332 0.0179289 0.00653119 0.0419222
14 3 O -2.34216 3.43162 5.78248 -1.2 1 0.00240961 0.0035489 0.0010739 0.00461664 0.00236436 0.00589754 0.00310875 0.0173235 0.00310929 0.00742856 0.00274601 0.0235252 0.00419856 0.0121237 0.00437018 0.0236459 0.00664811 0.019469 0.00736627 0.0409003
15 1 Mg 1.12778 2.37449 2.9896 1.2 1 0.00126705 0.00333677 0.00245015 0.00448498 0.00203382 0.00572872 0.00298149 0.0168651 0.00291729 0.00629391 0.00253347 0.023565 0.00342137 0.0129414 0.00350088 0.0220046 0.00488723 0.0165462 0.00552107 0.0408102
16 1 Mg 3.92855 2.33318 4.4844 1.2 1 0.000607651 0.0038235 0.00133964 0.00408244 0.00170965 0.00560441 0.00343981 0.0169006 0.00338026 0.00616263 0.00297236 0.0229404 0.00367394 0.0132122 0.0049969 0.0220693 0.00643537 0.0172541 0.00675297 0.0404333
17 2 Si 2.09341 4.39804 4.4844 2.4 1 0.00137742 0.00367513 0.00201646 0.00430738 0.00266888 0.00595072 0.00360376 0.0182604 0.00351262 0.00665851 0.00329821 0.0247769 0.00460338 0.0139026 0.00424808 0.0246763 0.00687134 0.0185232 0.00846056 0.0435136
18 3 O 2.09991 6.01128 4.4844 -1.2 1 0.00239145 0.00414674 0.00153962 0.00396336 0.00271068 0.00641018 0.00309782 0.0191528 0.00278362 0.00715647 0.00294181 0.0268564 0.0042133 0.0142377 0.0048481 0.0273345 0.00697729 0.0194258 0.00785587 0.0454773
19 3 O -4.52137 3.42402 4.4844 -1.2 1 0.000965296 0.00357846 0.00186149 0.00440292 0.00213032 0.00684846 0.00325874 0.017093 0.00358497 0.00620191 0.00289373 0.0236009 0.00396464 0.0127687 0.00429139 0.0230653 0.00645412 0.0180443 0.0073188 0.0413831
20 3 O 2.80834 3.69187 3.18632 -1.2 1 0.000749528 0.00339449 0.00167659 0.00372786 0.00197541 0.0057556 0.00308257 0.0173515 0.00306125 0.0064214 0.00291161 0.0243149 0.00382357 0.0130857 0.00486452 0.0239664 0.00573923 0.0171571 0.00632684 0.0427104
21 1 Mg 1.17857 2.37449 0 1.2 1 0.00234963 0.00323775 0.00220853 0.00411491 0.00136895 0.00557635 0.00246948 0.0172096 0.00246647 0.00663059 0.00288508 0.0227496 0.00332563 0.0132019 0.00391803 0.0215045 0.00449769 0.0148171 0.00465806 0.0404222
22 3 O 2.76143 3.69187 5.78248 -1.2 1 0.00190452 0.0037425 0.00156322 0.0039405 0.00185137 0.00541653 0.00266744 0.0176802 0.00360138 0.00693211 0.00295411 0.0234633 0.00472364 0.013014 0.00558844 0.0233961 0.00699078 0.0187917 0.00727769 0.0413714
23 1 Mg -1.67381 2.41581 1.4948 1.2 1 0.0016701 0.00258791 0.00272248 0.00459219 0.0012975 0.00601531 0.00242894 0.0167166 0.00286463 0.006263 0.00204076 0.0240837 0.00296503 0.014195 0.00315133 0.022218 0.00437262 0.0161283 0.00470256 0.0414652
24 2 Si 0.16286 0.350945 1.4948 2.4 1 0.00214975 0.00239768 0.00292872 0.00429253 0.00119367 0.00620592 0.00266623 0.0165771 0.00225884 0.00536175 0.00203817 0.0228594 0.00270962 0.0135921 0.00336286 0.0206631 0.00450623 0.0148023 0.00422028 0.0402912
25 3 O 0.15972 -1.26229 1.4948 -1.2 1 0.00219446 0.00245381 0.00309057 0.00427092 0.00169116 0.00596669 0.00250554 0.0165152 0.00218003 0.00554581 0.00228134 0.0226463 0.00263009 0.0139342 0.0029397 0.0216201 0.00403499 0.0145739 0.00376875 0.0407164
26 3 O 6.77654 1.32496 1.4948 -1.2 1 0.00138204 0.00367216 0.00153535 0.0044785 0.00126847 0.00594607 0.00220137 0.0168809 0.00249436 0.00552181 0.00191687 0.0236246 0.00312343 0.0136174 0.00383663 0.0218008 0.00471824 0.0152611 0.00436437 0.0407267
27 3 O -0.508028 1.05712 0.196716 -1.2 1 0.00230968 0.00259825 0.00335645 0.0039897 0.00129967 0.00556344 0.00243221 0.0170805 0.00172743 0.00670113 0.00255868 0.0219003 0.00292555 0.01289 0.00336239 0.0211299 0.00410797 0.0148637 0.00424454 0.0400865
28 3 O -0.552171 1.05712 2.79288 -1.2 1 0.000838071 0.00229993 0.00319382 0.0045073 0.0012783 0.00598021 0.00216082 0.0164929 0.00259953 0.00624516 0.00185726 0.0228095 0.00325586 0.0119829 0.00388862 0.0216237 0.00533992 0.0158639 0.00485601 0.0395999
29 1 Mg 6.31713 4.74899 0 1.2 1 0.000793299 0.00271681 0.00180749 0.00473698 0.00239542 0.00625414 0.00328958 0.0181028 0.00285568 0.00708503 0.00255165 0.0249428 0.00327549 0.0139801 0.00468476 0.0242413 0.00499858 0.0162714 0.00589541 0.0422773
30 1 Mg 3.54847 9.45668 1.4948 1.2 1 0.00119936 0.00324502 0.00171838 0.00461078 0.00215189 0.00757885 0.00329745 0.0213514 0.0015378 0.00850908 0.00244887 0.0284141 0.00336389 0.0157482 0.00397204 0.029178 0.00413516 0.0182567 0.00398775 0.0482624
31 2 Si 5.36879 6.77254 1.4948 2.4 1 0.000669851 0.00306363 0.00182968 0.00516171 0.00267493 0.0069504 0.00377117 0.0196361 0.00274047 0.00786907 0.00259543 0.0274956 0.00340728 0.015481 0.00454368 0.0268869 0.00466022 0.0173183 0.00526275 0.0460031
32 3 O 5.41937 8.38578 1.4948 -1.2 1 0.00123606 0.00319409 0.00162177 0.00491378 0.0022097 0.00762599 0.00321728 0.0210252 0.00220579 0.00849407 0.00253528 0.0289112 0.00259065 0.0157897 0.00354321 0.0290001 0.00468737 0.0175824 0.00479976 0.0474409
33 3 O 1.75158 5.79852 1.4948 -1.2 1 0.000646192 0.00322141 0.00187991 0.00409806 0.0022565 0.00605719 0.00333031 0.0196545 0.00287073 0.00732453 0.00271486 0.027731 0.00328941 0.0153271 0.00389022 0.0266336 0.00546328 0.0176555 0.00556436 0.0452897
34 3 O 4.67421 6.06637 0.196716 -1.2 1 0.000408658 0.00292584 0.0014796 0.00490948 0.0020776 0.00691449 0.00309253 0.0198423 0.00241602 0.00818632 0.00234316 0.0260558 0.00386788 0.0145396 0.00462956 0.0264185 0.0048909 0.0167327 0.00549914 0.0444069
35 1 Mg 6.26654 4.74899 2.9896 1.2 1 0.000978513 0.00316172 0.00177495 0.00497599 0.00260056 0.00671297 0.00361332 0.0180247 0.00386727 0.00713954 0.00217808 0.0256675 0.00381085 0.0142637 0.00519803 0.0249877 0.00591973 0.0178145 0.0067536 0.0432677
36 3 O 4.63043 6.06637 2.79288 -1.2 1 0.00144314 0.00332568 0.00153077 0.00490666 0.00227409 0.00679931 0.00346538 0.019481 0.00335469 0.00808492 0.00240209 0.0260121 0.00402567 0.0146189 0.00486344 0.0272007 0.00568573 0.0183298 0.006631 0.0453747
37 1 Mg -1.12976 4.79031 4.4844 1.2 1 0.00181418 0.00374325 0.00177145 0.00478514 0.00227071 0.00628603 0.0032651 0.018179 0.00375796 0.00700014 0.00300092 0.0258849 0.00423578 0.0141419 0.00507154 0.0257563 0.00750855 0.0193546 0.00789517 0.0441451
38 2 Si -2.9517 7.47444 4.4844 2.4 1 0.00255047 0.00407205 0.00111455 0.00512478 0.00270015 0.00663764 0.00375049 0.0204632 0.00344395 0.00776556 0.00285791 0.0273482 0.0043069 0.0157973 0.00534931 0.0280038 0.00700031 0.0196007 0.00781566 0.0478799
39 3 O -3.00198 5.86121 4.4844 -1.2 1 0.00223676 0.00420019 0.00084787 0.00485716 0.00306487 0.00659877 0.00412179 0.0189901 0.00380169 0.00745732 0.00263824 0.0259655 0.00434563 0.0141261 0.00471185 0.0269024 0.00698991 0.0200319 0.00822407 0.045864
40 3 O 0.666315 8.44846 4.4844 -1.2 1 0.00308891 0.00452863 0.000980531 0.00470334 0.0026953 0.00720313 0.00291678 0.0212036 0.0030961 0.00788438 0.00313299 0.0285017 0.00485089 0.0158317 0.00473703 0.0290227 0.00645663 0.0199495 0.00756653 0.0486637
41 3 O -2.21213 8.18062 3.18632 -1.2 1 0.0022098 0.00407839 0.00113832 0.00450411 0.00241578 0.00637361 0.0028354 0.0208578 0.00279033 0.00816837 0.00275154 0.0274704 0.00409449 0.0155858 0.00522876 0.0287504 0.00603365 0.0190726 0.00648598 0.0483368
42 3 O -2.25864 8.18062 5.78248 -1.2 1 0.00386484 0.00458237 0.00121238 0.00442264 0.0029202 0.00605195 0.00321516 0.0209649 0.00289594 0.00792901 0.00314502 0.0269609 0.0047353 0.0164491 0.00557694 0.0294646 0.00732498 0.0211901 0.00831154 0.0493601
43 1 Mg 1.20893 7.12349 2.9896 1.2 1 0.00122104 0.00369455 0.00166667 0.00423247 0.00264776 0.00665531 0.00386746 0.0198919 0.00291615 0.00818193 0.00287933 0.0280703 0.00373211 0.0157378 0.00416625 0.0273888 0.00558841 0.0183169 0.00636776 0.0467228
44 1 Mg 4.00982 7.08218 4.4844 1.2 1 0.00214425 0.00379957 0.00141882 0.00466892 0.00248514 0.00649929 0.00367743 0.0201677 0.00362992 0.00761989 0.00319126 0.027207 0.00436716 0.0161728 0.00586627 0.0283823 0.00729703 0.0196479 0.00811943 0.0473227
45 2 Si 2.17861 9.14704 4.4844 2.4 1 0.00310432 0.00401959 0.00144493 0.00460961 0.00270524 0.00718427 0.0036641 0.0213075 0.00280865 0.00818001 0.00291445 0.0281697 0.00490598 0.0166108 0.00486231 0.0294923 0.00592727 0.0197583 0.00660602 0.050218
46 3 O 2.18828 10.7603 4.4844 -1.2 1 0.00403017 0.00431357 0.00169198 0.00434136 0.00248561 0.00683887 0.00281016 0.0208228 0.00223986 0.00808924 0.00202307 0.028569 0.00423032 0.0156384 0.00445686 0.0304977 0.00594089 0.0199249 0.00652143 0.0506302
47 3 O -4.43805 8.17302 4.4844 -1.2 1 0.00244739 0.00437026 0.00148661 0.00501314 0.00228258 0.00756456 0.00314062 0.0207146 0.00338044 0.00799765 0.00323686 0.0282822 0.00464396 0.0158372 0.00500913 0.0293534 0.00688321 0.0198609 0.00866949 0.048425
48 3 O 2.89193 8.44087 3.18632 -1.2 1 0.00219925 0.00344904 0.00150947 0.00423808 0.00229808 0.00686838 0.00331017 0.0206365 0.00291886 0.008614 0.00278467 0.027561 0.00415611 0.0157278 0.00497532 0.0290023 0.00595683 0.018883 0.00586938 0.0483211
49 1 Mg 1.25915 7.12349 0 1.2 1 0.000431077 0.00269402 0.00160895 0.00439673 0.00187101 0.00722015 0.00287585 0.0202101 0.00289722 0.00832876 0.00262409 0.0273437 0.00360725 0.0146099 0.00382419 0.0272917 0.00487912 0.0174196 0.00474442 0.0453226
50 3 O 2.84547 8.44087 5.78248 -1.2 1 0.0036705 0.00452027 0.00140712 0.00440672 0.00226313 0.00664492 0.0033097 0.0207655 0.00324634 0.00831154 0.00314801 0.02725 0.00540126 0.0162977 0.00543252 0.0295529 0.00633027 0.0212804 0.00738924 0.0497247
51 1 Mg -1.59284 7.16481 1.4948 1.2 1 0.000440818 0.0033953 0.0013587 0.00471771 0.00181806 0.006357 0.00288506 0.0200291 0.00289415 0.00790008 0.0018495 0.0276605 0.00358919 0.0156624 0.00407831 0.0271412 0.0047927 0.0176651 0.00559066 0.046258
52 2 Si 0.240329 5.09994 1.4948 2.4 1 0.000766563 0.00346295 0.00224307 0.00421875 0.00184757 0.00680114 0.00319909 0.0190902 0.00323598 0.0073879 0.00234686 0.0259503 0.00333151 0.0145494 0.00434828 0.024678 0.00516492 0.0170462 0.00517087 0.044317
53 3 O 0.234538 3.48671 1.4948 -1.2 1 0.0012331 0.00349946 0.00281555 0.00432722 0.00179138 0.00641181 0.00268797 0.0180238 0.00354958 0.00700507 0.00245121 0.024393 0.00364031 0.0135891 0.00422066 0.023867 0.00551415 0.01613 0.00538896 0.0421343
54 3 O 6.85564 6.07396 1.4948 -1.2 1 0.000748739 0.00280781 0.00219718 0.00495652 0.0025582 0.00621336 0.0030785 0.0200184 0.00310242 0.00762983 0.00205747 0.0275841 0.00344594 0.0148507 0.00502512 0.0268737 0.00565135 0.0177343 0.00608671 0.0450493
55 3 O -0.429565 5.80612 0.196716 -1.2 1 0.000759329 0.0030322 0.00247147 0.00424183 0.00174509 0.00709502 0.00266656 0.0196119 0.00298738 0.0084994 0.00264612 0.0254817 0.00325522 0.0142483 0.00426579 0.0255571 0.00517697 0.0167601 0.0058757 0.0445272
56 3 O -0.473377 5.80612 2.79288 -1.2 1 0.00124793 0.00350367 0.00185785 0.00454788 0.00226937 0.00670209 0.00325302 0.0194037 0.00321604 0.00795465 0.00288214 0.0259563 0.00395899 0.0143453 0.00473486 0.0263273 0.00635442 0.0186408 0.00678418 0.0455484
57 1 Mg 6.40169 9.49799 0 1.2 1 0.000372327 0.00347652 0.00165372 0.00487321 0.0016227 0.00816982 0.00203235 0.0210665 0.00166498 0.00900902 0.00192102 0.0287066 0.0028152 0.0150084 0.00315009 0.0295721 0.00381194 0.017898 0.00428275 0.0468348
58 1 Mg 3.64209 14.2057 1.4948 1.2 1 0.00241752 0.00334197 0.00165208 0.00464009 0.00180094 0.00864358 0.00190053 0.0216956 0.00149432 0.00876464 0.00228752 0.0280934 0.00265022 0.0160766 0.00320973 0.029406 0.00367416 0.0169986 0.00366669 0.0489278
59 2 Si 5.45748 11.5215 1.4948 2.4 1 0.00243612 0.00325814 0.00183078 0.00473698 0.00179334 0.008138 0.00234758 0.0212071 0.00159526 0.00842796 0.00182171 0.0287509 0.00278397 0.0163192 0.00377642 0.0290665 0.00395848 0.017064 0.00394517 0.0486718
60 3 O 5.51101 13.1348 1.4948 -1.2 1 0.00238942 0.00342108 0.00187742 0.00463945 0.00169131 0.00885681 0.00192171 0.021237 0.0016386 0.00868214 0.00179765 0.0290616 0.00239584 0.0161104 0.00326004 0.0297249 0.00377807 0.0167015 0.00364155 0.0486646
61 3 O 1.83851 10.5475 1.4948 -1.2 1 0.00140848 0.00344796 0.00168681 0.00469455 0.00174943 0.00756431 0.00248631 0.0216988 0.00177125 0.0085118 0.00218681 0.0291552 0.00279318 0.0158256 0.00352609 0.0298305 0.00394476 0.0180406 0.00357197 0.048824
62 3 O 4.7611 10.8154 0.196716 -1.2 1 0.00103492 0.0030679 0.00203232 0.00485885 0.00167179 0.00850287 0.00233354 0.021424 0.00150391 0.0088249 0.0020471 0.028122 0.00306002 0.0157729 0.00413196 0.0292937 0.00370955 0.0172672 0.00380411 0.0477932
63 1 Mg 6.35203 9.49799 2.9896 1.2 1 0.00200217 0.00383371 0.00149091 0.00480673 0.00251059 0.00763915 0.00341988 0.0204777 0.00310447 0.00877505 0.00207711 0.0291353 0.00384628 0.0160849 0.00382666 0.0290905 0.00453666 0.0187095 0.00518836 0.0485127
64 3 O 4.71833 10.8154 2.79288 -1.2 1 0.00300518 0.00356213 0.00151594 0.00434831 0.00224567 0.00800312 0.00227828 0.021473 0.00195787 0.00902659 0.00208561 0.0281434 0.00368516 0.0160242 0.00424934 0.0300442 0.00506793 0.0184305 0.00529043 0.0498047
65 1 Mg -1.0438 9.53931 4.4844 1.2 1 0.0035498 0.00457799 0.00140263 0.00446464 0.00281843 0.00661256 0.00270672 0.0209816 0.00272059 0.00830896 0.00266124 0.0285207 0.00408913 0.0167542 0.00506518 0.0296621 0.00625643 0.0199954 0.00690325 0.0498894
66 2 Si -2.8604 12.2234 4.4844 2.4 1 0.00398023 0.00430395 0.00182002 0.00430982 0.0025589 0.00758003 0.00298326 0.0214857 0.00273413 0.00843432 0.00248077 0.0279262 0.00431829 0.0166279 0.00479536 0.0299215 0.00575871 0.0192173 0.00627729 0.051408
67 3 O -2.91391 10.6102 4.4844 -1.2 1 0.00380941 0.00448189 0.00173901 0.00436585 0.00263836 0.00712647 0.00322035 0.0207623 0.0028325 0.00768676 0.0018274 0.0284459 0.0042506 0.0160298 0.00438537 0.0305886 0.0058197 0.019726 0.00672173 0.0506501
68 3 O 0.7596 13.1975 4.4844 -1.2 1 0.0044252 0.00400314 0.00176083 0.00468489 0.00267917 0.00842182 0.00255496 0.0221992 0.00252604 0.00831584 0.00286243 0.0283471 0.0040329 0.0162431 0.00435228 0.0298526 0.00574327 0.0194485 0.00671312 0.0512444
69 3 O -2.12001 12.9296 3.18632 -1.2 1 0.00399188 0.00375573 0.00188658 0.00410131 0.00249956 0.0074303 0.00246001 0.0217089 0.00243302 0.00844514 0.0021715 0.02762 0.00386354 0.0161056 0.0049454 0.0302333 0.0051045 0.0185156 0.00537724 0.0504819
70 3 O -2.16532 12.9296 5.78248 -1.2 1 0.004771 0.00439344 0.00171479 0.00405625 0.00264717 0.00666576 0.00242422 0.021855 0.00224147 0.00788321 0.00271792 0.0273717 0.00402143 0.0168233 0.00536101 0.0310192 0.00602906 0.021079 0.00665233 0.0529239
71 1 Mg 1.29891 11.8725 2.9896 1.2 1 0.00294924 0.00356378 0.00172386 0.00479246 0.00241042 0.00777325 0.00288138 0.0211558 0.00242745 0.00853404 0.00215957 0.0287884 0.00351044 0.0163118 0.0037575 0.0298279 0.00450995 0.0179892 0.00476891 0.0495595
72 1 Mg 4.10033 11.8312 4.4844 1.2 1 0.00378693 0.00371207 0.00190868 0.00404691 0.0024693 0.00714058 0.00254671 0.0215415 0.00252975 0.00827429 0.00259122 0.0285461 0.00390393 0.0171727 0.00531524 0.0301888 0.00635493 0.019482 0.00596631 0.0510593
73 2 Si 2.27333 13.896 4.4844 2.4 1 0.00434014 0.00343123 0.00140497 0.00478514 0.0030375 0.00778697 0.00308842 0.0218353 0.0022737 0.0082591 0.00280671 0.0279773 0.0038149 0.0165625 0.00459539 0.0299792 0.00548018 0.0186338 0.0062458 0.0520584
74 3 O 2.28634 15.5093 4.4844 -1.2 1 0.00454084 0.00377171 0.00159035 0.00441849 0.00303005 0.00711147 0.00291438 0.0211493 0.00228999 0.00779247 0.00221989 0.0280686 0.00379466 0.0160392 0.00406692 0.0304244 0.00556943 0.0187054 0.00633624 0.0517349
75 3 O -4.34533 12.922 4.4844 -1.2 1 0.0039496 0.00440566 0.00192076 0.00428952 0.00264995 0.00824528 0.00287704 0.0218016 0.00260273 0.00845299 0.00261839 0.0282629 0.00430738 0.0162908 0.00476125 0.0301193 0.00606912 0.0197711 0.00676229 0.0511411
76 3 O 2.98455 13.1899 3.18632 -1.2 1 0.00364512 0.00333887 0.00148258 0.00423369 0.00254901 0.00760728 0.00232474 0.0218465 0.00200974 0.00860529 0.00232123 0.027721 0.00357039 0.0162166 0.00457773 0.0300156 0.00549175 0.0182897 0.00549611 0.0504641
77 1 Mg 1.34779 11.8725 0 1.2 1 0.00116944 0.00293426 0.0011873 0.0048638 0.00158635 0.0088459 0.00167584 0.0212606 0.00116319 0.00921525 0.00201201 0.0290105 0.0029693 0.0150628 0.00325378 0.0298602 0.0034476 0.0172451 0.00361955 0.0472949
78 3 O 2.93934 13.1899 5.78248 -1.2 1 0.00450044 0.00428279 0.00171882 0.00438467 0.0026347 0.00686779 0.00265283 0.0220336 0.0024722 0.00832807 0.00317772 0.027027 0.00415953 0.0167238 0.00491054 0.0310158 0.00584224 0.0212944 0.00642928 0.0529065
79 1 Mg -1.50344 11.9138 1.4948 1.2 1 0.00163689 0.00345277 0.00150489 0.00440747 0.00168579 0.00802134 0.002103 0.0217354 0.00227436 0.00864225 0.00176845 0.0285656 0.00377087 0.016166 0.00362705 0.0296354 0.00319841 0.0176045 0.00363754 0.0487432
80 2 Si 0.326006 9.84894 1.4948 2.4 1 0.000859951 0.00328455 0.00117416 0.00496324 0.00193917 0.00810664 0.00208714 0.0211781 0.00224399 0.00851975 0.00171627 0.0284762 0.003243 0.0158456 0.00402146 0.0287263 0.00382259 0.0177489 0.00358913 0.0481794
81 3 O 0.317364 8.23571 1.4948 -1.2 1 0.00108696 0.00325164 0.00102605 0.00450068 0.00175915 0.00761607 0.00231978 0.0204051 0.00257861 0.00813223 0.00197785 0.0286793 0.00364489 0.0159282 0.00422679 0.0284541 0.00449838 0.0177647 0.0042358 0.0472693
82 3 O 6.94307 10.823 1.4948 -1.2 1 0.00178486 0.00362094 0.00147911 0.00444006 0.00186338 0.00755667 0.0025829 0.0218261 0.00233997 0.00854712 0.00161812 0.0293188 0.00319688 0.0159234 0.0036622 0.0298138 0.00371709 0.0180439 0.00420194 0.0487605
83 3 O -0.343122 10.5551 0.196716 -1.2 1 0.000843697 0.00300348 0.00113559 0.00469897 0.00165189 0.00832808 0.00192864 0.0213196 0.00178638 0.00898001 0.00195949 0.0281563 0.00354266 0.0156668 0.00438428 0.0291628 0.00357536 0.0174369 0.00380851 0.0478453
84 3 O -0.385966 10.5551 2.79288 -1.2 1 0.00301313 0.00379214 0.00122964 0.00450521 0.00250493 0.00778962 0.00230748 0.0216131 0.00202073 0.00929933 0.00242759 0.0276949 0.00398696 0.0160802 0.00448818 0.0297592 0.00493014 0.0187909 0.00491542 0.0495258
85 1 Mg 6.49448 14.247 0 1.2 1 0.00112688 0.00347941 0.00175828 0.00487902 0.00117652 0.00916526 0.00132711 0.0212828 0.00135749 0.00859747 0.00163727 0.0286996 0.00191971 0.0154917 0.00261936 0.0298911 0.00320506 0.0165239 0.00335524 0.0473452
86 1 Mg 3.74457 18.9547 1.4948 1.2 1 0.00246718 0.00292782 0.00127277 0.00396485 0.00186985 0.00846943 0.00146344 0.0224051 0.00194504 0.00816561 0.00222012 0.0276271 0.00260596 0.0165312 0.00355757 0.0286496 0.00372619 0.016295 0.00367527 0.0495985
87 2 Si 5.55495 16.2705 1.4948 2.4 1 0.00264559 0.00308541 0.00142336 0.00462273 0.00191584 0.00874501 0.00163327 0.0214811 0.00134861 0.00791109 0.00141394 0.0284984 0.00238702 0.0161979 0.00304106 0.0287814 0.00368051 0.0157532 0.00381937 0.0490026
88 3 O 5.6115 17.8838 1.4948 -1.2 1 0.00260022 0.002941 0.00150399 0.00425678 0.00182417 0.00902338 0.00166866 0.0217884 0.00197653 0.00797488 0.00153012 0.0286815 0.00222034 0.0163796 0.00282717 0.028809 0.00334318 0.015703 0.00375279 0.049151
89 3 O 1.93416 15.2965 1.4948 -1.2 1 0.00261095 0.00321921 0.00138977 0.00452794 0.0018718 0.00820405 0.00201798 0.0219535 0.00178312 0.00808917 0.00161688 0.0287911 0.00229017 0.0162042 0.00304497 0.0295848 0.00366925 0.0164908 0.00357517 0.0492394
90 3 O 4.85636 15.5644 0.196716 -1.2 1 0.00157331 0.00269767 0.00147457 0.004628 0.00129171 0.0090088 0.00149014 0.0214029 0.000972973 0.00822592 0.001754 0.0279284 0.00253831 0.0160472 0.00349284 0.0291903 0.00332272 0.0158488 0.00339407 0.0481955
91 1 Mg 6.44662 14.247 2.9896 1.2 1 0.00276933 0.00365813 0.00165102 0.00445401 0.00250303 0.0083504 0.00295034 0.0209066 0.00249418 0.00865214 0.00165323 0.0289236 0.00317001 0.0164328 0.00312731 0.0293911 0.00398717 0.0175458 0.00462046 0.0496489
92 3 O 4.81537 15.5644 2.79288 -1.2 1 0.00365333 0.00331048 0.0015428 0.00436523 0.00253648 0.00851726 0.00177376 0.0219203 0.00142365 0.00879588 0.00190864 0.0276365 0.00270909 0.0162943 0.00354698 0.0294383 0.00464422 0.0171695 0.00495598 0.050021
93 1 Mg -0.948271 14.2883 4.4844 1.2 1 0.00455322 0.00380262 0.00155975 0.0042203 0.00273557 0.00748329 0.0026138 0.0215153 0.00258555 0.00838199 0.00283778 0.0279712 0.0035988 0.0169615 0.00548164 0.0300883 0.00560659 0.0188636 0.00630182 0.0516583
94 2 Si -2.75928 16.9724 4.4844 2.4 1 0.00422787 0.00329929 0.00166253 0.00436184 0.00288728 0.00770478 0.00300156 0.0219539 0.00250472 0.00792522 0.00264085 0.0275691 0.00377111 0.016806 0.00448535 0.0291925 0.00468724 0.0182774 0.00557275 0.0522132
95 3 O -2.81617 15.3592 4.4844 -1.2 1 0.00465073 0.00373316 0.00180574 0.00418852 0.00293684 0.00739843 0.0028776 0.0210045 0.00246554 0.00758827 0.00217279 0.028079 0.00356476 0.0159419 0.00421712 0.030258 0.00545492 0.0185732 0.00642189 0.051605
96 3 O 0.862762 17.9465 4.4844 -1.2 1 0.00428121 0.00358294 0.00138087 0.00458751 0.00313295 0.00821425 0.00277143 0.0224582 0.0024316 0.00794938 0.00275614 0.0281359 0.00371784 0.0167463 0.00450652 0.0291382 0.00524142 0.018417 0.00603497 0.05208
97 3 O -2.0185 17.6786 3.18632 -1.2 1 0.00393388 0.00306921 0.00176037 0.00377447 0.00283253 0.0074763 0.00260562 0.0223357 0.00227596 0.00777295 0.00230394 0.0272697 0.00362511 0.0161627 0.00477592 0.0296131 0.00452456 0.0174808 0.00510555 0.0512319
98 3 O -2.06164 17.6786 5.78248 -1.2 1 0.00451222 0.00379412 0.00138112 0.00439738 0.0028167 0.00654285 0.0025365 0.0221211 0.00254403 0.0078193 0.00289436 0.0272133 0.00376294 0.0167897 0.00534852 0.0304756 0.00550102 0.0200481 0.00602979 0.0535746
99 1 Mg 1.39817 16.6215 2.9896 1.2 1 0.00338973 0.00337086 0.00152148 0.00446099 0.00262654 0.00824618 0.00259556 0.0212993 0.00250736 0.00820035 0.0021759 0.0284416 0.00284805 0.0164679 0.00362723 0.0292865 0.00400546 0.0165467 0.00452693 0.0499735
100 1 Mg 4.20062 16.5802 4.4844 1.2 1 0.00416305 0.00333056 0.00177056 0.00429837 0.00273236 0.00743192 0.00242416 0.0219091 0.00301362 0.00798106 0.00275179 0.0279389 0.00350065 0.0172027 0.00549998 0.029765 0.00600152 0.0185767 0.00578235 0.051816
101 2 Si 2.37796 18.645 4.4844 2.4 1 0.00380886 0.00302451 0.00146286 0.00456152 0.0030474 0.00766069 0.00273619 0.02263 0.00257872 0.00810547 0.0026544 0.0274211 0.00329586 0.0169818 0.00452378 0.0293349 0.00524621 0.017891 0.00553928 0.0529784
102 3 O 2.39434 20.2583 4.4844 -1.2 1 0.00374969 0.00327419 0.0013861 0.00422942 0.00301133 0.00661356 0.00270685 0.0217391 0.00275392 0.00758109 0.00203513 0.0283455 0.00349916 0.0165996 0.00422297 0.0299361 0.00562347 0.0180351 0.00618701 0.0525702
103 3 O -4.24274 17.671 4.4844 -1.2 1 0.00387852 0.00352201 0.00159733 0.00453184 0.0028267 0.00828398 0.002673 0.0224364 0.00275588 0.00798819 0.0026025 0.0281902 0.00378041 0.0165466 0.00486677 0.0295442 0.00566677 0.0187502 0.00625448 0.0517247
104 3 O 3.08659 17.9389 3.18632 -1.2 1 0.00362794 0.00290225 0.00126611 0.00397527 0.00269387 0.00766941 0.00194993 0.0222929 0.00222074 0.00819723 0.00223867 0.0272451 0.00306902 0.0162989 0.00441414 0.0295702 0.00520894 0.0174381 0.00557723 0.0509292
105 1 Mg 1.44478 16.6215 0 1.2 1 0.00194891 0.00283808 0.000981887 0.00441651 0.001283 0.00895762 0.00125202 0.0215642 0.00131184 0.00825089 0.00162451 0.0284868 0.00245666 0.015688 0.00261497 0.0291191 0.00318165 0.0159639 0.00339948 0.0480645
106 3 O 3.0436 17.9389 5.78248 -1.2 1 0.00416155 0.00345754 0.00153766 0.00465315 0.00281887 0.00666023 0.00250953 0.0225825 0.0022426 0.00806177 0.00302103 0.0272314 0.0035045 0.0169903 0.00509261 0.0306082 0.00559722 0.0206154 0.00588545 0.0536975
107 1 Mg -1.40524 16.6628 1.4948 1.2 1 0.002099 0.0032309 0.00113344 0.00443252 0.00181241 0.00865802 0.00215495 0.0221795 0.00178414 0.00816221 0.0020626 0.0280986 0.00326 0.0166217 0.00317748 0.0293748 0.00283177 0.0164389 0.00345498 0.0490576
108 2 Si 0.420358 14.5979 1.4948 2.4 1 0.00245639 0.0031954 0.00129111 0.00490209 0.00203571 0.00899786 0.00187707 0.0214033 0.00168266 0.00822829 0.00162447 0.02822 0.00310815 0.0164532 0.00383606 0.0287248 0.00340842 0.016359 0.00385915 0.0488221
109 3 O 0.408732 12.9847 1.4948 -1.2 1 0.00216627 0.00315022 0.00121791 0.00485237 0.00197865 0.00887605 0.00167625 0.0212302 0.00210409 0.0084316 0.00176525 0.0289004 0.00316034 0.016177 0.00335818 0.0296927 0.00310312 0.016894 0.00370537 0.0487958
110 3 O 7.03923 15.572 1.4948 -1.2 1 0.00251296 0.00354203 0.00143286 0.00451149 0.00200425 0.00817307 0.0023046 0.021778 0.00221989 0.00811934 0.00171477 0.0288744 0.00270777 0.0162576 0.00306175 0.0296028 0.00329909 0.0167273 0.00402585 0.0491905
111 3 O -0.248332 15.3041 0.196716 -1.2 1 0.00188197 0.00302674 0.00118953 0.00461071 0.00124381 0.00900948 0.0019599 0.0212603 0.00132613 0.00831658 0.00177643 0.0278857 0.00308259 0.0160066 0.00371104 0.0291567 0.00292183 0.0160323 0.00350134 0.04818
112 3 O -0.289436 15.3041 2.79288 -1.2 1 0.00403493 0.00356463 0.00129224 0.0043581 0.00259153 0.00848777 0.00212279 0.0219545 0.00176787 0.00858031 0.00198963 0.0271915 0.00320648 0.0164813 0.00383352 0.029408 0.00412964 0.0174482 0.00477993 0.0502344
113 1 Mg 6.59566 18.996 0 1.2 1 0.00106852 0.00292218 0.00145798 0.00421714 0.000872715 0.00862806 0.00115797 0.021991 0.00124238 0.00781429 0.00144081 0.0281045 0.00206301 0.0162875 0.00234899 0.0285354 0.00319588 0.0157958 0.00318725 0.048211
114 1 Mg 3.85574 23.7037 1.4948 1.2 1 0.0020673 0.00233392 0.0011349 0.00424021 0.00172737 0.00735502 0.00138624 0.0231928 0.00183482 0.00752086 0.00220673 0.027376 0.00258062 0.0173796 0.00375376 0.0285061 0.00352711 0.0168095 0.00379936 0.0506893
115 2 Si 5.66125 21.0195 1.4948 2.4 1 0.0022322 0.00229603 0.00101402 0.00417108 0.00187604 0.00816103 0.00162586 0.0219875 0.00149348 0.00768863 0.00146828 0.0281099 0.00248767 0.0171606 0.00275214 0.0280403 0.00357673 0.0155164 0.00420803 0.0499555
116 3 O 5.72074 22.6328 1.4948 -1.2 1 0.00244325 0.0022175 0.00146047 0.00407126 0.00174466 0.00812311 0.00172814 0.0224507 0.0019844 0.00739615 0.00139962 0.0280916 0.00231041 0.0171868 0.0029526 0.0282888 0.00342777 0.0160455 0.00405416 0.0501345
117 3 O 2.03867 20.0455 1.4948 -1.2 1 0.00229035 0.00291401 0.00128578 0.00426786 0.00170439 0.00772539 0.00202554 0.02251 0.00234004 0.00758249 0.00156324 0.0284 0.00221937 0.0169982 0.00275822 0.0289399 0.00344383 0.0160108 0.00366395 0.050115
118 3 O 4.96004 20.3134 0.196716 -1.2 1 0.00160417 0.00213996 0.001371 0.00411814 0.00124082 0.00839043 0.00112052 0.0219432 0.00104007 0.0075592 0.00178703 0.027669 0.00273853 0.0164045 0.00390007 0.0285575 0.0033128 0.0151564 0.00335269 0.0490162
119 1 Mg 6.55057 18.996 2.9896 1.2 1 0.00261842 0.00303481 0.00126506 0.00414594 0.00261665 0.00798818 0.00280263 0.0216458 0.00240269 0.00798887 0.00174259 0.0288504 0.00287062 0.0167424 0.00326496 0.0288472 0.00391201 0.0169006 0.00473126 0.0504694