ITEM: TIMESTEP
6300
ITEM: NUMBER OF ATOMS
10500
ITEM: BOX BOUNDS xy xz yz pp pp pp
0	15.2974	5.099
0	118.725	0
0	89.688	0
ITEM: ATOMS id type element xu yu zu q Q_1 Q_2 Q_3 Q_4 Q_5 Q_6 Q_7 Q_8 Q_9 Q_10 Q_11 Q_12 Q_13 Q_14 Q_15 Q_16 Q_17 Q_18 Q_19 Q_20 Q_21
1 1 Mg 6.2404 -6.37941e-06 0 1.2 1 0.00100769 0.00432298 0.00126446 0.00481592 0.00127472 0.00592695 0.00224313 0.0159664 0.00210275 0.00560621 0.00215803 0.0218513 0.00239423 0.0135081 0.00314026 0.0205874 0.00392077 0.0143381 0.00396526 0.0403198
2 1 Mg 3.46349 4.70768 1.4948 1.2 1 0.00128812 0.00327575 0.00165908 0.00442534 0.00183547 0.00635468 0.00352024 0.0184638 0.00288285 0.00681619 0.00287744 0.0257879 0.00323717 0.0139407 0.0044031 0.0252038 0.00540286 0.0172911 0.00596992 0.0438299
3 2 Si 5.2885 2.02354 1.4948 2.4 1 0.000580173 0.00332858 0.00199058 0.00457929 0.00182576 0.00591497 0.00259699 0.0169564 0.00248103 0.00612022 0.00217705 0.0232685 0.00263561 0.0135048 0.00356565 0.0214824 0.00381912 0.0155359 0.00459338 0.0411109
4 3 O 5.33628 3.63678 1.4948 -1.2 1 0.000795943 0.00274296 0.00166369 0.00479029 0.00205447 0.00652517 0.0029646 0.0175801 0.00232722 0.00660044 0.0020176 0.025157 0.00253175 0.01365 0.00419138 0.0239261 0.00510132 0.0165732 0.00603525 0.0427541
5 3 O 1.67294 1.04952 1.4948 -1.2 1 0.00144634 0.00333273 0.00203541 0.00420778 0.00130642 0.00586559 0.00244332 0.0167306 0.00233535 0.00587051 0.00196799 0.0226619 0.0025127 0.0128034 0.00310501 0.0218212 0.00466562 0.015701 0.00517352 0.0401842
6 3 O 4.59532 1.31737 0.196716 -1.2 1 0.0009947 0.00300119 0.00194217 0.0043128 0.00188355 0.00588566 0.00250396 0.0169647 0.00275133 0.00609469 0.00194696 0.0223043 0.00330705 0.012781 0.0040599 0.0214484 0.00402917 0.0149943 0.00454422 0.0406015
7 1 Mg 6.18956 -6.37941e-06 2.9896 1.2 1 0.000642867 0.00444748 0.00128498 0.00420173 0.00136171 0.00586702 0.00244693 0.0159 0.00268941 0.00543736 0.00170334 0.0220542 0.00287743 0.0131588 0.00363089 0.0204239 0.00449683 0.0149063 0.0051892 0.0385153
8 3 O 4.55118 1.31737 2.79288 -1.2 1 0.00119917 0.0040854 0.00167207 0.00424519 0.00192597 0.00591461 0.00264842 0.0166375 0.00244581 0.00676854 0.00221678 0.0216493 0.00333326 0.0121253 0.00315017 0.0214219 0.00485765 0.0155939 0.00576242 0.0395654
9 1 Mg -1.20682 0.0413099 4.4844 1.2 1 0.000720136 0.00309647 0.00132033 0.00461198 0.00124142 0.00583162 0.00213421 0.0160697 0.00204521 0.00583615 0.0021545 0.0222691 0.00280574 0.0116132 0.00365073 0.0206842 0.0055015 0.0158117 0.00553741 0.0386063
10 2 Si -3.0337 2.72544 4.4844 2.4 1 0.0010586 0.00324352 0.00157251 0.00499009 0.00222714 0.00637587 0.00326535 0.0164863 0.00324234 0.00620614 0.00232296 0.0236373 0.00311487 0.0129896 0.00391705 0.0221877 0.00553098 0.017828 0.00674576 0.0397267
11 3 O -3.08099 1.11221 4.4844 -1.2 1 0.000939379 0.00368006 0.00154848 0.00440606 0.00136169 0.00570313 0.0024329 0.0159483 0.00288456 0.00553747 0.00228123 0.0220292 0.00310894 0.0112786 0.00359705 0.0211306 0.00517494 0.0164675 0.0059053 0.0382316
12 3 O 0.582463 3.69946 4.4844 -1.2 1 0.00167165 0.00432134 0.00194364 0.00452001 0.00246232 0.00697313 0.0036777 0.0171005 0.00334269 0.00650806 0.00319689 0.0245702 0.0039629 0.0129504 0.00421125 0.0241413 0.00688596 0.0188749 0.00854628 0.0421075
13 3 O -2.29524 3.43162 3.18632 -1.2 1 0.000924486 0.00271612 0.00238043 0.004676 0.00213255 0.00634073 0.0029991 0.0176775 0.00322277 0.00661374 0.00262466 0.0244161 0.00322516 0.0129191 0.00461301 0.0240874 0.00607833 0.0181099 0.0069524 0.0420704
14 3 O -2.34216 3.43162 5.78248 -1.2 1 0.001924 0.00371889 0.00126431 0.0050566 0.00256404 0.0063355 0.00304099 0.0168322 0.00286128 0.00739061 0.00288583 0.0231875 0.00412831 0.0124417 0.00409966 0.023219 0.00653188 0.0196758 0.00801376 0.0408483
15 1 Mg 1.12778 2.37449 2.9896 1.2 1 0.0011984 0.00352736 0.00226745 0.00460359 0.00217349 0.00607987 0.00311039 0.01651 0.00262026 0.0060593 0.00233775 0.023435 0.00322154 0.0129219 0.00325488 0.0218495 0.00498069 0.0165914 0.00602248 0.040772
16 1 Mg 3.92855 2.33318 4.4844 1.2 1 0.00169446 0.004237 0.00165568 0.00416545 0.00162879 0.00614708 0.0034979 0.016683 0.00306963 0.00613284 0.00279795 0.022725 0.00362938 0.0132387 0.00501041 0.0219431 0.00647119 0.017525 0.00734011 0.0401201
17 2 Si 2.09341 4.39804 4.4844 2.4 1 0.00175557 0.00405206 0.00190502 0.00428034 0.00285531 0.00630893 0.00373386 0.0180317 0.00345786 0.0067374 0.00345371 0.0248609 0.00441318 0.0141352 0.00448886 0.0245685 0.00678026 0.0188432 0.00874151 0.0438763
18 3 O 2.09991 6.01128 4.4844 -1.2 1 0.00258342 0.00423825 0.00156544 0.00417144 0.00286854 0.00682047 0.00309772 0.0190499 0.002878 0.00726735 0.0032236 0.0266285 0.00398065 0.014332 0.00472203 0.0272127 0.00691569 0.0196767 0.00841258 0.0460288
19 3 O -4.52137 3.42402 4.4844 -1.2 1 0.00156892 0.00375758 0.0020423 0.00457729 0.00220312 0.00720864 0.00359786 0.0167366 0.00333225 0.00630035 0.0029624 0.0237331 0.00388451 0.012801 0.00407264 0.0226269 0.00632681 0.018152 0.00785763 0.0411439
20 3 O 2.80834 3.69187 3.18632 -1.2 1 0.00164096 0.0036648 0.00171834 0.00379021 0.00204651 0.00601735 0.00305246 0.0172361 0.00304864 0.00644461 0.00283491 0.0241739 0.00369483 0.0130858 0.00472826 0.0237817 0.00582705 0.0171905 0.00690509 0.0426256
21 1 Mg 1.17857 2.37449 0 1.2 1 0.00171942 0.00359649 0.00204303 0.00411629 0.0015233 0.00580848 0.00237464 0.0170295 0.00247246 0.00641164 0.00250852 0.0232424 0.00299592 0.0131975 0.00336124 0.021723 0.00424697 0.0150773 0.00500603 0.0407789
22 3 O 2.76143 3.69187 5.78248 -1.2 1 0.00231606 0.00420475 0.00175283 0.0043833 0.00198455 0.00597271 0.00267286 0.0174781 0.00318022 0.00726596 0.00292507 0.0232667 0.00462747 0.013239 0.00539491 0.0232427 0.00667572 0.019195 0.00781927 0.0417539
23 1 Mg -1.67381 2.41581 1.4948 1.2 1 0.00129251 0.00266363 0.00267155 0.00492736 0.00132434 0.00628893 0.00239834 0.0164999 0.00277765 0.00624252 0.00177094 0.0239521 0.00275736 0.0139463 0.00264456 0.0221377 0.00425499 0.0163437 0.00513512 0.041324
24 2 Si 0.16286 0.350945 1.4948 2.4 1 0.00145833 0.00266969 0.00280586 0.0046694 0.00140408 0.0065079 0.00281891 0.0163013 0.00200218 0.00511249 0.00186907 0.0226911 0.00233561 0.0134133 0.00298857 0.0206243 0.00467551 0.0150247 0.00472541 0.0399972
25 3 O 0.15972 -1.26229 1.4948 -1.2 1 0.00117893 0.00261741 0.00289141 0.00457082 0.00186346 0.00622641 0.00258941 0.0162851 0.00226059 0.00528102 0.00226091 0.0226833 0.00245595 0.0138211 0.00288545 0.0216842 0.00435894 0.0148386 0.00419152 0.0404673
26 3 O 6.77654 1.32496 1.4948 -1.2 1 0.00108035 0.00361446 0.00155063 0.00471051 0.00128382 0.00617927 0.00232351 0.016644 0.00246927 0.00543988 0.0017257 0.023679 0.00263879 0.0135078 0.00352789 0.0218 0.00463703 0.015429 0.00471592 0.0405496
27 3 O -0.508028 1.05712 0.196716 -1.2 1 0.001023 0.00288177 0.00335293 0.00411754 0.00140649 0.00572509 0.00241357 0.0169213 0.00180364 0.00651435 0.00256151 0.0221003 0.00271718 0.0128901 0.00291766 0.0211628 0.00415645 0.0152915 0.00448852 0.0399582
28 3 O -0.552171 1.05712 2.79288 -1.2 1 0.00066952 0.00238265 0.00288823 0.00459922 0.00146579 0.00630635 0.00244521 0.0160423 0.00240993 0.00612142 0.00166812 0.0227103 0.00293313 0.0117355 0.00378571 0.0215246 0.0053944 0.0159501 0.00520469 0.0394673
29 1 Mg 6.31713 4.74899 0 1.2 1 0.00084652 0.00267829 0.00188994 0.00474318 0.00223688 0.00632051 0.00323602 0.0178537 0.00280817 0.00693802 0.00216807 0.0253106 0.002959 0.0137252 0.00413444 0.0245643 0.00456179 0.0165495 0.00614311 0.0428782
30 1 Mg 3.54847 9.45668 1.4948 1.2 1 0.00160091 0.003156 0.0019118 0.00468462 0.0020596 0.00787245 0.00300436 0.0213766 0.00174448 0.00833297 0.00216326 0.0285794 0.00316786 0.015612 0.00387393 0.0290658 0.00441588 0.0183025 0.0040952 0.0489893
31 2 Si 5.36879 6.77254 1.4948 2.4 1 0.000615157 0.00279274 0.00191263 0.00514099 0.00252301 0.00711011 0.00372236 0.0195625 0.00276463 0.0077445 0.00257571 0.027646 0.00317184 0.0152718 0.00414058 0.0268211 0.00481621 0.0175027 0.00542518 0.046653
32 3 O 5.41937 8.38578 1.4948 -1.2 1 0.00103084 0.00308588 0.00175592 0.0050155 0.00218728 0.0079008 0.00313589 0.0209594 0.00225719 0.00828147 0.00222584 0.0289972 0.00245719 0.0155554 0.00302989 0.0289822 0.00469698 0.0176085 0.00505844 0.0482196
33 3 O 1.75158 5.79852 1.4948 -1.2 1 0.00108174 0.00345428 0.00180053 0.00402932 0.00233566 0.0062753 0.00327791 0.0194044 0.0027784 0.00717686 0.00263565 0.0278498 0.00293996 0.0154067 0.00357443 0.0267444 0.00550032 0.0177563 0.0058456 0.0456598
34 3 O 4.67421 6.06637 0.196716 -1.2 1 0.000618844 0.00284181 0.00160168 0.00488298 0.00194296 0.00708133 0.00293504 0.0196931 0.00248446 0.00813818 0.002162 0.0262925 0.0035914 0.0143359 0.00421953 0.0265887 0.00473155 0.0168623 0.00557249 0.0451425
35 1 Mg 6.26654 4.74899 2.9896 1.2 1 0.00161417 0.00288921 0.00206021 0.00498497 0.00249783 0.00681197 0.00378862 0.017828 0.00374906 0.00701156 0.0021788 0.0258374 0.00371358 0.0143459 0.00499041 0.0248323 0.00599071 0.0178082 0.0073313 0.0437264
36 3 O 4.63043 6.06637 2.79288 -1.2 1 0.0019678 0.00338744 0.00167673 0.00484747 0.00221253 0.00696259 0.00339667 0.019276 0.00344712 0.00787258 0.00243531 0.0261676 0.00408235 0.0144763 0.00449511 0.0272015 0.00607807 0.0184878 0.00725732 0.0456372
37 1 Mg -1.12976 4.79031 4.4844 1.2 1 0.00176015 0.00381138 0.0015521 0.00494485 0.00233192 0.00655541 0.0034265 0.0178199 0.00339772 0.00709066 0.00316967 0.0258805 0.00418168 0.0142815 0.00455324 0.0254873 0.007584 0.0195012 0.00856121 0.0444725
38 2 Si -2.9517 7.47444 4.4844 2.4 1 0.00237986 0.00400592 0.00136048 0.00518618 0.00299333 0.00692345 0.00371944 0.0201688 0.00328038 0.00772463 0.00318817 0.0274631 0.00447507 0.0157285 0.00548571 0.0277091 0.00711342 0.0197089 0.00854219 0.0482548
39 3 O -3.00198 5.86121 4.4844 -1.2 1 0.00198901 0.00411269 0.0012354 0.00511525 0.0032273 0.00668872 0.00408918 0.0187138 0.0036233 0.00755533 0.00281777 0.0258071 0.00444684 0.0140085 0.00473244 0.0266333 0.0071926 0.0201078 0.00876126 0.0458757
40 3 O 0.666315 8.44846 4.4844 -1.2 1 0.00297446 0.00477732 0.00145305 0.004949 0.0030352 0.00771718 0.00272356 0.0211498 0.00308614 0.00773945 0.00329302 0.0282268 0.00449909 0.0156641 0.00433872 0.0288562 0.00632035 0.0203374 0.00817815 0.049458
41 3 O -2.21213 8.18062 3.18632 -1.2 1 0.0022636 0.00402444 0.00163632 0.00460955 0.00261365 0.00666333 0.00285878 0.0206886 0.00291005 0.00800923 0.00295875 0.0277046 0.00418292 0.0157372 0.00494051 0.0286918 0.00596752 0.0190331 0.00714257 0.0490595
42 3 O -2.25864 8.18062 5.78248 -1.2 1 0.00315905 0.0044783 0.00174731 0.00494428 0.00313388 0.00637631 0.00288577 0.0207328 0.0025689 0.00852705 0.00365752 0.0268515 0.0045916 0.0163558 0.00536583 0.029015 0.00736521 0.0214273 0.00843072 0.0502749
43 1 Mg 1.20893 7.12349 2.9896 1.2 1 0.00178228 0.00382051 0.0018 0.00441913 0.00276499 0.00704668 0.00370654 0.0195453 0.00289672 0.0079244 0.00268123 0.0279618 0.00357946 0.0156245 0.00389126 0.0273798 0.00575043 0.0187247 0.00675653 0.0470431
44 1 Mg 4.00982 7.08218 4.4844 1.2 1 0.00254677 0.00408737 0.00156947 0.0048325 0.00266809 0.0067262 0.00363399 0.0199519 0.00366678 0.00753504 0.00326403 0.0271727 0.00428527 0.0163775 0.00560401 0.0279088 0.00740059 0.0197554 0.00875605 0.0477169
45 2 Si 2.17861 9.14704 4.4844 2.4 1 0.00261882 0.00429655 0.00170555 0.00497397 0.00294904 0.00763154 0.0035082 0.0211754 0.00292345 0.00810552 0.00327672 0.0281251 0.00477726 0.0164203 0.00455156 0.0293558 0.00603547 0.0201436 0.00737329 0.0509372
46 3 O 2.18828 10.7603 4.4844 -1.2 1 0.00333144 0.0045874 0.00195325 0.00471311 0.00270211 0.00733977 0.00276273 0.0210149 0.00248584 0.00800464 0.00243064 0.0286938 0.00427659 0.0155243 0.00452429 0.0304594 0.00607618 0.020222 0.00699449 0.0517807
47 3 O -4.43805 8.17302 4.4844 -1.2 1 0.00198934 0.00446648 0.00183252 0.00521601 0.00259912 0.00793894 0.00312181 0.0207646 0.00335331 0.00810833 0.00332117 0.0285036 0.00482122 0.0159105 0.00500752 0.0290754 0.00699136 0.0198671 0.00903606 0.0492756
48 3 O 2.89193 8.44087 3.18632 -1.2 1 0.00264999 0.00378954 0.0017043 0.00436953 0.00237655 0.00717624 0.00329062 0.0204975 0.00294367 0.00839661 0.00290422 0.0275317 0.00392023 0.0156456 0.00461698 0.0289155 0.00602485 0.0192044 0.00628882 0.0489123
49 1 Mg 1.25915 7.12349 0 1.2 1 0.000663807 0.00304354 0.0014063 0.00427684 0.00179831 0.00736442 0.00286221 0.0202478 0.00269259 0.00825225 0.00234787 0.0276328 0.00330532 0.0142763 0.00335644 0.0275444 0.0044435 0.0175207 0.00440722 0.0460539
50 3 O 2.84547 8.44087 5.78248 -1.2 1 0.00304436 0.00481586 0.00145272 0.00478925 0.0027368 0.00683676 0.00292005 0.0210355 0.00312805 0.00861647 0.00354768 0.0268699 0.00541644 0.0161655 0.00532941 0.0292921 0.00644245 0.0217602 0.00797417 0.0505664
51 1 Mg -1.59284 7.16481 1.4948 1.2 1 0.00102876 0.00320589 0.00147676 0.00471149 0.0017743 0.00662206 0.00277087 0.0199023 0.00286961 0.00782226 0.00171647 0.0277523 0.00345792 0.0154671 0.00375248 0.0270924 0.00472323 0.0178898 0.0058395 0.0467494
52 2 Si 0.240329 5.09994 1.4948 2.4 1 0.00102955 0.00359385 0.0020795 0.004171 0.00183818 0.00697223 0.00309142 0.0188473 0.00310587 0.00720667 0.00229828 0.0260353 0.0028858 0.0145191 0.00420452 0.0247501 0.00519515 0.0171249 0.00554787 0.0447241
53 3 O 0.234538 3.48671 1.4948 -1.2 1 0.00152264 0.00354783 0.00259629 0.00439986 0.00174677 0.00665204 0.00265249 0.0177923 0.00330071 0.00682164 0.00227286 0.0245399 0.00336853 0.0135833 0.0038003 0.0239651 0.00546245 0.016268 0.00573461 0.0423651
54 3 O 6.85564 6.07396 1.4948 -1.2 1 0.00103874 0.00255786 0.00220631 0.00492341 0.0022322 0.00636588 0.0031587 0.0197675 0.00304736 0.00741519 0.00211253 0.0276947 0.00339516 0.0146646 0.00474888 0.0268108 0.00564487 0.0178569 0.00656077 0.045563
55 3 O -0.429565 5.80612 0.196716 -1.2 1 0.000789669 0.00321153 0.00222028 0.00425299 0.0017122 0.00736562 0.00253283 0.0195069 0.00294485 0.00832648 0.00246072 0.0256721 0.00261248 0.0142129 0.00386281 0.0257995 0.0048844 0.0169333 0.00583595 0.0451484
56 3 O -0.473377 5.80612 2.79288 -1.2 1 0.001721 0.00334973 0.00180026 0.00454424 0.00225821 0.00708981 0.00321743 0.0191704 0.00320703 0.00789548 0.0029185 0.0259163 0.00384345 0.0145365 0.00445877 0.0262385 0.00653092 0.0189028 0.0072055 0.0460277
57 1 Mg 6.40169 9.49799 0 1.2 1 0.000321602 0.00401203 0.00155814 0.00485253 0.00161994 0.00849617 0.00204246 0.0211579 0.00176679 0.00886464 0.00160179 0.0288071 0.00241725 0.0148065 0.00264354 0.0297183 0.00365529 0.0181237 0.00413651 0.0475666
58 1 Mg 3.64209 14.2057 1.4948 1.2 1 0.00224635 0.00302945 0.00173806 0.00456689 0.00167421 0.00895967 0.00169421 0.0217519 0.00156446 0.00862013 0.00211648 0.0282755 0.00255432 0.0161957 0.00302542 0.0293285 0.00367509 0.0169218 0.00349487 0.049709
59 2 Si 5.45748 11.5215 1.4948 2.4 1 0.00206249 0.00330927 0.00191291 0.00469132 0.00177884 0.0084751 0.00207362 0.0212321 0.00158144 0.00825804 0.00162895 0.0287788 0.00268909 0.0162015 0.00340419 0.0291077 0.00427031 0.0171119 0.00386191 0.0494677
60 3 O 5.51101 13.1348 1.4948 -1.2 1 0.00244927 0.00333493 0.00195467 0.00473727 0.0015506 0.00932645 0.00188494 0.0212377 0.00173967 0.00855298 0.00146509 0.0293262 0.00212173 0.0161818 0.00280456 0.0297848 0.00391983 0.0166706 0.00359134 0.0493835
61 3 O 1.83851 10.5475 1.4948 -1.2 1 0.00143653 0.00355874 0.00177639 0.00492096 0.00181773 0.00805015 0.0023181 0.0216246 0.00169432 0.00833954 0.00204399 0.0294304 0.00255199 0.0157337 0.00325227 0.0297781 0.0043584 0.0180192 0.00363799 0.0494862
62 3 O 4.7611 10.8154 0.196716 -1.2 1 0.00087474 0.00314373 0.00190322 0.00472775 0.00167731 0.00870741 0.00219084 0.0214002 0.00146321 0.00873686 0.00184095 0.0283841 0.00300283 0.0156653 0.00386248 0.0293119 0.00386816 0.0172944 0.0035634 0.0486507
63 1 Mg 6.35203 9.49799 2.9896 1.2 1 0.00162081 0.0038855 0.00169885 0.00483437 0.00253066 0.00773011 0.0033645 0.0204081 0.00310939 0.00837873 0.00205271 0.0292117 0.00376397 0.0160566 0.00341938 0.0290635 0.00447959 0.0186063 0.00583099 0.049207
64 3 O 4.71833 10.8154 2.79288 -1.2 1 0.00261737 0.0036546 0.0017218 0.00463647 0.00221802 0.00840988 0.00207737 0.0213375 0.00224643 0.00874729 0.00216058 0.0283265 0.00351322 0.0158175 0.00398088 0.0300596 0.0052948 0.0184234 0.0057843 0.050495
65 1 Mg -1.0438 9.53931 4.4844 1.2 1 0.00312624 0.00472742 0.00188884 0.00463943 0.00305431 0.00712052 0.00264362 0.0208566 0.00287565 0.00813075 0.00296075 0.0284794 0.00394418 0.0163797 0.00456748 0.0296559 0.0066751 0.0203361 0.00747791 0.0509138
66 2 Si -2.8604 12.2234 4.4844 2.4 1 0.00331098 0.00442333 0.00180544 0.00456906 0.00266191 0.00787841 0.00278221 0.0218939 0.00277333 0.00825419 0.00245293 0.0281534 0.00426495 0.0165705 0.0043514 0.0299935 0.0058734 0.0196021 0.00682187 0.052745
67 3 O -2.91391 10.6102 4.4844 -1.2 1 0.00336381 0.00448531 0.00191218 0.00462083 0.0028491 0.00732159 0.00309097 0.0207451 0.00261736 0.00770112 0.00232508 0.0285648 0.00428133 0.0158543 0.00428113 0.0305099 0.00617194 0.0201157 0.00713085 0.0516056
68 3 O 0.7596 13.1975 4.4844 -1.2 1 0.00330452 0.00435262 0.00200003 0.00512696 0.00284092 0.00873451 0.00255973 0.022322 0.00291103 0.00826074 0.00295645 0.0285454 0.00435538 0.0163255 0.00430311 0.030007 0.00609281 0.0197315 0.0068094 0.05226
69 3 O -2.12001 12.9296 3.18632 -1.2 1 0.00352868 0.00405834 0.00178161 0.00424949 0.00241478 0.00778595 0.0021328 0.0218166 0.00236041 0.00837792 0.00252757 0.0277544 0.00371634 0.0163073 0.00467795 0.0304357 0.0053568 0.0187553 0.00554833 0.0514939
70 3 O -2.16532 12.9296 5.78248 -1.2 1 0.00399434 0.00471125 0.0017651 0.00462109 0.00282153 0.00707461 0.00215481 0.022113 0.0026921 0.00826161 0.00293127 0.0276073 0.00414053 0.0169054 0.00464479 0.0309183 0.00640865 0.0213443 0.00708136 0.0545005
71 1 Mg 1.29891 11.8725 2.9896 1.2 1 0.00275125 0.00358296 0.00187963 0.00493612 0.00247487 0.00817116 0.00276584 0.0211664 0.00237213 0.00846039 0.00188171 0.0291776 0.00328459 0.0161414 0.00342319 0.0298931 0.00469904 0.0179631 0.00514419 0.0503309
72 1 Mg 4.10033 11.8312 4.4844 1.2 1 0.00317589 0.00394281 0.00199936 0.00453248 0.00245446 0.0073928 0.00245989 0.0214598 0.00258506 0.00825941 0.00294855 0.0287469 0.00398382 0.0170352 0.00521527 0.0302513 0.00655883 0.0196267 0.00663863 0.0520301
73 2 Si 2.27333 13.896 4.4844 2.4 1 0.00325785 0.00363946 0.00182076 0.00517619 0.00293626 0.00808879 0.00298761 0.0220099 0.0024832 0.00826977 0.00294968 0.027976 0.0038767 0.0167075 0.00434536 0.0299016 0.0054842 0.0189936 0.00630149 0.0532998
74 3 O 2.28634 15.5093 4.4844 -1.2 1 0.00356227 0.00422393 0.00189345 0.00448145 0.0028644 0.00740111 0.00266386 0.021116 0.00263694 0.00771315 0.00231588 0.0284779 0.00374094 0.0158425 0.00403743 0.0304368 0.00566136 0.0188433 0.00613634 0.0527022
75 3 O -4.34533 12.922 4.4844 -1.2 1 0.00308588 0.0043636 0.00209129 0.00485075 0.0027337 0.00852664 0.00288757 0.0220485 0.00287645 0.00836751 0.00273166 0.0285044 0.0041444 0.0164957 0.00465496 0.0303124 0.00630074 0.0200663 0.00717065 0.0525101
76 3 O 2.98455 13.1899 3.18632 -1.2 1 0.00314803 0.00353343 0.00171946 0.00453813 0.0024317 0.00800132 0.00196059 0.0219294 0.00215884 0.00860998 0.00239085 0.0279293 0.00349838 0.0159325 0.00441542 0.0300939 0.00554291 0.0185229 0.00571564 0.0512162
77 1 Mg 1.34779 11.8725 0 1.2 1 0.00117733 0.00298061 0.00126459 0.00476206 0.00147809 0.00915903 0.00159521 0.0213079 0.00119498 0.00917319 0.00185151 0.0290043 0.00270028 0.0150419 0.00291963 0.0300013 0.00318739 0.0172927 0.00330887 0.048348
78 3 O 2.93934 13.1899 5.78248 -1.2 1 0.00338734 0.00456775 0.00176729 0.00477961 0.00264633 0.00723685 0.00238683 0.0220245 0.00259593 0.00818829 0.00312338 0.0273536 0.00446239 0.0164629 0.00441779 0.0309486 0.00629828 0.0215149 0.00677103 0.0546586
79 1 Mg -1.50344 11.9138 1.4948 1.2 1 0.00161991 0.00384558 0.00149148 0.00462923 0.00146227 0.00848175 0.00188297 0.0216912 0.00235087 0.00852489 0.00153081 0.0287123 0.00351357 0.0161293 0.00328809 0.0296687 0.0035252 0.017641 0.00385139 0.0494125
80 2 Si 0.326006 9.84894 1.4948 2.4 1 0.000910298 0.00365806 0.00128045 0.00500262 0.0018899 0.00836022 0.00207916 0.0210725 0.00212516 0.00839772 0.0015436 0.0286474 0.00289555 0.0156396 0.00351852 0.0290053 0.00389652 0.01791 0.00372563 0.0487664
81 3 O 0.317364 8.23571 1.4948 -1.2 1 0.00144775 0.00365663 0.00120067 0.00450989 0.00189626 0.00801485 0.00221434 0.0202884 0.00260081 0.00789068 0.00169286 0.028674 0.00341063 0.0157013 0.00390491 0.0286108 0.00461951 0.0179016 0.00442122 0.0477899
82 3 O 6.94307 10.823 1.4948 -1.2 1 0.00151168 0.00381468 0.00166842 0.00455188 0.00187607 0.00796611 0.00250154 0.0218811 0.00233121 0.00831733 0.00145469 0.0294895 0.00305574 0.0158611 0.0034031 0.0298026 0.00387064 0.018054 0.00423659 0.0494083
83 3 O -0.343122 10.5551 0.196716 -1.2 1 0.000819873 0.00340286 0.00121909 0.00475885 0.00159922 0.00882628 0.00194433 0.0213908 0.00170676 0.00901279 0.00196607 0.0281858 0.00328689 0.0153437 0.00405771 0.0294292 0.0035642 0.0175191 0.00362028 0.0485727
84 3 O -0.385966 10.5551 2.79288 -1.2 1 0.00289815 0.00387565 0.00141093 0.00462319 0.00253261 0.00826781 0.0022482 0.0215598 0.0021842 0.00903548 0.0022881 0.0277985 0.00390135 0.0159534 0.00429684 0.0298584 0.0053221 0.0189105 0.00529039 0.0502669
85 1 Mg 6.49448 14.247 0 1.2 1 0.00144253 0.00355999 0.00182087 0.00476199 0.00126744 0.00939172 0.00128812 0.0213052 0.00109713 0.00854361 0.00146422 0.0287836 0.00170623 0.0155733 0.00247471 0.0298002 0.00324782 0.0165743 0.00291709 0.0483841
86 1 Mg 3.74457 18.9547 1.4948 1.2 1 0.00255013 0.00302852 0.00161823 0.00391998 0.00170734 0.00858689 0.00118794 0.0222394 0.00189648 0.0080501 0.00215292 0.0273816 0.0025086 0.0165582 0.003462 0.0287652 0.00359691 0.0163415 0.00330164 0.0501084
87 2 Si 5.55495 16.2705 1.4948 2.4 1 0.00258205 0.00285797 0.00174431 0.0044704 0.00179098 0.00908923 0.00145643 0.0214159 0.00135749 0.00793431 0.00122167 0.0285221 0.00227606 0.0162742 0.00291455 0.0287592 0.00371916 0.0158089 0.00366348 0.0497147
88 3 O 5.6115 17.8838 1.4948 -1.2 1 0.00254428 0.00309209 0.0017972 0.0042155 0.00159132 0.00922664 0.00139416 0.0216913 0.00175689 0.00785619 0.00137668 0.0284266 0.00214705 0.0164683 0.00288477 0.0289739 0.00334802 0.0157398 0.00357943 0.0498724
89 3 O 1.93416 15.2965 1.4948 -1.2 1 0.00238261 0.00305171 0.00177128 0.00456669 0.00163419 0.00847563 0.00180594 0.0219564 0.00186075 0.00802314 0.00139164 0.0289172 0.00213636 0.0161781 0.00306521 0.0295132 0.00380159 0.0166065 0.00329037 0.0501006
90 3 O 4.85636 15.5644 0.196716 -1.2 1 0.00199216 0.00260187 0.00168077 0.00454714 0.00142105 0.00934165 0.00130012 0.0214649 0.000881327 0.00827593 0.00163577 0.0279332 0.00253055 0.0161541 0.00347771 0.0290656 0.0034063 0.0158087 0.00304473 0.0490965
91 1 Mg 6.44662 14.247 2.9896 1.2 1 0.00219744 0.00367522 0.0017634 0.00453514 0.00241768 0.00865377 0.00279919 0.0209222 0.00252559 0.00865722 0.00182906 0.0291745 0.00328914 0.0164198 0.00309799 0.0295165 0.00417372 0.0176013 0.00467576 0.0503129
92 3 O 4.81537 15.5644 2.79288 -1.2 1 0.00298666 0.00314749 0.00171071 0.00440192 0.00223938 0.008778 0.00159829 0.021829 0.0016219 0.00863391 0.00168744 0.0278874 0.00286587 0.016331 0.00340703 0.0296541 0.0047765 0.0172506 0.00500477 0.0507648
93 1 Mg -0.948271 14.2883 4.4844 1.2 1 0.00378271 0.00401559 0.00172937 0.00443406 0.00266134 0.00785317 0.0024577 0.0216634 0.00295388 0.00822324 0.00303776 0.0282086 0.00361126 0.0166885 0.00512555 0.03025 0.00608503 0.0191092 0.00639525 0.0525283
94 2 Si -2.75928 16.9724 4.4844 2.4 1 0.00330434 0.00372494 0.00175841 0.00451711 0.00265527 0.00789057 0.00269425 0.021902 0.0027086 0.00782595 0.00273644 0.0276734 0.00361632 0.0169545 0.00450947 0.0296527 0.00526812 0.0184614 0.00605656 0.0533568
95 3 O -2.81617 15.3592 4.4844 -1.2 1 0.00368121 0.00410874 0.00204361 0.0044182 0.00300253 0.00772604 0.00296918 0.0211096 0.00273016 0.00772453 0.00217778 0.0285015 0.00375174 0.0161978 0.00391009 0.030332 0.00588429 0.0186593 0.00654265 0.052593
96 3 O 0.862762 17.9465 4.4844 -1.2 1 0.00316153 0.00400754 0.00164055 0.00457756 0.00288919 0.00849451 0.00242444 0.02222 0.00253788 0.00772802 0.00257452 0.0281045 0.00368408 0.0166949 0.00409413 0.0293054 0.00564143 0.0188019 0.00586106 0.0531543
97 3 O -2.0185 17.6786 3.18632 -1.2 1 0.00323387 0.00332137 0.00209874 0.00389599 0.00241514 0.00764329 0.00225124 0.0221812 0.00241638 0.00790402 0.00208965 0.0272487 0.00351861 0.0162409 0.00437173 0.0297038 0.00482811 0.0176249 0.00508367 0.0518073
98 3 O -2.06164 17.6786 5.78248 -1.2 1 0.00360748 0.00411026 0.00153848 0.0043511 0.00292985 0.00693866 0.00238868 0.0223258 0.00254514 0.00781279 0.0026884 0.0270664 0.00355303 0.016915 0.00474945 0.0307777 0.0056017 0.0208917 0.0058168 0.0549627
99 1 Mg 1.39817 16.6215 2.9896 1.2 1 0.00312551 0.00334225 0.00192608 0.00458065 0.00246034 0.0084015 0.00256065 0.0213213 0.00262083 0.00820071 0.00200879 0.0286807 0.00282674 0.0165918 0.00321825 0.0293208 0.00419 0.0166986 0.00432549 0.0506836
100 1 Mg 4.20062 16.5802 4.4844 1.2 1 0.0033611 0.00366758 0.00201236 0.00436496 0.00269074 0.00772515 0.00230569 0.0217471 0.0031046 0.00774383 0.00290674 0.0279925 0.0035817 0.0171535 0.00525934 0.0300112 0.0063052 0.0188153 0.00614932 0.0529501
101 2 Si 2.37796 18.645 4.4844 2.4 1 0.00297176 0.00357095 0.00166086 0.00447722 0.0029432 0.00797369 0.00280889 0.0223388 0.00261392 0.0078763 0.00243047 0.0276341 0.00363314 0.017097 0.00431335 0.0292981 0.00507337 0.0182288 0.00552114 0.0534875
102 3 O 2.39434 20.2583 4.4844 -1.2 1 0.00304667 0.0038242 0.00151623 0.00436803 0.00299415 0.00699182 0.0026588 0.0212435 0.00279217 0.0074002 0.00199537 0.0281645 0.00333769 0.0166344 0.00391422 0.0297757 0.00536561 0.0181645 0.00635843 0.052919
103 3 O -4.24274 17.671 4.4844 -1.2 1 0.00309729 0.0041704 0.00185426 0.00467859 0.00273221 0.00868718 0.00272151 0.0222023 0.00288965 0.00790779 0.00273275 0.0282387 0.0035254 0.016667 0.00476425 0.029543 0.00588258 0.0189081 0.00632105 0.052819
104 3 O 3.08659 17.9389 3.18632 -1.2 1 0.00315392 0.00331005 0.00168121 0.00406012 0.00256647 0.0078632 0.00189088 0.0220707 0.00232686 0.00795068 0.00218513 0.0273185 0.00323064 0.0164723 0.00409447 0.0295112 0.00522227 0.0174079 0.00535523 0.0519342
105 1 Mg 1.44478 16.6215 0 1.2 1 0.0024334 0.00277326 0.00139224 0.00429388 0.00132957 0.00905774 0.00103058 0.021582 0.00128046 0.00826312 0.00149801 0.0284928 0.0023048 0.0159426 0.00238717 0.0290993 0.0029235 0.0159673 0.00288992 0.0488899
106 3 O 3.0436 17.9389 5.78248 -1.2 1 0.00290403 0.00406709 0.00164881 0.00460283 0.00281517 0.00700088 0.00207755 0.0221264 0.00230076 0.00784222 0.00298794 0.0270704 0.00364798 0.0165062 0.00483565 0.0304816 0.00562477 0.0209164 0.00614066 0.0548834
107 1 Mg -1.40524 16.6628 1.4948 1.2 1 0.00221267 0.00321119 0.00169803 0.0044178 0.00154476 0.00880401 0.00180185 0.0222208 0.00181724 0.00818153 0.00187837 0.0280496 0.00309154 0.0168227 0.00293302 0.0292713 0.00295496 0.0165523 0.00318543 0.0498897
108 2 Si 0.420358 14.5979 1.4948 2.4 1 0.00234924 0.00307847 0.00172434 0.00488054 0.00187885 0.00922181 0.00176915 0.0215359 0.00148917 0.00823693 0.00145254 0.0283578 0.00288537 0.016534 0.00357056 0.0286204 0.00359806 0.0164535 0.00353783 0.0496668
109 3 O 0.408732 12.9847 1.4948 -1.2 1 0.00222053 0.00315088 0.00135943 0.00488709 0.00179136 0.00930433 0.00150594 0.0211904 0.00204557 0.00841958 0.00144342 0.029121 0.00297685 0.0160109 0.00305654 0.0296424 0.00330279 0.0168867 0.00367148 0.0494584
110 3 O 7.03923 15.572 1.4948 -1.2 1 0.00228949 0.00331189 0.00168388 0.0045142 0.00179036 0.00841763 0.00213703 0.0217833 0.00211003 0.00806612 0.00152662 0.0289849 0.00270572 0.0163685 0.00302405 0.0296276 0.00351385 0.0167508 0.00384743 0.0499048
111 3 O -0.248332 15.3041 0.196716 -1.2 1 0.00215205 0.00286269 0.00141499 0.00458041 0.00120278 0.00917989 0.00182579 0.0213651 0.0012447 0.0082875 0.00165097 0.0280335 0.00288004 0.0161248 0.00364403 0.0290426 0.0030358 0.0159797 0.00304431 0.0490356
112 3 O -0.289436 15.3041 2.79288 -1.2 1 0.00355791 0.00353855 0.00155051 0.00447924 0.00235802 0.00874366 0.00186772 0.021955 0.00186088 0.00849128 0.00198277 0.027515 0.00297829 0.0162554 0.00354635 0.0296697 0.00451006 0.0176211 0.00469633 0.0510853
113 1 Mg 6.59566 18.996 0 1.2 1 0.00154202 0.00329831 0.00179555 0.00419107 0.000933961 0.00875744 0.00106204 0.0219233 0.00107516 0.00778686 0.00148423 0.0278892 0.00194827 0.0164288 0.00228524 0.0285309 0.00287065 0.0157999 0.0027993 0.0488284
114 1 Mg 3.85574 23.7037 1.4948 1.2 1 0.00205202 0.00286628 0.00131471 0.00410461 0.00145041 0.00743239 0.00099964 0.023119 0.00174829 0.00754519 0.00215017 0.0269396 0.00228972 0.0175957 0.0035694 0.0285606 0.00351408 0.0170927 0.00374643 0.0510828
115 2 Si 5.66125 21.0195 1.4948 2.4 1 0.00232522 0.00269085 0.00143054 0.00414262 0.00185347 0.00824119 0.00146572 0.0218791 0.0013962 0.00745747 0.00143427 0.0277228 0.00238482 0.0173927 0.00271409 0.0281648 0.00360524 0.0157247 0.00415838 0.0504784
116 3 O 5.72074 22.6328 1.4948 -1.2 1 0.00230966 0.00288239 0.00176099 0.00401233 0.00165519 0.00821573 0.00158045 0.0222516 0.00181827 0.00732197 0.00129368 0.0276972 0.00198021 0.0173401 0.00284138 0.0285685 0.00342144 0.0162556 0.00391025 0.0504662
117 3 O 2.03867 20.0455 1.4948 -1.2 1 0.00222192 0.00309045 0.00172029 0.00414556 0.00172379 0.00783677 0.00204247 0.022288 0.00224645 0.00750052 0.00147109 0.0282529 0.00208983 0.0172652 0.00252509 0.0288726 0.00361854 0.0159337 0.00370844 0.0506679
118 3 O 4.96004 20.3134 0.196716 -1.2 1 0.00202274 0.00248452 0.00151932 0.0040389 0.00119705 0.00841679 0.000900713 0.021801 0.00086394 0.00752637 0.00157073 0.0273612 0.00249171 0.0167507 0.00382141 0.0286238 0.00307382 0.0151651 0.00297257 0.0496395
119 1 Mg 6.55057 18.996 2.9896 1.2 1 0.00232034 0.00338137 0.00163741 0.00418324 0.00242436 0.00824811 0.00261544 0.0212991 0.00247854 0.00784267 0.00165757 0.0285633 0.00285862 0.0168604 0.00316253 0.0288666 0.00396033 0.0169375 0.00467034 0.050973