ITEM: TIMESTEP
2500
ITEM: NUMBER OF ATOMS
10500
ITEM: BOX BOUNDS xy xz yz pp pp pp
0	15.2974	5.099
0	118.725	0
0	89.688	0
ITEM: ATOMS id type element xu yu zu q Q_1 Q_2 Q_3 Q_4 Q_5 Q_6 Q_7 Q_8 Q_9 Q_10 Q_11 Q_12 Q_13 Q_14 Q_15 Q_16 Q_17 Q_18 Q_19 Q_20 Q_21
1 1 Mg 6.2404 -6.37941e-06 0 1.2 1 0.000686663 0.00388286 0.00133442 0.00494252 0.00130256 0.00565092 0.00212733 0.0160477 0.00208995 0.00573118 0.002211 0.0220302 0.00238566 0.0133866 0.00366229 0.0207056 0.00414028 0.0140032 0.00424043 0.0406961
2 1 Mg 3.46349 4.70768 1.4948 1.2 1 0.00112175 0.00300647 0.00153947 0.00437339 0.00202833 0.00632123 0.00370043 0.0183367 0.00282571 0.00688514 0.0029203 0.0258516 0.00315815 0.0138069 0.00448264 0.025168 0.00513477 0.0169558 0.00579994 0.0434064
3 2 Si 5.2885 2.02354 1.4948 2.4 1 0.000283934 0.00297487 0.00198629 0.00460225 0.00184811 0.00586443 0.00263213 0.0167465 0.00243624 0.00603545 0.00202374 0.0233981 0.00280741 0.0134014 0.00367313 0.021698 0.00402474 0.0151472 0.00446073 0.0410972
4 3 O 5.33628 3.63678 1.4948 -1.2 1 0.000489211 0.00266161 0.00159256 0.00469386 0.00218236 0.00648903 0.00300561 0.0174411 0.00224438 0.00660745 0.00186312 0.025219 0.00244972 0.0136679 0.00425677 0.0238943 0.00497853 0.0163037 0.00606658 0.0424399
5 3 O 1.67294 1.04952 1.4948 -1.2 1 0.00124652 0.00309468 0.00208027 0.00435517 0.00137213 0.00575925 0.00261582 0.0165659 0.00223352 0.00609241 0.00214883 0.0228576 0.00268207 0.0127177 0.00339007 0.0219878 0.00473386 0.01543 0.00463383 0.0401047
6 3 O 4.59532 1.31737 0.196716 -1.2 1 0.00065393 0.00264718 0.00220689 0.00433488 0.00202089 0.00576682 0.00248713 0.0169619 0.00250964 0.00620403 0.00201419 0.0226004 0.00312974 0.0126683 0.00429956 0.0214976 0.00429916 0.0146833 0.00460026 0.0409903
7 1 Mg 6.18956 -6.37941e-06 2.9896 1.2 1 0.000588246 0.00416144 0.00150246 0.00442303 0.00149496 0.00577616 0.00253315 0.0158105 0.00248827 0.00546106 0.00178178 0.0224056 0.00275613 0.0130393 0.00368595 0.0208136 0.00447048 0.0143539 0.00505606 0.0385841
8 3 O 4.55118 1.31737 2.79288 -1.2 1 0.000845539 0.0038246 0.00170652 0.00436194 0.00203087 0.00571233 0.00268015 0.0164052 0.00237225 0.0067011 0.00236711 0.0218557 0.00330794 0.0121908 0.00338038 0.02156 0.00482417 0.0151914 0.00547492 0.0391653
9 1 Mg -1.20682 0.0413099 4.4844 1.2 1 0.000908461 0.00258875 0.0016894 0.00494639 0.00160412 0.00545475 0.0021781 0.0158842 0.0022767 0.00589914 0.0018479 0.02266 0.00279243 0.0116023 0.00372098 0.0208111 0.00532491 0.0155518 0.0053689 0.0381661
10 2 Si -3.0337 2.72544 4.4844 2.4 1 0.000831541 0.00294334 0.00185181 0.00496876 0.0023013 0.00600528 0.00342275 0.0163103 0.00310683 0.00615121 0.00202541 0.0241375 0.00311264 0.0130127 0.00386501 0.0223532 0.00560407 0.0173287 0.00653382 0.0386712
11 3 O -3.08099 1.11221 4.4844 -1.2 1 0.00124239 0.00334681 0.00179673 0.00452562 0.00151433 0.00535822 0.00259574 0.0157712 0.00302717 0.00548499 0.00206061 0.0225216 0.00295516 0.0113113 0.00330397 0.0213837 0.00510583 0.0158787 0.00573993 0.0377793
12 3 O 0.582463 3.69946 4.4844 -1.2 1 0.00163755 0.0042681 0.00197278 0.0044845 0.00261089 0.00664945 0.00367412 0.0168644 0.00336068 0.00672742 0.00300442 0.0249136 0.00411394 0.0127983 0.00420446 0.0237787 0.00711789 0.0184217 0.00831864 0.0402265
13 3 O -2.29524 3.43162 3.18632 -1.2 1 0.000664414 0.0026485 0.00261078 0.00458274 0.00232046 0.0059869 0.00305056 0.0175342 0.00309793 0.00656639 0.0024931 0.0244492 0.00308556 0.0129949 0.00459515 0.0238957 0.00608719 0.0175896 0.00679882 0.0410341
14 3 O -2.34216 3.43162 5.78248 -1.2 1 0.00178964 0.00333806 0.000985808 0.00495192 0.00261821 0.00576967 0.00333081 0.0165299 0.00303531 0.00720201 0.00270741 0.0233064 0.00440349 0.0123375 0.00406686 0.0228402 0.00631563 0.0190279 0.00766054 0.0386409
15 1 Mg 1.12778 2.37449 2.9896 1.2 1 0.00152313 0.00330431 0.00232805 0.00452908 0.00223286 0.00584511 0.00319291 0.0163118 0.0026392 0.00612998 0.00235764 0.0236173 0.00333163 0.0127559 0.00330392 0.0218023 0.00467184 0.0164189 0.00549536 0.0400196
16 1 Mg 3.92855 2.33318 4.4844 1.2 1 0.000885637 0.00375897 0.0013755 0.00435721 0.0018795 0.00566471 0.00371515 0.0164335 0.00319206 0.00605348 0.00283144 0.0228352 0.00350377 0.0129365 0.00504433 0.02169 0.00615079 0.0169193 0.00705008 0.0390882
17 2 Si 2.09341 4.39804 4.4844 2.4 1 0.00132742 0.00394873 0.00195915 0.00439212 0.00311704 0.00583307 0.00391574 0.0179474 0.00331343 0.00693484 0.00324959 0.0247797 0.00424343 0.0139617 0.0039928 0.0242471 0.00661329 0.0185506 0.00850203 0.042198
18 3 O 2.09991 6.01128 4.4844 -1.2 1 0.00203535 0.0040484 0.00168975 0.0042975 0.00312473 0.00657339 0.00330661 0.0187957 0.00269385 0.00736237 0.00294527 0.0267607 0.00386177 0.0144387 0.00434483 0.026921 0.00681414 0.019646 0.00803554 0.0441495
19 3 O -4.52137 3.42402 4.4844 -1.2 1 0.000729503 0.00343891 0.00205863 0.00468904 0.00235816 0.0069554 0.00349387 0.0164847 0.00332117 0.00637439 0.00295477 0.0235853 0.0037621 0.0125728 0.00389367 0.0225333 0.00625685 0.0177402 0.00759568 0.0395393
20 3 O 2.80834 3.69187 3.18632 -1.2 1 0.00102781 0.00357005 0.00167431 0.00383658 0.0022253 0.00588356 0.00325898 0.0169339 0.00292671 0.00640329 0.00274778 0.0245241 0.00363807 0.0130264 0.00460056 0.0235751 0.00553505 0.0172224 0.00645116 0.0419374
21 1 Mg 1.17857 2.37449 0 1.2 1 0.00145746 0.00303015 0.00203653 0.00402276 0.00144292 0.00557347 0.00252025 0.0170604 0.00215089 0.00660978 0.00284897 0.0233862 0.00282012 0.0132323 0.00369607 0.0218021 0.00435269 0.0147266 0.00465424 0.040725
22 3 O 2.76143 3.69187 5.78248 -1.2 1 0.001374 0.00384471 0.00150584 0.00421676 0.00220684 0.00538121 0.00294662 0.0171946 0.00333403 0.00690686 0.00271239 0.0231725 0.00431687 0.0126958 0.00510957 0.0227117 0.00656313 0.0184917 0.00780376 0.039183
23 1 Mg -1.67381 2.41581 1.4948 1.2 1 0.00101813 0.00243081 0.0027818 0.00478652 0.00158645 0.00607058 0.00253835 0.0164085 0.00253938 0.00623857 0.00196507 0.0241994 0.00237119 0.0140798 0.00288299 0.0222052 0.00454288 0.0160274 0.00477577 0.0412221
24 2 Si 0.16286 0.350945 1.4948 2.4 1 0.00153083 0.00224569 0.00295698 0.00454786 0.00139596 0.0063773 0.00286741 0.0161791 0.00201464 0.00535092 0.00186493 0.0230603 0.00248152 0.0134108 0.00326488 0.0209312 0.00464774 0.0146779 0.00416864 0.0403942
25 3 O 0.15972 -1.26229 1.4948 -1.2 1 0.0016063 0.00222438 0.00317045 0.00453996 0.00178753 0.00600801 0.0026276 0.0162446 0.0022057 0.00558586 0.00248143 0.0227936 0.00282456 0.0137161 0.00316579 0.0218194 0.00430618 0.0144672 0.00383941 0.0407511
26 3 O 6.77654 1.32496 1.4948 -1.2 1 0.000865874 0.00351371 0.00169551 0.00469298 0.00134644 0.00605532 0.0024122 0.0165489 0.00243904 0.00538206 0.00169388 0.0237471 0.00262552 0.0134689 0.00381388 0.0219128 0.00481909 0.0150981 0.00454738 0.0405731
27 3 O -0.508028 1.05712 0.196716 -1.2 1 0.00115681 0.00233379 0.00341459 0.00413884 0.0013052 0.00574368 0.00243347 0.0168298 0.0016187 0.00659069 0.00248826 0.0222133 0.00260787 0.0128264 0.00328864 0.0212056 0.00442204 0.0150432 0.0045092 0.0401535
28 3 O -0.552171 1.05712 2.79288 -1.2 1 0.000900553 0.00199585 0.00303408 0.00460726 0.00137828 0.00601599 0.00250093 0.015862 0.00250091 0.00604758 0.00161446 0.0229358 0.00298113 0.0115997 0.00373646 0.0216802 0.00530884 0.015688 0.00484755 0.038944
29 1 Mg 6.31713 4.74899 0 1.2 1 0.000703831 0.00259271 0.00185495 0.0046486 0.00229882 0.00629686 0.00333563 0.0178737 0.00270235 0.00705273 0.00211434 0.025358 0.0027353 0.0137082 0.00408507 0.0245904 0.00456222 0.0163715 0.00585627 0.0427152
30 1 Mg 3.54847 9.45668 1.4948 1.2 1 0.000926562 0.00300535 0.00207235 0.00499907 0.0020886 0.00781679 0.0031374 0.0213232 0.00177527 0.00847179 0.00250143 0.0286278 0.00315788 0.0155972 0.0039987 0.0291461 0.00400896 0.0182224 0.0038588 0.0483998
31 2 Si 5.36879 6.77254 1.4948 2.4 1 0.000891021 0.00273266 0.0019639 0.00518829 0.00288054 0.00706195 0.00382171 0.0195256 0.0026864 0.0078424 0.00268138 0.0277328 0.00314742 0.015386 0.00407387 0.0267689 0.00441301 0.0174004 0.00523957 0.0460762
32 3 O 5.41937 8.38578 1.4948 -1.2 1 0.00107765 0.00292585 0.00173096 0.00516655 0.00228012 0.00789781 0.00313519 0.0209254 0.00225076 0.00848722 0.00254753 0.0291313 0.00225495 0.0156568 0.00302502 0.0291311 0.00431111 0.0176421 0.00481702 0.0474786
33 3 O 1.75158 5.79852 1.4948 -1.2 1 0.00122834 0.00314524 0.00152804 0.00409575 0.0025815 0.0061231 0.00343837 0.0193013 0.00280275 0.00730264 0.0027007 0.0280079 0.00282419 0.015415 0.00342618 0.0267074 0.00507239 0.0176694 0.00577643 0.0453288
34 3 O 4.67421 6.06637 0.196716 -1.2 1 0.000676415 0.002792 0.0016174 0.00486058 0.00202461 0.00706499 0.00300757 0.0196185 0.00237615 0.00813978 0.00225919 0.0263221 0.00339782 0.0143738 0.0042694 0.0265901 0.00449415 0.0168461 0.00539899 0.0448998
35 1 Mg 6.26654 4.74899 2.9896 1.2 1 0.00122464 0.00293929 0.00205883 0.00502172 0.00280828 0.00686449 0.0038092 0.0177046 0.00374514 0.00712013 0.00221168 0.0258646 0.00368834 0.01451 0.00509489 0.0245093 0.00597504 0.0176656 0.00716 0.0424205
36 3 O 4.63043 6.06637 2.79288 -1.2 1 0.00204209 0.00308153 0.00171002 0.0049661 0.00257476 0.00693142 0.00350372 0.0192201 0.00334969 0.00785391 0.00253857 0.0261527 0.0038025 0.0146805 0.00438357 0.0268466 0.00580172 0.0183492 0.00723051 0.0446831
37 1 Mg -1.12976 4.79031 4.4844 1.2 1 0.00156871 0.00375753 0.00191021 0.00486711 0.00267181 0.00616381 0.00351447 0.0175754 0.00333256 0.00704264 0.00303395 0.0259657 0.00415982 0.0143848 0.00438072 0.0251625 0.00741389 0.0191083 0.00815452 0.0427433
38 2 Si -2.9517 7.47444 4.4844 2.4 1 0.0022301 0.00369908 0.00155595 0.00547866 0.00297046 0.00669174 0.00373889 0.0200378 0.00322668 0.00806682 0.00279384 0.0270687 0.00429033 0.0157315 0.00501873 0.0273693 0.00696353 0.0194911 0.00816202 0.045793
39 3 O -3.00198 5.86121 4.4844 -1.2 1 0.00166008 0.00378861 0.00128936 0.0051322 0.00335382 0.00634446 0.00432195 0.0183316 0.00342547 0.007734 0.00278323 0.0257582 0.00439898 0.0140884 0.0046342 0.0262587 0.00677173 0.0195494 0.00828154 0.0436011
40 3 O 0.666315 8.44846 4.4844 -1.2 1 0.00268851 0.00441698 0.00142153 0.00522967 0.00302066 0.00759365 0.00306637 0.0207638 0.00312245 0.00796615 0.003048 0.0284773 0.00463406 0.0156941 0.00420461 0.0286719 0.00643854 0.0201854 0.00801975 0.0473621
41 3 O -2.21213 8.18062 3.18632 -1.2 1 0.00194884 0.00360165 0.00165169 0.00487166 0.00263409 0.00646084 0.00285531 0.0207697 0.00274161 0.00828191 0.00273836 0.0276942 0.00392763 0.0157808 0.00478845 0.0286673 0.00584681 0.0191317 0.00681313 0.0474706
42 3 O -2.25864 8.18062 5.78248 -1.2 1 0.00291487 0.00415949 0.00154343 0.00523513 0.00317245 0.00620134 0.00306881 0.0202221 0.00231238 0.00857501 0.00319322 0.0267986 0.00435451 0.0162311 0.00540013 0.0286041 0.00725517 0.0212543 0.00809343 0.0471347
43 1 Mg 1.20893 7.12349 2.9896 1.2 1 0.00151146 0.00364857 0.00177909 0.00453158 0.00304778 0.00685655 0.00371837 0.0194718 0.00287363 0.00824777 0.00285751 0.02802 0.00348287 0.0157264 0.00370941 0.0271471 0.00552975 0.0186969 0.00637926 0.0458987
44 1 Mg 4.00982 7.08218 4.4844 1.2 1 0.00242043 0.0036057 0.00177619 0.00516065 0.0029252 0.00673925 0.00384995 0.0198944 0.00336037 0.00790422 0.00315078 0.0270002 0.00388485 0.0164079 0.00554282 0.0275396 0.00727729 0.0196086 0.008416 0.0460664
45 2 Si 2.17861 9.14704 4.4844 2.4 1 0.0026113 0.00386483 0.00166793 0.00527418 0.00314051 0.00736074 0.00364438 0.0210115 0.00276121 0.00833358 0.00293628 0.0281903 0.00454826 0.0163476 0.00429747 0.0292398 0.00602458 0.0200824 0.00712871 0.0491094
46 3 O 2.18828 10.7603 4.4844 -1.2 1 0.00333758 0.00401152 0.00199985 0.00508314 0.0027553 0.00722718 0.00297985 0.0207601 0.00262554 0.00823506 0.00228332 0.0287147 0.00385788 0.0156954 0.0041861 0.0304975 0.00611377 0.0202578 0.00688352 0.0497414
47 3 O -4.43805 8.17302 4.4844 -1.2 1 0.00223115 0.00373821 0.00193366 0.00552849 0.0029344 0.00778488 0.00326011 0.0205228 0.00320832 0.00837432 0.0027663 0.0281627 0.00447568 0.0158849 0.00460933 0.0285244 0.00691833 0.0198577 0.00862249 0.0466507
48 3 O 2.89193 8.44087 3.18632 -1.2 1 0.00231451 0.00335362 0.00169562 0.00467841 0.00282802 0.00703539 0.00338133 0.0204857 0.00279897 0.00855296 0.00275861 0.0276885 0.0037573 0.0158098 0.00444933 0.0287299 0.00586239 0.0190985 0.00608148 0.047721
49 1 Mg 1.25915 7.12349 0 1.2 1 0.000725656 0.0028978 0.00119543 0.0044326 0.00177702 0.00728046 0.00298892 0.0201446 0.00264691 0.00832582 0.00267051 0.0278693 0.0033958 0.0142842 0.00334776 0.0275247 0.00435095 0.0175878 0.00418897 0.0456176
50 3 O 2.84547 8.44087 5.78248 -1.2 1 0.00300845 0.00441049 0.00163599 0.00515167 0.00295434 0.00684799 0.00336545 0.0205038 0.00283251 0.0088207 0.00314975 0.0268937 0.00541515 0.0162237 0.00479898 0.0288504 0.0065436 0.0214557 0.00795982 0.0475119
51 1 Mg -1.59284 7.16481 1.4948 1.2 1 0.00091774 0.00286355 0.00126993 0.00479712 0.00188568 0.0065139 0.00268612 0.0198379 0.00292646 0.00798922 0.00172482 0.0279269 0.00320507 0.0156 0.00351928 0.0272585 0.00455483 0.017909 0.0056661 0.0461736
52 2 Si 0.240329 5.09994 1.4948 2.4 1 0.000892437 0.00330876 0.00174105 0.00407289 0.00199784 0.00691626 0.00320916 0.018728 0.00293374 0.00741757 0.00221148 0.0262285 0.00275589 0.01449 0.00387118 0.0247463 0.00503908 0.0171349 0.00523768 0.0443916
53 3 O 0.234538 3.48671 1.4948 -1.2 1 0.00117571 0.00351648 0.00260132 0.00424475 0.00204294 0.00652967 0.00267912 0.0176015 0.00318193 0.00695981 0.00231472 0.0246714 0.0031743 0.0134936 0.0039113 0.0240417 0.00564558 0.016102 0.00532632 0.0421313
54 3 O 6.85564 6.07396 1.4948 -1.2 1 0.00110849 0.00254979 0.00229219 0.00488695 0.00263945 0.00632889 0.00316204 0.0197472 0.00294739 0.00761889 0.00214339 0.0277577 0.00326424 0.0147301 0.00467862 0.0267902 0.00548571 0.0178337 0.00651789 0.0449654
55 3 O -0.429565 5.80612 0.196716 -1.2 1 0.000691895 0.00300257 0.00194565 0.00416427 0.00182422 0.00722025 0.00275709 0.0193982 0.00268932 0.00845786 0.00244601 0.0260249 0.0024493 0.0141196 0.00361026 0.0260664 0.0048727 0.0169636 0.00566373 0.0448889
56 3 O -0.473377 5.80612 2.79288 -1.2 1 0.00163421 0.00316529 0.00205913 0.00458636 0.00256003 0.00677019 0.00331593 0.0190097 0.00300023 0.00809452 0.0028906 0.0259993 0.00373874 0.0145761 0.00423777 0.026134 0.00618459 0.0185256 0.00699585 0.0446627
57 1 Mg 6.40169 9.49799 0 1.2 1 0.000458677 0.00346938 0.00151529 0.00486296 0.00148976 0.00841903 0.00203004 0.0210594 0.00155318 0.00902923 0.00179201 0.0288648 0.00233356 0.0148239 0.00250814 0.0299752 0.00341519 0.0179272 0.00378902 0.0472133
58 1 Mg 3.64209 14.2057 1.4948 1.2 1 0.00160451 0.00312546 0.0015712 0.00492369 0.00183005 0.00891727 0.00162557 0.0217705 0.0018009 0.00880848 0.00218159 0.0283714 0.00251503 0.0160675 0.00311924 0.0295276 0.003818 0.0169734 0.00373947 0.0490078
59 2 Si 5.45748 11.5215 1.4948 2.4 1 0.00119453 0.00303741 0.00181292 0.00503405 0.0019361 0.00830581 0.00219057 0.0212186 0.00158177 0.00846568 0.00195364 0.0288576 0.00256526 0.0162059 0.00324531 0.0293001 0.00401944 0.017116 0.00376636 0.0487767
60 3 O 5.51101 13.1348 1.4948 -1.2 1 0.00152163 0.00297817 0.00169274 0.00501119 0.00172248 0.00911185 0.00180089 0.0212681 0.00185838 0.00880509 0.0016062 0.0293866 0.00201737 0.0161431 0.00280169 0.0298754 0.00374744 0.0165922 0.00385604 0.0486917
61 3 O 1.83851 10.5475 1.4948 -1.2 1 0.000785144 0.00320209 0.00182465 0.00523968 0.00203846 0.00781494 0.00243866 0.0216394 0.00176601 0.00858097 0.00221738 0.0294563 0.00245689 0.0157005 0.00308693 0.0299799 0.00406986 0.0179646 0.00364185 0.0487203
62 3 O 4.7611 10.8154 0.196716 -1.2 1 0.000347003 0.00286587 0.00180374 0.00499086 0.00137266 0.00863578 0.00234656 0.0214348 0.00153909 0.0088606 0.00203663 0.0282954 0.00295997 0.0155626 0.00386192 0.0295665 0.00349752 0.0172047 0.0034565 0.0480597
63 1 Mg 6.35203 9.49799 2.9896 1.2 1 0.00146881 0.00336438 0.00183108 0.00535115 0.00280741 0.00762952 0.00338549 0.0203648 0.00306974 0.00865947 0.00201309 0.0291852 0.00363829 0.0160596 0.00313047 0.0291309 0.00451763 0.0186665 0.00580035 0.0478312
64 3 O 4.71833 10.8154 2.79288 -1.2 1 0.00244424 0.00326752 0.0017332 0.00500621 0.0023468 0.00830219 0.00227187 0.0211972 0.00206164 0.00913411 0.00210045 0.0282614 0.00338705 0.0158304 0.00380058 0.0300005 0.00528063 0.0185393 0.00566823 0.0490086
65 1 Mg -1.0438 9.53931 4.4844 1.2 1 0.00278379 0.0042397 0.00156542 0.00496266 0.00316648 0.00701918 0.00278767 0.0208597 0.00264943 0.00833408 0.00253606 0.02842 0.00396446 0.0164271 0.00431622 0.0294941 0.00636675 0.0202029 0.00724396 0.0487908
66 2 Si -2.8604 12.2234 4.4844 2.4 1 0.00308727 0.0039461 0.00198148 0.00507395 0.00279809 0.00772798 0.00300755 0.0215597 0.00282202 0.0086299 0.00225558 0.0283655 0.00424333 0.0165025 0.00452454 0.0299566 0.00573458 0.0196061 0.00669685 0.0504182
67 3 O -2.91391 10.6102 4.4844 -1.2 1 0.00318629 0.00383524 0.00183643 0.00497967 0.00291001 0.0071931 0.00316482 0.0206022 0.00253907 0.00800824 0.00190695 0.0285956 0.00413817 0.0157464 0.00418284 0.0301847 0.0059288 0.0198134 0.00668992 0.049299
68 3 O 0.7596 13.1975 4.4844 -1.2 1 0.00318607 0.00400107 0.00185607 0.00554273 0.00296924 0.0088364 0.00250785 0.0219754 0.00280431 0.00859138 0.00277198 0.028752 0.00430648 0.0163093 0.00427554 0.030033 0.00610156 0.0197855 0.00683025 0.0502597
69 3 O -2.12001 12.9296 3.18632 -1.2 1 0.00268579 0.00355755 0.00189611 0.00483904 0.00263234 0.00776181 0.00226305 0.0217274 0.00248013 0.0085065 0.00211915 0.0279678 0.0035522 0.0163224 0.00434469 0.030442 0.00528991 0.0187509 0.00565729 0.0499847
70 3 O -2.16532 12.9296 5.78248 -1.2 1 0.00379789 0.00417135 0.00194201 0.00521808 0.00276097 0.00706609 0.00225463 0.021542 0.00264205 0.00878417 0.00267541 0.027468 0.00429535 0.0168461 0.00539758 0.0310918 0.0062705 0.0212046 0.00666405 0.0516445
71 1 Mg 1.29891 11.8725 2.9896 1.2 1 0.00211513 0.00352246 0.00194267 0.00541447 0.00254071 0.00815801 0.0027903 0.0211314 0.00248678 0.00864303 0.00198138 0.0290432 0.00329615 0.0162226 0.00332366 0.0299212 0.00474499 0.0182582 0.00500046 0.0492429
72 1 Mg 4.10033 11.8312 4.4844 1.2 1 0.0033748 0.00371504 0.00202799 0.00492161 0.00263589 0.0073477 0.00271881 0.0213233 0.00251507 0.00864874 0.00264847 0.028993 0.00373616 0.0172204 0.00497282 0.0301453 0.00653205 0.019936 0.00631437 0.0502531
73 2 Si 2.27333 13.896 4.4844 2.4 1 0.00322897 0.00353852 0.00169518 0.00547646 0.00314714 0.00780754 0.00306635 0.0217074 0.00242045 0.008389 0.00263598 0.0281557 0.00371033 0.0163912 0.0043106 0.030534 0.00578225 0.0192981 0.0065003 0.0513962
74 3 O 2.28634 15.5093 4.4844 -1.2 1 0.0035394 0.00383548 0.00171406 0.00526086 0.00315878 0.00727374 0.00269954 0.0210402 0.00264937 0.0078603 0.00203338 0.0283952 0.0035668 0.0160238 0.00407319 0.0308791 0.00587717 0.0192128 0.00652809 0.0510825
75 3 O -4.34533 12.922 4.4844 -1.2 1 0.00318294 0.0038663 0.0019618 0.00531713 0.0027861 0.00844634 0.0029175 0.0218361 0.00278552 0.00882475 0.00233413 0.0288109 0.0038933 0.0162982 0.00484669 0.0303098 0.00651335 0.0200424 0.00712226 0.0503836
76 3 O 2.98455 13.1899 3.18632 -1.2 1 0.0027247 0.00342383 0.00157669 0.00499648 0.00261491 0.00778055 0.00214476 0.0217915 0.00209952 0.00873131 0.00228564 0.028086 0.00355408 0.0160596 0.00413203 0.030077 0.00548296 0.0184778 0.00560794 0.0499884
77 1 Mg 1.34779 11.8725 0 1.2 1 0.000786569 0.0028838 0.00129667 0.00504025 0.00129975 0.00892736 0.00170242 0.0212847 0.00121407 0.00922523 0.00199495 0.0289532 0.00277597 0.0147902 0.00289744 0.0302133 0.00316027 0.0172903 0.00312459 0.0476093
78 3 O 2.93934 13.1899 5.78248 -1.2 1 0.00364875 0.0040058 0.00168695 0.00538478 0.00271463 0.00709575 0.00250298 0.0217966 0.00244901 0.00865279 0.0029959 0.0274216 0.00442717 0.0167809 0.00492932 0.0312595 0.00629429 0.0218955 0.00648288 0.0517651
79 1 Mg -1.50344 11.9138 1.4948 1.2 1 0.000844084 0.00340706 0.00153453 0.00499187 0.00152454 0.00825024 0.00185288 0.0216055 0.00251081 0.00868903 0.00160024 0.0288028 0.00348681 0.0161203 0.00323564 0.0299476 0.00363245 0.0176897 0.00384913 0.0485257
80 2 Si 0.326006 9.84894 1.4948 2.4 1 0.000722922 0.00314366 0.00126298 0.00528864 0.00195122 0.00820071 0.00218572 0.0211025 0.00197294 0.00858081 0.00168542 0.0286781 0.00281709 0.0156274 0.00335583 0.0289118 0.00361772 0.0179419 0.00353487 0.047957
81 3 O 0.317364 8.23571 1.4948 -1.2 1 0.00136674 0.00315369 0.00119731 0.00473945 0.00201027 0.00775438 0.00232457 0.0201895 0.00244701 0.00819397 0.00180242 0.0287894 0.00336222 0.0157436 0.00367223 0.0285815 0.0043393 0.0179164 0.00429712 0.0472256
82 3 O 6.94307 10.823 1.4948 -1.2 1 0.000717168 0.00334186 0.00167941 0.00490919 0.00210987 0.00778275 0.00261065 0.0218166 0.00224161 0.00853939 0.00170361 0.0294916 0.00311362 0.0158889 0.00326337 0.0299691 0.00385795 0.0181551 0.00419395 0.048683
83 3 O -0.343122 10.5551 0.196716 -1.2 1 0.000187291 0.00303593 0.00117159 0.00503454 0.00142322 0.00860818 0.00205329 0.0212583 0.00173756 0.0090412 0.00211127 0.028247 0.00322063 0.0152364 0.0039395 0.0296176 0.00351119 0.0175788 0.00345562 0.048
84 3 O -0.385966 10.5551 2.79288 -1.2 1 0.00220584 0.0035531 0.00145176 0.00504908 0.00261261 0.00807363 0.00224884 0.0216145 0.00205941 0.0091468 0.0021021 0.0277822 0.00390188 0.0160156 0.00402603 0.029889 0.00511761 0.0189588 0.00504813 0.0493313
85 1 Mg 6.49448 14.247 0 1.2 1 0.00153764 0.0033104 0.00160182 0.0047731 0.000978578 0.00919628 0.00136515 0.0213502 0.00114268 0.00857953 0.00158604 0.0286385 0.00176348 0.0154647 0.00259394 0.0300685 0.00315812 0.016531 0.00305784 0.0478387
86 1 Mg 3.74457 18.9547 1.4948 1.2 1 0.00202984 0.00300177 0.00139079 0.00418127 0.00190651 0.00849704 0.00125084 0.0221484 0.00197987 0.00806967 0.00228827 0.0277888 0.00263222 0.0164926 0.00356848 0.0289776 0.00369936 0.0162404 0.00352938 0.0495633
87 2 Si 5.55495 16.2705 1.4948 2.4 1 0.0021979 0.00288707 0.00156012 0.00470085 0.00197982 0.00890701 0.00135322 0.0214275 0.00143955 0.00811536 0.00142378 0.0285829 0.00240836 0.0162971 0.00282241 0.0289969 0.00382224 0.0157679 0.00373362 0.0490479
88 3 O 5.6115 17.8838 1.4948 -1.2 1 0.00210128 0.0029037 0.00165291 0.00439738 0.00190217 0.00909018 0.00131861 0.0217865 0.00190935 0.00799336 0.00139862 0.0287295 0.00227797 0.0165752 0.00277236 0.0290041 0.00336768 0.0157481 0.00377868 0.0492256
89 3 O 1.93416 15.2965 1.4948 -1.2 1 0.00187796 0.00324448 0.00147748 0.00500828 0.00199672 0.00838142 0.00191565 0.0220084 0.00190124 0.00820659 0.00159478 0.0290978 0.00208889 0.0161864 0.00290471 0.0298982 0.00391378 0.0165438 0.00365824 0.0494961
90 3 O 4.85636 15.5644 0.196716 -1.2 1 0.00191267 0.00254277 0.00141164 0.00472636 0.00122151 0.00908435 0.00131987 0.0213384 0.00102246 0.00826887 0.00180646 0.0279189 0.00252114 0.0158525 0.00324084 0.0292912 0.00338237 0.0158368 0.00332799 0.0484971
91 1 Mg 6.44662 14.247 2.9896 1.2 1 0.00177283 0.00329194 0.00150843 0.00512292 0.0026902 0.00854642 0.00274783 0.0209059 0.00260507 0.00876916 0.0016296 0.0292249 0.00302265 0.0163346 0.00298518 0.0296857 0.00424971 0.0178718 0.00500325 0.0492364
92 3 O 4.81537 15.5644 2.79288 -1.2 1 0.00264547 0.00330453 0.00134775 0.00487797 0.00242527 0.00870624 0.00149689 0.0219746 0.00171256 0.00867698 0.00180825 0.0280059 0.00281834 0.0163842 0.00348386 0.0298045 0.00499769 0.0174172 0.00534884 0.0498839
93 1 Mg -0.948271 14.2883 4.4844 1.2 1 0.00343653 0.00370194 0.00167707 0.00502855 0.00307483 0.00787986 0.00278891 0.0214575 0.00256069 0.00829916 0.00265331 0.0286065 0.00372876 0.0169008 0.0048299 0.0303903 0.00593513 0.0191441 0.0064226 0.0510437
94 2 Si -2.75928 16.9724 4.4844 2.4 1 0.00355268 0.00333819 0.00178186 0.00505933 0.00293911 0.00801331 0.00251067 0.022045 0.00281144 0.00795829 0.00250634 0.0279929 0.00346675 0.0170025 0.0048317 0.0295818 0.00546097 0.0186764 0.00632057 0.0517824
95 3 O -2.81617 15.3592 4.4844 -1.2 1 0.00363416 0.00356035 0.00188676 0.00497099 0.00302548 0.00761323 0.00265227 0.0210209 0.00255487 0.00787735 0.00228273 0.0286224 0.00376185 0.0158763 0.00413738 0.0304816 0.00610252 0.0188474 0.00661604 0.0508024
96 3 O 0.862762 17.9465 4.4844 -1.2 1 0.00358346 0.00373228 0.00147029 0.00495577 0.00311879 0.0084302 0.00250181 0.0221706 0.00254091 0.00773748 0.00256204 0.0285508 0.00388633 0.0167621 0.00434118 0.029636 0.00581947 0.0186015 0.00632812 0.0514199
97 3 O -2.0185 17.6786 3.18632 -1.2 1 0.00308768 0.00312919 0.0017622 0.00422918 0.00280175 0.00765435 0.00210912 0.0222423 0.002329 0.00792782 0.00198515 0.0276318 0.00336055 0.0164932 0.00449291 0.0300293 0.00508108 0.0177607 0.00542598 0.050966
98 3 O -2.06164 17.6786 5.78248 -1.2 1 0.00447081 0.00383524 0.00155492 0.00496069 0.00291488 0.00692964 0.0022876 0.0216659 0.00262191 0.00807239 0.00303573 0.0274201 0.00362346 0.0169075 0.00530732 0.0308899 0.00593508 0.0203084 0.00606866 0.0528206
99 1 Mg 1.39817 16.6215 2.9896 1.2 1 0.00278659 0.00331186 0.00169576 0.00502114 0.00273104 0.00841083 0.00255655 0.0213211 0.00253919 0.00820957 0.00196094 0.0287951 0.0026924 0.0164404 0.00313996 0.0296573 0.00438106 0.0167748 0.00483328 0.0499203
100 1 Mg 4.20062 16.5802 4.4844 1.2 1 0.00334864 0.00343251 0.00184912 0.00499522 0.00289544 0.00757431 0.0024069 0.0217544 0.00303988 0.00791271 0.00288847 0.0282795 0.00355396 0.0172178 0.00543278 0.0301326 0.00635791 0.0188799 0.0064644 0.0513982
101 2 Si 2.37796 18.645 4.4844 2.4 1 0.00322367 0.00333325 0.00140982 0.0049601 0.00307803 0.00783679 0.00274562 0.0221009 0.00254843 0.00797117 0.00287556 0.0278011 0.00374709 0.0169345 0.00455028 0.0294373 0.00543135 0.0181929 0.00586434 0.0524532
102 3 O 2.39434 20.2583 4.4844 -1.2 1 0.00354361 0.00343735 0.00128598 0.00458621 0.00290317 0.00693554 0.00264942 0.0212175 0.00292768 0.00719893 0.00210776 0.0282754 0.00328719 0.0167116 0.00403535 0.0299222 0.0057293 0.0182642 0.00665326 0.0521108
103 3 O -4.24274 17.671 4.4844 -1.2 1 0.00311125 0.00380241 0.00181936 0.00500088 0.00298868 0.00852316 0.00241417 0.0222646 0.0028068 0.00801654 0.00234865 0.0284168 0.0034905 0.0167786 0.00484753 0.0298907 0.00608395 0.0190367 0.00654132 0.0514666
104 3 O 3.08659 17.9389 3.18632 -1.2 1 0.00300679 0.00295486 0.00169187 0.00450187 0.00291034 0.0078166 0.00195347 0.0221861 0.00221226 0.00807268 0.00220638 0.0277278 0.00322662 0.0164255 0.00412588 0.0296469 0.00542278 0.0175545 0.0056209 0.0510189
105 1 Mg 1.44478 16.6215 0 1.2 1 0.0024575 0.00290526 0.00107794 0.00440636 0.00142141 0.00887698 0.00114327 0.02154 0.00133037 0.00822411 0.00153696 0.02846 0.00241397 0.0157493 0.00246351 0.0292456 0.00306988 0.016043 0.0031158 0.0481667
106 3 O 3.0436 17.9389 5.78248 -1.2 1 0.0035246 0.00378258 0.00154737 0.00518344 0.00286834 0.00711767 0.00248012 0.0221199 0.002239 0.0080575 0.00291565 0.0273213 0.00393479 0.016955 0.0050573 0.0307278 0.0059504 0.0209017 0.0061544 0.0528164
107 1 Mg -1.40524 16.6628 1.4948 1.2 1 0.00173201 0.0032929 0.00144933 0.00470764 0.00177131 0.00869128 0.00182013 0.0221925 0.00193357 0.00831165 0.00169152 0.0282878 0.00304025 0.0165556 0.00290853 0.0295382 0.0031622 0.0165018 0.00352867 0.0490163
108 2 Si 0.420358 14.5979 1.4948 2.4 1 0.00158106 0.00311533 0.00153682 0.00525312 0.00207558 0.00901425 0.0017665 0.021483 0.00170549 0.00830438 0.00149327 0.0284262 0.00287283 0.016279 0.00344069 0.0290821 0.00360291 0.0165672 0.00376636 0.0490085
109 3 O 0.408732 12.9847 1.4948 -1.2 1 0.00125085 0.0030655 0.00143879 0.00535643 0.00190514 0.00911235 0.0013849 0.0212154 0.00220248 0.00847337 0.00152645 0.028982 0.00302026 0.0159786 0.00289278 0.0300487 0.00340425 0.0170224 0.00376839 0.0487192
110 3 O 7.03923 15.572 1.4948 -1.2 1 0.00161496 0.00316396 0.00156096 0.0048112 0.00217167 0.00833467 0.00229721 0.0218259 0.00202372 0.00819894 0.00172461 0.0292011 0.0026242 0.0164167 0.00285929 0.0296382 0.00361783 0.0167392 0.00419463 0.0491549
111 3 O -0.248332 15.3041 0.196716 -1.2 1 0.00179251 0.00289929 0.00125228 0.00480976 0.00111062 0.00890099 0.00183229 0.0213995 0.00152221 0.00841031 0.00159478 0.0280103 0.00285034 0.015926 0.00360331 0.0293257 0.00314862 0.0159722 0.00325056 0.0483492
112 3 O -0.289436 15.3041 2.79288 -1.2 1 0.00306913 0.00323938 0.00138818 0.00480083 0.00261174 0.00874451 0.00212076 0.0219399 0.0020182 0.00879279 0.00190728 0.027553 0.00304864 0.0163847 0.00368465 0.0297714 0.00464655 0.0175785 0.00504001 0.0498364
113 1 Mg 6.59566 18.996 0 1.2 1 0.00176547 0.00313578 0.00160488 0.00432763 0.000882294 0.00869102 0.00105917 0.0218742 0.00110574 0.00784749 0.00134331 0.0279768 0.00208763 0.0163325 0.00232158 0.0285485 0.00283699 0.0156897 0.0030228 0.0482355
114 1 Mg 3.85574 23.7037 1.4948 1.2 1 0.00204523 0.00254001 0.00129103 0.00417839 0.00175006 0.00756501 0.00110124 0.0230734 0.00177417 0.00748596 0.00225554 0.0271631 0.00252591 0.0175266 0.00378479 0.0283467 0.00342551 0.0171346 0.00333739 0.0506696
115 2 Si 5.66125 21.0195 1.4948 2.4 1 0.00191111 0.00264072 0.00120217 0.00423463 0.00193448 0.00820592 0.00125425 0.0219196 0.00138687 0.00751567 0.00163988 0.027847 0.002656 0.01736 0.00286158 0.0279745 0.00349057 0.0158437 0.00383997 0.0501054
116 3 O 5.72074 22.6328 1.4948 -1.2 1 0.00198239 0.00255378 0.00159267 0.00413688 0.00178673 0.00821736 0.00146924 0.0222613 0.00189116 0.00724915 0.00145788 0.0279493 0.00220606 0.0172434 0.00292208 0.0283227 0.00335598 0.0162014 0.00367664 0.0499733
117 3 O 2.03867 20.0455 1.4948 -1.2 1 0.00186672 0.00319452 0.0013613 0.00438802 0.0019186 0.00780665 0.00191041 0.0222756 0.00218009 0.00746906 0.0014632 0.028448 0.00227885 0.0172075 0.00261168 0.0288763 0.00362267 0.0160314 0.00346442 0.0501905
118 3 O 4.96004 20.3134 0.196716 -1.2 1 0.00195913 0.00240861 0.00132249 0.0041874 0.00119629 0.00835648 0.00102582 0.0217775 0.000995315 0.00757645 0.00165254 0.02747 0.0026805 0.0165122 0.00391582 0.0285889 0.00314966 0.0152492 0.00308784 0.0491514
119 1 Mg 6.55057 18.996 2.9896 1.2 1 0.00183685 0.00315368 0.00134317 0.00433909 0.00266787 0.00813112 0.00255341 0.02134 0.00238395 0.00790573 0.00179819 0.0289651 0.00298573 0.0168159 0.00319467 0.0290363 0.00408587 0.0170811 0.0048993 0.0502546