ITEM: TIMESTEP
900
ITEM: NUMBER OF ATOMS
10500
ITEM: BOX BOUNDS xy xz yz pp pp pp
0	15.2974	5.099
0	118.725	0
0	89.688	0
ITEM: ATOMS id type element xu yu zu q Q_1 Q_2 Q_3 Q_4 Q_5 Q_6 Q_7 Q_8 Q_9 Q_10 Q_11 Q_12 Q_13 Q_14 Q_15 Q_16 Q_17 Q_18 Q_19 Q_20 Q_21
1 1 Mg 6.2404 -6.37941e-06 0 1.2 1 0.00114517 0.00401573 0.00127505 0.00467619 0.00152981 0.00562981 0.0021738 0.0163655 0.00218613 0.00596817 0.00198057 0.0222562 0.00239303 0.0134568 0.00326233 0.0205243 0.00406477 0.0141955 0.00398154 0.0405882
2 1 Mg 3.46349 4.70768 1.4948 1.2 1 0.00160931 0.00325906 0.00147449 0.00437738 0.0019188 0.00610345 0.0035967 0.0187073 0.00283668 0.00700356 0.00279683 0.025762 0.00278069 0.0136874 0.00425503 0.0250815 0.00546261 0.0171837 0.00586578 0.0434612
3 2 Si 5.2885 2.02354 1.4948 2.4 1 0.00109367 0.00335964 0.00230977 0.00452565 0.00183831 0.00581397 0.0025482 0.0171629 0.00241702 0.00619765 0.00211021 0.0234742 0.0026003 0.0134181 0.00338409 0.0213496 0.00376127 0.0154804 0.00445255 0.0410581
4 3 O 5.33628 3.63678 1.4948 -1.2 1 0.00145251 0.002776 0.00183236 0.00469597 0.00207756 0.00631413 0.00299021 0.017859 0.00227423 0.0067602 0.00195712 0.0252151 0.0023785 0.0136299 0.00419189 0.0238579 0.00505832 0.0165111 0.00593665 0.0425401
5 3 O 1.67294 1.04952 1.4948 -1.2 1 0.0011235 0.0033444 0.00193985 0.00414927 0.00132273 0.00581213 0.00253886 0.0170039 0.00235712 0.00611218 0.00218345 0.0229468 0.00240044 0.0127008 0.00324292 0.0217277 0.00481273 0.0157559 0.00491787 0.0399531
6 3 O 4.59532 1.31737 0.196716 -1.2 1 0.000797684 0.00303311 0.00212689 0.00413067 0.00204691 0.00567961 0.00244563 0.0173793 0.00258571 0.00648241 0.0018893 0.0227569 0.0030056 0.0126529 0.00394233 0.0213572 0.0041542 0.0149008 0.00455688 0.0408682
7 1 Mg 6.18956 -6.37941e-06 2.9896 1.2 1 0.000984695 0.00452022 0.00172754 0.00432499 0.00134322 0.00585763 0.00251852 0.0161088 0.00278375 0.00552793 0.0020795 0.0224146 0.00248606 0.0134459 0.00359334 0.0202433 0.00473366 0.0149146 0.00500415 0.0388751
8 3 O 4.55118 1.31737 2.79288 -1.2 1 0.00141392 0.0045102 0.00205303 0.00422028 0.00197038 0.00578647 0.00265681 0.016987 0.00253642 0.00694971 0.00232658 0.0217051 0.00317809 0.01221 0.00343323 0.0214489 0.00493233 0.0157136 0.00557714 0.0396777
9 1 Mg -1.20682 0.0413099 4.4844 1.2 1 0.000926424 0.00330177 0.00160115 0.00479683 0.00145273 0.00556416 0.00202377 0.0163115 0.00239975 0.00566056 0.00239286 0.0223467 0.00285748 0.0117282 0.00334801 0.0203369 0.00568343 0.0160201 0.00529954 0.0386003
10 2 Si -3.0337 2.72544 4.4844 2.4 1 0.00136828 0.00377708 0.00183807 0.00488327 0.0021742 0.00629311 0.0032185 0.0168332 0.00310873 0.00615655 0.00238436 0.023683 0.0030134 0.0130447 0.00399904 0.0220906 0.00570361 0.0181803 0.00637025 0.0394577
11 3 O -3.08099 1.11221 4.4844 -1.2 1 0.00125517 0.00411892 0.00202466 0.00438781 0.00134265 0.00548819 0.00230208 0.0161455 0.00287814 0.00552855 0.00249334 0.0221423 0.00296938 0.0114443 0.00346558 0.0211431 0.00539558 0.0166175 0.00584551 0.0383596
12 3 O 0.582463 3.69946 4.4844 -1.2 1 0.00212059 0.00456466 0.00177231 0.00452999 0.00240576 0.00676136 0.00359344 0.0172873 0.00335943 0.00664592 0.00304611 0.0246702 0.00399395 0.0129895 0.00432287 0.0241897 0.00714261 0.0190172 0.00825282 0.041622
13 3 O -2.29524 3.43162 3.18632 -1.2 1 0.00162024 0.00305688 0.00221733 0.0046377 0.00220766 0.00619559 0.00290774 0.0179631 0.0033055 0.00674124 0.00266453 0.0245119 0.00308592 0.013062 0.00473077 0.0241236 0.00621143 0.0181025 0.00664612 0.0419772
14 3 O -2.34216 3.43162 5.78248 -1.2 1 0.00155516 0.00413186 0.00135145 0.00490109 0.00252824 0.00613866 0.00321093 0.0171516 0.00291776 0.00710204 0.00298765 0.0233009 0.00420492 0.0126758 0.00421437 0.0234011 0.00653935 0.0198859 0.00753813 0.04032
15 1 Mg 1.12778 2.37449 2.9896 1.2 1 0.00145534 0.00367 0.0020276 0.00444411 0.00209867 0.00608378 0.00313219 0.0167969 0.00260995 0.00621291 0.00248681 0.0235562 0.00301775 0.0128858 0.00341919 0.0219205 0.00504725 0.0166995 0.00574666 0.0404951
16 1 Mg 3.92855 2.33318 4.4844 1.2 1 0.0019856 0.00476324 0.00165118 0.00431793 0.00160532 0.00552291 0.00354201 0.0168659 0.00317348 0.00604729 0.00317511 0.0229431 0.00366006 0.0135982 0.0052354 0.0219102 0.00653292 0.0174763 0.00711546 0.0400689
17 2 Si 2.09341 4.39804 4.4844 2.4 1 0.00189235 0.00425095 0.00184777 0.0042596 0.00297804 0.00614139 0.00375032 0.01811 0.00356104 0.00684673 0.00332981 0.0246964 0.00430955 0.0141278 0.00434165 0.0245602 0.00690065 0.0190278 0.00844666 0.0431527
18 3 O 2.09991 6.01128 4.4844 -1.2 1 0.00240854 0.00467604 0.00151579 0.0039552 0.00298457 0.00662034 0.00332534 0.0191871 0.00295514 0.00728288 0.00306273 0.0265199 0.00405285 0.0144251 0.00478101 0.0272568 0.00695821 0.0199416 0.00823421 0.0450217
19 3 O -4.52137 3.42402 4.4844 -1.2 1 0.00185418 0.00427954 0.00218629 0.00451265 0.00214984 0.0072203 0.00340178 0.017176 0.0034444 0.00631381 0.00311945 0.0234687 0.00373515 0.012946 0.00428514 0.0227661 0.00647347 0.0183996 0.00764086 0.0411388
20 3 O 2.80834 3.69187 3.18632 -1.2 1 0.00199228 0.00387916 0.0015761 0.00362575 0.00205899 0.00595259 0.00307207 0.0173771 0.00320622 0.00644572 0.00284251 0.0241483 0.00335995 0.0128821 0.00466057 0.0237546 0.00594636 0.0174171 0.00666404 0.0421203
21 1 Mg 1.17857 2.37449 0 1.2 1 0.000925445 0.00362909 0.00183967 0.00412949 0.00147985 0.00557032 0.00246527 0.0174676 0.00238718 0.00666806 0.00252288 0.023662 0.00249984 0.0130653 0.00317922 0.0219189 0.00430104 0.0151437 0.00477522 0.0409386
22 3 O 2.76143 3.69187 5.78248 -1.2 1 0.00214737 0.00496802 0.00189905 0.00418425 0.00212868 0.0056052 0.00284153 0.0176922 0.00325915 0.00704048 0.00298923 0.0230625 0.00435063 0.0131943 0.00547705 0.023246 0.00666442 0.0191977 0.00726656 0.041133
23 1 Mg -1.67381 2.41581 1.4948 1.2 1 0.000702309 0.00270373 0.00243904 0.0047464 0.00143575 0.00598713 0.00236615 0.016744 0.00281083 0.00644371 0.00191267 0.0241724 0.00226435 0.0139335 0.00272385 0.0221394 0.00427481 0.0161875 0.00486658 0.0414138
24 2 Si 0.16286 0.350945 1.4948 2.4 1 0.000777855 0.00271106 0.00252301 0.00466653 0.00124308 0.0064484 0.00274525 0.0164941 0.00209012 0.00535015 0.00203092 0.022995 0.00207735 0.013365 0.00302739 0.020513 0.00477385 0.0148608 0.00438007 0.0400043
25 3 O 0.15972 -1.26229 1.4948 -1.2 1 0.000531822 0.00282223 0.00274777 0.00463371 0.00167116 0.00600021 0.00250271 0.0166508 0.00234291 0.00557908 0.00250831 0.0228731 0.00233392 0.0136731 0.00280767 0.0213965 0.00436247 0.0147376 0.00390972 0.04055
26 3 O 6.77654 1.32496 1.4948 -1.2 1 0.00100505 0.00384247 0.00176646 0.00460338 0.00139205 0.00602181 0.002301 0.0168578 0.00256024 0.00552533 0.00178458 0.0238306 0.00257117 0.0135161 0.00345298 0.021549 0.00464784 0.0154353 0.00459424 0.0405576
27 3 O -0.508028 1.05712 0.196716 -1.2 1 0.000355594 0.00282743 0.00310884 0.00414424 0.001404 0.00560052 0.00242074 0.0172703 0.001946 0.00679548 0.00263184 0.0224678 0.00239493 0.012693 0.0030331 0.0212503 0.00426163 0.0152513 0.00427832 0.0400866
28 3 O -0.552171 1.05712 2.79288 -1.2 1 0.000771104 0.00255165 0.00247036 0.00442561 0.00130805 0.00632777 0.00231731 0.0163459 0.00242054 0.00620611 0.00193055 0.0227091 0.00265703 0.0115501 0.00322552 0.0213835 0.00566586 0.0159689 0.0050884 0.0393167
29 1 Mg 6.31713 4.74899 0 1.2 1 0.000902889 0.00258279 0.00193487 0.00457175 0.00241866 0.00621083 0.00325999 0.0181764 0.00271888 0.0072677 0.001975 0.0254554 0.00266214 0.0136691 0.0039771 0.0245609 0.00461787 0.0165304 0.00599961 0.0428795
30 1 Mg 3.54847 9.45668 1.4948 1.2 1 0.00146167 0.00324297 0.00180784 0.00494616 0.00206866 0.00762713 0.00317165 0.0214091 0.00168764 0.00851269 0.0021323 0.0286239 0.00296626 0.0155676 0.00371729 0.0291331 0.00441559 0.0184111 0.00394364 0.0483719
31 2 Si 5.36879 6.77254 1.4948 2.4 1 0.00121677 0.00294169 0.00201664 0.00513298 0.00267345 0.00691578 0.00373914 0.0196552 0.00265332 0.00785114 0.00240386 0.0276519 0.00306052 0.0153156 0.00405995 0.0269156 0.00481699 0.0175568 0.00529492 0.0463252
32 3 O 5.41937 8.38578 1.4948 -1.2 1 0.00142405 0.00307624 0.00161748 0.00512358 0.00220418 0.00772305 0.00315825 0.020969 0.00217567 0.00846683 0.00226938 0.0291649 0.00212404 0.0156168 0.0030191 0.0290119 0.00472773 0.0176992 0.00493916 0.0477343
33 3 O 1.75158 5.79852 1.4948 -1.2 1 0.00160499 0.00338348 0.00153111 0.00411358 0.00232452 0.00598159 0.0032725 0.0195539 0.00277043 0.00734708 0.00255453 0.027874 0.002679 0.0154187 0.00341621 0.0268044 0.00552838 0.0177581 0.00560661 0.0454555
34 3 O 4.67421 6.06637 0.196716 -1.2 1 0.00107671 0.00291802 0.00160941 0.0047177 0.00193339 0.0068089 0.00297669 0.0198903 0.00248799 0.00828203 0.0019227 0.0264361 0.00329575 0.0143072 0.00403488 0.0266411 0.00467317 0.0168724 0.0055153 0.0450072
35 1 Mg 6.26654 4.74899 2.9896 1.2 1 0.00199537 0.00329046 0.00207977 0.0047722 0.00267641 0.00664104 0.00377534 0.0179529 0.00380911 0.00707915 0.00218294 0.0257405 0.00347478 0.0144771 0.00497552 0.0248177 0.00600698 0.0178213 0.00719581 0.0432814
36 3 O 4.63043 6.06637 2.79288 -1.2 1 0.00235251 0.00364355 0.00183996 0.00481499 0.00234494 0.00687309 0.00339486 0.0194359 0.00343661 0.00788779 0.0024433 0.0261007 0.00374314 0.0146649 0.00456166 0.0272397 0.00616445 0.0185848 0.00718336 0.0452433
37 1 Mg -1.12976 4.79031 4.4844 1.2 1 0.00230314 0.00431687 0.00151831 0.00478033 0.0023352 0.00624678 0.00346259 0.0179923 0.00356171 0.00695326 0.00313211 0.0258114 0.00391027 0.0144349 0.00460709 0.0256639 0.00770767 0.0195885 0.00811045 0.0439307
38 2 Si -2.9517 7.47444 4.4844 2.4 1 0.00252761 0.00427051 0.00134499 0.00511006 0.00294269 0.00682197 0.00373206 0.0203305 0.00331486 0.00792574 0.00307455 0.0271866 0.00437007 0.0159486 0.00554462 0.0278128 0.0072436 0.0197479 0.00818621 0.047093
39 3 O -3.00198 5.86121 4.4844 -1.2 1 0.00237583 0.00442665 0.00111542 0.00487505 0.00320124 0.00663525 0.00409537 0.0188121 0.00358163 0.00768344 0.0029239 0.0258036 0.00411121 0.0141489 0.00491671 0.0268206 0.00719656 0.0200298 0.00853839 0.0451007
40 3 O 0.666315 8.44846 4.4844 -1.2 1 0.00247395 0.00503519 0.00145341 0.00511394 0.00299756 0.00760567 0.00287484 0.0211847 0.00305819 0.00798413 0.00325976 0.0282675 0.00482469 0.0160371 0.00476123 0.0288441 0.00652162 0.0203257 0.0079002 0.0482732
41 3 O -2.21213 8.18062 3.18632 -1.2 1 0.00216664 0.00426559 0.00151397 0.00470664 0.00264953 0.00642745 0.00283138 0.0207429 0.00287551 0.00817254 0.00280512 0.0276346 0.00420765 0.0159829 0.00502527 0.0288349 0.00612472 0.0191818 0.00678885 0.048247
42 3 O -2.25864 8.18062 5.78248 -1.2 1 0.0028241 0.00502092 0.00180077 0.00485459 0.00301315 0.00610828 0.00305885 0.0206488 0.00255111 0.00830103 0.00363716 0.0268844 0.00453256 0.0163867 0.0056533 0.0292167 0.00719802 0.0213855 0.00820465 0.0484998
43 1 Mg 1.20893 7.12349 2.9896 1.2 1 0.00189885 0.00394343 0.0015735 0.00438813 0.00280097 0.00678904 0.00371595 0.0196828 0.0028707 0.00808961 0.0026552 0.0280002 0.00333388 0.0156841 0.00390631 0.0274842 0.00581348 0.0187255 0.00652943 0.0465493
44 1 Mg 4.00982 7.08218 4.4844 1.2 1 0.0025007 0.00423129 0.00153962 0.00471586 0.00266218 0.00658046 0.0038828 0.0200488 0.00358996 0.00788162 0.00319816 0.0270393 0.00420274 0.016566 0.00581137 0.0278748 0.00741616 0.0197949 0.00836536 0.0466328
45 2 Si 2.17861 9.14704 4.4844 2.4 1 0.00229262 0.00460669 0.00161523 0.00525031 0.00313117 0.00746111 0.00369678 0.021289 0.00291301 0.00825778 0.00308663 0.0280995 0.00469476 0.0165933 0.00463255 0.0293846 0.00622681 0.0201549 0.00717876 0.0497594
46 3 O 2.18828 10.7603 4.4844 -1.2 1 0.00281651 0.0047263 0.00203937 0.00510456 0.00293338 0.00720222 0.00306267 0.0210507 0.00245168 0.00820635 0.0023667 0.0286678 0.00424892 0.0156627 0.00456254 0.030534 0.00609821 0.0202486 0.00675619 0.0504718
47 3 O -4.43805 8.17302 4.4844 -1.2 1 0.00182208 0.00465762 0.00169131 0.00516805 0.00258335 0.00787695 0.0032329 0.0207732 0.00331045 0.00821086 0.00324459 0.0281696 0.00458208 0.0159853 0.00512731 0.0290176 0.00713568 0.019946 0.00876639 0.0478589
48 3 O 2.89193 8.44087 3.18632 -1.2 1 0.00222723 0.00394842 0.00158308 0.00459873 0.0026326 0.00703001 0.00331868 0.020676 0.00297918 0.00849881 0.00284337 0.0275706 0.00375774 0.0158456 0.00464587 0.0288566 0.00613357 0.0191716 0.00613807 0.0481677
49 1 Mg 1.25915 7.12349 0 1.2 1 0.000847034 0.00310076 0.00152842 0.00440045 0.00175573 0.00723514 0.00293443 0.0202524 0.00274083 0.00834834 0.00229936 0.0277097 0.00326596 0.0143796 0.00325377 0.0275342 0.00461839 0.0175855 0.00428867 0.0460156
50 3 O 2.84547 8.44087 5.78248 -1.2 1 0.00245957 0.00516702 0.00163993 0.00480275 0.00267205 0.00665437 0.00326515 0.0210917 0.0032034 0.00867836 0.00355691 0.0266938 0.00568597 0.0164371 0.00553355 0.0293302 0.00663013 0.0217039 0.00775222 0.048688
51 1 Mg -1.59284 7.16481 1.4948 1.2 1 0.00135506 0.00338001 0.00126961 0.00458653 0.00187717 0.00640091 0.00275773 0.0199755 0.0029692 0.00791166 0.0015707 0.0276516 0.00323852 0.0154228 0.00362987 0.0272212 0.00474317 0.0179354 0.00547189 0.046447
52 2 Si 0.240329 5.09994 1.4948 2.4 1 0.00142547 0.00369186 0.00166429 0.00410814 0.00185793 0.00679458 0.00306173 0.0188981 0.00307179 0.00743491 0.00225833 0.0261231 0.00257792 0.0144893 0.00397432 0.0248261 0.00523603 0.0172224 0.00535675 0.0446018
53 3 O 0.234538 3.48671 1.4948 -1.2 1 0.00168279 0.00363819 0.00226135 0.00429883 0.00186093 0.00647225 0.00262389 0.0179202 0.00340422 0.00706433 0.00238208 0.0246764 0.00292878 0.0135017 0.00388332 0.0240211 0.00556251 0.0162799 0.00547787 0.0421949
54 3 O 6.85564 6.07396 1.4948 -1.2 1 0.00154985 0.00276123 0.00213322 0.00481508 0.00255503 0.00609586 0.00313039 0.0198938 0.00309189 0.00759872 0.00206446 0.0277295 0.00319819 0.0146863 0.00474209 0.0269344 0.00576748 0.0178685 0.00636489 0.0451688
55 3 O -0.429565 5.80612 0.196716 -1.2 1 0.00122924 0.00319771 0.00200315 0.00416949 0.00186011 0.00713037 0.00254256 0.0196188 0.00276823 0.00853168 0.00233615 0.0259362 0.00243883 0.014074 0.00366523 0.0259328 0.00500084 0.0170347 0.00564768 0.0451275
56 3 O -0.473377 5.80612 2.79288 -1.2 1 0.00235546 0.00362246 0.0016335 0.00445713 0.00238387 0.00676656 0.00318522 0.019145 0.00326385 0.00809065 0.00286598 0.0258345 0.00352556 0.0144914 0.0045243 0.0264759 0.00669803 0.0187911 0.00686316 0.0452201
57 1 Mg 6.40169 9.49799 0 1.2 1 0.0007018 0.00362639 0.00152252 0.004898 0.00135297 0.00826357 0.00200285 0.0212084 0.00172806 0.00903487 0.00169777 0.0290219 0.00216477 0.0147601 0.00268719 0.0298066 0.00364834 0.017939 0.00386079 0.0473785
58 1 Mg 3.64209 14.2057 1.4948 1.2 1 0.00160369 0.00340104 0.00151061 0.00511479 0.00169358 0.00891099 0.00151719 0.0217904 0.00159475 0.00870443 0.00229157 0.0287018 0.00265004 0.016069 0.00321453 0.0296232 0.00351348 0.0171848 0.00345921 0.0488304
59 2 Si 5.45748 11.5215 1.4948 2.4 1 0.00164038 0.00344241 0.00168508 0.00499372 0.00179036 0.0083118 0.00219267 0.0212048 0.00136882 0.00835461 0.00172024 0.0291406 0.00263785 0.0161684 0.00335808 0.0293057 0.00411405 0.0171772 0.00371512 0.0488554
60 3 O 5.51101 13.1348 1.4948 -1.2 1 0.0015581 0.00332344 0.00168338 0.00509848 0.0015826 0.00911704 0.00175382 0.0214042 0.00171454 0.00869847 0.00157522 0.0296799 0.00223392 0.0160717 0.00296604 0.0298399 0.00375475 0.0169342 0.00362076 0.0486591
61 3 O 1.83851 10.5475 1.4948 -1.2 1 0.00107345 0.00368182 0.00168044 0.00512416 0.00185224 0.00776243 0.002436 0.0217095 0.00169718 0.00845021 0.00209712 0.0295621 0.00263223 0.0157092 0.00329649 0.029867 0.00420536 0.0180502 0.00354673 0.0488318
62 3 O 4.7611 10.8154 0.196716 -1.2 1 0.000709312 0.00316493 0.00183399 0.00504922 0.00145152 0.00844602 0.00220261 0.0214066 0.00151586 0.0087758 0.00176219 0.0285513 0.00289195 0.015743 0.00383008 0.0295348 0.00365279 0.0173448 0.00340522 0.0483025
63 1 Mg 6.35203 9.49799 2.9896 1.2 1 0.00178806 0.0038792 0.00157122 0.00508646 0.00266326 0.00764292 0.00335569 0.0205655 0.0030826 0.00864879 0.0019466 0.0292766 0.00376538 0.0161627 0.00348423 0.0290771 0.00470012 0.0187768 0.00563618 0.0484057
64 3 O 4.71833 10.8154 2.79288 -1.2 1 0.00259007 0.00376856 0.00160694 0.00495202 0.002184 0.00822228 0.0021882 0.0213875 0.00210782 0.00901299 0.00199578 0.0283847 0.00353723 0.0158478 0.00406002 0.0301216 0.00543183 0.0186119 0.00566059 0.0492941
65 1 Mg -1.0438 9.53931 4.4844 1.2 1 0.00251006 0.00499416 0.00164596 0.00482596 0.00307997 0.00669774 0.0027981 0.0209646 0.00286631 0.00832296 0.00267463 0.0284394 0.00418981 0.0166121 0.00452827 0.0296926 0.00665345 0.0202531 0.00737663 0.0495231
66 2 Si -2.8604 12.2234 4.4844 2.4 1 0.00238646 0.00458118 0.00178794 0.00505768 0.00286503 0.00783406 0.0030692 0.0220793 0.00278181 0.00837964 0.00230777 0.0282236 0.00412716 0.0164642 0.00439571 0.0299978 0.00580615 0.0198755 0.00686666 0.0509048
67 3 O -2.91391 10.6102 4.4844 -1.2 1 0.00265679 0.00486773 0.00190643 0.00486113 0.00283514 0.00715899 0.00330919 0.0207204 0.00266383 0.00778204 0.00217607 0.0285251 0.00444326 0.0158279 0.00440087 0.0304389 0.0060663 0.0201005 0.00689049 0.0498505
68 3 O 0.7596 13.1975 4.4844 -1.2 1 0.00248976 0.00466723 0.00200109 0.00540272 0.00287783 0.008725 0.00268662 0.0224137 0.00282487 0.00838451 0.00278028 0.0288502 0.00422001 0.0163865 0.00431243 0.0300354 0.00610826 0.0200407 0.00690695 0.0508047
69 3 O -2.12001 12.9296 3.18632 -1.2 1 0.00258526 0.00406681 0.00181671 0.00474566 0.00255036 0.00774294 0.00230552 0.0219286 0.0024087 0.00833886 0.00226111 0.0282207 0.00382555 0.0163265 0.00460765 0.0303801 0.00522346 0.0187712 0.00555991 0.0502464
70 3 O -2.16532 12.9296 5.78248 -1.2 1 0.00313367 0.00495477 0.00175306 0.00499827 0.00292812 0.00715013 0.0025483 0.021995 0.00256938 0.00816387 0.00283014 0.027962 0.00415733 0.0168579 0.00475806 0.0308587 0.00634803 0.0215419 0.00717307 0.0518997
71 1 Mg 1.29891 11.8725 2.9896 1.2 1 0.00191161 0.00387018 0.00183294 0.0051904 0.00251406 0.00805041 0.00288142 0.0211343 0.00242226 0.00869011 0.00217614 0.0292532 0.00358987 0.0161903 0.00368621 0.0298957 0.00473115 0.0183001 0.00506155 0.0492081
72 1 Mg 4.10033 11.8312 4.4844 1.2 1 0.00284654 0.00440925 0.00209842 0.00496513 0.00264803 0.00739753 0.00278963 0.0215939 0.00264525 0.00831763 0.00286992 0.0287934 0.00376681 0.0172303 0.00533672 0.030429 0.00666178 0.0201503 0.00647814 0.0506221
73 2 Si 2.27333 13.896 4.4844 2.4 1 0.00236863 0.00415896 0.00186995 0.00548666 0.00304527 0.00802188 0.00316037 0.0220066 0.00246629 0.00823521 0.00289537 0.0282908 0.00388172 0.0166509 0.00431404 0.030195 0.00571033 0.0195302 0.00635267 0.0517254
74 3 O 2.28634 15.5093 4.4844 -1.2 1 0.00274596 0.00456852 0.00198712 0.00520109 0.00314063 0.00755311 0.00289344 0.0212753 0.00284291 0.00760943 0.00233052 0.0288062 0.0034104 0.0159695 0.00401328 0.0307927 0.00576271 0.0193445 0.00653772 0.0511933
75 3 O -4.34533 12.922 4.4844 -1.2 1 0.00249948 0.00461835 0.00201717 0.0053407 0.00295676 0.00863179 0.00300747 0.0220456 0.0028722 0.00845347 0.0025191 0.0291738 0.00403111 0.0163891 0.00497687 0.0303201 0.00658471 0.0201946 0.00736796 0.0507814
76 3 O 2.98455 13.1899 3.18632 -1.2 1 0.00234524 0.00391276 0.00173276 0.00487742 0.00260066 0.00794882 0.00221314 0.0220425 0.00221049 0.00862805 0.00234588 0.0281287 0.0036479 0.0160569 0.0044729 0.03021 0.0057348 0.0188929 0.00559448 0.0500665
77 1 Mg 1.34779 11.8725 0 1.2 1 0.000559484 0.00326367 0.00130607 0.00519705 0.00133414 0.00891643 0.00154998 0.0214304 0.00120071 0.00919646 0.001842 0.0291769 0.00280692 0.0148547 0.00295157 0.0301354 0.00312428 0.0174714 0.00307034 0.0476567
78 3 O 2.93934 13.1899 5.78248 -1.2 1 0.00310934 0.00494912 0.00210013 0.00539339 0.00274354 0.00726331 0.0026495 0.0222357 0.00251952 0.00829599 0.00310194 0.0276901 0.00459267 0.0169752 0.00498142 0.0311043 0.00625868 0.0219705 0.00691426 0.0521343
79 1 Mg -1.50344 11.9138 1.4948 1.2 1 0.000953989 0.00356871 0.00146265 0.00479729 0.00137344 0.00828856 0.00169422 0.0218016 0.00240127 0.00857645 0.00150119 0.0288864 0.00352018 0.016056 0.00341165 0.0297553 0.00360617 0.0177811 0.00367396 0.048725
80 2 Si 0.326006 9.84894 1.4948 2.4 1 0.000896213 0.00361245 0.0013737 0.00520593 0.00183084 0.0081595 0.00204152 0.0212547 0.0021155 0.00849928 0.00151511 0.0286098 0.00285688 0.015698 0.00359113 0.0288788 0.0038927 0.0179853 0.00337104 0.0482274
81 3 O 0.317364 8.23571 1.4948 -1.2 1 0.00173863 0.00369051 0.00104422 0.00462536 0.00183754 0.00769849 0.00215725 0.0204029 0.00260814 0.00809486 0.0015768 0.0287558 0.00337185 0.0157282 0.00379079 0.0285881 0.00462282 0.0179319 0.00424435 0.0473393
82 3 O 6.94307 10.823 1.4948 -1.2 1 0.00120603 0.00365209 0.00132846 0.00474442 0.00191615 0.00766973 0.0024252 0.0219906 0.00234304 0.0085253 0.00154608 0.029557 0.00319259 0.0157049 0.00351843 0.029849 0.00388896 0.0182131 0.00414685 0.0487359
83 3 O -0.343122 10.5551 0.196716 -1.2 1 0.000654746 0.00324929 0.00118871 0.00502125 0.00129051 0.00848926 0.00179562 0.0213852 0.00171642 0.00899634 0.0019714 0.0283018 0.00313754 0.015189 0.00389839 0.0295912 0.003656 0.0176396 0.00336579 0.0480547
84 3 O -0.385966 10.5551 2.79288 -1.2 1 0.00235268 0.00395474 0.00129835 0.00475866 0.00272694 0.00804048 0.00221169 0.0215281 0.00201813 0.00894876 0.00236528 0.0279408 0.00381736 0.0159073 0.00408585 0.0299426 0.00525181 0.0187582 0.00522075 0.049406
85 1 Mg 6.49448 14.247 0 1.2 1 0.00067237 0.00332954 0.00155015 0.00513117 0.00111794 0.00936112 0.00115712 0.0213727 0.00128881 0.00869065 0.00145161 0.0291788 0.0017161 0.0153694 0.00252501 0.0301104 0.00313351 0.0168264 0.00288958 0.0476251
86 1 Mg 3.74457 18.9547 1.4948 1.2 1 0.0020521 0.00322591 0.00139643 0.00439561 0.00196311 0.00865996 0.00127741 0.0223922 0.0018712 0.00803609 0.00233858 0.0280551 0.00250435 0.0164853 0.00357787 0.0288873 0.00359407 0.0167778 0.00340135 0.0496055
87 2 Si 5.55495 16.2705 1.4948 2.4 1 0.00204593 0.00296139 0.00137047 0.0050105 0.0019619 0.00901724 0.00146626 0.0215667 0.00124895 0.00794141 0.001222 0.0289938 0.00238921 0.0162028 0.00290033 0.0290032 0.00369746 0.0161751 0.00359461 0.0490531
88 3 O 5.6115 17.8838 1.4948 -1.2 1 0.00204834 0.00286731 0.0014995 0.00462197 0.00192789 0.00923117 0.00156404 0.0218636 0.00193846 0.00785775 0.00152036 0.0291031 0.00210968 0.0164305 0.00281187 0.0289646 0.00327728 0.0161594 0.0035574 0.0491755
89 3 O 1.93416 15.2965 1.4948 -1.2 1 0.001529 0.00326186 0.00149334 0.00507475 0.00186744 0.00848179 0.00194043 0.0220983 0.0017733 0.00812131 0.00145449 0.0294538 0.00220118 0.0162094 0.00295925 0.0297834 0.00366496 0.0169555 0.00329478 0.0493955
90 3 O 4.85636 15.5644 0.196716 -1.2 1 0.00132319 0.00281299 0.00121152 0.00509441 0.00136303 0.00930569 0.00116357 0.0213611 0.000978891 0.00818881 0.00163185 0.0283732 0.00254914 0.0159213 0.00323225 0.0294532 0.00311081 0.0162437 0.00299001 0.0484329
91 1 Mg 6.44662 14.247 2.9896 1.2 1 0.00164825 0.00375185 0.00145157 0.00500389 0.00258684 0.0085768 0.00284926 0.0211476 0.00255011 0.00856106 0.00168035 0.0295565 0.00315706 0.0163016 0.00313159 0.0296716 0.00403345 0.0179024 0.00482769 0.0492361
92 3 O 4.81537 15.5644 2.79288 -1.2 1 0.00250053 0.00343206 0.00146888 0.00484232 0.00240568 0.0088451 0.00171804 0.0219277 0.00160438 0.00848443 0.00174436 0.0283584 0.00284218 0.016235 0.00360737 0.0297329 0.00480993 0.0176482 0.00500104 0.0498764
93 1 Mg -0.948271 14.2883 4.4844 1.2 1 0.00276714 0.00428142 0.00188262 0.00488559 0.00285188 0.00796889 0.00272658 0.0218193 0.00270723 0.00828169 0.00276977 0.0287505 0.00360005 0.0169289 0.00488472 0.0302446 0.00610264 0.0194204 0.00662347 0.0509726
94 2 Si -2.75928 16.9724 4.4844 2.4 1 0.0026218 0.00402707 0.00192716 0.0049861 0.00286586 0.00809269 0.00290149 0.0223542 0.00270377 0.00766491 0.00252315 0.0284319 0.0034881 0.0168726 0.00464327 0.0294997 0.00508863 0.019171 0.00589564 0.0517299
95 3 O -2.81617 15.3592 4.4844 -1.2 1 0.00309266 0.00426904 0.00194077 0.00487149 0.00302082 0.00774863 0.00308588 0.0213481 0.00262897 0.00752773 0.00235736 0.0289282 0.00367007 0.01601 0.00434707 0.0303117 0.00595093 0.0191365 0.00653822 0.0509966
96 3 O 0.862762 17.9465 4.4844 -1.2 1 0.00273205 0.00444351 0.00181282 0.00522483 0.00298656 0.00856865 0.00261232 0.0225466 0.00269733 0.00776733 0.00243297 0.0290772 0.00387108 0.0168887 0.00434982 0.0293507 0.00585135 0.0192708 0.00632396 0.0514815
97 3 O -2.0185 17.6786 3.18632 -1.2 1 0.00234837 0.00347871 0.00184734 0.00451334 0.00271832 0.00789077 0.00234267 0.0226436 0.00227371 0.00775808 0.00202802 0.0279824 0.00351025 0.0165708 0.00435825 0.0297971 0.00488021 0.0180085 0.00506509 0.0507871
98 3 O -2.06164 17.6786 5.78248 -1.2 1 0.0030418 0.0045816 0.00176571 0.00512545 0.00273727 0.00737969 0.00246212 0.022541 0.00271175 0.00787656 0.00283123 0.0280654 0.00357204 0.0174737 0.00504044 0.0308286 0.00588799 0.0212875 0.00635608 0.05325
99 1 Mg 1.39817 16.6215 2.9896 1.2 1 0.00206122 0.00357613 0.00169459 0.00505008 0.00263946 0.00863135 0.00250317 0.0214168 0.00251608 0.00797012 0.00204633 0.0290837 0.00272988 0.0165572 0.00318713 0.0295102 0.00407656 0.0173085 0.0044878 0.0498928
100 1 Mg 4.20062 16.5802 4.4844 1.2 1 0.00264933 0.00377475 0.00196949 0.00488777 0.0027278 0.0078735 0.0024202 0.0220232 0.00296171 0.00762587 0.00290004 0.028736 0.00350754 0.0172488 0.00548523 0.0299433 0.00646433 0.019413 0.00644298 0.0514706
101 2 Si 2.37796 18.645 4.4844 2.4 1 0.00229668 0.00381547 0.00158008 0.00510025 0.00308467 0.00821813 0.00280807 0.0225871 0.00266302 0.0077862 0.00261926 0.0281109 0.00349242 0.0170586 0.00438804 0.0294493 0.00523722 0.0190681 0.00597982 0.0526841
102 3 O 2.39434 20.2583 4.4844 -1.2 1 0.00226126 0.00401872 0.00170961 0.00500981 0.00299653 0.00730112 0.00253563 0.0218199 0.00275394 0.00726623 0.00190889 0.0288575 0.00339458 0.0166149 0.00415964 0.0299541 0.00577801 0.0191517 0.00661668 0.0521896
103 3 O -4.24274 17.671 4.4844 -1.2 1 0.00235587 0.00400505 0.00185356 0.00498344 0.00278964 0.00868027 0.00268298 0.0227964 0.00282335 0.00787941 0.00234405 0.0289327 0.00337522 0.0167553 0.00488908 0.0296907 0.00593593 0.0194948 0.00645036 0.0515936
104 3 O 3.08659 17.9389 3.18632 -1.2 1 0.00220472 0.00333411 0.00169912 0.00458587 0.00276128 0.00814426 0.00202218 0.022333 0.00231683 0.00784853 0.00213441 0.0279109 0.00328681 0.0164944 0.00421776 0.0294898 0.0053208 0.0180711 0.00554833 0.0508917
105 1 Mg 1.44478 16.6215 0 1.2 1 0.00189846 0.0028907 0.00107147 0.00475994 0.00157347 0.00901887 0.00119832 0.0215978 0.00130379 0.00826346 0.0014121 0.0289503 0.00236597 0.0156666 0.00230105 0.0292519 0.00298055 0.0163733 0.00309602 0.0480598
106 3 O 3.0436 17.9389 5.78248 -1.2 1 0.00269837 0.00458428 0.00171759 0.00528753 0.00272475 0.00730948 0.00250126 0.0225293 0.00236462 0.00802875 0.00268109 0.0277325 0.00368859 0.0171205 0.00495421 0.0308049 0.00600152 0.0215265 0.00640537 0.0531257
107 1 Mg -1.40524 16.6628 1.4948 1.2 1 0.00144304 0.00336703 0.00123175 0.00486174 0.00178402 0.00895277 0.00183034 0.0222821 0.00182212 0.00816877 0.00166888 0.0286233 0.00315244 0.0165906 0.00292523 0.0294454 0.0029662 0.0170277 0.00318998 0.0490947
108 2 Si 0.420358 14.5979 1.4948 2.4 1 0.00142978 0.00309824 0.00148907 0.0052998 0.00201698 0.00916109 0.00185132 0.0215418 0.00153494 0.00829219 0.00134667 0.0288167 0.00297943 0.0163724 0.00353006 0.028926 0.00348674 0.0167132 0.00335221 0.0488805
109 3 O 0.408732 12.9847 1.4948 -1.2 1 0.00143722 0.00327566 0.00128291 0.00521278 0.00181613 0.00907186 0.00141445 0.0213299 0.0020843 0.00847602 0.00144604 0.029344 0.00308176 0.0159157 0.00309179 0.0299089 0.00326981 0.0171588 0.00351872 0.0487314
110 3 O 7.03923 15.572 1.4948 -1.2 1 0.00146889 0.00326142 0.00134207 0.00487863 0.00213273 0.00849274 0.00230609 0.0218792 0.00204731 0.00802345 0.00139812 0.0296278 0.00265094 0.0162529 0.0028978 0.0296979 0.00342607 0.0170077 0.0037037 0.0491659
111 3 O -0.248332 15.3041 0.196716 -1.2 1 0.0013838 0.00290749 0.00123774 0.00501821 0.00120184 0.00918375 0.00158724 0.0214703 0.00113692 0.00847597 0.00156987 0.0284308 0.00293355 0.0157366 0.00382491 0.0291885 0.00315164 0.0163855 0.00324731 0.0481954
112 3 O -0.289436 15.3041 2.79288 -1.2 1 0.00223577 0.00366333 0.0013883 0.00484806 0.00251536 0.00872775 0.0018753 0.0220783 0.0018036 0.00860433 0.00196679 0.0277987 0.0031329 0.0164523 0.00367101 0.0297757 0.00453631 0.0179286 0.00462282 0.0498526
113 1 Mg 6.59566 18.996 0 1.2 1 0.00129734 0.00310709 0.00144045 0.00456308 0.00119394 0.00879664 0.000985033 0.0220603 0.00124254 0.00785571 0.00133834 0.0285164 0.00203307 0.0162379 0.00222498 0.0288237 0.00286077 0.0162609 0.00298748 0.0482984
114 1 Mg 3.85574 23.7037 1.4948 1.2 1 0.00201771 0.00240847 0.00119711 0.00424515 0.00168579 0.00749508 0.00130809 0.0232759 0.0018994 0.00761059 0.00230686 0.0274269 0.00255169 0.0175083 0.00376275 0.0285453 0.00358051 0.0174753 0.00352665 0.0507224
115 2 Si 5.66125 21.0195 1.4948 2.4 1 0.00199446 0.00228954 0.00124688 0.00425809 0.00221297 0.00811557 0.00150497 0.0220578 0.0013752 0.00754608 0.00157721 0.0283799 0.00248596 0.0172162 0.0026942 0.028167 0.0037509 0.0161918 0.00395281 0.0499567
116 3 O 5.72074 22.6328 1.4948 -1.2 1 0.0020336 0.00237253 0.00154445 0.00413964 0.00188634 0.00812665 0.00154239 0.0225033 0.00196641 0.00732493 0.00142793 0.028246 0.00214457 0.0171936 0.00290316 0.0284841 0.0034483 0.016629 0.00377329 0.0500307
117 3 O 2.03867 20.0455 1.4948 -1.2 1 0.00170193 0.00300371 0.0013532 0.00454674 0.00196856 0.00792155 0.00198677 0.0224953 0.00215221 0.00749687 0.00147038 0.0288987 0.00214228 0.0171077 0.00254953 0.0289227 0.00376834 0.0165377 0.00358204 0.0500749
118 3 O 4.96004 20.3134 0.196716 -1.2 1 0.00198788 0.00225278 0.00125965 0.00423707 0.00149752 0.00832619 0.00107345 0.0218763 0.0011689 0.00762309 0.00157942 0.0280356 0.00283599 0.0165273 0.00380273 0.0288149 0.00312153 0.0155872 0.00299358 0.0492084
119 1 Mg 6.55057 18.996 2.9896 1.2 1 0.00148748 0.0032374 0.00137455 0.00446753 0.0026948 0.00828286 0.00275692 0.0216841 0.00239604 0.00781227 0.00172752 0.0292731 0.00286084 0.0168368 0.00309716 0.0289197 0.00403981 0.0174464 0.00466538 0.0500589