ITEM: TIMESTEP
7900
ITEM: NUMBER OF ATOMS
10500
ITEM: BOX BOUNDS xy xz yz pp pp pp
0	15.2974	5.099
0	118.725	0
0	89.688	0
ITEM: ATOMS id type element xu yu zu q Q_1 Q_2 Q_3 Q_4 Q_5 Q_6 Q_7 Q_8 Q_9 Q_10 Q_11 Q_12 Q_13 Q_14 Q_15 Q_16 Q_17 Q_18 Q_19 Q_20 Q_21
1 1 Mg 6.2404 -6.37941e-06 0 1.2 1 0.00142831 0.0042757 0.00107986 0.00489231 0.00128985 0.00565644 0.00220473 0.0163322 0.00209342 0.00572835 0.00219487 0.0218759 0.00251713 0.0135418 0.00337649 0.0208216 0.00409124 0.014348 0.00400112 0.0405938
2 1 Mg 3.46349 4.70768 1.4948 1.2 1 0.00151637 0.00334193 0.0017043 0.00449654 0.00217874 0.00612869 0.00345159 0.018837 0.00291059 0.0068738 0.00308689 0.0258296 0.00348379 0.0139754 0.00457252 0.0253313 0.00514185 0.0172369 0.00564308 0.0441391
3 2 Si 5.2885 2.02354 1.4948 2.4 1 0.000937909 0.003332 0.0019799 0.00459672 0.00188492 0.00582243 0.00255847 0.0171178 0.00246866 0.00612932 0.00220466 0.0233601 0.00285802 0.0135535 0.0037099 0.0217916 0.00390824 0.0154197 0.00435459 0.0413775
4 3 O 5.33628 3.63678 1.4948 -1.2 1 0.00088014 0.00281164 0.00167688 0.00472325 0.0021207 0.00632243 0.0028751 0.0178758 0.00227991 0.00672419 0.00205339 0.0251962 0.00261444 0.0136076 0.00438842 0.0241796 0.00488785 0.0166022 0.00579348 0.0428858
5 3 O 1.67294 1.04952 1.4948 -1.2 1 0.00156834 0.00344191 0.0020114 0.00412625 0.00138483 0.00586304 0.00258688 0.0169898 0.00245321 0.00607897 0.0021658 0.0228015 0.0026388 0.0129452 0.00344919 0.022025 0.0046904 0.0156279 0.00483365 0.0402937
6 3 O 4.59532 1.31737 0.196716 -1.2 1 0.00134408 0.00312036 0.0019312 0.00441316 0.00194503 0.00570318 0.0024513 0.0171617 0.00277474 0.00620765 0.00195811 0.0224467 0.00320823 0.0128364 0.00406614 0.0217081 0.00413991 0.0150078 0.00461247 0.0409126
7 1 Mg 6.18956 -6.37941e-06 2.9896 1.2 1 0.00103702 0.00447586 0.0016663 0.00426985 0.00128896 0.00585864 0.00255457 0.0160843 0.0026451 0.0054845 0.00187279 0.0223147 0.00260888 0.0133979 0.00361115 0.0208448 0.00448766 0.0148321 0.0049014 0.0390102
8 3 O 4.55118 1.31737 2.79288 -1.2 1 0.00142616 0.00439565 0.00180961 0.00425096 0.00199351 0.00571634 0.00277526 0.0169438 0.00241532 0.00683763 0.00248108 0.0217553 0.00348576 0.0123718 0.00355468 0.0216412 0.00479178 0.0156508 0.00532083 0.0400212
9 1 Mg -1.20682 0.0413099 4.4844 1.2 1 0.000561463 0.00311738 0.00177424 0.0047602 0.00131274 0.00570693 0.00205259 0.0162415 0.00226311 0.00574512 0.00209575 0.022556 0.00289723 0.0115119 0.00352431 0.0209025 0.00532028 0.0156441 0.00538758 0.0386836
10 2 Si -3.0337 2.72544 4.4844 2.4 1 0.000432243 0.00322794 0.00174554 0.00489563 0.00232837 0.00630652 0.00344535 0.0168645 0.00321466 0.0060193 0.00243358 0.0240197 0.00335744 0.0126749 0.0041506 0.0226278 0.00528831 0.0176641 0.00646962 0.0397356
11 3 O -3.08099 1.11221 4.4844 -1.2 1 0.000440166 0.00372433 0.00180721 0.00434104 0.00144735 0.00564238 0.00236026 0.0162035 0.00285883 0.00553901 0.00223504 0.0224026 0.00323708 0.0112701 0.00361342 0.0213889 0.00495036 0.0163045 0.00578204 0.0385835
12 3 O 0.582463 3.69946 4.4844 -1.2 1 0.00142195 0.00467485 0.00216635 0.0045786 0.00268657 0.00663794 0.00356038 0.0175344 0.00325536 0.00626977 0.00347761 0.0249257 0.00426897 0.0129033 0.00448077 0.0244604 0.00665966 0.0186854 0.00811712 0.0419138
13 3 O -2.29524 3.43162 3.18632 -1.2 1 0.000738982 0.00281305 0.00269802 0.00460216 0.00237101 0.00603203 0.00307753 0.0180434 0.00316879 0.00668561 0.00283269 0.0245354 0.0033887 0.0128163 0.00473078 0.0244682 0.00573237 0.0179832 0.0068015 0.0420031
14 3 O -2.34216 3.43162 5.78248 -1.2 1 0.0014363 0.00410243 0.00103789 0.00507626 0.00255077 0.00607333 0.0032562 0.0171625 0.00282762 0.00675924 0.00287387 0.0235701 0.00439837 0.0122042 0.00410688 0.0234941 0.00639664 0.0193345 0.00798807 0.0404689
15 1 Mg 1.12778 2.37449 2.9896 1.2 1 0.00143035 0.00383778 0.00227311 0.00449132 0.00237836 0.00595372 0.00311515 0.0168457 0.00272894 0.00621923 0.00266262 0.0236954 0.00334168 0.0130418 0.00352777 0.0222119 0.00489469 0.0165034 0.00560094 0.0410237
16 1 Mg 3.92855 2.33318 4.4844 1.2 1 0.00134162 0.00411169 0.00143178 0.0042749 0.00193037 0.005858 0.00362249 0.0168338 0.00304199 0.00595637 0.00312892 0.023053 0.00366121 0.0132836 0.00515598 0.0222059 0.00616975 0.0171308 0.00701448 0.0403367
17 2 Si 2.09341 4.39804 4.4844 2.4 1 0.00123129 0.00427823 0.00182016 0.0041543 0.0031216 0.00586294 0.00384636 0.0183192 0.00340274 0.00655415 0.00357314 0.0251675 0.00454387 0.0139259 0.0044317 0.0250412 0.00677184 0.0185325 0.00842554 0.043543
18 3 O 2.09991 6.01128 4.4844 -1.2 1 0.00183853 0.00467519 0.00140878 0.00422977 0.00308247 0.00642878 0.00345275 0.0193788 0.00277529 0.00719036 0.00318204 0.0266925 0.00423283 0.0143299 0.00463941 0.027591 0.00688107 0.019779 0.00839664 0.0454249
19 3 O -4.52137 3.42402 4.4844 -1.2 1 0.00138616 0.00356133 0.00206924 0.00463409 0.00232319 0.00713136 0.00363412 0.0170691 0.00323115 0.00618997 0.00319049 0.0237643 0.00397405 0.0126872 0.00430874 0.0231002 0.00612175 0.0177398 0.00782071 0.0412689
20 3 O 2.80834 3.69187 3.18632 -1.2 1 0.0013086 0.00383664 0.00159194 0.00370675 0.00216237 0.0057799 0.003051 0.0176094 0.00300696 0.00635797 0.00300519 0.0243144 0.00359774 0.0130697 0.00473512 0.024084 0.00567345 0.0172745 0.00644451 0.0428612
21 1 Mg 1.17857 2.37449 0 1.2 1 0.00219528 0.00347232 0.00222773 0.00419932 0.0014621 0.00555257 0.00244045 0.0172253 0.00247863 0.00647729 0.00273032 0.0232921 0.00272187 0.0132399 0.00365754 0.021806 0.0044283 0.015021 0.00495126 0.0408844
22 3 O 2.76143 3.69187 5.78248 -1.2 1 0.0016675 0.00453006 0.00153845 0.00440455 0.00215382 0.00547323 0.00304249 0.0176023 0.00325007 0.00675439 0.00306471 0.0231294 0.00460457 0.0127332 0.00544215 0.0233554 0.00640296 0.0187677 0.0077685 0.0410555
23 1 Mg -1.67381 2.41581 1.4948 1.2 1 0.00147864 0.00260136 0.00266158 0.00480909 0.00146295 0.00591916 0.0024514 0.0167084 0.00288539 0.00642007 0.00216882 0.0241005 0.00257341 0.0140598 0.00281132 0.0224753 0.00435075 0.0161436 0.00489662 0.0416592
24 2 Si 0.16286 0.350945 1.4948 2.4 1 0.0016213 0.00278732 0.00278619 0.00451737 0.00132016 0.00636855 0.00279052 0.0165688 0.00224089 0.00528591 0.0019385 0.0229535 0.00238742 0.0135866 0.00314127 0.0208718 0.00464234 0.0148263 0.00431865 0.040429
25 3 O 0.15972 -1.26229 1.4948 -1.2 1 0.00173901 0.00290302 0.00301508 0.00453897 0.00182161 0.00610142 0.00257587 0.016501 0.00226008 0.00543265 0.00245961 0.0226594 0.00257355 0.0138643 0.00285877 0.0218835 0.00420989 0.0146764 0.00401167 0.040669
26 3 O 6.77654 1.32496 1.4948 -1.2 1 0.00134046 0.00379455 0.00164228 0.00456231 0.00123796 0.00603566 0.00242158 0.0168714 0.00249555 0.00551119 0.00184314 0.023737 0.00277711 0.0136468 0.00356934 0.0220492 0.00462124 0.0153858 0.00445419 0.0407855
27 3 O -0.508028 1.05712 0.196716 -1.2 1 0.00155215 0.0028022 0.00347759 0.00422149 0.00132809 0.00567787 0.00251719 0.0170761 0.00187941 0.00666496 0.00244846 0.0221064 0.00259602 0.012992 0.00327328 0.0213435 0.00435439 0.0151841 0.00443826 0.0401618
28 3 O -0.552171 1.05712 2.79288 -1.2 1 0.000783076 0.00244723 0.00292543 0.00460668 0.00136197 0.00615945 0.00241295 0.0163522 0.00250368 0.0061808 0.00179256 0.0228575 0.0029711 0.0117847 0.00375096 0.021845 0.00524602 0.0159166 0.00501053 0.0396533
29 1 Mg 6.31713 4.74899 0 1.2 1 0.00125655 0.00259965 0.00168176 0.00477534 0.00246684 0.00619796 0.00308859 0.0181756 0.00284545 0.00709776 0.00226158 0.02521 0.00293066 0.013843 0.00409867 0.0246347 0.0046772 0.0165578 0.00607069 0.0429991
30 1 Mg 3.54847 9.45668 1.4948 1.2 1 0.000823151 0.0033264 0.00190703 0.00481087 0.00228505 0.0075925 0.00312405 0.0214387 0.00180663 0.00827925 0.00255977 0.0286378 0.00339557 0.0155632 0.00390149 0.029179 0.00431501 0.0182785 0.00398552 0.0489731
31 2 Si 5.36879 6.77254 1.4948 2.4 1 0.000761152 0.00290147 0.00197531 0.00510766 0.00290988 0.00687083 0.00369857 0.0197011 0.00281591 0.00783665 0.00267974 0.0276971 0.00325929 0.0152249 0.00429176 0.0269539 0.00465006 0.0174256 0.00526857 0.0466251
32 3 O 5.41937 8.38578 1.4948 -1.2 1 0.000673768 0.00295964 0.00176463 0.00519487 0.00252605 0.00766822 0.00306746 0.0211159 0.00234015 0.00835803 0.00256183 0.0290481 0.00248047 0.0155529 0.00317104 0.0290823 0.00457151 0.017772 0.00496527 0.0481593
33 3 O 1.75158 5.79852 1.4948 -1.2 1 0.00125259 0.00341658 0.00174733 0.00404062 0.00260856 0.00601725 0.00324339 0.0196729 0.00289182 0.00732727 0.00279388 0.0278869 0.00301147 0.0153883 0.00353802 0.0269038 0.00527569 0.0177855 0.00551561 0.0457829
34 3 O 4.67421 6.06637 0.196716 -1.2 1 0.00143921 0.0027883 0.00161831 0.00488613 0.00209291 0.00691489 0.00283888 0.0198585 0.00249382 0.00809363 0.00236776 0.0261884 0.003735 0.0141963 0.00439971 0.0266709 0.00468769 0.0169129 0.0055161 0.0452752
35 1 Mg 6.26654 4.74899 2.9896 1.2 1 0.00148254 0.00302907 0.00209212 0.00492256 0.0027032 0.00650441 0.00385303 0.0180561 0.00376478 0.0070078 0.00221727 0.0259526 0.00378702 0.0142937 0.00499643 0.0251113 0.00575859 0.0178957 0.00713595 0.0436343
36 3 O 4.63043 6.06637 2.79288 -1.2 1 0.00179051 0.00341989 0.00172582 0.0049426 0.00240587 0.00680156 0.00359523 0.019645 0.00332165 0.00780055 0.0025527 0.0260977 0.00398353 0.0144515 0.00464048 0.0272702 0.00581895 0.0185927 0.00694617 0.0456627
37 1 Mg -1.12976 4.79031 4.4844 1.2 1 0.00137127 0.00410984 0.00175849 0.00497036 0.00258244 0.0064395 0.00333894 0.0183869 0.00360443 0.00704375 0.00313989 0.02595 0.00407666 0.0140752 0.0048591 0.0258462 0.0076361 0.0194727 0.00822714 0.044246
38 2 Si -2.9517 7.47444 4.4844 2.4 1 0.0018454 0.00403392 0.00155028 0.00545801 0.00319089 0.00657983 0.00396167 0.0206776 0.00304095 0.00776424 0.00306709 0.0277619 0.0046682 0.0156405 0.00538447 0.0279363 0.00691865 0.019778 0.00819244 0.0476674
39 3 O -3.00198 5.86121 4.4844 -1.2 1 0.00163881 0.0043059 0.00123676 0.00515315 0.00320771 0.00642367 0.00418649 0.0192435 0.00345852 0.00753723 0.00279122 0.0260299 0.00446701 0.0138458 0.00474114 0.0269504 0.00681688 0.0198427 0.00843088 0.0457278
40 3 O 0.666315 8.44846 4.4844 -1.2 1 0.00233685 0.00488728 0.00132172 0.00528438 0.0030873 0.00739126 0.00337455 0.0215823 0.00312988 0.00783377 0.00338704 0.0284249 0.00471162 0.0157787 0.00463675 0.029159 0.0063945 0.0204932 0.00788068 0.0487948
41 3 O -2.21213 8.18062 3.18632 -1.2 1 0.00121562 0.00397598 0.00176734 0.00476635 0.00280786 0.00641824 0.00301879 0.0210686 0.00289352 0.00828208 0.00276491 0.0277259 0.0044142 0.0155139 0.00503431 0.0288582 0.00587729 0.019243 0.00675141 0.0485686
42 3 O -2.25864 8.18062 5.78248 -1.2 1 0.00265655 0.00463041 0.0014408 0.00532316 0.00311495 0.00604634 0.00306098 0.0209106 0.00243339 0.00834898 0.00354341 0.0271717 0.00460736 0.0160823 0.00546369 0.0290634 0.00728279 0.0213066 0.00838105 0.0493298
43 1 Mg 1.20893 7.12349 2.9896 1.2 1 0.00118149 0.00408219 0.00184484 0.00458985 0.00306282 0.00670497 0.00377633 0.01986 0.00288801 0.00802099 0.00281572 0.027942 0.0035244 0.0155978 0.00381103 0.0275332 0.00556888 0.0186387 0.00641911 0.0470203
44 1 Mg 4.00982 7.08218 4.4844 1.2 1 0.00207581 0.00413041 0.001678 0.00503153 0.00280458 0.00660528 0.00397153 0.0201414 0.00338904 0.00753149 0.00326661 0.0275595 0.00425219 0.0162525 0.00576012 0.0281864 0.00705733 0.0197261 0.00833871 0.0472564
45 2 Si 2.17861 9.14704 4.4844 2.4 1 0.00184385 0.00429864 0.00164463 0.00521078 0.00320723 0.00726315 0.0037582 0.021469 0.00292258 0.00819128 0.00305934 0.028261 0.00485277 0.0162188 0.00452221 0.0295831 0.00593299 0.0203993 0.00709295 0.0502578
46 3 O 2.18828 10.7603 4.4844 -1.2 1 0.00254048 0.00424486 0.0020222 0.00510959 0.0031061 0.00716101 0.00314813 0.0213809 0.00263453 0.00809222 0.00217062 0.0288478 0.00423482 0.0156847 0.00420555 0.0305653 0.00618693 0.0204118 0.00682765 0.051275
47 3 O -4.43805 8.17302 4.4844 -1.2 1 0.00133246 0.00441042 0.00188793 0.00553873 0.00276923 0.00763346 0.00324941 0.0210327 0.0031387 0.00820916 0.00309694 0.028618 0.00481427 0.0157234 0.00479037 0.0292245 0.00655565 0.0201092 0.00870142 0.0484936
48 3 O 2.89193 8.44087 3.18632 -1.2 1 0.00148234 0.00378078 0.00194385 0.00477487 0.00283287 0.00714023 0.00340141 0.0207673 0.00277253 0.00837404 0.00288172 0.027837 0.00394362 0.0158018 0.00454218 0.0288759 0.00594869 0.0190277 0.00591329 0.0488964
49 1 Mg 1.25915 7.12349 0 1.2 1 0.00159219 0.00296634 0.00143938 0.00418442 0.00187261 0.00725149 0.00286247 0.020321 0.00288389 0.0081407 0.00258029 0.0275855 0.00337712 0.0143581 0.00358852 0.0276478 0.00464864 0.0176796 0.00454171 0.0462977
50 3 O 2.84547 8.44087 5.78248 -1.2 1 0.00285914 0.00455462 0.00156802 0.00503833 0.00280046 0.00670523 0.0034825 0.0211161 0.00303186 0.00865673 0.00338211 0.0269596 0.0054425 0.0160322 0.00529624 0.0294799 0.00630886 0.0219247 0.00790635 0.0494292
51 1 Mg -1.59284 7.16481 1.4948 1.2 1 0.00133035 0.00306412 0.00156951 0.00466186 0.00199407 0.00648545 0.00276625 0.0200447 0.00290453 0.00785237 0.0020523 0.0278918 0.00344334 0.0156119 0.00370984 0.027108 0.00461978 0.0177482 0.00555355 0.0468174
52 2 Si 0.240329 5.09994 1.4948 2.4 1 0.00135539 0.00352477 0.00199817 0.00401604 0.00203191 0.00680101 0.00304425 0.0190593 0.00316799 0.00734442 0.0024402 0.0260397 0.00290169 0.0144997 0.00414134 0.0249352 0.00498899 0.017192 0.00529791 0.0448018
53 3 O 0.234538 3.48671 1.4948 -1.2 1 0.00179419 0.00371513 0.00256741 0.00433378 0.00194087 0.00649414 0.00262453 0.0179682 0.00339316 0.00697349 0.00252303 0.0246295 0.00324913 0.0136254 0.00398061 0.0241937 0.0054062 0.0163186 0.00557416 0.0425435
54 3 O 6.85564 6.07396 1.4948 -1.2 1 0.00103936 0.00261114 0.0022047 0.00493169 0.00267832 0.00617071 0.00311679 0.0199577 0.00322781 0.00750736 0.00230313 0.0277857 0.00333257 0.0145733 0.00483132 0.0270382 0.00547508 0.0179831 0.0062411 0.045547
55 3 O -0.429565 5.80612 0.196716 -1.2 1 0.00130733 0.00309548 0.00217129 0.00413346 0.00176696 0.00721135 0.00251488 0.0196974 0.00292002 0.00836944 0.00260648 0.0256846 0.00274006 0.0141242 0.00388154 0.0258912 0.00496333 0.0169887 0.00578471 0.0453203
56 3 O -0.473377 5.80612 2.79288 -1.2 1 0.00150889 0.00357084 0.00194917 0.00459579 0.00258031 0.00663821 0.00325418 0.0193862 0.00330699 0.00806174 0.00315029 0.0259935 0.00382863 0.0143857 0.00451991 0.0265867 0.00632415 0.0186774 0.00680624 0.0458833
57 1 Mg 6.40169 9.49799 0 1.2 1 0.00120851 0.00336429 0.0015669 0.00465494 0.00165812 0.00834612 0.00205506 0.0211684 0.00158934 0.00885579 0.00180532 0.0288269 0.00256555 0.014735 0.00276878 0.0296941 0.00373088 0.0180931 0.00401188 0.0477583
58 1 Mg 3.64209 14.2057 1.4948 1.2 1 0.00170073 0.0031454 0.00162239 0.00477666 0.00189879 0.00899588 0.00174357 0.0218933 0.00168706 0.00864428 0.00236447 0.0284255 0.00285618 0.0161302 0.00329515 0.0294913 0.00362356 0.0170763 0.00336987 0.0494728
59 2 Si 5.45748 11.5215 1.4948 2.4 1 0.00130062 0.00325402 0.00179976 0.00474834 0.00200641 0.00829176 0.00214099 0.0213606 0.00155619 0.0083051 0.00185848 0.0288422 0.00277961 0.0162352 0.00345187 0.0291618 0.00407851 0.0172074 0.00386627 0.0493703
60 3 O 5.51101 13.1348 1.4948 -1.2 1 0.00145703 0.00325577 0.00181396 0.00486011 0.00187627 0.00916998 0.00177801 0.0213976 0.00170532 0.00857838 0.00169202 0.029408 0.00246544 0.0160541 0.00311995 0.0298583 0.00382108 0.0167875 0.00352743 0.0491744
61 3 O 1.83851 10.5475 1.4948 -1.2 1 0.000832633 0.00352052 0.0018405 0.00490851 0.00210297 0.00774169 0.00242636 0.02178 0.0018106 0.00835757 0.00234641 0.0294374 0.00277363 0.0158568 0.00339641 0.0298221 0.00415799 0.0181 0.00356859 0.0494111
62 3 O 4.7611 10.8154 0.196716 -1.2 1 0.0012853 0.00301098 0.00176015 0.00472382 0.00156787 0.00857374 0.00219483 0.0214163 0.00154341 0.00857277 0.00205569 0.028299 0.00287605 0.0154362 0.00356303 0.0295353 0.00377853 0.0173416 0.00368841 0.0485559
63 1 Mg 6.35203 9.49799 2.9896 1.2 1 0.000680162 0.00371486 0.00183475 0.00507447 0.00287276 0.00751528 0.00353162 0.0207942 0.00315969 0.00857237 0.0020737 0.0292359 0.00395354 0.0160052 0.00339504 0.029124 0.00433162 0.0188389 0.00560606 0.0488129
64 3 O 4.71833 10.8154 2.79288 -1.2 1 0.00155554 0.0035275 0.00187718 0.00465118 0.00236083 0.00814148 0.0023891 0.0218275 0.0022836 0.00896955 0.002123 0.028263 0.00373851 0.0159697 0.00405803 0.0300153 0.00526039 0.018749 0.00556335 0.0500486
65 1 Mg -1.0438 9.53931 4.4844 1.2 1 0.00230018 0.00455067 0.00173895 0.00508035 0.00317376 0.00671695 0.00279974 0.021351 0.00281692 0.00840755 0.00276983 0.0285603 0.00407765 0.0163384 0.00470237 0.0296869 0.0064914 0.0205586 0.00725165 0.0500844
66 2 Si -2.8604 12.2234 4.4844 2.4 1 0.00248503 0.00409145 0.00193965 0.00513229 0.00291696 0.00770283 0.00302883 0.0222468 0.00290832 0.00834238 0.00242326 0.028413 0.0043589 0.0163306 0.00457619 0.0300606 0.00582957 0.020051 0.00673332 0.051877
67 3 O -2.91391 10.6102 4.4844 -1.2 1 0.00260995 0.00440968 0.00186978 0.00505457 0.00310971 0.00706139 0.00348341 0.0209429 0.00268581 0.00772563 0.00221877 0.0287827 0.00442649 0.0156063 0.00434125 0.0305444 0.00580665 0.0202879 0.00679613 0.050732
68 3 O 0.7596 13.1975 4.4844 -1.2 1 0.0027949 0.0040817 0.00197684 0.00552092 0.00310446 0.00850678 0.00262385 0.0225385 0.00283323 0.00829729 0.00294495 0.029018 0.00453263 0.0162849 0.00435786 0.0299882 0.00603079 0.0198643 0.00661476 0.0516571
69 3 O -2.12001 12.9296 3.18632 -1.2 1 0.00237741 0.0036587 0.00181342 0.00464105 0.00265643 0.00754384 0.0021489 0.0221576 0.00249135 0.0083919 0.00233163 0.0280662 0.00388708 0.016165 0.0047345 0.0303165 0.00530842 0.0190077 0.00541902 0.0509415
70 3 O -2.16532 12.9296 5.78248 -1.2 1 0.00358958 0.00440992 0.0018024 0.00534209 0.00295745 0.00699132 0.00228528 0.0222407 0.00244939 0.00825998 0.00282699 0.0276991 0.00435806 0.0166705 0.00485063 0.0307614 0.00623253 0.0217235 0.00679069 0.053142
71 1 Mg 1.29891 11.8725 2.9896 1.2 1 0.00179275 0.00350552 0.00191045 0.00500886 0.00276832 0.00808098 0.00282963 0.0213441 0.00250039 0.00852733 0.0022765 0.0292351 0.00369364 0.0162759 0.00343354 0.0299087 0.00470148 0.0181725 0.00494881 0.0501018
72 1 Mg 4.10033 11.8312 4.4844 1.2 1 0.00233002 0.00374566 0.00204735 0.00493002 0.00280892 0.00726759 0.00272451 0.0217578 0.00260053 0.00812396 0.00265426 0.0288619 0.00398221 0.0170191 0.0052641 0.0303176 0.00647439 0.0201235 0.00646825 0.0514894
73 2 Si 2.27333 13.896 4.4844 2.4 1 0.00268723 0.0036049 0.00180846 0.00543809 0.00310471 0.00797818 0.00307379 0.0223298 0.00237711 0.00820825 0.00279769 0.0283448 0.00401808 0.0168702 0.00434997 0.0299234 0.00557267 0.0193073 0.00623859 0.0527948
74 3 O 2.28634 15.5093 4.4844 -1.2 1 0.00318793 0.00405334 0.00181217 0.00503447 0.00304995 0.00746327 0.00258887 0.0213085 0.0023822 0.00750596 0.00228301 0.028906 0.00369397 0.0159642 0.00412515 0.0304922 0.00580279 0.0190202 0.00635474 0.0522644
75 3 O -4.34533 12.922 4.4844 -1.2 1 0.00258563 0.00403171 0.00211263 0.00516602 0.00295209 0.00832629 0.00296024 0.0222275 0.00279098 0.00839344 0.00242567 0.0290122 0.00429267 0.0162297 0.004769 0.0303668 0.00642549 0.0202133 0.00714266 0.0515677
76 3 O 2.98455 13.1899 3.18632 -1.2 1 0.00221802 0.00338897 0.00171965 0.00462178 0.00271389 0.00788084 0.00213063 0.0221546 0.00230345 0.00865797 0.00239317 0.0281835 0.00378566 0.0160745 0.00453811 0.0300564 0.00567999 0.0188447 0.00554286 0.050874
77 1 Mg 1.34779 11.8725 0 1.2 1 0.00154902 0.00304202 0.00142146 0.00482321 0.00130284 0.00904184 0.00162216 0.0212976 0.00135883 0.00900351 0.00207116 0.0289963 0.00279781 0.0148709 0.00310045 0.0300758 0.00326911 0.0174314 0.00311832 0.0483174
78 3 O 2.93934 13.1899 5.78248 -1.2 1 0.00309311 0.00440994 0.00177904 0.00559691 0.00288571 0.00733147 0.00261955 0.0224229 0.00259551 0.00817138 0.00310623 0.0279802 0.00465942 0.0166927 0.00496467 0.0309323 0.00619109 0.0218605 0.00677925 0.053688
79 1 Mg -1.50344 11.9138 1.4948 1.2 1 0.00117294 0.00352864 0.00162067 0.00451303 0.00162717 0.00837522 0.00195555 0.0217786 0.0025075 0.00851367 0.00174664 0.0288587 0.00373473 0.0161415 0.00343744 0.0297516 0.00359674 0.0176151 0.00371612 0.049227
80 2 Si 0.326006 9.84894 1.4948 2.4 1 0.00067124 0.00339739 0.00146089 0.00496688 0.00206006 0.00822323 0.0022271 0.0213291 0.00220728 0.0084007 0.00174206 0.0286033 0.00299634 0.0157051 0.00378671 0.0288044 0.00382861 0.0179124 0.00350273 0.0487289
81 3 O 0.317364 8.23571 1.4948 -1.2 1 0.000921615 0.00362094 0.0012041 0.00453407 0.00207898 0.0077932 0.00228672 0.0204548 0.00271889 0.00795206 0.00209711 0.0287453 0.00346367 0.0156672 0.00389084 0.0286933 0.00439407 0.0179563 0.0042674 0.0477837
82 3 O 6.94307 10.823 1.4948 -1.2 1 0.000659581 0.00367592 0.00146385 0.00462857 0.00211357 0.00768287 0.00250516 0.022014 0.00240229 0.00836062 0.00167684 0.0294577 0.00318627 0.0158281 0.00335019 0.0298778 0.00372957 0.0182498 0.00427231 0.0492202
83 3 O -0.343122 10.5551 0.196716 -1.2 1 0.000854402 0.00320492 0.00140096 0.0047612 0.00152188 0.00863298 0.00205938 0.0213901 0.00185006 0.00889966 0.00187237 0.0282543 0.00331768 0.015483 0.00402901 0.0293587 0.00353911 0.0175605 0.00335549 0.048721
84 3 O -0.385966 10.5551 2.79288 -1.2 1 0.00160001 0.0038469 0.00149464 0.00497976 0.00269003 0.00798581 0.00232171 0.0218361 0.00232588 0.00910125 0.00245354 0.0278413 0.00395525 0.0159333 0.00408286 0.0298745 0.00519879 0.0190351 0.00514622 0.0499822
85 1 Mg 6.49448 14.247 0 1.2 1 0.00171077 0.00312123 0.00157755 0.00471465 0.00143802 0.00938827 0.0013383 0.021385 0.00108773 0.00849049 0.00155723 0.0287792 0.00170693 0.0156458 0.00256246 0.0299226 0.00312212 0.0165909 0.00298458 0.0482263
86 1 Mg 3.74457 18.9547 1.4948 1.2 1 0.00214516 0.00289936 0.00150753 0.00406652 0.00195898 0.00854437 0.00133955 0.0223352 0.00185892 0.00809081 0.00223206 0.0277854 0.00252232 0.0165736 0.00328848 0.0288454 0.00338727 0.016411 0.00316108 0.0498937
87 2 Si 5.55495 16.2705 1.4948 2.4 1 0.00213712 0.00282057 0.00145111 0.00460571 0.00204418 0.00899082 0.00132746 0.0216877 0.00135551 0.00789117 0.00146912 0.0286279 0.00251483 0.0163949 0.00303212 0.0287544 0.00360545 0.0159331 0.00357177 0.0495666
88 3 O 5.6115 17.8838 1.4948 -1.2 1 0.00209663 0.00296691 0.0016661 0.00447812 0.00201361 0.00924069 0.0014389 0.0218184 0.00184589 0.00774588 0.00154912 0.0288083 0.00222664 0.0164881 0.00279213 0.0289209 0.00320225 0.0157249 0.00331692 0.0495514
89 3 O 1.93416 15.2965 1.4948 -1.2 1 0.00178248 0.00292475 0.00158398 0.00475505 0.00214568 0.00848742 0.00203213 0.0220581 0.00173347 0.00805497 0.00145829 0.029283 0.00241803 0.0162692 0.00302849 0.0296315 0.0036167 0.0166137 0.0033451 0.0499628
90 3 O 4.85636 15.5644 0.196716 -1.2 1 0.00184173 0.00244566 0.00134901 0.00462676 0.00137325 0.00917545 0.00150277 0.0214252 0.00118322 0.00821065 0.00180371 0.028144 0.00263644 0.0162736 0.00344352 0.0292348 0.0032396 0.0158414 0.0029886 0.0490562
91 1 Mg 6.44662 14.247 2.9896 1.2 1 0.00134881 0.00354482 0.00163494 0.0048318 0.00274844 0.00844324 0.00270255 0.0212451 0.00246432 0.00844161 0.00178157 0.0294211 0.0033012 0.016315 0.00329309 0.029615 0.00401331 0.0178199 0.00471363 0.0500782
92 3 O 4.81537 15.5644 2.79288 -1.2 1 0.00220016 0.00309057 0.00154853 0.00475775 0.00255154 0.00884298 0.00175856 0.0221958 0.00170942 0.00853908 0.00190147 0.0282533 0.00309347 0.0164121 0.00382802 0.0294925 0.00460495 0.0172773 0.00484836 0.0506319
93 1 Mg -0.948271 14.2883 4.4844 1.2 1 0.00327495 0.0038256 0.00174519 0.00495156 0.00295643 0.007756 0.00261873 0.0219191 0.00271584 0.00808228 0.00290332 0.0286641 0.00361234 0.0167704 0.00514397 0.0303488 0.00609135 0.019488 0.00645823 0.052097
94 2 Si -2.75928 16.9724 4.4844 2.4 1 0.00311635 0.00358945 0.00173188 0.00508796 0.00286638 0.00787831 0.00262921 0.0222774 0.00259843 0.00759219 0.00263289 0.0282962 0.00376101 0.0169734 0.00449744 0.0297376 0.00524784 0.0186834 0.00595912 0.0528491
95 3 O -2.81617 15.3592 4.4844 -1.2 1 0.00336733 0.00377821 0.00187268 0.00484319 0.00302921 0.00755868 0.00283216 0.0215285 0.00256122 0.00751756 0.00230591 0.0289607 0.00395051 0.0159662 0.00411759 0.0303802 0.0058678 0.0190397 0.0065044 0.0519705
96 3 O 0.862762 17.9465 4.4844 -1.2 1 0.00326152 0.00383528 0.00165098 0.00507082 0.00308121 0.00844692 0.00257997 0.0225718 0.00240484 0.00759635 0.00261562 0.0289213 0.00395307 0.0168292 0.00424689 0.029522 0.00568333 0.0185519 0.00610265 0.0522592
97 3 O -2.0185 17.6786 3.18632 -1.2 1 0.00289346 0.00342683 0.00185215 0.00434699 0.00279508 0.00764981 0.00217088 0.0224302 0.00228582 0.00777309 0.00213134 0.0278952 0.00362366 0.0165371 0.00430622 0.0297949 0.00480474 0.0175641 0.00513112 0.0516287
98 3 O -2.06164 17.6786 5.78248 -1.2 1 0.00422405 0.00406579 0.00142916 0.00490689 0.0029413 0.0071442 0.00220637 0.0224636 0.00225655 0.00734155 0.00266373 0.0281758 0.00368154 0.0171071 0.00470392 0.0309949 0.00598446 0.0207557 0.00634358 0.054472
99 1 Mg 1.39817 16.6215 2.9896 1.2 1 0.00257942 0.00323221 0.00181128 0.0048107 0.00277855 0.00849999 0.00252152 0.0214752 0.00243081 0.00795949 0.00203856 0.0290476 0.00293604 0.0165715 0.00327445 0.0293554 0.00403607 0.0167619 0.00440178 0.0505231
100 1 Mg 4.20062 16.5802 4.4844 1.2 1 0.00295026 0.00351737 0.00190951 0.00497713 0.00280346 0.00763403 0.00230571 0.0220992 0.00284001 0.00740495 0.00273052 0.0288176 0.0035422 0.0175433 0.00520487 0.0299271 0.00617021 0.0186685 0.00603665 0.0525973
101 2 Si 2.37796 18.645 4.4844 2.4 1 0.00299541 0.00343594 0.00157999 0.00502848 0.00313786 0.00806922 0.0026499 0.0226377 0.00246379 0.00773081 0.00273991 0.0280776 0.00352605 0.0171063 0.00442364 0.0294974 0.00508935 0.0182453 0.00567432 0.0535368
102 3 O 2.39434 20.2583 4.4844 -1.2 1 0.00301956 0.00371777 0.00146818 0.00474487 0.00297534 0.00706423 0.00237991 0.0217613 0.00290642 0.00708696 0.00209666 0.0286584 0.00327376 0.0167648 0.00404676 0.0302351 0.00549903 0.0182863 0.00647636 0.0532429
103 3 O -4.24274 17.671 4.4844 -1.2 1 0.00266712 0.003788 0.00167912 0.00492798 0.0028031 0.00853087 0.00239921 0.0225992 0.0027294 0.00748184 0.00245929 0.028795 0.00368991 0.0166937 0.0045104 0.0298379 0.00598321 0.0191142 0.00646908 0.0526211
104 3 O 3.08659 17.9389 3.18632 -1.2 1 0.00276101 0.00306441 0.00180309 0.00439235 0.00289117 0.00805002 0.00205673 0.0223846 0.00217985 0.00788657 0.00226064 0.0278873 0.0032526 0.0165711 0.00413126 0.0293543 0.00506386 0.0173798 0.00536363 0.0514547
105 1 Mg 1.44478 16.6215 0 1.2 1 0.00249895 0.00256872 0.00122131 0.00445131 0.00133434 0.00909646 0.00123171 0.0216188 0.00122227 0.00812437 0.00148839 0.0286 0.00226024 0.01585 0.00231761 0.0292042 0.00284991 0.016089 0.00288253 0.0486401
106 3 O 3.0436 17.9389 5.78248 -1.2 1 0.00326476 0.00396579 0.00159721 0.00538008 0.00282782 0.00713436 0.00225269 0.0225428 0.00209446 0.00768899 0.00275068 0.0279043 0.00400057 0.0167024 0.00458765 0.0309346 0.00584546 0.0210065 0.00627369 0.0547974
107 1 Mg -1.40524 16.6628 1.4948 1.2 1 0.00171032 0.00309795 0.0015893 0.0045686 0.00191866 0.00878556 0.00192975 0.0222637 0.00186843 0.00810446 0.00182079 0.0283991 0.00332387 0.0166122 0.0030606 0.0293751 0.00296873 0.0164991 0.00313794 0.0496412
108 2 Si 0.420358 14.5979 1.4948 2.4 1 0.00135168 0.00284836 0.00162703 0.00487791 0.00216506 0.00924628 0.0018698 0.0215483 0.00167271 0.00822842 0.00150481 0.0286064 0.00299113 0.0164503 0.00365545 0.0287195 0.00338742 0.0165365 0.0033529 0.0494527
109 3 O 0.408732 12.9847 1.4948 -1.2 1 0.000938329 0.00313826 0.00154361 0.00486948 0.0021418 0.00925532 0.00168008 0.0213171 0.00213024 0.00844639 0.00160331 0.0291837 0.00320247 0.0161627 0.00316738 0.0297566 0.00335308 0.0169917 0.00362654 0.0493754
110 3 O 7.03923 15.572 1.4948 -1.2 1 0.00154892 0.00314435 0.00149721 0.00459138 0.00234661 0.00836976 0.00223318 0.0220029 0.00212523 0.00796172 0.00160676 0.0292877 0.00271709 0.0164357 0.00303783 0.0295557 0.00334936 0.0167314 0.00378149 0.0496775
111 3 O -0.248332 15.3041 0.196716 -1.2 1 0.00189469 0.00273922 0.0011985 0.00460922 0.00119553 0.00917509 0.00203758 0.0214018 0.00136638 0.00827986 0.0016629 0.0280195 0.00280744 0.0159861 0.00376194 0.0291884 0.00290125 0.0161137 0.00301387 0.0489853
112 3 O -0.289436 15.3041 2.79288 -1.2 1 0.00273806 0.00339099 0.00153423 0.00468382 0.00263925 0.00879222 0.00194035 0.0223051 0.00194923 0.00867412 0.00203597 0.0277169 0.00328203 0.0166752 0.00371468 0.0296525 0.00459639 0.0178939 0.00456204 0.0507174
113 1 Mg 6.59566 18.996 0 1.2 1 0.001694 0.00286502 0.00153113 0.00412309 0.00107433 0.00857016 0.00126836 0.0220454 0.00118287 0.00782328 0.00133719 0.0280436 0.00212633 0.0163907 0.00230326 0.0286728 0.00280294 0.0157652 0.00280485 0.0487891
114 1 Mg 3.85574 23.7037 1.4948 1.2 1 0.00195818 0.00256055 0.00128971 0.00408628 0.00169329 0.0074856 0.00118973 0.0232152 0.00184049 0.0074761 0.00214159 0.0272721 0.0024323 0.0178159 0.00364694 0.0285051 0.00330553 0.017038 0.00349602 0.0508604
115 2 Si 5.66125 21.0195 1.4948 2.4 1 0.00205896 0.00250174 0.00124679 0.00413651 0.00209145 0.00816718 0.00134381 0.0221372 0.00130141 0.00750167 0.00156409 0.0280976 0.00250744 0.0175153 0.00279888 0.0279542 0.00339869 0.0156412 0.00389797 0.0504434
116 3 O 5.72074 22.6328 1.4948 -1.2 1 0.00211393 0.00256059 0.00160144 0.00406185 0.00188447 0.00816372 0.0015605 0.0224805 0.0018145 0.00723822 0.00139954 0.0280294 0.00218905 0.0174972 0.00288084 0.0284047 0.00327839 0.0161784 0.00362671 0.0502949
117 3 O 2.03867 20.0455 1.4948 -1.2 1 0.00185267 0.00309283 0.00156304 0.00430906 0.00200177 0.00785267 0.00193197 0.022373 0.00213752 0.00741223 0.0015503 0.0285321 0.00222156 0.0173601 0.00249274 0.0289019 0.00341589 0.0159966 0.00353398 0.0504974
118 3 O 4.96004 20.3134 0.196716 -1.2 1 0.00226681 0.00230737 0.00147449 0.00406051 0.00115835 0.00830079 0.00121743 0.0218549 0.00105615 0.00759026 0.00158011 0.0277186 0.0026403 0.0167142 0.00383718 0.0286044 0.00291311 0.0150883 0.00283891 0.0493887
119 1 Mg 6.55057 18.996 2.9896 1.2 1 0.00177019 0.00339592 0.00135342 0.00444697 0.00273572 0.00819412 0.00258525 0.0215137 0.00240739 0.00774571 0.00180559 0.0291786 0.00305287 0.0169368 0.0029303 0.0289028 0.00380577 0.016818 0.00462804 0.0507267