ITEM: TIMESTEP
3100
ITEM: NUMBER OF ATOMS
10500
ITEM: BOX BOUNDS xy xz yz pp pp pp
0	15.2977	5.09925
0	118.725	0
0	89.688	0
ITEM: ATOMS id type element xu yu zu q Q_1 Q_2 Q_3 Q_4 Q_5 Q_6 Q_7 Q_8 Q_9 Q_10 Q_11 Q_12 Q_13 Q_14 Q_15 Q_16 Q_17 Q_18 Q_19 Q_20 Q_21
1 1 Mg 6.2404 -6.37941e-06 0 1.2 1 0.00125296 0.00417715 0.00120432 0.00491397 0.00111765 0.00560626 0.00215939 0.016246 0.00216598 0.00584658 0.0021331 0.0220292 0.00249731 0.0134829 0.0033836 0.0206901 0.00402196 0.0142875 0.00395545 0.0407326
2 1 Mg 3.46349 4.70768 1.4948 1.2 1 0.00128441 0.00324775 0.00172109 0.00430705 0.00186476 0.006189 0.0035488 0.0187129 0.00282197 0.00700328 0.00289327 0.0257822 0.00319738 0.0137524 0.00436248 0.0253713 0.00543023 0.0172814 0.00581999 0.0438151
3 2 Si 5.2885 2.02354 1.4948 2.4 1 0.000927893 0.0032742 0.00213468 0.00460112 0.00177504 0.00568001 0.00251292 0.0170338 0.00243192 0.00613914 0.0021051 0.0234695 0.00288132 0.0134189 0.00370429 0.0217062 0.00389748 0.0154174 0.004348 0.0413027
4 3 O 5.33628 3.63678 1.4948 -1.2 1 0.000894719 0.00261271 0.00187856 0.00471832 0.00202806 0.00633138 0.00286562 0.0177946 0.00228479 0.00671489 0.00197469 0.0253139 0.0025742 0.0135992 0.00434369 0.0241311 0.0050861 0.0165706 0.00578119 0.0428928
5 3 O 1.67294 1.04952 1.4948 -1.2 1 0.00172071 0.00326203 0.00213166 0.00422554 0.0013195 0.00573975 0.00246913 0.0169039 0.00241748 0.00606102 0.00215617 0.0229014 0.00270543 0.0127042 0.00335097 0.0219531 0.00462916 0.0157233 0.00487957 0.040324
6 3 O 4.59532 1.31737 0.196716 -1.2 1 0.00135345 0.00289523 0.00203737 0.00444902 0.00189269 0.00567193 0.00236891 0.0171521 0.00272063 0.00622386 0.00196027 0.0225526 0.00330483 0.0127807 0.00425303 0.0216353 0.00413899 0.0149769 0.00448525 0.0410115
7 1 Mg 6.18956 -6.37941e-06 2.9896 1.2 1 0.00104635 0.00441889 0.00150468 0.0042492 0.00114976 0.00570992 0.00244631 0.0161626 0.00275102 0.00556829 0.00180497 0.0225538 0.00283633 0.0132139 0.00365663 0.0206491 0.0044917 0.014922 0.00504826 0.0390488
8 3 O 4.55118 1.31737 2.79288 -1.2 1 0.00133595 0.00425673 0.00198731 0.00432109 0.00160368 0.00567305 0.00257329 0.0169945 0.00251438 0.00692105 0.00234189 0.0219727 0.00347739 0.012167 0.00342971 0.0216517 0.00477231 0.0156425 0.00538531 0.0402086
9 1 Mg -1.20682 0.0413099 4.4844 1.2 1 0.000385095 0.00285728 0.00167039 0.00461927 0.00124844 0.00542989 0.00200785 0.0161682 0.00212562 0.00607145 0.00213642 0.0228643 0.00304444 0.0116395 0.00379705 0.0209196 0.00536211 0.0159501 0.0053186 0.038733
10 2 Si -3.0337 2.72544 4.4844 2.4 1 0.00060906 0.00327732 0.00182387 0.00489304 0.00225036 0.00618614 0.00336914 0.0167814 0.00321098 0.00637271 0.00242175 0.0243212 0.00340006 0.0128758 0.00425415 0.0225956 0.00546728 0.0179377 0.00643158 0.0398657
11 3 O -3.08099 1.11221 4.4844 -1.2 1 0.000640346 0.00372125 0.00181913 0.00433342 0.00119455 0.00533184 0.00240394 0.016224 0.00279942 0.0057897 0.00223973 0.0226322 0.00333351 0.0112628 0.00366607 0.0214507 0.00505868 0.0164921 0.00565782 0.0386492
12 3 O 0.582463 3.69946 4.4844 -1.2 1 0.00192329 0.00437575 0.00215435 0.00443564 0.00258477 0.0067126 0.00365771 0.0173966 0.00338625 0.00670418 0.00321464 0.0251028 0.00425066 0.012977 0.00444189 0.0245889 0.00695176 0.0190482 0.00850192 0.0421151
13 3 O -2.29524 3.43162 3.18632 -1.2 1 0.00091613 0.00274608 0.0026955 0.00458321 0.00216078 0.00608536 0.00296852 0.0179191 0.00326274 0.00676556 0.00266483 0.0247109 0.00336737 0.0129288 0.00481981 0.0244722 0.00602755 0.0181093 0.00678288 0.042069
14 3 O -2.34216 3.43162 5.78248 -1.2 1 0.00155218 0.0038187 0.00142665 0.0050654 0.00267025 0.00616128 0.00329492 0.0172167 0.00283188 0.00765432 0.00282255 0.0239341 0.00451961 0.0125656 0.00435232 0.023851 0.00664384 0.0199485 0.00782426 0.0409579
15 1 Mg 1.12778 2.37449 2.9896 1.2 1 0.00168869 0.00358596 0.00236973 0.00447641 0.00215437 0.00592211 0.00311039 0.0167416 0.00276424 0.00622593 0.00243738 0.0237611 0.00344165 0.0129069 0.00347002 0.0220921 0.00489571 0.0166804 0.00581289 0.040943
16 1 Mg 3.92855 2.33318 4.4844 1.2 1 0.00127801 0.00433341 0.0016344 0.00433338 0.00181823 0.00565478 0.00349798 0.0168275 0.00322066 0.00629815 0.00295985 0.0232213 0.00379521 0.0132802 0.00524498 0.0221721 0.00649083 0.0174497 0.00726099 0.0404245
17 2 Si 2.09341 4.39804 4.4844 2.4 1 0.00140709 0.00416229 0.00207719 0.00429938 0.002901 0.00603422 0.0038735 0.018268 0.00354911 0.00691622 0.0034089 0.0252658 0.00461126 0.0141008 0.00452836 0.0249812 0.0067831 0.0189609 0.00865469 0.0437513
18 3 O 2.09991 6.01128 4.4844 -1.2 1 0.00190449 0.00443583 0.00171401 0.00415349 0.00295334 0.00659212 0.00326846 0.0193129 0.00292046 0.0074717 0.00319669 0.0271099 0.00432544 0.0145096 0.00487891 0.0277061 0.00695106 0.0199421 0.00833791 0.0457221
19 3 O -4.52137 3.42402 4.4844 -1.2 1 0.00103328 0.00366914 0.00228704 0.00469656 0.00226789 0.00705352 0.00347559 0.0170492 0.00347549 0.00650886 0.00304601 0.0240846 0.00412967 0.0127716 0.00429688 0.0230497 0.00636862 0.0180687 0.00776879 0.041415
20 3 O 2.80834 3.69187 3.18632 -1.2 1 0.0012769 0.00373693 0.00183195 0.00382813 0.00198408 0.00590354 0.00315314 0.0174625 0.00311228 0.00649156 0.00283926 0.0244014 0.00371284 0.0129993 0.00478205 0.0240395 0.0057961 0.0173661 0.00663182 0.0427612
21 1 Mg 1.17857 2.37449 0 1.2 1 0.00210929 0.00342176 0.00226425 0.00416929 0.00140252 0.00553616 0.002473 0.0173146 0.00237045 0.00662712 0.00275272 0.023302 0.0028769 0.0132325 0.00362823 0.02176 0.00430761 0.0149904 0.00458545 0.0410468
22 3 O 2.76143 3.69187 5.78248 -1.2 1 0.00184495 0.0042245 0.00171553 0.0043405 0.00223446 0.00558029 0.00288281 0.0176014 0.00324788 0.00746372 0.0030719 0.0238493 0.00483498 0.0131309 0.00553089 0.0236168 0.00659141 0.0190918 0.00774565 0.0417256
23 1 Mg -1.67381 2.41581 1.4948 1.2 1 0.00153916 0.0025225 0.00261203 0.00486961 0.0014471 0.00605996 0.00242024 0.0167042 0.00277944 0.00629053 0.00203544 0.0244122 0.00254981 0.0142378 0.00289086 0.0223186 0.00437752 0.0161835 0.00483632 0.0419345
24 2 Si 0.16286 0.350945 1.4948 2.4 1 0.00182262 0.00271078 0.00283847 0.00451065 0.00120745 0.00629906 0.00268767 0.0164344 0.00227797 0.00525454 0.00193448 0.0229699 0.00244571 0.013473 0.00304448 0.0208268 0.004602 0.0148315 0.00440741 0.0404217
25 3 O 0.15972 -1.26229 1.4948 -1.2 1 0.00169569 0.00274805 0.00298124 0.00449839 0.00178264 0.00596655 0.00245822 0.0164986 0.00231998 0.00555522 0.00250711 0.0228188 0.00263423 0.0137731 0.00287436 0.0217432 0.00422662 0.0147046 0.00407507 0.0408207
26 3 O 6.77654 1.32496 1.4948 -1.2 1 0.0013514 0.0036354 0.0016803 0.00471779 0.00123584 0.00598329 0.00227253 0.0168203 0.00255975 0.00553833 0.00181558 0.0238484 0.00277084 0.0134684 0.00355771 0.0219246 0.00461424 0.0153631 0.00445512 0.040891
27 3 O -0.508028 1.05712 0.196716 -1.2 1 0.00160091 0.00271034 0.00341625 0.00422168 0.00136988 0.00561055 0.0023285 0.0171868 0.00186032 0.00668934 0.00256927 0.0222172 0.00270806 0.0128262 0.00313915 0.0212957 0.00422311 0.0151907 0.00435586 0.0402776
28 3 O -0.552171 1.05712 2.79288 -1.2 1 0.00108157 0.00215267 0.00286965 0.00446772 0.00130739 0.00607053 0.0023752 0.0163113 0.00259115 0.00633367 0.00174352 0.0230082 0.00311123 0.0118096 0.00373314 0.0217828 0.00530806 0.0160018 0.00509771 0.0397113
29 1 Mg 6.31713 4.74899 0 1.2 1 0.00113027 0.00257656 0.00210756 0.00465741 0.00234684 0.00624177 0.00331058 0.0180706 0.00277635 0.00703338 0.00226996 0.0254061 0.00285385 0.0137402 0.00430565 0.0248288 0.00479736 0.0164592 0.00590468 0.0430849
30 1 Mg 3.54847 9.45668 1.4948 1.2 1 0.000925734 0.00337111 0.00207372 0.00447574 0.00215915 0.00776775 0.00307986 0.0213495 0.0019281 0.00847879 0.00242569 0.0286677 0.00329631 0.0157024 0.00397389 0.0291881 0.00435998 0.0183156 0.00402047 0.0489979
31 2 Si 5.36879 6.77254 1.4948 2.4 1 0.000514375 0.00298063 0.00215788 0.00497546 0.00270816 0.00700553 0.00381637 0.0195441 0.00275382 0.00787842 0.00251568 0.0277837 0.00322334 0.015347 0.00420123 0.0270766 0.00478186 0.017451 0.00535989 0.046664
32 3 O 5.41937 8.38578 1.4948 -1.2 1 0.000758655 0.00323782 0.00189501 0.00484503 0.00230467 0.0078714 0.0031746 0.0208802 0.00234589 0.00840142 0.00248097 0.029157 0.00244074 0.0156222 0.00310596 0.0292024 0.00472174 0.0176504 0.00496919 0.0482276
33 3 O 1.75158 5.79852 1.4948 -1.2 1 0.00111074 0.00337984 0.00178722 0.00390345 0.00245104 0.00608529 0.00334565 0.0195209 0.00288863 0.007343 0.00267289 0.0279804 0.00295755 0.0154706 0.00362719 0.0269323 0.00546431 0.0177497 0.00566424 0.0458261
34 3 O 4.67421 6.06637 0.196716 -1.2 1 0.000967816 0.0028531 0.00181944 0.00475101 0.0021208 0.00695999 0.00295705 0.0197965 0.00251625 0.00819523 0.00218223 0.0263889 0.00351255 0.0144013 0.0043214 0.0267797 0.00476612 0.0168262 0.00554799 0.0453684
35 1 Mg 6.26654 4.74899 2.9896 1.2 1 0.00150931 0.00305052 0.00235204 0.00492267 0.00257422 0.00665134 0.00380382 0.0179775 0.00378421 0.00713174 0.00225735 0.0260665 0.00382044 0.0144389 0.00501422 0.0252157 0.00590231 0.0178844 0.00717558 0.0437206
36 3 O 4.63043 6.06637 2.79288 -1.2 1 0.00190626 0.0033743 0.00191748 0.00473916 0.00229005 0.00692784 0.00354959 0.0194403 0.0034769 0.00798734 0.00257788 0.0262844 0.00413475 0.0147076 0.0047896 0.0274113 0.00592339 0.0185294 0.00698491 0.0457359
37 1 Mg -1.12976 4.79031 4.4844 1.2 1 0.00178353 0.00401433 0.00175602 0.00480924 0.00243949 0.00640131 0.00334571 0.0180732 0.00355531 0.0072052 0.00317692 0.0262699 0.00421321 0.0143201 0.00477474 0.0259942 0.00765415 0.0196593 0.00833633 0.0443672
38 2 Si -2.9517 7.47444 4.4844 2.4 1 0.00216588 0.00426523 0.00162391 0.00524558 0.00307697 0.00693504 0.00384818 0.0204329 0.00329776 0.00791412 0.00319936 0.0279824 0.00468927 0.0159626 0.0055874 0.0282869 0.00709905 0.019807 0.00837447 0.0480581
39 3 O -3.00198 5.86121 4.4844 -1.2 1 0.00159091 0.0042555 0.00148849 0.00505782 0.00324151 0.00666418 0.00417616 0.0189424 0.00364238 0.00776397 0.00289453 0.0262866 0.00459062 0.0141642 0.00491839 0.0272637 0.00710666 0.0200952 0.00854288 0.045859
40 3 O 0.666315 8.44846 4.4844 -1.2 1 0.00263972 0.00490712 0.00153264 0.00482061 0.00301861 0.00765697 0.003151 0.0213756 0.00311477 0.00819936 0.0033851 0.0288914 0.00484838 0.0161221 0.00473123 0.0293593 0.00663603 0.0202811 0.00805678 0.0490597
41 3 O -2.21213 8.18062 3.18632 -1.2 1 0.00167664 0.00442394 0.00177834 0.00453215 0.00274866 0.0066961 0.00288987 0.0208155 0.00293679 0.00825976 0.00291292 0.0278786 0.00430962 0.0158262 0.00516353 0.0290931 0.00609716 0.0191687 0.0067593 0.0488119
42 3 O -2.25864 8.18062 5.78248 -1.2 1 0.00281324 0.00488707 0.00183635 0.00497191 0.00321081 0.00642079 0.00316115 0.0209588 0.00264499 0.00869973 0.00356358 0.027478 0.00486613 0.0166266 0.00552257 0.0296388 0.00740909 0.0214676 0.00862652 0.0499824
43 1 Mg 1.20893 7.12349 2.9896 1.2 1 0.00139346 0.00400508 0.0019261 0.00426504 0.00284066 0.00687963 0.00377556 0.0197306 0.00296852 0.00816086 0.00273833 0.0281878 0.00364633 0.0157303 0.00392996 0.0276868 0.00576015 0.018622 0.00657881 0.0470843
44 1 Mg 4.00982 7.08218 4.4844 1.2 1 0.00222128 0.00431435 0.00185019 0.0048338 0.00271929 0.00672674 0.00383147 0.0202058 0.00355473 0.00772155 0.00333352 0.0277608 0.00448505 0.0166954 0.00584802 0.0285464 0.00737164 0.0198667 0.00871376 0.0475652
45 2 Si 2.17861 9.14704 4.4844 2.4 1 0.00233021 0.00456996 0.00184863 0.00479386 0.00298601 0.00760781 0.00377099 0.0213754 0.00289279 0.00838765 0.00328733 0.028558 0.00495342 0.0167017 0.00479283 0.0298094 0.00613506 0.0200995 0.00718557 0.0506605
46 3 O 2.18828 10.7603 4.4844 -1.2 1 0.002754 0.00470258 0.00222496 0.0046668 0.00279753 0.0073718 0.0030456 0.021214 0.00253072 0.0082737 0.00240588 0.0291921 0.00450335 0.0159024 0.0046022 0.0308891 0.00626705 0.0202668 0.00687763 0.0514368
47 3 O -4.43805 8.17302 4.4844 -1.2 1 0.00168923 0.00468806 0.00194357 0.00515387 0.00266312 0.00804057 0.00329751 0.0208052 0.00339667 0.00825429 0.00329955 0.0289266 0.00488385 0.0159983 0.00525112 0.0296365 0.00705736 0.020075 0.00903533 0.0488201
48 3 O 2.89193 8.44087 3.18632 -1.2 1 0.00215517 0.00389802 0.00193484 0.00430436 0.00252712 0.00704813 0.00341482 0.0206499 0.00281015 0.00854996 0.00298898 0.0278888 0.00407469 0.0160149 0.00481553 0.02922 0.00600267 0.0190025 0.00616629 0.0489055
49 1 Mg 1.25915 7.12349 0 1.2 1 0.00132064 0.0029456 0.00161791 0.00409285 0.00194563 0.00728331 0.00288955 0.0201949 0.00287223 0.00827782 0.00265428 0.0278118 0.00342418 0.0143821 0.00372336 0.0276523 0.00478963 0.0175412 0.00457011 0.0462909
50 3 O 2.84547 8.44087 5.78248 -1.2 1 0.00266211 0.0050971 0.00169454 0.00492675 0.00272258 0.00698243 0.00334193 0.0212602 0.00317904 0.00895794 0.00357606 0.0276152 0.00572492 0.016695 0.00559209 0.0300164 0.00646117 0.021884 0.00797909 0.0501538
51 1 Mg -1.59284 7.16481 1.4948 1.2 1 0.00113004 0.00333425 0.00160598 0.0046075 0.00188451 0.00651258 0.00273495 0.0199019 0.00300503 0.00792031 0.00189358 0.0278799 0.00342028 0.0155121 0.00382659 0.0273149 0.00477604 0.0178065 0.00564991 0.0468112
52 2 Si 0.240329 5.09994 1.4948 2.4 1 0.00121478 0.00351432 0.0021188 0.00399237 0.00195531 0.00683717 0.00310229 0.018971 0.00318079 0.00735604 0.00230959 0.0261568 0.00290094 0.0145568 0.00419311 0.0249393 0.00515304 0.0171071 0.00531297 0.044826
53 3 O 0.234538 3.48671 1.4948 -1.2 1 0.0016786 0.00359197 0.00262983 0.00427396 0.00186666 0.00649912 0.00256604 0.0179782 0.00344797 0.00699202 0.00237936 0.0246658 0.00325079 0.0135181 0.00402083 0.0241187 0.00554586 0.0162083 0.00550523 0.0425257
54 3 O 6.85564 6.07396 1.4948 -1.2 1 0.000901716 0.00275508 0.0023886 0.00469305 0.00246638 0.00622759 0.00318749 0.0198521 0.00310597 0.00755012 0.00219293 0.0278226 0.00332417 0.0146932 0.00476438 0.0270647 0.00567103 0.0179273 0.00642022 0.045562
55 3 O -0.429565 5.80612 0.196716 -1.2 1 0.0011397 0.00312691 0.00227075 0.00412162 0.00188019 0.00720987 0.00251803 0.0195887 0.00289342 0.00848306 0.00250715 0.0258584 0.00272586 0.0141796 0.00390338 0.0260265 0.00508136 0.0169308 0.00568877 0.0453918
56 3 O -0.473377 5.80612 2.79288 -1.2 1 0.00167576 0.00349033 0.0020313 0.00437169 0.00243075 0.00683156 0.00315716 0.0192076 0.00324116 0.00805094 0.0029998 0.0261121 0.00395617 0.0144976 0.00460769 0.0266265 0.00649936 0.0186998 0.00700006 0.0458179
57 1 Mg 6.40169 9.49799 0 1.2 1 0.000610887 0.00372555 0.00165671 0.00458156 0.00159619 0.00835863 0.0020406 0.0210678 0.00172514 0.00895177 0.00173416 0.028938 0.00254737 0.0148027 0.00274094 0.0298896 0.00373182 0.0179387 0.00397583 0.0478272
58 1 Mg 3.64209 14.2057 1.4948 1.2 1 0.00146662 0.00315961 0.00178982 0.00437715 0.00183773 0.00884102 0.00160143 0.0217663 0.00176349 0.00876283 0.0023295 0.0285717 0.00268932 0.0161719 0.00313589 0.0294648 0.00365968 0.0169578 0.0033668 0.0497622
59 2 Si 5.45748 11.5215 1.4948 2.4 1 0.00126822 0.00337624 0.00199456 0.00443718 0.00194649 0.00831578 0.00220911 0.0211505 0.00160389 0.00838374 0.00183413 0.0290516 0.00278112 0.0162487 0.00343278 0.0292943 0.00417247 0.0169464 0.00380196 0.0494778
60 3 O 5.51101 13.1348 1.4948 -1.2 1 0.00140504 0.0032986 0.001978 0.00447132 0.0017939 0.00914319 0.00176859 0.0212249 0.0018563 0.00871005 0.0016874 0.0296128 0.00234879 0.016144 0.00290962 0.029867 0.00381964 0.0166387 0.00352665 0.0494469
61 3 O 1.83851 10.5475 1.4948 -1.2 1 0.000730474 0.00362753 0.00195273 0.00463482 0.00197064 0.00783902 0.00237213 0.0216502 0.00191772 0.00851641 0.00228195 0.0295562 0.00273289 0.0158228 0.00343552 0.0298116 0.00426687 0.0178618 0.00356316 0.0495223
62 3 O 4.7611 10.8154 0.196716 -1.2 1 0.000619622 0.0030585 0.00201873 0.00449603 0.00174721 0.0085997 0.0021821 0.021371 0.00155547 0.00879022 0.00190005 0.0284482 0.00301175 0.0156282 0.00392145 0.0294955 0.00380443 0.0172128 0.00357609 0.0488235
63 1 Mg 6.35203 9.49799 2.9896 1.2 1 0.00136685 0.00406998 0.00186498 0.00472755 0.0027349 0.00776077 0.00347015 0.020429 0.00315346 0.00857854 0.00218594 0.0294559 0.00387344 0.0161367 0.00348198 0.0293787 0.00457724 0.0187016 0.0057194 0.0490666
64 3 O 4.71833 10.8154 2.79288 -1.2 1 0.00224335 0.00377582 0.00191475 0.00446306 0.00232272 0.00838788 0.00229689 0.0213709 0.00219508 0.00905314 0.00226464 0.0285445 0.0037426 0.0159844 0.00425974 0.0301786 0.00541697 0.0185066 0.0055198 0.0503485
65 1 Mg -1.0438 9.53931 4.4844 1.2 1 0.00263726 0.00490552 0.00179729 0.0044797 0.0031419 0.00705701 0.00273277 0.0211097 0.00287675 0.00848587 0.00294143 0.0289069 0.00407256 0.0166831 0.00478061 0.0300726 0.00682111 0.020281 0.00745203 0.05056
66 2 Si -2.8604 12.2234 4.4844 2.4 1 0.00271752 0.004596 0.00196634 0.0045517 0.00286546 0.00801094 0.00309029 0.0219737 0.00291954 0.00863507 0.00253143 0.0288813 0.00451191 0.0167344 0.00472458 0.030245 0.00593324 0.0195774 0.00668606 0.052187
67 3 O -2.91391 10.6102 4.4844 -1.2 1 0.00285947 0.00480391 0.00194494 0.00451359 0.00300629 0.00738828 0.00335402 0.0209057 0.00275807 0.0079843 0.00218768 0.029139 0.0045376 0.0160511 0.00440087 0.0309008 0.00620215 0.0201327 0.00709878 0.0512543
68 3 O 0.7596 13.1975 4.4844 -1.2 1 0.00271445 0.00435316 0.00225999 0.00492563 0.00296864 0.00875206 0.00271012 0.0224567 0.00284835 0.00857142 0.00295328 0.0293272 0.00444558 0.0166557 0.00435732 0.0303464 0.00605377 0.0197797 0.00663527 0.0520374
69 3 O -2.12001 12.9296 3.18632 -1.2 1 0.00266017 0.00413343 0.0020361 0.00425139 0.00259889 0.00789502 0.00225902 0.0219559 0.00257029 0.0086113 0.00245819 0.0282451 0.00378948 0.0162443 0.0048893 0.0305268 0.00535447 0.0186768 0.00541605 0.0512443
70 3 O -2.16532 12.9296 5.78248 -1.2 1 0.00334204 0.00480328 0.00193052 0.00474312 0.0029859 0.00722251 0.00235514 0.0223388 0.00259422 0.00859715 0.00274162 0.028409 0.00441261 0.0172758 0.00496398 0.0315146 0.00656561 0.0214356 0.0071909 0.0539998
71 1 Mg 1.29891 11.8725 2.9896 1.2 1 0.00187104 0.00372968 0.00213683 0.00466145 0.0025201 0.00809848 0.00279887 0.0211504 0.0026229 0.0086683 0.00223619 0.0294279 0.00356206 0.0162649 0.00365744 0.0300288 0.00481597 0.0179595 0.00494857 0.050227
72 1 Mg 4.10033 11.8312 4.4844 1.2 1 0.00276158 0.00432891 0.00235111 0.00441921 0.0026928 0.00764692 0.00267577 0.0214994 0.00268931 0.00824544 0.00280505 0.029351 0.00394422 0.0174576 0.00516438 0.0306982 0.00674057 0.0196968 0.0066149 0.0519467
73 2 Si 2.27333 13.896 4.4844 2.4 1 0.00268976 0.00375473 0.00203786 0.00486422 0.00300954 0.00807414 0.00320263 0.0220498 0.00250302 0.00837729 0.00301065 0.0288395 0.00412381 0.0169581 0.0046196 0.0302377 0.00569319 0.019167 0.00618456 0.0529344
74 3 O 2.28634 15.5093 4.4844 -1.2 1 0.00296973 0.00417768 0.00204128 0.00464793 0.00306426 0.0074708 0.00294341 0.021287 0.00263586 0.00779908 0.00238571 0.0292698 0.0036565 0.0162684 0.0042241 0.0307606 0.00582598 0.0188992 0.00633265 0.0525104
75 3 O -4.34533 12.922 4.4844 -1.2 1 0.00266714 0.00455928 0.00222482 0.00471249 0.00290897 0.00867932 0.00299099 0.0220177 0.00294324 0.008558 0.00252095 0.0293536 0.00430853 0.0165056 0.00492256 0.0307634 0.00653962 0.0200182 0.0073873 0.0521537
76 3 O 2.98455 13.1899 3.18632 -1.2 1 0.00233229 0.00363104 0.00206168 0.00428477 0.0026347 0.00808733 0.00217784 0.0218739 0.00230682 0.00866873 0.00247866 0.0284741 0.00367472 0.0162586 0.00452808 0.0302158 0.00567963 0.0184978 0.00549324 0.0511469
77 1 Mg 1.34779 11.8725 0 1.2 1 0.00115852 0.00290786 0.00144879 0.00443613 0.00160195 0.00893485 0.00155024 0.0212749 0.00139474 0.00917662 0.00200496 0.0291847 0.00281709 0.0149749 0.00301028 0.0300815 0.0032012 0.0172169 0.00320888 0.0485213
78 3 O 2.93934 13.1899 5.78248 -1.2 1 0.00300092 0.00473228 0.00195407 0.00498549 0.00278099 0.00735088 0.00253006 0.0224305 0.0026348 0.00848422 0.00327549 0.0284374 0.00467662 0.0172025 0.00505044 0.0314409 0.00631049 0.0215777 0.00682842 0.0540535
79 1 Mg -1.50344 11.9138 1.4948 1.2 1 0.00103148 0.00370063 0.00160751 0.00440534 0.00153193 0.00835998 0.00172008 0.0216368 0.00251158 0.0085943 0.00170288 0.0289394 0.0036277 0.0161152 0.00346314 0.0297121 0.00363824 0.0175291 0.00363567 0.0494516
80 2 Si 0.326006 9.84894 1.4948 2.4 1 0.00025504 0.00364978 0.00154247 0.00481572 0.00202611 0.00825016 0.00199212 0.0210882 0.00222246 0.00853334 0.00179203 0.0287143 0.00299623 0.01576 0.00372902 0.0288988 0.00393948 0.0178126 0.00351706 0.048861
81 3 O 0.317364 8.23571 1.4948 -1.2 1 0.000940509 0.00369301 0.00129237 0.00433465 0.00196492 0.0077415 0.00217575 0.0202925 0.00271373 0.00809457 0.00188769 0.0288394 0.00344397 0.0157653 0.00394886 0.0287045 0.00457834 0.0178183 0.00436278 0.0478194
82 3 O 6.94307 10.823 1.4948 -1.2 1 0.000910217 0.00396346 0.00176494 0.00437045 0.00206789 0.00784934 0.00258325 0.0217411 0.00242618 0.0084288 0.00158836 0.0296403 0.00307179 0.0158617 0.00343467 0.0299486 0.00397148 0.0180283 0.00420646 0.0494601
83 3 O -0.343122 10.5551 0.196716 -1.2 1 0.000443031 0.00316729 0.0013606 0.00450573 0.00163454 0.00866859 0.0017621 0.0213653 0.00183116 0.0090865 0.0020882 0.0283529 0.00333543 0.0153995 0.00423338 0.0294195 0.00366291 0.0173968 0.00348015 0.04873
84 3 O -0.385966 10.5551 2.79288 -1.2 1 0.00219447 0.00401376 0.0015478 0.00443553 0.00262925 0.00812603 0.00219077 0.0214631 0.00218645 0.009127 0.00256759 0.0280703 0.00394849 0.0158819 0.00425632 0.0301287 0.00534091 0.0186835 0.00521288 0.0501038
85 1 Mg 6.49448 14.247 0 1.2 1 0.00135055 0.00329865 0.00175396 0.00442523 0.00133102 0.00924725 0.00127616 0.0213426 0.00125988 0.00864676 0.00148789 0.0290574 0.00175527 0.0155572 0.00254235 0.029936 0.00315185 0.0164916 0.0027877 0.0485107
86 1 Mg 3.74457 18.9547 1.4948 1.2 1 0.00181801 0.00302713 0.00148074 0.003804 0.00184343 0.00847819 0.00128903 0.0222583 0.00196169 0.00814271 0.00233397 0.0279789 0.00256605 0.0167049 0.00354065 0.0287609 0.00358201 0.0164627 0.0032496 0.0501556
87 2 Si 5.55495 16.2705 1.4948 2.4 1 0.00189183 0.00285402 0.00166969 0.00418684 0.00194992 0.00892738 0.00140416 0.0214126 0.00146116 0.00800314 0.00135028 0.0289022 0.00242877 0.0163556 0.00288476 0.0288537 0.00377211 0.0158729 0.00359392 0.0497926
88 3 O 5.6115 17.8838 1.4948 -1.2 1 0.00177976 0.00295661 0.00176781 0.00402817 0.00181615 0.00914493 0.00152147 0.0217374 0.00186949 0.00794025 0.00148872 0.0289626 0.00217708 0.0166192 0.00277992 0.0289258 0.00331943 0.0158247 0.00344843 0.0498401
89 3 O 1.93416 15.2965 1.4948 -1.2 1 0.00143075 0.00302604 0.00179717 0.0042365 0.00194599 0.00837146 0.00203548 0.0219683 0.0019489 0.00818639 0.00150612 0.0293854 0.00226934 0.0162767 0.00298273 0.0296502 0.00380503 0.0165261 0.00325056 0.0501125
90 3 O 4.85636 15.5644 0.196716 -1.2 1 0.00154956 0.00251432 0.00153028 0.0042823 0.00144609 0.00919389 0.00144564 0.0214589 0.00105745 0.00828809 0.00168004 0.0283378 0.002623 0.0161634 0.00354401 0.0292126 0.00327243 0.0158295 0.00297583 0.0492498
91 1 Mg 6.44662 14.247 2.9896 1.2 1 0.00155288 0.00375076 0.00185867 0.00438495 0.00260383 0.00864959 0.00289573 0.0209646 0.00267619 0.008641 0.00191605 0.0296365 0.00321854 0.0164633 0.00314992 0.029684 0.00414419 0.0176148 0.00470061 0.0503724
92 3 O 4.81537 15.5644 2.79288 -1.2 1 0.0023141 0.00322062 0.00174032 0.0041351 0.00241249 0.0088081 0.00177558 0.0219126 0.0017249 0.00872062 0.00190016 0.0283416 0.00298406 0.0165491 0.00369356 0.0296364 0.00486984 0.0172885 0.00483896 0.0508097
93 1 Mg -0.948271 14.2883 4.4844 1.2 1 0.00296089 0.00406426 0.00192667 0.00444499 0.00291493 0.00794712 0.00271274 0.0217942 0.00280561 0.00841827 0.00279567 0.0291208 0.00364686 0.0170812 0.00513466 0.0305926 0.00608225 0.0191656 0.0065292 0.0523011
94 2 Si -2.75928 16.9724 4.4844 2.4 1 0.00275835 0.0036693 0.00199975 0.0044572 0.00288437 0.00802278 0.0027967 0.0222956 0.00272112 0.00791737 0.00262235 0.028563 0.00353697 0.0171338 0.00465272 0.0298711 0.00528294 0.0186345 0.00599377 0.0531872
95 3 O -2.81617 15.3592 4.4844 -1.2 1 0.00305353 0.0041353 0.00204788 0.00437954 0.00305403 0.00772927 0.00285261 0.0213685 0.0026624 0.00786896 0.00226964 0.029257 0.00392313 0.0163621 0.00429517 0.0306834 0.00614288 0.018881 0.00667049 0.0524622
96 3 O 0.862762 17.9465 4.4844 -1.2 1 0.00267091 0.00397742 0.00181872 0.00464909 0.00304191 0.00836014 0.00264286 0.0225941 0.00273996 0.00794033 0.00263106 0.0291396 0.00388726 0.017192 0.00448801 0.0295564 0.00571242 0.0188088 0.0062608 0.0527634
97 3 O -2.0185 17.6786 3.18632 -1.2 1 0.00248196 0.00338478 0.00197661 0.00389664 0.0027161 0.00763443 0.00221555 0.0223667 0.00239655 0.00807886 0.00220424 0.0279929 0.00351883 0.016608 0.0046457 0.0299894 0.00483771 0.0176723 0.00508859 0.0517593
98 3 O -2.06164 17.6786 5.78248 -1.2 1 0.00330851 0.00424134 0.0017402 0.00470402 0.00291425 0.00705706 0.00251807 0.0226279 0.00249644 0.00801495 0.00265731 0.0285151 0.00367132 0.0178061 0.00487893 0.0310678 0.00608747 0.020433 0.00650803 0.0549876
99 1 Mg 1.39817 16.6215 2.9896 1.2 1 0.00224657 0.00326847 0.00189221 0.00429987 0.00262842 0.00836548 0.0025844 0.0213534 0.00267682 0.0082365 0.00221892 0.0292613 0.00300342 0.016755 0.00352345 0.0294402 0.00425163 0.0168244 0.00429798 0.0506055
100 1 Mg 4.20062 16.5802 4.4844 1.2 1 0.00274967 0.00365962 0.0022131 0.00431694 0.00280168 0.00769067 0.00252914 0.0219652 0.00309315 0.00790565 0.00288587 0.0289662 0.00345592 0.0176235 0.0054027 0.0301286 0.00639076 0.0187644 0.00618531 0.052619
101 2 Si 2.37796 18.645 4.4844 2.4 1 0.00239191 0.00341441 0.0017645 0.00448442 0.00295707 0.00793604 0.0029088 0.0224918 0.00268464 0.00804061 0.00268504 0.0284417 0.00371226 0.017469 0.00459825 0.029545 0.0052912 0.0183714 0.00583528 0.0535511
102 3 O 2.39434 20.2583 4.4844 -1.2 1 0.00261492 0.00370279 0.0017513 0.00449615 0.0029524 0.00692099 0.00275779 0.0216498 0.00296166 0.00739404 0.00191427 0.0289719 0.00326223 0.0169441 0.00412568 0.0301549 0.00581515 0.0183056 0.00652237 0.0532653
103 3 O -4.24274 17.671 4.4844 -1.2 1 0.00250217 0.0038922 0.00212235 0.00446627 0.00281529 0.00855157 0.00277538 0.0226285 0.00288926 0.00800553 0.00241042 0.0290562 0.00349542 0.0169701 0.00494967 0.0300184 0.00589209 0.0189952 0.00653836 0.052847
104 3 O 3.08659 17.9389 3.18632 -1.2 1 0.0024352 0.00300794 0.00192138 0.00388004 0.00278169 0.00790346 0.00207407 0.0222293 0.00241167 0.00808691 0.00226792 0.0280687 0.0032657 0.0167276 0.00430038 0.0295052 0.00532213 0.0175176 0.00536801 0.0516446
105 1 Mg 1.44478 16.6215 0 1.2 1 0.00218443 0.00270283 0.00115444 0.00396563 0.00154375 0.00896709 0.00121301 0.0215636 0.00145373 0.00829922 0.00160426 0.0288646 0.00231075 0.0158707 0.00239142 0.0292267 0.00293584 0.0160304 0.00297861 0.0490078
106 3 O 3.0436 17.9389 5.78248 -1.2 1 0.00276309 0.00406533 0.00175399 0.00489138 0.00273255 0.0070607 0.00243349 0.0225851 0.00237113 0.00817085 0.00299188 0.0284095 0.00392125 0.0174787 0.00515129 0.0309407 0.00614146 0.0205738 0.00646309 0.0550614
107 1 Mg -1.40524 16.6628 1.4948 1.2 1 0.00144621 0.00312887 0.00154844 0.00409115 0.00175283 0.00868976 0.00174757 0.022217 0.00203131 0.00829358 0.00182969 0.0284884 0.00321572 0.0167758 0.00300778 0.029331 0.00300785 0.0165871 0.0030612 0.0498204
108 2 Si 0.420358 14.5979 1.4948 2.4 1 0.00115006 0.00301363 0.00167918 0.00458591 0.00205121 0.00912741 0.00174409 0.0214784 0.00182971 0.00830633 0.00155563 0.0287124 0.0029861 0.0165122 0.00354585 0.0287537 0.00350943 0.0164508 0.00324974 0.0496428
109 3 O 0.408732 12.9847 1.4948 -1.2 1 0.00105769 0.00318295 0.00157395 0.00454931 0.0019791 0.00911646 0.00146313 0.0211617 0.00229895 0.00853053 0.00161965 0.0293402 0.00316884 0.0160385 0.0031427 0.029759 0.00337307 0.0168767 0.00362382 0.0495053
110 3 O 7.03923 15.572 1.4948 -1.2 1 0.00121788 0.00328129 0.00173608 0.00414569 0.00214382 0.00836599 0.00223663 0.0217956 0.00225202 0.00811205 0.00155523 0.029501 0.002686 0.0164514 0.00290945 0.0295718 0.00350058 0.01669 0.00376826 0.0499406
111 3 O -0.248332 15.3041 0.196716 -1.2 1 0.0016573 0.00268291 0.00126341 0.00419778 0.00126445 0.00902855 0.00177413 0.021371 0.0014727 0.00837304 0.00164489 0.0283125 0.00292948 0.0160092 0.00370233 0.0291957 0.0029725 0.01598 0.00299293 0.0491426
112 3 O -0.289436 15.3041 2.79288 -1.2 1 0.00246809 0.00350475 0.00162606 0.00426015 0.00259244 0.00873417 0.00195967 0.0220001 0.0020052 0.00876123 0.00208658 0.0278942 0.00321186 0.016647 0.00371738 0.0297134 0.00461747 0.017671 0.00449552 0.0509049
113 1 Mg 6.59566 18.996 0 1.2 1 0.0014573 0.00307358 0.00162151 0.00392504 0.00114558 0.00861506 0.00116419 0.022017 0.00116977 0.00786675 0.00141064 0.0284054 0.00200751 0.0164367 0.00225934 0.0286686 0.00285382 0.0159092 0.00282745 0.0489638
114 1 Mg 3.85574 23.7037 1.4948 1.2 1 0.00183753 0.00275832 0.00127177 0.0040779 0.001654 0.00734149 0.00128509 0.023187 0.00178345 0.00760816 0.00229929 0.027442 0.00250309 0.017618 0.00373731 0.0284048 0.00330628 0.0171941 0.00339039 0.0510131
115 2 Si 5.66125 21.0195 1.4948 2.4 1 0.00170768 0.00260208 0.00127705 0.00388036 0.00199785 0.00812347 0.00148124 0.021963 0.00135663 0.00756206 0.00152152 0.0283072 0.00253054 0.0174124 0.00277058 0.028101 0.0035781 0.0158299 0.00389726 0.0504222
116 3 O 5.72074 22.6328 1.4948 -1.2 1 0.00173411 0.00264194 0.00162113 0.00396229 0.00181373 0.00811719 0.00162103 0.0223943 0.00184786 0.00734956 0.00146977 0.028195 0.00219036 0.0173759 0.0028893 0.028368 0.0032576 0.0163156 0.00361872 0.0504324
117 3 O 2.03867 20.0455 1.4948 -1.2 1 0.00153126 0.00312972 0.00151979 0.00405158 0.00192611 0.00776517 0.00207307 0.0223254 0.00220516 0.00750314 0.00146198 0.0287469 0.00226573 0.0173068 0.00251007 0.0288676 0.00357919 0.0161555 0.00341131 0.0505908
118 3 O 4.96004 20.3134 0.196716 -1.2 1 0.00195571 0.0024243 0.00149587 0.00385956 0.0014166 0.00827689 0.00115184 0.0218127 0.00106714 0.0075596 0.00162251 0.0279159 0.00269996 0.0167246 0.00384748 0.0286572 0.00306626 0.0152944 0.00287026 0.0496898
119 1 Mg 6.55057 18.996 2.9896 1.2 1 0.00143228 0.00331569 0.00160509 0.00397265 0.00261412 0.00816195 0.00284673 0.0214217 0.00256196 0.00799511 0.0017222 0.0293325 0.00299339 0.0171139 0.00303448 0.0289819 0.00395936 0.017003 0.004648 0.0509499