ITEM: TIMESTEP
1200
ITEM: NUMBER OF ATOMS
10500
ITEM: BOX BOUNDS xy xz yz pp pp pp
0	15.2974	5.099
0	118.725	0
0	89.688	0
ITEM: ATOMS id type element xu yu zu q Q_1 Q_2 Q_3 Q_4 Q_5 Q_6 Q_7 Q_8 Q_9 Q_10 Q_11 Q_12 Q_13 Q_14 Q_15 Q_16 Q_17 Q_18 Q_19 Q_20 Q_21
1 1 Mg 6.2404 -6.37941e-06 0 1.2 1 0.000954472 0.00377169 0.00113065 0.00489595 0.00123788 0.00554794 0.00216586 0.0163198 0.00218481 0.00598023 0.00210554 0.0222837 0.00245155 0.0134565 0.00337885 0.0205102 0.00415193 0.0144224 0.0041628 0.0403028
2 1 Mg 3.46349 4.70768 1.4948 1.2 1 0.00111549 0.00315208 0.00156363 0.00445478 0.00173933 0.00613371 0.00351902 0.0186829 0.00290065 0.00688695 0.00298843 0.0258414 0.00306341 0.0140239 0.00436121 0.0252282 0.00547713 0.0173331 0.00575098 0.0436104
3 2 Si 5.2885 2.02354 1.4948 2.4 1 0.000492823 0.00318477 0.00222986 0.00469389 0.00171748 0.00571954 0.00248522 0.0171471 0.00254889 0.0060589 0.00218876 0.0234904 0.00269028 0.0134386 0.00353385 0.0214305 0.00391636 0.0155965 0.00422574 0.0411418
4 3 O 5.33628 3.63678 1.4948 -1.2 1 0.000596427 0.00262271 0.00180818 0.00483639 0.00191865 0.00624438 0.00283309 0.0178347 0.00236673 0.00660336 0.00206342 0.0252882 0.00238244 0.0137175 0.00421557 0.0239617 0.00508877 0.0165987 0.00574872 0.0426696
5 3 O 1.67294 1.04952 1.4948 -1.2 1 0.00150458 0.00335576 0.00186399 0.00426432 0.00135134 0.00566089 0.00240067 0.0170585 0.00238273 0.00601982 0.0022004 0.0228181 0.00254656 0.0127554 0.00316495 0.0215324 0.00479504 0.0159023 0.00487613 0.039944
6 3 O 4.59532 1.31737 0.196716 -1.2 1 0.000909886 0.00275955 0.00209635 0.00441808 0.00194914 0.00570194 0.00243099 0.0173351 0.00263817 0.00636871 0.00195492 0.0227691 0.00306679 0.0126993 0.00404394 0.0214283 0.00416288 0.015104 0.00453757 0.0407224
7 1 Mg 6.18956 -6.37941e-06 2.9896 1.2 1 0.000996512 0.00443894 0.00156788 0.00459958 0.00135712 0.00575401 0.00238434 0.0161732 0.00276941 0.00533368 0.00185864 0.0226047 0.00266351 0.0133108 0.00364719 0.0202469 0.00451064 0.0150403 0.00473471 0.0391773
8 3 O 4.55118 1.31737 2.79288 -1.2 1 0.00121075 0.00458547 0.00226821 0.00435434 0.00174 0.00572931 0.00251192 0.0169649 0.0025927 0.00669527 0.00243087 0.0218106 0.00336699 0.0122746 0.00333274 0.0211974 0.00487335 0.0157862 0.00532564 0.0398521
9 1 Mg -1.20682 0.0413099 4.4844 1.2 1 0.00038829 0.00296528 0.00172824 0.00480293 0.00147785 0.0052795 0.00193104 0.0162203 0.00222498 0.00569691 0.00213784 0.0228182 0.00297725 0.0119349 0.00354587 0.0206262 0.00531702 0.016187 0.00525094 0.0389667
10 2 Si -3.0337 2.72544 4.4844 2.4 1 0.000805751 0.00376073 0.00180085 0.00494449 0.00214421 0.00586718 0.00319827 0.0166589 0.00326392 0.00586733 0.00220869 0.0239715 0.0030428 0.013301 0.00385227 0.0224201 0.00576291 0.0182314 0.00642731 0.0396156
11 3 O -3.08099 1.11221 4.4844 -1.2 1 0.000744325 0.00408412 0.00198317 0.00465715 0.00122381 0.00542615 0.00219441 0.0159547 0.00284276 0.00526388 0.00224583 0.0222885 0.00305325 0.0116494 0.00343378 0.0209307 0.00530324 0.0167841 0.0055817 0.0384915
12 3 O 0.582463 3.69946 4.4844 -1.2 1 0.00186028 0.00463298 0.00205584 0.0043108 0.00233605 0.0064619 0.00337847 0.0173701 0.0032519 0.00633851 0.00319334 0.0246269 0.00386273 0.013226 0.00435752 0.0240711 0.00709269 0.0190892 0.008121 0.0417005
13 3 O -2.29524 3.43162 3.18632 -1.2 1 0.00104218 0.00275652 0.00240264 0.00468817 0.00223126 0.00589148 0.00293675 0.0179587 0.00308191 0.00659787 0.00277922 0.0245444 0.00308532 0.0131995 0.00455584 0.02419 0.00623259 0.0182479 0.00677754 0.0418779
14 3 O -2.34216 3.43162 5.78248 -1.2 1 0.00178453 0.00403715 0.00136988 0.0047655 0.0023063 0.00569318 0.00294364 0.0168658 0.00269647 0.00689955 0.00274324 0.0233366 0.00394698 0.0129403 0.00416301 0.0231673 0.00650095 0.019942 0.00709363 0.0398067
15 1 Mg 1.12778 2.37449 2.9896 1.2 1 0.00142389 0.00373369 0.00222016 0.00454737 0.00205027 0.00574225 0.00286845 0.0168364 0.00269955 0.00615436 0.0024375 0.0234171 0.00309507 0.0130185 0.00332428 0.0217593 0.00515149 0.0167922 0.00576211 0.0406066
16 1 Mg 3.92855 2.33318 4.4844 1.2 1 0.00142895 0.00477877 0.00175994 0.0042325 0.00148809 0.00543365 0.00342899 0.0167588 0.00307755 0.00562781 0.00301478 0.0229145 0.00358022 0.0135647 0.00522161 0.0219679 0.00654717 0.0175585 0.00698523 0.0403136
17 2 Si 2.09341 4.39804 4.4844 2.4 1 0.00168779 0.0044497 0.0019861 0.00395415 0.00281288 0.00578246 0.00371569 0.0181096 0.00343725 0.00643616 0.00336549 0.0246451 0.00424077 0.0141401 0.00434848 0.0244008 0.00703277 0.0190361 0.0083479 0.0430889
18 3 O 2.09991 6.01128 4.4844 -1.2 1 0.00227467 0.00465977 0.00168737 0.00383099 0.00264074 0.00615829 0.00313098 0.0191081 0.00272027 0.00717867 0.00319133 0.0263401 0.00378676 0.0143585 0.00484343 0.0272882 0.00703202 0.0199711 0.00826673 0.0447511
19 3 O -4.52137 3.42402 4.4844 -1.2 1 0.00121915 0.0043062 0.00237788 0.00460255 0.00217313 0.00676852 0.00349566 0.0168676 0.00324704 0.00606123 0.00304077 0.0237335 0.00353715 0.0130828 0.00406957 0.0227306 0.00654359 0.0181705 0.00731386 0.0410526
20 3 O 2.80834 3.69187 3.18632 -1.2 1 0.00140347 0.00398759 0.00180582 0.00370128 0.001794 0.00574329 0.0030374 0.017317 0.00297696 0.00620548 0.00295682 0.024041 0.00340106 0.0129779 0.00476604 0.0236714 0.00600024 0.0174133 0.00632455 0.0421846
21 1 Mg 1.17857 2.37449 0 1.2 1 0.00170463 0.00327569 0.00192115 0.0043629 0.0014312 0.00554111 0.00243159 0.0176579 0.00244637 0.00666156 0.0026218 0.0235297 0.00275699 0.0132456 0.00348137 0.0216942 0.00448324 0.0152381 0.00476218 0.0408704
22 3 O 2.76143 3.69187 5.78248 -1.2 1 0.00211373 0.00477782 0.00181223 0.00412776 0.00201658 0.00525199 0.00288451 0.0173211 0.00315598 0.00695324 0.00290018 0.0230963 0.00443954 0.013269 0.00552736 0.0232275 0.00679328 0.0189455 0.00741231 0.0412026
23 1 Mg -1.67381 2.41581 1.4948 1.2 1 0.00114015 0.00266062 0.00229165 0.00512378 0.00142622 0.00600072 0.00253915 0.016799 0.00255218 0.00635526 0.0020349 0.0243546 0.00239145 0.0142841 0.00270156 0.0220944 0.00441646 0.0162978 0.0049014 0.0415065
24 2 Si 0.16286 0.350945 1.4948 2.4 1 0.00165426 0.00265667 0.00244229 0.004576 0.00128842 0.00621211 0.00281406 0.016654 0.00212895 0.0053347 0.00196234 0.0230574 0.0022678 0.0133768 0.00292531 0.0205254 0.00484237 0.0149287 0.0044799 0.0401564
25 3 O 0.15972 -1.26229 1.4948 -1.2 1 0.00137985 0.00262511 0.00276703 0.00475884 0.00179227 0.00605085 0.00245011 0.0166187 0.00218858 0.00548062 0.00243674 0.0229931 0.00250542 0.0137044 0.00288054 0.0213608 0.00442719 0.0147922 0.00401435 0.0406156
26 3 O 6.77654 1.32496 1.4948 -1.2 1 0.00114304 0.00369739 0.00163162 0.00485035 0.0013285 0.00591478 0.00237976 0.0168824 0.00255597 0.00543686 0.0017966 0.0238532 0.00255893 0.013492 0.00346329 0.0216768 0.00471483 0.0155131 0.00447429 0.0406779
27 3 O -0.508028 1.05712 0.196716 -1.2 1 0.001119 0.00259835 0.00315632 0.00433897 0.00135542 0.00553806 0.00241491 0.0172854 0.00177074 0.00676585 0.00248483 0.0224182 0.00261061 0.0127818 0.00293039 0.0211882 0.00429057 0.0152267 0.00435945 0.0399611
28 3 O -0.552171 1.05712 2.79288 -1.2 1 0.000868686 0.00222069 0.00272732 0.00467843 0.00130341 0.00612731 0.00223069 0.0164112 0.00248821 0.00607846 0.00184949 0.0229493 0.00282291 0.0118376 0.00351018 0.0213786 0.00559659 0.0159456 0.00495719 0.0395615
29 1 Mg 6.31713 4.74899 0 1.2 1 0.000661724 0.0022818 0.00183624 0.00484113 0.00220112 0.00618985 0.00329866 0.0182008 0.00289772 0.00715212 0.00221863 0.0255057 0.00264919 0.0137324 0.00418346 0.0246238 0.00476298 0.0164857 0.00590623 0.0425952
30 1 Mg 3.54847 9.45668 1.4948 1.2 1 0.00120402 0.00325233 0.0019959 0.00467273 0.00198527 0.00756855 0.00300178 0.0214735 0.00176558 0.00848679 0.00240839 0.028716 0.00312957 0.0156878 0.00402215 0.0292504 0.00437109 0.0183725 0.00412348 0.0484949
31 2 Si 5.36879 6.77254 1.4948 2.4 1 0.000662932 0.00290639 0.00200307 0.00513688 0.00260614 0.00695211 0.00372321 0.0195961 0.00276436 0.00774955 0.00252899 0.0277778 0.00319265 0.0153613 0.00424066 0.027033 0.00498954 0.0174666 0.00532402 0.046272
32 3 O 5.41937 8.38578 1.4948 -1.2 1 0.00095966 0.00319146 0.00174692 0.0049587 0.00216576 0.00770581 0.00307025 0.0209838 0.00232163 0.00836558 0.00245924 0.0291515 0.00222411 0.0155615 0.00320103 0.0291535 0.00489276 0.0178177 0.00507498 0.0477397
33 3 O 1.75158 5.79852 1.4948 -1.2 1 0.000875776 0.00346843 0.00166202 0.00403988 0.00220478 0.00597711 0.00322 0.0195834 0.00280638 0.00719113 0.00264216 0.0278365 0.00277697 0.0155956 0.0034836 0.0268201 0.00572398 0.0178189 0.00572993 0.0454047
34 3 O 4.67421 6.06637 0.196716 -1.2 1 0.000655531 0.00283728 0.00159467 0.00487087 0.00194234 0.00684944 0.00294937 0.0198922 0.00245579 0.00812019 0.00202275 0.0264246 0.00332825 0.0144273 0.00411045 0.0267425 0.00486972 0.0169412 0.00555451 0.0449325
35 1 Mg 6.26654 4.74899 2.9896 1.2 1 0.0013107 0.00310099 0.00216277 0.0048933 0.00257171 0.00651533 0.00370257 0.0179718 0.00371192 0.0068863 0.00238385 0.0258177 0.00366861 0.0146455 0.00494176 0.0248455 0.00602843 0.0179368 0.00713643 0.0432793
36 3 O 4.63043 6.06637 2.79288 -1.2 1 0.00192043 0.00336466 0.00185697 0.00470418 0.00221847 0.00668175 0.00345881 0.0192957 0.00350436 0.00783522 0.00266714 0.0260163 0.00383112 0.014721 0.00485215 0.0272064 0.00606365 0.018483 0.00704679 0.0450908
37 1 Mg -1.12976 4.79031 4.4844 1.2 1 0.00203361 0.00403802 0.00151173 0.00472513 0.00230053 0.00599091 0.00327253 0.0179097 0.00314634 0.00702572 0.00315799 0.0256744 0.00390031 0.0147099 0.00458526 0.0253873 0.00767992 0.0197459 0.00802602 0.0438845
38 2 Si -2.9517 7.47444 4.4844 2.4 1 0.0021912 0.00412713 0.00130819 0.00496822 0.00301601 0.00624445 0.00369673 0.020385 0.00308619 0.00777338 0.00315997 0.0272248 0.00416799 0.0158978 0.00528312 0.028057 0.00697963 0.0201461 0.00838034 0.0472836
39 3 O -3.00198 5.86121 4.4844 -1.2 1 0.00233811 0.00441447 0.00120451 0.00483428 0.00314118 0.0062532 0.0039784 0.0187466 0.00333633 0.00752082 0.00302616 0.0255784 0.00413123 0.0142849 0.00471933 0.0268456 0.00714177 0.0202492 0.00837758 0.044921
40 3 O 0.666315 8.44846 4.4844 -1.2 1 0.00281102 0.00486036 0.00150197 0.00474105 0.00281791 0.00723286 0.00307062 0.0210815 0.00289181 0.0080456 0.00332107 0.0285142 0.00461853 0.0159749 0.00485344 0.0290345 0.0068495 0.0203406 0.00791584 0.0478242
41 3 O -2.21213 8.18062 3.18632 -1.2 1 0.00186765 0.00423283 0.00156152 0.00451653 0.00265984 0.00636131 0.0028499 0.0208854 0.00271399 0.0081596 0.00300512 0.0276274 0.004151 0.0157318 0.00502928 0.0289065 0.0061754 0.0193052 0.00693054 0.0482296
42 3 O -2.25864 8.18062 5.78248 -1.2 1 0.00315159 0.00482841 0.0015754 0.00461288 0.00300557 0.00578429 0.0030869 0.0204565 0.00249821 0.0086264 0.0035322 0.0266068 0.00450391 0.0163796 0.00528668 0.0290967 0.00744353 0.0213865 0.00865178 0.0478179
43 1 Mg 1.20893 7.12349 2.9896 1.2 1 0.00143577 0.00407984 0.00163691 0.004232 0.00267039 0.0065549 0.00362837 0.0196254 0.00281925 0.00800829 0.00290326 0.0279006 0.00345909 0.0158213 0.00394612 0.0275021 0.00584314 0.0186164 0.00671218 0.0463325
44 1 Mg 4.00982 7.08218 4.4844 1.2 1 0.00230421 0.00435509 0.00158161 0.00454991 0.00249126 0.00615777 0.00386931 0.0199513 0.0034046 0.00751561 0.00330574 0.0272614 0.00403507 0.0165875 0.0059723 0.0279904 0.00747756 0.0198336 0.0083706 0.0463625
45 2 Si 2.17861 9.14704 4.4844 2.4 1 0.00248511 0.00436192 0.00171719 0.00467046 0.00282569 0.00717669 0.00374894 0.0211001 0.00268144 0.00819327 0.00314839 0.0280222 0.00442214 0.0165336 0.00468663 0.0295634 0.00623435 0.0200323 0.00735299 0.049234
46 3 O 2.18828 10.7603 4.4844 -1.2 1 0.00286046 0.00473384 0.00195048 0.0045062 0.0026913 0.0069561 0.00310164 0.0209682 0.00238133 0.00830564 0.00230114 0.028863 0.00422438 0.0157589 0.0045023 0.0305329 0.00633842 0.0202841 0.00699566 0.0500128
47 3 O -4.43805 8.17302 4.4844 -1.2 1 0.00198266 0.00466319 0.00167487 0.0048631 0.00258042 0.0074075 0.00334759 0.0206161 0.00331827 0.00814726 0.00336939 0.0280778 0.00453264 0.0158796 0.0051643 0.0291684 0.00703639 0.0201402 0.00916424 0.0475822
48 3 O 2.89193 8.44087 3.18632 -1.2 1 0.00216883 0.0038055 0.00164922 0.004188 0.00235818 0.00677479 0.00332983 0.0205175 0.00275833 0.00841568 0.00296945 0.0275799 0.00381046 0.0158444 0.0046795 0.028856 0.00615011 0.0191098 0.00626944 0.0480266
49 1 Mg 1.25915 7.12349 0 1.2 1 0.000553911 0.00294281 0.00154566 0.00436243 0.0018139 0.00714538 0.00282979 0.020223 0.00279147 0.00820981 0.00262186 0.0277887 0.00341154 0.0144182 0.0037313 0.0275521 0.00487158 0.0177518 0.00458583 0.0456251
50 3 O 2.84547 8.44087 5.78248 -1.2 1 0.00296917 0.0049945 0.00154153 0.00440818 0.00251688 0.0063395 0.00352857 0.0208077 0.00284705 0.00874737 0.00331477 0.0267678 0.00529648 0.0163471 0.00543031 0.0295077 0.00667532 0.0217967 0.00801934 0.0485849
51 1 Mg -1.59284 7.16481 1.4948 1.2 1 0.000900906 0.00330889 0.00134948 0.00457252 0.00187856 0.00626043 0.00260329 0.0200156 0.00295391 0.00781055 0.00187582 0.0277914 0.00334786 0.0156045 0.00384719 0.0272586 0.00502215 0.0178715 0.00580778 0.0462964
52 2 Si 0.240329 5.09994 1.4948 2.4 1 0.000815539 0.00363882 0.00175001 0.00425528 0.00179454 0.00672088 0.00305434 0.0190238 0.00311948 0.00728861 0.0023533 0.0260972 0.0027127 0.014642 0.00415603 0.0248108 0.0053839 0.0172468 0.00547795 0.0444746
53 3 O 0.234538 3.48671 1.4948 -1.2 1 0.00143431 0.00364618 0.00227907 0.00449527 0.00178511 0.00636699 0.00262795 0.0180606 0.00334544 0.00693816 0.0024469 0.0245897 0.00307243 0.0136736 0.00390786 0.0239127 0.00570304 0.0162693 0.00556514 0.0422468
54 3 O 6.85564 6.07396 1.4948 -1.2 1 0.000696437 0.00264418 0.00229514 0.00482609 0.00244297 0.00615021 0.00307676 0.0199985 0.0030468 0.00747275 0.00218198 0.0277358 0.00332983 0.0148043 0.00482191 0.0268837 0.00574892 0.0179682 0.00645829 0.0451433
55 3 O -0.429565 5.80612 0.196716 -1.2 1 0.000642853 0.00299241 0.00209528 0.00433018 0.0017829 0.00703682 0.00245652 0.0196109 0.00273566 0.00845559 0.00245901 0.0259175 0.00253544 0.014272 0.00395166 0.0259915 0.00509518 0.0170575 0.00577708 0.0449248
56 3 O -0.473377 5.80612 2.79288 -1.2 1 0.00187389 0.00382222 0.00146738 0.00450923 0.00225793 0.00657917 0.00314236 0.0190717 0.00302555 0.00780336 0.0031366 0.0257546 0.00357889 0.0144877 0.00443915 0.0262979 0.00670539 0.0187601 0.00716678 0.0451739
57 1 Mg 6.40169 9.49799 0 1.2 1 0.000419494 0.00362113 0.00155764 0.00470492 0.00137298 0.0082584 0.00190125 0.0211726 0.00176391 0.00899752 0.00172681 0.0289929 0.00211392 0.014816 0.0027257 0.0300321 0.00387417 0.0180857 0.00416024 0.0473098
58 1 Mg 3.64209 14.2057 1.4948 1.2 1 0.00179523 0.00311277 0.0017526 0.00472121 0.0015421 0.00885823 0.00160479 0.0217015 0.0016335 0.00883279 0.00219391 0.0285962 0.00255272 0.0160941 0.00322952 0.0296209 0.00345484 0.017089 0.00356902 0.0491408
59 2 Si 5.45748 11.5215 1.4948 2.4 1 0.00178345 0.00314873 0.00190461 0.00468305 0.00160291 0.00819522 0.00205668 0.0211873 0.001613 0.00841989 0.00173535 0.0290803 0.00265564 0.0161258 0.00342214 0.0294008 0.00414333 0.017009 0.00387256 0.0489748
60 3 O 5.51101 13.1348 1.4948 -1.2 1 0.00180103 0.00314337 0.00186297 0.00473021 0.00143545 0.00910937 0.00169069 0.0212564 0.00177535 0.00878726 0.00166539 0.0296088 0.00214143 0.0161141 0.00293196 0.0299104 0.00370141 0.0168253 0.00367276 0.0488858
61 3 O 1.83851 10.5475 1.4948 -1.2 1 0.000814342 0.00365876 0.00189764 0.00484271 0.0017568 0.00769113 0.00219029 0.0216819 0.00172406 0.00841814 0.00213291 0.0294904 0.00259334 0.0156879 0.0034189 0.0299262 0.00411909 0.0180462 0.00376096 0.048934
62 3 O 4.7611 10.8154 0.196716 -1.2 1 0.000769836 0.00287013 0.00213019 0.00475893 0.00161145 0.0085019 0.00218094 0.0214619 0.00155696 0.00886732 0.00190617 0.0284447 0.00292388 0.0156105 0.0040774 0.0295782 0.00381319 0.0172718 0.0037004 0.0482936
63 1 Mg 6.35203 9.49799 2.9896 1.2 1 0.00157787 0.00407623 0.0015985 0.004728 0.00258711 0.00750749 0.0033485 0.0203937 0.00307667 0.00863632 0.00221441 0.0293123 0.00378234 0.0161283 0.00349137 0.0290869 0.00462588 0.0188355 0.0059078 0.0483168
64 3 O 4.71833 10.8154 2.79288 -1.2 1 0.00226587 0.00360334 0.00174763 0.00450701 0.00199754 0.00813432 0.0021795 0.0215079 0.00212339 0.00900619 0.00212576 0.028427 0.00355334 0.0158925 0.0040337 0.0299668 0.00524937 0.0187102 0.00572492 0.0495665
65 1 Mg -1.0438 9.53931 4.4844 1.2 1 0.00301619 0.00475935 0.00162123 0.00441541 0.00288413 0.00654331 0.00260942 0.020962 0.00259249 0.00855392 0.00270072 0.0283041 0.00398591 0.0167341 0.00463755 0.0296768 0.00673445 0.0201636 0.00760042 0.0493091
66 2 Si -2.8604 12.2234 4.4844 2.4 1 0.00281948 0.00426916 0.00172228 0.00445595 0.00284738 0.00760856 0.00300414 0.0218761 0.00283253 0.00867235 0.0022409 0.0282467 0.00416298 0.0165193 0.00441258 0.0299513 0.00592949 0.0196013 0.00703848 0.0507347
67 3 O -2.91391 10.6102 4.4844 -1.2 1 0.00300574 0.00456007 0.00175466 0.00437195 0.00299733 0.00696117 0.00335696 0.0206058 0.00267432 0.00797748 0.00221703 0.0286863 0.00431869 0.0159726 0.0041931 0.0304112 0.00620363 0.0199755 0.00729788 0.0496959
68 3 O 0.7596 13.1975 4.4844 -1.2 1 0.00299298 0.00427222 0.00193066 0.00496663 0.00277506 0.00850278 0.0026423 0.0222135 0.0028406 0.00852339 0.00278707 0.0288879 0.00412886 0.0164646 0.00430192 0.0302315 0.00622171 0.0198337 0.00686422 0.0506497
69 3 O -2.12001 12.9296 3.18632 -1.2 1 0.00271975 0.00368014 0.00179559 0.00421983 0.0023043 0.00753089 0.00220922 0.0218045 0.00246117 0.00869214 0.00229092 0.0280564 0.00376634 0.0163399 0.00469432 0.0304764 0.00525793 0.0186578 0.00557198 0.0502337
70 3 O -2.16532 12.9296 5.78248 -1.2 1 0.00344064 0.00466108 0.00162793 0.00468146 0.00297646 0.00700647 0.00241772 0.0218224 0.00263874 0.00851735 0.00296018 0.027811 0.0041602 0.0168321 0.00496041 0.0311611 0.00664865 0.0216286 0.00705034 0.0518236
71 1 Mg 1.29891 11.8725 2.9896 1.2 1 0.00205528 0.00356647 0.00187441 0.0048198 0.0023236 0.00782529 0.00276754 0.0210694 0.00238144 0.00860177 0.00205117 0.0293575 0.00347347 0.0162828 0.00336622 0.0299684 0.00471861 0.0180466 0.00524807 0.0493193
72 1 Mg 4.10033 11.8312 4.4844 1.2 1 0.00254262 0.0043178 0.00193968 0.00442954 0.00250966 0.00707036 0.00265374 0.0214015 0.00262434 0.00840015 0.00289104 0.0289088 0.00383065 0.0173236 0.00514838 0.0304277 0.00664342 0.0199109 0.00690183 0.0506178
73 2 Si 2.27333 13.896 4.4844 2.4 1 0.00262777 0.00391367 0.00177735 0.0049509 0.00300626 0.00790653 0.00320577 0.0219268 0.00252135 0.00852722 0.00284171 0.0285856 0.0039342 0.0167426 0.00441297 0.0301549 0.00568729 0.0194153 0.00635282 0.051503
74 3 O 2.28634 15.5093 4.4844 -1.2 1 0.00269461 0.0042177 0.00188597 0.00480573 0.00307899 0.0074729 0.00290577 0.021142 0.0029168 0.00788643 0.00220361 0.0289982 0.00337643 0.0160636 0.00408164 0.030861 0.00595975 0.0193513 0.00653825 0.0511108
75 3 O -4.34533 12.922 4.4844 -1.2 1 0.00238098 0.00435058 0.00197299 0.00471527 0.00284948 0.00831025 0.0029696 0.0218716 0.0028745 0.00866522 0.00238944 0.0289309 0.00410352 0.0163397 0.0048088 0.0302798 0.00662729 0.0199191 0.00763963 0.0505668
76 3 O 2.98455 13.1899 3.18632 -1.2 1 0.00242001 0.00354213 0.00168846 0.00435575 0.00242704 0.00782709 0.00209121 0.0219883 0.00228693 0.00879523 0.00236636 0.0282315 0.00347673 0.0159922 0.00452131 0.0302177 0.005662 0.0187298 0.00565119 0.0500913
77 1 Mg 1.34779 11.8725 0 1.2 1 0.000693773 0.00285331 0.00152666 0.00494024 0.00138063 0.00882949 0.00153517 0.0213548 0.0012137 0.00916621 0.00189358 0.0292196 0.00279996 0.0150255 0.00305574 0.0300776 0.00327133 0.0173045 0.00335645 0.0479302
78 3 O 2.93934 13.1899 5.78248 -1.2 1 0.0029528 0.00480334 0.00177187 0.00504581 0.00298026 0.00710001 0.00291193 0.0219467 0.00273951 0.00882453 0.00323176 0.0276514 0.00464057 0.0168983 0.00502197 0.0309932 0.00625682 0.021705 0.00728198 0.0516989
79 1 Mg -1.50344 11.9138 1.4948 1.2 1 0.00124341 0.00350487 0.00136227 0.00453296 0.0012575 0.008209 0.00174086 0.0217253 0.0023099 0.00862136 0.00155036 0.028934 0.00348427 0.0161585 0.00334923 0.0297224 0.00362512 0.017579 0.00378085 0.0488722
80 2 Si 0.326006 9.84894 1.4948 2.4 1 0.000328085 0.00335571 0.00153831 0.00492917 0.0018851 0.00809171 0.00201082 0.0211245 0.00209365 0.00843612 0.00160883 0.0287556 0.00302339 0.0157012 0.00376892 0.0289873 0.00390872 0.0178395 0.00368575 0.0483313
81 3 O 0.317364 8.23571 1.4948 -1.2 1 0.00106994 0.00361265 0.00118328 0.00442218 0.00178071 0.00752588 0.00207515 0.0203844 0.00253436 0.00794994 0.00186527 0.0287324 0.00339305 0.0158443 0.00394165 0.0286402 0.00471826 0.017919 0.00449296 0.0473048
82 3 O 6.94307 10.823 1.4948 -1.2 1 0.00125315 0.00366373 0.00160253 0.00454988 0.00179237 0.00771656 0.00249579 0.0218934 0.00228972 0.00840873 0.00154902 0.0296337 0.00292394 0.0158433 0.00334974 0.0298291 0.00389972 0.0180607 0.00432017 0.0489438
83 3 O -0.343122 10.5551 0.196716 -1.2 1 0.000481789 0.00302862 0.0013652 0.00465669 0.00143044 0.008486 0.00172904 0.0213602 0.00160418 0.00906808 0.00202879 0.0283818 0.00324027 0.0153921 0.00412476 0.029444 0.00368728 0.0175176 0.00359021 0.0481904
84 3 O -0.385966 10.5551 2.79288 -1.2 1 0.00246332 0.00404678 0.00139199 0.00444845 0.00248961 0.00785063 0.00213197 0.0215524 0.00205543 0.00911251 0.00242144 0.0278392 0.00377284 0.0159122 0.00423456 0.0301028 0.00534102 0.0188124 0.00542082 0.0493144
85 1 Mg 6.49448 14.247 0 1.2 1 0.00093354 0.00331681 0.00177189 0.00491311 0.00097341 0.00918768 0.00129306 0.0213113 0.0013725 0.00868337 0.00148249 0.0291387 0.00149428 0.0154648 0.00249057 0.0300076 0.00308434 0.0165634 0.00295148 0.0479397
86 1 Mg 3.74457 18.9547 1.4948 1.2 1 0.00187269 0.00314031 0.00137495 0.0042191 0.00184384 0.00859387 0.00119121 0.0223494 0.00192851 0.00808088 0.00218317 0.0279145 0.00239562 0.016552 0.00361184 0.0289334 0.00361673 0.0166411 0.00350237 0.0498326
87 2 Si 5.55495 16.2705 1.4948 2.4 1 0.0020063 0.00289864 0.00145689 0.00465119 0.00176162 0.00895833 0.00137361 0.0214919 0.00139367 0.00804088 0.00129244 0.0287818 0.00226057 0.016415 0.00273939 0.0288841 0.00376543 0.0161676 0.00353123 0.0493836
88 3 O 5.6115 17.8838 1.4948 -1.2 1 0.00186206 0.00294779 0.00162686 0.0045041 0.00180258 0.00920716 0.00141356 0.0217231 0.00189701 0.00785485 0.00139373 0.0289542 0.00200918 0.0164474 0.00268063 0.0290411 0.0033522 0.0160111 0.0036003 0.0494235
89 3 O 1.93416 15.2965 1.4948 -1.2 1 0.00183123 0.00313257 0.00151774 0.00478017 0.00176971 0.0083827 0.00198204 0.0220495 0.00187447 0.00824907 0.00136956 0.0294129 0.00203447 0.0162824 0.00282357 0.0297711 0.00374941 0.0167126 0.0034235 0.0496325
90 3 O 4.85636 15.5644 0.196716 -1.2 1 0.00134616 0.00251877 0.00143423 0.00479653 0.00125985 0.00911566 0.00128617 0.0213542 0.00118773 0.00835025 0.00166257 0.028368 0.00257829 0.0162142 0.00364729 0.0293289 0.00318932 0.0159693 0.00301325 0.048774
91 1 Mg 6.44662 14.247 2.9896 1.2 1 0.00181443 0.00355888 0.00159052 0.0044942 0.00233437 0.00850007 0.00269923 0.0208903 0.00258823 0.00877877 0.00170741 0.0294509 0.00304455 0.0164203 0.00295373 0.0297201 0.00398265 0.0176911 0.00479257 0.0494532
92 3 O 4.81537 15.5644 2.79288 -1.2 1 0.00259355 0.00325471 0.00146164 0.00441023 0.00211571 0.00876607 0.00155583 0.0219929 0.00173713 0.00884712 0.00177658 0.0281695 0.00287202 0.0165554 0.00357868 0.0297698 0.00481427 0.0177398 0.00502583 0.0501405
93 1 Mg -0.948271 14.2883 4.4844 1.2 1 0.00301239 0.00382789 0.00177867 0.00444598 0.00280718 0.00772111 0.00261465 0.021741 0.00275322 0.0084973 0.00287093 0.0287424 0.00358234 0.0169167 0.00519708 0.0306491 0.00630977 0.0192921 0.0067135 0.0510748
94 2 Si -2.75928 16.9724 4.4844 2.4 1 0.00271324 0.00375554 0.00159864 0.00464731 0.00294359 0.00803133 0.00267311 0.022113 0.00274522 0.00808689 0.00245778 0.0283718 0.00362309 0.0169947 0.00468513 0.0299863 0.00536399 0.0189964 0.00609736 0.0518875
95 3 O -2.81617 15.3592 4.4844 -1.2 1 0.00292973 0.0039461 0.00165723 0.00439596 0.00303135 0.00760034 0.00279015 0.0211936 0.00263214 0.00796351 0.00223985 0.0287397 0.00382469 0.0162164 0.00426659 0.0306344 0.00612369 0.0190136 0.00663963 0.0510676
96 3 O 0.862762 17.9465 4.4844 -1.2 1 0.00246475 0.00411509 0.00154787 0.0048821 0.0032594 0.00854967 0.00253667 0.0223177 0.00265372 0.00805983 0.0022252 0.0286674 0.00373085 0.0169064 0.00418242 0.0297097 0.00603851 0.0193318 0.0064644 0.0515937
97 3 O -2.0185 17.6786 3.18632 -1.2 1 0.00241257 0.00335761 0.00159055 0.00426183 0.00269422 0.00781962 0.00199419 0.0222061 0.00236939 0.00814058 0.00221544 0.0278298 0.00341356 0.0167425 0.00447853 0.030205 0.00502796 0.0180335 0.00526126 0.051042
98 3 O -2.06164 17.6786 5.78248 -1.2 1 0.00263815 0.0040295 0.00150661 0.00489711 0.00315611 0.00723867 0.00230221 0.0222428 0.00264042 0.00836643 0.00267114 0.0278353 0.00366731 0.0173662 0.00493754 0.0312173 0.00624818 0.0211468 0.00650012 0.05342
99 1 Mg 1.39817 16.6215 2.9896 1.2 1 0.00236354 0.00329971 0.0015712 0.00477957 0.00260899 0.00839595 0.00250407 0.0214184 0.00255587 0.00822919 0.00186833 0.0290962 0.00260647 0.0166094 0.00320553 0.0296678 0.00430193 0.0170589 0.00470391 0.0500644
100 1 Mg 4.20062 16.5802 4.4844 1.2 1 0.00254553 0.00365301 0.00199376 0.00461677 0.00281869 0.00780104 0.00257784 0.0217574 0.00302481 0.00803161 0.00268813 0.0287263 0.00328335 0.0176579 0.00519067 0.0301882 0.00641614 0.019161 0.00636181 0.0516212
101 2 Si 2.37796 18.645 4.4844 2.4 1 0.00221478 0.00354892 0.00148296 0.00493532 0.00321558 0.00810652 0.00281277 0.0223786 0.00257606 0.00814039 0.00244716 0.0280169 0.00337356 0.0171549 0.00461616 0.0297818 0.00549164 0.0189681 0.00600099 0.0526595
102 3 O 2.39434 20.2583 4.4844 -1.2 1 0.00217788 0.00385526 0.00132084 0.00479553 0.00319745 0.00726035 0.00254474 0.0215536 0.00279086 0.00752954 0.00174461 0.0287003 0.00325506 0.0167279 0.00413809 0.0303902 0.0059961 0.0190023 0.00673797 0.0525647
103 3 O -4.24274 17.671 4.4844 -1.2 1 0.0021106 0.00388633 0.00184143 0.00471828 0.00289873 0.0086853 0.00257942 0.0224123 0.00291787 0.00805709 0.00245064 0.0288782 0.00343808 0.0168377 0.00512407 0.0301512 0.00613233 0.0194869 0.00658509 0.0517961
104 3 O 3.08659 17.9389 3.18632 -1.2 1 0.00249883 0.00317146 0.00158737 0.00435152 0.00271308 0.00791657 0.00199272 0.0221693 0.00236653 0.00805716 0.00207677 0.0280281 0.00306405 0.0166644 0.00424326 0.0297871 0.00549879 0.0178425 0.00552819 0.0511438
105 1 Mg 1.44478 16.6215 0 1.2 1 0.00202824 0.00267739 0.00115907 0.00449407 0.00129891 0.00895911 0.00122992 0.0216345 0.00140044 0.00837172 0.00137672 0.0288734 0.00232127 0.0157905 0.00246103 0.0293085 0.00301067 0.0162419 0.00313987 0.0485833
106 3 O 3.0436 17.9389 5.78248 -1.2 1 0.00246526 0.00447668 0.00156464 0.00513141 0.00311129 0.00737044 0.00251804 0.022193 0.00243518 0.00822684 0.00260765 0.0280024 0.00403298 0.0169153 0.00517684 0.0312641 0.00641202 0.0215024 0.00648202 0.0533345
107 1 Mg -1.40524 16.6628 1.4948 1.2 1 0.00172387 0.00325039 0.00111799 0.00468861 0.00160438 0.0087714 0.00184177 0.0222133 0.00182646 0.00839933 0.00154619 0.0284823 0.00287802 0.0167284 0.00290948 0.0294442 0.00296017 0.0167758 0.00329045 0.0493301
108 2 Si 0.420358 14.5979 1.4948 2.4 1 0.00170097 0.00297274 0.00143931 0.00492774 0.00179297 0.00900189 0.00181804 0.0215578 0.00167412 0.00840465 0.00125153 0.028727 0.00277879 0.0165238 0.00334873 0.0287501 0.00354418 0.0165208 0.00330578 0.0490981
109 3 O 0.408732 12.9847 1.4948 -1.2 1 0.00146864 0.0031042 0.00148924 0.00492954 0.00167011 0.00902919 0.00150953 0.0212723 0.00209963 0.00854749 0.00137136 0.029348 0.0030558 0.0160438 0.0030406 0.0297436 0.00334964 0.0170037 0.0037171 0.0488961
110 3 O 7.03923 15.572 1.4948 -1.2 1 0.00192204 0.00324683 0.00146653 0.00468426 0.00186612 0.00838762 0.00224106 0.0217254 0.00221203 0.00819751 0.00147555 0.0294272 0.00243546 0.0164184 0.0027237 0.0296985 0.0034728 0.0169085 0.00383579 0.049353
111 3 O -0.248332 15.3041 0.196716 -1.2 1 0.00176226 0.00269008 0.00111909 0.00471313 0.0010554 0.00895506 0.00176352 0.0214389 0.00133643 0.00837237 0.0015791 0.0283264 0.00281352 0.0160067 0.00365535 0.0292321 0.0030202 0.0161067 0.0031827 0.0485797
112 3 O -0.289436 15.3041 2.79288 -1.2 1 0.00279107 0.00340972 0.00128253 0.00452904 0.00236284 0.00866112 0.00183265 0.021933 0.00194215 0.00885817 0.00191157 0.0277697 0.00311162 0.0166175 0.00364332 0.0298211 0.00475095 0.0176272 0.004712 0.0500902
113 1 Mg 6.59566 18.996 0 1.2 1 0.00104581 0.00308279 0.00153148 0.00459179 0.000907015 0.00874693 0.00107841 0.0219833 0.00127812 0.00779833 0.001314 0.0283079 0.00190026 0.0162268 0.0022627 0.0285928 0.00286199 0.0159214 0.00278983 0.0484856
114 1 Mg 3.85574 23.7037 1.4948 1.2 1 0.00171374 0.00244988 0.00124039 0.00435898 0.00166796 0.00759217 0.00130126 0.0231638 0.00179299 0.00748044 0.0021269 0.0275565 0.00233748 0.0174821 0.0038321 0.0286007 0.00359313 0.0173421 0.00379262 0.0506171
115 2 Si 5.66125 21.0195 1.4948 2.4 1 0.00175114 0.00245933 0.00116506 0.00437805 0.00210232 0.00830695 0.00140762 0.021977 0.00131845 0.00746557 0.00152331 0.0283597 0.00250572 0.0172608 0.00265649 0.0281457 0.00388179 0.016137 0.0040933 0.0501302
116 3 O 5.72074 22.6328 1.4948 -1.2 1 0.00187211 0.00246024 0.00143176 0.00430152 0.00180064 0.00825821 0.00147221 0.022464 0.00187016 0.00730444 0.00133426 0.0282027 0.00219601 0.0172376 0.00286173 0.0283995 0.00360185 0.0166134 0.00398521 0.0501531
117 3 O 2.03867 20.0455 1.4948 -1.2 1 0.00151934 0.00311766 0.00129864 0.00450937 0.0018678 0.00794023 0.00185576 0.0223349 0.00218262 0.00750837 0.00136605 0.0286858 0.0020889 0.0169518 0.00252019 0.0290969 0.00376401 0.0164227 0.00376617 0.0502519
118 3 O 4.96004 20.3134 0.196716 -1.2 1 0.0016376 0.00240634 0.00142037 0.00438927 0.00121149 0.00851595 0.000989389 0.0219125 0.00105018 0.00746689 0.00168672 0.0278617 0.00266601 0.016433 0.00403283 0.0286163 0.00313462 0.0154079 0.00322548 0.0492523
119 1 Mg 6.55057 18.996 2.9896 1.2 1 0.00155459 0.0033095 0.00133272 0.00434537 0.00272176 0.00837927 0.00258421 0.0213622 0.00250351 0.00804936 0.00173841 0.0291391 0.00271873 0.0168324 0.00306182 0.0291317 0.00414962 0.0174322 0.00478255 0.0503755