ITEM: TIMESTEP
10100
ITEM: NUMBER OF ATOMS
10500
ITEM: BOX BOUNDS xy xz yz pp pp pp
0	15.2974	5.099
0	118.725	0
0	89.688	0
ITEM: ATOMS id type element xu yu zu q Q_1 Q_2 Q_3 Q_4 Q_5 Q_6 Q_7 Q_8 Q_9 Q_10 Q_11 Q_12 Q_13 Q_14 Q_15 Q_16 Q_17 Q_18 Q_19 Q_20 Q_21
1 1 Mg 6.2404 -6.37941e-06 0 1.2 1 0.000975104 0.00443068 0.00127442 0.00468485 0.00142592 0.005766 0.00218341 0.0161367 0.00220744 0.00573363 0.0022596 0.0216921 0.00263927 0.0136167 0.00346548 0.0206794 0.0039478 0.014016 0.00409889 0.0407716
2 1 Mg 3.46349 4.70768 1.4948 1.2 1 0.00118647 0.00334479 0.0016984 0.00429604 0.00195222 0.00620155 0.00356083 0.018562 0.00292768 0.00687444 0.00290598 0.0255852 0.00328888 0.0139742 0.00424089 0.0251052 0.00547724 0.0168745 0.00577797 0.0440314
3 2 Si 5.2885 2.02354 1.4948 2.4 1 0.000676746 0.00359316 0.00207049 0.00439044 0.00186029 0.00588365 0.00251476 0.0171259 0.00247966 0.00614362 0.00214543 0.023102 0.00287849 0.013558 0.0036599 0.0214891 0.00393153 0.0150892 0.0044633 0.0414862
4 3 O 5.33628 3.63678 1.4948 -1.2 1 0.000620719 0.00303306 0.00171922 0.00463556 0.00220584 0.00645646 0.00297287 0.0178015 0.00234557 0.00667632 0.0019702 0.0249513 0.00267531 0.0137067 0.00423534 0.0239383 0.00513491 0.0161141 0.00589598 0.0430116
5 3 O 1.67294 1.04952 1.4948 -1.2 1 0.00176634 0.00338393 0.00188689 0.00406815 0.00137752 0.00583866 0.00243919 0.0169562 0.00243575 0.00602762 0.00222257 0.0226437 0.00271539 0.0128097 0.00334948 0.0217785 0.00478399 0.0154287 0.0049867 0.0404902
6 3 O 4.59532 1.31737 0.196716 -1.2 1 0.00110013 0.00316204 0.00201087 0.00421135 0.00194329 0.00584721 0.00245675 0.0172647 0.00287993 0.00621851 0.00204725 0.0222671 0.00333058 0.0129365 0.0042749 0.0214583 0.0040583 0.0146911 0.00467302 0.041097
7 1 Mg 6.18956 -6.37941e-06 2.9896 1.2 1 0.000940395 0.0048159 0.00127236 0.0042262 0.00123824 0.00570709 0.00239496 0.0161657 0.0027433 0.00558769 0.00177668 0.0221142 0.00287334 0.0131864 0.00358663 0.0204987 0.00447042 0.0145506 0.00504457 0.0390245
8 3 O 4.55118 1.31737 2.79288 -1.2 1 0.0011165 0.00447419 0.00183921 0.00408256 0.00191278 0.00590024 0.00259241 0.0169261 0.00253641 0.00679466 0.00220511 0.0216876 0.0033936 0.0122206 0.00336787 0.0214103 0.00494101 0.0153335 0.00523114 0.0402735
9 1 Mg -1.20682 0.0413099 4.4844 1.2 1 0.000173157 0.00324421 0.00165945 0.00465875 0.0012612 0.00568299 0.00202092 0.0163225 0.0022774 0.00588404 0.00215626 0.0224451 0.00303595 0.0114774 0.00351023 0.0205586 0.00541376 0.0158335 0.00529354 0.0389616
10 2 Si -3.0337 2.72544 4.4844 2.4 1 0.00038985 0.00347068 0.0017984 0.00489207 0.00222324 0.00623169 0.00327238 0.016723 0.00318013 0.00611807 0.0024073 0.0238641 0.0030712 0.0128604 0.00396967 0.0221978 0.00539529 0.0174032 0.00630696 0.039955
11 3 O -3.08099 1.11221 4.4844 -1.2 1 0.000219046 0.00412479 0.0019072 0.00436822 0.0012917 0.00557288 0.00223695 0.0161556 0.00268169 0.00561267 0.00238344 0.0221975 0.00322173 0.0112751 0.00350903 0.0211613 0.00523112 0.0162077 0.00560089 0.0386248
12 3 O 0.582463 3.69946 4.4844 -1.2 1 0.00154752 0.00430033 0.00177729 0.00440399 0.00239825 0.00675639 0.00350684 0.0172449 0.00339881 0.00653216 0.00322649 0.0246217 0.00418672 0.0128312 0.00431614 0.0240994 0.00698845 0.0185586 0.00823844 0.0420013
13 3 O -2.29524 3.43162 3.18632 -1.2 1 0.000845836 0.00303654 0.00254617 0.00448364 0.00225201 0.00608465 0.00286238 0.0179276 0.00323624 0.00657232 0.0027287 0.0243105 0.00338434 0.0129541 0.00458687 0.0240492 0.00604293 0.0177058 0.00682529 0.0423088
14 3 O -2.34216 3.43162 5.78248 -1.2 1 0.000934944 0.00375298 0.00140969 0.00471075 0.00242797 0.00594921 0.00309651 0.0170288 0.00282357 0.00707588 0.00300698 0.0233419 0.00421675 0.0121927 0.00400304 0.0231286 0.00645427 0.0191489 0.00758844 0.0404856
15 1 Mg 1.12778 2.37449 2.9896 1.2 1 0.00147318 0.00376863 0.00224825 0.00434682 0.00224054 0.00596256 0.00306987 0.0167696 0.00262294 0.00608894 0.00240346 0.0233861 0.00321246 0.0129284 0.00340547 0.0216987 0.00500443 0.0162123 0.0055826 0.0411298
16 1 Mg 3.92855 2.33318 4.4844 1.2 1 0.00110324 0.00436221 0.00160368 0.00419794 0.00174569 0.00592899 0.00336096 0.0167821 0.00305986 0.0060535 0.00300247 0.0229151 0.00374553 0.013305 0.00501993 0.0215931 0.00657323 0.0170936 0.00694881 0.0405796
17 2 Si 2.09341 4.39804 4.4844 2.4 1 0.00136621 0.00406676 0.00203424 0.00409871 0.00294926 0.0061247 0.0036954 0.0182004 0.0035055 0.00674057 0.0033942 0.0248357 0.00449614 0.0140112 0.00446568 0.024412 0.00675825 0.0182701 0.00836273 0.0438471
18 3 O 2.09991 6.01128 4.4844 -1.2 1 0.0020232 0.00431545 0.00164036 0.00407199 0.00306784 0.00662181 0.0032991 0.0192514 0.00281802 0.00735333 0.0031427 0.0266639 0.00426718 0.0144146 0.00476381 0.0272853 0.00687397 0.0192323 0.00835398 0.0457559
19 3 O -4.52137 3.42402 4.4844 -1.2 1 0.000986811 0.00395854 0.00229032 0.00459526 0.0022081 0.00709554 0.00348867 0.0171256 0.00346187 0.00630817 0.00314841 0.0234498 0.00399865 0.0128377 0.00415716 0.0226462 0.00650856 0.017623 0.00769958 0.0415942
20 3 O 2.80834 3.69187 3.18632 -1.2 1 0.00132251 0.00367659 0.00169913 0.00363588 0.00207991 0.00595267 0.0030484 0.017415 0.00314102 0.00641684 0.00283255 0.024004 0.00357186 0.0129791 0.00461024 0.0235841 0.00589048 0.0168205 0.00653685 0.0428428
21 1 Mg 1.17857 2.37449 0 1.2 1 0.00221136 0.00362579 0.00198467 0.0039687 0.00145724 0.00560379 0.00244632 0.0171134 0.00250974 0.00660558 0.00274627 0.0231804 0.00285793 0.0131855 0.00356594 0.0216486 0.00430461 0.0146958 0.00485862 0.0411307
22 3 O 2.76143 3.69187 5.78248 -1.2 1 0.00176926 0.00431533 0.00172233 0.00425374 0.00215012 0.00568043 0.00281513 0.017679 0.00324809 0.00717982 0.00306844 0.0231619 0.0047704 0.012914 0.00547096 0.0231194 0.00645309 0.0185737 0.00782213 0.0416644
23 1 Mg -1.67381 2.41581 1.4948 1.2 1 0.00143911 0.00298097 0.00248287 0.00467118 0.0014476 0.00603397 0.00243675 0.0167563 0.00288568 0.00625748 0.0020445 0.0240202 0.00248259 0.0141264 0.00285403 0.0222296 0.00454349 0.0158003 0.00497181 0.0420094
24 2 Si 0.16286 0.350945 1.4948 2.4 1 0.00173561 0.00299727 0.0026462 0.00449881 0.00131423 0.0065205 0.0027991 0.0164286 0.00213219 0.00510205 0.00196541 0.0225726 0.00245869 0.013477 0.0030535 0.0207398 0.00480783 0.0145316 0.00449483 0.0405205
25 3 O 0.15972 -1.26229 1.4948 -1.2 1 0.00159305 0.00309067 0.0028461 0.00440469 0.00185465 0.00611397 0.0026306 0.0165021 0.00221774 0.00544023 0.00246043 0.0225344 0.00269273 0.0138555 0.00296168 0.0217743 0.00432926 0.014355 0.0040364 0.041035
26 3 O 6.77654 1.32496 1.4948 -1.2 1 0.00114284 0.0040717 0.0013714 0.0045047 0.00122629 0.00608444 0.00232905 0.0167958 0.00262465 0.00555416 0.00172747 0.023442 0.00282808 0.0134843 0.00345594 0.0218132 0.00468551 0.0151138 0.00451405 0.0408583
27 3 O -0.508028 1.05712 0.196716 -1.2 1 0.00164938 0.00311859 0.00322977 0.00403037 0.00141333 0.00574091 0.0025089 0.0170259 0.00188153 0.00661198 0.00256428 0.0219198 0.002803 0.0128747 0.00312242 0.0212071 0.00431783 0.0148876 0.00452085 0.0404672
28 3 O -0.552171 1.05712 2.79288 -1.2 1 0.00106055 0.00264042 0.00255905 0.00435649 0.00128118 0.00608667 0.0024095 0.0161743 0.00252758 0.00609075 0.00171677 0.0226601 0.00293075 0.0116217 0.00355139 0.0213928 0.00543312 0.0157546 0.00495744 0.0396476
29 1 Mg 6.31713 4.74899 0 1.2 1 0.00100242 0.00289199 0.0018181 0.00449734 0.00224306 0.00620367 0.00338109 0.018053 0.00284629 0.00705508 0.00221402 0.0251901 0.00294719 0.0138448 0.00407489 0.0246766 0.00478445 0.0161628 0.00599677 0.0431498
30 1 Mg 3.54847 9.45668 1.4948 1.2 1 0.00115216 0.00317818 0.00169655 0.00464642 0.0019549 0.0075922 0.0030488 0.0212243 0.00171602 0.00835305 0.00230935 0.0282829 0.00323351 0.0156351 0.00355723 0.0291405 0.00433274 0.0180442 0.0039594 0.0488092
31 2 Si 5.36879 6.77254 1.4948 2.4 1 0.000378703 0.00301348 0.00197374 0.00510136 0.00270341 0.00689905 0.0037523 0.019495 0.00280146 0.00785782 0.00250934 0.0275069 0.00324029 0.0153906 0.0040817 0.0269103 0.0048125 0.0170941 0.00527584 0.04667
32 3 O 5.41937 8.38578 1.4948 -1.2 1 0.00088318 0.00299641 0.00169275 0.00499541 0.00215098 0.00775051 0.0031923 0.020855 0.00223499 0.00840042 0.0024756 0.0289131 0.00231882 0.0156325 0.00294147 0.0290489 0.00469529 0.0173294 0.00485271 0.0481617
33 3 O 1.75158 5.79852 1.4948 -1.2 1 0.000994877 0.00337393 0.00163066 0.00396622 0.00232969 0.00610477 0.00322312 0.0195179 0.00283072 0.00719269 0.00267068 0.0276518 0.00296496 0.0155086 0.0033964 0.0266908 0.0054648 0.0174952 0.00569778 0.04593
34 3 O 4.67421 6.06637 0.196716 -1.2 1 0.000598515 0.00303763 0.00154682 0.00472447 0.00200597 0.00695464 0.00290848 0.0196298 0.00245358 0.00805308 0.0022242 0.0261871 0.00346675 0.0143797 0.00388201 0.0266015 0.00483276 0.0165988 0.00558919 0.0454166
35 1 Mg 6.26654 4.74899 2.9896 1.2 1 0.001395 0.00319413 0.00212252 0.00480327 0.00267342 0.00665753 0.00375496 0.0178301 0.00391377 0.00698334 0.00240047 0.0258767 0.00390432 0.0146028 0.00501472 0.0247223 0.00594164 0.0173112 0.00711696 0.0438378
36 3 O 4.63043 6.06637 2.79288 -1.2 1 0.00189424 0.0032789 0.00180371 0.00490474 0.00222782 0.00692217 0.00336771 0.0194209 0.0032608 0.00769028 0.00249543 0.0260291 0.00387462 0.0146171 0.00443837 0.027096 0.00593211 0.0181092 0.00721261 0.0457362
37 1 Mg -1.12976 4.79031 4.4844 1.2 1 0.00134076 0.00377958 0.0017685 0.00471364 0.0024107 0.00641894 0.00316514 0.0179999 0.00340414 0.00708441 0.00333612 0.0257428 0.00412305 0.0140873 0.00461203 0.0255588 0.00747713 0.0189082 0.00814517 0.0443017
38 2 Si -2.9517 7.47444 4.4844 2.4 1 0.00213363 0.00381001 0.00150708 0.00514719 0.00298081 0.00674925 0.00375248 0.0202889 0.00330168 0.00782807 0.00322287 0.0274972 0.00460762 0.0159049 0.00520555 0.0278633 0.00700958 0.0190546 0.00828673 0.0479271
39 3 O -3.00198 5.86121 4.4844 -1.2 1 0.00164006 0.00386802 0.0013116 0.00495482 0.00327623 0.0065416 0.00418046 0.0186816 0.00359106 0.00757454 0.00313562 0.0258373 0.00441119 0.0141912 0.00467229 0.0267349 0.00698064 0.0192364 0.00851462 0.0456801
40 3 O 0.666315 8.44846 4.4844 -1.2 1 0.00273377 0.00480813 0.00129926 0.00499844 0.00283427 0.00760785 0.00289239 0.0209841 0.00302456 0.00790491 0.00336016 0.0280236 0.00462742 0.0158487 0.00419992 0.0292797 0.00640417 0.0197031 0.00793599 0.0487568
41 3 O -2.21213 8.18062 3.18632 -1.2 1 0.00185644 0.00390804 0.00157973 0.00459017 0.00250367 0.00639404 0.00284182 0.0206685 0.00281584 0.00819629 0.00311606 0.0274971 0.00423874 0.0159126 0.00495898 0.0289725 0.00598177 0.0187197 0.00684302 0.048774
42 3 O -2.25864 8.18062 5.78248 -1.2 1 0.00297472 0.00445531 0.00162628 0.00480832 0.00293789 0.00619639 0.00287636 0.020444 0.00260932 0.00847129 0.00383515 0.026877 0.00458077 0.0164632 0.00525105 0.0289415 0.00715877 0.0205121 0.0082974 0.0493259
43 1 Mg 1.20893 7.12349 2.9896 1.2 1 0.00167059 0.00383487 0.00168345 0.00439234 0.00277479 0.0069677 0.00365098 0.0196428 0.00288979 0.00807427 0.00283233 0.0276885 0.00346807 0.0158345 0.00367389 0.0274188 0.00562755 0.0183175 0.00644801 0.0470174
44 1 Mg 4.00982 7.08218 4.4844 1.2 1 0.00215717 0.00390264 0.00158782 0.0047962 0.00252623 0.00661168 0.00378082 0.0200539 0.00344213 0.0075359 0.00335706 0.0270635 0.00422261 0.0164231 0.00571364 0.0281177 0.00737946 0.0190657 0.00844519 0.047525
45 2 Si 2.17861 9.14704 4.4844 2.4 1 0.00272934 0.00442645 0.00158605 0.00507246 0.00281189 0.00747231 0.00375669 0.0209701 0.00286675 0.00819616 0.00333624 0.0279513 0.00476103 0.0165952 0.00444157 0.0294528 0.00598142 0.0195909 0.00708141 0.0502001
46 3 O 2.18828 10.7603 4.4844 -1.2 1 0.00350217 0.00458865 0.00185158 0.00477018 0.00264596 0.00716797 0.00305384 0.0207191 0.00256145 0.00823606 0.00254959 0.0287514 0.00432955 0.0159156 0.00444115 0.0305726 0.00602217 0.0196341 0.00674711 0.0509743
47 3 O -4.43805 8.17302 4.4844 -1.2 1 0.00181302 0.00455841 0.00174756 0.00520774 0.00238386 0.00789752 0.00331019 0.0206775 0.00318368 0.0080369 0.00322533 0.0280879 0.00477807 0.0157608 0.00482335 0.0292006 0.00684819 0.0195022 0.00884 0.048575
48 3 O 2.89193 8.44087 3.18632 -1.2 1 0.00229014 0.00375508 0.00154341 0.00444803 0.00235881 0.0070436 0.0032446 0.020435 0.0029448 0.0085157 0.00308585 0.0273689 0.00383243 0.0157091 0.0046199 0.0290061 0.00605168 0.0187062 0.00603651 0.0486191
49 1 Mg 1.25915 7.12349 0 1.2 1 0.00105914 0.00294004 0.00130147 0.00409279 0.00183306 0.00727628 0.00294221 0.0201751 0.00274434 0.00819561 0.00255656 0.027452 0.00332772 0.0144971 0.00327504 0.0275014 0.00461144 0.0173526 0.00455938 0.0465173
50 3 O 2.84547 8.44087 5.78248 -1.2 1 0.00283369 0.0048024 0.00172775 0.00480952 0.00242945 0.00664231 0.00321195 0.0209137 0.00303691 0.00872097 0.00371859 0.02695 0.00543837 0.0164144 0.00536058 0.0293111 0.00624038 0.0210513 0.00789583 0.0495305
51 1 Mg -1.59284 7.16481 1.4948 1.2 1 0.00101984 0.00320829 0.0014785 0.00451679 0.00177504 0.00646125 0.00271409 0.0198805 0.00296811 0.0078489 0.00177566 0.0275561 0.00338255 0.0155101 0.0035501 0.0270707 0.00459927 0.0175753 0.00553228 0.0468966
52 2 Si 0.240329 5.09994 1.4948 2.4 1 0.00108769 0.0035844 0.00195196 0.00393911 0.00185534 0.00682316 0.00309681 0.0189755 0.0031049 0.00727133 0.00233983 0.0258734 0.00282508 0.0145678 0.00394784 0.0246021 0.00519877 0.0168331 0.00542042 0.045
53 3 O 0.234538 3.48671 1.4948 -1.2 1 0.00157827 0.00369167 0.00254354 0.0041573 0.00180657 0.00654837 0.00255342 0.0179392 0.00344261 0.00682534 0.00234967 0.0243276 0.00320636 0.0136503 0.00375879 0.0238537 0.00565043 0.0159348 0.00562419 0.0427466
54 3 O 6.85564 6.07396 1.4948 -1.2 1 0.000916369 0.00264793 0.00221741 0.00480928 0.00247083 0.00622937 0.00315698 0.0198135 0.00315875 0.00749124 0.00224875 0.0275579 0.00333833 0.0147216 0.00462528 0.0267741 0.00563453 0.0175164 0.00637323 0.045675
55 3 O -0.429565 5.80612 0.196716 -1.2 1 0.000892612 0.00319813 0.00204689 0.00403197 0.00180542 0.00717694 0.00260065 0.0195968 0.00283577 0.00838997 0.00251563 0.0255929 0.00268516 0.0142572 0.00371566 0.0258234 0.00506161 0.0167017 0.00580988 0.0455444
56 3 O -0.473377 5.80612 2.79288 -1.2 1 0.00165225 0.00344019 0.0018806 0.00438389 0.00231543 0.00679821 0.0029394 0.01907 0.00323408 0.00788408 0.00314451 0.0258215 0.0037309 0.014461 0.00438059 0.0263616 0.00637739 0.0182543 0.00684241 0.045924
57 1 Mg 6.40169 9.49799 0 1.2 1 0.000155486 0.00380287 0.00139519 0.00463059 0.00149219 0.00835428 0.00213824 0.0209598 0.00153434 0.00887608 0.00164812 0.0287874 0.00242605 0.0148947 0.00255742 0.0298137 0.00367132 0.0178933 0.00395507 0.0478635
58 1 Mg 3.64209 14.2057 1.4948 1.2 1 0.00217249 0.00339257 0.00182833 0.00457893 0.0017903 0.00884231 0.0016239 0.0216061 0.00162893 0.00872046 0.00217252 0.0282311 0.00243392 0.016149 0.00291281 0.0296806 0.00347284 0.0168918 0.00337636 0.0495737
59 2 Si 5.45748 11.5215 1.4948 2.4 1 0.00178012 0.00329421 0.00181572 0.00471301 0.00177852 0.00835304 0.00218541 0.0210902 0.00147376 0.00830617 0.00183161 0.0287995 0.00264453 0.0162649 0.00333342 0.0292961 0.00405722 0.0168773 0.00372951 0.0493944
60 3 O 5.51101 13.1348 1.4948 -1.2 1 0.0021048 0.00353565 0.00182905 0.0047569 0.00165726 0.00921415 0.00180089 0.0210915 0.00178153 0.00863698 0.00165056 0.0293251 0.00214159 0.0162332 0.00283772 0.0299851 0.00370898 0.0166678 0.00359182 0.049258
61 3 O 1.83851 10.5475 1.4948 -1.2 1 0.00109434 0.0034578 0.00167979 0.00480485 0.00184242 0.00770276 0.00233557 0.0215306 0.00174249 0.00845975 0.00214016 0.0293017 0.00259087 0.0159029 0.00327905 0.0298491 0.00421507 0.0176274 0.00349019 0.0494253
62 3 O 4.7611 10.8154 0.196716 -1.2 1 0.000638041 0.00301089 0.00164677 0.00464048 0.00139039 0.00860375 0.00222673 0.0212802 0.0013397 0.00865977 0.00183376 0.0282544 0.00295423 0.0156632 0.00378483 0.0295771 0.00368819 0.0171633 0.00350037 0.0487196
63 1 Mg 6.35203 9.49799 2.9896 1.2 1 0.00152216 0.00379653 0.00167865 0.00497119 0.0024796 0.00751796 0.00335263 0.0204291 0.00312044 0.00855735 0.00225163 0.0290668 0.00375621 0.0162529 0.00336608 0.0292492 0.00443467 0.0184021 0.00571642 0.0488735
64 3 O 4.71833 10.8154 2.79288 -1.2 1 0.00256965 0.00370142 0.00171097 0.00468455 0.00204053 0.00818061 0.0021957 0.0211656 0.00199152 0.00896729 0.00226426 0.0282651 0.00344387 0.0159003 0.00398987 0.0302646 0.0051854 0.0182242 0.00557348 0.0500356
65 1 Mg -1.0438 9.53931 4.4844 1.2 1 0.00309243 0.00480504 0.00144278 0.00468456 0.00282052 0.00682239 0.00258635 0.0209218 0.00305076 0.00837567 0.00294849 0.0281212 0.00396629 0.0165683 0.00471607 0.0298908 0.00653186 0.0197155 0.00710083 0.0500989
66 2 Si -2.8604 12.2234 4.4844 2.4 1 0.00315155 0.00447416 0.00183433 0.00468836 0.00267839 0.0077155 0.00309157 0.0216394 0.0028764 0.00846887 0.00248807 0.0282453 0.0042113 0.0167051 0.00439947 0.0301248 0.00571585 0.0192852 0.00675928 0.0519484
67 3 O -2.91391 10.6102 4.4844 -1.2 1 0.00323361 0.00469203 0.00176902 0.00456276 0.00269002 0.00719047 0.00326585 0.020451 0.00274489 0.00785243 0.00225055 0.0285047 0.00433148 0.0159315 0.0043584 0.0305504 0.00589463 0.0196162 0.00688989 0.0507762
68 3 O 0.7596 13.1975 4.4844 -1.2 1 0.00351018 0.0043747 0.00194576 0.00505981 0.00278857 0.0086988 0.00269391 0.0219963 0.00285646 0.00846276 0.00292078 0.0287832 0.00432551 0.0165944 0.00426505 0.0303683 0.00587979 0.0195696 0.00674452 0.051706
69 3 O -2.12001 12.9296 3.18632 -1.2 1 0.00334533 0.00407 0.00172295 0.00431487 0.00241458 0.00745794 0.00227032 0.0216524 0.00234644 0.0084119 0.00233221 0.0280059 0.00374003 0.0165315 0.00446583 0.0304112 0.00511525 0.0183615 0.0055485 0.0510936
70 3 O -2.16532 12.9296 5.78248 -1.2 1 0.00368919 0.00460571 0.00169482 0.00460877 0.00268133 0.00693045 0.00239182 0.0219302 0.00261071 0.00856421 0.00306544 0.0275463 0.00447584 0.0172592 0.00500715 0.0314403 0.00613939 0.0210992 0.00683895 0.0534574
71 1 Mg 1.29891 11.8725 2.9896 1.2 1 0.00265072 0.0036437 0.00204439 0.00481477 0.00242042 0.00812523 0.00287955 0.0208442 0.00255396 0.00861474 0.0020826 0.0290652 0.00332551 0.0163997 0.00353163 0.0300344 0.00463571 0.01775 0.00490932 0.0499839
72 1 Mg 4.10033 11.8312 4.4844 1.2 1 0.0032672 0.00438075 0.00191121 0.00445444 0.00248048 0.00735729 0.00261321 0.0212124 0.00247176 0.0082147 0.00290793 0.0288728 0.00367468 0.0174424 0.00498569 0.0304702 0.00651618 0.0194114 0.00664559 0.0512609
73 2 Si 2.27333 13.896 4.4844 2.4 1 0.00346858 0.0038707 0.00190274 0.0049944 0.00301339 0.00817233 0.00321271 0.021695 0.00240296 0.00841272 0.00282319 0.0282385 0.00397108 0.0170078 0.00439459 0.0302897 0.00537675 0.0188538 0.00626802 0.0527395
74 3 O 2.28634 15.5093 4.4844 -1.2 1 0.00355255 0.00451184 0.00194221 0.00465163 0.00308882 0.00752834 0.00280217 0.0209772 0.00261314 0.00772029 0.00229917 0.0287001 0.00360012 0.0162547 0.00420338 0.0310576 0.00567631 0.0188617 0.0064674 0.0525432
75 3 O -4.34533 12.922 4.4844 -1.2 1 0.00296699 0.00449155 0.00199328 0.00474263 0.0028131 0.00843894 0.00306752 0.0216811 0.00283632 0.00843242 0.00266619 0.0288387 0.00412574 0.0166133 0.00486954 0.0306234 0.00632298 0.0197793 0.00741656 0.0516614
76 3 O 2.98455 13.1899 3.18632 -1.2 1 0.0031378 0.00387215 0.00187071 0.00443935 0.00239151 0.00796758 0.00212781 0.0216333 0.00215164 0.00869626 0.00256568 0.0279373 0.00348787 0.0162412 0.00454756 0.0303038 0.00550661 0.0184792 0.00554275 0.0508539
77 1 Mg 1.34779 11.8725 0 1.2 1 0.000961383 0.00302295 0.0011575 0.00451151 0.00139181 0.00890467 0.00156085 0.0211904 0.00128005 0.00906132 0.00194995 0.0289266 0.00273862 0.0150526 0.00292715 0.0302389 0.00306686 0.0171794 0.00307595 0.0483847
78 3 O 2.93934 13.1899 5.78248 -1.2 1 0.00343536 0.00485449 0.00167233 0.00468695 0.00276771 0.00717776 0.00255053 0.0218739 0.00264286 0.00837828 0.00325272 0.0276328 0.0043769 0.0169503 0.00496855 0.0313794 0.00603523 0.0214785 0.00662949 0.0535722
79 1 Mg -1.50344 11.9138 1.4948 1.2 1 0.00160596 0.00366827 0.00138425 0.00443126 0.00132648 0.00827592 0.00188771 0.0215992 0.00232437 0.008571 0.00146447 0.0286474 0.0034378 0.0162774 0.00331715 0.0297821 0.00355001 0.0174217 0.00371426 0.049324
80 2 Si 0.326006 9.84894 1.4948 2.4 1 0.00041049 0.00344656 0.00125717 0.00482921 0.00193862 0.00822328 0.00216417 0.0210012 0.0020705 0.00840262 0.00163736 0.0284861 0.0028432 0.0158396 0.00350835 0.0288287 0.00372582 0.0176112 0.00347001 0.0487924
81 3 O 0.317364 8.23571 1.4948 -1.2 1 0.000926507 0.00335544 0.00106675 0.00442041 0.0018321 0.0077785 0.0022126 0.0202151 0.00262193 0.00796921 0.0018848 0.0286118 0.0033643 0.0158193 0.00369386 0.0285349 0.00439819 0.0175924 0.00431091 0.0479292
82 3 O 6.94307 10.823 1.4948 -1.2 1 0.00140712 0.00384399 0.0015503 0.00455141 0.00174322 0.00773592 0.00256291 0.0217123 0.00237681 0.0084005 0.00149081 0.0293861 0.0029526 0.0160344 0.00320802 0.029958 0.00376 0.0178928 0.00413038 0.0492957
83 3 O -0.343122 10.5551 0.196716 -1.2 1 0.000358243 0.00327889 0.00103561 0.00450565 0.00149376 0.00862441 0.00192431 0.021163 0.00155275 0.00880914 0.00197248 0.0281428 0.00301327 0.0153676 0.00366658 0.0295418 0.00349918 0.0172547 0.00335122 0.0487175
84 3 O -0.385966 10.5551 2.79288 -1.2 1 0.00279085 0.00391637 0.00133425 0.00467938 0.00232386 0.00799387 0.00225056 0.021361 0.00219543 0.00896529 0.00237533 0.0277177 0.00382432 0.0160335 0.00403867 0.0300285 0.00521449 0.0185745 0.00509931 0.0499617
85 1 Mg 6.49448 14.247 0 1.2 1 0.00109915 0.00346282 0.00160553 0.00460729 0.00122409 0.00932117 0.00128912 0.0211778 0.00119941 0.00844295 0.00133904 0.0288381 0.0016064 0.015497 0.00249974 0.0301256 0.00313978 0.0166729 0.00279099 0.0482898
86 1 Mg 3.74457 18.9547 1.4948 1.2 1 0.00227842 0.00331345 0.00124728 0.00390612 0.00173979 0.00846715 0.00136828 0.0221136 0.00184989 0.00799059 0.00205615 0.0275097 0.00231207 0.0164185 0.00328181 0.0289845 0.00363158 0.0164064 0.00336331 0.05016
87 2 Si 5.55495 16.2705 1.4948 2.4 1 0.00248419 0.00333533 0.00155086 0.00458548 0.0019054 0.00895934 0.00133147 0.021266 0.00139461 0.00790167 0.00134649 0.0285668 0.00231765 0.0162602 0.00292316 0.0290966 0.00363218 0.0158903 0.00369347 0.0496385
88 3 O 5.6115 17.8838 1.4948 -1.2 1 0.00255882 0.00324194 0.00153657 0.0042345 0.00172516 0.00917145 0.00156193 0.0216228 0.00183735 0.00781113 0.00136714 0.0285849 0.00197638 0.0164956 0.00284795 0.0290979 0.00342817 0.0157673 0.00364386 0.0498132
89 3 O 1.93416 15.2965 1.4948 -1.2 1 0.00216334 0.00343855 0.00185826 0.00440931 0.00175243 0.00844404 0.00188486 0.0218279 0.00180405 0.00812983 0.00140248 0.0291182 0.00194946 0.0163945 0.00287341 0.0297986 0.00374477 0.0165279 0.00340437 0.0499437
90 3 O 4.85636 15.5644 0.196716 -1.2 1 0.00169373 0.00284846 0.00153724 0.00460043 0.00133562 0.00928518 0.00134831 0.0213597 0.000990787 0.00807953 0.00161742 0.0280788 0.00264511 0.0160274 0.00356983 0.0294282 0.00324441 0.0159004 0.00310666 0.0490669
91 1 Mg 6.44662 14.247 2.9896 1.2 1 0.00226142 0.00390545 0.0015217 0.00451288 0.00250388 0.00843874 0.00270198 0.0207301 0.00259545 0.00860894 0.00197535 0.0291664 0.00298531 0.0163883 0.00309302 0.0298185 0.00406676 0.0176163 0.00480488 0.0501316
92 3 O 4.81537 15.5644 2.79288 -1.2 1 0.0030004 0.0035915 0.00157246 0.00438792 0.00236212 0.00875789 0.00161751 0.0216965 0.00167316 0.00847997 0.00179584 0.027957 0.00272328 0.0164378 0.00359204 0.0299053 0.00470105 0.0172678 0.00518629 0.0507122
93 1 Mg -0.948271 14.2883 4.4844 1.2 1 0.00384414 0.00416265 0.00175419 0.00442616 0.00271257 0.00784182 0.00257568 0.0214513 0.00277864 0.0083918 0.00278913 0.028585 0.00360935 0.0170634 0.00500107 0.0307241 0.00585286 0.0190146 0.00639305 0.0521096
94 2 Si -2.75928 16.9724 4.4844 2.4 1 0.00358431 0.00402571 0.0017611 0.00439334 0.00284463 0.00786995 0.00267731 0.0218275 0.00263598 0.00787444 0.00265308 0.0280553 0.00374739 0.0171199 0.00460185 0.0300417 0.00520412 0.018373 0.00593033 0.0529637
95 3 O -2.81617 15.3592 4.4844 -1.2 1 0.00385677 0.00428749 0.00183169 0.00432841 0.00292902 0.00754076 0.00285515 0.0210243 0.00247395 0.00771657 0.00224944 0.0286382 0.00377346 0.0164146 0.00423279 0.0308026 0.00592486 0.0187557 0.00661146 0.0522099
96 3 O 0.862762 17.9465 4.4844 -1.2 1 0.00335991 0.00435818 0.00168508 0.00467853 0.00298139 0.00852725 0.00256099 0.0222822 0.00269705 0.00784342 0.00254525 0.0285815 0.0036049 0.0170805 0.0043814 0.02973 0.0056327 0.0187036 0.00623509 0.0528038
97 3 O -2.0185 17.6786 3.18632 -1.2 1 0.00324731 0.00364044 0.00171079 0.0037816 0.00250672 0.00747011 0.00209891 0.0220605 0.00227133 0.00787165 0.00223111 0.0275093 0.00338687 0.0166642 0.00455939 0.0303389 0.00491284 0.0176664 0.00518815 0.0519042
98 3 O -2.06164 17.6786 5.78248 -1.2 1 0.00380015 0.00454708 0.00150768 0.00440301 0.0028334 0.00689524 0.00222115 0.0221089 0.00236521 0.0079518 0.0026334 0.0274722 0.00343361 0.0173403 0.00458044 0.0310565 0.00591707 0.0202636 0.00626447 0.0547148
99 1 Mg 1.39817 16.6215 2.9896 1.2 1 0.00311442 0.00359622 0.00187187 0.00443072 0.00253204 0.00845579 0.00253551 0.0210737 0.00246354 0.00809397 0.00196929 0.0287354 0.00252154 0.0167384 0.00335227 0.029747 0.00423794 0.0167185 0.00455712 0.050748
100 1 Mg 4.20062 16.5802 4.4844 1.2 1 0.00345153 0.00392318 0.00202113 0.00453541 0.00276626 0.00781891 0.00230049 0.0217257 0.00295711 0.00790713 0.00285625 0.0282466 0.00341401 0.0176716 0.0055712 0.0299635 0.00624621 0.0184275 0.00616827 0.0526464
101 2 Si 2.37796 18.645 4.4844 2.4 1 0.00288076 0.00371199 0.00156229 0.00464577 0.0029423 0.00803861 0.00285895 0.0223043 0.00275637 0.00793091 0.00270236 0.0277941 0.00348659 0.0173242 0.00446464 0.0295363 0.00517204 0.0181723 0.00597584 0.0537106
102 3 O 2.39434 20.2583 4.4844 -1.2 1 0.00283665 0.00407468 0.00134133 0.00428476 0.0029116 0.00700624 0.00245848 0.0214642 0.00278832 0.0073197 0.00210788 0.0283926 0.00334322 0.0166888 0.00386942 0.0301526 0.00560727 0.0181889 0.00675443 0.0533044
103 3 O -4.24274 17.671 4.4844 -1.2 1 0.00294593 0.00422885 0.00206171 0.00444066 0.00281946 0.00861235 0.00262107 0.0221672 0.0028599 0.00803282 0.00246933 0.0285241 0.00348961 0.0167749 0.00480548 0.0300663 0.00590651 0.018849 0.0063875 0.0526367
104 3 O 3.08659 17.9389 3.18632 -1.2 1 0.00325565 0.00334593 0.00164979 0.00401166 0.00265335 0.0078779 0.00194621 0.0220388 0.00238818 0.00798867 0.00234469 0.0276094 0.00299521 0.0165013 0.00432764 0.0297452 0.00537035 0.0174518 0.00567999 0.0517448
105 1 Mg 1.44478 16.6215 0 1.2 1 0.00221777 0.00309474 0.00120798 0.00430493 0.00129899 0.00902458 0.00107044 0.0214936 0.00140661 0.00811677 0.00154114 0.0285144 0.00223432 0.0157494 0.00238795 0.0293792 0.00294327 0.0161219 0.00300149 0.0489184
106 3 O 3.0436 17.9389 5.78248 -1.2 1 0.00281485 0.00445584 0.00155825 0.00482269 0.00286408 0.0071963 0.00258414 0.0223246 0.00260629 0.00790143 0.00290128 0.0276273 0.0040234 0.0171286 0.00507651 0.0312082 0.00586188 0.0207382 0.00648592 0.0548939
107 1 Mg -1.40524 16.6628 1.4948 1.2 1 0.00208421 0.00345218 0.00142397 0.00432146 0.00162787 0.00865653 0.00175845 0.0220498 0.00194221 0.00815906 0.00173722 0.0280633 0.00287539 0.0166466 0.00276269 0.0295184 0.00295773 0.0166741 0.0032943 0.0497722
108 2 Si 0.420358 14.5979 1.4948 2.4 1 0.00196178 0.00318985 0.00167278 0.00464806 0.00190801 0.0091311 0.00183495 0.0213857 0.001581 0.00820565 0.00142211 0.0284473 0.0026776 0.0166376 0.00335124 0.0287785 0.00344578 0.0164523 0.00341347 0.0494584
109 3 O 0.408732 12.9847 1.4948 -1.2 1 0.00185235 0.00319721 0.00143352 0.00464921 0.00180553 0.00908137 0.00151055 0.021046 0.00220986 0.0084036 0.00140406 0.0290786 0.00303335 0.0161877 0.00303172 0.0298487 0.00320041 0.016812 0.00355525 0.0493359
110 3 O 7.03923 15.572 1.4948 -1.2 1 0.00201697 0.00349203 0.0016271 0.00445161 0.00210596 0.00829728 0.00209218 0.0215923 0.00230485 0.00808412 0.00153799 0.0290933 0.00255338 0.0162702 0.00298711 0.0298412 0.00337176 0.0167807 0.00391916 0.0498429
111 3 O -0.248332 15.3041 0.196716 -1.2 1 0.00183132 0.00301751 0.00125363 0.0045208 0.00109867 0.00920105 0.00175902 0.0213656 0.0011544 0.00824977 0.00169296 0.0279916 0.0027128 0.0158605 0.00371371 0.0292683 0.00320611 0.0161611 0.00322577 0.0489293
112 3 O -0.289436 15.3041 2.79288 -1.2 1 0.00343177 0.00372722 0.00160089 0.0043383 0.00238431 0.00870936 0.00190196 0.0216466 0.00189531 0.00859897 0.00202287 0.0275937 0.00287963 0.0165219 0.00357299 0.029921 0.00454772 0.0173986 0.0047773 0.050711
113 1 Mg 6.59566 18.996 0 1.2 1 0.00124858 0.00329218 0.00152711 0.00428891 0.000871934 0.00865361 0.00111491 0.0218689 0.00116291 0.00762674 0.00138541 0.0280305 0.00194807 0.0163539 0.00242305 0.0286911 0.00295007 0.0157897 0.00286267 0.0489953
114 1 Mg 3.85574 23.7037 1.4948 1.2 1 0.00173424 0.00266499 0.00122808 0.00409683 0.0016322 0.00750842 0.00113265 0.0231026 0.00168363 0.00729643 0.00212673 0.0269031 0.00244684 0.0175338 0.00367321 0.0283141 0.00345914 0.0170871 0.00367517 0.0511449
115 2 Si 5.66125 21.0195 1.4948 2.4 1 0.00200985 0.00298109 0.0011754 0.00421392 0.00187178 0.00820926 0.00142655 0.0218486 0.00141369 0.00739674 0.0014711 0.0278068 0.00238734 0.0172638 0.00280542 0.0281115 0.00368459 0.0157101 0.00412818 0.0505144
116 3 O 5.72074 22.6328 1.4948 -1.2 1 0.00205414 0.00284888 0.00163197 0.00415417 0.00177386 0.0082409 0.00154104 0.0222626 0.00178308 0.00710866 0.00125359 0.0276772 0.00207641 0.0172739 0.00287669 0.0283816 0.00332229 0.0162202 0.00375614 0.0505786
117 3 O 2.03867 20.0455 1.4948 -1.2 1 0.00206313 0.0033475 0.0013937 0.00427533 0.00170955 0.00778622 0.00194631 0.022198 0.00220386 0.00737067 0.0014483 0.0283263 0.00196872 0.0170548 0.00265052 0.0290744 0.00371944 0.016054 0.00360354 0.0506692
118 3 O 4.96004 20.3134 0.196716 -1.2 1 0.00175231 0.00275418 0.00133322 0.00417016 0.00119451 0.00829899 0.000951383 0.0216303 0.0011507 0.0072809 0.0015754 0.0274136 0.00268407 0.0166 0.0039209 0.0286645 0.0031177 0.0151793 0.00304114 0.0497162
119 1 Mg 6.55057 18.996 2.9896 1.2 1 0.00217999 0.00367326 0.00148603 0.00408914 0.00247904 0.00814771 0.00271284 0.0212604 0.00259501 0.00792116 0.00179012 0.0288152 0.00281323 0.0170278 0.00303249 0.029243 0.0039978 0.0168884 0.0048005 0.0508822