ITEM: TIMESTEP
14200
ITEM: NUMBER OF ATOMS
10500
ITEM: BOX BOUNDS xy xz yz pp pp pp
0	15.2977	5.09925
0	118.725	0
0	89.688	0
ITEM: ATOMS id type element xu yu zu q Q_1 Q_2 Q_3 Q_4 Q_5 Q_6 Q_7 Q_8 Q_9 Q_10 Q_11 Q_12 Q_13 Q_14 Q_15 Q_16 Q_17 Q_18 Q_19 Q_20 Q_21
1 1 Mg 6.2404 -6.37941e-06 0 1.2 1 0.00102851 0.00402838 0.00126557 0.0048619 0.0012322 0.0056904 0.00213453 0.0162044 0.00224555 0.00598534 0.00218 0.0219001 0.00253129 0.0135802 0.00334671 0.0206018 0.00398453 0.0142873 0.00398158 0.0405058
2 1 Mg 3.46349 4.70768 1.4948 1.2 1 0.00127972 0.00325086 0.00152182 0.00433199 0.00187097 0.00619208 0.00354846 0.0188118 0.00272098 0.00714126 0.00299846 0.0257437 0.00315267 0.0139429 0.00440706 0.025209 0.00520579 0.0173667 0.00580068 0.0436469
3 2 Si 5.2885 2.02354 1.4948 2.4 1 0.000635203 0.00313235 0.00207261 0.00463404 0.00175461 0.0058238 0.00256658 0.0171446 0.00249164 0.00625771 0.00223468 0.0233817 0.00291689 0.0135826 0.0037277 0.0214762 0.00376034 0.015409 0.00453236 0.0411781
4 3 O 5.33628 3.63678 1.4948 -1.2 1 0.000974337 0.00262357 0.00163251 0.00485621 0.00203051 0.00635201 0.00293587 0.0178767 0.00220441 0.00685376 0.00206336 0.0252517 0.00265794 0.0137536 0.00433845 0.0239645 0.00494815 0.0165912 0.0058158 0.04281
5 3 O 1.67294 1.04952 1.4948 -1.2 1 0.00122453 0.00316751 0.00198853 0.00410313 0.00125806 0.00585724 0.00235753 0.0170257 0.00240152 0.00617551 0.0022002 0.0228013 0.00257422 0.0128425 0.00331173 0.0217907 0.0046609 0.0157058 0.00494063 0.0402453
6 3 O 4.59532 1.31737 0.196716 -1.2 1 0.0007448 0.00287388 0.00204061 0.00439955 0.00191202 0.00573937 0.0023055 0.0172575 0.00273304 0.00647217 0.00205204 0.022432 0.00330542 0.0128833 0.004218 0.0214212 0.00403122 0.0150112 0.00464426 0.0407615
7 1 Mg 6.18956 -6.37941e-06 2.9896 1.2 1 0.000674044 0.00440791 0.00152128 0.00425841 0.00141167 0.00571614 0.00236437 0.0162843 0.00268908 0.00581138 0.00178515 0.0224137 0.00283097 0.0133691 0.00346948 0.0204536 0.00437474 0.0148866 0.00478534 0.0392638
8 3 O 4.55118 1.31737 2.79288 -1.2 1 0.00119119 0.00403899 0.00184015 0.00423289 0.00189887 0.00579195 0.00264623 0.0172154 0.00246263 0.00710229 0.00219271 0.0218608 0.00340387 0.0123351 0.00345804 0.0215172 0.00479052 0.0156311 0.00537122 0.0403693
9 1 Mg -1.20682 0.0413099 4.4844 1.2 1 0.000739921 0.00301131 0.00174265 0.00475557 0.00152601 0.00560399 0.00192546 0.0164743 0.00213389 0.00606807 0.00220068 0.0229896 0.00302157 0.0119494 0.00358519 0.0209423 0.00539803 0.015892 0.00514241 0.0395183
10 2 Si -3.0337 2.72544 4.4844 2.4 1 0.000977019 0.00311235 0.00181489 0.0050071 0.00236107 0.00615683 0.00322974 0.0170558 0.00330999 0.00638032 0.0023065 0.0242758 0.00318869 0.0131783 0.00406663 0.0226138 0.00553342 0.0179703 0.00643962 0.0408225
11 3 O -3.08099 1.11221 4.4844 -1.2 1 0.000856564 0.00350797 0.00187089 0.00447822 0.0014639 0.00536535 0.00229502 0.0164556 0.00277666 0.00588621 0.00216593 0.0226118 0.00331738 0.0115663 0.00347382 0.021434 0.00520669 0.0166092 0.00541627 0.039253
12 3 O 0.582463 3.69946 4.4844 -1.2 1 0.00209539 0.00454664 0.0019651 0.00451519 0.00251648 0.00687279 0.00362557 0.0175504 0.00349761 0.00657605 0.00337226 0.0251441 0.00419811 0.0133773 0.00474947 0.024568 0.0069684 0.0190843 0.00821796 0.0426411
13 3 O -2.29524 3.43162 3.18632 -1.2 1 0.00115956 0.00273187 0.0023699 0.00462946 0.00226159 0.00618852 0.0030264 0.0180969 0.00319721 0.00679062 0.00256404 0.0248254 0.003355 0.0131416 0.00481257 0.0244026 0.00595186 0.0181554 0.00670501 0.0426109
14 3 O -2.34216 3.43162 5.78248 -1.2 1 0.00181365 0.00383017 0.00125176 0.00501265 0.00268917 0.00611536 0.00322477 0.0175602 0.00288819 0.00732249 0.00281537 0.0238493 0.00428828 0.0129402 0.00422149 0.0237917 0.00636094 0.0197494 0.00774302 0.0419105
15 1 Mg 1.12778 2.37449 2.9896 1.2 1 0.00127859 0.00363337 0.00229081 0.00447129 0.00222225 0.00599567 0.00300748 0.0169452 0.00278277 0.00626135 0.00245717 0.0236371 0.00318692 0.0131236 0.00341054 0.0219718 0.00488358 0.0167333 0.00571256 0.0410371
16 1 Mg 3.92855 2.33318 4.4844 1.2 1 0.00153535 0.00407579 0.00148408 0.00419998 0.00190437 0.00571584 0.00362156 0.0171427 0.00312912 0.0060574 0.00292787 0.0234061 0.00374447 0.0137066 0.00531147 0.0223248 0.00642119 0.017498 0.00734266 0.04115
17 2 Si 2.09341 4.39804 4.4844 2.4 1 0.00192575 0.00417052 0.00192028 0.0042202 0.00295969 0.00616514 0.00379573 0.0184402 0.00354432 0.00692534 0.00347505 0.0249391 0.00455436 0.0144371 0.00446995 0.0248364 0.0067421 0.0189198 0.008425 0.0441355
18 3 O 2.09991 6.01128 4.4844 -1.2 1 0.0025939 0.00459858 0.00150105 0.00402073 0.00290845 0.00662127 0.00346459 0.019586 0.0027767 0.00724258 0.00319853 0.0268826 0.00416269 0.0147897 0.0048186 0.0276776 0.00677623 0.0199495 0.00829728 0.0461111
19 3 O -4.52137 3.42402 4.4844 -1.2 1 0.0013685 0.00356185 0.00203951 0.00460274 0.00236005 0.00702862 0.00346299 0.0174239 0.00344455 0.00643643 0.00296145 0.0239868 0.0039905 0.0132208 0.00419843 0.0228839 0.00620809 0.0181278 0.0076834 0.0422687
20 3 O 2.80834 3.69187 3.18632 -1.2 1 0.00164462 0.00366837 0.00159327 0.00366849 0.00194599 0.00583488 0.00311025 0.017571 0.00306909 0.00651021 0.00287523 0.024348 0.00362031 0.0133511 0.00476813 0.0239178 0.00563968 0.0173621 0.00664668 0.042896
21 1 Mg 1.17857 2.37449 0 1.2 1 0.00151238 0.00325381 0.00212764 0.00398954 0.00147346 0.0055547 0.00245549 0.017309 0.00243224 0.00687083 0.00286673 0.0232091 0.00283663 0.0132765 0.00357648 0.0216695 0.00423859 0.0150956 0.00486877 0.0407141
22 3 O 2.76143 3.69187 5.78248 -1.2 1 0.00224349 0.00440298 0.00189835 0.00431054 0.00222595 0.0056403 0.00319522 0.0179646 0.00336543 0.00724762 0.00301396 0.0239387 0.00490214 0.0136457 0.00587293 0.0237158 0.0068177 0.0190786 0.00772645 0.0431384
23 1 Mg -1.67381 2.41581 1.4948 1.2 1 0.000819746 0.00262199 0.00252074 0.004803 0.00137789 0.0060089 0.00244691 0.0168239 0.00290173 0.00651735 0.00191541 0.0240984 0.00256783 0.0140824 0.0027559 0.0222095 0.00417159 0.0162663 0.00497123 0.0415657
24 2 Si 0.16286 0.350945 1.4948 2.4 1 0.00131855 0.00247367 0.00266486 0.00437264 0.00128304 0.00631623 0.00284451 0.0166487 0.0023917 0.00544723 0.0020367 0.0230435 0.00235449 0.0135535 0.0030732 0.0207775 0.00460922 0.0148786 0.00442469 0.0405501
25 3 O 0.15972 -1.26229 1.4948 -1.2 1 0.00136034 0.00264993 0.00297607 0.00445576 0.00182611 0.00601407 0.0025039 0.0165264 0.00233276 0.00560282 0.00241814 0.02277 0.00260125 0.013717 0.00281662 0.0216946 0.00417853 0.014636 0.0039377 0.040813
26 3 O 6.77654 1.32496 1.4948 -1.2 1 0.00081731 0.00363833 0.00165159 0.00462927 0.00140394 0.00602256 0.00237646 0.0168897 0.00255007 0.00567574 0.00189191 0.0237509 0.00282872 0.0135992 0.00354629 0.0217523 0.00450269 0.015332 0.00442435 0.0408366
27 3 O -0.508028 1.05712 0.196716 -1.2 1 0.000908511 0.00260958 0.00317992 0.00420453 0.00136333 0.00570801 0.00250835 0.017155 0.00192791 0.00687593 0.00260887 0.0221669 0.00258892 0.0128633 0.00308673 0.0211437 0.00415089 0.0152377 0.00443264 0.0400611
28 3 O -0.552171 1.05712 2.79288 -1.2 1 0.000533287 0.0024637 0.00264404 0.00426076 0.00141814 0.0060461 0.00241491 0.016349 0.00251462 0.00641595 0.00185044 0.0227869 0.00285319 0.0117771 0.00341593 0.0216677 0.00533513 0.0159126 0.00507682 0.0398419
29 1 Mg 6.31713 4.74899 0 1.2 1 0.000740132 0.00259202 0.00185384 0.00469598 0.00242503 0.00629813 0.00314957 0.0181626 0.00279365 0.00713704 0.00221897 0.0252303 0.00288319 0.0138739 0.00420185 0.0244561 0.00465121 0.0166355 0.00621361 0.0426067
30 1 Mg 3.54847 9.45668 1.4948 1.2 1 0.00148414 0.00324101 0.00192717 0.00461204 0.00198551 0.00767563 0.00317313 0.0214531 0.0016606 0.00856195 0.00237406 0.0285621 0.0032064 0.0158144 0.00405161 0.0291601 0.00418209 0.0183513 0.00412815 0.0487927
31 2 Si 5.36879 6.77254 1.4948 2.4 1 0.00100827 0.00298954 0.00198145 0.00503835 0.00274462 0.00691053 0.00374437 0.019658 0.00267012 0.00797113 0.00253738 0.0276755 0.00329723 0.0154743 0.00443905 0.0270231 0.00460928 0.0174929 0.00551158 0.0464293
32 3 O 5.41937 8.38578 1.4948 -1.2 1 0.00136499 0.00312216 0.00180276 0.00492846 0.00228512 0.00772754 0.00321417 0.0210101 0.00210703 0.00846075 0.00242335 0.0290581 0.00234386 0.0157756 0.00324665 0.029155 0.00459359 0.0176219 0.00504662 0.0480188
33 3 O 1.75158 5.79852 1.4948 -1.2 1 0.00122164 0.00338038 0.00178448 0.00410482 0.0023589 0.00613313 0.00332648 0.0196098 0.00277905 0.00743567 0.00268878 0.0279333 0.00292982 0.0155779 0.00363063 0.0268352 0.005362 0.0178741 0.00568328 0.0456779
34 3 O 4.67421 6.06637 0.196716 -1.2 1 0.000591669 0.00293746 0.00171124 0.00475695 0.0020616 0.00686482 0.00291725 0.0199278 0.00241082 0.00828494 0.00218276 0.0262866 0.00361181 0.0144424 0.00443142 0.026571 0.00470669 0.0169452 0.00583404 0.0448445
35 1 Mg 6.26654 4.74899 2.9896 1.2 1 0.00168439 0.00286958 0.00210303 0.00496146 0.0026045 0.00662506 0.00382295 0.0181133 0.0038468 0.00728219 0.00229783 0.0262282 0.00396443 0.0147088 0.00515645 0.0250172 0.00571233 0.0179056 0.00700903 0.0438945
36 3 O 4.63043 6.06637 2.79288 -1.2 1 0.00208754 0.00338959 0.00171457 0.00477838 0.0022535 0.00690822 0.00343252 0.0196085 0.00325191 0.00802077 0.00242018 0.0263048 0.00393999 0.0147789 0.00462223 0.0274623 0.0058093 0.018637 0.00710959 0.0458112
37 1 Mg -1.12976 4.79031 4.4844 1.2 1 0.00207274 0.00408556 0.00170961 0.00484419 0.00237069 0.00642673 0.00339949 0.0182474 0.00368343 0.00720765 0.00307329 0.0261842 0.00418134 0.0147148 0.00476923 0.0261348 0.00739826 0.0196066 0.00821279 0.0452192
38 2 Si -2.9517 7.47444 4.4844 2.4 1 0.00275258 0.00427685 0.0013789 0.00514215 0.00298882 0.00676121 0.00404134 0.0205002 0.00324867 0.00794855 0.00320306 0.0276786 0.0046039 0.0161388 0.00552935 0.0282707 0.00690203 0.0197427 0.00821014 0.0483861
39 3 O -3.00198 5.86121 4.4844 -1.2 1 0.00234484 0.00424716 0.00128516 0.00500924 0.00312078 0.00646206 0.00413668 0.0191311 0.00351552 0.00779723 0.00285817 0.0260669 0.00440729 0.0143551 0.0048567 0.0270669 0.00677639 0.0199259 0.00845073 0.0463457
40 3 O 0.666315 8.44846 4.4844 -1.2 1 0.00280786 0.00506905 0.00126308 0.00494279 0.00281161 0.00760325 0.00316768 0.0215125 0.00315679 0.00792657 0.00354413 0.0285058 0.00481545 0.0161262 0.00479348 0.029538 0.00643443 0.0203924 0.00803687 0.0494341
41 3 O -2.21213 8.18062 3.18632 -1.2 1 0.00236499 0.00420388 0.00156093 0.00451463 0.00254028 0.00655832 0.00310017 0.0210041 0.00278129 0.00829283 0.00296465 0.0277636 0.00426088 0.0158933 0.00525825 0.0291572 0.0058632 0.0192289 0.00682517 0.0490213
42 3 O -2.25864 8.18062 5.78248 -1.2 1 0.00316461 0.00477654 0.0014995 0.00486195 0.00307965 0.00631313 0.0030759 0.0211105 0.00261242 0.00854498 0.00385482 0.027155 0.00469639 0.0168783 0.00565477 0.0297269 0.00715829 0.0213638 0.00846268 0.0502985
43 1 Mg 1.20893 7.12349 2.9896 1.2 1 0.00175334 0.004037 0.00180784 0.00438725 0.00274708 0.00682972 0.00379378 0.0197882 0.00283572 0.00818701 0.00282202 0.028073 0.00348676 0.0158227 0.00398632 0.027633 0.00559145 0.0187312 0.00645699 0.0471206
44 1 Mg 4.00982 7.08218 4.4844 1.2 1 0.00263094 0.00415748 0.00152508 0.00470711 0.00252646 0.00653433 0.0038742 0.0202318 0.00353322 0.00770606 0.00321024 0.0275684 0.00429704 0.0168034 0.0058427 0.0284173 0.00723579 0.0197046 0.00826067 0.0477453
45 2 Si 2.17861 9.14704 4.4844 2.4 1 0.00269599 0.00451855 0.00149413 0.00489938 0.00288555 0.00758648 0.00377926 0.0213747 0.00285644 0.0081862 0.00328917 0.0283814 0.00473001 0.0167448 0.00475756 0.0298764 0.0060969 0.020068 0.00713976 0.0509184
46 3 O 2.18828 10.7603 4.4844 -1.2 1 0.00323892 0.00468001 0.0017922 0.00461543 0.00269547 0.00728242 0.00322965 0.0211817 0.00252694 0.00828476 0.00250556 0.0290493 0.00419028 0.0159586 0.00461289 0.0310549 0.0061601 0.0203187 0.0068239 0.0515094
47 3 O -4.43805 8.17302 4.4844 -1.2 1 0.00219311 0.00460788 0.00150966 0.00513686 0.00248189 0.0078435 0.00334274 0.0209084 0.00321318 0.00828785 0.00326074 0.0285374 0.00473639 0.0161871 0.00508012 0.029683 0.00689948 0.020079 0.00887689 0.049017
48 3 O 2.89193 8.44087 3.18632 -1.2 1 0.00255251 0.003909 0.00175449 0.00436148 0.00245832 0.00708074 0.00344119 0.0207212 0.00286402 0.00858006 0.0029199 0.0277395 0.00384916 0.0159948 0.00484654 0.0291814 0.00599436 0.019159 0.00602949 0.0489431
49 1 Mg 1.25915 7.12349 0 1.2 1 0.000366791 0.00298223 0.00145026 0.0041346 0.00187395 0.00725616 0.00288506 0.0202986 0.00280094 0.00833401 0.00260003 0.0275889 0.00343388 0.0146189 0.0036635 0.0276098 0.00457513 0.017674 0.00469901 0.0458345
50 3 O 2.84547 8.44087 5.78248 -1.2 1 0.00312497 0.0050009 0.00160546 0.00461211 0.00262294 0.00676348 0.00354361 0.0212205 0.00316896 0.00870878 0.00359999 0.0271858 0.00563989 0.0167654 0.00570997 0.0299574 0.00655824 0.021359 0.00814264 0.0504571
51 1 Mg -1.59284 7.16481 1.4948 1.2 1 0.00108785 0.00315964 0.00146898 0.00458826 0.00182376 0.00641833 0.00279568 0.0199424 0.00281996 0.00801449 0.00194543 0.0278577 0.00335663 0.0156379 0.00392537 0.0272259 0.00453264 0.0178969 0.0057766 0.0466369
52 2 Si 0.240329 5.09994 1.4948 2.4 1 0.000981566 0.00343508 0.00203237 0.00405001 0.00187014 0.00683497 0.00314417 0.0189923 0.00312475 0.00752435 0.0023895 0.0262058 0.00284211 0.0146359 0.00416101 0.0247994 0.00510986 0.0173156 0.00551211 0.0446052
53 3 O 0.234538 3.48671 1.4948 -1.2 1 0.00132311 0.00354071 0.00246588 0.00429339 0.00180997 0.0065201 0.00261641 0.0180722 0.00338225 0.00710491 0.00240167 0.0245557 0.00324267 0.013698 0.00391063 0.0239973 0.00544006 0.0164042 0.00568281 0.0423683
54 3 O 6.85564 6.07396 1.4948 -1.2 1 0.00137741 0.00262898 0.00230232 0.00487406 0.00251048 0.00617668 0.00312823 0.019992 0.00309702 0.00778356 0.00211855 0.0276928 0.00347003 0.0147226 0.00503486 0.0270237 0.00547824 0.0180415 0.00639046 0.0454243
55 3 O -0.429565 5.80612 0.196716 -1.2 1 0.000617637 0.00297388 0.0022359 0.00411301 0.00186157 0.00715863 0.00261948 0.0196393 0.0027705 0.00861978 0.00267127 0.0257956 0.00270708 0.0142614 0.00394721 0.0258553 0.00490701 0.0170903 0.00603204 0.0449021
56 3 O -0.473377 5.80612 2.79288 -1.2 1 0.00222149 0.00351947 0.00190408 0.00456282 0.00229492 0.00678102 0.00320364 0.0193636 0.00318355 0.00824767 0.00297782 0.0259732 0.003745 0.0146938 0.00462255 0.0265406 0.00634915 0.0188857 0.0069065 0.0461009
57 1 Mg 6.40169 9.49799 0 1.2 1 0.000335044 0.00385085 0.00158703 0.00455535 0.00157872 0.00824596 0.00210843 0.0211234 0.00159033 0.00904951 0.00190271 0.0288514 0.00251482 0.0149489 0.00289321 0.0297872 0.00375349 0.0179803 0.0042662 0.0473481
58 1 Mg 3.64209 14.2057 1.4948 1.2 1 0.00150621 0.00304744 0.00160428 0.00449053 0.00167642 0.00883917 0.00183069 0.0217632 0.00167528 0.00883733 0.00233844 0.0284916 0.00267618 0.0162624 0.00327961 0.0296984 0.0034267 0.0171276 0.00346585 0.0493783
59 2 Si 5.45748 11.5215 1.4948 2.4 1 0.00181659 0.00320104 0.00166586 0.00461028 0.00180784 0.00825186 0.00230444 0.0211646 0.00145392 0.00846484 0.00177862 0.0289518 0.00270028 0.0162844 0.00351488 0.0293966 0.00406078 0.0170425 0.00390757 0.049163
60 3 O 5.51101 13.1348 1.4948 -1.2 1 0.00164231 0.00318591 0.00175312 0.00466226 0.00160191 0.00910032 0.00200568 0.0212187 0.00169387 0.00878988 0.00163524 0.02949 0.0022171 0.0162488 0.0029851 0.0299674 0.00368952 0.0168243 0.00363749 0.0490994
61 3 O 1.83851 10.5475 1.4948 -1.2 1 0.00130796 0.00356043 0.00172775 0.00470675 0.0017666 0.00766894 0.00238705 0.0216918 0.00178647 0.00849188 0.00216309 0.0293483 0.00244221 0.0158372 0.00337568 0.0299307 0.00409789 0.0181543 0.00360683 0.0492151
62 3 O 4.7611 10.8154 0.196716 -1.2 1 0.000724332 0.00294373 0.00184833 0.0045392 0.00159227 0.00850773 0.00222242 0.0213238 0.00144751 0.00878402 0.0019678 0.0283038 0.00292354 0.0156005 0.00376445 0.0295682 0.00367924 0.0171722 0.00371585 0.0484048
63 1 Mg 6.35203 9.49799 2.9896 1.2 1 0.00189776 0.00396677 0.00155734 0.00482849 0.00261389 0.0076549 0.00345801 0.0205471 0.00300916 0.00864046 0.00215895 0.0292914 0.00375725 0.0163275 0.00351941 0.029413 0.00438963 0.0187493 0.00564963 0.0491667
64 3 O 4.71833 10.8154 2.79288 -1.2 1 0.0028502 0.00364416 0.00148978 0.00451395 0.00208805 0.00821576 0.00230444 0.0214338 0.00193966 0.00907753 0.00212434 0.0284175 0.00357299 0.01613 0.00414336 0.0303814 0.00532388 0.0187357 0.00546857 0.0502585
65 1 Mg -1.0438 9.53931 4.4844 1.2 1 0.00286472 0.00479659 0.00153177 0.00454305 0.00300649 0.00689571 0.00287193 0.0212618 0.00287095 0.00846882 0.00285221 0.028615 0.00407321 0.0168039 0.00477844 0.0302313 0.00659884 0.0204648 0.00741766 0.050792
66 2 Si -2.8604 12.2234 4.4844 2.4 1 0.00298614 0.00434103 0.00156315 0.00462234 0.00278143 0.00793627 0.00317151 0.0219808 0.00287911 0.00868547 0.00243769 0.028607 0.00425049 0.016823 0.00468719 0.0304196 0.00583823 0.0199115 0.00663971 0.0521517
67 3 O -2.91391 10.6102 4.4844 -1.2 1 0.00326962 0.00467959 0.00167935 0.00448813 0.0029277 0.00727329 0.0033671 0.0209546 0.00269015 0.00795726 0.00219795 0.0287669 0.00436984 0.0162462 0.00437165 0.0310799 0.00607134 0.0203111 0.0069674 0.0512691
68 3 O 0.7596 13.1975 4.4844 -1.2 1 0.0028322 0.00427363 0.00169364 0.00489099 0.00281384 0.00861207 0.00270472 0.0224371 0.00270239 0.00856838 0.00295437 0.0290341 0.00422854 0.0164942 0.00429823 0.0306751 0.00607857 0.0199227 0.00675193 0.0518565
69 3 O -2.12001 12.9296 3.18632 -1.2 1 0.00296089 0.00385784 0.00172317 0.00431209 0.00253067 0.00784016 0.00239821 0.022 0.0024727 0.0086868 0.00243223 0.0280598 0.00356204 0.0164301 0.00486835 0.0307701 0.00525409 0.0188832 0.00546294 0.0509718
70 3 O -2.16532 12.9296 5.78248 -1.2 1 0.00336241 0.00456887 0.00161238 0.00469241 0.00284686 0.00713649 0.00256794 0.0224386 0.00267332 0.00867659 0.0028759 0.0279547 0.00425205 0.017508 0.00500072 0.0318224 0.00629662 0.0218672 0.00693614 0.0538179
71 1 Mg 1.29891 11.8725 2.9896 1.2 1 0.00221489 0.00361892 0.00177592 0.00477135 0.00234005 0.00800504 0.00287812 0.0211709 0.00259299 0.00872677 0.00232805 0.0293995 0.00356293 0.016374 0.00366762 0.030211 0.00459509 0.0182344 0.00494569 0.0498497
72 1 Mg 4.10033 11.8312 4.4844 1.2 1 0.0032627 0.004246 0.00191705 0.00440577 0.00242552 0.00749646 0.00283133 0.0215166 0.00257272 0.00843706 0.00272775 0.0292129 0.00380198 0.0175423 0.00518764 0.0308105 0.00661862 0.0200224 0.00651097 0.0517683
73 2 Si 2.27333 13.896 4.4844 2.4 1 0.003027 0.00376647 0.00174528 0.00493765 0.00295936 0.00804306 0.00339399 0.0221584 0.00237143 0.0085395 0.00289367 0.0286275 0.00409637 0.0171216 0.00450686 0.0305399 0.00551734 0.019482 0.00622222 0.0526544
74 3 O 2.28634 15.5093 4.4844 -1.2 1 0.00316681 0.00401337 0.00173051 0.00470263 0.00298326 0.00748898 0.00292492 0.0211451 0.00268811 0.00790511 0.00227331 0.029108 0.00346993 0.0162428 0.0042447 0.031097 0.00562427 0.0190922 0.00625175 0.0520816
75 3 O -4.34533 12.922 4.4844 -1.2 1 0.00306259 0.00442499 0.00183086 0.00485632 0.00273306 0.00872159 0.00304067 0.0219125 0.00282269 0.00860374 0.002452 0.029139 0.00406848 0.016695 0.00504471 0.0309327 0.00646683 0.020215 0.00738246 0.0519312
76 3 O 2.98455 13.1899 3.18632 -1.2 1 0.0028492 0.00356526 0.00166097 0.00438289 0.00242853 0.0080061 0.00235124 0.0219176 0.00221182 0.00868691 0.00227886 0.0282884 0.00354874 0.0162607 0.0044544 0.0304491 0.0055796 0.018737 0.00558668 0.0507905
77 1 Mg 1.34779 11.8725 0 1.2 1 0.000797063 0.00297185 0.00142128 0.00462248 0.00145418 0.00880607 0.00159872 0.021379 0.00120799 0.00925807 0.0019795 0.0290829 0.00283511 0.0149933 0.00313192 0.0301425 0.00314044 0.0172241 0.00320023 0.0479994
78 3 O 2.93934 13.1899 5.78248 -1.2 1 0.00348759 0.00479448 0.00163986 0.00489108 0.00269663 0.00739766 0.00272391 0.0221858 0.00249532 0.00854948 0.00296801 0.0278559 0.00436146 0.0171122 0.00482144 0.0317844 0.00620721 0.0218899 0.00678161 0.0537569
79 1 Mg -1.50344 11.9138 1.4948 1.2 1 0.00124103 0.00371462 0.00143619 0.00451238 0.0013903 0.00830812 0.00193888 0.0216346 0.00236224 0.0086596 0.00155142 0.0289306 0.00354385 0.0161595 0.00344651 0.0299831 0.00351249 0.0176778 0.00376341 0.0490596
80 2 Si 0.326006 9.84894 1.4948 2.4 1 0.00098923 0.00363305 0.00124949 0.00489645 0.00186458 0.00809714 0.00225122 0.0212237 0.00205453 0.00857465 0.00168694 0.0286393 0.00290161 0.0158454 0.00370188 0.0290126 0.00376069 0.0179117 0.00361764 0.0485834
81 3 O 0.317364 8.23571 1.4948 -1.2 1 0.00147347 0.00366075 0.00112448 0.0044018 0.00184317 0.00766621 0.00224134 0.0203508 0.00250362 0.00817319 0.0020085 0.0287563 0.00350217 0.0158681 0.00403185 0.028715 0.00445047 0.0179365 0.00439499 0.0475559
82 3 O 6.94307 10.823 1.4948 -1.2 1 0.00148785 0.00377662 0.00144053 0.00454724 0.00181352 0.00777281 0.00270835 0.0218598 0.00230864 0.00851459 0.00154845 0.0295462 0.00292944 0.0160201 0.0034273 0.0299826 0.00378626 0.01809 0.00422538 0.0492369
83 3 O -0.343122 10.5551 0.196716 -1.2 1 0.000627235 0.00327594 0.0012479 0.00462215 0.00155328 0.00853452 0.0019752 0.0214603 0.00163487 0.00911672 0.00204518 0.0282091 0.00331623 0.0154985 0.00414453 0.0294621 0.00351522 0.0175179 0.00363744 0.048237
84 3 O -0.385966 10.5551 2.79288 -1.2 1 0.0027404 0.00390009 0.00128054 0.00450952 0.00241179 0.00804281 0.00227322 0.0215506 0.00205449 0.00913231 0.00250062 0.0279735 0.0036808 0.0160236 0.00425744 0.0303134 0.00520624 0.0189252 0.00524191 0.0501204
85 1 Mg 6.49448 14.247 0 1.2 1 0.000984755 0.00328012 0.00163276 0.00478201 0.00117452 0.00926935 0.00135424 0.0212681 0.00113869 0.00872624 0.00153033 0.0289547 0.00169542 0.0156324 0.00254402 0.0300613 0.0031065 0.0165193 0.00291185 0.0479876
86 1 Mg 3.74457 18.9547 1.4948 1.2 1 0.0021107 0.00316494 0.00144505 0.00414469 0.00189869 0.00856916 0.00139187 0.0221054 0.00203892 0.00813693 0.00220746 0.0278829 0.00253659 0.0165007 0.00354316 0.0291406 0.00338528 0.0165259 0.00341108 0.0496911
87 2 Si 5.55495 16.2705 1.4948 2.4 1 0.00194388 0.00285585 0.00145503 0.00451363 0.00190185 0.00891488 0.00143934 0.0213939 0.00130027 0.00810932 0.00131041 0.0288408 0.00245776 0.0163678 0.0029552 0.0290711 0.00367458 0.0161303 0.00366161 0.0493545
88 3 O 5.6115 17.8838 1.4948 -1.2 1 0.00198222 0.00305253 0.00156218 0.00441792 0.00178011 0.0092373 0.00152953 0.0216417 0.00190491 0.00804367 0.00139152 0.0289043 0.00226787 0.016612 0.0029642 0.0291607 0.00327091 0.0160287 0.00360367 0.0494325
89 3 O 1.93416 15.2965 1.4948 -1.2 1 0.00166262 0.00312088 0.00155954 0.00459335 0.00187643 0.00840649 0.00214362 0.0219579 0.00188067 0.0082883 0.00146064 0.0292902 0.00215473 0.0163445 0.00300597 0.0298797 0.00363285 0.0167704 0.00336064 0.0497353
90 3 O 4.85636 15.5644 0.196716 -1.2 1 0.00140374 0.00246446 0.00143564 0.00459269 0.00132287 0.00917045 0.00149215 0.0214109 0.00101469 0.00835638 0.00166275 0.0282283 0.00262942 0.016196 0.00363376 0.0293782 0.00317913 0.0159849 0.00305994 0.048739
91 1 Mg 6.44662 14.247 2.9896 1.2 1 0.00173662 0.00359061 0.0014307 0.00460547 0.00255016 0.00862424 0.00298915 0.0209582 0.00250698 0.00877719 0.00169463 0.0294572 0.0030595 0.0165829 0.00317972 0.0299953 0.0040987 0.0178945 0.0047725 0.0500962
92 3 O 4.81537 15.5644 2.79288 -1.2 1 0.00242832 0.00325637 0.00155108 0.00448657 0.00233575 0.00886177 0.00183039 0.0219783 0.00168125 0.00882489 0.00180432 0.0282594 0.00301905 0.0166061 0.00385195 0.0299728 0.00473918 0.0176266 0.0049221 0.0504448
93 1 Mg -0.948271 14.2883 4.4844 1.2 1 0.00298755 0.00375111 0.0014897 0.00445362 0.0028 0.00792651 0.00264355 0.021844 0.00267697 0.00848671 0.00280375 0.0288089 0.0034346 0.0171638 0.00530879 0.0309259 0.00611804 0.0195524 0.00654594 0.0521153
94 2 Si -2.75928 16.9724 4.4844 2.4 1 0.00267829 0.00363814 0.00166512 0.0047653 0.00289837 0.00820052 0.0029248 0.0221741 0.00263311 0.00807819 0.00242308 0.0283707 0.00341479 0.0172484 0.00463767 0.0302516 0.00521713 0.0190266 0.00609237 0.0528424
95 3 O -2.81617 15.3592 4.4844 -1.2 1 0.00329515 0.00397408 0.00155226 0.00458841 0.00295737 0.00778594 0.00290081 0.0213521 0.00250857 0.00795091 0.00210968 0.0289445 0.0036994 0.0164839 0.00437503 0.0310236 0.00612687 0.0192672 0.00672557 0.0521825
96 3 O 0.862762 17.9465 4.4844 -1.2 1 0.00287319 0.00406764 0.00138984 0.00484487 0.00301163 0.00858017 0.0026184 0.0225516 0.00260187 0.00818526 0.00243426 0.0288963 0.00376512 0.0173442 0.00453823 0.0298072 0.00560975 0.0191469 0.00606861 0.0524575
97 3 O -2.0185 17.6786 3.18632 -1.2 1 0.00250113 0.00331803 0.00177299 0.0043358 0.00263936 0.0077832 0.00227708 0.0221799 0.00232405 0.00811028 0.0019671 0.02805 0.00348959 0.0169351 0.00456973 0.0303001 0.00475979 0.0179129 0.00507305 0.0515807
98 3 O -2.06164 17.6786 5.78248 -1.2 1 0.00322936 0.00393699 0.0014142 0.00490077 0.00286625 0.00727445 0.00239152 0.0224454 0.00240196 0.00822431 0.00250899 0.0280239 0.00351202 0.0179075 0.00495688 0.0314743 0.00602974 0.0210521 0.00642067 0.0543983
99 1 Mg 1.39817 16.6215 2.9896 1.2 1 0.00243951 0.00330833 0.00154946 0.00462218 0.00258241 0.00843494 0.00264995 0.0213296 0.00263148 0.00836134 0.00208094 0.0292089 0.00280401 0.0167965 0.00347162 0.0297547 0.0041365 0.017053 0.00443999 0.050242
100 1 Mg 4.20062 16.5802 4.4844 1.2 1 0.00281376 0.00361095 0.00174888 0.00455922 0.00271673 0.00776112 0.00256468 0.021844 0.00306272 0.00796874 0.00270383 0.0288554 0.00338947 0.0178457 0.00535716 0.0305167 0.00611679 0.0190823 0.00616206 0.0523601
101 2 Si 2.37796 18.645 4.4844 2.4 1 0.00258292 0.00350133 0.00136726 0.0047653 0.00291301 0.0081084 0.00287862 0.0223899 0.00264529 0.00817448 0.00256019 0.0283322 0.00366431 0.0173887 0.00475463 0.0298268 0.00517355 0.0185415 0.00571844 0.0531037
102 3 O 2.39434 20.2583 4.4844 -1.2 1 0.00275401 0.00393923 0.00141496 0.00474584 0.0029138 0.0072407 0.00272873 0.0215202 0.0028527 0.00759502 0.00192189 0.0288232 0.00338542 0.0171702 0.00442553 0.030265 0.00561538 0.0186522 0.00635076 0.0527743
103 3 O -4.24274 17.671 4.4844 -1.2 1 0.00235971 0.00390324 0.00168233 0.00477628 0.00281559 0.00875365 0.00278175 0.0224976 0.0029287 0.00818102 0.0024681 0.0290427 0.00359283 0.0171314 0.00520147 0.030235 0.00583421 0.0194126 0.00647698 0.0525588
104 3 O 3.08659 17.9389 3.18632 -1.2 1 0.00261821 0.00320526 0.00160133 0.00420884 0.00269443 0.00806234 0.00204534 0.0222295 0.00237416 0.00807729 0.00209745 0.0279099 0.00320444 0.0167387 0.00444465 0.0298377 0.00524937 0.0178215 0.00542821 0.0513578
105 1 Mg 1.44478 16.6215 0 1.2 1 0.00202034 0.00284052 0.00113055 0.00439112 0.00149497 0.00892683 0.00110389 0.0215061 0.00141583 0.00836694 0.00147908 0.0287213 0.00227094 0.0159057 0.00261228 0.0294473 0.00278491 0.0161782 0.0030325 0.0485123
106 3 O 3.0436 17.9389 5.78248 -1.2 1 0.00302296 0.00420245 0.00133488 0.00502371 0.00272453 0.00728283 0.002392 0.0223945 0.00226677 0.0084 0.00279623 0.0279699 0.00392341 0.0175681 0.00530373 0.0312754 0.00596852 0.0209822 0.00648571 0.0544557
107 1 Mg -1.40524 16.6628 1.4948 1.2 1 0.00151196 0.00325892 0.0013325 0.00456764 0.00171222 0.0087239 0.00188305 0.0221971 0.00189761 0.00848482 0.00172092 0.0284808 0.00308068 0.016804 0.00302803 0.0295201 0.00304502 0.0168201 0.00322476 0.0493917
108 2 Si 0.420358 14.5979 1.4948 2.4 1 0.0014366 0.00308647 0.00143753 0.00485538 0.00198737 0.00909796 0.00193087 0.0214038 0.00165937 0.00841078 0.00144063 0.0286784 0.00285498 0.0164964 0.003587 0.0290747 0.00335865 0.0166572 0.00341984 0.0491764
109 3 O 0.408732 12.9847 1.4948 -1.2 1 0.0015603 0.00315519 0.00145798 0.00476409 0.00180091 0.0090723 0.00160997 0.0212047 0.00212774 0.00857833 0.00153115 0.0292319 0.00304124 0.0161402 0.00311329 0.0300158 0.00325203 0.0170785 0.00358182 0.0491457
110 3 O 7.03923 15.572 1.4948 -1.2 1 0.00141649 0.00323907 0.00153397 0.00458199 0.00210762 0.00834357 0.00240292 0.0217592 0.00205949 0.00823347 0.0014398 0.0294315 0.0026807 0.0165017 0.00294858 0.0298191 0.00341486 0.0169451 0.00381045 0.049512
111 3 O -0.248332 15.3041 0.196716 -1.2 1 0.00148785 0.00285022 0.00126539 0.00459543 0.00119139 0.00912943 0.0019708 0.0214068 0.00128291 0.00856438 0.00172676 0.0281981 0.00281326 0.0159142 0.00381769 0.0293367 0.00300183 0.0162056 0.00329004 0.048494
112 3 O -0.289436 15.3041 2.79288 -1.2 1 0.00268301 0.00349041 0.00130164 0.00448623 0.00247733 0.00865556 0.00200028 0.0219341 0.00185712 0.00884596 0.00205237 0.0278249 0.00302932 0.0166361 0.00369138 0.0301248 0.00465313 0.0178159 0.00467906 0.0503542
113 1 Mg 6.59566 18.996 0 1.2 1 0.00148953 0.00310582 0.00147928 0.00435684 0.00111786 0.00857065 0.00121389 0.0219963 0.00114593 0.00797885 0.00136974 0.0282766 0.00201671 0.0163728 0.00240201 0.0288269 0.00299976 0.0159835 0.00296901 0.0484561
114 1 Mg 3.85574 23.7037 1.4948 1.2 1 0.00217687 0.0028041 0.00127522 0.00435385 0.00170076 0.00748721 0.00125494 0.0230893 0.00187738 0.0075959 0.00216351 0.0273127 0.00253678 0.0176633 0.00398 0.028557 0.00341701 0.0172493 0.00362758 0.050847
115 2 Si 5.66125 21.0195 1.4948 2.4 1 0.00201176 0.00268161 0.00119201 0.00429811 0.00204953 0.00825656 0.00141221 0.0218717 0.0013585 0.00767348 0.00153733 0.0282348 0.00259485 0.0174172 0.00295227 0.0282787 0.00364359 0.0159822 0.00407899 0.0501469
116 3 O 5.72074 22.6328 1.4948 -1.2 1 0.00217755 0.00275451 0.00152645 0.00425195 0.00184289 0.00824366 0.00152709 0.0223058 0.00188174 0.00734978 0.0013096 0.0280774 0.00222862 0.0173691 0.00313274 0.0285379 0.00336482 0.0164225 0.0038692 0.0502199
117 3 O 2.03867 20.0455 1.4948 -1.2 1 0.0017671 0.00321329 0.00138246 0.00451929 0.00192686 0.00787353 0.0020344 0.02227 0.00215822 0.00758979 0.00137067 0.0287025 0.00236151 0.0172887 0.00278885 0.0291564 0.00363842 0.0162621 0.0035845 0.0503349
118 3 O 4.96004 20.3134 0.196716 -1.2 1 0.00221861 0.00252788 0.00131193 0.0042092 0.00137849 0.00843977 0.00114913 0.0218204 0.00109935 0.00770044 0.00172169 0.0277403 0.00287391 0.0165893 0.00410794 0.0287684 0.00326657 0.0153964 0.00322922 0.0492013
119 1 Mg 6.55057 18.996 2.9896 1.2 1 0.00155555 0.00343045 0.0013974 0.00443583 0.00258239 0.00841113 0.00274001 0.0213515 0.00243078 0.00814164 0.00177559 0.0293839 0.00306676 0.0171982 0.00336741 0.029063 0.00389132 0.0173677 0.00476328 0.0505343