ITEM: TIMESTEP
5600
ITEM: NUMBER OF ATOMS
10500
ITEM: BOX BOUNDS xy xz yz pp pp pp
0	15.2977	5.09925
0	118.725	0
0	89.688	0
ITEM: ATOMS id type element xu yu zu q Q_1 Q_2 Q_3 Q_4 Q_5 Q_6 Q_7 Q_8 Q_9 Q_10 Q_11 Q_12 Q_13 Q_14 Q_15 Q_16 Q_17 Q_18 Q_19 Q_20 Q_21
1 1 Mg 6.2404 -6.37941e-06 0 1.2 1 0.0011411 0.00384472 0.0010741 0.00475317 0.00121166 0.00565426 0.00218865 0.016304 0.00211341 0.00602695 0.00205772 0.0221647 0.00249955 0.0134336 0.00346871 0.0208052 0.00400044 0.0143206 0.00399127 0.040697
2 1 Mg 3.46349 4.70768 1.4948 1.2 1 0.00122405 0.00300976 0.00171215 0.00439609 0.0019041 0.00617614 0.00367487 0.0186224 0.00280351 0.00699542 0.00291628 0.0259589 0.00330573 0.0138513 0.00439703 0.0253971 0.00540015 0.0172237 0.00573578 0.0439523
3 2 Si 5.2885 2.02354 1.4948 2.4 1 0.000875277 0.00280596 0.00194258 0.00452647 0.00173983 0.00574103 0.00258145 0.017027 0.00242582 0.00622925 0.00201162 0.0235457 0.00286801 0.0133543 0.00377333 0.0216682 0.00392151 0.015384 0.00434109 0.0413126
4 3 O 5.33628 3.63678 1.4948 -1.2 1 0.00068209 0.00234169 0.00171493 0.00475976 0.00209802 0.0063424 0.00296391 0.0177532 0.00226914 0.00676361 0.00191962 0.0253574 0.00259911 0.0135733 0.00425614 0.0241043 0.00510822 0.0164952 0.0057932 0.0428898
5 3 O 1.67294 1.04952 1.4948 -1.2 1 0.00185521 0.002915 0.00211439 0.00413134 0.00125252 0.00574371 0.00259613 0.016946 0.00236002 0.0062124 0.00202594 0.0230311 0.0026745 0.0126444 0.00347449 0.0220189 0.00461103 0.0157672 0.00479255 0.0403123
6 3 O 4.59532 1.31737 0.196716 -1.2 1 0.00120582 0.00266363 0.00197453 0.00427069 0.00196676 0.00566637 0.00246563 0.0172359 0.00262067 0.00649702 0.00197802 0.0227184 0.00325284 0.0126896 0.00425583 0.0216096 0.00428117 0.0149914 0.0045334 0.0410693
7 1 Mg 6.18956 -6.37941e-06 2.9896 1.2 1 0.00119233 0.00388286 0.00147516 0.00419451 0.00115185 0.00577139 0.00251514 0.0160418 0.00266066 0.00562398 0.00174566 0.0226518 0.00283837 0.0131648 0.00369707 0.0207911 0.00436907 0.0148273 0.00496865 0.0390646
8 3 O 4.55118 1.31737 2.79288 -1.2 1 0.0014216 0.0037069 0.00183718 0.00417775 0.00173717 0.00571538 0.00270394 0.0168791 0.0025107 0.0069853 0.00225165 0.0220852 0.00345168 0.0121728 0.0034256 0.0217515 0.00480715 0.0156509 0.00527922 0.0402371
9 1 Mg -1.20682 0.0413099 4.4844 1.2 1 0.000530228 0.00247674 0.00163193 0.00441237 0.00129536 0.00555506 0.00214075 0.0161113 0.00222581 0.0059329 0.00214593 0.0232038 0.00322364 0.0114992 0.00373451 0.0210439 0.00524172 0.0157114 0.00535208 0.0389621
10 2 Si -3.0337 2.72544 4.4844 2.4 1 0.000430137 0.00251566 0.00182119 0.00477915 0.00223143 0.00632178 0.0033866 0.0166166 0.00326569 0.00621565 0.00230814 0.0243518 0.0033566 0.0127583 0.00417401 0.022678 0.00540068 0.0177224 0.00645178 0.0400634
11 3 O -3.08099 1.11221 4.4844 -1.2 1 0.000675595 0.00296048 0.00179089 0.00422451 0.00129601 0.00548683 0.00247879 0.0160586 0.00282618 0.00563336 0.00218948 0.0227865 0.00338868 0.0111296 0.00367195 0.0214658 0.00489718 0.0162061 0.00565629 0.0386939
12 3 O 0.582463 3.69946 4.4844 -1.2 1 0.00192827 0.00421207 0.00199359 0.00434151 0.00248652 0.00686242 0.00369427 0.0171942 0.00341299 0.00646089 0.00312609 0.0249624 0.00416031 0.0127295 0.00439484 0.0245842 0.006973 0.0188353 0.00841223 0.042108
13 3 O -2.29524 3.43162 3.18632 -1.2 1 0.000954922 0.00229855 0.00269871 0.00449341 0.00225289 0.00605039 0.00307875 0.0178259 0.00327818 0.0066883 0.0026888 0.0247381 0.00339166 0.0128998 0.00478646 0.0244546 0.00593542 0.0180017 0.00674468 0.042219
14 3 O -2.34216 3.43162 5.78248 -1.2 1 0.00138714 0.00334797 0.00131153 0.00489509 0.00270257 0.00619759 0.0033715 0.0169706 0.00295874 0.00728411 0.002768 0.0239534 0.00464347 0.0123819 0.00433094 0.0237326 0.00644853 0.0193875 0.00762606 0.0409615
15 1 Mg 1.12778 2.37449 2.9896 1.2 1 0.00164492 0.00320135 0.00237116 0.00449109 0.00216955 0.00598964 0.00314398 0.0167663 0.00277956 0.00622844 0.00226435 0.0238257 0.00342526 0.0128201 0.00361433 0.0221723 0.0048499 0.016657 0.00568474 0.0411201
16 1 Mg 3.92855 2.33318 4.4844 1.2 1 0.00128167 0.00378451 0.00152868 0.00423583 0.00181593 0.00577826 0.00357809 0.0167155 0.00317478 0.00611223 0.00297905 0.0232365 0.0037654 0.0131606 0.0052327 0.0221418 0.00635863 0.01719 0.00711682 0.040421
17 2 Si 2.09341 4.39804 4.4844 2.4 1 0.00137445 0.00400828 0.00201859 0.00424091 0.00297934 0.0061401 0.00384736 0.0181194 0.00348958 0.00664721 0.00335771 0.0251702 0.00460522 0.0139826 0.00455491 0.024989 0.00674026 0.0187339 0.00853946 0.043879
18 3 O 2.09991 6.01128 4.4844 -1.2 1 0.00204874 0.00435045 0.00170388 0.00424744 0.00297702 0.00660827 0.00324327 0.0191741 0.00286324 0.00733626 0.00313107 0.026974 0.004338 0.014405 0.00489977 0.0277862 0.00692902 0.0197285 0.00819434 0.0459685
19 3 O -4.52137 3.42402 4.4844 -1.2 1 0.00109775 0.00302167 0.0021704 0.00458725 0.00231462 0.00719051 0.00358102 0.0169258 0.00339012 0.00629471 0.00311573 0.0240715 0.00412814 0.0127452 0.00443252 0.0231464 0.00629785 0.0178096 0.00776797 0.0414929
20 3 O 2.80834 3.69187 3.18632 -1.2 1 0.0012441 0.00345271 0.00176642 0.00371182 0.00205569 0.00592684 0.00316881 0.0173858 0.00308114 0.00644591 0.00282277 0.0244045 0.00369263 0.0128989 0.00478622 0.0240438 0.00573583 0.0172322 0.00650716 0.0427889
21 1 Mg 1.17857 2.37449 0 1.2 1 0.00199636 0.00307035 0.00222803 0.00408454 0.00137721 0.00555164 0.00257949 0.017317 0.00236222 0.00680954 0.00265645 0.0234419 0.00286918 0.0131187 0.00361856 0.0217635 0.00439475 0.0150737 0.00468602 0.0409862
22 3 O 2.76143 3.69187 5.78248 -1.2 1 0.00192724 0.00416312 0.00183828 0.00426675 0.0023016 0.00567843 0.00307297 0.0173907 0.00324822 0.00713883 0.00284898 0.0236991 0.00485242 0.0129692 0.00555051 0.0236877 0.00664615 0.0187427 0.00772535 0.041893
23 1 Mg -1.67381 2.41581 1.4948 1.2 1 0.00148636 0.00205079 0.00265887 0.00481717 0.00143274 0.00602706 0.00251152 0.0166864 0.00289499 0.00641661 0.00188247 0.0243513 0.00258394 0.0140413 0.00290896 0.022409 0.00438181 0.0161645 0.00480927 0.0417687
24 2 Si 0.16286 0.350945 1.4948 2.4 1 0.00195474 0.00216104 0.00283575 0.00436237 0.00113783 0.00624072 0.00289867 0.0165355 0.00234824 0.00542074 0.00190049 0.0232385 0.00242858 0.0133974 0.00312399 0.0210101 0.00452294 0.0148295 0.0042561 0.0406245
25 3 O 0.15972 -1.26229 1.4948 -1.2 1 0.00173612 0.00229597 0.00304426 0.00444048 0.00167688 0.00590394 0.00253868 0.016514 0.00228379 0.00574014 0.00234835 0.0229978 0.00255957 0.0136901 0.00294159 0.021891 0.00408969 0.0147337 0.00389456 0.0408354
26 3 O 6.77654 1.32496 1.4948 -1.2 1 0.0014118 0.00317704 0.00163493 0.00457557 0.00125286 0.00605425 0.00245112 0.0167526 0.00252534 0.00559658 0.0016828 0.0239581 0.00286927 0.0133854 0.00360015 0.0219786 0.00464185 0.0153637 0.00442367 0.0409095
27 3 O -0.508028 1.05712 0.196716 -1.2 1 0.00157004 0.0023584 0.00342245 0.0041708 0.00119503 0.0056504 0.00254848 0.0171253 0.00189039 0.00685985 0.00240117 0.0222973 0.00268241 0.0126387 0.00311654 0.0214838 0.0041814 0.0151265 0.00433034 0.0403176
28 3 O -0.552171 1.05712 2.79288 -1.2 1 0.00119391 0.00171858 0.00273111 0.00435184 0.00126957 0.00615209 0.00251788 0.0161238 0.00261113 0.00636295 0.00168897 0.0230724 0.0030856 0.0116028 0.00373882 0.0218487 0.00534409 0.0160493 0.00501957 0.0396249
29 1 Mg 6.31713 4.74899 0 1.2 1 0.00071509 0.00226482 0.00201156 0.0048319 0.00226508 0.00620752 0.0033583 0.018148 0.0027611 0.00714691 0.00220659 0.0254994 0.00291191 0.0135806 0.0042417 0.0247648 0.00478497 0.0164623 0.0059787 0.0429323
30 1 Mg 3.54847 9.45668 1.4948 1.2 1 0.00112807 0.0034613 0.00196646 0.00481458 0.00209607 0.00775672 0.00311461 0.021379 0.0017526 0.0083989 0.00239195 0.0286487 0.0032956 0.015617 0.00393275 0.029324 0.00438559 0.0182529 0.00402043 0.048922
31 2 Si 5.36879 6.77254 1.4948 2.4 1 0.000422171 0.00301982 0.00207991 0.00516447 0.00270413 0.00702171 0.0037605 0.0196428 0.00271639 0.0078375 0.00244512 0.0277782 0.00325969 0.01529 0.00415083 0.0270294 0.00476979 0.0175146 0.00537732 0.0466314
32 3 O 5.41937 8.38578 1.4948 -1.2 1 0.0008923 0.0032069 0.00183277 0.00508644 0.00227833 0.00779852 0.00312158 0.0209477 0.00225452 0.00838911 0.00236979 0.0291549 0.00244959 0.0155842 0.00307418 0.0292533 0.00477179 0.0175692 0.00493903 0.0481636
33 3 O 1.75158 5.79852 1.4948 -1.2 1 0.00105034 0.0033514 0.00180937 0.00416698 0.00241612 0.00604558 0.00335417 0.0195154 0.0028117 0.00732132 0.00266135 0.0280067 0.00303497 0.0153602 0.00351795 0.0269379 0.00542606 0.0177305 0.0056385 0.0458281
34 3 O 4.67421 6.06637 0.196716 -1.2 1 0.000496243 0.00284499 0.0016619 0.00487893 0.00195076 0.0069423 0.00307876 0.0198097 0.00244359 0.00827897 0.00208212 0.0264545 0.00362731 0.0142619 0.00418297 0.0267417 0.00479737 0.0168448 0.00562154 0.0451868
35 1 Mg 6.26654 4.74899 2.9896 1.2 1 0.001473 0.00264954 0.00236146 0.00493686 0.00266427 0.00663569 0.00385723 0.0178858 0.00383256 0.00704791 0.00220188 0.0260768 0.00384584 0.0144283 0.0049415 0.0251446 0.00588572 0.0176922 0.00711017 0.0438046
36 3 O 4.63043 6.06637 2.79288 -1.2 1 0.00174985 0.00319259 0.00179857 0.00491609 0.00235291 0.00691026 0.0034185 0.0193157 0.00339896 0.00793925 0.00254806 0.0263438 0.00398972 0.0145884 0.00447407 0.0275023 0.00592805 0.0183971 0.00706381 0.0457076
37 1 Mg -1.12976 4.79031 4.4844 1.2 1 0.00167978 0.00380606 0.0018803 0.00483072 0.00247851 0.0063507 0.00330711 0.0180211 0.00360276 0.00699027 0.00315242 0.0261925 0.00425695 0.0142451 0.00470498 0.0260514 0.00738275 0.0194331 0.00812118 0.0445954
38 2 Si -2.9517 7.47444 4.4844 2.4 1 0.00213802 0.00417757 0.00169946 0.00534383 0.00302562 0.00675192 0.00388891 0.0204645 0.00333569 0.00786609 0.00306225 0.027769 0.00468874 0.0158688 0.00546482 0.028429 0.00698554 0.0195474 0.00832134 0.0482526
39 3 O -3.00198 5.86121 4.4844 -1.2 1 0.00157385 0.00409655 0.0015592 0.00511709 0.00324596 0.00653694 0.0041866 0.0189118 0.00358874 0.00762829 0.00287825 0.0262384 0.00461701 0.014078 0.00493035 0.0273664 0.00689819 0.0198057 0.00843021 0.0459461
40 3 O 0.666315 8.44846 4.4844 -1.2 1 0.00286037 0.00510111 0.00145357 0.00516933 0.00302016 0.00760304 0.00298025 0.0212074 0.00320251 0.00799252 0.00327115 0.0287414 0.00476619 0.0158881 0.00471716 0.029654 0.00659567 0.0201465 0.00816951 0.0492255
41 3 O -2.21213 8.18062 3.18632 -1.2 1 0.0017664 0.00436901 0.00171428 0.0047233 0.00271149 0.00651679 0.00292237 0.0208672 0.00282091 0.00826716 0.00280362 0.0278272 0.00435452 0.0157543 0.00515581 0.0292767 0.00599146 0.0190405 0.0067872 0.0489157
42 3 O -2.25864 8.18062 5.78248 -1.2 1 0.00316698 0.00494604 0.00191568 0.00511367 0.0031876 0.00621588 0.00314024 0.0207411 0.00269376 0.00856096 0.00356875 0.0272948 0.0047866 0.0165263 0.00546749 0.0297282 0.00709947 0.0209696 0.00839815 0.0500456
43 1 Mg 1.20893 7.12349 2.9896 1.2 1 0.00158276 0.0040089 0.00188387 0.00460384 0.00287243 0.00682498 0.00381197 0.0196604 0.00290761 0.00805039 0.00273038 0.0281378 0.00357438 0.0156413 0.00385715 0.0277345 0.00572035 0.0185514 0.00647986 0.047168
44 1 Mg 4.00982 7.08218 4.4844 1.2 1 0.00225359 0.00425234 0.00162379 0.00500936 0.00283244 0.00666249 0.00390745 0.0201451 0.00348826 0.00756874 0.00325707 0.0275882 0.00452274 0.0165946 0.00582053 0.0286067 0.00728054 0.0196368 0.00868757 0.0476646
45 2 Si 2.17861 9.14704 4.4844 2.4 1 0.00253164 0.00460936 0.00171448 0.00514742 0.00305728 0.00748946 0.00367888 0.0212807 0.00292528 0.00824017 0.00319085 0.0283858 0.00480509 0.0165989 0.00483711 0.0299411 0.00608487 0.0199315 0.00716905 0.0508945
46 3 O 2.18828 10.7603 4.4844 -1.2 1 0.00303833 0.00492481 0.00204486 0.00488338 0.00281346 0.00729127 0.0030611 0.0211731 0.00260334 0.00818684 0.00226233 0.0289945 0.00430814 0.0157983 0.00460261 0.0310754 0.00618104 0.0202142 0.00683572 0.0517924
47 3 O -4.43805 8.17302 4.4844 -1.2 1 0.00167228 0.00452282 0.00201854 0.00529415 0.00277322 0.00789353 0.00335399 0.0207863 0.00333578 0.00830917 0.00316308 0.0286415 0.00502807 0.0159979 0.0049316 0.0296525 0.00685422 0.0198512 0.00894086 0.0488402
48 3 O 2.89193 8.44087 3.18632 -1.2 1 0.00219722 0.00395913 0.00186862 0.00462152 0.00264571 0.00707434 0.0033412 0.0206584 0.00292689 0.00848786 0.00289236 0.027793 0.00401006 0.0158344 0.00478129 0.0292073 0.0060311 0.0189953 0.00606907 0.0489526
49 1 Mg 1.25915 7.12349 0 1.2 1 0.000771686 0.00298803 0.00140147 0.00433081 0.00176573 0.00735115 0.00295394 0.0202629 0.00283507 0.00821287 0.00243492 0.027736 0.00344629 0.0143263 0.00346038 0.0277018 0.00466593 0.0176041 0.00456244 0.0462392
50 3 O 2.84547 8.44087 5.78248 -1.2 1 0.00283799 0.00516312 0.00168464 0.00498756 0.00277133 0.00667731 0.00335091 0.0212273 0.00310382 0.00882768 0.00340033 0.0273062 0.0056288 0.0165568 0.00551635 0.0302863 0.00636907 0.0214926 0.0077215 0.0505
51 1 Mg -1.59284 7.16481 1.4948 1.2 1 0.00116384 0.00334043 0.00151224 0.00477776 0.00181241 0.00645294 0.00282395 0.0199654 0.00295639 0.0078994 0.00173558 0.0277016 0.00346527 0.0153641 0.00366541 0.0273449 0.00461244 0.0179036 0.00557107 0.0467653
52 2 Si 0.240329 5.09994 1.4948 2.4 1 0.0010853 0.00344662 0.00220046 0.00417992 0.0018878 0.00679567 0.0031967 0.0189552 0.00316098 0.00733279 0.00227007 0.0261684 0.00296772 0.0144137 0.0040873 0.024887 0.00516553 0.0171223 0.00529972 0.0448284
53 3 O 0.234538 3.48671 1.4948 -1.2 1 0.00168806 0.0033427 0.00269977 0.00433226 0.00186113 0.00646701 0.0027335 0.017931 0.0034323 0.00695771 0.00228916 0.0247677 0.00331855 0.0134306 0.00400806 0.0241316 0.00555847 0.0162226 0.00549143 0.0425456
54 3 O 6.85564 6.07396 1.4948 -1.2 1 0.000853591 0.00243184 0.00233786 0.00489411 0.00254988 0.0061936 0.00310694 0.019922 0.0030981 0.00753664 0.002125 0.0278418 0.00336976 0.0146015 0.00466644 0.0270079 0.00562148 0.0178607 0.00636488 0.0455149
55 3 O -0.429565 5.80612 0.196716 -1.2 1 0.000838636 0.00305668 0.00226261 0.00423087 0.00179855 0.00717263 0.00265133 0.0196672 0.00284859 0.00854457 0.00238507 0.025889 0.00277638 0.014088 0.00386484 0.0259649 0.00505637 0.0169254 0.00576109 0.0453026
56 3 O -0.473377 5.80612 2.79288 -1.2 1 0.00167036 0.00346154 0.00210674 0.00462045 0.00243035 0.00683039 0.00319024 0.0192435 0.00327401 0.00797683 0.00290373 0.0260014 0.00389913 0.0145389 0.00448867 0.0265714 0.00639717 0.0187546 0.0069091 0.0460501
57 1 Mg 6.40169 9.49799 0 1.2 1 0.000314029 0.00386013 0.00147338 0.00474114 0.00155857 0.00835731 0.00210508 0.0210865 0.00163648 0.0089227 0.00169668 0.0289678 0.00252299 0.0147413 0.00270289 0.0299107 0.00371219 0.0179712 0.00410146 0.0476661
58 1 Mg 3.64209 14.2057 1.4948 1.2 1 0.00208352 0.00341436 0.00163793 0.00461977 0.00177672 0.00887892 0.00178632 0.0217621 0.00163624 0.00879713 0.00213254 0.028447 0.00248707 0.0160349 0.00287365 0.02971 0.00365571 0.0170513 0.0033761 0.0496201
59 2 Si 5.45748 11.5215 1.4948 2.4 1 0.00192466 0.00347636 0.00170431 0.00473558 0.00182551 0.0082797 0.00222805 0.0212678 0.0015256 0.00835012 0.00177679 0.0289416 0.00267853 0.016231 0.00342587 0.0293508 0.00413268 0.017029 0.0038726 0.0494679
60 3 O 5.51101 13.1348 1.4948 -1.2 1 0.00202853 0.00353959 0.00173719 0.00476053 0.00163088 0.00917994 0.00187707 0.0212681 0.00176845 0.00863616 0.00154984 0.0294865 0.0022699 0.0161195 0.00292256 0.0300457 0.00380781 0.0167038 0.0035602 0.0493242
61 3 O 1.83851 10.5475 1.4948 -1.2 1 0.00102501 0.00384035 0.00170733 0.00505661 0.00190178 0.00784056 0.00241822 0.0216569 0.00172659 0.00840672 0.00219316 0.0294856 0.00278725 0.0157788 0.00336191 0.0300228 0.00424866 0.017933 0.00355495 0.0494015
62 3 O 4.7611 10.8154 0.196716 -1.2 1 0.000923825 0.00319229 0.00176914 0.00474228 0.00157595 0.00855471 0.00223817 0.021458 0.00138794 0.00876173 0.00190406 0.0284388 0.0030258 0.0155692 0.003875 0.0295583 0.00374904 0.0172109 0.00365324 0.0485951
63 1 Mg 6.35203 9.49799 2.9896 1.2 1 0.00136851 0.00409616 0.00178964 0.00497339 0.00276754 0.00763122 0.00344485 0.0204653 0.00315718 0.00865404 0.00216049 0.0294505 0.00404853 0.0161618 0.00355606 0.0294773 0.00449978 0.0185776 0.00564458 0.0490804
64 3 O 4.71833 10.8154 2.79288 -1.2 1 0.00228616 0.00394474 0.0017158 0.00477562 0.00225412 0.00825094 0.00229665 0.0214537 0.00206947 0.00890643 0.00204011 0.0284382 0.00356821 0.0158661 0.00412691 0.0305107 0.00531003 0.0185067 0.00564027 0.0503525
65 1 Mg -1.0438 9.53931 4.4844 1.2 1 0.00291329 0.00509801 0.00172709 0.00475839 0.00313856 0.00692333 0.00269049 0.0210911 0.00291068 0.00845246 0.00279369 0.0287711 0.00396164 0.0165288 0.00477498 0.0302938 0.00651877 0.0201859 0.00728697 0.0507001
66 2 Si -2.8604 12.2234 4.4844 2.4 1 0.00303163 0.00462041 0.00194587 0.00471321 0.00279482 0.00783568 0.00306247 0.0220778 0.00286706 0.0085417 0.00229674 0.0285486 0.00423461 0.0166099 0.00460086 0.0305118 0.00581309 0.0195417 0.00673791 0.0524833
67 3 O -2.91391 10.6102 4.4844 -1.2 1 0.00309881 0.00488372 0.00192398 0.00470508 0.00300054 0.00721368 0.00324148 0.020792 0.00267636 0.00793017 0.00215174 0.0288539 0.00436521 0.0159084 0.0045016 0.0310363 0.00596898 0.0198732 0.00697241 0.0512429
68 3 O 0.7596 13.1975 4.4844 -1.2 1 0.00332728 0.00461901 0.00206815 0.00512532 0.00290976 0.00875608 0.00277754 0.0223724 0.00283624 0.00840386 0.00280166 0.0290605 0.00416415 0.016486 0.00438188 0.0306634 0.00602091 0.0198245 0.00661786 0.0523333
69 3 O -2.12001 12.9296 3.18632 -1.2 1 0.00310383 0.00419653 0.00179751 0.00432393 0.00254607 0.00777993 0.00237094 0.0220224 0.002473 0.00848196 0.00223436 0.028156 0.00373935 0.0162322 0.00469739 0.0306444 0.00522265 0.0185731 0.00546514 0.0513471
70 3 O -2.16532 12.9296 5.78248 -1.2 1 0.00403027 0.00490273 0.00188021 0.00484975 0.00289193 0.0069877 0.00236882 0.0222103 0.00245211 0.00850351 0.00270001 0.0280167 0.00408249 0.0171116 0.00512276 0.0316436 0.00636637 0.0211739 0.0068036 0.0542245
71 1 Mg 1.29891 11.8725 2.9896 1.2 1 0.00238103 0.00388721 0.00189935 0.00510118 0.00249975 0.0081658 0.00286224 0.021118 0.0025085 0.00855518 0.00203107 0.0292499 0.0034483 0.0161976 0.00360555 0.0302373 0.0047351 0.0180377 0.00498339 0.050223
72 1 Mg 4.10033 11.8312 4.4844 1.2 1 0.00282438 0.00446831 0.00218847 0.00465224 0.00269311 0.00745433 0.00275395 0.021543 0.00253143 0.00819295 0.00265107 0.0291488 0.00391359 0.0173466 0.0051041 0.0308623 0.00660343 0.0196678 0.00654943 0.0521442
73 2 Si 2.27333 13.896 4.4844 2.4 1 0.00325431 0.00407859 0.00185366 0.00521235 0.0030698 0.00804446 0.00324404 0.022048 0.00245281 0.00829762 0.00285357 0.0285467 0.00388289 0.0168071 0.00450354 0.0305001 0.00562656 0.0192351 0.00620806 0.0531686
74 3 O 2.28634 15.5093 4.4844 -1.2 1 0.00347806 0.00430289 0.0018681 0.00483489 0.0030988 0.00740097 0.00287565 0.021356 0.00246754 0.00783362 0.00228603 0.0291154 0.00364182 0.0161823 0.00418844 0.030945 0.00577539 0.0189167 0.00635629 0.0528142
75 3 O -4.34533 12.922 4.4844 -1.2 1 0.00300428 0.00462135 0.00213005 0.00482469 0.00286771 0.00851733 0.00297729 0.0221219 0.00280306 0.00856631 0.00248239 0.0291755 0.0040973 0.0165217 0.00497582 0.0308339 0.00641158 0.019773 0.00720589 0.0524175
76 3 O 2.98455 13.1899 3.18632 -1.2 1 0.00288453 0.00398855 0.00178946 0.00470525 0.00262274 0.00802871 0.00225525 0.0219116 0.00220046 0.00864519 0.00228822 0.0282314 0.00348153 0.0161222 0.00437677 0.0304582 0.00561278 0.0185545 0.00553012 0.051199
77 1 Mg 1.34779 11.8725 0 1.2 1 0.00124733 0.00322616 0.00119629 0.00490934 0.00143542 0.00900377 0.00168168 0.021299 0.00122164 0.00904774 0.00198143 0.0291006 0.00283053 0.014875 0.00296388 0.0302588 0.00316939 0.0173144 0.00322726 0.0482518
78 3 O 2.93934 13.1899 5.78248 -1.2 1 0.00318979 0.00486906 0.00192909 0.00519833 0.0029088 0.00715939 0.00274995 0.0224018 0.00259878 0.00860475 0.00307195 0.0279803 0.00449694 0.0169741 0.00499783 0.0317527 0.0061943 0.0215369 0.00663699 0.0544913
79 1 Mg -1.50344 11.9138 1.4948 1.2 1 0.00150587 0.00377773 0.00141373 0.00466613 0.00144605 0.00834183 0.00188896 0.021686 0.00245725 0.00853149 0.00147093 0.0288244 0.00359098 0.0161033 0.00343019 0.0299033 0.00350881 0.0175469 0.00376572 0.0493329
80 2 Si 0.326006 9.84894 1.4948 2.4 1 0.000433293 0.00378213 0.00126488 0.0051465 0.00193498 0.00828416 0.00215904 0.0211329 0.00212673 0.00842126 0.00156802 0.0286011 0.0031148 0.0157203 0.00372774 0.0290115 0.00383027 0.0179071 0.00358355 0.0487353
81 3 O 0.317364 8.23571 1.4948 -1.2 1 0.000986617 0.00370729 0.00121209 0.00462311 0.00190411 0.00774113 0.00224741 0.0203263 0.0026602 0.00801423 0.00177078 0.0288111 0.00357787 0.0157057 0.00389458 0.0287577 0.00450169 0.0178557 0.00433113 0.0478153
82 3 O 6.94307 10.823 1.4948 -1.2 1 0.00139982 0.00394072 0.00153805 0.00457438 0.00195901 0.00779124 0.00264359 0.0218023 0.00234235 0.00838379 0.00146384 0.0295414 0.00303974 0.0158595 0.00340487 0.0300949 0.00379747 0.0180065 0.00417226 0.0493624
83 3 O -0.343122 10.5551 0.196716 -1.2 1 0.000708119 0.00333804 0.00106557 0.00481693 0.00147589 0.00869978 0.00198938 0.0213804 0.00177634 0.00894887 0.00188391 0.0282492 0.00331258 0.0153313 0.00422492 0.0295349 0.00351103 0.0174974 0.00351902 0.0485661
84 3 O -0.385966 10.5551 2.79288 -1.2 1 0.00259525 0.00420158 0.00139892 0.00471651 0.00255296 0.00814788 0.00230565 0.0216413 0.00214616 0.00912259 0.00239001 0.0278642 0.00393263 0.0160387 0.00431766 0.0301589 0.00519922 0.0188433 0.00507217 0.0502511
85 1 Mg 6.49448 14.247 0 1.2 1 0.00133056 0.0036078 0.00159824 0.00474109 0.00118753 0.00929158 0.00140443 0.0213207 0.00112415 0.00856099 0.00140896 0.0290385 0.00174952 0.0154257 0.00243911 0.0301575 0.00312752 0.0165632 0.00298796 0.048276
86 1 Mg 3.74457 18.9547 1.4948 1.2 1 0.00243275 0.00334056 0.0014948 0.00387288 0.00196046 0.0085604 0.00148274 0.0222888 0.00190847 0.00815696 0.00230439 0.0280057 0.00244158 0.0165138 0.0034922 0.0288387 0.00366028 0.0163991 0.00333509 0.0500494
87 2 Si 5.55495 16.2705 1.4948 2.4 1 0.00250386 0.00319096 0.00144104 0.00441955 0.00190461 0.00894613 0.00152152 0.0215558 0.00130316 0.0079618 0.00136962 0.028802 0.00230262 0.0163297 0.0028747 0.0289185 0.00370064 0.0159848 0.00364382 0.0497182
88 3 O 5.6115 17.8838 1.4948 -1.2 1 0.00256977 0.00308045 0.00171039 0.00406109 0.00186504 0.00915297 0.00165115 0.0217503 0.00174658 0.0079307 0.0014053 0.0290274 0.00202204 0.0164859 0.00276951 0.029017 0.00342778 0.0157828 0.00347143 0.049681
89 3 O 1.93416 15.2965 1.4948 -1.2 1 0.00227513 0.00339215 0.00157167 0.00470122 0.00196617 0.00849329 0.00210111 0.0219654 0.00175731 0.00810145 0.00151886 0.0292838 0.00207004 0.0162357 0.00291851 0.0298412 0.00384772 0.0165739 0.00342203 0.0501306
90 3 O 4.85636 15.5644 0.196716 -1.2 1 0.0018568 0.00279796 0.00140752 0.00456047 0.00135227 0.00923242 0.00152343 0.0215157 0.000849811 0.00824853 0.00169778 0.0283582 0.00259788 0.0160514 0.00347583 0.0293617 0.00327557 0.0158718 0.00312589 0.0489974
91 1 Mg 6.44662 14.247 2.9896 1.2 1 0.00196975 0.00392971 0.00161566 0.0045558 0.00255879 0.00858692 0.00294317 0.0209922 0.00261642 0.00877445 0.00189085 0.0296049 0.00320151 0.0164533 0.00313865 0.0298221 0.00407842 0.0175895 0.00472644 0.0503206
92 3 O 4.81537 15.5644 2.79288 -1.2 1 0.00278975 0.00342745 0.00161047 0.004366 0.00246194 0.00885719 0.00183811 0.0220879 0.00162865 0.00866121 0.00180852 0.0281997 0.0028182 0.016511 0.00365584 0.0296763 0.00482625 0.01734 0.00488569 0.0508993
93 1 Mg -0.948271 14.2883 4.4844 1.2 1 0.00369079 0.00431604 0.00171976 0.00450137 0.00287218 0.00777528 0.00263642 0.0217622 0.0027275 0.00840689 0.00279159 0.0288763 0.0034344 0.0170169 0.00511514 0.0308147 0.00591428 0.0191448 0.00645277 0.0525651
94 2 Si -2.75928 16.9724 4.4844 2.4 1 0.00328586 0.00378044 0.00185141 0.00456697 0.00295148 0.0078063 0.00289205 0.0222922 0.00266762 0.00797397 0.00253958 0.0284021 0.00346405 0.0172522 0.0045072 0.0299094 0.0051484 0.0184613 0.00594591 0.0536113
95 3 O -2.81617 15.3592 4.4844 -1.2 1 0.00367726 0.00413783 0.00208589 0.00444575 0.00315791 0.00753928 0.00296112 0.0212961 0.00264568 0.00778321 0.00228058 0.0290824 0.00368107 0.0162704 0.00435656 0.0307288 0.00580735 0.0185954 0.00639723 0.0525164
96 3 O 0.862762 17.9465 4.4844 -1.2 1 0.00335068 0.00404947 0.00166019 0.00469821 0.00322785 0.00842221 0.00271609 0.0226283 0.00262665 0.00792182 0.00264484 0.0290526 0.00367528 0.0170999 0.00447266 0.029678 0.00560786 0.0187412 0.00611096 0.0531273
97 3 O -2.0185 17.6786 3.18632 -1.2 1 0.00325253 0.00362738 0.001868 0.00392414 0.00284845 0.00754994 0.00248987 0.0224523 0.002282 0.00793712 0.0019994 0.027987 0.0034563 0.016564 0.00446829 0.029978 0.0047918 0.0175875 0.00513608 0.0519402
98 3 O -2.06164 17.6786 5.78248 -1.2 1 0.00381559 0.00439707 0.0016702 0.00467876 0.00307788 0.0067775 0.00259975 0.0225573 0.00247505 0.00791575 0.00280316 0.0282235 0.00355129 0.0173952 0.0050966 0.0311926 0.0059446 0.0203812 0.00625203 0.055242
99 1 Mg 1.39817 16.6215 2.9896 1.2 1 0.0031175 0.00346116 0.00180988 0.00452605 0.00278453 0.00842 0.00270004 0.0214198 0.00249305 0.00806387 0.00193822 0.0290433 0.00265341 0.0166402 0.00338238 0.0296312 0.00424187 0.0168347 0.00445266 0.0508368
100 1 Mg 4.20062 16.5802 4.4844 1.2 1 0.00310584 0.00376993 0.00190275 0.00447015 0.00277936 0.00771333 0.00247537 0.0219602 0.0029828 0.00784035 0.00284546 0.0288426 0.00358318 0.0175057 0.00561677 0.0302693 0.0063574 0.0187181 0.00617351 0.0528699
101 2 Si 2.37796 18.645 4.4844 2.4 1 0.00303884 0.00367432 0.00157406 0.00446575 0.0030802 0.00797721 0.0028507 0.0225527 0.00262678 0.00805248 0.00278352 0.028333 0.00356723 0.0173583 0.00456057 0.0295177 0.00528908 0.0182865 0.00575981 0.0538662
102 3 O 2.39434 20.2583 4.4844 -1.2 1 0.00307353 0.00396966 0.00152845 0.00442473 0.00310383 0.00697317 0.00286086 0.0217267 0.00264144 0.00751305 0.00215405 0.0291871 0.00353317 0.0169879 0.00419951 0.0299528 0.00552651 0.0182231 0.00640286 0.0533924
103 3 O -4.24274 17.671 4.4844 -1.2 1 0.00283393 0.00420187 0.00191082 0.00449154 0.00287196 0.00854091 0.00279454 0.0225878 0.00282175 0.00793774 0.00242097 0.0288181 0.00352037 0.0168251 0.00462968 0.0300577 0.00584761 0.019034 0.00650447 0.0531846
104 3 O 3.08659 17.9389 3.18632 -1.2 1 0.00318606 0.00320996 0.00166763 0.00397513 0.00278602 0.00791553 0.00205223 0.0223046 0.00222286 0.00811278 0.00231368 0.027943 0.0031478 0.0165284 0.00443943 0.0297132 0.00539803 0.0175621 0.00547155 0.0518713
105 1 Mg 1.44478 16.6215 0 1.2 1 0.0024718 0.00301652 0.00137345 0.00439782 0.00144142 0.00915139 0.00133474 0.021542 0.00123079 0.00823643 0.00160024 0.0288522 0.00225121 0.015699 0.00235424 0.0294119 0.00293028 0.0160928 0.00303533 0.048785
106 3 O 3.0436 17.9389 5.78248 -1.2 1 0.00309968 0.00430007 0.0016165 0.00499365 0.00292242 0.00706466 0.00245769 0.0226897 0.00227401 0.00823891 0.00305134 0.0281089 0.00374922 0.0173527 0.00490449 0.0311623 0.00591497 0.020798 0.00616503 0.0555636
107 1 Mg -1.40524 16.6628 1.4948 1.2 1 0.00213852 0.00333976 0.00148943 0.00428697 0.00181632 0.00867214 0.00192711 0.0222983 0.00186296 0.00818598 0.00170414 0.0284502 0.00300267 0.0166663 0.00299451 0.0293823 0.00295584 0.016609 0.00325829 0.0497753
108 2 Si 0.420358 14.5979 1.4948 2.4 1 0.0020692 0.00324782 0.00160011 0.00495606 0.00207269 0.0091734 0.00193295 0.0214603 0.00151908 0.00821137 0.00141101 0.0285543 0.00287703 0.016442 0.00351822 0.0288934 0.00348503 0.0164935 0.00349612 0.0496142
109 3 O 0.408732 12.9847 1.4948 -1.2 1 0.00166633 0.00337093 0.00140344 0.00493828 0.00193734 0.00916343 0.00161778 0.0211903 0.00214086 0.00843578 0.0013774 0.0292164 0.0031743 0.0159833 0.00308423 0.0299737 0.00323583 0.0169758 0.00363692 0.0494154
110 3 O 7.03923 15.572 1.4948 -1.2 1 0.00214738 0.00350236 0.00159056 0.00441417 0.00206945 0.00837274 0.00238451 0.0218106 0.00212965 0.00808483 0.00151849 0.0294101 0.00253649 0.0163507 0.00290433 0.0297377 0.00340338 0.0167158 0.00379483 0.0498203
111 3 O -0.248332 15.3041 0.196716 -1.2 1 0.00209979 0.00292222 0.00139811 0.00455338 0.00123339 0.00920785 0.00189689 0.021395 0.00121787 0.00837133 0.00176828 0.0281824 0.00287093 0.0157943 0.00383831 0.029296 0.00306237 0.0161091 0.00325999 0.0488762
112 3 O -0.289436 15.3041 2.79288 -1.2 1 0.00332641 0.00382605 0.00155223 0.00445722 0.0026201 0.00873223 0.00204658 0.0221191 0.00185071 0.00877822 0.00199981 0.0277282 0.00314892 0.0166699 0.00382896 0.0297921 0.00449997 0.017668 0.00458177 0.0509962
113 1 Mg 6.59566 18.996 0 1.2 1 0.00144261 0.00325276 0.001669 0.00411367 0.00109798 0.00859329 0.00118681 0.0220835 0.00107714 0.00791891 0.00137142 0.0284892 0.00194968 0.0163325 0.00232946 0.028669 0.00292462 0.0159368 0.00292203 0.0487255
114 1 Mg 3.85574 23.7037 1.4948 1.2 1 0.00182199 0.0027611 0.00138994 0.00397833 0.00190608 0.00731396 0.00132296 0.0232936 0.00183249 0.00773457 0.00228173 0.0275903 0.00246444 0.0176195 0.00380588 0.0283998 0.00326983 0.0171664 0.00353164 0.0509075
115 2 Si 5.66125 21.0195 1.4948 2.4 1 0.00225514 0.00275423 0.0013795 0.00379709 0.00210489 0.00807548 0.00165997 0.0220413 0.00138449 0.00759141 0.00154042 0.0282912 0.00248409 0.0173749 0.0027636 0.0279386 0.00356027 0.0158128 0.00392649 0.0504509
116 3 O 5.72074 22.6328 1.4948 -1.2 1 0.00208687 0.0028095 0.00178959 0.00386353 0.00198962 0.00799893 0.00161729 0.0224561 0.00182983 0.00739064 0.00137086 0.0283182 0.00212992 0.0172862 0.00295537 0.028363 0.00323893 0.016248 0.00364002 0.0503332
117 3 O 2.03867 20.0455 1.4948 -1.2 1 0.00224627 0.0032553 0.00154454 0.00414697 0.0020115 0.0077233 0.00220578 0.0223427 0.00214557 0.00753743 0.00157572 0.0288046 0.00214341 0.0171872 0.00254738 0.028924 0.00360859 0.0160642 0.00347976 0.0505563
118 3 O 4.96004 20.3134 0.196716 -1.2 1 0.00194508 0.00248042 0.00162228 0.00386533 0.00138707 0.00821747 0.00118342 0.0218755 0.00100235 0.00763236 0.00154881 0.0280481 0.00263289 0.0165945 0.00382837 0.0285916 0.00312031 0.0152461 0.00295342 0.0494751
119 1 Mg 6.55057 18.996 2.9896 1.2 1 0.00215436 0.00364761 0.00152297 0.00396963 0.00264184 0.00812791 0.00285623 0.0214563 0.00241453 0.00806756 0.00188455 0.0293564 0.00286873 0.0169342 0.00317168 0.0289995 0.00399438 0.0170019 0.00463909 0.0510096