ITEM: TIMESTEP
2700
ITEM: NUMBER OF ATOMS
10500
ITEM: BOX BOUNDS xy xz yz pp pp pp
0	15.2974	5.099
0	118.725	0
0	89.688	0
ITEM: ATOMS id type element xu yu zu q Q_1 Q_2 Q_3 Q_4 Q_5 Q_6 Q_7 Q_8 Q_9 Q_10 Q_11 Q_12 Q_13 Q_14 Q_15 Q_16 Q_17 Q_18 Q_19 Q_20 Q_21
1 1 Mg 6.2404 -6.37941e-06 0 1.2 1 0.00100607 0.00411518 0.00113595 0.00498039 0.00133198 0.00567689 0.00219495 0.0162142 0.00203994 0.00571371 0.00220638 0.0219775 0.00256881 0.0134906 0.00373446 0.0207074 0.00420104 0.0142111 0.00418307 0.04065
2 1 Mg 3.46349 4.70768 1.4948 1.2 1 0.00115183 0.00354329 0.00157509 0.00453372 0.00202516 0.00627769 0.00373353 0.0187723 0.002841 0.00685106 0.00290051 0.0259113 0.0034025 0.0139956 0.00457201 0.0252491 0.00506897 0.0170496 0.00572835 0.0437139
3 2 Si 5.2885 2.02354 1.4948 2.4 1 0.000378468 0.00347794 0.00195528 0.00473133 0.00181088 0.00586617 0.00268971 0.0171399 0.00229067 0.0059855 0.00212037 0.0232542 0.00279292 0.013416 0.00365484 0.0216831 0.00381469 0.0153442 0.00438367 0.0410703
4 3 O 5.33628 3.63678 1.4948 -1.2 1 0.000591845 0.00313291 0.00155784 0.00481104 0.002169 0.00650031 0.00312694 0.0177853 0.00219298 0.00654548 0.00191292 0.0252109 0.00253618 0.0136092 0.00432142 0.0239353 0.00499508 0.0164543 0.00595361 0.0424615
5 3 O 1.67294 1.04952 1.4948 -1.2 1 0.00134151 0.00332863 0.00205355 0.00411463 0.001447 0.00560007 0.00256776 0.01695 0.00238686 0.00606189 0.00212588 0.0229993 0.00262443 0.012744 0.0034092 0.0221204 0.00460769 0.0155283 0.00468879 0.0403521
6 3 O 4.59532 1.31737 0.196716 -1.2 1 0.000905217 0.00297696 0.00192543 0.00440592 0.00203609 0.00574153 0.002541 0.0172182 0.00258947 0.00617049 0.00208548 0.0225392 0.00318276 0.0125725 0.00434355 0.021615 0.00425766 0.0148559 0.00447106 0.0409067
7 1 Mg 6.18956 -6.37941e-06 2.9896 1.2 1 0.000479435 0.00449392 0.00145807 0.00435382 0.00132356 0.00565342 0.00262752 0.016113 0.00254712 0.00548619 0.00183341 0.0225436 0.00268252 0.0131193 0.00373942 0.0209347 0.00451157 0.0145462 0.00496109 0.038864
8 3 O 4.55118 1.31737 2.79288 -1.2 1 0.00063725 0.00434862 0.00165881 0.00434817 0.00192117 0.00577551 0.0028069 0.0166271 0.00241881 0.00665159 0.00234524 0.0218565 0.00337556 0.0120645 0.00344242 0.0216059 0.00487622 0.0154141 0.00551723 0.0395233
9 1 Mg -1.20682 0.0413099 4.4844 1.2 1 0.00102711 0.00295487 0.00207462 0.00454307 0.001331 0.00556087 0.0021693 0.0161574 0.00244051 0.0055887 0.00217119 0.0226656 0.00285396 0.0114455 0.0036281 0.0209929 0.00530665 0.0155651 0.00534376 0.0383697
10 2 Si -3.0337 2.72544 4.4844 2.4 1 0.00108743 0.00325981 0.00175691 0.00482116 0.00216591 0.00615688 0.00348096 0.0163877 0.00311372 0.00588307 0.0024554 0.0240622 0.00326788 0.012929 0.00413835 0.0224474 0.005571 0.0175065 0.00631276 0.0389079
11 3 O -3.08099 1.11221 4.4844 -1.2 1 0.00128369 0.00367725 0.00187399 0.00425421 0.00115391 0.00549559 0.00247569 0.015787 0.00293217 0.00535935 0.00214815 0.0222304 0.00306547 0.0110499 0.00367738 0.0211969 0.00508944 0.0160621 0.00558851 0.0375795
12 3 O 0.582463 3.69946 4.4844 -1.2 1 0.00179199 0.00476157 0.00187679 0.00434867 0.00252558 0.00690783 0.00358299 0.0171028 0.00325209 0.00638543 0.00309768 0.0248192 0.00410141 0.0127013 0.00435975 0.0238258 0.00708801 0.0184433 0.008339 0.040928
13 3 O -2.29524 3.43162 3.18632 -1.2 1 0.000781734 0.00295669 0.00262809 0.00460659 0.00213753 0.00601991 0.0029929 0.0176609 0.00314117 0.00669883 0.00258746 0.0244575 0.00334934 0.0129587 0.00474182 0.0240716 0.00616672 0.0176727 0.00663735 0.0414496
14 3 O -2.34216 3.43162 5.78248 -1.2 1 0.00217794 0.00367086 0.000963937 0.00471183 0.00243752 0.00613614 0.00327565 0.0166669 0.0029753 0.00681371 0.00265912 0.0233975 0.00434583 0.0122689 0.00414537 0.0229385 0.00647228 0.0192295 0.00758033 0.0392899
15 1 Mg 1.12778 2.37449 2.9896 1.2 1 0.00111283 0.0036772 0.00229719 0.00447096 0.00219176 0.00603398 0.00324828 0.0167286 0.00259264 0.00593118 0.00229683 0.0236988 0.00326021 0.0128714 0.00345332 0.0218627 0.00476566 0.0163814 0.00540339 0.0405211
16 1 Mg 3.92855 2.33318 4.4844 1.2 1 0.000942555 0.00435068 0.00153585 0.00421852 0.00163121 0.00581263 0.00369002 0.0165619 0.00306909 0.00591138 0.00296502 0.0229359 0.00363222 0.0129686 0.00513728 0.0218508 0.00638542 0.0169605 0.00696431 0.0394561
17 2 Si 2.09341 4.39804 4.4844 2.4 1 0.00182226 0.00443999 0.00165377 0.00417316 0.00281013 0.00633188 0.00365978 0.0179987 0.00324924 0.00664745 0.00308774 0.0246172 0.00435037 0.0139283 0.00425873 0.0242032 0.00686371 0.0187577 0.00849003 0.0424493
18 3 O 2.09991 6.01128 4.4844 -1.2 1 0.0027464 0.00458607 0.00148834 0.00408005 0.00304237 0.00692202 0.00337155 0.0188272 0.00255707 0.00725091 0.00286623 0.0267793 0.00394425 0.0145815 0.00461986 0.0269295 0.00694966 0.0196789 0.00801082 0.0446066
19 3 O -4.52137 3.42402 4.4844 -1.2 1 0.00106862 0.00364589 0.00184855 0.0046618 0.00238789 0.00720629 0.00378381 0.016608 0.00313062 0.00600465 0.00321528 0.0237478 0.00383837 0.012652 0.00428874 0.0227799 0.00651703 0.017723 0.00743884 0.0402523
20 3 O 2.80834 3.69187 3.18632 -1.2 1 0.00138903 0.00399963 0.0014747 0.00377968 0.00207831 0.00593356 0.00335413 0.0172358 0.00284105 0.00628876 0.00276407 0.0244079 0.00366319 0.0130452 0.00480698 0.0236755 0.00569503 0.0172358 0.00646804 0.0421762
21 1 Mg 1.17857 2.37449 0 1.2 1 0.00157769 0.00345749 0.00201572 0.00421951 0.00148004 0.00552327 0.00250856 0.0171701 0.00238848 0.00661855 0.00264077 0.0234622 0.00284908 0.0131211 0.0035182 0.0219929 0.00434511 0.0148674 0.00459033 0.0406315
22 3 O 2.76143 3.69187 5.78248 -1.2 1 0.00187765 0.00444761 0.00146389 0.0041055 0.00206493 0.00586946 0.00291283 0.0172057 0.00317504 0.0067998 0.00279739 0.0232693 0.00436094 0.0128165 0.00523667 0.0227423 0.00667495 0.0185333 0.00750642 0.0398606
23 1 Mg -1.67381 2.41581 1.4948 1.2 1 0.00108434 0.0027503 0.00288124 0.00477054 0.00143402 0.00593783 0.00266223 0.0166682 0.00271814 0.00624839 0.00192409 0.0242075 0.00249992 0.013943 0.00288582 0.0223736 0.00437549 0.0159851 0.00481726 0.0415026
24 2 Si 0.16286 0.350945 1.4948 2.4 1 0.00148737 0.0025997 0.00296964 0.00433131 0.00136076 0.00627747 0.0030212 0.0164681 0.00214092 0.00525864 0.00185267 0.0232179 0.0024611 0.0133711 0.00323179 0.0210646 0.00465687 0.0146514 0.00419754 0.0405593
25 3 O 0.15972 -1.26229 1.4948 -1.2 1 0.00159996 0.00259872 0.00321429 0.00442253 0.00175603 0.00596667 0.00276164 0.016468 0.00217352 0.00542436 0.00231261 0.0227842 0.0027192 0.0137124 0.00316416 0.0219442 0.0042452 0.0145029 0.00385578 0.0407714
26 3 O 6.77654 1.32496 1.4948 -1.2 1 0.00102483 0.00390674 0.00159856 0.00469105 0.00140742 0.00603953 0.00254724 0.0168559 0.00239729 0.0054349 0.00164562 0.0237705 0.00278582 0.0134611 0.00371441 0.0220137 0.00480863 0.0152113 0.00449736 0.0407139
27 3 O -0.508028 1.05712 0.196716 -1.2 1 0.00127492 0.00265123 0.00346541 0.00417973 0.00136724 0.00557317 0.00260959 0.0170175 0.00168366 0.00653745 0.00250367 0.0222046 0.00275048 0.0127859 0.00326944 0.0213092 0.0042699 0.0150241 0.00441962 0.0400876
28 3 O -0.552171 1.05712 2.79288 -1.2 1 0.00050785 0.00238707 0.00321949 0.00449235 0.00145274 0.0061687 0.00246489 0.0161781 0.00254002 0.00602602 0.00175018 0.0228989 0.00298643 0.0116468 0.00384062 0.0216612 0.00528334 0.0156646 0.00482127 0.0392259
29 1 Mg 6.31713 4.74899 0 1.2 1 0.000718514 0.00272158 0.00176256 0.00480282 0.00223693 0.00622221 0.00338955 0.018144 0.00277155 0.0069439 0.00215425 0.0254279 0.00284438 0.0135688 0.00415395 0.0245887 0.00459079 0.016431 0.00577398 0.0426921
30 1 Mg 3.54847 9.45668 1.4948 1.2 1 0.00123892 0.00343851 0.00203533 0.00500389 0.00200426 0.00771473 0.00321417 0.0214426 0.00182548 0.00834425 0.00246118 0.0285408 0.00312235 0.0156243 0.00404702 0.0292191 0.00418206 0.0185147 0.0040084 0.0482709
31 2 Si 5.36879 6.77254 1.4948 2.4 1 0.00116294 0.00325658 0.00191135 0.00530992 0.00268626 0.00700997 0.00392352 0.019612 0.00264806 0.00769564 0.00260936 0.0277197 0.0031678 0.015253 0.00413866 0.0268968 0.0046354 0.0174722 0.00540885 0.0460977
32 3 O 5.41937 8.38578 1.4948 -1.2 1 0.00110619 0.00330315 0.00164514 0.00522243 0.00221217 0.00781416 0.00324694 0.0209748 0.00227995 0.00833612 0.00251509 0.0290517 0.0023028 0.0156106 0.00311311 0.0290975 0.00449226 0.0178227 0.00495702 0.047524
33 3 O 1.75158 5.79852 1.4948 -1.2 1 0.00122914 0.00376143 0.00153904 0.00413529 0.00246602 0.00619637 0.0034936 0.0195517 0.00275813 0.00728907 0.00272255 0.0279637 0.00295183 0.015389 0.00350217 0.0268055 0.00517664 0.0177898 0.00564142 0.0452852
34 3 O 4.67421 6.06637 0.196716 -1.2 1 0.000757974 0.00310248 0.00147419 0.00496961 0.00189736 0.0069979 0.00307958 0.0198576 0.00236901 0.00808963 0.00223747 0.0264106 0.0034631 0.0142311 0.00423709 0.0266507 0.00457609 0.0169449 0.00543344 0.0449287
35 1 Mg 6.26654 4.74899 2.9896 1.2 1 0.00142241 0.0034281 0.00193045 0.00500871 0.00270087 0.0069087 0.0038951 0.0177406 0.00372041 0.00702544 0.00220202 0.0257997 0.00385686 0.0143738 0.00526423 0.0246281 0.00611941 0.0177513 0.00707871 0.0426934
36 3 O 4.63043 6.06637 2.79288 -1.2 1 0.00203415 0.00369097 0.00161147 0.0049667 0.00249017 0.00703725 0.00351511 0.0192249 0.00331078 0.00782606 0.00249328 0.0261905 0.00393732 0.0146621 0.00473644 0.0269609 0.0059601 0.0183694 0.00720106 0.0446469
37 1 Mg -1.12976 4.79031 4.4844 1.2 1 0.00229817 0.00430523 0.0015075 0.0046452 0.00232752 0.00620744 0.0033741 0.0174906 0.00337427 0.00682821 0.00310335 0.0253692 0.00415592 0.0142133 0.00454279 0.0249059 0.00768611 0.0190583 0.00789364 0.0427604
38 2 Si -2.9517 7.47444 4.4844 2.4 1 0.00277058 0.00419131 0.00129372 0.00518479 0.00289626 0.00677403 0.00385029 0.0201789 0.00319453 0.00785654 0.00293366 0.0273269 0.00440533 0.015889 0.00543508 0.0276164 0.00704801 0.0195929 0.00801541 0.0465157
39 3 O -3.00198 5.86121 4.4844 -1.2 1 0.00220871 0.00410371 0.00116409 0.00488374 0.00323836 0.00643769 0.0043033 0.0184535 0.00343776 0.00743165 0.00291793 0.0256916 0.00435913 0.0140909 0.00502433 0.0264343 0.00704329 0.0196298 0.00834681 0.0440907
40 3 O 0.666315 8.44846 4.4844 -1.2 1 0.00306146 0.00480786 0.00118791 0.00501409 0.0028711 0.00773201 0.00311814 0.0208627 0.00298273 0.0081278 0.00302762 0.0281774 0.00464738 0.0158701 0.00436771 0.0287147 0.0064376 0.0202694 0.00787063 0.0473209
41 3 O -2.21213 8.18062 3.18632 -1.2 1 0.00229991 0.00432113 0.00150731 0.00459099 0.00256738 0.00663462 0.00291164 0.0207346 0.00267929 0.00811459 0.00278719 0.0276081 0.00406901 0.0157745 0.00503064 0.0287104 0.00599358 0.0191399 0.00692006 0.0477074
42 3 O -2.25864 8.18062 5.78248 -1.2 1 0.00338179 0.00447058 0.00150931 0.00481873 0.0028075 0.00619578 0.00306587 0.0202189 0.0023733 0.0084137 0.00347208 0.0268049 0.00451563 0.0164253 0.00546009 0.0287388 0.00726632 0.0210211 0.00811623 0.0475134
43 1 Mg 1.20893 7.12349 2.9896 1.2 1 0.00184414 0.00420457 0.00167311 0.00438613 0.00286931 0.00696656 0.0039063 0.0195732 0.00283901 0.00812066 0.00263495 0.0279028 0.00350134 0.0157242 0.00367879 0.0274415 0.00558904 0.0186064 0.00634681 0.0460735
44 1 Mg 4.00982 7.08218 4.4844 1.2 1 0.00286389 0.00411439 0.00176335 0.0048746 0.00273178 0.00695076 0.00386142 0.0197468 0.00346807 0.00765844 0.00332746 0.0270844 0.00410108 0.0163684 0.00575403 0.0277764 0.00745739 0.0196483 0.00860385 0.0460349
45 2 Si 2.17861 9.14704 4.4844 2.4 1 0.00279853 0.00430725 0.00179378 0.00491062 0.0030138 0.0076584 0.00367786 0.0209724 0.0027569 0.00842971 0.00300169 0.0280929 0.00459698 0.0165966 0.00466481 0.0292764 0.00595832 0.0202183 0.00717938 0.0491602
46 3 O 2.18828 10.7603 4.4844 -1.2 1 0.00331952 0.00428088 0.00198527 0.00466149 0.00269627 0.00740688 0.00307038 0.0208617 0.00251033 0.00842721 0.00206624 0.0287196 0.00419413 0.0159093 0.00454614 0.0305034 0.00600102 0.0204867 0.00694102 0.0496851
47 3 O -4.43805 8.17302 4.4844 -1.2 1 0.00253146 0.00442759 0.00184895 0.0050297 0.00251181 0.00796925 0.00330065 0.0205677 0.00320541 0.0082582 0.00305279 0.0282266 0.00471535 0.0160701 0.00482366 0.0287641 0.00678134 0.019975 0.00871251 0.0471584
48 3 O 2.89193 8.44087 3.18632 -1.2 1 0.00259578 0.00390529 0.00166921 0.00445962 0.0025887 0.00708997 0.00341138 0.0204024 0.00285792 0.00857171 0.00277417 0.0276286 0.00384292 0.015831 0.00461872 0.0287936 0.00591917 0.0191796 0.00610558 0.0476316
49 1 Mg 1.25915 7.12349 0 1.2 1 0.000671814 0.00326979 0.00143827 0.00439164 0.0018194 0.00728898 0.00293352 0.020308 0.00271133 0.0083131 0.00257095 0.0277797 0.00351324 0.0143299 0.00362728 0.0276211 0.00447661 0.017679 0.00432701 0.0456724
50 3 O 2.84547 8.44087 5.78248 -1.2 1 0.00349798 0.0046928 0.00177696 0.00466273 0.00263273 0.00700553 0.00338648 0.0205153 0.00308413 0.00878778 0.0032161 0.0268657 0.0054188 0.016558 0.00521256 0.0290854 0.00625479 0.0215918 0.00763946 0.0480689
51 1 Mg -1.59284 7.16481 1.4948 1.2 1 0.000877902 0.0034806 0.00128698 0.00474563 0.00184598 0.00655033 0.00269875 0.020021 0.00284499 0.00781522 0.00173716 0.0278349 0.00336716 0.0155497 0.00369818 0.0272195 0.00471674 0.0179225 0.00568575 0.0462418
52 2 Si 0.240329 5.09994 1.4948 2.4 1 0.0009213 0.00372406 0.00183568 0.00415488 0.00190023 0.0068598 0.0032301 0.0189447 0.00298274 0.00733341 0.0022902 0.0261807 0.00288252 0.0145036 0.00406745 0.0248918 0.00508265 0.0171344 0.0051747 0.0443576
53 3 O 0.234538 3.48671 1.4948 -1.2 1 0.00120087 0.00364892 0.00270799 0.00428849 0.00190414 0.00645515 0.00276936 0.0178273 0.0032535 0.00687909 0.00231928 0.0247311 0.00325221 0.0134098 0.00399996 0.0241014 0.00556926 0.0160355 0.00527485 0.0422952
54 3 O 6.85564 6.07396 1.4948 -1.2 1 0.00111484 0.0030837 0.00223039 0.00494078 0.002488 0.0062795 0.00309202 0.019917 0.00300936 0.007489 0.00207235 0.0276001 0.0034662 0.0145232 0.00489021 0.0269052 0.00559123 0.0179404 0.00653167 0.0449973
55 3 O -0.429565 5.80612 0.196716 -1.2 1 0.000671963 0.00335558 0.00201776 0.00432297 0.00183185 0.00722849 0.00266865 0.0196142 0.00277934 0.00843152 0.00242608 0.0259655 0.00269625 0.01414 0.00379569 0.0260601 0.00486015 0.0170577 0.00559762 0.0449991
56 3 O -0.473377 5.80612 2.79288 -1.2 1 0.00215243 0.00390422 0.00179958 0.00443514 0.00231901 0.00690371 0.00332361 0.0191143 0.00303928 0.00788547 0.00278552 0.0259292 0.00376851 0.0145821 0.00440041 0.0262371 0.0064447 0.0184994 0.00694834 0.0450334
57 1 Mg 6.40169 9.49799 0 1.2 1 0.0003152 0.00364999 0.00166987 0.00497138 0.00156687 0.00833321 0.00208998 0.0211367 0.00154447 0.00885497 0.00173563 0.0288846 0.0022778 0.0147559 0.00254186 0.0299686 0.0036059 0.0181543 0.00388808 0.0472882
58 1 Mg 3.64209 14.2057 1.4948 1.2 1 0.00158565 0.00309963 0.00176881 0.00483013 0.00178548 0.00876403 0.00187985 0.0217374 0.00192387 0.00876269 0.00226398 0.0282485 0.0025991 0.0160886 0.00306725 0.0296871 0.00371693 0.0171531 0.0035621 0.0488419
59 2 Si 5.45748 11.5215 1.4948 2.4 1 0.00135387 0.0033028 0.00192777 0.00502661 0.0018267 0.00831822 0.00230802 0.021138 0.00161247 0.00824324 0.00200762 0.028887 0.00267381 0.0161206 0.00344803 0.029381 0.0041418 0.0172489 0.00386977 0.0487426
60 3 O 5.51101 13.1348 1.4948 -1.2 1 0.00149618 0.00318216 0.00179748 0.00502548 0.00166487 0.00912315 0.00201338 0.0212628 0.00194502 0.0086215 0.00169791 0.0292922 0.00215592 0.0161076 0.0029063 0.0299274 0.00387708 0.0167986 0.00376172 0.0487504
61 3 O 1.83851 10.5475 1.4948 -1.2 1 0.000905674 0.00354971 0.00185664 0.00521267 0.00188282 0.00787343 0.0025155 0.0217206 0.00180149 0.00838729 0.00230835 0.0293933 0.0026363 0.0158316 0.00337075 0.0299678 0.00428315 0.0182208 0.00372067 0.0485776
62 3 O 4.7611 10.8154 0.196716 -1.2 1 0.000299476 0.00312494 0.00194852 0.00512891 0.00146079 0.00856765 0.0023096 0.0214428 0.00164244 0.0086319 0.0020557 0.0282843 0.00295272 0.015509 0.00396867 0.0296157 0.00376038 0.0173642 0.00362569 0.048194
63 1 Mg 6.35203 9.49799 2.9896 1.2 1 0.00183826 0.00397358 0.00184027 0.00491274 0.00262501 0.00781129 0.00349394 0.0204608 0.00313077 0.00862647 0.00213885 0.0293211 0.00381289 0.0162405 0.00363914 0.0288668 0.00446698 0.0187946 0.00567898 0.0480285
64 3 O 4.71833 10.8154 2.79288 -1.2 1 0.00258996 0.00354937 0.001804 0.00464108 0.00210129 0.00837577 0.0024889 0.0213899 0.00213339 0.00900185 0.00206007 0.028391 0.00350044 0.0159064 0.00401379 0.0300208 0.00535682 0.0187666 0.00578983 0.0490897
65 1 Mg -1.0438 9.53931 4.4844 1.2 1 0.0031674 0.00473941 0.00144709 0.00463001 0.00293291 0.00701785 0.00279832 0.0208955 0.00279434 0.00838959 0.0026271 0.0284025 0.00380725 0.0165581 0.0045476 0.0295913 0.00654445 0.0202201 0.00729534 0.0488301
66 2 Si -2.8604 12.2234 4.4844 2.4 1 0.00328222 0.00388977 0.00190013 0.00457907 0.00259904 0.00777905 0.00318876 0.0217285 0.00273906 0.00859645 0.0024454 0.0284428 0.00448752 0.0166094 0.00448721 0.0298494 0.00566189 0.0196232 0.00689978 0.0502225
67 3 O -2.91391 10.6102 4.4844 -1.2 1 0.00321724 0.00426458 0.00190523 0.00457647 0.00276068 0.00722977 0.00339795 0.020541 0.00257939 0.00793506 0.0022674 0.0287348 0.00443939 0.0159348 0.00421504 0.0301654 0.00589483 0.0197625 0.00693029 0.0492744
68 3 O 0.7596 13.1975 4.4844 -1.2 1 0.00306664 0.00400078 0.00200412 0.00506431 0.00283066 0.0088142 0.0028034 0.0220821 0.00275933 0.0086373 0.0027678 0.0288674 0.00437643 0.0164487 0.00431623 0.0300214 0.00600948 0.0198981 0.00688382 0.0501199
69 3 O -2.12001 12.9296 3.18632 -1.2 1 0.00291299 0.00352614 0.00184127 0.00435934 0.00249172 0.00775352 0.00240173 0.0218577 0.00242775 0.00855383 0.00227946 0.0279727 0.00360059 0.016275 0.00454368 0.0303421 0.00534399 0.0187222 0.00570683 0.0496594
70 3 O -2.16532 12.9296 5.78248 -1.2 1 0.00400777 0.0039658 0.00196471 0.00465909 0.00261635 0.00708438 0.00232587 0.0216128 0.00247934 0.00857356 0.00301596 0.0275786 0.00427383 0.0170613 0.00530779 0.0308377 0.00614425 0.0209492 0.00699614 0.0514097
71 1 Mg 1.29891 11.8725 2.9896 1.2 1 0.00214889 0.00357894 0.00178352 0.00517115 0.0024033 0.00813908 0.00294977 0.0210131 0.00246776 0.00859292 0.00210583 0.0290658 0.00349435 0.0163044 0.0034976 0.0299584 0.00478183 0.0183329 0.00517295 0.048837
72 1 Mg 4.10033 11.8312 4.4844 1.2 1 0.00308812 0.00371217 0.00211184 0.0044049 0.00241621 0.00762306 0.0028647 0.0212565 0.00259293 0.00864278 0.00287648 0.0289007 0.0039486 0.0171429 0.00558165 0.0301022 0.00658132 0.0199912 0.00638712 0.0499317
73 2 Si 2.27333 13.896 4.4844 2.4 1 0.00313056 0.00353602 0.00188139 0.00515945 0.00297189 0.00796207 0.00326493 0.0216339 0.00245746 0.00846169 0.0028394 0.0282793 0.00403542 0.0166204 0.00436786 0.0301891 0.00561961 0.0191725 0.00641814 0.0508721
74 3 O 2.28634 15.5093 4.4844 -1.2 1 0.00335003 0.00376712 0.00194565 0.00476318 0.00305457 0.00737398 0.00286127 0.0208264 0.00260237 0.00784573 0.00232579 0.0285736 0.00359629 0.0160755 0.00406316 0.0306593 0.0058208 0.0187914 0.00651709 0.0508661
75 3 O -4.34533 12.922 4.4844 -1.2 1 0.0030222 0.00369807 0.00199668 0.00479272 0.00270056 0.00858656 0.00286357 0.0217886 0.00268398 0.00875139 0.00240512 0.0289804 0.00428545 0.0165161 0.00484227 0.0301853 0.00648037 0.0199316 0.00718591 0.0500529
76 3 O 2.98455 13.1899 3.18632 -1.2 1 0.00251979 0.00323072 0.00167839 0.00464887 0.00252365 0.0078021 0.00225356 0.0216534 0.00217342 0.00884534 0.00245886 0.0281512 0.00371293 0.0161486 0.00446637 0.0302394 0.00554095 0.0186599 0.00563823 0.0495719
77 1 Mg 1.34779 11.8725 0 1.2 1 0.00087234 0.00302133 0.00125574 0.00510238 0.00123643 0.00893402 0.00168088 0.0213947 0.00123023 0.00902343 0.0020472 0.0289416 0.00287293 0.0148858 0.0030137 0.0302621 0.00328441 0.0174623 0.00315771 0.0476976
78 3 O 2.93934 13.1899 5.78248 -1.2 1 0.00336888 0.00404116 0.00183377 0.00501816 0.00249827 0.00725334 0.00251745 0.0219924 0.00260013 0.0086512 0.00317946 0.0276107 0.00454583 0.0170359 0.00478092 0.0310489 0.00626616 0.0216894 0.00666601 0.0515798
79 1 Mg -1.50344 11.9138 1.4948 1.2 1 0.00101481 0.00350278 0.00134174 0.00476808 0.00146382 0.00838343 0.00197397 0.0216565 0.00249578 0.00842909 0.00159823 0.028646 0.00355258 0.0161277 0.00327371 0.0297126 0.00351344 0.0178876 0.00390796 0.048438
80 2 Si 0.326006 9.84894 1.4948 2.4 1 0.000627744 0.00353647 0.00133351 0.00517683 0.00186832 0.00827071 0.00226558 0.0211966 0.00208371 0.00840381 0.00166669 0.0285622 0.00298611 0.0157649 0.00366801 0.0289057 0.00377422 0.0181092 0.00369774 0.047975
81 3 O 0.317364 8.23571 1.4948 -1.2 1 0.00143464 0.00377532 0.00120306 0.00460933 0.00193988 0.00781179 0.0022417 0.0203035 0.00255036 0.00805979 0.00177601 0.0286907 0.00345699 0.0157736 0.00389494 0.0286992 0.00446001 0.0180716 0.00445912 0.0471467
82 3 O 6.94307 10.823 1.4948 -1.2 1 0.00104141 0.00363524 0.00180321 0.00473078 0.00183919 0.00782103 0.00274144 0.0218975 0.00224151 0.00833053 0.00165634 0.0294859 0.00304225 0.0159495 0.00332565 0.0298443 0.00393987 0.0182389 0.00436343 0.0486073
83 3 O -0.343122 10.5551 0.196716 -1.2 1 0.000258005 0.00322799 0.00119363 0.00495122 0.00139593 0.0086494 0.00192857 0.0213931 0.00174207 0.00886086 0.0020777 0.0281582 0.00325757 0.0154003 0.00410419 0.0295694 0.00364726 0.0177072 0.003508 0.0479809
84 3 O -0.385966 10.5551 2.79288 -1.2 1 0.00252736 0.00389164 0.00136882 0.00460092 0.00256152 0.00810618 0.00241012 0.021616 0.00202366 0.00919876 0.00233875 0.0276909 0.00386131 0.0162088 0.00420339 0.02985 0.0052317 0.0189598 0.0051741 0.049068
85 1 Mg 6.49448 14.247 0 1.2 1 0.00135498 0.00340599 0.00162162 0.00494479 0.000960706 0.00929414 0.00139063 0.0212694 0.00114123 0.00862351 0.00153489 0.0286572 0.00171288 0.0154237 0.00256266 0.0301711 0.0033078 0.016543 0.00283858 0.0478513
86 1 Mg 3.74457 18.9547 1.4948 1.2 1 0.00196312 0.00290286 0.001411 0.00392537 0.00183052 0.00857906 0.00146245 0.0220643 0.00193967 0.0080021 0.00244742 0.0276612 0.00281513 0.0164878 0.00368858 0.028985 0.00362154 0.0160406 0.00325216 0.0497402
87 2 Si 5.55495 16.2705 1.4948 2.4 1 0.00202428 0.00278382 0.00151775 0.00455893 0.00195194 0.00893587 0.0016188 0.021431 0.0014346 0.00799834 0.00134905 0.028542 0.00252021 0.0162611 0.0029142 0.0290848 0.00377255 0.0157666 0.00354356 0.0490916
88 3 O 5.6115 17.8838 1.4948 -1.2 1 0.00195781 0.00287685 0.00154619 0.0042658 0.00185113 0.00920391 0.00163133 0.0216541 0.00197667 0.00786396 0.00162113 0.0286006 0.00230864 0.0164972 0.00286387 0.0290627 0.00330046 0.0155548 0.00351945 0.0493272
89 3 O 1.93416 15.2965 1.4948 -1.2 1 0.0015838 0.00321671 0.00154513 0.00477121 0.00204659 0.00844182 0.00209458 0.021881 0.00190175 0.00810091 0.00156827 0.0291037 0.00225533 0.0162484 0.00307718 0.029827 0.00391856 0.0165548 0.00330022 0.0492887
90 3 O 4.85636 15.5644 0.196716 -1.2 1 0.00172385 0.00252841 0.0014525 0.00477548 0.00131706 0.00923038 0.00140937 0.0214003 0.0010724 0.00831659 0.00180726 0.027808 0.0027401 0.0160377 0.00355211 0.029562 0.00338428 0.0158393 0.00307144 0.0485859
91 1 Mg 6.44662 14.247 2.9896 1.2 1 0.00176347 0.00334509 0.00152037 0.00478549 0.00255095 0.00851906 0.00302968 0.0209 0.00264683 0.00868835 0.00179436 0.0291436 0.00315381 0.0164205 0.00306913 0.0296337 0.0041822 0.0178665 0.00496262 0.0489966
92 3 O 4.81537 15.5644 2.79288 -1.2 1 0.00263196 0.00302884 0.00140454 0.00440639 0.00235434 0.00868105 0.00185122 0.0216453 0.00174702 0.00858198 0.00181713 0.0279391 0.00292318 0.0163514 0.00353833 0.029799 0.00491753 0.0172423 0.00508433 0.049609
93 1 Mg -0.948271 14.2883 4.4844 1.2 1 0.00376434 0.00372869 0.00184822 0.00450832 0.00283434 0.00790625 0.00294004 0.0215664 0.00264444 0.00837139 0.00277084 0.0286795 0.00369879 0.0170199 0.00498889 0.0302813 0.00605469 0.0190951 0.00656683 0.0505849
94 2 Si -2.75928 16.9724 4.4844 2.4 1 0.00356711 0.00327422 0.00178571 0.00453786 0.00283962 0.00784552 0.00295306 0.0218719 0.00272691 0.0078857 0.00271872 0.0281581 0.00368617 0.0169281 0.00475114 0.0294958 0.00519495 0.0182842 0.00589678 0.0512505
95 3 O -2.81617 15.3592 4.4844 -1.2 1 0.00391683 0.00328559 0.00194996 0.00440353 0.0028711 0.00756966 0.00310787 0.0208828 0.00262614 0.00782918 0.00245921 0.0287506 0.00387799 0.0161259 0.00416865 0.0302462 0.00588662 0.0185036 0.00664136 0.0503482
96 3 O 0.862762 17.9465 4.4844 -1.2 1 0.00341201 0.00362798 0.00161842 0.00462859 0.00294674 0.00833635 0.00256462 0.0222181 0.0025788 0.0077575 0.00262417 0.0284512 0.00395048 0.0168691 0.0042279 0.0293767 0.00563075 0.0182114 0.00611266 0.0512332
97 3 O -2.0185 17.6786 3.18632 -1.2 1 0.00312967 0.003198 0.00172556 0.00402489 0.00258849 0.00772071 0.00236916 0.0221275 0.00226441 0.00787362 0.0022733 0.027555 0.00359336 0.016485 0.00459985 0.0298548 0.00490855 0.0173603 0.00518038 0.050859
98 3 O -2.06164 17.6786 5.78248 -1.2 1 0.00428256 0.00369812 0.00157528 0.00440686 0.00273391 0.00680674 0.00250127 0.0220011 0.00263784 0.00788231 0.00286657 0.0277635 0.00380525 0.0173793 0.005104 0.0306044 0.00581586 0.0198711 0.00632139 0.0528468
99 1 Mg 1.39817 16.6215 2.9896 1.2 1 0.00250699 0.00318807 0.00180434 0.00462197 0.00278331 0.00847497 0.00280959 0.0211961 0.0025251 0.0081216 0.00205224 0.0287632 0.0028512 0.0165783 0.00336886 0.0294802 0.0041171 0.0167162 0.00440548 0.0496843
100 1 Mg 4.20062 16.5802 4.4844 1.2 1 0.00310095 0.00318442 0.00186754 0.00434028 0.00272507 0.00768753 0.00259189 0.0215681 0.00297591 0.00793906 0.00296585 0.0284619 0.00357579 0.017328 0.00547065 0.0298327 0.00634465 0.0185141 0.0062308 0.0509886
101 2 Si 2.37796 18.645 4.4844 2.4 1 0.00329444 0.00309009 0.00147132 0.00459676 0.00307027 0.00786348 0.00283759 0.0220392 0.00266574 0.0078839 0.00288563 0.0278529 0.00383024 0.0169318 0.00459559 0.0293796 0.0051954 0.0175913 0.00570178 0.0523335
102 3 O 2.39434 20.2583 4.4844 -1.2 1 0.0037271 0.00341943 0.00134307 0.00438064 0.00309985 0.00691226 0.00275045 0.0212938 0.00275493 0.00717897 0.00200756 0.0284305 0.00336674 0.0168343 0.00405181 0.0298426 0.00543552 0.0175223 0.00634644 0.0521572
103 3 O -4.24274 17.671 4.4844 -1.2 1 0.00314764 0.00344835 0.001901 0.00452442 0.00277273 0.00851581 0.00286471 0.0222481 0.0028015 0.00780871 0.00262141 0.0284487 0.00345736 0.0168421 0.00475875 0.0296077 0.00599645 0.0185157 0.00643837 0.0513136
104 3 O 3.08659 17.9389 3.18632 -1.2 1 0.00289925 0.00284156 0.0015906 0.00406114 0.00263528 0.0079039 0.00200615 0.0219959 0.00230194 0.00797056 0.00232584 0.0275317 0.00338133 0.016472 0.00429117 0.0296114 0.00521853 0.0172712 0.00533155 0.0507249
105 1 Mg 1.44478 16.6215 0 1.2 1 0.00238733 0.00266986 0.00121727 0.00429642 0.00133349 0.00891409 0.00124939 0.0214361 0.0013649 0.00823582 0.00148826 0.0284669 0.00234442 0.0156703 0.00244173 0.0294412 0.00306014 0.0158979 0.00298002 0.0483436
106 3 O 3.0436 17.9389 5.78248 -1.2 1 0.00350362 0.00344465 0.00156093 0.0047942 0.00274484 0.0070639 0.00241068 0.0222079 0.00225283 0.00787052 0.0029422 0.0275328 0.00394182 0.0172695 0.00488425 0.0305476 0.00597335 0.0202803 0.00628185 0.0529115
107 1 Mg -1.40524 16.6628 1.4948 1.2 1 0.00157724 0.00311933 0.00134823 0.00456281 0.00189404 0.00878715 0.00191291 0.0219922 0.00197919 0.00815084 0.00187857 0.0282132 0.00317791 0.0166142 0.00298643 0.0294924 0.00302584 0.0163975 0.00322986 0.0490687
108 2 Si 0.420358 14.5979 1.4948 2.4 1 0.00153959 0.00305709 0.00152171 0.00517984 0.00214154 0.0090989 0.00198568 0.0213249 0.00163611 0.00820509 0.00160605 0.0285372 0.00291875 0.0163179 0.00359694 0.0290067 0.0035862 0.0165006 0.00338596 0.0487983
109 3 O 0.408732 12.9847 1.4948 -1.2 1 0.00129459 0.00310735 0.00133696 0.00519123 0.0019045 0.00919335 0.00161281 0.0212161 0.0021981 0.00836278 0.00151963 0.0290433 0.00317665 0.016059 0.00310433 0.0298205 0.00343302 0.0171569 0.00378703 0.0485381
110 3 O 7.03923 15.572 1.4948 -1.2 1 0.00152335 0.00311893 0.00143716 0.00470809 0.00213087 0.00839305 0.00241535 0.0217417 0.00208653 0.00804726 0.00154338 0.029114 0.00262189 0.0163761 0.00290993 0.0297048 0.00349932 0.0167516 0.00388545 0.0491604
111 3 O -0.248332 15.3041 0.196716 -1.2 1 0.00164614 0.00274744 0.00121901 0.00474314 0.00115897 0.0091208 0.00187999 0.0213351 0.00138677 0.00833019 0.0017326 0.0279324 0.00293994 0.0157795 0.00377011 0.0293435 0.00334134 0.016013 0.00311162 0.0483804
112 3 O -0.289436 15.3041 2.79288 -1.2 1 0.00315385 0.00333278 0.0013138 0.00455493 0.00255132 0.00877429 0.00216701 0.021842 0.00190626 0.00864323 0.00192905 0.0275529 0.00314984 0.0165921 0.00381485 0.0296445 0.00458314 0.0175365 0.00485165 0.0495953
113 1 Mg 6.59566 18.996 0 1.2 1 0.00166176 0.00301297 0.00160065 0.0043081 0.00101153 0.00869776 0.00125733 0.0218352 0.00126355 0.00782897 0.00145732 0.0277273 0.00220591 0.0162654 0.00234998 0.0286468 0.00290764 0.0155557 0.00287811 0.0484844
114 1 Mg 3.85574 23.7037 1.4948 1.2 1 0.00209189 0.00287692 0.00133341 0.00406798 0.00168086 0.0073943 0.00142778 0.0229327 0.00174783 0.00738302 0.00222808 0.0269121 0.0025864 0.0174754 0.00373786 0.0285866 0.00339395 0.0167702 0.00342188 0.0507044
115 2 Si 5.66125 21.0195 1.4948 2.4 1 0.00212225 0.00280224 0.00112676 0.00406247 0.00198774 0.00815626 0.00163171 0.0217721 0.00135673 0.00746685 0.00147027 0.027774 0.00265814 0.017253 0.00288582 0.0281382 0.00334082 0.0155432 0.00392982 0.0501403
116 3 O 5.72074 22.6328 1.4948 -1.2 1 0.00228418 0.00285851 0.00165987 0.00403394 0.00175638 0.00818049 0.0016421 0.0222883 0.00191143 0.0072742 0.00144016 0.027608 0.00226004 0.0173943 0.0030418 0.0284085 0.00325489 0.0159765 0.00370459 0.0502035
117 3 O 2.03867 20.0455 1.4948 -1.2 1 0.00174694 0.00311861 0.00150835 0.00415633 0.00185857 0.00788566 0.00222945 0.0222119 0.0022607 0.00747373 0.00147515 0.0283001 0.00236192 0.0171939 0.00270083 0.0289322 0.00336886 0.015811 0.00324846 0.0502897
118 3 O 4.96004 20.3134 0.196716 -1.2 1 0.00194058 0.00267202 0.00132102 0.00399715 0.00114242 0.00834978 0.00105222 0.0215876 0.00110471 0.00745543 0.00171096 0.0272987 0.00276855 0.0165203 0.00376054 0.0287208 0.0029623 0.0149809 0.00289179 0.0494197
119 1 Mg 6.55057 18.996 2.9896 1.2 1 0.00189494 0.00315937 0.00121014 0.00413157 0.00256605 0.00815918 0.00275557 0.0213139 0.0024478 0.00788982 0.00184815 0.0287973 0.00307194 0.0169469 0.00316424 0.0289755 0.00403021 0.0166873 0.0046924 0.0502609