ITEM: TIMESTEP
13200
ITEM: NUMBER OF ATOMS
10500
ITEM: BOX BOUNDS xy xz yz pp pp pp
0	15.2977	5.09925
0	118.725	0
0	89.688	0
ITEM: ATOMS id type element xu yu zu q Q_1 Q_2 Q_3 Q_4 Q_5 Q_6 Q_7 Q_8 Q_9 Q_10 Q_11 Q_12 Q_13 Q_14 Q_15 Q_16 Q_17 Q_18 Q_19 Q_20 Q_21
1 1 Mg 6.2404 -6.37941e-06 0 1.2 1 0.00149899 0.00441203 0.0012246 0.00491078 0.00129693 0.005569 0.00225276 0.0162933 0.00219692 0.00575745 0.00230699 0.021849 0.00243068 0.0136546 0.00324484 0.0206381 0.00389533 0.0140989 0.00398321 0.0407472
2 1 Mg 3.46349 4.70768 1.4948 1.2 1 0.00133433 0.00328265 0.0019116 0.00460151 0.00191174 0.00610755 0.00349337 0.0186573 0.00293749 0.006995 0.00300818 0.0257876 0.00317468 0.0140231 0.00440468 0.0252274 0.00533559 0.017066 0.00583086 0.043958
3 2 Si 5.2885 2.02354 1.4948 2.4 1 0.000893699 0.00343039 0.00222128 0.00473199 0.00183918 0.0057122 0.00250935 0.0171051 0.00240919 0.00620633 0.00218385 0.0232976 0.0027785 0.0136419 0.00363214 0.0215473 0.0037888 0.0153535 0.00457283 0.0413748
4 3 O 5.33628 3.63678 1.4948 -1.2 1 0.000631147 0.00285013 0.00195122 0.00494366 0.00218912 0.00626014 0.00283768 0.0178095 0.00233243 0.00669618 0.00202595 0.0252138 0.00253025 0.0136867 0.00430824 0.0240207 0.00502232 0.0163399 0.0058974 0.0429169
5 3 O 1.67294 1.04952 1.4948 -1.2 1 0.00174073 0.0034028 0.00198433 0.00432947 0.00130244 0.00566641 0.00251487 0.0169174 0.00241667 0.00608741 0.00216054 0.022651 0.00253236 0.0129684 0.00334664 0.0217986 0.00470017 0.0156289 0.00505592 0.0402945
6 3 O 4.59532 1.31737 0.196716 -1.2 1 0.00144116 0.0030898 0.0020055 0.00452672 0.00192427 0.00567425 0.00237836 0.0172601 0.00278719 0.00621001 0.00206607 0.0224062 0.0032361 0.0129019 0.00417284 0.0215285 0.00406236 0.0148078 0.0045936 0.0410557
7 1 Mg 6.18956 -6.37941e-06 2.9896 1.2 1 0.00109967 0.00474097 0.00150375 0.00437571 0.00122716 0.00567192 0.00250221 0.0162135 0.00277664 0.00567792 0.00180076 0.0223878 0.00275661 0.013608 0.00354458 0.0206184 0.00449444 0.0147183 0.00504478 0.0392607
8 3 O 4.55118 1.31737 2.79288 -1.2 1 0.00123967 0.00441352 0.00202255 0.00440333 0.00175641 0.0055062 0.00258117 0.0170344 0.002597 0.00693939 0.00232414 0.0217697 0.00343744 0.0123917 0.00348083 0.0215138 0.00480482 0.0153638 0.00540759 0.0402063
9 1 Mg -1.20682 0.0413099 4.4844 1.2 1 0.000466155 0.0029471 0.00195187 0.00469221 0.0013006 0.00524554 0.00204047 0.0162551 0.00221858 0.00608379 0.00218839 0.022984 0.00316717 0.0118479 0.00364165 0.0209454 0.00528282 0.0155508 0.00525975 0.0391897
10 2 Si -3.0337 2.72544 4.4844 2.4 1 0.000395659 0.00315926 0.00203028 0.00503896 0.00221001 0.00600186 0.00339355 0.0168448 0.00326608 0.00638419 0.0023966 0.0241796 0.00331201 0.0131799 0.00420361 0.0224727 0.00545618 0.0175626 0.00640975 0.0401286
11 3 O -3.08099 1.11221 4.4844 -1.2 1 0.000538371 0.00369375 0.00200257 0.00451786 0.00129391 0.00516154 0.00241653 0.0163142 0.00283525 0.00583919 0.00224829 0.0225981 0.00330624 0.0115788 0.00359065 0.0214325 0.00497799 0.0161607 0.00564098 0.0387309
12 3 O 0.582463 3.69946 4.4844 -1.2 1 0.00152986 0.00440249 0.00199501 0.00460125 0.0026159 0.00656565 0.00343117 0.0173132 0.003408 0.00658465 0.00330051 0.0250828 0.0042014 0.0130953 0.00460783 0.0245033 0.00696097 0.0187467 0.00840962 0.0423258
13 3 O -2.29524 3.43162 3.18632 -1.2 1 0.000790598 0.00280645 0.0027951 0.00475368 0.00221488 0.00594822 0.00297269 0.0178735 0.00325781 0.00668204 0.00278148 0.0247177 0.00340832 0.01311 0.00480096 0.0243219 0.00604786 0.0178813 0.00694155 0.04236
14 3 O -2.34216 3.43162 5.78248 -1.2 1 0.00160666 0.00352401 0.00140101 0.0051308 0.00266067 0.0059113 0.0032067 0.0171997 0.00295279 0.00740727 0.00294451 0.0238547 0.00446992 0.0126059 0.0043529 0.0237118 0.00668979 0.0193709 0.00777574 0.04116
15 1 Mg 1.12778 2.37449 2.9896 1.2 1 0.00115503 0.0036098 0.00223976 0.00464196 0.00221278 0.00585253 0.00296357 0.0167077 0.00273579 0.00622037 0.00237971 0.0235886 0.00320181 0.0131591 0.00343223 0.0218688 0.00490908 0.0165052 0.00576467 0.0409306
16 1 Mg 3.92855 2.33318 4.4844 1.2 1 0.0012661 0.00430797 0.00176145 0.00458492 0.00185627 0.00553436 0.00346866 0.0168848 0.00319924 0.00614067 0.00291045 0.023197 0.00377984 0.0135963 0.00535683 0.0219756 0.0063445 0.0169925 0.0072784 0.0405903
17 2 Si 2.09341 4.39804 4.4844 2.4 1 0.00140732 0.00409717 0.00199728 0.0043861 0.00290509 0.00597042 0.00371017 0.0182693 0.0035107 0.00670649 0.00347235 0.0252365 0.00464408 0.0141911 0.0046354 0.0247947 0.00682807 0.0185316 0.00861596 0.0439081
18 3 O 2.09991 6.01128 4.4844 -1.2 1 0.00231306 0.00424721 0.00166487 0.00419547 0.0028984 0.00661042 0.00324122 0.0192225 0.00285832 0.00728955 0.00330303 0.0270594 0.00423051 0.0144631 0.00489783 0.0274888 0.00696753 0.0194863 0.00837247 0.045851
19 3 O -4.52137 3.42402 4.4844 -1.2 1 0.00106908 0.00342986 0.00245903 0.00497428 0.00225824 0.00690069 0.00359467 0.0170543 0.00323926 0.00624422 0.00319549 0.0241347 0.00402409 0.0131109 0.0043929 0.0231015 0.00623602 0.0178256 0.00766595 0.0417904
20 3 O 2.80834 3.69187 3.18632 -1.2 1 0.00113942 0.00350415 0.00180108 0.00391403 0.00199959 0.00578496 0.0029665 0.0174526 0.00312042 0.00649067 0.00290819 0.0243282 0.00358282 0.013039 0.00483125 0.0238394 0.0057678 0.017038 0.00664922 0.0427117
21 1 Mg 1.17857 2.37449 0 1.2 1 0.0022189 0.00358078 0.00198096 0.0042791 0.00134225 0.00549825 0.00246222 0.0172612 0.00250456 0.00645062 0.0027287 0.0231839 0.0027326 0.0133414 0.00336566 0.0217085 0.0042969 0.0148697 0.00480784 0.0410434
22 3 O 2.76143 3.69187 5.78248 -1.2 1 0.00194401 0.00432954 0.00172918 0.00442554 0.00217698 0.00551663 0.00300521 0.0178503 0.00330105 0.0071758 0.00320988 0.0239704 0.00507247 0.0132029 0.00572815 0.0235722 0.00678031 0.018729 0.00823563 0.0420172
23 1 Mg -1.67381 2.41581 1.4948 1.2 1 0.00159615 0.00278639 0.00247978 0.00492276 0.00146493 0.00591213 0.00235334 0.0167722 0.00290338 0.0063081 0.00195355 0.0241238 0.00247797 0.0143006 0.00279425 0.0221512 0.00447306 0.0160436 0.00501952 0.0419186
24 2 Si 0.16286 0.350945 1.4948 2.4 1 0.00203618 0.00286397 0.00264604 0.00453568 0.00123657 0.00627628 0.00281247 0.0164416 0.0022789 0.00524243 0.0019529 0.0227426 0.00231373 0.0137371 0.0030238 0.0207092 0.00462787 0.014766 0.004547 0.0403889
25 3 O 0.15972 -1.26229 1.4948 -1.2 1 0.00181867 0.00292058 0.00289562 0.0044532 0.00182396 0.00586452 0.00258452 0.0164609 0.00236935 0.00559381 0.00250312 0.0225774 0.00244156 0.0140365 0.00274408 0.0217103 0.0043016 0.0145322 0.00414284 0.0408128
26 3 O 6.77654 1.32496 1.4948 -1.2 1 0.00142322 0.00388309 0.00175781 0.00470204 0.00135391 0.00583031 0.00236705 0.0168643 0.00263366 0.00557439 0.00186229 0.0235186 0.0026912 0.0135751 0.00345798 0.0218172 0.00462015 0.0152268 0.00460354 0.0408524
27 3 O -0.508028 1.05712 0.196716 -1.2 1 0.0018469 0.00290332 0.00323225 0.00420656 0.00135631 0.00557571 0.00249052 0.0171319 0.00185448 0.00665254 0.00268201 0.0220064 0.00265664 0.0130736 0.00308943 0.021127 0.00425279 0.0150516 0.00446582 0.0402962
28 3 O -0.552171 1.05712 2.79288 -1.2 1 0.000947823 0.00251426 0.00288461 0.00460714 0.0015028 0.00596331 0.00234505 0.0163634 0.00255146 0.00644743 0.00182585 0.0226836 0.00292154 0.0120399 0.00341324 0.0215487 0.00517415 0.0157266 0.00517162 0.0399769
29 1 Mg 6.31713 4.74899 0 1.2 1 0.00113653 0.00264276 0.00195101 0.00475116 0.00233742 0.00603323 0.0032639 0.0181308 0.00282024 0.00704492 0.00217522 0.0252976 0.0027758 0.0137657 0.00411963 0.024644 0.00473266 0.0163331 0.00602756 0.043129
30 1 Mg 3.54847 9.45668 1.4948 1.2 1 0.000891518 0.00307823 0.00188187 0.0045216 0.00214146 0.00755907 0.00304149 0.0213183 0.00174999 0.00841221 0.00242031 0.0284618 0.00320939 0.0156151 0.00380156 0.0291479 0.00435717 0.0182199 0.00404408 0.0489504
31 2 Si 5.36879 6.77254 1.4948 2.4 1 0.000473976 0.00311227 0.00198453 0.00509929 0.00275347 0.0068694 0.00368715 0.0196212 0.00276907 0.00779505 0.00256103 0.0276306 0.00313776 0.0153394 0.00423358 0.0268982 0.00478862 0.0173655 0.00538536 0.0467619
32 3 O 5.41937 8.38578 1.4948 -1.2 1 0.000803446 0.00309753 0.00166746 0.0050412 0.00229393 0.00779104 0.00314399 0.0208841 0.00234742 0.00831249 0.00255387 0.0290322 0.0023218 0.0156064 0.00310788 0.0291077 0.0047353 0.0175416 0.00500715 0.0482984
33 3 O 1.75158 5.79852 1.4948 -1.2 1 0.00101931 0.00344266 0.00163389 0.0042248 0.00248529 0.00606616 0.00320754 0.0194733 0.00289706 0.00727589 0.00270052 0.0278956 0.00291572 0.0154699 0.00354437 0.0268271 0.00547466 0.0176148 0.005682 0.0458578
34 3 O 4.67421 6.06637 0.196716 -1.2 1 0.000763401 0.00301034 0.00170394 0.0048485 0.00202458 0.00681981 0.00290999 0.0198687 0.0025392 0.0081858 0.0021999 0.0262978 0.00343931 0.0143181 0.00421068 0.0265971 0.00473921 0.0166879 0.00562006 0.0453817
35 1 Mg 6.26654 4.74899 2.9896 1.2 1 0.00143318 0.00305955 0.00247807 0.00508176 0.00267513 0.00653208 0.00369958 0.0179961 0.00382818 0.00700119 0.00240735 0.0260253 0.00375175 0.0145099 0.005097 0.0250024 0.00588103 0.0176192 0.00733349 0.0438791
36 3 O 4.63043 6.06637 2.79288 -1.2 1 0.00184102 0.00328313 0.00204632 0.00504256 0.00236512 0.00687939 0.00338461 0.0194989 0.00332869 0.00779556 0.00260278 0.0263384 0.00386766 0.0146062 0.00462916 0.0273938 0.00602088 0.0183495 0.00725075 0.045821
37 1 Mg -1.12976 4.79031 4.4844 1.2 1 0.00159163 0.00383802 0.00172626 0.00502135 0.0024609 0.00626954 0.00329471 0.017948 0.00347876 0.00701935 0.00316319 0.0262708 0.00433448 0.0143264 0.00476949 0.0259248 0.00766086 0.0193117 0.00822947 0.0445082
38 2 Si -2.9517 7.47444 4.4844 2.4 1 0.00247384 0.00399992 0.00146778 0.00551748 0.00306611 0.00677836 0.00387109 0.0203114 0.00328907 0.00776079 0.0032226 0.0278149 0.00453487 0.0159203 0.00554467 0.0282288 0.00709243 0.0194229 0.00843382 0.0481898
39 3 O -3.00198 5.86121 4.4844 -1.2 1 0.00202248 0.00412192 0.00156309 0.00516288 0.00316748 0.00647672 0.00409686 0.0188329 0.00354607 0.00768283 0.00298774 0.0261408 0.00453659 0.0142344 0.00495504 0.0270858 0.00714381 0.0197452 0.00852163 0.0457185
40 3 O 0.666315 8.44846 4.4844 -1.2 1 0.00260717 0.00467749 0.00150472 0.00509255 0.00296317 0.00756443 0.00295473 0.0212282 0.00304629 0.00783848 0.00352748 0.0287253 0.00484558 0.0158818 0.00460699 0.0293521 0.00686079 0.0200773 0.00813989 0.0490521
41 3 O -2.21213 8.18062 3.18632 -1.2 1 0.00215031 0.00419269 0.00161279 0.00470131 0.00276546 0.00661366 0.00284796 0.0207209 0.00277002 0.00809413 0.0031409 0.0277014 0.00414403 0.0157219 0.00523898 0.0291356 0.00618756 0.0190335 0.00689329 0.0490014
42 3 O -2.25864 8.18062 5.78248 -1.2 1 0.00306199 0.00433561 0.00190157 0.0051227 0.00328899 0.00619349 0.00321735 0.0207222 0.00259584 0.0084863 0.0037955 0.0273065 0.00477075 0.0165385 0.00546935 0.0294456 0.00742908 0.0210369 0.00867157 0.0496304
43 1 Mg 1.20893 7.12349 2.9896 1.2 1 0.00145269 0.00377416 0.00175589 0.00454016 0.00291857 0.006773 0.00361886 0.0196598 0.00287693 0.00803185 0.00284442 0.0280868 0.00356983 0.0157503 0.00387076 0.0274939 0.00580708 0.0183946 0.00654173 0.0470113
44 1 Mg 4.00982 7.08218 4.4844 1.2 1 0.00238839 0.00380393 0.00183651 0.00493915 0.00268165 0.00663254 0.00386614 0.0200076 0.00352674 0.00746961 0.00339155 0.0277231 0.00445935 0.016587 0.00599783 0.0281993 0.00735822 0.0194081 0.00867117 0.0475121
45 2 Si 2.17861 9.14704 4.4844 2.4 1 0.00249461 0.00402146 0.00178963 0.00502181 0.00290761 0.00753827 0.00365066 0.0211719 0.00293675 0.00809409 0.00335467 0.0283942 0.00484579 0.0166032 0.00463683 0.0295973 0.00616091 0.0198711 0.00719406 0.0506427
46 3 O 2.18828 10.7603 4.4844 -1.2 1 0.0030566 0.00423657 0.00213249 0.00483809 0.00269942 0.00733701 0.00299431 0.020961 0.00247902 0.00808976 0.00243606 0.0290679 0.00433286 0.015846 0.00451214 0.0307255 0.0062646 0.0202037 0.00685349 0.0513723
47 3 O -4.43805 8.17302 4.4844 -1.2 1 0.00198488 0.00434258 0.00194121 0.00527485 0.00262314 0.00799491 0.00344914 0.0206307 0.00339497 0.00798699 0.0034113 0.0286079 0.00478123 0.0159736 0.00517824 0.0294968 0.00695552 0.0197376 0.00910382 0.04878
48 3 O 2.89193 8.44087 3.18632 -1.2 1 0.0022064 0.00361166 0.00185807 0.00444625 0.00252782 0.00699963 0.00326536 0.0206183 0.00292362 0.00841072 0.00306407 0.0277498 0.00391487 0.0158586 0.0047087 0.0289871 0.00612859 0.0188551 0.00618118 0.048829
49 1 Mg 1.25915 7.12349 0 1.2 1 0.000913436 0.00311223 0.00135078 0.00412974 0.00185256 0.0072604 0.00281195 0.0201779 0.00291297 0.00817653 0.00268477 0.0276079 0.00341412 0.014324 0.00356946 0.0274857 0.00479982 0.0175857 0.00455099 0.0462873
50 3 O 2.84547 8.44087 5.78248 -1.2 1 0.0031185 0.00446795 0.00174819 0.00494485 0.00251686 0.00681553 0.00331481 0.02069 0.00298846 0.0085436 0.00345409 0.0273582 0.0055598 0.0163214 0.00523984 0.0297629 0.00647734 0.0213338 0.0079302 0.0500818
51 1 Mg -1.59284 7.16481 1.4948 1.2 1 0.000912855 0.00340621 0.00135535 0.00469052 0.00193013 0.00649241 0.0027279 0.019957 0.00296619 0.00776098 0.00192376 0.0277216 0.00337302 0.0155115 0.00374361 0.0271821 0.00478018 0.0177137 0.00575757 0.0468601
52 2 Si 0.240329 5.09994 1.4948 2.4 1 0.00114042 0.00363149 0.0019862 0.0041749 0.00192034 0.00679881 0.00304367 0.0189539 0.00321784 0.00727139 0.00231967 0.0260251 0.00286198 0.0145675 0.00405497 0.0247818 0.00520141 0.0170365 0.00546756 0.0448677
53 3 O 0.234538 3.48671 1.4948 -1.2 1 0.00167289 0.00365727 0.00243295 0.00443637 0.00189246 0.00644242 0.00257363 0.0178724 0.00352453 0.00691862 0.00236207 0.0244646 0.00317342 0.013687 0.00391634 0.0239415 0.00557175 0.0161171 0.00564718 0.0425297
54 3 O 6.85564 6.07396 1.4948 -1.2 1 0.00084439 0.00272874 0.00235319 0.00490925 0.00260183 0.00612855 0.00304406 0.0198955 0.00318221 0.00748775 0.00228833 0.0276905 0.00322419 0.0146981 0.0047862 0.0269021 0.00566777 0.0177071 0.00649723 0.0456378
55 3 O -0.429565 5.80612 0.196716 -1.2 1 0.000981582 0.00327206 0.00210416 0.0042574 0.00190484 0.00714633 0.00251573 0.0195501 0.00293963 0.00833156 0.00246773 0.0256885 0.00266898 0.0141196 0.00378396 0.0258917 0.00509144 0.016883 0.00576043 0.0454629
56 3 O -0.473377 5.80612 2.79288 -1.2 1 0.00157612 0.00341333 0.00179366 0.00456522 0.00247459 0.00668376 0.0030114 0.0191778 0.00323142 0.00790388 0.00320764 0.0259723 0.00379265 0.0144252 0.00466122 0.0265097 0.00653829 0.0184787 0.00697441 0.0459007
57 1 Mg 6.40169 9.49799 0 1.2 1 0.000201751 0.00380407 0.00146126 0.00462217 0.00155795 0.00837438 0.00204417 0.0210812 0.00159732 0.00889536 0.00174866 0.0288133 0.00244892 0.0147584 0.00266764 0.0297817 0.00378206 0.0180082 0.00401218 0.0478317
58 1 Mg 3.64209 14.2057 1.4948 1.2 1 0.00162449 0.00298905 0.00147475 0.00452409 0.00162346 0.00889501 0.00165793 0.021768 0.00174151 0.00875207 0.00231716 0.028552 0.00263415 0.0161926 0.00316419 0.0294517 0.00364673 0.0169681 0.0034384 0.0496677
59 2 Si 5.45748 11.5215 1.4948 2.4 1 0.00155149 0.00305135 0.00158845 0.00459041 0.00177466 0.00834995 0.00222927 0.0210746 0.00153341 0.00827653 0.00189937 0.0290041 0.00265025 0.0161801 0.00341741 0.0293192 0.00426754 0.016978 0.00383181 0.0495257
60 3 O 5.51101 13.1348 1.4948 -1.2 1 0.00163019 0.00317759 0.00165066 0.00458202 0.00154595 0.00923603 0.00184185 0.0212038 0.00183815 0.00864025 0.00182544 0.0294935 0.00219222 0.0162083 0.00283071 0.0299001 0.00387786 0.0167006 0.00358816 0.0493856
61 3 O 1.83851 10.5475 1.4948 -1.2 1 0.00090243 0.00324052 0.00156031 0.00469275 0.00190453 0.00776201 0.0022793 0.0216335 0.00180457 0.00841777 0.00226418 0.0294165 0.00254241 0.0156835 0.00327062 0.0298311 0.00424118 0.017939 0.00367477 0.0494822
62 3 O 4.7611 10.8154 0.196716 -1.2 1 0.000551689 0.00285555 0.00171325 0.00460628 0.00150022 0.00870536 0.00216015 0.0212972 0.00140525 0.008706 0.00185997 0.028344 0.00297769 0.015573 0.00390613 0.0294703 0.00382609 0.0172795 0.00358233 0.0488589
63 1 Mg 6.35203 9.49799 2.9896 1.2 1 0.00161145 0.00381202 0.00168215 0.00495054 0.00267489 0.00773597 0.00347787 0.0203503 0.00316886 0.00841951 0.00234388 0.0292685 0.00382004 0.0161794 0.00357966 0.029331 0.00450174 0.0184563 0.00568504 0.0491923
64 3 O 4.71833 10.8154 2.79288 -1.2 1 0.00249452 0.00341043 0.0016772 0.00462386 0.00212281 0.00836268 0.00224368 0.0214604 0.00198021 0.00882571 0.00230489 0.0284585 0.00358364 0.0160574 0.00422536 0.0301378 0.00534578 0.0185567 0.00558958 0.050345
65 1 Mg -1.0438 9.53931 4.4844 1.2 1 0.00293204 0.00455886 0.0015777 0.00468656 0.00305985 0.0068897 0.00252957 0.0211237 0.00288135 0.00828471 0.00290166 0.0285852 0.00406133 0.0165177 0.00470219 0.0300403 0.00676811 0.0201554 0.0072446 0.0503825
66 2 Si -2.8604 12.2234 4.4844 2.4 1 0.00293005 0.00423141 0.0018031 0.00472957 0.00277755 0.00800937 0.00307443 0.0218557 0.002931 0.00850421 0.00253833 0.0286677 0.00448317 0.0166775 0.00453277 0.0300839 0.00582457 0.0195524 0.00665803 0.0520644
67 3 O -2.91391 10.6102 4.4844 -1.2 1 0.00313884 0.00439731 0.00174969 0.00473264 0.00292021 0.0072329 0.00317457 0.0207191 0.00261655 0.0078635 0.00237882 0.0289519 0.00444654 0.0159555 0.00452224 0.0307841 0.00614589 0.0199178 0.00694008 0.0511129
68 3 O 0.7596 13.1975 4.4844 -1.2 1 0.00275854 0.00411865 0.00203894 0.00513402 0.0028189 0.00878713 0.00247137 0.0224196 0.00273337 0.00849768 0.00292709 0.0290439 0.00443017 0.0166381 0.00409722 0.030219 0.00605497 0.0198517 0.0065861 0.0519167
69 3 O -2.12001 12.9296 3.18632 -1.2 1 0.00302563 0.00381364 0.00162146 0.00438786 0.00247046 0.00785603 0.00231668 0.0217476 0.0024499 0.00838418 0.00238249 0.0282041 0.00375872 0.0164385 0.00448894 0.0303992 0.00521475 0.0185358 0.00551093 0.0512241
70 3 O -2.16532 12.9296 5.78248 -1.2 1 0.00335405 0.00446916 0.00183226 0.00493549 0.00293938 0.00726615 0.00241073 0.0222388 0.00264955 0.00843691 0.00276942 0.0282392 0.00441981 0.0173721 0.00443602 0.0312052 0.006363 0.0213631 0.0071784 0.0538072
71 1 Mg 1.29891 11.8725 2.9896 1.2 1 0.00213466 0.00323868 0.00190063 0.0047928 0.00246992 0.00812915 0.00280007 0.0211257 0.00258306 0.00856951 0.00216972 0.0293285 0.00342309 0.0162357 0.00348923 0.029958 0.00481472 0.0179877 0.00502135 0.0500684
72 1 Mg 4.10033 11.8312 4.4844 1.2 1 0.0028581 0.00388989 0.00220516 0.00459127 0.00256249 0.00752296 0.00271597 0.0213979 0.00256955 0.00823647 0.0028026 0.0292751 0.00402849 0.0175023 0.00522511 0.0304468 0.00665671 0.0197115 0.00639164 0.0516119
73 2 Si 2.27333 13.896 4.4844 2.4 1 0.00248524 0.00349477 0.00206657 0.00528251 0.00295969 0.00816663 0.00318051 0.0220142 0.0025839 0.00831936 0.00302201 0.0286163 0.00412723 0.0170205 0.00446882 0.0301565 0.00565104 0.019096 0.00622343 0.0526338
74 3 O 2.28634 15.5093 4.4844 -1.2 1 0.00277584 0.00418529 0.00195761 0.0048645 0.00290328 0.00765886 0.00281048 0.0212307 0.00272636 0.00786449 0.00220988 0.0290411 0.00354061 0.0163491 0.00414174 0.0306334 0.00581665 0.0190394 0.00642787 0.0521866
75 3 O -4.34533 12.922 4.4844 -1.2 1 0.0027296 0.00415076 0.0021836 0.00493273 0.00281802 0.00866988 0.00296068 0.0218916 0.00293087 0.00852545 0.00260802 0.029096 0.00422657 0.0165292 0.00481041 0.0305712 0.00643221 0.0199396 0.00736328 0.0519298
76 3 O 2.98455 13.1899 3.18632 -1.2 1 0.00239884 0.00331548 0.0018845 0.00453347 0.00252687 0.00799842 0.0021599 0.0218429 0.0022575 0.0085003 0.00246175 0.0283953 0.00373635 0.0163722 0.00437253 0.0301763 0.00566437 0.0184461 0.00551219 0.0509982
77 1 Mg 1.34779 11.8725 0 1.2 1 0.000982829 0.00277696 0.00108058 0.00450001 0.00122506 0.00898073 0.00150505 0.0212932 0.00130171 0.00912893 0.00193189 0.0291661 0.00282885 0.0149038 0.00291706 0.0300701 0.00322464 0.0173463 0.0032428 0.0484234
78 3 O 2.93934 13.1899 5.78248 -1.2 1 0.00290684 0.00454803 0.00209744 0.0051316 0.00279788 0.00741822 0.00267588 0.0221928 0.00257775 0.00853893 0.00322801 0.0279739 0.00456329 0.0171838 0.00493096 0.0313186 0.00631779 0.0217115 0.00671518 0.0536712
79 1 Mg -1.50344 11.9138 1.4948 1.2 1 0.00133039 0.00357955 0.00135993 0.00453082 0.00138892 0.00844114 0.00198048 0.0216451 0.00232771 0.00854843 0.00156246 0.0287848 0.00357106 0.0161653 0.00331055 0.0297334 0.00363156 0.017572 0.00383126 0.0493564
80 2 Si 0.326006 9.84894 1.4948 2.4 1 0.00054952 0.00343076 0.00119927 0.00484777 0.00196185 0.0083632 0.00206406 0.0210963 0.00213245 0.00838389 0.00177619 0.0285989 0.00286872 0.0157386 0.00357172 0.0288533 0.00397533 0.0177344 0.00363175 0.0488222
81 3 O 0.317364 8.23571 1.4948 -1.2 1 0.00108467 0.00361906 0.00107433 0.00449254 0.00194076 0.00779032 0.00213689 0.0202439 0.00268911 0.00788957 0.0019413 0.0286864 0.00340754 0.0156827 0.00380817 0.0286304 0.00458464 0.0177553 0.00441971 0.0478667
82 3 O 6.94307 10.823 1.4948 -1.2 1 0.0012964 0.00371183 0.001338 0.00452418 0.00184895 0.00794298 0.00262574 0.0217296 0.00238156 0.00830855 0.00163088 0.0294689 0.00300694 0.0159399 0.00335667 0.029973 0.00397823 0.0179886 0.0042646 0.0495626
83 3 O -0.343122 10.5551 0.196716 -1.2 1 0.000392325 0.0030817 0.001135 0.00449628 0.00140882 0.00857976 0.00190766 0.0213116 0.00178995 0.0088513 0.00197013 0.0282771 0.00336121 0.0154694 0.00403632 0.0293875 0.00364583 0.0174244 0.00334903 0.0487133
84 3 O -0.385966 10.5551 2.79288 -1.2 1 0.00271608 0.00371521 0.00124101 0.00459597 0.00254555 0.00822338 0.00231349 0.021486 0.00215731 0.00900338 0.00251034 0.0279047 0.00389252 0.0159411 0.00414585 0.0300352 0.00531821 0.0186127 0.00523834 0.0501927
85 1 Mg 6.49448 14.247 0 1.2 1 0.00103138 0.00321641 0.00146478 0.00459541 0.00101276 0.00935359 0.0012498 0.0212395 0.00123819 0.00861116 0.00139464 0.0289658 0.00161131 0.0154101 0.00242442 0.0299797 0.00313286 0.0166113 0.00278349 0.0484159
86 1 Mg 3.74457 18.9547 1.4948 1.2 1 0.00178319 0.00312815 0.00147602 0.00409142 0.00178091 0.00861758 0.00118713 0.0222088 0.00200978 0.00805497 0.00230735 0.0281136 0.00247335 0.0165651 0.00342728 0.0288099 0.003576 0.0164073 0.0031274 0.0498862
87 2 Si 5.55495 16.2705 1.4948 2.4 1 0.00186947 0.00299142 0.00145872 0.00438189 0.00179522 0.00903553 0.0013395 0.0214362 0.00138469 0.00800668 0.001276 0.0289029 0.0022236 0.0163384 0.00278848 0.0289276 0.00382722 0.0160177 0.00350798 0.0496504
88 3 O 5.6115 17.8838 1.4948 -1.2 1 0.0018193 0.00304424 0.00158323 0.00424064 0.00173402 0.00926389 0.00141018 0.0217101 0.00193646 0.00791374 0.00134024 0.0290309 0.00199134 0.0166154 0.00266212 0.0289204 0.00330516 0.0159306 0.00332628 0.0497121
89 3 O 1.93416 15.2965 1.4948 -1.2 1 0.00157374 0.00299999 0.00150682 0.00454786 0.00182399 0.00850159 0.00188646 0.021993 0.00194974 0.00821627 0.00146564 0.0293424 0.00201349 0.016273 0.002898 0.029722 0.00395436 0.0166541 0.00322719 0.0499971
90 3 O 4.85636 15.5644 0.196716 -1.2 1 0.00143926 0.00257376 0.00123116 0.00450066 0.00119684 0.00924692 0.00141708 0.0214421 0.00105379 0.00827611 0.00158725 0.0283124 0.00253961 0.0160826 0.00352124 0.0292444 0.00327341 0.0159388 0.00298827 0.0491661
91 1 Mg 6.44662 14.247 2.9896 1.2 1 0.00178764 0.00368446 0.0015394 0.00453101 0.00247213 0.00868258 0.00283952 0.020858 0.00266374 0.00876294 0.00199382 0.0296061 0.00322705 0.0165586 0.00318108 0.0295689 0.00413773 0.0176509 0.00470002 0.0501316
92 3 O 4.81537 15.5644 2.79288 -1.2 1 0.00243586 0.00324633 0.00157509 0.00447596 0.00229687 0.00892617 0.00163082 0.0218216 0.00172526 0.00866923 0.00183213 0.0282557 0.00291221 0.0164847 0.00359429 0.0297809 0.00483374 0.0173881 0.00479118 0.0505887
93 1 Mg -0.948271 14.2883 4.4844 1.2 1 0.00306726 0.00392695 0.00178277 0.00460251 0.00280871 0.00804665 0.00261643 0.0217213 0.00281695 0.00839062 0.00277328 0.0288888 0.00360096 0.01708 0.00482799 0.0304373 0.00603792 0.0190943 0.00652449 0.0520864
94 2 Si -2.75928 16.9724 4.4844 2.4 1 0.00270979 0.00385576 0.00185943 0.00478706 0.00282307 0.00803284 0.00279756 0.0221668 0.00278415 0.00791425 0.00248429 0.0284924 0.00363419 0.0172888 0.00442957 0.0297854 0.00527958 0.0186882 0.00608018 0.0527597
95 3 O -2.81617 15.3592 4.4844 -1.2 1 0.00318376 0.0040646 0.001996 0.00461095 0.00295416 0.00783487 0.00295721 0.0211405 0.0027245 0.00781349 0.00224636 0.0290598 0.0038881 0.0163957 0.00419524 0.0304668 0.006077 0.0187859 0.00660584 0.0520207
96 3 O 0.862762 17.9465 4.4844 -1.2 1 0.00245153 0.00417975 0.00182134 0.00490357 0.00296332 0.00861689 0.00260725 0.0225528 0.00284419 0.00808727 0.00246532 0.0289727 0.0038646 0.0171879 0.00446439 0.0294576 0.00577923 0.0189235 0.00613003 0.0523115
97 3 O -2.0185 17.6786 3.18632 -1.2 1 0.0025078 0.00362704 0.00195258 0.00407654 0.00267173 0.00781796 0.00225319 0.0223675 0.0025058 0.0080521 0.00198662 0.0279827 0.00347556 0.0167065 0.00419941 0.0297596 0.00492871 0.0175895 0.00503993 0.0515279
98 3 O -2.06164 17.6786 5.78248 -1.2 1 0.00290033 0.00448043 0.00182182 0.00468162 0.00292195 0.00717655 0.00254679 0.0224862 0.00267032 0.00801772 0.00257596 0.0282406 0.0036377 0.0176334 0.00458888 0.031067 0.00616354 0.0208371 0.00648571 0.054367
99 1 Mg 1.39817 16.6215 2.9896 1.2 1 0.00230345 0.00334994 0.001798 0.00465561 0.0026014 0.0085479 0.00255253 0.021345 0.00266939 0.00818777 0.00196423 0.0290591 0.00271915 0.0167956 0.00320894 0.029565 0.00427125 0.016963 0.00434682 0.0505256
100 1 Mg 4.20062 16.5802 4.4844 1.2 1 0.00257484 0.00372685 0.00217082 0.00467093 0.00281886 0.0079516 0.0024664 0.0219116 0.00318383 0.00796031 0.00266878 0.0287686 0.00348408 0.0176717 0.00547511 0.0300502 0.00646611 0.0188668 0.0062149 0.0522137
101 2 Si 2.37796 18.645 4.4844 2.4 1 0.00223784 0.00363331 0.00183813 0.00483809 0.00300945 0.00815916 0.0029533 0.0225368 0.00273115 0.00815238 0.00270206 0.0282962 0.00369846 0.0174081 0.00467172 0.0294805 0.00532991 0.0184231 0.00560738 0.0531137
102 3 O 2.39434 20.2583 4.4844 -1.2 1 0.0023357 0.00390689 0.00167938 0.00476614 0.00310544 0.00725255 0.00279911 0.0217653 0.00286354 0.00741731 0.00207156 0.0290354 0.00336534 0.0169091 0.00426732 0.0299429 0.00559854 0.0184764 0.00642697 0.0526178
103 3 O -4.24274 17.671 4.4844 -1.2 1 0.00231007 0.00425435 0.00202731 0.00482654 0.00283273 0.00877103 0.00278607 0.0226116 0.00295418 0.00803125 0.00246385 0.0289737 0.00347273 0.0171065 0.00499827 0.029888 0.00596684 0.0190252 0.00648979 0.052393
104 3 O 3.08659 17.9389 3.18632 -1.2 1 0.00239622 0.00331831 0.00183312 0.00426971 0.00271568 0.00799688 0.00202238 0.022217 0.00243884 0.00807039 0.00218021 0.0279826 0.0033452 0.0168778 0.0042785 0.0295813 0.00539623 0.0175935 0.00529122 0.0513821
105 1 Mg 1.44478 16.6215 0 1.2 1 0.00207334 0.00263973 0.000919931 0.00426558 0.00114641 0.0090171 0.000967549 0.0215096 0.00141173 0.0083303 0.00155664 0.0288878 0.00213752 0.0157184 0.00222544 0.0292323 0.00290087 0.0161846 0.0028185 0.0487773
106 3 O 3.0436 17.9389 5.78248 -1.2 1 0.00250878 0.00418509 0.00164699 0.00514778 0.00284749 0.00731812 0.0024291 0.0225531 0.00240279 0.00827654 0.00274547 0.0281796 0.00399499 0.0174112 0.00515118 0.0308121 0.00634387 0.0207599 0.00650472 0.0544203
107 1 Mg -1.40524 16.6628 1.4948 1.2 1 0.00144465 0.00318902 0.0014082 0.00443844 0.00169028 0.00879418 0.00178712 0.0221411 0.00195122 0.0083238 0.00168179 0.028496 0.00296217 0.0167479 0.00279542 0.0293284 0.00301499 0.0167218 0.00312381 0.0496781
108 2 Si 0.420358 14.5979 1.4948 2.4 1 0.00146476 0.00284542 0.0014858 0.00470282 0.00188151 0.00910925 0.00175109 0.0214192 0.00173462 0.00835604 0.00146481 0.0287623 0.00288268 0.0164346 0.00340795 0.0289165 0.00361603 0.0165159 0.00327827 0.0494542
109 3 O 0.408732 12.9847 1.4948 -1.2 1 0.00152503 0.00302223 0.00127274 0.00470781 0.001786 0.00918635 0.00151142 0.0211479 0.00220841 0.00847333 0.00146863 0.0292508 0.00305312 0.0160013 0.00300092 0.0298557 0.00338474 0.0169692 0.00369115 0.0493893
110 3 O 7.03923 15.572 1.4948 -1.2 1 0.00140608 0.00320647 0.00142651 0.00434433 0.00202443 0.00840255 0.00223521 0.0217882 0.0021651 0.00813925 0.00144488 0.0294619 0.00247049 0.0164472 0.00279098 0.0295907 0.00357218 0.0168005 0.00371527 0.049803
111 3 O -0.248332 15.3041 0.196716 -1.2 1 0.00163873 0.00268542 0.00115806 0.0044558 0.000935209 0.0090863 0.0018468 0.0212608 0.00137191 0.00839193 0.0015978 0.028303 0.00286372 0.0159297 0.00372366 0.0292035 0.00309587 0.0161572 0.00287767 0.0489633
112 3 O -0.289436 15.3041 2.79288 -1.2 1 0.00265245 0.00333075 0.00145025 0.00430296 0.00245055 0.00875941 0.00197823 0.0219852 0.00195514 0.00883194 0.00195664 0.0278188 0.0031544 0.0166924 0.00365328 0.0296898 0.00462459 0.0175514 0.00459665 0.0505903
113 1 Mg 6.59566 18.996 0 1.2 1 0.00134955 0.00289584 0.00130211 0.00408794 0.000873501 0.00863828 0.00113082 0.0219911 0.00123141 0.00796654 0.00131903 0.0284818 0.00185094 0.0164541 0.00219524 0.0286282 0.00272464 0.015999 0.00262238 0.0488968
114 1 Mg 3.85574 23.7037 1.4948 1.2 1 0.00177421 0.00261289 0.00125486 0.0041651 0.00173216 0.007472 0.00119384 0.0233062 0.00183563 0.00762318 0.00227397 0.0275165 0.00244153 0.0175723 0.00368427 0.0284184 0.00323686 0.0173664 0.00329942 0.0507998
115 2 Si 5.66125 21.0195 1.4948 2.4 1 0.00170755 0.00270151 0.0011562 0.00411364 0.00197559 0.0082744 0.00135512 0.0220599 0.00138108 0.00760647 0.0014374 0.0283402 0.00240472 0.0175096 0.00262889 0.027955 0.00355194 0.0159914 0.00375341 0.0504559
116 3 O 5.72074 22.6328 1.4948 -1.2 1 0.00169695 0.00270263 0.00157205 0.00414353 0.00187539 0.00824179 0.00149978 0.0225188 0.00182239 0.00732493 0.00131903 0.0283111 0.00214716 0.0173459 0.00277836 0.0282953 0.00316436 0.0164207 0.00347923 0.050355
117 3 O 2.03867 20.0455 1.4948 -1.2 1 0.00144653 0.00324733 0.00145252 0.00435538 0.00197141 0.00790323 0.00194181 0.0223729 0.00225688 0.00754495 0.001397 0.0288491 0.00207806 0.0172678 0.00240188 0.028809 0.00360801 0.0162675 0.0033008 0.050474
118 3 O 4.96004 20.3134 0.196716 -1.2 1 0.00179806 0.00237927 0.00115491 0.00402247 0.00110053 0.00834805 0.00107887 0.0218911 0.00107255 0.00763527 0.00149314 0.0280333 0.00254019 0.0167081 0.00370302 0.0285969 0.00295649 0.0153638 0.00279538 0.0495723
119 1 Mg 6.55057 18.996 2.9896 1.2 1 0.00155394 0.0036775 0.00153256 0.00427293 0.00266719 0.00830227 0.00274005 0.0215025 0.00249041 0.00798972 0.00159396 0.0292875 0.00287471 0.0170455 0.00299721 0.0288642 0.00393924 0.0170167 0.00447172 0.0506855