ITEM: TIMESTEP
5000
ITEM: NUMBER OF ATOMS
10500
ITEM: BOX BOUNDS xy xz yz pp pp pp
0	15.2977	5.09925
0	118.725	0
0	89.688	0
ITEM: ATOMS id type element xu yu zu q Q_1 Q_2 Q_3 Q_4 Q_5 Q_6 Q_7 Q_8 Q_9 Q_10 Q_11 Q_12 Q_13 Q_14 Q_15 Q_16 Q_17 Q_18 Q_19 Q_20 Q_21
1 1 Mg 6.2404 -6.37941e-06 0 1.2 1 0.00139989 0.0040393 0.00120974 0.0048985 0.00108218 0.00563404 0.00215374 0.0162377 0.0022495 0.00581387 0.00213265 0.0220411 0.00240802 0.0134779 0.00341937 0.0206279 0.00404828 0.0143586 0.00394896 0.0405445
2 1 Mg 3.46349 4.70768 1.4948 1.2 1 0.00130137 0.00299116 0.00172762 0.00439507 0.00186032 0.00610482 0.0035717 0.0187641 0.00279248 0.00705135 0.00289297 0.0259159 0.00316986 0.0137725 0.00448095 0.0252556 0.00549202 0.0172862 0.0059535 0.0436012
3 2 Si 5.2885 2.02354 1.4948 2.4 1 0.000907268 0.00313602 0.0020959 0.00464025 0.00173844 0.00569701 0.00254964 0.0170164 0.00246362 0.00616517 0.00208434 0.0234959 0.00277489 0.0134986 0.00377438 0.0216178 0.00393282 0.0154632 0.00445479 0.0411365
4 3 O 5.33628 3.63678 1.4948 -1.2 1 0.000749248 0.0024753 0.00187604 0.00478747 0.00199227 0.0062818 0.00291544 0.0178042 0.00224751 0.00676494 0.00197612 0.0253744 0.00251729 0.0136431 0.00442378 0.0240192 0.00512555 0.0165531 0.0059092 0.0427167
5 3 O 1.67294 1.04952 1.4948 -1.2 1 0.00180043 0.00317547 0.00210345 0.00419213 0.00121519 0.00567885 0.00255768 0.0169082 0.00240311 0.0060663 0.00209015 0.0228706 0.00265933 0.0127984 0.00335676 0.0218836 0.00462037 0.0158112 0.0048682 0.0401002
6 3 O 4.59532 1.31737 0.196716 -1.2 1 0.00142314 0.00291157 0.0021359 0.00438955 0.00189272 0.00566851 0.00236491 0.0171488 0.0026656 0.00632916 0.00201396 0.0225703 0.00317094 0.0128161 0.00422109 0.0214678 0.00426146 0.0150226 0.00463606 0.0409205
7 1 Mg 6.18956 -6.37941e-06 2.9896 1.2 1 0.00113985 0.00420189 0.00145041 0.00422921 0.00108421 0.00570533 0.00250315 0.016144 0.00272297 0.00560492 0.00177333 0.0225524 0.0028547 0.0132866 0.00365822 0.0205901 0.00453784 0.0149767 0.0050894 0.0388254
8 3 O 4.55118 1.31737 2.79288 -1.2 1 0.00138168 0.00403893 0.00188439 0.00432975 0.0016322 0.00565332 0.00257108 0.0170093 0.00250187 0.00697466 0.00237932 0.02195 0.00341422 0.0122384 0.00347094 0.021588 0.00485591 0.0156776 0.00544898 0.0399806
9 1 Mg -1.20682 0.0413099 4.4844 1.2 1 0.000458659 0.00269309 0.00168188 0.00440239 0.00122185 0.00555348 0.00209792 0.016232 0.00215819 0.00603351 0.00215223 0.0229737 0.00307601 0.0116716 0.00373117 0.0208798 0.00540357 0.0159383 0.00533895 0.0385326
10 2 Si -3.0337 2.72544 4.4844 2.4 1 0.000488512 0.00299508 0.0017443 0.00474229 0.00212342 0.00623841 0.0033611 0.0167774 0.00332951 0.00635829 0.00233655 0.0242383 0.0033316 0.0128975 0.00418758 0.022549 0.00554137 0.0180091 0.00655467 0.0397927
11 3 O -3.08099 1.11221 4.4844 -1.2 1 0.000571597 0.00347146 0.00174759 0.00421362 0.00123995 0.00542123 0.00248108 0.0162267 0.00285859 0.00579628 0.00219398 0.0226303 0.00330117 0.011278 0.00369298 0.021375 0.00510446 0.0165097 0.00569554 0.0384393
12 3 O 0.582463 3.69946 4.4844 -1.2 1 0.00178469 0.00419468 0.00222547 0.00430897 0.00251601 0.00669089 0.00360832 0.017424 0.00338001 0.00665349 0.00322055 0.0251152 0.00420008 0.0129083 0.00457075 0.0245228 0.00701956 0.0190379 0.0084587 0.041882
13 3 O -2.29524 3.43162 3.18632 -1.2 1 0.000777082 0.0023771 0.00251774 0.00446739 0.00218357 0.00599082 0.00301606 0.0179234 0.00331897 0.00676774 0.00269186 0.0248145 0.0033805 0.0129514 0.00488001 0.024382 0.00605905 0.0181711 0.00686352 0.0419446
14 3 O -2.34216 3.43162 5.78248 -1.2 1 0.00147735 0.00347434 0.00127002 0.004757 0.00259036 0.00604492 0.0033859 0.0172011 0.00301707 0.00745498 0.00266547 0.0239307 0.0046073 0.0125031 0.00429307 0.023658 0.00659386 0.0197673 0.00794357 0.0405486
15 1 Mg 1.12778 2.37449 2.9896 1.2 1 0.00164777 0.00327325 0.00239851 0.00441479 0.00221272 0.00588162 0.00315296 0.016756 0.00275792 0.00631614 0.00247089 0.0237784 0.00339097 0.0129166 0.00354549 0.0220089 0.00492784 0.0167437 0.00577881 0.0406692
16 1 Mg 3.92855 2.33318 4.4844 1.2 1 0.00135674 0.00415203 0.00156477 0.00423494 0.00182979 0.00566918 0.0035369 0.0168719 0.00317886 0.00626306 0.0030167 0.0231435 0.00375846 0.0132394 0.00524945 0.0220777 0.00645267 0.0174562 0.00733796 0.0401442
17 2 Si 2.09341 4.39804 4.4844 2.4 1 0.0012199 0.00386266 0.00209889 0.00410257 0.00295284 0.00592005 0.00389509 0.0182559 0.0035487 0.0067919 0.00348852 0.025304 0.00463859 0.0139471 0.00461801 0.0248967 0.00683137 0.0188487 0.00863837 0.0434343
18 3 O 2.09991 6.01128 4.4844 -1.2 1 0.00184249 0.00406534 0.00172849 0.00409375 0.00289341 0.00646883 0.00336104 0.0194045 0.00285591 0.00742937 0.0031938 0.0271049 0.00433029 0.0144052 0.00501042 0.0275467 0.00692825 0.0199388 0.00840014 0.0456015
19 3 O -4.52137 3.42402 4.4844 -1.2 1 0.00105554 0.00343253 0.00209857 0.00450073 0.00220906 0.00709199 0.00355913 0.0170819 0.00347261 0.00643579 0.00291725 0.0240501 0.00412585 0.012756 0.00433699 0.0229384 0.006369 0.0180755 0.00782976 0.0411826
20 3 O 2.80834 3.69187 3.18632 -1.2 1 0.00120731 0.0034393 0.00175557 0.00380005 0.00197096 0.00590432 0.00316029 0.0175107 0.00304102 0.00652607 0.00291389 0.0244528 0.00369434 0.0129227 0.00486315 0.0239034 0.00579882 0.0173793 0.00662409 0.0425135
21 1 Mg 1.17857 2.37449 0 1.2 1 0.00223501 0.00334108 0.00232696 0.00417258 0.00136634 0.0054252 0.00259477 0.0172919 0.00235135 0.00666071 0.00279609 0.023351 0.00287323 0.0132967 0.00371015 0.0217358 0.00430199 0.0150872 0.00473916 0.0409318
22 3 O 2.76143 3.69187 5.78248 -1.2 1 0.00180592 0.00411107 0.00199671 0.00418262 0.00221678 0.00550468 0.00315509 0.0176454 0.00336863 0.00723168 0.0029403 0.0237566 0.00494585 0.0131352 0.00580872 0.0236183 0.00684114 0.019032 0.00789899 0.041585
23 1 Mg -1.67381 2.41581 1.4948 1.2 1 0.00160915 0.0022994 0.00258639 0.00489346 0.00137905 0.005982 0.00252037 0.0167084 0.00279033 0.00638932 0.00200664 0.0245047 0.00260656 0.014238 0.00298666 0.0222496 0.00444838 0.0162478 0.00495345 0.04171
24 2 Si 0.16286 0.350945 1.4948 2.4 1 0.00211056 0.00247109 0.00287564 0.00457277 0.00120937 0.00633101 0.00274245 0.0164012 0.00208926 0.00532028 0.00196429 0.0229523 0.00247579 0.0134292 0.00311755 0.0206839 0.00460467 0.0149775 0.0043604 0.0400175
25 3 O 0.15972 -1.26229 1.4948 -1.2 1 0.00204876 0.00257612 0.00298442 0.00446437 0.00164627 0.00591849 0.00252382 0.0164726 0.00231857 0.00561075 0.00241411 0.0228775 0.00255171 0.0137085 0.00281907 0.0216484 0.00422696 0.0148323 0.00406307 0.0405657
26 3 O 6.77654 1.32496 1.4948 -1.2 1 0.00137213 0.00347604 0.00162019 0.00469942 0.00120771 0.00596487 0.00234481 0.0168085 0.00258077 0.00557651 0.00178588 0.0238937 0.00276292 0.0134812 0.00360539 0.0218512 0.0046787 0.0154491 0.00459363 0.0406718
27 3 O -0.508028 1.05712 0.196716 -1.2 1 0.00176066 0.00265607 0.00355952 0.00426052 0.00128731 0.00553724 0.00242669 0.0171346 0.00183764 0.00670699 0.00257741 0.0221824 0.00270243 0.0127201 0.00315022 0.0213157 0.00423035 0.0151816 0.00441904 0.0401575
28 3 O -0.552171 1.05712 2.79288 -1.2 1 0.00118927 0.00189532 0.00285715 0.00426005 0.00125027 0.00592508 0.00242223 0.0163232 0.00248682 0.00646752 0.00173958 0.0229505 0.00310962 0.0117394 0.00355094 0.0216203 0.00517299 0.0159011 0.00505257 0.0394975
29 1 Mg 6.31713 4.74899 0 1.2 1 0.00101671 0.00241936 0.00194173 0.0047899 0.00238324 0.00616955 0.00328767 0.0181498 0.00281194 0.00718941 0.00226893 0.0254602 0.00285368 0.0137819 0.00430665 0.0246623 0.00482103 0.0164095 0.00602498 0.0429634
30 1 Mg 3.54847 9.45668 1.4948 1.2 1 0.000754403 0.00305939 0.00199484 0.00454557 0.00203604 0.00762915 0.00315754 0.02142 0.0018381 0.00852264 0.00244577 0.0287346 0.0034032 0.0157039 0.00408583 0.029143 0.00440888 0.0182182 0.00409635 0.0488911
31 2 Si 5.36879 6.77254 1.4948 2.4 1 0.000410653 0.00271096 0.00199681 0.00505152 0.00266922 0.00688771 0.00384894 0.0196459 0.00272131 0.00795299 0.00249861 0.027873 0.00326134 0.0153341 0.00435411 0.0270072 0.0048308 0.0173795 0.0054529 0.0465232
32 3 O 5.41937 8.38578 1.4948 -1.2 1 0.00055022 0.00289259 0.0017094 0.00494265 0.00221843 0.00769401 0.00324136 0.0209859 0.00221949 0.00848477 0.00245068 0.0291931 0.0025203 0.0156122 0.0032536 0.0291496 0.00479917 0.017535 0.00507546 0.0481428
33 3 O 1.75158 5.79852 1.4948 -1.2 1 0.00116451 0.00312457 0.00181224 0.00405576 0.002426 0.00596803 0.00337857 0.0196328 0.00285033 0.00739849 0.00268769 0.0280958 0.00302677 0.0153761 0.00372519 0.0268339 0.00552098 0.0177232 0.00577969 0.0456562
34 3 O 4.67421 6.06637 0.196716 -1.2 1 0.000782021 0.00264391 0.00175464 0.00485756 0.00197162 0.00684772 0.00300319 0.0198741 0.00252033 0.00830196 0.00215316 0.0264875 0.00351866 0.0143664 0.00436454 0.026698 0.0048001 0.0167777 0.00570933 0.0451604
35 1 Mg 6.26654 4.74899 2.9896 1.2 1 0.00143223 0.00270369 0.0021779 0.00486684 0.00258971 0.00663359 0.00386102 0.0179956 0.00380884 0.00712352 0.00217316 0.0261495 0.00373197 0.0144468 0.00504647 0.0250731 0.00595183 0.0178961 0.00725195 0.0435725
36 3 O 4.63043 6.06637 2.79288 -1.2 1 0.00175339 0.00305974 0.00178422 0.0047212 0.00219827 0.00681574 0.00359344 0.0195223 0.00342051 0.00802946 0.00256011 0.0264019 0.00411072 0.0146202 0.00488946 0.0272802 0.00594869 0.0184549 0.00709964 0.0455732
37 1 Mg -1.12976 4.79031 4.4844 1.2 1 0.00164929 0.00373882 0.00173228 0.00463441 0.00238952 0.0062329 0.00344451 0.0181429 0.00358534 0.00712579 0.00308085 0.0262982 0.00425225 0.0142403 0.00485059 0.025938 0.0076747 0.0196872 0.00836233 0.0442015
38 2 Si -2.9517 7.47444 4.4844 2.4 1 0.00200026 0.00374243 0.00151676 0.00515078 0.00296002 0.00668805 0.00400219 0.0206083 0.00331925 0.00789686 0.00305102 0.0279752 0.00467318 0.0159426 0.00552972 0.0282317 0.00707271 0.0197507 0.00837058 0.0480281
39 3 O -3.00198 5.86121 4.4844 -1.2 1 0.00149103 0.0038629 0.00137928 0.00494892 0.00322046 0.00653903 0.00424709 0.0190176 0.00362279 0.00766807 0.00286597 0.0263474 0.00459711 0.0141418 0.00500603 0.0271661 0.00710123 0.0201089 0.00864492 0.0456357
40 3 O 0.666315 8.44846 4.4844 -1.2 1 0.00260081 0.00450342 0.00143384 0.00487616 0.00300831 0.00747646 0.00315078 0.0214535 0.00309578 0.00798567 0.00329626 0.0288268 0.00467581 0.0159156 0.00473957 0.0294302 0.00660466 0.0202688 0.00837946 0.0491305
41 3 O -2.21213 8.18062 3.18632 -1.2 1 0.00145855 0.00392237 0.00160724 0.0044882 0.00268795 0.00649401 0.0030246 0.0209227 0.00285249 0.00832522 0.00290203 0.0279542 0.00442827 0.0158112 0.00530404 0.0290754 0.00599561 0.0191519 0.00683498 0.0487905
42 3 O -2.25864 8.18062 5.78248 -1.2 1 0.00302566 0.00432736 0.00184203 0.00501871 0.00318357 0.00618741 0.00317403 0.0210032 0.00262243 0.00856434 0.00376316 0.0275684 0.00472639 0.0166784 0.00586865 0.0294723 0.0074509 0.0212682 0.00863116 0.0498174
43 1 Mg 1.20893 7.12349 2.9896 1.2 1 0.00115301 0.00366454 0.00183782 0.00442077 0.00282284 0.00670505 0.00382 0.019823 0.00287994 0.00820518 0.00280665 0.0283438 0.00366996 0.0156294 0.00406867 0.0275191 0.00581346 0.0185471 0.00671695 0.0469446
44 1 Mg 4.00982 7.08218 4.4844 1.2 1 0.00197395 0.00388688 0.00160862 0.00475236 0.00260304 0.00653866 0.00397116 0.0203129 0.00341686 0.00763527 0.00331986 0.0277855 0.00450744 0.0165732 0.00588859 0.0283471 0.00733067 0.019788 0.00874438 0.0474795
45 2 Si 2.17861 9.14704 4.4844 2.4 1 0.00236021 0.00416677 0.00163518 0.00484472 0.00298097 0.00729272 0.00391087 0.0214067 0.00290485 0.00829123 0.00324975 0.0286706 0.00492199 0.0165484 0.00487535 0.0297609 0.00607214 0.0199666 0.00736364 0.0506018
46 3 O 2.18828 10.7603 4.4844 -1.2 1 0.00310294 0.00429943 0.00218033 0.00474611 0.00278967 0.00712841 0.00318515 0.021165 0.00257697 0.00825473 0.00250954 0.0291844 0.00425129 0.0158227 0.00463949 0.0308196 0.00617084 0.020043 0.00681686 0.0516096
47 3 O -4.43805 8.17302 4.4844 -1.2 1 0.00155579 0.00410444 0.00172857 0.00513235 0.00260885 0.0078123 0.00349779 0.0209226 0.00331195 0.00824699 0.00315004 0.0289907 0.00493162 0.015991 0.00525469 0.0294721 0.00699165 0.0199459 0.0090529 0.0487646
48 3 O 2.89193 8.44087 3.18632 -1.2 1 0.00194894 0.00357441 0.00175833 0.00431809 0.00256152 0.00693682 0.00354184 0.0207831 0.00284854 0.00858779 0.00289914 0.0279601 0.0040605 0.0158276 0.00491924 0.0290085 0.00601812 0.0189733 0.00621246 0.0488219
49 1 Mg 1.25915 7.12349 0 1.2 1 0.00103394 0.0027879 0.00152739 0.0042499 0.00191139 0.00726261 0.00293127 0.0203092 0.00293192 0.00834461 0.00251416 0.0277114 0.00346236 0.0144614 0.00369681 0.0276506 0.00475468 0.0175239 0.00461525 0.0462168
50 3 O 2.84547 8.44087 5.78248 -1.2 1 0.0027096 0.00459176 0.00158913 0.00479287 0.00266341 0.00661274 0.00361413 0.0213362 0.00307547 0.00895826 0.00333653 0.027573 0.00573497 0.0166862 0.00548426 0.0297743 0.00654841 0.0216332 0.00806543 0.0500664
51 1 Mg -1.59284 7.16481 1.4948 1.2 1 0.000903693 0.00302608 0.00138682 0.00475709 0.00174706 0.00639884 0.0027888 0.0199983 0.0029666 0.00800186 0.001904 0.027967 0.00349456 0.0155064 0.0039392 0.0272193 0.00478441 0.0177443 0.00572964 0.0466905
52 2 Si 0.240329 5.09994 1.4948 2.4 1 0.00115525 0.00321845 0.00212947 0.00414555 0.00189923 0.00672203 0.00319111 0.0190499 0.00319424 0.00745267 0.00232519 0.0262872 0.00295603 0.0144988 0.00427253 0.0248351 0.00520023 0.0171492 0.00545388 0.0446706
53 3 O 0.234538 3.48671 1.4948 -1.2 1 0.001773 0.00337552 0.00267649 0.00434808 0.00174734 0.00638292 0.00268945 0.0179707 0.00344689 0.00703825 0.0023864 0.0247072 0.00332452 0.0135496 0.00409588 0.0240741 0.00559788 0.0162739 0.00560877 0.0423154
54 3 O 6.85564 6.07396 1.4948 -1.2 1 0.00090895 0.00227939 0.00227903 0.00481344 0.00242641 0.00613949 0.00322691 0.0199547 0.00311381 0.0076449 0.00216609 0.0279617 0.00334307 0.0146303 0.00486223 0.0269537 0.00571708 0.0178274 0.00645981 0.0453847
55 3 O -0.429565 5.80612 0.196716 -1.2 1 0.00104857 0.00286848 0.00229535 0.00423675 0.00177756 0.00713258 0.00256348 0.019669 0.00288875 0.0085675 0.0024923 0.0259246 0.00280035 0.0141919 0.00400539 0.0259397 0.0050839 0.0169176 0.00581043 0.0452015
56 3 O -0.473377 5.80612 2.79288 -1.2 1 0.00147325 0.00314276 0.00188394 0.0044563 0.00235716 0.00666369 0.00323362 0.0192909 0.00326912 0.00812617 0.00298695 0.0262129 0.00394583 0.0144858 0.00470181 0.0265377 0.00648775 0.0186466 0.0069997 0.0456889
57 1 Mg 6.40169 9.49799 0 1.2 1 0.000652054 0.00346037 0.00156512 0.00472165 0.0015204 0.00827607 0.00207378 0.0211409 0.00173013 0.00908807 0.00180556 0.0289275 0.00262132 0.0148217 0.00288512 0.0298518 0.00382326 0.0178432 0.00400442 0.0477007
58 1 Mg 3.64209 14.2057 1.4948 1.2 1 0.00179172 0.00302747 0.00175198 0.00441431 0.00189071 0.00879042 0.00174406 0.0216279 0.00173956 0.00880214 0.00235961 0.0286007 0.00278322 0.0161919 0.00322121 0.029611 0.00359683 0.0168307 0.00341213 0.0496099
59 2 Si 5.45748 11.5215 1.4948 2.4 1 0.00166929 0.00305966 0.00173975 0.00458632 0.0018549 0.00821761 0.00224915 0.0211541 0.00154171 0.00845726 0.00179505 0.0290699 0.00283104 0.0162708 0.00354647 0.0293406 0.00413443 0.0169292 0.00384969 0.049424
60 3 O 5.51101 13.1348 1.4948 -1.2 1 0.00178582 0.00302738 0.00183137 0.00451663 0.0018216 0.00907879 0.00190253 0.0212334 0.00184604 0.00881022 0.00172971 0.0295432 0.00244756 0.0162652 0.00300171 0.0298765 0.00376663 0.0166589 0.00353919 0.0493682
61 3 O 1.83851 10.5475 1.4948 -1.2 1 0.000737468 0.0033211 0.00181124 0.00475836 0.0019128 0.00775162 0.00245009 0.0217014 0.00183311 0.00849737 0.00224331 0.0296286 0.0028982 0.0158502 0.00356143 0.0297842 0.00432749 0.0178861 0.00355369 0.049482
62 3 O 4.7611 10.8154 0.196716 -1.2 1 0.000915032 0.00284127 0.00179487 0.00452392 0.0015131 0.00851689 0.00217321 0.0214182 0.00148435 0.00891022 0.00180814 0.0284095 0.00306305 0.0157446 0.00403809 0.0294826 0.00386621 0.017154 0.00356133 0.0486846
63 1 Mg 6.35203 9.49799 2.9896 1.2 1 0.00109944 0.00367603 0.00158371 0.00471403 0.00262726 0.00751644 0.00359172 0.0205583 0.00307143 0.00864214 0.00212425 0.0294597 0.00404148 0.0161973 0.00362142 0.0293034 0.00447264 0.0186291 0.00568358 0.0490595
64 3 O 4.71833 10.8154 2.79288 -1.2 1 0.00213666 0.00344124 0.00176748 0.00440875 0.00224023 0.00816255 0.0023913 0.0214339 0.00203319 0.00913057 0.00223769 0.0286073 0.00380781 0.0160734 0.00433356 0.0301532 0.00533874 0.018435 0.00550624 0.0503085
65 1 Mg -1.0438 9.53931 4.4844 1.2 1 0.00269277 0.00439052 0.00171214 0.00463364 0.00320023 0.00678302 0.002807 0.0212922 0.00287232 0.00850015 0.00276552 0.0290101 0.00417353 0.0166928 0.00490324 0.029986 0.00668505 0.0202453 0.00739478 0.0505724
66 2 Si -2.8604 12.2234 4.4844 2.4 1 0.00290523 0.00408434 0.00195513 0.00456087 0.00292667 0.00770118 0.00326087 0.0221572 0.00288358 0.00859158 0.00244477 0.028919 0.00453193 0.0168512 0.00479612 0.0301718 0.00570931 0.0196358 0.00666641 0.0523561
67 3 O -2.91391 10.6102 4.4844 -1.2 1 0.00307487 0.00426145 0.00193053 0.00451417 0.00301097 0.00712518 0.00358284 0.0210063 0.00271325 0.00795244 0.00213078 0.0292688 0.00457953 0.0161439 0.00440895 0.0308227 0.00602504 0.0201019 0.00702145 0.0512679
68 3 O 0.7596 13.1975 4.4844 -1.2 1 0.00312051 0.00407949 0.0021767 0.00499771 0.00303347 0.00851505 0.00265942 0.0225029 0.00282122 0.00849503 0.00287838 0.0293444 0.00445403 0.0165654 0.00440092 0.030478 0.00596315 0.0197409 0.0067624 0.0522313
69 3 O -2.12001 12.9296 3.18632 -1.2 1 0.00279255 0.00359929 0.00188092 0.00427179 0.00274502 0.00764294 0.00248712 0.022052 0.00245437 0.00859901 0.00228918 0.0283483 0.00394094 0.0164585 0.00483926 0.0304335 0.00514334 0.0185948 0.00542105 0.0512807
70 3 O -2.16532 12.9296 5.78248 -1.2 1 0.00373549 0.00431033 0.00188923 0.004807 0.00293309 0.00696821 0.00249857 0.0225386 0.00250168 0.00853815 0.0026818 0.0284447 0.00433774 0.0174722 0.00501008 0.0315324 0.00635157 0.0214746 0.00711171 0.054406
71 1 Mg 1.29891 11.8725 2.9896 1.2 1 0.00215464 0.00347964 0.00211439 0.00475937 0.00257763 0.00801942 0.00288709 0.0212093 0.0025807 0.00866356 0.00231415 0.0295051 0.00364619 0.0163132 0.0037104 0.0299937 0.00464742 0.0180345 0.00499258 0.0502596
72 1 Mg 4.10033 11.8312 4.4844 1.2 1 0.00291117 0.00396825 0.00214938 0.00432058 0.00262477 0.00725972 0.00291335 0.0216213 0.00249707 0.00838263 0.00274028 0.0294766 0.00412808 0.0175797 0.00523112 0.0305084 0.00654494 0.0197467 0.00641027 0.0518832
73 2 Si 2.27333 13.896 4.4844 2.4 1 0.0030747 0.0034812 0.00206956 0.00513085 0.0030898 0.0080438 0.00319567 0.0221403 0.00256778 0.00841267 0.00285163 0.0286136 0.00394998 0.0171175 0.00446192 0.030272 0.00554876 0.0191457 0.0062286 0.0533342
74 3 O 2.28634 15.5093 4.4844 -1.2 1 0.00323563 0.00386732 0.00205084 0.00465959 0.00317482 0.00736252 0.00300006 0.0213072 0.00271825 0.00789177 0.00222708 0.0293172 0.00369503 0.016369 0.00418863 0.0308296 0.00566581 0.0189648 0.00629399 0.0528565
75 3 O -4.34533 12.922 4.4844 -1.2 1 0.00274398 0.00412752 0.0021284 0.00469223 0.00295051 0.00839422 0.00319133 0.022165 0.00285817 0.00852678 0.00257875 0.0293488 0.00434044 0.0166065 0.00498134 0.0307455 0.00629043 0.0201148 0.00736118 0.0524002
76 3 O 2.98455 13.1899 3.18632 -1.2 1 0.00254977 0.00347404 0.00207441 0.00429372 0.00267258 0.00792864 0.00233157 0.0219441 0.00227053 0.00875119 0.00242723 0.0284594 0.00373687 0.0162905 0.00452044 0.0302242 0.00549723 0.0185434 0.0055124 0.0511741
77 1 Mg 1.34779 11.8725 0 1.2 1 0.00144461 0.00271127 0.00139175 0.00445006 0.00151898 0.00881142 0.00160667 0.0212891 0.00133111 0.00923168 0.00190754 0.0291711 0.00291572 0.0150667 0.00313381 0.030132 0.00323722 0.0171629 0.00318296 0.048315
78 3 O 2.93934 13.1899 5.78248 -1.2 1 0.00337248 0.00425491 0.00198922 0.00498796 0.00285157 0.00699091 0.0027944 0.0224683 0.00268127 0.00855459 0.00307269 0.0284001 0.0046385 0.0173277 0.00504244 0.0314127 0.00628052 0.0215104 0.00683064 0.0542748
79 1 Mg -1.50344 11.9138 1.4948 1.2 1 0.00123295 0.00339651 0.00154707 0.0044335 0.0015718 0.00828446 0.00180342 0.0216675 0.0025106 0.00869304 0.0016824 0.0289635 0.00374178 0.0161909 0.00362061 0.0297277 0.00355819 0.0175533 0.00367816 0.0493194
80 2 Si 0.326006 9.84894 1.4948 2.4 1 0.000230419 0.00329425 0.00139123 0.00485669 0.00199808 0.00812943 0.00214213 0.0210905 0.00223617 0.00862332 0.00174503 0.0288434 0.003207 0.0157417 0.00393145 0.0289673 0.00396919 0.017774 0.00356502 0.0487547
81 3 O 0.317364 8.23571 1.4948 -1.2 1 0.000776211 0.00336874 0.00119639 0.00441438 0.00186338 0.00765298 0.00218563 0.0203832 0.00272828 0.00818036 0.00192828 0.0289216 0.00359173 0.0157172 0.00411835 0.0285986 0.00461198 0.0177563 0.00442628 0.0477142
82 3 O 6.94307 10.823 1.4948 -1.2 1 0.00101863 0.00360722 0.00147539 0.00442238 0.00201527 0.00771522 0.00268427 0.0218431 0.00235024 0.00850825 0.00145452 0.0296805 0.00316523 0.0159156 0.00356451 0.0299184 0.00384151 0.0180093 0.00420533 0.0493661
83 3 O -0.343122 10.5551 0.196716 -1.2 1 0.00070998 0.00297836 0.00131737 0.00462327 0.00155327 0.00856159 0.00184911 0.0213826 0.00182532 0.00912809 0.00205177 0.0283461 0.00344603 0.0153992 0.00437952 0.0293988 0.00364152 0.0173685 0.00352427 0.0486186
84 3 O -0.385966 10.5551 2.79288 -1.2 1 0.0023172 0.00364732 0.0014112 0.00450072 0.00266285 0.00794991 0.00228351 0.0216737 0.00212833 0.00924642 0.00244991 0.0281221 0.00410326 0.0161059 0.00452164 0.0300499 0.00523042 0.0186974 0.00513143 0.0501637
85 1 Mg 6.49448 14.247 0 1.2 1 0.00164606 0.00308299 0.00172794 0.00448073 0.00134049 0.00921139 0.00125555 0.0212613 0.00124029 0.00876947 0.00160136 0.0290242 0.00185721 0.0156161 0.00259866 0.0299433 0.00316095 0.0164845 0.00282916 0.0483285
86 1 Mg 3.74457 18.9547 1.4948 1.2 1 0.00186519 0.00308365 0.00153744 0.0037239 0.00191545 0.0084404 0.00130786 0.0222606 0.00194184 0.0082115 0.00232643 0.0278822 0.00264296 0.016708 0.00356161 0.0287831 0.00352039 0.0164446 0.00331937 0.0501379
87 2 Si 5.55495 16.2705 1.4948 2.4 1 0.00216733 0.00278533 0.00153301 0.00420059 0.00206093 0.00886252 0.00141223 0.0213712 0.00143433 0.00812506 0.00129048 0.0288195 0.00246601 0.0164322 0.0029536 0.0289008 0.00366612 0.0158839 0.00362679 0.0496427
88 3 O 5.6115 17.8838 1.4948 -1.2 1 0.00190437 0.00303552 0.0016892 0.00391425 0.00197548 0.00910694 0.00154613 0.0216895 0.0018409 0.00800321 0.00147825 0.0288947 0.00219536 0.0166357 0.00280408 0.0289234 0.00322692 0.0157903 0.00346597 0.0497723
89 3 O 1.93416 15.2965 1.4948 -1.2 1 0.00173713 0.00303737 0.00179748 0.00435615 0.00200552 0.00833113 0.00221373 0.0219507 0.00192629 0.00825084 0.00148681 0.0293144 0.00235236 0.0163665 0.00305794 0.0297009 0.00370943 0.0166153 0.00326832 0.0500466
90 3 O 4.85636 15.5644 0.196716 -1.2 1 0.00186902 0.00241293 0.0014186 0.00431899 0.00146957 0.00902332 0.0014599 0.0213236 0.00116937 0.0083838 0.00153062 0.0283143 0.00264437 0.0163542 0.00350999 0.0292878 0.00317541 0.0157486 0.00290626 0.049194
91 1 Mg 6.44662 14.247 2.9896 1.2 1 0.00161243 0.00330826 0.00167374 0.00438733 0.00275021 0.00843248 0.00301317 0.0210405 0.00265537 0.0087132 0.00179094 0.0296064 0.0032879 0.0165864 0.00319394 0.0297055 0.003985 0.0176383 0.0046931 0.05033
92 3 O 4.81537 15.5644 2.79288 -1.2 1 0.00237664 0.00309815 0.00161169 0.00419621 0.00255598 0.00868707 0.00184081 0.0218543 0.0016509 0.00869126 0.00183387 0.0283202 0.00299186 0.016456 0.00365812 0.0298071 0.00462701 0.0173058 0.00492642 0.050879
93 1 Mg -0.948271 14.2883 4.4844 1.2 1 0.0032198 0.00366954 0.00189195 0.00447424 0.0030717 0.00774653 0.00275855 0.0219539 0.00278167 0.00838011 0.00275604 0.0291004 0.00373765 0.0172252 0.00511287 0.0306652 0.00586556 0.0192484 0.00650169 0.0526447
94 2 Si -2.75928 16.9724 4.4844 2.4 1 0.00295891 0.00349885 0.0019215 0.00455662 0.00305614 0.00800543 0.00291969 0.0222728 0.00274132 0.00797155 0.00262366 0.0286842 0.00386493 0.0172758 0.0047889 0.0298614 0.00506475 0.0186393 0.00594534 0.0534961
95 3 O -2.81617 15.3592 4.4844 -1.2 1 0.00330404 0.0038208 0.00193518 0.00449064 0.00315956 0.00762277 0.00292192 0.0213525 0.00255742 0.00775338 0.00231927 0.0291822 0.00394065 0.0164486 0.00435482 0.0307354 0.00586696 0.0188745 0.00660075 0.0527864
96 3 O 0.862762 17.9465 4.4844 -1.2 1 0.00297511 0.00390778 0.00186361 0.00463547 0.003188 0.00839944 0.00269845 0.0224518 0.00271492 0.00794362 0.00257277 0.0292121 0.0039046 0.017188 0.00451438 0.0298245 0.00557403 0.0187596 0.00621222 0.0530735
97 3 O -2.0185 17.6786 3.18632 -1.2 1 0.00257667 0.00324226 0.00193435 0.00383547 0.00287636 0.0075747 0.00236316 0.0224216 0.00239861 0.00810721 0.00217541 0.0279963 0.00364878 0.0167228 0.00469242 0.0300483 0.00473838 0.0177079 0.00514394 0.0519755
98 3 O -2.06164 17.6786 5.78248 -1.2 1 0.00378997 0.00411819 0.00167829 0.00465962 0.00306488 0.00694137 0.00248749 0.0225409 0.0025101 0.00803919 0.00267688 0.0284893 0.00364162 0.0177518 0.00508231 0.0312995 0.00592098 0.0206466 0.00640326 0.0554031
99 1 Mg 1.39817 16.6215 2.9896 1.2 1 0.00263947 0.00328101 0.00193217 0.00438608 0.00271168 0.00839862 0.00268013 0.0212955 0.0026804 0.0083039 0.00215472 0.029233 0.00301132 0.0168493 0.00356451 0.0295212 0.0041013 0.0169036 0.00435535 0.0507553
100 1 Mg 4.20062 16.5802 4.4844 1.2 1 0.0029419 0.00351482 0.00207886 0.00438759 0.00288665 0.0076426 0.00251959 0.021974 0.00310761 0.00790297 0.00283109 0.0288731 0.00357595 0.0176461 0.0056257 0.0303262 0.00622885 0.0189063 0.00622959 0.0529591
101 2 Si 2.37796 18.645 4.4844 2.4 1 0.00268507 0.00339839 0.00175274 0.00444935 0.00305939 0.00793294 0.00291091 0.0224953 0.00275882 0.00806549 0.00262912 0.0284124 0.00370471 0.0175272 0.00466118 0.0295831 0.00518941 0.018442 0.00578309 0.0538773
102 3 O 2.39434 20.2583 4.4844 -1.2 1 0.00259101 0.0036903 0.00173723 0.00446214 0.00305371 0.00697716 0.00273876 0.0216715 0.00292885 0.00747923 0.001996 0.0291 0.00350689 0.0171009 0.00415546 0.0301059 0.00560759 0.0184014 0.00649106 0.0534332
103 3 O -4.24274 17.671 4.4844 -1.2 1 0.00268883 0.00390026 0.00210412 0.00455878 0.00304888 0.00859861 0.00288251 0.0225435 0.00292384 0.00802054 0.00244145 0.0291252 0.00355476 0.0171884 0.00505819 0.0300784 0.00576391 0.0189705 0.00652344 0.053231
104 3 O 3.08659 17.9389 3.18632 -1.2 1 0.00268764 0.00315341 0.00184546 0.00397935 0.00280268 0.00789607 0.00200787 0.0221711 0.00243191 0.00819408 0.00230676 0.0279395 0.00334356 0.0167185 0.00447311 0.0297316 0.00530274 0.0177099 0.00546566 0.0518582
105 1 Mg 1.44478 16.6215 0 1.2 1 0.00248221 0.00281879 0.0012561 0.00397319 0.00152167 0.00890879 0.00116773 0.0214394 0.00143943 0.00833859 0.00151601 0.0287624 0.00233169 0.015852 0.00245327 0.0292237 0.00286172 0.016037 0.00296566 0.0488305
106 3 O 3.0436 17.9389 5.78248 -1.2 1 0.00295168 0.00399403 0.0017612 0.00501673 0.00289535 0.00710425 0.00241106 0.0225985 0.00235544 0.0081891 0.00264603 0.0282865 0.00392384 0.0175789 0.00477679 0.0310803 0.00590145 0.0207603 0.00648956 0.0555919
107 1 Mg -1.40524 16.6628 1.4948 1.2 1 0.00164324 0.00301434 0.00161398 0.004093 0.00185369 0.00861819 0.00177188 0.0221861 0.00202455 0.00834463 0.00191003 0.0284771 0.00327508 0.0168255 0.00312705 0.0292837 0.00293611 0.0166991 0.00309637 0.0497319
108 2 Si 0.420358 14.5979 1.4948 2.4 1 0.00150567 0.00292263 0.00176483 0.00460122 0.00213982 0.00905111 0.00193527 0.021379 0.00169504 0.00837481 0.00158827 0.02872 0.00308658 0.0165023 0.00368862 0.0288779 0.00339465 0.0164804 0.00331606 0.0495114
109 3 O 0.408732 12.9847 1.4948 -1.2 1 0.0012569 0.00299392 0.00161298 0.00458645 0.00202063 0.0090233 0.00155272 0.021194 0.00224522 0.00854986 0.0016338 0.0293445 0.00327444 0.0161047 0.00329058 0.0297887 0.0032455 0.0169297 0.00363619 0.0494066
110 3 O 7.03923 15.572 1.4948 -1.2 1 0.0015847 0.00309863 0.0016569 0.00420708 0.0022666 0.0082924 0.00234007 0.0217853 0.00219466 0.00821582 0.00152267 0.0294454 0.00275214 0.0165242 0.00302677 0.0295917 0.00333064 0.0167467 0.00375142 0.049817
111 3 O -0.248332 15.3041 0.196716 -1.2 1 0.00198562 0.00263107 0.00139333 0.0042284 0.0012764 0.00893571 0.00182787 0.021276 0.00147334 0.00845718 0.00170371 0.0282556 0.0030028 0.0160896 0.00378393 0.029176 0.00294227 0.0160104 0.00300883 0.0489575
112 3 O -0.289436 15.3041 2.79288 -1.2 1 0.00277331 0.00327012 0.00155247 0.00425586 0.00279038 0.00864763 0.00200632 0.0219963 0.00192444 0.00881819 0.00205479 0.027885 0.00324337 0.0166995 0.00375348 0.0297519 0.0044198 0.0177611 0.00459342 0.0510352
113 1 Mg 6.59566 18.996 0 1.2 1 0.00169423 0.00310343 0.00150378 0.00389847 0.00111638 0.00852663 0.00111406 0.0219041 0.00116058 0.00799877 0.00143083 0.0282943 0.00204478 0.0164702 0.00231813 0.0286224 0.00287305 0.0158631 0.00284215 0.0488326
114 1 Mg 3.85574 23.7037 1.4948 1.2 1 0.00165646 0.0026859 0.001493 0.00392929 0.0018347 0.00730411 0.00122849 0.0232285 0.00184935 0.00765596 0.0022191 0.0274419 0.00249791 0.0176927 0.00368059 0.0284184 0.0033827 0.0172273 0.00353818 0.0509335
115 2 Si 5.66125 21.0195 1.4948 2.4 1 0.00164321 0.00261016 0.00139092 0.00380074 0.00208478 0.00807372 0.00151128 0.0219472 0.00139453 0.00759469 0.00150737 0.028262 0.00259976 0.0174269 0.00281804 0.0280641 0.00356369 0.0158112 0.00401007 0.0503851
116 3 O 5.72074 22.6328 1.4948 -1.2 1 0.00164152 0.0026571 0.00174763 0.00380811 0.00192132 0.00806622 0.00158036 0.0224206 0.00184794 0.00738347 0.00135274 0.0281487 0.00219914 0.0174124 0.00292811 0.0283334 0.00329457 0.0162958 0.00369952 0.0504219
117 3 O 2.03867 20.0455 1.4948 -1.2 1 0.00154309 0.00320577 0.00159865 0.00406192 0.00198718 0.00773635 0.00210611 0.0222926 0.00223489 0.00759126 0.00150981 0.0286795 0.00228846 0.0173541 0.00259902 0.0288735 0.00360155 0.0161308 0.00351396 0.0505861
118 3 O 4.96004 20.3134 0.196716 -1.2 1 0.00195727 0.00245249 0.00146645 0.00374052 0.0013911 0.00815747 0.00113101 0.0218297 0.00107702 0.00762817 0.00158235 0.0277998 0.00276491 0.0167514 0.00393183 0.0285767 0.00311697 0.0152505 0.0028879 0.0495933
119 1 Mg 6.55057 18.996 2.9896 1.2 1 0.00153307 0.00346905 0.00163663 0.0040022 0.00273031 0.00816341 0.0028502 0.0214774 0.00258055 0.0081181 0.00180291 0.0294493 0.003159 0.0172274 0.00316787 0.0288731 0.00383185 0.0170589 0.00464378 0.0510398