ITEM: TIMESTEP
4900
ITEM: NUMBER OF ATOMS
10500
ITEM: BOX BOUNDS xy xz yz pp pp pp
0	15.2974	5.099
0	118.725	0
0	89.688	0
ITEM: ATOMS id type element xu yu zu q Q_1 Q_2 Q_3 Q_4 Q_5 Q_6 Q_7 Q_8 Q_9 Q_10 Q_11 Q_12 Q_13 Q_14 Q_15 Q_16 Q_17 Q_18 Q_19 Q_20 Q_21
1 1 Mg 6.2404 -6.37941e-06 0 1.2 1 0.00142072 0.00410861 0.00114912 0.00455611 0.00135069 0.00542054 0.00225977 0.0162574 0.00221013 0.00583773 0.00218284 0.0217182 0.00265893 0.0134613 0.00318366 0.0206402 0.00392607 0.0140479 0.0038063 0.0406838
2 1 Mg 3.46349 4.70768 1.4948 1.2 1 0.00102682 0.00341632 0.00152428 0.00419811 0.00199269 0.00587912 0.0035559 0.0187504 0.00294301 0.00687642 0.00285227 0.0254338 0.00345324 0.0136608 0.00427857 0.0251777 0.00547207 0.0171907 0.00556195 0.0438698
3 2 Si 5.2885 2.02354 1.4948 2.4 1 0.000613169 0.00359405 0.00202136 0.00438678 0.00178066 0.00551658 0.00251669 0.0170814 0.00246904 0.00597955 0.00210862 0.023033 0.00297339 0.0134535 0.00367782 0.0215881 0.00394956 0.0151815 0.00433313 0.0413764
4 3 O 5.33628 3.63678 1.4948 -1.2 1 0.000551788 0.00303277 0.00184734 0.00472904 0.0022568 0.00600757 0.00292179 0.0178773 0.0022803 0.00657103 0.00203914 0.0248994 0.00282279 0.0135216 0.00441087 0.0239572 0.00507158 0.0163501 0.0055266 0.0429509
5 3 O 1.67294 1.04952 1.4948 -1.2 1 0.00182032 0.00372207 0.00201563 0.00389331 0.00121597 0.00551228 0.00241156 0.0169907 0.00232787 0.00592643 0.00215822 0.0225146 0.00266551 0.0126723 0.00327749 0.0217947 0.00458813 0.01571 0.00464761 0.0404323
6 3 O 4.59532 1.31737 0.196716 -1.2 1 0.00132363 0.00322499 0.00211199 0.00400401 0.00212541 0.00539757 0.00241357 0.0172701 0.00269327 0.00619487 0.00216204 0.0221198 0.00327269 0.0127806 0.00415434 0.0214926 0.00415089 0.0147513 0.00437645 0.0409361
7 1 Mg 6.18956 -6.37941e-06 2.9896 1.2 1 0.000657444 0.00469111 0.00140157 0.00388731 0.00120202 0.00542911 0.00242855 0.0160444 0.00269969 0.00531583 0.00191273 0.0218818 0.00291074 0.0131055 0.00362232 0.0203841 0.00423943 0.0143674 0.00452657 0.0389865
8 3 O 4.55118 1.31737 2.79288 -1.2 1 0.00107816 0.00473337 0.00195285 0.00408945 0.00186972 0.00547793 0.00264162 0.0171894 0.00247621 0.00661336 0.00231731 0.0213909 0.00321687 0.0121482 0.00340192 0.0214255 0.00480472 0.0155064 0.00503045 0.0407238
9 1 Mg -1.20682 0.0413099 4.4844 1.2 1 0.000488734 0.00323296 0.00157745 0.00415881 0.00116576 0.00559362 0.00207836 0.0163989 0.00237078 0.00573296 0.00229771 0.0223848 0.00308402 0.011471 0.00355564 0.0206017 0.00525122 0.0155636 0.00507888 0.0391705
10 2 Si -3.0337 2.72544 4.4844 2.4 1 0.000751636 0.00376031 0.00162627 0.00453881 0.00218427 0.00605138 0.00333727 0.0168805 0.00327383 0.00572953 0.0025276 0.0235445 0.00325255 0.0127189 0.00409503 0.0221599 0.00549221 0.0175037 0.00606156 0.0404268
11 3 O -3.08099 1.11221 4.4844 -1.2 1 0.000855686 0.00407394 0.00176167 0.00408533 0.00117613 0.00538005 0.00249236 0.0163563 0.00294325 0.00528973 0.00229087 0.0219057 0.00311124 0.0112827 0.00372443 0.0209498 0.00525366 0.0161599 0.00543356 0.0392007
12 3 O 0.582463 3.69946 4.4844 -1.2 1 0.00203287 0.00452691 0.00210681 0.00404509 0.00229629 0.00662849 0.00355823 0.0174786 0.00351003 0.00627718 0.00316822 0.0244747 0.00405484 0.0125645 0.00439312 0.0242931 0.00711438 0.0185705 0.0080812 0.0425152
13 3 O -2.29524 3.43162 3.18632 -1.2 1 0.000615321 0.00300208 0.00254135 0.00438746 0.00224385 0.00586173 0.00290714 0.0179436 0.00322573 0.00651415 0.00276482 0.0242993 0.0034495 0.0127971 0.0046634 0.0240706 0.00594065 0.0177356 0.00637627 0.0426821
14 3 O -2.34216 3.43162 5.78248 -1.2 1 0.00210244 0.00393784 0.0012863 0.00451723 0.00257154 0.00614805 0.00343556 0.0171468 0.00327171 0.00666614 0.00278603 0.0232413 0.0045415 0.0123743 0.00410927 0.0232519 0.00664688 0.0190028 0.00731398 0.0415471
15 1 Mg 1.12778 2.37449 2.9896 1.2 1 0.00105579 0.00387527 0.00232902 0.0042129 0.00204661 0.00569807 0.00303117 0.0168936 0.00276714 0.00602558 0.00257661 0.0233628 0.00324656 0.0126221 0.00364793 0.021884 0.00486175 0.0165236 0.00538975 0.0413374
16 1 Mg 3.92855 2.33318 4.4844 1.2 1 0.00158294 0.00470615 0.00153587 0.00385863 0.00154956 0.00550754 0.00362632 0.0169757 0.00329721 0.00581295 0.00307291 0.0225554 0.00358937 0.0131821 0.00502214 0.0218273 0.00641227 0.0169711 0.00677379 0.041072
17 2 Si 2.09341 4.39804 4.4844 2.4 1 0.00208943 0.0043256 0.00208176 0.00393226 0.00278921 0.00591814 0.00376295 0.0184499 0.00347118 0.00640986 0.00340639 0.0243789 0.00461766 0.0138652 0.00453986 0.0245944 0.00688684 0.0184678 0.00821452 0.0443631
18 3 O 2.09991 6.01128 4.4844 -1.2 1 0.00284969 0.00461037 0.0016123 0.00378962 0.00276525 0.0065306 0.00327065 0.0192141 0.00266863 0.00685522 0.00304422 0.0266164 0.0040414 0.0140896 0.00475366 0.0273408 0.00694281 0.0191695 0.00791422 0.0463804
19 3 O -4.52137 3.42402 4.4844 -1.2 1 0.00143907 0.00422629 0.00193223 0.00428457 0.00219637 0.00677315 0.00351166 0.0171046 0.00350832 0.00585037 0.00307992 0.0234711 0.00400547 0.0126388 0.00420138 0.022907 0.00650886 0.0177974 0.00727514 0.0423131
20 3 O 2.80834 3.69187 3.18632 -1.2 1 0.00133654 0.00418487 0.00153905 0.00343381 0.0019553 0.00580022 0.00308461 0.017431 0.00312299 0.00602754 0.002821 0.024118 0.00353005 0.0127539 0.00465094 0.0237012 0.00579215 0.0171442 0.00630201 0.0434755
21 1 Mg 1.17857 2.37449 0 1.2 1 0.00219011 0.00379401 0.00190954 0.00391959 0.00158596 0.00517106 0.00234217 0.017117 0.0024967 0.00650251 0.00286507 0.0228523 0.00297424 0.0129766 0.00350644 0.0216829 0.00436616 0.0149934 0.00470806 0.0405027
22 3 O 2.76143 3.69187 5.78248 -1.2 1 0.00280212 0.00458925 0.001783 0.00382683 0.0019478 0.00534554 0.00292382 0.0174528 0.00339403 0.00685878 0.00292867 0.0227949 0.00467287 0.0125766 0.00546305 0.0231432 0.00675316 0.0181727 0.00730216 0.0420767
23 1 Mg -1.67381 2.41581 1.4948 1.2 1 0.00129556 0.00289616 0.00246645 0.00470287 0.00135502 0.00593276 0.00254251 0.0166907 0.0027184 0.00610656 0.0020992 0.0240711 0.00266964 0.0140032 0.00297602 0.0221913 0.00438596 0.016219 0.00486311 0.0417517
24 2 Si 0.16286 0.350945 1.4948 2.4 1 0.00208576 0.0030616 0.00264304 0.00411737 0.00113552 0.00605531 0.00275312 0.0166597 0.00213554 0.00520795 0.00199744 0.0227535 0.00252126 0.0133381 0.00300532 0.0207229 0.00458679 0.0148751 0.0042454 0.0404759
25 3 O 0.15972 -1.26229 1.4948 -1.2 1 0.00194539 0.00296274 0.00274617 0.00407032 0.00163887 0.00587769 0.00252928 0.016638 0.00221044 0.0054151 0.00234052 0.0225239 0.00256823 0.0136703 0.00288669 0.0216891 0.00400941 0.0145679 0.00376439 0.0408345
26 3 O 6.77654 1.32496 1.4948 -1.2 1 0.00125203 0.00397026 0.00161165 0.00431027 0.00120139 0.00580512 0.00235868 0.0168581 0.00251759 0.00537639 0.00181904 0.0235271 0.00290553 0.0134757 0.00342265 0.0218608 0.00452383 0.0152806 0.00422754 0.0409383
27 3 O -0.508028 1.05712 0.196716 -1.2 1 0.00194541 0.00291077 0.0032233 0.00393741 0.00119906 0.00532864 0.00248576 0.017092 0.00170121 0.00666875 0.00255342 0.0218741 0.00286458 0.0127047 0.00301046 0.0213395 0.00396614 0.0151645 0.0042655 0.0401625
28 3 O -0.552171 1.05712 2.79288 -1.2 1 0.000809682 0.00264078 0.00268612 0.00415533 0.0011839 0.00579666 0.00241338 0.0164796 0.00254446 0.00627477 0.00176971 0.0224143 0.00295438 0.011419 0.0034751 0.0213404 0.00530749 0.0157147 0.00496356 0.0398609
29 1 Mg 6.31713 4.74899 0 1.2 1 0.000725388 0.00299316 0.00188241 0.00467915 0.00249369 0.00593286 0.00327102 0.0179681 0.00300506 0.00692398 0.00253621 0.0248985 0.00337298 0.01363 0.00450663 0.0244063 0.00485816 0.0161975 0.00594772 0.0422766
30 1 Mg 3.54847 9.45668 1.4948 1.2 1 0.00152467 0.00308439 0.00169676 0.00469735 0.00207834 0.00756265 0.0031805 0.0212903 0.00167106 0.00847272 0.00236591 0.0282931 0.00344338 0.0157783 0.00404462 0.0291358 0.00430073 0.0181405 0.00408161 0.0486681
31 2 Si 5.36879 6.77254 1.4948 2.4 1 0.000816479 0.0029243 0.00202952 0.00507281 0.00285667 0.00669816 0.00375704 0.0195208 0.00272681 0.00765519 0.00237947 0.0274338 0.00335436 0.0153682 0.00449009 0.0269378 0.0048225 0.017217 0.00531454 0.046355
32 3 O 5.41937 8.38578 1.4948 -1.2 1 0.00126852 0.00291084 0.00166155 0.00511248 0.00229134 0.00759922 0.00323067 0.0209097 0.00219822 0.00825309 0.00241052 0.0287354 0.00254492 0.0156789 0.00344945 0.0291339 0.0047527 0.0174398 0.00486961 0.0479574
33 3 O 1.75158 5.79852 1.4948 -1.2 1 0.000972522 0.0034459 0.00178737 0.0038807 0.00237186 0.00578545 0.00330282 0.0194441 0.00289089 0.0071362 0.00274041 0.0276383 0.0031994 0.0153546 0.00374641 0.0268288 0.00542919 0.0175915 0.00540154 0.0457518
34 3 O 4.67421 6.06637 0.196716 -1.2 1 0.000726917 0.00286257 0.00159224 0.00476986 0.00216977 0.00662529 0.00295108 0.0196901 0.00244206 0.00801853 0.00222433 0.0259098 0.00376562 0.0143285 0.0044855 0.026547 0.00480669 0.0166619 0.00553885 0.0446601
35 1 Mg 6.26654 4.74899 2.9896 1.2 1 0.00120218 0.0033617 0.0019487 0.00489633 0.00265686 0.0063883 0.00373325 0.018152 0.00357866 0.00683877 0.00210925 0.0255819 0.00374967 0.0143749 0.0050323 0.024978 0.00596714 0.0177156 0.00697519 0.0441902
36 3 O 4.63043 6.06637 2.79288 -1.2 1 0.00200575 0.00348532 0.00172001 0.00473055 0.0022551 0.0065543 0.00347379 0.0196043 0.00338959 0.00771925 0.0024107 0.0258382 0.00398747 0.0145525 0.00477224 0.0271246 0.00594766 0.018135 0.00656586 0.0460017
37 1 Mg -1.12976 4.79031 4.4844 1.2 1 0.0021889 0.00380501 0.0016792 0.00438239 0.00236068 0.00613195 0.00331184 0.0180616 0.00357257 0.00679973 0.00315766 0.02553 0.00428498 0.0140027 0.00484652 0.0255283 0.00754502 0.0190787 0.00776428 0.0447772
38 2 Si -2.9517 7.47444 4.4844 2.4 1 0.00257333 0.0037582 0.0014687 0.00499354 0.00288444 0.00674743 0.00374898 0.0203243 0.00327862 0.00756798 0.00303092 0.0272903 0.00450561 0.0157982 0.00549152 0.0281267 0.00696879 0.01929 0.00791803 0.0483206
39 3 O -3.00198 5.86121 4.4844 -1.2 1 0.00234081 0.00410213 0.00117673 0.00464699 0.00293006 0.00664323 0.00424205 0.0190305 0.00367459 0.00723788 0.00258665 0.0257168 0.00450581 0.0139863 0.00481656 0.0269703 0.0069547 0.0197796 0.00807486 0.0464885
40 3 O 0.666315 8.44846 4.4844 -1.2 1 0.00368384 0.00471791 0.00143988 0.00451601 0.0028226 0.00737219 0.00317038 0.021119 0.00301958 0.00779873 0.00323748 0.0282042 0.00469281 0.0158086 0.00481853 0.0293087 0.00613671 0.019588 0.00757673 0.0494968
41 3 O -2.21213 8.18062 3.18632 -1.2 1 0.00253956 0.00383602 0.00156878 0.00454055 0.0025822 0.00633719 0.00294029 0.0207433 0.00270591 0.00794361 0.00276359 0.0274875 0.00427476 0.0158773 0.0050584 0.028953 0.00583052 0.0187965 0.00660037 0.0488204
42 3 O -2.25864 8.18062 5.78248 -1.2 1 0.00390269 0.0043947 0.00162134 0.0044522 0.00304406 0.00620591 0.0032244 0.0208792 0.00257221 0.00800447 0.00319602 0.0265418 0.00461998 0.0164571 0.00544129 0.0295797 0.00709937 0.0208957 0.0080114 0.050256
43 1 Mg 1.20893 7.12349 2.9896 1.2 1 0.00188429 0.00413809 0.00177557 0.00410166 0.00285695 0.00664001 0.0038891 0.0196207 0.00295086 0.00796069 0.002995 0.0278063 0.00364166 0.0156722 0.00422445 0.0274193 0.00573825 0.0181337 0.00622984 0.0472934
44 1 Mg 4.00982 7.08218 4.4844 1.2 1 0.00278229 0.00415745 0.00156647 0.00458224 0.00250588 0.00639666 0.00368857 0.0202126 0.00350659 0.00735214 0.00315567 0.027127 0.00426332 0.0165066 0.00572127 0.0282459 0.00732764 0.019206 0.00809166 0.0481487
45 2 Si 2.17861 9.14704 4.4844 2.4 1 0.00356244 0.00433751 0.00144547 0.00465498 0.00274797 0.00745033 0.0037248 0.0211768 0.00270615 0.0078415 0.00284244 0.0278985 0.00458647 0.0165023 0.0047253 0.0295978 0.00584979 0.019419 0.00687016 0.0511045
46 3 O 2.18828 10.7603 4.4844 -1.2 1 0.00425879 0.00428089 0.00187185 0.00436774 0.00264794 0.00707981 0.0032504 0.0207197 0.00241916 0.00797655 0.00210707 0.0285642 0.00422789 0.0157118 0.00463058 0.0306527 0.00593928 0.019604 0.00639784 0.0513562
47 3 O -4.43805 8.17302 4.4844 -1.2 1 0.00237849 0.00437099 0.00173756 0.00500428 0.00233305 0.00780706 0.00324956 0.0207032 0.00323596 0.00788792 0.00307062 0.0278782 0.00469486 0.0158045 0.0049585 0.0294598 0.00670767 0.0197919 0.00857554 0.0489291
48 3 O 2.89193 8.44087 3.18632 -1.2 1 0.00288405 0.00389598 0.00163064 0.00414972 0.00243369 0.00687187 0.00339563 0.0205792 0.00291574 0.00826648 0.00273906 0.0273521 0.00396681 0.0157265 0.00484049 0.0289913 0.00599677 0.018591 0.00578408 0.0491282
49 1 Mg 1.25915 7.12349 0 1.2 1 0.00071219 0.00294128 0.001622 0.00410782 0.00187318 0.00690605 0.0028288 0.0201097 0.00292407 0.00815608 0.0029524 0.027294 0.00360587 0.0145106 0.00407843 0.0275376 0.00505948 0.0172291 0.00486803 0.0453896
50 3 O 2.84547 8.44087 5.78248 -1.2 1 0.00416006 0.00468225 0.00145246 0.00436023 0.00231332 0.00672995 0.00336698 0.0207025 0.0029829 0.00828167 0.00312307 0.0268285 0.00522367 0.0163026 0.00522979 0.0294785 0.00628427 0.0208118 0.0072153 0.0503158
51 1 Mg -1.59284 7.16481 1.4948 1.2 1 0.00105387 0.00309552 0.00134081 0.00462634 0.00192531 0.00623326 0.00283055 0.0199245 0.00289984 0.00772794 0.00200977 0.0274937 0.00343971 0.0156425 0.00405877 0.0271932 0.00470946 0.0175252 0.00561221 0.0466232
52 2 Si 0.240329 5.09994 1.4948 2.4 1 0.000825732 0.00372708 0.00201931 0.00389077 0.00193699 0.00656745 0.00312372 0.0189227 0.00311735 0.0071274 0.00245535 0.0257822 0.00306949 0.0144699 0.00424022 0.0248036 0.00512594 0.0170007 0.00530702 0.0446287
53 3 O 0.234538 3.48671 1.4948 -1.2 1 0.00133702 0.00396626 0.00262957 0.00402681 0.00189537 0.00618212 0.00258305 0.0178949 0.00337629 0.00675472 0.00255244 0.024279 0.00338937 0.0134001 0.00405172 0.0239641 0.00548681 0.0161091 0.00545878 0.0425258
54 3 O 6.85564 6.07396 1.4948 -1.2 1 0.000855642 0.00269356 0.00238504 0.00494098 0.00257868 0.00601059 0.00316409 0.0198929 0.00311956 0.00733962 0.00212364 0.0274284 0.00342088 0.0146376 0.00496257 0.0269484 0.00566117 0.017651 0.00615224 0.0455911
55 3 O -0.429565 5.80612 0.196716 -1.2 1 0.000638237 0.00323466 0.00224847 0.00401474 0.00191229 0.00683344 0.00260792 0.0195482 0.00286534 0.00824964 0.00271846 0.0254067 0.00296477 0.014123 0.00407586 0.0258125 0.00516628 0.0166737 0.00587473 0.0448497
56 3 O -0.473377 5.80612 2.79288 -1.2 1 0.0019523 0.00366162 0.00186213 0.00417584 0.00239649 0.00659089 0.00313833 0.0194157 0.00320124 0.007804 0.00291216 0.0256628 0.00393458 0.0143369 0.00462834 0.0263754 0.0064313 0.018509 0.0067285 0.0461883
57 1 Mg 6.40169 9.49799 0 1.2 1 0.000539707 0.00333103 0.00147449 0.00491186 0.00155901 0.00820691 0.00195946 0.0209559 0.00161467 0.00887761 0.00189166 0.0285851 0.00273868 0.0148952 0.00298551 0.0298192 0.00398006 0.0178348 0.00413982 0.0470341
58 1 Mg 3.64209 14.2057 1.4948 1.2 1 0.00241548 0.00299348 0.00137015 0.00458877 0.00172018 0.00874232 0.00184799 0.0216205 0.00153059 0.00880933 0.00215506 0.0281501 0.00254049 0.0160373 0.00298539 0.0294904 0.00378362 0.0169272 0.00342046 0.0492064
59 2 Si 5.45748 11.5215 1.4948 2.4 1 0.00233049 0.00306599 0.00150395 0.00490708 0.00189312 0.00819892 0.00221325 0.021146 0.00158381 0.00832464 0.00182145 0.0286491 0.00277683 0.016279 0.00374383 0.0291959 0.00409172 0.0168704 0.00394505 0.0490616
60 3 O 5.51101 13.1348 1.4948 -1.2 1 0.00246401 0.00300347 0.00162119 0.00477115 0.00161415 0.00906923 0.00189761 0.0211444 0.00172577 0.00873345 0.00169229 0.0292599 0.0023313 0.0161565 0.00308107 0.0298292 0.00392102 0.0165495 0.00355309 0.0488687
61 3 O 1.83851 10.5475 1.4948 -1.2 1 0.0015041 0.00315764 0.00162233 0.00477696 0.00183736 0.00765606 0.00261001 0.021499 0.00183409 0.00851774 0.00222288 0.029137 0.00285092 0.0160093 0.00359079 0.0297576 0.00414148 0.0177063 0.00345947 0.0491918
62 3 O 4.7611 10.8154 0.196716 -1.2 1 0.00111377 0.00265677 0.00172233 0.00485547 0.00164896 0.00850351 0.00225911 0.0212582 0.00139313 0.0087564 0.00191766 0.0280921 0.00310266 0.0157462 0.00407489 0.0294579 0.00390244 0.0171234 0.00367809 0.0480944
63 1 Mg 6.35203 9.49799 2.9896 1.2 1 0.00197768 0.00365189 0.00158068 0.004963 0.00258797 0.0075997 0.00337504 0.0205077 0.00317296 0.00847345 0.00207176 0.0290077 0.00385253 0.0161638 0.00349639 0.0290908 0.00443951 0.0183988 0.00521976 0.0489535
64 3 O 4.71833 10.8154 2.79288 -1.2 1 0.00296429 0.00350079 0.00152496 0.00461166 0.00221908 0.00809959 0.00221572 0.0212865 0.00199484 0.00892624 0.00201272 0.0281458 0.00355717 0.0158472 0.00433235 0.0301178 0.00519555 0.0182655 0.00534857 0.0502255
65 1 Mg -1.0438 9.53931 4.4844 1.2 1 0.00381129 0.00455202 0.00165479 0.00417228 0.00282096 0.00681419 0.00283017 0.0209466 0.00278457 0.00819914 0.00266945 0.0280843 0.00378587 0.016608 0.0049161 0.0299683 0.00614149 0.0198745 0.00677554 0.0506735
66 2 Si -2.8604 12.2234 4.4844 2.4 1 0.00387876 0.00402655 0.00178044 0.00435674 0.00262432 0.00772845 0.00302969 0.0218416 0.00272349 0.00846952 0.00229802 0.0280705 0.00423663 0.0167344 0.00502963 0.0304063 0.00565113 0.019183 0.00645718 0.0518981
67 3 O -2.91391 10.6102 4.4844 -1.2 1 0.00406587 0.00439159 0.00189981 0.00427086 0.00278346 0.0072481 0.00341575 0.0206532 0.00263354 0.00769794 0.00186243 0.0284544 0.00411644 0.0161258 0.00454639 0.0309466 0.00575345 0.0197284 0.006852 0.0512311
68 3 O 0.7596 13.1975 4.4844 -1.2 1 0.00393765 0.00393838 0.00195429 0.00461684 0.00279463 0.0085284 0.00302277 0.0219967 0.0027928 0.00848941 0.00275289 0.0286334 0.00406898 0.0164518 0.00453657 0.0304037 0.00552366 0.0192887 0.0066747 0.0516728
69 3 O -2.12001 12.9296 3.18632 -1.2 1 0.00365514 0.00375424 0.00166021 0.00415632 0.0024416 0.0074097 0.00239822 0.0217709 0.0024039 0.0084706 0.00212916 0.0275931 0.00366967 0.0162787 0.00511907 0.0305309 0.00514818 0.0185636 0.00537677 0.0509346
70 3 O -2.16532 12.9296 5.78248 -1.2 1 0.00473525 0.00437724 0.00187626 0.00410201 0.0024871 0.00677794 0.00265248 0.0216644 0.00233715 0.00807742 0.00263857 0.0273563 0.00397115 0.017016 0.00525261 0.0316624 0.00569204 0.0211727 0.00653768 0.0531684
71 1 Mg 1.29891 11.8725 2.9896 1.2 1 0.00310407 0.00337984 0.00160513 0.00455972 0.00225377 0.00799822 0.00303357 0.0208979 0.00253369 0.00867555 0.00210919 0.0290454 0.0035234 0.0163098 0.00401064 0.0298916 0.00448785 0.0177487 0.0048193 0.0498607
72 1 Mg 4.10033 11.8312 4.4844 1.2 1 0.00402459 0.00383513 0.00212266 0.00424794 0.00253132 0.00743784 0.00289688 0.0215342 0.00264125 0.00839818 0.00257053 0.0286734 0.00385358 0.0171505 0.00536495 0.0306435 0.00631665 0.0192889 0.00611979 0.0517295
73 2 Si 2.27333 13.896 4.4844 2.4 1 0.00399882 0.00326181 0.00185901 0.00471506 0.00287415 0.00792828 0.00331199 0.0217006 0.002503 0.00815719 0.00261261 0.0281373 0.00379026 0.0167073 0.00456097 0.0303356 0.00530337 0.0188471 0.00634201 0.0524578
74 3 O 2.28634 15.5093 4.4844 -1.2 1 0.00398388 0.00364333 0.00185946 0.00422049 0.00292662 0.00726099 0.00295544 0.0208969 0.00248547 0.00757407 0.00213927 0.0284579 0.003532 0.0161476 0.00417603 0.0307447 0.00542808 0.0187074 0.00629635 0.0517484
75 3 O -4.34533 12.922 4.4844 -1.2 1 0.00382667 0.00411891 0.0021106 0.00451392 0.00267923 0.0084632 0.00313178 0.0218242 0.00266416 0.00860222 0.00238846 0.0286815 0.0042934 0.0164489 0.00513254 0.0306064 0.00618659 0.0195851 0.00695491 0.0515639
76 3 O 2.98455 13.1899 3.18632 -1.2 1 0.00345209 0.00318887 0.00176184 0.00412952 0.00245332 0.00788803 0.00235511 0.0216573 0.00223206 0.00863477 0.00206385 0.0279926 0.00348828 0.0161484 0.00451615 0.0302065 0.0054199 0.0182503 0.00551189 0.0508553
77 1 Mg 1.34779 11.8725 0 1.2 1 0.00147262 0.00250082 0.00116389 0.0048364 0.0014423 0.00884598 0.00162638 0.0210251 0.00134312 0.00929147 0.00208028 0.0289059 0.00301493 0.015063 0.00336329 0.0299285 0.00362848 0.017027 0.00369304 0.0475892
78 3 O 2.93934 13.1899 5.78248 -1.2 1 0.0042767 0.00407662 0.00189202 0.00446227 0.00262147 0.00704986 0.0027687 0.0219873 0.00253361 0.00825652 0.00308729 0.027085 0.00427277 0.01701 0.00468909 0.0312991 0.00557241 0.021181 0.00649657 0.0531079
79 1 Mg -1.50344 11.9138 1.4948 1.2 1 0.00178331 0.00323511 0.00125265 0.00458379 0.00134729 0.00824815 0.00189882 0.0215253 0.00235233 0.00852275 0.00155402 0.0285893 0.00360146 0.0162233 0.00372282 0.0296681 0.00354818 0.0174502 0.0038088 0.0490825
80 2 Si 0.326006 9.84894 1.4948 2.4 1 0.000839495 0.00324941 0.00119276 0.00496036 0.00199221 0.00811591 0.00221407 0.0209923 0.00221427 0.00842496 0.00183116 0.0283961 0.00312027 0.0158317 0.00401235 0.0288584 0.00396526 0.0176047 0.00365397 0.0485327
81 3 O 0.317364 8.23571 1.4948 -1.2 1 0.00142063 0.00351407 0.00111188 0.00439061 0.00186011 0.00753343 0.00214983 0.0202481 0.00257363 0.00801162 0.00207822 0.0285423 0.00356233 0.0158614 0.00414112 0.0285397 0.00455718 0.0175476 0.00429162 0.0476815
82 3 O 6.94307 10.823 1.4948 -1.2 1 0.00169648 0.00345433 0.00129215 0.00478776 0.0018413 0.00772076 0.00261849 0.0217927 0.00237006 0.00841184 0.00159807 0.0293455 0.00303378 0.0159841 0.00359096 0.0299325 0.00374796 0.0179752 0.00409871 0.0491538
83 3 O -0.343122 10.5551 0.196716 -1.2 1 0.000967883 0.00277191 0.00114668 0.00479498 0.00152439 0.0084196 0.00196454 0.0211311 0.00176596 0.00892961 0.00203475 0.0280111 0.00348064 0.0156524 0.00436025 0.0293491 0.00371484 0.017205 0.00380091 0.0481271
84 3 O -0.385966 10.5551 2.79288 -1.2 1 0.00323465 0.00385643 0.00116724 0.00440038 0.00244345 0.0079819 0.00231023 0.0214286 0.00187996 0.00892665 0.00229188 0.0275961 0.00373332 0.0160043 0.00438564 0.0299742 0.00489079 0.0186585 0.0051177 0.0500935
85 1 Mg 6.49448 14.247 0 1.2 1 0.00144513 0.00299265 0.00154966 0.00484321 0.000958023 0.00921713 0.0012508 0.0212589 0.00124482 0.00857356 0.00153012 0.0287149 0.0018826 0.0155243 0.0026744 0.029799 0.00338417 0.0165123 0.00338359 0.0477417
86 1 Mg 3.74457 18.9547 1.4948 1.2 1 0.00192231 0.00284262 0.00143488 0.0039028 0.00185759 0.00841312 0.00148078 0.0222058 0.00183133 0.00807643 0.00219495 0.0277132 0.00256886 0.0163784 0.00332351 0.0287974 0.00382496 0.01646 0.00328446 0.0497183
87 2 Si 5.55495 16.2705 1.4948 2.4 1 0.00236609 0.00269175 0.00131518 0.00442601 0.00168749 0.00890218 0.00143294 0.0212907 0.00126576 0.00793607 0.00136727 0.0286318 0.00243168 0.0162115 0.00309634 0.0289221 0.00382411 0.0158708 0.00378123 0.0491774
88 3 O 5.6115 17.8838 1.4948 -1.2 1 0.00232047 0.00283292 0.00142205 0.00418771 0.00166507 0.00915017 0.00164167 0.0215896 0.00172177 0.00781883 0.00147435 0.0287479 0.00227147 0.0164371 0.00290384 0.0290215 0.00368712 0.0158665 0.00348666 0.0492721
89 3 O 1.93416 15.2965 1.4948 -1.2 1 0.00233749 0.00279063 0.00144558 0.00438485 0.00176723 0.00831816 0.00191208 0.0218403 0.00178803 0.0081484 0.0015296 0.0289869 0.00227309 0.0160822 0.00310213 0.0297217 0.00394404 0.0165305 0.00341643 0.0494672
90 3 O 4.85636 15.5644 0.196716 -1.2 1 0.00173659 0.0023193 0.00131073 0.00462245 0.0011087 0.00907408 0.00138139 0.0213342 0.00103672 0.00817112 0.00166663 0.0281121 0.00275974 0.016231 0.00347611 0.0292607 0.00348037 0.015758 0.00324101 0.0486257
91 1 Mg 6.44662 14.247 2.9896 1.2 1 0.00252149 0.00349976 0.00148472 0.00440906 0.00236717 0.00845645 0.00291354 0.0207411 0.00256083 0.00875887 0.00178647 0.0290848 0.00304525 0.0165119 0.00331248 0.0295896 0.00417909 0.0175637 0.00472635 0.0498903
92 3 O 4.81537 15.5644 2.79288 -1.2 1 0.00313052 0.00312717 0.00134843 0.00413696 0.00228014 0.00866274 0.00178154 0.0216083 0.00146416 0.00860824 0.00169339 0.0278723 0.00276987 0.0162894 0.00350687 0.0296969 0.00461254 0.0171398 0.00485742 0.0501219
93 1 Mg -0.948271 14.2883 4.4844 1.2 1 0.00428403 0.00374396 0.00163646 0.00410074 0.00267325 0.00754708 0.00281366 0.0213839 0.00269919 0.00812744 0.0025659 0.028335 0.00353263 0.0171326 0.00550046 0.0305789 0.00549693 0.0188608 0.00637165 0.0517691
94 2 Si -2.75928 16.9724 4.4844 2.4 1 0.00400124 0.00352833 0.00174178 0.00422468 0.00271796 0.00779004 0.00301491 0.0219403 0.00265792 0.00776497 0.00244229 0.0277268 0.00338096 0.0167969 0.00473151 0.0299393 0.00508734 0.018524 0.0056989 0.0523213
95 3 O -2.81617 15.3592 4.4844 -1.2 1 0.00437718 0.00358811 0.00185025 0.0041561 0.00288258 0.00750032 0.00312928 0.0208888 0.00267336 0.00764684 0.00200567 0.0284813 0.0035295 0.0161613 0.00460466 0.0306703 0.00552639 0.0184974 0.00650479 0.0516843
96 3 O 0.862762 17.9465 4.4844 -1.2 1 0.00366683 0.00345692 0.00174512 0.00439921 0.00321235 0.00827439 0.00276328 0.0223989 0.0025878 0.00765617 0.00250682 0.0284329 0.00356132 0.0170261 0.00452112 0.0295184 0.00523928 0.0185865 0.00578892 0.0518674
97 3 O -2.0185 17.6786 3.18632 -1.2 1 0.00331236 0.00320784 0.00172598 0.00376685 0.00258607 0.0075338 0.00241947 0.0221927 0.00231875 0.00781844 0.00215379 0.0274334 0.00360464 0.0163886 0.00480875 0.0300177 0.00472289 0.0176188 0.0049697 0.0510804
98 3 O -2.06164 17.6786 5.78248 -1.2 1 0.00447236 0.00359279 0.00163818 0.00425743 0.00292328 0.00678235 0.00257131 0.0222578 0.00239186 0.00784263 0.00246126 0.0274781 0.00369321 0.0175298 0.00523713 0.0310746 0.00567236 0.0203043 0.00574488 0.0533536
99 1 Mg 1.39817 16.6215 2.9896 1.2 1 0.00308947 0.00292826 0.00181919 0.00428188 0.0026609 0.00838321 0.00271911 0.0212309 0.00258862 0.00806338 0.00200823 0.0288752 0.00282032 0.016645 0.00372574 0.0293957 0.0040891 0.016765 0.00443617 0.0500747
100 1 Mg 4.20062 16.5802 4.4844 1.2 1 0.0038162 0.00320024 0.00203904 0.00408556 0.0026212 0.00763566 0.00270359 0.0216453 0.00297265 0.00775506 0.00269645 0.0283399 0.00350319 0.0174016 0.00540761 0.030179 0.00606294 0.0186964 0.00587303 0.0518646
101 2 Si 2.37796 18.645 4.4844 2.4 1 0.00312084 0.00265049 0.00172646 0.00443288 0.0030132 0.00784024 0.00293872 0.0224497 0.00253763 0.00777552 0.0024857 0.0278583 0.00359942 0.0174188 0.00443567 0.0295483 0.00501774 0.0180063 0.00556927 0.0523757
102 3 O 2.39434 20.2583 4.4844 -1.2 1 0.00337889 0.00323002 0.00162735 0.00424673 0.00302103 0.00690687 0.00277412 0.0213223 0.00267929 0.00711027 0.00184083 0.0285492 0.00342028 0.0167272 0.00413013 0.0300945 0.0054731 0.0179266 0.00616487 0.0518901
103 3 O -4.24274 17.671 4.4844 -1.2 1 0.00360006 0.00352206 0.00192282 0.00426354 0.00280802 0.00849496 0.00302712 0.02227 0.00275393 0.0080048 0.0023655 0.0283874 0.00359849 0.0168366 0.00481814 0.0297784 0.00548536 0.0188553 0.00598113 0.0516718
104 3 O 3.08659 17.9389 3.18632 -1.2 1 0.00324687 0.00263016 0.00169401 0.00383004 0.00267903 0.00785699 0.00217615 0.0220918 0.00233132 0.0079075 0.00201169 0.0275952 0.0031595 0.0165068 0.00423945 0.0296076 0.00502737 0.0175761 0.00531865 0.0509575
105 1 Mg 1.44478 16.6215 0 1.2 1 0.00224542 0.00242539 0.00101829 0.00444602 0.00113263 0.00899124 0.00103504 0.0214304 0.00142853 0.00827848 0.00167812 0.0286581 0.00238418 0.015611 0.00249336 0.0291665 0.00317781 0.0159648 0.0032063 0.0483156
106 3 O 3.0436 17.9389 5.78248 -1.2 1 0.00381101 0.00334448 0.0016624 0.00441625 0.00263836 0.00692778 0.00262297 0.0222842 0.0021384 0.00773865 0.00288673 0.0274282 0.00383561 0.0172473 0.00519703 0.0309706 0.00573746 0.0205529 0.00611878 0.0535237
107 1 Mg -1.40524 16.6628 1.4948 1.2 1 0.00201772 0.00300113 0.00115343 0.00442907 0.00160169 0.00869672 0.00194565 0.0220478 0.00190435 0.00811034 0.00184112 0.0282309 0.00320083 0.0166485 0.00320568 0.0294307 0.00310448 0.0165275 0.00337178 0.0492756
108 2 Si 0.420358 14.5979 1.4948 2.4 1 0.00212414 0.00265418 0.00132564 0.00492462 0.00184606 0.00912816 0.00180173 0.0212383 0.00169897 0.00828766 0.00153391 0.028394 0.00310582 0.0164493 0.00380731 0.0289086 0.00355533 0.0162585 0.00361239 0.0490255
109 3 O 0.408732 12.9847 1.4948 -1.2 1 0.00204115 0.00273055 0.00104446 0.00476918 0.001628 0.00905489 0.00158375 0.0210434 0.00215755 0.00846848 0.0014853 0.0289189 0.0031808 0.0161187 0.00336653 0.029758 0.00323717 0.0167873 0.00366248 0.0490979
110 3 O 7.03923 15.572 1.4948 -1.2 1 0.00218743 0.00317173 0.00112936 0.00443126 0.00190667 0.00838735 0.00232172 0.0216282 0.00206041 0.0081185 0.00162072 0.0291563 0.00253342 0.0164047 0.00296638 0.0297027 0.00345932 0.0167489 0.00384205 0.0494814
111 3 O -0.248332 15.3041 0.196716 -1.2 1 0.00198651 0.0024879 0.00112442 0.00470698 0.000991244 0.00917609 0.00187781 0.0211799 0.00122939 0.00827449 0.00182528 0.0278811 0.00282739 0.0156629 0.00346192 0.0291834 0.00320098 0.0160536 0.00331311 0.0483983
112 3 O -0.289436 15.3041 2.79288 -1.2 1 0.00367872 0.00316484 0.00131326 0.00419411 0.00248071 0.00849127 0.00200693 0.0218229 0.00167625 0.00858718 0.00192504 0.0273879 0.00304745 0.0165924 0.00390672 0.0296601 0.00429343 0.0175212 0.00458194 0.0503155
113 1 Mg 6.59566 18.996 0 1.2 1 0.00110118 0.00300053 0.00133986 0.00427521 0.000823753 0.00860431 0.00121665 0.0218932 0.00116896 0.0076941 0.00143951 0.0282271 0.00198444 0.0162672 0.00252259 0.0286547 0.00332157 0.0159559 0.00310607 0.0485735
114 1 Mg 3.85574 23.7037 1.4948 1.2 1 0.0017255 0.00258604 0.00107391 0.00400214 0.00171336 0.00733477 0.00154617 0.0230372 0.00162602 0.00734602 0.00214064 0.0273228 0.00250239 0.0174501 0.00370005 0.0284895 0.00351699 0.0169977 0.00352756 0.0506064
115 2 Si 5.66125 21.0195 1.4948 2.4 1 0.00192215 0.0026781 0.00105756 0.00403778 0.0018627 0.00806945 0.00163912 0.0217814 0.00139735 0.00738394 0.00133455 0.028126 0.00255235 0.017123 0.00278338 0.0281381 0.00372771 0.0158099 0.00401191 0.0499626
116 3 O 5.72074 22.6328 1.4948 -1.2 1 0.00198793 0.00264057 0.00144201 0.00388898 0.00175913 0.00805601 0.0018131 0.0222961 0.00176194 0.00717534 0.00125455 0.0280826 0.00225768 0.0172002 0.00295657 0.0283042 0.00347409 0.0162526 0.00363606 0.0500045
117 3 O 2.03867 20.0455 1.4948 -1.2 1 0.00174071 0.00288441 0.00136668 0.00421423 0.00189825 0.00773694 0.00228242 0.0222646 0.0021941 0.00742829 0.0015156 0.028628 0.00229293 0.0170693 0.00258011 0.0288922 0.0037112 0.0161136 0.00343257 0.0501515
118 3 O 4.96004 20.3134 0.196716 -1.2 1 0.00159028 0.00242128 0.00124394 0.00401157 0.00109838 0.00814653 0.00103817 0.0217483 0.00112763 0.00744047 0.00163209 0.0277499 0.00266961 0.0164235 0.00387205 0.0286315 0.00333349 0.015358 0.00312637 0.0492065
119 1 Mg 6.55057 18.996 2.9896 1.2 1 0.00219716 0.00327331 0.0012722 0.00416111 0.00239325 0.00820321 0.00294268 0.0213589 0.00250856 0.00793204 0.00164392 0.0287816 0.00290342 0.016635 0.00322881 0.0290516 0.00422083 0.0170968 0.00455985 0.0502534