ITEM: TIMESTEP
3600
ITEM: NUMBER OF ATOMS
10500
ITEM: BOX BOUNDS xy xz yz pp pp pp
0	15.2977	5.09925
0	118.725	0
0	89.688	0
ITEM: ATOMS id type element xu yu zu q Q_1 Q_2 Q_3 Q_4 Q_5 Q_6 Q_7 Q_8 Q_9 Q_10 Q_11 Q_12 Q_13 Q_14 Q_15 Q_16 Q_17 Q_18 Q_19 Q_20 Q_21
1 1 Mg 6.2404 -6.37941e-06 0 1.2 1 0.00126017 0.00410578 0.00128586 0.00479349 0.00126237 0.00566037 0.0021945 0.0161246 0.00216207 0.00569146 0.00215079 0.0219539 0.00245285 0.0135207 0.00340126 0.0206472 0.00402215 0.0142579 0.00393776 0.0407029
2 1 Mg 3.46349 4.70768 1.4948 1.2 1 0.00112886 0.00330422 0.00181505 0.00443178 0.00205666 0.00621891 0.00343367 0.0186224 0.00288113 0.00698675 0.00284933 0.0257916 0.00314116 0.0137175 0.00427986 0.0252688 0.00552321 0.0171762 0.00589317 0.0438503
3 2 Si 5.2885 2.02354 1.4948 2.4 1 0.000634784 0.00330173 0.00237602 0.00463188 0.00191687 0.00583514 0.00245844 0.0169883 0.00241153 0.00614126 0.0020612 0.0233811 0.00278772 0.0134679 0.00366364 0.0215459 0.00391585 0.0154647 0.00445371 0.0413782
4 3 O 5.33628 3.63678 1.4948 -1.2 1 0.000577087 0.00263306 0.00196884 0.0047977 0.00218557 0.00638155 0.00284087 0.0176976 0.00234233 0.00669353 0.00188349 0.0253084 0.00254855 0.0135678 0.00424162 0.0240386 0.00511346 0.0164707 0.00591203 0.042938
5 3 O 1.67294 1.04952 1.4948 -1.2 1 0.00169231 0.00325831 0.00209093 0.00428609 0.00136349 0.00574816 0.00252323 0.0168454 0.00240288 0.0060702 0.00211634 0.0228174 0.002648 0.0127654 0.00339868 0.021818 0.00468766 0.0156224 0.00488114 0.0403312
6 3 O 4.59532 1.31737 0.196716 -1.2 1 0.00126781 0.00294524 0.00213976 0.00434413 0.00195618 0.00572044 0.00234738 0.0170924 0.00278618 0.00617507 0.00192623 0.022524 0.00322789 0.0128578 0.00424503 0.0215071 0.00413006 0.0149588 0.00458571 0.0410177
7 1 Mg 6.18956 -6.37941e-06 2.9896 1.2 1 0.000972741 0.00451322 0.00152513 0.00429024 0.00135951 0.00579011 0.00251568 0.0161354 0.0027142 0.00555576 0.00175286 0.0224862 0.00281291 0.0133034 0.00366339 0.0204943 0.00452326 0.0147827 0.00496073 0.0391789
8 3 O 4.55118 1.31737 2.79288 -1.2 1 0.00117953 0.00425409 0.00211901 0.00432233 0.0018368 0.00577518 0.00252652 0.0168721 0.00256664 0.0068996 0.00227673 0.0219196 0.00347474 0.0122051 0.00349404 0.0215027 0.00490183 0.0155027 0.00538228 0.0402192
9 1 Mg -1.20682 0.0413099 4.4844 1.2 1 0.000459246 0.00287236 0.00178053 0.00480518 0.00136678 0.00565461 0.00201063 0.0163137 0.00210085 0.00606528 0.00210095 0.0229359 0.0031648 0.0117133 0.00369795 0.0207584 0.00542283 0.0157276 0.0051701 0.0389978
10 2 Si -3.0337 2.72544 4.4844 2.4 1 0.000606158 0.00329396 0.00186837 0.00499554 0.00233803 0.00637153 0.00332874 0.0167969 0.00322505 0.00637238 0.00231468 0.024229 0.00336375 0.0128923 0.00417992 0.0223216 0.00548599 0.0176625 0.00632428 0.0401102
11 3 O -3.08099 1.11221 4.4844 -1.2 1 0.000786947 0.00380471 0.00192204 0.00439474 0.00136701 0.00562107 0.00243073 0.0161905 0.00280331 0.00567347 0.00214584 0.0226334 0.00340681 0.0113134 0.00358435 0.0213319 0.00519339 0.016283 0.00560698 0.0387916
12 3 O 0.582463 3.69946 4.4844 -1.2 1 0.00193525 0.00455898 0.0020058 0.00462165 0.00261941 0.00691004 0.00348782 0.0173506 0.00340866 0.00659853 0.00320872 0.0250589 0.00421403 0.0129927 0.00445971 0.0244636 0.0070186 0.0188608 0.00838565 0.0423487
13 3 O -2.29524 3.43162 3.18632 -1.2 1 0.00077693 0.00286501 0.00256871 0.00471944 0.00219569 0.00616102 0.00295852 0.0179108 0.00324021 0.00671212 0.002652 0.0247123 0.00337471 0.0129831 0.00479084 0.0243001 0.00613784 0.0180108 0.0068482 0.0422887
14 3 O -2.34216 3.43162 5.78248 -1.2 1 0.00167061 0.00380347 0.00127462 0.00509633 0.00272395 0.00631826 0.0032413 0.017181 0.00291743 0.00735806 0.00271807 0.0238561 0.00450218 0.0125584 0.00428005 0.0235806 0.00654326 0.0195547 0.00786213 0.040998
15 1 Mg 1.12778 2.37449 2.9896 1.2 1 0.00141667 0.0035705 0.00226816 0.00457604 0.00224356 0.00603332 0.00296396 0.0167061 0.00272976 0.00618969 0.00236583 0.0237447 0.00327005 0.0129767 0.00352686 0.0218976 0.00499797 0.0165373 0.00576658 0.040996
16 1 Mg 3.92855 2.33318 4.4844 1.2 1 0.00133977 0.00440295 0.00174378 0.0043121 0.00184748 0.0058979 0.00343851 0.0167971 0.0032499 0.00611221 0.00293395 0.0231743 0.00383743 0.013344 0.00516493 0.0219464 0.00657638 0.0172581 0.00714242 0.0405373
17 2 Si 2.09341 4.39804 4.4844 2.4 1 0.00144879 0.00425527 0.00202105 0.00433662 0.00299494 0.00620038 0.00371686 0.0182012 0.00350285 0.00674126 0.00343695 0.0252525 0.00456476 0.0140435 0.00455714 0.0248179 0.00694245 0.0186938 0.00855469 0.0439565
18 3 O 2.09991 6.01128 4.4844 -1.2 1 0.00205633 0.00449208 0.00155055 0.00425587 0.0030068 0.00667172 0.00319824 0.0192183 0.00289562 0.00731119 0.00314616 0.0270393 0.00424188 0.0144014 0.00488969 0.0275642 0.00696497 0.0196381 0.0082924 0.0460485
19 3 O -4.52137 3.42402 4.4844 -1.2 1 0.00100814 0.00364412 0.00227795 0.00472854 0.00220585 0.00727343 0.00345352 0.0171205 0.00338999 0.00636906 0.00306628 0.0239315 0.00414069 0.0128835 0.00446652 0.0230414 0.00650029 0.0178896 0.00790978 0.0417617
20 3 O 2.80834 3.69187 3.18632 -1.2 1 0.00121239 0.00364108 0.0017955 0.00381443 0.0021037 0.00604931 0.00298669 0.0174372 0.00314802 0.00642682 0.00280948 0.0243902 0.00364025 0.0129372 0.00472129 0.0238592 0.0058773 0.0171502 0.00661852 0.0428682
21 1 Mg 1.17857 2.37449 0 1.2 1 0.00213951 0.00347275 0.00214476 0.00411672 0.00146308 0.00553851 0.00251214 0.0171435 0.0024151 0.00662961 0.00266228 0.0232893 0.00281585 0.0131921 0.00359124 0.0216018 0.00435882 0.0149932 0.00475132 0.0410357
22 3 O 2.76143 3.69187 5.78248 -1.2 1 0.00189645 0.00448897 0.00170602 0.00437756 0.00230607 0.0057937 0.00284854 0.0177217 0.00328899 0.00724633 0.00304394 0.0238226 0.00477989 0.0131852 0.00543517 0.0235499 0.00671953 0.0189338 0.00779765 0.0420124
23 1 Mg -1.67381 2.41581 1.4948 1.2 1 0.00136573 0.0025497 0.00261046 0.00482778 0.0014643 0.00603967 0.002318 0.0167013 0.00286233 0.00627408 0.00189806 0.0242523 0.00245418 0.0141133 0.00287025 0.022216 0.00450785 0.0161236 0.0049711 0.0418547
24 2 Si 0.16286 0.350945 1.4948 2.4 1 0.00197401 0.00271514 0.00283367 0.00451503 0.0013346 0.00634002 0.00284534 0.0163796 0.00230749 0.00519517 0.00190707 0.0229382 0.0024714 0.0135221 0.00314204 0.0207303 0.00468025 0.0147667 0.00438554 0.040457
25 3 O 0.15972 -1.26229 1.4948 -1.2 1 0.00195082 0.00263796 0.00298854 0.00449262 0.00184472 0.0059633 0.00262626 0.0164291 0.00230756 0.00548509 0.00246299 0.022804 0.0026214 0.0137931 0.00288217 0.021661 0.00421358 0.0146415 0.00400569 0.0408298
26 3 O 6.77654 1.32496 1.4948 -1.2 1 0.00117707 0.00364221 0.00174105 0.00462209 0.00128829 0.00602644 0.00230111 0.0167228 0.00252733 0.00544556 0.00169809 0.0237662 0.00274906 0.0135408 0.00355265 0.021799 0.00464597 0.0153267 0.0045451 0.0409064
27 3 O -0.508028 1.05712 0.196716 -1.2 1 0.00164579 0.00273454 0.00333143 0.00414267 0.00137008 0.00560807 0.00254675 0.0170001 0.0018006 0.0066399 0.00255202 0.0221411 0.00268423 0.0128452 0.00317478 0.0211591 0.0042607 0.015168 0.0044375 0.0402785
28 3 O -0.552171 1.05712 2.79288 -1.2 1 0.000952092 0.00230201 0.0029179 0.00454495 0.00140773 0.00620564 0.00241227 0.0162757 0.00254459 0.00626714 0.00178505 0.0229524 0.00310351 0.0118105 0.00371864 0.0215368 0.0053604 0.0158669 0.00495907 0.0396958
29 1 Mg 6.31713 4.74899 0 1.2 1 0.000939586 0.0025183 0.00211379 0.00465051 0.00238965 0.0062665 0.00324536 0.0180056 0.00281265 0.00705236 0.00211135 0.0254378 0.00286216 0.0136837 0.00421495 0.0247769 0.00478497 0.0164462 0.00601472 0.0430908
30 1 Mg 3.54847 9.45668 1.4948 1.2 1 0.00109368 0.0034307 0.00184597 0.00454135 0.00212802 0.00767828 0.00306467 0.0212877 0.00171064 0.0084214 0.00227848 0.0285451 0.00313336 0.0155129 0.00364985 0.0293086 0.00438019 0.0183068 0.00397873 0.0489889
31 2 Si 5.36879 6.77254 1.4948 2.4 1 0.000393246 0.00301846 0.00209007 0.0050407 0.00277937 0.00705532 0.00368408 0.019574 0.00277794 0.00783957 0.00245571 0.0277811 0.00320113 0.0152339 0.00418582 0.0269751 0.00478574 0.017485 0.00540733 0.0467501
32 3 O 5.41937 8.38578 1.4948 -1.2 1 0.000751835 0.00321803 0.0017076 0.00496453 0.00223858 0.00778142 0.00307507 0.0209065 0.00230716 0.00838307 0.00242865 0.0291342 0.00241643 0.0155157 0.00307387 0.0292184 0.00475999 0.0176154 0.00500122 0.0482626
33 3 O 1.75158 5.79852 1.4948 -1.2 1 0.00107813 0.00343785 0.00158257 0.00410929 0.00242704 0.00613556 0.0031862 0.0194808 0.00282662 0.00729622 0.00258962 0.0279954 0.0029101 0.0154051 0.00349609 0.0268917 0.00552829 0.017685 0.00569069 0.0459339
34 3 O 4.67421 6.06637 0.196716 -1.2 1 0.000653899 0.00288043 0.00185385 0.00480591 0.00210962 0.00699847 0.00291925 0.0197413 0.00255877 0.00821676 0.00206796 0.0264451 0.00354924 0.0142355 0.00426246 0.0266931 0.00475628 0.0168514 0.00569002 0.0453786
35 1 Mg 6.26654 4.74899 2.9896 1.2 1 0.00131943 0.00301025 0.00235886 0.00496073 0.00266616 0.00672172 0.00375866 0.0179115 0.00378987 0.00707433 0.00221275 0.026102 0.00383127 0.0143961 0.00506018 0.0250573 0.00604183 0.0177277 0.0072559 0.043858
36 3 O 4.63043 6.06637 2.79288 -1.2 1 0.00182201 0.00332038 0.0018965 0.00490458 0.0022851 0.0069768 0.00339351 0.0194626 0.00334767 0.00786389 0.0023914 0.0263978 0.00398099 0.0145321 0.00448165 0.0274583 0.00605888 0.0184792 0.00721808 0.0457756
37 1 Mg -1.12976 4.79031 4.4844 1.2 1 0.00167757 0.00417034 0.0015784 0.00496926 0.00239606 0.00652405 0.00323673 0.0180959 0.00357789 0.00707858 0.00313891 0.0262629 0.0042221 0.0142744 0.00479856 0.0258738 0.00767645 0.0194924 0.00824889 0.0446096
38 2 Si -2.9517 7.47444 4.4844 2.4 1 0.00221874 0.00425516 0.00136547 0.00536831 0.00303622 0.0068261 0.00381719 0.0204437 0.00323156 0.00787761 0.00315997 0.0279437 0.00463436 0.0158918 0.0056085 0.0282199 0.00714661 0.019616 0.00828803 0.0481654
39 3 O -3.00198 5.86121 4.4844 -1.2 1 0.00173255 0.00423168 0.00134309 0.00504577 0.00319507 0.006687 0.00407373 0.0189834 0.00354173 0.00764947 0.00288368 0.026294 0.00455817 0.0141139 0.00494278 0.0271184 0.00711254 0.0199111 0.00859727 0.0459998
40 3 O 0.666315 8.44846 4.4844 -1.2 1 0.00270369 0.00508122 0.00137851 0.00510244 0.00309583 0.00762844 0.00297805 0.0212383 0.00314852 0.00790807 0.00343468 0.0286808 0.00453918 0.0159259 0.00459766 0.0296691 0.00667103 0.020192 0.00821921 0.0493176
41 3 O -2.21213 8.18062 3.18632 -1.2 1 0.00179294 0.00436974 0.00158054 0.00460065 0.00267717 0.00646657 0.0027582 0.0207908 0.00285542 0.00816872 0.00290205 0.0279715 0.00435549 0.0158482 0.0050625 0.0291618 0.00597672 0.019068 0.00683729 0.0490333
42 3 O -2.25864 8.18062 5.78248 -1.2 1 0.00292327 0.00482555 0.00164059 0.00500251 0.00323253 0.00636616 0.00298465 0.0208773 0.00253012 0.00858686 0.00375938 0.0273977 0.0045466 0.016523 0.00566582 0.0297064 0.00743551 0.0212459 0.00851016 0.0501115
43 1 Mg 1.20893 7.12349 2.9896 1.2 1 0.00148741 0.0039476 0.00172387 0.00445853 0.00279989 0.00691585 0.00361221 0.0196599 0.0028817 0.00807906 0.00276887 0.0281679 0.0035659 0.0156469 0.00387271 0.0275999 0.00573638 0.0184923 0.0065001 0.0472216
44 1 Mg 4.00982 7.08218 4.4844 1.2 1 0.00219137 0.00409698 0.00157926 0.00489219 0.00254207 0.00667788 0.00379069 0.0200678 0.00347551 0.00755044 0.00324744 0.027809 0.00443577 0.0164994 0.00582562 0.0283357 0.00742675 0.0195975 0.00852513 0.0476516
45 2 Si 2.17861 9.14704 4.4844 2.4 1 0.00258991 0.00446852 0.00164711 0.00491978 0.00300494 0.00755646 0.00361454 0.0212947 0.0029252 0.00817749 0.00329382 0.0284937 0.0047673 0.0165717 0.00467725 0.0299084 0.00626781 0.0200025 0.00725243 0.0508899
46 3 O 2.18828 10.7603 4.4844 -1.2 1 0.00317598 0.00467021 0.00202631 0.0046248 0.00269514 0.00726295 0.00286183 0.0210017 0.00252446 0.00822663 0.00251513 0.0290223 0.00426648 0.0157677 0.00452463 0.031006 0.00636551 0.0201395 0.0069752 0.0515217
47 3 O -4.43805 8.17302 4.4844 -1.2 1 0.00174003 0.00454745 0.00160345 0.00512439 0.00258469 0.00786267 0.00321424 0.02081 0.00324077 0.00831576 0.00306198 0.0286961 0.00485481 0.0158568 0.00480282 0.0295407 0.00698027 0.0200023 0.00888429 0.0487845
48 3 O 2.89193 8.44087 3.18632 -1.2 1 0.00219052 0.00384277 0.00175283 0.00442276 0.0025842 0.00714906 0.00320306 0.0206126 0.00293652 0.00848834 0.00291356 0.0278257 0.00389298 0.0158195 0.00469419 0.0291539 0.00612641 0.018995 0.00606687 0.0489814
49 1 Mg 1.25915 7.12349 0 1.2 1 0.00085669 0.00313728 0.00149777 0.00421658 0.00190872 0.00730684 0.00285048 0.0201864 0.00283131 0.008221 0.00233839 0.0277092 0.00338516 0.0143413 0.00340445 0.0277766 0.00464316 0.0175856 0.00452624 0.0464264
50 3 O 2.84547 8.44087 5.78248 -1.2 1 0.00282236 0.00501823 0.00160974 0.00495304 0.00268834 0.00683831 0.00330937 0.0211236 0.00312916 0.00874606 0.00368713 0.02754 0.00570945 0.0165364 0.00563822 0.0300095 0.00657418 0.0216449 0.00806641 0.0503319
51 1 Mg -1.59284 7.16481 1.4948 1.2 1 0.00101763 0.00340304 0.00133795 0.00469739 0.00183728 0.00651437 0.00260108 0.0199217 0.00292787 0.00785634 0.0018063 0.0278112 0.00337016 0.0154518 0.00371147 0.0272842 0.00471954 0.017777 0.00571537 0.0469153
52 2 Si 0.240329 5.09994 1.4948 2.4 1 0.00105478 0.00359334 0.00186976 0.0041785 0.00191539 0.00690153 0.0030121 0.0189019 0.00314926 0.00729569 0.00218727 0.0261413 0.00283657 0.0145002 0.00408303 0.0248559 0.00523539 0.0171132 0.00543309 0.0449292
53 3 O 0.234538 3.48671 1.4948 -1.2 1 0.00159312 0.00368878 0.00257939 0.00436767 0.00187745 0.00649855 0.00252797 0.01788 0.00341642 0.00691837 0.00228149 0.0246004 0.00320635 0.0135496 0.00398028 0.0240156 0.00561862 0.0161581 0.00563601 0.0425601
54 3 O 6.85564 6.07396 1.4948 -1.2 1 0.000845233 0.00269003 0.00237147 0.00484317 0.00256954 0.00626258 0.00304151 0.0198254 0.0031284 0.00757507 0.00214597 0.0278263 0.00331975 0.0145623 0.00473607 0.0270252 0.00571669 0.0178438 0.00645582 0.0456278
55 3 O -0.429565 5.80612 0.196716 -1.2 1 0.000873728 0.00322759 0.00208486 0.00422189 0.00190077 0.00722821 0.00244331 0.0195389 0.0028458 0.0084542 0.00235741 0.0258547 0.00264218 0.0141307 0.00379615 0.0260177 0.00510597 0.0169477 0.0058304 0.0454404
56 3 O -0.473377 5.80612 2.79288 -1.2 1 0.00159497 0.00345964 0.00181146 0.00455909 0.00245434 0.00686972 0.0029845 0.0191598 0.00326608 0.00794671 0.00305159 0.0261306 0.00387148 0.0144218 0.00460061 0.0265034 0.00655224 0.0185418 0.00694518 0.0460187
57 1 Mg 6.40169 9.49799 0 1.2 1 0.000200649 0.00383698 0.00146695 0.00457743 0.00143284 0.00833131 0.00199351 0.0210871 0.00177558 0.0089135 0.00164029 0.0289749 0.00243086 0.0147324 0.00255359 0.0299552 0.00363312 0.0180181 0.0040638 0.0479049
58 1 Mg 3.64209 14.2057 1.4948 1.2 1 0.00191993 0.00319189 0.0016665 0.00436723 0.0018761 0.00874986 0.00169911 0.021678 0.0015402 0.0087272 0.00223478 0.0284878 0.00248936 0.0161786 0.00307338 0.0295993 0.00364947 0.0170542 0.003439 0.0497227
59 2 Si 5.45748 11.5215 1.4948 2.4 1 0.00172937 0.00338988 0.00176605 0.00442697 0.00183122 0.00820865 0.00214905 0.0210994 0.00157122 0.00830464 0.00174364 0.0290022 0.00266956 0.0161602 0.00335903 0.0294227 0.00425379 0.0170269 0.00380962 0.0495033
60 3 O 5.51101 13.1348 1.4948 -1.2 1 0.00189645 0.00340616 0.00183773 0.00443022 0.00170656 0.00906646 0.00183533 0.0212116 0.00172594 0.00869353 0.00159608 0.029464 0.00217534 0.0161646 0.00283295 0.0299794 0.00385552 0.0167716 0.00353217 0.0494111
61 3 O 1.83851 10.5475 1.4948 -1.2 1 0.00100312 0.00366688 0.00172226 0.00483062 0.00188045 0.00778117 0.00235763 0.0215898 0.00180689 0.00835644 0.00219578 0.0294452 0.00266429 0.0158036 0.00327077 0.0299781 0.00433732 0.0179516 0.00358096 0.0495989
62 3 O 4.7611 10.8154 0.196716 -1.2 1 0.000607319 0.00311657 0.00180184 0.00449745 0.00156177 0.00852137 0.002206 0.0213916 0.00146765 0.00876626 0.00183702 0.0283994 0.00298484 0.0156012 0.00385513 0.0295938 0.00375775 0.0172624 0.00355658 0.0488351
63 1 Mg 6.35203 9.49799 2.9896 1.2 1 0.0014151 0.00410317 0.0017073 0.00477115 0.00262527 0.00761539 0.00333407 0.0204577 0.00314162 0.00859146 0.002171 0.0293839 0.00382465 0.0160413 0.00345559 0.0294642 0.00460492 0.018608 0.00570791 0.0491365
64 3 O 4.71833 10.8154 2.79288 -1.2 1 0.0024364 0.00365302 0.00174 0.00436052 0.00217888 0.00822881 0.00223864 0.0213635 0.0020252 0.00898193 0.00218039 0.0284413 0.00357859 0.0159197 0.00409629 0.0302595 0.00549965 0.0184883 0.00557324 0.0503911
65 1 Mg -1.0438 9.53931 4.4844 1.2 1 0.00268605 0.00501641 0.00149896 0.00467423 0.00310011 0.00687664 0.00249489 0.0211058 0.00304469 0.00848519 0.00287533 0.0286674 0.00405316 0.0164857 0.0047353 0.0302786 0.00671409 0.0202174 0.00739742 0.0505177
66 2 Si -2.8604 12.2234 4.4844 2.4 1 0.0029928 0.00455871 0.00190062 0.00456828 0.00280266 0.00776059 0.00303639 0.0219861 0.00295268 0.00855259 0.00244319 0.0286417 0.00415423 0.0165866 0.00456463 0.0305108 0.0059712 0.0196673 0.00676952 0.0523927
67 3 O -2.91391 10.6102 4.4844 -1.2 1 0.00304834 0.00492926 0.00179698 0.00453632 0.00295179 0.00718594 0.00322403 0.0207427 0.00271594 0.00790846 0.00230656 0.028989 0.00433368 0.0158665 0.00448863 0.031046 0.00614617 0.0200159 0.00701931 0.051246
68 3 O 0.7596 13.1975 4.4844 -1.2 1 0.00312867 0.00444588 0.00200284 0.00502129 0.00285416 0.00872823 0.00267482 0.0222831 0.00291428 0.00844516 0.00293619 0.0291155 0.00423106 0.0165096 0.00433186 0.030611 0.0062329 0.0199637 0.00691531 0.052098
69 3 O -2.12001 12.9296 3.18632 -1.2 1 0.00302837 0.00412403 0.00178268 0.00418337 0.0025356 0.00758796 0.00215752 0.0218134 0.00247034 0.00848677 0.002416 0.0281568 0.00365592 0.0163546 0.00467142 0.0307318 0.00538495 0.0187334 0.00555961 0.0513033
70 3 O -2.16532 12.9296 5.78248 -1.2 1 0.00366569 0.00487582 0.00188214 0.00469928 0.00297148 0.00708514 0.00241703 0.022348 0.00256514 0.00847055 0.0027401 0.0283169 0.00414999 0.0172373 0.00465113 0.031633 0.00652114 0.0215837 0.00711193 0.0540974
71 1 Mg 1.29891 11.8725 2.9896 1.2 1 0.00246953 0.00367375 0.00187013 0.00475641 0.00243283 0.00806435 0.00275577 0.0211226 0.00255998 0.00849914 0.00210294 0.0292782 0.00338925 0.0163182 0.00352829 0.0301433 0.00485021 0.018062 0.00511378 0.0502812
72 1 Mg 4.10033 11.8312 4.4844 1.2 1 0.00310971 0.00420751 0.00207458 0.0043678 0.00259176 0.00739837 0.00261763 0.0214726 0.00251709 0.00831291 0.00278174 0.0293604 0.00392231 0.0174078 0.00515258 0.030676 0.00673715 0.0197011 0.00661024 0.0518528
73 2 Si 2.27333 13.896 4.4844 2.4 1 0.0030439 0.00386309 0.00187552 0.00502388 0.00306982 0.00807888 0.00311587 0.0219445 0.00251114 0.00830869 0.0029544 0.0286389 0.00398305 0.0169542 0.00448932 0.0304258 0.00573432 0.0193132 0.00646414 0.0528977
74 3 O 2.28634 15.5093 4.4844 -1.2 1 0.00308991 0.004216 0.00199814 0.00471233 0.0030732 0.00744023 0.00277819 0.0212712 0.00263947 0.00781391 0.0022009 0.0290817 0.00358683 0.0162663 0.00408171 0.0309922 0.00591463 0.0191121 0.00658182 0.0525568
75 3 O -4.34533 12.922 4.4844 -1.2 1 0.00287273 0.00458032 0.00213189 0.00472107 0.0028394 0.00847832 0.00296259 0.0219546 0.00291149 0.00853624 0.00261006 0.0291655 0.00419517 0.016365 0.00493612 0.0308969 0.00654839 0.0200515 0.00742092 0.0521979
76 3 O 2.98455 13.1899 3.18632 -1.2 1 0.00294592 0.00369908 0.001803 0.00435397 0.00257151 0.00796234 0.00210548 0.0218805 0.00221718 0.00860924 0.00237689 0.0282831 0.00344345 0.01621 0.00430587 0.0302816 0.00573115 0.0185472 0.00568319 0.0510669
77 1 Mg 1.34779 11.8725 0 1.2 1 0.000989516 0.00316352 0.00135891 0.00456724 0.0015605 0.00886873 0.00161179 0.0212179 0.00129161 0.00910084 0.00189151 0.0291165 0.00271761 0.0149278 0.00287549 0.0302604 0.00312742 0.0173452 0.00303994 0.0484965
78 3 O 2.93934 13.1899 5.78248 -1.2 1 0.0033022 0.00484536 0.00188699 0.00502926 0.00285437 0.00728265 0.0026015 0.0221223 0.00272232 0.00850023 0.00330535 0.0281395 0.00461505 0.0170257 0.00509116 0.0316881 0.00644701 0.0216128 0.0069938 0.0543054
79 1 Mg -1.50344 11.9138 1.4948 1.2 1 0.00128841 0.00376736 0.00148588 0.00438368 0.00147518 0.00825751 0.00174942 0.0216523 0.00245226 0.00854454 0.0015058 0.0287979 0.00352004 0.0161325 0.00336269 0.0298259 0.00359522 0.0175902 0.00374164 0.0494059
80 2 Si 0.326006 9.84894 1.4948 2.4 1 0.000524126 0.00362245 0.00131562 0.00486745 0.00196239 0.00818211 0.00200242 0.0210387 0.00217654 0.0084683 0.00158528 0.0286746 0.00298399 0.0156923 0.00360228 0.0290785 0.00392599 0.0178502 0.00357479 0.048887
81 3 O 0.317364 8.23571 1.4948 -1.2 1 0.00103689 0.00371343 0.00111109 0.0044373 0.00189527 0.00776932 0.00202324 0.0203176 0.00265219 0.00802243 0.0017744 0.0288251 0.00350519 0.0157166 0.00377427 0.0286954 0.00453037 0.0177736 0.00435269 0.0479684
82 3 O 6.94307 10.823 1.4948 -1.2 1 0.00117823 0.003924 0.00153906 0.00436393 0.00192767 0.00776517 0.00252902 0.0217679 0.00243692 0.00840405 0.00145326 0.0295645 0.00299793 0.0158174 0.00334167 0.0300283 0.00393215 0.0180381 0.00418688 0.0495218
83 3 O -0.343122 10.5551 0.196716 -1.2 1 0.000554758 0.0033087 0.00120204 0.00457893 0.00151076 0.00862637 0.00186106 0.021314 0.00180328 0.00896548 0.00189914 0.0282542 0.00322923 0.0153743 0.00408872 0.0295134 0.00359932 0.017517 0.00348807 0.048799
84 3 O -0.385966 10.5551 2.79288 -1.2 1 0.00263574 0.00410907 0.00135885 0.00447527 0.0025944 0.00803761 0.00210822 0.0215583 0.00220572 0.00906911 0.00247717 0.0278959 0.00388679 0.0160092 0.00423002 0.0302289 0.00535151 0.018747 0.00519814 0.0502769
85 1 Mg 6.49448 14.247 0 1.2 1 0.00122008 0.00346005 0.00166136 0.00444656 0.001248 0.00920466 0.0012996 0.0212986 0.0011795 0.00861867 0.00142301 0.0289687 0.0016014 0.0155552 0.00241324 0.030107 0.00306843 0.0166145 0.00276057 0.0484764
86 1 Mg 3.74457 18.9547 1.4948 1.2 1 0.00200671 0.00313133 0.00141839 0.00383384 0.00198916 0.00845828 0.00134736 0.0222015 0.00188551 0.00815248 0.00228414 0.0279484 0.00244828 0.016655 0.00342625 0.028816 0.0035778 0.0165063 0.00333184 0.0501473
87 2 Si 5.55495 16.2705 1.4948 2.4 1 0.00227555 0.00308241 0.00148995 0.00417879 0.00199107 0.00886355 0.00142073 0.0215048 0.00133423 0.00800681 0.00131183 0.0287312 0.00229397 0.0164288 0.00282867 0.0288391 0.00376762 0.0160773 0.00361175 0.049824
88 3 O 5.6115 17.8838 1.4948 -1.2 1 0.00221415 0.00309678 0.00164913 0.00399456 0.00194238 0.0091061 0.00152807 0.0216607 0.00174882 0.00795795 0.00145186 0.0289342 0.00206768 0.016593 0.00269627 0.0289849 0.0033273 0.0158555 0.00345338 0.0497987
89 3 O 1.93416 15.2965 1.4948 -1.2 1 0.00201613 0.00313296 0.0016396 0.0043258 0.00195379 0.00836869 0.00201001 0.0218874 0.00180586 0.00811973 0.00142344 0.0292409 0.00210159 0.0163157 0.00288589 0.029736 0.00381273 0.0166069 0.00334469 0.0501064
90 3 O 4.85636 15.5644 0.196716 -1.2 1 0.00165237 0.00265056 0.00147401 0.00430761 0.00146001 0.00905413 0.00144632 0.0213143 0.00107918 0.00822724 0.00151378 0.028322 0.00255176 0.0162639 0.00340874 0.0294129 0.00321957 0.0158417 0.00285459 0.0492765
91 1 Mg 6.44662 14.247 2.9896 1.2 1 0.00179676 0.00384073 0.0016964 0.00440704 0.00263412 0.00850871 0.0028524 0.0208789 0.00265201 0.00877961 0.00194717 0.0295871 0.0031765 0.0164486 0.0030998 0.0298174 0.00416475 0.017702 0.00470794 0.0502978
92 3 O 4.81537 15.5644 2.79288 -1.2 1 0.00259901 0.00334505 0.00156385 0.00427331 0.00250505 0.00874526 0.00175537 0.0218796 0.00160685 0.00864876 0.0017043 0.0282495 0.00280932 0.0164527 0.00360013 0.0299172 0.00479761 0.0174398 0.00509243 0.0508882
93 1 Mg -0.948271 14.2883 4.4844 1.2 1 0.00334797 0.00421874 0.00180758 0.00446877 0.00281917 0.00785259 0.00260788 0.0217168 0.00284097 0.00838893 0.00287302 0.028875 0.00338497 0.0170013 0.0049418 0.0308011 0.00616601 0.0193066 0.00664004 0.0524185
94 2 Si -2.75928 16.9724 4.4844 2.4 1 0.00292762 0.00374796 0.00197694 0.00461731 0.00295903 0.00802661 0.002765 0.0222091 0.00274095 0.00801347 0.00254986 0.0283552 0.00351376 0.0170685 0.00458043 0.0300097 0.00526892 0.018645 0.00616066 0.053173
95 3 O -2.81617 15.3592 4.4844 -1.2 1 0.00346914 0.00421168 0.0019533 0.00446244 0.00305366 0.0076339 0.00274446 0.0213137 0.00264977 0.00786732 0.00231372 0.0290277 0.00383634 0.0163054 0.00422632 0.0308702 0.00621381 0.0189523 0.00675686 0.0524898
96 3 O 0.862762 17.9465 4.4844 -1.2 1 0.00281067 0.00408424 0.00188156 0.00469472 0.00313592 0.0085192 0.00261715 0.022544 0.0027052 0.00798391 0.00251351 0.0290108 0.00377566 0.017176 0.00444122 0.0297181 0.00580106 0.018955 0.00639804 0.0528508
97 3 O -2.0185 17.6786 3.18632 -1.2 1 0.00266098 0.00356284 0.00191025 0.00396528 0.00276491 0.0075899 0.00218037 0.0222554 0.00233298 0.00801989 0.00221802 0.0278844 0.00349041 0.0167179 0.00457118 0.0301524 0.00480623 0.0177642 0.00521884 0.0518998
98 3 O -2.06164 17.6786 5.78248 -1.2 1 0.00339677 0.0043984 0.0018287 0.00471942 0.0029744 0.00716454 0.00229494 0.0226142 0.00252777 0.00802856 0.0027813 0.0282695 0.00356426 0.0176404 0.00502085 0.0313159 0.00622694 0.020745 0.00660007 0.055152
99 1 Mg 1.39817 16.6215 2.9896 1.2 1 0.00274642 0.00331978 0.00179085 0.00438154 0.00268011 0.00833414 0.00258231 0.0212924 0.00259317 0.00817993 0.00206548 0.0291344 0.00284861 0.0167738 0.00347873 0.0295166 0.00430446 0.0168624 0.00448113 0.0505614
100 1 Mg 4.20062 16.5802 4.4844 1.2 1 0.00296525 0.00365491 0.00202125 0.00446031 0.00284244 0.00766847 0.00238087 0.0218136 0.003051 0.00785819 0.00282589 0.0288273 0.00344781 0.0177062 0.00542556 0.0304425 0.00637646 0.0188247 0.0062633 0.0528256
101 2 Si 2.37796 18.645 4.4844 2.4 1 0.00255015 0.00351575 0.00175075 0.00457844 0.00308489 0.00800437 0.00282581 0.022513 0.00266191 0.0079883 0.0026401 0.0283524 0.00359691 0.017429 0.00451924 0.0296303 0.00535364 0.0184777 0.00592451 0.0536883
102 3 O 2.39434 20.2583 4.4844 -1.2 1 0.00254846 0.00379355 0.00169281 0.00453607 0.00307971 0.00701416 0.00263878 0.0217502 0.00278597 0.00743621 0.00201191 0.0290312 0.00338707 0.0169655 0.00412744 0.0301227 0.00571922 0.0184122 0.00661796 0.0532369
103 3 O -4.24274 17.671 4.4844 -1.2 1 0.0025105 0.00411272 0.00218258 0.00466186 0.00294141 0.00868264 0.00273402 0.0224859 0.00290684 0.00807471 0.0023842 0.0289027 0.0035164 0.0169652 0.00478791 0.0301778 0.00595162 0.019098 0.00662385 0.0529437
104 3 O 3.08659 17.9389 3.18632 -1.2 1 0.00274192 0.00312286 0.00175489 0.00399157 0.00279538 0.0078715 0.0019361 0.0222121 0.00237213 0.00810981 0.00223048 0.0278981 0.00314484 0.0166755 0.00437807 0.0297135 0.0054307 0.0176668 0.00552576 0.0517476
105 1 Mg 1.44478 16.6215 0 1.2 1 0.00230302 0.00292532 0.00109844 0.00403809 0.00152787 0.00896875 0.00110403 0.021475 0.00135722 0.00828013 0.00148969 0.0287752 0.00215419 0.0158505 0.00226552 0.0292847 0.00287453 0.0161266 0.00289448 0.0489885
106 3 O 3.0436 17.9389 5.78248 -1.2 1 0.00252513 0.00415659 0.00181468 0.00502301 0.00292304 0.00724574 0.00236197 0.022704 0.0025138 0.00822002 0.00308093 0.0282357 0.00392774 0.0174431 0.00515239 0.0311874 0.00617582 0.0209928 0.00638293 0.0552203
107 1 Mg -1.40524 16.6628 1.4948 1.2 1 0.00177304 0.00328319 0.00144047 0.00415186 0.00174632 0.00862149 0.00176183 0.0221975 0.0019597 0.00825365 0.00175475 0.0283473 0.00301708 0.016739 0.00297441 0.0293495 0.00292223 0.0166261 0.00315687 0.0498409
108 2 Si 0.420358 14.5979 1.4948 2.4 1 0.00177894 0.00309821 0.00158343 0.00466384 0.00206971 0.0090933 0.00177603 0.0213229 0.00164038 0.00827426 0.0014711 0.0286159 0.00282904 0.0164538 0.00343258 0.0289584 0.00354428 0.0164764 0.00333872 0.0495928
109 3 O 0.408732 12.9847 1.4948 -1.2 1 0.0015972 0.00326227 0.00138755 0.0046267 0.00189674 0.00902756 0.00146153 0.0211334 0.00220741 0.00842603 0.00145948 0.0291759 0.00302509 0.0160881 0.00300769 0.0299262 0.00332254 0.0169692 0.00362871 0.0495365
110 3 O 7.03923 15.572 1.4948 -1.2 1 0.00187585 0.00342139 0.00157276 0.0042222 0.00215383 0.0082929 0.00225357 0.0217091 0.00219633 0.00811453 0.00150544 0.029377 0.00251188 0.0164243 0.00286064 0.0296888 0.0034708 0.016759 0.0037843 0.0499102
111 3 O -0.248332 15.3041 0.196716 -1.2 1 0.00189729 0.00287653 0.00130094 0.00426229 0.00120635 0.00908829 0.001797 0.0213788 0.001192 0.00842967 0.00176933 0.0281464 0.00278533 0.0159054 0.00375916 0.0292532 0.00304892 0.0161328 0.00312674 0.0490305
112 3 O -0.289436 15.3041 2.79288 -1.2 1 0.00295799 0.00355624 0.00147374 0.00424985 0.00255216 0.00865449 0.00199318 0.021914 0.00189966 0.00874279 0.00204395 0.0277229 0.00292957 0.0166154 0.00365084 0.0298039 0.00462695 0.0177586 0.00472516 0.0508667
113 1 Mg 6.59566 18.996 0 1.2 1 0.00143569 0.00313942 0.0015286 0.00394917 0.00109099 0.00857108 0.00111658 0.0219399 0.00107627 0.00786446 0.00140263 0.028399 0.00196772 0.0164177 0.00224061 0.028707 0.00285232 0.0159482 0.00272806 0.0489736
114 1 Mg 3.85574 23.7037 1.4948 1.2 1 0.00175984 0.00261146 0.00134937 0.00405273 0.00176242 0.0073326 0.00117905 0.0232598 0.00181249 0.00754264 0.00223027 0.0275373 0.00237841 0.0176177 0.00359496 0.0284383 0.00344617 0.0173098 0.00350399 0.0510469
115 2 Si 5.66125 21.0195 1.4948 2.4 1 0.00202498 0.0026814 0.00121719 0.00393328 0.00209331 0.0081113 0.00152027 0.0219393 0.00135539 0.00754792 0.00152294 0.0282841 0.0024475 0.0173951 0.00264863 0.0280735 0.00362845 0.0158859 0.00395124 0.0504734
116 3 O 5.72074 22.6328 1.4948 -1.2 1 0.00188096 0.00271843 0.00166982 0.00396036 0.00192205 0.0080454 0.0015759 0.0224757 0.00178155 0.0073031 0.00139532 0.0282518 0.00212637 0.0173583 0.00284235 0.0283617 0.00336166 0.0164037 0.00365227 0.0504526
117 3 O 2.03867 20.0455 1.4948 -1.2 1 0.00175212 0.00317301 0.00144289 0.00403385 0.001972 0.00769052 0.00209409 0.0223183 0.00216576 0.00752886 0.00144329 0.0287525 0.00219144 0.0173088 0.00247023 0.0288525 0.00366358 0.0161236 0.0035045 0.0505852
118 3 O 4.96004 20.3134 0.196716 -1.2 1 0.00188328 0.00245317 0.001409 0.0038718 0.00139657 0.008261 0.00115214 0.0217647 0.00101271 0.00754338 0.00150592 0.027963 0.00257682 0.0166944 0.00375113 0.0286627 0.0031079 0.0153296 0.00288008 0.0497214
119 1 Mg 6.55057 18.996 2.9896 1.2 1 0.0018588 0.00361495 0.00153168 0.00408333 0.00272994 0.00818309 0.00281579 0.0214335 0.00252348 0.00803332 0.00170277 0.0292259 0.00286545 0.0170833 0.00300162 0.0290243 0.00403764 0.0170582 0.00479835 0.0510139