ITEM: TIMESTEP
10600
ITEM: NUMBER OF ATOMS
10500
ITEM: BOX BOUNDS xy xz yz pp pp pp
0	15.2974	5.099
0	118.725	0
0	89.688	0
ITEM: ATOMS id type element xu yu zu q Q_1 Q_2 Q_3 Q_4 Q_5 Q_6 Q_7 Q_8 Q_9 Q_10 Q_11 Q_12 Q_13 Q_14 Q_15 Q_16 Q_17 Q_18 Q_19 Q_20 Q_21
1 1 Mg 6.2404 -6.37941e-06 0 1.2 1 0.00104966 0.00436098 0.00141859 0.00483928 0.00135876 0.00559484 0.00200298 0.0160199 0.00215994 0.00559694 0.00227513 0.0215771 0.0025169 0.0137239 0.00343935 0.0205994 0.0039959 0.0141774 0.00396376 0.0404616
2 1 Mg 3.46349 4.70768 1.4948 1.2 1 0.00104864 0.00357452 0.00167649 0.00432264 0.00193075 0.00624743 0.00350547 0.018636 0.00266878 0.00683538 0.00299392 0.0256728 0.00317958 0.0141883 0.00441768 0.0252591 0.00529094 0.0170169 0.00560657 0.0439768
3 2 Si 5.2885 2.02354 1.4948 2.4 1 0.000415526 0.00355161 0.00209715 0.0045227 0.00191353 0.00579739 0.00245197 0.0168384 0.00243784 0.00600026 0.00207316 0.0229308 0.00276812 0.0137723 0.00357887 0.0214399 0.00389526 0.0152298 0.00416581 0.0411572
4 3 O 5.33628 3.63678 1.4948 -1.2 1 0.000623602 0.00300509 0.00174468 0.00463926 0.00216582 0.0063819 0.00290336 0.0176972 0.00219152 0.00660211 0.00197383 0.0250718 0.00249034 0.0138655 0.00428721 0.0240366 0.00511217 0.0163476 0.00570888 0.0428897
5 3 O 1.67294 1.04952 1.4948 -1.2 1 0.00148901 0.00351293 0.00190336 0.00414475 0.0013272 0.00584624 0.00228766 0.0167684 0.00232688 0.00596459 0.00210571 0.0224904 0.00253545 0.0131649 0.00328625 0.021986 0.00466059 0.0156547 0.00479465 0.0402566
6 3 O 4.59532 1.31737 0.196716 -1.2 1 0.000906201 0.003351 0.00205954 0.00438372 0.00193274 0.0056743 0.00239047 0.0170765 0.00265538 0.00607244 0.00198507 0.0221417 0.00324119 0.0131466 0.00419718 0.0216172 0.00419 0.0147755 0.00445775 0.0409814
7 1 Mg 6.18956 -6.37941e-06 2.9896 1.2 1 0.000665983 0.00477682 0.00143979 0.0042914 0.00128113 0.00571482 0.00242579 0.0160138 0.00257296 0.00539067 0.00165338 0.0222616 0.0026578 0.0137024 0.00366103 0.0206797 0.00450553 0.0147588 0.00491757 0.0390122
8 3 O 4.55118 1.31737 2.79288 -1.2 1 0.000888638 0.00445339 0.00191431 0.0041157 0.0019127 0.00579839 0.00255435 0.0168017 0.00238421 0.0066976 0.00219807 0.0216101 0.00327803 0.0126679 0.00343681 0.0215973 0.00488102 0.0154765 0.00515379 0.0400112
9 1 Mg -1.20682 0.0413099 4.4844 1.2 1 0.000509926 0.00308247 0.00167005 0.00493333 0.00133915 0.00555718 0.00194027 0.0158987 0.00198703 0.00585455 0.00218233 0.0225192 0.00297092 0.0120876 0.0036125 0.0209476 0.00538555 0.0157738 0.0052427 0.0387844
10 2 Si -3.0337 2.72544 4.4844 2.4 1 0.000567802 0.0034379 0.00176591 0.00491419 0.00213663 0.00610246 0.00324157 0.0163577 0.00315554 0.00606511 0.00233671 0.0240278 0.003287 0.0133802 0.00397716 0.0226141 0.00546895 0.0177983 0.00644229 0.0396765
11 3 O -3.08099 1.11221 4.4844 -1.2 1 0.000766702 0.00378168 0.001843 0.00441452 0.00130734 0.00541804 0.00224969 0.0158353 0.00278384 0.00551679 0.00222904 0.0222737 0.00328908 0.01171 0.00353427 0.021423 0.00517223 0.0164076 0.00558376 0.0382631
12 3 O 0.582463 3.69946 4.4844 -1.2 1 0.00170494 0.0046707 0.00207878 0.00445991 0.00238257 0.00694336 0.00349919 0.0170239 0.00328058 0.00642862 0.00333288 0.0248867 0.00424873 0.0132446 0.0044099 0.0245148 0.00713559 0.0188517 0.00846599 0.0417608
13 3 O -2.29524 3.43162 3.18632 -1.2 1 0.000738896 0.00292629 0.00251316 0.00450919 0.00216935 0.00604093 0.00296035 0.0176877 0.00305353 0.00662211 0.00265957 0.024528 0.00330165 0.01329 0.00472515 0.0243045 0.00596563 0.017897 0.0066545 0.0420182
14 3 O -2.34216 3.43162 5.78248 -1.2 1 0.00141324 0.00380003 0.00117428 0.0049053 0.00247278 0.00624012 0.00307628 0.0169042 0.00280364 0.00706636 0.00308743 0.0233306 0.00436005 0.012721 0.00438379 0.0234976 0.00647432 0.0197193 0.00757851 0.040448
15 1 Mg 1.12778 2.37449 2.9896 1.2 1 0.00114449 0.00382008 0.00225369 0.00436855 0.00210283 0.00597745 0.00295909 0.0164676 0.00257138 0.00599322 0.00249427 0.023439 0.00317772 0.0132739 0.00349768 0.0221991 0.00490865 0.0165752 0.00558624 0.0406633
16 1 Mg 3.92855 2.33318 4.4844 1.2 1 0.00133411 0.00452495 0.00140615 0.00418561 0.00170622 0.00581811 0.00342418 0.0165441 0.00305853 0.00587118 0.00300367 0.0228531 0.00367704 0.0136896 0.00512835 0.0220937 0.00656389 0.0172521 0.00696252 0.040103
17 2 Si 2.09341 4.39804 4.4844 2.4 1 0.00154235 0.00443792 0.00198721 0.00400523 0.00270946 0.00620015 0.00373909 0.0179079 0.00338696 0.00660542 0.0033268 0.0248016 0.00439668 0.0142619 0.00426001 0.0249737 0.0068224 0.0186771 0.00835856 0.0433336
18 3 O 2.09991 6.01128 4.4844 -1.2 1 0.00220267 0.0044734 0.00178791 0.00392643 0.00282046 0.00678726 0.00328994 0.0189406 0.00280017 0.00709586 0.00327532 0.0266623 0.00401514 0.0146024 0.00486028 0.0275177 0.00678311 0.0194412 0.00810633 0.0454127
19 3 O -4.52137 3.42402 4.4844 -1.2 1 0.0011196 0.00396655 0.00210266 0.00438367 0.00218301 0.00712887 0.00342652 0.0167036 0.00336676 0.00618376 0.00302733 0.0236999 0.00390788 0.0131552 0.00426789 0.0229328 0.00627675 0.0178134 0.00744866 0.041018
20 3 O 2.80834 3.69187 3.18632 -1.2 1 0.00130919 0.00398437 0.00170848 0.00366956 0.00190149 0.00598425 0.00301462 0.0171906 0.00288443 0.00629053 0.00289203 0.0242407 0.00359477 0.0134075 0.00482262 0.0240902 0.00573836 0.0171057 0.00636977 0.0426026
21 1 Mg 1.17857 2.37449 0 1.2 1 0.00191449 0.00385518 0.00198651 0.00399242 0.00150179 0.00553214 0.00233008 0.0171154 0.00232757 0.00647063 0.00287094 0.0229463 0.0028407 0.0135004 0.0035523 0.0216682 0.00433777 0.014933 0.00473946 0.040859
22 3 O 2.76143 3.69187 5.78248 -1.2 1 0.00181956 0.00463515 0.0014972 0.004176 0.00193219 0.0057529 0.0029332 0.0172335 0.00319372 0.00694161 0.0031997 0.0233741 0.00468933 0.0133795 0.00541439 0.0234166 0.00661765 0.0188848 0.00762746 0.0411633
23 1 Mg -1.67381 2.41581 1.4948 1.2 1 0.00121866 0.00292796 0.00237492 0.00482076 0.00131988 0.00617016 0.00245234 0.0164133 0.00258274 0.00619017 0.00191301 0.0239809 0.00251178 0.0144179 0.00274032 0.0222727 0.00424743 0.0161641 0.00487367 0.0415611
24 2 Si 0.16286 0.350945 1.4948 2.4 1 0.00184626 0.00294977 0.00262725 0.00462949 0.00115864 0.00642212 0.0026812 0.0162963 0.00206058 0.00518607 0.00188448 0.0225574 0.00236362 0.0137691 0.0030198 0.0208225 0.00464745 0.014824 0.00443027 0.0400904
25 3 O 0.15972 -1.26229 1.4948 -1.2 1 0.00182293 0.00293458 0.0028386 0.00453109 0.00174312 0.00598138 0.00250083 0.0163175 0.00225333 0.00541379 0.00245403 0.0224068 0.00254203 0.0141319 0.00280463 0.0218032 0.00424071 0.014623 0.00396452 0.0406187
26 3 O 6.77654 1.32496 1.4948 -1.2 1 0.00100027 0.00388382 0.00158846 0.00455867 0.00132188 0.00603809 0.00233014 0.01663 0.00243101 0.00540691 0.00180257 0.0235751 0.00275257 0.0138734 0.00355185 0.0218788 0.00467295 0.0151811 0.00436583 0.0408106
27 3 O -0.508028 1.05712 0.196716 -1.2 1 0.00142197 0.00303823 0.00307049 0.00403885 0.00128922 0.00566696 0.00250196 0.0169633 0.0018128 0.00658105 0.00257162 0.0218527 0.00264356 0.0131135 0.00310243 0.0212822 0.00424099 0.0151438 0.0044062 0.0400647
28 3 O -0.552171 1.05712 2.79288 -1.2 1 0.000581048 0.00271111 0.00279231 0.0046231 0.00145851 0.00606036 0.00236812 0.0160849 0.00232624 0.00613847 0.00176941 0.0225154 0.0029168 0.0120344 0.00343486 0.0216401 0.00514833 0.0159444 0.00488319 0.0394811
29 1 Mg 6.31713 4.74899 0 1.2 1 0.000777743 0.00291098 0.0020328 0.00458402 0.00238216 0.00622494 0.00317665 0.0179413 0.00269451 0.00696832 0.00230762 0.0251384 0.00287187 0.0140173 0.00430305 0.0247173 0.00479246 0.0162582 0.00595634 0.0428886
30 1 Mg 3.54847 9.45668 1.4948 1.2 1 0.00113381 0.00342262 0.00191042 0.00453221 0.00205501 0.00764753 0.00311305 0.0213632 0.00172385 0.00832757 0.00241479 0.0284384 0.00328551 0.0157668 0.00394103 0.0292223 0.00417196 0.0181613 0.0039192 0.048957
31 2 Si 5.36879 6.77254 1.4948 2.4 1 0.000445389 0.00317514 0.00210237 0.00497315 0.00266322 0.00705095 0.0037319 0.0195662 0.00269507 0.00769695 0.00258811 0.0275571 0.00324946 0.0155105 0.00425541 0.0269454 0.00468557 0.0172551 0.00519441 0.0467495
32 3 O 5.41937 8.38578 1.4948 -1.2 1 0.000829956 0.00324459 0.00178491 0.00488952 0.0022976 0.00782679 0.0031697 0.0209212 0.00219617 0.00825291 0.0025518 0.0288885 0.0023191 0.0157371 0.00315064 0.0291574 0.00461217 0.0174842 0.00484041 0.0482319
33 3 O 1.75158 5.79852 1.4948 -1.2 1 0.00102637 0.00360797 0.00182315 0.00400909 0.00234164 0.00615826 0.00328843 0.0194153 0.00263039 0.00719037 0.00270524 0.0278182 0.00302596 0.0155966 0.00355638 0.0268848 0.00539104 0.0175358 0.00552796 0.0457727
34 3 O 4.67421 6.06637 0.196716 -1.2 1 0.000499075 0.00310932 0.00168569 0.00475592 0.00207423 0.00702282 0.0029055 0.0196889 0.00241681 0.00809685 0.00232228 0.0261934 0.00348568 0.0144488 0.00431623 0.0266244 0.00479647 0.0166076 0.00555254 0.0452628
35 1 Mg 6.26654 4.74899 2.9896 1.2 1 0.00127346 0.00313668 0.00208521 0.00479648 0.00263764 0.00660403 0.00375029 0.0178176 0.00362645 0.0069827 0.00222392 0.0258471 0.0037511 0.0146885 0.00505351 0.025024 0.00587509 0.0176355 0.00690324 0.0436086
36 3 O 4.63043 6.06637 2.79288 -1.2 1 0.00191314 0.00359182 0.0018579 0.00464841 0.00234506 0.00691835 0.00341008 0.0192255 0.00324494 0.00778061 0.0024257 0.0260217 0.00384972 0.0147915 0.00455603 0.0274541 0.00580392 0.0182719 0.00681922 0.045573
37 1 Mg -1.12976 4.79031 4.4844 1.2 1 0.00165299 0.00412349 0.00171203 0.00462031 0.00228449 0.00641272 0.00337761 0.0178286 0.00350316 0.00693398 0.0032218 0.026004 0.0042381 0.0146945 0.0048998 0.0258981 0.00749297 0.0192222 0.00827741 0.0441107
38 2 Si -2.9517 7.47444 4.4844 2.4 1 0.00229823 0.00414432 0.00132162 0.00495991 0.00295319 0.00687902 0.00375684 0.0201945 0.00330372 0.00777066 0.00306252 0.0274493 0.00464056 0.0161615 0.00542131 0.02826 0.00700325 0.0194998 0.00806806 0.0478368
39 3 O -3.00198 5.86121 4.4844 -1.2 1 0.00176268 0.00428254 0.00119943 0.00470466 0.0030143 0.0067189 0.00420415 0.0186079 0.00363598 0.00754252 0.00275068 0.0259021 0.00452312 0.0145079 0.00496875 0.0271809 0.00701181 0.0197913 0.00841561 0.0454702
40 3 O 0.666315 8.44846 4.4844 -1.2 1 0.0027832 0.00485825 0.00151892 0.00469418 0.00297911 0.00773382 0.00314851 0.0212089 0.00312634 0.00776964 0.00336133 0.0282607 0.00461608 0.0160517 0.00444228 0.029324 0.00637579 0.0200062 0.00802128 0.0486312
41 3 O -2.21213 8.18062 3.18632 -1.2 1 0.00194941 0.0040573 0.00143663 0.00435668 0.00266302 0.00654955 0.00274828 0.0205953 0.00271468 0.00801893 0.002964 0.0276213 0.00431763 0.0160333 0.00513902 0.0290874 0.00584824 0.0189579 0.0066727 0.0486385
42 3 O -2.25864 8.18062 5.78248 -1.2 1 0.00296722 0.00459427 0.00134798 0.00466977 0.00297144 0.00636824 0.00294335 0.020429 0.00263731 0.00844576 0.00362141 0.0268648 0.00465439 0.0167193 0.00542451 0.0291643 0.00736592 0.0206761 0.00824465 0.0489483
43 1 Mg 1.20893 7.12349 2.9896 1.2 1 0.00157402 0.00404154 0.00185765 0.00422006 0.00281098 0.00690537 0.00377772 0.019646 0.00275135 0.00803995 0.00268938 0.0279403 0.00358505 0.0158634 0.00390461 0.0276064 0.00558788 0.0183574 0.00642969 0.0469606
44 1 Mg 4.00982 7.08218 4.4844 1.2 1 0.00237679 0.00411387 0.00170726 0.00451175 0.00251237 0.00667762 0.00377675 0.0198482 0.00344474 0.00753476 0.0032615 0.0273604 0.00435596 0.0166645 0.00582209 0.0281781 0.00712138 0.0194723 0.00817485 0.0470275
45 2 Si 2.17861 9.14704 4.4844 2.4 1 0.00255646 0.00432171 0.00172734 0.00473808 0.00277755 0.00763938 0.00371833 0.0212045 0.00274402 0.00816461 0.00311408 0.0280568 0.00477425 0.0166538 0.00461728 0.0296919 0.0057636 0.019769 0.00705136 0.050466
46 3 O 2.18828 10.7603 4.4844 -1.2 1 0.00305289 0.00448529 0.00190351 0.004477 0.00266222 0.0072669 0.00296947 0.0208626 0.00234751 0.00820611 0.00238088 0.0288037 0.00438037 0.015847 0.00450238 0.0306796 0.00584259 0.0198603 0.00664956 0.0510194
47 3 O -4.43805 8.17302 4.4844 -1.2 1 0.00190305 0.0044883 0.00187828 0.00488526 0.00266748 0.00796871 0.0032134 0.020573 0.00334401 0.008122 0.00328195 0.0284639 0.00501713 0.0161636 0.00517202 0.0295108 0.00681429 0.0196976 0.00867637 0.0485448
48 3 O 2.89193 8.44087 3.18632 -1.2 1 0.00224578 0.00390293 0.00192452 0.00420352 0.00243991 0.00713376 0.0033701 0.0206236 0.00274343 0.00850722 0.00286126 0.0275343 0.00398485 0.0159645 0.00465626 0.0290908 0.00586468 0.0188453 0.00588172 0.0486913
49 1 Mg 1.25915 7.12349 0 1.2 1 0.000863767 0.00309332 0.0014126 0.00418527 0.00193174 0.0073502 0.00284206 0.0201119 0.00276242 0.0081393 0.00259079 0.0275321 0.00336024 0.0144444 0.00357229 0.0276973 0.00461401 0.0173498 0.00445436 0.0462679
50 3 O 2.84547 8.44087 5.78248 -1.2 1 0.00292248 0.00476173 0.0016567 0.00460007 0.00244639 0.00683253 0.00323144 0.0208256 0.00308809 0.00857368 0.003569 0.0269481 0.00555169 0.0166067 0.005445 0.0293665 0.00621004 0.0212778 0.00769795 0.0494123
51 1 Mg -1.59284 7.16481 1.4948 1.2 1 0.000939939 0.00337468 0.00145284 0.00456775 0.00194542 0.00650633 0.00269285 0.0199333 0.00276993 0.00782149 0.00174507 0.0276134 0.00351159 0.0155888 0.00385637 0.0272714 0.00458182 0.0176367 0.00555426 0.0467386
52 2 Si 0.240329 5.09994 1.4948 2.4 1 0.000928412 0.00376291 0.00202625 0.00407642 0.00191325 0.00686486 0.00306893 0.0189027 0.00292765 0.00725875 0.00241524 0.0260157 0.00298651 0.0147574 0.00418869 0.024883 0.00509724 0.0169509 0.00528522 0.0447397
53 3 O 0.234538 3.48671 1.4948 -1.2 1 0.00138405 0.00381828 0.00243549 0.00419507 0.00189656 0.00650026 0.00254582 0.017782 0.00322892 0.00690391 0.00244089 0.0243911 0.00322485 0.0139332 0.00392053 0.0241306 0.00550934 0.0160872 0.00540703 0.0423911
54 3 O 6.85564 6.07396 1.4948 -1.2 1 0.000800883 0.00285972 0.00224371 0.00478612 0.00244512 0.00627351 0.0030624 0.0198271 0.00295989 0.00740588 0.00217309 0.0276057 0.00337331 0.0148557 0.00484819 0.0270247 0.00559621 0.0177004 0.00626365 0.0455841
55 3 O -0.429565 5.80612 0.196716 -1.2 1 0.000738637 0.00341641 0.00217388 0.00410658 0.00195885 0.00721928 0.00257299 0.0195002 0.00269415 0.00833341 0.00256412 0.0256173 0.00279208 0.0142961 0.00393431 0.0259117 0.00505666 0.0167247 0.00579411 0.0453063
56 3 O -0.473377 5.80612 2.79288 -1.2 1 0.001501 0.00353529 0.00170563 0.00435339 0.00233591 0.006966 0.00316271 0.0190606 0.00301614 0.00779646 0.00298993 0.0258856 0.00382798 0.0146375 0.00460904 0.0265258 0.00636592 0.0186795 0.00687743 0.0457001
57 1 Mg 6.40169 9.49799 0 1.2 1 0.000286686 0.00386838 0.00153194 0.00462059 0.00154726 0.00834679 0.00195801 0.0210563 0.00162804 0.00884071 0.00180438 0.0286818 0.00246083 0.0147879 0.00275863 0.0298297 0.00367927 0.0177958 0.00400312 0.0477301
58 1 Mg 3.64209 14.2057 1.4948 1.2 1 0.001851 0.00321951 0.00164849 0.00446847 0.00170691 0.00876362 0.00165722 0.0217592 0.00173181 0.008758 0.00229654 0.0283226 0.00262692 0.016228 0.00316391 0.0295635 0.00362007 0.016882 0.00347054 0.0496735
59 2 Si 5.45748 11.5215 1.4948 2.4 1 0.00175722 0.00335649 0.00178541 0.00459161 0.00186365 0.00823908 0.00216325 0.0212209 0.00161849 0.00831055 0.0017401 0.0287334 0.00267945 0.0163247 0.00355707 0.0292696 0.00400741 0.0169956 0.00370704 0.0494555
60 3 O 5.51101 13.1348 1.4948 -1.2 1 0.00192334 0.00332836 0.00187517 0.00448641 0.00170496 0.0090331 0.00190977 0.0212251 0.00189206 0.00870817 0.00160291 0.0293479 0.00221035 0.0161604 0.00294444 0.0299721 0.00370605 0.0166138 0.00342798 0.0493727
61 3 O 1.83851 10.5475 1.4948 -1.2 1 0.000859788 0.0036727 0.00175606 0.00475075 0.00187734 0.00772202 0.00242392 0.021686 0.00171344 0.00839824 0.00221154 0.0293188 0.00275843 0.0159047 0.00344077 0.0299308 0.0040514 0.0177868 0.00353658 0.0494246
62 3 O 4.7611 10.8154 0.196716 -1.2 1 0.000786643 0.00322378 0.00184389 0.00463757 0.00166791 0.00855585 0.00225428 0.0213333 0.00146287 0.00874223 0.00196725 0.028117 0.00292632 0.0157277 0.0039755 0.0295226 0.00372239 0.0171142 0.00355185 0.0487433
63 1 Mg 6.35203 9.49799 2.9896 1.2 1 0.00163052 0.00387793 0.00173858 0.00464601 0.00269024 0.00772839 0.00343703 0.0203679 0.00319214 0.00842654 0.00209325 0.029111 0.00383074 0.0162955 0.00353606 0.029359 0.00435172 0.0184484 0.00546363 0.0489103
64 3 O 4.71833 10.8154 2.79288 -1.2 1 0.00237636 0.00360166 0.00171098 0.00440099 0.00231633 0.00825468 0.00226895 0.0214202 0.00220675 0.00900401 0.00222108 0.0283429 0.0036571 0.0160769 0.00420572 0.0300534 0.00510932 0.0183144 0.00535715 0.0501708
65 1 Mg -1.0438 9.53931 4.4844 1.2 1 0.00292188 0.00474578 0.00149224 0.00441597 0.00302249 0.00699852 0.00263875 0.0209815 0.00269337 0.00828287 0.0029097 0.0283936 0.00406438 0.0166615 0.00484125 0.0299089 0.00645517 0.0200662 0.00715946 0.0501793
66 2 Si -2.8604 12.2234 4.4844 2.4 1 0.00307911 0.00428195 0.00178695 0.00440924 0.00283244 0.0078298 0.00300619 0.02185 0.00274649 0.00852733 0.00242315 0.0284588 0.00455974 0.0167638 0.00446726 0.0300103 0.00566419 0.0193426 0.00649219 0.0517845
67 3 O -2.91391 10.6102 4.4844 -1.2 1 0.00317517 0.00444473 0.00180857 0.00438807 0.00304767 0.00722588 0.00324424 0.0205993 0.00271699 0.00790604 0.00219172 0.0287675 0.00455904 0.0161877 0.00435843 0.030689 0.00582789 0.0195456 0.00666621 0.0507621
68 3 O 0.7596 13.1975 4.4844 -1.2 1 0.00321118 0.00419436 0.00171386 0.00486678 0.00284181 0.00870815 0.00257505 0.0221601 0.00280906 0.00842637 0.00304268 0.0290017 0.00433088 0.0166033 0.00442366 0.0302132 0.0058781 0.0195295 0.00665609 0.0517578
69 3 O -2.12001 12.9296 3.18632 -1.2 1 0.00322971 0.00398515 0.00169867 0.00417091 0.00252317 0.00766549 0.00221652 0.0218473 0.00244147 0.00846201 0.00233222 0.0279381 0.00381123 0.0163595 0.00456448 0.0304719 0.00509302 0.0185177 0.0053467 0.0510524
70 3 O -2.16532 12.9296 5.78248 -1.2 1 0.00384777 0.00446886 0.00144078 0.00433043 0.00266891 0.00684223 0.00230703 0.0220386 0.00248936 0.00848242 0.00302622 0.0276115 0.00420687 0.0171355 0.00495737 0.0311658 0.00619585 0.0210791 0.00681853 0.0533907
71 1 Mg 1.29891 11.8725 2.9896 1.2 1 0.00220122 0.0036497 0.00176887 0.00477701 0.00243556 0.00810228 0.00276519 0.0212072 0.00252868 0.00861117 0.00201384 0.0290145 0.00348253 0.0163636 0.00357732 0.0299356 0.00453553 0.0180834 0.0049441 0.0500435
72 1 Mg 4.10033 11.8312 4.4844 1.2 1 0.00308387 0.0040581 0.00204473 0.00424084 0.00257064 0.00745053 0.00267693 0.0215215 0.00252874 0.00832458 0.00277969 0.0288497 0.00378144 0.0172577 0.0052184 0.0304748 0.00635853 0.019407 0.00626254 0.0515141
73 2 Si 2.27333 13.896 4.4844 2.4 1 0.00301095 0.00359879 0.0016333 0.00493058 0.00305455 0.0080194 0.00319752 0.0220583 0.00250829 0.0083567 0.0027435 0.0282659 0.00397848 0.0169714 0.00447832 0.0301703 0.00538121 0.0190423 0.00613958 0.0527274
74 3 O 2.28634 15.5093 4.4844 -1.2 1 0.00356772 0.00406921 0.00169987 0.00444168 0.00302585 0.00736455 0.00286934 0.0211351 0.00268815 0.00782246 0.00226333 0.0287664 0.00343315 0.0161681 0.00416359 0.0307769 0.00572923 0.0187887 0.00631822 0.0522751
75 3 O -4.34533 12.922 4.4844 -1.2 1 0.00295934 0.00434923 0.0018226 0.00451259 0.00277938 0.00834905 0.00287277 0.0219019 0.00279982 0.00849003 0.0025272 0.0287917 0.00421331 0.016523 0.00460102 0.030647 0.00623456 0.0199178 0.0071472 0.0517377
76 3 O 2.98455 13.1899 3.18632 -1.2 1 0.00273079 0.00349193 0.00166458 0.00433851 0.00256151 0.00795636 0.00222674 0.0219092 0.00214844 0.0086486 0.00241019 0.0281532 0.00354778 0.0161988 0.00436764 0.030103 0.00537551 0.0184223 0.00544078 0.050948
77 1 Mg 1.34779 11.8725 0 1.2 1 0.000906995 0.00307679 0.0012796 0.00466258 0.0015602 0.00889055 0.00158437 0.0212462 0.00123008 0.00909691 0.00201777 0.0289046 0.00288721 0.0150216 0.00315214 0.0301583 0.00312625 0.0171355 0.00314666 0.0484677
78 3 O 2.93934 13.1899 5.78248 -1.2 1 0.00331345 0.00457539 0.00165642 0.00461426 0.00277183 0.00714094 0.00262745 0.0221218 0.00266146 0.00847141 0.00326458 0.0277122 0.00464987 0.0170317 0.00514543 0.0311349 0.00598968 0.0213018 0.00650921 0.0534388
79 1 Mg -1.50344 11.9138 1.4948 1.2 1 0.00126369 0.00366631 0.00140943 0.00452158 0.00153324 0.00835036 0.00189198 0.0216247 0.00241707 0.00851561 0.00159057 0.0285946 0.00365598 0.016158 0.00346746 0.0298407 0.00348153 0.0174409 0.00370347 0.0492751
80 2 Si 0.326006 9.84894 1.4948 2.4 1 0.000249227 0.00356023 0.00125973 0.00485533 0.0019781 0.00826192 0.00213842 0.0211216 0.00205788 0.00839114 0.00167064 0.0285049 0.00307161 0.0158297 0.00380994 0.0288997 0.00375246 0.0176576 0.00349356 0.0488082
81 3 O 0.317364 8.23571 1.4948 -1.2 1 0.00100047 0.00359807 0.00123142 0.00444732 0.00195321 0.00776267 0.00219902 0.02026 0.00246608 0.0079654 0.00188363 0.0286106 0.00357802 0.015853 0.00402013 0.0287065 0.00443703 0.017629 0.0041624 0.0478229
82 3 O 6.94307 10.823 1.4948 -1.2 1 0.00120343 0.00387833 0.00165357 0.00445521 0.00192603 0.00774325 0.00261804 0.0218388 0.00236539 0.00839902 0.00149411 0.0293799 0.00304449 0.0159604 0.00350014 0.0300551 0.00370319 0.0179746 0.00403189 0.0492951
83 3 O -0.343122 10.5551 0.196716 -1.2 1 0.000570567 0.00321405 0.00110363 0.0046416 0.00173039 0.00864321 0.00193398 0.0213393 0.00165384 0.00888815 0.00213443 0.0280373 0.00332414 0.0153711 0.00414703 0.0294554 0.00355026 0.017282 0.00353326 0.0486574
84 3 O -0.385966 10.5551 2.79288 -1.2 1 0.00242032 0.00395835 0.00138456 0.0044509 0.00261571 0.00809917 0.00218884 0.0215213 0.00203891 0.00899301 0.00245919 0.0277278 0.00396936 0.016103 0.0042291 0.0300951 0.00505541 0.018768 0.00499929 0.0499761
85 1 Mg 6.49448 14.247 0 1.2 1 0.00116164 0.00348271 0.00171144 0.00463314 0.00122163 0.00920596 0.00133445 0.0212828 0.00124911 0.00858825 0.00139808 0.0287645 0.00161177 0.015514 0.00253958 0.0300471 0.00318318 0.0163931 0.00278956 0.0483103
86 1 Mg 3.74457 18.9547 1.4948 1.2 1 0.0020429 0.00331638 0.00113498 0.00400421 0.00169269 0.00851887 0.00136082 0.0222377 0.00182207 0.00801383 0.0022057 0.0275818 0.0024741 0.0165554 0.00345904 0.0288314 0.00377428 0.0163466 0.00355854 0.0501072
87 2 Si 5.55495 16.2705 1.4948 2.4 1 0.00219361 0.00303045 0.00135676 0.00447441 0.00180446 0.00885195 0.00142596 0.0215263 0.00150442 0.00798557 0.00122845 0.02856 0.00226238 0.0163364 0.00293608 0.0288574 0.00379796 0.0158793 0.00351897 0.0497504
88 3 O 5.6115 17.8838 1.4948 -1.2 1 0.00224429 0.00316241 0.00143849 0.00421573 0.00167593 0.00906404 0.00153608 0.0217682 0.00187129 0.00785393 0.00139778 0.028663 0.0019775 0.0165071 0.00262278 0.0289478 0.00347899 0.015725 0.003646 0.0497511
89 3 O 1.93416 15.2965 1.4948 -1.2 1 0.00196443 0.00314187 0.00143609 0.00451644 0.00177188 0.00830003 0.00203937 0.0220163 0.00182059 0.00815541 0.00145417 0.0290923 0.00203698 0.016327 0.00296666 0.0297808 0.00379168 0.0165415 0.00333237 0.0500241
90 3 O 4.85636 15.5644 0.196716 -1.2 1 0.00151396 0.00269313 0.00142972 0.00465054 0.00138801 0.00910917 0.001384 0.0213868 0.000789583 0.00821163 0.00169145 0.0280793 0.0025694 0.0159128 0.0034109 0.0294241 0.00321647 0.0158172 0.00300847 0.0491266
91 1 Mg 6.44662 14.247 2.9896 1.2 1 0.00212482 0.00372224 0.00157503 0.00437268 0.00253461 0.00845416 0.00282879 0.0208914 0.00277665 0.00865358 0.00177779 0.029293 0.00314332 0.0165134 0.00296843 0.0297788 0.00406601 0.0174633 0.00455679 0.0500918
92 3 O 4.81537 15.5644 2.79288 -1.2 1 0.00283922 0.00331961 0.00145044 0.00419332 0.00224023 0.00870892 0.00168615 0.0220752 0.00170345 0.00868424 0.00172595 0.0280347 0.00282541 0.0165633 0.00356696 0.0297602 0.00477668 0.0173758 0.00492753 0.0505848
93 1 Mg -0.948271 14.2883 4.4844 1.2 1 0.00369488 0.0038791 0.00141621 0.00429861 0.00271286 0.0077743 0.00267667 0.0215975 0.00272586 0.00832805 0.00284885 0.0285473 0.0034454 0.0170639 0.00490705 0.0305216 0.0058058 0.0190793 0.00639996 0.0520008
94 2 Si -2.75928 16.9724 4.4844 2.4 1 0.00360288 0.00363217 0.00155013 0.00419671 0.00279097 0.00782721 0.00267141 0.0221622 0.00274599 0.00779697 0.00264746 0.0280669 0.00343161 0.0170356 0.00459939 0.0298478 0.00517495 0.018466 0.00628337 0.053006
95 3 O -2.81617 15.3592 4.4844 -1.2 1 0.00384042 0.00401826 0.00172956 0.00409747 0.00289956 0.007463 0.00288001 0.0210652 0.00266874 0.00776372 0.00229559 0.0287311 0.00380543 0.0163003 0.00414934 0.0305411 0.00587157 0.0186099 0.00659002 0.0519393
96 3 O 0.862762 17.9465 4.4844 -1.2 1 0.00363804 0.00390375 0.00138145 0.00443741 0.00293672 0.00837865 0.00259217 0.0222768 0.00269959 0.00789326 0.00258254 0.0285563 0.00364965 0.0171189 0.00438172 0.0295916 0.00554386 0.0187207 0.0062821 0.05267
97 3 O -2.0185 17.6786 3.18632 -1.2 1 0.00323586 0.00337413 0.00162134 0.00377549 0.00263275 0.00753183 0.00222916 0.0223012 0.0023214 0.00790449 0.00201011 0.0275614 0.00339885 0.0165274 0.00419535 0.0300014 0.0048177 0.0175214 0.00533002 0.0516542
98 3 O -2.06164 17.6786 5.78248 -1.2 1 0.00419912 0.00389544 0.00124476 0.00407694 0.00267005 0.00681444 0.0023133 0.0222076 0.00248573 0.00793056 0.00284659 0.0276835 0.00334652 0.0174377 0.00488738 0.0310156 0.00565101 0.0205452 0.00624179 0.0546505
99 1 Mg 1.39817 16.6215 2.9896 1.2 1 0.00305697 0.00339839 0.00146635 0.00443575 0.00252236 0.00830639 0.00264211 0.0213821 0.00252778 0.00819956 0.0020921 0.0288651 0.00281106 0.0168134 0.00341748 0.0294985 0.0042721 0.016859 0.00459439 0.0505382
100 1 Mg 4.20062 16.5802 4.4844 1.2 1 0.00334726 0.00339285 0.00155391 0.00412121 0.00264067 0.00758394 0.00239574 0.0218501 0.00298349 0.00791382 0.00286096 0.0283024 0.00336074 0.017562 0.005472 0.0300987 0.00625798 0.0187233 0.00623784 0.0524811
101 2 Si 2.37796 18.645 4.4844 2.4 1 0.00318351 0.00334343 0.00123559 0.0041212 0.00279248 0.00789409 0.00280759 0.0223516 0.00265879 0.00798799 0.00253441 0.0279166 0.00357339 0.0173904 0.0044547 0.0296391 0.00531212 0.0184542 0.00607251 0.0533578
102 3 O 2.39434 20.2583 4.4844 -1.2 1 0.0034314 0.0037717 0.00119963 0.00381221 0.00281949 0.00690137 0.00252827 0.0214151 0.00260038 0.00744059 0.00184435 0.0285042 0.00325909 0.0169559 0.00402558 0.0301806 0.00579341 0.0183491 0.00675894 0.0528469
103 3 O -4.24274 17.671 4.4844 -1.2 1 0.00316398 0.00391125 0.00164343 0.00426081 0.00272878 0.00848394 0.00268487 0.0222951 0.00299841 0.00796736 0.00270664 0.0286137 0.00352376 0.0168568 0.00505587 0.0298766 0.00585728 0.0187568 0.00654515 0.0525133
104 3 O 3.08659 17.9389 3.18632 -1.2 1 0.00323228 0.00324008 0.00133753 0.00383582 0.00253147 0.00781983 0.00192066 0.0221429 0.00233643 0.00805421 0.00228945 0.0275416 0.00315174 0.0165302 0.00430842 0.0297574 0.0053933 0.0176435 0.00556719 0.0516073
105 1 Mg 1.44478 16.6215 0 1.2 1 0.00192526 0.00318683 0.00113178 0.00453736 0.00126681 0.00902451 0.00105477 0.0214463 0.00121481 0.00822372 0.0014212 0.0285616 0.00231552 0.01579 0.00233747 0.0293123 0.00283822 0.0159993 0.00298438 0.0487725
106 3 O 3.0436 17.9389 5.78248 -1.2 1 0.00341906 0.00395945 0.00120677 0.00429921 0.00261923 0.00690267 0.00227455 0.022519 0.0024146 0.00810834 0.00284295 0.0277309 0.00375364 0.0173057 0.00499417 0.0309978 0.00586228 0.0207672 0.00649839 0.0545719
107 1 Mg -1.40524 16.6628 1.4948 1.2 1 0.00178271 0.00333349 0.00137826 0.00444643 0.00165959 0.00866592 0.00183204 0.0221726 0.0019525 0.0082485 0.00170872 0.0282228 0.00312274 0.0166852 0.00285101 0.0294982 0.00302532 0.0165457 0.00326874 0.0497607
108 2 Si 0.420358 14.5979 1.4948 2.4 1 0.00172975 0.00312311 0.0014519 0.00481535 0.00195878 0.00898521 0.00176322 0.0215388 0.00167191 0.00829284 0.00139217 0.0284544 0.0029027 0.0165371 0.00353134 0.028821 0.00353862 0.0164753 0.00341928 0.0495433
109 3 O 0.408732 12.9847 1.4948 -1.2 1 0.00136543 0.00316579 0.001359 0.00468917 0.00189311 0.00901509 0.00143397 0.021257 0.0022008 0.00846733 0.00153505 0.0290448 0.00319462 0.0161044 0.00323252 0.0299119 0.00325211 0.0168403 0.00365295 0.0493272
110 3 O 7.03923 15.572 1.4948 -1.2 1 0.00183542 0.00338879 0.00148416 0.00436231 0.00191246 0.00814784 0.00218246 0.0217771 0.00236534 0.00815388 0.00153523 0.0291617 0.00266753 0.0162887 0.0029602 0.0297881 0.00345147 0.0167436 0.00375506 0.0498393
111 3 O -0.248332 15.3041 0.196716 -1.2 1 0.00166175 0.0030179 0.00138428 0.00462608 0.00128013 0.00908582 0.00175798 0.0213633 0.00128691 0.00831386 0.00172651 0.0279481 0.00289213 0.0158125 0.00375746 0.0292613 0.00306953 0.0160339 0.00310918 0.0489174
112 3 O -0.289436 15.3041 2.79288 -1.2 1 0.00309626 0.00336738 0.0013968 0.0043153 0.00254895 0.00863507 0.00194857 0.0219551 0.00187698 0.00870693 0.00201061 0.0275374 0.00301508 0.0166064 0.00352395 0.0297988 0.0044714 0.0175985 0.00464999 0.0507254
113 1 Mg 6.59566 18.996 0 1.2 1 0.00114832 0.00331614 0.00146512 0.00432305 0.00100619 0.00867804 0.00111333 0.0218771 0.00113849 0.00778001 0.00123951 0.02813 0.00202328 0.0162543 0.00212445 0.0286836 0.0027868 0.0158716 0.00283363 0.0489196
114 1 Mg 3.85574 23.7037 1.4948 1.2 1 0.0016951 0.00254568 0.00114729 0.00410972 0.00158313 0.00756299 0.00124578 0.0230612 0.00163999 0.00745521 0.00220564 0.0271051 0.00232724 0.0175874 0.00379763 0.0284594 0.0033713 0.0170058 0.00372339 0.051108
115 2 Si 5.66125 21.0195 1.4948 2.4 1 0.00204275 0.00274708 0.000943175 0.00415012 0.00176647 0.00824833 0.00147968 0.0219087 0.00128868 0.00747332 0.00143612 0.0278401 0.00241162 0.0172785 0.00267909 0.0280492 0.00371646 0.0157763 0.00411388 0.0506231
116 3 O 5.72074 22.6328 1.4948 -1.2 1 0.00214714 0.0026682 0.0014625 0.00405107 0.00164269 0.00831836 0.00157023 0.0222704 0.00178468 0.00720901 0.00137306 0.0278708 0.00200727 0.0172999 0.00284615 0.0283969 0.00339122 0.0161842 0.00390939 0.0505
117 3 O 2.03867 20.0455 1.4948 -1.2 1 0.00205907 0.00329636 0.00121373 0.00421707 0.00167514 0.00783395 0.00208998 0.0222422 0.00209239 0.00743541 0.00137368 0.028426 0.00201468 0.0172158 0.00246946 0.0289596 0.00371373 0.0160882 0.00372139 0.0505711
118 3 O 4.96004 20.3134 0.196716 -1.2 1 0.00158325 0.00254246 0.00138274 0.00417514 0.00121843 0.00835155 0.00113675 0.0217032 0.000775225 0.00748046 0.00149256 0.0276442 0.00273998 0.0165701 0.00400209 0.0287192 0.00319494 0.0152022 0.00297129 0.0497207
119 1 Mg 6.55057 18.996 2.9896 1.2 1 0.00225126 0.00340554 0.00118348 0.00400362 0.00243598 0.00806215 0.0028068 0.0213534 0.00259506 0.00790373 0.00160653 0.0288642 0.00291022 0.0169497 0.0028882 0.0290599 0.00416271 0.0169148 0.00492687 0.0507547