ITEM: TIMESTEP
14500
ITEM: NUMBER OF ATOMS
10500
ITEM: BOX BOUNDS xy xz yz pp pp pp
0	15.2974	5.099
0	118.725	0
0	89.688	0
ITEM: ATOMS id type element xu yu zu q Q_1 Q_2 Q_3 Q_4 Q_5 Q_6 Q_7 Q_8 Q_9 Q_10 Q_11 Q_12 Q_13 Q_14 Q_15 Q_16 Q_17 Q_18 Q_19 Q_20 Q_21
1 1 Mg 6.2404 -6.37941e-06 0 1.2 1 0.000904727 0.00466115 0.00132013 0.00487394 0.00142041 0.00562909 0.00219613 0.0161242 0.00218122 0.005707 0.00224721 0.0217182 0.0025316 0.0136445 0.00333191 0.0206349 0.00412206 0.0140715 0.00396763 0.0406084
2 1 Mg 3.46349 4.70768 1.4948 1.2 1 0.00142788 0.00362767 0.00167291 0.00458924 0.00193469 0.00615259 0.00353896 0.0186113 0.0028839 0.00713474 0.00298798 0.0255639 0.00313494 0.0141649 0.00453303 0.0252312 0.00517183 0.0168654 0.00568284 0.0437725
3 2 Si 5.2885 2.02354 1.4948 2.4 1 0.000687151 0.00385948 0.00217587 0.00476462 0.00187139 0.00581316 0.00253226 0.0171285 0.0024241 0.00619587 0.00219138 0.0229824 0.00280793 0.0136625 0.00365935 0.0215395 0.0037623 0.0152344 0.00436808 0.0412103
4 3 O 5.33628 3.63678 1.4948 -1.2 1 0.000994287 0.00320787 0.00172 0.00487449 0.00210832 0.00628533 0.00286779 0.0177569 0.00229249 0.00686036 0.0020345 0.0249752 0.00259266 0.0138067 0.00432905 0.023982 0.00485128 0.0162041 0.00564154 0.0427229
5 3 O 1.67294 1.04952 1.4948 -1.2 1 0.00133811 0.00386104 0.00213254 0.00428276 0.00144774 0.00569899 0.00252271 0.0169919 0.00255533 0.00614019 0.002095 0.022484 0.00253556 0.0129577 0.00344948 0.021901 0.00463655 0.0154541 0.00484325 0.0402527
6 3 O 4.59532 1.31737 0.196716 -1.2 1 0.000747133 0.00345889 0.0020517 0.00436667 0.00196943 0.00572603 0.00242975 0.0172125 0.00285601 0.00623261 0.00202782 0.0221824 0.00325566 0.0129591 0.00422358 0.0215375 0.00408603 0.0147858 0.0044383 0.0409175
7 1 Mg 6.18956 -6.37941e-06 2.9896 1.2 1 0.000614204 0.00485781 0.00145933 0.00429669 0.00152197 0.00584449 0.00243106 0.0160565 0.00278147 0.00564639 0.0018466 0.0221335 0.00263961 0.0135602 0.00359148 0.0208559 0.004415 0.0144945 0.00490698 0.0389022
8 3 O 4.55118 1.31737 2.79288 -1.2 1 0.000961516 0.00483876 0.00166917 0.00436043 0.00188239 0.00567565 0.00260051 0.0168948 0.00258532 0.00701999 0.00229694 0.0214628 0.00334507 0.0125196 0.00350566 0.0214757 0.00462405 0.015305 0.00513831 0.039726
9 1 Mg -1.20682 0.0413099 4.4844 1.2 1 0.00066582 0.00310793 0.00178511 0.00461816 0.00138302 0.00548859 0.00204254 0.0161251 0.00236256 0.00621918 0.00205148 0.022375 0.00275233 0.0119105 0.00370794 0.0209953 0.00525857 0.0153058 0.00508875 0.0386371
10 2 Si -3.0337 2.72544 4.4844 2.4 1 0.00106462 0.0035723 0.00182392 0.00489285 0.00194812 0.00618987 0.00318879 0.016695 0.00339407 0.00660704 0.00220333 0.0237056 0.00313405 0.0133261 0.00392046 0.0225793 0.005262 0.0173686 0.00633597 0.0396625
11 3 O -3.08099 1.11221 4.4844 -1.2 1 0.00101754 0.00399816 0.00178533 0.00431017 0.00127954 0.00546294 0.00236409 0.0160538 0.00281899 0.00599863 0.00211092 0.0221007 0.00314649 0.01181 0.00361784 0.0215191 0.00504289 0.0159579 0.00547395 0.0382075
12 3 O 0.582463 3.69946 4.4844 -1.2 1 0.00166878 0.00467889 0.00191443 0.00431827 0.00238039 0.00651512 0.00345048 0.0171957 0.00359778 0.00699803 0.00305955 0.0246242 0.00417158 0.0132663 0.0045226 0.0244763 0.006799 0.0183592 0.00803609 0.041719
13 3 O -2.29524 3.43162 3.18632 -1.2 1 0.00124589 0.00318449 0.00251717 0.00462851 0.00206388 0.00604323 0.00296053 0.0177198 0.00334051 0.00686592 0.00259963 0.024334 0.00324119 0.0132925 0.00483462 0.024428 0.00580949 0.0177267 0.00660246 0.0418334
14 3 O -2.34216 3.43162 5.78248 -1.2 1 0.00161284 0.00395174 0.00116717 0.0048241 0.00241457 0.00591646 0.00319522 0.0169739 0.00302522 0.00760152 0.00278066 0.023362 0.00432316 0.0127359 0.00407524 0.0235118 0.00622337 0.0190763 0.00741629 0.0401559
15 1 Mg 1.12778 2.37449 2.9896 1.2 1 0.0012076 0.00396132 0.00227826 0.00438669 0.00217295 0.00584271 0.00304349 0.0168083 0.00293931 0.00649636 0.00234501 0.0233006 0.00320234 0.0131536 0.00351991 0.0218986 0.00484202 0.0162647 0.00547133 0.040747
16 1 Mg 3.92855 2.33318 4.4844 1.2 1 0.00161026 0.0047999 0.0015151 0.00424446 0.00171031 0.00577675 0.00335047 0.0167171 0.00335752 0.00641117 0.00280915 0.0225961 0.00357715 0.0136673 0.00511441 0.0220571 0.00637843 0.0169287 0.00690082 0.0400419
17 2 Si 2.09341 4.39804 4.4844 2.4 1 0.00178189 0.00456526 0.00183845 0.00419695 0.00275219 0.00606774 0.00358482 0.0180795 0.00354964 0.00712646 0.00317186 0.0244477 0.00433972 0.0142937 0.0044404 0.0247233 0.00665813 0.0182692 0.00835385 0.0433679
18 3 O 2.09991 6.01128 4.4844 -1.2 1 0.00258969 0.00490581 0.00160989 0.00400464 0.00276651 0.00653858 0.00326806 0.019013 0.00291317 0.00749194 0.00302285 0.0263833 0.00404674 0.0147193 0.00478275 0.0274957 0.0066233 0.0192646 0.00822677 0.0453524
19 3 O -4.52137 3.42402 4.4844 -1.2 1 0.00162878 0.00419585 0.002067 0.00460257 0.00201755 0.00700408 0.00343152 0.0169135 0.00338758 0.00651041 0.00281781 0.0236062 0.00383196 0.013163 0.0040336 0.0228436 0.00611814 0.0176041 0.00752414 0.0410914
20 3 O 2.80834 3.69187 3.18632 -1.2 1 0.00158198 0.00409901 0.0016262 0.00375604 0.00193635 0.00578727 0.00300172 0.0173367 0.00308503 0.00671028 0.00270994 0.024035 0.00359308 0.0132933 0.00492168 0.0239418 0.00551692 0.016837 0.00629603 0.0425253
21 1 Mg 1.17857 2.37449 0 1.2 1 0.00177681 0.00392961 0.00202913 0.00417678 0.00151681 0.00557548 0.00246018 0.017295 0.00250549 0.0065237 0.00276712 0.0230594 0.00268114 0.0133297 0.00345065 0.0218561 0.00423633 0.0148236 0.00478502 0.0409422
22 3 O 2.76143 3.69187 5.78248 -1.2 1 0.00206806 0.00490188 0.00162343 0.0041225 0.00193979 0.00558269 0.00280994 0.0175146 0.00326813 0.00748984 0.00285777 0.0231725 0.00448968 0.0133921 0.00518894 0.0235629 0.0065082 0.0185324 0.00747522 0.0409363
23 1 Mg -1.67381 2.41581 1.4948 1.2 1 0.000935655 0.00315353 0.00276984 0.00479898 0.00138165 0.00605796 0.00257273 0.0166357 0.00285984 0.00645539 0.00190625 0.023702 0.00263538 0.0140746 0.00283182 0.0222098 0.00425033 0.0159757 0.00492684 0.0414397
24 2 Si 0.16286 0.350945 1.4948 2.4 1 0.00155112 0.00317566 0.00288312 0.00460232 0.00140508 0.00644363 0.00290884 0.0164528 0.00225118 0.00533856 0.0020257 0.0225187 0.00247033 0.0136129 0.00304067 0.0207998 0.00466967 0.0146573 0.00431436 0.0401322
25 3 O 0.15972 -1.26229 1.4948 -1.2 1 0.00130342 0.00313166 0.00291574 0.00433776 0.00196255 0.00602361 0.00270981 0.0163904 0.00244908 0.0055273 0.00245773 0.0224606 0.00246105 0.0140222 0.00300448 0.0218508 0.00429413 0.0144593 0.00386723 0.0407102
26 3 O 6.77654 1.32496 1.4948 -1.2 1 0.000776396 0.00412183 0.00166484 0.00470973 0.00138205 0.00605049 0.00243846 0.0167864 0.00267105 0.00556573 0.00187233 0.0234751 0.00274797 0.0136878 0.00358957 0.0219352 0.00460936 0.0151892 0.00439366 0.0407586
27 3 O -0.508028 1.05712 0.196716 -1.2 1 0.00108042 0.00330146 0.00318093 0.00415591 0.00146567 0.00567672 0.00258836 0.0170867 0.00204547 0.00658872 0.00272671 0.0218558 0.00266372 0.0130064 0.00312198 0.0212894 0.00428834 0.0150403 0.00437785 0.0401554
28 3 O -0.552171 1.05712 2.79288 -1.2 1 0.000663886 0.00282509 0.00303654 0.00439125 0.00150899 0.00612787 0.00246688 0.0161709 0.00270878 0.006488 0.00174928 0.0225049 0.00294172 0.0120443 0.00363095 0.021775 0.00514664 0.0155967 0.00487392 0.0395323
29 1 Mg 6.31713 4.74899 0 1.2 1 0.000715159 0.00309916 0.00198264 0.00468145 0.0024154 0.00624271 0.00324716 0.0180173 0.0027674 0.00697463 0.00218161 0.0250921 0.00303436 0.0137363 0.00435445 0.024677 0.00459042 0.0162403 0.00584452 0.0428166
30 1 Mg 3.54847 9.45668 1.4948 1.2 1 0.00131991 0.00331239 0.00179794 0.00458489 0.00215076 0.00757968 0.00311946 0.0212869 0.00178354 0.00860169 0.00220514 0.0281496 0.00305239 0.0157666 0.00383451 0.0291456 0.00418993 0.0180449 0.00409241 0.0486634
31 2 Si 5.36879 6.77254 1.4948 2.4 1 0.000794087 0.00320338 0.00204076 0.00514517 0.00273771 0.00689526 0.0036566 0.0195796 0.00259411 0.00793013 0.00250403 0.0274106 0.00318818 0.0154954 0.00421182 0.0269142 0.00457553 0.0171487 0.00548633 0.0464186
32 3 O 5.41937 8.38578 1.4948 -1.2 1 0.00102492 0.00326598 0.00165382 0.00507736 0.00233038 0.00768725 0.00302611 0.0209779 0.00214253 0.0084626 0.00238397 0.0287536 0.00240421 0.0157336 0.0031903 0.0291326 0.00459882 0.0173795 0.00502841 0.0480279
33 3 O 1.75158 5.79852 1.4948 -1.2 1 0.00126935 0.0035693 0.00172139 0.00406997 0.00239578 0.00601786 0.00328519 0.01947 0.00286986 0.00739536 0.0027186 0.0276247 0.00296044 0.0156159 0.00366007 0.0268173 0.00532181 0.0174584 0.0056288 0.0455259
34 3 O 4.67421 6.06637 0.196716 -1.2 1 0.000629536 0.00317426 0.00158079 0.00481152 0.00208209 0.00690307 0.00288365 0.0197513 0.00243658 0.00821849 0.00208973 0.0260211 0.00356491 0.014411 0.00432669 0.0265872 0.00458266 0.0166513 0.00558416 0.0450721
35 1 Mg 6.26654 4.74899 2.9896 1.2 1 0.00169259 0.00356617 0.00209936 0.00495406 0.0025203 0.00663653 0.00364047 0.0178917 0.00373642 0.00729913 0.0021248 0.0255601 0.00369298 0.0147861 0.00505262 0.02492 0.00571258 0.0174751 0.00711712 0.0433453
36 3 O 4.63043 6.06637 2.79288 -1.2 1 0.00203146 0.00378432 0.0018221 0.00492742 0.00224934 0.00675498 0.00333363 0.0193308 0.00341734 0.00810643 0.00240448 0.0258326 0.00392167 0.0147373 0.00450465 0.0273525 0.00585112 0.0181702 0.00713884 0.0451753
37 1 Mg -1.12976 4.79031 4.4844 1.2 1 0.00202613 0.00430315 0.00167845 0.00469171 0.0022262 0.00616808 0.00329139 0.0178144 0.0036113 0.0073045 0.00295176 0.0256702 0.00409651 0.0147294 0.00474838 0.0258796 0.00731044 0.0192042 0.00802686 0.0439962
38 2 Si -2.9517 7.47444 4.4844 2.4 1 0.00271182 0.00415352 0.0015005 0.00521265 0.00283092 0.00666039 0.00380969 0.0201446 0.00327827 0.00806912 0.00283847 0.0272669 0.00448694 0.0160712 0.00554694 0.0281706 0.00683773 0.0193642 0.00825405 0.0475667
39 3 O -3.00198 5.86121 4.4844 -1.2 1 0.0022416 0.00437317 0.00155477 0.00494202 0.00292711 0.00642684 0.00412596 0.0185096 0.00368137 0.00775183 0.00257061 0.0256064 0.00450156 0.014417 0.00460833 0.0269452 0.00659657 0.0195592 0.00838395 0.0449508
40 3 O 0.666315 8.44846 4.4844 -1.2 1 0.00305131 0.00517219 0.00142139 0.00495016 0.00277992 0.0075063 0.00313373 0.0210291 0.00312672 0.00832601 0.00322998 0.0279548 0.00438378 0.0161864 0.00458017 0.0293804 0.00640264 0.019836 0.008111 0.0485371
41 3 O -2.21213 8.18062 3.18632 -1.2 1 0.00220348 0.00424217 0.00169469 0.0045935 0.00262372 0.00644473 0.00299376 0.0205954 0.0028579 0.0082873 0.00266901 0.027408 0.00419007 0.0160992 0.00504732 0.02902 0.00587714 0.0187704 0.00689859 0.0486046
42 3 O -2.25864 8.18062 5.78248 -1.2 1 0.00343117 0.00474413 0.0016312 0.0048576 0.00271476 0.00628632 0.00300799 0.0206497 0.00265035 0.00865734 0.00344621 0.0265032 0.00431673 0.016713 0.00541205 0.0295036 0.00701188 0.0211228 0.00825738 0.0491934
43 1 Mg 1.20893 7.12349 2.9896 1.2 1 0.00176889 0.00414277 0.00184015 0.00446505 0.00273811 0.00674611 0.00369669 0.0195688 0.002954 0.00825346 0.00264061 0.0276586 0.00363644 0.0158261 0.00384453 0.027547 0.00559807 0.0183439 0.00652444 0.0467788
44 1 Mg 4.00982 7.08218 4.4844 1.2 1 0.00252477 0.00440412 0.00166329 0.00481054 0.00243971 0.0065389 0.00364656 0.0200812 0.00342999 0.0078416 0.00318439 0.0269234 0.00424277 0.0167588 0.00579772 0.0282392 0.00720366 0.0192707 0.00843847 0.047137
45 2 Si 2.17861 9.14704 4.4844 2.4 1 0.0030496 0.00467152 0.00174305 0.00506653 0.0027535 0.00746845 0.00377133 0.0209919 0.00293218 0.00835403 0.00297839 0.0277248 0.00445803 0.0166888 0.00438053 0.0296129 0.00596966 0.0196965 0.0073784 0.0501939
46 3 O 2.18828 10.7603 4.4844 -1.2 1 0.00371134 0.00466967 0.00190977 0.00479396 0.00256242 0.00719522 0.00301896 0.0207735 0.00249477 0.00833445 0.0021975 0.0283445 0.00394657 0.015929 0.00444891 0.0307338 0.00613938 0.0199159 0.00693514 0.0511719
47 3 O -4.43805 8.17302 4.4844 -1.2 1 0.00230191 0.00447982 0.00169188 0.00533397 0.00248157 0.00771559 0.00326698 0.0205631 0.00325205 0.00833333 0.00305012 0.0280983 0.00452434 0.0161496 0.00505436 0.0293174 0.00691155 0.0196609 0.00890034 0.048281
48 3 O 2.89193 8.44087 3.18632 -1.2 1 0.00246561 0.00396925 0.00178139 0.00448329 0.00253514 0.00698729 0.00335121 0.0203928 0.00295617 0.0086307 0.00267523 0.0272872 0.00375491 0.0158969 0.00468928 0.0289522 0.00593837 0.018656 0.0060246 0.0484135
49 1 Mg 1.25915 7.12349 0 1.2 1 0.000951847 0.00312569 0.00135878 0.0041855 0.00192865 0.00721128 0.00289342 0.020163 0.00274938 0.00827155 0.00261479 0.027492 0.00346168 0.0145332 0.00376894 0.0274452 0.00461751 0.01737 0.00457192 0.0459892
50 3 O 2.84547 8.44087 5.78248 -1.2 1 0.00317906 0.004945 0.00187737 0.0046937 0.00227769 0.00675736 0.00341593 0.020713 0.00317503 0.00895348 0.00342134 0.0266226 0.00549195 0.0166005 0.00559763 0.0296335 0.00637859 0.0212453 0.00805713 0.0494418
51 1 Mg -1.59284 7.16481 1.4948 1.2 1 0.00104234 0.00345839 0.00131755 0.00464498 0.00192536 0.00635325 0.0028048 0.0198694 0.00292215 0.0079587 0.00179301 0.0275943 0.00347022 0.0156827 0.00381956 0.02728 0.00473324 0.0174766 0.00579124 0.0465932
52 2 Si 0.240329 5.09994 1.4948 2.4 1 0.00110772 0.00387821 0.00199473 0.0042348 0.00191189 0.00682905 0.00305139 0.0190103 0.00313101 0.00739245 0.00226851 0.0257747 0.0029356 0.0146652 0.00432732 0.0247385 0.00502568 0.0168296 0.005409 0.0444966
53 3 O 0.234538 3.48671 1.4948 -1.2 1 0.00152812 0.00401527 0.00267542 0.00437077 0.00183281 0.00644448 0.00270849 0.0179927 0.00334866 0.00706675 0.0023073 0.0242275 0.00324403 0.0138286 0.003993 0.0240915 0.00538949 0.0159446 0.00546341 0.0423689
54 3 O 6.85564 6.07396 1.4948 -1.2 1 0.00113145 0.0029972 0.00226898 0.00489391 0.00248397 0.00615244 0.00305517 0.0198317 0.00307108 0.00772376 0.00211512 0.0274712 0.00334712 0.0149155 0.00479033 0.0269351 0.00550394 0.0174806 0.00638121 0.0452966
55 3 O -0.429565 5.80612 0.196716 -1.2 1 0.000948301 0.00333056 0.00205391 0.00412807 0.00189282 0.00711407 0.00257719 0.0196719 0.00282043 0.0084409 0.0023541 0.0256326 0.00272071 0.0142716 0.00396043 0.0258889 0.00490486 0.0167495 0.00575525 0.0451283
56 3 O -0.473377 5.80612 2.79288 -1.2 1 0.00191825 0.00373209 0.00187888 0.00448262 0.00229944 0.00673562 0.00307303 0.0192325 0.00326968 0.00823998 0.00277479 0.0256108 0.00377681 0.0147871 0.00470817 0.0264346 0.00626762 0.0185012 0.00689318 0.0455398
57 1 Mg 6.40169 9.49799 0 1.2 1 0.000312953 0.00390016 0.00143637 0.00463767 0.00158283 0.00829077 0.00202654 0.0209401 0.00164577 0.00894875 0.0017815 0.0285361 0.00238976 0.0148982 0.00272929 0.0297009 0.0035679 0.0177796 0.00410445 0.0476612
58 1 Mg 3.64209 14.2057 1.4948 1.2 1 0.00204384 0.0033059 0.00160887 0.00445685 0.00182003 0.00871734 0.00184783 0.021692 0.00150878 0.00881869 0.00212572 0.0278483 0.00240447 0.0161772 0.00293693 0.0296073 0.00349006 0.0169784 0.00337102 0.0496732
59 2 Si 5.45748 11.5215 1.4948 2.4 1 0.00192361 0.00329858 0.00176692 0.00455456 0.00180785 0.00818739 0.00215978 0.0211957 0.00151396 0.00837477 0.00174825 0.0285471 0.00269132 0.0163096 0.00339166 0.0292717 0.00405319 0.0168663 0.00388939 0.0493777
60 3 O 5.51101 13.1348 1.4948 -1.2 1 0.00211848 0.00334856 0.00176843 0.00455197 0.00159759 0.00903486 0.00183919 0.0211691 0.00167986 0.00869158 0.0016401 0.0289966 0.00221196 0.016242 0.00292522 0.0299787 0.00372034 0.0166435 0.00355934 0.04933
61 3 O 1.83851 10.5475 1.4948 -1.2 1 0.00127134 0.00353016 0.00182615 0.00467163 0.00194057 0.00769279 0.00245231 0.0216014 0.00185083 0.00855676 0.00215839 0.0291564 0.00258908 0.0160392 0.00334427 0.0298031 0.00410871 0.0176719 0.00364131 0.0493928
62 3 O 4.7611 10.8154 0.196716 -1.2 1 0.000766423 0.00296444 0.00174157 0.00462058 0.00160134 0.00843584 0.00210762 0.0213475 0.00140407 0.00876612 0.00186244 0.0279462 0.00289785 0.0157462 0.00383304 0.0294752 0.00366341 0.0170114 0.0037029 0.0486436
63 1 Mg 6.35203 9.49799 2.9896 1.2 1 0.00165002 0.00400287 0.00171508 0.00497247 0.00263993 0.0075108 0.00342244 0.0203598 0.00314595 0.00874413 0.00209636 0.0288659 0.00366067 0.0163197 0.00347914 0.029269 0.00443002 0.0183003 0.00577332 0.0488067
64 3 O 4.71833 10.8154 2.79288 -1.2 1 0.00280745 0.00364674 0.00172987 0.00466766 0.00219471 0.00807686 0.0022984 0.0214533 0.00204005 0.00910432 0.00217448 0.0280181 0.00355881 0.0159936 0.00419516 0.0300506 0.00524037 0.0182083 0.00551377 0.0501529
65 1 Mg -1.0438 9.53931 4.4844 1.2 1 0.00335661 0.00485036 0.00168852 0.00463399 0.00293237 0.00684595 0.002831 0.0207317 0.00276451 0.00863278 0.00257895 0.0281163 0.00382807 0.0169043 0.00449702 0.0299463 0.00657843 0.0200393 0.00726419 0.0501434
66 2 Si -2.8604 12.2234 4.4844 2.4 1 0.00341079 0.00432641 0.00191318 0.00455763 0.0027458 0.00774974 0.00317719 0.0218445 0.00285969 0.00864514 0.00246486 0.0280786 0.00417921 0.0167136 0.00466507 0.0300164 0.0058616 0.0193086 0.00654144 0.0519251
67 3 O -2.91391 10.6102 4.4844 -1.2 1 0.00347706 0.0044855 0.00186476 0.00462766 0.00288183 0.00713147 0.00329167 0.020667 0.00263912 0.00801558 0.00197439 0.0282383 0.00410408 0.0160964 0.00436626 0.0305767 0.00602709 0.0196932 0.00705616 0.050759
68 3 O 0.7596 13.1975 4.4844 -1.2 1 0.00350334 0.00413275 0.00177403 0.00496777 0.00271264 0.00839517 0.00251554 0.0222556 0.0027225 0.00856206 0.00290044 0.0284484 0.00400102 0.0164587 0.00412821 0.0303342 0.00597624 0.0195184 0.0068165 0.0518005
69 3 O -2.12001 12.9296 3.18632 -1.2 1 0.00346694 0.00401852 0.00185249 0.00434325 0.00249153 0.00769171 0.00252481 0.0218819 0.00248258 0.00850249 0.0021741 0.0276538 0.00359039 0.0163425 0.00455949 0.0303299 0.00528601 0.0184174 0.00542863 0.0510659
70 3 O -2.16532 12.9296 5.78248 -1.2 1 0.00374757 0.00457325 0.00166892 0.00463288 0.00276032 0.00673106 0.00252216 0.0221848 0.00259562 0.00839977 0.00297671 0.0275468 0.00408977 0.0169804 0.00532976 0.0313041 0.00638456 0.0212548 0.0071252 0.0534537
71 1 Mg 1.29891 11.8725 2.9896 1.2 1 0.00280021 0.00365048 0.00174095 0.00480375 0.00245458 0.00801227 0.00284997 0.0210841 0.00258023 0.00875757 0.00203988 0.028931 0.00339883 0.016473 0.00367726 0.0298616 0.00459205 0.0177522 0.00505265 0.050053
72 1 Mg 4.10033 11.8312 4.4844 1.2 1 0.00324319 0.00407193 0.00203336 0.00459854 0.00248515 0.00718657 0.0026797 0.0213253 0.00256902 0.00828666 0.00264772 0.0285259 0.00375036 0.0176331 0.00499473 0.0304606 0.00663517 0.0193819 0.00661448 0.0517498
73 2 Si 2.27333 13.896 4.4844 2.4 1 0.00341836 0.0037032 0.00166913 0.00500436 0.0028934 0.00789968 0.00310408 0.0218989 0.00246135 0.0082802 0.002843 0.0279996 0.00380128 0.0168808 0.00451052 0.030056 0.00560672 0.0189082 0.00653341 0.0526587
74 3 O 2.28634 15.5093 4.4844 -1.2 1 0.00336689 0.00407387 0.00164532 0.004542 0.00285921 0.00735238 0.00295755 0.0210496 0.00243589 0.00772846 0.00232389 0.0285124 0.00356154 0.0162984 0.00431037 0.0304586 0.00572153 0.0187417 0.00630378 0.0522144
75 3 O -4.34533 12.922 4.4844 -1.2 1 0.00301806 0.00443453 0.00197899 0.00464388 0.00269782 0.00829762 0.00295503 0.021949 0.00286139 0.00858362 0.00243415 0.0283454 0.00390232 0.0164448 0.00468049 0.0305063 0.00646971 0.0198725 0.00731261 0.0517989
76 3 O 2.98455 13.1899 3.18632 -1.2 1 0.00315615 0.00358742 0.00166869 0.00443308 0.00245231 0.00782263 0.00231829 0.0218952 0.00222328 0.00863881 0.00220916 0.0277402 0.00329942 0.0162105 0.00434414 0.0300729 0.00556536 0.0183454 0.00574773 0.0510466
77 1 Mg 1.34779 11.8725 0 1.2 1 0.00130273 0.00283807 0.0011268 0.00450304 0.00139898 0.00878227 0.00160396 0.0211968 0.00132064 0.00908626 0.00179717 0.0287022 0.00266034 0.0151078 0.00285107 0.030012 0.00311994 0.0170689 0.00325054 0.0483643
78 3 O 2.93934 13.1899 5.78248 -1.2 1 0.00367307 0.00443302 0.00164927 0.00493914 0.00249256 0.0071727 0.00258937 0.0218215 0.00247508 0.0084564 0.00302437 0.027473 0.00425601 0.0170331 0.00498432 0.0309875 0.00632963 0.0212547 0.00692526 0.0535404
79 1 Mg -1.50344 11.9138 1.4948 1.2 1 0.00160499 0.00373294 0.0014822 0.00452301 0.0015525 0.00823412 0.00186791 0.0216233 0.00236041 0.00867138 0.00148161 0.0284745 0.0033986 0.0162571 0.00330467 0.0297134 0.00355119 0.0173546 0.00386255 0.0493838
80 2 Si 0.326006 9.84894 1.4948 2.4 1 0.000797422 0.00359239 0.00136431 0.00483306 0.00199433 0.00810001 0.00211512 0.0209515 0.0021217 0.00852936 0.00165589 0.0284334 0.00296203 0.0158261 0.00359169 0.0289599 0.00379401 0.0175735 0.00372785 0.0487504
81 3 O 0.317364 8.23571 1.4948 -1.2 1 0.00123862 0.00368141 0.00121893 0.00446042 0.00192607 0.00765915 0.00221034 0.0202175 0.00259118 0.00809608 0.00173579 0.0284863 0.0035122 0.0158886 0.00394915 0.0285984 0.0044643 0.0175631 0.00455453 0.0476703
82 3 O 6.94307 10.823 1.4948 -1.2 1 0.00139408 0.00386261 0.00155363 0.00459664 0.00202199 0.00768396 0.0025567 0.0218003 0.00239309 0.00851717 0.00152317 0.0292144 0.00292715 0.0159727 0.0032521 0.0299103 0.00379788 0.0178036 0.00425369 0.0493586
83 3 O -0.343122 10.5551 0.196716 -1.2 1 0.00069479 0.00320331 0.00117843 0.0045975 0.00154154 0.00841453 0.00188584 0.0212192 0.00174558 0.00890057 0.0019408 0.0280486 0.0033556 0.0155636 0.00402751 0.0293938 0.003407 0.0171992 0.00352463 0.0486867
84 3 O -0.385966 10.5551 2.79288 -1.2 1 0.0029079 0.00400463 0.00135139 0.00464251 0.00249176 0.00798122 0.0024132 0.0214034 0.00207459 0.00924982 0.00228806 0.027505 0.00363559 0.0160625 0.00414316 0.0299351 0.00517001 0.0186691 0.00530532 0.0500385
85 1 Mg 6.49448 14.247 0 1.2 1 0.00119511 0.00327462 0.00151656 0.00453892 0.00129232 0.00915271 0.00122982 0.0211981 0.00122506 0.00856924 0.00149911 0.0285346 0.00171531 0.0156695 0.0023168 0.0299867 0.00297333 0.016376 0.00288126 0.0484288
86 1 Mg 3.74457 18.9547 1.4948 1.2 1 0.00181558 0.00314712 0.0013133 0.00413299 0.00170708 0.00850376 0.00112684 0.0220742 0.00190322 0.0079818 0.00219306 0.0274504 0.00242611 0.0167715 0.00346469 0.0288996 0.0035326 0.0163868 0.00325059 0.0501231
87 2 Si 5.55495 16.2705 1.4948 2.4 1 0.00213345 0.00305764 0.00147925 0.00446857 0.00191889 0.00881811 0.00140497 0.0213856 0.00130168 0.0079344 0.00138538 0.0282034 0.00219807 0.0164948 0.00274531 0.0288665 0.00364385 0.0158907 0.00365632 0.0498253
88 3 O 5.6115 17.8838 1.4948 -1.2 1 0.00187485 0.00303153 0.00156987 0.00434569 0.00174876 0.00909576 0.00146679 0.0216276 0.00186939 0.00781085 0.00145985 0.0284559 0.00201919 0.0167827 0.00273423 0.0290023 0.00322903 0.0157466 0.00345527 0.0497395
89 3 O 1.93416 15.2965 1.4948 -1.2 1 0.00209978 0.0032291 0.00147734 0.0045552 0.00180719 0.00824915 0.00203891 0.0218822 0.00189848 0.00810561 0.00145456 0.0287413 0.0020184 0.0164317 0.0028842 0.029749 0.00358607 0.016597 0.00334405 0.0501405
90 3 O 4.85636 15.5644 0.196716 -1.2 1 0.00152756 0.00262693 0.00137795 0.00446619 0.0014156 0.00906597 0.00131615 0.0213763 0.000971178 0.00821425 0.00169376 0.0277411 0.00252142 0.0162081 0.00331084 0.0293276 0.00321238 0.0157835 0.00306015 0.0491611
91 1 Mg 6.44662 14.247 2.9896 1.2 1 0.00217465 0.00373012 0.00161372 0.00450132 0.00244951 0.00847689 0.00296807 0.0208076 0.00263581 0.0086962 0.00184883 0.029043 0.00316017 0.0166321 0.00323838 0.0294872 0.00413351 0.017512 0.00467204 0.0501802
92 3 O 4.81537 15.5644 2.79288 -1.2 1 0.00295641 0.00328998 0.00162256 0.00441893 0.00229519 0.00878203 0.00167844 0.0218119 0.00164741 0.00855242 0.00180758 0.0277154 0.0028926 0.0165474 0.00375808 0.0297247 0.00475756 0.0172546 0.00490196 0.050812
93 1 Mg -0.948271 14.2883 4.4844 1.2 1 0.00366643 0.00392175 0.0014922 0.00447383 0.00271847 0.00751071 0.0026075 0.0216682 0.00262969 0.00851911 0.00271136 0.028113 0.00326875 0.0172976 0.00471846 0.0305002 0.00587214 0.0188925 0.006294 0.0521674
94 2 Si -2.75928 16.9724 4.4844 2.4 1 0.00323053 0.00357787 0.00171236 0.00465975 0.00272709 0.00795111 0.00279871 0.0221597 0.00259751 0.00796919 0.00261959 0.027719 0.00358632 0.0172184 0.00464421 0.0295781 0.00524437 0.0183358 0.00570285 0.052758
95 3 O -2.81617 15.3592 4.4844 -1.2 1 0.00363721 0.00405514 0.00175555 0.00450319 0.00290535 0.00748806 0.00283359 0.0212662 0.00246026 0.00783338 0.00229665 0.0282431 0.00353597 0.0163308 0.00426099 0.0305444 0.00601562 0.0185496 0.00654609 0.0520819
96 3 O 0.862762 17.9465 4.4844 -1.2 1 0.00294731 0.00412399 0.00137019 0.00462802 0.0028567 0.00844572 0.0025802 0.0224823 0.0024192 0.00787937 0.0025724 0.0282078 0.00374484 0.0171323 0.00424027 0.0294071 0.00566799 0.018552 0.00605085 0.0523599
97 3 O -2.0185 17.6786 3.18632 -1.2 1 0.00283958 0.00337238 0.00176862 0.00400282 0.00251464 0.00752396 0.0021799 0.0221423 0.00230022 0.00782916 0.00237543 0.0273765 0.00340827 0.0167167 0.00458518 0.0299661 0.00482134 0.0175015 0.00496124 0.051768
98 3 O -2.06164 17.6786 5.78248 -1.2 1 0.00361822 0.0042988 0.00147295 0.00448946 0.00283281 0.00696809 0.00241404 0.0225382 0.00236347 0.00774139 0.00257766 0.027211 0.00360922 0.0174072 0.00479657 0.0308098 0.0058245 0.0203312 0.00619745 0.0545294
99 1 Mg 1.39817 16.6215 2.9896 1.2 1 0.00269821 0.00346185 0.00156068 0.00456505 0.00250612 0.00841332 0.00266762 0.0212739 0.00263327 0.00817285 0.00212597 0.028564 0.0026714 0.0167846 0.00354397 0.0294249 0.00412107 0.0167372 0.00439236 0.0505711
100 1 Mg 4.20062 16.5802 4.4844 1.2 1 0.00324122 0.00374501 0.00195884 0.00445239 0.00271432 0.00771182 0.00262802 0.0217232 0.00286122 0.00762674 0.00273187 0.0282121 0.0033405 0.0177466 0.0052513 0.0300129 0.00624392 0.0184437 0.00596295 0.0525844
101 2 Si 2.37796 18.645 4.4844 2.4 1 0.00270307 0.0036275 0.00144246 0.00460358 0.00281888 0.00807408 0.00290996 0.022465 0.00266133 0.00770278 0.0027408 0.0277113 0.00358908 0.017244 0.00446382 0.0294086 0.00510432 0.0181626 0.00573003 0.0533279
102 3 O 2.39434 20.2583 4.4844 -1.2 1 0.00296549 0.00392503 0.001346 0.00430144 0.00286744 0.00707606 0.00244442 0.0215957 0.0027786 0.0071178 0.00188993 0.0281529 0.00325747 0.0167656 0.00395472 0.0298895 0.00556524 0.0182232 0.00633553 0.0530153
103 3 O -4.24274 17.671 4.4844 -1.2 1 0.00280373 0.00409603 0.00176113 0.00463048 0.00266469 0.00859817 0.00271326 0.0223791 0.00277115 0.0078426 0.00263446 0.0282309 0.00364125 0.0168883 0.0048139 0.0296933 0.0058591 0.018755 0.00628495 0.0524682
104 3 O 3.08659 17.9389 3.18632 -1.2 1 0.00280578 0.00321102 0.00162098 0.00416243 0.00259487 0.0080083 0.0020917 0.0221307 0.00231531 0.00782953 0.00209193 0.0274013 0.00310364 0.0166438 0.0042205 0.0295111 0.00525859 0.0173232 0.00545027 0.0515418
105 1 Mg 1.44478 16.6215 0 1.2 1 0.00202036 0.00293894 0.000944139 0.00433775 0.0013249 0.00890237 0.00117034 0.0214215 0.00143552 0.00819029 0.00156276 0.0281905 0.00223897 0.0159392 0.00210772 0.0293799 0.00284404 0.0159562 0.00288308 0.0489378
106 3 O 3.0436 17.9389 5.78248 -1.2 1 0.0031752 0.00418693 0.00137856 0.00471869 0.00270432 0.00695699 0.00266051 0.0224722 0.0022184 0.00784934 0.00277833 0.0272019 0.00395713 0.0172403 0.00472416 0.0307957 0.00593297 0.0206643 0.00618177 0.0545553
107 1 Mg -1.40524 16.6628 1.4948 1.2 1 0.00157875 0.00322373 0.00133696 0.00432643 0.00170892 0.00867216 0.00172733 0.0221653 0.00198274 0.008197 0.00175001 0.0279223 0.00301214 0.016787 0.0028975 0.0293687 0.00292345 0.016479 0.00312195 0.049822
108 2 Si 0.420358 14.5979 1.4948 2.4 1 0.00165406 0.00304466 0.00147083 0.00472411 0.00199451 0.00903805 0.00187391 0.0212967 0.00173721 0.00823902 0.00146818 0.0282317 0.00289573 0.0165772 0.00346862 0.0289538 0.00339472 0.0163951 0.00333172 0.0496044
109 3 O 0.408732 12.9847 1.4948 -1.2 1 0.00167891 0.00317022 0.0013505 0.00471277 0.00186138 0.00902493 0.00150334 0.0211549 0.00214511 0.00852393 0.00134312 0.0288581 0.00295806 0.0162124 0.00299393 0.0298287 0.00323725 0.0167277 0.00366837 0.0495252
110 3 O 7.03923 15.572 1.4948 -1.2 1 0.00180501 0.00341811 0.0014816 0.00445947 0.00204827 0.00830684 0.00220324 0.0216604 0.00221752 0.00804621 0.00153093 0.0289005 0.00253855 0.0165462 0.00290645 0.0296878 0.00347049 0.0166368 0.00381488 0.0499256
111 3 O -0.248332 15.3041 0.196716 -1.2 1 0.00164391 0.0028391 0.00107776 0.00445919 0.00111413 0.00901691 0.00180526 0.02119 0.00136248 0.00821429 0.0016391 0.0276701 0.00289755 0.0161575 0.00355905 0.0293051 0.00282826 0.0159623 0.00304312 0.0491611
112 3 O -0.289436 15.3041 2.79288 -1.2 1 0.00315393 0.00368173 0.0012493 0.00437985 0.00253381 0.00862848 0.00191197 0.0219675 0.00180079 0.00866406 0.00195533 0.0272494 0.00293739 0.0165982 0.00366653 0.0296848 0.00444897 0.0176179 0.00460892 0.0509893
113 1 Mg 6.59566 18.996 0 1.2 1 0.000887155 0.0028976 0.00136384 0.00413016 0.000932929 0.00858417 0.000991238 0.0218248 0.00120802 0.0077512 0.00137308 0.0279765 0.00203447 0.016496 0.00213555 0.0287039 0.00275869 0.0157441 0.00279084 0.0489525
114 1 Mg 3.85574 23.7037 1.4948 1.2 1 0.00165269 0.00260192 0.00124451 0.00423255 0.00154073 0.00758804 0.00111385 0.0230731 0.00174252 0.00735285 0.00208537 0.0269638 0.00222787 0.0175469 0.00340936 0.0286381 0.00337827 0.0172614 0.00342792 0.0509103
115 2 Si 5.66125 21.0195 1.4948 2.4 1 0.00143961 0.00250549 0.00117412 0.00430132 0.00183162 0.00812766 0.00148523 0.0218656 0.00134424 0.00737776 0.00152419 0.0278966 0.00235418 0.0174736 0.00256554 0.0282068 0.00358963 0.0157282 0.00395466 0.05039
116 3 O 5.72074 22.6328 1.4948 -1.2 1 0.00161808 0.00255756 0.00153861 0.00424015 0.0016413 0.00820344 0.00148595 0.0223571 0.0018304 0.00710759 0.00133472 0.0278361 0.00190758 0.017369 0.002751 0.0285076 0.00332007 0.0162923 0.00370595 0.0503211
117 3 O 2.03867 20.0455 1.4948 -1.2 1 0.00154617 0.0030434 0.00124611 0.00435059 0.00178216 0.00779208 0.00201026 0.0222895 0.00217829 0.0074233 0.00141787 0.0282186 0.00208199 0.0174015 0.00244935 0.0289831 0.00352427 0.0159811 0.00346183 0.0505252
118 3 O 4.96004 20.3134 0.196716 -1.2 1 0.00136589 0.00231477 0.00119613 0.00423972 0.00103204 0.00832819 0.00100239 0.0217789 0.00105517 0.0073985 0.00146124 0.0275512 0.00263049 0.016838 0.00373124 0.028641 0.00308139 0.0151602 0.00294557 0.0496602
119 1 Mg 6.55057 18.996 2.9896 1.2 1 0.00170708 0.00340369 0.0013965 0.00424385 0.00243011 0.00816161 0.00274641 0.0213716 0.00261476 0.00788192 0.00176063 0.0287763 0.00284192 0.0170989 0.0030273 0.0290094 0.00390818 0.0168077 0.00456952 0.0508376