ITEM: TIMESTEP
8000
ITEM: NUMBER OF ATOMS
10500
ITEM: BOX BOUNDS xy xz yz pp pp pp
0	15.2974	5.099
0	118.725	0
0	89.688	0
ITEM: ATOMS id type element xu yu zu q Q_1 Q_2 Q_3 Q_4 Q_5 Q_6 Q_7 Q_8 Q_9 Q_10 Q_11 Q_12 Q_13 Q_14 Q_15 Q_16 Q_17 Q_18 Q_19 Q_20 Q_21
1 1 Mg 6.2404 -6.37941e-06 0 1.2 1 0.0012574 0.00391797 0.00109893 0.00466286 0.00125864 0.00551729 0.00224506 0.0162087 0.00213842 0.00578847 0.00210736 0.021917 0.00239296 0.0135029 0.00331346 0.02068 0.00386206 0.0141526 0.00372672 0.0406744
2 1 Mg 3.46349 4.70768 1.4948 1.2 1 0.00111796 0.00339276 0.00145124 0.00422591 0.00183537 0.00598265 0.00349802 0.0186815 0.00272211 0.00711832 0.00302177 0.0256985 0.00313315 0.0138515 0.00438229 0.025369 0.00523706 0.0171515 0.00584004 0.0439501
3 2 Si 5.2885 2.02354 1.4948 2.4 1 0.000846241 0.00303042 0.00196592 0.00445517 0.00167949 0.00564395 0.00246903 0.0170169 0.0023085 0.00632532 0.00223794 0.0233823 0.00272298 0.0136288 0.00362968 0.0216126 0.00379624 0.0155219 0.00434174 0.0414667
4 3 O 5.33628 3.63678 1.4948 -1.2 1 0.000694507 0.00260763 0.00154269 0.00458349 0.00200745 0.00616547 0.00301011 0.0177456 0.00220091 0.00687701 0.00198566 0.0252198 0.0025479 0.0138346 0.00423716 0.0241407 0.00494846 0.0165004 0.00577309 0.0429601
5 3 O 1.67294 1.04952 1.4948 -1.2 1 0.00178366 0.00336798 0.00209462 0.00409467 0.00125552 0.00573514 0.0024307 0.0169179 0.00228832 0.00616057 0.00220574 0.0228362 0.00264416 0.0127635 0.0032903 0.0218963 0.00452705 0.0157273 0.00493561 0.040458
6 3 O 4.59532 1.31737 0.196716 -1.2 1 0.00107064 0.00271021 0.00187633 0.00434584 0.00186797 0.00560926 0.00236252 0.0171228 0.00259424 0.00632632 0.00192317 0.0224376 0.00316077 0.0129328 0.00409587 0.0215593 0.00396273 0.0149109 0.00446521 0.0410184
7 1 Mg 6.18956 -6.37941e-06 2.9896 1.2 1 0.00101569 0.00436633 0.00155935 0.004192 0.000984744 0.00551864 0.00244288 0.0159499 0.00280749 0.00566408 0.00170253 0.0223017 0.00271823 0.0133503 0.00340913 0.0204562 0.00463446 0.0149418 0.0050815 0.0392347
8 3 O 4.55118 1.31737 2.79288 -1.2 1 0.0012998 0.00411623 0.00163056 0.00407753 0.00162749 0.00558077 0.00250749 0.0169654 0.00235217 0.00696354 0.00228622 0.0218703 0.0032015 0.0122692 0.00349578 0.0215804 0.00475265 0.0157261 0.00541003 0.0403787
9 1 Mg -1.20682 0.0413099 4.4844 1.2 1 0.000424144 0.00271343 0.00188966 0.00469394 0.00129316 0.00550556 0.0019392 0.0160923 0.00208993 0.00602124 0.00202232 0.0228435 0.00285315 0.0116251 0.00345627 0.0207229 0.00528162 0.016026 0.00526692 0.0393706
10 2 Si -3.0337 2.72544 4.4844 2.4 1 0.000234476 0.0029963 0.00186233 0.00482126 0.00223024 0.00601287 0.00339879 0.016807 0.00311384 0.00629549 0.00214418 0.0243324 0.00321608 0.0129971 0.00408319 0.0227142 0.00542317 0.0180843 0.00644227 0.0407004
11 3 O -3.08099 1.11221 4.4844 -1.2 1 0.000553294 0.00332425 0.00171769 0.0042927 0.00116195 0.00519587 0.00229681 0.0159689 0.00287492 0.00571733 0.00193962 0.0224315 0.00301659 0.0112706 0.00347074 0.0212833 0.00517467 0.016503 0.00560571 0.0389857
12 3 O 0.582463 3.69946 4.4844 -1.2 1 0.00191308 0.00441651 0.00206414 0.00426301 0.00236662 0.00662572 0.00351999 0.0172463 0.00330439 0.00674122 0.00318075 0.024989 0.00428793 0.0128552 0.00456676 0.0246118 0.00680295 0.0191103 0.00842858 0.0424248
13 3 O -2.29524 3.43162 3.18632 -1.2 1 0.000767227 0.00274574 0.00273852 0.00458697 0.00203818 0.00588027 0.00295271 0.0179263 0.00315111 0.00690831 0.0024408 0.0247862 0.0034538 0.0130056 0.00484397 0.0244052 0.00580241 0.0181452 0.00667034 0.0427581
14 3 O -2.34216 3.43162 5.78248 -1.2 1 0.00110443 0.00358749 0.00137744 0.00474194 0.00260985 0.00603875 0.00321851 0.0169666 0.00287621 0.00725383 0.00250398 0.0240357 0.00455059 0.0126618 0.00416235 0.0237331 0.00632625 0.0197958 0.00776358 0.0417604
15 1 Mg 1.12778 2.37449 2.9896 1.2 1 0.00137061 0.00366666 0.00222441 0.00428859 0.00208469 0.0057987 0.00306094 0.0168012 0.00249751 0.00635496 0.00239418 0.0237537 0.00320716 0.0129296 0.00342869 0.0222891 0.00480748 0.0167567 0.00575133 0.0412468
16 1 Mg 3.92855 2.33318 4.4844 1.2 1 0.00113756 0.00393483 0.0014647 0.00411979 0.0017081 0.0055222 0.00354252 0.0167215 0.0030905 0.00615495 0.00283699 0.0232393 0.0036486 0.013457 0.00536031 0.0220982 0.00622067 0.0174098 0.0070988 0.0408845
17 2 Si 2.09341 4.39804 4.4844 2.4 1 0.00143695 0.00411936 0.00183657 0.004027 0.00291181 0.0058344 0.00369473 0.0182551 0.00342799 0.00683169 0.00348764 0.0250968 0.0044153 0.0140432 0.00460405 0.0250477 0.0066632 0.0189292 0.00843056 0.0441416
18 3 O 2.09991 6.01128 4.4844 -1.2 1 0.00209508 0.00462053 0.00151038 0.00388199 0.00294915 0.00641733 0.00322599 0.0193298 0.00273898 0.00740134 0.00312346 0.0268214 0.00429919 0.0144847 0.00482123 0.0279016 0.00688654 0.0199112 0.00811938 0.0462289
19 3 O -4.52137 3.42402 4.4844 -1.2 1 0.000731921 0.00333212 0.00212419 0.00454931 0.00232792 0.00684687 0.00347129 0.0169099 0.00320098 0.00627552 0.00287218 0.0242948 0.00382593 0.0129641 0.0042688 0.0230844 0.00611994 0.0180092 0.00747876 0.0419895
20 3 O 2.80834 3.69187 3.18632 -1.2 1 0.00127618 0.00373787 0.00159356 0.0036563 0.00181401 0.00563473 0.00306838 0.0174061 0.00277053 0.0065583 0.00302621 0.0243516 0.00362455 0.0131249 0.00485381 0.0242469 0.00548308 0.0173668 0.00653539 0.0429665
21 1 Mg 1.17857 2.37449 0 1.2 1 0.00228786 0.00353862 0.00223406 0.00414915 0.00142724 0.00549172 0.00247695 0.0171984 0.00238842 0.00678401 0.00290488 0.0232398 0.00284277 0.0132846 0.00363738 0.0216957 0.00434582 0.0149723 0.00469692 0.0409494
22 3 O 2.76143 3.69187 5.78248 -1.2 1 0.00186118 0.00420763 0.00181472 0.00412605 0.00241994 0.00535041 0.00295461 0.0174478 0.00326283 0.00726926 0.00279773 0.0235495 0.00481661 0.0130669 0.00575206 0.0234413 0.00645853 0.0191103 0.00751559 0.0423757
23 1 Mg -1.67381 2.41581 1.4948 1.2 1 0.00122517 0.00241997 0.00256729 0.00475175 0.00132581 0.00599867 0.00239438 0.0166887 0.00265734 0.00648428 0.00195042 0.0241704 0.00255167 0.0141509 0.00279051 0.022353 0.00430474 0.016116 0.00495277 0.0417672
24 2 Si 0.16286 0.350945 1.4948 2.4 1 0.00182996 0.00258194 0.00265612 0.00437449 0.00110907 0.00630347 0.00273165 0.0165246 0.00211463 0.00535352 0.00192295 0.0229494 0.00235409 0.0134233 0.00301478 0.0208366 0.00451596 0.0148072 0.00431843 0.0405988
25 3 O 0.15972 -1.26229 1.4948 -1.2 1 0.00160345 0.00255226 0.0027828 0.00447558 0.00170563 0.0059685 0.00249329 0.0164496 0.00221479 0.00559036 0.00236364 0.0227286 0.00256767 0.0137347 0.00290538 0.0216017 0.00430967 0.0145979 0.0039007 0.0408012
26 3 O 6.77654 1.32496 1.4948 -1.2 1 0.00128255 0.00346877 0.00159407 0.00444812 0.00117991 0.00594602 0.00238421 0.0167396 0.00240108 0.00556714 0.00175282 0.0237345 0.00277181 0.0136056 0.00351749 0.0218679 0.00450568 0.0152768 0.00443565 0.0410343
27 3 O -0.508028 1.05712 0.196716 -1.2 1 0.00159739 0.00260527 0.00322899 0.00421512 0.00128126 0.00564224 0.00252632 0.0170553 0.00183522 0.00674814 0.00257409 0.0221325 0.00273497 0.0128609 0.00320242 0.0212436 0.00420777 0.0151756 0.00440528 0.0402885
28 3 O -0.552171 1.05712 2.79288 -1.2 1 0.000966342 0.00222908 0.00276926 0.0042689 0.00129339 0.00589137 0.00250202 0.0162084 0.00241135 0.00651398 0.00156325 0.0229181 0.00291098 0.0115824 0.00334428 0.0218372 0.00526819 0.0159899 0.00514778 0.040038
29 1 Mg 6.31713 4.74899 0 1.2 1 0.000867942 0.00246387 0.00166133 0.00462888 0.00220603 0.00609336 0.00348237 0.0180131 0.00286222 0.00724792 0.00233065 0.0254245 0.00295661 0.013906 0.004283 0.0247949 0.00471612 0.0164431 0.00590654 0.0427943
30 1 Mg 3.54847 9.45668 1.4948 1.2 1 0.0016073 0.00340851 0.00173382 0.00459785 0.00211981 0.0077034 0.00319035 0.021351 0.00167197 0.00850115 0.00231004 0.0283345 0.00304833 0.0156335 0.003721 0.0292899 0.00429009 0.018021 0.0039788 0.048813
31 2 Si 5.36879 6.77254 1.4948 2.4 1 0.000597049 0.00301307 0.00187135 0.00504956 0.00261808 0.00698041 0.00379477 0.0196509 0.00272388 0.00791946 0.00254602 0.0276407 0.00314266 0.0154199 0.00420499 0.0270217 0.00464094 0.0173537 0.00516981 0.0466361
32 3 O 5.41937 8.38578 1.4948 -1.2 1 0.00134552 0.00328962 0.00159993 0.00493993 0.00224887 0.00784022 0.003245 0.0209026 0.00225667 0.00838219 0.00248887 0.0289195 0.0021813 0.015669 0.00304077 0.0292719 0.00468129 0.0174153 0.00482092 0.0481715
33 3 O 1.75158 5.79852 1.4948 -1.2 1 0.00106504 0.00359249 0.00172649 0.00394396 0.00239241 0.00596684 0.00330836 0.0195208 0.00270035 0.00742444 0.00277426 0.0278235 0.00289663 0.0155508 0.00346724 0.027103 0.00522924 0.0176879 0.00543847 0.0458021
34 3 O 4.67421 6.06637 0.196716 -1.2 1 0.000703757 0.00292492 0.00144614 0.00467914 0.00195029 0.00683548 0.00302336 0.0198483 0.00240268 0.00831064 0.00229334 0.0262485 0.00333684 0.0144574 0.00414302 0.0267784 0.00458101 0.0167726 0.00555573 0.0452672
35 1 Mg 6.26654 4.74899 2.9896 1.2 1 0.00124671 0.00294313 0.00218345 0.00499159 0.00248685 0.00648889 0.00384741 0.0180376 0.00363186 0.0071509 0.00216498 0.026037 0.00381974 0.0145506 0.0050455 0.0250312 0.00583922 0.0177643 0.00719641 0.0439716
36 3 O 4.63043 6.06637 2.79288 -1.2 1 0.00170181 0.0033054 0.00162918 0.00482849 0.00224461 0.0067821 0.00344676 0.0195441 0.0030859 0.00792047 0.00256208 0.0263508 0.0038854 0.0147346 0.00444825 0.0275497 0.00579331 0.0182755 0.00713503 0.045771
37 1 Mg -1.12976 4.79031 4.4844 1.2 1 0.00183306 0.00395324 0.00187958 0.00473123 0.00238757 0.00600723 0.0033069 0.0179463 0.00350196 0.00720813 0.00311332 0.0260849 0.00434723 0.0143558 0.0046356 0.0259229 0.00734151 0.0193573 0.00816674 0.0447659
38 2 Si -2.9517 7.47444 4.4844 2.4 1 0.00221454 0.004242 0.00151112 0.00514232 0.00298471 0.00647971 0.0037883 0.0202547 0.00319235 0.00781757 0.00319651 0.0277095 0.00480506 0.0159719 0.00549819 0.0281558 0.00681492 0.0193485 0.00834342 0.0481406
39 3 O -3.00198 5.86121 4.4844 -1.2 1 0.00182013 0.004145 0.00142502 0.00497237 0.00318034 0.00634891 0.00401859 0.0189289 0.0034787 0.00763759 0.00268557 0.0261166 0.00438782 0.0140903 0.00477931 0.0272262 0.00687297 0.0198678 0.00854495 0.0462585
40 3 O 0.666315 8.44846 4.4844 -1.2 1 0.00273838 0.00516184 0.0015156 0.00496511 0.00297847 0.00737846 0.00295374 0.0210998 0.00313182 0.00811068 0.00353747 0.0283687 0.00467202 0.0157479 0.00458678 0.0295549 0.00634185 0.0198566 0.00769388 0.0490329
41 3 O -2.21213 8.18062 3.18632 -1.2 1 0.00233096 0.00431521 0.0016193 0.00456304 0.00260604 0.00644772 0.00301586 0.0207594 0.00290655 0.00817495 0.0028782 0.0276736 0.00424945 0.0157112 0.00505557 0.0290783 0.00585779 0.0188488 0.00672531 0.0488958
42 3 O -2.25864 8.18062 5.78248 -1.2 1 0.00307632 0.00478075 0.00168069 0.00493657 0.00316098 0.0061305 0.00291897 0.0204723 0.00248649 0.00854279 0.00353128 0.0270031 0.00481191 0.0161886 0.0052943 0.0291398 0.00711 0.0206768 0.0080617 0.0497781
43 1 Mg 1.20893 7.12349 2.9896 1.2 1 0.00161534 0.00405523 0.00179746 0.00433839 0.00275946 0.00668144 0.00367661 0.0196426 0.00280411 0.00821308 0.00280374 0.0279795 0.00358614 0.0157126 0.00385631 0.0278013 0.00551775 0.0184336 0.00634664 0.0472488
44 1 Mg 4.00982 7.08218 4.4844 1.2 1 0.00213475 0.00408746 0.00159707 0.00482346 0.00262544 0.00644714 0.0038544 0.0200966 0.00343446 0.00790539 0.00323648 0.0273713 0.00441977 0.0161827 0.00601017 0.0284618 0.00718042 0.0195855 0.00816554 0.0477059
45 2 Si 2.17861 9.14704 4.4844 2.4 1 0.00276652 0.00453161 0.0016853 0.00496242 0.00297709 0.00737521 0.00357781 0.0211961 0.00285245 0.00850253 0.00325606 0.0279689 0.00464045 0.0165777 0.00462993 0.0296923 0.00595338 0.0194971 0.00680533 0.0504561
46 3 O 2.18828 10.7603 4.4844 -1.2 1 0.00331742 0.004872 0.00193941 0.00464232 0.00269315 0.00719267 0.00303227 0.0209135 0.00249827 0.00823878 0.0023318 0.0285153 0.00423634 0.0157128 0.0043579 0.0306364 0.00603415 0.0197689 0.00668878 0.0510513
47 3 O -4.43805 8.17302 4.4844 -1.2 1 0.00210667 0.0047944 0.00170366 0.00516704 0.00254322 0.00755455 0.00317845 0.0207605 0.0032003 0.00819759 0.00316979 0.0283611 0.00478284 0.0158828 0.00497447 0.0295173 0.00680941 0.0196737 0.0086306 0.0488467
48 3 O 2.89193 8.44087 3.18632 -1.2 1 0.00250659 0.00396315 0.00168781 0.00439677 0.00240433 0.00677649 0.00330778 0.0204863 0.00281901 0.00872254 0.0030923 0.0274658 0.00391907 0.015807 0.00483266 0.0293538 0.00595378 0.0188234 0.00595266 0.0488385
49 1 Mg 1.25915 7.12349 0 1.2 1 0.000764156 0.00314352 0.00136532 0.00417871 0.00178732 0.00726506 0.00293787 0.020217 0.00281321 0.00831775 0.00254084 0.0274289 0.00330957 0.014453 0.00348059 0.0277072 0.00451106 0.0174538 0.00448304 0.0464508
50 3 O 2.84547 8.44087 5.78248 -1.2 1 0.00274897 0.00511494 0.00159569 0.00467025 0.00269133 0.0066736 0.00335913 0.020987 0.00316405 0.00885468 0.00352451 0.0268562 0.00570646 0.0161979 0.00562908 0.0299054 0.00615688 0.0213182 0.00775209 0.0501453
51 1 Mg -1.59284 7.16481 1.4948 1.2 1 0.00109853 0.00347447 0.00141523 0.00465929 0.00180309 0.00637717 0.0028801 0.019964 0.00282409 0.00791418 0.00180392 0.0277207 0.00331898 0.0156066 0.00372996 0.0274322 0.00464779 0.0178342 0.00558167 0.0469382
52 2 Si 0.240329 5.09994 1.4948 2.4 1 0.000886606 0.0037518 0.00207514 0.00404348 0.00179452 0.00670798 0.00316203 0.0188833 0.00301242 0.0075112 0.0024263 0.026034 0.00293274 0.0146005 0.00408075 0.0250781 0.00498954 0.0171842 0.00533539 0.0449377
53 3 O 0.234538 3.48671 1.4948 -1.2 1 0.00134529 0.00381407 0.00266209 0.00422364 0.00184986 0.00641904 0.00262811 0.0179063 0.00316954 0.00703485 0.00245009 0.0245809 0.00329921 0.0135474 0.00399398 0.0242637 0.00534627 0.016225 0.00553323 0.042707
54 3 O 6.85564 6.07396 1.4948 -1.2 1 0.000914525 0.00263139 0.00225554 0.00487899 0.00234927 0.00613913 0.00331841 0.0199015 0.00310824 0.00763057 0.00217441 0.0277919 0.00336963 0.0147962 0.00475292 0.0271073 0.005502 0.0178536 0.00625018 0.0456201
55 3 O -0.429565 5.80612 0.196716 -1.2 1 0.000801537 0.00341386 0.00225598 0.00409786 0.00197115 0.00706575 0.00265962 0.019466 0.00270319 0.00865151 0.00266667 0.0257032 0.00266839 0.0142523 0.00370003 0.0261768 0.00490824 0.0168863 0.00569393 0.0453563
56 3 O -0.473377 5.80612 2.79288 -1.2 1 0.00172994 0.00366798 0.00213331 0.0045183 0.00220695 0.00681438 0.0031621 0.019231 0.00316517 0.00806407 0.0031034 0.0260027 0.00385795 0.0144967 0.00446585 0.0266311 0.00634939 0.0186885 0.00676123 0.0462177
57 1 Mg 6.40169 9.49799 0 1.2 1 0.000557277 0.00395608 0.00137839 0.00469299 0.00151337 0.00829889 0.00212377 0.0210307 0.00150609 0.00875943 0.00180647 0.028651 0.00236555 0.0148493 0.0025689 0.0299613 0.00356781 0.0178919 0.00404253 0.0477825
58 1 Mg 3.64209 14.2057 1.4948 1.2 1 0.00235495 0.00335788 0.00156475 0.00449669 0.00174687 0.00878645 0.00188553 0.0216752 0.00159891 0.00866916 0.00209746 0.0280517 0.00229662 0.0160825 0.00277969 0.0295683 0.00352587 0.016782 0.00328297 0.0496457
59 2 Si 5.45748 11.5215 1.4948 2.4 1 0.00223713 0.00344352 0.00168124 0.00459757 0.00172875 0.00834625 0.0022104 0.0211096 0.00154201 0.00824102 0.00182943 0.0285987 0.00255062 0.0162523 0.00332073 0.0293485 0.00410537 0.0168147 0.00361295 0.0495397
60 3 O 5.51101 13.1348 1.4948 -1.2 1 0.00235597 0.00349391 0.00171104 0.00460004 0.00157623 0.00912351 0.00183698 0.0211797 0.00176269 0.0085211 0.00154581 0.0291112 0.00194195 0.0161833 0.00268812 0.0298474 0.00367296 0.0165172 0.0034622 0.0494669
61 3 O 1.83851 10.5475 1.4948 -1.2 1 0.00159525 0.00378772 0.00159246 0.0049088 0.00190367 0.00775951 0.00252248 0.021693 0.00174477 0.00841892 0.0022649 0.0292173 0.00242356 0.0158995 0.00325076 0.0299732 0.00419651 0.0177512 0.00335894 0.0495593
62 3 O 4.7611 10.8154 0.196716 -1.2 1 0.00106601 0.00312581 0.00164424 0.00463349 0.00151579 0.00858072 0.00223552 0.0212272 0.00140195 0.00847317 0.00199912 0.0280834 0.00286218 0.0155194 0.00351769 0.0296907 0.00364347 0.0170239 0.00351771 0.0487022
63 1 Mg 6.35203 9.49799 2.9896 1.2 1 0.00212737 0.00405093 0.00161803 0.00476344 0.00257339 0.00752567 0.00343954 0.0203565 0.00321816 0.00854325 0.00222367 0.029178 0.00380628 0.0162124 0.00355361 0.029345 0.00434994 0.0184257 0.00553069 0.0489166
64 3 O 4.71833 10.8154 2.79288 -1.2 1 0.00287196 0.00381936 0.00164517 0.00461182 0.00217958 0.00813857 0.00227978 0.0212769 0.00199275 0.00895687 0.00219415 0.0281119 0.00343207 0.0158177 0.00397505 0.0302663 0.00522344 0.0181533 0.00542687 0.0500341
65 1 Mg -1.0438 9.53931 4.4844 1.2 1 0.0033666 0.00494561 0.00166182 0.00463403 0.00298673 0.00671287 0.00273391 0.0208706 0.00287519 0.00844539 0.00292924 0.0282297 0.00409463 0.01671 0.00450733 0.0298387 0.00633258 0.0195822 0.00700573 0.0503008
66 2 Si -2.8604 12.2234 4.4844 2.4 1 0.00355578 0.00463324 0.00175529 0.0043202 0.00270493 0.0076096 0.00318046 0.0218113 0.00294486 0.00850757 0.00235499 0.0280077 0.00408041 0.0164763 0.00429546 0.0300057 0.00576124 0.0190997 0.00648464 0.0516543
67 3 O -2.91391 10.6102 4.4844 -1.2 1 0.00343474 0.00470095 0.00184651 0.0044522 0.00283303 0.00695 0.00339366 0.0205372 0.00281715 0.0078481 0.00234553 0.0283918 0.00435748 0.015819 0.00424508 0.0305725 0.005828 0.0193881 0.00677235 0.0504807
68 3 O 0.7596 13.1975 4.4844 -1.2 1 0.00335349 0.00452649 0.00183677 0.00489408 0.0028214 0.008588 0.00262446 0.0222303 0.00274871 0.0084196 0.00286131 0.0283435 0.0041887 0.0163694 0.00411149 0.0301193 0.00598685 0.0193019 0.00662134 0.0516176
69 3 O -2.12001 12.9296 3.18632 -1.2 1 0.00357631 0.00415563 0.00169916 0.00408905 0.00251134 0.00751873 0.00234427 0.0217416 0.00243923 0.00834053 0.00228651 0.0276797 0.0036001 0.016421 0.0043345 0.0303342 0.00509588 0.0181417 0.00549899 0.0510772
70 3 O -2.16532 12.9296 5.78248 -1.2 1 0.00385848 0.00490786 0.00180633 0.0046093 0.00278508 0.00687887 0.0026005 0.0218187 0.00266865 0.00830659 0.00310336 0.0273619 0.00418647 0.0167362 0.00516189 0.0310413 0.0063173 0.0208678 0.00680233 0.0532686
71 1 Mg 1.29891 11.8725 2.9896 1.2 1 0.0029205 0.00386336 0.00183939 0.00487141 0.00240415 0.00807225 0.00287441 0.0211526 0.00256043 0.00851482 0.00204111 0.028865 0.00332413 0.0163129 0.00341598 0.0299822 0.00459523 0.0177788 0.00480044 0.0498185
72 1 Mg 4.10033 11.8312 4.4844 1.2 1 0.00325921 0.00444717 0.00207118 0.00430167 0.00259808 0.00727566 0.00271215 0.021313 0.00242939 0.00831033 0.0028026 0.0287299 0.00385732 0.0171668 0.00503301 0.0302186 0.00649384 0.0190967 0.00639692 0.0512886
73 2 Si 2.27333 13.896 4.4844 2.4 1 0.00346092 0.00400502 0.00184356 0.0049247 0.00300368 0.00792577 0.00333242 0.0220066 0.00245766 0.00825808 0.00293967 0.0280216 0.00397363 0.0167265 0.0042786 0.0299655 0.00546711 0.0188033 0.00622509 0.0525992
74 3 O 2.28634 15.5093 4.4844 -1.2 1 0.00371963 0.00436999 0.0018806 0.00438249 0.00303581 0.00739691 0.0029248 0.0210699 0.00259605 0.0077704 0.00236902 0.0285178 0.0035383 0.0160439 0.00394225 0.0306363 0.00560658 0.0185304 0.00632856 0.0521243
75 3 O -4.34533 12.922 4.4844 -1.2 1 0.00320217 0.00463576 0.00185176 0.00453097 0.0027126 0.00841181 0.00292893 0.0217787 0.00272172 0.00836701 0.00261652 0.0285768 0.0040463 0.0162563 0.00474636 0.0304383 0.00655394 0.0193998 0.00717736 0.0516978
76 3 O 2.98455 13.1899 3.18632 -1.2 1 0.0032834 0.0038657 0.00185898 0.00442775 0.00259445 0.00798083 0.00236229 0.0217709 0.00207876 0.00864094 0.00234276 0.0278625 0.00354974 0.016108 0.00426091 0.0300599 0.00541434 0.0180466 0.00546882 0.0506316
77 1 Mg 1.34779 11.8725 0 1.2 1 0.00131917 0.00290756 0.0010671 0.00481488 0.00128085 0.00884781 0.00172253 0.0213052 0.00121555 0.00899122 0.00200947 0.0288299 0.00270581 0.0149007 0.00284911 0.0301237 0.00323498 0.0171035 0.00319363 0.0484451
78 3 O 2.93934 13.1899 5.78248 -1.2 1 0.00340535 0.00487445 0.00184386 0.004775 0.00286645 0.00711293 0.00269188 0.0221004 0.00253703 0.00842244 0.00316861 0.0273814 0.0044565 0.01668 0.00463171 0.0310616 0.00607788 0.0212484 0.0067153 0.053615
79 1 Mg -1.50344 11.9138 1.4948 1.2 1 0.00193964 0.00367187 0.00140441 0.00439549 0.00156975 0.00823979 0.00206281 0.0216962 0.00230637 0.00848839 0.00137639 0.0283685 0.00350857 0.0160924 0.00313005 0.029709 0.00335334 0.0174326 0.00362772 0.0493789
80 2 Si 0.326006 9.84894 1.4948 2.4 1 0.0012728 0.00353622 0.0012334 0.00499982 0.00193932 0.00817011 0.00226639 0.0210918 0.00209778 0.00836806 0.00167055 0.0285181 0.00278556 0.0156721 0.00359853 0.0289939 0.00379075 0.0176165 0.00339774 0.0489838
81 3 O 0.317364 8.23571 1.4948 -1.2 1 0.00142144 0.0038771 0.0010959 0.00462076 0.00193313 0.00769203 0.00231279 0.0203057 0.00252035 0.008016 0.00188821 0.0286159 0.00337525 0.0157945 0.00387416 0.0288445 0.00433488 0.0178219 0.00428028 0.0479622
82 3 O 6.94307 10.823 1.4948 -1.2 1 0.00209455 0.00389048 0.00155135 0.0044605 0.00193273 0.00777978 0.00268836 0.0217422 0.0023701 0.00835295 0.00152809 0.0292824 0.0029478 0.0159045 0.00328587 0.0300261 0.00373895 0.0178944 0.00407093 0.0494757
83 3 O -0.343122 10.5551 0.196716 -1.2 1 0.00111192 0.0034461 0.0011953 0.00473857 0.00145354 0.00847016 0.00208672 0.0213695 0.00173103 0.00875253 0.00182652 0.0279936 0.00326103 0.0154358 0.00398505 0.0294667 0.00342669 0.0172089 0.00335859 0.0488859
84 3 O -0.385966 10.5551 2.79288 -1.2 1 0.00323758 0.0041897 0.00131417 0.00461011 0.00245755 0.00803633 0.00231914 0.0214383 0.00206552 0.00901764 0.00249784 0.027541 0.00366151 0.0159457 0.00408214 0.0301116 0.00507189 0.0186667 0.00513617 0.0500872
85 1 Mg 6.49448 14.247 0 1.2 1 0.00116432 0.00330973 0.00161513 0.00463122 0.00110519 0.00918995 0.00133444 0.0212501 0.00117796 0.00845446 0.00124069 0.028564 0.00163117 0.015566 0.00224561 0.0300045 0.00301475 0.0163641 0.00280113 0.0485226
86 1 Mg 3.74457 18.9547 1.4948 1.2 1 0.00260241 0.00300972 0.00122066 0.00388221 0.00177555 0.00851079 0.00128303 0.0222174 0.00185053 0.00804666 0.00227315 0.0276138 0.00244818 0.016632 0.00341525 0.0288727 0.00355789 0.0162987 0.00330028 0.0500466
87 2 Si 5.55495 16.2705 1.4948 2.4 1 0.00264087 0.0030484 0.00139127 0.00444966 0.00183931 0.00890939 0.00144723 0.0215159 0.00124587 0.00787603 0.00123447 0.028473 0.002161 0.0164106 0.00269555 0.0288066 0.00354581 0.0158658 0.00356872 0.0498636
88 3 O 5.6115 17.8838 1.4948 -1.2 1 0.00255329 0.00300292 0.00147604 0.00415805 0.00172664 0.00914824 0.00154887 0.0216923 0.00175299 0.00786269 0.00132558 0.0286428 0.0019821 0.0165665 0.0026796 0.0289813 0.00321442 0.0156766 0.00344822 0.0497297
89 3 O 1.93416 15.2965 1.4948 -1.2 1 0.0023238 0.00325011 0.00149221 0.00455905 0.00190898 0.00842845 0.0020274 0.0218621 0.00181324 0.00800275 0.00135064 0.0289755 0.00184626 0.0162755 0.00279135 0.0296758 0.0035904 0.0164415 0.00332094 0.0500388
90 3 O 4.85636 15.5644 0.196716 -1.2 1 0.00189523 0.00266211 0.00136309 0.00463564 0.00128878 0.00904533 0.00144267 0.0213976 0.00106675 0.00811605 0.00147484 0.0279883 0.00252217 0.0162613 0.00326701 0.0293179 0.00307195 0.0155466 0.00280331 0.0492856
91 1 Mg 6.44662 14.247 2.9896 1.2 1 0.00240229 0.00389016 0.00150178 0.00434543 0.00255906 0.00840142 0.00289216 0.0209031 0.00269191 0.00864878 0.00185905 0.029089 0.00306216 0.0164468 0.00293968 0.029533 0.0039291 0.0172725 0.00466816 0.0500689
92 3 O 4.81537 15.5644 2.79288 -1.2 1 0.00318992 0.00342743 0.00142207 0.00428184 0.00227616 0.00872662 0.00173274 0.0219402 0.0015806 0.00854982 0.00168071 0.027737 0.00272775 0.0164708 0.00325089 0.0296415 0.0045931 0.017272 0.00494392 0.0506741
93 1 Mg -0.948271 14.2883 4.4844 1.2 1 0.00369893 0.00414938 0.00170533 0.00435036 0.00276491 0.00789343 0.00264761 0.0216305 0.0027286 0.00836518 0.00271592 0.0281599 0.00336087 0.0169816 0.00492222 0.0302262 0.00593274 0.0186446 0.00651921 0.0520756
94 2 Si -2.75928 16.9724 4.4844 2.4 1 0.00339191 0.00377898 0.00181086 0.00434497 0.00279303 0.0078988 0.00280783 0.0220806 0.00249141 0.00777088 0.00234584 0.027718 0.00359776 0.0171361 0.00437105 0.029656 0.00510282 0.0182882 0.00590758 0.0530289
95 3 O -2.81617 15.3592 4.4844 -1.2 1 0.00375595 0.0042363 0.00189231 0.00420802 0.00298415 0.00755801 0.00287003 0.0211231 0.00252379 0.00765426 0.00207637 0.0282857 0.00386881 0.0161066 0.00407907 0.0303993 0.00587727 0.0183889 0.00642705 0.0518765
96 3 O 0.862762 17.9465 4.4844 -1.2 1 0.00317584 0.00416218 0.00158339 0.00432605 0.0030158 0.00852491 0.00249535 0.0223171 0.00248063 0.00780612 0.00265944 0.0283286 0.00372583 0.0169226 0.00421795 0.0293892 0.00563717 0.0186922 0.00611723 0.0525535
97 3 O -2.0185 17.6786 3.18632 -1.2 1 0.00334257 0.00336016 0.00184212 0.00374307 0.00258561 0.00761661 0.00224043 0.0222294 0.00230496 0.00782613 0.00206967 0.0274757 0.00332871 0.0164546 0.0044353 0.0298066 0.00475915 0.017453 0.00506113 0.0515796
98 3 O -2.06164 17.6786 5.78248 -1.2 1 0.00355224 0.00421227 0.00165163 0.00431995 0.0029476 0.00696427 0.00249263 0.0224491 0.00242659 0.00775626 0.00267311 0.0274174 0.00354965 0.0173155 0.00491175 0.0307583 0.00575135 0.0204159 0.00616821 0.0543243
99 1 Mg 1.39817 16.6215 2.9896 1.2 1 0.00314943 0.00330804 0.00157424 0.0044597 0.00253153 0.00849416 0.00265516 0.0212441 0.00254312 0.00798155 0.00179837 0.0286662 0.00269055 0.0166911 0.00312037 0.0294943 0.00398823 0.0166082 0.0043555 0.0505063
100 1 Mg 4.20062 16.5802 4.4844 1.2 1 0.00353377 0.0037054 0.00186377 0.00415957 0.00285235 0.00770655 0.00237388 0.0216911 0.0030202 0.00779808 0.00287992 0.0282369 0.00331756 0.0173968 0.00550396 0.0298733 0.00633076 0.0182901 0.00603182 0.0522893
101 2 Si 2.37796 18.645 4.4844 2.4 1 0.00309925 0.00363818 0.00156693 0.00427973 0.00300158 0.00801836 0.00273711 0.0222619 0.00275238 0.00791829 0.00269516 0.0278916 0.00374642 0.0171929 0.00437637 0.0293038 0.00522721 0.0182506 0.00578823 0.0532878
102 3 O 2.39434 20.2583 4.4844 -1.2 1 0.00297355 0.00388843 0.00158908 0.0042791 0.00314582 0.00705523 0.00268202 0.0213459 0.00283676 0.00729851 0.00199942 0.0285278 0.00349927 0.0168939 0.00418624 0.0298979 0.00572863 0.018269 0.00664204 0.0530036
103 3 O -4.24274 17.671 4.4844 -1.2 1 0.00295021 0.00406316 0.00188928 0.00426167 0.00299853 0.00847535 0.00270313 0.0224252 0.00287839 0.0079012 0.00230535 0.0282947 0.00355917 0.0166699 0.00469023 0.0296539 0.0057631 0.0187263 0.00646138 0.052562
104 3 O 3.08659 17.9389 3.18632 -1.2 1 0.00337976 0.00320107 0.00156443 0.00387804 0.0027017 0.00792785 0.00197944 0.022073 0.00243507 0.00802142 0.00231258 0.027495 0.00322002 0.0164698 0.0042266 0.0295496 0.00531788 0.017467 0.00556729 0.051618
105 1 Mg 1.44478 16.6215 0 1.2 1 0.00226384 0.00258396 0.00116167 0.00420608 0.0013045 0.00892292 0.00116139 0.021648 0.00135919 0.00809803 0.0016009 0.0283064 0.00210601 0.015782 0.00221775 0.0294334 0.00284331 0.0159621 0.00302873 0.0490284
106 3 O 3.0436 17.9389 5.78248 -1.2 1 0.00312639 0.00436816 0.00187653 0.00459802 0.00291882 0.00712207 0.0022925 0.0222699 0.00236152 0.00805737 0.00308349 0.0274806 0.0040698 0.0170145 0.00517768 0.0306676 0.00600176 0.0204013 0.00629045 0.0547543
107 1 Mg -1.40524 16.6628 1.4948 1.2 1 0.00198986 0.00319045 0.00137443 0.00426544 0.0017784 0.00865539 0.00190461 0.0222068 0.00183765 0.00816135 0.00166386 0.0281069 0.00293624 0.0168009 0.0026917 0.0293232 0.00267215 0.0165484 0.00305948 0.0497877
108 2 Si 0.420358 14.5979 1.4948 2.4 1 0.00234763 0.00303676 0.00141198 0.00490796 0.00187077 0.00909925 0.00196603 0.0214012 0.00155642 0.00818908 0.00112571 0.028277 0.00258385 0.016466 0.00331174 0.0288008 0.00327532 0.0163092 0.00338854 0.0495235
109 3 O 0.408732 12.9847 1.4948 -1.2 1 0.00226128 0.00309666 0.00124335 0.00481072 0.00192924 0.0090377 0.00166139 0.0211678 0.00207492 0.008415 0.0013519 0.0289499 0.00293011 0.0160526 0.00287765 0.0298106 0.00312431 0.0167099 0.00360365 0.0494454
110 3 O 7.03923 15.572 1.4948 -1.2 1 0.00213408 0.00322044 0.00145798 0.00429991 0.00193912 0.00827439 0.00217667 0.0217528 0.00214869 0.00803411 0.00150173 0.0289805 0.00250707 0.0164306 0.00267419 0.0296829 0.00323622 0.0166143 0.00376303 0.0499129
111 3 O -0.248332 15.3041 0.196716 -1.2 1 0.00201324 0.00261754 0.00119164 0.00448191 0.00116688 0.00903539 0.00195204 0.0213719 0.00119461 0.00830876 0.00158779 0.0279263 0.00255576 0.0160635 0.00355369 0.0292624 0.00283404 0.0159705 0.00308431 0.0490998
112 3 O -0.289436 15.3041 2.79288 -1.2 1 0.00358815 0.00362618 0.00140414 0.00423217 0.00245384 0.00873661 0.00208248 0.0220398 0.00179906 0.00866849 0.00177571 0.0272771 0.00287916 0.0166575 0.00353087 0.0295286 0.00441162 0.0175535 0.00479457 0.0508392
113 1 Mg 6.59566 18.996 0 1.2 1 0.00141428 0.00282945 0.00149678 0.00414039 0.000918207 0.0086241 0.00106362 0.0220657 0.00118837 0.00780016 0.00126537 0.0281209 0.00188142 0.0164619 0.00224949 0.0287482 0.00279832 0.0157212 0.00288261 0.0489088
114 1 Mg 3.85574 23.7037 1.4948 1.2 1 0.00186848 0.00260229 0.00126079 0.00396533 0.00174052 0.00734505 0.0012257 0.0230442 0.00168351 0.00752791 0.00218606 0.0271637 0.00244367 0.0174221 0.00355358 0.02872 0.00343436 0.0169804 0.00357307 0.0507384
115 2 Si 5.66125 21.0195 1.4948 2.4 1 0.0023156 0.00254588 0.00110138 0.00395257 0.00194473 0.00821227 0.00141881 0.0218211 0.00128871 0.00746372 0.00132648 0.0280315 0.00235315 0.0173301 0.00273665 0.0282328 0.00355277 0.015698 0.00404338 0.0503339
116 3 O 5.72074 22.6328 1.4948 -1.2 1 0.00212038 0.00256997 0.00142928 0.00388064 0.00180788 0.00815413 0.00154844 0.0223026 0.00177722 0.00722539 0.00140218 0.0279118 0.00207884 0.0173158 0.00294344 0.0284592 0.00334986 0.0161673 0.003824 0.0503369
117 3 O 2.03867 20.0455 1.4948 -1.2 1 0.00217846 0.00298498 0.00131964 0.00410615 0.0018678 0.00779889 0.00200973 0.0222494 0.00225041 0.00745804 0.00141889 0.0285101 0.0020255 0.0172944 0.00243696 0.0289101 0.00345995 0.0159416 0.00363362 0.050541
118 3 O 4.96004 20.3134 0.196716 -1.2 1 0.00202014 0.0021374 0.00138928 0.00387928 0.00120256 0.00829308 0.00105248 0.0217986 0.00101495 0.00753717 0.00149003 0.0275443 0.00263982 0.0167066 0.0037272 0.0287171 0.00292222 0.0151073 0.00293038 0.0496482
119 1 Mg 6.55057 18.996 2.9896 1.2 1 0.00232547 0.00353276 0.0014265 0.00410819 0.00258202 0.00816599 0.0027243 0.0213137 0.00241482 0.00789695 0.00180076 0.0290307 0.00292687 0.0170338 0.00298577 0.028809 0.00383585 0.0169381 0.00468587 0.0508028