ITEM: TIMESTEP
14000
ITEM: NUMBER OF ATOMS
10500
ITEM: BOX BOUNDS xy xz yz pp pp pp
0	15.2977	5.09925
0	118.725	0
0	89.688	0
ITEM: ATOMS id type element xu yu zu q Q_1 Q_2 Q_3 Q_4 Q_5 Q_6 Q_7 Q_8 Q_9 Q_10 Q_11 Q_12 Q_13 Q_14 Q_15 Q_16 Q_17 Q_18 Q_19 Q_20 Q_21
1 1 Mg 6.2404 -6.37941e-06 0 1.2 1 0.00112132 0.00430948 0.00109947 0.00488179 0.00118331 0.00565675 0.00190956 0.0162175 0.00207722 0.00578808 0.00224127 0.0218793 0.00246524 0.0134874 0.00339528 0.020742 0.0040907 0.0142854 0.00403851 0.0406463
2 1 Mg 3.46349 4.70768 1.4948 1.2 1 0.00149674 0.00326413 0.00183411 0.00447594 0.00204273 0.00607742 0.00349994 0.0188372 0.00294514 0.00694501 0.00293446 0.0259471 0.00335027 0.0140048 0.00440171 0.0252088 0.00527048 0.0168996 0.00575814 0.0442444
3 2 Si 5.2885 2.02354 1.4948 2.4 1 0.00066885 0.00337992 0.00202686 0.00462696 0.00187042 0.00581009 0.00240593 0.0170295 0.00239083 0.00616453 0.00196284 0.0231346 0.00276934 0.0134518 0.00347625 0.0214887 0.00385321 0.0153833 0.00442668 0.0411432
4 3 O 5.33628 3.63678 1.4948 -1.2 1 0.000893933 0.00287114 0.0017218 0.00476879 0.00203527 0.00633722 0.00289228 0.0178598 0.00227456 0.00670095 0.00190756 0.0252786 0.00260686 0.0135898 0.00420109 0.0240067 0.00512637 0.0164188 0.00586017 0.0429749
5 3 O 1.67294 1.04952 1.4948 -1.2 1 0.0016718 0.0032637 0.00208923 0.00422287 0.00120891 0.00577286 0.00245512 0.0170424 0.00232032 0.00612034 0.00207421 0.0228259 0.00259707 0.0127233 0.00331902 0.0220088 0.00465027 0.0157277 0.00485947 0.0403511
6 3 O 4.59532 1.31737 0.196716 -1.2 1 0.00120158 0.00303882 0.00184199 0.00438928 0.00185911 0.00573045 0.00226176 0.017206 0.00266978 0.00624336 0.00198587 0.0224551 0.00330056 0.0127934 0.00420491 0.0216031 0.00421699 0.0149679 0.00457477 0.0410557
7 1 Mg 6.18956 -6.37941e-06 2.9896 1.2 1 0.00100638 0.00457974 0.00140341 0.00444793 0.00120138 0.0057395 0.00239865 0.0162061 0.00263041 0.00555837 0.00184551 0.0223477 0.00272755 0.0133148 0.00351341 0.0207085 0.00456306 0.014782 0.00508502 0.0389883
8 3 O 4.55118 1.31737 2.79288 -1.2 1 0.00146361 0.00437808 0.00183463 0.00437885 0.00174277 0.00558331 0.00260719 0.017029 0.00234727 0.00693272 0.00225092 0.0217303 0.00348124 0.0121407 0.00346751 0.0215763 0.00486562 0.015588 0.00548504 0.0399683
9 1 Mg -1.20682 0.0413099 4.4844 1.2 1 0.000294599 0.00300177 0.00163412 0.00454611 0.00135259 0.00554812 0.00193584 0.0162566 0.00216626 0.00574252 0.00229851 0.0227597 0.00304868 0.0116383 0.00368371 0.0208704 0.00529267 0.0158203 0.00539178 0.0386403
10 2 Si -3.0337 2.72544 4.4844 2.4 1 0.000757594 0.00319446 0.001812 0.00496874 0.00221026 0.00618947 0.00322363 0.0169344 0.0031599 0.00623799 0.00240537 0.0241086 0.0033717 0.0126933 0.00419171 0.0225421 0.00543266 0.0177779 0.00642601 0.0401706
11 3 O -3.08099 1.11221 4.4844 -1.2 1 0.0006492 0.00376312 0.00186035 0.0043743 0.00128664 0.00534911 0.00236393 0.0162795 0.00275324 0.00557052 0.00212314 0.0224464 0.00326313 0.0112289 0.00360645 0.0214214 0.005107 0.0162717 0.00582745 0.0387435
12 3 O 0.582463 3.69946 4.4844 -1.2 1 0.00172842 0.00464023 0.00212866 0.00439817 0.00252773 0.00666395 0.00359013 0.0174921 0.00328353 0.00657176 0.00318804 0.0249436 0.0042648 0.0128515 0.00458208 0.0245124 0.00674531 0.0187589 0.00859078 0.0424401
13 3 O -2.29524 3.43162 3.18632 -1.2 1 0.000929748 0.002843 0.00252721 0.00451348 0.00227055 0.00593257 0.00282973 0.0179142 0.00309147 0.00665563 0.002684 0.0246829 0.00337217 0.0128323 0.00486973 0.0243805 0.00596493 0.0178717 0.00679288 0.0423116
14 3 O -2.34216 3.43162 5.78248 -1.2 1 0.00160831 0.0038292 0.00144104 0.00510076 0.0025731 0.00595931 0.00325784 0.017444 0.00278481 0.00723099 0.00270324 0.0237698 0.00462731 0.0123827 0.00434372 0.0236766 0.00657005 0.0196104 0.00792489 0.0413263
15 1 Mg 1.12778 2.37449 2.9896 1.2 1 0.0015967 0.00355197 0.00238592 0.00436724 0.00210786 0.00586099 0.00318859 0.0168865 0.00270084 0.00620536 0.002363 0.023668 0.00332984 0.0128801 0.00344051 0.0220752 0.00490279 0.0165924 0.00567241 0.0411738
16 1 Mg 3.92855 2.33318 4.4844 1.2 1 0.00154235 0.0042721 0.00166112 0.00427282 0.00175441 0.00584656 0.00354367 0.0169772 0.00314516 0.00624056 0.00290149 0.0231188 0.00383043 0.0132115 0.00528873 0.022211 0.00639354 0.0173729 0.00735305 0.040725
17 2 Si 2.09341 4.39804 4.4844 2.4 1 0.00160288 0.00437089 0.00196598 0.0042821 0.00289645 0.00604286 0.00378605 0.0184023 0.00349721 0.0067637 0.00324176 0.0251422 0.00457856 0.0140577 0.00476311 0.0248761 0.00669672 0.0186643 0.00874973 0.0442688
18 3 O 2.09991 6.01128 4.4844 -1.2 1 0.00232366 0.00447097 0.00168506 0.00418767 0.00300408 0.00656636 0.00325058 0.0193586 0.00279869 0.00736438 0.0031066 0.026886 0.00422464 0.0144639 0.00505699 0.0275981 0.00686837 0.0194802 0.00823001 0.0462836
19 3 O -4.52137 3.42402 4.4844 -1.2 1 0.00128193 0.00374323 0.00219343 0.0047397 0.0022668 0.00710029 0.0034659 0.0172904 0.00328124 0.00644089 0.00296975 0.0238955 0.00413083 0.0127387 0.00440928 0.0231358 0.00629417 0.0179389 0.00785868 0.0418295
20 3 O 2.80834 3.69187 3.18632 -1.2 1 0.00161432 0.00373793 0.0017236 0.00382998 0.00195813 0.00577875 0.00311654 0.0176377 0.00289075 0.00645414 0.00283789 0.0244603 0.00374683 0.0131323 0.00491618 0.024034 0.00569591 0.0171316 0.0066925 0.0430777
21 1 Mg 1.17857 2.37449 0 1.2 1 0.00189604 0.00337186 0.00206514 0.00412413 0.0013422 0.00548847 0.00238242 0.0172939 0.0023849 0.00670219 0.00273117 0.0232917 0.00281254 0.0131856 0.00344403 0.0217742 0.0043603 0.0149402 0.00468529 0.0409877
22 3 O 2.76143 3.69187 5.78248 -1.2 1 0.00189489 0.0044722 0.00169398 0.00441304 0.00220426 0.00544911 0.00277348 0.0179515 0.0032221 0.00726018 0.00296633 0.0234526 0.00478315 0.0129641 0.00593331 0.0234617 0.00652838 0.0188508 0.00789392 0.0420839
23 1 Mg -1.67381 2.41581 1.4948 1.2 1 0.00112686 0.00260029 0.00253745 0.00477752 0.00136745 0.00593918 0.00229867 0.0167572 0.00277574 0.00630754 0.00193421 0.0242466 0.00249011 0.0140522 0.00274519 0.0223218 0.00441184 0.0160279 0.00498546 0.0418919
24 2 Si 0.16286 0.350945 1.4948 2.4 1 0.00173956 0.00263332 0.00281835 0.00447467 0.00111624 0.00628932 0.00268028 0.0164395 0.00217161 0.0051622 0.00192358 0.0228375 0.00232741 0.013431 0.00292722 0.0208639 0.0045978 0.0148358 0.0043908 0.0403344
25 3 O 0.15972 -1.26229 1.4948 -1.2 1 0.00155109 0.0026763 0.00286942 0.00442885 0.00161163 0.00589435 0.00245067 0.0164446 0.00226552 0.00545735 0.00242115 0.0226775 0.00252358 0.0138245 0.00278211 0.0217523 0.00418975 0.0146981 0.00394691 0.0406235
26 3 O 6.77654 1.32496 1.4948 -1.2 1 0.00108255 0.00378735 0.00147107 0.00469603 0.00115108 0.00609384 0.00219879 0.0168267 0.00243676 0.00547044 0.00172866 0.0237842 0.00275003 0.0134687 0.00345563 0.0219413 0.00464941 0.0153053 0.00455006 0.0409098
27 3 O -0.508028 1.05712 0.196716 -1.2 1 0.0013347 0.002719 0.00328836 0.00417226 0.00118695 0.00556367 0.0023467 0.0170916 0.00182599 0.00665678 0.00248189 0.0221301 0.00263908 0.0127847 0.00303014 0.0213729 0.00421399 0.015181 0.00444812 0.0402468
28 3 O -0.552171 1.05712 2.79288 -1.2 1 0.000879086 0.00227275 0.00291331 0.00444975 0.0011959 0.0059843 0.00226773 0.0163706 0.00225173 0.00624544 0.00186249 0.0226803 0.00290288 0.0116533 0.00342793 0.0216452 0.00514584 0.0158526 0.00498531 0.0396524
29 1 Mg 6.31713 4.74899 0 1.2 1 0.000914147 0.00254886 0.00199811 0.00473239 0.00230521 0.00616223 0.00326458 0.0181431 0.00276771 0.00709991 0.00217533 0.0253419 0.00283419 0.0135758 0.00410101 0.0247037 0.00479687 0.0162561 0.00587975 0.0429883
30 1 Mg 3.54847 9.45668 1.4948 1.2 1 0.00124006 0.0031856 0.00188316 0.00454896 0.00214652 0.00757989 0.00307751 0.021363 0.00183259 0.00846413 0.00223729 0.0285067 0.00299919 0.015466 0.00371373 0.0291972 0.00429268 0.0180807 0.00396524 0.0490529
31 2 Si 5.36879 6.77254 1.4948 2.4 1 0.000616008 0.00298552 0.00201661 0.00510448 0.00270223 0.00694284 0.00373545 0.0196427 0.00274967 0.00783533 0.00248532 0.0277312 0.00310935 0.0152927 0.00411787 0.0269083 0.00467287 0.0172676 0.00537406 0.04682
32 3 O 5.41937 8.38578 1.4948 -1.2 1 0.00100144 0.00303462 0.00174185 0.00497404 0.00230149 0.00775789 0.00312086 0.0209383 0.00230781 0.00844511 0.00240665 0.0291072 0.00227949 0.0154769 0.00309324 0.0291353 0.00464109 0.017362 0.00494223 0.0483307
33 3 O 1.75158 5.79852 1.4948 -1.2 1 0.00124356 0.00324379 0.00168181 0.00399376 0.00252946 0.00600916 0.00328279 0.0195486 0.00286155 0.0072679 0.00271745 0.0279776 0.00294384 0.015345 0.00352643 0.0268543 0.00542371 0.0175035 0.00557412 0.0459859
34 3 O 4.67421 6.06637 0.196716 -1.2 1 0.000727961 0.00283811 0.00169514 0.00486541 0.00203708 0.00686173 0.00289738 0.0198815 0.00251477 0.00820553 0.00213803 0.026414 0.00349305 0.0142245 0.00414083 0.026642 0.00467635 0.0166188 0.0055387 0.0453682
35 1 Mg 6.26654 4.74899 2.9896 1.2 1 0.00159231 0.0029865 0.00218956 0.00496646 0.00268046 0.00657032 0.0036874 0.0180821 0.00367072 0.00704546 0.00220427 0.0261226 0.00380257 0.0144802 0.00503773 0.0250122 0.00584607 0.0176021 0.00723602 0.0440073
36 3 O 4.63043 6.06637 2.79288 -1.2 1 0.00220806 0.00325181 0.0018034 0.0047943 0.00236808 0.0067709 0.00352388 0.0195334 0.00340876 0.00796306 0.0025471 0.0262639 0.0039707 0.0146565 0.00486277 0.0272199 0.00585933 0.018089 0.00699425 0.0459449
37 1 Mg -1.12976 4.79031 4.4844 1.2 1 0.00179395 0.00407898 0.00174065 0.00479872 0.00238912 0.00619093 0.00334534 0.0181683 0.00339312 0.00701851 0.00312837 0.0262558 0.00437249 0.014367 0.00472937 0.025936 0.00740722 0.0192902 0.00843997 0.0447343
38 2 Si -2.9517 7.47444 4.4844 2.4 1 0.00245305 0.00415257 0.00150211 0.00503972 0.00311689 0.00675411 0.00382171 0.0204632 0.00314011 0.00786435 0.00314782 0.0278063 0.00459722 0.0159022 0.00576582 0.028113 0.00691998 0.0192668 0.00835607 0.0483994
39 3 O -3.00198 5.86121 4.4844 -1.2 1 0.00194769 0.00418817 0.00139687 0.00504036 0.00328988 0.00638538 0.00419117 0.0188714 0.00343536 0.00761695 0.00293977 0.0261695 0.00454052 0.0140472 0.00504992 0.0269466 0.00683604 0.0195734 0.00859141 0.0459276
40 3 O 0.666315 8.44846 4.4844 -1.2 1 0.00288651 0.00479989 0.00126989 0.00479846 0.00299367 0.0075412 0.00301857 0.0212926 0.00312187 0.00810197 0.00317968 0.0286525 0.0047607 0.0159241 0.00480912 0.0293707 0.0064842 0.0196682 0.00814101 0.049481
41 3 O -2.21213 8.18062 3.18632 -1.2 1 0.00218758 0.0042219 0.00164878 0.0044871 0.00273691 0.00638007 0.0028794 0.0207491 0.00286629 0.00812788 0.00285567 0.0279115 0.00427348 0.0158611 0.00520273 0.0290638 0.00586031 0.018724 0.00688313 0.0491853
42 3 O -2.25864 8.18062 5.78248 -1.2 1 0.00337563 0.00452473 0.00141501 0.00477638 0.00312217 0.00602845 0.00297007 0.020914 0.00245276 0.00859747 0.00359055 0.0270574 0.00458465 0.0165261 0.00584617 0.0294537 0.00723024 0.0205674 0.0083134 0.0503922
43 1 Mg 1.20893 7.12349 2.9896 1.2 1 0.00161054 0.0038012 0.00183799 0.00427518 0.00291811 0.00682763 0.00382491 0.0197179 0.00290564 0.00813738 0.00266215 0.0280529 0.00360024 0.0156696 0.00389467 0.0274988 0.00566524 0.0182362 0.00643282 0.0472811
44 1 Mg 4.00982 7.08218 4.4844 1.2 1 0.0025317 0.00396844 0.00169114 0.00479787 0.00270447 0.00654741 0.00380264 0.0201859 0.00344409 0.00771827 0.00305812 0.0276789 0.00447046 0.0165481 0.00611929 0.0282824 0.00717748 0.0192899 0.00845913 0.0480518
45 2 Si 2.17861 9.14704 4.4844 2.4 1 0.00295137 0.00421832 0.00167907 0.00469344 0.0030244 0.00734824 0.00370177 0.0212495 0.00297541 0.00833851 0.00295635 0.0282666 0.00469447 0.0164844 0.00488345 0.0297369 0.00600657 0.0192806 0.00713426 0.0509314
46 3 O 2.18828 10.7603 4.4844 -1.2 1 0.00369116 0.0043803 0.00211857 0.00436676 0.00278733 0.00711452 0.0031206 0.0211206 0.00251346 0.00837753 0.00200488 0.028744 0.00422781 0.0157821 0.00465571 0.0308305 0.00611681 0.0197217 0.00680697 0.0517387
47 3 O -4.43805 8.17302 4.4844 -1.2 1 0.00220056 0.00444238 0.00183384 0.00489355 0.0026187 0.0078977 0.00342177 0.0207208 0.00330269 0.00826206 0.00311712 0.0285442 0.00479457 0.0158875 0.00527892 0.0295337 0.00684006 0.0195688 0.00898406 0.049159
48 3 O 2.89193 8.44087 3.18632 -1.2 1 0.00237787 0.00372623 0.00184747 0.0043115 0.002596 0.00690406 0.00331513 0.020612 0.00294449 0.00861358 0.00280041 0.027662 0.00382243 0.0157893 0.00483784 0.0290544 0.00595034 0.0186048 0.00604836 0.0490949
49 1 Mg 1.25915 7.12349 0 1.2 1 0.000760989 0.00296029 0.00162765 0.00420006 0.00192323 0.00716012 0.00283039 0.0201805 0.00285227 0.00823961 0.00268534 0.0277728 0.00350158 0.0142866 0.00364626 0.0274753 0.00470471 0.0172858 0.004588 0.0463441
50 3 O 2.84547 8.44087 5.78248 -1.2 1 0.00320079 0.00463865 0.00173473 0.00471304 0.00252813 0.00668529 0.00339894 0.0212535 0.00311807 0.0087451 0.00350962 0.0273301 0.00561334 0.0166686 0.00592381 0.0297395 0.00625885 0.0209359 0.00781178 0.0504868
51 1 Mg -1.59284 7.16481 1.4948 1.2 1 0.00111064 0.00330638 0.00144014 0.00461428 0.00191216 0.00637559 0.00268601 0.0199438 0.00299051 0.00785027 0.00182991 0.027764 0.00333691 0.0154735 0.00377733 0.0271856 0.00465742 0.017527 0.0056801 0.0469032
52 2 Si 0.240329 5.09994 1.4948 2.4 1 0.00115834 0.00341026 0.00205647 0.00407913 0.00187358 0.00672758 0.00305574 0.0190251 0.00310745 0.00731912 0.00224926 0.0261138 0.00285264 0.0144839 0.00404255 0.0248332 0.00510253 0.016875 0.00537497 0.0449453
53 3 O 0.234538 3.48671 1.4948 -1.2 1 0.00153578 0.00346227 0.00260317 0.00424527 0.00182871 0.00641256 0.00259733 0.0179849 0.00327909 0.00700209 0.00232398 0.0246344 0.00323051 0.0134718 0.00390489 0.0240972 0.00554114 0.0160703 0.0055155 0.0426187
54 3 O 6.85564 6.07396 1.4948 -1.2 1 0.00110151 0.00257038 0.00225667 0.00476908 0.00250969 0.00614142 0.00311998 0.0199276 0.0030652 0.0075366 0.00217194 0.0278211 0.00334791 0.0146072 0.00475633 0.0268958 0.00568363 0.0176231 0.00642729 0.0457083
55 3 O -0.429565 5.80612 0.196716 -1.2 1 0.000896815 0.00305962 0.00228211 0.00407276 0.00185522 0.00707097 0.00246394 0.0196801 0.00287932 0.00851913 0.00246372 0.0258298 0.00264351 0.0141363 0.00376047 0.0258713 0.00504201 0.0166717 0.00572216 0.0454141
56 3 O -0.473377 5.80612 2.79288 -1.2 1 0.00184745 0.00358231 0.00180184 0.00445994 0.00242362 0.00681941 0.00310541 0.0193385 0.00317516 0.00793974 0.00295123 0.026014 0.00394723 0.0145252 0.00458774 0.026389 0.00632479 0.0184609 0.00693682 0.0462252
57 1 Mg 6.40169 9.49799 0 1.2 1 0.00018411 0.00365394 0.00168374 0.00469945 0.00155479 0.0082902 0.00204599 0.0210903 0.00158756 0.00898872 0.0018284 0.0289423 0.0024383 0.0147007 0.00256096 0.0298379 0.00365077 0.0178143 0.00402473 0.0478354
58 1 Mg 3.64209 14.2057 1.4948 1.2 1 0.00209776 0.00325287 0.00155307 0.00454923 0.00184858 0.00881582 0.00164229 0.0216733 0.00167548 0.008651 0.00228475 0.028423 0.00256529 0.0160175 0.00318966 0.0296647 0.00359664 0.0167692 0.0035078 0.049801
59 2 Si 5.45748 11.5215 1.4948 2.4 1 0.00190098 0.00337951 0.00182993 0.00466251 0.0018298 0.00818087 0.00218699 0.0211303 0.00157638 0.00836356 0.0017744 0.0288909 0.00263985 0.0161063 0.00345012 0.0294213 0.00403611 0.0168199 0.00386069 0.0495713
60 3 O 5.51101 13.1348 1.4948 -1.2 1 0.00212814 0.00340756 0.00172348 0.00464939 0.00170069 0.00907747 0.0017933 0.0212738 0.00181308 0.00865868 0.00165964 0.0293765 0.00220088 0.0161095 0.00288754 0.0298958 0.0036987 0.0166229 0.00360822 0.0494941
61 3 O 1.83851 10.5475 1.4948 -1.2 1 0.00102387 0.00342187 0.00188496 0.00477511 0.00192391 0.00771218 0.00237296 0.0216072 0.00190808 0.00840295 0.00226413 0.029501 0.00260962 0.0157125 0.00337504 0.029886 0.00417854 0.0177038 0.00352381 0.0496033
62 3 O 4.7611 10.8154 0.196716 -1.2 1 0.00068553 0.00296413 0.00191573 0.0046292 0.00168529 0.00849328 0.00215556 0.0214416 0.00148486 0.00885222 0.00192359 0.0284066 0.00297179 0.0155376 0.00399393 0.0294988 0.00369803 0.0171257 0.00360035 0.0488297
63 1 Mg 6.35203 9.49799 2.9896 1.2 1 0.00182015 0.00376103 0.00150224 0.00469076 0.00272736 0.00751829 0.00343412 0.0205185 0.00309836 0.00861336 0.00212255 0.0291756 0.00358222 0.016003 0.00349643 0.0293696 0.00445041 0.0182627 0.00567748 0.0493005
64 3 O 4.71833 10.8154 2.79288 -1.2 1 0.00284424 0.00350821 0.00170552 0.00442701 0.00225881 0.00819875 0.0022934 0.0214597 0.00215032 0.00899159 0.00211603 0.0283922 0.00347902 0.0159246 0.00416744 0.0301541 0.00533515 0.0181438 0.00555067 0.0505373
65 1 Mg -1.0438 9.53931 4.4844 1.2 1 0.00317087 0.0046095 0.00143544 0.00435959 0.00303534 0.00663352 0.00257519 0.021038 0.00292449 0.00854739 0.00269863 0.0285173 0.00408117 0.0166645 0.00474522 0.0300414 0.00636382 0.0196476 0.00729075 0.0506687
66 2 Si -2.8604 12.2234 4.4844 2.4 1 0.00358435 0.0040606 0.00176724 0.00436582 0.00285133 0.00770145 0.00323191 0.0220212 0.00279106 0.00856765 0.00239189 0.0283984 0.00414454 0.0166052 0.00462787 0.0303036 0.00576402 0.0192003 0.00671008 0.0526284
67 3 O -2.91391 10.6102 4.4844 -1.2 1 0.00347049 0.00436612 0.00178923 0.00434617 0.00295413 0.00710626 0.00334594 0.0207282 0.00268047 0.00794907 0.00227787 0.0287432 0.00431865 0.0159301 0.00453613 0.0307516 0.00590421 0.0193261 0.00697795 0.0515791
68 3 O 0.7596 13.1975 4.4844 -1.2 1 0.00391039 0.00395066 0.00191269 0.00472351 0.00296313 0.0085234 0.00259095 0.0224213 0.00267141 0.00845406 0.00271678 0.0287834 0.00417498 0.0164013 0.00446327 0.0304055 0.00589778 0.0193355 0.00669761 0.0522872
69 3 O -2.12001 12.9296 3.18632 -1.2 1 0.00336043 0.00364876 0.00170606 0.00411228 0.00264258 0.00760789 0.00235287 0.0219891 0.00247812 0.00860732 0.00231042 0.0278791 0.00360179 0.0161792 0.00482685 0.0304743 0.00522265 0.018337 0.00555411 0.0514583
70 3 O -2.16532 12.9296 5.78248 -1.2 1 0.00453282 0.00407286 0.00160524 0.00438492 0.00287212 0.00675605 0.00241376 0.0222886 0.002268 0.00832037 0.00251656 0.0276233 0.00402165 0.0171189 0.00532646 0.0313701 0.00607995 0.0208181 0.00698082 0.0543459
71 1 Mg 1.29891 11.8725 2.9896 1.2 1 0.00272614 0.00339808 0.00197078 0.00467549 0.00254417 0.00794489 0.00288196 0.021189 0.00259939 0.00859357 0.00204168 0.0292456 0.00343375 0.0161778 0.0036705 0.0300689 0.0046339 0.0177614 0.00492279 0.0504451
72 1 Mg 4.10033 11.8312 4.4844 1.2 1 0.00369378 0.0039245 0.0020856 0.00422838 0.00265585 0.0074315 0.00276812 0.0217809 0.0025216 0.0083735 0.00264582 0.0287241 0.00375416 0.0173168 0.00528462 0.0303686 0.00653913 0.0192337 0.00639489 0.0521873
73 2 Si 2.27333 13.896 4.4844 2.4 1 0.00399762 0.00340402 0.00178341 0.00490358 0.00292385 0.0079211 0.00319236 0.022187 0.00248217 0.00828636 0.00274953 0.0280973 0.00391648 0.0169342 0.0045772 0.030083 0.00550068 0.0187232 0.00621243 0.053163
74 3 O 2.28634 15.5093 4.4844 -1.2 1 0.00420484 0.00383138 0.0016053 0.00446391 0.00290491 0.00729274 0.00283495 0.0214086 0.00256816 0.00756491 0.00208293 0.0285206 0.00339381 0.0161827 0.00410198 0.0308635 0.00578037 0.0185577 0.00638542 0.0527967
75 3 O -4.34533 12.922 4.4844 -1.2 1 0.00388819 0.00403283 0.00188785 0.00442022 0.00278992 0.00838506 0.00310894 0.0220293 0.00272553 0.00847837 0.00251739 0.0288241 0.00400674 0.0163702 0.00481544 0.0306583 0.00634704 0.0195011 0.00735131 0.0523602
76 3 O 2.98455 13.1899 3.18632 -1.2 1 0.00349892 0.00350554 0.00179021 0.00427674 0.00258742 0.00788689 0.00229764 0.0219717 0.00211518 0.00858639 0.00228262 0.0281009 0.00351773 0.0161118 0.00451832 0.0302157 0.00548987 0.0182813 0.00547922 0.0513075
77 1 Mg 1.34779 11.8725 0 1.2 1 0.000705171 0.00293564 0.0014196 0.0047428 0.00146552 0.00887853 0.00145657 0.0213399 0.00138767 0.00912296 0.00196512 0.0292011 0.00277875 0.0147797 0.00301784 0.0301835 0.00320393 0.0172394 0.00326782 0.0484336
78 3 O 2.93934 13.1899 5.78248 -1.2 1 0.00422785 0.00442271 0.00181398 0.00465363 0.00279871 0.00698557 0.00275519 0.022323 0.00242456 0.00837807 0.00294883 0.0274784 0.00430587 0.0168639 0.00480951 0.031467 0.00623936 0.0210219 0.00669056 0.0542628
79 1 Mg -1.50344 11.9138 1.4948 1.2 1 0.00125886 0.00359879 0.00146763 0.00458741 0.00162131 0.00825783 0.00179331 0.0216576 0.00242742 0.00856234 0.00157681 0.028818 0.00351266 0.0160105 0.00343626 0.0297378 0.00352814 0.0173901 0.00379152 0.0494751
80 2 Si 0.326006 9.84894 1.4948 2.4 1 0.000556945 0.0033909 0.00142924 0.00495884 0.00198191 0.0081636 0.00210708 0.0210408 0.00220064 0.00845661 0.00171941 0.0288185 0.00297114 0.0155984 0.00370142 0.0289846 0.00382781 0.017634 0.00350292 0.0489434
81 3 O 0.317364 8.23571 1.4948 -1.2 1 0.00121978 0.00350171 0.00124175 0.00439327 0.00197152 0.00770616 0.00210075 0.020302 0.00268038 0.00795441 0.00188837 0.0288156 0.00345116 0.0156605 0.00392119 0.0286153 0.00450086 0.0175899 0.00439816 0.0479991
82 3 O 6.94307 10.823 1.4948 -1.2 1 0.00133948 0.00369693 0.00160367 0.00452514 0.00195556 0.00778335 0.00263567 0.0218154 0.00240563 0.00840742 0.00157767 0.0295717 0.00292715 0.015776 0.00337765 0.0299284 0.00374845 0.0178481 0.00424548 0.0495302
83 3 O -0.343122 10.5551 0.196716 -1.2 1 0.000398874 0.00318669 0.0012919 0.00482726 0.00163472 0.00859392 0.00180657 0.0213854 0.00174946 0.00894131 0.00211665 0.0283163 0.00332937 0.0151938 0.00421967 0.0294254 0.00354714 0.0173666 0.00354828 0.0487692
84 3 O -0.385966 10.5551 2.79288 -1.2 1 0.00260578 0.0036784 0.00146393 0.0043829 0.00271112 0.00799165 0.00218229 0.0216876 0.00220583 0.00925495 0.00233322 0.0277955 0.00382824 0.0161088 0.00435313 0.0299436 0.00506611 0.0184702 0.00515377 0.0504652
85 1 Mg 6.49448 14.247 0 1.2 1 0.00123355 0.00359143 0.0016711 0.0049767 0.00127075 0.00925014 0.00122577 0.02142 0.00126897 0.00863046 0.00143601 0.0288713 0.00175884 0.0154605 0.0025789 0.0300419 0.0030998 0.0165535 0.0029103 0.0483349
86 1 Mg 3.74457 18.9547 1.4948 1.2 1 0.00212249 0.0032412 0.0014028 0.00402804 0.0019434 0.00858621 0.0014703 0.0223426 0.0018386 0.00799851 0.00233632 0.0276846 0.00270082 0.0166471 0.00372636 0.0287854 0.00349534 0.0164627 0.00340599 0.0501169
87 2 Si 5.55495 16.2705 1.4948 2.4 1 0.00266729 0.0031743 0.00137047 0.00454904 0.00194335 0.00894593 0.00151268 0.0215027 0.00148886 0.00791873 0.00123916 0.0286291 0.00247156 0.016296 0.00307481 0.0289312 0.00363155 0.0158586 0.00380079 0.0497616
88 3 O 5.6115 17.8838 1.4948 -1.2 1 0.00242312 0.00311697 0.00162855 0.00427944 0.00190751 0.0091823 0.00161989 0.0217554 0.00188272 0.00781298 0.00157932 0.0287398 0.00228183 0.0165587 0.00294804 0.0289237 0.00322943 0.0158052 0.00359168 0.0497767
89 3 O 1.93416 15.2965 1.4948 -1.2 1 0.00219489 0.00326436 0.00162428 0.00464013 0.0018997 0.00845858 0.00206938 0.0220223 0.00188238 0.00809729 0.00144142 0.0291442 0.00213261 0.01619 0.00294744 0.0298149 0.00355545 0.0165851 0.00331128 0.0501363
90 3 O 4.85636 15.5644 0.196716 -1.2 1 0.0017983 0.00283844 0.00144599 0.00472669 0.00144065 0.00921441 0.00137522 0.0214751 0.00105874 0.00818942 0.00154111 0.0281459 0.00273224 0.0160952 0.00368641 0.0293297 0.0032302 0.0158754 0.00315578 0.0491633
91 1 Mg 6.44662 14.247 2.9896 1.2 1 0.00235091 0.00364123 0.00144449 0.00428496 0.00256381 0.00845388 0.00306203 0.0209965 0.00263588 0.00863023 0.00174715 0.0292671 0.00297536 0.0164266 0.00301625 0.0296641 0.00408984 0.0174183 0.00478246 0.0505312
92 3 O 4.81537 15.5644 2.79288 -1.2 1 0.0032241 0.00328892 0.00145013 0.00422425 0.00245567 0.00872213 0.00178134 0.0220528 0.00159698 0.00862633 0.00181162 0.0279803 0.00289657 0.0164363 0.00365616 0.0296653 0.00466814 0.0171685 0.0048858 0.0509207
93 1 Mg -0.948271 14.2883 4.4844 1.2 1 0.00399807 0.00354399 0.0016114 0.00417647 0.00298003 0.00773327 0.00281106 0.021893 0.00270306 0.00832392 0.00283927 0.028632 0.00350092 0.0169531 0.00542144 0.0304046 0.00592943 0.0188133 0.00656504 0.0526926
94 2 Si -2.75928 16.9724 4.4844 2.4 1 0.00375172 0.00327067 0.00167304 0.00430259 0.0029182 0.00763762 0.00292978 0.0223273 0.00258906 0.00778955 0.0025882 0.0279627 0.00360816 0.0172305 0.00463707 0.0297464 0.00515996 0.0180972 0.0060771 0.0533812
95 3 O -2.81617 15.3592 4.4844 -1.2 1 0.00418681 0.00368079 0.0015573 0.00415062 0.00303859 0.00744017 0.00300594 0.0214657 0.00242086 0.00768311 0.00205955 0.0286377 0.00376734 0.0162818 0.00425171 0.0305014 0.0058288 0.018442 0.00671706 0.0527361
96 3 O 0.862762 17.9465 4.4844 -1.2 1 0.0039482 0.0035696 0.00128348 0.00432676 0.00308494 0.00821142 0.00279417 0.0225995 0.00257918 0.00773385 0.00265361 0.0285751 0.0037287 0.0170934 0.00449593 0.0295856 0.00549868 0.0181707 0.00618824 0.0527894
97 3 O -2.0185 17.6786 3.18632 -1.2 1 0.00331269 0.00324302 0.0016136 0.00385327 0.00272102 0.00751065 0.00250997 0.0225286 0.00233229 0.0078182 0.00214814 0.0276136 0.00358523 0.0165641 0.00449075 0.0297804 0.00467125 0.0173878 0.00517412 0.0518823
98 3 O -2.06164 17.6786 5.78248 -1.2 1 0.00427529 0.00364535 0.00142172 0.00431841 0.00294632 0.00673158 0.00256566 0.0225675 0.00223776 0.0075416 0.00211521 0.0276857 0.00341718 0.0173954 0.00434578 0.0309124 0.00589881 0.0197587 0.00646054 0.055139
99 1 Mg 1.39817 16.6215 2.9896 1.2 1 0.00311588 0.00321803 0.00161073 0.00445 0.0026379 0.00837127 0.00271868 0.0214863 0.00250204 0.00806263 0.00198073 0.028739 0.0027636 0.0166707 0.00339361 0.0295404 0.00402254 0.0167287 0.00432833 0.0508336
100 1 Mg 4.20062 16.5802 4.4844 1.2 1 0.00393991 0.00322555 0.00160655 0.00427928 0.00269736 0.00760491 0.00246525 0.0221454 0.00292466 0.00772285 0.00273194 0.0283235 0.00342917 0.0175882 0.00549739 0.0300844 0.00620374 0.0183616 0.00614318 0.0528114
101 2 Si 2.37796 18.645 4.4844 2.4 1 0.00330593 0.00319394 0.00127897 0.00421232 0.00298863 0.00784417 0.00304014 0.0227875 0.00262667 0.007719 0.0025816 0.0277461 0.00356581 0.0174002 0.00448224 0.0295957 0.00516796 0.0181142 0.00575439 0.053775
102 3 O 2.39434 20.2583 4.4844 -1.2 1 0.00308384 0.00352197 0.00130196 0.00416001 0.00292972 0.00684667 0.0027608 0.0218544 0.00262888 0.00727542 0.00213505 0.0285992 0.003625 0.016963 0.00406963 0.0299796 0.00533261 0.0180098 0.00630544 0.0531369
103 3 O -4.24274 17.671 4.4844 -1.2 1 0.00355601 0.00365231 0.00169436 0.00425148 0.00278993 0.0084125 0.00294333 0.022647 0.00283965 0.00781556 0.00258243 0.0284363 0.00346466 0.0169814 0.00490155 0.0297488 0.0058433 0.0185587 0.00663303 0.0529424
104 3 O 3.08659 17.9389 3.18632 -1.2 1 0.00338027 0.0029509 0.00140066 0.00388049 0.00268229 0.00780127 0.00215273 0.0223679 0.00227001 0.00803651 0.00221068 0.0275013 0.00334275 0.0165971 0.00436948 0.0295698 0.00517611 0.0174025 0.00540595 0.0516799
105 1 Mg 1.44478 16.6215 0 1.2 1 0.00216457 0.00305927 0.00132941 0.00454513 0.0013593 0.0091106 0.00114792 0.0215199 0.00141975 0.00817262 0.00155816 0.0286834 0.00224307 0.0157451 0.00252443 0.0293583 0.00295987 0.0161875 0.0030334 0.0487368
106 3 O 3.0436 17.9389 5.78248 -1.2 1 0.00400266 0.00374752 0.00135862 0.00446937 0.00278504 0.0068401 0.00264328 0.0229079 0.00228128 0.00781438 0.00315218 0.0275405 0.00386815 0.0174777 0.00516527 0.0309298 0.00577803 0.0201734 0.00625796 0.0552398
107 1 Mg -1.40524 16.6628 1.4948 1.2 1 0.00197547 0.00323517 0.00134835 0.00439323 0.00185614 0.00873822 0.00187428 0.0223051 0.00180074 0.00821225 0.00184833 0.0282373 0.00314453 0.0167362 0.00308857 0.0293288 0.00284496 0.0166496 0.00312941 0.0497193
108 2 Si 0.420358 14.5979 1.4948 2.4 1 0.00189479 0.00302088 0.00150728 0.00494639 0.0020803 0.00908892 0.00175669 0.021523 0.00174437 0.00822985 0.00145249 0.0285033 0.00282551 0.0164348 0.00354706 0.0288814 0.00334418 0.0164219 0.00338635 0.0496504
109 3 O 0.408732 12.9847 1.4948 -1.2 1 0.00166981 0.00303109 0.00139793 0.00481601 0.00198488 0.00909613 0.00148082 0.021236 0.00219946 0.00843238 0.00157589 0.0292237 0.00306719 0.015949 0.00316727 0.0298498 0.00320699 0.0168259 0.00369512 0.0495511
110 3 O 7.03923 15.572 1.4948 -1.2 1 0.00240779 0.00338233 0.00152908 0.00444396 0.00206788 0.00835653 0.00239526 0.0218029 0.00220639 0.00803456 0.00152315 0.0292065 0.0025803 0.0164114 0.00294016 0.0296336 0.00331068 0.0166731 0.00384808 0.0499247
111 3 O -0.248332 15.3041 0.196716 -1.2 1 0.00180025 0.00283719 0.00141105 0.00461041 0.00126308 0.00916764 0.00171901 0.0214369 0.00130092 0.00837556 0.00168073 0.0281183 0.00274944 0.0157976 0.00376278 0.0292507 0.00298125 0.0162011 0.00320124 0.0488755
112 3 O -0.289436 15.3041 2.79288 -1.2 1 0.00353329 0.00338198 0.0013362 0.00426695 0.00263039 0.00867231 0.00205801 0.0222606 0.00174528 0.00875054 0.00186046 0.0275563 0.00303998 0.0167116 0.00380799 0.0296191 0.00435338 0.0176715 0.00462952 0.051166
113 1 Mg 6.59566 18.996 0 1.2 1 0.00132521 0.00336283 0.00176778 0.00437052 0.00108116 0.00874302 0.00105894 0.022012 0.00117447 0.00781399 0.00133909 0.0282385 0.00201469 0.0163982 0.00236577 0.028692 0.00299802 0.0160588 0.00305068 0.0486705
114 1 Mg 3.85574 23.7037 1.4948 1.2 1 0.00177503 0.00242358 0.00134836 0.00407102 0.00173953 0.0075113 0.00135943 0.0232422 0.00187783 0.00754705 0.00236645 0.027289 0.00264881 0.0175726 0.00388251 0.0284272 0.00328239 0.0171412 0.00347806 0.0507263
115 2 Si 5.66125 21.0195 1.4948 2.4 1 0.00192115 0.00250623 0.00126811 0.00411479 0.00193197 0.00823052 0.00153996 0.0220877 0.00142741 0.00747536 0.00147298 0.0280094 0.00252822 0.0173795 0.00290068 0.0279958 0.00336126 0.0158291 0.00401588 0.0503628
116 3 O 5.72074 22.6328 1.4948 -1.2 1 0.00173029 0.00241438 0.00180375 0.00410865 0.00179591 0.00822308 0.0016409 0.0224956 0.00191515 0.00729402 0.00152568 0.0280973 0.00225281 0.017287 0.00308072 0.0283987 0.0031559 0.0162612 0.00368216 0.0502358
117 3 O 2.03867 20.0455 1.4948 -1.2 1 0.00201223 0.00321938 0.00140851 0.0043663 0.00184451 0.00785057 0.0021379 0.0223657 0.00221627 0.0074021 0.0015903 0.0285048 0.00229232 0.0173112 0.00260756 0.0289168 0.00330211 0.0161715 0.0034665 0.0505029
118 3 O 4.96004 20.3134 0.196716 -1.2 1 0.00177749 0.00259744 0.00175957 0.0042784 0.00146486 0.00839297 0.00104366 0.0218629 0.00109648 0.00752236 0.00159455 0.0277465 0.00277643 0.0166049 0.00398051 0.0286967 0.00305102 0.0153507 0.00299237 0.0494295
119 1 Mg 6.55057 18.996 2.9896 1.2 1 0.00212218 0.00328344 0.00127423 0.00403064 0.00248222 0.00816071 0.00289356 0.0215482 0.00251013 0.00784296 0.00188381 0.0290377 0.00306571 0.0171219 0.00319084 0.028811 0.00381989 0.0168092 0.00472342 0.0509655