ITEM: TIMESTEP
7700
ITEM: NUMBER OF ATOMS
10500
ITEM: BOX BOUNDS xy xz yz pp pp pp
0	15.2974	5.099
0	118.725	0
0	89.688	0
ITEM: ATOMS id type element xu yu zu q Q_1 Q_2 Q_3 Q_4 Q_5 Q_6 Q_7 Q_8 Q_9 Q_10 Q_11 Q_12 Q_13 Q_14 Q_15 Q_16 Q_17 Q_18 Q_19 Q_20 Q_21
1 1 Mg 6.2404 -6.37941e-06 0 1.2 1 0.00100153 0.00416697 0.00114387 0.0047728 0.00112916 0.00565599 0.00219621 0.016147 0.00229697 0.00568046 0.00226708 0.0219061 0.00267836 0.013403 0.00367593 0.0206127 0.00416396 0.0144439 0.00399033 0.0401931
2 1 Mg 3.46349 4.70768 1.4948 1.2 1 0.00124961 0.00325116 0.00171481 0.00432695 0.00190594 0.00628981 0.00343729 0.0186991 0.00291289 0.00699546 0.00284845 0.0256749 0.00325013 0.0137594 0.00434907 0.0250502 0.00535389 0.0170704 0.00563748 0.0437165
3 2 Si 5.2885 2.02354 1.4948 2.4 1 0.00060223 0.00325839 0.00194315 0.00433183 0.0017815 0.00582331 0.00239615 0.0168737 0.0024849 0.00619734 0.0021331 0.0231259 0.00280214 0.0135021 0.00377678 0.0213765 0.00381335 0.0153703 0.00423615 0.0410372
4 3 O 5.33628 3.63678 1.4948 -1.2 1 0.000710763 0.0026922 0.00167917 0.00458249 0.00195503 0.00641056 0.00278461 0.0176789 0.00238711 0.00671818 0.00185498 0.025237 0.00259607 0.0136133 0.00442321 0.0238945 0.00497067 0.0164294 0.00565577 0.0428413
5 3 O 1.67294 1.04952 1.4948 -1.2 1 0.00169821 0.00334343 0.00229476 0.0041337 0.00131493 0.00588113 0.00239581 0.0169066 0.00231705 0.00610392 0.0021103 0.0228067 0.00271673 0.0128077 0.0034253 0.0218794 0.00471983 0.0157276 0.00476975 0.0403189
6 3 O 4.59532 1.31737 0.196716 -1.2 1 0.0009516 0.00303607 0.00179039 0.00421594 0.00188542 0.00566051 0.00238919 0.0171452 0.00280304 0.00620056 0.00204154 0.022367 0.00327653 0.0128321 0.00429801 0.0215091 0.00413156 0.0150335 0.00446805 0.0407166
7 1 Mg 6.18956 -6.37941e-06 2.9896 1.2 1 0.00076592 0.00421149 0.00146057 0.00409007 0.00117766 0.00583859 0.00241759 0.0160747 0.0026654 0.00565305 0.00165092 0.0224904 0.00289444 0.0132138 0.00370653 0.0205336 0.0044411 0.01471 0.00490297 0.0390566
8 3 O 4.55118 1.31737 2.79288 -1.2 1 0.00124334 0.00409512 0.0017356 0.00398225 0.00162001 0.00584337 0.0024433 0.0169811 0.00244794 0.00698714 0.00215238 0.0219616 0.00352232 0.0122682 0.00347136 0.0214275 0.00480674 0.0156092 0.0051119 0.0400969
9 1 Mg -1.20682 0.0413099 4.4844 1.2 1 0.000456784 0.0026426 0.0017687 0.00447058 0.00120207 0.0054931 0.0020026 0.0163433 0.0021007 0.00615001 0.00199545 0.0226819 0.00315002 0.0114569 0.00347738 0.0206249 0.00524962 0.0156376 0.00521079 0.0389224
10 2 Si -3.0337 2.72544 4.4844 2.4 1 0.000357292 0.00298951 0.00183103 0.00477835 0.00205702 0.006191 0.0031309 0.0167458 0.00328104 0.00641091 0.00236181 0.0240044 0.00336948 0.0128368 0.00398118 0.0221715 0.00534651 0.0175863 0.00638759 0.0398675
11 3 O -3.08099 1.11221 4.4844 -1.2 1 0.000554142 0.00339026 0.00173345 0.0041413 0.00107909 0.00540772 0.00215616 0.0160519 0.00281931 0.00585613 0.00218024 0.0221782 0.00332187 0.0111063 0.00371365 0.0208721 0.00499296 0.0160539 0.00551042 0.0382546
12 3 O 0.582463 3.69946 4.4844 -1.2 1 0.00150236 0.0043721 0.00209258 0.00429592 0.00238667 0.00680538 0.0035096 0.0173624 0.00354837 0.00676574 0.00320879 0.0244521 0.00399486 0.0127377 0.00412437 0.0241333 0.00679246 0.0187425 0.00808097 0.0417249
13 3 O -2.29524 3.43162 3.18632 -1.2 1 0.000725075 0.00273321 0.0027098 0.00442886 0.00217394 0.00605906 0.00284368 0.0178559 0.0032591 0.00683626 0.00266814 0.0245053 0.00331264 0.0128423 0.00474476 0.0240079 0.00597873 0.0179139 0.00658804 0.0420921
14 3 O -2.34216 3.43162 5.78248 -1.2 1 0.0011207 0.00351776 0.000968346 0.00480462 0.00246663 0.00609171 0.00318217 0.0171096 0.00309389 0.00735891 0.00285127 0.0231633 0.00452163 0.0124338 0.00388887 0.0228317 0.00647154 0.0192732 0.00776032 0.0403472
15 1 Mg 1.12778 2.37449 2.9896 1.2 1 0.00139325 0.00362241 0.00252231 0.00446737 0.00203463 0.00604396 0.00290735 0.0167468 0.00270535 0.00631846 0.0022255 0.0235946 0.00336548 0.0128337 0.00358234 0.0220006 0.00501152 0.0165324 0.00553934 0.0410695
16 1 Mg 3.92855 2.33318 4.4844 1.2 1 0.00122072 0.00378027 0.00130112 0.0042055 0.00149166 0.0056486 0.00336879 0.0169689 0.00322016 0.00623336 0.00286724 0.0229235 0.00379452 0.0130894 0.00515756 0.0218053 0.0063189 0.0171272 0.00687352 0.0402055
17 2 Si 2.09341 4.39804 4.4844 2.4 1 0.00121361 0.00406398 0.00198689 0.00407797 0.00280247 0.00603632 0.00359473 0.0183539 0.00362406 0.00691112 0.0033989 0.0249248 0.00459333 0.0141453 0.00448961 0.0245047 0.00677202 0.0184816 0.00814136 0.0437728
18 3 O 2.09991 6.01128 4.4844 -1.2 1 0.00174833 0.00437121 0.00163405 0.00390597 0.00289551 0.00666226 0.00315365 0.0193622 0.00286321 0.00738028 0.00317745 0.0265482 0.00422666 0.0144634 0.00479551 0.0270141 0.00698428 0.0195022 0.00802293 0.0453281
19 3 O -4.52137 3.42402 4.4844 -1.2 1 0.00106563 0.0033397 0.00188162 0.00443826 0.00220623 0.00697657 0.00331525 0.0169776 0.00345861 0.00637964 0.00294743 0.0237959 0.00403761 0.012746 0.00407943 0.0225201 0.00617032 0.0176902 0.00742546 0.0410421
20 3 O 2.80834 3.69187 3.18632 -1.2 1 0.00127884 0.0035875 0.00176927 0.00371369 0.00186186 0.00583666 0.00289142 0.0174787 0.00304297 0.00652278 0.002855 0.0242558 0.00363969 0.0130453 0.00484171 0.0237703 0.00570421 0.017028 0.00617 0.0425751
21 1 Mg 1.17857 2.37449 0 1.2 1 0.00188194 0.00367842 0.00224067 0.0040966 0.00144597 0.00556037 0.00241412 0.0171541 0.00247687 0.00662624 0.00276145 0.0231735 0.00289427 0.0132391 0.00363211 0.0215751 0.00436319 0.0149727 0.00479263 0.0407745
22 3 O 2.76143 3.69187 5.78248 -1.2 1 0.00147624 0.00394463 0.00173748 0.00414592 0.0019098 0.00557201 0.00278455 0.0177687 0.00338858 0.00731427 0.00298442 0.0229305 0.00473905 0.0129222 0.00517767 0.0228902 0.0063951 0.0187364 0.00757998 0.0412162
23 1 Mg -1.67381 2.41581 1.4948 1.2 1 0.00136855 0.00250795 0.00277377 0.00471678 0.00140034 0.00601293 0.002304 0.0166079 0.00280539 0.00646103 0.00198832 0.0242027 0.00247157 0.0140992 0.00295208 0.0222388 0.00443308 0.016038 0.00478928 0.0416635
24 2 Si 0.16286 0.350945 1.4948 2.4 1 0.00158165 0.00261546 0.00299899 0.00449674 0.00119424 0.00636806 0.00262299 0.0165357 0.00210592 0.00534534 0.00201701 0.0230097 0.00244172 0.013395 0.00315136 0.0207884 0.00472125 0.0149288 0.00434121 0.0403938
25 3 O 0.15972 -1.26229 1.4948 -1.2 1 0.00147187 0.00271513 0.00314202 0.00453934 0.00176918 0.00599153 0.00252221 0.016487 0.00218071 0.00544463 0.0024581 0.0227086 0.00259762 0.0137117 0.00298765 0.0217892 0.00429371 0.0147173 0.00395788 0.0408341
26 3 O 6.77654 1.32496 1.4948 -1.2 1 0.00101229 0.00359982 0.00157538 0.00440999 0.00118892 0.00606694 0.0023534 0.0167981 0.00244898 0.00557128 0.00185505 0.0237335 0.00283023 0.0135709 0.00362961 0.0217984 0.00458448 0.0152644 0.00439276 0.0408578
27 3 O -0.508028 1.05712 0.196716 -1.2 1 0.00133424 0.00286311 0.00343293 0.00412512 0.0013671 0.00574035 0.00243132 0.0170322 0.0018509 0.00664024 0.00248816 0.0221288 0.00271608 0.0127841 0.00317587 0.0211399 0.00435518 0.01519 0.00438553 0.0401027
28 3 O -0.552171 1.05712 2.79288 -1.2 1 0.000834371 0.0024018 0.00301325 0.0044554 0.00131412 0.00632692 0.00222197 0.016234 0.00248013 0.00636412 0.00171981 0.0228476 0.00294168 0.011873 0.00373031 0.0215785 0.00544024 0.0160404 0.00501326 0.0397045
29 1 Mg 6.31713 4.74899 0 1.2 1 0.000969425 0.00259542 0.00188196 0.00460933 0.0023257 0.00619686 0.00314972 0.0180945 0.00274906 0.00708083 0.00221411 0.0252347 0.00297082 0.0137891 0.00434934 0.02445 0.00464643 0.0164375 0.00606407 0.0428229
30 1 Mg 3.54847 9.45668 1.4948 1.2 1 0.000773312 0.00307681 0.00196647 0.00450461 0.00203672 0.00761151 0.00310131 0.0213144 0.00183353 0.00840666 0.00224743 0.0284272 0.00313959 0.0155577 0.00367669 0.0290476 0.00414694 0.0180171 0.00388028 0.0488044
31 2 Si 5.36879 6.77254 1.4948 2.4 1 0.000540269 0.00288608 0.00215945 0.0049343 0.00269988 0.00699748 0.0036909 0.0195618 0.0027734 0.00784332 0.00250529 0.0275886 0.00318481 0.0152966 0.00447216 0.0268226 0.00475089 0.0172325 0.00534922 0.0465539
32 3 O 5.41937 8.38578 1.4948 -1.2 1 0.000738518 0.00295602 0.00197466 0.00485972 0.00225774 0.00781882 0.00308753 0.0209009 0.00230786 0.00836224 0.00228447 0.0290245 0.00239314 0.0155959 0.00324552 0.0289465 0.00464317 0.017293 0.00494085 0.0480454
33 3 O 1.75158 5.79852 1.4948 -1.2 1 0.00113604 0.00339011 0.00185982 0.00413395 0.0023036 0.00611611 0.0031567 0.0195856 0.00285217 0.00733568 0.0026761 0.0278846 0.00298292 0.0153976 0.00381742 0.0267024 0.00541829 0.0175597 0.00551906 0.0456709
34 3 O 4.67421 6.06637 0.196716 -1.2 1 0.000606255 0.00299225 0.00183659 0.00466418 0.00197798 0.00691258 0.00289608 0.0197484 0.00252741 0.00813767 0.00215174 0.0262641 0.00354213 0.0143387 0.00445778 0.0265661 0.00477019 0.0167247 0.00560609 0.0451245
35 1 Mg 6.26654 4.74899 2.9896 1.2 1 0.00152418 0.00289892 0.00224763 0.00469636 0.00252765 0.00645163 0.00367319 0.0178938 0.00381965 0.00708867 0.00217671 0.0259153 0.00386803 0.0144204 0.00499266 0.0247245 0.00581612 0.0175966 0.00697696 0.043581
36 3 O 4.63043 6.06637 2.79288 -1.2 1 0.00182853 0.00309399 0.00179927 0.00466954 0.002142 0.00691579 0.00332298 0.0195084 0.00335971 0.00788332 0.00248201 0.0261157 0.0038986 0.0145075 0.00446736 0.0270909 0.00591813 0.0182093 0.00697608 0.0454518
37 1 Mg -1.12976 4.79031 4.4844 1.2 1 0.00156303 0.00398713 0.0017779 0.00474601 0.00242496 0.00623496 0.00323032 0.0180606 0.00371494 0.00710199 0.00330086 0.025684 0.00417851 0.0143444 0.00466727 0.0253577 0.00748012 0.0191844 0.00817299 0.0440591
38 2 Si -2.9517 7.47444 4.4844 2.4 1 0.00204441 0.00381482 0.00140189 0.00484915 0.00301907 0.00670372 0.00370118 0.0203163 0.00342587 0.00785818 0.00322089 0.0273782 0.00463127 0.0158712 0.00535615 0.0273821 0.00711565 0.0191468 0.0080199 0.0474531
39 3 O -3.00198 5.86121 4.4844 -1.2 1 0.00172905 0.00397243 0.00130661 0.00479652 0.0032602 0.00654493 0.00408487 0.0188397 0.00374147 0.00763602 0.00309583 0.0257241 0.00446247 0.0141808 0.00475779 0.0262975 0.00690485 0.0192773 0.00839147 0.0452854
40 3 O 0.666315 8.44846 4.4844 -1.2 1 0.00224676 0.00462194 0.00134682 0.00461289 0.00296526 0.0074802 0.00295909 0.0212837 0.00318504 0.00793873 0.00353554 0.0280267 0.00451077 0.0158609 0.00473623 0.0289028 0.00665601 0.0196831 0.00797236 0.0484786
41 3 O -2.21213 8.18062 3.18632 -1.2 1 0.00163191 0.00383062 0.00159972 0.00422905 0.00250001 0.00657414 0.00282395 0.0207505 0.00297069 0.00812868 0.00304918 0.0275215 0.00419684 0.0157727 0.00508749 0.0285383 0.0060474 0.0187277 0.00664482 0.0485055
42 3 O -2.25864 8.18062 5.78248 -1.2 1 0.00256547 0.00426042 0.00139164 0.00461108 0.00306845 0.00606525 0.00299344 0.0206852 0.00275097 0.00870134 0.0037915 0.0266201 0.00454593 0.0165311 0.00546122 0.0286645 0.00745472 0.0204155 0.0082547 0.0490414
43 1 Mg 1.20893 7.12349 2.9896 1.2 1 0.00146221 0.00382243 0.00177992 0.00442279 0.0027306 0.00686662 0.00354245 0.0197096 0.00290463 0.00808608 0.00280668 0.0279592 0.0035351 0.015669 0.00402822 0.0272434 0.00575465 0.0182663 0.00625669 0.0467988
44 1 Mg 4.00982 7.08218 4.4844 1.2 1 0.00217095 0.00373718 0.00151179 0.00451618 0.00265166 0.0066622 0.00366741 0.0201059 0.00353665 0.00756487 0.00345175 0.0271747 0.00408072 0.016471 0.00564466 0.0278358 0.00731378 0.0190878 0.00839718 0.0471554
45 2 Si 2.17861 9.14704 4.4844 2.4 1 0.00199287 0.0040027 0.00163728 0.0046673 0.00299266 0.00739705 0.00374608 0.0213781 0.00283815 0.00832352 0.0032767 0.0278731 0.00469517 0.0165451 0.00469427 0.0292245 0.00595856 0.0193929 0.00695955 0.0502004
46 3 O 2.18828 10.7603 4.4844 -1.2 1 0.00274662 0.00417436 0.00197283 0.00435098 0.00276665 0.00702131 0.00301833 0.021075 0.00269769 0.00817279 0.00258816 0.0285084 0.00403881 0.0156774 0.00440872 0.0304196 0.00610515 0.01957 0.00665996 0.0510347
47 3 O -4.43805 8.17302 4.4844 -1.2 1 0.00169887 0.00413853 0.00171352 0.00495475 0.0027398 0.00788524 0.00315465 0.0207167 0.00346727 0.00814711 0.00343615 0.0284029 0.00485328 0.0159324 0.00512116 0.0288179 0.00698835 0.0193594 0.00862008 0.0485079
48 3 O 2.89193 8.44087 3.18632 -1.2 1 0.00183836 0.00355516 0.00177691 0.0043075 0.00250665 0.00705812 0.00327754 0.0206278 0.00296855 0.00864407 0.00297417 0.0275479 0.00382645 0.015737 0.00486275 0.0287358 0.00604505 0.0186298 0.00580599 0.0486095
49 1 Mg 1.25915 7.12349 0 1.2 1 0.000775984 0.00298503 0.00149947 0.00407898 0.00179723 0.00724304 0.00279415 0.0202541 0.00277026 0.00828457 0.00247768 0.0275469 0.00346336 0.0144226 0.00367815 0.0275779 0.00461036 0.0174421 0.00462637 0.0460179
50 3 O 2.84547 8.44087 5.78248 -1.2 1 0.00256618 0.00441218 0.00144775 0.00444472 0.0027053 0.00664469 0.00322077 0.0211329 0.00319686 0.00876545 0.00389242 0.0267047 0.00548625 0.0164645 0.00561653 0.0288298 0.00655917 0.0207835 0.00789117 0.049278
51 1 Mg -1.59284 7.16481 1.4948 1.2 1 0.000829629 0.0031788 0.0015436 0.00453356 0.00177328 0.00644012 0.00265239 0.0198761 0.00296588 0.00787797 0.00177617 0.0276848 0.00337704 0.0155856 0.00399023 0.0270739 0.00471758 0.0175501 0.00565322 0.046592
52 2 Si 0.240329 5.09994 1.4948 2.4 1 0.00104695 0.00359605 0.00216654 0.00414375 0.00191845 0.00681726 0.00294573 0.0189315 0.00309994 0.00738467 0.00231052 0.0260618 0.00284164 0.0145018 0.00434932 0.024754 0.00512223 0.0169383 0.00541802 0.0446824
53 3 O 0.234538 3.48671 1.4948 -1.2 1 0.00156267 0.00369039 0.00269419 0.00431104 0.00181642 0.00649914 0.00257739 0.0178877 0.00334772 0.00698947 0.00234558 0.0245477 0.00319065 0.013538 0.00407572 0.0239963 0.00552103 0.0161734 0.00551619 0.04246
54 3 O 6.85564 6.07396 1.4948 -1.2 1 0.00096104 0.00241658 0.00242441 0.00468688 0.00249294 0.00622444 0.00302708 0.0198082 0.00317925 0.00751309 0.00214464 0.0277292 0.00328011 0.0146665 0.00499666 0.0267642 0.00566761 0.0176725 0.00625965 0.045417
55 3 O -0.429565 5.80612 0.196716 -1.2 1 0.00076414 0.00325228 0.00237741 0.00417268 0.00170764 0.00712393 0.0024973 0.0195199 0.00287183 0.00848086 0.0024688 0.0256679 0.00274245 0.0142 0.00412995 0.0257846 0.00503442 0.0167697 0.00593509 0.0450986
56 3 O -0.473377 5.80612 2.79288 -1.2 1 0.0014858 0.00348482 0.00195727 0.00450822 0.00220285 0.00687369 0.00303283 0.0192095 0.00323788 0.00805085 0.0030262 0.0257953 0.0038348 0.0145963 0.00468575 0.0261165 0.00642689 0.0184928 0.00664426 0.0457858
57 1 Mg 6.40169 9.49799 0 1.2 1 0.000197397 0.00370724 0.00156765 0.00462691 0.00157147 0.00830692 0.00197412 0.0209843 0.00164859 0.00894648 0.00174897 0.0288599 0.00250985 0.0147921 0.00273396 0.0298213 0.00377282 0.0178687 0.00416864 0.0476289
58 1 Mg 3.64209 14.2057 1.4948 1.2 1 0.00173233 0.00301379 0.00182946 0.00432342 0.00175097 0.00880514 0.0017198 0.0217828 0.00161902 0.00882762 0.00230179 0.0282558 0.00266849 0.0161738 0.00301229 0.0295144 0.00345087 0.0168306 0.00343525 0.0496684
59 2 Si 5.45748 11.5215 1.4948 2.4 1 0.00143313 0.00312221 0.00182438 0.00450704 0.00174401 0.00821785 0.00212775 0.0212449 0.0016395 0.0084123 0.00176274 0.0287583 0.00272019 0.0162155 0.00354208 0.0292537 0.00394417 0.0167558 0.00386414 0.0493965
60 3 O 5.51101 13.1348 1.4948 -1.2 1 0.00163204 0.00318268 0.00197526 0.00441868 0.00162136 0.00908221 0.00181313 0.0212606 0.00184355 0.00871642 0.00168375 0.0292881 0.00227672 0.0161344 0.00288195 0.0298533 0.00362461 0.016459 0.00350352 0.0492877
61 3 O 1.83851 10.5475 1.4948 -1.2 1 0.000594942 0.00340575 0.00175518 0.00460099 0.00177702 0.00772061 0.002351 0.0215835 0.00184592 0.00848661 0.00205926 0.0293312 0.00262408 0.0157436 0.0033931 0.0297969 0.00399824 0.0177422 0.00352586 0.0492883
62 3 O 4.7611 10.8154 0.196716 -1.2 1 0.000716991 0.0028636 0.00184051 0.00459436 0.00156988 0.00849902 0.00217471 0.0213969 0.00152492 0.00883781 0.0019423 0.0283005 0.00303294 0.0155978 0.00392967 0.0294863 0.00372614 0.0170078 0.00361899 0.0486375
63 1 Mg 6.35203 9.49799 2.9896 1.2 1 0.001238 0.00348313 0.00171748 0.00448936 0.0025035 0.00766068 0.00344843 0.0204307 0.00322668 0.00857421 0.00222049 0.029101 0.003742 0.0161464 0.00336724 0.0290161 0.00437012 0.0182038 0.0055188 0.0487109
64 3 O 4.71833 10.8154 2.79288 -1.2 1 0.0019023 0.00324802 0.00167545 0.00422945 0.00214849 0.00818501 0.00227498 0.0213895 0.00213238 0.00900262 0.00213951 0.0283105 0.00335429 0.0158291 0.00389768 0.0299219 0.00505535 0.0181472 0.00545936 0.0501309
65 1 Mg -1.0438 9.53931 4.4844 1.2 1 0.00246547 0.00429971 0.00162625 0.00434556 0.00303706 0.00678963 0.00257772 0.0210092 0.00294366 0.00834597 0.00293762 0.0283141 0.00395512 0.0165082 0.00469174 0.0293906 0.00670795 0.019723 0.00714185 0.0498389
66 2 Si -2.8604 12.2234 4.4844 2.4 1 0.00283324 0.00397867 0.00179243 0.00414031 0.00269056 0.00775345 0.00310285 0.0218898 0.00287729 0.00854032 0.00269072 0.0282289 0.00431902 0.0164329 0.00446162 0.0297176 0.00580657 0.0192895 0.00655997 0.0517592
67 3 O -2.91391 10.6102 4.4844 -1.2 1 0.0029512 0.00410772 0.0017234 0.00412337 0.002925 0.00710249 0.003302 0.0206714 0.00280894 0.00788604 0.00243668 0.0285012 0.00425483 0.015779 0.00420091 0.0303083 0.0059017 0.0195563 0.00678738 0.050565
68 3 O 0.7596 13.1975 4.4844 -1.2 1 0.00273338 0.00382751 0.00193368 0.00474633 0.00288494 0.00861807 0.00257993 0.0223092 0.00281849 0.00836256 0.00300263 0.0287953 0.00429484 0.0162853 0.00412607 0.0297516 0.00589853 0.0192797 0.00660015 0.0516148
69 3 O -2.12001 12.9296 3.18632 -1.2 1 0.00291796 0.00345706 0.0018134 0.00392834 0.00250034 0.00767634 0.0023326 0.0219689 0.00248439 0.00850492 0.00237714 0.0278181 0.00372555 0.0160979 0.00464833 0.0302436 0.00515034 0.0183336 0.00534416 0.0509653
70 3 O -2.16532 12.9296 5.78248 -1.2 1 0.00342839 0.00403809 0.00152073 0.00427048 0.00271877 0.00697851 0.00222527 0.0221595 0.00252974 0.00844306 0.00299538 0.0276755 0.00414966 0.0167543 0.00471768 0.0305558 0.00643579 0.0206942 0.00721327 0.0529781
71 1 Mg 1.29891 11.8725 2.9896 1.2 1 0.00197115 0.0033293 0.00200463 0.00459218 0.00243788 0.0080732 0.00282975 0.0211469 0.00257701 0.00858485 0.00215949 0.029168 0.0034131 0.0163416 0.00342108 0.0299424 0.00448607 0.0177214 0.00482984 0.0500152
72 1 Mg 4.10033 11.8312 4.4844 1.2 1 0.00259917 0.00358085 0.00190151 0.0040729 0.00262109 0.00736965 0.00256142 0.021549 0.0027011 0.00833262 0.00304953 0.0286045 0.00379415 0.0169091 0.00524308 0.0301098 0.00664537 0.019193 0.00629406 0.0513685
73 2 Si 2.27333 13.896 4.4844 2.4 1 0.00278099 0.00333488 0.00179806 0.00469089 0.00303876 0.00796628 0.0031037 0.0220336 0.00247528 0.00834471 0.00312477 0.0283911 0.00399096 0.0168005 0.00429269 0.0298617 0.00547135 0.0188072 0.00596004 0.0525692
74 3 O 2.28634 15.5093 4.4844 -1.2 1 0.00271473 0.00374932 0.00169067 0.00446489 0.00301826 0.00755863 0.00270645 0.0212404 0.0025471 0.00767126 0.00253446 0.0289271 0.00374161 0.0160381 0.00398437 0.0305203 0.00580007 0.0187372 0.0063171 0.0520175
75 3 O -4.34533 12.922 4.4844 -1.2 1 0.00268602 0.00394089 0.00194766 0.00424977 0.00277467 0.0083844 0.00285088 0.0219337 0.002836 0.00855099 0.00264657 0.0287962 0.0041449 0.0162432 0.00457768 0.0300954 0.00644858 0.0194237 0.00728868 0.0514134
76 3 O 2.98455 13.1899 3.18632 -1.2 1 0.00230226 0.00328897 0.00168174 0.00414153 0.00254615 0.00787554 0.00208591 0.0218776 0.00231659 0.00867273 0.00259707 0.028062 0.00355658 0.0160224 0.00439816 0.0300624 0.00552247 0.0183169 0.00540846 0.050888
77 1 Mg 1.34779 11.8725 0 1.2 1 0.00107523 0.00292152 0.00131725 0.0045483 0.00140914 0.00884468 0.00162844 0.0212706 0.00124082 0.00918216 0.00178646 0.028991 0.00274305 0.0149843 0.00303866 0.0301587 0.00312528 0.017106 0.00314624 0.0483866
78 3 O 2.93934 13.1899 5.78248 -1.2 1 0.00293467 0.00405218 0.0015537 0.00460268 0.00270025 0.0070676 0.00236158 0.022368 0.00265995 0.0085374 0.00313607 0.0275469 0.00423392 0.016717 0.00445443 0.0309615 0.00620112 0.0212129 0.00671371 0.053104
79 1 Mg -1.50344 11.9138 1.4948 1.2 1 0.00111511 0.00338344 0.00143907 0.00435352 0.00159405 0.00836502 0.00188031 0.0215402 0.00244271 0.00853314 0.00155383 0.0287979 0.00354032 0.0161563 0.00335469 0.0298506 0.00339285 0.0173189 0.00375773 0.0492426
80 2 Si 0.326006 9.84894 1.4948 2.4 1 0.000277313 0.00341659 0.00127256 0.0048315 0.00182426 0.00823944 0.00209696 0.0211091 0.00217144 0.00851344 0.00158122 0.028643 0.00297822 0.0157512 0.00375842 0.0288012 0.00373092 0.0176366 0.00361787 0.048645
81 3 O 0.317364 8.23571 1.4948 -1.2 1 0.000925825 0.00344714 0.00115834 0.00445528 0.00180107 0.00769754 0.00211869 0.0203506 0.00259521 0.00804027 0.0018756 0.0287367 0.0034932 0.0157885 0.00407696 0.0285346 0.00442305 0.0175789 0.00434769 0.0477257
82 3 O 6.94307 10.823 1.4948 -1.2 1 0.00099067 0.00360703 0.00162662 0.00441173 0.00178915 0.00783499 0.0026045 0.0217581 0.0024179 0.00838439 0.00139858 0.0294444 0.00291547 0.0159145 0.00339466 0.0297997 0.00362585 0.0177332 0.00418482 0.0493003
83 3 O -0.343122 10.5551 0.196716 -1.2 1 0.000522936 0.0032297 0.00118838 0.00458248 0.00158909 0.00864765 0.00183918 0.0213428 0.00171098 0.00907543 0.00204629 0.0281844 0.00335211 0.0153778 0.00413076 0.0294338 0.0034691 0.0173284 0.00350153 0.0485753
84 3 O -0.385966 10.5551 2.79288 -1.2 1 0.00202048 0.00359835 0.00135208 0.00443131 0.00247114 0.00813784 0.0020773 0.0216537 0.00217442 0.00896031 0.0024158 0.0277262 0.00379136 0.016006 0.00410585 0.0298678 0.00508709 0.0185813 0.00503688 0.049935
85 1 Mg 6.49448 14.247 0 1.2 1 0.00136115 0.00339965 0.00169584 0.00455556 0.00119866 0.00919463 0.00113475 0.0212814 0.00132248 0.00871779 0.00147939 0.0287571 0.00183912 0.015585 0.00254933 0.0300157 0.0030504 0.016358 0.00281951 0.0482295
86 1 Mg 3.74457 18.9547 1.4948 1.2 1 0.00199776 0.00300976 0.00148506 0.00397596 0.00182209 0.00864235 0.001296 0.0222052 0.00184357 0.00805902 0.00231694 0.0276497 0.00261698 0.0166225 0.00350674 0.0287681 0.0034581 0.0162918 0.00338604 0.0499913
87 2 Si 5.55495 16.2705 1.4948 2.4 1 0.00207316 0.0028773 0.00161923 0.00428333 0.00182639 0.0089596 0.00147377 0.021532 0.00137285 0.00802751 0.00135282 0.0285199 0.00238161 0.0163496 0.00290673 0.0288286 0.0035339 0.0157693 0.00362415 0.0496206
88 3 O 5.6115 17.8838 1.4948 -1.2 1 0.00211582 0.00302287 0.00172142 0.00411889 0.00176714 0.00920067 0.00149052 0.0216829 0.00188564 0.00780786 0.00143265 0.0286671 0.00216924 0.0165681 0.00275234 0.028924 0.00324914 0.0156898 0.00347622 0.0496102
89 3 O 1.93416 15.2965 1.4948 -1.2 1 0.00189212 0.00303614 0.00181345 0.00441733 0.00182516 0.00836061 0.00209479 0.0219332 0.00193824 0.00815867 0.00144851 0.0291125 0.00223772 0.0163339 0.00293937 0.029745 0.00356589 0.0164444 0.00331283 0.0500414
90 3 O 4.85636 15.5644 0.196716 -1.2 1 0.00161532 0.00255185 0.00162978 0.00435262 0.00126614 0.00904333 0.00144118 0.0213439 0.0011155 0.00838052 0.00161694 0.028026 0.00273491 0.0162367 0.00346626 0.0293547 0.00322882 0.0155976 0.00293645 0.0490281
91 1 Mg 6.44662 14.247 2.9896 1.2 1 0.00176298 0.0035019 0.00167047 0.00426495 0.00240632 0.00847145 0.00289882 0.0209098 0.00265319 0.00861853 0.00190623 0.0293156 0.00323498 0.0163926 0.00308414 0.0295789 0.00395263 0.0173965 0.00457739 0.0500659
92 3 O 4.81537 15.5644 2.79288 -1.2 1 0.00251409 0.00286781 0.00165904 0.00416987 0.00233838 0.00876136 0.0016542 0.0218934 0.00162404 0.00867182 0.00184701 0.0280597 0.00283841 0.0163287 0.00357616 0.0297456 0.00458537 0.0171548 0.00485732 0.0506538
93 1 Mg -0.948271 14.2883 4.4844 1.2 1 0.00322437 0.00363026 0.00183116 0.00424132 0.00279892 0.00776484 0.00275438 0.0218281 0.00278701 0.00822541 0.00300053 0.0286285 0.00345282 0.0169267 0.00495608 0.0300641 0.00609278 0.0185944 0.00651522 0.0518036
94 2 Si -2.75928 16.9724 4.4844 2.4 1 0.00309227 0.00317601 0.00179457 0.00424299 0.00282931 0.00802151 0.00271062 0.0220416 0.00255008 0.00774856 0.00249507 0.0280019 0.00347074 0.016706 0.00450081 0.0294044 0.00513612 0.0181528 0.00587754 0.0526832
95 3 O -2.81617 15.3592 4.4844 -1.2 1 0.00332905 0.00353853 0.00183321 0.00409378 0.0029816 0.00762492 0.00287245 0.0212518 0.00257073 0.00765065 0.0024422 0.0286664 0.00380878 0.0159098 0.00402455 0.0301745 0.00594482 0.0183448 0.00654765 0.0517965
96 3 O 0.862762 17.9465 4.4844 -1.2 1 0.00265748 0.00347678 0.00157991 0.00447143 0.00302841 0.00852397 0.0024859 0.0225415 0.00253923 0.00770954 0.00272999 0.0285462 0.0037954 0.0168985 0.00421819 0.0292093 0.00571166 0.0183638 0.00609842 0.0521277
97 3 O -2.0185 17.6786 3.18632 -1.2 1 0.00268378 0.00311197 0.00190823 0.00373701 0.00257236 0.00767549 0.00214924 0.0223247 0.00242437 0.00785697 0.00227103 0.0274992 0.00353947 0.0162907 0.0043371 0.0297726 0.00466343 0.0174448 0.00507107 0.0514988
98 3 O -2.06164 17.6786 5.78248 -1.2 1 0.0033323 0.00362221 0.00141637 0.00443013 0.00282208 0.00721878 0.00224865 0.0225593 0.00240013 0.00775577 0.00277347 0.0274637 0.00353907 0.0171813 0.00480999 0.0307217 0.00613143 0.0203237 0.00630198 0.0542316
99 1 Mg 1.39817 16.6215 2.9896 1.2 1 0.00266194 0.0030955 0.00175314 0.00432199 0.00252603 0.00845934 0.00257 0.0212993 0.00250174 0.00807059 0.00212295 0.0288941 0.00282624 0.0167514 0.00338806 0.0293525 0.0041392 0.0166421 0.00427995 0.0504387
100 1 Mg 4.20062 16.5802 4.4844 1.2 1 0.00274788 0.00315137 0.00189589 0.00419968 0.00276449 0.00783554 0.00228291 0.0218636 0.00300337 0.00764741 0.00307845 0.0284351 0.00330189 0.0172201 0.00536765 0.0299852 0.00631757 0.0184516 0.00603899 0.0521986
101 2 Si 2.37796 18.645 4.4844 2.4 1 0.00228881 0.00295398 0.00160144 0.0044014 0.00290649 0.00816811 0.00274313 0.0224649 0.00256657 0.00781469 0.00263872 0.0275251 0.00352167 0.0171435 0.00408821 0.0290819 0.00505176 0.0180381 0.00555621 0.0529649
102 3 O 2.39434 20.2583 4.4844 -1.2 1 0.00256128 0.00342767 0.00155566 0.00418531 0.00288353 0.00709814 0.00235853 0.0214823 0.00271788 0.00716965 0.00204371 0.0280845 0.003303 0.0166601 0.00399646 0.0297234 0.00566807 0.0179046 0.00646251 0.0524306
103 3 O -4.24274 17.671 4.4844 -1.2 1 0.00239327 0.0034948 0.00189038 0.00440164 0.00281729 0.00872256 0.00252548 0.0224013 0.00274198 0.00765668 0.00255985 0.0284619 0.0033853 0.0166599 0.0045868 0.0297027 0.00589465 0.0186989 0.00641122 0.0524531
104 3 O 3.08659 17.9389 3.18632 -1.2 1 0.0026107 0.00271563 0.00172067 0.00386493 0.00254476 0.00806118 0.00189761 0.0222467 0.00221825 0.00797453 0.00236663 0.0276596 0.00315817 0.0165555 0.00430975 0.0295356 0.00527993 0.0173931 0.00538567 0.0514105
105 1 Mg 1.44478 16.6215 0 1.2 1 0.00226988 0.00273603 0.00135326 0.00425022 0.00136661 0.00905388 0.00124965 0.0214816 0.00125056 0.00828788 0.00141485 0.0284943 0.00239104 0.0158627 0.00237124 0.0292831 0.00282878 0.0158686 0.002938 0.0487747
106 3 O 3.0436 17.9389 5.78248 -1.2 1 0.00245194 0.00360905 0.00162317 0.00468068 0.00281485 0.00715219 0.00228607 0.0223584 0.00238353 0.00790752 0.00314994 0.0273061 0.00384645 0.0165915 0.00488163 0.0307587 0.00601324 0.020454 0.00632487 0.0541799
107 1 Mg -1.40524 16.6628 1.4948 1.2 1 0.00180111 0.00291028 0.00162366 0.00426089 0.00168143 0.00872736 0.00186721 0.0221567 0.00184723 0.00823359 0.00188685 0.028177 0.00313824 0.0167797 0.00300796 0.029287 0.00283375 0.0164572 0.00311045 0.0497423
108 2 Si 0.420358 14.5979 1.4948 2.4 1 0.00164368 0.00281326 0.00172207 0.00464289 0.00193865 0.00916694 0.00185758 0.0213329 0.00164101 0.00827409 0.00149717 0.0284498 0.00298584 0.0165346 0.00353453 0.0288824 0.00339762 0.0163364 0.00339175 0.0494652
109 3 O 0.408732 12.9847 1.4948 -1.2 1 0.00136795 0.00295907 0.00156379 0.0046433 0.00191098 0.00909101 0.0015256 0.0211967 0.00210424 0.00851998 0.00154418 0.0290862 0.00308073 0.0161029 0.00306274 0.0298564 0.00312426 0.0167394 0.00358933 0.0493665
110 3 O 7.03923 15.572 1.4948 -1.2 1 0.00179149 0.00314562 0.00183203 0.00436041 0.00187178 0.00833077 0.0023645 0.0217356 0.00219235 0.00808766 0.00148951 0.0291486 0.00258749 0.0164428 0.00288326 0.0297158 0.0032271 0.0165972 0.00378028 0.0497656
111 3 O -0.248332 15.3041 0.196716 -1.2 1 0.00191728 0.00267726 0.00137556 0.0043853 0.00123504 0.00913838 0.00174018 0.0212495 0.00121567 0.0083727 0.00170923 0.0279444 0.0029623 0.01607 0.00376621 0.0292733 0.00284686 0.0158665 0.00303067 0.0489829
112 3 O -0.289436 15.3041 2.79288 -1.2 1 0.00285089 0.00323153 0.00153418 0.00422982 0.00241502 0.00866806 0.00197769 0.022037 0.00188317 0.00868727 0.00204148 0.0275755 0.00314711 0.0167022 0.00369254 0.0296454 0.00441033 0.0176061 0.00452888 0.0508388
113 1 Mg 6.59566 18.996 0 1.2 1 0.00145533 0.00310886 0.00160992 0.00405718 0.000939646 0.00866025 0.00108188 0.0219232 0.00111 0.0077897 0.00142057 0.0280368 0.00196201 0.0164612 0.002353 0.028523 0.00283425 0.0157424 0.00280316 0.0486708
114 1 Mg 3.85574 23.7037 1.4948 1.2 1 0.00190584 0.00264105 0.00128479 0.00412451 0.00160489 0.00756993 0.00106466 0.0231436 0.0016733 0.00734061 0.00205995 0.0270679 0.00245772 0.0176651 0.00361192 0.0284373 0.00340033 0.0169768 0.00367785 0.0508589
115 2 Si 5.66125 21.0195 1.4948 2.4 1 0.00202352 0.00268532 0.00122622 0.00406859 0.00200645 0.00824003 0.00140384 0.0219359 0.00121059 0.00740197 0.0014326 0.0277876 0.0025927 0.0174147 0.00280195 0.0279228 0.00360227 0.0156795 0.00421087 0.0503963
116 3 O 5.72074 22.6328 1.4948 -1.2 1 0.00205812 0.00263959 0.00156908 0.00400281 0.0018193 0.00824955 0.00144926 0.0223671 0.00192252 0.00711898 0.00134406 0.0278255 0.00217383 0.0173651 0.00291285 0.0283611 0.00341875 0.0161164 0.00389739 0.0502202
117 3 O 2.03867 20.0455 1.4948 -1.2 1 0.00174654 0.00321399 0.0014938 0.00433243 0.00184224 0.007876 0.00198659 0.0222824 0.0022238 0.00744272 0.0014277 0.0283924 0.00223631 0.0172768 0.00253614 0.02886 0.00352803 0.0159133 0.00366464 0.0505246
118 3 O 4.96004 20.3134 0.196716 -1.2 1 0.00175755 0.00245223 0.00124972 0.00417351 0.0011612 0.00835434 0.00099361 0.0217891 0.00102116 0.00747456 0.00155899 0.0275668 0.0026328 0.0166949 0.00374332 0.0286126 0.00299897 0.0151041 0.0029729 0.0494695
119 1 Mg 6.55057 18.996 2.9896 1.2 1 0.00169679 0.00317059 0.00147517 0.003977 0.00252228 0.00810831 0.00263438 0.0213693 0.00250233 0.00782338 0.00180121 0.0287158 0.00291874 0.0168043 0.00293898 0.0288279 0.00385698 0.0166828 0.00469476 0.0506103