ITEM: TIMESTEP
8500
ITEM: NUMBER OF ATOMS
10500
ITEM: BOX BOUNDS xy xz yz pp pp pp
0	15.2974	5.099
0	118.725	0
0	89.688	0
ITEM: ATOMS id type element xu yu zu q Q_1 Q_2 Q_3 Q_4 Q_5 Q_6 Q_7 Q_8 Q_9 Q_10 Q_11 Q_12 Q_13 Q_14 Q_15 Q_16 Q_17 Q_18 Q_19 Q_20 Q_21
1 1 Mg 6.2404 -6.37941e-06 0 1.2 1 0.000963608 0.00439265 0.00136168 0.00485914 0.00136021 0.00560485 0.00222982 0.0161843 0.00228476 0.00578782 0.0020871 0.0218775 0.0024037 0.0136412 0.00321824 0.0204405 0.00391952 0.0142107 0.00392388 0.0404778
2 1 Mg 3.46349 4.70768 1.4948 1.2 1 0.00125388 0.00351428 0.00150255 0.00441742 0.00186845 0.00625492 0.00360942 0.0186151 0.002704 0.00688062 0.00297929 0.0256415 0.0030843 0.0139021 0.00421547 0.024867 0.00541379 0.0171018 0.00592199 0.0436867
3 2 Si 5.2885 2.02354 1.4948 2.4 1 0.000432307 0.00359483 0.00216648 0.00463332 0.00179312 0.00580649 0.00240238 0.0168929 0.0025057 0.0061146 0.00202696 0.0231263 0.00263716 0.01354 0.00335755 0.0210851 0.00382089 0.0152266 0.00425886 0.0409527
4 3 O 5.33628 3.63678 1.4948 -1.2 1 0.000835646 0.0030363 0.00176276 0.0047536 0.0020286 0.00644029 0.00294354 0.0177927 0.00221057 0.00663221 0.00184807 0.0251344 0.0024491 0.0137766 0.00408748 0.0236032 0.00502666 0.0163074 0.00575616 0.0427685
5 3 O 1.67294 1.04952 1.4948 -1.2 1 0.0014376 0.00350173 0.00188243 0.00419809 0.00131476 0.00584957 0.00250432 0.0168899 0.00242269 0.00588069 0.00211342 0.0227005 0.00266906 0.0128818 0.00312761 0.0214437 0.00472896 0.0155458 0.00495824 0.0402549
6 3 O 4.59532 1.31737 0.196716 -1.2 1 0.000858549 0.0031974 0.00209182 0.00447463 0.00198624 0.00567712 0.00250224 0.0171283 0.00287724 0.00633439 0.00196982 0.0223889 0.00301309 0.013004 0.0040224 0.0212734 0.00409099 0.0148235 0.00451805 0.0407951
7 1 Mg 6.18956 -6.37941e-06 2.9896 1.2 1 0.000725792 0.00470486 0.00153383 0.00427276 0.00149245 0.00581038 0.002305 0.0161963 0.00280275 0.00553103 0.00171177 0.0224283 0.00275756 0.0132301 0.00351728 0.0200143 0.00436881 0.0145768 0.00484877 0.0390802
8 3 O 4.55118 1.31737 2.79288 -1.2 1 0.00112432 0.00475502 0.00197463 0.00434155 0.00182307 0.00592323 0.00258057 0.0171175 0.0024922 0.00676674 0.0022667 0.0219201 0.00316746 0.0122208 0.00338248 0.0209732 0.00502767 0.0153846 0.00529887 0.040251
9 1 Mg -1.20682 0.0413099 4.4844 1.2 1 0.000687463 0.00312062 0.00176343 0.0048187 0.00150885 0.00552529 0.0021292 0.016394 0.002309 0.00570348 0.00207286 0.0229835 0.00313246 0.0116492 0.00336679 0.0202838 0.00530666 0.0157407 0.00513874 0.0390955
10 2 Si -3.0337 2.72544 4.4844 2.4 1 0.000626596 0.00373961 0.00179302 0.00502721 0.00236081 0.0062342 0.00338013 0.01697 0.00297807 0.00600701 0.00219909 0.0242114 0.0032457 0.0128505 0.00399653 0.0217368 0.00554669 0.0177841 0.00620119 0.0402603
11 3 O -3.08099 1.11221 4.4844 -1.2 1 0.000690758 0.00403928 0.00192582 0.0046076 0.00157502 0.00549738 0.00231213 0.0164434 0.00275901 0.0053201 0.00223134 0.0226479 0.00315526 0.0112117 0.00348433 0.020752 0.00519758 0.0162895 0.00551745 0.0388558
12 3 O 0.582463 3.69946 4.4844 -1.2 1 0.00174548 0.00464721 0.00179482 0.00457859 0.00236798 0.0069284 0.00367024 0.0173284 0.00341876 0.00638208 0.00307428 0.025001 0.00401016 0.0129173 0.00441821 0.0237574 0.00714445 0.0187238 0.008061 0.0421677
13 3 O -2.29524 3.43162 3.18632 -1.2 1 0.00115563 0.0032212 0.00243994 0.0045856 0.00213121 0.00615654 0.00306932 0.0179112 0.00313761 0.00659824 0.00248099 0.0247257 0.00323444 0.0130803 0.00447891 0.023753 0.0060557 0.017717 0.00676823 0.0424161
14 3 O -2.34216 3.43162 5.78248 -1.2 1 0.00136687 0.00396712 0.0010401 0.00528567 0.00278021 0.00622403 0.00337318 0.0173561 0.00276934 0.00696367 0.00309729 0.023904 0.00430724 0.0125024 0.0045963 0.0227408 0.00676598 0.0193599 0.00751172 0.0412126
15 1 Mg 1.12778 2.37449 2.9896 1.2 1 0.00130941 0.00387531 0.00208437 0.00460275 0.00207677 0.00605845 0.00307771 0.0168428 0.0026028 0.00599993 0.00231624 0.0236347 0.00329375 0.0129051 0.00333727 0.0214705 0.00505145 0.016508 0.00573503 0.0409522
16 1 Mg 3.92855 2.33318 4.4844 1.2 1 0.00147557 0.00465401 0.00146837 0.00451978 0.00183599 0.00580674 0.00348026 0.0171118 0.003162 0.00602992 0.00276587 0.0231392 0.00354294 0.013397 0.00508377 0.021315 0.00643916 0.0171752 0.00695912 0.0407483
17 2 Si 2.09341 4.39804 4.4844 2.4 1 0.00150826 0.00439096 0.00196405 0.00419073 0.0029361 0.00614468 0.00380953 0.0183193 0.00351932 0.00672598 0.00327857 0.0250674 0.00444582 0.0140376 0.00431311 0.0241488 0.00693782 0.018671 0.00849373 0.0438534
18 3 O 2.09991 6.01128 4.4844 -1.2 1 0.00233084 0.00441879 0.00173163 0.00418681 0.00301185 0.00680312 0.00342489 0.0192199 0.0028588 0.00718583 0.00311776 0.0268177 0.00406372 0.014425 0.00472335 0.0268477 0.00687917 0.019509 0.00809192 0.0458397
19 3 O -4.52137 3.42402 4.4844 -1.2 1 0.00119195 0.00422427 0.00213545 0.004708 0.00247467 0.00723357 0.00360325 0.0172172 0.0033536 0.00627366 0.00284004 0.0239736 0.00400441 0.0129896 0.00416168 0.0222444 0.00646947 0.0176646 0.00760192 0.0416198
20 3 O 2.80834 3.69187 3.18632 -1.2 1 0.00131931 0.00406905 0.00167751 0.00383529 0.00212591 0.0060021 0.00307035 0.0175078 0.00313751 0.00633737 0.0027344 0.0242632 0.00356579 0.0129552 0.00462366 0.0232962 0.00590298 0.0171201 0.00654496 0.0426429
21 1 Mg 1.17857 2.37449 0 1.2 1 0.00182446 0.00354366 0.00188718 0.0042176 0.00148261 0.00555574 0.0025883 0.0172164 0.00234059 0.00664352 0.00280651 0.0231322 0.00279133 0.0133083 0.00332209 0.0214333 0.00423787 0.0148594 0.00473434 0.0409014
22 3 O 2.76143 3.69187 5.78248 -1.2 1 0.00176372 0.00477395 0.00175979 0.00442856 0.00230321 0.00581461 0.00307861 0.017815 0.00323534 0.00713474 0.00290728 0.0236203 0.00450088 0.013189 0.00573547 0.0227765 0.00670102 0.0190223 0.00753415 0.0419803
23 1 Mg -1.67381 2.41581 1.4948 1.2 1 0.000999367 0.00279085 0.00229405 0.00486975 0.0014131 0.00612239 0.00241696 0.0166907 0.00270389 0.00629501 0.00204334 0.0241892 0.00242848 0.0142022 0.00264444 0.0219968 0.00434715 0.0160368 0.00490987 0.041794
24 2 Si 0.16286 0.350945 1.4948 2.4 1 0.00163881 0.00274038 0.00251928 0.00443879 0.00131745 0.00629148 0.00294893 0.0165309 0.00237096 0.00528542 0.00190889 0.0230026 0.00237176 0.0135662 0.00287915 0.0205511 0.00464149 0.0147221 0.0044871 0.0405598
25 3 O 0.15972 -1.26229 1.4948 -1.2 1 0.00161606 0.00276229 0.00280264 0.00454879 0.00184744 0.0060569 0.00261892 0.0164649 0.00236557 0.00543093 0.00241115 0.0227097 0.00263233 0.0138234 0.00277382 0.0213778 0.00426068 0.0145846 0.00402152 0.040833
26 3 O 6.77654 1.32496 1.4948 -1.2 1 0.00100192 0.00385933 0.00167583 0.00464129 0.00141123 0.0061493 0.00238652 0.0168279 0.00258653 0.00549869 0.00177509 0.0237728 0.00255593 0.0136096 0.00336173 0.0214915 0.00457304 0.0152012 0.00438851 0.0408696
27 3 O -0.508028 1.05712 0.196716 -1.2 1 0.0014039 0.00296271 0.00307795 0.00423367 0.00144934 0.00567426 0.00253425 0.0170589 0.0017834 0.00665804 0.00245027 0.0220654 0.00262612 0.012909 0.00296405 0.0209382 0.00417365 0.0150735 0.00437825 0.0400822
28 3 O -0.552171 1.05712 2.79288 -1.2 1 0.000753654 0.00263577 0.00265909 0.00453542 0.00138324 0.00611247 0.00230021 0.0162446 0.00265044 0.00592648 0.0017077 0.0229988 0.0029695 0.0115515 0.00357119 0.021062 0.00546421 0.0157758 0.00490607 0.0396793
29 1 Mg 6.31713 4.74899 0 1.2 1 0.000730539 0.00286946 0.00177358 0.00489856 0.00226693 0.00615593 0.00334401 0.0180497 0.00282324 0.00710712 0.00227071 0.0252743 0.00288823 0.0137717 0.00401674 0.0245467 0.00460481 0.016216 0.00614091 0.0427402
30 1 Mg 3.54847 9.45668 1.4948 1.2 1 0.00130853 0.00351198 0.00182135 0.0047975 0.00208304 0.0077598 0.00319697 0.0213247 0.0016539 0.00848922 0.00228822 0.0283216 0.00302182 0.0158102 0.00359169 0.0289746 0.00426934 0.0181242 0.00397452 0.0489007
31 2 Si 5.36879 6.77254 1.4948 2.4 1 0.000982652 0.00310913 0.00188474 0.00512935 0.00258524 0.00708134 0.00381865 0.0196175 0.00254886 0.00779248 0.00250358 0.0275838 0.00316029 0.0154839 0.00401914 0.0266309 0.00475679 0.0172926 0.00539355 0.0465745
32 3 O 5.41937 8.38578 1.4948 -1.2 1 0.00122406 0.00321101 0.00170024 0.0051322 0.002258 0.0078589 0.003275 0.0208809 0.00213464 0.008353 0.0023479 0.0289509 0.0022167 0.015698 0.00288824 0.0289444 0.00470526 0.0174391 0.00495989 0.048209
33 3 O 1.75158 5.79852 1.4948 -1.2 1 0.00132479 0.00349459 0.00159007 0.00421389 0.00242703 0.00613882 0.00337348 0.0194719 0.00268584 0.0072476 0.00269364 0.027726 0.00289452 0.0155859 0.00340904 0.0266147 0.00536395 0.0176666 0.00574431 0.0456774
34 3 O 4.67421 6.06637 0.196716 -1.2 1 0.000747808 0.00300854 0.001465 0.004843 0.00198302 0.00694102 0.00301292 0.0198404 0.00236947 0.00825609 0.00212075 0.0262444 0.00345521 0.0144065 0.00410209 0.0264345 0.00472839 0.0166131 0.00566368 0.0451295
35 1 Mg 6.26654 4.74899 2.9896 1.2 1 0.00155324 0.00333466 0.00217236 0.00488661 0.00255532 0.00676014 0.00381593 0.0179536 0.00371415 0.00703588 0.00221008 0.0261319 0.00375437 0.0146614 0.0049145 0.0245129 0.00590477 0.0175763 0.00711917 0.04382
36 3 O 4.63043 6.06637 2.79288 -1.2 1 0.00214238 0.00354926 0.00187844 0.00489249 0.00225703 0.00699467 0.00344452 0.0194673 0.00323477 0.00775084 0.00237083 0.0261694 0.00393239 0.0147228 0.00439478 0.0269854 0.00607994 0.0183711 0.0071006 0.0456947
37 1 Mg -1.12976 4.79031 4.4844 1.2 1 0.00185368 0.00414391 0.00157077 0.00504319 0.00240913 0.00659262 0.00338733 0.0180657 0.00339111 0.00699054 0.00297475 0.0261315 0.00420317 0.0143552 0.0044883 0.0251741 0.00761202 0.0191665 0.00830805 0.0446359
38 2 Si -2.9517 7.47444 4.4844 2.4 1 0.00241768 0.00408713 0.00149509 0.00531145 0.00303448 0.00678824 0.00395977 0.0202286 0.00313974 0.00771332 0.00309331 0.0277255 0.00454288 0.0160234 0.00536234 0.0276 0.00706259 0.0193289 0.0082171 0.0480439
39 3 O -3.00198 5.86121 4.4844 -1.2 1 0.00215115 0.00437525 0.00139288 0.00500997 0.00326286 0.00669271 0.00428389 0.0189144 0.00333836 0.00755005 0.00279378 0.026157 0.00443497 0.0142042 0.00478184 0.0263739 0.00721014 0.0195007 0.00852967 0.0459594
40 3 O 0.666315 8.44846 4.4844 -1.2 1 0.00278085 0.0050856 0.00135395 0.0051922 0.0029069 0.00778881 0.00320382 0.021116 0.00307126 0.00791117 0.00314599 0.0284011 0.00455933 0.0159441 0.00451535 0.0289645 0.00679675 0.0200666 0.00812089 0.0489032
41 3 O -2.21213 8.18062 3.18632 -1.2 1 0.0022872 0.00422936 0.00170348 0.00469515 0.00268052 0.00660516 0.00291583 0.0207891 0.00279485 0.00801909 0.00276748 0.0276768 0.00414453 0.016014 0.00491635 0.0286513 0.00590222 0.0188545 0.00670647 0.048959
42 3 O -2.25864 8.18062 5.78248 -1.2 1 0.00297221 0.00480741 0.00163093 0.00506565 0.00312882 0.00628027 0.0030544 0.0207615 0.00248303 0.00834083 0.00351024 0.0269798 0.00428275 0.0163681 0.00532083 0.0288353 0.00735871 0.0209616 0.00846884 0.0494245
43 1 Mg 1.20893 7.12349 2.9896 1.2 1 0.00198255 0.00403655 0.001661 0.00456761 0.0028938 0.00684959 0.00381632 0.0197326 0.00279609 0.00797429 0.00262107 0.0279478 0.00345581 0.0157673 0.00370151 0.0272017 0.00580184 0.0184658 0.00631407 0.0472321
44 1 Mg 4.00982 7.08218 4.4844 1.2 1 0.00237867 0.00402818 0.00171647 0.00493768 0.00272996 0.00664744 0.00388887 0.020121 0.00337949 0.00771055 0.00329558 0.0272751 0.00420456 0.016646 0.00581011 0.0274753 0.00754962 0.0194632 0.00832649 0.0473379
45 2 Si 2.17861 9.14704 4.4844 2.4 1 0.00265991 0.00448701 0.0017521 0.0051452 0.00309476 0.00760348 0.00382694 0.0212475 0.00285879 0.00817782 0.00313028 0.0280967 0.00453078 0.0165098 0.00448192 0.0291712 0.00619986 0.0198345 0.00721073 0.0506137
46 3 O 2.18828 10.7603 4.4844 -1.2 1 0.00330949 0.00459957 0.00207256 0.00503322 0.00287331 0.00732504 0.00319988 0.0209849 0.00264904 0.00813173 0.00236158 0.0287911 0.00405739 0.0158647 0.00433077 0.0302864 0.00618194 0.0199673 0.00679043 0.0512448
47 3 O -4.43805 8.17302 4.4844 -1.2 1 0.00218141 0.00456445 0.0017504 0.00534612 0.00268612 0.00792225 0.00339082 0.0208129 0.00319965 0.0081975 0.00320817 0.0282806 0.00449645 0.0160434 0.00488683 0.0289168 0.00700559 0.0195966 0.00876079 0.0487698
48 3 O 2.89193 8.44087 3.18632 -1.2 1 0.00256174 0.00387264 0.00166415 0.00456801 0.00246211 0.00692326 0.00340534 0.0206135 0.00285879 0.00848734 0.00297632 0.027496 0.00390754 0.0159118 0.00473409 0.0287537 0.00616488 0.0189409 0.00603713 0.0489468
49 1 Mg 1.25915 7.12349 0 1.2 1 0.000733918 0.00311833 0.00145114 0.00432017 0.00174208 0.00728871 0.00293265 0.0202075 0.00270602 0.0081408 0.00240463 0.0274251 0.00336289 0.0145959 0.00333061 0.0275817 0.00464975 0.0173803 0.00457893 0.0462802
50 3 O 2.84547 8.44087 5.78248 -1.2 1 0.00249769 0.00476653 0.00161785 0.00508425 0.00266476 0.00675 0.00324403 0.0209792 0.00303436 0.00860646 0.00341996 0.0269704 0.00532943 0.0160974 0.00519467 0.0290916 0.00643417 0.0214091 0.00783039 0.0499415
51 1 Mg -1.59284 7.16481 1.4948 1.2 1 0.00111946 0.00333713 0.001263 0.00470027 0.00186547 0.00646429 0.00285311 0.0199928 0.00282288 0.00784828 0.00173437 0.0276241 0.00328752 0.0157244 0.00359957 0.0269743 0.00473179 0.0176631 0.00569152 0.0468577
52 2 Si 0.240329 5.09994 1.4948 2.4 1 0.00114923 0.00366776 0.00177123 0.00420811 0.00190254 0.00689598 0.00315005 0.0189356 0.00299633 0.0073173 0.00227869 0.025955 0.0028552 0.0146267 0.00393808 0.0246433 0.00516983 0.0169794 0.00544827 0.04483
53 3 O 0.234538 3.48671 1.4948 -1.2 1 0.0014659 0.00384739 0.00224499 0.00438594 0.00186495 0.00654669 0.00269047 0.0179078 0.00337559 0.00685903 0.00238832 0.0244772 0.0032088 0.0136426 0.00378369 0.023811 0.00552386 0.0160766 0.00563336 0.0425538
54 3 O 6.85564 6.07396 1.4948 -1.2 1 0.00133179 0.0028433 0.00215276 0.00488087 0.00239525 0.00629881 0.00316003 0.0198857 0.00311925 0.00756311 0.00209832 0.0275136 0.00336556 0.0147453 0.0047344 0.0266571 0.00559454 0.0177002 0.00638023 0.0455063
55 3 O -0.429565 5.80612 0.196716 -1.2 1 0.000738407 0.00340704 0.00197776 0.00426861 0.00173001 0.00712487 0.0026843 0.0194623 0.00274973 0.00828538 0.00252014 0.0255094 0.00266228 0.0142315 0.00361095 0.0258635 0.00507733 0.0167063 0.00588868 0.0452079
56 3 O -0.473377 5.80612 2.79288 -1.2 1 0.00207005 0.00392848 0.00153468 0.00471564 0.00226244 0.00706404 0.00324646 0.0190875 0.00298399 0.00778686 0.00297472 0.0258107 0.00373761 0.0145162 0.00440654 0.025962 0.00649892 0.0185127 0.00701746 0.0459213
57 1 Mg 6.40169 9.49799 0 1.2 1 0.000217494 0.00371901 0.001485 0.00485592 0.00152437 0.00833626 0.0021659 0.0211226 0.00154849 0.00894165 0.0017823 0.0288009 0.00246716 0.0149839 0.00253215 0.0297085 0.00367858 0.017762 0.00403014 0.0477188
58 1 Mg 3.64209 14.2057 1.4948 1.2 1 0.00174728 0.00332962 0.00142572 0.004684 0.00170875 0.0087946 0.00160404 0.0216265 0.00164358 0.00869251 0.00219615 0.0282511 0.00255341 0.0162765 0.00303507 0.0295182 0.00360122 0.0168966 0.00330644 0.0497096
59 2 Si 5.45748 11.5215 1.4948 2.4 1 0.00177492 0.00344883 0.00161673 0.00480582 0.00183349 0.0082549 0.0021955 0.0211673 0.0015685 0.00837134 0.00173235 0.0287051 0.00265174 0.0163043 0.0033523 0.0291834 0.00406484 0.0169137 0.00370112 0.0495422
60 3 O 5.51101 13.1348 1.4948 -1.2 1 0.00172216 0.00336319 0.00170234 0.00488224 0.00161287 0.00917407 0.00182978 0.0211597 0.00179859 0.00867196 0.00151205 0.0292738 0.0020727 0.0162145 0.00274903 0.0299343 0.0037464 0.0165625 0.00339885 0.0494806
61 3 O 1.83851 10.5475 1.4948 -1.2 1 0.000963644 0.00374288 0.00173187 0.00497773 0.00201221 0.00782113 0.00245617 0.0216347 0.00175666 0.00838236 0.0022096 0.0292497 0.00254565 0.0159917 0.00317997 0.0297262 0.00411859 0.0178369 0.00356226 0.0496081
62 3 O 4.7611 10.8154 0.196716 -1.2 1 0.000746456 0.00320206 0.00162983 0.00489395 0.00166146 0.00855736 0.00214326 0.0212447 0.00139499 0.00861288 0.00189221 0.0281648 0.00286858 0.0156008 0.00367175 0.0294647 0.00359409 0.017127 0.0035479 0.0487542
63 1 Mg 6.35203 9.49799 2.9896 1.2 1 0.00178554 0.00400046 0.00164688 0.00500823 0.00270374 0.00769266 0.0035694 0.0204538 0.00307903 0.00857475 0.00199722 0.0292399 0.00379274 0.0163478 0.00333683 0.0290132 0.00456486 0.0184135 0.0054351 0.0489687
64 3 O 4.71833 10.8154 2.79288 -1.2 1 0.00251467 0.00370017 0.00174987 0.00478921 0.00221182 0.00825458 0.00223207 0.0212466 0.00212589 0.0088764 0.00206006 0.0282338 0.0034667 0.0158768 0.00390383 0.0298859 0.00535773 0.0181875 0.00544646 0.0503572
65 1 Mg -1.0438 9.53931 4.4844 1.2 1 0.00304698 0.00496154 0.0016268 0.00491051 0.00307025 0.00704009 0.00276937 0.0210432 0.00287581 0.00837737 0.00284395 0.0284645 0.00388613 0.0165578 0.00443459 0.029692 0.00670155 0.0199559 0.00740649 0.0505048
66 2 Si -2.8604 12.2234 4.4844 2.4 1 0.00287471 0.00435234 0.0019088 0.0049292 0.00287703 0.00788522 0.00331629 0.0218519 0.00283196 0.00838183 0.0023524 0.0282404 0.00413095 0.0165931 0.00443199 0.02977 0.00575846 0.0193508 0.00641302 0.051955
67 3 O -2.91391 10.6102 4.4844 -1.2 1 0.00317601 0.00462782 0.00185975 0.00479773 0.00306925 0.00718592 0.00348547 0.0207748 0.00276075 0.00774533 0.00212057 0.0285952 0.00417876 0.0159933 0.00413551 0.0302995 0.00603416 0.0196169 0.00670919 0.0509254
68 3 O 0.7596 13.1975 4.4844 -1.2 1 0.00319397 0.00455176 0.0020042 0.00542791 0.00288881 0.00873201 0.00273183 0.022178 0.00289518 0.008266 0.00285833 0.0287608 0.00411852 0.0163066 0.00419962 0.0300079 0.00599235 0.0195216 0.0066612 0.0519091
69 3 O -2.12001 12.9296 3.18632 -1.2 1 0.00293255 0.00421208 0.00178816 0.00458408 0.00255475 0.00765395 0.00230108 0.0218716 0.00234452 0.00831321 0.00235411 0.0279715 0.0035462 0.0164956 0.00425796 0.0303765 0.00520011 0.0184239 0.00531757 0.0513967
70 3 O -2.16532 12.9296 5.78248 -1.2 1 0.00342128 0.00466649 0.00187985 0.00513569 0.00296979 0.0069797 0.00254102 0.022211 0.00245576 0.00821916 0.00314704 0.0275912 0.00397576 0.0167982 0.00557633 0.0306333 0.00623302 0.0210642 0.00668489 0.0536824
71 1 Mg 1.29891 11.8725 2.9896 1.2 1 0.00237171 0.00383483 0.00190783 0.00513485 0.00254772 0.00815563 0.00279021 0.0210828 0.00255641 0.00841582 0.00215628 0.0289805 0.00333503 0.0163354 0.00333648 0.029792 0.00462959 0.0179301 0.00489093 0.0502169
72 1 Mg 4.10033 11.8312 4.4844 1.2 1 0.00306725 0.00421054 0.00199837 0.00471503 0.0026174 0.00748412 0.00266641 0.0214742 0.00252654 0.00805108 0.00280127 0.0287534 0.00363849 0.0172737 0.00489856 0.0300028 0.00682288 0.0194024 0.00635981 0.0517674
73 2 Si 2.27333 13.896 4.4844 2.4 1 0.00294735 0.00421065 0.00189974 0.00552161 0.00311578 0.00804625 0.00329255 0.0217131 0.00260686 0.00811559 0.00299169 0.0284021 0.00382195 0.0166932 0.00444782 0.0299198 0.0056908 0.0188849 0.00618563 0.0527355
74 3 O 2.28634 15.5093 4.4844 -1.2 1 0.00334567 0.00452412 0.00201616 0.00502114 0.0031635 0.00741423 0.00283952 0.0210596 0.0025946 0.00750148 0.00225262 0.0284676 0.00319216 0.0160834 0.00399187 0.0305802 0.00583087 0.0188753 0.00638696 0.0526183
75 3 O -4.34533 12.922 4.4844 -1.2 1 0.00269945 0.00448579 0.00226349 0.00506467 0.0029474 0.00852171 0.0032217 0.0218832 0.00283647 0.00832163 0.00243279 0.0285897 0.00410781 0.0162478 0.00442446 0.0302109 0.00655593 0.0198328 0.00714871 0.051852
76 3 O 2.98455 13.1899 3.18632 -1.2 1 0.00273231 0.00375032 0.00185991 0.00474326 0.00254304 0.00802434 0.00221998 0.0217705 0.00227399 0.00848006 0.0023495 0.0279645 0.00340912 0.0161092 0.00427555 0.0298609 0.00560083 0.0183503 0.00544978 0.0510457
77 1 Mg 1.34779 11.8725 0 1.2 1 0.00111965 0.00319714 0.00122408 0.0048701 0.00148341 0.00896909 0.00161004 0.0211821 0.00131816 0.00910254 0.00187933 0.0288821 0.00269726 0.015007 0.00294076 0.0301149 0.00310463 0.0171673 0.00314215 0.0483877
78 3 O 2.93934 13.1899 5.78248 -1.2 1 0.00324371 0.00473685 0.00189357 0.00550391 0.0028995 0.00713564 0.00259691 0.022044 0.00270934 0.00831409 0.00299528 0.0274161 0.00435267 0.0167605 0.00440959 0.0307105 0.00644823 0.0213833 0.00686249 0.0537476
79 1 Mg -1.50344 11.9138 1.4948 1.2 1 0.0013311 0.00385624 0.00154272 0.00472574 0.00154662 0.00828686 0.0018823 0.0216367 0.00241019 0.0084231 0.00149421 0.0285798 0.00351695 0.0162466 0.00309573 0.029696 0.00342006 0.0175697 0.00364834 0.0494161
80 2 Si 0.326006 9.84894 1.4948 2.4 1 0.000704214 0.00360156 0.00120697 0.00507461 0.0019828 0.0081873 0.00216954 0.0210657 0.00208503 0.00842213 0.00162035 0.0285926 0.00289772 0.0157755 0.00348874 0.0288355 0.00383874 0.017668 0.00357623 0.048913
81 3 O 0.317364 8.23571 1.4948 -1.2 1 0.00143007 0.00370209 0.00117929 0.00466591 0.00199024 0.00771946 0.00230074 0.0203142 0.00252487 0.00794629 0.00178955 0.0285283 0.00339009 0.0159035 0.00367987 0.0283735 0.00458357 0.0177175 0.00438705 0.0478891
82 3 O 6.94307 10.823 1.4948 -1.2 1 0.0012587 0.00386769 0.00153119 0.00478634 0.0019015 0.00778686 0.00275051 0.0218301 0.00222493 0.00835676 0.001479 0.0293985 0.00294065 0.0159683 0.00331655 0.0298344 0.0037914 0.0178831 0.00395285 0.0495067
83 3 O -0.343122 10.5551 0.196716 -1.2 1 0.000600576 0.00339527 0.00126759 0.00490791 0.00151004 0.00869628 0.00196996 0.0212341 0.00168994 0.00892833 0.00192831 0.0280954 0.00317957 0.0155032 0.00400053 0.0294296 0.00352459 0.0174323 0.00348088 0.0486258
84 3 O -0.385966 10.5551 2.79288 -1.2 1 0.00279573 0.00419388 0.00128317 0.00480232 0.00265609 0.00804397 0.0023284 0.0218121 0.00220455 0.00908331 0.00232135 0.0277082 0.00363512 0.0160813 0.00398696 0.0297809 0.00513686 0.0187383 0.00515889 0.0504055
85 1 Mg 6.49448 14.247 0 1.2 1 0.0012197 0.00342688 0.00155118 0.0049578 0.00135726 0.00921642 0.00131915 0.0212176 0.00123905 0.00867842 0.00134648 0.0287114 0.00159506 0.0154803 0.0023648 0.0300255 0.0030159 0.0165086 0.00273303 0.048134
86 1 Mg 3.74457 18.9547 1.4948 1.2 1 0.00180169 0.00334088 0.00137816 0.00418894 0.00197351 0.00856218 0.00131776 0.0221817 0.001941 0.00794233 0.00229531 0.0276325 0.002476 0.0165675 0.00354273 0.0288078 0.00344098 0.0164506 0.00338224 0.050036
87 2 Si 5.55495 16.2705 1.4948 2.4 1 0.00196335 0.00307076 0.00143769 0.00470866 0.0019356 0.00894911 0.00140582 0.0213246 0.00139222 0.00794622 0.00132633 0.028628 0.00229976 0.0162974 0.00280003 0.028997 0.0037352 0.0159839 0.00358004 0.0497007
88 3 O 5.6115 17.8838 1.4948 -1.2 1 0.00176465 0.00322577 0.00136516 0.00441906 0.00193134 0.00908485 0.00141953 0.0216306 0.00186324 0.00777389 0.00154632 0.0284948 0.0021328 0.0164179 0.0028428 0.0290494 0.00320541 0.0159282 0.00351331 0.0496853
89 3 O 1.93416 15.2965 1.4948 -1.2 1 0.00177667 0.00318981 0.00155379 0.00459373 0.00180425 0.0084046 0.00197416 0.0218122 0.00190295 0.00807467 0.001446 0.0290938 0.00188683 0.0163216 0.00268397 0.0296731 0.00370558 0.0166631 0.00318861 0.0500341
90 3 O 4.85636 15.5644 0.196716 -1.2 1 0.00159316 0.0026235 0.0012446 0.00454403 0.00136722 0.00911285 0.00143822 0.0213399 0.000979895 0.00831988 0.00168714 0.0279333 0.00260205 0.0160837 0.00342901 0.0293279 0.0032053 0.0157834 0.00291358 0.0489778
91 1 Mg 6.44662 14.247 2.9896 1.2 1 0.00178878 0.00386379 0.00154559 0.00488673 0.00259853 0.00854623 0.00289605 0.0208818 0.00256639 0.00849529 0.00168667 0.0292155 0.00287995 0.0164619 0.00289227 0.029623 0.00409958 0.0175171 0.00459954 0.0503597
92 3 O 4.81537 15.5644 2.79288 -1.2 1 0.00261151 0.00350648 0.00147934 0.00465546 0.00246805 0.00883134 0.00166166 0.0217888 0.00168788 0.00837886 0.0017881 0.0279535 0.00278586 0.016347 0.00347082 0.0296907 0.00474803 0.0173202 0.00485683 0.0508683
93 1 Mg -0.948271 14.2883 4.4844 1.2 1 0.00349211 0.00423652 0.00186198 0.00482244 0.0029023 0.00787972 0.00277707 0.021717 0.00272134 0.008154 0.00278206 0.0284248 0.00328209 0.0169799 0.00485253 0.0303245 0.00584757 0.019153 0.00637374 0.052465
94 2 Si -2.75928 16.9724 4.4844 2.4 1 0.00305261 0.00410004 0.00194 0.0050339 0.00306406 0.00812587 0.00304159 0.0221674 0.00260357 0.00772064 0.00263288 0.0280344 0.00349721 0.0169997 0.00471943 0.0296197 0.00506181 0.0186827 0.0058184 0.0530109
95 3 O -2.81617 15.3592 4.4844 -1.2 1 0.00323685 0.00428551 0.00199661 0.0048089 0.00306442 0.00767822 0.00290663 0.0212268 0.00256553 0.00758134 0.00226594 0.0285481 0.00361849 0.0161473 0.00418485 0.0303221 0.0058668 0.0187484 0.0063657 0.0523419
96 3 O 0.862762 17.9465 4.4844 -1.2 1 0.00313245 0.00429067 0.00181089 0.00510757 0.00324271 0.00859877 0.00271309 0.0223354 0.00272777 0.00759577 0.00277228 0.028655 0.00370105 0.0169991 0.00468483 0.0294078 0.00571241 0.0187607 0.00620039 0.0525118
97 3 O -2.0185 17.6786 3.18632 -1.2 1 0.00263954 0.00368722 0.00196347 0.00441817 0.00285564 0.0077745 0.00234359 0.0223622 0.00232845 0.00768925 0.0020681 0.027619 0.00336954 0.0165546 0.00430423 0.0297757 0.00475158 0.0176504 0.00516935 0.0517274
98 3 O -2.06164 17.6786 5.78248 -1.2 1 0.00371119 0.00454377 0.00181898 0.00508244 0.0029893 0.00715725 0.00259167 0.0223388 0.00237595 0.00769723 0.00263882 0.0277096 0.0036149 0.0176334 0.00483569 0.0307762 0.0058249 0.0205052 0.00618893 0.0548168
99 1 Mg 1.39817 16.6215 2.9896 1.2 1 0.00255064 0.00369325 0.00184338 0.00464077 0.00261057 0.00843714 0.00266303 0.0212037 0.00261151 0.00800042 0.00222703 0.0288556 0.00268817 0.0166995 0.00338539 0.0293975 0.00414351 0.0169589 0.00428063 0.0505018
100 1 Mg 4.20062 16.5802 4.4844 1.2 1 0.00310463 0.0041654 0.0019886 0.00483792 0.00286162 0.00762658 0.00250429 0.021739 0.0029753 0.0076434 0.00294649 0.0285496 0.00344661 0.0174628 0.00535953 0.0301025 0.00625313 0.0189017 0.00597764 0.0525291
101 2 Si 2.37796 18.645 4.4844 2.4 1 0.00272451 0.00380442 0.00162594 0.00498743 0.00308557 0.00811159 0.00296846 0.0223888 0.00270108 0.00776396 0.00266504 0.0276249 0.00335774 0.0172882 0.00440626 0.0294087 0.00523804 0.0183971 0.00591036 0.0536435
102 3 O 2.39434 20.2583 4.4844 -1.2 1 0.00280269 0.00434597 0.00152347 0.00471532 0.00303221 0.00717285 0.00283797 0.0214931 0.00280768 0.00713532 0.00199003 0.0284631 0.0032744 0.0167872 0.00409709 0.029964 0.00574208 0.01841 0.00662955 0.0529491
103 3 O -4.24274 17.671 4.4844 -1.2 1 0.00276022 0.00419389 0.00200802 0.00497057 0.00298594 0.00874608 0.00273419 0.0224362 0.00283424 0.00770032 0.00246878 0.0284751 0.00333999 0.0169259 0.00485451 0.0298775 0.00598516 0.0190509 0.00640441 0.052556
104 3 O 3.08659 17.9389 3.18632 -1.2 1 0.0027653 0.00364529 0.00167487 0.00425796 0.00277855 0.00784786 0.00191458 0.0222186 0.00245918 0.00778186 0.00221224 0.027511 0.00313478 0.0165278 0.00434401 0.0295609 0.005357 0.0177372 0.00541257 0.0516371
105 1 Mg 1.44478 16.6215 0 1.2 1 0.00214294 0.00303186 0.000976798 0.00441383 0.00135562 0.00892012 0.000998304 0.021446 0.00141138 0.00820688 0.00152539 0.0285106 0.00222042 0.0157822 0.00211948 0.0292809 0.00296416 0.016061 0.00286711 0.048715
106 3 O 3.0436 17.9389 5.78248 -1.2 1 0.00300693 0.00440441 0.00172939 0.00515149 0.00287588 0.00715302 0.00255372 0.0223572 0.00239783 0.00794357 0.00282163 0.0275002 0.00359723 0.0170367 0.00474134 0.0307563 0.00607142 0.0207824 0.00630289 0.0547563
107 1 Mg -1.40524 16.6628 1.4948 1.2 1 0.00152633 0.00342541 0.00145461 0.00454971 0.00178514 0.00877649 0.00178794 0.0221679 0.00205195 0.0081164 0.00189281 0.0282379 0.00294552 0.0166932 0.0026798 0.0293616 0.00299691 0.0166474 0.00302154 0.0496455
108 2 Si 0.420358 14.5979 1.4948 2.4 1 0.00163135 0.00322515 0.00149531 0.00482133 0.0020016 0.00913189 0.00179821 0.0213176 0.00174359 0.00826481 0.0014382 0.0284641 0.00258861 0.0164567 0.00325889 0.0288494 0.00346765 0.0164463 0.00330698 0.0493884
109 3 O 0.408732 12.9847 1.4948 -1.2 1 0.00157106 0.00340372 0.00136367 0.00498331 0.0020156 0.00915618 0.00148959 0.0211635 0.00217433 0.00838192 0.00143346 0.0289575 0.00294773 0.0161285 0.00276393 0.0297754 0.00326965 0.0168654 0.00357436 0.0494647
110 3 O 7.03923 15.572 1.4948 -1.2 1 0.0015608 0.00337294 0.00141698 0.00466556 0.00207805 0.00829852 0.00216465 0.0217463 0.00217595 0.00807312 0.00163916 0.0291364 0.00244929 0.016358 0.00284262 0.0296848 0.00344359 0.0168211 0.00363875 0.0498396
111 3 O -0.248332 15.3041 0.196716 -1.2 1 0.00166629 0.00290753 0.00123157 0.00460471 0.00133232 0.0089631 0.00173472 0.021215 0.00139153 0.00832916 0.00156541 0.028019 0.00271506 0.0159821 0.00342007 0.0292307 0.00296729 0.0160322 0.002931 0.048937
112 3 O -0.289436 15.3041 2.79288 -1.2 1 0.00305571 0.00383606 0.00159291 0.00462584 0.00246353 0.00874248 0.00197039 0.0219312 0.00184216 0.00846101 0.00189695 0.0274168 0.00279044 0.0165875 0.00345886 0.0296768 0.00437101 0.0177427 0.00461546 0.0509819
113 1 Mg 6.59566 18.996 0 1.2 1 0.00142078 0.0030891 0.00145401 0.00416144 0.0011718 0.00859902 0.00109999 0.0217951 0.00117591 0.00776479 0.00147675 0.0280899 0.00196213 0.0162818 0.00222861 0.0286601 0.00284756 0.0158254 0.00278006 0.0487238
114 1 Mg 3.85574 23.7037 1.4948 1.2 1 0.00176103 0.00282536 0.0012967 0.00419244 0.00172858 0.00748363 0.00117215 0.0231781 0.00178626 0.00746502 0.00226536 0.0271652 0.00244723 0.0175699 0.00373458 0.0283737 0.00349691 0.0171098 0.00360342 0.0508587
115 2 Si 5.66125 21.0195 1.4948 2.4 1 0.0015912 0.00284977 0.0011388 0.00418861 0.0021655 0.00819372 0.00158632 0.0218401 0.00147559 0.00747056 0.00163476 0.0279673 0.00244615 0.0171557 0.00274818 0.0281447 0.00355111 0.0157713 0.00402095 0.0502124
116 3 O 5.72074 22.6328 1.4948 -1.2 1 0.00166085 0.00283507 0.00149488 0.00410641 0.00194621 0.00810256 0.00160163 0.0223977 0.00188817 0.00726445 0.00134253 0.0278682 0.00222814 0.0172177 0.003027 0.0283617 0.00332783 0.0161724 0.00371545 0.0502166
117 3 O 2.03867 20.0455 1.4948 -1.2 1 0.00149289 0.00353707 0.00147892 0.00443188 0.00204349 0.00785061 0.00204365 0.0222564 0.00226842 0.00741343 0.00157798 0.0283338 0.00224165 0.0171591 0.00247455 0.0289542 0.0035352 0.0160465 0.00353693 0.0505054
118 3 O 4.96004 20.3134 0.196716 -1.2 1 0.00187082 0.00254988 0.00150343 0.00406134 0.00139599 0.00831759 0.00114325 0.0216298 0.00121962 0.00745351 0.00170117 0.027561 0.00266915 0.0165191 0.00377933 0.0286179 0.00302348 0.0151354 0.00295964 0.0494378
119 1 Mg 6.55057 18.996 2.9896 1.2 1 0.00154931 0.0035674 0.00139006 0.00452855 0.00277631 0.00825278 0.00286283 0.0213828 0.00253105 0.00769442 0.00172457 0.0288648 0.00289345 0.0169594 0.00294289 0.0289146 0.00393681 0.0170719 0.00472461 0.0509464