ITEM: TIMESTEP
8600
ITEM: NUMBER OF ATOMS
10500
ITEM: BOX BOUNDS xy xz yz pp pp pp
0	15.2974	5.099
0	118.725	0
0	89.688	0
ITEM: ATOMS id type element xu yu zu q Q_1 Q_2 Q_3 Q_4 Q_5 Q_6 Q_7 Q_8 Q_9 Q_10 Q_11 Q_12 Q_13 Q_14 Q_15 Q_16 Q_17 Q_18 Q_19 Q_20 Q_21
1 1 Mg 6.2404 -6.37941e-06 0 1.2 1 0.00169544 0.00437281 0.00111634 0.00501365 0.00124052 0.00581786 0.00233341 0.0160931 0.00227694 0.00560236 0.00221165 0.0216376 0.00252008 0.0135855 0.00337443 0.0205842 0.00398045 0.0141776 0.00385481 0.040808
2 1 Mg 3.46349 4.70768 1.4948 1.2 1 0.0012161 0.00356074 0.00191106 0.00420982 0.00223455 0.00619689 0.00347819 0.0189194 0.00292185 0.00695587 0.00286007 0.0256544 0.00335764 0.0139476 0.00431775 0.0250983 0.00538059 0.0168138 0.00561862 0.0441368
3 2 Si 5.2885 2.02354 1.4948 2.4 1 0.00101137 0.00371463 0.00207741 0.0045779 0.00199454 0.00600528 0.00262391 0.0171978 0.00254385 0.00607179 0.00209538 0.0231243 0.00277337 0.0136162 0.00371372 0.0214996 0.00402339 0.0152867 0.00438248 0.0415036
4 3 O 5.33628 3.63678 1.4948 -1.2 1 0.000591148 0.00315747 0.00186524 0.00470258 0.00232851 0.00652547 0.00302828 0.0178444 0.00234549 0.00676419 0.00196529 0.0250641 0.00257122 0.0136808 0.00428653 0.0240217 0.00512834 0.0162422 0.00583242 0.0431007
5 3 O 1.67294 1.04952 1.4948 -1.2 1 0.00195461 0.00380652 0.00184986 0.0041828 0.00136029 0.00590969 0.00263187 0.0169684 0.00243335 0.00583196 0.00199399 0.0224816 0.00254472 0.0129509 0.00332112 0.0217713 0.00476731 0.015461 0.0049628 0.0404353
6 3 O 4.59532 1.31737 0.196716 -1.2 1 0.00163308 0.00318021 0.0019474 0.00437725 0.00196326 0.00592763 0.00250871 0.0171812 0.0029609 0.00620581 0.00197334 0.022192 0.00324572 0.0129488 0.00422117 0.0214092 0.00420673 0.0148403 0.00446151 0.0411189
7 1 Mg 6.18956 -6.37941e-06 2.9896 1.2 1 0.000916572 0.00472966 0.00140001 0.00446572 0.00131636 0.00599769 0.00264687 0.0162603 0.00279366 0.00542886 0.00184021 0.0221573 0.00272973 0.0133326 0.00357914 0.0203794 0.00468287 0.0147376 0.0049758 0.0392631
8 3 O 4.55118 1.31737 2.79288 -1.2 1 0.000959518 0.00480819 0.00193083 0.00429267 0.00198467 0.00603788 0.00276245 0.0171297 0.00251892 0.00661576 0.00234183 0.0216858 0.00329058 0.0123435 0.00336059 0.0213504 0.00511526 0.0154137 0.00539604 0.0404803
9 1 Mg -1.20682 0.0413099 4.4844 1.2 1 0.000713319 0.00319399 0.00171237 0.00479648 0.00141374 0.00577861 0.00203781 0.016435 0.00208076 0.00593053 0.00212795 0.0225541 0.00291479 0.0116947 0.00357589 0.0205068 0.00539487 0.0156018 0.00504946 0.0391604
10 2 Si -3.0337 2.72544 4.4844 2.4 1 0.000806039 0.00343856 0.00166527 0.00491177 0.00229083 0.00640033 0.0035037 0.016915 0.00332988 0.00621341 0.00238125 0.0237911 0.00294748 0.0128765 0.00384978 0.0221385 0.0056047 0.0174296 0.00631735 0.0402078
11 3 O -3.08099 1.11221 4.4844 -1.2 1 0.00100292 0.00393759 0.00188092 0.00444678 0.00138046 0.00570981 0.00260661 0.0163477 0.00294566 0.00560146 0.0021796 0.0222438 0.00313084 0.0113102 0.00351225 0.0209483 0.00517614 0.016076 0.00546723 0.038847
12 3 O 0.582463 3.69946 4.4844 -1.2 1 0.00187913 0.00475842 0.00219322 0.00449362 0.00247048 0.00693899 0.00362812 0.017531 0.00332458 0.00661987 0.00321765 0.0246889 0.00417698 0.0130368 0.00431616 0.0241435 0.00687291 0.0184223 0.00835098 0.0424419
13 3 O -2.29524 3.43162 3.18632 -1.2 1 0.000632484 0.00319192 0.00249407 0.00465407 0.00233942 0.0062612 0.00298321 0.0180762 0.00327171 0.00676124 0.00261137 0.0244744 0.0032288 0.0130585 0.00468333 0.0240154 0.0061893 0.0176832 0.00660782 0.042638
14 3 O -2.34216 3.43162 5.78248 -1.2 1 0.00200798 0.00347338 0.00119717 0.00487018 0.00251037 0.00635287 0.00334148 0.017294 0.00297567 0.00735226 0.00276001 0.0232595 0.00411769 0.0124961 0.00393277 0.0229849 0.00637313 0.01898 0.00767725 0.0409067
15 1 Mg 1.12778 2.37449 2.9896 1.2 1 0.00138523 0.00414538 0.00246073 0.0044769 0.00225905 0.00614116 0.0031895 0.0168168 0.00267388 0.0059971 0.00240394 0.0234105 0.00326114 0.0130402 0.00344264 0.0217846 0.00508804 0.0162767 0.00564973 0.0411487
16 1 Mg 3.92855 2.33318 4.4844 1.2 1 0.000876058 0.00452947 0.00167386 0.00446631 0.00195296 0.00609966 0.00354465 0.0170029 0.00307486 0.0061204 0.0029781 0.0227486 0.00366496 0.0132583 0.00508064 0.0216083 0.00671143 0.016989 0.00708095 0.0404838
17 2 Si 2.09341 4.39804 4.4844 2.4 1 0.00152268 0.0044526 0.00204344 0.00433704 0.00288938 0.00645553 0.00382917 0.0183761 0.00339002 0.00688008 0.00346024 0.0247466 0.00439441 0.0140657 0.00441987 0.0244021 0.00685123 0.0181457 0.00849966 0.0438536
18 3 O 2.09991 6.01128 4.4844 -1.2 1 0.00215451 0.00443943 0.00165391 0.00409613 0.00293399 0.00687892 0.00323917 0.0193335 0.00279723 0.0074493 0.00331325 0.0266848 0.00408554 0.0143964 0.00462687 0.0271987 0.00712057 0.0190028 0.00810762 0.0459732
19 3 O -4.52137 3.42402 4.4844 -1.2 1 0.0011175 0.00379147 0.00221167 0.00466656 0.0023779 0.00722356 0.00372697 0.0171973 0.00334512 0.00636247 0.00306334 0.0237379 0.00382291 0.0128169 0.00411568 0.0225757 0.0064989 0.0173996 0.00749994 0.0415885
20 3 O 2.80834 3.69187 3.18632 -1.2 1 0.00120161 0.00412434 0.00181743 0.00378676 0.00213755 0.00606352 0.00312766 0.0175866 0.00288296 0.00644075 0.00292952 0.0241832 0.00366098 0.0131677 0.00478442 0.0237455 0.0059925 0.0168475 0.00661296 0.0429442
21 1 Mg 1.17857 2.37449 0 1.2 1 0.00275484 0.00383817 0.00193313 0.00409367 0.00145307 0.00565376 0.00257307 0.0171581 0.00242985 0.00653109 0.00279632 0.0230077 0.0029468 0.0133072 0.00354003 0.0216102 0.00431549 0.0147852 0.00483704 0.0410255
22 3 O 2.76143 3.69187 5.78248 -1.2 1 0.00193006 0.00422306 0.00176109 0.00435381 0.00228204 0.00590637 0.00299549 0.0176137 0.00314953 0.00742145 0.00298266 0.0232997 0.00455943 0.0128901 0.00545969 0.0227803 0.00659194 0.0182194 0.00752137 0.0415857
23 1 Mg -1.67381 2.41581 1.4948 1.2 1 0.00173374 0.00315043 0.00237683 0.00483599 0.00160461 0.00624998 0.00242985 0.0166948 0.00279634 0.00606204 0.00194969 0.0239854 0.00257878 0.0141697 0.00288703 0.0221925 0.00461598 0.0159693 0.0047363 0.0420026
24 2 Si 0.16286 0.350945 1.4948 2.4 1 0.00231529 0.00320334 0.00265558 0.00462215 0.00127076 0.00647458 0.00290419 0.0163672 0.00223858 0.00495144 0.00186098 0.0225658 0.00237655 0.0136217 0.00303033 0.0207374 0.00478706 0.0146835 0.00442067 0.0405247
25 3 O 0.15972 -1.26229 1.4948 -1.2 1 0.00219198 0.00304938 0.0029016 0.00462802 0.00170916 0.00621552 0.00270093 0.0163624 0.00231846 0.00521996 0.00246584 0.0225298 0.00267497 0.0139844 0.00302603 0.0216835 0.00430454 0.01472 0.00401394 0.0409536
26 3 O 6.77654 1.32496 1.4948 -1.2 1 0.00142104 0.0040539 0.00167632 0.00469694 0.00132156 0.00616731 0.00257049 0.0168038 0.00266567 0.00528562 0.00177669 0.0235165 0.00277024 0.0135969 0.00355619 0.0217434 0.00479426 0.0152211 0.00450551 0.0410685
27 3 O -0.508028 1.05712 0.196716 -1.2 1 0.00245344 0.00320389 0.00331372 0.00419879 0.00139846 0.00579558 0.00260959 0.0170041 0.00183126 0.00649882 0.0025045 0.0218571 0.00272595 0.0129586 0.00307362 0.0211052 0.00425031 0.0150857 0.00442007 0.0402632
28 3 O -0.552171 1.05712 2.79288 -1.2 1 0.000990629 0.00288794 0.00279533 0.00466873 0.00138994 0.00640324 0.0025588 0.01641 0.00252063 0.00602832 0.00177648 0.0226405 0.00294784 0.0119224 0.00364836 0.0214166 0.00549981 0.0158014 0.00491365 0.0400196
29 1 Mg 6.31713 4.74899 0 1.2 1 0.00115231 0.00297934 0.00178762 0.00457038 0.00241288 0.0064171 0.00329362 0.0180341 0.00287204 0.00707037 0.00230857 0.0251656 0.00291418 0.0137235 0.00423523 0.0246719 0.00480314 0.0163196 0.00591937 0.0430744
30 1 Mg 3.54847 9.45668 1.4948 1.2 1 0.00120492 0.00356309 0.00203917 0.00465975 0.00204483 0.00774074 0.00301639 0.0214221 0.00180845 0.00845686 0.00245922 0.0283376 0.00322462 0.0157156 0.00382331 0.0291675 0.00434135 0.0180011 0.00400515 0.048972
31 2 Si 5.36879 6.77254 1.4948 2.4 1 0.000553042 0.00342446 0.00199102 0.0050503 0.00279118 0.0070634 0.00367376 0.0197193 0.00280103 0.00786741 0.00251796 0.0274615 0.00321745 0.0153636 0.00408883 0.0269281 0.00482059 0.0171294 0.00521398 0.0468743
32 3 O 5.41937 8.38578 1.4948 -1.2 1 0.000890432 0.00341162 0.0018843 0.0049442 0.0022851 0.00786258 0.00310316 0.0210067 0.00226011 0.00840432 0.00250386 0.0288441 0.00234599 0.0157048 0.00297587 0.0290897 0.00476755 0.0173257 0.0048951 0.0482865
33 3 O 1.75158 5.79852 1.4948 -1.2 1 0.00103237 0.00362479 0.00183032 0.00406105 0.00261244 0.00628487 0.00328315 0.0195912 0.00281278 0.00738707 0.00265258 0.0277734 0.00303219 0.0155392 0.00348398 0.026769 0.00555015 0.0173882 0.0055684 0.0460147
34 3 O 4.67421 6.06637 0.196716 -1.2 1 0.000717611 0.00331605 0.00155791 0.00475798 0.00204255 0.00697583 0.00281516 0.0197611 0.00247763 0.00818508 0.00222141 0.0261858 0.0034903 0.0142156 0.00403235 0.0266888 0.00474133 0.0165714 0.00553157 0.0453847
35 1 Mg 6.26654 4.74899 2.9896 1.2 1 0.00122259 0.00356966 0.00215724 0.00493755 0.0027992 0.00682663 0.00380374 0.018136 0.00377728 0.00707923 0.00230044 0.0258183 0.00362385 0.0144976 0.00496723 0.0249221 0.00609941 0.0173579 0.00705731 0.0440563
36 3 O 4.63043 6.06637 2.79288 -1.2 1 0.00175576 0.00370649 0.00201286 0.00488209 0.00250627 0.00708888 0.0033233 0.0194802 0.00334256 0.00799626 0.00257872 0.0260342 0.00392474 0.0146358 0.00440463 0.0271792 0.00608641 0.0178287 0.00696482 0.0458744
37 1 Mg -1.12976 4.79031 4.4844 1.2 1 0.00195296 0.00406111 0.00153812 0.00473249 0.00230021 0.00648991 0.00334987 0.0181939 0.00354369 0.00727582 0.00326235 0.0255225 0.00407937 0.0143822 0.00477689 0.0254887 0.0075995 0.0188501 0.00817513 0.0445859
38 2 Si -2.9517 7.47444 4.4844 2.4 1 0.00249905 0.00386901 0.00147705 0.00517303 0.00282738 0.00690262 0.00389407 0.0204865 0.00338332 0.00801366 0.00318355 0.0272616 0.00432676 0.0159045 0.00532151 0.0279776 0.00709401 0.0190915 0.00816116 0.0481702
39 3 O -3.00198 5.86121 4.4844 -1.2 1 0.00211666 0.00405848 0.00137379 0.00485892 0.00313573 0.00663881 0.00422417 0.0190196 0.00361874 0.00780042 0.00284763 0.0256526 0.0043328 0.0141533 0.00482454 0.026681 0.00719736 0.0192532 0.00828253 0.0459063
40 3 O 0.666315 8.44846 4.4844 -1.2 1 0.00257924 0.00459694 0.00153096 0.00491768 0.00289215 0.00778139 0.00318577 0.0213791 0.00326997 0.00814067 0.00343304 0.0281765 0.00462021 0.0160485 0.00462801 0.0292212 0.00639132 0.0195469 0.00783353 0.0489917
41 3 O -2.21213 8.18062 3.18632 -1.2 1 0.0021429 0.00416105 0.00170663 0.00462043 0.00254938 0.00661724 0.00296914 0.0208591 0.0028643 0.0082994 0.00300569 0.027542 0.00422033 0.0159768 0.00485945 0.0289086 0.00607913 0.0185231 0.00668523 0.0490164
42 3 O -2.25864 8.18062 5.78248 -1.2 1 0.00310635 0.0043481 0.00173406 0.00472156 0.00304702 0.00639657 0.00321714 0.0208255 0.00256018 0.00862747 0.00337102 0.0266518 0.00467104 0.016503 0.00525517 0.0290945 0.00723074 0.0203367 0.00817933 0.0496324
43 1 Mg 1.20893 7.12349 2.9896 1.2 1 0.00141595 0.00387338 0.00199771 0.00434956 0.00288239 0.00704452 0.00379873 0.0197155 0.00291606 0.0082019 0.00281348 0.0278466 0.00361054 0.0158366 0.00377612 0.027346 0.00575552 0.0180595 0.00642387 0.0472088
44 1 Mg 4.00982 7.08218 4.4844 1.2 1 0.00237429 0.00396749 0.00180492 0.00471551 0.00259131 0.00675824 0.00372574 0.0202068 0.00347464 0.00772386 0.00346003 0.0272101 0.00417908 0.0164739 0.00578914 0.0281419 0.00761645 0.0190022 0.00850967 0.0476555
45 2 Si 2.17861 9.14704 4.4844 2.4 1 0.00268297 0.00396958 0.00174392 0.0046977 0.00285265 0.0077043 0.00374504 0.0212207 0.0027622 0.00848279 0.00309802 0.0278008 0.00465776 0.0166974 0.00446757 0.0294363 0.0059692 0.0191738 0.00707528 0.0506291
46 3 O 2.18828 10.7603 4.4844 -1.2 1 0.00344031 0.00417572 0.0019046 0.00426801 0.00259854 0.00736379 0.00298243 0.020998 0.00253551 0.00827559 0.00239806 0.0282948 0.0040093 0.0157998 0.00429679 0.0307996 0.00622204 0.0194929 0.00690408 0.0512012
47 3 O -4.43805 8.17302 4.4844 -1.2 1 0.00218381 0.00429399 0.00181596 0.00502329 0.00252439 0.00805408 0.00333655 0.0207841 0.00337914 0.00827546 0.00325175 0.0281751 0.00472431 0.015902 0.00487594 0.0292673 0.00710627 0.0192724 0.00900892 0.0487361
48 3 O 2.89193 8.44087 3.18632 -1.2 1 0.00219064 0.00369919 0.00181811 0.0042292 0.00240043 0.00712623 0.00328485 0.0206557 0.00287898 0.00869359 0.00312442 0.0273282 0.00398954 0.0157623 0.00472263 0.0289548 0.00600775 0.0185367 0.00607049 0.0487674
49 1 Mg 1.25915 7.12349 0 1.2 1 0.00112243 0.00317974 0.00157743 0.00417561 0.00188446 0.00739577 0.00288055 0.0202277 0.00279418 0.00824722 0.00261881 0.0275009 0.00348221 0.0144626 0.00349471 0.0275148 0.00463063 0.0173168 0.0045057 0.0463871
50 3 O 2.84547 8.44087 5.78248 -1.2 1 0.00290453 0.00447241 0.00169603 0.00445374 0.00262214 0.00700597 0.0033096 0.0210785 0.00294518 0.00886611 0.00346296 0.0268057 0.00533213 0.0164156 0.00517009 0.0295482 0.0065072 0.0207839 0.00780238 0.0498582
51 1 Mg -1.59284 7.16481 1.4948 1.2 1 0.000740808 0.00347775 0.00145528 0.00461492 0.00195477 0.00663375 0.00274896 0.0199885 0.00288948 0.00790802 0.00190699 0.0276553 0.00342199 0.0156446 0.0037502 0.0270523 0.00480612 0.0173822 0.00560442 0.0469228
52 2 Si 0.240329 5.09994 1.4948 2.4 1 0.00105098 0.00385321 0.00195717 0.0040877 0.00206702 0.00708844 0.00312259 0.0190273 0.00306539 0.00735825 0.00235407 0.0259238 0.00290853 0.0146441 0.0041338 0.024647 0.0052806 0.0167438 0.00534573 0.0449537
53 3 O 0.234538 3.48671 1.4948 -1.2 1 0.00166589 0.00405205 0.00241426 0.0042705 0.00195188 0.00670423 0.00259954 0.017951 0.00338371 0.00677665 0.00241912 0.0243675 0.00327235 0.0136863 0.00394832 0.0238726 0.00567884 0.0159575 0.00550511 0.0427767
54 3 O 6.85564 6.07396 1.4948 -1.2 1 0.000762516 0.00318935 0.00217402 0.00482483 0.00263599 0.00637328 0.00313854 0.0199526 0.00311548 0.00758464 0.00213112 0.0275704 0.00330382 0.0147962 0.00471045 0.0268867 0.0057741 0.0174487 0.00624032 0.0457291
55 3 O -0.429565 5.80612 0.196716 -1.2 1 0.00114393 0.00337851 0.00223651 0.00412696 0.0018026 0.00736686 0.0025407 0.0195749 0.00284966 0.00853696 0.00255268 0.0256601 0.0027998 0.014232 0.00384274 0.0258653 0.0050649 0.0166863 0.00577894 0.0454581
56 3 O -0.473377 5.80612 2.79288 -1.2 1 0.00158629 0.003858 0.00189445 0.00448747 0.00245071 0.00706328 0.0030906 0.0193814 0.00320961 0.0080425 0.00290967 0.0256943 0.00378843 0.0146298 0.00455124 0.0262355 0.00660867 0.0183085 0.006768 0.0462878
57 1 Mg 6.40169 9.49799 0 1.2 1 6.98241e-05 0.00382559 0.00155306 0.00461975 0.00164345 0.00845383 0.00205988 0.0211329 0.00161925 0.00889304 0.0018018 0.0287526 0.00248382 0.0147855 0.00259967 0.0297597 0.00377102 0.0178276 0.00404515 0.0478512
58 1 Mg 3.64209 14.2057 1.4948 1.2 1 0.00214371 0.00322012 0.00161267 0.00451381 0.00167186 0.00888603 0.00180932 0.0216897 0.00172317 0.00865146 0.0021593 0.0279762 0.00250275 0.016145 0.00285021 0.0295748 0.00357834 0.0168309 0.00345258 0.0495957
59 2 Si 5.45748 11.5215 1.4948 2.4 1 0.00190715 0.00330144 0.00185872 0.00477075 0.00178185 0.00845722 0.00212327 0.0211576 0.00160059 0.00829854 0.00187926 0.0286731 0.00261306 0.0162762 0.00316905 0.029218 0.00417382 0.0168861 0.00381363 0.0494691
60 3 O 5.51101 13.1348 1.4948 -1.2 1 0.00200766 0.0033773 0.00185561 0.00477041 0.00153327 0.00923565 0.00187478 0.0211877 0.00185992 0.00857462 0.0016908 0.0291645 0.00214612 0.0161596 0.00273024 0.0298876 0.00384861 0.0165931 0.00361567 0.049382
61 3 O 1.83851 10.5475 1.4948 -1.2 1 0.00115271 0.00356163 0.00188441 0.00483543 0.00178245 0.00792903 0.0024372 0.0216443 0.001944 0.00840652 0.00231496 0.0291494 0.00259126 0.015971 0.00319878 0.0298388 0.00418326 0.0176667 0.00359413 0.0495111
62 3 O 4.7611 10.8154 0.196716 -1.2 1 0.000606304 0.00315291 0.001977 0.00469251 0.00154205 0.00873638 0.00215204 0.0213885 0.00150837 0.00871942 0.00203625 0.0281375 0.00293719 0.0155714 0.00374765 0.0295219 0.0037581 0.0170851 0.00354088 0.0487295
63 1 Mg 6.35203 9.49799 2.9896 1.2 1 0.0018167 0.00394907 0.00182434 0.00483166 0.00258908 0.00772106 0.00344837 0.0204811 0.00317387 0.00862825 0.0022172 0.0289428 0.00371511 0.0162309 0.0032876 0.0291943 0.00460509 0.018183 0.00561464 0.0490944
64 3 O 4.71833 10.8154 2.79288 -1.2 1 0.00287828 0.00351679 0.0017965 0.00457257 0.00207908 0.00828238 0.00230418 0.0215303 0.00222724 0.00899812 0.00220412 0.0280588 0.00358192 0.0160552 0.00387613 0.0300525 0.00533098 0.0181224 0.00575278 0.0503019
65 1 Mg -1.0438 9.53931 4.4844 1.2 1 0.00303014 0.00458646 0.00158676 0.00450838 0.00290392 0.00702107 0.00291533 0.0210023 0.00298627 0.00852995 0.0028288 0.0280884 0.00405661 0.0167 0.00451597 0.030035 0.00648961 0.0195428 0.00727503 0.0502461
66 2 Si -2.8604 12.2234 4.4844 2.4 1 0.00331034 0.00417057 0.0018393 0.00455444 0.00254117 0.00797905 0.00297128 0.021987 0.0028574 0.00858607 0.002499 0.0278327 0.00427988 0.0168895 0.0044693 0.0302074 0.00576144 0.0191708 0.00666167 0.0522324
67 3 O -2.91391 10.6102 4.4844 -1.2 1 0.00322063 0.00453982 0.00193439 0.00447439 0.00280913 0.00737773 0.00351007 0.0207914 0.0028135 0.00785954 0.00226896 0.0283886 0.00452461 0.0161455 0.00429202 0.0307234 0.00599966 0.0194167 0.00691706 0.0508959
68 3 O 0.7596 13.1975 4.4844 -1.2 1 0.00360901 0.00394762 0.00168053 0.00460125 0.0027263 0.00876028 0.00290827 0.0221693 0.00278106 0.00838905 0.00283827 0.0284551 0.00416167 0.0164083 0.00419409 0.0304151 0.00604443 0.0190923 0.00692295 0.051573
69 3 O -2.12001 12.9296 3.18632 -1.2 1 0.00340775 0.00379568 0.00182556 0.00413493 0.00231789 0.00776806 0.00229689 0.0217713 0.00240043 0.00845036 0.00253059 0.0276139 0.00363197 0.0164776 0.00458225 0.0306427 0.00527505 0.0182613 0.00558813 0.0510953
70 3 O -2.16532 12.9296 5.78248 -1.2 1 0.00400719 0.00441979 0.00181401 0.00403096 0.00272594 0.0069423 0.00262998 0.0220058 0.00268881 0.00848646 0.00313296 0.0271106 0.00419191 0.0170833 0.00498494 0.0314374 0.0062553 0.020683 0.00688402 0.0531666
71 1 Mg 1.29891 11.8725 2.9896 1.2 1 0.0027829 0.00352904 0.0018322 0.0047105 0.00221058 0.00821646 0.00295314 0.0211091 0.00259211 0.00855268 0.0020671 0.0287896 0.00338443 0.0163909 0.00337676 0.0300382 0.00471632 0.017586 0.00503836 0.0499997
72 1 Mg 4.10033 11.8312 4.4844 1.2 1 0.00362056 0.00391821 0.00216649 0.00413584 0.00243072 0.00763722 0.00277007 0.021435 0.00259911 0.00833388 0.00287437 0.0282935 0.00374629 0.0175647 0.00490188 0.0303822 0.00665328 0.0190178 0.00646536 0.0516956
73 2 Si 2.27333 13.896 4.4844 2.4 1 0.00360748 0.00351808 0.00175156 0.00463706 0.00278859 0.00803995 0.00334027 0.0219231 0.00254035 0.00821734 0.00279231 0.0277349 0.00366387 0.01679 0.0042357 0.0304326 0.00555919 0.0187214 0.00647151 0.0525179
74 3 O 2.28634 15.5093 4.4844 -1.2 1 0.00398966 0.0038218 0.00175846 0.0041799 0.00279964 0.00735721 0.00298852 0.0209845 0.00263303 0.00762875 0.00239786 0.0282866 0.00333462 0.0161498 0.004082 0.0308355 0.00575374 0.0183238 0.00642986 0.0520376
75 3 O -4.34533 12.922 4.4844 -1.2 1 0.00348894 0.00436046 0.00222159 0.00438877 0.00260049 0.00869558 0.00297729 0.0218762 0.0029212 0.00840365 0.00250275 0.0282176 0.00417353 0.0165217 0.00465565 0.0306927 0.00640124 0.0195344 0.00726825 0.0517208
76 3 O 2.98455 13.1899 3.18632 -1.2 1 0.00311805 0.00340372 0.00181838 0.00415798 0.00234335 0.00805173 0.00229876 0.0218136 0.0022567 0.00857386 0.00234528 0.0277622 0.00344513 0.0162185 0.00415453 0.030135 0.00553067 0.0180274 0.00560727 0.0508423
77 1 Mg 1.34779 11.8725 0 1.2 1 0.00101161 0.00303554 0.00124361 0.00463102 0.00149624 0.00906656 0.0015132 0.0213162 0.00120441 0.0091045 0.00193352 0.0288252 0.00288235 0.0150433 0.00292679 0.0301076 0.0032583 0.0171509 0.00312308 0.0484328
78 3 O 2.93934 13.1899 5.78248 -1.2 1 0.00375374 0.00399819 0.00184904 0.00449673 0.00256976 0.00728973 0.00270748 0.0220769 0.00254688 0.00844894 0.00308473 0.0270782 0.00431209 0.0168496 0.00459786 0.0313913 0.00615546 0.0210258 0.00679267 0.0535254
79 1 Mg -1.50344 11.9138 1.4948 1.2 1 0.00136095 0.00356685 0.00157178 0.00457905 0.00144484 0.00843092 0.00189415 0.0217388 0.00235095 0.00850358 0.00161079 0.0285424 0.00356752 0.0162586 0.00327458 0.0296642 0.00357713 0.0173479 0.00374372 0.0494617
80 2 Si 0.326006 9.84894 1.4948 2.4 1 0.000492686 0.00349695 0.00148733 0.00497146 0.0018803 0.00835509 0.00212505 0.0211913 0.00210304 0.00848735 0.00162885 0.0284056 0.00294441 0.0158721 0.00351793 0.0287779 0.00378371 0.0175248 0.00347923 0.0488887
81 3 O 0.317364 8.23571 1.4948 -1.2 1 0.00102766 0.00359916 0.00144005 0.00451821 0.00198063 0.00794352 0.00220548 0.0203334 0.00256977 0.00804718 0.00185595 0.0285602 0.00345311 0.0158848 0.00387002 0.0284998 0.00453084 0.0174466 0.00426297 0.0479633
82 3 O 6.94307 10.823 1.4948 -1.2 1 0.00132426 0.00380458 0.00167766 0.00452688 0.00183537 0.00788524 0.00259591 0.021841 0.00238185 0.00844891 0.00164441 0.0293319 0.00302032 0.0159524 0.00322434 0.0298725 0.00391297 0.0177461 0.00423707 0.0494887
83 3 O -0.343122 10.5551 0.196716 -1.2 1 0.000465138 0.00334573 0.00132042 0.00461652 0.00148106 0.00869968 0.00181263 0.0214886 0.00156 0.00897307 0.00195228 0.0280133 0.00328685 0.0154186 0.00404221 0.0293487 0.00364333 0.0172481 0.00348691 0.0487111
84 3 O -0.385966 10.5551 2.79288 -1.2 1 0.00279521 0.00391849 0.00121239 0.00450793 0.00240026 0.00826074 0.00238079 0.0215343 0.0020801 0.00906772 0.00240853 0.0275493 0.00380023 0.0160636 0.00400154 0.0299751 0.00530237 0.0185098 0.00524987 0.0501262
85 1 Mg 6.49448 14.247 0 1.2 1 0.00107266 0.00336005 0.00170227 0.00473676 0.00122739 0.00937758 0.00122674 0.0212427 0.00120834 0.00847653 0.00151871 0.0287227 0.00178286 0.0154899 0.00237293 0.0300962 0.00311157 0.0165087 0.0028474 0.0484302
86 1 Mg 3.74457 18.9547 1.4948 1.2 1 0.00205406 0.00308212 0.00144568 0.0037277 0.00177524 0.00847331 0.00147759 0.0222846 0.00189257 0.00793255 0.00215856 0.0274862 0.0023569 0.0165314 0.00322321 0.0287667 0.00345546 0.0163196 0.00326487 0.0501083
87 2 Si 5.55495 16.2705 1.4948 2.4 1 0.00236306 0.00287993 0.00142142 0.00431808 0.00177736 0.00901788 0.00155821 0.0215069 0.00145724 0.00784531 0.00135613 0.028375 0.00230628 0.0164113 0.00272819 0.02876 0.00354208 0.0158893 0.00359665 0.0497337
88 3 O 5.6115 17.8838 1.4948 -1.2 1 0.00224063 0.00313964 0.00160762 0.00410474 0.00163508 0.00927149 0.00169474 0.0217093 0.00189817 0.00774524 0.00143379 0.0284962 0.00202387 0.0166373 0.0026063 0.0289764 0.00324814 0.0157308 0.00348557 0.049756
89 3 O 1.93416 15.2965 1.4948 -1.2 1 0.00230548 0.00322522 0.00159754 0.00446275 0.00163532 0.00846909 0.00207987 0.0219142 0.0019529 0.00799669 0.00155849 0.0287531 0.00205284 0.0162689 0.00273825 0.0296672 0.00372958 0.0164015 0.00340527 0.0500496
90 3 O 4.85636 15.5644 0.196716 -1.2 1 0.00170559 0.00263099 0.00144328 0.00467373 0.00138264 0.00919012 0.00141045 0.0214168 0.0011756 0.00804912 0.00168518 0.0279381 0.00269782 0.016292 0.00349162 0.029372 0.00313559 0.0157837 0.00298427 0.0493361
91 1 Mg 6.44662 14.247 2.9896 1.2 1 0.00220915 0.00352797 0.00166616 0.00447824 0.00234695 0.00870403 0.00295871 0.0209239 0.00263735 0.00843157 0.00187662 0.028939 0.00309417 0.0165588 0.0030346 0.02975 0.00407759 0.0174314 0.00474941 0.0500936
92 3 O 4.81537 15.5644 2.79288 -1.2 1 0.003142 0.00326914 0.00151237 0.00420376 0.00209823 0.00887995 0.00169979 0.0218487 0.00161224 0.0085199 0.00193716 0.0276712 0.00282541 0.016521 0.00355848 0.0297625 0.00485145 0.0172384 0.00507044 0.0505821
93 1 Mg -0.948271 14.2883 4.4844 1.2 1 0.00387782 0.00395441 0.00166517 0.00406976 0.00269332 0.00787982 0.00272951 0.0215905 0.00271808 0.00828695 0.00291475 0.0280675 0.00335837 0.0168195 0.00513664 0.0306663 0.00605229 0.0186933 0.00652097 0.0518315
94 2 Si -2.75928 16.9724 4.4844 2.4 1 0.00369781 0.00365409 0.00191815 0.0041391 0.00270826 0.00802366 0.00300662 0.022101 0.00265506 0.00782293 0.00273445 0.0276094 0.00333288 0.0171248 0.00460077 0.0298836 0.00530858 0.0181743 0.00595661 0.052751
95 3 O -2.81617 15.3592 4.4844 -1.2 1 0.0040773 0.00391645 0.0020131 0.00404201 0.00283324 0.00764854 0.00301431 0.0212319 0.00260847 0.00773542 0.00236213 0.0282179 0.00360319 0.0162908 0.00416207 0.0306854 0.00596057 0.018328 0.00663742 0.0522054
96 3 O 0.862762 17.9465 4.4844 -1.2 1 0.00358914 0.00398049 0.00144158 0.00426065 0.00290352 0.00848765 0.00263259 0.0224704 0.00249615 0.00772397 0.00254107 0.0281618 0.00358435 0.0171279 0.00419961 0.0295105 0.00586478 0.0184079 0.0063468 0.05244
97 3 O -2.0185 17.6786 3.18632 -1.2 1 0.00345088 0.00357501 0.0018098 0.00367821 0.002442 0.00760325 0.00236195 0.022217 0.00234641 0.00783997 0.00233689 0.0272468 0.00343324 0.0166949 0.00449842 0.0299658 0.00485525 0.0174237 0.00511672 0.0516371
98 3 O -2.06164 17.6786 5.78248 -1.2 1 0.00400927 0.00401289 0.00173955 0.00396127 0.00268137 0.00692935 0.00244557 0.0226086 0.00239377 0.0078169 0.00315873 0.0273301 0.00339412 0.0174873 0.00507956 0.0311401 0.00601337 0.0201814 0.00634211 0.0546735
99 1 Mg 1.39817 16.6215 2.9896 1.2 1 0.00320533 0.00339084 0.00171941 0.00428762 0.00250541 0.00836073 0.00283107 0.0213801 0.00253527 0.00799066 0.00196161 0.0284517 0.00262867 0.0167022 0.00326774 0.0295643 0.00412263 0.0165212 0.00445447 0.0505571
100 1 Mg 4.20062 16.5802 4.4844 1.2 1 0.00344849 0.00344276 0.00181483 0.0039214 0.00253645 0.00759159 0.0024351 0.0218573 0.00304826 0.00765716 0.00301866 0.0280792 0.00349964 0.0175912 0.005147 0.0301905 0.00633994 0.0183285 0.00630652 0.0523752
101 2 Si 2.37796 18.645 4.4844 2.4 1 0.00315145 0.00345236 0.00162334 0.00422689 0.00271037 0.00806468 0.00293397 0.022565 0.00257173 0.00788833 0.00268126 0.0274769 0.00347874 0.0173252 0.00421753 0.0293344 0.00533573 0.0179198 0.00595451 0.0532759
102 3 O 2.39434 20.2583 4.4844 -1.2 1 0.00325631 0.00394014 0.0016967 0.00408161 0.00272855 0.00712571 0.00259306 0.0216246 0.00282864 0.00713689 0.00201956 0.0280951 0.00324683 0.0169073 0.00395922 0.0300529 0.00588883 0.0179847 0.00644442 0.0529809
103 3 O -4.24274 17.671 4.4844 -1.2 1 0.00310438 0.00390364 0.00195826 0.00412471 0.00270503 0.00860885 0.00276818 0.0225711 0.00288121 0.00768949 0.0027938 0.0282616 0.00331493 0.0170857 0.00489057 0.0298794 0.00605073 0.018545 0.00660418 0.0524476
104 3 O 3.08659 17.9389 3.18632 -1.2 1 0.00326859 0.00317695 0.00174684 0.00373719 0.00258719 0.00793669 0.00227009 0.0221398 0.00236003 0.0078595 0.00221851 0.0273959 0.00296959 0.0165526 0.00410301 0.0294896 0.00520583 0.0172426 0.00555542 0.0514684
105 1 Mg 1.44478 16.6215 0 1.2 1 0.00228626 0.00283388 0.00108815 0.00422003 0.0014993 0.00903814 0.00113969 0.0215044 0.00138443 0.00809286 0.00148249 0.028427 0.00230395 0.0157094 0.00226056 0.0293132 0.00283846 0.0160384 0.00301674 0.0490537
106 3 O 3.0436 17.9389 5.78248 -1.2 1 0.00341012 0.00391786 0.00169233 0.00427253 0.0026411 0.00712166 0.00236511 0.0223986 0.00233414 0.00789468 0.00298882 0.0272105 0.00376326 0.0171033 0.00456817 0.0308945 0.00614202 0.0203032 0.0064628 0.0545983
107 1 Mg -1.40524 16.6628 1.4948 1.2 1 0.00192066 0.00336667 0.00135902 0.00430723 0.00169487 0.00884094 0.00196782 0.02214 0.00184538 0.00814217 0.00170494 0.0278952 0.00317307 0.0166315 0.00280679 0.0294455 0.0028296 0.0165736 0.00322745 0.0497646
108 2 Si 0.420358 14.5979 1.4948 2.4 1 0.00195204 0.00322385 0.00151175 0.00484341 0.00187874 0.00925062 0.00189686 0.0214673 0.00168914 0.00819633 0.00153111 0.0281444 0.00292783 0.0164978 0.00335833 0.0288232 0.00351707 0.0163143 0.00346213 0.0496088
109 3 O 0.408732 12.9847 1.4948 -1.2 1 0.00186467 0.00319403 0.00135204 0.00475398 0.00182669 0.00926068 0.00156585 0.0211787 0.00215403 0.00844224 0.00153647 0.0288136 0.00305145 0.0161552 0.00299594 0.0297798 0.00331886 0.0167074 0.00364766 0.0494632
110 3 O 7.03923 15.572 1.4948 -1.2 1 0.00197304 0.0034426 0.0015374 0.00449115 0.00182859 0.00849631 0.00235251 0.0217401 0.00217267 0.00793495 0.00162559 0.0290096 0.00268157 0.0165217 0.00277819 0.0296603 0.00334911 0.0166374 0.00378144 0.0497873
111 3 O -0.248332 15.3041 0.196716 -1.2 1 0.00181629 0.00299153 0.00119248 0.00451601 0.00126419 0.00924398 0.00179478 0.0212091 0.00132044 0.00810654 0.0015863 0.0278873 0.00299966 0.0158577 0.00354643 0.0292773 0.00305663 0.0159694 0.00310531 0.0491468
112 3 O -0.289436 15.3041 2.79288 -1.2 1 0.0034823 0.00358321 0.00146876 0.00428019 0.00252325 0.00873557 0.00204095 0.0220014 0.00184227 0.00858443 0.00192231 0.0271917 0.00276192 0.0164891 0.00352618 0.0297371 0.00456858 0.0175329 0.00460228 0.0507354
113 1 Mg 6.59566 18.996 0 1.2 1 0.00111862 0.00327061 0.00163499 0.00415301 0.000960856 0.00863528 0.0010089 0.0219903 0.00128009 0.00765616 0.00133395 0.0278626 0.00209721 0.0164002 0.0022857 0.0286978 0.00288762 0.015829 0.00273692 0.0489221
114 1 Mg 3.85574 23.7037 1.4948 1.2 1 0.00174099 0.00285247 0.00135658 0.00399294 0.00156564 0.00744806 0.00125017 0.023065 0.00174774 0.00727303 0.00217333 0.027114 0.00236302 0.0175369 0.00383227 0.0285695 0.00344811 0.0169501 0.00364521 0.0508527
115 2 Si 5.66125 21.0195 1.4948 2.4 1 0.00176625 0.00271587 0.00135357 0.00386378 0.0018956 0.00823266 0.00162097 0.0219671 0.00124915 0.00737458 0.00148153 0.0277982 0.00244565 0.017352 0.00263649 0.028158 0.00354813 0.0156922 0.00402469 0.0504698
116 3 O 5.72074 22.6328 1.4948 -1.2 1 0.00174255 0.00281743 0.00162283 0.00392468 0.0017126 0.0082216 0.00158493 0.0223903 0.00182653 0.00710502 0.00115537 0.0278025 0.00200812 0.0173927 0.00293585 0.0284129 0.00337424 0.0161597 0.00379512 0.0504221
117 3 O 2.03867 20.0455 1.4948 -1.2 1 0.00162198 0.00326174 0.00139047 0.00406418 0.0017353 0.00785916 0.00214625 0.0223502 0.00228548 0.0072796 0.00147966 0.0283477 0.00206076 0.0172575 0.00245883 0.0289082 0.00351038 0.0160213 0.00353957 0.0505488
118 3 O 4.96004 20.3134 0.196716 -1.2 1 0.00149411 0.00262776 0.00142459 0.0038577 0.00128381 0.00828149 0.00108093 0.0218349 0.00106855 0.00744032 0.00165347 0.0274093 0.00275666 0.0166519 0.00380275 0.0286707 0.0030634 0.0151962 0.00285248 0.049694
119 1 Mg 6.55057 18.996 2.9896 1.2 1 0.00236284 0.00350965 0.00142511 0.00394833 0.00239686 0.00831822 0.00289936 0.0213928 0.00251563 0.00777646 0.00179857 0.0286785 0.00292938 0.0171437 0.0029561 0.0288592 0.0040195 0.0168105 0.00483213 0.050725