ITEM: TIMESTEP
5200
ITEM: NUMBER OF ATOMS
10500
ITEM: BOX BOUNDS xy xz yz pp pp pp
0	15.2977	5.09925
0	118.725	0
0	89.688	0
ITEM: ATOMS id type element xu yu zu q Q_1 Q_2 Q_3 Q_4 Q_5 Q_6 Q_7 Q_8 Q_9 Q_10 Q_11 Q_12 Q_13 Q_14 Q_15 Q_16 Q_17 Q_18 Q_19 Q_20 Q_21
1 1 Mg 6.2404 -6.37941e-06 0 1.2 1 0.000978379 0.00395198 0.00117815 0.00494419 0.00123612 0.0056287 0.00219038 0.0163622 0.00218058 0.005913 0.00218963 0.0221704 0.00249214 0.0133635 0.00347246 0.0207466 0.00401785 0.0142339 0.00407373 0.0407079
2 1 Mg 3.46349 4.70768 1.4948 1.2 1 0.00126425 0.00308887 0.00156937 0.00455132 0.00201741 0.00618398 0.00350079 0.0188093 0.00280858 0.00706178 0.00293864 0.0258737 0.00334932 0.0136509 0.00444643 0.0253542 0.00535122 0.0172063 0.0056929 0.0438896
3 2 Si 5.2885 2.02354 1.4948 2.4 1 0.000687851 0.00303665 0.00205654 0.00478948 0.00180357 0.00581312 0.00246803 0.0172604 0.0024325 0.00629554 0.00213696 0.0235102 0.00289312 0.0133089 0.00375209 0.021667 0.00385186 0.0154652 0.00431674 0.0413193
4 3 O 5.33628 3.63678 1.4948 -1.2 1 0.000657941 0.00247165 0.00165083 0.0049044 0.00213018 0.00629888 0.0028178 0.0179354 0.00226579 0.00682049 0.001985 0.0253672 0.00266923 0.0134683 0.00440159 0.0241402 0.00499621 0.0164999 0.00574294 0.0428974
5 3 O 1.67294 1.04952 1.4948 -1.2 1 0.00158924 0.00305704 0.00205581 0.00432665 0.00134175 0.00575482 0.00247513 0.0170366 0.00241896 0.00620122 0.0021329 0.022974 0.00270373 0.0125401 0.00343201 0.0220375 0.00447138 0.0157123 0.00466185 0.0402773
6 3 O 4.59532 1.31737 0.196716 -1.2 1 0.00108051 0.00278379 0.00203427 0.00445817 0.00198449 0.00566287 0.00242152 0.0172827 0.00258889 0.00638153 0.00205615 0.022677 0.0032413 0.0126332 0.00423598 0.0215727 0.00425152 0.0149478 0.00457975 0.0410464
7 1 Mg 6.18956 -6.37941e-06 2.9896 1.2 1 0.000946768 0.00422565 0.00144713 0.00449951 0.00129416 0.00584856 0.0025037 0.0162425 0.00271971 0.00572184 0.00184581 0.0226161 0.00279578 0.0130783 0.00371753 0.0207422 0.0043946 0.0148528 0.00484936 0.039025
8 3 O 4.55118 1.31737 2.79288 -1.2 1 0.0013014 0.00409818 0.00179695 0.0044089 0.00176151 0.00580871 0.002598 0.0171647 0.0024527 0.00703261 0.00229014 0.0220203 0.00342928 0.0121022 0.00347259 0.0217684 0.00472464 0.0156231 0.00507893 0.0402333
9 1 Mg -1.20682 0.0413099 4.4844 1.2 1 0.000237984 0.00269747 0.00154397 0.00476129 0.00139671 0.0056565 0.00206335 0.0163048 0.00219097 0.00620007 0.00214973 0.0229617 0.00309306 0.011365 0.00351979 0.0209709 0.00519431 0.0157146 0.00510324 0.0386397
10 2 Si -3.0337 2.72544 4.4844 2.4 1 0.000574822 0.00301377 0.00172524 0.00496608 0.00223166 0.00638606 0.00331376 0.0169069 0.00320681 0.00645087 0.00236512 0.0243329 0.00332837 0.0125327 0.00405204 0.0226831 0.0053922 0.0177752 0.00631713 0.039944
11 3 O -3.08099 1.11221 4.4844 -1.2 1 0.000493292 0.00342737 0.00166977 0.00439092 0.00144274 0.00557172 0.00251901 0.0162657 0.00284877 0.00585664 0.00226275 0.0228149 0.00334915 0.011113 0.0035138 0.0216107 0.0050199 0.0161927 0.00555803 0.0386283
12 3 O 0.582463 3.69946 4.4844 -1.2 1 0.00182424 0.00444806 0.00211113 0.00444733 0.00269464 0.00682443 0.00361627 0.017523 0.0033968 0.0066686 0.00318314 0.0251726 0.00428053 0.0127414 0.00449717 0.0245503 0.00684052 0.0188543 0.00823109 0.0422279
13 3 O -2.29524 3.43162 3.18632 -1.2 1 0.000934075 0.00261683 0.00255114 0.00466064 0.00227988 0.00617763 0.0029349 0.0180002 0.00318466 0.00688127 0.00273848 0.0247757 0.00338878 0.0127351 0.00483355 0.0244401 0.00599186 0.018052 0.00659165 0.0421464
14 3 O -2.34216 3.43162 5.78248 -1.2 1 0.00155298 0.00375184 0.00138169 0.00502418 0.00268937 0.00634451 0.00331813 0.0172885 0.00294667 0.00758015 0.00278557 0.0240391 0.00461055 0.0122762 0.00420776 0.0237808 0.00645665 0.0195251 0.00779626 0.0408842
15 1 Mg 1.12778 2.37449 2.9896 1.2 1 0.00153984 0.00343735 0.00225141 0.00457141 0.00225598 0.00605709 0.00311361 0.0168663 0.00268752 0.00629392 0.00243438 0.023865 0.00339004 0.0127641 0.00358869 0.0221507 0.00473166 0.0166053 0.00545837 0.0410343
16 1 Mg 3.92855 2.33318 4.4844 1.2 1 0.00131913 0.00414831 0.00154117 0.00432304 0.00183118 0.00591269 0.00352222 0.0170277 0.0031229 0.00626715 0.00289248 0.0233133 0.00370532 0.0129932 0.00519788 0.0221726 0.00642102 0.0173401 0.0068976 0.0404296
17 2 Si 2.09341 4.39804 4.4844 2.4 1 0.00139078 0.00424692 0.00196139 0.00424991 0.00306879 0.00619679 0.00382249 0.018477 0.00345333 0.00686926 0.00336334 0.0254165 0.00463403 0.0139064 0.00461068 0.0249302 0.00675423 0.018636 0.00832696 0.0439686
18 3 O 2.09991 6.01128 4.4844 -1.2 1 0.0019133 0.00464235 0.00171657 0.00418192 0.00300481 0.00663325 0.00323265 0.0196201 0.00276538 0.00741845 0.00306824 0.0270955 0.00426948 0.0143551 0.00493168 0.0278433 0.00693177 0.0196758 0.00828441 0.0461254
19 3 O -4.52137 3.42402 4.4844 -1.2 1 0.00103225 0.00357162 0.00218029 0.00467854 0.00233128 0.0072179 0.00347 0.0171858 0.00337672 0.0065197 0.00304486 0.0241364 0.00407012 0.0125596 0.0042675 0.0230274 0.00625141 0.0178704 0.00755429 0.0413767
20 3 O 2.80834 3.69187 3.18632 -1.2 1 0.00133856 0.00367149 0.00167546 0.00388422 0.00210018 0.00601952 0.0031135 0.017667 0.0030837 0.00652266 0.00281518 0.024499 0.00370369 0.0128396 0.00483729 0.0240372 0.00568072 0.0172064 0.00630931 0.0428823
21 1 Mg 1.17857 2.37449 0 1.2 1 0.00194927 0.00314239 0.00219041 0.0041988 0.00149507 0.00552087 0.00244734 0.0173478 0.00240889 0.00679772 0.00276534 0.0233483 0.00290589 0.0130362 0.00365051 0.0217068 0.00432361 0.0149923 0.00470193 0.0408809
22 3 O 2.76143 3.69187 5.78248 -1.2 1 0.00169004 0.00429721 0.00165404 0.00432956 0.00221276 0.00574448 0.00298538 0.0179219 0.00321521 0.00740556 0.0029551 0.023944 0.00474272 0.0128719 0.00541764 0.0235779 0.00660565 0.018856 0.00760253 0.0416491
23 1 Mg -1.67381 2.41581 1.4948 1.2 1 0.00132145 0.0023575 0.002519 0.00492608 0.0013774 0.00602217 0.00246097 0.0167905 0.00281902 0.00649438 0.00202413 0.0243325 0.0025543 0.0139363 0.00283862 0.0223733 0.00434311 0.016117 0.00477985 0.0417565
24 2 Si 0.16286 0.350945 1.4948 2.4 1 0.00175815 0.0023267 0.00273583 0.00450588 0.00128167 0.00628702 0.00287148 0.0166181 0.00240446 0.00543954 0.00200177 0.023244 0.00243876 0.0132764 0.00313231 0.0209618 0.00448419 0.014794 0.00420451 0.0405586
25 3 O 0.15972 -1.26229 1.4948 -1.2 1 0.00159995 0.00257488 0.00296603 0.00459338 0.00187912 0.00598026 0.00258443 0.0165485 0.00228047 0.00564325 0.00246497 0.0229255 0.00260481 0.0136039 0.00293637 0.021809 0.00408903 0.0146164 0.00383352 0.0407482
26 3 O 6.77654 1.32496 1.4948 -1.2 1 0.00105919 0.00355169 0.00148134 0.0047725 0.00126613 0.00604068 0.00239594 0.0169163 0.00256488 0.0056087 0.00178737 0.0238926 0.00283107 0.0133513 0.00358659 0.0219721 0.00458053 0.0153757 0.00440215 0.0408537
27 3 O -0.508028 1.05712 0.196716 -1.2 1 0.00141045 0.00252759 0.00334851 0.00435095 0.00136265 0.00565176 0.00248788 0.0172296 0.00183719 0.00682782 0.00253645 0.0223158 0.00269946 0.0126135 0.0031993 0.0212826 0.00412413 0.0152153 0.00434741 0.040136
28 3 O -0.552171 1.05712 2.79288 -1.2 1 0.00104227 0.00207154 0.00283365 0.00468529 0.00147755 0.00620936 0.00248524 0.0164163 0.002585 0.00651338 0.00179363 0.0230557 0.00304907 0.011666 0.00370844 0.0217957 0.00515027 0.0160518 0.00487643 0.0397722
29 1 Mg 6.31713 4.74899 0 1.2 1 0.000998856 0.00235688 0.00199256 0.00476638 0.00231946 0.00615349 0.00325606 0.0181653 0.00276832 0.00717207 0.00234383 0.025417 0.00303953 0.0135924 0.00441203 0.0247588 0.00484802 0.0164471 0.0060324 0.0429071
30 1 Mg 3.54847 9.45668 1.4948 1.2 1 0.000890707 0.00342047 0.00204857 0.00456024 0.00213893 0.00773026 0.00313069 0.0214243 0.00170063 0.00849122 0.00245311 0.0287135 0.00338907 0.0156571 0.00401433 0.0293495 0.00417655 0.0183311 0.00388935 0.0489662
31 2 Si 5.36879 6.77254 1.4948 2.4 1 0.000309206 0.00304225 0.00200794 0.00510317 0.00275233 0.00697963 0.00367862 0.0197257 0.00271888 0.00793635 0.00253739 0.0277628 0.00333429 0.0152914 0.00432521 0.0270755 0.00466602 0.0174524 0.00525945 0.0466822
32 3 O 5.41937 8.38578 1.4948 -1.2 1 0.000490766 0.00319976 0.00185756 0.00491972 0.00229617 0.00776419 0.00315018 0.0210089 0.00225086 0.00847067 0.0025459 0.0291924 0.00259019 0.01558 0.00327092 0.0292826 0.0046688 0.017601 0.00489313 0.0481742
33 3 O 1.75158 5.79852 1.4948 -1.2 1 0.00112094 0.00328753 0.0017166 0.00406421 0.00242858 0.00607317 0.00328476 0.01961 0.00282581 0.00737287 0.00269963 0.0280786 0.00306403 0.0153236 0.0036208 0.0269747 0.00539127 0.017693 0.00554754 0.0459232
34 3 O 4.67421 6.06637 0.196716 -1.2 1 0.00078404 0.00284737 0.00163128 0.00486783 0.00202514 0.00690485 0.00298011 0.0199183 0.00242562 0.00832806 0.00222734 0.0264115 0.00376816 0.0142839 0.00438452 0.02682 0.00476076 0.0168508 0.00555165 0.0451922
35 1 Mg 6.26654 4.74899 2.9896 1.2 1 0.0014219 0.00289884 0.00218679 0.00499624 0.00263324 0.00666436 0.00369745 0.0181265 0.0037202 0.00718927 0.0022372 0.0262496 0.00387797 0.01429 0.00510538 0.0251418 0.00584403 0.017723 0.0068808 0.0438432
36 3 O 4.63043 6.06637 2.79288 -1.2 1 0.00172219 0.00334393 0.00177178 0.00491294 0.00236696 0.00696161 0.00345212 0.0196004 0.00338585 0.00807678 0.00256259 0.0264299 0.00412878 0.0146076 0.00489714 0.0274013 0.00580682 0.0183805 0.00669178 0.0459824
37 1 Mg -1.12976 4.79031 4.4844 1.2 1 0.00168279 0.00398854 0.00171702 0.00477438 0.00247015 0.00629227 0.00331433 0.0181712 0.00348524 0.00725113 0.00320716 0.0260915 0.00440568 0.0140876 0.00472833 0.0258571 0.00743525 0.0194139 0.00800028 0.044236
38 2 Si -2.9517 7.47444 4.4844 2.4 1 0.00220037 0.00405072 0.00155609 0.00524717 0.00300756 0.00680471 0.00384782 0.0206132 0.0033257 0.00798321 0.0030871 0.0280206 0.00462934 0.01581 0.00558909 0.0284088 0.00702823 0.0195881 0.00813672 0.0483188
39 3 O -3.00198 5.86121 4.4844 -1.2 1 0.0015512 0.00408358 0.00142555 0.00510404 0.00322009 0.00663486 0.00417801 0.0191152 0.00352312 0.00785632 0.00288398 0.0264116 0.00461814 0.013982 0.00496423 0.0272874 0.00697258 0.0197961 0.0084015 0.0459849
40 3 O 0.666315 8.44846 4.4844 -1.2 1 0.00264672 0.005158 0.00162014 0.00481708 0.00298919 0.00751356 0.0030639 0.0213686 0.0031713 0.00800698 0.00337087 0.0288627 0.00466641 0.0158191 0.00471097 0.029721 0.00653937 0.0200042 0.00808265 0.0493542
41 3 O -2.21213 8.18062 3.18632 -1.2 1 0.0016618 0.00424732 0.0017357 0.00457665 0.0026368 0.00662544 0.00292456 0.0209912 0.0028098 0.00834364 0.00288301 0.0280132 0.00449252 0.0157483 0.00526813 0.0291899 0.00594988 0.0190053 0.00660162 0.049036
42 3 O -2.25864 8.18062 5.78248 -1.2 1 0.0029996 0.0046557 0.00178033 0.00490575 0.00311708 0.0064086 0.00301096 0.0209606 0.00257797 0.00876922 0.00370368 0.0275329 0.00468228 0.0164932 0.00581149 0.0297131 0.00740446 0.0210104 0.00831595 0.0501063
43 1 Mg 1.20893 7.12349 2.9896 1.2 1 0.00135202 0.00388924 0.00188524 0.0043713 0.00282955 0.00682838 0.00374753 0.0197742 0.00288184 0.00816496 0.00276397 0.0282951 0.00368873 0.0155911 0.00397896 0.027747 0.00565785 0.0185417 0.00632777 0.0472984
44 1 Mg 4.00982 7.08218 4.4844 1.2 1 0.00211726 0.00425795 0.00164789 0.00485476 0.00267891 0.00675024 0.00385535 0.0203153 0.00344313 0.00768093 0.00324543 0.0278917 0.00450265 0.0165356 0.00587778 0.0286045 0.00725856 0.0196033 0.00844813 0.0478436
45 2 Si 2.17861 9.14704 4.4844 2.4 1 0.00231097 0.00457557 0.0019014 0.00482512 0.00291104 0.00757003 0.00363884 0.0214446 0.00284651 0.0082446 0.00323384 0.0285064 0.00478025 0.0165999 0.00482161 0.0300146 0.00597507 0.0199125 0.00711477 0.0510997
46 3 O 2.18828 10.7603 4.4844 -1.2 1 0.00285225 0.00460389 0.00226647 0.00455758 0.00267609 0.0072601 0.0030287 0.0210907 0.0026356 0.00826415 0.00248012 0.0292123 0.00431834 0.015727 0.00460605 0.0310654 0.00612298 0.0200792 0.00665599 0.0517453
47 3 O -4.43805 8.17302 4.4844 -1.2 1 0.00156603 0.0044606 0.0019082 0.00509566 0.00263842 0.00791649 0.00340494 0.0208529 0.00335555 0.0083047 0.00311986 0.028939 0.00497892 0.0158022 0.00520396 0.0297483 0.0068707 0.0198932 0.00885436 0.0489098
48 3 O 2.89193 8.44087 3.18632 -1.2 1 0.00187448 0.00392831 0.00194156 0.00436568 0.00257937 0.00712544 0.00333937 0.0207533 0.00290932 0.00858404 0.00289846 0.0279143 0.00411572 0.0158102 0.00488293 0.0292589 0.00599355 0.0189695 0.0058882 0.0490731
49 1 Mg 1.25915 7.12349 0 1.2 1 0.000913217 0.00292817 0.00140592 0.00420949 0.00187933 0.0072087 0.00290669 0.0202344 0.00278681 0.00833289 0.00269495 0.0277834 0.00365451 0.0143285 0.00378685 0.0276587 0.00482325 0.0175155 0.00457532 0.0460847
50 3 O 2.84547 8.44087 5.78248 -1.2 1 0.00279252 0.00502823 0.001805 0.00472938 0.00268892 0.00691485 0.00341506 0.0212024 0.00306491 0.0089579 0.00345005 0.0276851 0.00572493 0.0165046 0.00554542 0.0300495 0.00635421 0.0214047 0.00793847 0.050343
51 1 Mg -1.59284 7.16481 1.4948 1.2 1 0.00102415 0.00321259 0.00141913 0.00467739 0.00181193 0.0065194 0.00278061 0.0200032 0.00282961 0.00800914 0.00188829 0.0279528 0.0035617 0.0154677 0.0038652 0.0273671 0.00469535 0.0177726 0.00556675 0.0468062
52 2 Si 0.240329 5.09994 1.4948 2.4 1 0.00114428 0.00332245 0.00193926 0.00409253 0.00187463 0.00680719 0.00312012 0.0190591 0.00313553 0.00746165 0.00227112 0.0262754 0.00299501 0.0143492 0.00417623 0.0249477 0.00512748 0.0170938 0.00529544 0.0448291
53 3 O 0.234538 3.48671 1.4948 -1.2 1 0.00171065 0.00339629 0.00254595 0.00435091 0.00186566 0.0064813 0.00265653 0.0180115 0.00335312 0.00708308 0.00237915 0.0247397 0.00339646 0.0133433 0.00400621 0.0241236 0.00546069 0.0161993 0.00542947 0.0425222
54 3 O 6.85564 6.07396 1.4948 -1.2 1 0.000745132 0.00250381 0.00224234 0.0048946 0.00250499 0.00623955 0.00306346 0.020029 0.00309465 0.00764451 0.00214718 0.0279308 0.00345054 0.0145749 0.00482871 0.0270255 0.00557398 0.0177933 0.00622805 0.0455923
55 3 O -0.429565 5.80612 0.196716 -1.2 1 0.000952053 0.00289685 0.00215061 0.00414946 0.00186619 0.00710537 0.00260178 0.0196623 0.0028024 0.00861783 0.00249481 0.0259206 0.00285968 0.0140699 0.00395739 0.0260288 0.0050792 0.0168825 0.00577682 0.0452528
56 3 O -0.473377 5.80612 2.79288 -1.2 1 0.00155215 0.00340535 0.00198454 0.00447295 0.00240167 0.00688597 0.0031351 0.0193452 0.00317572 0.00815246 0.00294372 0.0261986 0.00392965 0.0144567 0.00457298 0.0265689 0.00639821 0.0186709 0.00666588 0.04614
57 1 Mg 6.40169 9.49799 0 1.2 1 0.000624687 0.00375282 0.00162465 0.00461672 0.00153167 0.00833897 0.00203394 0.0210823 0.0016934 0.00902591 0.00183042 0.0289967 0.00270577 0.0148308 0.00283363 0.0299689 0.0037182 0.0179945 0.00409841 0.0476171
58 1 Mg 3.64209 14.2057 1.4948 1.2 1 0.00168385 0.00326337 0.00177516 0.00441357 0.00181133 0.00876425 0.00178522 0.0217244 0.00163091 0.00884243 0.00229216 0.0285744 0.0026932 0.0162195 0.00328474 0.0295692 0.00356509 0.0170063 0.00352734 0.0495732
59 2 Si 5.45748 11.5215 1.4948 2.4 1 0.00160593 0.00337856 0.00191365 0.0045316 0.0018243 0.00820485 0.00225535 0.0211423 0.00159131 0.00841474 0.00185651 0.0290953 0.0028269 0.0162702 0.00362321 0.0294403 0.00404384 0.0169486 0.00381328 0.0493363
60 3 O 5.51101 13.1348 1.4948 -1.2 1 0.00166865 0.00331839 0.00195986 0.00452307 0.00167003 0.00900329 0.00190724 0.0212444 0.00176035 0.00875394 0.0016826 0.029595 0.00239514 0.0161833 0.00309693 0.0299867 0.00374498 0.0167093 0.00360148 0.0492278
61 3 O 1.83851 10.5475 1.4948 -1.2 1 0.000734812 0.00369835 0.00198336 0.00465913 0.00187704 0.00774503 0.00247378 0.0217264 0.00176881 0.00849019 0.00224863 0.0295979 0.00288824 0.0157894 0.00349742 0.0300101 0.00407337 0.0179543 0.00341222 0.049457
62 3 O 4.7611 10.8154 0.196716 -1.2 1 0.000731376 0.00318947 0.00200346 0.0046119 0.00158006 0.00856109 0.00223371 0.021355 0.00142249 0.00886844 0.00196139 0.0284316 0.00309583 0.0157126 0.00403635 0.0295928 0.00368451 0.0172427 0.00365819 0.0485607
63 1 Mg 6.35203 9.49799 2.9896 1.2 1 0.00108542 0.00394994 0.00184962 0.00474232 0.00266243 0.00759303 0.00350264 0.0205604 0.00313961 0.00860968 0.00216787 0.0295285 0.00401662 0.0161358 0.00359042 0.0294922 0.0044262 0.0185928 0.00548393 0.0491604
64 3 O 4.71833 10.8154 2.79288 -1.2 1 0.00207626 0.00369157 0.00189869 0.00437487 0.00222561 0.0081908 0.00235779 0.0214504 0.00205393 0.00904593 0.00222675 0.0286109 0.00375991 0.0159718 0.0043351 0.0303482 0.00520679 0.0185364 0.00541017 0.0504077
65 1 Mg -1.0438 9.53931 4.4844 1.2 1 0.00266955 0.00480616 0.00193599 0.00447686 0.00308357 0.00693125 0.00267135 0.0211993 0.00287028 0.00850345 0.00290753 0.0289531 0.00417238 0.016573 0.00486917 0.0302008 0.00654291 0.0201312 0.00717533 0.050682
66 2 Si -2.8604 12.2234 4.4844 2.4 1 0.0027486 0.00432522 0.00205363 0.00440479 0.00281531 0.00773432 0.00308529 0.021966 0.0028819 0.00864259 0.00262261 0.028966 0.00468791 0.0168119 0.00476236 0.0305578 0.00572609 0.0195618 0.00662236 0.0524371
67 3 O -2.91391 10.6102 4.4844 -1.2 1 0.00277877 0.00451083 0.00200875 0.0044678 0.00291003 0.00721735 0.00331627 0.0208922 0.00269315 0.00803933 0.00222206 0.0291589 0.00448057 0.0159248 0.00461188 0.0310932 0.00597014 0.0199369 0.00684088 0.0513885
68 3 O 0.7596 13.1975 4.4844 -1.2 1 0.00302138 0.00428849 0.002104 0.00473907 0.00287086 0.00863081 0.00257966 0.0224532 0.00276456 0.00854321 0.00284711 0.0292559 0.00431631 0.0164569 0.00439905 0.0306624 0.00591878 0.0199041 0.00649253 0.0523604
69 3 O -2.12001 12.9296 3.18632 -1.2 1 0.00272601 0.0038891 0.00193692 0.00410291 0.00259189 0.00760835 0.00224205 0.0218288 0.00241701 0.00865691 0.00240195 0.0283661 0.00392322 0.0163903 0.0048913 0.030797 0.00513127 0.0186954 0.00533458 0.0513669
70 3 O -2.16532 12.9296 5.78248 -1.2 1 0.00368997 0.00461019 0.00180999 0.00443188 0.0029706 0.00704585 0.00242132 0.0224135 0.00247641 0.00861966 0.00266934 0.0284148 0.00434365 0.0172003 0.005158 0.0317534 0.00627727 0.0214675 0.00687671 0.0542874
71 1 Mg 1.29891 11.8725 2.9896 1.2 1 0.00207565 0.00363443 0.00217116 0.00460508 0.00249174 0.00807891 0.00283262 0.0211965 0.00257858 0.00871098 0.00214224 0.0294576 0.00357442 0.0162422 0.00368894 0.0302338 0.00458472 0.0180529 0.00482618 0.0502827
72 1 Mg 4.10033 11.8312 4.4844 1.2 1 0.00267652 0.00407674 0.00225078 0.00427193 0.00261957 0.00741293 0.0027673 0.0215619 0.00263175 0.00830807 0.00270521 0.029436 0.00394305 0.0173726 0.00521357 0.0308356 0.00648499 0.0196971 0.0063431 0.0520882
73 2 Si 2.27333 13.896 4.4844 2.4 1 0.00295656 0.00363259 0.00194483 0.00478787 0.00299443 0.00806348 0.00316125 0.0219748 0.00249107 0.00840437 0.00288332 0.0288546 0.00414854 0.0168577 0.00464682 0.0304491 0.0055489 0.0192059 0.00609143 0.0530509
74 3 O 2.28634 15.5093 4.4844 -1.2 1 0.0031754 0.00395862 0.00201301 0.00453274 0.00309473 0.0074096 0.00294635 0.0212398 0.00264381 0.00790788 0.00229389 0.0293612 0.00373282 0.0161889 0.00419693 0.0310149 0.00567926 0.0189699 0.00617925 0.0527259
75 3 O -4.34533 12.922 4.4844 -1.2 1 0.00265106 0.0043738 0.00228441 0.00449983 0.00289592 0.00850995 0.00306449 0.0220363 0.0028788 0.00856509 0.00260012 0.0293712 0.0042772 0.0164229 0.00498792 0.0310121 0.00627299 0.0200827 0.00716685 0.0523078
76 3 O 2.98455 13.1899 3.18632 -1.2 1 0.00255047 0.00356396 0.00199378 0.00426668 0.00261427 0.00789858 0.00223594 0.0217831 0.00221065 0.00866051 0.00247485 0.0285493 0.0037611 0.0162941 0.00448324 0.0304333 0.00541772 0.0184615 0.0054076 0.0512322
77 1 Mg 1.34779 11.8725 0 1.2 1 0.000967467 0.00307019 0.00147706 0.00465503 0.00149615 0.0088372 0.00164362 0.0213052 0.00127998 0.00922303 0.00200468 0.0291648 0.00295102 0.0149979 0.00309317 0.0302614 0.0032251 0.0172813 0.00331991 0.0482224
78 3 O 2.93934 13.1899 5.78248 -1.2 1 0.00316672 0.00452506 0.00196403 0.00474736 0.00276071 0.00724059 0.00261064 0.0222458 0.00260602 0.00863104 0.00303437 0.028315 0.00458152 0.0169341 0.00483527 0.0317504 0.00612804 0.021576 0.00666679 0.0543926
79 1 Mg -1.50344 11.9138 1.4948 1.2 1 0.00113143 0.0036511 0.00162022 0.00436894 0.00146578 0.00826889 0.00191368 0.0216749 0.00238532 0.00869721 0.00159279 0.0290052 0.00369873 0.0161032 0.00358026 0.029919 0.00344787 0.0175834 0.00372332 0.0492907
80 2 Si 0.326006 9.84894 1.4948 2.4 1 0.000213251 0.00357152 0.00148048 0.00479923 0.00193087 0.00813899 0.00214116 0.0211321 0.00216289 0.0085379 0.00169828 0.0288205 0.00323284 0.0156922 0.00385055 0.0291146 0.00382344 0.017804 0.00347385 0.0487397
81 3 O 0.317364 8.23571 1.4948 -1.2 1 0.000820495 0.00356904 0.00126585 0.00432548 0.00189349 0.00771212 0.00222001 0.0203855 0.00256271 0.00809216 0.00188309 0.0288885 0.00366771 0.0157309 0.00397185 0.0287551 0.00449856 0.0177863 0.00418036 0.047859
82 3 O 6.94307 10.823 1.4948 -1.2 1 0.000919256 0.00385498 0.00173922 0.00436447 0.00191903 0.00769642 0.00267129 0.0218294 0.0023556 0.00848334 0.00153442 0.0297001 0.0031695 0.0159038 0.00352179 0.0301105 0.00368866 0.0180108 0.00403712 0.0493778
83 3 O -0.343122 10.5551 0.196716 -1.2 1 0.000503574 0.00324277 0.001269 0.0045554 0.00151254 0.00856579 0.0019325 0.0213878 0.00167982 0.00907675 0.00197112 0.0283607 0.00344607 0.0154145 0.00426688 0.0295534 0.00348195 0.0174728 0.00359073 0.0485339
84 3 O -0.385966 10.5551 2.79288 -1.2 1 0.00214947 0.00398381 0.00161854 0.0044134 0.00260887 0.00803736 0.00220147 0.0215596 0.00208691 0.00917111 0.00250418 0.0281446 0.00403293 0.0158693 0.00435217 0.0303678 0.00509927 0.0187278 0.00501597 0.0502516
85 1 Mg 6.49448 14.247 0 1.2 1 0.0011434 0.00358844 0.00178866 0.00465797 0.0011046 0.00921863 0.00136815 0.0212814 0.00119283 0.00868038 0.00144402 0.0290421 0.00180289 0.0155978 0.00255273 0.0300127 0.0031676 0.0165902 0.00303509 0.0481579
86 1 Mg 3.74457 18.9547 1.4948 1.2 1 0.00184558 0.00317462 0.00153873 0.00390165 0.00204497 0.00850764 0.00140604 0.0222486 0.00186507 0.0081124 0.00233167 0.0279843 0.00256366 0.0166421 0.00355984 0.0287306 0.00359721 0.016403 0.00334735 0.0500755
87 2 Si 5.55495 16.2705 1.4948 2.4 1 0.00206165 0.00310013 0.00161486 0.00436705 0.00190363 0.0088823 0.00148728 0.0215262 0.00142464 0.00802622 0.00139168 0.0288206 0.00250679 0.0164169 0.00310026 0.0288203 0.00371913 0.0159927 0.00368783 0.0496627
88 3 O 5.6115 17.8838 1.4948 -1.2 1 0.00209783 0.00316028 0.00180522 0.00410964 0.00197947 0.00913265 0.00162312 0.0217038 0.00181852 0.00795389 0.00147007 0.0289806 0.00219412 0.0166048 0.00290412 0.028929 0.00334477 0.0157891 0.00353414 0.0496794
89 3 O 1.93416 15.2965 1.4948 -1.2 1 0.00180554 0.00311656 0.00185233 0.00441058 0.00193903 0.00833652 0.00219051 0.0218996 0.00190499 0.00821421 0.00153241 0.029348 0.00228398 0.0162901 0.00305734 0.0297887 0.00370762 0.0165668 0.00334407 0.0499516
90 3 O 4.85636 15.5644 0.196716 -1.2 1 0.00148627 0.00287267 0.00158796 0.00455825 0.0014142 0.0091096 0.00139784 0.0214184 0.000980586 0.00832846 0.00173852 0.0283195 0.00269098 0.0161205 0.00367803 0.0292912 0.00328767 0.0159126 0.00316531 0.0489225
91 1 Mg 6.44662 14.247 2.9896 1.2 1 0.00170927 0.00364042 0.00176084 0.004302 0.00257919 0.00848966 0.00294266 0.0209208 0.00260942 0.00874081 0.00179095 0.0296609 0.0032134 0.0164661 0.00325875 0.0299048 0.00404226 0.0176237 0.00468034 0.0502969
92 3 O 4.81537 15.5644 2.79288 -1.2 1 0.00255964 0.00309349 0.00173623 0.00414636 0.00249628 0.00875493 0.00177498 0.0219327 0.00172067 0.0087911 0.00187651 0.0283443 0.00301162 0.0165255 0.00374855 0.0297481 0.00473258 0.017264 0.00487399 0.0507977
93 1 Mg -0.948271 14.2883 4.4844 1.2 1 0.00337279 0.00393914 0.0019191 0.0042267 0.00291413 0.00778635 0.00270105 0.0217825 0.00275073 0.00846336 0.00281755 0.0291243 0.00363397 0.0170178 0.00522613 0.0308289 0.00582371 0.0191974 0.00634036 0.0525494
94 2 Si -2.75928 16.9724 4.4844 2.4 1 0.00293149 0.00350366 0.00198121 0.00431721 0.0030044 0.00792659 0.00296184 0.0222539 0.00273719 0.0080327 0.00252002 0.0285663 0.00362324 0.0171565 0.00468881 0.0299774 0.00509188 0.0185871 0.00581147 0.0533781
95 3 O -2.81617 15.3592 4.4844 -1.2 1 0.00326417 0.00398603 0.00195753 0.004218 0.003088 0.00756696 0.00287967 0.0214035 0.00260106 0.00789446 0.00219661 0.0292397 0.00397335 0.0163796 0.00433039 0.0308947 0.00585066 0.0189466 0.00647681 0.0526479
96 3 O 0.862762 17.9465 4.4844 -1.2 1 0.00280727 0.0037911 0.00186326 0.00449765 0.00322928 0.00845154 0.00272805 0.022565 0.0026716 0.00808354 0.00262287 0.0291996 0.00406647 0.0172758 0.00453654 0.029688 0.00550793 0.0187187 0.00595612 0.0529924
97 3 O -2.0185 17.6786 3.18632 -1.2 1 0.00286748 0.00337502 0.00195678 0.00381281 0.00280755 0.0074949 0.00237591 0.0222618 0.00235455 0.00807929 0.00217714 0.028056 0.00353882 0.0167919 0.00464909 0.0300834 0.00475214 0.0176558 0.00500355 0.0519583
98 3 O -2.06164 17.6786 5.78248 -1.2 1 0.00341278 0.00424005 0.00180241 0.00445507 0.00309076 0.00693547 0.00257126 0.0225868 0.00249827 0.00807403 0.00243783 0.0284754 0.00387335 0.0176662 0.00488168 0.0313912 0.00579117 0.0204952 0.00621921 0.05523
99 1 Mg 1.39817 16.6215 2.9896 1.2 1 0.00259014 0.00315573 0.00196934 0.00437245 0.00274504 0.00833945 0.00275116 0.0213934 0.00260886 0.00825081 0.00195219 0.0291544 0.00287685 0.0167337 0.00344339 0.029628 0.00412724 0.0168153 0.00430987 0.0507075
100 1 Mg 4.20062 16.5802 4.4844 1.2 1 0.00299318 0.00339929 0.00197187 0.00423688 0.00284113 0.00760946 0.0025181 0.0218402 0.00300846 0.0079381 0.00277378 0.0290055 0.00360563 0.0176684 0.00551935 0.030445 0.00624249 0.0187552 0.00598743 0.0529163
101 2 Si 2.37796 18.645 4.4844 2.4 1 0.0024761 0.00328646 0.00167094 0.00438746 0.00309782 0.00787833 0.00289137 0.022513 0.00269894 0.00807835 0.00273039 0.0285806 0.00384743 0.0173754 0.00467445 0.0297046 0.00523784 0.0181245 0.00559695 0.0535929
102 3 O 2.39434 20.2583 4.4844 -1.2 1 0.00249229 0.00360832 0.00178637 0.00435149 0.00311376 0.00694212 0.00284187 0.0217629 0.00284903 0.00749797 0.00198682 0.0291918 0.00359568 0.0170679 0.00414263 0.0300515 0.00549334 0.0181092 0.00618312 0.0533483
103 3 O -4.24274 17.671 4.4844 -1.2 1 0.00265276 0.00377794 0.00208304 0.00432263 0.00292016 0.00850236 0.00295433 0.0225532 0.0029016 0.00817802 0.00238533 0.0290365 0.00358049 0.0169936 0.00486652 0.0301568 0.00576464 0.0189439 0.00631102 0.0530307
104 3 O 3.08659 17.9389 3.18632 -1.2 1 0.00263845 0.00299409 0.00177876 0.00387156 0.00279606 0.00781815 0.00207632 0.0222485 0.00240862 0.00819843 0.00231117 0.0280315 0.00340267 0.0166347 0.00447961 0.0296832 0.00529616 0.0175553 0.0053092 0.0517244
105 1 Mg 1.44478 16.6215 0 1.2 1 0.00194463 0.00305919 0.00132346 0.00432232 0.0014875 0.00900209 0.00122395 0.0214311 0.001343 0.00826345 0.00155214 0.0288064 0.00237339 0.0157888 0.00254087 0.0293112 0.003016 0.0161222 0.00309153 0.0486842
106 3 O 3.0436 17.9389 5.78248 -1.2 1 0.00278512 0.00399182 0.0017038 0.00476069 0.00296657 0.0070345 0.00252621 0.022755 0.00240902 0.0082347 0.00315603 0.0283745 0.00407658 0.0175404 0.00528586 0.031171 0.00594358 0.0207367 0.00614086 0.0553918
107 1 Mg -1.40524 16.6628 1.4948 1.2 1 0.00166614 0.00323891 0.00146417 0.00425632 0.00182961 0.00862139 0.00192804 0.0221804 0.00189068 0.00836862 0.00167899 0.0285197 0.00311307 0.0167456 0.00304534 0.0293942 0.00298085 0.0166371 0.00323955 0.0496191
108 2 Si 0.420358 14.5979 1.4948 2.4 1 0.0016249 0.00309383 0.00166083 0.00470415 0.00206178 0.00906608 0.00194405 0.0213593 0.00167782 0.00836096 0.00145977 0.0287341 0.00310167 0.0164796 0.00367147 0.0289994 0.003463 0.0164731 0.00342725 0.0493814
109 3 O 0.408732 12.9847 1.4948 -1.2 1 0.00137514 0.00317823 0.00158716 0.00454742 0.00193027 0.00903191 0.00156345 0.0211793 0.00215352 0.00858047 0.00157968 0.0293313 0.00320384 0.0160867 0.00322577 0.0299105 0.00320063 0.0169661 0.00360846 0.0493924
110 3 O 7.03923 15.572 1.4948 -1.2 1 0.00175412 0.00339605 0.00176162 0.00431467 0.00212516 0.00833945 0.00235257 0.0217524 0.00216859 0.0081771 0.0015117 0.0294933 0.00271421 0.0164438 0.00305846 0.029708 0.00342402 0.0167295 0.00384937 0.0497409
111 3 O -0.248332 15.3041 0.196716 -1.2 1 0.00163854 0.00293109 0.00134193 0.00438692 0.00123552 0.00897402 0.00182377 0.0212763 0.00134531 0.00844512 0.00160472 0.0282645 0.00290026 0.0160277 0.00372838 0.0292863 0.00295123 0.0161211 0.00314255 0.0487809
112 3 O -0.289436 15.3041 2.79288 -1.2 1 0.00284581 0.00346093 0.00163581 0.00420226 0.00263468 0.00865927 0.00200747 0.0220574 0.00186746 0.00884004 0.00204472 0.0279939 0.0031569 0.0166263 0.00370347 0.0298625 0.00437735 0.0178435 0.00457363 0.0509562
113 1 Mg 6.59566 18.996 0 1.2 1 0.00116263 0.00325996 0.00175885 0.00421875 0.00115897 0.00862446 0.00120124 0.0219815 0.00118577 0.00793256 0.00136266 0.02841 0.00211282 0.0164197 0.00238464 0.0286557 0.00307531 0.0159172 0.00306537 0.0486887
114 1 Mg 3.85574 23.7037 1.4948 1.2 1 0.00169476 0.00255809 0.00135191 0.00400967 0.00187418 0.00732241 0.00133702 0.0232701 0.00179233 0.00772456 0.00217637 0.0274998 0.00248102 0.0176577 0.00380605 0.0283827 0.00331596 0.0171427 0.00348271 0.0509205
115 2 Si 5.66125 21.0195 1.4948 2.4 1 0.00175715 0.00260812 0.00136543 0.00397704 0.00212275 0.00815331 0.00165406 0.0219245 0.0014051 0.00760745 0.00147231 0.0283361 0.00259232 0.0173147 0.00281922 0.0280764 0.00350732 0.0157461 0.00399287 0.0503271
116 3 O 5.72074 22.6328 1.4948 -1.2 1 0.00181636 0.00263866 0.00172621 0.00396589 0.0020279 0.00809858 0.00170533 0.0224552 0.00179292 0.00743403 0.00129332 0.0282705 0.00221983 0.0173305 0.0028973 0.0283391 0.00320763 0.0162461 0.0036057 0.050353
117 3 O 2.03867 20.0455 1.4948 -1.2 1 0.00163319 0.003147 0.0016309 0.00408556 0.00199677 0.0077147 0.00206349 0.0223083 0.00221829 0.00756803 0.00142246 0.0287136 0.00223688 0.0171381 0.002658 0.028905 0.00348285 0.0161459 0.00341798 0.0505328
118 3 O 4.96004 20.3134 0.196716 -1.2 1 0.00168147 0.00253503 0.00159105 0.00403704 0.00145607 0.00833942 0.00111752 0.021798 0.00110947 0.00759569 0.00163444 0.0278936 0.00277492 0.0166441 0.00398675 0.0286275 0.00316156 0.0152275 0.00303303 0.0495022
119 1 Mg 6.55057 18.996 2.9896 1.2 1 0.00186693 0.00341678 0.00169549 0.00397183 0.00269527 0.00811212 0.0029595 0.0214421 0.00259145 0.00804516 0.00165135 0.0293678 0.00293289 0.0170993 0.00304989 0.0289579 0.0039759 0.0168925 0.00463343 0.0510007