ITEM: TIMESTEP
14200
ITEM: NUMBER OF ATOMS
10500
ITEM: BOX BOUNDS xy xz yz pp pp pp
0	15.2974	5.099
0	118.725	0
0	89.688	0
ITEM: ATOMS id type element xu yu zu q Q_1 Q_2 Q_3 Q_4 Q_5 Q_6 Q_7 Q_8 Q_9 Q_10 Q_11 Q_12 Q_13 Q_14 Q_15 Q_16 Q_17 Q_18 Q_19 Q_20 Q_21
1 1 Mg 6.2404 -6.37941e-06 0 1.2 1 0.00107336 0.00434067 0.00115723 0.00515856 0.00135005 0.0057928 0.0021264 0.016186 0.00234086 0.00562219 0.00229801 0.021851 0.00254486 0.0136355 0.0034842 0.0205513 0.00392756 0.0142347 0.00401248 0.0404443
2 1 Mg 3.46349 4.70768 1.4948 1.2 1 0.00123657 0.00329019 0.00166941 0.00452932 0.00185641 0.00626975 0.00359839 0.0188461 0.00275705 0.00681407 0.00284088 0.0255377 0.00312314 0.013985 0.00423852 0.0249887 0.0054482 0.0172247 0.00579765 0.0441096
3 2 Si 5.2885 2.02354 1.4948 2.4 1 0.000611339 0.00347288 0.00216049 0.00484321 0.00182665 0.00588668 0.00257525 0.0171567 0.00249702 0.00608496 0.00214589 0.023179 0.00279014 0.0137444 0.00360113 0.0214633 0.00377949 0.0153423 0.00441479 0.0414758
4 3 O 5.33628 3.63678 1.4948 -1.2 1 0.000897628 0.00301926 0.00179771 0.0048277 0.00202258 0.00637334 0.00297325 0.0179066 0.00224303 0.00663522 0.00193375 0.0250734 0.00250517 0.0139467 0.00414356 0.0238219 0.005016 0.0164628 0.00573961 0.0431225
5 3 O 1.67294 1.04952 1.4948 -1.2 1 0.00153534 0.00333645 0.00207128 0.00453566 0.00129286 0.00585086 0.00253089 0.0169874 0.00238558 0.00606897 0.00209314 0.0227304 0.00250903 0.0129059 0.00319461 0.0218354 0.00462639 0.0155954 0.00482439 0.0404208
6 3 O 4.59532 1.31737 0.196716 -1.2 1 0.000910842 0.00317684 0.0019652 0.00467015 0.00212192 0.00577764 0.00247963 0.0172567 0.00275103 0.00621795 0.00203986 0.0223682 0.00305956 0.0130067 0.00405899 0.0214306 0.00408587 0.0148576 0.00465155 0.0410102
7 1 Mg 6.18956 -6.37941e-06 2.9896 1.2 1 0.00104947 0.00429154 0.00167573 0.00448378 0.00132888 0.00592283 0.00240852 0.0161152 0.00269094 0.00552507 0.00183057 0.0224045 0.00270994 0.0134177 0.00354902 0.0205059 0.00447012 0.0147584 0.00469308 0.039218
8 3 O 4.55118 1.31737 2.79288 -1.2 1 0.00123334 0.00436981 0.00208422 0.00446648 0.00179085 0.00586166 0.0026539 0.0170481 0.0025854 0.0068166 0.00218577 0.0217851 0.00320551 0.0125013 0.00331365 0.0214476 0.00499528 0.015669 0.00522532 0.0405724
9 1 Mg -1.20682 0.0413099 4.4844 1.2 1 0.000298852 0.00241574 0.00177641 0.00488379 0.0013706 0.00564294 0.00205297 0.0162312 0.00221135 0.00592086 0.00212739 0.0226507 0.00298241 0.0116049 0.00348962 0.0204118 0.00529561 0.0158403 0.00498669 0.039048
10 2 Si -3.0337 2.72544 4.4844 2.4 1 0.000840061 0.00297791 0.00196618 0.0049972 0.00228613 0.00623746 0.0032712 0.0169117 0.00324188 0.00621105 0.00226622 0.0240919 0.00317311 0.0129814 0.00408361 0.0221871 0.00547598 0.0178919 0.00616435 0.040481
11 3 O -3.08099 1.11221 4.4844 -1.2 1 0.000512528 0.00307954 0.00213746 0.00463642 0.00140594 0.00557875 0.00225502 0.0162298 0.00279512 0.00561678 0.00205061 0.0223983 0.00326423 0.0114314 0.00345742 0.0210469 0.00506773 0.0166033 0.00538967 0.0390284
12 3 O 0.582463 3.69946 4.4844 -1.2 1 0.00151788 0.00434133 0.00176701 0.00458439 0.00238153 0.00684289 0.00350804 0.017549 0.00329832 0.00641265 0.00328468 0.0247255 0.00419638 0.013041 0.00420953 0.0240312 0.00679611 0.0191545 0.00827984 0.0426472
13 3 O -2.29524 3.43162 3.18632 -1.2 1 0.000904549 0.00273578 0.00276301 0.004622 0.00218349 0.0060234 0.00295092 0.018046 0.00333442 0.00669509 0.00259768 0.0245309 0.0031837 0.013063 0.00463573 0.0241341 0.00605314 0.0181767 0.00662412 0.0427167
14 3 O -2.34216 3.43162 5.78248 -1.2 1 0.00101971 0.00359974 0.00134658 0.00509707 0.00274333 0.00609095 0.0031925 0.0173516 0.00283312 0.00727196 0.00281927 0.0235416 0.00440937 0.0124242 0.00420529 0.0230073 0.00634084 0.0198534 0.00744812 0.0417285
15 1 Mg 1.12778 2.37449 2.9896 1.2 1 0.00139426 0.00356359 0.00221599 0.00477463 0.00209515 0.00603069 0.00301038 0.0168975 0.00261723 0.00596932 0.00227327 0.0235619 0.00312006 0.0130911 0.00337224 0.0218634 0.00492306 0.0166382 0.00558558 0.0413516
16 1 Mg 3.92855 2.33318 4.4844 1.2 1 0.00164507 0.00397804 0.00164941 0.00449075 0.00172943 0.00568314 0.0033866 0.0170012 0.00314345 0.00603517 0.00290699 0.0230513 0.00363012 0.0136303 0.00503629 0.0216808 0.00653825 0.0175093 0.00700607 0.041152
17 2 Si 2.09341 4.39804 4.4844 2.4 1 0.00140102 0.00411741 0.00187695 0.00435675 0.00286481 0.00612746 0.0037253 0.0185141 0.00353996 0.00671093 0.00346359 0.0249262 0.00454226 0.0141948 0.00436435 0.0243919 0.0067142 0.0189609 0.00850167 0.044506
18 3 O 2.09991 6.01128 4.4844 -1.2 1 0.0020608 0.00436631 0.00139013 0.00422685 0.00289161 0.00661364 0.00318928 0.0195443 0.00279512 0.00724425 0.00314927 0.0266508 0.00418411 0.0145264 0.00471285 0.0270739 0.00677302 0.01986 0.00806893 0.0466712
19 3 O -4.52137 3.42402 4.4844 -1.2 1 0.00159512 0.00318119 0.00223377 0.00466458 0.00231092 0.00699142 0.00343756 0.0172144 0.0032525 0.00628183 0.00307655 0.0238255 0.00384979 0.0129857 0.00404982 0.022665 0.00632013 0.0180707 0.00738744 0.0420574
20 3 O 2.80834 3.69187 3.18632 -1.2 1 0.00149532 0.00366554 0.00169219 0.00393093 0.00202143 0.00599311 0.00301547 0.0176973 0.00304635 0.0062528 0.00272914 0.024181 0.00353691 0.0132133 0.00466102 0.023754 0.00583947 0.017374 0.00651274 0.043357
21 1 Mg 1.17857 2.37449 0 1.2 1 0.00181181 0.00343002 0.00235429 0.00450551 0.00138126 0.00549865 0.00249848 0.0172923 0.0024539 0.00664876 0.00281617 0.0231167 0.00276955 0.0133146 0.00353655 0.0217263 0.00429898 0.0149114 0.00480774 0.0409823
22 3 O 2.76143 3.69187 5.78248 -1.2 1 0.00188281 0.00404953 0.00181952 0.00444864 0.00222379 0.00557319 0.00286615 0.0176331 0.00343201 0.00709838 0.0032243 0.0231637 0.0048578 0.0128388 0.0055548 0.0228218 0.00645588 0.0189746 0.00766533 0.0422807
23 1 Mg -1.67381 2.41581 1.4948 1.2 1 0.00114345 0.00270116 0.0027029 0.00510719 0.00135369 0.00605045 0.00237391 0.0167647 0.00278114 0.0063344 0.00195046 0.0240724 0.00235782 0.0143458 0.00268379 0.0222836 0.00435767 0.0161016 0.00483785 0.0418731
24 2 Si 0.16286 0.350945 1.4948 2.4 1 0.00163149 0.00266757 0.00288879 0.00496532 0.00123059 0.00650024 0.00273951 0.0164386 0.00220761 0.00521389 0.00187332 0.0227409 0.0022969 0.0135066 0.00299685 0.0206819 0.00463574 0.0148047 0.00437488 0.0403633
25 3 O 0.15972 -1.26229 1.4948 -1.2 1 0.00144101 0.00266286 0.00308725 0.00488096 0.00183181 0.00616759 0.00249668 0.0163968 0.00229669 0.00548165 0.00242991 0.0226885 0.00245929 0.0138775 0.00283927 0.021681 0.00414837 0.0146345 0.0038209 0.0408213
26 3 O 6.77654 1.32496 1.4948 -1.2 1 0.00111011 0.00384594 0.00173944 0.00483888 0.00124182 0.00606784 0.00232154 0.016794 0.00253372 0.0054783 0.00173264 0.0236289 0.0026946 0.013779 0.0034428 0.0217861 0.00453564 0.0152578 0.00434122 0.0409744
27 3 O -0.508028 1.05712 0.196716 -1.2 1 0.00125241 0.00293824 0.003434 0.00459711 0.00135015 0.00567825 0.00248308 0.0170975 0.00189368 0.00668641 0.00256198 0.0220409 0.0025058 0.0128924 0.00305014 0.0211908 0.0041846 0.0151151 0.00445429 0.0402037
28 3 O -0.552171 1.05712 2.79288 -1.2 1 0.000903717 0.00201212 0.00285346 0.00490809 0.00123898 0.00629211 0.00233727 0.016334 0.00247237 0.00630457 0.00170627 0.0226374 0.00280522 0.0118293 0.00356175 0.0214868 0.00538559 0.0160255 0.00498917 0.039796
29 1 Mg 6.31713 4.74899 0 1.2 1 0.000826198 0.00295751 0.00192592 0.00485656 0.0023001 0.00623683 0.0033009 0.0181226 0.00276558 0.00691856 0.00216605 0.0250028 0.00277825 0.0140455 0.00406228 0.0245434 0.00462832 0.0165387 0.00603571 0.0430521
30 1 Mg 3.54847 9.45668 1.4948 1.2 1 0.00116456 0.00336691 0.00176346 0.004905 0.00199648 0.00775467 0.00302646 0.0214515 0.00157051 0.00824993 0.00233832 0.0283586 0.00318837 0.0157541 0.00384954 0.0291205 0.00427467 0.0184114 0.00407193 0.0490773
31 2 Si 5.36879 6.77254 1.4948 2.4 1 0.000655228 0.00312609 0.00195832 0.00518098 0.00262105 0.00700969 0.00376137 0.0196366 0.00269683 0.00756123 0.00248459 0.0274749 0.00323778 0.0155365 0.00416539 0.0268704 0.00472484 0.0174708 0.00530516 0.0468221
32 3 O 5.41937 8.38578 1.4948 -1.2 1 0.0011156 0.00330968 0.00164535 0.00515425 0.00214184 0.00780687 0.00312442 0.021009 0.00214381 0.0081763 0.00241709 0.0288641 0.00226653 0.0157256 0.00304361 0.0290859 0.00467561 0.0177185 0.00491569 0.0483198
33 3 O 1.75158 5.79852 1.4948 -1.2 1 0.00106329 0.00337911 0.00162365 0.00423744 0.00239801 0.00606887 0.00321547 0.0198018 0.00271157 0.00710249 0.00259575 0.0276358 0.00294652 0.015452 0.0034429 0.0266416 0.00541843 0.0177533 0.0056692 0.0459896
34 3 O 4.67421 6.06637 0.196716 -1.2 1 0.000534134 0.0030255 0.00168801 0.00487308 0.00188119 0.00696761 0.00294322 0.0198223 0.00244449 0.00807853 0.00217652 0.0260535 0.00345823 0.0144894 0.00414021 0.0265318 0.00473049 0.0168691 0.00555039 0.0453171
35 1 Mg 6.26654 4.74899 2.9896 1.2 1 0.00148136 0.00314742 0.00214852 0.00499289 0.00256698 0.00671931 0.00368413 0.0182159 0.00379844 0.00697737 0.00226611 0.0258536 0.00365362 0.0145881 0.00482285 0.0247669 0.0059363 0.0177688 0.00710379 0.0443322
36 3 O 4.63043 6.06637 2.79288 -1.2 1 0.0018795 0.00331083 0.00160242 0.00488497 0.00223925 0.00694713 0.00332519 0.0195847 0.00334256 0.00769639 0.00246856 0.0260425 0.00386079 0.0147281 0.00444496 0.0270521 0.00587916 0.0184282 0.00695903 0.04625
37 1 Mg -1.12976 4.79031 4.4844 1.2 1 0.00139466 0.00383639 0.00183453 0.00495855 0.00247758 0.00647654 0.00313215 0.0183221 0.00368762 0.00702166 0.00312487 0.0258194 0.00421096 0.0143263 0.00464242 0.0254076 0.00733273 0.0196086 0.00802897 0.0452238
38 2 Si -2.9517 7.47444 4.4844 2.4 1 0.00224637 0.00402617 0.00145197 0.00529623 0.00300373 0.00677472 0.00374179 0.0208044 0.00341069 0.00762091 0.00311985 0.0273679 0.00444773 0.0159404 0.00533895 0.0278198 0.0068878 0.0196557 0.0081543 0.0490378
39 3 O -3.00198 5.86121 4.4844 -1.2 1 0.00202908 0.00417448 0.00138404 0.00496935 0.00317921 0.00658184 0.00406135 0.0192708 0.00357921 0.00751792 0.00275053 0.0259142 0.00428311 0.0141821 0.00474008 0.0265977 0.00683795 0.0200033 0.00828809 0.0467242
40 3 O 0.666315 8.44846 4.4844 -1.2 1 0.00261366 0.00490093 0.00120834 0.00501348 0.00288033 0.00756862 0.00289886 0.0215461 0.00301683 0.00772929 0.00336957 0.0281746 0.00459626 0.0158637 0.00444849 0.0290609 0.00625117 0.0203836 0.0077505 0.0498318
41 3 O -2.21213 8.18062 3.18632 -1.2 1 0.00194432 0.00414709 0.00148794 0.00473952 0.00262327 0.00645692 0.00273472 0.0210443 0.00272835 0.008053 0.00303621 0.0274522 0.00418058 0.0158183 0.00492695 0.0289379 0.00584759 0.0192673 0.00670368 0.0494213
42 3 O -2.25864 8.18062 5.78248 -1.2 1 0.00292718 0.00458178 0.00143794 0.00489963 0.00317844 0.00619961 0.00316503 0.0213405 0.00255491 0.00824383 0.00350977 0.0268465 0.00441214 0.016322 0.00560873 0.0289925 0.00725819 0.0212832 0.00830136 0.0507909
43 1 Mg 1.20893 7.12349 2.9896 1.2 1 0.0016555 0.00391138 0.00161575 0.00467229 0.00281039 0.00690918 0.00371846 0.0200413 0.00285547 0.00784016 0.00269893 0.0277471 0.00356049 0.015928 0.0038859 0.0272797 0.00542185 0.0186912 0.00634085 0.0475859
44 1 Mg 4.00982 7.08218 4.4844 1.2 1 0.00228657 0.00394682 0.0012606 0.00476517 0.00260212 0.00650073 0.00376014 0.0203747 0.00354804 0.0073323 0.00329912 0.0273618 0.00427379 0.0164396 0.00565707 0.0278341 0.00721594 0.0197511 0.0082437 0.0482886
45 2 Si 2.17861 9.14704 4.4844 2.4 1 0.00260523 0.00409903 0.00141199 0.00502931 0.00289265 0.00751011 0.00361481 0.0216293 0.00279381 0.00798169 0.00316591 0.0279339 0.00459556 0.0167242 0.0045044 0.0292502 0.00589981 0.020035 0.0070725 0.0515093
46 3 O 2.18828 10.7603 4.4844 -1.2 1 0.00330382 0.00428915 0.00181513 0.00465374 0.00276007 0.00724145 0.00303382 0.0212567 0.00241458 0.00793132 0.00240725 0.028671 0.00411804 0.0159545 0.00439098 0.030539 0.00618198 0.0202677 0.00685425 0.0519538
47 3 O -4.43805 8.17302 4.4844 -1.2 1 0.00188627 0.00443893 0.00168301 0.00507915 0.00260508 0.00785778 0.00329658 0.0210284 0.00324798 0.00791256 0.0032931 0.0281857 0.00477308 0.015916 0.00484641 0.0291641 0.00680158 0.0200128 0.00895273 0.0494648
48 3 O 2.89193 8.44087 3.18632 -1.2 1 0.00216584 0.00372892 0.00152966 0.00447097 0.00251977 0.00707365 0.00340505 0.020872 0.0028365 0.0082204 0.00286112 0.0274382 0.00393297 0.0159509 0.00464692 0.0288011 0.00590721 0.0191593 0.0060745 0.0493859
49 1 Mg 1.25915 7.12349 0 1.2 1 0.000543614 0.00297873 0.00160425 0.00441039 0.0017428 0.00733298 0.00295441 0.0202073 0.0028714 0.00807803 0.00251699 0.0274657 0.00338662 0.0145142 0.00339088 0.0276333 0.00462018 0.0175812 0.00447366 0.0463082
50 3 O 2.84547 8.44087 5.78248 -1.2 1 0.00289007 0.00457346 0.00146442 0.00466634 0.00257424 0.00661312 0.00313316 0.0214992 0.00316939 0.00848246 0.00348221 0.0270599 0.00538709 0.016447 0.00550039 0.0294619 0.00640597 0.0217481 0.00753942 0.0510779
51 1 Mg -1.59284 7.16481 1.4948 1.2 1 0.000874879 0.00348064 0.00148197 0.00488372 0.00182309 0.00636182 0.00280475 0.0201019 0.00291351 0.00768966 0.00176236 0.0275957 0.00335786 0.0156233 0.00363343 0.0271834 0.00456652 0.0178199 0.00550957 0.046985
52 2 Si 0.240329 5.09994 1.4948 2.4 1 0.00109381 0.00363489 0.00208197 0.00434462 0.00186589 0.00681594 0.00309856 0.0190499 0.00313523 0.00720574 0.0022359 0.0259447 0.00280174 0.0147058 0.00402636 0.0248289 0.00506907 0.0170549 0.00529014 0.0449969
53 3 O 0.234538 3.48671 1.4948 -1.2 1 0.00137501 0.00371004 0.00248964 0.00458314 0.00180453 0.00652435 0.0025773 0.0180697 0.00335381 0.00684917 0.00237183 0.0243591 0.00312159 0.0135591 0.00388759 0.0239342 0.00566844 0.0162294 0.00572494 0.0427056
54 3 O 6.85564 6.07396 1.4948 -1.2 1 0.000913713 0.00282794 0.00228527 0.00501777 0.00239377 0.00618826 0.00311555 0.0200492 0.00313594 0.00737377 0.0021447 0.0275871 0.00326145 0.0148183 0.0046128 0.0268348 0.00552717 0.0178437 0.00621925 0.0458336
55 3 O -0.429565 5.80612 0.196716 -1.2 1 0.000704985 0.00322034 0.00238347 0.00439961 0.00176692 0.00714859 0.00268826 0.019698 0.00282892 0.00833613 0.00245711 0.0255863 0.00272767 0.0142907 0.00386918 0.0259309 0.00501923 0.016948 0.00571624 0.0454121
56 3 O -0.473377 5.80612 2.79288 -1.2 1 0.00169743 0.00359088 0.0018532 0.00465062 0.00234225 0.00687058 0.00309676 0.0194212 0.00325171 0.00780702 0.00292323 0.0258374 0.00384342 0.0146453 0.0044511 0.0262884 0.00634491 0.018706 0.00684773 0.0465262
57 1 Mg 6.40169 9.49799 0 1.2 1 0.000328762 0.00398206 0.00163945 0.00506668 0.00141181 0.00840845 0.00211255 0.0210444 0.00171761 0.0087396 0.00181403 0.028743 0.0026402 0.0147846 0.00271764 0.0296321 0.00358498 0.0179832 0.00405438 0.0476645
58 1 Mg 3.64209 14.2057 1.4948 1.2 1 0.0022262 0.00321761 0.00144644 0.00450749 0.00168423 0.00886941 0.00177285 0.0217257 0.00142212 0.00868516 0.00208144 0.0281096 0.00240379 0.0162536 0.00280873 0.0295036 0.00366127 0.0171551 0.00359956 0.0495246
59 2 Si 5.45748 11.5215 1.4948 2.4 1 0.00202666 0.00336998 0.00154817 0.0049805 0.00167414 0.00832507 0.00221385 0.0212866 0.00151049 0.00815074 0.0017928 0.0287189 0.00266093 0.0162671 0.00342997 0.0291293 0.00420865 0.0172216 0.0039882 0.0494697
60 3 O 5.51101 13.1348 1.4948 -1.2 1 0.00219305 0.00326992 0.00170111 0.00477442 0.00149978 0.00912021 0.00179613 0.0212619 0.00166299 0.00859809 0.00160858 0.0292615 0.00211881 0.0162462 0.00284985 0.0297798 0.00387543 0.0168377 0.00373269 0.0492258
61 3 O 1.83851 10.5475 1.4948 -1.2 1 0.00124715 0.00349978 0.00161462 0.004993 0.00172004 0.00779506 0.00228032 0.0216822 0.00169359 0.00821194 0.00212077 0.0291843 0.00251832 0.0158137 0.00328741 0.0297372 0.00422293 0.0181798 0.00356562 0.0495226
62 3 O 4.7611 10.8154 0.196716 -1.2 1 0.000801726 0.00308059 0.00186245 0.00504796 0.0014075 0.00861467 0.00215422 0.0214722 0.00143038 0.0085711 0.00202898 0.0281744 0.00293177 0.0156209 0.00391473 0.0293542 0.00368095 0.0172281 0.00373756 0.0486833
63 1 Mg 6.35203 9.49799 2.9896 1.2 1 0.00157361 0.00392008 0.00156576 0.00489098 0.00255968 0.00764878 0.00330943 0.0206664 0.00323132 0.00848609 0.00216241 0.0291432 0.00381492 0.0162782 0.00327069 0.029116 0.00442918 0.0187841 0.00553746 0.0493491
64 3 O 4.71833 10.8154 2.79288 -1.2 1 0.00258548 0.00364857 0.00153232 0.00463947 0.00211813 0.00828102 0.00205793 0.0213967 0.00205474 0.00862462 0.00210855 0.0281843 0.00337027 0.0159118 0.00388027 0.0301885 0.00531653 0.0187564 0.00578262 0.0504591
65 1 Mg -1.0438 9.53931 4.4844 1.2 1 0.00283487 0.00475135 0.00162057 0.00462646 0.00300003 0.0069102 0.00269696 0.0213553 0.0028097 0.00818252 0.00292927 0.0282655 0.00406604 0.0165985 0.00454833 0.0298119 0.00643122 0.0203563 0.00719738 0.05106
66 2 Si -2.8604 12.2234 4.4844 2.4 1 0.00327501 0.00411747 0.00164004 0.00439053 0.0026454 0.00774995 0.00314832 0.0222543 0.0027935 0.00824795 0.00245088 0.0281304 0.00419586 0.0166415 0.0043736 0.0300562 0.00591041 0.0197784 0.00685068 0.0526135
67 3 O -2.91391 10.6102 4.4844 -1.2 1 0.00328355 0.00445687 0.00169626 0.00439781 0.0027879 0.00717898 0.00330751 0.0211272 0.0025797 0.00763431 0.0022281 0.0284512 0.00435538 0.0160545 0.00410289 0.0305262 0.00596059 0.0202042 0.00698702 0.051643
68 3 O 0.7596 13.1975 4.4844 -1.2 1 0.00352831 0.00398991 0.00165158 0.00468362 0.00272794 0.00871594 0.00263515 0.0226344 0.00267795 0.00823657 0.00285354 0.0286771 0.00409204 0.0167089 0.00437531 0.0303484 0.00612096 0.020194 0.00684953 0.052165
69 3 O -2.12001 12.9296 3.18632 -1.2 1 0.00341313 0.00379171 0.00161531 0.00416264 0.00244492 0.0076515 0.00239156 0.0222306 0.0023545 0.00822212 0.00235216 0.0279017 0.00364706 0.0163377 0.00457316 0.0303215 0.00529357 0.0187276 0.00570338 0.0513543
70 3 O -2.16532 12.9296 5.78248 -1.2 1 0.00401888 0.00415854 0.00179872 0.00438632 0.00282136 0.00687166 0.00241695 0.0225819 0.00249577 0.00806654 0.00280978 0.0276395 0.00417484 0.0170875 0.00477926 0.031293 0.0061498 0.0215681 0.00668795 0.0542605
71 1 Mg 1.29891 11.8725 2.9896 1.2 1 0.00279486 0.00344381 0.00170394 0.00486394 0.00232089 0.00806036 0.00286005 0.0213393 0.00237461 0.00838922 0.00212822 0.0290262 0.00334808 0.0164229 0.00349635 0.0299415 0.00484439 0.0182648 0.00506728 0.050324
72 1 Mg 4.10033 11.8312 4.4844 1.2 1 0.00360916 0.00396386 0.00170865 0.00418673 0.00253524 0.00742938 0.00263998 0.0218318 0.00264232 0.00812149 0.00289626 0.0287219 0.00391614 0.0172873 0.00530765 0.0303184 0.00671478 0.0198875 0.00651916 0.0519198
73 2 Si 2.27333 13.896 4.4844 2.4 1 0.0039391 0.00354866 0.0015607 0.00488215 0.00284133 0.00801012 0.00307857 0.0220184 0.00238194 0.00810899 0.00299578 0.0283173 0.00385517 0.0168825 0.00463331 0.0303264 0.00580606 0.0191198 0.0064685 0.0529831
74 3 O 2.28634 15.5093 4.4844 -1.2 1 0.00416463 0.00379727 0.00161261 0.00436334 0.00284468 0.00738673 0.00281195 0.0215239 0.00247174 0.00770874 0.00239295 0.0288441 0.00367946 0.0163838 0.0041946 0.0307184 0.00597977 0.0191105 0.00660618 0.0526507
75 3 O -4.34533 12.922 4.4844 -1.2 1 0.00344188 0.00405085 0.00189723 0.00451784 0.00276778 0.00850781 0.00301051 0.0223199 0.00274092 0.00838584 0.00265933 0.0287473 0.00408435 0.0166119 0.00464438 0.0304503 0.00649853 0.0200214 0.00730737 0.0524313
76 3 O 2.98455 13.1899 3.18632 -1.2 1 0.00342199 0.0034318 0.00148017 0.0042528 0.00237531 0.00796957 0.00213621 0.0220719 0.00216665 0.00851916 0.00244481 0.0279221 0.00346829 0.0162828 0.00456591 0.0302737 0.0057392 0.0188408 0.0058366 0.0512279
77 1 Mg 1.34779 11.8725 0 1.2 1 0.000856406 0.00285955 0.00114472 0.00495293 0.00115762 0.00890972 0.00151159 0.0212483 0.00131567 0.00901217 0.00197475 0.0289813 0.00274732 0.0150115 0.00298314 0.029881 0.00322087 0.0173298 0.00327863 0.0483104
78 3 O 2.93934 13.1899 5.78248 -1.2 1 0.00376488 0.00407554 0.00157106 0.00460038 0.00267665 0.00708356 0.002521 0.02245 0.00248649 0.00809798 0.00312789 0.0276853 0.00449726 0.0171833 0.00490692 0.031147 0.00646333 0.021526 0.00687459 0.0542513
79 1 Mg -1.50344 11.9138 1.4948 1.2 1 0.00139038 0.00352196 0.00140777 0.00476054 0.00142204 0.00826109 0.0017924 0.0218753 0.00245973 0.00838677 0.00154367 0.0286398 0.00354251 0.0162462 0.00348521 0.0296568 0.00352045 0.0177507 0.00391205 0.0494276
80 2 Si 0.326006 9.84894 1.4948 2.4 1 0.000729518 0.00342604 0.00122686 0.00512499 0.00178479 0.00814405 0.00211757 0.0211685 0.00224017 0.00830109 0.0015671 0.0285389 0.00300226 0.0157667 0.00360838 0.028835 0.00379131 0.0179284 0.00354601 0.0488519
81 3 O 0.317364 8.23571 1.4948 -1.2 1 0.00117499 0.00366265 0.00106035 0.00474194 0.00184549 0.00772331 0.00207017 0.0205178 0.00270561 0.00779111 0.0017905 0.028576 0.00349369 0.0158476 0.0037275 0.0285081 0.00438081 0.017849 0.0042111 0.0479998
82 3 O 6.94307 10.823 1.4948 -1.2 1 0.00159281 0.00372858 0.00125902 0.00474499 0.00176075 0.00775447 0.00243576 0.0219908 0.00233929 0.00829991 0.00160101 0.0292219 0.00305356 0.0158776 0.00343184 0.0299154 0.00383371 0.0182906 0.0042979 0.0494387
83 3 O -0.343122 10.5551 0.196716 -1.2 1 0.000678929 0.00319818 0.00115037 0.00485306 0.00148417 0.0086018 0.0018595 0.0213479 0.00183102 0.00888175 0.00200191 0.0280966 0.0033679 0.0154352 0.00414937 0.0292835 0.00352556 0.017567 0.00355616 0.0485256
84 3 O -0.385966 10.5551 2.79288 -1.2 1 0.00263797 0.00396348 0.00109843 0.00474118 0.00248918 0.00802439 0.00228709 0.021798 0.00201325 0.00886299 0.00238224 0.0276437 0.00380826 0.016056 0.00413276 0.0299696 0.00517974 0.0191707 0.00525285 0.0505112
85 1 Mg 6.49448 14.247 0 1.2 1 0.0011942 0.00324235 0.0015321 0.00482654 0.00103204 0.00930568 0.00119559 0.0213132 0.00126658 0.00847845 0.00149959 0.0287498 0.001687 0.0156191 0.00236111 0.0297847 0.00307839 0.0165018 0.0030414 0.0481612
86 1 Mg 3.74457 18.9547 1.4948 1.2 1 0.00260536 0.00308687 0.00127937 0.00374683 0.00171123 0.0085901 0.00134676 0.0223966 0.00185647 0.0080283 0.00223426 0.0275329 0.00240562 0.0165192 0.00308234 0.0287913 0.00365961 0.0165476 0.00362683 0.0500001
87 2 Si 5.55495 16.2705 1.4948 2.4 1 0.00282001 0.00304448 0.00123785 0.00437678 0.00173676 0.00899084 0.00139377 0.0214438 0.00131258 0.00789368 0.00141161 0.0285751 0.00227511 0.0163629 0.00276114 0.0288913 0.00384222 0.0160313 0.00394805 0.0495502
88 3 O 5.6115 17.8838 1.4948 -1.2 1 0.00282115 0.00291566 0.00144413 0.00400163 0.00164825 0.00918137 0.00141741 0.0218065 0.00183745 0.00779709 0.00151337 0.0286844 0.00192385 0.0166058 0.00263108 0.0289095 0.00343436 0.0159042 0.00379326 0.049653
89 3 O 1.93416 15.2965 1.4948 -1.2 1 0.00245345 0.00299525 0.00141531 0.0045299 0.00168365 0.00847509 0.00189537 0.0220268 0.00177627 0.00799927 0.00155225 0.0290339 0.00208028 0.0163526 0.00291754 0.0296581 0.00394886 0.0166548 0.00359175 0.0500229
90 3 O 4.85636 15.5644 0.196716 -1.2 1 0.00175992 0.00246434 0.00129401 0.00452104 0.0011751 0.00927384 0.00129439 0.021486 0.000965497 0.00812023 0.00169182 0.0280053 0.00247262 0.0162078 0.00342554 0.0290965 0.00337315 0.0158929 0.00316918 0.048919
91 1 Mg 6.44662 14.247 2.9896 1.2 1 0.0022435 0.0036014 0.00141653 0.00441199 0.00239841 0.00855226 0.00282383 0.0210774 0.00252392 0.00858669 0.00189575 0.0293477 0.00322058 0.0166136 0.00311776 0.0295488 0.00427707 0.0177679 0.0049543 0.0503032
92 3 O 4.81537 15.5644 2.79288 -1.2 1 0.0034132 0.00312081 0.00129905 0.00439479 0.00225065 0.00880661 0.00167838 0.0221909 0.00161268 0.00848012 0.00183545 0.0279531 0.00279244 0.0165839 0.00363593 0.0295616 0.00494675 0.0175074 0.00520629 0.0510059
93 1 Mg -0.948271 14.2883 4.4844 1.2 1 0.00393568 0.00381448 0.00165414 0.00410318 0.00267933 0.00781886 0.00263669 0.0220801 0.00264158 0.00824319 0.00276593 0.0284683 0.003323 0.0172127 0.0049624 0.030747 0.00595728 0.0194857 0.00660931 0.0524782
94 2 Si -2.75928 16.9724 4.4844 2.4 1 0.00410261 0.00340293 0.00186418 0.00432386 0.00267478 0.00804637 0.00271137 0.02247 0.00262654 0.00767866 0.0025553 0.0280692 0.00332332 0.0171538 0.00472078 0.0299136 0.00537217 0.0187603 0.00624887 0.0532876
95 3 O -2.81617 15.3592 4.4844 -1.2 1 0.00424824 0.0037193 0.00178767 0.00413325 0.00280535 0.00765079 0.00280791 0.0216025 0.0024542 0.00756149 0.00224512 0.0287602 0.0036876 0.0164747 0.00424633 0.0307315 0.00607616 0.0190603 0.00684152 0.0526359
96 3 O 0.862762 17.9465 4.4844 -1.2 1 0.00414181 0.00375211 0.00152238 0.004424 0.00292218 0.00836177 0.00237742 0.0228112 0.00242485 0.00780158 0.00264371 0.0286982 0.00358327 0.0171454 0.00430034 0.0296745 0.00581895 0.0188292 0.00646933 0.0529025
97 3 O -2.0185 17.6786 3.18632 -1.2 1 0.0039192 0.00332311 0.00177368 0.00381368 0.00250442 0.00771381 0.00218695 0.0225602 0.00226057 0.00785263 0.00230574 0.0276571 0.00328656 0.0165865 0.00452345 0.0299873 0.00506925 0.0178327 0.00544898 0.0519429
98 3 O -2.06164 17.6786 5.78248 -1.2 1 0.00417216 0.00390269 0.00152364 0.00433673 0.00285344 0.00694507 0.00231901 0.022772 0.00255145 0.00777261 0.00304061 0.0279653 0.00346993 0.0177524 0.00541602 0.0312857 0.00603782 0.0204976 0.00641081 0.0551946
99 1 Mg 1.39817 16.6215 2.9896 1.2 1 0.00360666 0.00312757 0.00150261 0.00451214 0.00240501 0.00843673 0.00252727 0.0215587 0.00249829 0.00795206 0.00224707 0.0288903 0.00271552 0.016759 0.00344161 0.0294586 0.00443251 0.0169071 0.00470754 0.0508069
100 1 Mg 4.20062 16.5802 4.4844 1.2 1 0.00399467 0.00336926 0.0017772 0.0042766 0.00258819 0.0077328 0.00233583 0.0221363 0.00296817 0.00765862 0.00281969 0.0286284 0.00332996 0.0177363 0.0054035 0.0300542 0.00655453 0.0187973 0.00641852 0.0528317
101 2 Si 2.37796 18.645 4.4844 2.4 1 0.00367496 0.00330621 0.00131902 0.00446505 0.00292405 0.00793599 0.00277608 0.0226941 0.00262133 0.00783689 0.00284948 0.0279744 0.003468 0.017334 0.0044979 0.0295676 0.00531898 0.018443 0.00613299 0.053858
102 3 O 2.39434 20.2583 4.4844 -1.2 1 0.0038579 0.00370343 0.00141643 0.00433181 0.0028947 0.00697536 0.00272998 0.0217822 0.00278392 0.00732263 0.0020951 0.0286022 0.00318268 0.0169038 0.00411158 0.0300432 0.00584613 0.0183698 0.00677276 0.0534156
103 3 O -4.24274 17.671 4.4844 -1.2 1 0.00368558 0.0037437 0.0017326 0.00443332 0.00268943 0.00861982 0.00259669 0.022879 0.00277847 0.00781368 0.00249725 0.0285547 0.00360554 0.0170773 0.00466239 0.0300412 0.00598789 0.0191714 0.00660329 0.0530421
104 3 O 3.08659 17.9389 3.18632 -1.2 1 0.00378243 0.00302252 0.0014458 0.00405401 0.00263814 0.00793531 0.00203756 0.0224711 0.00223745 0.00784213 0.00231024 0.0276079 0.0030132 0.0166542 0.00416307 0.0296083 0.00539672 0.0175723 0.00593404 0.051924
105 1 Mg 1.44478 16.6215 0 1.2 1 0.00216139 0.00257593 0.00116614 0.00431601 0.00112743 0.00908748 0.00100201 0.0216303 0.00132627 0.00808047 0.00140282 0.0284185 0.00243734 0.0158137 0.00239461 0.0293345 0.00278342 0.0160839 0.00308813 0.048874
106 3 O 3.0436 17.9389 5.78248 -1.2 1 0.00383778 0.00370151 0.00172352 0.004549 0.00272061 0.00705726 0.00232622 0.0228909 0.00220333 0.00792372 0.00294506 0.0277568 0.00373325 0.0173659 0.00489107 0.031129 0.00602178 0.0210434 0.00643295 0.0550627
107 1 Mg -1.40524 16.6628 1.4948 1.2 1 0.00229672 0.00304525 0.00120822 0.00435528 0.00164337 0.00868086 0.00186554 0.0224453 0.00180404 0.00811352 0.00180383 0.0282825 0.00302764 0.0167942 0.00301395 0.0292408 0.00295783 0.0166403 0.00348811 0.0497981
108 2 Si 0.420358 14.5979 1.4948 2.4 1 0.00222282 0.00280559 0.00144056 0.00490971 0.00187758 0.00909747 0.00175639 0.0216667 0.00166394 0.00815105 0.00141892 0.0283553 0.0028618 0.0165579 0.00348309 0.0287326 0.00356837 0.016537 0.0036382 0.0496253
109 3 O 0.408732 12.9847 1.4948 -1.2 1 0.00192005 0.00296915 0.00113784 0.0049078 0.001838 0.00907998 0.00147819 0.0213236 0.0021815 0.0083158 0.00142301 0.0289786 0.00303043 0.0161784 0.00303831 0.0297004 0.00328594 0.0170193 0.0037348 0.0494917
110 3 O 7.03923 15.572 1.4948 -1.2 1 0.00243699 0.00321182 0.00135026 0.00446311 0.00185152 0.00839485 0.00227596 0.021838 0.00214876 0.00801516 0.00165678 0.0292247 0.00252107 0.0165046 0.0028262 0.029608 0.00360003 0.01676 0.00404885 0.0498558
111 3 O -0.248332 15.3041 0.196716 -1.2 1 0.00197686 0.00266022 0.00120241 0.0046038 0.00103427 0.00905601 0.00182189 0.0213984 0.00136718 0.00825439 0.00174521 0.0280264 0.002952 0.0160275 0.00377945 0.0291545 0.00298688 0.0160851 0.00316549 0.0489193
112 3 O -0.289436 15.3041 2.79288 -1.2 1 0.00392021 0.00345288 0.00131955 0.0042796 0.00239085 0.0086644 0.00189995 0.0224168 0.00170628 0.00857502 0.0019149 0.0274983 0.00300752 0.0167548 0.00375755 0.0297674 0.00470829 0.0179075 0.004885 0.0511451
113 1 Mg 6.59566 18.996 0 1.2 1 0.00145173 0.00305183 0.00137105 0.00407445 0.000830181 0.00861654 0.000960234 0.0220858 0.00118958 0.00779915 0.00145684 0.0281378 0.00203549 0.0163613 0.00209856 0.0286113 0.00282725 0.0158911 0.0028674 0.0487327
114 1 Mg 3.85574 23.7037 1.4948 1.2 1 0.00221187 0.00264918 0.00108749 0.00390214 0.00154759 0.00752727 0.00109428 0.0232634 0.00170608 0.00754091 0.00209361 0.0271167 0.00239978 0.0176604 0.00357421 0.0284778 0.00345182 0.0170421 0.00374755 0.0509772
115 2 Si 5.66125 21.0195 1.4948 2.4 1 0.00266528 0.00254945 0.000930066 0.00375068 0.00179844 0.00817924 0.00144492 0.0221752 0.00133874 0.00749224 0.00150221 0.0279234 0.0024307 0.0174884 0.0027167 0.0279923 0.00368919 0.015859 0.00424912 0.0505651
116 3 O 5.72074 22.6328 1.4948 -1.2 1 0.00249969 0.00265837 0.00150605 0.0038398 0.00168346 0.00818026 0.00137416 0.0224651 0.00182207 0.00728267 0.00137526 0.0278871 0.0020796 0.0174427 0.00280808 0.0284398 0.00337921 0.0162097 0.00386664 0.0503482
117 3 O 2.03867 20.0455 1.4948 -1.2 1 0.00253484 0.00315851 0.00123405 0.0040653 0.00167046 0.00778442 0.00181057 0.02247 0.00219833 0.00739105 0.00163599 0.0283016 0.00214547 0.017204 0.00265791 0.0289102 0.00373955 0.0161406 0.00389391 0.0505842
118 3 O 4.96004 20.3134 0.196716 -1.2 1 0.00197278 0.00231141 0.00135677 0.00373645 0.00129758 0.00816359 0.00106561 0.0219342 0.00104035 0.0075775 0.00161015 0.0276106 0.00264036 0.0166482 0.00380912 0.0286051 0.00310477 0.0152558 0.0030175 0.0495261
119 1 Mg 6.55057 18.996 2.9896 1.2 1 0.00268704 0.00332556 0.00132484 0.00398291 0.00243336 0.00822991 0.00246281 0.0216312 0.00239901 0.00787323 0.00189696 0.0288574 0.00278789 0.0170737 0.0031223 0.0290975 0.00418398 0.0171513 0.00505213 0.0511134