ITEM: TIMESTEP
500
ITEM: NUMBER OF ATOMS
10500
ITEM: BOX BOUNDS xy xz yz pp pp pp
0	15.2974	5.099
0	118.725	0
0	89.688	0
ITEM: ATOMS id type element xu yu zu q Q_1 Q_2 Q_3 Q_4 Q_5 Q_6 Q_7 Q_8 Q_9 Q_10 Q_11 Q_12 Q_13 Q_14 Q_15 Q_16 Q_17 Q_18 Q_19 Q_20 Q_21
1 1 Mg 6.2404 -6.37941e-06 0 1.2 1 0.000688021 0.00405764 0.00125662 0.00474908 0.00141915 0.00564602 0.00230831 0.0163221 0.00226024 0.00599774 0.0021543 0.0219284 0.00226392 0.0134147 0.00328134 0.0205833 0.00407761 0.0141724 0.00396258 0.0408591
2 1 Mg 3.46349 4.70768 1.4948 1.2 1 0.0012328 0.00309931 0.00146596 0.00435193 0.00194949 0.00616056 0.00343239 0.0187622 0.00288704 0.00702809 0.00295313 0.0254438 0.00284251 0.0139537 0.00405943 0.0252341 0.00541623 0.0170605 0.00590765 0.0441195
3 2 Si 5.2885 2.02354 1.4948 2.4 1 0.00064569 0.00313302 0.00214376 0.00443977 0.00183142 0.00588607 0.0024193 0.0169397 0.00269335 0.0062357 0.00223967 0.0230202 0.00262042 0.013569 0.00320734 0.0214183 0.00392117 0.015272 0.0043294 0.0413584
4 3 O 5.33628 3.63678 1.4948 -1.2 1 0.000976709 0.00261417 0.0017047 0.00469033 0.00214414 0.00642808 0.00287177 0.0177676 0.00246843 0.00682543 0.0020604 0.0250767 0.00235948 0.0138043 0.00393198 0.024055 0.00506553 0.0163428 0.00587754 0.0431287
5 3 O 1.67294 1.04952 1.4948 -1.2 1 0.000923869 0.00336254 0.0019681 0.00413464 0.00143865 0.00576067 0.00247237 0.0169425 0.00248514 0.00621924 0.00218883 0.0227959 0.00252628 0.0129456 0.00320293 0.0218109 0.00474737 0.0154083 0.00491918 0.0406006
6 3 O 4.59532 1.31737 0.196716 -1.2 1 0.000433316 0.00300489 0.00205324 0.00423788 0.00204121 0.00574789 0.00245057 0.0172456 0.00291192 0.00638378 0.00207813 0.0224605 0.00307133 0.0128333 0.00388539 0.0216215 0.00414867 0.0148574 0.00458914 0.0412192
7 1 Mg 6.18956 -6.37941e-06 2.9896 1.2 1 0.00053473 0.00435567 0.00149976 0.00414153 0.0014261 0.00596336 0.00257363 0.016219 0.00290375 0.00560301 0.00190746 0.022583 0.00254355 0.0135352 0.0034109 0.0207031 0.00483018 0.014704 0.00485301 0.0396674
8 3 O 4.55118 1.31737 2.79288 -1.2 1 0.00070581 0.00420733 0.00188578 0.00426366 0.00183644 0.00594633 0.00259696 0.0169562 0.00265001 0.00686995 0.00238122 0.0216671 0.00326607 0.0124116 0.00323983 0.0215547 0.00498373 0.0152748 0.005513 0.0405185
9 1 Mg -1.20682 0.0413099 4.4844 1.2 1 0.000694115 0.00288686 0.00170965 0.00473195 0.00148178 0.00573793 0.00200319 0.016323 0.0023745 0.0059593 0.00227318 0.0226996 0.00278244 0.0119163 0.00343727 0.0204645 0.00545273 0.0157269 0.00526534 0.0393859
10 2 Si -3.0337 2.72544 4.4844 2.4 1 0.000759361 0.00315098 0.00188291 0.00496868 0.00226967 0.00616502 0.00327364 0.016825 0.00330231 0.00638648 0.00239058 0.0239818 0.00333449 0.0132349 0.0038987 0.0222691 0.00552291 0.0176781 0.00646262 0.0404812
11 3 O -3.08099 1.11221 4.4844 -1.2 1 0.00106776 0.00358341 0.00179593 0.00448876 0.00146594 0.0056256 0.00245306 0.0162409 0.00313355 0.00565892 0.00229502 0.022372 0.00308829 0.0116677 0.00362849 0.0211194 0.00523441 0.0162233 0.00563673 0.0391967
12 3 O 0.582463 3.69946 4.4844 -1.2 1 0.00148409 0.00416165 0.00209302 0.00467768 0.00258708 0.00680175 0.00360428 0.0172683 0.00342369 0.00686455 0.0030944 0.024747 0.00427296 0.013211 0.00437254 0.0243016 0.00716022 0.0187249 0.00815854 0.0422116
13 3 O -2.29524 3.43162 3.18632 -1.2 1 0.000901164 0.00256484 0.00247796 0.00471561 0.00220705 0.00613977 0.00291708 0.0179896 0.00336882 0.00674843 0.00274908 0.0244696 0.00319601 0.0133184 0.00455768 0.0242388 0.00623717 0.0178243 0.00678539 0.0426704
14 3 O -2.34216 3.43162 5.78248 -1.2 1 0.00103883 0.00334006 0.00139329 0.00521617 0.00268125 0.00602979 0.00345694 0.0171993 0.00298468 0.00757108 0.0026964 0.0234451 0.00441401 0.0125966 0.00413613 0.023241 0.00667011 0.0194371 0.00760754 0.0411405
15 1 Mg 1.12778 2.37449 2.9896 1.2 1 0.00117891 0.0035537 0.00221899 0.00456123 0.00228566 0.00601849 0.00306337 0.0167764 0.00278947 0.00631086 0.00249104 0.0234695 0.00326848 0.013162 0.00330296 0.0219923 0.00488203 0.0162295 0.00585323 0.0411782
16 1 Mg 3.92855 2.33318 4.4844 1.2 1 0.00111552 0.00400727 0.00151858 0.00442415 0.00195381 0.00591619 0.00354706 0.0168007 0.00334813 0.00623868 0.00294209 0.022968 0.00367213 0.0136133 0.00508407 0.0218249 0.00653025 0.0168796 0.00703452 0.0407126
17 2 Si 2.09341 4.39804 4.4844 2.4 1 0.00158834 0.00417594 0.00193093 0.00439162 0.0031214 0.00605069 0.00378463 0.0181851 0.00352822 0.00702584 0.0034024 0.024622 0.00453614 0.0142898 0.00450496 0.0248847 0.00693246 0.0185312 0.00859826 0.0438744
18 3 O 2.09991 6.01128 4.4844 -1.2 1 0.00195563 0.00428293 0.00152089 0.00446753 0.00310309 0.00652391 0.00331936 0.0191 0.0030337 0.00748731 0.00325341 0.0264622 0.00416159 0.0145368 0.00468782 0.0274956 0.00704322 0.0196113 0.00812582 0.0458143
19 3 O -4.52137 3.42402 4.4844 -1.2 1 0.00123106 0.00344024 0.00210446 0.00475832 0.00226111 0.00718073 0.00356952 0.0170891 0.00353408 0.00644603 0.00301275 0.0235216 0.00399679 0.0130865 0.00445295 0.0229399 0.0064356 0.0176852 0.00774854 0.0419294
20 3 O 2.80834 3.69187 3.18632 -1.2 1 0.00155584 0.0036551 0.00166075 0.00388016 0.00208181 0.00587301 0.00312739 0.017406 0.00302634 0.00654471 0.00287311 0.0240619 0.00356276 0.0132759 0.00472617 0.0239619 0.00578705 0.0169182 0.00679388 0.0429194
21 1 Mg 1.17857 2.37449 0 1.2 1 0.000861784 0.0034646 0.00179218 0.00399757 0.00156239 0.00556656 0.00241667 0.0174234 0.00242038 0.00673314 0.00258124 0.0233265 0.00259709 0.0132905 0.00323632 0.0218254 0.00447482 0.0149582 0.00488113 0.041365
22 3 O 2.76143 3.69187 5.78248 -1.2 1 0.00152025 0.00411249 0.00185816 0.00444016 0.00234489 0.00573253 0.00293535 0.0176271 0.00326557 0.00744769 0.00277989 0.0232491 0.00448936 0.0132593 0.0051937 0.0234424 0.00689857 0.0186658 0.00767638 0.0420882
23 1 Mg -1.67381 2.41581 1.4948 1.2 1 0.000215409 0.00254009 0.00243028 0.00479746 0.00153015 0.0061129 0.00238592 0.0166875 0.00287012 0.00646697 0.00188368 0.0240785 0.00232459 0.0142453 0.00272089 0.0222116 0.00459962 0.0160058 0.00500203 0.0418362
24 2 Si 0.16286 0.350945 1.4948 2.4 1 0.000590107 0.00265596 0.00258293 0.00460341 0.00143982 0.0065051 0.00278823 0.0164962 0.00227834 0.00547608 0.00189263 0.0227945 0.00225728 0.0135956 0.0029334 0.020705 0.00477568 0.0146469 0.00440227 0.0404723
25 3 O 0.15972 -1.26229 1.4948 -1.2 1 0.000587295 0.00251143 0.00285586 0.00444051 0.00200026 0.00613895 0.00264296 0.0164821 0.00247026 0.00567212 0.00245227 0.0228283 0.00242946 0.0138064 0.00285259 0.0215726 0.00433815 0.0144959 0.00392275 0.0409988
26 3 O 6.77654 1.32496 1.4948 -1.2 1 0.000378231 0.00361514 0.00155208 0.00447914 0.0014322 0.00615616 0.00236972 0.0167921 0.00275193 0.00560209 0.00190381 0.0237354 0.00258149 0.0135764 0.00340824 0.0217392 0.00476292 0.015091 0.00459882 0.0411579
27 3 O -0.508028 1.05712 0.196716 -1.2 1 0.000212931 0.00265503 0.00311263 0.00423575 0.00153621 0.00576208 0.00272591 0.0172507 0.0020588 0.00695232 0.00259617 0.0223487 0.0024435 0.0128535 0.00322723 0.0214006 0.00440756 0.0151264 0.00451679 0.0407152
28 3 O -0.552171 1.05712 2.79288 -1.2 1 0.000661864 0.00223607 0.00257319 0.00444715 0.00141193 0.00634918 0.00248471 0.0163586 0.00269113 0.00637109 0.00187569 0.0227936 0.00280047 0.0119267 0.00348547 0.0217144 0.00558821 0.0156517 0.00511758 0.0400404
29 1 Mg 6.31713 4.74899 0 1.2 1 0.000640058 0.00245609 0.00186313 0.00483236 0.00214857 0.00627593 0.00342181 0.018083 0.0027396 0.00718249 0.00211321 0.0252574 0.00267452 0.0139022 0.00384017 0.0247449 0.00461442 0.0164969 0.00584865 0.0433587
30 1 Mg 3.54847 9.45668 1.4948 1.2 1 0.00139792 0.00327743 0.00149364 0.00494239 0.00200043 0.0077309 0.00297789 0.02128 0.00179643 0.00843646 0.00235398 0.0284518 0.00298277 0.0156365 0.00370701 0.0292035 0.00444565 0.0183048 0.00397362 0.0489318
31 2 Si 5.36879 6.77254 1.4948 2.4 1 0.000972358 0.00273962 0.00172313 0.00526788 0.00252129 0.0069035 0.00372552 0.0195606 0.0027672 0.00788835 0.00258598 0.0275494 0.0030761 0.0154484 0.00392913 0.0270421 0.00467844 0.0172962 0.00526127 0.0467633
32 3 O 5.41937 8.38578 1.4948 -1.2 1 0.00115284 0.00301778 0.00139811 0.00525724 0.00217847 0.007817 0.00314446 0.0208095 0.0022427 0.00828765 0.00241051 0.0289261 0.00216346 0.0156555 0.00279867 0.0291555 0.00456412 0.0176099 0.00480255 0.0482224
33 3 O 1.75158 5.79852 1.4948 -1.2 1 0.00133658 0.00332328 0.00155101 0.00409174 0.00243436 0.00606308 0.00317123 0.019494 0.00283569 0.00737334 0.00276512 0.0277181 0.00271817 0.0156133 0.00329648 0.0269898 0.00532445 0.0175978 0.00569235 0.045999
34 3 O 4.67421 6.06637 0.196716 -1.2 1 0.000746434 0.0027917 0.0014291 0.00493383 0.00183761 0.00690284 0.00295012 0.0197596 0.00244832 0.00817654 0.00226531 0.0260745 0.00333455 0.0144609 0.0039816 0.0267829 0.0045544 0.016924 0.00547086 0.0455727
35 1 Mg 6.26654 4.74899 2.9896 1.2 1 0.00154959 0.00294754 0.00212248 0.00503018 0.00261631 0.00660127 0.0037379 0.0178466 0.00386789 0.00717837 0.00246979 0.0256871 0.00383324 0.0148623 0.00495006 0.0249295 0.00603493 0.0176056 0.00726179 0.0436301
36 3 O 4.63043 6.06637 2.79288 -1.2 1 0.00230565 0.00315705 0.00167846 0.00493408 0.00230021 0.00681473 0.00337003 0.019386 0.00343358 0.00778951 0.00264061 0.0258603 0.00378303 0.0147408 0.00428036 0.0274439 0.00618891 0.0182776 0.00728001 0.0458284
37 1 Mg -1.12976 4.79031 4.4844 1.2 1 0.00152935 0.00359908 0.00181228 0.00499476 0.00232648 0.00610714 0.00344104 0.0178791 0.00351966 0.00723321 0.00318544 0.0255614 0.00435787 0.014623 0.00456304 0.0256856 0.00749527 0.0191636 0.00814452 0.0444115
38 2 Si -2.9517 7.47444 4.4844 2.4 1 0.00207152 0.00372163 0.00154984 0.00546172 0.00314063 0.006725 0.00385207 0.0201176 0.00321546 0.00779925 0.00296168 0.0272722 0.00462548 0.0159152 0.00537464 0.0280459 0.00705415 0.0194689 0.0079266 0.0476477
39 3 O -3.00198 5.86121 4.4844 -1.2 1 0.00180194 0.00382334 0.00116626 0.00519623 0.003325 0.00641134 0.00423097 0.0188114 0.00372 0.00778735 0.0028419 0.0257483 0.00446655 0.0142226 0.00494948 0.026823 0.00707802 0.0195911 0.00843301 0.0459411
40 3 O 0.666315 8.44846 4.4844 -1.2 1 0.00187016 0.00475621 0.00140261 0.0053162 0.00307228 0.00767494 0.00306422 0.0211289 0.00309027 0.00774787 0.00315587 0.0279461 0.00466518 0.0157927 0.00440329 0.0294414 0.00649752 0.0202457 0.00801201 0.0488996
41 3 O -2.21213 8.18062 3.18632 -1.2 1 0.00168276 0.00385829 0.0014856 0.00473696 0.00257093 0.00635288 0.00275816 0.0206296 0.00289174 0.00808808 0.00286417 0.0275018 0.00416632 0.0159644 0.00478392 0.0291718 0.00600345 0.0191165 0.00661294 0.0488281
42 3 O -2.25864 8.18062 5.78248 -1.2 1 0.00208468 0.00448255 0.00150179 0.00521549 0.00315705 0.00614654 0.00313926 0.0204179 0.00256017 0.00839664 0.00356514 0.0265453 0.00470103 0.0162899 0.00555835 0.0291136 0.00705564 0.0209875 0.00814866 0.0488591
43 1 Mg 1.20893 7.12349 2.9896 1.2 1 0.00156378 0.00386626 0.00161783 0.0046084 0.00282943 0.00675533 0.00362676 0.0195426 0.00290586 0.00806987 0.00278325 0.0276449 0.00355439 0.0157378 0.00369854 0.0276732 0.00562323 0.0183854 0.00643688 0.0470616
44 1 Mg 4.00982 7.08218 4.4844 1.2 1 0.00240829 0.00403129 0.00164943 0.00508185 0.00283449 0.00654171 0.0037728 0.0199917 0.00345555 0.00755151 0.0033082 0.0270368 0.00432471 0.0165516 0.00557848 0.0284867 0.00733135 0.0195926 0.0084881 0.0476314
45 2 Si 2.17861 9.14704 4.4844 2.4 1 0.00182843 0.00442334 0.00158888 0.0052778 0.00311812 0.00742824 0.00377876 0.0210593 0.00294109 0.00809965 0.00313267 0.0278675 0.00478383 0.016405 0.00472214 0.0296415 0.00604046 0.019925 0.00727177 0.0503963
46 3 O 2.18828 10.7603 4.4844 -1.2 1 0.00258693 0.00474068 0.00184207 0.00489563 0.00289109 0.00710536 0.0028971 0.0209491 0.00253404 0.00807101 0.00233174 0.0283607 0.00414142 0.0155881 0.00448237 0.0310175 0.00618598 0.0204136 0.0069428 0.0508286
47 3 O -4.43805 8.17302 4.4844 -1.2 1 0.00193817 0.00426965 0.00183975 0.00535292 0.00273027 0.00794759 0.00311767 0.0206032 0.00318233 0.00812099 0.00295999 0.0278729 0.00481393 0.0158779 0.004592 0.0293908 0.00686473 0.0199946 0.00848613 0.0480639
48 3 O 2.89193 8.44087 3.18632 -1.2 1 0.00218421 0.00389798 0.00147272 0.00470137 0.00257807 0.0068749 0.00328856 0.0204567 0.00288644 0.00841389 0.00298889 0.0272151 0.00397952 0.0158465 0.00477986 0.0292808 0.0061411 0.0189962 0.00614207 0.0487884
49 1 Mg 1.25915 7.12349 0 1.2 1 0.000780279 0.00290991 0.00117761 0.00424962 0.00171807 0.00723623 0.00298636 0.0201312 0.00268695 0.00818834 0.00262314 0.0276122 0.00329609 0.0144968 0.0032887 0.027641 0.00459014 0.0175445 0.00435864 0.0465179
50 3 O 2.84547 8.44087 5.78248 -1.2 1 0.00230019 0.0047667 0.00157031 0.00508119 0.00296343 0.00661757 0.00336321 0.0209498 0.00312689 0.00870326 0.00377283 0.0267051 0.00585551 0.0163112 0.00555063 0.0297707 0.00638594 0.0215481 0.00801659 0.0493476
51 1 Mg -1.59284 7.16481 1.4948 1.2 1 0.00123315 0.00313358 0.00119042 0.0048798 0.0017689 0.00640654 0.00265717 0.0198556 0.0028976 0.00788358 0.00180243 0.0275714 0.00321724 0.0156584 0.00344592 0.0273331 0.00455075 0.017794 0.00542912 0.0470246
52 2 Si 0.240329 5.09994 1.4948 2.4 1 0.00107701 0.00346463 0.0016225 0.00421245 0.00189469 0.00685879 0.00303797 0.018887 0.00316351 0.00743622 0.00242823 0.0259833 0.00261337 0.0147163 0.00378115 0.0248985 0.00515348 0.0169477 0.00528967 0.045154
53 3 O 0.234538 3.48671 1.4948 -1.2 1 0.00119296 0.00357058 0.00249691 0.00432724 0.00191431 0.00648802 0.00268175 0.0178959 0.00346091 0.00707538 0.00238655 0.0245062 0.00305845 0.0137836 0.00369558 0.0241205 0.00556047 0.016003 0.0055961 0.0427979
54 3 O 6.85564 6.07396 1.4948 -1.2 1 0.00124061 0.00253883 0.00211787 0.00502581 0.00239623 0.00622246 0.00310917 0.0198258 0.00309193 0.00759018 0.00222404 0.0274994 0.00325127 0.0147914 0.00448521 0.0269967 0.00553334 0.0178006 0.00639602 0.045736
55 3 O -0.429565 5.80612 0.196716 -1.2 1 0.000643656 0.00309881 0.00190439 0.0042598 0.00178249 0.00713092 0.00262961 0.0195696 0.0028324 0.0084295 0.00249799 0.0257356 0.00252572 0.014412 0.00353645 0.0261395 0.00491468 0.0169971 0.00546301 0.0458424
56 3 O -0.473377 5.80612 2.79288 -1.2 1 0.0015921 0.00333095 0.00169334 0.00477762 0.00232981 0.00669544 0.00322212 0.0191553 0.00320002 0.00801351 0.00298917 0.0257346 0.00379511 0.0145427 0.00444796 0.0264613 0.00651574 0.0184499 0.00707117 0.0460731
57 1 Mg 6.40169 9.49799 0 1.2 1 0.000520604 0.00367603 0.00119148 0.00517274 0.00159803 0.0083861 0.00198538 0.0210383 0.00153001 0.00882766 0.00176694 0.0287803 0.00223174 0.0146741 0.00248681 0.0298827 0.0035766 0.0180374 0.00367046 0.0477704
58 1 Mg 3.64209 14.2057 1.4948 1.2 1 0.0012813 0.00337767 0.00131031 0.00508559 0.00162894 0.00905084 0.00144463 0.0216416 0.00165843 0.00863824 0.00222878 0.0285434 0.00241466 0.0161023 0.00300969 0.0296262 0.00362683 0.0171769 0.00343736 0.0490877
59 2 Si 5.45748 11.5215 1.4948 2.4 1 0.0012447 0.00330754 0.00145857 0.00514009 0.00185737 0.00843049 0.00207278 0.0209582 0.00153991 0.00821092 0.00177447 0.0288276 0.00238835 0.016146 0.00325646 0.0293032 0.00396537 0.0172389 0.00367356 0.0491619
60 3 O 5.51101 13.1348 1.4948 -1.2 1 0.00133783 0.00318596 0.00139322 0.0051041 0.00159044 0.00928529 0.00165457 0.0210708 0.00175881 0.00847517 0.00164526 0.0294967 0.0019993 0.0160013 0.00272923 0.0299439 0.00367175 0.0169477 0.00363956 0.0488514
61 3 O 1.83851 10.5475 1.4948 -1.2 1 0.00114686 0.00352819 0.00138717 0.00514325 0.00193713 0.00783407 0.00227937 0.0215072 0.00186362 0.00835798 0.00221888 0.029399 0.00241888 0.0157384 0.00307627 0.0298697 0.00425167 0.0180561 0.003494 0.0492444
62 3 O 4.7611 10.8154 0.196716 -1.2 1 0.000353106 0.0032576 0.00152065 0.00510698 0.0014137 0.00878423 0.00207673 0.0212256 0.00146177 0.00860132 0.00196555 0.0283256 0.00280494 0.0155714 0.00370434 0.0295921 0.00353438 0.0174284 0.00326611 0.0485272
63 1 Mg 6.35203 9.49799 2.9896 1.2 1 0.00160258 0.00374541 0.00164474 0.00506792 0.00270372 0.00766965 0.00333377 0.0202796 0.00314559 0.00846689 0.00211638 0.0290968 0.00364813 0.0161373 0.0034499 0.0292926 0.0045015 0.0186684 0.00568683 0.0489045
64 3 O 4.71833 10.8154 2.79288 -1.2 1 0.00253535 0.00380854 0.00137094 0.00492793 0.00226194 0.008254 0.00216151 0.0212238 0.00214191 0.00880749 0.00209822 0.028265 0.00332789 0.0158182 0.00385129 0.0302737 0.00539223 0.018731 0.00572321 0.0497851
65 1 Mg -1.0438 9.53931 4.4844 1.2 1 0.00221976 0.0046017 0.00152055 0.00492283 0.00314421 0.00678523 0.00275019 0.0207223 0.00266073 0.00804423 0.00254188 0.0282977 0.00440712 0.0166714 0.00456726 0.0300396 0.00659764 0.0200174 0.00740023 0.0500627
66 2 Si -2.8604 12.2234 4.4844 2.4 1 0.00259188 0.00438563 0.00141925 0.00494462 0.00283363 0.00793253 0.00295049 0.0217624 0.00266723 0.00822317 0.00224742 0.0280476 0.00412128 0.0165274 0.00440512 0.0300163 0.00572814 0.0200392 0.00644056 0.0512206
67 3 O -2.91391 10.6102 4.4844 -1.2 1 0.0025333 0.00454661 0.00158212 0.00485311 0.00299679 0.00731591 0.0031594 0.020469 0.00260453 0.00759391 0.00211783 0.0283417 0.00425066 0.0156653 0.00429463 0.0307597 0.00597976 0.0200953 0.00678576 0.050236
68 3 O 0.7596 13.1975 4.4844 -1.2 1 0.00261071 0.00443436 0.00179352 0.00533252 0.00298558 0.00885754 0.00257861 0.0222148 0.00263753 0.00817125 0.00262156 0.0287526 0.00418683 0.016341 0.00421862 0.0303809 0.0060595 0.0200438 0.00688609 0.0509592
69 3 O -2.12001 12.9296 3.18632 -1.2 1 0.00255118 0.00390911 0.001404 0.00464979 0.00269695 0.00782334 0.00230532 0.0217975 0.00235571 0.00821038 0.00222871 0.0279564 0.00352257 0.0161103 0.00440606 0.0304123 0.00520784 0.018859 0.00570682 0.0503879
70 3 O -2.16532 12.9296 5.78248 -1.2 1 0.00293539 0.00492053 0.00172904 0.00514571 0.00309522 0.00709073 0.00249757 0.0216521 0.00248966 0.00828298 0.00272046 0.0274988 0.00439786 0.0167487 0.00477509 0.0312251 0.00625923 0.0215264 0.00688394 0.0520179
71 1 Mg 1.29891 11.8725 2.9896 1.2 1 0.00165716 0.00378686 0.00154874 0.00519803 0.00263857 0.00822621 0.00273747 0.0210258 0.00242528 0.00846483 0.00205858 0.0291046 0.00342461 0.0161843 0.00351125 0.030011 0.00462607 0.0182291 0.00502133 0.0496271
72 1 Mg 4.10033 11.8312 4.4844 1.2 1 0.00276674 0.00432596 0.00186043 0.00492045 0.00266594 0.00749698 0.00269131 0.0212284 0.00253611 0.00822931 0.0026022 0.0285891 0.0038862 0.0173563 0.00502409 0.0302292 0.00644313 0.0199592 0.00626813 0.0508457
73 2 Si 2.27333 13.896 4.4844 2.4 1 0.002301 0.00396604 0.00174201 0.00535054 0.0030976 0.00807873 0.00320507 0.0218168 0.00240691 0.00801653 0.00265682 0.0282872 0.00386329 0.0166357 0.00434334 0.0304413 0.00558931 0.0195564 0.00657202 0.0514374
74 3 O 2.28634 15.5093 4.4844 -1.2 1 0.00261257 0.00441043 0.00163549 0.00494718 0.00308189 0.00751701 0.00276842 0.0211543 0.00255479 0.00749958 0.00203778 0.0286121 0.00348299 0.0160737 0.00404764 0.0308047 0.0059328 0.0195012 0.00665163 0.0509674
75 3 O -4.34533 12.922 4.4844 -1.2 1 0.00265968 0.00431754 0.00164005 0.00518138 0.00295396 0.00853927 0.00294736 0.0218011 0.0027756 0.00826194 0.0024839 0.0288391 0.0040892 0.0163342 0.0047704 0.0304736 0.00647968 0.0203548 0.00712353 0.0509267
76 3 O 2.98455 13.1899 3.18632 -1.2 1 0.0020663 0.00395339 0.00147606 0.00477287 0.00256169 0.00800679 0.00206723 0.0218305 0.00214728 0.00848378 0.00224564 0.0280988 0.00345177 0.0160211 0.00419724 0.0302015 0.0056268 0.0189109 0.00571037 0.0502679
77 1 Mg 1.34779 11.8725 0 1.2 1 0.000658157 0.00320529 0.000984027 0.00513069 0.00123815 0.00904893 0.00135109 0.0211295 0.00121897 0.00907863 0.00203651 0.0290465 0.00260636 0.014848 0.00270478 0.0302412 0.00300975 0.0175055 0.00318019 0.0480374
78 3 O 2.93934 13.1899 5.78248 -1.2 1 0.00293676 0.00473726 0.00184842 0.00517405 0.00284483 0.00721256 0.00252098 0.0221068 0.00244469 0.00813581 0.00314244 0.0275563 0.00457287 0.0168713 0.00501709 0.0313106 0.00632876 0.022091 0.00664639 0.0524044
79 1 Mg -1.50344 11.9138 1.4948 1.2 1 0.000950106 0.00373769 0.00111312 0.00480558 0.00151815 0.00842117 0.00182935 0.021571 0.00233807 0.00839872 0.00154055 0.0287418 0.00334662 0.0160813 0.00317775 0.0297382 0.00343799 0.0178376 0.00370191 0.0489459
80 2 Si 0.326006 9.84894 1.4948 2.4 1 0.000844352 0.00358892 0.00104886 0.00512427 0.0018787 0.00818269 0.00193941 0.0210593 0.00212367 0.00835463 0.0017398 0.0284608 0.00267714 0.0157053 0.00342905 0.0289061 0.00376215 0.017915 0.00336874 0.0485856
81 3 O 0.317364 8.23571 1.4948 -1.2 1 0.0015674 0.00352528 0.000898937 0.00471814 0.00187103 0.00774073 0.00207563 0.0201907 0.00263129 0.00805661 0.00183569 0.0286313 0.00329909 0.0157856 0.00359172 0.0287557 0.00442297 0.0178719 0.00417816 0.0479177
82 3 O 6.94307 10.823 1.4948 -1.2 1 0.00105252 0.0037226 0.0011878 0.00487656 0.00186344 0.00792074 0.00246952 0.02167 0.00221127 0.00829186 0.00157571 0.0294702 0.00282287 0.0158573 0.00323327 0.0299744 0.00377092 0.018264 0.00414228 0.0492187
83 3 O -0.343122 10.5551 0.196716 -1.2 1 0.000494684 0.00328984 0.000853657 0.00492183 0.00138586 0.00854939 0.00179205 0.021183 0.00178571 0.00876891 0.00200062 0.028271 0.00319387 0.0153595 0.00397312 0.029489 0.00336423 0.0175562 0.00318044 0.0485434
84 3 O -0.385966 10.5551 2.79288 -1.2 1 0.00199575 0.00391756 0.0010605 0.0048817 0.00259177 0.00815046 0.00212649 0.0216376 0.00212225 0.00895518 0.00228238 0.0276611 0.00385113 0.0159706 0.00408462 0.0300411 0.00538247 0.0189868 0.00519424 0.0499598
85 1 Mg 6.49448 14.247 0 1.2 1 0.000750459 0.0033765 0.00143491 0.00513084 0.00105428 0.00945423 0.00109167 0.021243 0.00115836 0.00845897 0.00144374 0.0290113 0.00164823 0.0154605 0.00230637 0.0299308 0.00295223 0.0167871 0.0028381 0.0476796
86 1 Mg 3.74457 18.9547 1.4948 1.2 1 0.00211363 0.00319643 0.0014255 0.00426275 0.00180154 0.00869062 0.00138671 0.0222588 0.0018809 0.00812654 0.00211233 0.0278495 0.0024484 0.0164165 0.00340066 0.0289525 0.00353964 0.0166439 0.00322536 0.0493062
87 2 Si 5.55495 16.2705 1.4948 2.4 1 0.00182389 0.00297403 0.00122868 0.00494857 0.00187987 0.00905846 0.00133064 0.021474 0.00138741 0.00790198 0.00126665 0.0287105 0.00224534 0.0163001 0.0027904 0.0288688 0.00365246 0.0162296 0.00363698 0.0490901
88 3 O 5.6115 17.8838 1.4948 -1.2 1 0.00194658 0.00308015 0.00136817 0.00455397 0.00181809 0.00929588 0.0015443 0.0217161 0.00177065 0.00789217 0.00140085 0.028921 0.00210492 0.016433 0.0027055 0.029023 0.00338153 0.0160618 0.00353976 0.0490552
89 3 O 1.93416 15.2965 1.4948 -1.2 1 0.00148149 0.00329298 0.00133284 0.00492768 0.00181243 0.00856344 0.00177816 0.0218677 0.00172592 0.00802062 0.00146201 0.029248 0.00201509 0.0159819 0.00295461 0.0298703 0.0036815 0.0169455 0.00337622 0.0495087
90 3 O 4.85636 15.5644 0.196716 -1.2 1 0.00144282 0.0027129 0.00125004 0.00500203 0.00121777 0.00939151 0.0013588 0.0214275 0.000918227 0.00819406 0.00159773 0.0282829 0.00246127 0.0160921 0.00339697 0.0293256 0.00322381 0.0160468 0.00309125 0.0484491
91 1 Mg 6.44662 14.247 2.9896 1.2 1 0.0014645 0.00336572 0.00117001 0.0049822 0.00261152 0.00882941 0.00291096 0.0208861 0.00240734 0.0085154 0.00156107 0.0292838 0.00279117 0.0161684 0.00301901 0.0296602 0.00421226 0.01798 0.00489487 0.049381
92 3 O 4.81537 15.5644 2.79288 -1.2 1 0.00221064 0.00333086 0.00127042 0.0045834 0.00236415 0.00895143 0.00184053 0.0217905 0.00163384 0.00854128 0.0017201 0.0281315 0.00282732 0.0164189 0.00360692 0.029576 0.00479912 0.0175982 0.00505 0.049923
93 1 Mg -0.948271 14.2883 4.4844 1.2 1 0.00297405 0.00424109 0.00155904 0.0047886 0.00287614 0.00784624 0.00259055 0.0214955 0.00258457 0.00802707 0.0026499 0.0285848 0.00356173 0.016913 0.00499276 0.0306308 0.0059317 0.0194899 0.00672057 0.0511005
94 2 Si -2.75928 16.9724 4.4844 2.4 1 0.00272949 0.0038502 0.00170258 0.00475166 0.00285693 0.00817342 0.00273374 0.0220054 0.00263989 0.00768933 0.00241654 0.0280587 0.0034469 0.0167477 0.00421648 0.0297632 0.00519857 0.0192184 0.0059795 0.0515618
95 3 O -2.81617 15.3592 4.4844 -1.2 1 0.00305931 0.00408928 0.00166968 0.00475586 0.00305327 0.00784121 0.00280366 0.0210027 0.00261026 0.00751667 0.00216086 0.0287962 0.00358132 0.0159445 0.00417009 0.0305591 0.00597993 0.0192314 0.00660061 0.0508261
96 3 O 0.862762 17.9465 4.4844 -1.2 1 0.00265485 0.0044705 0.00158474 0.00483947 0.00299536 0.00854811 0.00239208 0.02235 0.00268749 0.00769285 0.00256972 0.0288118 0.00374976 0.0168833 0.00439794 0.0296636 0.00580386 0.0191402 0.0063081 0.0511971
97 3 O -2.0185 17.6786 3.18632 -1.2 1 0.00249048 0.00355968 0.00170476 0.00423189 0.00264284 0.00787106 0.00223839 0.0222414 0.00233281 0.0078032 0.00202758 0.0279041 0.00350208 0.016453 0.00431257 0.0298904 0.00491879 0.0179377 0.00526905 0.0507731
98 3 O -2.06164 17.6786 5.78248 -1.2 1 0.00328465 0.0045949 0.0015528 0.00473692 0.00289865 0.00724254 0.00222683 0.0220257 0.00242034 0.00767188 0.00272994 0.0279057 0.00353086 0.0173124 0.00473097 0.0308339 0.00628142 0.0207354 0.00619004 0.0525368
99 1 Mg 1.39817 16.6215 2.9896 1.2 1 0.00235263 0.00361947 0.00146637 0.00486999 0.00250037 0.00861623 0.00253044 0.0211901 0.00250256 0.00806641 0.00211546 0.0290653 0.0028511 0.0165283 0.00344637 0.0294879 0.00415014 0.0171809 0.00448476 0.0496022
100 1 Mg 4.20062 16.5802 4.4844 1.2 1 0.00235599 0.00382771 0.0018475 0.0046924 0.00278144 0.00787504 0.00251 0.0218289 0.00284359 0.00767532 0.00265571 0.0286019 0.00339482 0.01747 0.00537979 0.0299605 0.00641188 0.0192467 0.00637397 0.0510139
101 2 Si 2.37796 18.645 4.4844 2.4 1 0.00222011 0.00372757 0.0016466 0.00484349 0.00311139 0.0080177 0.00277245 0.0224225 0.00265157 0.00785242 0.00252415 0.0281426 0.00333358 0.0171786 0.00444343 0.0296496 0.00549208 0.0187354 0.00576495 0.0522518
102 3 O 2.39434 20.2583 4.4844 -1.2 1 0.0022302 0.00419037 0.00163719 0.00453505 0.00314977 0.00715692 0.00271754 0.021571 0.00280897 0.00739851 0.00212235 0.028939 0.00349181 0.0168805 0.00432391 0.0299535 0.00570597 0.0187633 0.00640645 0.0517955
103 3 O -4.24274 17.671 4.4844 -1.2 1 0.0023076 0.0041238 0.00167034 0.00471346 0.00279523 0.00876726 0.00252303 0.0223379 0.00270768 0.00785671 0.00228456 0.028793 0.00362474 0.0168044 0.00485567 0.029647 0.00612008 0.0194766 0.00653231 0.0509501
104 3 O 3.08659 17.9389 3.18632 -1.2 1 0.00223291 0.00335263 0.00164346 0.00435269 0.00276177 0.00805559 0.00206994 0.0222283 0.00231875 0.00794512 0.00213773 0.0278976 0.00308042 0.0165681 0.00423131 0.0295098 0.0053882 0.0178875 0.00528943 0.0505264
105 1 Mg 1.44478 16.6215 0 1.2 1 0.00198689 0.00282132 0.000975471 0.00475624 0.00125777 0.00919917 0.00106421 0.0214789 0.00135613 0.00817761 0.00147249 0.0287886 0.00207496 0.0155785 0.00227739 0.0292225 0.00286378 0.0161588 0.0029665 0.0480138
106 3 O 3.0436 17.9389 5.78248 -1.2 1 0.00258668 0.00456034 0.0016462 0.00488058 0.00285376 0.007328 0.00232269 0.0223316 0.00217264 0.00800489 0.00292176 0.0276128 0.0039824 0.0172701 0.00526171 0.0307793 0.00608023 0.021306 0.00640981 0.0526779
107 1 Mg -1.40524 16.6628 1.4948 1.2 1 0.00169093 0.00334939 0.00118273 0.00471418 0.00164708 0.00892036 0.001847 0.0221813 0.00179292 0.00811005 0.00181665 0.0284547 0.00299395 0.0166385 0.00286986 0.029399 0.00294079 0.016933 0.00330829 0.0491538
108 2 Si 0.420358 14.5979 1.4948 2.4 1 0.001354 0.00305544 0.00131379 0.00515375 0.00195576 0.00924463 0.00178441 0.0213122 0.00154392 0.00819062 0.00142468 0.0286857 0.00273263 0.016282 0.00339311 0.028927 0.00335227 0.016667 0.0036211 0.0490382
109 3 O 0.408732 12.9847 1.4948 -1.2 1 0.00132705 0.00322139 0.00108305 0.00515101 0.00176366 0.00926563 0.00142723 0.0210292 0.00212904 0.00835294 0.00145529 0.0291949 0.00300226 0.0159713 0.00297195 0.0298758 0.00320251 0.0171178 0.00371377 0.0490505
110 3 O 7.03923 15.572 1.4948 -1.2 1 0.00126851 0.00318402 0.0011907 0.0048918 0.00207617 0.00857222 0.00227673 0.0217359 0.00199016 0.00798956 0.00146285 0.0294634 0.00247954 0.016303 0.00277809 0.0296582 0.00346415 0.0170306 0.0039586 0.0492101
111 3 O -0.248332 15.3041 0.196716 -1.2 1 0.00147492 0.00282912 0.00111292 0.00493825 0.00100788 0.00930717 0.00182183 0.021355 0.00126358 0.00835117 0.00169611 0.0282495 0.0027224 0.0157447 0.00351964 0.0292283 0.00276576 0.0162622 0.00316625 0.0484045
112 3 O -0.289436 15.3041 2.79288 -1.2 1 0.00265243 0.00361961 0.00129823 0.00477219 0.00245849 0.00890196 0.00204976 0.0219953 0.00182483 0.00855517 0.00194089 0.0275641 0.00308559 0.0165791 0.00374878 0.0297202 0.00448293 0.0181188 0.00480022 0.0498236
113 1 Mg 6.59566 18.996 0 1.2 1 0.00155295 0.00284537 0.00141306 0.00433757 0.00109729 0.00881386 0.00100893 0.022051 0.00118754 0.00785782 0.00154715 0.0284031 0.00203761 0.0163503 0.00221973 0.0287612 0.0030129 0.0158375 0.00299788 0.0481301
114 1 Mg 3.85574 23.7037 1.4948 1.2 1 0.00198317 0.00260464 0.00127443 0.00420443 0.00171954 0.00752968 0.00130371 0.0232011 0.00185066 0.00759247 0.00215277 0.0274006 0.00261216 0.0176073 0.00382909 0.0284896 0.00353777 0.0171709 0.00352424 0.0505246
115 2 Si 5.66125 21.0195 1.4948 2.4 1 0.00187288 0.00254517 0.00113363 0.00420224 0.00203452 0.00823838 0.00157985 0.0219456 0.00135965 0.00755822 0.00158456 0.0282614 0.00252185 0.0172497 0.00276575 0.0281379 0.00372406 0.0159004 0.00391329 0.0498619
116 3 O 5.72074 22.6328 1.4948 -1.2 1 0.00185136 0.00265184 0.00152147 0.00409924 0.00177903 0.00823022 0.00167898 0.0224391 0.00184838 0.00735321 0.001365 0.028173 0.00232749 0.0173701 0.0030297 0.0284458 0.00346913 0.0162859 0.00367814 0.0499815
117 3 O 2.03867 20.0455 1.4948 -1.2 1 0.00174312 0.00325603 0.00129387 0.00448158 0.00200609 0.00797819 0.0021166 0.0223508 0.00216246 0.0074843 0.00154966 0.0287839 0.00219637 0.0172171 0.00245002 0.0288956 0.00365529 0.016347 0.00359381 0.0499737
118 3 O 4.96004 20.3134 0.196716 -1.2 1 0.00216654 0.00214461 0.00141084 0.00423547 0.00131893 0.00844144 0.00111569 0.0218037 0.00102722 0.00755987 0.00165264 0.0278748 0.00255046 0.0166435 0.00376322 0.0286208 0.00332907 0.0152323 0.00308568 0.0490045
119 1 Mg 6.55057 18.996 2.9896 1.2 1 0.00147881 0.00347959 0.00133294 0.00438274 0.00267361 0.00837046 0.00278937 0.0214593 0.00237488 0.00798805 0.00174647 0.0293452 0.00302375 0.0168865 0.00310395 0.0289213 0.00395149 0.0173058 0.00459685 0.0499179