ITEM: TIMESTEP
11500
ITEM: NUMBER OF ATOMS
10500
ITEM: BOX BOUNDS xy xz yz pp pp pp
0	15.2977	5.09925
0	118.725	0
0	89.688	0
ITEM: ATOMS id type element xu yu zu q Q_1 Q_2 Q_3 Q_4 Q_5 Q_6 Q_7 Q_8 Q_9 Q_10 Q_11 Q_12 Q_13 Q_14 Q_15 Q_16 Q_17 Q_18 Q_19 Q_20 Q_21
1 1 Mg 6.2404 -6.37941e-06 0 1.2 1 0.000917731 0.00424828 0.0012992 0.00484633 0.00125126 0.00563431 0.00225976 0.0161746 0.00231964 0.00581355 0.00224011 0.0219143 0.00249154 0.0134954 0.00342729 0.0207105 0.00409949 0.0143247 0.0040564 0.0406392
2 1 Mg 3.46349 4.70768 1.4948 1.2 1 0.00103346 0.00332503 0.00157782 0.00427459 0.00192637 0.00614815 0.00341679 0.0186515 0.00278291 0.00698071 0.00301602 0.0255298 0.00312364 0.0139724 0.00435984 0.0252852 0.00534478 0.0169324 0.0057887 0.0438144
3 2 Si 5.2885 2.02354 1.4948 2.4 1 0.000341768 0.00343012 0.00212742 0.00457845 0.00182923 0.00583663 0.00247393 0.0169159 0.00248477 0.00609408 0.0021075 0.0230282 0.0027718 0.013538 0.00353804 0.0214827 0.00389024 0.0153009 0.00428012 0.0410843
4 3 O 5.33628 3.63678 1.4948 -1.2 1 0.000530525 0.00287353 0.0016669 0.00473529 0.00206862 0.00632194 0.00291383 0.0177479 0.00230631 0.00673595 0.00205423 0.0251292 0.0024919 0.0137741 0.00425798 0.0241066 0.00511118 0.016287 0.00585005 0.0428745
5 3 O 1.67294 1.04952 1.4948 -1.2 1 0.00143193 0.00347207 0.00194146 0.00427813 0.00138543 0.00579651 0.00242842 0.0167721 0.00240287 0.00602084 0.00219286 0.0226616 0.00262795 0.0127996 0.00331222 0.0219914 0.0045789 0.0155843 0.00478274 0.0402674
6 3 O 4.59532 1.31737 0.196716 -1.2 1 0.000819433 0.00310069 0.00200277 0.00437601 0.00192756 0.00571968 0.00241056 0.0171519 0.00277881 0.00623262 0.00200819 0.0223879 0.00326444 0.0128835 0.00421948 0.0216311 0.0041801 0.0149161 0.00462879 0.0410131
7 1 Mg 6.18956 -6.37941e-06 2.9896 1.2 1 0.000660875 0.00458822 0.00146218 0.00438212 0.00134437 0.00577266 0.00244293 0.0161245 0.002707 0.00556938 0.00178441 0.0223673 0.00271074 0.0132749 0.00361412 0.0207763 0.00448256 0.014681 0.00493757 0.0390952
8 3 O 4.55118 1.31737 2.79288 -1.2 1 0.000891766 0.00436102 0.0019901 0.00441884 0.00194114 0.00578994 0.00254129 0.016897 0.00247891 0.0068307 0.00240839 0.0216353 0.0033955 0.0123419 0.00346875 0.0217037 0.00489062 0.0154215 0.0052724 0.0400566
9 1 Mg -1.20682 0.0413099 4.4844 1.2 1 0.000459678 0.00301162 0.00177826 0.00480303 0.00138458 0.00552849 0.00205139 0.0162199 0.00226138 0.00607873 0.00198968 0.0224692 0.00291216 0.0115548 0.0035864 0.020908 0.00531527 0.0156035 0.00517284 0.0387845
10 2 Si -3.0337 2.72544 4.4844 2.4 1 0.000638723 0.00317365 0.00193233 0.00495531 0.0021244 0.00597708 0.00326735 0.0165942 0.00315345 0.00626409 0.00221403 0.0239692 0.00331376 0.0131238 0.00402824 0.0228859 0.00552021 0.0174948 0.00643048 0.0398757
11 3 O -3.08099 1.11221 4.4844 -1.2 1 0.000854232 0.00362863 0.00191526 0.00443459 0.00137832 0.00538812 0.00237378 0.0160243 0.0028105 0.00568865 0.00209967 0.0223115 0.0031806 0.011424 0.0035872 0.0215897 0.00501585 0.0161822 0.0054522 0.038459
12 3 O 0.582463 3.69946 4.4844 -1.2 1 0.00179066 0.004556 0.00199818 0.00447067 0.00249772 0.00673363 0.00364911 0.0171633 0.00332785 0.00671529 0.00324678 0.0245928 0.00422737 0.0131017 0.0045353 0.0246211 0.00716268 0.0186999 0.00827632 0.0414646
13 3 O -2.29524 3.43162 3.18632 -1.2 1 0.000908669 0.00297588 0.00247484 0.0046389 0.00214513 0.0060047 0.00294516 0.0176737 0.00312715 0.00658734 0.00266135 0.0243579 0.00321107 0.0130876 0.00476312 0.0243791 0.00622522 0.0177285 0.00667814 0.0420007
14 3 O -2.34216 3.43162 5.78248 -1.2 1 0.00161314 0.00361504 0.00127623 0.00496094 0.0027326 0.00589906 0.00331851 0.0169206 0.00295636 0.00725544 0.00275762 0.0234532 0.00448093 0.0127641 0.00410796 0.0236682 0.00654984 0.0190616 0.0079012 0.0403524
15 1 Mg 1.12778 2.37449 2.9896 1.2 1 0.00116845 0.00369775 0.00235283 0.00461172 0.00222767 0.00599652 0.00293828 0.0165829 0.00267181 0.00616754 0.00247188 0.0234248 0.00327134 0.0130213 0.00347271 0.0221763 0.00492424 0.0164314 0.0055847 0.0407193
16 1 Mg 3.92855 2.33318 4.4844 1.2 1 0.00122925 0.00436763 0.00182701 0.00449549 0.00187569 0.00573483 0.00349465 0.0167278 0.00300595 0.00610034 0.00295375 0.0227991 0.00370538 0.0133898 0.00528391 0.0221963 0.00643559 0.0170032 0.00698142 0.0399983
17 2 Si 2.09341 4.39804 4.4844 2.4 1 0.00157784 0.00432098 0.00220566 0.00424959 0.00297286 0.00597513 0.00381652 0.0181238 0.00329664 0.00685773 0.00335627 0.0246244 0.00448499 0.0142507 0.00452109 0.0248984 0.00690378 0.0184449 0.0084138 0.0431898
18 3 O 2.09991 6.01128 4.4844 -1.2 1 0.0021125 0.00453239 0.00179889 0.0040796 0.0029441 0.00646376 0.00334482 0.0192193 0.00273983 0.00736681 0.00308439 0.0264792 0.00414083 0.0146924 0.00476342 0.0275593 0.00707385 0.0194605 0.00823851 0.0451731
19 3 O -4.52137 3.42402 4.4844 -1.2 1 0.00126653 0.00370147 0.00218188 0.00477812 0.00229972 0.00699233 0.00350914 0.0168334 0.00331465 0.00642882 0.0031794 0.0234318 0.00393081 0.0129756 0.00427269 0.0231315 0.00646614 0.0175866 0.00765935 0.0408804
20 3 O 2.80834 3.69187 3.18632 -1.2 1 0.00125798 0.00381243 0.00187363 0.00382474 0.00207636 0.0058146 0.00306433 0.0172756 0.00284806 0.00649587 0.00289395 0.0240658 0.00362679 0.0132367 0.00479015 0.0241096 0.00577911 0.0169415 0.00644912 0.0424128
21 1 Mg 1.17857 2.37449 0 1.2 1 0.00159308 0.00362519 0.00174367 0.00415845 0.00138425 0.00563923 0.00235612 0.0174143 0.00235052 0.00661903 0.00275475 0.023215 0.00278753 0.0133168 0.00336022 0.0218551 0.00443017 0.0149865 0.00478576 0.0411639
22 3 O 2.76143 3.69187 5.78248 -1.2 1 0.00194978 0.00436879 0.0017794 0.00433482 0.00216896 0.00548323 0.00296126 0.0176787 0.00316539 0.00722161 0.00300075 0.0230511 0.0047459 0.0130999 0.00543176 0.0235562 0.0066696 0.0187183 0.00782297 0.0410647
23 1 Mg -1.67381 2.41581 1.4948 1.2 1 0.00105564 0.00282637 0.00242119 0.00481358 0.00150134 0.00605403 0.00237643 0.0165937 0.00274823 0.00623054 0.00200461 0.0240764 0.00247425 0.0142166 0.00275135 0.0223551 0.00450175 0.0160558 0.00492014 0.0417841
24 2 Si 0.16286 0.350945 1.4948 2.4 1 0.00162063 0.00268883 0.00265373 0.00446463 0.00131969 0.00633881 0.00287588 0.0164672 0.002354 0.00528741 0.00195182 0.023008 0.00234265 0.0135104 0.00304509 0.0209723 0.00464922 0.0147919 0.00438999 0.040621
25 3 O 0.15972 -1.26229 1.4948 -1.2 1 0.00161889 0.00275155 0.0029406 0.00452615 0.00181572 0.00602646 0.0025995 0.0164481 0.00233823 0.00551535 0.00250608 0.0227616 0.00258634 0.0137062 0.00291001 0.0218321 0.00417773 0.0146452 0.00400804 0.0408337
26 3 O 6.77654 1.32496 1.4948 -1.2 1 0.000913074 0.00390016 0.00154878 0.0046338 0.00145073 0.0060787 0.00241852 0.0167531 0.00258522 0.00545906 0.00190318 0.023607 0.00276672 0.0136064 0.00354929 0.0218771 0.00474956 0.0152875 0.00455488 0.0408421
27 3 O -0.508028 1.05712 0.196716 -1.2 1 0.00136152 0.00289396 0.00318334 0.00411171 0.00130967 0.00573329 0.00253016 0.0171183 0.00190112 0.00657509 0.00257866 0.0221825 0.00265505 0.0128982 0.00309304 0.0213093 0.00430795 0.0153012 0.00449123 0.0401994
28 3 O -0.552171 1.05712 2.79288 -1.2 1 0.000757205 0.00234648 0.0027994 0.00463516 0.00140231 0.00632289 0.00241826 0.016112 0.00241885 0.00626372 0.00181874 0.0225892 0.00302598 0.0117361 0.00361217 0.0217117 0.00534287 0.0158944 0.00499893 0.0394459
29 1 Mg 6.31713 4.74899 0 1.2 1 0.000742667 0.00282491 0.00186678 0.00456864 0.00225768 0.00616382 0.00327562 0.0180364 0.00280391 0.00709248 0.00220419 0.0252942 0.00276412 0.0138265 0.00407768 0.0247978 0.00474226 0.0163718 0.00599835 0.0431726
30 1 Mg 3.54847 9.45668 1.4948 1.2 1 0.000975587 0.00325396 0.00191405 0.00459525 0.00204794 0.0077066 0.00312567 0.0213086 0.00181657 0.00847082 0.00227953 0.0282696 0.00302717 0.015714 0.00366474 0.0292931 0.00442195 0.017983 0.00395162 0.0488388
31 2 Si 5.36879 6.77254 1.4948 2.4 1 0.000485459 0.00303809 0.00186443 0.00496708 0.00270768 0.00695349 0.00371661 0.0196883 0.00276608 0.00789257 0.00254327 0.0274667 0.00312505 0.0155309 0.00415349 0.0269788 0.00477966 0.0171465 0.00541646 0.0467528
32 3 O 5.41937 8.38578 1.4948 -1.2 1 0.000690025 0.00301368 0.00166675 0.00492093 0.00226504 0.00784434 0.00311152 0.0209266 0.00229564 0.00842202 0.00241942 0.0288618 0.00225268 0.0158192 0.00298971 0.0291908 0.00470693 0.0172233 0.00500207 0.0482442
33 3 O 1.75158 5.79852 1.4948 -1.2 1 0.00108619 0.00355205 0.00166077 0.00398729 0.00247058 0.00605042 0.00313865 0.0194941 0.00284032 0.00734454 0.00270508 0.027698 0.00287267 0.0156319 0.00351261 0.0269662 0.00546467 0.0174496 0.00569908 0.0458603
34 3 O 4.67421 6.06637 0.196716 -1.2 1 0.000567869 0.00299145 0.0015285 0.0046968 0.0019599 0.00695174 0.00283174 0.0197546 0.00245747 0.00813872 0.00215902 0.0261521 0.00336523 0.0144476 0.00396683 0.0267605 0.0048065 0.0166337 0.00568435 0.0455018
35 1 Mg 6.26654 4.74899 2.9896 1.2 1 0.00141602 0.0032343 0.00205508 0.00498923 0.00260349 0.00666041 0.00375664 0.0178266 0.0037753 0.00710774 0.00233861 0.0257607 0.00382988 0.0146892 0.00505031 0.0249568 0.00603901 0.0174702 0.00708066 0.0433211
36 3 O 4.63043 6.06637 2.79288 -1.2 1 0.00191252 0.00360177 0.00183255 0.00484899 0.00228217 0.00687774 0.00338508 0.0194549 0.00334612 0.0078685 0.0024424 0.0259509 0.00392349 0.0147821 0.00454205 0.0274124 0.00605159 0.0180983 0.00719215 0.0454182
37 1 Mg -1.12976 4.79031 4.4844 1.2 1 0.00189428 0.00403832 0.00159171 0.00472643 0.00238525 0.00608705 0.00330529 0.0177567 0.0033724 0.00707355 0.0033098 0.0255315 0.00427143 0.0145461 0.00459327 0.0257465 0.00756453 0.0190112 0.0081102 0.0436751
38 2 Si -2.9517 7.47444 4.4844 2.4 1 0.00248073 0.00404534 0.00140892 0.00518109 0.00293221 0.00665794 0.00393195 0.0202158 0.00321316 0.00787943 0.00322762 0.0273694 0.00466834 0.0161647 0.00531542 0.0282273 0.00717508 0.019145 0.00838689 0.0472743
39 3 O -3.00198 5.86121 4.4844 -1.2 1 0.00198959 0.0041242 0.00126059 0.0049455 0.00313524 0.00645946 0.00414016 0.0187465 0.00357803 0.00769529 0.00289671 0.025659 0.00447333 0.0142574 0.00485349 0.0269704 0.00719036 0.019403 0.00850977 0.0450933
40 3 O 0.666315 8.44846 4.4844 -1.2 1 0.00248748 0.00491342 0.00149019 0.00491181 0.00296563 0.00751015 0.00308867 0.0212769 0.00319445 0.00806413 0.00332594 0.0280925 0.00456827 0.0161339 0.0045271 0.0293819 0.0067368 0.019855 0.00807959 0.0481956
41 3 O -2.21213 8.18062 3.18632 -1.2 1 0.00189913 0.00424234 0.00160268 0.00458785 0.00268646 0.00658169 0.00295159 0.0208272 0.00288134 0.00819156 0.00286753 0.0275089 0.00424205 0.015922 0.0049665 0.0290288 0.00615361 0.0187882 0.00685444 0.0485216
42 3 O -2.25864 8.18062 5.78248 -1.2 1 0.00287036 0.00484488 0.00168833 0.00480553 0.00304612 0.0062367 0.00309882 0.0205578 0.00249236 0.00855719 0.00378885 0.0267706 0.00446291 0.0166069 0.00560663 0.0296517 0.007467 0.0209719 0.00849386 0.0484636
43 1 Mg 1.20893 7.12349 2.9896 1.2 1 0.00141599 0.00399969 0.00181632 0.00441867 0.00292092 0.00685524 0.00370728 0.0195396 0.00289055 0.00821513 0.0028643 0.0277991 0.0036242 0.0158701 0.00384166 0.0276422 0.00579767 0.0181961 0.00649262 0.0467861
44 1 Mg 4.00982 7.08218 4.4844 1.2 1 0.00245608 0.00404726 0.00167865 0.00489744 0.00259305 0.00658009 0.00386502 0.020025 0.00337008 0.00785638 0.00325502 0.0270591 0.00431723 0.0167567 0.00570376 0.0280761 0.00740163 0.0191283 0.00833367 0.0467873
45 2 Si 2.17861 9.14704 4.4844 2.4 1 0.00238427 0.00449779 0.00174686 0.00491736 0.00306269 0.00732947 0.00380461 0.0212798 0.00287034 0.00828491 0.00320874 0.0280544 0.0046513 0.0167199 0.00467267 0.0297934 0.00627509 0.019486 0.00717798 0.0497738
46 3 O 2.18828 10.7603 4.4844 -1.2 1 0.00305602 0.00472943 0.00200867 0.00462411 0.00279889 0.00717563 0.00301044 0.0211481 0.00272359 0.00818219 0.00238192 0.0285078 0.00393084 0.0159643 0.00443687 0.0309891 0.00650371 0.0200276 0.00711488 0.0505467
47 3 O -4.43805 8.17302 4.4844 -1.2 1 0.00191056 0.0045404 0.00174555 0.00510246 0.00256403 0.00780464 0.00338114 0.0206722 0.00325461 0.00836413 0.00319753 0.0282984 0.00475934 0.0160509 0.00495496 0.0295051 0.00719852 0.0195558 0.00891846 0.047737
48 3 O 2.89193 8.44087 3.18632 -1.2 1 0.00215419 0.00390993 0.00177541 0.0044611 0.00263008 0.00692834 0.00331037 0.0205766 0.00284555 0.00858933 0.00291844 0.0274614 0.0039021 0.0160841 0.00466957 0.0291588 0.00608141 0.0186372 0.00600983 0.0483956
49 1 Mg 1.25915 7.12349 0 1.2 1 0.000992396 0.00308055 0.00139833 0.00411587 0.00186999 0.00723151 0.00282387 0.0201879 0.00276843 0.00823711 0.00258502 0.0275505 0.00351974 0.0146386 0.00349215 0.0275319 0.00473913 0.0173105 0.00456744 0.0464339
50 3 O 2.84547 8.44087 5.78248 -1.2 1 0.00281008 0.00496637 0.0016431 0.00484335 0.00269823 0.00671475 0.00333876 0.0210959 0.00304503 0.00879329 0.00356881 0.0267941 0.00540893 0.016737 0.00527937 0.0299566 0.00668248 0.0213215 0.00805355 0.0489415
51 1 Mg -1.59284 7.16481 1.4948 1.2 1 0.000893286 0.00339695 0.00130498 0.0046523 0.00195323 0.00644575 0.00269432 0.0199179 0.00288155 0.00785537 0.00179472 0.0276266 0.00335372 0.01569 0.00369857 0.0272822 0.0047714 0.017504 0.00574669 0.0468422
52 2 Si 0.240329 5.09994 1.4948 2.4 1 0.000848191 0.00375996 0.00180339 0.00416245 0.00193019 0.00684164 0.00302232 0.0188699 0.00302231 0.007321 0.00234188 0.0259376 0.00282964 0.0146723 0.00408415 0.0249381 0.00520587 0.0168833 0.00541214 0.044878
53 3 O 0.234538 3.48671 1.4948 -1.2 1 0.00128956 0.00385067 0.00240201 0.00443769 0.00194061 0.00655772 0.00256582 0.01778 0.00332758 0.00688705 0.00242011 0.0243966 0.00322535 0.013652 0.00389955 0.0241765 0.00556264 0.0160866 0.00549076 0.0424797
54 3 O 6.85564 6.07396 1.4948 -1.2 1 0.000943218 0.00277649 0.00214827 0.00488084 0.00249412 0.00618788 0.00312011 0.0198986 0.00300766 0.00754393 0.00219314 0.0275864 0.00331948 0.0148603 0.00474783 0.0269842 0.00573329 0.0176067 0.00651807 0.0455911
55 3 O -0.429565 5.80612 0.196716 -1.2 1 0.000779833 0.00333617 0.00188445 0.0041501 0.00185594 0.0071851 0.0024622 0.0195179 0.00280835 0.00845988 0.00249221 0.0257069 0.00258992 0.0143553 0.00369712 0.0260503 0.00502809 0.0167614 0.00583026 0.0454695
56 3 O -0.473377 5.80612 2.79288 -1.2 1 0.00168191 0.00357292 0.00187998 0.00454036 0.00241597 0.00683026 0.00300652 0.0190576 0.00311026 0.00800008 0.00301135 0.0256689 0.00382443 0.0146683 0.00457537 0.0265167 0.0064964 0.0184165 0.00689213 0.0457307
57 1 Mg 6.40169 9.49799 0 1.2 1 0.000549029 0.00367368 0.00159964 0.00457143 0.00166788 0.00835666 0.00203242 0.0210775 0.00165854 0.00892865 0.00173579 0.028734 0.00238586 0.0148974 0.00258466 0.0299693 0.00369285 0.0178188 0.00393665 0.0480621
58 1 Mg 3.64209 14.2057 1.4948 1.2 1 0.00141073 0.00321405 0.00148979 0.00472169 0.00165141 0.00881214 0.00163002 0.0217847 0.00175766 0.00877323 0.00226217 0.0284696 0.00252625 0.0162439 0.00304331 0.029824 0.00349827 0.0170129 0.00334746 0.0495463
59 2 Si 5.45748 11.5215 1.4948 2.4 1 0.00115107 0.00325486 0.00175727 0.00469883 0.0018063 0.00828123 0.00213821 0.0211391 0.00164047 0.00831923 0.0018131 0.0288595 0.00257289 0.0162678 0.00324366 0.0295477 0.00412417 0.0167734 0.00372945 0.0494121
60 3 O 5.51101 13.1348 1.4948 -1.2 1 0.00125905 0.0031771 0.00167668 0.00476453 0.00158671 0.0091243 0.001781 0.0212626 0.00185704 0.00866669 0.00170537 0.0294485 0.00211988 0.0162635 0.00271914 0.0300951 0.00372529 0.0167018 0.00354172 0.0492632
61 3 O 1.83851 10.5475 1.4948 -1.2 1 0.000707799 0.00347799 0.00180298 0.00474629 0.00189333 0.00779289 0.00241872 0.0216956 0.00191047 0.0084681 0.00216937 0.0293452 0.00254118 0.0159803 0.0032384 0.02998 0.00420537 0.0176708 0.00352075 0.0494566
62 3 O 4.7611 10.8154 0.196716 -1.2 1 0.000503358 0.00301648 0.0018339 0.00462739 0.0015518 0.00857448 0.0022165 0.0213335 0.0015064 0.00871265 0.00201196 0.0282273 0.00292517 0.0157352 0.00380946 0.029704 0.00370357 0.0170415 0.00339972 0.0489111
63 1 Mg 6.35203 9.49799 2.9896 1.2 1 0.00147208 0.00379331 0.00170341 0.00486758 0.00270079 0.00760496 0.00344911 0.0204674 0.00314245 0.00859465 0.00218715 0.0290997 0.00365945 0.0163399 0.00347503 0.0293131 0.00455679 0.0182087 0.00575012 0.0488002
64 3 O 4.71833 10.8154 2.79288 -1.2 1 0.00234449 0.0036064 0.00177465 0.00463464 0.00222942 0.00822572 0.00235515 0.0214242 0.00215258 0.00907428 0.0021847 0.0282612 0.00345255 0.0160676 0.00403996 0.0303324 0.00536018 0.01827 0.00553958 0.0499074
65 1 Mg -1.0438 9.53931 4.4844 1.2 1 0.0026364 0.00485218 0.00170354 0.00457176 0.00302607 0.0066558 0.00292836 0.0209732 0.00291711 0.0083906 0.00274812 0.0284536 0.00414037 0.0170935 0.00451982 0.0300835 0.00675871 0.0197202 0.00752034 0.0496584
66 2 Si -2.8604 12.2234 4.4844 2.4 1 0.00288361 0.00433626 0.00183169 0.00472537 0.00283441 0.00776704 0.00317376 0.0219847 0.00288475 0.00870806 0.00244285 0.0283269 0.00413191 0.0169848 0.00439807 0.030329 0.00604278 0.0195084 0.00666912 0.0513048
67 3 O -2.91391 10.6102 4.4844 -1.2 1 0.00288319 0.00473911 0.00185746 0.00458905 0.00295006 0.00713652 0.00334818 0.0207583 0.00271778 0.00798729 0.00227527 0.0285493 0.00424852 0.0160721 0.00438473 0.0308983 0.00619863 0.0197174 0.00695638 0.0500669
68 3 O 0.7596 13.1975 4.4844 -1.2 1 0.00298023 0.00427169 0.00195878 0.00513978 0.00285272 0.00871899 0.00274031 0.0222231 0.00296201 0.00846676 0.00289546 0.0290464 0.00415246 0.0165549 0.00424763 0.030556 0.00636059 0.0195012 0.0068761 0.0507933
69 3 O -2.12001 12.9296 3.18632 -1.2 1 0.00269895 0.00385195 0.00175186 0.00446327 0.00257592 0.00777534 0.00233486 0.0220107 0.00257488 0.00854874 0.00233748 0.0281066 0.00350978 0.016434 0.00449353 0.0306483 0.00537431 0.0184674 0.00557399 0.0505995
70 3 O -2.16532 12.9296 5.78248 -1.2 1 0.00354035 0.00479245 0.00177494 0.00481661 0.00290429 0.00720022 0.0024594 0.0220011 0.00259347 0.00844481 0.00285551 0.0278456 0.00409973 0.0172004 0.00492205 0.0316758 0.0067562 0.0214771 0.00706467 0.0521898
71 1 Mg 1.29891 11.8725 2.9896 1.2 1 0.00179335 0.00362496 0.00180123 0.00484752 0.00250017 0.00807856 0.00279899 0.0212157 0.00264153 0.00860356 0.00214889 0.0291397 0.00338253 0.0164287 0.00337988 0.0302536 0.0047461 0.0179343 0.00500583 0.0496579
72 1 Mg 4.10033 11.8312 4.4844 1.2 1 0.00285849 0.00422767 0.00204085 0.00459829 0.00249655 0.00758645 0.00271217 0.0216547 0.00258783 0.00856648 0.00305177 0.0287246 0.0037333 0.0174538 0.00536891 0.0305458 0.00685509 0.0197085 0.0065884 0.0506548
73 2 Si 2.27333 13.896 4.4844 2.4 1 0.0028213 0.00384551 0.00180785 0.00523998 0.0029578 0.00806789 0.00324214 0.0219321 0.00254976 0.00825164 0.00293477 0.0283201 0.00367263 0.0168319 0.00434512 0.0306197 0.00568956 0.0191972 0.00647926 0.051756
74 3 O 2.28634 15.5093 4.4844 -1.2 1 0.00293349 0.00425679 0.00171612 0.00498262 0.00300002 0.00760849 0.00283362 0.0212326 0.0027928 0.00771333 0.00224453 0.0287771 0.00337374 0.0161696 0.0039962 0.0311961 0.0060059 0.0192648 0.00675808 0.0515549
75 3 O -4.34533 12.922 4.4844 -1.2 1 0.00284659 0.00430964 0.00194792 0.0048093 0.00279485 0.00855934 0.00294471 0.0220076 0.00280017 0.00851852 0.00241801 0.0289526 0.00397634 0.0165518 0.00477241 0.0307016 0.00673566 0.0199272 0.00740007 0.0509173
76 3 O 2.98455 13.1899 3.18632 -1.2 1 0.00246431 0.00376609 0.00168035 0.00466737 0.00250444 0.00805992 0.00216801 0.0219271 0.00230104 0.00863546 0.00242775 0.0281187 0.00343103 0.0162892 0.00420969 0.0303689 0.00569655 0.0185079 0.00565749 0.050339
77 1 Mg 1.34779 11.8725 0 1.2 1 0.000944527 0.00288042 0.00135376 0.00473556 0.00136919 0.00891639 0.00158199 0.0213764 0.00119185 0.00914586 0.00186942 0.0290492 0.00276154 0.0150096 0.00280837 0.030325 0.00307267 0.0171518 0.00303019 0.0485681
78 3 O 2.93934 13.1899 5.78248 -1.2 1 0.00338773 0.00472062 0.00205995 0.00499867 0.00277472 0.00741707 0.00272401 0.02213 0.0026364 0.00861119 0.00306824 0.0276654 0.00427268 0.0171009 0.00487073 0.0315329 0.00651355 0.0215945 0.00694573 0.0524532
79 1 Mg -1.50344 11.9138 1.4948 1.2 1 0.000871765 0.00350402 0.00144608 0.00455847 0.00138115 0.00831901 0.00187313 0.0217329 0.00252455 0.00852894 0.00157386 0.0287654 0.00345881 0.0162621 0.00317352 0.0299444 0.003486 0.0174701 0.00369936 0.0493086
80 2 Si 0.326006 9.84894 1.4948 2.4 1 0.000380754 0.00354345 0.00141674 0.00491006 0.00191565 0.00823678 0.00212111 0.0212144 0.00211603 0.00846171 0.00159239 0.0285202 0.00286717 0.0159024 0.00345802 0.0289186 0.00385689 0.0176102 0.00347799 0.0488258
81 3 O 0.317364 8.23571 1.4948 -1.2 1 0.00109607 0.00360849 0.00122495 0.00445842 0.00202183 0.00776133 0.00213347 0.020345 0.00259737 0.00807879 0.00175373 0.0285911 0.00346338 0.015948 0.00378622 0.0286678 0.00460325 0.0175248 0.00438638 0.0478662
82 3 O 6.94307 10.823 1.4948 -1.2 1 0.000728279 0.00360257 0.00151863 0.00453383 0.0019832 0.00777895 0.00261567 0.0218298 0.00236174 0.00842898 0.00155634 0.0294298 0.00286792 0.0159872 0.00326645 0.0300324 0.00386978 0.0177428 0.00420445 0.0494114
83 3 O -0.343122 10.5551 0.196716 -1.2 1 0.000233678 0.00317708 0.00138356 0.00467443 0.00146386 0.00863611 0.00190857 0.0214827 0.00167003 0.00896336 0.00205632 0.0281282 0.00328596 0.0154964 0.00396316 0.0295797 0.00363985 0.017258 0.00341766 0.048801
84 3 O -0.385966 10.5551 2.79288 -1.2 1 0.00206564 0.00399814 0.00130904 0.00453352 0.00251754 0.00803739 0.00229526 0.0215039 0.00226117 0.00907664 0.00242555 0.0277735 0.00372215 0.016066 0.0040326 0.030252 0.00542289 0.018483 0.00519286 0.0497226
85 1 Mg 6.49448 14.247 0 1.2 1 0.00105616 0.00303267 0.00144872 0.00464113 0.00114326 0.00925556 0.0012015 0.0213543 0.00129296 0.00861556 0.00149139 0.0289938 0.00156902 0.0157009 0.00231374 0.0302543 0.00295974 0.0164933 0.0026822 0.0485226
86 1 Mg 3.74457 18.9547 1.4948 1.2 1 0.00185556 0.00300405 0.00131658 0.00420971 0.00184715 0.00864082 0.00119354 0.022399 0.00201862 0.00813022 0.00233417 0.0279212 0.00242001 0.0165204 0.00319663 0.0290617 0.00360013 0.0166199 0.00334751 0.0497704
87 2 Si 5.55495 16.2705 1.4948 2.4 1 0.00178414 0.00273648 0.00129276 0.00458431 0.0018111 0.0089268 0.0013453 0.0216339 0.00144908 0.00800191 0.00142517 0.0287927 0.00224187 0.0164901 0.00265223 0.0290454 0.00360346 0.0160676 0.0034851 0.0495014
88 3 O 5.6115 17.8838 1.4948 -1.2 1 0.00173186 0.00286657 0.00146457 0.00442864 0.00179519 0.00922822 0.00139124 0.0218213 0.00195794 0.00788823 0.00165838 0.0289477 0.00209693 0.0166191 0.0026318 0.0291759 0.00330667 0.0159376 0.00348509 0.0494263
89 3 O 1.93416 15.2965 1.4948 -1.2 1 0.00133322 0.0030052 0.00132986 0.00476843 0.00184006 0.00846174 0.00195622 0.0219802 0.001904 0.0081371 0.00149145 0.0292917 0.00207088 0.016291 0.00276116 0.0300178 0.00371452 0.016691 0.0034054 0.0498841
90 3 O 4.85636 15.5644 0.196716 -1.2 1 0.00137455 0.00232659 0.00126896 0.00465522 0.00126839 0.00908388 0.00143622 0.0214757 0.00117454 0.00826153 0.001651 0.0283385 0.00253233 0.0163779 0.0033145 0.0296177 0.00313646 0.0157651 0.00277271 0.049242
91 1 Mg 6.44662 14.247 2.9896 1.2 1 0.00153669 0.00351472 0.00148063 0.00475359 0.00249954 0.00860912 0.00286633 0.0210052 0.00266033 0.00864444 0.00181084 0.0294573 0.00291648 0.0165374 0.00298646 0.0299726 0.00411949 0.0176286 0.00478313 0.0497027
92 3 O 4.81537 15.5644 2.79288 -1.2 1 0.00232601 0.00321663 0.00130556 0.00452754 0.00233018 0.00891157 0.00174533 0.0219441 0.00173971 0.00870864 0.00192605 0.0282053 0.00281845 0.0165351 0.00352538 0.0298945 0.00484119 0.017438 0.00501344 0.0501042
93 1 Mg -0.948271 14.2883 4.4844 1.2 1 0.0031487 0.00394251 0.00158503 0.00469129 0.00285937 0.00792403 0.00274426 0.0218046 0.00275564 0.00831475 0.00289557 0.0287858 0.00330442 0.0171585 0.00495616 0.0307826 0.00622911 0.019116 0.00665014 0.0513138
94 2 Si -2.75928 16.9724 4.4844 2.4 1 0.00285296 0.00367628 0.0016977 0.00489729 0.00282903 0.00814367 0.00272556 0.0222287 0.00277769 0.00794822 0.00256311 0.0283137 0.0033638 0.0170474 0.00445037 0.0300939 0.00538851 0.018853 0.00623273 0.0519961
95 3 O -2.81617 15.3592 4.4844 -1.2 1 0.00324149 0.0040347 0.00165412 0.00472624 0.00292089 0.00781633 0.00274338 0.0214018 0.00258404 0.00778509 0.00235985 0.0289298 0.00369668 0.0162834 0.00422079 0.0308291 0.00626686 0.0189474 0.00684871 0.0512018
96 3 O 0.862762 17.9465 4.4844 -1.2 1 0.00295938 0.00404147 0.00157769 0.0049781 0.00307794 0.00864464 0.00249057 0.0224634 0.00268162 0.00782104 0.00246697 0.0287821 0.00367267 0.0171395 0.00430168 0.0298501 0.00597364 0.0191309 0.0064597 0.0517472
97 3 O -2.0185 17.6786 3.18632 -1.2 1 0.00247966 0.00345629 0.00166325 0.00442437 0.00267352 0.00785529 0.00224493 0.0224285 0.00239868 0.00798527 0.00208585 0.0279186 0.00348756 0.0166694 0.00424894 0.0302009 0.00494075 0.01788 0.00538494 0.0510395
98 3 O -2.06164 17.6786 5.78248 -1.2 1 0.00337648 0.00418759 0.00165 0.00494444 0.00287373 0.00736473 0.00231663 0.0223676 0.00248707 0.00816449 0.00275227 0.0279919 0.00340565 0.0174953 0.00495288 0.031152 0.00629672 0.0207849 0.00637611 0.0533277
99 1 Mg 1.39817 16.6215 2.9896 1.2 1 0.00214234 0.00327829 0.00144077 0.00481664 0.00264982 0.0085529 0.00260052 0.0213981 0.00263757 0.00811559 0.00208403 0.0289872 0.00267639 0.0167013 0.00314611 0.029808 0.00415135 0.0170019 0.00459501 0.0500422
100 1 Mg 4.20062 16.5802 4.4844 1.2 1 0.00269388 0.00362739 0.00187462 0.0048308 0.0027641 0.00795686 0.00252538 0.0219695 0.00304161 0.00780568 0.00299434 0.0287069 0.00337053 0.0175935 0.00508979 0.0303478 0.0064986 0.0190349 0.00641509 0.0516327
101 2 Si 2.37796 18.645 4.4844 2.4 1 0.0025765 0.00356358 0.00149048 0.00485499 0.00302705 0.00813238 0.00271244 0.0225483 0.00263373 0.00801826 0.00270054 0.0280766 0.00342644 0.0172615 0.00440777 0.0298284 0.00549584 0.0186545 0.006028 0.0526358
102 3 O 2.39434 20.2583 4.4844 -1.2 1 0.00233946 0.00382828 0.001433 0.0047261 0.00300828 0.00710291 0.00245529 0.021678 0.00288078 0.00744061 0.00206337 0.0287544 0.0033418 0.0167568 0.00393235 0.0302492 0.00601884 0.0186493 0.00679976 0.0521255
103 3 O -4.24274 17.671 4.4844 -1.2 1 0.00246337 0.00383441 0.00174496 0.00494418 0.00280714 0.00879159 0.00264506 0.0225476 0.00297503 0.00793288 0.00257398 0.0289192 0.00337006 0.0169053 0.00495378 0.0301304 0.00607665 0.0192703 0.00667039 0.0517546
104 3 O 3.08659 17.9389 3.18632 -1.2 1 0.0023053 0.00308226 0.00156815 0.00441135 0.00275489 0.00813181 0.00202605 0.0223224 0.00239261 0.00806857 0.00232382 0.0279191 0.00314824 0.0166342 0.00411326 0.0297351 0.00539294 0.0177986 0.00550056 0.0509325
105 1 Mg 1.44478 16.6215 0 1.2 1 0.00197489 0.00244386 0.00103002 0.00451596 0.00124069 0.00906911 0.00105738 0.0215876 0.00133777 0.00820792 0.00155667 0.0288645 0.00210709 0.0158492 0.00212698 0.0294776 0.00271234 0.0161217 0.00272489 0.0488564
106 3 O 3.0436 17.9389 5.78248 -1.2 1 0.00279883 0.00406523 0.00166177 0.00521026 0.00283347 0.007268 0.00236284 0.0226384 0.00230765 0.00831089 0.00270666 0.0279273 0.00382025 0.0172777 0.0047724 0.0311607 0.00629099 0.0210153 0.00650004 0.0535033
107 1 Mg -1.40524 16.6628 1.4948 1.2 1 0.00129574 0.00311729 0.0012446 0.00465646 0.0016696 0.00880697 0.00185988 0.0222481 0.00199118 0.00817295 0.00192568 0.0285388 0.00304072 0.0167005 0.00283606 0.0296894 0.00288203 0.016649 0.00326152 0.0494678
108 2 Si 0.420358 14.5979 1.4948 2.4 1 0.000966709 0.0028614 0.00132016 0.00487446 0.00195656 0.00913986 0.00169137 0.0215519 0.00173346 0.00824556 0.0015195 0.0285313 0.00283406 0.0166068 0.0032524 0.029013 0.00341387 0.0165355 0.00331436 0.0494349
109 3 O 0.408732 12.9847 1.4948 -1.2 1 0.000968461 0.00299963 0.00135543 0.00483724 0.00181927 0.00907391 0.00147904 0.0212582 0.00219785 0.0084245 0.00152374 0.0291486 0.00299955 0.0162119 0.00286851 0.0300337 0.00321799 0.0168692 0.00348758 0.0493529
110 3 O 7.03923 15.572 1.4948 -1.2 1 0.00123603 0.00323053 0.00134079 0.00461618 0.00202085 0.00838492 0.00223311 0.0218334 0.0021624 0.00805234 0.00157414 0.0294108 0.00251907 0.0165061 0.00264772 0.0299015 0.00337422 0.01683 0.00378232 0.0495934
111 3 O -0.248332 15.3041 0.196716 -1.2 1 0.00133112 0.0025927 0.00103373 0.00458437 0.0010045 0.009072 0.00180821 0.021343 0.00142786 0.00830859 0.00169007 0.0282647 0.00282597 0.0161169 0.0036136 0.0294532 0.00290835 0.0160943 0.00287899 0.0490307
112 3 O -0.289436 15.3041 2.79288 -1.2 1 0.00245547 0.0036094 0.00124621 0.00459481 0.00242278 0.00874877 0.00192709 0.0220415 0.00198074 0.00869686 0.00206033 0.0276333 0.00291061 0.0166879 0.00350174 0.0300305 0.00464116 0.0178747 0.00467601 0.0502599
113 1 Mg 6.59566 18.996 0 1.2 1 0.00124703 0.0029987 0.00118062 0.00424091 0.00083351 0.00869504 0.000896134 0.0220865 0.00122495 0.00776014 0.00129163 0.0284509 0.00201239 0.0164073 0.00223994 0.0288275 0.00274708 0.0159848 0.00268679 0.0487418
114 1 Mg 3.85574 23.7037 1.4948 1.2 1 0.00172895 0.00256375 0.0011524 0.00417656 0.00168601 0.00744074 0.00118587 0.0234417 0.00174178 0.00758983 0.00231878 0.0275681 0.00237115 0.0175721 0.00367027 0.0284144 0.00357938 0.0172787 0.00377511 0.0507369
115 2 Si 5.66125 21.0195 1.4948 2.4 1 0.00167426 0.00245761 0.00113437 0.00417881 0.00193287 0.00820927 0.00135061 0.0221184 0.00144196 0.0076046 0.0016441 0.0282632 0.00247163 0.0173995 0.00264442 0.0280689 0.00371975 0.015995 0.00401491 0.0502011
116 3 O 5.72074 22.6328 1.4948 -1.2 1 0.00182808 0.00257177 0.00152836 0.00408084 0.0018164 0.00818623 0.00154078 0.0225322 0.00186432 0.00733102 0.00157124 0.0282939 0.00208854 0.0173002 0.00280841 0.0284354 0.00347989 0.0164635 0.00383331 0.050156
117 3 O 2.03867 20.0455 1.4948 -1.2 1 0.00156599 0.00312797 0.00121203 0.00448773 0.00191089 0.0078111 0.00192818 0.0224763 0.00219999 0.00752341 0.0016332 0.0287837 0.00211393 0.0172328 0.00238392 0.0290287 0.00378161 0.0162734 0.00373083 0.0502936
118 3 O 4.96004 20.3134 0.196716 -1.2 1 0.00182181 0.00215347 0.00115383 0.00409834 0.00115864 0.0083319 0.000991079 0.0219373 0.00103173 0.00756622 0.00159936 0.0280425 0.00261515 0.0166397 0.00371091 0.028774 0.00314954 0.0153776 0.00308331 0.0494348
119 1 Mg 6.55057 18.996 2.9896 1.2 1 0.00153535 0.00329788 0.00124234 0.0044811 0.00264595 0.0083387 0.00275878 0.0215002 0.00251514 0.00793361 0.00180216 0.0292545 0.00295028 0.0170501 0.00295395 0.029222 0.00404032 0.0172122 0.00479448 0.050279