ITEM: TIMESTEP
7400
ITEM: NUMBER OF ATOMS
10500
ITEM: BOX BOUNDS xy xz yz pp pp pp
0	15.2974	5.099
0	118.725	0
0	89.688	0
ITEM: ATOMS id type element xu yu zu q Q_1 Q_2 Q_3 Q_4 Q_5 Q_6 Q_7 Q_8 Q_9 Q_10 Q_11 Q_12 Q_13 Q_14 Q_15 Q_16 Q_17 Q_18 Q_19 Q_20 Q_21
1 1 Mg 6.2404 -6.37941e-06 0 1.2 1 0.00141945 0.00416095 0.00134186 0.00473818 0.00117664 0.00573894 0.00211754 0.0159897 0.00225685 0.00560966 0.00225311 0.0218189 0.00259935 0.0136432 0.0033825 0.0204841 0.00408884 0.0142077 0.00395222 0.0406197
2 1 Mg 3.46349 4.70768 1.4948 1.2 1 0.00110164 0.00325514 0.00186971 0.00438171 0.00195259 0.00620374 0.00344345 0.0185533 0.00285187 0.00701456 0.00296042 0.0256094 0.003138 0.013834 0.00424394 0.0252208 0.00547987 0.0170282 0.00584106 0.0437554
3 2 Si 5.2885 2.02354 1.4948 2.4 1 0.000823058 0.00334774 0.00212116 0.00466497 0.00179545 0.0057369 0.00251635 0.0169811 0.00254847 0.0061179 0.00217776 0.0231812 0.00280921 0.0135207 0.00366358 0.0215429 0.00399713 0.015285 0.00439662 0.041145
4 3 O 5.33628 3.63678 1.4948 -1.2 1 0.000623953 0.00269002 0.00191359 0.00477013 0.00210014 0.00629243 0.00274961 0.017661 0.00237241 0.00670255 0.00201501 0.0250735 0.00261252 0.0136804 0.00428113 0.0240166 0.00509085 0.01639 0.0058373 0.0427227
5 3 O 1.67294 1.04952 1.4948 -1.2 1 0.00185704 0.00346687 0.00190998 0.00430583 0.00123126 0.00579422 0.00250099 0.016751 0.00237648 0.00610916 0.00229495 0.0226394 0.00257245 0.0128449 0.00333026 0.0217439 0.00458335 0.0155503 0.00476885 0.0401776
6 3 O 4.59532 1.31737 0.196716 -1.2 1 0.00153755 0.00304948 0.00207521 0.00431674 0.00185502 0.00579509 0.00237195 0.0171138 0.00275051 0.00625361 0.00210076 0.0223707 0.00318161 0.012874 0.00412044 0.0213864 0.00414357 0.0148345 0.00456313 0.0409116
7 1 Mg 6.18956 -6.37941e-06 2.9896 1.2 1 0.00125379 0.00434664 0.00158936 0.00426334 0.00139433 0.0057181 0.00250468 0.0160248 0.00271773 0.00568057 0.00172444 0.0223429 0.0027513 0.0131998 0.00359262 0.0204546 0.0044381 0.0146717 0.00474105 0.0389337
8 3 O 4.55118 1.31737 2.79288 -1.2 1 0.0012068 0.00436384 0.0019608 0.00448153 0.00182496 0.00572066 0.00245566 0.0167268 0.00252699 0.00681912 0.00243609 0.0216802 0.00345315 0.012271 0.00339893 0.0213811 0.00481673 0.0154647 0.00512644 0.03976
9 1 Mg -1.20682 0.0413099 4.4844 1.2 1 0.000199906 0.0024062 0.00175115 0.00484231 0.00127263 0.00533988 0.0020156 0.0159674 0.00214896 0.00622812 0.00228605 0.0227711 0.00303067 0.01152 0.00381376 0.0206422 0.00533102 0.0156696 0.00499512 0.0387356
10 2 Si -3.0337 2.72544 4.4844 2.4 1 0.000360936 0.00302238 0.00195335 0.00506239 0.00222451 0.00598184 0.003118 0.0166409 0.00325675 0.00633171 0.00229711 0.0239682 0.00322351 0.0127093 0.00397598 0.0225745 0.00536175 0.017577 0.00629426 0.0400758
11 3 O -3.08099 1.11221 4.4844 -1.2 1 0.000313503 0.00331428 0.00195586 0.00464132 0.00139061 0.00532363 0.00238053 0.0160702 0.00284571 0.00578075 0.00221649 0.02248 0.00320578 0.0112071 0.00362814 0.0214033 0.0051123 0.0162044 0.00544404 0.0386713
12 3 O 0.582463 3.69946 4.4844 -1.2 1 0.00135816 0.0043043 0.00195422 0.00471029 0.00259484 0.00646648 0.00348458 0.0173834 0.00311419 0.00673667 0.00321633 0.0246942 0.0040747 0.0128905 0.00439416 0.0244638 0.00681817 0.0186537 0.00804206 0.0421248
13 3 O -2.29524 3.43162 3.18632 -1.2 1 0.000774764 0.00257492 0.0027094 0.00469927 0.00231425 0.00596795 0.00287988 0.0178319 0.00315646 0.00684121 0.00282881 0.0243859 0.00336677 0.0130081 0.00468348 0.0243001 0.00601765 0.0178059 0.00658755 0.0420591
14 3 O -2.34216 3.43162 5.78248 -1.2 1 0.00108197 0.0034985 0.00145493 0.00506267 0.00245555 0.00569831 0.00295859 0.0171504 0.00277899 0.00737011 0.00293304 0.0235647 0.00421358 0.0124453 0.00428195 0.0235364 0.00639014 0.019546 0.00739376 0.0409341
15 1 Mg 1.12778 2.37449 2.9896 1.2 1 0.00129442 0.00390202 0.00226516 0.00464786 0.00212804 0.00588152 0.00300433 0.016701 0.00266318 0.00615578 0.00256663 0.023502 0.00311001 0.0130033 0.00348729 0.0219402 0.00494476 0.0164252 0.00556107 0.0409641
16 1 Mg 3.92855 2.33318 4.4844 1.2 1 0.00128859 0.00407908 0.00176746 0.00441397 0.00175927 0.00561828 0.0033577 0.0167397 0.00321304 0.00624292 0.00304217 0.0228996 0.00361859 0.01339 0.00524021 0.02193 0.00648236 0.0170806 0.00708934 0.0402771
17 2 Si 2.09341 4.39804 4.4844 2.4 1 0.00118214 0.00416674 0.00199452 0.00442831 0.00297257 0.00604253 0.0037332 0.0182274 0.0034314 0.00694725 0.00350704 0.0250029 0.00427897 0.0141827 0.00450711 0.0248138 0.00676099 0.0184628 0.00843452 0.0439281
18 3 O 2.09991 6.01128 4.4844 -1.2 1 0.00190867 0.00440415 0.00170191 0.00432858 0.00292928 0.00655322 0.00307638 0.0192642 0.00270922 0.00738387 0.00327691 0.0266047 0.00387793 0.0145109 0.00479191 0.0276421 0.00684758 0.0194537 0.00828357 0.0459723
19 3 O -4.52137 3.42402 4.4844 -1.2 1 0.00102365 0.00334531 0.00232046 0.00488069 0.00217833 0.00702025 0.00331361 0.017009 0.00335656 0.00640496 0.00326119 0.0237432 0.00386051 0.0128719 0.00431012 0.0230213 0.00641078 0.01761 0.00763201 0.041424
20 3 O 2.80834 3.69187 3.18632 -1.2 1 0.00116003 0.00386137 0.00183038 0.00387932 0.00200968 0.00596418 0.00299962 0.0174074 0.00308591 0.00650121 0.00301905 0.0242183 0.00353446 0.0130281 0.0047047 0.0238563 0.00591255 0.016997 0.00649311 0.0427291
21 1 Mg 1.17857 2.37449 0 1.2 1 0.0022629 0.00377242 0.0019804 0.00404038 0.00133032 0.00552504 0.00246224 0.0171244 0.00247584 0.00655264 0.00285089 0.0231365 0.00301226 0.0132936 0.00364875 0.0215561 0.00436611 0.0147238 0.00461934 0.0406581
22 3 O 2.76143 3.69187 5.78248 -1.2 1 0.00140966 0.00407765 0.00173513 0.00438055 0.00210005 0.00547558 0.00270486 0.0176427 0.00327018 0.00739664 0.00303892 0.0236238 0.00459286 0.0129898 0.00551128 0.0233436 0.00659681 0.0185908 0.00765248 0.0415621
23 1 Mg -1.67381 2.41581 1.4948 1.2 1 0.00161396 0.00267604 0.00265604 0.00468702 0.00143918 0.00599344 0.00232013 0.016615 0.00285502 0.00631686 0.00200828 0.0240086 0.00249514 0.0140524 0.00287143 0.022173 0.00433042 0.0159663 0.00486475 0.0416
24 2 Si 0.16286 0.350945 1.4948 2.4 1 0.00220912 0.00277613 0.00285706 0.00461045 0.00111907 0.00642481 0.00271831 0.0162697 0.00214519 0.00528502 0.00203823 0.0227042 0.00243674 0.0135064 0.00309111 0.0205781 0.00462206 0.0147554 0.00427553 0.0401853
25 3 O 0.15972 -1.26229 1.4948 -1.2 1 0.00196179 0.00263108 0.00299349 0.00437158 0.00167823 0.00600398 0.00251685 0.0163596 0.00235926 0.00554889 0.00259253 0.0226424 0.00257278 0.013901 0.00284024 0.0215855 0.00422775 0.0146339 0.00378158 0.0407914
26 3 O 6.77654 1.32496 1.4948 -1.2 1 0.00148127 0.00367764 0.00170993 0.00467408 0.00133131 0.00599775 0.00224636 0.0166215 0.00259091 0.00562044 0.0018136 0.0235251 0.00281029 0.0134566 0.00354314 0.0218221 0.00463148 0.0152603 0.00425285 0.0406207
27 3 O -0.508028 1.05712 0.196716 -1.2 1 0.00178106 0.00302215 0.00322617 0.0040848 0.0011929 0.00566734 0.00244899 0.0169949 0.00187566 0.00662415 0.00259224 0.0220209 0.00269977 0.0128864 0.00308258 0.021017 0.00422131 0.0150565 0.004372 0.0401321
28 3 O -0.552171 1.05712 2.79288 -1.2 1 0.00113326 0.00221928 0.00295468 0.00452167 0.00124037 0.0059587 0.00240835 0.016064 0.00253173 0.00624275 0.00189294 0.0226749 0.00288598 0.0114559 0.00372128 0.0215891 0.00528161 0.0158129 0.00465376 0.039337
29 1 Mg 6.31713 4.74899 0 1.2 1 0.00119873 0.00279055 0.00208854 0.00460419 0.00224253 0.00623979 0.00316579 0.0179812 0.00286324 0.00695197 0.00231901 0.0251011 0.00289903 0.0139319 0.00422937 0.0245406 0.00472784 0.0162146 0.00592789 0.0427294
30 1 Mg 3.54847 9.45668 1.4948 1.2 1 0.00116034 0.00335097 0.002086 0.00444916 0.00202649 0.00774024 0.00314729 0.0213657 0.00181379 0.00846407 0.00250443 0.0283825 0.00317705 0.0158091 0.00389628 0.0291957 0.00422243 0.0182749 0.00401708 0.0488817
31 2 Si 5.36879 6.77254 1.4948 2.4 1 0.000244197 0.0030326 0.00213471 0.00498806 0.00270306 0.00707817 0.00368042 0.0194821 0.00276583 0.00774688 0.00262008 0.0274721 0.00315615 0.0155145 0.00416358 0.0268814 0.00478873 0.0173069 0.00526189 0.0466259
32 3 O 5.41937 8.38578 1.4948 -1.2 1 0.000824617 0.00322643 0.00192151 0.00491527 0.00224904 0.00788391 0.00314926 0.0209072 0.00232265 0.0083815 0.00254602 0.0288344 0.00226066 0.0158097 0.00317082 0.0291701 0.00468323 0.0175009 0.0049849 0.0481039
33 3 O 1.75158 5.79852 1.4948 -1.2 1 0.00107167 0.00340127 0.00178473 0.00411664 0.00246339 0.00614361 0.00322398 0.0193938 0.00283836 0.0072937 0.00273649 0.0277252 0.00294031 0.0155775 0.00354823 0.0268738 0.00537519 0.0174866 0.00568384 0.0457516
34 3 O 4.67421 6.06637 0.196716 -1.2 1 0.000834397 0.00310931 0.00180915 0.00473901 0.002079 0.00699193 0.00286609 0.0195063 0.00251138 0.00810368 0.00222439 0.0260856 0.00347004 0.0145554 0.00428095 0.02658 0.00478287 0.016595 0.00555453 0.0450123
35 1 Mg 6.26654 4.74899 2.9896 1.2 1 0.00131584 0.00292447 0.00224661 0.00499208 0.0026673 0.0066854 0.00368705 0.0179347 0.00376192 0.00709607 0.0023527 0.0259576 0.00369234 0.014573 0.00503133 0.0249609 0.00590394 0.0175746 0.00708142 0.043682
36 3 O 4.63043 6.06637 2.79288 -1.2 1 0.00175605 0.0032371 0.00202818 0.00481978 0.00229716 0.00696101 0.00350718 0.0195097 0.00335409 0.00787578 0.00262647 0.0260929 0.00400251 0.0147376 0.00472792 0.0273783 0.00584251 0.0184103 0.00693681 0.0458035
37 1 Mg -1.12976 4.79031 4.4844 1.2 1 0.00131484 0.00360637 0.00177698 0.0049615 0.00240237 0.00631699 0.00316199 0.0181707 0.00351737 0.00736026 0.0031818 0.0258899 0.00410961 0.0141893 0.00481309 0.0257188 0.00743128 0.0191767 0.00790417 0.0442945
38 2 Si -2.9517 7.47444 4.4844 2.4 1 0.00208139 0.0038707 0.00167116 0.00527897 0.00296125 0.00656805 0.00380379 0.0204227 0.00323509 0.00804697 0.00331982 0.0274776 0.00466975 0.0159298 0.00542488 0.0282675 0.00693948 0.0193183 0.00810248 0.0480637
39 3 O -3.00198 5.86121 4.4844 -1.2 1 0.00153363 0.00383323 0.00161707 0.00509229 0.00310488 0.00633724 0.00405382 0.0188068 0.00354276 0.00778719 0.00292176 0.0258141 0.00450728 0.0141481 0.00480359 0.0269898 0.00682027 0.0196091 0.00835573 0.0454476
40 3 O 0.666315 8.44846 4.4844 -1.2 1 0.00264785 0.00473894 0.00162142 0.00508115 0.00295925 0.00750057 0.00294306 0.0213717 0.00306372 0.00804188 0.00359774 0.0283088 0.00443463 0.0158958 0.00451834 0.0295564 0.00630641 0.0199282 0.00810611 0.0492288
41 3 O -2.21213 8.18062 3.18632 -1.2 1 0.00191564 0.00403541 0.00177705 0.00461278 0.00260079 0.00646448 0.0028511 0.0207743 0.00271685 0.00826398 0.00302456 0.0276943 0.00423453 0.0160463 0.00503505 0.0291406 0.00582669 0.018892 0.00670554 0.048837
42 3 O -2.25864 8.18062 5.78248 -1.2 1 0.00268278 0.00421804 0.00160726 0.00495464 0.00312732 0.00603426 0.00298911 0.0208674 0.00264821 0.00876093 0.00355183 0.0267844 0.0045715 0.0163973 0.00530434 0.0294583 0.00714188 0.0207307 0.00845817 0.0499297
43 1 Mg 1.20893 7.12349 2.9896 1.2 1 0.00140332 0.00375106 0.00198942 0.00449781 0.00280408 0.00683413 0.00361026 0.0196611 0.00285577 0.00812267 0.00288401 0.0278765 0.00348338 0.0157503 0.003838 0.027726 0.00555753 0.0184096 0.00638834 0.0471118
44 1 Mg 4.00982 7.08218 4.4844 1.2 1 0.00208167 0.00375165 0.0018017 0.00488983 0.00253351 0.00653895 0.00377877 0.0200315 0.00346667 0.00775172 0.0034779 0.0274423 0.00428585 0.0165582 0.0057736 0.0284062 0.007181 0.0194681 0.00827216 0.0474895
45 2 Si 2.17861 9.14704 4.4844 2.4 1 0.00265308 0.00414471 0.00167963 0.00484466 0.00290395 0.00737996 0.0035719 0.0213546 0.00279083 0.00832223 0.00325693 0.0280637 0.00448441 0.0164724 0.00450661 0.0298169 0.00592821 0.0197922 0.00710534 0.0507606
46 3 O 2.18828 10.7603 4.4844 -1.2 1 0.00332129 0.00426571 0.0018818 0.00454717 0.00268108 0.00711362 0.00295073 0.0210832 0.00249187 0.00834873 0.00240763 0.0285643 0.00412412 0.0157929 0.00431514 0.0307886 0.00600116 0.0199784 0.00661825 0.0513108
47 3 O -4.43805 8.17302 4.4844 -1.2 1 0.00162273 0.00408373 0.00189264 0.00497079 0.00249751 0.00764831 0.00313351 0.0208319 0.00320961 0.00850267 0.00319913 0.028264 0.00465424 0.0159648 0.00469692 0.0295335 0.00662833 0.0198149 0.00867034 0.0486714
48 3 O 2.89193 8.44087 3.18632 -1.2 1 0.00214752 0.00360321 0.00195888 0.00436427 0.00251574 0.00709571 0.00325966 0.0206175 0.00283733 0.00857297 0.00299245 0.0275272 0.00370168 0.0158484 0.0046157 0.0292127 0.00593212 0.018943 0.00593003 0.0489694
49 1 Mg 1.25915 7.12349 0 1.2 1 0.00104107 0.00311933 0.00163847 0.00417496 0.00194253 0.00728941 0.00289724 0.0200528 0.00278808 0.00816094 0.00277795 0.0274747 0.00345845 0.0146318 0.00370396 0.0274955 0.00463573 0.0172327 0.00450843 0.0459071
50 3 O 2.84547 8.44087 5.78248 -1.2 1 0.00273761 0.00443858 0.00152361 0.00469701 0.00256408 0.00642569 0.00305624 0.0210533 0.00303881 0.00881776 0.00349902 0.0269944 0.00535957 0.0162182 0.00484955 0.0298526 0.0061259 0.0212348 0.00766454 0.049806
51 1 Mg -1.59284 7.16481 1.4948 1.2 1 0.000817976 0.00335987 0.00148184 0.00469169 0.00189727 0.00654474 0.00265507 0.0198183 0.00288538 0.00779806 0.00198593 0.0276671 0.00327956 0.0157224 0.0038268 0.027185 0.00464148 0.0175758 0.00569005 0.0466588
52 2 Si 0.240329 5.09994 1.4948 2.4 1 0.00112861 0.0037143 0.0019714 0.00411344 0.00201356 0.00688602 0.00300065 0.0188605 0.00311163 0.00727445 0.00240009 0.025885 0.00278805 0.014681 0.00411279 0.0247575 0.0052044 0.016795 0.0052874 0.0446847
53 3 O 0.234538 3.48671 1.4948 -1.2 1 0.00165532 0.00375108 0.00251594 0.00434469 0.00183375 0.0064197 0.00253514 0.0178387 0.00334035 0.00694835 0.00253318 0.0244792 0.00319179 0.0136433 0.00393449 0.0239763 0.0056234 0.0159526 0.00540673 0.0423648
54 3 O 6.85564 6.07396 1.4948 -1.2 1 0.00079473 0.00266352 0.00234485 0.00488051 0.00247406 0.00621644 0.00299271 0.0197805 0.00307856 0.00752523 0.0022319 0.0275712 0.00324028 0.0148596 0.00477475 0.0268747 0.0055648 0.0175799 0.00632644 0.0453995
55 3 O -0.429565 5.80612 0.196716 -1.2 1 0.00106396 0.00327776 0.002304 0.00408226 0.00191694 0.007155 0.00253986 0.0193756 0.00280514 0.00818437 0.00265891 0.0256144 0.00259483 0.0142868 0.003914 0.0259064 0.00517568 0.0166298 0.00570537 0.0449757
56 3 O -0.473377 5.80612 2.79288 -1.2 1 0.001382 0.00345324 0.00202004 0.00462581 0.00243181 0.00680632 0.00308668 0.0192264 0.00300711 0.00801901 0.00302883 0.0258597 0.00386898 0.0146151 0.00449885 0.0264941 0.00640831 0.0183582 0.00675593 0.0458551
57 1 Mg 6.40169 9.49799 0 1.2 1 0.000471022 0.00391825 0.00155418 0.00458792 0.00150561 0.0084012 0.00203587 0.0209454 0.00156538 0.00888543 0.00182591 0.0286427 0.00252607 0.0150179 0.00276011 0.0298269 0.00359138 0.0178164 0.00409682 0.0474364
58 1 Mg 3.64209 14.2057 1.4948 1.2 1 0.00192237 0.00329401 0.0016132 0.00424772 0.0016832 0.00882375 0.00168705 0.021677 0.00174364 0.00881616 0.00223397 0.0281681 0.00253533 0.0163721 0.00321257 0.0295168 0.00348966 0.0169273 0.00365875 0.049552
59 2 Si 5.45748 11.5215 1.4948 2.4 1 0.00161189 0.00331766 0.00199948 0.00448642 0.00178141 0.008259 0.00217683 0.0211342 0.00167556 0.00835716 0.0018845 0.0286836 0.00267264 0.0163861 0.00343567 0.0293422 0.00407943 0.016973 0.00388277 0.0491899
60 3 O 5.51101 13.1348 1.4948 -1.2 1 0.00201906 0.00342433 0.00182493 0.00436914 0.00159201 0.00908488 0.00185106 0.021203 0.00182833 0.00874661 0.00157855 0.0291955 0.00211631 0.016378 0.00294261 0.0298856 0.00367188 0.0166745 0.00373671 0.0491428
61 3 O 1.83851 10.5475 1.4948 -1.2 1 0.000954425 0.00346214 0.00198848 0.00463855 0.00190944 0.00771063 0.00251695 0.0216376 0.00170373 0.00852546 0.00230595 0.0292552 0.00255161 0.0160097 0.00340444 0.029893 0.00408568 0.017866 0.00352878 0.0493537
62 3 O 4.7611 10.8154 0.196716 -1.2 1 0.000405688 0.00310651 0.00180433 0.0045147 0.0016331 0.00854582 0.00211269 0.0212795 0.00151195 0.00869281 0.0020399 0.0280644 0.00283944 0.0156591 0.00353076 0.0295626 0.00361999 0.0171718 0.00373353 0.0484014
63 1 Mg 6.35203 9.49799 2.9896 1.2 1 0.00153047 0.00378821 0.00182734 0.0048233 0.00253314 0.00767548 0.00335195 0.020566 0.00307322 0.00855505 0.00220288 0.0290198 0.00366677 0.0164128 0.00332795 0.0292899 0.00454699 0.0185155 0.00556166 0.0490155
64 3 O 4.71833 10.8154 2.79288 -1.2 1 0.00250197 0.00336987 0.00207639 0.00436392 0.00222075 0.00826884 0.0023633 0.0214003 0.00202517 0.00913173 0.0022738 0.0282363 0.00357408 0.0160613 0.00416514 0.0302272 0.0053236 0.0184671 0.0054493 0.0502905
65 1 Mg -1.0438 9.53931 4.4844 1.2 1 0.00295275 0.00458293 0.00171032 0.00454019 0.00302449 0.00669977 0.00254195 0.0210293 0.00287894 0.00847389 0.00283645 0.0283176 0.00397539 0.016789 0.00450978 0.0301256 0.00633706 0.01997 0.00720288 0.0505429
66 2 Si -2.8604 12.2234 4.4844 2.4 1 0.0032397 0.00412568 0.00181401 0.00431487 0.00266745 0.00764509 0.00302173 0.0218396 0.00284513 0.00869718 0.00277542 0.0283272 0.00451935 0.0168769 0.00459199 0.0302253 0.00555308 0.0192061 0.00673694 0.0521084
67 3 O -2.91391 10.6102 4.4844 -1.2 1 0.00298025 0.00430483 0.00172853 0.0043655 0.00276322 0.00705819 0.00302173 0.02077 0.00268655 0.008026 0.00210575 0.0283758 0.00434091 0.0160527 0.00440408 0.0308503 0.00593278 0.0198152 0.00689532 0.0511295
68 3 O 0.7596 13.1975 4.4844 -1.2 1 0.00353797 0.00412229 0.00168159 0.00474285 0.00268578 0.00862097 0.00267267 0.022223 0.00284795 0.00865258 0.00313461 0.0287143 0.00420689 0.0165355 0.00445977 0.0303399 0.00583332 0.0195092 0.00687769 0.0519153
69 3 O -2.12001 12.9296 3.18632 -1.2 1 0.00341795 0.00391354 0.00200389 0.00398131 0.00246028 0.00770809 0.00223456 0.0218114 0.00256672 0.00862308 0.00255545 0.0277097 0.00356304 0.0162326 0.00468268 0.0304885 0.00523066 0.0185405 0.00561352 0.0511366
70 3 O -2.16532 12.9296 5.78248 -1.2 1 0.00402101 0.00439353 0.00145001 0.00438074 0.00282055 0.00669826 0.00234216 0.0223439 0.00251271 0.008696 0.00301455 0.0276299 0.00427631 0.0171607 0.00522235 0.0314406 0.00614781 0.0210947 0.00691953 0.0539218
71 1 Mg 1.29891 11.8725 2.9896 1.2 1 0.00253227 0.00356732 0.0020005 0.00461094 0.00240574 0.00807852 0.00288132 0.0211258 0.00258696 0.00869966 0.00211674 0.0289615 0.00330636 0.0163477 0.00355685 0.0301038 0.00459074 0.0179918 0.00504425 0.0501526
72 1 Mg 4.10033 11.8312 4.4844 1.2 1 0.00324338 0.00373278 0.00206264 0.00420672 0.00245415 0.00721397 0.00272489 0.0214623 0.00246568 0.00853371 0.00264157 0.0288239 0.0038796 0.0174085 0.00495165 0.0306445 0.00648151 0.0195034 0.0065225 0.0518113
73 2 Si 2.27333 13.896 4.4844 2.4 1 0.00361015 0.0035658 0.00167054 0.00474952 0.0029646 0.00791387 0.00322665 0.0218382 0.00243776 0.00869052 0.00278558 0.028077 0.003903 0.0168097 0.0044997 0.0304341 0.0054172 0.0190014 0.00631463 0.0527326
74 3 O 2.28634 15.5093 4.4844 -1.2 1 0.0040928 0.00423086 0.00160022 0.0043457 0.00307649 0.007287 0.00283338 0.0211234 0.00255835 0.00804677 0.00214178 0.0284038 0.0034819 0.0162102 0.00406537 0.0309531 0.00563172 0.0188644 0.00639852 0.0522545
75 3 O -4.34533 12.922 4.4844 -1.2 1 0.00317696 0.00433453 0.0019636 0.00453556 0.00264916 0.00841909 0.00294363 0.0219767 0.00282005 0.00860603 0.00266705 0.0285515 0.00413151 0.0165401 0.00477619 0.0307022 0.00625752 0.0196713 0.00730088 0.0520958
76 3 O 2.98455 13.1899 3.18632 -1.2 1 0.00326138 0.0033982 0.00174206 0.00414283 0.00241602 0.0078089 0.00230672 0.0218155 0.00222303 0.00872925 0.00240672 0.0279413 0.00343454 0.0163778 0.00436629 0.0304282 0.00535657 0.0183632 0.00571062 0.0510174
77 1 Mg 1.34779 11.8725 0 1.2 1 0.00100349 0.00299925 0.00131329 0.00447246 0.00144587 0.00890374 0.00160633 0.0211644 0.00126685 0.00920032 0.00201603 0.0287346 0.00293946 0.0152243 0.00310825 0.0299787 0.00314088 0.0171552 0.00335216 0.0481117
78 3 O 2.93934 13.1899 5.78248 -1.2 1 0.00370656 0.00430997 0.00139899 0.00449662 0.00270327 0.00699453 0.00248363 0.0221927 0.00257799 0.0087394 0.0029184 0.0273075 0.00423643 0.0169154 0.00469234 0.0314657 0.00592845 0.0213175 0.00655491 0.0540667
79 1 Mg -1.50344 11.9138 1.4948 1.2 1 0.00127437 0.0036878 0.00155092 0.00432324 0.00143179 0.00825663 0.00188722 0.0216305 0.00236355 0.00861504 0.00161927 0.0285515 0.00359301 0.0163112 0.00339969 0.0298432 0.00351415 0.0175679 0.00385868 0.0491034
80 2 Si 0.326006 9.84894 1.4948 2.4 1 0.000343397 0.00361787 0.00141932 0.00487423 0.00195131 0.00819667 0.00221342 0.0210509 0.00199256 0.00850943 0.00182535 0.0283901 0.00300301 0.0159145 0.00377306 0.0289501 0.00377966 0.0176918 0.00365269 0.0486623
81 3 O 0.317364 8.23571 1.4948 -1.2 1 0.000986814 0.00351625 0.00136187 0.00451141 0.00194415 0.00775433 0.00210858 0.0202111 0.00251797 0.00805265 0.00202397 0.028519 0.00345566 0.0159434 0.00389083 0.0286713 0.00443431 0.0176362 0.00435201 0.0476722
82 3 O 6.94307 10.823 1.4948 -1.2 1 0.00127441 0.00373335 0.00176467 0.0044323 0.00183678 0.00778895 0.00261695 0.0217679 0.00227273 0.00840819 0.0016124 0.0293201 0.00297822 0.0160828 0.00339319 0.0300722 0.00387939 0.0180553 0.00426059 0.0492326
83 3 O -0.343122 10.5551 0.196716 -1.2 1 0.000506033 0.00336579 0.00130466 0.00454954 0.00164064 0.00864442 0.00206222 0.0211772 0.0016418 0.00898986 0.00215043 0.0279772 0.00342313 0.0155859 0.00422915 0.0294273 0.00347793 0.0173382 0.00366373 0.0483672
84 3 O -0.385966 10.5551 2.79288 -1.2 1 0.00270892 0.00395191 0.00143998 0.00447423 0.00254623 0.00802546 0.00215294 0.0216813 0.00210859 0.00911337 0.00239225 0.0276655 0.00379425 0.0161113 0.00417135 0.0302278 0.00511437 0.0188749 0.00512014 0.0501838
85 1 Mg 6.49448 14.247 0 1.2 1 0.000841549 0.00350869 0.00162718 0.00445507 0.00110289 0.00920863 0.00128218 0.0212376 0.00114756 0.00862531 0.00155917 0.0286327 0.00180647 0.0157 0.0024518 0.029917 0.00308563 0.0164571 0.00301621 0.0479978
86 1 Mg 3.74457 18.9547 1.4948 1.2 1 0.00228581 0.00338546 0.00130885 0.00395296 0.00176145 0.0084757 0.00132006 0.0222093 0.00182638 0.00805589 0.0022301 0.0276349 0.00241017 0.0165626 0.00357556 0.028838 0.00354909 0.0164259 0.00346379 0.0501402
87 2 Si 5.55495 16.2705 1.4948 2.4 1 0.00223643 0.00314481 0.00156122 0.00416292 0.00189623 0.0088546 0.00138766 0.021494 0.00140639 0.00806823 0.00144554 0.0284187 0.00232866 0.0164353 0.00286147 0.0288484 0.00374343 0.0158952 0.00378366 0.0496558
88 3 O 5.6115 17.8838 1.4948 -1.2 1 0.00236144 0.00321828 0.00171557 0.00412933 0.00175109 0.00916713 0.00142844 0.0217042 0.00185637 0.00791513 0.00134793 0.0286247 0.00210496 0.0165301 0.0027354 0.0290004 0.00328096 0.0157127 0.00361077 0.0497575
89 3 O 1.93416 15.2965 1.4948 -1.2 1 0.00230445 0.00326986 0.00163305 0.00428219 0.00183335 0.00846042 0.00192184 0.0219289 0.00180922 0.00822216 0.00153323 0.0289192 0.00202179 0.0163864 0.00292042 0.0297753 0.0037776 0.0164885 0.00359055 0.0499803
90 3 O 4.85636 15.5644 0.196716 -1.2 1 0.00148967 0.00267476 0.00143821 0.00421427 0.00118886 0.00910579 0.00129605 0.021382 0.00101507 0.00820303 0.0017559 0.027886 0.00262774 0.0162069 0.00359294 0.0291762 0.00320597 0.0158864 0.00311044 0.0489305
91 1 Mg 6.44662 14.247 2.9896 1.2 1 0.00238775 0.00386069 0.00173167 0.00419066 0.00247637 0.00851927 0.00272294 0.0207871 0.00265624 0.00890238 0.00192911 0.0291067 0.00306513 0.0165316 0.00317961 0.029894 0.00402326 0.0176532 0.00483306 0.0501924
92 3 O 4.81537 15.5644 2.79288 -1.2 1 0.00313188 0.00345124 0.00153179 0.00408616 0.00232823 0.00881168 0.00168642 0.0219023 0.00164981 0.00868332 0.00165453 0.0278247 0.00274339 0.0163851 0.00356344 0.0299826 0.00467336 0.0173315 0.00518577 0.0507555
93 1 Mg -0.948271 14.2883 4.4844 1.2 1 0.00397821 0.00401222 0.00153221 0.00411857 0.00266608 0.007555 0.00255136 0.0216677 0.00276691 0.00843587 0.00292027 0.0282787 0.00348411 0.0170294 0.00495253 0.0308066 0.00574858 0.0189713 0.00660497 0.05227
94 2 Si -2.75928 16.9724 4.4844 2.4 1 0.00368617 0.00386069 0.00165648 0.00433381 0.00286524 0.00781669 0.00257039 0.0220945 0.00271289 0.00808821 0.00276035 0.0278881 0.00357389 0.0171491 0.00456327 0.0299746 0.00512336 0.0182414 0.00636818 0.0530615
95 3 O -2.81617 15.3592 4.4844 -1.2 1 0.00399567 0.00409958 0.00183981 0.00419841 0.0029453 0.00745339 0.00284832 0.0212708 0.00270882 0.00804981 0.00242315 0.0285845 0.00370343 0.0162795 0.00408736 0.0307608 0.00584881 0.018571 0.00682315 0.0522018
96 3 O 0.862762 17.9465 4.4844 -1.2 1 0.00343927 0.0043614 0.00135847 0.00453453 0.00304923 0.00842842 0.00253203 0.0224816 0.00260932 0.00806645 0.00258291 0.0281285 0.00373141 0.0169397 0.0040775 0.0296891 0.00566086 0.0187024 0.00629274 0.052567
97 3 O -2.0185 17.6786 3.18632 -1.2 1 0.00355154 0.00367375 0.00180053 0.00380375 0.00263566 0.00747304 0.00214531 0.0222712 0.00230383 0.00799681 0.00222793 0.0274467 0.00341025 0.0166315 0.0043832 0.0300361 0.0047041 0.0174722 0.00529326 0.0517362
98 3 O -2.06164 17.6786 5.78248 -1.2 1 0.00391894 0.00437074 0.0013775 0.00442005 0.00295037 0.00697944 0.00231575 0.0222181 0.00241323 0.00826573 0.00273041 0.027336 0.00342991 0.0171654 0.00472816 0.0310587 0.00596808 0.0202822 0.00647758 0.0546819
99 1 Mg 1.39817 16.6215 2.9896 1.2 1 0.0032085 0.00350526 0.00162186 0.00431436 0.00262445 0.00837092 0.00271071 0.021367 0.00250986 0.00827878 0.00204902 0.0287047 0.00270601 0.0167108 0.00346923 0.0296715 0.00416526 0.0167201 0.0045972 0.0505729
100 1 Mg 4.20062 16.5802 4.4844 1.2 1 0.00374462 0.00378964 0.00177246 0.00417513 0.00285806 0.00761962 0.00240718 0.0217277 0.00293595 0.00814863 0.00281116 0.0283247 0.00335582 0.0175746 0.00538856 0.0303388 0.00617206 0.0185151 0.00627259 0.0525098
101 2 Si 2.37796 18.645 4.4844 2.4 1 0.00336809 0.003816 0.00124749 0.00451389 0.00300294 0.00798644 0.00277621 0.0224179 0.00259527 0.00815079 0.00277588 0.0276707 0.00351321 0.0172545 0.00450092 0.0296383 0.00534354 0.0183235 0.00592291 0.0534537
102 3 O 2.39434 20.2583 4.4844 -1.2 1 0.00309845 0.00415695 0.00132208 0.00446783 0.00305935 0.00709221 0.00248659 0.0215924 0.00266491 0.00750289 0.00193032 0.0281654 0.00334179 0.0168141 0.00375467 0.0301393 0.00572334 0.0183383 0.00662726 0.0529334
103 3 O -4.24274 17.671 4.4844 -1.2 1 0.00345068 0.00407346 0.00189658 0.00430302 0.00294684 0.00850267 0.00282657 0.0224287 0.00282721 0.00831334 0.0024957 0.0283841 0.00331752 0.0168076 0.00469043 0.0301243 0.00584648 0.0188646 0.0065845 0.0527576
104 3 O 3.08659 17.9389 3.18632 -1.2 1 0.0035582 0.00327799 0.00166871 0.0038592 0.00273596 0.00785011 0.00209674 0.022229 0.00229046 0.0082142 0.00238009 0.0275051 0.00309344 0.0165761 0.0044418 0.0298281 0.00531226 0.0175318 0.00572171 0.05163
105 1 Mg 1.44478 16.6215 0 1.2 1 0.00178247 0.00297538 0.00114782 0.00413107 0.00113702 0.00898558 0.00109826 0.0215067 0.00128921 0.00820032 0.00170622 0.0284798 0.00244869 0.0158067 0.00246869 0.0293463 0.00281924 0.0159374 0.00322036 0.0488854
106 3 O 3.0436 17.9389 5.78248 -1.2 1 0.00331753 0.00451127 0.00158144 0.00458265 0.00297771 0.00699702 0.00235936 0.0225905 0.00244896 0.00823203 0.00300632 0.0272363 0.00372573 0.016912 0.00447669 0.0311236 0.00580443 0.020781 0.00630405 0.0546786
107 1 Mg -1.40524 16.6628 1.4948 1.2 1 0.00189756 0.00341172 0.00146693 0.00407192 0.00170423 0.0086399 0.00172408 0.0222017 0.00198689 0.00827874 0.00173285 0.0281138 0.00304078 0.0167253 0.00291163 0.0293732 0.00298667 0.0165523 0.00333554 0.0497555
108 2 Si 0.420358 14.5979 1.4948 2.4 1 0.00179294 0.00319113 0.00164566 0.00457867 0.00194623 0.00918822 0.0017298 0.0214478 0.00180101 0.00829642 0.00159067 0.0282719 0.00289548 0.0165933 0.00353129 0.0288319 0.00356634 0.0164053 0.00357272 0.0494512
109 3 O 0.408732 12.9847 1.4948 -1.2 1 0.00167437 0.00313429 0.00143504 0.00452007 0.00180132 0.00914593 0.00156636 0.0211716 0.00215327 0.0085679 0.00158721 0.0289401 0.00313588 0.0162621 0.00306868 0.0299112 0.00329533 0.0168424 0.00375784 0.0492476
110 3 O 7.03923 15.572 1.4948 -1.2 1 0.00214685 0.00353548 0.00146337 0.00410164 0.00198948 0.00824146 0.00213161 0.0217093 0.00212246 0.00815078 0.00166121 0.029002 0.00272928 0.0163794 0.00304198 0.0297624 0.00352185 0.0167351 0.00399648 0.0497582
111 3 O -0.248332 15.3041 0.196716 -1.2 1 0.00149397 0.00299808 0.00117924 0.0042159 0.00104011 0.00908684 0.00186476 0.0212765 0.00145962 0.00839516 0.00169509 0.0279265 0.00296456 0.0161084 0.00365775 0.0291996 0.00305493 0.0159375 0.00320709 0.0488919
112 3 O -0.289436 15.3041 2.79288 -1.2 1 0.00347597 0.00362169 0.00156689 0.00412772 0.00253552 0.00871541 0.00186965 0.0219072 0.00196206 0.00886926 0.00201551 0.027374 0.00297142 0.0165035 0.00348838 0.029859 0.004444 0.0175935 0.0048469 0.0507738
113 1 Mg 6.59566 18.996 0 1.2 1 0.000990648 0.00340456 0.00153014 0.00405775 0.000826293 0.00854079 0.0010575 0.0218879 0.00130143 0.00781899 0.00136571 0.0280148 0.00208607 0.0163428 0.00233231 0.0285984 0.00282059 0.0158825 0.00279025 0.0489779
114 1 Mg 3.85574 23.7037 1.4948 1.2 1 0.00189306 0.00278057 0.00131287 0.00403951 0.00160111 0.00733024 0.00126844 0.0232747 0.00167984 0.00753307 0.00217649 0.027085 0.00232606 0.0174909 0.0035866 0.0283967 0.00328751 0.0171798 0.00364641 0.0510143
115 2 Si 5.66125 21.0195 1.4948 2.4 1 0.00205131 0.00288869 0.00124486 0.00410627 0.00185489 0.00814583 0.00148176 0.022001 0.00141641 0.00742326 0.00154472 0.0278664 0.0024162 0.0173511 0.00262718 0.0279535 0.00359003 0.015845 0.00403328 0.0506031
116 3 O 5.72074 22.6328 1.4948 -1.2 1 0.00215204 0.00278148 0.0015772 0.00398433 0.00172609 0.00810585 0.00146192 0.0224283 0.00175834 0.00718932 0.00130415 0.0278065 0.00199432 0.0172472 0.00274477 0.0283038 0.0032103 0.0162556 0.00384472 0.0504731
117 3 O 2.03867 20.0455 1.4948 -1.2 1 0.00217071 0.00328088 0.00137799 0.00420261 0.00189209 0.00771578 0.00196162 0.0223338 0.00214907 0.00753857 0.0016398 0.0284119 0.00211736 0.0172674 0.00252809 0.0289208 0.00353869 0.0160534 0.00359381 0.0505177
118 3 O 4.96004 20.3134 0.196716 -1.2 1 0.00151937 0.00263743 0.00135908 0.00404087 0.00112993 0.00835635 0.00106793 0.0217255 0.000985208 0.00751901 0.00154615 0.0275695 0.00269404 0.0165866 0.00398608 0.0286046 0.003078 0.0152649 0.00293174 0.0497179
119 1 Mg 6.55057 18.996 2.9896 1.2 1 0.0025238 0.00370604 0.00156838 0.00402394 0.00252465 0.00813548 0.00252569 0.0214861 0.00261011 0.00813455 0.00193227 0.0288678 0.00288697 0.0168719 0.00307789 0.0290222 0.00395935 0.0170319 0.00488752 0.0508907