ITEM: TIMESTEP
9900
ITEM: NUMBER OF ATOMS
10500
ITEM: BOX BOUNDS xy xz yz pp pp pp
0	15.2974	5.099
0	118.725	0
0	89.688	0
ITEM: ATOMS id type element xu yu zu q Q_1 Q_2 Q_3 Q_4 Q_5 Q_6 Q_7 Q_8 Q_9 Q_10 Q_11 Q_12 Q_13 Q_14 Q_15 Q_16 Q_17 Q_18 Q_19 Q_20 Q_21
1 1 Mg 6.2404 -6.37941e-06 0 1.2 1 0.000649515 0.00437759 0.0014089 0.00488669 0.00127283 0.00570062 0.00225284 0.016047 0.00220638 0.00566453 0.0021998 0.0216168 0.0024422 0.0137177 0.00353121 0.020683 0.00409645 0.0140827 0.00395546 0.0404469
2 1 Mg 3.46349 4.70768 1.4948 1.2 1 0.00125723 0.00358094 0.00123723 0.00442339 0.00189654 0.00622024 0.00340694 0.0186728 0.00285525 0.00694689 0.00297076 0.0254021 0.0031227 0.0141153 0.00435631 0.0252855 0.00527891 0.0170853 0.00564217 0.0435865
3 2 Si 5.2885 2.02354 1.4948 2.4 1 0.000369158 0.00380178 0.00202314 0.00473237 0.00177126 0.00589211 0.00247623 0.017047 0.00241594 0.0059903 0.0021681 0.0229748 0.0027663 0.0137638 0.00368811 0.0216399 0.00394048 0.0153146 0.00431634 0.041122
4 3 O 5.33628 3.63678 1.4948 -1.2 1 0.000806506 0.00314163 0.00149677 0.00480081 0.00209147 0.00641961 0.00278513 0.0177846 0.00236635 0.00658988 0.00205049 0.0248897 0.00254382 0.013896 0.00426239 0.0241001 0.00500459 0.0163986 0.00568745 0.0426397
5 3 O 1.67294 1.04952 1.4948 -1.2 1 0.00114937 0.00372658 0.00183141 0.00431611 0.00117396 0.00580808 0.00245049 0.0169015 0.00242017 0.00586063 0.00211188 0.0224317 0.00264282 0.0130242 0.00331008 0.0219014 0.00458704 0.0154807 0.00476456 0.0401548
6 3 O 4.59532 1.31737 0.196716 -1.2 1 0.000778148 0.00348324 0.00201935 0.00442205 0.00183944 0.00582666 0.00235197 0.0171064 0.00264145 0.00607287 0.00209309 0.0221006 0.00326489 0.0131481 0.00425425 0.0216241 0.00415044 0.0148341 0.00452328 0.0406801
7 1 Mg 6.18956 -6.37941e-06 2.9896 1.2 1 0.000521785 0.00496228 0.00139647 0.0042282 0.00129956 0.00580005 0.00228151 0.0160268 0.00274445 0.00525661 0.00199975 0.0218533 0.00264483 0.0133461 0.00368808 0.0206926 0.00448654 0.0146575 0.00495938 0.0386136
8 3 O 4.55118 1.31737 2.79288 -1.2 1 0.000880607 0.00461863 0.00183974 0.00440355 0.00171662 0.00580108 0.00261487 0.0167947 0.00245743 0.0066415 0.00249299 0.0214448 0.00326079 0.0124237 0.00334136 0.0216116 0.00488168 0.0153967 0.00529917 0.0396663
9 1 Mg -1.20682 0.0413099 4.4844 1.2 1 0.000887614 0.00330747 0.00151325 0.00473333 0.0013564 0.0057246 0.00190594 0.0160948 0.0020569 0.00564819 0.00217187 0.0222717 0.00279402 0.0117593 0.00365143 0.0209925 0.00516087 0.0156133 0.00504634 0.0384159
10 2 Si -3.0337 2.72544 4.4844 2.4 1 0.00102564 0.00358623 0.0014197 0.00511206 0.00230488 0.00622882 0.00333456 0.0167537 0.00313457 0.00608559 0.00231112 0.023742 0.00302161 0.0130158 0.0041329 0.0225097 0.00520612 0.0175343 0.00599174 0.0394802
11 3 O -3.08099 1.11221 4.4844 -1.2 1 0.00116813 0.0040903 0.00165007 0.00442371 0.00128076 0.00551361 0.00229221 0.0160356 0.00278828 0.00534686 0.00231879 0.0219696 0.00316175 0.0113752 0.00365441 0.0214562 0.00500547 0.0162545 0.00536434 0.0381675
12 3 O 0.582463 3.69946 4.4844 -1.2 1 0.00171077 0.00461633 0.00200235 0.00454654 0.00243724 0.00680239 0.00336245 0.0172443 0.00330416 0.006856 0.00327837 0.0245451 0.00419004 0.0130773 0.00453454 0.0244135 0.00677819 0.0187473 0.00796558 0.0414669
13 3 O -2.29524 3.43162 3.18632 -1.2 1 0.00112357 0.00335953 0.00231103 0.00486516 0.00213601 0.0061483 0.00282011 0.0178656 0.00309446 0.00664446 0.00253924 0.0241809 0.00331028 0.0132258 0.00483076 0.0243398 0.00582524 0.017837 0.0064152 0.0418801
14 3 O -2.34216 3.43162 5.78248 -1.2 1 0.00165426 0.00375614 0.00108392 0.00490823 0.00258527 0.00618133 0.00322191 0.0171303 0.00281647 0.00730397 0.00266749 0.0231951 0.00438488 0.0125688 0.00427844 0.0234658 0.00613745 0.0188861 0.00753221 0.0400677
15 1 Mg 1.12778 2.37449 2.9896 1.2 1 0.00109661 0.00412907 0.00212444 0.00464651 0.00212686 0.00609251 0.002925 0.0168001 0.00264469 0.00611442 0.00250799 0.0232375 0.00319919 0.0131784 0.00336907 0.0220203 0.00489126 0.0164059 0.00547009 0.0405762
16 1 Mg 3.92855 2.33318 4.4844 1.2 1 0.00150553 0.00446625 0.00140888 0.00430234 0.00175557 0.00589737 0.00351886 0.0167254 0.003177 0.00607863 0.00301886 0.0227021 0.00364293 0.0134752 0.00506185 0.0219496 0.00634608 0.0170737 0.00687252 0.0397622
17 2 Si 2.09341 4.39804 4.4844 2.4 1 0.0017935 0.00432915 0.0018602 0.00439261 0.00294766 0.00610683 0.00362723 0.0182124 0.00350081 0.00687709 0.00342272 0.0245923 0.00449968 0.014189 0.00444387 0.0248202 0.00664312 0.0186044 0.00832779 0.0430721
18 3 O 2.09991 6.01128 4.4844 -1.2 1 0.00251347 0.00463213 0.00138915 0.0042238 0.00297434 0.00654757 0.00311867 0.0192169 0.00263574 0.00757787 0.00316633 0.0263624 0.00422622 0.014604 0.0048426 0.0275743 0.00681789 0.0195582 0.00794482 0.0452111
19 3 O -4.52137 3.42402 4.4844 -1.2 1 0.00164666 0.00387669 0.00182478 0.00486543 0.00229863 0.00699407 0.00355217 0.0169118 0.00325981 0.00630618 0.00301254 0.0234995 0.00375313 0.0129559 0.00405379 0.0228919 0.00609153 0.0177695 0.00728259 0.0406854
20 3 O 2.80834 3.69187 3.18632 -1.2 1 0.00152168 0.00398223 0.0014847 0.00380908 0.0020374 0.00583676 0.00291435 0.0173726 0.00300824 0.00640341 0.0029115 0.023969 0.00365892 0.013292 0.004729 0.0238741 0.00565454 0.0170398 0.006353 0.0422782
21 1 Mg 1.17857 2.37449 0 1.2 1 0.00205316 0.00393598 0.00177925 0.00410231 0.00130765 0.00553332 0.00249883 0.0172297 0.00239273 0.00660059 0.00292293 0.0229419 0.00292782 0.0135261 0.0035974 0.0217504 0.00433047 0.0147649 0.00463826 0.0408617
22 3 O 2.76143 3.69187 5.78248 -1.2 1 0.00187582 0.00427443 0.00181693 0.00429913 0.00218976 0.0055776 0.00279867 0.0172665 0.00332655 0.00746617 0.00296019 0.0232737 0.00451171 0.0132521 0.00557661 0.0234954 0.00651715 0.0186448 0.0073488 0.0409646
23 1 Mg -1.67381 2.41581 1.4948 1.2 1 0.000929295 0.00319741 0.0022411 0.00496957 0.00132001 0.00603802 0.00233084 0.0166228 0.00277417 0.00614471 0.00199974 0.0238391 0.00249605 0.0142389 0.00267635 0.0223227 0.00440424 0.016102 0.00480771 0.0415316
24 2 Si 0.16286 0.350945 1.4948 2.4 1 0.00111275 0.00319746 0.00242273 0.00469341 0.00115997 0.00653758 0.00279865 0.0164141 0.00209913 0.00505692 0.00190901 0.0224571 0.0024195 0.0137419 0.00304973 0.0207381 0.00456638 0.0146976 0.00423172 0.0401301
25 3 O 0.15972 -1.26229 1.4948 -1.2 1 0.000965063 0.00316169 0.00262493 0.004426 0.00172138 0.00611217 0.00260548 0.0164533 0.0022054 0.00529415 0.00243302 0.0223952 0.00242668 0.0139905 0.00293873 0.0217804 0.00425116 0.0145532 0.00389555 0.0407298
26 3 O 6.77654 1.32496 1.4948 -1.2 1 0.00065154 0.00407348 0.00139255 0.00467922 0.0012239 0.00611069 0.00231121 0.0167366 0.00251949 0.00532212 0.00175252 0.0233795 0.0025903 0.013815 0.00348745 0.0219013 0.00461025 0.0152494 0.00436922 0.0406601
27 3 O -0.508028 1.05712 0.196716 -1.2 1 0.00112448 0.00311157 0.00297352 0.00416178 0.00132464 0.00572345 0.00249215 0.0171531 0.0018311 0.00649993 0.00263275 0.0218403 0.00264454 0.0130845 0.00316361 0.0212579 0.00429256 0.0149949 0.00425704 0.0400547
28 3 O -0.552171 1.05712 2.79288 -1.2 1 0.000469795 0.0027821 0.0025564 0.00458239 0.00114799 0.00619792 0.00231274 0.0161833 0.00250452 0.00592256 0.00175405 0.022461 0.00282622 0.0118538 0.00374828 0.021545 0.00531195 0.0158345 0.00474833 0.0391356
29 1 Mg 6.31713 4.74899 0 1.2 1 0.000955524 0.00304194 0.00157905 0.00472934 0.00232853 0.00630294 0.003187 0.0180536 0.00281812 0.0070987 0.00225717 0.0250095 0.00298059 0.0140636 0.00399672 0.0246854 0.00476787 0.0163347 0.00593951 0.0429191
30 1 Mg 3.54847 9.45668 1.4948 1.2 1 0.00121609 0.00356649 0.00198979 0.00461309 0.00213257 0.00781358 0.0031058 0.0213264 0.00177534 0.00860732 0.00232781 0.0281603 0.00312692 0.0158427 0.00378919 0.0292877 0.00447783 0.0183168 0.00409518 0.0486699
31 2 Si 5.36879 6.77254 1.4948 2.4 1 0.000553336 0.0033089 0.00175029 0.00515274 0.0026827 0.00712231 0.00369355 0.0195389 0.00280482 0.00788404 0.0025424 0.0273881 0.00319594 0.0155659 0.00426143 0.0271826 0.00476535 0.0173195 0.00527814 0.0464684
32 3 O 5.41937 8.38578 1.4948 -1.2 1 0.000920299 0.00323988 0.00162944 0.00497271 0.00228182 0.00791626 0.00315465 0.0208696 0.00225231 0.00854693 0.00251856 0.0288021 0.00238081 0.0158743 0.00312055 0.0292144 0.00477897 0.0174841 0.00503907 0.0480171
33 3 O 1.75158 5.79852 1.4948 -1.2 1 0.00126777 0.00376165 0.00161383 0.00409144 0.00249971 0.00609791 0.00306988 0.0194347 0.00277062 0.00739524 0.002674 0.027629 0.00291753 0.0157575 0.00354021 0.0270042 0.00539806 0.0176917 0.00555189 0.0456383
34 3 O 4.67421 6.06637 0.196716 -1.2 1 0.000924321 0.00327103 0.00136489 0.00481454 0.00186256 0.00706397 0.00285385 0.0196302 0.00244118 0.0079878 0.00221316 0.0259882 0.00346777 0.0144705 0.0039858 0.0268893 0.0048309 0.0166709 0.00555875 0.0451233
35 1 Mg 6.26654 4.74899 2.9896 1.2 1 0.00165892 0.00347692 0.00189539 0.00513054 0.0025354 0.00660829 0.00367423 0.0179434 0.00375353 0.00706295 0.00218735 0.0257222 0.00367926 0.0146799 0.00499685 0.0250402 0.00576991 0.0178128 0.00694178 0.0434107
36 3 O 4.63043 6.06637 2.79288 -1.2 1 0.00213731 0.00355864 0.00161935 0.00492629 0.00227863 0.0069563 0.00341275 0.0195097 0.00331917 0.00804742 0.00244989 0.0258925 0.00403489 0.0149334 0.0048468 0.0272869 0.00587554 0.0184934 0.00686736 0.0451321
37 1 Mg -1.12976 4.79031 4.4844 1.2 1 0.00202372 0.00411802 0.00159304 0.00481827 0.00242345 0.00622599 0.00325189 0.0178177 0.003217 0.00723149 0.00324567 0.025332 0.00410134 0.0145954 0.00467318 0.0256814 0.00726254 0.0192293 0.00792565 0.0435766
38 2 Si -2.9517 7.47444 4.4844 2.4 1 0.00236158 0.00402824 0.00118984 0.00539253 0.00298994 0.00674975 0.00379361 0.0201316 0.00308423 0.00808516 0.00314545 0.0272394 0.00461853 0.016372 0.00548647 0.0282317 0.00681544 0.0194657 0.0084454 0.0472873
39 3 O -3.00198 5.86121 4.4844 -1.2 1 0.00230301 0.00421118 0.000955992 0.00511626 0.00313779 0.00666489 0.00409064 0.0187056 0.00337462 0.00778943 0.00268798 0.0255605 0.00423269 0.0144294 0.00476362 0.0269559 0.00684619 0.0196979 0.0083378 0.0450346
40 3 O 0.666315 8.44846 4.4844 -1.2 1 0.0028295 0.0048762 0.00126287 0.00500183 0.0028728 0.00753799 0.00301154 0.0212005 0.00283063 0.00851376 0.00347185 0.0279544 0.00471045 0.0162361 0.00456849 0.029484 0.00653203 0.0201501 0.00776714 0.0483683
41 3 O -2.21213 8.18062 3.18632 -1.2 1 0.00201855 0.00420669 0.00146939 0.00469424 0.0026525 0.00671498 0.00277564 0.0207793 0.00267296 0.00834773 0.00281327 0.0273938 0.00424707 0.0159591 0.00510079 0.0291334 0.00590838 0.0191674 0.00682573 0.0483936
42 3 O -2.25864 8.18062 5.78248 -1.2 1 0.00316898 0.00444707 0.00132217 0.0048607 0.00295054 0.00634524 0.00301859 0.0203229 0.0024325 0.00894984 0.00368189 0.0263892 0.00438684 0.0166893 0.00551611 0.0292977 0.00720145 0.0209174 0.00828993 0.0485624
43 1 Mg 1.20893 7.12349 2.9896 1.2 1 0.00172208 0.00419436 0.00172505 0.00440764 0.0028244 0.00690221 0.00352111 0.0195404 0.00274694 0.00825893 0.00286542 0.0276248 0.00354254 0.0159982 0.00389368 0.027615 0.00564338 0.018382 0.00649133 0.0466378
44 1 Mg 4.00982 7.08218 4.4844 1.2 1 0.00233604 0.00414051 0.00154023 0.0049518 0.00260359 0.00664719 0.00367556 0.0199312 0.00336941 0.00791536 0.00318296 0.0270621 0.00436556 0.0167467 0.00574275 0.0282139 0.00737749 0.0194599 0.00815674 0.0467582
45 2 Si 2.17861 9.14704 4.4844 2.4 1 0.00281418 0.00433209 0.00153875 0.00494323 0.0029149 0.0075805 0.00362866 0.0210913 0.00275626 0.00853883 0.0031159 0.0278428 0.00467846 0.016686 0.00456469 0.0297662 0.0060866 0.0198207 0.00721714 0.0501239
46 3 O 2.18828 10.7603 4.4844 -1.2 1 0.00345393 0.00450805 0.00199311 0.00479908 0.00270886 0.00728619 0.00316534 0.0206997 0.00251942 0.00843115 0.00239108 0.0284919 0.00421755 0.0158871 0.0044161 0.0307817 0.00621395 0.0198498 0.00684383 0.0509075
47 3 O -4.43805 8.17302 4.4844 -1.2 1 0.00206948 0.00448483 0.00156992 0.00535246 0.00263295 0.00786146 0.00324963 0.020684 0.00320215 0.00857466 0.00318848 0.0279973 0.00449975 0.0163134 0.00488787 0.0294931 0.00686875 0.0198987 0.0088668 0.0481342
48 3 O 2.89193 8.44087 3.18632 -1.2 1 0.00229096 0.00404117 0.00166384 0.00450009 0.0025287 0.00703017 0.00320922 0.0204896 0.00271786 0.00864813 0.0029508 0.0273806 0.00397112 0.0161791 0.00478832 0.0291969 0.00601518 0.0188148 0.00613638 0.0483507
49 1 Mg 1.25915 7.12349 0 1.2 1 0.00121189 0.00326605 0.0013161 0.00410953 0.00183899 0.0072931 0.00277267 0.0201875 0.00271759 0.00828125 0.00245858 0.0272149 0.00337546 0.0146982 0.00344556 0.0277299 0.00469591 0.0174549 0.00455254 0.0461931
50 3 O 2.84547 8.44087 5.78248 -1.2 1 0.00299998 0.0047826 0.00139862 0.00494817 0.00256832 0.00683474 0.00331216 0.0209059 0.00278871 0.00923549 0.00341392 0.0265477 0.00538376 0.0164992 0.00514145 0.0298938 0.00632595 0.021443 0.00784368 0.0492053
51 1 Mg -1.59284 7.16481 1.4948 1.2 1 0.000969498 0.00364596 0.00136437 0.00470033 0.0018191 0.00643178 0.00259905 0.0198583 0.00274673 0.00792517 0.0018016 0.0274714 0.00344813 0.0157951 0.00373927 0.0272825 0.00474195 0.0177101 0.00577483 0.0465893
52 2 Si 0.240329 5.09994 1.4948 2.4 1 0.0010905 0.00406788 0.00174502 0.00417378 0.00188436 0.00679928 0.00289983 0.0188664 0.00302654 0.00734163 0.00231255 0.02578 0.00286726 0.0148424 0.00396249 0.0249553 0.00516731 0.0170442 0.00538799 0.0446665
53 3 O 0.234538 3.48671 1.4948 -1.2 1 0.00137776 0.00416475 0.00227364 0.00453746 0.00173702 0.00651592 0.00251589 0.0178919 0.0033206 0.00682975 0.0025051 0.0242434 0.00325547 0.0139062 0.00376418 0.024111 0.00546573 0.0161073 0.00538946 0.0423293
54 3 O 6.85564 6.07396 1.4948 -1.2 1 0.00103387 0.00304536 0.00200415 0.00499365 0.00243387 0.00629469 0.0030414 0.0198671 0.00298162 0.00760556 0.00214729 0.0274431 0.00333459 0.0149965 0.00474585 0.0269941 0.00560423 0.0177965 0.00634967 0.0453308
55 3 O -0.429565 5.80612 0.196716 -1.2 1 0.00102395 0.00364464 0.00201677 0.00419818 0.00182357 0.00708481 0.00243765 0.0194409 0.00282235 0.00845325 0.00252143 0.0254372 0.00271373 0.0144662 0.00372671 0.0261092 0.00508677 0.016845 0.00586228 0.0451356
56 3 O -0.473377 5.80612 2.79288 -1.2 1 0.00205802 0.00396357 0.00174284 0.0046403 0.00232558 0.00681804 0.00294099 0.0192027 0.0029682 0.00810205 0.00297737 0.0255534 0.00373016 0.0148306 0.00460685 0.0264758 0.00622191 0.0186445 0.00675959 0.0456309
57 1 Mg 6.40169 9.49799 0 1.2 1 0.00050227 0.00392639 0.00162869 0.0046825 0.00164588 0.00839186 0.00204209 0.0210385 0.0016227 0.00893897 0.00173119 0.0285465 0.00258665 0.0150458 0.00270835 0.0299998 0.00376452 0.0178693 0.00406462 0.0476621
58 1 Mg 3.64209 14.2057 1.4948 1.2 1 0.00230405 0.00333444 0.00152152 0.00438337 0.00177137 0.00882329 0.00170709 0.0216411 0.00169908 0.00883565 0.00213419 0.028116 0.00257206 0.0161699 0.00299736 0.029685 0.00365997 0.0168429 0.00346361 0.0497672
59 2 Si 5.45748 11.5215 1.4948 2.4 1 0.00183371 0.00327728 0.00167849 0.00448034 0.00186698 0.00835331 0.00216337 0.021133 0.00149299 0.00841717 0.00183701 0.0286482 0.002754 0.0164127 0.00348145 0.0292638 0.00418558 0.0169021 0.00394796 0.0494409
60 3 O 5.51101 13.1348 1.4948 -1.2 1 0.00205603 0.00343819 0.00165696 0.00460223 0.00174589 0.00917867 0.00185117 0.0211597 0.00181149 0.00866248 0.00162824 0.0292149 0.00234331 0.0162333 0.00297376 0.029966 0.00391979 0.0165233 0.0036653 0.0494257
61 3 O 1.83851 10.5475 1.4948 -1.2 1 0.00116576 0.00379171 0.0017343 0.00475811 0.00195334 0.00777053 0.00234362 0.0216847 0.00174243 0.00847167 0.002214 0.0291909 0.00257995 0.0159982 0.00340902 0.0298743 0.00440355 0.0178289 0.0037226 0.0493728
62 3 O 4.7611 10.8154 0.196716 -1.2 1 0.00063755 0.00306344 0.00189172 0.00455898 0.00160724 0.0086699 0.00233739 0.0213189 0.00140201 0.00872565 0.00188577 0.0280626 0.00309936 0.0157998 0.0040413 0.029517 0.00386107 0.0171466 0.00361097 0.0486841
63 1 Mg 6.35203 9.49799 2.9896 1.2 1 0.00156892 0.00391575 0.00146198 0.00495108 0.0027581 0.00766724 0.00326084 0.0203791 0.00294694 0.00885617 0.00226771 0.0289481 0.00379117 0.0162969 0.00356637 0.0294385 0.00464941 0.0187752 0.00568736 0.0486949
64 3 O 4.71833 10.8154 2.79288 -1.2 1 0.00247807 0.00367222 0.00165481 0.00448 0.00221553 0.00824748 0.00238856 0.0215277 0.00188886 0.0091933 0.00212096 0.028122 0.00355113 0.0160103 0.00418022 0.0302972 0.00540548 0.0184712 0.00572831 0.0500398
65 1 Mg -1.0438 9.53931 4.4844 1.2 1 0.00313878 0.00490519 0.00155524 0.00471744 0.00294429 0.0067815 0.00259228 0.0207705 0.00265985 0.00858761 0.00288016 0.0282164 0.00414554 0.0170278 0.00442136 0.0302352 0.00660871 0.0201396 0.00728908 0.0499756
66 2 Si -2.8604 12.2234 4.4844 2.4 1 0.0035414 0.00445784 0.00175932 0.00476259 0.00278367 0.0078448 0.00319297 0.0216709 0.00281804 0.0085764 0.00248549 0.0281913 0.00430022 0.0167414 0.00447513 0.0303221 0.00592287 0.0195123 0.00692917 0.0518907
67 3 O -2.91391 10.6102 4.4844 -1.2 1 0.00330335 0.00457154 0.00174236 0.00470369 0.00290587 0.00726531 0.00327988 0.0205308 0.00262144 0.00808359 0.00225429 0.0283416 0.004292 0.0160428 0.00446122 0.0308843 0.00602514 0.01995 0.00701564 0.0505468
68 3 O 0.7596 13.1975 4.4844 -1.2 1 0.00405607 0.0044185 0.00193525 0.00508084 0.00284917 0.00867338 0.00282092 0.0220287 0.00278698 0.00855836 0.00287056 0.0285917 0.0041717 0.0163507 0.00409407 0.0304522 0.00623275 0.0195057 0.00693273 0.0517069
69 3 O -2.12001 12.9296 3.18632 -1.2 1 0.00365277 0.00399698 0.00163813 0.00443405 0.00250108 0.00764211 0.00225244 0.0217375 0.00238645 0.00844657 0.00238323 0.0277406 0.0036288 0.0161934 0.00448903 0.0306031 0.00545117 0.0185953 0.00575458 0.0513318
70 3 O -2.16532 12.9296 5.78248 -1.2 1 0.00432012 0.00454294 0.00155674 0.00494619 0.00273748 0.00723352 0.00250653 0.0219877 0.00263961 0.00861029 0.00304434 0.0274253 0.00406422 0.017148 0.00510521 0.0314572 0.00659006 0.0212309 0.00717948 0.0534238
71 1 Mg 1.29891 11.8725 2.9896 1.2 1 0.00276274 0.00392976 0.00186862 0.00482869 0.00247154 0.00817651 0.00280782 0.0210547 0.00252426 0.00866287 0.00214282 0.0288995 0.00348516 0.0163131 0.00341621 0.0301217 0.00477247 0.0179522 0.00521143 0.0500199
72 1 Mg 4.10033 11.8312 4.4844 1.2 1 0.00339262 0.00429562 0.00188815 0.00453511 0.00253127 0.00753994 0.00287103 0.0212494 0.00247581 0.00834469 0.00283766 0.0285969 0.00369495 0.0174344 0.00514841 0.0305461 0.00665564 0.0194163 0.00666702 0.0514945
73 2 Si 2.27333 13.896 4.4844 2.4 1 0.00377764 0.0039051 0.00176033 0.00513421 0.00304315 0.00814232 0.00336031 0.0218293 0.00245026 0.00842793 0.00288833 0.0280515 0.00384089 0.0169166 0.00422903 0.0302878 0.00561584 0.0189624 0.00647803 0.0529362
74 3 O 2.28634 15.5093 4.4844 -1.2 1 0.00419078 0.0042991 0.00159187 0.00461366 0.00300128 0.00742749 0.0029473 0.0210333 0.00266224 0.00773187 0.00218679 0.0284472 0.00321781 0.0161198 0.00390647 0.0311557 0.00589984 0.0187355 0.00675341 0.0526261
75 3 O -4.34533 12.922 4.4844 -1.2 1 0.00342671 0.00450208 0.00200791 0.00486603 0.00270753 0.00867482 0.00325446 0.0217691 0.00277835 0.00848311 0.0025688 0.0286172 0.00405279 0.0163093 0.00472236 0.0306824 0.00647356 0.0200125 0.00746742 0.0519751
76 3 O 2.98455 13.1899 3.18632 -1.2 1 0.00345292 0.00382021 0.00173518 0.00433552 0.00258925 0.00804167 0.00236305 0.0217172 0.00209346 0.00869237 0.00232894 0.0278812 0.00350959 0.0162429 0.00429258 0.0301939 0.00564672 0.0182955 0.00576138 0.0509562
77 1 Mg 1.34779 11.8725 0 1.2 1 0.00113322 0.00304495 0.00139195 0.00471142 0.00132748 0.00903924 0.00161357 0.0212175 0.00114403 0.00908159 0.00196396 0.0287756 0.00285063 0.0150221 0.00308239 0.0300611 0.00326976 0.0171438 0.00315196 0.0485711
78 3 O 2.93934 13.1899 5.78248 -1.2 1 0.00387551 0.00466001 0.0018355 0.00504451 0.00266015 0.00724331 0.00290482 0.0220515 0.0024466 0.0086313 0.00318126 0.027326 0.00421367 0.0168604 0.00469521 0.0314118 0.00615261 0.0214189 0.00686961 0.0534194
79 1 Mg -1.50344 11.9138 1.4948 1.2 1 0.00160076 0.00382693 0.00151078 0.00451239 0.00152244 0.00839974 0.00187198 0.0216459 0.00227268 0.00852776 0.00155701 0.0284984 0.0036353 0.0161676 0.00332816 0.0298077 0.00358654 0.0174968 0.00388632 0.0492724
80 2 Si 0.326006 9.84894 1.4948 2.4 1 0.000431431 0.00374936 0.00142437 0.00490201 0.00202461 0.00820643 0.0019797 0.0210519 0.00196552 0.00844837 0.00170172 0.0284452 0.00299414 0.0158215 0.00370466 0.0290606 0.00404061 0.0177863 0.00360104 0.0486806
81 3 O 0.317364 8.23571 1.4948 -1.2 1 0.00106249 0.00392385 0.00118812 0.00450184 0.00195778 0.00772844 0.00207737 0.0202573 0.00249672 0.00810751 0.00178337 0.0284532 0.00349862 0.0159708 0.00383608 0.0287211 0.00456753 0.017813 0.00447707 0.0476293
82 3 O 6.94307 10.823 1.4948 -1.2 1 0.00139897 0.00383212 0.00150017 0.00451001 0.00199541 0.00786816 0.00259088 0.0217913 0.00216079 0.00845501 0.00158052 0.0292835 0.00303781 0.0159839 0.00338643 0.0299961 0.00396266 0.0179936 0.00434425 0.0492769
83 3 O -0.343122 10.5551 0.196716 -1.2 1 0.00036568 0.003369 0.00140386 0.00473212 0.00154344 0.00871448 0.00195182 0.0212599 0.00161082 0.00890158 0.0020316 0.0279643 0.00324816 0.0155171 0.00410426 0.0295311 0.0036843 0.0174086 0.00354857 0.0486296
84 3 O -0.385966 10.5551 2.79288 -1.2 1 0.00284222 0.00417258 0.0013931 0.00452219 0.00252265 0.00811582 0.0020889 0.0215511 0.00201209 0.00926779 0.00244424 0.0274919 0.00390538 0.0161716 0.00412069 0.0300494 0.00534551 0.0187845 0.0053168 0.0499991
85 1 Mg 6.49448 14.247 0 1.2 1 0.00131711 0.00335952 0.00158668 0.00460888 0.00117427 0.00937341 0.0013955 0.0212269 0.00112601 0.00847498 0.00149804 0.0286661 0.00174892 0.0156897 0.00255127 0.0299468 0.00318376 0.0164003 0.00280722 0.0484372
86 1 Mg 3.74457 18.9547 1.4948 1.2 1 0.00248096 0.00309552 0.00137491 0.00391395 0.00182704 0.00864183 0.0013741 0.0222205 0.001896 0.00788293 0.00229062 0.0274704 0.00253712 0.0168025 0.00353465 0.028945 0.00369766 0.0163178 0.00351996 0.0503836
87 2 Si 5.55495 16.2705 1.4948 2.4 1 0.00268136 0.00305183 0.00131637 0.00442763 0.00198036 0.00895837 0.00142001 0.0214688 0.00133532 0.00788843 0.00124347 0.0284084 0.00240692 0.0164303 0.00291741 0.0288962 0.00373486 0.0157931 0.00379295 0.0499804
88 3 O 5.6115 17.8838 1.4948 -1.2 1 0.00266652 0.00309989 0.00153671 0.00415844 0.00184656 0.00919639 0.00157192 0.0216393 0.00187954 0.00776425 0.00149361 0.0284186 0.00210282 0.0166102 0.00280706 0.0290972 0.00340014 0.0156686 0.00363204 0.0499822
89 3 O 1.93416 15.2965 1.4948 -1.2 1 0.00257106 0.00327724 0.00147988 0.00439401 0.00195092 0.00843415 0.00205196 0.0218502 0.00186546 0.00808307 0.0013875 0.0289627 0.00203947 0.0164195 0.00296587 0.0298179 0.00372963 0.016419 0.00355216 0.0501974
90 3 O 4.85636 15.5644 0.196716 -1.2 1 0.00182254 0.00259157 0.00128528 0.00449141 0.00129237 0.00917812 0.00143383 0.0213055 0.00105815 0.0081369 0.00147574 0.027946 0.00263419 0.0163339 0.00348832 0.0293307 0.00320296 0.0155729 0.00298567 0.0494079
91 1 Mg 6.44662 14.247 2.9896 1.2 1 0.00248672 0.00380312 0.00149857 0.00451128 0.00255714 0.00856904 0.00282996 0.020852 0.00252989 0.00864288 0.00167108 0.0290997 0.00301172 0.0163592 0.00304066 0.0297582 0.00429807 0.0174419 0.00492743 0.0503544
92 3 O 4.81537 15.5644 2.79288 -1.2 1 0.00345191 0.00343426 0.00142439 0.004295 0.00240834 0.00884439 0.0017454 0.0219842 0.00160678 0.00854155 0.00170203 0.0279448 0.00278411 0.0164521 0.00367075 0.0298594 0.00480174 0.0172807 0.00522158 0.051035
93 1 Mg -0.948271 14.2883 4.4844 1.2 1 0.00427743 0.00412414 0.00163146 0.00459131 0.00276895 0.00795971 0.00265499 0.0216369 0.00279569 0.00840686 0.00286355 0.0282398 0.00333754 0.0168597 0.00509737 0.0307473 0.00625599 0.0192041 0.00677671 0.0523358
94 2 Si -2.75928 16.9724 4.4844 2.4 1 0.00405754 0.00371392 0.00158313 0.00457928 0.00291965 0.00811908 0.00284741 0.0222233 0.00266645 0.00778572 0.0025949 0.0276668 0.00335812 0.0170323 0.00446111 0.0299569 0.0052856 0.0185724 0.00632036 0.0534546
95 3 O -2.81617 15.3592 4.4844 -1.2 1 0.00431936 0.00416991 0.00173624 0.00455876 0.00307398 0.00778887 0.00304766 0.0211764 0.00257767 0.00768295 0.00228617 0.028561 0.00372862 0.0162112 0.00424205 0.0307595 0.00591521 0.0187636 0.00681197 0.0525061
96 3 O 0.862762 17.9465 4.4844 -1.2 1 0.003738 0.00388193 0.00140321 0.00457281 0.00311533 0.00844739 0.00253165 0.0224833 0.00240953 0.00784467 0.0025096 0.0284502 0.00362251 0.0170826 0.00411624 0.0298746 0.00568354 0.0186523 0.00629514 0.0531506
97 3 O -2.0185 17.6786 3.18632 -1.2 1 0.00362974 0.0034819 0.00160744 0.00389619 0.00271838 0.00776846 0.00228429 0.0223456 0.00224451 0.00774295 0.00216358 0.0273536 0.00341233 0.0165209 0.00448672 0.0301696 0.00480411 0.0176755 0.00543199 0.0520224
98 3 O -2.06164 17.6786 5.78248 -1.2 1 0.00424914 0.00411759 0.00131303 0.0045768 0.00299943 0.00709894 0.00250827 0.0223485 0.00241353 0.00769453 0.0027101 0.0274284 0.00337955 0.0171071 0.00465399 0.0316266 0.00586203 0.0205093 0.00646802 0.0552513
99 1 Mg 1.39817 16.6215 2.9896 1.2 1 0.00342356 0.00340284 0.00150058 0.00437921 0.00271763 0.00840506 0.00272872 0.0212774 0.00257253 0.00810004 0.00214882 0.0288229 0.00290773 0.0168597 0.00350374 0.0297131 0.0042414 0.0166658 0.00455776 0.0507118
100 1 Mg 4.20062 16.5802 4.4844 1.2 1 0.0039858 0.00363985 0.001645 0.00451421 0.002768 0.00784781 0.00255538 0.021799 0.00299082 0.00782591 0.00282468 0.0282703 0.00344904 0.0174644 0.00559043 0.0303247 0.00628137 0.0185553 0.00626601 0.0528172
101 2 Si 2.37796 18.645 4.4844 2.4 1 0.00348975 0.00324528 0.00125907 0.00454561 0.00308449 0.0080416 0.00280876 0.0224618 0.00259861 0.007903 0.00261237 0.0276939 0.00339768 0.0174207 0.00449179 0.0299873 0.00533996 0.0181611 0.00604047 0.0540842
102 3 O 2.39434 20.2583 4.4844 -1.2 1 0.00328993 0.00380784 0.00124009 0.0041666 0.00295225 0.00701966 0.00245174 0.0216315 0.00246047 0.00731004 0.00200777 0.0284403 0.00341629 0.01692 0.00407158 0.0305658 0.00568788 0.0182896 0.0066509 0.0534028
103 3 O -4.24274 17.671 4.4844 -1.2 1 0.00345431 0.00391102 0.00163273 0.00445973 0.00297721 0.00863922 0.00282265 0.022481 0.00284168 0.0077744 0.00263086 0.0284109 0.00344189 0.016726 0.00473043 0.0303324 0.00588879 0.0189019 0.00684295 0.0531141
104 3 O 3.08659 17.9389 3.18632 -1.2 1 0.00353943 0.00323699 0.00128201 0.00399962 0.00278201 0.00795563 0.00207238 0.02219 0.00227665 0.00792053 0.00224759 0.0275555 0.00318193 0.0165768 0.00431534 0.029914 0.0053136 0.0175286 0.00573839 0.0519519
105 1 Mg 1.44478 16.6215 0 1.2 1 0.00237161 0.00290834 0.00125038 0.00427759 0.00138501 0.00897612 0.00116999 0.0214653 0.00124313 0.00808907 0.0014913 0.02845 0.00225347 0.0158752 0.00228166 0.0292768 0.0029025 0.0159954 0.00295308 0.0490072
106 3 O 3.0436 17.9389 5.78248 -1.2 1 0.0037971 0.00416613 0.00142044 0.00489858 0.00286161 0.00722184 0.00262326 0.0221689 0.00221778 0.00792375 0.00262241 0.0274449 0.00364863 0.0168426 0.00455317 0.0315317 0.00604231 0.0206587 0.00661866 0.0551835
107 1 Mg -1.40524 16.6628 1.4948 1.2 1 0.0022834 0.00325477 0.00130443 0.00431061 0.00177899 0.00872083 0.00186042 0.0221123 0.00169534 0.00813448 0.00166501 0.0280003 0.00305667 0.0166787 0.00273507 0.0295028 0.00293786 0.0165582 0.00330732 0.0499301
108 2 Si 0.420358 14.5979 1.4948 2.4 1 0.00215335 0.00314996 0.00154055 0.00476129 0.00202701 0.00920226 0.00187193 0.021269 0.00145517 0.00806808 0.00139732 0.0283842 0.00283978 0.0164573 0.00345 0.0289569 0.00352037 0.01634 0.00359468 0.0496622
109 3 O 0.408732 12.9847 1.4948 -1.2 1 0.00190158 0.0032827 0.00147229 0.00475466 0.0018938 0.00918462 0.00151484 0.0210868 0.00195243 0.00835177 0.00147836 0.0289749 0.00306232 0.016063 0.00298983 0.0298908 0.00333332 0.0168375 0.003836 0.0495018
110 3 O 7.03923 15.572 1.4948 -1.2 1 0.00234193 0.00342551 0.00148059 0.00442497 0.0021033 0.00844686 0.00227182 0.0216707 0.0020208 0.00800878 0.00140859 0.0290931 0.00254262 0.0164733 0.00288609 0.0297362 0.00347093 0.016547 0.00389612 0.0500752
111 3 O -0.248332 15.3041 0.196716 -1.2 1 0.00191893 0.00287267 0.00140397 0.00447723 0.00119909 0.00910167 0.00183338 0.0212009 0.00125604 0.00814565 0.00159202 0.0278945 0.00278379 0.0160785 0.00358538 0.029272 0.00299255 0.0159339 0.00304995 0.0491134
112 3 O -0.289436 15.3041 2.79288 -1.2 1 0.00366302 0.00359695 0.0012778 0.00430567 0.00257049 0.00871744 0.00203526 0.0218877 0.00182382 0.00867275 0.00201012 0.0273822 0.0028963 0.0166167 0.00353676 0.0298334 0.00457009 0.0175715 0.00492836 0.0509479
113 1 Mg 6.59566 18.996 0 1.2 1 0.00149906 0.00302289 0.00159168 0.00407352 0.00117271 0.00873535 0.00123146 0.0217672 0.00111332 0.00762997 0.00133302 0.0279226 0.00194946 0.0165533 0.00225773 0.0287844 0.00281655 0.0158229 0.00283763 0.0491248
114 1 Mg 3.85574 23.7037 1.4948 1.2 1 0.00209799 0.00266109 0.00117904 0.00401161 0.00155412 0.00752255 0.00124804 0.0230922 0.00190544 0.00749685 0.00222418 0.0269488 0.00244992 0.0176488 0.00370657 0.0286241 0.00356777 0.0170079 0.00383885 0.0510836
115 2 Si 5.66125 21.0195 1.4948 2.4 1 0.00243078 0.00264442 0.00111747 0.00398009 0.00202742 0.00819076 0.00143741 0.0219447 0.00131392 0.00742724 0.00142895 0.0278249 0.00242878 0.017452 0.0028304 0.0283237 0.00367048 0.015642 0.00415141 0.0506171
116 3 O 5.72074 22.6328 1.4948 -1.2 1 0.00220673 0.00273188 0.00148622 0.0039288 0.00175147 0.00815578 0.00155539 0.0222804 0.00193768 0.0073006 0.00125414 0.0277257 0.0021175 0.0173652 0.00289609 0.0286133 0.00339114 0.0161316 0.00388156 0.0505159
117 3 O 2.03867 20.0455 1.4948 -1.2 1 0.00230898 0.0032448 0.00133416 0.00417502 0.00187863 0.00785236 0.00211885 0.022231 0.00226498 0.00738793 0.00152567 0.0282703 0.00211082 0.0174288 0.00256333 0.0291167 0.00359962 0.0159302 0.00374264 0.0507658
118 3 O 4.96004 20.3134 0.196716 -1.2 1 0.00210257 0.00248671 0.00163657 0.00398359 0.00131893 0.00838998 0.00105678 0.0216653 0.00110389 0.00738739 0.00156838 0.0274379 0.00261074 0.0167857 0.00382737 0.0288017 0.00305724 0.0151863 0.00291708 0.0498232
119 1 Mg 6.55057 18.996 2.9896 1.2 1 0.00251472 0.00342545 0.00126882 0.0040857 0.00264708 0.00819365 0.00287714 0.021404 0.0024307 0.00791641 0.00178327 0.0288599 0.00294436 0.0171205 0.00312297 0.0290727 0.00402367 0.0168747 0.00488356 0.0511481