ITEM: TIMESTEP
3200
ITEM: NUMBER OF ATOMS
10500
ITEM: BOX BOUNDS xy xz yz pp pp pp
0	15.2974	5.099
0	118.725	0
0	89.688	0
ITEM: ATOMS id type element xu yu zu q Q_1 Q_2 Q_3 Q_4 Q_5 Q_6 Q_7 Q_8 Q_9 Q_10 Q_11 Q_12 Q_13 Q_14 Q_15 Q_16 Q_17 Q_18 Q_19 Q_20 Q_21
1 1 Mg 6.2404 -6.37941e-06 0 1.2 1 0.00132138 0.00396631 0.00126424 0.00474709 0.00125177 0.00549025 0.00197271 0.0161246 0.00196704 0.00574862 0.00211624 0.0218866 0.00252105 0.0133223 0.00369473 0.0207596 0.0040599 0.0141782 0.00403122 0.0404219
2 1 Mg 3.46349 4.70768 1.4948 1.2 1 0.00138404 0.00304072 0.00181623 0.00458025 0.00202576 0.00598753 0.00346566 0.0185728 0.00296447 0.00692969 0.00287799 0.0256683 0.00307506 0.0138798 0.00430476 0.0252769 0.00542775 0.0170939 0.00584716 0.0437483
3 2 Si 5.2885 2.02354 1.4948 2.4 1 0.000675141 0.0030063 0.00202467 0.00454192 0.0017706 0.00561269 0.00230512 0.0169157 0.00248226 0.00618028 0.00204381 0.0230086 0.00265182 0.0133515 0.00350995 0.021528 0.00384481 0.0153538 0.00433739 0.0407419
4 3 O 5.33628 3.63678 1.4948 -1.2 1 0.000832155 0.00252191 0.00178488 0.00485857 0.00210521 0.00616644 0.00276708 0.0177013 0.0024416 0.0067201 0.00189525 0.0251599 0.00243284 0.0135059 0.00413452 0.0241244 0.00506981 0.0164039 0.0058917 0.042523
5 3 O 1.67294 1.04952 1.4948 -1.2 1 0.00158339 0.00315833 0.00218109 0.00413357 0.00124746 0.00553626 0.00233896 0.0168042 0.00250069 0.00599549 0.00203688 0.0227911 0.00276874 0.0127795 0.00364627 0.0222113 0.0044323 0.0155554 0.004783 0.0402025
6 3 O 4.59532 1.31737 0.196716 -1.2 1 0.00107572 0.00272408 0.00191294 0.00428186 0.00188529 0.00552801 0.00223323 0.017091 0.00275126 0.00629735 0.00189702 0.022389 0.00335241 0.0126466 0.00433484 0.0216135 0.00419276 0.0148945 0.00461805 0.0407287
7 1 Mg 6.18956 -6.37941e-06 2.9896 1.2 1 0.00113634 0.00390057 0.00150023 0.00433224 0.0012969 0.00558676 0.00229958 0.0158615 0.00274111 0.00547497 0.00179161 0.0222805 0.00285355 0.013082 0.00351292 0.0209661 0.00427402 0.0146797 0.00496444 0.0386543
8 3 O 4.55118 1.31737 2.79288 -1.2 1 0.00127252 0.00405304 0.001845 0.00441598 0.00158305 0.00542943 0.00249397 0.0165504 0.00251556 0.0067326 0.00242174 0.0214857 0.00348883 0.011971 0.00348632 0.0217865 0.00450471 0.0154998 0.0051556 0.039256
9 1 Mg -1.20682 0.0413099 4.4844 1.2 1 0.000284297 0.0023967 0.00182903 0.00463012 0.00148281 0.00536469 0.0018967 0.0156303 0.00235056 0.00582032 0.00196906 0.0225404 0.00297944 0.0115482 0.0034437 0.0210982 0.00475797 0.0154208 0.0052104 0.0381511
10 2 Si -3.0337 2.72544 4.4844 2.4 1 0.000600319 0.00308296 0.00164894 0.00490859 0.00194259 0.0060119 0.00312079 0.016218 0.00329558 0.00605077 0.00219357 0.0237099 0.00316946 0.0125325 0.00402514 0.0225907 0.00494081 0.017079 0.00622406 0.0388583
11 3 O -3.08099 1.11221 4.4844 -1.2 1 0.000229626 0.00308664 0.00174879 0.00445631 0.00124594 0.00527529 0.00225056 0.0154932 0.00295443 0.00547514 0.00219094 0.0220732 0.00309044 0.0111714 0.00365193 0.0216452 0.00459462 0.015753 0.0056462 0.0374904
12 3 O 0.582463 3.69946 4.4844 -1.2 1 0.00146392 0.00430133 0.00208847 0.00431193 0.00252626 0.006521 0.00352393 0.0169762 0.00347983 0.00633638 0.00317374 0.024502 0.00392185 0.0127748 0.00436358 0.0244793 0.00659366 0.0186664 0.00824755 0.0412305
13 3 O -2.29524 3.43162 3.18632 -1.2 1 0.00106551 0.00259023 0.00253381 0.00461521 0.0022629 0.00580995 0.00288636 0.0176823 0.00340623 0.00649766 0.00277247 0.0243448 0.00312971 0.0128698 0.00459273 0.0244069 0.00580376 0.0179572 0.00668439 0.0414962
14 3 O -2.34216 3.43162 5.78248 -1.2 1 0.00142796 0.00362673 0.00117693 0.00496801 0.00236128 0.00582014 0.00310072 0.0164421 0.0029365 0.00694531 0.00268746 0.0230866 0.00392609 0.0120164 0.00404506 0.0235091 0.00608387 0.0189872 0.00753075 0.0394821
15 1 Mg 1.12778 2.37449 2.9896 1.2 1 0.00147604 0.003421 0.00226299 0.00439402 0.00216006 0.00574342 0.00288779 0.0165412 0.00286913 0.00617712 0.00234774 0.0233973 0.00331232 0.0128754 0.00348701 0.0221412 0.00465299 0.0163705 0.00555345 0.0405479
16 1 Mg 3.92855 2.33318 4.4844 1.2 1 0.00134946 0.00406126 0.00157089 0.00458186 0.00163767 0.00565445 0.00350528 0.0162425 0.00324613 0.0060755 0.00299967 0.0226369 0.00350098 0.0128375 0.00515682 0.0221239 0.00599916 0.0167893 0.0068995 0.0393096
17 2 Si 2.09341 4.39804 4.4844 2.4 1 0.00135433 0.00385144 0.0020597 0.00449818 0.00287864 0.00593443 0.00373244 0.0179866 0.00358097 0.00660351 0.00325048 0.0246582 0.00420428 0.0138706 0.00443078 0.0248403 0.00646699 0.0185907 0.0085144 0.0429675
18 3 O 2.09991 6.01128 4.4844 -1.2 1 0.002375 0.00395333 0.00166283 0.00442477 0.00289778 0.00650972 0.00326842 0.0190038 0.00281896 0.00716393 0.00305357 0.0264537 0.00395812 0.0143041 0.00480137 0.0273453 0.00661608 0.0195634 0.00816527 0.0447183
19 3 O -4.52137 3.42402 4.4844 -1.2 1 0.0012337 0.00326439 0.00205966 0.00502672 0.00218523 0.00693881 0.0035667 0.0165109 0.00329376 0.00628981 0.00311986 0.023401 0.00376903 0.0124211 0.00421595 0.0228914 0.00598808 0.0174376 0.00755611 0.0401901
20 3 O 2.80834 3.69187 3.18632 -1.2 1 0.00136466 0.00342066 0.00175528 0.004008 0.00208586 0.00561415 0.00303 0.0173115 0.00312176 0.00642148 0.00283986 0.0239385 0.00356922 0.0130057 0.00454625 0.0240019 0.00552673 0.0170585 0.00647146 0.0421092
21 1 Mg 1.17857 2.37449 0 1.2 1 0.00173581 0.00328767 0.00218615 0.00403973 0.00140786 0.00548753 0.00240426 0.0172894 0.00231228 0.00662284 0.00259827 0.0230785 0.00287587 0.0130369 0.00350052 0.0218075 0.00455815 0.0149291 0.0049218 0.0406968
22 3 O 2.76143 3.69187 5.78248 -1.2 1 0.00182038 0.00415076 0.00169571 0.00457289 0.00193834 0.00533607 0.00294094 0.0168482 0.00333361 0.00713978 0.00296934 0.0229264 0.00473151 0.0125545 0.00565824 0.0236338 0.00635172 0.0185005 0.00772011 0.0401832
23 1 Mg -1.67381 2.41581 1.4948 1.2 1 0.00095673 0.00217837 0.00259076 0.00476668 0.00153997 0.00584437 0.00229071 0.0166283 0.00278502 0.00624319 0.00178067 0.0241531 0.0023197 0.0139131 0.00298196 0.022458 0.00451875 0.0160409 0.00496631 0.0415507
24 2 Si 0.16286 0.350945 1.4948 2.4 1 0.00170302 0.00246427 0.00290485 0.0045304 0.00134517 0.00623786 0.0025729 0.0162315 0.00220572 0.00513138 0.00177148 0.0228321 0.00241783 0.0133595 0.00313396 0.0210424 0.00443577 0.0146317 0.00434028 0.0402023
25 3 O 0.15972 -1.26229 1.4948 -1.2 1 0.00172372 0.00259996 0.00317118 0.00440078 0.00192049 0.00589015 0.00236171 0.0161496 0.00231682 0.00538868 0.00235751 0.022542 0.00275601 0.0137391 0.00297943 0.0220211 0.00393153 0.0145642 0.00389461 0.0405919
26 3 O 6.77654 1.32496 1.4948 -1.2 1 0.00116429 0.00324937 0.00168823 0.0046214 0.00133599 0.0058519 0.00209226 0.0166524 0.00250644 0.00544163 0.00168638 0.0236725 0.00263738 0.0133427 0.00350454 0.0220653 0.00466836 0.0153093 0.00446984 0.040613
27 3 O -0.508028 1.05712 0.196716 -1.2 1 0.00119329 0.00256155 0.00354036 0.0041439 0.00139091 0.0055424 0.00224843 0.0170478 0.00176588 0.00652811 0.00239658 0.0220404 0.00266565 0.0127258 0.00329099 0.0213698 0.00421705 0.0150915 0.00450373 0.0399898
28 3 O -0.552171 1.05712 2.79288 -1.2 1 0.000856091 0.00203066 0.00299327 0.00437127 0.00144341 0.00571959 0.00213325 0.0160259 0.00249213 0.00611154 0.00167575 0.0225766 0.00286414 0.0116198 0.00366515 0.0219305 0.00491627 0.0157156 0.00498617 0.0392668
29 1 Mg 6.31713 4.74899 0 1.2 1 0.000844351 0.00233508 0.00199937 0.00467601 0.00245211 0.00605029 0.0031197 0.0181251 0.00279119 0.00715617 0.0020743 0.0252265 0.00273994 0.0135078 0.00399722 0.0245997 0.00463239 0.0163935 0.00615284 0.0428375
30 1 Mg 3.54847 9.45668 1.4948 1.2 1 0.00156482 0.00293911 0.00166108 0.00443336 0.00221089 0.00759244 0.00311879 0.0213281 0.00176344 0.0083801 0.00211726 0.028248 0.00285365 0.0155358 0.00357269 0.0290416 0.0045122 0.0181464 0.00417836 0.0485784
31 2 Si 5.36879 6.77254 1.4948 2.4 1 0.000908479 0.00256463 0.00202639 0.00491354 0.00279009 0.00684203 0.00360258 0.0196217 0.00278179 0.00783659 0.00251217 0.0275062 0.00300871 0.0152616 0.00388108 0.0268763 0.0047439 0.0174431 0.00548561 0.0463104
32 3 O 5.41937 8.38578 1.4948 -1.2 1 0.00126492 0.00281447 0.00142181 0.00493391 0.00229379 0.00775111 0.00304587 0.0208724 0.0022568 0.00836118 0.00227942 0.0288721 0.0021713 0.0154419 0.00290887 0.0290764 0.00487714 0.0173908 0.00514591 0.0478296
33 3 O 1.75158 5.79852 1.4948 -1.2 1 0.00123687 0.00315111 0.00155579 0.00427051 0.00254311 0.00590547 0.00321461 0.0194235 0.00285229 0.00730578 0.00259105 0.0277698 0.00279929 0.0153624 0.00323448 0.0269008 0.00542728 0.0175566 0.00574349 0.0455052
34 3 O 4.67421 6.06637 0.196716 -1.2 1 0.000816958 0.00237981 0.00177714 0.00468966 0.00214963 0.00683618 0.00284532 0.0197603 0.00255196 0.00816209 0.00208211 0.0262052 0.00335619 0.0141419 0.00394784 0.026622 0.00471527 0.0166899 0.0056954 0.0449429
35 1 Mg 6.26654 4.74899 2.9896 1.2 1 0.00147245 0.00271243 0.00226773 0.004977 0.00273154 0.00637026 0.00368719 0.0177855 0.00388521 0.00697181 0.00224163 0.0258387 0.003544 0.0143067 0.00495734 0.0251494 0.0057851 0.0177122 0.00719217 0.0431685
36 3 O 4.63043 6.06637 2.79288 -1.2 1 0.00206254 0.00306876 0.00195024 0.00490103 0.00246462 0.00664223 0.00352413 0.0193842 0.00343869 0.00779562 0.00244615 0.0259025 0.00397219 0.0146045 0.00460634 0.0272674 0.00591337 0.0182124 0.00717598 0.0449536
37 1 Mg -1.12976 4.79031 4.4844 1.2 1 0.00184631 0.00369696 0.00153107 0.00481521 0.00237785 0.00599305 0.00325336 0.0173788 0.00337753 0.00692203 0.00319823 0.0252249 0.00389389 0.0140796 0.004448 0.0253662 0.00720328 0.0191984 0.00800144 0.0428386
38 2 Si -2.9517 7.47444 4.4844 2.4 1 0.00254562 0.00400651 0.00142191 0.00512998 0.0030025 0.00676892 0.00373793 0.020099 0.00320634 0.00768181 0.00309737 0.0270183 0.00419141 0.0157106 0.00562554 0.0276465 0.00689059 0.0194688 0.00830168 0.0468244
39 3 O -3.00198 5.86121 4.4844 -1.2 1 0.00212155 0.0040485 0.00131486 0.00521668 0.00306353 0.00635062 0.00401154 0.018537 0.00351723 0.00737609 0.00281946 0.025605 0.00417759 0.0138195 0.00481828 0.0270196 0.00682818 0.019638 0.00836113 0.0447115
40 3 O 0.666315 8.44846 4.4844 -1.2 1 0.0029385 0.00454233 0.00127465 0.00500275 0.00298649 0.00746601 0.00299053 0.0211343 0.00293657 0.0078658 0.00336061 0.0279287 0.00436494 0.0158316 0.00452402 0.0288926 0.00633715 0.0200013 0.00817824 0.0478334
41 3 O -2.21213 8.18062 3.18632 -1.2 1 0.00241023 0.00395677 0.00148541 0.0044434 0.0028243 0.00658798 0.00292253 0.0206716 0.00282563 0.00799157 0.00281938 0.0273512 0.00395274 0.0157364 0.00511002 0.0287624 0.00593044 0.0190045 0.00684901 0.0481569
42 3 O -2.25864 8.18062 5.78248 -1.2 1 0.00346588 0.00459242 0.00167886 0.00511254 0.0029958 0.00596557 0.0029877 0.0203863 0.00238702 0.00830667 0.00344219 0.0263322 0.00422808 0.0163638 0.00542854 0.0289323 0.00697538 0.0207007 0.00827899 0.0481398
43 1 Mg 1.20893 7.12349 2.9896 1.2 1 0.00165867 0.00363594 0.00159711 0.00463315 0.00288301 0.00671402 0.00370608 0.0194572 0.00285753 0.00791799 0.00282018 0.0276931 0.00354672 0.0156117 0.00372089 0.0274451 0.0056076 0.0183442 0.00684882 0.0463629
44 1 Mg 4.00982 7.08218 4.4844 1.2 1 0.0024266 0.00397693 0.0015509 0.00505772 0.00271391 0.00646189 0.00392128 0.0200885 0.00343614 0.00753244 0.00329177 0.0269364 0.00421434 0.0165842 0.00561568 0.0281404 0.0070714 0.0193527 0.00855973 0.0465857
45 2 Si 2.17861 9.14704 4.4844 2.4 1 0.002976 0.003922 0.00174039 0.0049664 0.00304517 0.0073477 0.00395085 0.0213858 0.0026924 0.00810548 0.0032171 0.0274719 0.00452084 0.0167015 0.00462145 0.0290508 0.00591854 0.0198719 0.00709463 0.0495229
46 3 O 2.18828 10.7603 4.4844 -1.2 1 0.00350132 0.00404976 0.00200864 0.00450488 0.0026738 0.00706652 0.00313504 0.0210045 0.00247085 0.00803759 0.00254521 0.0280757 0.00415726 0.0157788 0.00466688 0.0300176 0.00602428 0.0201094 0.00678517 0.0501819
47 3 O -4.43805 8.17302 4.4844 -1.2 1 0.00232132 0.00441138 0.00178503 0.00508977 0.00264083 0.00784328 0.00333852 0.0204578 0.00334742 0.00801626 0.00328999 0.0279097 0.00452534 0.0157486 0.00523768 0.0291186 0.00671566 0.0198179 0.00897171 0.0475321
48 3 O 2.89193 8.44087 3.18632 -1.2 1 0.00241093 0.00353296 0.00156912 0.00453014 0.00259518 0.00673196 0.00333124 0.0205217 0.00275119 0.00836757 0.0028977 0.0272744 0.0038161 0.0158888 0.00458967 0.0288617 0.00591096 0.0187743 0.00631528 0.048232
49 1 Mg 1.25915 7.12349 0 1.2 1 0.000632065 0.00260016 0.00136692 0.00422415 0.00191471 0.00704159 0.00282138 0.0200713 0.00283269 0.00817894 0.0023463 0.027529 0.00311906 0.0141867 0.00314926 0.0276758 0.00465342 0.0174197 0.00469367 0.0462674
50 3 O 2.84547 8.44087 5.78248 -1.2 1 0.00312754 0.0043789 0.00165666 0.00482437 0.00250034 0.00652095 0.00324027 0.0208404 0.00281582 0.00853038 0.00331626 0.0263107 0.0050098 0.0162907 0.00522262 0.0291535 0.00628343 0.0215519 0.00757644 0.0483433
51 1 Mg -1.59284 7.16481 1.4948 1.2 1 0.00110295 0.0029099 0.0011156 0.00458166 0.00202678 0.00624587 0.00267197 0.0197932 0.0030284 0.00783306 0.00185592 0.0276555 0.00328774 0.0153578 0.00356499 0.0272543 0.00462417 0.0175894 0.00589223 0.0464922
52 2 Si 0.240329 5.09994 1.4948 2.4 1 0.000999144 0.00328321 0.00182602 0.00420679 0.00199781 0.00661198 0.00302647 0.018804 0.00315491 0.0072816 0.00219732 0.025906 0.00267714 0.0144184 0.00389361 0.0248884 0.00504125 0.0169029 0.00555312 0.0445367
53 3 O 0.234538 3.48671 1.4948 -1.2 1 0.00142702 0.00344247 0.00255755 0.00433541 0.00183877 0.00620565 0.00259631 0.0176976 0.00337169 0.00683391 0.00240015 0.0244833 0.00307128 0.013391 0.00395459 0.0241384 0.00552017 0.0160755 0.00563543 0.0421837
54 3 O 6.85564 6.07396 1.4948 -1.2 1 0.00104903 0.00223949 0.00219803 0.00474549 0.00267754 0.00602563 0.0029898 0.0197854 0.00312447 0.00754316 0.00217151 0.0276206 0.00310141 0.0145783 0.0045268 0.0269553 0.00561369 0.0178026 0.00656623 0.0452254
55 3 O -0.429565 5.80612 0.196716 -1.2 1 0.00081972 0.00294504 0.00192908 0.00417049 0.00185347 0.00693642 0.00239805 0.0194786 0.00289572 0.00847567 0.00229025 0.0256902 0.00243809 0.013982 0.00374368 0.0260772 0.00501007 0.0168313 0.00578826 0.0450746
56 3 O -0.473377 5.80612 2.79288 -1.2 1 0.00190848 0.00333547 0.0016798 0.004573 0.00250415 0.0066558 0.0030795 0.0190892 0.00312405 0.00776632 0.00307474 0.0256079 0.00361174 0.0144865 0.00434151 0.0263805 0.00625619 0.0186695 0.00702556 0.045304
57 1 Mg 6.40169 9.49799 0 1.2 1 0.000461203 0.00320899 0.0014152 0.00473527 0.00154136 0.00839861 0.00199757 0.0210574 0.00165493 0.00887397 0.00158797 0.0288174 0.00228217 0.014811 0.00257526 0.0297621 0.00380413 0.0177763 0.00415182 0.0476394
58 1 Mg 3.64209 14.2057 1.4948 1.2 1 0.00228427 0.00274399 0.0012354 0.0043222 0.0015632 0.00882813 0.00171422 0.0217019 0.00149332 0.00861201 0.00214514 0.0280834 0.00244325 0.0161482 0.00298695 0.0293491 0.00361221 0.0167682 0.00344127 0.0493885
59 2 Si 5.45748 11.5215 1.4948 2.4 1 0.00198481 0.00277021 0.0015122 0.00449333 0.00177364 0.00827988 0.00198514 0.0211405 0.00154942 0.00831475 0.00172919 0.0286405 0.00263486 0.0160436 0.00354843 0.0291959 0.00428884 0.0167778 0.00390752 0.0491523
60 3 O 5.51101 13.1348 1.4948 -1.2 1 0.00214972 0.00293705 0.00148151 0.00443685 0.00150807 0.00920329 0.00160094 0.0211937 0.00168732 0.00852235 0.00176287 0.0290691 0.00234789 0.0161304 0.00317222 0.0297804 0.00394891 0.0165646 0.00366142 0.0490475
61 3 O 1.83851 10.5475 1.4948 -1.2 1 0.00147897 0.00325201 0.00147788 0.00465045 0.00201046 0.00769982 0.00224043 0.0216471 0.00179274 0.00836824 0.0021073 0.0291718 0.00237186 0.0157321 0.00334238 0.0297014 0.00441318 0.0178234 0.00382419 0.0491498
62 3 O 4.7611 10.8154 0.196716 -1.2 1 0.000877906 0.00237009 0.00153988 0.00448989 0.00170687 0.0085816 0.00209422 0.0212439 0.00153803 0.00871431 0.00170585 0.0282191 0.00261073 0.0155874 0.00344296 0.0295006 0.00391567 0.0170238 0.00370972 0.0486604
63 1 Mg 6.35203 9.49799 2.9896 1.2 1 0.00198851 0.00370486 0.00141294 0.00472141 0.00273305 0.00776904 0.00340237 0.0204554 0.00322036 0.00857532 0.00215674 0.0288137 0.00350835 0.016001 0.0035446 0.0288233 0.00448993 0.0185035 0.00565902 0.0483078
64 3 O 4.71833 10.8154 2.79288 -1.2 1 0.00287679 0.00321147 0.00153655 0.00444098 0.00228864 0.00821241 0.00232126 0.0214673 0.00205633 0.00882392 0.00215157 0.0279719 0.00334676 0.0159751 0.00415436 0.029784 0.00538775 0.0182517 0.00559145 0.0496824
65 1 Mg -1.0438 9.53931 4.4844 1.2 1 0.00332836 0.00456416 0.00135676 0.00446495 0.00309033 0.0065606 0.00255724 0.0208122 0.00283534 0.00815839 0.00289116 0.0277329 0.00387881 0.0167036 0.0045016 0.0296289 0.00634287 0.0200383 0.00741187 0.0491118
66 2 Si -2.8604 12.2234 4.4844 2.4 1 0.00378949 0.00395598 0.00179436 0.00455131 0.00266944 0.00789308 0.00318165 0.0218789 0.00283208 0.00829704 0.00231699 0.0275273 0.00397239 0.0167094 0.0045749 0.0294373 0.00571762 0.0195837 0.00652115 0.0511998
67 3 O -2.91391 10.6102 4.4844 -1.2 1 0.00371781 0.00428916 0.00178181 0.00449359 0.00288413 0.007206 0.00324122 0.0205002 0.00267068 0.00774346 0.00226166 0.0281534 0.0039277 0.0158452 0.0045071 0.0302673 0.00582733 0.0197348 0.0068468 0.0499521
68 3 O 0.7596 13.1975 4.4844 -1.2 1 0.00378411 0.00361655 0.00178716 0.00479018 0.00292705 0.00852252 0.00257664 0.0225352 0.00261739 0.00820692 0.00291422 0.0281958 0.00416486 0.0165222 0.00435504 0.0297568 0.00584898 0.0195877 0.00639829 0.0510174
69 3 O -2.12001 12.9296 3.18632 -1.2 1 0.00366185 0.00358586 0.0015966 0.00418092 0.0025072 0.0077462 0.0023203 0.0218698 0.0026318 0.00822825 0.00237173 0.027428 0.00371597 0.0161443 0.00488038 0.030065 0.00529513 0.0184418 0.00530675 0.0505552
70 3 O -2.16532 12.9296 5.78248 -1.2 1 0.00454063 0.00404962 0.00180052 0.00462272 0.00260419 0.00686798 0.0026431 0.0219386 0.00243697 0.00790348 0.00270579 0.0269307 0.00388184 0.0167893 0.0048887 0.0306841 0.00617832 0.0212084 0.00670433 0.0522369
71 1 Mg 1.29891 11.8725 2.9896 1.2 1 0.00286069 0.00335754 0.00165301 0.00469541 0.00255414 0.00800575 0.00278431 0.0211832 0.00249845 0.00842916 0.00222302 0.0289758 0.00342853 0.0163288 0.00392624 0.0296353 0.00497095 0.0178293 0.00511551 0.049557
72 1 Mg 4.10033 11.8312 4.4844 1.2 1 0.00339178 0.0036543 0.00204267 0.00443291 0.00258138 0.00741604 0.00282062 0.0216859 0.00275938 0.00820376 0.00287852 0.0281399 0.00389146 0.0171813 0.00556506 0.0299462 0.00654832 0.019517 0.00623199 0.0507021
73 2 Si 2.27333 13.896 4.4844 2.4 1 0.00382687 0.00311111 0.00164505 0.00481463 0.00302119 0.00791713 0.00315924 0.0221222 0.00243674 0.00799298 0.00284089 0.0279971 0.00384686 0.016791 0.00460354 0.0297069 0.00560383 0.0187112 0.00600788 0.0520344
74 3 O 2.28634 15.5093 4.4844 -1.2 1 0.00429665 0.00332449 0.00166787 0.00446649 0.00296619 0.00727955 0.00293962 0.0213391 0.00246956 0.00729015 0.00223116 0.0284117 0.00349481 0.0161541 0.00423657 0.0303202 0.00561739 0.0182294 0.00587652 0.0516364
75 3 O -4.34533 12.922 4.4844 -1.2 1 0.00342103 0.00405999 0.00197406 0.00466294 0.00275761 0.00838719 0.0030215 0.0218634 0.00283928 0.00821275 0.00251354 0.0282526 0.00401581 0.0162648 0.00480903 0.0300498 0.00639426 0.0198319 0.00710021 0.0508018
76 3 O 2.98455 13.1899 3.18632 -1.2 1 0.00330101 0.00312068 0.0014475 0.00428114 0.00263213 0.00779156 0.00219529 0.022013 0.00225829 0.00841757 0.00246601 0.0276774 0.00339463 0.0160537 0.00467585 0.0297477 0.00571032 0.0182742 0.00548129 0.050445
77 1 Mg 1.34779 11.8725 0 1.2 1 0.00122401 0.00250236 0.00117138 0.00453708 0.00122435 0.00888125 0.00156466 0.0211695 0.00134563 0.00912119 0.00182971 0.0289292 0.00258234 0.0150034 0.00281945 0.0299493 0.00319559 0.0170855 0.0034359 0.048434
78 3 O 2.93934 13.1899 5.78248 -1.2 1 0.00385822 0.00393505 0.00177662 0.00466181 0.00272309 0.00695771 0.00277696 0.0219205 0.00233646 0.00794271 0.00302987 0.0270902 0.00411932 0.0167234 0.00472845 0.0305236 0.00606797 0.0211961 0.00671594 0.0519507
79 1 Mg -1.50344 11.9138 1.4948 1.2 1 0.00150988 0.00326623 0.00124412 0.00430754 0.00150679 0.00828264 0.00167977 0.0216418 0.00248125 0.00839453 0.0015355 0.0285565 0.00344716 0.0160374 0.00328257 0.0296757 0.00366994 0.0173036 0.00386871 0.0491522
80 2 Si 0.326006 9.84894 1.4948 2.4 1 0.00086082 0.00307394 0.00119207 0.00474075 0.00209715 0.00810781 0.00196306 0.0210255 0.00213172 0.00839104 0.00151317 0.0285557 0.00277924 0.0156742 0.00349446 0.0288885 0.00401051 0.0175773 0.0037041 0.0486851
81 3 O 0.317364 8.23571 1.4948 -1.2 1 0.00133364 0.00328801 0.00104709 0.00452832 0.00210182 0.0076689 0.00202903 0.0201999 0.00261693 0.00787873 0.00185354 0.0285424 0.00317814 0.0157007 0.00361382 0.0286006 0.00441504 0.0176601 0.00461149 0.0475767
82 3 O 6.94307 10.823 1.4948 -1.2 1 0.00153056 0.0034067 0.00125244 0.00450759 0.00193066 0.00781342 0.00240098 0.0218009 0.00247105 0.00828637 0.00141096 0.0291995 0.00289746 0.015733 0.00343328 0.0297965 0.00394597 0.0178261 0.00431149 0.0491377
83 3 O -0.343122 10.5551 0.196716 -1.2 1 0.000923161 0.00284018 0.00103238 0.0045898 0.00146871 0.00848238 0.00175591 0.0212175 0.00186339 0.00875491 0.00186545 0.0281461 0.00319204 0.0154435 0.00403865 0.0293157 0.00363987 0.0172187 0.00354087 0.0486937
84 3 O -0.385966 10.5551 2.79288 -1.2 1 0.00299231 0.00372633 0.001095 0.00445342 0.00265842 0.00804633 0.00212518 0.0214844 0.00212525 0.0087728 0.00250825 0.0275059 0.00365984 0.0158057 0.0042031 0.0297667 0.00523616 0.0185338 0.00546874 0.0493816
85 1 Mg 6.49448 14.247 0 1.2 1 0.00112335 0.00272689 0.00134887 0.00458849 0.00112095 0.00932032 0.00110761 0.0212489 0.00137675 0.00853938 0.00141016 0.0286375 0.0016717 0.0155996 0.00239384 0.0299093 0.00316766 0.0162533 0.00288022 0.0483349
86 1 Mg 3.74457 18.9547 1.4948 1.2 1 0.00246283 0.0029513 0.00120816 0.00390523 0.00184592 0.00829507 0.00163679 0.0222423 0.00176231 0.00773673 0.00225231 0.0273827 0.00236064 0.0165241 0.00327258 0.0288112 0.00358785 0.0160557 0.0031939 0.0499566
87 2 Si 5.55495 16.2705 1.4948 2.4 1 0.00246786 0.00260521 0.00111715 0.00426638 0.00170277 0.00885184 0.00152681 0.0214954 0.00136144 0.00782125 0.00125686 0.0283464 0.0022202 0.0164296 0.00302735 0.02879 0.00373936 0.0155788 0.00369805 0.0496396
88 3 O 5.6115 17.8838 1.4948 -1.2 1 0.00256418 0.00276205 0.00146232 0.0041918 0.00175451 0.00904935 0.00169772 0.0217121 0.00178314 0.00760258 0.00163119 0.0284769 0.00217294 0.0165181 0.00293799 0.0289028 0.00347912 0.0154515 0.00349254 0.0496583
89 3 O 1.93416 15.2965 1.4948 -1.2 1 0.00226418 0.00266771 0.00115601 0.0044933 0.00164599 0.00843287 0.00194581 0.0219672 0.0018439 0.00794823 0.00150782 0.0289088 0.00204012 0.0163377 0.00292891 0.0296732 0.00377295 0.0162804 0.00331829 0.0498772
90 3 O 4.85636 15.5644 0.196716 -1.2 1 0.00167299 0.00215726 0.00105776 0.00440801 0.00108869 0.00916183 0.00135508 0.0214285 0.000960288 0.00812616 0.00165371 0.027967 0.00248041 0.0162315 0.00341441 0.0292611 0.00335887 0.0156165 0.00304003 0.0490907
91 1 Mg 6.44662 14.247 2.9896 1.2 1 0.00225694 0.00323387 0.00129263 0.00429231 0.00245715 0.00850192 0.00286637 0.0209127 0.00267134 0.00844734 0.00188362 0.0289611 0.0030091 0.0163674 0.00333582 0.0294399 0.00409118 0.0173632 0.00456091 0.049841
92 3 O 4.81537 15.5644 2.79288 -1.2 1 0.00308771 0.00289722 0.00134854 0.00421302 0.00225078 0.00873431 0.00177023 0.0219846 0.00156995 0.00837284 0.00166737 0.0277929 0.00279978 0.0164122 0.00370393 0.0295271 0.00470054 0.0169576 0.00470395 0.0504356
93 1 Mg -0.948271 14.2883 4.4844 1.2 1 0.00411178 0.00338727 0.00147561 0.00430732 0.00299992 0.00752908 0.00263577 0.0216737 0.0026761 0.00802316 0.00283126 0.0281734 0.00364193 0.0170547 0.00504167 0.030072 0.00578365 0.0186532 0.0060526 0.051279
94 2 Si -2.75928 16.9724 4.4844 2.4 1 0.00381438 0.00317364 0.00154856 0.00420866 0.00279901 0.00770307 0.00301156 0.0221155 0.00264521 0.00747305 0.00247309 0.0277076 0.00372522 0.0168312 0.00462923 0.0294256 0.00491508 0.0178648 0.0054203 0.0522329
95 3 O -2.81617 15.3592 4.4844 -1.2 1 0.00399034 0.00338851 0.00171373 0.0043048 0.00294201 0.0074292 0.00293222 0.0213317 0.00258557 0.00738714 0.00217382 0.0281941 0.00366069 0.016132 0.00424615 0.0301623 0.00580689 0.0182844 0.00639175 0.0516062
96 3 O 0.862762 17.9465 4.4844 -1.2 1 0.00420902 0.00329964 0.00151336 0.00434967 0.00300764 0.0082715 0.00248546 0.0225818 0.00244035 0.00750008 0.00255895 0.0281926 0.00364173 0.0169991 0.00424911 0.0292534 0.00546421 0.0179699 0.00567659 0.0520584
97 3 O -2.0185 17.6786 3.18632 -1.2 1 0.00365278 0.00306607 0.00157977 0.00376934 0.00263353 0.00742603 0.00242617 0.022367 0.00238871 0.00751319 0.0022728 0.0273692 0.00368876 0.0163781 0.00474309 0.0297366 0.0046983 0.0171178 0.00482701 0.0514397
98 3 O -2.06164 17.6786 5.78248 -1.2 1 0.00439033 0.00326807 0.00142762 0.00413532 0.00278671 0.00669867 0.00240004 0.0224657 0.002345 0.00731825 0.00256481 0.0272582 0.00343148 0.0172375 0.00458551 0.030674 0.00579269 0.0194572 0.00632439 0.0535756
99 1 Mg 1.39817 16.6215 2.9896 1.2 1 0.00322713 0.00281204 0.00143257 0.00428757 0.00234574 0.00828957 0.00255484 0.0214505 0.00248602 0.00778764 0.00207319 0.0285144 0.00265056 0.0166937 0.00347438 0.0294825 0.00424856 0.0162121 0.00421801 0.0504004
100 1 Mg 4.20062 16.5802 4.4844 1.2 1 0.00384208 0.00287254 0.00187383 0.00410858 0.00254325 0.00758635 0.00244353 0.0218685 0.00304445 0.00750558 0.00278212 0.0281509 0.00372621 0.0174086 0.00579102 0.0298266 0.00623877 0.0181647 0.00577491 0.051607
101 2 Si 2.37796 18.645 4.4844 2.4 1 0.00388728 0.00277502 0.00156881 0.00428445 0.00281878 0.00785599 0.00278499 0.0225617 0.00255343 0.00752136 0.00244105 0.0274029 0.00341483 0.0174139 0.00457761 0.029377 0.00523642 0.0172781 0.00551095 0.0529349
102 3 O 2.39434 20.2583 4.4844 -1.2 1 0.00408831 0.00322114 0.00154333 0.00394315 0.00284492 0.00681224 0.00271326 0.0215384 0.00259011 0.00703195 0.00191816 0.028197 0.00325836 0.0168234 0.0040823 0.0299837 0.00547222 0.0172079 0.00609344 0.0523717
103 3 O -4.24274 17.671 4.4844 -1.2 1 0.00365546 0.00331906 0.00189702 0.0041966 0.0027095 0.00829263 0.00284727 0.0224698 0.00285752 0.00764788 0.00249444 0.0282977 0.00362266 0.0168214 0.00486333 0.0297091 0.00554923 0.0182561 0.00595887 0.0519155
104 3 O 3.08659 17.9389 3.18632 -1.2 1 0.00373139 0.00264484 0.00148718 0.0038391 0.00254563 0.00776153 0.00214677 0.0222641 0.00224312 0.00770553 0.00210461 0.0273081 0.00325939 0.0165436 0.00452377 0.0294538 0.00526013 0.0168199 0.00515027 0.0511258
105 1 Mg 1.44478 16.6215 0 1.2 1 0.00207914 0.00248963 0.00101578 0.00428302 0.000992848 0.00902833 0.00105265 0.0214687 0.00141432 0.00800725 0.00149446 0.0282003 0.00209723 0.0157706 0.00223087 0.0291885 0.00296155 0.0158402 0.00302869 0.04894
106 3 O 3.0436 17.9389 5.78248 -1.2 1 0.0041146 0.00324731 0.001853 0.00436261 0.002789 0.00674129 0.00247967 0.0222298 0.00221329 0.0072763 0.00287484 0.0272464 0.00377058 0.0168578 0.00502359 0.0307566 0.00582307 0.0196852 0.00606066 0.0536537
107 1 Mg -1.40524 16.6628 1.4948 1.2 1 0.00179169 0.00281814 0.00107234 0.00423019 0.00176134 0.00866955 0.00185663 0.0222394 0.0019465 0.00791783 0.00186921 0.027821 0.00319535 0.016779 0.00314934 0.0291434 0.00302406 0.0162907 0.00309647 0.0497358
108 2 Si 0.420358 14.5979 1.4948 2.4 1 0.00204337 0.00244922 0.00115938 0.00468708 0.00176688 0.00916631 0.00171959 0.0214305 0.00177954 0.00815267 0.00145701 0.0283355 0.00286089 0.0164191 0.00353229 0.0288531 0.00349382 0.0161698 0.003372 0.0494634
109 3 O 0.408732 12.9847 1.4948 -1.2 1 0.0019739 0.00272858 0.00102821 0.00461024 0.00180664 0.00908765 0.00137147 0.0212207 0.00234735 0.00840379 0.00143932 0.0289971 0.00292319 0.0160719 0.0031406 0.0296568 0.00335838 0.0167316 0.00382449 0.0492576
110 3 O 7.03923 15.572 1.4948 -1.2 1 0.00204951 0.00286717 0.00103836 0.00423327 0.00190132 0.00834661 0.00235194 0.0217118 0.00238867 0.00793274 0.00161993 0.0290259 0.00257142 0.0165262 0.00307149 0.0296 0.00347759 0.0164369 0.00385792 0.0497281
111 3 O -0.248332 15.3041 0.196716 -1.2 1 0.00174552 0.00249777 0.00107989 0.00441727 0.000984635 0.00910248 0.00164643 0.0212622 0.0012873 0.00813289 0.00162508 0.027746 0.00277806 0.0159994 0.00373645 0.0291923 0.00305846 0.015828 0.00309847 0.0490303
112 3 O -0.289436 15.3041 2.79288 -1.2 1 0.00336652 0.00306304 0.00109353 0.00426179 0.00268142 0.00858918 0.00182565 0.0220794 0.00175341 0.00841608 0.00206027 0.0272658 0.00326396 0.01654 0.00370099 0.0294688 0.00435113 0.0173611 0.00428736 0.0505814
113 1 Mg 6.59566 18.996 0 1.2 1 0.00114823 0.00291703 0.00129497 0.00403332 0.000838422 0.00855144 0.00101688 0.0219989 0.00110575 0.00760784 0.00134504 0.0279118 0.00191371 0.0163627 0.00219765 0.0288052 0.00303066 0.0156527 0.00289462 0.0489134
114 1 Mg 3.85574 23.7037 1.4948 1.2 1 0.00277997 0.00273626 0.000730412 0.00397262 0.00155953 0.00736769 0.00135257 0.0230008 0.00150239 0.00717922 0.00211622 0.0268807 0.00245101 0.0173237 0.00371198 0.0285744 0.00341096 0.0168067 0.00351955 0.0506141
115 2 Si 5.66125 21.0195 1.4948 2.4 1 0.00267582 0.00257495 0.000938853 0.004072 0.00180202 0.00805346 0.00167274 0.021917 0.00126385 0.00716986 0.00129219 0.0277565 0.00243017 0.0171633 0.00286226 0.0280784 0.0034451 0.0153643 0.00416833 0.0502967
116 3 O 5.72074 22.6328 1.4948 -1.2 1 0.00296156 0.00275178 0.00125699 0.00390997 0.00158901 0.00807734 0.0015352 0.022306 0.00165016 0.00700421 0.00129574 0.0276048 0.00226317 0.017015 0.00320263 0.0284642 0.00336584 0.0159449 0.00380322 0.0501876
117 3 O 2.03867 20.0455 1.4948 -1.2 1 0.0023484 0.00302305 0.00148688 0.00425016 0.00173989 0.00767422 0.00220568 0.0223262 0.00225524 0.00711312 0.00147621 0.0281727 0.00216325 0.0172067 0.0025242 0.0290055 0.00336079 0.0156248 0.0035945 0.0504624
118 3 O 4.96004 20.3134 0.196716 -1.2 1 0.00186216 0.00245725 0.00117865 0.00403009 0.00107434 0.00822634 0.00111218 0.0217746 0.000959133 0.00717208 0.0015024 0.0274002 0.00250865 0.0165599 0.0035319 0.0288242 0.00303366 0.0149534 0.0029109 0.0494905
119 1 Mg 6.55057 18.996 2.9896 1.2 1 0.00263899 0.00304482 0.00120444 0.00395761 0.00249679 0.00794287 0.00285038 0.0214247 0.00256483 0.00777113 0.00187061 0.0287506 0.00294235 0.0168998 0.00328145 0.0289276 0.00390024 0.0164698 0.0045418 0.0505261