ITEM: TIMESTEP
6400
ITEM: NUMBER OF ATOMS
10500
ITEM: BOX BOUNDS xy xz yz pp pp pp
0	15.2977	5.09925
0	118.725	0
0	89.688	0
ITEM: ATOMS id type element xu yu zu q Q_1 Q_2 Q_3 Q_4 Q_5 Q_6 Q_7 Q_8 Q_9 Q_10 Q_11 Q_12 Q_13 Q_14 Q_15 Q_16 Q_17 Q_18 Q_19 Q_20 Q_21
1 1 Mg 6.2404 -6.37941e-06 0 1.2 1 0.000808261 0.0041791 0.00124294 0.00499227 0.00123903 0.00567903 0.00212588 0.0161964 0.00221888 0.00587478 0.0020654 0.0220106 0.00246204 0.0134531 0.00340123 0.0206271 0.00407834 0.0144031 0.00397336 0.0405899
2 1 Mg 3.46349 4.70768 1.4948 1.2 1 0.00103697 0.00313151 0.00161641 0.00438925 0.00187938 0.00622761 0.00349003 0.0186416 0.00285297 0.00705859 0.00290314 0.0257501 0.00310873 0.013794 0.00437583 0.0252745 0.00546217 0.0171548 0.00575716 0.0436807
3 2 Si 5.2885 2.02354 1.4948 2.4 1 0.000389943 0.00330223 0.00222368 0.00472754 0.00174621 0.00589397 0.00247607 0.0170711 0.00238339 0.00630802 0.00216745 0.0234243 0.00281881 0.0135138 0.00368731 0.0214978 0.00382718 0.0154963 0.00437601 0.0412135
4 3 O 5.33628 3.63678 1.4948 -1.2 1 0.000622223 0.00270077 0.00177122 0.00482314 0.00198643 0.00636914 0.00286994 0.0177362 0.00229806 0.00686704 0.00191427 0.02526 0.00254229 0.0137169 0.00432102 0.0240205 0.00501352 0.0164208 0.00576114 0.0427657
5 3 O 1.67294 1.04952 1.4948 -1.2 1 0.00132082 0.00315191 0.00210285 0.00419061 0.00124051 0.00583935 0.00249782 0.0169168 0.00245796 0.00622213 0.00212553 0.0228923 0.00257132 0.0128276 0.00333301 0.0217561 0.00471339 0.0156844 0.00483009 0.040184
6 3 O 4.59532 1.31737 0.196716 -1.2 1 0.000689707 0.00289955 0.00206163 0.00446175 0.00187136 0.00569598 0.00229453 0.017226 0.00279026 0.00635046 0.00188875 0.0225197 0.00326022 0.0128085 0.00425579 0.0215109 0.0040754 0.0150314 0.0044857 0.0408384
7 1 Mg 6.18956 -6.37941e-06 2.9896 1.2 1 0.000717088 0.00461507 0.00152012 0.00424915 0.00118302 0.00584895 0.00246429 0.0161683 0.00271559 0.005714 0.00181724 0.0225422 0.00265677 0.0135166 0.00367168 0.0204604 0.00450488 0.014769 0.00486876 0.0392359
8 3 O 4.55118 1.31737 2.79288 -1.2 1 0.0010628 0.00421952 0.00202097 0.00423861 0.00174939 0.00585896 0.00257225 0.0169799 0.00254332 0.00705795 0.00234613 0.0218878 0.00334255 0.0123262 0.00346977 0.0213971 0.00486558 0.0155124 0.0052686 0.0401307
9 1 Mg -1.20682 0.0413099 4.4844 1.2 1 0.000473083 0.0030761 0.00188499 0.00465517 0.00128396 0.00575881 0.00199797 0.0163751 0.00215829 0.00608257 0.00212767 0.0229335 0.0029499 0.0119591 0.00375353 0.020686 0.00547444 0.0158332 0.00525137 0.0390691
10 2 Si -3.0337 2.72544 4.4844 2.4 1 0.000693063 0.00314533 0.00196632 0.00480933 0.00215631 0.00637272 0.00339374 0.0167737 0.00326124 0.00633304 0.00234097 0.0242465 0.00309587 0.0132045 0.0041695 0.0222541 0.00553314 0.017591 0.00624513 0.0400448
11 3 O -3.08099 1.11221 4.4844 -1.2 1 0.000600829 0.00380357 0.00189068 0.00431841 0.00115165 0.00570414 0.0024191 0.0162432 0.00286061 0.00584988 0.00224174 0.02257 0.00315704 0.0115597 0.00368789 0.0210996 0.00518805 0.0163523 0.00548412 0.0387151
12 3 O 0.582463 3.69946 4.4844 -1.2 1 0.00185605 0.0043852 0.00231049 0.00448664 0.00247959 0.00681065 0.00349464 0.0174113 0.0033901 0.00672 0.00315844 0.0249133 0.00406432 0.0132102 0.00445874 0.024393 0.00699518 0.0187295 0.00823253 0.0422224
13 3 O -2.29524 3.43162 3.18632 -1.2 1 0.000843137 0.00272239 0.00266491 0.00461273 0.00210271 0.00608946 0.00298637 0.0178638 0.00325739 0.00678838 0.00253425 0.024673 0.00321753 0.0131594 0.00479847 0.0241998 0.00613205 0.0178902 0.00664867 0.0422999
14 3 O -2.34216 3.43162 5.78248 -1.2 1 0.00124764 0.00359923 0.00142033 0.00492441 0.0025534 0.00617213 0.0033288 0.017164 0.00295151 0.00749483 0.00269334 0.0238023 0.00440255 0.0128374 0.00415706 0.0234021 0.00651831 0.0193472 0.00763582 0.0409143
15 1 Mg 1.12778 2.37449 2.9896 1.2 1 0.00131319 0.00354635 0.00242506 0.00447353 0.00215299 0.00610171 0.00303317 0.0166785 0.00267924 0.00632542 0.0023497 0.023655 0.00316288 0.0130275 0.0035325 0.021878 0.00497579 0.01656 0.00565698 0.040819
16 1 Mg 3.92855 2.33318 4.4844 1.2 1 0.00140996 0.00423147 0.00166732 0.00416765 0.00173371 0.00588106 0.00348359 0.0168181 0.00316048 0.00628755 0.00295877 0.0231743 0.0036938 0.0135517 0.00521257 0.0218351 0.00648321 0.0171984 0.00711042 0.0405795
17 2 Si 2.09341 4.39804 4.4844 2.4 1 0.00134583 0.00408567 0.00220599 0.004261 0.0029449 0.00615622 0.00372593 0.0182185 0.00353613 0.00692452 0.00334294 0.0250896 0.00445541 0.0142706 0.0045371 0.0246703 0.00695793 0.0185926 0.00847086 0.0437204
18 3 O 2.09991 6.01128 4.4844 -1.2 1 0.00184942 0.00435483 0.00173383 0.00408715 0.00300087 0.00659988 0.0033326 0.0192884 0.00287724 0.00744501 0.00306441 0.0269028 0.0042331 0.0147204 0.00483542 0.0275274 0.0070485 0.0196091 0.00830679 0.045716
19 3 O -4.52137 3.42402 4.4844 -1.2 1 0.00110748 0.00352234 0.0023081 0.00460767 0.00208091 0.00716295 0.00347405 0.0171356 0.00343295 0.00653046 0.00302394 0.0238727 0.0038882 0.0130871 0.00444358 0.0229166 0.00642861 0.0176811 0.00774917 0.0417021
20 3 O 2.80834 3.69187 3.18632 -1.2 1 0.00126602 0.00352131 0.00181066 0.00373421 0.00202216 0.00608971 0.00308694 0.0173995 0.00305535 0.00659038 0.00279325 0.0243252 0.00352715 0.0130794 0.0047989 0.0238144 0.00585086 0.0171664 0.00648264 0.0426199
21 1 Mg 1.17857 2.37449 0 1.2 1 0.00162954 0.00338012 0.0021302 0.00412666 0.00142639 0.00558445 0.00240505 0.0173392 0.00251341 0.00675632 0.00260355 0.0233568 0.00276075 0.0131684 0.00343871 0.0217726 0.00447248 0.0151199 0.00481658 0.0409996
22 3 O 2.76143 3.69187 5.78248 -1.2 1 0.00177663 0.00440993 0.00210784 0.00422623 0.00221139 0.00562141 0.003104 0.0177161 0.00334915 0.00727223 0.00315199 0.023702 0.00485084 0.0134265 0.00573962 0.023458 0.00693472 0.0185737 0.0075217 0.0420002
23 1 Mg -1.67381 2.41581 1.4948 1.2 1 0.00102459 0.002689 0.00257274 0.00484677 0.00136104 0.0059943 0.00229279 0.0166472 0.00293818 0.0064013 0.00187458 0.0242314 0.00237335 0.0141264 0.00282033 0.022224 0.00442532 0.0160955 0.00481676 0.041665
24 2 Si 0.16286 0.350945 1.4948 2.4 1 0.00146515 0.00262937 0.00275942 0.00448236 0.00115342 0.00642562 0.00270112 0.0164079 0.00220246 0.00535982 0.00187677 0.0229181 0.002336 0.0134762 0.00303747 0.0206371 0.00469789 0.0148248 0.00433959 0.0401687
25 3 O 0.15972 -1.26229 1.4948 -1.2 1 0.00144854 0.0027818 0.00297782 0.00443383 0.00172393 0.00601938 0.00249375 0.016504 0.00229022 0.00558309 0.00245826 0.0228231 0.00254548 0.0137712 0.00284592 0.0216373 0.00430799 0.0146708 0.0039946 0.0407443
26 3 O 6.77654 1.32496 1.4948 -1.2 1 0.000817863 0.00378191 0.00165755 0.00471272 0.00113408 0.0060456 0.00234613 0.0167473 0.00259275 0.00561846 0.00173961 0.0238061 0.00271101 0.013535 0.00350211 0.0217595 0.00458737 0.0153216 0.00439376 0.0408021
27 3 O -0.508028 1.05712 0.196716 -1.2 1 0.00102096 0.00262975 0.00326428 0.00421565 0.00123364 0.00560545 0.00245784 0.0171046 0.00187719 0.00676435 0.00251005 0.0222836 0.00254302 0.0128218 0.00305715 0.0211665 0.0042602 0.0152906 0.00436531 0.0401154
28 3 O -0.552171 1.05712 2.79288 -1.2 1 0.000780721 0.00231538 0.00292672 0.00444163 0.00132591 0.00623504 0.00240578 0.0162712 0.0025552 0.00631827 0.00176834 0.0229835 0.00291062 0.0119657 0.00367881 0.0215781 0.00540276 0.0158266 0.00503413 0.0397983
29 1 Mg 6.31713 4.74899 0 1.2 1 0.000502117 0.00263646 0.00195207 0.00473704 0.00219031 0.00616816 0.00327835 0.0181083 0.00283366 0.00717268 0.00207606 0.0253479 0.00281459 0.0137505 0.00423243 0.0247443 0.00477668 0.0164574 0.00599037 0.0428592
30 1 Mg 3.54847 9.45668 1.4948 1.2 1 0.00126092 0.00334146 0.00182165 0.00457004 0.00212511 0.0076757 0.00316161 0.0213977 0.00167326 0.00847156 0.00224182 0.0284993 0.00310466 0.0156505 0.00372874 0.0292279 0.00436838 0.0182219 0.00394703 0.0488397
31 2 Si 5.36879 6.77254 1.4948 2.4 1 0.000674711 0.00297732 0.00201233 0.00508995 0.00267693 0.00703617 0.00369808 0.0196317 0.00275886 0.00787378 0.00248518 0.0276908 0.00320265 0.0154268 0.00426471 0.027012 0.00474563 0.017392 0.00537248 0.0466289
32 3 O 5.41937 8.38578 1.4948 -1.2 1 0.00115556 0.00322806 0.00182558 0.00499582 0.00222579 0.00779126 0.00315471 0.0209186 0.00223182 0.00839081 0.00239153 0.0291041 0.00233691 0.0156682 0.00311824 0.029219 0.00473664 0.0175604 0.00495299 0.0481471
33 3 O 1.75158 5.79852 1.4948 -1.2 1 0.000921098 0.00333641 0.0016427 0.00406007 0.00235372 0.0060239 0.00328695 0.0195106 0.00284201 0.00740855 0.00263439 0.0279154 0.00292017 0.0155196 0.00359862 0.02686 0.00551075 0.017637 0.00564814 0.04568
34 3 O 4.67421 6.06637 0.196716 -1.2 1 0.000576085 0.00288375 0.00156187 0.00482521 0.00197834 0.00687201 0.00294506 0.0197949 0.00246028 0.00827695 0.00212386 0.026365 0.00354393 0.0143999 0.00424229 0.0267432 0.0048342 0.0168038 0.00566767 0.0451368
35 1 Mg 6.26654 4.74899 2.9896 1.2 1 0.00126864 0.00291326 0.00239745 0.00502591 0.002519 0.00669156 0.00375012 0.0179189 0.00383235 0.00719164 0.00214582 0.0259965 0.00373306 0.0145718 0.0050781 0.0249579 0.00599896 0.0176242 0.00699271 0.0437228
36 3 O 4.63043 6.06637 2.79288 -1.2 1 0.00169945 0.00346088 0.00189989 0.0049921 0.00225645 0.00697539 0.00348279 0.0194616 0.00338491 0.00788287 0.00242568 0.0262015 0.00396683 0.0147383 0.00452273 0.0274361 0.00609153 0.0183421 0.00715775 0.0456692
37 1 Mg -1.12976 4.79031 4.4844 1.2 1 0.00175871 0.00385975 0.00179851 0.0048199 0.00226245 0.00628116 0.00331089 0.0179937 0.00354558 0.00720145 0.00307757 0.0261735 0.00413593 0.014645 0.00473876 0.0257669 0.0075836 0.0192578 0.00813036 0.0446297
38 2 Si -2.9517 7.47444 4.4844 2.4 1 0.002099 0.00409235 0.00156479 0.00528163 0.00297864 0.00673856 0.00389061 0.0204322 0.00329967 0.0078958 0.0030806 0.0277732 0.00462997 0.0160553 0.00549576 0.0281053 0.00721236 0.0194393 0.00829805 0.048064
39 3 O -3.00198 5.86121 4.4844 -1.2 1 0.00174407 0.00399993 0.00133777 0.00493431 0.00304391 0.00660613 0.0041128 0.0189021 0.00364078 0.00776089 0.00274426 0.026036 0.0044377 0.0142712 0.00493122 0.0268968 0.00706962 0.019661 0.00849784 0.0458088
40 3 O 0.666315 8.44846 4.4844 -1.2 1 0.0023985 0.00486364 0.0014294 0.00505525 0.00302546 0.00754895 0.00307814 0.021275 0.00321948 0.00804782 0.0034277 0.0286664 0.00465627 0.0161045 0.00471436 0.0294504 0.00671062 0.0199691 0.00804291 0.0490148
41 3 O -2.21213 8.18062 3.18632 -1.2 1 0.00177207 0.00432088 0.00169914 0.0046997 0.00255656 0.00643842 0.00293312 0.0208174 0.00290538 0.00818374 0.0028483 0.027817 0.00430232 0.0160117 0.00498266 0.0290359 0.00604313 0.0189031 0.00680003 0.0488997
42 3 O -2.25864 8.18062 5.78248 -1.2 1 0.00258627 0.00462792 0.00157979 0.0049881 0.00326652 0.00624049 0.00309894 0.0208658 0.00271639 0.00862679 0.0035033 0.0273101 0.00470839 0.0166551 0.00563407 0.0294347 0.00746767 0.0208499 0.0085226 0.0497587
43 1 Mg 1.20893 7.12349 2.9896 1.2 1 0.00138321 0.00389052 0.00180705 0.00434775 0.00281855 0.00682121 0.00370303 0.019722 0.00293675 0.00812684 0.00269411 0.0280507 0.00349878 0.0158459 0.00392083 0.0275644 0.00578595 0.0184231 0.00654878 0.0471067
44 1 Mg 4.00982 7.08218 4.4844 1.2 1 0.00209201 0.00395895 0.00170423 0.00480502 0.00265619 0.00664968 0.00388676 0.020051 0.00355763 0.00763668 0.00321745 0.0276381 0.00440447 0.0167092 0.00585325 0.0282094 0.00741861 0.0193859 0.00845742 0.0473913
45 2 Si 2.17861 9.14704 4.4844 2.4 1 0.00214562 0.00442692 0.00157022 0.00496136 0.00301906 0.00750894 0.00369884 0.0212978 0.00289726 0.00820649 0.0032685 0.0283901 0.00477468 0.0167444 0.00469669 0.0297478 0.00620821 0.0197954 0.00714262 0.0507177
46 3 O 2.18828 10.7603 4.4844 -1.2 1 0.00281368 0.00459687 0.00192092 0.00485191 0.00284935 0.00724524 0.00297896 0.0211966 0.00261526 0.00813354 0.00238902 0.0290293 0.00424106 0.0159703 0.00448259 0.0308322 0.00634767 0.0200636 0.00684407 0.0514781
47 3 O -4.43805 8.17302 4.4844 -1.2 1 0.00154842 0.00460482 0.00182007 0.00523885 0.00264155 0.00785317 0.00333187 0.0208389 0.00332897 0.00825706 0.00319359 0.0285973 0.00467083 0.0160716 0.00504913 0.029549 0.00708365 0.019749 0.00902175 0.048743
48 3 O 2.89193 8.44087 3.18632 -1.2 1 0.00212435 0.0038013 0.00180788 0.00440824 0.00254741 0.00713195 0.00330798 0.0206447 0.00290366 0.00852494 0.00289964 0.0277163 0.00388955 0.0159643 0.00476685 0.0290741 0.00610211 0.0188545 0.00598973 0.0489317
49 1 Mg 1.25915 7.12349 0 1.2 1 0.000454034 0.00313954 0.00139276 0.00430729 0.00181117 0.00714727 0.00289361 0.020156 0.00283969 0.00825987 0.00265289 0.0277728 0.00350584 0.0143852 0.00367572 0.0276097 0.00481189 0.0175722 0.00468857 0.0460618
50 3 O 2.84547 8.44087 5.78248 -1.2 1 0.00245971 0.00475626 0.00160024 0.00490422 0.00265151 0.00676049 0.00334793 0.0211686 0.00306989 0.00880608 0.00349212 0.0273971 0.00552878 0.0167498 0.00545347 0.0299297 0.00659268 0.0213137 0.00798927 0.0501348
51 1 Mg -1.59284 7.16481 1.4948 1.2 1 0.000911351 0.00331823 0.00139733 0.00469024 0.00179131 0.00644216 0.00277907 0.0199875 0.00291209 0.00790743 0.00173133 0.0277668 0.0033615 0.0155826 0.00373671 0.0272464 0.00477588 0.017794 0.00569855 0.0467929
52 2 Si 0.240329 5.09994 1.4948 2.4 1 0.000829427 0.00349968 0.0019988 0.00402653 0.001771 0.00676004 0.00313026 0.0189128 0.00317792 0.00743973 0.00226314 0.0261156 0.00281316 0.0145948 0.00416131 0.0248589 0.00520601 0.0170638 0.00536429 0.0447004
53 3 O 0.234538 3.48671 1.4948 -1.2 1 0.00138846 0.00356062 0.00254679 0.00430571 0.00177585 0.00646968 0.00258204 0.0179044 0.00347963 0.00704156 0.00224079 0.0246119 0.00310134 0.0136113 0.00396122 0.0240089 0.0055736 0.0161356 0.00546411 0.0424236
54 3 O 6.85564 6.07396 1.4948 -1.2 1 0.000968688 0.00269535 0.00231953 0.00496359 0.00249004 0.00619971 0.00314108 0.0199297 0.00314739 0.00764615 0.00207853 0.0277261 0.00330316 0.0147506 0.0047817 0.0269722 0.00564666 0.0177984 0.00634094 0.04546
55 3 O -0.429565 5.80612 0.196716 -1.2 1 0.000521174 0.00316449 0.00218231 0.00421631 0.00179835 0.00708415 0.0025856 0.0195993 0.00281957 0.00856229 0.00243138 0.0258128 0.00266145 0.0142251 0.00382859 0.0259922 0.00506373 0.0169154 0.00578705 0.0451693
56 3 O -0.473377 5.80612 2.79288 -1.2 1 0.00159566 0.00337642 0.00192894 0.00460858 0.00228448 0.00688719 0.00303915 0.0192406 0.00329135 0.00812264 0.0029315 0.025935 0.00376785 0.0145369 0.00462657 0.0263942 0.00657289 0.018622 0.00683051 0.0460042
57 1 Mg 6.40169 9.49799 0 1.2 1 0.000427979 0.00378532 0.00143216 0.00462128 0.00157906 0.00824122 0.00208499 0.0211379 0.00166352 0.00887293 0.00174386 0.0288899 0.00247084 0.014812 0.00269839 0.0299431 0.00375288 0.0179669 0.00416233 0.0476753
58 1 Mg 3.64209 14.2057 1.4948 1.2 1 0.00185385 0.00324864 0.00162476 0.00452101 0.00172821 0.00883259 0.00179385 0.0217962 0.00158498 0.00870625 0.00226848 0.0284874 0.00251256 0.0162258 0.00309767 0.0296049 0.00358857 0.0170142 0.00331724 0.0496348
59 2 Si 5.45748 11.5215 1.4948 2.4 1 0.00186812 0.00332091 0.0017782 0.00456786 0.00182392 0.00823955 0.00219211 0.0213063 0.00158551 0.00830996 0.00180715 0.0289407 0.00269891 0.0163241 0.0034385 0.0292776 0.00408569 0.0170088 0.00376496 0.049474
60 3 O 5.51101 13.1348 1.4948 -1.2 1 0.00200015 0.00334533 0.00187443 0.00459421 0.00164898 0.00903743 0.00192878 0.0213335 0.00168601 0.00865188 0.00159296 0.0295262 0.00213991 0.0161807 0.00289355 0.029934 0.00373099 0.0166817 0.0034917 0.0493286
61 3 O 1.83851 10.5475 1.4948 -1.2 1 0.00117614 0.0036291 0.00173763 0.00479669 0.00184702 0.00777101 0.00245241 0.0216761 0.00179704 0.00838834 0.00218391 0.0294942 0.00264834 0.0159054 0.0033374 0.0298594 0.00416812 0.0178427 0.00347179 0.0494869
62 3 O 4.7611 10.8154 0.196716 -1.2 1 0.000889047 0.00317219 0.00188327 0.00460812 0.00167291 0.00845448 0.00226855 0.0214955 0.00142823 0.0087048 0.00196407 0.0283665 0.00303907 0.0156277 0.0040286 0.029568 0.00378161 0.0172233 0.00357606 0.0486434
63 1 Mg 6.35203 9.49799 2.9896 1.2 1 0.00148932 0.00407094 0.00179754 0.00485235 0.00260182 0.00765012 0.0034555 0.0204701 0.00312812 0.00853885 0.0021163 0.029361 0.00379845 0.0162054 0.00343776 0.0293446 0.00453446 0.0184639 0.00559033 0.0491274
64 3 O 4.71833 10.8154 2.79288 -1.2 1 0.00235383 0.00355793 0.00180753 0.00453477 0.00219604 0.00831908 0.00230108 0.0214407 0.00210262 0.00896328 0.00212602 0.0285161 0.00356135 0.0160637 0.00417806 0.0301597 0.00535481 0.0183714 0.00538099 0.0503901
65 1 Mg -1.0438 9.53931 4.4844 1.2 1 0.00265819 0.00481099 0.00167245 0.00483265 0.00293262 0.00678831 0.00264395 0.0210854 0.00282463 0.00846807 0.00277369 0.0286835 0.00413113 0.016972 0.00465624 0.0299452 0.0066352 0.0198409 0.00730836 0.0505085
66 2 Si -2.8604 12.2234 4.4844 2.4 1 0.00283488 0.00441546 0.00188534 0.00470533 0.00276515 0.00783246 0.00303901 0.0220876 0.00293612 0.00847781 0.00237154 0.0286445 0.00418405 0.0167154 0.00457307 0.0303419 0.00594178 0.0194413 0.00660825 0.0522503
67 3 O -2.91391 10.6102 4.4844 -1.2 1 0.00295187 0.00471286 0.00181002 0.00476507 0.00305691 0.00720493 0.00341879 0.0208688 0.00278944 0.00788441 0.00213944 0.0290661 0.00438611 0.0161394 0.00440431 0.0308887 0.00607578 0.0197334 0.00701798 0.0511244
68 3 O 0.7596 13.1975 4.4844 -1.2 1 0.00267902 0.00420607 0.0020983 0.00517648 0.00282931 0.00876067 0.00262572 0.0223959 0.00292689 0.00834314 0.0029835 0.0291947 0.00430586 0.0165734 0.00436205 0.0304714 0.00613177 0.0196523 0.0068037 0.0520404
69 3 O -2.12001 12.9296 3.18632 -1.2 1 0.00296267 0.0039347 0.0018539 0.00434832 0.00256364 0.00780983 0.00235677 0.0220407 0.00252463 0.0084029 0.00226666 0.0282759 0.00362963 0.0163631 0.00459319 0.0304713 0.00525105 0.0184949 0.00540125 0.0512249
70 3 O -2.16532 12.9296 5.78248 -1.2 1 0.00328277 0.00482477 0.00176202 0.00483712 0.00298248 0.00708388 0.0023651 0.0223905 0.00262885 0.00829738 0.00259921 0.0284217 0.00420032 0.0172619 0.00470859 0.0315648 0.00647324 0.021337 0.00708257 0.0537192
71 1 Mg 1.29891 11.8725 2.9896 1.2 1 0.00239787 0.00361445 0.00179339 0.00487935 0.00249331 0.00813031 0.00282346 0.0211434 0.00258291 0.00854433 0.00221318 0.0294407 0.00355517 0.0164114 0.00364008 0.0299672 0.00474073 0.0179442 0.00480644 0.0500534
72 1 Mg 4.10033 11.8312 4.4844 1.2 1 0.00275844 0.0041459 0.00207422 0.00455317 0.00256712 0.00757451 0.00265027 0.0215812 0.00266682 0.00833304 0.00279306 0.0292541 0.0039836 0.017452 0.00525775 0.0304694 0.00675732 0.0195679 0.00654889 0.0516303
73 2 Si 2.27333 13.896 4.4844 2.4 1 0.00270741 0.0036877 0.00182698 0.00515968 0.00297865 0.00813841 0.00310271 0.0221004 0.00253989 0.00832808 0.00299705 0.0287025 0.00401797 0.0170318 0.00447762 0.0303068 0.00564784 0.0191624 0.00621435 0.0528407
74 3 O 2.28634 15.5093 4.4844 -1.2 1 0.00247686 0.00407583 0.00193102 0.00489404 0.00305501 0.00759581 0.00277663 0.0214058 0.00261984 0.00782093 0.00241296 0.0292462 0.00376997 0.0163901 0.00415624 0.0308093 0.00579248 0.0190874 0.0064468 0.0522759
75 3 O -4.34533 12.922 4.4844 -1.2 1 0.00268284 0.00452094 0.00198563 0.00479299 0.00273529 0.00853941 0.00288717 0.0220635 0.00294955 0.00841095 0.00239192 0.0291002 0.00420724 0.0165731 0.00480763 0.0306803 0.00648011 0.0198989 0.00738159 0.0520241
76 3 O 2.98455 13.1899 3.18632 -1.2 1 0.00265736 0.00349258 0.00167198 0.00452446 0.00251554 0.0079945 0.00218299 0.0218834 0.00225536 0.00852328 0.00245565 0.0283656 0.00361216 0.0164615 0.00431322 0.0302459 0.00557427 0.0183982 0.00549272 0.0510658
77 1 Mg 1.34779 11.8725 0 1.2 1 0.00109579 0.00310303 0.00130675 0.00464163 0.0014681 0.00880084 0.00170006 0.0213895 0.00124538 0.00911893 0.00198883 0.0290929 0.00285352 0.0149742 0.00301859 0.0302385 0.00327116 0.0172453 0.00321627 0.048375
78 3 O 2.93934 13.1899 5.78248 -1.2 1 0.0028216 0.00465713 0.00197971 0.00518708 0.00279386 0.00734607 0.00255558 0.0222315 0.00272397 0.0084802 0.00325455 0.0281829 0.00468319 0.0172232 0.00503756 0.0314812 0.00648368 0.0213631 0.00697061 0.0539714
79 1 Mg -1.50344 11.9138 1.4948 1.2 1 0.00146356 0.00375369 0.00154601 0.00448464 0.00148468 0.00831876 0.00197655 0.021694 0.00237395 0.00849674 0.00147626 0.0288649 0.00352897 0.0161803 0.00336712 0.0298519 0.00352291 0.0175593 0.00371061 0.049373
80 2 Si 0.326006 9.84894 1.4948 2.4 1 0.000915158 0.00356032 0.00127951 0.00493396 0.00188163 0.0082066 0.00217655 0.0211748 0.00213522 0.00842338 0.0015781 0.0286188 0.00299792 0.015823 0.00365157 0.028901 0.0037908 0.0178174 0.00352061 0.0488039
81 3 O 0.317364 8.23571 1.4948 -1.2 1 0.00120045 0.00368302 0.00110484 0.00451759 0.00182781 0.00769986 0.00220229 0.0203514 0.00264761 0.00803586 0.00177613 0.0287399 0.00348306 0.015798 0.00387832 0.0286296 0.00457486 0.0177723 0.0043398 0.0477884
82 3 O 6.94307 10.823 1.4948 -1.2 1 0.00156048 0.00386516 0.00155052 0.00443955 0.00191796 0.00779653 0.00262403 0.0218235 0.00238503 0.0083341 0.00147477 0.0295722 0.00300175 0.0159346 0.0033888 0.0299718 0.00378631 0.0179301 0.00410365 0.0494218
83 3 O -0.343122 10.5551 0.196716 -1.2 1 0.00108776 0.00335666 0.00122807 0.00468935 0.0015414 0.00856661 0.00200132 0.021379 0.00173336 0.00896417 0.00194734 0.0282117 0.00328457 0.0154446 0.0041495 0.029516 0.00357899 0.0174711 0.00357984 0.0486026
84 3 O -0.385966 10.5551 2.79288 -1.2 1 0.00258031 0.0040676 0.00135974 0.0046921 0.00253432 0.00807386 0.0022795 0.0215945 0.00207744 0.00901768 0.0024223 0.0278986 0.0037863 0.0160484 0.00415706 0.0300998 0.00522941 0.0187742 0.00511929 0.0502681
85 1 Mg 6.49448 14.247 0 1.2 1 0.00127498 0.0034369 0.00173997 0.00448746 0.00123724 0.00914225 0.00150484 0.0214715 0.00114537 0.00862225 0.00147314 0.0289946 0.00163744 0.0155612 0.00244216 0.0300871 0.00307424 0.0165868 0.00291282 0.0483279
86 1 Mg 3.74457 18.9547 1.4948 1.2 1 0.00194734 0.00298368 0.00143918 0.00377842 0.00178957 0.00840625 0.00125551 0.0224202 0.00191449 0.0081963 0.00245828 0.0280229 0.00252456 0.0166673 0.00349244 0.0288281 0.00362531 0.0164908 0.00325457 0.0500019
87 2 Si 5.55495 16.2705 1.4948 2.4 1 0.0021666 0.00291001 0.00153176 0.00431012 0.00192946 0.00886 0.00145125 0.021546 0.00137991 0.00796508 0.00141827 0.0289039 0.00227731 0.0163455 0.00283742 0.0289549 0.00370282 0.0159621 0.00356375 0.0496185
88 3 O 5.6115 17.8838 1.4948 -1.2 1 0.00198804 0.00309026 0.00172936 0.00406403 0.00182439 0.00909849 0.00159301 0.0218184 0.00178811 0.00789658 0.00154844 0.0289687 0.0020406 0.0165647 0.00273301 0.029032 0.00332538 0.0158936 0.00341624 0.0496235
89 3 O 1.93416 15.2965 1.4948 -1.2 1 0.00192613 0.00308716 0.00159372 0.00449673 0.00185722 0.00839838 0.00210811 0.022005 0.00181207 0.00812532 0.00147219 0.0292993 0.00202861 0.0163255 0.00288547 0.0297473 0.00373324 0.0166348 0.0032444 0.0500462
90 3 O 4.85636 15.5644 0.196716 -1.2 1 0.00176852 0.00264213 0.00146537 0.00441271 0.00133764 0.00908718 0.00152441 0.0216111 0.000874269 0.00827061 0.0017984 0.0283159 0.00253599 0.0161452 0.00351971 0.0293302 0.00321683 0.0158713 0.00308983 0.0490433
91 1 Mg 6.44662 14.247 2.9896 1.2 1 0.00175727 0.00369365 0.0016579 0.0045169 0.00251716 0.0085868 0.00286865 0.0210638 0.00263565 0.00865961 0.00191356 0.0296972 0.00314217 0.0165351 0.00307453 0.0297305 0.00404195 0.0175858 0.00455905 0.0502142
92 3 O 4.81537 15.5644 2.79288 -1.2 1 0.00244356 0.00326463 0.0015532 0.00434286 0.00229751 0.00881695 0.00171686 0.0219052 0.00163874 0.00863774 0.00184538 0.0282662 0.00287572 0.0164655 0.00356598 0.0298001 0.00475488 0.0173537 0.00485962 0.0505925
93 1 Mg -0.948271 14.2883 4.4844 1.2 1 0.00311934 0.00403281 0.00181814 0.00467051 0.00278022 0.00791243 0.00265052 0.0218727 0.00287381 0.00826918 0.00282209 0.0289668 0.00347872 0.0171164 0.004963 0.0307008 0.00606783 0.0191333 0.00647466 0.0522823
94 2 Si -2.75928 16.9724 4.4844 2.4 1 0.00252811 0.0037227 0.0020099 0.00468532 0.00286381 0.00801386 0.00278627 0.0224291 0.00279312 0.00795845 0.00260869 0.0284743 0.00352226 0.0171707 0.00457785 0.0299576 0.00525825 0.0186866 0.00585902 0.0528482
95 3 O -2.81617 15.3592 4.4844 -1.2 1 0.00309622 0.00412819 0.00182956 0.00457347 0.00296855 0.00768987 0.00282568 0.0215207 0.00264593 0.00775725 0.00227022 0.0291158 0.00383875 0.0163774 0.00418727 0.030749 0.00612057 0.0188827 0.00660803 0.052208
96 3 O 0.862762 17.9465 4.4844 -1.2 1 0.00231912 0.0038465 0.00179701 0.0048256 0.0030732 0.0084769 0.00258719 0.0227335 0.0027398 0.0079753 0.0027194 0.0290965 0.00388933 0.0173075 0.00441791 0.0296012 0.00567875 0.0190214 0.0061398 0.0524855
97 3 O -2.0185 17.6786 3.18632 -1.2 1 0.00223951 0.00346269 0.00198129 0.0040579 0.00265351 0.00767485 0.002227 0.0225656 0.00245995 0.00803512 0.00229456 0.0279401 0.00352225 0.016628 0.00454333 0.0300898 0.00485625 0.0178404 0.00501146 0.0516112
98 3 O -2.06164 17.6786 5.78248 -1.2 1 0.00270132 0.00428472 0.0018117 0.00474417 0.0030272 0.00717415 0.00241939 0.0227433 0.00256781 0.0080152 0.0027525 0.0284355 0.00384133 0.017594 0.0049147 0.0313509 0.0061909 0.020938 0.00636547 0.0544918
99 1 Mg 1.39817 16.6215 2.9896 1.2 1 0.00240142 0.00323421 0.0017806 0.00452801 0.00266887 0.00839417 0.00260681 0.0214627 0.00255413 0.00815351 0.00203481 0.0290706 0.0027563 0.0168394 0.00330307 0.0296065 0.00413857 0.0169215 0.00434786 0.0505688
100 1 Mg 4.20062 16.5802 4.4844 1.2 1 0.00242037 0.0036135 0.00202637 0.00453211 0.00267323 0.00780759 0.00232797 0.0220805 0.00311586 0.00785416 0.00293426 0.0288584 0.00355387 0.0175932 0.00549706 0.0302645 0.00643616 0.0189472 0.0061617 0.0524454
101 2 Si 2.37796 18.645 4.4844 2.4 1 0.00200466 0.00341697 0.00173233 0.00468822 0.00302969 0.00804034 0.00271583 0.0226195 0.00264638 0.00804683 0.00284328 0.0284503 0.00376552 0.0174671 0.00456633 0.0296112 0.00526377 0.0185299 0.00574856 0.05333
102 3 O 2.39434 20.2583 4.4844 -1.2 1 0.00204514 0.00382822 0.0018232 0.0046223 0.0030359 0.00699753 0.00242496 0.0217443 0.00278752 0.00756956 0.00219696 0.0290279 0.00355602 0.0169392 0.00424066 0.0301466 0.00575661 0.0184243 0.00637031 0.0528667
103 3 O -4.24274 17.671 4.4844 -1.2 1 0.00199154 0.00404513 0.00205146 0.00468298 0.00281191 0.00862238 0.00247494 0.0227017 0.00290217 0.00796873 0.00248456 0.0290613 0.00352062 0.0170398 0.00481256 0.0300798 0.00599054 0.0191087 0.00628854 0.0525738
104 3 O 3.08659 17.9389 3.18632 -1.2 1 0.00221382 0.0030985 0.00181485 0.00412104 0.00265952 0.00804519 0.00180817 0.0223395 0.00243679 0.00813385 0.00239086 0.0279521 0.00330368 0.0167048 0.00445905 0.029652 0.00534818 0.017701 0.00533823 0.0514916
105 1 Mg 1.44478 16.6215 0 1.2 1 0.00240661 0.00284324 0.00121805 0.00407819 0.00142691 0.00891999 0.00125143 0.0216657 0.00128489 0.00828685 0.00152525 0.0288533 0.00222356 0.0157886 0.00230662 0.0292998 0.00295498 0.0161167 0.00296031 0.0488783
106 3 O 3.0436 17.9389 5.78248 -1.2 1 0.00220364 0.00408857 0.00173342 0.00515092 0.00277089 0.00729072 0.00223882 0.0226649 0.00241797 0.00825455 0.00301569 0.0283329 0.00404079 0.0174992 0.00505594 0.0310683 0.00622004 0.0208112 0.00643554 0.0547734
107 1 Mg -1.40524 16.6628 1.4948 1.2 1 0.00185952 0.0032746 0.00156856 0.00426182 0.00167962 0.00864069 0.00186821 0.0223559 0.00194837 0.00825037 0.00181522 0.0284609 0.00302116 0.01677 0.00293496 0.0293767 0.00286626 0.0167185 0.00310923 0.0497642
108 2 Si 0.420358 14.5979 1.4948 2.4 1 0.00179878 0.00307746 0.00157214 0.00478778 0.00197437 0.0090742 0.00186895 0.0214809 0.00163809 0.00828291 0.00144475 0.0286889 0.00288557 0.0164859 0.00348429 0.0289215 0.0034622 0.0164793 0.00331695 0.0495285
109 3 O 0.408732 12.9847 1.4948 -1.2 1 0.00173711 0.0032181 0.00142864 0.00478508 0.00193011 0.00905499 0.00164023 0.0212397 0.00214419 0.00845337 0.00148715 0.029251 0.00310125 0.0161279 0.00299617 0.0298797 0.00323621 0.0169254 0.0035741 0.0494601
110 3 O 7.03923 15.572 1.4948 -1.2 1 0.00173998 0.00337149 0.00162396 0.00436954 0.00207713 0.0083107 0.00234648 0.0218758 0.00221278 0.00808648 0.0015191 0.029438 0.00252871 0.0164418 0.00281611 0.0297066 0.003373 0.0167582 0.00367292 0.0498273
111 3 O -0.248332 15.3041 0.196716 -1.2 1 0.0020217 0.00284307 0.00144469 0.00434757 0.00120615 0.00899338 0.00195137 0.0213996 0.00126563 0.00838165 0.00162836 0.0282706 0.00281014 0.0160543 0.0037067 0.0292885 0.00297547 0.0160784 0.00303032 0.0490131
112 3 O -0.289436 15.3041 2.79288 -1.2 1 0.00291362 0.00341365 0.00158814 0.00440995 0.00250579 0.00871852 0.00198649 0.0221949 0.00189059 0.00873192 0.00201136 0.0278074 0.00310063 0.0168391 0.00372066 0.0297503 0.00448373 0.0177612 0.00443408 0.0509165
113 1 Mg 6.59566 18.996 0 1.2 1 0.00169746 0.00315878 0.00154552 0.00400218 0.00105582 0.00857539 0.00123036 0.0220866 0.00100526 0.00782771 0.00137894 0.0284117 0.00183397 0.016417 0.00222165 0.0287756 0.00286868 0.0159567 0.00290151 0.0488601
114 1 Mg 3.85574 23.7037 1.4948 1.2 1 0.00204078 0.0025583 0.00146701 0.00399653 0.00171189 0.00738879 0.00113223 0.0232422 0.00190476 0.00756616 0.00233448 0.0274571 0.00254174 0.0176641 0.00369032 0.0285397 0.00345081 0.0171543 0.00346659 0.0510283
115 2 Si 5.66125 21.0195 1.4948 2.4 1 0.00178385 0.00262965 0.00136977 0.00383696 0.00200724 0.00816093 0.00139026 0.0220979 0.00139585 0.00759178 0.00164941 0.0281872 0.00245785 0.0174682 0.00271257 0.0280487 0.00362777 0.0159591 0.00389732 0.0504514
116 3 O 5.72074 22.6328 1.4948 -1.2 1 0.00181156 0.00258274 0.00174631 0.00391329 0.00181727 0.00812276 0.00151234 0.0224337 0.00184207 0.00732783 0.00148845 0.0282176 0.00217543 0.0173415 0.00291942 0.0284695 0.0033427 0.0163313 0.00366652 0.0503842
117 3 O 2.03867 20.0455 1.4948 -1.2 1 0.00163939 0.00308968 0.00159637 0.00407734 0.00192301 0.00768625 0.00203308 0.0224528 0.00220365 0.00760614 0.00156328 0.0288131 0.00216891 0.0172905 0.00253885 0.0289573 0.00361657 0.0161268 0.00349095 0.0504982
118 3 O 4.96004 20.3134 0.196716 -1.2 1 0.00216228 0.00237898 0.00144657 0.00384896 0.00129921 0.00822155 0.00108425 0.0218644 0.000938894 0.00758125 0.00163869 0.0279343 0.00260326 0.0166668 0.00372339 0.0287473 0.00313504 0.0152692 0.00296432 0.0496073
119 1 Mg 6.55057 18.996 2.9896 1.2 1 0.00118698 0.00345736 0.0016433 0.00413478 0.00254582 0.00820399 0.0026932 0.0216016 0.00253648 0.00797696 0.00184465 0.0293329 0.00297382 0.017039 0.00295485 0.029056 0.00395454 0.017118 0.00457537 0.0507538