ITEM: TIMESTEP
5700
ITEM: NUMBER OF ATOMS
10500
ITEM: BOX BOUNDS xy xz yz pp pp pp
0	15.2974	5.099
0	118.725	0
0	89.688	0
ITEM: ATOMS id type element xu yu zu q Q_1 Q_2 Q_3 Q_4 Q_5 Q_6 Q_7 Q_8 Q_9 Q_10 Q_11 Q_12 Q_13 Q_14 Q_15 Q_16 Q_17 Q_18 Q_19 Q_20 Q_21
1 1 Mg 6.2404 -6.37941e-06 0 1.2 1 0.0011686 0.00384369 0.00141184 0.0047283 0.00134078 0.0055349 0.00216396 0.016139 0.00230744 0.00576526 0.00219326 0.0219125 0.00249887 0.0134805 0.00340336 0.0204599 0.00411921 0.0141866 0.00395642 0.040294
2 1 Mg 3.46349 4.70768 1.4948 1.2 1 0.00128068 0.00341262 0.00174255 0.00443791 0.00204706 0.00601585 0.00337233 0.0189103 0.00278541 0.0070277 0.00294011 0.0256236 0.00329689 0.0139739 0.00420106 0.0253247 0.00529762 0.0172062 0.00578133 0.0438157
3 2 Si 5.2885 2.02354 1.4948 2.4 1 0.000372257 0.00328676 0.0022597 0.00456662 0.00184938 0.00567464 0.0025914 0.0171312 0.00258583 0.00614399 0.00213831 0.023137 0.00287953 0.0136765 0.00353662 0.0215647 0.00386408 0.0154573 0.00444423 0.0410027
4 3 O 5.33628 3.63678 1.4948 -1.2 1 0.000789843 0.00271832 0.00188579 0.00478622 0.00218472 0.00613567 0.00281981 0.017889 0.0022204 0.00679427 0.00205086 0.0249874 0.00255734 0.0138238 0.0040765 0.0241368 0.00501034 0.0166563 0.00572655 0.0426613
5 3 O 1.67294 1.04952 1.4948 -1.2 1 0.00143359 0.00338255 0.00201624 0.00408741 0.0013459 0.00560759 0.00248142 0.0168947 0.00242293 0.00608059 0.00216672 0.0226154 0.00247795 0.0129496 0.00330094 0.0218972 0.00469287 0.0157428 0.0049111 0.0400289
6 3 O 4.59532 1.31737 0.196716 -1.2 1 0.00102024 0.00299521 0.00223983 0.00429341 0.00201807 0.00556484 0.00247372 0.0172132 0.0026959 0.00631415 0.00196184 0.0223354 0.00310719 0.0129268 0.00412217 0.0214531 0.00414914 0.0149399 0.00450987 0.0407302
7 1 Mg 6.18956 -6.37941e-06 2.9896 1.2 1 0.000598045 0.00419003 0.00163458 0.00423176 0.00139556 0.00566534 0.00247589 0.0161081 0.00282495 0.00557463 0.00187967 0.0223262 0.00261931 0.0134363 0.00354166 0.0204822 0.00451918 0.0149974 0.00484987 0.0387527
8 3 O 4.55118 1.31737 2.79288 -1.2 1 0.000824088 0.00430171 0.00204673 0.0043195 0.00180169 0.00569265 0.00265695 0.0170605 0.0025449 0.00678471 0.00231661 0.0215581 0.00320174 0.0123776 0.00318952 0.0217696 0.00476652 0.0157024 0.00536628 0.0399709
9 1 Mg -1.20682 0.0413099 4.4844 1.2 1 0.000658996 0.00253439 0.00176718 0.00451258 0.00147421 0.00536659 0.0020419 0.0161997 0.00210851 0.00596623 0.00219102 0.0227815 0.00307608 0.0119496 0.00358517 0.0206135 0.00551341 0.0158884 0.00521512 0.0385539
10 2 Si -3.0337 2.72544 4.4844 2.4 1 0.000735114 0.00310442 0.00185044 0.00498906 0.0022896 0.00599214 0.00334109 0.0169333 0.00320738 0.00643253 0.00233735 0.0238625 0.00319948 0.013139 0.00403533 0.0224901 0.00548242 0.0179017 0.00633695 0.0397251
11 3 O -3.08099 1.11221 4.4844 -1.2 1 0.000791709 0.00341501 0.0018264 0.00437587 0.00142506 0.00544129 0.00244803 0.0162872 0.00293936 0.00570774 0.00220571 0.0221987 0.00325544 0.0114552 0.00342114 0.0213014 0.00517162 0.0163848 0.00566772 0.0384338
12 3 O 0.582463 3.69946 4.4844 -1.2 1 0.00173852 0.0044048 0.00209482 0.00459788 0.00266995 0.00651614 0.00371518 0.0174515 0.00330785 0.0068988 0.00315874 0.0247753 0.00421755 0.0130825 0.0046296 0.0244677 0.00683063 0.0188936 0.00817538 0.0419114
13 3 O -2.29524 3.43162 3.18632 -1.2 1 0.00104696 0.00260176 0.00255613 0.00467976 0.0021912 0.00589965 0.00285597 0.0178923 0.00320313 0.00672634 0.00267672 0.0244277 0.00320675 0.0131346 0.00466771 0.0243808 0.00600153 0.0181238 0.00665544 0.04195
14 3 O -2.34216 3.43162 5.78248 -1.2 1 0.00149003 0.00369327 0.00127004 0.00514327 0.00273678 0.00584209 0.0030697 0.0173983 0.00278867 0.00771845 0.00286741 0.0232159 0.00434112 0.0124961 0.00418468 0.0237265 0.00657769 0.0199811 0.00780793 0.040923
15 1 Mg 1.12778 2.37449 2.9896 1.2 1 0.00126125 0.00368383 0.00239494 0.00442057 0.00224981 0.00583927 0.00308516 0.0168616 0.0026563 0.00625829 0.00231742 0.0234278 0.00301214 0.0130353 0.00339907 0.0221721 0.00491363 0.0166362 0.00584909 0.0407581
16 1 Mg 3.92855 2.33318 4.4844 1.2 1 0.00134672 0.00417369 0.00156541 0.00432351 0.00188163 0.00562838 0.0035658 0.0168745 0.00315731 0.00631487 0.00300992 0.022776 0.00378482 0.0134867 0.00498522 0.0220724 0.00657435 0.0174203 0.0071996 0.0403906
17 2 Si 2.09341 4.39804 4.4844 2.4 1 0.00168084 0.00422238 0.00192472 0.0043181 0.00312254 0.005946 0.00387772 0.0184158 0.00343055 0.00695635 0.00338419 0.0247869 0.00434247 0.0141881 0.00437036 0.0249151 0.00679437 0.0188543 0.00866127 0.043733
18 3 O 2.09991 6.01128 4.4844 -1.2 1 0.0024803 0.00440038 0.00155457 0.004259 0.00305039 0.00634952 0.00325507 0.0193914 0.00279301 0.00756173 0.00305319 0.0266339 0.00403623 0.0146333 0.004736 0.0277956 0.00682326 0.0199252 0.00821412 0.04574
19 3 O -4.52137 3.42402 4.4844 -1.2 1 0.00132472 0.00360421 0.00222965 0.00479829 0.00231026 0.00683926 0.00350569 0.017239 0.00324053 0.00652094 0.00293227 0.0236526 0.00402801 0.0130784 0.00396027 0.0230361 0.00637839 0.0181077 0.00745344 0.0415213
20 3 O 2.80834 3.69187 3.18632 -1.2 1 0.00136587 0.00378783 0.00162203 0.00372618 0.0021932 0.00588472 0.00305157 0.0174924 0.00310903 0.00648983 0.00277878 0.0240289 0.00341103 0.013133 0.00455225 0.0240291 0.00581518 0.0173383 0.00667511 0.0425573
21 1 Mg 1.17857 2.37449 0 1.2 1 0.00177505 0.00355429 0.00190386 0.00395623 0.00139058 0.00532694 0.00250187 0.0172736 0.00235774 0.00685162 0.0027277 0.0230108 0.00288016 0.0132986 0.00352953 0.0215652 0.00440174 0.0149893 0.00475177 0.0406139
22 3 O 2.76143 3.69187 5.78248 -1.2 1 0.00213463 0.00434997 0.00163787 0.00452341 0.00221089 0.00554409 0.00283606 0.0179828 0.00325463 0.00754043 0.0029862 0.0230755 0.00468847 0.0129343 0.00549775 0.0234807 0.00679699 0.0192228 0.0077353 0.0417271
23 1 Mg -1.67381 2.41581 1.4948 1.2 1 0.0010491 0.00244625 0.00252534 0.00468828 0.00143852 0.0058685 0.00225063 0.0167587 0.00270083 0.0063378 0.00190358 0.0240233 0.00243858 0.0142104 0.00272335 0.022282 0.00432507 0.0162382 0.00488974 0.0413432
24 2 Si 0.16286 0.350945 1.4948 2.4 1 0.00160911 0.00259569 0.00272012 0.00442656 0.00127238 0.00629543 0.00267447 0.0163383 0.00215445 0.00523703 0.00191448 0.0226981 0.0022872 0.0135012 0.00299217 0.0206811 0.00465926 0.0149192 0.00436493 0.0399674
25 3 O 0.15972 -1.26229 1.4948 -1.2 1 0.00169427 0.00258025 0.00290859 0.00432415 0.0017658 0.00595304 0.00249107 0.0164122 0.00230183 0.00546796 0.00242868 0.022666 0.00241107 0.0138488 0.00294991 0.0215851 0.00421199 0.0146814 0.00392469 0.040608
26 3 O 6.77654 1.32496 1.4948 -1.2 1 0.000937449 0.00349639 0.00172501 0.00458808 0.00125634 0.00583662 0.00232591 0.0167936 0.00269264 0.00570375 0.00180237 0.0235245 0.00269356 0.0136206 0.00347423 0.0218508 0.00462965 0.0154858 0.00436592 0.0405051
27 3 O -0.508028 1.05712 0.196716 -1.2 1 0.00154582 0.00257951 0.0030973 0.00397368 0.00136474 0.00555881 0.00241426 0.0170197 0.00190635 0.00671 0.00239179 0.0220208 0.00253397 0.0128608 0.00323857 0.0211381 0.00430651 0.0151699 0.00438611 0.0399332
28 3 O -0.552171 1.05712 2.79288 -1.2 1 0.000697519 0.00225442 0.00309681 0.00443978 0.00139083 0.00593297 0.00233254 0.0163274 0.0025348 0.00603334 0.00182035 0.0227178 0.00292452 0.0118379 0.00365917 0.0216053 0.00536156 0.0159828 0.00507461 0.0394185
29 1 Mg 6.31713 4.74899 0 1.2 1 0.000917329 0.00256198 0.00169108 0.00461883 0.00224003 0.00607869 0.0032208 0.0180383 0.00273116 0.00723978 0.00222974 0.0252368 0.00300984 0.0139605 0.00413786 0.0245848 0.00457818 0.0164311 0.00602502 0.0425746
30 1 Mg 3.54847 9.45668 1.4948 1.2 1 0.00152639 0.00317338 0.00181748 0.00466401 0.00195006 0.00751759 0.00311093 0.0214276 0.00162024 0.00857719 0.0022299 0.0284024 0.00320519 0.0155531 0.00375558 0.0295213 0.00437303 0.018403 0.00385926 0.048786
31 2 Si 5.36879 6.77254 1.4948 2.4 1 0.000864176 0.00274102 0.00202512 0.0051424 0.00259105 0.00683284 0.00367231 0.0196662 0.00261976 0.00788618 0.00263425 0.0275565 0.00331605 0.0153621 0.00411306 0.0271031 0.00473009 0.0175274 0.00536111 0.0464908
32 3 O 5.41937 8.38578 1.4948 -1.2 1 0.00132488 0.00318372 0.00167749 0.00521546 0.00214906 0.00764855 0.00305774 0.0210346 0.00209865 0.00848208 0.00245045 0.0290008 0.00236604 0.0156102 0.00304501 0.0293975 0.00485975 0.0176963 0.00487364 0.0480502
33 3 O 1.75158 5.79852 1.4948 -1.2 1 0.00137004 0.00334432 0.00177828 0.00399143 0.00232418 0.00591739 0.00318909 0.0195756 0.0027207 0.00744444 0.00272394 0.0276854 0.00291904 0.0156525 0.00343482 0.0270221 0.00537134 0.0177031 0.00558503 0.0455436
34 3 O 4.67421 6.06637 0.196716 -1.2 1 0.000802084 0.00289552 0.00167828 0.00478909 0.00186173 0.0067899 0.00292725 0.0198765 0.00232395 0.00828714 0.00217419 0.0261414 0.00348167 0.0144924 0.00412199 0.0267045 0.0046257 0.0167896 0.00569357 0.0449226
35 1 Mg 6.26654 4.74899 2.9896 1.2 1 0.00177493 0.00302181 0.00217069 0.00515444 0.00270533 0.00652078 0.00373623 0.0180712 0.00382089 0.00715422 0.00244654 0.0258043 0.00382196 0.0146482 0.00497585 0.025038 0.00593054 0.0179535 0.00702859 0.0434698
36 3 O 4.63043 6.06637 2.79288 -1.2 1 0.00237711 0.00331193 0.00177627 0.00502523 0.00238804 0.00680266 0.00338521 0.0194788 0.00328609 0.00796249 0.00253907 0.0259767 0.00389709 0.0146396 0.00450041 0.0275012 0.00591836 0.0185369 0.00703342 0.0456971
37 1 Mg -1.12976 4.79031 4.4844 1.2 1 0.00213881 0.00388461 0.00165175 0.0048933 0.00241615 0.00596437 0.00338104 0.0179939 0.00338321 0.00743479 0.00300426 0.0254144 0.00418928 0.0143173 0.00450497 0.0257953 0.00734661 0.0197096 0.00780468 0.0439433
38 2 Si -2.9517 7.47444 4.4844 2.4 1 0.00276102 0.00406728 0.00150848 0.00552598 0.00292398 0.00651921 0.00374377 0.0204827 0.00314783 0.00794069 0.00323469 0.0273855 0.00442425 0.0160696 0.00536007 0.0285774 0.00715443 0.0197853 0.00839345 0.0482018
39 3 O -3.00198 5.86121 4.4844 -1.2 1 0.00217433 0.00422687 0.00129052 0.00530313 0.00326245 0.00635487 0.00412013 0.0190552 0.00351787 0.00784594 0.00281804 0.0257712 0.00436238 0.0141964 0.00464111 0.027205 0.0071042 0.020327 0.00843091 0.045813
40 3 O 0.666315 8.44846 4.4844 -1.2 1 0.00294132 0.00490248 0.00138329 0.00508416 0.00299442 0.00753804 0.00291006 0.0213408 0.00319524 0.008211 0.0034713 0.0283618 0.0048503 0.0161096 0.00472707 0.0294501 0.00645847 0.0203387 0.00806061 0.0489066
41 3 O -2.21213 8.18062 3.18632 -1.2 1 0.00251798 0.00419814 0.00163352 0.00491673 0.0026342 0.00635899 0.00290113 0.020864 0.0027354 0.00814851 0.00297234 0.0274797 0.00415467 0.0159702 0.00500827 0.0292708 0.00599781 0.0192918 0.00680641 0.048764
42 3 O -2.25864 8.18062 5.78248 -1.2 1 0.00300526 0.00482296 0.00163151 0.00507955 0.00316041 0.00616091 0.00302141 0.0211635 0.00249279 0.00900313 0.00345964 0.0269234 0.00449378 0.0166272 0.00535176 0.0298615 0.00728615 0.0216888 0.00817684 0.0495965
43 1 Mg 1.20893 7.12349 2.9896 1.2 1 0.00195169 0.00389942 0.0016699 0.00445261 0.00291412 0.00668203 0.0036555 0.0198024 0.00276091 0.00828042 0.00286238 0.0279321 0.00357532 0.0158246 0.0038027 0.027756 0.00561501 0.0186069 0.00651537 0.0467635
44 1 Mg 4.00982 7.08218 4.4844 1.2 1 0.00261225 0.00412358 0.00148019 0.00493384 0.00273176 0.0064078 0.0037828 0.0202267 0.00344055 0.00791003 0.00329195 0.0272946 0.00443406 0.016476 0.00565892 0.0283502 0.00742373 0.0197342 0.00840427 0.0472529
45 2 Si 2.17861 9.14704 4.4844 2.4 1 0.00275373 0.00424987 0.0016071 0.00512869 0.00300729 0.00735572 0.00360668 0.0212429 0.00286662 0.00851989 0.00313996 0.0279964 0.0046959 0.0167105 0.00464411 0.0298051 0.00613532 0.0200024 0.00713351 0.0505748
46 3 O 2.18828 10.7603 4.4844 -1.2 1 0.00351957 0.00444656 0.00200357 0.00479904 0.00271426 0.00709607 0.00294096 0.0210218 0.00241678 0.00839261 0.00239519 0.0287144 0.0041505 0.0159784 0.00448727 0.0309696 0.00628389 0.0201916 0.00674711 0.0510933
47 3 O -4.43805 8.17302 4.4844 -1.2 1 0.00206066 0.00456877 0.001808 0.00538456 0.002649 0.00762778 0.00332807 0.0210116 0.00333824 0.00830052 0.00327702 0.0282898 0.0047566 0.0159041 0.00512164 0.0298014 0.0070704 0.0200361 0.00906533 0.0487279
48 3 O 2.89193 8.44087 3.18632 -1.2 1 0.00266652 0.00375945 0.00164116 0.00450175 0.00253782 0.00679113 0.00327314 0.0206698 0.00272441 0.00856188 0.00297419 0.0275407 0.00396749 0.0159562 0.00462413 0.0293465 0.0059756 0.0190078 0.00608574 0.0488094
49 1 Mg 1.25915 7.12349 0 1.2 1 0.000861992 0.00284243 0.0013653 0.00414816 0.00179442 0.00714336 0.0028319 0.0201342 0.00274603 0.00846881 0.00250613 0.0275327 0.0034636 0.014452 0.00339714 0.0277015 0.00444167 0.0175307 0.00466456 0.0460322
50 3 O 2.84547 8.44087 5.78248 -1.2 1 0.0027977 0.00493799 0.00163988 0.00497314 0.00259718 0.00673264 0.00323777 0.0212014 0.00315249 0.0090594 0.00345273 0.0268795 0.0054594 0.0166789 0.00541282 0.0301614 0.0064728 0.0218376 0.00788522 0.0499513
51 1 Mg -1.59284 7.16481 1.4948 1.2 1 0.0014017 0.00340171 0.00126433 0.00476311 0.00189652 0.00636506 0.00265899 0.0198725 0.00286216 0.00790009 0.0019156 0.0276535 0.00340632 0.0156555 0.00359168 0.0274864 0.00457353 0.0178489 0.00578336 0.0464991
52 2 Si 0.240329 5.09994 1.4948 2.4 1 0.00112343 0.00363679 0.00179165 0.00397516 0.00184307 0.00672186 0.00298495 0.0189731 0.00307185 0.00746149 0.00235858 0.0258878 0.00287743 0.0146942 0.00400253 0.0249184 0.00506786 0.017083 0.00542128 0.0445449
53 3 O 0.234538 3.48671 1.4948 -1.2 1 0.00139203 0.00370539 0.00241708 0.00419374 0.00181895 0.00631395 0.00253477 0.017932 0.00326875 0.00703376 0.00237287 0.0243854 0.00321976 0.0137468 0.00382089 0.0241219 0.00547405 0.0161918 0.00557106 0.0422686
54 3 O 6.85564 6.07396 1.4948 -1.2 1 0.0014353 0.00263845 0.00217402 0.00501977 0.00247859 0.00614524 0.00304201 0.0199793 0.00298032 0.00763011 0.0022551 0.0275251 0.00341004 0.0148168 0.00454735 0.0271109 0.00555423 0.0179481 0.00635113 0.0453429
55 3 O -0.429565 5.80612 0.196716 -1.2 1 0.000872363 0.00319603 0.00202514 0.00407796 0.00179342 0.00706807 0.00241132 0.019618 0.00276018 0.00863324 0.00248966 0.0256633 0.00261176 0.0142392 0.00382184 0.0260706 0.00488238 0.016941 0.00584643 0.0450412
56 3 O -0.473377 5.80612 2.79288 -1.2 1 0.00212385 0.00344508 0.00186569 0.00468779 0.00241509 0.00669872 0.00306032 0.0192796 0.00315102 0.00812057 0.00293047 0.025768 0.00367471 0.014675 0.00449076 0.0267367 0.00638133 0.0188568 0.00678119 0.0457521
57 1 Mg 6.40169 9.49799 0 1.2 1 0.000542904 0.0037356 0.00129621 0.00473877 0.00142399 0.00816117 0.00194157 0.0212117 0.00158938 0.00902797 0.00166673 0.028787 0.00226858 0.0148474 0.00257819 0.0298784 0.00372722 0.0180708 0.00410432 0.0475027
58 1 Mg 3.64209 14.2057 1.4948 1.2 1 0.00209395 0.00343136 0.00163012 0.00460666 0.00165363 0.00869293 0.00166556 0.0216136 0.00158655 0.00872948 0.00225211 0.0283902 0.0024611 0.0162041 0.0032663 0.0297024 0.00370779 0.0170281 0.00355376 0.0494429
59 2 Si 5.45748 11.5215 1.4948 2.4 1 0.00197367 0.00335903 0.00171117 0.00474164 0.00167283 0.00812337 0.00215908 0.0211903 0.00145422 0.00847044 0.0017968 0.0288807 0.00272354 0.0161972 0.00348597 0.0295474 0.00428622 0.0172299 0.00372907 0.0492277
60 3 O 5.51101 13.1348 1.4948 -1.2 1 0.00202676 0.00343636 0.00176504 0.00471753 0.00158166 0.00889135 0.00183941 0.02123 0.00171626 0.00878358 0.00159438 0.0293996 0.00205509 0.0162518 0.00296685 0.0301092 0.00388895 0.0169467 0.00349485 0.0491584
61 3 O 1.83851 10.5475 1.4948 -1.2 1 0.00140606 0.00350111 0.00160106 0.00481349 0.00176037 0.00764602 0.00223652 0.0216945 0.00161092 0.00854527 0.00215962 0.0292823 0.00252964 0.0157697 0.00341832 0.0300433 0.00432785 0.0181378 0.00355574 0.0493034
62 3 O 4.7611 10.8154 0.196716 -1.2 1 0.000688282 0.00313489 0.00168181 0.0046583 0.00140484 0.00835408 0.00222688 0.0214949 0.00142756 0.00895635 0.00197495 0.0282137 0.00304502 0.0156277 0.00392543 0.0295292 0.00385621 0.0173021 0.00350919 0.0485436
63 1 Mg 6.35203 9.49799 2.9896 1.2 1 0.00193978 0.00393217 0.00174565 0.00515262 0.00255852 0.00752489 0.00340532 0.0204104 0.00308907 0.00868181 0.00227232 0.0291894 0.00382058 0.0162162 0.00344345 0.029478 0.00472894 0.0188569 0.00549333 0.0488193
64 3 O 4.71833 10.8154 2.79288 -1.2 1 0.00275601 0.00360358 0.0016753 0.0047811 0.00213934 0.00810088 0.0022504 0.0214 0.00194888 0.00908421 0.00214566 0.0282904 0.00345316 0.0158763 0.00408501 0.0304692 0.00532015 0.0187346 0.00544018 0.0499889
65 1 Mg -1.0438 9.53931 4.4844 1.2 1 0.00323358 0.00490707 0.00153619 0.00483194 0.00302323 0.00676265 0.00279414 0.021123 0.00262356 0.00857551 0.0028545 0.028299 0.00405481 0.0168804 0.00461502 0.0302624 0.0066325 0.0203498 0.00724516 0.0503834
66 2 Si -2.8604 12.2234 4.4844 2.4 1 0.00330405 0.00430697 0.00202484 0.00484092 0.00273377 0.00771359 0.00319183 0.0220377 0.00263166 0.00888224 0.0023243 0.0282965 0.00435488 0.0169055 0.00459179 0.0302167 0.0059031 0.0198084 0.00647468 0.0518497
67 3 O -2.91391 10.6102 4.4844 -1.2 1 0.00333962 0.00464354 0.00179636 0.00474373 0.00282195 0.00718497 0.0033489 0.0209211 0.00247995 0.00808801 0.00214281 0.0286204 0.00435669 0.0161259 0.00449032 0.0309453 0.00618933 0.0201969 0.00687247 0.0508336
68 3 O 0.7596 13.1975 4.4844 -1.2 1 0.00347094 0.00405917 0.00192533 0.00507555 0.00273056 0.00868352 0.00280582 0.0223102 0.00273352 0.0086306 0.00287566 0.0290242 0.00428655 0.0166388 0.00464257 0.030423 0.00617291 0.0197336 0.00659232 0.051719
69 3 O -2.12001 12.9296 3.18632 -1.2 1 0.00359006 0.00384446 0.00187566 0.00446889 0.00247635 0.00765222 0.00251984 0.0220066 0.00232417 0.00855339 0.00219847 0.0281318 0.00365133 0.0164016 0.004646 0.0305324 0.00536191 0.0187361 0.0055042 0.0508458
70 3 O -2.16532 12.9296 5.78248 -1.2 1 0.00382114 0.00447052 0.0017468 0.00487593 0.00273175 0.00693674 0.00245182 0.0221763 0.00233024 0.00870502 0.00263339 0.0278136 0.00417391 0.0170975 0.00495946 0.0316279 0.00636363 0.0214837 0.00670601 0.0536685
71 1 Mg 1.29891 11.8725 2.9896 1.2 1 0.00251196 0.00356462 0.00184117 0.00490575 0.00237338 0.00795945 0.00271509 0.0212082 0.00244381 0.00877951 0.0019876 0.0291112 0.00341349 0.0163831 0.00361281 0.0301858 0.00485595 0.0181835 0.00497987 0.0499495
72 1 Mg 4.10033 11.8312 4.4844 1.2 1 0.00333468 0.00414267 0.00208264 0.00458785 0.00245319 0.00738241 0.00266686 0.0215419 0.00242115 0.00872303 0.00275676 0.0288057 0.00383293 0.0175526 0.00528304 0.0306556 0.0067518 0.0197881 0.00641368 0.0514129
73 2 Si 2.27333 13.896 4.4844 2.4 1 0.00340817 0.00359848 0.00167517 0.00504658 0.00277164 0.00805981 0.00324389 0.022004 0.00236272 0.00846837 0.00280385 0.0285195 0.00390088 0.0168489 0.00453819 0.0304535 0.00562671 0.0192556 0.00623969 0.0526166
74 3 O 2.28634 15.5093 4.4844 -1.2 1 0.00351531 0.0039929 0.00171732 0.00474143 0.0028611 0.0074522 0.00300982 0.0211492 0.00248767 0.00791896 0.00221894 0.0291082 0.00355498 0.0161643 0.00420709 0.0309211 0.00574768 0.0189954 0.006268 0.0521695
75 3 O -4.34533 12.922 4.4844 -1.2 1 0.0032589 0.00436682 0.00207621 0.00489132 0.00277237 0.00852064 0.00316414 0.0220123 0.00266954 0.00873461 0.00239687 0.0288689 0.00396942 0.0166579 0.00479139 0.0306458 0.0065074 0.0201894 0.00711002 0.0518284
76 3 O 2.98455 13.1899 3.18632 -1.2 1 0.00311943 0.00359647 0.00159986 0.00444114 0.0023697 0.00790593 0.0021715 0.0218736 0.00217125 0.00878748 0.00242636 0.0280302 0.0035012 0.0161427 0.00455909 0.0304472 0.00571726 0.0187216 0.00558331 0.0508019
77 1 Mg 1.34779 11.8725 0 1.2 1 0.00103156 0.00290678 0.00122621 0.00475982 0.00133446 0.00881901 0.00162795 0.021213 0.00119611 0.00927819 0.00191167 0.0290064 0.00278257 0.0149979 0.00298647 0.0301977 0.003251 0.0173618 0.00316725 0.0482016
78 3 O 2.93934 13.1899 5.78248 -1.2 1 0.003657 0.00446659 0.00183809 0.00500949 0.00254232 0.00727354 0.00260837 0.0220497 0.00239608 0.00852142 0.00294952 0.0277667 0.00431585 0.0168406 0.00456642 0.031504 0.0061484 0.0216874 0.00644705 0.0535155
79 1 Mg -1.50344 11.9138 1.4948 1.2 1 0.00154791 0.00355213 0.00142222 0.00468294 0.00147507 0.00820448 0.00196688 0.0217248 0.00241237 0.00866021 0.00146799 0.0287703 0.00347509 0.0162677 0.00344588 0.0298866 0.00370706 0.0177464 0.00386266 0.0491974
80 2 Si 0.326006 9.84894 1.4948 2.4 1 0.00106597 0.0034299 0.00116429 0.00495093 0.00182896 0.00803958 0.00204224 0.0211056 0.00202087 0.00867696 0.00161251 0.0286525 0.00299883 0.0157583 0.00361935 0.0291821 0.00397234 0.0178936 0.00362807 0.0485958
81 3 O 0.317364 8.23571 1.4948 -1.2 1 0.00176457 0.00353114 0.00105692 0.00451034 0.00175375 0.00762924 0.00205131 0.020375 0.00259365 0.00818793 0.00186153 0.0286191 0.00343165 0.0159143 0.00373623 0.028814 0.00451685 0.0178288 0.00434228 0.047516
82 3 O 6.94307 10.823 1.4948 -1.2 1 0.00166158 0.00372414 0.00151603 0.00474941 0.00172633 0.00766728 0.00260908 0.0218455 0.00228715 0.00846912 0.00155449 0.0294063 0.00287598 0.0158768 0.0034505 0.0302094 0.00389311 0.0182715 0.00410759 0.0492368
83 3 O -0.343122 10.5551 0.196716 -1.2 1 0.000777812 0.00313737 0.00106913 0.00471671 0.00136845 0.00840418 0.00190828 0.0213019 0.0016732 0.00916506 0.00197445 0.0281716 0.00336313 0.0154182 0.00427873 0.0295489 0.00370614 0.0175552 0.00358375 0.0483631
84 3 O -0.385966 10.5551 2.79288 -1.2 1 0.00299924 0.00391224 0.00127351 0.00475152 0.00252719 0.00790952 0.00222333 0.021648 0.00199953 0.00921922 0.00236171 0.027766 0.00379328 0.0160547 0.00430578 0.0303527 0.00543133 0.0189366 0.00518924 0.049915
85 1 Mg 6.49448 14.247 0 1.2 1 0.00100393 0.00346407 0.00167857 0.00478927 0.00101987 0.00909567 0.0013443 0.0212334 0.00127438 0.00865678 0.00144605 0.0287737 0.00169198 0.0155812 0.00253751 0.0299389 0.00320709 0.016697 0.00300362 0.0479984
86 1 Mg 3.74457 18.9547 1.4948 1.2 1 0.00226976 0.0032173 0.00141772 0.00411071 0.0018847 0.00860386 0.00136061 0.0222259 0.00189146 0.00806566 0.00219853 0.027808 0.00239034 0.0165868 0.00358716 0.028774 0.00368885 0.0165174 0.00347 0.0500347
87 2 Si 5.55495 16.2705 1.4948 2.4 1 0.00247997 0.00319861 0.00150922 0.00456861 0.00182549 0.0088661 0.00152001 0.0214279 0.00148857 0.0080316 0.00139024 0.0286704 0.00218604 0.0164077 0.00292636 0.0288706 0.00374133 0.0161654 0.00374545 0.049593
88 3 O 5.6115 17.8838 1.4948 -1.2 1 0.00248482 0.00315207 0.00165684 0.00436202 0.00181216 0.00915476 0.00150021 0.0215783 0.00194808 0.00791261 0.0014063 0.0287113 0.00191231 0.0166265 0.00276715 0.0290262 0.00336225 0.0158414 0.00362085 0.0496431
89 3 O 1.93416 15.2965 1.4948 -1.2 1 0.00213643 0.00324334 0.0015839 0.0046471 0.00176258 0.00834324 0.00200923 0.021867 0.00175586 0.00819154 0.00140969 0.0291047 0.00205722 0.0163857 0.00304301 0.0297661 0.00384035 0.0167314 0.00347572 0.04994
90 3 O 4.85636 15.5644 0.196716 -1.2 1 0.00158896 0.00284064 0.00154129 0.00465124 0.00148102 0.00901844 0.00139373 0.0213183 0.00126282 0.00818205 0.00170277 0.0281077 0.0026448 0.0163815 0.00355981 0.0293679 0.00324334 0.016015 0.00305147 0.0489062
91 1 Mg 6.44662 14.247 2.9896 1.2 1 0.00217891 0.00379668 0.00156804 0.00456686 0.00242167 0.00846859 0.00284911 0.0208914 0.0024465 0.00882284 0.00192816 0.0294336 0.00296518 0.0164539 0.00328404 0.0298857 0.00416787 0.0178852 0.0047657 0.049921
92 3 O 4.81537 15.5644 2.79288 -1.2 1 0.00301308 0.00336105 0.00154611 0.00453204 0.00225438 0.00874861 0.0017377 0.0218911 0.00159307 0.00871879 0.00177366 0.0280727 0.00277751 0.0165199 0.00362753 0.0296917 0.00478938 0.0176217 0.00495134 0.0504833
93 1 Mg -0.948271 14.2883 4.4844 1.2 1 0.00368748 0.00388217 0.00170915 0.00458286 0.00277162 0.00781843 0.00282222 0.0217196 0.00261887 0.00848782 0.00265172 0.0287258 0.0035897 0.0169786 0.00520057 0.0306721 0.00592662 0.0193304 0.00620936 0.0520106
94 2 Si -2.75928 16.9724 4.4844 2.4 1 0.00345817 0.00370072 0.00182151 0.00451915 0.00281619 0.00790248 0.00289083 0.0221894 0.00260252 0.00791256 0.00241823 0.0281797 0.00334677 0.0168911 0.00456459 0.0299843 0.00519622 0.0186876 0.00604393 0.0530156
95 3 O -2.81617 15.3592 4.4844 -1.2 1 0.00379862 0.00397337 0.00189698 0.00451041 0.00286025 0.0076427 0.0028945 0.0213088 0.00246554 0.00790342 0.00213633 0.0287995 0.00364699 0.0161729 0.00430967 0.0307521 0.00588493 0.0189053 0.00647109 0.0520272
96 3 O 0.862762 17.9465 4.4844 -1.2 1 0.00309623 0.00392459 0.00158027 0.00470084 0.00307323 0.00859494 0.00255853 0.022397 0.00256397 0.00789128 0.00233165 0.0289427 0.00383609 0.0171613 0.0045465 0.0294651 0.00572148 0.0186681 0.00614347 0.0526446
97 3 O -2.0185 17.6786 3.18632 -1.2 1 0.00327596 0.00335712 0.0017662 0.00393302 0.00262692 0.00755883 0.00226993 0.0223747 0.00231303 0.00798849 0.00211627 0.0277444 0.00336726 0.0164447 0.00459343 0.0300336 0.0049085 0.0177903 0.00524188 0.0516702
98 3 O -2.06164 17.6786 5.78248 -1.2 1 0.00323127 0.00421005 0.00169387 0.00457544 0.00283951 0.00704592 0.00253317 0.0225183 0.00257856 0.00805605 0.00267328 0.0277856 0.00364083 0.0173891 0.00509545 0.0312132 0.00589276 0.0204523 0.00632958 0.0548677
99 1 Mg 1.39817 16.6215 2.9896 1.2 1 0.00291373 0.00330684 0.00165744 0.0045916 0.00251595 0.00842363 0.00264415 0.0213528 0.00252167 0.00820576 0.00201669 0.0289567 0.00276378 0.0168887 0.00363215 0.029523 0.00426293 0.0169108 0.00442956 0.0504355
100 1 Mg 4.20062 16.5802 4.4844 1.2 1 0.00327118 0.00360166 0.00193911 0.00447056 0.00264996 0.00782261 0.00253233 0.0218575 0.00293323 0.00792952 0.00290942 0.0286635 0.00347526 0.0173934 0.00556109 0.0302612 0.00641133 0.0189794 0.00622307 0.0524557
101 2 Si 2.37796 18.645 4.4844 2.4 1 0.00285055 0.003738 0.00146027 0.00444791 0.00294008 0.00809223 0.00286368 0.0225265 0.00255532 0.00795609 0.00244863 0.0280127 0.00340328 0.0172221 0.00447527 0.0295375 0.0052537 0.0183455 0.00581631 0.0534344
102 3 O 2.39434 20.2583 4.4844 -1.2 1 0.00288771 0.00392916 0.00152804 0.00422011 0.00297809 0.00702718 0.00266261 0.0215597 0.00259036 0.00744292 0.00192343 0.0287166 0.00333559 0.0168046 0.00397893 0.0298973 0.00571344 0.0182734 0.00643737 0.0530524
103 3 O -4.24274 17.671 4.4844 -1.2 1 0.0029161 0.00415634 0.00196599 0.00446349 0.00279976 0.00866473 0.00289617 0.0223941 0.00290153 0.00805826 0.00240424 0.0287356 0.00344069 0.0168278 0.0049372 0.0299929 0.0058912 0.0190462 0.00662173 0.0526595
104 3 O 3.08659 17.9389 3.18632 -1.2 1 0.00313563 0.00315785 0.00150808 0.00407952 0.00264133 0.00797792 0.00208167 0.0221934 0.00232333 0.00799879 0.00208551 0.0277593 0.00311048 0.0164686 0.0044447 0.0296588 0.00524635 0.0176067 0.00544168 0.0515196
105 1 Mg 1.44478 16.6215 0 1.2 1 0.00206289 0.00288062 0.00138414 0.00452827 0.00119616 0.00894115 0.00127223 0.0214902 0.00127719 0.0081511 0.0014667 0.0285086 0.00245259 0.0158327 0.00238252 0.0293916 0.00287911 0.0161227 0.00299669 0.0488233
106 3 O 3.0436 17.9389 5.78248 -1.2 1 0.00312392 0.00417455 0.0015868 0.0047099 0.00272703 0.00717923 0.00241505 0.022336 0.00231609 0.0081155 0.00280804 0.0277074 0.00374075 0.0169894 0.00490513 0.0310244 0.00618685 0.0206476 0.00632926 0.0548079
107 1 Mg -1.40524 16.6628 1.4948 1.2 1 0.00195025 0.00336442 0.00142299 0.00446183 0.00180019 0.00871423 0.00197956 0.0221874 0.00189731 0.00825479 0.00165484 0.0283068 0.00299221 0.0168014 0.00301255 0.0294258 0.00291102 0.0167366 0.00324726 0.0495113
108 2 Si 0.420358 14.5979 1.4948 2.4 1 0.00204837 0.00313031 0.00145045 0.0050233 0.00197157 0.00909256 0.00190511 0.0214246 0.00148498 0.00832803 0.00138533 0.0284542 0.00289161 0.0166386 0.00350228 0.0288413 0.00356251 0.0166168 0.0036053 0.0493483
109 3 O 0.408732 12.9847 1.4948 -1.2 1 0.00192569 0.00306758 0.00131267 0.00491318 0.00175747 0.00896916 0.00152168 0.0212141 0.00217049 0.00854279 0.00130704 0.0290999 0.00306457 0.0161726 0.00315387 0.029878 0.00342168 0.0170449 0.00364763 0.0491508
110 3 O 7.03923 15.572 1.4948 -1.2 1 0.00204495 0.00361649 0.00158506 0.00457924 0.00195315 0.00823581 0.0022073 0.0216724 0.00224545 0.00820363 0.00168839 0.0292188 0.0026764 0.0163864 0.00302469 0.0297683 0.00347811 0.0169718 0.00388036 0.0495311
111 3 O -0.248332 15.3041 0.196716 -1.2 1 0.00169314 0.00283643 0.00131229 0.0046602 0.00101941 0.00908286 0.00188291 0.0213115 0.0012418 0.00842993 0.00174518 0.0280111 0.00295185 0.0158838 0.00385248 0.0293055 0.00319019 0.0162824 0.0031645 0.0486485
112 3 O -0.289436 15.3041 2.79288 -1.2 1 0.00339415 0.00362435 0.00129358 0.00448695 0.00241318 0.00855565 0.00199143 0.0221513 0.00175354 0.00873353 0.00181467 0.0276735 0.00299301 0.016658 0.00359557 0.0297875 0.00451171 0.0178733 0.00465866 0.0507091
113 1 Mg 6.59566 18.996 0 1.2 1 0.00132872 0.00330506 0.00157636 0.0042656 0.00100694 0.00867151 0.000996697 0.0217961 0.00125177 0.00773642 0.00129186 0.028125 0.00205467 0.0163488 0.00219134 0.0286963 0.00289868 0.0159791 0.00290839 0.0487217
114 1 Mg 3.85574 23.7037 1.4948 1.2 1 0.00164836 0.00276286 0.00122978 0.00403481 0.00170903 0.00745475 0.00113925 0.0230761 0.00180121 0.00743718 0.00212284 0.0272692 0.00240225 0.0174708 0.00375857 0.0283844 0.00331228 0.0172803 0.00350738 0.0508021
115 2 Si 5.66125 21.0195 1.4948 2.4 1 0.00201985 0.00249225 0.0012281 0.00418742 0.0019616 0.00824275 0.00158993 0.0218438 0.00146951 0.00747709 0.00140351 0.0280828 0.00241214 0.0172567 0.00271512 0.0280997 0.00354672 0.0157539 0.00411208 0.0502808
116 3 O 5.72074 22.6328 1.4948 -1.2 1 0.00181445 0.0026698 0.00167306 0.00401486 0.00182647 0.00814391 0.00153605 0.0223121 0.00197011 0.00721955 0.00130771 0.0280301 0.00202367 0.017239 0.00289372 0.0283731 0.0031896 0.0162878 0.00375609 0.0502453
117 3 O 2.03867 20.0455 1.4948 -1.2 1 0.00201984 0.00323245 0.0014975 0.00437787 0.00186953 0.00773938 0.00214837 0.0222765 0.00232044 0.00750485 0.00147272 0.0285839 0.00213421 0.0172033 0.00265447 0.0288951 0.00360393 0.0161049 0.00364101 0.0503906
118 3 O 4.96004 20.3134 0.196716 -1.2 1 0.00183642 0.00249811 0.00138541 0.00413881 0.00137607 0.00844956 0.00107546 0.0215709 0.00116093 0.007442 0.00156641 0.0276983 0.00265624 0.0165836 0.00383206 0.028652 0.00305813 0.0153035 0.00312973 0.0494819
119 1 Mg 6.55057 18.996 2.9896 1.2 1 0.00219761 0.0034899 0.00147987 0.00411173 0.0025044 0.00808451 0.00276854 0.0213755 0.00258228 0.00805785 0.00186111 0.0290999 0.00267149 0.0168784 0.00323108 0.028906 0.00399847 0.0170738 0.00474736 0.0507669