ITEM: TIMESTEP
1000
ITEM: NUMBER OF ATOMS
117
ITEM: BOX BOUNDS xy xz yz pp pp pp
0.0 7.1235 0.0
0.0 201.985 2.3745
0.0 119.584 0.0
ITEM: ATOMS id type x y z q2 q3 q4 q5 q6 q7 q8 q9 q10 q11 q12
2359 1 -2.03461 100.974 50.8871 0.0471242 0.0548973 0.245292 0.0219444 0.151925 0.0677802 0.287211 0.0682452 0.129298 0.0600463 0.135642
2362 2 0.726946 99.9856 52.5308 0.0233706 0.0952159 0.298612 0.0553612 0.17875 0.0725664 0.318203 0.0769389 0.154536 0.0703524 0.145773
2363 3 -0.83424 100.064 52.4636 0.0308506 0.0602136 0.221585 0.0339286 0.148329 0.0417547 0.264001 0.0394679 0.131524 0.0443409 0.139496
2366 3 1.51448 99.3421 53.7659 0.0228524 0.0885057 0.165957 0.041986 0.176397 0.0387682 0.283279 0.048615 0.0986246 0.0468458 0.13794
2382 1 7.10163 103.916 49.1169 0.132676 0.102846 0.104955 0.0540695 0.135201 0.108352 0.214071 0.0827864 0.147024 0.0971027 0.179231
2383 2 -0.0921902 102.078 49.4038 0.0199717 0.067596 0.29002 0.0593731 0.148783 0.0576701 0.270158 0.0583648 0.165266 0.061337 0.145251
2384 3 1.45183 101.939 49.4261 0.023248 0.0347086 0.248151 0.0216259 0.158378 0.0274357 0.263742 0.0457481 0.144261 0.0344986 0.162855
2385 3 3.23908 105.767 49.1246 0.0484655 0.0796265 0.206812 0.0478943 0.115372 0.0641447 0.249592 0.0436184 0.095862 0.0535357 0.113399
2386 3 -0.886703 102.762 48.1602 0.0294973 0.0674035 0.161183 0.04179 0.167116 0.0530991 0.246613 0.0454745 0.104928 0.0493361 0.162694
2388 3 -0.747988 102.612 50.7205 0.0384719 0.0584979 0.153293 0.0469702 0.182628 0.0441469 0.247686 0.0447633 0.145121 0.0503499 0.1491
2389 1 1.91075 108.601 51.9864 0.0453702 0.0824072 0.128823 0.0609553 0.183981 0.0523402 0.242146 0.0605732 0.123031 0.0488806 0.153974
2392 3 5.87909 106.687 52.2657 0.0839876 0.0383107 0.180838 0.0409114 0.135131 0.0264538 0.247821 0.0621455 0.151865 0.0551906 0.151724
2395 1 4.58773 106.079 50.6638 0.0786586 0.0245195 0.286415 0.0471945 0.160331 0.0507825 0.276601 0.0502088 0.107524 0.0528192 0.12649
2396 1 -0.128537 103.175 52.5063 0.0400934 0.116399 0.112707 0.0682444 0.148815 0.091685 0.222365 0.0676354 0.0962333 0.072476 0.142403
2397 2 6.61379 105.218 52.1082 0.178698 0.0640062 0.146052 0.0602531 0.0827947 0.0510842 0.224061 0.0491465 0.128934 0.055249 0.123755
2398 3 3.4387 105.324 52.1561 0.0718389 0.0683943 0.204259 0.0390295 0.115083 0.0386021 0.176139 0.0438391 0.117505 0.0471512 0.11201
2399 3 1.33773 101.491 52.5311 0.0365231 0.0293731 0.228701 0.041686 0.159858 0.0540549 0.262711 0.0504025 0.150814 0.0498969 0.143443
2400 3 6.05855 104.669 50.7232 0.0633969 0.0833398 0.164506 0.0505757 0.159434 0.0461657 0.21745 0.0655372 0.108874 0.0587656 0.125548
2401 1 4.60811 106.208 47.7111 0.0675514 0.0192268 0.330665 0.0327457 0.162105 0.0345152 0.291709 0.0335713 0.117448 0.053889 0.143007
2402 3 6.0627 104.34 53.2846 0.0953428 0.0800072 0.142866 0.0746658 0.103869 0.057151 0.189016 0.0506245 0.12832 0.0482673 0.0998484
2403 1 4.44864 109.193 49.1646 0.015971 0.131006 0.116185 0.06036 0.216005 0.0916746 0.293679 0.0857797 0.139571 0.0909949 0.195159
2404 2 2.52609 107.274 49.1535 0.0431257 0.0447043 0.208735 0.0654296 0.120822 0.0757888 0.235024 0.0596814 0.109438 0.0577033 0.122286
2405 3 5.71499 107.144 49.2246 0.0970421 0.04318 0.180857 0.0432559 0.136662 0.0438298 0.270264 0.0573948 0.139138 0.0455685 0.16061
2408 3 3.14555 107.932 50.4708 0.0246964 0.080013 0.170531 0.0482348 0.159977 0.0401307 0.245141 0.0424168 0.0994289 0.0394053 0.117647
2639 1 -1.92279 100.97 56.8362 0.0336978 0.0332697 0.213602 0.0502693 0.164675 0.0661632 0.217718 0.0720681 0.169934 0.0587691 0.146171
2641 1 -1.18951 97.9696 58.6083 0.0302326 0.126142 0.11745 0.0629772 0.207639 0.0810855 0.255151 0.088597 0.155625 0.069815 0.15322
2642 2 1.38068 99.7812 58.6676 0.0210645 0.0632667 0.250034 0.0544139 0.148321 0.0879024 0.237363 0.0817113 0.155554 0.0720435 0.154718
2643 3 -0.149219 99.8983 58.7441 0.0295641 0.0619185 0.209283 0.048346 0.151546 0.0426462 0.199326 0.0666816 0.154904 0.041691 0.135622
2644 3 2.48191 96.2244 58.5287 0.0361073 0.0518506 0.184843 0.0306988 0.212492 0.0401449 0.296833 0.0388917 0.153478 0.0336509 0.179098
2645 3 1.86354 99.2715 57.2049 0.0342808 0.0774447 0.149705 0.0479025 0.184361 0.0633807 0.23211 0.0640072 0.164011 0.0511521 0.140181
2646 3 2.19743 99.007 59.7688 0.0424631 0.0663138 0.112864 0.0588678 0.213308 0.0465263 0.248077 0.0435996 0.125118 0.0602392 0.163821
2647 1 0.909412 95.8363 56.9668 0.0340942 0.0150392 0.241026 0.0184919 0.170668 0.0239168 0.308489 0.0253393 0.11774 0.0295473 0.168157
2655 1 0.711386 98.7774 55.5176 0.0418938 0.114354 0.110487 0.0567834 0.210612 0.089475 0.254053 0.108444 0.138629 0.0585263 0.175817
2656 2 -1.27855 96.8782 55.4588 0.0196276 0.0760856 0.269888 0.0727651 0.145576 0.080989 0.277487 0.0776357 0.106163 0.0593895 0.14134
2657 3 1.92023 96.7423 55.4772 0.0293051 0.0639095 0.247503 0.037364 0.184115 0.039215 0.282033 0.0562041 0.121835 0.0416363 0.165636
2658 3 -0.506511 100.507 55.3524 0.0325931 0.0577703 0.180877 0.050418 0.179882 0.0556071 0.225667 0.0774518 0.138006 0.0650216 0.15472
2660 3 -0.499099 97.5022 56.7609 0.0302163 0.100203 0.153261 0.0504885 0.197277 0.0382146 0.27342 0.0548857 0.140718 0.053236 0.15365
2661 1 -2.01772 101.044 53.9271 0.0539171 0.033843 0.208985 0.024487 0.151092 0.0393648 0.224714 0.0518159 0.095072 0.0527053 0.134851
2662 1 6.9215 104.034 55.0331 0.187591 0.0947742 0.0935208 0.0720297 0.0980046 0.0797227 0.159163 0.0729913 0.120318 0.0641534 0.125648
2663 2 0.0186549 102.067 55.5455 0.0223093 0.0500232 0.261226 0.0721094 0.154628 0.063008 0.201621 0.084647 0.18046 0.0921348 0.139814
2664 3 1.57317 102.041 55.5006 0.0249278 0.0410019 0.219811 0.0329864 0.12541 0.0481794 0.178371 0.0496788 0.127066 0.0345946 0.114483
2665 3 2.74845 106.015 54.8818 0.0445313 0.0486235 0.230783 0.038675 0.164611 0.0493569 0.21136 0.0549723 0.145523 0.0560248 0.120886
2666 3 -0.823614 102.752 54.369 0.0265732 0.0708912 0.154521 0.0479947 0.13613 0.0316591 0.186497 0.0586421 0.132758 0.0517042 0.100811
2668 3 -0.494643 102.375 56.9677 0.0225102 0.0566435 0.212329 0.0606149 0.147829 0.0626274 0.182236 0.0656246 0.169217 0.0640383 0.137941
2669 1 1.37153 108.688 58.0137 0.0622181 0.0964427 0.140149 0.0591244 0.204898 0.0762132 0.274036 0.0701541 0.142702 0.0640702 0.141367
2672 3 5.03762 106.904 58.022 0.0448831 0.046611 0.169247 0.0387686 0.175779 0.0421312 0.257718 0.0423808 0.146872 0.0432809 0.136565
2673 3 4.77566 109.868 56.9595 0.0383345 0.0824536 0.143436 0.0485252 0.148282 0.0588891 0.297754 0.0511134 0.142249 0.0626567 0.153597
2675 1 3.86219 106.424 56.494 0.0624474 0.0511289 0.262749 0.0372537 0.202332 0.0695601 0.250069 0.0539091 0.163812 0.0486993 0.117211
2676 1 0.354173 102.599 58.7105 0.0262015 0.112407 0.148212 0.0563514 0.126458 0.0425995 0.192372 0.0782409 0.120959 0.056612 0.158648
2677 2 5.77168 105.415 57.8041 0.0756176 0.0484047 0.250208 0.0733801 0.124589 0.0548489 0.249059 0.0874296 0.130288 0.0859165 0.150526
2678 3 2.54711 105.647 57.9326 0.0320091 0.0385293 0.208088 0.036472 0.144434 0.0405205 0.192518 0.0693349 0.11377 0.0496307 0.11454
2679 3 1.93453 101.27 58.6131 0.0223882 0.0566319 0.208151 0.0375372 0.136204 0.0527396 0.198808 0.050498 0.144648 0.0716618 0.152812
2680 3 5.45246 104.845 56.3602 0.0498196 0.0622684 0.165028 0.0501978 0.155251 0.0570788 0.186738 0.0627409 0.125756 0.0600145 0.122158
2681 1 4.20904 106.574 53.5388 0.0468032 0.0502528 0.227067 0.0401373 0.138188 0.0383403 0.220655 0.0563965 0.125791 0.0574689 0.110041
2682 3 5.02986 104.605 58.9383 0.0634875 0.0986675 0.191497 0.0543144 0.137825 0.0503713 0.217887 0.066204 0.10907 0.066269 0.160674
2683 1 4.07628 109.285 55.1259 0.0322373 0.120625 0.0767295 0.0529545 0.136664 0.0765267 0.307441 0.0707873 0.134962 0.0811661 0.161908
2684 2 1.97479 107.467 54.9751 0.0418092 0.0686537 0.250983 0.0419357 0.181045 0.0655227 0.260931 0.0431083 0.136313 0.0528296 0.142179
2685 3 5.18078 107.445 55.0703 0.0612853 0.0215516 0.18617 0.0550945 0.150199 0.0419874 0.235515 0.0598253 0.166106 0.0439365 0.132615
2687 3 2.76591 108.205 53.8119 0.0455776 0.0592765 0.130235 0.0565062 0.191208 0.0634706 0.26592 0.0411421 0.123617 0.0503364 0.161037
2688 3 2.59575 108.097 56.3855 0.0303539 0.0898447 0.166872 0.0471152 0.185975 0.0661956 0.257492 0.0445926 0.130068 0.0474439 0.121548
2919 1 -0.692998 100.788 63.2687 0.0538854 0.0372179 0.287971 0.0419656 0.214884 0.0761898 0.246004 0.0580812 0.160419 0.05604 0.139758
2921 1 -0.6224 97.7976 64.5844 0.0373213 0.129003 0.152787 0.0463215 0.194517 0.0982953 0.28427 0.0783203 0.116649 0.0933438 0.164546
2922 2 2.06174 99.6185 64.7245 0.0179735 0.0762711 0.299403 0.0722212 0.193009 0.0660552 0.276441 0.0668276 0.147568 0.0709231 0.171961
2923 3 0.478036 99.711 64.767 0.0285639 0.0506412 0.230787 0.041317 0.171515 0.0556668 0.226108 0.0494241 0.146025 0.040463 0.149506
2925 3 2.64517 98.9581 63.3965 0.0287039 0.0899568 0.159093 0.046533 0.208631 0.0554823 0.259678 0.0436693 0.116084 0.0487834 0.15016
2926 3 2.76969 98.9075 65.9865 0.0297257 0.0860803 0.120791 0.0418853 0.202506 0.0610045 0.255107 0.0525784 0.121535 0.0588277 0.169322
2933 1 1.20455 95.6649 59.987 0.0619088 0.00825002 0.307098 0.0120811 0.200208 0.0195332 0.341417 0.0161528 0.151412 0.0250346 0.186715
2935 1 1.40283 98.4091 61.6572 0.0472136 0.129398 0.0946722 0.0640511 0.197757 0.0799198 0.2583 0.0889858 0.131397 0.0751945 0.173121
2936 2 -0.722101 96.6142 61.5308 0.0214643 0.0747055 0.234297 0.0604027 0.16754 0.0542503 0.28691 0.0612707 0.13585 0.0613594 0.153793
2937 3 2.47096 96.5621 61.5076 0.0176758 0.0558888 0.246882 0.0300976 0.174154 0.0408592 0.293697 0.042968 0.119308 0.0385796 0.165413
2938 3 0.517926 100.181 61.7164 0.0537469 0.0443482 0.18883 0.0440632 0.214612 0.043833 0.240327 0.044819 0.140875 0.0508887 0.159389
2939 3 -0.135524 97.3256 60.2357 0.0209974 0.0753005 0.18371 0.0522798 0.194948 0.0410433 0.276996 0.0496637 0.129225 0.0431153 0.151836
2940 3 0.126206 97.2146 62.7753 0.0272893 0.113333 0.16931 0.041419 0.188814 0.0542222 0.304959 0.0609779 0.110883 0.0695724 0.172256
2941 1 -1.1575 100.48 60.334 0.0323087 0.0614561 0.190841 0.054643 0.175844 0.0696893 0.228144 0.0706043 0.103697 0.082529 0.148823
2942 1 5.16128 104.487 60.8624 0.0521982 0.0983542 0.157231 0.0692022 0.137934 0.0605016 0.2298 0.0685419 0.120551 0.0770217 0.179732
2943 2 1.24924 101.68 61.8745 0.0504083 0.0600612 0.270176 0.0499989 0.168251 0.0485285 0.224408 0.0710008 0.144747 0.0744191 0.129238
2944 3 2.81825 101.471 61.8182 0.0466047 0.0468091 0.213139 0.0281019 0.147688 0.0491573 0.199112 0.0572604 0.125566 0.044256 0.129063
2945 3 1.79707 105.857 60.8878 0.0252258 0.0631144 0.21561 0.0397699 0.145065 0.0566354 0.22409 0.0566965 0.122238 0.0623278 0.165907
2946 3 0.596517 102.509 60.7068 0.0298543 0.0643598 0.188669 0.0348549 0.145373 0.0477234 0.208236 0.0581834 0.132908 0.0522687 0.172229
2948 3 0.786583 102.245 63.2329 0.0304385 0.0754179 0.172043 0.0472744 0.164142 0.0597351 0.179127 0.0502561 0.158333 0.0542993 0.130505
2949 1 0.717956 108.393 64.0395 0.0295543 0.141539 0.116083 0.0559759 0.17476 0.0915663 0.257495 0.110419 0.126731 0.0735543 0.170441
2952 3 4.12339 106.596 64.2557 0.0244612 0.0484675 0.17932 0.0462861 0.181141 0.0577821 0.237915 0.0777382 0.10841 0.05606 0.169504
2953 3 4.19392 109.552 62.9541 0.0334358 0.103732 0.149945 0.0480102 0.218997 0.0451509 0.273194 0.0558046 0.136934 0.0580646 0.184702
2955 1 2.91699 106.209 62.5433 0.043874 0.0708087 0.277298 0.0466841 0.190633 0.0442018 0.262954 0.053979 0.133086 0.0528485 0.155663
2956 1 2.1469 103.082 64.6796 0.0282488 0.16732 0.135988 0.0831603 0.137001 0.0674258 0.18413 0.0836914 0.102046 0.0640118 0.129638
2957 2 4.70158 104.986 64.0219 0.0242234 0.0619417 0.274143 0.0846684 0.163793 0.0539712 0.21782 0.0947473 0.10231 0.082967 0.131007
2958 3 1.52503 105.027 64.0876 0.0273287 0.0409396 0.219727 0.0426131 0.145515 0.039259 0.192746 0.055598 0.098441 0.0339408 0.12524
2959 3 2.73087 101.085 64.8024 0.0398603 0.0457412 0.234139 0.0438048 0.180079 0.0492297 0.205936 0.047183 0.169642 0.0670902 0.152427
2960 3 4.1861 104.805 62.5557 0.0232772 0.0538108 0.171884 0.0682557 0.179636 0.0628291 0.198994 0.0539999 0.129264 0.0607499 0.144255
2961 1 3.52461 106.613 59.3455 0.0311354 0.025955 0.274682 0.036382 0.14269 0.0730811 0.275982 0.0609139 0.137411 0.0694479 0.140529
2962 3 3.92431 104.26 65.2078 0.0185154 0.0984277 0.154411 0.0546975 0.13567 0.0490154 0.192704 0.0571922 0.112426 0.0532627 0.113827
2963 1 3.37172 109.243 61.0952 0.0495816 0.116796 0.104869 0.0564728 0.192138 0.0825271 0.267552 0.0909763 0.149709 0.0630791 0.180591
2964 2 1.21968 107.383 60.9689 0.0245449 0.0840205 0.243473 0.0487361 0.172884 0.0790012 0.266851 0.0862054 0.156704 0.0721907 0.154639
2965 3 4.43167 107.33 60.9356 0.0332986 0.0718977 0.232219 0.0499576 0.160233 0.0384485 0.235415 0.0528076 0.142371 0.043205 0.141397
2967 3 2.04417 108.138 59.8304 0.0435752 0.0694561 0.136149 0.0494515 0.190387 0.0541915 0.263028 0.0549382 0.142713 0.0552729 0.153657
2968 3 1.80025 107.822 62.3933 0.0313923 0.072391 0.173037 0.0358526 0.193652 0.0600793 0.245975 0.051102 0.137284 0.0491378 0.145489
3199 1 -0.232106 100.9 69.0845 0.0495245 0.056854 0.295894 0.0456257 0.193121 0.0500162 0.280502 0.0584501 0.128246 0.0628833 0.156109
3205 3 3.01185 99.2232 69.263 0.023088 0.0776749 0.168109 0.0541125 0.199155 0.0453259 0.267062 0.044266 0.111712 0.046831 0.157411
3215 1 1.89812 98.4777 67.7057 0.054617 0.0923142 0.131389 0.068132 0.184823 0.0604433 0.260141 0.0709852 0.127618 0.0571968 0.161996
3218 3 1.07134 100.351 67.5893 0.0406821 0.0482619 0.225649 0.032974 0.206864 0.0429032 0.250812 0.0430584 0.154534 0.0530325 0.178981
3221 1 -0.501307 100.362 66.3155 0.0223026 0.0302418 0.222264 0.0360317 0.181724 0.0301846 0.223977 0.049432 0.124735 0.0475375 0.142024
3222 1 4.70148 103.897 67.1058 0.0198869 0.153644 0.10835 0.0903293 0.174523 0.0866993 0.239917 0.0926069 0.0904618 0.0767554 0.167222
3223 2 1.86006 101.855 67.5885 0.0395797 0.0634654 0.276392 0.0497621 0.173352 0.0503389 0.236986 0.0661773 0.134874 0.0679799 0.151865
3224 3 3.38583 101.709 67.567 0.0310458 0.0439473 0.207092 0.0261232 0.160921 0.0452698 0.206317 0.0484014 0.132426 0.0536621 0.153005
3225 3 1.28969 105.644 67.0967 0.0294043 0.0295274 0.220713 0.0490742 0.172088 0.0337241 0.250086 0.0432516 0.119077 0.0415872 0.155083
3226 3 1.33111 102.728 66.4164 0.021378 0.0966985 0.159346 0.06501 0.142222 0.0405582 0.193751 0.0532803 0.109964 0.0609509 0.136135
3228 3 1.22786 102.51 68.9076 0.0328664 0.0914865 0.146661 0.0460056 0.189238 0.0475748 0.247687 0.0584768 0.106245 0.0473874 0.151667
3235 1 2.58811 106.09 68.5892 0.0508639 0.0163062 0.338343 0.01664 0.201899 0.0317199 0.345812 0.0218346 0.147783 0.0420144 0.160006
3236 1 2.26929 103.21 70.4665 0.0382571 0.137147 0.116439 0.0593015 0.181662 0.0770484 0.266898 0.094984 0.110386 0.0728037 0.163899
3237 2 4.55356 105.06 70.1434 0.0210917 0.100272 0.315142 0.0641028 0.191066 0.0670284 0.32169 0.0775232 0.1446 0.0860209 0.156293
3238 3 1.38038 105.13 70.2068 0.0255352 0.0457705 0.233088 0.0298613 0.169801 0.0335127 0.271327 0.0531063 0.121325 0.0397223 0.174538
3239 3 3.13825 101.338 70.52 0.0359245 0.0508585 0.223399 0.0419749 0.193398 0.0391478 0.282518 0.045486 0.12555 0.0593913 0.170475
3240 3 3.88163 104.539 68.7709 0.0179368 0.08574 0.16641 0.0536948 0.19232 0.0377784 0.276105 0.0524312 0.1131 0.0499202 0.148587
3241 1 2.65248 106.071 65.6152 0.0190551 0.0528745 0.253915 0.0386018 0.150047 0.0423319 0.238596 0.0564366 0.0876489 0.043209 0.139776
3244 2 0.664354 107.169 67.0734 0.0115224 0.117982 0.263926 0.0583755 0.166048 0.0677691 0.305182 0.0697938 0.16233 0.069573 0.157127
3245 3 3.86316 107.003 67.1392 0.0259039 0.0649972 0.263612 0.0358439 0.16774 0.0384517 0.280784 0.0366893 0.140294 0.0474362 0.159072
3247 3 1.49992 107.848 65.8464 0.0295732 0.0917018 0.15208 0.0428619 0.172794 0.0436589 0.275821 0.0484937 0.117306 0.0495897 0.144575
