ITEM: TIMESTEP
3000
ITEM: NUMBER OF ATOMS
756
ITEM: BOX BOUNDS pp pp pp
-4.8435403183999997e+00 9.6870806368999993e+00
-1.0186409263300000e+01 2.0372818526500001e+01
-6.0013959751000003e+00 1.2002791950200001e+01
ITEM: ATOMS id type x y z q2 q3 q4 q5 q6 q7 q8 q9 q10 q11 q12
1 1 0.000940671 -10.2323 0.0567068 0.0453942  0.0227538  0.328924  0.0273914  0.187758  0.0379427  0.363056  0.0353929  0.130496  0.0297108  0.188725  
2 1 -0.0686629 -7.39954 -4.41188 0.0501671  0.116258  0.151853  0.0434585  0.17391  0.0662872  0.340622  0.0748735  0.0830901  0.0660417  0.16783  
3 2 -2.69722 -9.24203 -4.60293 0.0232741  0.115175  0.259224  0.0604587  0.1701  0.0718272  0.323416  0.0712225  0.132163  0.0675771  0.185034  
4 3 -1.14801 -9.32602 -4.41274 0.0203692  0.0350916  0.232299  0.0219412  0.180925  0.0251231  0.312213  0.025808  0.106007  0.0258327  0.187278  
5 3 -3.78746 -5.62543 -4.45378 0.0476081  0.0800223  0.203466  0.041007  0.213592  0.0404726  0.333055  0.049375  0.118148  0.0494589  0.209767  
6 3 -3.41028 -8.58047 -5.86542 0.0346831  0.0905663  0.171043  0.0406298  0.186932  0.0436233  0.333455  0.0481239  0.0810108  0.0496129  0.173544  
7 1 0.0919868 -10.2108 -3.00097 0.0408975  0.0166927  0.290463  0.0254634  0.192368  0.0279827  0.349493  0.0401866  0.121721  0.0373763  0.187327  
8 3 -3.4777 -8.55184 -3.34587 0.0323296  0.0944707  0.13997  0.0494664  0.189507  0.0477654  0.322487  0.0517016  0.0845545  0.0555704  0.17986  
9 1 -4.72404 -2.83762 -1.48312 0.0507715  0.10394  0.132836  0.048126  0.18127  0.0702453  0.34065  0.0756954  0.0758262  0.0648788  0.165092  
10 2 -2.10258 -0.959288 -1.54661 0.0196716  0.106552  0.274453  0.0611951  0.184158  0.0701209  0.326824  0.0715482  0.110718  0.073141  0.178876  
11 3 -3.65333 -0.89991 -1.49997 0.0234814  0.0459997  0.228474  0.0347451  0.173891  0.0322519  0.31197  0.0368956  0.0931147  0.0342765  0.185651  
12 3 -1.02097 -4.52794 -1.47013 0.047658  0.0758561  0.195818  0.0406696  0.212075  0.0389934  0.332285  0.0511583  0.124847  0.048675  0.208075  
13 3 -1.37398 -1.64651 -2.71247 0.0320637  0.0893987  0.168361  0.0404643  0.195351  0.0500173  0.338122  0.0508127  0.0789543  0.0540427  0.188745  
14 3 -1.37168 -1.54953 -0.193839 0.0316525  0.091043  0.167222  0.0411948  0.18988  0.0455294  0.331512  0.0527631  0.0775114  0.0470648  0.176277  
15 1 -2.51724 -5.14002 -2.92797 0.035981  0.0287685  0.284805  0.0328649  0.194381  0.0458748  0.340376  0.0530858  0.109431  0.0328065  0.191231  
16 1 -2.57351 -7.9065 -1.55194 0.0459981  0.109344  0.148917  0.0639035  0.165887  0.0648774  0.339248  0.0728615  0.06929  0.0725409  0.145258  
17 2 -0.348684 -6.00954 -1.49622 0.0229761  0.106238  0.2756  0.0642487  0.179815  0.0695644  0.330296  0.0733119  0.102994  0.0757165  0.175896  
18 3 -3.64085 -6.03695 -1.54644 0.0223996  0.0499721  0.2277  0.0308639  0.170145  0.036185  0.30504  0.0334033  0.0940517  0.0364586  0.188377  
19 3 -1.40911 -9.67847 -1.46781 0.0475001  0.0790018  0.204703  0.0358429  0.206337  0.0471083  0.32608  0.0431459  0.131369  0.0496314  0.195082  
20 3 -1.05243 -6.70035 -2.7106 0.0319216  0.0929932  0.165747  0.0420445  0.18735  0.0449862  0.329691  0.0481358  0.0673917  0.056472  0.168352  
21 1 -2.37823 -5.08518 0.0537284 0.0384157  0.0508985  0.342214  0.0256274  0.180246  0.0491642  0.34966  0.0332099  0.107426  0.0469629  0.174239  
22 3 -0.965939 -6.61897 -0.135744 0.0324385  0.100225  0.140031  0.0393165  0.192148  0.0556192  0.320125  0.0594501  0.0907613  0.0632381  0.184132  
23 1 -2.30092 -2.2814 -4.44897 0.0474774  0.116956  0.107255  0.0606193  0.187604  0.071703  0.339563  0.0768366  0.0968255  0.0731623  0.206425  
24 2 -4.49455 -4.09241 -4.48407 0.0210971  0.106821  0.280782  0.0651272  0.180076  0.0676033  0.334756  0.0716812  0.126481  0.0703961  0.186434  
25 3 -1.25886 -4.1825 -4.37712 0.0181212  0.0430315  0.231662  0.0326  0.173323  0.0323867  0.326542  0.0266766  0.0929606  0.032975  0.185523  
26 3 -3.39143 -0.500005 -4.5111 0.0482777  0.0783487  0.196942  0.0403986  0.215307  0.045352  0.327693  0.0569627  0.118366  0.0529474  0.206957  
27 3 -3.71358 -3.48573 -5.72904 0.0327984  0.087339  0.168167  0.0468468  0.194029  0.0418755  0.335392  0.0514672  0.0819533  0.0538731  0.178506  
28 3 -3.82334 -3.37883 -3.18767 0.030024  0.0908333  0.14674  0.050316  0.195568  0.0444569  0.326269  0.0581567  0.0883156  0.0562875  0.194784  
30 1 -0.0555084 -7.30662 1.52169 0.0398069  0.140664  0.0591592  0.0521011  0.191946  0.0860129  0.317531  0.0975465  0.105687  0.0841338  0.207151  
31 2 -2.75449 -9.14145 1.52179 0.0205871  0.0886681  0.299649  0.0750554  0.185043  0.0659143  0.328973  0.0703038  0.130392  0.0708192  0.18038  
32 3 -1.18981 -9.26287 1.53919 0.0247067  0.0475716  0.230108  0.0244964  0.167217  0.034001  0.308513  0.0285491  0.0998877  0.027262  0.18118  
33 3 -3.74716 -5.55992 1.45777 0.048855  0.0760608  0.197425  0.0373598  0.213273  0.0420159  0.322943  0.0468741  0.121521  0.0436179  0.202004  
34 3 -3.46276 -8.48011 0.235128 0.0365026  0.0828029  0.164102  0.0533176  0.201153  0.0445942  0.33309  0.0481397  0.0831711  0.0551429  0.1776  
36 3 -3.385 -8.47061 2.7727 0.0335202  0.0924336  0.139865  0.0472297  0.191621  0.0477765  0.322995  0.0492466  0.0907603  0.0583036  0.176449  
51 1 -2.38894 -2.17037 1.53398 0.0478621  0.112427  0.106343  0.0486962  0.185832  0.0741971  0.326147  0.0758868  0.0795733  0.0564545  0.177573  
52 2 -4.53772 -4.0945 1.49272 0.0181575  0.118276  0.254717  0.0593274  0.181085  0.07595  0.322353  0.0791452  0.126786  0.0722434  0.187945  
53 3 -1.25005 -4.11411 1.63216 0.0190882  0.0489581  0.224783  0.0286455  0.172979  0.030571  0.302162  0.0372121  0.0937952  0.0307105  0.18368  
54 3 -3.43668 -0.532459 1.5456 0.0439286  0.0796067  0.196514  0.0386603  0.211754  0.0436744  0.320073  0.0550884  0.119374  0.0530389  0.199846  
55 3 -3.85854 -3.42536 0.192921 0.0322988  0.0893296  0.166317  0.0441461  0.198055  0.0478801  0.330939  0.0532271  0.08119  0.0493108  0.180931  
56 3 -3.90325 -3.38561 2.75108 0.0269406  0.0968855  0.155169  0.0435067  0.185331  0.0439679  0.320797  0.0579372  0.0674696  0.0493672  0.165414  
253 1 4.9068 -10.1536 -0.0511827 0.0367187  0.0161229  0.311399  0.0215561  0.207407  0.0321251  0.346116  0.0295465  0.131128  0.0254366  0.202106  
254 1 4.79522 -7.40808 -4.52045 0.0508127  0.116531  0.112028  0.0609119  0.208193  0.0845345  0.323604  0.0771054  0.0964268  0.0764461  0.191918  
255 2 2.1515 -9.2173 -4.49374 0.0213488  0.112007  0.258922  0.0637422  0.173625  0.0720185  0.319086  0.0698925  0.132914  0.0729295  0.173578  
256 3 3.70873 -9.36405 -4.52465 0.0211141  0.0608204  0.242287  0.0256936  0.168991  0.0404179  0.313313  0.0477659  0.0996958  0.0397486  0.161805  
257 3 1.01348 -5.65079 -4.43408 0.0471196  0.078271  0.194943  0.0371227  0.209304  0.0467759  0.33217  0.0435583  0.108312  0.0459597  0.202295  
258 3 1.42428 -8.58288 -5.74816 0.0323033  0.0889097  0.170495  0.0435629  0.19283  0.0456929  0.331608  0.0459519  0.0827052  0.050868  0.167865  
259 1 4.90887 -10.3435 -3.00926 0.0453351  0.0207856  0.322407  0.0237015  0.190429  0.0301844  0.353882  0.028338  0.132209  0.0351869  0.178005  
260 3 1.47935 -8.51124 -3.23379 0.0317345  0.0928454  0.147559  0.0475537  0.188277  0.0542445  0.326274  0.055966  0.0928897  0.056293  0.184088  
261 1 0.0821613 -2.75389 -1.47625 0.0469749  0.108824  0.14473  0.0493535  0.179299  0.065693  0.350033  0.0673411  0.0697233  0.0529621  0.179969  
262 2 2.74487 -0.921102 -1.51556 0.0174893  0.11029  0.257962  0.0692573  0.178788  0.0682989  0.323029  0.0741747  0.129408  0.072594  0.181118  
263 3 1.18392 -0.823095 -1.4783 0.0189484  0.0485472  0.228682  0.0276387  0.168665  0.0333818  0.320664  0.0278247  0.0878627  0.031606  0.177648  
264 3 3.86132 -4.64229 -1.43603 0.0400166  0.0557407  0.203114  0.0329729  0.204924  0.0287914  0.31927  0.0372885  0.118527  0.0450388  0.19424  
265 3 3.44295 -1.67695 -2.79905 0.0315303  0.0928975  0.147924  0.0463549  0.196279  0.0467412  0.333539  0.0519137  0.0787822  0.0545762  0.190855  
266 3 3.43903 -1.64511 -0.226958 0.0297637  0.101745  0.141429  0.0453584  0.185477  0.0437068  0.319958  0.0594929  0.0779639  0.0557773  0.17655  
267 1 2.3927 -5.23057 -3.0428 0.0389844  0.0542242  0.32419  0.0316978  0.174827  0.0562959  0.357858  0.0443673  0.107943  0.0541894  0.180982  
268 1 2.33478 -7.99919 -1.44541 0.0470077  0.105502  0.169093  0.0414413  0.176849  0.0734892  0.331631  0.0788225  0.0868968  0.0713622  0.156281  
269 2 4.50227 -6.20218 -1.45111 0.0225433  0.105317  0.280921  0.0653456  0.181397  0.0682279  0.324029  0.073739  0.123615  0.0748417  0.184242  
270 3 1.20378 -5.97247 -1.49533 0.0229253  0.0473641  0.227384  0.0263962  0.173541  0.0334589  0.308227  0.0293365  0.0944434  0.0329512  0.182927  
271 3 3.46695 -9.71499 -1.47204 0.0476529  0.0802707  0.200932  0.0329157  0.213894  0.0507587  0.319499  0.0505278  0.129317  0.0473262  0.19537  
272 3 3.77376 -6.87193 -2.75487 0.0321965  0.0987663  0.148012  0.0410459  0.191841  0.0481881  0.318288  0.0564147  0.0865608  0.0584657  0.179444  
273 1 2.41148 -5.13468 0.0401531 0.0327918  0.0388711  0.340061  0.0196279  0.179988  0.0352967  0.344834  0.0278354  0.121342  0.0366614  0.176809  
274 3 3.75291 -6.88283 -0.138447 0.0325648  0.103608  0.146242  0.0449059  0.184427  0.0513136  0.316483  0.0591615  0.0965051  0.0577266  0.173903  
275 1 2.53415 -2.36554 -4.53042 0.0458977  0.115614  0.105195  0.0596403  0.185696  0.0708361  0.352427  0.0807446  0.0739695  0.0739812  0.202011  
276 2 0.309647 -4.12761 -4.47488 0.0209726  0.108733  0.253091  0.0694706  0.179836  0.0748308  0.333413  0.0751824  0.115371  0.0705384  0.191697  
277 3 3.59929 -4.20299 -4.46457 0.017845  0.0472311  0.232668  0.0290807  0.172141  0.0304127  0.317766  0.0348443  0.100675  0.034433  0.185809  
278 3 1.38097 -0.485562 -4.53298 0.0449643  0.0803806  0.201301  0.0327951  0.216299  0.0460098  0.334315  0.0540385  0.118293  0.0509777  0.206294  
279 3 1.06417 -3.5221 -5.7964 0.032033  0.0878499  0.166795  0.0474338  0.195717  0.042506  0.33536  0.0490585  0.0738461  0.0497196  0.177902  
280 3 1.10626 -3.46135 -3.23893 0.0275754  0.0962891  0.157085  0.0401087  0.188721  0.0399726  0.33286  0.0526588  0.066394  0.0464307  0.174572  
282 1 4.70802 -7.41499 1.53114 0.0465867  0.106606  0.146059  0.0571874  0.18432  0.0696794  0.339738  0.0748804  0.0899682  0.0624977  0.166818  
283 2 2.10592 -9.21203 1.51081 0.0225404  0.10632  0.278507  0.0634721  0.176277  0.0673105  0.325208  0.0696887  0.127156  0.0725598  0.170869  
284 3 3.67196 -9.37429 1.46506 0.0251548  0.0504213  0.232494  0.0311043  0.170471  0.0377959  0.312493  0.0302933  0.109479  0.0396277  0.182985  
285 3 0.948765 -5.53713 1.5214 0.0465522  0.0774998  0.199649  0.0344859  0.214678  0.0496468  0.32207  0.0477538  0.124414  0.0471117  0.203854  
286 3 1.36884 -8.62711 0.220602 0.0342175  0.0941843  0.169075  0.0369418  0.190079  0.049242  0.328346  0.0513174  0.0892101  0.054452  0.171865  
288 3 1.3704 -8.49454 2.75506 0.0302013  0.0982775  0.164773  0.0383765  0.18438  0.040732  0.321433  0.0550973  0.0796722  0.0507282  0.165231  
303 1 2.54303 -2.24727 1.57963 0.0455103  0.123472  0.139315  0.0539444  0.166092  0.067462  0.336513  0.0770098  0.0769368  0.0727654  0.154692  
304 2 0.30799 -4.10072 1.5932 0.0190644  0.116632  0.226414  0.0738081  0.173701  0.0828852  0.30761  0.0792215  0.125924  0.0792705  0.192384  
305 3 3.61444 -4.25825 1.58918 0.0194966  0.0495343  0.231596  0.0298123  0.175106  0.0352781  0.309522  0.0358543  0.0986765  0.0366711  0.181596  
306 3 1.35533 -0.518318 1.4962 0.0460261  0.0806041  0.201115  0.035913  0.211247  0.0471393  0.324475  0.0455784  0.122462  0.0477466  0.19743  
307 3 1.01212 -3.40753 0.304484 0.0332582  0.0935946  0.141046  0.0499709  0.1924  0.0512155  0.327058  0.0555928  0.088121  0.0555121  0.186448  
308 3 1.06667 -3.46834 2.8666 0.0328439  0.0872995  0.165655  0.0489178  0.186706  0.0492752  0.325172  0.0496645  0.0752716  0.050237  0.168282  
505 1 9.68009 -10.1147 0.0121641 0.037468  0.0394997  0.311469  0.0276577  0.204913  0.0333914  0.345356  0.0338851  0.124759  0.0453395  0.197598  
506 1 9.60758 -7.3451 -4.52947 0.0482337  0.114536  0.141581  0.0509379  0.179723  0.076385  0.336847  0.0789069  0.075229  0.0686057  0.170094  
507 2 6.93286 -9.21062 -4.51195 0.0211812  0.0917441  0.297162  0.0672093  0.181907  0.0658654  0.325266  0.0599461  0.128816  0.061008  0.177459  
508 3 8.47083 -9.34996 -4.51243 0.0228837  0.0582456  0.246589  0.0271806  0.163482  0.0432828  0.310851  0.0450101  0.0996825  0.0445874  0.167577  
509 3 5.85289 -5.56523 -4.46154 0.0408478  0.0549644  0.202922  0.0349993  0.202743  0.0278556  0.321026  0.0318331  0.120339  0.0374809  0.192702  
510 3 6.29457 -8.5407 -5.78471 0.0324897  0.0865475  0.167914  0.0509382  0.187951  0.0449911  0.325248  0.0530298  0.081925  0.051586  0.164308  
511 1 9.77919 -10.1076 -3.06791 0.0338571  0.0285032  0.293821  0.0314128  0.170603  0.0274613  0.342951  0.0295151  0.117975  0.0416692  0.191032  
512 3 6.2313 -8.62036 -3.22867 0.0334035  0.0902844  0.169581  0.0433216  0.185775  0.0391707  0.318414  0.0483669  0.0893402  0.0458706  0.161928  
513 1 4.83674 -2.85327 -1.44527 0.0447935  0.119235  0.105746  0.0518224  0.181364  0.0736491  0.322948  0.0842999  0.0876398  0.0674368  0.173906  
514 2 7.58732 -0.973737 -1.46542 0.0213878  0.108741  0.279825  0.065502  0.182778  0.0715822  0.330863  0.0702614  0.118855  0.0749976  0.177578  
515 3 6.03821 -0.854154 -1.44915 0.0225623  0.060363  0.248481  0.0284383  0.168475  0.0428071  0.3138  0.0462652  0.098383  0.0410123  0.168416  
516 3 8.61651 -4.59574 -1.52679 0.0477022  0.0759082  0.200868  0.0353912  0.21344  0.0461867  0.324302  0.0471947  0.122453  0.044583  0.20643  
517 3 8.28344 -1.60072 -2.79019 0.0328769  0.0950549  0.139019  0.0482169  0.190761  0.0490623  0.328127  0.0516775  0.0810636  0.0558361  0.184425  
518 3 8.33014 -1.6536 -0.199971 0.0292539  0.0997622  0.156681  0.0477999  0.19004  0.0431846  0.324016  0.0596595  0.0715385  0.0546607  0.165952  
519 1 7.28255 -5.10733 -3.07353 0.0414963  0.0726011  0.325166  0.0267814  0.174837  0.0674462  0.354421  0.0676001  0.119287  0.0744761  0.175938  
520 1 7.20766 -7.96219 -1.52309 0.0446666  0.122671  0.0944505  0.055909  0.187841  0.0720394  0.320465  0.0793471  0.0978005  0.0637735  0.190269  
521 2 9.3403 -6.06146 -1.50684 0.0161814  0.122373  0.23223  0.0718988  0.185603  0.0828466  0.302214  0.0803267  0.135657  0.0814394  0.205101  
522 3 6.05358 -6.042 -1.55521 0.0205895  0.048976  0.230522  0.0260125  0.172033  0.0310384  0.301185  0.0351292  0.0996581  0.0281688  0.179937  
523 3 8.3527 -9.70543 -1.49573 0.0419391  0.0693549  0.178308  0.0422491  0.216844  0.0538546  0.312329  0.0464073  0.127689  0.044194  0.20328  
524 3 8.65051 -6.72568 -2.78565 0.0325512  0.0942684  0.147915  0.050807  0.193507  0.0567881  0.313007  0.0586152  0.08305  0.0590303  0.181383  
525 1 7.20956 -5.02448 -0.0335244 0.0442856  0.0358863  0.304014  0.016656  0.160129  0.0399562  0.367956  0.0375142  0.117917  0.0445587  0.175574  
526 3 8.66424 -6.72961 -0.216681 0.0313997  0.0903349  0.165021  0.0404849  0.196749  0.0451269  0.32435  0.0477109  0.0768115  0.0450932  0.176684  
527 1 7.38454 -2.30239 -4.53633 0.0429771  0.116756  0.182174  0.0393283  0.166186  0.067932  0.344054  0.0739409  0.0832265  0.0638004  0.1703  
528 2 5.15254 -4.06802 -4.45949 0.0235261  0.107644  0.255848  0.0705309  0.176472  0.077883  0.323315  0.0724918  0.130318  0.0761115  0.182866  
529 3 8.46714 -4.16916 -4.48437 0.0223354  0.0494011  0.23189  0.0254008  0.168073  0.0388049  0.309606  0.0330414  0.103113  0.034679  0.187208  
530 3 6.18551 -0.482534 -4.44545 0.0469784  0.0782037  0.199068  0.0371758  0.213368  0.0448565  0.334865  0.0521755  0.11546  0.0462371  0.201345  
531 3 5.91388 -3.40646 -5.72801 0.0351057  0.0955719  0.14537  0.0454572  0.192407  0.0465765  0.329639  0.051964  0.0904053  0.0573889  0.186246  
532 3 5.8593 -3.43865 -3.16709 0.0323302  0.0863591  0.167582  0.0467966  0.188108  0.0489908  0.326793  0.0491318  0.0844909  0.0506903  0.163881  
534 1 9.61425 -7.35069 1.42669 0.0530647  0.110453  0.148885  0.0541294  0.209961  0.0788672  0.333087  0.0723781  0.0869012  0.0689208  0.185651  
535 2 6.91402 -9.16422 1.51311 0.0287019  0.0848682  0.277071  0.0448757  0.184095  0.0552991  0.337443  0.0577093  0.129285  0.0554061  0.185372  
536 3 8.48411 -9.28377 1.48819 0.0241529  0.0494244  0.229264  0.0232826  0.173515  0.0315905  0.313605  0.0376865  0.0950378  0.0305268  0.18149  
537 3 5.86367 -5.61979 1.57211 0.0471378  0.076921  0.202042  0.0372366  0.216071  0.0412908  0.334305  0.0452223  0.120496  0.0456484  0.205298  
538 3 6.30014 -8.49326 0.242258 0.0310039  0.094749  0.149253  0.0466409  0.193971  0.0440618  0.324231  0.0545822  0.0999545  0.0566664  0.183624  
540 3 6.1418 -8.50619 2.76903 0.0331747  0.0936885  0.166573  0.0373852  0.193385  0.047638  0.340294  0.0533635  0.0816652  0.0557822  0.175515  
555 1 7.25808 -2.28258 1.54517 0.0480082  0.128384  0.109379  0.0537423  0.185317  0.0801416  0.343172  0.0926919  0.0797357  0.0877438  0.195108  
556 2 5.15586 -4.10224 1.55518 0.0226363  0.108193  0.260447  0.0723698  0.183919  0.0693974  0.32495  0.0723372  0.12775  0.0750915  0.189969  
557 3 8.41956 -4.15469 1.46236 0.0231476  0.0459153  0.231761  0.0316627  0.173711  0.0350367  0.318553  0.0302033  0.0946742  0.0356205  0.186249  
558 3 6.2749 -0.502829 1.52271 0.0430434  0.0715504  0.176245  0.040745  0.216952  0.0574247  0.320655  0.0470802  0.117074  0.0455208  0.199006  
559 3 5.85677 -3.46869 0.270276 0.0338581  0.0967659  0.150545  0.0423444  0.194523  0.0509966  0.324822  0.056948  0.0961522  0.0614909  0.183476  
560 3 5.89184 -3.46127 2.8339 0.0343944  0.0916618  0.170852  0.0430365  0.197565  0.0480655  0.341393  0.0525473  0.0747893  0.0587985  0.18146  
85 1 -0.0854373 0.0278088 0.00674875 0.0424334  0.0452813  0.354935  0.0199412  0.187577  0.0382544  0.374538  0.0330753  0.108171  0.0362197  0.189168  
86 1 -0.0855964 2.81701 -4.43848 0.0519618  0.110497  0.142317  0.0589902  0.209033  0.0790549  0.320975  0.0772782  0.0925353  0.0697511  0.183601  
87 2 -2.7489 0.992733 -4.4809 0.0185295  0.113451  0.254297  0.0645666  0.182488  0.0750032  0.320625  0.0742953  0.117623  0.0711732  0.189422  
88 3 -1.16648 1.00175 -4.45239 0.0216088  0.047757  0.22701  0.0319265  0.174506  0.0326038  0.300768  0.0357035  0.0927179  0.0371716  0.184197  
89 3 -3.83559 4.56869 -4.50457 0.0479149  0.0807483  0.198205  0.0359735  0.216658  0.048047  0.329269  0.0460196  0.120012  0.0506362  0.206202  
90 3 -3.49985 1.6416 -5.77655 0.0322312  0.0918142  0.147226  0.0477339  0.195709  0.0528041  0.313906  0.0536641  0.0854079  0.0558908  0.186887  
91 1 0.0313118 0.081543 -2.84529 0.0333262  0.0461056  0.306727  0.0299284  0.189061  0.0479333  0.355637  0.0385315  0.101977  0.0444468  0.188195  
92 3 -3.46321 1.58583 -3.21166 0.0332223  0.092173  0.166433  0.0385598  0.196532  0.046396  0.339078  0.0488082  0.0788067  0.0586337  0.18503  
93 1 -4.78501 7.36679 -1.46662 0.0491309  0.12185  0.113639  0.0562204  0.217219  0.0898841  0.331939  0.0720907  0.107486  0.0785941  0.215248  
94 2 -2.09452 9.16266 -1.56667 0.0181877  0.091422  0.251478  0.0560296  0.161015  0.0608812  0.321823  0.0694762  0.116609  0.0609798  0.180107  
95 3 -3.64718 9.25547 -1.55707 0.0209146  0.0473369  0.231138  0.0264272  0.17336  0.0389242  0.310507  0.0319493  0.100959  0.0345066  0.18629  
96 3 -1.07656 5.53872 -1.45326 0.0468225  0.0788166  0.197078  0.0359592  0.212804  0.0472713  0.328244  0.0548821  0.117905  0.0451834  0.20961  
97 3 -1.42284 8.54631 -2.8428 0.0333462  0.0928716  0.140542  0.045789  0.193947  0.0519987  0.325169  0.0560413  0.0861333  0.0606122  0.185185  
98 3 -1.3971 8.47045 -0.243256 0.0315228  0.0865317  0.166885  0.0458841  0.191052  0.0401145  0.328466  0.0505412  0.0764856  0.0521721  0.172577  
99 1 -2.37962 5.01176 -2.99186 0.0366971  0.057497  0.346122  0.0175595  0.184976  0.0496463  0.366744  0.0485837  0.114646  0.0443493  0.188538  
100 1 -2.57452 2.27476 -1.46525 0.0437761  0.12431  0.13219  0.0676748  0.175332  0.0692723  0.343046  0.0812637  0.0680561  0.0763452  0.17205  
101 2 -0.330461 4.11285 -1.48586 0.0195762  0.10753  0.272986  0.0557049  0.183603  0.0732482  0.318707  0.0671217  0.119224  0.0681843  0.173467  
102 3 -3.61942 4.08097 -1.54 0.0169489  0.0466876  0.224879  0.0307759  0.174646  0.0365123  0.316781  0.0330663  0.0923972  0.0305383  0.184134  
103 3 -1.40975 0.548245 -1.47855 0.0419625  0.0718065  0.169311  0.0446101  0.216612  0.0527194  0.32708  0.0474621  0.114637  0.0452791  0.204118  
104 3 -1.02742 3.43369 -2.79993 0.0312872  0.0890158  0.166469  0.0446195  0.195649  0.0475728  0.327993  0.0544648  0.0909482  0.0534871  0.179639  
105 1 -2.43912 5.02029 0.00146396 0.0325392  0.00294678  0.340878  0.00892848  0.186388  0.0142374  0.355874  0.0155455  0.106733  0.0174325  0.180067  
106 3 -1.01369 3.38746 -0.221067 0.0303666  0.0937159  0.141083  0.0452112  0.192972  0.0548785  0.320892  0.0581772  0.0887754  0.0549018  0.177866  
107 1 -2.33839 7.889 -4.52563 0.050059  0.113317  0.144319  0.0456292  0.178636  0.0746375  0.33816  0.075905  0.0793054  0.06666  0.166664  
108 2 -4.5599 6.00914 -4.49701 0.0214339  0.12197  0.235165  0.0672356  0.183403  0.074175  0.322748  0.0838695  0.13695  0.0806518  0.201809  
109 3 -1.20514 5.94344 -4.50589 0.0218464  0.047884  0.23094  0.0286625  0.174064  0.037105  0.312113  0.0371675  0.100732  0.0351783  0.186004  
110 3 -3.45736 9.71851 -4.52479 0.0464268  0.0793871  0.197601  0.0382594  0.214497  0.0459255  0.329439  0.0588293  0.118188  0.0531226  0.201069  
111 3 -3.81443 6.69689 -5.75262 0.0348834  0.086465  0.164493  0.0446761  0.204779  0.0441079  0.334146  0.0461187  0.077251  0.0513595  0.179617  
112 3 -3.85644 6.63348 -3.21346 0.0326713  0.0925229  0.165051  0.0406241  0.197717  0.0443377  0.33682  0.0552676  0.0736215  0.0573337  0.180285  
114 1 -0.0438968 2.80069 1.53514 0.0451717  0.112183  0.137612  0.044853  0.1845  0.0867929  0.327147  0.0785818  0.0850582  0.0698183  0.166751  
115 2 -2.81951 0.991354 1.56079 0.0139343  0.0897818  0.293762  0.0725219  0.184112  0.068568  0.326205  0.0659721  0.11609  0.0739494  0.178617  
116 3 -1.24091 0.963931 1.56965 0.0188261  0.0486113  0.225541  0.0283021  0.169799  0.0347265  0.308478  0.0360355  0.0895517  0.0312787  0.17422  
117 3 -3.86719 4.55179 1.48184 0.0394146  0.0560189  0.203174  0.0320002  0.205837  0.0346905  0.33602  0.0289929  0.10957  0.0387825  0.201954  
118 3 -3.4885 1.64228 0.275897 0.0315031  0.0894362  0.139094  0.0511812  0.193805  0.0473583  0.330111  0.0455762  0.0873664  0.0531765  0.182569  
120 3 -3.4885 1.57706 2.87974 0.0270559  0.0953581  0.154431  0.0431096  0.183954  0.0407586  0.326462  0.0520822  0.0802656  0.0454812  0.164139  
135 1 -2.36882 7.86112 1.37261 0.0444168  0.120834  0.106069  0.0583523  0.180323  0.0770058  0.339742  0.0855893  0.0859022  0.0760884  0.187875  
136 2 -4.5403 6.04715 1.52102 0.0203508  0.10303  0.27743  0.0644699  0.180122  0.0698747  0.338845  0.0684995  0.102097  0.0732745  0.174457  
137 3 -1.19611 6.01233 1.47547 0.0217502  0.0481506  0.231291  0.0293391  0.170752  0.0353684  0.315532  0.0306279  0.0929904  0.0345905  0.180963  
138 3 -3.46317 9.68293 1.47475 0.0392961  0.0575213  0.204675  0.0324339  0.204149  0.0327757  0.329324  0.0326531  0.110898  0.0442833  0.194091  
139 3 -3.85055 6.6554 0.190056 0.0323505  0.0921837  0.166704  0.0435417  0.193757  0.0454387  0.340527  0.0487288  0.067944  0.0513163  0.175675  
140 3 -3.7823 6.79744 2.7739 0.0316807  0.0868142  0.165166  0.0491285  0.191753  0.041763  0.335296  0.0495686  0.0664716  0.0543337  0.170322  
337 1 4.78513 -0.0123777 0.0249295 0.036058  0.0191926  0.312387  0.0242708  0.203353  0.0263951  0.344494  0.0281492  0.119905  0.0263899  0.191496  
338 1 4.78737 2.76192 -4.49196 0.0503565  0.116608  0.154001  0.0540131  0.205058  0.0812877  0.338295  0.0794216  0.0873977  0.0789462  0.182341  
339 2 2.12934 0.953243 -4.48806 0.0145779  0.0983147  0.280236  0.0741661  0.190948  0.0707528  0.320634  0.0742607  0.133371  0.0734799  0.191645  
340 3 3.70008 0.89093 -4.45982 0.0224649  0.0512319  0.227935  0.0244847  0.17653  0.0334573  0.312612  0.0342489  0.0932858  0.0288679  0.182821  
341 3 1.05332 4.5879 -4.55039 0.0463104  0.0804846  0.1983  0.0397089  0.214215  0.0447327  0.320182  0.0533544  0.119603  0.0513702  0.197643  
342 3 1.54923 1.63713 -5.82692 0.0291913  0.0974381  0.138962  0.040674  0.200258  0.0485722  0.308929  0.0561925  0.0929162  0.0513072  0.181452  
343 1 4.88011 0.0231247 -3.04546 0.036919  0.0547288  0.326736  0.0228942  0.173949  0.0521173  0.359106  0.0616828  0.117208  0.046141  0.171842  
344 3 1.43135 1.68275 -3.22459 0.0305806  0.0941088  0.13749  0.0519382  0.196976  0.0522453  0.321644  0.0537737  0.0833132  0.0637326  0.181536  
345 1 0.10507 7.28188 -1.47448 0.0437465  0.125401  0.101872  0.0572622  0.189166  0.0705385  0.336351  0.0800608  0.0853922  0.0692315  0.211902  
346 2 2.71899 9.22565 -1.55303 0.0214116  0.1215  0.235084  0.0678935  0.184271  0.0760779  0.316736  0.0853424  0.130917  0.0788646  0.214611  
347 3 1.14281 9.24116 -1.57462 0.0241224  0.0480326  0.226903  0.0246051  0.176206  0.0379447  0.314087  0.0322182  0.0939705  0.0312186  0.19383  
348 3 3.78461 5.58092 -1.58363 0.0458558  0.0788854  0.193962  0.0359443  0.209175  0.0418099  0.320569  0.0567836  0.122848  0.0512419  0.205032  
349 3 3.4292 8.6096 -2.84269 0.0362537  0.0926532  0.144154  0.046916  0.198093  0.0471983  0.329678  0.0573303  0.0857963  0.053941  0.200353  
350 3 3.40582 8.54121 -0.304923 0.0311884  0.0976606  0.141556  0.038007  0.197213  0.0396808  0.319566  0.0542655  0.0906453  0.0506875  0.188568  
351 1 2.42347 4.9923 -3.06665 0.042105  0.021559  0.318199  0.0325863  0.192964  0.0312435  0.343479  0.0316255  0.121053  0.0370031  0.179317  
352 1 2.23625 2.25861 -1.52456 0.0457015  0.118217  0.131491  0.0665111  0.170747  0.0801078  0.33742  0.0884237  0.0746292  0.0886656  0.1591  
353 2 4.49548 4.04057 -1.50582 0.0245399  0.0831782  0.267881  0.049955  0.178539  0.051673  0.323117  0.0571255  0.115728  0.0535851  0.174258  
354 3 1.26766 4.10775 -1.49998 0.0212339  0.0484718  0.22341  0.0327437  0.171466  0.0398949  0.300553  0.038272  0.0960205  0.037966  0.180387  
355 3 3.46006 0.500774 -1.5281 0.0420084  0.0718747  0.176553  0.0372834  0.212798  0.058994  0.321092  0.0459625  0.115539  0.043604  0.19344  
356 3 3.84197 3.36439 -2.773 0.0317923  0.100457  0.134475  0.0410232  0.196249  0.0555165  0.320892  0.0599066  0.0826945  0.0599259  0.180835  
357 1 2.34877 4.97105 0.0694622 0.0384486  0.0179479  0.309272  0.026218  0.184364  0.0302256  0.328772  0.0351286  0.118976  0.0315868  0.171032  
358 3 3.8007 3.35955 -0.246247 0.0299487  0.103466  0.130911  0.0414137  0.183998  0.0485732  0.312884  0.0563797  0.083603  0.0526608  0.167475  
359 1 2.47999 7.87767 -4.50755 0.0458407  0.117287  0.10014  0.058045  0.191341  0.0813029  0.335771  0.0830504  0.0835933  0.0764969  0.204836  
360 2 0.353378 6.03574 -4.52829 0.0195936  0.106245  0.279096  0.0634403  0.18558  0.0700379  0.32648  0.0729861  0.118247  0.0746489  0.177123  
361 3 3.61567 5.99914 -4.42375 0.0194761  0.0461998  0.226882  0.030868  0.174099  0.0334719  0.311894  0.0337565  0.0946765  0.0320598  0.185853  
362 3 1.33212 9.68172 -4.49388 0.0499003  0.0772458  0.196862  0.0380679  0.21876  0.0441055  0.332211  0.0492701  0.112791  0.0512571  0.206162  
363 3 1.04229 6.71742 -5.76408 0.0336444  0.0878602  0.164113  0.0433824  0.193705  0.0472443  0.324058  0.0507739  0.0747843  0.0541356  0.16767  
364 3 1.03752 6.62784 -3.17668 0.031258  0.0920518  0.164991  0.0399598  0.201979  0.047125  0.332188  0.0537331  0.0810124  0.0598744  0.191164  
366 1 4.81184 2.77387 1.46109 0.0489001  0.127492  0.110829  0.0527254  0.176043  0.0779928  0.337594  0.0887229  0.0891034  0.0809385  0.178375  
367 2 2.07132 0.889148 1.48393 0.0206964  0.112113  0.258159  0.0692663  0.176857  0.0655027  0.319924  0.0740027  0.129346  0.0778192  0.177652  
368 3 3.60865 0.825638 1.50212 0.0224315  0.048112  0.228481  0.0247769  0.170142  0.0365576  0.315827  0.0323061  0.0933911  0.0349459  0.180346  
369 3 0.985656 4.61756 1.5283 0.044886  0.0766801  0.196014  0.0382126  0.213657  0.0467381  0.315585  0.053528  0.121415  0.054338  0.200353  
370 3 1.35651 1.5434 0.193733 0.0321029  0.0863917  0.162786  0.0493796  0.191414  0.044784  0.329588  0.04805  0.0781838  0.0535429  0.171471  
372 3 1.41093 1.65336 2.78 0.0305352  0.098364  0.161653  0.0401871  0.185514  0.0463713  0.32356  0.0547614  0.0828675  0.0523422  0.170933  
387 1 2.56721 7.91616 1.45821 0.0404024  0.140738  0.109721  0.0725944  0.194977  0.0867948  0.316692  0.086907  0.0975337  0.084051  0.200939  
388 2 0.360039 6.14175 1.47818 0.0181662  0.0913249  0.296843  0.0720037  0.184236  0.0649115  0.32446  0.0663107  0.118646  0.0721922  0.18594  
389 3 3.62315 5.98517 1.40965 0.0232911  0.0302644  0.222415  0.0223401  0.183583  0.0214673  0.295545  0.0247071  0.103276  0.0244311  0.185661  
390 3 1.41188 9.71329 1.41571 0.0460001  0.0774945  0.199444  0.036054  0.216084  0.0438283  0.322852  0.0516227  0.130093  0.0479445  0.211355  
391 3 1.0331 6.68089 0.162099 0.0293918  0.0939816  0.139699  0.0466656  0.196962  0.0441783  0.317076  0.049333  0.0877285  0.0541695  0.190614  
392 3 1.02317 6.79152 2.7424 0.0331554  0.0898294  0.143915  0.0524019  0.194991  0.0484437  0.317267  0.0473623  0.0892052  0.0568765  0.186068  
589 1 9.73521 -0.0372816 0.0410204 0.0386878  0.0314813  0.342398  0.0152479  0.198263  0.0255138  0.351819  0.0270953  0.123974  0.0323184  0.189865  