ITEM: TIMESTEP
9500
ITEM: NUMBER OF ATOMS
756
ITEM: BOX BOUNDS pp pp pp
-4.8435403183999997e+00 9.6870806368999993e+00
-1.0186409263300000e+01 2.0372818526500001e+01
-6.0013959751000003e+00 1.2002791950200001e+01
ITEM: ATOMS id type x y z q2 q3 q4 q5 q6 q7 q8 q9 q10 q11 q12
1 1 -0.0447875 -10.127 0.0292242 0.0363044  0.061846  0.285368  0.0309705  0.187149  0.0769722  0.344735  0.0637884  0.0983694  0.056805  0.177043  
2 1 -0.00123215 -7.2954 -4.47564 0.0514193  0.118544  0.114597  0.0592227  0.212916  0.0843313  0.296399  0.0817014  0.11112  0.0772587  0.198115  
3 2 -2.7601 -9.30018 -4.42019 0.0243296  0.0725005  0.289817  0.0528833  0.190605  0.0598569  0.330447  0.0529924  0.118297  0.0476569  0.185632  
4 3 -1.11242 -9.30078 -4.52734 0.0203157  0.0407653  0.229781  0.0317538  0.177543  0.0318943  0.29318  0.0378469  0.101341  0.0333804  0.177202  
5 3 -3.63716 -5.69016 -4.53449 0.0446259  0.0783605  0.195924  0.0421015  0.206656  0.0490513  0.329684  0.0420742  0.104864  0.0519689  0.19527  
6 3 -3.40044 -8.58001 -5.71522 0.0297957  0.0977222  0.162094  0.0345517  0.179572  0.054441  0.319239  0.0462139  0.0821571  0.0479807  0.161857  
7 1 0.0388716 -10.1484 -2.9655 0.0432533  0.0590068  0.326706  0.0332647  0.190408  0.0560956  0.341842  0.0594098  0.125248  0.0467495  0.166329  
8 3 -3.41558 -8.63269 -3.0907 0.0328937  0.0917989  0.140983  0.0476427  0.198819  0.0505699  0.331652  0.0553143  0.0906524  0.050114  0.198062  
9 1 -4.82834 -2.85979 -1.44205 0.0475345  0.11315  0.150817  0.0471503  0.186528  0.0807825  0.3298  0.0804199  0.0742533  0.0700197  0.17005  
10 2 -2.05913 -1.03232 -1.53766 0.0243112  0.0733291  0.292536  0.0490854  0.194362  0.0602896  0.335054  0.0413585  0.126268  0.049367  0.189844  
11 3 -3.60295 -0.908016 -1.56901 0.0202785  0.0315289  0.230723  0.0233045  0.193171  0.0259399  0.301973  0.0310604  0.101495  0.0262687  0.180955  
12 3 -1.08285 -4.61475 -1.48225 0.038155  0.0564972  0.197395  0.0392858  0.209869  0.0314439  0.299147  0.0340909  0.10487  0.0493302  0.186279  
13 3 -1.35396 -1.68605 -2.7824 0.0336245  0.0973459  0.142704  0.0420278  0.200301  0.0463862  0.321379  0.0580108  0.0839782  0.0550257  0.1848  
14 3 -1.45632 -1.70803 -0.261781 0.0314463  0.094056  0.149602  0.052798  0.19744  0.0471299  0.308762  0.0544097  0.0965487  0.0476151  0.182903  
15 1 -2.46923 -5.22482 -3.05308 0.0504804  0.0375246  0.298952  0.0189673  0.187975  0.0426287  0.354986  0.0483935  0.108591  0.0446864  0.182402  
16 1 -2.46078 -7.98016 -1.3859 0.0461112  0.128108  0.0664768  0.0633599  0.22171  0.0962834  0.318568  0.0792098  0.114384  0.0834244  0.226222  
17 2 -0.394126 -6.08464 -1.48247 0.0130637  0.0666608  0.295453  0.0694338  0.179698  0.0564467  0.312123  0.0625106  0.116987  0.0626827  0.170646  
18 3 -3.62307 -6.10973 -1.42013 0.0193276  0.0439742  0.227667  0.0307509  0.173783  0.0402921  0.307606  0.0345857  0.0967508  0.0305319  0.180879  
19 3 -1.32382 -9.75163 -1.49568 0.0405993  0.0576697  0.199226  0.0331237  0.210538  0.0408998  0.315912  0.0320692  0.109724  0.0462234  0.191123  
20 3 -1.10451 -6.74153 -2.80357 0.0287087  0.0977148  0.138042  0.047655  0.194581  0.0554438  0.305615  0.0641734  0.0924818  0.0537636  0.181668  
21 1 -2.51085 -5.0469 -0.0394948 0.0439742  0.0664483  0.295402  0.0303375  0.170939  0.0618224  0.334408  0.0622138  0.0957218  0.0598442  0.163354  
22 3 -1.00417 -6.76328 -0.201517 0.0316043  0.0895252  0.167634  0.0408399  0.19492  0.0492701  0.311736  0.0501756  0.0819131  0.0560421  0.170678  
23 1 -2.43188 -2.25945 -4.4759 0.043396  0.129475  0.0660521  0.0598084  0.188453  0.0871823  0.320246  0.0837324  0.0868652  0.0754437  0.216822  
24 2 -4.51324 -4.26279 -4.44934 0.023753  0.0952942  0.25319  0.0429862  0.183269  0.0579463  0.319913  0.0522683  0.126159  0.0589048  0.190356  
25 3 -1.25986 -4.10884 -4.54928 0.0157083  0.0485527  0.235383  0.0303744  0.176916  0.0347346  0.30237  0.0369002  0.109039  0.0374535  0.177371  
26 3 -3.52906 -0.498567 -4.61206 0.0411793  0.0745162  0.172083  0.0338894  0.213193  0.059804  0.318562  0.051756  0.0967288  0.0501714  0.198069  
27 3 -3.74699 -3.45463 -5.64365 0.0298079  0.080936  0.157556  0.0506572  0.194077  0.0404021  0.316167  0.036667  0.088816  0.0481745  0.178981  
28 3 -3.83699 -3.61234 -3.13048 0.0324411  0.0914647  0.166634  0.039531  0.202035  0.0462269  0.320235  0.0531848  0.0824064  0.0481723  0.179706  
30 1 0.0145988 -7.37814 1.48962 0.0462208  0.11453  0.108643  0.0562115  0.185448  0.0804704  0.312414  0.0784741  0.0893133  0.0680499  0.178053  
31 2 -2.77225 -9.12149 1.51229 0.0189226  0.0730639  0.295497  0.061825  0.171067  0.0622606  0.326118  0.0555572  0.115436  0.0562995  0.170098  
32 3 -1.20428 -9.23636 1.55702 0.0232804  0.0462267  0.229511  0.0292059  0.173358  0.037353  0.308001  0.0291224  0.0967415  0.0364521  0.170226  
33 3 -3.80282 -5.58045 1.4994 0.0436459  0.075495  0.197594  0.0394975  0.212632  0.0460303  0.316083  0.0482792  0.117463  0.0471148  0.204793  
34 3 -3.47461 -8.55046 0.194693 0.0342071  0.0934689  0.16661  0.040521  0.194805  0.0449612  0.325292  0.047201  0.0912479  0.0450868  0.175443  
36 3 -3.46804 -8.48323 2.76725 0.0355156  0.0947184  0.145144  0.0491413  0.18778  0.0437154  0.322536  0.055832  0.0889265  0.0541019  0.178837  
51 1 -2.47271 -2.1971 1.42753 0.0406767  0.130737  0.0642028  0.0634648  0.188601  0.0865349  0.29194  0.0878605  0.0960904  0.0751537  0.199899  
52 2 -4.49614 -4.1163 1.57671 0.0207582  0.108102  0.254648  0.0691739  0.180686  0.0695197  0.312059  0.0751657  0.114034  0.0689936  0.186401  
53 3 -1.31483 -4.08382 1.52251 0.0218184  0.0556939  0.240951  0.0330343  0.168749  0.0428296  0.283486  0.0545719  0.0966275  0.0387307  0.15992  
54 3 -3.47651 -0.432707 1.57914 0.0405595  0.0583799  0.198162  0.0272693  0.20059  0.040014  0.294414  0.0344024  0.113881  0.0428912  0.181641  
55 3 -3.8041 -3.4358 0.269036 0.0318964  0.0935535  0.138118  0.0444527  0.201504  0.0455504  0.304313  0.0510982  0.0909402  0.0477655  0.178281  
56 3 -3.8536 -3.43394 2.86725 0.0255642  0.0950324  0.154536  0.0392233  0.177869  0.0410899  0.301218  0.0447639  0.0696921  0.0506794  0.153444  
253 1 4.92246 -10.1069 -0.0476416 0.0278828  0.045365  0.307237  0.0234965  0.182433  0.0455799  0.332934  0.0414675  0.119056  0.0426166  0.179307  
254 1 4.77657 -7.38197 -4.41074 0.0461619  0.126864  0.0978181  0.0502551  0.184731  0.08149  0.297255  0.0776927  0.0865358  0.0801508  0.164854  
255 2 2.16417 -9.1567 -4.52313 0.0190441  0.0927077  0.276688  0.07696  0.1988  0.0688237  0.299604  0.0682262  0.135267  0.0732431  0.195815  
256 3 3.72488 -9.30862 -4.57459 0.0245376  0.0576326  0.243885  0.0292448  0.175962  0.0439456  0.279675  0.0472577  0.105466  0.0435289  0.172512  
257 3 0.988198 -5.59407 -4.60757 0.0476223  0.0745267  0.19798  0.0390941  0.2089  0.0469434  0.303136  0.0389004  0.115705  0.0477908  0.190312  
258 3 1.46421 -8.54612 -5.79904 0.0303927  0.0894724  0.167472  0.0374086  0.198357  0.0521527  0.299696  0.0569308  0.0989059  0.048967  0.172476  
259 1 4.77012 -10.272 -3.00804 0.0339809  0.0236035  0.310239  0.0251952  0.183248  0.0282754  0.327544  0.032295  0.116122  0.0343639  0.180614  
260 3 1.55536 -8.48823 -3.20133 0.0343698  0.0940705  0.146876  0.0514584  0.203791  0.0577716  0.302604  0.0564609  0.0902036  0.0608843  0.17944  
261 1 -0.111016 -2.84215 -1.47753 0.0489693  0.118131  0.115007  0.0591716  0.214094  0.0770316  0.310491  0.0635633  0.0999327  0.0669381  0.19566  
262 2 2.65651 -1.04601 -1.5624 0.02469  0.095292  0.283285  0.0790291  0.181361  0.0750521  0.330256  0.0686333  0.129587  0.0701602  0.184893  
263 3 1.09321 -0.921733 -1.49083 0.024951  0.0694504  0.26998  0.036185  0.161422  0.0597169  0.315554  0.0582989  0.100713  0.0513181  0.151645  
264 3 3.76109 -4.59349 -1.63503 0.0437349  0.0549886  0.198067  0.0391115  0.19773  0.033137  0.320895  0.036512  0.0949313  0.0416468  0.178716  
265 3 3.3958 -1.78508 -2.8152 0.0366433  0.0954378  0.145095  0.0462668  0.188055  0.0502065  0.33183  0.0529672  0.0790192  0.0529279  0.174902  
266 3 3.37912 -1.72763 -0.271162 0.0413359  0.0882009  0.146051  0.0635224  0.19358  0.0474123  0.334082  0.0498761  0.0953471  0.0609075  0.187276  
267 1 2.30066 -5.18132 -3.04936 0.0395324  0.0529718  0.319309  0.0246907  0.175887  0.0524169  0.338234  0.0577663  0.104368  0.0544987  0.164167  
268 1 2.43688 -7.92255 -1.4938 0.0453306  0.12509  0.15313  0.0548594  0.212034  0.0963884  0.318133  0.0955726  0.110471  0.0826069  0.196704  
269 2 4.53086 -6.08017 -1.45541 0.0174227  0.0802217  0.2516  0.0763547  0.159384  0.0567618  0.311851  0.075325  0.109876  0.0691731  0.189203  
270 3 1.16579 -5.90689 -1.54111 0.0240014  0.0494452  0.2307  0.0273187  0.174723  0.0384445  0.28449  0.0415446  0.10234  0.0340258  0.167804  
271 3 3.46257 -9.75293 -1.48892 0.0448155  0.0691005  0.177913  0.0362396  0.217893  0.0583856  0.307487  0.0465246  0.110499  0.0406822  0.193959  
272 3 3.78368 -6.88901 -2.75964 0.0334982  0.0978302  0.147598  0.0444905  0.19298  0.054406  0.300013  0.0532029  0.0892451  0.0628912  0.169448  
273 1 2.32405 -4.85128 -0.0711204 0.0434521  0.0518934  0.313233  0.0307519  0.183564  0.056481  0.332547  0.0558466  0.105901  0.0620158  0.162384  
274 3 3.8068 -6.7165 -0.150068 0.033048  0.101423  0.154816  0.0318764  0.186853  0.0434938  0.317073  0.0538537  0.0617991  0.0549491  0.157992  
275 1 2.38232 -2.39682 -4.55202 0.0471413  0.118691  0.149363  0.0626456  0.202202  0.0793828  0.337404  0.0729106  0.10516  0.0812871  0.186072  
276 2 0.288254 -4.13439 -4.59613 0.0174051  0.093096  0.275275  0.0690075  0.189064  0.0703552  0.317938  0.0580143  0.131407  0.0591043  0.180856  
277 3 3.55716 -4.20396 -4.4971 0.0182565  0.058189  0.245033  0.0281381  0.167656  0.0459362  0.308725  0.0408765  0.092053  0.044308  0.159204  
278 3 1.43814 -0.606086 -4.41042 0.0456558  0.0769573  0.199985  0.0383026  0.212153  0.0495005  0.342642  0.0480573  0.114238  0.0503127  0.206463  
279 3 1.02125 -3.51458 -5.84138 0.0316876  0.0897071  0.137886  0.0476125  0.194599  0.038171  0.331199  0.0520387  0.0752841  0.0557901  0.176287  
280 3 0.934034 -3.46295 -3.2415 0.0291213  0.0880757  0.162881  0.04684  0.193735  0.0418769  0.318106  0.0533238  0.0722124  0.0480968  0.159278  
282 1 4.68194 -7.43982 1.47922 0.0457468  0.123245  0.157009  0.0467267  0.170365  0.0734038  0.333716  0.0905158  0.0793219  0.0742065  0.167183  
283 2 2.12062 -9.22317 1.50647 0.0202681  0.104812  0.28068  0.0638069  0.183517  0.0602924  0.32286  0.0680309  0.12812  0.0667329  0.174106  
284 3 3.70245 -9.23791 1.48875 0.0193931  0.0483418  0.230594  0.0277268  0.177353  0.0381321  0.306564  0.0375237  0.0979542  0.0384247  0.172775  
285 3 0.957923 -5.47945 1.46534 0.0342038  0.0439284  0.196964  0.0326004  0.201011  0.0289041  0.301581  0.0326294  0.111934  0.0437062  0.175395  
286 3 1.37061 -8.58312 0.133439 0.0298201  0.0934721  0.169623  0.0346523  0.200026  0.0453119  0.31666  0.0512388  0.0809392  0.055362  0.170206  
288 3 1.38175 -8.44116 2.70949 0.0269606  0.0880209  0.163395  0.0480269  0.190218  0.0368406  0.308694  0.0476504  0.102036  0.0449844  0.177096  
303 1 2.54332 -2.26386 1.47503 0.0424078  0.143211  0.154694  0.079402  0.189153  0.0957369  0.313639  0.109987  0.106911  0.0983091  0.18498  
304 2 0.289103 -3.93187 1.52043 0.0135305  0.0535604  0.264156  0.0832926  0.152122  0.059837  0.302171  0.0882272  0.102213  0.0628104  0.165371  
305 3 3.56604 -4.12678 1.49605 0.0185876  0.0448548  0.219927  0.0320215  0.170049  0.039723  0.304194  0.0389769  0.083579  0.0354064  0.175306  
306 3 1.39872 -0.636705 1.48586 0.0477772  0.0792186  0.202605  0.0355796  0.209407  0.0439096  0.3233  0.055969  0.131134  0.0464106  0.196575  
307 3 0.956806 -3.32727 0.217416 0.03074  0.0904734  0.135233  0.0554517  0.193526  0.0520998  0.300009  0.0542021  0.0918577  0.0456445  0.165871  
308 3 1.03906 -3.33458 2.7726 0.0303764  0.0915035  0.156512  0.0380294  0.193862  0.0576069  0.317992  0.0445321  0.0826541  0.0535439  0.168601  
505 1 9.65437 -10.3616 0.104668 0.0360541  0.0429537  0.279379  0.030767  0.174228  0.0438779  0.329888  0.0462884  0.103707  0.0529353  0.170625  
506 1 9.60531 -7.53254 -4.48048 0.0523648  0.114475  0.147135  0.0565101  0.196585  0.0762847  0.346029  0.0689736  0.0804611  0.0749418  0.184231  
507 2 6.95342 -9.23088 -4.53565 0.0185711  0.119369  0.228786  0.0762777  0.174347  0.0719295  0.317256  0.0827163  0.141277  0.0824445  0.196806  
508 3 8.50129 -9.2959 -4.46622 0.0178378  0.0546129  0.237749  0.0303288  0.161208  0.0395475  0.313318  0.0499815  0.0951008  0.0425596  0.167304  
509 3 5.8535 -5.53993 -4.42915 0.0408996  0.0576754  0.201914  0.0384644  0.200856  0.0313816  0.306649  0.0429279  0.111805  0.0508324  0.17912  
510 3 6.27808 -8.58297 -5.83015 0.0320062  0.0866887  0.160908  0.0493662  0.195202  0.0507535  0.316265  0.0523517  0.075421  0.0600765  0.165358  
511 1 9.72439 -10.1993 -2.89298 0.0372745  0.0396  0.33931  0.0257512  0.190226  0.0325495  0.355272  0.0459569  0.122034  0.0483695  0.189646  
512 3 6.18539 -8.49199 -3.25655 0.0332292  0.087962  0.169487  0.0453211  0.188055  0.0521935  0.305421  0.0509505  0.0830762  0.0534025  0.156361  
513 1 4.85912 -2.72268 -1.49715 0.0495239  0.107466  0.192991  0.0533788  0.195326  0.0725554  0.343334  0.0743367  0.0966038  0.0660233  0.186292  
514 2 7.57424 -1.05414 -1.50545 0.0232946  0.115982  0.260685  0.0689101  0.185678  0.0685843  0.338522  0.0763228  0.12047  0.082381  0.196811  
515 3 6.03753 -0.958863 -1.46409 0.0181559  0.0562223  0.250733  0.0343377  0.169308  0.0400769  0.325607  0.0468397  0.101258  0.0391826  0.181091  
516 3 8.67259 -4.66943 -1.42187 0.0466847  0.0795804  0.195113  0.0319601  0.211375  0.0533892  0.32169  0.0522502  0.113222  0.049584  0.201644  
517 3 8.32265 -1.70617 -2.7899 0.0334202  0.108184  0.144552  0.0394017  0.192101  0.0552282  0.320853  0.0572789  0.0849406  0.0591308  0.185144  
518 3 8.33674 -1.71703 -0.252627 0.0372537  0.0972191  0.151838  0.0448584  0.196468  0.0541978  0.324167  0.0557017  0.0889688  0.0551699  0.189193  
519 1 7.23525 -5.06852 -2.95333 0.0415564  0.0256592  0.340386  0.0185421  0.200244  0.0320372  0.347848  0.0389307  0.127245  0.0346149  0.179679  
520 1 7.13194 -8.01093 -1.5136 0.0397292  0.130012  0.140729  0.0522716  0.16762  0.078368  0.313198  0.0791459  0.0909092  0.0813379  0.14891  
521 2 9.34647 -6.14378 -1.41136 0.0208287  0.113668  0.252124  0.0661865  0.182458  0.0770781  0.321289  0.0810181  0.12305  0.0777188  0.20143  
522 3 6.04032 -5.88177 -1.36858 0.0190991  0.0328826  0.221384  0.0219638  0.177186  0.0223576  0.303889  0.0232518  0.0785362  0.0225562  0.175542  
523 3 8.33345 -9.73108 -1.45478 0.0412089  0.0572195  0.204134  0.0306046  0.198995  0.0307427  0.31779  0.0389662  0.116977  0.039896  0.189524  
524 3 8.71567 -6.76742 -2.79014 0.0352426  0.0838021  0.159897  0.0553871  0.191056  0.0496758  0.331414  0.0486939  0.0730037  0.0546859  0.174153  
525 1 7.25623 -5.08289 0.108276 0.038657  0.0513157  0.329793  0.0411352  0.163178  0.0520518  0.369694  0.0520162  0.137511  0.0645162  0.190757  
526 3 8.56697 -6.82864 -0.194223 0.0336469  0.0944709  0.144249  0.0459169  0.184021  0.0580089  0.315654  0.0585507  0.0789034  0.0596752  0.17795  
527 1 7.45862 -2.39824 -4.50228 0.040771  0.151075  0.184458  0.0612534  0.186439  0.0899876  0.323333  0.101588  0.0945151  0.0993674  0.178805  
528 2 5.14331 -4.0469 -4.42347 0.0141697  0.0711788  0.276423  0.0708259  0.165286  0.0559495  0.324582  0.0627835  0.121338  0.0619666  0.184711  
529 3 8.47771 -4.25514 -4.54799 0.0193833  0.0513131  0.227601  0.0239054  0.172304  0.038805  0.315658  0.032499  0.0972633  0.0337644  0.17765  
530 3 6.19787 -0.488367 -4.51418 0.0410393  0.0591026  0.199119  0.0330399  0.204033  0.0316679  0.332589  0.0351607  0.104676  0.0380044  0.184844  
531 3 5.87129 -3.42799 -5.67809 0.0335636  0.0876828  0.168139  0.0481321  0.190048  0.0444532  0.321517  0.0548358  0.0807141  0.0520622  0.158005  
532 3 5.86459 -3.33382 -3.14006 0.0356292  0.0910696  0.145293  0.0484404  0.186778  0.0458301  0.328288  0.0509165  0.0841632  0.05119  0.178804  
534 1 9.64248 -7.37026 1.45127 0.0505762  0.109543  0.112352  0.0641073  0.207464  0.0784493  0.328843  0.0747773  0.096619  0.0753695  0.206502  
535 2 6.97113 -9.21893 1.56607 0.0209953  0.113675  0.256227  0.0670422  0.176013  0.0791745  0.318928  0.0764853  0.118188  0.082214  0.170636  
536 3 8.48234 -9.35701 1.58679 0.0187093  0.0610219  0.241465  0.0245807  0.166174  0.0441912  0.305748  0.0398722  0.0966675  0.0398853  0.153872  
537 3 5.88664 -5.59752 1.47503 0.0480832  0.0796578  0.19618  0.0322328  0.204052  0.0526254  0.340796  0.0480845  0.0989935  0.0440491  0.199509  
538 3 6.2734 -8.5107 0.233627 0.0352913  0.0958984  0.151631  0.0467196  0.18499  0.0548229  0.321206  0.0548634  0.0901708  0.0675473  0.166901  
540 3 6.21611 -8.60946 2.85598 0.0335063  0.098699  0.139278  0.0437192  0.191726  0.0565419  0.325605  0.0498625  0.0813423  0.0605297  0.177148  
555 1 7.32906 -2.24485 1.50285 0.0503675  0.114313  0.146991  0.0562286  0.17199  0.0688788  0.340195  0.0809014  0.0735853  0.0810651  0.163926  
556 2 5.09356 -4.15066 1.48209 0.023269  0.0943282  0.224916  0.0466336  0.174724  0.0556742  0.317028  0.0578508  0.11977  0.0590415  0.200389  
557 3 8.47444 -4.2726 1.56387 0.0153735  0.0566509  0.249568  0.0293225  0.162878  0.0416085  0.317102  0.0429774  0.0957597  0.0413311  0.174187  
558 3 6.21568 -0.471306 1.451 0.0473089  0.0709029  0.177182  0.0438526  0.20907  0.0554106  0.324895  0.049615  0.114673  0.0495074  0.208422  
559 3 5.9034 -3.42946 0.222137 0.0374896  0.0878627  0.169719  0.0450433  0.184182  0.0439316  0.333749  0.0477215  0.0804635  0.0471415  0.172869  
560 3 5.81419 -3.47753 2.78253 0.0348166  0.0910189  0.170682  0.0410279  0.185887  0.0507911  0.333474  0.0526073  0.0715628  0.0536075  0.183433  
85 1 0.00968822 -0.0444418 -0.0019285 0.0386691  0.0283992  0.286302  0.0325034  0.189498  0.0487153  0.340505  0.0394219  0.11409  0.0390967  0.176859  
86 1 -0.0261669 2.84396 -4.41775 0.0530733  0.108338  0.111463  0.0533785  0.175241  0.0755462  0.322044  0.0789478  0.10253  0.0735865  0.163881  
87 2 -2.84 0.964055 -4.49597 0.0242418  0.0809673  0.245041  0.054515  0.181692  0.0577611  0.318291  0.0560524  0.104935  0.052153  0.182167  
88 3 -1.23218 0.923782 -4.45405 0.0156107  0.0308881  0.222955  0.0264081  0.18416  0.0210094  0.306161  0.026744  0.0874949  0.0236841  0.16811  
89 3 -3.75926 4.56007 -4.50743 0.0490652  0.07291  0.2012  0.0410658  0.212738  0.05106  0.32152  0.0375971  0.119956  0.0525924  0.20068  
90 3 -3.41225 1.58217 -5.84096 0.0304941  0.0827287  0.159662  0.0533837  0.187931  0.0470695  0.317198  0.0496097  0.0744223  0.0496237  0.166372  
91 1 -0.0138657 -0.0272048 -2.98777 0.0284496  0.0496353  0.280675  0.0377313  0.176861  0.0459506  0.340783  0.0457567  0.0965885  0.0590266  0.166734  
92 3 -3.57158 1.56583 -3.28488 0.0299604  0.0968299  0.14741  0.0391478  0.181661  0.0425649  0.320318  0.0513559  0.0630003  0.055471  0.153827  
93 1 -4.70537 7.38056 -1.49172 0.0519509  0.105702  0.0994067  0.0680971  0.211168  0.0815192  0.329818  0.0680962  0.0949805  0.0872204  0.196122  
94 2 -2.06627 9.189 -1.49891 0.0110307  0.0724335  0.273755  0.0722109  0.180535  0.0563913  0.308983  0.061189  0.128407  0.0693971  0.188544  
95 3 -3.63273 9.26089 -1.4247 0.0227554  0.0475979  0.228978  0.0394046  0.182044  0.0386576  0.28332  0.037081  0.101377  0.0457743  0.169726  
96 3 -1.01336 5.64092 -1.64205 0.045894  0.0759182  0.197467  0.043051  0.213198  0.0444657  0.310404  0.0486573  0.130142  0.0513628  0.189212  
97 3 -1.36808 8.63923 -2.81763 0.0357085  0.087185  0.170674  0.0462992  0.19533  0.0491877  0.316372  0.045715  0.0886825  0.0512177  0.167955  
98 3 -1.37046 8.46181 -0.195728 0.0300664  0.0913304  0.14358  0.046041  0.198879  0.0501288  0.298972  0.0486312  0.111035  0.0545691  0.179758  
99 1 -2.35705 5.23404 -3.00055 0.0504796  0.0173793  0.342964  0.0215826  0.203373  0.03829  0.365423  0.0438357  0.131964  0.0325722  0.211669  
100 1 -2.53453 2.37872 -1.46969 0.0449194  0.119261  0.105944  0.0595304  0.186444  0.081419  0.34438  0.0790318  0.0829388  0.0691244  0.194399  
101 2 -0.36252 4.13625 -1.51788 0.0228572  0.106581  0.271217  0.0499423  0.178745  0.0703107  0.304612  0.0653308  0.128026  0.0589198  0.159661  
102 3 -3.5276 4.26749 -1.50516 0.0227633  0.06104  0.247973  0.0259427  0.16532  0.0357504  0.32111  0.0494393  0.0976661  0.0497933  0.16682  
103 3 -1.35048 0.526065 -1.44781 0.0412119  0.0676474  0.172594  0.0436898  0.213363  0.0544953  0.324002  0.0418965  0.112609  0.0456161  0.189769  
104 3 -1.07957 3.39171 -2.71573 0.0296832  0.0755678  0.187699  0.0477499  0.188925  0.0458565  0.315872  0.0407977  0.100711  0.0518587  0.168393  
105 1 -2.45094 5.14354 -0.0563027 0.0344058  0.0176403  0.281856  0.0254269  0.191252  0.0435929  0.336936  0.0377442  0.111196  0.0296198  0.162403  
106 3 -1.04568 3.55554 -0.186788 0.0277979  0.0881582  0.163118  0.0344147  0.192264  0.050134  0.323302  0.0504753  0.0944059  0.0506125  0.160691  
107 1 -2.57555 7.94923 -4.49746 0.0464286  0.112664  0.112108  0.0589431  0.186796  0.0867482  0.323382  0.0863832  0.0831062  0.0667101  0.182925  
108 2 -4.5232 6.04904 -4.50693 0.0264542  0.100895  0.280903  0.0738943  0.176237  0.0667014  0.332704  0.077703  0.11872  0.0720311  0.175981  
109 3 -1.18275 5.97932 -4.48309 0.0216332  0.0502983  0.236559  0.0272794  0.167763  0.0354187  0.300003  0.031822  0.108448  0.0374614  0.172711  
110 3 -3.51148 9.78205 -4.56336 0.0459158  0.0792625  0.196351  0.0388318  0.216153  0.0478145  0.316421  0.055258  0.0993396  0.0561413  0.197898  
111 3 -3.77678 6.77856 -5.78247 0.0369127  0.0831269  0.164724  0.0471335  0.198747  0.0468305  0.326654  0.0471362  0.0883147  0.0478429  0.178533  
112 3 -3.76259 6.74543 -3.19663 0.0354326  0.0889615  0.174516  0.0528579  0.197976  0.0431544  0.331473  0.056531  0.078867  0.0571623  0.183101  
114 1 -0.164663 2.86749 1.50337 0.0309151  0.158294  0.0675461  0.0636175  0.179384  0.102713  0.315078  0.111916  0.0896244  0.0982334  0.205176  
115 2 -2.72316 1.04922 1.48303 0.0178189  0.0681703  0.2656  0.0840678  0.162046  0.0665902  0.307435  0.0827492  0.104138  0.0650196  0.176359  
116 3 -1.1875 0.937766 1.4788 0.0246311  0.0495851  0.224998  0.023909  0.168091  0.0333239  0.308604  0.0329935  0.0904349  0.0313514  0.16406  
117 3 -3.73619 4.56994 1.5314 0.0397319  0.0697246  0.175862  0.0392444  0.208241  0.0528821  0.314175  0.0473811  0.117322  0.0419564  0.183316  
118 3 -3.4232 1.6855 0.188855 0.033275  0.0939775  0.139441  0.0479019  0.195672  0.0523518  0.326042  0.0564311  0.0838369  0.0569757  0.178878  
120 3 -3.4202 1.78241 2.75092 0.032512  0.0906562  0.131419  0.0475295  0.18181  0.0504514  0.302688  0.0566706  0.0740761  0.0499655  0.157618  
135 1 -2.26972 7.97452 1.57614 0.0395497  0.130291  0.108239  0.060692  0.178426  0.0800849  0.31404  0.0853013  0.0831585  0.0790712  0.165922  
136 2 -4.48147 6.03212 1.484 0.0184961  0.115563  0.256376  0.0647923  0.172336  0.076459  0.315043  0.0741782  0.141324  0.0706753  0.17008  
137 3 -1.2419 6.14317 1.48362 0.0236225  0.0470777  0.219491  0.0294579  0.170179  0.0355487  0.291203  0.039899  0.0987128  0.0309485  0.161252  
138 3 -3.4487 9.71822 1.47732 0.039803  0.0534885  0.203894  0.0393951  0.206561  0.0276679  0.307571  0.0311303  0.111522  0.037513  0.177647  
139 3 -3.85304 6.76763 0.24225 0.0299385  0.0892154  0.141049  0.0537655  0.194016  0.0476796  0.312789  0.0551013  0.0857266  0.0590054  0.172141  
140 3 -3.86684 6.70732 2.78684 0.0304322  0.090596  0.143383  0.0496654  0.189115  0.050289  0.317185  0.0549214  0.0909649  0.0577503  0.171553  
337 1 4.75774 -0.111601 0.0382456 0.0349924  0.0338691  0.291748  0.0398967  0.16939  0.0402152  0.355508  0.0456452  0.120493  0.0537807  0.191418  
338 1 4.73662 2.79841 -4.48811 0.0292319  0.147283  0.0928493  0.0503733  0.18365  0.0849262  0.337631  0.105151  0.105038  0.0931107  0.204655  
339 2 2.1388 0.904561 -4.45926 0.0237862  0.113526  0.259037  0.0676146  0.175613  0.071785  0.336017  0.0772828  0.126278  0.0765577  0.182971  
340 3 3.68723 0.83435 -4.52616 0.0227659  0.0492971  0.229215  0.0251521  0.173106  0.034848  0.321251  0.035568  0.095419  0.0292402  0.173006  
341 3 1.14102 4.60537 -4.61032 0.0522886  0.0765442  0.198788  0.0349515  0.201005  0.0431219  0.319097  0.0584641  0.110602  0.0529421  0.185252  
342 3 1.33006 1.60711 -5.7778 0.0333162  0.0890879  0.16629  0.044169  0.185674  0.0529313  0.322788  0.0548448  0.0749057  0.0496873  0.161713  
343 1 4.8833 -0.0768608 -2.97473 0.03816  0.0541585  0.320199  0.0245743  0.175161  0.0543875  0.367853  0.0531818  0.118921  0.0592593  0.17113  
344 3 1.39206 1.59783 -3.29129 0.0367095  0.085353  0.142008  0.0503831  0.195432  0.0514771  0.328758  0.0444982  0.0817605  0.0650599  0.180339  
345 1 0.0385291 7.37427 -1.5652 0.0491633  0.122377  0.0763612  0.0724163  0.211303  0.0966385  0.307068  0.0759301  0.128271  0.0746023  0.219167  
346 2 2.76115 9.05131 -1.41148 0.0143195  0.121039  0.250569  0.0526202  0.168292  0.0715189  0.305981  0.0729526  0.12969  0.0678753  0.18013  
347 3 1.2143 9.14323 -1.43818 0.0214346  0.049409  0.231263  0.0256387  0.169888  0.0373405  0.277625  0.0380181  0.102527  0.0330475  0.178397  
348 3 3.86443 5.60389 -1.51515 0.0421667  0.0581101  0.202014  0.0385581  0.203584  0.033768  0.307097  0.0360588  0.123553  0.0364841  0.185922  
349 3 3.47763 8.33898 -2.6712 0.0351291  0.0833015  0.146839  0.057191  0.198365  0.0465627  0.308653  0.0492621  0.0922656  0.0567904  0.186183  
350 3 3.55267 8.51199 -0.0437887 0.030358  0.0946959  0.162984  0.0353268  0.18249  0.040376  0.298775  0.0484879  0.0897775  0.038138  0.163761  
351 1 2.43423 5.13381 -3.14265 0.0502791  0.0410911  0.31956  0.0373837  0.181646  0.0351226  0.341039  0.0431915  0.115897  0.0633787  0.158043  
352 1 2.22206 2.2753 -1.45215 0.0442019  0.126592  0.137397  0.0556794  0.163739  0.0758753  0.324406  0.0823901  0.0891281  0.0824946  0.14775  
353 2 4.43062 4.07666 -1.64146 0.0154238  0.0857997  0.278233  0.060729  0.167196  0.058509  0.325526  0.0609806  0.113441  0.068602  0.163197  
354 3 1.20841 4.28779 -1.63825 0.0245155  0.0283631  0.220896  0.0268587  0.17945  0.0215714  0.282475  0.0234402  0.106064  0.0242702  0.16747  
355 3 3.38135 0.409078 -1.54192 0.0464135  0.0800593  0.201997  0.0283725  0.213257  0.0471791  0.331512  0.0506363  0.130084  0.0424817  0.209459  
356 3 3.79158 3.50044 -2.9796 0.030105  0.0938641  0.162995  0.0367347  0.187868  0.0510871  0.323203  0.0509482  0.0900767  0.0540135  0.161072  
357 1 2.46578 5.04403 -0.0701977 0.031035  0.0626616  0.275305  0.0373395  0.176097  0.0438337  0.304742  0.0649026  0.115921  0.0658801  0.147726  
358 3 3.75577 3.43406 -0.42564 0.0326121  0.100075  0.142523  0.0404838  0.191347  0.0489156  0.306999  0.053452  0.0929589  0.0595621  0.166144  
359 1 2.61912 7.95618 -4.48588 0.0493065  0.122546  0.112789  0.0720089  0.163706  0.0740522  0.32569  0.0759207  0.0914477  0.0754253  0.162555  
360 2 0.353125 6.13018 -4.53478 0.0311027  0.0934754  0.249454  0.0481334  0.175913  0.0695669  0.317084  0.057058  0.121663  0.0667224  0.176628  
361 3 3.70679 6.06376 -4.57682 0.0225625  0.0487538  0.219726  0.030198  0.162141  0.032784  0.301137  0.0324728  0.0939965  0.0333457  0.174751  
362 3 1.35784 9.74692 -4.41262 0.0433919  0.0581393  0.203779  0.0332411  0.197001  0.0335227  0.300437  0.0387477  0.110152  0.0416057  0.181055  
363 3 0.987184 6.6901 -5.89942 0.0386762  0.0842242  0.160712  0.0493584  0.177963  0.049653  0.319742  0.0492654  0.0816968  0.0604394  0.157344  
364 3 1.0621 6.70541 -3.31582 0.0324558  0.0910383  0.161391  0.0428795  0.184339  0.0365413  0.304229  0.0432311  0.0829206  0.0480939  0.15104  
366 1 4.77897 2.78249 1.46495 0.0401  0.13763  0.118616  0.0459692  0.173958  0.0737219  0.322417  0.0799819  0.0899596  0.0789977  0.163465  
367 2 2.04548 0.928211 1.52258 0.0233318  0.107577  0.282008  0.0682267  0.172176  0.0731829  0.327649  0.074074  0.123279  0.0748057  0.172819  
368 3 3.59001 0.822055 1.46117 0.0236441  0.0509913  0.228501  0.024705  0.165858  0.0359755  0.310631  0.030863  0.0961052  0.0297419  0.176165  
369 3 1.01955 4.64308 1.61988 0.0396755  0.0739995  0.16768  0.0381306  0.212907  0.0595299  0.294284  0.0560171  0.119548  0.0415715  0.178198  
370 3 1.34552 1.61895 0.285257 0.0326025  0.0793069  0.166417  0.0491151  0.192142  0.0414723  0.319554  0.0417372  0.0891782  0.0553971  0.163492  
372 3 1.36117 1.64229 2.73725 0.0336608  0.0936129  0.141563  0.0420547  0.19114  0.0389687  0.325086  0.0569233  0.0818382  0.0496597  0.176099  
387 1 2.55285 7.94111 1.56857 0.0504322  0.114569  0.113056  0.0620718  0.204881  0.077267  0.304537  0.0665004  0.10134  0.064139  0.195495  
388 2 0.3902 6.15592 1.53548 0.0179726  0.088749  0.270769  0.0839139  0.185273  0.0743597  0.301724  0.0665847  0.120447  0.0812071  0.174801  
389 3 3.63302 5.97334 1.46912 0.0258733  0.0471126  0.227886  0.0255825  0.173929  0.034991  0.290519  0.0319612  0.104858  0.0283757  0.181195  
390 3 1.39541 9.69623 1.54688 0.0411249  0.0679648  0.173544  0.0430648  0.212015  0.0528066  0.302969  0.0498112  0.124838  0.039508  0.19881  
391 3 1.00746 6.65817 0.241102 0.0328638  0.0944135  0.140911  0.0485407  0.192671  0.0497317  0.29567  0.0493924  0.100235  0.0552449  0.166667  
392 3 1.04219 6.91268 2.78633 0.0312882  0.0889218  0.141674  0.0562409  0.192964  0.0539674  0.306831  0.0558418  0.085751  0.0538455  0.175213  
589 1 9.60661 -0.00505093 -0.0577294 0.0314817  0.0555405  0.313653  0.0325429  0.170047  0.0524924  0.342023  0.0656883  0.113049  0.0505458  0.175384  