ITEM: TIMESTEP
7000
ITEM: NUMBER OF ATOMS
11016
ITEM: BOX BOUNDS pp pp pp
-14.54184 24.2364
80.0 135.0
35.0 90.0
ITEM: ATOMS id type x y z Coordination
3 3 -13.3017 85.1603 36.3805 22
12 2 -12.9106 81.7252 40.2219 24
13 3 -9.58381 81.495 39.8381 23
14 3 -12.2105 80.323 40.1193 20
15 3 -12.9423 82.3486 41.7181 22
16 3 -9.85309 80.7272 35.9689 21
18 1 -12.8716 84.0943 38.0292 25
20 3 -12.4478 81.6933 36.6657 24
21 3 -11.2016 85.3157 38.2048 23
23 1 -10.9385 81.2218 38.2224 21
24 3 -9.73551 82.9246 37.4248 20
25 1 -11.8292 88.5411 41.0786 27
28 3 -13.0645 86.823 41.2227 23
31 1 -13.9057 87.5522 39.6707 25
33 2 -12.6072 85.2315 41.2063 25
34 3 -11.0564 85.0352 41.2329 26
35 3 -12.0503 82.6655 39.2744 20
36 3 -13.4435 84.7353 39.9429 23
38 3 -13.0974 84.8145 42.6876 24
40 2 -11.5042 86.8866 38.0566 25
41 3 -13.0127 87.3799 37.9701 23
43 3 -10.695 87.3797 36.8174 21
44 3 -10.9474 87.6232 39.3972 24
168 3 -9.86363 80.9461 42.7766 23
170 1 -11.7324 84.1182 44.0037 27
171 2 -13.8283 82.2347 43.058 19
174 3 -10.0365 83.1773 43.8569 21
192 2 -11.6044 87.4632 44.062 24
193 3 -13.1511 87.4365 44.0935 22
195 3 -10.8744 87.9111 42.7294 23
1380 3 -8.4544 85.1603 36.3805 22
1389 2 -8.0633 81.7252 40.2219 24
1391 3 -7.36325 80.323 40.1193 20
1392 3 -8.09497 82.3486 41.7181 22
1393 3 -5.00581 80.7272 35.9689 21
1395 1 -8.02435 84.0943 38.0292 25
1396 2 -9.06122 82.0776 36.182 22
1397 3 -7.60052 81.6933 36.6658 24
1398 3 -6.35432 85.3157 38.2048 23
1400 1 -6.09118 81.2218 38.2224 21
1402 1 -6.9819 88.5411 41.0786 27
1405 3 -8.21726 86.823 41.2227 23
1408 1 -9.05846 87.5522 39.6707 25
1409 1 -10.4117 83.887 39.4964 24
1410 2 -7.75995 85.2315 41.2063 25
1411 3 -6.20914 85.0352 41.2329 26
1412 3 -7.20301 82.6655 39.2744 20
1413 3 -8.5962 84.7353 39.9429 23
1414 1 -10.3659 84.64 36.3887 25
1415 3 -8.25015 84.8145 42.6876 24
1417 2 -6.65695 86.8866 38.0566 25
1418 3 -8.16544 87.3799 37.9701 23
1420 3 -5.84767 87.3797 36.8174 21
1421 3 -6.10008 87.6232 39.3972 24
1545 3 -5.01635 80.9461 42.7766 23
1547 1 -6.88512 84.1182 44.0037 27
1548 2 -8.98102 82.2347 43.058 19
1551 3 -5.18918 83.1773 43.8569 21
1566 1 -9.74645 86.1767 42.5412 27
1569 2 -6.75712 87.4632 44.062 24
1570 3 -8.3038 87.4365 44.0935 22
1572 3 -6.02713 87.9111 42.7294 23
2786 1 -5.56442 83.887 39.4964 24
2791 1 -5.51862 84.64 36.3887 25
2751 1 -8.56583 87.1682 35.8439 25
1374 1 -13.4131 87.1682 35.8439 25
2943 1 -4.89917 86.1767 42.5412 27
39 1 -14.4422 88.9493 37.4406 22
1416 1 -9.59491 88.9493 37.4406 22
19 2 -13.9085 82.0776 36.182 22
9652 3 -14.4311 81.495 39.8381 23
9663 3 -14.5828 82.9246 37.4248 20
191 1 -14.2217 89.2572 43.9899 29
1568 1 -9.37438 89.2572 43.9899 29
172 3 -12.7346 82.1096 44.2523 21
1549 3 -7.88732 82.1096 44.2523 21
1401 3 -4.88823 82.9246 37.4248 20
1390 3 -4.73653 81.495 39.8381 23
2773 2 -4.21394 82.0776 36.182 22
2757 3 -3.60712 85.1603 36.3805 22
2766 2 -3.21602 81.7252 40.2219 24
2767 3 0.110747 81.495 39.8381 23
2768 3 -2.51596 80.323 40.1193 20
2769 3 -3.2477 82.3486 41.7181 22
2770 3 -0.158526 80.7272 35.9689 21
2772 1 -3.17707 84.0943 38.0292 25
2774 3 -2.75324 81.6933 36.6657 24
2775 3 -1.50704 85.3157 38.2048 23
2777 1 -1.2439 81.2218 38.2224 21
2778 3 -0.0409491 82.9246 37.4248 20
2779 1 -2.13462 88.5411 41.0786 27
2782 3 -3.36998 86.823 41.2227 23
2785 1 -4.21119 87.5522 39.6707 25
2787 2 -2.91267 85.2315 41.2063 25
2788 3 -1.36186 85.0352 41.2329 26
2789 3 -2.35573 82.6655 39.2744 20
2790 3 -3.74892 84.7353 39.9429 23
2792 3 -3.40287 84.8145 42.6876 24
2794 2 -1.80967 86.8866 38.0566 25
2795 3 -3.31816 87.3799 37.9701 23
2797 3 -1.0004 87.3797 36.8174 21
2798 3 -1.25279 87.6232 39.3972 24
2922 3 -0.169071 80.9461 42.7766 23
2924 1 -2.03784 84.1182 44.0037 27
2925 2 -4.13374 82.2347 43.058 19
2928 3 -0.341902 83.1773 43.8569 21
2946 2 -1.90984 87.4632 44.062 24
2947 3 -3.45652 87.4365 44.0935 22
2949 3 -1.17985 87.9111 42.7294 23
4134 3 1.24016 85.1603 36.3805 22
4143 2 1.63126 81.7252 40.2219 24
4145 3 2.33131 80.323 40.1193 20
4146 3 1.59959 82.3486 41.7181 22
4147 3 4.68875 80.7272 35.9689 21
4149 1 1.67021 84.0943 38.0292 25
4150 2 0.633336 82.0776 36.182 22
4151 3 2.09404 81.6933 36.6658 24
4152 3 3.34024 85.3157 38.2048 23
4154 1 3.60338 81.2218 38.2224 21
4156 1 2.71266 88.5411 41.0786 27
4159 3 1.4773 86.823 41.2227 23
4162 1 0.636095 87.5522 39.6707 25
4163 1 -0.717142 83.887 39.4964 24
4164 2 1.93461 85.2315 41.2063 25
4165 3 3.48542 85.0352 41.2329 26
4166 3 2.49155 82.6655 39.2744 20
4167 3 1.09836 84.7353 39.9429 23
4168 1 -0.671345 84.64 36.3887 25
4169 3 1.44441 84.8145 42.6876 24
4171 2 3.03761 86.8866 38.0566 25
4172 3 1.52912 87.3799 37.9701 23
4174 3 3.84689 87.3797 36.8174 21
4175 3 3.59448 87.6232 39.3972 24
4299 3 4.67821 80.9461 42.7766 23
4301 1 2.80944 84.1182 44.0037 27
4302 2 0.713544 82.2347 43.058 19
4305 3 4.50538 83.1773 43.8569 21
4320 1 -0.0518943 86.1767 42.5412 27
4323 2 2.93744 87.4632 44.062 24
4324 3 1.39076 87.4365 44.0935 22
4326 3 3.66743 87.9111 42.7294 23
5505 1 1.12873 87.1682 35.8439 25
5540 1 4.13014 83.887 39.4964 24
5545 1 4.17594 84.64 36.3887 25
4128 1 -3.71855 87.1682 35.8439 25
5697 1 4.79539 86.1767 42.5412 27
2793 1 -4.74763 88.9493 37.4406 22
4170 1 0.0996495 88.9493 37.4406 22
2945 1 -4.5271 89.2572 43.9899 29
4322 1 0.320184 89.2572 43.9899 29
2926 3 -3.04004 82.1096 44.2523 21
4303 3 1.80724 82.1096 44.2523 21
4155 3 4.80633 82.9246 37.4248 20
4144 3 4.95803 81.495 39.8381 23
5527 2 5.48062 82.0776 36.182 22
8259 1 10.8233 87.1682 35.8439 25
6882 1 5.97601 87.1682 35.8439 25
5511 3 6.08744 85.1603 36.3805 22
5520 2 6.47854 81.7252 40.2219 24
5521 3 9.80531 81.495 39.8381 23
5522 3 7.1786 80.323 40.1193 20
5523 3 6.44686 82.3486 41.7181 22
5524 3 9.53603 80.7272 35.9689 21
5526 1 6.51749 84.0943 38.0292 25
5528 3 6.94132 81.6933 36.6657 24
5529 3 8.18752 85.3157 38.2048 23
5531 1 8.45066 81.2218 38.2224 21
5532 3 9.65361 82.9246 37.4248 20
5533 1 7.55994 88.5411 41.0786 27
5536 3 6.32458 86.823 41.2227 23
5539 1 5.48337 87.5522 39.6707 25
5541 2 6.78189 85.2315 41.2063 25
5542 3 8.3327 85.0352 41.2329 26
5543 3 7.33883 82.6655 39.2744 20
5544 3 5.94564 84.7353 39.9429 23
5546 3 6.29169 84.8145 42.6876 24
5548 2 7.88489 86.8866 38.0566 25
5549 3 6.3764 87.3799 37.9701 23
5551 3 8.69416 87.3797 36.8174 21
5552 3 8.44177 87.6232 39.3972 24
5676 3 9.52549 80.9461 42.7766 23
5678 1 7.65672 84.1182 44.0037 27
5679 2 5.56082 82.2347 43.058 19
5682 3 9.35266 83.1773 43.8569 21
5700 2 7.78472 87.4632 44.062 24
5701 3 6.23804 87.4365 44.0935 22
5703 3 8.51471 87.9111 42.7294 23
6888 3 10.9347 85.1603 36.3805 22
6897 2 11.3258 81.7252 40.2219 24
6899 3 12.0259 80.323 40.1193 20
6900 3 11.2941 82.3486 41.7181 22
6901 3 14.3833 80.7272 35.9689 21
6903 1 11.3648 84.0943 38.0292 25
6904 2 10.3279 82.0776 36.182 22
6905 3 11.7886 81.6933 36.6658 24
6906 3 13.0348 85.3157 38.2048 23
6908 1 13.2979 81.2218 38.2224 21
6910 1 12.4072 88.5411 41.0786 27
6913 3 11.1719 86.823 41.2227 23
6916 1 10.3307 87.5522 39.6707 25
6917 1 8.97742 83.887 39.4964 24
6918 2 11.6292 85.2315 41.2063 25
6919 3 13.18 85.0352 41.2329 26
6920 3 12.1861 82.6655 39.2744 20
6921 3 10.7929 84.7353 39.9429 23
6922 1 9.02321 84.64 36.3887 25
6923 3 11.139 84.8145 42.6876 24
6925 2 12.7322 86.8866 38.0566 25
6926 3 11.2237 87.3799 37.9701 23
6928 3 13.5414 87.3797 36.8174 21
6929 3 13.289 87.6232 39.3972 24
7053 3 14.3728 80.9461 42.7766 23
7055 1 12.504 84.1182 44.0037 27
7056 2 10.4081 82.2347 43.058 19
7059 3 14.1999 83.1773 43.8569 21
7074 1 9.64267 86.1767 42.5412 27
7077 2 12.632 87.4632 44.062 24
7078 3 11.0853 87.4365 44.0935 22
7080 3 13.362 87.9111 42.7294 23
8294 1 13.8247 83.887 39.4964 24
8299 1 13.8705 84.64 36.3887 25
8451 1 14.4899 86.1767 42.5412 27
5547 1 4.94693 88.9493 37.4406 22
6924 1 9.79421 88.9493 37.4406 22
5699 1 5.16746 89.2572 43.9899 29
7076 1 10.0147 89.2572 43.9899 29
5680 3 6.65452 82.1096 44.2523 21
7057 3 11.5018 82.1096 44.2523 21
6909 3 14.5009 82.9246 37.4248 20
6898 3 14.6526 81.495 39.8381 23
8281 2 15.1752 82.0776 36.182 22
189 1 24.1845 86.1767 42.5412 27
11013 1 20.5178 87.1682 35.8439 25
32 1 23.5193 83.887 39.4964 24
37 1 23.5651 84.64 36.3887 25
9636 1 15.6706 87.1682 35.8439 25
8265 3 15.782 85.1603 36.3805 22
8274 2 16.1731 81.7252 40.2219 24
8275 3 19.4999 81.495 39.8381 23
8276 3 16.8732 80.323 40.1193 20
8277 3 16.1414 82.3486 41.7181 22
8278 3 19.2306 80.7272 35.9689 21
8280 1 16.2121 84.0943 38.0292 25
8282 3 16.6359 81.6933 36.6657 24
8283 3 17.8821 85.3157 38.2048 23
8285 1 18.1452 81.2218 38.2224 21
8286 3 19.3482 82.9246 37.4248 20
8287 1 17.2545 88.5411 41.0786 27
8290 3 16.0191 86.823 41.2227 23
8293 1 15.1779 87.5522 39.6707 25
8295 2 16.4764 85.2315 41.2063 25
8296 3 18.0273 85.0352 41.2329 26
8297 3 17.0334 82.6655 39.2744 20
8298 3 15.6402 84.7353 39.9429 23
8300 3 15.9862 84.8145 42.6876 24
8302 2 17.5795 86.8866 38.0566 25
8303 3 16.071 87.3799 37.9701 23
8305 3 18.3887 87.3797 36.8174 21
8306 3 18.1363 87.6232 39.3972 24
8430 3 19.22 80.9461 42.7766 23
8432 1 17.3513 84.1182 44.0037 27
8433 2 15.2554 82.2347 43.058 19
8436 3 19.0472 83.1773 43.8569 21
8454 2 17.4793 87.4632 44.062 24
8455 3 15.9326 87.4365 44.0935 22
8457 3 18.2093 87.9111 42.7294 23
9642 3 20.6293 85.1603 36.3805 22
9651 2 21.0204 81.7252 40.2219 24
9653 3 21.7204 80.323 40.1193 20
9654 3 20.9887 82.3486 41.7181 22
9655 3 24.0779 80.7272 35.9689 21
9657 1 21.0593 84.0943 38.0292 25
9658 2 20.0225 82.0776 36.182 22
9659 3 21.4832 81.6933 36.6658 24
9660 3 22.7294 85.3157 38.2048 23
9662 1 22.9925 81.2218 38.2224 21
9664 1 22.1018 88.5411 41.0786 27
9667 3 20.8664 86.823 41.2227 23
9670 1 20.0252 87.5522 39.6707 25
9671 1 18.672 83.887 39.4964 24
9672 2 21.3237 85.2315 41.2063 25
9673 3 22.8745 85.0352 41.2329 26
9674 3 21.8807 82.6655 39.2744 20
9675 3 20.4875 84.7353 39.9429 23
9676 1 18.7178 84.64 36.3887 25
9677 3 20.8335 84.8145 42.6876 24
9679 2 22.4267 86.8866 38.0566 25
9680 3 20.9182 87.3799 37.9701 23
9682 3 23.236 87.3797 36.8174 21
9683 3 22.9836 87.6232 39.3972 24
9807 3 24.0673 80.9461 42.7766 23
9809 1 22.1986 84.1182 44.0037 27
9810 2 20.1027 82.2347 43.058 19
9813 3 23.8945 83.1773 43.8569 21
9828 1 19.3372 86.1767 42.5412 27
9831 2 22.3266 87.4632 44.062 24
9832 3 20.7799 87.4365 44.0935 22
9834 3 23.0566 87.9111 42.7294 23
8301 1 14.6415 88.9493 37.4406 22
9678 1 19.4888 88.9493 37.4406 22
8453 1 14.862 89.2572 43.9899 29
9830 1 19.7093 89.2572 43.9899 29
8434 3 16.3491 82.1096 44.2523 21
9811 3 21.1964 82.1096 44.2523 21
2 3 -13.528 89.1899 35.7469 23
5 3 -13.1385 94.5515 35.7516 23
26 2 -14.0594 90.3888 40.9983 26
27 3 -10.771 90.3424 40.9956 23
29 3 -13.4258 89.5041 39.816 23
30 3 -13.3044 89.8143 42.3067 25
42 3 -10.7502 90.4984 37.8409 25
45 1 -12.2221 90.5078 36.3923 24
46 1 -12.1215 94.1148 37.427 25
48 3 -13.3107 91.7082 37.7343 22
49 3 -10.8556 95.6754 37.7461 24
50 3 -10.6333 92.8778 36.7045 20
51 1 -12.0524 91.1996 39.3319 28
52 3 -10.566 92.6031 39.2049 23
56 3 -13.0517 96.8095 40.6868 24
59 1 -14.3312 96.3595 39.1489 28
60 1 -14.4788 93.5915 40.7056 26
61 2 -12.3081 95.3518 40.6854 25
62 3 -10.7463 95.4057 40.7619 22
63 3 -13.3287 91.8076 40.8729 23
64 3 -12.9955 94.6162 39.4314 24
65 1 -14.2817 96.1809 36.2381 24
66 3 -12.9775 94.7331 42.0202 24
68 2 -11.5412 97.2001 37.724 23
69 3 -13.0956 97.0551 37.6227 22
194 3 -10.4924 90.9902 43.9039 26
197 1 -11.9139 91.47 42.3566 28
198 1 -12.0069 94.3023 43.7268 28
200 3 -13.0815 92.4048 43.8543 23
201 3 -10.9871 96.0483 43.7291 25
202 3 -10.5299 93.0246 42.507 24
217 1 -14.4835 96.5236 42.1018 27
220 2 -11.7266 97.5249 43.6112 25
221 3 -13.2858 97.4344 43.6568 22
1379 3 -8.68073 89.1899 35.7469 23
1382 3 -8.29127 94.5515 35.7516 23
1403 2 -9.21214 90.3888 40.9983 26
1404 3 -5.92375 90.3424 40.9956 23
1406 3 -8.57854 89.5041 39.816 23
1407 3 -8.45714 89.8143 42.3067 25
1419 3 -5.90288 90.4984 37.8409 25
1422 1 -7.37482 90.5078 36.3923 24
1423 1 -7.27427 94.1148 37.427 25
1424 2 -10.0102 92.0063 37.8201 23
1425 3 -8.46337 91.7081 37.7343 22
1426 3 -6.0083 95.6754 37.7461 24
1427 3 -5.78604 92.8778 36.7045 20
1428 1 -7.20513 91.1996 39.3319 28
1429 3 -5.7187 92.6031 39.2049 23
1433 3 -8.20443 96.8095 40.6868 24
1436 1 -9.48392 96.3595 39.1489 28
1437 1 -9.63157 93.5915 40.7056 26
1438 2 -7.46078 95.3518 40.6854 25
1439 3 -5.89905 95.4057 40.7619 22
1440 3 -8.48143 91.8076 40.8729 23
1441 3 -8.14817 94.6162 39.4314 24
1442 1 -9.43438 96.1809 36.2381 24
1443 3 -8.13026 94.7331 42.0202 24
1445 2 -6.69394 97.2001 37.724 23
1446 3 -8.24833 97.0551 37.6227 22
1571 3 -5.64514 90.9902 43.9039 26
1574 1 -7.06657 91.47 42.3566 28
1575 1 -7.15961 94.3023 43.7268 28
1576 2 -9.79173 92.4852 43.7841 25
1577 3 -8.23424 92.4048 43.8543 23
1578 3 -6.13987 96.0483 43.7291 25
1579 3 -5.68261 93.0246 42.507 24
1594 1 -9.63619 96.5236 42.1018 27
1597 2 -6.87932 97.5249 43.6112 25
1598 3 -8.43855 97.4344 43.6568 22
2801 2 -5.16288 92.0063 37.8201 23
71 3 -10.8017 97.8139 36.4909 21
72 3 -10.9966 97.787 39.082 23
1448 3 -5.95439 97.8139 36.4909 21
1449 3 -6.14929 97.787 39.082 23
223 3 -11.0524 98.1222 42.3346 24
1600 3 -6.2051 98.1222 42.3346 24
2953 2 -4.94444 92.4852 43.7841 25
1375 1 -9.96129 93.7333 35.0706 23
2752 1 -5.11401 93.7333 35.0706 23
2756 3 -3.83345 89.1899 35.7469 23
2759 3 -3.44399 94.5515 35.7516 23
2780 2 -4.36486 90.3888 40.9983 26
2781 3 -1.07647 90.3424 40.9956 23
2783 3 -3.73126 89.5041 39.816 23
2784 3 -3.60986 89.8143 42.3067 25
2796 3 -1.0556 90.4984 37.8409 25
2799 1 -2.52754 90.5078 36.3923 24
2800 1 -2.42698 94.1148 37.427 25
2802 3 -3.61609 91.7082 37.7343 22
2803 3 -1.16102 95.6754 37.7461 24
2804 3 -0.938762 92.8778 36.7045 20
2805 1 -2.35786 91.1996 39.3319 28
2806 3 -0.871418 92.6031 39.2049 23
2810 3 -3.35715 96.8095 40.6868 24
2813 1 -4.63664 96.3595 39.1489 28
2814 1 -4.78429 93.5915 40.7056 26
2815 2 -2.6135 95.3518 40.6854 25
2816 3 -1.05177 95.4057 40.7619 22
2817 3 -3.63415 91.8076 40.8729 23
2818 3 -3.30089 94.6162 39.4314 24
2819 1 -4.5871 96.1809 36.2381 24
2820 3 -3.28298 94.7331 42.0202 24
2822 2 -1.84666 97.2001 37.724 23
2823 3 -3.40105 97.0551 37.6227 22
2948 3 -0.797856 90.9902 43.9039 26
2951 1 -2.21929 91.47 42.3566 28
2952 1 -2.31233 94.3023 43.7268 28
2954 3 -3.38696 92.4048 43.8543 23
2955 3 -1.29259 96.0483 43.7291 25
2956 3 -0.835327 93.0246 42.507 24
2971 1 -4.78891 96.5236 42.1018 27
2974 2 -2.03204 97.5249 43.6112 25
2975 3 -3.59127 97.4344 43.6568 22
4133 3 1.01383 89.1899 35.7469 23
4136 3 1.40329 94.5515 35.7516 23
4157 2 0.482425 90.3888 40.9983 26
4158 3 3.77081 90.3424 40.9956 23
4160 3 1.11602 89.5041 39.816 23
4161 3 1.23742 89.8143 42.3067 25
4173 3 3.79168 90.4984 37.8409 25
4176 1 2.31974 90.5078 36.3923 24
4177 1 2.42029 94.1148 37.427 25
4178 2 -0.315602 92.0063 37.8201 23
4179 3 1.23119 91.7081 37.7343 22
4180 3 3.68626 95.6754 37.7461 24
4181 3 3.90852 92.8778 36.7045 20
4182 1 2.48943 91.1996 39.3319 28
4183 3 3.97586 92.6031 39.2049 23
4187 3 1.49013 96.8095 40.6868 24
4190 1 0.210638 96.3595 39.1489 28
4191 1 0.0629922 93.5915 40.7056 26
4192 2 2.23378 95.3518 40.6854 25
4193 3 3.79551 95.4057 40.7619 22
4194 3 1.21313 91.8076 40.8729 23
4195 3 1.54639 94.6162 39.4314 24
4196 1 0.26018 96.1809 36.2381 24
4197 3 1.5643 94.7331 42.0202 24
4199 2 3.00062 97.2001 37.724 23
4200 3 1.44623 97.0551 37.6227 22
4325 3 4.04942 90.9902 43.9039 26
4328 1 2.62799 91.47 42.3566 28
4329 1 2.53495 94.3023 43.7268 28
4330 2 -0.0971651 92.4852 43.7841 25
4331 3 1.46032 92.4048 43.8543 23
4332 3 3.55469 96.0483 43.7291 25
4333 3 4.01195 93.0246 42.507 24
4348 1 0.0583734 96.5236 42.1018 27
4351 2 2.81524 97.5249 43.6112 25
4352 3 1.25601 97.4344 43.6568 22
5555 2 4.53168 92.0063 37.8201 23
2825 3 -1.10711 97.8139 36.4909 21
2826 3 -1.30201 97.787 39.082 23
4202 3 3.74017 97.8139 36.4909 21
4203 3 3.54527 97.787 39.082 23
2977 3 -1.35782 98.1222 42.3346 24
4354 3 3.48946 98.1222 42.3346 24
5707 2 4.75012 92.4852 43.7841 25
4129 1 -0.266726 93.7333 35.0706 23
5506 1 4.58055 93.7333 35.0706 23
5510 3 5.86111 89.1899 35.7469 23
5513 3 6.25057 94.5515 35.7516 23
5534 2 5.3297 90.3888 40.9983 26
5535 3 8.61809 90.3424 40.9956 23
5537 3 5.9633 89.5041 39.816 23
5538 3 6.0847 89.8143 42.3067 25
5550 3 8.63896 90.4984 37.8409 25
5553 1 7.16702 90.5078 36.3923 24
5554 1 7.26758 94.1148 37.427 25
5556 3 6.07847 91.7082 37.7343 22
5557 3 8.53354 95.6754 37.7461 24
5558 3 8.7558 92.8778 36.7045 20
5559 1 7.3367 91.1996 39.3319 28
5560 3 8.82314 92.6031 39.2049 23
5564 3 6.33741 96.8095 40.6868 24
5567 1 5.05792 96.3595 39.1489 28
5568 1 4.91027 93.5915 40.7056 26
5569 2 7.08106 95.3518 40.6854 25
5570 3 8.64279 95.4057 40.7619 22
5571 3 6.06041 91.8076 40.8729 23
5572 3 6.39367 94.6162 39.4314 24
5573 1 5.10746 96.1809 36.2381 24
5574 3 6.41158 94.7331 42.0202 24
5576 2 7.8479 97.2001 37.724 23
5577 3 6.29351 97.0551 37.6227 22
5702 3 8.8967 90.9902 43.9039 26
5705 1 7.47527 91.47 42.3566 28
5706 1 7.38223 94.3023 43.7268 28
5708 3 6.3076 92.4048 43.8543 23
5709 3 8.40197 96.0483 43.7291 25
5710 3 8.85923 93.0246 42.507 24
5725 1 4.90565 96.5236 42.1018 27
5728 2 7.66252 97.5249 43.6112 25
5729 3 6.10329 97.4344 43.6568 22
6887 3 10.7084 89.1899 35.7469 23
6890 3 11.0979 94.5515 35.7516 23
6911 2 10.177 90.3888 40.9983 26
6912 3 13.4654 90.3424 40.9956 23
6914 3 10.8106 89.5041 39.816 23
6915 3 10.932 89.8143 42.3067 25
6927 3 13.4862 90.4984 37.8409 25
6930 1 12.0143 90.5078 36.3923 24
6931 1 12.1149 94.1148 37.427 25
6932 2 9.37896 92.0063 37.8201 23
6933 3 10.9257 91.7081 37.7343 22
6934 3 13.3808 95.6754 37.7461 24
6935 3 13.6031 92.8778 36.7045 20
6936 1 12.184 91.1996 39.3319 28
6937 3 13.6704 92.6031 39.2049 23
6941 3 11.1847 96.8095 40.6868 24
6944 1 9.9052 96.3595 39.1489 28
6945 1 9.75755 93.5915 40.7056 26
6946 2 11.9283 95.3518 40.6854 25
6947 3 13.4901 95.4057 40.7619 22
6948 3 10.9077 91.8076 40.8729 23
6949 3 11.2409 94.6162 39.4314 24
6950 1 9.95474 96.1809 36.2381 24
6951 3 11.2589 94.7331 42.0202 24
6953 2 12.6952 97.2001 37.724 23
6954 3 11.1408 97.0551 37.6227 22
7079 3 13.744 90.9902 43.9039 26
7082 1 12.3226 91.47 42.3566 28
7083 1 12.2295 94.3023 43.7268 28
7084 2 9.59739 92.4852 43.7841 25
7085 3 11.1549 92.4048 43.8543 23
7086 3 13.2493 96.0483 43.7291 25
7087 3 13.7065 93.0246 42.507 24
7102 1 9.75293 96.5236 42.1018 27
7105 2 12.5098 97.5249 43.6112 25
7106 3 10.9506 97.4344 43.6568 22
8309 2 14.2262 92.0063 37.8201 23
5579 3 8.58745 97.8139 36.4909 21
5580 3 8.39255 97.787 39.082 23
6956 3 13.4347 97.8139 36.4909 21
6957 3 13.2398 97.787 39.082 23
5731 3 8.33674 98.1222 42.3346 24
7108 3 13.184 98.1222 42.3346 24
8461 2 14.4447 92.4852 43.7841 25
6883 1 9.42783 93.7333 35.0706 23
8260 1 14.2751 93.7333 35.0706 23
199 2 24.1392 92.4852 43.7841 25
47 2 23.9208 92.0063 37.8201 23
8264 3 15.5557 89.1899 35.7469 23
8267 3 15.9451 94.5515 35.7516 23
8288 2 15.0243 90.3888 40.9983 26
8289 3 18.3126 90.3424 40.9956 23
8291 3 15.6579 89.5041 39.816 23
8292 3 15.7793 89.8143 42.3067 25
8304 3 18.3335 90.4984 37.8409 25
8307 1 16.8616 90.5078 36.3923 24
8308 1 16.9621 94.1148 37.427 25
8310 3 15.773 91.7082 37.7343 22
8311 3 18.2281 95.6754 37.7461 24
8312 3 18.4504 92.8778 36.7045 20
8313 1 17.0313 91.1996 39.3319 28
8314 3 18.5177 92.6031 39.2049 23
8318 3 16.032 96.8095 40.6868 24
8321 1 14.7525 96.3595 39.1489 28
8322 1 14.6048 93.5915 40.7056 26
8323 2 16.7756 95.3518 40.6854 25
8324 3 18.3374 95.4057 40.7619 22
8325 3 15.755 91.8076 40.8729 23
8326 3 16.0882 94.6162 39.4314 24
8327 1 14.802 96.1809 36.2381 24
8328 3 16.1061 94.7331 42.0202 24
8330 2 17.5425 97.2001 37.724 23
8331 3 15.9881 97.0551 37.6227 22
8456 3 18.5913 90.9902 43.9039 26
8459 1 17.1698 91.47 42.3566 28
8460 1 17.0768 94.3023 43.7268 28
8462 3 16.0022 92.4048 43.8543 23
8463 3 18.0965 96.0483 43.7291 25
8464 3 18.5538 93.0246 42.507 24
8479 1 14.6002 96.5236 42.1018 27
8482 2 17.3571 97.5249 43.6112 25
8483 3 15.7979 97.4344 43.6568 22
9641 3 20.4029 89.1899 35.7469 23
9644 3 20.7924 94.5515 35.7516 23
9665 2 19.8715 90.3888 40.9983 26
9666 3 23.1599 90.3424 40.9956 23
9668 3 20.5051 89.5041 39.816 23
9669 3 20.6265 89.8143 42.3067 25
9681 3 23.1808 90.4984 37.8409 25
9684 1 21.7089 90.5078 36.3923 24
9685 1 21.8094 94.1148 37.427 25
9686 2 19.0735 92.0063 37.8201 23
9687 3 20.6203 91.7081 37.7343 22
9688 3 23.0754 95.6754 37.7461 24
9689 3 23.2976 92.8778 36.7045 20
9690 1 21.8785 91.1996 39.3319 28
9691 3 23.365 92.6031 39.2049 23
9695 3 20.8792 96.8095 40.6868 24
9698 1 19.5998 96.3595 39.1489 28
9699 1 19.4521 93.5915 40.7056 26
9700 2 21.6229 95.3518 40.6854 25
9701 3 23.1846 95.4057 40.7619 22
9702 3 20.6022 91.8076 40.8729 23
9703 3 20.9355 94.6162 39.4314 24
9704 1 19.6493 96.1809 36.2381 24
9705 3 20.9534 94.7331 42.0202 24
9707 2 22.3897 97.2001 37.724 23
9708 3 20.8354 97.0551 37.6227 22
9833 3 23.4385 90.9902 43.9039 26
9836 1 22.0171 91.47 42.3566 28
9837 1 21.9241 94.3023 43.7268 28
9838 2 19.292 92.4852 43.7841 25
9839 3 20.8494 92.4048 43.8543 23
9840 3 22.9438 96.0483 43.7291 25
9841 3 23.4011 93.0246 42.507 24
9856 1 19.4475 96.5236 42.1018 27
9859 2 22.2044 97.5249 43.6112 25
9860 3 20.6451 97.4344 43.6568 22
8333 3 18.282 97.8139 36.4909 21
8334 3 18.0871 97.787 39.082 23
9710 3 23.1293 97.8139 36.4909 21
9711 3 22.9344 97.787 39.082 23
8485 3 18.0313 98.1222 42.3346 24
9862 3 22.8786 98.1222 42.3346 24
11014 1 23.9697 93.7333 35.0706 23
9637 1 19.1224 93.7333 35.0706 23
4 3 -13.4413 99.64 35.4395 24
7 3 -14.0392 104.159 36.6428 19
53 1 -12.0664 98.6711 40.5387 26
54 2 -14.296 100.481 40.511 24
55 3 -11.0125 100.548 40.5361 22
57 3 -13.5854 99.6961 39.3336 23
58 3 -13.5885 99.9003 41.8759 24
67 1 -14.3347 99.5134 37.3394 23
70 3 -11.2759 100.376 37.3496 22
73 1 -12.3961 101.298 36.0296 23
74 1 -12.4402 104.192 37.7756 23
75 2 -10.0672 102.93 37.3562 21
76 3 -13.7497 101.873 37.4652 24
77 3 -11.4243 105.815 37.5143 22
78 3 -11.2345 102.973 36.2024 19
79 1 -12.1871 101.268 38.8576 25
80 3 -10.9621 103.015 38.6667 23
88 1 -10.1738 103.783 40.4339 28
89 2 -12.9082 105.643 40.5027 24
90 3 -11.3571 105.618 40.6444 23
91 3 -13.6502 101.965 40.5099 25
92 3 -13.4802 104.703 39.4007 24
93 1 -9.84324 106.161 36.3521 22
94 3 -13.5817 105.107 41.9134 23
219 1 -14.4998 99.403 43.5812 27
222 3 -10.8577 101.081 43.6014 25
225 1 -12.2429 101.551 41.9231 28
226 1 -12.4836 104.451 43.4515 28
227 2 -10.2214 102.602 43.51 25
228 3 -13.5052 102.525 43.5632 23
229 3 -11.5006 106.271 43.5412 25
230 3 -10.9721 103.165 42.2462 24
245 1 -10.1492 106.636 41.8758 29
1381 3 -8.59399 99.64 35.4395 24
1384 3 -9.19193 104.159 36.6428 19
1430 1 -7.21908 98.6711 40.5387 26
1431 2 -9.4487 100.481 40.511 24
1432 3 -6.16524 100.548 40.5361 22
1434 3 -8.73816 99.6961 39.3336 23
1435 3 -8.7412 99.9003 41.8759 24
1444 1 -9.48745 99.5134 37.3394 23
1447 3 -6.42861 100.376 37.3496 22
1450 1 -7.5488 101.298 36.0296 23
1451 1 -7.59293 104.192 37.7756 23
1452 2 -5.2199 102.93 37.3562 21
1453 3 -8.90246 101.873 37.4652 24
1454 3 -6.57704 105.815 37.5143 22
1455 3 -6.38718 102.973 36.2024 19
1456 1 -7.33986 101.268 38.8576 25
1457 3 -6.11481 103.015 38.6667 23
1465 1 -5.32655 103.783 40.4339 28
1466 2 -8.06089 105.643 40.5027 24
1467 3 -6.50978 105.618 40.6444 23
1468 3 -8.80288 101.965 40.5099 25
1469 3 -8.63288 104.703 39.4007 24
1470 1 -4.99596 106.161 36.3521 22
1471 3 -8.73438 105.107 41.9134 23
1596 1 -9.65251 99.403 43.5812 27
1599 3 -6.01046 101.081 43.6014 25
1602 1 -7.39564 101.551 41.9231 28
1603 1 -7.63627 104.451 43.4515 28
1604 2 -5.37409 102.602 43.51 25
1605 3 -8.65796 102.525 43.5632 23
1606 3 -6.65333 106.271 43.5412 25
1607 3 -6.12481 103.165 42.2462 24
1622 1 -5.30194 106.636 41.8758 29
84 3 -13.5494 107.153 40.4661 23
97 3 -13.5033 107.271 37.3838 21
1461 3 -8.70214 107.153 40.4661 23
1474 3 -8.65597 107.271 37.3838 21
96 2 -11.9406 107.361 37.4542 21
1473 2 -7.09327 107.361 37.4542 21
2753 1 -6.65235 99.1028 35.2243 21
1376 1 -11.4996 99.1028 35.2243 21
2758 3 -3.74671 99.64 35.4395 24
2761 3 -4.34465 104.159 36.6428 19
2807 1 -2.3718 98.6711 40.5387 26
2808 2 -4.60142 100.481 40.511 24
2809 3 -1.31796 100.548 40.5361 22
2811 3 -3.89088 99.6961 39.3336 23
2812 3 -3.89392 99.9003 41.8759 24
2821 1 -4.64017 99.5134 37.3394 23
2824 3 -1.58133 100.376 37.3496 22
2827 1 -2.70152 101.298 36.0296 23
2828 1 -2.74565 104.192 37.7756 23
2829 2 -0.372624 102.93 37.3562 21
2830 3 -4.05518 101.873 37.4652 24
2831 3 -1.72976 105.815 37.5143 22
2832 3 -1.5399 102.973 36.2024 19
2833 1 -2.49258 101.268 38.8576 25
2834 3 -1.26753 103.015 38.6667 23
2842 1 -0.479268 103.783 40.4339 28
2843 2 -3.21361 105.643 40.5027 24
2844 3 -1.6625 105.618 40.6444 23
2845 3 -3.9556 101.965 40.5099 25
2846 3 -3.7856 104.703 39.4007 24
2847 1 -0.148678 106.161 36.3521 22
2848 3 -3.8871 105.107 41.9134 23
2973 1 -4.80523 99.403 43.5812 27
2976 3 -1.16318 101.081 43.6014 25
2979 1 -2.54836 101.551 41.9231 28
2980 1 -2.78899 104.451 43.4515 28
2981 2 -0.526814 102.602 43.51 25
2982 3 -3.81069 102.525 43.5632 23
2983 3 -1.80605 106.271 43.5412 25
2984 3 -1.27753 103.165 42.2462 24
2999 1 -0.45466 106.636 41.8758 29
4135 3 1.10057 99.64 35.4395 24
4138 3 0.50263 104.159 36.6428 19
4184 1 2.47548 98.6711 40.5387 26
4185 2 0.245864 100.481 40.511 24
4186 3 3.52932 100.548 40.5361 22
4188 3 0.956402 99.6961 39.3336 23
4189 3 0.953359 99.9003 41.8759 24
4198 1 0.207111 99.5134 37.3394 23
4201 3 3.26595 100.376 37.3496 22
4204 1 2.14576 101.298 36.0296 23
4205 1 2.10163 104.192 37.7756 23
4206 2 4.47466 102.93 37.3562 21
4207 3 0.792097 101.873 37.4652 24
4208 3 3.11752 105.815 37.5143 22
4209 3 3.30738 102.973 36.2024 19
4210 1 2.3547 101.268 38.8576 25
4211 3 3.57975 103.015 38.6667 23
4219 1 4.36801 103.783 40.4339 28
4220 2 1.63367 105.643 40.5027 24
4221 3 3.18478 105.618 40.6444 23
4222 3 0.891676 101.965 40.5099 25
4223 3 1.06168 104.703 39.4007 24
4224 1 4.6986 106.161 36.3521 22
4225 3 0.960178 105.107 41.9134 23
4350 1 0.0420518 99.403 43.5812 27
4353 3 3.6841 101.081 43.6014 25
4356 1 2.29892 101.551 41.9231 28
4357 1 2.05829 104.451 43.4515 28
4358 2 4.32047 102.602 43.51 25
4359 3 1.03659 102.525 43.5632 23
4360 3 3.04123 106.271 43.5412 25
4361 3 3.56975 103.165 42.2462 24
4376 1 4.39262 106.636 41.8758 29
2838 3 -3.85486 107.153 40.4661 23
2851 3 -3.80869 107.271 37.3838 21
4215 3 0.992416 107.153 40.4661 23
4228 3 1.03859 107.271 37.3838 21
2850 2 -2.24599 107.361 37.4542 21
4227 2 2.60129 107.361 37.4542 21
5507 1 3.04221 99.1028 35.2243 21
4130 1 -1.80507 99.1028 35.2243 21
5512 3 5.94785 99.64 35.4395 24
5515 3 5.34991 104.159 36.6428 19
5561 1 7.32276 98.6711 40.5387 26
5562 2 5.09314 100.481 40.511 24
5563 3 8.3766 100.548 40.5361 22
5565 3 5.80368 99.6961 39.3336 23
5566 3 5.80064 99.9003 41.8759 24
5575 1 5.05439 99.5134 37.3394 23
5578 3 8.11323 100.376 37.3496 22
5581 1 6.99304 101.298 36.0296 23
5582 1 6.94891 104.192 37.7756 23
5583 2 9.32194 102.93 37.3562 21
5584 3 5.63938 101.873 37.4652 24
5585 3 7.9648 105.815 37.5143 22
5586 3 8.15466 102.973 36.2024 19
5587 1 7.20198 101.268 38.8576 25
5588 3 8.42703 103.015 38.6667 23
5596 1 9.21529 103.783 40.4339 28
5597 2 6.48095 105.643 40.5027 24
5598 3 8.03206 105.618 40.6444 23
5599 3 5.73896 101.965 40.5099 25
5600 3 5.90896 104.703 39.4007 24
5601 1 9.54588 106.161 36.3521 22
5602 3 5.80746 105.107 41.9134 23
5727 1 4.88933 99.403 43.5812 27
5730 3 8.53138 101.081 43.6014 25
5733 1 7.1462 101.551 41.9231 28
5734 1 6.90557 104.451 43.4515 28
5735 2 9.16775 102.602 43.51 25
5736 3 5.88387 102.525 43.5632 23
5737 3 7.88851 106.271 43.5412 25
5738 3 8.41703 103.165 42.2462 24
5753 1 9.2399 106.636 41.8758 29
6889 3 10.7951 99.64 35.4395 24
6892 3 10.1972 104.159 36.6428 19
6938 1 12.17 98.6711 40.5387 26
6939 2 9.94042 100.481 40.511 24
6940 3 13.2239 100.548 40.5361 22
6942 3 10.651 99.6961 39.3336 23
6943 3 10.6479 99.9003 41.8759 24
6952 1 9.90167 99.5134 37.3394 23
6955 3 12.9605 100.376 37.3496 22
6958 1 11.8403 101.298 36.0296 23
6959 1 11.7962 104.192 37.7756 23
6960 2 14.1692 102.93 37.3562 21
6961 3 10.4867 101.873 37.4652 24
6962 3 12.8121 105.815 37.5143 22
6963 3 13.0019 102.973 36.2024 19
6964 1 12.0493 101.268 38.8576 25
6965 3 13.2743 103.015 38.6667 23
6973 1 14.0626 103.783 40.4339 28
6974 2 11.3282 105.643 40.5027 24
6975 3 12.8793 105.618 40.6444 23
6976 3 10.5862 101.965 40.5099 25
6977 3 10.7562 104.703 39.4007 24
6978 1 14.3932 106.161 36.3521 22
6979 3 10.6547 105.107 41.9134 23
7104 1 9.73661 99.403 43.5812 27
7107 3 13.3787 101.081 43.6014 25
7110 1 11.9935 101.551 41.9231 28
7111 1 11.7528 104.451 43.4515 28
7112 2 14.015 102.602 43.51 25
7113 3 10.7312 102.525 43.5632 23
7114 3 12.7358 106.271 43.5412 25
7115 3 13.2643 103.165 42.2462 24
7130 1 14.0872 106.636 41.8758 29
5592 3 5.8397 107.153 40.4661 23
5605 3 5.88587 107.271 37.3838 21
6969 3 10.687 107.153 40.4661 23
6982 3 10.7331 107.271 37.3838 21
5604 2 7.44857 107.361 37.4542 21
6981 2 12.2958 107.361 37.4542 21
8261 1 12.7368 99.1028 35.2243 21
6884 1 7.88949 99.1028 35.2243 21
8266 3 15.6424 99.64 35.4395 24
8269 3 15.0445 104.159 36.6428 19
8315 1 17.0173 98.6711 40.5387 26
8316 2 14.7877 100.481 40.511 24
8317 3 18.0712 100.548 40.5361 22
8319 3 15.4982 99.6961 39.3336 23
8320 3 15.4952 99.9003 41.8759 24
8329 1 14.7489 99.5134 37.3394 23
8332 3 17.8078 100.376 37.3496 22
8335 1 16.6876 101.298 36.0296 23
8336 1 16.6435 104.192 37.7756 23
8337 2 19.0165 102.93 37.3562 21
8338 3 15.3339 101.873 37.4652 24
8339 3 17.6594 105.815 37.5143 22
8340 3 17.8492 102.973 36.2024 19
8341 1 16.8965 101.268 38.8576 25
8342 3 18.1216 103.015 38.6667 23
8350 1 18.9099 103.783 40.4339 28
8351 2 16.1755 105.643 40.5027 24
8352 3 17.7266 105.618 40.6444 23
8353 3 15.4335 101.965 40.5099 25
8354 3 15.6035 104.703 39.4007 24
8355 1 19.2404 106.161 36.3521 22
8356 3 15.502 105.107 41.9134 23
8481 1 14.5839 99.403 43.5812 27
8484 3 18.2259 101.081 43.6014 25
8487 1 16.8408 101.551 41.9231 28
8488 1 16.6001 104.451 43.4515 28
8489 2 18.8623 102.602 43.51 25
8490 3 15.5784 102.525 43.5632 23
8491 3 17.5831 106.271 43.5412 25
8492 3 18.1116 103.165 42.2462 24
8507 1 18.9345 106.636 41.8758 29
9643 3 20.4897 99.64 35.4395 24