ITEM: TIMESTEP
8000
ITEM: NUMBER OF ATOMS
11016
ITEM: BOX BOUNDS pp pp pp
-14.54184 24.2364
80.0 135.0
35.0 90.0
ITEM: ATOMS id type x y z Coordination
3 3 -13.2328 85.2033 36.2784 24
12 2 -12.9725 81.6646 40.1108 24
13 3 -9.6069 81.3757 39.6503 22
14 3 -12.2512 80.264 40.0986 20
15 3 -13.0703 82.3007 41.6124 21
16 3 -10.0976 80.7962 35.9756 20
18 1 -12.9192 84.0947 37.9969 23
20 3 -12.6645 81.488 36.8185 23
21 3 -11.3441 85.3834 38.2635 23
23 1 -11.0124 81.1487 38.1528 19
24 3 -9.80626 83.066 37.348 19
25 1 -12.0185 88.5109 41.1116 26
28 3 -13.2657 86.75 41.2138 24
31 1 -14.2456 87.5993 39.7952 23
33 2 -12.737 85.1888 41.1705 25
34 3 -11.1752 85.0068 41.1894 26
35 3 -12.074 82.6357 39.2278 20
36 3 -13.5352 84.663 39.9057 24
38 3 -13.1907 84.7311 42.662 24
40 2 -11.871 86.9011 38.1332 23
41 3 -13.4135 87.2586 38.0998 23
43 3 -11.2232 87.4423 36.7991 24
44 3 -11.2552 87.6893 39.4072 24
168 3 -9.91389 80.8398 42.672 23
170 1 -11.7994 84.0108 43.9312 25
171 2 -13.899 82.1399 42.9766 19
174 3 -10.0926 83.0579 43.8188 19
192 2 -11.7051 87.3449 44.0607 24
193 3 -13.2501 87.3197 44.1058 22
195 3 -11.0142 87.7796 42.7009 23
1380 3 -8.38575 85.2035 36.2783 24
1389 2 -8.12517 81.6647 40.1108 24
1391 3 -7.40398 80.264 40.0985 20
1392 3 -8.223 82.3007 41.6124 21
1393 3 -5.25033 80.7962 35.9757 20
1395 1 -8.07204 84.0949 37.9968 23
1396 2 -9.16701 82.0592 36.2111 24
1397 3 -7.81719 81.4879 36.8186 23
1398 3 -6.49684 85.3835 38.2634 23
1400 1 -6.16519 81.1487 38.1529 19
1402 1 -7.17123 88.5109 41.1116 26
1405 3 -8.41843 86.75 41.2138 24
1408 1 -9.39839 87.5994 39.7953 23
1409 1 -10.5013 83.937 39.4257 26
1410 2 -7.88976 85.1889 41.1705 25
1411 3 -6.32795 85.0069 41.1894 26
1412 3 -7.2267 82.6358 39.2278 20
1413 3 -8.68794 84.663 39.9057 24
1414 1 -10.3496 84.9577 36.4657 24
1415 3 -8.34338 84.7311 42.662 24
1417 2 -7.02368 86.9012 38.1332 23
1418 3 -8.56618 87.2587 38.0999 23
1420 3 -6.37596 87.4425 36.7991 24
1421 3 -6.40784 87.6893 39.4073 24
1545 3 -5.06664 80.8398 42.672 23
1547 1 -6.9521 84.0109 43.9313 25
1548 2 -9.0517 82.1399 42.9766 19
1551 3 -5.2453 83.0578 43.8188 19
1566 1 -9.90617 86.0342 42.5231 27
1569 2 -6.85786 87.3449 44.0607 24
1570 3 -8.40277 87.3197 44.1058 22
1572 3 -6.1669 87.7796 42.7009 23
2786 1 -5.65409 83.9371 39.4256 26
2791 1 -5.50205 84.9577 36.4658 24
2751 1 -7.78386 87.438 35.3393 26
1374 1 -12.631 87.4382 35.3392 26
2943 1 -5.05886 86.0343 42.5231 27
39 1 24.1196 88.7183 37.2293 23
1416 1 -9.81142 88.7183 37.2292 23
19 2 -14.0144 82.0592 36.2111 24
9652 3 -14.4542 81.3755 39.6503 22
9663 3 24.1247 83.066 37.348 19
2 3 -13.588 89.1286 35.6792 24
1379 3 -8.7407 89.1286 35.6792 24
1401 3 -4.959 83.066 37.348 19
1390 3 -4.7596 81.3755 39.6503 22
2773 2 -4.31979 82.0592 36.2111 24
2757 3 -3.53821 85.2033 36.2784 24
2766 2 -3.2779 81.6646 40.1108 24
2767 3 0.0876628 81.3757 39.6503 22
2768 3 -2.55664 80.264 40.0986 20
2769 3 -3.37577 82.3007 41.6124 21
2770 3 -0.40305 80.7962 35.9756 20
2772 1 -3.22466 84.0947 37.9969 23
2774 3 -2.9699 81.488 36.8185 23
2775 3 -1.64954 85.3834 38.2635 23
2777 1 -1.31788 81.1487 38.1528 19
2778 3 -0.111697 83.066 37.348 19
2779 1 -2.32396 88.5109 41.1116 26
2782 3 -3.57112 86.75 41.2138 24
2785 1 -4.55105 87.5993 39.7952 23
2787 2 -3.04249 85.1888 41.1705 25
2788 3 -1.48068 85.0068 41.1894 26
2789 3 -2.37945 82.6357 39.2278 20
2790 3 -3.84067 84.663 39.9057 24
2792 3 -3.49613 84.7311 42.662 24
2794 2 -2.1764 86.9011 38.1332 23
2795 3 -3.71891 87.2586 38.0998 23
2797 3 -1.52865 87.4423 36.7991 24
2798 3 -1.56061 87.6893 39.4072 24
2922 3 -0.219332 80.8398 42.672 23
2924 1 -2.10483 84.0108 43.9312 25
2925 2 -4.20443 82.1399 42.9766 19
2928 3 -0.39801 83.0579 43.8188 19
2946 2 -2.01058 87.3449 44.0607 24
2947 3 -3.55549 87.3197 44.1058 22
2949 3 -1.31962 87.7796 42.7009 23
4134 3 1.30881 85.2035 36.2783 24
4143 2 1.56939 81.6647 40.1108 24
4145 3 2.29058 80.264 40.0985 20
4146 3 1.47156 82.3007 41.6124 21
4147 3 4.44423 80.7962 35.9757 20
4149 1 1.62252 84.0949 37.9968 23
4150 2 0.527555 82.0592 36.2111 24
4151 3 1.87737 81.4879 36.8186 23
4152 3 3.19772 85.3835 38.2634 23
4154 1 3.52937 81.1487 38.1529 19
4156 1 2.52333 88.5109 41.1116 26
4159 3 1.27613 86.75 41.2138 24
4162 1 0.296174 87.5994 39.7953 23
4163 1 -0.80677 83.937 39.4257 26
4164 2 1.8048 85.1889 41.1705 25
4165 3 3.36661 85.0069 41.1894 26
4166 3 2.46786 82.6358 39.2278 20
4167 3 1.00662 84.663 39.9057 24
4168 1 -0.655003 84.9577 36.4657 24
4169 3 1.35118 84.7311 42.662 24
4171 2 2.67088 86.9012 38.1332 23
4172 3 1.12838 87.2587 38.0999 23
4174 3 3.3186 87.4425 36.7991 24
4175 3 3.28672 87.6893 39.4073 24
4299 3 4.62792 80.8398 42.672 23
4301 1 2.74246 84.0109 43.9313 25
4302 2 0.642864 82.1399 42.9766 19
4305 3 4.44926 83.0578 43.8188 19
4320 1 -0.211609 86.0342 42.5231 27
4323 2 2.8367 87.3449 44.0607 24
4324 3 1.29179 87.3197 44.1058 22
4326 3 3.52766 87.7796 42.7009 23
5505 1 1.9107 87.438 35.3393 26
5540 1 4.04047 83.9371 39.4256 26
5545 1 4.19251 84.9577 36.4658 24
4128 1 -2.93649 87.4382 35.3392 26
5697 1 4.6357 86.0343 42.5231 27
2793 1 -4.96407 88.7183 37.2293 23
4170 1 -0.116856 88.7183 37.2292 23
2756 3 -3.89339 89.1286 35.6792 24
4133 3 0.953858 89.1286 35.6792 24
4155 3 4.73556 83.066 37.348 19
4144 3 4.93496 81.3755 39.6503 22
5527 2 5.37477 82.0592 36.2111 24
8259 1 11.6053 87.438 35.3393 26
6882 1 6.75807 87.4382 35.3392 26
5511 3 6.15635 85.2033 36.2784 24
5520 2 6.41666 81.6646 40.1108 24
5521 3 9.78222 81.3757 39.6503 22
5522 3 7.13792 80.264 40.0986 20
5523 3 6.31879 82.3007 41.6124 21
5524 3 9.29151 80.7962 35.9756 20
5526 1 6.4699 84.0947 37.9969 23
5528 3 6.72466 81.488 36.8185 23
5529 3 8.04502 85.3834 38.2635 23
5531 1 8.37668 81.1487 38.1528 19
5532 3 9.58286 83.066 37.348 19
5533 1 7.3706 88.5109 41.1116 26
5536 3 6.12344 86.75 41.2138 24
5539 1 5.14351 87.5993 39.7952 23
5541 2 6.65207 85.1888 41.1705 25
5542 3 8.21388 85.0068 41.1894 26
5543 3 7.31511 82.6357 39.2278 20
5544 3 5.85389 84.663 39.9057 24
5546 3 6.19843 84.7311 42.662 24
5548 2 7.51816 86.9011 38.1332 23
5549 3 5.97565 87.2586 38.0998 23
5551 3 8.16591 87.4423 36.7991 24
5552 3 8.13395 87.6893 39.4072 24
5676 3 9.47523 80.8398 42.672 23
5678 1 7.58973 84.0108 43.9312 25
5679 2 5.49013 82.1399 42.9766 19
5682 3 9.29655 83.0579 43.8188 19
5700 2 7.68398 87.3449 44.0607 24
5701 3 6.13907 87.3197 44.1058 22
5703 3 8.37494 87.7796 42.7009 23
6888 3 11.0034 85.2035 36.2783 24
6897 2 11.2639 81.6647 40.1108 24
6899 3 11.9851 80.264 40.0985 20
6900 3 11.1661 82.3007 41.6124 21
6901 3 14.1388 80.7962 35.9757 20
6903 1 11.3171 84.0949 37.9968 23
6904 2 10.2221 82.0592 36.2111 24
6905 3 11.5719 81.4879 36.8186 23
6906 3 12.8923 85.3835 38.2634 23
6908 1 13.2239 81.1487 38.1529 19
6910 1 12.2179 88.5109 41.1116 26
6913 3 10.9707 86.75 41.2138 24
6916 1 9.99073 87.5994 39.7953 23
6917 1 8.88779 83.937 39.4257 26
6918 2 11.4994 85.1889 41.1705 25
6919 3 13.0612 85.0069 41.1894 26
6920 3 12.1624 82.6358 39.2278 20
6921 3 10.7012 84.663 39.9057 24
6922 1 9.03956 84.9577 36.4657 24
6923 3 11.0457 84.7311 42.662 24
6925 2 12.3654 86.9012 38.1332 23
6926 3 10.8229 87.2587 38.0999 23
6928 3 13.0132 87.4425 36.7991 24
6929 3 12.9813 87.6893 39.4073 24
7053 3 14.3225 80.8398 42.672 23
7055 1 12.437 84.0109 43.9313 25
7056 2 10.3374 82.1399 42.9766 19
7059 3 14.1438 83.0578 43.8188 19
7074 1 9.48295 86.0342 42.5231 27
7077 2 12.5313 87.3449 44.0607 24
7078 3 10.9864 87.3197 44.1058 22
7080 3 13.2222 87.7796 42.7009 23
8294 1 13.735 83.9371 39.4256 26
8299 1 13.8871 84.9577 36.4658 24
8451 1 14.3303 86.0343 42.5231 27
5547 1 4.73049 88.7183 37.2293 23
6924 1 9.5777 88.7183 37.2292 23
5510 3 5.80117 89.1286 35.6792 24
6887 3 10.6484 89.1286 35.6792 24
6909 3 14.4301 83.066 37.348 19
6898 3 14.6295 81.3755 39.6503 22
8281 2 15.0693 82.0592 36.2111 24
189 1 24.0248 86.0343 42.5231 27
11013 1 21.2998 87.438 35.3393 26
32 1 23.4296 83.9371 39.4256 26
37 1 23.5816 84.9577 36.4658 24
9636 1 16.4526 87.4382 35.3392 26
8265 3 15.8509 85.2033 36.2784 24
8274 2 16.1112 81.6646 40.1108 24
8275 3 19.4768 81.3757 39.6503 22
8276 3 16.8325 80.264 40.0986 20
8277 3 16.0133 82.3007 41.6124 21
8278 3 18.9861 80.7962 35.9756 20
8280 1 16.1645 84.0947 37.9969 23
8282 3 16.4192 81.488 36.8185 23
8283 3 17.7396 85.3834 38.2635 23
8285 1 18.0712 81.1487 38.1528 19
8286 3 19.2774 83.066 37.348 19
8287 1 17.0652 88.5109 41.1116 26
8290 3 15.818 86.75 41.2138 24
8293 1 14.8381 87.5993 39.7952 23
8295 2 16.3466 85.1888 41.1705 25
8296 3 17.9084 85.0068 41.1894 26
8297 3 17.0097 82.6357 39.2278 20
8298 3 15.5484 84.663 39.9057 24
8300 3 15.893 84.7311 42.662 24
8302 2 17.2127 86.9011 38.1332 23
8303 3 15.6702 87.2586 38.0998 23
8305 3 17.8605 87.4423 36.7991 24
8306 3 17.8285 87.6893 39.4072 24
8430 3 19.1698 80.8398 42.672 23
8432 1 17.2843 84.0108 43.9312 25
8433 2 15.1847 82.1399 42.9766 19
8436 3 18.9911 83.0579 43.8188 19
8454 2 17.3785 87.3449 44.0607 24
8455 3 15.8336 87.3197 44.1058 22
8457 3 18.0695 87.7796 42.7009 23
9642 3 20.6979 85.2035 36.2783 24
9651 2 20.9585 81.6647 40.1108 24
9653 3 21.6797 80.264 40.0985 20
9654 3 20.8607 82.3007 41.6124 21
9655 3 23.8333 80.7962 35.9757 20
9657 1 21.0116 84.0949 37.9968 23
9658 2 19.9167 82.0592 36.2111 24
9659 3 21.2665 81.4879 36.8186 23
9660 3 22.5868 85.3835 38.2634 23
9662 1 22.9185 81.1487 38.1529 19
9664 1 21.9125 88.5109 41.1116 26
9667 3 20.6652 86.75 41.2138 24
9670 1 19.6853 87.5994 39.7953 23
9671 1 18.5824 83.937 39.4257 26
9672 2 21.1939 85.1889 41.1705 25
9673 3 22.7557 85.0069 41.1894 26
9674 3 21.857 82.6358 39.2278 20
9675 3 20.3957 84.663 39.9057 24
9676 1 18.7341 84.9577 36.4657 24
9677 3 20.7403 84.7311 42.662 24
9679 2 22.06 86.9012 38.1332 23
9680 3 20.5175 87.2587 38.0999 23
9682 3 22.7077 87.4425 36.7991 24
9683 3 22.6758 87.6893 39.4073 24
9807 3 24.017 80.8398 42.672 23
9809 1 22.1316 84.0109 43.9313 25
9810 2 20.032 82.1399 42.9766 19
9813 3 23.8384 83.0578 43.8188 19
9828 1 19.1775 86.0342 42.5231 27
9831 2 22.2258 87.3449 44.0607 24
9832 3 20.6809 87.3197 44.1058 22
9834 3 22.9168 87.7796 42.7009 23
8301 1 14.425 88.7183 37.2293 23
9678 1 19.2723 88.7183 37.2292 23
8264 3 15.4957 89.1286 35.6792 24
9641 3 20.343 89.1286 35.6792 24
191 1 -14.3015 89.1537 44.017 29
1568 1 -9.45426 89.1537 44.017 29
5 3 -13.2211 94.4977 35.7386 23
26 2 -14.1558 90.3726 41.0611 25
27 3 -10.8642 90.3265 41.0706 22
29 3 -13.5467 89.4973 39.8866 23
30 3 -13.3993 89.75 42.3561 25
42 3 -10.7977 90.417 37.8149 25
45 1 -12.3354 90.4819 36.4365 26
46 1 -12.2332 94.0472 37.4616 25
48 3 -13.3705 91.721 37.7342 21
49 3 -10.902 95.5862 37.7494 24
50 3 -10.7168 92.8056 36.7225 22
51 1 -12.14 91.1652 39.3793 24
52 3 -10.6298 92.4979 39.228 23
56 3 -13.0843 96.7597 40.6834 24
59 1 -14.3801 96.2963 39.162 28
60 1 -14.5397 93.5393 40.71 26
61 2 -12.3543 95.3074 40.6868 25
62 3 -10.79 95.3225 40.7563 22
63 3 -13.39 91.7801 40.9388 24
64 3 -13.0487 94.5674 39.4374 25
65 1 -14.336 96.1137 36.2308 25
66 3 -13.0378 94.694 42.0207 24
68 2 -11.5602 97.1166 37.7067 23
69 3 -13.1138 96.9892 37.584 23
194 3 -10.5338 90.9276 43.9522 25
197 1 -11.9803 91.452 42.3934 28
198 1 -12.0691 94.2481 43.718 28
200 3 -13.1209 92.3462 43.9024 22
201 3 -10.9773 95.9745 43.7192 25
202 3 -10.5686 92.9882 42.5882 23
217 1 -14.4685 96.3982 42.116 28
220 2 -11.7006 97.465 43.5915 25
221 3 -13.2599 97.3734 43.6524 22
1382 3 -8.37381 94.4977 35.7386 23
1403 2 -9.30852 90.3726 41.0611 25
1404 3 -6.01689 90.3265 41.0706 22
1406 3 -8.69946 89.4973 39.8866 23
1407 3 -8.552 89.75 42.3561 25
1419 3 -5.95035 90.4171 37.815 25
1422 1 -7.48804 90.4818 36.4366 26
1423 1 -7.38587 94.0472 37.4616 25
1424 2 -10.0892 91.9153 37.8271 23
1425 3 -8.52325 91.7209 37.7341 21
1426 3 -6.05469 95.5862 37.7494 24
1427 3 -5.86952 92.8057 36.7225 22
1428 1 -7.29269 91.1652 39.3793 24
1429 3 -5.78255 92.498 39.228 23
1433 3 -8.23703 96.7597 40.6834 24
1436 1 -9.53284 96.2963 39.162 28
1437 1 -9.69244 93.5393 40.7099 26
1438 2 -7.50703 95.3074 40.6868 25
1439 3 -5.94271 95.3225 40.7563 22
1440 3 -8.54275 91.7802 40.9388 24
1441 3 -8.20143 94.5674 39.4374 25
1442 1 -9.48871 96.1137 36.2308 25
1443 3 -8.19053 94.694 42.0207 24
1445 2 -6.71294 97.1166 37.7067 23
1446 3 -8.26648 96.9893 37.584 23
1571 3 -5.68656 90.9276 43.9522 25
1574 1 -7.13305 91.4521 42.3934 28
1575 1 -7.22183 94.2481 43.718 28
1576 2 -9.84002 92.4245 43.8627 25
1577 3 -8.27362 92.3462 43.9024 22
1578 3 -6.13004 95.9745 43.7192 25
1579 3 -5.7213 92.9882 42.5882 23
1594 1 -9.62126 96.3982 42.116 28
1597 2 -6.85336 97.465 43.5915 25
1598 3 -8.41257 97.3734 43.6524 22
2801 2 -5.24196 91.9154 37.8271 23
71 3 -10.7884 97.7248 36.4803 21
72 3 -11.026 97.7019 39.0742 23
1448 3 -5.94109 97.7248 36.4803 21
1449 3 -6.17874 97.702 39.0742 23
223 3 -11.0234 98.0351 42.3117 24
1600 3 -6.17611 98.0351 42.3117 24
2953 2 -4.99274 92.4245 43.8627 25
1375 1 -10.0569 93.6894 35.1126 23
2752 1 -5.20968 93.6894 35.1126 23
2945 1 -4.60699 89.1537 44.017 29
4322 1 0.240297 89.1537 44.017 29
2759 3 -3.52654 94.4977 35.7386 23
2780 2 -4.46124 90.3726 41.0611 25
2781 3 -1.16961 90.3265 41.0706 22
2783 3 -3.85219 89.4973 39.8866 23
2784 3 -3.70472 89.75 42.3561 25
2796 3 -1.10311 90.417 37.8149 25
2799 1 -2.64079 90.4819 36.4365 26
2800 1 -2.5386 94.0472 37.4616 25
2802 3 -3.67597 91.721 37.7342 21
2803 3 -1.20741 95.5862 37.7494 24
2804 3 -1.02225 92.8056 36.7225 22
2805 1 -2.44539 91.1652 39.3793 24
2806 3 -0.935235 92.4979 39.228 23
2810 3 -3.38975 96.7597 40.6834 24
2813 1 -4.68556 96.2963 39.162 28
2814 1 -4.84515 93.5393 40.71 26
2815 2 -2.65976 95.3074 40.6868 25
2816 3 -1.09544 95.3225 40.7563 22
2817 3 -3.69547 91.7801 40.9388 24
2818 3 -3.35415 94.5674 39.4374 25
2819 1 -4.64143 96.1137 36.2308 25
2820 3 -3.34325 94.694 42.0207 24
2822 2 -1.86566 97.1166 37.7067 23
2823 3 -3.41919 96.9892 37.584 23
2948 3 -0.839286 90.9276 43.9522 25
2951 1 -2.28578 91.452 42.3934 28
2952 1 -2.37455 94.2481 43.718 28
2954 3 -3.42634 92.3462 43.9024 22
2955 3 -1.28276 95.9745 43.7192 25
2956 3 -0.874026 92.9882 42.5882 23
2971 1 -4.77399 96.3982 42.116 28
2974 2 -2.00608 97.465 43.5915 25
2975 3 -3.56529 97.3734 43.6524 22
4136 3 1.32075 94.4977 35.7386 23
4157 2 0.386044 90.3726 41.0611 25
4158 3 3.67767 90.3265 41.0706 22
4160 3 0.995105 89.4973 39.8866 23
4161 3 1.14256 89.75 42.3561 25
4173 3 3.74421 90.4171 37.815 25
4176 1 2.20652 90.4818 36.4366 26
4177 1 2.30869 94.0472 37.4616 25
4178 2 -0.394673 91.9153 37.8271 23
4179 3 1.17131 91.7209 37.7341 21
4180 3 3.63987 95.5862 37.7494 24
4181 3 3.82504 92.8057 36.7225 22
4182 1 2.40187 91.1652 39.3793 24
4183 3 3.91201 92.498 39.228 23
4187 3 1.45753 96.7597 40.6834 24
4190 1 0.161721 96.2963 39.162 28
4191 1 0.00212365 93.5393 40.7099 26
4192 2 2.18753 95.3074 40.6868 25
4193 3 3.75185 95.3225 40.7563 22
4194 3 1.15181 91.7802 40.9388 24
4195 3 1.49313 94.5674 39.4374 25
4196 1 0.205851 96.1137 36.2308 25
4197 3 1.50403 94.694 42.0207 24
4199 2 2.98162 97.1166 37.7067 23
4200 3 1.42808 96.9893 37.584 23
4325 3 4.008 90.9276 43.9522 25
4328 1 2.56151 91.4521 42.3934 28
4329 1 2.47273 94.2481 43.718 28
4330 2 -0.145463 92.4245 43.8627 25
4331 3 1.42094 92.3462 43.9024 22
4332 3 3.56452 95.9745 43.7192 25
4333 3 3.97326 92.9882 42.5882 23
4348 1 0.073295 96.3982 42.116 28
4351 2 2.8412 97.465 43.5915 25
4352 3 1.28199 97.3734 43.6524 22
5555 2 4.4526 91.9154 37.8271 23
2825 3 -1.09382 97.7248 36.4803 21
2826 3 -1.33145 97.7019 39.0742 23
4202 3 3.75347 97.7248 36.4803 21
4203 3 3.51582 97.702 39.0742 23
2977 3 -1.32883 98.0351 42.3117 24
4354 3 3.51845 98.0351 42.3117 24
5707 2 4.70182 92.4245 43.8627 25
4129 1 -0.362377 93.6894 35.1126 23
5506 1 4.48488 93.6894 35.1126 23
5699 1 5.08757 89.1537 44.017 29
7076 1 9.93486 89.1537 44.017 29
5513 3 6.16802 94.4977 35.7386 23
5534 2 5.23332 90.3726 41.0611 25
5535 3 8.52495 90.3265 41.0706 22
5537 3 5.84237 89.4973 39.8866 23
5538 3 5.98984 89.75 42.3561 25
5550 3 8.59145 90.417 37.8149 25
5553 1 7.05377 90.4819 36.4365 26
5554 1 7.15596 94.0472 37.4616 25
5556 3 6.01859 91.721 37.7342 21
5557 3 8.48715 95.5862 37.7494 24
5558 3 8.67231 92.8056 36.7225 22
5559 1 7.24917 91.1652 39.3793 24
5560 3 8.75932 92.4979 39.228 23
5564 3 6.30481 96.7597 40.6834 24
5567 1 5.009 96.2963 39.162 28
5568 1 4.84941 93.5393 40.71 26
5569 2 7.0348 95.3074 40.6868 25
5570 3 8.59912 95.3225 40.7563 22
5571 3 5.99909 91.7801 40.9388 24
5572 3 6.34041 94.5674 39.4374 25
5573 1 5.05313 96.1137 36.2308 25
5574 3 6.35131 94.694 42.0207 24
5576 2 7.8289 97.1166 37.7067 23
5577 3 6.27537 96.9892 37.584 23
5702 3 8.85527 90.9276 43.9522 25
5705 1 7.40878 91.452 42.3934 28
5706 1 7.32001 94.2481 43.718 28
5708 3 6.26822 92.3462 43.9024 22
5709 3 8.4118 95.9745 43.7192 25
5710 3 8.82053 92.9882 42.5882 23
5725 1 4.92057 96.3982 42.116 28
5728 2 7.68848 97.465 43.5915 25
5729 3 6.12927 97.3734 43.6524 22
6890 3 11.0153 94.4977 35.7386 23
6911 2 10.0806 90.3726 41.0611 25
6912 3 13.3722 90.3265 41.0706 22
6914 3 10.6897 89.4973 39.8866 23
6915 3 10.8371 89.75 42.3561 25
6927 3 13.4388 90.4171 37.815 25
6930 1 11.9011 90.4818 36.4366 26
6931 1 12.0032 94.0472 37.4616 25
6932 2 9.29989 91.9153 37.8271 23
6933 3 10.8659 91.7209 37.7341 21
6934 3 13.3344 95.5862 37.7494 24
6935 3 13.5196 92.8057 36.7225 22
6936 1 12.0964 91.1652 39.3793 24
6937 3 13.6066 92.498 39.228 23
6941 3 11.1521 96.7597 40.6834 24
6944 1 9.85628 96.2963 39.162 28
6945 1 9.69668 93.5393 40.7099 26
6946 2 11.8821 95.3074 40.6868 25
6947 3 13.4464 95.3225 40.7563 22
6948 3 10.8464 91.7802 40.9388 24
6949 3 11.1877 94.5674 39.4374 25
6950 1 9.90041 96.1137 36.2308 25
6951 3 11.1986 94.694 42.0207 24
6953 2 12.6762 97.1166 37.7067 23
6954 3 11.1226 96.9893 37.584 23
7079 3 13.7026 90.9276 43.9522 25
7082 1 12.2561 91.4521 42.3934 28
7083 1 12.1673 94.2481 43.718 28
7084 2 9.5491 92.4245 43.8627 25
7085 3 11.1155 92.3462 43.9024 22
7086 3 13.2591 95.9745 43.7192 25
7087 3 13.6678 92.9882 42.5882 23
7102 1 9.76786 96.3982 42.116 28
7105 2 12.5358 97.465 43.5915 25
7106 3 10.9765 97.3734 43.6524 22
8309 2 14.1472 91.9154 37.8271 23
5579 3 8.60074 97.7248 36.4803 21
5580 3 8.36311 97.7019 39.0742 23
6956 3 13.448 97.7248 36.4803 21
6957 3 13.2104 97.702 39.0742 23
5731 3 8.36573 98.0351 42.3117 24
7108 3 13.213 98.0351 42.3117 24
8461 2 14.3964 92.4245 43.8627 25
6883 1 9.33218 93.6894 35.1126 23
8260 1 14.1794 93.6894 35.1126 23
8453 1 14.7821 89.1537 44.017 29
9830 1 19.6294 89.1537 44.017 29
199 2 24.0909 92.4245 43.8627 25
47 2 23.8417 91.9154 37.8271 23
8267 3 15.8626 94.4977 35.7386 23
8288 2 14.9279 90.3726 41.0611 25
8289 3 18.2195 90.3265 41.0706 22
8291 3 15.5369 89.4973 39.8866 23
8292 3 15.6844 89.75 42.3561 25
8304 3 18.286 90.417 37.8149 25
8307 1 16.7483 90.4819 36.4365 26
8308 1 16.8505 94.0472 37.4616 25
8310 3 15.7131 91.721 37.7342 21
8311 3 18.1817 95.5862 37.7494 24
8312 3 18.3669 92.8056 36.7225 22
8313 1 16.9437 91.1652 39.3793 24
8314 3 18.4539 92.4979 39.228 23
8318 3 15.9994 96.7597 40.6834 24
8321 1 14.7036 96.2963 39.162 28
8322 1 14.544 93.5393 40.71 26
8323 2 16.7294 95.3074 40.6868 25
8324 3 18.2937 95.3225 40.7563 22
8325 3 15.6937 91.7801 40.9388 24
8326 3 16.035 94.5674 39.4374 25
8327 1 14.7477 96.1137 36.2308 25
8328 3 16.0459 94.694 42.0207 24
8330 2 17.5235 97.1166 37.7067 23
8331 3 15.9699 96.9892 37.584 23
8456 3 18.5498 90.9276 43.9522 25
8459 1 17.1033 91.452 42.3934 28
8460 1 17.0146 94.2481 43.718 28
8462 3 15.9628 92.3462 43.9024 22
8463 3 18.1064 95.9745 43.7192 25
8464 3 18.5151 92.9882 42.5882 23
8479 1 14.6151 96.3982 42.116 28
8482 2 17.383 97.465 43.5915 25
8483 3 15.8238 97.3734 43.6524 22
9644 3 20.7099 94.4977 35.7386 23
9665 2 19.7752 90.3726 41.0611 25
9666 3 23.0668 90.3265 41.0706 22
9668 3 20.3842 89.4973 39.8866 23
9669 3 20.5317 89.75 42.3561 25
9681 3 23.1333 90.4171 37.815 25
9684 1 21.5956 90.4818 36.4366 26
9685 1 21.6978 94.0472 37.4616 25
9686 2 18.9944 91.9153 37.8271 23
9687 3 20.5604 91.7209 37.7341 21
9688 3 23.029 95.5862 37.7494 24
9689 3 23.2142 92.8057 36.7225 22
9690 1 21.791 91.1652 39.3793 24
9691 3 23.3011 92.498 39.228 23
9695 3 20.8466 96.7597 40.6834 24
9698 1 19.5508 96.2963 39.162 28
9699 1 19.3912 93.5393 40.7099 26
9700 2 21.5766 95.3074 40.6868 25
9701 3 23.141 95.3225 40.7563 22
9702 3 20.5409 91.7802 40.9388 24
9703 3 20.8823 94.5674 39.4374 25
9704 1 19.595 96.1137 36.2308 25
9705 3 20.8932 94.694 42.0207 24
9707 2 22.3707 97.1166 37.7067 23
9708 3 20.8172 96.9893 37.584 23
9833 3 23.3971 90.9276 43.9522 25
9836 1 21.9506 91.4521 42.3934 28
9837 1 21.8618 94.2481 43.718 28
9838 2 19.2437 92.4245 43.8627 25
9839 3 20.8101 92.3462 43.9024 22
9840 3 22.9536 95.9745 43.7192 25
9841 3 23.3624 92.9882 42.5882 23
9856 1 19.4624 96.3982 42.116 28
9859 2 22.2303 97.465 43.5915 25
9860 3 20.6711 97.3734 43.6524 22
8333 3 18.2953 97.7248 36.4803 21
8334 3 18.0577 97.7019 39.0742 23
9710 3 23.1426 97.7248 36.4803 21
9711 3 22.9049 97.702 39.0742 23
8485 3 18.0603 98.0351 42.3117 24
9862 3 22.9076 98.0351 42.3117 24
11014 1 23.874 93.6894 35.1126 23
9637 1 19.0267 93.6894 35.1126 23
4 3 -13.4529 99.6484 35.4683 25
7 3 -13.9458 104.148 36.6072 20
53 1 -12.0562 98.6321 40.5455 26
54 2 -14.2718 100.427 40.5068 24
55 3 -11.0025 100.49 40.5322 22
57 3 -13.5693 99.6519 39.3118 22
58 3 -13.543 99.8322 41.8592 24
67 1 -14.2963 99.4388 37.3357 25
70 3 -11.255 100.25 37.3404 22
73 1 -12.3645 101.286 36.0955 24
74 1 -12.3548 104.153 37.7715 23
75 2 -9.98127 102.953 37.3846 21
76 3 -13.6827 101.871 37.5008 23
77 3 -11.3011 105.746 37.5298 22
78 3 -11.1597 102.922 36.2561 21
79 1 -12.1384 101.216 38.8405 25
80 3 -10.8869 102.983 38.6961 23
88 1 -10.0577 103.739 40.4546 27
89 2 -12.8182 105.56 40.5323 24
90 3 -11.2651 105.557 40.6641 23
91 3 -13.6313 101.907 40.5316 25
92 3 -13.3923 104.643 39.3911 23
93 1 -9.76039 106.144 36.2857 23
94 3 -13.4938 104.989 41.9097 23
219 1 -14.4103 99.3275 43.6066 26
222 3 -10.7766 101.002 43.6371 25
225 1 -12.1983 101.502 41.9312 27
226 1 -12.3948 104.334 43.4468 29
227 2 -10.1347 102.517 43.5338 25
228 3 -13.4164 102.444 43.5778 23
229 3 -11.4463 106.151 43.5565 25
230 3 -10.8916 103.086 42.2674 23
245 1 -10.0504 106.547 41.9299 29
1381 3 -8.60559 99.6484 35.4683 25
1384 3 -9.09851 104.148 36.6072 20
1430 1 -7.20897 98.6321 40.5455 26
1431 2 -9.42455 100.427 40.5068 24
1432 3 -6.15522 100.49 40.5323 22
1434 3 -8.72206 99.6519 39.3118 22
1435 3 -8.69576 99.8322 41.8592 24
1444 1 -9.44905 99.4388 37.3357 25
1447 3 -6.40776 100.25 37.3404 22
1450 1 -7.51724 101.286 36.0955 24
1451 1 -7.50756 104.153 37.7715 23
1452 2 -5.13399 102.953 37.3846 21
1453 3 -8.83545 101.871 37.5008 23
1454 3 -6.45383 105.746 37.5298 22
1455 3 -6.31246 102.922 36.2561 21
1456 1 -7.29112 101.216 38.8405 25
1457 3 -6.03961 102.983 38.6961 23
1465 1 -5.21043 103.739 40.4546 27
1466 2 -7.9709 105.56 40.5323 24
1467 3 -6.41787 105.557 40.6641 23
1468 3 -8.78407 101.907 40.5316 25
1469 3 -8.54504 104.643 39.3911 23
1470 1 -4.91311 106.144 36.2857 23
1471 3 -8.64657 104.989 41.9097 23
1596 1 -9.56303 99.3275 43.6066 26
1599 3 -5.92933 101.002 43.6371 25
1602 1 -7.351 101.502 41.9312 27
1603 1 -7.54755 104.334 43.4468 29
1604 2 -5.2874 102.517 43.5338 25
1605 3 -8.56915 102.444 43.5778 23
1606 3 -6.59902 106.151 43.5565 25
1607 3 -6.04428 103.086 42.2674 23
1622 1 -5.20307 106.547 41.9299 29
84 3 -13.4863 107.065 40.496 23
97 3 -13.4103 107.16 37.4262 21
1461 3 -8.63902 107.065 40.496 23
1474 3 -8.56302 107.16 37.4262 21
96 2 -11.8669 107.261 37.4788 21
1473 2 -7.01958 107.261 37.4788 21
2753 1 -6.65581 99.1294 35.3282 21
1376 1 -11.5031 99.1294 35.3282 21
2758 3 -3.75831 99.6484 35.4683 25
2761 3 -4.25123 104.148 36.6072 20
2807 1 -2.36168 98.6321 40.5455 26
2808 2 -4.57727 100.427 40.5068 24
2809 3 -1.30794 100.49 40.5322 22
2811 3 -3.87478 99.6519 39.3118 22
2812 3 -3.84848 99.8322 41.8592 24
2821 1 -4.60177 99.4388 37.3357 25
2824 3 -1.56047 100.25 37.3404 22
2827 1 -2.66995 101.286 36.0955 24
2828 1 -2.66028 104.153 37.7715 23
2829 2 -0.286711 102.953 37.3846 21
2830 3 -3.98817 101.871 37.5008 23
2831 3 -1.60655 105.746 37.5298 22
2832 3 -1.46518 102.922 36.2561 21
2833 1 -2.44384 101.216 38.8405 25
2834 3 -1.19233 102.983 38.6961 23
2842 1 -0.363154 103.739 40.4546 27
2843 2 -3.12362 105.56 40.5323 24
2844 3 -1.57059 105.557 40.6641 23
2845 3 -3.93679 101.907 40.5316 25
2846 3 -3.69776 104.643 39.3911 23
2847 1 -0.0658342 106.144 36.2857 23
2848 3 -3.79929 104.989 41.9097 23
2973 1 -4.71575 99.3275 43.6066 26
2976 3 -1.08205 101.002 43.6371 25
2979 1 -2.50372 101.502 41.9312 27
2980 1 -2.70027 104.334 43.4468 29
2981 2 -0.440119 102.517 43.5338 25
2982 3 -3.72187 102.444 43.5778 23
2983 3 -1.75174 106.151 43.5565 25
2984 3 -1.197 103.086 42.2674 23
2999 1 -0.355792 106.547 41.9299 29
4135 3 1.08897 99.6484 35.4683 25
4138 3 0.596047 104.148 36.6072 20
4184 1 2.48559 98.6321 40.5455 26
4185 2 0.270009 100.427 40.5068 24
4186 3 3.53934 100.49 40.5323 22
4188 3 0.972496 99.6519 39.3118 22
4189 3 0.998798 99.8322 41.8592 24
4198 1 0.245509 99.4388 37.3357 25
4201 3 3.2868 100.25 37.3404 22
4204 1 2.17732 101.286 36.0955 24
4205 1 2.187 104.153 37.7715 23
4206 2 4.56057 102.953 37.3846 21
4207 3 0.859113 101.871 37.5008 23
4208 3 3.24073 105.746 37.5298 22
4209 3 3.3821 102.922 36.2561 21
4210 1 2.40344 101.216 38.8405 25
4211 3 3.65495 102.983 38.6961 23
4219 1 4.48413 103.739 40.4546 27
4220 2 1.72366 105.56 40.5323 24
4221 3 3.27669 105.557 40.6641 23
4222 3 0.91049 101.907 40.5316 25
4223 3 1.14952 104.643 39.3911 23
4224 1 4.78145 106.144 36.2857 23
4225 3 1.04799 104.989 41.9097 23
4350 1 0.13153 99.3275 43.6066 26
4353 3 3.76523 101.002 43.6371 25
4356 1 2.34356 101.502 41.9312 27
4357 1 2.14701 104.334 43.4468 29
4358 2 4.40716 102.517 43.5338 25
4359 3 1.12541 102.444 43.5778 23
4360 3 3.09554 106.151 43.5565 25
4361 3 3.65028 103.086 42.2674 23
4376 1 4.49149 106.547 41.9299 29
2838 3 -3.79174 107.065 40.496 23
2851 3 -3.71574 107.16 37.4262 21
4215 3 1.05554 107.065 40.496 23
4228 3 1.13154 107.16 37.4262 21
2850 2 -2.17229 107.261 37.4788 21
4227 2 2.67498 107.261 37.4788 21
5507 1 3.03875 99.1294 35.3282 21
4130 1 -1.80852 99.1294 35.3282 21
5512 3 5.93625 99.6484 35.4683 25
5515 3 5.44333 104.148 36.6072 20
5561 1 7.33288 98.6321 40.5455 26
5562 2 5.11729 100.427 40.5068 24
5563 3 8.38662 100.49 40.5322 22
5565 3 5.81978 99.6519 39.3118 22
5566 3 5.84608 99.8322 41.8592 24
5575 1 5.09279 99.4388 37.3357 25
5578 3 8.13409 100.25 37.3404 22
5581 1 7.02461 101.286 36.0955 24
5582 1 7.03428 104.153 37.7715 23
5583 2 9.40785 102.953 37.3846 21
5584 3 5.70639 101.871 37.5008 23
5585 3 8.08801 105.746 37.5298 22
5586 3 8.22938 102.922 36.2561 21
5587 1 7.25072 101.216 38.8405 25
5588 3 8.50223 102.983 38.6961 23
5596 1 9.33141 103.739 40.4546 27
5597 2 6.57094 105.56 40.5323 24
5598 3 8.12397 105.557 40.6641 23
5599 3 5.75777 101.907 40.5316 25
5600 3 5.9968 104.643 39.3911 23
5601 1 9.62873 106.144 36.2857 23
5602 3 5.89527 104.989 41.9097 23
5727 1 4.97881 99.3275 43.6066 26
5730 3 8.61251 101.002 43.6371 25
5733 1 7.19084 101.502 41.9312 27
5734 1 6.99429 104.334 43.4468 29
5735 2 9.25444 102.517 43.5338 25
5736 3 5.97269 102.444 43.5778 23
5737 3 7.94282 106.151 43.5565 25
5738 3 8.49756 103.086 42.2674 23
5753 1 9.33877 106.547 41.9299 29
6889 3 10.7835 99.6484 35.4683 25
6892 3 10.2906 104.148 36.6072 20
6938 1 12.1802 98.6321 40.5455 26
6939 2 9.96457 100.427 40.5068 24
6940 3 13.2339 100.49 40.5323 22
6942 3 10.6671 99.6519 39.3118 22
6943 3 10.6934 99.8322 41.8592 24
6952 1 9.94007 99.4388 37.3357 25
6955 3 12.9814 100.25 37.3404 22
6958 1 11.8719 101.286 36.0955 24
6959 1 11.8816 104.153 37.7715 23
6960 2 14.2551 102.953 37.3846 21
6961 3 10.5537 101.871 37.5008 23
6962 3 12.9353 105.746 37.5298 22
6963 3 13.0767 102.922 36.2561 21
6964 1 12.098 101.216 38.8405 25
6965 3 13.3495 102.983 38.6961 23
6973 1 14.1787 103.739 40.4546 27
6974 2 11.4182 105.56 40.5323 24
6975 3 12.9713 105.557 40.6641 23
6976 3 10.6051 101.907 40.5316 25
6977 3 10.8441 104.643 39.3911 23
6978 1 14.476 106.144 36.2857 23
6979 3 10.7426 104.989 41.9097 23
7104 1 9.82609 99.3275 43.6066 26
7107 3 13.4598 101.002 43.6371 25
7110 1 12.0381 101.502 41.9312 27
7111 1 11.8416 104.334 43.4468 29
7112 2 14.1017 102.517 43.5338 25
7113 3 10.82 102.444 43.5778 23
7114 3 12.7901 106.151 43.5565 25
7115 3 13.3448 103.086 42.2674 23
7130 1 14.186 106.547 41.9299 29
5592 3 5.90282 107.065 40.496 23
5605 3 5.97882 107.16 37.4262 21
6969 3 10.7501 107.065 40.496 23
6982 3 10.8261 107.16 37.4262 21
5604 2 7.52226 107.261 37.4788 21
6981 2 12.3695 107.261 37.4788 21
8261 1 12.7333 99.1294 35.3282 21
6884 1 7.88604 99.1294 35.3282 21
8266 3 15.6308 99.6484 35.4683 25
8269 3 15.1379 104.148 36.6072 20
8315 1 17.0274 98.6321 40.5455 26
8316 2 14.8118 100.427 40.5068 24
8317 3 18.0812 100.49 40.5322 22
8319 3 15.5143 99.6519 39.3118 22
8320 3 15.5406 99.8322 41.8592 24
8329 1 14.7873 99.4388 37.3357 25
8332 3 17.8286 100.25 37.3404 22
8335 1 16.7192 101.286 36.0955 24
8336 1 16.7288 104.153 37.7715 23
8337 2 19.1024 102.953 37.3846 21
8338 3 15.401 101.871 37.5008 23
8339 3 17.7826 105.746 37.5298 22
8340 3 17.9239 102.922 36.2561 21
8341 1 16.9453 101.216 38.8405 25
8342 3 18.1968 102.983 38.6961 23
8350 1 19.026 103.739 40.4546 27
8351 2 16.2655 105.56 40.5323 24
8352 3 17.8185 105.557 40.6641 23
8353 3 15.4523 101.907 40.5316 25
8354 3 15.6914 104.643 39.3911 23
8355 1 19.3233 106.144 36.2857 23
8356 3 15.5898 104.989 41.9097 23
8481 1 14.6734 99.3275 43.6066 26
8484 3 18.3071 101.002 43.6371 25
8487 1 16.8854 101.502 41.9312 27
8488 1 16.6889 104.334 43.4468 29
8489 2 18.949 102.517 43.5338 25
8490 3 15.6673 102.444 43.5778 23
8491 3 17.6374 106.151 43.5565 25
8492 3 18.1921 103.086 42.2674 23
8507 1 19.0333 106.547 41.9299 29
9643 3 20.4781 99.6484 35.4683 25
9646 3 19.9852 104.148 36.6072 20
9692 1 21.8747 98.6321 40.5455 26
9693 2 19.6591 100.427 40.5068 24
9694 3 22.9285 100.49 40.5323 22
9696 3 20.3616 99.6519 39.3118 22
9697 3 20.3879 99.8322 41.8592 24
9706 1 19.6346 99.4388 37.3357 25
9709 3 22.6759 100.25 37.3404 22
9712 1 21.5664 101.286 36.0955 24