ITEM: TIMESTEP
0
ITEM: NUMBER OF ATOMS
756
ITEM: BOX BOUNDS pp pp pp
-4.8435403184 9.6870806369
-10.1864092633 20.3728185265
-6.0013959751 12.0027919502
ITEM: ATOMS id type x y z Coordination
1 1 -4.0778e-08 -10.1864 -1.2442e-08 28
2 1 -0.0739502 -7.37074 -4.50105 27
3 2 -2.75455 -9.199 -4.50105 25
4 3 -1.19076 -9.2802 -4.50105 22
5 3 -3.81455 -5.59205 -4.50105 24
6 3 -3.45247 -8.53942 -5.77924 24
7 1 -4.0778e-08 -10.1864 -3.0007 28
8 3 -3.45247 -8.53942 -3.22286 24
9 1 -4.76959 -2.81566 -1.50035 27
10 2 -2.08899 -0.987405 -1.50035 25
11 3 -3.65278 -0.906215 -1.50035 22
12 3 -1.02899 -4.59435 -1.50035 24
13 3 -1.39107 -1.64698 -2.77854 24
14 3 -1.39107 -1.64698 -0.222158 24
15 1 -2.42177 -5.0932 -3.0007 28
16 1 -2.49572 -7.90886 -1.50035 27
17 2 -0.33278 -6.08061 -1.50035 25
18 3 -3.61253 -5.99941 -1.50035 22
19 3 -1.39278 -9.68756 -1.50035 24
20 3 -1.0307 -6.74019 -2.77854 24
21 1 -2.42177 -5.0932 -1.2442e-08 28
22 3 -1.0307 -6.74019 -0.222158 24
23 1 -2.34782 -2.27754 -4.50105 27
24 2 -4.51076 -4.10579 -4.50105 25
25 3 -1.23101 -4.18699 -4.50105 22
26 3 -3.45076 -0.498845 -4.50105 24
27 3 -3.81284 -3.44621 -5.77924 24
28 3 -3.81284 -3.44621 -3.22286 24
30 1 -0.0739502 -7.37074 1.50035 27
31 2 -2.75455 -9.199 1.50035 25
32 3 -1.19076 -9.2802 1.50035 22
33 3 -3.81455 -5.59205 1.50035 24
34 3 -3.45247 -8.53942 0.22216 24
36 3 -3.45247 -8.53942 2.77854 24
51 1 -2.34782 -2.27754 1.50035 27
52 2 -4.51076 -4.10579 1.50035 25
53 3 -1.23101 -4.18699 1.50035 22
54 3 -3.45076 -0.498845 1.50035 24
55 3 -3.81284 -3.44621 0.22216 24
56 3 -3.81284 -3.44621 2.77854 24
253 1 4.84354 -10.1864 -1.2442e-08 28
254 1 4.76959 -7.37074 -4.50105 27
255 2 2.08899 -9.199 -4.50105 25
256 3 3.65278 -9.2802 -4.50105 22
257 3 1.02899 -5.59205 -4.50105 24
258 3 1.39107 -8.53942 -5.77924 24
259 1 4.84354 -10.1864 -3.0007 28
260 3 1.39107 -8.53942 -3.22286 24
261 1 0.0739457 -2.81566 -1.50035 27
262 2 2.75455 -0.987405 -1.50035 25
263 3 1.19076 -0.906215 -1.50035 22
264 3 3.81455 -4.59435 -1.50035 24
265 3 3.45247 -1.64698 -2.77854 24
266 3 3.45247 -1.64698 -0.222158 24
267 1 2.42177 -5.0932 -3.0007 28
268 1 2.34782 -7.90886 -1.50035 27
269 2 4.51076 -6.08061 -1.50035 25
270 3 1.23101 -5.99941 -1.50035 22
271 3 3.45076 -9.68756 -1.50035 24
272 3 3.81284 -6.74019 -2.77854 24
273 1 2.42177 -5.0932 -1.2442e-08 28
274 3 3.81284 -6.74019 -0.222158 24
275 1 2.49572 -2.27754 -4.50105 27
276 2 0.332782 -4.10579 -4.50105 25
277 3 3.61253 -4.18699 -4.50105 22
278 3 1.39278 -0.498845 -4.50105 24
279 3 1.0307 -3.44621 -5.77924 24
280 3 1.0307 -3.44621 -3.22286 24
282 1 4.76959 -7.37074 1.50035 27
283 2 2.08899 -9.199 1.50035 25
284 3 3.65278 -9.2802 1.50035 22
285 3 1.02899 -5.59205 1.50035 24
286 3 1.39107 -8.53942 0.22216 24
288 3 1.39107 -8.53942 2.77854 24
303 1 2.49572 -2.27754 1.50035 27
304 2 0.332782 -4.10579 1.50035 25
305 3 3.61253 -4.18699 1.50035 22
306 3 1.39278 -0.498845 1.50035 24
307 3 1.0307 -3.44621 0.22216 24
308 3 1.0307 -3.44621 2.77854 24
505 1 9.68708 -10.1864 -1.2442e-08 28
506 1 9.61313 -7.37074 -4.50105 27
507 2 6.93253 -9.199 -4.50105 25
508 3 8.49632 -9.2802 -4.50105 22
509 3 5.87253 -5.59205 -4.50105 24
510 3 6.23461 -8.53942 -5.77924 24
511 1 9.68708 -10.1864 -3.0007 28
512 3 6.23461 -8.53942 -3.22286 24
513 1 4.91749 -2.81566 -1.50035 27
514 2 7.59809 -0.987405 -1.50035 25
515 3 6.0343 -0.906215 -1.50035 22
516 3 8.65809 -4.59435 -1.50035 24
517 3 8.29601 -1.64698 -2.77854 24
518 3 8.29601 -1.64698 -0.222158 24
519 1 7.26531 -5.0932 -3.0007 28
520 1 7.19136 -7.90886 -1.50035 27
521 2 9.3543 -6.08061 -1.50035 25
522 3 6.07455 -5.99941 -1.50035 22
523 3 8.2943 -9.68756 -1.50035 24
524 3 8.65638 -6.74019 -2.77854 24
525 1 7.26531 -5.0932 -1.2442e-08 28
526 3 8.65638 -6.74019 -0.222158 24
527 1 7.33926 -2.27754 -4.50105 27
528 2 5.17632 -4.10579 -4.50105 25
529 3 8.45607 -4.18699 -4.50105 22
530 3 6.23632 -0.498845 -4.50105 24
531 3 5.87424 -3.44621 -5.77924 24
532 3 5.87424 -3.44621 -3.22286 24
534 1 9.61313 -7.37074 1.50035 27
535 2 6.93253 -9.199 1.50035 25
536 3 8.49632 -9.2802 1.50035 22
537 3 5.87253 -5.59205 1.50035 24
538 3 6.23461 -8.53942 0.22216 24
540 3 6.23461 -8.53942 2.77854 24
555 1 7.33926 -2.27754 1.50035 27
556 2 5.17632 -4.10579 1.50035 25
557 3 8.45607 -4.18699 1.50035 22
558 3 6.23632 -0.498845 1.50035 24
559 3 5.87424 -3.44621 0.22216 24
560 3 5.87424 -3.44621 2.77854 24
85 1 -4.0778e-08 1.629e-09 -1.2442e-08 28
86 1 -0.0739502 2.81566 -4.50105 27
87 2 -2.75455 0.987408 -4.50105 25
88 3 -1.19076 0.906212 -4.50105 22
89 3 -3.81455 4.59435 -4.50105 24
90 3 -3.45247 1.64698 -5.77924 24
91 1 -4.0778e-08 1.629e-09 -3.0007 28
92 3 -3.45247 1.64698 -3.22286 24
93 1 -4.76959 7.37074 -1.50035 27
94 2 -2.08899 9.199 -1.50035 25
95 3 -3.65278 9.28019 -1.50035 22
96 3 -1.02899 5.59205 -1.50035 24
97 3 -1.39107 8.53942 -2.77854 24
98 3 -1.39107 8.53942 -0.222158 24
99 1 -2.42177 5.0932 -3.0007 28
100 1 -2.49572 2.27754 -1.50035 27
101 2 -0.33278 4.10579 -1.50035 25
102 3 -3.61253 4.18699 -1.50035 22
103 3 -1.39278 0.498847 -1.50035 24
104 3 -1.0307 3.44621 -2.77854 24
105 1 -2.42177 5.0932 -1.2442e-08 28
106 3 -1.0307 3.44621 -0.222158 24
107 1 -2.34782 7.90886 -4.50105 27
108 2 -4.51076 6.08061 -4.50105 25
109 3 -1.23101 5.99941 -4.50105 22
110 3 -3.45076 9.68756 -4.50105 24
111 3 -3.81284 6.74019 -5.77924 24
112 3 -3.81284 6.74019 -3.22286 24
114 1 -0.0739502 2.81566 1.50035 27
115 2 -2.75455 0.987408 1.50035 25
116 3 -1.19076 0.906212 1.50035 22
117 3 -3.81455 4.59435 1.50035 24
118 3 -3.45247 1.64698 0.22216 24
120 3 -3.45247 1.64698 2.77854 24
135 1 -2.34782 7.90886 1.50035 27
136 2 -4.51076 6.08061 1.50035 25
137 3 -1.23101 5.99941 1.50035 22
138 3 -3.45076 9.68756 1.50035 24
139 3 -3.81284 6.74019 0.22216 24
140 3 -3.81284 6.74019 2.77854 24
337 1 4.84354 1.629e-09 -1.2442e-08 28
338 1 4.76959 2.81566 -4.50105 27
339 2 2.08899 0.987408 -4.50105 25
340 3 3.65278 0.906212 -4.50105 22
341 3 1.02899 4.59435 -4.50105 24
342 3 1.39107 1.64698 -5.77924 24
343 1 4.84354 1.629e-09 -3.0007 28
344 3 1.39107 1.64698 -3.22286 24
345 1 0.0739457 7.37074 -1.50035 27
346 2 2.75455 9.199 -1.50035 25
347 3 1.19076 9.28019 -1.50035 22
348 3 3.81455 5.59205 -1.50035 24
349 3 3.45247 8.53942 -2.77854 24
350 3 3.45247 8.53942 -0.222158 24
351 1 2.42177 5.0932 -3.0007 28
352 1 2.34782 2.27754 -1.50035 27
353 2 4.51076 4.10579 -1.50035 25
354 3 1.23101 4.18699 -1.50035 22
355 3 3.45076 0.498847 -1.50035 24
356 3 3.81284 3.44621 -2.77854 24
357 1 2.42177 5.0932 -1.2442e-08 28
358 3 3.81284 3.44621 -0.222158 24
359 1 2.49572 7.90886 -4.50105 27
360 2 0.332782 6.08061 -4.50105 25
361 3 3.61253 5.99941 -4.50105 22
362 3 1.39278 9.68756 -4.50105 24
363 3 1.0307 6.74019 -5.77924 24
364 3 1.0307 6.74019 -3.22286 24
366 1 4.76959 2.81566 1.50035 27
367 2 2.08899 0.987408 1.50035 25
368 3 3.65278 0.906212 1.50035 22
369 3 1.02899 4.59435 1.50035 24
370 3 1.39107 1.64698 0.22216 24
372 3 1.39107 1.64698 2.77854 24
387 1 2.49572 7.90886 1.50035 27
388 2 0.332782 6.08061 1.50035 25
389 3 3.61253 5.99941 1.50035 22
390 3 1.39278 9.68756 1.50035 24
391 3 1.0307 6.74019 0.22216 24
392 3 1.0307 6.74019 2.77854 24
589 1 9.68708 1.629e-09 -1.2442e-08 28
590 1 9.61313 2.81566 -4.50105 27
591 2 6.93253 0.987408 -4.50105 25
592 3 8.49632 0.906212 -4.50105 22
593 3 5.87253 4.59435 -4.50105 24
594 3 6.23461 1.64698 -5.77924 24
595 1 9.68708 1.629e-09 -3.0007 28
596 3 6.23461 1.64698 -3.22286 24
597 1 4.91749 7.37074 -1.50035 27
598 2 7.59809 9.199 -1.50035 25
599 3 6.0343 9.28019 -1.50035 22
600 3 8.65809 5.59205 -1.50035 24
601 3 8.29601 8.53942 -2.77854 24
602 3 8.29601 8.53942 -0.222158 24
603 1 7.26531 5.0932 -3.0007 28
604 1 7.19136 2.27754 -1.50035 27
605 2 9.3543 4.10579 -1.50035 25
606 3 6.07455 4.18699 -1.50035 22
607 3 8.2943 0.498847 -1.50035 24
608 3 8.65638 3.44621 -2.77854 24
609 1 7.26531 5.0932 -1.2442e-08 28
610 3 8.65638 3.44621 -0.222158 24
611 1 7.33926 7.90886 -4.50105 27
612 2 5.17632 6.08061 -4.50105 25
613 3 8.45607 5.99941 -4.50105 22
614 3 6.23632 9.68756 -4.50105 24
615 3 5.87424 6.74019 -5.77924 24
616 3 5.87424 6.74019 -3.22286 24
618 1 9.61313 2.81566 1.50035 27
619 2 6.93253 0.987408 1.50035 25
620 3 8.49632 0.906212 1.50035 22
621 3 5.87253 4.59435 1.50035 24
622 3 6.23461 1.64698 0.22216 24
624 3 6.23461 1.64698 2.77854 24
639 1 7.33926 7.90886 1.50035 27
640 2 5.17632 6.08061 1.50035 25
641 3 8.45607 5.99941 1.50035 22
642 3 6.23632 9.68756 1.50035 24
643 3 5.87424 6.74019 0.22216 24
644 3 5.87424 6.74019 2.77854 24
169 1 -4.0778e-08 10.1864 -1.2442e-08 28
170 1 -0.0739502 13.0021 -4.50105 27
171 2 -2.75455 11.1738 -4.50105 25
172 3 -1.19076 11.0926 -4.50105 22
173 3 -3.81455 14.7808 -4.50105 24
174 3 -3.45247 11.8334 -5.77924 24
175 1 -4.0778e-08 10.1864 -3.0007 28
176 3 -3.45247 11.8334 -3.22286 24
177 1 -4.76959 17.5572 -1.50035 27
178 2 -2.08899 19.3854 -1.50035 25
179 3 -3.65278 19.4666 -1.50035 22
180 3 -1.02899 15.7785 -1.50035 24
181 3 -1.39107 18.7258 -2.77854 24
182 3 -1.39107 18.7258 -0.222158 24
183 1 -2.42177 15.2796 -3.0007 28
184 1 -2.49572 12.464 -1.50035 27
185 2 -0.33278 14.2922 -1.50035 25
186 3 -3.61253 14.3734 -1.50035 22
187 3 -1.39278 10.6853 -1.50035 24
188 3 -1.0307 13.6326 -2.77854 24
189 1 -2.42177 15.2796 -1.2442e-08 28
190 3 -1.0307 13.6326 -0.222158 24
191 1 -2.34782 18.0953 -4.50105 27
192 2 -4.51076 16.267 -4.50105 25
193 3 -1.23101 16.1858 -4.50105 22
194 3 -3.45076 19.874 -4.50105 24
195 3 -3.81284 16.9266 -5.77924 24
196 3 -3.81284 16.9266 -3.22286 24
198 1 -0.0739502 13.0021 1.50035 27
199 2 -2.75455 11.1738 1.50035 25
200 3 -1.19076 11.0926 1.50035 22
201 3 -3.81455 14.7808 1.50035 24
202 3 -3.45247 11.8334 0.22216 24
204 3 -3.45247 11.8334 2.77854 24
219 1 -2.34782 18.0953 1.50035 27
220 2 -4.51076 16.267 1.50035 25
221 3 -1.23101 16.1858 1.50035 22
222 3 -3.45076 19.874 1.50035 24
223 3 -3.81284 16.9266 0.22216 24
224 3 -3.81284 16.9266 2.77854 24
421 1 4.84354 10.1864 -1.2442e-08 28
422 1 4.76959 13.0021 -4.50105 27
423 2 2.08899 11.1738 -4.50105 25
424 3 3.65278 11.0926 -4.50105 22
425 3 1.02899 14.7808 -4.50105 24
426 3 1.39107 11.8334 -5.77924 24
427 1 4.84354 10.1864 -3.0007 28
428 3 1.39107 11.8334 -3.22286 24
429 1 0.0739457 17.5572 -1.50035 27
430 2 2.75455 19.3854 -1.50035 25
431 3 1.19076 19.4666 -1.50035 22
432 3 3.81455 15.7785 -1.50035 24
433 3 3.45247 18.7258 -2.77854 24
434 3 3.45247 18.7258 -0.222158 24
435 1 2.42177 15.2796 -3.0007 28
436 1 2.34782 12.464 -1.50035 27
437 2 4.51076 14.2922 -1.50035 25
438 3 1.23101 14.3734 -1.50035 22
439 3 3.45076 10.6853 -1.50035 24
440 3 3.81284 13.6326 -2.77854 24
441 1 2.42177 15.2796 -1.2442e-08 28
442 3 3.81284 13.6326 -0.222158 24
443 1 2.49572 18.0953 -4.50105 27
444 2 0.332782 16.267 -4.50105 25
445 3 3.61253 16.1858 -4.50105 22
446 3 1.39278 19.874 -4.50105 24
447 3 1.0307 16.9266 -5.77924 24
448 3 1.0307 16.9266 -3.22286 24
450 1 4.76959 13.0021 1.50035 27
451 2 2.08899 11.1738 1.50035 25
452 3 3.65278 11.0926 1.50035 22
453 3 1.02899 14.7808 1.50035 24
454 3 1.39107 11.8334 0.22216 24
456 3 1.39107 11.8334 2.77854 24
471 1 2.49572 18.0953 1.50035 27
472 2 0.332782 16.267 1.50035 25
473 3 3.61253 16.1858 1.50035 22
474 3 1.39278 19.874 1.50035 24
475 3 1.0307 16.9266 0.22216 24
476 3 1.0307 16.9266 2.77854 24
673 1 9.68708 10.1864 -1.2442e-08 28
674 1 9.61313 13.0021 -4.50105 27
675 2 6.93253 11.1738 -4.50105 25
676 3 8.49632 11.0926 -4.50105 22
677 3 5.87253 14.7808 -4.50105 24
678 3 6.23461 11.8334 -5.77924 24
679 1 9.68708 10.1864 -3.0007 28
680 3 6.23461 11.8334 -3.22286 24
681 1 4.91749 17.5572 -1.50035 27
682 2 7.59809 19.3854 -1.50035 25
683 3 6.0343 19.4666 -1.50035 22
684 3 8.65809 15.7785 -1.50035 24
685 3 8.29601 18.7258 -2.77854 24
686 3 8.29601 18.7258 -0.222158 24
687 1 7.26531 15.2796 -3.0007 28
688 1 7.19136 12.464 -1.50035 27
689 2 9.3543 14.2922 -1.50035 25
690 3 6.07455 14.3734 -1.50035 22
691 3 8.2943 10.6853 -1.50035 24
692 3 8.65638 13.6326 -2.77854 24
693 1 7.26531 15.2796 -1.2442e-08 28
694 3 8.65638 13.6326 -0.222158 24
695 1 7.33926 18.0953 -4.50105 27
696 2 5.17632 16.267 -4.50105 25
697 3 8.45607 16.1858 -4.50105 22
698 3 6.23632 19.874 -4.50105 24
699 3 5.87424 16.9266 -5.77924 24
700 3 5.87424 16.9266 -3.22286 24
702 1 9.61313 13.0021 1.50035 27
703 2 6.93253 11.1738 1.50035 25
704 3 8.49632 11.0926 1.50035 22
705 3 5.87253 14.7808 1.50035 24
706 3 6.23461 11.8334 0.22216 24
708 3 6.23461 11.8334 2.77854 24
723 1 7.33926 18.0953 1.50035 27
724 2 5.17632 16.267 1.50035 25
725 3 8.45607 16.1858 1.50035 22
726 3 6.23632 19.874 1.50035 24
727 3 5.87424 16.9266 0.22216 24
728 3 5.87424 16.9266 2.77854 24
29 1 -4.0778e-08 -10.1864 6.0014 28
35 1 -4.0778e-08 -10.1864 3.0007 28
37 1 -4.76959 -2.81566 4.50105 27
38 2 -2.08899 -0.987405 4.50105 25
39 3 -3.65278 -0.906215 4.50105 22
40 3 -1.02899 -4.59435 4.50105 24
41 3 -1.39107 -1.64698 3.22286 24
42 3 -1.39107 -1.64698 5.77924 24
43 1 -2.42177 -5.0932 3.0007 28
44 1 -2.49572 -7.90886 4.50105 27
45 2 -0.33278 -6.08061 4.50105 25
46 3 -3.61253 -5.99941 4.50105 22
47 3 -1.39278 -9.68756 4.50105 24
48 3 -1.0307 -6.74019 3.22286 24
49 1 -2.42177 -5.0932 6.0014 28
50 3 -1.0307 -6.74019 5.77924 24
57 1 -4.0778e-08 -10.1864 12.0028 28
58 1 -0.0739502 -7.37074 7.50174 27
59 2 -2.75455 -9.199 7.50174 25
60 3 -1.19076 -9.2802 7.50174 22
61 3 -3.81455 -5.59205 7.50174 24
62 3 -3.45247 -8.53942 6.22356 24
63 1 -4.0778e-08 -10.1864 9.00209 28
64 3 -3.45247 -8.53942 8.77993 24
65 1 -4.76959 -2.81566 10.5024 27
66 2 -2.08899 -0.987405 10.5024 25
67 3 -3.65278 -0.906215 10.5024 22
68 3 -1.02899 -4.59435 10.5024 24
69 3 -1.39107 -1.64698 9.22425 24
70 3 -1.39107 -1.64698 11.7806 24
71 1 -2.42177 -5.0932 9.00209 28
72 1 -2.49572 -7.90886 10.5024 27
73 2 -0.33278 -6.08061 10.5024 25
74 3 -3.61253 -5.99941 10.5024 22
75 3 -1.39278 -9.68756 10.5024 24
76 3 -1.0307 -6.74019 9.22425 24
77 1 -2.42177 -5.0932 12.0028 28
78 3 -1.0307 -6.74019 11.7806 24
79 1 -2.34782 -2.27754 7.50174 27
80 2 -4.51076 -4.10579 7.50174 25
81 3 -1.23101 -4.18699 7.50174 22
82 3 -3.45076 -0.498845 7.50174 24
83 3 -3.81284 -3.44621 6.22356 24
84 3 -3.81284 -3.44621 8.77993 24
281 1 4.84354 -10.1864 6.0014 28
287 1 4.84354 -10.1864 3.0007 28
289 1 0.0739457 -2.81566 4.50105 27
290 2 2.75455 -0.987405 4.50105 25
291 3 1.19076 -0.906215 4.50105 22
292 3 3.81455 -4.59435 4.50105 24
293 3 3.45247 -1.64698 3.22286 24
294 3 3.45247 -1.64698 5.77924 24
295 1 2.42177 -5.0932 3.0007 28
296 1 2.34782 -7.90886 4.50105 27
297 2 4.51076 -6.08061 4.50105 25
298 3 1.23101 -5.99941 4.50105 22
299 3 3.45076 -9.68756 4.50105 24
300 3 3.81284 -6.74019 3.22286 24
301 1 2.42177 -5.0932 6.0014 28
302 3 3.81284 -6.74019 5.77924 24
309 1 4.84354 -10.1864 12.0028 28
310 1 4.76959 -7.37074 7.50174 27
311 2 2.08899 -9.199 7.50174 25
312 3 3.65278 -9.2802 7.50174 22
313 3 1.02899 -5.59205 7.50174 24
314 3 1.39107 -8.53942 6.22356 24
315 1 4.84354 -10.1864 9.00209 28
316 3 1.39107 -8.53942 8.77993 24
317 1 0.0739457 -2.81566 10.5024 27
318 2 2.75455 -0.987405 10.5024 25
319 3 1.19076 -0.906215 10.5024 22
320 3 3.81455 -4.59435 10.5024 24
321 3 3.45247 -1.64698 9.22425 24
322 3 3.45247 -1.64698 11.7806 24
323 1 2.42177 -5.0932 9.00209 28
324 1 2.34782 -7.90886 10.5024 27
325 2 4.51076 -6.08061 10.5024 25
326 3 1.23101 -5.99941 10.5024 22
327 3 3.45076 -9.68756 10.5024 24
328 3 3.81284 -6.74019 9.22425 24
329 1 2.42177 -5.0932 12.0028 28
330 3 3.81284 -6.74019 11.7806 24
331 1 2.49572 -2.27754 7.50174 27
332 2 0.332782 -4.10579 7.50174 25
333 3 3.61253 -4.18699 7.50174 22
334 3 1.39278 -0.498845 7.50174 24
335 3 1.0307 -3.44621 6.22356 24
336 3 1.0307 -3.44621 8.77993 24
533 1 9.68708 -10.1864 6.0014 28
539 1 9.68708 -10.1864 3.0007 28
541 1 4.91749 -2.81566 4.50105 27
542 2 7.59809 -0.987405 4.50105 25
543 3 6.0343 -0.906215 4.50105 22
544 3 8.65809 -4.59435 4.50105 24
545 3 8.29601 -1.64698 3.22286 24
546 3 8.29601 -1.64698 5.77924 24
547 1 7.26531 -5.0932 3.0007 28
548 1 7.19136 -7.90886 4.50105 27
549 2 9.3543 -6.08061 4.50105 25
550 3 6.07455 -5.99941 4.50105 22
551 3 8.2943 -9.68756 4.50105 24
552 3 8.65638 -6.74019 3.22286 24
553 1 7.26531 -5.0932 6.0014 28
554 3 8.65638 -6.74019 5.77924 24
561 1 9.68708 -10.1864 12.0028 28
562 1 9.61313 -7.37074 7.50174 27
563 2 6.93253 -9.199 7.50174 25
564 3 8.49632 -9.2802 7.50174 22
565 3 5.87253 -5.59205 7.50174 24
566 3 6.23461 -8.53942 6.22356 24
567 1 9.68708 -10.1864 9.00209 28
568 3 6.23461 -8.53942 8.77993 24
569 1 4.91749 -2.81566 10.5024 27
570 2 7.59809 -0.987405 10.5024 25
571 3 6.0343 -0.906215 10.5024 22
572 3 8.65809 -4.59435 10.5024 24
573 3 8.29601 -1.64698 9.22425 24
574 3 8.29601 -1.64698 11.7806 24
575 1 7.26531 -5.0932 9.00209 28
576 1 7.19136 -7.90886 10.5024 27
577 2 9.3543 -6.08061 10.5024 25
578 3 6.07455 -5.99941 10.5024 22
579 3 8.2943 -9.68756 10.5024 24
580 3 8.65638 -6.74019 9.22425 24
581 1 7.26531 -5.0932 12.0028 28
582 3 8.65638 -6.74019 11.7806 24
583 1 7.33926 -2.27754 7.50174 27
584 2 5.17632 -4.10579 7.50174 25
585 3 8.45607 -4.18699 7.50174 22
586 3 6.23632 -0.498845 7.50174 24
587 3 5.87424 -3.44621 6.22356 24
588 3 5.87424 -3.44621 8.77993 24
113 1 -4.0778e-08 1.629e-09 6.0014 28
119 1 -4.0778e-08 1.629e-09 3.0007 28
121 1 -4.76959 7.37074 4.50105 27
122 2 -2.08899 9.199 4.50105 25
123 3 -3.65278 9.28019 4.50105 22
124 3 -1.02899 5.59205 4.50105 24
125 3 -1.39107 8.53942 3.22286 24
126 3 -1.39107 8.53942 5.77924 24
127 1 -2.42177 5.0932 3.0007 28
128 1 -2.49572 2.27754 4.50105 27
129 2 -0.33278 4.10579 4.50105 25
130 3 -3.61253 4.18699 4.50105 22
131 3 -1.39278 0.498847 4.50105 24
132 3 -1.0307 3.44621 3.22286 24
133 1 -2.42177 5.0932 6.0014 28
134 3 -1.0307 3.44621 5.77924 24
141 1 -4.0778e-08 1.629e-09 12.0028 28
142 1 -0.0739502 2.81566 7.50174 27
143 2 -2.75455 0.987408 7.50174 25
144 3 -1.19076 0.906212 7.50174 22
145 3 -3.81455 4.59435 7.50174 24
146 3 -3.45247 1.64698 6.22356 24
147 1 -4.0778e-08 1.629e-09 9.00209 28
148 3 -3.45247 1.64698 8.77993 24
149 1 -4.76959 7.37074 10.5024 27
150 2 -2.08899 9.199 10.5024 25
151 3 -3.65278 9.28019 10.5024 22
152 3 -1.02899 5.59205 10.5024 24
153 3 -1.39107 8.53942 9.22425 24
154 3 -1.39107 8.53942 11.7806 24
155 1 -2.42177 5.0932 9.00209 28
156 1 -2.49572 2.27754 10.5024 27
157 2 -0.33278 4.10579 10.5024 25
158 3 -3.61253 4.18699 10.5024 22
159 3 -1.39278 0.498847 10.5024 24
160 3 -1.0307 3.44621 9.22425 24
161 1 -2.42177 5.0932 12.0028 28
162 3 -1.0307 3.44621 11.7806 24
163 1 -2.34782 7.90886 7.50174 27
164 2 -4.51076 6.08061 7.50174 25
165 3 -1.23101 5.99941 7.50174 22
166 3 -3.45076 9.68756 7.50174 24
167 3 -3.81284 6.74019 6.22356 24
168 3 -3.81284 6.74019 8.77993 24
365 1 4.84354 1.629e-09 6.0014 28
371 1 4.84354 1.629e-09 3.0007 28
373 1 0.0739457 7.37074 4.50105 27
374 2 2.75455 9.199 4.50105 25
375 3 1.19076 9.28019 4.50105 22
376 3 3.81455 5.59205 4.50105 24
377 3 3.45247 8.53942 3.22286 24
378 3 3.45247 8.53942 5.77924 24
379 1 2.42177 5.0932 3.0007 28
380 1 2.34782 2.27754 4.50105 27
381 2 4.51076 4.10579 4.50105 25
382 3 1.23101 4.18699 4.50105 22
383 3 3.45076 0.498847 4.50105 24
384 3 3.81284 3.44621 3.22286 24
385 1 2.42177 5.0932 6.0014 28
386 3 3.81284 3.44621 5.77924 24
393 1 4.84354 1.629e-09 12.0028 28
394 1 4.76959 2.81566 7.50174 27
395 2 2.08899 0.987408 7.50174 25
396 3 3.65278 0.906212 7.50174 22
397 3 1.02899 4.59435 7.50174 24
398 3 1.39107 1.64698 6.22356 24
399 1 4.84354 1.629e-09 9.00209 28
400 3 1.39107 1.64698 8.77993 24
401 1 0.0739457 7.37074 10.5024 27
402 2 2.75455 9.199 10.5024 25
403 3 1.19076 9.28019 10.5024 22
404 3 3.81455 5.59205 10.5024 24
405 3 3.45247 8.53942 9.22425 24
406 3 3.45247 8.53942 11.7806 24
407 1 2.42177 5.0932 9.00209 28
408 1 2.34782 2.27754 10.5024 27
409 2 4.51076 4.10579 10.5024 25
410 3 1.23101 4.18699 10.5024 22
411 3 3.45076 0.498847 10.5024 24
412 3 3.81284 3.44621 9.22425 24
413 1 2.42177 5.0932 12.0028 28
414 3 3.81284 3.44621 11.7806 24
415 1 2.49572 7.90886 7.50174 27
416 2 0.332782 6.08061 7.50174 25
417 3 3.61253 5.99941 7.50174 22
418 3 1.39278 9.68756 7.50174 24
419 3 1.0307 6.74019 6.22356 24
420 3 1.0307 6.74019 8.77993 24
617 1 9.68708 1.629e-09 6.0014 28
623 1 9.68708 1.629e-09 3.0007 28
625 1 4.91749 7.37074 4.50105 27
626 2 7.59809 9.199 4.50105 25
627 3 6.0343 9.28019 4.50105 22
628 3 8.65809 5.59205 4.50105 24
629 3 8.29601 8.53942 3.22286 24
630 3 8.29601 8.53942 5.77924 24
631 1 7.26531 5.0932 3.0007 28
632 1 7.19136 2.27754 4.50105 27
633 2 9.3543 4.10579 4.50105 25
634 3 6.07455 4.18699 4.50105 22
635 3 8.2943 0.498847 4.50105 24
636 3 8.65638 3.44621 3.22286 24
637 1 7.26531 5.0932 6.0014 28
638 3 8.65638 3.44621 5.77924 24
645 1 9.68708 1.629e-09 12.0028 28
646 1 9.61313 2.81566 7.50174 27
647 2 6.93253 0.987408 7.50174 25
648 3 8.49632 0.906212 7.50174 22
649 3 5.87253 4.59435 7.50174 24
650 3 6.23461 1.64698 6.22356 24
651 1 9.68708 1.629e-09 9.00209 28
652 3 6.23461 1.64698 8.77993 24
653 1 4.91749 7.37074 10.5024 27
654 2 7.59809 9.199 10.5024 25
655 3 6.0343 9.28019 10.5024 22
656 3 8.65809 5.59205 10.5024 24
657 3 8.29601 8.53942 9.22425 24
658 3 8.29601 8.53942 11.7806 24
659 1 7.26531 5.0932 9.00209 28
660 1 7.19136 2.27754 10.5024 27
661 2 9.3543 4.10579 10.5024 25
662 3 6.07455 4.18699 10.5024 22
663 3 8.2943 0.498847 10.5024 24
664 3 8.65638 3.44621 9.22425 24
665 1 7.26531 5.0932 12.0028 28
666 3 8.65638 3.44621 11.7806 24
667 1 7.33926 7.90886 7.50174 27
668 2 5.17632 6.08061 7.50174 25
669 3 8.45607 5.99941 7.50174 22
670 3 6.23632 9.68756 7.50174 24
671 3 5.87424 6.74019 6.22356 24
672 3 5.87424 6.74019 8.77993 24
197 1 -4.0778e-08 10.1864 6.0014 28
203 1 -4.0778e-08 10.1864 3.0007 28
205 1 -4.76959 17.5572 4.50105 27
206 2 -2.08899 19.3854 4.50105 25
207 3 -3.65278 19.4666 4.50105 22
208 3 -1.02899 15.7785 4.50105 24
209 3 -1.39107 18.7258 3.22286 24
210 3 -1.39107 18.7258 5.77924 24
211 1 -2.42177 15.2796 3.0007 28
212 1 -2.49572 12.464 4.50105 27
213 2 -0.33278 14.2922 4.50105 25
214 3 -3.61253 14.3734 4.50105 22
215 3 -1.39278 10.6853 4.50105 24
216 3 -1.0307 13.6326 3.22286 24
217 1 -2.42177 15.2796 6.0014 28
218 3 -1.0307 13.6326 5.77924 24
225 1 -4.0778e-08 10.1864 12.0028 28
226 1 -0.0739502 13.0021 7.50174 27
227 2 -2.75455 11.1738 7.50174 25
228 3 -1.19076 11.0926 7.50174 22
229 3 -3.81455 14.7808 7.50174 24
230 3 -3.45247 11.8334 6.22356 24
231 1 -4.0778e-08 10.1864 9.00209 28
232 3 -3.45247 11.8334 8.77993 24
233 1 -4.76959 17.5572 10.5024 27
234 2 -2.08899 19.3854 10.5024 25
235 3 -3.65278 19.4666 10.5024 22
236 3 -1.02899 15.7785 10.5024 24
237 3 -1.39107 18.7258 9.22425 24
238 3 -1.39107 18.7258 11.7806 24
239 1 -2.42177 15.2796 9.00209 28
240 1 -2.49572 12.464 10.5024 27
241 2 -0.33278 14.2922 10.5024 25
242 3 -3.61253 14.3734 10.5024 22
243 3 -1.39278 10.6853 10.5024 24
244 3 -1.0307 13.6326 9.22425 24
245 1 -2.42177 15.2796 12.0028 28
246 3 -1.0307 13.6326 11.7806 24
247 1 -2.34782 18.0953 7.50174 27
248 2 -4.51076 16.267 7.50174 25
249 3 -1.23101 16.1858 7.50174 22
250 3 -3.45076 19.874 7.50174 24
251 3 -3.81284 16.9266 6.22356 24
252 3 -3.81284 16.9266 8.77993 24
449 1 4.84354 10.1864 6.0014 28
455 1 4.84354 10.1864 3.0007 28
457 1 0.0739457 17.5572 4.50105 27
458 2 2.75455 19.3854 4.50105 25
459 3 1.19076 19.4666 4.50105 22
460 3 3.81455 15.7785 4.50105 24
461 3 3.45247 18.7258 3.22286 24
462 3 3.45247 18.7258 5.77924 24
463 1 2.42177 15.2796 3.0007 28
464 1 2.34782 12.464 4.50105 27
465 2 4.51076 14.2922 4.50105 25
466 3 1.23101 14.3734 4.50105 22
467 3 3.45076 10.6853 4.50105 24
468 3 3.81284 13.6326 3.22286 24
469 1 2.42177 15.2796 6.0014 28
470 3 3.81284 13.6326 5.77924 24
477 1 4.84354 10.1864 12.0028 28
478 1 4.76959 13.0021 7.50174 27
479 2 2.08899 11.1738 7.50174 25
480 3 3.65278 11.0926 7.50174 22
481 3 1.02899 14.7808 7.50174 24
482 3 1.39107 11.8334 6.22356 24
483 1 4.84354 10.1864 9.00209 28
484 3 1.39107 11.8334 8.77993 24
485 1 0.0739457 17.5572 10.5024 27
486 2 2.75455 19.3854 10.5024 25
487 3 1.19076 19.4666 10.5024 22
488 3 3.81455 15.7785 10.5024 24
489 3 3.45247 18.7258 9.22425 24
490 3 3.45247 18.7258 11.7806 24
491 1 2.42177 15.2796 9.00209 28
492 1 2.34782 12.464 10.5024 27
493 2 4.51076 14.2922 10.5024 25
494 3 1.23101 14.3734 10.5024 22
495 3 3.45076 10.6853 10.5024 24
496 3 3.81284 13.6326 9.22425 24
497 1 2.42177 15.2796 12.0028 28
498 3 3.81284 13.6326 11.7806 24
499 1 2.49572 18.0953 7.50174 27
500 2 0.332782 16.267 7.50174 25
501 3 3.61253 16.1858 7.50174 22
502 3 1.39278 19.874 7.50174 24
503 3 1.0307 16.9266 6.22356 24
504 3 1.0307 16.9266 8.77993 24
701 1 9.68708 10.1864 6.0014 28
707 1 9.68708 10.1864 3.0007 28
709 1 4.91749 17.5572 4.50105 27
710 2 7.59809 19.3854 4.50105 25
711 3 6.0343 19.4666 4.50105 22
712 3 8.65809 15.7785 4.50105 24
713 3 8.29601 18.7258 3.22286 24
714 3 8.29601 18.7258 5.77924 24
715 1 7.26531 15.2796 3.0007 28
716 1 7.19136 12.464 4.50105 27
717 2 9.3543 14.2922 4.50105 25
718 3 6.07455 14.3734 4.50105 22
719 3 8.2943 10.6853 4.50105 24
720 3 8.65638 13.6326 3.22286 24
721 1 7.26531 15.2796 6.0014 28
722 3 8.65638 13.6326 5.77924 24
729 1 9.68708 10.1864 12.0028 28
730 1 9.61313 13.0021 7.50174 27
731 2 6.93253 11.1738 7.50174 25
732 3 8.49632 11.0926 7.50174 22
733 3 5.87253 14.7808 7.50174 24
734 3 6.23461 11.8334 6.22356 24
735 1 9.68708 10.1864 9.00209 28
736 3 6.23461 11.8334 8.77993 24
737 1 4.91749 17.5572 10.5024 27
738 2 7.59809 19.3854 10.5024 25
739 3 6.0343 19.4666 10.5024 22
740 3 8.65809 15.7785 10.5024 24
741 3 8.29601 18.7258 9.22425 24
742 3 8.29601 18.7258 11.7806 24
743 1 7.26531 15.2796 9.00209 28
744 1 7.19136 12.464 10.5024 27
745 2 9.3543 14.2922 10.5024 25
746 3 6.07455 14.3734 10.5024 22
747 3 8.2943 10.6853 10.5024 24
748 3 8.65638 13.6326 9.22425 24
749 1 7.26531 15.2796 12.0028 28
750 3 8.65638 13.6326 11.7806 24
751 1 7.33926 18.0953 7.50174 27
752 2 5.17632 16.267 7.50174 25
753 3 8.45607 16.1858 7.50174 22
754 3 6.23632 19.874 7.50174 24
755 3 5.87424 16.9266 6.22356 24
756 3 5.87424 16.9266 8.77993 24
