ITEM: TIMESTEP
13500
ITEM: NUMBER OF ATOMS
10500
ITEM: BOX BOUNDS xy xz yz pp pp pp
0.0000000000000000e+00 1.5297749999999999e+01 5.0992499999999996e+00
0.0000000000000000e+00 1.1872499999999999e+02 0.0000000000000000e+00
0.0000000000000000e+00 8.9688000000000002e+01 0.0000000000000000e+00
ITEM: ATOMS id type element xu yu zu q c_pe c_s[1] c_s[2] c_s[3] c_s[4] c_s[5] c_s[6]
1 1 Mg 6.2404 -6.37941e-06 0 1.2 -4.57316 8.11317e+06 -1.74548e+06 -6.30242e+06 -19882.2 2.62e+06 -277104
2 1 Mg 3.46349 4.70768 1.4948 1.2 -8.61822 -123320 2.98078e+06 4.04654e+06 -934368 -614954 83381.8
3 2 Si 5.2885 2.02354 1.4948 2.4 -35.5163 1.03831e+07 1.14264e+07 1.08863e+07 8.86224e+06 686164 -3.23641e+06
4 3 O 5.33628 3.63678 1.4948 -1.2 -4.59227 -1.01005e+06 -1.72505e+06 -3.34056e+07 -335702 3.81517e+06 -3.84648e+06
5 3 O 1.67294 1.04952 1.4948 -1.2 -0.916773 -2.05468e+07 -7.95603e+07 -1.91888e+06 -2.41264e+07 -128537 11524
6 3 O 4.59532 1.31737 0.196716 -1.2 -2.89253 -2.1529e+06 -6.84729e+06 -3.03438e+07 -6.02622e+06 6.24224e+06 -2.58197e+06
7 1 Mg 6.18956 -6.37941e-06 2.9896 1.2 -5.09398 1.79393e+06 -2.80627e+07 -3.10509e+06 -8.84661e+06 2.44047e+06 3.89258e+06
8 3 O 4.55118 1.31737 2.79288 -1.2 -7.36262 -52930.6 -4.92401e+06 -2.96696e+06 -2.96169e+06 -3.40587e+06 -998162
9 1 Mg -1.20682 0.0413099 4.4844 1.2 8.75809 -3.04747e+07 -9.32525e+07 -408371 -2.85121e+07 -1.23258e+06 -39069.8
10 2 Si -3.0337 2.72544 4.4844 2.4 -33.3312 1.47264e+07 7.57888e+06 7.46965e+06 1.61782e+06 65582.7 -757263
11 3 O -3.08099 1.11221 4.4844 -1.2 -9.47274 -6.40507e+06 -168362 -1.95488e+06 -1.21318e+06 -187996 426059
12 3 O 0.582463 3.69946 4.4844 -1.2 -8.87668 -3.42519e+06 -5.75814e+06 -2.56268e+06 -555005 -161294 -96400.5
13 3 O -2.29524 3.43162 3.18632 -1.2 -8.94421 -4.41825e+06 -2.80037e+06 -287842 1.09334e+06 -819941 -914382
14 3 O -2.34216 3.43162 5.78248 -1.2 -8.8007 -4.05013e+06 -3.48171e+06 -1.25449e+06 776435 527444 1.28796e+06
15 1 Mg 1.12778 2.37449 2.9896 1.2 -7.724 5.38396e+06 -1.39618e+06 -931999 -3.28197e+06 -4.18294e+06 -2.32668e+06
16 1 Mg 3.92855 2.33318 4.4844 1.2 -8.59046 -4.02698e+06 5.22501e+06 4.59311e+06 1.38529e+06 314098 392841
17 2 Si 2.09341 4.39804 4.4844 2.4 -32.5865 1.23253e+07 7.38394e+06 8.4252e+06 188228 -214076 597747
18 3 O 2.09991 6.01128 4.4844 -1.2 -9.36629 -4.20426e+06 -233010 -3.71548e+06 545382 -177726 -185653
19 3 O -4.52137 3.42402 4.4844 -1.2 -9.06603 -3.0484e+06 -3.21257e+06 -3.31199e+06 -2.42939e+06 -833860 76567.2
20 3 O 2.80834 3.69187 3.18632 -1.2 -9.20909 -2.2949e+06 -3.10763e+06 -164487 458299 -503038 -470087
21 1 Mg 1.17857 2.37449 0 1.2 -5.26108 -398977 -1.46277e+07 -6.62669e+06 6.51737e+06 1.20278e+06 4.51034e+06
22 3 O 2.76143 3.69187 5.78248 -1.2 -9.26565 -2.87631e+06 -2.78578e+06 -915924 534520 -10507.8 -37593.2
23 1 Mg -1.67381 2.41581 1.4948 1.2 -7.70771 1.77805e+06 7340.12 3.83035e+06 1.35454e+06 -590070 941343
24 2 Si 0.16286 0.350945 1.4948 2.4 -24.8331 -7.73167e+06 1.27184e+07 1.10983e+07 1.58846e+06 2.83801e+06 971164
25 3 O 0.15972 -1.26229 1.4948 -1.2 -4.60841 -1.09336e+07 -8.07781e+06 -2.88903e+07 -5.60446e+06 -8.53321e+06 -2.54081e+06
26 3 O 6.77654 1.32496 1.4948 -1.2 -10.2206 -5.9512e+06 1.58151e+06 -1.19923e+06 -642009 -641494 1.1693e+06
27 3 O -0.508028 1.05712 0.196716 -1.2 -9.39517 -123794 -4.82683e+06 -528585 -552649 199400 -4.45645e+06
28 3 O -0.552171 1.05712 2.79288 -1.2 -6.66565 -5.56428e+06 -4.78722e+06 -2.44532e+07 1.42383e+06 -6.78407e+06 -5.39467e+06
29 1 Mg 6.31713 4.74899 0 1.2 -5.08215 607753 -1.26355e+07 -6.38209e+06 -7.30684e+06 1.43113e+06 -3.61318e+06
30 1 Mg 3.54847 9.45668 1.4948 1.2 -8.51822 563437 1.89502e+06 4.26397e+06 -954496 -907010 -297260
31 2 Si 5.36879 6.77254 1.4948 2.4 -34.6172 7.79565e+06 1.25615e+07 1.10539e+07 1.67161e+06 170676 -1.84118e+06
32 3 O 5.41937 8.38578 1.4948 -1.2 -4.58151 -604024 -1.14358e+06 -3.50143e+07 763847 1.09085e+06 -4.28061e+06
33 3 O 1.75158 5.79852 1.4948 -1.2 -9.35223 -4.23202e+06 -2.62948e+06 -1.16729e+06 1.96992e+06 -1.59542e+06 -1.37824e+06
34 3 O 4.67421 6.06637 0.196716 -1.2 -3.61608 -98319.4 -1.0394e+07 -3.1194e+07 -2.00924e+06 1.28466e+06 -4.45613e+06
35 1 Mg 6.26654 4.74899 2.9896 1.2 -8.158 4.32017e+06 -1.37442e+06 -304917 1.8094e+06 -850514 1.9603e+06
36 3 O 4.63043 6.06637 2.79288 -1.2 -8.70191 -1.83497e+06 -4.23574e+06 -1.94474e+06 926490 -121986 -1.52548e+06
37 1 Mg -1.12976 4.79031 4.4844 1.2 -8.89588 -418956 3.0376e+06 2.50239e+06 -717769 -435045 -40701
38 2 Si -2.9517 7.47444 4.4844 2.4 -33.1981 1.17922e+07 9.25689e+06 8.29866e+06 46619.3 -39997.1 195203
39 3 O -3.00198 5.86121 4.4844 -1.2 -9.31041 -4.20604e+06 -410073 -3.48308e+06 48856 -221196 -65809.5
40 3 O 0.666315 8.44846 4.4844 -1.2 -9.09758 -3.71314e+06 -2.73497e+06 -3.05009e+06 2.14369e+06 -445645 -46782
41 3 O -2.21213 8.18062 3.18632 -1.2 -8.91336 -3.21808e+06 -3.54961e+06 -491141 1.10853e+06 -279817 -1.52436e+06
42 3 O -2.25864 8.18062 5.78248 -1.2 -8.77926 -3.19521e+06 -3.83036e+06 -1.62372e+06 1.06802e+06 -43774.4 1.21408e+06
43 1 Mg 1.20893 7.12349 2.9896 1.2 -8.15338 4.39538e+06 -1.406e+06 -376705 -1.29079e+06 -1.335e+06 -1.60318e+06
44 1 Mg 4.00982 7.08218 4.4844 1.2 -8.83216 -604342 2.75334e+06 2.92189e+06 1.03983e+06 -236011 218572
45 2 Si 2.17861 9.14704 4.4844 2.4 -33.2162 1.19192e+07 9.07263e+06 8.35408e+06 582562 18894.5 217232
46 3 O 2.18828 10.7603 4.4844 -1.2 -9.25817 -4.31774e+06 -212863 -3.76923e+06 461231 -226080 4257.57
47 3 O -4.43805 8.17302 4.4844 -1.2 -9.10897 -3.62739e+06 -2.77476e+06 -3.03649e+06 -1.54085e+06 -513760 -169163
48 3 O 2.89193 8.44087 3.18632 -1.2 -8.92629 -3.09129e+06 -3.72646e+06 -573971 -928604 -255626 1.2004e+06
49 1 Mg 1.25915 7.12349 0 1.2 -5.47848 1.22827e+06 -7.33949e+06 -6.55759e+06 5.89821e+06 1.36734e+06 2.62846e+06
50 3 O 2.84547 8.44087 5.78248 -1.2 -8.80509 -3.19486e+06 -3.92194e+06 -1.64388e+06 -917094 -224620 -1.33166e+06
51 1 Mg -1.59284 7.16481 1.4948 1.2 -8.41106 1.08867e+06 1.58666e+06 4.07442e+06 1.45522e+06 -930419 386820
52 2 Si 0.240329 5.09994 1.4948 2.4 -34.3427 8.76206e+06 1.14624e+07 1.07473e+07 -1.96791e+06 -1.07509e+06 1.97456e+06
53 3 O 0.234538 3.48671 1.4948 -1.2 -5.09494 -1.99463e+06 150173 -3.35273e+07 402065 5.18555e+06 3.99961e+06
54 3 O 6.85564 6.07396 1.4948 -1.2 -9.42997 -4.65548e+06 -2.07603e+06 -1.13399e+06 -1.34461e+06 -1.83066e+06 1.12341e+06
55 3 O -0.429565 5.80612 0.196716 -1.2 -3.87126 -922649 -9.02756e+06 -3.1284e+07 1.85162e+06 1.20814e+06 4.54637e+06
56 3 O -0.473377 5.80612 2.79288 -1.2 -8.79893 -2.38712e+06 -3.79848e+06 -1.77531e+06 -771577 323746 1.25547e+06
57 1 Mg 6.40169 9.49799 0 1.2 -5.45736 1.85604e+06 -6.25542e+06 -6.79224e+06 -5.49259e+06 1.00953e+06 -2.44748e+06
58 1 Mg 3.64209 14.2057 1.4948 1.2 -8.62208 539471 1.85553e+06 4.45288e+06 -1.0347e+06 -965619 -364578
59 2 Si 5.45748 11.5215 1.4948 2.4 -34.6746 8.19596e+06 1.19157e+07 1.13673e+07 899170 372782 -2.24561e+06
60 3 O 5.51101 13.1348 1.4948 -1.2 -4.5793 -847964 -949917 -3.47879e+07 465210 -2.55126e+06 -4.2639e+06
61 3 O 1.83851 10.5475 1.4948 -1.2 -9.38152 -4.5385e+06 -1.99569e+06 -1.17566e+06 1.53914e+06 -1.57977e+06 -1.0799e+06
62 3 O 4.7611 10.8154 0.196716 -1.2 -3.42917 271533 -1.16158e+07 -3.18642e+07 -2.47306e+06 -1.77931e+06 -4.25995e+06
63 1 Mg 6.35203 9.49799 2.9896 1.2 -8.16994 4.39869e+06 -1.49429e+06 -246696 1.3162e+06 -1.18116e+06 2.03744e+06
64 3 O 4.71833 10.8154 2.79288 -1.2 -8.6687 -2.14478e+06 -3.86142e+06 -2.07098e+06 1.0486e+06 3384.05 -1.28891e+06
65 1 Mg -1.0438 9.53931 4.4844 1.2 -8.87917 -527622 2.55611e+06 3.02969e+06 -578153 -358129 22198.2
66 2 Si -2.8604 12.2234 4.4844 2.4 -33.297 1.19486e+07 9.00359e+06 8.55313e+06 -12120.6 -102339 -136468
67 3 O -2.91391 10.6102 4.4844 -1.2 -9.24568 -4.23816e+06 -208146 -3.76224e+06 219131 -161025 -21282.5
68 3 O 0.7596 13.1975 4.4844 -1.2 -9.04515 -3.71751e+06 -2.73641e+06 -3.13588e+06 2.15556e+06 -454885 83167
69 3 O -2.12001 12.9296 3.18632 -1.2 -8.85885 -3.22297e+06 -3.52091e+06 -609497 1.14725e+06 -212104 -1.4476e+06
70 3 O -2.16532 12.9296 5.78248 -1.2 -8.7598 -3.23567e+06 -3.77018e+06 -1.60824e+06 1.07388e+06 -72162.1 1.44952e+06
71 1 Mg 1.29891 11.8725 2.9896 1.2 -8.20145 4.52992e+06 -1.48759e+06 -355903 -1.18536e+06 -1.2266e+06 -1.73166e+06
72 1 Mg 4.10033 11.8312 4.4844 1.2 -8.89725 -382887 2.55726e+06 3.00336e+06 1.11071e+06 -246124 -13787.5
73 2 Si 2.27333 13.896 4.4844 2.4 -33.2756 1.20536e+07 9.07781e+06 8.30308e+06 621321 -108564 -62664.2
74 3 O 2.28634 15.5093 4.4844 -1.2 -9.23154 -4.36324e+06 -232754 -3.75637e+06 465958 -141287 7419.61
75 3 O -4.34533 12.922 4.4844 -1.2 -9.07729 -3.75154e+06 -2.66507e+06 -3.07752e+06 -1.47933e+06 -497482 26162.5
76 3 O 2.98455 13.1899 3.18632 -1.2 -8.88441 -3.22202e+06 -3.62917e+06 -632230 -945861 -165633 1.36686e+06
77 1 Mg 1.34779 11.8725 0 1.2 -5.72157 3.13314e+06 -2.70454e+06 -6.80954e+06 3.56419e+06 789122 1.54386e+06
78 3 O 2.93934 13.1899 5.78248 -1.2 -8.79449 -3.32929e+06 -3.88091e+06 -1.51909e+06 -863439 -169558 -1.06589e+06
79 1 Mg -1.50344 11.9138 1.4948 1.2 -8.54368 844231 1.81284e+06 4.28895e+06 1.56238e+06 -956242 360315
80 2 Si 0.326006 9.84894 1.4948 2.4 -34.6062 8.24857e+06 1.20121e+07 1.10811e+07 -609677 82403.3 2.30022e+06
81 3 O 0.317364 8.23571 1.4948 -1.2 -4.58971 -749079 -1.0062e+06 -3.51233e+07 -121267 1.1905e+06 4.14184e+06
82 3 O 6.94307 10.823 1.4948 -1.2 -9.41512 -4.67182e+06 -1.81188e+06 -1.13126e+06 -984725 -1.53142e+06 1.07559e+06
83 3 O -0.343122 10.5551 0.196716 -1.2 -3.53238 -40697.9 -1.1078e+07 -3.18893e+07 2.466e+06 -2.03059e+06 4.51712e+06
84 3 O -0.385966 10.5551 2.79288 -1.2 -8.71207 -2.21623e+06 -3.91085e+06 -2.02716e+06 -857599 117278 1.12239e+06
85 1 Mg 6.49448 14.247 0 1.2 -5.71998 3.64068e+06 -1.96353e+06 -6.87574e+06 -2.96438e+06 268689 -1.60909e+06
86 1 Mg 3.74457 18.9547 1.4948 1.2 -8.74931 410499 1.88163e+06 4.68247e+06 -1.11979e+06 -971735 -262911
87 2 Si 5.55495 16.2705 1.4948 2.4 -34.748 8.62238e+06 1.14316e+07 1.15613e+07 525368 811011 -2.3608e+06
88 3 O 5.6115 17.8838 1.4948 -1.2 -4.84652 -1.95252e+06 -749920 -3.22243e+07 81243.6 -6.05946e+06 -4.12267e+06
89 3 O 1.93416 15.2965 1.4948 -1.2 -9.37054 -4.68737e+06 -1.58748e+06 -1.20316e+06 1.53694e+06 -1.36641e+06 -983492
90 3 O 4.85636 15.5644 0.196716 -1.2 -3.39089 189010 -1.32012e+07 -3.04244e+07 -3.03508e+06 -5.12971e+06 -3.67021e+06
91 1 Mg 6.44662 14.247 2.9896 1.2 -8.19279 4.55077e+06 -1.56103e+06 -296433 1.29491e+06 -1.18084e+06 1.95041e+06
92 3 O 4.81537 15.5644 2.79288 -1.2 -8.62033 -2.21711e+06 -3.82598e+06 -2.14474e+06 1.07075e+06 -37857.7 -1.25245e+06
93 1 Mg -0.948271 14.2883 4.4844 1.2 -8.91391 -560941 2.58228e+06 3.08359e+06 -544577 -300960 -62317.7
94 2 Si -2.75928 16.9724 4.4844 2.4 -33.3755 1.21043e+07 8.85039e+06 8.67806e+06 -48978.2 -129481 39062.8
95 3 O -2.81617 15.3592 4.4844 -1.2 -9.22805 -4.27598e+06 -226706 -3.73244e+06 281091 -159381 -14479.9
96 3 O 0.862762 17.9465 4.4844 -1.2 -8.98945 -3.79387e+06 -2.65649e+06 -3.23461e+06 2.15103e+06 -469896 26352.7
97 3 O -2.0185 17.6786 3.18632 -1.2 -8.8025 -3.29254e+06 -3.4254e+06 -745123 1.16282e+06 -136243 -1.49952e+06
98 3 O -2.06164 17.6786 5.78248 -1.2 -8.68966 -3.38167e+06 -3.61766e+06 -1.75393e+06 1.12659e+06 15077.8 1.36256e+06
99 1 Mg 1.39817 16.6215 2.9896 1.2 -8.23656 4.67295e+06 -1.56573e+06 -366666 -1.1611e+06 -1.23811e+06 -1.67776e+06
100 1 Mg 4.20062 16.5802 4.4844 1.2 -8.92076 -301834 2.52657e+06 2.99101e+06 1.14252e+06 -245654 94623.8
101 2 Si 2.37796 18.645 4.4844 2.4 -33.3937 1.21936e+07 8.83489e+06 8.59466e+06 732749 -82712.3 123491
102 3 O 2.39434 20.2583 4.4844 -1.2 -9.17236 -4.40188e+06 -117456 -3.93111e+06 482239 -166475 -44382.8
103 3 O -4.24274 17.671 4.4844 -1.2 -9.03272 -3.85965e+06 -2.53753e+06 -3.17153e+06 -1.40185e+06 -489404 -79116.6
104 3 O 3.08659 17.9389 3.18632 -1.2 -8.83011 -3.28608e+06 -3.53756e+06 -787118 -942159 -74028.4 1.28581e+06
105 1 Mg 1.44478 16.6215 0 1.2 -5.8928 4.8957e+06 150555 -6.7102e+06 1.39539e+06 -66317.2 832542
106 3 O 3.0436 17.9389 5.78248 -1.2 -8.72528 -3.38299e+06 -3.76464e+06 -1.71923e+06 -939581 -179682 -1.29026e+06
107 1 Mg -1.40524 16.6628 1.4948 1.2 -8.66943 738511 1.85435e+06 4.50697e+06 1.69151e+06 -969865 324163
108 2 Si 0.420358 14.5979 1.4948 2.4 -34.7071 8.48506e+06 1.16931e+07 1.13094e+07 -137064 542046 2.36632e+06
109 3 O 0.408732 12.9847 1.4948 -1.2 -4.57303 -898765 -934466 -3.4897e+07 227529 -2.54881e+06 4.31301e+06
110 3 O 7.03923 15.572 1.4948 -1.2 -9.40421 -4.80378e+06 -1.42841e+06 -1.15938e+06 -946925 -1.31421e+06 1.07091e+06
111 3 O -0.248332 15.3041 0.196716 -1.2 -3.50097 -161073 -1.27326e+07 -3.04197e+07 3.25711e+06 -5.41068e+06 4.07072e+06
112 3 O -0.289436 15.3041 2.79288 -1.2 -8.65605 -2.22146e+06 -3.9206e+06 -2.14559e+06 -856456 53344.7 1.11784e+06
113 1 Mg 6.59566 18.996 0 1.2 -5.90253 5.1302e+06 540246 -6.53333e+06 -913570 -666406 -931175
114 1 Mg 3.85574 23.7037 1.4948 1.2 -8.84762 158967 2.01577e+06 4.8175e+06 -1.18327e+06 -915786 -105773
115 2 Si 5.66125 21.0195 1.4948 2.4 -34.7478 9.20334e+06 1.08315e+07 1.1642e+07 181245 1.21073e+06 -2.27278e+06
116 3 O 5.72074 22.6328 1.4948 -1.2 -5.42317 -3.67256e+06 -575413 -2.74138e+07 -219947 -8.50094e+06 -3.75618e+06
117 3 O 2.03867 20.0455 1.4948 -1.2 -9.35088 -4.76808e+06 -1.21598e+06 -1.32286e+06 1.56932e+06 -1.15048e+06 -993181
118 3 O 4.96004 20.3134 0.196716 -1.2 -3.66466 -622253 -1.45165e+07 -2.66729e+07 -3.18394e+06 -7.94275e+06 -2.75204e+06
119 1 Mg 6.55057 18.996 2.9896 1.2 -8.22585 4.72585e+06 -1.70077e+06 -278259 1.29256e+06 -1.20791e+06 1.98865e+06
120 3 O 4.92172 20.3134 2.79288 -1.2 -8.56802 -2.27232e+06 -3.7468e+06 -2.28882e+06 1.08829e+06 -76387.9 -1.28611e+06
121 1 Mg -0.84282 19.0373 4.4844 1.2 -8.97148 -480151 2.46241e+06 3.20757e+06 -506303 -274951 -19599.6
122 2 Si -2.64823 21.7214 4.4844 2.4 -33.4046 1.22865e+07 8.79256e+06 8.60559e+06 -35036.4 -166889 124426
123 3 O -2.70847 20.1082 4.4844 -1.2 -9.18584 -4.39959e+06 -121643 -3.76929e+06 323862 -121649 -10866.6
124 3 O 0.97581 22.6955 4.4844 -1.2 -8.98028 -3.84711e+06 -2.6341e+06 -3.22292e+06 2.20601e+06 -516002 -19281.7
125 3 O -1.9076 22.4276 3.18632 -1.2 -8.77548 -3.31955e+06 -3.39976e+06 -823840 1.17389e+06 -49210.7 -1.57664e+06
126 3 O -1.9475 22.4276 5.78248 -1.2 -8.70543 -3.39065e+06 -3.66155e+06 -1.69577e+06 1.19571e+06 -33585.9 1.30334e+06
127 1 Mg 1.50678 21.3705 2.9896 1.2 -8.25854 4.8061e+06 -1.65899e+06 -371316 -1.15331e+06 -1.23704e+06 -1.59315e+06
128 1 Mg 4.31086 21.3292 4.4844 1.2 -8.96749 -312383 2.46149e+06 3.1437e+06 1.17398e+06 -290370 122447
129 2 Si 2.49243 23.394 4.4844 2.4 -33.4073 1.21479e+07 8.81469e+06 8.68301e+06 759645 -2598.44 214708
130 3 O 2.51204 25.0073 4.4844 -1.2 -9.1943 -4.39079e+06 -112885 -3.91355e+06 535458 -180159 -146828
131 3 O -4.13026 22.42 4.4844 -1.2 -9.02691 -3.92246e+06 -2.53355e+06 -3.12276e+06 -1.38628e+06 -400076 -161293
132 3 O 3.19799 22.6879 3.18632 -1.2 -8.79983 -3.26949e+06 -3.51078e+06 -935804 -931996 5993.16 1.21411e+06
133 1 Mg 1.5501 21.3705 0 1.2 -6.00389 5.84722e+06 1.59367e+06 -6.14877e+06 -70926.1 -977185 468676
134 3 O 3.1583 22.6879 5.78248 -1.2 -8.68126 -3.22883e+06 -3.79517e+06 -1.93343e+06 -969866 -187729 -1.3004e+06
135 1 Mg -1.29822 21.4118 1.4948 1.2 -8.78671 563333 1.93898e+06 4.68101e+06 1.80427e+06 -943452 319527
136 2 Si 0.523568 19.3469 1.4948 2.4 -34.7586 8.9681e+06 1.11262e+07 1.1504e+07 314212 991723 2.57622e+06
137 3 O 0.508934 17.7337 1.4948 -1.2 -4.83951 -1.99908e+06 -742412 -3.23312e+07 665500 -6.07705e+06 4.09796e+06
138 3 O 7.14425 20.321 1.4948 -1.2 -9.3904 -4.89932e+06 -1.07491e+06 -1.24834e+06 -935961 -1.06911e+06 999678
139 3 O -0.145107 20.0531 0.196716 -1.2 -3.77251 -1.00677e+06 -1.41843e+07 -2.66513e+07 3.67976e+06 -8.19739e+06 3.0806e+06
140 3 O -0.183601 20.0531 2.79288 -1.2 -8.60646 -2.28831e+06 -3.85477e+06 -2.27205e+06 -849890 -17470.3 1.03643e+06
141 1 Mg 6.70502 23.745 0 1.2 -6.02544 5.67941e+06 1.76766e+06 -5.72926e+06 416239 -1.50107e+06 -495050
142 1 Mg 3.97493 28.4527 1.4948 1.2 -8.90945 -189089 2.16548e+06 4.8823e+06 -1.22584e+06 -763255 67205.6
143 2 Si 5.77602 25.7685 1.4948 2.4 -34.6097 9.81649e+06 1.01988e+07 1.15278e+07 -103060 1.53693e+06 -1.9711e+06
144 3 O 5.83821 27.3818 1.4948 -1.2 -6.23505 -5.3853e+06 -401840 -2.13388e+07 -345015 -9.30237e+06 -3.26486e+06
145 3 O 2.15175 24.7945 1.4948 -1.2 -9.3628 -4.75283e+06 -987508 -1.41337e+06 1.61698e+06 -933677 -1.05665e+06
146 3 O 5.07184 25.0624 0.196716 -1.2 -4.28405 -1.90577e+06 -1.51406e+07 -2.11518e+07 -2.78645e+06 -9.42116e+06 -1.58008e+06
147 1 Mg 6.66374 23.745 2.9896 1.2 -8.21693 4.81609e+06 -1.73234e+06 -348261 1.31416e+06 -1.26526e+06 2.09434e+06
148 3 O 5.03707 25.0624 2.79288 -1.2 -8.56626 -2.27638e+06 -3.7386e+06 -2.33565e+06 1.07781e+06 -152221 -1.38901e+06
149 1 Mg -0.727559 23.7863 4.4844 1.2 -8.95795 -494636 2.48381e+06 3.17081e+06 -523457 -254490 108781
150 2 Si -2.5277 26.4704 4.4844 2.4 -33.3944 1.20986e+07 8.72819e+06 8.84149e+06 69413.7 -244053 628953
151 3 O -2.59107 24.8572 4.4844 -1.2 -9.19888 -4.35235e+06 -136138 -3.77967e+06 351779 -53572.4 -224921
152 3 O 1.09817 27.4445 4.4844 -1.2 -9.01364 -3.86666e+06 -2.56573e+06 -3.22261e+06 2.2881e+06 -405384 -222855
153 3 O -1.78784 27.1766 3.18632 -1.2 -8.76899 -3.22769e+06 -3.36084e+06 -1.02537e+06 1.1646e+06 54725.3 -1.75795e+06
154 3 O -1.82343 27.1766 5.78248 -1.2 -8.68845 -3.23016e+06 -3.58707e+06 -1.85654e+06 1.19256e+06 98228 927744
155 1 Mg 1.62435 26.1195 2.9896 1.2 -8.22876 4.88749e+06 -1.68935e+06 -466986 -1.1681e+06 -1.29572e+06 -1.42339e+06
156 1 Mg 4.43064 26.0782 4.4844 1.2 -8.94837 -345674 2.4176e+06 3.19188e+06 1.24107e+06 -200074 244837
157 2 Si 2.61607 28.143 4.4844 2.4 -33.3191 1.22252e+07 8.6368e+06 8.64243e+06 694710 -98078.6 513900
158 3 O 2.63853 29.7563 4.4844 -1.2 -9.2294 -4.42684e+06 16084.5 -3.95379e+06 577186 -89848.7 -291847
159 3 O -4.00841 27.169 4.4844 -1.2 -9.03629 -3.87183e+06 -2.46501e+06 -3.23592e+06 -1.4229e+06 -449341 -350200
160 3 O 3.3182 27.4369 3.18632 -1.2 -8.81309 -3.24612e+06 -3.48565e+06 -1.0397e+06 -899391 75704.9 1.07415e+06
161 1 Mg 1.66335 26.1195 0 1.2 -6.08148 5.69702e+06 2.18429e+06 -5.24567e+06 -895012 -1.57503e+06 379452
162 3 O 3.28288 27.4369 5.78248 -1.2 -8.76535 -3.26987e+06 -3.66715e+06 -1.83974e+06 -890658 -188092 -1.41326e+06
163 1 Mg -1.18278 26.1608 1.4948 1.2 -8.86692 238664 2.0926e+06 4.78837e+06 1.88312e+06 -848366 373738
164 2 Si 0.635424 24.0959 1.4948 2.4 -34.675 9.54411e+06 1.0558e+07 1.14298e+07 736665 1.37943e+06 2.7874e+06
165 3 O 0.617906 22.4827 1.4948 -1.2 -5.41647 -3.73246e+06 -561863 -2.7513e+07 1.0145e+06 -8.54537e+06 3.57777e+06
166 3 O 7.25781 25.07 1.4948 -1.2 -9.40323 -4.86716e+06 -853321 -1.36191e+06 -936781 -826992 870211
167 3 O -0.0337363 24.8021 0.196716 -1.2 -4.37552 -2.26236e+06 -1.50976e+07 -2.11032e+07 3.50529e+06 -9.64523e+06 1.71994e+06
168 3 O -0.0687235 24.8021 2.79288 -1.2 -8.60967 -2.30894e+06 -3.86895e+06 -2.28515e+06 -820668 -71428.5 865964
169 1 Mg 6.82195 28.494 0 1.2 -6.12538 5.18931e+06 2.20706e+06 -4.6389e+06 1.15263e+06 -1.82422e+06 -317724
170 1 Mg 4.10106 33.2017 1.4948 1.2 -8.949 -590917 2.32153e+06 4.85095e+06 -1.2094e+06 -523516 128383
171 2 Si 5.89839 30.5175 1.4948 2.4 -34.377 1.04821e+07 9.41605e+06 1.13551e+07 -330347 1.72393e+06 -1.71364e+06
172 3 O 5.96289 32.1308 1.4948 -1.2 -7.11931 -6.49152e+06 -238681 -1.5324e+07 -287694 -8.47291e+06 -2.65262e+06
173 3 O 2.27266 29.5435 1.4948 -1.2 -9.38722 -4.66137e+06 -814160 -1.5913e+06 1.66233e+06 -706634 -1.11502e+06
174 3 O 5.19102 29.8114 0.196716 -1.2 -5.1554 -3.22493e+06 -1.46443e+07 -1.51308e+07 -1.93207e+06 -9.29993e+06 -321116
175 1 Mg 6.78546 28.494 2.9896 1.2 -8.19122 4.82995e+06 -1.82111e+06 -309131 1.3289e+06 -1.28569e+06 2.20076e+06
176 3 O 5.16061 29.8114 2.79288 -1.2 -8.59241 -2.30954e+06 -3.66052e+06 -2.37991e+06 1.10998e+06 -261398 -1.44874e+06
177 1 Mg -0.603205 28.5353 4.4844 1.2 -8.96164 -578803 2.34706e+06 3.39001e+06 -483533 -310511 304822
178 2 Si -2.39877 31.2194 4.4844 2.4 -33.393 1.19822e+07 8.459e+06 9.22808e+06 100799 -213272 450043
179 3 O -2.46483 29.6062 4.4844 -1.2 -9.18231 -4.24681e+06 29120.5 -4.07491e+06 366744 -44942.3 -279468
180 3 O 1.22864 32.1935 4.4844 -1.2 -9.01839 -3.84605e+06 -2.4431e+06 -3.36601e+06 2.25619e+06 -336617 -186191
181 3 O -1.66032 31.9256 3.18632 -1.2 -8.77014 -3.13544e+06 -3.30951e+06 -1.24541e+06 1.14848e+06 110627 -1.70797e+06
182 3 O -1.69072 31.9256 5.78248 -1.2 -8.69081 -3.19586e+06 -3.44881e+06 -1.93231e+06 1.11207e+06 87723.7 1.18743e+06
183 1 Mg 1.7499 30.8685 2.9896 1.2 -8.19571 4.92221e+06 -1.77864e+06 -458832 -1.13846e+06 -1.40624e+06 -1.33189e+06
184 1 Mg 4.55894 30.8272 4.4844 1.2 -8.91849 -312360 2.26651e+06 3.26129e+06 1.1943e+06 -118089 308731
185 2 Si 2.7476 32.892 4.4844 2.4 -33.3015 1.21561e+07 8.42645e+06 8.89376e+06 777306 -156452 416003
186 3 O 2.77235 34.5053 4.4844 -1.2 -9.23533 -4.36663e+06 32585.3 -4.02278e+06 562908 -76681.2 -178534
187 3 O -3.87837 31.918 4.4844 -1.2 -9.06013 -3.88499e+06 -2.35158e+06 -3.30183e+06 -1.32077e+06 -423143 -259286
188 3 O 3.44611 32.1859 3.18632 -1.2 -8.82173 -3.17644e+06 -3.43358e+06 -1.2417e+06 -873351 161938 1.04213e+06
189 1 Mg 1.7837 30.8685 0 1.2 -6.16855 4.6661e+06 2.27219e+06 -4.22388e+06 -1.35257e+06 -1.5428e+06 528115
190 3 O 3.41602 32.1859 5.78248 -1.2 -8.77484 -3.28191e+06 -3.41908e+06 -1.98794e+06 -898494 -97994.1 -1.41387e+06
191 1 Mg -1.05984 30.9098 1.4948 1.2 -8.91932 -163106 2.22406e+06 4.84084e+06 1.91251e+06 -648342 331139
192 2 Si 0.755243 28.8449 1.4948 2.4 -34.4791 1.01634e+07 9.82806e+06 1.13113e+07 1.12971e+06 1.56128e+06 2.8816e+06
193 3 O 0.735127 27.2317 1.4948 -1.2 -6.23087 -5.46192e+06 -393429 -2.14143e+07 1.18117e+06 -9.30997e+06 2.85706e+06
194 3 O 7.37914 29.819 1.4948 -1.2 -9.42603 -4.75874e+06 -685980 -1.56869e+06 -937113 -621616 810069
195 3 O 0.0850649 29.5511 0.196716 -1.2 -5.21919 -3.48341e+06 -1.49957e+07 -1.50648e+07 2.69748e+06 -9.42076e+06 310268
196 3 O 0.0543974 29.5511 2.79288 -1.2 -8.6301 -2.3111e+06 -3.79496e+06 -2.37597e+06 -835339 -88510.5 729803
197 1 Mg 6.94543 33.243 0 1.2 -6.22418 4.05499e+06 2.24641e+06 -3.71208e+06 1.58814e+06 -1.43591e+06 -543725
198 1 Mg 4.23267 37.9507 1.4948 1.2 -8.97291 -932769 2.45851e+06 4.67965e+06 -1.12501e+06 -206332 85197.2
199 2 Si 6.02709 35.2665 1.4948 2.4 -34.1103 1.11263e+07 8.68933e+06 1.10604e+07 -416106 1.62267e+06 -1.60273e+06
200 3 O 6.09339 36.8798 1.4948 -1.2 -7.91405 -6.7215e+06 -138259 -1.04139e+07 -140137 -6.61399e+06 -2.06126e+06
201 3 O 2.40018 34.2925 1.4948 -1.2 -9.3994 -4.51697e+06 -764495 -1.81782e+06 1.69572e+06 -518073 -1.06755e+06
202 3 O 5.31645 34.5604 0.196716 -1.2 -6.11966 -4.19241e+06 -1.30211e+07 -9.80514e+06 -950130 -7.85753e+06 846522
203 1 Mg 6.91449 33.243 2.9896 1.2 -8.15141 4.85889e+06 -1.85345e+06 -361308 1.30648e+06 -1.36639e+06 2.12559e+06
204 3 O 5.291 34.5604 2.79288 -1.2 -8.62774 -2.35321e+06 -3.63069e+06 -2.34406e+06 1.13158e+06 -291462 -1.37983e+06
205 1 Mg -0.471101 33.2843 4.4844 1.2 -8.95305 -651058 2.30267e+06 3.4878e+06 -435634 -223994 198318
206 2 Si -2.26307 35.9684 4.4844 2.4 -33.3404 1.20194e+07 8.48967e+06 9.08313e+06 64365.1 -209007 246648
207 3 O -2.33122 34.3552 4.4844 -1.2 -9.2141 -4.25578e+06 29319.6 -4.00556e+06 415737 -45510.7 -158382
208 3 O 1.36549 36.9425 4.4844 -1.2 -9.03404 -3.8447e+06 -2.50577e+06 -3.27728e+06 2.26267e+06 -319499 -101023
209 3 O -1.52658 36.6746 3.18632 -1.2 -8.77625 -3.06663e+06 -3.34526e+06 -1.36118e+06 1.14921e+06 152238 -1.60582e+06
210 3 O -1.55122 36.6746 5.78248 -1.2 -8.72159 -3.18278e+06 -3.47565e+06 -1.82318e+06 1.1876e+06 59049 1.3439e+06
211 1 Mg 1.882 35.6175 2.9896 1.2 -8.16788 4.91157e+06 -1.76408e+06 -497168 -1.10878e+06 -1.48059e+06 -1.39134e+06
212 1 Mg 4.69415 35.5762 4.4844 1.2 -8.91486 -392297 2.28865e+06 3.31572e+06 1.21556e+06 -118610 213685
213 2 Si 2.88522 37.641 4.4844 2.4 -33.313 1.2028e+07 8.50374e+06 8.9698e+06 759387 -62230.2 262018
214 3 O 2.91159 39.2543 4.4844 -1.2 -9.22559 -4.3173e+06 10607.8 -4.05973e+06 623224 -59835.6 -59690.7
215 3 O -3.74183 36.667 4.4844 -1.2 -9.0809 -3.9252e+06 -2.36227e+06 -3.21174e+06 -1.2968e+06 -291313 -175588
216 3 O 3.58014 36.9349 3.18632 -1.2 -8.81766 -3.06312e+06 -3.47394e+06 -1.42269e+06 -856456 203310 1.10104e+06
217 1 Mg 1.90997 35.6175 0 1.2 -6.25957 3.35494e+06 2.14726e+06 -3.62062e+06 -1.66315e+06 -769040 918182
218 3 O 3.55582 36.9349 5.78248 -1.2 -8.74544 -3.11991e+06 -3.54383e+06 -2.05291e+06 -884371 -188976 -1.35255e+06
219 1 Mg -0.93068 35.6588 1.4948 1.2 -8.94625 -539520 2.37969e+06 4.71269e+06 1.85942e+06 -339359 206306
220 2 Si 0.881882 33.5939 1.4948 2.4 -34.2295 1.07743e+07 9.07647e+06 1.11232e+07 1.41249e+06 1.59457e+06 2.60846e+06
221 3 O 0.859602 31.9807 1.4948 -1.2 -7.11248 -6.55684e+06 -226412 -1.54248e+07 1.15799e+06 -8.45394e+06 2.23747e+06
222 3 O 7.507 34.568 1.4948 -1.2 -9.44199 -4.63432e+06 -655606 -1.76439e+06 -934411 -422017 884236
223 3 O 0.210186 34.3001 0.196716 -1.2 -6.14862 -4.32006e+06 -1.37405e+07 -9.75987e+06 1.53132e+06 -7.92093e+06 -815246
224 3 O 0.184454 34.3001 2.79288 -1.2 -8.66447 -2.34006e+06 -3.77052e+06 -2.36193e+06 -850432 -148618 770891
225 1 Mg 7.07415 37.992 0 1.2 -6.3199 2.85287e+06 2.07055e+06 -3.33005e+06 1.87604e+06 -424960 -1.20193e+06
226 1 Mg 4.36817 42.6997 1.4948 1.2 -8.96883 -1.12154e+06 2.5604e+06 4.37811e+06 -1.00227e+06 119896 42869.3
227 2 Si 6.16058 40.0155 1.4948 2.4 -33.8778 1.16699e+07 7.97603e+06 1.08649e+07 -361358 1.32949e+06 -1.53144e+06
228 3 O 6.22815 41.6288 1.4948 -1.2 -8.52722 -6.24832e+06 -66966.4 -7.06709e+06 28709.8 -4.52958e+06 -1.62123e+06
229 3 O 2.53282 39.0415 1.4948 -1.2 -9.38173 -4.38209e+06 -811829 -2.09348e+06 1.72222e+06 -355320 -990203
230 3 O 5.44674 39.3094 0.196716 -1.2 -7.00825 -4.63348e+06 -1.05664e+07 -5.95486e+06 -151485 -5.78303e+06 1.77212e+06
231 1 Mg 7.04922 37.992 2.9896 1.2 -8.12493 4.87706e+06 -1.84006e+06 -424298 1.30289e+06 -1.48912e+06 2.02769e+06
232 3 O 5.42658 39.3094 2.79288 -1.2 -8.65676 -2.44524e+06 -3.59159e+06 -2.27297e+06 1.12946e+06 -298891 -1.26765e+06
233 1 Mg -0.333062 38.0333 4.4844 1.2 -8.93607 -653856 2.35422e+06 3.40789e+06 -413180 -141592 116088
234 2 Si -2.12255 40.7174 4.4844 2.4 -33.3356 1.19818e+07 8.58095e+06 9.02529e+06 193239 -153832 182693
235 3 O -2.19212 39.1042 4.4844 -1.2 -9.22753 -4.26679e+06 -20262.2 -3.91631e+06 402960 -2431.85 -83571.5
236 3 O 1.50676 41.6915 4.4844 -1.2 -9.02685 -3.81896e+06 -2.59071e+06 -3.23313e+06 2.33359e+06 -193814 -47540.1
237 3 O -1.3884 41.4236 3.18632 -1.2 -8.7637 -2.97858e+06 -3.37809e+06 -1.54084e+06 1.12823e+06 136026 -1.54437e+06
238 3 O -1.40713 41.4236 5.78248 -1.2 -8.6961 -3.10774e+06 -3.51406e+06 -1.83193e+06 1.12888e+06 56622.9 1.28287e+06
239 1 Mg 2.01892 40.3665 2.9896 1.2 -8.15688 4.88819e+06 -1.7297e+06 -512609 -1.11298e+06 -1.58764e+06 -1.45902e+06
240 1 Mg 4.83434 40.3252 4.4844 1.2 -8.91275 -374948 2.31554e+06 3.26916e+06 1.24389e+06 -97809.7 37973.9
241 2 Si 3.02698 42.39 4.4844 2.4 -33.3061 1.20007e+07 8.71131e+06 8.77832e+06 666927 -235016 94840.8
242 3 O 3.05433 44.0033 4.4844 -1.2 -9.2168 -4.30515e+06 -64420.8 -4.01481e+06 627833 83780.6 -63434.4
243 3 O -3.60077 41.416 4.4844 -1.2 -9.09387 -3.97905e+06 -2.38716e+06 -3.11433e+06 -1.35502e+06 -272232 -79251.1
244 3 O 3.71851 41.6839 3.18632 -1.2 -8.81148 -3.00123e+06 -3.53249e+06 -1.54716e+06 -825070 247459 1.17249e+06
245 1 Mg 2.04077 40.3665 0 1.2 -6.33272 2.34374e+06 1.89804e+06 -3.66418e+06 -1.83668e+06 437948 1.61505e+06
246 3 O 3.70011 41.6839 5.78248 -1.2 -8.76829 -3.14261e+06 -3.6539e+06 -1.81342e+06 -803437 -118543 -1.15549e+06
247 1 Mg -0.796865 40.4078 1.4948 1.2 -8.95579 -798531 2.48362e+06 4.49143e+06 1.75188e+06 30622.3 117591
248 2 Si 1.01387 38.3429 1.4948 2.4 -33.988 1.13443e+07 8.3531e+06 1.0925e+07 1.52815e+06 1.45205e+06 2.18161e+06
249 3 O 0.989947 36.7297 1.4948 -1.2 -7.90622 -6.77529e+06 -132972 -1.05292e+07 1.03618e+06 -6.62608e+06 1.81442e+06
250 3 O 7.63988 39.317 1.4948 -1.2 -9.42496 -4.50625e+06 -713791 -2.03479e+06 -935241 -250462 996634
251 3 O 0.340253 39.0491 0.196716 -1.2 -7.01065 -4.67601e+06 -1.14895e+07 -5.93964e+06 389282 -5.8484e+06 -1.58959e+06
252 3 O 0.319795 39.0491 2.79288 -1.2 -8.69577 -2.41816e+06 -3.7558e+06 -2.28634e+06 -853241 -194048 812392
253 1 Mg 7.20667 42.741 0 1.2 -6.37433 1.99978e+06 1.85139e+06 -3.63428e+06 1.98911e+06 918258 -2.09271e+06
254 1 Mg 4.50613 47.4487 1.4948 1.2 -8.913 -1.18775e+06 2.69742e+06 4.01467e+06 -852118 421059 -63180.2
255 2 Si 6.29731 44.7645 1.4948 2.4 -33.6752 1.19995e+07 7.43132e+06 1.07322e+07 -245834 939261 -1.44842e+06
256 3 O 6.36567 46.3778 1.4948 -1.2 -8.9623 -5.41487e+06 -83998.2 -5.08509e+06 187655 -2.71173e+06 -1.28106e+06
257 3 O 2.669 43.7905 1.4948 -1.2 -9.34193 -4.24025e+06 -979777 -2.40125e+06 1.72241e+06 -186275 -941660
258 3 O 5.58048 44.0584 0.196716 -1.2 -7.73946 -4.52793e+06 -7.92237e+06 -3.56838e+06 323103 -3.72405e+06 2.37933e+06
259 1 Mg 7.1879 42.741 2.9896 1.2 -8.11293 4.87158e+06 -1.81693e+06 -447826 1.2967e+06 -1.54501e+06 1.95078e+06
260 3 O 5.56564 44.0584 2.79288 -1.2 -8.69189 -2.58923e+06 -3.55589e+06 -2.13406e+06 1.14558e+06 -298151 -1.19629e+06
261 1 Mg -0.19105 42.7823 4.4844 1.2 -8.96215 -715733 2.37658e+06 3.48694e+06 -392092 -100534 106392
262 2 Si -1.97909 45.4664 4.4844 2.4 -33.3605 1.19773e+07 8.56746e+06 9.08911e+06 71685.6 13624.1 -124571
263 3 O -2.04947 43.8532 4.4844 -1.2 -9.2118 -4.23482e+06 -18908 -3.96831e+06 419101 -87820.8 2260.34
264 3 O 1.65063 46.4405 4.4844 -1.2 -9.00189 -3.79338e+06 -2.55924e+06 -3.32827e+06 2.2663e+06 -158594 114885
265 3 O -1.24745 46.1726 3.18632 -1.2 -8.75859 -2.91061e+06 -3.40388e+06 -1.69323e+06 1.14528e+06 72659.9 -1.3644e+06
266 3 O -1.26044 46.1726 5.78248 -1.2 -8.66461 -3.15168e+06 -3.49912e+06 -1.80491e+06 1.23708e+06 -2931.28 1.59402e+06
267 1 Mg 2.15896 45.1155 2.9896 1.2 -8.15834 4.83169e+06 -1.70711e+06 -460600 -1.06273e+06 -1.72274e+06 -1.53464e+06
268 1 Mg 4.97763 45.0742 4.4844 1.2 -8.90127 -263433 2.33106e+06 3.12224e+06 1.21863e+06 -99502 39347.9
269 2 Si 3.1711 47.139 4.4844 2.4 -33.3518 1.18684e+07 8.63177e+06 9.06862e+06 836743 -253910 -207960