ITEM: TIMESTEP
40400
ITEM: NUMBER OF ATOMS
10500
ITEM: BOX BOUNDS xy xz yz pp pp pp
0.0000000000000000e+00 1.5297749999999999e+01 5.0992499999999996e+00
0.0000000000000000e+00 1.1872499999999999e+02 0.0000000000000000e+00
0.0000000000000000e+00 8.9688000000000002e+01 0.0000000000000000e+00
ITEM: ATOMS id type element xu yu zu q c_pe c_s[1] c_s[2] c_s[3] c_s[4] c_s[5] c_s[6]
1 1 Mg 6.2404 -6.37941e-06 0 1.2 -4.36442 7.79726e+06 -1.51713e+06 -6.54929e+06 -18232.7 2.59886e+06 -399126
2 1 Mg 3.46349 4.70768 1.4948 1.2 -8.49462 -321759 2.7144e+06 4.31336e+06 -939345 -645055 -66722.5
3 2 Si 5.2885 2.02354 1.4948 2.4 -35.1407 9.83739e+06 1.13491e+07 1.09077e+07 8.8479e+06 667537 -3.37037e+06
4 3 O 5.33628 3.63678 1.4948 -1.2 -4.73969 -797202 -1.52773e+06 -3.35788e+07 -326479 3.82824e+06 -3.72892e+06
5 3 O 1.67294 1.04952 1.4948 -1.2 -1.125 -2.01985e+07 -7.96307e+07 -1.86281e+06 -2.41318e+07 -123725 53823.8
6 3 O 4.59532 1.31737 0.196716 -1.2 -3.0765 -1.88844e+06 -6.94834e+06 -3.02122e+07 -6.02842e+06 6.25632e+06 -2.44699e+06
7 1 Mg 6.18956 -6.37941e-06 2.9896 1.2 -4.81244 1.37684e+06 -2.79484e+07 -3.25331e+06 -8.84577e+06 2.47336e+06 3.92346e+06
8 3 O 4.55118 1.31737 2.79288 -1.2 -7.59718 273488 -4.90414e+06 -2.93541e+06 -2.95389e+06 -3.3904e+06 -1.03745e+06
9 1 Mg -1.20682 0.0413099 4.4844 1.2 9.05573 -3.09968e+07 -9.32204e+07 -394636 -2.85206e+07 -1.20833e+06 58443.9
10 2 Si -3.0337 2.72544 4.4844 2.4 -32.9295 1.41535e+07 7.08343e+06 7.8966e+06 1.56351e+06 101494 -634595
11 3 O -3.08099 1.11221 4.4844 -1.2 -9.73882 -5.97163e+06 -94467.5 -2.02581e+06 -1.17916e+06 -261632 339527
12 3 O 0.582463 3.69946 4.4844 -1.2 -9.02072 -3.12119e+06 -5.45283e+06 -2.93156e+06 -564585 -212566 -176922
13 3 O -2.29524 3.43162 3.18632 -1.2 -9.11312 -4.16275e+06 -2.5375e+06 -532592 1.08769e+06 -847250 -893339
14 3 O -2.34216 3.43162 5.78248 -1.2 -8.97752 -3.81405e+06 -3.22675e+06 -1.43164e+06 742819 571490 1.16184e+06
15 1 Mg 1.12778 2.37449 2.9896 1.2 -7.53484 5.03633e+06 -1.51963e+06 -763993 -3.26667e+06 -4.18372e+06 -2.30665e+06
16 1 Mg 3.92855 2.33318 4.4844 1.2 -8.37349 -4.31958e+06 4.99473e+06 4.76957e+06 1.37953e+06 254691 571266
17 2 Si 2.09341 4.39804 4.4844 2.4 -32.3421 1.17528e+07 6.52572e+06 9.46978e+06 147907 -231841 622894
18 3 O 2.09991 6.01128 4.4844 -1.2 -9.47937 -3.92977e+06 255062 -4.28166e+06 580924 -132319 -27314.1
19 3 O -4.52137 3.42402 4.4844 -1.2 -9.24926 -2.84492e+06 -2.82097e+06 -3.60067e+06 -2.39308e+06 -808060 8666.83
20 3 O 2.80834 3.69187 3.18632 -1.2 -9.36567 -2.01977e+06 -2.81291e+06 -479103 461719 -471305 -455803
21 1 Mg 1.17857 2.37449 0 1.2 -5.11244 -642488 -1.46213e+07 -6.62763e+06 6.53101e+06 1.21737e+06 4.36365e+06
22 3 O 2.76143 3.69187 5.78248 -1.2 -9.36265 -2.57117e+06 -2.35088e+06 -1.53952e+06 538235 25235.3 -242276
23 1 Mg -1.67381 2.41581 1.4948 1.2 -7.5355 1.48996e+06 -65204.2 3.91506e+06 1.35308e+06 -572951 866902
24 2 Si 0.16286 0.350945 1.4948 2.4 -24.3853 -8.50959e+06 1.29845e+07 1.08928e+07 1.59006e+06 2.85354e+06 893593
25 3 O 0.15972 -1.26229 1.4948 -1.2 -4.86875 -1.04892e+07 -8.33749e+06 -2.8658e+07 -5.60047e+06 -8.54072e+06 -2.49108e+06
26 3 O 6.77654 1.32496 1.4948 -1.2 -10.425 -5.63553e+06 1.54809e+06 -1.15335e+06 -635612 -646631 1.22522e+06
27 3 O -0.508028 1.05712 0.196716 -1.2 -9.57652 197974 -4.94754e+06 -438598 -550408 184435 -4.34139e+06
28 3 O -0.552171 1.05712 2.79288 -1.2 -6.89446 -5.16057e+06 -4.79994e+06 -2.44765e+07 1.4193e+06 -6.79945e+06 -5.41155e+06
29 1 Mg 6.31713 4.74899 0 1.2 -4.98693 453415 -1.28307e+07 -6.18513e+06 -7.32058e+06 1.43658e+06 -3.81352e+06
30 1 Mg 3.54847 9.45668 1.4948 1.2 -8.42462 394027 1.62291e+06 4.55552e+06 -960334 -953088 -478419
31 2 Si 5.36879 6.77254 1.4948 2.4 -34.4083 7.52106e+06 1.18938e+07 1.16615e+07 1.64995e+06 135102 -2.27094e+06
32 3 O 5.41937 8.38578 1.4948 -1.2 -4.68241 -481126 -835829 -3.52832e+07 774862 1.11448e+06 -4.07074e+06
33 3 O 1.75158 5.79852 1.4948 -1.2 -9.45727 -4.0366e+06 -2.32789e+06 -1.49525e+06 1.96892e+06 -1.5775e+06 -1.20218e+06
34 3 O 4.67421 6.06637 0.196716 -1.2 -3.69381 29874.9 -1.01322e+07 -3.14586e+07 -2.00052e+06 1.30737e+06 -4.25056e+06
35 1 Mg 6.26654 4.74899 2.9896 1.2 -8.01134 4.14539e+06 -1.76477e+06 25319.5 1.80629e+06 -849891 1.847e+06
36 3 O 4.63043 6.06637 2.79288 -1.2 -8.83276 -1.66239e+06 -3.8243e+06 -2.317e+06 947421 -75778.9 -1.32583e+06
37 1 Mg -1.12976 4.79031 4.4844 1.2 -8.77114 -645047 2.58774e+06 2.97987e+06 -678052 -372085 -14683.3
38 2 Si -2.9517 7.47444 4.4844 2.4 -32.8318 1.15919e+07 8.15086e+06 9.0182e+06 104484 206990 -576478
39 3 O -3.00198 5.86121 4.4844 -1.2 -9.45651 -4.09614e+06 203986 -3.9637e+06 3862.45 -288774 106992
40 3 O 0.666315 8.44846 4.4844 -1.2 -9.2223 -3.30833e+06 -2.34915e+06 -3.63141e+06 2.08592e+06 -464214 235750
41 3 O -2.21213 8.18062 3.18632 -1.2 -9.05818 -3.04868e+06 -3.16472e+06 -811953 1.09494e+06 -379155 -1.23175e+06
42 3 O -2.25864 8.18062 5.78248 -1.2 -9.03572 -2.98216e+06 -3.2441e+06 -1.95855e+06 968159 -475063 1.78458e+06
43 1 Mg 1.20893 7.12349 2.9896 1.2 -8.04132 4.12971e+06 -1.78794e+06 91414.2 -1.28471e+06 -1.34823e+06 -1.81653e+06
44 1 Mg 4.00982 7.08218 4.4844 1.2 -8.67894 -838923 2.25551e+06 3.40889e+06 970633 -350954 -61763
45 2 Si 2.17861 9.14704 4.4844 2.4 -32.9362 1.1079e+07 8.41964e+06 9.3992e+06 627486 -150127 -307674
46 3 O 2.18828 10.7603 4.4844 -1.2 -9.40339 -3.85277e+06 12762.4 -4.22719e+06 385959 -184084 240593
47 3 O -4.43805 8.17302 4.4844 -1.2 -9.32651 -3.51781e+06 -2.31703e+06 -3.25164e+06 -1.48661e+06 -428514 217271
48 3 O 2.89193 8.44087 3.18632 -1.2 -9.05418 -2.81744e+06 -3.38583e+06 -982605 -918533 -173819 1.43996e+06
49 1 Mg 1.25915 7.12349 0 1.2 -5.41699 1.12496e+06 -7.59595e+06 -6.29633e+06 5.9006e+06 1.35203e+06 2.42783e+06
50 3 O 2.84547 8.44087 5.78248 -1.2 -8.96488 -2.71442e+06 -3.50058e+06 -2.28093e+06 -839844 -113344 -1.09293e+06
51 1 Mg -1.59284 7.16481 1.4948 1.2 -8.31221 938106 1.25972e+06 4.39358e+06 1.4675e+06 -884597 170514
52 2 Si 0.240329 5.09994 1.4948 2.4 -34.1141 8.35007e+06 1.09151e+07 1.13405e+07 -1.95046e+06 -1.04745e+06 1.67519e+06
53 3 O 0.234538 3.48671 1.4948 -1.2 -5.23975 -1.74029e+06 314216 -3.37131e+07 393655 5.17212e+06 4.0953e+06
54 3 O 6.85564 6.07396 1.4948 -1.2 -9.53945 -4.51079e+06 -1.74817e+06 -1.4306e+06 -1.34407e+06 -1.85032e+06 1.32368e+06
55 3 O -0.429565 5.80612 0.196716 -1.2 -3.95408 -793208 -8.79057e+06 -3.15174e+07 1.84332e+06 1.18551e+06 4.73632e+06
56 3 O -0.473377 5.80612 2.79288 -1.2 -8.91781 -2.15583e+06 -3.41387e+06 -2.19801e+06 -789904 284511 1.40838e+06
57 1 Mg 6.40169 9.49799 0 1.2 -5.40278 1.79503e+06 -6.50118e+06 -6.5729e+06 -5.48977e+06 1.01438e+06 -2.58752e+06
58 1 Mg 3.64209 14.2057 1.4948 1.2 -8.52606 352995 1.63228e+06 4.70877e+06 -1.02905e+06 -972099 -454376
59 2 Si 5.45748 11.5215 1.4948 2.4 -34.4703 7.94667e+06 1.14449e+07 1.17601e+07 889593 307349 -2.46948e+06
60 3 O 5.51101 13.1348 1.4948 -1.2 -4.68117 -717631 -719675 -3.49853e+07 465349 -2.51789e+06 -4.17873e+06
61 3 O 1.83851 10.5475 1.4948 -1.2 -9.47032 -4.33722e+06 -1.75169e+06 -1.47846e+06 1.53152e+06 -1.57537e+06 -912727
62 3 O 4.7611 10.8154 0.196716 -1.2 -3.49024 355977 -1.14009e+07 -3.2065e+07 -2.46405e+06 -1.76638e+06 -4.14958e+06
63 1 Mg 6.35203 9.49799 2.9896 1.2 -8.0105 4.27237e+06 -1.79892e+06 -71230.1 1.29548e+06 -1.18967e+06 1.80312e+06
64 3 O 4.71833 10.8154 2.79288 -1.2 -8.80911 -1.94894e+06 -3.60534e+06 -2.29945e+06 1.04821e+06 89190.5 -1.14262e+06
65 1 Mg -1.0438 9.53931 4.4844 1.2 -8.70392 -863047 2.22922e+06 3.41179e+06 -569959 -147653 -325164
66 2 Si -2.8604 12.2234 4.4844 2.4 -32.8635 1.16731e+07 8.39136e+06 8.74409e+06 -201333 -119142 -337568
67 3 O -2.91391 10.6102 4.4844 -1.2 -9.48814 -4.0989e+06 93401.5 -3.81465e+06 302916 -242510 180227
68 3 O 0.7596 13.1975 4.4844 -1.2 -9.20002 -3.40187e+06 -2.53206e+06 -3.40432e+06 2.12867e+06 -627904 226377
69 3 O -2.12001 12.9296 3.18632 -1.2 -9.01264 -3.07937e+06 -3.25375e+06 -774198 1.18256e+06 -228049 -1.34223e+06
70 3 O -2.16532 12.9296 5.78248 -1.2 -9.03115 -3.11805e+06 -3.46037e+06 -1.57536e+06 1.25259e+06 -40350.5 1.58299e+06
71 1 Mg 1.29891 11.8725 2.9896 1.2 -8.07843 4.23214e+06 -1.71579e+06 -26979.4 -1.15826e+06 -1.1816e+06 -1.89718e+06
72 1 Mg 4.10033 11.8312 4.4844 1.2 -8.7227 -735698 2.32874e+06 3.30384e+06 1.16466e+06 -412064 -95906
73 2 Si 2.27333 13.896 4.4844 2.4 -33.0348 1.12134e+07 8.58326e+06 9.25575e+06 695363 83025.1 -220091
74 3 O 2.28634 15.5093 4.4844 -1.2 -9.35462 -3.96559e+06 44523.5 -4.22926e+06 487883 -227312 134644
75 3 O -4.34533 12.922 4.4844 -1.2 -9.26193 -3.56684e+06 -2.33368e+06 -3.30122e+06 -1.45828e+06 -360129 52327.6
76 3 O 2.98455 13.1899 3.18632 -1.2 -9.00629 -2.91283e+06 -3.38358e+06 -991223 -975862 -151537 1.45762e+06
77 1 Mg 1.34779 11.8725 0 1.2 -5.67053 3.00618e+06 -2.88821e+06 -6.58065e+06 3.56298e+06 799292 1.4193e+06
78 3 O 2.93934 13.1899 5.78248 -1.2 -8.87791 -2.69974e+06 -3.73067e+06 -2.26236e+06 -986403 -157364 -1.10985e+06
79 1 Mg -1.50344 11.9138 1.4948 1.2 -8.44325 711661 1.58451e+06 4.48893e+06 1.55639e+06 -930941 227346
80 2 Si 0.326006 9.84894 1.4948 2.4 -34.4266 7.87789e+06 1.14831e+07 1.16931e+07 -590810 137557 1.9109e+06
81 3 O 0.317364 8.23571 1.4948 -1.2 -4.67984 -566956 -701937 -3.54647e+07 -132348 1.17031e+06 4.35673e+06
82 3 O 6.94307 10.823 1.4948 -1.2 -9.51927 -4.56584e+06 -1.56434e+06 -1.31811e+06 -976595 -1.53424e+06 1.21892e+06
83 3 O -0.343122 10.5551 0.196716 -1.2 -3.58909 62746.8 -1.08563e+07 -3.21233e+07 2.45638e+06 -2.04471e+06 4.66769e+06
84 3 O -0.385966 10.5551 2.79288 -1.2 -8.83965 -1.97601e+06 -3.64574e+06 -2.32702e+06 -860937 36831.9 1.34207e+06
85 1 Mg 6.49448 14.247 0 1.2 -5.64805 3.57819e+06 -2.14e+06 -6.752e+06 -2.95963e+06 248158 -1.704e+06
86 1 Mg 3.74457 18.9547 1.4948 1.2 -8.63034 214951 1.69217e+06 4.87681e+06 -1.11502e+06 -975603 -242772
87 2 Si 5.55495 16.2705 1.4948 2.4 -34.5275 8.32405e+06 1.09943e+07 1.19436e+07 545013 750475 -2.51437e+06
88 3 O 5.6115 17.8838 1.4948 -1.2 -4.96526 -1.79071e+06 -550958 -3.23946e+07 69723 -6.03168e+06 -4.09193e+06
89 3 O 1.93416 15.2965 1.4948 -1.2 -9.46807 -4.47954e+06 -1.37491e+06 -1.46706e+06 1.5402e+06 -1.39612e+06 -892937
90 3 O 4.85636 15.5644 0.196716 -1.2 -3.47027 287503 -1.30093e+07 -3.05874e+07 -3.04257e+06 -5.13147e+06 -3.58066e+06
91 1 Mg 6.44662 14.247 2.9896 1.2 -8.05323 4.40005e+06 -1.85219e+06 -78158.2 1.2929e+06 -1.24385e+06 1.87698e+06
92 3 O 4.81537 15.5644 2.79288 -1.2 -8.74787 -2.00013e+06 -3.56373e+06 -2.41908e+06 1.05865e+06 20590.3 -1.1554e+06
93 1 Mg -0.948271 14.2883 4.4844 1.2 -8.73263 -703484 2.29979e+06 3.21785e+06 -574986 -231662 -132381
94 2 Si -2.75928 16.9724 4.4844 2.4 -32.9844 1.17462e+07 8.29172e+06 8.97323e+06 17443.2 -148857 -205069
95 3 O -2.81617 15.3592 4.4844 -1.2 -9.40445 -4.1481e+06 131590 -3.93255e+06 256577 -96371 70338.1
96 3 O 0.862762 17.9465 4.4844 -1.2 -9.1768 -3.43446e+06 -2.51608e+06 -3.43324e+06 2.19649e+06 -562022 100019
97 3 O -2.0185 17.6786 3.18632 -1.2 -8.96683 -3.0956e+06 -3.22258e+06 -880414 1.15666e+06 -147684 -1.45178e+06
98 3 O -2.06164 17.6786 5.78248 -1.2 -8.94276 -3.09557e+06 -3.3586e+06 -2.01235e+06 1.0806e+06 -61633.3 1.5613e+06
99 1 Mg 1.39817 16.6215 2.9896 1.2 -8.10258 4.39904e+06 -1.78306e+06 -90027.8 -1.17984e+06 -1.18168e+06 -1.76683e+06
100 1 Mg 4.20062 16.5802 4.4844 1.2 -8.76854 -645221 2.27841e+06 3.33856e+06 1.15866e+06 -358343 -84528.2
101 2 Si 2.37796 18.645 4.4844 2.4 -33.0136 1.13409e+07 8.67196e+06 9.00034e+06 671794 -72315.4 26723.6
102 3 O 2.39434 20.2583 4.4844 -1.2 -9.36987 -4.02165e+06 898.102 -4.11328e+06 515021 -135824 -174867
103 3 O -4.24274 17.671 4.4844 -1.2 -9.23778 -3.621e+06 -2.35494e+06 -3.25987e+06 -1.43451e+06 -399775 41727.9
104 3 O 3.08659 17.9389 3.18632 -1.2 -8.97908 -2.97766e+06 -3.37393e+06 -1.02001e+06 -938158 -61963.8 1.34923e+06
105 1 Mg 1.44478 16.6215 0 1.2 -5.82226 4.73318e+06 -33332.3 -6.47684e+06 1.38617e+06 -38577.1 758047
106 3 O 3.0436 17.9389 5.78248 -1.2 -8.92936 -2.7786e+06 -3.73934e+06 -1.98954e+06 -918479 -120139 -1.02854e+06
107 1 Mg -1.40524 16.6628 1.4948 1.2 -8.55759 580538 1.64516e+06 4.69497e+06 1.68778e+06 -968928 259910
108 2 Si 0.420358 14.5979 1.4948 2.4 -34.5111 8.11863e+06 1.12686e+07 1.17864e+07 -147171 607784 2.17141e+06
109 3 O 0.408732 12.9847 1.4948 -1.2 -4.66731 -716010 -721581 -3.51413e+07 226426 -2.58227e+06 4.4334e+06
110 3 O 7.03923 15.572 1.4948 -1.2 -9.51372 -4.67731e+06 -1.2032e+06 -1.33539e+06 -951008 -1.28631e+06 1.15243e+06
111 3 O -0.248332 15.3041 0.196716 -1.2 -3.5719 -21107.1 -1.25544e+07 -3.06239e+07 3.26311e+06 -5.40735e+06 4.17029e+06
112 3 O -0.289436 15.3041 2.79288 -1.2 -8.78856 -2.03e+06 -3.67318e+06 -2.37115e+06 -844190 -1575.02 1.20225e+06
113 1 Mg 6.59566 18.996 0 1.2 -5.81051 5.0151e+06 315858 -6.34126e+06 -905575 -697972 -929967
114 1 Mg 3.85574 23.7037 1.4948 1.2 -8.75976 37843 1.6472e+06 5.16643e+06 -1.17685e+06 -916739 61965.9
115 2 Si 5.66125 21.0195 1.4948 2.4 -34.5102 8.87871e+06 1.03624e+07 1.2055e+07 201318 1.17301e+06 -2.00892e+06
116 3 O 5.72074 22.6328 1.4948 -1.2 -5.52701 -3.53357e+06 -269117 -2.76926e+07 -226577 -8.48764e+06 -3.93002e+06
117 3 O 2.03867 20.0455 1.4948 -1.2 -9.46812 -4.55455e+06 -1.01807e+06 -1.54655e+06 1.57656e+06 -1.16724e+06 -1.07514e+06
118 3 O 4.96004 20.3134 0.196716 -1.2 -3.76569 -499734 -1.42751e+07 -2.68749e+07 -3.19194e+06 -7.92989e+06 -2.82407e+06
119 1 Mg 6.55057 18.996 2.9896 1.2 -8.06166 4.51554e+06 -1.86414e+06 -167609 1.3077e+06 -1.23888e+06 2.02298e+06
120 3 O 4.92172 20.3134 2.79288 -1.2 -8.71802 -2.04599e+06 -3.56352e+06 -2.45699e+06 1.07098e+06 -46753 -1.40411e+06
121 1 Mg -0.84282 19.0373 4.4844 1.2 -8.7498 -795070 2.35682e+06 3.27173e+06 -508774 -190196 21557.7
122 2 Si -2.64823 21.7214 4.4844 2.4 -33.035 1.18453e+07 8.24689e+06 8.9976e+06 26054.4 -120625 766113
123 3 O -2.70847 20.1082 4.4844 -1.2 -9.41248 -4.1479e+06 12304.3 -3.7963e+06 308608 -128175 -193297
124 3 O 0.97581 22.6955 4.4844 -1.2 -9.1128 -3.53892e+06 -2.29636e+06 -3.66334e+06 2.22177e+06 -477046 -322609
125 3 O -1.9076 22.4276 3.18632 -1.2 -8.90166 -3.12766e+06 -3.08194e+06 -1.13374e+06 1.17606e+06 -75861.7 -1.83175e+06
126 3 O -1.9475 22.4276 5.78248 -1.2 -8.89986 -3.15549e+06 -3.21674e+06 -2.01646e+06 1.20027e+06 -139745 780095
127 1 Mg 1.50678 21.3705 2.9896 1.2 -8.11999 4.5437e+06 -1.87931e+06 -110586 -1.17122e+06 -1.23664e+06 -1.40458e+06
128 1 Mg 4.31086 21.3292 4.4844 1.2 -8.78269 -604609 2.24398e+06 3.35897e+06 1.1994e+06 -311821 324331
129 2 Si 2.49243 23.394 4.4844 2.4 -33.1724 1.17444e+07 8.02979e+06 9.49131e+06 770183 -166520 854731
130 3 O 2.51204 25.0073 4.4844 -1.2 -9.23419 -4.29499e+06 506151 -4.57048e+06 480507 -126873 -404622
131 3 O -4.13026 22.42 4.4844 -1.2 -9.18704 -3.72439e+06 -2.20722e+06 -3.38858e+06 -1.43177e+06 -409090 -440185
132 3 O 3.19799 22.6879 3.18632 -1.2 -8.92046 -3.07901e+06 -3.20121e+06 -1.24302e+06 -932592 31489.3 980254
133 1 Mg 1.5501 21.3705 0 1.2 -5.91226 5.67277e+06 1.34124e+06 -5.86876e+06 -76071.9 -944561 572844
134 3 O 3.1583 22.6879 5.78248 -1.2 -8.90226 -3.00949e+06 -3.50129e+06 -1.99602e+06 -898916 -97064.6 -1.61104e+06
135 1 Mg -1.29822 21.4118 1.4948 1.2 -8.67445 373644 1.69214e+06 4.93771e+06 1.80031e+06 -939029 473266
136 2 Si 0.523568 19.3469 1.4948 2.4 -34.5241 8.53408e+06 1.07497e+07 1.19389e+07 291276 1.03898e+06 2.67505e+06
137 3 O 0.508934 17.7337 1.4948 -1.2 -4.9517 -1.79147e+06 -551385 -3.255e+07 677128 -6.10451e+06 4.12876e+06
138 3 O 7.14425 20.321 1.4948 -1.2 -9.51191 -4.72899e+06 -860473 -1.43847e+06 -942484 -1.05274e+06 895722
139 3 O -0.145107 20.0531 0.196716 -1.2 -3.86346 -822927 -1.39638e+07 -2.69099e+07 3.68816e+06 -8.20684e+06 3.01821e+06
140 3 O -0.183601 20.0531 2.79288 -1.2 -8.75615 -2.0307e+06 -3.68359e+06 -2.46288e+06 -834854 -52261.7 917876
141 1 Mg 6.70502 23.745 0 1.2 -5.93752 5.55485e+06 1.42706e+06 -5.40493e+06 418284 -1.53458e+06 -383900
142 1 Mg 3.97493 28.4527 1.4948 1.2 -8.90584 -183516 1.54595e+06 5.49045e+06 -1.21619e+06 -761788 -15851.5
143 2 Si 5.77602 25.7685 1.4948 2.4 -34.5091 9.68176e+06 9.19389e+06 1.25063e+07 -102569 1.50278e+06 -1.8009e+06
144 3 O 5.83821 27.3818 1.4948 -1.2 -6.25478 -5.35411e+06 179704 -2.19197e+07 -346755 -9.28065e+06 -3.24671e+06
145 3 O 2.15175 24.7945 1.4948 -1.2 -9.4295 -4.64207e+06 -543435 -1.86169e+06 1.60977e+06 -947140 -1.18809e+06
146 3 O 5.07184 25.0624 0.196716 -1.2 -4.35905 -1.82459e+06 -1.47233e+07 -2.15304e+07 -2.79427e+06 -9.40708e+06 -1.65525e+06
147 1 Mg 6.66374 23.745 2.9896 1.2 -8.12431 4.69152e+06 -2.14625e+06 41849.7 1.31271e+06 -1.25698e+06 2.32822e+06
148 3 O 5.03707 25.0624 2.79288 -1.2 -8.62343 -2.20371e+06 -3.22642e+06 -2.82858e+06 1.07443e+06 -141223 -1.57269e+06
149 1 Mg -0.727559 23.7863 4.4844 1.2 -8.86836 -676633 1.97498e+06 3.71706e+06 -542812 -211587 392967
150 2 Si -2.5277 26.4704 4.4844 2.4 -33.4101 1.21507e+07 7.24674e+06 1.0299e+07 -61356.4 -307154 746352
151 3 O -2.59107 24.8572 4.4844 -1.2 -9.25073 -4.27944e+06 468287 -4.37005e+06 404043 -97719.1 -464722
152 3 O 1.09817 27.4445 4.4844 -1.2 -8.99295 -3.91767e+06 -1.83385e+06 -3.94438e+06 2.26984e+06 -475657 -132052
153 3 O -1.78784 27.1766 3.18632 -1.2 -8.77399 -3.23169e+06 -2.70983e+06 -1.66334e+06 1.18568e+06 72311 -1.74575e+06
154 3 O -1.82343 27.1766 5.78248 -1.2 -8.63703 -3.41505e+06 -2.7173e+06 -2.65288e+06 1.26404e+06 216413 1.11749e+06
155 1 Mg 1.62435 26.1195 2.9896 1.2 -8.20164 4.83497e+06 -2.29744e+06 150129 -1.14864e+06 -1.27912e+06 -1.34343e+06
156 1 Mg 4.43064 26.0782 4.4844 1.2 -8.94953 -340759 1.69914e+06 3.90739e+06 1.27011e+06 -222281 436042
157 2 Si 2.61607 28.143 4.4844 2.4 -33.4012 1.23117e+07 7.14712e+06 1.01733e+07 743892 27926.1 264172
158 3 O 2.63853 29.7563 4.4844 -1.2 -9.18971 -4.49693e+06 706321 -4.64607e+06 614467 -148893 -58600.3
159 3 O -4.00841 27.169 4.4844 -1.2 -9.00062 -3.90213e+06 -1.69592e+06 -4.02539e+06 -1.3881e+06 -399945 -363200
160 3 O 3.3182 27.4369 3.18632 -1.2 -8.80764 -3.24407e+06 -2.80835e+06 -1.72929e+06 -920580 59482.7 1.08947e+06
161 1 Mg 1.66335 26.1195 0 1.2 -6.02525 5.60473e+06 1.71593e+06 -4.77509e+06 -890763 -1.53623e+06 409262
162 3 O 3.28288 27.4369 5.78248 -1.2 -8.66436 -3.3657e+06 -2.83634e+06 -2.69039e+06 -989180 -206162 -1.33333e+06
163 1 Mg -1.18278 26.1608 1.4948 1.2 -8.82634 159112 1.57015e+06 5.32535e+06 1.87127e+06 -850222 423828
164 2 Si 0.635424 24.0959 1.4948 2.4 -34.5217 9.24917e+06 9.76025e+06 1.22767e+07 731533 1.40462e+06 3.09254e+06
165 3 O 0.617906 22.4827 1.4948 -1.2 -5.51631 -3.54286e+06 -265569 -2.78393e+07 1.02124e+06 -8.55824e+06 3.4065e+06
166 3 O 7.25781 25.07 1.4948 -1.2 -9.46527 -4.76942e+06 -393802 -1.81976e+06 -928957 -812231 753538
167 3 O -0.0337363 24.8021 0.196716 -1.2 -4.44389 -2.1133e+06 -1.4699e+07 -2.15418e+07 3.51356e+06 -9.65662e+06 1.63656e+06
168 3 O -0.0687235 24.8021 2.79288 -1.2 -8.66953 -2.19347e+06 -3.36136e+06 -2.81345e+06 -816849 -84821.4 703411
169 1 Mg 6.82195 28.494 0 1.2 -6.11212 5.1464e+06 1.64095e+06 -4.05111e+06 1.14544e+06 -1.85518e+06 -410018
170 1 Mg 4.10106 33.2017 1.4948 1.2 -9.00113 -457072 1.6157e+06 5.50647e+06 -1.2152e+06 -537980 8520.57
171 2 Si 5.89839 30.5175 1.4948 2.4 -34.4344 1.05538e+07 8.10953e+06 1.26819e+07 -301751 1.70466e+06 -2.01779e+06
172 3 O 5.96289 32.1308 1.4948 -1.2 -7.07137 -6.56369e+06 444360 -1.60114e+07 -304527 -8.47676e+06 -2.50426e+06
173 3 O 2.27266 29.5435 1.4948 -1.2 -9.37703 -4.69997e+06 -178645 -2.20494e+06 1.66664e+06 -721747 -990493
174 3 O 5.19102 29.8114 0.196716 -1.2 -5.14604 -3.24665e+06 -1.40206e+07 -1.57477e+07 -1.93997e+06 -9.27513e+06 -180848
175 1 Mg 6.78546 28.494 2.9896 1.2 -8.20937 4.84378e+06 -2.48098e+06 366022 1.33374e+06 -1.32165e+06 2.10993e+06
176 3 O 5.16061 29.8114 2.79288 -1.2 -8.56236 -2.34499e+06 -2.99306e+06 -3.05892e+06 1.09128e+06 -254962 -1.28733e+06
177 1 Mg -0.603205 28.5353 4.4844 1.2 -8.98012 -481819 1.67959e+06 3.98958e+06 -505925 -307844 162694
178 2 Si -2.39877 31.2194 4.4844 2.4 -33.506 1.20443e+07 7.25977e+06 1.05523e+07 261106 -183495 243832
179 3 O -2.46483 29.6062 4.4844 -1.2 -9.14093 -4.31849e+06 650920 -4.68142e+06 321886 1095.27 -130555
180 3 O 1.22864 32.1935 4.4844 -1.2 -8.9918 -3.90382e+06 -1.84932e+06 -3.94615e+06 2.34803e+06 -263834 -103775
181 3 O -1.66032 31.9256 3.18632 -1.2 -8.72043 -3.15495e+06 -2.67062e+06 -1.94138e+06 1.12097e+06 105211 -1.60781e+06
182 3 O -1.69072 31.9256 5.78248 -1.2 -8.58984 -3.1276e+06 -2.90875e+06 -2.80313e+06 1.03512e+06 31562.9 1.22127e+06
183 1 Mg 1.7499 30.8685 2.9896 1.2 -8.22372 4.99687e+06 -2.4281e+06 160775 -1.17865e+06 -1.40489e+06 -1.48875e+06
184 1 Mg 4.55894 30.8272 4.4844 1.2 -8.96585 -240938 1.61375e+06 3.91919e+06 1.21945e+06 -98242.6 42444.3
185 2 Si 2.7476 32.892 4.4844 2.4 -33.3233 1.24138e+07 7.17152e+06 9.92107e+06 557998 -323107 164784
186 3 O 2.77235 34.5053 4.4844 -1.2 -9.22369 -4.51445e+06 685466 -4.55688e+06 648873 101174 -133713
187 3 O -3.87837 31.918 4.4844 -1.2 -9.01086 -3.95933e+06 -1.73468e+06 -3.91501e+06 -1.42537e+06 -480127 -88969.8
188 3 O 3.44611 32.1859 3.18632 -1.2 -8.79002 -3.29101e+06 -2.77513e+06 -1.83837e+06 -840672 170851 1.21373e+06
189 1 Mg 1.7837 30.8685 0 1.2 -6.19296 4.74315e+06 1.62195e+06 -3.61151e+06 -1.35669e+06 -1.53193e+06 386650
190 3 O 3.41602 32.1859 5.78248 -1.2 -8.80183 -3.40785e+06 -2.84789e+06 -2.30737e+06 -740698 -106761 -1.16116e+06
191 1 Mg -1.05984 30.9098 1.4948 1.2 -8.95333 -133532 1.57992e+06 5.50992e+06 1.9109e+06 -644186 203553
192 2 Si 0.755243 28.8449 1.4948 2.4 -34.4811 1.0183e+07 8.60318e+06 1.25198e+07 1.11478e+06 1.60049e+06 2.7003e+06
193 3 O 0.735127 27.2317 1.4948 -1.2 -6.25429 -5.42269e+06 177310 -2.1987e+07 1.18288e+06 -9.33189e+06 2.86839e+06
194 3 O 7.37914 29.819 1.4948 -1.2 -9.40594 -4.76705e+06 -55330.9 -2.22277e+06 -943543 -608931 935164
195 3 O 0.0850649 29.5511 0.196716 -1.2 -5.21377 -3.48533e+06 -1.43999e+07 -1.56676e+07 2.70511e+06 -9.44585e+06 415599
196 3 O 0.0543974 29.5511 2.79288 -1.2 -8.61175 -2.35458e+06 -3.15636e+06 -3.00102e+06 -816487 -95118.8 850382
197 1 Mg 6.94543 33.243 0 1.2 -6.30482 4.13567e+06 1.51993e+06 -2.93711e+06 1.59971e+06 -1.44027e+06 -661713
198 1 Mg 4.23267 37.9507 1.4948 1.2 -9.03668 -778780 1.78343e+06 5.30291e+06 -1.13283e+06 -247162 209230
199 2 Si 6.02709 35.2665 1.4948 2.4 -34.2516 1.13835e+07 7.24403e+06 1.24749e+07 -415557 1.6594e+06 -1.6562e+06
200 3 O 6.09339 36.8798 1.4948 -1.2 -7.84281 -6.85584e+06 564983 -1.10972e+07 -126139 -6.62878e+06 -2.11993e+06
201 3 O 2.40018 34.2925 1.4948 -1.2 -9.3375 -4.65824e+06 -45329.1 -2.49531e+06 1.71054e+06 -484417 -1.01161e+06
202 3 O 5.31645 34.5604 0.196716 -1.2 -6.03234 -4.34707e+06 -1.2267e+07 -1.05442e+07 -954310 -7.82569e+06 895035
203 1 Mg 6.91449 33.243 2.9896 1.2 -8.20483 4.9174e+06 -2.52209e+06 334488 1.34882e+06 -1.30426e+06 2.0186e+06
204 3 O 5.291 34.5604 2.79288 -1.2 -8.58436 -2.50276e+06 -2.93995e+06 -2.95583e+06 1.13205e+06 -330584 -1.30373e+06
205 1 Mg -0.471101 33.2843 4.4844 1.2 -9.0183 -693943 1.70819e+06 4.22947e+06 -419589 -265629 192346
206 2 Si -2.26307 35.9684 4.4844 2.4 -33.4798 1.19449e+07 7.124e+06 1.07512e+07 143087 161254 204626
207 3 O -2.33122 34.3552 4.4844 -1.2 -9.14257 -4.22082e+06 663091 -4.77941e+06 338480 -176804 -147266
208 3 O 1.36549 36.9425 4.4844 -1.2 -8.96888 -3.79572e+06 -1.86662e+06 -4.07939e+06 2.19682e+06 -138632 -166397
209 3 O -1.52658 36.6746 3.18632 -1.2 -8.70934 -3.06876e+06 -2.65854e+06 -2.15216e+06 1.13386e+06 73858.8 -1.61509e+06
210 3 O -1.55122 36.6746 5.78248 -1.2 -8.58301 -2.99866e+06 -2.78443e+06 -3.03225e+06 1.10476e+06 -154263 1.45251e+06
211 1 Mg 1.882 35.6175 2.9896 1.2 -8.22134 4.99513e+06 -2.44858e+06 189359 -1.11733e+06 -1.58361e+06 -1.37569e+06
212 1 Mg 4.69415 35.5762 4.4844 1.2 -8.90059 -122687 1.61412e+06 3.69633e+06 1.17204e+06 -76776.1 175395
213 2 Si 2.88522 37.641 4.4844 2.4 -33.3552 1.22143e+07 7.24374e+06 1.01031e+07 827171 -518813 543214
214 3 O 2.91159 39.2543 4.4844 -1.2 -9.18594 -4.33296e+06 630555 -4.7444e+06 534774 107949 -242538
215 3 O -3.74183 36.667 4.4844 -1.2 -9.06707 -4.05551e+06 -1.69369e+06 -3.77396e+06 -1.25016e+06 -500686 -157118
216 3 O 3.58014 36.9349 3.18632 -1.2 -8.78379 -3.22377e+06 -2.80717e+06 -1.98885e+06 -843057 293743 1.02813e+06
217 1 Mg 1.90997 35.6175 0 1.2 -6.35437 3.55857e+06 1.38014e+06 -2.90522e+06 -1.66435e+06 -764455 946969
218 3 O 3.55582 36.9349 5.78248 -1.2 -8.82943 -3.43931e+06 -2.89361e+06 -2.14805e+06 -819253 128122 -1.5011e+06
219 1 Mg -0.93068 35.6588 1.4948 1.2 -9.02827 -472450 1.65375e+06 5.50295e+06 1.86907e+06 -310378 212107
220 2 Si 0.881882 33.5939 1.4948 2.4 -34.3536 1.09624e+07 7.66107e+06 1.25493e+07 1.38868e+06 1.56928e+06 2.45545e+06
221 3 O 0.859602 31.9807 1.4948 -1.2 -7.06903 -6.63222e+06 446138 -1.60917e+07 1.17452e+06 -8.45115e+06 2.36184e+06
222 3 O 7.507 34.568 1.4948 -1.2 -9.36737 -4.71064e+06 65475.3 -2.52826e+06 -947372 -457288 938519
223 3 O 0.210186 34.3001 0.196716 -1.2 -6.0606 -4.4465e+06 -1.29866e+07 -1.05279e+07 1.53664e+06 -7.95153e+06 -761994
224 3 O 0.184454 34.3001 2.79288 -1.2 -8.6011 -2.36981e+06 -3.08761e+06 -3.11663e+06 -849876 -115421 797555
225 1 Mg 7.07415 37.992 0 1.2 -6.42566 2.97664e+06 1.38267e+06 -2.5965e+06 1.86134e+06 -424082 -1.04448e+06
226 1 Mg 4.36817 42.6997 1.4948 1.2 -8.98601 -1.10869e+06 2.13986e+06 4.81333e+06 -998810 101756 298635
227 2 Si 6.16058 40.0155 1.4948 2.4 -33.9768 1.18536e+07 6.81063e+06 1.20054e+07 -411939 1.31302e+06 -1.14551e+06
228 3 O 6.22815 41.6288 1.4948 -1.2 -8.49766 -6.29806e+06 418010 -7.54998e+06 46919.6 -4.51371e+06 -1.85862e+06
229 3 O 2.53282 39.0415 1.4948 -1.2 -9.32049 -4.49176e+06 -175332 -2.71903e+06 1.70187e+06 -320969 -1.1496e+06
230 3 O 5.44674 39.3094 0.196716 -1.2 -6.92514 -4.7676e+06 -9.94136e+06 -6.57834e+06 -132584 -5.74725e+06 1.56339e+06
231 1 Mg 7.04922 37.992 2.9896 1.2 -8.16701 4.96487e+06 -2.49417e+06 209418 1.26318e+06 -1.40457e+06 2.09169e+06
232 3 O 5.42658 39.3094 2.79288 -1.2 -8.62648 -2.56236e+06 -2.97322e+06 -2.82579e+06 1.16384e+06 -284349 -1.42395e+06
233 1 Mg -0.333062 38.0333 4.4844 1.2 -9.00631 -734480 1.71622e+06 4.2385e+06 -351183 -99509.6 91115.5
234 2 Si -2.12255 40.7174 4.4844 2.4 -33.3125 1.20685e+07 7.47632e+06 1.00044e+07 -14991.6 -110324 221910
235 3 O -2.19212 39.1042 4.4844 -1.2 -9.20843 -4.28527e+06 597836 -4.54765e+06 497564 -120045 -102393
236 3 O 1.50676 41.6915 4.4844 -1.2 -9.01237 -3.73198e+06 -2.11396e+06 -3.82948e+06 2.26704e+06 -302074 -60663.2
237 3 O -1.3884 41.4236 3.18632 -1.2 -8.76164 -3.01806e+06 -2.89428e+06 -1.99097e+06 1.16223e+06 106830 -1.65144e+06
238 3 O -1.40713 41.4236 5.78248 -1.2 -8.7681 -3.22167e+06 -3.00941e+06 -2.08644e+06 1.25175e+06 54864.5 1.43814e+06
239 1 Mg 2.01892 40.3665 2.9896 1.2 -8.19349 4.89365e+06 -2.3014e+06 112284 -1.05917e+06 -1.60296e+06 -1.32707e+06
240 1 Mg 4.83434 40.3252 4.4844 1.2 -8.91189 -258032 1.69114e+06 3.77359e+06 1.22236e+06 -180320 243111
241 2 Si 3.02698 42.39 4.4844 2.4 -33.3059 1.17655e+07 7.82414e+06 9.89807e+06 846266 -239685 219321
242 3 O 3.05433 44.0033 4.4844 -1.2 -9.27193 -4.15435e+06 196273 -4.34409e+06 587027 22131.7 -157215
243 3 O -3.60077 41.416 4.4844 -1.2 -9.11374 -4.00023e+06 -1.87113e+06 -3.58621e+06 -1.26032e+06 -221056 -204859
244 3 O 3.71851 41.6839 3.18632 -1.2 -8.79878 -2.99083e+06 -3.03156e+06 -2.08255e+06 -862960 287014 1.00718e+06
245 1 Mg 2.04077 40.3665 0 1.2 -6.4013 2.48377e+06 1.3298e+06 -3.1261e+06 -1.8167e+06 431596 1.85277e+06
246 3 O 3.70011 41.6839 5.78248 -1.2 -8.72383 -3.10468e+06 -3.09443e+06 -2.4583e+06 -1.00672e+06 107599 -1.22913e+06
247 1 Mg -0.796865 40.4078 1.4948 1.2 -9.00365 -732614 1.92861e+06 5.05717e+06 1.75287e+06 67321.7 293055
248 2 Si 1.01387 38.3429 1.4948 2.4 -34.1295 1.15289e+07 7.02215e+06 1.2298e+07 1.57592e+06 1.44801e+06 2.42955e+06
249 3 O 0.989947 36.7297 1.4948 -1.2 -7.82881 -6.87826e+06 579685 -1.12631e+07 1.02318e+06 -6.61264e+06 1.75178e+06
250 3 O 7.63988 39.317 1.4948 -1.2 -9.36513 -4.59048e+06 -97825.7 -2.66262e+06 -913878 -281066 841630
251 3 O 0.340253 39.0491 0.196716 -1.2 -6.92446 -4.81117e+06 -1.08458e+07 -6.58583e+06 370927 -5.88526e+06 -1.78521e+06
252 3 O 0.319795 39.0491 2.79288 -1.2 -8.64226 -2.43795e+06 -3.13132e+06 -2.97837e+06 -889640 -213748 727469
253 1 Mg 7.20667 42.741 0 1.2 -6.41214 2.04937e+06 1.4375e+06 -3.20942e+06 1.98055e+06 926627 -1.76517e+06
254 1 Mg 4.50613 47.4487 1.4948 1.2 -8.90099 -1.21893e+06 2.44224e+06 4.28178e+06 -854300 433048 446931
255 2 Si 6.29731 44.7645 1.4948 2.4 -33.6594 1.19564e+07 6.83045e+06 1.1351e+07 -240210 919685 -744671
256 3 O 6.36567 46.3778 1.4948 -1.2 -8.97749 -5.38417e+06 174103 -5.35018e+06 181355 -2.71005e+06 -1.72488e+06
257 3 O 2.669 43.7905 1.4948 -1.2 -9.33946 -4.23131e+06 -633604 -2.76059e+06 1.71728e+06 -192879 -1.21847e+06
258 3 O 5.58048 44.0584 0.196716 -1.2 -7.72043 -4.54403e+06 -7.56685e+06 -3.93796e+06 332173 -3.72423e+06 2.02519e+06
259 1 Mg 7.1879 42.741 2.9896 1.2 -8.09767 4.8699e+06 -2.21245e+06 -75110.4 1.27017e+06 -1.58339e+06 2.15421e+06
260 3 O 5.56564 44.0584 2.79288 -1.2 -8.71464 -2.52268e+06 -3.24237e+06 -2.47942e+06 1.13228e+06 -274776 -1.46204e+06
261 1 Mg -0.19105 42.7823 4.4844 1.2 -8.90473 -700903 2.02876e+06 3.72694e+06 -432763 -5951.53 152955
262 2 Si -1.97909 45.4664 4.4844 2.4 -33.1591 1.17716e+07 8.2314e+06 9.30367e+06 108033 -190626 602800
263 3 O -2.04947 43.8532 4.4844 -1.2 -9.29358 -4.20212e+06 244789 -4.14528e+06 454298 19212.2 -194441
264 3 O 1.65063 46.4405 4.4844 -1.2 -9.11209 -3.65596e+06 -2.46834e+06 -3.38531e+06 2.31075e+06 -173090 -296971
265 3 O -1.24745 46.1726 3.18632 -1.2 -8.81574 -2.8505e+06 -3.20943e+06 -1.85972e+06 1.14353e+06 102288 -1.79614e+06
266 3 O -1.26044 46.1726 5.78248 -1.2 -8.84383 -3.05365e+06 -3.37897e+06 -1.72468e+06 1.2263e+06 93895.8 1.07642e+06
267 1 Mg 2.15896 45.1155 2.9896 1.2 -8.11397 4.75767e+06 -1.92743e+06 -237359 -1.07314e+06 -1.68997e+06 -1.23957e+06
268 1 Mg 4.97763 45.0742 4.4844 1.2 -8.82969 -485123 2.13347e+06 3.42703e+06 1.26897e+06 -69514.2 272951
269 2 Si 3.1711 47.139 4.4844 2.4 -33.1427 1.15633e+07 8.4601e+06 9.20789e+06 745155 -163769 747217
270 3 O 3.19894 48.7523 4.4844 -1.2 -9.30095 -4.09403e+06 64885.7 -4.22043e+06 618380 55327.2 -463895