ITEM: TIMESTEP
78300
ITEM: NUMBER OF ATOMS
10500
ITEM: BOX BOUNDS xy xz yz pp pp pp
0.0000000000000000e+00 1.5297749999999999e+01 5.0992499999999996e+00
0.0000000000000000e+00 1.1872499999999999e+02 0.0000000000000000e+00
0.0000000000000000e+00 8.9688000000000002e+01 0.0000000000000000e+00
ITEM: ATOMS id type element xu yu zu q c_pe c_s[1] c_s[2] c_s[3] c_s[4] c_s[5] c_s[6]
1 1 Mg 6.2404 -6.37941e-06 0 1.2 -4.46947 7.95918e+06 -2.05531e+06 -6.00473e+06 -32091.3 2.56611e+06 -1.15987e+06
2 1 Mg 3.46349 4.70768 1.4948 1.2 -8.57106 -247741 2.63953e+06 4.4367e+06 -954234 -657428 -580499
3 2 Si 5.2885 2.02354 1.4948 2.4 -35.3873 1.01922e+07 1.07411e+07 1.15559e+07 8.82714e+06 596207 -4.98507e+06
4 3 O 5.33628 3.63678 1.4948 -1.2 -4.64953 -939107 -1.36729e+06 -3.37416e+07 -311872 3.87454e+06 -3.06878e+06
5 3 O 1.67294 1.04952 1.4948 -1.2 -0.987964 -2.0417e+07 -7.92478e+07 -2.24602e+06 -2.41294e+07 -171978 885276
6 3 O 4.59532 1.31737 0.196716 -1.2 -2.9613 -2.06606e+06 -6.49202e+06 -3.06747e+07 -6.01634e+06 6.27003e+06 -1.6965e+06
7 1 Mg 6.18956 -6.37941e-06 2.9896 1.2 -5.03193 1.69419e+06 -2.8376e+07 -2.79137e+06 -8.85664e+06 2.3669e+06 2.99152e+06
8 3 O 4.55118 1.31737 2.79288 -1.2 -7.42652 94002.1 -4.63292e+06 -3.29824e+06 -2.933e+06 -3.36983e+06 -99491.7
9 1 Mg -1.20682 0.0413099 4.4844 1.2 8.82802 -3.04454e+07 -9.34841e+07 -317161 -2.84805e+07 -1.23891e+06 -894918
10 2 Si -3.0337 2.72544 4.4844 2.4 -33.0714 1.47001e+07 6.92412e+06 7.74467e+06 1.71322e+06 62023.7 -2.43974e+06
11 3 O -3.08099 1.11221 4.4844 -1.2 -9.55195 -6.39119e+06 127340 -2.11e+06 -1.27793e+06 -97763.9 1.30307e+06
12 3 O 0.582463 3.69946 4.4844 -1.2 -8.98476 -3.15029e+06 -5.54476e+06 -2.86755e+06 -666528 -246725 461054
13 3 O -2.29524 3.43162 3.18632 -1.2 -9.05368 -4.36383e+06 -2.4549e+06 -506415 1.05334e+06 -850519 -120715
14 3 O -2.34216 3.43162 5.78248 -1.2 -9.01557 -4.01286e+06 -3.096e+06 -1.42584e+06 645867 268480 2.12911e+06
15 1 Mg 1.12778 2.37449 2.9896 1.2 -7.64994 5.22669e+06 -1.658e+06 -631510 -3.27253e+06 -4.13176e+06 -3.11109e+06
16 1 Mg 3.92855 2.33318 4.4844 1.2 -8.5187 -4.30209e+06 5.12284e+06 4.85716e+06 1.28359e+06 295528 -416030
17 2 Si 2.09341 4.39804 4.4844 2.4 -32.4082 1.15351e+07 6.97504e+06 9.33943e+06 181005 -143405 -263870
18 3 O 2.09991 6.01128 4.4844 -1.2 -9.44723 -3.67838e+06 97845 -4.43429e+06 550864 -217937 275471
19 3 O -4.52137 3.42402 4.4844 -1.2 -9.20937 -2.92743e+06 -2.96861e+06 -3.42745e+06 -2.33302e+06 -676919 834772
20 3 O 2.80834 3.69187 3.18632 -1.2 -9.28672 -2.04484e+06 -2.85988e+06 -534402 497752 -488611 199898
21 1 Mg 1.17857 2.37449 0 1.2 -5.22611 -470119 -1.50049e+07 -6.23429e+06 6.52947e+06 1.24952e+06 3.68775e+06
22 3 O 2.76143 3.69187 5.78248 -1.2 -9.38244 -2.39458e+06 -2.87171e+06 -1.07715e+06 688385 -86091.5 150209
23 1 Mg -1.67381 2.41581 1.4948 1.2 -7.64367 1.69987e+06 -346850 4.16013e+06 1.3727e+06 -579664 99624.2
24 2 Si 0.16286 0.350945 1.4948 2.4 -24.6703 -7.99535e+06 1.21081e+07 1.17117e+07 1.61314e+06 2.91143e+06 -783880
25 3 O 0.15972 -1.26229 1.4948 -1.2 -4.71115 -1.07667e+07 -7.79635e+06 -2.91733e+07 -5.61731e+06 -8.56496e+06 -1.70167e+06
26 3 O 6.77654 1.32496 1.4948 -1.2 -10.2931 -5.85649e+06 1.92069e+06 -1.51545e+06 -639708 -599678 2.06362e+06
27 3 O -0.508028 1.05712 0.196716 -1.2 -9.46466 14828.2 -4.49518e+06 -885653 -561594 173544 -3.58749e+06
28 3 O -0.552171 1.05712 2.79288 -1.2 -6.7425 -5.47682e+06 -4.49142e+06 -2.47093e+07 1.39939e+06 -6.81432e+06 -4.53283e+06
29 1 Mg 6.31713 4.74899 0 1.2 -5.08252 632792 -1.30273e+07 -6.01472e+06 -7.31842e+06 1.39089e+06 -4.26511e+06
30 1 Mg 3.54847 9.45668 1.4948 1.2 -8.42513 341189 1.89675e+06 4.33534e+06 -957658 -1.00811e+06 -669645
31 2 Si 5.36879 6.77254 1.4948 2.4 -34.4751 7.65021e+06 1.20118e+07 1.15213e+07 1.63719e+06 -32779.7 -2.93492e+06
32 3 O 5.41937 8.38578 1.4948 -1.2 -4.67512 -505235 -1.01308e+06 -3.50934e+07 769675 1.20574e+06 -3.83527e+06
33 3 O 1.75158 5.79852 1.4948 -1.2 -9.39824 -4.07394e+06 -2.31805e+06 -1.56251e+06 1.9638e+06 -1.62525e+06 -810054
34 3 O 4.67421 6.06637 0.196716 -1.2 -3.61741 -102146 -1.00663e+07 -3.1515e+07 -2.00384e+06 1.34749e+06 -3.93481e+06
35 1 Mg 6.26654 4.74899 2.9896 1.2 -8.03688 4.26334e+06 -1.72827e+06 -88279.3 1.77478e+06 -940792 1.24753e+06
36 3 O 4.63043 6.06637 2.79288 -1.2 -8.80961 -1.64181e+06 -3.91187e+06 -2.28753e+06 977838 44694.3 -919052
37 1 Mg -1.12976 4.79031 4.4844 1.2 -8.72689 -566337 2.67835e+06 2.73816e+06 -575703 -210859 -675972
38 2 Si -2.9517 7.47444 4.4844 2.4 -32.5596 1.19639e+07 8.29272e+06 8.06012e+06 97016.9 -47017.8 -1.25299e+06
39 3 O -3.00198 5.86121 4.4844 -1.2 -9.55843 -4.27654e+06 103689 -3.52743e+06 55536.1 -200898 580641
40 3 O 0.666315 8.44846 4.4844 -1.2 -9.26291 -3.07542e+06 -2.59223e+06 -3.56595e+06 2.13414e+06 -722804 547516
41 3 O -2.21213 8.18062 3.18632 -1.2 -9.12544 -3.15405e+06 -3.30952e+06 -459286 1.08368e+06 -404829 -943674
42 3 O -2.25864 8.18062 5.78248 -1.2 -9.34639 -3.29776e+06 -3.18815e+06 -1.09067e+06 925463 -527820 2.0834e+06
43 1 Mg 1.20893 7.12349 2.9896 1.2 -8.05014 4.02894e+06 -1.6541e+06 72404.3 -1.27506e+06 -1.22254e+06 -2.14681e+06
44 1 Mg 4.00982 7.08218 4.4844 1.2 -8.69297 -1.0967e+06 2.395e+06 3.55053e+06 952567 -554854 -390057
45 2 Si 2.17861 9.14704 4.4844 2.4 -32.9128 1.03986e+07 9.06552e+06 9.39859e+06 497827 -45788.1 -992686
46 3 O 2.18828 10.7603 4.4844 -1.2 -9.46108 -3.47659e+06 -374876 -4.11237e+06 463220 -139731 507833
47 3 O -4.43805 8.17302 4.4844 -1.2 -9.40901 -3.48966e+06 -2.4319e+06 -3.03687e+06 -1.51019e+06 -123316 537349
48 3 O 2.89193 8.44087 3.18632 -1.2 -9.05644 -2.62136e+06 -3.59695e+06 -961696 -906222 -150350 1.74561e+06
49 1 Mg 1.25915 7.12349 0 1.2 -5.48641 1.21934e+06 -7.57131e+06 -6.30409e+06 5.90344e+06 1.40487e+06 2.25421e+06
50 3 O 2.84547 8.44087 5.78248 -1.2 -8.88898 -2.32569e+06 -3.87278e+06 -2.42739e+06 -823517 -137942 -491646
51 1 Mg -1.59284 7.16481 1.4948 1.2 -8.33187 1.03092e+06 1.34339e+06 4.24859e+06 1.46834e+06 -846272 -129666
52 2 Si 0.240329 5.09994 1.4948 2.4 -34.243 8.5381e+06 1.07816e+07 1.14924e+07 -1.91834e+06 -922980 713240
53 3 O 0.234538 3.48671 1.4948 -1.2 -5.14743 -1.88988e+06 501063 -3.3898e+07 378750 5.13117e+06 4.75208e+06
54 3 O 6.85564 6.07396 1.4948 -1.2 -9.50127 -4.63361e+06 -1.75415e+06 -1.3633e+06 -1.33861e+06 -1.80065e+06 1.72859e+06
55 3 O -0.429565 5.80612 0.196716 -1.2 -3.8698 -916422 -8.68955e+06 -3.16297e+07 1.84518e+06 1.14822e+06 5.07135e+06
56 3 O -0.473377 5.80612 2.79288 -1.2 -8.90689 -2.22025e+06 -3.46986e+06 -2.09772e+06 -826776 168761 1.86796e+06
57 1 Mg 6.40169 9.49799 0 1.2 -5.43389 1.83619e+06 -6.21347e+06 -6.85196e+06 -5.48489e+06 966599 -2.68895e+06
58 1 Mg 3.64209 14.2057 1.4948 1.2 -8.48886 265569 2.22682e+06 4.14211e+06 -1.01621e+06 -1.02508e+06 -306745
59 2 Si 5.45748 11.5215 1.4948 2.4 -34.4007 7.86844e+06 1.22931e+07 1.08787e+07 912302 134098 -2.70669e+06
60 3 O 5.51101 13.1348 1.4948 -1.2 -4.72609 -661347 -1.25469e+06 -3.4434e+07 457382 -2.43679e+06 -4.20025e+06
61 3 O 1.83851 10.5475 1.4948 -1.2 -9.48428 -4.25946e+06 -2.11498e+06 -1.16999e+06 1.54113e+06 -1.60132e+06 -764643
62 3 O 4.7611 10.8154 0.196716 -1.2 -3.47544 335386 -1.17892e+07 -3.16799e+07 -2.47766e+06 -1.68217e+06 -4.07756e+06
63 1 Mg 6.35203 9.49799 2.9896 1.2 -7.94186 4.28805e+06 -1.585e+06 -410737 1.32068e+06 -1.30794e+06 1.54734e+06
64 3 O 4.71833 10.8154 2.79288 -1.2 -8.87423 -1.82213e+06 -3.96192e+06 -1.96157e+06 1.03701e+06 219521 -904490
65 1 Mg -1.0438 9.53931 4.4844 1.2 -8.56724 -874095 2.40842e+06 3.02326e+06 -563588 100972 -514313
66 2 Si -2.8604 12.2234 4.4844 2.4 -32.3639 1.16146e+07 9.01538e+06 7.38199e+06 -155569 -15535.6 -927643
67 3 O -2.91391 10.6102 4.4844 -1.2 -9.67383 -4.18399e+06 -34781.8 -3.30765e+06 226349 -220495 433507
68 3 O 0.7596 13.1975 4.4844 -1.2 -9.36961 -2.88439e+06 -3.1056e+06 -3.07248e+06 2.14338e+06 -727183 531276
69 3 O -2.12001 12.9296 3.18632 -1.2 -9.16865 -2.98276e+06 -3.76011e+06 -114775 1.20046e+06 -317218 -1.22045e+06
70 3 O -2.16532 12.9296 5.78248 -1.2 -9.47718 -2.96597e+06 -3.69202e+06 -821909 1.27778e+06 -397285 2.06063e+06
71 1 Mg 1.29891 11.8725 2.9896 1.2 -8.00358 3.97877e+06 -1.27048e+06 -338762 -1.17547e+06 -1.12698e+06 -2.08392e+06
72 1 Mg 4.10033 11.8312 4.4844 1.2 -8.58691 -1.07284e+06 2.79766e+06 2.95751e+06 1.15978e+06 -602916 -421743
73 2 Si 2.27333 13.896 4.4844 2.4 -32.6465 1.01586e+07 1.01303e+07 8.14679e+06 877543 4332.49 -602272
74 3 O 2.28634 15.5093 4.4844 -1.2 -9.58363 -3.46818e+06 -878766 -3.42489e+06 401952 -304808 -73811
75 3 O -4.34533 12.922 4.4844 -1.2 -9.52399 -3.34048e+06 -2.89712e+06 -2.53581e+06 -1.46075e+06 -178757 282011
76 3 O 2.98455 13.1899 3.18632 -1.2 -9.11889 -2.60548e+06 -4.00028e+06 -496027 -1.00396e+06 -81253.3 1.56624e+06
77 1 Mg 1.34779 11.8725 0 1.2 -5.68547 3.05536e+06 -2.43819e+06 -7.05595e+06 3.55361e+06 845307 1.40102e+06
78 3 O 2.93934 13.1899 5.78248 -1.2 -9.09924 -2.12431e+06 -4.40405e+06 -1.89111e+06 -1.17705e+06 66463.2 -675714
79 1 Mg -1.50344 11.9138 1.4948 1.2 -8.4024 683042 2.02166e+06 4.01493e+06 1.55156e+06 -859059 139439
80 2 Si 0.326006 9.84894 1.4948 2.4 -34.4048 7.80932e+06 1.20897e+07 1.11202e+07 -613520 316225 1.59382e+06
81 3 O 0.317364 8.23571 1.4948 -1.2 -4.6671 -572146 -876739 -3.53055e+07 -128248 1.08016e+06 4.57409e+06
82 3 O 6.94307 10.823 1.4948 -1.2 -9.55208 -4.56936e+06 -1.92433e+06 -901785 -985910 -1.50669e+06 1.36464e+06
83 3 O -0.343122 10.5551 0.196716 -1.2 -3.57442 34175.3 -1.12361e+07 -3.17385e+07 2.47034e+06 -2.12817e+06 4.73817e+06
84 3 O -0.385966 10.5551 2.79288 -1.2 -8.90584 -1.88098e+06 -3.95762e+06 -2.00473e+06 -850031 -103833 1.53142e+06
85 1 Mg 6.49448 14.247 0 1.2 -5.69018 3.61647e+06 -1.63926e+06 -7.22355e+06 -2.96167e+06 198131 -1.47395e+06
86 1 Mg 3.74457 18.9547 1.4948 1.2 -8.66517 255245 2.26463e+06 4.31987e+06 -1.11648e+06 -980343 518393
87 2 Si 5.55495 16.2705 1.4948 2.4 -34.4893 8.25835e+06 1.22053e+07 1.07372e+07 558684 635194 -1.52319e+06
88 3 O 5.6115 17.8838 1.4948 -1.2 -4.95319 -1.80605e+06 -1.12767e+06 -3.18219e+07 61549.8 -5.99208e+06 -4.78547e+06
89 3 O 1.93416 15.2965 1.4948 -1.2 -9.49694 -4.40828e+06 -1.99643e+06 -870051 1.53474e+06 -1.42295e+06 -1.19101e+06
90 3 O 4.85636 15.5644 0.196716 -1.2 -3.42605 217428 -1.3537e+07 -3.00607e+07 -3.03485e+06 -5.06818e+06 -3.9879e+06
91 1 Mg 6.44662 14.247 2.9896 1.2 -7.89957 4.2579e+06 -1.18804e+06 -846300 1.28635e+06 -1.32058e+06 1.99418e+06
92 3 O 4.81537 15.5644 2.79288 -1.2 -8.85633 -1.78794e+06 -4.26726e+06 -1.75173e+06 1.02693e+06 103622 -1.5177e+06
93 1 Mg -0.948271 14.2883 4.4844 1.2 -8.44812 -1.08011e+06 3.03163e+06 2.40541e+06 -684285 -12212.7 -244344
94 2 Si -2.75928 16.9724 4.4844 2.4 -32.5233 1.13588e+07 9.61484e+06 7.29165e+06 -1708.73 -377925 1.16466e+06
95 3 O -2.81617 15.3592 4.4844 -1.2 -9.72386 -3.90084e+06 -647734 -2.89763e+06 340872 -43883.1 -262682
96 3 O 0.862762 17.9465 4.4844 -1.2 -9.31504 -3.2557e+06 -3.14289e+06 -2.75429e+06 2.25292e+06 -632463 -609857
97 3 O -2.0185 17.6786 3.18632 -1.2 -9.05687 -3.02666e+06 -3.82899e+06 -200577 1.16499e+06 -128168 -2.1534e+06
98 3 O -2.06164 17.6786 5.78248 -1.2 -9.24705 -2.92767e+06 -3.89257e+06 -1.06538e+06 1.09153e+06 24615.7 684972
99 1 Mg 1.39817 16.6215 2.9896 1.2 -8.00429 4.20984e+06 -1.06012e+06 -781293 -1.18751e+06 -1.11314e+06 -1.27584e+06
100 1 Mg 4.20062 16.5802 4.4844 1.2 -8.58964 -1.14338e+06 3.05271e+06 2.77843e+06 1.2315e+06 -375521 465979
101 2 Si 2.37796 18.645 4.4844 2.4 -32.8715 1.10082e+07 9.75017e+06 8.0375e+06 568654 145281 1.38118e+06
102 3 O 2.39434 20.2583 4.4844 -1.2 -9.36513 -3.98408e+06 -528904 -3.61408e+06 544101 -195265 -809145
103 3 O -4.24274 17.671 4.4844 -1.2 -9.38291 -3.36416e+06 -2.91148e+06 -2.72875e+06 -1.50857e+06 -257443 -663311
104 3 O 3.08659 17.9389 3.18632 -1.2 -9.03661 -2.81781e+06 -3.99607e+06 -460047 -938621 -98256.5 689817
105 1 Mg 1.44478 16.6215 0 1.2 -5.88909 4.85823e+06 493795 -7.02191e+06 1.39026e+06 -3656.24 1.30086e+06
106 3 O 3.0436 17.9389 5.78248 -1.2 -9.04467 -2.34676e+06 -4.25081e+06 -1.97877e+06 -846883 -396777 -1.73088e+06
107 1 Mg -1.40524 16.6628 1.4948 1.2 -8.54181 578833 2.25353e+06 4.063e+06 1.6796e+06 -945610 808166
108 2 Si 0.420358 14.5979 1.4948 2.4 -34.4359 7.97783e+06 1.24688e+07 1.06065e+07 -160190 747602 2.54879e+06
109 3 O 0.408732 12.9847 1.4948 -1.2 -4.70605 -634224 -1.24025e+06 -3.46421e+07 235218 -2.66112e+06 4.44789e+06
110 3 O 7.03923 15.572 1.4948 -1.2 -9.54734 -4.6507e+06 -1.81007e+06 -701546 -946650 -1.25726e+06 760473
111 3 O -0.248332 15.3041 0.196716 -1.2 -3.53091 -86927.5 -1.30822e+07 -3.00958e+07 3.25661e+06 -5.47401e+06 3.81276e+06
112 3 O -0.289436 15.3041 2.79288 -1.2 -8.90956 -1.85193e+06 -4.38605e+06 -1.6443e+06 -811070 -88376.6 949478
113 1 Mg 6.59566 18.996 0 1.2 -5.90457 5.16487e+06 887135 -6.91162e+06 -902356 -723571 -102325
114 1 Mg 3.85574 23.7037 1.4948 1.2 -8.8399 152636 2.38205e+06 4.4452e+06 -1.1789e+06 -924666 956656
115 2 Si 5.66125 21.0195 1.4948 2.4 -34.6382 9.09208e+06 1.15569e+07 1.08523e+07 200419 1.13092e+06 -320131
116 3 O 5.72074 22.6328 1.4948 -1.2 -5.45095 -3.66019e+06 -936824 -2.70203e+07 -222134 -8.46669e+06 -4.80478e+06
117 3 O 2.03867 20.0455 1.4948 -1.2 -9.4145 -4.63195e+06 -1.59545e+06 -976948 1.58175e+06 -1.18694e+06 -1.89276e+06
118 3 O 4.96004 20.3134 0.196716 -1.2 -3.67243 -658112 -1.48725e+07 -2.62692e+07 -3.18985e+06 -7.91324e+06 -3.70265e+06
119 1 Mg 6.55057 18.996 2.9896 1.2 -8.03902 4.49899e+06 -1.33787e+06 -713600 1.33452e+06 -1.28107e+06 2.76735e+06
120 3 O 4.92172 20.3134 2.79288 -1.2 -8.69357 -2.0691e+06 -4.12481e+06 -1.91233e+06 1.06862e+06 -24655 -2.15593e+06
121 1 Mg -0.84282 19.0373 4.4844 1.2 -8.68925 -838687 2.79727e+06 2.78096e+06 -534421 -199178 805290
122 2 Si -2.64823 21.7214 4.4844 2.4 -33.0993 1.20654e+07 9.41251e+06 7.71338e+06 -23286 -120004 1.83962e+06
123 3 O -2.70847 20.1082 4.4844 -1.2 -9.42171 -4.18173e+06 -385958 -3.34891e+06 269393 -119124 -825400
124 3 O 0.97581 22.6955 4.4844 -1.2 -9.04782 -3.65555e+06 -2.99584e+06 -2.93809e+06 2.20187e+06 -549438 -929109
125 3 O -1.9076 22.4276 3.18632 -1.2 -8.84795 -3.25052e+06 -3.73197e+06 -445303 1.17645e+06 -74300.1 -2.55876e+06
126 3 O -1.9475 22.4276 5.78248 -1.2 -8.88375 -3.31445e+06 -4.01452e+06 -985473 1.24049e+06 -159334 532738
127 1 Mg 1.50678 21.3705 2.9896 1.2 -8.16826 4.60891e+06 -1.28664e+06 -691072 -1.16872e+06 -1.21028e+06 -646989
128 1 Mg 4.31086 21.3292 4.4844 1.2 -8.81367 -608654 2.86604e+06 2.78811e+06 1.18132e+06 -361008 947113
129 2 Si 2.49243 23.394 4.4844 2.4 -33.3518 1.18783e+07 9.54722e+06 8.1335e+06 767909 -34923.8 2.06339e+06
130 3 O 2.51204 25.0073 4.4844 -1.2 -9.14676 -4.38063e+06 -477005 -3.62911e+06 517353 -165581 -1.04287e+06
131 3 O -4.13026 22.42 4.4844 -1.2 -9.1392 -3.82669e+06 -2.87756e+06 -2.69406e+06 -1.39457e+06 -340120 -1.06083e+06
132 3 O 3.19799 22.6879 3.18632 -1.2 -8.85189 -3.14322e+06 -3.87996e+06 -607212 -933353 24116.3 226766
133 1 Mg 1.5501 21.3705 0 1.2 -6.01644 5.83819e+06 1.96749e+06 -6.49348e+06 -73046.1 -919531 1.49192e+06
134 3 O 3.1583 22.6879 5.78248 -1.2 -8.75825 -2.96873e+06 -4.1889e+06 -1.69799e+06 -959984 -132941 -2.07727e+06
135 1 Mg -1.29822 21.4118 1.4948 1.2 -8.74356 491096 2.29526e+06 4.32793e+06 1.80223e+06 -934780 1.32808e+06
136 2 Si 0.523568 19.3469 1.4948 2.4 -34.6067 8.66877e+06 1.18857e+07 1.08006e+07 279790 1.0898e+06 4.26308e+06
137 3 O 0.508934 17.7337 1.4948 -1.2 -4.94318 -1.80886e+06 -1.14594e+06 -3.19513e+07 684985 -6.1432e+06 3.46399e+06
138 3 O 7.14425 20.321 1.4948 -1.2 -9.4568 -4.8279e+06 -1.43111e+06 -857246 -946824 -1.03542e+06 63642.2
139 3 O -0.145107 20.0531 0.196716 -1.2 -3.76765 -965992 -1.45491e+07 -2.63351e+07 3.68596e+06 -8.22516e+06 2.15169e+06
140 3 O -0.183601 20.0531 2.79288 -1.2 -8.73746 -2.07634e+06 -4.21642e+06 -1.91041e+06 -829822 -66074.4 144076
141 1 Mg 6.70502 23.745 0 1.2 -6.03197 5.71225e+06 2.15422e+06 -6.13819e+06 407569 -1.54612e+06 592434
142 1 Mg 3.97493 28.4527 1.4948 1.2 -8.95046 -121799 2.57007e+06 4.47612e+06 -1.2268e+06 -793867 975887
143 2 Si 5.77602 25.7685 1.4948 2.4 -34.6464 9.92043e+06 1.09345e+07 1.0747e+07 -107180 1.47221e+06 85377
144 3 O 5.83821 27.3818 1.4948 -1.2 -6.20167 -5.45876e+06 -786677 -2.09333e+07 -345540 -9.2688e+06 -4.22743e+06
145 3 O 2.15175 24.7945 1.4948 -1.2 -9.35177 -4.74973e+06 -1.35872e+06 -1.0626e+06 1.61112e+06 -953747 -2.11622e+06
146 3 O 5.07184 25.0624 0.196716 -1.2 -4.27788 -1.95056e+06 -1.55268e+07 -2.07312e+07 -2.789e+06 -9.39707e+06 -2.64552e+06
147 1 Mg 6.66374 23.745 2.9896 1.2 -8.19082 4.82643e+06 -1.39962e+06 -733198 1.31107e+06 -1.29238e+06 3.11045e+06
148 3 O 5.03707 25.0624 2.79288 -1.2 -8.54966 -2.31219e+06 -4.08559e+06 -1.97727e+06 1.07936e+06 -111587 -2.39767e+06
149 1 Mg -0.727559 23.7863 4.4844 1.2 -8.9291 -524146 2.80719e+06 2.82986e+06 -532037 -172723 1.03533e+06
150 2 Si -2.5277 26.4704 4.4844 2.4 -33.5179 1.25691e+07 9.40097e+06 7.90004e+06 65180 -266878 2.26109e+06
151 3 O -2.59107 24.8572 4.4844 -1.2 -9.18984 -4.47856e+06 -414549 -3.38096e+06 366972 -61084.3 -1.12583e+06
152 3 O 1.09817 27.4445 4.4844 -1.2 -8.90008 -3.97442e+06 -3.05117e+06 -2.80386e+06 2.29771e+06 -466052 -1.10646e+06
153 3 O -1.78784 27.1766 3.18632 -1.2 -8.7103 -3.37417e+06 -3.74037e+06 -588613 1.15012e+06 25083.3 -2.67767e+06
154 3 O -1.82343 27.1766 5.78248 -1.2 -8.62035 -3.61186e+06 -4.08854e+06 -1.07383e+06 1.09367e+06 33450.4 352334
155 1 Mg 1.62435 26.1195 2.9896 1.2 -8.27748 4.92025e+06 -1.31088e+06 -800163 -1.16455e+06 -1.2686e+06 -452925
156 1 Mg 4.43064 26.0782 4.4844 1.2 -9.03095 -269033 2.80351e+06 2.86211e+06 1.2342e+06 -256776 1.15278e+06
157 2 Si 2.61607 28.143 4.4844 2.4 -33.6085 1.25176e+07 9.48899e+06 7.96275e+06 599397 -41214.6 2.26488e+06
158 3 O 2.63853 29.7563 4.4844 -1.2 -9.05301 -4.63532e+06 -349507 -3.65712e+06 650498 -32160.6 -1.05089e+06
159 3 O -4.00841 27.169 4.4844 -1.2 -8.94639 -4.09622e+06 -2.81405e+06 -2.78972e+06 -1.39581e+06 -329356 -1.18101e+06
160 3 O 3.3182 27.4369 3.18632 -1.2 -8.73297 -3.32676e+06 -3.86721e+06 -702728 -888228 90942.2 150628
161 1 Mg 1.66335 26.1195 0 1.2 -6.09377 5.71005e+06 2.58875e+06 -5.6435e+06 -885041 -1.5416e+06 1.44727e+06
162 3 O 3.28288 27.4369 5.78248 -1.2 -8.57 -3.39265e+06 -4.18588e+06 -1.52219e+06 -899226 -321409 -2.26291e+06
163 1 Mg -1.18278 26.1608 1.4948 1.2 -8.8916 276137 2.47403e+06 4.40899e+06 1.87992e+06 -830949 1.3988e+06
164 2 Si 0.635424 24.0959 1.4948 2.4 -34.6792 9.4918e+06 1.12935e+07 1.07532e+07 738848 1.44191e+06 4.92226e+06
165 3 O 0.617906 22.4827 1.4948 -1.2 -5.43878 -3.66335e+06 -927196 -2.71806e+07 1.01699e+06 -8.57871e+06 2.5301e+06
166 3 O 7.25781 25.07 1.4948 -1.2 -9.39351 -4.90494e+06 -1.21731e+06 -975385 -930963 -807447 -178469
167 3 O -0.0337363 24.8021 0.196716 -1.2 -4.36041 -2.24721e+06 -1.54922e+07 -2.07477e+07 3.5079e+06 -9.66824e+06 628028
168 3 O -0.0687235 24.8021 2.79288 -1.2 -8.59807 -2.31191e+06 -4.21846e+06 -1.95017e+06 -821068 -112094 -141289
169 1 Mg 6.82195 28.494 0 1.2 -6.13585 5.19842e+06 2.65351e+06 -5.07768e+06 1.14919e+06 -1.83966e+06 621486
170 1 Mg 4.10106 33.2017 1.4948 1.2 -8.94815 -570867 2.97795e+06 4.17308e+06 -1.20501e+06 -551635 647972
171 2 Si 5.89839 30.5175 1.4948 2.4 -34.4459 1.06464e+07 1.03491e+07 1.03682e+07 -313974 1.67689e+06 -198824
172 3 O 5.96289 32.1308 1.4948 -1.2 -7.10262 -6.54676e+06 -801509 -1.47317e+07 -293580 -8.45471e+06 -3.27097e+06
173 3 O 2.27266 29.5435 1.4948 -1.2 -9.34355 -4.71779e+06 -1.2499e+06 -1.16861e+06 1.67e+06 -699046 -1.95709e+06
174 3 O 5.19102 29.8114 0.196716 -1.2 -5.14876 -3.24565e+06 -1.51228e+07 -1.46425e+07 -1.93569e+06 -9.26403e+06 -1.17514e+06
175 1 Mg 6.78546 28.494 2.9896 1.2 -8.26319 5.01716e+06 -1.44376e+06 -758377 1.3487e+06 -1.31209e+06 3.06494e+06
176 3 O 5.16061 29.8114 2.79288 -1.2 -8.51479 -2.46842e+06 -4.05861e+06 -1.94365e+06 1.10092e+06 -204510 -2.21415e+06
177 1 Mg -0.603205 28.5353 4.4844 1.2 -9.09548 -412972 2.81695e+06 2.97115e+06 -456095 -185647 1.25512e+06
178 2 Si -2.39877 31.2194 4.4844 2.4 -33.6818 1.26589e+07 9.08113e+06 8.40194e+06 103429 138487 1.75636e+06
179 3 O -2.46483 29.6062 4.4844 -1.2 -9.05943 -4.62546e+06 -329215 -3.5149e+06 287174 -162462 -1.12581e+06
180 3 O 1.22864 32.1935 4.4844 -1.2 -8.85149 -3.99697e+06 -2.87463e+06 -3.04479e+06 2.23703e+06 -286362 -582488
181 3 O -1.66032 31.9256 3.18632 -1.2 -8.68612 -3.26507e+06 -3.76057e+06 -791779 1.16466e+06 32310 -2.26122e+06
182 3 O -1.69072 31.9256 5.78248 -1.2 -8.41854 -3.49366e+06 -3.65955e+06 -1.96411e+06 1.27265e+06 -235952 738620
183 1 Mg 1.7499 30.8685 2.9896 1.2 -8.2941 5.02416e+06 -1.35863e+06 -823075 -1.15293e+06 -1.43122e+06 -659577
184 1 Mg 4.55894 30.8272 4.4844 1.2 -9.06619 -40064.4 2.66789e+06 2.82548e+06 1.21244e+06 -232986 906730
185 2 Si 2.7476 32.892 4.4844 2.4 -33.5591 1.24689e+07 9.46818e+06 7.95344e+06 888573 -277235 1.16139e+06
186 3 O 2.77235 34.5053 4.4844 -1.2 -9.17401 -4.40709e+06 -663124 -3.3755e+06 529386 -68160.4 -369105
187 3 O -3.87837 31.918 4.4844 -1.2 -8.94994 -4.25136e+06 -2.72679e+06 -2.7126e+06 -1.33866e+06 -441935 -795397
188 3 O 3.44611 32.1859 3.18632 -1.2 -8.74279 -3.29801e+06 -3.93617e+06 -740450 -886883 222232 525446
189 1 Mg 1.7837 30.8685 0 1.2 -6.16007 4.66939e+06 2.8181e+06 -4.78661e+06 -1.36119e+06 -1.53414e+06 1.30821e+06
190 3 O 3.41602 32.1859 5.78248 -1.2 -8.55949 -3.61168e+06 -3.91183e+06 -1.50249e+06 -987447 39644.4 -1.89735e+06
191 1 Mg -1.05984 30.9098 1.4948 1.2 -8.95604 -122443 2.71069e+06 4.37236e+06 1.9111e+06 -608284 1.05866e+06
192 2 Si 0.755243 28.8449 1.4948 2.4 -34.5674 1.02603e+07 1.0678e+07 1.0506e+07 1.11854e+06 1.61598e+06 4.69141e+06
193 3 O 0.735127 27.2317 1.4948 -1.2 -6.19458 -5.4992e+06 -794147 -2.10338e+07 1.1821e+06 -9.34118e+06 1.8638e+06
194 3 O 7.37914 29.819 1.4948 -1.2 -9.38727 -4.83858e+06 -1.12744e+06 -1.10843e+06 -945407 -631910 -10788.8
195 3 O 0.0850649 29.5511 0.196716 -1.2 -5.20991 -3.48679e+06 -1.54851e+07 -1.45867e+07 2.70163e+06 -9.45815e+06 -572318
196 3 O 0.0543974 29.5511 2.79288 -1.2 -8.54134 -2.4066e+06 -4.19369e+06 -2.02041e+06 -826820 -136167 -110897
197 1 Mg 6.94543 33.243 0 1.2 -6.18889 3.98878e+06 2.96009e+06 -4.41614e+06 1.59552e+06 -1.46129e+06 68196.9
198 1 Mg 4.23267 37.9507 1.4948 1.2 -8.87002 -1.0865e+06 3.62301e+06 3.50401e+06 -1.12322e+06 -210392 363567
199 2 Si 6.02709 35.2665 1.4948 2.4 -34.0171 1.10178e+07 1.04358e+07 9.27316e+06 -418297 1.59708e+06 -838388
200 3 O 6.09339 36.8798 1.4948 -1.2 -7.99683 -6.60328e+06 -1.19278e+06 -9.34374e+06 -134813 -6.61086e+06 -2.37667e+06
201 3 O 2.40018 34.2925 1.4948 -1.2 -9.42086 -4.48212e+06 -1.53446e+06 -1.04793e+06 1.69209e+06 -516082 -1.49251e+06
202 3 O 5.31645 34.5604 0.196716 -1.2 -6.17876 -4.12478e+06 -1.38535e+07 -8.9461e+06 -946917 -7.82807e+06 332632
203 1 Mg 6.91449 33.243 2.9896 1.2 -8.19065 4.97315e+06 -1.26612e+06 -999867 1.2988e+06 -1.3448e+06 2.55903e+06
204 3 O 5.291 34.5604 2.79288 -1.2 -8.62989 -2.38913e+06 -4.37694e+06 -1.55367e+06 1.1224e+06 -266758 -1.70912e+06
205 1 Mg -0.471101 33.2843 4.4844 1.2 -9.07124 -549760 2.87091e+06 3.00771e+06 -476779 -193868 430246
206 2 Si -2.26307 35.9684 4.4844 2.4 -33.3072 1.19057e+07 1.03265e+07 7.32099e+06 65551.9 -122257 545521
207 3 O -2.33122 34.3552 4.4844 -1.2 -9.16637 -4.34688e+06 -652389 -3.27873e+06 460202 -106027 -383545
208 3 O 1.36549 36.9425 4.4844 -1.2 -9.09123 -3.74106e+06 -3.57419e+06 -2.20901e+06 2.29944e+06 -305078 -201691
209 3 O -1.52658 36.6746 3.18632 -1.2 -8.83106 -2.95393e+06 -4.36991e+06 -351974 1.15724e+06 135094 -1.81845e+06
210 3 O -1.55122 36.6746 5.78248 -1.2 -8.73188 -2.93976e+06 -4.49794e+06 -1.24533e+06 1.1265e+06 134928 1.27868e+06
211 1 Mg 1.882 35.6175 2.9896 1.2 -8.14503 4.85706e+06 -863275 -1.38009e+06 -1.10887e+06 -1.48199e+06 -1.16173e+06
212 1 Mg 4.69415 35.5762 4.4844 1.2 -8.91041 -360874 3.11161e+06 2.4554e+06 1.24718e+06 -175989 317954
213 2 Si 2.88522 37.641 4.4844 2.4 -33.129 1.17633e+07 1.08238e+07 6.62154e+06 765306 -112322 410688
214 3 O 2.91159 39.2543 4.4844 -1.2 -9.36372 -4.13033e+06 -1.27987e+06 -2.72951e+06 608072 -39910.7 -234237
215 3 O -3.74183 36.667 4.4844 -1.2 -9.14777 -3.89029e+06 -3.35944e+06 -2.11196e+06 -1.31603e+06 -328865 -284521
216 3 O 3.58014 36.9349 3.18632 -1.2 -8.88487 -2.96585e+06 -4.53212e+06 -350294 -866679 221048 927887
217 1 Mg 1.90997 35.6175 0 1.2 -6.17704 3.23235e+06 3.08563e+06 -4.56858e+06 -1.65406e+06 -742464 1.37641e+06
218 3 O 3.55582 36.9349 5.78248 -1.2 -8.81928 -2.94979e+06 -4.62914e+06 -1.03218e+06 -921506 -141518 -1.24364e+06
219 1 Mg -0.93068 35.6588 1.4948 1.2 -8.89487 -644562 3.30169e+06 3.81343e+06 1.8557e+06 -327195 568737
220 2 Si 0.881882 33.5939 1.4948 2.4 -34.2222 1.07175e+07 1.04705e+07 9.77438e+06 1.40927e+06 1.62775e+06 3.55145e+06
221 3 O 0.859602 31.9807 1.4948 -1.2 -7.08666 -6.57191e+06 -779855 -1.48971e+07 1.1635e+06 -8.47035e+06 1.62315e+06
222 3 O 7.507 34.568 1.4948 -1.2 -9.47029 -4.58915e+06 -1.45086e+06 -967722 -930331 -425088 460443
223 3 O 0.210186 34.3001 0.196716 -1.2 -6.19721 -4.2152e+06 -1.45398e+07 -8.9881e+06 1.52871e+06 -7.95436e+06 -1.33092e+06
224 3 O 0.184454 34.3001 2.79288 -1.2 -8.64912 -2.32918e+06 -4.51417e+06 -1.6511e+06 -842222 -165756 451147
225 1 Mg 7.07415 37.992 0 1.2 -6.19719 2.65739e+06 3.24286e+06 -4.50348e+06 1.85356e+06 -430603 -812502
226 1 Mg 4.36817 42.6997 1.4948 1.2 -8.86316 -1.32448e+06 3.87738e+06 3.09476e+06 -1.01461e+06 116170 229317
227 2 Si 6.16058 40.0155 1.4948 2.4 -33.6298 1.12785e+07 1.05642e+07 8.27094e+06 -395401 1.35459e+06 -1.04294e+06
228 3 O 6.22815 41.6288 1.4948 -1.2 -8.6488 -6.05562e+06 -1.39307e+06 -5.73813e+06 48807.9 -4.53966e+06 -1.82258e+06
229 3 O 2.53282 39.0415 1.4948 -1.2 -9.49843 -4.19299e+06 -2.06293e+06 -844095 1.71022e+06 -345130 -1.25162e+06
230 3 O 5.44674 39.3094 0.196716 -1.2 -7.14162 -4.41718e+06 -1.18433e+07 -4.68068e+06 -134116 -5.79041e+06 1.45838e+06
231 1 Mg 7.04922 37.992 2.9896 1.2 -8.03083 4.73344e+06 -684182 -1.58716e+06 1.29595e+06 -1.46306e+06 2.23927e+06
232 3 O 5.42658 39.3094 2.79288 -1.2 -8.77402 -2.2709e+06 -4.84433e+06 -1.00292e+06 1.13772e+06 -312066 -1.48396e+06
233 1 Mg -0.333062 38.0333 4.4844 1.2 -8.85082 -855764 3.52294e+06 2.30657e+06 -426652 -177019 258829
234 2 Si -2.12255 40.7174 4.4844 2.4 -33.069 1.15452e+07 1.10469e+07 6.57666e+06 149712 -122879 475128
235 3 O -2.19212 39.1042 4.4844 -1.2 -9.34853 -4.0388e+06 -1.23225e+06 -2.70871e+06 432507 -43802.7 -260203
236 3 O 1.50676 41.6915 4.4844 -1.2 -9.16211 -3.56582e+06 -3.85482e+06 -2.0001e+06 2.26621e+06 -193779 -277880
237 3 O -1.3884 41.4236 3.18632 -1.2 -8.89159 -2.79314e+06 -4.65948e+06 -234366 1.12417e+06 128149 -1.70734e+06
238 3 O -1.40713 41.4236 5.78248 -1.2 -8.84457 -2.88491e+06 -4.66418e+06 -747111 1.08189e+06 7853.07 1.18737e+06
239 1 Mg 2.01892 40.3665 2.9896 1.2 -8.03307 4.68487e+06 -425500 -1.81182e+06 -1.09207e+06 -1.60547e+06 -1.24563e+06
240 1 Mg 4.83434 40.3252 4.4844 1.2 -8.77023 -576976 3.59117e+06 1.96807e+06 1.21568e+06 -63548 247457
241 2 Si 3.02698 42.39 4.4844 2.4 -33.0537 1.14936e+07 1.12611e+07 6.33167e+06 710933 -281838 583091
242 3 O 3.05433 44.0033 4.4844 -1.2 -9.31784 -4.02773e+06 -1.34287e+06 -2.85003e+06 613612 81165.6 -301486
243 3 O -3.60077 41.416 4.4844 -1.2 -9.23417 -3.76613e+06 -3.63793e+06 -1.83564e+06 -1.2883e+06 -278721 -242386
244 3 O 3.71851 41.6839 3.18632 -1.2 -8.93359 -2.78497e+06 -4.84225e+06 -256139 -819987 256228 953524
245 1 Mg 2.04077 40.3665 0 1.2 -6.19125 2.10548e+06 3.24033e+06 -4.99481e+06 -1.81258e+06 414936 1.90469e+06
246 3 O 3.70011 41.6839 5.78248 -1.2 -8.93543 -2.91159e+06 -4.89768e+06 -473326 -758392 -35173.6 -1.43344e+06
247 1 Mg -0.796865 40.4078 1.4948 1.2 -8.82928 -991329 3.79103e+06 3.17416e+06 1.75715e+06 31175.8 353198
248 2 Si 1.01387 38.3429 1.4948 2.4 -33.7738 1.09869e+07 1.07431e+07 8.54922e+06 1.5493e+06 1.43824e+06 2.74085e+06
249 3 O 0.989947 36.7297 1.4948 -1.2 -7.98286 -6.64029e+06 -1.17488e+06 -9.49886e+06 1.03139e+06 -6.63048e+06 1.49987e+06
250 3 O 7.63988 39.317 1.4948 -1.2 -9.54466 -4.31812e+06 -1.96944e+06 -774343 -922224 -261986 731941
251 3 O 0.340253 39.0491 0.196716 -1.2 -7.14418 -4.46264e+06 -1.27422e+07 -4.68681e+06 371850 -5.84313e+06 -1.93784e+06
252 3 O 0.319795 39.0491 2.79288 -1.2 -8.80518 -2.22786e+06 -4.99609e+06 -1.05743e+06 -861012 -177839 603894
253 1 Mg 7.20667 42.741 0 1.2 -6.25257 1.83423e+06 3.1907e+06 -5.00315e+06 1.98128e+06 953007 -1.92227e+06
254 1 Mg 4.50613 47.4487 1.4948 1.2 -8.93755 -1.18908e+06 3.66158e+06 3.09117e+06 -853071 393745 224356
255 2 Si 6.29731 44.7645 1.4948 2.4 -33.5384 1.18138e+07 9.83153e+06 8.29876e+06 -265203 915550 -1.09786e+06
256 3 O 6.36567 46.3778 1.4948 -1.2 -8.98377 -5.41002e+06 -1.1453e+06 -3.99362e+06 187372 -2.68828e+06 -1.50792e+06
257 3 O 2.669 43.7905 1.4948 -1.2 -9.42677 -4.058e+06 -2.25365e+06 -1.17338e+06 1.72074e+06 -182626 -1.11697e+06
258 3 O 5.58048 44.0584 0.196716 -1.2 -7.81966 -4.3821e+06 -9.17803e+06 -2.33019e+06 334122 -3.74839e+06 2.24009e+06
259 1 Mg 7.1879 42.741 2.9896 1.2 -7.99266 4.7147e+06 -536826 -1.76367e+06 1.26781e+06 -1.55952e+06 2.11263e+06
260 3 O 5.56564 44.0584 2.79288 -1.2 -8.78397 -2.4257e+06 -4.80427e+06 -898712 1.17631e+06 -259587 -1.39481e+06
261 1 Mg -0.19105 42.7823 4.4844 1.2 -8.81686 -905994 3.61821e+06 2.20316e+06 -325011 -37141.7 227089
262 2 Si -1.97909 45.4664 4.4844 2.4 -33.0603 1.19636e+07 1.09025e+07 6.28575e+06 147284 1670.73 368813
263 3 O -2.04947 43.8532 4.4844 -1.2 -9.36952 -4.1347e+06 -1.24525e+06 -2.58312e+06 430096 -64214.1 -134338
264 3 O 1.65063 46.4405 4.4844 -1.2 -9.04588 -3.58466e+06 -3.7153e+06 -2.30825e+06 2.26654e+06 -228951 -285135
265 3 O -1.24745 46.1726 3.18632 -1.2 -8.82819 -2.91032e+06 -4.51075e+06 -474067 1.12073e+06 24213.8 -1.64896e+06
266 3 O -1.26044 46.1726 5.78248 -1.2 -8.91775 -3.12018e+06 -4.59036e+06 -296223 1.06511e+06 -273113 1.1613e+06
267 1 Mg 2.15896 45.1155 2.9896 1.2 -8.09379 4.65318e+06 -492504 -1.60015e+06 -1.05572e+06 -1.69053e+06 -1.282e+06
268 1 Mg 4.97763 45.0742 4.4844 1.2 -8.81812 -511397 3.56882e+06 2.00212e+06 1.16051e+06 -180148 305031
269 2 Si 3.1711 47.139 4.4844 2.4 -33.3589 1.15039e+07 1.08223e+07 7.25885e+06 790665 -256042 663835