ITEM: TIMESTEP
17700
ITEM: NUMBER OF ATOMS
10500
ITEM: BOX BOUNDS xy xz yz pp pp pp
0.0000000000000000e+00 1.5297749999999999e+01 5.0992499999999996e+00
0.0000000000000000e+00 1.1872499999999999e+02 0.0000000000000000e+00
0.0000000000000000e+00 8.9688000000000002e+01 0.0000000000000000e+00
ITEM: ATOMS id type element xu yu zu q c_pe c_s[1] c_s[2] c_s[3] c_s[4] c_s[5] c_s[6]
1 1 Mg 6.2404 -6.37941e-06 0 1.2 -4.56932 8.10319e+06 -1.88728e+06 -6.15679e+06 -21079.4 2.61568e+06 -219958
2 1 Mg 3.46349 4.70768 1.4948 1.2 -8.64115 -49855.6 2.66304e+06 4.32757e+06 -931825 -634973 176581
3 2 Si 5.2885 2.02354 1.4948 2.4 -35.5174 1.04376e+07 1.0971e+07 1.12891e+07 8.86296e+06 717416 -3.00548e+06
4 3 O 5.33628 3.63678 1.4948 -1.2 -4.57524 -1.06112e+06 -1.4324e+06 -3.36742e+07 -335998 3.79668e+06 -3.95168e+06
5 3 O 1.67294 1.04952 1.4948 -1.2 -0.923983 -2.05414e+07 -7.93781e+07 -2.0948e+06 -2.41239e+07 -105337 -98810
6 3 O 4.59532 1.31737 0.196716 -1.2 -2.89086 -2.17945e+06 -6.65421e+06 -3.05132e+07 -6.02407e+06 6.2442e+06 -2.65388e+06
7 1 Mg 6.18956 -6.37941e-06 2.9896 1.2 -5.05476 1.74307e+06 -2.81693e+07 -3.01049e+06 -8.83618e+06 2.48977e+06 4.01861e+06
8 3 O 4.55118 1.31737 2.79288 -1.2 -7.38558 -84396 -4.72248e+06 -3.1005e+06 -2.96268e+06 -3.4178e+06 -1.15109e+06
9 1 Mg -1.20682 0.0413099 4.4844 1.2 8.80173 -3.06477e+07 -9.32918e+07 -266177 -2.84955e+07 -1.23144e+06 166370
10 2 Si -3.0337 2.72544 4.4844 2.4 -33.3846 1.46641e+07 6.95123e+06 8.24839e+06 1.63584e+06 254313 -370377
11 3 O -3.08099 1.11221 4.4844 -1.2 -9.49833 -6.2963e+06 -4409.73 -2.1804e+06 -1.22948e+06 -274637 185060
12 3 O 0.582463 3.69946 4.4844 -1.2 -8.82521 -3.41166e+06 -5.41756e+06 -2.99164e+06 -544593 -88960.6 -242379
13 3 O -2.29524 3.43162 3.18632 -1.2 -8.91529 -4.40282e+06 -2.49632e+06 -650864 1.09038e+06 -865363 -1.05764e+06
14 3 O -2.34216 3.43162 5.78248 -1.2 -8.69285 -4.02209e+06 -3.15009e+06 -1.82041e+06 741975 507258 1.19159e+06
15 1 Mg 1.12778 2.37449 2.9896 1.2 -7.73114 5.37168e+06 -1.65451e+06 -649935 -3.28675e+06 -4.23605e+06 -2.1611e+06
16 1 Mg 3.92855 2.33318 4.4844 1.2 -8.56238 -3.88945e+06 4.89377e+06 4.74071e+06 1.38532e+06 289625 612247
17 2 Si 2.09341 4.39804 4.4844 2.4 -32.6567 1.25168e+07 6.58108e+06 9.15199e+06 184961 -439072 790253
18 3 O 2.09991 6.01128 4.4844 -1.2 -9.33635 -4.31141e+06 130458 -4.01335e+06 552512 -60829.9 -198991
19 3 O -4.52137 3.42402 4.4844 -1.2 -9.05239 -3.15876e+06 -2.82885e+06 -3.59862e+06 -2.42642e+06 -944693 -74436.1
20 3 O 2.80834 3.69187 3.18632 -1.2 -9.19558 -2.37699e+06 -2.76674e+06 -442968 457921 -447929 -600883
21 1 Mg 1.17857 2.37449 0 1.2 -5.27614 -370945 -1.48682e+07 -6.39012e+06 6.52382e+06 1.19368e+06 4.59868e+06
22 3 O 2.76143 3.69187 5.78248 -1.2 -9.23928 -3.05434e+06 -2.28274e+06 -1.28052e+06 509807 168041 -198255
23 1 Mg -1.67381 2.41581 1.4948 1.2 -7.72049 1.76213e+06 -230589 4.10467e+06 1.35369e+06 -575521 1.06643e+06
24 2 Si 0.16286 0.350945 1.4948 2.4 -24.8111 -7.81315e+06 1.2428e+07 1.14351e+07 1.58745e+06 2.81949e+06 1.17035e+06
25 3 O 0.15972 -1.26229 1.4948 -1.2 -4.63355 -1.08762e+07 -7.99034e+06 -2.89946e+07 -5.6021e+06 -8.52876e+06 -2.5792e+06
26 3 O 6.77654 1.32496 1.4948 -1.2 -10.2237 -5.93768e+06 1.77051e+06 -1.39651e+06 -643696 -665268 1.0538e+06
27 3 O -0.508028 1.05712 0.196716 -1.2 -9.38913 -111294 -4.64137e+06 -735935 -555496 195007 -4.53735e+06
28 3 O -0.552171 1.05712 2.79288 -1.2 -6.67452 -5.49222e+06 -4.62158e+06 -2.46754e+07 1.42384e+06 -6.77588e+06 -5.55882e+06
29 1 Mg 6.31713 4.74899 0 1.2 -5.11516 646287 -1.29301e+07 -6.07314e+06 -7.31172e+06 1.45012e+06 -3.53271e+06
30 1 Mg 3.54847 9.45668 1.4948 1.2 -8.54214 633569 1.63414e+06 4.49302e+06 -960548 -929961 -187778
31 2 Si 5.36879 6.77254 1.4948 2.4 -34.6782 7.93336e+06 1.19387e+07 1.16367e+07 1.66889e+06 207482 -1.68973e+06
32 3 O 5.41937 8.38578 1.4948 -1.2 -4.55309 -670907 -861676 -3.52752e+07 768885 1.07557e+06 -4.36865e+06
33 3 O 1.75158 5.79852 1.4948 -1.2 -9.3223 -4.29175e+06 -2.3162e+06 -1.46853e+06 1.96945e+06 -1.55769e+06 -1.46253e+06
34 3 O 4.67421 6.06637 0.196716 -1.2 -3.58083 -159867 -1.00837e+07 -3.14995e+07 -2.01158e+06 1.29201e+06 -4.54307e+06
35 1 Mg 6.26654 4.74899 2.9896 1.2 -8.18695 4.3814e+06 -1.71832e+06 24151.3 1.80998e+06 -788326 2.0531e+06
36 3 O 4.63043 6.06637 2.79288 -1.2 -8.67853 -1.94177e+06 -3.89317e+06 -2.21695e+06 927518 -137697 -1.58619e+06
37 1 Mg -1.12976 4.79031 4.4844 1.2 -8.97187 -445321 2.70565e+06 2.98364e+06 -713419 -417442 53318.6
38 2 Si -2.9517 7.47444 4.4844 2.4 -33.2821 1.18285e+07 8.68538e+06 8.96902e+06 53184.2 180252 182159
39 3 O -3.00198 5.86121 4.4844 -1.2 -9.25333 -4.24297e+06 -66019.6 -3.87788e+06 44533.7 -328664 -104000
40 3 O 0.666315 8.44846 4.4844 -1.2 -9.05973 -3.65583e+06 -2.52237e+06 -3.38201e+06 2.11454e+06 -341439 -86495.5
41 3 O -2.21213 8.18062 3.18632 -1.2 -8.87663 -3.21984e+06 -3.28805e+06 -809927 1.10518e+06 -336053 -1.56602e+06
42 3 O -2.25864 8.18062 5.78248 -1.2 -8.72334 -3.1482e+06 -3.6134e+06 -1.97844e+06 1.04892e+06 -159448 1.28325e+06
43 1 Mg 1.20893 7.12349 2.9896 1.2 -8.18656 4.42953e+06 -1.69822e+06 -65514.7 -1.28894e+06 -1.40205e+06 -1.55146e+06
44 1 Mg 4.00982 7.08218 4.4844 1.2 -8.83456 -433231 2.40376e+06 3.10451e+06 1.03194e+06 -235751 210318
45 2 Si 2.17861 9.14704 4.4844 2.4 -33.2297 1.20033e+07 8.65547e+06 8.7047e+06 601743 -259337 376501
46 3 O 2.18828 10.7603 4.4844 -1.2 -9.23399 -4.33603e+06 -14989.8 -3.99192e+06 421315 -111688 -134992
47 3 O -4.43805 8.17302 4.4844 -1.2 -9.10219 -3.7278e+06 -2.49675e+06 -3.2292e+06 -1.52613e+06 -615370 -164564
48 3 O 2.89193 8.44087 3.18632 -1.2 -8.91022 -3.17756e+06 -3.46462e+06 -776987 -923721 -197072 1.13325e+06
49 1 Mg 1.25915 7.12349 0 1.2 -5.5131 1.30257e+06 -7.63283e+06 -6.28309e+06 5.89477e+06 1.34518e+06 2.72224e+06
50 3 O 2.84547 8.44087 5.78248 -1.2 -8.86715 -3.33782e+06 -3.6546e+06 -1.61031e+06 -853100 -76329 -1.34304e+06
51 1 Mg -1.59284 7.16481 1.4948 1.2 -8.44824 1.11284e+06 1.29313e+06 4.40336e+06 1.4579e+06 -906831 460501
52 2 Si 0.240329 5.09994 1.4948 2.4 -34.4064 8.8221e+06 1.08481e+07 1.14037e+07 -1.96903e+06 -1.11247e+06 2.16293e+06
53 3 O 0.234538 3.48671 1.4948 -1.2 -5.07314 -2.00631e+06 430761 -3.38307e+07 402705 5.20253e+06 3.88219e+06
54 3 O 6.85564 6.07396 1.4948 -1.2 -9.39605 -4.69718e+06 -1.76345e+06 -1.45901e+06 -1.3441e+06 -1.86793e+06 1.046e+06
55 3 O -0.429565 5.80612 0.196716 -1.2 -3.83663 -974693 -8.73183e+06 -3.15833e+07 1.85394e+06 1.20097e+06 4.45353e+06
56 3 O -0.473377 5.80612 2.79288 -1.2 -8.75613 -2.38659e+06 -3.48329e+06 -2.15818e+06 -772189 337351 1.18427e+06
57 1 Mg 6.40169 9.49799 0 1.2 -5.49323 1.90218e+06 -6.52103e+06 -6.51528e+06 -5.48933e+06 1.0178e+06 -2.32668e+06
58 1 Mg 3.64209 14.2057 1.4948 1.2 -8.61336 523662 1.70674e+06 4.60354e+06 -1.04047e+06 -987339 -246610
59 2 Si 5.45748 11.5215 1.4948 2.4 -34.7062 8.29687e+06 1.14525e+07 1.17804e+07 872595 371905 -1.98959e+06
60 3 O 5.51101 13.1348 1.4948 -1.2 -4.57722 -875683 -755797 -3.49574e+07 479926 -2.54072e+06 -4.38699e+06
61 3 O 1.83851 10.5475 1.4948 -1.2 -9.35771 -4.57483e+06 -1.75276e+06 -1.42067e+06 1.53309e+06 -1.55595e+06 -1.19928e+06
62 3 O 4.7611 10.8154 0.196716 -1.2 -3.40501 216917 -1.13713e+07 -3.20933e+07 -2.4649e+06 -1.76749e+06 -4.39452e+06
63 1 Mg 6.35203 9.49799 2.9896 1.2 -8.19021 4.45699e+06 -1.73673e+06 -30112 1.30131e+06 -1.12503e+06 2.11412e+06
64 3 O 4.71833 10.8154 2.79288 -1.2 -8.65454 -2.22663e+06 -3.62797e+06 -2.24627e+06 1.06826e+06 8982.66 -1.41335e+06
65 1 Mg -1.0438 9.53931 4.4844 1.2 -8.92232 -595814 2.3739e+06 3.34888e+06 -557592 -315270 58570.3
66 2 Si -2.8604 12.2234 4.4844 2.4 -33.359 1.20966e+07 8.53059e+06 8.98075e+06 -95357.8 36912.1 -20588.8
67 3 O -2.91391 10.6102 4.4844 -1.2 -9.22208 -4.26689e+06 -3830.39 -3.9745e+06 250217 -259710 -97619.5
68 3 O 0.7596 13.1975 4.4844 -1.2 -8.9944 -3.70656e+06 -2.56966e+06 -3.39113e+06 2.09281e+06 -483560 43408.1
69 3 O -2.12001 12.9296 3.18632 -1.2 -8.84244 -3.25842e+06 -3.31829e+06 -801228 1.15403e+06 -250322 -1.51477e+06
70 3 O -2.16532 12.9296 5.78248 -1.2 -8.68789 -3.34312e+06 -3.54499e+06 -1.90348e+06 1.09895e+06 -132880 1.53741e+06
71 1 Mg 1.29891 11.8725 2.9896 1.2 -8.22817 4.52911e+06 -1.69764e+06 -102265 -1.15591e+06 -1.25008e+06 -1.6156e+06
72 1 Mg 4.10033 11.8312 4.4844 1.2 -8.91304 -256836 2.31769e+06 3.14193e+06 1.08169e+06 -310774 147865
73 2 Si 2.27333 13.896 4.4844 2.4 -33.3753 1.19892e+07 8.80502e+06 8.80425e+06 704126 -159890 65715
74 3 O 2.28634 15.5093 4.4844 -1.2 -9.20044 -4.26001e+06 -201623 -3.93229e+06 448301 -138204 -38836.6
75 3 O -4.34533 12.922 4.4844 -1.2 -9.05766 -3.88938e+06 -2.42594e+06 -3.20542e+06 -1.41225e+06 -507072 -43511.2
76 3 O 2.98455 13.1899 3.18632 -1.2 -8.86509 -3.23271e+06 -3.43982e+06 -840001 -953551 -123101 1.25108e+06
77 1 Mg 1.34779 11.8725 0 1.2 -5.73887 3.15842e+06 -2.93349e+06 -6.57813e+06 3.56882e+06 792400 1.67743e+06
78 3 O 2.93934 13.1899 5.78248 -1.2 -8.68948 -3.36025e+06 -3.69654e+06 -1.93648e+06 -916171 -25273.2 -1.14306e+06
79 1 Mg -1.50344 11.9138 1.4948 1.2 -8.56166 856885 1.59148e+06 4.52643e+06 1.56717e+06 -935799 472012
80 2 Si 0.326006 9.84894 1.4948 2.4 -34.6653 8.29417e+06 1.15085e+07 1.16338e+07 -590685 65785.9 2.50188e+06
81 3 O 0.317364 8.23571 1.4948 -1.2 -4.55605 -781199 -730743 -3.54206e+07 -126082 1.20615e+06 4.0602e+06
82 3 O 6.94307 10.823 1.4948 -1.2 -9.39252 -4.71015e+06 -1.57038e+06 -1.37076e+06 -978259 -1.5535e+06 962330
83 3 O -0.343122 10.5551 0.196716 -1.2 -3.503 -72723.7 -1.0824e+07 -3.21587e+07 2.45826e+06 -2.04143e+06 4.40292e+06
84 3 O -0.385966 10.5551 2.79288 -1.2 -8.68109 -2.20858e+06 -3.68665e+06 -2.3087e+06 -875699 111214 1.0301e+06
85 1 Mg 6.49448 14.247 0 1.2 -5.70366 3.62531e+06 -2.10694e+06 -6.74307e+06 -2.97009e+06 261090 -1.4682e+06
86 1 Mg 3.74457 18.9547 1.4948 1.2 -8.65759 245796 1.98135e+06 4.60047e+06 -1.12082e+06 -991780 -232163
87 2 Si 5.55495 16.2705 1.4948 2.4 -34.6534 8.5241e+06 1.13434e+07 1.15963e+07 507014 756707 -2.20344e+06
88 3 O 5.6115 17.8838 1.4948 -1.2 -4.92514 -1.85692e+06 -794068 -3.21495e+07 84951.5 -6.02969e+06 -4.17447e+06
89 3 O 1.93416 15.2965 1.4948 -1.2 -9.39349 -4.61842e+06 -1.49953e+06 -1.32286e+06 1.53117e+06 -1.36979e+06 -1.08027e+06
90 3 O 4.85636 15.5644 0.196716 -1.2 -3.43218 240643 -1.31248e+07 -3.04859e+07 -3.02592e+06 -5.11462e+06 -3.79655e+06
91 1 Mg 6.44662 14.247 2.9896 1.2 -8.18815 4.59966e+06 -1.72333e+06 -190432 1.26895e+06 -1.18763e+06 2.013e+06
92 3 O 4.81537 15.5644 2.79288 -1.2 -8.64191 -2.20011e+06 -3.73665e+06 -2.21485e+06 1.0893e+06 14510.2 -1.31448e+06
93 1 Mg -0.948271 14.2883 4.4844 1.2 -8.93636 -519867 2.45432e+06 3.20689e+06 -513394 -234948 -77686.5
94 2 Si -2.75928 16.9724 4.4844 2.4 -33.2397 1.22224e+07 8.82252e+06 8.36986e+06 -54272.9 -95202 27882
95 3 O -2.81617 15.3592 4.4844 -1.2 -9.24711 -4.37135e+06 -123751 -3.70787e+06 301446 -177414 10833.7
96 3 O 0.862762 17.9465 4.4844 -1.2 -9.02195 -3.62131e+06 -2.72565e+06 -3.27854e+06 2.14949e+06 -570317 9577.98
97 3 O -2.0185 17.6786 3.18632 -1.2 -8.87537 -3.25282e+06 -3.4505e+06 -642592 1.16134e+06 -174864 -1.51733e+06
98 3 O -2.06164 17.6786 5.78248 -1.2 -8.8101 -3.42725e+06 -3.62161e+06 -1.49344e+06 1.1062e+06 -128034 1.28946e+06
99 1 Mg 1.39817 16.6215 2.9896 1.2 -8.20961 4.5546e+06 -1.57518e+06 -282005 -1.15062e+06 -1.20514e+06 -1.63438e+06
100 1 Mg 4.20062 16.5802 4.4844 1.2 -8.91075 -361710 2.51231e+06 3.05027e+06 1.1188e+06 -370652 115402
101 2 Si 2.37796 18.645 4.4844 2.4 -33.3197 1.17029e+07 9.0627e+06 8.74385e+06 732179 -121339 111221
102 3 O 2.39434 20.2583 4.4844 -1.2 -9.25225 -4.10492e+06 -280877 -3.93008e+06 479286 -146138 -30367
103 3 O -4.24274 17.671 4.4844 -1.2 -9.11044 -3.86428e+06 -2.55484e+06 -3.02342e+06 -1.39374e+06 -393368 -87685.4
104 3 O 3.08659 17.9389 3.18632 -1.2 -8.88146 -3.12304e+06 -3.59213e+06 -810331 -941346 -34182.4 1.26715e+06
105 1 Mg 1.44478 16.6215 0 1.2 -5.83254 4.77315e+06 144222 -6.67785e+06 1.39645e+06 -54994.6 933800
106 3 O 3.0436 17.9389 5.78248 -1.2 -8.69022 -3.14721e+06 -3.89611e+06 -1.96608e+06 -936781 -27284.8 -1.29777e+06
107 1 Mg -1.40524 16.6628 1.4948 1.2 -8.61536 667453 1.83881e+06 4.50695e+06 1.69752e+06 -947311 388957
108 2 Si 0.420358 14.5979 1.4948 2.4 -34.6818 8.39787e+06 1.14492e+07 1.16e+07 -110407 581518 2.56542e+06
109 3 O 0.408732 12.9847 1.4948 -1.2 -4.56419 -889284 -744534 -3.51103e+07 212955 -2.55904e+06 4.19753e+06
110 3 O 7.03923 15.572 1.4948 -1.2 -9.43974 -4.77963e+06 -1.3472e+06 -1.20756e+06 -941792 -1.31077e+06 987318
111 3 O -0.248332 15.3041 0.196716 -1.2 -3.53463 -94747.9 -1.26521e+07 -3.05125e+07 3.2475e+06 -5.42451e+06 3.95e+06
112 3 O -0.289436 15.3041 2.79288 -1.2 -8.67014 -2.18405e+06 -3.83587e+06 -2.24402e+06 -875874 5569.86 1.06777e+06
113 1 Mg 6.59566 18.996 0 1.2 -5.79189 4.98651e+06 645328 -6.67201e+06 -912212 -683738 -869765
114 1 Mg 3.85574 23.7037 1.4948 1.2 -8.70705 -73954.4 2.24889e+06 4.59207e+06 -1.17419e+06 -917512 -113591
115 2 Si 5.66125 21.0195 1.4948 2.4 -34.4931 8.85703e+06 1.1174e+07 1.12377e+07 189533 1.16503e+06 -2.25349e+06
116 3 O 5.72074 22.6328 1.4948 -1.2 -5.56363 -3.47488e+06 -785211 -2.71768e+07 -226102 -8.48823e+06 -3.75787e+06
117 3 O 2.03867 20.0455 1.4948 -1.2 -9.45647 -4.55281e+06 -1.36286e+06 -1.22179e+06 1.56987e+06 -1.16149e+06 -1.00281e+06
118 3 O 4.96004 20.3134 0.196716 -1.2 -3.79156 -443995 -1.467e+07 -2.64941e+07 -3.18197e+06 -7.93592e+06 -2.78339e+06
119 1 Mg 6.55057 18.996 2.9896 1.2 -8.12519 4.64563e+06 -1.61917e+06 -440893 1.29251e+06 -1.23982e+06 2.00506e+06
120 3 O 4.92172 20.3134 2.79288 -1.2 -8.68097 -2.10563e+06 -3.88789e+06 -2.13314e+06 1.07815e+06 -22372.5 -1.28625e+06
121 1 Mg -0.84282 19.0373 4.4844 1.2 -8.87389 -586686 2.52559e+06 3.09437e+06 -517515 -155875 -15313.2
122 2 Si -2.64823 21.7214 4.4844 2.4 -33.0672 1.20073e+07 9.07037e+06 8.06249e+06 -39979.6 -171300 107668
123 3 O -2.70847 20.1082 4.4844 -1.2 -9.33068 -4.32637e+06 -191518 -3.5431e+06 336026 -130366 -24851.6
124 3 O 0.97581 22.6955 4.4844 -1.2 -9.11256 -3.53602e+06 -2.83302e+06 -3.12306e+06 2.25479e+06 -576412 40691.3
125 3 O -1.9076 22.4276 3.18632 -1.2 -8.92191 -3.138e+06 -3.59706e+06 -575650 1.18554e+06 -71686.2 -1.57847e+06
126 3 O -1.9475 22.4276 5.78248 -1.2 -8.93961 -3.22637e+06 -3.7777e+06 -1.27365e+06 1.21863e+06 -80048.7 1.32575e+06
127 1 Mg 1.50678 21.3705 2.9896 1.2 -8.14289 4.54841e+06 -1.47314e+06 -484791 -1.1616e+06 -1.21082e+06 -1.61819e+06
128 1 Mg 4.31086 21.3292 4.4844 1.2 -8.8427 -532935 2.60522e+06 3.02035e+06 1.20437e+06 -387357 94198
129 2 Si 2.49243 23.394 4.4844 2.4 -33.1299 1.15367e+07 9.25153e+06 8.4133e+06 753142 -77945.9 -13025.7
130 3 O 2.51204 25.0073 4.4844 -1.2 -9.34974 -4.12812e+06 -403393 -3.63714e+06 519068 -144848 -41584.2
131 3 O -4.13026 22.42 4.4844 -1.2 -9.19033 -3.73562e+06 -2.70197e+06 -2.88256e+06 -1.42716e+06 -348191 -144115
132 3 O 3.19799 22.6879 3.18632 -1.2 -8.93224 -3.01337e+06 -3.72483e+06 -765773 -944540 33340.2 1.26059e+06
133 1 Mg 1.5501 21.3705 0 1.2 -5.87256 5.5952e+06 1.78049e+06 -6.294e+06 -68468.8 -961094 480138
134 3 O 3.1583 22.6879 5.78248 -1.2 -8.80049 -2.90466e+06 -3.90396e+06 -1.98684e+06 -1.0099e+06 -47257.4 -1.14071e+06
135 1 Mg -1.29822 21.4118 1.4948 1.2 -8.65694 370532 2.1225e+06 4.48243e+06 1.79913e+06 -931718 328676
136 2 Si 0.523568 19.3469 1.4948 2.4 -34.5648 8.59411e+06 1.13633e+07 1.13305e+07 313418 1.04887e+06 2.61843e+06
137 3 O 0.508934 17.7337 1.4948 -1.2 -4.90825 -1.85926e+06 -786694 -3.23162e+07 661215 -6.10633e+06 4.0497e+06
138 3 O 7.14425 20.321 1.4948 -1.2 -9.51106 -4.75029e+06 -1.2226e+06 -1.05642e+06 -936246 -1.05813e+06 979848
139 3 O -0.145107 20.0531 0.196716 -1.2 -3.88987 -795810 -1.43322e+07 -2.6526e+07 3.67766e+06 -8.20316e+06 3.05059e+06
140 3 O -0.183601 20.0531 2.79288 -1.2 -8.7126 -2.10633e+06 -3.99207e+06 -2.14668e+06 -842282 -74983.9 1.03861e+06
141 1 Mg 6.70502 23.745 0 1.2 -5.87506 5.47453e+06 1.97611e+06 -5.97377e+06 409621 -1.50563e+06 -480409
142 1 Mg 3.97493 28.4527 1.4948 1.2 -8.7823 -413219 2.4685e+06 4.59967e+06 -1.23019e+06 -766586 138072
143 2 Si 5.77602 25.7685 1.4948 2.4 -34.3261 9.3906e+06 1.0697e+07 1.10012e+07 -106262 1.5433e+06 -1.92292e+06
144 3 O 5.83821 27.3818 1.4948 -1.2 -6.37055 -5.17879e+06 -675714 -2.10539e+07 -336132 -9.29929e+06 -3.30849e+06
145 3 O 2.15175 24.7945 1.4948 -1.2 -9.50236 -4.5045e+06 -1.2392e+06 -1.1865e+06 1.61283e+06 -934284 -1.06051e+06
146 3 O 5.07184 25.0624 0.196716 -1.2 -4.43004 -1.68481e+06 -1.53598e+07 -2.09194e+07 -2.7885e+06 -9.43416e+06 -1.60341e+06
147 1 Mg 6.66374 23.745 2.9896 1.2 -8.06817 4.61486e+06 -1.5088e+06 -608971 1.32465e+06 -1.2712e+06 2.09965e+06
148 3 O 5.03707 25.0624 2.79288 -1.2 -8.71058 -2.05473e+06 -3.99698e+06 -2.06832e+06 1.06583e+06 -154071 -1.38494e+06
149 1 Mg -0.727559 23.7863 4.4844 1.2 -8.80216 -729110 2.68745e+06 2.95161e+06 -581877 -196223 97834.6
150 2 Si -2.5277 26.4704 4.4844 2.4 -33.1311 1.17135e+07 9.13555e+06 8.40244e+06 25765.4 -272876 444755
151 3 O -2.59107 24.8572 4.4844 -1.2 -9.35013 -4.13827e+06 -325157 -3.5614e+06 364528 -55581.6 -227022
152 3 O 1.09817 27.4445 4.4844 -1.2 -9.14238 -3.63555e+06 -2.92305e+06 -2.88907e+06 2.22648e+06 -408269 -172587
153 3 O -1.78784 27.1766 3.18632 -1.2 -8.9027 -3.04194e+06 -3.63802e+06 -716334 1.16328e+06 55827.6 -1.72168e+06
154 3 O -1.82343 27.1766 5.78248 -1.2 -8.80607 -3.11933e+06 -3.74658e+06 -1.70038e+06 1.14568e+06 165605 1.25976e+06
155 1 Mg 1.62435 26.1195 2.9896 1.2 -8.09078 4.64686e+06 -1.39099e+06 -745816 -1.15778e+06 -1.30259e+06 -1.43411e+06
156 1 Mg 4.43064 26.0782 4.4844 1.2 -8.79772 -574105 2.71395e+06 2.88139e+06 1.24891e+06 -159889 215577
157 2 Si 2.61607 28.143 4.4844 2.4 -33.0934 1.17714e+07 9.39709e+06 7.97363e+06 735306 -53264 552119
158 3 O 2.63853 29.7563 4.4844 -1.2 -9.30305 -4.18544e+06 -404972 -3.6537e+06 578621 -113952 -323787
159 3 O -4.00841 27.169 4.4844 -1.2 -9.16451 -3.66351e+06 -2.72567e+06 -2.96938e+06 -1.356e+06 -433455 -252704
160 3 O 3.3182 27.4369 3.18632 -1.2 -8.94105 -3.01672e+06 -3.81327e+06 -736380 -899005 71268.8 1.04816e+06
161 1 Mg 1.66335 26.1195 0 1.2 -5.94238 5.44531e+06 2.4178e+06 -5.45032e+06 -889596 -1.578e+06 437690
162 3 O 3.28288 27.4369 5.78248 -1.2 -8.91242 -3.05732e+06 -4.0406e+06 -1.38931e+06 -893393 -260635 -1.40386e+06
163 1 Mg -1.18278 26.1608 1.4948 1.2 -8.72729 24692 2.34582e+06 4.52543e+06 1.87953e+06 -852134 399471
164 2 Si 0.635424 24.0959 1.4948 2.4 -34.3962 9.05224e+06 1.10335e+07 1.09994e+07 726047 1.3855e+06 2.79053e+06
165 3 O 0.617906 22.4827 1.4948 -1.2 -5.54945 -3.49061e+06 -774237 -2.73294e+07 1.02066e+06 -8.55979e+06 3.58243e+06
166 3 O 7.25781 25.07 1.4948 -1.2 -9.54709 -4.66e+06 -1.08941e+06 -1.10241e+06 -932127 -825538 851335
167 3 O -0.0337363 24.8021 0.196716 -1.2 -4.51834 -2.01928e+06 -1.53215e+07 -2.08936e+07 3.50764e+06 -9.63191e+06 1.69067e+06
168 3 O -0.0687235 24.8021 2.79288 -1.2 -8.75078 -2.07082e+06 -4.11839e+06 -2.04756e+06 -805468 -77771.2 878203
169 1 Mg 6.82195 28.494 0 1.2 -5.98556 4.98989e+06 2.47109e+06 -4.92753e+06 1.14876e+06 -1.82423e+06 -223507
170 1 Mg 4.10106 33.2017 1.4948 1.2 -8.84587 -792326 2.64123e+06 4.56745e+06 -1.20534e+06 -547622 190050
171 2 Si 5.89839 30.5175 1.4948 2.4 -34.1358 1.01207e+07 1.00696e+07 1.06766e+07 -344306 1.67561e+06 -1.5652e+06
172 3 O 5.96289 32.1308 1.4948 -1.2 -7.23246 -6.32346e+06 -562963 -1.49858e+07 -284869 -8.44526e+06 -2.72447e+06
173 3 O 2.27266 29.5435 1.4948 -1.2 -9.50702 -4.4364e+06 -1.13599e+06 -1.30209e+06 1.65726e+06 -714725 -1.19918e+06
174 3 O 5.19102 29.8114 0.196716 -1.2 -5.28782 -3.01177e+06 -1.49461e+07 -1.48294e+07 -1.92992e+06 -9.29787e+06 -422255
175 1 Mg 6.78546 28.494 2.9896 1.2 -8.06426 4.66387e+06 -1.4993e+06 -668212 1.30776e+06 -1.31311e+06 2.18875e+06
176 3 O 5.16061 29.8114 2.79288 -1.2 -8.704 -2.1177e+06 -4.01359e+06 -2.03717e+06 1.13068e+06 -213069 -1.49388e+06
177 1 Mg -0.603205 28.5353 4.4844 1.2 -8.83795 -740482 2.72431e+06 2.97766e+06 -415431 -252646 212289
178 2 Si -2.39877 31.2194 4.4844 2.4 -33.1486 1.19605e+07 9.29722e+06 8.0234e+06 96991.2 -206315 614120
179 3 O -2.46483 29.6062 4.4844 -1.2 -9.31972 -4.18908e+06 -393907 -3.47706e+06 363667 -35871.6 -207436
180 3 O 1.22864 32.1935 4.4844 -1.2 -9.06956 -3.66967e+06 -2.87687e+06 -3.01847e+06 2.25054e+06 -430644 -290120
181 3 O -1.66032 31.9256 3.18632 -1.2 -8.87756 -3.05276e+06 -3.65292e+06 -809442 1.15049e+06 80942.7 -1.79358e+06
182 3 O -1.69072 31.9256 5.78248 -1.2 -8.82345 -3.24213e+06 -3.86263e+06 -1.27266e+06 1.15821e+06 -24718.5 975266
183 1 Mg 1.7499 30.8685 2.9896 1.2 -8.10308 4.71299e+06 -1.40918e+06 -767424 -1.12983e+06 -1.36855e+06 -1.25685e+06
184 1 Mg 4.55894 30.8272 4.4844 1.2 -8.84888 -524284 2.72854e+06 2.90162e+06 1.17189e+06 -226962 337099
185 2 Si 2.7476 32.892 4.4844 2.4 -33.2467 1.17294e+07 9.29485e+06 8.3686e+06 779507 -150440 669790
186 3 O 2.77235 34.5053 4.4844 -1.2 -9.25397 -4.14955e+06 -313990 -3.85656e+06 560675 -73300.2 -278721
187 3 O -3.87837 31.918 4.4844 -1.2 -9.15774 -3.82591e+06 -2.75744e+06 -2.78981e+06 -1.32756e+06 -313993 -379175
188 3 O 3.44611 32.1859 3.18632 -1.2 -8.89798 -2.96513e+06 -3.80492e+06 -955883 -872699 188743 955959
189 1 Mg 1.7837 30.8685 0 1.2 -6.04099 4.4393e+06 2.58956e+06 -4.51874e+06 -1.34907e+06 -1.54007e+06 630020
190 3 O 3.41602 32.1859 5.78248 -1.2 -8.75733 -3.0599e+06 -4.08815e+06 -1.61092e+06 -904689 -57613.5 -1.51796e+06
191 1 Mg -1.05984 30.9098 1.4948 1.2 -8.7987 -325560 2.54924e+06 4.48487e+06 1.9145e+06 -630529 407132
192 2 Si 0.755243 28.8449 1.4948 2.4 -34.2269 9.73681e+06 1.04495e+07 1.07125e+07 1.15064e+06 1.58707e+06 3.02286e+06
193 3 O 0.735127 27.2317 1.4948 -1.2 -6.36469 -5.23545e+06 -676728 -2.11428e+07 1.17328e+06 -9.3116e+06 2.81067e+06
194 3 O 7.37914 29.819 1.4948 -1.2 -9.553 -4.59144e+06 -1.00387e+06 -1.21391e+06 -932574 -612730 745649
195 3 O 0.0850649 29.5511 0.196716 -1.2 -5.35191 -3.27115e+06 -1.52942e+07 -1.47656e+07 2.69539e+06 -9.42298e+06 207872
196 3 O 0.0543974 29.5511 2.79288 -1.2 -8.74631 -2.13091e+06 -4.14582e+06 -2.01717e+06 -857333 -131503 688183
197 1 Mg 6.94543 33.243 0 1.2 -6.10004 3.87314e+06 2.56242e+06 -4.04514e+06 1.58122e+06 -1.4382e+06 -495433
198 1 Mg 4.23267 37.9507 1.4948 1.2 -8.84986 -1.17428e+06 2.8201e+06 4.36241e+06 -1.11207e+06 -239621 103325
199 2 Si 6.02709 35.2665 1.4948 2.4 -33.8909 1.07801e+07 9.30278e+06 1.04415e+07 -415079 1.56791e+06 -1.55693e+06
200 3 O 6.09339 36.8798 1.4948 -1.2 -8.03247 -6.52529e+06 -469038 -1.00896e+07 -141677 -6.5879e+06 -2.0739e+06
201 3 O 2.40018 34.2925 1.4948 -1.2 -9.50059 -4.31416e+06 -1.07428e+06 -1.5482e+06 1.68924e+06 -521371 -1.11476e+06
202 3 O 5.31645 34.5604 0.196716 -1.2 -6.23515 -3.9884e+06 -1.33339e+07 -9.51083e+06 -955740 -7.84217e+06 821222
203 1 Mg 6.91449 33.243 2.9896 1.2 -8.05203 4.76843e+06 -1.54676e+06 -736672 1.30337e+06 -1.40418e+06 2.20763e+06
204 3 O 5.291 34.5604 2.79288 -1.2 -8.71787 -2.19814e+06 -3.9347e+06 -2.04941e+06 1.12916e+06 -231911 -1.42562e+06
205 1 Mg -0.471101 33.2843 4.4844 1.2 -8.87848 -683874 2.61508e+06 3.08933e+06 -441062 -123372 309203
206 2 Si -2.26307 35.9684 4.4844 2.4 -33.1226 1.19668e+07 9.02972e+06 8.24645e+06 53165 -241438 250862
207 3 O -2.33122 34.3552 4.4844 -1.2 -9.3043 -4.26756e+06 -207197 -3.60781e+06 426286 -25254.5 -246086
208 3 O 1.36549 36.9425 4.4844 -1.2 -9.10956 -3.63464e+06 -2.87399e+06 -2.99652e+06 2.2698e+06 -437417 -73828.9
209 3 O -1.52658 36.6746 3.18632 -1.2 -8.89526 -2.96525e+06 -3.65691e+06 -960062 1.16317e+06 126217 -1.61068e+06
210 3 O -1.55122 36.6746 5.78248 -1.2 -8.8635 -3.19555e+06 -3.75097e+06 -1.29204e+06 1.16836e+06 59774.2 1.37782e+06
211 1 Mg 1.882 35.6175 2.9896 1.2 -8.08487 4.7083e+06 -1.44651e+06 -744451 -1.1046e+06 -1.44203e+06 -1.37137e+06
212 1 Mg 4.69415 35.5762 4.4844 1.2 -8.85989 -534585 2.60987e+06 3.04905e+06 1.21827e+06 -231682 224329
213 2 Si 2.88522 37.641 4.4844 2.4 -33.1477 1.14069e+07 9.39689e+06 8.43222e+06 829457 -79569.9 213295
214 3 O 2.91159 39.2543 4.4844 -1.2 -9.34719 -3.96405e+06 -464590 -3.74531e+06 563479 -93487 -126405
215 3 O -3.74183 36.667 4.4844 -1.2 -9.1925 -3.82261e+06 -2.70288e+06 -2.79688e+06 -1.29555e+06 -214891 -171722
216 3 O 3.58014 36.9349 3.18632 -1.2 -8.9129 -2.82095e+06 -3.83755e+06 -1.14911e+06 -873450 239922 1.10311e+06
217 1 Mg 1.90997 35.6175 0 1.2 -6.14108 3.16458e+06 2.45226e+06 -3.92506e+06 -1.6532e+06 -779283 955699
218 3 O 3.55582 36.9349 5.78248 -1.2 -8.75729 -2.82778e+06 -4.03172e+06 -1.85444e+06 -945066 6321.08 -1.30006e+06
219 1 Mg -0.93068 35.6588 1.4948 1.2 -8.83089 -682959 2.68108e+06 4.36989e+06 1.84969e+06 -308832 230569
220 2 Si 0.881882 33.5939 1.4948 2.4 -34.0191 1.04186e+07 9.69285e+06 1.05255e+07 1.41562e+06 1.65221e+06 2.72904e+06
221 3 O 0.859602 31.9807 1.4948 -1.2 -7.22217 -6.36783e+06 -550550 -1.51134e+07 1.15429e+06 -8.48104e+06 2.15789e+06
222 3 O 7.507 34.568 1.4948 -1.2 -9.55424 -4.49317e+06 -953825 -1.42709e+06 -927562 -419080 847727
223 3 O 0.210186 34.3001 0.196716 -1.2 -6.2681 -4.14663e+06 -1.40408e+07 -9.44126e+06 1.5361e+06 -7.93624e+06 -865216
224 3 O 0.184454 34.3001 2.79288 -1.2 -8.75626 -2.20772e+06 -4.06958e+06 -2.04668e+06 -849564 -211105 716656
225 1 Mg 7.07415 37.992 0 1.2 -6.19347 2.62858e+06 2.41857e+06 -3.65637e+06 1.87228e+06 -406159 -1.17681e+06
226 1 Mg 4.36817 42.6997 1.4948 1.2 -8.80041 -1.43896e+06 3.01064e+06 3.97544e+06 -997727 111323 40365.2
227 2 Si 6.16058 40.0155 1.4948 2.4 -33.5849 1.11416e+07 8.77993e+06 1.01201e+07 -357997 1.26527e+06 -1.47061e+06
228 3 O 6.22815 41.6288 1.4948 -1.2 -8.6886 -5.95334e+06 -499499 -6.6709e+06 24172.6 -4.49117e+06 -1.64006e+06
229 3 O 2.53282 39.0415 1.4948 -1.2 -9.51844 -4.14237e+06 -1.19683e+06 -1.72925e+06 1.71301e+06 -357403 -1.00718e+06
230 3 O 5.44674 39.3094 0.196716 -1.2 -7.1421 -4.36603e+06 -1.09563e+07 -5.61763e+06 -160605 -5.75394e+06 1.73182e+06
231 1 Mg 7.04922 37.992 2.9896 1.2 -7.9911 4.70694e+06 -1.47872e+06 -829957 1.2912e+06 -1.52374e+06 2.04833e+06
232 3 O 5.42658 39.3094 2.79288 -1.2 -8.79567 -2.1795e+06 -3.99108e+06 -1.91763e+06 1.12216e+06 -246983 -1.31226e+06
233 1 Mg -0.333062 38.0333 4.4844 1.2 -8.79723 -766597 2.70451e+06 2.94785e+06 -447714 -55022.8 117320
234 2 Si -2.12255 40.7174 4.4844 2.4 -32.9526 1.16328e+07 9.22572e+06 8.11641e+06 53562.7 -356783 297028
235 3 O -2.19212 39.1042 4.4844 -1.2 -9.39669 -4.12692e+06 -377994 -3.42664e+06 462514 42194.3 -151863
236 3 O 1.50676 41.6915 4.4844 -1.2 -9.21625 -3.54312e+06 -2.91262e+06 -2.88411e+06 2.30329e+06 -381182 -53054.4
237 3 O -1.3884 41.4236 3.18632 -1.2 -8.95224 -2.78083e+06 -3.75503e+06 -1.06026e+06 1.15603e+06 165542 -1.54477e+06
238 3 O -1.40713 41.4236 5.78248 -1.2 -8.95307 -3.0633e+06 -3.69037e+06 -1.30319e+06 1.23311e+06 170140 1.24251e+06
239 1 Mg 2.01892 40.3665 2.9896 1.2 -8.00278 4.61464e+06 -1.33117e+06 -884463 -1.09202e+06 -1.52363e+06 -1.44546e+06
240 1 Mg 4.83434 40.3252 4.4844 1.2 -8.77444 -730127 2.73177e+06 2.98587e+06 1.26908e+06 -160173 184668
241 2 Si 3.02698 42.39 4.4844 2.4 -32.9711 1.11468e+07 9.40025e+06 8.40853e+06 763881 11251.3 85421.6
242 3 O 3.05433 44.0033 4.4844 -1.2 -9.43071 -3.85134e+06 -473206 -3.71692e+06 627307 -68276.1 22400.8
243 3 O -3.60077 41.416 4.4844 -1.2 -9.26393 -3.65708e+06 -2.74037e+06 -2.80979e+06 -1.31785e+06 -121667 -171161
244 3 O 3.71851 41.6839 3.18632 -1.2 -8.97201 -2.64157e+06 -3.9319e+06 -1.24981e+06 -851853 223426 1.1509e+06
245 1 Mg 2.04077 40.3665 0 1.2 -6.17822 2.12935e+06 2.3247e+06 -4.12392e+06 -1.84389e+06 428702 1.646e+06
246 3 O 3.70011 41.6839 5.78248 -1.2 -8.85645 -2.66238e+06 -3.96675e+06 -1.87502e+06 -910709 -73405.9 -1.32194e+06
247 1 Mg -0.796865 40.4078 1.4948 1.2 -8.79596 -1.00328e+06 2.88675e+06 4.03696e+06 1.74196e+06 53956.1 121169
248 2 Si 1.01387 38.3429 1.4948 2.4 -33.7207 1.09512e+07 9.07428e+06 1.01686e+07 1.52422e+06 1.50929e+06 2.20179e+06
249 3 O 0.989947 36.7297 1.4948 -1.2 -8.02348 -6.59299e+06 -456131 -1.02003e+07 1.03765e+06 -6.65375e+06 1.79954e+06
250 3 O 7.63988 39.317 1.4948 -1.2 -9.56967 -4.29201e+06 -1.09428e+06 -1.63669e+06 -926217 -246691 976326
251 3 O 0.340253 39.0491 0.196716 -1.2 -7.15541 -4.49652e+06 -1.18671e+07 -5.5095e+06 398592 -5.87557e+06 -1.6196e+06
252 3 O 0.319795 39.0491 2.79288 -1.2 -8.84099 -2.23056e+06 -4.12742e+06 -1.86976e+06 -845475 -249365 813488
253 1 Mg 7.20667 42.741 0 1.2 -6.21263 1.70946e+06 2.33649e+06 -4.08818e+06 2.00823e+06 907269 -2.08136e+06
254 1 Mg 4.50613 47.4487 1.4948 1.2 -8.74501 -1.45953e+06 3.10452e+06 3.6102e+06 -856085 430324 10908.2
255 2 Si 6.29731 44.7645 1.4948 2.4 -33.3174 1.13604e+07 8.35862e+06 9.87074e+06 -211808 866701 -1.44309e+06
256 3 O 6.36567 46.3778 1.4948 -1.2 -9.13741 -5.11041e+06 -520956 -4.67229e+06 171059 -2.68354e+06 -1.31806e+06
257 3 O 2.669 43.7905 1.4948 -1.2 -9.52228 -3.94972e+06 -1.44079e+06 -1.94199e+06 1.73345e+06 -225033 -916314
258 3 O 5.58048 44.0584 0.196716 -1.2 -7.90521 -4.23745e+06 -8.40678e+06 -3.10911e+06 317000 -3.69714e+06 2.3782e+06
259 1 Mg 7.1879 42.741 2.9896 1.2 -7.92422 4.56389e+06 -1.4024e+06 -857045 1.29587e+06 -1.63814e+06 1.95794e+06
260 3 O 5.56564 44.0584 2.79288 -1.2 -8.88013 -2.20415e+06 -4.00076e+06 -1.77239e+06 1.12215e+06 -259885 -1.18456e+06
261 1 Mg -0.19105 42.7823 4.4844 1.2 -8.70545 -870583 2.71531e+06 2.88999e+06 -435355 -47041.3 62167.5
262 2 Si -1.97909 45.4664 4.4844 2.4 -32.8287 1.11883e+07 9.42835e+06 8.16185e+06 184032 -271045 140932
263 3 O -2.04947 43.8532 4.4844 -1.2 -9.46465 -3.93004e+06 -432318 -3.4606e+06 412434 90304.4 -31345.5
264 3 O 1.65063 46.4405 4.4844 -1.2 -9.284 -3.46678e+06 -2.99566e+06 -2.77488e+06 2.34967e+06 -216174 31545.3
265 3 O -1.24745 46.1726 3.18632 -1.2 -8.9818 -2.59016e+06 -3.82638e+06 -1.23604e+06 1.13285e+06 132697 -1.46079e+06
266 3 O -1.26044 46.1726 5.78248 -1.2 -8.99663 -2.6827e+06 -3.82366e+06 -1.42999e+06 1.19517e+06 201126 1.22659e+06
267 1 Mg 2.15896 45.1155 2.9896 1.2 -7.94266 4.50981e+06 -1.25086e+06 -940590 -1.09495e+06 -1.6434e+06 -1.5443e+06
268 1 Mg 4.97763 45.0742 4.4844 1.2 -8.68374 -799966 2.79569e+06 2.84631e+06 1.27144e+06 -85833.3 -7167.69
269 2 Si 3.1711 47.139 4.4844 2.4 -32.8265 1.10359e+07 9.5752e+06 8.11346e+06 727266 -39433.2 -24569.6