ITEM: TIMESTEP
51700
ITEM: NUMBER OF ATOMS
10500
ITEM: BOX BOUNDS xy xz yz pp pp pp
0.0000000000000000e+00 1.5297749999999999e+01 5.0992499999999996e+00
0.0000000000000000e+00 1.1872499999999999e+02 0.0000000000000000e+00
0.0000000000000000e+00 8.9688000000000002e+01 0.0000000000000000e+00
ITEM: ATOMS id type element xu yu zu q c_pe c_s[1] c_s[2] c_s[3] c_s[4] c_s[5] c_s[6]
1 1 Mg 6.2404 -6.37941e-06 0 1.2 -4.21054 7.57285e+06 -2.34668e+06 -5.74192e+06 -6159.83 2.60453e+06 -708536
2 1 Mg 3.46349 4.70768 1.4948 1.2 -8.22213 -740644 2.32899e+06 4.68103e+06 -919155 -663090 -568929
3 2 Si 5.2885 2.02354 1.4948 2.4 -34.8365 9.41563e+06 1.00011e+07 1.21899e+07 8.90637e+06 624581 -4.22175e+06
4 3 O 5.33628 3.63678 1.4948 -1.2 -4.96308 -475023 -1.01211e+06 -3.40594e+07 -355299 3.83164e+06 -3.25336e+06
5 3 O 1.67294 1.04952 1.4948 -1.2 -1.2273 -1.99701e+07 -7.88931e+07 -2.66455e+06 -2.41074e+07 -120597 450773
6 3 O 4.59532 1.31737 0.196716 -1.2 -3.25381 -1.59705e+06 -6.18467e+06 -3.09834e+07 -6.03369e+06 6.26686e+06 -2.06729e+06
7 1 Mg 6.18956 -6.37941e-06 2.9896 1.2 -4.80553 1.48999e+06 -2.87315e+07 -2.59456e+06 -8.79388e+06 2.38398e+06 3.61777e+06
8 3 O 4.55118 1.31737 2.79288 -1.2 -7.65298 352938 -4.21422e+06 -3.61684e+06 -2.99627e+06 -3.30537e+06 -601503
9 1 Mg -1.20682 0.0413099 4.4844 1.2 8.97254 -3.07124e+07 -9.3883e+07 119503 -2.85437e+07 -955869 -137739
10 2 Si -3.0337 2.72544 4.4844 2.4 -32.827 1.42897e+07 5.83955e+06 8.84589e+06 1.66587e+06 274821 -1.37059e+06
11 3 O -3.08099 1.11221 4.4844 -1.2 -9.73417 -6.28291e+06 594971 -2.40421e+06 -1.28641e+06 -248274 585999
12 3 O 0.582463 3.69946 4.4844 -1.2 -9.07595 -2.8545e+06 -5.00277e+06 -3.56251e+06 -491171 -214446 471351
13 3 O -2.29524 3.43162 3.18632 -1.2 -9.25036 -3.97327e+06 -2.01301e+06 -1.0234e+06 1.10577e+06 -911488 -405751
14 3 O -2.34216 3.43162 5.78248 -1.2 -8.95142 -3.9382e+06 -2.54914e+06 -2.12308e+06 830295 440473 1.52601e+06
15 1 Mg 1.12778 2.37449 2.9896 1.2 -7.46041 4.81133e+06 -2.11822e+06 -59570.7 -3.31773e+06 -4.1867e+06 -2.7949e+06
16 1 Mg 3.92855 2.33318 4.4844 1.2 -8.34666 -4.31794e+06 4.44315e+06 5.2735e+06 1.44593e+06 110796 14345.4
17 2 Si 2.09341 4.39804 4.4844 2.4 -32.0665 1.1169e+07 5.90633e+06 1.02241e+07 224441 -485286 -773746
18 3 O 2.09991 6.01128 4.4844 -1.2 -9.73102 -3.49811e+06 328196 -4.40939e+06 518132 -78684.7 676846
19 3 O -4.52137 3.42402 4.4844 -1.2 -9.35699 -2.8186e+06 -2.31311e+06 -3.96875e+06 -2.49877e+06 -838131 515494
20 3 O 2.80834 3.69187 3.18632 -1.2 -9.51788 -1.7597e+06 -2.36966e+06 -944395 443718 -396801 125598
21 1 Mg 1.17857 2.37449 0 1.2 -4.89538 -1.02404e+06 -1.53235e+07 -5.89173e+06 6.50892e+06 1.20343e+06 3.93859e+06
22 3 O 2.76143 3.69187 5.78248 -1.2 -9.41952 -2.47313e+06 -1.90974e+06 -1.9144e+06 428990 332322 489023
23 1 Mg -1.67381 2.41581 1.4948 1.2 -7.37087 1.24606e+06 -711913 4.54194e+06 1.34491e+06 -538548 439958
24 2 Si 0.16286 0.350945 1.4948 2.4 -24.2167 -8.82689e+06 1.14346e+07 1.24899e+07 1.54602e+06 2.94418e+06 223498
25 3 O 0.15972 -1.26229 1.4948 -1.2 -4.91546 -1.04012e+07 -7.5145e+06 -2.9493e+07 -5.58801e+06 -8.60117e+06 -2.28669e+06
26 3 O 6.77654 1.32496 1.4948 -1.2 -10.5531 -5.49294e+06 2.27868e+06 -1.82111e+06 -660181 -650256 1.60071e+06
27 3 O -0.508028 1.05712 0.196716 -1.2 -9.74728 459798 -4.17283e+06 -1.20157e+06 -545901 171351 -3.96456e+06
28 3 O -0.552171 1.05712 2.79288 -1.2 -6.93254 -5.08807e+06 -4.09344e+06 -2.519e+07 1.45841e+06 -6.89804e+06 -5.06488e+06
29 1 Mg 6.31713 4.74899 0 1.2 -4.66142 -53476.7 -1.32796e+07 -5.75081e+06 -7.29594e+06 1.4323e+06 -4.25767e+06
30 1 Mg 3.54847 9.45668 1.4948 1.2 -7.9521 -323706 1.78899e+06 4.35009e+06 -959469 -969417 -981242
31 2 Si 5.36879 6.77254 1.4948 2.4 -33.6692 6.3621e+06 1.16479e+07 1.18822e+07 1.68311e+06 127094 -3.28156e+06
32 3 O 5.41937 8.38578 1.4948 -1.2 -5.11591 214281 -897021 -3.52237e+07 769712 1.12618e+06 -3.56181e+06
33 3 O 1.75158 5.79852 1.4948 -1.2 -9.77959 -3.52121e+06 -2.08676e+06 -1.73639e+06 1.96953e+06 -1.56985e+06 -687067
34 3 O 4.67421 6.06637 0.196716 -1.2 -4.07479 612505 -9.85293e+06 -3.1711e+07 -2.03414e+06 1.32609e+06 -3.8189e+06
35 1 Mg 6.26654 4.74899 2.9896 1.2 -7.78625 3.82205e+06 -2.10358e+06 326752 1.81991e+06 -814320 1.29771e+06
36 3 O 4.63043 6.06637 2.79288 -1.2 -9.13755 -1.22049e+06 -3.66685e+06 -2.43249e+06 916714 -83170.8 -761909
37 1 Mg -1.12976 4.79031 4.4844 1.2 -8.62787 -932649 2.2693e+06 3.35721e+06 -775820 -335871 -731871
38 2 Si -2.9517 7.47444 4.4844 2.4 -32.1871 1.02896e+07 8.39238e+06 9.04505e+06 27877.4 114163 -1.70669e+06
39 3 O -3.00198 5.86121 4.4844 -1.2 -9.69002 -3.65823e+06 299789 -4.1302e+06 71165.5 -309155 744452
40 3 O 0.666315 8.44846 4.4844 -1.2 -9.61583 -2.71861e+06 -2.64504e+06 -3.31539e+06 2.10483e+06 -458785 854805
41 3 O -2.21213 8.18062 3.18632 -1.2 -9.43926 -2.38637e+06 -3.28603e+06 -745024 1.1074e+06 -348425 -666925
42 3 O -2.25864 8.18062 5.78248 -1.2 -9.35168 -2.23554e+06 -3.48465e+06 -2.04021e+06 998801 -87194.1 2.24131e+06
43 1 Mg 1.20893 7.12349 2.9896 1.2 -7.69519 3.57736e+06 -1.76655e+06 67685.4 -1.28153e+06 -1.35692e+06 -2.42659e+06
44 1 Mg 4.00982 7.08218 4.4844 1.2 -8.33764 -1.27382e+06 2.26432e+06 3.28637e+06 1.04321e+06 -316469 -690176
45 2 Si 2.17861 9.14704 4.4844 2.4 -32.0658 9.80079e+06 9.12164e+06 8.57199e+06 629213 -143362 -1.40616e+06
46 3 O 2.18828 10.7603 4.4844 -1.2 -9.85782 -3.13241e+06 -308958 -3.9146e+06 411554 -173153 613165
47 3 O -4.43805 8.17302 4.4844 -1.2 -9.69377 -2.86288e+06 -2.44674e+06 -3.2031e+06 -1.49578e+06 -529570 784670
48 3 O 2.89193 8.44087 3.18632 -1.2 -9.46232 -2.21191e+06 -3.55067e+06 -777001 -929354 -180163 2.00647e+06
49 1 Mg 1.25915 7.12349 0 1.2 -4.98265 456616 -7.74587e+06 -6.17392e+06 5.8871e+06 1.38168e+06 2.02647e+06
50 3 O 2.84547 8.44087 5.78248 -1.2 -9.41849 -2.17042e+06 -3.86481e+06 -1.65984e+06 -921276 -123837 -285616
51 1 Mg -1.59284 7.16481 1.4948 1.2 -7.93229 294865 1.19393e+06 4.49389e+06 1.44882e+06 -878599 -348067
52 2 Si 0.240329 5.09994 1.4948 2.4 -33.5458 7.38426e+06 1.02408e+07 1.20699e+07 -1.9979e+06 -1.04268e+06 632463
53 3 O 0.234538 3.48671 1.4948 -1.2 -5.44521 -1.3743e+06 852084 -3.42877e+07 422047 5.16569e+06 4.58431e+06
54 3 O 6.85564 6.07396 1.4948 -1.2 -9.87362 -3.96559e+06 -1.53641e+06 -1.65268e+06 -1.34391e+06 -1.85567e+06 1.83622e+06
55 3 O -0.429565 5.80612 0.196716 -1.2 -4.31524 -188684 -8.47586e+06 -3.18586e+07 1.87708e+06 1.16988e+06 5.18242e+06
56 3 O -0.473377 5.80612 2.79288 -1.2 -9.19364 -1.68018e+06 -3.23753e+06 -2.40976e+06 -757694 282000 2.0207e+06
57 1 Mg 6.40169 9.49799 0 1.2 -4.89553 919856 -6.38045e+06 -6.63114e+06 -5.49048e+06 971899 -3.05634e+06
58 1 Mg 3.64209 14.2057 1.4948 1.2 -8.00539 -475317 1.96944e+06 4.36572e+06 -1.03078e+06 -1.02766e+06 -1.02756e+06
59 2 Si 5.45748 11.5215 1.4948 2.4 -33.4484 6.30387e+06 1.19927e+07 1.12179e+07 857742 231730 -3.58861e+06
60 3 O 5.51101 13.1348 1.4948 -1.2 -5.20503 121534 -1.04691e+06 -3.46577e+07 480175 -2.46701e+06 -3.59598e+06
61 3 O 1.83851 10.5475 1.4948 -1.2 -9.96737 -3.57331e+06 -1.9909e+06 -1.20754e+06 1.52717e+06 -1.57939e+06 -407691
62 3 O 4.7611 10.8154 0.196716 -1.2 -4.02757 1.20617e+06 -1.16185e+07 -3.18369e+07 -2.46269e+06 -1.69607e+06 -3.6438e+06
63 1 Mg 6.35203 9.49799 2.9896 1.2 -7.57443 3.53934e+06 -1.61085e+06 -224947 1.2846e+06 -1.17585e+06 1.24209e+06
64 3 O 4.71833 10.8154 2.79288 -1.2 -9.28788 -1.20023e+06 -3.85987e+06 -2.02819e+06 1.08568e+06 99804.1 -594319
65 1 Mg -1.0438 9.53931 4.4844 1.2 -8.28227 -1.53526e+06 2.51479e+06 3.12206e+06 -517212 -265947 -836655
66 2 Si -2.8604 12.2234 4.4844 2.4 -31.8484 1.02297e+07 8.80759e+06 8.14718e+06 -132085 -48512 -1.76141e+06
67 3 O -2.91391 10.6102 4.4844 -1.2 -9.9361 -3.32433e+06 -127672 -3.65094e+06 270604 -226538 782298
68 3 O 0.7596 13.1975 4.4844 -1.2 -9.65892 -2.53005e+06 -2.77861e+06 -3.29926e+06 2.08545e+06 -676991 865595
69 3 O -2.12001 12.9296 3.18632 -1.2 -9.52415 -2.29632e+06 -3.57323e+06 -417536 1.16168e+06 -288665 -695127
70 3 O -2.16532 12.9296 5.78248 -1.2 -9.5856 -2.4231e+06 -3.51779e+06 -1.34279e+06 1.04428e+06 -287106 2.47055e+06
71 1 Mg 1.29891 11.8725 2.9896 1.2 -7.59651 3.43509e+06 -1.42821e+06 -289696 -1.14058e+06 -1.17486e+06 -2.41719e+06
72 1 Mg 4.10033 11.8312 4.4844 1.2 -8.24282 -1.48673e+06 2.53929e+06 3.07557e+06 1.04955e+06 -448595 -608914
73 2 Si 2.27333 13.896 4.4844 2.4 -32.0823 9.45371e+06 9.26541e+06 8.80562e+06 768829 -3322.94 -1.58812e+06
74 3 O 2.28634 15.5093 4.4844 -1.2 -9.84937 -3.0617e+06 -443792 -3.85436e+06 449319 -239242 775537
75 3 O -4.34533 12.922 4.4844 -1.2 -9.79593 -2.82977e+06 -2.60337e+06 -2.90873e+06 -1.37435e+06 -267220 786911
76 3 O 2.98455 13.1899 3.18632 -1.2 -9.50168 -2.0839e+06 -3.70656e+06 -704341 -967820 -98773.3 2.04753e+06
77 1 Mg 1.34779 11.8725 0 1.2 -5.10816 2.17509e+06 -2.63757e+06 -6.9012e+06 3.5727e+06 836394 906901
78 3 O 2.93934 13.1899 5.78248 -1.2 -9.31444 -1.94044e+06 -3.89409e+06 -2.09667e+06 -989868 -53426.8 -365015
79 1 Mg -1.50344 11.9138 1.4948 1.2 -7.93096 -132658 1.87523e+06 4.22173e+06 1.56767e+06 -887392 -335122
80 2 Si 0.326006 9.84894 1.4948 2.4 -33.4704 6.35696e+06 1.18857e+07 1.12795e+07 -578807 185548 905123
81 3 O 0.317364 8.23571 1.4948 -1.2 -5.10707 116645 -767884 -3.53988e+07 -125635 1.15588e+06 4.8615e+06
82 3 O 6.94307 10.823 1.4948 -1.2 -10.0156 -3.73774e+06 -1.8069e+06 -1.10836e+06 -972010 -1.52977e+06 1.77045e+06
83 3 O -0.343122 10.5551 0.196716 -1.2 -4.11945 921447 -1.10619e+07 -3.19264e+07 2.457e+06 -2.11363e+06 5.1521e+06
84 3 O -0.385966 10.5551 2.79288 -1.2 -9.30498 -1.21885e+06 -3.91037e+06 -2.07588e+06 -893853 28126.8 1.86426e+06
85 1 Mg 6.49448 14.247 0 1.2 -5.11238 2.65307e+06 -1.83794e+06 -6.98717e+06 -2.96973e+06 217750 -2.24896e+06
86 1 Mg 3.74457 18.9547 1.4948 1.2 -8.19001 -483401 1.94023e+06 4.62166e+06 -1.10257e+06 -985796 -683971
87 2 Si 5.55495 16.2705 1.4948 2.4 -33.5342 6.72091e+06 1.16545e+07 1.12952e+07 552624 658271 -3.51779e+06
88 3 O 5.6115 17.8838 1.4948 -1.2 -5.42774 -1.03676e+06 -830427 -3.21277e+07 59500.9 -6.00375e+06 -3.65246e+06
89 3 O 1.93416 15.2965 1.4948 -1.2 -9.97811 -3.66769e+06 -1.71188e+06 -1.12469e+06 1.5347e+06 -1.39871e+06 -329721
90 3 O 4.85636 15.5644 0.196716 -1.2 -3.98802 1.12798e+06 -1.32909e+07 -3.03165e+07 -3.03357e+06 -5.061e+06 -3.05503e+06
91 1 Mg 6.44662 14.247 2.9896 1.2 -7.52533 3.62182e+06 -1.46026e+06 -537569 1.27624e+06 -1.27913e+06 1.26112e+06
92 3 O 4.81537 15.5644 2.79288 -1.2 -9.2549 -1.18555e+06 -3.95967e+06 -2.02411e+06 1.04438e+06 99128.5 -611622
93 1 Mg -0.948271 14.2883 4.4844 1.2 -8.20529 -1.56503e+06 2.69166e+06 2.84266e+06 -575319 -55988.5 -871067
94 2 Si -2.75928 16.9724 4.4844 2.4 -31.9238 1.03068e+07 9.15594e+06 7.84674e+06 -24241.1 -136297 -925890
95 3 O -2.81617 15.3592 4.4844 -1.2 -9.98655 -3.42032e+06 -353542 -3.24039e+06 301267 -138125 642151
96 3 O 0.862762 17.9465 4.4844 -1.2 -9.63109 -2.69906e+06 -2.84528e+06 -3.11134e+06 2.26913e+06 -564689 563143
97 3 O -2.0185 17.6786 3.18632 -1.2 -9.43999 -2.35982e+06 -3.55988e+06 -519630 1.18703e+06 -168149 -1.04932e+06
98 3 O -2.06164 17.6786 5.78248 -1.2 -9.48394 -2.37845e+06 -3.74624e+06 -1.40121e+06 1.16513e+06 -183261 1.75738e+06
99 1 Mg 1.39817 16.6215 2.9896 1.2 -7.61871 3.59673e+06 -1.3968e+06 -449275 -1.18782e+06 -1.15494e+06 -2.29742e+06
100 1 Mg 4.20062 16.5802 4.4844 1.2 -8.27855 -1.52455e+06 2.73538e+06 2.97778e+06 1.24151e+06 -435727 -601130
101 2 Si 2.37796 18.645 4.4844 2.4 -32.1544 1.0033e+07 9.24173e+06 8.36281e+06 715183 -38248.9 -975550
102 3 O 2.39434 20.2583 4.4844 -1.2 -9.76431 -3.48503e+06 -212755 -3.80196e+06 477627 -192985 379110
103 3 O -4.24274 17.671 4.4844 -1.2 -9.71862 -2.88037e+06 -2.71799e+06 -2.86387e+06 -1.5166e+06 -332064 391922
104 3 O 3.08659 17.9389 3.18632 -1.2 -9.43378 -2.23527e+06 -3.6978e+06 -708934 -966163 -59625 1.83089e+06
105 1 Mg 1.44478 16.6215 0 1.2 -5.31776 3.97961e+06 202139 -6.76703e+06 1.38841e+06 -18991.8 244514
106 3 O 3.0436 17.9389 5.78248 -1.2 -9.37217 -2.07507e+06 -4.13668e+06 -1.58129e+06 -991994 -168443 -527173
107 1 Mg -1.40524 16.6628 1.4948 1.2 -8.06754 -206901 1.96871e+06 4.37372e+06 1.6791e+06 -927950 -231108
108 2 Si 0.420358 14.5979 1.4948 2.4 -33.4765 6.46111e+06 1.19551e+07 1.10998e+07 -133644 710830 1.02014e+06
109 3 O 0.408732 12.9847 1.4948 -1.2 -5.1879 118582 -1.03818e+06 -3.48253e+07 212273 -2.6304e+06 5.00079e+06
110 3 O 7.03923 15.572 1.4948 -1.2 -10.0229 -3.85894e+06 -1.55343e+06 -987535 -946263 -1.2832e+06 1.68049e+06
111 3 O -0.248332 15.3041 0.196716 -1.2 -4.09762 809120 -1.2846e+07 -3.03199e+07 3.25386e+06 -5.47999e+06 4.71157e+06
112 3 O -0.289436 15.3041 2.79288 -1.2 -9.29611 -1.20305e+06 -4.07712e+06 -1.98163e+06 -834182 -76405.3 1.78719e+06
113 1 Mg 6.59566 18.996 0 1.2 -5.37484 4.27322e+06 535108 -6.51665e+06 -906898 -714444 -1.30482e+06
114 1 Mg 3.85574 23.7037 1.4948 1.2 -8.38359 -570147 2.06588e+06 4.75306e+06 -1.18061e+06 -903007 -367750
115 2 Si 5.66125 21.0195 1.4948 2.4 -33.7128 7.53894e+06 1.08767e+07 1.1603e+07 206201 1.18022e+06 -2.84939e+06
116 3 O 5.72074 22.6328 1.4948 -1.2 -5.90651 -2.88576e+06 -604636 -2.73965e+07 -219224 -8.49808e+06 -3.49685e+06
117 3 O 2.03867 20.0455 1.4948 -1.2 -9.88955 -3.91403e+06 -1.25473e+06 -1.27473e+06 1.57246e+06 -1.1721e+06 -634948
118 3 O 4.96004 20.3134 0.196716 -1.2 -4.17891 176414 -1.45096e+07 -2.66539e+07 -3.19119e+06 -7.91019e+06 -2.45887e+06
119 1 Mg 6.55057 18.996 2.9896 1.2 -7.63086 3.80758e+06 -1.6091e+06 -404849 1.32384e+06 -1.24378e+06 1.62763e+06
120 3 O 4.92172 20.3134 2.79288 -1.2 -9.12114 -1.37879e+06 -3.79909e+06 -2.24129e+06 1.04499e+06 -72001.2 -944804
121 1 Mg -0.84282 19.0373 4.4844 1.2 -8.33952 -1.47748e+06 2.56574e+06 3.09032e+06 -625264 -227459 -379622
122 2 Si -2.64823 21.7214 4.4844 2.4 -32.3663 1.04522e+07 8.67001e+06 8.90457e+06 -28619.3 -212646 -460506
123 3 O -2.70847 20.1082 4.4844 -1.2 -9.77982 -3.46703e+06 -141690 -3.71876e+06 339017 -114419 228412
124 3 O 0.97581 22.6955 4.4844 -1.2 -9.50909 -3.09335e+06 -2.58665e+06 -3.17378e+06 2.21677e+06 -450297 348879
125 3 O -1.9076 22.4276 3.18632 -1.2 -9.27352 -2.47883e+06 -3.38206e+06 -880952 1.18573e+06 -18661.3 -1.26826e+06
126 3 O -1.9475 22.4276 5.78248 -1.2 -9.17253 -2.41734e+06 -3.51492e+06 -2.11971e+06 1.20343e+06 92505.1 1.62412e+06
127 1 Mg 1.50678 21.3705 2.9896 1.2 -7.72259 3.98093e+06 -1.62473e+06 -439089 -1.1676e+06 -1.23777e+06 -1.93554e+06
128 1 Mg 4.31086 21.3292 4.4844 1.2 -8.41898 -1.19713e+06 2.45464e+06 3.15839e+06 1.23415e+06 -201283 -254150
129 2 Si 2.49243 23.394 4.4844 2.4 -32.3716 1.06869e+07 8.77003e+06 8.52693e+06 775442 15264.9 -552564
130 3 O 2.51204 25.0073 4.4844 -1.2 -9.65695 -3.70596e+06 -99475.6 -3.87011e+06 474668 -216772 219024
131 3 O -4.13026 22.42 4.4844 -1.2 -9.53055 -3.037e+06 -2.4788e+06 -3.24642e+06 -1.42278e+06 -472084 214409
132 3 O 3.19799 22.6879 3.18632 -1.2 -9.30692 -2.49739e+06 -3.53249e+06 -873592 -939880 -24385.6 1.55088e+06
133 1 Mg 1.5501 21.3705 0 1.2 -5.50959 5.07633e+06 1.591e+06 -6.16717e+06 -64898.9 -938226 236407
134 3 O 3.1583 22.6879 5.78248 -1.2 -9.25691 -2.47475e+06 -3.70307e+06 -1.83544e+06 -917182 -246008 -872735
135 1 Mg -1.29822 21.4118 1.4948 1.2 -8.27943 -269959 1.95534e+06 4.68521e+06 1.79187e+06 -950385 50252.3
136 2 Si 0.523568 19.3469 1.4948 2.4 -33.6575 7.18941e+06 1.12208e+07 1.1424e+07 272550 1.05783e+06 1.7973e+06
137 3 O 0.508934 17.7337 1.4948 -1.2 -5.41921 -1.05484e+06 -829834 -3.22588e+07 686793 -6.13183e+06 4.6035e+06
138 3 O 7.14425 20.321 1.4948 -1.2 -9.92109 -4.03804e+06 -1.09978e+06 -1.23368e+06 -938069 -1.0489e+06 1.30274e+06
139 3 O -0.145107 20.0531 0.196716 -1.2 -4.28359 -162532 -1.41748e+07 -2.66856e+07 3.68787e+06 -8.23046e+06 3.38922e+06
140 3 O -0.183601 20.0531 2.79288 -1.2 -9.16775 -1.3903e+06 -3.91069e+06 -2.21331e+06 -805348 -24918.5 1.38948e+06
141 1 Mg 6.70502 23.745 0 1.2 -5.57329 4.9282e+06 1.83278e+06 -5.76757e+06 400048 -1.52336e+06 -674119
142 1 Mg 3.97493 28.4527 1.4948 1.2 -8.58225 -765619 2.22442e+06 4.87564e+06 -1.23199e+06 -766204 -350284
143 2 Si 5.77602 25.7685 1.4948 2.4 -33.7947 8.45552e+06 1.03366e+07 1.14451e+07 -151074 1.51107e+06 -2.59936e+06
144 3 O 5.83821 27.3818 1.4948 -1.2 -6.59618 -4.77328e+06 -471002 -2.13026e+07 -320428 -9.26712e+06 -2.8746e+06
145 3 O 2.15175 24.7945 1.4948 -1.2 -9.80241 -4.07302e+06 -1.04517e+06 -1.3312e+06 1.59946e+06 -948824 -779917
146 3 O 5.07184 25.0624 0.196716 -1.2 -4.7134 -1.21165e+06 -1.5241e+07 -2.10573e+07 -2.77515e+06 -9.40876e+06 -1.35929e+06
147 1 Mg 6.66374 23.745 2.9896 1.2 -7.75525 4.02569e+06 -1.72791e+06 -301993 1.29736e+06 -1.25141e+06 1.75694e+06
148 3 O 5.03707 25.0624 2.79288 -1.2 -8.99516 -1.55742e+06 -3.7728e+06 -2.334e+06 1.1069e+06 -171395 -1.05815e+06
149 1 Mg -0.727559 23.7863 4.4844 1.2 -8.48726 -1.2636e+06 2.39341e+06 3.27673e+06 -509986 -364650 -302659
150 2 Si -2.5277 26.4704 4.4844 2.4 -32.6244 1.08973e+07 8.52959e+06 9.00881e+06 -103574 -409519 -550227
151 3 O -2.59107 24.8572 4.4844 -1.2 -9.62461 -3.58113e+06 -69221.3 -3.92839e+06 406873 -37282.4 253899
152 3 O 1.09817 27.4445 4.4844 -1.2 -9.3899 -3.3553e+06 -2.45051e+06 -3.23653e+06 2.14099e+06 -554685 307178
153 3 O -1.78784 27.1766 3.18632 -1.2 -9.1494 -2.68667e+06 -3.33739e+06 -978511 1.1739e+06 101838 -1.23124e+06
154 3 O -1.82343 27.1766 5.78248 -1.2 -9.08032 -2.84464e+06 -3.33733e+06 -1.83392e+06 1.23785e+06 199574 1.80247e+06
155 1 Mg 1.62435 26.1195 2.9896 1.2 -7.82081 4.26856e+06 -1.69084e+06 -500206 -1.11287e+06 -1.25728e+06 -1.8011e+06
156 1 Mg 4.43064 26.0782 4.4844 1.2 -8.55764 -1.06234e+06 2.40685e+06 3.29196e+06 1.17654e+06 -166652 -90586.1
157 2 Si 2.61607 28.143 4.4844 2.4 -32.7059 1.09226e+07 8.50463e+06 9.10081e+06 826083 231651 -465543
158 3 O 2.63853 29.7563 4.4844 -1.2 -9.5014 -3.74523e+06 -40877.4 -4.12535e+06 569455 -286849 314979
159 3 O -4.00841 27.169 4.4844 -1.2 -9.37953 -3.24173e+06 -2.39465e+06 -3.38005e+06 -1.27395e+06 -327903 193415
160 3 O 3.3182 27.4369 3.18632 -1.2 -9.16355 -2.59959e+06 -3.48016e+06 -1.12698e+06 -907550 27926.2 1.48202e+06
161 1 Mg 1.66335 26.1195 0 1.2 -5.6726 5.06425e+06 2.30783e+06 -5.39155e+06 -878632 -1.55866e+06 129896
162 3 O 3.28288 27.4369 5.78248 -1.2 -9.01746 -2.54059e+06 -3.57279e+06 -2.2978e+06 -917781 -298289 -1.0634e+06
163 1 Mg -1.18278 26.1608 1.4948 1.2 -8.46462 -388586 2.15223e+06 4.71145e+06 1.88663e+06 -857199 19665.3
164 2 Si 0.635424 24.0959 1.4948 2.4 -33.7646 8.12616e+06 1.06421e+07 1.1305e+07 763657 1.38092e+06 2.24923e+06
165 3 O 0.617906 22.4827 1.4948 -1.2 -5.90598 -2.96033e+06 -587653 -2.74747e+07 1.01468e+06 -8.54866e+06 3.84028e+06
166 3 O 7.25781 25.07 1.4948 -1.2 -9.82913 -4.16137e+06 -909246 -1.32909e+06 -918228 -811200 1.17076e+06
167 3 O -0.0337363 24.8021 0.196716 -1.2 -4.81206 -1.56829e+06 -1.51881e+07 -2.10073e+07 3.49433e+06 -9.65688e+06 1.92931e+06
168 3 O -0.0687235 24.8021 2.79288 -1.2 -9.05267 -1.63052e+06 -3.86229e+06 -2.25909e+06 -845962 -45916.6 1.22799e+06
169 1 Mg 6.82195 28.494 0 1.2 -5.79919 4.64578e+06 2.32914e+06 -4.74012e+06 1.1455e+06 -1.84839e+06 -707120
170 1 Mg 4.10106 33.2017 1.4948 1.2 -8.74674 -964860 2.33307e+06 4.88931e+06 -1.21186e+06 -537961 -154121
171 2 Si 5.89839 30.5175 1.4948 2.4 -33.8371 9.55556e+06 9.50214e+06 1.13307e+07 -333878 1.59991e+06 -2.59722e+06
172 3 O 5.96289 32.1308 1.4948 -1.2 -7.3486 -6.10273e+06 -260239 -1.53226e+07 -296007 -8.41823e+06 -2.29618e+06
173 3 O 2.27266 29.5435 1.4948 -1.2 -9.68694 -4.16124e+06 -861616 -1.56296e+06 1.65784e+06 -756479 -670740
174 3 O 5.19102 29.8114 0.196716 -1.2 -5.4313 -2.75198e+06 -1.471e+07 -1.50954e+07 -1.92825e+06 -9.26536e+06 92051.1
175 1 Mg 6.78546 28.494 2.9896 1.2 -7.8552 4.29698e+06 -1.80168e+06 -333884 1.29052e+06 -1.39535e+06 1.66898e+06
176 3 O 5.16061 29.8114 2.79288 -1.2 -8.8832 -1.74418e+06 -3.70812e+06 -2.42698e+06 1.12636e+06 -172445 -939617
177 1 Mg -0.603205 28.5353 4.4844 1.2 -8.57254 -928895 2.29892e+06 3.1639e+06 -423539 -241967 -403327
178 2 Si -2.39877 31.2194 4.4844 2.4 -32.6908 1.12843e+07 8.71625e+06 8.54888e+06 207495 -451115 -468523
179 3 O -2.46483 29.6062 4.4844 -1.2 -9.54502 -3.87177e+06 -47635 -3.77974e+06 363449 119872 382670
180 3 O 1.22864 32.1935 4.4844 -1.2 -9.33328 -3.38634e+06 -2.58199e+06 -3.16506e+06 2.33569e+06 -548591 205698
181 3 O -1.66032 31.9256 3.18632 -1.2 -9.0689 -2.78852e+06 -3.37474e+06 -1.04324e+06 1.13152e+06 133010 -1.33019e+06
182 3 O -1.69072 31.9256 5.78248 -1.2 -9.10621 -2.8306e+06 -3.54165e+06 -1.65368e+06 1.02901e+06 69837.6 1.46928e+06
183 1 Mg 1.7499 30.8685 2.9896 1.2 -7.90934 4.43631e+06 -1.71762e+06 -492724 -1.15214e+06 -1.27608e+06 -1.80876e+06
184 1 Mg 4.55894 30.8272 4.4844 1.2 -8.66886 -1.01631e+06 2.44858e+06 3.38568e+06 1.19177e+06 -271723 -282512
185 2 Si 2.7476 32.892 4.4844 2.4 -32.7681 1.08875e+07 8.81888e+06 8.92323e+06 654595 104178 -345437
186 3 O 2.77235 34.5053 4.4844 -1.2 -9.50667 -3.7715e+06 -121997 -4.01118e+06 630870 -150560 18137.4
187 3 O -3.87837 31.918 4.4844 -1.2 -9.36803 -3.42432e+06 -2.51107e+06 -3.08803e+06 -1.38556e+06 -210593 176577
188 3 O 3.44611 32.1859 3.18632 -1.2 -9.0748 -2.62407e+06 -3.53125e+06 -1.28357e+06 -857725 138128 1.46204e+06
189 1 Mg 1.7837 30.8685 0 1.2 -5.93091 4.29954e+06 2.29482e+06 -4.26062e+06 -1.35406e+06 -1.51638e+06 138687
190 3 O 3.41602 32.1859 5.78248 -1.2 -8.98391 -2.3266e+06 -3.86295e+06 -2.26745e+06 -882374 -187169 -893374
191 1 Mg -1.05984 30.9098 1.4948 1.2 -8.64773 -536484 2.25809e+06 4.74505e+06 1.91765e+06 -636007 -86434.1
192 2 Si 0.755243 28.8449 1.4948 2.4 -33.8239 9.18795e+06 9.93846e+06 1.11267e+07 1.16125e+06 1.66752e+06 1.99331e+06
193 3 O 0.735127 27.2317 1.4948 -1.2 -6.60551 -4.89596e+06 -455070 -2.1318e+07 1.1562e+06 -9.34265e+06 3.2437e+06
194 3 O 7.37914 29.819 1.4948 -1.2 -9.72272 -4.30411e+06 -738637 -1.49445e+06 -935348 -573219 1.26825e+06
195 3 O 0.0850649 29.5511 0.196716 -1.2 -5.51302 -3.04651e+06 -1.5072e+07 -1.49543e+07 2.69358e+06 -9.45353e+06 724986
196 3 O 0.0543974 29.5511 2.79288 -1.2 -8.95956 -1.8878e+06 -3.82999e+06 -2.23477e+06 -853738 -168580 1.24455e+06
197 1 Mg 6.94543 33.243 0 1.2 -6.07272 3.80665e+06 2.20882e+06 -3.66889e+06 1.58996e+06 -1.4535e+06 -749153
198 1 Mg 4.23267 37.9507 1.4948 1.2 -8.82718 -1.17017e+06 2.48837e+06 4.65371e+06 -1.11699e+06 -215557 197195
199 2 Si 6.02709 35.2665 1.4948 2.4 -33.7681 1.0566e+07 8.69889e+06 1.10629e+07 -383159 1.5793e+06 -1.76333e+06
200 3 O 6.09339 36.8798 1.4948 -1.2 -8.06698 -6.4736e+06 -153124 -1.04014e+07 -156111 -6.60643e+06 -2.11289e+06
201 3 O 2.40018 34.2925 1.4948 -1.2 -9.58451 -4.19765e+06 -764323 -1.8397e+06 1.71019e+06 -538771 -892316
202 3 O 5.31645 34.5604 0.196716 -1.2 -6.2465 -3.97161e+06 -1.29896e+07 -9.85336e+06 -951709 -7.84447e+06 950697
203 1 Mg 6.91449 33.243 2.9896 1.2 -7.89241 4.48438e+06 -1.79191e+06 -463231 1.34357e+06 -1.44145e+06 1.84307e+06
204 3 O 5.291 34.5604 2.79288 -1.2 -8.85386 -1.95645e+06 -3.68407e+06 -2.32218e+06 1.10578e+06 -238067 -1.19429e+06
205 1 Mg -0.471101 33.2843 4.4844 1.2 -8.62372 -1.00918e+06 2.38773e+06 3.23472e+06 -458902 -160584 -42537.5
206 2 Si -2.26307 35.9684 4.4844 2.4 -32.7668 1.11971e+07 8.598e+06 8.87914e+06 170112 -180739 350869
207 3 O -2.33122 34.3552 4.4844 -1.2 -9.52862 -3.8732e+06 -70763.1 -3.77137e+06 359909 -12731 -29417.3
208 3 O 1.36549 36.9425 4.4844 -1.2 -9.30344 -3.39496e+06 -2.49026e+06 -3.29686e+06 2.34084e+06 -355552 -173782
209 3 O -1.52658 36.6746 3.18632 -1.2 -9.00113 -2.72626e+06 -3.34927e+06 -1.33494e+06 1.14528e+06 139380 -1.66267e+06
210 3 O -1.55122 36.6746 5.78248 -1.2 -9.029 -2.6571e+06 -3.45762e+06 -1.89822e+06 1.14231e+06 45009.6 1.09273e+06
211 1 Mg 1.882 35.6175 2.9896 1.2 -7.94384 4.5271e+06 -1.72888e+06 -506841 -1.14659e+06 -1.44593e+06 -1.46108e+06
212 1 Mg 4.69415 35.5762 4.4844 1.2 -8.64112 -886404 2.40721e+06 3.25301e+06 1.24853e+06 -218508 86571.3
213 2 Si 2.88522 37.641 4.4844 2.4 -32.7854 1.10802e+07 8.50626e+06 9.0732e+06 724592 -152710 337373
214 3 O 2.91159 39.2543 4.4844 -1.2 -9.49316 -3.89611e+06 27019 -4.06232e+06 588689 -29165.9 -197012
215 3 O -3.74183 36.667 4.4844 -1.2 -9.35932 -3.53321e+06 -2.39955e+06 -3.11843e+06 -1.37512e+06 -302926 -226747
216 3 O 3.58014 36.9349 3.18632 -1.2 -9.03731 -2.68241e+06 -3.50238e+06 -1.42053e+06 -854894 226336 1.093e+06
217 1 Mg 1.90997 35.6175 0 1.2 -6.15793 3.19289e+06 2.11745e+06 -3.59161e+06 -1.6695e+06 -770398 925332
218 3 O 3.55582 36.9349 5.78248 -1.2 -9.03934 -2.47331e+06 -3.58649e+06 -2.25097e+06 -870488 31445.2 -1.3572e+06
219 1 Mg -0.93068 35.6588 1.4948 1.2 -8.777 -787258 2.37606e+06 4.69287e+06 1.85631e+06 -328642 180875
220 2 Si 0.881882 33.5939 1.4948 2.4 -33.8248 1.01599e+07 9.07347e+06 1.10923e+07 1.3864e+06 1.67341e+06 2.16034e+06
221 3 O 0.859602 31.9807 1.4948 -1.2 -7.3518 -6.19903e+06 -242493 -1.53822e+07 1.16581e+06 -8.50875e+06 2.59558e+06
222 3 O 7.507 34.568 1.4948 -1.2 -9.62675 -4.35871e+06 -655455 -1.74327e+06 -948619 -406395 1.01207e+06
223 3 O 0.210186 34.3001 0.196716 -1.2 -6.28512 -4.1219e+06 -1.36986e+07 -9.78069e+06 1.53174e+06 -7.93536e+06 -701236
224 3 O 0.184454 34.3001 2.79288 -1.2 -8.90562 -2.00009e+06 -3.80621e+06 -2.2765e+06 -826774 -197156 934121
225 1 Mg 7.07415 37.992 0 1.2 -6.24156 2.71572e+06 2.13181e+06 -3.37965e+06 1.8867e+06 -423523 -1.03837e+06
226 1 Mg 4.36817 42.6997 1.4948 1.2 -8.84064 -1.3457e+06 2.61529e+06 4.34202e+06 -1.00437e+06 120760 211478
227 2 Si 6.16058 40.0155 1.4948 2.4 -33.6094 1.12173e+07 8.07775e+06 1.07859e+07 -364776 1.31757e+06 -1.17022e+06
228 3 O 6.22815 41.6288 1.4948 -1.2 -8.65647 -6.02313e+06 -124272 -7.02747e+06 40357.9 -4.51153e+06 -1.79767e+06
229 3 O 2.53282 39.0415 1.4948 -1.2 -9.52368 -4.16245e+06 -851736 -2.04529e+06 1.7212e+06 -353828 -1.14407e+06
230 3 O 5.44674 39.3094 0.196716 -1.2 -7.09383 -4.48923e+06 -1.0671e+07 -5.85614e+06 -160862 -5.76885e+06 1.56799e+06
231 1 Mg 7.04922 37.992 2.9896 1.2 -7.92169 4.55572e+06 -1.84069e+06 -427989 1.31652e+06 -1.47238e+06 2.14085e+06
232 3 O 5.42658 39.3094 2.79288 -1.2 -8.84554 -2.1432e+06 -3.5995e+06 -2.26405e+06 1.12256e+06 -302215 -1.43143e+06
233 1 Mg -0.333062 38.0333 4.4844 1.2 -8.68311 -1.07462e+06 2.27978e+06 3.49782e+06 -453313 -141492 257514
234 2 Si -2.12255 40.7174 4.4844 2.4 -32.8925 1.12261e+07 8.30024e+06 9.3575e+06 56132.3 -129125 504493
235 3 O -2.19212 39.1042 4.4844 -1.2 -9.46462 -3.8493e+06 52516 -4.01891e+06 427479 -54213.5 -249532
236 3 O 1.50676 41.6915 4.4844 -1.2 -9.27938 -3.458e+06 -2.41847e+06 -3.35978e+06 2.22749e+06 -243839 -242936
237 3 O -1.3884 41.4236 3.18632 -1.2 -8.95631 -2.68585e+06 -3.30496e+06 -1.59607e+06 1.14781e+06 153423 -1.67385e+06
238 3 O -1.40713 41.4236 5.78248 -1.2 -8.91793 -2.74169e+06 -3.20285e+06 -2.31758e+06 1.23036e+06 32479.7 1.23265e+06
239 1 Mg 2.01892 40.3665 2.9896 1.2 -7.96031 4.58903e+06 -1.75461e+06 -503496 -1.08836e+06 -1.5854e+06 -1.29166e+06
240 1 Mg 4.83434 40.3252 4.4844 1.2 -8.6655 -773448 2.27152e+06 3.31565e+06 1.2485e+06 -92046 298163
241 2 Si 3.02698 42.39 4.4844 2.4 -32.8422 1.11254e+07 8.35676e+06 9.2641e+06 802307 -99350.1 614906
242 3 O 3.05433 44.0033 4.4844 -1.2 -9.44513 -3.81231e+06 113087 -4.32066e+06 593717 -29435 -202880
243 3 O -3.60077 41.416 4.4844 -1.2 -9.3131 -3.59917e+06 -2.25822e+06 -3.26549e+06 -1.26077e+06 -249830 -298172
244 3 O 3.71851 41.6839 3.18632 -1.2 -9.00375 -2.66624e+06 -3.48354e+06 -1.62242e+06 -842442 229207 958175
245 1 Mg 2.04077 40.3665 0 1.2 -6.25091 2.23534e+06 2.04655e+06 -3.83534e+06 -1.8393e+06 450973 1.82015e+06
246 3 O 3.70011 41.6839 5.78248 -1.2 -9.04416 -2.59841e+06 -3.48099e+06 -2.04189e+06 -844798 -110933 -1.63721e+06
247 1 Mg -0.796865 40.4078 1.4948 1.2 -8.82142 -1.01282e+06 2.5241e+06 4.44993e+06 1.74749e+06 32301.9 278689
248 2 Si 1.01387 38.3429 1.4948 2.4 -33.6995 1.08958e+07 8.39475e+06 1.08697e+07 1.50716e+06 1.45795e+06 2.43866e+06
249 3 O 0.989947 36.7297 1.4948 -1.2 -8.06205 -6.53104e+06 -134643 -1.05214e+07 1.05244e+06 -6.6356e+06 1.76966e+06
250 3 O 7.63988 39.317 1.4948 -1.2 -9.56113 -4.27799e+06 -749033 -2.00915e+06 -932500 -251961 834463
251 3 O 0.340253 39.0491 0.196716 -1.2 -7.09823 -4.54353e+06 -1.15769e+07 -5.8436e+06 399935 -5.86112e+06 -1.7764e+06
252 3 O 0.319795 39.0491 2.79288 -1.2 -8.88623 -2.11671e+06 -3.73071e+06 -2.30616e+06 -842944 -188382 679855
253 1 Mg 7.20667 42.741 0 1.2 -6.30251 1.86592e+06 2.01866e+06 -3.7828e+06 1.98507e+06 894195 -1.93525e+06
254 1 Mg 4.50613 47.4487 1.4948 1.2 -8.80408 -1.38709e+06 2.67873e+06 4.05818e+06 -853470 428481 223330
255 2 Si 6.29731 44.7645 1.4948 2.4 -33.4305 1.15633e+07 7.51748e+06 1.06903e+07 -254143 866283 -1.12205e+06
256 3 O 6.36567 46.3778 1.4948 -1.2 -9.07845 -5.21021e+06 -96048.6 -5.09195e+06 183013 -2.6799e+06 -1.50584e+06
257 3 O 2.669 43.7905 1.4948 -1.2 -9.47062 -4.03207e+06 -1.02456e+06 -2.35851e+06 1.71592e+06 -220990 -1.09058e+06
258 3 O 5.58048 44.0584 0.196716 -1.2 -7.81437 -4.39872e+06 -8.04841e+06 -3.4516e+06 331816 -3.70501e+06 2.23874e+06
259 1 Mg 7.1879 42.741 2.9896 1.2 -7.93199 4.57087e+06 -1.86162e+06 -392330 1.25961e+06 -1.60129e+06 2.0928e+06
260 3 O 5.56564 44.0584 2.79288 -1.2 -8.86158 -2.25413e+06 -3.53049e+06 -2.22218e+06 1.1572e+06 -253786 -1.35536e+06
261 1 Mg -0.19105 42.7823 4.4844 1.2 -8.69756 -987446 2.19877e+06 3.51138e+06 -345896 -62778.7 146820
262 2 Si -1.97909 45.4664 4.4844 2.4 -32.7833 1.1307e+07 8.52295e+06 8.87413e+06 96377.8 -253994 304809
263 3 O -2.04947 43.8532 4.4844 -1.2 -9.47356 -3.92328e+06 71920.8 -3.95655e+06 458338 42452.8 -70823.8
264 3 O 1.65063 46.4405 4.4844 -1.2 -9.29134 -3.38005e+06 -2.50994e+06 -3.33054e+06 2.32497e+06 -292313 -102068
265 3 O -1.24745 46.1726 3.18632 -1.2 -8.97211 -2.64785e+06 -3.38697e+06 -1.63425e+06 1.14352e+06 113328 -1.61569e+06
266 3 O -1.26044 46.1726 5.78248 -1.2 -9.09222 -2.82274e+06 -3.41752e+06 -1.49784e+06 1.25272e+06 57420.2 1.16691e+06
267 1 Mg 2.15896 45.1155 2.9896 1.2 -7.96491 4.51965e+06 -1.73997e+06 -425650 -1.06432e+06 -1.63692e+06 -1.37403e+06
268 1 Mg 4.97763 45.0742 4.4844 1.2 -8.67974 -814878 2.25682e+06 3.39373e+06 1.23581e+06 -168877 165701
269 2 Si 3.1711 47.139 4.4844 2.4 -32.8211 1.0851e+07 8.61598e+06 9.25142e+06 757937 -63964.6 262421