ITEM: TIMESTEP
58500
ITEM: NUMBER OF ATOMS
10500
ITEM: BOX BOUNDS xy xz yz pp pp pp
0.0000000000000000e+00 1.5297749999999999e+01 5.0992499999999996e+00
0.0000000000000000e+00 1.1872499999999999e+02 0.0000000000000000e+00
0.0000000000000000e+00 8.9688000000000002e+01 0.0000000000000000e+00
ITEM: ATOMS id type element xu yu zu q c_pe c_s[1] c_s[2] c_s[3] c_s[4] c_s[5] c_s[6]
1 1 Mg 6.2404 -6.37941e-06 0 1.2 -4.38314 7.85891e+06 -1.47641e+06 -6.62167e+06 -11022.2 2.62213e+06 -211227
2 1 Mg 3.46349 4.70768 1.4948 1.2 -8.3187 -544791 3.38241e+06 3.58651e+06 -919136 -612026 167138
3 2 Si 5.2885 2.02354 1.4948 2.4 -34.9965 9.60862e+06 1.21484e+07 1.01058e+07 8.90005e+06 735386 -2.98214e+06
4 3 O 5.33628 3.63678 1.4948 -1.2 -4.87553 -575390 -2.11369e+06 -3.29982e+07 -354155 3.7803e+06 -3.96864e+06
5 3 O 1.67294 1.04952 1.4948 -1.2 -1.15195 -2.01624e+07 -7.9891e+07 -1.59636e+06 -2.41203e+07 -114192 -106481
6 3 O 4.59532 1.31737 0.196716 -1.2 -3.12046 -1.82123e+06 -7.18941e+06 -2.99685e+07 -6.04965e+06 6.22159e+06 -2.69406e+06
7 1 Mg 6.18956 -6.37941e-06 2.9896 1.2 -4.84369 1.41514e+06 -2.77439e+07 -3.44623e+06 -8.83203e+06 2.47541e+06 3.96074e+06
8 3 O 4.55118 1.31737 2.79288 -1.2 -7.63815 328100 -5.25343e+06 -2.58009e+06 -2.98533e+06 -3.42105e+06 -1.11742e+06
9 1 Mg -1.20682 0.0413099 4.4844 1.2 9.04545 -3.10107e+07 -9.28813e+07 -703525 -2.85165e+07 -1.22612e+06 42162.6
10 2 Si -3.0337 2.72544 4.4844 2.4 -32.7262 1.35274e+07 8.26444e+06 7.01426e+06 1.67786e+06 231636 -205830
11 3 O -3.08099 1.11221 4.4844 -1.2 -9.7848 -5.85505e+06 -553805 -1.61794e+06 -1.23441e+06 -248732 241203
12 3 O 0.582463 3.69946 4.4844 -1.2 -9.18028 -2.90867e+06 -5.97338e+06 -2.37985e+06 -465824 -53845.2 -254036
13 3 O -2.29524 3.43162 3.18632 -1.2 -9.22661 -3.86602e+06 -3.14437e+06 -42343.8 1.10166e+06 -846465 -1.10691e+06
14 3 O -2.34216 3.43162 5.78248 -1.2 -9.06218 -3.32916e+06 -3.80013e+06 -1.23298e+06 780736 504238 858224
15 1 Mg 1.12778 2.37449 2.9896 1.2 -7.43943 4.92102e+06 -1.06241e+06 -1.25877e+06 -3.31033e+06 -4.23358e+06 -2.17724e+06
16 1 Mg 3.92855 2.33318 4.4844 1.2 -8.23844 -4.40997e+06 5.49148e+06 4.14285e+06 1.43278e+06 301159 568707
17 2 Si 2.09341 4.39804 4.4844 2.4 -31.8984 1.1533e+07 7.66161e+06 7.83639e+06 189622 -429239 690211
18 3 O 2.09991 6.01128 4.4844 -1.2 -9.74641 -3.85738e+06 -435419 -3.24928e+06 527196 -96064.2 -80304.8
19 3 O -4.52137 3.42402 4.4844 -1.2 -9.39228 -2.56569e+06 -3.46331e+06 -3.0248e+06 -2.50235e+06 -980086 -154559
20 3 O 2.80834 3.69187 3.18632 -1.2 -9.52419 -1.89109e+06 -3.39721e+06 222930 444217 -467477 -580098
21 1 Mg 1.17857 2.37449 0 1.2 -5.0146 -803978 -1.42294e+07 -7.01482e+06 6.51455e+06 1.19638e+06 4.66452e+06
22 3 O 2.76143 3.69187 5.78248 -1.2 -9.64685 -2.48215e+06 -2.71816e+06 -783932 447305 196944 -227331
23 1 Mg -1.67381 2.41581 1.4948 1.2 -7.44938 1.32423e+06 388152 3.4895e+06 1.33945e+06 -592109 1.09119e+06
24 2 Si 0.16286 0.350945 1.4948 2.4 -24.4014 -8.49017e+06 1.33366e+07 1.05469e+07 1.56031e+06 2.80077e+06 1.16695e+06
25 3 O 0.15972 -1.26229 1.4948 -1.2 -4.77957 -1.06254e+07 -8.30209e+06 -2.87e+07 -5.59745e+06 -8.51126e+06 -2.55594e+06
26 3 O 6.77654 1.32496 1.4948 -1.2 -10.4637 -5.5646e+06 1.23242e+06 -847258 -647722 -657925 1.04875e+06
27 3 O -0.508028 1.05712 0.196716 -1.2 -9.60767 252023 -5.16011e+06 -230669 -529746 220199 -4.58926e+06
28 3 O -0.552171 1.05712 2.79288 -1.2 -6.92238 -5.10424e+06 -5.1386e+06 -2.41506e+07 1.44381e+06 -6.77112e+06 -5.52859e+06
29 1 Mg 6.31713 4.74899 0 1.2 -4.79772 132636 -1.21796e+07 -6.81858e+06 -7.30597e+06 1.45118e+06 -3.51855e+06
30 1 Mg 3.54847 9.45668 1.4948 1.2 -8.2164 139620 2.39491e+06 3.70429e+06 -960295 -888851 -254998
31 2 Si 5.36879 6.77254 1.4948 2.4 -34.0093 6.82501e+06 1.34652e+07 1.01469e+07 1.67971e+06 274590 -1.77877e+06
32 3 O 5.41937 8.38578 1.4948 -1.2 -4.88313 -117765 -1.6365e+06 -3.45249e+07 768796 1.03887e+06 -4.29937e+06
33 3 O 1.75158 5.79852 1.4948 -1.2 -9.65838 -3.7923e+06 -3.06096e+06 -685114 1.97032e+06 -1.55552e+06 -1.42464e+06
34 3 O 4.67421 6.06637 0.196716 -1.2 -3.91271 366626 -1.08693e+07 -3.07087e+07 -2.01624e+06 1.27477e+06 -4.52168e+06
35 1 Mg 6.26654 4.74899 2.9896 1.2 -7.85998 3.80265e+06 -1.04727e+06 -592031 1.82841e+06 -757874 2.07434e+06
36 3 O 4.63043 6.06637 2.79288 -1.2 -9.02489 -1.38362e+06 -4.59211e+06 -1.52368e+06 906452 -206544 -1.54831e+06
37 1 Mg -1.12976 4.79031 4.4844 1.2 -8.63228 -1.06024e+06 3.27025e+06 2.49071e+06 -788710 -531167 102778
38 2 Si -2.9517 7.47444 4.4844 2.4 -32.6022 1.03665e+07 1.00778e+07 7.94986e+06 16102.3 144972 -89967.1
39 3 O -3.00198 5.86121 4.4844 -1.2 -9.5822 -3.54041e+06 -653181 -3.46729e+06 57323 -328398 -74675
40 3 O 0.666315 8.44846 4.4844 -1.2 -9.47757 -3.17302e+06 -3.18761e+06 -2.5287e+06 2.11385e+06 -208078 26807.6
41 3 O -2.21213 8.18062 3.18632 -1.2 -9.21739 -2.57373e+06 -4.03591e+06 -161393 1.11065e+06 -283829 -1.46902e+06
42 3 O -2.25864 8.18062 5.78248 -1.2 -9.06646 -2.3246e+06 -4.43798e+06 -1.42008e+06 1.06515e+06 -161965 1.46795e+06
43 1 Mg 1.20893 7.12349 2.9896 1.2 -7.81918 3.94012e+06 -994635 -868263 -1.29142e+06 -1.44039e+06 -1.64055e+06
44 1 Mg 4.00982 7.08218 4.4844 1.2 -8.44074 -1.03422e+06 3.01151e+06 2.46534e+06 1.0652e+06 -66394 129177
45 2 Si 2.17861 9.14704 4.4844 2.4 -32.3607 1.11322e+07 9.91972e+06 6.91669e+06 576285 -124075 144465
46 3 O 2.18828 10.7603 4.4844 -1.2 -9.66299 -3.90994e+06 -691063 -3.05886e+06 442222 -152118 -48081.3
47 3 O -4.43805 8.17302 4.4844 -1.2 -9.45832 -2.99658e+06 -3.20078e+06 -2.68798e+06 -1.51996e+06 -676984 -46639.1
48 3 O 2.89193 8.44087 3.18632 -1.2 -9.2846 -2.6804e+06 -4.17337e+06 32626.4 -927906 -268430 1.22991e+06
49 1 Mg 1.25915 7.12349 0 1.2 -5.17898 782996 -6.83274e+06 -7.09889e+06 5.89798e+06 1.34407e+06 2.67523e+06
50 3 O 2.84547 8.44087 5.78248 -1.2 -9.37449 -2.84605e+06 -4.1504e+06 -758818 -837136 -413911 -1.1768e+06
51 1 Mg -1.59284 7.16481 1.4948 1.2 -8.11594 548379 2.06259e+06 3.66597e+06 1.45169e+06 -942565 406670
52 2 Si 0.240329 5.09994 1.4948 2.4 -33.7558 7.80156e+06 1.23051e+07 9.9249e+06 -1.99696e+06 -1.16467e+06 2.13216e+06
53 3 O 0.234538 3.48671 1.4948 -1.2 -5.37108 -1.53295e+06 -243639 -3.31527e+07 421348 5.21743e+06 3.8668e+06
54 3 O 6.85564 6.07396 1.4948 -1.2 -9.72431 -4.13249e+06 -2.51536e+06 -745954 -1.3444e+06 -1.871e+06 1.07024e+06
55 3 O -0.429565 5.80612 0.196716 -1.2 -4.16444 -440354 -9.5114e+06 -3.08124e+07 1.86015e+06 1.21678e+06 4.47098e+06
56 3 O -0.473377 5.80612 2.79288 -1.2 -9.0973 -1.83799e+06 -4.17279e+06 -1.47024e+06 -747476 408258 1.22546e+06
57 1 Mg 6.40169 9.49799 0 1.2 -5.1866 1.39759e+06 -5.75104e+06 -7.27197e+06 -5.49514e+06 1.02772e+06 -2.38432e+06
58 1 Mg 3.64209 14.2057 1.4948 1.2 -8.4125 227277 2.24164e+06 4.04321e+06 -1.03557e+06 -953878 -95341
59 2 Si 5.45748 11.5215 1.4948 2.4 -34.1463 7.34638e+06 1.28852e+07 1.0401e+07 869762 451386 -1.98584e+06
60 3 O 5.51101 13.1348 1.4948 -1.2 -4.81016 -474647 -1.38687e+06 -3.43548e+07 478879 -2.58006e+06 -4.48181e+06
61 3 O 1.83851 10.5475 1.4948 -1.2 -9.66755 -4.12874e+06 -2.48983e+06 -633451 1.53284e+06 -1.5505e+06 -1.16389e+06
62 3 O 4.7611 10.8154 0.196716 -1.2 -3.6842 669312 -1.20904e+07 -3.13786e+07 -2.46254e+06 -1.79865e+06 -4.36208e+06
63 1 Mg 6.35203 9.49799 2.9896 1.2 -7.85617 3.82601e+06 -972795 -698214 1.3009e+06 -1.09818e+06 2.02759e+06
64 3 O 4.71833 10.8154 2.79288 -1.2 -8.98139 -1.6843e+06 -4.37584e+06 -1.51931e+06 1.07114e+06 -71123.9 -1.36953e+06
65 1 Mg -1.0438 9.53931 4.4844 1.2 -8.55372 -1.27367e+06 3.12255e+06 2.68787e+06 -543037 -466172 -54853.4
66 2 Si -2.8604 12.2234 4.4844 2.4 -32.7024 1.07264e+07 1.01744e+07 7.65171e+06 -88998.7 -47714.5 10007
67 3 O -2.91391 10.6102 4.4844 -1.2 -9.56649 -3.53903e+06 -793570 -3.36679e+06 244365 -218972 4464.95
68 3 O 0.7596 13.1975 4.4844 -1.2 -9.33555 -3.27692e+06 -3.24799e+06 -2.59908e+06 2.07732e+06 -364377 -122897
69 3 O -2.12001 12.9296 3.18632 -1.2 -9.11438 -2.73805e+06 -4.03301e+06 -173229 1.15113e+06 -207310 -1.61866e+06
70 3 O -2.16532 12.9296 5.78248 -1.2 -9.05818 -2.64095e+06 -4.44634e+06 -1.0857e+06 1.11498e+06 -46043.6 1.45992e+06
71 1 Mg 1.29891 11.8725 2.9896 1.2 -7.90433 4.10802e+06 -988686 -908947 -1.15769e+06 -1.29256e+06 -1.58279e+06
72 1 Mg 4.10033 11.8312 4.4844 1.2 -8.52703 -850783 3.06626e+06 2.36727e+06 1.06932e+06 -130675 136853
73 2 Si 2.27333 13.896 4.4844 2.4 -32.7197 1.13999e+07 9.91524e+06 7.22807e+06 680519 -124858 569834
74 3 O 2.28634 15.5093 4.4844 -1.2 -9.42234 -4.13101e+06 -492071 -3.42609e+06 449893 -153254 -331502
75 3 O -4.34533 12.922 4.4844 -1.2 -9.37578 -3.21151e+06 -3.20368e+06 -2.60681e+06 -1.41139e+06 -558205 -153495
76 3 O 2.98455 13.1899 3.18632 -1.2 -9.15718 -2.8668e+06 -4.07468e+06 -107154 -947444 -176415 1.11634e+06
77 1 Mg 1.34779 11.8725 0 1.2 -5.49058 2.77643e+06 -2.2771e+06 -7.25032e+06 3.57166e+06 775314 1.69375e+06
78 3 O 2.93934 13.1899 5.78248 -1.2 -9.19633 -2.96132e+06 -4.31259e+06 -796538 -851950 -319878 -1.3582e+06
79 1 Mg -1.50344 11.9138 1.4948 1.2 -8.29318 400833 2.29303e+06 3.8508e+06 1.56855e+06 -970626 500575
80 2 Si 0.326006 9.84894 1.4948 2.4 -34.0276 7.32259e+06 1.30273e+07 1.00648e+07 -586886 -16546.5 2.39427e+06
81 3 O 0.317364 8.23571 1.4948 -1.2 -4.89213 -266404 -1.50423e+06 -3.46234e+07 -125557 1.24477e+06 4.13035e+06
82 3 O 6.94307 10.823 1.4948 -1.2 -9.68545 -4.19428e+06 -2.31633e+06 -671654 -977607 -1.558e+06 990221
83 3 O -0.343122 10.5551 0.196716 -1.2 -3.78952 383111 -1.15562e+07 -3.14233e+07 2.45533e+06 -2.01253e+06 4.43625e+06
84 3 O -0.385966 10.5551 2.79288 -1.2 -9.01187 -1.68362e+06 -4.44063e+06 -1.55042e+06 -880615 192176 1.07344e+06
85 1 Mg 6.49448 14.247 0 1.2 -5.53537 3.33717e+06 -1.57661e+06 -7.25492e+06 -2.97345e+06 282584 -1.33645e+06
86 1 Mg 3.74457 18.9547 1.4948 1.2 -8.62768 232809 2.17012e+06 4.37673e+06 -1.11018e+06 -953763 -90944.9
87 2 Si 5.55495 16.2705 1.4948 2.4 -34.4234 8.07705e+06 1.20946e+07 1.09235e+07 528217 849510 -1.80938e+06
88 3 O 5.6115 17.8838 1.4948 -1.2 -4.97953 -1.71826e+06 -1.05015e+06 -3.19451e+07 74220.5 -6.07881e+06 -4.34489e+06
89 3 O 1.93416 15.2965 1.4948 -1.2 -9.55488 -4.41453e+06 -1.93362e+06 -834504 1.5297e+06 -1.35578e+06 -1.26826e+06
90 3 O 4.85636 15.5644 0.196716 -1.2 -3.55715 460279 -1.35682e+07 -3.00623e+07 -3.03667e+06 -5.14604e+06 -3.961e+06
91 1 Mg 6.44662 14.247 2.9896 1.2 -7.97011 4.15633e+06 -1.13078e+06 -689023 1.27516e+06 -1.15955e+06 2.21673e+06
92 3 O 4.81537 15.5644 2.79288 -1.2 -8.80724 -1.92162e+06 -4.14897e+06 -1.81908e+06 1.07129e+06 -66633.8 -1.54733e+06
93 1 Mg -0.948271 14.2883 4.4844 1.2 -8.68399 -976125 3.08629e+06 2.62706e+06 -527384 -329329 182007
94 2 Si -2.75928 16.9724 4.4844 2.4 -33.1324 1.1513e+07 9.29753e+06 8.43506e+06 -45008 -202689 657179
95 3 O -2.81617 15.3592 4.4844 -1.2 -9.41777 -3.89878e+06 -625709 -3.40772e+06 301291 -116519 -359504
96 3 O 0.862762 17.9465 4.4844 -1.2 -9.10601 -3.69084e+06 -2.79473e+06 -3.01421e+06 2.19642e+06 -414314 -119555
97 3 O -2.0185 17.6786 3.18632 -1.2 -8.92788 -3.0389e+06 -3.66522e+06 -557003 1.17746e+06 -108586 -1.73004e+06
98 3 O -2.06164 17.6786 5.78248 -1.2 -8.72448 -3.12286e+06 -3.73816e+06 -1.92053e+06 1.10492e+06 158484 1.03894e+06
99 1 Mg 1.39817 16.6215 2.9896 1.2 -8.07855 4.45916e+06 -1.31266e+06 -659129 -1.16035e+06 -1.25323e+06 -1.42412e+06
100 1 Mg 4.20062 16.5802 4.4844 1.2 -8.76669 -511445 2.69387e+06 2.78565e+06 1.17378e+06 -178215 368014
101 2 Si 2.37796 18.645 4.4844 2.4 -33.143 1.20935e+07 9.12456e+06 8.00056e+06 774466 -55534.2 266205
102 3 O 2.39434 20.2583 4.4844 -1.2 -9.30161 -4.39259e+06 -283707 -3.56296e+06 450253 -200513 -68158.7
103 3 O -4.24274 17.671 4.4844 -1.2 -9.14261 -3.59374e+06 -2.7154e+06 -3.08068e+06 -1.4349e+06 -545901 -285208
104 3 O 3.08659 17.9389 3.18632 -1.2 -8.96478 -3.12799e+06 -3.74516e+06 -522465 -960673 -101120 1.11085e+06
105 1 Mg 1.44478 16.6215 0 1.2 -5.74088 4.66644e+06 509153 -7.08294e+06 1.39633e+06 -84941.5 1.12197e+06
106 3 O 3.0436 17.9389 5.78248 -1.2 -8.84313 -3.43437e+06 -3.8263e+06 -1.34698e+06 -1.00374e+06 -264213 -1.26156e+06
107 1 Mg -1.40524 16.6628 1.4948 1.2 -8.5159 478929 2.18279e+06 4.19216e+06 1.68302e+06 -980950 588454
108 2 Si 0.420358 14.5979 1.4948 2.4 -34.3125 7.86269e+06 1.24536e+07 1.05391e+07 -120109 498460 2.91219e+06
109 3 O 0.408732 12.9847 1.4948 -1.2 -4.80612 -526875 -1.3718e+06 -3.44581e+07 213061 -2.51853e+06 4.10348e+06
110 3 O 7.03923 15.572 1.4948 -1.2 -9.57916 -4.50044e+06 -1.78993e+06 -820989 -940451 -1.32328e+06 789335
111 3 O -0.248332 15.3041 0.196716 -1.2 -3.672 108602 -1.31033e+07 -3.00445e+07 3.25688e+06 -5.39439e+06 3.77336e+06
112 3 O -0.289436 15.3041 2.79288 -1.2 -8.84413 -1.91368e+06 -4.27799e+06 -1.79385e+06 -859977 77465.4 833782
113 1 Mg 6.59566 18.996 0 1.2 -5.78695 4.91055e+06 896165 -6.85475e+06 -904972 -659548 -747906
114 1 Mg 3.85574 23.7037 1.4948 1.2 -8.77855 56031.6 2.33021e+06 4.49533e+06 -1.19932e+06 -889660 -26788.5
115 2 Si 5.66125 21.0195 1.4948 2.4 -34.5656 8.84518e+06 1.14127e+07 1.11271e+07 176530 1.23968e+06 -2.08583e+06
116 3 O 5.72074 22.6328 1.4948 -1.2 -5.49799 -3.52248e+06 -877546 -2.71413e+07 -211024 -8.50987e+06 -3.82216e+06
117 3 O 2.03867 20.0455 1.4948 -1.2 -9.46218 -4.63488e+06 -1.50611e+06 -987565 1.56726e+06 -1.15205e+06 -1.11103e+06
118 3 O 4.96004 20.3134 0.196716 -1.2 -3.76587 -448963 -1.48537e+07 -2.63466e+07 -3.18871e+06 -7.93749e+06 -2.89289e+06
119 1 Mg 6.55057 18.996 2.9896 1.2 -8.12026 4.48609e+06 -1.46837e+06 -439977 1.29228e+06 -1.18554e+06 2.14445e+06
120 3 O 4.92172 20.3134 2.79288 -1.2 -8.66653 -2.08854e+06 -3.99129e+06 -2.06817e+06 1.0837e+06 -135566 -1.37932e+06
121 1 Mg -0.84282 19.0373 4.4844 1.2 -8.87939 -666343 2.61311e+06 3.09482e+06 -551926 -402711 104568
122 2 Si -2.64823 21.7214 4.4844 2.4 -33.2711 1.1747e+07 9.18939e+06 8.53486e+06 -84727.1 -283575 14292
123 3 O -2.70847 20.1082 4.4844 -1.2 -9.25347 -4.12379e+06 -301188 -3.75135e+06 352079 -107336 -90933.2
124 3 O 0.97581 22.6955 4.4844 -1.2 -9.114 -3.80546e+06 -2.87604e+06 -2.80829e+06 2.14881e+06 -451165 31027.3
125 3 O -1.9076 22.4276 3.18632 -1.2 -8.85941 -3.13251e+06 -3.67693e+06 -600390 1.16811e+06 13581.2 -1.56095e+06
126 3 O -1.9475 22.4276 5.78248 -1.2 -8.7788 -3.07228e+06 -3.8266e+06 -1.66727e+06 1.19759e+06 165091 1.55739e+06
127 1 Mg 1.50678 21.3705 2.9896 1.2 -8.15031 4.72432e+06 -1.40936e+06 -712608 -1.14037e+06 -1.24885e+06 -1.55846e+06
128 1 Mg 4.31086 21.3292 4.4844 1.2 -8.87903 -472213 2.6644e+06 2.96077e+06 1.16795e+06 -121060 146777
129 2 Si 2.49243 23.394 4.4844 2.4 -33.1705 1.2002e+07 9.38387e+06 7.88189e+06 745362 193431 211098
130 3 O 2.51204 25.0073 4.4844 -1.2 -9.28602 -4.28018e+06 -469619 -3.5223e+06 585668 -250177 -195664
131 3 O -4.13026 22.42 4.4844 -1.2 -9.09219 -3.66179e+06 -2.77264e+06 -3.03178e+06 -1.34443e+06 -450889 -86250.8
132 3 O 3.19799 22.6879 3.18632 -1.2 -8.89427 -3.16379e+06 -3.79369e+06 -605070 -920761 -62735.5 1.18595e+06
133 1 Mg 1.5501 21.3705 0 1.2 -5.9126 5.73544e+06 1.93475e+06 -6.52438e+06 -74260.6 -970371 564932
134 3 O 3.1583 22.6879 5.78248 -1.2 -8.82117 -3.17363e+06 -3.97081e+06 -1.63729e+06 -920068 -439123 -1.31463e+06
135 1 Mg -1.29822 21.4118 1.4948 1.2 -8.69751 404707 2.23189e+06 4.40386e+06 1.80727e+06 -968704 389411
136 2 Si 0.523568 19.3469 1.4948 2.4 -34.5238 8.64814e+06 1.17025e+07 1.08716e+07 302575 952228 2.86232e+06
137 3 O 0.508934 17.7337 1.4948 -1.2 -4.97805 -1.79701e+06 -1.03964e+06 -3.2014e+07 672514 -6.05748e+06 3.87742e+06
138 3 O 7.14425 20.321 1.4948 -1.2 -9.48784 -4.69745e+06 -1.36276e+06 -1.00586e+06 -933985 -1.06644e+06 888372
139 3 O -0.145107 20.0531 0.196716 -1.2 -3.87929 -849960 -1.45264e+07 -2.62945e+07 3.68632e+06 -8.19922e+06 2.94655e+06
140 3 O -0.183601 20.0531 2.79288 -1.2 -8.71373 -2.13673e+06 -4.0869e+06 -2.02046e+06 -841894 42935.7 956172
141 1 Mg 6.70502 23.745 0 1.2 -5.9734 5.57953e+06 2.07444e+06 -6.01949e+06 417075 -1.51174e+06 -371590
142 1 Mg 3.97493 28.4527 1.4948 1.2 -8.8672 -244150 2.66827e+06 4.36686e+06 -1.22601e+06 -755970 228756
143 2 Si 5.77602 25.7685 1.4948 2.4 -34.5064 9.64182e+06 1.09411e+07 1.07948e+07 -111611 1.53806e+06 -1.71822e+06
144 3 O 5.83821 27.3818 1.4948 -1.2 -6.28004 -5.31958e+06 -847132 -2.08868e+07 -346369 -9.30179e+06 -3.42362e+06
145 3 O 2.15175 24.7945 1.4948 -1.2 -9.42375 -4.67339e+06 -1.32059e+06 -1.06222e+06 1.6245e+06 -951679 -1.16717e+06
146 3 O 5.07184 25.0624 0.196716 -1.2 -4.32952 -1.84275e+06 -1.54573e+07 -2.08248e+07 -2.77427e+06 -9.42919e+06 -1.74249e+06
147 1 Mg 6.66374 23.745 2.9896 1.2 -8.14508 4.63806e+06 -1.40204e+06 -615675 1.3096e+06 -1.27615e+06 2.08965e+06
148 3 O 5.03707 25.0624 2.79288 -1.2 -8.63043 -2.15208e+06 -4.1026e+06 -1.9926e+06 1.10032e+06 -168255 -1.43321e+06
149 1 Mg -0.727559 23.7863 4.4844 1.2 -8.84325 -637946 2.82929e+06 2.78265e+06 -465530 -375139 24948.5
150 2 Si -2.5277 26.4704 4.4844 2.4 -33.2755 1.18473e+07 9.57854e+06 8.05408e+06 171327 -250290 575764
151 3 O -2.59107 24.8572 4.4844 -1.2 -9.27982 -4.14733e+06 -542985 -3.44733e+06 307091 -9698.7 -151625
152 3 O 1.09817 27.4445 4.4844 -1.2 -9.04939 -3.80311e+06 -2.94358e+06 -2.85912e+06 2.32306e+06 -420631 -236440
153 3 O -1.78784 27.1766 3.18632 -1.2 -8.8163 -3.14279e+06 -3.80154e+06 -593114 1.13954e+06 56609.8 -1.82714e+06
154 3 O -1.82343 27.1766 5.78248 -1.2 -8.72174 -3.12654e+06 -3.98534e+06 -1.57652e+06 1.08119e+06 86977.2 1.10184e+06
155 1 Mg 1.62435 26.1195 2.9896 1.2 -8.1681 4.8106e+06 -1.31195e+06 -864746 -1.18011e+06 -1.2803e+06 -1.32466e+06
156 1 Mg 4.43064 26.0782 4.4844 1.2 -8.88516 -466025 2.81272e+06 2.81525e+06 1.18553e+06 -210533 227040
157 2 Si 2.61607 28.143 4.4844 2.4 -33.2605 1.21527e+07 9.46506e+06 7.79209e+06 617069 -149658 343837
158 3 O 2.63853 29.7563 4.4844 -1.2 -9.26018 -4.44513e+06 -575231 -3.29567e+06 580957 -30247.4 -147225
159 3 O -4.00841 27.169 4.4844 -1.2 -9.08766 -3.8023e+06 -2.90382e+06 -2.77712e+06 -1.43192e+06 -445010 -306311
160 3 O 3.3182 27.4369 3.18632 -1.2 -8.85783 -3.18062e+06 -3.9112e+06 -608313 -880281 77981 1.02093e+06
161 1 Mg 1.66335 26.1195 0 1.2 -6.04726 5.63125e+06 2.52339e+06 -5.57382e+06 -899999 -1.55947e+06 593672
162 3 O 3.28288 27.4369 5.78248 -1.2 -8.76791 -3.22415e+06 -3.93802e+06 -1.6612e+06 -854857 -130381 -1.23859e+06
163 1 Mg -1.18278 26.1608 1.4948 1.2 -8.81792 153419 2.47773e+06 4.40999e+06 1.89673e+06 -865242 520533
164 2 Si 0.635424 24.0959 1.4948 2.4 -34.5398 9.3692e+06 1.12082e+07 1.07377e+07 755893 1.36905e+06 2.96135e+06
165 3 O 0.617906 22.4827 1.4948 -1.2 -5.50056 -3.62894e+06 -866829 -2.71769e+07 1.00581e+06 -8.53429e+06 3.51724e+06
166 3 O 7.25781 25.07 1.4948 -1.2 -9.45866 -4.76193e+06 -1.20614e+06 -1.02535e+06 -944926 -811108 763983
167 3 O -0.0337363 24.8021 0.196716 -1.2 -4.41924 -2.18511e+06 -1.54137e+07 -2.07938e+07 3.49216e+06 -9.63538e+06 1.58009e+06
168 3 O -0.0687235 24.8021 2.79288 -1.2 -8.68516 -2.21668e+06 -4.22778e+06 -1.89974e+06 -844575 -47256.8 799800
169 1 Mg 6.82195 28.494 0 1.2 -6.07907 5.12644e+06 2.7219e+06 -5.16506e+06 1.15244e+06 -1.83904e+06 -58152.5
170 1 Mg 4.10106 33.2017 1.4948 1.2 -8.93983 -608683 2.94714e+06 4.22842e+06 -1.20614e+06 -517473 261893
171 2 Si 5.89839 30.5175 1.4948 2.4 -34.3079 1.038e+07 1.06545e+07 1.01082e+07 -334379 1.7301e+06 -1.43753e+06
172 3 O 5.96289 32.1308 1.4948 -1.2 -7.14094 -6.45244e+06 -885472 -1.46808e+07 -279522 -8.47242e+06 -2.77746e+06
173 3 O 2.27266 29.5435 1.4948 -1.2 -9.42552 -4.60474e+06 -1.38054e+06 -1.01997e+06 1.6608e+06 -707457 -1.26734e+06
174 3 O 5.19102 29.8114 0.196716 -1.2 -5.2064 -3.16121e+06 -1.5244e+07 -1.45128e+07 -1.93566e+06 -9.3004e+06 -534564
175 1 Mg 6.78546 28.494 2.9896 1.2 -8.15466 4.77366e+06 -1.30893e+06 -823589 1.33921e+06 -1.27807e+06 2.26458e+06
176 3 O 5.16061 29.8114 2.79288 -1.2 -8.62326 -2.27111e+06 -4.25628e+06 -1.77081e+06 1.10304e+06 -272181 -1.5136e+06
177 1 Mg -0.603205 28.5353 4.4844 1.2 -8.94368 -649448 2.83435e+06 2.94477e+06 -479915 -282580 295148
178 2 Si -2.39877 31.2194 4.4844 2.4 -33.3924 1.19853e+07 9.8566e+06 7.83387e+06 9557.55 -130422 345208
179 3 O -2.46483 29.6062 4.4844 -1.2 -9.19774 -4.22745e+06 -547088 -3.47947e+06 361886 -97017.7 -225254
180 3 O 1.22864 32.1935 4.4844 -1.2 -9.03189 -3.83028e+06 -3.24059e+06 -2.55526e+06 2.18152e+06 -269102 -191989
181 3 O -1.66032 31.9256 3.18632 -1.2 -8.77789 -3.11588e+06 -3.99512e+06 -561629 1.16689e+06 108235 -1.75702e+06
182 3 O -1.69072 31.9256 5.78248 -1.2 -8.67727 -3.23687e+06 -4.24616e+06 -1.21679e+06 1.22429e+06 -71901.3 1.42514e+06
183 1 Mg 1.7499 30.8685 2.9896 1.2 -8.17264 4.89801e+06 -1.13013e+06 -1.1201e+06 -1.12701e+06 -1.43414e+06 -1.28481e+06
184 1 Mg 4.55894 30.8272 4.4844 1.2 -8.89512 -332104 3.0145e+06 2.49662e+06 1.21786e+06 -60217.6 266371
185 2 Si 2.7476 32.892 4.4844 2.4 -33.2978 1.22615e+07 1.00269e+07 7.18293e+06 874311 -115190 748586
186 3 O 2.77235 34.5053 4.4844 -1.2 -9.18491 -4.43516e+06 -659663 -3.33425e+06 556071 -117569 -434918
187 3 O -3.87837 31.918 4.4844 -1.2 -9.05801 -3.85647e+06 -3.13094e+06 -2.53733e+06 -1.26497e+06 -419902 -291898
188 3 O 3.44611 32.1859 3.18632 -1.2 -8.83187 -3.1787e+06 -4.14518e+06 -508915 -888622 146134 931178
189 1 Mg 1.7837 30.8685 0 1.2 -6.11824 4.58403e+06 2.91882e+06 -4.86898e+06 -1.3448e+06 -1.53245e+06 711868
190 3 O 3.41602 32.1859 5.78248 -1.2 -8.8403 -3.37298e+06 -4.38242e+06 -800372 -947329 -271165 -1.54544e+06
191 1 Mg -1.05984 30.9098 1.4948 1.2 -8.88912 -223006 2.84814e+06 4.22827e+06 1.90683e+06 -652054 460367
192 2 Si 0.755243 28.8449 1.4948 2.4 -34.403 1.00209e+07 1.0869e+07 1.02911e+07 1.12322e+06 1.55587e+06 3.21859e+06
193 3 O 0.735127 27.2317 1.4948 -1.2 -6.27418 -5.38711e+06 -817032 -2.09962e+07 1.18259e+06 -9.31036e+06 2.68373e+06
194 3 O 7.37914 29.819 1.4948 -1.2 -9.46228 -4.69725e+06 -1.26994e+06 -987362 -933717 -620483 660825
195 3 O 0.0850649 29.5511 0.196716 -1.2 -5.26377 -3.39245e+06 -1.55798e+07 -1.44999e+07 2.70143e+06 -9.41879e+06 74927
196 3 O 0.0543974 29.5511 2.79288 -1.2 -8.65679 -2.24672e+06 -4.34943e+06 -1.84186e+06 -828504 -80156.8 658285
197 1 Mg 6.94543 33.243 0 1.2 -6.19402 3.99972e+06 2.83887e+06 -4.29761e+06 1.57515e+06 -1.4409e+06 -446719
198 1 Mg 4.23267 37.9507 1.4948 1.2 -9.03281 -839775 2.83141e+06 4.30974e+06 -1.11968e+06 -206017 288725
199 2 Si 6.02709 35.2665 1.4948 2.4 -34.1559 1.11652e+07 9.75004e+06 1.00338e+07 -414054 1.61639e+06 -1.27642e+06
200 3 O 6.09339 36.8798 1.4948 -1.2 -7.86658 -6.77773e+06 -572545 -9.9988e+06 -149929 -6.6236e+06 -2.25878e+06
201 3 O 2.40018 34.2925 1.4948 -1.2 -9.39419 -4.53008e+06 -1.34157e+06 -1.23555e+06 1.68784e+06 -525242 -1.21612e+06
202 3 O 5.31645 34.5604 0.196716 -1.2 -6.12568 -4.16902e+06 -1.35413e+07 -9.29858e+06 -947308 -7.85648e+06 746313
203 1 Mg 6.91449 33.243 2.9896 1.2 -8.15976 4.86069e+06 -1.16061e+06 -1.0425e+06 1.28385e+06 -1.38726e+06 2.25324e+06
204 3 O 5.291 34.5604 2.79288 -1.2 -8.59665 -2.37418e+06 -4.25407e+06 -1.74627e+06 1.13376e+06 -283015 -1.56338e+06
205 1 Mg -0.471101 33.2843 4.4844 1.2 -8.95281 -628180 3.12132e+06 2.64576e+06 -412937 -205503 237438
206 2 Si -2.26307 35.9684 4.4844 2.4 -33.4697 1.22596e+07 9.87369e+06 7.66754e+06 131328 -301512 950324
207 3 O -2.33122 34.3552 4.4844 -1.2 -9.19092 -4.3395e+06 -765527 -3.14904e+06 429991 19920.2 -349417
208 3 O 1.36549 36.9425 4.4844 -1.2 -8.94551 -4.01998e+06 -3.06788e+06 -2.67459e+06 2.35248e+06 -330699 -391376
209 3 O -1.52658 36.6746 3.18632 -1.2 -8.71085 -3.17153e+06 -3.88427e+06 -819302 1.14708e+06 165045 -1.91191e+06
210 3 O -1.55122 36.6746 5.78248 -1.2 -8.63607 -3.33435e+06 -4.1661e+06 -1.09236e+06 1.19523e+06 82252.3 796204
211 1 Mg 1.882 35.6175 2.9896 1.2 -8.21305 4.99541e+06 -1.19759e+06 -1.07512e+06 -1.12062e+06 -1.45961e+06 -1.16938e+06
212 1 Mg 4.69415 35.5762 4.4844 1.2 -9.00494 -306473 2.93457e+06 2.73005e+06 1.22827e+06 -132208 447188
213 2 Si 2.88522 37.641 4.4844 2.4 -33.5164 1.24588e+07 9.55138e+06 7.81812e+06 660195 -70440.1 734213
214 3 O 2.91159 39.2543 4.4844 -1.2 -9.11345 -4.62063e+06 -419546 -3.50125e+06 670629 -11558.7 -388011
215 3 O -3.74183 36.667 4.4844 -1.2 -8.98362 -4.0392e+06 -2.9801e+06 -2.62496e+06 -1.38594e+06 -279509 -508687
216 3 O 3.58014 36.9349 3.18632 -1.2 -8.74393 -3.18908e+06 -3.96706e+06 -919188 -852682 194933 875150
217 1 Mg 1.90997 35.6175 0 1.2 -6.26588 3.37598e+06 2.58506e+06 -4.06932e+06 -1.65251e+06 -779430 1.04385e+06
218 3 O 3.55582 36.9349 5.78248 -1.2 -8.59361 -3.3555e+06 -4.13385e+06 -1.55234e+06 -887323 -170499 -1.50968e+06
219 1 Mg -0.93068 35.6588 1.4948 1.2 -8.97032 -487907 2.89182e+06 4.18748e+06 1.85437e+06 -340523 396017
220 2 Si 0.881882 33.5939 1.4948 2.4 -34.2165 1.0773e+07 1.0304e+07 9.87616e+06 1.42934e+06 1.6018e+06 2.87766e+06
221 3 O 0.859602 31.9807 1.4948 -1.2 -7.13678 -6.51912e+06 -871655 -1.47779e+07 1.14989e+06 -8.45158e+06 2.11698e+06
222 3 O 7.507 34.568 1.4948 -1.2 -9.4325 -4.64575e+06 -1.2297e+06 -1.19342e+06 -928040 -414456 731591
223 3 O 0.210186 34.3001 0.196716 -1.2 -6.16185 -4.31062e+06 -1.42743e+07 -9.21448e+06 1.52791e+06 -7.9216e+06 -930027
224 3 O 0.184454 34.3001 2.79288 -1.2 -8.64975 -2.38545e+06 -4.42183e+06 -1.68728e+06 -855865 -159297 600017
225 1 Mg 7.07415 37.992 0 1.2 -6.36148 2.89569e+06 2.38775e+06 -3.62347e+06 1.87015e+06 -391941 -1.03152e+06
226 1 Mg 4.36817 42.6997 1.4948 1.2 -9.03783 -1.0109e+06 2.8346e+06 4.10381e+06 -1.01363e+06 117764 196991
227 2 Si 6.16058 40.0155 1.4948 2.4 -34.0357 1.1884e+07 8.53519e+06 1.03448e+07 -357463 1.40464e+06 -1.1063e+06
228 3 O 6.22815 41.6288 1.4948 -1.2 -8.44878 -6.35984e+06 -323506 -6.82382e+06 36215.8 -4.56873e+06 -1.79764e+06
229 3 O 2.53282 39.0415 1.4948 -1.2 -9.31385 -4.5124e+06 -1.13408e+06 -1.7494e+06 1.72798e+06 -325176 -1.21373e+06
230 3 O 5.44674 39.3094 0.196716 -1.2 -6.9494 -4.68719e+06 -1.08462e+07 -5.71487e+06 -152952 -5.79325e+06 1.58625e+06
231 1 Mg 7.04922 37.992 2.9896 1.2 -8.21592 4.98838e+06 -1.41313e+06 -816737 1.33697e+06 -1.46288e+06 2.32502e+06
232 3 O 5.42658 39.3094 2.79288 -1.2 -8.56041 -2.60857e+06 -3.92968e+06 -1.92435e+06 1.11696e+06 -348524 -1.52356e+06
233 1 Mg -0.333062 38.0333 4.4844 1.2 -9.05679 -488318 2.85975e+06 2.92995e+06 -468896 -210256 538094
234 2 Si -2.12255 40.7174 4.4844 2.4 -33.7341 1.23413e+07 9.0768e+06 8.81832e+06 258636 -5753.82 764526
235 3 O -2.19212 39.1042 4.4844 -1.2 -9.06172 -4.40408e+06 -403959 -3.6438e+06 351199 -30308.8 -489702
236 3 O 1.50676 41.6915 4.4844 -1.2 -8.86116 -4.10134e+06 -2.76719e+06 -3.02767e+06 2.2905e+06 -72230.7 -305864
237 3 O -1.3884 41.4236 3.18632 -1.2 -8.63417 -3.11888e+06 -3.60934e+06 -1.36929e+06 1.11542e+06 120645 -1.73624e+06
238 3 O -1.40713 41.4236 5.78248 -1.2 -8.33603 -3.37116e+06 -3.71809e+06 -2.1412e+06 1.06042e+06 -43771.5 1.00042e+06
239 1 Mg 2.01892 40.3665 2.9896 1.2 -8.26198 5.09536e+06 -1.44552e+06 -835512 -1.12273e+06 -1.65242e+06 -1.18996e+06
240 1 Mg 4.83434 40.3252 4.4844 1.2 -9.04423 -39700.7 2.62848e+06 2.83104e+06 1.21813e+06 2078.25 371375
241 2 Si 3.02698 42.39 4.4844 2.4 -33.5775 1.26267e+07 9.05586e+06 8.24586e+06 723334 -344401 516826
242 3 O 3.05433 44.0033 4.4844 -1.2 -9.13731 -4.4675e+06 -389530 -3.65151e+06 591256 89284 -104060
243 3 O -3.60077 41.416 4.4844 -1.2 -8.92722 -4.23473e+06 -2.60965e+06 -2.88662e+06 -1.31689e+06 -395466 -301213
244 3 O 3.71851 41.6839 3.18632 -1.2 -8.70844 -3.2284e+06 -3.77017e+06 -1.24499e+06 -815478 261581 956537
245 1 Mg 2.04077 40.3665 0 1.2 -6.38567 2.45668e+06 2.16335e+06 -3.95756e+06 -1.83235e+06 385999 1.81177e+06
246 3 O 3.70011 41.6839 5.78248 -1.2 -8.59256 -3.6709e+06 -3.76994e+06 -1.44379e+06 -794110 -68758.5 -1.60835e+06
247 1 Mg -0.796865 40.4078 1.4948 1.2 -9.03543 -676620 2.74722e+06 4.23352e+06 1.75656e+06 32807.6 335505
248 2 Si 1.01387 38.3429 1.4948 2.4 -34.1107 1.15825e+07 9.05512e+06 1.01815e+07 1.50706e+06 1.40294e+06 2.65288e+06
249 3 O 0.989947 36.7297 1.4948 -1.2 -7.86565 -6.85921e+06 -572496 -1.00705e+07 1.04521e+06 -6.6183e+06 1.60482e+06
250 3 O 7.63988 39.317 1.4948 -1.2 -9.34942 -4.60449e+06 -1.01415e+06 -1.75636e+06 -940845 -282928 765428
251 3 O 0.340253 39.0491 0.196716 -1.2 -6.96405 -4.79034e+06 -1.17696e+07 -5.61984e+06 392065 -5.83799e+06 -1.80188e+06
252 3 O 0.319795 39.0491 2.79288 -1.2 -8.59883 -2.56854e+06 -4.10632e+06 -1.93851e+06 -836583 -148911 513443
253 1 Mg 7.20667 42.741 0 1.2 -6.42979 2.079e+06 2.1283e+06 -3.90159e+06 1.99343e+06 971624 -1.91754e+06
254 1 Mg 4.50613 47.4487 1.4948 1.2 -8.91614 -1.19501e+06 3.16447e+06 3.5599e+06 -851931 411879 290934
255 2 Si 6.29731 44.7645 1.4948 2.4 -33.7559 1.21301e+07 8.16398e+06 9.99847e+06 -260915 976891 -1.14324e+06
256 3 O 6.36567 46.3778 1.4948 -1.2 -8.94817 -5.44335e+06 -525957 -4.63724e+06 191145 -2.7126e+06 -1.52375e+06
257 3 O 2.669 43.7905 1.4948 -1.2 -9.28555 -4.33137e+06 -1.2923e+06 -2.08744e+06 1.72234e+06 -160305 -1.07595e+06
258 3 O 5.58048 44.0584 0.196716 -1.2 -7.68838 -4.58599e+06 -8.23192e+06 -3.28227e+06 330763 -3.75147e+06 2.20615e+06
259 1 Mg 7.1879 42.741 2.9896 1.2 -8.2099 5.01211e+06 -1.55209e+06 -697822 1.27671e+06 -1.49546e+06 2.0589e+06
260 3 O 5.56564 44.0584 2.79288 -1.2 -8.63477 -2.69214e+06 -3.89973e+06 -1.7772e+06 1.16821e+06 -312949 -1.3009e+06
261 1 Mg -0.19105 42.7823 4.4844 1.2 -9.13047 -543012 2.60185e+06 3.36103e+06 -347384 -137186 136055
262 2 Si -1.97909 45.4664 4.4844 2.4 -33.3581 1.19646e+07 9.73264e+06 7.93304e+06 47642.7 16620.8 -21304.2
263 3 O -2.04947 43.8532 4.4844 -1.2 -9.11263 -4.35291e+06 -388792 -3.62703e+06 457198 -122430 25842.1
264 3 O 1.65063 46.4405 4.4844 -1.2 -9.04276 -3.72254e+06 -3.27154e+06 -2.62514e+06 2.22544e+06 -171337 -119501
265 3 O -1.24745 46.1726 3.18632 -1.2 -8.76196 -2.91399e+06 -3.95115e+06 -1.13659e+06 1.14016e+06 65096.3 -1.53698e+06
266 3 O -1.26044 46.1726 5.78248 -1.2 -8.75879 -2.98016e+06 -4.27247e+06 -1.05311e+06 1.16357e+06 83836.1 1.41619e+06
267 1 Mg 2.15896 45.1155 2.9896 1.2 -8.18978 4.87988e+06 -1.25341e+06 -912123 -1.04366e+06 -1.73201e+06 -1.4163e+06
268 1 Mg 4.97763 45.0742 4.4844 1.2 -8.91864 -238120 2.82576e+06 2.63069e+06 1.1904e+06 -105162 85917.1
269 2 Si 3.1711 47.139 4.4844 2.4 -33.2328 1.15591e+07 1.01543e+07 7.66229e+06 870160 -219456 566839