ITEM: TIMESTEP
69200
ITEM: NUMBER OF ATOMS
10500
ITEM: BOX BOUNDS xy xz yz pp pp pp
0.0000000000000000e+00 1.5297749999999999e+01 5.0992499999999996e+00
0.0000000000000000e+00 1.1872499999999999e+02 0.0000000000000000e+00
0.0000000000000000e+00 8.9688000000000002e+01 0.0000000000000000e+00
ITEM: ATOMS id type element xu yu zu q c_pe c_s[1] c_s[2] c_s[3] c_s[4] c_s[5] c_s[6]
1 1 Mg 6.2404 -6.37941e-06 0 1.2 -4.17094 7.55926e+06 -1.629e+06 -6.50942e+06 -10382.5 2.6005e+06 -192710
2 1 Mg 3.46349 4.70768 1.4948 1.2 -8.09772 -954460 3.28774e+06 3.73679e+06 -926691 -603745 493174
3 2 Si 5.2885 2.02354 1.4948 2.4 -34.5029 8.84945e+06 1.18137e+07 1.04091e+07 8.90087e+06 683240 -2.70261e+06
4 3 O 5.33628 3.63678 1.4948 -1.2 -5.11011 -209745 -1.97187e+06 -3.31296e+07 -342578 3.80958e+06 -4.2051e+06
5 3 O 1.67294 1.04952 1.4948 -1.2 -1.39964 -1.97074e+07 -7.97574e+07 -1.78714e+06 -2.41259e+07 -135354 -141486
6 3 O 4.59532 1.31737 0.196716 -1.2 -3.32311 -1.50863e+06 -7.02402e+06 -3.01214e+07 -6.04584e+06 6.2295e+06 -2.79391e+06
7 1 Mg 6.18956 -6.37941e-06 2.9896 1.2 -4.50578 982228 -2.79359e+07 -3.3626e+06 -8.80692e+06 2.41683e+06 4.03991e+06
8 3 O 4.55118 1.31737 2.79288 -1.2 -7.93571 825201 -5.09411e+06 -2.75712e+06 -3.02065e+06 -3.38245e+06 -1.19967e+06
9 1 Mg -1.20682 0.0413099 4.4844 1.2 9.42777 -3.15077e+07 -9.31875e+07 -509567 -2.86956e+07 -1.08355e+06 160738
10 2 Si -3.0337 2.72544 4.4844 2.4 -32.0242 1.25768e+07 7.65851e+06 7.44583e+06 1.50995e+06 31155.1 -185364
11 3 O -3.08099 1.11221 4.4844 -1.2 -10.1628 -5.39838e+06 -173395 -1.84479e+06 -1.18329e+06 -225761 112667
12 3 O 0.582463 3.69946 4.4844 -1.2 -9.52795 -2.36678e+06 -5.9574e+06 -2.3844e+06 -562452 -159959 -314042
13 3 O -2.29524 3.43162 3.18632 -1.2 -9.53371 -3.47811e+06 -2.97231e+06 -113240 1.11922e+06 -798155 -1.21169e+06
14 3 O -2.34216 3.43162 5.78248 -1.2 -9.48557 -2.89101e+06 -3.42863e+06 -1.36471e+06 908194 801992 1.09894e+06
15 1 Mg 1.12778 2.37449 2.9896 1.2 -7.14861 4.41003e+06 -1.17268e+06 -1.10346e+06 -3.289e+06 -4.1867e+06 -2.10599e+06
16 1 Mg 3.92855 2.33318 4.4844 1.2 -7.9122 -5.04487e+06 5.35556e+06 4.39328e+06 1.48167e+06 328904 632911
17 2 Si 2.09341 4.39804 4.4844 2.4 -31.2919 1.02176e+07 7.84068e+06 8.00498e+06 222148 -209090 1.12314e+06
18 3 O 2.09991 6.01128 4.4844 -1.2 -9.99058 -3.15596e+06 -541525 -3.46619e+06 562264 -167163 -539866
19 3 O -4.52137 3.42402 4.4844 -1.2 -9.71346 -1.99134e+06 -3.27321e+06 -3.27698e+06 -2.43658e+06 -914797 -214490
20 3 O 2.80834 3.69187 3.18632 -1.2 -9.80068 -1.34542e+06 -3.34455e+06 70492.7 438348 -506501 -774460
21 1 Mg 1.17857 2.37449 0 1.2 -4.83627 -1.13998e+06 -1.43848e+07 -6.80912e+06 6.51809e+06 1.21787e+06 4.81532e+06
22 3 O 2.76143 3.69187 5.78248 -1.2 -9.98586 -1.77548e+06 -2.82879e+06 -922007 451304 52998.7 -242876
23 1 Mg -1.67381 2.41581 1.4948 1.2 -7.20295 972306 215965 3.61877e+06 1.3318e+06 -598575 1.2308e+06
24 2 Si 0.16286 0.350945 1.4948 2.4 -23.8862 -9.37661e+06 1.30553e+07 1.08892e+07 1.5304e+06 2.8864e+06 1.16384e+06
25 3 O 0.15972 -1.26229 1.4948 -1.2 -5.05554 -1.01396e+07 -8.20977e+06 -2.88349e+07 -5.57904e+06 -8.58236e+06 -2.46044e+06
26 3 O 6.77654 1.32496 1.4948 -1.2 -10.7212 -5.20753e+06 1.41503e+06 -974003 -641470 -634571 945330
27 3 O -0.508028 1.05712 0.196716 -1.2 -9.80882 587162 -5.00146e+06 -401119 -532356 210614 -4.65103e+06
28 3 O -0.552171 1.05712 2.79288 -1.2 -7.22456 -4.63503e+06 -4.95612e+06 -2.43155e+07 1.48631e+06 -6.82078e+06 -5.55862e+06
29 1 Mg 6.31713 4.74899 0 1.2 -4.6093 -110975 -1.23253e+07 -6.73116e+06 -7.30859e+06 1.41989e+06 -3.17019e+06
30 1 Mg 3.54847 9.45668 1.4948 1.2 -8.03227 -218045 2.36843e+06 3.79341e+06 -949024 -926511 244114
31 2 Si 5.36879 6.77254 1.4948 2.4 -33.5705 6.15073e+06 1.33546e+07 1.02286e+07 1.66631e+06 149463 -900650
32 3 O 5.41937 8.38578 1.4948 -1.2 -5.09033 198607 -1.60337e+06 -3.45428e+07 763001 1.11296e+06 -4.79547e+06
33 3 O 1.75158 5.79852 1.4948 -1.2 -9.87241 -3.37883e+06 -2.99169e+06 -825214 1.96516e+06 -1.604e+06 -1.84089e+06
34 3 O 4.67421 6.06637 0.196716 -1.2 -4.10527 663192 -1.07651e+07 -3.08007e+07 -2.01979e+06 1.28093e+06 -4.96054e+06
35 1 Mg 6.26654 4.74899 2.9896 1.2 -7.57879 3.39567e+06 -1.13951e+06 -543360 1.79951e+06 -848969 2.28563e+06
36 3 O 4.63043 6.06637 2.79288 -1.2 -9.26925 -936736 -4.56843e+06 -1.60382e+06 943011 -119358 -1.90743e+06
37 1 Mg -1.12976 4.79031 4.4844 1.2 -8.24914 -1.40353e+06 3.23586e+06 2.2518e+06 -687347 -488626 191390
38 2 Si -2.9517 7.47444 4.4844 2.4 -31.9269 9.91117e+06 9.95473e+06 7.43814e+06 56000 -78955.8 672058
39 3 O -3.00198 5.86121 4.4844 -1.2 -9.94375 -3.18295e+06 -648154 -3.26982e+06 34202.4 -175580 -245014
40 3 O 0.666315 8.44846 4.4844 -1.2 -9.67095 -2.6829e+06 -3.10895e+06 -2.80989e+06 2.1219e+06 -527653 -357069
41 3 O -2.21213 8.18062 3.18632 -1.2 -9.47466 -2.36667e+06 -3.98019e+06 -20217.7 1.10462e+06 -296841 -1.91924e+06
42 3 O -2.25864 8.18062 5.78248 -1.2 -9.50569 -2.31059e+06 -4.07179e+06 -1.06074e+06 1.06231e+06 -87639.7 1.06772e+06
43 1 Mg 1.20893 7.12349 2.9896 1.2 -7.59632 3.46213e+06 -1.02043e+06 -721606 -1.28114e+06 -1.3192e+06 -1.17525e+06
44 1 Mg 4.00982 7.08218 4.4844 1.2 -8.20888 -1.59284e+06 3.0779e+06 2.58597e+06 984330 -280677 533293
45 2 Si 2.17861 9.14704 4.4844 2.4 -32.1075 9.91488e+06 9.91623e+06 7.73286e+06 622754 -40235.4 876460
46 3 O 2.18828 10.7603 4.4844 -1.2 -9.74417 -3.45796e+06 -668483 -3.40821e+06 451553 -210979 -384215
47 3 O -4.43805 8.17302 4.4844 -1.2 -9.72518 -2.68338e+06 -3.16583e+06 -2.62064e+06 -1.50856e+06 -457875 -458586
48 3 O 2.89193 8.44087 3.18632 -1.2 -9.46657 -2.18746e+06 -4.15878e+06 -184722 -929061 -226481 767327
49 1 Mg 1.25915 7.12349 0 1.2 -4.99309 435087 -6.91355e+06 -6.96799e+06 5.89963e+06 1.38143e+06 3.20719e+06
50 3 O 2.84547 8.44087 5.78248 -1.2 -9.42577 -2.13778e+06 -4.19393e+06 -1.38837e+06 -942788 -78259 -1.54094e+06
51 1 Mg -1.59284 7.16481 1.4948 1.2 -7.89107 260239 2.00557e+06 3.65086e+06 1.45298e+06 -924333 871572
52 2 Si 0.240329 5.09994 1.4948 2.4 -33.3049 7.05642e+06 1.2125e+07 1.01276e+07 -1.96721e+06 -1.07131e+06 2.82963e+06
53 3 O 0.234538 3.48671 1.4948 -1.2 -5.60485 -1.14678e+06 -117697 -3.32903e+07 409695 5.18753e+06 3.65579e+06
54 3 O 6.85564 6.07396 1.4948 -1.2 -9.95491 -3.83141e+06 -2.43746e+06 -756295 -1.33984e+06 -1.82063e+06 681042
55 3 O -0.429565 5.80612 0.196716 -1.2 -4.35208 -128184 -9.39573e+06 -3.09395e+07 1.86191e+06 1.21314e+06 4.04025e+06
56 3 O -0.473377 5.80612 2.79288 -1.2 -9.36546 -1.47684e+06 -4.1293e+06 -1.44958e+06 -786920 315735 869354
57 1 Mg 6.40169 9.49799 0 1.2 -4.97873 1.08272e+06 -5.77423e+06 -7.26693e+06 -5.48618e+06 991798 -1.87612e+06
58 1 Mg 3.64209 14.2057 1.4948 1.2 -8.33686 96540.5 2.00836e+06 4.28604e+06 -1.03805e+06 -975194 43769.9
59 2 Si 5.45748 11.5215 1.4948 2.4 -33.837 6.8686e+06 1.27167e+07 1.05518e+07 915469 318176 -1.16008e+06
60 3 O 5.51101 13.1348 1.4948 -1.2 -4.92083 -309256 -1.20813e+06 -3.45212e+07 460059 -2.52843e+06 -4.74815e+06
61 3 O 1.83851 10.5475 1.4948 -1.2 -9.83556 -3.80215e+06 -2.4548e+06 -726230 1.54173e+06 -1.58988e+06 -1.6204e+06
62 3 O 4.7611 10.8154 0.196716 -1.2 -3.88174 985767 -1.20657e+07 -3.1403e+07 -2.48068e+06 -1.74626e+06 -4.82013e+06
63 1 Mg 6.35203 9.49799 2.9896 1.2 -7.64973 3.60178e+06 -1.02212e+06 -755476 1.31515e+06 -1.21158e+06 2.50575e+06
64 3 O 4.71833 10.8154 2.79288 -1.2 -9.12436 -1.41592e+06 -4.30131e+06 -1.63194e+06 1.03429e+06 40101.2 -1.81143e+06
65 1 Mg -1.0438 9.53931 4.4844 1.2 -8.2963 -1.39004e+06 3.01544e+06 2.49541e+06 -595121 -246068 359397
66 2 Si -2.8604 12.2234 4.4844 2.4 -32.506 1.07916e+07 9.5608e+06 7.88146e+06 -17894.6 -141280 1.0525e+06
67 3 O -2.91391 10.6102 4.4844 -1.2 -9.77848 -3.47786e+06 -684172 -3.21422e+06 220335 -147122 -487929
68 3 O 0.7596 13.1975 4.4844 -1.2 -9.34217 -3.20975e+06 -2.95864e+06 -2.95671e+06 2.17006e+06 -453940 -394528
69 3 O -2.12001 12.9296 3.18632 -1.2 -9.19065 -2.71002e+06 -3.75058e+06 -364812 1.14859e+06 -213305 -1.97383e+06
70 3 O -2.16532 12.9296 5.78248 -1.2 -9.06951 -2.82865e+06 -3.78442e+06 -1.55288e+06 1.14159e+06 -31070.6 858836
71 1 Mg 1.29891 11.8725 2.9896 1.2 -7.80289 3.86683e+06 -1.11169e+06 -707350 -1.1965e+06 -1.20846e+06 -1.21924e+06
72 1 Mg 4.10033 11.8312 4.4844 1.2 -8.4803 -1.08482e+06 2.93314e+06 2.66179e+06 1.16759e+06 -272141 490011
73 2 Si 2.27333 13.896 4.4844 2.4 -32.814 1.13013e+07 9.31217e+06 8.07852e+06 577861 -94560.8 880922
74 3 O 2.28634 15.5093 4.4844 -1.2 -9.3056 -4.20204e+06 -125542 -3.91444e+06 522934 -104200 -298419
75 3 O -4.34533 12.922 4.4844 -1.2 -9.39383 -3.24598e+06 -2.82907e+06 -2.91703e+06 -1.50557e+06 -476544 -524508
76 3 O 2.98455 13.1899 3.18632 -1.2 -9.19502 -2.71676e+06 -3.85593e+06 -414932 -943791 -165919 873675
77 1 Mg 1.34779 11.8725 0 1.2 -5.29898 2.47123e+06 -2.3025e+06 -7.22677e+06 3.55371e+06 818905 2.04804e+06
78 3 O 2.93934 13.1899 5.78248 -1.2 -9.10667 -2.90588e+06 -4.1006e+06 -1.16373e+06 -876126 -283739 -1.55494e+06
79 1 Mg -1.50344 11.9138 1.4948 1.2 -8.14317 197457 2.18839e+06 3.91849e+06 1.55948e+06 -941840 890478
80 2 Si 0.326006 9.84894 1.4948 2.4 -33.6548 6.70334e+06 1.29698e+07 1.01443e+07 -622062 141223 3.37864e+06
81 3 O 0.317364 8.23571 1.4948 -1.2 -5.09689 77956.7 -1.46661e+06 -3.46783e+07 -120510 1.16719e+06 3.61758e+06
82 3 O 6.94307 10.823 1.4948 -1.2 -9.86198 -3.96321e+06 -2.25561e+06 -681012 -988227 -1.51897e+06 528166
83 3 O -0.343122 10.5551 0.196716 -1.2 -3.98938 701467 -1.15565e+07 -3.14206e+07 2.47507e+06 -2.06528e+06 3.96698e+06
84 3 O -0.385966 10.5551 2.79288 -1.2 -9.18083 -1.46285e+06 -4.36791e+06 -1.57789e+06 -843437 72468.4 614382
85 1 Mg 6.49448 14.247 0 1.2 -5.39859 3.11839e+06 -1.76837e+06 -7.06352e+06 -2.96576e+06 234073 -1.21993e+06
86 1 Mg 3.74457 18.9547 1.4948 1.2 -8.67417 320347 1.74575e+06 4.78811e+06 -1.11639e+06 -994784 -368962
87 2 Si 5.55495 16.2705 1.4948 2.4 -34.3908 8.08347e+06 1.1372e+07 1.15876e+07 530817 785038 -1.93933e+06
88 3 O 5.6115 17.8838 1.4948 -1.2 -4.95591 -1.79533e+06 -637154 -3.23185e+07 73944.3 -6.05726e+06 -4.15351e+06
89 3 O 1.93416 15.2965 1.4948 -1.2 -9.59602 -4.32662e+06 -1.63501e+06 -1.15521e+06 1.54181e+06 -1.37005e+06 -1.30608e+06
90 3 O 4.85636 15.5644 0.196716 -1.2 -3.64918 580802 -1.32747e+07 -3.03274e+07 -3.03238e+06 -5.10741e+06 -3.94697e+06
91 1 Mg 6.44662 14.247 2.9896 1.2 -7.95161 4.17809e+06 -1.4866e+06 -384540 1.30622e+06 -1.19324e+06 2.365e+06
92 3 O 4.81537 15.5644 2.79288 -1.2 -8.78461 -1.97719e+06 -3.78651e+06 -2.16113e+06 1.07383e+06 -17580.4 -1.52324e+06
93 1 Mg -0.948271 14.2883 4.4844 1.2 -8.72169 -858629 2.61419e+06 3.04097e+06 -519581 -289487 347527
94 2 Si -2.75928 16.9724 4.4844 2.4 -33.3921 1.22409e+07 8.54918e+06 8.86858e+06 27945.4 -4144.2 158499
95 3 O -2.81617 15.3592 4.4844 -1.2 -9.3292 -4.15579e+06 -133092 -3.78526e+06 229542 -167820 -236422
96 3 O 0.862762 17.9465 4.4844 -1.2 -8.89676 -3.80975e+06 -2.4204e+06 -3.60808e+06 2.20428e+06 -466700 109768
97 3 O -2.0185 17.6786 3.18632 -1.2 -8.83115 -3.23607e+06 -3.26034e+06 -920363 1.15498e+06 -184455 -1.53539e+06
98 3 O -2.06164 17.6786 5.78248 -1.2 -8.53546 -3.69523e+06 -3.49541e+06 -1.80357e+06 1.12719e+06 -194829 1.44501e+06
99 1 Mg 1.39817 16.6215 2.9896 1.2 -8.15009 4.49813e+06 -1.69575e+06 -200389 -1.17919e+06 -1.24903e+06 -1.50602e+06
100 1 Mg 4.20062 16.5802 4.4844 1.2 -8.90656 -263947 2.34371e+06 3.11293e+06 1.12283e+06 -318673 165096
101 2 Si 2.37796 18.645 4.4844 2.4 -33.5894 1.24975e+07 8.27251e+06 9.16525e+06 673304 -313957 -329922
102 3 O 2.39434 20.2583 4.4844 -1.2 -9.0722 -4.62023e+06 102599 -4.08849e+06 541165 -18106 451370
103 3 O -4.24274 17.671 4.4844 -1.2 -8.99113 -4.01498e+06 -2.34109e+06 -3.27865e+06 -1.45038e+06 -494086 -57884.2
104 3 O 3.08659 17.9389 3.18632 -1.2 -8.85137 -3.27658e+06 -3.32441e+06 -976171 -934986 -18998.7 1.33303e+06
105 1 Mg 1.44478 16.6215 0 1.2 -5.67705 4.56178e+06 153398 -6.72477e+06 1.40303e+06 -53539.8 1.03487e+06
106 3 O 3.0436 17.9389 5.78248 -1.2 -8.54522 -3.7625e+06 -3.48191e+06 -1.8347e+06 -951518 63831.1 -1.11587e+06
107 1 Mg -1.40524 16.6628 1.4948 1.2 -8.51321 468887 1.80465e+06 4.57602e+06 1.69282e+06 -949805 515019
108 2 Si 0.420358 14.5979 1.4948 2.4 -34.1847 7.62269e+06 1.19271e+07 1.11008e+07 -140316 581496 3.14617e+06
109 3 O 0.408732 12.9847 1.4948 -1.2 -4.92076 -332665 -1.21711e+06 -3.46239e+07 233136 -2.57256e+06 3.8255e+06
110 3 O 7.03923 15.572 1.4948 -1.2 -9.61563 -4.46488e+06 -1.45457e+06 -1.13316e+06 -951589 -1.31066e+06 779195
111 3 O -0.248332 15.3041 0.196716 -1.2 -3.76503 284659 -1.28265e+07 -3.03481e+07 3.25402e+06 -5.43756e+06 3.7488e+06
112 3 O -0.289436 15.3041 2.79288 -1.2 -8.83129 -1.91926e+06 -3.91939e+06 -2.16905e+06 -860697 29860.8 779042
113 1 Mg 6.59566 18.996 0 1.2 -5.77643 4.91171e+06 484419 -6.46105e+06 -920896 -656654 -957154
114 1 Mg 3.85574 23.7037 1.4948 1.2 -8.84196 195677 2.02544e+06 4.76204e+06 -1.19815e+06 -956074 -545549
115 2 Si 5.66125 21.0195 1.4948 2.4 -34.6902 9.15295e+06 1.06421e+07 1.17895e+07 193213 1.27098e+06 -2.92193e+06
116 3 O 5.72074 22.6328 1.4948 -1.2 -5.43443 -3.68383e+06 -545439 -2.74134e+07 -216322 -8.54159e+06 -3.32258e+06
117 3 O 2.03867 20.0455 1.4948 -1.2 -9.39772 -4.70515e+06 -1.10253e+06 -1.42375e+06 1.57681e+06 -1.11098e+06 -772073
118 3 O 4.96004 20.3134 0.196716 -1.2 -3.74996 -487097 -1.44645e+07 -2.67228e+07 -3.18422e+06 -7.93489e+06 -2.56998e+06
119 1 Mg 6.55057 18.996 2.9896 1.2 -8.22888 4.74994e+06 -1.90206e+06 -96047.9 1.32206e+06 -1.16796e+06 1.84684e+06
120 3 O 4.92172 20.3134 2.79288 -1.2 -8.55827 -2.36207e+06 -3.56406e+06 -2.39422e+06 1.06933e+06 -100466 -938527
121 1 Mg -0.84282 19.0373 4.4844 1.2 -9.09319 -386673 2.26392e+06 3.50781e+06 -559553 -209617 -206220
122 2 Si -2.64823 21.7214 4.4844 2.4 -33.6688 1.2427e+07 8.56691e+06 9.12571e+06 151696 158095 -952571
123 3 O -2.70847 20.1082 4.4844 -1.2 -9.04879 -4.55588e+06 99785.1 -4.04555e+06 264971 -211697 300030
124 3 O 0.97581 22.6955 4.4844 -1.2 -8.899 -3.81994e+06 -2.72822e+06 -3.26876e+06 2.21842e+06 -314534 507669
125 3 O -1.9076 22.4276 3.18632 -1.2 -8.72219 -3.29823e+06 -3.36502e+06 -957974 1.13766e+06 -130145 -1.07131e+06
126 3 O -1.9475 22.4276 5.78248 -1.2 -8.44137 -3.31688e+06 -3.65384e+06 -2.4059e+06 1.01369e+06 -99393.8 1.92689e+06
127 1 Mg 1.50678 21.3705 2.9896 1.2 -8.28935 4.83659e+06 -1.74001e+06 -271440 -1.18297e+06 -1.33334e+06 -2.02671e+06
128 1 Mg 4.31086 21.3292 4.4844 1.2 -9.03327 56210.6 2.29996e+06 3.04352e+06 1.16192e+06 -258358 -522913
129 2 Si 2.49243 23.394 4.4844 2.4 -33.4557 1.23671e+07 9.09851e+06 8.2606e+06 675440 -525320 -790136
130 3 O 2.51204 25.0073 4.4844 -1.2 -9.1791 -4.39701e+06 -296077 -3.72865e+06 500461 66365.4 242983
131 3 O -4.13026 22.42 4.4844 -1.2 -8.96562 -4.15831e+06 -2.48156e+06 -3.01879e+06 -1.41502e+06 -647166 532194
132 3 O 3.19799 22.6879 3.18632 -1.2 -8.78512 -3.39724e+06 -3.51752e+06 -820677 -896865 103655 1.73022e+06
133 1 Mg 1.5501 21.3705 0 1.2 -5.93392 5.75731e+06 1.58019e+06 -6.15752e+06 -63830.5 -1.0134e+06 217011
134 3 O 3.1583 22.6879 5.78248 -1.2 -8.71617 -3.57008e+06 -3.94639e+06 -1.30676e+06 -814297 150386 -645530
135 1 Mg -1.29822 21.4118 1.4948 1.2 -8.77014 494834 1.87119e+06 4.79082e+06 1.80964e+06 -917459 -8298.57
136 2 Si 0.523568 19.3469 1.4948 2.4 -34.6397 8.73884e+06 1.08836e+07 1.17854e+07 295260 970842 2.32398e+06
137 3 O 0.508934 17.7337 1.4948 -1.2 -4.95051 -1.80206e+06 -636481 -3.24562e+07 672100 -6.08189e+06 4.03353e+06
138 3 O 7.14425 20.321 1.4948 -1.2 -9.42723 -4.82594e+06 -962949 -1.37374e+06 -944035 -1.11021e+06 1.23545e+06
139 3 O -0.145107 20.0531 0.196716 -1.2 -3.8642 -857269 -1.41312e+07 -2.67068e+07 3.6799e+06 -8.2071e+06 3.20273e+06
140 3 O -0.183601 20.0531 2.79288 -1.2 -8.58515 -2.25423e+06 -3.70475e+06 -2.48872e+06 -828296 -5916.43 1.30352e+06
141 1 Mg 6.70502 23.745 0 1.2 -6.00889 5.63819e+06 1.76635e+06 -5.71324e+06 415429 -1.44791e+06 -892567
142 1 Mg 3.97493 28.4527 1.4948 1.2 -8.92547 -135164 2.21849e+06 4.80103e+06 -1.22151e+06 -803974 -159301
143 2 Si 5.77602 25.7685 1.4948 2.4 -34.6224 9.93492e+06 1.02825e+07 1.13461e+07 -126326 1.58166e+06 -2.74298e+06
144 3 O 5.83821 27.3818 1.4948 -1.2 -6.22337 -5.45484e+06 -453144 -2.12355e+07 -339138 -9.30799e+06 -2.97275e+06
145 3 O 2.15175 24.7945 1.4948 -1.2 -9.35548 -4.75854e+06 -1.01888e+06 -1.38699e+06 1.61677e+06 -865489 -639515
146 3 O 5.07184 25.0624 0.196716 -1.2 -4.27991 -1.91633e+06 -1.51275e+07 -2.11606e+07 -2.77877e+06 -9.4221e+06 -1.19422e+06
147 1 Mg 6.66374 23.745 2.9896 1.2 -8.23434 4.88936e+06 -1.68042e+06 -445445 1.30916e+06 -1.13602e+06 1.54991e+06
148 3 O 5.03707 25.0624 2.79288 -1.2 -8.5691 -2.39901e+06 -3.83184e+06 -2.11159e+06 1.11196e+06 -146266 -951568
149 1 Mg -0.727559 23.7863 4.4844 1.2 -9.05606 -632903 2.63304e+06 3.31998e+06 -427859 -213610 -462454
150 2 Si -2.5277 26.4704 4.4844 2.4 -33.3985 1.21599e+07 9.24383e+06 8.28131e+06 -54042.2 205659 -184482
151 3 O -2.59107 24.8572 4.4844 -1.2 -9.17626 -4.35681e+06 -372813 -3.5492e+06 366476 -329129 373599
152 3 O 1.09817 27.4445 4.4844 -1.2 -8.96555 -3.73636e+06 -2.82796e+06 -3.1506e+06 2.21394e+06 -400817 118905
153 3 O -1.78784 27.1766 3.18632 -1.2 -8.75185 -3.22135e+06 -3.5305e+06 -880875 1.18179e+06 -54100.3 -1.39829e+06
154 3 O -1.82343 27.1766 5.78248 -1.2 -8.65764 -3.08672e+06 -3.93426e+06 -1.84459e+06 1.30643e+06 -109080 1.2481e+06
155 1 Mg 1.62435 26.1195 2.9896 1.2 -8.25507 4.84711e+06 -1.55981e+06 -513913 -1.13428e+06 -1.37617e+06 -1.80698e+06
156 1 Mg 4.43064 26.0782 4.4844 1.2 -8.91689 -156791 2.57661e+06 2.79449e+06 1.19682e+06 -372692 -72989
157 2 Si 2.61607 28.143 4.4844 2.4 -33.3948 1.20769e+07 9.07053e+06 8.48102e+06 825343 -360290 5400
158 3 O 2.63853 29.7563 4.4844 -1.2 -9.18438 -4.36958e+06 -183161 -3.87583e+06 521361 -7986.25 -68944.9
159 3 O -4.00841 27.169 4.4844 -1.2 -9.07484 -4.08392e+06 -2.63457e+06 -2.76853e+06 -1.35511e+06 -516048 -46628.4
160 3 O 3.3182 27.4369 3.18632 -1.2 -8.80011 -3.2768e+06 -3.61459e+06 -896127 -917059 187641 1.35457e+06
161 1 Mg 1.66335 26.1195 0 1.2 -6.09788 5.71851e+06 2.15502e+06 -5.21159e+06 -906994 -1.60998e+06 20056.4
162 3 O 3.28288 27.4369 5.78248 -1.2 -8.74466 -3.15756e+06 -3.9159e+06 -1.72018e+06 -950852 165399 -1.15272e+06
163 1 Mg -1.18278 26.1608 1.4948 1.2 -8.88489 231224 2.14711e+06 4.77008e+06 1.8907e+06 -803272 -20486
164 2 Si 0.635424 24.0959 1.4948 2.4 -34.6891 9.48831e+06 1.0606e+07 1.14602e+07 758356 1.30663e+06 1.91361e+06
165 3 O 0.617906 22.4827 1.4948 -1.2 -5.42375 -3.69259e+06 -541452 -2.75606e+07 1.012e+06 -8.50644e+06 3.9778e+06
166 3 O 7.25781 25.07 1.4948 -1.2 -9.39549 -4.8866e+06 -892871 -1.31404e+06 -936223 -895573 1.30351e+06
167 3 O -0.0337363 24.8021 0.196716 -1.2 -4.37645 -2.25844e+06 -1.50945e+07 -2.11087e+07 3.49683e+06 -9.64148e+06 2.13403e+06
168 3 O -0.0687235 24.8021 2.79288 -1.2 -8.57697 -2.24075e+06 -3.96737e+06 -2.30127e+06 -853136 -68095.5 1.33711e+06
169 1 Mg 6.82195 28.494 0 1.2 -6.15172 5.23963e+06 2.20694e+06 -4.64691e+06 1.1675e+06 -1.8241e+06 -542139
170 1 Mg 4.10106 33.2017 1.4948 1.2 -8.94231 -571362 2.4474e+06 4.69483e+06 -1.19851e+06 -539723 131412
171 2 Si 5.89839 30.5175 1.4948 2.4 -34.397 1.05897e+07 9.57366e+06 1.1122e+07 -320165 1.70086e+06 -1.97001e+06
172 3 O 5.96289 32.1308 1.4948 -1.2 -7.11779 -6.52068e+06 -344458 -1.51907e+07 -292791 -8.46675e+06 -2.60159e+06
173 3 O 2.27266 29.5435 1.4948 -1.2 -9.36729 -4.67587e+06 -883839 -1.53831e+06 1.65719e+06 -689697 -924343
174 3 O 5.19102 29.8114 0.196716 -1.2 -5.1363 -3.28978e+06 -1.46681e+07 -1.5072e+07 -1.94025e+06 -9.27679e+06 -169984
175 1 Mg 6.78546 28.494 2.9896 1.2 -8.19402 4.91777e+06 -1.68444e+06 -529065 1.30444e+06 -1.23906e+06 1.96381e+06
176 3 O 5.16061 29.8114 2.79288 -1.2 -8.58719 -2.39331e+06 -3.77308e+06 -2.18754e+06 1.09749e+06 -222031 -1.28954e+06
177 1 Mg -0.603205 28.5353 4.4844 1.2 -8.99678 -635699 2.62149e+06 3.23003e+06 -502364 -212110 -1350.15
178 2 Si -2.39877 31.2194 4.4844 2.4 -33.41 1.1976e+07 8.91305e+06 8.81667e+06 27133.1 -106653 317254
179 3 O -2.46483 29.6062 4.4844 -1.2 -9.18459 -4.289e+06 -213093 -3.76086e+06 432941 -158242 -116349
180 3 O 1.22864 32.1935 4.4844 -1.2 -9.01057 -3.79138e+06 -2.79411e+06 -3.07528e+06 2.29496e+06 -341417 -61738
181 3 O -1.66032 31.9256 3.18632 -1.2 -8.76619 -3.11422e+06 -3.51023e+06 -1.06799e+06 1.16976e+06 85057.2 -1.64285e+06
182 3 O -1.69072 31.9256 5.78248 -1.2 -8.64246 -3.06181e+06 -3.75455e+06 -1.98955e+06 1.20652e+06 235954 1.20255e+06
183 1 Mg 1.7499 30.8685 2.9896 1.2 -8.2143 4.89921e+06 -1.60745e+06 -577173 -1.13523e+06 -1.41535e+06 -1.49511e+06
184 1 Mg 4.55894 30.8272 4.4844 1.2 -8.92592 -200902 2.41408e+06 3.01668e+06 1.26764e+06 -211509 150285
185 2 Si 2.7476 32.892 4.4844 2.4 -33.2789 1.2064e+07 9.16339e+06 8.21657e+06 749245 -303812 243473
186 3 O 2.77235 34.5053 4.4844 -1.2 -9.26715 -4.33398e+06 -329486 -3.6388e+06 553742 27549.8 -317484
187 3 O -3.87837 31.918 4.4844 -1.2 -9.07233 -3.95514e+06 -2.54674e+06 -2.99955e+06 -1.36769e+06 -497433 -178154
188 3 O 3.44611 32.1859 3.18632 -1.2 -8.82325 -3.19131e+06 -3.63974e+06 -1.01446e+06 -890423 204833 1.1373e+06
189 1 Mg 1.7837 30.8685 0 1.2 -6.1868 4.69442e+06 2.29877e+06 -4.24946e+06 -1.35518e+06 -1.5205e+06 407798
190 3 O 3.41602 32.1859 5.78248 -1.2 -8.76612 -3.27615e+06 -3.84065e+06 -1.6848e+06 -895739 71324.1 -1.12238e+06
191 1 Mg -1.05984 30.9098 1.4948 1.2 -8.93434 -167486 2.32011e+06 4.77324e+06 1.90102e+06 -625915 208816
192 2 Si 0.755243 28.8449 1.4948 2.4 -34.5271 1.01523e+07 9.96551e+06 1.12619e+07 1.12962e+06 1.57828e+06 2.40596e+06
193 3 O 0.735127 27.2317 1.4948 -1.2 -6.20774 -5.45067e+06 -448794 -2.1406e+07 1.1745e+06 -9.30359e+06 3.18338e+06
194 3 O 7.37914 29.819 1.4948 -1.2 -9.4113 -4.79552e+06 -763160 -1.47697e+06 -931905 -638633 979178
195 3 O 0.0850649 29.5511 0.196716 -1.2 -5.19196 -3.49432e+06 -1.50133e+07 -1.5079e+07 2.70607e+06 -9.44253e+06 500486
196 3 O 0.0543974 29.5511 2.79288 -1.2 -8.60642 -2.28479e+06 -3.94634e+06 -2.28558e+06 -826675 -124932 948430
197 1 Mg 6.94543 33.243 0 1.2 -6.22632 4.04614e+06 2.29959e+06 -3.75301e+06 1.57871e+06 -1.45264e+06 -540238
198 1 Mg 4.23267 37.9507 1.4948 1.2 -8.94348 -978524 2.56447e+06 4.57228e+06 -1.11886e+06 -220519 230760
199 2 Si 6.02709 35.2665 1.4948 2.4 -34.0734 1.10741e+07 8.95984e+06 1.07829e+07 -423378 1.62657e+06 -1.35331e+06
200 3 O 6.09339 36.8798 1.4948 -1.2 -7.93878 -6.6709e+06 -256474 -1.03068e+07 -130420 -6.61119e+06 -2.22122e+06
201 3 O 2.40018 34.2925 1.4948 -1.2 -9.41223 -4.50847e+06 -900526 -1.66953e+06 1.68671e+06 -505036 -1.1423e+06
202 3 O 5.31645 34.5604 0.196716 -1.2 -6.13489 -4.17993e+06 -1.30904e+07 -9.7235e+06 -954618 -7.83864e+06 777188
203 1 Mg 6.91449 33.243 2.9896 1.2 -8.14083 4.84997e+06 -1.64211e+06 -580621 1.30853e+06 -1.32808e+06 2.13911e+06
204 3 O 5.291 34.5604 2.79288 -1.2 -8.64792 -2.36293e+06 -3.8462e+06 -2.08654e+06 1.12578e+06 -303363 -1.49194e+06
205 1 Mg -0.471101 33.2843 4.4844 1.2 -8.94146 -715829 2.66335e+06 3.17224e+06 -448601 -253851 225234
206 2 Si -2.26307 35.9684 4.4844 2.4 -33.3278 1.19023e+07 8.94126e+06 8.7253e+06 -6837.82 -100904 758440
207 3 O -2.33122 34.3552 4.4844 -1.2 -9.23414 -4.14336e+06 -316383 -3.73889e+06 421245 -108305 -281022
208 3 O 1.36549 36.9425 4.4844 -1.2 -9.02377 -3.85949e+06 -2.63371e+06 -3.14566e+06 2.2112e+06 -253454 -324410
209 3 O -1.52658 36.6746 3.18632 -1.2 -8.78053 -3.03226e+06 -3.48466e+06 -1.24902e+06 1.17097e+06 137048 -1.79647e+06
210 3 O -1.55122 36.6746 5.78248 -1.2 -8.69804 -3.16379e+06 -3.59746e+06 -1.69855e+06 1.2255e+06 -46476.7 1.01018e+06
211 1 Mg 1.882 35.6175 2.9896 1.2 -8.15412 4.88934e+06 -1.56746e+06 -693598 -1.09377e+06 -1.51561e+06 -1.22081e+06
212 1 Mg 4.69415 35.5762 4.4844 1.2 -8.87648 -340123 2.56882e+06 2.92105e+06 1.235e+06 -97320.2 508665
213 2 Si 2.88522 37.641 4.4844 2.4 -33.3474 1.21531e+07 8.71387e+06 8.6885e+06 919576 -81881.7 795718
214 3 O 2.91159 39.2543 4.4844 -1.2 -9.16914 -4.36504e+06 -15447.9 -4.0776e+06 559243 -117664 -260307
215 3 O -3.74183 36.667 4.4844 -1.2 -9.0809 -3.92025e+06 -2.51951e+06 -3.06304e+06 -1.23971e+06 -344558 -477997
216 3 O 3.58014 36.9349 3.18632 -1.2 -8.82672 -3.07529e+06 -3.62016e+06 -1.25052e+06 -882610 214850 873998
217 1 Mg 1.90997 35.6175 0 1.2 -6.22759 3.3342e+06 2.21466e+06 -3.71854e+06 -1.65071e+06 -766987 1.05035e+06
218 3 O 3.55582 36.9349 5.78248 -1.2 -8.75544 -3.2687e+06 -3.6607e+06 -1.73606e+06 -1.0118e+06 -182518 -1.77215e+06
219 1 Mg -0.93068 35.6588 1.4948 1.2 -8.92835 -589072 2.50844e+06 4.60482e+06 1.84947e+06 -324467 343273
220 2 Si 0.881882 33.5939 1.4948 2.4 -34.2199 1.07283e+07 9.34187e+06 1.08884e+07 1.40812e+06 1.60048e+06 2.67888e+06
221 3 O 0.859602 31.9807 1.4948 -1.2 -7.10415 -6.54479e+06 -339442 -1.53366e+07 1.16303e+06 -8.46354e+06 2.30639e+06
222 3 O 7.507 34.568 1.4948 -1.2 -9.45403 -4.59876e+06 -791363 -1.64477e+06 -924291 -435167 792710
223 3 O 0.210186 34.3001 0.196716 -1.2 -6.15893 -4.29088e+06 -1.38045e+07 -9.70811e+06 1.5359e+06 -7.93997e+06 -892408
224 3 O 0.184454 34.3001 2.79288 -1.2 -8.67341 -2.29224e+06 -3.98677e+06 -2.17885e+06 -843182 -143124 677075
225 1 Mg 7.07415 37.992 0 1.2 -6.26544 2.71864e+06 2.17845e+06 -3.39092e+06 1.86384e+06 -427652 -1.09192e+06
226 1 Mg 4.36817 42.6997 1.4948 1.2 -8.94667 -1.20929e+06 2.54835e+06 4.4424e+06 -998056 140039 -144522
227 2 Si 6.16058 40.0155 1.4948 2.4 -33.8194 1.15095e+07 8.12035e+06 1.07875e+07 -394418 1.2916e+06 -1.48545e+06
228 3 O 6.22815 41.6288 1.4948 -1.2 -8.55415 -6.16351e+06 -97802.7 -7.0776e+06 42564.6 -4.50885e+06 -1.52439e+06
229 3 O 2.53282 39.0415 1.4948 -1.2 -9.41516 -4.34453e+06 -898654 -1.9905e+06 1.70348e+06 -359847 -1.07017e+06
230 3 O 5.44674 39.3094 0.196716 -1.2 -7.07248 -4.49876e+06 -1.06828e+07 -5.8698e+06 -140162 -5.75176e+06 1.72649e+06
231 1 Mg 7.04922 37.992 2.9896 1.2 -8.12525 4.86154e+06 -1.75479e+06 -493526 1.26727e+06 -1.48655e+06 2.19729e+06
232 3 O 5.42658 39.3094 2.79288 -1.2 -8.65073 -2.42164e+06 -3.64719e+06 -2.25093e+06 1.14684e+06 -285125 -1.37868e+06
233 1 Mg -0.333062 38.0333 4.4844 1.2 -8.96798 -614468 2.38049e+06 3.39451e+06 -419530 -170933 245398
234 2 Si -2.12255 40.7174 4.4844 2.4 -33.4332 1.21757e+07 8.60066e+06 8.96641e+06 47456.2 -315213 168272
235 3 O -2.19212 39.1042 4.4844 -1.2 -9.18376 -4.33405e+06 -24840.5 -3.91368e+06 473649 28814.1 -169762
236 3 O 1.50676 41.6915 4.4844 -1.2 -8.97578 -3.99097e+06 -2.44264e+06 -3.28848e+06 2.28878e+06 -369380 53531.2
237 3 O -1.3884 41.4236 3.18632 -1.2 -8.75602 -3.05055e+06 -3.36123e+06 -1.49871e+06 1.16505e+06 186252 -1.47305e+06
238 3 O -1.40713 41.4236 5.78248 -1.2 -8.63608 -3.35972e+06 -3.49875e+06 -1.62806e+06 1.25316e+06 226597 1.29345e+06
239 1 Mg 2.01892 40.3665 2.9896 1.2 -8.16658 4.91872e+06 -1.73114e+06 -526120 -1.07405e+06 -1.53513e+06 -1.44274e+06
240 1 Mg 4.83434 40.3252 4.4844 1.2 -8.99196 -334786 2.3249e+06 3.34698e+06 1.22445e+06 -144867 119068
241 2 Si 3.02698 42.39 4.4844 2.4 -33.4624 1.20039e+07 8.55041e+06 9.19147e+06 873648 -5132.04 -193035
242 3 O 3.05433 44.0033 4.4844 -1.2 -9.18254 -4.28395e+06 -47577.4 -4.10088e+06 549014 -148512 165165
243 3 O -3.60077 41.416 4.4844 -1.2 -9.02115 -4.01698e+06 -2.42801e+06 -3.15422e+06 -1.31105e+06 -201691 -99235.3
244 3 O 3.71851 41.6839 3.18632 -1.2 -8.78177 -2.97438e+06 -3.50784e+06 -1.64455e+06 -862353 213143 1.24047e+06
245 1 Mg 2.04077 40.3665 0 1.2 -6.24832 2.24569e+06 2.01309e+06 -3.8164e+06 -1.82411e+06 440960 1.54239e+06
246 3 O 3.70011 41.6839 5.78248 -1.2 -8.56698 -3.15436e+06 -3.65616e+06 -2.15225e+06 -946184 139314 -1.13635e+06
247 1 Mg -0.796865 40.4078 1.4948 1.2 -8.91909 -828475 2.53809e+06 4.40811e+06 1.74982e+06 34290.1 85737.9
248 2 Si 1.01387 38.3429 1.4948 2.4 -33.922 1.12858e+07 8.54273e+06 1.06881e+07 1.55772e+06 1.47376e+06 2.39894e+06
249 3 O 0.989947 36.7297 1.4948 -1.2 -7.93236 -6.74328e+06 -250121 -1.04019e+07 1.02745e+06 -6.62828e+06 1.66124e+06
250 3 O 7.63988 39.317 1.4948 -1.2 -9.45588 -4.44008e+06 -794631 -1.97054e+06 -916894 -244581 936000
251 3 O 0.340253 39.0491 0.196716 -1.2 -7.08091 -4.59615e+06 -1.16037e+07 -5.79251e+06 379346 -5.87968e+06 -1.64162e+06
252 3 O 0.319795 39.0491 2.79288 -1.2 -8.69988 -2.44651e+06 -3.80434e+06 -2.20223e+06 -870857 -202601 734159
253 1 Mg 7.20667 42.741 0 1.2 -6.30412 1.87839e+06 1.85676e+06 -3.63075e+06 1.97925e+06 912807 -2.31727e+06
254 1 Mg 4.50613 47.4487 1.4948 1.2 -8.93488 -1.22518e+06 2.41834e+06 4.36622e+06 -850697 468325 -254628
255 2 Si 6.29731 44.7645 1.4948 2.4 -33.6534 1.18538e+07 7.22286e+06 1.10517e+07 -253462 922492 -1.93643e+06
256 3 O 6.36567 46.3778 1.4948 -1.2 -8.95729 -5.36604e+06 117765 -5.34384e+06 189492 -2.70943e+06 -1.04544e+06
257 3 O 2.669 43.7905 1.4948 -1.2 -9.3654 -4.19893e+06 -914972 -2.46928e+06 1.71236e+06 -233358 -682665
258 3 O 5.58048 44.0584 0.196716 -1.2 -7.78434 -4.41751e+06 -7.84502e+06 -3.68326e+06 339690 -3.74572e+06 2.67026e+06
259 1 Mg 7.1879 42.741 2.9896 1.2 -8.12891 4.84975e+06 -1.84014e+06 -377190 1.27013e+06 -1.62215e+06 1.83733e+06
260 3 O 5.56564 44.0584 2.79288 -1.2 -8.67319 -2.49899e+06 -3.50138e+06 -2.30737e+06 1.13356e+06 -299095 -1.0155e+06
261 1 Mg -0.19105 42.7823 4.4844 1.2 -8.96627 -431444 2.25413e+06 3.33106e+06 -471010 -134570 -100735
262 2 Si -1.97909 45.4664 4.4844 2.4 -33.3785 1.19348e+07 8.49247e+06 9.23362e+06 110659 -487756 -231638
263 3 O -2.04947 43.8532 4.4844 -1.2 -9.17847 -4.27517e+06 6186.41 -4.00877e+06 485720 148562 127545
264 3 O 1.65063 46.4405 4.4844 -1.2 -9.05854 -3.97968e+06 -2.41093e+06 -3.20114e+06 2.31215e+06 -291383 118705
265 3 O -1.24745 46.1726 3.18632 -1.2 -8.76707 -2.96521e+06 -3.24538e+06 -1.78521e+06 1.1412e+06 202971 -1.23866e+06
266 3 O -1.26044 46.1726 5.78248 -1.2 -8.70371 -3.18174e+06 -3.43494e+06 -1.77478e+06 1.12279e+06 382688 1.27809e+06
267 1 Mg 2.15896 45.1155 2.9896 1.2 -8.14619 4.88302e+06 -1.79524e+06 -443265 -1.06421e+06 -1.61591e+06 -1.74728e+06
268 1 Mg 4.97763 45.0742 4.4844 1.2 -8.96302 -432823 2.32587e+06 3.39744e+06 1.2607e+06 -14973.6 -112633
269 2 Si 3.1711 47.139 4.4844 2.4 -33.3228 1.17871e+07 8.4036e+06 9.32845e+06 787242 176418 -253037
270 3 O 3.19894 48.7523 4.4844 -1.2 -9.23094 -4.17066e+06 146790 -4.34643e+06 587438 -161586 119802