ITEM: TIMESTEP
82300
ITEM: NUMBER OF ATOMS
10500
ITEM: BOX BOUNDS xy xz yz pp pp pp
0.0000000000000000e+00 1.5297749999999999e+01 5.0992499999999996e+00
0.0000000000000000e+00 1.1872499999999999e+02 0.0000000000000000e+00
0.0000000000000000e+00 8.9688000000000002e+01 0.0000000000000000e+00
ITEM: ATOMS id type element xu yu zu q c_pe c_s[1] c_s[2] c_s[3] c_s[4] c_s[5] c_s[6]
1 1 Mg 6.2404 -6.37941e-06 0 1.2 -4.10885 7.41143e+06 -1.46118e+06 -6.62885e+06 -32127.9 2.66719e+06 166259
2 1 Mg 3.46349 4.70768 1.4948 1.2 -8.20634 -783469 3.22108e+06 3.8065e+06 -926751 -598257 205924
3 2 Si 5.2885 2.02354 1.4948 2.4 -34.6182 8.93936e+06 1.18931e+07 1.04245e+07 8.85376e+06 800774 -2.56072e+06
4 3 O 5.33628 3.63678 1.4948 -1.2 -5.01937 -318398 -1.96631e+06 -3.3171e+07 -337655 3.76092e+06 -4.06398e+06
5 3 O 1.67294 1.04952 1.4948 -1.2 -1.37922 -1.98116e+07 -7.97828e+07 -1.69032e+06 -2.41311e+07 -99075.8 -399077
6 3 O 4.59532 1.31737 0.196716 -1.2 -3.34564 -1.41426e+06 -7.14354e+06 -3.00591e+07 -6.02696e+06 6.17105e+06 -2.9812e+06
7 1 Mg 6.18956 -6.37941e-06 2.9896 1.2 -4.61431 969980 -2.78782e+07 -3.23413e+06 -8.85108e+06 2.50569e+06 4.29277e+06
8 3 O 4.55118 1.31737 2.79288 -1.2 -7.82818 675141 -5.07576e+06 -2.79571e+06 -2.94548e+06 -3.46912e+06 -1.36363e+06
9 1 Mg -1.20682 0.0413099 4.4844 1.2 9.23556 -3.13489e+07 -9.31543e+07 -397544 -2.84569e+07 -1.33383e+06 314183
10 2 Si -3.0337 2.72544 4.4844 2.4 -32.513 1.32499e+07 7.78307e+06 7.43597e+06 1.62399e+06 98285.7 -333543
11 3 O -3.08099 1.11221 4.4844 -1.2 -9.91474 -5.56407e+06 -286710 -1.95658e+06 -1.20391e+06 -216328 149711
12 3 O 0.582463 3.69946 4.4844 -1.2 -9.2825 -2.80017e+06 -5.72275e+06 -2.56447e+06 -531549 -100417 -222616
13 3 O -2.29524 3.43162 3.18632 -1.2 -9.35423 -3.70578e+06 -2.93954e+06 -198388 1.09482e+06 -822202 -1.11704e+06
14 3 O -2.34216 3.43162 5.78248 -1.2 -9.16718 -3.38523e+06 -3.61165e+06 -1.22958e+06 746390 473971 1.14868e+06
15 1 Mg 1.12778 2.37449 2.9896 1.2 -7.27843 4.70219e+06 -1.29243e+06 -1.06785e+06 -3.27652e+06 -4.23256e+06 -2.02503e+06
16 1 Mg 3.92855 2.33318 4.4844 1.2 -8.13519 -4.6795e+06 5.17361e+06 4.56737e+06 1.36034e+06 361502 692852
17 2 Si 2.09341 4.39804 4.4844 2.4 -31.7418 1.12272e+07 7.24707e+06 8.30599e+06 187701 -266147 624230
18 3 O 2.09991 6.01128 4.4844 -1.2 -9.78068 -3.68249e+06 -240824 -3.56217e+06 528151 -166582 -108404
19 3 O -4.52137 3.42402 4.4844 -1.2 -9.48029 -2.35141e+06 -3.24272e+06 -3.3007e+06 -2.43602e+06 -861322 -100804
20 3 O 2.80834 3.69187 3.18632 -1.2 -9.63729 -1.67018e+06 -3.1757e+06 -34424.3 453783 -505991 -633303
21 1 Mg 1.17857 2.37449 0 1.2 -4.81572 -1.1441e+06 -1.43029e+07 -6.91982e+06 6.52828e+06 1.13774e+06 4.89121e+06
22 3 O 2.76143 3.69187 5.78248 -1.2 -9.70141 -2.3475e+06 -2.44735e+06 -1.04325e+06 513591 -46122.9 -52143.5
23 1 Mg -1.67381 2.41581 1.4948 1.2 -7.26517 1.06807e+06 245681 3.59297e+06 1.35176e+06 -613350 1.26411e+06
24 2 Si 0.16286 0.350945 1.4948 2.4 -23.8938 -9.23581e+06 1.3172e+07 1.06441e+07 1.60162e+06 2.71402e+06 1.84588e+06
25 3 O 0.15972 -1.26229 1.4948 -1.2 -5.09885 -1.01523e+07 -8.32282e+06 -2.86408e+07 -5.60658e+06 -8.47315e+06 -2.99899e+06
26 3 O 6.77654 1.32496 1.4948 -1.2 -10.6769 -5.21487e+06 1.34557e+06 -967757 -636942 -671234 792896
27 3 O -0.508028 1.05712 0.196716 -1.2 -9.85142 596147 -5.11151e+06 -231714 -552914 271745 -4.89872e+06
28 3 O -0.552171 1.05712 2.79288 -1.2 -7.12825 -4.80405e+06 -4.94656e+06 -2.4312e+07 1.4068e+06 -6.72041e+06 -5.77457e+06
29 1 Mg 6.31713 4.74899 0 1.2 -4.65332 -71000.4 -1.22673e+07 -6.75862e+06 -7.30517e+06 1.49898e+06 -3.4636e+06
30 1 Mg 3.54847 9.45668 1.4948 1.2 -8.24782 120521 1.91525e+06 4.25341e+06 -956064 -914801 -619321
31 2 Si 5.36879 6.77254 1.4948 2.4 -33.8904 6.59389e+06 1.29857e+07 1.0667e+07 1.66984e+06 257636 -2.0327e+06
32 3 O 5.41937 8.38578 1.4948 -1.2 -4.89307 -83738.2 -1.26651e+06 -3.49124e+07 770303 1.06627e+06 -4.02668e+06
33 3 O 1.75158 5.79852 1.4948 -1.2 -9.74395 -3.61882e+06 -2.86727e+06 -914711 1.96678e+06 -1.55859e+06 -1.39589e+06
34 3 O 4.67421 6.06637 0.196716 -1.2 -4.011 571525 -1.07494e+07 -3.08753e+07 -2.02447e+06 1.24294e+06 -4.46511e+06
35 1 Mg 6.26654 4.74899 2.9896 1.2 -7.76458 3.65201e+06 -1.24973e+06 -391721 1.8126e+06 -799907 2.05195e+06
36 3 O 4.63043 6.06637 2.79288 -1.2 -9.0813 -1.2348e+06 -4.35024e+06 -1.82211e+06 928160 -182242 -1.48995e+06
37 1 Mg -1.12976 4.79031 4.4844 1.2 -8.53876 -1.09594e+06 3.05719e+06 2.59134e+06 -763468 -494196 36175.5
38 2 Si -2.9517 7.47444 4.4844 2.4 -32.5645 1.0527e+07 9.08924e+06 8.72702e+06 6750.78 -42285.8 -271624
39 3 O -3.00198 5.86121 4.4844 -1.2 -9.65169 -3.5295e+06 -375684 -3.62797e+06 65802 -236367 -71414.8
40 3 O 0.666315 8.44846 4.4844 -1.2 -9.43039 -3.20904e+06 -2.62515e+06 -3.11723e+06 2.05133e+06 -439067 57917.9
41 3 O -2.21213 8.18062 3.18632 -1.2 -9.22784 -2.68008e+06 -3.55643e+06 -512808 1.10212e+06 -270215 -1.27347e+06
42 3 O -2.25864 8.18062 5.78248 -1.2 -9.07407 -2.56072e+06 -3.62566e+06 -2.13688e+06 989317 82972.5 1.66835e+06
43 1 Mg 1.20893 7.12349 2.9896 1.2 -7.79538 3.86309e+06 -1.32312e+06 -500817 -1.27128e+06 -1.37882e+06 -1.71257e+06
44 1 Mg 4.00982 7.08218 4.4844 1.2 -8.44741 -1.13537e+06 2.7064e+06 2.88213e+06 989604 -124850 121849
45 2 Si 2.17861 9.14704 4.4844 2.4 -32.6025 1.09274e+07 8.66334e+06 8.77311e+06 596641 -32994.9 -15979.2
46 3 O 2.18828 10.7603 4.4844 -1.2 -9.48761 -3.90174e+06 178514 -4.2035e+06 420417 -215887 277292
47 3 O -4.43805 8.17302 4.4844 -1.2 -9.43912 -3.0445e+06 -2.68485e+06 -3.17469e+06 -1.45669e+06 -568493 82017.6
48 3 O 2.89193 8.44087 3.18632 -1.2 -9.24801 -2.60439e+06 -3.70354e+06 -568606 -918759 -254251 1.37273e+06
49 1 Mg 1.25915 7.12349 0 1.2 -5.10322 636226 -6.99658e+06 -6.90964e+06 5.88977e+06 1.31146e+06 2.52662e+06
50 3 O 2.84547 8.44087 5.78248 -1.2 -9.19181 -2.64481e+06 -3.64339e+06 -1.85121e+06 -795175 -137645 -1.36869e+06
51 1 Mg -1.59284 7.16481 1.4948 1.2 -8.05833 526066 1.78112e+06 3.87745e+06 1.45351e+06 -937437 238885
52 2 Si 0.240329 5.09994 1.4948 2.4 -33.5344 7.49301e+06 1.19474e+07 1.02365e+07 -1.97551e+06 -1.1838e+06 2.14366e+06
53 3 O 0.234538 3.48671 1.4948 -1.2 -5.52461 -1.31249e+06 -85759.2 -3.32844e+07 403479 5.24113e+06 3.75637e+06
54 3 O 6.85564 6.07396 1.4948 -1.2 -9.80992 -4.0305e+06 -2.30617e+06 -919109 -1.34138e+06 -1.86657e+06 1.15246e+06
55 3 O -0.429565 5.80612 0.196716 -1.2 -4.28189 -306357 -9.37849e+06 -3.08916e+07 1.86645e+06 1.25466e+06 4.50725e+06
56 3 O -0.473377 5.80612 2.79288 -1.2 -9.17491 -1.77458e+06 -3.92412e+06 -1.65507e+06 -770284 384365 1.27696e+06
57 1 Mg 6.40169 9.49799 0 1.2 -5.1897 1.39875e+06 -6.11836e+06 -6.90088e+06 -5.48676e+06 1.03889e+06 -2.85711e+06
58 1 Mg 3.64209 14.2057 1.4948 1.2 -8.566 430479 1.32369e+06 5.00388e+06 -1.03572e+06 -949221 -814448
59 2 Si 5.45748 11.5215 1.4948 2.4 -34.3259 7.58557e+06 1.14637e+07 1.18712e+07 895590 371490 -3.12472e+06
60 3 O 5.51101 13.1348 1.4948 -1.2 -4.67877 -658764 -525638 -3.52419e+07 464215 -2.55112e+06 -3.80397e+06
61 3 O 1.83851 10.5475 1.4948 -1.2 -9.60444 -4.18856e+06 -1.88165e+06 -1.28239e+06 1.534e+06 -1.56928e+06 -675225
62 3 O 4.7611 10.8154 0.196716 -1.2 -3.62435 621228 -1.1564e+07 -3.19536e+07 -2.47356e+06 -1.77331e+06 -3.77562e+06
63 1 Mg 6.35203 9.49799 2.9896 1.2 -7.89372 3.93674e+06 -1.5619e+06 -159646 1.29101e+06 -1.17576e+06 1.73152e+06
64 3 O 4.71833 10.8154 2.79288 -1.2 -8.89038 -1.76934e+06 -3.64531e+06 -2.30767e+06 1.05263e+06 12094.2 -949761
65 1 Mg -1.0438 9.53931 4.4844 1.2 -8.58642 -954387 2.38907e+06 3.15422e+06 -508308 -318149 -259702
66 2 Si -2.8604 12.2234 4.4844 2.4 -32.9334 1.13697e+07 8.06962e+06 9.4892e+06 -115481 -282077 -703403
67 3 O -2.91391 10.6102 4.4844 -1.2 -9.50768 -3.8436e+06 14566.7 -3.94888e+06 261777 -113226 241743
68 3 O 0.7596 13.1975 4.4844 -1.2 -9.21221 -3.52544e+06 -2.20205e+06 -3.58865e+06 2.16833e+06 -513007 574415
69 3 O -2.12001 12.9296 3.18632 -1.2 -9.00327 -3.01353e+06 -3.05424e+06 -1.05041e+06 1.17306e+06 -169574 -1.04279e+06
70 3 O -2.16532 12.9296 5.78248 -1.2 -8.91434 -3.11131e+06 -3.10147e+06 -2.26855e+06 1.20312e+06 174827 1.80315e+06
71 1 Mg 1.29891 11.8725 2.9896 1.2 -8.02033 4.24962e+06 -1.85837e+06 5037.27 -1.17351e+06 -1.20529e+06 -2.15199e+06
72 1 Mg 4.10033 11.8312 4.4844 1.2 -8.70415 -729124 2.09774e+06 3.49901e+06 1.17007e+06 -252181 -310171
73 2 Si 2.27333 13.896 4.4844 2.4 -32.9819 1.16307e+07 8.01532e+06 9.31848e+06 699817 81787.7 -979391
74 3 O 2.28634 15.5093 4.4844 -1.2 -9.34741 -4.19734e+06 367125 -4.34363e+06 463234 -262977 308599
75 3 O -4.34533 12.922 4.4844 -1.2 -9.21905 -3.41289e+06 -2.13229e+06 -3.71553e+06 -1.48891e+06 -458552 344915
76 3 O 2.98455 13.1899 3.18632 -1.2 -9.01821 -2.99415e+06 -3.14251e+06 -1.13189e+06 -971635 -203411 1.79974e+06
77 1 Mg 1.34779 11.8725 0 1.2 -5.58152 2.93151e+06 -2.90966e+06 -6.62717e+06 3.56114e+06 772364 991173
78 3 O 2.93934 13.1899 5.78248 -1.2 -8.95132 -3.05964e+06 -3.31277e+06 -2.16613e+06 -1.01607e+06 -285142 -501921
79 1 Mg -1.50344 11.9138 1.4948 1.2 -8.38358 608352 1.53301e+06 4.54815e+06 1.55835e+06 -953676 -108441
80 2 Si 0.326006 9.84894 1.4948 2.4 -34.095 7.4728e+06 1.19543e+07 1.10958e+07 -597034 69133.8 1.56377e+06
81 3 O 0.317364 8.23571 1.4948 -1.2 -4.91056 -256045 -1.13722e+06 -3.49706e+07 -127838 1.2168e+06 4.37414e+06
82 3 O 6.94307 10.823 1.4948 -1.2 -9.62373 -4.32801e+06 -1.67697e+06 -1.27558e+06 -979468 -1.53879e+06 1.4992e+06
83 3 O -0.343122 10.5551 0.196716 -1.2 -3.75132 270537 -1.10514e+07 -3.1877e+07 2.46756e+06 -2.03459e+06 5.00353e+06
84 3 O -0.385966 10.5551 2.79288 -1.2 -8.94579 -1.86443e+06 -3.71238e+06 -2.20089e+06 -866274 100248 1.48239e+06
85 1 Mg 6.49448 14.247 0 1.2 -5.71359 3.6176e+06 -2.48352e+06 -6.34293e+06 -2.95604e+06 276947 -2.09013e+06
86 1 Mg 3.74457 18.9547 1.4948 1.2 -8.83636 553111 1.03375e+06 5.52714e+06 -1.13676e+06 -955684 -452210
87 2 Si 5.55495 16.2705 1.4948 2.4 -34.7861 8.64255e+06 1.00399e+07 1.29939e+07 529790 807597 -3.05806e+06
88 3 O 5.6115 17.8838 1.4948 -1.2 -4.78289 -2.04992e+06 46281.2 -3.30252e+07 76362.9 -6.05218e+06 -3.86729e+06
89 3 O 1.93416 15.2965 1.4948 -1.2 -9.38879 -4.66663e+06 -967218 -1.81523e+06 1.54354e+06 -1.38549e+06 -574003
90 3 O 4.85636 15.5644 0.196716 -1.2 -3.34681 131801 -1.25584e+07 -3.10816e+07 -3.03184e+06 -5.1405e+06 -3.26939e+06
91 1 Mg 6.44662 14.247 2.9896 1.2 -8.10566 4.36241e+06 -2.12543e+06 316822 1.29273e+06 -1.21442e+06 1.54479e+06
92 3 O 4.81537 15.5644 2.79288 -1.2 -8.66358 -2.09514e+06 -3.18202e+06 -2.84184e+06 1.07573e+06 -54332.4 -886899
93 1 Mg -0.948271 14.2883 4.4844 1.2 -8.77187 -667539 1.9987e+06 3.54715e+06 -577699 -383133 -483042
94 2 Si -2.75928 16.9724 4.4844 2.4 -33.2532 1.18691e+07 7.48297e+06 1.00894e+07 17253.6 -342904 -466905
95 3 O -2.81617 15.3592 4.4844 -1.2 -9.31894 -4.0881e+06 394897 -4.38792e+06 270707 -26853 364979
96 3 O 0.862762 17.9465 4.4844 -1.2 -9.04771 -3.78711e+06 -1.85184e+06 -3.95657e+06 2.17722e+06 -558524 160729
97 3 O -2.0185 17.6786 3.18632 -1.2 -8.80917 -3.29868e+06 -2.6505e+06 -1.50053e+06 1.13363e+06 -85446 -1.27393e+06
98 3 O -2.06164 17.6786 5.78248 -1.2 -8.78952 -3.26783e+06 -2.94923e+06 -2.46025e+06 1.07342e+06 151936 1.48147e+06
99 1 Mg 1.39817 16.6215 2.9896 1.2 -8.20309 4.65531e+06 -2.27383e+06 305443 -1.16915e+06 -1.19442e+06 -1.96472e+06
100 1 Mg 4.20062 16.5802 4.4844 1.2 -8.85427 -512824 1.84291e+06 3.778e+06 1.10373e+06 -200490 -151628
101 2 Si 2.37796 18.645 4.4844 2.4 -33.3369 1.20772e+07 7.08724e+06 1.03655e+07 590071 96802.1 -172498
102 3 O 2.39434 20.2583 4.4844 -1.2 -9.16803 -4.38566e+06 791104 -4.85723e+06 577579 -179187 66889.5
103 3 O -4.24274 17.671 4.4844 -1.2 -9.06916 -3.72215e+06 -1.77758e+06 -4.00918e+06 -1.41409e+06 -414077 113945
104 3 O 3.08659 17.9389 3.18632 -1.2 -8.82932 -3.26721e+06 -2.7287e+06 -1.61842e+06 -911681 -119543 1.50079e+06
105 1 Mg 1.44478 16.6215 0 1.2 -5.98373 5.03225e+06 -558850 -5.99167e+06 1.37784e+06 -61085 480965
106 3 O 3.0436 17.9389 5.78248 -1.2 -8.79444 -3.11677e+06 -2.86041e+06 -2.7229e+06 -904363 -336430 -1.18691e+06
107 1 Mg -1.40524 16.6628 1.4948 1.2 -8.69711 796705 1.13921e+06 5.20828e+06 1.70335e+06 -993719 -6733.76
108 2 Si 0.420358 14.5979 1.4948 2.4 -34.6153 8.39567e+06 1.05673e+07 1.23777e+07 -140096 540823 1.46695e+06
109 3 O 0.408732 12.9847 1.4948 -1.2 -4.68553 -746935 -526033 -3.52768e+07 228627 -2.5504e+06 4.80342e+06
110 3 O 7.03923 15.572 1.4948 -1.2 -9.40922 -4.78626e+06 -783721 -1.81337e+06 -955170 -1.29409e+06 1.4615e+06
111 3 O -0.248332 15.3041 0.196716 -1.2 -3.47118 -227100 -1.21159e+07 -3.10189e+07 3.25333e+06 -5.39867e+06 4.51221e+06
112 3 O -0.289436 15.3041 2.79288 -1.2 -8.72095 -2.17438e+06 -3.3003e+06 -2.70779e+06 -857583 68774.4 1.5042e+06
113 1 Mg 6.59566 18.996 0 1.2 -6.05707 5.39784e+06 -287769 -5.72535e+06 -891426 -695432 -1.132e+06
114 1 Mg 3.85574 23.7037 1.4948 1.2 -8.98758 396886 1.06854e+06 5.75104e+06 -1.18903e+06 -941807 9787.49
115 2 Si 5.66125 21.0195 1.4948 2.4 -34.983 9.64848e+06 9.00125e+06 1.34037e+07 179403 1.18151e+06 -2.44568e+06
116 3 O 5.72074 22.6328 1.4948 -1.2 -5.2928 -3.92873e+06 363832 -2.83057e+07 -211367 -8.48423e+06 -3.77964e+06
117 3 O 2.03867 20.0455 1.4948 -1.2 -9.24148 -4.93111e+06 -330843 -2.2199e+06 1.58759e+06 -1.16979e+06 -875747
118 3 O 4.96004 20.3134 0.196716 -1.2 -3.499 -934049 -1.36398e+07 -2.75036e+07 -3.1845e+06 -7.93558e+06 -2.63302e+06
119 1 Mg 6.55057 18.996 2.9896 1.2 -8.25824 4.77339e+06 -2.574e+06 599419 1.3174e+06 -1.23527e+06 1.80482e+06
120 3 O 4.92172 20.3134 2.79288 -1.2 -8.51088 -2.38064e+06 -2.83326e+06 -3.18575e+06 1.10345e+06 -67666.4 -1.14423e+06
121 1 Mg -0.84282 19.0373 4.4844 1.2 -8.95186 -452374 1.58994e+06 4.0229e+06 -458441 -297206 -75132
122 2 Si -2.64823 21.7214 4.4844 2.4 -33.4062 1.24095e+07 6.90465e+06 1.03712e+07 142988 -16894 -91272.1
123 3 O -2.70847 20.1082 4.4844 -1.2 -9.18187 -4.42641e+06 857006 -4.72789e+06 226471 -92240.4 119688
124 3 O 0.97581 22.6955 4.4844 -1.2 -8.93279 -3.79153e+06 -1.7453e+06 -4.22492e+06 2.21169e+06 -479133 -76576.9
125 3 O -1.9076 22.4276 3.18632 -1.2 -8.71026 -3.43188e+06 -2.46186e+06 -1.75297e+06 1.13771e+06 -107847 -1.58763e+06
126 3 O -1.9475 22.4276 5.78248 -1.2 -8.76379 -3.29929e+06 -2.78842e+06 -2.49211e+06 1.01599e+06 -235325 1.31158e+06
127 1 Mg 1.50678 21.3705 2.9896 1.2 -8.33158 4.87936e+06 -2.57639e+06 589974 -1.1713e+06 -1.24369e+06 -1.61558e+06
128 1 Mg 4.31086 21.3292 4.4844 1.2 -8.96458 -268137 1.55082e+06 4.00482e+06 1.09113e+06 -342171 -19628
129 2 Si 2.49243 23.394 4.4844 2.4 -33.4935 1.21034e+07 7.10314e+06 1.05881e+07 720911 -198258 387721
130 3 O 2.51204 25.0073 4.4844 -1.2 -9.12892 -4.38579e+06 739366 -4.85418e+06 505516 -85504.6 -416883
131 3 O -4.13026 22.42 4.4844 -1.2 -9.04654 -4.04758e+06 -1.62131e+06 -3.8798e+06 -1.38114e+06 -421488 -71422.5
132 3 O 3.19799 22.6879 3.18632 -1.2 -8.72944 -3.36725e+06 -2.6033e+06 -1.8534e+06 -903980 62805.3 1.17417e+06
133 1 Mg 1.5501 21.3705 0 1.2 -6.20253 6.13208e+06 686850 -5.20862e+06 -73916.9 -933149 419539
134 3 O 3.1583 22.6879 5.78248 -1.2 -8.67927 -3.09155e+06 -2.92867e+06 -3.17443e+06 -901070 -30833.1 -1.25024e+06
135 1 Mg -1.29822 21.4118 1.4948 1.2 -8.91591 751800 1.00972e+06 5.62884e+06 1.81961e+06 -938269 279240
136 2 Si 0.523568 19.3469 1.4948 2.4 -34.954 9.25341e+06 9.40435e+06 1.32537e+07 304575 1.01229e+06 2.26254e+06
137 3 O 0.508934 17.7337 1.4948 -1.2 -4.78131 -2.09872e+06 37621.1 -3.31047e+07 670346 -6.08343e+06 4.35531e+06
138 3 O 7.14425 20.321 1.4948 -1.2 -9.27904 -5.09106e+06 -172641 -2.13708e+06 -953304 -1.0521e+06 1.12282e+06
139 3 O -0.145107 20.0531 0.196716 -1.2 -3.59888 -1.24215e+06 -1.33112e+07 -2.75669e+07 3.68115e+06 -8.19941e+06 3.22218e+06
140 3 O -0.183601 20.0531 2.79288 -1.2 -8.5471 -2.37275e+06 -2.95344e+06 -3.18143e+06 -863176 -24462.2 1.1254e+06
141 1 Mg 6.70502 23.745 0 1.2 -6.22624 6.03246e+06 807520 -4.8005e+06 396361 -1.52577e+06 -401302
142 1 Mg 3.97493 28.4527 1.4948 1.2 -9.05084 13483.4 1.13402e+06 5.93773e+06 -1.22357e+06 -810982 370781
143 2 Si 5.77602 25.7685 1.4948 2.4 -34.8912 1.03575e+07 8.21479e+06 1.3422e+07 -136006 1.48519e+06 -1.48159e+06
144 3 O 5.83821 27.3818 1.4948 -1.2 -6.09558 -5.64663e+06 622747 -2.23248e+07 -334719 -9.26686e+06 -3.56062e+06
145 3 O 2.15175 24.7945 1.4948 -1.2 -9.21298 -4.95255e+06 -23476.6 -2.41673e+06 1.60347e+06 -924081 -1.25896e+06
146 3 O 5.07184 25.0624 0.196716 -1.2 -4.09644 -2.23652e+06 -1.41605e+07 -2.2102e+07 -2.77785e+06 -9.40528e+06 -1.75223e+06
147 1 Mg 6.66374 23.745 2.9896 1.2 -8.28645 5.02132e+06 -2.67359e+06 499088 1.30291e+06 -1.24087e+06 2.19936e+06
148 3 O 5.03707 25.0624 2.79288 -1.2 -8.47212 -2.48306e+06 -2.78293e+06 -3.23375e+06 1.10075e+06 -94938.4 -1.62776e+06
149 1 Mg -0.727559 23.7863 4.4844 1.2 -9.00643 -553209 1.56868e+06 4.22348e+06 -479600 -149731 248727
150 2 Si -2.5277 26.4704 4.4844 2.4 -33.4615 1.26814e+07 6.61274e+06 1.04796e+07 -77396.7 -50239.1 1.14154e+06
151 3 O -2.59107 24.8572 4.4844 -1.2 -9.18947 -4.52481e+06 850025 -4.61009e+06 386304 -215093 -405081
152 3 O 1.09817 27.4445 4.4844 -1.2 -8.87878 -3.88601e+06 -1.56254e+06 -4.40614e+06 2.21528e+06 -478789 -600648
153 3 O -1.78784 27.1766 3.18632 -1.2 -8.67237 -3.47349e+06 -2.32138e+06 -1.97151e+06 1.17311e+06 -28503 -2.0519e+06
154 3 O -1.82343 27.1766 5.78248 -1.2 -8.72507 -3.58062e+06 -2.49893e+06 -2.43305e+06 1.22422e+06 -216382 811767
155 1 Mg 1.62435 26.1195 2.9896 1.2 -8.35091 4.983e+06 -2.65862e+06 602594 -1.13471e+06 -1.29775e+06 -1.11624e+06
156 1 Mg 4.43064 26.0782 4.4844 1.2 -9.0184 -237428 1.47552e+06 4.13918e+06 1.2143e+06 -341678 649179
157 2 Si 2.61607 28.143 4.4844 2.4 -33.6604 1.23552e+07 6.46479e+06 1.12434e+07 748977 -144556 1.31741e+06
158 3 O 2.63853 29.7563 4.4844 -1.2 -9.05925 -4.50291e+06 1.13032e+06 -5.24838e+06 598633 -63319.6 -535348
159 3 O -4.00841 27.169 4.4844 -1.2 -8.97351 -4.16995e+06 -1.36494e+06 -4.12913e+06 -1.32999e+06 -313758 -722289
160 3 O 3.3182 27.4369 3.18632 -1.2 -8.68089 -3.36989e+06 -2.44427e+06 -2.16141e+06 -908449 138262 704940
161 1 Mg 1.66335 26.1195 0 1.2 -6.27267 5.97725e+06 1.20031e+06 -4.23557e+06 -875779 -1.57391e+06 625260
162 3 O 3.28288 27.4369 5.78248 -1.2 -8.55521 -3.34364e+06 -2.67408e+06 -3.25297e+06 -912447 -40754.3 -2.02907e+06
163 1 Mg -1.18278 26.1608 1.4948 1.2 -9.01114 476775 1.09948e+06 5.77447e+06 1.88222e+06 -806551 630538
164 2 Si 0.635424 24.0959 1.4948 2.4 -34.9736 9.92289e+06 8.64042e+06 1.34471e+07 764624 1.41281e+06 3.10007e+06
165 3 O 0.617906 22.4827 1.4948 -1.2 -5.27507 -3.91279e+06 378384 -2.84984e+07 1.00735e+06 -8.56041e+06 3.53342e+06
166 3 O 7.25781 25.07 1.4948 -1.2 -9.26334 -5.13569e+06 127180 -2.29783e+06 -921898 -838205 669788
167 3 O -0.0337363 24.8021 0.196716 -1.2 -4.17974 -2.54286e+06 -1.41273e+07 -2.21066e+07 3.49657e+06 -9.65987e+06 1.53018e+06
168 3 O -0.0687235 24.8021 2.79288 -1.2 -8.50035 -2.41755e+06 -2.91201e+06 -3.30561e+06 -844080 -116697 663279
169 1 Mg 6.82195 28.494 0 1.2 -6.28621 5.46204e+06 1.22876e+06 -3.67569e+06 1.15279e+06 -1.82109e+06 -47652.5
170 1 Mg 4.10106 33.2017 1.4948 1.2 -9.00634 -495257 1.50172e+06 5.66694e+06 -1.21391e+06 -588274 408054
171 2 Si 5.89839 30.5175 1.4948 2.4 -34.5957 1.09066e+07 7.41095e+06 1.32862e+07 -310090 1.63815e+06 -1.20265e+06
172 3 O 5.96289 32.1308 1.4948 -1.2 -7.04221 -6.65996e+06 678461 -1.61959e+07 -297599 -8.4348e+06 -2.89969e+06
173 3 O 2.27266 29.5435 1.4948 -1.2 -9.25443 -4.82417e+06 196848 -2.65136e+06 1.66637e+06 -700152 -1.39828e+06
174 3 O 5.19102 29.8114 0.196716 -1.2 -5.01473 -3.45254e+06 -1.36712e+07 -1.61022e+07 -1.94198e+06 -9.26531e+06 -595041
175 1 Mg 6.78546 28.494 2.9896 1.2 -8.2958 5.12528e+06 -2.9154e+06 657473 1.31913e+06 -1.33243e+06 2.51853e+06
176 3 O 5.16061 29.8114 2.79288 -1.2 -8.47946 -2.51362e+06 -2.57482e+06 -3.43714e+06 1.10319e+06 -163500 -1.71204e+06
177 1 Mg -0.603205 28.5353 4.4844 1.2 -9.06947 -408859 1.28823e+06 4.453e+06 -470473 -78873.1 659108
178 2 Si -2.39877 31.2194 4.4844 2.4 -33.4938 1.26688e+07 6.11696e+06 1.10508e+07 194062 19951.1 907725
179 3 O -2.46483 29.6062 4.4844 -1.2 -9.11292 -4.682e+06 1.21236e+06 -4.91724e+06 336596 -107171 -611423
180 3 O 1.22864 32.1935 4.4844 -1.2 -8.93469 -3.77245e+06 -1.55125e+06 -4.46429e+06 2.27781e+06 -353642 -325904
181 3 O -1.66032 31.9256 3.18632 -1.2 -8.71202 -3.29476e+06 -2.32285e+06 -2.16249e+06 1.13407e+06 9160.84 -1.91357e+06
182 3 O -1.69072 31.9256 5.78248 -1.2 -8.65327 -3.39769e+06 -2.17882e+06 -3.06885e+06 1.15324e+06 -296387 989453
183 1 Mg 1.7499 30.8685 2.9896 1.2 -8.30733 4.99162e+06 -2.78081e+06 652833 -1.16008e+06 -1.39451e+06 -1.11006e+06
184 1 Mg 4.55894 30.8272 4.4844 1.2 -9.03643 -187400 1.15841e+06 4.43649e+06 1.20341e+06 -275721 446028
185 2 Si 2.7476 32.892 4.4844 2.4 -33.3855 1.19299e+07 6.80803e+06 1.08682e+07 664689 -339277 673579
186 3 O 2.77235 34.5053 4.4844 -1.2 -9.24707 -4.12902e+06 664625 -4.88959e+06 594244 65815.5 -356096
187 3 O -3.87837 31.918 4.4844 -1.2 -9.04149 -4.17461e+06 -1.24532e+06 -4.13587e+06 -1.386e+06 -339923 -374334
188 3 O 3.44611 32.1859 3.18632 -1.2 -8.75348 -3.21773e+06 -2.52696e+06 -2.21586e+06 -850725 247379 872624
189 1 Mg 1.7837 30.8685 0 1.2 -6.29405 4.8635e+06 1.3319e+06 -3.27985e+06 -1.36621e+06 -1.5368e+06 798653
190 3 O 3.41602 32.1859 5.78248 -1.2 -8.70192 -3.17752e+06 -2.51177e+06 -3.07491e+06 -779528 -86711.1 -1.55429e+06
191 1 Mg -1.05984 30.9098 1.4948 1.2 -9.02382 15034.9 1.24802e+06 5.80617e+06 1.91255e+06 -590697 589690
192 2 Si 0.755243 28.8449 1.4948 2.4 -34.7539 1.05326e+07 7.80406e+06 1.34066e+07 1.12776e+06 1.63877e+06 3.47322e+06
193 3 O 0.735127 27.2317 1.4948 -1.2 -6.08319 -5.65905e+06 609644 -2.24559e+07 1.17024e+06 -9.34104e+06 2.55914e+06
194 3 O 7.37914 29.819 1.4948 -1.2 -9.309 -5.0001e+06 332255 -2.53209e+06 -943246 -628309 538034
195 3 O 0.0850649 29.5511 0.196716 -1.2 -5.07687 -3.70976e+06 -1.40333e+07 -1.60289e+07 2.70722e+06 -9.45417e+06 39103.7
196 3 O 0.0543974 29.5511 2.79288 -1.2 -8.51037 -2.46247e+06 -2.74467e+06 -3.46309e+06 -829270 -181266 438092
197 1 Mg 6.94543 33.243 0 1.2 -6.31022 4.19069e+06 1.38837e+06 -2.85195e+06 1.59346e+06 -1.45035e+06 -209820
198 1 Mg 4.23267 37.9507 1.4948 1.2 -8.95069 -972331 2.10673e+06 5.03541e+06 -1.12428e+06 -281772 566912
199 2 Si 6.02709 35.2665 1.4948 2.4 -34.1228 1.12594e+07 7.42226e+06 1.22141e+07 -425357 1.55278e+06 -824589
200 3 O 6.09339 36.8798 1.4948 -1.2 -7.93398 -6.74607e+06 325926 -1.08225e+07 -129881 -6.57619e+06 -2.52723e+06
201 3 O 2.40018 34.2925 1.4948 -1.2 -9.36048 -4.53649e+06 -50289.2 -2.57568e+06 1.69952e+06 -490268 -1.4114e+06
202 3 O 5.31645 34.5604 0.196716 -1.2 -6.07054 -4.2889e+06 -1.2273e+07 -1.05363e+07 -949669 -7.80458e+06 421076
203 1 Mg 6.91449 33.243 2.9896 1.2 -8.16381 5.01166e+06 -2.70727e+06 359612 1.32454e+06 -1.34903e+06 2.31338e+06
204 3 O 5.291 34.5604 2.79288 -1.2 -8.64077 -2.42253e+06 -2.94716e+06 -2.94059e+06 1.13956e+06 -204903 -1.63397e+06
205 1 Mg -0.471101 33.2843 4.4844 1.2 -8.97127 -722079 1.48231e+06 4.40734e+06 -410869 -70000.7 308101
206 2 Si -2.26307 35.9684 4.4844 2.4 -33.1303 1.21094e+07 7.24383e+06 9.90613e+06 46445.9 141255 551347
207 3 O -2.33122 34.3552 4.4844 -1.2 -9.28889 -4.32469e+06 809160 -4.59061e+06 396588 -206515 -269098
208 3 O 1.36549 36.9425 4.4844 -1.2 -9.03416 -3.55098e+06 -2.10016e+06 -3.98693e+06 2.21237e+06 -378022 -268060
209 3 O -1.52658 36.6746 3.18632 -1.2 -8.81504 -3.06356e+06 -2.86053e+06 -1.78506e+06 1.15653e+06 19656.2 -1.90196e+06
210 3 O -1.55122 36.6746 5.78248 -1.2 -8.86024 -3.11552e+06 -2.82185e+06 -2.46998e+06 1.17184e+06 -308627 1.37409e+06
211 1 Mg 1.882 35.6175 2.9896 1.2 -8.16968 4.77093e+06 -2.30252e+06 184735 -1.10004e+06 -1.50391e+06 -1.08711e+06
212 1 Mg 4.69415 35.5762 4.4844 1.2 -8.81012 -445198 1.68747e+06 3.79834e+06 1.19504e+06 -342864 417008
213 2 Si 2.88522 37.641 4.4844 2.4 -33.2873 1.14802e+07 7.83052e+06 1.01394e+07 898269 -286239 738829
214 3 O 2.91159 39.2543 4.4844 -1.2 -9.16983 -4.0991e+06 275057 -4.64371e+06 560345 -18785.9 -311464
215 3 O -3.74183 36.667 4.4844 -1.2 -9.21894 -4.03414e+06 -1.79267e+06 -3.45427e+06 -1.24193e+06 -226758 -372619
216 3 O 3.58014 36.9349 3.18632 -1.2 -8.84262 -2.95209e+06 -3.05237e+06 -1.92294e+06 -868490 330522 757011
217 1 Mg 1.90997 35.6175 0 1.2 -6.28382 3.40048e+06 1.49854e+06 -2.97858e+06 -1.65885e+06 -763342 1.44473e+06
218 3 O 3.55582 36.9349 5.78248 -1.2 -8.84313 -2.71936e+06 -3.08255e+06 -2.60878e+06 -979584 50038.6 -1.45589e+06
219 1 Mg -0.93068 35.6588 1.4948 1.2 -8.95468 -535825 1.78929e+06 5.3129e+06 1.86262e+06 -264193 617096
220 2 Si 0.881882 33.5939 1.4948 2.4 -34.341 1.08533e+07 7.50858e+06 1.27908e+07 1.40671e+06 1.66369e+06 3.22857e+06
221 3 O 0.859602 31.9807 1.4948 -1.2 -7.0223 -6.65817e+06 681998 -1.63761e+07 1.16745e+06 -8.48953e+06 1.97726e+06
222 3 O 7.507 34.568 1.4948 -1.2 -9.41902 -4.7148e+06 54857.4 -2.43139e+06 -936669 -451820 536226
223 3 O 0.210186 34.3001 0.196716 -1.2 -6.09047 -4.396e+06 -1.29647e+07 -1.05532e+07 1.5318e+06 -7.97531e+06 -1.23202e+06
224 3 O 0.184454 34.3001 2.79288 -1.2 -8.64185 -2.29046e+06 -3.07826e+06 -3.14055e+06 -858885 -229199 509334
225 1 Mg 7.07415 37.992 0 1.2 -6.28639 2.79902e+06 1.72275e+06 -2.98205e+06 1.86821e+06 -430904 -602881
226 1 Mg 4.36817 42.6997 1.4948 1.2 -8.98602 -1.12232e+06 2.44667e+06 4.52018e+06 -995477 63678.4 102118
227 2 Si 6.16058 40.0155 1.4948 2.4 -33.8246 1.16753e+07 7.53661e+06 1.12139e+07 -381601 1.23704e+06 -766560
228 3 O 6.22815 41.6288 1.4948 -1.2 -8.53572 -6.27463e+06 85278.6 -7.17948e+06 32866.8 -4.48723e+06 -1.82706e+06
229 3 O 2.53282 39.0415 1.4948 -1.2 -9.39879 -4.29807e+06 -554062 -2.40854e+06 1.70874e+06 -337683 -1.42878e+06
230 3 O 5.44674 39.3094 0.196716 -1.2 -7.06023 -4.55582e+06 -1.03583e+07 -6.15804e+06 -142271 -5.73291e+06 1.24931e+06
231 1 Mg 7.04922 37.992 2.9896 1.2 -8.07613 4.95189e+06 -2.23154e+06 -185835 1.27298e+06 -1.4843e+06 2.38784e+06
232 3 O 5.42658 39.3094 2.79288 -1.2 -8.6739 -2.4789e+06 -3.27747e+06 -2.52872e+06 1.13818e+06 -189600 -1.62976e+06
233 1 Mg -0.333062 38.0333 4.4844 1.2 -8.91436 -756741 1.98447e+06 3.84676e+06 -425058 54926.7 259319
234 2 Si -2.12255 40.7174 4.4844 2.4 -33.3717 1.25358e+07 7.75798e+06 9.35237e+06 98530.3 -109670 391278
235 3 O -2.19212 39.1042 4.4844 -1.2 -9.28442 -4.42569e+06 401695 -4.08519e+06 486253 -90049.9 -313263
236 3 O 1.50676 41.6915 4.4844 -1.2 -8.86724 -3.85023e+06 -2.31667e+06 -3.72472e+06 2.34675e+06 -399631 -53444.9
237 3 O -1.3884 41.4236 3.18632 -1.2 -8.72993 -3.14409e+06 -3.10984e+06 -1.69546e+06 1.14246e+06 61965.2 -1.67125e+06
238 3 O -1.40713 41.4236 5.78248 -1.2 -8.63157 -3.60693e+06 -3.11498e+06 -1.83102e+06 1.11118e+06 46242.7 1.45762e+06
239 1 Mg 2.01892 40.3665 2.9896 1.2 -8.1993 4.81115e+06 -1.96833e+06 -128900 -1.09124e+06 -1.54658e+06 -1.20931e+06
240 1 Mg 4.83434 40.3252 4.4844 1.2 -8.96249 -299647 1.91582e+06 3.67237e+06 1.25142e+06 -333589 231941
241 2 Si 3.02698 42.39 4.4844 2.4 -33.6834 1.19772e+07 8.15401e+06 9.97446e+06 680722 -338041 -182900
242 3 O 3.05433 44.0033 4.4844 -1.2 -9.03476 -4.35348e+06 66225.8 -4.38411e+06 606009 131061 303572
243 3 O -3.60077 41.416 4.4844 -1.2 -9.04169 -4.28504e+06 -1.95344e+06 -3.33059e+06 -1.34632e+06 -141208 -125595
244 3 O 3.71851 41.6839 3.18632 -1.2 -8.73728 -3.00093e+06 -3.27991e+06 -1.91743e+06 -839462 337286 1.08623e+06
245 1 Mg 2.04077 40.3665 0 1.2 -6.26726 2.23345e+06 1.78381e+06 -3.54455e+06 -1.82505e+06 441859 2.04218e+06
246 3 O 3.70011 41.6839 5.78248 -1.2 -8.44728 -3.15889e+06 -3.33771e+06 -2.81931e+06 -824150 292628 -1.03191e+06
247 1 Mg -0.796865 40.4078 1.4948 1.2 -8.9363 -808798 2.29606e+06 4.65804e+06 1.74898e+06 95174.9 451002
248 2 Si 1.01387 38.3429 1.4948 2.4 -33.9548 1.11914e+07 7.7294e+06 1.16483e+07 1.55343e+06 1.53909e+06 3.09298e+06
249 3 O 0.989947 36.7297 1.4948 -1.2 -7.90889 -6.71613e+06 333085 -1.10505e+07 1.02639e+06 -6.66334e+06 1.36016e+06
250 3 O 7.63988 39.317 1.4948 -1.2 -9.45611 -4.51277e+06 -454941 -2.23741e+06 -921777 -268220 569915
251 3 O 0.340253 39.0491 0.196716 -1.2 -7.05937 -4.59111e+06 -1.12537e+07 -6.18259e+06 380207 -5.90041e+06 -2.12125e+06
252 3 O 0.319795 39.0491 2.79288 -1.2 -8.69508 -2.36294e+06 -3.47392e+06 -2.6243e+06 -864703 -296805 490559
253 1 Mg 7.20667 42.741 0 1.2 -6.32547 1.93685e+06 1.83479e+06 -3.63302e+06 1.98293e+06 924738 -1.95608e+06
254 1 Mg 4.50613 47.4487 1.4948 1.2 -9.04894 -1.00399e+06 2.57051e+06 4.17561e+06 -834180 374371 -206255
255 2 Si 6.29731 44.7645 1.4948 2.4 -33.7797 1.2219e+07 7.26711e+06 1.08446e+07 -236987 882407 -1.71725e+06
256 3 O 6.36567 46.3778 1.4948 -1.2 -8.86589 -5.58238e+06 11150.3 -5.16686e+06 185359 -2.68291e+06 -1.10038e+06
257 3 O 2.669 43.7905 1.4948 -1.2 -9.30008 -4.25262e+06 -893948 -2.54102e+06 1.71721e+06 -174542 -871429
258 3 O 5.58048 44.0584 0.196716 -1.2 -7.7453 -4.51065e+06 -7.88728e+06 -3.61136e+06 319796 -3.70355e+06 2.41497e+06
259 1 Mg 7.1879 42.741 2.9896 1.2 -8.16361 5.0768e+06 -2.05011e+06 -338635 1.29814e+06 -1.57303e+06 1.93362e+06
260 3 O 5.56564 44.0584 2.79288 -1.2 -8.61596 -2.74123e+06 -3.41644e+06 -2.24266e+06 1.12857e+06 -216624 -1.03553e+06
261 1 Mg -0.19105 42.7823 4.4844 1.2 -9.10063 -435669 2.08379e+06 3.72487e+06 -428998 95784.2 5495.45
262 2 Si -1.97909 45.4664 4.4844 2.4 -33.5687 1.26368e+07 8.38516e+06 8.9535e+06 12801.6 130686 -821908
263 3 O -2.04947 43.8532 4.4844 -1.2 -9.10626 -4.6244e+06 256887 -4.0167e+06 418811 -129976 246626
264 3 O 1.65063 46.4405 4.4844 -1.2 -8.85797 -3.92731e+06 -2.68817e+06 -3.29478e+06 2.24572e+06 -244324 482041
265 3 O -1.24745 46.1726 3.18632 -1.2 -8.64872 -3.15828e+06 -3.3515e+06 -1.66963e+06 1.17121e+06 20920.9 -1.10896e+06
266 3 O -1.26044 46.1726 5.78248 -1.2 -8.56932 -3.39848e+06 -3.55874e+06 -1.78701e+06 1.31205e+06 -60088.9 2.04502e+06
267 1 Mg 2.15896 45.1155 2.9896 1.2 -8.27412 4.92213e+06 -1.75972e+06 -312874 -1.05658e+06 -1.70346e+06 -1.7996e+06
268 1 Mg 4.97763 45.0742 4.4844 1.2 -9.0257 -82252.8 2.28314e+06 3.18799e+06 1.26242e+06 -252769 -332723
269 2 Si 3.1711 47.139 4.4844 2.4 -33.6644 1.19932e+07 9.01953e+06 9.05579e+06 953993 -208344 -667866