ITEM: TIMESTEP
44700
ITEM: NUMBER OF ATOMS
10500
ITEM: BOX BOUNDS xy xz yz pp pp pp
0.0000000000000000e+00 1.5297749999999999e+01 5.0992499999999996e+00
0.0000000000000000e+00 1.1872499999999999e+02 0.0000000000000000e+00
0.0000000000000000e+00 8.9688000000000002e+01 0.0000000000000000e+00
ITEM: ATOMS id type element xu yu zu q c_pe c_s[1] c_s[2] c_s[3] c_s[4] c_s[5] c_s[6]
1 1 Mg 6.2404 -6.37941e-06 0 1.2 -4.87372 8.63846e+06 -2.07952e+06 -6.01212e+06 -11332.5 2.64889e+06 -284985
2 1 Mg 3.46349 4.70768 1.4948 1.2 -8.93231 399253 2.70428e+06 4.30371e+06 -933911 -598051 15020.9
3 2 Si 5.2885 2.02354 1.4948 2.4 -36.1872 1.1515e+07 1.06135e+07 1.16424e+07 8.85443e+06 767076 -3.3416e+06
4 3 O 5.33628 3.63678 1.4948 -1.2 -4.26532 -1.55331e+06 -1.38084e+06 -3.37303e+07 -328072 3.78521e+06 -3.7623e+06
5 3 O 1.67294 1.04952 1.4948 -1.2 -0.580456 -2.10864e+07 -7.91629e+07 -2.3154e+06 -2.41345e+07 -99829.4 30307
6 3 O 4.59532 1.31737 0.196716 -1.2 -2.57619 -2.69386e+06 -6.45832e+06 -3.06991e+07 -6.03185e+06 6.20172e+06 -2.54694e+06
7 1 Mg 6.18956 -6.37941e-06 2.9896 1.2 -5.45199 2.37797e+06 -2.84769e+07 -2.70137e+06 -8.86572e+06 2.52737e+06 3.9834e+06
8 3 O 4.55118 1.31737 2.79288 -1.2 -7.00387 -692354 -4.47397e+06 -3.35168e+06 -2.96329e+06 -3.45967e+06 -976906
9 1 Mg -1.20682 0.0413099 4.4844 1.2 8.29067 -2.99675e+07 -9.36569e+07 240434 -2.85428e+07 -1.29348e+06 40019.4
10 2 Si -3.0337 2.72544 4.4844 2.4 -34.2105 1.58653e+07 6.83745e+06 8.48555e+06 1.49669e+06 145002 -1.24038e+06
11 3 O -3.08099 1.11221 4.4844 -1.2 -9.00912 -7.02343e+06 322019 -2.5609e+06 -1.15057e+06 -291114 456567
12 3 O 0.582463 3.69946 4.4844 -1.2 -8.50598 -4.02673e+06 -5.50961e+06 -2.80846e+06 -622621 -100825 131033
13 3 O -2.29524 3.43162 3.18632 -1.2 -8.57662 -4.9436e+06 -2.4884e+06 -661698 1.10718e+06 -811121 -723855
14 3 O -2.34216 3.43162 5.78248 -1.2 -8.31757 -4.62306e+06 -3.30013e+06 -1.66063e+06 836165 651701 1.68768e+06
15 1 Mg 1.12778 2.37449 2.9896 1.2 -8.09038 5.98679e+06 -1.79142e+06 -552566 -3.25714e+06 -4.24e+06 -2.44482e+06
16 1 Mg 3.92855 2.33318 4.4844 1.2 -8.98505 -3.24336e+06 4.78933e+06 4.87649e+06 1.38968e+06 392002 233885
17 2 Si 2.09341 4.39804 4.4844 2.4 -33.2523 1.35154e+07 6.95724e+06 8.7259e+06 259430 -254941 288194
18 3 O 2.09991 6.01128 4.4844 -1.2 -9.07138 -4.69321e+06 -111605 -3.8196e+06 552619 -169462 -99117.7
19 3 O -4.52137 3.42402 4.4844 -1.2 -8.67288 -3.65418e+06 -2.89545e+06 -3.64678e+06 -2.36865e+06 -940806 305589
20 3 O 2.80834 3.69187 3.18632 -1.2 -8.86643 -2.90255e+06 -2.79485e+06 -419495 448565 -504796 -335318
21 1 Mg 1.17857 2.37449 0 1.2 -5.58822 89119.9 -1.50272e+07 -6.19116e+06 6.51781e+06 1.19239e+06 4.46091e+06
22 3 O 2.76143 3.69187 5.78248 -1.2 -8.92169 -3.62198e+06 -2.52106e+06 -936681 488351 47086.1 67134.8
23 1 Mg -1.67381 2.41581 1.4948 1.2 -8.04952 2.29348e+06 -381253 4.25116e+06 1.34857e+06 -611227 857236
24 2 Si 0.16286 0.350945 1.4948 2.4 -25.5028 -6.73249e+06 1.19725e+07 1.19183e+07 1.59057e+06 2.73754e+06 982009
25 3 O 0.15972 -1.26229 1.4948 -1.2 -4.29841 -1.13846e+07 -7.79706e+06 -2.92162e+07 -5.60506e+06 -8.475e+06 -2.62328e+06
26 3 O 6.77654 1.32496 1.4948 -1.2 -9.88267 -6.49146e+06 1.98743e+06 -1.60588e+06 -632966 -668494 1.20245e+06
27 3 O -0.508028 1.05712 0.196716 -1.2 -9.07261 -607963 -4.44737e+06 -940984 -547277 240257 -4.40403e+06
28 3 O -0.552171 1.05712 2.79288 -1.2 -6.28872 -6.09969e+06 -4.36754e+06 -2.49388e+07 1.42315e+06 -6.72549e+06 -5.35518e+06
29 1 Mg 6.31713 4.74899 0 1.2 -5.38392 1.11657e+06 -1.29492e+07 -6.09371e+06 -7.31265e+06 1.43686e+06 -3.62838e+06
30 1 Mg 3.54847 9.45668 1.4948 1.2 -8.79253 1.01326e+06 1.81781e+06 4.33086e+06 -962984 -906638 -393702
31 2 Si 5.36879 6.77254 1.4948 2.4 -35.1969 8.75485e+06 1.22509e+07 1.13341e+07 1.66274e+06 196165 -1.964e+06
32 3 O 5.41937 8.38578 1.4948 -1.2 -4.30474 -1.0681e+06 -1.04443e+06 -3.50926e+07 767764 1.08352e+06 -4.20301e+06
33 3 O 1.75158 5.79852 1.4948 -1.2 -9.05023 -4.71397e+06 -2.43057e+06 -1.36828e+06 1.96606e+06 -1.59112e+06 -1.32477e+06
34 3 O 4.67421 6.06637 0.196716 -1.2 -3.32874 -576248 -1.01792e+07 -3.13917e+07 -2.00969e+06 1.26662e+06 -4.44942e+06
35 1 Mg 6.26654 4.74899 2.9896 1.2 -8.48968 4.83489e+06 -1.5964e+06 -66253.1 1.78955e+06 -826628 1.80378e+06
36 3 O 4.63043 6.06637 2.79288 -1.2 -8.39834 -2.34302e+06 -4.06898e+06 -2.08878e+06 940276 -139089 -1.42411e+06
37 1 Mg -1.12976 4.79031 4.4844 1.2 -9.23228 92328.4 2.93881e+06 2.62778e+06 -681739 -473914 -278258
38 2 Si -2.9517 7.47444 4.4844 2.4 -33.7882 1.26577e+07 9.03807e+06 8.59971e+06 108283 10294.5 154063
39 3 O -3.00198 5.86121 4.4844 -1.2 -8.99924 -4.65107e+06 -376647 -3.56707e+06 40809.1 -220657 77380.1
40 3 O 0.666315 8.44846 4.4844 -1.2 -8.8046 -4.1345e+06 -2.57859e+06 -3.24988e+06 2.13677e+06 -418541 2686.58
41 3 O -2.21213 8.18062 3.18632 -1.2 -8.62303 -3.66703e+06 -3.42829e+06 -627046 1.09506e+06 -289618 -1.44196e+06
42 3 O -2.25864 8.18062 5.78248 -1.2 -8.45063 -3.60637e+06 -3.52055e+06 -2.13155e+06 1.01985e+06 -11099.1 1.11283e+06
43 1 Mg 1.20893 7.12349 2.9896 1.2 -8.44638 4.8569e+06 -1.5256e+06 -249243 -1.2908e+06 -1.34665e+06 -1.66869e+06
44 1 Mg 4.00982 7.08218 4.4844 1.2 -9.11485 -97567.8 2.62299e+06 2.99897e+06 1.01527e+06 -246714 129710
45 2 Si 2.17861 9.14704 4.4844 2.4 -33.7901 1.27898e+07 8.82428e+06 8.65284e+06 577962 -114504 61693.3
46 3 O 2.18828 10.7603 4.4844 -1.2 -8.9612 -4.71529e+06 -99904.2 -3.95781e+06 434097 -182696 97942.8
47 3 O -4.43805 8.17302 4.4844 -1.2 -8.826 -4.12102e+06 -2.62088e+06 -3.14398e+06 -1.54507e+06 -576707 -89181.2
48 3 O 2.89193 8.44087 3.18632 -1.2 -8.64273 -3.55649e+06 -3.61775e+06 -670265 -915091 -234323 1.28058e+06
49 1 Mg 1.25915 7.12349 0 1.2 -5.75512 1.6515e+06 -7.46258e+06 -6.41447e+06 5.89635e+06 1.36185e+06 2.6273e+06
50 3 O 2.84547 8.44087 5.78248 -1.2 -8.54708 -3.6653e+06 -3.75073e+06 -1.72261e+06 -862949 -80551.8 -1.2269e+06
51 1 Mg -1.59284 7.16481 1.4948 1.2 -8.69954 1.54005e+06 1.46025e+06 4.2117e+06 1.46102e+06 -938068 326446
52 2 Si 0.240329 5.09994 1.4948 2.4 -34.9674 9.73396e+06 1.09902e+07 1.12485e+07 -1.95304e+06 -1.11295e+06 1.83852e+06
53 3 O 0.234538 3.48671 1.4948 -1.2 -4.76244 -2.50765e+06 489813 -3.38868e+07 394277 5.21554e+06 4.08659e+06
54 3 O 6.85564 6.07396 1.4948 -1.2 -9.13093 -5.13572e+06 -1.89143e+06 -1.31741e+06 -1.34198e+06 -1.83481e+06 1.19158e+06
55 3 O -0.429565 5.80612 0.196716 -1.2 -3.57667 -1.37685e+06 -8.81439e+06 -3.15153e+07 1.85239e+06 1.22692e+06 4.5443e+06
56 3 O -0.473377 5.80612 2.79288 -1.2 -8.48925 -2.86741e+06 -3.6491e+06 -1.94161e+06 -785683 340927 1.35848e+06
57 1 Mg 6.40169 9.49799 0 1.2 -5.7145 2.29611e+06 -6.30877e+06 -6.767e+06 -5.48274e+06 1.00062e+06 -2.53561e+06
58 1 Mg 3.64209 14.2057 1.4948 1.2 -8.91785 1.01658e+06 1.72585e+06 4.57933e+06 -1.03105e+06 -969229 -567539
59 2 Si 5.45748 11.5215 1.4948 2.4 -35.226 9.14264e+06 1.17524e+07 1.14675e+07 886515 348541 -2.57163e+06
60 3 O 5.51101 13.1348 1.4948 -1.2 -4.2943 -1.33671e+06 -843005 -3.48625e+07 467040 -2.5321e+06 -4.07099e+06
61 3 O 1.83851 10.5475 1.4948 -1.2 -9.10307 -4.96297e+06 -1.92349e+06 -1.26935e+06 1.53901e+06 -1.58598e+06 -946777
62 3 O 4.7611 10.8154 0.196716 -1.2 -3.16757 -184689 -1.15648e+07 -3.1878e+07 -2.46984e+06 -1.78236e+06 -4.12364e+06
63 1 Mg 6.35203 9.49799 2.9896 1.2 -8.45073 4.87153e+06 -1.6072e+06 -156693 1.30571e+06 -1.16277e+06 1.90937e+06
64 3 O 4.71833 10.8154 2.79288 -1.2 -8.38979 -2.62117e+06 -3.76246e+06 -2.13952e+06 1.06731e+06 21061.8 -1.1524e+06
65 1 Mg -1.0438 9.53931 4.4844 1.2 -9.17688 -78484.8 2.36279e+06 3.25187e+06 -539336 -343408 -133361
66 2 Si -2.8604 12.2234 4.4844 2.4 -33.8362 1.2961e+07 8.77844e+06 8.63139e+06 -78055.7 -117706 -549680
67 3 O -2.91391 10.6102 4.4844 -1.2 -8.96633 -4.70831e+06 -68257.2 -3.87222e+06 248005 -196489 202198
68 3 O 0.7596 13.1975 4.4844 -1.2 -8.74304 -4.11012e+06 -2.61768e+06 -3.34736e+06 2.1374e+06 -566225 270909
69 3 O -2.12001 12.9296 3.18632 -1.2 -8.5768 -3.71678e+06 -3.41526e+06 -672616 1.15069e+06 -223665 -1.25209e+06
70 3 O -2.16532 12.9296 5.78248 -1.2 -8.52116 -3.81666e+06 -3.6175e+06 -1.60999e+06 1.09963e+06 -29528 1.66387e+06
71 1 Mg 1.29891 11.8725 2.9896 1.2 -8.49326 4.94644e+06 -1.59181e+06 -200669 -1.16831e+06 -1.20708e+06 -1.89342e+06
72 1 Mg 4.10033 11.8312 4.4844 1.2 -9.18346 89655.2 2.41667e+06 3.13031e+06 1.08668e+06 -334727 -130495
73 2 Si 2.27333 13.896 4.4844 2.4 -33.9028 1.27851e+07 8.79763e+06 8.8553e+06 633224 -116879 -442893
74 3 O 2.28634 15.5093 4.4844 -1.2 -8.91206 -4.76751e+06 -59879.5 -4.03502e+06 483697 -134048 241146
75 3 O -4.34533 12.922 4.4844 -1.2 -8.80103 -4.26231e+06 -2.51699e+06 -3.15479e+06 -1.44977e+06 -434058 192242
76 3 O 2.98455 13.1899 3.18632 -1.2 -8.5874 -3.65429e+06 -3.49998e+06 -805077 -949676 -142290 1.54263e+06
77 1 Mg 1.34779 11.8725 0 1.2 -5.99925 3.54033e+06 -2.76635e+06 -6.71004e+06 3.56183e+06 817860 1.35855e+06
78 3 O 2.93934 13.1899 5.78248 -1.2 -8.46038 -3.66657e+06 -3.71318e+06 -1.87295e+06 -887906 -27999.9 -903692
79 1 Mg -1.50344 11.9138 1.4948 1.2 -8.82544 1.29156e+06 1.73003e+06 4.37589e+06 1.56587e+06 -955976 175902
80 2 Si 0.326006 9.84894 1.4948 2.4 -35.163 9.08817e+06 1.18656e+07 1.12802e+07 -597553 87271 2.05754e+06
81 3 O 0.317364 8.23571 1.4948 -1.2 -4.30818 -1.18072e+06 -913181 -3.52356e+07 -125110 1.19681e+06 4.21297e+06
82 3 O 6.94307 10.823 1.4948 -1.2 -9.14066 -5.1326e+06 -1.73541e+06 -1.18639e+06 -983983 -1.52363e+06 1.23075e+06
83 3 O -0.343122 10.5551 0.196716 -1.2 -3.26215 -437835 -1.1033e+07 -3.19701e+07 2.46299e+06 -2.02734e+06 4.66877e+06
84 3 O -0.385966 10.5551 2.79288 -1.2 -8.42663 -2.65131e+06 -3.80904e+06 -2.14999e+06 -877064 100495 1.27702e+06
85 1 Mg 6.49448 14.247 0 1.2 -6.01325 4.14607e+06 -2.08408e+06 -6.79068e+06 -2.96737e+06 242017 -1.8208e+06
86 1 Mg 3.74457 18.9547 1.4948 1.2 -9.0591 936484 1.73771e+06 4.79668e+06 -1.12367e+06 -974412 -498392
87 2 Si 5.55495 16.2705 1.4948 2.4 -35.3599 9.65889e+06 1.11201e+07 1.18168e+07 547957 788257 -2.77807e+06
88 3 O 5.6115 17.8838 1.4948 -1.2 -4.53545 -2.47925e+06 -588514 -3.23572e+07 70817 -6.05814e+06 -3.90379e+06
89 3 O 1.93416 15.2965 1.4948 -1.2 -9.0648 -5.15366e+06 -1.44845e+06 -1.36573e+06 1.5398e+06 -1.37955e+06 -777248
90 3 O 4.85636 15.5644 0.196716 -1.2 -3.08706 -334220 -1.30539e+07 -3.05352e+07 -3.04318e+06 -5.12683e+06 -3.46029e+06
91 1 Mg 6.44662 14.247 2.9896 1.2 -8.48237 5.0591e+06 -1.69171e+06 -210109 1.29957e+06 -1.20891e+06 1.76144e+06
92 3 O 4.81537 15.5644 2.79288 -1.2 -8.31858 -2.72294e+06 -3.66555e+06 -2.28255e+06 1.05316e+06 -8622.08 -1.04383e+06
93 1 Mg -0.948271 14.2883 4.4844 1.2 -9.19373 -46772.4 2.4688e+06 3.13056e+06 -558376 -211954 -238396
94 2 Si -2.75928 16.9724 4.4844 2.4 -34.0069 1.31249e+07 8.47631e+06 9.04469e+06 14868.4 -86861 -226265
95 3 O -2.81617 15.3592 4.4844 -1.2 -8.942 -4.81101e+06 -91067.3 -3.79116e+06 255895 -148191 129962
96 3 O 0.862762 17.9465 4.4844 -1.2 -8.66366 -4.27048e+06 -2.50786e+06 -3.42128e+06 2.21516e+06 -457367 291482
97 3 O -2.0185 17.6786 3.18632 -1.2 -8.48473 -3.78556e+06 -3.24977e+06 -936259 1.16048e+06 -145258 -1.31086e+06
98 3 O -2.06164 17.6786 5.78248 -1.2 -8.32092 -3.84475e+06 -3.39823e+06 -2.15756e+06 1.18224e+06 82525.3 1.47183e+06
99 1 Mg 1.39817 16.6215 2.9896 1.2 -8.55008 5.13912e+06 -1.7222e+06 -174052 -1.1851e+06 -1.23024e+06 -1.90114e+06
100 1 Mg 4.20062 16.5802 4.4844 1.2 -9.22976 226574 2.31606e+06 3.1689e+06 1.18737e+06 -303939 -172118
101 2 Si 2.37796 18.645 4.4844 2.4 -34.0268 1.3209e+07 8.57313e+06 8.85894e+06 671114 -196318 -467786
102 3 O 2.39434 20.2583 4.4844 -1.2 -8.85876 -4.93254e+06 13259.1 -4.02251e+06 520271 -94179.2 220419
103 3 O -4.24274 17.671 4.4844 -1.2 -8.71795 -4.41559e+06 -2.33236e+06 -3.32663e+06 -1.4815e+06 -547566 134303
104 3 O 3.08659 17.9389 3.18632 -1.2 -8.51851 -3.80048e+06 -3.37499e+06 -932440 -937257 -52220.9 1.54304e+06
105 1 Mg 1.44478 16.6215 0 1.2 -6.21045 5.38257e+06 20779 -6.55838e+06 1.39188e+06 -48688.7 639517
106 3 O 3.0436 17.9389 5.78248 -1.2 -8.41629 -3.88309e+06 -3.62193e+06 -1.87667e+06 -926246 -43561.6 -843960
107 1 Mg -1.40524 16.6628 1.4948 1.2 -8.98165 1.22559e+06 1.70905e+06 4.66547e+06 1.68612e+06 -967307 127519
108 2 Si 0.420358 14.5979 1.4948 2.4 -35.3109 9.39302e+06 1.14461e+07 1.16159e+07 -147205 582967 1.96913e+06
109 3 O 0.408732 12.9847 1.4948 -1.2 -4.28184 -1.33345e+06 -835623 -3.50276e+07 225093 -2.56973e+06 4.50529e+06
110 3 O 7.03923 15.572 1.4948 -1.2 -9.10131 -5.30903e+06 -1.28697e+06 -1.2808e+06 -950772 -1.30207e+06 1.26976e+06
111 3 O -0.248332 15.3041 0.196716 -1.2 -3.18991 -623476 -1.2609e+07 -3.05794e+07 3.26428e+06 -5.41385e+06 4.26447e+06
112 3 O -0.289436 15.3041 2.79288 -1.2 -8.35282 -2.69314e+06 -3.78536e+06 -2.29493e+06 -839734 18474 1.3075e+06
113 1 Mg 6.59566 18.996 0 1.2 -6.22006 5.65312e+06 409384 -6.41662e+06 -909116 -681464 -1.14234e+06
114 1 Mg 3.85574 23.7037 1.4948 1.2 -9.11123 623531 2.06111e+06 4.72997e+06 -1.19911e+06 -941511 -399590
115 2 Si 5.66125 21.0195 1.4948 2.4 -35.3421 1.02454e+07 1.06209e+07 1.17628e+07 175362 1.22688e+06 -2.80755e+06
116 3 O 5.72074 22.6328 1.4948 -1.2 -5.14663 -4.17623e+06 -549427 -2.73787e+07 -213961 -8.50911e+06 -3.46144e+06
117 3 O 2.03867 20.0455 1.4948 -1.2 -9.04136 -5.25696e+06 -1.10399e+06 -1.44132e+06 1.57944e+06 -1.14146e+06 -751003
118 3 O 4.96004 20.3134 0.196716 -1.2 -3.35861 -1.15746e+06 -1.44109e+07 -2.67337e+07 -3.17717e+06 -7.93899e+06 -2.52624e+06
119 1 Mg 6.55057 18.996 2.9896 1.2 -8.54103 5.24384e+06 -1.88458e+06 -107412 1.31111e+06 -1.17399e+06 1.75032e+06
120 3 O 4.92172 20.3134 2.79288 -1.2 -8.26617 -2.81978e+06 -3.58954e+06 -2.38053e+06 1.09719e+06 -91758.8 -1.00541e+06
121 1 Mg -0.84282 19.0373 4.4844 1.2 -9.31115 4508.17 2.29994e+06 3.42966e+06 -511717 -314989 -245409
122 2 Si -2.64823 21.7214 4.4844 2.4 -34.0245 1.32509e+07 8.51408e+06 8.91482e+06 99798.4 5269.12 -688975
123 3 O -2.70847 20.1082 4.4844 -1.2 -8.84671 -4.87238e+06 85842.7 -4.04572e+06 285031 -171993 295742
124 3 O 0.97581 22.6955 4.4844 -1.2 -8.65961 -4.18439e+06 -2.62126e+06 -3.39922e+06 2.21427e+06 -438620 293246
125 3 O -1.9076 22.4276 3.18632 -1.2 -8.48336 -3.75106e+06 -3.34822e+06 -908886 1.12949e+06 -113513 -1.23348e+06
126 3 O -1.9475 22.4276 5.78248 -1.2 -8.38439 -3.81452e+06 -3.60952e+06 -1.83509e+06 1.00381e+06 -156299 1.78762e+06
127 1 Mg 1.50678 21.3705 2.9896 1.2 -8.56537 5.25411e+06 -1.74414e+06 -242529 -1.16738e+06 -1.28131e+06 -1.86742e+06
128 1 Mg 4.31086 21.3292 4.4844 1.2 -9.26051 299177 2.25507e+06 3.2095e+06 1.11183e+06 -296957 -215912
129 2 Si 2.49243 23.394 4.4844 2.4 -33.969 1.29881e+07 8.80288e+06 8.75921e+06 602267 -336927 -557164
130 3 O 2.51204 25.0073 4.4844 -1.2 -8.9538 -4.71029e+06 -283824 -3.79961e+06 565118 49848.6 243187
131 3 O -4.13026 22.42 4.4844 -1.2 -8.7616 -4.49706e+06 -2.389e+06 -3.10795e+06 -1.38421e+06 -468950 303293
132 3 O 3.19799 22.6879 3.18632 -1.2 -8.5221 -3.75323e+06 -3.46282e+06 -941144 -889426 77135.7 1.55359e+06
133 1 Mg 1.5501 21.3705 0 1.2 -6.31086 6.30851e+06 1.54358e+06 -6.06816e+06 -73169.6 -965424 237996
134 3 O 3.1583 22.6879 5.78248 -1.2 -8.38721 -3.81707e+06 -3.60543e+06 -2.08108e+06 -788833 -43476.7 -879524
135 1 Mg -1.29822 21.4118 1.4948 1.2 -9.0897 1.01133e+06 1.86681e+06 4.79067e+06 1.82101e+06 -934667 59820.2
136 2 Si 0.523568 19.3469 1.4948 2.4 -35.3903 9.91459e+06 1.08786e+07 1.18172e+07 305580 983830 2.11879e+06
137 3 O 0.508934 17.7337 1.4948 -1.2 -4.52309 -2.47867e+06 -600987 -3.24997e+07 676185 -6.08095e+06 4.31043e+06
138 3 O 7.14425 20.321 1.4948 -1.2 -9.08302 -5.39776e+06 -950008 -1.36698e+06 -946030 -1.07959e+06 1.24954e+06
139 3 O -0.145107 20.0531 0.196716 -1.2 -3.45422 -1.47426e+06 -1.40931e+07 -2.67848e+07 3.67369e+06 -8.19953e+06 3.30272e+06
140 3 O -0.183601 20.0531 2.79288 -1.2 -8.28828 -2.74384e+06 -3.72832e+06 -2.45116e+06 -855577 -4229.36 1.2835e+06
141 1 Mg 6.70502 23.745 0 1.2 -6.29326 6.15218e+06 1.83112e+06 -5.83642e+06 413563 -1.50695e+06 -734566
142 1 Mg 3.97493 28.4527 1.4948 1.2 -9.1211 158934 2.39972e+06 4.63912e+06 -1.2219e+06 -811986 -112718
143 2 Si 5.77602 25.7685 1.4948 2.4 -35.0683 1.0714e+07 1.05174e+07 1.10465e+07 -131710 1.53993e+06 -2.5436e+06
144 3 O 5.83821 27.3818 1.4948 -1.2 -6.02324 -5.80319e+06 -616494 -2.10451e+07 -326902 -9.29293e+06 -3.02861e+06
145 3 O 2.15175 24.7945 1.4948 -1.2 -9.10481 -5.12606e+06 -1.10677e+06 -1.33366e+06 1.61692e+06 -898575 -777059
146 3 O 5.07184 25.0624 0.196716 -1.2 -4.03665 -2.36217e+06 -1.5271e+07 -2.09614e+07 -2.77858e+06 -9.41934e+06 -1.3234e+06
147 1 Mg 6.66374 23.745 2.9896 1.2 -8.46678 5.30648e+06 -1.71231e+06 -458365 1.32381e+06 -1.19925e+06 1.7133e+06
148 3 O 5.03707 25.0624 2.79288 -1.2 -8.3448 -2.75748e+06 -3.86356e+06 -2.08358e+06 1.10264e+06 -124549 -1.04183e+06
149 1 Mg -0.727559 23.7863 4.4844 1.2 -9.25926 -220300 2.54732e+06 3.31678e+06 -454072 -144664 -245359
150 2 Si -2.5277 26.4704 4.4844 2.4 -33.7378 1.29181e+07 9.12716e+06 8.17944e+06 9855.35 231388 -254618
151 3 O -2.59107 24.8572 4.4844 -1.2 -8.98407 -4.7803e+06 -205000 -3.61059e+06 312499 -268803 217728
152 3 O 1.09817 27.4445 4.4844 -1.2 -8.77768 -3.94698e+06 -2.95912e+06 -3.11483e+06 2.1839e+06 -367546 88822.5
153 3 O -1.78784 27.1766 3.18632 -1.2 -8.56598 -3.5684e+06 -3.61308e+06 -751300 1.17374e+06 -78387.6 -1.44045e+06
154 3 O -1.82343 27.1766 5.78248 -1.2 -8.54382 -3.47664e+06 -3.8876e+06 -1.63735e+06 1.21466e+06 -369147 1.56758e+06
155 1 Mg 1.62435 26.1195 2.9896 1.2 -8.47027 5.14845e+06 -1.46697e+06 -563380 -1.14296e+06 -1.36958e+06 -1.72357e+06
156 1 Mg 4.43064 26.0782 4.4844 1.2 -9.10173 119634 2.65417e+06 2.7345e+06 1.18511e+06 -344440 -95624.8
157 2 Si 2.61607 28.143 4.4844 2.4 -33.7426 1.2548e+07 9.42394e+06 8.21455e+06 859839 -400926 187773
158 3 O 2.63853 29.7563 4.4844 -1.2 -9.00545 -4.55881e+06 -368902 -3.78861e+06 512889 2868.38 -230878
159 3 O -4.00841 27.169 4.4844 -1.2 -8.91631 -4.37887e+06 -2.72423e+06 -2.64773e+06 -1.31646e+06 -470243 -20192.6
160 3 O 3.3182 27.4369 3.18632 -1.2 -8.60717 -3.55413e+06 -3.76979e+06 -775244 -913742 198067 1.28713e+06
161 1 Mg 1.66335 26.1195 0 1.2 -6.33125 6.0469e+06 2.36601e+06 -5.37709e+06 -883346 -1.57318e+06 140086
162 3 O 3.28288 27.4369 5.78248 -1.2 -8.59989 -3.44918e+06 -4.09271e+06 -1.57152e+06 -969187 107380 -1.31061e+06
163 1 Mg -1.18278 26.1608 1.4948 1.2 -9.10619 588883 2.27318e+06 4.64096e+06 1.88869e+06 -805500 93257.7
164 2 Si 0.635424 24.0959 1.4948 2.4 -35.2202 1.02674e+07 1.07141e+07 1.14239e+07 753602 1.36503e+06 2.23064e+06
165 3 O 0.617906 22.4827 1.4948 -1.2 -5.12337 -4.14207e+06 -547474 -2.75866e+07 1.00917e+06 -8.53705e+06 3.84369e+06
166 3 O 7.25781 25.07 1.4948 -1.2 -9.1594 -5.30049e+06 -975520 -1.19645e+06 -934916 -862989 1.16968e+06
167 3 O -0.0337363 24.8021 0.196716 -1.2 -4.10917 -2.62783e+06 -1.5223e+07 -2.1039e+07 3.49755e+06 -9.64475e+06 1.96232e+06
168 3 O -0.0687235 24.8021 2.79288 -1.2 -8.34484 -2.60527e+06 -3.98865e+06 -2.28984e+06 -844012 -97573.5 1.19096e+06
169 1 Mg 6.82195 28.494 0 1.2 -6.34442 5.58605e+06 2.40659e+06 -4.88423e+06 1.13872e+06 -1.82278e+06 -528135
170 1 Mg 4.10106 33.2017 1.4948 1.2 -9.12573 -324495 2.56292e+06 4.62634e+06 -1.19756e+06 -572856 84861.8
171 2 Si 5.89839 30.5175 1.4948 2.4 -34.7616 1.121e+07 9.86419e+06 1.07954e+07 -346182 1.65831e+06 -1.92993e+06
172 3 O 5.96289 32.1308 1.4948 -1.2 -6.93857 -6.8249e+06 -462195 -1.50557e+07 -288697 -8.43585e+06 -2.58762e+06
173 3 O 2.27266 29.5435 1.4948 -1.2 -9.1745 -4.93971e+06 -1.05804e+06 -1.40928e+06 1.64359e+06 -688664 -972260
174 3 O 5.19102 29.8114 0.196716 -1.2 -4.94507 -3.59049e+06 -1.48437e+07 -1.49026e+07 -1.93279e+06 -9.28343e+06 -164540
175 1 Mg 6.78546 28.494 2.9896 1.2 -8.36668 5.25885e+06 -1.55045e+06 -727551 1.28414e+06 -1.264e+06 2.00795e+06
176 3 O 5.16061 29.8114 2.79288 -1.2 -8.40782 -2.67384e+06 -3.91641e+06 -2.05235e+06 1.12164e+06 -172128 -1.35615e+06
177 1 Mg -0.603205 28.5353 4.4844 1.2 -9.15504 -404292 2.77134e+06 3.10283e+06 -458236 -103376 27669.5
178 2 Si -2.39877 31.2194 4.4844 2.4 -33.6668 1.29699e+07 8.91135e+06 8.23343e+06 -761.922 -49992.8 403010
179 3 O -2.46483 29.6062 4.4844 -1.2 -9.05668 -4.71094e+06 -285541 -3.47671e+06 443988 -166265 -169857
180 3 O 1.22864 32.1935 4.4844 -1.2 -8.79818 -3.96623e+06 -2.76717e+06 -3.26313e+06 2.2426e+06 -440967 -151410
181 3 O -1.66032 31.9256 3.18632 -1.2 -8.60566 -3.49731e+06 -3.55713e+06 -893492 1.16971e+06 23606.6 -1.65351e+06
182 3 O -1.69072 31.9256 5.78248 -1.2 -8.57998 -3.72995e+06 -3.57527e+06 -1.50065e+06 1.1754e+06 -224914 1.18138e+06
183 1 Mg 1.7499 30.8685 2.9896 1.2 -8.40307 5.12105e+06 -1.48966e+06 -614332 -1.11363e+06 -1.392e+06 -1.40862e+06
184 1 Mg 4.55894 30.8272 4.4844 1.2 -9.11258 -8929.12 2.54254e+06 2.99417e+06 1.20897e+06 -312187 309032
185 2 Si 2.7476 32.892 4.4844 2.4 -33.7501 1.24173e+07 9.0419e+06 8.74005e+06 795678 -297203 322426
186 3 O 2.77235 34.5053 4.4844 -1.2 -9.05038 -4.46656e+06 -335364 -3.84738e+06 576793 18892.8 -111209
187 3 O -3.87837 31.918 4.4844 -1.2 -8.91286 -4.34481e+06 -2.54786e+06 -2.8622e+06 -1.30761e+06 -290201 -255582
188 3 O 3.44611 32.1859 3.18632 -1.2 -8.62569 -3.39796e+06 -3.69376e+06 -1.07007e+06 -890533 242166 1.08725e+06
189 1 Mg 1.7837 30.8685 0 1.2 -6.37901 4.96925e+06 2.47336e+06 -4.39096e+06 -1.34406e+06 -1.54162e+06 415552
190 3 O 3.41602 32.1859 5.78248 -1.2 -8.47642 -3.47918e+06 -3.76859e+06 -1.97393e+06 -924928 112805 -1.43997e+06
191 1 Mg -1.05984 30.9098 1.4948 1.2 -9.11277 159396 2.46202e+06 4.59032e+06 1.90215e+06 -597798 222663
192 2 Si 0.755243 28.8449 1.4948 2.4 -34.9153 1.07229e+07 1.0326e+07 1.09528e+07 1.16128e+06 1.60206e+06 2.51505e+06
193 3 O 0.735127 27.2317 1.4948 -1.2 -5.99793 -5.75554e+06 -619363 -2.12671e+07 1.16346e+06 -9.31672e+06 3.10003e+06
194 3 O 7.37914 29.819 1.4948 -1.2 -9.23064 -5.13604e+06 -918623 -1.27081e+06 -918734 -638366 954088
195 3 O 0.0850649 29.5511 0.196716 -1.2 -5.00018 -3.8031e+06 -1.52079e+07 -1.48837e+07 2.69703e+06 -9.43538e+06 476395
196 3 O 0.0543974 29.5511 2.79288 -1.2 -8.4263 -2.55819e+06 -4.09519e+06 -2.1513e+06 -850499 -172088 883736
197 1 Mg 6.94543 33.243 0 1.2 -6.40684 4.35917e+06 2.46717e+06 -3.94443e+06 1.58846e+06 -1.43739e+06 -598767
198 1 Mg 4.23267 37.9507 1.4948 1.2 -9.07491 -761076 2.8157e+06 4.31418e+06 -1.118e+06 -237618 170935
199 2 Si 6.02709 35.2665 1.4948 2.4 -34.396 1.16385e+07 9.25816e+06 1.04371e+07 -390403 1.56148e+06 -1.57992e+06
200 3 O 6.09339 36.8798 1.4948 -1.2 -7.79623 -6.93362e+06 -465470 -1.00631e+07 -151416 -6.58933e+06 -2.12249e+06
201 3 O 2.40018 34.2925 1.4948 -1.2 -9.23498 -4.73809e+06 -1.03783e+06 -1.58652e+06 1.69609e+06 -508400 -1.04503e+06
202 3 O 5.31645 34.5604 0.196716 -1.2 -5.95415 -4.46005e+06 -1.3268e+07 -9.55536e+06 -962826 -7.82254e+06 854511
203 1 Mg 6.91449 33.243 2.9896 1.2 -8.30348 5.21821e+06 -1.60984e+06 -720485 1.30802e+06 -1.394e+06 2.09919e+06
204 3 O 5.291 34.5604 2.79288 -1.2 -8.48134 -2.62262e+06 -3.9156e+06 -2.02195e+06 1.10835e+06 -218047 -1.36251e+06
205 1 Mg -0.471101 33.2843 4.4844 1.2 -9.10982 -380066 2.59855e+06 3.17182e+06 -465240 -19634.5 148943
206 2 Si -2.26307 35.9684 4.4844 2.4 -33.5207 1.25772e+07 9.14152e+06 8.16429e+06 84816.2 -61004.6 450956
207 3 O -2.33122 34.3552 4.4844 -1.2 -9.10749 -4.64064e+06 -258310 -3.48835e+06 413869 -96805 -189148
208 3 O 1.36549 36.9425 4.4844 -1.2 -8.91866 -3.86571e+06 -2.93914e+06 -3.01064e+06 2.29147e+06 -323885 -150809
209 3 O -1.52658 36.6746 3.18632 -1.2 -8.67325 -3.27063e+06 -3.6805e+06 -986608 1.16438e+06 90672.2 -1.6813e+06
210 3 O -1.55122 36.6746 5.78248 -1.2 -8.64443 -3.38791e+06 -3.75365e+06 -1.5201e+06 1.22095e+06 -110904 1.1504e+06
211 1 Mg 1.882 35.6175 2.9896 1.2 -8.30956 5.04717e+06 -1.41649e+06 -753383 -1.12284e+06 -1.47965e+06 -1.39285e+06
212 1 Mg 4.69415 35.5762 4.4844 1.2 -9.03633 -150942 2.67876e+06 2.87902e+06 1.26475e+06 -239736 183248
213 2 Si 2.88522 37.641 4.4844 2.4 -33.4993 1.21359e+07 9.43375e+06 8.22851e+06 828547 -264612 479937
214 3 O 2.91159 39.2543 4.4844 -1.2 -9.16149 -4.35075e+06 -398381 -3.71692e+06 580287 -5059.72 -255098
215 3 O -3.74183 36.667 4.4844 -1.2 -9.00258 -4.18909e+06 -2.73218e+06 -2.69811e+06 -1.33455e+06 -299951 -271483
216 3 O 3.58014 36.9349 3.18632 -1.2 -8.70777 -3.20887e+06 -3.86159e+06 -1.06564e+06 -873356 269565 1.047e+06
217 1 Mg 1.90997 35.6175 0 1.2 -6.40898 3.59826e+06 2.43011e+06 -3.90741e+06 -1.67346e+06 -764329 936717
218 3 O 3.55582 36.9349 5.78248 -1.2 -8.66292 -3.23439e+06 -4.11751e+06 -1.46788e+06 -954937 82770.6 -1.46649e+06
219 1 Mg -0.93068 35.6588 1.4948 1.2 -9.08383 -312641 2.67997e+06 4.40596e+06 1.84935e+06 -295413 226716
220 2 Si 0.881882 33.5939 1.4948 2.4 -34.5737 1.12548e+07 9.59922e+06 1.06714e+07 1.39667e+06 1.66778e+06 2.53694e+06
221 3 O 0.859602 31.9807 1.4948 -1.2 -6.92105 -6.81766e+06 -469195 -1.52272e+07 1.15764e+06 -8.48985e+06 2.30983e+06
222 3 O 7.507 34.568 1.4948 -1.2 -9.29113 -4.91545e+06 -922847 -1.4571e+06 -935654 -430879 889451
223 3 O 0.210186 34.3001 0.196716 -1.2 -5.98158 -4.58551e+06 -1.39952e+07 -9.50731e+06 1.54408e+06 -7.95465e+06 -799176
224 3 O 0.184454 34.3001 2.79288 -1.2 -8.50882 -2.55355e+06 -4.0694e+06 -2.09825e+06 -829651 -231218 788053
225 1 Mg 7.07415 37.992 0 1.2 -6.43853 3.03186e+06 2.41622e+06 -3.66461e+06 1.89e+06 -444266 -1.11429e+06
226 1 Mg 4.36817 42.6997 1.4948 1.2 -8.98736 -1.06469e+06 3.02275e+06 3.88859e+06 -995382 116885 187976
227 2 Si 6.16058 40.0155 1.4948 2.4 -34.0105 1.19152e+07 8.76131e+06 1.00469e+07 -347555 1.27709e+06 -1.27026e+06
228 3 O 6.22815 41.6288 1.4948 -1.2 -8.48878 -6.3226e+06 -500400 -6.62038e+06 18898.8 -4.50487e+06 -1.76704e+06
229 3 O 2.53282 39.0415 1.4948 -1.2 -9.29696 -4.51024e+06 -1.18955e+06 -1.72328e+06 1.72358e+06 -357721 -1.08875e+06
230 3 O 5.44674 39.3094 0.196716 -1.2 -6.91608 -4.80321e+06 -1.09457e+07 -5.553e+06 -157771 -5.74804e+06 1.65272e+06
231 1 Mg 7.04922 37.992 2.9896 1.2 -8.20581 5.05984e+06 -1.48089e+06 -836661 1.30211e+06 -1.48162e+06 2.14215e+06
232 3 O 5.42658 39.3094 2.79288 -1.2 -8.59233 -2.57458e+06 -3.96846e+06 -1.86906e+06 1.11965e+06 -264796 -1.41364e+06
233 1 Mg -0.333062 38.0333 4.4844 1.2 -9.009 -573364 2.73847e+06 3.05901e+06 -448873 -61619.2 234821
234 2 Si -2.12255 40.7174 4.4844 2.4 -33.3476 1.21288e+07 9.295e+06 8.18177e+06 147796 -84403.1 566103
235 3 O -2.19212 39.1042 4.4844 -1.2 -9.18713 -4.40023e+06 -382624 -3.48404e+06 436414 -62705.4 -263023
236 3 O 1.50676 41.6915 4.4844 -1.2 -9.03093 -3.78192e+06 -2.94922e+06 -2.9041e+06 2.36216e+06 -207899 -175187
237 3 O -1.3884 41.4236 3.18632 -1.2 -8.75024 -3.00465e+06 -3.78637e+06 -1.12877e+06 1.14268e+06 116802 -1.69903e+06
238 3 O -1.40713 41.4236 5.78248 -1.2 -8.73924 -3.08025e+06 -3.85604e+06 -1.40707e+06 1.17529e+06 -79516.1 1.04521e+06
239 1 Mg 2.01892 40.3665 2.9896 1.2 -8.20338 4.93406e+06 -1.34315e+06 -870538 -1.11103e+06 -1.5782e+06 -1.32968e+06
240 1 Mg 4.83434 40.3252 4.4844 1.2 -8.95451 -307889 2.66011e+06 2.92579e+06 1.27156e+06 -163122 267210
241 2 Si 3.02698 42.39 4.4844 2.4 -33.2653 1.19341e+07 9.43504e+06 8.05886e+06 694008 -215179 299224
242 3 O 3.05433 44.0033 4.4844 -1.2 -9.31304 -4.23529e+06 -506115 -3.48716e+06 654460 74742.6 -145290
243 3 O -3.60077 41.416 4.4844 -1.2 -9.0954 -4.03538e+06 -2.74464e+06 -2.69302e+06 -1.36844e+06 -236100 -275659
244 3 O 3.71851 41.6839 3.18632 -1.2 -8.79537 -3.02293e+06 -3.92496e+06 -1.1558e+06 -842157 256691 1.04058e+06
245 1 Mg 2.04077 40.3665 0 1.2 -6.4111 2.47965e+06 2.30692e+06 -4.08336e+06 -1.84744e+06 474160 1.73305e+06
246 3 O 3.70011 41.6839 5.78248 -1.2 -8.73443 -3.14059e+06 -3.96766e+06 -1.61647e+06 -881454 -70865.4 -1.32657e+06
247 1 Mg -0.796865 40.4078 1.4948 1.2 -9.01697 -717155 2.89067e+06 4.10104e+06 1.7458e+06 47646.5 237703
248 2 Si 1.01387 38.3429 1.4948 2.4 -34.1823 1.16145e+07 9.08262e+06 1.02367e+07 1.5114e+06 1.50095e+06 2.33711e+06
249 3 O 0.989947 36.7297 1.4948 -1.2 -7.78212 -6.94954e+06 -465542 -1.02213e+07 1.04788e+06 -6.65182e+06 1.77585e+06
250 3 O 7.63988 39.317 1.4948 -1.2 -9.34636 -4.63823e+06 -1.09259e+06 -1.6499e+06 -936738 -246672 882409
251 3 O 0.340253 39.0491 0.196716 -1.2 -6.91061 -4.81566e+06 -1.18646e+07 -5.58491e+06 395788 -5.8821e+06 -1.67679e+06
252 3 O 0.319795 39.0491 2.79288 -1.2 -8.62443 -2.50492e+06 -4.13551e+06 -1.93482e+06 -841464 -228667 704291
253 1 Mg 7.20667 42.741 0 1.2 -6.42243 2.06282e+06 2.33874e+06 -4.10764e+06 1.99723e+06 876353 -1.92349e+06
254 1 Mg 4.50613 47.4487 1.4948 1.2 -8.89008 -1.17415e+06 3.25111e+06 3.41065e+06 -852440 432004 327216
255 2 Si 6.29731 44.7645 1.4948 2.4 -33.6574 1.19893e+07 8.49305e+06 9.65242e+06 -221690 932470 -1.01702e+06
256 3 O 6.36567 46.3778 1.4948 -1.2 -8.98166 -5.3913e+06 -642809 -4.51903e+06 182586 -2.7233e+06 -1.59202e+06
257 3 O 2.669 43.7905 1.4948 -1.2 -9.34122 -4.26462e+06 -1.4814e+06 -1.87613e+06 1.73002e+06 -199542 -1.10605e+06
258 3 O 5.58048 44.0584 0.196716 -1.2 -7.71642 -4.60385e+06 -8.43131e+06 -3.01993e+06 319419 -3.70006e+06 2.1855e+06
259 1 Mg 7.1879 42.741 2.9896 1.2 -8.10358 4.86286e+06 -1.37098e+06 -900023 1.3144e+06 -1.55296e+06 2.1185e+06
260 3 O 5.56564 44.0584 2.79288 -1.2 -8.72502 -2.55323e+06 -4.05123e+06 -1.62018e+06 1.11714e+06 -306535 -1.35881e+06
261 1 Mg -0.19105 42.7823 4.4844 1.2 -8.91299 -834527 2.81159e+06 3.09118e+06 -453960 -93392.6 287412
262 2 Si -1.97909 45.4664 4.4844 2.4 -33.1443 1.14168e+07 9.67619e+06 8.1911e+06 156876 169869 410556
263 3 O -2.04947 43.8532 4.4844 -1.2 -9.2858 -4.08278e+06 -480933 -3.54256e+06 391035 -129090 -225596
264 3 O 1.65063 46.4405 4.4844 -1.2 -9.16566 -3.58471e+06 -3.13625e+06 -2.70343e+06 2.3062e+06 9983.18 -177798
265 3 O -1.24745 46.1726 3.18632 -1.2 -8.82554 -2.71084e+06 -3.98852e+06 -1.20344e+06 1.14221e+06 66868.1 -1.67594e+06
266 3 O -1.26044 46.1726 5.78248 -1.2 -8.82041 -2.55883e+06 -4.11376e+06 -1.4823e+06 1.22942e+06 -142103 1.23099e+06
267 1 Mg 2.15896 45.1155 2.9896 1.2 -8.09217 4.7651e+06 -1.15995e+06 -1.04719e+06 -1.09133e+06 -1.75425e+06 -1.33317e+06
268 1 Mg 4.97763 45.0742 4.4844 1.2 -8.77955 -414634 2.84601e+06 2.56519e+06 1.2642e+06 -42370.5 147612
269 2 Si 3.1711 47.139 4.4844 2.4 -32.9709 1.16087e+07 9.84649e+06 7.49985e+06 798597 -371837 490303