ITEM: TIMESTEP
47300
ITEM: NUMBER OF ATOMS
10500
ITEM: BOX BOUNDS xy xz yz pp pp pp
0.0000000000000000e+00 1.5297749999999999e+01 5.0992499999999996e+00
0.0000000000000000e+00 1.1872499999999999e+02 0.0000000000000000e+00
0.0000000000000000e+00 8.9688000000000002e+01 0.0000000000000000e+00
ITEM: ATOMS id type element xu yu zu q c_pe c_s[1] c_s[2] c_s[3] c_s[4] c_s[5] c_s[6]
1 1 Mg 6.2404 -6.37941e-06 0 1.2 -4.34866 7.71398e+06 -1.5623e+06 -6.44608e+06 -31665.1 2.65371e+06 -364284
2 1 Mg 3.46349 4.70768 1.4948 1.2 -8.45642 -401541 3.02762e+06 4.01869e+06 -938293 -657523 11743.9
3 2 Si 5.2885 2.02354 1.4948 2.4 -35.1079 9.70357e+06 1.16074e+07 1.07305e+07 8.83865e+06 688125 -3.4087e+06
4 3 O 5.33628 3.63678 1.4948 -1.2 -4.77143 -715130 -1.78346e+06 -3.33551e+07 -329779 3.82226e+06 -3.75702e+06
5 3 O 1.67294 1.04952 1.4948 -1.2 -1.13972 -2.01997e+07 -7.96711e+07 -1.79826e+06 -2.41303e+07 -102364 68623.3
6 3 O 4.59532 1.31737 0.196716 -1.2 -3.09744 -1.78204e+06 -6.98056e+06 -3.02528e+07 -6.0192e+06 6.25087e+06 -2.49714e+06
7 1 Mg 6.18956 -6.37941e-06 2.9896 1.2 -4.83894 1.36307e+06 -2.79037e+07 -3.24193e+06 -8.86778e+06 2.47272e+06 3.80203e+06
8 3 O 4.55118 1.31737 2.79288 -1.2 -7.58654 295958 -5.00797e+06 -2.87365e+06 -2.93105e+06 -3.39511e+06 -925466
9 1 Mg -1.20682 0.0413099 4.4844 1.2 9.01325 -3.09103e+07 -9.31083e+07 -527547 -2.8424e+07 -1.26004e+06 -117977
10 2 Si -3.0337 2.72544 4.4844 2.4 -32.9332 1.41964e+07 7.61917e+06 7.32264e+06 1.62943e+06 108799 -1.11908e+06
11 3 O -3.08099 1.11221 4.4844 -1.2 -9.69827 -6.02775e+06 -244692 -1.89733e+06 -1.20847e+06 -215417 553948
12 3 O 0.582463 3.69946 4.4844 -1.2 -9.02559 -3.08932e+06 -5.82621e+06 -2.60195e+06 -583413 -213225 60893.4
13 3 O -2.29524 3.43162 3.18632 -1.2 -9.13109 -4.14988e+06 -2.85428e+06 -203292 1.08239e+06 -860571 -779172
14 3 O -2.34216 3.43162 5.78248 -1.2 -8.97942 -3.86765e+06 -3.47013e+06 -1.21654e+06 736831 487241 1.57418e+06
15 1 Mg 1.12778 2.37449 2.9896 1.2 -7.53012 5.0457e+06 -1.33939e+06 -961204 -3.27089e+06 -4.1884e+06 -2.40481e+06
16 1 Mg 3.92855 2.33318 4.4844 1.2 -8.39305 -4.31942e+06 5.22791e+06 4.56563e+06 1.34225e+06 254781 285456
17 2 Si 2.09341 4.39804 4.4844 2.4 -32.2938 1.16353e+07 7.55543e+06 8.47021e+06 187032 -289440 298399
18 3 O 2.09991 6.01128 4.4844 -1.2 -9.49242 -3.86907e+06 -368601 -3.7217e+06 543764 -142061 -50934.3
19 3 O -4.52137 3.42402 4.4844 -1.2 -9.265 -2.81228e+06 -3.23027e+06 -3.20822e+06 -2.39596e+06 -796316 266736
20 3 O 2.80834 3.69187 3.18632 -1.2 -9.38242 -1.98357e+06 -3.15972e+06 -149029 467787 -456113 -362642
21 1 Mg 1.17857 2.37449 0 1.2 -5.0645 -679856 -1.45428e+07 -6.74566e+06 6.52098e+06 1.16585e+06 4.43334e+06
22 3 O 2.76143 3.69187 5.78248 -1.2 -9.40637 -2.53861e+06 -2.83711e+06 -918553 555755 43649.5 141260
23 1 Mg -1.67381 2.41581 1.4948 1.2 -7.50818 1.47241e+06 87747.3 3.73588e+06 1.36341e+06 -558145 853882
24 2 Si 0.16286 0.350945 1.4948 2.4 -24.3565 -8.45452e+06 1.29945e+07 1.07815e+07 1.62468e+06 2.81687e+06 850046
25 3 O 0.15972 -1.26229 1.4948 -1.2 -4.88346 -1.0522e+07 -8.27906e+06 -2.86602e+07 -5.62569e+06 -8.512e+06 -2.45536e+06
26 3 O 6.77654 1.32496 1.4948 -1.2 -10.4379 -5.5939e+06 1.46695e+06 -1.09394e+06 -638053 -667879 1.25686e+06
27 3 O -0.508028 1.05712 0.196716 -1.2 -9.61398 183982 -4.95685e+06 -355728 -561424 190983 -4.38313e+06
28 3 O -0.552171 1.05712 2.79288 -1.2 -6.89181 -5.19997e+06 -4.887e+06 -2.43574e+07 1.39045e+06 -6.79184e+06 -5.32758e+06
29 1 Mg 6.31713 4.74899 0 1.2 -4.92555 322835 -1.26045e+07 -6.37902e+06 -7.30292e+06 1.46475e+06 -3.68175e+06
30 1 Mg 3.54847 9.45668 1.4948 1.2 -8.42695 404706 1.89223e+06 4.27924e+06 -954095 -941092 -240119
31 2 Si 5.36879 6.77254 1.4948 2.4 -34.3452 7.3562e+06 1.26284e+07 1.09906e+07 1.67549e+06 140335 -1.8949e+06
32 3 O 5.41937 8.38578 1.4948 -1.2 -4.69314 -426437 -1.15889e+06 -3.49984e+07 761409 1.10691e+06 -4.30362e+06
33 3 O 1.75158 5.79852 1.4948 -1.2 -9.49841 -3.98319e+06 -2.67214e+06 -1.13963e+06 1.97215e+06 -1.5717e+06 -1.32375e+06
34 3 O 4.67421 6.06637 0.196716 -1.2 -3.75536 164913 -1.04068e+07 -3.1221e+07 -2.01069e+06 1.3122e+06 -4.42894e+06
35 1 Mg 6.26654 4.74899 2.9896 1.2 -7.98371 4.08582e+06 -1.31324e+06 -410997 1.80457e+06 -852463 1.8446e+06
36 3 O 4.63043 6.06637 2.79288 -1.2 -8.85287 -1.60592e+06 -4.29918e+06 -1.87007e+06 926739 -77032.8 -1.45186e+06
37 1 Mg -1.12976 4.79031 4.4844 1.2 -8.73277 -651034 3.13371e+06 2.37668e+06 -702522 -338187 -231696
38 2 Si -2.9517 7.47444 4.4844 2.4 -32.896 1.14606e+07 9.4134e+06 7.98727e+06 52548.3 -44363.6 98872.9
39 3 O -3.00198 5.86121 4.4844 -1.2 -9.49001 -4.01603e+06 -516213 -3.27873e+06 61266.2 -229871 43701
40 3 O 0.666315 8.44846 4.4844 -1.2 -9.18731 -3.46381e+06 -2.8926e+06 -3.0064e+06 2.14903e+06 -505794 -16061.2
41 3 O -2.21213 8.18062 3.18632 -1.2 -9.034 -3.06627e+06 -3.6106e+06 -391907 1.11198e+06 -313464 -1.51438e+06
42 3 O -2.25864 8.18062 5.78248 -1.2 -8.93007 -3.07109e+06 -3.89289e+06 -1.42385e+06 1.04133e+06 50434.5 1.25328e+06
43 1 Mg 1.20893 7.12349 2.9896 1.2 -8.03147 4.14287e+06 -1.31768e+06 -407897 -1.2916e+06 -1.32745e+06 -1.65644e+06
44 1 Mg 4.00982 7.08218 4.4844 1.2 -8.68781 -813969 2.85e+06 2.80252e+06 1.05107e+06 -315882 115539
45 2 Si 2.17861 9.14704 4.4844 2.4 -33.0582 1.1413e+07 9.41832e+06 8.25846e+06 606362 -99315 225927
46 3 O 2.18828 10.7603 4.4844 -1.2 -9.29277 -4.13182e+06 -316283 -3.80596e+06 408584 -196160 -110229
47 3 O -4.43805 8.17302 4.4844 -1.2 -9.24869 -3.47975e+06 -2.85371e+06 -2.89187e+06 -1.55382e+06 -507689 -112792
48 3 O 2.89193 8.44087 3.18632 -1.2 -9.03069 -2.88297e+06 -3.81517e+06 -529902 -932100 -206090 1.20628e+06
49 1 Mg 1.25915 7.12349 0 1.2 -5.34492 1.04257e+06 -7.34977e+06 -6.57557e+06 5.8882e+06 1.34358e+06 2.61731e+06
50 3 O 2.84547 8.44087 5.78248 -1.2 -8.90431 -2.93033e+06 -4.1835e+06 -1.46975e+06 -890671 -48762.8 -1.18789e+06
51 1 Mg -1.59284 7.16481 1.4948 1.2 -8.28007 897391 1.61681e+06 4.02572e+06 1.45665e+06 -890160 362139
52 2 Si 0.240329 5.09994 1.4948 2.4 -34.0275 8.26708e+06 1.15539e+07 1.06457e+07 -1.96437e+06 -1.04745e+06 1.8334e+06
53 3 O 0.234538 3.48671 1.4948 -1.2 -5.27582 -1.71326e+06 92293 -3.34614e+07 395580 5.17819e+06 4.08021e+06
54 3 O 6.85564 6.07396 1.4948 -1.2 -9.57719 -4.43233e+06 -2.11467e+06 -1.08284e+06 -1.3471e+06 -1.85324e+06 1.17354e+06
55 3 O -0.429565 5.80612 0.196716 -1.2 -4.02314 -721877 -9.03833e+06 -3.12304e+07 1.85309e+06 1.18132e+06 4.59312e+06
56 3 O -0.473377 5.80612 2.79288 -1.2 -8.94587 -2.14511e+06 -3.87389e+06 -1.70775e+06 -774227 273921 1.34318e+06
57 1 Mg 6.40169 9.49799 0 1.2 -5.36365 1.68548e+06 -6.30519e+06 -6.72209e+06 -5.47985e+06 1.01555e+06 -2.3902e+06
58 1 Mg 3.64209 14.2057 1.4948 1.2 -8.61946 519889 1.73729e+06 4.58657e+06 -1.03278e+06 -977423 -222787
59 2 Si 5.45748 11.5215 1.4948 2.4 -34.565 8.02071e+06 1.17824e+07 1.15003e+07 899297 317217 -2.00915e+06
60 3 O 5.51101 13.1348 1.4948 -1.2 -4.60289 -806282 -842158 -3.49001e+07 465150 -2.51512e+06 -4.40436e+06
61 3 O 1.83851 10.5475 1.4948 -1.2 -9.45205 -4.41162e+06 -1.95933e+06 -1.2264e+06 1.53762e+06 -1.57828e+06 -1.15848e+06
62 3 O 4.7611 10.8154 0.196716 -1.2 -3.50184 398441 -1.15282e+07 -3.19624e+07 -2.47652e+06 -1.7514e+06 -4.36136e+06
63 1 Mg 6.35203 9.49799 2.9896 1.2 -8.07194 4.28122e+06 -1.45601e+06 -324558 1.30943e+06 -1.18335e+06 2.08233e+06
64 3 O 4.71833 10.8154 2.79288 -1.2 -8.73267 -2.04602e+06 -3.86494e+06 -2.06662e+06 1.04894e+06 43857.7 -1.40011e+06
65 1 Mg -1.0438 9.53931 4.4844 1.2 -8.78768 -630723 2.63271e+06 2.90855e+06 -585331 -292178 39509.2
66 2 Si -2.8604 12.2234 4.4844 2.4 -33.232 1.2002e+07 8.90019e+06 8.49658e+06 -144062 -192742 107060
67 3 O -2.91391 10.6102 4.4844 -1.2 -9.32516 -4.17781e+06 -258307 -3.65565e+06 262348 -171113 -95752.1
68 3 O 0.7596 13.1975 4.4844 -1.2 -9.03519 -3.72651e+06 -2.67234e+06 -3.21393e+06 2.12382e+06 -588889 28898.7
69 3 O -2.12001 12.9296 3.18632 -1.2 -8.88043 -3.24884e+06 -3.43744e+06 -635700 1.17004e+06 -199963 -1.54641e+06
70 3 O -2.16532 12.9296 5.78248 -1.2 -8.77186 -3.42459e+06 -3.66185e+06 -1.52477e+06 1.18811e+06 55751 1.36368e+06
71 1 Mg 1.29891 11.8725 2.9896 1.2 -8.1697 4.44105e+06 -1.52169e+06 -283788 -1.16502e+06 -1.18862e+06 -1.63473e+06
72 1 Mg 4.10033 11.8312 4.4844 1.2 -8.87672 -454877 2.56022e+06 3.03883e+06 1.13466e+06 -325086 186741
73 2 Si 2.27333 13.896 4.4844 2.4 -33.3584 1.1919e+07 8.94206e+06 8.70473e+06 713715 63947.7 90511.6
74 3 O 2.28634 15.5093 4.4844 -1.2 -9.16778 -4.33585e+06 -171703 -3.94815e+06 469440 -257245 -35924.3
75 3 O -4.34533 12.922 4.4844 -1.2 -9.07484 -3.76227e+06 -2.57759e+06 -3.16785e+06 -1.44189e+06 -413497 -136434
76 3 O 2.98455 13.1899 3.18632 -1.2 -8.88255 -3.15903e+06 -3.55565e+06 -773862 -968443 -169998 1.24417e+06
77 1 Mg 1.34779 11.8725 0 1.2 -5.66253 3.05548e+06 -2.83929e+06 -6.69171e+06 3.55278e+06 806940 1.65446e+06
78 3 O 2.93934 13.1899 5.78248 -1.2 -8.6984 -3.21925e+06 -3.84426e+06 -1.83936e+06 -973456 -162645 -1.21995e+06
79 1 Mg -1.50344 11.9138 1.4948 1.2 -8.49544 781070 1.73057e+06 4.35706e+06 1.55812e+06 -936465 458517
80 2 Si 0.326006 9.84894 1.4948 2.4 -34.4377 7.97523e+06 1.19728e+07 1.11238e+07 -612548 127670 2.398e+06
81 3 O 0.317364 8.23571 1.4948 -1.2 -4.70137 -569333 -1.02466e+06 -3.51061e+07 -118791 1.17224e+06 4.13824e+06
82 3 O 6.94307 10.823 1.4948 -1.2 -9.48425 -4.57202e+06 -1.76366e+06 -1.16917e+06 -982872 -1.53006e+06 986928
83 3 O -0.343122 10.5551 0.196716 -1.2 -3.61143 73517.1 -1.09915e+07 -3.19634e+07 2.46985e+06 -2.05958e+06 4.45756e+06
84 3 O -0.385966 10.5551 2.79288 -1.2 -8.77838 -2.11418e+06 -3.90928e+06 -2.0266e+06 -857044 72962.5 1.06079e+06
85 1 Mg 6.49448 14.247 0 1.2 -5.70374 3.60003e+06 -2.11206e+06 -6.71256e+06 -2.95846e+06 231214 -1.43386e+06
86 1 Mg 3.74457 18.9547 1.4948 1.2 -8.84989 580651 1.6853e+06 4.86975e+06 -1.12489e+06 -997245 -169322
87 2 Si 5.55495 16.2705 1.4948 2.4 -34.8204 8.73349e+06 1.11669e+07 1.18309e+07 534242 727046 -2.1083e+06
88 3 O 5.6115 17.8838 1.4948 -1.2 -4.77427 -2.075e+06 -591402 -3.23759e+07 71015.6 -6.02513e+06 -4.23691e+06
89 3 O 1.93416 15.2965 1.4948 -1.2 -9.3538 -4.70677e+06 -1.46831e+06 -1.33014e+06 1.54034e+06 -1.39847e+06 -1.11968e+06
90 3 O 4.85636 15.5644 0.196716 -1.2 -3.38605 174147 -1.30567e+07 -3.05626e+07 -3.03686e+06 -5.09263e+06 -3.83986e+06
91 1 Mg 6.44662 14.247 2.9896 1.2 -8.20209 4.58014e+06 -1.67535e+06 -196593 1.28648e+06 -1.24295e+06 2.05805e+06
92 3 O 4.81537 15.5644 2.79288 -1.2 -8.58096 -2.24617e+06 -3.70876e+06 -2.29677e+06 1.07191e+06 10105.9 -1.34588e+06
93 1 Mg -0.948271 14.2883 4.4844 1.2 -8.91289 -398540 2.47908e+06 3.02124e+06 -560502 -276445 -23434.6
94 2 Si -2.75928 16.9724 4.4844 2.4 -33.4729 1.24715e+07 8.65748e+06 8.65944e+06 96157.1 -270065 99220.6
95 3 O -2.81617 15.3592 4.4844 -1.2 -9.19834 -4.41206e+06 -97610 -3.78107e+06 267615 -44726 -49043.7
96 3 O 0.862762 17.9465 4.4844 -1.2 -8.88554 -3.94057e+06 -2.58857e+06 -3.31552e+06 2.22695e+06 -578480 -98203.5
97 3 O -2.0185 17.6786 3.18632 -1.2 -8.72596 -3.46241e+06 -3.31861e+06 -803847 1.12894e+06 -142153 -1.61946e+06
98 3 O -2.06164 17.6786 5.78248 -1.2 -8.66741 -3.55886e+06 -3.56528e+06 -1.69366e+06 947236 29623.3 1.34687e+06
99 1 Mg 1.39817 16.6215 2.9896 1.2 -8.29717 4.74709e+06 -1.65867e+06 -250796 -1.18247e+06 -1.17167e+06 -1.57264e+06
100 1 Mg 4.20062 16.5802 4.4844 1.2 -9.00566 -295410 2.42789e+06 3.21916e+06 1.11726e+06 -309961 114422
101 2 Si 2.37796 18.645 4.4844 2.4 -33.6805 1.24606e+07 8.57385e+06 9.05237e+06 539902 -12357.2 252542
102 3 O 2.39434 20.2583 4.4844 -1.2 -8.96999 -4.70628e+06 143702 -4.20572e+06 598542 -107215 -77457.9
103 3 O -4.24274 17.671 4.4844 -1.2 -8.95965 -4.03683e+06 -2.43304e+06 -3.21064e+06 -1.45122e+06 -368340 -77243
104 3 O 3.08659 17.9389 3.18632 -1.2 -8.72971 -3.39404e+06 -3.40398e+06 -971471 -911088 -67919.9 1.20837e+06
105 1 Mg 1.44478 16.6215 0 1.2 -5.9134 4.94504e+06 -4699.66 -6.57128e+06 1.39341e+06 -31050 1.00236e+06
106 3 O 3.0436 17.9389 5.78248 -1.2 -8.57655 -3.30828e+06 -3.71203e+06 -2.09628e+06 -842154 -225753 -1.26521e+06
107 1 Mg -1.40524 16.6628 1.4948 1.2 -8.71253 816568 1.72863e+06 4.6237e+06 1.69653e+06 -955681 466386
108 2 Si 0.420358 14.5979 1.4948 2.4 -34.7108 8.50572e+06 1.14632e+07 1.15247e+07 -140194 627875 2.6296e+06
109 3 O 0.408732 12.9847 1.4948 -1.2 -4.60019 -859911 -832335 -3.49949e+07 227763 -2.58648e+06 4.19775e+06
110 3 O 7.03923 15.572 1.4948 -1.2 -9.38328 -4.84351e+06 -1.30324e+06 -1.27872e+06 -951755 -1.28298e+06 937449
111 3 O -0.248332 15.3041 0.196716 -1.2 -3.49852 -159096 -1.25888e+07 -3.05697e+07 3.25861e+06 -5.44887e+06 3.89831e+06
112 3 O -0.289436 15.3041 2.79288 -1.2 -8.63343 -2.2992e+06 -3.82726e+06 -2.19915e+06 -855360 6632.85 1.01843e+06
113 1 Mg 6.59566 18.996 0 1.2 -5.98323 5.24327e+06 339522 -6.31638e+06 -913255 -681463 -802795
114 1 Mg 3.85574 23.7037 1.4948 1.2 -9.08233 585519 1.63231e+06 5.15048e+06 -1.1825e+06 -944191 -233389
115 2 Si 5.66125 21.0195 1.4948 2.4 -35.0646 9.7666e+06 1.02656e+07 1.21523e+07 212252 1.22415e+06 -2.19177e+06
116 3 O 5.72074 22.6328 1.4948 -1.2 -5.21761 -4.03532e+06 -228044 -2.77277e+07 -227057 -8.52814e+06 -3.70161e+06
117 3 O 2.03867 20.0455 1.4948 -1.2 -9.21739 -4.98139e+06 -978801 -1.56026e+06 1.58825e+06 -1.13442e+06 -1.07375e+06
118 3 O 4.96004 20.3134 0.196716 -1.2 -3.55118 -817153 -1.42714e+07 -2.69049e+07 -3.18314e+06 -7.92038e+06 -2.82989e+06
119 1 Mg 6.55057 18.996 2.9896 1.2 -8.34161 4.95577e+06 -1.87486e+06 -148576 1.34253e+06 -1.21982e+06 2.09876e+06
120 3 O 4.92172 20.3134 2.79288 -1.2 -8.41089 -2.57918e+06 -3.47858e+06 -2.50006e+06 1.05874e+06 -57096.6 -1.33118e+06
121 1 Mg -0.84282 19.0373 4.4844 1.2 -9.11329 -271022 2.36252e+06 3.3269e+06 -511725 -205581 201413
122 2 Si -2.64823 21.7214 4.4844 2.4 -33.9658 1.30357e+07 7.93369e+06 9.62085e+06 120853 149065 344700
123 3 O -2.70847 20.1082 4.4844 -1.2 -9.0098 -4.72242e+06 110257 -3.94947e+06 226116 -209575 -230086
124 3 O 0.97581 22.6955 4.4844 -1.2 -8.65071 -4.22914e+06 -2.2161e+06 -3.78694e+06 2.25436e+06 -341984 38553.3
125 3 O -1.9076 22.4276 3.18632 -1.2 -8.51056 -3.65428e+06 -2.99378e+06 -1.3167e+06 1.16208e+06 -124791 -1.56612e+06
126 3 O -1.9475 22.4276 5.78248 -1.2 -8.23423 -3.74735e+06 -3.13105e+06 -2.72822e+06 1.16786e+06 -68497.6 1.19617e+06
127 1 Mg 1.50678 21.3705 2.9896 1.2 -8.47278 5.11521e+06 -1.9761e+06 -20006.2 -1.20152e+06 -1.30506e+06 -1.56684e+06
128 1 Mg 4.31086 21.3292 4.4844 1.2 -9.17671 200447 2.0644e+06 3.36378e+06 1.21215e+06 -318828 35600.3
129 2 Si 2.49243 23.394 4.4844 2.4 -34.0015 1.32517e+07 7.96124e+06 9.37997e+06 717263 -470368 -70593.2
130 3 O 2.51204 25.0073 4.4844 -1.2 -8.85032 -4.9846e+06 347221 -4.34297e+06 466258 26814.5 40991.8
131 3 O -4.13026 22.42 4.4844 -1.2 -8.76558 -4.48571e+06 -2.04871e+06 -3.45811e+06 -1.47887e+06 -609114 -83552.5
132 3 O 3.19799 22.6879 3.18632 -1.2 -8.55871 -3.745e+06 -3.12462e+06 -1.23447e+06 -916950 94047.9 1.30677e+06
133 1 Mg 1.5501 21.3705 0 1.2 -6.13954 6.07689e+06 1.31894e+06 -5.88646e+06 -70824.5 -986698 510200
134 3 O 3.1583 22.6879 5.78248 -1.2 -8.43791 -3.96617e+06 -3.33515e+06 -1.95965e+06 -836007 101026 -1.10454e+06
135 1 Mg -1.29822 21.4118 1.4948 1.2 -8.96597 812219 1.64181e+06 5.01653e+06 1.80606e+06 -915686 372571
136 2 Si 0.523568 19.3469 1.4948 2.4 -34.9892 9.30538e+06 1.07216e+07 1.19408e+07 283966 1.02671e+06 2.82519e+06
137 3 O 0.508934 17.7337 1.4948 -1.2 -4.76941 -2.10702e+06 -596484 -3.24813e+07 675627 -6.11187e+06 3.95569e+06
138 3 O 7.14425 20.321 1.4948 -1.2 -9.24914 -5.12549e+06 -826722 -1.49613e+06 -954258 -1.09076e+06 905715
139 3 O -0.145107 20.0531 0.196716 -1.2 -3.66304 -1.16903e+06 -1.3952e+07 -2.68968e+07 3.67895e+06 -8.2206e+06 2.96695e+06
140 3 O -0.183601 20.0531 2.79288 -1.2 -8.4408 -2.50463e+06 -3.62557e+06 -2.54792e+06 -823375 -36461.6 900079
141 1 Mg 6.70502 23.745 0 1.2 -6.23009 5.99543e+06 1.43684e+06 -5.38658e+06 413041 -1.477e+06 -614068
142 1 Mg 3.97493 28.4527 1.4948 1.2 -9.28609 420264 1.51758e+06 5.52424e+06 -1.22053e+06 -791700 -272674
143 2 Si 5.77602 25.7685 1.4948 2.4 -35.2066 1.08212e+07 9.2384e+06 1.24399e+07 -132569 1.57394e+06 -2.4845e+06
144 3 O 5.83821 27.3818 1.4948 -1.2 -5.88842 -5.95179e+06 174571 -2.19042e+07 -328793 -9.30009e+06 -2.9403e+06
145 3 O 2.15175 24.7945 1.4948 -1.2 -9.09036 -5.19879e+06 -556696 -1.83536e+06 1.60558e+06 -884435 -859974
146 3 O 5.07184 25.0624 0.196716 -1.2 -4.03529 -2.31415e+06 -1.47374e+07 -2.15455e+07 -2.78746e+06 -9.41503e+06 -1.35945e+06
147 1 Mg 6.66374 23.745 2.9896 1.2 -8.49548 5.28359e+06 -2.17666e+06 74825.4 1.31047e+06 -1.14746e+06 1.94553e+06
148 3 O 5.03707 25.0624 2.79288 -1.2 -8.26903 -2.85045e+06 -3.268e+06 -2.71076e+06 1.09704e+06 -176392 -1.18972e+06
149 1 Mg -0.727559 23.7863 4.4844 1.2 -9.34586 -115122 2.00161e+06 3.89535e+06 -514158 -274828 -83251.6
150 2 Si -2.5277 26.4704 4.4844 2.4 -34.1706 1.32598e+07 7.70343e+06 9.9493e+06 -131442 -56571.9 -134515
151 3 O -2.59107 24.8572 4.4844 -1.2 -8.82481 -4.82828e+06 359490 -4.39779e+06 416356 -236160 71986.5
152 3 O 1.09817 27.4445 4.4844 -1.2 -8.58819 -4.4558e+06 -2.05726e+06 -3.8324e+06 2.18184e+06 -410662 107688
153 3 O -1.78784 27.1766 3.18632 -1.2 -8.39406 -3.80751e+06 -2.8172e+06 -1.59045e+06 1.18978e+06 10757.3 -1.39963e+06
154 3 O -1.82343 27.1766 5.78248 -1.2 -8.26916 -3.85291e+06 -3.14383e+06 -2.37683e+06 1.24289e+06 71117.3 1.47278e+06
155 1 Mg 1.62435 26.1195 2.9896 1.2 -8.57885 5.41546e+06 -2.19465e+06 71178.4 -1.11741e+06 -1.35785e+06 -1.69281e+06
156 1 Mg 4.43064 26.0782 4.4844 1.2 -9.28646 400810 1.88554e+06 3.51695e+06 1.21523e+06 -227045 100842
157 2 Si 2.61607 28.143 4.4844 2.4 -34.1971 1.35248e+07 7.45353e+06 9.93211e+06 873878 -143731 12228.7
158 3 O 2.63853 29.7563 4.4844 -1.2 -8.75531 -5.11697e+06 683609 -4.69335e+06 539087 -114339 23583.4
159 3 O -4.00841 27.169 4.4844 -1.2 -8.65534 -4.56568e+06 -1.89858e+06 -3.71954e+06 -1.28466e+06 -481031 -68038.5
160 3 O 3.3182 27.4369 3.18632 -1.2 -8.43299 -3.86905e+06 -2.9013e+06 -1.61223e+06 -930186 121278 1.33312e+06
161 1 Mg 1.66335 26.1195 0 1.2 -6.36011 6.16253e+06 1.71547e+06 -4.79593e+06 -889593 -1.59092e+06 90125.1
162 3 O 3.28288 27.4369 5.78248 -1.2 -8.31767 -4.02488e+06 -3.12252e+06 -2.32317e+06 -1.04815e+06 -68284.5 -1.30045e+06
163 1 Mg -1.18278 26.1608 1.4948 1.2 -9.18434 715806 1.59404e+06 5.31835e+06 1.87909e+06 -821083 66933.5
164 2 Si 0.635424 24.0959 1.4948 2.4 -35.1904 1.0305e+07 9.74992e+06 1.23028e+07 746143 1.32191e+06 2.47403e+06
165 3 O 0.617906 22.4827 1.4948 -1.2 -5.20608 -4.03704e+06 -221077 -2.78861e+07 1.02191e+06 -8.52084e+06 3.61091e+06
166 3 O 7.25781 25.07 1.4948 -1.2 -9.12051 -5.30851e+06 -407024 -1.81996e+06 -923313 -874476 1.10166e+06
167 3 O -0.0337363 24.8021 0.196716 -1.2 -4.13319 -2.63927e+06 -1.47033e+07 -2.15095e+07 3.50626e+06 -9.64962e+06 1.92454e+06
168 3 O -0.0687235 24.8021 2.79288 -1.2 -8.28816 -2.73334e+06 -3.40612e+06 -2.83907e+06 -837374 -48870 1.09835e+06
169 1 Mg 6.82195 28.494 0 1.2 -6.49332 5.75018e+06 1.56868e+06 -3.97191e+06 1.14764e+06 -1.82157e+06 -711699
170 1 Mg 4.10106 33.2017 1.4948 1.2 -9.37639 88818 1.56157e+06 5.61595e+06 -1.21673e+06 -552607 -252259
171 2 Si 5.89839 30.5175 1.4948 2.4 -35.2141 1.18092e+07 7.91501e+06 1.28704e+07 -336721 1.67302e+06 -2.45058e+06
172 3 O 5.96289 32.1308 1.4948 -1.2 -6.68832 -7.17465e+06 542756 -1.61124e+07 -288747 -8.4486e+06 -2.27745e+06
173 3 O 2.27266 29.5435 1.4948 -1.2 -8.98532 -5.30615e+06 -110459 -2.29412e+06 1.65171e+06 -703800 -749206
174 3 O 5.19102 29.8114 0.196716 -1.2 -4.75108 -3.85675e+06 -1.39212e+07 -1.587e+07 -1.93282e+06 -9.26533e+06 64409.9
175 1 Mg 6.78546 28.494 2.9896 1.2 -8.58441 5.48941e+06 -2.45051e+06 290786 1.28899e+06 -1.29307e+06 1.87376e+06
176 3 O 5.16061 29.8114 2.79288 -1.2 -8.17048 -2.98098e+06 -2.94416e+06 -3.09946e+06 1.11444e+06 -222306 -1.12071e+06
177 1 Mg -0.603205 28.5353 4.4844 1.2 -9.38225 92312.8 1.81208e+06 3.92761e+06 -470776 -244780 -39131.3
178 2 Si -2.39877 31.2194 4.4844 2.4 -34.2885 1.35943e+07 6.93955e+06 1.05706e+07 73918.3 -254522 -106573
179 3 O -2.46483 29.6062 4.4844 -1.2 -8.7599 -5.02198e+06 669535 -4.61574e+06 405723 -40726.5 1886.99
180 3 O 1.22864 32.1935 4.4844 -1.2 -8.5497 -4.56862e+06 -1.73982e+06 -4.09595e+06 2.26424e+06 -378424 123857
181 3 O -1.66032 31.9256 3.18632 -1.2 -8.33669 -3.86888e+06 -2.52902e+06 -1.98619e+06 1.146e+06 102368 -1.35959e+06
182 3 O -1.69072 31.9256 5.78248 -1.2 -8.22321 -4.07163e+06 -2.66763e+06 -2.55706e+06 1.16644e+06 83827 1.45761e+06
183 1 Mg 1.7499 30.8685 2.9896 1.2 -8.63481 5.60505e+06 -2.50977e+06 293029 -1.13402e+06 -1.38128e+06 -1.68562e+06
184 1 Mg 4.55894 30.8272 4.4844 1.2 -9.40279 393313 1.55246e+06 4.04724e+06 1.21712e+06 -149979 -11702.4
185 2 Si 2.7476 32.892 4.4844 2.4 -34.2508 1.35629e+07 6.9529e+06 1.04818e+07 682495 -138989 -230959
186 3 O 2.77235 34.5053 4.4844 -1.2 -8.79831 -4.98672e+06 766836 -4.83813e+06 644760 -12011.8 229399
187 3 O -3.87837 31.918 4.4844 -1.2 -8.59264 -4.64952e+06 -1.56134e+06 -4.07446e+06 -1.34071e+06 -364824 37701.1
188 3 O 3.44611 32.1859 3.18632 -1.2 -8.37389 -3.86125e+06 -2.66566e+06 -2.0413e+06 -863251 168635 1.40868e+06
189 1 Mg 1.7837 30.8685 0 1.2 -6.58976 5.37508e+06 1.50795e+06 -3.49376e+06 -1.35096e+06 -1.53843e+06 151479
190 3 O 3.41602 32.1859 5.78248 -1.2 -8.24225 -4.07374e+06 -2.8228e+06 -2.60096e+06 -858402 -168519 -1.1772e+06
191 1 Mg -1.05984 30.9098 1.4948 1.2 -9.34019 519353 1.47121e+06 5.58554e+06 1.91112e+06 -621607 -42567.5
192 2 Si 0.755243 28.8449 1.4948 2.4 -35.2519 1.1399e+07 8.51015e+06 1.26318e+07 1.15019e+06 1.59731e+06 2.14234e+06
193 3 O 0.735127 27.2317 1.4948 -1.2 -5.88476 -6.00378e+06 167298 -2.1988e+07 1.16553e+06 -9.31147e+06 3.19381e+06
194 3 O 7.37914 29.819 1.4948 -1.2 -9.02033 -5.40922e+06 28543.1 -2.28254e+06 -927853 -623252 1.18204e+06
195 3 O 0.0850649 29.5511 0.196716 -1.2 -4.82464 -4.12861e+06 -1.42884e+07 -1.57592e+07 2.69794e+06 -9.45434e+06 702662
196 3 O 0.0543974 29.5511 2.79288 -1.2 -8.21512 -2.97338e+06 -3.1213e+06 -3.05233e+06 -841616 -125565 1.0847e+06
197 1 Mg 6.94543 33.243 0 1.2 -6.67131 4.73938e+06 1.51002e+06 -2.94378e+06 1.59222e+06 -1.4354e+06 -877894
198 1 Mg 4.23267 37.9507 1.4948 1.2 -9.2905 -413690 2.08742e+06 5.04048e+06 -1.12039e+06 -250540 -198968
199 2 Si 6.02709 35.2665 1.4948 2.4 -34.8918 1.24002e+07 7.42181e+06 1.23061e+07 -410416 1.58432e+06 -2.3753e+06
200 3 O 6.09339 36.8798 1.4948 -1.2 -7.56781 -7.29521e+06 335109 -1.08685e+07 -141841 -6.59592e+06 -1.71839e+06
201 3 O 2.40018 34.2925 1.4948 -1.2 -8.98581 -5.17345e+06 -60222.7 -2.52813e+06 1.70684e+06 -507974 -692870
202 3 O 5.31645 34.5604 0.196716 -1.2 -5.69103 -4.86822e+06 -1.23535e+07 -1.04833e+07 -948758 -7.82279e+06 1.16907e+06
203 1 Mg 6.91449 33.243 2.9896 1.2 -8.57618 5.56499e+06 -2.65084e+06 410641 1.32192e+06 -1.38475e+06 1.72796e+06
204 3 O 5.291 34.5604 2.79288 -1.2 -8.23037 -3.01029e+06 -2.9092e+06 -3.04444e+06 1.13801e+06 -258270 -930819
205 1 Mg -0.471101 33.2843 4.4844 1.2 -9.39622 99393.1 1.53188e+06 4.21793e+06 -403567 -179784 -133959
206 2 Si -2.26307 35.9684 4.4844 2.4 -33.9739 1.32174e+07 7.19914e+06 1.01945e+07 204780 -24515.5 -833712
207 3 O -2.33122 34.3552 4.4844 -1.2 -8.80612 -4.98541e+06 847673 -4.74321e+06 343381 -44574.2 284797
208 3 O 1.36549 36.9425 4.4844 -1.2 -8.71745 -4.15928e+06 -2.0352e+06 -3.94169e+06 2.26837e+06 -307458 389315
209 3 O -1.52658 36.6746 3.18632 -1.2 -8.46199 -3.58984e+06 -2.82872e+06 -1.85668e+06 1.13639e+06 73241.5 -1.16562e+06
210 3 O -1.55122 36.6746 5.78248 -1.2 -8.4706 -3.62106e+06 -2.87197e+06 -2.47843e+06 1.06969e+06 -221426 1.94413e+06
211 1 Mg 1.882 35.6175 2.9896 1.2 -8.54363 5.45025e+06 -2.38469e+06 186764 -1.12632e+06 -1.49764e+06 -1.81608e+06
212 1 Mg 4.69415 35.5762 4.4844 1.2 -9.26393 250564 1.63448e+06 3.8862e+06 1.16384e+06 -193805 -353685
213 2 Si 2.88522 37.641 4.4844 2.4 -33.8103 1.26261e+07 7.834e+06 9.83312e+06 816359 -367391 -637925
214 3 O 2.91159 39.2543 4.4844 -1.2 -9.05666 -4.49436e+06 191941 -4.3399e+06 534275 20583.8 195814
215 3 O -3.74183 36.667 4.4844 -1.2 -8.83082 -4.47924e+06 -1.87375e+06 -3.54632e+06 -1.30231e+06 -307611 378411
216 3 O 3.58014 36.9349 3.18632 -1.2 -8.50832 -3.54703e+06 -3.01687e+06 -1.89442e+06 -850764 289357 1.53126e+06
217 1 Mg 1.90997 35.6175 0 1.2 -6.66988 4.03503e+06 1.55702e+06 -3.05305e+06 -1.67033e+06 -767498 621976
218 3 O 3.55582 36.9349 5.78248 -1.2 -8.50702 -3.53693e+06 -3.12066e+06 -2.38738e+06 -874543 139544 -847079
219 1 Mg -0.93068 35.6588 1.4948 1.2 -9.32976 71237.1 1.7776e+06 5.3185e+06 1.86748e+06 -298455 -162779
220 2 Si 0.881882 33.5939 1.4948 2.4 -35.0745 1.21265e+07 7.60025e+06 1.26012e+07 1.40854e+06 1.63985e+06 1.87039e+06
221 3 O 0.859602 31.9807 1.4948 -1.2 -6.68363 -7.25014e+06 541288 -1.61861e+07 1.15819e+06 -8.47827e+06 2.60815e+06
222 3 O 7.507 34.568 1.4948 -1.2 -9.0357 -5.29165e+06 35571 -2.44886e+06 -945675 -432553 1.26845e+06
223 3 O 0.210186 34.3001 0.196716 -1.2 -5.71935 -5.01862e+06 -1.30547e+07 -1.04347e+07 1.52976e+06 -7.95428e+06 -489309
224 3 O 0.184454 34.3001 2.79288 -1.2 -8.25562 -2.97893e+06 -3.04706e+06 -3.10085e+06 -857505 -188917 1.16068e+06
225 1 Mg 7.07415 37.992 0 1.2 -6.68411 3.41368e+06 1.70534e+06 -2.94206e+06 1.8791e+06 -430035 -1.42183e+06
226 1 Mg 4.36817 42.6997 1.4948 1.2 -9.21241 -742877 2.39532e+06 4.55478e+06 -998128 90903.7 28439.7
227 2 Si 6.16058 40.0155 1.4948 2.4 -34.416 1.2542e+07 7.52299e+06 1.13081e+07 -368449 1.2734e+06 -1.83084e+06
228 3 O 6.22815 41.6288 1.4948 -1.2 -8.27846 -6.6389e+06 107507 -7.24951e+06 33441 -4.49064e+06 -1.55801e+06
229 3 O 2.53282 39.0415 1.4948 -1.2 -9.08951 -4.84324e+06 -525602 -2.38703e+06 1.71155e+06 -342430 -766159
230 3 O 5.44674 39.3094 0.196716 -1.2 -6.68267 -5.15302e+06 -1.02946e+07 -6.22869e+06 -158682 -5.74282e+06 1.93001e+06
231 1 Mg 7.04922 37.992 2.9896 1.2 -8.38151 5.35033e+06 -2.18959e+06 -136898 1.29174e+06 -1.46507e+06 1.68452e+06
232 3 O 5.42658 39.3094 2.79288 -1.2 -8.42719 -2.84421e+06 -3.34336e+06 -2.49224e+06 1.12672e+06 -258963 -1.06142e+06
233 1 Mg -0.333062 38.0333 4.4844 1.2 -9.15959 -374325 2.01513e+06 3.82536e+06 -442016 -20695.8 -324503
234 2 Si -2.12255 40.7174 4.4844 2.4 -33.551 1.24718e+07 8.01867e+06 9.44278e+06 15722.7 -201534 -98533.2
235 3 O -2.19212 39.1042 4.4844 -1.2 -9.09195 -4.56692e+06 252704 -4.103e+06 492704 -72108.1 146495
236 3 O 1.50676 41.6915 4.4844 -1.2 -8.90736 -3.97615e+06 -2.41833e+06 -3.43964e+06 2.27065e+06 -295613 58409.5
237 3 O -1.3884 41.4236 3.18632 -1.2 -8.58978 -3.30594e+06 -3.18201e+06 -1.68858e+06 1.15743e+06 129944 -1.42843e+06
238 3 O -1.40713 41.4236 5.78248 -1.2 -8.69456 -3.28324e+06 -3.12062e+06 -2.0632e+06 1.2174e+06 174657 1.47964e+06
239 1 Mg 2.01892 40.3665 2.9896 1.2 -8.36793 5.18482e+06 -1.91809e+06 -282687 -1.07836e+06 -1.57307e+06 -1.63267e+06
240 1 Mg 4.83434 40.3252 4.4844 1.2 -9.03703 -162807 2.08377e+06 3.48603e+06 1.27145e+06 -147091 -17945.3
241 2 Si 3.02698 42.39 4.4844 2.4 -33.5847 1.21974e+07 8.37036e+06 9.37047e+06 776544 -121518 78209.9
242 3 O 3.05433 44.0033 4.4844 -1.2 -9.05828 -4.42774e+06 147504 -4.35323e+06 625152 9313.77 -148367
243 3 O -3.60077 41.416 4.4844 -1.2 -8.98102 -4.18259e+06 -2.11861e+06 -3.35743e+06 -1.28861e+06 -208446 -5233.97
244 3 O 3.71851 41.6839 3.18632 -1.2 -8.62209 -3.25296e+06 -3.35831e+06 -1.77287e+06 -852396 257465 1.21907e+06
245 1 Mg 2.04077 40.3665 0 1.2 -6.63776 2.86847e+06 1.68104e+06 -3.48317e+06 -1.83598e+06 452429 1.51524e+06
246 3 O 3.70011 41.6839 5.78248 -1.2 -8.67616 -3.10012e+06 -3.40984e+06 -2.26167e+06 -892439 -75866.4 -1.08873e+06
247 1 Mg -0.796865 40.4078 1.4948 1.2 -9.21897 -376331 2.27529e+06 4.69919e+06 1.7404e+06 65242.1 -36501
248 2 Si 1.01387 38.3429 1.4948 2.4 -34.6109 1.23067e+07 7.65892e+06 1.16548e+07 1.52928e+06 1.49542e+06 1.63029e+06
249 3 O 0.989947 36.7297 1.4948 -1.2 -7.54914 -7.32723e+06 368155 -1.10504e+07 1.03817e+06 -6.64515e+06 2.15928e+06
250 3 O 7.63988 39.317 1.4948 -1.2 -9.14159 -4.96533e+06 -446010 -2.29773e+06 -923653 -260608 1.2026e+06
251 3 O 0.340253 39.0491 0.196716 -1.2 -6.67973 -5.20706e+06 -1.11896e+07 -6.23868e+06 396438 -5.88782e+06 -1.40955e+06
252 3 O 0.319795 39.0491 2.79288 -1.2 -8.44684 -2.78379e+06 -3.48216e+06 -2.59351e+06 -849934 -238059 1.10345e+06
253 1 Mg 7.20667 42.741 0 1.2 -6.66522 2.41888e+06 1.71088e+06 -3.44685e+06 1.9926e+06 890230 -2.12378e+06
254 1 Mg 4.50613 47.4487 1.4948 1.2 -9.18695 -747024 2.37683e+06 4.33343e+06 -851231 409845 73998.4
255 2 Si 6.29731 44.7645 1.4948 2.4 -34.173 1.27678e+07 7.01505e+06 1.11779e+07 -235951 845356 -1.33249e+06
256 3 O 6.36567 46.3778 1.4948 -1.2 -8.6989 -5.8253e+06 192253 -5.37291e+06 178189 -2.6751e+06 -1.39273e+06
257 3 O 2.669 43.7905 1.4948 -1.2 -9.09983 -4.63063e+06 -802071 -2.57632e+06 1.72224e+06 -209896 -956002
258 3 O 5.58048 44.0584 0.196716 -1.2 -7.459 -4.96756e+06 -7.75531e+06 -3.74529e+06 324769 -3.66834e+06 2.37123e+06
259 1 Mg 7.1879 42.741 2.9896 1.2 -8.29507 5.18426e+06 -2.00333e+06 -282289 1.27756e+06 -1.60187e+06 1.93714e+06
260 3 O 5.56564 44.0584 2.79288 -1.2 -8.48656 -2.88336e+06 -3.34969e+06 -2.3734e+06 1.14142e+06 -238807 -1.25322e+06
261 1 Mg -0.19105 42.7823 4.4844 1.2 -9.04772 -442587 2.19196e+06 3.53421e+06 -384097 -42218.5 52925.7
262 2 Si -1.97909 45.4664 4.4844 2.4 -33.6235 1.25952e+07 8.01186e+06 9.44501e+06 123804 -91070.6 323149
263 3 O -2.04947 43.8532 4.4844 -1.2 -9.11514 -4.51181e+06 178186 -4.0456e+06 420992 -12235.3 -56278.3
264 3 O 1.65063 46.4405 4.4844 -1.2 -8.82478 -4.08625e+06 -2.19541e+06 -3.68371e+06 2.33078e+06 -234572 -18864.4
265 3 O -1.24745 46.1726 3.18632 -1.2 -8.55721 -3.27622e+06 -3.09962e+06 -1.95649e+06 1.1492e+06 80652.5 -1.54463e+06
266 3 O -1.26044 46.1726 5.78248 -1.2 -8.57531 -3.44069e+06 -3.1035e+06 -2.0287e+06 1.2884e+06 19798.4 1.17266e+06
267 1 Mg 2.15896 45.1155 2.9896 1.2 -8.36438 5.14406e+06 -1.95497e+06 -194974 -1.07713e+06 -1.66257e+06 -1.44091e+06
268 1 Mg 4.97763 45.0742 4.4844 1.2 -9.07962 -100371 2.06095e+06 3.51749e+06 1.24447e+06 -179742 132454
269 2 Si 3.1711 47.139 4.4844 2.4 -33.7478 1.23765e+07 7.95985e+06 9.86917e+06 815838 -183671 6584.11