ITEM: TIMESTEP
31500
ITEM: NUMBER OF ATOMS
10500
ITEM: BOX BOUNDS xy xz yz pp pp pp
0.0000000000000000e+00 1.5297749999999999e+01 5.0992499999999996e+00
0.0000000000000000e+00 1.1872499999999999e+02 0.0000000000000000e+00
0.0000000000000000e+00 8.9688000000000002e+01 0.0000000000000000e+00
ITEM: ATOMS id type element xu yu zu q c_pe c_s[1] c_s[2] c_s[3] c_s[4] c_s[5] c_s[6]
1 1 Mg 6.2404 -6.37941e-06 0 1.2 -4.50125 7.94912e+06 -1.81644e+06 -6.18263e+06 -12665.2 2.64404e+06 -567250
2 1 Mg 3.46349 4.70768 1.4948 1.2 -8.59192 -123527 2.49947e+06 4.48595e+06 -936052 -633060 -125884
3 2 Si 5.2885 2.02354 1.4948 2.4 -35.3668 1.0132e+07 1.08841e+07 1.14403e+07 8.86967e+06 715205 -3.62713e+06
4 3 O 5.33628 3.63678 1.4948 -1.2 -4.6339 -939885 -1.321e+06 -3.38127e+07 -337661 3.79888e+06 -3.64672e+06
5 3 O 1.67294 1.04952 1.4948 -1.2 -1.01462 -2.04254e+07 -7.93742e+07 -2.06937e+06 -2.41242e+07 -97984.7 209232
6 3 O 4.59532 1.31737 0.196716 -1.2 -2.95349 -2.04027e+06 -6.67437e+06 -3.05307e+07 -6.03244e+06 6.26518e+06 -2.31918e+06
7 1 Mg 6.18956 -6.37941e-06 2.9896 1.2 -4.94289 1.52776e+06 -2.82053e+07 -2.93841e+06 -8.85186e+06 2.49367e+06 3.75413e+06
8 3 O 4.55118 1.31737 2.79288 -1.2 -7.48914 106398 -4.65874e+06 -3.18862e+06 -2.96211e+06 -3.43188e+06 -871043
9 1 Mg -1.20682 0.0413099 4.4844 1.2 8.95851 -3.08915e+07 -9.33755e+07 -190358 -2.85194e+07 -1.2965e+06 -144640
10 2 Si -3.0337 2.72544 4.4844 2.4 -33.1397 1.41535e+07 6.75348e+06 8.56337e+06 1.69375e+06 156811 -841591
11 3 O -3.08099 1.11221 4.4844 -1.2 -9.63437 -6.02122e+06 91354.6 -2.33268e+06 -1.21226e+06 -213923 477752
12 3 O 0.582463 3.69946 4.4844 -1.2 -8.94272 -3.28406e+06 -5.19363e+06 -3.15737e+06 -514907 -101957 -1305.98
13 3 O -2.29524 3.43162 3.18632 -1.2 -9.00573 -4.23796e+06 -2.35798e+06 -809172 1.08506e+06 -843100 -803907
14 3 O -2.34216 3.43162 5.78248 -1.2 -8.82878 -3.72407e+06 -3.01116e+06 -2.02746e+06 701549 596680 1.22628e+06
15 1 Mg 1.12778 2.37449 2.9896 1.2 -7.62436 5.23809e+06 -1.75716e+06 -584831 -3.29014e+06 -4.22572e+06 -2.43196e+06
16 1 Mg 3.92855 2.33318 4.4844 1.2 -8.43448 -4.10962e+06 4.73372e+06 4.9166e+06 1.36561e+06 326304 326167
17 2 Si 2.09341 4.39804 4.4844 2.4 -32.4399 1.22374e+07 6.15664e+06 9.50811e+06 188553 -432130 253816
18 3 O 2.09991 6.01128 4.4844 -1.2 -9.42382 -4.21704e+06 404265 -4.24183e+06 509953 -104740 4802.9
19 3 O -4.52137 3.42402 4.4844 -1.2 -9.16339 -2.91738e+06 -2.69186e+06 -3.80087e+06 -2.45835e+06 -967623 182380
20 3 O 2.80834 3.69187 3.18632 -1.2 -9.28775 -2.24621e+06 -2.6077e+06 -586149 461786 -460040 -325623
21 1 Mg 1.17857 2.37449 0 1.2 -5.21467 -417711 -1.48904e+07 -6.41961e+06 6.51036e+06 1.19194e+06 4.23241e+06
22 3 O 2.76143 3.69187 5.78248 -1.2 -9.37967 -2.85508e+06 -2.04867e+06 -1.49956e+06 523361 253164 177585
23 1 Mg -1.67381 2.41581 1.4948 1.2 -7.64523 1.64094e+06 -288605 4.16332e+06 1.3562e+06 -571620 747416
24 2 Si 0.16286 0.350945 1.4948 2.4 -24.6217 -8.05834e+06 1.24747e+07 1.133e+07 1.58147e+06 2.80812e+06 542757
25 3 O 0.15972 -1.26229 1.4948 -1.2 -4.7287 -1.07397e+07 -8.04985e+06 -2.89191e+07 -5.60016e+06 -8.51356e+06 -2.27901e+06
26 3 O 6.77654 1.32496 1.4948 -1.2 -10.3052 -5.77727e+06 1.78535e+06 -1.44097e+06 -645001 -671348 1.36979e+06
27 3 O -0.508028 1.05712 0.196716 -1.2 -9.4646 -27255 -4.67509e+06 -663826 -545563 176018 -4.18012e+06
28 3 O -0.552171 1.05712 2.79288 -1.2 -6.788 -5.33611e+06 -4.58792e+06 -2.46847e+07 1.42338e+06 -6.76265e+06 -5.26658e+06
29 1 Mg 6.31713 4.74899 0 1.2 -5.09739 583721 -1.3068e+07 -5.90117e+06 -7.30724e+06 1.44115e+06 -3.85843e+06
30 1 Mg 3.54847 9.45668 1.4948 1.2 -8.53759 625632 1.32923e+06 4.79857e+06 -963444 -908822 -426601
31 2 Si 5.36879 6.77254 1.4948 2.4 -34.632 7.81627e+06 1.14475e+07 1.2171e+07 1.6595e+06 208855 -2.24645e+06
32 3 O 5.41937 8.38578 1.4948 -1.2 -4.56254 -634396 -575961 -3.55823e+07 770284 1.07362e+06 -4.10871e+06
33 3 O 1.75158 5.79852 1.4948 -1.2 -9.36028 -4.25534e+06 -2.09743e+06 -1.66264e+06 1.96832e+06 -1.56567e+06 -1.16139e+06
34 3 O 4.67421 6.06637 0.196716 -1.2 -3.58787 -139960 -9.88901e+06 -3.17019e+07 -2.00146e+06 1.29893e+06 -4.23248e+06
35 1 Mg 6.26654 4.74899 2.9896 1.2 -8.1184 4.23022e+06 -1.90872e+06 255924 1.81023e+06 -782269 1.79814e+06
36 3 O 4.63043 6.06637 2.79288 -1.2 -8.73149 -1.83491e+06 -3.64704e+06 -2.48575e+06 929844 -156025 -1.33892e+06
37 1 Mg -1.12976 4.79031 4.4844 1.2 -8.88327 -572376 2.42619e+06 3.24949e+06 -731732 -485331 -166391
38 2 Si -2.9517 7.47444 4.4844 2.4 -33.1691 1.15306e+07 8.03476e+06 9.7365e+06 -27388.4 8671.39 -338188
39 3 O -3.00198 5.86121 4.4844 -1.2 -9.31866 -4.054e+06 218900 -4.24503e+06 81598.9 -302398 130419
40 3 O 0.666315 8.44846 4.4844 -1.2 -9.14787 -3.6251e+06 -2.1433e+06 -3.65117e+06 2.11485e+06 -396951 169375
41 3 O -2.21213 8.18062 3.18632 -1.2 -8.92416 -3.13684e+06 -2.9853e+06 -1.11989e+06 1.10833e+06 -285068 -1.2989e+06
42 3 O -2.25864 8.18062 5.78248 -1.2 -8.80462 -3.0699e+06 -3.28353e+06 -2.22953e+06 1.08017e+06 36241.1 1.54514e+06
43 1 Mg 1.20893 7.12349 2.9896 1.2 -8.13198 4.38612e+06 -2.00211e+06 194387 -1.27805e+06 -1.38239e+06 -1.81707e+06
44 1 Mg 4.00982 7.08218 4.4844 1.2 -8.77398 -574587 2.04869e+06 3.50374e+06 1.03826e+06 -184460 54793.2
45 2 Si 2.17861 9.14704 4.4844 2.4 -33.0571 1.18104e+07 7.85957e+06 9.41823e+06 561502 -67160.3 -209264
46 3 O 2.18828 10.7603 4.4844 -1.2 -9.35954 -4.21743e+06 269710 -4.2006e+06 473593 -170397 91638.5
47 3 O -4.43805 8.17302 4.4844 -1.2 -9.14931 -3.53945e+06 -2.13201e+06 -3.70854e+06 -1.51018e+06 -576781 69929.8
48 3 O 2.89193 8.44087 3.18632 -1.2 -8.95952 -3.10459e+06 -3.12179e+06 -1.11388e+06 -925565 -245562 1.39455e+06
49 1 Mg 1.25915 7.12349 0 1.2 -5.52122 1.33356e+06 -7.87231e+06 -6.06154e+06 5.89945e+06 1.35293e+06 2.41332e+06
50 3 O 2.84547 8.44087 5.78248 -1.2 -8.91496 -3.19827e+06 -3.10476e+06 -2.26911e+06 -863410 -216079 -1.12399e+06
51 1 Mg -1.59284 7.16481 1.4948 1.2 -8.42689 1.07806e+06 1.03404e+06 4.66306e+06 1.45995e+06 -921949 176643
52 2 Si 0.240329 5.09994 1.4948 2.4 -34.3151 8.72304e+06 1.04622e+07 1.17425e+07 -1.96494e+06 -1.10918e+06 1.54611e+06
53 3 O 0.234538 3.48671 1.4948 -1.2 -5.13932 -1.92833e+06 545213 -3.3917e+07 404602 5.19846e+06 4.199e+06
54 3 O 6.85564 6.07396 1.4948 -1.2 -9.42589 -4.62469e+06 -1.54159e+06 -1.7053e+06 -1.34239e+06 -1.85946e+06 1.33253e+06
55 3 O -0.429565 5.80612 0.196716 -1.2 -3.84826 -964938 -8.53223e+06 -3.1773e+07 1.84418e+06 1.19149e+06 4.77955e+06
56 3 O -0.473377 5.80612 2.79288 -1.2 -8.81534 -2.31808e+06 -3.22831e+06 -2.38564e+06 -773488 356854 1.46217e+06
57 1 Mg 6.40169 9.49799 0 1.2 -5.52894 1.95358e+06 -6.81499e+06 -6.21555e+06 -5.48994e+06 1.01642e+06 -2.55239e+06
58 1 Mg 3.64209 14.2057 1.4948 1.2 -8.66488 640635 1.23617e+06 5.03967e+06 -1.03949e+06 -955096 -240232
59 2 Si 5.45748 11.5215 1.4948 2.4 -34.7334 8.31855e+06 1.08012e+07 1.24534e+07 893165 409275 -2.23514e+06
60 3 O 5.51101 13.1348 1.4948 -1.2 -4.54163 -929756 -362838 -3.53541e+07 466591 -2.57101e+06 -4.35998e+06
61 3 O 1.83851 10.5475 1.4948 -1.2 -9.35683 -4.59461e+06 -1.43953e+06 -1.71584e+06 1.54357e+06 -1.56376e+06 -1.01198e+06
62 3 O 4.7611 10.8154 0.196716 -1.2 -3.3612 147085 -1.10455e+07 -3.24192e+07 -2.46167e+06 -1.78595e+06 -4.22509e+06
63 1 Mg 6.35203 9.49799 2.9896 1.2 -8.1522 4.3484e+06 -2.03373e+06 314581 1.31436e+06 -1.14951e+06 1.87361e+06
64 3 O 4.71833 10.8154 2.79288 -1.2 -8.6894 -2.1482e+06 -3.3303e+06 -2.56899e+06 1.05534e+06 -20294.6 -1.23138e+06
65 1 Mg -1.0438 9.53931 4.4844 1.2 -8.82427 -680311 2.08082e+06 3.5692e+06 -557375 -363282 -181561
66 2 Si -2.8604 12.2234 4.4844 2.4 -33.1843 1.16501e+07 8.07954e+06 9.59345e+06 31503.9 4855.4 125080
67 3 O -2.91391 10.6102 4.4844 -1.2 -9.31261 -4.06637e+06 206970 -4.25139e+06 194830 -183151 89117
68 3 O 0.7596 13.1975 4.4844 -1.2 -9.08953 -3.61705e+06 -2.14038e+06 -3.77065e+06 2.16547e+06 -383977 -126486
69 3 O -2.12001 12.9296 3.18632 -1.2 -8.85983 -3.16649e+06 -2.96229e+06 -1.225e+06 1.13823e+06 -232384 -1.57734e+06
70 3 O -2.16532 12.9296 5.78248 -1.2 -8.81683 -3.00661e+06 -3.28745e+06 -2.27767e+06 1.03387e+06 -169346 1.10583e+06
71 1 Mg 1.29891 11.8725 2.9896 1.2 -8.18257 4.50503e+06 -2.02189e+06 172988 -1.18933e+06 -1.26494e+06 -1.68984e+06
72 1 Mg 4.10033 11.8312 4.4844 1.2 -8.79246 -447586 2.06386e+06 3.39125e+06 1.09949e+06 -234552 65573.1
73 2 Si 2.27333 13.896 4.4844 2.4 -33.1892 1.20594e+07 7.64118e+06 9.59257e+06 607344 -210530 362408
74 3 O 2.28634 15.5093 4.4844 -1.2 -9.23237 -4.44605e+06 583738 -4.4999e+06 469316 -77432.7 -117605
75 3 O -4.34533 12.922 4.4844 -1.2 -9.13517 -3.69416e+06 -2.09621e+06 -3.61945e+06 -1.48162e+06 -552363 -156333
76 3 O 2.98455 13.1899 3.18632 -1.2 -8.90119 -3.2505e+06 -3.02015e+06 -1.18982e+06 -940388 -148981 1.23058e+06
77 1 Mg 1.34779 11.8725 0 1.2 -5.80127 3.25337e+06 -3.2803e+06 -6.22635e+06 3.56044e+06 784155 1.55175e+06
78 3 O 2.93934 13.1899 5.78248 -1.2 -8.93203 -3.23549e+06 -3.15158e+06 -2.12649e+06 -860626 -146891 -1.4229e+06
79 1 Mg -1.50344 11.9138 1.4948 1.2 -8.5805 873096 1.25954e+06 4.87236e+06 1.57103e+06 -960230 389245
80 2 Si 0.326006 9.84894 1.4948 2.4 -34.657 8.31724e+06 1.09104e+07 1.21956e+07 -600103 50524.3 2.07472e+06
81 3 O 0.317364 8.23571 1.4948 -1.2 -4.57132 -778797 -446444 -3.56826e+07 -127871 1.20724e+06 4.32939e+06
82 3 O 6.94307 10.823 1.4948 -1.2 -9.38472 -4.70441e+06 -1.26553e+06 -1.6943e+06 -989609 -1.54598e+06 1.11794e+06
83 3 O -0.343122 10.5551 0.196716 -1.2 -3.46249 -140595 -1.05137e+07 -3.24656e+07 2.45438e+06 -2.02588e+06 4.58384e+06
84 3 O -0.385966 10.5551 2.79288 -1.2 -8.72238 -2.1646e+06 -3.399e+06 -2.57569e+06 -863430 136142 1.19446e+06
85 1 Mg 6.49448 14.247 0 1.2 -5.79803 3.78882e+06 -2.54799e+06 -6.31437e+06 -2.95943e+06 265869 -1.49223e+06
86 1 Mg 3.74457 18.9547 1.4948 1.2 -8.81607 551710 1.20814e+06 5.32165e+06 -1.11451e+06 -948731 -189438
87 2 Si 5.55495 16.2705 1.4948 2.4 -34.8609 8.85849e+06 1.01276e+07 1.28101e+07 525345 851617 -2.10898e+06
88 3 O 5.6115 17.8838 1.4948 -1.2 -4.78205 -2.07918e+06 -84822.2 -3.28665e+07 79735.3 -6.08023e+06 -4.22404e+06
89 3 O 1.93416 15.2965 1.4948 -1.2 -9.3174 -4.77609e+06 -945361 -1.84222e+06 1.53868e+06 -1.3568e+06 -1.11101e+06
90 3 O 4.85636 15.5644 0.196716 -1.2 -3.3181 30745.7 -1.25973e+07 -3.09873e+07 -3.03317e+06 -5.15119e+06 -3.79399e+06
91 1 Mg 6.44662 14.247 2.9896 1.2 -8.20781 4.57804e+06 -2.20709e+06 346408 1.29803e+06 -1.13888e+06 2.10464e+06
92 3 O 4.81537 15.5644 2.79288 -1.2 -8.59188 -2.30919e+06 -3.13159e+06 -2.7943e+06 1.06999e+06 -62473.2 -1.39138e+06
93 1 Mg -0.948271 14.2883 4.4844 1.2 -8.92242 -681434 1.89722e+06 3.90261e+06 -543234 -315264 174379
94 2 Si -2.75928 16.9724 4.4844 2.4 -33.4599 1.21458e+07 7.34922e+06 1.02697e+07 -117064 49404 127632
95 3 O -2.81617 15.3592 4.4844 -1.2 -9.20376 -4.26442e+06 543472 -4.557e+06 275288 -259034 -167921
96 3 O 0.862762 17.9465 4.4844 -1.2 -8.94633 -3.85562e+06 -1.89647e+06 -4.00981e+06 2.13698e+06 -376929 24942.9
97 3 O -2.0185 17.6786 3.18632 -1.2 -8.7446 -3.32805e+06 -2.72878e+06 -1.50141e+06 1.17845e+06 -149344 -1.57871e+06
98 3 O -2.06164 17.6786 5.78248 -1.2 -8.64623 -3.3313e+06 -2.93573e+06 -2.49126e+06 1.24024e+06 -190502 1.53488e+06
99 1 Mg 1.39817 16.6215 2.9896 1.2 -8.27823 4.74801e+06 -2.28958e+06 348823 -1.15743e+06 -1.28325e+06 -1.57448e+06
100 1 Mg 4.20062 16.5802 4.4844 1.2 -8.93111 -196828 1.73494e+06 3.69367e+06 1.16072e+06 -225903 183760
101 2 Si 2.37796 18.645 4.4844 2.4 -33.4627 1.2533e+07 7.25832e+06 9.93868e+06 778586 -133442 169692
102 3 O 2.39434 20.2583 4.4844 -1.2 -9.12167 -4.62546e+06 670952 -4.57759e+06 512564 -146829 -19094.2
103 3 O -4.24274 17.671 4.4844 -1.2 -8.99494 -3.93649e+06 -1.80205e+06 -3.89726e+06 -1.39087e+06 -535013 -163319
104 3 O 3.08659 17.9389 3.18632 -1.2 -8.78499 -3.42038e+06 -2.80055e+06 -1.46487e+06 -955908 -75434.7 1.20802e+06
105 1 Mg 1.44478 16.6215 0 1.2 -5.97823 4.99951e+06 -454305 -6.07225e+06 1.39462e+06 -58699.9 938253
106 3 O 3.0436 17.9389 5.78248 -1.2 -8.73454 -3.59634e+06 -2.91401e+06 -2.28599e+06 -1.00807e+06 -215337 -1.3208e+06
107 1 Mg -1.40524 16.6628 1.4948 1.2 -8.73479 808764 1.20321e+06 5.19261e+06 1.68968e+06 -984630 438677
108 2 Si 0.420358 14.5979 1.4948 2.4 -34.8118 8.60011e+06 1.04481e+07 1.26071e+07 -136609 497191 2.61712e+06
109 3 O 0.408732 12.9847 1.4948 -1.2 -4.53183 -944053 -353690 -3.54989e+07 226425 -2.5282e+06 4.22966e+06
110 3 O 7.03923 15.572 1.4948 -1.2 -9.34799 -4.89127e+06 -790189 -1.8005e+06 -947804 -1.324e+06 940122
111 3 O -0.248332 15.3041 0.196716 -1.2 -3.41879 -254295 -1.21362e+07 -3.10543e+07 3.25428e+06 -5.38744e+06 3.9577e+06
112 3 O -0.289436 15.3041 2.79288 -1.2 -8.61741 -2.23122e+06 -3.23815e+06 -2.8815e+06 -856107 82823.8 975402
113 1 Mg 6.59566 18.996 0 1.2 -5.9804 5.27964e+06 -82817.2 -5.93498e+06 -917675 -673172 -852826
114 1 Mg 3.85574 23.7037 1.4948 1.2 -8.90522 292939 1.47382e+06 5.31778e+06 -1.19272e+06 -918261 -197478
115 2 Si 5.66125 21.0195 1.4948 2.4 -34.8911 9.46672e+06 9.51873e+06 1.2921e+07 189515 1.27636e+06 -2.25627e+06
116 3 O 5.72074 22.6328 1.4948 -1.2 -5.35642 -3.79969e+06 29019.1 -2.79978e+07 -218286 -8.53999e+06 -3.69117e+06
117 3 O 2.03867 20.0455 1.4948 -1.2 -9.28038 -4.89497e+06 -555274 -1.96979e+06 1.57074e+06 -1.14293e+06 -1.04275e+06
118 3 O 4.96004 20.3134 0.196716 -1.2 -3.59096 -774494 -1.38946e+07 -2.72608e+07 -3.18701e+06 -7.96719e+06 -2.79862e+06
119 1 Mg 6.55057 18.996 2.9896 1.2 -8.29207 4.81148e+06 -2.4053e+06 446754 1.29611e+06 -1.17955e+06 2.07136e+06
120 3 O 4.92172 20.3134 2.79288 -1.2 -8.49911 -2.41708e+06 -3.01929e+06 -2.98196e+06 1.07652e+06 -128747 -1.30255e+06
121 1 Mg -0.84282 19.0373 4.4844 1.2 -9.03362 -475226 1.79641e+06 3.96683e+06 -547866 -313756 -1302.89
122 2 Si -2.64823 21.7214 4.4844 2.4 -33.6556 1.23659e+07 7.19332e+06 1.05293e+07 125047 -84308.4 30610.7
123 3 O -2.70847 20.1082 4.4844 -1.2 -9.09202 -4.43364e+06 609202 -4.61868e+06 307643 -123090 -104395
124 3 O 0.97581 22.6955 4.4844 -1.2 -8.88868 -3.95766e+06 -1.90474e+06 -3.98149e+06 2.24534e+06 -334313 57906
125 3 O -1.9076 22.4276 3.18632 -1.2 -8.68389 -3.36986e+06 -2.70949e+06 -1.60885e+06 1.13731e+06 -64713.2 -1.49462e+06
126 3 O -1.9475 22.4276 5.78248 -1.2 -8.47485 -3.4057e+06 -2.79123e+06 -2.95469e+06 997969 29742.4 1.43802e+06
127 1 Mg 1.50678 21.3705 2.9896 1.2 -8.32776 4.94659e+06 -2.35319e+06 293270 -1.17746e+06 -1.29641e+06 -1.60402e+06
128 1 Mg 4.31086 21.3292 4.4844 1.2 -9.0393 -59528.4 1.61985e+06 3.84761e+06 1.16544e+06 -172973 8523.38
129 2 Si 2.49243 23.394 4.4844 2.4 -33.5113 1.26382e+07 7.39016e+06 9.78599e+06 600351 -323872 -185233
130 3 O 2.51204 25.0073 4.4844 -1.2 -9.17102 -4.54621e+06 420063 -4.3211e+06 533013 26136.4 107299
131 3 O -4.13026 22.42 4.4844 -1.2 -8.92865 -4.07561e+06 -1.72417e+06 -3.92787e+06 -1.42692e+06 -575781 65424.2
132 3 O 3.19799 22.6879 3.18632 -1.2 -8.74122 -3.46845e+06 -2.83141e+06 -1.50829e+06 -895368 29274 1.33816e+06
133 1 Mg 1.5501 21.3705 0 1.2 -6.08034 5.95177e+06 1.00606e+06 -5.54322e+06 -63224.9 -984614 519296
134 3 O 3.1583 22.6879 5.78248 -1.2 -8.65193 -3.70702e+06 -2.8722e+06 -2.41447e+06 -775183 -137946 -1.02073e+06
135 1 Mg -1.29822 21.4118 1.4948 1.2 -8.8634 647777 1.30481e+06 5.35362e+06 1.80616e+06 -960900 338868
136 2 Si 0.523568 19.3469 1.4948 2.4 -34.9042 9.16141e+06 9.81134e+06 1.28589e+07 307059 939356 2.71816e+06
137 3 O 0.508934 17.7337 1.4948 -1.2 -4.77092 -2.08432e+06 -81440.3 -3.30172e+07 666485 -6.05405e+06 4.00244e+06
138 3 O 7.14425 20.321 1.4948 -1.2 -9.31543 -5.00458e+06 -416759 -1.92149e+06 -938061 -1.07782e+06 953405
139 3 O -0.145107 20.0531 0.196716 -1.2 -3.69063 -1.10446e+06 -1.35675e+07 -2.73015e+07 3.68279e+06 -8.17052e+06 3.00657e+06
140 3 O -0.183601 20.0531 2.79288 -1.2 -8.53404 -2.36749e+06 -3.17386e+06 -2.99103e+06 -838556 30202.2 987899
141 1 Mg 6.70502 23.745 0 1.2 -6.08781 5.78356e+06 1.26727e+06 -5.23307e+06 407846 -1.47553e+06 -531596
142 1 Mg 3.97493 28.4527 1.4948 1.2 -8.95698 -120944 1.87549e+06 5.18029e+06 -1.22967e+06 -793338 -28973.8
143 2 Si 5.77602 25.7685 1.4948 2.4 -34.7014 1.00225e+07 9.37567e+06 1.2292e+07 -143923 1.5783e+06 -2.25622e+06
144 3 O 5.83821 27.3818 1.4948 -1.2 -6.19418 -5.47915e+06 -77223.3 -2.16347e+07 -321066 -9.2972e+06 -3.13234e+06
145 3 O 2.15175 24.7945 1.4948 -1.2 -9.30793 -4.84475e+06 -515678 -1.88093e+06 1.61208e+06 -889545 -951022
146 3 O 5.07184 25.0624 0.196716 -1.2 -4.22814 -2.00659e+06 -1.47079e+07 -2.15734e+07 -2.78151e+06 -9.42962e+06 -1.51703e+06
147 1 Mg 6.66374 23.745 2.9896 1.2 -8.28316 4.92152e+06 -2.3403e+06 260380 1.31641e+06 -1.17279e+06 1.88824e+06
148 3 O 5.03707 25.0624 2.79288 -1.2 -8.52948 -2.41354e+06 -3.25672e+06 -2.73794e+06 1.11544e+06 -180098 -1.18626e+06
149 1 Mg -0.727559 23.7863 4.4844 1.2 -9.08318 -525435 1.80973e+06 4.0778e+06 -432353 -273082 -98514.1
150 2 Si -2.5277 26.4704 4.4844 2.4 -33.4011 1.22364e+07 7.90779e+06 9.53773e+06 -82360.6 57306.6 -207520
151 3 O -2.59107 24.8572 4.4844 -1.2 -9.13299 -4.40337e+06 430107 -4.38943e+06 344168 -242278 173544
152 3 O 1.09817 27.4445 4.4844 -1.2 -8.99298 -3.72747e+06 -2.27363e+06 -3.68704e+06 2.12104e+06 -358973 41938.6
153 3 O -1.78784 27.1766 3.18632 -1.2 -8.74721 -3.27211e+06 -3.01908e+06 -1.35558e+06 1.17618e+06 -24733 -1.47003e+06
154 3 O -1.82343 27.1766 5.78248 -1.2 -8.75963 -3.25645e+06 -3.24791e+06 -2.02696e+06 1.26049e+06 -200884 1.53133e+06
155 1 Mg 1.62435 26.1195 2.9896 1.2 -8.27099 4.91285e+06 -2.09634e+06 -17688.3 -1.12082e+06 -1.37479e+06 -1.62331e+06
156 1 Mg 4.43064 26.0782 4.4844 1.2 -8.92772 -226404 2.01627e+06 3.44081e+06 1.16377e+06 -216651 36705.4
157 2 Si 2.61607 28.143 4.4844 2.4 -33.3312 1.20652e+07 8.04869e+06 9.40799e+06 907866 -205144 325719
158 3 O 2.63853 29.7563 4.4844 -1.2 -9.19979 -4.27876e+06 304022 -4.43663e+06 508018 -114307 -198258
159 3 O -4.00841 27.169 4.4844 -1.2 -9.07188 -3.95951e+06 -2.11196e+06 -3.43497e+06 -1.26034e+06 -432429 -81382
160 3 O 3.3182 27.4369 3.18632 -1.2 -8.79184 -3.27472e+06 -3.16098e+06 -1.36905e+06 -913542 134533 1.20781e+06
161 1 Mg 1.66335 26.1195 0 1.2 -6.1362 5.77702e+06 1.81953e+06 -4.87324e+06 -891691 -1.59597e+06 321806
162 3 O 3.28288 27.4369 5.78248 -1.2 -8.84414 -3.24477e+06 -3.36401e+06 -1.93619e+06 -961829 -147076 -1.46082e+06
163 1 Mg -1.18278 26.1608 1.4948 1.2 -8.91784 297603 1.70223e+06 5.20139e+06 1.89215e+06 -822695 207336
164 2 Si 0.635424 24.0959 1.4948 2.4 -34.8022 9.69099e+06 9.52121e+06 1.25236e+07 756642 1.30319e+06 2.61254e+06
165 3 O 0.617906 22.4827 1.4948 -1.2 -5.34528 -3.82528e+06 36851.4 -2.81327e+07 1.01383e+06 -8.50589e+06 3.59713e+06
166 3 O 7.25781 25.07 1.4948 -1.2 -9.34898 -4.95423e+06 -392632 -1.82202e+06 -929962 -869631 1.0186e+06
167 3 O -0.0337363 24.8021 0.196716 -1.2 -4.31739 -2.34325e+06 -1.46589e+07 -2.15545e+07 3.50096e+06 -9.63227e+06 1.77206e+06
168 3 O -0.0687235 24.8021 2.79288 -1.2 -8.54284 -2.3261e+06 -3.34824e+06 -2.89329e+06 -855672 -41537.2 1.05932e+06
169 1 Mg 6.82195 28.494 0 1.2 -6.18676 5.29868e+06 1.93129e+06 -4.37418e+06 1.15184e+06 -1.82684e+06 -394388
170 1 Mg 4.10106 33.2017 1.4948 1.2 -9.05266 -454799 2.01123e+06 5.19119e+06 -1.19939e+06 -545729 136490
171 2 Si 5.89839 30.5175 1.4948 2.4 -34.4981 1.07147e+07 8.87025e+06 1.18622e+07 -346666 1.6315e+06 -1.84996e+06
172 3 O 5.96289 32.1308 1.4948 -1.2 -7.03691 -6.6379e+06 53784.3 -1.56017e+07 -290406 -8.42548e+06 -2.63352e+06
173 3 O 2.27266 29.5435 1.4948 -1.2 -9.32912 -4.71609e+06 -543149 -1.90059e+06 1.64794e+06 -713866 -1.0223e+06
174 3 O 5.19102 29.8114 0.196716 -1.2 -5.08185 -3.35013e+06 -1.4381e+07 -1.53864e+07 -1.92905e+06 -9.27449e+06 -263231
175 1 Mg 6.78546 28.494 2.9896 1.2 -8.1997 4.92757e+06 -2.11167e+06 -102629 1.2725e+06 -1.30824e+06 2.02212e+06
176 3 O 5.16061 29.8114 2.79288 -1.2 -8.56114 -2.35778e+06 -3.37808e+06 -2.66259e+06 1.13039e+06 -175850 -1.35868e+06
177 1 Mg -0.603205 28.5353 4.4844 1.2 -8.94086 -632335 2.10592e+06 3.6513e+06 -437960 -139940 -5755.22
178 2 Si -2.39877 31.2194 4.4844 2.4 -33.294 1.23543e+07 7.83314e+06 9.3226e+06 27723.5 -269259 302563
179 3 O -2.46483 29.6062 4.4844 -1.2 -9.24615 -4.39677e+06 314519 -4.10439e+06 439537 -49663.1 -104804
180 3 O 1.22864 32.1935 4.4844 -1.2 -8.98777 -3.78615e+06 -2.17594e+06 -3.74016e+06 2.27664e+06 -499673 -115463
181 3 O -1.66032 31.9256 3.18632 -1.2 -8.74648 -3.29168e+06 -3.02476e+06 -1.41201e+06 1.16566e+06 80960.1 -1.6719e+06
182 3 O -1.69072 31.9256 5.78248 -1.2 -8.83215 -3.41253e+06 -3.02168e+06 -1.91496e+06 1.17617e+06 -56197.3 1.2699e+06
183 1 Mg 1.7499 30.8685 2.9896 1.2 -8.24345 4.91545e+06 -2.04727e+06 -106944 -1.11834e+06 -1.34144e+06 -1.41943e+06
184 1 Mg 4.55894 30.8272 4.4844 1.2 -8.94803 -418865 1.97494e+06 3.70795e+06 1.20381e+06 -285819 221193
185 2 Si 2.7476 32.892 4.4844 2.4 -33.4319 1.19766e+07 7.87721e+06 9.83322e+06 762348 -85441.8 265095
186 3 O 2.77235 34.5053 4.4844 -1.2 -9.1548 -4.37962e+06 321501 -4.41604e+06 589131 -82512.8 -130662
187 3 O -3.87837 31.918 4.4844 -1.2 -9.06813 -3.98206e+06 -2.04222e+06 -3.49488e+06 -1.33675e+06 -227628 -223970
188 3 O 3.44611 32.1859 3.18632 -1.2 -8.75597 -3.16989e+06 -3.14737e+06 -1.63735e+06 -887303 183209 1.09261e+06
189 1 Mg 1.7837 30.8685 0 1.2 -6.26363 4.80363e+06 2.00328e+06 -3.94013e+06 -1.3516e+06 -1.52142e+06 475171
190 3 O 3.41602 32.1859 5.78248 -1.2 -8.69472 -3.02791e+06 -3.19452e+06 -2.58124e+06 -925140 -76861.7 -1.27211e+06
191 1 Mg -1.05984 30.9098 1.4948 1.2 -8.98259 -32479.5 1.95476e+06 5.0809e+06 1.90855e+06 -617454 257243
192 2 Si 0.755243 28.8449 1.4948 2.4 -34.5817 1.02752e+07 9.27818e+06 1.19138e+07 1.16893e+06 1.61469e+06 2.62768e+06
193 3 O 0.735127 27.2317 1.4948 -1.2 -6.18238 -5.50822e+06 -64797 -2.17741e+07 1.15735e+06 -9.30963e+06 3.0039e+06
194 3 O 7.37914 29.819 1.4948 -1.2 -9.37596 -4.88118e+06 -418335 -1.79389e+06 -924045 -611178 911746
195 3 O 0.0850649 29.5511 0.196716 -1.2 -5.14659 -3.59242e+06 -1.47349e+07 -1.5333e+07 2.69425e+06 -9.44453e+06 396041
196 3 O 0.0543974 29.5511 2.79288 -1.2 -8.6013 -2.34393e+06 -3.5359e+06 -2.64853e+06 -859617 -167618 884539
197 1 Mg 6.94543 33.243 0 1.2 -6.3575 4.27865e+06 1.92793e+06 -3.40372e+06 1.58255e+06 -1.4568e+06 -514969
198 1 Mg 4.23267 37.9507 1.4948 1.2 -9.11337 -718354 2.17319e+06 4.9756e+06 -1.11776e+06 -217579 253156
199 2 Si 6.02709 35.2665 1.4948 2.4 -34.3625 1.15328e+07 8.01314e+06 1.17342e+07 -391433 1.58313e+06 -1.39771e+06
200 3 O 6.09339 36.8798 1.4948 -1.2 -7.77574 -6.93863e+06 185300 -1.07417e+07 -148396 -6.60987e+06 -2.2128e+06
201 3 O 2.40018 34.2925 1.4948 -1.2 -9.28133 -4.67852e+06 -439542 -2.17004e+06 1.6969e+06 -530410 -1.11967e+06
202 3 O 5.31645 34.5604 0.196716 -1.2 -5.97073 -4.42573e+06 -1.26816e+07 -1.01497e+07 -954909 -7.83943e+06 769802
203 1 Mg 6.91449 33.243 2.9896 1.2 -8.20923 5.01818e+06 -2.16226e+06 -119115 1.32141e+06 -1.43024e+06 2.15911e+06
204 3 O 5.291 34.5604 2.79288 -1.2 -8.53274 -2.48906e+06 -3.30596e+06 -2.68312e+06 1.09842e+06 -245054 -1.43219e+06
205 1 Mg -0.471101 33.2843 4.4844 1.2 -8.95704 -524947 2.00536e+06 3.66435e+06 -490918 -75801.3 210830
206 2 Si -2.26307 35.9684 4.4844 2.4 -33.5119 1.24077e+07 7.68477e+06 9.7754e+06 122980 -229210 564409
207 3 O -2.33122 34.3552 4.4844 -1.2 -9.18787 -4.45347e+06 363173 -4.17937e+06 398645 -6484.61 -286985
208 3 O 1.36549 36.9425 4.4844 -1.2 -8.92221 -3.98994e+06 -2.18876e+06 -3.62115e+06 2.30351e+06 -296978 -151349
209 3 O -1.52658 36.6746 3.18632 -1.2 -8.66408 -3.26971e+06 -2.98306e+06 -1.69934e+06 1.15606e+06 143753 -1.74207e+06
210 3 O -1.55122 36.6746 5.78248 -1.2 -8.59414 -3.40167e+06 -2.93865e+06 -2.39376e+06 1.20736e+06 84648.9 1.21582e+06
211 1 Mg 1.882 35.6175 2.9896 1.2 -8.27527 5.05122e+06 -2.08499e+06 -143864 -1.13392e+06 -1.46577e+06 -1.31868e+06
212 1 Mg 4.69415 35.5762 4.4844 1.2 -9.00798 -278300 1.97051e+06 3.66995e+06 1.27964e+06 -140029 212736
213 2 Si 2.88522 37.641 4.4844 2.4 -33.5458 1.23783e+07 7.98012e+06 9.51889e+06 740953 -149455 361436
214 3 O 2.91159 39.2543 4.4844 -1.2 -9.09591 -4.50364e+06 248909 -4.32051e+06 596873 -13182.5 -189570
215 3 O -3.74183 36.667 4.4844 -1.2 -8.97483 -4.10128e+06 -1.99141e+06 -3.57153e+06 -1.36376e+06 -314859 -250846
216 3 O 3.58014 36.9349 3.18632 -1.2 -8.69989 -3.23861e+06 -3.16986e+06 -1.73765e+06 -860316 217166 1.01475e+06
217 1 Mg 1.90997 35.6175 0 1.2 -6.42311 3.61834e+06 1.80334e+06 -3.27805e+06 -1.65658e+06 -768316 1.06124e+06
218 3 O 3.55582 36.9349 5.78248 -1.2 -8.64205 -3.3326e+06 -3.26531e+06 -2.37841e+06 -849613 -124183 -1.28229e+06
219 1 Mg -0.93068 35.6588 1.4948 1.2 -9.0739 -315875 2.03733e+06 5.0359e+06 1.84835e+06 -324896 341283
220 2 Si 0.881882 33.5939 1.4948 2.4 -34.4416 1.10956e+07 8.44453e+06 1.17736e+07 1.39357e+06 1.66963e+06 2.67756e+06
221 3 O 0.859602 31.9807 1.4948 -1.2 -7.02897 -6.67496e+06 59616 -1.57264e+07 1.15936e+06 -8.50048e+06 2.27209e+06
222 3 O 7.507 34.568 1.4948 -1.2 -9.32692 -4.84445e+06 -320188 -2.07386e+06 -935717 -410567 793533
223 3 O 0.210186 34.3001 0.196716 -1.2 -6.00333 -4.55618e+06 -1.34006e+07 -1.00967e+07 1.53572e+06 -7.94033e+06 -901238
224 3 O 0.184454 34.3001 2.79288 -1.2 -8.57996 -2.48895e+06 -3.45235e+06 -2.66656e+06 -819136 -204770 705670
225 1 Mg 7.07415 37.992 0 1.2 -6.48518 3.10455e+06 1.79748e+06 -3.04379e+06 1.8724e+06 -409422 -977356
226 1 Mg 4.36817 42.6997 1.4948 1.2 -9.0693 -987312 2.51073e+06 4.45455e+06 -991525 131867 172270
227 2 Si 6.16058 40.0155 1.4948 2.4 -34.1396 1.20524e+07 7.58786e+06 1.129e+07 -366262 1.32579e+06 -1.18217e+06
228 3 O 6.22815 41.6288 1.4948 -1.2 -8.41237 -6.40272e+06 39208 -7.20265e+06 30499.3 -4.52035e+06 -1.77345e+06
229 3 O 2.53282 39.0415 1.4948 -1.2 -9.24562 -4.60056e+06 -564880 -2.33991e+06 1.71551e+06 -346044 -1.16569e+06
230 3 O 5.44674 39.3094 0.196716 -1.2 -6.85599 -4.8502e+06 -1.03652e+07 -6.18285e+06 -155084 -5.77702e+06 1.54382e+06
231 1 Mg 7.04922 37.992 2.9896 1.2 -8.24969 5.07834e+06 -2.15441e+06 -111323 1.30539e+06 -1.47668e+06 2.14971e+06
232 3 O 5.42658 39.3094 2.79288 -1.2 -8.53085 -2.63917e+06 -3.34895e+06 -2.52367e+06 1.13031e+06 -298023 -1.40735e+06
233 1 Mg -0.333062 38.0333 4.4844 1.2 -9.0628 -449558 2.00826e+06 3.75258e+06 -420001 -151753 173292
234 2 Si -2.12255 40.7174 4.4844 2.4 -33.5661 1.23988e+07 8.16523e+06 9.39447e+06 47099.1 -206928 258972
235 3 O -2.19212 39.1042 4.4844 -1.2 -9.09966 -4.46544e+06 266395 -4.20819e+06 431440 -14956.8 -113706
236 3 O 1.50676 41.6915 4.4844 -1.2 -8.92228 -4.01901e+06 -2.33308e+06 -3.46116e+06 2.28847e+06 -271977 11687.5
237 3 O -1.3884 41.4236 3.18632 -1.2 -8.66053 -3.17715e+06 -3.20793e+06 -1.67736e+06 1.16687e+06 156251 -1.60145e+06
238 3 O -1.40713 41.4236 5.78248 -1.2 -8.59761 -3.43515e+06 -3.28459e+06 -1.91899e+06 1.27938e+06 86090.2 1.27517e+06
239 1 Mg 2.01892 40.3665 2.9896 1.2 -8.27738 5.08176e+06 -1.96412e+06 -278665 -1.08782e+06 -1.57945e+06 -1.35787e+06
240 1 Mg 4.83434 40.3252 4.4844 1.2 -9.03622 -179431 2.10836e+06 3.47797e+06 1.25062e+06 -114942 180570
241 2 Si 3.02698 42.39 4.4844 2.4 -33.5019 1.226e+07 8.35479e+06 9.18901e+06 892709 -74790.8 14856
242 3 O 3.05433 44.0033 4.4844 -1.2 -9.17985 -4.38177e+06 -82738.9 -3.97563e+06 563668 -97846.3 23373.7
243 3 O -3.60077 41.416 4.4844 -1.2 -8.9752 -4.11009e+06 -2.23414e+06 -3.32539e+06 -1.29771e+06 -220550 -179702
244 3 O 3.71851 41.6839 3.18632 -1.2 -8.70227 -3.14689e+06 -3.37155e+06 -1.73744e+06 -868764 227896 1.08831e+06
245 1 Mg 2.04077 40.3665 0 1.2 -6.46916 2.58243e+06 1.76452e+06 -3.55076e+06 -1.83585e+06 424379 1.83137e+06
246 3 O 3.70011 41.6839 5.78248 -1.2 -8.61219 -3.33971e+06 -3.38274e+06 -2.10238e+06 -1.02442e+06 -23276.8 -1.22418e+06
247 1 Mg -0.796865 40.4078 1.4948 1.2 -9.07948 -581794 2.29953e+06 4.65694e+06 1.74282e+06 36746.2 265834
248 2 Si 1.01387 38.3429 1.4948 2.4 -34.2642 1.1805e+07 7.78914e+06 1.14707e+07 1.52443e+06 1.45236e+06 2.52926e+06
249 3 O 0.989947 36.7297 1.4948 -1.2 -7.76933 -6.99733e+06 193400 -1.08527e+07 1.04463e+06 -6.63233e+06 1.66207e+06
250 3 O 7.63988 39.317 1.4948 -1.2 -9.29031 -4.71952e+06 -477463 -2.27358e+06 -927607 -258020 823754
251 3 O 0.340253 39.0491 0.196716 -1.2 -6.86177 -4.94051e+06 -1.12672e+07 -6.13617e+06 392957 -5.85395e+06 -1.81664e+06
252 3 O 0.319795 39.0491 2.79288 -1.2 -8.56888 -2.63103e+06 -3.47178e+06 -2.56051e+06 -853613 -199590 692039
253 1 Mg 7.20667 42.741 0 1.2 -6.48406 2.15243e+06 1.84025e+06 -3.60002e+06 1.99689e+06 916212 -1.92349e+06
254 1 Mg 4.50613 47.4487 1.4948 1.2 -8.96012 -1.12671e+06 2.82761e+06 3.89893e+06 -861029 450778 152774
255 2 Si 6.29731 44.7645 1.4948 2.4 -33.8254 1.21506e+07 7.55673e+06 1.06965e+07 -234736 904562 -1.16483e+06
256 3 O 6.36567 46.3778 1.4948 -1.2 -8.90456 -5.46742e+06 -203445 -5.00568e+06 180720 -2.69283e+06 -1.46136e+06
257 3 O 2.669 43.7905 1.4948 -1.2 -9.26222 -4.38413e+06 -992822 -2.37193e+06 1.71952e+06 -221145 -1.04659e+06
258 3 O 5.58048 44.0584 0.196716 -1.2 -7.64773 -4.65125e+06 -7.95581e+06 -3.55823e+06 320232 -3.71897e+06 2.21295e+06
259 1 Mg 7.1879 42.741 2.9896 1.2 -8.20635 4.98082e+06 -1.88287e+06 -341407 1.27302e+06 -1.60046e+06 2.03561e+06
260 3 O 5.56564 44.0584 2.79288 -1.2 -8.61252 -2.62593e+06 -3.58323e+06 -2.19583e+06 1.1322e+06 -301839 -1.28517e+06
261 1 Mg -0.19105 42.7823 4.4844 1.2 -9.0114 -478309 2.24868e+06 3.4553e+06 -466691 -118865 10086.2
262 2 Si -1.97909 45.4664 4.4844 2.4 -33.3969 1.19837e+07 8.88021e+06 8.82586e+06 89364.8 -363194 39999.3
263 3 O -2.04947 43.8532 4.4844 -1.2 -9.16019 -4.31686e+06 -36035.3 -3.95307e+06 475326 79934.3 -7759.25
264 3 O 1.65063 46.4405 4.4844 -1.2 -9.04803 -3.92014e+06 -2.77149e+06 -2.92079e+06 2.2855e+06 -223638 -67651.8
265 3 O -1.24745 46.1726 3.18632 -1.2 -8.73198 -2.98583e+06 -3.55336e+06 -1.51369e+06 1.13406e+06 171043 -1.52106e+06
266 3 O -1.26044 46.1726 5.78248 -1.2 -8.72804 -3.16683e+06 -3.67222e+06 -1.52478e+06 1.19224e+06 263179 1.47125e+06
267 1 Mg 2.15896 45.1155 2.9896 1.2 -8.19099 4.95632e+06 -1.59906e+06 -641036 -1.06742e+06 -1.64754e+06 -1.45437e+06
268 1 Mg 4.97763 45.0742 4.4844 1.2 -8.96175 -389218 2.47907e+06 3.19853e+06 1.25089e+06 1224.67 42029.8
269 2 Si 3.1711 47.139 4.4844 2.4 -33.3276 1.18912e+07 9.1579e+06 8.47914e+06 709225 58744.8 267615