ITEM: TIMESTEP
20500
ITEM: NUMBER OF ATOMS
10500
ITEM: BOX BOUNDS xy xz yz pp pp pp
0.0000000000000000e+00 1.5297749999999999e+01 5.0992499999999996e+00
0.0000000000000000e+00 1.1872499999999999e+02 0.0000000000000000e+00
0.0000000000000000e+00 8.9688000000000002e+01 0.0000000000000000e+00
ITEM: ATOMS id type element xu yu zu q c_pe c_s[1] c_s[2] c_s[3] c_s[4] c_s[5] c_s[6]
1 1 Mg 6.2404 -6.37941e-06 0 1.2 -4.41799 7.86744e+06 -1.73243e+06 -6.31831e+06 -12294.6 2.62264e+06 -164196
2 1 Mg 3.46349 4.70768 1.4948 1.2 -8.49031 -311282 2.88313e+06 4.12722e+06 -934317 -605575 112550
3 2 Si 5.2885 2.02354 1.4948 2.4 -35.2252 9.90509e+06 1.12949e+07 1.10294e+07 8.87457e+06 713195 -3.00868e+06
4 3 O 5.33628 3.63678 1.4948 -1.2 -4.72276 -792981 -1.6292e+06 -3.35091e+07 -337648 3.79975e+06 -3.91015e+06
5 3 O 1.67294 1.04952 1.4948 -1.2 -1.07624 -2.03052e+07 -7.9518e+07 -1.94691e+06 -2.41225e+07 -127133 -120857
6 3 O 4.59532 1.31737 0.196716 -1.2 -3.03859 -1.92147e+06 -6.83179e+06 -3.03565e+07 -6.0352e+06 6.23551e+06 -2.69883e+06
7 1 Mg 6.18956 -6.37941e-06 2.9896 1.2 -4.91021 1.47362e+06 -2.80776e+07 -3.06427e+06 -8.83681e+06 2.45304e+06 4.04211e+06
8 3 O 4.55118 1.31737 2.79288 -1.2 -7.52487 202279 -4.84626e+06 -3.03875e+06 -2.97171e+06 -3.42801e+06 -1.1388e+06
9 1 Mg -1.20682 0.0413099 4.4844 1.2 8.96113 -3.08002e+07 -9.32776e+07 -383061 -2.85152e+07 -1.27591e+06 143457
10 2 Si -3.0337 2.72544 4.4844 2.4 -33.1168 1.41726e+07 7.23866e+06 8.02273e+06 1.61609e+06 83143.5 -426383
11 3 O -3.08099 1.11221 4.4844 -1.2 -9.63106 -6.07168e+06 -112710 -2.08413e+06 -1.2263e+06 -200662 238582
12 3 O 0.582463 3.69946 4.4844 -1.2 -9.00662 -3.2699e+06 -5.51847e+06 -2.74128e+06 -546232 -103441 -158720
13 3 O -2.29524 3.43162 3.18632 -1.2 -9.0665 -4.17212e+06 -2.63633e+06 -500262 1.09509e+06 -802426 -995255
14 3 O -2.34216 3.43162 5.78248 -1.2 -8.82123 -3.82955e+06 -3.23054e+06 -1.73311e+06 834979 639980 1.11975e+06
15 1 Mg 1.12778 2.37449 2.9896 1.2 -7.57316 5.17497e+06 -1.52982e+06 -831048 -3.2909e+06 -4.19947e+06 -2.21337e+06
16 1 Mg 3.92855 2.33318 4.4844 1.2 -8.44273 -4.21797e+06 5.04504e+06 4.72742e+06 1.41285e+06 344878 529840
17 2 Si 2.09341 4.39804 4.4844 2.4 -32.3148 1.20667e+07 6.89412e+06 8.74078e+06 172171 -238865 606240
18 3 O 2.09991 6.01128 4.4844 -1.2 -9.51303 -4.04814e+06 -54450.7 -3.80443e+06 538411 -159144 -114306
19 3 O -4.52137 3.42402 4.4844 -1.2 -9.17178 -2.83301e+06 -2.98918e+06 -3.57249e+06 -2.44811e+06 -916075 -27075.7
20 3 O 2.80834 3.69187 3.18632 -1.2 -9.34774 -2.11972e+06 -2.93604e+06 -286323 458279 -514859 -523979
21 1 Mg 1.17857 2.37449 0 1.2 -5.12531 -606182 -1.46524e+07 -6.61225e+06 6.515e+06 1.20188e+06 4.61255e+06
22 3 O 2.76143 3.69187 5.78248 -1.2 -9.3978 -2.77029e+06 -2.42864e+06 -1.16876e+06 553364 -41287 -87267.5
23 1 Mg -1.67381 2.41581 1.4948 1.2 -7.56787 1.53897e+06 -69268.8 3.92198e+06 1.35123e+06 -601546 1.0489e+06
24 2 Si 0.16286 0.350945 1.4948 2.4 -24.4993 -8.2537e+06 1.26772e+07 1.11268e+07 1.57308e+06 2.81529e+06 1.24883e+06
25 3 O 0.15972 -1.26229 1.4948 -1.2 -4.79495 -1.06415e+07 -8.10185e+06 -2.88595e+07 -5.59787e+06 -8.5212e+06 -2.66272e+06
26 3 O 6.77654 1.32496 1.4948 -1.2 -10.3727 -5.69101e+06 1.62673e+06 -1.26049e+06 -645499 -643764 1.04073e+06
27 3 O -0.508028 1.05712 0.196716 -1.2 -9.54167 112272 -4.81626e+06 -540084 -543259 205311 -4.57914e+06
28 3 O -0.552171 1.05712 2.79288 -1.2 -6.83216 -5.30022e+06 -4.71647e+06 -2.45203e+07 1.43352e+06 -6.76085e+06 -5.54748e+06
29 1 Mg 6.31713 4.74899 0 1.2 -4.96519 405023 -1.26803e+07 -6.32189e+06 -7.30846e+06 1.43406e+06 -3.57258e+06
30 1 Mg 3.54847 9.45668 1.4948 1.2 -8.38942 363541 1.9367e+06 4.2158e+06 -955523 -914195 -254633
31 2 Si 5.36879 6.77254 1.4948 2.4 -34.3733 7.38511e+06 1.24543e+07 1.11809e+07 1.6614e+06 181392 -1.87516e+06
32 3 O 5.41937 8.38578 1.4948 -1.2 -4.70648 -393282 -1.14955e+06 -3.50187e+07 767306 1.09606e+06 -4.28174e+06
33 3 O 1.75158 5.79852 1.4948 -1.2 -9.4777 -4.05233e+06 -2.54568e+06 -1.22936e+06 1.96766e+06 -1.59035e+06 -1.38425e+06
34 3 O 4.67421 6.06637 0.196716 -1.2 -3.7288 84586.8 -1.03482e+07 -3.1242e+07 -2.01164e+06 1.28535e+06 -4.47695e+06
35 1 Mg 6.26654 4.74899 2.9896 1.2 -8.03936 4.08974e+06 -1.53361e+06 -105363 1.80485e+06 -824984 1.95806e+06
36 3 O 4.63043 6.06637 2.79288 -1.2 -8.83165 -1.62966e+06 -4.12437e+06 -2.05241e+06 940057 -148152 -1.48494e+06
37 1 Mg -1.12976 4.79031 4.4844 1.2 -8.79401 -610814 2.80544e+06 2.76333e+06 -697575 -502262 -70362.3
38 2 Si -2.9517 7.47444 4.4844 2.4 -32.8971 1.12771e+07 9.14675e+06 8.44069e+06 24447.9 -65647.6 -195097
39 3 O -3.00198 5.86121 4.4844 -1.2 -9.41334 -3.95292e+06 -229955 -3.74918e+06 54436.1 -215201 75867.2
40 3 O 0.666315 8.44846 4.4844 -1.2 -9.27148 -3.44086e+06 -2.72008e+06 -3.05133e+06 2.10674e+06 -446899 82244.9
41 3 O -2.21213 8.18062 3.18632 -1.2 -9.06114 -2.9742e+06 -3.55598e+06 -491543 1.10449e+06 -278149 -1.43047e+06
42 3 O -2.25864 8.18062 5.78248 -1.2 -8.99129 -2.93661e+06 -3.7894e+06 -1.5564e+06 1.04829e+06 -90328.1 1.50678e+06
43 1 Mg 1.20893 7.12349 2.9896 1.2 -8.01348 4.19298e+06 -1.47954e+06 -324922 -1.27767e+06 -1.34535e+06 -1.65812e+06
44 1 Mg 4.00982 7.08218 4.4844 1.2 -8.67936 -831337 2.6489e+06 3.00861e+06 1.00357e+06 -197420 132890
45 2 Si 2.17861 9.14704 4.4844 2.4 -32.8487 1.13612e+07 9.11816e+06 8.28043e+06 606398 64308.1 20767.7
46 3 O 2.18828 10.7603 4.4844 -1.2 -9.45728 -4.00802e+06 -372982 -3.59772e+06 472757 -254453 31021.3
47 3 O -4.43805 8.17302 4.4844 -1.2 -9.27724 -3.32803e+06 -2.76822e+06 -3.07159e+06 -1.49176e+06 -483952 -21779.6
48 3 O 2.89193 8.44087 3.18632 -1.2 -9.07873 -2.85926e+06 -3.7214e+06 -564842 -926999 -262781 1.24763e+06
49 1 Mg 1.25915 7.12349 0 1.2 -5.36992 1.07386e+06 -7.37007e+06 -6.54652e+06 5.89703e+06 1.36622e+06 2.66567e+06
50 3 O 2.84547 8.44087 5.78248 -1.2 -9.00339 -2.91991e+06 -3.80252e+06 -1.74742e+06 -933188 -280901 -1.23435e+06
51 1 Mg -1.59284 7.16481 1.4948 1.2 -8.28927 883130 1.54793e+06 4.12355e+06 1.45743e+06 -930486 364981
52 2 Si 0.240329 5.09994 1.4948 2.4 -34.0927 8.37965e+06 1.12732e+07 1.09185e+07 -1.96314e+06 -1.10145e+06 2.01181e+06
53 3 O 0.234538 3.48671 1.4948 -1.2 -5.22837 -1.78958e+06 245813 -3.36139e+07 404351 5.19999e+06 3.92794e+06
54 3 O 6.85564 6.07396 1.4948 -1.2 -9.54988 -4.44182e+06 -2.0032e+06 -1.22822e+06 -1.34182e+06 -1.83471e+06 1.13909e+06
55 3 O -0.429565 5.80612 0.196716 -1.2 -3.98477 -744043 -8.98052e+06 -3.13279e+07 1.85333e+06 1.20904e+06 4.52045e+06
56 3 O -0.473377 5.80612 2.79288 -1.2 -8.92572 -2.18153e+06 -3.67358e+06 -1.90144e+06 -783998 348885 1.29277e+06
57 1 Mg 6.40169 9.49799 0 1.2 -5.35715 1.66664e+06 -6.22329e+06 -6.79557e+06 -5.49036e+06 1.00255e+06 -2.3682e+06
58 1 Mg 3.64209 14.2057 1.4948 1.2 -8.50286 360458 1.94079e+06 4.35564e+06 -1.03887e+06 -976630 -157006
59 2 Si 5.45748 11.5215 1.4948 2.4 -34.4196 7.77226e+06 1.21149e+07 1.11834e+07 902515 355551 -1.9788e+06
60 3 O 5.51101 13.1348 1.4948 -1.2 -4.70185 -648286 -1.05286e+06 -3.4688e+07 464078 -2.54937e+06 -4.45769e+06
61 3 O 1.83851 10.5475 1.4948 -1.2 -9.51207 -4.34417e+06 -2.07471e+06 -1.08159e+06 1.54106e+06 -1.5813e+06 -1.16851e+06
62 3 O 4.7611 10.8154 0.196716 -1.2 -3.53687 450195 -1.16813e+07 -3.18047e+07 -2.47223e+06 -1.75634e+06 -4.38842e+06
63 1 Mg 6.35203 9.49799 2.9896 1.2 -8.01479 4.1428e+06 -1.41486e+06 -318801 1.31337e+06 -1.19652e+06 2.01626e+06
64 3 O 4.71833 10.8154 2.79288 -1.2 -8.82149 -1.89362e+06 -3.97687e+06 -1.96153e+06 1.04636e+06 11686.1 -1.34927e+06
65 1 Mg -1.0438 9.53931 4.4844 1.2 -8.68396 -830410 2.67907e+06 2.89669e+06 -575624 -329659 -85528
66 2 Si -2.8604 12.2234 4.4844 2.4 -32.9417 1.13522e+07 9.38333e+06 8.2025e+06 40081.7 -123642 181028
67 3 O -2.91391 10.6102 4.4844 -1.2 -9.44995 -3.93246e+06 -393198 -3.55298e+06 209230 -133262 -32783.8
68 3 O 0.7596 13.1975 4.4844 -1.2 -9.20507 -3.46185e+06 -2.92287e+06 -2.94366e+06 2.17212e+06 -455586 -147747
69 3 O -2.12001 12.9296 3.18632 -1.2 -8.99895 -2.98386e+06 -3.66421e+06 -478503 1.13571e+06 -215246 -1.64948e+06
70 3 O -2.16532 12.9296 5.78248 -1.2 -8.93442 -2.90827e+06 -3.97923e+06 -1.48845e+06 1.04583e+06 12040.4 1.25308e+06
71 1 Mg 1.29891 11.8725 2.9896 1.2 -8.04849 4.2925e+06 -1.33816e+06 -512989 -1.19537e+06 -1.22417e+06 -1.6016e+06
72 1 Mg 4.10033 11.8312 4.4844 1.2 -8.70505 -697861 2.75402e+06 2.81374e+06 1.11129e+06 -237134 45963.2
73 2 Si 2.27333 13.896 4.4844 2.4 -32.991 1.16061e+07 9.32202e+06 8.05183e+06 556288 -134990 456553
74 3 O 2.28634 15.5093 4.4844 -1.2 -9.32189 -4.22623e+06 -232697 -3.74049e+06 500024 -103075 -215751
75 3 O -4.34533 12.922 4.4844 -1.2 -9.24381 -3.48794e+06 -2.82554e+06 -2.91101e+06 -1.50762e+06 -513756 -140431
76 3 O 2.98455 13.1899 3.18632 -1.2 -9.02733 -3.00624e+06 -3.75999e+06 -487326 -932069 -158346 1.16997e+06
77 1 Mg 1.34779 11.8725 0 1.2 -5.61078 2.98359e+06 -2.62368e+06 -6.91834e+06 3.56516e+06 795295 1.70709e+06
78 3 O 2.93934 13.1899 5.78248 -1.2 -9.00816 -2.97505e+06 -4.10209e+06 -1.28575e+06 -790516 -156960 -1.33322e+06
79 1 Mg -1.50344 11.9138 1.4948 1.2 -8.41776 633814 1.92039e+06 4.19007e+06 1.56509e+06 -946576 519621
80 2 Si 0.326006 9.84894 1.4948 2.4 -34.3475 7.85231e+06 1.21342e+07 1.09409e+07 -609352 101474 2.41479e+06
81 3 O 0.317364 8.23571 1.4948 -1.2 -4.71594 -556158 -1.00412e+06 -3.51157e+07 -124665 1.18721e+06 4.1386e+06
82 3 O 6.94307 10.823 1.4948 -1.2 -9.54255 -4.45374e+06 -1.90246e+06 -1.05442e+06 -987463 -1.52994e+06 972788
83 3 O -0.343122 10.5551 0.196716 -1.2 -3.6408 126836 -1.11387e+07 -3.18224e+07 2.46666e+06 -2.0534e+06 4.39796e+06
84 3 O -0.385966 10.5551 2.79288 -1.2 -8.86549 -1.97325e+06 -4.03172e+06 -1.90241e+06 -856008 108335 1.07055e+06
85 1 Mg 6.49448 14.247 0 1.2 -5.60882 3.44543e+06 -1.86597e+06 -6.95613e+06 -2.96959e+06 273853 -1.4018e+06
86 1 Mg 3.74457 18.9547 1.4948 1.2 -8.64005 261021 1.93003e+06 4.60847e+06 -1.1187e+06 -981698 -153447
87 2 Si 5.55495 16.2705 1.4948 2.4 -34.5308 8.28357e+06 1.15378e+07 1.14459e+07 533450 838620 -1.97847e+06
88 3 O 5.6115 17.8838 1.4948 -1.2 -4.9522 -1.78805e+06 -791825 -3.21771e+07 75180.9 -6.08315e+06 -4.27148e+06
89 3 O 1.93416 15.2965 1.4948 -1.2 -9.48371 -4.51635e+06 -1.64983e+06 -1.12997e+06 1.54119e+06 -1.34796e+06 -1.19435e+06
90 3 O 4.85636 15.5644 0.196716 -1.2 -3.50684 380883 -1.32772e+07 -3.03541e+07 -3.03161e+06 -5.12959e+06 -3.8524e+06
91 1 Mg 6.44662 14.247 2.9896 1.2 -8.07189 4.35752e+06 -1.4648e+06 -393102 1.30875e+06 -1.16271e+06 2.17322e+06
92 3 O 4.81537 15.5644 2.79288 -1.2 -8.72763 -2.07468e+06 -3.87271e+06 -2.06687e+06 1.0659e+06 -39386.1 -1.45983e+06
93 1 Mg -0.948271 14.2883 4.4844 1.2 -8.80144 -779900 2.71274e+06 2.99339e+06 -526053 -300495 218300
94 2 Si -2.75928 16.9724 4.4844 2.4 -33.2823 1.1868e+07 8.92022e+06 8.69825e+06 -120.729 42337.1 414211
95 3 O -2.81617 15.3592 4.4844 -1.2 -9.31505 -4.11391e+06 -298695 -3.67499e+06 241866 -212815 -244287
96 3 O 0.862762 17.9465 4.4844 -1.2 -9.02725 -3.69321e+06 -2.66221e+06 -3.25782e+06 2.19489e+06 -391196 -50847.6
97 3 O -2.0185 17.6786 3.18632 -1.2 -8.86971 -3.12867e+06 -3.46476e+06 -758906 1.16215e+06 -170935 -1.66094e+06
98 3 O -2.06164 17.6786 5.78248 -1.2 -8.65246 -3.23609e+06 -3.67716e+06 -1.90403e+06 1.15542e+06 -102786 1.1874e+06
99 1 Mg 1.39817 16.6215 2.9896 1.2 -8.14901 4.53026e+06 -1.54448e+06 -385425 -1.17778e+06 -1.27537e+06 -1.49363e+06
100 1 Mg 4.20062 16.5802 4.4844 1.2 -8.84257 -338562 2.49049e+06 2.93953e+06 1.15853e+06 -278505 229668
101 2 Si 2.37796 18.645 4.4844 2.4 -33.2834 1.21627e+07 8.86098e+06 8.4242e+06 695947 -269452 134116
102 3 O 2.39434 20.2583 4.4844 -1.2 -9.23022 -4.41563e+06 -197008 -3.73335e+06 497947 -62347.7 -4292.94
103 3 O -4.24274 17.671 4.4844 -1.2 -9.08856 -3.82948e+06 -2.54217e+06 -3.09885e+06 -1.45408e+06 -572277 -199047
104 3 O 3.08659 17.9389 3.18632 -1.2 -8.91285 -3.20833e+06 -3.55162e+06 -715303 -940414 -37803 1.18225e+06
105 1 Mg 1.44478 16.6215 0 1.2 -5.76949 4.71436e+06 202621 -6.77845e+06 1.39947e+06 -91119 1.00043e+06
106 3 O 3.0436 17.9389 5.78248 -1.2 -8.77149 -3.44944e+06 -3.69384e+06 -1.61976e+06 -922200 -44989.4 -1.20897e+06
107 1 Mg -1.40524 16.6628 1.4948 1.2 -8.56512 552959 1.90676e+06 4.47301e+06 1.69096e+06 -957031 520666
108 2 Si 0.420358 14.5979 1.4948 2.4 -34.4772 8.11631e+06 1.18535e+07 1.11495e+07 -139754 532935 2.81467e+06
109 3 O 0.408732 12.9847 1.4948 -1.2 -4.6967 -705062 -1.03966e+06 -3.47868e+07 228621 -2.55173e+06 4.11561e+06
110 3 O 7.03923 15.572 1.4948 -1.2 -9.51354 -4.61815e+06 -1.49708e+06 -1.10063e+06 -951132 -1.33453e+06 857669
111 3 O -0.248332 15.3041 0.196716 -1.2 -3.61751 19210.6 -1.2807e+07 -3.03383e+07 3.25272e+06 -5.4144e+06 3.86589e+06
112 3 O -0.289436 15.3041 2.79288 -1.2 -8.75773 -2.03347e+06 -3.98543e+06 -2.10301e+06 -852334 56654.1 877039
113 1 Mg 6.59566 18.996 0 1.2 -5.7696 4.89898e+06 583326 -6.55817e+06 -913360 -633383 -809495
114 1 Mg 3.85574 23.7037 1.4948 1.2 -8.73141 2973.05 2.16631e+06 4.63676e+06 -1.19523e+06 -919557 -193184
115 2 Si 5.66125 21.0195 1.4948 2.4 -34.5257 8.86291e+06 1.1014e+07 1.14442e+07 181287 1.28797e+06 -2.18265e+06
116 3 O 5.72074 22.6328 1.4948 -1.2 -5.5374 -3.50321e+06 -704277 -2.72708e+07 -215083 -8.54363e+06 -3.72542e+06
117 3 O 2.03867 20.0455 1.4948 -1.2 -9.46204 -4.60862e+06 -1.2899e+06 -1.22983e+06 1.57361e+06 -1.11136e+06 -1.06857e+06
118 3 O 4.96004 20.3134 0.196716 -1.2 -3.80557 -387686 -1.45838e+07 -2.66143e+07 -3.18029e+06 -7.95371e+06 -2.84277e+06
119 1 Mg 6.55057 18.996 2.9896 1.2 -8.15487 4.601e+06 -1.6517e+06 -316170 1.30628e+06 -1.14283e+06 2.08613e+06
120 3 O 4.92172 20.3134 2.79288 -1.2 -8.65013 -2.19511e+06 -3.81903e+06 -2.16055e+06 1.08192e+06 -120332 -1.32119e+06
121 1 Mg -0.84282 19.0373 4.4844 1.2 -8.95761 -637079 2.53148e+06 3.27311e+06 -535025 -310110 25261.4
122 2 Si -2.64823 21.7214 4.4844 2.4 -33.4111 1.20129e+07 9.0981e+06 8.58431e+06 9188.5 24699.1 3210.15
123 3 O -2.70847 20.1082 4.4844 -1.2 -9.1944 -4.25467e+06 -217517 -3.79867e+06 313849 -212849 -14619.9
124 3 O 0.97581 22.6955 4.4844 -1.2 -8.99376 -3.77712e+06 -2.78857e+06 -3.10323e+06 2.20802e+06 -367997 59242.4
125 3 O -1.9076 22.4276 3.18632 -1.2 -8.81964 -3.15918e+06 -3.54184e+06 -769137 1.15902e+06 -80966.3 -1.52001e+06
126 3 O -1.9475 22.4276 5.78248 -1.2 -8.61277 -3.22693e+06 -3.88261e+06 -1.76429e+06 1.14212e+06 -86078.8 1.38517e+06
127 1 Mg 1.50678 21.3705 2.9896 1.2 -8.18679 4.70428e+06 -1.54134e+06 -502110 -1.16118e+06 -1.31336e+06 -1.59736e+06
128 1 Mg 4.31086 21.3292 4.4844 1.2 -8.91084 -211159 2.54341e+06 2.87001e+06 1.1693e+06 -240176 56028.7
129 2 Si 2.49243 23.394 4.4844 2.4 -33.3452 1.22728e+07 9.08354e+06 8.19359e+06 722982 -270518 -35976.4
130 3 O 2.51204 25.0073 4.4844 -1.2 -9.20571 -4.44983e+06 -284319 -3.65476e+06 540951 -46165.2 53163.2
131 3 O -4.13026 22.42 4.4844 -1.2 -9.04559 -3.92324e+06 -2.653e+06 -2.96427e+06 -1.38679e+06 -566147 -54603.5
132 3 O 3.19799 22.6879 3.18632 -1.2 -8.87037 -3.24662e+06 -3.63894e+06 -714069 -917565 44582.8 1.28233e+06
133 1 Mg 1.5501 21.3705 0 1.2 -5.84524 5.60073e+06 1.6902e+06 -6.25301e+06 -70794.7 -1.0147e+06 516966
134 3 O 3.1583 22.6879 5.78248 -1.2 -8.73225 -3.46573e+06 -3.84585e+06 -1.58114e+06 -929909 -7794.54 -1.13204e+06
135 1 Mg -1.29822 21.4118 1.4948 1.2 -8.67894 360806 2.04735e+06 4.60253e+06 1.81064e+06 -939579 352617
136 2 Si 0.523568 19.3469 1.4948 2.4 -34.5457 8.61768e+06 1.125e+07 1.13895e+07 305580 929696 2.78435e+06
137 3 O 0.508934 17.7337 1.4948 -1.2 -4.94427 -1.8274e+06 -784937 -3.22918e+07 671145 -6.05443e+06 3.94052e+06
138 3 O 7.14425 20.321 1.4948 -1.2 -9.49644 -4.70916e+06 -1.15251e+06 -1.19061e+06 -940011 -1.10894e+06 923217
139 3 O -0.145107 20.0531 0.196716 -1.2 -3.91426 -790639 -1.42469e+07 -2.65773e+07 3.67644e+06 -8.18594e+06 2.9831e+06
140 3 O -0.183601 20.0531 2.79288 -1.2 -8.67653 -2.12702e+06 -3.94341e+06 -2.23107e+06 -842759 23054.5 981966
141 1 Mg 6.70502 23.745 0 1.2 -5.85307 5.41099e+06 1.91905e+06 -5.8884e+06 416670 -1.46032e+06 -557391
142 1 Mg 3.97493 28.4527 1.4948 1.2 -8.82237 -312857 2.34531e+06 4.68669e+06 -1.23032e+06 -783430 -278313
143 2 Si 5.77602 25.7685 1.4948 2.4 -34.3909 9.52975e+06 1.05519e+07 1.11109e+07 -123119 1.59956e+06 -2.40721e+06
144 3 O 5.83821 27.3818 1.4948 -1.2 -6.33465 -5.26472e+06 -585622 -2.11154e+07 -335797 -9.31828e+06 -2.95819e+06
145 3 O 2.15175 24.7945 1.4948 -1.2 -9.47288 -4.57497e+06 -1.15773e+06 -1.24411e+06 1.61941e+06 -891571 -909676
146 3 O 5.07184 25.0624 0.196716 -1.2 -4.44733 -1.65222e+06 -1.53059e+07 -2.09784e+07 -2.77953e+06 -9.44799e+06 -1.43157e+06
147 1 Mg 6.66374 23.745 2.9896 1.2 -8.16068 4.72525e+06 -1.5863e+06 -493594 1.3112e+06 -1.18222e+06 1.95445e+06
148 3 O 5.03707 25.0624 2.79288 -1.2 -8.63445 -2.23884e+06 -3.90346e+06 -2.0972e+06 1.10411e+06 -182425 -1.18799e+06
149 1 Mg -0.727559 23.7863 4.4844 1.2 -8.98718 -633434 2.66001e+06 3.18107e+06 -480839 -286295 -48477
150 2 Si -2.5277 26.4704 4.4844 2.4 -33.4264 1.21378e+07 9.17085e+06 8.41683e+06 79184.8 50150.6 -174530
151 3 O -2.59107 24.8572 4.4844 -1.2 -9.17812 -4.30972e+06 -300381 -3.6786e+06 335581 -186132 69625.4
152 3 O 1.09817 27.4445 4.4844 -1.2 -8.96595 -3.79938e+06 -2.81892e+06 -3.10279e+06 2.22979e+06 -328971 104576
153 3 O -1.78784 27.1766 3.18632 -1.2 -8.79554 -3.1542e+06 -3.57474e+06 -836958 1.15225e+06 -18627.5 -1.40388e+06
154 3 O -1.82343 27.1766 5.78248 -1.2 -8.60666 -3.23769e+06 -3.91037e+06 -1.71032e+06 1.11263e+06 -170686 1.46277e+06
155 1 Mg 1.62435 26.1195 2.9896 1.2 -8.18855 4.78942e+06 -1.49145e+06 -631266 -1.15269e+06 -1.36574e+06 -1.66468e+06
156 1 Mg 4.43064 26.0782 4.4844 1.2 -8.93007 -211928 2.5976e+06 2.84898e+06 1.17158e+06 -223121 -39140.9
157 2 Si 2.61607 28.143 4.4844 2.4 -33.3926 1.22867e+07 9.09893e+06 8.23756e+06 753746 -329961 -139764
158 3 O 2.63853 29.7563 4.4844 -1.2 -9.17249 -4.45254e+06 -210673 -3.78282e+06 529859 -11955.2 124887
159 3 O -4.00841 27.169 4.4844 -1.2 -9.04927 -4.00693e+06 -2.6859e+06 -2.84651e+06 -1.35196e+06 -502891 39160
160 3 O 3.3182 27.4369 3.18632 -1.2 -8.84509 -3.22088e+06 -3.68681e+06 -810275 -892301 140907 1.37347e+06
161 1 Mg 1.66335 26.1195 0 1.2 -5.9179 5.41025e+06 2.35448e+06 -5.39117e+06 -901872 -1.60595e+06 169367
162 3 O 3.28288 27.4369 5.78248 -1.2 -8.72321 -3.43442e+06 -3.91959e+06 -1.4248e+06 -880020 -22810.5 -1.12557e+06
163 1 Mg -1.18278 26.1608 1.4948 1.2 -8.76632 53500.6 2.27844e+06 4.62652e+06 1.89491e+06 -835850 122916
164 2 Si 0.635424 24.0959 1.4948 2.4 -34.4559 9.14777e+06 1.08852e+07 1.11479e+07 752386 1.29715e+06 2.56699e+06
165 3 O 0.617906 22.4827 1.4948 -1.2 -5.52841 -3.53979e+06 -696321 -2.73913e+07 1.01029e+06 -8.5031e+06 3.59789e+06
166 3 O 7.25781 25.07 1.4948 -1.2 -9.51236 -4.69593e+06 -1.0254e+06 -1.18556e+06 -939101 -868716 1.05354e+06
167 3 O -0.0337363 24.8021 0.196716 -1.2 -4.53844 -1.99485e+06 -1.52636e+07 -2.09437e+07 3.49799e+06 -9.61594e+06 1.86111e+06
168 3 O -0.0687235 24.8021 2.79288 -1.2 -8.66003 -2.15608e+06 -4.0495e+06 -2.17389e+06 -844298 -38104.4 1.04704e+06
169 1 Mg 6.82195 28.494 0 1.2 -5.97779 4.98078e+06 2.36928e+06 -4.82903e+06 1.16203e+06 -1.81719e+06 -671910
170 1 Mg 4.10106 33.2017 1.4948 1.2 -8.90598 -661656 2.44804e+06 4.72627e+06 -1.20349e+06 -545724 -404981
171 2 Si 5.89839 30.5175 1.4948 2.4 -34.2372 1.03359e+07 9.72927e+06 1.09642e+07 -342323 1.69707e+06 -2.62159e+06
172 3 O 5.96289 32.1308 1.4948 -1.2 -7.1743 -6.43636e+06 -374013 -1.51547e+07 -283241 -8.45259e+06 -2.14077e+06
173 3 O 2.27266 29.5435 1.4948 -1.2 -9.45829 -4.52009e+06 -987464 -1.44469e+06 1.65641e+06 -692303 -706904
174 3 O 5.19102 29.8114 0.196716 -1.2 -5.27754 -3.05832e+06 -1.48004e+07 -1.49454e+07 -1.93545e+06 -9.29351e+06 86675.2
175 1 Mg 6.78546 28.494 2.9896 1.2 -8.15249 4.83901e+06 -1.61987e+06 -581408 1.30467e+06 -1.24966e+06 1.81557e+06
176 3 O 5.16061 29.8114 2.79288 -1.2 -8.62534 -2.30894e+06 -3.83815e+06 -2.14666e+06 1.12304e+06 -225633 -1.03644e+06
177 1 Mg -0.603205 28.5353 4.4844 1.2 -9.0162 -638282 2.61251e+06 3.27347e+06 -448916 -207021 -114497
178 2 Si -2.39877 31.2194 4.4844 2.4 -33.4283 1.22905e+07 8.81162e+06 8.62991e+06 1246.96 -66840 -540083
179 3 O -2.46483 29.6062 4.4844 -1.2 -9.16844 -4.38286e+06 -181521 -3.7331e+06 414112 -160587 149732
180 3 O 1.22864 32.1935 4.4844 -1.2 -8.9645 -3.81641e+06 -2.71275e+06 -3.20086e+06 2.22003e+06 -367960 319368
181 3 O -1.66032 31.9256 3.18632 -1.2 -8.7829 -3.15185e+06 -3.48619e+06 -1.02697e+06 1.16291e+06 61249.5 -1.18864e+06
182 3 O -1.69072 31.9256 5.78248 -1.2 -8.64083 -3.37645e+06 -3.64031e+06 -1.70527e+06 1.17274e+06 -86128.2 1.78671e+06
183 1 Mg 1.7499 30.8685 2.9896 1.2 -8.19317 4.85335e+06 -1.58754e+06 -585064 -1.11583e+06 -1.41343e+06 -1.80789e+06
184 1 Mg 4.55894 30.8272 4.4844 1.2 -8.96106 -231082 2.46706e+06 3.04979e+06 1.1956e+06 -208442 -119363
185 2 Si 2.7476 32.892 4.4844 2.4 -33.4111 1.212e+07 8.90686e+06 8.63062e+06 794215 -199838 -560808
186 3 O 2.77235 34.5053 4.4844 -1.2 -9.20457 -4.31436e+06 -193711 -3.88851e+06 577973 -27417.4 333549
187 3 O -3.87837 31.918 4.4844 -1.2 -9.0471 -4.04043e+06 -2.51968e+06 -2.97997e+06 -1.28768e+06 -363015 224282
188 3 O 3.44611 32.1859 3.18632 -1.2 -8.81903 -3.14239e+06 -3.60967e+06 -1.09853e+06 -883943 200359 1.54093e+06
189 1 Mg 1.7837 30.8685 0 1.2 -6.06273 4.47177e+06 2.41443e+06 -4.34127e+06 -1.35309e+06 -1.52657e+06 66730.2
190 3 O 3.41602 32.1859 5.78248 -1.2 -8.64052 -3.35876e+06 -3.75503e+06 -1.87537e+06 -912370 -79183 -987050
191 1 Mg -1.05984 30.9098 1.4948 1.2 -8.85826 -268706 2.37993e+06 4.69272e+06 1.90944e+06 -625728 -155180
192 2 Si 0.755243 28.8449 1.4948 2.4 -34.3262 9.83491e+06 1.019e+07 1.10331e+07 1.14452e+06 1.5561e+06 2.10829e+06
193 3 O 0.735127 27.2317 1.4948 -1.2 -6.32217 -5.27684e+06 -581920 -2.12639e+07 1.17232e+06 -9.29093e+06 3.15503e+06
194 3 O 7.37914 29.819 1.4948 -1.2 -9.50204 -4.6672e+06 -852442 -1.37105e+06 -930591 -634489 1.24645e+06
195 3 O 0.0850649 29.5511 0.196716 -1.2 -5.33772 -3.26405e+06 -1.51544e+07 -1.49353e+07 2.7008e+06 -9.42472e+06 727726
196 3 O 0.0543974 29.5511 2.79288 -1.2 -8.6492 -2.2177e+06 -3.99051e+06 -2.23974e+06 -849876 -116897 1.16808e+06
197 1 Mg 6.94543 33.243 0 1.2 -6.15226 3.95471e+06 2.34211e+06 -3.82276e+06 1.57602e+06 -1.4505e+06 -1.07679e+06
198 1 Mg 4.23267 37.9507 1.4948 1.2 -8.92836 -1.02339e+06 2.61971e+06 4.53771e+06 -1.12042e+06 -227240 -346655
199 2 Si 6.02709 35.2665 1.4948 2.4 -34.0319 1.10363e+07 8.91216e+06 1.08018e+07 -418924 1.59982e+06 -2.64739e+06
200 3 O 6.09339 36.8798 1.4948 -1.2 -7.95575 -6.66483e+06 -265578 -1.02762e+07 -134447 -6.61135e+06 -1.58623e+06
201 3 O 2.40018 34.2925 1.4948 -1.2 -9.43494 -4.43399e+06 -886161 -1.72162e+06 1.68832e+06 -513804 -532865
202 3 O 5.31645 34.5604 0.196716 -1.2 -6.17054 -4.11828e+06 -1.31026e+07 -9.71571e+06 -948673 -7.84193e+06 1.38485e+06
203 1 Mg 6.91449 33.243 2.9896 1.2 -8.12907 4.88948e+06 -1.69693e+06 -584113 1.30082e+06 -1.38031e+06 1.60573e+06
204 3 O 5.291 34.5604 2.79288 -1.2 -8.65198 -2.33806e+06 -3.77859e+06 -2.16988e+06 1.12201e+06 -253341 -851224
205 1 Mg -0.471101 33.2843 4.4844 1.2 -8.96938 -630262 2.56997e+06 3.22561e+06 -437243 -117982 -317672
206 2 Si -2.26307 35.9684 4.4844 2.4 -33.287 1.20591e+07 8.79749e+06 8.65396e+06 77386.4 -96768 -566522
207 3 O -2.33122 34.3552 4.4844 -1.2 -9.23156 -4.34535e+06 -190961 -3.65266e+06 411724 -77161.5 285475
208 3 O 1.36549 36.9425 4.4844 -1.2 -9.05754 -3.72116e+06 -2.74607e+06 -3.12069e+06 2.25774e+06 -302537 377507
209 3 O -1.52658 36.6746 3.18632 -1.2 -8.81719 -3.02359e+06 -3.49311e+06 -1.18861e+06 1.16094e+06 114853 -1.13327e+06
210 3 O -1.55122 36.6746 5.78248 -1.2 -8.71164 -3.1675e+06 -3.52655e+06 -1.90354e+06 1.22111e+06 -25173.7 1.67283e+06
211 1 Mg 1.882 35.6175 2.9896 1.2 -8.14848 4.82791e+06 -1.59204e+06 -616615 -1.11154e+06 -1.48779e+06 -1.90698e+06
212 1 Mg 4.69415 35.5762 4.4844 1.2 -8.90105 -377909 2.50992e+06 3.05792e+06 1.24549e+06 -180816 -302736
213 2 Si 2.88522 37.641 4.4844 2.4 -33.2143 1.17342e+07 9.09958e+06 8.50709e+06 829047 -186270 -585932
214 3 O 2.91159 39.2543 4.4844 -1.2 -9.30572 -4.08239e+06 -283548 -3.88005e+06 563941 -38029.8 239740
215 3 O -3.74183 36.667 4.4844 -1.2 -9.12768 -3.93352e+06 -2.53667e+06 -2.94832e+06 -1.30984e+06 -323781 270183
216 3 O 3.58014 36.9349 3.18632 -1.2 -8.85734 -2.97615e+06 -3.6796e+06 -1.24108e+06 -867966 244622 1.58031e+06
217 1 Mg 1.90997 35.6175 0 1.2 -6.21979 3.2842e+06 2.22026e+06 -3.6866e+06 -1.64619e+06 -774586 421794
218 3 O 3.55582 36.9349 5.78248 -1.2 -8.78362 -3.05579e+06 -3.9183e+06 -1.67443e+06 -921719 -50156 -938044
219 1 Mg -0.93068 35.6588 1.4948 1.2 -8.90796 -592129 2.4906e+06 4.59302e+06 1.85237e+06 -316409 -294824
220 2 Si 0.881882 33.5939 1.4948 2.4 -34.152 1.05973e+07 9.33232e+06 1.09203e+07 1.41787e+06 1.63264e+06 1.54793e+06
221 3 O 0.859602 31.9807 1.4948 -1.2 -7.16085 -6.44547e+06 -373029 -1.53113e+07 1.15282e+06 -8.47223e+06 2.74904e+06
222 3 O 7.507 34.568 1.4948 -1.2 -9.48342 -4.59328e+06 -767158 -1.62675e+06 -926903 -427731 1.40882e+06
223 3 O 0.210186 34.3001 0.196716 -1.2 -6.20068 -4.22703e+06 -1.3824e+07 -9.68555e+06 1.52982e+06 -7.93538e+06 -299675
224 3 O 0.184454 34.3001 2.79288 -1.2 -8.68228 -2.28598e+06 -3.93489e+06 -2.22146e+06 -843235 -190068 1.28779e+06
225 1 Mg 7.07415 37.992 0 1.2 -6.28841 2.80318e+06 2.18177e+06 -3.44204e+06 1.86166e+06 -399355 -1.59478e+06
226 1 Mg 4.36817 42.6997 1.4948 1.2 -8.88972 -1.30178e+06 2.8493e+06 4.14269e+06 -991653 118069 -202939
227 2 Si 6.16058 40.0155 1.4948 2.4 -33.7509 1.14523e+07 8.4167e+06 1.04385e+07 -383144 1.31246e+06 -2.20996e+06
228 3 O 6.22815 41.6288 1.4948 -1.2 -8.60352 -6.10912e+06 -334868 -6.81606e+06 34126.4 -4.51305e+06 -1.34466e+06
229 3 O 2.53282 39.0415 1.4948 -1.2 -9.43405 -4.27396e+06 -1.00229e+06 -1.92752e+06 1.70747e+06 -343721 -602681
230 3 O 5.44674 39.3094 0.196716 -1.2 -7.04295 -4.54658e+06 -1.074e+07 -5.81188e+06 -145750 -5.78391e+06 2.11121e+06
231 1 Mg 7.04922 37.992 2.9896 1.2 -8.06187 4.81302e+06 -1.65822e+06 -643100 1.28193e+06 -1.4758e+06 1.58278e+06
232 3 O 5.42658 39.3094 2.79288 -1.2 -8.73217 -2.31882e+06 -3.8207e+06 -2.05067e+06 1.14258e+06 -269690 -901023
233 1 Mg -0.333062 38.0333 4.4844 1.2 -8.87406 -761650 2.55576e+06 3.21426e+06 -406581 -114336 -360424
234 2 Si -2.12255 40.7174 4.4844 2.4 -33.0266 1.17242e+07 9.09179e+06 8.27626e+06 37879.9 -209416 -501816
235 3 O -2.19212 39.1042 4.4844 -1.2 -9.33556 -4.16401e+06 -249185 -3.61447e+06 462097 -28894.9 346537
236 3 O 1.50676 41.6915 4.4844 -1.2 -9.17027 -3.56855e+06 -2.82042e+06 -3.03324e+06 2.28499e+06 -341581 277880
237 3 O -1.3884 41.4236 3.18632 -1.2 -8.89036 -2.86114e+06 -3.63869e+06 -1.1963e+06 1.16108e+06 139284 -1.21984e+06
238 3 O -1.40713 41.4236 5.78248 -1.2 -8.94273 -2.98859e+06 -3.71748e+06 -1.36135e+06 1.25182e+06 33568 1.60074e+06
239 1 Mg 2.01892 40.3665 2.9896 1.2 -8.06883 4.70928e+06 -1.48899e+06 -715482 -1.07846e+06 -1.55665e+06 -1.8054e+06
240 1 Mg 4.83434 40.3252 4.4844 1.2 -8.80185 -618419 2.58739e+06 3.06235e+06 1.23995e+06 -184006 -200208
241 2 Si 3.02698 42.39 4.4844 2.4 -33.0355 1.12812e+07 9.22127e+06 8.55151e+06 825398 -69376 -450087
242 3 O 3.05433 44.0033 4.4844 -1.2 -9.38948 -3.93788e+06 -350024 -3.82356e+06 598181 -56877.1 199546
243 3 O -3.60077 41.416 4.4844 -1.2 -9.24391 -3.75687e+06 -2.67184e+06 -2.81092e+06 -1.29461e+06 -149173 156533
244 3 O 3.71851 41.6839 3.18632 -1.2 -8.9148 -2.74788e+06 -3.79792e+06 -1.37135e+06 -859950 244278 1.44928e+06
245 1 Mg 2.04077 40.3665 0 1.2 -6.29254 2.27363e+06 2.11432e+06 -3.87466e+06 -1.83015e+06 414237 1.31409e+06
246 3 O 3.70011 41.6839 5.78248 -1.2 -8.87745 -2.69603e+06 -3.93007e+06 -1.74653e+06 -946428 -40413.4 -958246
247 1 Mg -0.796865 40.4078 1.4948 1.2 -8.8835 -873347 2.7093e+06 4.22473e+06 1.74571e+06 44549.4 -229428
248 2 Si 1.01387 38.3429 1.4948 2.4 -33.8901 1.11827e+07 8.68162e+06 1.06011e+07 1.54878e+06 1.45688e+06 1.33595e+06
249 3 O 0.989947 36.7297 1.4948 -1.2 -7.94455 -6.70266e+06 -261020 -1.04122e+07 1.03082e+06 -6.62967e+06 2.2943e+06
250 3 O 7.63988 39.317 1.4948 -1.2 -9.48552 -4.43281e+06 -905360 -1.81968e+06 -920247 -261206 1.37586e+06
251 3 O 0.340253 39.0491 0.196716 -1.2 -7.05173 -4.63989e+06 -1.16478e+07 -5.75159e+06 383419 -5.84575e+06 -1.2331e+06
252 3 O 0.319795 39.0491 2.79288 -1.2 -8.76721 -2.31037e+06 -3.96232e+06 -2.07399e+06 -866138 -221073 1.23244e+06
253 1 Mg 7.20667 42.741 0 1.2 -6.32214 1.91998e+06 2.15121e+06 -3.93793e+06 1.98973e+06 933306 -2.32103e+06
254 1 Mg 4.50613 47.4487 1.4948 1.2 -8.83443 -1.3429e+06 2.96341e+06 3.77799e+06 -853059 423272 -56844.8
255 2 Si 6.29731 44.7645 1.4948 2.4 -33.4977 1.16495e+07 8.04216e+06 1.01871e+07 -223996 904498 -1.77541e+06
256 3 O 6.36567 46.3778 1.4948 -1.2 -9.04794 -5.247e+06 -374767 -4.82509e+06 172794 -2.69838e+06 -1.20616e+06
257 3 O 2.669 43.7905 1.4948 -1.2 -9.43047 -4.07957e+06 -1.28385e+06 -2.11628e+06 1.72014e+06 -208239 -723819
258 3 O 5.58048 44.0584 0.196716 -1.2 -7.79145 -4.40362e+06 -8.23524e+06 -3.2964e+06 315255 -3.72929e+06 2.57227e+06
259 1 Mg 7.1879 42.741 2.9896 1.2 -7.98547 4.67975e+06 -1.53178e+06 -745348 1.27891e+06 -1.61566e+06 1.72145e+06
260 3 O 5.56564 44.0584 2.79288 -1.2 -8.81134 -2.31837e+06 -3.85176e+06 -1.91694e+06 1.12641e+06 -268568 -1.00502e+06
261 1 Mg -0.19105 42.7823 4.4844 1.2 -8.75037 -853335 2.63665e+06 3.0228e+06 -446505 -39713.8 -188210
262 2 Si -1.97909 45.4664 4.4844 2.4 -32.9205 1.14178e+07 9.07986e+06 8.42942e+06 157663 -270297 -299659
263 3 O -2.04947 43.8532 4.4844 -1.2 -9.4205 -4.00993e+06 -281173 -3.59904e+06 450805 66883.1 142208
264 3 O 1.65063 46.4405 4.4844 -1.2 -9.2335 -3.51764e+06 -2.89476e+06 -2.90429e+06 2.32114e+06 -210030 171429
265 3 O -1.24745 46.1726 3.18632 -1.2 -8.92125 -2.71034e+06 -3.70367e+06 -1.33475e+06 1.13371e+06 119833 -1.31222e+06
266 3 O -1.26044 46.1726 5.78248 -1.2 -8.98351 -2.8208e+06 -3.64027e+06 -1.49099e+06 1.1389e+06 92364.3 1.63544e+06
267 1 Mg 2.15896 45.1155 2.9896 1.2 -8.01091 4.61095e+06 -1.3863e+06 -796915 -1.08219e+06 -1.65675e+06 -1.69508e+06
268 1 Mg 4.97763 45.0742 4.4844 1.2 -8.73803 -731322 2.6257e+06 3.0354e+06 1.26289e+06 -60168.9 -164199
269 2 Si 3.1711 47.139 4.4844 2.4 -32.9286 1.11652e+07 9.42742e+06 8.29337e+06 730947 -60092.1 -215854