ITEM: TIMESTEP
75400
ITEM: NUMBER OF ATOMS
10500
ITEM: BOX BOUNDS xy xz yz pp pp pp
0.0000000000000000e+00 1.5297749999999999e+01 5.0992499999999996e+00
0.0000000000000000e+00 1.1872499999999999e+02 0.0000000000000000e+00
0.0000000000000000e+00 8.9688000000000002e+01 0.0000000000000000e+00
ITEM: ATOMS id type element xu yu zu q c_pe c_s[1] c_s[2] c_s[3] c_s[4] c_s[5] c_s[6]
1 1 Mg 6.2404 -6.37941e-06 0 1.2 -5.3288 9.34327e+06 -2.88143e+06 -5.18586e+06 -858.506 2.61246e+06 -498567
2 1 Mg 3.46349 4.70768 1.4948 1.2 -9.31088 1.00242e+06 1.78459e+06 5.22677e+06 -940442 -634262 -381150
3 2 Si 5.2885 2.02354 1.4948 2.4 -37.0461 1.28879e+07 8.81663e+06 1.34424e+07 8.86125e+06 667116 -4.05683e+06
4 3 O 5.33628 3.63678 1.4948 -1.2 -3.8644 -2.21618e+06 -466019 -3.46241e+07 -337672 3.82738e+06 -3.376e+06
5 3 O 1.67294 1.04952 1.4948 -1.2 -0.137435 -2.17792e+07 -7.82574e+07 -3.23729e+06 -2.41149e+07 -135630 323814
6 3 O 4.59532 1.31737 0.196716 -1.2 -2.12616 -3.40483e+06 -5.64892e+06 -3.15172e+07 -6.0259e+06 6.24139e+06 -2.21902e+06
7 1 Mg 6.18956 -6.37941e-06 2.9896 1.2 -5.91197 3.10893e+06 -2.95163e+07 -1.65583e+06 -8.84182e+06 2.43762e+06 3.68238e+06
8 3 O 4.55118 1.31737 2.79288 -1.2 -6.56839 -1.34119e+06 -3.52245e+06 -4.35e+06 -2.94392e+06 -3.39129e+06 -643067
9 1 Mg -1.20682 0.0413099 4.4844 1.2 7.88364 -2.90453e+07 -9.47893e+07 1.10048e+06 -2.84669e+07 -1.25466e+06 -249443
10 2 Si -3.0337 2.72544 4.4844 2.4 -34.8889 1.73438e+07 4.8906e+06 1.00392e+07 1.70852e+06 156932 -1.74306e+06
11 3 O -3.08099 1.11221 4.4844 -1.2 -8.62326 -7.79075e+06 1.32798e+06 -3.41356e+06 -1.25919e+06 -190524 822766
12 3 O 0.582463 3.69946 4.4844 -1.2 -8.1114 -4.53717e+06 -4.52002e+06 -3.90764e+06 -544863 -212051 320540
13 3 O -2.29524 3.43162 3.18632 -1.2 -8.20711 -5.61871e+06 -1.5125e+06 -1.55472e+06 1.06538e+06 -858928 -450926
14 3 O -2.34216 3.43162 5.78248 -1.2 -8.03389 -5.29962e+06 -2.27242e+06 -2.45458e+06 714427 449160 1.80654e+06
15 1 Mg 1.12778 2.37449 2.9896 1.2 -8.50425 6.59016e+06 -2.74475e+06 460491 -3.29112e+06 -4.17262e+06 -2.72409e+06
16 1 Mg 3.92855 2.33318 4.4844 1.2 -9.39381 -2.72624e+06 3.83271e+06 5.97093e+06 1.32131e+06 223514 -66258.3
17 2 Si 2.09341 4.39804 4.4844 2.4 -34.0574 1.44314e+07 4.9523e+06 1.11114e+07 60490.4 -345924 -336290
18 3 O 2.09991 6.01128 4.4844 -1.2 -8.72572 -5.13445e+06 842629 -4.87771e+06 609480 -33141.4 350105
19 3 O -4.52137 3.42402 4.4844 -1.2 -8.3323 -4.36347e+06 -1.91222e+06 -4.46031e+06 -2.43721e+06 -813434 582222
20 3 O 2.80834 3.69187 3.18632 -1.2 -8.47457 -3.44315e+06 -1.82341e+06 -1.47392e+06 486963 -455426 -5795.4
21 1 Mg 1.17857 2.37449 0 1.2 -6.03598 816486 -1.58297e+07 -5.39861e+06 6.51021e+06 1.22171e+06 4.0681e+06
22 3 O 2.76143 3.69187 5.78248 -1.2 -8.45324 -3.92536e+06 -1.50725e+06 -2.47095e+06 627507 134678 447036
23 1 Mg -1.67381 2.41581 1.4948 1.2 -8.47019 2.99332e+06 -1.28614e+06 5.13019e+06 1.36723e+06 -584217 516509
24 2 Si 0.16286 0.350945 1.4948 2.4 -26.3949 -5.24981e+06 1.01175e+07 1.37198e+07 1.58497e+06 2.84538e+06 488652
25 3 O 0.15972 -1.26229 1.4948 -1.2 -3.83856 -1.21693e+07 -6.80912e+06 -3.0156e+07 -5.59813e+06 -8.5313e+06 -2.52398e+06
26 3 O 6.77654 1.32496 1.4948 -1.2 -9.4466 -7.20801e+06 2.89327e+06 -2.49348e+06 -653621 -634629 1.52615e+06
27 3 O -0.508028 1.05712 0.196716 -1.2 -8.62262 -1.33983e+06 -3.63251e+06 -1.74383e+06 -552643 197952 -4.10743e+06
28 3 O -0.552171 1.05712 2.79288 -1.2 -5.86483 -6.84058e+06 -3.3901e+06 -2.58551e+07 1.40839e+06 -6.79376e+06 -5.08603e+06
29 1 Mg 6.31713 4.74899 0 1.2 -5.80733 1.80397e+06 -1.38088e+07 -5.24306e+06 -7.30215e+06 1.41567e+06 -4.06074e+06
30 1 Mg 3.54847 9.45668 1.4948 1.2 -8.87871 1.1807e+06 1.4979e+06 4.62137e+06 -938998 -921260 -514636
31 2 Si 5.36879 6.77254 1.4948 2.4 -35.767 9.74143e+06 1.06601e+07 1.28516e+07 1.69482e+06 165481 -2.62501e+06
32 3 O 5.41937 8.38578 1.4948 -1.2 -4.12855 -1.3756e+06 -500489 -3.56119e+07 754861 1.08521e+06 -3.98757e+06
33 3 O 1.75158 5.79852 1.4948 -1.2 -8.70715 -5.23586e+06 -1.54235e+06 -2.28352e+06 1.97978e+06 -1.58367e+06 -946719
34 3 O 4.67421 6.06637 0.196716 -1.2 -2.95621 -1.20216e+06 -9.33093e+06 -3.22099e+07 -2.01555e+06 1.28882e+06 -4.07938e+06
35 1 Mg 6.26654 4.74899 2.9896 1.2 -8.82869 5.46618e+06 -2.57156e+06 820774 1.82791e+06 -838613 1.47925e+06
36 3 O 4.63043 6.06637 2.79288 -1.2 -8.10468 -2.86755e+06 -3.17661e+06 -2.9269e+06 911278 -91733.8 -1.04319e+06
37 1 Mg -1.12976 4.79031 4.4844 1.2 -9.59303 657388 1.8879e+06 3.69174e+06 -684326 -320367 -473319
38 2 Si -2.9517 7.47444 4.4844 2.4 -34.1697 1.34189e+07 7.63257e+06 9.84701e+06 85075.7 209018 -784356
39 3 O -3.00198 5.86121 4.4844 -1.2 -8.70289 -5.2616e+06 668298 -4.48098e+06 8312.25 -316753 408276
40 3 O 0.666315 8.44846 4.4844 -1.2 -8.66407 -4.21805e+06 -2.1791e+06 -3.79401e+06 2.18778e+06 -344735 586858
41 3 O -2.21213 8.18062 3.18632 -1.2 -8.47039 -3.89496e+06 -2.88546e+06 -1.19134e+06 1.12714e+06 -348271 -1.10433e+06
42 3 O -2.25864 8.18062 5.78248 -1.2 -8.33456 -3.86937e+06 -3.17584e+06 -2.2217e+06 1.18287e+06 -201705 1.70896e+06
43 1 Mg 1.20893 7.12349 2.9896 1.2 -8.69591 5.18628e+06 -2.2885e+06 584126 -1.31293e+06 -1.38214e+06 -2.07893e+06
44 1 Mg 4.00982 7.08218 4.4844 1.2 -9.34079 387521 1.82885e+06 3.67008e+06 1.08391e+06 -324464 -399830
45 2 Si 2.17861 9.14704 4.4844 2.4 -33.8503 1.29721e+07 8.42703e+06 8.96338e+06 680580 -355185 -974696
46 3 O 2.18828 10.7603 4.4844 -1.2 -9.12774 -4.58353e+06 -330434 -3.59259e+06 351669 -121689 309713
47 3 O -4.43805 8.17302 4.4844 -1.2 -8.70859 -4.39957e+06 -2.12162e+06 -3.56745e+06 -1.60708e+06 -642944 362026
48 3 O 2.89193 8.44087 3.18632 -1.2 -8.5172 -3.79406e+06 -3.14171e+06 -1.11091e+06 -949952 -175170 1.66591e+06
49 1 Mg 1.25915 7.12349 0 1.2 -6.09186 2.18228e+06 -8.24972e+06 -5.61863e+06 5.89144e+06 1.38228e+06 2.34609e+06
50 3 O 2.84547 8.44087 5.78248 -1.2 -8.44157 -4.01815e+06 -3.36725e+06 -1.98933e+06 -985140 121082 -494900
51 1 Mg -1.59284 7.16481 1.4948 1.2 -8.9683 1.95065e+06 704196 4.98773e+06 1.44809e+06 -909009 24207.1
52 2 Si 0.240329 5.09994 1.4948 2.4 -35.7077 1.08529e+07 9.15412e+06 1.31517e+07 -1.98078e+06 -1.05204e+06 1.0895e+06
53 3 O 0.234538 3.48671 1.4948 -1.2 -4.35348 -3.14534e+06 1.40746e+06 -3.48213e+07 403367 5.17218e+06 4.4493e+06
54 3 O 6.85564 6.07396 1.4948 -1.2 -8.80853 -5.67829e+06 -1.02746e+06 -2.15541e+06 -1.35314e+06 -1.84262e+06 1.54029e+06
55 3 O -0.429565 5.80612 0.196716 -1.2 -3.18692 -1.97356e+06 -7.94753e+06 -3.24087e+07 1.85627e+06 1.20294e+06 4.93784e+06
56 3 O -0.473377 5.80612 2.79288 -1.2 -8.16636 -3.33185e+06 -2.72105e+06 -2.92149e+06 -762150 284810 1.70203e+06
57 1 Mg 6.40169 9.49799 0 1.2 -5.86882 2.52494e+06 -6.68182e+06 -6.37555e+06 -5.49821e+06 991790 -2.54887e+06
58 1 Mg 3.64209 14.2057 1.4948 1.2 -8.57053 447884 2.36248e+06 3.95495e+06 -1.03513e+06 -968973 -258638
59 2 Si 5.45748 11.5215 1.4948 2.4 -35.0218 8.78039e+06 1.20115e+07 1.12434e+07 873344 376761 -2.34083e+06
60 3 O 5.51101 13.1348 1.4948 -1.2 -4.54569 -899972 -1.29393e+06 -3.4446e+07 481651 -2.54144e+06 -4.31651e+06
61 3 O 1.83851 10.5475 1.4948 -1.2 -9.11715 -4.96598e+06 -1.84787e+06 -1.31948e+06 1.52034e+06 -1.56658e+06 -944187
62 3 O 4.7611 10.8154 0.196716 -1.2 -3.15324 -198430 -1.14912e+07 -3.19604e+07 -2.47395e+06 -1.76588e+06 -4.23248e+06
63 1 Mg 6.35203 9.49799 2.9896 1.2 -8.48448 4.92811e+06 -1.8459e+06 79378.6 1.30531e+06 -1.11604e+06 1.7138e+06
64 3 O 4.71833 10.8154 2.79288 -1.2 -8.47564 -2.50473e+06 -3.82048e+06 -2.06288e+06 1.05072e+06 -16915.5 -1.12206e+06
65 1 Mg -1.0438 9.53931 4.4844 1.2 -9.18455 -182467 2.28658e+06 3.44243e+06 -650370 -348100 -487583
66 2 Si -2.8604 12.2234 4.4844 2.4 -33.3209 1.193e+07 9.57008e+06 8.03934e+06 -219784 -106786 -477463
67 3 O -2.91391 10.6102 4.4844 -1.2 -9.07118 -4.43268e+06 -191383 -3.87575e+06 302989 -251275 330573
68 3 O 0.7596 13.1975 4.4844 -1.2 -9.12399 -3.62903e+06 -3.1723e+06 -2.65912e+06 2.05562e+06 -478462 99206.2
69 3 O -2.12001 12.9296 3.18632 -1.2 -8.85737 -3.22635e+06 -3.88092e+06 -251650 1.17261e+06 -199564 -1.3907e+06
70 3 O -2.16532 12.9296 5.78248 -1.2 -8.89829 -3.08878e+06 -4.22921e+06 -1.01783e+06 1.16062e+06 5381 1.66093e+06
71 1 Mg 1.29891 11.8725 2.9896 1.2 -8.29856 4.68592e+06 -1.29573e+06 -548140 -1.13802e+06 -1.24546e+06 -1.84194e+06
72 1 Mg 4.10033 11.8312 4.4844 1.2 -8.92788 -277763 2.79774e+06 2.7067e+06 1.11213e+06 -213260 -7777.45
73 2 Si 2.27333 13.896 4.4844 2.4 -33.0459 1.1628e+07 1.00108e+07 7.43158e+06 735267 85914.7 136775
74 3 O 2.28634 15.5093 4.4844 -1.2 -9.44369 -3.94986e+06 -896869 -3.15569e+06 468523 -259584 -138011
75 3 O -4.34533 12.922 4.4844 -1.2 -9.11907 -3.66113e+06 -3.01422e+06 -2.76171e+06 -1.36617e+06 -469595 22477.3
76 3 O 2.98455 13.1899 3.18632 -1.2 -8.90138 -3.18631e+06 -4.01585e+06 -252902 -970617 -186334 1.31719e+06
77 1 Mg 1.34779 11.8725 0 1.2 -5.9005 3.42755e+06 -2.60622e+06 -6.91553e+06 3.5825e+06 803251 1.58419e+06
78 3 O 2.93934 13.1899 5.78248 -1.2 -8.89124 -3.07123e+06 -4.19132e+06 -1.43049e+06 -937491 -366648 -1.35339e+06
79 1 Mg -1.50344 11.9138 1.4948 1.2 -8.685 1.05206e+06 1.94324e+06 4.17716e+06 1.55233e+06 -952867 318138
80 2 Si 0.326006 9.84894 1.4948 2.4 -35.273 9.24845e+06 1.13881e+07 1.17737e+07 -609376 71055.5 1.90466e+06
81 3 O 0.317364 8.23571 1.4948 -1.2 -4.11271 -1.46503e+06 -330540 -3.58472e+07 -111609 1.19311e+06 4.45233e+06
82 3 O 6.94307 10.823 1.4948 -1.2 -9.17501 -5.05075e+06 -1.70944e+06 -1.23998e+06 -964984 -1.54209e+06 1.18613e+06
83 3 O -0.343122 10.5551 0.196716 -1.2 -3.22477 -501165 -1.08967e+07 -3.21028e+07 2.46867e+06 -2.04466e+06 4.55526e+06
84 3 O -0.385966 10.5551 2.79288 -1.2 -8.48 -2.53515e+06 -3.80843e+06 -2.18323e+06 -853252 133430 1.3818e+06
85 1 Mg 6.49448 14.247 0 1.2 -5.68098 3.56714e+06 -1.45503e+06 -7.37316e+06 -2.97401e+06 260789 -1.49758e+06
86 1 Mg 3.74457 18.9547 1.4948 1.2 -8.44829 -79109.5 2.72898e+06 3.84243e+06 -1.13149e+06 -1.0015e+06 -171179
87 2 Si 5.55495 16.2705 1.4948 2.4 -34.3707 8.00777e+06 1.28937e+07 1.01093e+07 515288 749889 -2.10848e+06
88 3 O 5.6115 17.8838 1.4948 -1.2 -5.11328 -1.533e+06 -1.57185e+06 -3.13948e+07 79347.7 -6.0238e+06 -4.23212e+06
89 3 O 1.93416 15.2965 1.4948 -1.2 -9.501 -4.47367e+06 -2.23802e+06 -557055 1.5331e+06 -1.38399e+06 -1.11739e+06
90 3 O 4.85636 15.5644 0.196716 -1.2 -3.5342 427516 -1.38694e+07 -2.97648e+07 -3.03321e+06 -5.1099e+06 -3.79219e+06
91 1 Mg 6.44662 14.247 2.9896 1.2 -8.10339 4.4102e+06 -1.03915e+06 -821040 1.2658e+06 -1.2216e+06 2.01414e+06
92 3 O 4.81537 15.5644 2.79288 -1.2 -8.78252 -1.92388e+06 -4.48526e+06 -1.52017e+06 1.09045e+06 -1527.36 -1.37987e+06
93 1 Mg -0.948271 14.2883 4.4844 1.2 -8.74717 -752149 3.14645e+06 2.44291e+06 -517028 -292278 -30430.5
94 2 Si -2.75928 16.9724 4.4844 2.4 -32.7864 1.14338e+07 1.023e+07 7.02159e+06 31977.4 -238267 313716
95 3 O -2.81617 15.3592 4.4844 -1.2 -9.44933 -4.00881e+06 -848283 -3.03606e+06 278522 -80174.6 -110394
96 3 O 0.862762 17.9465 4.4844 -1.2 -9.27938 -3.25587e+06 -3.40878e+06 -2.54294e+06 2.15804e+06 -588587 -267407
97 3 O -2.0185 17.6786 3.18632 -1.2 -9.07973 -2.9211e+06 -4.21071e+06 110803 1.12649e+06 -150955 -1.65244e+06
98 3 O -2.06164 17.6786 5.78248 -1.2 -9.08113 -3.05948e+06 -4.21983e+06 -828580 997487 -17804.4 1.25509e+06
99 1 Mg 1.39817 16.6215 2.9896 1.2 -8.01356 4.29104e+06 -804765 -1.103e+06 -1.16473e+06 -1.18357e+06 -1.49504e+06
100 1 Mg 4.20062 16.5802 4.4844 1.2 -8.67893 -821903 3.23619e+06 2.41332e+06 1.08604e+06 -309319 257184
101 2 Si 2.37796 18.645 4.4844 2.4 -32.8392 1.09748e+07 1.02676e+07 7.50162e+06 534287 -113081 499034
102 3 O 2.39434 20.2583 4.4844 -1.2 -9.47387 -3.78824e+06 -894285 -3.27688e+06 549466 -58318.1 -66418.6
103 3 O -4.24274 17.671 4.4844 -1.2 -9.33103 -3.44154e+06 -3.2476e+06 -2.40912e+06 -1.40745e+06 -357416 -196907
104 3 O 3.08659 17.9389 3.18632 -1.2 -9.09516 -2.79081e+06 -4.32567e+06 -66527.8 -901750 -56341.4 1.1255e+06
105 1 Mg 1.44478 16.6215 0 1.2 -5.67306 4.55541e+06 923954 -7.49541e+06 1.38907e+06 -54255.1 939169
106 3 O 3.0436 17.9389 5.78248 -1.2 -8.98443 -2.64421e+06 -4.39607e+06 -1.50224e+06 -704718 -122904 -1.58469e+06
107 1 Mg -1.40524 16.6628 1.4948 1.2 -8.45595 414343 2.62656e+06 3.71696e+06 1.70312e+06 -953935 453752
108 2 Si 0.420358 14.5979 1.4948 2.4 -34.5391 8.23394e+06 1.28429e+07 1.01416e+07 -113094 581986 2.58348e+06
109 3 O 0.408732 12.9847 1.4948 -1.2 -4.52825 -971278 -1.26782e+06 -3.45628e+07 211415 -2.55722e+06 4.2799e+06
110 3 O 7.03923 15.572 1.4948 -1.2 -9.55304 -4.57277e+06 -2.10361e+06 -477241 -945282 -1.29693e+06 953107
111 3 O -0.248332 15.3041 0.196716 -1.2 -3.62914 35908.5 -1.33884e+07 -2.97556e+07 3.25489e+06 -5.43023e+06 3.94674e+06
112 3 O -0.289436 15.3041 2.79288 -1.2 -8.81463 -1.9979e+06 -4.58289e+06 -1.45306e+06 -876214 25337.8 997857
113 1 Mg 6.59566 18.996 0 1.2 -5.57551 4.60578e+06 1.38616e+06 -7.37874e+06 -900524 -687531 -892149
114 1 Mg 3.85574 23.7037 1.4948 1.2 -8.50347 -371620 2.79067e+06 4.02184e+06 -1.17557e+06 -938058 -110753
115 2 Si 5.66125 21.0195 1.4948 2.4 -34.0577 8.16078e+06 1.25423e+07 9.868e+06 202243 1.15573e+06 -2.16271e+06
116 3 O 5.72074 22.6328 1.4948 -1.2 -5.77394 -3.14155e+06 -1.38947e+06 -2.6569e+07 -227013 -8.48087e+06 -3.78338e+06
117 3 O 2.03867 20.0455 1.4948 -1.2 -9.67473 -4.22349e+06 -2.07005e+06 -494117 1.58446e+06 -1.15082e+06 -1.06445e+06
118 3 O 4.96004 20.3134 0.196716 -1.2 -4.02492 -68359.2 -1.5358e+07 -2.58082e+07 -3.18633e+06 -7.91275e+06 -2.77736e+06
119 1 Mg 6.55057 18.996 2.9896 1.2 -7.91644 4.29822e+06 -877899 -1.16915e+06 1.31772e+06 -1.24474e+06 2.10059e+06
120 3 O 4.92172 20.3134 2.79288 -1.2 -8.89454 -1.78127e+06 -4.5999e+06 -1.4044e+06 1.07558e+06 -17371.1 -1.36092e+06
121 1 Mg -0.84282 19.0373 4.4844 1.2 -8.6492 -943033 3.21365e+06 2.40271e+06 -450247 -91299.1 184834
122 2 Si -2.64823 21.7214 4.4844 2.4 -32.702 1.14711e+07 1.04024e+07 6.67905e+06 -21396.4 -17338.3 340853
123 3 O -2.70847 20.1082 4.4844 -1.2 -9.54321 -4.01282e+06 -900086 -2.8154e+06 264622 -164998 -128678
124 3 O 0.97581 22.6955 4.4844 -1.2 -9.25965 -3.22252e+06 -3.48436e+06 -2.55078e+06 2.23532e+06 -462234 -12440.8
125 3 O -1.9076 22.4276 3.18632 -1.2 -9.09579 -2.83166e+06 -4.21701e+06 17122.5 1.18822e+06 -115593 -1.65984e+06
126 3 O -1.9475 22.4276 5.78248 -1.2 -9.08351 -3.05536e+06 -4.41212e+06 -537067 1.26397e+06 -265249 1.27169e+06
127 1 Mg 1.50678 21.3705 2.9896 1.2 -7.94393 4.22335e+06 -809280 -1.14232e+06 -1.17581e+06 -1.25416e+06 -1.53743e+06
128 1 Mg 4.31086 21.3292 4.4844 1.2 -8.61831 -818258 3.32079e+06 2.22965e+06 1.22816e+06 -383893 147953
129 2 Si 2.49243 23.394 4.4844 2.4 -32.8234 1.12263e+07 1.04613e+07 7.01843e+06 863249 -179535 249087
130 3 O 2.51204 25.0073 4.4844 -1.2 -9.42513 -4.03087e+06 -867464 -3.14238e+06 476630 -162885 -109652
131 3 O -4.13026 22.42 4.4844 -1.2 -9.36992 -3.48132e+06 -3.35278e+06 -2.20055e+06 -1.41193e+06 -374433 -278277
132 3 O 3.19799 22.6879 3.18632 -1.2 -9.11874 -2.7623e+06 -4.35076e+06 -93556.9 -952057 58154.7 1.17038e+06
133 1 Mg 1.5501 21.3705 0 1.2 -5.62605 5.23409e+06 2.40376e+06 -6.95111e+06 -79150 -952963 463751
134 3 O 3.1583 22.6879 5.78248 -1.2 -9.06646 -2.80246e+06 -4.59944e+06 -783247 -1.10825e+06 -132719 -1.34137e+06
135 1 Mg -1.29822 21.4118 1.4948 1.2 -8.44476 4616.63 2.78235e+06 3.84853e+06 1.80243e+06 -909583 374201
136 2 Si 0.523568 19.3469 1.4948 2.4 -34.1401 7.92972e+06 1.28328e+07 9.84483e+06 299628 1.06134e+06 2.76965e+06
137 3 O 0.508934 17.7337 1.4948 -1.2 -5.09937 -1.57594e+06 -1.56778e+06 -3.15123e+07 666322 -6.11206e+06 3.96594e+06
138 3 O 7.14425 20.321 1.4948 -1.2 -9.72528 -4.38897e+06 -1.93456e+06 -363008 -949344 -1.06763e+06 927223
139 3 O -0.145107 20.0531 0.196716 -1.2 -4.12112 -427266 -1.50256e+07 -2.58313e+07 3.68068e+06 -8.22736e+06 3.05881e+06
140 3 O -0.183601 20.0531 2.79288 -1.2 -8.91827 -1.75236e+06 -4.69382e+06 -1.46891e+06 -841957 -87784.4 913280
141 1 Mg 6.70502 23.745 0 1.2 -5.63905 5.05651e+06 2.51245e+06 -6.47019e+06 415968 -1.52432e+06 -563341
142 1 Mg 3.97493 28.4527 1.4948 1.2 -8.60529 -683052 2.81702e+06 4.23739e+06 -1.24173e+06 -797653 -111158
143 2 Si 5.77602 25.7685 1.4948 2.4 -33.963 8.82086e+06 1.1544e+07 1.01422e+07 -124343 1.48114e+06 -2.15589e+06
144 3 O 5.83821 27.3818 1.4948 -1.2 -6.54629 -4.91002e+06 -1.04426e+06 -2.06721e+07 -328299 -9.2579e+06 -3.1006e+06
145 3 O 2.15175 24.7945 1.4948 -1.2 -9.69327 -4.21766e+06 -1.7217e+06 -684361 1.60905e+06 -933620 -1.00894e+06
146 3 O 5.07184 25.0624 0.196716 -1.2 -4.6593 -1.32849e+06 -1.58225e+07 -2.04459e+07 -2.78858e+06 -9.38466e+06 -1.48289e+06
147 1 Mg 6.66374 23.745 2.9896 1.2 -7.90773 4.36838e+06 -976999 -1.15129e+06 1.30688e+06 -1.25942e+06 2.14756e+06
148 3 O 5.03707 25.0624 2.79288 -1.2 -8.85529 -1.83686e+06 -4.44281e+06 -1.60632e+06 1.08796e+06 -133415 -1.36777e+06
149 1 Mg -0.727559 23.7863 4.4844 1.2 -8.7093 -987844 3.24878e+06 2.50275e+06 -584323 -168093 141560
150 2 Si -2.5277 26.4704 4.4844 2.4 -33.0228 1.17164e+07 9.9113e+06 7.45547e+06 2333.43 -278950 49084.4
151 3 O -2.59107 24.8572 4.4844 -1.2 -9.4304 -4.05879e+06 -743871 -3.08243e+06 402216 -73270.4 -213081
152 3 O 1.09817 27.4445 4.4844 -1.2 -9.1624 -3.5493e+06 -3.37387e+06 -2.47522e+06 2.1844e+06 -496855 -918.482
153 3 O -1.78784 27.1766 3.18632 -1.2 -9.01342 -2.89368e+06 -4.03921e+06 -280590 1.15278e+06 32214.2 -1.52389e+06
154 3 O -1.82343 27.1766 5.78248 -1.2 -8.79647 -3.29003e+06 -4.2607e+06 -1.03424e+06 1.1142e+06 102950 1.63002e+06
155 1 Mg 1.62435 26.1195 2.9896 1.2 -7.97565 4.44448e+06 -968947 -1.14978e+06 -1.13546e+06 -1.28549e+06 -1.51781e+06
156 1 Mg 4.43064 26.0782 4.4844 1.2 -8.75912 -673626 3.08729e+06 2.54782e+06 1.18279e+06 -192816 142097
157 2 Si 2.61607 28.143 4.4844 2.4 -33.0655 1.14588e+07 1.03295e+07 7.31882e+06 703530 -27424 116203
158 3 O 2.63853 29.7563 4.4844 -1.2 -9.35496 -3.95687e+06 -951889 -3.24807e+06 584602 -120346 -103281
159 3 O -4.00841 27.169 4.4844 -1.2 -9.21965 -3.64752e+06 -3.1216e+06 -2.49056e+06 -1.32479e+06 -346884 -15114.1
160 3 O 3.3182 27.4369 3.18632 -1.2 -9.04027 -2.82104e+06 -4.20163e+06 -379522 -883769 92391.3 1.2205e+06
161 1 Mg 1.66335 26.1195 0 1.2 -5.7084 5.11095e+06 2.83663e+06 -5.90966e+06 -895118 -1.54331e+06 245704
162 3 O 3.28288 27.4369 5.78248 -1.2 -8.7785 -3.00666e+06 -4.54475e+06 -1.34211e+06 -789171 -183457 -1.20071e+06
163 1 Mg -1.18278 26.1608 1.4948 1.2 -8.55178 -276913 2.76504e+06 4.12663e+06 1.88823e+06 -823841 244476
164 2 Si 0.635424 24.0959 1.4948 2.4 -34.007 8.41641e+06 1.20794e+07 9.96594e+06 736633 1.41326e+06 2.72981e+06
165 3 O 0.617906 22.4827 1.4948 -1.2 -5.7585 -3.1488e+06 -1.38096e+06 -2.67293e+07 1.02264e+06 -8.56412e+06 3.55692e+06
166 3 O 7.25781 25.07 1.4948 -1.2 -9.73172 -4.34971e+06 -1.55123e+06 -654446 -929181 -824189 938619
167 3 O -0.0337363 24.8021 0.196716 -1.2 -4.74684 -1.64078e+06 -1.58082e+07 -2.04192e+07 3.50919e+06 -9.67966e+06 1.81197e+06
168 3 O -0.0687235 24.8021 2.79288 -1.2 -8.8915 -1.81662e+06 -4.6026e+06 -1.58848e+06 -824775 -90935.5 912040
169 1 Mg 6.82195 28.494 0 1.2 -5.76792 4.61911e+06 2.79388e+06 -5.22828e+06 1.15273e+06 -1.86955e+06 -503601
170 1 Mg 4.10106 33.2017 1.4948 1.2 -8.60075 -1.15841e+06 3.04176e+06 4.14031e+06 -1.20643e+06 -553988 -35471.4
171 2 Si 5.89839 30.5175 1.4948 2.4 -33.7399 9.54764e+06 1.07524e+07 9.93256e+06 -345711 1.59777e+06 -2.10166e+06
172 3 O 5.96289 32.1308 1.4948 -1.2 -7.45727 -6.00076e+06 -929309 -1.45823e+07 -288337 -8.41952e+06 -2.48626e+06
173 3 O 2.27266 29.5435 1.4948 -1.2 -9.68765 -4.13506e+06 -1.48108e+06 -968560 1.663e+06 -731386 -919946
174 3 O 5.19102 29.8114 0.196716 -1.2 -5.51079 -2.69127e+06 -1.52347e+07 -1.45049e+07 -1.91637e+06 -9.24983e+06 -128510
175 1 Mg 6.78546 28.494 2.9896 1.2 -7.93408 4.50843e+06 -1.10414e+06 -1.11651e+06 1.30634e+06 -1.34559e+06 1.94818e+06
176 3 O 5.16061 29.8114 2.79288 -1.2 -8.85422 -1.90106e+06 -4.40815e+06 -1.61806e+06 1.13209e+06 -153113 -1.24107e+06
177 1 Mg -0.603205 28.5353 4.4844 1.2 -8.78695 -793254 3.22581e+06 2.44926e+06 -392636 -155474 -24960
178 2 Si -2.39877 31.2194 4.4844 2.4 -32.8617 1.17441e+07 1.02885e+07 6.79243e+06 113606 -208502 244369
179 3 O -2.46483 29.6062 4.4844 -1.2 -9.42174 -4.15529e+06 -895374 -2.83496e+06 360683 -39111.4 4051.55
180 3 O 1.22864 32.1935 4.4844 -1.2 -9.20167 -3.34891e+06 -3.43208e+06 -2.57814e+06 2.30626e+06 -514437 -117593
181 3 O -1.66032 31.9256 3.18632 -1.2 -9.06183 -2.78781e+06 -4.12285e+06 -307422 1.14532e+06 49623.2 -1.58155e+06
182 3 O -1.69072 31.9256 5.78248 -1.2 -8.96029 -3.20719e+06 -4.41507e+06 -582245 1.11929e+06 -83634 1.11724e+06
183 1 Mg 1.7499 30.8685 2.9896 1.2 -7.95402 4.41393e+06 -973367 -1.143e+06 -1.14166e+06 -1.33891e+06 -1.5105e+06
184 1 Mg 4.55894 30.8272 4.4844 1.2 -8.73591 -722815 3.2212e+06 2.42551e+06 1.1878e+06 -326187 157621
185 2 Si 2.7476 32.892 4.4844 2.4 -32.9025 1.10397e+07 1.02874e+07 7.51017e+06 686863 -203463 161178
186 3 O 2.77235 34.5053 4.4844 -1.2 -9.51637 -3.7841e+06 -925557 -3.2033e+06 609463 14570.4 19315.3
187 3 O -3.87837 31.918 4.4844 -1.2 -9.32831 -3.65174e+06 -3.23252e+06 -2.21117e+06 -1.36044e+06 -222671 -190100
188 3 O 3.44611 32.1859 3.18632 -1.2 -9.08331 -2.64623e+06 -4.25077e+06 -534728 -869236 219864 1.21004e+06
189 1 Mg 1.7837 30.8685 0 1.2 -5.81275 4.06824e+06 2.86541e+06 -4.78925e+06 -1.34991e+06 -1.49447e+06 317455
190 3 O 3.41602 32.1859 5.78248 -1.2 -8.83671 -2.76646e+06 -4.53081e+06 -1.28714e+06 -884881 -8097.98 -1.45048e+06
191 1 Mg -1.05984 30.9098 1.4948 1.2 -8.60187 -657364 2.90572e+06 4.14483e+06 1.92209e+06 -607981 144698
192 2 Si 0.755243 28.8449 1.4948 2.4 -33.8786 9.13673e+06 1.11591e+07 1.0045e+07 1.16105e+06 1.67507e+06 2.49095e+06
193 3 O 0.735127 27.2317 1.4948 -1.2 -6.53663 -4.94837e+06 -1.06085e+06 -2.07692e+07 1.16449e+06 -9.35145e+06 3.01435e+06
194 3 O 7.37914 29.819 1.4948 -1.2 -9.74056 -4.30393e+06 -1.34922e+06 -855260 -938218 -596828 1.01308e+06
195 3 O 0.0850649 29.5511 0.196716 -1.2 -5.56448 -2.89543e+06 -1.56001e+07 -1.44952e+07 2.68135e+06 -9.47179e+06 516707
196 3 O 0.0543974 29.5511 2.79288 -1.2 -8.88277 -1.89126e+06 -4.55594e+06 -1.6249e+06 -861520 -190349 940552
197 1 Mg 6.94543 33.243 0 1.2 -5.83786 3.48167e+06 2.86416e+06 -4.37551e+06 1.57194e+06 -1.46919e+06 -665340
198 1 Mg 4.23267 37.9507 1.4948 1.2 -8.51007 -1.68298e+06 3.47169e+06 3.67513e+06 -1.11098e+06 -208965 123913
199 2 Si 6.02709 35.2665 1.4948 2.4 -33.3072 9.92642e+06 1.03145e+07 9.3483e+06 -405610 1.61748e+06 -1.74261e+06
200 3 O 6.09339 36.8798 1.4948 -1.2 -8.35537 -6.04558e+06 -1.06586e+06 -9.45625e+06 -141463 -6.63596e+06 -2.06269e+06
201 3 O 2.40018 34.2925 1.4948 -1.2 -9.76453 -3.87744e+06 -1.5321e+06 -1.1051e+06 1.69437e+06 -515142 -938890
202 3 O 5.31645 34.5604 0.196716 -1.2 -6.52325 -3.57829e+06 -1.37069e+07 -9.08711e+06 -938043 -7.8581e+06 941869
203 1 Mg 6.91449 33.243 2.9896 1.2 -7.82236 4.44742e+06 -1.05052e+06 -1.27992e+06 1.33062e+06 -1.4076e+06 2.02035e+06
204 3 O 5.291 34.5604 2.79288 -1.2 -8.98891 -1.81703e+06 -4.47734e+06 -1.45645e+06 1.0954e+06 -243104 -1.2564e+06
205 1 Mg -0.471101 33.2843 4.4844 1.2 -8.69143 -1.02796e+06 3.23261e+06 2.51599e+06 -475152 -21946 174858
206 2 Si -2.26307 35.9684 4.4844 2.4 -32.5722 1.09996e+07 1.04268e+07 6.93139e+06 82800.3 -132532 235696
207 3 O -2.33122 34.3552 4.4844 -1.2 -9.55011 -3.92039e+06 -861461 -2.90963e+06 395547 -62009.2 -167754
208 3 O 1.36549 36.9425 4.4844 -1.2 -9.42258 -3.05897e+06 -3.65356e+06 -2.31275e+06 2.28707e+06 -240710 -8899.41
209 3 O -1.52658 36.6746 3.18632 -1.2 -9.18757 -2.42403e+06 -4.33694e+06 -357568 1.17283e+06 104492 -1.58659e+06
210 3 O -1.55122 36.6746 5.78248 -1.2 -9.10573 -2.74007e+06 -4.51574e+06 -600747 1.24203e+06 -32159.3 1.30464e+06
211 1 Mg 1.882 35.6175 2.9896 1.2 -7.79775 4.23473e+06 -816404 -1.36107e+06 -1.13069e+06 -1.51134e+06 -1.5061e+06
212 1 Mg 4.69415 35.5762 4.4844 1.2 -8.53264 -936471 3.27574e+06 2.25891e+06 1.30428e+06 -140230 54195.4
213 2 Si 2.88522 37.641 4.4844 2.4 -32.392 1.05913e+07 1.08824e+07 6.54062e+06 847050 -294367 252343
214 3 O 2.91159 39.2543 4.4844 -1.2 -9.72335 -3.51698e+06 -1.17655e+06 -2.90151e+06 538415 -8718.84 -192552
215 3 O -3.74183 36.667 4.4844 -1.2 -9.5056 -3.30896e+06 -3.40215e+06 -2.12504e+06 -1.35327e+06 -318943 -134912
216 3 O 3.58014 36.9349 3.18632 -1.2 -9.24707 -2.38914e+06 -4.52702e+06 -363683 -879100 249971 1.16131e+06
217 1 Mg 1.90997 35.6175 0 1.2 -5.842 2.63247e+06 2.88135e+06 -4.30124e+06 -1.63461e+06 -782749 902873
218 3 O 3.55582 36.9349 5.78248 -1.2 -9.26518 -2.62061e+06 -4.78446e+06 -347747 -894983 -152751 -1.347e+06
219 1 Mg -0.93068 35.6588 1.4948 1.2 -8.54122 -1.1813e+06 3.21837e+06 3.86686e+06 1.84647e+06 -322487 179317
220 2 Si 0.881882 33.5939 1.4948 2.4 -33.5309 9.54814e+06 1.05498e+07 9.75688e+06 1.40312e+06 1.66059e+06 2.35133e+06
221 3 O 0.859602 31.9807 1.4948 -1.2 -7.43389 -5.99044e+06 -924125 -1.4778e+07 1.1575e+06 -8.50795e+06 2.41017e+06
222 3 O 7.507 34.568 1.4948 -1.2 -9.82664 -4.07122e+06 -1.42547e+06 -941504 -931212 -425631 957091
223 3 O 0.210186 34.3001 0.196716 -1.2 -6.53781 -3.66138e+06 -1.44062e+07 -9.12898e+06 1.51841e+06 -7.92306e+06 -746879
224 3 O 0.184454 34.3001 2.79288 -1.2 -8.99968 -1.75376e+06 -4.62175e+06 -1.56056e+06 -818798 -215016 865056
225 1 Mg 7.07415 37.992 0 1.2 -5.83351 2.11445e+06 3.00637e+06 -4.30667e+06 1.86142e+06 -373980 -1.09876e+06
226 1 Mg 4.36817 42.6997 1.4948 1.2 -8.47672 -1.9529e+06 3.63688e+06 3.3445e+06 -996124 127916 120474
227 2 Si 6.16058 40.0155 1.4948 2.4 -32.8842 1.00811e+07 1.01824e+07 8.65538e+06 -376657 1.37358e+06 -1.3529e+06
228 3 O 6.22815 41.6288 1.4948 -1.2 -9.0288 -5.43374e+06 -1.17614e+06 -5.9691e+06 37196.1 -4.53433e+06 -1.70087e+06
229 3 O 2.53282 39.0415 1.4948 -1.2 -9.86295 -3.58455e+06 -1.8907e+06 -1.04233e+06 1.70535e+06 -328724 -1.05934e+06
230 3 O 5.44674 39.3094 0.196716 -1.2 -7.50895 -3.81146e+06 -1.16146e+07 -4.92653e+06 -157096 -5.82253e+06 1.65645e+06
231 1 Mg 7.04922 37.992 2.9896 1.2 -7.66591 4.17116e+06 -770320 -1.52367e+06 1.29109e+06 -1.45072e+06 2.05587e+06
232 3 O 5.42658 39.3094 2.79288 -1.2 -9.14399 -1.6783e+06 -4.71343e+06 -1.14305e+06 1.13278e+06 -315022 -1.36071e+06
233 1 Mg -0.333062 38.0333 4.4844 1.2 -8.50169 -1.41978e+06 3.50088e+06 2.32978e+06 -466598 -106586 105197
234 2 Si -2.12255 40.7174 4.4844 2.4 -32.3257 1.04187e+07 1.07716e+07 6.78281e+06 -2654 -270988 332402
235 3 O -2.19212 39.1042 4.4844 -1.2 -9.70553 -3.49641e+06 -1.16171e+06 -2.79195e+06 477770 -24521.5 -171861
236 3 O 1.50676 41.6915 4.4844 -1.2 -9.54399 -2.99144e+06 -3.71379e+06 -2.11888e+06 2.24645e+06 -289122 -172429
237 3 O -1.3884 41.4236 3.18632 -1.2 -9.27084 -2.21801e+06 -4.49452e+06 -372719 1.15454e+06 159245 -1.60332e+06
238 3 O -1.40713 41.4236 5.78248 -1.2 -9.23969 -2.48689e+06 -4.55221e+06 -667401 1.19076e+06 197876 1.42465e+06
239 1 Mg 2.01892 40.3665 2.9896 1.2 -7.6617 4.07899e+06 -590396 -1.63612e+06 -1.07166e+06 -1.59018e+06 -1.37212e+06
240 1 Mg 4.83434 40.3252 4.4844 1.2 -8.39556 -1.20277e+06 3.44417e+06 2.13703e+06 1.25043e+06 -80003.4 278759
241 2 Si 3.02698 42.39 4.4844 2.4 -32.2888 1.02282e+07 1.0865e+07 6.76441e+06 788781 -73275 507000
242 3 O 3.05433 44.0033 4.4844 -1.2 -9.71744 -3.4099e+06 -1.06843e+06 -3.1057e+06 618862 -30799.9 -273181
243 3 O -3.60077 41.416 4.4844 -1.2 -9.59885 -3.11053e+06 -3.48797e+06 -2.07936e+06 -1.25022e+06 -186031 -240604
244 3 O 3.71851 41.6839 3.18632 -1.2 -9.31151 -2.15719e+06 -4.63996e+06 -487018 -851158 225755 1.0275e+06
245 1 Mg 2.04077 40.3665 0 1.2 -5.8168 1.48808e+06 3.00654e+06 -4.7437e+06 -1.8356e+06 396535 1.72074e+06
246 3 O 3.70011 41.6839 5.78248 -1.2 -9.29775 -2.23477e+06 -4.75305e+06 -679512 -882446 -180895 -1.46574e+06
247 1 Mg -0.796865 40.4078 1.4948 1.2 -8.45423 -1.57367e+06 3.59408e+06 3.35248e+06 1.74161e+06 25607.9 176866
248 2 Si 1.01387 38.3429 1.4948 2.4 -33.052 9.80408e+06 1.0429e+07 8.88957e+06 1.53489e+06 1.39368e+06 2.27337e+06
249 3 O 0.989947 36.7297 1.4948 -1.2 -8.33445 -6.05234e+06 -1.05797e+06 -9.6418e+06 1.03765e+06 -6.60606e+06 1.82203e+06
250 3 O 7.63988 39.317 1.4948 -1.2 -9.91467 -3.74616e+06 -1.79036e+06 -934426 -918622 -273143 925944
251 3 O 0.340253 39.0491 0.196716 -1.2 -7.51322 -3.88957e+06 -1.25265e+07 -4.88377e+06 395150 -5.80688e+06 -1.69701e+06
252 3 O 0.319795 39.0491 2.79288 -1.2 -9.16783 -1.64291e+06 -4.86859e+06 -1.19593e+06 -853102 -184791 783133
253 1 Mg 7.20667 42.741 0 1.2 -5.86681 1.20379e+06 2.92934e+06 -4.7294e+06 1.98863e+06 935831 -2.07491e+06
254 1 Mg 4.50613 47.4487 1.4948 1.2 -8.52669 -1.84187e+06 3.3386e+06 3.40871e+06 -846557 428104 123058
255 2 Si 6.29731 44.7645 1.4948 2.4 -32.7541 1.04772e+07 9.29708e+06 8.91306e+06 -235654 918353 -1.28009e+06
256 3 O 6.36567 46.3778 1.4948 -1.2 -9.38166 -4.7198e+06 -850171 -4.3416e+06 176392 -2.70977e+06 -1.42366e+06
257 3 O 2.669 43.7905 1.4948 -1.2 -9.82176 -3.45002e+06 -1.99127e+06 -1.41115e+06 1.71748e+06 -200291 -1.01372e+06
258 3 O 5.58048 44.0584 0.196716 -1.2 -8.21131 -3.73801e+06 -8.91354e+06 -2.61092e+06 317887 -3.73899e+06 2.3724e+06
259 1 Mg 7.1879 42.741 2.9896 1.2 -7.61121 4.06959e+06 -737142 -1.52943e+06 1.27032e+06 -1.60865e+06 2.05981e+06
260 3 O 5.56564 44.0584 2.79288 -1.2 -9.17271 -1.75395e+06 -4.55264e+06 -1.20134e+06 1.14344e+06 -269243 -1.33167e+06
261 1 Mg -0.19105 42.7823 4.4844 1.2 -8.41557 -1.42196e+06 3.49209e+06 2.20286e+06 -371815 -26439 210705
262 2 Si -1.97909 45.4664 4.4844 2.4 -32.3108 1.05101e+07 1.04164e+07 7.02776e+06 206155 -181356 676240
263 3 O -2.04947 43.8532 4.4844 -1.2 -9.75538 -3.50879e+06 -1.09763e+06 -2.74316e+06 416752 79400.5 -216973
264 3 O 1.65063 46.4405 4.4844 -1.2 -9.4987 -3.0591e+06 -3.32591e+06 -2.49939e+06 2.34679e+06 -210698 -256805
265 3 O -1.24745 46.1726 3.18632 -1.2 -9.22546 -2.21555e+06 -4.21383e+06 -828855 1.1426e+06 92599.6 -1.6649e+06
266 3 O -1.26044 46.1726 5.78248 -1.2 -9.23294 -2.36351e+06 -4.26193e+06 -966341 1.15755e+06 -31524.6 710974
267 1 Mg 2.15896 45.1155 2.9896 1.2 -7.68231 4.06735e+06 -792540 -1.37353e+06 -1.07798e+06 -1.66859e+06 -1.35171e+06
268 1 Mg 4.97763 45.0742 4.4844 1.2 -8.41982 -1.2065e+06 3.27179e+06 2.35446e+06 1.22955e+06 -116513 267556