ITEM: TIMESTEP
15600
ITEM: NUMBER OF ATOMS
10500
ITEM: BOX BOUNDS xy xz yz pp pp pp
0.0000000000000000e+00 1.5297749999999999e+01 5.0992499999999996e+00
0.0000000000000000e+00 1.1872499999999999e+02 0.0000000000000000e+00
0.0000000000000000e+00 8.9688000000000002e+01 0.0000000000000000e+00
ITEM: ATOMS id type element xu yu zu q c_pe c_s[1] c_s[2] c_s[3] c_s[4] c_s[5] c_s[6]
1 1 Mg 6.2404 -6.37941e-06 0 1.2 -4.47136 7.98899e+06 -2.0069e+06 -6.07994e+06 -22473.7 2.63444e+06 -197017
2 1 Mg 3.46349 4.70768 1.4948 1.2 -8.53622 -239113 2.65744e+06 4.3543e+06 -927460 -634615 35791
3 2 Si 5.2885 2.02354 1.4948 2.4 -35.3665 1.02351e+07 1.07064e+07 1.15142e+07 8.85911e+06 718643 -3.14996e+06
4 3 O 5.33628 3.63678 1.4948 -1.2 -4.66811 -927523 -1.37114e+06 -3.37205e+07 -333775 3.80296e+06 -3.82658e+06
5 3 O 1.67294 1.04952 1.4948 -1.2 -0.988555 -2.04053e+07 -7.92367e+07 -2.26878e+06 -2.41293e+07 -97264.1 -75536.2
6 3 O 4.59532 1.31737 0.196716 -1.2 -2.97947 -2.04161e+06 -6.53448e+06 -3.06283e+07 -6.02901e+06 6.22776e+06 -2.63176e+06
7 1 Mg 6.18956 -6.37941e-06 2.9896 1.2 -5.01425 1.72777e+06 -2.83901e+07 -2.83938e+06 -8.84214e+06 2.49734e+06 4.06319e+06
8 3 O 4.55118 1.31737 2.79288 -1.2 -7.42862 -30017.5 -4.53908e+06 -3.26985e+06 -2.96036e+06 -3.40181e+06 -1.09522e+06
9 1 Mg -1.20682 0.0413099 4.4844 1.2 8.75899 -3.06218e+07 -9.35571e+07 43677.9 -2.85174e+07 -1.2098e+06 210213
10 2 Si -3.0337 2.72544 4.4844 2.4 -33.3365 1.47611e+07 6.73351e+06 8.29353e+06 1.53861e+06 269302 -847973
11 3 O -3.08099 1.11221 4.4844 -1.2 -9.47912 -6.39727e+06 269516 -2.3875e+06 -1.20669e+06 -315190 309776
12 3 O 0.582463 3.69946 4.4844 -1.2 -8.85644 -3.32505e+06 -5.41413e+06 -3.03556e+06 -587580 -161084 -6973.24
13 3 O -2.29524 3.43162 3.18632 -1.2 -8.98086 -4.34154e+06 -2.43187e+06 -671421 1.10684e+06 -873770 -862587
14 3 O -2.34216 3.43162 5.78248 -1.2 -8.73021 -4.13292e+06 -3.18806e+06 -1.6285e+06 846757 480715 1.4879e+06
15 1 Mg 1.12778 2.37449 2.9896 1.2 -7.69237 5.27336e+06 -1.77741e+06 -490860 -3.27031e+06 -4.22834e+06 -2.29506e+06
16 1 Mg 3.92855 2.33318 4.4844 1.2 -8.56007 -3.92746e+06 4.75781e+06 4.91097e+06 1.3817e+06 240551 448786
17 2 Si 2.09341 4.39804 4.4844 2.4 -32.5524 1.21518e+07 6.69015e+06 9.23788e+06 244559 -370755 386900
18 3 O 2.09991 6.01128 4.4844 -1.2 -9.42986 -4.0507e+06 6689.09 -4.00825e+06 532447 -117330 -48956.5
19 3 O -4.52137 3.42402 4.4844 -1.2 -9.10086 -3.12533e+06 -2.78202e+06 -3.60647e+06 -2.39511e+06 -870971 120671
20 3 O 2.80834 3.69187 3.18632 -1.2 -9.25675 -2.23195e+06 -2.72602e+06 -533230 445519 -443289 -433649
21 1 Mg 1.17857 2.37449 0 1.2 -5.18522 -549584 -1.49473e+07 -6.27802e+06 6.52076e+06 1.18394e+06 4.53551e+06
22 3 O 2.76143 3.69187 5.78248 -1.2 -9.23027 -2.9041e+06 -2.32862e+06 -1.40496e+06 488863 160665 15343
23 1 Mg -1.67381 2.41581 1.4948 1.2 -7.64346 1.65396e+06 -345913 4.20474e+06 1.34987e+06 -571910 963063
24 2 Si 0.16286 0.350945 1.4948 2.4 -24.6803 -8.07311e+06 1.21345e+07 1.17788e+07 1.5864e+06 2.80517e+06 1.19918e+06
25 3 O 0.15972 -1.26229 1.4948 -1.2 -4.71105 -1.07191e+07 -7.8799e+06 -2.91382e+07 -5.60117e+06 -8.52035e+06 -2.69448e+06
26 3 O 6.77654 1.32496 1.4948 -1.2 -10.2964 -5.8546e+06 1.92474e+06 -1.51735e+06 -638378 -673110 1.09785e+06
27 3 O -0.508028 1.05712 0.196716 -1.2 -9.47689 34580.3 -4.52922e+06 -853571 -550057 212091 -4.51957e+06
28 3 O -0.552171 1.05712 2.79288 -1.2 -6.70716 -5.42037e+06 -4.43791e+06 -2.48778e+07 1.42314e+06 -6.785e+06 -5.50445e+06
29 1 Mg 6.31713 4.74899 0 1.2 -4.9905 479112 -1.2941e+07 -6.09474e+06 -7.30966e+06 1.44718e+06 -3.65198e+06
30 1 Mg 3.54847 9.45668 1.4948 1.2 -8.36278 326518 1.79231e+06 4.35452e+06 -952621 -928554 -347555
31 2 Si 5.36879 6.77254 1.4948 2.4 -34.3938 7.48692e+06 1.20875e+07 1.14785e+07 1.67384e+06 181219 -1.99694e+06
32 3 O 5.41937 8.38578 1.4948 -1.2 -4.72003 -402845 -988283 -3.51492e+07 763716 1.08848e+06 -4.20877e+06
33 3 O 1.75158 5.79852 1.4948 -1.2 -9.44384 -4.06891e+06 -2.35863e+06 -1.45446e+06 1.96497e+06 -1.57213e+06 -1.30981e+06
34 3 O 4.67421 6.06637 0.196716 -1.2 -3.72061 59156.7 -1.01279e+07 -3.14499e+07 -2.0164e+06 1.28444e+06 -4.40623e+06
35 1 Mg 6.26654 4.74899 2.9896 1.2 -8.08894 4.25586e+06 -1.70776e+06 -17915.6 1.79745e+06 -820408 1.88279e+06
36 3 O 4.63043 6.06637 2.79288 -1.2 -8.79767 -1.7324e+06 -3.95714e+06 -2.17362e+06 923347 -111599 -1.42897e+06
37 1 Mg -1.12976 4.79031 4.4844 1.2 -8.88084 -505079 2.78377e+06 2.81887e+06 -726575 -370683 -179756
38 2 Si -2.9517 7.47444 4.4844 2.4 -32.9817 1.14886e+07 8.84984e+06 8.66296e+06 59554.6 32902.1 -71491.2
39 3 O -3.00198 5.86121 4.4844 -1.2 -9.3776 -4.12693e+06 -158749 -3.70379e+06 66821.2 -250864 39145.3
40 3 O 0.666315 8.44846 4.4844 -1.2 -9.21487 -3.41992e+06 -2.65008e+06 -3.24119e+06 2.1432e+06 -432519 94542
41 3 O -2.21213 8.18062 3.18632 -1.2 -9.03912 -3.00986e+06 -3.40993e+06 -637792 1.10879e+06 -318398 -1.40755e+06
42 3 O -2.25864 8.18062 5.78248 -1.2 -8.88465 -3.03734e+06 -3.59127e+06 -1.88207e+06 1.02191e+06 -80658.8 1.3814e+06
43 1 Mg 1.20893 7.12349 2.9896 1.2 -8.05181 4.18889e+06 -1.59345e+06 -145555 -1.28873e+06 -1.35918e+06 -1.7159e+06
44 1 Mg 4.00982 7.08218 4.4844 1.2 -8.71331 -702212 2.5026e+06 3.07882e+06 1.04665e+06 -270190 77397.6
45 2 Si 2.17861 9.14704 4.4844 2.4 -32.908 1.13505e+07 9.00578e+06 8.49271e+06 590326 -149519 -57179.3
46 3 O 2.18828 10.7603 4.4844 -1.2 -9.43616 -3.97703e+06 -276074 -3.76648e+06 428103 -155910 26205.9
47 3 O -4.43805 8.17302 4.4844 -1.2 -9.25241 -3.47374e+06 -2.59473e+06 -3.14695e+06 -1.53918e+06 -540264 5682.55
48 3 O 2.89193 8.44087 3.18632 -1.2 -9.06447 -2.88048e+06 -3.60511e+06 -687361 -930014 -210040 1.31096e+06
49 1 Mg 1.25915 7.12349 0 1.2 -5.35956 1.03289e+06 -7.55415e+06 -6.33812e+06 5.89686e+06 1.3524e+06 2.58599e+06
50 3 O 2.84547 8.44087 5.78248 -1.2 -8.97044 -2.98598e+06 -3.76057e+06 -1.71208e+06 -894554 -92102.9 -1.07817e+06
51 1 Mg -1.59284 7.16481 1.4948 1.2 -8.2981 895896 1.38152e+06 4.29136e+06 1.45088e+06 -910294 305929
52 2 Si 0.240329 5.09994 1.4948 2.4 -34.1833 8.44397e+06 1.08736e+07 1.13988e+07 -1.96712e+06 -1.08874e+06 1.85204e+06
53 3 O 0.234538 3.48671 1.4948 -1.2 -5.15918 -1.85303e+06 492439 -3.39078e+07 399817 5.19687e+06 4.0171e+06
54 3 O 6.85564 6.07396 1.4948 -1.2 -9.52894 -4.51074e+06 -1.81163e+06 -1.38455e+06 -1.33989e+06 -1.85263e+06 1.19906e+06
55 3 O -0.429565 5.80612 0.196716 -1.2 -3.97029 -754800 -8.76111e+06 -3.15595e+07 1.8581e+06 1.20856e+06 4.59102e+06
56 3 O -0.473377 5.80612 2.79288 -1.2 -8.87312 -2.22043e+06 -3.54652e+06 -2.07428e+06 -769087 307953 1.35846e+06
57 1 Mg 6.40169 9.49799 0 1.2 -5.30062 1.60158e+06 -6.38443e+06 -6.65994e+06 -5.48904e+06 1.01472e+06 -2.48588e+06
58 1 Mg 3.64209 14.2057 1.4948 1.2 -8.41271 203068 1.80647e+06 4.50292e+06 -1.02453e+06 -966728 -362626
59 2 Si 5.45748 11.5215 1.4948 2.4 -34.3071 7.63527e+06 1.18222e+07 1.14327e+07 893779 358610 -2.2501e+06
60 3 O 5.51101 13.1348 1.4948 -1.2 -4.7788 -533923 -908815 -3.48233e+07 466341 -2.53972e+06 -4.28e+06
61 3 O 1.83851 10.5475 1.4948 -1.2 -9.55029 -4.25977e+06 -1.92947e+06 -1.25033e+06 1.53412e+06 -1.56601e+06 -1.04785e+06
62 3 O 4.7611 10.8154 0.196716 -1.2 -3.607 548633 -1.15289e+07 -3.19429e+07 -2.47323e+06 -1.76717e+06 -4.24179e+06
63 1 Mg 6.35203 9.49799 2.9896 1.2 -8.01001 4.17806e+06 -1.562e+06 -214578 1.30853e+06 -1.15728e+06 1.94706e+06
64 3 O 4.71833 10.8154 2.79288 -1.2 -8.84749 -1.89208e+06 -3.84328e+06 -2.05712e+06 1.05194e+06 23687 -1.27245e+06
65 1 Mg -1.0438 9.53931 4.4844 1.2 -8.73204 -825483 2.54263e+06 3.10521e+06 -565655 -296110 -119354
66 2 Si -2.8604 12.2234 4.4844 2.4 -32.9161 1.14406e+07 9.11985e+06 8.33568e+06 -127971 -31468.3 -5762.09
67 3 O -2.91391 10.6102 4.4844 -1.2 -9.43478 -3.98119e+06 -270888 -3.65574e+06 243598 -225037 65120.3
68 3 O 0.7596 13.1975 4.4844 -1.2 -9.21749 -3.40831e+06 -2.722e+06 -3.18069e+06 2.12757e+06 -505886 61483.6
69 3 O -2.12001 12.9296 3.18632 -1.2 -9.04609 -2.93782e+06 -3.51006e+06 -604458 1.17735e+06 -227591 -1.47817e+06
70 3 O -2.16532 12.9296 5.78248 -1.2 -8.93359 -3.0501e+06 -3.81938e+06 -1.52547e+06 1.20724e+06 -124229 1.32277e+06
71 1 Mg 1.29891 11.8725 2.9896 1.2 -8.02355 4.21325e+06 -1.49775e+06 -314106 -1.1656e+06 -1.23044e+06 -1.72921e+06
72 1 Mg 4.10033 11.8312 4.4844 1.2 -8.69931 -664729 2.61352e+06 2.91112e+06 1.12613e+06 -323360 73696.6
73 2 Si 2.27333 13.896 4.4844 2.4 -32.9392 1.14113e+07 8.99016e+06 8.49588e+06 762452 -57428.2 40014.7
74 3 O 2.28634 15.5093 4.4844 -1.2 -9.40972 -4.05866e+06 -162639 -3.84098e+06 423474 -223477 20486.5
75 3 O -4.34533 12.922 4.4844 -1.2 -9.26273 -3.49877e+06 -2.68216e+06 -3.01821e+06 -1.44908e+06 -464420 -107626
76 3 O 2.98455 13.1899 3.18632 -1.2 -9.07035 -2.90634e+06 -3.60109e+06 -677891 -977828 -152367 1.31767e+06
77 1 Mg 1.34779 11.8725 0 1.2 -5.52796 2.8254e+06 -2.77786e+06 -6.73865e+06 3.56323e+06 792691 1.51873e+06
78 3 O 2.93934 13.1899 5.78248 -1.2 -8.93851 -2.96481e+06 -3.87427e+06 -1.69739e+06 -999491 -81565.2 -1.21513e+06
79 1 Mg -1.50344 11.9138 1.4948 1.2 -8.35839 541460 1.76949e+06 4.33821e+06 1.55621e+06 -940913 345790
80 2 Si 0.326006 9.84894 1.4948 2.4 -34.2922 7.70795e+06 1.18407e+07 1.129e+07 -606534 87054.6 2.19617e+06
81 3 O 0.317364 8.23571 1.4948 -1.2 -4.72019 -518609 -855374 -3.52955e+07 -120790 1.19243e+06 4.21542e+06
82 3 O 6.94307 10.823 1.4948 -1.2 -9.58906 -4.40034e+06 -1.75296e+06 -1.18309e+06 -979410 -1.54321e+06 1.102e+06
83 3 O -0.343122 10.5551 0.196716 -1.2 -3.70507 241880 -1.09849e+07 -3.19881e+07 2.46703e+06 -2.04321e+06 4.55541e+06
84 3 O -0.385966 10.5551 2.79288 -1.2 -8.87565 -1.92015e+06 -3.88424e+06 -2.08766e+06 -860566 96041.6 1.17288e+06
85 1 Mg 6.49448 14.247 0 1.2 -5.49591 3.27727e+06 -2.00691e+06 -6.82794e+06 -2.96212e+06 252097 -1.63522e+06
86 1 Mg 3.74457 18.9547 1.4948 1.2 -8.48233 -10621.2 1.86218e+06 4.69524e+06 -1.1189e+06 -955508 -376485
87 2 Si 5.55495 16.2705 1.4948 2.4 -34.2888 7.8614e+06 1.13408e+07 1.16774e+07 537304 782338 -2.44423e+06
88 3 O 5.6115 17.8838 1.4948 -1.2 -5.0959 -1.53573e+06 -717013 -3.22741e+07 74002.8 -6.04982e+06 -4.03935e+06
89 3 O 1.93416 15.2965 1.4948 -1.2 -9.5924 -4.33829e+06 -1.53795e+06 -1.24597e+06 1.53208e+06 -1.38515e+06 -951335
90 3 O 4.85636 15.5644 0.196716 -1.2 -3.63007 565618 -1.31573e+07 -3.04613e+07 -3.04133e+06 -5.11966e+06 -3.62394e+06
91 1 Mg 6.44662 14.247 2.9896 1.2 -8.00004 4.24476e+06 -1.60198e+06 -258274 1.27897e+06 -1.20453e+06 1.9968e+06
92 3 O 4.81537 15.5644 2.79288 -1.2 -8.82253 -1.86623e+06 -3.76825e+06 -2.22788e+06 1.05714e+06 -27444.9 -1.25612e+06
93 1 Mg -0.948271 14.2883 4.4844 1.2 -8.73332 -800873 2.54712e+06 3.06992e+06 -592631 -281199 -40751.5
94 2 Si -2.75928 16.9724 4.4844 2.4 -32.9914 1.14629e+07 8.80974e+06 8.74659e+06 -59101.6 -271578 71593.3
95 3 O -2.81617 15.3592 4.4844 -1.2 -9.40332 -4.01612e+06 -183244 -3.75169e+06 317699 -99720.9 -56128.4
96 3 O 0.862762 17.9465 4.4844 -1.2 -9.22982 -3.51587e+06 -2.61721e+06 -3.16347e+06 2.19548e+06 -499380 74822.4
97 3 O -2.0185 17.6786 3.18632 -1.2 -9.03165 -2.92294e+06 -3.39432e+06 -778107 1.16877e+06 -92476.8 -1.46194e+06
98 3 O -2.06164 17.6786 5.78248 -1.2 -8.87698 -3.05955e+06 -3.65036e+06 -1.76302e+06 1.17336e+06 112755 1.26523e+06
99 1 Mg 1.39817 16.6215 2.9896 1.2 -8.0141 4.34725e+06 -1.61647e+06 -346635 -1.16541e+06 -1.20107e+06 -1.73061e+06
100 1 Mg 4.20062 16.5802 4.4844 1.2 -8.75058 -672209 2.46315e+06 3.1537e+06 1.1834e+06 -228910 69186.4
101 2 Si 2.37796 18.645 4.4844 2.4 -32.9069 1.15186e+07 8.7657e+06 8.56103e+06 661372 69140 -64268.9
102 3 O 2.39434 20.2583 4.4844 -1.2 -9.45806 -4.03613e+06 -99909.7 -3.85099e+06 536683 -194320 56977.1
103 3 O -4.24274 17.671 4.4844 -1.2 -9.22359 -3.47336e+06 -2.51811e+06 -3.26576e+06 -1.45096e+06 -453083 -61418.4
104 3 O 3.08659 17.9389 3.18632 -1.2 -9.06417 -2.91196e+06 -3.49701e+06 -824272 -943912 -119841 1.37323e+06
105 1 Mg 1.44478 16.6215 0 1.2 -5.6382 4.50012e+06 111342 -6.68331e+06 1.39133e+06 -43712.4 754217
106 3 O 3.0436 17.9389 5.78248 -1.2 -8.91486 -3.01663e+06 -3.73993e+06 -1.82588e+06 -918646 -323377 -1.19195e+06
107 1 Mg -1.40524 16.6628 1.4948 1.2 -8.43276 359267 1.81592e+06 4.54549e+06 1.68384e+06 -981527 268068
108 2 Si 0.420358 14.5979 1.4948 2.4 -34.2785 7.80799e+06 1.16019e+07 1.13911e+07 -141818 570111 2.31823e+06
109 3 O 0.408732 12.9847 1.4948 -1.2 -4.76988 -577732 -891195 -3.49456e+07 226342 -2.56017e+06 4.32316e+06
110 3 O 7.03923 15.572 1.4948 -1.2 -9.62666 -4.43938e+06 -1.38498e+06 -1.21044e+06 -942986 -1.29434e+06 1.09688e+06
111 3 O -0.248332 15.3041 0.196716 -1.2 -3.73574 219508 -1.26921e+07 -3.0464e+07 3.26288e+06 -5.42194e+06 4.12475e+06
112 3 O -0.289436 15.3041 2.79288 -1.2 -8.8652 -1.91141e+06 -3.87377e+06 -2.16635e+06 -842471 44099.2 1.13762e+06
113 1 Mg 6.59566 18.996 0 1.2 -5.62447 4.66637e+06 517190 -6.49192e+06 -916560 -688608 -1.04537e+06
114 1 Mg 3.85574 23.7037 1.4948 1.2 -8.52386 -346197 2.07156e+06 4.74816e+06 -1.19107e+06 -901633 -231913
115 2 Si 5.66125 21.0195 1.4948 2.4 -34.1647 8.24337e+06 1.08529e+07 1.16463e+07 181556 1.23402e+06 -2.53795e+06
116 3 O 5.72074 22.6328 1.4948 -1.2 -5.73418 -3.16815e+06 -614565 -2.73808e+07 -216992 -8.52504e+06 -3.62412e+06
117 3 O 2.03867 20.0455 1.4948 -1.2 -9.63493 -4.33648e+06 -1.21302e+06 -1.30222e+06 1.57508e+06 -1.16032e+06 -871068
118 3 O 4.96004 20.3134 0.196716 -1.2 -3.95831 -153842 -1.45128e+07 -2.66745e+07 -3.17617e+06 -7.93883e+06 -2.61524e+06
119 1 Mg 6.55057 18.996 2.9896 1.2 -7.98058 4.28671e+06 -1.72164e+06 -211169 1.31197e+06 -1.2225e+06 1.9091e+06
120 3 O 4.92172 20.3134 2.79288 -1.2 -8.84156 -1.81853e+06 -3.7447e+06 -2.30583e+06 1.08115e+06 -108144 -1.15731e+06
121 1 Mg -0.84282 19.0373 4.4844 1.2 -8.72099 -834845 2.43902e+06 3.18368e+06 -522918 -352062 -35160.8
122 2 Si -2.64823 21.7214 4.4844 2.4 -32.8428 1.11963e+07 8.83703e+06 8.74694e+06 71875.5 -182924 -109048
123 3 O -2.70847 20.1082 4.4844 -1.2 -9.42963 -3.91503e+06 -102674 -3.88676e+06 280671 -76892.2 46034.7
124 3 O 0.97581 22.6955 4.4844 -1.2 -9.29942 -3.35639e+06 -2.62853e+06 -3.20672e+06 2.2321e+06 -432105 70724.9
125 3 O -1.9076 22.4276 3.18632 -1.2 -9.07628 -2.79052e+06 -3.43973e+06 -832962 1.15345e+06 -39259.2 -1.46253e+06
126 3 O -1.9475 22.4276 5.78248 -1.2 -9.00174 -2.80273e+06 -3.69077e+06 -1.67368e+06 1.10398e+06 -7667.7 1.40116e+06
127 1 Mg 1.50678 21.3705 2.9896 1.2 -7.95963 4.36658e+06 -1.64851e+06 -421231 -1.17411e+06 -1.25601e+06 -1.70357e+06
128 1 Mg 4.31086 21.3292 4.4844 1.2 -8.67308 -747126 2.45826e+06 3.11003e+06 1.15872e+06 -207665 -27116
129 2 Si 2.49243 23.394 4.4844 2.4 -32.7178 1.12526e+07 8.82064e+06 8.46777e+06 694786 -125776 -70557.3
130 3 O 2.51204 25.0073 4.4844 -1.2 -9.56368 -3.91265e+06 -200158 -3.71277e+06 530276 -117839 13175.5
131 3 O -4.13026 22.42 4.4844 -1.2 -9.32941 -3.38244e+06 -2.57847e+06 -3.13612e+06 -1.4147e+06 -477788 -2001.9
132 3 O 3.19799 22.6879 3.18632 -1.2 -9.11993 -2.81203e+06 -3.54442e+06 -846808 -912887 921.583 1.35343e+06
133 1 Mg 1.5501 21.3705 0 1.2 -5.69716 5.36523e+06 1.60483e+06 -6.16941e+06 -59196.1 -977740 329631
134 3 O 3.1583 22.6879 5.78248 -1.2 -9.04954 -2.86591e+06 -3.68912e+06 -1.80748e+06 -872281 -137644 -1.20584e+06
135 1 Mg -1.29822 21.4118 1.4948 1.2 -8.49001 76251 1.95542e+06 4.67633e+06 1.81154e+06 -957609 208510
136 2 Si 0.523568 19.3469 1.4948 2.4 -34.2103 8.12451e+06 1.10995e+07 1.1496e+07 304847 993612 2.37087e+06
137 3 O 0.508934 17.7337 1.4948 -1.2 -5.09222 -1.6121e+06 -710055 -3.23454e+07 672555 -6.08694e+06 4.17955e+06
138 3 O 7.14425 20.321 1.4948 -1.2 -9.67172 -4.42464e+06 -1.0735e+06 -1.27383e+06 -941344 -1.06123e+06 1.11309e+06
139 3 O -0.145107 20.0531 0.196716 -1.2 -4.0628 -540215 -1.41756e+07 -2.66615e+07 3.67303e+06 -8.20216e+06 3.19375e+06
140 3 O -0.183601 20.0531 2.79288 -1.2 -8.88234 -1.86528e+06 -3.8488e+06 -2.25976e+06 -842908 10875.2 1.12227e+06
141 1 Mg 6.70502 23.745 0 1.2 -5.70062 5.16644e+06 1.80354e+06 -5.77258e+06 409008 -1.47573e+06 -596988
142 1 Mg 3.97493 28.4527 1.4948 1.2 -8.56055 -745232 2.32269e+06 4.72224e+06 -1.22708e+06 -758201 58378.4
143 2 Si 5.77602 25.7685 1.4948 2.4 -33.9345 8.74489e+06 1.03998e+07 1.13165e+07 -114048 1.60068e+06 -2.13346e+06
144 3 O 5.83821 27.3818 1.4948 -1.2 -6.58072 -4.83899e+06 -538616 -2.1194e+07 -339426 -9.32467e+06 -3.22112e+06
145 3 O 2.15175 24.7945 1.4948 -1.2 -9.69443 -4.22884e+06 -1.06302e+06 -1.33056e+06 1.61825e+06 -913862 -954316
146 3 O 5.07184 25.0624 0.196716 -1.2 -4.6151 -1.37495e+06 -1.51962e+07 -2.10963e+07 -2.77932e+06 -9.45662e+06 -1.49695e+06
147 1 Mg 6.66374 23.745 2.9896 1.2 -7.89646 4.27299e+06 -1.65728e+06 -393712 1.32247e+06 -1.22411e+06 1.96484e+06
148 3 O 5.03707 25.0624 2.79288 -1.2 -8.90608 -1.75252e+06 -3.84223e+06 -2.21149e+06 1.08656e+06 -195613 -1.27671e+06
149 1 Mg -0.727559 23.7863 4.4844 1.2 -8.64356 -1.08018e+06 2.53062e+06 3.20539e+06 -517159 -290869 -7013.28
150 2 Si -2.5277 26.4704 4.4844 2.4 -32.7169 1.08877e+07 9.02595e+06 8.67379e+06 57307.9 -178623 252202
151 3 O -2.59107 24.8572 4.4844 -1.2 -9.52363 -3.74103e+06 -225436 -3.77638e+06 347849 -98520.1 -76250
152 3 O 1.09817 27.4445 4.4844 -1.2 -9.37002 -3.29351e+06 -2.77541e+06 -3.01392e+06 2.23591e+06 -342548 -139293
153 3 O -1.78784 27.1766 3.18632 -1.2 -9.11149 -2.64733e+06 -3.53457e+06 -879852 1.15677e+06 45713.8 -1.65339e+06
154 3 O -1.82343 27.1766 5.78248 -1.2 -9.03199 -2.58083e+06 -3.81473e+06 -1.76467e+06 1.12708e+06 77194.9 1.26941e+06
155 1 Mg 1.62435 26.1195 2.9896 1.2 -7.88214 4.34955e+06 -1.55389e+06 -619921 -1.15736e+06 -1.33943e+06 -1.51378e+06
156 1 Mg 4.43064 26.0782 4.4844 1.2 -8.57584 -869439 2.55625e+06 2.97937e+06 1.21184e+06 -127293 141718
157 2 Si 2.61607 28.143 4.4844 2.4 -32.6037 1.11718e+07 9.00737e+06 8.17894e+06 720524 -107560 475938
158 3 O 2.63853 29.7563 4.4844 -1.2 -9.56444 -3.89459e+06 -173884 -3.75619e+06 576913 -89937.1 -248404
159 3 O -4.00841 27.169 4.4844 -1.2 -9.39392 -3.30319e+06 -2.64103e+06 -3.04282e+06 -1.36437e+06 -481278 -191384
160 3 O 3.3182 27.4369 3.18632 -1.2 -9.16653 -2.71072e+06 -3.65109e+06 -842696 -894086 75638.3 1.1162e+06
161 1 Mg 1.66335 26.1195 0 1.2 -5.74793 5.14032e+06 2.24921e+06 -5.28828e+06 -897146 -1.60085e+06 328507
162 3 O 3.28288 27.4369 5.78248 -1.2 -9.17503 -2.73914e+06 -3.84204e+06 -1.4944e+06 -865749 -282935 -1.41813e+06
163 1 Mg -1.18278 26.1608 1.4948 1.2 -8.52941 -311347 2.20113e+06 4.68912e+06 1.88806e+06 -861392 296405
164 2 Si 0.635424 24.0959 1.4948 2.4 -34.0249 8.49937e+06 1.06813e+07 1.13096e+07 744586 1.31494e+06 2.56501e+06
165 3 O 0.617906 22.4827 1.4948 -1.2 -5.72745 -3.23986e+06 -594896 -2.74744e+07 1.01179e+06 -8.5223e+06 3.69817e+06
166 3 O 7.25781 25.07 1.4948 -1.2 -9.73481 -4.32993e+06 -939290 -1.2817e+06 -937738 -846034 967445
167 3 O -0.0337363 24.8021 0.196716 -1.2 -4.70563 -1.73506e+06 -1.51504e+07 -2.10487e+07 3.49699e+06 -9.60911e+06 1.81333e+06
168 3 O -0.0687235 24.8021 2.79288 -1.2 -8.93959 -1.75626e+06 -3.9588e+06 -2.21918e+06 -826968 -30745.8 981643
169 1 Mg 6.82195 28.494 0 1.2 -5.77265 4.64063e+06 2.3377e+06 -4.786e+06 1.15343e+06 -1.80891e+06 -318683
170 1 Mg 4.10106 33.2017 1.4948 1.2 -8.58682 -1.17218e+06 2.57534e+06 4.59814e+06 -1.20941e+06 -534339 108254
171 2 Si 5.89839 30.5175 1.4948 2.4 -33.6669 9.35713e+06 9.82059e+06 1.09379e+07 -330134 1.73659e+06 -1.72234e+06
172 3 O 5.96289 32.1308 1.4948 -1.2 -7.47875 -5.92001e+06 -470707 -1.5087e+07 -287727 -8.47714e+06 -2.63766e+06
173 3 O 2.27266 29.5435 1.4948 -1.2 -9.73817 -4.09449e+06 -994986 -1.41464e+06 1.65973e+06 -696585 -1.12106e+06
174 3 O 5.19102 29.8114 0.196716 -1.2 -5.51324 -2.6502e+06 -1.48192e+07 -1.49569e+07 -1.9386e+06 -9.3106e+06 -339385
175 1 Mg 6.78546 28.494 2.9896 1.2 -7.84219 4.2798e+06 -1.62347e+06 -515810 1.31812e+06 -1.27112e+06 2.14361e+06
176 3 O 5.16061 29.8114 2.79288 -1.2 -8.94135 -1.76234e+06 -3.85941e+06 -2.16636e+06 1.1153e+06 -256954 -1.42727e+06
177 1 Mg -0.603205 28.5353 4.4844 1.2 -8.62121 -1.18791e+06 2.6086e+06 3.19347e+06 -448243 -295855 222533
178 2 Si -2.39877 31.2194 4.4844 2.4 -32.7331 1.09336e+07 8.92254e+06 8.76243e+06 92985.4 -121275 427446
179 3 O -2.46483 29.6062 4.4844 -1.2 -9.53176 -3.71481e+06 -235882 -3.76642e+06 367231 -91617.2 -238954
180 3 O 1.22864 32.1935 4.4844 -1.2 -9.34541 -3.30567e+06 -2.71544e+06 -3.1045e+06 2.24651e+06 -319843 -139768
181 3 O -1.66032 31.9256 3.18632 -1.2 -9.11349 -2.5771e+06 -3.54126e+06 -1.0175e+06 1.15189e+06 94635.7 -1.67697e+06
182 3 O -1.69072 31.9256 5.78248 -1.2 -8.96765 -2.63155e+06 -3.68129e+06 -1.89783e+06 1.16316e+06 59652.1 1.21134e+06
183 1 Mg 1.7499 30.8685 2.9896 1.2 -7.85232 4.3651e+06 -1.55949e+06 -671011 -1.13666e+06 -1.41746e+06 -1.35442e+06
184 1 Mg 4.55894 30.8272 4.4844 1.2 -8.58599 -842143 2.48567e+06 3.0409e+06 1.20066e+06 -142190 234857
185 2 Si 2.7476 32.892 4.4844 2.4 -32.6367 1.10555e+07 9.01893e+06 8.33648e+06 767036 -213985 340318
186 3 O 2.77235 34.5053 4.4844 -1.2 -9.57338 -3.77155e+06 -287613 -3.75718e+06 558577 -43467.9 -151313
187 3 O -3.87837 31.918 4.4844 -1.2 -9.39717 -3.39133e+06 -2.58081e+06 -3.0148e+06 -1.33722e+06 -448425 -215602
188 3 O 3.44611 32.1859 3.18632 -1.2 -9.16755 -2.62297e+06 -3.68135e+06 -991755 -870849 177748 1.07772e+06
189 1 Mg 1.7837 30.8685 0 1.2 -5.80347 4.07835e+06 2.47999e+06 -4.42879e+06 -1.35218e+06 -1.55589e+06 561809
190 3 O 3.41602 32.1859 5.78248 -1.2 -9.10123 -2.75699e+06 -3.78929e+06 -1.56967e+06 -843541 -74292 -1.33193e+06
191 1 Mg -1.05984 30.9098 1.4948 1.2 -8.5642 -733465 2.43602e+06 4.63026e+06 1.90999e+06 -642684 327366
192 2 Si 0.755243 28.8449 1.4948 2.4 -33.7821 9.03136e+06 1.01642e+07 1.09907e+07 1.13597e+06 1.53213e+06 2.87152e+06
193 3 O 0.735127 27.2317 1.4948 -1.2 -6.5738 -4.90448e+06 -525100 -2.12903e+07 1.17595e+06 -9.28491e+06 2.89765e+06
194 3 O 7.37914 29.819 1.4948 -1.2 -9.77915 -4.19928e+06 -876992 -1.37055e+06 -934876 -632571 818262
195 3 O 0.0850649 29.5511 0.196716 -1.2 -5.57569 -2.91279e+06 -1.51617e+07 -1.4898e+07 2.70426e+06 -9.4084e+06 283471
196 3 O 0.0543974 29.5511 2.79288 -1.2 -8.97467 -1.74164e+06 -4.00062e+06 -2.18536e+06 -842264 -84972.7 751782
197 1 Mg 6.94543 33.243 0 1.2 -5.8515 3.4525e+06 2.49326e+06 -3.95354e+06 1.58863e+06 -1.42624e+06 -559619
198 1 Mg 4.23267 37.9507 1.4948 1.2 -8.60244 -1.53973e+06 2.78621e+06 4.36534e+06 -1.12533e+06 -222409 124457
199 2 Si 6.02709 35.2665 1.4948 2.4 -33.3723 9.94928e+06 9.25296e+06 1.04913e+07 -424698 1.61706e+06 -1.64973e+06
200 3 O 6.09339 36.8798 1.4948 -1.2 -8.28655 -6.12698e+06 -446111 -1.01042e+07 -134063 -6.60777e+06 -2.06785e+06
201 3 O 2.40018 34.2925 1.4948 -1.2 -9.76435 -3.9264e+06 -1.03572e+06 -1.55247e+06 1.69336e+06 -508860 -1.04418e+06
202 3 O 5.31645 34.5604 0.196716 -1.2 -6.49209 -3.58723e+06 -1.32796e+07 -9.55533e+06 -950105 -7.85005e+06 864228
203 1 Mg 6.91449 33.243 2.9896 1.2 -7.79895 4.30492e+06 -1.60008e+06 -625335 1.30108e+06 -1.35072e+06 2.08048e+06
204 3 O 5.291 34.5604 2.79288 -1.2 -8.98912 -1.78822e+06 -3.91517e+06 -2.04516e+06 1.13929e+06 -283339 -1.34042e+06
205 1 Mg -0.471101 33.2843 4.4844 1.2 -8.62218 -1.19192e+06 2.57037e+06 3.23133e+06 -420154 -229240 110574
206 2 Si -2.26307 35.9684 4.4844 2.4 -32.5927 1.08292e+07 9.17808e+06 8.38761e+06 53767.4 -212529 152071
207 3 O -2.33122 34.3552 4.4844 -1.2 -9.56277 -3.68792e+06 -272183 -3.70667e+06 431566 -57103.7 -76344.4
208 3 O 1.36549 36.9425 4.4844 -1.2 -9.40075 -3.20096e+06 -2.89033e+06 -2.95467e+06 2.24837e+06 -369290 -77559.8
209 3 O -1.52658 36.6746 3.18632 -1.2 -9.15218 -2.48369e+06 -3.67812e+06 -1.01007e+06 1.1507e+06 142240 -1.58043e+06
210 3 O -1.55122 36.6746 5.78248 -1.2 -9.11364 -2.55762e+06 -3.82665e+06 -1.50543e+06 1.188e+06 151583 1.32211e+06
211 1 Mg 1.882 35.6175 2.9896 1.2 -7.80692 4.30618e+06 -1.44639e+06 -787820 -1.09984e+06 -1.47791e+06 -1.4226e+06
212 1 Mg 4.69415 35.5762 4.4844 1.2 -8.54947 -935528 2.60942e+06 2.95255e+06 1.19992e+06 -158226 168915
213 2 Si 2.88522 37.641 4.4844 2.4 -32.566 1.06478e+07 9.34851e+06 8.30572e+06 787813 -139663 265877
214 3 O 2.91159 39.2543 4.4844 -1.2 -9.59967 -3.61161e+06 -411654 -3.7541e+06 585328 -39650.3 -162589
215 3 O -3.74183 36.667 4.4844 -1.2 -9.46791 -3.33955e+06 -2.71576e+06 -2.82686e+06 -1.28536e+06 -310435 -144271
216 3 O 3.58014 36.9349 3.18632 -1.2 -9.18776 -2.44588e+06 -3.82956e+06 -1.09367e+06 -858197 231958 1.10929e+06
217 1 Mg 1.90997 35.6175 0 1.2 -5.88351 2.75819e+06 2.40271e+06 -3.88181e+06 -1.66228e+06 -774096 909899
218 3 O 3.55582 36.9349 5.78248 -1.2 -9.11298 -2.45631e+06 -3.96993e+06 -1.70653e+06 -886314 -21170 -1.3095e+06
219 1 Mg -0.93068 35.6588 1.4948 1.2 -8.57583 -1.12609e+06 2.66494e+06 4.42055e+06 1.861e+06 -326686 183427
220 2 Si 0.881882 33.5939 1.4948 2.4 -33.5032 9.60668e+06 9.59529e+06 1.06084e+07 1.41838e+06 1.59434e+06 2.55828e+06
221 3 O 0.859602 31.9807 1.4948 -1.2 -7.47052 -5.97986e+06 -459373 -1.51947e+07 1.15734e+06 -8.44937e+06 2.24625e+06
222 3 O 7.507 34.568 1.4948 -1.2 -9.80911 -4.05003e+06 -925052 -1.49087e+06 -931739 -431017 916060
223 3 O 0.210186 34.3001 0.196716 -1.2 -6.52381 -3.72832e+06 -1.39948e+07 -9.49628e+06 1.53161e+06 -7.92805e+06 -793540
224 3 O 0.184454 34.3001 2.79288 -1.2 -9.0211 -1.76382e+06 -4.05301e+06 -2.08378e+06 -859588 -158284 817143
225 1 Mg 7.07415 37.992 0 1.2 -5.94755 2.25322e+06 2.34912e+06 -3.60553e+06 1.87039e+06 -422550 -1.14056e+06
226 1 Mg 4.36817 42.6997 1.4948 1.2 -8.65151 -1.66852e+06 2.81816e+06 4.15892e+06 -998500 116939 132957
227 2 Si 6.16058 40.0155 1.4948 2.4 -33.1532 1.04999e+07 8.64074e+06 1.02093e+07 -379929 1.29876e+06 -1.35379e+06
228 3 O 6.22815 41.6288 1.4948 -1.2 -8.86849 -5.69161e+06 -366697 -6.77756e+06 34023.2 -4.5091e+06 -1.72298e+06
229 3 O 2.53282 39.0415 1.4948 -1.2 -9.7483 -3.77702e+06 -1.1459e+06 -1.77779e+06 1.713e+06 -355158 -1.05534e+06
230 3 O 5.44674 39.3094 0.196716 -1.2 -7.37496 -4.03028e+06 -1.08761e+07 -5.66108e+06 -145958 -5.77358e+06 1.6816e+06
231 1 Mg 7.04922 37.992 2.9896 1.2 -7.74299 4.28515e+06 -1.48733e+06 -797055 1.28774e+06 -1.49053e+06 2.0437e+06
232 3 O 5.42658 39.3094 2.79288 -1.2 -9.02945 -1.84114e+06 -3.95572e+06 -1.91847e+06 1.14073e+06 -272687 -1.34462e+06
233 1 Mg -0.333062 38.0333 4.4844 1.2 -8.53877 -1.23295e+06 2.71413e+06 2.98938e+06 -401670 -116455 118262
234 2 Si -2.12255 40.7174 4.4844 2.4 -32.5301 1.08918e+07 9.2109e+06 8.19062e+06 96310.2 -236206 316468
235 3 O -2.19212 39.1042 4.4844 -1.2 -9.63465 -3.65957e+06 -367965 -3.53159e+06 435149 11800 -114522
236 3 O 1.50676 41.6915 4.4844 -1.2 -9.37809 -3.23264e+06 -2.85759e+06 -3.001e+06 2.30131e+06 -307685 -128588
237 3 O -1.3884 41.4236 3.18632 -1.2 -9.12699 -2.47145e+06 -3.67868e+06 -1.16893e+06 1.14765e+06 140941 -1.63249e+06
238 3 O -1.40713 41.4236 5.78248 -1.2 -9.16363 -2.63565e+06 -3.7564e+06 -1.27136e+06 1.1718e+06 31093.9 1.2564e+06
239 1 Mg 2.01892 40.3665 2.9896 1.2 -7.79769 4.27779e+06 -1.38924e+06 -818180 -1.0895e+06 -1.55567e+06 -1.37295e+06
240 1 Mg 4.83434 40.3252 4.4844 1.2 -8.53625 -1.02589e+06 2.6819e+06 2.9489e+06 1.23984e+06 -156238 209648
241 2 Si 3.02698 42.39 4.4844 2.4 -32.6759 1.07591e+07 9.2084e+06 8.51101e+06 781957 -91649.3 315873
242 3 O 3.05433 44.0033 4.4844 -1.2 -9.49096 -3.77305e+06 -234446 -3.9419e+06 625962 -21847.4 -129913
243 3 O -3.60077 41.416 4.4844 -1.2 -9.46417 -3.39138e+06 -2.70219e+06 -2.79916e+06 -1.30065e+06 -166967 -227977
244 3 O 3.71851 41.6839 3.18632 -1.2 -9.14489 -2.3942e+06 -3.82975e+06 -1.32493e+06 -848823 243064 1.05271e+06
245 1 Mg 2.04077 40.3665 0 1.2 -5.96905 1.76032e+06 2.21011e+06 -3.97546e+06 -1.82914e+06 434330 1.71416e+06
246 3 O 3.70011 41.6839 5.78248 -1.2 -9.08264 -2.44331e+06 -3.94084e+06 -1.68458e+06 -935264 -88573.4 -1.32077e+06
247 1 Mg -0.796865 40.4078 1.4948 1.2 -8.59321 -1.34942e+06 2.80569e+06 4.13931e+06 1.74962e+06 42491 197391
248 2 Si 1.01387 38.3429 1.4948 2.4 -33.2458 1.01554e+07 9.00017e+06 1.02777e+07 1.54423e+06 1.47743e+06 2.26698e+06
249 3 O 0.989947 36.7297 1.4948 -1.2 -8.27747 -6.17871e+06 -436112 -1.02281e+07 1.03024e+06 -6.63491e+06 1.81335e+06
250 3 O 7.63988 39.317 1.4948 -1.2 -9.79485 -3.9296e+06 -1.0432e+06 -1.69003e+06 -925501 -249087 928722
251 3 O 0.340253 39.0491 0.196716 -1.2 -7.38273 -4.09477e+06 -1.17854e+07 -5.62927e+06 383906 -5.8584e+06 -1.6738e+06
252 3 O 0.319795 39.0491 2.79288 -1.2 -9.07057 -1.8316e+06 -4.10494e+06 -1.92555e+06 -863886 -224579 769142
253 1 Mg 7.20667 42.741 0 1.2 -6.04355 1.47608e+06 2.11465e+06 -3.90379e+06 1.99176e+06 920627 -2.01654e+06
254 1 Mg 4.50613 47.4487 1.4948 1.2 -8.72538 -1.50591e+06 2.68736e+06 4.04226e+06 -851221 421360 17606.4
255 2 Si 6.29731 44.7645 1.4948 2.4 -33.1356 1.11102e+07 7.72431e+06 1.0464e+07 -228337 899383 -1.31286e+06
256 3 O 6.36567 46.3778 1.4948 -1.2 -9.1852 -5.05048e+06 -135291 -5.04136e+06 177973 -2.69412e+06 -1.34275e+06
257 3 O 2.669 43.7905 1.4948 -1.2 -9.63686 -3.74796e+06 -1.1857e+06 -2.21537e+06 1.72508e+06 -208649 -1.00969e+06
258 3 O 5.58048 44.0584 0.196716 -1.2 -8.03464 -4.0386e+06 -8.11378e+06 -3.3934e+06 320070 -3.72391e+06 2.32036e+06
259 1 Mg 7.1879 42.741 2.9896 1.2 -7.78748 4.36793e+06 -1.57402e+06 -708538 1.28737e+06 -1.60692e+06 2.07143e+06
260 3 O 5.56564 44.0584 2.79288 -1.2 -8.97201 -2.0881e+06 -3.72903e+06 -2.01269e+06 1.13361e+06 -267542 -1.28444e+06
261 1 Mg -0.19105 42.7823 4.4844 1.2 -8.59795 -1.14669e+06 2.59074e+06 3.11872e+06 -431720 -44999 193264
262 2 Si -1.97909 45.4664 4.4844 2.4 -32.838 1.12538e+07 8.67479e+06 8.86669e+06 171024 -135986 107283
263 3 O -2.04947 43.8532 4.4844 -1.2 -9.52987 -3.8273e+06 -157995 -3.73564e+06 422260 22446.6 -148420
264 3 O 1.65063 46.4405 4.4844 -1.2 -9.23011 -3.46241e+06 -2.607e+06 -3.2539e+06 2.30286e+06 -206616 35515.8
265 3 O -1.24745 46.1726 3.18632 -1.2 -8.9948 -2.57918e+06 -3.44993e+06 -1.60323e+06 1.13581e+06 97612.4 -1.45776e+06
266 3 O -1.26044 46.1726 5.78248 -1.2 -8.90505 -2.82786e+06 -3.44982e+06 -1.8294e+06 1.1704e+06 61203.7 1.39361e+06
267 1 Mg 2.15896 45.1155 2.9896 1.2 -7.8986 4.40987e+06 -1.57727e+06 -584834 -1.0803e+06 -1.6699e+06 -1.46104e+06
268 1 Mg 4.97763 45.0742 4.4844 1.2 -8.66969 -767241 2.44283e+06 3.1449e+06 1.23142e+06 -106953 45049.6