ITEM: TIMESTEP
60400
ITEM: NUMBER OF ATOMS
10500
ITEM: BOX BOUNDS xy xz yz pp pp pp
0.0000000000000000e+00 1.5297749999999999e+01 5.0992499999999996e+00
0.0000000000000000e+00 1.1872499999999999e+02 0.0000000000000000e+00
0.0000000000000000e+00 8.9688000000000002e+01 0.0000000000000000e+00
ITEM: ATOMS id type element xu yu zu q c_pe c_s[1] c_s[2] c_s[3] c_s[4] c_s[5] c_s[6]
1 1 Mg 6.2404 -6.37941e-06 0 1.2 -4.89427 8.56611e+06 -1.80557e+06 -6.18075e+06 -15185 2.63757e+06 -375814
2 1 Mg 3.46349 4.70768 1.4948 1.2 -8.9795 465094 2.76914e+06 4.24861e+06 -942689 -627272 -64766.6
3 2 Si 5.2885 2.02354 1.4948 2.4 -36.197 1.14385e+07 1.108e+07 1.12678e+07 8.86028e+06 696922 -3.52745e+06
4 3 O 5.33628 3.63678 1.4948 -1.2 -4.23361 -1.55985e+06 -1.52236e+06 -3.36328e+07 -330254 3.80546e+06 -3.693e+06
5 3 O 1.67294 1.04952 1.4948 -1.2 -0.595414 -2.10938e+07 -7.94024e+07 -2.04399e+06 -2.41322e+07 -92506.6 154984
6 3 O 4.59532 1.31737 0.196716 -1.2 -2.55169 -2.66683e+06 -6.74245e+06 -3.0481e+07 -6.0274e+06 6.27822e+06 -2.44169e+06
7 1 Mg 6.18956 -6.37941e-06 2.9896 1.2 -5.3977 2.29488e+06 -2.82412e+07 -2.94095e+06 -8.84752e+06 2.48867e+06 3.79913e+06
8 3 O 4.55118 1.31737 2.79288 -1.2 -7.04459 -593473 -4.72067e+06 -3.13844e+06 -2.97466e+06 -3.40717e+06 -869701
9 1 Mg -1.20682 0.0413099 4.4844 1.2 8.4131 -3.00575e+07 -9.3491e+07 -32811.9 -2.85376e+07 -1.15626e+06 -144990
10 2 Si -3.0337 2.72544 4.4844 2.4 -34.0322 1.57239e+07 7.18558e+06 7.98874e+06 1.4691e+06 130020 -1.07061e+06
11 3 O -3.08099 1.11221 4.4844 -1.2 -9.1384 -6.92692e+06 59168.6 -2.195e+06 -1.16373e+06 -287335 559854
12 3 O 0.582463 3.69946 4.4844 -1.2 -8.56706 -3.9908e+06 -5.63107e+06 -2.61051e+06 -585579 -113055 133914
13 3 O -2.29524 3.43162 3.18632 -1.2 -8.59811 -4.92316e+06 -2.60252e+06 -534489 1.11823e+06 -817792 -742735
14 3 O -2.34216 3.43162 5.78248 -1.2 -8.42054 -4.49984e+06 -3.4161e+06 -1.49482e+06 981716 617572 1.47492e+06
15 1 Mg 1.12778 2.37449 2.9896 1.2 -8.05358 5.9369e+06 -1.60321e+06 -749794 -3.26485e+06 -4.22e+06 -2.5319e+06
16 1 Mg 3.92855 2.33318 4.4844 1.2 -8.90479 -3.46844e+06 4.97154e+06 4.79175e+06 1.444e+06 331363 245507
17 2 Si 2.09341 4.39804 4.4844 2.4 -33.191 1.3457e+07 7.05494e+06 8.59411e+06 206028 -104972 326541
18 3 O 2.09991 6.01128 4.4844 -1.2 -9.06435 -4.73931e+06 -26414.5 -3.86665e+06 603808 -188863 -180935
19 3 O -4.52137 3.42402 4.4844 -1.2 -8.72568 -3.56222e+06 -2.98556e+06 -3.56768e+06 -2.42357e+06 -876241 199504
20 3 O 2.80834 3.69187 3.18632 -1.2 -8.88101 -2.86475e+06 -2.89319e+06 -331478 442735 -513546 -305960
21 1 Mg 1.17857 2.37449 0 1.2 -5.61073 231245 -1.47761e+07 -6.54829e+06 6.52409e+06 1.18246e+06 4.34039e+06
22 3 O 2.76143 3.69187 5.78248 -1.2 -8.98655 -3.36773e+06 -2.59447e+06 -1.08058e+06 478149 -211613 137940
23 1 Mg -1.67381 2.41581 1.4948 1.2 -8.054 2.313e+06 -171755 4.0293e+06 1.34741e+06 -563408 776262
24 2 Si 0.16286 0.350945 1.4948 2.4 -25.4616 -6.70823e+06 1.24294e+07 1.13709e+07 1.57874e+06 2.83218e+06 732093
25 3 O 0.15972 -1.26229 1.4948 -1.2 -4.31941 -1.14004e+07 -7.97011e+06 -2.89939e+07 -5.59487e+06 -8.53039e+06 -2.48589e+06
26 3 O 6.77654 1.32496 1.4948 -1.2 -9.88755 -6.45314e+06 1.73912e+06 -1.38832e+06 -635512 -675452 1.30409e+06
27 3 O -0.508028 1.05712 0.196716 -1.2 -9.06748 -679844 -4.71092e+06 -613255 -550311 159107 -4.31765e+06
28 3 O -0.552171 1.05712 2.79288 -1.2 -6.33677 -6.05127e+06 -4.585e+06 -2.46921e+07 1.43824e+06 -6.78379e+06 -5.23382e+06
29 1 Mg 6.31713 4.74899 0 1.2 -5.48263 1.19598e+06 -1.28137e+07 -6.15042e+06 -7.30972e+06 1.45664e+06 -3.73963e+06
30 1 Mg 3.54847 9.45668 1.4948 1.2 -8.8531 1.10477e+06 1.7333e+06 4.42088e+06 -972092 -940190 -319680
31 2 Si 5.36879 6.77254 1.4948 2.4 -35.3448 8.94435e+06 1.21295e+07 1.1503e+07 1.65409e+06 188685 -2.07115e+06
32 3 O 5.41937 8.38578 1.4948 -1.2 -4.2332 -1.17197e+06 -951387 -3.51966e+07 773875 1.09086e+06 -4.20177e+06
33 3 O 1.75158 5.79852 1.4948 -1.2 -8.98964 -4.83586e+06 -2.42036e+06 -1.35324e+06 1.97604e+06 -1.57468e+06 -1.25342e+06
34 3 O 4.67421 6.06637 0.196716 -1.2 -3.21314 -714735 -1.02101e+07 -3.14065e+07 -1.99562e+06 1.29503e+06 -4.34637e+06
35 1 Mg 6.26654 4.74899 2.9896 1.2 -8.50456 4.83677e+06 -1.60347e+06 -37213.8 1.80431e+06 -831322 1.82124e+06
36 3 O 4.63043 6.06637 2.79288 -1.2 -8.36505 -2.38173e+06 -3.9908e+06 -2.18166e+06 947091 -141524 -1.40305e+06
37 1 Mg -1.12976 4.79031 4.4844 1.2 -9.22189 93274 2.92733e+06 2.62215e+06 -701471 -530514 -164861
38 2 Si -2.9517 7.47444 4.4844 2.4 -33.8064 1.2708e+07 8.65731e+06 8.96356e+06 156912 -23298.8 21021.6
39 3 O -3.00198 5.86121 4.4844 -1.2 -8.97405 -4.65699e+06 -194304 -3.78302e+06 16134.1 -188241 18565.6
40 3 O 0.666315 8.44846 4.4844 -1.2 -8.79526 -4.07771e+06 -2.48822e+06 -3.42144e+06 2.10823e+06 -434201 -52354.6
41 3 O -2.21213 8.18062 3.18632 -1.2 -8.60452 -3.71091e+06 -3.30636e+06 -734732 1.06933e+06 -311439 -1.43014e+06
42 3 O -2.25864 8.18062 5.78248 -1.2 -8.48513 -3.68485e+06 -3.40216e+06 -2.1562e+06 928017 48895.6 1.28808e+06
43 1 Mg 1.20893 7.12349 2.9896 1.2 -8.48132 4.91482e+06 -1.63484e+06 -141869 -1.29562e+06 -1.35755e+06 -1.65599e+06
44 1 Mg 4.00982 7.08218 4.4844 1.2 -9.11898 -73323.3 2.46094e+06 3.1427e+06 965697 -209731 145320
45 2 Si 2.17861 9.14704 4.4844 2.4 -33.7435 1.26367e+07 8.68569e+06 8.86336e+06 533129 -203202 220283
46 3 O 2.18828 10.7603 4.4844 -1.2 -9.02112 -4.55125e+06 -104246 -4.0426e+06 437015 -127788 -93116.8
47 3 O -4.43805 8.17302 4.4844 -1.2 -8.84748 -4.09351e+06 -2.47617e+06 -3.28635e+06 -1.50707e+06 -555252 -44640.8
48 3 O 2.89193 8.44087 3.18632 -1.2 -8.62675 -3.57854e+06 -3.50815e+06 -787747 -891181 -207612 1.2455e+06
49 1 Mg 1.25915 7.12349 0 1.2 -5.88382 1.90322e+06 -7.51454e+06 -6.40807e+06 5.88898e+06 1.34465e+06 2.52743e+06
50 3 O 2.84547 8.44087 5.78248 -1.2 -8.5826 -3.6872e+06 -3.60814e+06 -1.74231e+06 -796807 -66531.2 -1.29685e+06
51 1 Mg -1.59284 7.16481 1.4948 1.2 -8.77357 1.6644e+06 1.37855e+06 4.28758e+06 1.47669e+06 -913572 281190
52 2 Si 0.240329 5.09994 1.4948 2.4 -35.0656 9.96686e+06 1.1062e+07 1.11011e+07 -1.95123e+06 -1.0965e+06 1.68839e+06
53 3 O 0.234538 3.48671 1.4948 -1.2 -4.74346 -2.58341e+06 339446 -3.36904e+07 396205 5.19526e+06 4.17404e+06
54 3 O 6.85564 6.07396 1.4948 -1.2 -9.06242 -5.22253e+06 -1.86111e+06 -1.37035e+06 -1.35129e+06 -1.85084e+06 1.25116e+06
55 3 O -0.429565 5.80612 0.196716 -1.2 -3.47827 -1.58555e+06 -8.84455e+06 -3.14333e+07 1.83706e+06 1.19578e+06 4.67555e+06
56 3 O -0.473377 5.80612 2.79288 -1.2 -8.45797 -2.93354e+06 -3.59219e+06 -1.98086e+06 -793019 342514 1.35778e+06
57 1 Mg 6.40169 9.49799 0 1.2 -5.85052 2.4808e+06 -6.37596e+06 -6.66655e+06 -5.48286e+06 1.01269e+06 -2.48054e+06
58 1 Mg 3.64209 14.2057 1.4948 1.2 -8.84644 873536 1.9088e+06 4.42503e+06 -1.03446e+06 -1.02103e+06 -235616
59 2 Si 5.45748 11.5215 1.4948 2.4 -35.2538 9.18785e+06 1.17328e+07 1.14865e+07 872269 305460 -2.14531e+06
60 3 O 5.51101 13.1348 1.4948 -1.2 -4.33105 -1.278e+06 -932347 -3.47735e+07 478279 -2.5028e+06 -4.37071e+06
61 3 O 1.83851 10.5475 1.4948 -1.2 -9.06059 -5.02366e+06 -1.86912e+06 -1.33173e+06 1.53805e+06 -1.56522e+06 -1.10608e+06
62 3 O 4.7611 10.8154 0.196716 -1.2 -3.06769 -316606 -1.15295e+07 -3.1941e+07 -2.47165e+06 -1.74728e+06 -4.29363e+06
63 1 Mg 6.35203 9.49799 2.9896 1.2 -8.44425 4.89245e+06 -1.69076e+06 -104461 1.30192e+06 -1.16438e+06 1.96435e+06
64 3 O 4.71833 10.8154 2.79288 -1.2 -8.41467 -2.59506e+06 -3.72417e+06 -2.1679e+06 1.08309e+06 60607.8 -1.3171e+06
65 1 Mg -1.0438 9.53931 4.4844 1.2 -9.13701 -143292 2.34158e+06 3.27281e+06 -492012 -255348 -47335.4
66 2 Si -2.8604 12.2234 4.4844 2.4 -33.5599 1.28128e+07 8.63894e+06 8.47359e+06 -83379.9 -39501.9 -91992.4
67 3 O -2.91391 10.6102 4.4844 -1.2 -9.0676 -4.66306e+06 -16226.1 -3.81616e+06 232140 -212786 31324.1
68 3 O 0.7596 13.1975 4.4844 -1.2 -8.83795 -3.84893e+06 -2.68237e+06 -3.40511e+06 2.09723e+06 -595585 25127.7
69 3 O -2.12001 12.9296 3.18632 -1.2 -8.66892 -3.62734e+06 -3.43892e+06 -593360 1.1519e+06 -283148 -1.50888e+06
70 3 O -2.16532 12.9296 5.78248 -1.2 -8.71755 -3.69745e+06 -3.49699e+06 -1.53968e+06 1.067e+06 -196073 1.4928e+06
71 1 Mg 1.29891 11.8725 2.9896 1.2 -8.4542 4.82833e+06 -1.57774e+06 -159262 -1.15485e+06 -1.21197e+06 -1.65559e+06
72 1 Mg 4.10033 11.8312 4.4844 1.2 -9.06771 -105694 2.4133e+06 3.14138e+06 1.05739e+06 -392588 141610
73 2 Si 2.27333 13.896 4.4844 2.4 -33.6714 1.2188e+07 8.98466e+06 8.89382e+06 714127 -89154.3 135128
74 3 O 2.28634 15.5093 4.4844 -1.2 -9.06002 -4.37964e+06 -281478 -3.97086e+06 473856 -158435 -48568.7
75 3 O -4.34533 12.922 4.4844 -1.2 -8.95914 -4.12903e+06 -2.48607e+06 -3.07304e+06 -1.40006e+06 -346194 -62072.3
76 3 O 2.98455 13.1899 3.18632 -1.2 -8.67078 -3.46468e+06 -3.57437e+06 -790330 -955830 -99388 1.24481e+06
77 1 Mg 1.34779 11.8725 0 1.2 -6.06961 3.68845e+06 -2.74783e+06 -6.76392e+06 3.56407e+06 806229 1.62836e+06
78 3 O 2.93934 13.1899 5.78248 -1.2 -8.58026 -3.32946e+06 -3.70703e+06 -2.04832e+06 -963812 -106804 -1.28537e+06
79 1 Mg -1.50344 11.9138 1.4948 1.2 -8.82927 1.31098e+06 1.73485e+06 4.35774e+06 1.56854e+06 -907207 411801
80 2 Si 0.326006 9.84894 1.4948 2.4 -35.2747 9.26821e+06 1.17027e+07 1.1442e+07 -586150 113686 2.26839e+06
81 3 O 0.317364 8.23571 1.4948 -1.2 -4.23483 -1.30827e+06 -810766 -3.5328e+07 -131106 1.19011e+06 4.20974e+06
82 3 O 6.94307 10.823 1.4948 -1.2 -9.10911 -5.19259e+06 -1.69006e+06 -1.22284e+06 -982401 -1.54311e+06 1.07148e+06
83 3 O -0.343122 10.5551 0.196716 -1.2 -3.1619 -626224 -1.09704e+07 -3.20044e+07 2.46408e+06 -2.0591e+06 4.50919e+06
84 3 O -0.385966 10.5551 2.79288 -1.2 -8.43224 -2.62091e+06 -3.76434e+06 -2.21868e+06 -891431 57177.9 1.12346e+06
85 1 Mg 6.49448 14.247 0 1.2 -5.98679 4.06635e+06 -1.85409e+06 -6.98336e+06 -2.97877e+06 250797 -1.46407e+06
86 1 Mg 3.74457 18.9547 1.4948 1.2 -8.81901 479811 2.36045e+06 4.24595e+06 -1.11577e+06 -1.0299e+06 -274736
87 2 Si 5.55495 16.2705 1.4948 2.4 -35.0482 9.15212e+06 1.18341e+07 1.11102e+07 511162 705913 -2.15888e+06
88 3 O 5.6115 17.8838 1.4948 -1.2 -4.75114 -2.12811e+06 -1.10917e+06 -3.18423e+07 83279 -6.01252e+06 -4.16538e+06
89 3 O 1.93416 15.2965 1.4948 -1.2 -9.17681 -4.94411e+06 -1.72558e+06 -1.11895e+06 1.52734e+06 -1.36691e+06 -1.10795e+06
90 3 O 4.85636 15.5644 0.196716 -1.2 -3.18346 -134167 -1.34113e+07 -3.02233e+07 -3.02643e+06 -5.08167e+06 -3.80955e+06
91 1 Mg 6.44662 14.247 2.9896 1.2 -8.35251 4.9294e+06 -1.59371e+06 -386467 1.27498e+06 -1.23371e+06 2.05233e+06
92 3 O 4.81537 15.5644 2.79288 -1.2 -8.47219 -2.46297e+06 -3.89035e+06 -2.07216e+06 1.07688e+06 70613.3 -1.33786e+06
93 1 Mg -0.948271 14.2883 4.4844 1.2 -9.04541 -282779 2.5421e+06 3.05582e+06 -540356 -111380 7440.95
94 2 Si -2.75928 16.9724 4.4844 2.4 -33.4505 1.28499e+07 8.70888e+06 8.1927e+06 -25552.2 -73643.2 -92881.9
95 3 O -2.81617 15.3592 4.4844 -1.2 -9.15913 -4.68751e+06 -107400 -3.55297e+06 287583 -164662 -101722
96 3 O 0.862762 17.9465 4.4844 -1.2 -8.87814 -3.73825e+06 -2.80888e+06 -3.31604e+06 2.1554e+06 -597106 146860
97 3 O -2.0185 17.6786 3.18632 -1.2 -8.73538 -3.53518e+06 -3.62238e+06 -414887 1.16252e+06 -220099 -1.4614e+06
98 3 O -2.06164 17.6786 5.78248 -1.2 -8.72834 -3.82103e+06 -3.35529e+06 -1.4968e+06 1.05553e+06 -258680 1.67849e+06
99 1 Mg 1.39817 16.6215 2.9896 1.2 -8.37503 4.7704e+06 -1.39692e+06 -411105 -1.15931e+06 -1.19348e+06 -1.6314e+06
100 1 Mg 4.20062 16.5802 4.4844 1.2 -9.03766 -217157 2.54293e+06 3.07797e+06 1.13262e+06 -422670 51330.9
101 2 Si 2.37796 18.645 4.4844 2.4 -33.5901 1.19767e+07 9.36232e+06 8.60144e+06 738759 -225925 -305357
102 3 O 2.39434 20.2583 4.4844 -1.2 -9.12984 -4.24341e+06 -611383 -3.65388e+06 462894 -109947 284728
103 3 O -4.24274 17.671 4.4844 -1.2 -8.99918 -4.11406e+06 -2.5837e+06 -2.92813e+06 -1.40377e+06 -323510 72568.3
104 3 O 3.08659 17.9389 3.18632 -1.2 -8.73082 -3.32061e+06 -3.80958e+06 -638704 -942882 4293.38 1.34578e+06
105 1 Mg 1.44478 16.6215 0 1.2 -6.05725 5.15826e+06 466254 -7.02498e+06 1.41025e+06 -71308.5 971882
106 3 O 3.0436 17.9389 5.78248 -1.2 -8.5687 -3.33048e+06 -3.84988e+06 -1.96885e+06 -879664 77198.9 -1.07002e+06
107 1 Mg -1.40524 16.6628 1.4948 1.2 -8.80513 995309 2.09595e+06 4.22598e+06 1.69095e+06 -908446 421440
108 2 Si 0.420358 14.5979 1.4948 2.4 -35.1352 9.11302e+06 1.18638e+07 1.11967e+07 -115549 648019 2.62383e+06
109 3 O 0.408732 12.9847 1.4948 -1.2 -4.30961 -1.28716e+06 -916972 -3.49485e+07 214886 -2.59552e+06 4.21055e+06
110 3 O 7.03923 15.572 1.4948 -1.2 -9.23385 -5.13235e+06 -1.56933e+06 -963010 -937737 -1.31449e+06 951405
111 3 O -0.248332 15.3041 0.196716 -1.2 -3.28344 -517844 -1.29202e+07 -3.02235e+07 3.24853e+06 -5.45884e+06 3.90766e+06
112 3 O -0.289436 15.3041 2.79288 -1.2 -8.49455 -2.46434e+06 -3.99752e+06 -2.08587e+06 -864339 -52260.9 1.02196e+06
113 1 Mg 6.59566 18.996 0 1.2 -5.96619 5.23275e+06 1.09763e+06 -7.09123e+06 -913920 -652221 -868345
114 1 Mg 3.85574 23.7037 1.4948 1.2 -8.85326 131318 2.74584e+06 4.12417e+06 -1.17907e+06 -950286 -345999
115 2 Si 5.66125 21.0195 1.4948 2.4 -34.7762 9.2817e+06 1.21307e+07 1.031e+07 192105 1.13687e+06 -2.49033e+06
116 3 O 5.72074 22.6328 1.4948 -1.2 -5.42373 -3.68438e+06 -1.28705e+06 -2.66891e+07 -222685 -8.46879e+06 -3.56509e+06
117 3 O 2.03867 20.0455 1.4948 -1.2 -9.30917 -4.78068e+06 -1.80183e+06 -791007 1.56831e+06 -1.14059e+06 -918052
118 3 O 4.96004 20.3134 0.196716 -1.2 -3.64082 -637364 -1.51861e+07 -2.60263e+07 -3.18622e+06 -7.91097e+06 -2.72994e+06
119 1 Mg 6.55057 18.996 2.9896 1.2 -8.25983 4.90697e+06 -1.33128e+06 -774432 1.29432e+06 -1.25037e+06 1.89175e+06
120 3 O 4.92172 20.3134 2.79288 -1.2 -8.54332 -2.31901e+06 -4.28362e+06 -1.74397e+06 1.07203e+06 15772.4 -1.14079e+06
121 1 Mg -0.84282 19.0373 4.4844 1.2 -8.98969 -400817 2.71959e+06 2.89929e+06 -530875 -26038.7 -252313
122 2 Si -2.64823 21.7214 4.4844 2.4 -33.302 1.2571e+07 9.77949e+06 7.16726e+06 -62800.6 -62544.8 -331964
123 3 O -2.70847 20.1082 4.4844 -1.2 -9.23362 -4.60975e+06 -492130 -3.11767e+06 335441 -173579 207447
124 3 O 0.97581 22.6955 4.4844 -1.2 -8.9702 -3.72126e+06 -3.27813e+06 -2.71342e+06 2.21015e+06 -560984 292553
125 3 O -1.9076 22.4276 3.18632 -1.2 -8.7849 -3.39944e+06 -4.01225e+06 -117288 1.19348e+06 -107679 -1.35616e+06
126 3 O -1.9475 22.4276 5.78248 -1.2 -8.81272 -3.47493e+06 -4.04451e+06 -996333 1.2526e+06 -207097 1.58715e+06
127 1 Mg 1.50678 21.3705 2.9896 1.2 -8.2803 4.74225e+06 -1.02732e+06 -904313 -1.15534e+06 -1.21405e+06 -1.80968e+06
128 1 Mg 4.31086 21.3292 4.4844 1.2 -8.97113 -370573 3.03546e+06 2.63491e+06 1.22114e+06 -442322 -180695
129 2 Si 2.49243 23.394 4.4844 2.4 -33.4724 1.1925e+07 1.02183e+07 7.61135e+06 825689 -91700.3 -413313
130 3 O 2.51204 25.0073 4.4844 -1.2 -9.12451 -4.33056e+06 -833184 -3.35301e+06 478504 -176740 216033
131 3 O -4.13026 22.42 4.4844 -1.2 -9.05642 -4.02263e+06 -3.10621e+06 -2.39764e+06 -1.40771e+06 -328349 101882
132 3 O 3.19799 22.6879 3.18632 -1.2 -8.78175 -3.20854e+06 -4.20636e+06 -326096 -949848 56320.2 1.45982e+06
133 1 Mg 1.5501 21.3705 0 1.2 -5.99737 5.83041e+06 2.33285e+06 -6.8816e+06 -75020.1 -984455 359385
134 3 O 3.1583 22.6879 5.78248 -1.2 -8.66874 -3.02368e+06 -4.50442e+06 -1.49766e+06 -982711 -44433.9 -870525
135 1 Mg -1.29822 21.4118 1.4948 1.2 -8.79203 610510 2.60318e+06 3.97817e+06 1.79692e+06 -896240 181805
136 2 Si 0.523568 19.3469 1.4948 2.4 -34.8701 9.10301e+06 1.21592e+07 1.05147e+07 308409 1.07427e+06 2.5048e+06
137 3 O 0.508934 17.7337 1.4948 -1.2 -4.73266 -2.14577e+06 -1.09592e+06 -3.20022e+07 662811 -6.12271e+06 4.04748e+06
138 3 O 7.14425 20.321 1.4948 -1.2 -9.36782 -4.98972e+06 -1.66871e+06 -600479 -935128 -1.07828e+06 1.07148e+06
139 3 O -0.145107 20.0531 0.196716 -1.2 -3.74721 -1.07156e+06 -1.48264e+07 -2.59851e+07 3.68148e+06 -8.2267e+06 3.10134e+06
140 3 O -0.183601 20.0531 2.79288 -1.2 -8.57558 -2.32185e+06 -4.36507e+06 -1.77849e+06 -833847 -113601 1.18241e+06
141 1 Mg 6.70502 23.745 0 1.2 -6.00303 5.64551e+06 2.51457e+06 -6.47818e+06 420972 -1.49911e+06 -760553
142 1 Mg 3.97493 28.4527 1.4948 1.2 -8.96071 -151685 2.88264e+06 4.20989e+06 -1.2395e+06 -803707 -235247
143 2 Si 5.77602 25.7685 1.4948 2.4 -34.6441 9.88645e+06 1.15824e+07 1.01294e+07 -115019 1.44266e+06 -2.57295e+06
144 3 O 5.83821 27.3818 1.4948 -1.2 -6.20142 -5.45328e+06 -1.09248e+06 -2.06339e+07 -338291 -9.23948e+06 -2.95039e+06
145 3 O 2.15175 24.7945 1.4948 -1.2 -9.35035 -4.73118e+06 -1.70966e+06 -732370 1.61267e+06 -942780 -773031
146 3 O 5.07184 25.0624 0.196716 -1.2 -4.29136 -1.88004e+06 -1.58384e+07 -2.0468e+07 -2.78934e+06 -9.38989e+06 -1.2872e+06
147 1 Mg 6.66374 23.745 2.9896 1.2 -8.2204 4.89971e+06 -1.07922e+06 -1.07944e+06 1.29937e+06 -1.2943e+06 1.83767e+06
148 3 O 5.03707 25.0624 2.79288 -1.2 -8.53585 -2.30581e+06 -4.43547e+06 -1.65541e+06 1.08874e+06 -85245.9 -1.0981e+06
149 1 Mg -0.727559 23.7863 4.4844 1.2 -8.96024 -441377 3.03487e+06 2.5705e+06 -543687 -137466 -240672
150 2 Si -2.5277 26.4704 4.4844 2.4 -33.4503 1.267e+07 1.00164e+07 7.06842e+06 -27782.8 -377467 -439915
151 3 O -2.59107 24.8572 4.4844 -1.2 -9.18964 -4.55374e+06 -671702 -3.05481e+06 415568 -57005.2 182843
152 3 O 1.09817 27.4445 4.4844 -1.2 -8.91511 -3.89902e+06 -3.43177e+06 -2.48208e+06 2.21946e+06 -598625 212770
153 3 O -1.78784 27.1766 3.18632 -1.2 -8.73171 -3.43507e+06 -4.07142e+06 -169155 1.15721e+06 39212.4 -1.34696e+06
154 3 O -1.82343 27.1766 5.78248 -1.2 -8.7297 -3.70414e+06 -4.30345e+06 -463031 1.22539e+06 96111.1 1.71825e+06
155 1 Mg 1.62435 26.1195 2.9896 1.2 -8.2805 4.89007e+06 -950503 -1.12555e+06 -1.14246e+06 -1.23184e+06 -1.76901e+06
156 1 Mg 4.43064 26.0782 4.4844 1.2 -9.04517 -330591 3.14055e+06 2.61086e+06 1.21248e+06 -299282 -142232
157 2 Si 2.61607 28.143 4.4844 2.4 -33.6243 1.21144e+07 1.04741e+07 7.40502e+06 646689 -3998.3 -232393
158 3 O 2.63853 29.7563 4.4844 -1.2 -9.0304 -4.37087e+06 -910204 -3.39711e+06 624259 -83350.4 49524.4
159 3 O -4.00841 27.169 4.4844 -1.2 -8.963 -4.06703e+06 -3.18592e+06 -2.43276e+06 -1.36312e+06 -262635 130997
160 3 O 3.3182 27.4369 3.18632 -1.2 -8.72694 -3.24106e+06 -4.26173e+06 -403817 -884603 96129.4 1.41825e+06
161 1 Mg 1.66335 26.1195 0 1.2 -6.08053 5.68859e+06 2.85e+06 -5.90443e+06 -907347 -1.55434e+06 71190.7
162 3 O 3.28288 27.4369 5.78248 -1.2 -8.55716 -3.21402e+06 -4.70668e+06 -1.16059e+06 -828076 -189162 -886248
163 1 Mg -1.18278 26.1608 1.4948 1.2 -8.8828 307652 2.78145e+06 4.056e+06 1.88828e+06 -816775 42160.2
164 2 Si 0.635424 24.0959 1.4948 2.4 -34.6815 9.53529e+06 1.19976e+07 1.00095e+07 740669 1.44746e+06 2.23936e+06
165 3 O 0.617906 22.4827 1.4948 -1.2 -5.41442 -3.72131e+06 -1.27501e+06 -2.6814e+07 1.01748e+06 -8.57616e+06 3.77977e+06
166 3 O 7.25781 25.07 1.4948 -1.2 -9.39747 -4.91877e+06 -1.54498e+06 -627753 -932526 -815451 1.17034e+06
167 3 O -0.0337363 24.8021 0.196716 -1.2 -4.38945 -2.25464e+06 -1.58098e+07 -2.03767e+07 3.5084e+06 -9.67276e+06 2.03298e+06
168 3 O -0.0687235 24.8021 2.79288 -1.2 -8.59073 -2.35279e+06 -4.55259e+06 -1.5875e+06 -830440 -137785 1.19558e+06
169 1 Mg 6.82195 28.494 0 1.2 -6.14447 5.234e+06 2.8629e+06 -5.30888e+06 1.16267e+06 -1.86799e+06 -582242
170 1 Mg 4.10106 33.2017 1.4948 1.2 -9.02415 -508240 3.0648e+06 4.1454e+06 -1.20409e+06 -570688 -248183
171 2 Si 5.89839 30.5175 1.4948 2.4 -34.4914 1.07433e+07 1.08852e+07 9.80797e+06 -335287 1.56955e+06 -2.36641e+06
172 3 O 5.96289 32.1308 1.4948 -1.2 -7.05586 -6.64055e+06 -977632 -1.45371e+07 -288141 -8.40129e+06 -2.30182e+06
173 3 O 2.27266 29.5435 1.4948 -1.2 -9.32376 -4.69297e+06 -1.54943e+06 -925946 1.66948e+06 -739404 -809691
174 3 O 5.19102 29.8114 0.196716 -1.2 -5.12726 -3.29009e+06 -1.53483e+07 -1.44069e+07 -1.92458e+06 -9.24518e+06 -48435
175 1 Mg 6.78546 28.494 2.9896 1.2 -8.25026 5.03428e+06 -1.08436e+06 -1.15558e+06 1.32586e+06 -1.38263e+06 1.81529e+06
176 3 O 5.16061 29.8114 2.79288 -1.2 -8.5051 -2.4415e+06 -4.43456e+06 -1.61258e+06 1.12659e+06 -130673 -1.08897e+06
177 1 Mg -0.603205 28.5353 4.4844 1.2 -9.02302 -267206 3.18379e+06 2.33862e+06 -416083 -102619 -125865
178 2 Si -2.39877 31.2194 4.4844 2.4 -33.552 1.29662e+07 1.00521e+07 6.91035e+06 174809 -149112 -229622
179 3 O -2.46483 29.6062 4.4844 -1.2 -9.1215 -4.68673e+06 -764174 -2.93859e+06 308558 7520.29 160743
180 3 O 1.22864 32.1935 4.4844 -1.2 -8.81474 -3.92323e+06 -3.32193e+06 -2.72484e+06 2.28294e+06 -538936 195557
181 3 O -1.66032 31.9256 3.18632 -1.2 -8.68585 -3.43929e+06 -4.05841e+06 -323887 1.14804e+06 32469.2 -1.36804e+06
182 3 O -1.69072 31.9256 5.78248 -1.2 -8.58958 -3.8419e+06 -4.2096e+06 -834699 1.10848e+06 -226628 1.40396e+06
183 1 Mg 1.7499 30.8685 2.9896 1.2 -8.31976 4.96324e+06 -985112 -1.09459e+06 -1.14702e+06 -1.32268e+06 -1.67033e+06
184 1 Mg 4.55894 30.8272 4.4844 1.2 -9.08361 -163559 3.19311e+06 2.45017e+06 1.16637e+06 -397758 -75251.5
185 2 Si 2.7476 32.892 4.4844 2.4 -33.7386 1.21499e+07 1.02838e+07 7.74977e+06 819877 -208871 -369696
186 3 O 2.77235 34.5053 4.4844 -1.2 -9.0561 -4.34642e+06 -929991 -3.35844e+06 556824 -59725 207844
187 3 O -3.87837 31.918 4.4844 -1.2 -8.9604 -4.29889e+06 -3.18838e+06 -2.19653e+06 -1.33431e+06 -225861 61649.6
188 3 O 3.44611 32.1859 3.18632 -1.2 -8.68599 -3.22612e+06 -4.2479e+06 -590888 -879110 243112 1.40869e+06
189 1 Mg 1.7837 30.8685 0 1.2 -6.20429 4.69071e+06 3.0007e+06 -4.9197e+06 -1.35332e+06 -1.49368e+06 218880
190 3 O 3.41602 32.1859 5.78248 -1.2 -8.42039 -3.27337e+06 -4.57086e+06 -1.49891e+06 -1.01903e+06 153834 -1.05846e+06
191 1 Mg -1.05984 30.9098 1.4948 1.2 -8.97862 -25238.4 2.95292e+06 4.06914e+06 1.92032e+06 -597350 5930.44
192 2 Si 0.755243 28.8449 1.4948 2.4 -34.5828 1.02774e+07 1.12721e+07 9.91956e+06 1.14111e+06 1.71162e+06 2.27046e+06
193 3 O 0.735127 27.2317 1.4948 -1.2 -6.19674 -5.50163e+06 -1.10003e+06 -2.07227e+07 1.17391e+06 -9.37189e+06 3.17407e+06
194 3 O 7.37914 29.819 1.4948 -1.2 -9.37745 -4.90694e+06 -1.40531e+06 -778878 -944615 -588683 1.1295e+06
195 3 O 0.0850649 29.5511 0.196716 -1.2 -5.18674 -3.51743e+06 -1.56932e+07 -1.43858e+07 2.69059e+06 -9.47442e+06 588306
196 3 O 0.0543974 29.5511 2.79288 -1.2 -8.54972 -2.45493e+06 -4.562e+06 -1.59364e+06 -852689 -223696 1.05871e+06
197 1 Mg 6.94543 33.243 0 1.2 -6.26753 4.16583e+06 2.96262e+06 -4.46969e+06 1.57979e+06 -1.47489e+06 -913626
198 1 Mg 4.23267 37.9507 1.4948 1.2 -9.00362 -911076 3.2387e+06 3.92696e+06 -1.10743e+06 -229263 -140624
199 2 Si 6.02709 35.2665 1.4948 2.4 -34.2238 1.13833e+07 1.01573e+07 9.51729e+06 -401486 1.52703e+06 -2.28654e+06
200 3 O 6.09339 36.8798 1.4948 -1.2 -7.87386 -6.81256e+06 -888882 -9.63653e+06 -149364 -6.58166e+06 -1.78907e+06
201 3 O 2.40018 34.2925 1.4948 -1.2 -9.32276 -4.56617e+06 -1.50769e+06 -1.14773e+06 1.69183e+06 -536037 -688565
202 3 O 5.31645 34.5604 0.196716 -1.2 -6.06695 -4.29858e+06 -1.37161e+07 -9.08797e+06 -948981 -7.83011e+06 1.22869e+06
203 1 Mg 6.91449 33.243 2.9896 1.2 -8.23005 5.13298e+06 -1.09982e+06 -1.26292e+06 1.31028e+06 -1.43361e+06 1.78338e+06
204 3 O 5.291 34.5604 2.79288 -1.2 -8.5459 -2.49692e+06 -4.41337e+06 -1.54696e+06 1.10768e+06 -185361 -1.0273e+06
205 1 Mg -0.471101 33.2843 4.4844 1.2 -9.07906 -333489 3.10006e+06 2.5753e+06 -482752 6715.5 -190170
206 2 Si -2.26307 35.9684 4.4844 2.4 -33.3916 1.25755e+07 1.02607e+07 6.8352e+06 67235.4 -221918 -165975
207 3 O -2.33122 34.3552 4.4844 -1.2 -9.14951 -4.65538e+06 -764954 -2.90822e+06 440497 -39314.9 153955
208 3 O 1.36549 36.9425 4.4844 -1.2 -8.95565 -3.8107e+06 -3.47049e+06 -2.47098e+06 2.33694e+06 -410513 123656
209 3 O -1.52658 36.6746 3.18632 -1.2 -8.74399 -3.22227e+06 -4.16239e+06 -440078 1.17153e+06 107723 -1.38377e+06
210 3 O -1.55122 36.6746 5.78248 -1.2 -8.75762 -3.48302e+06 -4.44194e+06 -479186 1.18225e+06 -50131.1 1.3211e+06
211 1 Mg 1.882 35.6175 2.9896 1.2 -8.25537 4.93098e+06 -924314 -1.21615e+06 -1.12247e+06 -1.43064e+06 -1.73194e+06
212 1 Mg 4.69415 35.5762 4.4844 1.2 -9.01815 -290993 3.23302e+06 2.4353e+06 1.28239e+06 -288353 -116709
213 2 Si 2.88522 37.641 4.4844 2.4 -33.4217 1.19075e+07 1.04805e+07 7.28809e+06 801623 -152566 -188348
214 3 O 2.91159 39.2543 4.4844 -1.2 -9.24242 -4.21342e+06 -981288 -3.14697e+06 567851 -45837.6 28264.8
215 3 O -3.74183 36.667 4.4844 -1.2 -9.05719 -4.08728e+06 -3.2761e+06 -2.17031e+06 -1.35241e+06 -191031 -14512.9
216 3 O 3.58014 36.9349 3.18632 -1.2 -8.76089 -3.06472e+06 -4.34473e+06 -640948 -883081 250532 1.37901e+06
217 1 Mg 1.90997 35.6175 0 1.2 -6.3186 3.41253e+06 2.825e+06 -4.26131e+06 -1.65216e+06 -751590 573414
218 3 O 3.55582 36.9349 5.78248 -1.2 -8.62 -3.11751e+06 -4.69175e+06 -1.1691e+06 -994997 -5608.03 -1.13027e+06
219 1 Mg -0.93068 35.6588 1.4948 1.2 -8.99975 -419339 3.11592e+06 3.94196e+06 1.84546e+06 -304160 -112296
220 2 Si 0.881882 33.5939 1.4948 2.4 -34.3806 1.09255e+07 1.05523e+07 9.73838e+06 1.40612e+06 1.72116e+06 1.85947e+06
221 3 O 0.859602 31.9807 1.4948 -1.2 -7.0375 -6.62977e+06 -965767 -1.47321e+07 1.15846e+06 -8.52701e+06 2.58993e+06
222 3 O 7.507 34.568 1.4948 -1.2 -9.38459 -4.79718e+06 -1.38265e+06 -966065 -930060 -404659 1.23304e+06
223 3 O 0.210186 34.3001 0.196716 -1.2 -6.09118 -4.38909e+06 -1.4438e+07 -9.08505e+06 1.52945e+06 -7.95067e+06 -446295
224 3 O 0.184454 34.3001 2.79288 -1.2 -8.57641 -2.47112e+06 -4.55798e+06 -1.58363e+06 -829648 -261746 1.13391e+06
225 1 Mg 7.07415 37.992 0 1.2 -6.35874 2.93491e+06 2.78115e+06 -4.06039e+06 1.87021e+06 -427241 -1.42272e+06
226 1 Mg 4.36817 42.6997 1.4948 1.2 -8.91973 -1.25501e+06 3.39257e+06 3.60074e+06 -993591 118839 167089
227 2 Si 6.16058 40.0155 1.4948 2.4 -33.8599 1.16359e+07 9.58692e+06 9.25941e+06 -368560 1.284e+06 -1.71386e+06
228 3 O 6.22815 41.6288 1.4948 -1.2 -8.56364 -6.17332e+06 -892664 -6.25768e+06 38541.9 -4.49534e+06 -1.64982e+06
229 3 O 2.53282 39.0415 1.4948 -1.2 -9.36908 -4.37008e+06 -1.61404e+06 -1.32347e+06 1.71067e+06 -359755 -824007
230 3 O 5.44674 39.3094 0.196716 -1.2 -6.98519 -4.65938e+06 -1.13184e+07 -5.21315e+06 -159150 -5.76912e+06 1.92335e+06
231 1 Mg 7.04922 37.992 2.9896 1.2 -8.13206 4.95511e+06 -1.02466e+06 -1.30629e+06 1.30603e+06 -1.51296e+06 1.86946e+06
232 3 O 5.42658 39.3094 2.79288 -1.2 -8.66859 -2.41137e+06 -4.44816e+06 -1.4321e+06 1.11741e+06 -268522 -1.16336e+06
233 1 Mg -0.333062 38.0333 4.4844 1.2 -8.94543 -603110 3.21041e+06 2.51647e+06 -495968 -45620.4 35233.9
234 2 Si -2.12255 40.7174 4.4844 2.4 -33.1332 1.19058e+07 1.0251e+07 7.10882e+06 37989.6 -229288 15542.8
235 3 O -2.19212 39.1042 4.4844 -1.2 -9.26876 -4.31916e+06 -800794 -3.01009e+06 449259 3238.97 -59605.5
236 3 O 1.50676 41.6915 4.4844 -1.2 -9.13879 -3.64393e+06 -3.55197e+06 -2.26803e+06 2.2322e+06 -299158 -90125.6
237 3 O -1.3884 41.4236 3.18632 -1.2 -8.84879 -2.93716e+06 -4.25321e+06 -570131 1.16253e+06 147660 -1.52779e+06
238 3 O -1.40713 41.4236 5.78248 -1.2 -8.9106 -3.04141e+06 -4.35094e+06 -746909 1.19462e+06 -13202.5 1.54505e+06
239 1 Mg 2.01892 40.3665 2.9896 1.2 -8.12075 4.79874e+06 -838553 -1.37221e+06 -1.07994e+06 -1.55883e+06 -1.52204e+06
240 1 Mg 4.83434 40.3252 4.4844 1.2 -8.85223 -555700 3.29629e+06 2.37073e+06 1.24927e+06 -96149.9 75927.5
241 2 Si 3.02698 42.39 4.4844 2.4 -33.1029 1.14223e+07 1.07319e+07 7.00967e+06 883224 -7792.75 505635
242 3 O 3.05433 44.0033 4.4844 -1.2 -9.33215 -3.98741e+06 -1.02387e+06 -3.18018e+06 567872 -115204 -381489
243 3 O -3.60077 41.416 4.4844 -1.2 -9.20436 -3.78603e+06 -3.36453e+06 -2.14971e+06 -1.24676e+06 -145380 -119854
244 3 O 3.71851 41.6839 3.18632 -1.2 -8.8741 -2.80935e+06 -4.469e+06 -702643 -862243 222931 1.078e+06
245 1 Mg 2.04077 40.3665 0 1.2 -6.34233 2.35467e+06 2.6647e+06 -4.42636e+06 -1.8317e+06 444531 1.5133e+06
246 3 O 3.70011 41.6839 5.78248 -1.2 -8.88663 -2.7695e+06 -4.7841e+06 -765970 -927460 -170477 -1.39507e+06
247 1 Mg -0.796865 40.4078 1.4948 1.2 -8.93572 -794900 3.28237e+06 3.65689e+06 1.73956e+06 42816.5 28294.9
248 2 Si 1.01387 38.3429 1.4948 2.4 -34.0341 1.13879e+07 9.91019e+06 9.39825e+06 1.51543e+06 1.49765e+06 1.7698e+06
249 3 O 0.989947 36.7297 1.4948 -1.2 -7.85703 -6.82486e+06 -887876 -9.80333e+06 1.04571e+06 -6.66057e+06 2.10227e+06
250 3 O 7.63988 39.317 1.4948 -1.2 -9.42467 -4.53797e+06 -1.49465e+06 -1.22253e+06 -922646 -243999 1.1361e+06
251 3 O 0.340253 39.0491 0.196716 -1.2 -6.98701 -4.72197e+06 -1.22343e+07 -5.18658e+06 397204 -5.86053e+06 -1.42267e+06
252 3 O 0.319795 39.0491 2.79288 -1.2 -8.70104 -2.41539e+06 -4.58271e+06 -1.45291e+06 -836516 -230139 964662
253 1 Mg 7.20667 42.741 0 1.2 -6.34996 1.95883e+06 2.59812e+06 -4.37914e+06 1.9884e+06 901817 -2.01829e+06
254 1 Mg 4.50613 47.4487 1.4948 1.2 -8.80259 -1.41772e+06 3.52051e+06 3.24468e+06 -849221 417727 276923
255 2 Si 6.29731 44.7645 1.4948 2.4 -33.5105 1.16641e+07 9.0763e+06 9.15887e+06 -239095 831346 -893067
256 3 O 6.36567 46.3778 1.4948 -1.2 -9.06476 -5.21444e+06 -904941 -4.30011e+06 178052 -2.65959e+06 -1.6147e+06
257 3 O 2.669 43.7905 1.4948 -1.2 -9.41162 -4.10636e+06 -1.80606e+06 -1.59664e+06 1.71338e+06 -235676 -1.1406e+06
258 3 O 5.58048 44.0584 0.196716 -1.2 -7.78781 -4.4238e+06 -8.68465e+06 -2.83222e+06 319218 -3.70352e+06 2.1743e+06
259 1 Mg 7.1879 42.741 2.9896 1.2 -8.01658 4.73851e+06 -905833 -1.3802e+06 1.25544e+06 -1.64705e+06 2.11138e+06
260 3 O 5.56564 44.0584 2.79288 -1.2 -8.77979 -2.33743e+06 -4.43771e+06 -1.36002e+06 1.14163e+06 -234511 -1.48306e+06
261 1 Mg -0.19105 42.7823 4.4844 1.2 -8.77493 -795838 3.35624e+06 2.28598e+06 -397586 -15778 196505
262 2 Si -1.97909 45.4664 4.4844 2.4 -32.9843 1.17726e+07 1.01749e+07 7.07873e+06 100708 -407807 856361
263 3 O -2.04947 43.8532 4.4844 -1.2 -9.40631 -4.13471e+06 -975595 -2.80292e+06 487712 100818 -354318
264 3 O 1.65063 46.4405 4.4844 -1.2 -9.17392 -3.61211e+06 -3.37461e+06 -2.41887e+06 2.31702e+06 -308467 -368225
265 3 O -1.24745 46.1726 3.18632 -1.2 -8.91004 -2.80028e+06 -4.20326e+06 -765167 1.13906e+06 134953 -1.78171e+06
266 3 O -1.26044 46.1726 5.78248 -1.2 -8.94688 -3.18036e+06 -4.12311e+06 -628157 1.19087e+06 161892 949091
267 1 Mg 2.15896 45.1155 2.9896 1.2 -8.0393 4.64297e+06 -841727 -1.32797e+06 -1.06642e+06 -1.60313e+06 -1.20232e+06
268 1 Mg 4.97763 45.0742 4.4844 1.2 -8.8259 -734951 3.23861e+06 2.57024e+06 1.25346e+06 -102960 430873
269 2 Si 3.1711 47.139 4.4844 2.4 -33.0928 1.12399e+07 1.03009e+07 7.61636e+06 706209 73150.6 701917