ITEM: TIMESTEP
67200
ITEM: NUMBER OF ATOMS
10500
ITEM: BOX BOUNDS xy xz yz pp pp pp
0.0000000000000000e+00 1.5297749999999999e+01 5.0992499999999996e+00
0.0000000000000000e+00 1.1872499999999999e+02 0.0000000000000000e+00
0.0000000000000000e+00 8.9688000000000002e+01 0.0000000000000000e+00
ITEM: ATOMS id type element xu yu zu q c_pe c_s[1] c_s[2] c_s[3] c_s[4] c_s[5] c_s[6]
1 1 Mg 6.2404 -6.37941e-06 0 1.2 -4.43259 7.92487e+06 -2.12393e+06 -5.96085e+06 -30080.4 2.64693e+06 117419
2 1 Mg 3.46349 4.70768 1.4948 1.2 -8.45552 -381437 2.52592e+06 4.49885e+06 -930770 -628874 252765
3 2 Si 5.2885 2.02354 1.4948 2.4 -35.1942 9.90087e+06 1.0431e+07 1.18479e+07 8.90488e+06 707885 -2.59228e+06
4 3 O 5.33628 3.63678 1.4948 -1.2 -4.74998 -767217 -1.22796e+06 -3.38925e+07 -354856 3.78516e+06 -4.07858e+06
5 3 O 1.67294 1.04952 1.4948 -1.2 -1.07428 -2.0241e+07 -7.90935e+07 -2.43847e+06 -2.4124e+07 -101864 -329505
6 3 O 4.59532 1.31737 0.196716 -1.2 -3.0308 -1.9054e+06 -6.45534e+06 -3.0762e+07 -6.03822e+06 6.23358e+06 -2.91537e+06
7 1 Mg 6.18956 -6.37941e-06 2.9896 1.2 -4.86673 1.54369e+06 -2.86413e+07 -2.64043e+06 -8.80944e+06 2.41928e+06 4.31787e+06
8 3 O 4.55118 1.31737 2.79288 -1.2 -7.5478 215337 -4.3526e+06 -3.50941e+06 -3.01333e+06 -3.37096e+06 -1.33876e+06
9 1 Mg -1.20682 0.0413099 4.4844 1.2 9.0027 -3.08048e+07 -9.39282e+07 207507 -2.86264e+07 -1.05687e+06 387115
10 2 Si -3.0337 2.72544 4.4844 2.4 -33.0135 1.42529e+07 6.13297e+06 8.87862e+06 1.62728e+06 139983 -134701
11 3 O -3.08099 1.11221 4.4844 -1.2 -9.70176 -6.16812e+06 549106 -2.53934e+06 -1.22515e+06 -226769 4652.89
12 3 O 0.582463 3.69946 4.4844 -1.2 -9.00572 -3.17752e+06 -5.14905e+06 -3.19742e+06 -468848 -89538.6 -210989
13 3 O -2.29524 3.43162 3.18632 -1.2 -9.09991 -4.15543e+06 -2.19461e+06 -905188 1.10209e+06 -847155 -1.16407e+06
14 3 O -2.34216 3.43162 5.78248 -1.2 -8.88504 -3.80576e+06 -2.73671e+06 -2.07087e+06 788603 565528 1.07344e+06
15 1 Mg 1.12778 2.37449 2.9896 1.2 -7.56636 5.07706e+06 -1.95722e+06 -316577 -3.31149e+06 -4.2097e+06 -2.07469e+06
16 1 Mg 3.92855 2.33318 4.4844 1.2 -8.41789 -4.23548e+06 4.54564e+06 5.20384e+06 1.48151e+06 286160 659066
17 2 Si 2.09341 4.39804 4.4844 2.4 -32.3019 1.20007e+07 6.13616e+06 9.55118e+06 110398 -301550 607262
18 3 O 2.09991 6.01128 4.4844 -1.2 -9.56161 -4.00707e+06 188052 -4.00556e+06 621516 -84160.6 -103441
19 3 O -4.52137 3.42402 4.4844 -1.2 -9.21373 -2.858e+06 -2.46096e+06 -4.01097e+06 -2.49973e+06 -903616 -135183
20 3 O 2.80834 3.69187 3.18632 -1.2 -9.36797 -2.06174e+06 -2.5186e+06 -726409 449660 -475905 -627030
21 1 Mg 1.17857 2.37449 0 1.2 -5.12415 -633972 -1.5005e+07 -6.23378e+06 6.51731e+06 1.1477e+06 4.80124e+06
22 3 O 2.76143 3.69187 5.78248 -1.2 -9.34273 -2.8337e+06 -1.95141e+06 -1.82019e+06 461520 -25276.1 -39945.3
23 1 Mg -1.67381 2.41581 1.4948 1.2 -7.54835 1.54411e+06 -485308 4.30162e+06 1.33707e+06 -566148 1.25725e+06
24 2 Si 0.16286 0.350945 1.4948 2.4 -24.502 -8.32189e+06 1.17925e+07 1.20841e+07 1.54649e+06 2.87149e+06 1.74078e+06
25 3 O 0.15972 -1.26229 1.4948 -1.2 -4.78614 -1.06058e+07 -7.63693e+06 -2.93736e+07 -5.59102e+06 -8.57636e+06 -2.94003e+06
26 3 O 6.77654 1.32496 1.4948 -1.2 -10.3894 -5.72847e+06 2.07475e+06 -1.64473e+06 -644929 -669030 796350
27 3 O -0.508028 1.05712 0.196716 -1.2 -9.53948 81794.7 -4.43904e+06 -891155 -541382 204712 -4.82885e+06
28 3 O -0.552171 1.05712 2.79288 -1.2 -6.84564 -5.25169e+06 -4.23057e+06 -2.50308e+07 1.47786e+06 -6.83295e+06 -5.75802e+06
29 1 Mg 6.31713 4.74899 0 1.2 -4.93314 370499 -1.30306e+07 -5.9885e+06 -7.29794e+06 1.49625e+06 -3.41168e+06
30 1 Mg 3.54847 9.45668 1.4948 1.2 -8.25786 190863 1.83229e+06 4.28209e+06 -964816 -944798 -24901.1
31 2 Si 5.36879 6.77254 1.4948 2.4 -34.2238 7.21088e+06 1.19143e+07 1.16556e+07 1.69227e+06 266989 -1.55956e+06
32 3 O 5.41937 8.38578 1.4948 -1.2 -4.81673 -266301 -981103 -3.51382e+07 758567 1.04222e+06 -4.48051e+06
33 3 O 1.75158 5.79852 1.4948 -1.2 -9.5277 -3.94905e+06 -2.24921e+06 -1.54876e+06 1.98675e+06 -1.53833e+06 -1.53204e+06
34 3 O 4.67421 6.06637 0.196716 -1.2 -3.77842 186421 -1.00401e+07 -3.15729e+07 -2.01676e+06 1.26144e+06 -4.64995e+06
35 1 Mg 6.26654 4.74899 2.9896 1.2 -7.99385 4.06872e+06 -1.93487e+06 244036 1.84339e+06 -788282 2.08605e+06
36 3 O 4.63043 6.06637 2.79288 -1.2 -8.89778 -1.5881e+06 -3.81058e+06 -2.30146e+06 920067 -164437 -1.56621e+06
37 1 Mg -1.12976 4.79031 4.4844 1.2 -8.78001 -745054 2.46945e+06 3.21299e+06 -744137 -491378 57041.5
38 2 Si -2.9517 7.47444 4.4844 2.4 -32.7533 1.08972e+07 8.8811e+06 8.85738e+06 220783 297284 -91629.2
39 3 O -3.00198 5.86121 4.4844 -1.2 -9.45938 -3.87835e+06 103171 -4.08174e+06 -26221.4 -324740 2036.96
40 3 O 0.666315 8.44846 4.4844 -1.2 -9.34185 -3.15385e+06 -2.77177e+06 -3.17104e+06 2.14506e+06 -281479 -128965
41 3 O -2.21213 8.18062 3.18632 -1.2 -9.14469 -2.75287e+06 -3.44455e+06 -689981 1.06686e+06 -371621 -1.59951e+06
42 3 O -2.25864 8.18062 5.78248 -1.2 -9.0238 -2.46723e+06 -3.97531e+06 -1.76658e+06 923612 -227012 1.45752e+06
43 1 Mg 1.20893 7.12349 2.9896 1.2 -7.94364 4.03763e+06 -1.65014e+06 -110826 -1.31953e+06 -1.43778e+06 -1.52425e+06
44 1 Mg 4.00982 7.08218 4.4844 1.2 -8.56821 -802283 2.43351e+06 3.01671e+06 971407 -200097 50397.8
45 2 Si 2.17861 9.14704 4.4844 2.4 -32.5943 1.09911e+07 9.20099e+06 8.15687e+06 452227 -462321 476805
46 3 O 2.18828 10.7603 4.4844 -1.2 -9.57792 -3.81401e+06 -334350 -3.63963e+06 424899 27200.2 -317684
47 3 O -4.43805 8.17302 4.4844 -1.2 -9.41688 -3.30173e+06 -2.67487e+06 -2.97778e+06 -1.56588e+06 -693235 -23649.1
48 3 O 2.89193 8.44087 3.18632 -1.2 -9.19496 -2.75147e+06 -3.63096e+06 -579892 -885297 -155347 1.09443e+06
49 1 Mg 1.25915 7.12349 0 1.2 -5.29817 937515 -7.62606e+06 -6.26913e+06 5.88314e+06 1.30073e+06 2.86256e+06
50 3 O 2.84547 8.44087 5.78248 -1.2 -9.2089 -2.79183e+06 -3.86146e+06 -1.45014e+06 -677553 25738.5 -1.27921e+06
51 1 Mg -1.59284 7.16481 1.4948 1.2 -8.21332 744114 1.31352e+06 4.37528e+06 1.46681e+06 -907164 554457
52 2 Si 0.240329 5.09994 1.4948 2.4 -34.0134 8.21173e+06 1.06201e+07 1.16125e+07 -1.99995e+06 -1.15939e+06 2.32552e+06
53 3 O 0.234538 3.48671 1.4948 -1.2 -5.24927 -1.73694e+06 623797 -3.40107e+07 421921 5.21393e+06 3.76035e+06
54 3 O 6.85564 6.07396 1.4948 -1.2 -9.61056 -4.36763e+06 -1.69455e+06 -1.51377e+06 -1.36212e+06 -1.89029e+06 975365
55 3 O -0.429565 5.80612 0.196716 -1.2 -4.0365 -684682 -8.66443e+06 -3.16214e+07 1.85933e+06 1.2335e+06 4.34631e+06
56 3 O -0.473377 5.80612 2.79288 -1.2 -8.96998 -2.0482e+06 -3.39544e+06 -2.23978e+06 -761441 367696 1.15288e+06
57 1 Mg 6.40169 9.49799 0 1.2 -5.21535 1.47577e+06 -6.35581e+06 -6.69936e+06 -5.47655e+06 1.06465e+06 -2.11169e+06
58 1 Mg 3.64209 14.2057 1.4948 1.2 -8.2892 27736 1.9716e+06 4.31522e+06 -1.02809e+06 -984152 -98662
59 2 Si 5.45748 11.5215 1.4948 2.4 -34.0721 7.33823e+06 1.20307e+07 1.11447e+07 886492 439208 -1.55467e+06
60 3 O 5.51101 13.1348 1.4948 -1.2 -4.90161 -376134 -1.04637e+06 -3.46469e+07 477419 -2.57038e+06 -4.57932e+06
61 3 O 1.83851 10.5475 1.4948 -1.2 -9.65621 -4.08741e+06 -2.00805e+06 -1.17431e+06 1.54054e+06 -1.50941e+06 -1.39915e+06
62 3 O 4.7611 10.8154 0.196716 -1.2 -3.70978 704422 -1.16326e+07 -3.18311e+07 -2.47426e+06 -1.7897e+06 -4.63114e+06
63 1 Mg 6.35203 9.49799 2.9896 1.2 -7.88375 4.00129e+06 -1.48156e+06 -320639 1.32362e+06 -1.05256e+06 2.21722e+06
64 3 O 4.71833 10.8154 2.79288 -1.2 -8.98199 -1.77921e+06 -3.91906e+06 -1.88042e+06 1.05886e+06 -5638.52 -1.60946e+06
65 1 Mg -1.0438 9.53931 4.4844 1.2 -8.63393 -1.22165e+06 2.73611e+06 3.1516e+06 -523682 -290139 192552
66 2 Si -2.8604 12.2234 4.4844 2.4 -32.7279 1.10039e+07 9.10145e+06 8.49124e+06 -207832 281222 558978
67 3 O -2.91391 10.6102 4.4844 -1.2 -9.55895 -3.6941e+06 -379264 -3.63439e+06 244420 -415618 -291689
68 3 O 0.7596 13.1975 4.4844 -1.2 -9.29684 -3.18584e+06 -2.78833e+06 -3.1981e+06 2.05599e+06 -388207 -145834
69 3 O -2.12001 12.9296 3.18632 -1.2 -9.14457 -2.70973e+06 -3.58734e+06 -592962 1.18669e+06 -293129 -1.72353e+06
70 3 O -2.16532 12.9296 5.78248 -1.2 -8.94141 -2.79241e+06 -3.79597e+06 -1.78154e+06 1.22788e+06 -248290 1.19733e+06
71 1 Mg 1.29891 11.8725 2.9896 1.2 -7.91555 4.00673e+06 -1.41331e+06 -364992 -1.14961e+06 -1.32575e+06 -1.41409e+06
72 1 Mg 4.10033 11.8312 4.4844 1.2 -8.52976 -704031 2.58065e+06 2.70975e+06 1.13081e+06 -330163 469802
73 2 Si 2.27333 13.896 4.4844 2.4 -32.7179 1.11012e+07 9.08839e+06 8.35133e+06 874084 -215129 521884
74 3 O 2.28634 15.5093 4.4844 -1.2 -9.51051 -3.82057e+06 -297078 -3.77558e+06 373904 -195339 -145733
75 3 O -4.34533 12.922 4.4844 -1.2 -9.39367 -3.42407e+06 -2.60755e+06 -2.95338e+06 -1.38132e+06 -574429 -352600
76 3 O 2.98455 13.1899 3.18632 -1.2 -9.19323 -2.76688e+06 -3.67664e+06 -545357 -988875 -94994.5 1.02733e+06
77 1 Mg 1.34779 11.8725 0 1.2 -5.41684 2.6305e+06 -2.62049e+06 -6.87915e+06 3.55862e+06 758996 1.88997e+06
78 3 O 2.93934 13.1899 5.78248 -1.2 -9.09037 -2.88746e+06 -3.75279e+06 -1.5647e+06 -1.03734e+06 -94357.5 -1.53712e+06
79 1 Mg -1.50344 11.9138 1.4948 1.2 -8.25096 331852 1.88524e+06 4.25994e+06 1.55918e+06 -923661 672029
80 2 Si 0.326006 9.84894 1.4948 2.4 -34.0971 7.33052e+06 1.19489e+07 1.12468e+07 -610459 -2889.29 2.87456e+06
81 3 O 0.317364 8.23571 1.4948 -1.2 -4.81004 -358617 -840921 -3.53256e+07 -115823 1.23953e+06 3.92709e+06
82 3 O 6.94307 10.823 1.4948 -1.2 -9.69802 -4.22929e+06 -1.84009e+06 -1.09255e+06 -983864 -1.60062e+06 757550
83 3 O -0.343122 10.5551 0.196716 -1.2 -3.80168 406730 -1.10665e+07 -3.19172e+07 2.46802e+06 -2.01853e+06 4.17705e+06
84 3 O -0.385966 10.5551 2.79288 -1.2 -8.9752 -1.6614e+06 -3.9691e+06 -2.09955e+06 -867817 128027 843936
85 1 Mg 6.49448 14.247 0 1.2 -5.36257 3.08352e+06 -1.7952e+06 -7.05947e+06 -2.96726e+06 277207 -1.37169e+06
86 1 Mg 3.74457 18.9547 1.4948 1.2 -8.37487 -190714 2.08968e+06 4.47571e+06 -1.12878e+06 -1.00215e+06 -159162
87 2 Si 5.55495 16.2705 1.4948 2.4 -34.0408 7.53443e+06 1.17306e+07 1.12173e+07 506790 786643 -2.07926e+06
88 3 O 5.6115 17.8838 1.4948 -1.2 -5.21477 -1.38232e+06 -929197 -3.20247e+07 83437.3 -6.0373e+06 -4.21493e+06
89 3 O 1.93416 15.2965 1.4948 -1.2 -9.71066 -4.12692e+06 -1.73124e+06 -1.07434e+06 1.51998e+06 -1.35889e+06 -1.1715e+06
90 3 O 4.85636 15.5644 0.196716 -1.2 -3.76162 764837 -1.33718e+07 -3.02359e+07 -3.03576e+06 -5.12668e+06 -3.83653e+06
91 1 Mg 6.44662 14.247 2.9896 1.2 -7.88198 4.10408e+06 -1.50322e+06 -405486 1.24562e+06 -1.14486e+06 2.19236e+06
92 3 O 4.81537 15.5644 2.79288 -1.2 -8.94588 -1.72809e+06 -3.91652e+06 -2.01921e+06 1.08788e+06 -6699.5 -1.43776e+06
93 1 Mg -0.948271 14.2883 4.4844 1.2 -8.67138 -1.0676e+06 2.64802e+06 3.13913e+06 -558439 -276599 49130.8
94 2 Si -2.75928 16.9724 4.4844 2.4 -32.7412 1.12323e+07 9.23538e+06 8.15972e+06 -117393 -129568 113424
95 3 O -2.81617 15.3592 4.4844 -1.2 -9.51117 -3.87241e+06 -299085 -3.58723e+06 364248 -203657 -86019.7
96 3 O 0.862762 17.9465 4.4844 -1.2 -9.32765 -3.23865e+06 -2.95365e+06 -2.93771e+06 2.15189e+06 -605046 -50106.6
97 3 O -2.0185 17.6786 3.18632 -1.2 -9.14925 -2.76879e+06 -3.64631e+06 -486671 1.15586e+06 -145281 -1.56857e+06
98 3 O -2.06164 17.6786 5.78248 -1.2 -9.009 -2.84922e+06 -3.96428e+06 -1.57874e+06 1.15745e+06 -7768.64 1.2928e+06
99 1 Mg 1.39817 16.6215 2.9896 1.2 -7.90879 4.11493e+06 -1.39192e+06 -507491 -1.13555e+06 -1.20283e+06 -1.5718e+06
100 1 Mg 4.20062 16.5802 4.4844 1.2 -8.62858 -829120 2.60426e+06 2.97374e+06 1.13015e+06 -358511 193598
101 2 Si 2.37796 18.645 4.4844 2.4 -32.7355 1.08221e+07 9.46643e+06 8.28207e+06 580244 6437.3 186035
102 3 O 2.39434 20.2583 4.4844 -1.2 -9.51993 -3.67263e+06 -538874 -3.6844e+06 596916 -92183.6 -166826
103 3 O -4.24274 17.671 4.4844 -1.2 -9.36714 -3.42581e+06 -2.70402e+06 -2.88593e+06 -1.40278e+06 -393138 -124447
104 3 O 3.08659 17.9389 3.18632 -1.2 -9.16959 -2.68383e+06 -3.74905e+06 -630887 -925390 -60473.4 1.21329e+06
105 1 Mg 1.44478 16.6215 0 1.2 -5.51304 4.27589e+06 320295 -6.86855e+06 1.39732e+06 -62202.9 955269
106 3 O 3.0436 17.9389 5.78248 -1.2 -8.97625 -2.56641e+06 -4.03461e+06 -1.90194e+06 -864669 -184486 -1.21429e+06
107 1 Mg -1.40524 16.6628 1.4948 1.2 -8.31467 167866 2.03395e+06 4.32966e+06 1.68961e+06 -957284 434755
108 2 Si 0.420358 14.5979 1.4948 2.4 -34.0479 7.3684e+06 1.19684e+07 1.10948e+07 -110089 531675 2.77681e+06
109 3 O 0.408732 12.9847 1.4948 -1.2 -4.88122 -361017 -1.03781e+06 -3.48368e+07 216042 -2.52757e+06 4.02838e+06
110 3 O 7.03923 15.572 1.4948 -1.2 -9.74952 -4.26611e+06 -1.57448e+06 -996706 -931459 -1.32241e+06 909933
111 3 O -0.248332 15.3041 0.196716 -1.2 -3.86385 437420 -1.29083e+07 -3.02611e+07 3.25678e+06 -5.41095e+06 3.90528e+06
112 3 O -0.289436 15.3041 2.79288 -1.2 -8.96928 -1.68776e+06 -4.05256e+06 -2.04e+06 -872172 39519.3 984162
113 1 Mg 6.59566 18.996 0 1.2 -5.50866 4.49573e+06 693162 -6.68287e+06 -907748 -673155 -837979
114 1 Mg 3.85574 23.7037 1.4948 1.2 -8.47911 -404682 2.22994e+06 4.57657e+06 -1.18413e+06 -982427 10000.2
115 2 Si 5.66125 21.0195 1.4948 2.4 -33.9746 8.04984e+06 1.13045e+07 1.10836e+07 185803 1.14964e+06 -2.01504e+06
116 3 O 5.72074 22.6328 1.4948 -1.2 -5.80603 -3.11769e+06 -810126 -2.7121e+07 -223665 -8.4673e+06 -3.89821e+06
117 3 O 2.03867 20.0455 1.4948 -1.2 -9.72778 -4.13607e+06 -1.45872e+06 -1.10848e+06 1.58411e+06 -1.14326e+06 -1.13373e+06
118 3 O 4.96004 20.3134 0.196716 -1.2 -4.06413 3011.03 -1.46895e+07 -2.64856e+07 -3.18762e+06 -7.90173e+06 -2.89177e+06
119 1 Mg 6.55057 18.996 2.9896 1.2 -7.85906 4.19826e+06 -1.46897e+06 -570072 1.3079e+06 -1.2246e+06 2.04968e+06
120 3 O 4.92172 20.3134 2.79288 -1.2 -8.94436 -1.72182e+06 -4.0206e+06 -1.96396e+06 1.10399e+06 -17365.8 -1.36989e+06
121 1 Mg -0.84282 19.0373 4.4844 1.2 -8.60378 -1.02086e+06 2.80066e+06 2.81969e+06 -445677 -230700 91346
122 2 Si -2.64823 21.7214 4.4844 2.4 -32.6019 1.13417e+07 9.393e+06 7.65806e+06 152658 129141 344924
123 3 O -2.70847 20.1082 4.4844 -1.2 -9.57367 -3.88234e+06 -393926 -3.39586e+06 228247 -164276 -72608.2
124 3 O 0.97581 22.6955 4.4844 -1.2 -9.25597 -3.09429e+06 -2.91858e+06 -3.24583e+06 2.21673e+06 -535811 -293731
125 3 O -1.9076 22.4276 3.18632 -1.2 -9.13648 -2.78186e+06 -3.65828e+06 -525580 1.13855e+06 -177010 -1.74284e+06
126 3 O -1.9475 22.4276 5.78248 -1.2 -9.12708 -2.88167e+06 -3.96404e+06 -1.1576e+06 984414 -431898 1.10238e+06
127 1 Mg 1.50678 21.3705 2.9896 1.2 -7.90893 4.13073e+06 -1.34565e+06 -569484 -1.17755e+06 -1.24963e+06 -1.40206e+06
128 1 Mg 4.31086 21.3292 4.4844 1.2 -8.57269 -835056 2.84244e+06 2.65036e+06 1.09093e+06 -463692 230524
129 2 Si 2.49243 23.394 4.4844 2.4 -32.8661 1.08797e+07 9.18699e+06 8.71249e+06 764926 -391419 696421
130 3 O 2.51204 25.0073 4.4844 -1.2 -9.41657 -3.87872e+06 -117378 -4.05905e+06 485913 -35495.7 -119248
131 3 O -4.13026 22.42 4.4844 -1.2 -9.44053 -3.56099e+06 -2.81221e+06 -2.54924e+06 -1.3685e+06 -379167 -303223
132 3 O 3.19799 22.6879 3.18632 -1.2 -9.14251 -2.67981e+06 -3.76767e+06 -720982 -909684 137539 1.03068e+06
133 1 Mg 1.5501 21.3705 0 1.2 -5.59817 5.19814e+06 1.79064e+06 -6.34671e+06 -83028.1 -964015 636769
134 3 O 3.1583 22.6879 5.78248 -1.2 -8.99846 -2.57551e+06 -4.15009e+06 -1.62756e+06 -943702 230452 -1.71445e+06
135 1 Mg -1.29822 21.4118 1.4948 1.2 -8.40731 -56696 2.18629e+06 4.44588e+06 1.81985e+06 -887807 472852
136 2 Si 0.523568 19.3469 1.4948 2.4 -34.0097 7.71908e+06 1.15993e+07 1.108e+07 311476 1.04782e+06 2.8348e+06
137 3 O 0.508934 17.7337 1.4948 -1.2 -5.20339 -1.39979e+06 -946649 -3.21428e+07 662116 -6.0985e+06 3.98855e+06
138 3 O 7.14425 20.321 1.4948 -1.2 -9.77431 -4.31154e+06 -1.30528e+06 -991012 -950827 -1.08021e+06 882205
139 3 O -0.145107 20.0531 0.196716 -1.2 -4.16802 -359189 -1.43727e+07 -2.64773e+07 3.68377e+06 -8.23346e+06 2.93816e+06
140 3 O -0.183601 20.0531 2.79288 -1.2 -8.9706 -1.66836e+06 -4.15544e+06 -2.00861e+06 -867226 -74793.5 886060
141 1 Mg 6.70502 23.745 0 1.2 -5.62307 5.03615e+06 2.00332e+06 -5.96634e+06 430257 -1.52078e+06 -368971
142 1 Mg 3.97493 28.4527 1.4948 1.2 -8.60669 -637815 2.39754e+06 4.61386e+06 -1.21127e+06 -801169 -151834
143 2 Si 5.77602 25.7685 1.4948 2.4 -33.9142 8.82146e+06 1.05772e+07 1.10302e+07 -84287.1 1.46715e+06 -2.01983e+06
144 3 O 5.83821 27.3818 1.4948 -1.2 -6.55762 -4.91497e+06 -607960 -2.1086e+07 -350218 -9.27107e+06 -3.11082e+06
145 3 O 2.15175 24.7945 1.4948 -1.2 -9.71056 -4.16371e+06 -1.18609e+06 -1.24649e+06 1.61868e+06 -912812 -1.0927e+06
146 3 O 5.07184 25.0624 0.196716 -1.2 -4.67499 -1.32688e+06 -1.53718e+07 -2.08737e+07 -2.79692e+06 -9.36868e+06 -1.6357e+06
147 1 Mg 6.66374 23.745 2.9896 1.2 -7.85936 4.38801e+06 -1.54963e+06 -675814 1.3189e+06 -1.23752e+06 2.23164e+06
148 3 O 5.03707 25.0624 2.79288 -1.2 -8.89674 -1.84576e+06 -3.85885e+06 -2.11573e+06 1.05743e+06 -71642 -1.42166e+06
149 1 Mg -0.727559 23.7863 4.4844 1.2 -8.68939 -1.08771e+06 2.62853e+06 3.19064e+06 -537437 -3508.51 313273
150 2 Si -2.5277 26.4704 4.4844 2.4 -32.8594 1.1489e+07 8.56596e+06 8.75731e+06 -31487.7 47885.9 332828
151 3 O -2.59107 24.8572 4.4844 -1.2 -9.50892 -4.06126e+06 -126314 -3.57707e+06 392827 -246670 -367499
152 3 O 1.09817 27.4445 4.4844 -1.2 -9.2379 -3.36835e+06 -2.73584e+06 -3.1893e+06 2.29396e+06 -351843 177627
153 3 O -1.78784 27.1766 3.18632 -1.2 -9.05201 -2.76705e+06 -3.48125e+06 -910098 1.19883e+06 -29616.3 -1.53545e+06
154 3 O -1.82343 27.1766 5.78248 -1.2 -8.87583 -2.86138e+06 -3.44006e+06 -2.07497e+06 1.29215e+06 -89816.2 1.29801e+06
155 1 Mg 1.62435 26.1195 2.9896 1.2 -7.94955 4.34391e+06 -1.55527e+06 -504795 -1.16448e+06 -1.32423e+06 -1.57223e+06
156 1 Mg 4.43064 26.0782 4.4844 1.2 -8.68554 -679290 2.34933e+06 3.17381e+06 1.33145e+06 -340013 101228
157 2 Si 2.61607 28.143 4.4844 2.4 -32.8138 1.1335e+07 9.08975e+06 8.26844e+06 784129 -215293 -291848
158 3 O 2.63853 29.7563 4.4844 -1.2 -9.49386 -3.96518e+06 -296691 -3.68134e+06 522500 -53304.8 65139.5
159 3 O -4.00841 27.169 4.4844 -1.2 -9.32272 -3.62339e+06 -2.40447e+06 -3.07962e+06 -1.43982e+06 -464856 -60957.4
160 3 O 3.3182 27.4369 3.18632 -1.2 -9.09387 -2.79561e+06 -3.64963e+06 -875064 -932725 141275 1.33922e+06
161 1 Mg 1.66335 26.1195 0 1.2 -5.70448 5.09867e+06 2.42347e+06 -5.49052e+06 -902512 -1.53815e+06 359735
162 3 O 3.28288 27.4369 5.78248 -1.2 -8.98449 -2.89643e+06 -3.80879e+06 -1.68665e+06 -959801 -223714 -894785
163 1 Mg -1.18278 26.1608 1.4948 1.2 -8.53697 -329200 2.29177e+06 4.62846e+06 1.86846e+06 -794417 299480
164 2 Si 0.635424 24.0959 1.4948 2.4 -33.9703 8.28465e+06 1.09802e+07 1.1138e+07 720701 1.44783e+06 2.95641e+06
165 3 O 0.617906 22.4827 1.4948 -1.2 -5.78497 -3.08414e+06 -802656 -2.733e+07 1.01887e+06 -8.57822e+06 3.41998e+06
166 3 O 7.25781 25.07 1.4948 -1.2 -9.75712 -4.33203e+06 -1.0503e+06 -1.13286e+06 -937602 -848211 841764
167 3 O -0.0337363 24.8021 0.196716 -1.2 -4.75745 -1.60324e+06 -1.53319e+07 -2.09162e+07 3.51567e+06 -9.69408e+06 1.66819e+06
168 3 O -0.0687235 24.8021 2.79288 -1.2 -8.91271 -1.71621e+06 -4.01826e+06 -2.24051e+06 -801163 -148455 839976
169 1 Mg 6.82195 28.494 0 1.2 -5.80447 4.65276e+06 2.46115e+06 -4.87057e+06 1.14684e+06 -1.86546e+06 -478070
170 1 Mg 4.10106 33.2017 1.4948 1.2 -8.78184 -849852 2.4096e+06 4.75405e+06 -1.19836e+06 -538260 -48892.4
171 2 Si 5.89839 30.5175 1.4948 2.4 -33.869 9.69868e+06 9.87008e+06 1.08707e+07 -339439 1.66678e+06 -2.1848e+06
172 3 O 5.96289 32.1308 1.4948 -1.2 -7.32252 -6.16382e+06 -402790 -1.51619e+07 -283093 -8.44753e+06 -2.45408e+06
173 3 O 2.27266 29.5435 1.4948 -1.2 -9.66374 -4.22521e+06 -1.05709e+06 -1.3415e+06 1.64758e+06 -706504 -861081
174 3 O 5.19102 29.8114 0.196716 -1.2 -5.44124 -2.79732e+06 -1.48747e+07 -1.48701e+07 -1.9313e+06 -9.24905e+06 -110418
175 1 Mg 6.78546 28.494 2.9896 1.2 -7.90224 4.43268e+06 -1.62915e+06 -566838 1.31467e+06 -1.2627e+06 1.91307e+06
176 3 O 5.16061 29.8114 2.79288 -1.2 -8.86385 -1.91703e+06 -3.91215e+06 -2.08451e+06 1.10224e+06 -224890 -1.17483e+06
177 1 Mg -0.603205 28.5353 4.4844 1.2 -8.71546 -1.11082e+06 2.57198e+06 3.30344e+06 -516892 -271660 -119263
178 2 Si -2.39877 31.2194 4.4844 2.4 -32.8452 1.11761e+07 9.07358e+06 8.54286e+06 -63180.3 -99235 -51709.9
179 3 O -2.46483 29.6062 4.4844 -1.2 -9.47259 -3.82858e+06 -249685 -3.74547e+06 424385 -166641 105832
180 3 O 1.22864 32.1935 4.4844 -1.2 -9.26185 -3.46058e+06 -2.73828e+06 -3.06837e+06 2.22138e+06 -359135 27592.5
181 3 O -1.66032 31.9256 3.18632 -1.2 -8.99671 -2.77092e+06 -3.54515e+06 -1.01132e+06 1.18373e+06 97091.7 -1.49485e+06
182 3 O -1.69072 31.9256 5.78248 -1.2 -8.99889 -2.6785e+06 -3.78918e+06 -1.60143e+06 1.28401e+06 2798.76 1.44733e+06
183 1 Mg 1.7499 30.8685 2.9896 1.2 -7.9515 4.51551e+06 -1.51383e+06 -708180 -1.11525e+06 -1.40327e+06 -1.61146e+06
184 1 Mg 4.55894 30.8272 4.4844 1.2 -8.65113 -741048 2.58339e+06 2.94647e+06 1.23956e+06 -182168 61230.6
185 2 Si 2.7476 32.892 4.4844 2.4 -32.8767 1.14212e+07 8.90865e+06 8.4645e+06 850665 -83791.5 213098
186 3 O 2.77235 34.5053 4.4844 -1.2 -9.37551 -4.11614e+06 25693.7 -4.04515e+06 572606 -113925 -203195
187 3 O -3.87837 31.918 4.4844 -1.2 -9.31298 -3.52452e+06 -2.62363e+06 -2.98384e+06 -1.29924e+06 -396290 -122816
188 3 O 3.44611 32.1859 3.18632 -1.2 -9.03546 -2.82552e+06 -3.64891e+06 -1.0347e+06 -901911 166556 1.2271e+06
189 1 Mg 1.7837 30.8685 0 1.2 -5.91689 4.29882e+06 2.46448e+06 -4.45205e+06 -1.33801e+06 -1.50963e+06 307423
190 3 O 3.41602 32.1859 5.78248 -1.2 -9.03721 -2.78362e+06 -3.84157e+06 -1.6458e+06 -969186 -146400 -1.25888e+06
191 1 Mg -1.05984 30.9098 1.4948 1.2 -8.68054 -571949 2.44669e+06 4.64448e+06 1.89914e+06 -623228 89012
192 2 Si 0.755243 28.8449 1.4948 2.4 -33.9051 9.18272e+06 1.03143e+07 1.08861e+07 1.13079e+06 1.61654e+06 2.392e+06
193 3 O 0.735127 27.2317 1.4948 -1.2 -6.5437 -4.91417e+06 -612164 -2.12418e+07 1.18712e+06 -9.33895e+06 3.0238e+06
194 3 O 7.37914 29.819 1.4948 -1.2 -9.69555 -4.32068e+06 -924025 -1.33658e+06 -921806 -622716 1.0532e+06
195 3 O 0.0850649 29.5511 0.196716 -1.2 -5.50473 -2.99347e+06 -1.52386e+07 -1.48542e+07 2.69809e+06 -9.47396e+06 516935
196 3 O 0.0543974 29.5511 2.79288 -1.2 -8.89298 -1.84073e+06 -4.05237e+06 -2.16724e+06 -828019 -112875 1.04603e+06
197 1 Mg 6.94543 33.243 0 1.2 -6.07487 3.77354e+06 2.33003e+06 -3.75352e+06 1.56969e+06 -1.45676e+06 -725095
198 1 Mg 4.23267 37.9507 1.4948 1.2 -8.95893 -948303 2.17264e+06 4.95869e+06 -1.11701e+06 -197805 -114771
199 2 Si 6.02709 35.2665 1.4948 2.4 -33.9339 1.07904e+07 8.52361e+06 1.12793e+07 -408171 1.61353e+06 -1.8804e+06
200 3 O 6.09339 36.8798 1.4948 -1.2 -7.94929 -6.63094e+06 77663.6 -1.06633e+07 -147129 -6.62994e+06 -1.90519e+06
201 3 O 2.40018 34.2925 1.4948 -1.2 -9.52913 -4.33289e+06 -761947 -1.79676e+06 1.68764e+06 -522173 -913144
202 3 O 5.31645 34.5604 0.196716 -1.2 -6.22223 -4.00955e+06 -1.30106e+07 -9.83385e+06 -945915 -7.83047e+06 1.02798e+06
203 1 Mg 6.91449 33.243 2.9896 1.2 -7.97351 4.56476e+06 -1.72549e+06 -480138 1.29701e+06 -1.38619e+06 2.01048e+06
204 3 O 5.291 34.5604 2.79288 -1.2 -8.75163 -2.13899e+06 -3.60654e+06 -2.38344e+06 1.11496e+06 -282982 -1.2878e+06
205 1 Mg -0.471101 33.2843 4.4844 1.2 -8.73355 -955126 2.52071e+06 3.22063e+06 -462782 -228453 79403.4
206 2 Si -2.26307 35.9684 4.4844 2.4 -33.224 1.16861e+07 8.17905e+06 9.54369e+06 141829 -265076 475849
207 3 O -2.33122 34.3552 4.4844 -1.2 -9.36752 -3.99429e+06 -54753.4 -3.9335e+06 422161 12880.5 -180837
208 3 O 1.36549 36.9425 4.4844 -1.2 -9.07587 -3.8342e+06 -2.08151e+06 -3.64349e+06 2.34972e+06 -314562 -66992.7
209 3 O -1.52658 36.6746 3.18632 -1.2 -8.82166 -2.95349e+06 -3.08586e+06 -1.65851e+06 1.15857e+06 168415 -1.56851e+06
210 3 O -1.55122 36.6746 5.78248 -1.2 -8.67285 -3.08865e+06 -3.18471e+06 -2.37989e+06 1.18829e+06 133092 939984
211 1 Mg 1.882 35.6175 2.9896 1.2 -8.07459 4.79097e+06 -1.92314e+06 -367069 -1.12743e+06 -1.47121e+06 -1.46786e+06
212 1 Mg 4.69415 35.5762 4.4844 1.2 -8.83015 -521170 2.10973e+06 3.48792e+06 1.25011e+06 -122734 204837
213 2 Si 2.88522 37.641 4.4844 2.4 -33.2356 1.20873e+07 7.52668e+06 9.76404e+06 755143 -129830 -81509.8
214 3 O 2.91159 39.2543 4.4844 -1.2 -9.28728 -4.40719e+06 491645 -4.34491e+06 571935 -52428.1 255996
215 3 O -3.74183 36.667 4.4844 -1.2 -9.10934 -3.82496e+06 -2.08381e+06 -3.53477e+06 -1.3859e+06 -349850 -191516
216 3 O 3.58014 36.9349 3.18632 -1.2 -8.87019 -3.01911e+06 -3.16077e+06 -1.69508e+06 -868577 201785 1.24005e+06
217 1 Mg 1.90997 35.6175 0 1.2 -6.18964 3.2917e+06 2.06125e+06 -3.58341e+06 -1.64648e+06 -780276 740410
218 3 O 3.55582 36.9349 5.78248 -1.2 -8.76358 -3.16076e+06 -3.05083e+06 -2.4276e+06 -895118 -15264.9 -1.3376e+06
219 1 Mg -0.93068 35.6588 1.4948 1.2 -8.86827 -667152 2.26521e+06 4.82987e+06 1.8506e+06 -333031 86206.1
220 2 Si 0.881882 33.5939 1.4948 2.4 -33.9198 1.03124e+07 9.20501e+06 1.09603e+07 1.41711e+06 1.63446e+06 2.28472e+06
221 3 O 0.859602 31.9807 1.4948 -1.2 -7.32149 -6.22469e+06 -401664 -1.52469e+07 1.15239e+06 -8.47912e+06 2.45566e+06
222 3 O 7.507 34.568 1.4948 -1.2 -9.55577 -4.42518e+06 -641704 -1.80497e+06 -927279 -419429 1.0144e+06
223 3 O 0.210186 34.3001 0.196716 -1.2 -6.26596 -4.15013e+06 -1.37452e+07 -9.73697e+06 1.52662e+06 -7.951e+06 -660591
224 3 O 0.184454 34.3001 2.79288 -1.2 -8.8066 -2.13463e+06 -3.7961e+06 -2.31516e+06 -837061 -161269 860322
225 1 Mg 7.07415 37.992 0 1.2 -6.33933 2.83904e+06 1.85228e+06 -3.06681e+06 1.87116e+06 -391341 -1.38541e+06
226 1 Mg 4.36817 42.6997 1.4948 1.2 -9.00138 -1.08345e+06 2.25595e+06 4.69665e+06 -1.01008e+06 168941 -123422
227 2 Si 6.16058 40.0155 1.4948 2.4 -33.9286 1.16588e+07 7.32344e+06 1.16101e+07 -369479 1.40633e+06 -1.94443e+06
228 3 O 6.22815 41.6288 1.4948 -1.2 -8.4913 -6.25591e+06 249685 -7.4329e+06 40356.1 -4.55822e+06 -1.42665e+06
229 3 O 2.53282 39.0415 1.4948 -1.2 -9.38113 -4.42968e+06 -484443 -2.37381e+06 1.71906e+06 -338514 -760636
230 3 O 5.44674 39.3094 0.196716 -1.2 -6.96381 -4.66396e+06 -1.02948e+07 -6.26601e+06 -145045 -5.80489e+06 1.96673e+06
231 1 Mg 7.04922 37.992 2.9896 1.2 -8.116 4.78761e+06 -2.18765e+06 -1534.43 1.31577e+06 -1.44749e+06 1.89342e+06
232 3 O 5.42658 39.3094 2.79288 -1.2 -8.66058 -2.41461e+06 -3.22543e+06 -2.6617e+06 1.11582e+06 -370593 -1.06062e+06
233 1 Mg -0.333062 38.0333 4.4844 1.2 -8.94301 -667224 1.84941e+06 3.93729e+06 -487790 -243253 32172.5
234 2 Si -2.12255 40.7174 4.4844 2.4 -33.3704 1.16472e+07 7.81477e+06 1.01883e+07 36617.1 -255751 -447524
235 3 O -2.19212 39.1042 4.4844 -1.2 -9.18556 -4.12216e+06 443904 -4.57624e+06 439138 -17087.6 116283
236 3 O 1.50676 41.6915 4.4844 -1.2 -9.12699 -3.86995e+06 -2.16942e+06 -3.43827e+06 2.24435e+06 -135421 187099
237 3 O -1.3884 41.4236 3.18632 -1.2 -8.76642 -2.92046e+06 -3.01702e+06 -1.95185e+06 1.14513e+06 212412 -1.2666e+06
238 3 O -1.40713 41.4236 5.78248 -1.2 -8.70853 -2.93832e+06 -3.19187e+06 -2.3613e+06 1.20791e+06 242376 1.76792e+06
239 1 Mg 2.01892 40.3665 2.9896 1.2 -8.13002 4.95327e+06 -2.12082e+06 -229557 -1.09101e+06 -1.61741e+06 -1.72355e+06
240 1 Mg 4.83434 40.3252 4.4844 1.2 -8.87504 -424788 1.94879e+06 3.62488e+06 1.27712e+06 68032.9 -155046
241 2 Si 3.02698 42.39 4.4844 2.4 -33.1103 1.20543e+07 7.79761e+06 9.32171e+06 787438 47721.8 -172764
242 3 O 3.05433 44.0033 4.4844 -1.2 -9.32285 -4.27921e+06 372810 -4.30374e+06 619233 -94433.1 144073
243 3 O -3.60077 41.416 4.4844 -1.2 -9.09345 -3.76744e+06 -2.05335e+06 -3.64503e+06 -1.24899e+06 -302389 123251
244 3 O 3.71851 41.6839 3.18632 -1.2 -8.83998 -3.01014e+06 -3.16312e+06 -1.86121e+06 -843950 156459 1.36489e+06
245 1 Mg 2.04077 40.3665 0 1.2 -6.39032 2.46718e+06 1.61486e+06 -3.41212e+06 -1.84136e+06 408931 1.40064e+06
246 3 O 3.70011 41.6839 5.78248 -1.2 -8.95085 -3.07843e+06 -3.20698e+06 -1.85901e+06 -904993 -394684 -1.22181e+06
247 1 Mg -0.796865 40.4078 1.4948 1.2 -8.97978 -762785 2.14578e+06 4.83191e+06 1.75158e+06 -3759.11 -117618
248 2 Si 1.01387 38.3429 1.4948 2.4 -33.9685 1.13949e+07 7.73001e+06 1.14663e+07 1.51756e+06 1.38996e+06 1.76129e+06
249 3 O 0.989947 36.7297 1.4948 -1.2 -7.95461 -6.73254e+06 83733.9 -1.07109e+07 1.04332e+06 -6.614e+06 1.97324e+06
250 3 O 7.63988 39.317 1.4948 -1.2 -9.40665 -4.48757e+06 -388885 -2.40696e+06 -931276 -265567 1.20129e+06
251 3 O 0.340253 39.0491 0.196716 -1.2 -6.98268 -4.76306e+06 -1.12176e+07 -6.16862e+06 383595 -5.82994e+06 -1.37162e+06
252 3 O 0.319795 39.0491 2.79288 -1.2 -8.70695 -2.42574e+06 -3.3531e+06 -2.6619e+06 -834987 -125691 1.04449e+06
253 1 Mg 7.20667 42.741 0 1.2 -6.45961 2.12831e+06 1.58408e+06 -3.35888e+06 1.99255e+06 921672 -2.23166e+06
254 1 Mg 4.50613 47.4487 1.4948 1.2 -8.95053 -1.17283e+06 2.51861e+06 4.23867e+06 -859926 455668 54573.5
255 2 Si 6.29731 44.7645 1.4948 2.4 -33.7474 1.20293e+07 6.94184e+06 1.13078e+07 -271771 948178 -1.64272e+06
256 3 O 6.36567 46.3778 1.4948 -1.2 -8.92781 -5.43397e+06 113142 -5.31837e+06 200155 -2.70863e+06 -1.29217e+06
257 3 O 2.669 43.7905 1.4948 -1.2 -9.31412 -4.31202e+06 -693901 -2.65952e+06 1.71899e+06 -215957 -804208
258 3 O 5.58048 44.0584 0.196716 -1.2 -7.65554 -4.64368e+06 -7.67791e+06 -3.8308e+06 334615 -3.7535e+06 2.47002e+06
259 1 Mg 7.1879 42.741 2.9896 1.2 -8.11364 4.77415e+06 -2.13927e+06 -26833.6 1.26476e+06 -1.58208e+06 1.73583e+06
260 3 O 5.56564 44.0584 2.79288 -1.2 -8.69752 -2.48458e+06 -3.26381e+06 -2.51995e+06 1.16888e+06 -334521 -1.03515e+06
261 1 Mg -0.19105 42.7823 4.4844 1.2 -8.88135 -751504 2.02273e+06 3.74697e+06 -344561 -203239 -152096
262 2 Si -1.97909 45.4664 4.4844 2.4 -33.1602 1.17041e+07 8.05661e+06 9.55506e+06 103894 -270548 -518173
263 3 O -2.04947 43.8532 4.4844 -1.2 -9.27304 -4.10526e+06 305805 -4.31568e+06 427682 78576.9 230522
264 3 O 1.65063 46.4405 4.4844 -1.2 -9.15184 -3.71096e+06 -2.34157e+06 -3.38201e+06 2.22079e+06 -183148 169623
265 3 O -1.24745 46.1726 3.18632 -1.2 -8.81214 -2.86993e+06 -3.19496e+06 -1.85559e+06 1.13153e+06 143764 -1.29373e+06
266 3 O -1.26044 46.1726 5.78248 -1.2 -8.88188 -3.06062e+06 -3.22965e+06 -1.88346e+06 1.19434e+06 38626 1.88341e+06
267 1 Mg 2.15896 45.1155 2.9896 1.2 -8.11256 4.8395e+06 -1.97864e+06 -270170 -1.05258e+06 -1.67842e+06 -1.64522e+06
268 1 Mg 4.97763 45.0742 4.4844 1.2 -8.83176 -599892 2.07343e+06 3.60644e+06 1.17954e+06 28767.2 -184057
269 2 Si 3.1711 47.139 4.4844 2.4 -33.0757 1.14902e+07 8.37477e+06 9.25855e+06 829798 47021.1 -97608.3