ITEM: TIMESTEP
41200
ITEM: NUMBER OF ATOMS
10500
ITEM: BOX BOUNDS xy xz yz pp pp pp
0.0000000000000000e+00 1.5297749999999999e+01 5.0992499999999996e+00
0.0000000000000000e+00 1.1872499999999999e+02 0.0000000000000000e+00
0.0000000000000000e+00 8.9688000000000002e+01 0.0000000000000000e+00
ITEM: ATOMS id type element xu yu zu q c_pe c_s[1] c_s[2] c_s[3] c_s[4] c_s[5] c_s[6]
1 1 Mg 6.2404 -6.37941e-06 0 1.2 -4.30427 7.68924e+06 -1.8515e+06 -6.20327e+06 -20596.1 2.59375e+06 146242
2 1 Mg 3.46349 4.70768 1.4948 1.2 -8.35639 -504405 2.52196e+06 4.46693e+06 -928791 -635309 580135
3 2 Si 5.2885 2.02354 1.4948 2.4 -34.948 9.51911e+06 1.07256e+07 1.15405e+07 8.86564e+06 672804 -2.1422e+06
4 3 O 5.33628 3.63678 1.4948 -1.2 -4.85549 -604738 -1.27632e+06 -3.38373e+07 -333948 3.8281e+06 -4.36061e+06
5 3 O 1.67294 1.04952 1.4948 -1.2 -1.21704 -2.00803e+07 -7.92978e+07 -2.16636e+06 -2.41267e+07 -124832 -561015
6 3 O 4.59532 1.31737 0.196716 -1.2 -3.15669 -1.77038e+06 -6.60907e+06 -3.05414e+07 -6.03957e+06 6.26169e+06 -3.04293e+06
7 1 Mg 6.18956 -6.37941e-06 2.9896 1.2 -4.72204 1.20668e+06 -2.8245e+07 -2.93143e+06 -8.8447e+06 2.46695e+06 4.53147e+06
8 3 O 4.55118 1.31737 2.79288 -1.2 -7.6978 431953 -4.56785e+06 -3.26975e+06 -2.96045e+06 -3.40077e+06 -1.64497e+06
9 1 Mg -1.20682 0.0413099 4.4844 1.2 9.1785 -3.12519e+07 -9.34768e+07 -78732 -2.84621e+07 -1.1924e+06 754539
10 2 Si -3.0337 2.72544 4.4844 2.4 -32.7729 1.3805e+07 6.26671e+06 8.81699e+06 1.58752e+06 209414 540511
11 3 O -3.08099 1.11221 4.4844 -1.2 -9.84442 -5.80269e+06 228806 -2.34173e+06 -1.221e+06 -264428 -363796
12 3 O 0.582463 3.69946 4.4844 -1.2 -9.12962 -2.95281e+06 -5.07704e+06 -3.29288e+06 -581681 -109598 -592018
13 3 O -2.29524 3.43162 3.18632 -1.2 -9.21454 -3.94666e+06 -2.24401e+06 -876160 1.10046e+06 -856408 -1.45007e+06
14 3 O -2.34216 3.43162 5.78248 -1.2 -8.96554 -3.74787e+06 -2.60376e+06 -2.28099e+06 812924 473348 844802
15 1 Mg 1.12778 2.37449 2.9896 1.2 -7.42364 4.89159e+06 -1.87611e+06 -440926 -3.27938e+06 -4.2135e+06 -1.706e+06
16 1 Mg 3.92855 2.33318 4.4844 1.2 -8.25382 -4.46667e+06 4.60622e+06 5.11185e+06 1.39879e+06 282122 1.07704e+06
17 2 Si 2.09341 4.39804 4.4844 2.4 -32.0615 1.15345e+07 6.0022e+06 9.76309e+06 254101 -312227 1.45449e+06
18 3 O 2.09991 6.01128 4.4844 -1.2 -9.64355 -3.77702e+06 306527 -4.22062e+06 500230 -167561 -442846
19 3 O -4.52137 3.42402 4.4844 -1.2 -9.34628 -2.66178e+06 -2.49955e+06 -3.94794e+06 -2.40395e+06 -869043 -477230
20 3 O 2.80834 3.69187 3.18632 -1.2 -9.49319 -1.87984e+06 -2.5377e+06 -690102 449066 -472390 -1.00509e+06
21 1 Mg 1.17857 2.37449 0 1.2 -5.01686 -767855 -1.49397e+07 -6.337e+06 6.51654e+06 1.22826e+06 4.98404e+06
22 3 O 2.76143 3.69187 5.78248 -1.2 -9.52064 -2.53211e+06 -1.91048e+06 -1.78254e+06 499714 40715.5 -582289
23 1 Mg -1.67381 2.41581 1.4948 1.2 -7.43843 1.30176e+06 -367100 4.24965e+06 1.34984e+06 -574080 1.48321e+06
24 2 Si 0.16286 0.350945 1.4948 2.4 -24.2196 -8.76488e+06 1.23474e+07 1.15197e+07 1.58564e+06 2.83758e+06 2.10795e+06
25 3 O 0.15972 -1.26229 1.4948 -1.2 -4.93389 -1.03879e+07 -8.02694e+06 -2.89651e+07 -5.6053e+06 -8.52503e+06 -3.04558e+06
26 3 O 6.77654 1.32496 1.4948 -1.2 -10.5115 -5.47039e+06 1.85943e+06 -1.49109e+06 -640749 -645947 619105
27 3 O -0.508028 1.05712 0.196716 -1.2 -9.65254 329636 -4.63278e+06 -763006 -539217 180151 -4.9345e+06
28 3 O -0.552171 1.05712 2.79288 -1.2 -6.99257 -4.9882e+06 -4.46941e+06 -2.48201e+07 1.41949e+06 -6.78573e+06 -6.0592e+06
29 1 Mg 6.31713 4.74899 0 1.2 -4.85785 210358 -1.30434e+07 -5.93612e+06 -7.3104e+06 1.39692e+06 -3.11565e+06
30 1 Mg 3.54847 9.45668 1.4948 1.2 -8.20853 83825.4 1.81988e+06 4.32256e+06 -953561 -926889 193282
31 2 Si 5.36879 6.77254 1.4948 2.4 -34.0756 6.92756e+06 1.1888e+07 1.17276e+07 1.66085e+06 115652 -900685
32 3 O 5.41937 8.38578 1.4948 -1.2 -4.87371 -127192 -965442 -3.5201e+07 767998 1.1227e+06 -4.75979e+06
33 3 O 1.75158 5.79852 1.4948 -1.2 -9.616 -3.83395e+06 -2.21509e+06 -1.55635e+06 1.95992e+06 -1.59694e+06 -1.85483e+06
34 3 O 4.67421 6.06637 0.196716 -1.2 -3.86097 274851 -1.00217e+07 -3.15475e+07 -2.01251e+06 1.33335e+06 -4.98829e+06
35 1 Mg 6.26654 4.74899 2.9896 1.2 -7.88943 3.90167e+06 -1.91101e+06 219902 1.79054e+06 -838734 2.40042e+06
36 3 O 4.63043 6.06637 2.79288 -1.2 -8.98038 -1.40808e+06 -3.79326e+06 -2.36622e+06 932491 -101031 -1.92821e+06
37 1 Mg -1.12976 4.79031 4.4844 1.2 -8.66543 -869331 2.41305e+06 3.21039e+06 -705254 -384380 281611
38 2 Si -2.9517 7.47444 4.4844 2.4 -32.5741 1.0912e+07 8.61089e+06 8.82697e+06 -37289.7 -44601.9 612008
39 3 O -3.00198 5.86121 4.4844 -1.2 -9.57928 -3.81518e+06 110613 -3.95131e+06 88366.1 -246194 -303611
40 3 O 0.666315 8.44846 4.4844 -1.2 -9.43349 -3.17551e+06 -2.54759e+06 -3.22603e+06 2.11452e+06 -467581 -235458
41 3 O -2.21213 8.18062 3.18632 -1.2 -9.22256 -2.72682e+06 -3.34506e+06 -689390 1.12333e+06 -290141 -1.84295e+06
42 3 O -2.25864 8.18062 5.78248 -1.2 -9.14167 -2.75181e+06 -3.51914e+06 -1.82653e+06 1.14211e+06 -132780 1.09767e+06
43 1 Mg 1.20893 7.12349 2.9896 1.2 -7.86388 3.93334e+06 -1.74167e+06 -42836 -1.27162e+06 -1.32885e+06 -1.2622e+06
44 1 Mg 4.00982 7.08218 4.4844 1.2 -8.53171 -1.11226e+06 2.35602e+06 3.34571e+06 1.05186e+06 -256675 470063
45 2 Si 2.17861 9.14704 4.4844 2.4 -32.5164 1.07839e+07 8.85439e+06 8.58651e+06 617245 108209 668297
46 3 O 2.18828 10.7603 4.4844 -1.2 -9.62582 -3.70768e+06 -282594 -3.71638e+06 466117 -267596 -291183
47 3 O -4.43805 8.17302 4.4844 -1.2 -9.43691 -3.10615e+06 -2.52002e+06 -3.28341e+06 -1.51934e+06 -434995 -398280
48 3 O 2.89193 8.44087 3.18632 -1.2 -9.24078 -2.58668e+06 -3.53604e+06 -763321 -940212 -260452 863548
49 1 Mg 1.25915 7.12349 0 1.2 -5.21798 860353 -7.63366e+06 -6.31287e+06 5.90397e+06 1.39903e+06 3.20325e+06
50 3 O 2.84547 8.44087 5.78248 -1.2 -9.16787 -2.58081e+06 -3.6605e+06 -1.90581e+06 -936076 -357599 -1.44285e+06
51 1 Mg -1.59284 7.16481 1.4948 1.2 -8.13876 625676 1.29446e+06 4.39336e+06 1.44961e+06 -906328 847962
52 2 Si 0.240329 5.09994 1.4948 2.4 -33.8313 7.92301e+06 1.05766e+07 1.16529e+07 -1.95902e+06 -1.0386e+06 2.93502e+06
53 3 O 0.234538 3.48671 1.4948 -1.2 -5.35503 -1.56114e+06 590744 -3.39836e+07 400772 5.17418e+06 3.47934e+06
54 3 O 6.85564 6.07396 1.4948 -1.2 -9.69029 -4.21512e+06 -1.68914e+06 -1.54363e+06 -1.33426e+06 -1.82753e+06 657698
55 3 O -0.429565 5.80612 0.196716 -1.2 -4.10872 -523890 -8.64572e+06 -3.16837e+07 1.85444e+06 1.16055e+06 4.0176e+06
56 3 O -0.473377 5.80612 2.79288 -1.2 -9.06534 -1.92921e+06 -3.34453e+06 -2.25618e+06 -777464 305617 871993
57 1 Mg 6.40169 9.49799 0 1.2 -5.16625 1.33337e+06 -6.31302e+06 -6.67839e+06 -5.49565e+06 976616 -1.85525e+06
58 1 Mg 3.64209 14.2057 1.4948 1.2 -8.31172 55188.3 1.98652e+06 4.30895e+06 -1.04315e+06 -967544 171958
59 2 Si 5.45748 11.5215 1.4948 2.4 -34.0305 7.14369e+06 1.20754e+07 1.12282e+07 895824 320731 -1.18517e+06
60 3 O 5.51101 13.1348 1.4948 -1.2 -4.89747 -332898 -1.07841e+06 -3.46645e+07 467374 -2.53405e+06 -4.81254e+06
61 3 O 1.83851 10.5475 1.4948 -1.2 -9.70334 -4.04798e+06 -2.01524e+06 -1.13093e+06 1.53828e+06 -1.59318e+06 -1.58194e+06
62 3 O 4.7611 10.8154 0.196716 -1.2 -3.7472 779010 -1.16455e+07 -3.18322e+07 -2.46359e+06 -1.72965e+06 -4.83973e+06
63 1 Mg 6.35203 9.49799 2.9896 1.2 -7.84437 3.87533e+06 -1.55446e+06 -184791 1.31188e+06 -1.21025e+06 2.4111e+06
64 3 O 4.71833 10.8154 2.79288 -1.2 -8.9997 -1.60435e+06 -3.91544e+06 -2.02708e+06 1.04597e+06 27569.9 -1.71748e+06
65 1 Mg -1.0438 9.53931 4.4844 1.2 -8.51522 -1.08939e+06 2.531e+06 3.03277e+06 -590775 -329886 239293
66 2 Si -2.8604 12.2234 4.4844 2.4 -32.5991 1.0809e+07 9.33639e+06 8.24149e+06 14328.6 -106537 723729
67 3 O -2.91391 10.6102 4.4844 -1.2 -9.61906 -3.67202e+06 -289820 -3.64765e+06 210127 -135937 -333017
68 3 O 0.7596 13.1975 4.4844 -1.2 -9.38416 -3.22434e+06 -2.88623e+06 -2.93246e+06 2.16856e+06 -485684 -332988
69 3 O -2.12001 12.9296 3.18632 -1.2 -9.17658 -2.70225e+06 -3.67235e+06 -469609 1.14677e+06 -204027 -1.94648e+06
70 3 O -2.16532 12.9296 5.78248 -1.2 -9.09884 -2.60319e+06 -3.95477e+06 -1.53004e+06 1.10391e+06 -29777.7 1.03947e+06
71 1 Mg 1.29891 11.8725 2.9896 1.2 -7.86661 4.00593e+06 -1.37025e+06 -485693 -1.18924e+06 -1.20367e+06 -1.27921e+06
72 1 Mg 4.10033 11.8312 4.4844 1.2 -8.53928 -988669 2.71544e+06 2.87737e+06 1.11335e+06 -281760 331574
73 2 Si 2.27333 13.896 4.4844 2.4 -32.6571 1.1016e+07 9.39406e+06 8.0364e+06 630347 -17094.5 810490
74 3 O 2.28634 15.5093 4.4844 -1.2 -9.47554 -3.95259e+06 -362303 -3.641e+06 482299 -199162 -416081
75 3 O -4.34533 12.922 4.4844 -1.2 -9.40856 -3.2335e+06 -2.83963e+06 -2.89069e+06 -1.50545e+06 -501713 -407980
76 3 O 2.98455 13.1899 3.18632 -1.2 -9.20197 -2.70837e+06 -3.78387e+06 -480939 -944385 -172064 885188
77 1 Mg 1.34779 11.8725 0 1.2 -5.38709 2.64075e+06 -2.62616e+06 -6.93142e+06 3.56655e+06 818807 2.10441e+06
78 3 O 2.93934 13.1899 5.78248 -1.2 -9.14033 -2.58581e+06 -4.07492e+06 -1.58438e+06 -873715 -138321 -1.46368e+06
79 1 Mg -1.50344 11.9138 1.4948 1.2 -8.22157 313109 1.91462e+06 4.2022e+06 1.56656e+06 -944970 897032
80 2 Si 0.326006 9.84894 1.4948 2.4 -33.9784 7.26649e+06 1.19514e+07 1.11181e+07 -604108 143497 3.28345e+06
81 3 O 0.317364 8.23571 1.4948 -1.2 -4.88158 -288965 -818094 -3.53035e+07 -125690 1.1613e+06 3.67109e+06
82 3 O 6.94307 10.823 1.4948 -1.2 -9.73282 -4.13886e+06 -1.85579e+06 -1.1113e+06 -985163 -1.51871e+06 554881
83 3 O -0.343122 10.5551 0.196716 -1.2 -3.8475 466036 -1.1101e+07 -3.18681e+07 2.45838e+06 -2.08204e+06 3.94606e+06
84 3 O -0.385966 10.5551 2.79288 -1.2 -9.04522 -1.6912e+06 -3.95391e+06 -1.97516e+06 -854547 95561.5 701008
85 1 Mg 6.49448 14.247 0 1.2 -5.38778 3.09261e+06 -1.84326e+06 -6.98013e+06 -2.96495e+06 246538 -1.03875e+06
86 1 Mg 3.74457 18.9547 1.4948 1.2 -8.53481 89246.4 1.94784e+06 4.59384e+06 -1.12831e+06 -991221 105365
87 2 Si 5.55495 16.2705 1.4948 2.4 -34.1974 7.76385e+06 1.16518e+07 1.13175e+07 521803 789224 -1.38474e+06
88 3 O 5.6115 17.8838 1.4948 -1.2 -5.08778 -1.58849e+06 -834140 -3.21172e+07 81682.8 -6.04242e+06 -4.53626e+06
89 3 O 1.93416 15.2965 1.4948 -1.2 -9.66465 -4.22564e+06 -1.7126e+06 -1.06823e+06 1.54339e+06 -1.37866e+06 -1.504e+06
90 3 O 4.85636 15.5644 0.196716 -1.2 -3.71513 687886 -1.33007e+07 -3.0304e+07 -3.02742e+06 -5.11934e+06 -4.19841e+06
91 1 Mg 6.44662 14.247 2.9896 1.2 -7.90455 4.08112e+06 -1.41737e+06 -432227 1.30053e+06 -1.18301e+06 2.45741e+06
92 3 O 4.81537 15.5644 2.79288 -1.2 -8.88023 -1.80943e+06 -3.9498e+06 -2.01115e+06 1.07983e+06 -29799.4 -1.73139e+06
93 1 Mg -0.948271 14.2883 4.4844 1.2 -8.62796 -1.01418e+06 2.7314e+06 2.92997e+06 -552132 -350595 395152
94 2 Si -2.75928 16.9724 4.4844 2.4 -33.0548 1.15765e+07 9.0547e+06 8.4941e+06 29787.2 -42818.2 651113
95 3 O -2.81617 15.3592 4.4844 -1.2 -9.45335 -3.8782e+06 -339013 -3.65305e+06 259079 -174282 -418432
96 3 O 0.862762 17.9465 4.4844 -1.2 -9.10862 -3.576e+06 -2.77007e+06 -3.14116e+06 2.14773e+06 -492696 -314884
97 3 O -2.0185 17.6786 3.18632 -1.2 -8.98132 -2.99647e+06 -3.52981e+06 -646563 1.13447e+06 -155602 -1.86671e+06
98 3 O -2.06164 17.6786 5.78248 -1.2 -8.7534 -3.14654e+06 -3.75818e+06 -1.85597e+06 1.02908e+06 -61358.7 1.20938e+06
99 1 Mg 1.39817 16.6215 2.9896 1.2 -8.01176 4.31072e+06 -1.44185e+06 -488433 -1.1688e+06 -1.22583e+06 -1.22146e+06
100 1 Mg 4.20062 16.5802 4.4844 1.2 -8.73561 -605479 2.61063e+06 2.91474e+06 1.10288e+06 -294958 431027
101 2 Si 2.37796 18.645 4.4844 2.4 -33.2349 1.1789e+07 9.0908e+06 8.49069e+06 632615 -152668 656305
102 3 O 2.39434 20.2583 4.4844 -1.2 -9.16086 -4.31736e+06 -228406 -3.92286e+06 512368 -93878.2 -225860
103 3 O -4.24274 17.671 4.4844 -1.2 -9.17919 -3.71638e+06 -2.62947e+06 -2.98222e+06 -1.39888e+06 -486951 -324462
104 3 O 3.08659 17.9389 3.18632 -1.2 -9.00112 -3.00129e+06 -3.64296e+06 -691247 -912790 -51810.6 915965
105 1 Mg 1.44478 16.6215 0 1.2 -5.57662 4.38948e+06 225316 -6.78532e+06 1.38683e+06 -44588.3 1.3251e+06
106 3 O 3.0436 17.9389 5.78248 -1.2 -8.78957 -3.11006e+06 -3.89695e+06 -1.77404e+06 -802262 -64578.1 -1.38974e+06
107 1 Mg -1.40524 16.6628 1.4948 1.2 -8.40549 296706 1.96623e+06 4.41404e+06 1.7029e+06 -968725 800044
108 2 Si 0.420358 14.5979 1.4948 2.4 -34.0994 7.51568e+06 1.19635e+07 1.10348e+07 -131958 564868 3.43202e+06
109 3 O 0.408732 12.9847 1.4948 -1.2 -4.89457 -392418 -1.06205e+06 -3.47603e+07 225409 -2.5672e+06 3.77661e+06
110 3 O 7.03923 15.572 1.4948 -1.2 -9.6903 -4.33675e+06 -1.55319e+06 -1.04282e+06 -953844 -1.30515e+06 557430
111 3 O -0.248332 15.3041 0.196716 -1.2 -3.82178 371391 -1.28473e+07 -3.03231e+07 3.24768e+06 -5.42289e+06 3.5419e+06
112 3 O -0.289436 15.3041 2.79288 -1.2 -8.92409 -1.79346e+06 -4.06087e+06 -2.00239e+06 -863241 57930 621013
113 1 Mg 6.59566 18.996 0 1.2 -5.61766 4.67252e+06 575243 -6.56701e+06 -904825 -702361 -560010
114 1 Mg 3.85574 23.7037 1.4948 1.2 -8.76605 53273.8 2.02868e+06 4.77961e+06 -1.17653e+06 -941522 -90649
115 2 Si 5.66125 21.0195 1.4948 2.4 -34.4275 8.76089e+06 1.09008e+07 1.15021e+07 177838 1.15041e+06 -1.83796e+06
116 3 O 5.72074 22.6328 1.4948 -1.2 -5.53716 -3.52407e+06 -594829 -2.73603e+07 -219589 -8.47482e+06 -3.85753e+06
117 3 O 2.03867 20.0455 1.4948 -1.2 -9.53184 -4.46809e+06 -1.26666e+06 -1.28193e+06 1.5736e+06 -1.15398e+06 -1.29706e+06
118 3 O 4.96004 20.3134 0.196716 -1.2 -3.91901 -254885 -1.45308e+07 -2.66184e+07 -3.18668e+06 -7.90045e+06 -3.05388e+06
119 1 Mg 6.55057 18.996 2.9896 1.2 -8.07872 4.53601e+06 -1.61813e+06 -406725 1.29528e+06 -1.20129e+06 2.27771e+06
120 3 O 4.92172 20.3134 2.79288 -1.2 -8.67836 -2.14547e+06 -3.80848e+06 -2.17675e+06 1.09888e+06 -31797.7 -1.50741e+06
121 1 Mg -0.84282 19.0373 4.4844 1.2 -8.91092 -624900 2.5686e+06 3.14996e+06 -445580 -226930 219643
122 2 Si -2.64823 21.7214 4.4844 2.4 -33.4587 1.25912e+07 8.95929e+06 8.2182e+06 -40968.7 -12802 90767.8
123 3 O -2.70847 20.1082 4.4844 -1.2 -9.22229 -4.41898e+06 -187085 -3.62403e+06 311816 -203072 -136985
124 3 O 0.97581 22.6955 4.4844 -1.2 -8.8533 -3.8782e+06 -2.72569e+06 -3.2976e+06 2.22702e+06 -548574 84990.7
125 3 O -1.9076 22.4276 3.18632 -1.2 -8.78679 -3.31985e+06 -3.46899e+06 -737220 1.18054e+06 -111312 -1.61356e+06
126 3 O -1.9475 22.4276 5.78248 -1.2 -8.59112 -3.74466e+06 -3.8494e+06 -1.23828e+06 1.22544e+06 -189599 1.52269e+06
127 1 Mg 1.50678 21.3705 2.9896 1.2 -8.21589 4.66762e+06 -1.60355e+06 -356568 -1.15484e+06 -1.24006e+06 -1.45146e+06
128 1 Mg 4.31086 21.3292 4.4844 1.2 -8.9974 -195902 2.51686e+06 3.02057e+06 1.15606e+06 -411687 169925
129 2 Si 2.49243 23.394 4.4844 2.4 -33.6776 1.24104e+07 9.013e+06 8.66125e+06 796172 -213360 -206137
130 3 O 2.51204 25.0073 4.4844 -1.2 -9.03925 -4.63895e+06 -325518 -3.69335e+06 493561 -108471 181219
131 3 O -4.13026 22.42 4.4844 -1.2 -8.97786 -4.14439e+06 -2.62457e+06 -2.8966e+06 -1.39714e+06 -378656 -116265
132 3 O 3.19799 22.6879 3.18632 -1.2 -8.79424 -3.26781e+06 -3.56436e+06 -891370 -942157 72490.7 1.21894e+06
133 1 Mg 1.5501 21.3705 0 1.2 -5.76567 5.47246e+06 1.59597e+06 -6.158e+06 -67592.5 -939342 704774
134 3 O 3.1583 22.6879 5.78248 -1.2 -8.43873 -3.53139e+06 -3.84656e+06 -2.08837e+06 -1.00191e+06 99357.8 -1.07003e+06
135 1 Mg -1.29822 21.4118 1.4948 1.2 -8.64506 311449 1.97368e+06 4.67131e+06 1.80646e+06 -910308 512766
136 2 Si 0.523568 19.3469 1.4948 2.4 -34.3632 8.27679e+06 1.12522e+07 1.1436e+07 316641 1.04173e+06 3.27715e+06
137 3 O 0.508934 17.7337 1.4948 -1.2 -5.07945 -1.59621e+06 -833226 -3.22583e+07 664866 -6.09309e+06 3.65764e+06
138 3 O 7.14425 20.321 1.4948 -1.2 -9.56722 -4.62604e+06 -1.12065e+06 -1.19235e+06 -938656 -1.06688e+06 734404
139 3 O -0.145107 20.0531 0.196716 -1.2 -4.02117 -568909 -1.42102e+07 -2.66645e+07 3.68326e+06 -8.2381e+06 2.75419e+06
140 3 O -0.183601 20.0531 2.79288 -1.2 -8.71246 -2.07391e+06 -3.92514e+06 -2.24499e+06 -864774 -58113.1 779238
141 1 Mg 6.70502 23.745 0 1.2 -5.85056 5.39633e+06 1.72451e+06 -5.68324e+06 408520 -1.52586e+06 -409724
142 1 Mg 3.97493 28.4527 1.4948 1.2 -8.95043 -117270 2.23616e+06 4.80546e+06 -1.2145e+06 -763680 -102975
143 2 Si 5.77602 25.7685 1.4948 2.4 -34.5605 9.77474e+06 1.02441e+07 1.14454e+07 -104137 1.51791e+06 -2.12994e+06
144 3 O 5.83821 27.3818 1.4948 -1.2 -6.2179 -5.41924e+06 -450098 -2.12835e+07 -340526 -9.29338e+06 -3.12671e+06
145 3 O 2.15175 24.7945 1.4948 -1.2 -9.41051 -4.6722e+06 -1.00501e+06 -1.39964e+06 1.61012e+06 -930648 -999429
146 3 O 5.07184 25.0624 0.196716 -1.2 -4.41223 -1.72965e+06 -1.50819e+07 -2.11813e+07 -2.78301e+06 -9.40178e+06 -1.58148e+06
147 1 Mg 6.66374 23.745 2.9896 1.2 -8.22907 4.88577e+06 -1.66215e+06 -468701 1.31443e+06 -1.25673e+06 2.06007e+06
148 3 O 5.03707 25.0624 2.79288 -1.2 -8.52745 -2.37447e+06 -3.82385e+06 -2.21404e+06 1.06132e+06 -140309 -1.27128e+06
149 1 Mg -0.727559 23.7863 4.4844 1.2 -9.09412 -331868 2.62515e+06 3.08542e+06 -584437 -140268 -48597.9
150 2 Si -2.5277 26.4704 4.4844 2.4 -33.7881 1.27698e+07 9.15549e+06 8.37584e+06 13939.1 -192397 -23875.8
151 3 O -2.59107 24.8572 4.4844 -1.2 -9.04926 -4.63755e+06 -268093 -3.60436e+06 383552 -93268.7 -32902.3
152 3 O 1.09817 27.4445 4.4844 -1.2 -8.79795 -4.20106e+06 -2.86401e+06 -2.92731e+06 2.25199e+06 -360976 116608
153 3 O -1.78784 27.1766 3.18632 -1.2 -8.64292 -3.42101e+06 -3.52412e+06 -867243 1.1855e+06 39948 -1.51138e+06
154 3 O -1.82343 27.1766 5.78248 -1.2 -8.39147 -3.73096e+06 -3.99319e+06 -1.38575e+06 1.18471e+06 18784.1 1.4463e+06
155 1 Mg 1.62435 26.1195 2.9896 1.2 -8.31448 5.01015e+06 -1.54868e+06 -592924 -1.1566e+06 -1.31463e+06 -1.63291e+06
156 1 Mg 4.43064 26.0782 4.4844 1.2 -9.12216 -28919 2.65139e+06 2.92027e+06 1.27374e+06 -175069 -34061.2
157 2 Si 2.61607 28.143 4.4844 2.4 -33.7811 1.30167e+07 9.23703e+06 7.99422e+06 805604 -76085 -80896.7
158 3 O 2.63853 29.7563 4.4844 -1.2 -8.95869 -4.85839e+06 -291346 -3.642e+06 507614 -150495 80106.6
159 3 O -4.00841 27.169 4.4844 -1.2 -8.82746 -4.22558e+06 -2.73342e+06 -2.9382e+06 -1.39114e+06 -447738 -3186.54
160 3 O 3.3182 27.4369 3.18632 -1.2 -8.68609 -3.46145e+06 -3.66876e+06 -841454 -922726 76300.6 1.30374e+06
161 1 Mg 1.66335 26.1195 0 1.2 -5.97447 5.52653e+06 2.10403e+06 -5.16639e+06 -888561 -1.55398e+06 343356
162 3 O 3.28288 27.4369 5.78248 -1.2 -8.49102 -3.77702e+06 -4.12425e+06 -1.31613e+06 -912955 -254425 -1.11324e+06
163 1 Mg -1.18278 26.1608 1.4948 1.2 -8.85726 203341 2.12079e+06 4.78002e+06 1.87292e+06 -839425 269152
164 2 Si 0.635424 24.0959 1.4948 2.4 -34.547 9.27771e+06 1.05937e+07 1.14554e+07 733581 1.41509e+06 2.7609e+06
165 3 O 0.617906 22.4827 1.4948 -1.2 -5.52554 -3.5222e+06 -585268 -2.75247e+07 1.01401e+06 -8.57287e+06 3.4719e+06
166 3 O 7.25781 25.07 1.4948 -1.2 -9.4448 -4.80435e+06 -871678 -1.33968e+06 -929506 -828228 915718
167 3 O -0.0337363 24.8021 0.196716 -1.2 -4.50352 -2.02623e+06 -1.50495e+07 -2.11825e+07 3.5014e+06 -9.66552e+06 1.71463e+06
168 3 O -0.0687235 24.8021 2.79288 -1.2 -8.56663 -2.33362e+06 -3.95598e+06 -2.24064e+06 -801703 -92352.6 993437
169 1 Mg 6.82195 28.494 0 1.2 -6.0762 5.09865e+06 2.17533e+06 -4.59535e+06 1.13904e+06 -1.84517e+06 -408756
170 1 Mg 4.10106 33.2017 1.4948 1.2 -9.07019 -433182 2.49e+06 4.71891e+06 -1.20905e+06 -518677 -216413
171 2 Si 5.89839 30.5175 1.4948 2.4 -34.5452 1.07049e+07 9.66017e+06 1.11579e+07 -348659 1.69773e+06 -2.19496e+06
172 3 O 5.96289 32.1308 1.4948 -1.2 -7.00964 -6.62998e+06 -390936 -1.5208e+07 -277554 -8.45929e+06 -2.34761e+06
173 3 O 2.27266 29.5435 1.4948 -1.2 -9.32519 -4.77339e+06 -906788 -1.48541e+06 1.64345e+06 -718796 -903436
174 3 O 5.19102 29.8114 0.196716 -1.2 -5.16723 -3.19906e+06 -1.46689e+07 -1.5113e+07 -1.93066e+06 -9.28459e+06 -169386
175 1 Mg 6.78546 28.494 2.9896 1.2 -8.33332 5.05858e+06 -1.63076e+06 -500385 1.30681e+06 -1.29324e+06 1.94552e+06
176 3 O 5.16061 29.8114 2.79288 -1.2 -8.43509 -2.53374e+06 -3.86394e+06 -2.20067e+06 1.10967e+06 -249922 -1.18164e+06
177 1 Mg -0.603205 28.5353 4.4844 1.2 -9.21374 -207148 2.65371e+06 3.11828e+06 -502176 -298557 -67524.5
178 2 Si -2.39877 31.2194 4.4844 2.4 -33.992 1.29405e+07 9.2328e+06 8.46459e+06 -49191.1 -328531 -279169
179 3 O -2.46483 29.6062 4.4844 -1.2 -8.91504 -4.69944e+06 -330591 -3.67337e+06 430057 -54631.2 85587
180 3 O 1.22864 32.1935 4.4844 -1.2 -8.75198 -4.41251e+06 -2.8534e+06 -2.80688e+06 2.21621e+06 -418235 218084
181 3 O -1.66032 31.9256 3.18632 -1.2 -8.56392 -3.49202e+06 -3.57264e+06 -949467 1.17241e+06 158005 -1.34185e+06
182 3 O -1.69072 31.9256 5.78248 -1.2 -8.29158 -3.84715e+06 -4.004e+06 -1.43971e+06 1.25693e+06 262461 1.59817e+06
183 1 Mg 1.7499 30.8685 2.9896 1.2 -8.3732 5.24217e+06 -1.54737e+06 -725589 -1.11121e+06 -1.37044e+06 -1.67443e+06
184 1 Mg 4.55894 30.8272 4.4844 1.2 -9.22456 59841.6 2.66316e+06 2.98452e+06 1.23213e+06 -120254 -45477.8
185 2 Si 2.7476 32.892 4.4844 2.4 -33.8974 1.30579e+07 9.27616e+06 8.09807e+06 824555 139255 -273424
186 3 O 2.77235 34.5053 4.4844 -1.2 -8.92805 -4.78377e+06 -339227 -3.71749e+06 577203 -221549 203043
187 3 O -3.87837 31.918 4.4844 -1.2 -8.73984 -4.31805e+06 -2.73967e+06 -2.97662e+06 -1.29275e+06 -355722 78968.4
188 3 O 3.44611 32.1859 3.18632 -1.2 -8.60705 -3.47807e+06 -3.71548e+06 -998674 -890610 108398 1.39211e+06
189 1 Mg 1.7837 30.8685 0 1.2 -6.15957 4.67872e+06 2.31518e+06 -4.29384e+06 -1.33153e+06 -1.5368e+06 352038
190 3 O 3.41602 32.1859 5.78248 -1.2 -8.38306 -3.71231e+06 -4.13496e+06 -1.39518e+06 -957333 -330630 -1.04786e+06
191 1 Mg -1.05984 30.9098 1.4948 1.2 -9.00513 -11880 2.35061e+06 4.70053e+06 1.90152e+06 -652104 68448.3
192 2 Si 0.755243 28.8449 1.4948 2.4 -34.5777 1.03359e+07 9.97524e+06 1.11499e+07 1.14404e+06 1.57949e+06 2.4982e+06
193 3 O 0.735127 27.2317 1.4948 -1.2 -6.21549 -5.47818e+06 -436141 -2.13793e+07 1.17746e+06 -9.3169e+06 3.00192e+06
194 3 O 7.37914 29.819 1.4948 -1.2 -9.35545 -4.86041e+06 -789684 -1.47542e+06 -918329 -610027 1.02788e+06
195 3 O 0.0850649 29.5511 0.196716 -1.2 -5.23691 -3.45986e+06 -1.50035e+07 -1.50523e+07 2.69673e+06 -9.43676e+06 436122
196 3 O 0.0543974 29.5511 2.79288 -1.2 -8.4836 -2.56464e+06 -3.97614e+06 -2.17222e+06 -834436 -90184.8 1.02995e+06
197 1 Mg 6.94543 33.243 0 1.2 -6.26369 4.08674e+06 2.34363e+06 -3.77776e+06 1.57448e+06 -1.4268e+06 -840118
198 1 Mg 4.23267 37.9507 1.4948 1.2 -9.10448 -744569 2.72333e+06 4.43746e+06 -1.13498e+06 -214909 -350710
199 2 Si 6.02709 35.2665 1.4948 2.4 -34.382 1.14842e+07 9.08998e+06 1.07373e+07 -417337 1.59059e+06 -2.42176e+06
200 3 O 6.09339 36.8798 1.4948 -1.2 -7.77889 -6.91245e+06 -375899 -1.02009e+07 -148810 -6.59953e+06 -1.63042e+06
201 3 O 2.40018 34.2925 1.4948 -1.2 -9.27471 -4.7226e+06 -947739 -1.62802e+06 1.69476e+06 -535824 -690973
202 3 O 5.31645 34.5604 0.196716 -1.2 -6.04863 -4.25559e+06 -1.31413e+07 -9.73568e+06 -944917 -7.85072e+06 1.1994e+06
203 1 Mg 6.91449 33.243 2.9896 1.2 -8.36464 5.16616e+06 -1.5911e+06 -589120 1.29164e+06 -1.41967e+06 1.73784e+06
204 3 O 5.291 34.5604 2.79288 -1.2 -8.41993 -2.61253e+06 -3.89696e+06 -2.14751e+06 1.14226e+06 -269063 -960444
205 1 Mg -0.471101 33.2843 4.4844 1.2 -9.2275 -48621 2.67911e+06 2.94998e+06 -409995 -277085 -216660
206 2 Si -2.26307 35.9684 4.4844 2.4 -33.8748 1.29853e+07 9.34399e+06 8.12819e+06 158436 -398344 -636492
207 3 O -2.33122 34.3552 4.4844 -1.2 -8.91823 -4.75951e+06 -367505 -3.56075e+06 404317 75004.2 295927
208 3 O 1.36549 36.9425 4.4844 -1.2 -8.78829 -4.28706e+06 -2.94895e+06 -2.77256e+06 2.32501e+06 -433246 293170
209 3 O -1.52658 36.6746 3.18632 -1.2 -8.58213 -3.43216e+06 -3.68341e+06 -961796 1.11899e+06 177244 -1.17275e+06
210 3 O -1.55122 36.6746 5.78248 -1.2 -8.43338 -3.75343e+06 -3.99217e+06 -1.3266e+06 1.05872e+06 183223 1.73407e+06
211 1 Mg 1.882 35.6175 2.9896 1.2 -8.36818 5.24931e+06 -1.46948e+06 -808547 -1.12306e+06 -1.41614e+06 -1.81623e+06
212 1 Mg 4.69415 35.5762 4.4844 1.2 -9.23288 -48198.8 2.70618e+06 3.0656e+06 1.19479e+06 -158086 -258620
213 2 Si 2.88522 37.641 4.4844 2.4 -33.8205 1.27026e+07 9.42809e+06 8.18619e+06 595285 52311.7 -632621
214 3 O 2.91159 39.2543 4.4844 -1.2 -9.01395 -4.62041e+06 -430081 -3.64476e+06 706183 -40030.5 366037
215 3 O -3.74183 36.667 4.4844 -1.2 -8.81219 -4.32598e+06 -2.79879e+06 -2.78667e+06 -1.33292e+06 -187654 287963
216 3 O 3.58014 36.9349 3.18632 -1.2 -8.60913 -3.33815e+06 -3.81356e+06 -1.13804e+06 -827362 183212 1.5659e+06
217 1 Mg 1.90997 35.6175 0 1.2 -6.32331 3.48215e+06 2.27484e+06 -3.77325e+06 -1.66948e+06 -786472 550479
218 3 O 3.55582 36.9349 5.78248 -1.2 -8.3846 -3.45836e+06 -4.17871e+06 -1.61723e+06 -822217 -246848 -830288
219 1 Mg -0.93068 35.6588 1.4948 1.2 -9.07278 -296723 2.59168e+06 4.46062e+06 1.86885e+06 -338004 -201840
220 2 Si 0.881882 33.5939 1.4948 2.4 -34.4585 1.1232e+07 9.4277e+06 1.06813e+07 1.42882e+06 1.6235e+06 1.89565e+06
221 3 O 0.859602 31.9807 1.4948 -1.2 -7.01491 -6.75183e+06 -376469 -1.52354e+07 1.14739e+06 -8.46648e+06 2.541e+06
222 3 O 7.507 34.568 1.4948 -1.2 -9.31357 -4.83488e+06 -845661 -1.5785e+06 -935435 -406162 1.27586e+06
223 3 O 0.210186 34.3001 0.196716 -1.2 -6.09509 -4.45741e+06 -1.3861e+07 -9.5878e+06 1.5256e+06 -7.92871e+06 -477868
224 3 O 0.184454 34.3001 2.79288 -1.2 -8.47989 -2.71591e+06 -4.03318e+06 -2.01576e+06 -862216 -164003 1.17435e+06
225 1 Mg 7.07415 37.992 0 1.2 -6.40367 2.9759e+06 2.26929e+06 -3.51759e+06 1.89775e+06 -415509 -1.57997e+06
226 1 Mg 4.36817 42.6997 1.4948 1.2 -9.06777 -929513 2.95875e+06 3.94627e+06 -993426 118955 -338577
227 2 Si 6.16058 40.0155 1.4948 2.4 -34.1099 1.20511e+07 8.64644e+06 1.01853e+07 -324733 1.32174e+06 -2.3866e+06
228 3 O 6.22815 41.6288 1.4948 -1.2 -8.42182 -6.42848e+06 -451155 -6.67153e+06 11808.2 -4.53187e+06 -1.21866e+06
229 3 O 2.53282 39.0415 1.4948 -1.2 -9.25807 -4.57656e+06 -1.10632e+06 -1.80207e+06 1.74506e+06 -353859 -559370
230 3 O 5.44674 39.3094 0.196716 -1.2 -6.9182 -4.77027e+06 -1.08225e+07 -5.70661e+06 -160083 -5.7766e+06 2.15317e+06
231 1 Mg 7.04922 37.992 2.9896 1.2 -8.3028 5.17135e+06 -1.48889e+06 -784711 1.33857e+06 -1.51705e+06 1.57404e+06
232 3 O 5.42658 39.3094 2.79288 -1.2 -8.50223 -2.69367e+06 -3.96059e+06 -1.90018e+06 1.11399e+06 -281066 -800071
233 1 Mg -0.333062 38.0333 4.4844 1.2 -9.15725 -236316 2.79417e+06 2.90632e+06 -390262 -108179 -217199
234 2 Si -2.12255 40.7174 4.4844 2.4 -33.6648 1.25153e+07 9.49273e+06 8.114e+06 269133 -14571.8 -600458
235 3 O -2.19212 39.1042 4.4844 -1.2 -9.0315 -4.63804e+06 -454639 -3.40622e+06 325889 -18614.4 296503
236 3 O 1.50676 41.6915 4.4844 -1.2 -8.88026 -3.98323e+06 -3.05255e+06 -2.83727e+06 2.37198e+06 -151281 390894
237 3 O -1.3884 41.4236 3.18632 -1.2 -8.63001 -3.16582e+06 -3.81577e+06 -1.12697e+06 1.13126e+06 106165 -1.13273e+06
238 3 O -1.40713 41.4236 5.78248 -1.2 -8.50377 -3.31503e+06 -3.99263e+06 -1.56271e+06 1.17398e+06 -29503.4 1.63581e+06
239 1 Mg 2.01892 40.3665 2.9896 1.2 -8.30406 5.10711e+06 -1.3427e+06 -882674 -1.14581e+06 -1.60395e+06 -1.90259e+06
240 1 Mg 4.83434 40.3252 4.4844 1.2 -9.07758 -60882.8 2.77269e+06 2.76304e+06 1.25652e+06 -138337 -452735
241 2 Si 3.02698 42.39 4.4844 2.4 -33.5056 1.23969e+07 9.70822e+06 7.70264e+06 693811 -431342 -780212
242 3 O 3.05433 44.0033 4.4844 -1.2 -9.16314 -4.49322e+06 -579050 -3.41093e+06 574656 130787 268068
243 3 O -3.60077 41.416 4.4844 -1.2 -8.96615 -4.23572e+06 -2.8962e+06 -2.54908e+06 -1.41022e+06 -329502 330834
244 3 O 3.71851 41.6839 3.18632 -1.2 -8.69356 -3.22513e+06 -3.97629e+06 -1.06867e+06 -829165 282284 1.61647e+06
245 1 Mg 2.04077 40.3665 0 1.2 -6.41648 2.48385e+06 2.17675e+06 -3.94877e+06 -1.85978e+06 443955 1.23191e+06
246 3 O 3.70011 41.6839 5.78248 -1.2 -8.66724 -3.43224e+06 -4.16251e+06 -1.15997e+06 -809046 79597.7 -681955
247 1 Mg -0.796865 40.4078 1.4948 1.2 -9.07156 -622811 2.82359e+06 4.1612e+06 1.75335e+06 40573.9 -301152
248 2 Si 1.01387 38.3429 1.4948 2.4 -34.2393 1.17686e+07 8.9008e+06 1.03556e+07 1.49811e+06 1.47271e+06 1.33451e+06
249 3 O 0.989947 36.7297 1.4948 -1.2 -7.77781 -7.0092e+06 -365309 -1.02679e+07 1.0443e+06 -6.64104e+06 2.23207e+06
250 3 O 7.63988 39.317 1.4948 -1.2 -9.30416 -4.70324e+06 -1.02475e+06 -1.71964e+06 -957452 -253042 1.4223e+06
251 3 O 0.340253 39.0491 0.196716 -1.2 -6.92313 -4.82575e+06 -1.17282e+07 -5.69161e+06 397324 -5.85518e+06 -1.19133e+06
252 3 O 0.319795 39.0491 2.79288 -1.2 -8.5368 -2.67583e+06 -4.10666e+06 -1.92898e+06 -840257 -213286 1.22958e+06
253 1 Mg 7.20667 42.741 0 1.2 -6.46537 2.13725e+06 2.19479e+06 -3.96928e+06 2.00228e+06 898267 -2.45295e+06
254 1 Mg 4.50613 47.4487 1.4948 1.2 -9.05521 -931581 2.91961e+06 3.76415e+06 -856367 441276 -236758
255 2 Si 6.29731 44.7645 1.4948 2.4 -33.8948 1.23512e+07 8.17901e+06 9.98469e+06 -238084 963411 -2.0149e+06
256 3 O 6.36567 46.3778 1.4948 -1.2 -8.83241 -5.61361e+06 -374626 -4.80462e+06 193647 -2.72771e+06 -1.06791e+06
257 3 O 2.669 43.7905 1.4948 -1.2 -9.24128 -4.42872e+06 -1.37429e+06 -1.98011e+06 1.72169e+06 -184240 -592343
258 3 O 5.58048 44.0584 0.196716 -1.2 -7.64271 -4.71097e+06 -8.26325e+06 -3.20008e+06 316954 -3.71508e+06 2.71234e+06
259 1 Mg 7.1879 42.741 2.9896 1.2 -8.22274 5.03417e+06 -1.33751e+06 -913933 1.30568e+06 -1.51107e+06 1.59015e+06
260 3 O 5.56564 44.0584 2.79288 -1.2 -8.59461 -2.77115e+06 -4.01386e+06 -1.65319e+06 1.12327e+06 -333667 -906446
261 1 Mg -0.19105 42.7823 4.4844 1.2 -9.08015 -596263 2.91684e+06 3.01588e+06 -449570 -93546.1 -300508
262 2 Si -1.97909 45.4664 4.4844 2.4 -33.5899 1.20389e+07 9.58574e+06 8.37564e+06 10078.9 -50517.3 -277675
263 3 O -2.04947 43.8532 4.4844 -1.2 -9.11169 -4.29173e+06 -617335 -3.4783e+06 466234 -98877.2 244024
264 3 O 1.65063 46.4405 4.4844 -1.2 -8.92664 -4.03095e+06 -2.98861e+06 -2.79648e+06 2.25977e+06 -67778.5 212059
265 3 O -1.24745 46.1726 3.18632 -1.2 -8.62939 -3.04034e+06 -3.78491e+06 -1.39162e+06 1.15823e+06 115061 -1.22034e+06
266 3 O -1.26044 46.1726 5.78248 -1.2 -8.51984 -3.15096e+06 -4.00113e+06 -1.62765e+06 1.29627e+06 184435 1.46712e+06
267 1 Mg 2.15896 45.1155 2.9896 1.2 -8.25306 5.03401e+06 -1.2692e+06 -949117 -1.0581e+06 -1.75212e+06 -1.79285e+06
268 1 Mg 4.97763 45.0742 4.4844 1.2 -8.95795 -100276 2.80317e+06 2.57597e+06 1.28381e+06 10515.6 -102914
269 2 Si 3.1711 47.139 4.4844 2.4 -33.5166 1.24641e+07 9.30689e+06 8.05343e+06 851917 -157292 -231217
270 3 O 3.19894 48.7523 4.4844 -1.2 -9.07273 -4.5648e+06 -235889 -3.82042e+06 613863 19040.1 172788