ITEM: TIMESTEP
79500
ITEM: NUMBER OF ATOMS
10500
ITEM: BOX BOUNDS xy xz yz pp pp pp
0.0000000000000000e+00 1.5297749999999999e+01 5.0992499999999996e+00
0.0000000000000000e+00 1.1872499999999999e+02 0.0000000000000000e+00
0.0000000000000000e+00 8.9688000000000002e+01 0.0000000000000000e+00
ITEM: ATOMS id type element xu yu zu q c_pe c_s[1] c_s[2] c_s[3] c_s[4] c_s[5] c_s[6]
1 1 Mg 6.2404 -6.37941e-06 0 1.2 -4.17939 7.44536e+06 -2.14611e+06 -5.86486e+06 -19123.4 2.65293e+06 -200491
2 1 Mg 3.46349 4.70768 1.4948 1.2 -8.40662 -463364 2.53985e+06 4.48851e+06 -948619 -632174 76885.7
3 2 Si 5.2885 2.02354 1.4948 2.4 -34.95 9.4644e+06 1.06445e+07 1.16795e+07 8.83194e+06 747281 -3.20109e+06
4 3 O 5.33628 3.63678 1.4948 -1.2 -4.83129 -630601 -1.30193e+06 -3.38254e+07 -315677 3.80564e+06 -3.84795e+06
5 3 O 1.67294 1.04952 1.4948 -1.2 -1.2338 -2.00702e+07 -7.91879e+07 -2.26077e+06 -2.41217e+07 -90839.2 -36253
6 3 O 4.59532 1.31737 0.196716 -1.2 -3.24536 -1.56404e+06 -6.40736e+06 -3.08075e+07 -6.01888e+06 6.2365e+06 -2.6368e+06
7 1 Mg 6.18956 -6.37941e-06 2.9896 1.2 -4.81485 1.29051e+06 -2.83869e+07 -2.72482e+06 -8.82506e+06 2.52297e+06 3.87219e+06
8 3 O 4.55118 1.31737 2.79288 -1.2 -7.62165 320974 -4.62181e+06 -3.23093e+06 -2.93419e+06 -3.46107e+06 -971468
9 1 Mg -1.20682 0.0413099 4.4844 1.2 8.95869 -3.0956e+07 -9.36137e+07 111994 -2.84671e+07 -1.36441e+06 -138441
10 2 Si -3.0337 2.72544 4.4844 2.4 -33.106 1.41888e+07 7.22172e+06 8.00098e+06 1.53108e+06 241773 -1.20042e+06
11 3 O -3.08099 1.11221 4.4844 -1.2 -9.62781 -5.96394e+06 70122.4 -2.3943e+06 -1.22336e+06 -320282 657516
12 3 O 0.582463 3.69946 4.4844 -1.2 -8.94859 -3.21126e+06 -5.51976e+06 -2.90938e+06 -675407 -135215 -43856.4
13 3 O -2.29524 3.43162 3.18632 -1.2 -9.10471 -4.13869e+06 -2.48248e+06 -630730 1.08288e+06 -853402 -804795
14 3 O -2.34216 3.43162 5.78248 -1.2 -8.8116 -4.00075e+06 -3.44748e+06 -1.32354e+06 754930 440978 1.6862e+06
15 1 Mg 1.12778 2.37449 2.9896 1.2 -7.51115 5.05005e+06 -1.7084e+06 -626949 -3.25281e+06 -4.24712e+06 -2.3287e+06
16 1 Mg 3.92855 2.33318 4.4844 1.2 -8.40806 -4.1327e+06 5.07524e+06 4.55428e+06 1.30134e+06 340829 366395
17 2 Si 2.09341 4.39804 4.4844 2.4 -32.5017 1.20979e+07 6.79996e+06 9.10144e+06 308498 -370165 605023
18 3 O 2.09991 6.01128 4.4844 -1.2 -9.34283 -4.12709e+06 97222.3 -4.15381e+06 500749 -158733 -26071.9
19 3 O -4.52137 3.42402 4.4844 -1.2 -9.16837 -2.92305e+06 -3.01147e+06 -3.48001e+06 -2.28573e+06 -905337 172242
20 3 O 2.80834 3.69187 3.18632 -1.2 -9.36701 -2.06377e+06 -2.77446e+06 -477427 463570 -459831 -484054
21 1 Mg 1.17857 2.37449 0 1.2 -4.92198 -918008 -1.51093e+07 -6.16928e+06 6.51486e+06 1.17039e+06 4.55878e+06
22 3 O 2.76143 3.69187 5.78248 -1.2 -9.29561 -2.9609e+06 -2.60653e+06 -922089 465196 212993 -126396
23 1 Mg -1.67381 2.41581 1.4948 1.2 -7.43716 1.32823e+06 -398463 4.25253e+06 1.37138e+06 -579643 938696
24 2 Si 0.16286 0.350945 1.4948 2.4 -24.1625 -8.77071e+06 1.19849e+07 1.17964e+07 1.5929e+06 2.76111e+06 1.10172e+06
25 3 O 0.15972 -1.26229 1.4948 -1.2 -4.99005 -1.03509e+07 -7.74656e+06 -2.91935e+07 -5.59332e+06 -8.49989e+06 -2.6679e+06
26 3 O 6.77654 1.32496 1.4948 -1.2 -10.5207 -5.43927e+06 1.96515e+06 -1.61442e+06 -644500 -679562 1.15103e+06
27 3 O -0.508028 1.05712 0.196716 -1.2 -9.76209 438639 -4.3915e+06 -939276 -558661 206078 -4.51824e+06
28 3 O -0.552171 1.05712 2.79288 -1.2 -6.92267 -5.121e+06 -4.45241e+06 -2.48221e+07 1.39659e+06 -6.72668e+06 -5.38402e+06
29 1 Mg 6.31713 4.74899 0 1.2 -4.80293 159601 -1.31369e+07 -5.87993e+06 -7.29565e+06 1.43608e+06 -3.58541e+06
30 1 Mg 3.54847 9.45668 1.4948 1.2 -8.36802 317092 1.57765e+06 4.58706e+06 -951221 -916492 -447809
31 2 Si 5.36879 6.77254 1.4948 2.4 -34.2617 7.26047e+06 1.17317e+07 1.18492e+07 1.66388e+06 111951 -2.03858e+06
32 3 O 5.41937 8.38578 1.4948 -1.2 -4.74335 -364314 -781613 -3.5357e+07 759836 1.12424e+06 -4.1395e+06
33 3 O 1.75158 5.79852 1.4948 -1.2 -9.53916 -3.91066e+06 -2.19025e+06 -1.62816e+06 1.96828e+06 -1.59807e+06 -1.31636e+06
34 3 O 4.67421 6.06637 0.196716 -1.2 -3.86302 285490 -9.91439e+06 -3.16622e+07 -2.00604e+06 1.29639e+06 -4.45121e+06
35 1 Mg 6.26654 4.74899 2.9896 1.2 -8.01854 4.12925e+06 -1.73482e+06 22962.5 1.76821e+06 -856223 1.86514e+06
36 3 O 4.63043 6.06637 2.79288 -1.2 -8.81962 -1.65001e+06 -3.84898e+06 -2.32592e+06 947870 -73418.9 -1.41144e+06
37 1 Mg -1.12976 4.79031 4.4844 1.2 -8.85205 -478880 2.76946e+06 2.76043e+06 -642244 -315709 -232799
38 2 Si -2.9517 7.47444 4.4844 2.4 -33.1068 1.19836e+07 8.76661e+06 8.4493e+06 18172.6 -108542 -309696
39 3 O -3.00198 5.86121 4.4844 -1.2 -9.35388 -4.28535e+06 -128804 -3.61927e+06 87690.8 -202724 156325
40 3 O 0.666315 8.44846 4.4844 -1.2 -9.10213 -3.62067e+06 -2.60347e+06 -3.26631e+06 2.1658e+06 -535925 308164
41 3 O -2.21213 8.18062 3.18632 -1.2 -9.0111 -3.13316e+06 -3.2753e+06 -695807 1.11863e+06 -294169 -1.30196e+06
42 3 O -2.25864 8.18062 5.78248 -1.2 -8.80258 -3.45588e+06 -3.67029e+06 -1.46551e+06 1.14767e+06 -67386.4 1.46191e+06
43 1 Mg 1.20893 7.12349 2.9896 1.2 -8.06787 4.19849e+06 -1.74795e+06 25184.3 -1.28104e+06 -1.29729e+06 -1.80456e+06
44 1 Mg 4.00982 7.08218 4.4844 1.2 -8.85088 -651776 2.45975e+06 3.29569e+06 1.0441e+06 -332064 -43944.4
45 2 Si 2.17861 9.14704 4.4844 2.4 -33.1878 1.16531e+07 8.96884e+06 8.6787e+06 576796 46359.6 -500983
46 3 O 2.18828 10.7603 4.4844 -1.2 -9.31219 -4.14965e+06 -279343 -3.79791e+06 465027 -227433 215914
47 3 O -4.43805 8.17302 4.4844 -1.2 -9.14302 -3.62605e+06 -2.57591e+06 -3.18754e+06 -1.57108e+06 -407520 99604.5
48 3 O 2.89193 8.44087 3.18632 -1.2 -9.00054 -2.91254e+06 -3.47422e+06 -884826 -936216 -241963 1.45572e+06
49 1 Mg 1.25915 7.12349 0 1.2 -5.2445 836326 -7.81216e+06 -6.06786e+06 5.88567e+06 1.39026e+06 2.58132e+06
50 3 O 2.84547 8.44087 5.78248 -1.2 -8.68582 -3.21372e+06 -3.93291e+06 -1.89889e+06 -953067 -244171 -827416
51 1 Mg -1.59284 7.16481 1.4948 1.2 -8.23836 823972 1.18611e+06 4.46304e+06 1.45803e+06 -913094 257319
52 2 Si 0.240329 5.09994 1.4948 2.4 -33.9381 8.08862e+06 1.05854e+07 1.16496e+07 -1.93793e+06 -1.05001e+06 1.86862e+06
53 3 O 0.234538 3.48671 1.4948 -1.2 -5.33745 -1.60254e+06 573622 -3.39548e+07 382355 5.19601e+06 4.00442e+06
54 3 O 6.85564 6.07396 1.4948 -1.2 -9.61931 -4.37546e+06 -1.65193e+06 -1.53484e+06 -1.3437e+06 -1.82272e+06 1.21117e+06
55 3 O -0.429565 5.80612 0.196716 -1.2 -4.1201 -517968 -8.54154e+06 -3.17763e+07 1.84697e+06 1.19673e+06 4.58399e+06
56 3 O -0.473377 5.80612 2.79288 -1.2 -8.92087 -2.18127e+06 -3.42301e+06 -2.16119e+06 -796131 271126 1.39503e+06
57 1 Mg 6.40169 9.49799 0 1.2 -5.25023 1.53942e+06 -6.6747e+06 -6.38823e+06 -5.49076e+06 971117 -2.52797e+06
58 1 Mg 3.64209 14.2057 1.4948 1.2 -8.53 388304 1.46622e+06 4.84586e+06 -1.02774e+06 -974150 -312402
59 2 Si 5.45748 11.5215 1.4948 2.4 -34.4032 7.79401e+06 1.1337e+07 1.19131e+07 902220 330377 -2.41202e+06
60 3 O 5.51101 13.1348 1.4948 -1.2 -4.69199 -679940 -618405 -3.51073e+07 464355 -2.53652e+06 -4.26103e+06
61 3 O 1.83851 10.5475 1.4948 -1.2 -9.52098 -4.29325e+06 -1.71057e+06 -1.48319e+06 1.53928e+06 -1.59866e+06 -950231
62 3 O 4.7611 10.8154 0.196716 -1.2 -3.61361 539319 -1.12293e+07 -3.22235e+07 -2.4697e+06 -1.76108e+06 -4.17581e+06
63 1 Mg 6.35203 9.49799 2.9896 1.2 -8.06404 4.26968e+06 -1.71283e+06 -68769.3 1.3256e+06 -1.21908e+06 1.83665e+06
64 3 O 4.71833 10.8154 2.79288 -1.2 -8.77467 -1.97554e+06 -3.69326e+06 -2.24139e+06 1.038e+06 29085.5 -1.13876e+06
65 1 Mg -1.0438 9.53931 4.4844 1.2 -8.81821 -548977 2.47607e+06 3.03238e+06 -621204 -300828 -256609
66 2 Si -2.8604 12.2234 4.4844 2.4 -33.1218 1.17884e+07 9.03046e+06 8.40385e+06 -9810.94 -194909 -236409
67 3 O -2.91391 10.6102 4.4844 -1.2 -9.32931 -4.17864e+06 -157987 -3.74891e+06 218034 -109041 175700
68 3 O 0.7596 13.1975 4.4844 -1.2 -9.09453 -3.59981e+06 -2.77774e+06 -3.142e+06 2.16132e+06 -522611 5038.09
69 3 O -2.12001 12.9296 3.18632 -1.2 -8.94122 -3.12664e+06 -3.37403e+06 -722376 1.14757e+06 -209451 -1.47156e+06
70 3 O -2.16532 12.9296 5.78248 -1.2 -8.86205 -3.2207e+06 -3.9347e+06 -1.33299e+06 1.08239e+06 14858.8 1.42818e+06
71 1 Mg 1.29891 11.8725 2.9896 1.2 -8.11241 4.35269e+06 -1.60949e+06 -199494 -1.1888e+06 -1.20285e+06 -1.80905e+06
72 1 Mg 4.10033 11.8312 4.4844 1.2 -8.81649 -534325 2.61841e+06 2.96264e+06 1.11692e+06 -256707 -85969.2
73 2 Si 2.27333 13.896 4.4844 2.4 -33.2129 1.18349e+07 8.95261e+06 8.54465e+06 603834 -43004 297175
74 3 O 2.28634 15.5093 4.4844 -1.2 -9.20508 -4.37323e+06 55955.6 -4.07206e+06 502218 -146302 -207245
75 3 O -4.34533 12.922 4.4844 -1.2 -9.15154 -3.64205e+06 -2.66441e+06 -3.07695e+06 -1.4761e+06 -443840 -21164.7
76 3 O 2.98455 13.1899 3.18632 -1.2 -8.95544 -3.07962e+06 -3.4752e+06 -818012 -947857 -163025 1.32142e+06
77 1 Mg 1.34779 11.8725 0 1.2 -5.55454 2.84829e+06 -3.11814e+06 -6.37869e+06 3.57369e+06 815707 1.4752e+06
78 3 O 2.93934 13.1899 5.78248 -1.2 -8.85172 -3.1356e+06 -4.06172e+06 -1.42254e+06 -906035 -247490 -1.33335e+06
79 1 Mg -1.50344 11.9138 1.4948 1.2 -8.41539 642618 1.51915e+06 4.57872e+06 1.55854e+06 -952424 304179
80 2 Si 0.326006 9.84894 1.4948 2.4 -34.3156 7.74363e+06 1.14038e+07 1.17288e+07 -618599 142483 2.0122e+06
81 3 O 0.317364 8.23571 1.4948 -1.2 -4.74694 -476425 -641912 -3.55084e+07 -117892 1.15717e+06 4.2922e+06
82 3 O 6.94307 10.823 1.4948 -1.2 -9.55819 -4.46256e+06 -1.5172e+06 -1.40657e+06 -984441 -1.51141e+06 1.181e+06
83 3 O -0.343122 10.5551 0.196716 -1.2 -3.71221 274109 -1.06928e+07 -3.23019e+07 2.46366e+06 -2.05138e+06 4.60155e+06
84 3 O -0.385966 10.5551 2.79288 -1.2 -8.81605 -2.05061e+06 -3.73787e+06 -2.20116e+06 -846179 82400 1.28514e+06
85 1 Mg 6.49448 14.247 0 1.2 -5.59064 3.43974e+06 -2.47226e+06 -6.37329e+06 -2.97852e+06 263867 -1.60227e+06
86 1 Mg 3.74457 18.9547 1.4948 1.2 -8.71032 352491 1.41723e+06 5.14237e+06 -1.12761e+06 -1.01188e+06 -178890
87 2 Si 5.55495 16.2705 1.4948 2.4 -34.6316 8.43974e+06 1.04366e+07 1.25525e+07 534603 798236 -2.13897e+06
88 3 O 5.6115 17.8838 1.4948 -1.2 -4.88838 -1.88786e+06 -239636 -3.27316e+07 78450.2 -6.05485e+06 -4.22637e+06
89 3 O 1.93416 15.2965 1.4948 -1.2 -9.44262 -4.56442e+06 -1.14016e+06 -1.65777e+06 1.53515e+06 -1.35996e+06 -1.0943e+06
90 3 O 4.85636 15.5644 0.196716 -1.2 -3.49159 359832 -1.26363e+07 -3.09991e+07 -3.04682e+06 -5.11808e+06 -3.73776e+06
91 1 Mg 6.44662 14.247 2.9896 1.2 -8.13323 4.47871e+06 -1.82304e+06 -57794.2 1.30272e+06 -1.2001e+06 2.06375e+06
92 3 O 4.81537 15.5644 2.79288 -1.2 -8.65316 -2.17145e+06 -3.43693e+06 -2.52656e+06 1.06481e+06 -18401.3 -1.38856e+06
93 1 Mg -0.948271 14.2883 4.4844 1.2 -8.88741 -562950 2.51004e+06 3.11583e+06 -537882 -257532 173720
94 2 Si -2.75928 16.9724 4.4844 2.4 -33.53 1.24654e+07 7.89245e+06 9.52919e+06 27879.1 -74018 375126
95 3 O -2.81617 15.3592 4.4844 -1.2 -9.21679 -4.36014e+06 43543.5 -3.93265e+06 243997 -138185 -273974
96 3 O 0.862762 17.9465 4.4844 -1.2 -8.88295 -3.88668e+06 -2.21952e+06 -3.73125e+06 2.1557e+06 -454359 -33929.1
97 3 O -2.0185 17.6786 3.18632 -1.2 -8.77659 -3.3391e+06 -2.95221e+06 -1.20777e+06 1.14537e+06 -176135 -1.59116e+06
98 3 O -2.06164 17.6786 5.78248 -1.2 -8.47313 -3.75883e+06 -3.03399e+06 -2.44348e+06 1.09477e+06 -54750.4 1.29038e+06
99 1 Mg 1.39817 16.6215 2.9896 1.2 -8.23895 4.65242e+06 -1.99278e+06 84817.5 -1.17442e+06 -1.24868e+06 -1.52719e+06
100 1 Mg 4.20062 16.5802 4.4844 1.2 -8.97589 -208910 2.09994e+06 3.41315e+06 1.13861e+06 -264146 246967
101 2 Si 2.37796 18.645 4.4844 2.4 -33.6012 1.24516e+07 7.94515e+06 9.56426e+06 657814 -182314 100363
102 3 O 2.39434 20.2583 4.4844 -1.2 -9.08044 -4.48725e+06 184841 -4.27483e+06 531491 -76265.6 137759
103 3 O -4.24274 17.671 4.4844 -1.2 -8.95245 -4.05834e+06 -2.01663e+06 -3.61174e+06 -1.42188e+06 -478147 -117818
104 3 O 3.08659 17.9389 3.18632 -1.2 -8.80576 -3.32398e+06 -3.07475e+06 -1.24661e+06 -922762 -37242.7 1.21709e+06
105 1 Mg 1.44478 16.6215 0 1.2 -5.79378 4.7596e+06 -442802 -6.13936e+06 1.40111e+06 -85186.1 989659
106 3 O 3.0436 17.9389 5.78248 -1.2 -8.55851 -3.66505e+06 -3.28465e+06 -2.16497e+06 -843688 -152440 -1.41225e+06
107 1 Mg -1.40524 16.6628 1.4948 1.2 -8.61722 655986 1.35521e+06 5.005e+06 1.68822e+06 -943019 459378
108 2 Si 0.420358 14.5979 1.4948 2.4 -34.5401 8.20149e+06 1.08805e+07 1.21381e+07 -144114 562189 2.55167e+06
109 3 O 0.408732 12.9847 1.4948 -1.2 -4.68345 -708061 -612837 -3.52327e+07 228632 -2.56488e+06 4.31199e+06
110 3 O 7.03923 15.572 1.4948 -1.2 -9.47312 -4.70025e+06 -963577 -1.61716e+06 -945673 -1.32228e+06 964102
111 3 O -0.248332 15.3041 0.196716 -1.2 -3.60785 3292.04 -1.21824e+07 -3.09634e+07 3.26778e+06 -5.42063e+06 3.96709e+06
112 3 O -0.289436 15.3041 2.79288 -1.2 -8.6889 -2.15903e+06 -3.5714e+06 -2.50255e+06 -849631 31272.4 951304
113 1 Mg 6.59566 18.996 0 1.2 -5.81907 4.96097e+06 22172.5 -5.97974e+06 -908804 -641727 -764036
114 1 Mg 3.85574 23.7037 1.4948 1.2 -8.80098 87600.5 1.88134e+06 4.94859e+06 -1.18678e+06 -956815 -71778.6
115 2 Si 5.66125 21.0195 1.4948 2.4 -34.6587 9.10307e+06 1.01841e+07 1.22469e+07 174093 1.20172e+06 -2.22246e+06
116 3 O 5.72074 22.6328 1.4948 -1.2 -5.47338 -3.62202e+06 -374788 -2.75839e+07 -212609 -8.49656e+06 -3.77594e+06
117 3 O 2.03867 20.0455 1.4948 -1.2 -9.38939 -4.70005e+06 -824858 -1.71931e+06 1.57752e+06 -1.11606e+06 -1.0488e+06
118 3 O 4.96004 20.3134 0.196716 -1.2 -3.74826 -470552 -1.40999e+07 -2.71076e+07 -3.17711e+06 -7.91389e+06 -2.88758e+06
119 1 Mg 6.55057 18.996 2.9896 1.2 -8.24306 4.79816e+06 -2.15019e+06 126532 1.30541e+06 -1.18352e+06 1.9744e+06
120 3 O 4.92172 20.3134 2.79288 -1.2 -8.56659 -2.32712e+06 -3.39901e+06 -2.5808e+06 1.09969e+06 -43171.1 -1.21781e+06
121 1 Mg -0.84282 19.0373 4.4844 1.2 -9.08678 -372562 2.07605e+06 3.67236e+06 -469756 -213037 -79498.7
122 2 Si -2.64823 21.7214 4.4844 2.4 -33.4861 1.25843e+07 8.48121e+06 8.75564e+06 28988.8 193827 -350570
123 3 O -2.70847 20.1082 4.4844 -1.2 -9.11112 -4.58959e+06 220194 -4.02377e+06 264179 -232392 186551
124 3 O 0.97581 22.6955 4.4844 -1.2 -8.91096 -3.79317e+06 -2.61853e+06 -3.38131e+06 2.17506e+06 -466295 195311
125 3 O -1.9076 22.4276 3.18632 -1.2 -8.76798 -3.32946e+06 -3.26593e+06 -953328 1.17004e+06 -148475 -1.45493e+06
126 3 O -1.9475 22.4276 5.78248 -1.2 -8.61346 -3.42759e+06 -3.60633e+06 -1.95043e+06 1.1653e+06 -424158 1.6033e+06
127 1 Mg 1.50678 21.3705 2.9896 1.2 -8.27794 4.77315e+06 -1.88554e+06 -80630 -1.15696e+06 -1.27977e+06 -1.67773e+06
128 1 Mg 4.31086 21.3292 4.4844 1.2 -9.00523 -147552 2.29114e+06 3.21066e+06 1.13605e+06 -414759 -142323
129 2 Si 2.49243 23.394 4.4844 2.4 -33.4932 1.20779e+07 8.9687e+06 8.74223e+06 861164 -238262 -120069
130 3 O 2.51204 25.0073 4.4844 -1.2 -9.14945 -4.341e+06 -302609 -3.84001e+06 459487 -144045 -88076
131 3 O -4.13026 22.42 4.4844 -1.2 -9.03291 -4.14101e+06 -2.47113e+06 -2.94279e+06 -1.36491e+06 -437440 76977.3
132 3 O 3.19799 22.6879 3.18632 -1.2 -8.79548 -3.26427e+06 -3.42569e+06 -1.02825e+06 -932929 95590.4 1.30996e+06
133 1 Mg 1.5501 21.3705 0 1.2 -5.90387 5.70478e+06 1.23572e+06 -5.80866e+06 -76094.9 -996751 574794
134 3 O 3.1583 22.6879 5.78248 -1.2 -8.62243 -3.2037e+06 -3.91662e+06 -2.0079e+06 -971996 79028.4 -1.09166e+06
135 1 Mg -1.29822 21.4118 1.4948 1.2 -8.74546 486784 1.64392e+06 4.98657e+06 1.81531e+06 -896781 338912
136 2 Si 0.523568 19.3469 1.4948 2.4 -34.685 8.83183e+06 1.02563e+07 1.23924e+07 314005 998986 2.73867e+06
137 3 O 0.508934 17.7337 1.4948 -1.2 -4.88194 -1.92842e+06 -246095 -3.28292e+07 668564 -6.08037e+06 3.96861e+06
138 3 O 7.14425 20.321 1.4948 -1.2 -9.43064 -4.84344e+06 -695212 -1.61855e+06 -944310 -1.10561e+06 958606
139 3 O -0.145107 20.0531 0.196716 -1.2 -3.86129 -883884 -1.37475e+07 -2.70687e+07 3.67418e+06 -8.22487e+06 2.94943e+06
140 3 O -0.183601 20.0531 2.79288 -1.2 -8.58725 -2.26742e+06 -3.50246e+06 -2.6713e+06 -859383 -44627.9 1.05863e+06
141 1 Mg 6.70502 23.745 0 1.2 -5.9285 5.52717e+06 1.54428e+06 -5.50894e+06 415398 -1.48574e+06 -382078
142 1 Mg 3.97493 28.4527 1.4948 1.2 -8.92345 -178893 2.03272e+06 5.02733e+06 -1.23146e+06 -811758 68029.9
143 2 Si 5.77602 25.7685 1.4948 2.4 -34.5412 9.7631e+06 1.00324e+07 1.1638e+07 -120754 1.50646e+06 -1.85182e+06
144 3 O 5.83821 27.3818 1.4948 -1.2 -6.24522 -5.39751e+06 -297970 -2.14139e+07 -341099 -9.28314e+06 -3.29918e+06
145 3 O 2.15175 24.7945 1.4948 -1.2 -9.39971 -4.66434e+06 -898643 -1.53118e+06 1.6083e+06 -913595 -1.10045e+06
146 3 O 5.07184 25.0624 0.196716 -1.2 -4.36851 -1.77196e+06 -1.49796e+07 -2.13111e+07 -2.78066e+06 -9.40808e+06 -1.68281e+06
147 1 Mg 6.66374 23.745 2.9896 1.2 -8.20102 4.87644e+06 -1.77048e+06 -395988 1.28962e+06 -1.23008e+06 2.03868e+06
148 3 O 5.03707 25.0624 2.79288 -1.2 -8.57322 -2.30846e+06 -3.73246e+06 -2.29701e+06 1.08831e+06 -103079 -1.41913e+06
149 1 Mg -0.727559 23.7863 4.4844 1.2 -9.00683 -543969 2.56152e+06 3.22262e+06 -526735 -152371 -136079
150 2 Si -2.5277 26.4704 4.4844 2.4 -33.4787 1.25111e+07 8.88886e+06 8.4047e+06 4958.85 -232248 680643
151 3 O -2.59107 24.8572 4.4844 -1.2 -9.19603 -4.47666e+06 -261755 -3.52287e+06 443066 -151949 -133921
152 3 O 1.09817 27.4445 4.4844 -1.2 -8.89271 -3.93514e+06 -2.71408e+06 -3.19849e+06 2.27289e+06 -503020 -350642
153 3 O -1.78784 27.1766 3.18632 -1.2 -8.72618 -3.35227e+06 -3.3602e+06 -968607 1.15202e+06 6992.04 -1.79921e+06
154 3 O -1.82343 27.1766 5.78248 -1.2 -8.61522 -3.55992e+06 -3.72991e+06 -1.49395e+06 1.14166e+06 137345 852142
155 1 Mg 1.62435 26.1195 2.9896 1.2 -8.25871 4.86282e+06 -1.63368e+06 -450017 -1.14859e+06 -1.28422e+06 -1.38727e+06
156 1 Mg 4.43064 26.0782 4.4844 1.2 -9.00408 -277725 2.50224e+06 3.12939e+06 1.23994e+06 -297396 321360
157 2 Si 2.61607 28.143 4.4844 2.4 -33.6495 1.23816e+07 8.68886e+06 8.96516e+06 574733 -126438 751673
158 3 O 2.63853 29.7563 4.4844 -1.2 -8.99478 -4.5868e+06 143381 -4.28896e+06 653186 -4513.94 -263328
159 3 O -4.00841 27.169 4.4844 -1.2 -8.96321 -4.13344e+06 -2.41989e+06 -3.13397e+06 -1.40742e+06 -358487 -384876
160 3 O 3.3182 27.4369 3.18632 -1.2 -8.74603 -3.28818e+06 -3.46657e+06 -1.12266e+06 -880599 124543 1.00995e+06
161 1 Mg 1.66335 26.1195 0 1.2 -5.99983 5.55391e+06 2.0288e+06 -5.07791e+06 -887556 -1.58456e+06 481285
162 3 O 3.28288 27.4369 5.78248 -1.2 -8.57633 -3.3038e+06 -3.86567e+06 -1.87582e+06 -761471 -188866 -1.58208e+06
163 1 Mg -1.18278 26.1608 1.4948 1.2 -8.84028 204783 2.02327e+06 4.84891e+06 1.8844e+06 -814139 425289
164 2 Si 0.635424 24.0959 1.4948 2.4 -34.5946 9.35525e+06 1.03223e+07 1.17256e+07 756330 1.39367e+06 2.82843e+06
165 3 O 0.617906 22.4827 1.4948 -1.2 -5.45853 -3.63687e+06 -347191 -2.77547e+07 1.00763e+06 -8.54803e+06 3.57048e+06
166 3 O 7.25781 25.07 1.4948 -1.2 -9.44474 -4.83186e+06 -763999 -1.41947e+06 -927676 -847801 823506
167 3 O -0.0337363 24.8021 0.196716 -1.2 -4.4599 -2.12402e+06 -1.49156e+07 -2.12884e+07 3.4984e+06 -9.65556e+06 1.62622e+06
168 3 O -0.0687235 24.8021 2.79288 -1.2 -8.6059 -2.26814e+06 -3.88501e+06 -2.31347e+06 -832639 -110959 905328
169 1 Mg 6.82195 28.494 0 1.2 -6.07345 5.11016e+06 2.05204e+06 -4.4879e+06 1.15036e+06 -1.80022e+06 -321476
170 1 Mg 4.10106 33.2017 1.4948 1.2 -9.02559 -436308 2.06213e+06 5.07847e+06 -1.19253e+06 -586436 -148197
171 2 Si 5.89839 30.5175 1.4948 2.4 -34.4635 1.07046e+07 9.01682e+06 1.16706e+07 -301133 1.69781e+06 -1.96707e+06
172 3 O 5.96289 32.1308 1.4948 -1.2 -7.05494 -6.6378e+06 -22.9928 -1.55194e+07 -308139 -8.47417e+06 -2.43365e+06
173 3 O 2.27266 29.5435 1.4948 -1.2 -9.34915 -4.6815e+06 -649860 -1.79582e+06 1.67338e+06 -674655 -1.06894e+06
174 3 O 5.19102 29.8114 0.196716 -1.2 -5.17491 -3.18493e+06 -1.44576e+07 -1.53261e+07 -1.94044e+06 -9.27769e+06 -240566
175 1 Mg 6.78546 28.494 2.9896 1.2 -8.25504 5.03524e+06 -1.93136e+06 -301930 1.34621e+06 -1.29095e+06 2.19238e+06
176 3 O 5.16061 29.8114 2.79288 -1.2 -8.50432 -2.51972e+06 -3.4839e+06 -2.48648e+06 1.10469e+06 -182471 -1.36123e+06
177 1 Mg -0.603205 28.5353 4.4844 1.2 -9.11602 -347842 2.34838e+06 3.40724e+06 -425468 -168176 421031
178 2 Si -2.39877 31.2194 4.4844 2.4 -33.7614 1.28566e+07 8.15482e+06 9.2495e+06 198587 158062 275849
179 3 O -2.46483 29.6062 4.4844 -1.2 -9.03226 -4.67252e+06 150195 -4.00942e+06 283494 -168968 -238266
180 3 O 1.22864 32.1935 4.4844 -1.2 -8.74781 -4.02875e+06 -2.33794e+06 -3.70651e+06 2.35717e+06 -317514 31797.3
181 3 O -1.66032 31.9256 3.18632 -1.2 -8.62519 -3.36159e+06 -3.11353e+06 -1.44346e+06 1.14751e+06 -15426.7 -1.55433e+06
182 3 O -1.69072 31.9256 5.78248 -1.2 -8.38873 -3.63581e+06 -3.46456e+06 -1.93622e+06 1.14649e+06 -162459 1.20838e+06
183 1 Mg 1.7499 30.8685 2.9896 1.2 -8.34152 5.04026e+06 -1.96506e+06 -156715 -1.17478e+06 -1.43644e+06 -1.46076e+06
184 1 Mg 4.55894 30.8272 4.4844 1.2 -9.10803 102554 2.06143e+06 3.35587e+06 1.21534e+06 -354789 119533
185 2 Si 2.7476 32.892 4.4844 2.4 -33.7472 1.27021e+07 8.13462e+06 9.35913e+06 703471 -559881 -237487
186 3 O 2.77235 34.5053 4.4844 -1.2 -9.07735 -4.65672e+06 136550 -4.08846e+06 549323 146561 143845
187 3 O -3.87837 31.918 4.4844 -1.2 -8.90393 -4.42774e+06 -2.13941e+06 -3.2183e+06 -1.42204e+06 -465453 -96332.3
188 3 O 3.44611 32.1859 3.18632 -1.2 -8.67804 -3.41019e+06 -3.2144e+06 -1.45415e+06 -874046 293305 1.29924e+06
189 1 Mg 1.7837 30.8685 0 1.2 -6.15742 4.6517e+06 2.05264e+06 -4.00772e+06 -1.36197e+06 -1.57313e+06 394962
190 3 O 3.41602 32.1859 5.78248 -1.2 -8.4542 -3.67217e+06 -3.34593e+06 -2.20258e+06 -891136 242876 -1.06732e+06
191 1 Mg -1.05984 30.9098 1.4948 1.2 -8.97571 -79833.4 2.02289e+06 5.04909e+06 1.909e+06 -584508 203119
192 2 Si 0.755243 28.8449 1.4948 2.4 -34.5278 1.0176e+07 9.56937e+06 1.16357e+07 1.12196e+06 1.5988e+06 2.88952e+06
193 3 O 0.735127 27.2317 1.4948 -1.2 -6.23701 -5.42469e+06 -317620 -2.15171e+07 1.17638e+06 -9.32794e+06 2.80031e+06
194 3 O 7.37914 29.819 1.4948 -1.2 -9.39371 -4.85035e+06 -514049 -1.70039e+06 -949064 -658676 883813
195 3 O 0.0850649 29.5511 0.196716 -1.2 -5.24562 -3.45018e+06 -1.48223e+07 -1.5229e+07 2.70491e+06 -9.43942e+06 356300
196 3 O 0.0543974 29.5511 2.79288 -1.2 -8.52651 -2.41716e+06 -3.6656e+06 -2.56196e+06 -833128 -160246 739419
197 1 Mg 6.94543 33.243 0 1.2 -6.26026 4.0862e+06 1.96618e+06 -3.40532e+06 1.59098e+06 -1.40105e+06 -824721
198 1 Mg 4.23267 37.9507 1.4948 1.2 -9.08991 -726022 1.96593e+06 5.15292e+06 -1.12095e+06 -233750 -77686.8
199 2 Si 6.02709 35.2665 1.4948 2.4 -34.2965 1.14603e+07 8.05241e+06 1.16615e+07 -405256 1.68942e+06 -2.13846e+06
200 3 O 6.09339 36.8798 1.4948 -1.2 -7.80529 -6.89332e+06 272131 -1.0827e+07 -130820 -6.6589e+06 -1.85244e+06
201 3 O 2.40018 34.2925 1.4948 -1.2 -9.31012 -4.66538e+06 -483732 -2.09287e+06 1.69163e+06 -447596 -769553
202 3 O 5.31645 34.5604 0.196716 -1.2 -6.05637 -4.27645e+06 -1.2699e+07 -1.01446e+07 -959320 -7.83359e+06 1.1615e+06
203 1 Mg 6.91449 33.243 2.9896 1.2 -8.27212 5.13346e+06 -2.08307e+06 -212842 1.3345e+06 -1.27409e+06 1.90339e+06
204 3 O 5.291 34.5604 2.79288 -1.2 -8.52438 -2.6302e+06 -3.38971e+06 -2.47448e+06 1.09376e+06 -301919 -1.12492e+06
205 1 Mg -0.471101 33.2843 4.4844 1.2 -9.20553 -471251 2.19604e+06 3.82217e+06 -514272 -117294 17453.5
206 2 Si -2.26307 35.9684 4.4844 2.4 -33.6381 1.22364e+07 8.29546e+06 9.53912e+06 -73688.4 108234 133519
207 3 O -2.33122 34.3552 4.4844 -1.2 -9.0361 -4.49545e+06 158833 -4.17419e+06 439147 -244098 6187.46
208 3 O 1.36549 36.9425 4.4844 -1.2 -8.91202 -3.95465e+06 -2.43888e+06 -3.44103e+06 2.22868e+06 -130354 -58225.1
209 3 O -1.52658 36.6746 3.18632 -1.2 -8.64243 -3.17949e+06 -3.07757e+06 -1.73044e+06 1.18912e+06 94478 -1.48678e+06
210 3 O -1.55122 36.6746 5.78248 -1.2 -8.54109 -3.09201e+06 -3.57372e+06 -2.16224e+06 1.37807e+06 17431.4 1.16345e+06
211 1 Mg 1.882 35.6175 2.9896 1.2 -8.29209 5.08677e+06 -1.97833e+06 -259146 -1.10239e+06 -1.59734e+06 -1.64346e+06
212 1 Mg 4.69415 35.5762 4.4844 1.2 -8.98651 4381.3 2.15181e+06 3.16869e+06 1.31303e+06 -93223.2 69190.9
213 2 Si 2.88522 37.641 4.4844 2.4 -33.4604 1.25832e+07 8.12651e+06 9.01772e+06 887476 -335384 556323
214 3 O 2.91159 39.2543 4.4844 -1.2 -9.10318 -4.61758e+06 562110 -4.51693e+06 580894 50072.1 -415772
215 3 O -3.74183 36.667 4.4844 -1.2 -8.98383 -4.12896e+06 -2.1876e+06 -3.33852e+06 -1.28311e+06 -491229 -231880
216 3 O 3.58014 36.9349 3.18632 -1.2 -8.71907 -3.33155e+06 -3.19541e+06 -1.59565e+06 -892249 263191 1.19523e+06
217 1 Mg 1.90997 35.6175 0 1.2 -6.32848 3.51421e+06 1.75411e+06 -3.27631e+06 -1.64584e+06 -818244 602052
218 3 O 3.55582 36.9349 5.78248 -1.2 -8.81292 -3.55545e+06 -3.53112e+06 -1.36877e+06 -1.01011e+06 -162360 -1.49831e+06
219 1 Mg -0.93068 35.6588 1.4948 1.2 -9.05091 -409769 2.0426e+06 5.08775e+06 1.84134e+06 -295336 -53573.1
220 2 Si 0.881882 33.5939 1.4948 2.4 -34.4097 1.09921e+07 8.54008e+06 1.17306e+07 1.37752e+06 1.56487e+06 2.05924e+06
221 3 O 0.859602 31.9807 1.4948 -1.2 -7.03694 -6.63551e+06 6957.54 -1.56995e+07 1.17808e+06 -8.45467e+06 2.43896e+06
222 3 O 7.507 34.568 1.4948 -1.2 -9.34962 -4.77251e+06 -358133 -2.07147e+06 -927663 -493136 1.15276e+06
223 3 O 0.210186 34.3001 0.196716 -1.2 -6.09387 -4.42156e+06 -1.34049e+07 -1.00815e+07 1.54256e+06 -7.94587e+06 -520812
224 3 O 0.184454 34.3001 2.79288 -1.2 -8.52167 -2.45921e+06 -3.55202e+06 -2.68703e+06 -813173 -148136 1.0368e+06
225 1 Mg 7.07415 37.992 0 1.2 -6.44406 3.00132e+06 1.51682e+06 -2.72584e+06 1.85351e+06 -350363 -1.45517e+06
226 1 Mg 4.36817 42.6997 1.4948 1.2 -9.1094 -932228 1.75163e+06 5.22278e+06 -1.01634e+06 99188 -107877
227 2 Si 6.16058 40.0155 1.4948 2.4 -34.1591 1.20793e+07 6.5845e+06 1.22978e+07 -407561 1.40086e+06 -1.75453e+06
228 3 O 6.22815 41.6288 1.4948 -1.2 -8.38357 -6.46223e+06 727529 -7.87712e+06 48022.3 -4.55017e+06 -1.48835e+06
229 3 O 2.53282 39.0415 1.4948 -1.2 -9.25313 -4.60707e+06 -217581 -2.66918e+06 1.70478e+06 -293578 -865069
230 3 O 5.44674 39.3094 0.196716 -1.2 -6.8623 -4.79992e+06 -9.92055e+06 -6.66721e+06 -134273 -5.79286e+06 1.97797e+06
231 1 Mg 7.04922 37.992 2.9896 1.2 -8.24907 5.0489e+06 -2.27571e+06 38384 1.26719e+06 -1.3972e+06 2.00804e+06
232 3 O 5.42658 39.3094 2.79288 -1.2 -8.5277 -2.68181e+06 -2.97296e+06 -2.86263e+06 1.16127e+06 -342040 -1.29479e+06
233 1 Mg -0.333062 38.0333 4.4844 1.2 -9.07531 -578747 2.11199e+06 3.79591e+06 -405946 -228553 242411
234 2 Si -2.12255 40.7174 4.4844 2.4 -33.6703 1.24836e+07 6.82359e+06 1.08194e+07 131321 -117034 366015
235 3 O -2.19212 39.1042 4.4844 -1.2 -9.074 -4.38942e+06 532884 -4.58863e+06 452402 -43333.9 -280043
236 3 O 1.50676 41.6915 4.4844 -1.2 -8.83901 -4.04808e+06 -1.60836e+06 -4.28203e+06 2.24875e+06 -190191 -90724
237 3 O -1.3884 41.4236 3.18632 -1.2 -8.62106 -3.22058e+06 -2.5187e+06 -2.38363e+06 1.12241e+06 109338 -1.46872e+06
238 3 O -1.40713 41.4236 5.78248 -1.2 -8.48736 -3.52931e+06 -2.39435e+06 -2.88644e+06 1.10419e+06 4714.82 1.21408e+06
239 1 Mg 2.01892 40.3665 2.9896 1.2 -8.30243 5.1175e+06 -2.47204e+06 233685 -1.07352e+06 -1.63811e+06 -1.4186e+06
240 1 Mg 4.83434 40.3252 4.4844 1.2 -9.06156 -33963.3 1.48571e+06 3.99594e+06 1.16959e+06 -44941.8 336099
241 2 Si 3.02698 42.39 4.4844 2.4 -33.6603 1.24821e+07 6.65006e+06 1.09302e+07 754481 -283877 79410.6
242 3 O 3.05433 44.0033 4.4844 -1.2 -9.10779 -4.40071e+06 851826 -4.99496e+06 616705 75288.9 186513
243 3 O -3.60077 41.416 4.4844 -1.2 -8.93198 -4.24698e+06 -1.41272e+06 -4.06758e+06 -1.25065e+06 -277448 -138341
244 3 O 3.71851 41.6839 3.18632 -1.2 -8.66326 -3.23272e+06 -2.64305e+06 -2.44026e+06 -823986 276079 1.18464e+06
245 1 Mg 2.04077 40.3665 0 1.2 -6.4779 2.60794e+06 1.18111e+06 -2.97876e+06 -1.8284e+06 359905 1.41425e+06
246 3 O 3.70011 41.6839 5.78248 -1.2 -8.51541 -3.64201e+06 -2.49231e+06 -2.87722e+06 -853916 -37454.5 -1.51795e+06
247 1 Mg -0.796865 40.4078 1.4948 1.2 -9.09433 -559738 1.76173e+06 5.19649e+06 1.76304e+06 54203.1 -16271.9
248 2 Si 1.01387 38.3429 1.4948 2.4 -34.2324 1.17625e+07 7.30571e+06 1.19459e+07 1.56676e+06 1.36532e+06 1.86387e+06
249 3 O 0.989947 36.7297 1.4948 -1.2 -7.79776 -6.94815e+06 254748 -1.09181e+07 1.02783e+06 -6.58354e+06 2.04933e+06
250 3 O 7.63988 39.317 1.4948 -1.2 -9.29014 -4.70453e+06 -81885.1 -2.68435e+06 -918618 -308309 1.12656e+06
251 3 O 0.340253 39.0491 0.196716 -1.2 -6.88668 -4.93975e+06 -1.08546e+07 -6.50929e+06 372132 -5.8395e+06 -1.37137e+06
252 3 O 0.319795 39.0491 2.79288 -1.2 -8.55924 -2.6048e+06 -3.20458e+06 -2.8713e+06 -882664 -158227 825761
253 1 Mg 7.20667 42.741 0 1.2 -6.53094 2.24845e+06 1.08731e+06 -2.86799e+06 1.99919e+06 977320 -2.25037e+06
254 1 Mg 4.50613 47.4487 1.4948 1.2 -8.97686 -1.11617e+06 2.09026e+06 4.65256e+06 -843424 417527 -55054.6
255 2 Si 6.29731 44.7645 1.4948 2.4 -33.8841 1.23428e+07 5.96895e+06 1.21861e+07 -248516 930429 -1.77592e+06
256 3 O 6.36567 46.3778 1.4948 -1.2 -8.88803 -5.54603e+06 558312 -5.71509e+06 182107 -2.69832e+06 -1.19877e+06
257 3 O 2.669 43.7905 1.4948 -1.2 -9.21503 -4.41131e+06 -198861 -3.2135e+06 1.72645e+06 -166471 -759611
258 3 O 5.58048 44.0584 0.196716 -1.2 -7.58889 -4.73134e+06 -7.18763e+06 -4.34051e+06 330512 -3.74124e+06 2.51351e+06
259 1 Mg 7.1879 42.741 2.9896 1.2 -8.23382 5.0987e+06 -2.7065e+06 408335 1.27143e+06 -1.55047e+06 1.78787e+06
260 3 O 5.56564 44.0584 2.79288 -1.2 -8.59519 -2.73053e+06 -2.737e+06 -2.96325e+06 1.16187e+06 -263879 -991945
261 1 Mg -0.19105 42.7823 4.4844 1.2 -9.10114 -473776 1.39055e+06 4.45482e+06 -345563 -22898.4 -50509.3
262 2 Si -1.97909 45.4664 4.4844 2.4 -33.2742 1.21948e+07 7.14194e+06 1.01609e+07 77563.6 37759.9 -705639
263 3 O -2.04947 43.8532 4.4844 -1.2 -9.15118 -4.47922e+06 937106 -4.76105e+06 423994 -78648.3 276132
264 3 O 1.65063 46.4405 4.4844 -1.2 -9.04021 -3.65911e+06 -2.01283e+06 -3.93993e+06 2.24419e+06 -199239 303956
265 3 O -1.24745 46.1726 3.18632 -1.2 -8.75472 -2.99145e+06 -2.7671e+06 -2.25189e+06 1.15566e+06 41440 -1.21068e+06
266 3 O -1.26044 46.1726 5.78248 -1.2 -8.88525 -3.07052e+06 -2.93134e+06 -2.05841e+06 1.24229e+06 -261776 1.88214e+06
267 1 Mg 2.15896 45.1155 2.9896 1.2 -8.2273 4.89084e+06 -2.43063e+06 314333 -1.05752e+06 -1.70907e+06 -1.74944e+06
268 1 Mg 4.97763 45.0742 4.4844 1.2 -8.93276 -299038 1.57795e+06 3.96352e+06 1.20724e+06 -156961 -282584
269 2 Si 3.1711 47.139 4.4844 2.4 -33.2254 1.14354e+07 7.78949e+06 1.0138e+07 936004 -241036 -264368
270 3 O 3.19894 48.7523 4.4844 -1.2 -9.30714 -3.94077e+06 423027 -4.72813e+06 516643 -29732.2 -76598.5