ITEM: TIMESTEP
57700
ITEM: NUMBER OF ATOMS
10500
ITEM: BOX BOUNDS xy xz yz pp pp pp
0.0000000000000000e+00 1.5297749999999999e+01 5.0992499999999996e+00
0.0000000000000000e+00 1.1872499999999999e+02 0.0000000000000000e+00
0.0000000000000000e+00 8.9688000000000002e+01 0.0000000000000000e+00
ITEM: ATOMS id type element xu yu zu q c_pe c_s[1] c_s[2] c_s[3] c_s[4] c_s[5] c_s[6]
1 1 Mg 6.2404 -6.37941e-06 0 1.2 -4.11134 7.36743e+06 -2.02193e+06 -6.02015e+06 -12686.9 2.62932e+06 -183348
2 1 Mg 3.46349 4.70768 1.4948 1.2 -8.21121 -745918 2.60117e+06 4.39668e+06 -937603 -666611 -59203.5
3 2 Si 5.2885 2.02354 1.4948 2.4 -34.715 9.16698e+06 1.07088e+07 1.15363e+07 8.87437e+06 687334 -3.14933e+06
4 3 O 5.33628 3.63678 1.4948 -1.2 -4.99337 -399410 -1.33683e+06 -3.37615e+07 -333415 3.81762e+06 -3.77502e+06
5 3 O 1.67294 1.04952 1.4948 -1.2 -1.31702 -1.98948e+07 -7.92518e+07 -2.23787e+06 -2.41211e+07 -89238.8 -95573.9
6 3 O 4.59532 1.31737 0.196716 -1.2 -3.3449 -1.43549e+06 -6.51056e+06 -3.06736e+07 -6.03737e+06 6.26965e+06 -2.62577e+06
7 1 Mg 6.18956 -6.37941e-06 2.9896 1.2 -4.73346 1.29399e+06 -2.83332e+07 -2.91232e+06 -8.82004e+06 2.47916e+06 4.11664e+06
8 3 O 4.55118 1.31737 2.79288 -1.2 -7.71585 431062 -4.59657e+06 -3.21213e+06 -2.97573e+06 -3.38448e+06 -1.11858e+06
9 1 Mg -1.20682 0.0413099 4.4844 1.2 9.01027 -3.10211e+07 -9.34364e+07 -80938.4 -2.85524e+07 -1.1151e+06 280433
10 2 Si -3.0337 2.72544 4.4844 2.4 -32.8729 1.40457e+07 6.75127e+06 8.24953e+06 1.58369e+06 414113 -611850
11 3 O -3.08099 1.11221 4.4844 -1.2 -9.73364 -6.0498e+06 145565 -2.1971e+06 -1.24675e+06 -353170 197068
12 3 O 0.582463 3.69946 4.4844 -1.2 -9.08807 -2.90756e+06 -5.42952e+06 -3.05239e+06 -607871 -79290.3 -94455.4
13 3 O -2.29524 3.43162 3.18632 -1.2 -9.24992 -3.89709e+06 -2.40184e+06 -713057 1.09474e+06 -910458 -866284
14 3 O -2.34216 3.43162 5.78248 -1.2 -8.87981 -3.81604e+06 -3.06742e+06 -1.85599e+06 842678 327508 1.323e+06
15 1 Mg 1.12778 2.37449 2.9896 1.2 -7.40732 4.81634e+06 -1.73011e+06 -537732 -3.28292e+06 -4.25135e+06 -2.26747e+06
16 1 Mg 3.92855 2.33318 4.4844 1.2 -8.3151 -4.29529e+06 4.88505e+06 4.75968e+06 1.38897e+06 245948 508570
17 2 Si 2.09341 4.39804 4.4844 2.4 -32.112 1.14629e+07 6.61343e+06 9.30291e+06 212738 -506034 533741
18 3 O 2.09991 6.01128 4.4844 -1.2 -9.62943 -3.69409e+06 140331 -4.16554e+06 535045 -30905.2 36079.5
19 3 O -4.52137 3.42402 4.4844 -1.2 -9.32651 -2.80993e+06 -2.7569e+06 -3.57948e+06 -2.39627e+06 -917243 68944.7
20 3 O 2.80834 3.69187 3.18632 -1.2 -9.52895 -1.81274e+06 -2.72584e+06 -512608 460159 -415046 -441170
21 1 Mg 1.17857 2.37449 0 1.2 -4.79884 -1.11649e+06 -1.49972e+07 -6.28027e+06 6.51422e+06 1.18721e+06 4.50384e+06
22 3 O 2.76143 3.69187 5.78248 -1.2 -9.43938 -2.67435e+06 -2.39786e+06 -1.25476e+06 576837 189217 -230415
23 1 Mg -1.67381 2.41581 1.4948 1.2 -7.31625 1.11931e+06 -356227 4.2255e+06 1.35154e+06 -542458 958867
24 2 Si 0.16286 0.350945 1.4948 2.4 -24.0286 -9.09238e+06 1.21658e+07 1.17227e+07 1.5606e+06 2.84412e+06 1.27959e+06
25 3 O 0.15972 -1.26229 1.4948 -1.2 -5.02941 -1.02221e+07 -7.8983e+06 -2.9107e+07 -5.58959e+06 -8.54157e+06 -2.77887e+06
26 3 O 6.77654 1.32496 1.4948 -1.2 -10.6208 -5.31985e+06 1.91626e+06 -1.52378e+06 -646543 -681053 1.07724e+06
27 3 O -0.508028 1.05712 0.196716 -1.2 -9.84629 605069 -4.50232e+06 -859810 -541201 171203 -4.52397e+06
28 3 O -0.552171 1.05712 2.79288 -1.2 -6.99733 -4.94689e+06 -4.48994e+06 -2.48337e+07 1.4412e+06 -6.80619e+06 -5.55237e+06
29 1 Mg 6.31713 4.74899 0 1.2 -4.61743 -165878 -1.3006e+07 -5.98257e+06 -7.3011e+06 1.43893e+06 -3.77005e+06
30 1 Mg 3.54847 9.45668 1.4948 1.2 -8.07762 -129328 1.63046e+06 4.51535e+06 -950654 -957793 -687187
31 2 Si 5.36879 6.77254 1.4948 2.4 -33.7664 6.49922e+06 1.18947e+07 1.16538e+07 1.65847e+06 118984 -2.44097e+06
32 3 O 5.41937 8.38578 1.4948 -1.2 -5.02009 66395.8 -857708 -3.5268e+07 769931 1.12456e+06 -3.90801e+06
33 3 O 1.75158 5.79852 1.4948 -1.2 -9.76366 -3.56415e+06 -2.27523e+06 -1.52985e+06 1.96765e+06 -1.56441e+06 -1.15008e+06
34 3 O 4.67421 6.06637 0.196716 -1.2 -4.08591 643780 -1.00435e+07 -3.15338e+07 -2.01009e+06 1.33132e+06 -4.22577e+06
35 1 Mg 6.26654 4.74899 2.9896 1.2 -7.81707 3.84495e+06 -1.78132e+06 31021.4 1.79016e+06 -805161 1.78856e+06
36 3 O 4.63043 6.06637 2.79288 -1.2 -9.07151 -1.31571e+06 -3.86461e+06 -2.24173e+06 944445 -71473.1 -1.26698e+06
37 1 Mg -1.12976 4.79031 4.4844 1.2 -8.67054 -920003 2.68756e+06 2.99247e+06 -660432 -317963 -221116
38 2 Si -2.9517 7.47444 4.4844 2.4 -32.4838 1.10045e+07 8.58305e+06 8.61228e+06 17959.1 218292 -583938
39 3 O -3.00198 5.86121 4.4844 -1.2 -9.60442 -3.85515e+06 -28017.3 -3.74071e+06 62401.4 -347830 232756
40 3 O 0.666315 8.44846 4.4844 -1.2 -9.42421 -2.95695e+06 -2.50135e+06 -3.51312e+06 2.11243e+06 -434415 389474
41 3 O -2.21213 8.18062 3.18632 -1.2 -9.30428 -2.6255e+06 -3.27294e+06 -736163 1.1171e+06 -382147 -1.11357e+06
42 3 O -2.25864 8.18062 5.78248 -1.2 -9.14722 -2.83908e+06 -3.42345e+06 -1.76365e+06 1.09066e+06 -457074 1.58402e+06
43 1 Mg 1.20893 7.12349 2.9896 1.2 -7.7946 3.73227e+06 -1.71827e+06 23802.8 -1.27565e+06 -1.36371e+06 -1.94e+06
44 1 Mg 4.00982 7.08218 4.4844 1.2 -8.50536 -1.04525e+06 2.38986e+06 3.20333e+06 1.02186e+06 -371267 -100128
45 2 Si 2.17861 9.14704 4.4844 2.4 -32.4872 1.05152e+07 8.67913e+06 8.98429e+06 665575 -229213 -657033
46 3 O 2.18828 10.7603 4.4844 -1.2 -9.664 -3.55982e+06 -111073 -3.96963e+06 377781 -150072 430770
47 3 O -4.43805 8.17302 4.4844 -1.2 -9.49746 -3.21016e+06 -2.46265e+06 -3.14635e+06 -1.51134e+06 -460085 244642
48 3 O 2.89193 8.44087 3.18632 -1.2 -9.31303 -2.44862e+06 -3.46811e+06 -853843 -940606 -166690 1.59701e+06
49 1 Mg 1.25915 7.12349 0 1.2 -4.99374 477741 -7.67074e+06 -6.25245e+06 5.89188e+06 1.37833e+06 2.32373e+06
50 3 O 2.84547 8.44087 5.78248 -1.2 -9.12789 -2.66811e+06 -3.65301e+06 -1.9171e+06 -921140 -45486.7 -974215
51 1 Mg -1.59284 7.16481 1.4948 1.2 -7.9884 389557 1.27143e+06 4.41162e+06 1.45824e+06 -872563 49075.6
52 2 Si 0.240329 5.09994 1.4948 2.4 -33.5376 7.40579e+06 1.07367e+07 1.15395e+07 -1.95566e+06 -1.05e+06 1.60288e+06
53 3 O 0.234538 3.48671 1.4948 -1.2 -5.48822 -1.33231e+06 521218 -3.39299e+07 400135 5.18447e+06 4.05861e+06
54 3 O 6.85564 6.07396 1.4948 -1.2 -9.84597 -3.99946e+06 -1.72612e+06 -1.47333e+06 -1.34191e+06 -1.85914e+06 1.38977e+06
55 3 O -0.429565 5.80612 0.196716 -1.2 -4.33702 -167240 -8.67827e+06 -3.16425e+07 1.85265e+06 1.16325e+06 4.78156e+06
56 3 O -0.473377 5.80612 2.79288 -1.2 -9.14505 -1.75284e+06 -3.4487e+06 -2.20359e+06 -790853 273361 1.50706e+06
57 1 Mg 6.40169 9.49799 0 1.2 -4.98241 1.07225e+06 -6.56226e+06 -6.46256e+06 -5.49441e+06 984514 -2.83431e+06
58 1 Mg 3.64209 14.2057 1.4948 1.2 -8.2264 -113393 1.49395e+06 4.8334e+06 -1.04253e+06 -995148 -658460
59 2 Si 5.45748 11.5215 1.4948 2.4 -33.806 6.83927e+06 1.1355e+07 1.18931e+07 881229 285547 -2.95314e+06
60 3 O 5.51101 13.1348 1.4948 -1.2 -4.99378 -194725 -614551 -3.51122e+07 476358 -2.50143e+06 -3.95221e+06
61 3 O 1.83851 10.5475 1.4948 -1.2 -9.81813 -3.82367e+06 -1.73655e+06 -1.45e+06 1.52672e+06 -1.57672e+06 -684391
62 3 O 4.7611 10.8154 0.196716 -1.2 -3.89251 1.00047e+06 -1.12899e+07 -3.21765e+07 -2.46934e+06 -1.72561e+06 -3.87575e+06
63 1 Mg 6.35203 9.49799 2.9896 1.2 -7.74596 3.81019e+06 -1.71963e+06 -112179 1.29547e+06 -1.18194e+06 1.6311e+06
64 3 O 4.71833 10.8154 2.79288 -1.2 -9.09379 -1.4903e+06 -3.66159e+06 -2.24459e+06 1.04929e+06 69139.1 -934655
65 1 Mg -1.0438 9.53931 4.4844 1.2 -8.48914 -1.2322e+06 2.37073e+06 3.29333e+06 -597930 -168258 -456670
66 2 Si -2.8604 12.2234 4.4844 2.4 -32.4194 1.09188e+07 8.5514e+06 8.62615e+06 -187365 -85734.7 -701887
67 3 O -2.91391 10.6102 4.4844 -1.2 -9.6954 -3.70122e+06 -48070.5 -3.7456e+06 292825 -249043 363246
68 3 O 0.7596 13.1975 4.4844 -1.2 -9.43917 -3.0267e+06 -2.59115e+06 -3.32973e+06 2.09083e+06 -520821 359960
69 3 O -2.12001 12.9296 3.18632 -1.2 -9.26957 -2.64294e+06 -3.25606e+06 -796556 1.16698e+06 -240852 -1.13061e+06
70 3 O -2.16532 12.9296 5.78248 -1.2 -9.22718 -2.84618e+06 -3.44832e+06 -1.57016e+06 1.18797e+06 -166305 1.7437e+06
71 1 Mg 1.29891 11.8725 2.9896 1.2 -7.79201 3.81589e+06 -1.67371e+06 -111735 -1.15388e+06 -1.20502e+06 -2.09194e+06
72 1 Mg 4.10033 11.8312 4.4844 1.2 -8.48306 -1.11619e+06 2.45266e+06 3.17716e+06 1.15261e+06 -336043 -229981
73 2 Si 2.27333 13.896 4.4844 2.4 -32.5805 1.0686e+07 8.60428e+06 9.03698e+06 671090 77487.2 -434184
74 3 O 2.28634 15.5093 4.4844 -1.2 -9.51355 -3.72545e+06 140168 -4.303e+06 509824 -197231 284268
75 3 O -4.34533 12.922 4.4844 -1.2 -9.47885 -3.18263e+06 -2.37759e+06 -3.28803e+06 -1.4107e+06 -351367 234179
76 3 O 2.98455 13.1899 3.18632 -1.2 -9.27013 -2.5289e+06 -3.38568e+06 -946522 -962145 -162167 1.62858e+06
77 1 Mg 1.34779 11.8725 0 1.2 -5.26573 2.42438e+06 -3.06913e+06 -6.46649e+06 3.57022e+06 818841 1.1703e+06
78 3 O 2.93934 13.1899 5.78248 -1.2 -9.15176 -2.51162e+06 -3.7501e+06 -1.96382e+06 -950926 -434622 -1.03334e+06
79 1 Mg -1.50344 11.9138 1.4948 1.2 -8.11412 157551 1.52634e+06 4.57393e+06 1.55785e+06 -916472 -6543.54
80 2 Si 0.326006 9.84894 1.4948 2.4 -33.7335 6.79241e+06 1.14886e+07 1.16625e+07 -596869 155921 1.47961e+06
81 3 O 0.317364 8.23571 1.4948 -1.2 -5.01942 -26135.9 -718170 -3.54459e+07 -127038 1.15925e+06 4.52356e+06
82 3 O 6.94307 10.823 1.4948 -1.2 -9.85437 -3.98623e+06 -1.54373e+06 -1.38166e+06 -972041 -1.53156e+06 1.45721e+06
83 3 O -0.343122 10.5551 0.196716 -1.2 -3.99512 715267 -1.07576e+07 -3.22248e+07 2.46283e+06 -2.08433e+06 4.91764e+06
84 3 O -0.385966 10.5551 2.79288 -1.2 -9.12838 -1.50554e+06 -3.70728e+06 -2.27496e+06 -857151 51789.8 1.54301e+06
85 1 Mg 6.49448 14.247 0 1.2 -5.30364 2.96289e+06 -2.39505e+06 -6.43347e+06 -2.96701e+06 231680 -1.89796e+06
86 1 Mg 3.74457 18.9547 1.4948 1.2 -8.40468 -163543 1.59889e+06 4.98708e+06 -1.12159e+06 -988975 -608270
87 2 Si 5.55495 16.2705 1.4948 2.4 -34.0044 7.47599e+06 1.06577e+07 1.22903e+07 511924 701994 -2.9611e+06
88 3 O 5.6115 17.8838 1.4948 -1.2 -5.20441 -1.41154e+06 -412259 -3.25294e+07 83209.1 -6.01142e+06 -3.8047e+06
89 3 O 1.93416 15.2965 1.4948 -1.2 -9.74923 -4.04783e+06 -1.21027e+06 -1.61261e+06 1.53844e+06 -1.39091e+06 -688690
90 3 O 4.85636 15.5644 0.196716 -1.2 -3.79117 816264 -1.27692e+07 -3.08428e+07 -3.01829e+06 -5.08594e+06 -3.40635e+06
91 1 Mg 6.44662 14.247 2.9896 1.2 -7.80932 4.00895e+06 -1.9123e+06 -17689.9 1.27998e+06 -1.25148e+06 1.65282e+06
92 3 O 4.81537 15.5644 2.79288 -1.2 -8.97144 -1.63788e+06 -3.45137e+06 -2.53357e+06 1.08614e+06 51736.4 -927252
93 1 Mg -0.948271 14.2883 4.4844 1.2 -8.53651 -1.0911e+06 2.29216e+06 3.29986e+06 -501932 -178908 -329726
94 2 Si -2.75928 16.9724 4.4844 2.4 -32.7165 1.15854e+07 7.98614e+06 9.00868e+06 -7189.94 -42502.2 -852971
95 3 O -2.81617 15.3592 4.4844 -1.2 -9.58878 -3.95842e+06 195141 -3.89022e+06 244711 -142039 334820
96 3 O 0.862762 17.9465 4.4844 -1.2 -9.24131 -3.23087e+06 -2.30796e+06 -3.73894e+06 2.14873e+06 -595986 571206
97 3 O -2.0185 17.6786 3.18632 -1.2 -9.1368 -2.86798e+06 -3.06959e+06 -988497 1.16404e+06 -188819 -1.0847e+06
98 3 O -2.06164 17.6786 5.78248 -1.2 -8.9831 -3.2671e+06 -3.05932e+06 -2.06855e+06 1.17144e+06 -305063 1.96784e+06
99 1 Mg 1.39817 16.6215 2.9896 1.2 -7.91452 4.0703e+06 -1.93507e+06 89442.2 -1.16499e+06 -1.18155e+06 -2.02814e+06
100 1 Mg 4.20062 16.5802 4.4844 1.2 -8.65262 -865525 2.16642e+06 3.48707e+06 1.11285e+06 -427477 -386038
101 2 Si 2.37796 18.645 4.4844 2.4 -32.9141 1.09657e+07 8.39518e+06 9.49488e+06 770694 -148430 -1.05495e+06
102 3 O 2.39434 20.2583 4.4844 -1.2 -9.42134 -3.80622e+06 -45083.6 -4.2053e+06 455963 -173699 552967
103 3 O -4.24274 17.671 4.4844 -1.2 -9.34216 -3.52993e+06 -2.20694e+06 -3.33561e+06 -1.42244e+06 -339586 426549
104 3 O 3.08659 17.9389 3.18632 -1.2 -9.13053 -2.69594e+06 -3.23512e+06 -1.1969e+06 -941200 -28081.4 1.72438e+06
105 1 Mg 1.44478 16.6215 0 1.2 -5.50356 4.25557e+06 -265296 -6.27784e+06 1.39519e+06 -31283.1 561118
106 3 O 3.0436 17.9389 5.78248 -1.2 -8.87818 -2.78674e+06 -3.55476e+06 -2.30059e+06 -914618 56806.7 -585405
107 1 Mg -1.40524 16.6628 1.4948 1.2 -8.30116 171370 1.47376e+06 4.86473e+06 1.70284e+06 -938975 19391.7
108 2 Si 0.420358 14.5979 1.4948 2.4 -33.9235 7.20437e+06 1.09704e+07 1.20575e+07 -115680 645128 1.76825e+06
109 3 O 0.408732 12.9847 1.4948 -1.2 -4.98872 -220902 -625143 -3.52178e+07 216673 -2.5945e+06 4.64705e+06
110 3 O 7.03923 15.572 1.4948 -1.2 -9.78677 -4.22901e+06 -1.03669e+06 -1.51257e+06 -949299 -1.28974e+06 1.36555e+06
111 3 O -0.248332 15.3041 0.196716 -1.2 -3.90166 492567 -1.23135e+07 -3.08502e+07 3.24067e+06 -5.45729e+06 4.35483e+06
112 3 O -0.289436 15.3041 2.79288 -1.2 -9.01821 -1.64702e+06 -3.5619e+06 -2.49655e+06 -873888 -27557.1 1.41415e+06
113 1 Mg 6.59566 18.996 0 1.2 -5.52021 4.56349e+06 227229 -6.26615e+06 -911549 -700851 -1.16129e+06
114 1 Mg 3.85574 23.7037 1.4948 1.2 -8.53015 -337085 1.90184e+06 4.91887e+06 -1.17666e+06 -903510 -504366
115 2 Si 5.66125 21.0195 1.4948 2.4 -34.0678 8.18734e+06 1.04666e+07 1.19335e+07 202380 1.15143e+06 -2.98138e+06
116 3 O 5.72074 22.6328 1.4948 -1.2 -5.75226 -3.18357e+06 -443556 -2.75077e+07 -236596 -8.48547e+06 -3.3836e+06
117 3 O 2.03867 20.0455 1.4948 -1.2 -9.68666 -4.17825e+06 -995361 -1.59553e+06 1.57327e+06 -1.17816e+06 -623646
118 3 O 4.96004 20.3134 0.196716 -1.2 -4.03701 -67621.2 -1.42747e+07 -2.68733e+07 -3.17985e+06 -7.94071e+06 -2.47853e+06
119 1 Mg 6.55057 18.996 2.9896 1.2 -7.89807 4.29268e+06 -1.95848e+06 -112482 1.29323e+06 -1.26265e+06 1.56647e+06
120 3 O 4.92172 20.3134 2.79288 -1.2 -8.88071 -1.77264e+06 -3.56784e+06 -2.46664e+06 1.06707e+06 -14009.5 -859218
121 1 Mg -0.84282 19.0373 4.4844 1.2 -8.67118 -868652 2.2071e+06 3.36954e+06 -547981 -102530 -655252
122 2 Si -2.64823 21.7214 4.4844 2.4 -32.7926 1.1575e+07 8.72218e+06 8.40443e+06 13002.2 -295396 -753124
123 3 O -2.70847 20.1082 4.4844 -1.2 -9.50436 -4.0855e+06 18308.5 -3.71796e+06 364148 -81262.8 506657
124 3 O 0.97581 22.6955 4.4844 -1.2 -9.24628 -3.34586e+06 -2.68299e+06 -3.25789e+06 2.31013e+06 -581876 444801
125 3 O -1.9076 22.4276 3.18632 -1.2 -9.07876 -2.88547e+06 -3.32999e+06 -844677 1.17252e+06 -49978.8 -1.19171e+06
126 3 O -1.9475 22.4276 5.78248 -1.2 -9.02721 -3.09718e+06 -3.73405e+06 -1.3802e+06 1.14303e+06 34675.4 1.66836e+06
127 1 Mg 1.50678 21.3705 2.9896 1.2 -7.96022 4.25938e+06 -1.75473e+06 -206874 -1.17546e+06 -1.18868e+06 -2.0563e+06
128 1 Mg 4.31086 21.3292 4.4844 1.2 -8.70728 -799754 2.39545e+06 3.2812e+06 1.235e+06 -366339 -418688
129 2 Si 2.49243 23.394 4.4844 2.4 -32.8884 1.12313e+07 8.86876e+06 8.71263e+06 653408 -41561.2 -791149
130 3 O 2.51204 25.0073 4.4844 -1.2 -9.44108 -4.04673e+06 -72249.3 -3.9071e+06 569979 -120502 292023
131 3 O -4.13026 22.42 4.4844 -1.2 -9.3061 -3.51578e+06 -2.50776e+06 -3.11632e+06 -1.47405e+06 -326247 304893
132 3 O 3.19799 22.6879 3.18632 -1.2 -9.08719 -2.77311e+06 -3.4476e+06 -1.03675e+06 -931812 11533.9 1.67922e+06
133 1 Mg 1.5501 21.3705 0 1.2 -5.64607 5.21558e+06 1.41039e+06 -5.90716e+06 -76542.1 -943355 165647
134 3 O 3.1583 22.6879 5.78248 -1.2 -8.91602 -2.77019e+06 -3.91542e+06 -1.88593e+06 -959553 -138352 -644493
135 1 Mg -1.29822 21.4118 1.4948 1.2 -8.45102 36984 1.78422e+06 4.82431e+06 1.79979e+06 -945900 -35131.6
136 2 Si 0.523568 19.3469 1.4948 2.4 -34.0754 7.80063e+06 1.06073e+07 1.20958e+07 309172 1.07418e+06 1.85702e+06
137 3 O 0.508934 17.7337 1.4948 -1.2 -5.19158 -1.40307e+06 -396934 -3.27083e+07 662267 -6.12472e+06 4.42976e+06
138 3 O 7.14425 20.321 1.4948 -1.2 -9.73642 -4.39559e+06 -863244 -1.40953e+06 -940267 -1.04e+06 1.34156e+06
139 3 O -0.145107 20.0531 0.196716 -1.2 -4.13522 -384147 -1.39434e+07 -2.69339e+07 3.67459e+06 -8.20221e+06 3.36283e+06
140 3 O -0.183601 20.0531 2.79288 -1.2 -8.92417 -1.77827e+06 -3.67306e+06 -2.45638e+06 -832140 -88721.4 1.48867e+06
141 1 Mg 6.70502 23.745 0 1.2 -5.67261 5.17015e+06 1.63299e+06 -5.65061e+06 423746 -1.52881e+06 -846853
142 1 Mg 3.97493 28.4527 1.4948 1.2 -8.61039 -633776 2.12032e+06 4.89301e+06 -1.21718e+06 -749936 -460839
143 2 Si 5.77602 25.7685 1.4948 2.4 -34.0019 8.91877e+06 9.9686e+06 1.1682e+07 -79539.9 1.54779e+06 -2.84237e+06
144 3 O 5.83821 27.3818 1.4948 -1.2 -6.53242 -4.94163e+06 -313227 -2.13943e+07 -348174 -9.30584e+06 -2.77043e+06
145 3 O 2.15175 24.7945 1.4948 -1.2 -9.66752 -4.24756e+06 -881309 -1.53682e+06 1.62625e+06 -942296 -646110
146 3 O 5.07184 25.0624 0.196716 -1.2 -4.62054 -1.42433e+06 -1.50137e+07 -2.12211e+07 -2.80025e+06 -9.43372e+06 -1.18798e+06
147 1 Mg 6.66374 23.745 2.9896 1.2 -7.92673 4.38508e+06 -1.81678e+06 -297783 1.35101e+06 -1.27044e+06 1.70418e+06
148 3 O 5.03707 25.0624 2.79288 -1.2 -8.84913 -1.86136e+06 -3.638e+06 -2.39887e+06 1.05556e+06 -164680 -958940
149 1 Mg -0.727559 23.7863 4.4844 1.2 -8.70417 -923917 2.47915e+06 3.1982e+06 -571648 -218761 -195140
150 2 Si -2.5277 26.4704 4.4844 2.4 -32.99 1.14011e+07 8.33342e+06 9.29224e+06 79030 -97117.1 -332235
151 3 O -2.59107 24.8572 4.4844 -1.2 -9.4329 -3.98397e+06 -38876 -3.87051e+06 307687 -102755 105896
152 3 O 1.09817 27.4445 4.4844 -1.2 -9.21559 -3.51125e+06 -2.40385e+06 -3.41228e+06 2.26803e+06 -299486 379151
153 3 O -1.78784 27.1766 3.18632 -1.2 -9.01644 -2.78837e+06 -3.23467e+06 -1.19031e+06 1.17238e+06 33403.7 -1.22192e+06
154 3 O -1.82343 27.1766 5.78248 -1.2 -8.77971 -2.9495e+06 -3.31757e+06 -2.3735e+06 1.17588e+06 -12245.3 1.6161e+06
155 1 Mg 1.62435 26.1195 2.9896 1.2 -7.96709 4.45826e+06 -1.80316e+06 -343201 -1.17906e+06 -1.33473e+06 -1.88721e+06
156 1 Mg 4.43064 26.0782 4.4844 1.2 -8.70717 -654107 2.28819e+06 3.24284e+06 1.25888e+06 -151617 -192584
157 2 Si 2.61607 28.143 4.4844 2.4 -32.8545 1.16649e+07 8.36827e+06 8.72674e+06 787745 -155108 -765849
158 3 O 2.63853 29.7563 4.4844 -1.2 -9.50012 -4.07206e+06 -48485 -3.80613e+06 524610 -114975 437285
159 3 O -4.00841 27.169 4.4844 -1.2 -9.25966 -3.55343e+06 -2.28838e+06 -3.36493e+06 -1.40355e+06 -494355 217189
160 3 O 3.3182 27.4369 3.18632 -1.2 -9.07674 -2.87225e+06 -3.37712e+06 -1.09938e+06 -911822 79502.7 1.61053e+06
161 1 Mg 1.66335 26.1195 0 1.2 -5.76254 5.14712e+06 2.08889e+06 -5.1114e+06 -902363 -1.54509e+06 -25484.1
162 3 O 3.28288 27.4369 5.78248 -1.2 -8.95936 -3.19312e+06 -3.38377e+06 -1.86186e+06 -922536 -259427 -912933
163 1 Mg -1.18278 26.1608 1.4948 1.2 -8.57452 -263619 1.98187e+06 4.93291e+06 1.87587e+06 -860143 -71985.9
164 2 Si 0.635424 24.0959 1.4948 2.4 -34.0591 8.47558e+06 1.03466e+07 1.17229e+07 700684 1.3837e+06 2.01403e+06
165 3 O 0.617906 22.4827 1.4948 -1.2 -5.73862 -3.17674e+06 -441883 -2.7673e+07 1.03111e+06 -8.56316e+06 3.95103e+06
166 3 O 7.25781 25.07 1.4948 -1.2 -9.70905 -4.39359e+06 -735777 -1.46296e+06 -945080 -818953 1.27829e+06
167 3 O -0.0337363 24.8021 0.196716 -1.2 -4.69972 -1.68377e+06 -1.49886e+07 -2.12717e+07 3.51829e+06 -9.63091e+06 2.09717e+06
168 3 O -0.0687235 24.8021 2.79288 -1.2 -8.88242 -1.82809e+06 -3.77062e+06 -2.42709e+06 -794945 -63798 1.26005e+06
169 1 Mg 6.82195 28.494 0 1.2 -5.80876 4.70293e+06 2.16862e+06 -4.62136e+06 1.14973e+06 -1.86278e+06 -795087
170 1 Mg 4.10106 33.2017 1.4948 1.2 -8.61519 -1.13618e+06 2.50468e+06 4.67824e+06 -1.19959e+06 -535202 -461707
171 2 Si 5.89839 30.5175 1.4948 2.4 -33.7589 9.51202e+06 9.54143e+06 1.12096e+07 -350200 1.70707e+06 -2.87217e+06
172 3 O 5.96289 32.1308 1.4948 -1.2 -7.44217 -5.96754e+06 -380412 -1.51886e+07 -273480 -8.4563e+06 -2.05524e+06
173 3 O 2.27266 29.5435 1.4948 -1.2 -9.6884 -4.18838e+06 -823828 -1.57182e+06 1.64754e+06 -720049 -556542
174 3 O 5.19102 29.8114 0.196716 -1.2 -5.47586 -2.75554e+06 -1.4673e+07 -1.5058e+07 -1.93489e+06 -9.29352e+06 194909
175 1 Mg 6.78546 28.494 2.9896 1.2 -7.92282 4.40711e+06 -1.87638e+06 -261023 1.31268e+06 -1.26732e+06 1.60376e+06
176 3 O 5.16061 29.8114 2.79288 -1.2 -8.88095 -1.86068e+06 -3.69149e+06 -2.33358e+06 1.11509e+06 -270588 -838391
177 1 Mg -0.603205 28.5353 4.4844 1.2 -8.75643 -1.02858e+06 2.29854e+06 3.56109e+06 -499626 -325527 -414923
178 2 Si -2.39877 31.2194 4.4844 2.4 -32.8148 1.10356e+07 8.76612e+06 8.94397e+06 360.456 -214955 -902590
179 3 O -2.46483 29.6062 4.4844 -1.2 -9.43432 -3.82949e+06 -25293.2 -4.02026e+06 416645 -89607 422183
180 3 O 1.22864 32.1935 4.4844 -1.2 -9.33989 -3.38096e+06 -2.67034e+06 -3.08254e+06 2.18095e+06 -338499 367866
181 3 O -1.66032 31.9256 3.18632 -1.2 -9.0837 -2.63419e+06 -3.45405e+06 -1.09768e+06 1.16074e+06 122087 -1.06592e+06
182 3 O -1.69072 31.9256 5.78248 -1.2 -8.99573 -2.67832e+06 -3.70237e+06 -1.68507e+06 1.15024e+06 111515 1.88704e+06
183 1 Mg 1.7499 30.8685 2.9896 1.2 -7.89477 4.46102e+06 -1.66735e+06 -591066 -1.10983e+06 -1.40481e+06 -1.95656e+06
184 1 Mg 4.55894 30.8272 4.4844 1.2 -8.6353 -802273 2.43882e+06 3.12634e+06 1.18874e+06 -73968.7 -341193
185 2 Si 2.7476 32.892 4.4844 2.4 -32.6682 1.11041e+07 8.84258e+06 8.51565e+06 798322 -51023.3 -563290
186 3 O 2.77235 34.5053 4.4844 -1.2 -9.56121 -3.76016e+06 -118540 -3.95324e+06 556298 -108440 368648
187 3 O -3.87837 31.918 4.4844 -1.2 -9.36408 -3.38026e+06 -2.53418e+06 -3.12953e+06 -1.26517e+06 -398498 361184
188 3 O 3.44611 32.1859 3.18632 -1.2 -9.13714 -2.66121e+06 -3.60244e+06 -1.08118e+06 -878628 140399 1.62352e+06
189 1 Mg 1.7837 30.8685 0 1.2 -5.84813 4.15257e+06 2.34688e+06 -4.29834e+06 -1.33157e+06 -1.5082e+06 21491.4
190 3 O 3.41602 32.1859 5.78248 -1.2 -9.09105 -2.72589e+06 -3.77995e+06 -1.65007e+06 -831603 -250473 -1.01727e+06
191 1 Mg -1.05984 30.9098 1.4948 1.2 -8.61047 -677152 2.30486e+06 4.77925e+06 1.90229e+06 -655570 -253965
192 2 Si 0.755243 28.8449 1.4948 2.4 -33.8934 9.17549e+06 9.77337e+06 1.14157e+07 1.1366e+06 1.55804e+06 1.7839e+06
193 3 O 0.735127 27.2317 1.4948 -1.2 -6.51981 -4.96431e+06 -305080 -2.15369e+07 1.18557e+06 -9.30343e+06 3.34792e+06
194 3 O 7.37914 29.819 1.4948 -1.2 -9.72716 -4.26944e+06 -709087 -1.5517e+06 -921370 -608412 1.38243e+06
195 3 O 0.0850649 29.5511 0.196716 -1.2 -5.52626 -2.94431e+06 -1.50079e+07 -1.50994e+07 2.70116e+06 -9.42645e+06 812397
196 3 O 0.0543974 29.5511 2.79288 -1.2 -8.90843 -1.83702e+06 -3.81089e+06 -2.38594e+06 -838913 -68963.1 1.36664e+06
197 1 Mg 6.94543 33.243 0 1.2 -5.89214 3.49043e+06 2.45421e+06 -3.88734e+06 1.55693e+06 -1.4492e+06 -1.12665e+06
198 1 Mg 4.23267 37.9507 1.4948 1.2 -8.59188 -1.60225e+06 2.87822e+06 4.31897e+06 -1.11298e+06 -245836 -497957
199 2 Si 6.02709 35.2665 1.4948 2.4 -33.399 9.90413e+06 9.23339e+06 1.05987e+07 -438856 1.55992e+06 -2.85135e+06
200 3 O 6.09339 36.8798 1.4948 -1.2 -8.28707 -6.06625e+06 -498738 -1.01113e+07 -133217 -6.58088e+06 -1.45081e+06
201 3 O 2.40018 34.2925 1.4948 -1.2 -9.74754 -3.96673e+06 -984005 -1.59074e+06 1.67358e+06 -523231 -480039
202 3 O 5.31645 34.5604 0.196716 -1.2 -6.46055 -3.59867e+06 -1.3277e+07 -9.59654e+06 -955259 -7.81842e+06 1.44603e+06
203 1 Mg 6.91449 33.243 2.9896 1.2 -7.81717 4.32228e+06 -1.67696e+06 -536629 1.27701e+06 -1.39701e+06 1.50089e+06
204 3 O 5.291 34.5604 2.79288 -1.2 -8.97707 -1.75093e+06 -3.84777e+06 -2.169e+06 1.14651e+06 -251298 -755268
205 1 Mg -0.471101 33.2843 4.4844 1.2 -8.61129 -1.13124e+06 2.48236e+06 3.23998e+06 -378093 -207106 -400725
206 2 Si -2.26307 35.9684 4.4844 2.4 -32.4941 1.09147e+07 8.8292e+06 8.48984e+06 -11099.9 -357073 -1.17168e+06
207 3 O -2.33122 34.3552 4.4844 -1.2 -9.58197 -3.75052e+06 -119307 -3.76924e+06 444877 6982.22 459832
208 3 O 1.36549 36.9425 4.4844 -1.2 -9.45368 -3.15049e+06 -2.77522e+06 -3.03494e+06 2.23743e+06 -437231 671704
209 3 O -1.52658 36.6746 3.18632 -1.2 -9.19241 -2.49112e+06 -3.6415e+06 -976111 1.171e+06 152157 -919584
210 3 O -1.55122 36.6746 5.78248 -1.2 -9.25115 -2.71688e+06 -3.51056e+06 -1.35261e+06 1.24859e+06 107893 2.19709e+06
211 1 Mg 1.882 35.6175 2.9896 1.2 -7.79815 4.30516e+06 -1.52705e+06 -720152 -1.08744e+06 -1.43719e+06 -2.03823e+06
212 1 Mg 4.69415 35.5762 4.4844 1.2 -8.55688 -1.0723e+06 2.49118e+06 3.21957e+06 1.21209e+06 -169226 -440146
213 2 Si 2.88522 37.641 4.4844 2.4 -32.4479 1.04191e+07 9.30951e+06 8.38185e+06 871549 34886.2 -1.21852e+06
214 3 O 2.91159 39.2543 4.4844 -1.2 -9.70815 -3.45441e+06 -487563 -3.66147e+06 563001 -168736 544105
215 3 O -3.74183 36.667 4.4844 -1.2 -9.50644 -3.20135e+06 -2.64572e+06 -2.97444e+06 -1.26575e+06 -172242 521606
216 3 O 3.58014 36.9349 3.18632 -1.2 -9.21066 -2.35545e+06 -3.81597e+06 -1.16141e+06 -880147 206795 1.77369e+06
217 1 Mg 1.90997 35.6175 0 1.2 -5.89594 2.84067e+06 2.43679e+06 -3.97844e+06 -1.6363e+06 -786308 373654
218 3 O 3.55582 36.9349 5.78248 -1.2 -9.13808 -2.35558e+06 -3.8491e+06 -1.84971e+06 -977958 -172473 -514311
219 1 Mg -0.93068 35.6588 1.4948 1.2 -8.5764 -1.09053e+06 2.66154e+06 4.3893e+06 1.84779e+06 -302374 -409180
220 2 Si 0.881882 33.5939 1.4948 2.4 -33.5455 9.72329e+06 9.4599e+06 1.0695e+07 1.44303e+06 1.64324e+06 1.44895e+06
221 3 O 0.859602 31.9807 1.4948 -1.2 -7.43487 -6.0459e+06 -357409 -1.52879e+07 1.14322e+06 -8.46789e+06 2.81138e+06
222 3 O 7.507 34.568 1.4948 -1.2 -9.79309 -4.06436e+06 -893409 -1.534e+06 -911845 -417581 1.50462e+06
223 3 O 0.210186 34.3001 0.196716 -1.2 -6.49915 -3.80009e+06 -1.39741e+07 -9.48462e+06 1.536e+06 -7.95737e+06 -274403
224 3 O 0.184454 34.3001 2.79288 -1.2 -9.01881 -1.81097e+06 -3.9635e+06 -2.1307e+06 -870357 -188811 1.38795e+06
225 1 Mg 7.07415 37.992 0 1.2 -5.96888 2.20085e+06 2.48984e+06 -3.65972e+06 1.86566e+06 -388959 -1.71869e+06
226 1 Mg 4.36817 42.6997 1.4948 1.2 -8.634 -1.73166e+06 3.08609e+06 3.92603e+06 -1.00274e+06 117918 -231953
227 2 Si 6.16058 40.0155 1.4948 2.4 -33.1166 1.02867e+07 8.98497e+06 1.00196e+07 -360841 1.26837e+06 -2.49091e+06
228 3 O 6.22815 41.6288 1.4948 -1.2 -8.88661 -5.58655e+06 -593856 -6.62643e+06 27797.3 -4.50362e+06 -1.25315e+06
229 3 O 2.53282 39.0415 1.4948 -1.2 -9.77438 -3.76653e+06 -1.27618e+06 -1.61608e+06 1.71198e+06 -355657 -438580
230 3 O 5.44674 39.3094 0.196716 -1.2 -7.35582 -3.96442e+06 -1.10442e+07 -5.58874e+06 -151252 -5.73768e+06 2.24067e+06
231 1 Mg 7.04922 37.992 2.9896 1.2 -7.69689 4.18181e+06 -1.4252e+06 -829731 1.28493e+06 -1.55453e+06 1.40207e+06
232 3 O 5.42658 39.3094 2.79288 -1.2 -9.07884 -1.66505e+06 -4.0805e+06 -1.89055e+06 1.11765e+06 -258174 -716608
233 1 Mg -0.333062 38.0333 4.4844 1.2 -8.42563 -1.27517e+06 2.72407e+06 2.83975e+06 -458586 -70318.1 -616857
234 2 Si -2.12255 40.7174 4.4844 2.4 -32.2506 1.04451e+07 9.38414e+06 8.01863e+06 113049 -526107 -804298
235 3 O -2.19212 39.1042 4.4844 -1.2 -9.76018 -3.53143e+06 -451139 -3.37266e+06 458279 148497 473740
236 3 O 1.50676 41.6915 4.4844 -1.2 -9.57492 -3.07926e+06 -3.04046e+06 -2.65077e+06 2.34712e+06 -328023 486732
237 3 O -1.3884 41.4236 3.18632 -1.2 -9.23022 -2.33079e+06 -3.87765e+06 -943982 1.14915e+06 199368 -1.09158e+06
238 3 O -1.40713 41.4236 5.78248 -1.2 -9.37334 -2.41077e+06 -3.6979e+06 -1.26729e+06 1.17647e+06 264268 1.86034e+06
239 1 Mg 2.01892 40.3665 2.9896 1.2 -7.70949 4.20217e+06 -1.23153e+06 -1.04156e+06 -1.10387e+06 -1.51504e+06 -1.99915e+06
240 1 Mg 4.83434 40.3252 4.4844 1.2 -8.43131 -1.37164e+06 2.79868e+06 3.01032e+06 1.29346e+06 -59978.6 -446092
241 2 Si 3.02698 42.39 4.4844 2.4 -32.2586 1.02719e+07 9.77638e+06 7.76058e+06 715999 117396 -913123
242 3 O 3.05433 44.0033 4.4844 -1.2 -9.73893 -3.47348e+06 -736345 -3.34629e+06 635267 -105837 218626
243 3 O -3.60077 41.416 4.4844 -1.2 -9.59475 -2.9934e+06 -2.86417e+06 -2.82677e+06 -1.35557e+06 -106240 393162
244 3 O 3.71851 41.6839 3.18632 -1.2 -9.24905 -2.21653e+06 -4.07361e+06 -1.09241e+06 -846615 178278 1.62511e+06
245 1 Mg 2.04077 40.3665 0 1.2 -5.97757 1.86124e+06 2.37563e+06 -4.22823e+06 -1.83727e+06 405435 1.1829e+06
246 3 O 3.70011 41.6839 5.78248 -1.2 -9.32082 -2.10768e+06 -4.04026e+06 -1.53663e+06 -890978 -381987 -542517
247 1 Mg -0.796865 40.4078 1.4948 1.2 -8.56164 -1.3578e+06 2.97905e+06 3.92377e+06 1.74473e+06 54755.8 -355437
248 2 Si 1.01387 38.3429 1.4948 2.4 -33.1931 1.02072e+07 9.20601e+06 9.93564e+06 1.53313e+06 1.5196e+06 1.01986e+06
249 3 O 0.989947 36.7297 1.4948 -1.2 -8.28897 -6.21568e+06 -469878 -1.0139e+07 1.02869e+06 -6.65994e+06 2.42461e+06
250 3 O 7.63988 39.317 1.4948 -1.2 -9.81608 -3.86526e+06 -1.18991e+06 -1.5735e+06 -926041 -246928 1.5177e+06
251 3 O 0.340253 39.0491 0.196716 -1.2 -7.38717 -4.18325e+06 -1.1935e+07 -5.38353e+06 389650 -5.89357e+06 -1.09613e+06
252 3 O 0.319795 39.0491 2.79288 -1.2 -9.13927 -1.80415e+06 -4.20719e+06 -1.74043e+06 -841344 -245182 1.41805e+06
253 1 Mg 7.20667 42.741 0 1.2 -6.10424 1.49837e+06 2.29919e+06 -4.01345e+06 1.99154e+06 947673 -2.3035e+06
254 1 Mg 4.50613 47.4487 1.4948 1.2 -8.81639 -1.41734e+06 2.95705e+06 3.82982e+06 -860668 422622 472241
255 2 Si 6.29731 44.7645 1.4948 2.4 -33.1637 1.10231e+07 8.35812e+06 9.96235e+06 -247163 912245 -1.36426e+06
256 3 O 6.36567 46.3778 1.4948 -1.2 -9.13032 -5.07804e+06 -440909 -4.7964e+06 189838 -2.69884e+06 -1.61512e+06
257 3 O 2.669 43.7905 1.4948 -1.2 -9.64992 -3.7617e+06 -1.47342e+06 -1.89309e+06 1.72598e+06 -205012 -808516
258 3 O 5.58048 44.0584 0.196716 -1.2 -7.9593 -4.07816e+06 -8.3208e+06 -3.26729e+06 333884 -3.7168e+06 2.4237e+06
259 1 Mg 7.1879 42.741 2.9896 1.2 -7.69437 4.14367e+06 -1.25767e+06 -949824 1.29937e+06 -1.63382e+06 1.63237e+06
260 3 O 5.56564 44.0584 2.79288 -1.2 -9.05175 -1.87891e+06 -4.14126e+06 -1.68449e+06 1.14168e+06 -291054 -1.0605e+06
261 1 Mg -0.19105 42.7823 4.4844 1.2 -8.38528 -1.39016e+06 2.88785e+06 2.72475e+06 -429932 -125519 -329387
262 2 Si -1.97909 45.4664 4.4844 2.4 -32.4337 1.05962e+07 9.74672e+06 7.79925e+06 160125 -298040 -8170.64
263 3 O -2.04947 43.8532 4.4844 -1.2 -9.73976 -3.44714e+06 -628826 -3.31428e+06 402247 111777 245637
264 3 O 1.65063 46.4405 4.4844 -1.2 -9.42301 -3.27741e+06 -3.074e+06 -2.6621e+06 2.24867e+06 -240168 -188342
265 3 O -1.24745 46.1726 3.18632 -1.2 -9.06726 -2.49669e+06 -3.88505e+06 -1.13723e+06 1.12726e+06 135189 -1.62007e+06
266 3 O -1.26044 46.1726 5.78248 -1.2 -9.25322 -2.42262e+06 -3.95055e+06 -1.12143e+06 1.13479e+06 106950 1.4237e+06
267 1 Mg 2.15896 45.1155 2.9896 1.2 -7.80258 4.32146e+06 -1.14906e+06 -1.0785e+06 -1.06944e+06 -1.65409e+06 -1.47435e+06
268 1 Mg 4.97763 45.0742 4.4844 1.2 -8.46098 -1.22858e+06 3.05163e+06 2.6615e+06 1.19459e+06 -18175.1 -23974.6
269 2 Si 3.1711 47.139 4.4844 2.4 -32.71 1.06996e+07 9.68265e+06 8.15814e+06 812538 43747.4 695246