ITEM: TIMESTEP
42600
ITEM: NUMBER OF ATOMS
10500
ITEM: BOX BOUNDS xy xz yz pp pp pp
0.0000000000000000e+00 1.5297749999999999e+01 5.0992499999999996e+00
0.0000000000000000e+00 1.1872499999999999e+02 0.0000000000000000e+00
0.0000000000000000e+00 8.9688000000000002e+01 0.0000000000000000e+00
ITEM: ATOMS id type element xu yu zu q c_pe c_s[1] c_s[2] c_s[3] c_s[4] c_s[5] c_s[6]
1 1 Mg 6.2404 -6.37941e-06 0 1.2 -4.50838 7.96103e+06 -2.18962e+06 -5.80996e+06 -3550.41 2.61469e+06 71787.5
2 1 Mg 3.46349 4.70768 1.4948 1.2 -8.58678 -122310 2.42849e+06 4.54744e+06 -929524 -614306 198163
3 2 Si 5.2885 2.02354 1.4948 2.4 -35.4468 1.0303e+07 1.02665e+07 1.20151e+07 8.88222e+06 686403 -2.65391e+06
4 3 O 5.33628 3.63678 1.4948 -1.2 -4.61619 -986590 -1.14035e+06 -3.39746e+07 -337553 3.80155e+06 -4.03296e+06
5 3 O 1.67294 1.04952 1.4948 -1.2 -0.966957 -2.04894e+07 -7.90139e+07 -2.44179e+06 -2.41131e+07 -103185 -328136
6 3 O 4.59532 1.31737 0.196716 -1.2 -2.94737 -2.07469e+06 -6.34482e+06 -3.08361e+07 -6.02893e+06 6.28674e+06 -2.90055e+06
7 1 Mg 6.18956 -6.37941e-06 2.9896 1.2 -5.02738 1.70654e+06 -2.85647e+07 -2.62236e+06 -8.8207e+06 2.46995e+06 4.33323e+06
8 3 O 4.55118 1.31737 2.79288 -1.2 -7.39367 -67729.9 -4.3048e+06 -3.51846e+06 -2.98122e+06 -3.3984e+06 -1.34062e+06
9 1 Mg -1.20682 0.0413099 4.4844 1.2 8.78156 -3.058e+07 -9.37398e+07 146173 -2.84982e+07 -1.16408e+06 523071
10 2 Si -3.0337 2.72544 4.4844 2.4 -33.5064 1.48679e+07 6.07654e+06 9.11617e+06 1.64419e+06 350053 -280523
11 3 O -3.08099 1.11221 4.4844 -1.2 -9.45191 -6.42657e+06 481892 -2.60183e+06 -1.26543e+06 -288443 -36313
12 3 O 0.582463 3.69946 4.4844 -1.2 -8.78787 -3.50789e+06 -5.04407e+06 -3.32864e+06 -528180 9089.48 -52343
13 3 O -2.29524 3.43162 3.18632 -1.2 -8.91026 -4.38207e+06 -2.13877e+06 -1.03519e+06 1.11448e+06 -872400 -1.07246e+06
14 3 O -2.34216 3.43162 5.78248 -1.2 -8.55721 -4.16429e+06 -2.72059e+06 -2.28965e+06 852142 353024 1.22359e+06
15 1 Mg 1.12778 2.37449 2.9896 1.2 -7.73334 5.38763e+06 -2.07223e+06 -244648 -3.30241e+06 -4.24942e+06 -2.10093e+06
16 1 Mg 3.92855 2.33318 4.4844 1.2 -8.625 -3.78698e+06 4.45011e+06 5.1841e+06 1.4429e+06 296150 588922
17 2 Si 2.09341 4.39804 4.4844 2.4 -32.6574 1.27421e+07 6.10674e+06 9.40037e+06 327281 -424585 423864
18 3 O 2.09991 6.01128 4.4844 -1.2 -9.38881 -4.34357e+06 188365 -3.95481e+06 459141 -154618 -61536.6
19 3 O -4.52137 3.42402 4.4844 -1.2 -9.00725 -3.21914e+06 -2.48847e+06 -3.94131e+06 -2.46459e+06 -981290 -25102.6
20 3 O 2.80834 3.69187 3.18632 -1.2 -9.20357 -2.39775e+06 -2.45601e+06 -718661 431055 -459332 -558681
21 1 Mg 1.17857 2.37449 0 1.2 -5.21073 -434417 -1.51483e+07 -6.15133e+06 6.50975e+06 1.21413e+06 4.73779e+06
22 3 O 2.76143 3.69187 5.78248 -1.2 -9.18886 -3.31367e+06 -2.00642e+06 -1.3528e+06 413673 86583.8 53650.5
23 1 Mg -1.67381 2.41581 1.4948 1.2 -7.68635 1.69318e+06 -582018 4.47034e+06 1.3534e+06 -562223 1.20506e+06
24 2 Si 0.16286 0.350945 1.4948 2.4 -24.71 -7.94769e+06 1.1719e+07 1.21164e+07 1.56246e+06 2.86023e+06 1.73958e+06
25 3 O 0.15972 -1.26229 1.4948 -1.2 -4.7153 -1.07613e+07 -7.70462e+06 -2.92643e+07 -5.59355e+06 -8.54489e+06 -2.94874e+06
26 3 O 6.77654 1.32496 1.4948 -1.2 -10.2611 -5.86159e+06 2.13392e+06 -1.77549e+06 -654345 -666333 829111
27 3 O -0.508028 1.05712 0.196716 -1.2 -9.45026 -27902.8 -4.33838e+06 -1.02474e+06 -548497 151114 -4.77183e+06
28 3 O -0.552171 1.05712 2.79288 -1.2 -6.68515 -5.47359e+06 -4.1936e+06 -2.51042e+07 1.44217e+06 -6.79946e+06 -5.78857e+06
29 1 Mg 6.31713 4.74899 0 1.2 -5.04161 521373 -1.31631e+07 -5.83301e+06 -7.31533e+06 1.42181e+06 -3.44228e+06
30 1 Mg 3.54847 9.45668 1.4948 1.2 -8.42756 424927 1.6277e+06 4.52454e+06 -962758 -890706 -93059.6
31 2 Si 5.36879 6.77254 1.4948 2.4 -34.5201 7.63863e+06 1.17056e+07 1.19112e+07 1.64391e+06 220044 -1.63533e+06
32 3 O 5.41937 8.38578 1.4948 -1.2 -4.6543 -479361 -821915 -3.53438e+07 781054 1.07437e+06 -4.42013e+06
33 3 O 1.75158 5.79852 1.4948 -1.2 -9.39185 -4.20334e+06 -2.13611e+06 -1.62552e+06 1.95608e+06 -1.58346e+06 -1.45474e+06
34 3 O 4.67421 6.06637 0.196716 -1.2 -3.67125 -32897.1 -9.89957e+06 -3.16658e+07 -1.99445e+06 1.27704e+06 -4.59295e+06
35 1 Mg 6.26654 4.74899 2.9896 1.2 -8.16755 4.30965e+06 -1.9414e+06 287924 1.79496e+06 -779659 2.03172e+06
36 3 O 4.63043 6.06637 2.79288 -1.2 -8.72645 -1.82753e+06 -3.77996e+06 -2.36569e+06 927135 -176592 -1.57083e+06
37 1 Mg -1.12976 4.79031 4.4844 1.2 -8.98739 -467689 2.46735e+06 3.26938e+06 -789357 -510746 -167092
38 2 Si -2.9517 7.47444 4.4844 2.4 -33.1932 1.14573e+07 8.81964e+06 9.06766e+06 -75650.3 -58733.8 11020.9
39 3 O -3.00198 5.86121 4.4844 -1.2 -9.25902 -4.12084e+06 6295.19 -4.05449e+06 135076 -297293 29644.6
40 3 O 0.666315 8.44846 4.4844 -1.2 -9.1913 -3.67992e+06 -2.63769e+06 -3.02989e+06 2.06294e+06 -382034 -66179.7
41 3 O -2.21213 8.18062 3.18632 -1.2 -8.9629 -3.07666e+06 -3.32435e+06 -776920 1.11576e+06 -240102 -1.5463e+06
42 3 O -2.25864 8.18062 5.78248 -1.2 -8.78137 -2.93412e+06 -3.79287e+06 -1.98232e+06 1.09769e+06 144838 1.37669e+06
43 1 Mg 1.20893 7.12349 2.9896 1.2 -8.10374 4.37761e+06 -1.73583e+06 -108691 -1.25768e+06 -1.36813e+06 -1.59372e+06
44 1 Mg 4.00982 7.08218 4.4844 1.2 -8.7983 -604225 2.44625e+06 3.17613e+06 1.04565e+06 -116203 187521
45 2 Si 2.17861 9.14704 4.4844 2.4 -33.0103 1.17557e+07 9.00629e+06 8.25304e+06 614927 134817 502763
46 3 O 2.18828 10.7603 4.4844 -1.2 -9.34243 -4.15169e+06 -228538 -3.78384e+06 457768 -288828 -357380
47 3 O -4.43805 8.17302 4.4844 -1.2 -9.14516 -3.48403e+06 -2.60126e+06 -3.2892e+06 -1.47526e+06 -587136 -131707
48 3 O 2.89193 8.44087 3.18632 -1.2 -8.99938 -3.02096e+06 -3.52093e+06 -731618 -929413 -298319 1.09684e+06
49 1 Mg 1.25915 7.12349 0 1.2 -5.41215 1.12513e+06 -7.79841e+06 -6.10178e+06 5.91322e+06 1.36881e+06 2.77354e+06
50 3 O 2.84547 8.44087 5.78248 -1.2 -8.94397 -3.11126e+06 -3.87628e+06 -1.53698e+06 -865572 -433319 -1.30679e+06
51 1 Mg -1.59284 7.16481 1.4948 1.2 -8.36022 975090 1.19303e+06 4.50015e+06 1.45389e+06 -953602 477978
52 2 Si 0.240329 5.09994 1.4948 2.4 -34.2899 8.65994e+06 1.03936e+07 1.18338e+07 -1.95456e+06 -1.12297e+06 2.14107e+06
53 3 O 0.234538 3.48671 1.4948 -1.2 -5.11402 -1.94907e+06 743910 -3.41355e+07 405115 5.19844e+06 3.83672e+06
54 3 O 6.85564 6.07396 1.4948 -1.2 -9.46458 -4.5661e+06 -1.60396e+06 -1.63938e+06 -1.33006e+06 -1.84211e+06 1.02546e+06
55 3 O -0.429565 5.80612 0.196716 -1.2 -3.91617 -827898 -8.52006e+06 -3.18145e+07 1.83575e+06 1.21504e+06 4.42036e+06
56 3 O -0.473377 5.80612 2.79288 -1.2 -8.80911 -2.3326e+06 -3.3295e+06 -2.28097e+06 -768930 383796 1.26899e+06
57 1 Mg 6.40169 9.49799 0 1.2 -5.35142 1.68186e+06 -6.59639e+06 -6.44682e+06 -5.49869e+06 1.00785e+06 -2.24858e+06
58 1 Mg 3.64209 14.2057 1.4948 1.2 -8.48855 313511 1.64462e+06 4.67583e+06 -1.04243e+06 -997378 -112622
59 2 Si 5.45748 11.5215 1.4948 2.4 -34.4511 7.83359e+06 1.14743e+07 1.18131e+07 873689 331668 -1.71729e+06
60 3 O 5.51101 13.1348 1.4948 -1.2 -4.70546 -653423 -733395 -3.49967e+07 470175 -2.51263e+06 -4.53501e+06
61 3 O 1.83851 10.5475 1.4948 -1.2 -9.48552 -4.37629e+06 -1.76463e+06 -1.40236e+06 1.53382e+06 -1.59302e+06 -1.34344e+06
62 3 O 4.7611 10.8154 0.196716 -1.2 -3.55447 470601 -1.13115e+07 -3.21671e+07 -2.47232e+06 -1.77342e+06 -4.50916e+06
63 1 Mg 6.35203 9.49799 2.9896 1.2 -8.09629 4.24611e+06 -1.65094e+06 -55428.5 1.28559e+06 -1.18229e+06 2.16069e+06
64 3 O 4.71833 10.8154 2.79288 -1.2 -8.75558 -1.98809e+06 -3.72133e+06 -2.22835e+06 1.09051e+06 15020.6 -1.54425e+06
65 1 Mg -1.0438 9.53931 4.4844 1.2 -8.78851 -653601 2.54078e+06 3.02556e+06 -493311 -442970 83013.4
66 2 Si -2.8604 12.2234 4.4844 2.4 -33.1469 1.18997e+07 8.84993e+06 8.51579e+06 18627.3 -175625 431759
67 3 O -2.91391 10.6102 4.4844 -1.2 -9.33082 -4.08811e+06 -227920 -3.75721e+06 224067 -123490 -158851
68 3 O 0.7596 13.1975 4.4844 -1.2 -9.06372 -3.62882e+06 -2.56997e+06 -3.35622e+06 2.12153e+06 -603938 -312061
69 3 O -2.12001 12.9296 3.18632 -1.2 -8.9461 -3.14879e+06 -3.3584e+06 -705725 1.11948e+06 -224499 -1.73388e+06
70 3 O -2.16532 12.9296 5.78248 -1.2 -8.80905 -3.39717e+06 -3.628e+06 -1.55578e+06 968275 -73283.3 1.12669e+06
71 1 Mg 1.29891 11.8725 2.9896 1.2 -8.11703 4.37586e+06 -1.62884e+06 -195830 -1.16738e+06 -1.18099e+06 -1.38619e+06
72 1 Mg 4.10033 11.8312 4.4844 1.2 -8.84802 -546285 2.50341e+06 3.14234e+06 1.01427e+06 -322383 371292
73 2 Si 2.27333 13.896 4.4844 2.4 -33.3184 1.17142e+07 8.67914e+06 9.11504e+06 550214 -53065.9 574203
74 3 O 2.28634 15.5093 4.4844 -1.2 -9.20265 -4.19288e+06 -63331.6 -4.13407e+06 507228 -136181 -97418.1
75 3 O -4.34533 12.922 4.4844 -1.2 -9.12672 -3.74694e+06 -2.51396e+06 -3.15364e+06 -1.43494e+06 -378522 -273615
76 3 O 2.98455 13.1899 3.18632 -1.2 -8.94758 -3.04191e+06 -3.44654e+06 -891476 -918584 -145798 1.03766e+06
77 1 Mg 1.34779 11.8725 0 1.2 -5.57348 2.9007e+06 -2.99431e+06 -6.52461e+06 3.55833e+06 804516 1.82428e+06
78 3 O 2.93934 13.1899 5.78248 -1.2 -8.6726 -3.12981e+06 -3.73867e+06 -2.13756e+06 -756747 -96106 -1.54e+06
79 1 Mg -1.50344 11.9138 1.4948 1.2 -8.42638 666362 1.60051e+06 4.4912e+06 1.57511e+06 -947707 628049
80 2 Si 0.326006 9.84894 1.4948 2.4 -34.4129 7.95855e+06 1.15235e+07 1.15501e+07 -575261 78463.6 2.73283e+06
81 3 O 0.317364 8.23571 1.4948 -1.2 -4.66304 -640555 -683981 -3.54366e+07 -138594 1.20931e+06 4.00813e+06
82 3 O 6.94307 10.823 1.4948 -1.2 -9.52047 -4.50035e+06 -1.58847e+06 -1.35739e+06 -980696 -1.51872e+06 846902
83 3 O -0.343122 10.5551 0.196716 -1.2 -3.65432 154947 -1.07815e+07 -3.21867e+07 2.46539e+06 -2.03247e+06 4.27624e+06
84 3 O -0.385966 10.5551 2.79288 -1.2 -8.80487 -2.08979e+06 -3.77615e+06 -2.13963e+06 -899696 117046 886957
85 1 Mg 6.49448 14.247 0 1.2 -5.53491 3.33608e+06 -2.19179e+06 -6.63937e+06 -2.95525e+06 235018 -1.37182e+06
86 1 Mg 3.74457 18.9547 1.4948 1.2 -8.55214 105379 1.86249e+06 4.69082e+06 -1.11815e+06 -1.02044e+06 -330710
87 2 Si 5.55495 16.2705 1.4948 2.4 -34.4258 8.15011e+06 1.11332e+07 1.18158e+07 539294 716352 -2.12041e+06
88 3 O 5.6115 17.8838 1.4948 -1.2 -5.03001 -1.68305e+06 -673403 -3.22762e+07 73394.6 -6.02385e+06 -4.1356e+06
89 3 O 1.93416 15.2965 1.4948 -1.2 -9.51471 -4.43163e+06 -1.4015e+06 -1.41332e+06 1.54471e+06 -1.37987e+06 -1.18143e+06
90 3 O 4.85636 15.5644 0.196716 -1.2 -3.59571 502152 -1.30185e+07 -3.05922e+07 -3.0419e+06 -5.08074e+06 -3.85467e+06
91 1 Mg 6.44662 14.247 2.9896 1.2 -8.10366 4.47607e+06 -1.75765e+06 -167886 1.30077e+06 -1.2295e+06 2.17922e+06
92 3 O 4.81537 15.5644 2.79288 -1.2 -8.71539 -2.07935e+06 -3.64682e+06 -2.30851e+06 1.06923e+06 46866.8 -1.3915e+06
93 1 Mg -0.948271 14.2883 4.4844 1.2 -8.88809 -512193 2.37076e+06 3.20611e+06 -499475 -158364 205611
94 2 Si -2.75928 16.9724 4.4844 2.4 -33.2677 1.22728e+07 8.59167e+06 8.59345e+06 35899.1 -31136.6 77422.6
95 3 O -2.81617 15.3592 4.4844 -1.2 -9.26969 -4.4004e+06 -17981.4 -3.75251e+06 242239 -174399 -154097
96 3 O 0.862762 17.9465 4.4844 -1.2 -9.00797 -3.59527e+06 -2.63559e+06 -3.41525e+06 2.22145e+06 -544181 82975.8
97 3 O -2.0185 17.6786 3.18632 -1.2 -8.9091 -3.17058e+06 -3.34774e+06 -775189 1.15137e+06 -204236 -1.51175e+06
98 3 O -2.06164 17.6786 5.78248 -1.2 -8.7081 -3.54899e+06 -3.57279e+06 -1.55273e+06 1.07431e+06 -117801 1.37348e+06
99 1 Mg 1.39817 16.6215 2.9896 1.2 -8.15271 4.45438e+06 -1.6895e+06 -158659 -1.18395e+06 -1.20597e+06 -1.60897e+06
100 1 Mg 4.20062 16.5802 4.4844 1.2 -8.90812 -344446 2.38706e+06 3.15349e+06 1.14976e+06 -425436 68168.6
101 2 Si 2.37796 18.645 4.4844 2.4 -33.3259 1.17812e+07 8.82937e+06 8.91182e+06 634379 -281496 -224313
102 3 O 2.39434 20.2583 4.4844 -1.2 -9.25641 -4.20028e+06 -224290 -3.87309e+06 516226 -26492.6 248016
103 3 O -4.24274 17.671 4.4844 -1.2 -9.09531 -3.93688e+06 -2.43801e+06 -3.09642e+06 -1.46792e+06 -434040 -7573.73
104 3 O 3.08659 17.9389 3.18632 -1.2 -8.92746 -3.08149e+06 -3.47878e+06 -890495 -931710 1104.95 1.35251e+06
105 1 Mg 1.44478 16.6215 0 1.2 -5.65861 4.53675e+06 -622.593 -6.5753e+06 1.39611e+06 -34565.6 974411
106 3 O 3.0436 17.9389 5.78248 -1.2 -8.65276 -3.23567e+06 -3.75771e+06 -2.05574e+06 -867276 119229 -1.16081e+06
107 1 Mg -1.40524 16.6628 1.4948 1.2 -8.50505 476141 1.72234e+06 4.638e+06 1.69144e+06 -924778 438392
108 2 Si 0.420358 14.5979 1.4948 2.4 -34.4319 8.01568e+06 1.12884e+07 1.17427e+07 -140920 638073 2.84573e+06
109 3 O 0.408732 12.9847 1.4948 -1.2 -4.69721 -694937 -717690 -3.51183e+07 221805 -2.58624e+06 4.01925e+06
110 3 O 7.03923 15.572 1.4948 -1.2 -9.5568 -4.58286e+06 -1.25507e+06 -1.309e+06 -954479 -1.30296e+06 901005
111 3 O -0.248332 15.3041 0.196716 -1.2 -3.69841 168288 -1.25319e+07 -3.06327e+07 3.26379e+06 -5.45831e+06 3.86254e+06
112 3 O -0.289436 15.3041 2.79288 -1.2 -8.74708 -2.06857e+06 -3.74051e+06 -2.33131e+06 -857990 -29050.1 928371
113 1 Mg 6.59566 18.996 0 1.2 -5.63878 4.68371e+06 499166 -6.46833e+06 -924612 -673031 -939220
114 1 Mg 3.85574 23.7037 1.4948 1.2 -8.62508 -190232 2.14713e+06 4.67879e+06 -1.19469e+06 -954227 -421748
115 2 Si 5.66125 21.0195 1.4948 2.4 -34.3099 8.55557e+06 1.09677e+07 1.14519e+07 178780 1.20837e+06 -2.62098e+06
116 3 O 5.72074 22.6328 1.4948 -1.2 -5.64879 -3.34153e+06 -686334 -2.72724e+07 -210116 -8.51123e+06 -3.49275e+06
117 3 O 2.03867 20.0455 1.4948 -1.2 -9.55907 -4.42198e+06 -1.25491e+06 -1.29586e+06 1.57265e+06 -1.12154e+06 -864218
118 3 O 4.96004 20.3134 0.196716 -1.2 -3.93808 -183581 -1.45374e+07 -2.66527e+07 -3.17309e+06 -7.91089e+06 -2.64561e+06
119 1 Mg 6.55057 18.996 2.9896 1.2 -8.08959 4.58298e+06 -1.7153e+06 -339153 1.31975e+06 -1.19149e+06 1.90011e+06
120 3 O 4.92172 20.3134 2.79288 -1.2 -8.72872 -2.07976e+06 -3.8049e+06 -2.16424e+06 1.07273e+06 -43294.8 -1.10178e+06
121 1 Mg -0.84282 19.0373 4.4844 1.2 -8.91755 -630473 2.48328e+06 3.25022e+06 -536165 -134637 -93217.6
122 2 Si -2.64823 21.7214 4.4844 2.4 -33.2108 1.20523e+07 9.004e+06 8.31693e+06 -15390.2 160743 -365660
123 3 O -2.70847 20.1082 4.4844 -1.2 -9.27399 -4.33657e+06 -169380 -3.64877e+06 284840 -262514 151869
124 3 O 0.97581 22.6955 4.4844 -1.2 -9.06778 -3.53804e+06 -2.85753e+06 -3.15785e+06 2.17993e+06 -408758 305940
125 3 O -1.9076 22.4276 3.18632 -1.2 -8.91997 -3.0668e+06 -3.52305e+06 -722002 1.17059e+06 -133778 -1.29519e+06
126 3 O -1.9475 22.4276 5.78248 -1.2 -8.71887 -3.25462e+06 -3.774e+06 -1.71677e+06 1.24915e+06 -301245 1.58244e+06
127 1 Mg 1.50678 21.3705 2.9896 1.2 -8.10945 4.50528e+06 -1.52627e+06 -442053 -1.164e+06 -1.29463e+06 -1.83381e+06
128 1 Mg 4.31086 21.3292 4.4844 1.2 -8.8431 -368403 2.59386e+06 2.86909e+06 1.19947e+06 -373875 -173868
129 2 Si 2.49243 23.394 4.4844 2.4 -33.1949 1.17204e+07 9.31597e+06 8.27142e+06 775113 -311318 -398719
130 3 O 2.51204 25.0073 4.4844 -1.2 -9.26443 -4.14281e+06 -356167 -3.79883e+06 517685 -37911.7 148849
131 3 O -4.13026 22.42 4.4844 -1.2 -9.14993 -3.89472e+06 -2.64542e+06 -2.84145e+06 -1.38792e+06 -497264 133358
132 3 O 3.19799 22.6879 3.18632 -1.2 -8.95701 -3.03752e+06 -3.68336e+06 -740523 -925081 89031.7 1.50257e+06
133 1 Mg 1.5501 21.3705 0 1.2 -5.70784 5.38324e+06 1.65276e+06 -6.21823e+06 -59280 -997314 298316
134 3 O 3.1583 22.6879 5.78248 -1.2 -8.8036 -3.15204e+06 -4.00204e+06 -1.64961e+06 -943933 26755.5 -953820
135 1 Mg -1.29822 21.4118 1.4948 1.2 -8.56961 200163 2.0222e+06 4.61317e+06 1.80834e+06 -901883 135360
136 2 Si 0.523568 19.3469 1.4948 2.4 -34.3615 8.28101e+06 1.1133e+07 1.15481e+07 303067 1.03184e+06 2.43966e+06
137 3 O 0.508934 17.7337 1.4948 -1.2 -5.01664 -1.69156e+06 -662929 -3.24339e+07 673457 -6.11441e+06 4.05881e+06
138 3 O 7.14425 20.321 1.4948 -1.2 -9.6017 -4.57266e+06 -1.11349e+06 -1.19791e+06 -938605 -1.10104e+06 1.11961e+06
139 3 O -0.145107 20.0531 0.196716 -1.2 -4.04532 -569762 -1.41961e+07 -2.66392e+07 3.66956e+06 -8.22932e+06 3.14996e+06
140 3 O -0.183601 20.0531 2.79288 -1.2 -8.74936 -1.99653e+06 -3.91045e+06 -2.27834e+06 -832651 -54009 1.17541e+06
141 1 Mg 6.70502 23.745 0 1.2 -5.73227 5.21818e+06 1.86751e+06 -5.83754e+06 409090 -1.46642e+06 -797360
142 1 Mg 3.97493 28.4527 1.4948 1.2 -8.72259 -513255 2.30323e+06 4.76928e+06 -1.21688e+06 -811728 -444747
143 2 Si 5.77602 25.7685 1.4948 2.4 -34.1818 9.21347e+06 1.04425e+07 1.12016e+07 -134851 1.52633e+06 -2.81561e+06
144 3 O 5.83821 27.3818 1.4948 -1.2 -6.43712 -5.10313e+06 -526611 -2.1172e+07 -335848 -9.28339e+06 -2.78327e+06
145 3 O 2.15175 24.7945 1.4948 -1.2 -9.57485 -4.37524e+06 -1.11989e+06 -1.31862e+06 1.61062e+06 -895479 -692151
146 3 O 5.07184 25.0624 0.196716 -1.2 -4.55607 -1.46745e+06 -1.52361e+07 -2.1059e+07 -2.7757e+06 -9.4218e+06 -1.20455e+06
147 1 Mg 6.66374 23.745 2.9896 1.2 -8.05256 4.62567e+06 -1.60242e+06 -551153 1.29611e+06 -1.20627e+06 1.73875e+06
148 3 O 5.03707 25.0624 2.79288 -1.2 -8.73401 -2.07992e+06 -3.8846e+06 -2.11695e+06 1.11486e+06 -110334 -998227
149 1 Mg -0.727559 23.7863 4.4844 1.2 -8.88316 -753670 2.67825e+06 3.11531e+06 -474223 -183200 -298636
150 2 Si -2.5277 26.4704 4.4844 2.4 -33.171 1.2091e+07 9.08773e+06 8.13316e+06 16150.3 15825.1 -539709
151 3 O -2.59107 24.8572 4.4844 -1.2 -9.3008 -4.27543e+06 -269819 -3.55722e+06 367560 -190539 277659
152 3 O 1.09817 27.4445 4.4844 -1.2 -9.03144 -3.59356e+06 -2.76103e+06 -3.26408e+06 2.23583e+06 -526221 346870
153 3 O -1.78784 27.1766 3.18632 -1.2 -8.90992 -3.07158e+06 -3.53302e+06 -781357 1.17198e+06 -46367.8 -1.22174e+06
154 3 O -1.82343 27.1766 5.78248 -1.2 -8.77115 -3.31222e+06 -3.85607e+06 -1.36285e+06 1.19898e+06 -134633 1.64513e+06
155 1 Mg 1.62435 26.1195 2.9896 1.2 -8.10301 4.57022e+06 -1.52782e+06 -512669 -1.13565e+06 -1.31138e+06 -1.84676e+06
156 1 Mg 4.43064 26.0782 4.4844 1.2 -8.85657 -397607 2.58414e+06 2.92989e+06 1.15243e+06 -408214 -155970
157 2 Si 2.61607 28.143 4.4844 2.4 -33.293 1.16468e+07 9.03693e+06 8.78672e+06 829868 -258659 -696396
158 3 O 2.63853 29.7563 4.4844 -1.2 -9.27741 -4.15606e+06 -294557 -3.8235e+06 514878 -71784.4 433932
159 3 O -4.00841 27.169 4.4844 -1.2 -9.16056 -3.9476e+06 -2.64778e+06 -2.76721e+06 -1.3482e+06 -383197 196616
160 3 O 3.3182 27.4369 3.18632 -1.2 -8.92698 -2.97911e+06 -3.64195e+06 -963754 -914908 182146 1.56721e+06
161 1 Mg 1.66335 26.1195 0 1.2 -5.81386 5.24194e+06 2.2544e+06 -5.2895e+06 -893890 -1.60019e+06 -38042.6
162 3 O 3.28288 27.4369 5.78248 -1.2 -8.63979 -3.03714e+06 -3.86372e+06 -2.21256e+06 -984759 229391 -943519
163 1 Mg -1.18278 26.1608 1.4948 1.2 -8.65949 -82318.7 2.21463e+06 4.65501e+06 1.88976e+06 -802581 -80429.1
164 2 Si 0.635424 24.0959 1.4948 2.4 -34.2425 8.78022e+06 1.08256e+07 1.1233e+07 768990 1.3642e+06 2.10462e+06
165 3 O 0.617906 22.4827 1.4948 -1.2 -5.63676 -3.3491e+06 -682439 -2.74225e+07 1.0052e+06 -8.53507e+06 3.83441e+06
166 3 O 7.25781 25.07 1.4948 -1.2 -9.62169 -4.55626e+06 -975680 -1.20034e+06 -930369 -864899 1.27289e+06
167 3 O -0.0337363 24.8021 0.196716 -1.2 -4.65201 -1.82232e+06 -1.51906e+07 -2.10077e+07 3.49371e+06 -9.64223e+06 2.09485e+06
168 3 O -0.0687235 24.8021 2.79288 -1.2 -8.76052 -2.00016e+06 -4.03247e+06 -2.18789e+06 -856414 -108062 1.26e+06
169 1 Mg 6.82195 28.494 0 1.2 -5.88115 4.82071e+06 2.28997e+06 -4.74453e+06 1.1486e+06 -1.81089e+06 -794617
170 1 Mg 4.10106 33.2017 1.4948 1.2 -8.78576 -894050 2.56564e+06 4.64848e+06 -1.20589e+06 -541541 -401619
171 2 Si 5.89839 30.5175 1.4948 2.4 -34.0125 9.93864e+06 9.77766e+06 1.09531e+07 -331034 1.68601e+06 -2.80299e+06
172 3 O 5.96289 32.1308 1.4948 -1.2 -7.2935 -6.22197e+06 -456350 -1.50961e+07 -284348 -8.46543e+06 -2.11117e+06
173 3 O 2.27266 29.5435 1.4948 -1.2 -9.56525 -4.32599e+06 -980877 -1.47405e+06 1.65074e+06 -692638 -561973
174 3 O 5.19102 29.8114 0.196716 -1.2 -5.37567 -2.85987e+06 -1.47722e+07 -1.50151e+07 -1.93272e+06 -9.28578e+06 177783
175 1 Mg 6.78546 28.494 2.9896 1.2 -8.03838 4.70734e+06 -1.6428e+06 -609669 1.30963e+06 -1.29392e+06 1.66406e+06
176 3 O 5.16061 29.8114 2.79288 -1.2 -8.73871 -2.09805e+06 -3.8619e+06 -2.15174e+06 1.09096e+06 -187734 -882567
177 1 Mg -0.603205 28.5353 4.4844 1.2 -8.88899 -695179 2.60638e+06 3.13126e+06 -532573 -110070 -304000
178 2 Si -2.39877 31.2194 4.4844 2.4 -33.1279 1.18599e+07 8.98626e+06 8.40315e+06 12087 -135696 -728428
179 3 O -2.46483 29.6062 4.4844 -1.2 -9.30487 -4.25628e+06 -200065 -3.62532e+06 421789 -119753 265755
180 3 O 1.22864 32.1935 4.4844 -1.2 -9.14316 -3.58678e+06 -2.89458e+06 -2.96636e+06 2.25183e+06 -374569 419343
181 3 O -1.66032 31.9256 3.18632 -1.2 -8.92375 -2.95135e+06 -3.59196e+06 -897371 1.17209e+06 76579 -1.1279e+06
182 3 O -1.69072 31.9256 5.78248 -1.2 -8.82383 -3.08292e+06 -3.79127e+06 -1.49931e+06 1.19861e+06 -21658.4 1.86021e+06
183 1 Mg 1.7499 30.8685 2.9896 1.2 -8.0636 4.63997e+06 -1.49559e+06 -671244 -1.13253e+06 -1.3905e+06 -1.96492e+06
184 1 Mg 4.55894 30.8272 4.4844 1.2 -8.82766 -529227 2.58485e+06 3.01649e+06 1.27574e+06 -220827 -323323
185 2 Si 2.7476 32.892 4.4844 2.4 -33.0489 1.15441e+07 9.33779e+06 8.18927e+06 771983 -122101 -673743
186 3 O 2.77235 34.5053 4.4844 -1.2 -9.37309 -4.03701e+06 -398249 -3.69945e+06 586886 -53646.7 284891
187 3 O -3.87837 31.918 4.4844 -1.2 -9.20042 -3.76824e+06 -2.65895e+06 -2.86744e+06 -1.33376e+06 -350766 327435
188 3 O 3.44611 32.1859 3.18632 -1.2 -8.95997 -2.88744e+06 -3.76455e+06 -974723 -890189 183542 1.63373e+06
189 1 Mg 1.7837 30.8685 0 1.2 -5.95432 4.30958e+06 2.42586e+06 -4.36421e+06 -1.33924e+06 -1.56107e+06 22104.4
190 3 O 3.41602 32.1859 5.78248 -1.2 -8.8727 -2.94341e+06 -4.03695e+06 -1.50721e+06 -874816 -204769 -868310
191 1 Mg -1.05984 30.9098 1.4948 1.2 -8.73768 -423462 2.41489e+06 4.61933e+06 1.90047e+06 -616623 -220232
192 2 Si 0.755243 28.8449 1.4948 2.4 -34.1124 9.51194e+06 1.01191e+07 1.10844e+07 1.13279e+06 1.6095e+06 1.80644e+06
193 3 O 0.735127 27.2317 1.4948 -1.2 -6.42361 -5.11263e+06 -515160 -2.13326e+07 1.17188e+06 -9.32861e+06 3.34097e+06
194 3 O 7.37914 29.819 1.4948 -1.2 -9.61469 -4.50624e+06 -846178 -1.35799e+06 -925522 -636455 1.34639e+06
195 3 O 0.0850649 29.5511 0.196716 -1.2 -5.44422 -3.13307e+06 -1.51066e+07 -1.49437e+07 2.69948e+06 -9.43618e+06 803878
196 3 O 0.0543974 29.5511 2.79288 -1.2 -8.7685 -2.06249e+06 -4.00529e+06 -2.19e+06 -816696 -158114 1.32947e+06
197 1 Mg 6.94543 33.243 0 1.2 -6.03837 3.77842e+06 2.40811e+06 -3.89496e+06 1.5675e+06 -1.39744e+06 -1.02554e+06
198 1 Mg 4.23267 37.9507 1.4948 1.2 -8.83973 -1.19993e+06 2.69897e+06 4.49297e+06 -1.12366e+06 -217886 -180125
199 2 Si 6.02709 35.2665 1.4948 2.4 -33.8011 1.06318e+07 9.15276e+06 1.0596e+07 -427090 1.65924e+06 -2.44806e+06
200 3 O 6.09339 36.8798 1.4948 -1.2 -8.05875 -6.49052e+06 -367412 -1.01836e+07 -136832 -6.6416e+06 -1.73516e+06
201 3 O 2.40018 34.2925 1.4948 -1.2 -9.556 -4.22483e+06 -1.0112e+06 -1.6124e+06 1.68931e+06 -496262 -585991
202 3 O 5.31645 34.5604 0.196716 -1.2 -6.27808 -3.89296e+06 -1.31928e+07 -9.67905e+06 -934812 -7.8871e+06 1.30745e+06
203 1 Mg 6.91449 33.243 2.9896 1.2 -7.99129 4.65448e+06 -1.55179e+06 -715032 1.30566e+06 -1.3763e+06 1.59902e+06
204 3 O 5.291 34.5604 2.79288 -1.2 -8.78218 -2.10102e+06 -3.94142e+06 -2.03618e+06 1.12709e+06 -269982 -907586
205 1 Mg -0.471101 33.2843 4.4844 1.2 -8.79441 -862574 2.73286e+06 3.01345e+06 -445182 -171011 -350631
206 2 Si -2.26307 35.9684 4.4844 2.4 -33.0138 1.16146e+07 9.19269e+06 8.26724e+06 96432.2 -168802 -452622
207 3 O -2.33122 34.3552 4.4844 -1.2 -9.38637 -4.0662e+06 -367576 -3.5091e+06 411618 -50627.8 282880
208 3 O 1.36549 36.9425 4.4844 -1.2 -9.17031 -3.53302e+06 -2.91648e+06 -2.96599e+06 2.26298e+06 -338735 212977
209 3 O -1.52658 36.6746 3.18632 -1.2 -8.93031 -2.86923e+06 -3.64683e+06 -1.00922e+06 1.14678e+06 124444 -1.26755e+06
210 3 O -1.55122 36.6746 5.78248 -1.2 -8.86699 -2.97111e+06 -3.77784e+06 -1.6492e+06 1.16954e+06 77428.4 1.64706e+06
211 1 Mg 1.882 35.6175 2.9896 1.2 -8.0215 4.62707e+06 -1.43239e+06 -778936 -1.11313e+06 -1.48609e+06 -1.79363e+06
212 1 Mg 4.69415 35.5762 4.4844 1.2 -8.75921 -637772 2.70366e+06 2.89645e+06 1.22377e+06 -170858 -214929
213 2 Si 2.88522 37.641 4.4844 2.4 -33.0484 1.14206e+07 9.32951e+06 8.3249e+06 761243 -178923 -243477
214 3 O 2.91159 39.2543 4.4844 -1.2 -9.33845 -4.03442e+06 -302527 -3.85336e+06 617603 175.421 143414
215 3 O -3.74183 36.667 4.4844 -1.2 -9.2444 -3.73105e+06 -2.72451e+06 -2.77209e+06 -1.30032e+06 -301625 165146
216 3 O 3.58014 36.9349 3.18632 -1.2 -8.95903 -2.7892e+06 -3.80915e+06 -1.13566e+06 -854426 241448 1.42809e+06
217 1 Mg 1.90997 35.6175 0 1.2 -6.11296 3.08608e+06 2.28926e+06 -3.72862e+06 -1.64469e+06 -837615 525209
218 3 O 3.55582 36.9349 5.78248 -1.2 -8.90755 -2.83824e+06 -4.11901e+06 -1.42299e+06 -893115 -68758.8 -1.03843e+06
219 1 Mg -0.93068 35.6588 1.4948 1.2 -8.78862 -741056 2.60431e+06 4.4371e+06 1.85989e+06 -328452 -179423
220 2 Si 0.881882 33.5939 1.4948 2.4 -33.8988 1.02402e+07 9.56245e+06 1.06415e+07 1.42515e+06 1.58688e+06 1.59923e+06
221 3 O 0.859602 31.9807 1.4948 -1.2 -7.28543 -6.27065e+06 -455413 -1.52046e+07 1.15452e+06 -8.46141e+06 2.79284e+06
222 3 O 7.507 34.568 1.4948 -1.2 -9.60576 -4.41329e+06 -883994 -1.49429e+06 -927933 -445523 1.33348e+06
223 3 O 0.210186 34.3001 0.196716 -1.2 -6.32111 -4.08684e+06 -1.38989e+07 -9.55842e+06 1.51522e+06 -7.89527e+06 -365080
224 3 O 0.184454 34.3001 2.79288 -1.2 -8.82138 -2.09713e+06 -4.09032e+06 -2.03435e+06 -848218 -172796 1.24173e+06
225 1 Mg 7.07415 37.992 0 1.2 -6.18065 2.67069e+06 2.23362e+06 -3.53398e+06 1.87475e+06 -338326 -1.43041e+06
226 1 Mg 4.36817 42.6997 1.4948 1.2 -8.84857 -1.34379e+06 2.8917e+06 4.07639e+06 -987997 130502 -111941
227 2 Si 6.16058 40.0155 1.4948 2.4 -33.6127 1.12429e+07 8.51935e+06 1.0324e+07 -342330 1.38057e+06 -1.90646e+06
228 3 O 6.22815 41.6288 1.4948 -1.2 -8.65464 -6.03959e+06 -375114 -6.76362e+06 12120 -4.55251e+06 -1.46208e+06
229 3 O 2.53282 39.0415 1.4948 -1.2 -9.51148 -4.12679e+06 -1.06342e+06 -1.88949e+06 1.72319e+06 -319720 -770593
230 3 O 5.44674 39.3094 0.196716 -1.2 -7.13304 -4.37608e+06 -1.07875e+07 -5.79126e+06 -160620 -5.83509e+06 1.93913e+06
231 1 Mg 7.04922 37.992 2.9896 1.2 -7.97703 4.68523e+06 -1.54695e+06 -762517 1.29895e+06 -1.47481e+06 1.74387e+06
232 3 O 5.42658 39.3094 2.79288 -1.2 -8.79248 -2.22624e+06 -3.88254e+06 -1.98375e+06 1.12408e+06 -282451 -1.04097e+06
233 1 Mg -0.333062 38.0333 4.4844 1.2 -8.78953 -856020 2.69665e+06 3.03208e+06 -388975 -75328.3 -169958
234 2 Si -2.12255 40.7174 4.4844 2.4 -33.0428 1.16928e+07 9.24292e+06 8.18069e+06 145189 -131249 -211322
235 3 O -2.19212 39.1042 4.4844 -1.2 -9.38193 -4.1117e+06 -350787 -3.49619e+06 415180 -24451.9 179839
236 3 O 1.50676 41.6915 4.4844 -1.2 -9.14729 -3.56328e+06 -2.87471e+06 -3.01492e+06 2.36288e+06 -222019 259981
237 3 O -1.3884 41.4236 3.18632 -1.2 -8.89805 -2.80541e+06 -3.69206e+06 -1.1855e+06 1.15421e+06 119326 -1.34022e+06
238 3 O -1.40713 41.4236 5.78248 -1.2 -8.85189 -3.05396e+06 -3.80912e+06 -1.33622e+06 1.23554e+06 -1587.09 1.41085e+06
239 1 Mg 2.01892 40.3665 2.9896 1.2 -8.03154 4.64078e+06 -1.44358e+06 -752094 -1.11564e+06 -1.596e+06 -1.69001e+06
240 1 Mg 4.83434 40.3252 4.4844 1.2 -8.7852 -581229 2.62044e+06 2.96654e+06 1.27998e+06 -172572 -189363
241 2 Si 3.02698 42.39 4.4844 2.4 -33.0395 1.15507e+07 9.32199e+06 8.18898e+06 789835 -265844 -515537
242 3 O 3.05433 44.0033 4.4844 -1.2 -9.37773 -4.11927e+06 -436648 -3.56867e+06 579100 15974.6 253446
243 3 O -3.60077 41.416 4.4844 -1.2 -9.22843 -3.78611e+06 -2.72696e+06 -2.75572e+06 -1.37505e+06 -241645 94348
244 3 O 3.71851 41.6839 3.18632 -1.2 -8.93749 -2.7723e+06 -3.84366e+06 -1.26379e+06 -856103 263323 1.40126e+06
245 1 Mg 2.04077 40.3665 0 1.2 -6.20614 2.10447e+06 2.15422e+06 -3.88386e+06 -1.85336e+06 364955 1.47593e+06
246 3 O 3.70011 41.6839 5.78248 -1.2 -8.89975 -2.95112e+06 -3.9829e+06 -1.37762e+06 -946327 32518 -872777
247 1 Mg -0.796865 40.4078 1.4948 1.2 -8.81892 -969192 2.75921e+06 4.16717e+06 1.7431e+06 37603.9 -76299.5
248 2 Si 1.01387 38.3429 1.4948 2.4 -33.713 1.09016e+07 8.83193e+06 1.04483e+07 1.52543e+06 1.3983e+06 1.6863e+06
249 3 O 0.989947 36.7297 1.4948 -1.2 -8.05143 -6.5413e+06 -362668 -1.03011e+07 1.03248e+06 -6.60072e+06 2.14353e+06
250 3 O 7.63988 39.317 1.4948 -1.2 -9.56472 -4.32811e+06 -968408 -1.73464e+06 -936595 -284042 1.20959e+06
251 3 O 0.340253 39.0491 0.196716 -1.2 -7.15058 -4.509e+06 -1.16938e+07 -5.67856e+06 397226 -5.79597e+06 -1.40213e+06
252 3 O 0.319795 39.0491 2.79288 -1.2 -8.83203 -2.2029e+06 -4.04117e+06 -1.99912e+06 -850769 -216550 1.05519e+06
253 1 Mg 7.20667 42.741 0 1.2 -6.24589 1.82037e+06 2.16313e+06 -3.97236e+06 2.0174e+06 960562 -2.21624e+06
254 1 Mg 4.50613 47.4487 1.4948 1.2 -8.863 -1.25894e+06 2.97632e+06 3.72686e+06 -857532 433327 -69363.7
255 2 Si 6.29731 44.7645 1.4948 2.4 -33.4699 1.16443e+07 8.12368e+06 1.00663e+07 -209971 966565 -1.68536e+06
256 3 O 6.36567 46.3778 1.4948 -1.2 -9.03658 -5.28529e+06 -401406 -4.77806e+06 177049 -2.71529e+06 -1.21227e+06
257 3 O 2.669 43.7905 1.4948 -1.2 -9.4577 -4.05037e+06 -1.33022e+06 -2.05514e+06 1.73069e+06 -184327 -787746
258 3 O 5.58048 44.0584 0.196716 -1.2 -7.85075 -4.33324e+06 -8.24995e+06 -3.25763e+06 298193 -3.75371e+06 2.47855e+06
259 1 Mg 7.1879 42.741 2.9896 1.2 -7.98788 4.66911e+06 -1.47734e+06 -785323 1.30124e+06 -1.54989e+06 1.7775e+06
260 3 O 5.56564 44.0584 2.79288 -1.2 -8.80757 -2.37329e+06 -3.91885e+06 -1.80062e+06 1.12123e+06 -322829 -1.03257e+06
261 1 Mg -0.19105 42.7823 4.4844 1.2 -8.8239 -904189 2.70227e+06 3.12889e+06 -481930 -82195.3 -160663
262 2 Si -1.97909 45.4664 4.4844 2.4 -33.1224 1.14873e+07 9.40675e+06 8.36148e+06 121182 -103671 -400072
263 3 O -2.04947 43.8532 4.4844 -1.2 -9.34052 -4.01488e+06 -387754 -3.60881e+06 446476 -27475 196953
264 3 O 1.65063 46.4405 4.4844 -1.2 -9.15311 -3.67811e+06 -3.00259e+06 -2.751e+06 2.27475e+06 -98874 154918
265 3 O -1.24745 46.1726 3.18632 -1.2 -8.85113 -2.7385e+06 -3.78295e+06 -1.33523e+06 1.1331e+06 111565 -1.28022e+06
266 3 O -1.26044 46.1726 5.78248 -1.2 -8.80202 -2.79789e+06 -3.95342e+06 -1.54223e+06 1.15553e+06 63497.2 1.60389e+06
267 1 Mg 2.15896 45.1155 2.9896 1.2 -8.0363 4.68407e+06 -1.30407e+06 -911540 -1.07378e+06 -1.71873e+06 -1.69072e+06
268 1 Mg 4.97763 45.0742 4.4844 1.2 -8.772 -555141 2.73596e+06 2.80338e+06 1.24665e+06 6566.8 -167536
269 2 Si 3.1711 47.139 4.4844 2.4 -33.1039 1.16554e+07 9.46435e+06 8.05253e+06 744988 -111099 -178776