ITEM: TIMESTEP
49800
ITEM: NUMBER OF ATOMS
10500
ITEM: BOX BOUNDS xy xz yz pp pp pp
0.0000000000000000e+00 1.5297749999999999e+01 5.0992499999999996e+00
0.0000000000000000e+00 1.1872499999999999e+02 0.0000000000000000e+00
0.0000000000000000e+00 8.9688000000000002e+01 0.0000000000000000e+00
ITEM: ATOMS id type element xu yu zu q c_pe c_s[1] c_s[2] c_s[3] c_s[4] c_s[5] c_s[6]
1 1 Mg 6.2404 -6.37941e-06 0 1.2 -4.39908 7.86552e+06 -2.27727e+06 -5.80184e+06 -38548.9 2.63225e+06 -157715
2 1 Mg 3.46349 4.70768 1.4948 1.2 -8.52907 -337793 2.4681e+06 4.63083e+06 -917067 -649641 -41138.3
3 2 Si 5.2885 2.02354 1.4948 2.4 -35.315 1.00931e+07 1.00697e+07 1.22105e+07 8.84132e+06 583392 -3.12902e+06
4 3 O 5.33628 3.63678 1.4948 -1.2 -4.67967 -872235 -1.10755e+06 -3.40204e+07 -342453 3.86779e+06 -3.79262e+06
5 3 O 1.67294 1.04952 1.4948 -1.2 -1.03118 -2.02908e+07 -7.89078e+07 -2.64336e+06 -2.41474e+07 -128295 -121716
6 3 O 4.59532 1.31737 0.196716 -1.2 -3.01936 -1.92577e+06 -6.22809e+06 -3.09865e+07 -6.02357e+06 6.25889e+06 -2.68325e+06
7 1 Mg 6.18956 -6.37941e-06 2.9896 1.2 -4.94284 1.66689e+06 -2.86812e+07 -2.60169e+06 -8.89705e+06 2.40966e+06 4.07986e+06
8 3 O 4.55118 1.31737 2.79288 -1.2 -7.43929 72753 -4.20284e+06 -3.68768e+06 -2.9357e+06 -3.27945e+06 -1.11257e+06
9 1 Mg -1.20682 0.0413099 4.4844 1.2 8.82535 -3.05221e+07 -9.3949e+07 231054 -2.84149e+07 -1.02394e+06 143560
10 2 Si -3.0337 2.72544 4.4844 2.4 -33.3154 1.53807e+07 6.0438e+06 8.32611e+06 1.40877e+06 -81066.4 -1.13498e+06
11 3 O -3.08099 1.11221 4.4844 -1.2 -9.51825 -6.65414e+06 645523 -2.43452e+06 -1.12875e+06 -215716 406800
12 3 O 0.582463 3.69946 4.4844 -1.2 -8.80977 -3.40859e+06 -5.15039e+06 -3.28418e+06 -513632 -504922 374066
13 3 O -2.29524 3.43162 3.18632 -1.2 -9.00078 -4.51281e+06 -2.13364e+06 -767422 1.13708e+06 -840628 -742448
14 3 O -2.34216 3.43162 5.78248 -1.2 -8.80328 -4.71186e+06 -2.84465e+06 -1.17699e+06 1.00159e+06 690002 1.66633e+06
15 1 Mg 1.12778 2.37449 2.9896 1.2 -7.70515 5.21645e+06 -2.1418e+06 -49030.8 -3.24921e+06 -4.08184e+06 -2.39799e+06
16 1 Mg 3.92855 2.33318 4.4844 1.2 -8.68426 -4.03761e+06 4.42108e+06 5.5585e+06 1.42531e+06 -6344.78 319286
17 2 Si 2.09341 4.39804 4.4844 2.4 -32.7372 1.18773e+07 6.46602e+06 1.00383e+07 281332 18453 -489358
18 3 O 2.09991 6.01128 4.4844 -1.2 -9.40977 -3.94013e+06 -104642 -4.0257e+06 576635 -312287 302191
19 3 O -4.52137 3.42402 4.4844 -1.2 -9.03976 -3.21727e+06 -2.50269e+06 -3.89023e+06 -2.43863e+06 -580723 272775
20 3 O 2.80834 3.69187 3.18632 -1.2 -9.21224 -2.10073e+06 -2.46771e+06 -989378 413328 -468733 -234262
21 1 Mg 1.17857 2.37449 0 1.2 -5.15264 -593558 -1.52563e+07 -5.9772e+06 6.52745e+06 1.1867e+06 4.58601e+06
22 3 O 2.76143 3.69187 5.78248 -1.2 -8.91497 -2.66567e+06 -2.254e+06 -2.3445e+06 268304 197680 626675
23 1 Mg -1.67381 2.41581 1.4948 1.2 -7.60736 1.68924e+06 -666355 4.43208e+06 1.34242e+06 -541656 948382
24 2 Si 0.16286 0.350945 1.4948 2.4 -24.5415 -8.24922e+06 1.15136e+07 1.23535e+07 1.63683e+06 2.90997e+06 1.30567e+06
25 3 O 0.15972 -1.26229 1.4948 -1.2 -4.83473 -1.05399e+07 -7.66941e+06 -2.93293e+07 -5.62938e+06 -8.5455e+06 -2.77059e+06
26 3 O 6.77654 1.32496 1.4948 -1.2 -10.3443 -5.82453e+06 2.24583e+06 -1.79113e+06 -621584 -640067 1.08155e+06
27 3 O -0.508028 1.05712 0.196716 -1.2 -9.53378 74360.6 -4.21738e+06 -1.11475e+06 -556660 181544 -4.57127e+06
28 3 O -0.552171 1.05712 2.79288 -1.2 -6.75115 -5.43642e+06 -4.06747e+06 -2.51597e+07 1.39139e+06 -6.90469e+06 -5.48449e+06
29 1 Mg 6.31713 4.74899 0 1.2 -4.96639 426801 -1.31239e+07 -5.89818e+06 -7.30216e+06 1.44678e+06 -3.61864e+06
30 1 Mg 3.54847 9.45668 1.4948 1.2 -8.2931 199461 1.88336e+06 4.27891e+06 -965388 -930676 -384915
31 2 Si 5.36879 6.77254 1.4948 2.4 -34.33 7.31602e+06 1.19911e+07 1.16438e+07 1.71953e+06 113186 -2.13155e+06
32 3 O 5.41937 8.38578 1.4948 -1.2 -4.77481 -298545 -1.0291e+06 -3.51239e+07 741188 1.10537e+06 -4.16376e+06
33 3 O 1.75158 5.79852 1.4948 -1.2 -9.46688 -4.00529e+06 -2.25608e+06 -1.58316e+06 1.98168e+06 -1.60817e+06 -1.22191e+06
34 3 O 4.67421 6.06637 0.196716 -1.2 -3.74795 155654 -1.00311e+07 -3.1599e+07 -2.02439e+06 1.30412e+06 -4.40664e+06
35 1 Mg 6.26654 4.74899 2.9896 1.2 -8.08672 4.28109e+06 -1.90095e+06 146502 1.82611e+06 -949146 1.75042e+06
36 3 O 4.63043 6.06637 2.79288 -1.2 -8.80139 -1.62347e+06 -3.89803e+06 -2.33279e+06 887324 -57246.4 -1.26393e+06
37 1 Mg -1.12976 4.79031 4.4844 1.2 -8.84582 -225244 2.60727e+06 2.65884e+06 -833962 -309809 -402989
38 2 Si -2.9517 7.47444 4.4844 2.4 -32.8639 1.15256e+07 9.0806e+06 8.21002e+06 264756 -170741 -308142
39 3 O -3.00198 5.86121 4.4844 -1.2 -9.39936 -4.25602e+06 -77099.8 -3.61945e+06 6607.67 -77581.4 241982
40 3 O 0.666315 8.44846 4.4844 -1.2 -9.2831 -3.37911e+06 -2.85473e+06 -2.95857e+06 2.2646e+06 -467800 91742.8
41 3 O -2.21213 8.18062 3.18632 -1.2 -9.10126 -2.9692e+06 -3.48926e+06 -495396 1.06867e+06 -297277 -1.37907e+06
42 3 O -2.25864 8.18062 5.78248 -1.2 -9.00881 -2.9618e+06 -3.92983e+06 -1.41767e+06 851570 -98117.8 1.35191e+06
43 1 Mg 1.20893 7.12349 2.9896 1.2 -8.01541 4.13671e+06 -1.54264e+06 -202517 -1.34447e+06 -1.28387e+06 -1.84416e+06
44 1 Mg 4.00982 7.08218 4.4844 1.2 -8.72685 -922113 2.67447e+06 3.14997e+06 1.07566e+06 -262026 -172883
45 2 Si 2.17861 9.14704 4.4844 2.4 -32.7835 1.11712e+07 9.40365e+06 8.0793e+06 344130 -13837.2 -141267
46 3 O 2.18828 10.7603 4.4844 -1.2 -9.53328 -3.88812e+06 -428195 -3.53536e+06 535271 -117217 18163.8
47 3 O -4.43805 8.17302 4.4844 -1.2 -9.30501 -3.36257e+06 -2.77401e+06 -2.97403e+06 -1.64398e+06 -422542 132884
48 3 O 2.89193 8.44087 3.18632 -1.2 -9.11302 -2.74862e+06 -3.72448e+06 -616760 -891294 -246326 1.41325e+06
49 1 Mg 1.25915 7.12349 0 1.2 -5.31465 972628 -7.58183e+06 -6.32211e+06 5.87738e+06 1.34869e+06 2.57835e+06
50 3 O 2.84547 8.44087 5.78248 -1.2 -8.99768 -2.78703e+06 -4.11131e+06 -1.5364e+06 -764096 -340971 -930363
51 1 Mg -1.59284 7.16481 1.4948 1.2 -8.25069 872930 1.35671e+06 4.2632e+06 1.45501e+06 -906978 265630
52 2 Si 0.240329 5.09994 1.4948 2.4 -34.1315 8.4448e+06 1.05502e+07 1.16384e+07 -2.00729e+06 -984662 1.7036e+06
53 3 O 0.234538 3.48671 1.4948 -1.2 -5.18062 -1.85544e+06 770261 -3.41487e+07 407442 5.12984e+06 4.06809e+06
54 3 O 6.85564 6.07396 1.4948 -1.2 -9.56045 -4.48538e+06 -1.70991e+06 -1.46064e+06 -1.35893e+06 -1.81911e+06 1.25472e+06
55 3 O -0.429565 5.80612 0.196716 -1.2 -4.00846 -748979 -8.64776e+06 -3.16173e+07 1.86682e+06 1.18814e+06 4.58883e+06
56 3 O -0.473377 5.80612 2.79288 -1.2 -8.905 -2.2746e+06 -3.46104e+06 -2.05388e+06 -728677 252067 1.49355e+06
57 1 Mg 6.40169 9.49799 0 1.2 -5.23155 1.49429e+06 -6.31021e+06 -6.73751e+06 -5.46775e+06 1.01768e+06 -2.47219e+06
58 1 Mg 3.64209 14.2057 1.4948 1.2 -8.26597 -5967.45 2.07149e+06 4.21182e+06 -1.04182e+06 -990870 -323568
59 2 Si 5.45748 11.5215 1.4948 2.4 -34.0958 7.3493e+06 1.21174e+07 1.10851e+07 909014 378374 -2.27887e+06
60 3 O 5.51101 13.1348 1.4948 -1.2 -4.91247 -365401 -1.12135e+06 -3.45649e+07 469617 -2.55479e+06 -4.28285e+06
61 3 O 1.83851 10.5475 1.4948 -1.2 -9.6361 -4.1143e+06 -2.0569e+06 -1.13019e+06 1.56118e+06 -1.55635e+06 -1.03673e+06
62 3 O 4.7611 10.8154 0.196716 -1.2 -3.69453 680808 -1.16598e+07 -3.18045e+07 -2.47233e+06 -1.76798e+06 -4.25117e+06
63 1 Mg 6.35203 9.49799 2.9896 1.2 -7.93407 4.0745e+06 -1.46245e+06 -332172 1.36739e+06 -1.16653e+06 1.92674e+06
64 3 O 4.71833 10.8154 2.79288 -1.2 -8.94723 -1.75615e+06 -3.96991e+06 -1.9027e+06 1.04368e+06 17682.6 -1.23197e+06
65 1 Mg -1.0438 9.53931 4.4844 1.2 -8.66474 -968545 2.70803e+06 2.97697e+06 -564808 -308638 52120.7
66 2 Si -2.8604 12.2234 4.4844 2.4 -32.6654 1.1046e+07 9.21758e+06 8.23697e+06 -5587.55 234494 -126783
67 3 O -2.91391 10.6102 4.4844 -1.2 -9.52603 -3.85635e+06 -321377 -3.56453e+06 143512 -306386 -43186
68 3 O 0.7596 13.1975 4.4844 -1.2 -9.35583 -3.04913e+06 -2.97854e+06 -3.05583e+06 2.10192e+06 -376595 29384.1
69 3 O -2.12001 12.9296 3.18632 -1.2 -9.1826 -2.68457e+06 -3.69674e+06 -448966 1.13853e+06 -297310 -1.44306e+06
70 3 O -2.16532 12.9296 5.78248 -1.2 -9.05528 -2.68749e+06 -3.8845e+06 -1.66382e+06 1.10113e+06 -332445 1.54407e+06
71 1 Mg 1.29891 11.8725 2.9896 1.2 -7.91311 4.01099e+06 -1.32468e+06 -461779 -1.19539e+06 -1.28746e+06 -1.72369e+06
72 1 Mg 4.10033 11.8312 4.4844 1.2 -8.55968 -799673 2.74559e+06 2.69138e+06 1.08289e+06 -294402 23711.5
73 2 Si 2.27333 13.896 4.4844 2.4 -32.5628 1.08101e+07 9.51449e+06 7.97084e+06 634063 -333687 129716
74 3 O 2.28634 15.5093 4.4844 -1.2 -9.6311 -3.6379e+06 -515060 -3.56001e+06 471422 -23347.7 -73717.1
75 3 O -4.34533 12.922 4.4844 -1.2 -9.44773 -3.34522e+06 -2.78857e+06 -2.75878e+06 -1.44246e+06 -543717 3930.74
76 3 O 2.98455 13.1899 3.18632 -1.2 -9.22449 -2.69567e+06 -3.82731e+06 -413508 -935248 -92771.1 1.32333e+06
77 1 Mg 1.34779 11.8725 0 1.2 -5.4315 2.65167e+06 -2.60682e+06 -6.89053e+06 3.55406e+06 790970 1.53841e+06
78 3 O 2.93934 13.1899 5.78248 -1.2 -9.15938 -2.78153e+06 -4.01103e+06 -1.40981e+06 -828028 -77649.6 -1.33819e+06
79 1 Mg -1.50344 11.9138 1.4948 1.2 -8.25315 353424 1.92717e+06 4.19993e+06 1.57329e+06 -928886 354705
80 2 Si 0.326006 9.84894 1.4948 2.4 -34.1408 7.4584e+06 1.20368e+07 1.11009e+07 -643151 84580.4 2.18925e+06
81 3 O 0.317364 8.23571 1.4948 -1.2 -4.77691 -446652 -896313 -3.5235e+07 -97430.6 1.17705e+06 4.24753e+06
82 3 O 6.94307 10.823 1.4948 -1.2 -9.68154 -4.2648e+06 -1.86944e+06 -1.05308e+06 -1.0047e+06 -1.5566e+06 1.10614e+06
83 3 O -0.343122 10.5551 0.196716 -1.2 -3.78615 379178 -1.10972e+07 -3.18831e+07 2.46654e+06 -2.04221e+06 4.54736e+06
84 3 O -0.385966 10.5551 2.79288 -1.2 -8.96012 -1.75457e+06 -4.00091e+06 -1.99754e+06 -850814 108661 1.14224e+06
85 1 Mg 6.49448 14.247 0 1.2 -5.36567 3.10863e+06 -1.76875e+06 -7.10611e+06 -2.96871e+06 269537 -1.55903e+06
86 1 Mg 3.74457 18.9547 1.4948 1.2 -8.32602 -233976 2.1761e+06 4.35427e+06 -1.11569e+06 -987951 -136205
87 2 Si 5.55495 16.2705 1.4948 2.4 -33.9484 7.45709e+06 1.19833e+07 1.08938e+07 526061 820902 -2.17703e+06
88 3 O 5.6115 17.8838 1.4948 -1.2 -5.26553 -1.33806e+06 -1.04291e+06 -3.1875e+07 74713.6 -6.07142e+06 -4.2501e+06
89 3 O 1.93416 15.2965 1.4948 -1.2 -9.74272 -4.05675e+06 -1.84555e+06 -979405 1.53626e+06 -1.34134e+06 -1.04695e+06
90 3 O 4.85636 15.5644 0.196716 -1.2 -3.77338 760751 -1.3436e+07 -3.01489e+07 -3.02817e+06 -5.13854e+06 -3.73679e+06
91 1 Mg 6.44662 14.247 2.9896 1.2 -7.81799 4.03619e+06 -1.33202e+06 -611320 1.28508e+06 -1.14223e+06 1.9768e+06
92 3 O 4.81537 15.5644 2.79288 -1.2 -9.02276 -1.65605e+06 -4.09338e+06 -1.79406e+06 1.07255e+06 -5062.55 -1.32685e+06
93 1 Mg -0.948271 14.2883 4.4844 1.2 -8.56098 -1.27731e+06 2.89319e+06 2.92419e+06 -503352 -179352 -70452.1
94 2 Si -2.75928 16.9724 4.4844 2.4 -32.4617 1.08129e+07 9.54795e+06 7.80523e+06 -54886.2 97615 435709
95 3 O -2.81617 15.3592 4.4844 -1.2 -9.66148 -3.69821e+06 -555312 -3.28973e+06 291244 -278452 -69019.4
96 3 O 0.862762 17.9465 4.4844 -1.2 -9.40315 -2.92628e+06 -3.02256e+06 -3.07836e+06 2.181e+06 -440726 -150854
97 3 O -2.0185 17.6786 3.18632 -1.2 -9.22292 -2.60663e+06 -3.75578e+06 -430344 1.17106e+06 -209573 -1.66797e+06
98 3 O -2.06164 17.6786 5.78248 -1.2 -9.17044 -2.6245e+06 -3.96171e+06 -1.40729e+06 1.22389e+06 -150000 994931
99 1 Mg 1.39817 16.6215 2.9896 1.2 -7.83751 3.94648e+06 -1.24306e+06 -602210 -1.16564e+06 -1.27779e+06 -1.57377e+06
100 1 Mg 4.20062 16.5802 4.4844 1.2 -8.46074 -911349 2.79929e+06 2.5906e+06 1.16327e+06 -360412 192546
101 2 Si 2.37796 18.645 4.4844 2.4 -32.5227 1.06999e+07 9.39784e+06 8.12811e+06 686772 -417233 457490
102 3 O 2.39434 20.2583 4.4844 -1.2 -9.5929 -3.73321e+06 -309479 -3.73511e+06 496144 29290.5 -153934
103 3 O -4.24274 17.671 4.4844 -1.2 -9.50529 -3.27241e+06 -2.82011e+06 -2.7305e+06 -1.4573e+06 -532653 -284061
104 3 O 3.08659 17.9389 3.18632 -1.2 -9.25713 -2.62471e+06 -3.8381e+06 -465923 -944265 6996.64 1.15376e+06
105 1 Mg 1.44478 16.6215 0 1.2 -5.5015 4.22188e+06 411114 -6.9239e+06 1.39726e+06 -76620 920001
106 3 O 3.0436 17.9389 5.78248 -1.2 -9.22956 -2.65085e+06 -4.01116e+06 -1.35992e+06 -888490 97953.1 -1.46461e+06
107 1 Mg -1.40524 16.6628 1.4948 1.2 -8.27305 80384.3 2.15542e+06 4.229e+06 1.69028e+06 -946967 428291
108 2 Si 0.420358 14.5979 1.4948 2.4 -33.9976 7.2347e+06 1.21764e+07 1.09398e+07 -124042 534997 2.45965e+06
109 3 O 0.408732 12.9847 1.4948 -1.2 -4.88946 -341047 -1.10838e+06 -3.47732e+07 223161 -2.54313e+06 4.29891e+06
110 3 O 7.03923 15.572 1.4948 -1.2 -9.78941 -4.22203e+06 -1.69609e+06 -856416 -945946 -1.33899e+06 996057
111 3 O -0.248332 15.3041 0.196716 -1.2 -3.86918 469154 -1.29715e+07 -3.02212e+07 3.24825e+06 -5.40257e+06 4.00616e+06
112 3 O -0.289436 15.3041 2.79288 -1.2 -9.02975 -1.53458e+06 -4.22142e+06 -1.93253e+06 -863085 20682.1 1.0552e+06
113 1 Mg 6.59566 18.996 0 1.2 -5.47252 4.48018e+06 826613 -6.85864e+06 -908391 -656579 -810099
114 1 Mg 3.85574 23.7037 1.4948 1.2 -8.44591 -445017 2.24268e+06 4.55096e+06 -1.18311e+06 -926289 -121541
115 2 Si 5.66125 21.0195 1.4948 2.4 -33.8977 7.94921e+06 1.13762e+07 1.09894e+07 187931 1.2585e+06 -2.09248e+06
116 3 O 5.72074 22.6328 1.4948 -1.2 -5.83772 -3.06103e+06 -824746 -2.7112e+07 -216873 -8.52614e+06 -3.77565e+06
117 3 O 2.03867 20.0455 1.4948 -1.2 -9.77036 -4.073e+06 -1.51481e+06 -1.04723e+06 1.57275e+06 -1.11952e+06 -1.10504e+06
118 3 O 4.96004 20.3134 0.196716 -1.2 -4.1014 30938 -1.48155e+07 -2.63273e+07 -3.18704e+06 -7.955e+06 -2.86126e+06
119 1 Mg 6.55057 18.996 2.9896 1.2 -7.79612 4.09536e+06 -1.42467e+06 -612374 1.30629e+06 -1.15007e+06 2.1622e+06
120 3 O 4.92172 20.3134 2.79288 -1.2 -8.99627 -1.6835e+06 -3.98829e+06 -1.95181e+06 1.07519e+06 -92626.6 -1.40943e+06
121 1 Mg -0.84282 19.0373 4.4844 1.2 -8.55718 -1.26718e+06 2.76393e+06 3.02741e+06 -539967 -196443 210475
122 2 Si -2.64823 21.7214 4.4844 2.4 -32.6352 1.09564e+07 9.03824e+06 8.45257e+06 -13646.5 73644.1 250313
123 3 O -2.70847 20.1082 4.4844 -1.2 -9.59706 -3.70865e+06 -302894 -3.63349e+06 315038 -233824 -217776
124 3 O 0.97581 22.6955 4.4844 -1.2 -9.34621 -3.08848e+06 -2.85595e+06 -3.17163e+06 2.18832e+06 -372671 -13826.2
125 3 O -1.9076 22.4276 3.18632 -1.2 -9.16422 -2.63926e+06 -3.60283e+06 -680949 1.17188e+06 -110107 -1.60328e+06
126 3 O -1.9475 22.4276 5.78248 -1.2 -9.03365 -2.71452e+06 -3.72119e+06 -1.72403e+06 1.16802e+06 -156132 1.35658e+06
127 1 Mg 1.50678 21.3705 2.9896 1.2 -7.8555 4.10338e+06 -1.41267e+06 -560690 -1.15839e+06 -1.31601e+06 -1.51698e+06
128 1 Mg 4.31086 21.3292 4.4844 1.2 -8.53029 -769286 2.57297e+06 2.78816e+06 1.19228e+06 -285133 198422
129 2 Si 2.49243 23.394 4.4844 2.4 -32.6239 1.09683e+07 9.22494e+06 8.19775e+06 786457 -369986 250414
130 3 O 2.51204 25.0073 4.4844 -1.2 -9.56031 -3.78957e+06 -288093 -3.75409e+06 500499 -20095.3 -186660
131 3 O -4.13026 22.42 4.4844 -1.2 -9.42991 -3.38272e+06 -2.64372e+06 -2.91201e+06 -1.37568e+06 -552688 -146801
132 3 O 3.19799 22.6879 3.18632 -1.2 -9.20555 -2.68965e+06 -3.72108e+06 -655449 -931593 76138.9 1.18575e+06
133 1 Mg 1.5501 21.3705 0 1.2 -5.57371 5.11468e+06 1.91257e+06 -6.42437e+06 -72301.6 -980718 534398
134 3 O 3.1583 22.6879 5.78248 -1.2 -9.13349 -2.86099e+06 -3.92938e+06 -1.41893e+06 -948893 40465.6 -1.2816e+06
135 1 Mg -1.29822 21.4118 1.4948 1.2 -8.37356 -137029 2.21718e+06 4.44125e+06 1.80314e+06 -934421 394489
136 2 Si 0.523568 19.3469 1.4948 2.4 -33.9289 7.52384e+06 1.17439e+07 1.10013e+07 299714 958758 2.82996e+06
137 3 O 0.508934 17.7337 1.4948 -1.2 -5.24475 -1.29131e+06 -1.05379e+06 -3.20786e+07 670665 -6.06643e+06 3.97676e+06
138 3 O 7.14425 20.321 1.4948 -1.2 -9.81321 -4.24079e+06 -1.35789e+06 -947036 -938836 -1.09869e+06 883646
139 3 O -0.145107 20.0531 0.196716 -1.2 -4.19861 -279645 -1.44966e+07 -2.63834e+07 3.68334e+06 -8.18134e+06 2.97299e+06
140 3 O -0.183601 20.0531 2.79288 -1.2 -9.01328 -1.54465e+06 -4.13623e+06 -2.08444e+06 -836366 -16548.3 897041
141 1 Mg 6.70502 23.745 0 1.2 -5.60684 5.04451e+06 2.02867e+06 -6.02605e+06 410966 -1.4953e+06 -546020
142 1 Mg 3.97493 28.4527 1.4948 1.2 -8.58975 -690263 2.20275e+06 4.83399e+06 -1.21568e+06 -799285 29097.1
143 2 Si 5.77602 25.7685 1.4948 2.4 -33.8671 8.71703e+06 1.04829e+07 1.11535e+07 -119888 1.5504e+06 -2.1154e+06
144 3 O 5.83821 27.3818 1.4948 -1.2 -6.57703 -4.87356e+06 -475306 -2.1229e+07 -338048 -9.292e+06 -3.19517e+06
145 3 O 2.15175 24.7945 1.4948 -1.2 -9.7427 -4.12535e+06 -1.17868e+06 -1.24101e+06 1.60737e+06 -905633 -1.01673e+06
146 3 O 5.07184 25.0624 0.196716 -1.2 -4.67554 -1.31695e+06 -1.53247e+07 -2.09289e+07 -2.79216e+06 -9.42911e+06 -1.4896e+06
147 1 Mg 6.66374 23.745 2.9896 1.2 -7.82522 4.23322e+06 -1.54577e+06 -579638 1.30089e+06 -1.19415e+06 2.06529e+06
148 3 O 5.03707 25.0624 2.79288 -1.2 -8.94907 -1.74881e+06 -3.89663e+06 -2.09226e+06 1.09795e+06 -151113 -1.35934e+06
149 1 Mg -0.727559 23.7863 4.4844 1.2 -8.60917 -1.23251e+06 2.69552e+06 3.13789e+06 -494661 -206718 55928.6
150 2 Si -2.5277 26.4704 4.4844 2.4 -32.6763 1.10248e+07 8.88741e+06 8.60775e+06 5118.4 2757.23 525800
151 3 O -2.59107 24.8572 4.4844 -1.2 -9.56825 -3.75702e+06 -314360 -3.60513e+06 370380 -194716 -161454
152 3 O 1.09817 27.4445 4.4844 -1.2 -9.32552 -3.22574e+06 -2.66502e+06 -3.27022e+06 2.21765e+06 -402181 -181070
153 3 O -1.78784 27.1766 3.18632 -1.2 -9.11249 -2.67418e+06 -3.4453e+06 -943655 1.17454e+06 -13588.2 -1.67708e+06
154 3 O -1.82343 27.1766 5.78248 -1.2 -9.01777 -2.62372e+06 -3.58116e+06 -1.99651e+06 1.20445e+06 -41766.1 968887
155 1 Mg 1.62435 26.1195 2.9896 1.2 -7.88073 4.26702e+06 -1.55404e+06 -539466 -1.13864e+06 -1.33919e+06 -1.45627e+06
156 1 Mg 4.43064 26.0782 4.4844 1.2 -8.56828 -810446 2.51327e+06 2.95131e+06 1.20242e+06 -280129 294960
157 2 Si 2.61607 28.143 4.4844 2.4 -32.6995 1.10129e+07 8.76441e+06 8.7309e+06 813819 -219348 543020
158 3 O 2.63853 29.7563 4.4844 -1.2 -9.51214 -3.8285e+06 8140.47 -4.0939e+06 520186 -66491 -264945
159 3 O -4.00841 27.169 4.4844 -1.2 -9.4101 -3.45002e+06 -2.48585e+06 -3.03387e+06 -1.34854e+06 -474383 -309378
160 3 O 3.3182 27.4369 3.18632 -1.2 -9.14953 -2.69631e+06 -3.56106e+06 -976221 -913293 142655 1.08758e+06
161 1 Mg 1.66335 26.1195 0 1.2 -5.71907 5.09468e+06 2.3088e+06 -5.34847e+06 -891075 -1.57832e+06 300542
162 3 O 3.28288 27.4369 5.78248 -1.2 -9.0933 -2.68068e+06 -3.75206e+06 -1.719e+06 -964311 -61142.3 -1.52955e+06
163 1 Mg -1.18278 26.1608 1.4948 1.2 -8.51032 -357857 2.2254e+06 4.68076e+06 1.87829e+06 -825018 289220
164 2 Si 0.635424 24.0959 1.4948 2.4 -33.9021 8.20118e+06 1.10005e+07 1.10917e+07 750134 1.34086e+06 2.72635e+06
165 3 O 0.617906 22.4827 1.4948 -1.2 -5.82096 -3.02904e+06 -828819 -2.73014e+07 1.0124e+06 -8.52094e+06 3.54973e+06
166 3 O 7.25781 25.07 1.4948 -1.2 -9.78299 -4.27656e+06 -1.02959e+06 -1.16779e+06 -927307 -854050 942261
167 3 O -0.0337363 24.8021 0.196716 -1.2 -4.76359 -1.60183e+06 -1.53044e+07 -2.0935e+07 3.5107e+06 -9.63317e+06 1.79299e+06
168 3 O -0.0687235 24.8021 2.79288 -1.2 -8.97358 -1.64016e+06 -4.05445e+06 -2.18538e+06 -837546 -72729.3 908786
169 1 Mg 6.82195 28.494 0 1.2 -5.81653 4.68654e+06 2.22988e+06 -4.65376e+06 1.15466e+06 -1.83564e+06 -381681
170 1 Mg 4.10106 33.2017 1.4948 1.2 -8.70442 -987448 2.28529e+06 4.89187e+06 -1.19621e+06 -547993 125881
171 2 Si 5.89839 30.5175 1.4948 2.4 -33.8046 9.58336e+06 9.41445e+06 1.13384e+07 -326535 1.64619e+06 -1.74026e+06
172 3 O 5.96289 32.1308 1.4948 -1.2 -7.37879 -6.0664e+06 -212496 -1.53593e+07 -290908 -8.43002e+06 -2.65563e+06
173 3 O 2.27266 29.5435 1.4948 -1.2 -9.68562 -4.172e+06 -826446 -1.59021e+06 1.64938e+06 -705349 -1.08462e+06
174 3 O 5.19102 29.8114 0.196716 -1.2 -5.44211 -2.77478e+06 -1.46457e+07 -1.51196e+07 -1.94785e+06 -9.25457e+06 -311102
175 1 Mg 6.78546 28.494 2.9896 1.2 -7.85497 4.36328e+06 -1.77843e+06 -423917 1.29998e+06 -1.27612e+06 2.14014e+06
176 3 O 5.16061 29.8114 2.79288 -1.2 -8.90124 -1.8416e+06 -3.67362e+06 -2.33957e+06 1.10756e+06 -196931 -1.43325e+06
177 1 Mg -0.603205 28.5353 4.4844 1.2 -8.63913 -1.15343e+06 2.40311e+06 3.39191e+06 -466736 -218840 212584
178 2 Si -2.39877 31.2194 4.4844 2.4 -32.7396 1.11443e+07 8.40544e+06 9.06984e+06 -70190.7 -141932 549700
179 3 O -2.46483 29.6062 4.4844 -1.2 -9.53394 -3.80096e+06 -7577.07 -3.92174e+06 424344 -137692 -223977
180 3 O 1.22864 32.1935 4.4844 -1.2 -9.30444 -3.38474e+06 -2.38445e+06 -3.42095e+06 2.25288e+06 -403640 -93507
181 3 O -1.66032 31.9256 3.18632 -1.2 -9.05812 -2.7131e+06 -3.26169e+06 -1.25402e+06 1.19244e+06 96677 -1.69653e+06
182 3 O -1.69072 31.9256 5.78248 -1.2 -9.03131 -2.75176e+06 -3.30126e+06 -1.94674e+06 1.32525e+06 16535.2 1.06438e+06
183 1 Mg 1.7499 30.8685 2.9896 1.2 -7.91171 4.42653e+06 -1.79234e+06 -404430 -1.1184e+06 -1.37655e+06 -1.3794e+06
184 1 Mg 4.55894 30.8272 4.4844 1.2 -8.62332 -830332 2.27111e+06 3.30216e+06 1.26417e+06 -258251 329900
185 2 Si 2.7476 32.892 4.4844 2.4 -32.7692 1.11679e+07 8.34199e+06 9.11689e+06 909688 -20163.1 293063
186 3 O 2.77235 34.5053 4.4844 -1.2 -9.49665 -3.90518e+06 82325.8 -4.09851e+06 546651 -190024 -154040
187 3 O -3.87837 31.918 4.4844 -1.2 -9.35946 -3.4608e+06 -2.27857e+06 -3.31466e+06 -1.31351e+06 -356469 -366148
188 3 O 3.44611 32.1859 3.18632 -1.2 -9.08932 -2.69967e+06 -3.39861e+06 -1.32211e+06 -915925 166753 1.06496e+06
189 1 Mg 1.7837 30.8685 0 1.2 -5.89842 4.26933e+06 2.26409e+06 -4.25173e+06 -1.35419e+06 -1.51399e+06 543976
190 3 O 3.41602 32.1859 5.78248 -1.2 -9.01615 -2.69416e+06 -3.43897e+06 -2.19484e+06 -1.09492e+06 -114825 -1.3832e+06
191 1 Mg -1.05984 30.9098 1.4948 1.2 -8.64003 -613626 2.21787e+06 4.85006e+06 1.8948e+06 -613172 302543
192 2 Si 0.755243 28.8449 1.4948 2.4 -33.8608 9.12642e+06 9.89295e+06 1.12929e+07 1.13537e+06 1.61226e+06 2.7774e+06
193 3 O 0.735127 27.2317 1.4948 -1.2 -6.56686 -4.88773e+06 -480438 -2.13631e+07 1.17442e+06 -9.31815e+06 2.92428e+06
194 3 O 7.37914 29.819 1.4948 -1.2 -9.72406 -4.29083e+06 -699625 -1.5454e+06 -924162 -623244 848684
195 3 O 0.0850649 29.5511 0.196716 -1.2 -5.50883 -3.01004e+06 -1.50032e+07 -1.50661e+07 2.71343e+06 -9.46299e+06 338272
196 3 O 0.0543974 29.5511 2.79288 -1.2 -8.93508 -1.79507e+06 -3.81673e+06 -2.38214e+06 -835863 -142032 790449
197 1 Mg 6.94543 33.243 0 1.2 -6.00453 3.64351e+06 2.2436e+06 -3.64974e+06 1.5852e+06 -1.47169e+06 -529385
198 1 Mg 4.23267 37.9507 1.4948 1.2 -8.78418 -1.2439e+06 2.37922e+06 4.7677e+06 -1.1298e+06 -243074 57548.9
199 2 Si 6.02709 35.2665 1.4948 2.4 -33.6793 1.03786e+07 8.56493e+06 1.12419e+07 -418067 1.5345e+06 -1.63114e+06
200 3 O 6.09339 36.8798 1.4948 -1.2 -8.11205 -6.37936e+06 -65629.4 -1.05108e+07 -138615 -6.57069e+06 -2.03513e+06
201 3 O 2.40018 34.2925 1.4948 -1.2 -9.6332 -4.16322e+06 -721433 -1.83949e+06 1.69112e+06 -541100 -1.05927e+06
202 3 O 5.31645 34.5604 0.196716 -1.2 -6.32847 -3.83946e+06 -1.3001e+07 -9.84321e+06 -952041 -7.79357e+06 840339
203 1 Mg 6.91449 33.243 2.9896 1.2 -7.89074 4.44245e+06 -1.93847e+06 -277437 1.29332e+06 -1.41193e+06 2.13305e+06
204 3 O 5.291 34.5604 2.79288 -1.2 -8.86358 -1.93197e+06 -3.54347e+06 -2.47224e+06 1.13076e+06 -257997 -1.36393e+06
205 1 Mg -0.471101 33.2843 4.4844 1.2 -8.65355 -1.03579e+06 2.19375e+06 3.50054e+06 -490270 -234042 131993
206 2 Si -2.26307 35.9684 4.4844 2.4 -32.8227 1.13321e+07 8.15383e+06 9.2805e+06 179110 -318748 121304
207 3 O -2.33122 34.3552 4.4844 -1.2 -9.4854 -3.86191e+06 193648 -4.11562e+06 429038 49264.4 -121210
208 3 O 1.36549 36.9425 4.4844 -1.2 -9.26949 -3.49138e+06 -2.32143e+06 -3.41786e+06 2.28217e+06 -386442 -146319
209 3 O -1.52658 36.6746 3.18632 -1.2 -9.00747 -2.73741e+06 -3.21809e+06 -1.44223e+06 1.12241e+06 147883 -1.5801e+06
210 3 O -1.55122 36.6746 5.78248 -1.2 -9.00444 -2.83662e+06 -3.2081e+06 -2.04225e+06 978104 -59589.4 1.38755e+06
211 1 Mg 1.882 35.6175 2.9896 1.2 -7.9324 4.54631e+06 -1.84512e+06 -428152 -1.11454e+06 -1.42815e+06 -1.39301e+06
212 1 Mg 4.69415 35.5762 4.4844 1.2 -8.68941 -882404 2.1712e+06 3.56231e+06 1.1738e+06 -127766 182031
213 2 Si 2.88522 37.641 4.4844 2.4 -32.9022 1.12051e+07 8.14958e+06 9.49368e+06 652745 8620.98 169120
214 3 O 2.91159 39.2543 4.4844 -1.2 -9.42362 -3.91529e+06 133902 -4.26084e+06 635767 -58153.4 39470
215 3 O -3.74183 36.667 4.4844 -1.2 -9.32291 -3.55435e+06 -2.20006e+06 -3.34157e+06 -1.29966e+06 -186066 -73382.9
216 3 O 3.58014 36.9349 3.18632 -1.2 -9.03065 -2.67238e+06 -3.35887e+06 -1.58312e+06 -832228 200741 1.13037e+06
217 1 Mg 1.90997 35.6175 0 1.2 -6.05615 3.09596e+06 2.11524e+06 -3.65546e+06 -1.66093e+06 -737741 922668
218 3 O 3.55582 36.9349 5.78248 -1.2 -8.91817 -2.57549e+06 -3.30891e+06 -2.64213e+06 -755283 -253811 -1.34603e+06
219 1 Mg -0.93068 35.6588 1.4948 1.2 -8.73031 -878469 2.31663e+06 4.76876e+06 1.86237e+06 -314385 198640
220 2 Si 0.881882 33.5939 1.4948 2.4 -33.7417 1.00412e+07 9.00513e+06 1.1146e+07 1.40903e+06 1.68089e+06 2.5834e+06
221 3 O 0.859602 31.9807 1.4948 -1.2 -7.37663 -6.1431e+06 -205277 -1.54363e+07 1.16122e+06 -8.49597e+06 2.25832e+06
222 3 O 7.507 34.568 1.4948 -1.2 -9.66757 -4.252e+06 -599762 -1.84062e+06 -931128 -400102 892452
223 3 O 0.210186 34.3001 0.196716 -1.2 -6.36617 -3.98944e+06 -1.37233e+07 -9.75887e+06 1.53411e+06 -7.98428e+06 -825486
224 3 O 0.184454 34.3001 2.79288 -1.2 -8.9191 -1.97453e+06 -3.70664e+06 -2.38184e+06 -846120 -177831 794206
225 1 Mg 7.07415 37.992 0 1.2 -6.15979 2.53138e+06 2.03692e+06 -3.23142e+06 1.87087e+06 -446396 -1.21131e+06
226 1 Mg 4.36817 42.6997 1.4948 1.2 -8.82273 -1.38029e+06 2.47687e+06 4.48631e+06 -997524 89860.4 74142.9
227 2 Si 6.16058 40.0155 1.4948 2.4 -33.5368 1.10822e+07 7.8262e+06 1.10562e+07 -370039 1.26083e+06 -1.56248e+06
228 3 O 6.22815 41.6288 1.4948 -1.2 -8.68365 -5.97102e+06 7346.22 -7.16768e+06 34048.4 -4.50253e+06 -1.63887e+06
229 3 O 2.53282 39.0415 1.4948 -1.2 -9.56227 -4.1052e+06 -722591 -2.16987e+06 1.72089e+06 -356870 -967229
230 3 O 5.44674 39.3094 0.196716 -1.2 -7.16421 -4.35254e+06 -1.05147e+07 -6.037e+06 -145515 -5.72344e+06 1.78662e+06
231 1 Mg 7.04922 37.992 2.9896 1.2 -7.91172 4.56075e+06 -1.95877e+06 -330824 1.31325e+06 -1.51872e+06 1.97456e+06
232 3 O 5.42658 39.3094 2.79288 -1.2 -8.8524 -2.11772e+06 -3.49723e+06 -2.3799e+06 1.12935e+06 -245497 -1.21794e+06
233 1 Mg -0.333062 38.0333 4.4844 1.2 -8.71302 -994399 2.1428e+06 3.60367e+06 -387345 -70778.1 88703
234 2 Si -2.12255 40.7174 4.4844 2.4 -32.8816 1.14438e+07 8.32917e+06 9.09303e+06 104373 -91898.6 -10562.8
235 3 O -2.19212 39.1042 4.4844 -1.2 -9.46494 -3.99935e+06 166517 -3.97303e+06 395511 -48254.9 -10137.2
236 3 O 1.50676 41.6915 4.4844 -1.2 -9.23003 -3.47161e+06 -2.51528e+06 -3.33329e+06 2.29468e+06 -283024 39141.4
237 3 O -1.3884 41.4236 3.18632 -1.2 -8.95643 -2.7131e+06 -3.29179e+06 -1.58136e+06 1.15076e+06 114165 -1.50924e+06
238 3 O -1.40713 41.4236 5.78248 -1.2 -8.95004 -2.8025e+06 -3.41199e+06 -1.93759e+06 1.26169e+06 -40734.4 1.51916e+06
239 1 Mg 2.01892 40.3665 2.9896 1.2 -7.97083 4.57105e+06 -1.82997e+06 -393228 -1.10416e+06 -1.56758e+06 -1.50976e+06
240 1 Mg 4.83434 40.3252 4.4844 1.2 -8.70032 -770349 2.2508e+06 3.38889e+06 1.25519e+06 -180016 -37094.5
241 2 Si 3.02698 42.39 4.4844 2.4 -32.9212 1.11852e+07 8.57888e+06 9.10597e+06 761813 -140300 76717.5
242 3 O 3.05433 44.0033 4.4844 -1.2 -9.39348 -3.948e+06 46798.5 -4.20566e+06 633495 14677.1 -97260.9
243 3 O -3.60077 41.416 4.4844 -1.2 -9.31784 -3.66942e+06 -2.32403e+06 -3.12148e+06 -1.32933e+06 -192489 -61064.9
244 3 O 3.71851 41.6839 3.18632 -1.2 -8.99089 -2.66476e+06 -3.45829e+06 -1.67124e+06 -844695 264332 1.1833e+06
245 1 Mg 2.04077 40.3665 0 1.2 -6.17802 2.15841e+06 1.81895e+06 -3.64754e+06 -1.82211e+06 445155 1.61642e+06
246 3 O 3.70011 41.6839 5.78248 -1.2 -8.98025 -2.59668e+06 -3.64723e+06 -1.97246e+06 -886423 -70130.5 -1.20093e+06
247 1 Mg -0.796865 40.4078 1.4948 1.2 -8.78618 -1.05789e+06 2.39574e+06 4.5669e+06 1.74899e+06 70099.5 110185
248 2 Si 1.01387 38.3429 1.4948 2.4 -33.6129 1.07856e+07 8.16576e+06 1.10702e+07 1.53227e+06 1.52882e+06 2.15136e+06
249 3 O 0.989947 36.7297 1.4948 -1.2 -8.11135 -6.47305e+06 -55606.6 -1.05794e+07 1.03505e+06 -6.66772e+06 1.82022e+06
250 3 O 7.63988 39.317 1.4948 -1.2 -9.60193 -4.21264e+06 -631590 -2.1264e+06 -932437 -251802 1.01522e+06
251 3 O 0.340253 39.0491 0.196716 -1.2 -7.17458 -4.44137e+06 -1.14182e+07 -5.98278e+06 383699 -5.90736e+06 -1.58823e+06
252 3 O 0.319795 39.0491 2.79288 -1.2 -8.89215 -2.11404e+06 -3.62606e+06 -2.40273e+06 -855081 -240151 850534
253 1 Mg 7.20667 42.741 0 1.2 -6.25231 1.74901e+06 1.77438e+06 -3.50201e+06 1.97427e+06 938602 -2.02617e+06
254 1 Mg 4.50613 47.4487 1.4948 1.2 -8.84464 -1.30444e+06 2.49333e+06 4.22592e+06 -848758 417576 895.308
255 2 Si 6.29731 44.7645 1.4948 2.4 -33.4387 1.15499e+07 7.21561e+06 1.10186e+07 -231302 933562 -1.28859e+06
256 3 O 6.36567 46.3778 1.4948 -1.2 -9.05142 -5.23909e+06 70422.2 -5.27251e+06 174599 -2.72582e+06 -1.36187e+06
257 3 O 2.669 43.7905 1.4948 -1.2 -9.47894 -4.03042e+06 -884136 -2.48738e+06 1.7212e+06 -178998 -989818
258 3 O 5.58048 44.0584 0.196716 -1.2 -7.85056 -4.29012e+06 -7.83447e+06 -3.71579e+06 331885 -3.70614e+06 2.30333e+06
259 1 Mg 7.1879 42.741 2.9896 1.2 -7.93961 4.59901e+06 -1.89189e+06 -377978 1.28952e+06 -1.58048e+06 1.99217e+06
260 3 O 5.56564 44.0584 2.79288 -1.2 -8.83876 -2.31668e+06 -3.44547e+06 -2.2814e+06 1.12717e+06 -272699 -1.25804e+06
261 1 Mg -0.19105 42.7823 4.4844 1.2 -8.73919 -961730 2.34832e+06 3.40262e+06 -425477 -51527.4 52099.5
262 2 Si -1.97909 45.4664 4.4844 2.4 -33.0598 1.14829e+07 8.25739e+06 9.41395e+06 187011 -88712.1 281957
263 3 O -2.04947 43.8532 4.4844 -1.2 -9.40972 -3.97368e+06 42940.4 -3.9743e+06 425305 7464.82 -105853
264 3 O 1.65063 46.4405 4.4844 -1.2 -9.14156 -3.61179e+06 -2.29046e+06 -3.55605e+06 2.35545e+06 -156667 7308.96
265 3 O -1.24745 46.1726 3.18632 -1.2 -8.87361 -2.72081e+06 -3.21666e+06 -1.88558e+06 1.14191e+06 82444.3 -1.50279e+06
266 3 O -1.26044 46.1726 5.78248 -1.2 -8.77642 -2.91342e+06 -3.20898e+06 -2.30892e+06 1.19171e+06 60299.2 1.15367e+06
267 1 Mg 2.15896 45.1155 2.9896 1.2 -8.01866 4.62227e+06 -1.84771e+06 -334418 -1.08926e+06 -1.7024e+06 -1.46337e+06
268 1 Mg 4.97763 45.0742 4.4844 1.2 -8.74681 -571151 2.15145e+06 3.36253e+06 1.26042e+06 -112045 80865.5
269 2 Si 3.1711 47.139 4.4844 2.4 -33.0828 1.15522e+07 8.05102e+06 9.53414e+06 780008 -263897 -124774