ITEM: TIMESTEP
12600
ITEM: NUMBER OF ATOMS
10500
ITEM: BOX BOUNDS xy xz yz pp pp pp
0.0000000000000000e+00 1.5297749999999999e+01 5.0992499999999996e+00
0.0000000000000000e+00 1.1872499999999999e+02 0.0000000000000000e+00
0.0000000000000000e+00 8.9688000000000002e+01 0.0000000000000000e+00
ITEM: ATOMS id type element xu yu zu q c_pe c_s[1] c_s[2] c_s[3] c_s[4] c_s[5] c_s[6]
1 1 Mg 6.2404 -6.37941e-06 0 1.2 -4.57882 8.16917e+06 -1.66218e+06 -6.43263e+06 -13140.9 2.60936e+06 -166521
2 1 Mg 3.46349 4.70768 1.4948 1.2 -8.65057 -52762.2 2.89019e+06 4.11839e+06 -932472 -607995 116548
3 2 Si 5.2885 2.02354 1.4948 2.4 -35.5351 1.04528e+07 1.14038e+07 1.08693e+07 8.88027e+06 713938 -2.99769e+06
4 3 O 5.33628 3.63678 1.4948 -1.2 -4.56653 -1.06428e+06 -1.65756e+06 -3.34602e+07 -337800 3.80168e+06 -3.91451e+06
5 3 O 1.67294 1.04952 1.4948 -1.2 -0.914123 -2.05395e+07 -7.95889e+07 -1.90196e+06 -2.41235e+07 -133196 -119087
6 3 O 4.59532 1.31737 0.196716 -1.2 -2.8815 -2.20446e+06 -6.89602e+06 -3.02614e+07 -6.03892e+06 6.22088e+06 -2.68572e+06
7 1 Mg 6.18956 -6.37941e-06 2.9896 1.2 -5.05943 1.75662e+06 -2.80246e+07 -3.16124e+06 -8.82954e+06 2.44902e+06 4.06397e+06
8 3 O 4.55118 1.31737 2.79288 -1.2 -7.37345 -59941.4 -4.90752e+06 -2.96005e+06 -2.98298e+06 -3.4226e+06 -1.1503e+06
9 1 Mg -1.20682 0.0413099 4.4844 1.2 8.80934 -3.05768e+07 -9.32335e+07 -406460 -2.85607e+07 -1.24268e+06 162493
10 2 Si -3.0337 2.72544 4.4844 2.4 -33.4091 1.46816e+07 7.3109e+06 7.90897e+06 1.6062e+06 89821.8 -416211
11 3 O -3.08099 1.11221 4.4844 -1.2 -9.49058 -6.33136e+06 -127811 -2.03675e+06 -1.214e+06 -212567 199804
12 3 O 0.582463 3.69946 4.4844 -1.2 -8.83956 -3.50612e+06 -5.59717e+06 -2.70224e+06 -558774 -106255 -224909
13 3 O -2.29524 3.43162 3.18632 -1.2 -8.90756 -4.43565e+06 -2.67681e+06 -451174 1.09457e+06 -809109 -1.02222e+06
14 3 O -2.34216 3.43162 5.78248 -1.2 -8.68794 -4.08397e+06 -3.30008e+06 -1.58688e+06 782558 620641 1.15752e+06
15 1 Mg 1.12778 2.37449 2.9896 1.2 -7.73133 5.40424e+06 -1.45159e+06 -885174 -3.29083e+06 -4.20201e+06 -2.19281e+06
16 1 Mg 3.92855 2.33318 4.4844 1.2 -8.57956 -3.97777e+06 5.12411e+06 4.62561e+06 1.42198e+06 353032 549625
17 2 Si 2.09341 4.39804 4.4844 2.4 -32.664 1.25761e+07 6.98401e+06 8.69719e+06 183649 -246448 792406
18 3 O 2.09991 6.01128 4.4844 -1.2 -9.30322 -4.33306e+06 -18197.7 -3.89792e+06 543779 -163053 -184797
19 3 O -4.52137 3.42402 4.4844 -1.2 -9.02392 -3.09494e+06 -3.02686e+06 -3.51584e+06 -2.4271e+06 -907086 -53446.1
20 3 O 2.80834 3.69187 3.18632 -1.2 -9.1859 -2.37076e+06 -2.98502e+06 -249495 458069 -509613 -572007
21 1 Mg 1.17857 2.37449 0 1.2 -5.28729 -383774 -1.4596e+07 -6.63157e+06 6.51766e+06 1.21137e+06 4.60737e+06
22 3 O 2.76143 3.69187 5.78248 -1.2 -9.25646 -3.00871e+06 -2.53262e+06 -1.01217e+06 539440 -36967 -193111
23 1 Mg -1.67381 2.41581 1.4948 1.2 -7.72633 1.78968e+06 -15446.6 3.87136e+06 1.34587e+06 -606944 1.0575e+06
24 2 Si 0.16286 0.350945 1.4948 2.4 -24.8281 -7.78693e+06 1.28193e+07 1.10446e+07 1.56371e+06 2.8221e+06 1.24334e+06
25 3 O 0.15972 -1.26229 1.4948 -1.2 -4.62548 -1.08806e+07 -8.17148e+06 -2.88222e+07 -5.59356e+06 -8.53113e+06 -2.65476e+06
26 3 O 6.77654 1.32496 1.4948 -1.2 -10.2167 -5.96567e+06 1.5677e+06 -1.17708e+06 -643927 -638536 1.03327e+06
27 3 O -0.508028 1.05712 0.196716 -1.2 -9.37604 -120824 -4.88575e+06 -503130 -540358 220726 -4.57269e+06
28 3 O -0.552171 1.05712 2.79288 -1.2 -6.674 -5.53347e+06 -4.78659e+06 -2.44705e+07 1.44499e+06 -6.76654e+06 -5.55426e+06
29 1 Mg 6.31713 4.74899 0 1.2 -5.11514 664692 -1.26748e+07 -6.34687e+06 -7.3114e+06 1.4264e+06 -3.61936e+06
30 1 Mg 3.54847 9.45668 1.4948 1.2 -8.55102 620955 1.79228e+06 4.36171e+06 -960978 -930171 -394905
31 2 Si 5.36879 6.77254 1.4948 2.4 -34.6985 7.94367e+06 1.23245e+07 1.1273e+07 1.65695e+06 166167 -1.97447e+06
32 3 O 5.41937 8.38578 1.4948 -1.2 -4.54442 -675735 -1.03232e+06 -3.51134e+07 770595 1.10324e+06 -4.17537e+06
33 3 O 1.75158 5.79852 1.4948 -1.2 -9.31288 -4.29995e+06 -2.52606e+06 -1.26564e+06 1.96624e+06 -1.59083e+06 -1.37222e+06
34 3 O 4.67421 6.06637 0.196716 -1.2 -3.57892 -169049 -1.03251e+07 -3.12521e+07 -2.0124e+06 1.29112e+06 -4.41024e+06
35 1 Mg 6.26654 4.74899 2.9896 1.2 -8.20402 4.3815e+06 -1.53603e+06 -130930 1.80092e+06 -829467 1.98738e+06
36 3 O 4.63043 6.06637 2.79288 -1.2 -8.6569 -1.92521e+06 -4.0707e+06 -2.09113e+06 945665 -130092 -1.4944e+06
37 1 Mg -1.12976 4.79031 4.4844 1.2 -8.97505 -337154 2.82939e+06 2.75653e+06 -681673 -474997 -7863.34
38 2 Si -2.9517 7.47444 4.4844 2.4 -33.3156 1.20469e+07 8.90755e+06 8.58159e+06 59485 -36006.8 -164331
39 3 O -3.00198 5.86121 4.4844 -1.2 -9.22878 -4.30652e+06 -187706 -3.73173e+06 51058.5 -226218 18275.9
40 3 O 0.666315 8.44846 4.4844 -1.2 -9.0339 -3.7456e+06 -2.63769e+06 -3.21007e+06 2.1087e+06 -477389 65648.2
41 3 O -2.21213 8.18062 3.18632 -1.2 -8.8704 -3.29906e+06 -3.4273e+06 -600567 1.09291e+06 -302736 -1.39161e+06
42 3 O -2.25864 8.18062 5.78248 -1.2 -8.73275 -3.38584e+06 -3.68787e+06 -1.62274e+06 1.00531e+06 -73682.4 1.48126e+06
43 1 Mg 1.20893 7.12349 2.9896 1.2 -8.20492 4.46344e+06 -1.55267e+06 -215514 -1.27893e+06 -1.34046e+06 -1.66058e+06
44 1 Mg 4.00982 7.08218 4.4844 1.2 -8.89182 -485097 2.53838e+06 3.11353e+06 984544 -243476 135513
45 2 Si 2.17861 9.14704 4.4844 2.4 -33.3163 1.19247e+07 8.93125e+06 8.65183e+06 553023 -37004.3 -1685.64
46 3 O 2.18828 10.7603 4.4844 -1.2 -9.2285 -4.25661e+06 -212857 -3.87554e+06 451889 -190920 48596.5
47 3 O -4.43805 8.17302 4.4844 -1.2 -9.06936 -3.73894e+06 -2.61743e+06 -3.14678e+06 -1.50398e+06 -479369 16489.6
48 3 O 2.89193 8.44087 3.18632 -1.2 -8.88382 -3.14743e+06 -3.60211e+06 -709355 -913147 -230473 1.29632e+06
49 1 Mg 1.25915 7.12349 0 1.2 -5.51814 1.29804e+06 -7.40289e+06 -6.50039e+06 5.89982e+06 1.36916e+06 2.56117e+06
50 3 O 2.84547 8.44087 5.78248 -1.2 -8.727 -3.24888e+06 -3.77762e+06 -1.89866e+06 -844580 -186962 -1.17836e+06
51 1 Mg -1.59284 7.16481 1.4948 1.2 -8.45453 1.14797e+06 1.47776e+06 4.19368e+06 1.46099e+06 -919551 308063
52 2 Si 0.240329 5.09994 1.4948 2.4 -34.4199 8.86714e+06 1.12784e+07 1.095e+07 -1.96031e+06 -1.09123e+06 2.01648e+06
53 3 O 0.234538 3.48671 1.4948 -1.2 -5.06738 -2.02596e+06 202827 -3.35927e+07 404836 5.1989e+06 3.91308e+06
54 3 O 6.85564 6.07396 1.4948 -1.2 -9.38814 -4.71784e+06 -1.96278e+06 -1.25179e+06 -1.34097e+06 -1.83499e+06 1.16768e+06
55 3 O -0.429565 5.80612 0.196716 -1.2 -3.83233 -974339 -8.97536e+06 -3.1347e+07 1.85525e+06 1.20406e+06 4.56785e+06
56 3 O -0.473377 5.80612 2.79288 -1.2 -8.74742 -2.45121e+06 -3.64781e+06 -1.94312e+06 -789658 333525 1.27112e+06
57 1 Mg 6.40169 9.49799 0 1.2 -5.49846 1.91457e+06 -6.35043e+06 -6.68995e+06 -5.48906e+06 999969 -2.56558e+06
58 1 Mg 3.64209 14.2057 1.4948 1.2 -8.60558 507078 1.7938e+06 4.52058e+06 -1.03037e+06 -983749 -389552
59 2 Si 5.45748 11.5215 1.4948 2.4 -34.7044 8.28236e+06 1.17295e+07 1.15148e+07 890513 322668 -2.37823e+06
60 3 O 5.51101 13.1348 1.4948 -1.2 -4.58265 -860232 -867784 -3.48524e+07 468617 -2.52233e+06 -4.22981e+06
61 3 O 1.83851 10.5475 1.4948 -1.2 -9.35328 -4.56872e+06 -1.8999e+06 -1.28635e+06 1.53827e+06 -1.57883e+06 -992760
62 3 O 4.7611 10.8154 0.196716 -1.2 -3.39815 209227 -1.15102e+07 -3.19572e+07 -2.46989e+06 -1.75314e+06 -4.16523e+06
63 1 Mg 6.35203 9.49799 2.9896 1.2 -8.19332 4.47972e+06 -1.58383e+06 -200748 1.31023e+06 -1.18837e+06 1.91546e+06
64 3 O 4.71833 10.8154 2.79288 -1.2 -8.65523 -2.189e+06 -3.78956e+06 -2.12146e+06 1.058e+06 47675.3 -1.22035e+06
65 1 Mg -1.0438 9.53931 4.4844 1.2 -8.91511 -477166 2.5231e+06 3.07015e+06 -541883 -267742 -100917
66 2 Si -2.8604 12.2234 4.4844 2.4 -33.2674 1.21361e+07 8.85789e+06 8.46683e+06 -79927 -48427.5 -109946
67 3 O -2.91391 10.6102 4.4844 -1.2 -9.25124 -4.3383e+06 -189222 -3.67011e+06 220387 -193800 55406.8
68 3 O 0.7596 13.1975 4.4844 -1.2 -9.03539 -3.65628e+06 -2.677e+06 -3.26598e+06 2.12615e+06 -540091 88892.5
69 3 O -2.12001 12.9296 3.18632 -1.2 -8.86781 -3.25606e+06 -3.44123e+06 -639642 1.16102e+06 -241835 -1.41704e+06
70 3 O -2.16532 12.9296 5.78248 -1.2 -8.7705 -3.40011e+06 -3.63504e+06 -1.64706e+06 1.13874e+06 -139979 1.41553e+06
71 1 Mg 1.29891 11.8725 2.9896 1.2 -8.21775 4.50197e+06 -1.55348e+06 -235915 -1.17219e+06 -1.21051e+06 -1.77559e+06
72 1 Mg 4.10033 11.8312 4.4844 1.2 -8.89272 -398991 2.53924e+06 3.02889e+06 1.11145e+06 -350526 27258.6
73 2 Si 2.27333 13.896 4.4844 2.4 -33.2897 1.18196e+07 8.91589e+06 8.72292e+06 695733 -61117.8 -50561.2
74 3 O 2.28634 15.5093 4.4844 -1.2 -9.25479 -4.21164e+06 -189024 -3.91093e+06 449352 -184381 89015.8
75 3 O -4.34533 12.922 4.4844 -1.2 -9.09774 -3.81149e+06 -2.56757e+06 -3.08205e+06 -1.44709e+06 -416351 -21571.2
76 3 O 2.98455 13.1899 3.18632 -1.2 -8.8853 -3.16896e+06 -3.55811e+06 -754885 -961025 -139554 1.37457e+06
77 1 Mg 1.34779 11.8725 0 1.2 -5.74702 3.17413e+06 -2.81379e+06 -6.7005e+06 3.56274e+06 808498 1.45595e+06
78 3 O 2.93934 13.1899 5.78248 -1.2 -8.74831 -3.15363e+06 -3.80688e+06 -1.87104e+06 -933241 -137437 -1.25252e+06
79 1 Mg -1.50344 11.9138 1.4948 1.2 -8.55804 866924 1.72064e+06 4.38143e+06 1.56296e+06 -931904 290797
80 2 Si 0.326006 9.84894 1.4948 2.4 -34.6742 8.32352e+06 1.18183e+07 1.13089e+07 -599458 121408 2.10076e+06
81 3 O 0.317364 8.23571 1.4948 -1.2 -4.5483 -803078 -902415 -3.52391e+07 -128082 1.17931e+06 4.23331e+06
82 3 O 6.94307 10.823 1.4948 -1.2 -9.39304 -4.72298e+06 -1.71689e+06 -1.21051e+06 -983633 -1.53152e+06 1.16387e+06
83 3 O -0.343122 10.5551 0.196716 -1.2 -3.49665 -86403.4 -1.09764e+07 -3.20024e+07 2.46343e+06 -2.05646e+06 4.63091e+06
84 3 O -0.385966 10.5551 2.79288 -1.2 -8.6855 -2.23555e+06 -3.83507e+06 -2.12456e+06 -867394 73876.2 1.20538e+06
85 1 Mg 6.49448 14.247 0 1.2 -5.71069 3.62878e+06 -2.02266e+06 -6.81954e+06 -2.96573e+06 242946 -1.63243e+06
86 1 Mg 3.74457 18.9547 1.4948 1.2 -8.6482 245118 2.01516e+06 4.55231e+06 -1.11683e+06 -984195 -284496
87 2 Si 5.55495 16.2705 1.4948 2.4 -34.6389 8.46274e+06 1.14585e+07 1.15192e+07 531402 748656 -2.40042e+06
88 3 O 5.6115 17.8838 1.4948 -1.2 -4.93033 -1.82123e+06 -834731 -3.21364e+07 76566.8 -6.03107e+06 -4.10349e+06
89 3 O 1.93416 15.2965 1.4948 -1.2 -9.40445 -4.61695e+06 -1.56272e+06 -1.24391e+06 1.53289e+06 -1.38247e+06 -957374
90 3 O 4.85636 15.5644 0.196716 -1.2 -3.42881 236223 -1.31859e+07 -3.04264e+07 -3.03891e+06 -5.10557e+06 -3.65917e+06
91 1 Mg 6.44662 14.247 2.9896 1.2 -8.16518 4.55503e+06 -1.63201e+06 -273934 1.28373e+06 -1.21594e+06 1.931e+06
92 3 O 4.81537 15.5644 2.79288 -1.2 -8.66271 -2.1424e+06 -3.80007e+06 -2.17735e+06 1.06383e+06 10571.2 -1.22089e+06
93 1 Mg -0.948271 14.2883 4.4844 1.2 -8.88715 -549629 2.50884e+06 3.10276e+06 -558384 -215399 -99931.9
94 2 Si -2.75928 16.9724 4.4844 2.4 -33.1926 1.20289e+07 8.86055e+06 8.44989e+06 -48406.1 -157868 -71837.2
95 3 O -2.81617 15.3592 4.4844 -1.2 -9.28706 -4.3068e+06 -157237 -3.67333e+06 294923 -134656 19561.6
96 3 O 0.862762 17.9465 4.4844 -1.2 -9.08323 -3.63526e+06 -2.75462e+06 -3.13759e+06 2.18114e+06 -516839 126865
97 3 O -2.0185 17.6786 3.18632 -1.2 -8.89177 -3.19095e+06 -3.4959e+06 -632122 1.16834e+06 -144097 -1.46008e+06
98 3 O -2.06164 17.6786 5.78248 -1.2 -8.82071 -3.30734e+06 -3.60622e+06 -1.63635e+06 1.13298e+06 -92643.1 1.44877e+06
99 1 Mg 1.39817 16.6215 2.9896 1.2 -8.17726 4.54954e+06 -1.53387e+06 -370127 -1.16451e+06 -1.20075e+06 -1.73505e+06
100 1 Mg 4.20062 16.5802 4.4844 1.2 -8.8686 -471413 2.53902e+06 3.06458e+06 1.17292e+06 -312956 6444.78
101 2 Si 2.37796 18.645 4.4844 2.4 -33.1992 1.17889e+07 9.12713e+06 8.39924e+06 719874 3699.37 -91846
102 3 O 2.39434 20.2583 4.4844 -1.2 -9.29707 -4.18824e+06 -329371 -3.7255e+06 515699 -196243 28270.5
103 3 O -4.24274 17.671 4.4844 -1.2 -9.12701 -3.74585e+06 -2.59568e+06 -3.07349e+06 -1.42313e+06 -403225 -9358.14
104 3 O 3.08659 17.9389 3.18632 -1.2 -8.91183 -3.11387e+06 -3.63577e+06 -728094 -948540 -77178 1.35106e+06
105 1 Mg 1.44478 16.6215 0 1.2 -5.83388 4.80541e+06 178736 -6.74247e+06 1.39581e+06 -42587.4 833362
106 3 O 3.0436 17.9389 5.78248 -1.2 -8.79582 -3.1026e+06 -3.89846e+06 -1.79844e+06 -973752 -237715 -1.10825e+06
107 1 Mg -1.40524 16.6628 1.4948 1.2 -8.6074 645361 1.88912e+06 4.466e+06 1.68532e+06 -955198 304956
108 2 Si 0.420358 14.5979 1.4948 2.4 -34.6634 8.38993e+06 1.15995e+07 1.14281e+07 -135856 603203 2.30297e+06
109 3 O 0.408732 12.9847 1.4948 -1.2 -4.56959 -886962 -851739 -3.49967e+07 224059 -2.57714e+06 4.36333e+06
110 3 O 7.03923 15.572 1.4948 -1.2 -9.44674 -4.75137e+06 -1.41484e+06 -1.1572e+06 -943261 -1.29819e+06 1.09163e+06
111 3 O -0.248332 15.3041 0.196716 -1.2 -3.53026 -101733 -1.27094e+07 -3.04552e+07 3.26e+06 -5.43491e+06 4.08344e+06
112 3 O -0.289436 15.3041 2.79288 -1.2 -8.69532 -2.16264e+06 -3.89503e+06 -2.16629e+06 -849930 7247.34 1.15886e+06
113 1 Mg 6.59566 18.996 0 1.2 -5.79841 4.948e+06 663783 -6.64147e+06 -915194 -688518 -933394
114 1 Mg 3.85574 23.7037 1.4948 1.2 -8.70823 -59297.2 2.24678e+06 4.58147e+06 -1.18874e+06 -938510 -134947
115 2 Si 5.66125 21.0195 1.4948 2.4 -34.4921 8.80011e+06 1.1223e+07 1.12441e+07 184192 1.17703e+06 -2.31069e+06
116 3 O 5.72074 22.6328 1.4948 -1.2 -5.5619 -3.45914e+06 -799736 -2.71804e+07 -219175 -8.49137e+06 -3.73191e+06
117 3 O 2.03867 20.0455 1.4948 -1.2 -9.46798 -4.57956e+06 -1.39334e+06 -1.14602e+06 1.57285e+06 -1.15756e+06 -978007
118 3 O 4.96004 20.3134 0.196716 -1.2 -3.79191 -420999 -1.46858e+07 -2.65008e+07 -3.18187e+06 -7.91509e+06 -2.74435e+06
119 1 Mg 6.55057 18.996 2.9896 1.2 -8.11988 4.57905e+06 -1.57319e+06 -428783 1.30192e+06 -1.23597e+06 1.95444e+06
120 3 O 4.92172 20.3134 2.79288 -1.2 -8.68606 -2.07852e+06 -3.92682e+06 -2.11199e+06 1.08294e+06 -54213.9 -1.24415e+06
121 1 Mg -0.84282 19.0373 4.4844 1.2 -8.8517 -653538 2.60493e+06 3.0469e+06 -522505 -245894 -78063.8
122 2 Si -2.64823 21.7214 4.4844 2.4 -33.1185 1.19507e+07 9.17687e+06 8.09855e+06 64551.5 -117581 30787.3
123 3 O -2.70847 20.1082 4.4844 -1.2 -9.32082 -4.25128e+06 -269013 -3.54972e+06 301007 -112653 31200.5
124 3 O 0.97581 22.6955 4.4844 -1.2 -9.10084 -3.57729e+06 -2.87393e+06 -3.05663e+06 2.22379e+06 -483503 -37942.3
125 3 O -1.9076 22.4276 3.18632 -1.2 -8.90698 -3.11868e+06 -3.62062e+06 -592516 1.15364e+06 -84069.8 -1.55922e+06
126 3 O -1.9475 22.4276 5.78248 -1.2 -8.86637 -3.18833e+06 -3.8388e+06 -1.4226e+06 1.0914e+06 -176174 1.31207e+06
127 1 Mg 1.50678 21.3705 2.9896 1.2 -8.13303 4.58851e+06 -1.43124e+06 -582554 -1.16974e+06 -1.23705e+06 -1.60961e+06
128 1 Mg 4.31086 21.3292 4.4844 1.2 -8.83867 -545188 2.66759e+06 2.96517e+06 1.15885e+06 -298038 22984.7
129 2 Si 2.49243 23.394 4.4844 2.4 -33.1606 1.17107e+07 9.29521e+06 8.24276e+06 676428 -159510 176181
130 3 O 2.51204 25.0073 4.4844 -1.2 -9.29048 -4.19759e+06 -330786 -3.7351e+06 524322 -86818.8 -91572.5
131 3 O -4.13026 22.42 4.4844 -1.2 -9.17311 -3.75194e+06 -2.74541e+06 -2.84331e+06 -1.41541e+06 -387891 -72724.4
132 3 O 3.19799 22.6879 3.18632 -1.2 -8.92973 -3.05812e+06 -3.75248e+06 -696755 -910263 35438.2 1.24657e+06
133 1 Mg 1.5501 21.3705 0 1.2 -5.85931 5.62955e+06 1.78804e+06 -6.35712e+06 -65437.5 -968346 462619
134 3 O 3.1583 22.6879 5.78248 -1.2 -8.84626 -3.0224e+06 -4.03863e+06 -1.56443e+06 -824123 -142877 -1.22627e+06
135 1 Mg -1.29822 21.4118 1.4948 1.2 -8.65589 350969 2.14644e+06 4.47635e+06 1.80889e+06 -925649 316865
136 2 Si 0.523568 19.3469 1.4948 2.4 -34.5431 8.62044e+06 1.14314e+07 1.12011e+07 306266 1.03523e+06 2.55378e+06
137 3 O 0.508934 17.7337 1.4948 -1.2 -4.92039 -1.86651e+06 -827013 -3.22493e+07 670385 -6.10385e+06 4.11673e+06
138 3 O 7.14425 20.321 1.4948 -1.2 -9.51092 -4.7088e+06 -1.25087e+06 -1.06961e+06 -939571 -1.06373e+06 1.00973e+06
139 3 O -0.145107 20.0531 0.196716 -1.2 -3.89564 -807245 -1.43474e+07 -2.64903e+07 3.67852e+06 -8.22445e+06 3.07476e+06
140 3 O -0.183601 20.0531 2.79288 -1.2 -8.72382 -2.09852e+06 -4.04084e+06 -2.08666e+06 -844558 -36953.1 1.05573e+06
141 1 Mg 6.70502 23.745 0 1.2 -5.86858 5.4198e+06 1.98826e+06 -5.94157e+06 414095 -1.4956e+06 -523019
142 1 Mg 3.97493 28.4527 1.4948 1.2 -8.80143 -366910 2.36683e+06 4.68567e+06 -1.22351e+06 -782318 -28441.1
143 2 Si 5.77602 25.7685 1.4948 2.4 -34.3439 9.42254e+06 1.06352e+07 1.10595e+07 -110825 1.51565e+06 -2.07828e+06
144 3 O 5.83821 27.3818 1.4948 -1.2 -6.3554 -5.20707e+06 -607872 -2.1118e+07 -340538 -9.28214e+06 -3.18369e+06
145 3 O 2.15175 24.7945 1.4948 -1.2 -9.49724 -4.52721e+06 -1.21288e+06 -1.19812e+06 1.61702e+06 -918294 -1.01801e+06
146 3 O 5.07184 25.0624 0.196716 -1.2 -4.4381 -1.65987e+06 -1.53505e+07 -2.09407e+07 -2.78501e+06 -9.40688e+06 -1.53706e+06
147 1 Mg 6.66374 23.745 2.9896 1.2 -8.08369 4.64215e+06 -1.50452e+06 -615673 1.31954e+06 -1.24815e+06 2.05505e+06
148 3 O 5.03707 25.0624 2.79288 -1.2 -8.69095 -2.10758e+06 -3.96829e+06 -2.07506e+06 1.08543e+06 -128488 -1.34448e+06
149 1 Mg -0.727559 23.7863 4.4844 1.2 -8.8498 -742050 2.68713e+06 3.04166e+06 -500027 -179199 90628.7
150 2 Si -2.5277 26.4704 4.4844 2.4 -33.2021 1.19696e+07 9.05784e+06 8.33303e+06 -13486.1 -120154 318988
151 3 O -2.59107 24.8572 4.4844 -1.2 -9.31843 -4.23085e+06 -312267 -3.52959e+06 360269 -142158 -157080
152 3 O 1.09817 27.4445 4.4844 -1.2 -9.06439 -3.69968e+06 -2.80795e+06 -3.06476e+06 2.23579e+06 -419069 -33046.5
153 3 O -1.78784 27.1766 3.18632 -1.2 -8.86611 -3.1023e+06 -3.56818e+06 -786667 1.17876e+06 14125.9 -1.62466e+06
154 3 O -1.82343 27.1766 5.78248 -1.2 -8.76646 -3.22775e+06 -3.7302e+06 -1.57029e+06 1.23656e+06 -53469.2 1.27122e+06
155 1 Mg 1.62435 26.1195 2.9896 1.2 -8.12919 4.68397e+06 -1.46828e+06 -644074 -1.15057e+06 -1.31012e+06 -1.50347e+06
156 1 Mg 4.43064 26.0782 4.4844 1.2 -8.852 -464314 2.63287e+06 2.94046e+06 1.23536e+06 -257197 181802
157 2 Si 2.61607 28.143 4.4844 2.4 -33.2419 1.19466e+07 9.15734e+06 8.27748e+06 811969 -104770 220620
158 3 O 2.63853 29.7563 4.4844 -1.2 -9.24395 -4.30535e+06 -262698 -3.7695e+06 536300 -132341 -119494
159 3 O -4.00841 27.169 4.4844 -1.2 -9.12416 -3.82089e+06 -2.65658e+06 -2.94958e+06 -1.36572e+06 -409474 -209685
160 3 O 3.3182 27.4369 3.18632 -1.2 -8.89685 -3.08204e+06 -3.71202e+06 -842366 -916140 105218 1.16686e+06
161 1 Mg 1.66335 26.1195 0 1.2 -5.92745 5.45406e+06 2.38242e+06 -5.44757e+06 -901245 -1.57475e+06 314995
162 3 O 3.28288 27.4369 5.78248 -1.2 -8.78378 -3.17608e+06 -3.94726e+06 -1.62068e+06 -978261 -163231 -1.26214e+06
163 1 Mg -1.18278 26.1608 1.4948 1.2 -8.73919 31234.8 2.30567e+06 4.57808e+06 1.88377e+06 -823380 296305
164 2 Si 0.635424 24.0959 1.4948 2.4 -34.4026 9.0781e+06 1.10129e+07 1.10044e+07 741685 1.39085e+06 2.73105e+06
165 3 O 0.617906 22.4827 1.4948 -1.2 -5.55255 -3.50523e+06 -787664 -2.72962e+07 1.01371e+06 -8.55375e+06 3.58565e+06
166 3 O 7.25781 25.07 1.4948 -1.2 -9.53953 -4.66091e+06 -1.07505e+06 -1.1279e+06 -936148 -841254 918922
167 3 O -0.0337363 24.8021 0.196716 -1.2 -4.53051 -2.01334e+06 -1.53149e+07 -2.08863e+07 3.50355e+06 -9.65907e+06 1.76717e+06
168 3 O -0.0687235 24.8021 2.79288 -1.2 -8.72527 -2.08663e+06 -4.08727e+06 -2.10337e+06 -828154 -95073.2 913442
169 1 Mg 6.82195 28.494 0 1.2 -5.98864 4.96806e+06 2.38619e+06 -4.81585e+06 1.15879e+06 -1.84579e+06 -415597
170 1 Mg 4.10106 33.2017 1.4948 1.2 -8.88641 -703195 2.48175e+06 4.70274e+06 -1.20781e+06 -539185 -40574.5
171 2 Si 5.89839 30.5175 1.4948 2.4 -34.1976 1.02093e+07 9.78674e+06 1.09698e+07 -333574 1.65098e+06 -1.98039e+06
172 3 O 5.96289 32.1308 1.4948 -1.2 -7.19347 -6.37729e+06 -408724 -1.51487e+07 -287461 -8.43507e+06 -2.49597e+06
173 3 O 2.27266 29.5435 1.4948 -1.2 -9.48363 -4.49263e+06 -1.01061e+06 -1.40873e+06 1.65696e+06 -722784 -990345
174 3 O 5.19102 29.8114 0.196716 -1.2 -5.27872 -3.04019e+06 -1.48147e+07 -1.49471e+07 -1.93388e+06 -9.27013e+06 -209887
175 1 Mg 6.78546 28.494 2.9896 1.2 -8.10345 4.73689e+06 -1.6065e+06 -571297 1.30768e+06 -1.31142e+06 2.07332e+06
176 3 O 5.16061 29.8114 2.79288 -1.2 -8.66094 -2.18999e+06 -3.87432e+06 -2.17365e+06 1.11235e+06 -211984 -1.32017e+06
177 1 Mg -0.603205 28.5353 4.4844 1.2 -8.90207 -665135 2.60371e+06 3.12456e+06 -489806 -230864 81728.5
178 2 Si -2.39877 31.2194 4.4844 2.4 -33.3078 1.20913e+07 8.90692e+06 8.53823e+06 59833.7 -256745 132687
179 3 O -2.46483 29.6062 4.4844 -1.2 -9.24729 -4.27286e+06 -218274 -3.68887e+06 404678 -44640.2 -107768
180 3 O 1.22864 32.1935 4.4844 -1.2 -9.03139 -3.81007e+06 -2.72893e+06 -3.08995e+06 2.25348e+06 -420132 -27793.6
181 3 O -1.66032 31.9256 3.18632 -1.2 -8.82373 -3.10902e+06 -3.51308e+06 -979305 1.15387e+06 106460 -1.5464e+06
182 3 O -1.69072 31.9256 5.78248 -1.2 -8.71545 -3.31568e+06 -3.67854e+06 -1.58857e+06 1.13013e+06 51024.8 1.39368e+06
183 1 Mg 1.7499 30.8685 2.9896 1.2 -8.14423 4.80943e+06 -1.55094e+06 -656215 -1.12969e+06 -1.36136e+06 -1.49175e+06
184 1 Mg 4.55894 30.8272 4.4844 1.2 -8.9168 -427906 2.54046e+06 3.10178e+06 1.20817e+06 -185474 146991
185 2 Si 2.7476 32.892 4.4844 2.4 -33.3199 1.19799e+07 9.00679e+06 8.52134e+06 754290 -45376.2 124569
186 3 O 2.77235 34.5053 4.4844 -1.2 -9.22299 -4.27478e+06 -208792 -3.89148e+06 595333 -104871 -48105.8
187 3 O -3.87837 31.918 4.4844 -1.2 -9.08154 -3.89651e+06 -2.58291e+06 -3.01343e+06 -1.3203e+06 -317723 -100591
188 3 O 3.44611 32.1859 3.18632 -1.2 -8.85318 -3.06229e+06 -3.65741e+06 -1.0787e+06 -875185 158103 1.20401e+06
189 1 Mg 1.7837 30.8685 0 1.2 -6.05341 4.48629e+06 2.42819e+06 -4.38447e+06 -1.35309e+06 -1.5103e+06 394029
190 3 O 3.41602 32.1859 5.78248 -1.2 -8.7075 -3.16385e+06 -3.87174e+06 -1.76103e+06 -890874 -195374 -1.23489e+06
191 1 Mg -1.05984 30.9098 1.4948 1.2 -8.83275 -292975 2.408e+06 4.64806e+06 1.9095e+06 -632988 183537
192 2 Si 0.755243 28.8449 1.4948 2.4 -34.2717 9.80887e+06 1.02292e+07 1.09325e+07 1.13663e+06 1.61758e+06 2.63357e+06
193 3 O 0.735127 27.2317 1.4948 -1.2 -6.34856 -5.25811e+06 -601834 -2.12209e+07 1.17693e+06 -9.32792e+06 2.95307e+06
194 3 O 7.37914 29.819 1.4948 -1.2 -9.52385 -4.61798e+06 -876710 -1.36146e+06 -932153 -604422 939923
195 3 O 0.0850649 29.5511 0.196716 -1.2 -5.34081 -3.27631e+06 -1.5169e+07 -1.49033e+07 2.6993e+06 -9.45063e+06 434183
196 3 O 0.0543974 29.5511 2.79288 -1.2 -8.70466 -2.19354e+06 -4.01693e+06 -2.15096e+06 -837857 -131589 887048
197 1 Mg 6.94543 33.243 0 1.2 -6.13779 3.90783e+06 2.38056e+06 -3.83752e+06 1.58237e+06 -1.46734e+06 -707030
198 1 Mg 4.23267 37.9507 1.4948 1.2 -8.94583 -985415 2.53604e+06 4.61138e+06 -1.12431e+06 -228583 -68129.4
199 2 Si 6.02709 35.2665 1.4948 2.4 -34.0145 1.09771e+07 8.94476e+06 1.08007e+07 -412025 1.56797e+06 -1.9511e+06
200 3 O 6.09339 36.8798 1.4948 -1.2 -7.9501 -6.66549e+06 -235654 -1.03148e+07 -140704 -6.59807e+06 -1.89976e+06
201 3 O 2.40018 34.2925 1.4948 -1.2 -9.45312 -4.41883e+06 -910489 -1.68368e+06 1.69583e+06 -533322 -898592
202 3 O 5.31645 34.5604 0.196716 -1.2 -6.18971 -4.08236e+06 -1.31378e+07 -9.68595e+06 -949110 -7.82636e+06 1.0261e+06
203 1 Mg 6.91449 33.243 2.9896 1.2 -8.10772 4.82466e+06 -1.66803e+06 -582420 1.31084e+06 -1.41174e+06 1.96199e+06
204 3 O 5.291 34.5604 2.79288 -1.2 -8.66149 -2.28868e+06 -3.79884e+06 -2.18497e+06 1.12521e+06 -246371 -1.20671e+06
205 1 Mg -0.471101 33.2843 4.4844 1.2 -8.92588 -617963 2.54444e+06 3.17008e+06 -429709 -162716 44626.2
206 2 Si -2.26307 35.9684 4.4844 2.4 -33.2797 1.20692e+07 8.84079e+06 8.58613e+06 132201 -208020 105359
207 3 O -2.33122 34.3552 4.4844 -1.2 -9.24661 -4.31153e+06 -190887 -3.67052e+06 396215 -18798.8 -36881.1
208 3 O 1.36549 36.9425 4.4844 -1.2 -9.03948 -3.76627e+06 -2.69082e+06 -3.16749e+06 2.3055e+06 -355190 -17248.3
209 3 O -1.52658 36.6746 3.18632 -1.2 -8.80697 -3.04962e+06 -3.47097e+06 -1.20339e+06 1.14452e+06 130023 -1.49671e+06
210 3 O -1.55122 36.6746 5.78248 -1.2 -8.74762 -3.2031e+06 -3.62627e+06 -1.64277e+06 1.14885e+06 50021.4 1.29191e+06
211 1 Mg 1.882 35.6175 2.9896 1.2 -8.14352 4.83662e+06 -1.60103e+06 -624321 -1.1242e+06 -1.45569e+06 -1.54162e+06
212 1 Mg 4.69415 35.5762 4.4844 1.2 -8.91069 -433314 2.4929e+06 3.14626e+06 1.22717e+06 -189453 37933.2
213 2 Si 2.88522 37.641 4.4844 2.4 -33.2886 1.18445e+07 8.90414e+06 8.70905e+06 720383 -181008 66596
214 3 O 2.91159 39.2543 4.4844 -1.2 -9.23545 -4.23303e+06 -103055 -4.02406e+06 597296 3042.93 -60314.7
215 3 O -3.74183 36.667 4.4844 -1.2 -9.11029 -3.93405e+06 -2.52882e+06 -2.99016e+06 -1.34647e+06 -277944 -74170.8
216 3 O 3.58014 36.9349 3.18632 -1.2 -8.8391 -2.99851e+06 -3.62391e+06 -1.30511e+06 -851112 235219 1.25e+06
217 1 Mg 1.90997 35.6175 0 1.2 -6.19762 3.26881e+06 2.24124e+06 -3.72772e+06 -1.65263e+06 -755977 752375
218 3 O 3.55582 36.9349 5.78248 -1.2 -8.75011 -3.05436e+06 -3.83214e+06 -1.77747e+06 -844858 -37349.1 -1.17665e+06
219 1 Mg -0.93068 35.6588 1.4948 1.2 -8.90017 -602961 2.49872e+06 4.58328e+06 1.85804e+06 -318354 53023.8
220 2 Si 0.881882 33.5939 1.4948 2.4 -34.1079 1.05751e+07 9.38736e+06 1.08168e+07 1.41163e+06 1.6638e+06 2.28625e+06
221 3 O 0.859602 31.9807 1.4948 -1.2 -7.18726 -6.43302e+06 -402392 -1.52524e+07 1.15728e+06 -8.49039e+06 2.39283e+06
222 3 O 7.507 34.568 1.4948 -1.2 -9.49656 -4.55835e+06 -793397 -1.61476e+06 -934497 -408816 1.04991e+06
223 3 O 0.210186 34.3001 0.196716 -1.2 -6.22096 -4.20181e+06 -1.38578e+07 -9.64473e+06 1.53028e+06 -7.95213e+06 -658821
224 3 O 0.184454 34.3001 2.79288 -1.2 -8.7037 -2.29004e+06 -3.94755e+06 -2.17123e+06 -846553 -193545 920727
225 1 Mg 7.07415 37.992 0 1.2 -6.29072 2.79197e+06 2.12249e+06 -3.36785e+06 1.86669e+06 -417404 -1.35537e+06
226 1 Mg 4.36817 42.6997 1.4948 1.2 -8.96896 -1.15298e+06 2.5197e+06 4.45046e+06 -999039 118147 -57141.1
227 2 Si 6.16058 40.0155 1.4948 2.4 -33.8502 1.16202e+07 8.0046e+06 1.08419e+07 -376960 1.31516e+06 -1.77287e+06
228 3 O 6.22815 41.6288 1.4948 -1.2 -8.53247 -6.23265e+06 -42494.7 -7.09889e+06 36446.1 -4.51661e+06 -1.5136e+06
229 3 O 2.53282 39.0415 1.4948 -1.2 -9.40066 -4.33987e+06 -855990 -2.06164e+06 1.71632e+06 -345492 -849795
230 3 O 5.44674 39.3094 0.196716 -1.2 -7.02203 -4.59289e+06 -1.05935e+07 -5.94616e+06 -143633 -5.77227e+06 1.91846e+06
231 1 Mg 7.04922 37.992 2.9896 1.2 -8.09676 4.85788e+06 -1.75106e+06 -539273 1.30591e+06 -1.48153e+06 1.91916e+06
232 3 O 5.42658 39.3094 2.79288 -1.2 -8.67778 -2.41794e+06 -3.64564e+06 -2.21423e+06 1.13349e+06 -281466 -1.17841e+06
233 1 Mg -0.333062 38.0333 4.4844 1.2 -8.91878 -678581 2.44772e+06 3.31089e+06 -422906 -104403 82425.1
234 2 Si -2.12255 40.7174 4.4844 2.4 -33.2876 1.20163e+07 8.47037e+06 9.02355e+06 59642.5 -164578 36480.1
235 3 O -2.19212 39.1042 4.4844 -1.2 -9.2519 -4.26108e+06 -51175.6 -3.85441e+06 427199 -40550.1 -51352.3
236 3 O 1.50676 41.6915 4.4844 -1.2 -9.03869 -3.76652e+06 -2.51304e+06 -3.35012e+06 2.26369e+06 -294604 48967
237 3 O -1.3884 41.4236 3.18632 -1.2 -8.78651 -2.99433e+06 -3.33383e+06 -1.53423e+06 1.15262e+06 136300 -1.42571e+06
238 3 O -1.40713 41.4236 5.78248 -1.2 -8.73422 -3.22806e+06 -3.37487e+06 -1.78059e+06 1.24038e+06 96606.1 1.43578e+06
239 1 Mg 2.01892 40.3665 2.9896 1.2 -8.14494 4.83844e+06 -1.72906e+06 -482679 -1.08737e+06 -1.57866e+06 -1.55168e+06
240 1 Mg 4.83434 40.3252 4.4844 1.2 -8.89386 -395514 2.3414e+06 3.23278e+06 1.23802e+06 -143196 83614.8
241 2 Si 3.02698 42.39 4.4844 2.4 -33.2971 1.17477e+07 8.5473e+06 9.18032e+06 824971 -140214 -783.101
242 3 O 3.05433 44.0033 4.4844 -1.2 -9.25064 -4.14107e+06 -7059.65 -4.18495e+06 597414 -26740.9 49621.9
243 3 O -3.60077 41.416 4.4844 -1.2 -9.1122 -3.96041e+06 -2.34036e+06 -3.15359e+06 -1.28174e+06 -221551 -62330.6
244 3 O 3.71851 41.6839 3.18632 -1.2 -8.82049 -2.93308e+06 -3.49386e+06 -1.64087e+06 -851113 253841 1.2361e+06
245 1 Mg 2.04077 40.3665 0 1.2 -6.32772 2.3389e+06 1.9014e+06 -3.67067e+06 -1.83281e+06 426940 1.46239e+06
246 3 O 3.70011 41.6839 5.78248 -1.2 -8.73638 -3.03203e+06 -3.59979e+06 -2.00429e+06 -930710 11118.4 -1.30084e+06
247 1 Mg -0.796865 40.4078 1.4948 1.2 -8.94199 -799933 2.47911e+06 4.4752e+06 1.7505e+06 44169.5 -19420.5
248 2 Si 1.01387 38.3429 1.4948 2.4 -33.9382 1.12633e+07 8.46992e+06 1.08093e+07 1.53514e+06 1.47131e+06 1.8928e+06
249 3 O 0.989947 36.7297 1.4948 -1.2 -7.94278 -6.71495e+06 -233031 -1.04311e+07 1.03671e+06 -6.644e+06 1.96799e+06
250 3 O 7.63988 39.317 1.4948 -1.2 -9.44455 -4.48528e+06 -741970 -1.99646e+06 -928538 -259384 1.12776e+06
251 3 O 0.340253 39.0491 0.196716 -1.2 -7.03251 -4.65947e+06 -1.15205e+07 -5.89056e+06 381692 -5.85946e+06 -1.43652e+06
252 3 O 0.319795 39.0491 2.79288 -1.2 -8.71423 -2.3865e+06 -3.79495e+06 -2.25051e+06 -856165 -215768 922692
253 1 Mg 7.20667 42.741 0 1.2 -6.39044 2.03225e+06 1.81718e+06 -3.60676e+06 1.99073e+06 918816 -2.19693e+06
254 1 Mg 4.50613 47.4487 1.4948 1.2 -8.90496 -1.21796e+06 2.65413e+06 4.07527e+06 -850295 432093 39163.4
255 2 Si 6.29731 44.7645 1.4948 2.4 -33.6704 1.19645e+07 7.3436e+06 1.08474e+07 -234847 905343 -1.53813e+06
256 3 O 6.36567 46.3778 1.4948 -1.2 -8.96828 -5.39381e+06 -43311.6 -5.13748e+06 177025 -2.70251e+06 -1.31721e+06
257 3 O 2.669 43.7905 1.4948 -1.2 -9.3435 -4.21971e+06 -934558 -2.46462e+06 1.7204e+06 -208253 -849788
258 3 O 5.58048 44.0584 0.196716 -1.2 -7.7171 -4.55037e+06 -7.87547e+06 -3.6284e+06 324174 -3.72787e+06 2.45093e+06
259 1 Mg 7.1879 42.741 2.9896 1.2 -8.09213 4.85058e+06 -1.86342e+06 -413679 1.27454e+06 -1.59728e+06 1.86444e+06
260 3 O 5.56564 44.0584 2.79288 -1.2 -8.7095 -2.51014e+06 -3.51044e+06 -2.23049e+06 1.13695e+06 -266286 -1.12959e+06
261 1 Mg -0.19105 42.7823 4.4844 1.2 -8.90408 -653166 2.312e+06 3.3949e+06 -409309 -39906.2 -49989.1
262 2 Si -1.97909 45.4664 4.4844 2.4 -33.1842 1.18453e+07 8.59653e+06 8.90917e+06 140846 -202662 -33423.8
263 3 O -2.04947 43.8532 4.4844 -1.2 -9.27607 -4.23176e+06 554.957 -3.89278e+06 445764 36668.1 75538.7
264 3 O 1.65063 46.4405 4.4844 -1.2 -9.11244 -3.66866e+06 -2.59539e+06 -3.24469e+06 2.33562e+06 -226589 47715.4
265 3 O -1.24745 46.1726 3.18632 -1.2 -8.81624 -2.86653e+06 -3.39735e+06 -1.65245e+06 1.13814e+06 106595 -1.42617e+06
266 3 O -1.26044 46.1726 5.78248 -1.2 -8.81838 -3.08039e+06 -3.48044e+06 -1.72396e+06 1.17505e+06 68936.7 1.3495e+06
267 1 Mg 2.15896 45.1155 2.9896 1.2 -8.11788 4.76583e+06 -1.72575e+06 -440945 -1.07822e+06 -1.66293e+06 -1.58239e+06
268 1 Mg 4.97763 45.0742 4.4844 1.2 -8.85944 -485504 2.31726e+06 3.29184e+06 1.25801e+06 -121226 -43615.1