ITEM: TIMESTEP
31400
ITEM: NUMBER OF ATOMS
10500
ITEM: BOX BOUNDS xy xz yz pp pp pp
0.0000000000000000e+00 1.5297749999999999e+01 5.0992499999999996e+00
0.0000000000000000e+00 1.1872499999999999e+02 0.0000000000000000e+00
0.0000000000000000e+00 8.9688000000000002e+01 0.0000000000000000e+00
ITEM: ATOMS id type element xu yu zu q c_pe c_s[1] c_s[2] c_s[3] c_s[4] c_s[5] c_s[6]
1 1 Mg 6.2404 -6.37941e-06 0 1.2 -4.4598 7.97924e+06 -2.53896e+06 -5.55667e+06 -10919.3 2.60899e+06 -404664
2 1 Mg 3.46349 4.70768 1.4948 1.2 -8.50342 -288587 2.354e+06 4.65467e+06 -916223 -643407 16410.7
3 2 Si 5.2885 2.02354 1.4948 2.4 -35.2995 1.01559e+07 1.0063e+07 1.21295e+07 8.87725e+06 653005 -3.44129e+06
4 3 O 5.33628 3.63678 1.4948 -1.2 -4.70557 -877842 -1.0756e+06 -3.40055e+07 -344377 3.82908e+06 -3.77646e+06
5 3 O 1.67294 1.04952 1.4948 -1.2 -1.00853 -2.03501e+07 -7.88485e+07 -2.68007e+06 -2.41212e+07 -119106 136119
6 3 O 4.59532 1.31737 0.196716 -1.2 -3.01065 -2.01132e+06 -6.09285e+06 -3.10505e+07 -6.03359e+06 6.24397e+06 -2.48894e+06
7 1 Mg 6.18956 -6.37941e-06 2.9896 1.2 -4.99654 1.7374e+06 -2.87231e+07 -2.54435e+06 -8.83581e+06 2.44303e+06 3.67565e+06
8 3 O 4.55118 1.31737 2.79288 -1.2 -7.45774 22288.3 -4.28364e+06 -3.52993e+06 -2.96636e+06 -3.34092e+06 -840331
9 1 Mg -1.20682 0.0413099 4.4844 1.2 8.80315 -3.05712e+07 -9.3817e+07 182643 -2.84698e+07 -1.06381e+06 -235769
10 2 Si -3.0337 2.72544 4.4844 2.4 -33.1731 1.47298e+07 6.56032e+06 8.23623e+06 1.58161e+06 300144 -963692
11 3 O -3.08099 1.11221 4.4844 -1.2 -9.5644 -6.42125e+06 382290 -2.33235e+06 -1.24306e+06 -293601 624769
12 3 O 0.582463 3.69946 4.4844 -1.2 -8.89162 -3.23059e+06 -5.30291e+06 -3.18377e+06 -518132 -189792 73095.6
13 3 O -2.29524 3.43162 3.18632 -1.2 -9.02068 -4.31281e+06 -2.22945e+06 -837476 1.1195e+06 -894203 -834161
14 3 O -2.34216 3.43162 5.78248 -1.2 -8.84468 -4.02589e+06 -3.12521e+06 -1.58814e+06 860798 356315 1.34313e+06
15 1 Mg 1.12778 2.37449 2.9896 1.2 -7.66206 5.17755e+06 -1.9909e+06 -230063 -3.28844e+06 -4.19363e+06 -2.46754e+06
16 1 Mg 3.92855 2.33318 4.4844 1.2 -8.50733 -4.05898e+06 4.69672e+06 5.01927e+06 1.43179e+06 124707 235713
17 2 Si 2.09341 4.39804 4.4844 2.4 -32.5174 1.20303e+07 6.45236e+06 9.54106e+06 277435 -364704 282979
18 3 O 2.09991 6.01128 4.4844 -1.2 -9.40296 -4.10569e+06 224389 -4.20881e+06 507931 -136926 -72311.4
19 3 O -4.52137 3.42402 4.4844 -1.2 -9.16119 -3.09862e+06 -2.68549e+06 -3.62824e+06 -2.45295e+06 -824050 133257
20 3 O 2.80834 3.69187 3.18632 -1.2 -9.28332 -2.1551e+06 -2.54374e+06 -748867 427690 -428583 -358505
21 1 Mg 1.17857 2.37449 0 1.2 -5.14433 -625263 -1.53658e+07 -5.84929e+06 6.5162e+06 1.21775e+06 4.45754e+06
22 3 O 2.76143 3.69187 5.78248 -1.2 -9.2818 -2.69581e+06 -2.37679e+06 -1.44839e+06 375978 186862 183201
23 1 Mg -1.67381 2.41581 1.4948 1.2 -7.60873 1.60439e+06 -663069 4.51585e+06 1.34353e+06 -558524 851456
24 2 Si 0.16286 0.350945 1.4948 2.4 -24.6535 -8.13209e+06 1.12707e+07 1.26588e+07 1.58623e+06 2.87465e+06 682893
25 3 O 0.15972 -1.26229 1.4948 -1.2 -4.70508 -1.07359e+07 -7.34152e+06 -2.96691e+07 -5.61089e+06 -8.54727e+06 -2.34053e+06
26 3 O 6.77654 1.32496 1.4948 -1.2 -10.325 -5.83124e+06 2.27789e+06 -1.84786e+06 -646211 -651632 1.29042e+06
27 3 O -0.508028 1.05712 0.196716 -1.2 -9.49872 88407.4 -4.05896e+06 -1.34233e+06 -547035 197155 -4.35725e+06
28 3 O -0.552171 1.05712 2.79288 -1.2 -6.73541 -5.38548e+06 -4.14832e+06 -2.51561e+07 1.42658e+06 -6.85027e+06 -5.24497e+06
29 1 Mg 6.31713 4.74899 0 1.2 -4.9369 381851 -1.33183e+07 -5.70604e+06 -7.31272e+06 1.41969e+06 -3.68392e+06
30 1 Mg 3.54847 9.45668 1.4948 1.2 -8.37975 349744 1.34568e+06 4.80515e+06 -957918 -926557 -423889
31 2 Si 5.36879 6.77254 1.4948 2.4 -34.3681 7.43763e+06 1.13443e+07 1.22301e+07 1.66948e+06 148487 -2.00243e+06
32 3 O 5.41937 8.38578 1.4948 -1.2 -4.71443 -406701 -566502 -3.55759e+07 769024 1.10583e+06 -4.1678e+06
33 3 O 1.75158 5.79852 1.4948 -1.2 -9.46865 -4.0345e+06 -2.03048e+06 -1.77712e+06 1.96061e+06 -1.5841e+06 -1.30302e+06
34 3 O 4.67421 6.06637 0.196716 -1.2 -3.77013 130917 -9.73845e+06 -3.18321e+07 -2.01653e+06 1.31135e+06 -4.38525e+06
35 1 Mg 6.26654 4.74899 2.9896 1.2 -8.07023 4.24227e+06 -1.96266e+06 220609 1.8042e+06 -829301 1.91244e+06
36 3 O 4.63043 6.06637 2.79288 -1.2 -8.7931 -1.73241e+06 -3.652e+06 -2.4844e+06 914851 -105859 -1.4573e+06
37 1 Mg -1.12976 4.79031 4.4844 1.2 -8.87281 -531752 2.55028e+06 3.06717e+06 -790558 -374718 -127474
38 2 Si -2.9517 7.47444 4.4844 2.4 -33.1314 1.17084e+07 8.11292e+06 9.421e+06 -6855.47 -19911.7 -122200
39 3 O -3.00198 5.86121 4.4844 -1.2 -9.34953 -4.16731e+06 160914 -4.02403e+06 98100.9 -266906 -27974.4
40 3 O 0.666315 8.44846 4.4844 -1.2 -9.12203 -3.61099e+06 -2.27187e+06 -3.57474e+06 2.10606e+06 -470369 103586
41 3 O -2.21213 8.18062 3.18632 -1.2 -8.99257 -3.09817e+06 -3.01318e+06 -1.02022e+06 1.11136e+06 -297928 -1.36954e+06
42 3 O -2.25864 8.18062 5.78248 -1.2 -8.76281 -3.24474e+06 -3.26687e+06 -2.18338e+06 1.03468e+06 23480.9 1.52374e+06
43 1 Mg 1.20893 7.12349 2.9896 1.2 -8.07643 4.23906e+06 -1.93237e+06 182673 -1.27735e+06 -1.34282e+06 -1.70895e+06
44 1 Mg 4.00982 7.08218 4.4844 1.2 -8.78695 -620193 2.21574e+06 3.40261e+06 1.04529e+06 -245355 125884
45 2 Si 2.17861 9.14704 4.4844 2.4 -33.1619 1.16884e+07 8.16988e+06 9.4014e+06 602069 -25516.8 -100453
46 3 O 2.18828 10.7603 4.4844 -1.2 -9.29621 -4.15722e+06 148226 -4.22952e+06 447344 -210352 216692
47 3 O -4.43805 8.17302 4.4844 -1.2 -9.15249 -3.60498e+06 -2.2167e+06 -3.54874e+06 -1.50016e+06 -520431 15173.2
48 3 O 2.89193 8.44087 3.18632 -1.2 -9.00499 -2.95535e+06 -3.20953e+06 -1.10065e+06 -930227 -230908 1.32455e+06
49 1 Mg 1.25915 7.12349 0 1.2 -5.30946 969216 -7.96099e+06 -5.94783e+06 5.90047e+06 1.37269e+06 2.54187e+06
50 3 O 2.84547 8.44087 5.78248 -1.2 -8.77786 -3.20697e+06 -3.45502e+06 -2.15769e+06 -907045 -143290 -1.22715e+06
51 1 Mg -1.59284 7.16481 1.4948 1.2 -8.2887 878354 999185 4.67617e+06 1.45016e+06 -908787 288755
52 2 Si 0.240329 5.09994 1.4948 2.4 -34.1234 8.34459e+06 1.02437e+07 1.20322e+07 -1.97864e+06 -1.05153e+06 1.83194e+06
53 3 O 0.234538 3.48671 1.4948 -1.2 -5.19451 -1.78588e+06 793851 -3.42197e+07 411062 5.17059e+06 4.07533e+06
54 3 O 6.85564 6.07396 1.4948 -1.2 -9.54922 -4.47251e+06 -1.4593e+06 -1.74233e+06 -1.33537e+06 -1.84132e+06 1.19563e+06
55 3 O -0.429565 5.80612 0.196716 -1.2 -4.01982 -667803 -8.39008e+06 -3.19383e+07 1.86007e+06 1.18126e+06 4.60665e+06
56 3 O -0.473377 5.80612 2.79288 -1.2 -8.87612 -2.22051e+06 -3.24322e+06 -2.3719e+06 -758325 305990 1.34864e+06
57 1 Mg 6.40169 9.49799 0 1.2 -5.27639 1.55921e+06 -6.85285e+06 -6.18791e+06 -5.48889e+06 992244 -2.56363e+06
58 1 Mg 3.64209 14.2057 1.4948 1.2 -8.44973 262978 1.39388e+06 4.91493e+06 -1.03067e+06 -973685 -435588
59 2 Si 5.45748 11.5215 1.4948 2.4 -34.3674 7.7379e+06 1.09132e+07 1.23358e+07 895352 324923 -2.4967e+06
60 3 O 5.51101 13.1348 1.4948 -1.2 -4.74421 -597377 -473605 -3.52505e+07 466002 -2.52737e+06 -4.17197e+06
61 3 O 1.83851 10.5475 1.4948 -1.2 -9.5245 -4.29799e+06 -1.47156e+06 -1.71114e+06 1.5374e+06 -1.58514e+06 -941077
62 3 O 4.7611 10.8154 0.196716 -1.2 -3.61494 548991 -1.10351e+07 -3.24249e+07 -2.4699e+06 -1.75654e+06 -4.1362e+06
63 1 Mg 6.35203 9.49799 2.9896 1.2 -8.07127 4.27593e+06 -1.99206e+06 215748 1.30511e+06 -1.18895e+06 1.86163e+06
64 3 O 4.71833 10.8154 2.79288 -1.2 -8.78059 -1.98308e+06 -3.413e+06 -2.50281e+06 1.05386e+06 42068.4 -1.13277e+06
65 1 Mg -1.0438 9.53931 4.4844 1.2 -8.83559 -591864 2.12876e+06 3.45179e+06 -543846 -296815 -204762
66 2 Si -2.8604 12.2234 4.4844 2.4 -33.1151 1.18279e+07 8.5022e+06 8.88294e+06 -64980.5 -70550.6 -435005
67 3 O -2.91391 10.6102 4.4844 -1.2 -9.32151 -4.20361e+06 144780 -4.0317e+06 223135 -180275 233316
68 3 O 0.7596 13.1975 4.4844 -1.2 -9.11986 -3.57023e+06 -2.52851e+06 -3.36513e+06 2.16162e+06 -512289 251634
69 3 O -2.12001 12.9296 3.18632 -1.2 -8.97665 -3.06322e+06 -3.1685e+06 -931672 1.16335e+06 -226212 -1.34136e+06
70 3 O -2.16532 12.9296 5.78248 -1.2 -8.83745 -3.23575e+06 -3.70891e+06 -1.53415e+06 1.16802e+06 -100482 1.55627e+06
71 1 Mg 1.29891 11.8725 2.9896 1.2 -8.09643 4.32324e+06 -1.88474e+06 79723.4 -1.17832e+06 -1.20661e+06 -1.88913e+06
72 1 Mg 4.10033 11.8312 4.4844 1.2 -8.82569 -514506 2.2839e+06 3.29311e+06 1.12886e+06 -342535 -195517
73 2 Si 2.27333 13.896 4.4844 2.4 -33.1232 1.16695e+07 8.71361e+06 8.8092e+06 692400 -30760.4 -263561
74 3 O 2.28634 15.5093 4.4844 -1.2 -9.31476 -4.17136e+06 -22986.2 -4.01154e+06 454080 -209187 -6146.14
75 3 O -4.34533 12.922 4.4844 -1.2 -9.16793 -3.66628e+06 -2.4271e+06 -3.25851e+06 -1.4815e+06 -446940 112882
76 3 O 2.98455 13.1899 3.18632 -1.2 -8.9963 -3.00746e+06 -3.29042e+06 -1.00527e+06 -963818 -155397 1.47502e+06
77 1 Mg 1.34779 11.8725 0 1.2 -5.5266 2.81876e+06 -3.29448e+06 -6.21755e+06 3.56315e+06 814864 1.41661e+06
78 3 O 2.93934 13.1899 5.78248 -1.2 -8.8182 -3.07926e+06 -3.85257e+06 -1.78879e+06 -972761 -163070 -885913
79 1 Mg -1.50344 11.9138 1.4948 1.2 -8.39008 593873 1.31908e+06 4.78697e+06 1.56027e+06 -940883 232370
80 2 Si 0.326006 9.84894 1.4948 2.4 -34.3304 7.7748e+06 1.09418e+07 1.21833e+07 -600653 123321 2.01747e+06
81 3 O 0.317364 8.23571 1.4948 -1.2 -4.71817 -528037 -444188 -3.57004e+07 -126213 1.17565e+06 4.26007e+06
82 3 O 6.94307 10.823 1.4948 -1.2 -9.56321 -4.44553e+06 -1.2975e+06 -1.63474e+06 -983120 -1.52514e+06 1.21326e+06
83 3 O -0.343122 10.5551 0.196716 -1.2 -3.71233 264696 -1.04949e+07 -3.24896e+07 2.46276e+06 -2.05352e+06 4.65979e+06
84 3 O -0.385966 10.5551 2.79288 -1.2 -8.81561 -2.03421e+06 -3.45498e+06 -2.49825e+06 -863342 79822.3 1.28982e+06
85 1 Mg 6.49448 14.247 0 1.2 -5.50532 3.29745e+06 -2.52451e+06 -6.3154e+06 -2.96871e+06 239195 -1.68419e+06
86 1 Mg 3.74457 18.9547 1.4948 1.2 -8.52613 38309.2 1.52776e+06 5.05091e+06 -1.1228e+06 -985043 -341182
87 2 Si 5.55495 16.2705 1.4948 2.4 -34.3622 8.01775e+06 1.05473e+07 1.24323e+07 515457 762832 -2.45506e+06
88 3 O 5.6115 17.8838 1.4948 -1.2 -5.05888 -1.61938e+06 -350611 -3.26158e+07 87884.7 -6.0321e+06 -4.06299e+06
89 3 O 1.93416 15.2965 1.4948 -1.2 -9.55244 -4.38805e+06 -1.14096e+06 -1.65684e+06 1.53224e+06 -1.38286e+06 -931311
90 3 O 4.85636 15.5644 0.196716 -1.2 -3.6172 536831 -1.26704e+07 -3.094e+07 -3.03296e+06 -5.10964e+06 -3.61519e+06
91 1 Mg 6.44662 14.247 2.9896 1.2 -8.06242 4.36718e+06 -1.92705e+06 44357.9 1.28893e+06 -1.20291e+06 1.89962e+06
92 3 O 4.81537 15.5644 2.79288 -1.2 -8.76225 -1.98313e+06 -3.45134e+06 -2.52383e+06 1.07524e+06 -10557.6 -1.21603e+06
93 1 Mg -0.948271 14.2883 4.4844 1.2 -8.82658 -674418 2.36585e+06 3.27497e+06 -576094 -290789 -105740
94 2 Si -2.75928 16.9724 4.4844 2.4 -33.181 1.19195e+07 8.16984e+06 9.23789e+06 -24844.5 -120054 -44232.5
95 3 O -2.81617 15.3592 4.4844 -1.2 -9.31631 -4.18295e+06 65097.9 -3.96842e+06 284426 -143773 -13047.9
96 3 O 0.862762 17.9465 4.4844 -1.2 -9.08604 -3.62718e+06 -2.31069e+06 -3.57192e+06 2.12865e+06 -542041 43217
97 3 O -2.0185 17.6786 3.18632 -1.2 -8.95612 -3.08514e+06 -3.06508e+06 -1.06262e+06 1.15678e+06 -145631 -1.42541e+06
98 3 O -2.06164 17.6786 5.78248 -1.2 -8.73206 -3.335e+06 -3.27892e+06 -2.15305e+06 1.06961e+06 -25886.4 1.38941e+06
99 1 Mg 1.39817 16.6215 2.9896 1.2 -8.0936 4.42663e+06 -1.91624e+06 1212.42 -1.15392e+06 -1.20533e+06 -1.70233e+06
100 1 Mg 4.20062 16.5802 4.4844 1.2 -8.84437 -497407 2.22955e+06 3.36287e+06 1.10729e+06 -301219 92284.5
101 2 Si 2.37796 18.645 4.4844 2.4 -33.2146 1.1656e+07 8.21726e+06 9.4712e+06 736330 -39616.6 -55938.9
102 3 O 2.39434 20.2583 4.4844 -1.2 -9.29367 -4.08558e+06 110719 -4.26595e+06 451275 -204318 150585
103 3 O -4.24274 17.671 4.4844 -1.2 -9.14098 -3.75914e+06 -2.21364e+06 -3.41149e+06 -1.38538e+06 -432570 8325.76
104 3 O 3.08659 17.9389 3.18632 -1.2 -8.97456 -2.99812e+06 -3.20462e+06 -1.1705e+06 -935972 -65674.8 1.34753e+06
105 1 Mg 1.44478 16.6215 0 1.2 -5.64624 4.503e+06 -364524 -6.19747e+06 1.4001e+06 -43979.7 795835
106 3 O 3.0436 17.9389 5.78248 -1.2 -8.70969 -3.0996e+06 -3.48662e+06 -2.38035e+06 -851735 -117189 -1.29943e+06
107 1 Mg -1.40524 16.6628 1.4948 1.2 -8.47189 426583 1.42111e+06 4.93571e+06 1.69337e+06 -961322 276905
108 2 Si 0.420358 14.5979 1.4948 2.4 -34.357 7.90984e+06 1.07827e+07 1.22341e+07 -133164 586399 2.23322e+06
109 3 O 0.408732 12.9847 1.4948 -1.2 -4.73365 -628929 -457618 -3.53858e+07 227085 -2.57232e+06 4.42083e+06
110 3 O 7.03923 15.572 1.4948 -1.2 -9.58987 -4.51456e+06 -974818 -1.60407e+06 -942691 -1.29907e+06 1.12108e+06
111 3 O -0.248332 15.3041 0.196716 -1.2 -3.72139 205448 -1.22022e+07 -3.09629e+07 3.25538e+06 -5.43221e+06 4.12436e+06
112 3 O -0.289436 15.3041 2.79288 -1.2 -8.79848 -2.00082e+06 -3.55596e+06 -2.49953e+06 -857783 34595.4 1.16154e+06
113 1 Mg 6.59566 18.996 0 1.2 -5.6201 4.67948e+06 121609 -6.11646e+06 -916661 -691185 -971752
114 1 Mg 3.85574 23.7037 1.4948 1.2 -8.61335 -244772 1.76505e+06 5.09663e+06 -1.18336e+06 -910089 -386736
115 2 Si 5.66125 21.0195 1.4948 2.4 -34.2608 8.4354e+06 1.02758e+07 1.21854e+07 167270 1.1453e+06 -2.55906e+06
116 3 O 5.72074 22.6328 1.4948 -1.2 -5.66772 -3.2864e+06 -323890 -2.76594e+07 -215856 -8.46952e+06 -3.54004e+06
117 3 O 2.03867 20.0455 1.4948 -1.2 -9.58481 -4.37137e+06 -906622 -1.65356e+06 1.56472e+06 -1.17156e+06 -873977
118 3 O 4.96004 20.3134 0.196716 -1.2 -3.95698 -163460 -1.41772e+07 -2.70029e+07 -3.17455e+06 -7.9214e+06 -2.67008e+06
119 1 Mg 6.55057 18.996 2.9896 1.2 -8.04881 4.48308e+06 -2.01749e+06 -2353.46 1.27908e+06 -1.23861e+06 1.87287e+06
120 3 O 4.92172 20.3134 2.79288 -1.2 -8.75774 -1.94986e+06 -3.48263e+06 -2.57004e+06 1.09313e+06 -27503.4 -1.14643e+06
121 1 Mg -0.84282 19.0373 4.4844 1.2 -8.84415 -624077 2.11802e+06 3.4925e+06 -485437 -207716 -171836
122 2 Si -2.64823 21.7214 4.4844 2.4 -33.0375 1.1993e+07 8.32876e+06 8.76855e+06 -108787 -273520 -306149
123 3 O -2.70847 20.1082 4.4844 -1.2 -9.34784 -4.25596e+06 156883 -3.93192e+06 365457 -112937 178373
124 3 O 0.97581 22.6955 4.4844 -1.2 -9.1328 -3.58003e+06 -2.41764e+06 -3.45845e+06 2.19848e+06 -607397 215341
125 3 O -1.9076 22.4276 3.18632 -1.2 -8.97533 -3.08262e+06 -3.15936e+06 -982223 1.18419e+06 -42330.8 -1.34935e+06
126 3 O -1.9475 22.4276 5.78248 -1.2 -8.93535 -3.3627e+06 -3.37723e+06 -1.49567e+06 1.21509e+06 -76591.2 1.51998e+06
127 1 Mg 1.50678 21.3705 2.9896 1.2 -8.07037 4.46885e+06 -1.89261e+06 -101944 -1.14217e+06 -1.18651e+06 -1.79374e+06
128 1 Mg 4.31086 21.3292 4.4844 1.2 -8.83583 -649130 2.27367e+06 3.45752e+06 1.20116e+06 -358922 -52021.3
129 2 Si 2.49243 23.394 4.4844 2.4 -33.1644 1.15579e+07 8.37806e+06 9.32055e+06 778702 128017 -294190
130 3 O 2.51204 25.0073 4.4844 -1.2 -9.29093 -4.13178e+06 163507 -4.28484e+06 547059 -237109 242931
131 3 O -4.13026 22.42 4.4844 -1.2 -9.18024 -3.68929e+06 -2.30953e+06 -3.32959e+06 -1.37015e+06 -267033 37121.9
132 3 O 3.19799 22.6879 3.18632 -1.2 -8.97305 -2.91449e+06 -3.29112e+06 -1.23026e+06 -941678 -10383.1 1.44834e+06
133 1 Mg 1.5501 21.3705 0 1.2 -5.69743 5.33853e+06 1.29704e+06 -5.83448e+06 -67380.6 -949281 320548
134 3 O 3.1583 22.6879 5.78248 -1.2 -8.77006 -2.92244e+06 -3.66932e+06 -2.12889e+06 -991757 -288769 -1.08345e+06
135 1 Mg -1.29822 21.4118 1.4948 1.2 -8.53876 189709 1.66841e+06 4.92798e+06 1.80618e+06 -937772 148109
136 2 Si 0.523568 19.3469 1.4948 2.4 -34.3008 8.22347e+06 1.04423e+07 1.21991e+07 329152 1.05201e+06 2.38014e+06
137 3 O 0.508934 17.7337 1.4948 -1.2 -5.04918 -1.65876e+06 -339884 -3.27372e+07 658825 -6.10336e+06 4.15206e+06
138 3 O 7.14425 20.321 1.4948 -1.2 -9.63173 -4.53566e+06 -770336 -1.52993e+06 -930467 -1.04804e+06 1.12211e+06
139 3 O -0.145107 20.0531 0.196716 -1.2 -4.06072 -536758 -1.38367e+07 -2.70073e+07 3.67002e+06 -8.21842e+06 3.16742e+06
140 3 O -0.183601 20.0531 2.79288 -1.2 -8.79921 -1.99666e+06 -3.56424e+06 -2.54419e+06 -857511 -61831.5 1.1942e+06
141 1 Mg 6.70502 23.745 0 1.2 -5.72195 5.22364e+06 1.49804e+06 -5.49014e+06 413839 -1.52505e+06 -750659
142 1 Mg 3.97493 28.4527 1.4948 1.2 -8.72343 -500137 1.93204e+06 5.12876e+06 -1.22158e+06 -755854 -411166
143 2 Si 5.77602 25.7685 1.4948 2.4 -34.1751 9.13348e+06 9.672e+06 1.20414e+07 -90707.5 1.49041e+06 -2.751e+06
144 3 O 5.83821 27.3818 1.4948 -1.2 -6.43421 -5.07411e+06 -147575 -2.15841e+07 -353249 -9.28306e+06 -2.80956e+06
145 3 O 2.15175 24.7945 1.4948 -1.2 -9.58734 -4.36301e+06 -729611 -1.70102e+06 1.61885e+06 -964736 -713534
146 3 O 5.07184 25.0624 0.196716 -1.2 -4.55937 -1.47962e+06 -1.48631e+07 -2.14149e+07 -2.78677e+06 -9.4246e+06 -1.24658e+06
147 1 Mg 6.66374 23.745 2.9896 1.2 -8.02913 4.54815e+06 -1.9866e+06 -126895 1.31448e+06 -1.33002e+06 1.81767e+06
148 3 O 5.03707 25.0624 2.79288 -1.2 -8.73853 -1.96445e+06 -3.4792e+06 -2.62696e+06 1.06943e+06 -116120 -1.0161e+06
149 1 Mg -0.727559 23.7863 4.4844 1.2 -8.79405 -637101 2.19454e+06 3.33959e+06 -540613 -179908 -170459
150 2 Si -2.5277 26.4704 4.4844 2.4 -33.1504 1.18971e+07 8.16087e+06 9.22644e+06 114845 -347007 -334655
151 3 O -2.59107 24.8572 4.4844 -1.2 -9.34104 -4.25653e+06 183717 -3.95508e+06 343641 14329 127759
152 3 O 1.09817 27.4445 4.4844 -1.2 -9.12485 -3.68504e+06 -2.35404e+06 -3.42768e+06 2.33102e+06 -475793 352434
153 3 O -1.78784 27.1766 3.18632 -1.2 -8.92814 -3.02713e+06 -3.1108e+06 -1.21515e+06 1.16223e+06 67395.5 -1.27684e+06
154 3 O -1.82343 27.1766 5.78248 -1.2 -8.77931 -3.22364e+06 -3.2959e+06 -2.06576e+06 1.17516e+06 128960 1.50068e+06
155 1 Mg 1.62435 26.1195 2.9896 1.2 -8.0687 4.60573e+06 -1.94722e+06 -183750 -1.18072e+06 -1.24727e+06 -1.8667e+06
156 1 Mg 4.43064 26.0782 4.4844 1.2 -8.86606 -582612 2.17624e+06 3.5403e+06 1.25267e+06 -240769 -272892
157 2 Si 2.61607 28.143 4.4844 2.4 -33.1138 1.1778e+07 8.35942e+06 9.04201e+06 673419 -30972.9 -716977
158 3 O 2.63853 29.7563 4.4844 -1.2 -9.35345 -4.20343e+06 71618.1 -4.02175e+06 577494 -123167 276865
159 3 O -4.00841 27.169 4.4844 -1.2 -9.14323 -3.7033e+06 -2.24419e+06 -3.43195e+06 -1.45808e+06 -381736 201484
160 3 O 3.3182 27.4369 3.18632 -1.2 -8.95543 -2.96694e+06 -3.27053e+06 -1.3011e+06 -899129 63544.7 1.59808e+06
161 1 Mg 1.66335 26.1195 0 1.2 -5.82313 5.24894e+06 1.90229e+06 -4.92955e+06 -898851 -1.55102e+06 11551.3
162 3 O 3.28288 27.4369 5.78248 -1.2 -8.78476 -3.08178e+06 -3.55245e+06 -2.16404e+06 -926940 -138053 -693733
163 1 Mg -1.18278 26.1608 1.4948 1.2 -8.6512 -83616.9 1.82772e+06 5.02993e+06 1.8802e+06 -856961 -29088.7
164 2 Si 0.635424 24.0959 1.4948 2.4 -34.2051 8.77741e+06 1.00507e+07 1.19509e+07 735658 1.43308e+06 2.17969e+06
165 3 O 0.617906 22.4827 1.4948 -1.2 -5.66117 -3.33346e+06 -311061 -2.77707e+07 1.01007e+06 -8.57554e+06 3.80219e+06
166 3 O 7.25781 25.07 1.4948 -1.2 -9.63185 -4.53136e+06 -590817 -1.59332e+06 -939473 -796221 1.21912e+06
167 3 O -0.0337363 24.8021 0.196716 -1.2 -4.65136 -1.80481e+06 -1.48275e+07 -2.13895e+07 3.50476e+06 -9.64004e+06 2.04125e+06
168 3 O -0.0687235 24.8021 2.79288 -1.2 -8.79745 -2.04029e+06 -3.60457e+06 -2.51614e+06 -813144 -109921 1.21531e+06
169 1 Mg 6.82195 28.494 0 1.2 -5.90421 4.85889e+06 1.9289e+06 -4.38466e+06 1.15633e+06 -1.84906e+06 -746818
170 1 Mg 4.10106 33.2017 1.4948 1.2 -8.78399 -871876 2.18312e+06 5.00596e+06 -1.20885e+06 -530950 -289097
171 2 Si 5.89839 30.5175 1.4948 2.4 -34.0322 9.94076e+06 9.00976e+06 1.17504e+07 -329305 1.6916e+06 -2.66357e+06
172 3 O 5.96289 32.1308 1.4948 -1.2 -7.28632 -6.22721e+06 -68455.8 -1.54901e+07 -282681 -8.4526e+06 -2.20181e+06
173 3 O 2.27266 29.5435 1.4948 -1.2 -9.5642 -4.36427e+06 -599532 -1.81875e+06 1.66308e+06 -726834 -636237
174 3 O 5.19102 29.8114 0.196716 -1.2 -5.3515 -2.9272e+06 -1.43938e+07 -1.53647e+07 -1.93756e+06 -9.29437e+06 115920
175 1 Mg 6.78546 28.494 2.9896 1.2 -8.03694 4.60122e+06 -2.0247e+06 -123950 1.34093e+06 -1.31512e+06 1.68269e+06
176 3 O 5.16061 29.8114 2.79288 -1.2 -8.7458 -2.04805e+06 -3.4978e+06 -2.55457e+06 1.10536e+06 -246542 -935129
177 1 Mg -0.603205 28.5353 4.4844 1.2 -8.8373 -731310 2.18437e+06 3.50753e+06 -501733 -292254 -239450
178 2 Si -2.39877 31.2194 4.4844 2.4 -33.12 1.16405e+07 8.22505e+06 9.37303e+06 76155.4 -209231 -520270
179 3 O -2.46483 29.6062 4.4844 -1.2 -9.31389 -4.09296e+06 143421 -4.11081e+06 354808 -42310 254170
180 3 O 1.22864 32.1935 4.4844 -1.2 -9.16516 -3.62431e+06 -2.38424e+06 -3.39488e+06 2.20928e+06 -363826 263878
181 3 O -1.66032 31.9256 3.18632 -1.2 -8.93014 -2.91292e+06 -3.16424e+06 -1.35072e+06 1.14917e+06 115457 -1.21495e+06
182 3 O -1.69072 31.9256 5.78248 -1.2 -8.80105 -3.05175e+06 -3.2845e+06 -2.13951e+06 1.16022e+06 68416.8 1.64803e+06
183 1 Mg 1.7499 30.8685 2.9896 1.2 -8.04295 4.67112e+06 -1.91277e+06 -318273 -1.13422e+06 -1.38649e+06 -1.82527e+06
184 1 Mg 4.55894 30.8272 4.4844 1.2 -8.79584 -576926 2.23912e+06 3.35799e+06 1.19099e+06 -123874 -187702
185 2 Si 2.7476 32.892 4.4844 2.4 -33.0269 1.15717e+07 8.37591e+06 9.09455e+06 790454 -63465 -374563
186 3 O 2.77235 34.5053 4.4844 -1.2 -9.39081 -3.98237e+06 44440.6 -4.15962e+06 569265 -120117 186938
187 3 O -3.87837 31.918 4.4844 -1.2 -9.20069 -3.67497e+06 -2.25444e+06 -3.36802e+06 -1.29333e+06 -383471 210240
188 3 O 3.44611 32.1859 3.18632 -1.2 -8.97317 -2.89213e+06 -3.33552e+06 -1.37646e+06 -870018 150902 1.49365e+06
189 1 Mg 1.7837 30.8685 0 1.2 -5.98844 4.36602e+06 2.04131e+06 -3.98143e+06 -1.34982e+06 -1.51776e+06 115647
190 3 O 3.41602 32.1859 5.78248 -1.2 -8.873 -2.9875e+06 -3.50739e+06 -2.09651e+06 -871831 -205290 -1.05808e+06
191 1 Mg -1.05984 30.9098 1.4948 1.2 -8.74844 -429217 2.0206e+06 5.03663e+06 1.91025e+06 -651315 -137159
192 2 Si 0.755243 28.8449 1.4948 2.4 -34.1122 9.56126e+06 9.36217e+06 1.17917e+07 1.11645e+06 1.59261e+06 1.931e+06
193 3 O 0.735127 27.2317 1.4948 -1.2 -6.43056 -5.1337e+06 -137585 -2.16778e+07 1.18971e+06 -9.32943e+06 3.30332e+06
194 3 O 7.37914 29.819 1.4948 -1.2 -9.60378 -4.48844e+06 -463691 -1.77536e+06 -937336 -602497 1.28925e+06
195 3 O 0.0850649 29.5511 0.196716 -1.2 -5.41446 -3.15229e+06 -1.47427e+07 -1.53358e+07 2.70368e+06 -9.42633e+06 741812
196 3 O 0.0543974 29.5511 2.79288 -1.2 -8.78789 -2.07007e+06 -3.60777e+06 -2.54743e+06 -827924 -99302.4 1.23946e+06
197 1 Mg 6.94543 33.243 0 1.2 -6.06262 3.7986e+06 2.07479e+06 -3.54294e+06 1.57788e+06 -1.457e+06 -925749
198 1 Mg 4.23267 37.9507 1.4948 1.2 -8.77711 -1.26902e+06 2.47393e+06 4.68678e+06 -1.11288e+06 -222121 -127668
199 2 Si 6.02709 35.2665 1.4948 2.4 -33.756 1.05501e+07 8.54762e+06 1.12106e+07 -418452 1.5721e+06 -2.30741e+06
200 3 O 6.09339 36.8798 1.4948 -1.2 -8.10332 -6.40749e+06 -123432 -1.04393e+07 -145999 -6.59987e+06 -1.7981e+06
201 3 O 2.40018 34.2925 1.4948 -1.2 -9.56801 -4.2301e+06 -655703 -1.94272e+06 1.68893e+06 -532088 -689635
202 3 O 5.31645 34.5604 0.196716 -1.2 -6.27862 -3.92974e+06 -1.28979e+07 -9.93597e+06 -950100 -7.83718e+06 1.19796e+06
203 1 Mg 6.91449 33.243 2.9896 1.2 -7.98033 4.61079e+06 -1.96055e+06 -280098 1.29351e+06 -1.40104e+06 1.66068e+06
204 3 O 5.291 34.5604 2.79288 -1.2 -8.80687 -2.04699e+06 -3.5689e+06 -2.42303e+06 1.1379e+06 -243876 -972358
205 1 Mg -0.471101 33.2843 4.4844 1.2 -8.77907 -853987 2.23469e+06 3.48078e+06 -389760 -188704 -310829
206 2 Si -2.26307 35.9684 4.4844 2.4 -32.8243 1.1408e+07 8.63464e+06 8.72354e+06 108061 -249433 -360185
207 3 O -2.33122 34.3552 4.4844 -1.2 -9.42645 -4.0225e+06 32979.5 -3.88979e+06 415821 -3882.54 310878
208 3 O 1.36549 36.9425 4.4844 -1.2 -9.26947 -3.43927e+06 -2.56417e+06 -3.24751e+06 2.33716e+06 -396814 212909
209 3 O -1.52658 36.6746 3.18632 -1.2 -9.00386 -2.7506e+06 -3.37658e+06 -1.28008e+06 1.15768e+06 137037 -1.34301e+06
210 3 O -1.55122 36.6746 5.78248 -1.2 -9.06101 -2.7623e+06 -3.5685e+06 -1.60745e+06 1.15783e+06 10850.8 1.44632e+06
211 1 Mg 1.882 35.6175 2.9896 1.2 -7.97769 4.57089e+06 -1.78857e+06 -436721 -1.11537e+06 -1.43892e+06 -1.74829e+06
212 1 Mg 4.69415 35.5762 4.4844 1.2 -8.71777 -785741 2.31405e+06 3.36819e+06 1.22404e+06 -227048 -175764
213 2 Si 2.88522 37.641 4.4844 2.4 -32.8172 1.10996e+07 8.74154e+06 8.8636e+06 763095 -53380.4 -403560
214 3 O 2.91159 39.2543 4.4844 -1.2 -9.50899 -3.87981e+06 -132810 -3.90424e+06 602708 -74438.6 80186.7
215 3 O -3.74183 36.667 4.4844 -1.2 -9.34331 -3.55635e+06 -2.44826e+06 -3.06772e+06 -1.35456e+06 -219160 97099
216 3 O 3.58014 36.9349 3.18632 -1.2 -9.02957 -2.6731e+06 -3.51068e+06 -1.43671e+06 -869154 220743 1.41577e+06
217 1 Mg 1.90997 35.6175 0 1.2 -6.09992 3.10869e+06 2.04872e+06 -3.53156e+06 -1.64654e+06 -767314 637819
218 3 O 3.55582 36.9349 5.78248 -1.2 -8.96215 -2.57076e+06 -3.64989e+06 -2.17387e+06 -948578 -83924 -879333
219 1 Mg -0.93068 35.6588 1.4948 1.2 -8.76261 -809216 2.32072e+06 4.74714e+06 1.85291e+06 -320336 -108558
220 2 Si 0.881882 33.5939 1.4948 2.4 -33.8931 1.02365e+07 8.81254e+06 1.13859e+07 1.42594e+06 1.64536e+06 1.8079e+06
221 3 O 0.859602 31.9807 1.4948 -1.2 -7.27907 -6.28718e+06 -52453 -1.56005e+07 1.15289e+06 -8.4728e+06 2.68136e+06
222 3 O 7.507 34.568 1.4948 -1.2 -9.61753 -4.36944e+06 -558712 -1.84439e+06 -927799 -410130 1.26289e+06
223 3 O 0.210186 34.3001 0.196716 -1.2 -6.30935 -4.06832e+06 -1.35983e+07 -9.89591e+06 1.53105e+06 -7.94029e+06 -483976
224 3 O 0.184454 34.3001 2.79288 -1.2 -8.84632 -2.07147e+06 -3.6998e+06 -2.40768e+06 -860107 -192669 1.17901e+06
225 1 Mg 7.07415 37.992 0 1.2 -6.15286 2.56339e+06 2.05798e+06 -3.2956e+06 1.86954e+06 -398752 -1.37207e+06
226 1 Mg 4.36817 42.6997 1.4948 1.2 -8.7442 -1.49201e+06 2.61815e+06 4.33096e+06 -996462 135081 -22616.2
227 2 Si 6.16058 40.0155 1.4948 2.4 -33.4576 1.09429e+07 8.07571e+06 1.0819e+07 -345614 1.34393e+06 -1.72593e+06
228 3 O 6.22815 41.6288 1.4948 -1.2 -8.74498 -5.86755e+06 -128798 -7.03651e+06 22354.5 -4.53636e+06 -1.55884e+06
229 3 O 2.53282 39.0415 1.4948 -1.2 -9.58861 -4.0552e+06 -850181 -2.05078e+06 1.72122e+06 -344580 -833297
230 3 O 5.44674 39.3094 0.196716 -1.2 -7.18587 -4.30679e+06 -1.05952e+07 -5.96774e+06 -157557 -5.78141e+06 1.88769e+06
231 1 Mg 7.04922 37.992 2.9896 1.2 -7.89126 4.51046e+06 -1.78679e+06 -485342 1.31725e+06 -1.49366e+06 1.85014e+06
232 3 O 5.42658 39.3094 2.79288 -1.2 -8.89078 -2.04904e+06 -3.65526e+06 -2.2302e+06 1.10641e+06 -305436 -1.14647e+06
233 1 Mg -0.333062 38.0333 4.4844 1.2 -8.66186 -1.06769e+06 2.41733e+06 3.31837e+06 -497636 -147252 -40005.4
234 2 Si -2.12255 40.7174 4.4844 2.4 -32.811 1.10296e+07 8.58081e+06 9.14213e+06 121335 -232951 35521.8
235 3 O -2.19212 39.1042 4.4844 -1.2 -9.5037 -3.8025e+06 -52638.9 -3.89689e+06 429195 -3995.58 -34745.4
236 3 O 1.50676 41.6915 4.4844 -1.2 -9.30673 -3.4535e+06 -2.55446e+06 -3.18386e+06 2.31188e+06 -213196 11773.1
237 3 O -1.3884 41.4236 3.18632 -1.2 -9.01143 -2.57696e+06 -3.4122e+06 -1.50846e+06 1.14599e+06 167808 -1.46935e+06
238 3 O -1.40713 41.4236 5.78248 -1.2 -8.96599 -2.63698e+06 -3.48038e+06 -1.97815e+06 1.16143e+06 202230 1.49498e+06
239 1 Mg 2.01892 40.3665 2.9896 1.2 -7.90977 4.52219e+06 -1.67678e+06 -595496 -1.11076e+06 -1.58664e+06 -1.55433e+06
240 1 Mg 4.83434 40.3252 4.4844 1.2 -8.63699 -838922 2.37646e+06 3.2304e+06 1.27088e+06 -35130.4 19360.4
241 2 Si 3.02698 42.39 4.4844 2.4 -32.7611 1.12176e+07 8.60293e+06 8.79902e+06 746805 -100426 6548.89
242 3 O 3.05433 44.0033 4.4844 -1.2 -9.50022 -3.93482e+06 -5195.42 -3.98265e+06 605812 -28467.8 28318.1
243 3 O -3.60077 41.416 4.4844 -1.2 -9.35338 -3.4787e+06 -2.41092e+06 -3.16342e+06 -1.32857e+06 -269116 -33778.2
244 3 O 3.71851 41.6839 3.18632 -1.2 -9.06151 -2.60528e+06 -3.55732e+06 -1.51619e+06 -843616 215266 1.22231e+06
245 1 Mg 2.04077 40.3665 0 1.2 -6.14096 2.06394e+06 1.95722e+06 -3.75079e+06 -1.84616e+06 412883 1.52192e+06
246 3 O 3.70011 41.6839 5.78248 -1.2 -9.05635 -2.70584e+06 -3.55038e+06 -1.88301e+06 -853055 -164338 -1.21182e+06
247 1 Mg -0.796865 40.4078 1.4948 1.2 -8.73893 -1.13009e+06 2.53254e+06 4.4266e+06 1.74382e+06 30255.3 18023.1
248 2 Si 1.01387 38.3429 1.4948 2.4 -33.5808 1.07311e+07 8.39526e+06 1.08436e+07 1.50942e+06 1.45444e+06 1.81152e+06
249 3 O 0.989947 36.7297 1.4948 -1.2 -8.09564 -6.48268e+06 -107334 -1.05439e+07 1.04162e+06 -6.64184e+06 2.08105e+06
250 3 O 7.63988 39.317 1.4948 -1.2 -9.63319 -4.16574e+06 -751585 -2.00363e+06 -934307 -261603 1.11966e+06
251 3 O 0.340253 39.0491 0.196716 -1.2 -7.19796 -4.41771e+06 -1.15123e+07 -5.8753e+06 395378 -5.85045e+06 -1.45755e+06
252 3 O 0.319795 39.0491 2.79288 -1.2 -8.93157 -2.06276e+06 -3.80529e+06 -2.21521e+06 -828889 -189004 962528
253 1 Mg 7.20667 42.741 0 1.2 -6.17267 1.65352e+06 1.95016e+06 -3.70993e+06 2.00035e+06 926847 -2.1575e+06
254 1 Mg 4.50613 47.4487 1.4948 1.2 -8.66192 -1.57159e+06 2.75277e+06 3.94087e+06 -847465 472350 -119957
255 2 Si 6.29731 44.7645 1.4948 2.4 -33.2153 1.11882e+07 7.54564e+06 1.06925e+07 -219166 969390 -1.56897e+06
256 3 O 6.36567 46.3778 1.4948 -1.2 -9.19976 -4.99554e+06 -138313 -5.0693e+06 172522 -2.74053e+06 -1.22273e+06
257 3 O 2.669 43.7905 1.4948 -1.2 -9.57538 -3.89533e+06 -1.02824e+06 -2.32325e+06 1.72711e+06 -199019 -858157
258 3 O 5.58048 44.0584 0.196716 -1.2 -7.95003 -4.16988e+06 -8.01592e+06 -3.49506e+06 321167 -3.73584e+06 2.45376e+06
259 1 Mg 7.1879 42.741 2.9896 1.2 -7.87154 4.43118e+06 -1.76954e+06 -441577 1.29483e+06 -1.56609e+06 1.90885e+06
260 3 O 5.56564 44.0584 2.79288 -1.2 -8.93489 -2.14794e+06 -3.58135e+06 -2.15842e+06 1.12046e+06 -328202 -1.14918e+06
261 1 Mg -0.19105 42.7823 4.4844 1.2 -8.6832 -1.08249e+06 2.39066e+06 3.3936e+06 -424286 -142090 18952.8
262 2 Si -1.97909 45.4664 4.4844 2.4 -32.8633 1.08945e+07 8.64126e+06 9.30487e+06 104812 -209922 15984.9
263 3 O -2.04947 43.8532 4.4844 -1.2 -9.47289 -3.74782e+06 -97013.2 -3.94915e+06 439246 18955.1 -8348.68
264 3 O 1.65063 46.4405 4.4844 -1.2 -9.32868 -3.48897e+06 -2.48641e+06 -3.17822e+06 2.35222e+06 -105080 168413
265 3 O -1.24745 46.1726 3.18632 -1.2 -9.01569 -2.43476e+06 -3.43166e+06 -1.72733e+06 1.15296e+06 155743 -1.35597e+06
266 3 O -1.26044 46.1726 5.78248 -1.2 -8.88629 -2.60498e+06 -3.49515e+06 -2.07908e+06 1.25571e+06 253613 1.37915e+06
267 1 Mg 2.15896 45.1155 2.9896 1.2 -7.88822 4.48879e+06 -1.70937e+06 -548202 -1.08531e+06 -1.70654e+06 -1.61528e+06
268 1 Mg 4.97763 45.0742 4.4844 1.2 -8.64103 -761200 2.29346e+06 3.24186e+06 1.29201e+06 17223 -23294.1
269 2 Si 3.1711 47.139 4.4844 2.4 -32.6641 1.12145e+07 8.5015e+06 8.75018e+06 765571 -72750.2 -457886