ITEM: TIMESTEP
47500
ITEM: NUMBER OF ATOMS
10500
ITEM: BOX BOUNDS xy xz yz pp pp pp
0.0000000000000000e+00 1.5297749999999999e+01 5.0992499999999996e+00
0.0000000000000000e+00 1.1872499999999999e+02 0.0000000000000000e+00
0.0000000000000000e+00 8.9688000000000002e+01 0.0000000000000000e+00
ITEM: ATOMS id type element xu yu zu q c_pe c_s[1] c_s[2] c_s[3] c_s[4] c_s[5] c_s[6]
1 1 Mg 6.2404 -6.37941e-06 0 1.2 -4.60109 8.12e+06 -2.01034e+06 -5.99964e+06 -5805.75 2.61216e+06 93839.4
2 1 Mg 3.46349 4.70768 1.4948 1.2 -8.6882 18801.4 2.58047e+06 4.41687e+06 -949757 -660872 408735
3 2 Si 5.2885 2.02354 1.4948 2.4 -35.6179 1.06152e+07 1.07356e+07 1.15079e+07 8.84651e+06 691702 -2.4129e+06
4 3 O 5.33628 3.63678 1.4948 -1.2 -4.52694 -1.15229e+06 -1.32222e+06 -3.37707e+07 -312747 3.82036e+06 -4.20745e+06
5 3 O 1.67294 1.04952 1.4948 -1.2 -0.876031 -2.06309e+07 -7.92788e+07 -2.18101e+06 -2.41211e+07 -91318.9 -407728
6 3 O 4.59532 1.31737 0.196716 -1.2 -2.86231 -2.22757e+06 -6.53066e+06 -3.06344e+07 -6.02541e+06 6.28782e+06 -2.96517e+06
7 1 Mg 6.18956 -6.37941e-06 2.9896 1.2 -5.12318 1.87258e+06 -2.82758e+07 -2.92386e+06 -8.81955e+06 2.51259e+06 4.34329e+06
8 3 O 4.55118 1.31737 2.79288 -1.2 -7.31754 -224571 -4.62991e+06 -3.1612e+06 -2.96017e+06 -3.41593e+06 -1.45682e+06
9 1 Mg -1.20682 0.0413099 4.4844 1.2 8.68486 -3.054e+07 -9.33667e+07 -109109 -2.85387e+07 -1.20173e+06 521662
10 2 Si -3.0337 2.72544 4.4844 2.4 -33.639 1.51117e+07 6.66633e+06 8.49364e+06 1.56673e+06 412753 122187
11 3 O -3.08099 1.11221 4.4844 -1.2 -9.38518 -6.47817e+06 99852 -2.27423e+06 -1.23831e+06 -357954 -121935
12 3 O 0.582463 3.69946 4.4844 -1.2 -8.68423 -3.58794e+06 -5.3236e+06 -3.13159e+06 -680415 -66686.4 -507802
13 3 O -2.29524 3.43162 3.18632 -1.2 -8.82341 -4.55692e+06 -2.36184e+06 -777894 1.09101e+06 -896388 -1.26123e+06
14 3 O -2.34216 3.43162 5.78248 -1.2 -8.49008 -4.32207e+06 -2.91833e+06 -2.06626e+06 817106 352100 953451
15 1 Mg 1.12778 2.37449 2.9896 1.2 -7.81482 5.49285e+06 -1.728e+06 -563534 -3.2634e+06 -4.26445e+06 -1.86962e+06
16 1 Mg 3.92855 2.33318 4.4844 1.2 -8.6617 -3.68488e+06 4.85283e+06 4.73667e+06 1.34826e+06 304725 942143
17 2 Si 2.09341 4.39804 4.4844 2.4 -32.9616 1.2778e+07 6.43855e+06 9.52163e+06 290369 -444324 1.41902e+06
18 3 O 2.09991 6.01128 4.4844 -1.2 -9.15676 -4.32556e+06 141613 -4.30217e+06 502450 -110560 -366957
19 3 O -4.52137 3.42402 4.4844 -1.2 -8.93543 -3.42204e+06 -2.68076e+06 -3.67227e+06 -2.33879e+06 -956705 -318952
20 3 O 2.80834 3.69187 3.18632 -1.2 -9.10292 -2.50441e+06 -2.6898e+06 -541051 464622 -424157 -892572
21 1 Mg 1.17857 2.37449 0 1.2 -5.29473 -309198 -1.4988e+07 -6.30219e+06 6.52222e+06 1.21628e+06 4.87067e+06
22 3 O 2.76143 3.69187 5.78248 -1.2 -9.06324 -3.28506e+06 -2.2475e+06 -1.37436e+06 591018 147142 -739858
23 1 Mg -1.67381 2.41581 1.4948 1.2 -7.77485 1.83008e+06 -354081 4.24732e+06 1.36278e+06 -550671 1.33707e+06
24 2 Si 0.16286 0.350945 1.4948 2.4 -24.9105 -7.6682e+06 1.22166e+07 1.16607e+07 1.56912e+06 2.83624e+06 1.80841e+06
25 3 O 0.15972 -1.26229 1.4948 -1.2 -4.58786 -1.09414e+07 -7.88335e+06 -2.91091e+07 -5.58699e+06 -8.53973e+06 -2.93009e+06
26 3 O 6.77654 1.32496 1.4948 -1.2 -10.1712 -6.01089e+06 1.89474e+06 -1.53128e+06 -645621 -678649 750407
27 3 O -0.508028 1.05712 0.196716 -1.2 -9.36052 -154075 -4.51929e+06 -860650 -551096 152930 -4.83316e+06
28 3 O -0.552171 1.05712 2.79288 -1.2 -6.59536 -5.58098e+06 -4.52434e+06 -2.48077e+07 1.4283e+06 -6.77579e+06 -5.86318e+06
29 1 Mg 6.31713 4.74899 0 1.2 -5.1281 667534 -1.3022e+07 -5.98173e+06 -7.32174e+06 1.42203e+06 -3.27815e+06
30 1 Mg 3.54847 9.45668 1.4948 1.2 -8.54961 610144 1.75592e+06 4.40664e+06 -955377 -960296 -129396
31 2 Si 5.36879 6.77254 1.4948 2.4 -34.7322 8.07328e+06 1.19209e+07 1.16011e+07 1.63242e+06 98885 -1.40484e+06
32 3 O 5.41937 8.38578 1.4948 -1.2 -4.54342 -717054 -932355 -3.51744e+07 769752 1.13512e+06 -4.46182e+06
33 3 O 1.75158 5.79852 1.4948 -1.2 -9.27705 -4.32325e+06 -2.26772e+06 -1.55814e+06 1.95834e+06 -1.57939e+06 -1.64838e+06
34 3 O 4.67421 6.06637 0.196716 -1.2 -3.57626 -184345 -1.00369e+07 -3.15286e+07 -1.99071e+06 1.32101e+06 -4.75033e+06
35 1 Mg 6.26654 4.74899 2.9896 1.2 -8.26228 4.56007e+06 -1.82476e+06 72512.1 1.76295e+06 -813212 2.20852e+06
36 3 O 4.63043 6.06637 2.79288 -1.2 -8.60754 -2.05445e+06 -3.85074e+06 -2.26285e+06 970647 -50349.1 -1.72814e+06
37 1 Mg -1.12976 4.79031 4.4844 1.2 -9.09856 -189054 2.56664e+06 3.06839e+06 -628562 -355788 64831.8
38 2 Si -2.9517 7.47444 4.4844 2.4 -33.3582 1.24857e+07 8.82247e+06 8.28858e+06 19866 22772.4 84378.5
39 3 O -3.00198 5.86121 4.4844 -1.2 -9.16811 -4.55375e+06 16190.2 -3.79515e+06 105135 -288004 -53745.3
40 3 O 0.666315 8.44846 4.4844 -1.2 -8.93201 -3.72772e+06 -2.69239e+06 -3.34971e+06 2.14412e+06 -616851 -56363.5
41 3 O -2.21213 8.18062 3.18632 -1.2 -8.84365 -3.42148e+06 -3.38409e+06 -569643 1.10347e+06 -359512 -1.60268e+06
42 3 O -2.25864 8.18062 5.78248 -1.2 -8.75784 -3.61074e+06 -3.76685e+06 -1.23721e+06 1.00837e+06 -148273 1.31663e+06
43 1 Mg 1.20893 7.12349 2.9896 1.2 -8.27217 4.45876e+06 -1.66791e+06 12093.8 -1.26504e+06 -1.30563e+06 -1.46301e+06
44 1 Mg 4.00982 7.08218 4.4844 1.2 -8.97308 -349618 2.42142e+06 3.22331e+06 985186 -456778 276069
45 2 Si 2.17861 9.14704 4.4844 2.4 -33.5218 1.1821e+07 9.10652e+06 8.90667e+06 565379 -132007 184965
46 3 O 2.18828 10.7603 4.4844 -1.2 -9.13934 -4.26177e+06 -342883 -3.88826e+06 437219 -150213 -41688.5
47 3 O -4.43805 8.17302 4.4844 -1.2 -9.04679 -3.9619e+06 -2.59076e+06 -2.99978e+06 -1.51788e+06 -388609 -151598
48 3 O 2.89193 8.44087 3.18632 -1.2 -8.82809 -3.15154e+06 -3.5666e+06 -833527 -926360 -161500 1.11295e+06
49 1 Mg 1.25915 7.12349 0 1.2 -5.5093 1.26868e+06 -7.63845e+06 -6.24964e+06 5.90123e+06 1.37655e+06 2.8976e+06
50 3 O 2.84547 8.44087 5.78248 -1.2 -8.54886 -3.18301e+06 -3.91135e+06 -2.12601e+06 -906482 14433.2 -1.14749e+06
51 1 Mg -1.59284 7.16481 1.4948 1.2 -8.47049 1.18361e+06 1.31308e+06 4.34826e+06 1.46682e+06 -877619 579116
52 2 Si 0.240329 5.09994 1.4948 2.4 -34.5001 8.93467e+06 1.07047e+07 1.15847e+07 -1.91196e+06 -1.03307e+06 2.55111e+06
53 3 O 0.234538 3.48671 1.4948 -1.2 -5.02103 -2.07716e+06 534589 -3.3947e+07 379699 5.18096e+06 3.63495e+06
54 3 O 6.85564 6.07396 1.4948 -1.2 -9.36518 -4.7895e+06 -1.72567e+06 -1.45448e+06 -1.3338e+06 -1.84573e+06 891967
55 3 O -0.429565 5.80612 0.196716 -1.2 -3.8253 -975406 -8.67574e+06 -3.16562e+07 1.83183e+06 1.17156e+06 4.25142e+06
56 3 O -0.473377 5.80612 2.79288 -1.2 -8.68317 -2.51423e+06 -3.44259e+06 -2.19002e+06 -819189 257949 1.07345e+06
57 1 Mg 6.40169 9.49799 0 1.2 -5.45514 1.8749e+06 -6.41806e+06 -6.65201e+06 -5.48391e+06 986294 -2.2218e+06
58 1 Mg 3.64209 14.2057 1.4948 1.2 -8.58281 481323 1.92757e+06 4.37607e+06 -1.01936e+06 -979248 -232253
59 2 Si 5.45748 11.5215 1.4948 2.4 -34.6643 8.28397e+06 1.184e+07 1.13384e+07 912034 296494 -1.90338e+06
60 3 O 5.51101 13.1348 1.4948 -1.2 -4.60671 -848147 -975917 -3.47177e+07 459609 -2.52098e+06 -4.42212e+06
61 3 O 1.83851 10.5475 1.4948 -1.2 -9.3584 -4.52211e+06 -1.92512e+06 -1.29981e+06 1.54073e+06 -1.58125e+06 -1.22958e+06
62 3 O 4.7611 10.8154 0.196716 -1.2 -3.44874 262701 -1.15185e+07 -3.19213e+07 -2.47269e+06 -1.74464e+06 -4.46264e+06
63 1 Mg 6.35203 9.49799 2.9896 1.2 -8.20724 4.58825e+06 -1.588e+06 -282861 1.31967e+06 -1.2064e+06 2.15646e+06
64 3 O 4.71833 10.8154 2.79288 -1.2 -8.64031 -2.24557e+06 -3.83648e+06 -2.0438e+06 1.03008e+06 86725.1 -1.42807e+06
65 1 Mg -1.0438 9.53931 4.4844 1.2 -8.96493 -353382 2.56905e+06 2.97931e+06 -607578 -146620 92482.2
66 2 Si -2.8604 12.2234 4.4844 2.4 -33.3587 1.23728e+07 9.0568e+06 8.17721e+06 -66591.6 -34720.7 144231
67 3 O -2.91391 10.6102 4.4844 -1.2 -9.218 -4.49175e+06 -208869 -3.55869e+06 234894 -204534 -163956
68 3 O 0.7596 13.1975 4.4844 -1.2 -8.96411 -3.73864e+06 -2.90603e+06 -3.06508e+06 2.18703e+06 -526983 64414.8
69 3 O -2.12001 12.9296 3.18632 -1.2 -8.84391 -3.29795e+06 -3.58324e+06 -492221 1.17447e+06 -257024 -1.58196e+06
70 3 O -2.16532 12.9296 5.78248 -1.2 -8.68921 -3.52778e+06 -3.85661e+06 -1.4393e+06 1.0903e+06 -141183 1.38689e+06
71 1 Mg 1.29891 11.8725 2.9896 1.2 -8.24927 4.50016e+06 -1.43726e+06 -299790 -1.18715e+06 -1.20596e+06 -1.63205e+06
72 1 Mg 4.10033 11.8312 4.4844 1.2 -8.94816 -278333 2.63225e+06 2.90319e+06 1.17561e+06 -390361 137545
73 2 Si 2.27333 13.896 4.4844 2.4 -33.4013 1.20268e+07 9.47066e+06 8.14232e+06 727158 -63307.1 -16764.9
74 3 O 2.28634 15.5093 4.4844 -1.2 -9.20772 -4.343e+06 -514976 -3.51914e+06 431379 -204767 -65859.1
75 3 O -4.34533 12.922 4.4844 -1.2 -9.0561 -3.92987e+06 -2.70978e+06 -2.88753e+06 -1.48399e+06 -419816 -97827.2
76 3 O 2.98455 13.1899 3.18632 -1.2 -8.8598 -3.20725e+06 -3.7234e+06 -591619 -980658 -127808 1.26352e+06
77 1 Mg 1.34779 11.8725 0 1.2 -5.69123 3.05581e+06 -2.75827e+06 -6.72708e+06 3.5609e+06 823057 1.70875e+06
78 3 O 2.93934 13.1899 5.78248 -1.2 -8.64475 -3.3066e+06 -4.04024e+06 -1.70063e+06 -1.02978e+06 -141211 -1.11879e+06
79 1 Mg -1.50344 11.9138 1.4948 1.2 -8.54137 837094 1.79573e+06 4.30948e+06 1.55292e+06 -922863 518120
80 2 Si 0.326006 9.84894 1.4948 2.4 -34.6724 8.24709e+06 1.18023e+07 1.13986e+07 -616864 175803 2.6104e+06
81 3 O 0.317364 8.23571 1.4948 -1.2 -4.53542 -785439 -802225 -3.53781e+07 -128190 1.14431e+06 3.96568e+06
82 3 O 6.94307 10.823 1.4948 -1.2 -9.41006 -4.73055e+06 -1.74409e+06 -1.14889e+06 -986018 -1.52865e+06 902788
83 3 O -0.343122 10.5551 0.196716 -1.2 -3.53778 6405.68 -1.09768e+07 -3.20287e+07 2.46586e+06 -2.06791e+06 4.33683e+06
84 3 O -0.385966 10.5551 2.79288 -1.2 -8.66021 -2.25015e+06 -3.88961e+06 -2.09743e+06 -839372 26293.4 1.00254e+06
85 1 Mg 6.49448 14.247 0 1.2 -5.64271 3.54443e+06 -1.92551e+06 -6.9413e+06 -2.97197e+06 236425 -1.45185e+06
86 1 Mg 3.74457 18.9547 1.4948 1.2 -8.62811 220644 2.08826e+06 4.47151e+06 -1.10672e+06 -962030 -220937
87 2 Si 5.55495 16.2705 1.4948 2.4 -34.5982 8.41572e+06 1.17072e+07 1.12524e+07 535612 781141 -2.13053e+06
88 3 O 5.6115 17.8838 1.4948 -1.2 -4.94796 -1.79154e+06 -931765 -3.20401e+07 74472.6 -6.05175e+06 -4.20467e+06
89 3 O 1.93416 15.2965 1.4948 -1.2 -9.42431 -4.58318e+06 -1.70209e+06 -1.10583e+06 1.52726e+06 -1.3795e+06 -1.09689e+06
90 3 O 4.85636 15.5644 0.196716 -1.2 -3.48829 314902 -1.32868e+07 -3.03085e+07 -3.04029e+06 -5.12061e+06 -3.79038e+06
91 1 Mg 6.44662 14.247 2.9896 1.2 -8.18089 4.59667e+06 -1.45531e+06 -467062 1.29287e+06 -1.19791e+06 2.08816e+06
92 3 O 4.81537 15.5644 2.79288 -1.2 -8.65071 -2.18019e+06 -3.98083e+06 -1.97608e+06 1.04962e+06 -7672.25 -1.37511e+06
93 1 Mg -0.948271 14.2883 4.4844 1.2 -8.96217 -511146 2.7878e+06 2.90878e+06 -614169 -250849 22659
94 2 Si -2.75928 16.9724 4.4844 2.4 -33.3714 1.21461e+07 9.33362e+06 8.1548e+06 -119750 -107823 326400
95 3 O -2.81617 15.3592 4.4844 -1.2 -9.22206 -4.36947e+06 -441470 -3.41858e+06 309828 -182827 -156932
96 3 O 0.862762 17.9465 4.4844 -1.2 -9.01049 -3.82064e+06 -2.8915e+06 -2.92202e+06 2.16718e+06 -509114 -42635.6
97 3 O -2.0185 17.6786 3.18632 -1.2 -8.85172 -3.21241e+06 -3.65364e+06 -512686 1.1892e+06 -125612 -1.59881e+06
98 3 O -2.06164 17.6786 5.78248 -1.2 -8.63077 -3.36602e+06 -3.89366e+06 -1.74225e+06 1.22636e+06 5300.16 1.24867e+06
99 1 Mg 1.39817 16.6215 2.9896 1.2 -8.2008 4.60933e+06 -1.36407e+06 -561929 -1.15737e+06 -1.21628e+06 -1.58728e+06
100 1 Mg 4.20062 16.5802 4.4844 1.2 -8.92865 -347930 2.7735e+06 2.80386e+06 1.18497e+06 -286385 220847
101 2 Si 2.37796 18.645 4.4844 2.4 -33.347 1.21203e+07 9.32203e+06 8.11554e+06 754548 52466.4 157255
102 3 O 2.39434 20.2583 4.4844 -1.2 -9.2454 -4.37115e+06 -419436 -3.53089e+06 502031 -220268 -21117.2
103 3 O -4.24274 17.671 4.4844 -1.2 -9.04655 -3.85633e+06 -2.78813e+06 -2.88653e+06 -1.42601e+06 -455144 -204178
104 3 O 3.08659 17.9389 3.18632 -1.2 -8.88214 -3.19012e+06 -3.75601e+06 -574850 -964660 -93049.8 1.21736e+06
105 1 Mg 1.44478 16.6215 0 1.2 -5.77509 4.69766e+06 270970 -6.82116e+06 1.40509e+06 -48794.1 939256
106 3 O 3.0436 17.9389 5.78248 -1.2 -8.64199 -3.31826e+06 -3.98609e+06 -1.89543e+06 -969896 -210116 -1.34417e+06
107 1 Mg -1.40524 16.6628 1.4948 1.2 -8.59084 606535 2.01119e+06 4.35621e+06 1.67505e+06 -969978 431702
108 2 Si 0.420358 14.5979 1.4948 2.4 -34.6272 8.29675e+06 1.18763e+07 1.11868e+07 -148019 584032 2.61288e+06
109 3 O 0.408732 12.9847 1.4948 -1.2 -4.58572 -834769 -965158 -3.49092e+07 234168 -2.57958e+06 4.17849e+06
110 3 O 7.03923 15.572 1.4948 -1.2 -9.46697 -4.72052e+06 -1.54627e+06 -1.0234e+06 -937317 -1.30339e+06 940574
111 3 O -0.248332 15.3041 0.196716 -1.2 -3.58529 5624.78 -1.28155e+07 -3.03682e+07 3.26157e+06 -5.42138e+06 3.93277e+06
112 3 O -0.289436 15.3041 2.79288 -1.2 -8.67494 -2.17452e+06 -4.08212e+06 -1.99611e+06 -833617 33517.2 1.01379e+06
113 1 Mg 6.59566 18.996 0 1.2 -5.73743 4.8578e+06 719826 -6.70506e+06 -917998 -673995 -891159
114 1 Mg 3.85574 23.7037 1.4948 1.2 -8.64552 -148333 2.23095e+06 4.58585e+06 -1.18772e+06 -882772 -266655
115 2 Si 5.66125 21.0195 1.4948 2.4 -34.438 8.67374e+06 1.13131e+07 1.11938e+07 197612 1.24258e+06 -2.2916e+06
116 3 O 5.72074 22.6328 1.4948 -1.2 -5.60386 -3.36495e+06 -808496 -2.71986e+07 -222131 -8.53134e+06 -3.67196e+06
117 3 O 2.03867 20.0455 1.4948 -1.2 -9.494 -4.5589e+06 -1.44876e+06 -1.06945e+06 1.57028e+06 -1.15802e+06 -998603
118 3 O 4.96004 20.3134 0.196716 -1.2 -3.85101 -322938 -1.47302e+07 -2.64599e+07 -3.18445e+06 -7.94551e+06 -2.74304e+06
119 1 Mg 6.55057 18.996 2.9896 1.2 -8.15241 4.58666e+06 -1.44815e+06 -509277 1.29957e+06 -1.21892e+06 2.06958e+06
120 3 O 4.92172 20.3134 2.79288 -1.2 -8.67021 -2.09101e+06 -4.00905e+06 -2.04111e+06 1.05986e+06 -105253 -1.3126e+06
121 1 Mg -0.84282 19.0373 4.4844 1.2 -8.93008 -516683 2.78079e+06 2.85913e+06 -555628 -326153 35464.8
122 2 Si -2.64823 21.7214 4.4844 2.4 -33.3046 1.18691e+07 9.52772e+06 8.12868e+06 17733.9 -233327 393211
123 3 O -2.70847 20.1082 4.4844 -1.2 -9.22761 -4.25846e+06 -480500 -3.47581e+06 324512 -78265.1 -114538
124 3 O 0.97581 22.6955 4.4844 -1.2 -9.0874 -3.77384e+06 -2.915e+06 -2.84282e+06 2.2564e+06 -385643 -114665
125 3 O -1.9076 22.4276 3.18632 -1.2 -8.88618 -3.0771e+06 -3.65547e+06 -631601 1.17181e+06 -9438.46 -1.61277e+06
126 3 O -1.9475 22.4276 5.78248 -1.2 -8.70042 -3.20844e+06 -4.10969e+06 -1.411e+06 1.19786e+06 56466.4 1.0234e+06
127 1 Mg 1.50678 21.3705 2.9896 1.2 -8.13289 4.66557e+06 -1.38465e+06 -706462 -1.17801e+06 -1.25405e+06 -1.59289e+06
128 1 Mg 4.31086 21.3292 4.4844 1.2 -8.89458 -425185 2.79478e+06 2.80761e+06 1.23774e+06 -172969 114450
129 2 Si 2.49243 23.394 4.4844 2.4 -33.1497 1.21655e+07 9.28843e+06 7.77437e+06 711146 -50447 363333
130 3 O 2.51204 25.0073 4.4844 -1.2 -9.31948 -4.38258e+06 -142819 -3.6883e+06 525958 -160489 -147458
131 3 O -4.13026 22.42 4.4844 -1.2 -9.0827 -3.69864e+06 -2.87303e+06 -2.91298e+06 -1.44552e+06 -491488 -263302
132 3 O 3.19799 22.6879 3.18632 -1.2 -8.93862 -3.12682e+06 -3.76252e+06 -604558 -928291 -36801.8 1.23944e+06
133 1 Mg 1.5501 21.3705 0 1.2 -5.78919 5.51299e+06 1.83152e+06 -6.39643e+06 -67180.4 -979041 396570
134 3 O 3.1583 22.6879 5.78248 -1.2 -8.84743 -3.3748e+06 -4.18773e+06 -1.00337e+06 -923573 -305111 -1.33882e+06
135 1 Mg -1.29822 21.4118 1.4948 1.2 -8.6246 290860 2.18341e+06 4.44935e+06 1.80054e+06 -967139 306010
136 2 Si 0.523568 19.3469 1.4948 2.4 -34.4997 8.57471e+06 1.15747e+07 1.10341e+07 296869 988052 2.64682e+06
137 3 O 0.508934 17.7337 1.4948 -1.2 -4.93803 -1.8409e+06 -928408 -3.21447e+07 671601 -6.08425e+06 4.02133e+06
138 3 O 7.14425 20.321 1.4948 -1.2 -9.53282 -4.64955e+06 -1.31192e+06 -1.03253e+06 -936852 -1.06311e+06 974551
139 3 O -0.145107 20.0531 0.196716 -1.2 -3.95421 -715873 -1.44021e+07 -2.64338e+07 3.68111e+06 -8.19536e+06 3.07555e+06
140 3 O -0.183601 20.0531 2.79288 -1.2 -8.7108 -2.13817e+06 -4.12659e+06 -1.98203e+06 -824379 9249.57 994998
141 1 Mg 6.70502 23.745 0 1.2 -5.77023 5.27168e+06 2.00945e+06 -5.97219e+06 410006 -1.48585e+06 -700370
142 1 Mg 3.97493 28.4527 1.4948 1.2 -8.60578 -686129 2.43918e+06 4.6191e+06 -1.23106e+06 -756082 -530994
143 2 Si 5.77602 25.7685 1.4948 2.4 -34.1397 9.03898e+06 1.05774e+07 1.11738e+07 -128414 1.59156e+06 -2.69255e+06
144 3 O 5.83821 27.3818 1.4948 -1.2 -6.50907 -4.93759e+06 -628919 -2.11198e+07 -332929 -9.30801e+06 -2.73292e+06
145 3 O 2.15175 24.7945 1.4948 -1.2 -9.58392 -4.42315e+06 -1.17824e+06 -1.19794e+06 1.61435e+06 -925638 -810827
146 3 O 5.07184 25.0624 0.196716 -1.2 -4.55262 -1.47205e+06 -1.53789e+07 -2.09172e+07 -2.78044e+06 -9.45519e+06 -1.26115e+06
147 1 Mg 6.66374 23.745 2.9896 1.2 -8.08587 4.5331e+06 -1.54741e+06 -460147 1.31647e+06 -1.22802e+06 2.02376e+06
148 3 O 5.03707 25.0624 2.79288 -1.2 -8.7369 -1.9938e+06 -3.87223e+06 -2.2098e+06 1.10286e+06 -216878 -1.1765e+06
149 1 Mg -0.727559 23.7863 4.4844 1.2 -8.89448 -671461 2.64747e+06 3.08305e+06 -510059 -376895 204909
150 2 Si -2.5277 26.4704 4.4844 2.4 -33.1863 1.16775e+07 8.66915e+06 8.99536e+06 67250.8 -237140 -279805
151 3 O -2.59107 24.8572 4.4844 -1.2 -9.2468 -4.13744e+06 -159919 -3.87893e+06 346646 -43175 -131555
152 3 O 1.09817 27.4445 4.4844 -1.2 -9.18816 -3.63131e+06 -2.54633e+06 -3.18693e+06 2.19201e+06 -372931 274349
153 3 O -1.78784 27.1766 3.18632 -1.2 -8.98099 -2.87861e+06 -3.47291e+06 -916733 1.15294e+06 61681.6 -1.21481e+06
154 3 O -1.82343 27.1766 5.78248 -1.2 -8.74989 -3.14022e+06 -3.49109e+06 -1.96977e+06 1.08521e+06 -48109 1.5556e+06
155 1 Mg 1.62435 26.1195 2.9896 1.2 -8.03497 4.62421e+06 -1.60389e+06 -599610 -1.14116e+06 -1.32435e+06 -1.7407e+06
156 1 Mg 4.43064 26.0782 4.4844 1.2 -8.83648 -513160 2.3929e+06 3.20523e+06 1.14857e+06 -92212.3 40086.1
157 2 Si 2.61607 28.143 4.4844 2.4 -32.9039 1.15896e+07 8.77366e+06 8.47779e+06 788716 3539.6 -578329
158 3 O 2.63853 29.7563 4.4844 -1.2 -9.5401 -3.86468e+06 -277138 -3.72234e+06 551261 -195776 413342
159 3 O -4.00841 27.169 4.4844 -1.2 -9.18453 -3.60088e+06 -2.50268e+06 -3.21388e+06 -1.32087e+06 -422152 196119
160 3 O 3.3182 27.4369 3.18632 -1.2 -9.03752 -2.89223e+06 -3.60274e+06 -913919 -892274 51487.2 1.55157e+06
161 1 Mg 1.66335 26.1195 0 1.2 -5.79046 5.22219e+06 2.44032e+06 -5.49312e+06 -894582 -1.59168e+06 -25711.6
162 3 O 3.28288 27.4369 5.78248 -1.2 -8.8558 -3.16266e+06 -3.56855e+06 -1.8809e+06 -866602 -317814 -1.03718e+06
163 1 Mg -1.18278 26.1608 1.4948 1.2 -8.62285 -157254 2.28174e+06 4.60414e+06 1.89151e+06 -869798 -39911.1
164 2 Si 0.635424 24.0959 1.4948 2.4 -34.2597 8.90596e+06 1.0959e+07 1.10014e+07 748040 1.30483e+06 2.41604e+06
165 3 O 0.617906 22.4827 1.4948 -1.2 -5.59955 -3.45558e+06 -796442 -2.72618e+07 1.01747e+06 -8.51553e+06 3.65479e+06
166 3 O 7.25781 25.07 1.4948 -1.2 -9.62284 -4.49419e+06 -1.04112e+06 -1.19464e+06 -933760 -832993 1.16162e+06
167 3 O -0.0337363 24.8021 0.196716 -1.2 -4.64013 -1.84156e+06 -1.53336e+07 -2.08646e+07 3.49841e+06 -9.61068e+06 2.01216e+06
168 3 O -0.0687235 24.8021 2.79288 -1.2 -8.77585 -2.04144e+06 -3.99554e+06 -2.15729e+06 -840279 -7572.23 1.04853e+06
169 1 Mg 6.82195 28.494 0 1.2 -5.79226 4.65741e+06 2.53814e+06 -4.97184e+06 1.16298e+06 -1.83085e+06 -938822
170 1 Mg 4.10106 33.2017 1.4948 1.2 -8.51013 -1.29736e+06 2.87883e+06 4.29695e+06 -1.21048e+06 -538100 -468438
171 2 Si 5.89839 30.5175 1.4948 2.4 -33.6419 9.29873e+06 1.02284e+07 1.05483e+07 -327050 1.66488e+06 -3.09223e+06
172 3 O 5.96289 32.1308 1.4948 -1.2 -7.53355 -5.82988e+06 -740757 -1.48197e+07 -292967 -8.44245e+06 -2.00047e+06
173 3 O 2.27266 29.5435 1.4948 -1.2 -9.72465 -4.11662e+06 -1.15535e+06 -1.25395e+06 1.6622e+06 -727758 -454677
174 3 O 5.19102 29.8114 0.196716 -1.2 -5.50944 -2.66192e+06 -1.50208e+07 -1.47502e+07 -1.94047e+06 -9.28434e+06 332682
175 1 Mg 6.78546 28.494 2.9896 1.2 -7.91395 4.39158e+06 -1.58838e+06 -547698 1.30304e+06 -1.31525e+06 1.54258e+06
176 3 O 5.16061 29.8114 2.79288 -1.2 -8.92696 -1.74172e+06 -3.99946e+06 -2.07027e+06 1.12244e+06 -224418 -755260
177 1 Mg -0.603205 28.5353 4.4844 1.2 -8.71318 -965407 2.49718e+06 3.23001e+06 -444608 -279332 -433883
178 2 Si -2.39877 31.2194 4.4844 2.4 -32.4809 1.06972e+07 9.40801e+06 8.10264e+06 151237 -299521 -869135
179 3 O -2.46483 29.6062 4.4844 -1.2 -9.5242 -3.79551e+06 -295588 -3.64567e+06 397054 -22132.1 444196
180 3 O 1.22864 32.1935 4.4844 -1.2 -9.51363 -3.0609e+06 -3.01383e+06 -2.78931e+06 2.30916e+06 -403401 376680
181 3 O -1.66032 31.9256 3.18632 -1.2 -9.22097 -2.45407e+06 -3.82639e+06 -687409 1.13225e+06 112391 -1.06615e+06
182 3 O -1.69072 31.9256 5.78248 -1.2 -9.27631 -2.33825e+06 -3.97451e+06 -1.29347e+06 1.00993e+06 109434 1.66526e+06
183 1 Mg 1.7499 30.8685 2.9896 1.2 -7.80737 4.29295e+06 -1.33878e+06 -891569 -1.1439e+06 -1.3533e+06 -2.02868e+06
184 1 Mg 4.55894 30.8272 4.4844 1.2 -8.54636 -1.05189e+06 2.69113e+06 2.98211e+06 1.19114e+06 -175415 -429878
185 2 Si 2.7476 32.892 4.4844 2.4 -32.2726 1.0362e+07 9.65722e+06 7.80927e+06 626466 -127946 -756818
186 3 O 2.77235 34.5053 4.4844 -1.2 -9.81922 -3.37392e+06 -620540 -3.42932e+06 596750 -31059.7 253809
187 3 O -3.87837 31.918 4.4844 -1.2 -9.54181 -3.14966e+06 -2.86459e+06 -2.7488e+06 -1.37425e+06 -342033 407770
188 3 O 3.44611 32.1859 3.18632 -1.2 -9.26501 -2.41733e+06 -3.97364e+06 -749541 -852560 157546 1.70949e+06
189 1 Mg 1.7837 30.8685 0 1.2 -5.79659 4.07545e+06 2.69385e+06 -4.65079e+06 -1.36283e+06 -1.513e+06 -128474
190 3 O 3.41602 32.1859 5.78248 -1.2 -9.26806 -2.27976e+06 -4.08927e+06 -1.53674e+06 -754324 -142939 -741585
191 1 Mg -1.05984 30.9098 1.4948 1.2 -8.53744 -765367 2.65825e+06 4.39708e+06 1.915e+06 -643042 -355102
192 2 Si 0.755243 28.8449 1.4948 2.4 -33.843 9.15824e+06 1.04273e+07 1.06983e+07 1.14268e+06 1.58384e+06 1.59629e+06
193 3 O 0.735127 27.2317 1.4948 -1.2 -6.50295 -5.03435e+06 -607785 -2.1191e+07 1.16912e+06 -9.29897e+06 3.36676e+06
194 3 O 7.37914 29.819 1.4948 -1.2 -9.77421 -4.20799e+06 -1.0515e+06 -1.19563e+06 -938326 -600914 1.50121e+06
195 3 O 0.0850649 29.5511 0.196716 -1.2 -5.56741 -2.92366e+06 -1.53669e+07 -1.46957e+07 2.70619e+06 -9.43284e+06 975167
196 3 O 0.0543974 29.5511 2.79288 -1.2 -8.96389 -1.80072e+06 -4.11935e+06 -2.02598e+06 -850493 -110984 1.43742e+06
197 1 Mg 6.94543 33.243 0 1.2 -5.81913 3.39479e+06 2.76403e+06 -4.21852e+06 1.58135e+06 -1.46604e+06 -1.10945e+06
198 1 Mg 4.23267 37.9507 1.4948 1.2 -8.50364 -1.69773e+06 3.01271e+06 4.13856e+06 -1.12298e+06 -222727 -227708
199 2 Si 6.02709 35.2665 1.4948 2.4 -33.1643 9.61814e+06 9.90193e+06 9.84014e+06 -420567 1.60157e+06 -2.50618e+06
200 3 O 6.09339 36.8798 1.4948 -1.2 -8.39198 -5.95451e+06 -727680 -9.82565e+06 -134183 -6.61561e+06 -1.70969e+06
201 3 O 2.40018 34.2925 1.4948 -1.2 -9.85805 -3.77688e+06 -1.35449e+06 -1.23312e+06 1.69588e+06 -519325 -554076
202 3 O 5.31645 34.5604 0.196716 -1.2 -6.54607 -3.50991e+06 -1.3598e+07 -9.22759e+06 -944925 -7.83158e+06 1.34835e+06
203 1 Mg 6.91449 33.243 2.9896 1.2 -7.66054 4.09985e+06 -1.27558e+06 -966537 1.32897e+06 -1.38208e+06 1.54489e+06
204 3 O 5.291 34.5604 2.79288 -1.2 -9.14245 -1.54016e+06 -4.25209e+06 -1.71155e+06 1.12476e+06 -268350 -887824
205 1 Mg -0.471101 33.2843 4.4844 1.2 -8.39889 -1.52523e+06 2.86657e+06 2.91115e+06 -427576 -186482 -267497
206 2 Si -2.26307 35.9684 4.4844 2.4 -32.0666 1.00385e+07 9.62897e+06 7.88536e+06 66735.4 -100313 -312147
207 3 O -2.33122 34.3552 4.4844 -1.2 -9.81918 -3.33158e+06 -559145 -3.37017e+06 386306 -90128.8 262822
208 3 O 1.36549 36.9425 4.4844 -1.2 -9.65304 -2.80281e+06 -3.03006e+06 -2.80618e+06 2.27479e+06 -305296 113668
209 3 O -1.52658 36.6746 3.18632 -1.2 -9.33275 -2.1799e+06 -3.91022e+06 -790138 1.15519e+06 120097 -1.31165e+06
210 3 O -1.55122 36.6746 5.78248 -1.2 -9.4563 -1.97447e+06 -3.9675e+06 -1.40822e+06 1.17099e+06 -61852.1 1.4627e+06
211 1 Mg 1.882 35.6175 2.9896 1.2 -7.635 4.03224e+06 -1.15303e+06 -1.0827e+06 -1.11411e+06 -1.49147e+06 -1.78194e+06
212 1 Mg 4.69415 35.5762 4.4844 1.2 -8.28415 -1.36094e+06 2.91762e+06 2.64354e+06 1.22664e+06 -161905 -99756.9
213 2 Si 2.88522 37.641 4.4844 2.4 -32.0713 1.00159e+07 9.4242e+06 8.07042e+06 794108 -137797 -103341
214 3 O 2.91159 39.2543 4.4844 -1.2 -9.83078 -3.35674e+06 -320947 -3.72208e+06 610048 -24494.7 81141.2
215 3 O -3.74183 36.667 4.4844 -1.2 -9.72632 -2.95002e+06 -2.89623e+06 -2.61599e+06 -1.29406e+06 -303051 32356.4
216 3 O 3.58014 36.9349 3.18632 -1.2 -9.37044 -2.17186e+06 -4.0367e+06 -866667 -866020 233108 1.39398e+06
217 1 Mg 1.90997 35.6175 0 1.2 -5.83041 2.68303e+06 2.74257e+06 -4.23157e+06 -1.64072e+06 -772532 501545
218 3 O 3.55582 36.9349 5.78248 -1.2 -9.45879 -1.99343e+06 -3.9926e+06 -1.56875e+06 -963773 -91360.8 -1.26168e+06
219 1 Mg -0.93068 35.6588 1.4948 1.2 -8.47081 -1.2989e+06 2.97899e+06 4.11103e+06 1.85662e+06 -318332 -199202
220 2 Si 0.881882 33.5939 1.4948 2.4 -33.3361 9.33539e+06 1.02016e+07 1.00057e+07 1.40696e+06 1.6395e+06 1.51435e+06
221 3 O 0.859602 31.9807 1.4948 -1.2 -7.52243 -5.90016e+06 -719789 -1.49312e+07 1.16269e+06 -8.48335e+06 2.87988e+06
222 3 O 7.507 34.568 1.4948 -1.2 -9.9071 -3.89399e+06 -1.24625e+06 -1.16875e+06 -933046 -423892 1.372e+06
223 3 O 0.210186 34.3001 0.196716 -1.2 -6.57089 -3.64179e+06 -1.42942e+07 -9.20766e+06 1.527e+06 -7.94797e+06 -336239
224 3 O 0.184454 34.3001 2.79288 -1.2 -9.16978 -1.52236e+06 -4.36856e+06 -1.7715e+06 -844601 -171613 1.25115e+06
225 1 Mg 7.07415 37.992 0 1.2 -5.9029 2.17224e+06 2.65477e+06 -3.90175e+06 1.85746e+06 -389574 -1.52569e+06
226 1 Mg 4.36817 42.6997 1.4948 1.2 -8.62416 -1.71954e+06 2.69897e+06 4.28533e+06 -1.00931e+06 135242 -90675.1
227 2 Si 6.16058 40.0155 1.4948 2.4 -33.0107 1.02624e+07 8.80488e+06 1.00544e+07 -382841 1.3667e+06 -2.00468e+06
228 3 O 6.22815 41.6288 1.4948 -1.2 -8.91388 -5.62001e+06 -324323 -6.81842e+06 43305.5 -4.54647e+06 -1.43738e+06
229 3 O 2.53282 39.0415 1.4948 -1.2 -9.83594 -3.64555e+06 -1.30623e+06 -1.60788e+06 1.71403e+06 -331104 -708438
230 3 O 5.44674 39.3094 0.196716 -1.2 -7.40467 -3.95962e+06 -1.10887e+07 -5.47109e+06 -135012 -5.79681e+06 2.0777e+06
231 1 Mg 7.04922 37.992 2.9896 1.2 -7.58322 4.02596e+06 -1.34618e+06 -934958 1.29794e+06 -1.46994e+06 1.79802e+06
232 3 O 5.42658 39.3094 2.79288 -1.2 -9.16758 -1.62708e+06 -4.00677e+06 -1.85663e+06 1.12933e+06 -304472 -1.06718e+06
233 1 Mg -0.333062 38.0333 4.4844 1.2 -8.31789 -1.68939e+06 2.77762e+06 3.02968e+06 -435866 -126791 -21414.4
234 2 Si -2.12255 40.7174 4.4844 2.4 -32.195 1.01297e+07 8.91419e+06 8.71942e+06 97204.7 -90634.8 25774.7
235 3 O -2.19212 39.1042 4.4844 -1.2 -9.8368 -3.29854e+06 -325043 -3.5969e+06 420211 -50798.9 9478.03
236 3 O 1.50676 41.6915 4.4844 -1.2 -9.58088 -2.94167e+06 -2.69152e+06 -3.12382e+06 2.24734e+06 -197443 9372.44
237 3 O -1.3884 41.4236 3.18632 -1.2 -9.24786 -2.22555e+06 -3.55661e+06 -1.33895e+06 1.14902e+06 142526 -1.40566e+06
238 3 O -1.40713 41.4236 5.78248 -1.2 -9.31036 -2.06929e+06 -3.49116e+06 -1.96569e+06 1.25712e+06 64956.7 1.31895e+06
239 1 Mg 2.01892 40.3665 2.9896 1.2 -7.65824 4.08469e+06 -1.41195e+06 -825731 -1.09273e+06 -1.60548e+06 -1.63074e+06
240 1 Mg 4.83434 40.3252 4.4844 1.2 -8.32504 -1.29932e+06 2.5916e+06 2.97677e+06 1.24852e+06 -86427.9 -58633.5
241 2 Si 3.02698 42.39 4.4844 2.4 -32.2561 1.02032e+07 8.86056e+06 8.74447e+06 831611 -197706 228132
242 3 O 3.05433 44.0033 4.4844 -1.2 -9.67398 -3.45307e+06 50903.3 -4.25895e+06 553141 -20716.5 -196360
243 3 O -3.60077 41.416 4.4844 -1.2 -9.64982 -3.07789e+06 -2.54634e+06 -2.96272e+06 -1.29709e+06 -308588 -64018.4
244 3 O 3.71851 41.6839 3.18632 -1.2 -9.28365 -2.21502e+06 -3.73405e+06 -1.37553e+06 -842705 243949 1.2449e+06
245 1 Mg 2.04077 40.3665 0 1.2 -5.96806 1.75084e+06 2.35804e+06 -4.11553e+06 -1.82927e+06 390019 1.29194e+06
246 3 O 3.70011 41.6839 5.78248 -1.2 -9.41941 -2.09306e+06 -3.84764e+06 -1.61439e+06 -863338 9719.34 -1.34846e+06
247 1 Mg -0.796865 40.4078 1.4948 1.2 -8.52844 -1.45559e+06 2.85629e+06 4.09112e+06 1.75514e+06 32040 -125138
248 2 Si 1.01387 38.3429 1.4948 2.4 -33.0545 9.86191e+06 9.41792e+06 9.84699e+06 1.54346e+06 1.42827e+06 1.58951e+06
249 3 O 0.989947 36.7297 1.4948 -1.2 -8.38385 -6.01126e+06 -725800 -9.93509e+06 1.03068e+06 -6.62507e+06 2.16989e+06
250 3 O 7.63988 39.317 1.4948 -1.2 -9.87617 -3.79322e+06 -1.17747e+06 -1.56098e+06 -927082 -274439 1.25143e+06
251 3 O 0.340253 39.0491 0.196716 -1.2 -7.42235 -4.05564e+06 -1.20297e+07 -5.36035e+06 373463 -5.83739e+06 -1.2773e+06
252 3 O 0.319795 39.0491 2.79288 -1.2 -9.21017 -1.59066e+06 -4.18195e+06 -1.86341e+06 -852503 -188312 1.0321e+06
253 1 Mg 7.20667 42.741 0 1.2 -6.09714 1.59744e+06 2.02046e+06 -3.84516e+06 1.99401e+06 949427 -2.32225e+06
254 1 Mg 4.50613 47.4487 1.4948 1.2 -8.75469 -1.49994e+06 2.31818e+06 4.45243e+06 -854442 432972 206024
255 2 Si 6.29731 44.7645 1.4948 2.4 -33.1385 1.11319e+07 7.18719e+06 1.09842e+07 -264097 915057 -1.44136e+06
256 3 O 6.36567 46.3778 1.4948 -1.2 -9.16808 -5.08853e+06 210815 -5.37697e+06 188652 -2.68435e+06 -1.43289e+06
257 3 O 2.669 43.7905 1.4948 -1.2 -9.64475 -3.71326e+06 -981601 -2.44158e+06 1.71659e+06 -206845 -860351
258 3 O 5.58048 44.0584 0.196716 -1.2 -7.95988 -4.16083e+06 -7.90414e+06 -3.60044e+06 330474 -3.76594e+06 2.50449e+06
259 1 Mg 7.1879 42.741 2.9896 1.2 -7.68181 4.18419e+06 -1.74848e+06 -519655 1.25475e+06 -1.57034e+06 1.88962e+06
260 3 O 5.56564 44.0584 2.79288 -1.2 -9.05717 -1.94467e+06 -3.49305e+06 -2.25712e+06 1.16939e+06 -278966 -1.23344e+06
261 1 Mg -0.19105 42.7823 4.4844 1.2 -8.42389 -1.4534e+06 2.33469e+06 3.40328e+06 -366261 -110955 7073.29
262 2 Si -1.97909 45.4664 4.4844 2.4 -32.434 1.08203e+07 8.02518e+06 9.29932e+06 41595.8 -368633 130889
263 3 O -2.04947 43.8532 4.4844 -1.2 -9.71251 -3.51138e+06 104899 -4.01931e+06 501948 44854.9 -6015.89
264 3 O 1.65063 46.4405 4.4844 -1.2 -9.39343 -3.19163e+06 -2.26442e+06 -3.61128e+06 2.2699e+06 -350906 -135374
265 3 O -1.24745 46.1726 3.18632 -1.2 -9.0958 -2.50234e+06 -3.11605e+06 -1.85183e+06 1.13142e+06 123792 -1.54156e+06
266 3 O -1.26044 46.1726 5.78248 -1.2 -9.28737 -2.67968e+06 -3.0641e+06 -1.67094e+06 1.12984e+06 198870 1.35476e+06
267 1 Mg 2.15896 45.1155 2.9896 1.2 -7.81575 4.25515e+06 -1.8745e+06 -265623 -1.04311e+06 -1.63615e+06 -1.43724e+06
268 1 Mg 4.97763 45.0742 4.4844 1.2 -8.49802 -1.12204e+06 2.10394e+06 3.56201e+06 1.20026e+06 -114927 236668