ITEM: TIMESTEP
33200
ITEM: NUMBER OF ATOMS
10500
ITEM: BOX BOUNDS xy xz yz pp pp pp
0.0000000000000000e+00 1.5297749999999999e+01 5.0992499999999996e+00
0.0000000000000000e+00 1.1872499999999999e+02 0.0000000000000000e+00
0.0000000000000000e+00 8.9688000000000002e+01 0.0000000000000000e+00
ITEM: ATOMS id type element xu yu zu q c_pe c_s[1] c_s[2] c_s[3] c_s[4] c_s[5] c_s[6]
1 1 Mg 6.2404 -6.37941e-06 0 1.2 -4.18588 7.51356e+06 -1.58265e+06 -6.48612e+06 -25266.8 2.59288e+06 -416572
2 1 Mg 3.46349 4.70768 1.4948 1.2 -8.29805 -631829 3.00038e+06 4.02248e+06 -940008 -608924 -73974.9
3 2 Si 5.2885 2.02354 1.4948 2.4 -34.8168 9.30121e+06 1.15658e+07 1.0708e+07 8.85911e+06 677461 -3.43781e+06
4 3 O 5.33628 3.63678 1.4948 -1.2 -4.92282 -494883 -1.74957e+06 -3.33664e+07 -328170 3.81996e+06 -3.71415e+06
5 3 O 1.67294 1.04952 1.4948 -1.2 -1.27722 -1.99622e+07 -7.96859e+07 -1.80035e+06 -2.41322e+07 -137691 117407
6 3 O 4.59532 1.31737 0.196716 -1.2 -3.2602 -1.59936e+06 -6.93926e+06 -3.02163e+07 -6.02632e+06 6.24706e+06 -2.45332e+06
7 1 Mg 6.18956 -6.37941e-06 2.9896 1.2 -4.72119 1.23227e+06 -2.78861e+07 -3.31737e+06 -8.84311e+06 2.4497e+06 3.89039e+06
8 3 O 4.55118 1.31737 2.79288 -1.2 -7.71496 487948 -5.02014e+06 -2.84706e+06 -2.97553e+06 -3.40371e+06 -948256
9 1 Mg -1.20682 0.0413099 4.4844 1.2 9.10526 -3.10784e+07 -9.31134e+07 -499754 -2.85857e+07 -1.22281e+06 4096.54
10 2 Si -3.0337 2.72544 4.4844 2.4 -32.7213 1.36807e+07 7.50837e+06 7.61035e+06 1.56303e+06 74291.1 -899830
11 3 O -3.08099 1.11221 4.4844 -1.2 -9.80619 -5.85082e+06 -220026 -1.92103e+06 -1.17397e+06 -234651 381536
12 3 O 0.582463 3.69946 4.4844 -1.2 -9.18956 -2.94187e+06 -5.74361e+06 -2.55622e+06 -581148 -141618 -18800.2
13 3 O -2.29524 3.43162 3.18632 -1.2 -9.26223 -3.90008e+06 -2.79495e+06 -300764 1.09471e+06 -809854 -788070
14 3 O -2.34216 3.43162 5.78248 -1.2 -9.05897 -3.55945e+06 -3.36609e+06 -1.49227e+06 751951 572102 1.46005e+06
15 1 Mg 1.12778 2.37449 2.9896 1.2 -7.38793 4.8461e+06 -1.32983e+06 -998927 -3.27554e+06 -4.18261e+06 -2.41737e+06
16 1 Mg 3.92855 2.33318 4.4844 1.2 -8.26691 -4.53697e+06 5.24345e+06 4.56666e+06 1.4164e+06 331859 365041
17 2 Si 2.09341 4.39804 4.4844 2.4 -31.9792 1.13707e+07 7.31619e+06 8.47533e+06 182109 -181146 410098
18 3 O 2.09991 6.01128 4.4844 -1.2 -9.64845 -3.71075e+06 -158805 -3.82244e+06 547488 -188093 -32529.9
19 3 O -4.52137 3.42402 4.4844 -1.2 -9.36846 -2.56196e+06 -3.15055e+06 -3.36987e+06 -2.39561e+06 -846891 174567
20 3 O 2.80834 3.69187 3.18632 -1.2 -9.52895 -1.785e+06 -3.11696e+06 -151350 458642 -516716 -360259
21 1 Mg 1.17857 2.37449 0 1.2 -4.91453 -968481 -1.45574e+07 -6.68269e+06 6.52446e+06 1.22355e+06 4.38763e+06
22 3 O 2.76143 3.69187 5.78248 -1.2 -9.57774 -2.41046e+06 -2.74378e+06 -893480 554910 -98266.6 12986.8
23 1 Mg -1.67381 2.41581 1.4948 1.2 -7.36694 1.21658e+06 70058.7 3.78312e+06 1.3507e+06 -597472 830994
24 2 Si 0.16286 0.350945 1.4948 2.4 -24.0973 -8.96206e+06 1.30423e+07 1.08259e+07 1.58179e+06 2.85793e+06 771491
25 3 O 0.15972 -1.26229 1.4948 -1.2 -4.99876 -1.02759e+07 -8.33612e+06 -2.86642e+07 -5.60062e+06 -8.55355e+06 -2.44639e+06
26 3 O 6.77654 1.32496 1.4948 -1.2 -10.5781 -5.38428e+06 1.48014e+06 -1.09188e+06 -635852 -633785 1.2602e+06
27 3 O -0.508028 1.05712 0.196716 -1.2 -9.75677 491499 -4.94547e+06 -445099 -552197 193219 -4.32984e+06
28 3 O -0.552171 1.05712 2.79288 -1.2 -7.01628 -4.98132e+06 -4.90595e+06 -2.43558e+07 1.43927e+06 -6.78106e+06 -5.32668e+06
29 1 Mg 6.31713 4.74899 0 1.2 -4.75603 102731 -1.25906e+07 -6.44452e+06 -7.31433e+06 1.41271e+06 -3.75193e+06
30 1 Mg 3.54847 9.45668 1.4948 1.2 -8.21778 73844.5 1.97666e+06 4.19053e+06 -955746 -898107 -624142
31 2 Si 5.36879 6.77254 1.4948 2.4 -33.9991 6.84255e+06 1.26028e+07 1.09755e+07 1.65357e+06 141608 -2.31775e+06
32 3 O 5.41937 8.38578 1.4948 -1.2 -4.88662 -138282 -1.19324e+06 -3.49418e+07 767229 1.10814e+06 -3.98771e+06
33 3 O 1.75158 5.79852 1.4948 -1.2 -9.66223 -3.71932e+06 -2.65107e+06 -1.16144e+06 1.96672e+06 -1.6075e+06 -1.18451e+06
34 3 O 4.67421 6.06637 0.196716 -1.2 -3.93226 384685 -1.04481e+07 -3.11165e+07 -1.9994e+06 1.2851e+06 -4.27113e+06
35 1 Mg 6.26654 4.74899 2.9896 1.2 -7.84721 3.83398e+06 -1.40393e+06 -287165 1.79457e+06 -862018 1.77985e+06
36 3 O 4.63043 6.06637 2.79288 -1.2 -9.00651 -1.34782e+06 -4.20761e+06 -1.97128e+06 946301 -103491 -1.30594e+06
37 1 Mg -1.12976 4.79031 4.4844 1.2 -8.60163 -886870 2.97387e+06 2.56313e+06 -662068 -425066 -215842
38 2 Si -2.9517 7.47444 4.4844 2.4 -32.5777 1.10203e+07 9.04199e+06 8.29047e+06 26804.5 -77775 -467370
39 3 O -3.00198 5.86121 4.4844 -1.2 -9.6101 -3.79254e+06 -324704 -3.49795e+06 54109.7 -205665 184152
40 3 O 0.666315 8.44846 4.4844 -1.2 -9.37924 -3.18883e+06 -2.61936e+06 -3.23306e+06 2.12498e+06 -536308 339737
41 3 O -2.21213 8.18062 3.18632 -1.2 -9.22317 -2.77514e+06 -3.53214e+06 -456126 1.11145e+06 -288488 -1.18143e+06
42 3 O -2.25864 8.18062 5.78248 -1.2 -9.11199 -2.92691e+06 -3.57508e+06 -1.606e+06 1.0953e+06 -97142.9 1.62344e+06
43 1 Mg 1.20893 7.12349 2.9896 1.2 -7.85869 3.88576e+06 -1.44343e+06 -301795 -1.27908e+06 -1.31083e+06 -1.8651e+06
44 1 Mg 4.00982 7.08218 4.4844 1.2 -8.55068 -1.09754e+06 2.6502e+06 3.06734e+06 1.00018e+06 -292893 -35786.5
45 2 Si 2.17861 9.14704 4.4844 2.4 -32.6487 1.07796e+07 8.93032e+06 8.72825e+06 618667 20138.1 -703046
46 3 O 2.18828 10.7603 4.4844 -1.2 -9.57932 -3.73515e+06 -296873 -3.75435e+06 429782 -259045 542966
47 3 O -4.43805 8.17302 4.4844 -1.2 -9.41626 -3.17839e+06 -2.6893e+06 -3.08267e+06 -1.52721e+06 -425570 192314
48 3 O 2.89193 8.44087 3.18632 -1.2 -9.22116 -2.5705e+06 -3.70458e+06 -643741 -931320 -245254 1.54575e+06
49 1 Mg 1.25915 7.12349 0 1.2 -5.1762 713198 -7.24626e+06 -6.62006e+06 5.89908e+06 1.3817e+06 2.39896e+06
50 3 O 2.84547 8.44087 5.78248 -1.2 -9.02186 -2.66943e+06 -3.66805e+06 -2.14179e+06 -907261 -102321 -952964
51 1 Mg -1.59284 7.16481 1.4948 1.2 -8.10495 605062 1.61825e+06 4.036e+06 1.46249e+06 -930127 126939
52 2 Si 0.240329 5.09994 1.4948 2.4 -33.7131 7.72416e+06 1.15105e+07 1.07284e+07 -1.94635e+06 -1.05929e+06 1.63249e+06
53 3 O 0.234538 3.48671 1.4948 -1.2 -5.42429 -1.45348e+06 107266 -3.34977e+07 395020 5.1817e+06 4.12775e+06
54 3 O 6.85564 6.07396 1.4948 -1.2 -9.74224 -4.17318e+06 -2.09269e+06 -1.09921e+06 -1.34144e+06 -1.81733e+06 1.33897e+06
55 3 O -0.429565 5.80612 0.196716 -1.2 -4.18363 -401035 -9.09763e+06 -3.1235e+07 1.84141e+06 1.20675e+06 4.72307e+06
56 3 O -0.473377 5.80612 2.79288 -1.2 -9.1035 -1.89423e+06 -3.77377e+06 -1.80364e+06 -793159 307176 1.46467e+06
57 1 Mg 6.40169 9.49799 0 1.2 -5.15851 1.42368e+06 -6.1467e+06 -6.94741e+06 -5.48744e+06 983935 -2.71154e+06
58 1 Mg 3.64209 14.2057 1.4948 1.2 -8.32377 64194.2 2.11486e+06 4.19087e+06 -1.03986e+06 -930742 -740948
59 2 Si 5.45748 11.5215 1.4948 2.4 -34.0655 7.27245e+06 1.22329e+07 1.09978e+07 906574 360418 -2.91484e+06
60 3 O 5.51101 13.1348 1.4948 -1.2 -4.88259 -390864 -1.1683e+06 -3.45407e+07 462329 -2.55222e+06 -3.90927e+06
61 3 O 1.83851 10.5475 1.4948 -1.2 -9.67972 -4.02943e+06 -2.12329e+06 -1.07958e+06 1.54105e+06 -1.60631e+06 -725064
62 3 O 4.7611 10.8154 0.196716 -1.2 -3.72607 702580 -1.17661e+07 -3.16695e+07 -2.46631e+06 -1.79664e+06 -3.98063e+06
63 1 Mg 6.35203 9.49799 2.9896 1.2 -7.85592 3.93135e+06 -1.4458e+06 -330975 1.31717e+06 -1.21689e+06 1.67184e+06
64 3 O 4.71833 10.8154 2.79288 -1.2 -8.98031 -1.64017e+06 -3.97149e+06 -1.96789e+06 1.03211e+06 16963.9 -905097
65 1 Mg -1.0438 9.53931 4.4844 1.2 -8.55025 -974994 2.54123e+06 2.96314e+06 -622076 -272477 -446680
66 2 Si -2.8604 12.2234 4.4844 2.4 -32.6351 1.09023e+07 9.18661e+06 8.35827e+06 -17808.6 -229709 -932474
67 3 O -2.91391 10.6102 4.4844 -1.2 -9.58731 -3.7558e+06 -281387 -3.62597e+06 237402 -111699 376203
68 3 O 0.7596 13.1975 4.4844 -1.2 -9.39658 -3.22181e+06 -2.92352e+06 -2.87902e+06 2.17725e+06 -479898 552137
69 3 O -2.12001 12.9296 3.18632 -1.2 -9.17772 -2.72555e+06 -3.69201e+06 -423339 1.14551e+06 -173104 -1.04718e+06
70 3 O -2.16532 12.9296 5.78248 -1.2 -9.08184 -2.71313e+06 -3.80704e+06 -1.67175e+06 1.05886e+06 97178 1.95597e+06
71 1 Mg 1.29891 11.8725 2.9896 1.2 -7.88429 4.01035e+06 -1.3249e+06 -507202 -1.19244e+06 -1.1961e+06 -2.16086e+06
72 1 Mg 4.10033 11.8312 4.4844 1.2 -8.5669 -970556 2.68955e+06 2.92815e+06 1.16384e+06 -231071 -446986
73 2 Si 2.27333 13.896 4.4844 2.4 -32.5939 1.09735e+07 9.44894e+06 7.92043e+06 583788 93840.4 -960757
74 3 O 2.28634 15.5093 4.4844 -1.2 -9.56701 -3.8213e+06 -449465 -3.54365e+06 539792 -210632 447842
75 3 O -4.34533 12.922 4.4844 -1.2 -9.40011 -3.20358e+06 -2.76426e+06 -3.00525e+06 -1.49304e+06 -463981 467941
76 3 O 2.98455 13.1899 3.18632 -1.2 -9.20282 -2.69289e+06 -3.82252e+06 -458179 -944454 -210053 1.78811e+06
77 1 Mg 1.34779 11.8725 0 1.2 -5.44131 2.61833e+06 -2.49e+06 -6.9583e+06 3.56318e+06 819334 1.25063e+06
78 3 O 2.93934 13.1899 5.78248 -1.2 -9.14835 -2.65758e+06 -4.02645e+06 -1.47949e+06 -894444 -373612 -652087
79 1 Mg -1.50344 11.9138 1.4948 1.2 -8.2418 364109 1.9937e+06 4.10453e+06 1.56154e+06 -985774 19573.2
80 2 Si 0.326006 9.84894 1.4948 2.4 -34.0091 7.24067e+06 1.22126e+07 1.09318e+07 -613147 111720 1.60856e+06
81 3 O 0.317364 8.23571 1.4948 -1.2 -4.8894 -245535 -1.05638e+06 -3.50964e+07 -125570 1.17337e+06 4.44407e+06
82 3 O 6.94307 10.823 1.4948 -1.2 -9.72005 -4.21311e+06 -1.94412e+06 -969533 -987163 -1.50393e+06 1.40299e+06
83 3 O -0.343122 10.5551 0.196716 -1.2 -3.81851 459466 -1.12297e+07 -3.17797e+07 2.45934e+06 -2.01374e+06 4.81781e+06
84 3 O -0.385966 10.5551 2.79288 -1.2 -9.02478 -1.7215e+06 -4.0104e+06 -1.92226e+06 -839977 97441.5 1.5261e+06
85 1 Mg 6.49448 14.247 0 1.2 -5.42577 3.24224e+06 -1.65734e+06 -7.2549e+06 -2.96497e+06 245862 -1.9206e+06
86 1 Mg 3.74457 18.9547 1.4948 1.2 -8.49099 29961.5 2.17719e+06 4.35354e+06 -1.1177e+06 -976976 -655031
87 2 Si 5.55495 16.2705 1.4948 2.4 -34.1661 7.77958e+06 1.20263e+07 1.08772e+07 538585 828003 -3.18917e+06
88 3 O 5.6115 17.8838 1.4948 -1.2 -5.12221 -1.56359e+06 -1.05388e+06 -3.18677e+07 71574.8 -6.071e+06 -3.7103e+06
89 3 O 1.93416 15.2965 1.4948 -1.2 -9.66021 -4.19537e+06 -1.88149e+06 -937110 1.54716e+06 -1.38499e+06 -604667
90 3 O 4.85636 15.5644 0.196716 -1.2 -3.67586 588100 -1.35297e+07 -3.0039e+07 -3.03828e+06 -5.16728e+06 -3.30542e+06
91 1 Mg 6.44662 14.247 2.9896 1.2 -7.87929 4.06092e+06 -1.35775e+06 -512100 1.31135e+06 -1.19821e+06 1.52008e+06
92 3 O 4.81537 15.5644 2.79288 -1.2 -8.93133 -1.73942e+06 -4.06724e+06 -1.88228e+06 1.07528e+06 -39953.3 -800890
93 1 Mg -0.948271 14.2883 4.4844 1.2 -8.58068 -1.08771e+06 2.79522e+06 2.86485e+06 -524943 -360748 -488346
94 2 Si -2.75928 16.9724 4.4844 2.4 -32.6933 1.10485e+07 9.34092e+06 8.15368e+06 121357 30502 -895662
95 3 O -2.81617 15.3592 4.4844 -1.2 -9.55964 -3.7579e+06 -434086 -3.50354e+06 206467 -163848 463781
96 3 O 0.862762 17.9465 4.4844 -1.2 -9.30225 -3.20223e+06 -2.90478e+06 -3.07887e+06 2.20258e+06 -431278 393175
97 3 O -2.0185 17.6786 3.18632 -1.2 -9.1043 -2.78227e+06 -3.71185e+06 -484468 1.13019e+06 -179449 -1.0925e+06
98 3 O -2.06164 17.6786 5.78248 -1.2 -9.04695 -2.64593e+06 -3.90497e+06 -1.66352e+06 992121 -159807 1.77794e+06
99 1 Mg 1.39817 16.6215 2.9896 1.2 -7.93387 4.16126e+06 -1.29299e+06 -612640 -1.19036e+06 -1.24622e+06 -2.07898e+06
100 1 Mg 4.20062 16.5802 4.4844 1.2 -8.57713 -837191 2.72625e+06 2.77634e+06 1.09456e+06 -287510 -439138
101 2 Si 2.37796 18.645 4.4844 2.4 -32.7356 1.11062e+07 9.28925e+06 8.17035e+06 588465 -298423 -745193
102 3 O 2.39434 20.2583 4.4844 -1.2 -9.48548 -3.93662e+06 -312108 -3.70162e+06 508072 -14825.7 352754
103 3 O -4.24274 17.671 4.4844 -1.2 -9.4012 -3.41272e+06 -2.77732e+06 -2.78653e+06 -1.45836e+06 -514222 428569
104 3 O 3.08659 17.9389 3.18632 -1.2 -9.13626 -2.81249e+06 -3.80294e+06 -506293 -909753 -32625.3 1.72244e+06
105 1 Mg 1.44478 16.6215 0 1.2 -5.63749 4.41768e+06 504374 -6.99503e+06 1.393e+06 -55264.6 480464
106 3 O 3.0436 17.9389 5.78248 -1.2 -9.10554 -2.7484e+06 -3.93495e+06 -1.53138e+06 -760932 -37530.3 -788063
107 1 Mg -1.40524 16.6628 1.4948 1.2 -8.38968 271441 2.16818e+06 4.21206e+06 1.69703e+06 -986027 -62798.3
108 2 Si 0.420358 14.5979 1.4948 2.4 -34.1222 7.48264e+06 1.22614e+07 1.08065e+07 -144536 526165 1.63725e+06
109 3 O 0.408732 12.9847 1.4948 -1.2 -4.87098 -394071 -1.16617e+06 -3.46926e+07 231075 -2.54729e+06 4.66878e+06
110 3 O 7.03923 15.572 1.4948 -1.2 -9.69795 -4.36218e+06 -1.7206e+06 -837920 -957874 -1.30037e+06 1.46672e+06
111 3 O -0.248332 15.3041 0.196716 -1.2 -3.77327 330280 -1.30776e+07 -3.01302e+07 3.25928e+06 -5.37142e+06 4.40671e+06
112 3 O -0.289436 15.3041 2.79288 -1.2 -8.96284 -1.71237e+06 -4.18608e+06 -1.89618e+06 -859977 68933.3 1.5121e+06
113 1 Mg 6.59566 18.996 0 1.2 -5.6706 4.80452e+06 853809 -6.89279e+06 -913241 -669660 -1.31005e+06
114 1 Mg 3.85574 23.7037 1.4948 1.2 -8.69477 -51730.7 2.15891e+06 4.64018e+06 -1.18257e+06 -920491 -507800
115 2 Si 5.66125 21.0195 1.4948 2.4 -34.3053 8.59981e+06 1.1311e+07 1.1057e+07 187080 1.25174e+06 -3.01389e+06
116 3 O 5.72074 22.6328 1.4948 -1.2 -5.6054 -3.4283e+06 -753785 -2.71877e+07 -213803 -8.52055e+06 -3.37226e+06
117 3 O 2.03867 20.0455 1.4948 -1.2 -9.5835 -4.37858e+06 -1.49837e+06 -1.05746e+06 1.57289e+06 -1.12356e+06 -624165
118 3 O 4.96004 20.3134 0.196716 -1.2 -3.87543 -332275 -1.48116e+07 -2.63299e+07 -3.19235e+06 -7.95141e+06 -2.38832e+06
119 1 Mg 6.55057 18.996 2.9896 1.2 -7.92915 4.30725e+06 -1.43041e+06 -605369 1.31667e+06 -1.1519e+06 1.59377e+06
120 3 O 4.92172 20.3134 2.79288 -1.2 -8.84128 -1.9279e+06 -3.97197e+06 -1.97132e+06 1.0765e+06 -87182.6 -911730
121 1 Mg -0.84282 19.0373 4.4844 1.2 -8.67206 -1.12922e+06 2.74009e+06 3.09828e+06 -504768 -230746 -355798
122 2 Si -2.64823 21.7214 4.4844 2.4 -32.884 1.13708e+07 8.86023e+06 8.61612e+06 -52030.7 141106 -542491
123 3 O -2.70847 20.1082 4.4844 -1.2 -9.49966 -3.87607e+06 -308338 -3.60548e+06 309322 -284216 277588
124 3 O 0.97581 22.6955 4.4844 -1.2 -9.1849 -3.39827e+06 -2.66125e+06 -3.31416e+06 2.16985e+06 -349182 370347
125 3 O -1.9076 22.4276 3.18632 -1.2 -8.98034 -2.92712e+06 -3.49431e+06 -793857 1.18564e+06 -114246 -1.19026e+06
126 3 O -1.9475 22.4276 5.78248 -1.2 -8.9255 -2.81681e+06 -3.5674e+06 -1.91795e+06 1.18612e+06 -232741 1.6912e+06
127 1 Mg 1.50678 21.3705 2.9896 1.2 -8.02696 4.39341e+06 -1.47162e+06 -517054 -1.155e+06 -1.31795e+06 -1.96106e+06
128 1 Mg 4.31086 21.3292 4.4844 1.2 -8.64697 -626803 2.53747e+06 2.86796e+06 1.19848e+06 -284857 -210364
129 2 Si 2.49243 23.394 4.4844 2.4 -32.9722 1.15901e+07 8.776e+06 8.58234e+06 882965 -258351 -545643
130 3 O 2.51204 25.0073 4.4844 -1.2 -9.35279 -4.15175e+06 -48549.6 -3.96186e+06 429875 -133910 299765
131 3 O -4.13026 22.42 4.4844 -1.2 -9.29936 -3.61155e+06 -2.51021e+06 -3.0179e+06 -1.35864e+06 -528829 208260
132 3 O 3.19799 22.6879 3.18632 -1.2 -9.01721 -2.98655e+06 -3.61132e+06 -769979 -946804 59884.1 1.58524e+06
133 1 Mg 1.5501 21.3705 0 1.2 -5.82685 5.53523e+06 1.90616e+06 -6.43293e+06 -69459.3 -982563 113341
134 3 O 3.1583 22.6879 5.78248 -1.2 -9.00812 -3.01925e+06 -3.67591e+06 -1.72559e+06 -989355 -98569.1 -980701
135 1 Mg -1.29822 21.4118 1.4948 1.2 -8.58652 199028 2.17413e+06 4.48946e+06 1.80083e+06 -930816 -51305.9
136 2 Si 0.523568 19.3469 1.4948 2.4 -34.2776 8.0892e+06 1.17227e+07 1.10158e+07 296397 957824 1.84763e+06
137 3 O 0.508934 17.7337 1.4948 -1.2 -5.10407 -1.5251e+06 -1.05698e+06 -3.20668e+07 674812 -6.06421e+06 4.47319e+06
138 3 O 7.14425 20.321 1.4948 -1.2 -9.62167 -4.54492e+06 -1.33856e+06 -968763 -937861 -1.0979e+06 1.36906e+06
139 3 O -0.145107 20.0531 0.196716 -1.2 -3.97708 -631253 -1.45047e+07 -2.63787e+07 3.68918e+06 -8.1875e+06 3.42329e+06
140 3 O -0.183601 20.0531 2.79288 -1.2 -8.85594 -1.79453e+06 -4.10561e+06 -2.11648e+06 -839455 -6169.17 1.39316e+06
141 1 Mg 6.70502 23.745 0 1.2 -5.90083 5.50947e+06 1.97956e+06 -5.97084e+06 416455 -1.5063e+06 -904118
142 1 Mg 3.97493 28.4527 1.4948 1.2 -8.87336 -267893 2.19225e+06 4.87649e+06 -1.22052e+06 -765254 -386540
143 2 Si 5.77602 25.7685 1.4948 2.4 -34.4086 9.56291e+06 1.03254e+07 1.13326e+07 -142065 1.52054e+06 -2.88105e+06
144 3 O 5.83821 27.3818 1.4948 -1.2 -6.29813 -5.30939e+06 -436861 -2.1278e+07 -326896 -9.27198e+06 -2.78842e+06
145 3 O 2.15175 24.7945 1.4948 -1.2 -9.4808 -4.54794e+06 -1.09277e+06 -1.32384e+06 1.60055e+06 -929494 -614245
146 3 O 5.07184 25.0624 0.196716 -1.2 -4.37873 -1.79965e+06 -1.52907e+07 -2.09557e+07 -2.77907e+06 -9.42532e+06 -1.15076e+06
147 1 Mg 6.66374 23.745 2.9896 1.2 -8.0358 4.56451e+06 -1.69425e+06 -424986 1.27906e+06 -1.20875e+06 1.67811e+06
148 3 O 5.03707 25.0624 2.79288 -1.2 -8.70962 -2.09016e+06 -3.75079e+06 -2.27893e+06 1.10367e+06 -152538 -960859
149 1 Mg -0.727559 23.7863 4.4844 1.2 -8.80039 -930461 2.42327e+06 3.41566e+06 -525258 -252004 -385044
150 2 Si -2.5277 26.4704 4.4844 2.4 -33.1147 1.1803e+07 8.4546e+06 8.96569e+06 -117857 -283136 -737922
151 3 O -2.59107 24.8572 4.4844 -1.2 -9.36524 -4.08833e+06 313.737 -3.90271e+06 455817 -137097 304229
152 3 O 1.09817 27.4445 4.4844 -1.2 -9.11438 -3.6843e+06 -2.55398e+06 -3.25562e+06 2.18015e+06 -507752 366279
153 3 O -1.78784 27.1766 3.18632 -1.2 -8.87396 -3.11407e+06 -3.34514e+06 -983774 1.18121e+06 54594.6 -1.17001e+06
154 3 O -1.82343 27.1766 5.78248 -1.2 -8.8722 -3.12189e+06 -3.44903e+06 -1.77566e+06 1.18247e+06 136645 1.90342e+06
155 1 Mg 1.62435 26.1195 2.9896 1.2 -8.12136 4.68404e+06 -1.68408e+06 -440915 -1.11195e+06 -1.28509e+06 -1.92174e+06
156 1 Mg 4.43064 26.0782 4.4844 1.2 -8.81512 -579453 2.30682e+06 3.32291e+06 1.20286e+06 -207000 -193290
157 2 Si 2.61607 28.143 4.4844 2.4 -33.1851 1.17333e+07 8.61499e+06 8.94344e+06 789596 107035 -553021
158 3 O 2.63853 29.7563 4.4844 -1.2 -9.27474 -4.17177e+06 -66809.8 -4.04944e+06 558505 -189161 244014
159 3 O -4.00841 27.169 4.4844 -1.2 -9.16249 -3.72076e+06 -2.34991e+06 -3.28299e+06 -1.29598e+06 -332350 284105
160 3 O 3.3182 27.4369 3.18632 -1.2 -8.89273 -3.05225e+06 -3.47381e+06 -1.11548e+06 -916203 63771.3 1.55885e+06
161 1 Mg 1.66335 26.1195 0 1.2 -6.02978 5.57381e+06 2.30519e+06 -5.32618e+06 -890560 -1.54308e+06 -82747.3
162 3 O 3.28288 27.4369 5.78248 -1.2 -8.81783 -2.92822e+06 -3.59697e+06 -2.14517e+06 -929952 -365877 -911908
163 1 Mg -1.18278 26.1608 1.4948 1.2 -8.78106 92883.7 2.15148e+06 4.73771e+06 1.88249e+06 -851477 -125440
164 2 Si 0.635424 24.0959 1.4948 2.4 -34.4096 9.03323e+06 1.08208e+07 1.12526e+07 764454 1.35463e+06 1.90035e+06
165 3 O 0.617906 22.4827 1.4948 -1.2 -5.59013 -3.40563e+06 -762927 -2.73604e+07 1.00939e+06 -8.52373e+06 3.97255e+06
166 3 O 7.25781 25.07 1.4948 -1.2 -9.5191 -4.70026e+06 -936152 -1.25991e+06 -919547 -828133 1.33045e+06
167 3 O -0.0337363 24.8021 0.196716 -1.2 -4.46625 -2.07119e+06 -1.52674e+07 -2.0979e+07 3.49776e+06 -9.63869e+06 2.1838e+06
168 3 O -0.0687235 24.8021 2.79288 -1.2 -8.74287 -2.04117e+06 -3.89746e+06 -2.30993e+06 -844283 -63117 1.36294e+06
169 1 Mg 6.82195 28.494 0 1.2 -6.12007 5.21226e+06 2.26791e+06 -4.73121e+06 1.14114e+06 -1.86813e+06 -773709
170 1 Mg 4.10106 33.2017 1.4948 1.2 -8.97145 -599080 2.34294e+06 4.8737e+06 -1.20471e+06 -545546 -105928
171 2 Si 5.89839 30.5175 1.4948 2.4 -34.3626 1.04657e+07 9.45075e+06 1.13138e+07 -337676 1.61403e+06 -2.50494e+06
172 3 O 5.96289 32.1308 1.4948 -1.2 -7.10819 -6.50292e+06 -249247 -1.53192e+07 -286348 -8.41415e+06 -2.34888e+06
173 3 O 2.27266 29.5435 1.4948 -1.2 -9.40342 -4.60086e+06 -837900 -1.60172e+06 1.64761e+06 -746855 -689577
174 3 O 5.19102 29.8114 0.196716 -1.2 -5.13875 -3.2693e+06 -1.46685e+07 -1.50888e+07 -1.93985e+06 -9.27414e+06 95156.9
175 1 Mg 6.78546 28.494 2.9896 1.2 -8.11169 4.76062e+06 -1.81089e+06 -377420 1.29481e+06 -1.36048e+06 1.67237e+06
176 3 O 5.16061 29.8114 2.79288 -1.2 -8.6346 -2.19986e+06 -3.69467e+06 -2.38435e+06 1.1155e+06 -183295 -998748
177 1 Mg -0.603205 28.5353 4.4844 1.2 -8.83954 -655453 2.37679e+06 3.24161e+06 -443498 -208091 -320239
178 2 Si -2.39877 31.2194 4.4844 2.4 -33.1808 1.20619e+07 8.51472e+06 8.75672e+06 39320.7 -346058 -288182
179 3 O -2.46483 29.6062 4.4844 -1.2 -9.31338 -4.25485e+06 -33409 -3.78282e+06 392575 9819.31 247132
180 3 O 1.22864 32.1935 4.4844 -1.2 -9.08267 -3.72668e+06 -2.55755e+06 -3.26687e+06 2.23585e+06 -494999 143724
181 3 O -1.66032 31.9256 3.18632 -1.2 -8.82487 -3.17065e+06 -3.32651e+06 -1.1035e+06 1.16205e+06 118614 -1.37025e+06
182 3 O -1.69072 31.9256 5.78248 -1.2 -8.84682 -3.28949e+06 -3.36107e+06 -1.76811e+06 1.18092e+06 76399.6 1.54544e+06
183 1 Mg 1.7499 30.8685 2.9896 1.2 -8.16235 4.82108e+06 -1.728e+06 -461771 -1.12653e+06 -1.32096e+06 -1.73673e+06
184 1 Mg 4.55894 30.8272 4.4844 1.2 -8.88054 -583964 2.42889e+06 3.31164e+06 1.21908e+06 -223886 -137292
185 2 Si 2.7476 32.892 4.4844 2.4 -33.2443 1.1682e+07 8.72974e+06 8.97262e+06 800188 56841.4 -67651.2
186 3 O 2.77235 34.5053 4.4844 -1.2 -9.25698 -4.11691e+06 -74721.1 -4.12738e+06 583953 -173518 -17506.7
187 3 O -3.87837 31.918 4.4844 -1.2 -9.12878 -3.80708e+06 -2.42063e+06 -3.1916e+06 -1.30925e+06 -245163 49283.1
188 3 O 3.44611 32.1859 3.18632 -1.2 -8.8385 -3.02515e+06 -3.51181e+06 -1.28612e+06 -882829 146457 1.3534e+06
189 1 Mg 1.7837 30.8685 0 1.2 -6.21034 4.72618e+06 2.28562e+06 -4.23035e+06 -1.34255e+06 -1.5049e+06 188533
190 3 O 3.41602 32.1859 5.78248 -1.2 -8.7927 -2.885e+06 -3.80917e+06 -1.93185e+06 -934576 -216894 -1.17078e+06
191 1 Mg -1.05984 30.9098 1.4948 1.2 -8.91249 -137587 2.23785e+06 4.79057e+06 1.90243e+06 -632928 -43372.2
192 2 Si 0.755243 28.8449 1.4948 2.4 -34.4187 1.00369e+07 9.88435e+06 1.12849e+07 1.15223e+06 1.64803e+06 1.97155e+06
193 3 O 0.735127 27.2317 1.4948 -1.2 -6.29041 -5.34067e+06 -436763 -2.13965e+07 1.16278e+06 -9.33634e+06 3.34271e+06
194 3 O 7.37914 29.819 1.4948 -1.2 -9.44724 -4.76065e+06 -706896 -1.51122e+06 -922977 -582008 1.24238e+06
195 3 O 0.0850649 29.5511 0.196716 -1.2 -5.20253 -3.49104e+06 -1.50317e+07 -1.50477e+07 2.7046e+06 -9.44374e+06 714589
196 3 O 0.0543974 29.5511 2.79288 -1.2 -8.68645 -2.25422e+06 -3.82069e+06 -2.31588e+06 -844314 -158505 1.20374e+06
197 1 Mg 6.94543 33.243 0 1.2 -6.29289 4.14873e+06 2.24035e+06 -3.6897e+06 1.58231e+06 -1.47137e+06 -761457
198 1 Mg 4.23267 37.9507 1.4948 1.2 -8.99712 -938810 2.54395e+06 4.63905e+06 -1.12503e+06 -234336 148133
199 2 Si 6.02709 35.2665 1.4948 2.4 -34.1575 1.11754e+07 8.76209e+06 1.10142e+07 -414963 1.50845e+06 -1.82049e+06
200 3 O 6.09339 36.8798 1.4948 -1.2 -7.89232 -6.74511e+06 -201313 -1.03621e+07 -140163 -6.5647e+06 -2.05615e+06
201 3 O 2.40018 34.2925 1.4948 -1.2 -9.37555 -4.52758e+06 -794792 -1.81498e+06 1.69384e+06 -552660 -903038
202 3 O 5.31645 34.5604 0.196716 -1.2 -6.05418 -4.27941e+06 -1.30346e+07 -9.80903e+06 -949503 -7.80817e+06 981165
203 1 Mg 6.91449 33.243 2.9896 1.2 -8.12061 4.8583e+06 -1.8273e+06 -436145 1.30116e+06 -1.46066e+06 1.87505e+06
204 3 O 5.291 34.5604 2.79288 -1.2 -8.6358 -2.28257e+06 -3.68135e+06 -2.35039e+06 1.12993e+06 -208304 -1.20646e+06
205 1 Mg -0.471101 33.2843 4.4844 1.2 -8.85262 -607347 2.3448e+06 3.2404e+06 -422777 -121601 -84912.8
206 2 Si -2.26307 35.9684 4.4844 2.4 -33.1341 1.20919e+07 8.57964e+06 8.58791e+06 132849 -347743 148519
207 3 O -2.33122 34.3552 4.4844 -1.2 -9.31441 -4.31212e+06 -15263.7 -3.74117e+06 404457 63486.8 32419.3
208 3 O 1.36549 36.9425 4.4844 -1.2 -9.09564 -3.68406e+06 -2.60386e+06 -3.23792e+06 2.29891e+06 -461173 -50514.4
209 3 O -1.52658 36.6746 3.18632 -1.2 -8.82449 -3.10588e+06 -3.39274e+06 -1.19841e+06 1.14661e+06 144256 -1.5871e+06
210 3 O -1.55122 36.6746 5.78248 -1.2 -8.90019 -3.2478e+06 -3.41017e+06 -1.53366e+06 1.16753e+06 29613.6 1.24721e+06
211 1 Mg 1.882 35.6175 2.9896 1.2 -8.15241 4.83106e+06 -1.69588e+06 -509637 -1.11947e+06 -1.39865e+06 -1.49252e+06
212 1 Mg 4.69415 35.5762 4.4844 1.2 -8.88444 -613858 2.40477e+06 3.37259e+06 1.21917e+06 -244098 42498.5
213 2 Si 2.88522 37.641 4.4844 2.4 -33.217 1.14822e+07 8.9252e+06 8.94091e+06 752562 -29889.7 195575
214 3 O 2.91159 39.2543 4.4844 -1.2 -9.28151 -4.02816e+06 -251230 -3.99721e+06 591890 -91344.4 -253539
215 3 O -3.74183 36.667 4.4844 -1.2 -9.16023 -3.84592e+06 -2.46214e+06 -3.06684e+06 -1.34209e+06 -161146 -124106
216 3 O 3.58014 36.9349 3.18632 -1.2 -8.83418 -2.92276e+06 -3.59495e+06 -1.41537e+06 -854061 218624 1.14302e+06
217 1 Mg 1.90997 35.6175 0 1.2 -6.32645 3.47833e+06 2.17258e+06 -3.66215e+06 -1.65721e+06 -742933 853469
218 3 O 3.55582 36.9349 5.78248 -1.2 -8.78286 -2.72705e+06 -3.81162e+06 -2.12885e+06 -871280 -51155.7 -1.14253e+06
219 1 Mg -0.93068 35.6588 1.4948 1.2 -8.9624 -467197 2.41308e+06 4.63288e+06 1.85933e+06 -311082 133680
220 2 Si 0.881882 33.5939 1.4948 2.4 -34.2631 1.08526e+07 9.1173e+06 1.1058e+07 1.41494e+06 1.7135e+06 2.19649e+06
221 3 O 0.859602 31.9807 1.4948 -1.2 -7.10482 -6.57494e+06 -243231 -1.54019e+07 1.15606e+06 -8.51075e+06 2.54464e+06
222 3 O 7.507 34.568 1.4948 -1.2 -9.42376 -4.69042e+06 -676339 -1.71651e+06 -933039 -388597 1.03206e+06
223 3 O 0.210186 34.3001 0.196716 -1.2 -6.08827 -4.43542e+06 -1.37491e+07 -9.73209e+06 1.53102e+06 -7.96806e+06 -673785
224 3 O 0.184454 34.3001 2.79288 -1.2 -8.69058 -2.35679e+06 -3.81033e+06 -2.2638e+06 -850759 -232687 944771
225 1 Mg 7.07415 37.992 0 1.2 -6.38688 2.94523e+06 2.12974e+06 -3.3743e+06 1.8727e+06 -439268 -1.12183e+06
226 1 Mg 4.36817 42.6997 1.4948 1.2 -9.0135 -1.10772e+06 2.50553e+06 4.49074e+06 -991020 111034 389836
227 2 Si 6.16058 40.0155 1.4948 2.4 -33.922 1.17147e+07 8.11065e+06 1.07564e+07 -371521 1.23442e+06 -1.10623e+06
228 3 O 6.22815 41.6288 1.4948 -1.2 -8.49615 -6.28009e+06 -73303.4 -7.07871e+06 29342.1 -4.4784e+06 -1.93387e+06
229 3 O 2.53282 39.0415 1.4948 -1.2 -9.35909 -4.38641e+06 -892454 -2.04476e+06 1.71725e+06 -376802 -1.1262e+06
230 3 O 5.44674 39.3094 0.196716 -1.2 -6.94808 -4.7053e+06 -1.06273e+07 -5.91809e+06 -146672 -5.74987e+06 1.62102e+06
231 1 Mg 7.04922 37.992 2.9896 1.2 -8.0883 4.86825e+06 -1.75205e+06 -562190 1.30173e+06 -1.54592e+06 2.08602e+06
232 3 O 5.42658 39.3094 2.79288 -1.2 -8.67384 -2.37303e+06 -3.71832e+06 -2.19227e+06 1.13501e+06 -229847 -1.44429e+06
233 1 Mg -0.333062 38.0333 4.4844 1.2 -8.83239 -673310 2.40213e+06 3.21274e+06 -426753 -52944.1 148102
234 2 Si -2.12255 40.7174 4.4844 2.4 -33.0866 1.20156e+07 8.81403e+06 8.35447e+06 81690.9 -294143 753525
235 3 O -2.19212 39.1042 4.4844 -1.2 -9.34423 -4.24932e+06 -100060 -3.67377e+06 429873 41603.5 -186150
236 3 O 1.50676 41.6915 4.4844 -1.2 -9.07784 -3.70524e+06 -2.61446e+06 -3.24511e+06 2.30929e+06 -402464 -451946
237 3 O -1.3884 41.4236 3.18632 -1.2 -8.80686 -3.04753e+06 -3.40738e+06 -1.37702e+06 1.1544e+06 143105 -1.88934e+06
238 3 O -1.40713 41.4236 5.78248 -1.2 -8.9688 -3.16946e+06 -3.62946e+06 -1.14285e+06 1.21779e+06 -19903.8 890471
239 1 Mg 2.01892 40.3665 2.9896 1.2 -8.14063 4.80665e+06 -1.63783e+06 -548969 -1.09203e+06 -1.50981e+06 -1.19894e+06
240 1 Mg 4.83434 40.3252 4.4844 1.2 -8.858 -620046 2.54571e+06 3.19579e+06 1.23567e+06 -220982 392874
241 2 Si 3.02698 42.39 4.4844 2.4 -33.3195 1.16013e+07 8.67109e+06 9.24233e+06 796987 -7403.72 1.01836e+06
242 3 O 3.05433 44.0033 4.4844 -1.2 -9.18286 -4.2303e+06 120016 -4.33061e+06 619684 -67446.7 -486844
243 3 O -3.60077 41.416 4.4844 -1.2 -9.16833 -3.87944e+06 -2.52283e+06 -2.96403e+06 -1.30787e+06 -73215.4 -549297
244 3 O 3.71851 41.6839 3.18632 -1.2 -8.80583 -2.87547e+06 -3.56611e+06 -1.64759e+06 -855389 238702 785414
245 1 Mg 2.04077 40.3665 0 1.2 -6.39498 2.44722e+06 1.92982e+06 -3.69968e+06 -1.83528e+06 455911 1.79843e+06
246 3 O 3.70011 41.6839 5.78248 -1.2 -8.74824 -2.73669e+06 -3.82923e+06 -2.12023e+06 -971288 -13224.9 -1.73433e+06
247 1 Mg -0.796865 40.4078 1.4948 1.2 -8.97128 -720016 2.52414e+06 4.39719e+06 1.74825e+06 52325.4 338470
248 2 Si 1.01387 38.3429 1.4948 2.4 -34.0229 1.14218e+07 8.49388e+06 1.07627e+07 1.53414e+06 1.54376e+06 2.35548e+06
249 3 O 0.989947 36.7297 1.4948 -1.2 -7.88698 -6.81694e+06 -187435 -1.04638e+07 1.03624e+06 -6.67646e+06 1.82699e+06
250 3 O 7.63988 39.317 1.4948 -1.2 -9.40971 -4.56155e+06 -780933 -1.93706e+06 -929693 -228137 838523
251 3 O 0.340253 39.0491 0.196716 -1.2 -6.95663 -4.78826e+06 -1.15433e+07 -5.85967e+06 384896 -5.88011e+06 -1.71413e+06
252 3 O 0.319795 39.0491 2.79288 -1.2 -8.72504 -2.41876e+06 -3.84097e+06 -2.15449e+06 -857669 -264392 681444
253 1 Mg 7.20667 42.741 0 1.2 -6.44489 2.10916e+06 1.79931e+06 -3.5786e+06 1.98927e+06 896187 -1.80183e+06
254 1 Mg 4.50613 47.4487 1.4948 1.2 -8.97972 -1.11218e+06 2.51961e+06 4.22379e+06 -854802 416055 343415
255 2 Si 6.29731 44.7645 1.4948 2.4 -33.7872 1.21153e+07 7.11311e+06 1.11143e+07 -218222 859765 -669854
256 3 O 6.36567 46.3778 1.4948 -1.2 -8.89907 -5.4855e+06 105571 -5.30591e+06 175110 -2.68163e+06 -1.67454e+06
257 3 O 2.669 43.7905 1.4948 -1.2 -9.29376 -4.29677e+06 -864601 -2.53713e+06 1.72291e+06 -226759 -1.30572e+06
258 3 O 5.58048 44.0584 0.196716 -1.2 -7.665 -4.61983e+06 -7.80508e+06 -3.71284e+06 314366 -3.70362e+06 2.04655e+06
259 1 Mg 7.1879 42.741 2.9896 1.2 -8.11182 4.89986e+06 -1.87982e+06 -415005 1.29182e+06 -1.6521e+06 2.40478e+06
260 3 O 5.56564 44.0584 2.79288 -1.2 -8.65181 -2.56339e+06 -3.40107e+06 -2.37806e+06 1.11634e+06 -246307 -1.6261e+06
261 1 Mg -0.19105 42.7823 4.4844 1.2 -8.87875 -598975 2.27752e+06 3.33381e+06 -465935 7340.87 603732
262 2 Si -1.97909 45.4664 4.4844 2.4 -33.3845 1.22138e+07 7.82466e+06 9.6286e+06 159312 -282650 839521
263 3 O -2.04947 43.8532 4.4844 -1.2 -9.24239 -4.3555e+06 227443 -4.05714e+06 433534 82121.2 -607014
264 3 O 1.65063 46.4405 4.4844 -1.2 -8.99136 -3.89484e+06 -2.28108e+06 -3.5378e+06 2.32037e+06 -226810 -249507
265 3 O -1.24745 46.1726 3.18632 -1.2 -8.7301 -3.03149e+06 -3.14164e+06 -1.88576e+06 1.13442e+06 121044 -1.78329e+06
266 3 O -1.26044 46.1726 5.78248 -1.2 -8.66744 -3.38476e+06 -2.93881e+06 -2.09834e+06 1.17951e+06 149742 1.12079e+06
267 1 Mg 2.15896 45.1155 2.9896 1.2 -8.19045 4.88884e+06 -1.90179e+06 -271638 -1.08858e+06 -1.64147e+06 -1.13662e+06
268 1 Mg 4.97763 45.0742 4.4844 1.2 -8.97184 -378175 2.07918e+06 3.60419e+06 1.27401e+06 -73865.6 411565
269 2 Si 3.1711 47.139 4.4844 2.4 -33.4091 1.18721e+07 8.24563e+06 9.53693e+06 742470 -49440.9 461170
270 3 O 3.19894 48.7523 4.4844 -1.2 -9.19796 -4.18819e+06 45680.8 -4.2819e+06 641064 -17112.6 -153606