ITEM: TIMESTEP
55400
ITEM: NUMBER OF ATOMS
10500
ITEM: BOX BOUNDS xy xz yz pp pp pp
0.0000000000000000e+00 1.5297749999999999e+01 5.0992499999999996e+00
0.0000000000000000e+00 1.1872499999999999e+02 0.0000000000000000e+00
0.0000000000000000e+00 8.9688000000000002e+01 0.0000000000000000e+00
ITEM: ATOMS id type element xu yu zu q c_pe c_s[1] c_s[2] c_s[3] c_s[4] c_s[5] c_s[6]
1 1 Mg 6.2404 -6.37941e-06 0 1.2 -4.42415 7.88579e+06 -2.03662e+06 -6.02263e+06 -9998.84 2.57428e+06 241892
2 1 Mg 3.46349 4.70768 1.4948 1.2 -8.46569 -301094 2.67818e+06 4.28254e+06 -943970 -616395 510563
3 2 Si 5.2885 2.02354 1.4948 2.4 -35.2171 9.95256e+06 1.07086e+07 1.15553e+07 8.84132e+06 740305 -2.15044e+06
4 3 O 5.33628 3.63678 1.4948 -1.2 -4.73694 -796656 -1.38726e+06 -3.37245e+07 -315202 3.80088e+06 -4.32081e+06
5 3 O 1.67294 1.04952 1.4948 -1.2 -1.07901 -2.03491e+07 -7.92168e+07 -2.19986e+06 -2.41314e+07 -122884 -587990
6 3 O 4.59532 1.31737 0.196716 -1.2 -3.05283 -1.97943e+06 -6.51266e+06 -3.05948e+07 -6.03999e+06 6.24562e+06 -3.13023e+06
7 1 Mg 6.18956 -6.37941e-06 2.9896 1.2 -4.9243 1.44025e+06 -2.83892e+07 -2.69668e+06 -8.85151e+06 2.54402e+06 4.48479e+06
8 3 O 4.55118 1.31737 2.79288 -1.2 -7.52176 121975 -4.53215e+06 -3.27614e+06 -2.94238e+06 -3.49932e+06 -1.57135e+06
9 1 Mg -1.20682 0.0413099 4.4844 1.2 8.90607 -3.09935e+07 -9.35849e+07 206892 -2.84808e+07 -1.43001e+06 548488
10 2 Si -3.0337 2.72544 4.4844 2.4 -33.2465 1.41399e+07 6.79758e+06 8.70747e+06 1.57593e+06 224809 -58259.9
11 3 O -3.08099 1.11221 4.4844 -1.2 -9.56076 -5.97547e+06 222625 -2.61709e+06 -1.19856e+06 -301411 -67796.8
12 3 O 0.582463 3.69946 4.4844 -1.2 -8.94477 -3.30478e+06 -5.35099e+06 -2.97953e+06 -637507 -23700.8 -468405
13 3 O -2.29524 3.43162 3.18632 -1.2 -9.03543 -4.14326e+06 -2.43861e+06 -775043 1.08423e+06 -825274 -1.31568e+06
14 3 O -2.34216 3.43162 5.78248 -1.2 -8.7341 -3.82868e+06 -3.19457e+06 -1.89181e+06 780300 533856 1.16183e+06
15 1 Mg 1.12778 2.37449 2.9896 1.2 -7.58747 5.22695e+06 -1.804e+06 -585954 -3.25891e+06 -4.2641e+06 -1.78489e+06
16 1 Mg 3.92855 2.33318 4.4844 1.2 -8.45933 -4.00521e+06 4.72281e+06 4.86453e+06 1.32432e+06 447845 875768
17 2 Si 2.09341 4.39804 4.4844 2.4 -32.4098 1.2313e+07 6.57624e+06 8.95982e+06 211861 -408729 1.33279e+06
18 3 O 2.09991 6.01128 4.4844 -1.2 -9.43834 -4.13494e+06 79586 -3.98645e+06 530314 -87681.9 -466102
19 3 O -4.52137 3.42402 4.4844 -1.2 -9.13235 -2.9109e+06 -2.79916e+06 -3.74619e+06 -2.35858e+06 -994495 -260779
20 3 O 2.80834 3.69187 3.18632 -1.2 -9.33462 -2.22197e+06 -2.70705e+06 -436503 470435 -489644 -923352
21 1 Mg 1.17857 2.37449 0 1.2 -5.10401 -625167 -1.49486e+07 -6.33126e+06 6.53142e+06 1.25072e+06 5.08491e+06
22 3 O 2.76143 3.69187 5.78248 -1.2 -9.36931 -3.12525e+06 -2.23826e+06 -1.01297e+06 584596 87444.4 -388864
23 1 Mg -1.67381 2.41581 1.4948 1.2 -7.57355 1.46981e+06 -338778 4.26979e+06 1.35653e+06 -609012 1.47551e+06
24 2 Si 0.16286 0.350945 1.4948 2.4 -24.5158 -8.29834e+06 1.20855e+07 1.17896e+07 1.58576e+06 2.75175e+06 2.1619e+06
25 3 O 0.15972 -1.26229 1.4948 -1.2 -4.78355 -1.06209e+07 -7.82071e+06 -2.91796e+07 -5.59286e+06 -8.47809e+06 -3.10148e+06
26 3 O 6.77654 1.32496 1.4948 -1.2 -10.3652 -5.65755e+06 1.92496e+06 -1.60378e+06 -635096 -646229 614297
27 3 O -0.508028 1.05712 0.196716 -1.2 -9.53388 183021 -4.50997e+06 -929777 -537583 196252 -5.02651e+06
28 3 O -0.552171 1.05712 2.79288 -1.2 -6.8108 -5.25043e+06 -4.42352e+06 -2.48964e+07 1.40435e+06 -6.68586e+06 -5.97788e+06
29 1 Mg 6.31713 4.74899 0 1.2 -4.90914 300494 -1.28954e+07 -6.09208e+06 -7.33479e+06 1.40146e+06 -3.14344e+06
30 1 Mg 3.54847 9.45668 1.4948 1.2 -8.35886 303830 1.74205e+06 4.42124e+06 -958343 -919532 -163571
31 2 Si 5.36879 6.77254 1.4948 2.4 -34.3052 7.32842e+06 1.21458e+07 1.14368e+07 1.61833e+06 173700 -1.27857e+06
32 3 O 5.41937 8.38578 1.4948 -1.2 -4.74261 -360130 -982609 -3.51614e+07 789288 1.09691e+06 -4.45922e+06
33 3 O 1.75158 5.79852 1.4948 -1.2 -9.50445 -4.01438e+06 -2.37913e+06 -1.39155e+06 1.9541e+06 -1.58444e+06 -1.73822e+06
34 3 O 4.67421 6.06637 0.196716 -1.2 -3.80617 175554 -1.01878e+07 -3.13696e+07 -1.984e+06 1.30399e+06 -4.82366e+06
35 1 Mg 6.26654 4.74899 2.9896 1.2 -8.05384 4.12269e+06 -1.69551e+06 46764.6 1.78009e+06 -799522 2.29452e+06
36 3 O 4.63043 6.06637 2.79288 -1.2 -8.82428 -1.69099e+06 -3.96391e+06 -2.16514e+06 962633 -137976 -1.81278e+06
37 1 Mg -1.12976 4.79031 4.4844 1.2 -8.8591 -605289 2.74714e+06 2.92032e+06 -649359 -468184 198755
38 2 Si -2.9517 7.47444 4.4844 2.4 -33.0627 1.15476e+07 8.82474e+06 8.75985e+06 -5554.35 51666.2 389924
39 3 O -3.00198 5.86121 4.4844 -1.2 -9.36002 -4.0477e+06 -155259 -3.81239e+06 62628.2 -269483 -241247
40 3 O 0.666315 8.44846 4.4844 -1.2 -9.15694 -3.53276e+06 -2.5613e+06 -3.31345e+06 2.06504e+06 -459020 -130219
41 3 O -2.21213 8.18062 3.18632 -1.2 -9.02214 -3.04055e+06 -3.36559e+06 -678633 1.11415e+06 -306413 -1.64091e+06
42 3 O -2.25864 8.18062 5.78248 -1.2 -8.80448 -3.16774e+06 -3.59829e+06 -1.87318e+06 1.08041e+06 -76506.1 1.21584e+06
43 1 Mg 1.20893 7.12349 2.9896 1.2 -8.04403 4.20266e+06 -1.63268e+06 -132576 -1.25705e+06 -1.36139e+06 -1.37674e+06
44 1 Mg 4.00982 7.08218 4.4844 1.2 -8.74016 -636862 2.48938e+06 3.07015e+06 986180 -254270 404810
45 2 Si 2.17861 9.14704 4.4844 2.4 -33.07 1.15338e+07 8.83848e+06 8.73539e+06 724921 -79182.2 443296
46 3 O 2.18828 10.7603 4.4844 -1.2 -9.31803 -4.08939e+06 -140136 -3.97756e+06 366376 -259167 -95121.5
47 3 O -4.43805 8.17302 4.4844 -1.2 -9.1994 -3.5366e+06 -2.5887e+06 -3.1736e+06 -1.46296e+06 -538123 -261011
48 3 O 2.89193 8.44087 3.18632 -1.2 -9.03896 -2.91061e+06 -3.55723e+06 -746255 -938081 -220534 1.0347e+06
49 1 Mg 1.25915 7.12349 0 1.2 -5.2761 913989 -7.49359e+06 -6.41344e+06 5.9215e+06 1.37468e+06 2.91111e+06
50 3 O 2.84547 8.44087 5.78248 -1.2 -8.87318 -3.11394e+06 -3.77991e+06 -1.67707e+06 -959601 -50247.6 -1.42573e+06
51 1 Mg -1.59284 7.16481 1.4948 1.2 -8.25946 817434 1.39971e+06 4.28973e+06 1.46521e+06 -919116 636405
52 2 Si 0.240329 5.09994 1.4948 2.4 -34.0549 8.26559e+06 1.09184e+07 1.13266e+07 -1.9162e+06 -1.08677e+06 2.78799e+06
53 3 O 0.234538 3.48671 1.4948 -1.2 -5.23548 -1.75055e+06 481056 -3.38768e+07 381774 5.19975e+06 3.49389e+06
54 3 O 6.85564 6.07396 1.4948 -1.2 -9.57767 -4.39425e+06 -1.84614e+06 -1.38839e+06 -1.32862e+06 -1.84039e+06 797367
55 3 O -0.429565 5.80612 0.196716 -1.2 -4.05111 -603123 -8.82992e+06 -3.15129e+07 1.82616e+06 1.18684e+06 4.14361e+06
56 3 O -0.473377 5.80612 2.79288 -1.2 -8.90523 -2.16689e+06 -3.5311e+06 -2.09229e+06 -808034 336489 956361
57 1 Mg 6.40169 9.49799 0 1.2 -5.25139 1.53341e+06 -6.40179e+06 -6.65318e+06 -5.5071e+06 1.00502e+06 -2.33834e+06
58 1 Mg 3.64209 14.2057 1.4948 1.2 -8.48101 265912 1.70082e+06 4.65516e+06 -1.03044e+06 -962322 -394610
59 2 Si 5.45748 11.5215 1.4948 2.4 -34.3643 7.70343e+06 1.15873e+07 1.16912e+07 866094 308560 -2.1162e+06
60 3 O 5.51101 13.1348 1.4948 -1.2 -4.72817 -606165 -780454 -3.49606e+07 471198 -2.50952e+06 -4.28459e+06
61 3 O 1.83851 10.5475 1.4948 -1.2 -9.53632 -4.2661e+06 -1.83959e+06 -1.35634e+06 1.5204e+06 -1.59301e+06 -1.16296e+06
62 3 O 4.7611 10.8154 0.196716 -1.2 -3.62348 581965 -1.14302e+07 -3.20489e+07 -2.4621e+06 -1.77142e+06 -4.32655e+06
63 1 Mg 6.35203 9.49799 2.9896 1.2 -8.04544 4.23174e+06 -1.63607e+06 -137438 1.26944e+06 -1.19301e+06 2.12979e+06
64 3 O 4.71833 10.8154 2.79288 -1.2 -8.78844 -1.93352e+06 -3.73146e+06 -2.22179e+06 1.07389e+06 50649.7 -1.39238e+06
65 1 Mg -1.0438 9.53931 4.4844 1.2 -8.79547 -628513 2.40979e+06 3.14245e+06 -546131 -289793 3414.77
66 2 Si -2.8604 12.2234 4.4844 2.4 -33.0839 1.20009e+07 8.73754e+06 8.41973e+06 -151144 -302915 -119815
67 3 O -2.91391 10.6102 4.4844 -1.2 -9.35205 -4.1886e+06 -98415 -3.75848e+06 303890 -127179 -19141.3
68 3 O 0.7596 13.1975 4.4844 -1.2 -9.10051 -3.62998e+06 -2.58279e+06 -3.28902e+06 2.13422e+06 -632981 95841.9
69 3 O -2.12001 12.9296 3.18632 -1.2 -8.97685 -3.1537e+06 -3.37097e+06 -642661 1.16552e+06 -194203 -1.44312e+06
70 3 O -2.16532 12.9296 5.78248 -1.2 -8.90486 -3.51173e+06 -3.57976e+06 -1.21282e+06 1.10263e+06 -87000.4 1.47022e+06
71 1 Mg 1.29891 11.8725 2.9896 1.2 -8.0961 4.3195e+06 -1.62308e+06 -178787 -1.14775e+06 -1.15614e+06 -1.6899e+06
72 1 Mg 4.10033 11.8312 4.4844 1.2 -8.85426 -617912 2.45809e+06 3.26871e+06 1.10855e+06 -335814 135829
73 2 Si 2.27333 13.896 4.4844 2.4 -33.2612 1.1705e+07 8.72048e+06 8.99065e+06 664303 177281 -205404
74 3 O 2.28634 15.5093 4.4844 -1.2 -9.24245 -4.23548e+06 -86501.5 -4.00889e+06 486308 -269021 291032
75 3 O -4.34533 12.922 4.4844 -1.2 -9.13392 -3.65818e+06 -2.51008e+06 -3.2382e+06 -1.42812e+06 -280366 -23797.3
76 3 O 2.98455 13.1899 3.18632 -1.2 -8.96169 -2.98164e+06 -3.47354e+06 -902365 -966485 -195614 1.35942e+06
77 1 Mg 1.34779 11.8725 0 1.2 -5.52791 2.80591e+06 -2.91028e+06 -6.5868e+06 3.57014e+06 803546 1.57905e+06
78 3 O 2.93934 13.1899 5.78248 -1.2 -8.67531 -3.10517e+06 -3.75142e+06 -2.18236e+06 -937208 -324896 -1.11383e+06
79 1 Mg -1.50344 11.9138 1.4948 1.2 -8.38556 626869 1.64885e+06 4.41694e+06 1.56131e+06 -948932 389133
80 2 Si 0.326006 9.84894 1.4948 2.4 -34.2909 7.72296e+06 1.1707e+07 1.14067e+07 -564966 118368 2.48625e+06
81 3 O 0.317364 8.23571 1.4948 -1.2 -4.74609 -483370 -840590 -3.53042e+07 -146550 1.18409e+06 3.96163e+06
82 3 O 6.94307 10.823 1.4948 -1.2 -9.57541 -4.4412e+06 -1.65565e+06 -1.26175e+06 -966715 -1.51487e+06 1.01011e+06
83 3 O -0.343122 10.5551 0.196716 -1.2 -3.72718 273480 -1.0906e+07 -3.20634e+07 2.45496e+06 -2.0385e+06 4.4601e+06
84 3 O -0.385966 10.5551 2.79288 -1.2 -8.83614 -2.03182e+06 -3.77428e+06 -2.15053e+06 -882951 71581.1 1.07853e+06
85 1 Mg 6.49448 14.247 0 1.2 -5.5228 3.35058e+06 -2.13593e+06 -6.72913e+06 -2.96145e+06 242538 -1.58858e+06
86 1 Mg 3.74457 18.9547 1.4948 1.2 -8.60863 177281 1.88854e+06 4.68336e+06 -1.11414e+06 -961214 -563970
87 2 Si 5.55495 16.2705 1.4948 2.4 -34.4578 8.14297e+06 1.12695e+07 1.1738e+07 555268 741910 -2.64681e+06
88 3 O 5.6115 17.8838 1.4948 -1.2 -4.99048 -1.716e+06 -729313 -3.22504e+07 61260 -6.03573e+06 -3.88564e+06
89 3 O 1.93416 15.2965 1.4948 -1.2 -9.51347 -4.42868e+06 -1.46713e+06 -1.35291e+06 1.54169e+06 -1.40792e+06 -889180
90 3 O 4.85636 15.5644 0.196716 -1.2 -3.58256 493871 -1.30895e+07 -3.05333e+07 -3.0415e+06 -5.12724e+06 -3.62268e+06
91 1 Mg 6.44662 14.247 2.9896 1.2 -8.09048 4.42546e+06 -1.71859e+06 -177450 1.29479e+06 -1.28363e+06 1.89908e+06
92 3 O 4.81537 15.5644 2.79288 -1.2 -8.7103 -2.00346e+06 -3.71085e+06 -2.32762e+06 1.04932e+06 14888.4 -1.09218e+06
93 1 Mg -0.948271 14.2883 4.4844 1.2 -8.82762 -506537 2.38046e+06 3.09175e+06 -575444 -200139 -126575
94 2 Si -2.75928 16.9724 4.4844 2.4 -33.2384 1.21622e+07 8.68113e+06 8.56923e+06 33596.3 -269058 -549407
95 3 O -2.81617 15.3592 4.4844 -1.2 -9.2985 -4.36018e+06 -23765.1 -3.74079e+06 257065 -47607.9 139341
96 3 O 0.862762 17.9465 4.4844 -1.2 -9.05058 -3.74353e+06 -2.67787e+06 -3.16702e+06 2.22121e+06 -510207 394194
97 3 O -2.0185 17.6786 3.18632 -1.2 -8.90066 -3.19581e+06 -3.39938e+06 -711100 1.15906e+06 -114764 -1.23907e+06
98 3 O -2.06164 17.6786 5.78248 -1.2 -8.76705 -3.44913e+06 -3.57725e+06 -1.57917e+06 1.11774e+06 -80448.9 1.74846e+06
99 1 Mg 1.39817 16.6215 2.9896 1.2 -8.14292 4.51543e+06 -1.63259e+06 -292304 -1.19076e+06 -1.17203e+06 -1.92252e+06
100 1 Mg 4.20062 16.5802 4.4844 1.2 -8.91918 -513247 2.49222e+06 3.23623e+06 1.18541e+06 -261732 -288792
101 2 Si 2.37796 18.645 4.4844 2.4 -33.3043 1.20437e+07 8.95796e+06 8.47934e+06 636630 61439 -680573
102 3 O 2.39434 20.2583 4.4844 -1.2 -9.21112 -4.39639e+06 -154371 -3.83868e+06 547465 -198911 406404
103 3 O -4.24274 17.671 4.4844 -1.2 -9.07488 -3.76349e+06 -2.56402e+06 -3.17123e+06 -1.48126e+06 -371293 283544
104 3 O 3.08659 17.9389 3.18632 -1.2 -8.90933 -3.10948e+06 -3.54593e+06 -827162 -935771 -112137 1.61883e+06
105 1 Mg 1.44478 16.6215 0 1.2 -5.69481 4.55914e+06 84839.8 -6.62514e+06 1.387e+06 -41671.6 731951
106 3 O 3.0436 17.9389 5.78248 -1.2 -8.72014 -3.27202e+06 -3.95368e+06 -1.65292e+06 -890665 -345715 -820682
107 1 Mg -1.40524 16.6628 1.4948 1.2 -8.5185 528762 1.78808e+06 4.54124e+06 1.68487e+06 -977364 170192
108 2 Si 0.420358 14.5979 1.4948 2.4 -34.4105 8.02234e+06 1.14098e+07 1.15804e+07 -147937 622176 2.25664e+06
109 3 O 0.408732 12.9847 1.4948 -1.2 -4.7237 -659757 -768080 -3.5061e+07 221044 -2.58885e+06 4.30783e+06
110 3 O 7.03923 15.572 1.4948 -1.2 -9.55449 -4.59439e+06 -1.31886e+06 -1.23739e+06 -952950 -1.27235e+06 1.16455e+06
111 3 O -0.248332 15.3041 0.196716 -1.2 -3.69114 144867 -1.26101e+07 -3.05429e+07 3.26208e+06 -5.41596e+06 4.10894e+06
112 3 O -0.289436 15.3041 2.79288 -1.2 -8.76813 -2.09989e+06 -3.79e+06 -2.2191e+06 -836150 729.866 1.24529e+06
113 1 Mg 6.59566 18.996 0 1.2 -5.70497 4.8188e+06 533278 -6.53149e+06 -902923 -686991 -1.19294e+06
114 1 Mg 3.85574 23.7037 1.4948 1.2 -8.72932 16364.2 2.10046e+06 4.68586e+06 -1.19106e+06 -902760 -650947
115 2 Si 5.66125 21.0195 1.4948 2.4 -34.4878 8.7901e+06 1.08897e+07 1.15804e+07 219448 1.21901e+06 -3.06507e+06
116 3 O 5.72074 22.6328 1.4948 -1.2 -5.54327 -3.49054e+06 -628781 -2.73502e+07 -232269 -8.52179e+06 -3.2702e+06
117 3 O 2.03867 20.0455 1.4948 -1.2 -9.48856 -4.55566e+06 -1.24198e+06 -1.28858e+06 1.58663e+06 -1.1636e+06 -644172
118 3 O 4.96004 20.3134 0.196716 -1.2 -3.8501 -339272 -1.45239e+07 -2.66509e+07 -3.19413e+06 -7.93643e+06 -2.41927e+06
119 1 Mg 6.55057 18.996 2.9896 1.2 -8.13662 4.57996e+06 -1.67433e+06 -301684 1.33105e+06 -1.24334e+06 1.67244e+06
120 3 O 4.92172 20.3134 2.79288 -1.2 -8.65374 -2.12533e+06 -3.78e+06 -2.26525e+06 1.05697e+06 -88193.4 -885705
121 1 Mg -0.84282 19.0373 4.4844 1.2 -8.91151 -537347 2.51308e+06 3.11791e+06 -545603 -273790 -356027
122 2 Si -2.64823 21.7214 4.4844 2.4 -33.4275 1.21714e+07 8.86865e+06 8.67918e+06 96963.9 -190121 -735460
123 3 O -2.70847 20.1082 4.4844 -1.2 -9.21809 -4.34622e+06 -181159 -3.71236e+06 282535 -88183.5 323545
124 3 O 0.97581 22.6955 4.4844 -1.2 -8.97763 -3.84164e+06 -2.67272e+06 -3.19269e+06 2.29153e+06 -394736 530302
125 3 O -1.9076 22.4276 3.18632 -1.2 -8.81761 -3.1878e+06 -3.45181e+06 -835397 1.15086e+06 -45151 -1.09385e+06
126 3 O -1.9475 22.4276 5.78248 -1.2 -8.58519 -3.4953e+06 -3.69827e+06 -1.6732e+06 1.11881e+06 49698.5 1.7432e+06
127 1 Mg 1.50678 21.3705 2.9896 1.2 -8.18285 4.70974e+06 -1.61506e+06 -440172 -1.19883e+06 -1.25879e+06 -2.04078e+06
128 1 Mg 4.31086 21.3292 4.4844 1.2 -8.94826 -305492 2.47054e+06 3.09703e+06 1.21414e+06 -211987 -422510
129 2 Si 2.49243 23.394 4.4844 2.4 -33.3504 1.24024e+07 8.89067e+06 8.2579e+06 614639 -213157 -1.17161e+06
130 3 O 2.51204 25.0073 4.4844 -1.2 -9.23641 -4.50545e+06 -327673 -3.51605e+06 551790 -46121.8 652720
131 3 O -4.13026 22.42 4.4844 -1.2 -9.01295 -3.88948e+06 -2.54568e+06 -3.17008e+06 -1.47993e+06 -493398 415092
132 3 O 3.19799 22.6879 3.18632 -1.2 -8.86665 -3.24849e+06 -3.56329e+06 -798919 -906880 5413.73 1.79048e+06
133 1 Mg 1.5501 21.3705 0 1.2 -5.81779 5.55184e+06 1.62463e+06 -6.18254e+06 -80325 -962738 87222.1
134 3 O 3.1583 22.6879 5.78248 -1.2 -8.70817 -3.58306e+06 -3.70371e+06 -1.50336e+06 -853627 -177187 -555756
135 1 Mg -1.29822 21.4118 1.4948 1.2 -8.66229 340380 1.97845e+06 4.66518e+06 1.80572e+06 -953887 -74425.9
136 2 Si 0.523568 19.3469 1.4948 2.4 -34.4765 8.52174e+06 1.11602e+07 1.14645e+07 272795 1.01225e+06 1.97519e+06
137 3 O 0.508934 17.7337 1.4948 -1.2 -4.98614 -1.7695e+06 -717844 -3.23503e+07 684887 -6.09936e+06 4.3185e+06
138 3 O 7.14425 20.321 1.4948 -1.2 -9.52373 -4.6773e+06 -1.09861e+06 -1.23299e+06 -953009 -1.05758e+06 1.34433e+06
139 3 O -0.145107 20.0531 0.196716 -1.2 -3.9562 -698124 -1.42018e+07 -2.6648e+07 3.69039e+06 -8.20371e+06 3.39011e+06
140 3 O -0.183601 20.0531 2.79288 -1.2 -8.69828 -2.14683e+06 -3.89451e+06 -2.22684e+06 -821345 -9956.89 1.38378e+06
141 1 Mg 6.70502 23.745 0 1.2 -5.85795 5.41605e+06 1.82239e+06 -5.78897e+06 418912 -1.5035e+06 -971348
142 1 Mg 3.97493 28.4527 1.4948 1.2 -8.8274 -291440 2.4196e+06 4.59908e+06 -1.22849e+06 -770443 -431830
143 2 Si 5.77602 25.7685 1.4948 2.4 -34.4038 9.54171e+06 1.05184e+07 1.11531e+07 -120479 1.59626e+06 -3.14435e+06
144 3 O 5.83821 27.3818 1.4948 -1.2 -6.327 -5.26725e+06 -623925 -2.1087e+07 -330015 -9.31452e+06 -2.7049e+06
145 3 O 2.15175 24.7945 1.4948 -1.2 -9.47088 -4.59971e+06 -1.11053e+06 -1.27028e+06 1.62227e+06 -910448 -487999
146 3 O 5.07184 25.0624 0.196716 -1.2 -4.43591 -1.69974e+06 -1.52188e+07 -2.10366e+07 -2.78101e+06 -9.43774e+06 -1.05538e+06
147 1 Mg 6.66374 23.745 2.9896 1.2 -8.167 4.70677e+06 -1.63881e+06 -412435 1.34092e+06 -1.20053e+06 1.47988e+06
148 3 O 5.03707 25.0624 2.79288 -1.2 -8.63777 -2.22596e+06 -3.91816e+06 -2.09239e+06 1.09147e+06 -209642 -728642
149 1 Mg -0.727559 23.7863 4.4844 1.2 -9.00792 -583803 2.571e+06 3.25471e+06 -514141 -299491 -529922
150 2 Si -2.5277 26.4704 4.4844 2.4 -33.4117 1.19462e+07 9.46902e+06 8.28876e+06 30831.8 -22598.8 -1.05188e+06
151 3 O -2.59107 24.8572 4.4844 -1.2 -9.16463 -4.2752e+06 -332192 -3.70427e+06 314924 -155888 588696
152 3 O 1.09817 27.4445 4.4844 -1.2 -9.01841 -3.79557e+06 -3.03939e+06 -2.80137e+06 2.16917e+06 -295790 463608
153 3 O -1.78784 27.1766 3.18632 -1.2 -8.8043 -3.11054e+06 -3.69529e+06 -744801 1.15968e+06 16859.2 -1.05024e+06
154 3 O -1.82343 27.1766 5.78248 -1.2 -8.62373 -3.13949e+06 -4.11554e+06 -1.62484e+06 1.15479e+06 -7809.77 1.87821e+06
155 1 Mg 1.62435 26.1195 2.9896 1.2 -8.17416 4.80812e+06 -1.42581e+06 -738657 -1.14698e+06 -1.37536e+06 -2.0756e+06
156 1 Mg 4.43064 26.0782 4.4844 1.2 -8.88918 -263705 2.77864e+06 2.65276e+06 1.18294e+06 -124413 -499058
157 2 Si 2.61607 28.143 4.4844 2.4 -33.2878 1.22392e+07 9.54267e+06 7.67334e+06 808032 -207286 -597194
158 3 O 2.63853 29.7563 4.4844 -1.2 -9.20815 -4.39686e+06 -468334 -3.53159e+06 527852 -82020.3 287293
159 3 O -4.00841 27.169 4.4844 -1.2 -9.07119 -3.87547e+06 -2.87965e+06 -2.74495e+06 -1.31111e+06 -530199 417388
160 3 O 3.3182 27.4369 3.18632 -1.2 -8.86768 -3.21669e+06 -3.83096e+06 -635361 -897093 102700 1.66213e+06
161 1 Mg 1.66335 26.1195 0 1.2 -5.94146 5.45738e+06 2.2702e+06 -5.31626e+06 -895211 -1.57462e+06 -133043
162 3 O 3.28288 27.4369 5.78248 -1.2 -8.83487 -3.37266e+06 -4.22068e+06 -1.03891e+06 -869964 -198378 -955269
163 1 Mg -1.18278 26.1608 1.4948 1.2 -8.77679 47453.9 2.26886e+06 4.65894e+06 1.89105e+06 -853099 -219241
164 2 Si 0.635424 24.0959 1.4948 2.4 -34.4618 9.15694e+06 1.07528e+07 1.12807e+07 730974 1.3154e+06 1.69957e+06
165 3 O 0.617906 22.4827 1.4948 -1.2 -5.53526 -3.53001e+06 -619298 -2.74676e+07 1.02736e+06 -8.52567e+06 4.04288e+06
166 3 O 7.25781 25.07 1.4948 -1.2 -9.50404 -4.68778e+06 -983956 -1.24877e+06 -940646 -849112 1.45237e+06
167 3 O -0.0337363 24.8021 0.196716 -1.2 -4.52056 -1.99329e+06 -1.51776e+07 -2.10605e+07 3.49972e+06 -9.62767e+06 2.23807e+06
168 3 O -0.0687235 24.8021 2.79288 -1.2 -8.6586 -2.1596e+06 -4.02473e+06 -2.19751e+06 -828715 -18032.6 1.50169e+06
169 1 Mg 6.82195 28.494 0 1.2 -6.00724 5.00922e+06 2.35157e+06 -4.79261e+06 1.15342e+06 -1.84208e+06 -780763
170 1 Mg 4.10106 33.2017 1.4948 1.2 -8.93126 -610012 2.70144e+06 4.46174e+06 -1.19822e+06 -553296 -171775
171 2 Si 5.89839 30.5175 1.4948 2.4 -34.2572 1.03283e+07 1.00662e+07 1.0667e+07 -340955 1.66814e+06 -2.57636e+06
172 3 O 5.96289 32.1308 1.4948 -1.2 -7.15602 -6.44075e+06 -602823 -1.49515e+07 -290197 -8.43985e+06 -2.29827e+06
173 3 O 2.27266 29.5435 1.4948 -1.2 -9.45329 -4.55053e+06 -1.10432e+06 -1.30581e+06 1.65038e+06 -711132 -655038
174 3 O 5.19102 29.8114 0.196716 -1.2 -5.25627 -3.09531e+06 -1.48382e+07 -1.49049e+07 -1.93952e+06 -9.27659e+06 77590.3
175 1 Mg 6.78546 28.494 2.9896 1.2 -8.14173 4.78244e+06 -1.4387e+06 -723206 1.28742e+06 -1.26947e+06 1.58173e+06
176 3 O 5.16061 29.8114 2.79288 -1.2 -8.63258 -2.26993e+06 -4.05972e+06 -1.95387e+06 1.12885e+06 -224685 -939501
177 1 Mg -0.603205 28.5353 4.4844 1.2 -8.96754 -669080 2.87048e+06 2.96799e+06 -413289 -261982 -440443
178 2 Si -2.39877 31.2194 4.4844 2.4 -33.3493 1.21534e+07 9.6629e+06 7.78333e+06 11537.6 -243944 -623137
179 3 O -2.46483 29.6062 4.4844 -1.2 -9.21468 -4.29247e+06 -530417 -3.40069e+06 427655 -86996.7 385631
180 3 O 1.22864 32.1935 4.4844 -1.2 -8.98461 -3.83566e+06 -3.13778e+06 -2.73594e+06 2.27158e+06 -397337 309028
181 3 O -1.66032 31.9256 3.18632 -1.2 -8.78352 -3.15133e+06 -3.8335e+06 -682767 1.16126e+06 91986.5 -1.27577e+06
182 3 O -1.69072 31.9256 5.78248 -1.2 -8.74398 -3.35218e+06 -4.1511e+06 -925950 1.18652e+06 31385.1 1.76284e+06
183 1 Mg 1.7499 30.8685 2.9896 1.2 -8.18336 4.86515e+06 -1.31511e+06 -885045 -1.12107e+06 -1.38325e+06 -1.82202e+06
184 1 Mg 4.55894 30.8272 4.4844 1.2 -8.93622 -323598 2.81112e+06 2.75736e+06 1.21286e+06 -184242 -246071
185 2 Si 2.7476 32.892 4.4844 2.4 -33.4015 1.21991e+07 9.80044e+06 7.63707e+06 717716 -164968 -504363
186 3 O 2.77235 34.5053 4.4844 -1.2 -9.15502 -4.45434e+06 -652405 -3.38136e+06 605131 -15549.5 149457
187 3 O -3.87837 31.918 4.4844 -1.2 -9.057 -3.92437e+06 -2.94064e+06 -2.6741e+06 -1.33564e+06 -329523 209097
188 3 O 3.44611 32.1859 3.18632 -1.2 -8.81384 -3.16278e+06 -3.94691e+06 -754410 -879919 177098 1.47658e+06
189 1 Mg 1.7837 30.8685 0 1.2 -6.08048 4.5329e+06 2.47241e+06 -4.43195e+06 -1.34834e+06 -1.50963e+06 198469
190 3 O 3.41602 32.1859 5.78248 -1.2 -8.69905 -3.3455e+06 -4.2239e+06 -1.24272e+06 -901876 -135629 -762164
191 1 Mg -1.05984 30.9098 1.4948 1.2 -8.868 -257667 2.56987e+06 4.50735e+06 1.90453e+06 -627475 -88081.2
192 2 Si 0.755243 28.8449 1.4948 2.4 -34.3373 9.8809e+06 1.03778e+07 1.08171e+07 1.15689e+06 1.57605e+06 1.8706e+06
193 3 O 0.735127 27.2317 1.4948 -1.2 -6.31559 -5.29568e+06 -611960 -2.12256e+07 1.16667e+06 -9.29385e+06 3.41751e+06
194 3 O 7.37914 29.819 1.4948 -1.2 -9.49298 -4.6586e+06 -997579 -1.24932e+06 -925123 -615429 1.28726e+06
195 3 O 0.0850649 29.5511 0.196716 -1.2 -5.31364 -3.29881e+06 -1.51872e+07 -1.49067e+07 2.70413e+06 -9.44054e+06 726637
196 3 O 0.0543974 29.5511 2.79288 -1.2 -8.66369 -2.22225e+06 -4.20606e+06 -1.99754e+06 -859330 -117753 1.28942e+06
197 1 Mg 6.94543 33.243 0 1.2 -6.17565 3.93658e+06 2.50602e+06 -3.93107e+06 1.57609e+06 -1.46078e+06 -794535
198 1 Mg 4.23267 37.9507 1.4948 1.2 -9.06315 -789700 2.7784e+06 4.3613e+06 -1.13285e+06 -258175 -50376.2
199 2 Si 6.02709 35.2665 1.4948 2.4 -34.1601 1.11863e+07 9.44386e+06 1.03257e+07 -413185 1.58325e+06 -2.01799e+06
200 3 O 6.09339 36.8798 1.4948 -1.2 -7.85018 -6.81054e+06 -483511 -1.00814e+07 -132553 -6.59882e+06 -1.90241e+06
201 3 O 2.40018 34.2925 1.4948 -1.2 -9.39649 -4.53315e+06 -1.15595e+06 -1.41474e+06 1.69145e+06 -509885 -833550
202 3 O 5.31645 34.5604 0.196716 -1.2 -6.14173 -4.14136e+06 -1.33032e+07 -9.53821e+06 -958330 -7.80206e+06 1.05102e+06
203 1 Mg 6.91449 33.243 2.9896 1.2 -8.15941 4.89378e+06 -1.34652e+06 -890264 1.31951e+06 -1.38816e+06 1.78745e+06
204 3 O 5.291 34.5604 2.79288 -1.2 -8.59205 -2.42507e+06 -4.12308e+06 -1.83668e+06 1.11966e+06 -270707 -1.09978e+06
205 1 Mg -0.471101 33.2843 4.4844 1.2 -8.97978 -579101 2.99305e+06 2.76795e+06 -460172 -160829 -159848
206 2 Si -2.26307 35.9684 4.4844 2.4 -33.5656 1.23316e+07 9.5453e+06 8.08173e+06 124300 -121347 -119373
207 3 O -2.33122 34.3552 4.4844 -1.2 -9.16653 -4.36792e+06 -597082 -3.33555e+06 374131 -37202.6 90639.8
208 3 O 1.36549 36.9425 4.4844 -1.2 -8.87288 -4.03243e+06 -3.10443e+06 -2.74772e+06 2.24146e+06 -287215 75213.1
209 3 O -1.52658 36.6746 3.18632 -1.2 -8.67214 -3.22773e+06 -3.78258e+06 -926511 1.14309e+06 116939 -1.42732e+06
210 3 O -1.55122 36.6746 5.78248 -1.2 -8.51436 -3.34993e+06 -3.95728e+06 -1.59212e+06 1.13225e+06 119468 1.55444e+06
211 1 Mg 1.882 35.6175 2.9896 1.2 -8.24203 5.00669e+06 -1.25459e+06 -982938 -1.11525e+06 -1.4988e+06 -1.60135e+06
212 1 Mg 4.69415 35.5762 4.4844 1.2 -8.99767 -164361 2.93081e+06 2.57737e+06 1.21187e+06 -121328 -63866.6
213 2 Si 2.88522 37.641 4.4844 2.4 -33.6689 1.24907e+07 9.71209e+06 7.86891e+06 801559 -213625 64058.7
214 3 O 2.91159 39.2543 4.4844 -1.2 -8.96666 -4.59073e+06 -435300 -3.75502e+06 605428 -6787.21 -62748
215 3 O -3.74183 36.667 4.4844 -1.2 -8.95936 -4.16952e+06 -2.89183e+06 -2.62339e+06 -1.28477e+06 -381738 28999.3
216 3 O 3.58014 36.9349 3.18632 -1.2 -8.70654 -3.24456e+06 -3.96397e+06 -929292 -851445 254060 1.25632e+06
217 1 Mg 1.90997 35.6175 0 1.2 -6.24163 3.39428e+06 2.41773e+06 -3.95917e+06 -1.64849e+06 -774069 785904
218 3 O 3.55582 36.9349 5.78248 -1.2 -8.59138 -3.43373e+06 -4.31243e+06 -1.23062e+06 -913831 -552.626 -1.19307e+06
219 1 Mg -0.93068 35.6588 1.4948 1.2 -8.98006 -492063 2.75065e+06 4.34841e+06 1.8549e+06 -296102 32810.1
220 2 Si 0.881882 33.5939 1.4948 2.4 -34.2099 1.07434e+07 9.85549e+06 1.03437e+07 1.40297e+06 1.65383e+06 2.09356e+06
221 3 O 0.859602 31.9807 1.4948 -1.2 -7.14789 -6.48961e+06 -592979 -1.50686e+07 1.15917e+06 -8.48644e+06 2.58659e+06
222 3 O 7.507 34.568 1.4948 -1.2 -9.43221 -4.6352e+06 -1.03761e+06 -1.39679e+06 -930606 -430923 1.10913e+06
223 3 O 0.210186 34.3001 0.196716 -1.2 -6.17992 -4.28465e+06 -1.40204e+07 -9.46511e+06 1.54105e+06 -7.9762e+06 -647605
224 3 O 0.184454 34.3001 2.79288 -1.2 -8.63028 -2.38362e+06 -4.276e+06 -1.867e+06 -837612 -181050 1.02556e+06
225 1 Mg 7.07415 37.992 0 1.2 -6.37364 2.86835e+06 2.31877e+06 -3.50759e+06 1.87043e+06 -407959 -1.32302e+06
226 1 Mg 4.36817 42.6997 1.4948 1.2 -9.16754 -821222 2.73509e+06 4.22146e+06 -1.00123e+06 81478.1 -223873
227 2 Si 6.16058 40.0155 1.4948 2.4 -34.1601 1.21111e+07 8.46368e+06 1.03885e+07 -384262 1.26472e+06 -1.85672e+06
228 3 O 6.22815 41.6288 1.4948 -1.2 -8.3516 -6.52942e+06 -265775 -6.86784e+06 31478 -4.49119e+06 -1.4108e+06
229 3 O 2.53282 39.0415 1.4948 -1.2 -9.26357 -4.57094e+06 -1.0908e+06 -1.81458e+06 1.71844e+06 -332838 -849658
230 3 O 5.44674 39.3094 0.196716 -1.2 -6.92206 -4.73146e+06 -1.07883e+07 -5.77185e+06 -140248 -5.73099e+06 1.90423e+06
231 1 Mg 7.04922 37.992 2.9896 1.2 -8.25694 5.1145e+06 -1.46286e+06 -827354 1.28168e+06 -1.46894e+06 1.85794e+06
232 3 O 5.42658 39.3094 2.79288 -1.2 -8.48992 -2.72831e+06 -3.90773e+06 -1.93939e+06 1.16058e+06 -244614 -1.12762e+06
233 1 Mg -0.333062 38.0333 4.4844 1.2 -9.12795 -367710 2.81977e+06 2.96394e+06 -350069 -124953 -75584.5
234 2 Si -2.12255 40.7174 4.4844 2.4 -33.8153 1.30958e+07 9.2089e+06 8.05305e+06 146873 -91943 -308255
235 3 O -2.19212 39.1042 4.4844 -1.2 -9.02408 -4.67656e+06 -397639 -3.4473e+06 424852 -48676.8 155117
236 3 O 1.50676 41.6915 4.4844 -1.2 -8.68557 -4.21008e+06 -2.80361e+06 -3.17649e+06 2.33572e+06 -343923 239885
237 3 O -1.3884 41.4236 3.18632 -1.2 -8.53832 -3.41843e+06 -3.62028e+06 -1.21837e+06 1.13691e+06 79563.6 -1.30863e+06
238 3 O -1.40713 41.4236 5.78248 -1.2 -8.42901 -3.87994e+06 -3.8343e+06 -1.15229e+06 1.15436e+06 -119018 1.55924e+06
239 1 Mg 2.01892 40.3665 2.9896 1.2 -8.37549 5.16854e+06 -1.46345e+06 -708894 -1.093e+06 -1.56325e+06 -1.61978e+06
240 1 Mg 4.83434 40.3252 4.4844 1.2 -9.18886 63881.7 2.61123e+06 2.97829e+06 1.18551e+06 -265774 -75166.4
241 2 Si 3.02698 42.39 4.4844 2.4 -34.0203 1.27726e+07 9.15438e+06 8.71216e+06 762873 -300558 -663671
242 3 O 3.05433 44.0033 4.4844 -1.2 -8.87295 -4.76824e+06 -349611 -3.81385e+06 586306 55816.7 402256
243 3 O -3.60077 41.416 4.4844 -1.2 -8.82656 -4.54057e+06 -2.6719e+06 -2.69389e+06 -1.32446e+06 -157573 125145
244 3 O 3.71851 41.6839 3.18632 -1.2 -8.553 -3.33929e+06 -3.74562e+06 -1.40778e+06 -841254 309794 1.41281e+06
245 1 Mg 2.04077 40.3665 0 1.2 -6.42371 2.53707e+06 2.08126e+06 -3.89495e+06 -1.84379e+06 427062 1.43731e+06
246 3 O 3.70011 41.6839 5.78248 -1.2 -8.27808 -3.59803e+06 -3.84954e+06 -2.05281e+06 -931291 243592 -777659
247 1 Mg -0.796865 40.4078 1.4948 1.2 -9.10353 -544321 2.71557e+06 4.24195e+06 1.76133e+06 85041.6 -75499.4
248 2 Si 1.01387 38.3429 1.4948 2.4 -34.1857 1.16859e+07 8.96378e+06 1.02896e+07 1.55489e+06 1.49611e+06 1.89394e+06
249 3 O 0.989947 36.7297 1.4948 -1.2 -7.84837 -6.88166e+06 -490008 -1.01582e+07 1.02949e+06 -6.64297e+06 1.96491e+06
250 3 O 7.63988 39.317 1.4948 -1.2 -9.30166 -4.70403e+06 -981169 -1.76659e+06 -931910 -271213 1.15872e+06
251 3 O 0.340253 39.0491 0.196716 -1.2 -6.9418 -4.831e+06 -1.17161e+07 -5.66776e+06 377900 -5.9006e+06 -1.44075e+06
252 3 O 0.319795 39.0491 2.79288 -1.2 -8.53145 -2.67261e+06 -4.09063e+06 -1.95958e+06 -884822 -245330 969605
253 1 Mg 7.20667 42.741 0 1.2 -6.5203 2.20837e+06 2.00638e+06 -3.76402e+06 1.99979e+06 907420 -2.32356e+06
254 1 Mg 4.50613 47.4487 1.4948 1.2 -9.1871 -750241 2.78326e+06 3.93046e+06 -854063 407035 -483497
255 2 Si 6.29731 44.7645 1.4948 2.4 -34.134 1.27366e+07 7.72848e+06 1.04333e+07 -233601 884255 -2.1201e+06
256 3 O 6.36567 46.3778 1.4948 -1.2 -8.70746 -5.82652e+06 -201500 -4.96388e+06 182042 -2.69371e+06 -890449
257 3 O 2.669 43.7905 1.4948 -1.2 -9.12542 -4.57251e+06 -1.14365e+06 -2.25128e+06 1.72551e+06 -193256 -611498
258 3 O 5.58048 44.0584 0.196716 -1.2 -7.56689 -4.7996e+06 -8.06149e+06 -3.43382e+06 327821 -3.6935e+06 2.67115e+06
259 1 Mg 7.1879 42.741 2.9896 1.2 -8.35869 5.32395e+06 -1.61494e+06 -708400 1.29303e+06 -1.58528e+06 1.69235e+06
260 3 O 5.56564 44.0584 2.79288 -1.2 -8.42406 -3.00403e+06 -3.73841e+06 -1.96354e+06 1.12444e+06 -252320 -867879
261 1 Mg -0.19105 42.7823 4.4844 1.2 -9.27422 -148186 2.60144e+06 3.19644e+06 -461259 51769.6 -213609
262 2 Si -1.97909 45.4664 4.4844 2.4 -34.0085 1.32251e+07 8.99414e+06 8.45666e+06 90898.6 -99131.4 -852220
263 3 O -2.04947 43.8532 4.4844 -1.2 -8.90429 -4.87925e+06 -207975 -3.62613e+06 455488 -47520.2 303378
264 3 O 1.65063 46.4405 4.4844 -1.2 -8.664 -4.31749e+06 -2.88e+06 -3.02149e+06 2.30191e+06 -180351 451490
265 3 O -1.24745 46.1726 3.18632 -1.2 -8.45882 -3.42817e+06 -3.58481e+06 -1.47256e+06 1.13683e+06 69661.4 -1.00046e+06
266 3 O -1.26044 46.1726 5.78248 -1.2 -8.33409 -3.87627e+06 -3.81513e+06 -1.33383e+06 1.19456e+06 22948.2 1.92401e+06
267 1 Mg 2.15896 45.1155 2.9896 1.2 -8.44595 5.2689e+06 -1.48693e+06 -657159 -1.07454e+06 -1.69628e+06 -1.92803e+06
268 1 Mg 4.97763 45.0742 4.4844 1.2 -9.25152 203286 2.57696e+06 2.97335e+06 1.26406e+06 -94017.5 -365281
269 2 Si 3.1711 47.139 4.4844 2.4 -34.0581 1.29642e+07 9.13344e+06 8.60528e+06 705750 -207842 -875039