ITEM: TIMESTEP
67900
ITEM: NUMBER OF ATOMS
10500
ITEM: BOX BOUNDS xy xz yz pp pp pp
0.0000000000000000e+00 1.5297749999999999e+01 5.0992499999999996e+00
0.0000000000000000e+00 1.1872499999999999e+02 0.0000000000000000e+00
0.0000000000000000e+00 8.9688000000000002e+01 0.0000000000000000e+00
ITEM: ATOMS id type element xu yu zu q c_pe c_s[1] c_s[2] c_s[3] c_s[4] c_s[5] c_s[6]
1 1 Mg 6.2404 -6.37941e-06 0 1.2 -4.94641 8.78034e+06 -2.71613e+06 -5.40093e+06 -27073.1 2.60836e+06 -421492
2 1 Mg 3.46349 4.70768 1.4948 1.2 -8.9275 351339 2.09119e+06 4.95698e+06 -928106 -616077 -93552.3
3 2 Si 5.2885 2.02354 1.4948 2.4 -36.2007 1.15438e+07 9.29969e+06 1.29487e+07 8.84981e+06 692212 -3.5439e+06
4 3 O 5.33628 3.63678 1.4948 -1.2 -4.26613 -1.55341e+06 -741673 -3.43684e+07 -328481 3.81671e+06 -3.65857e+06
5 3 O 1.67294 1.04952 1.4948 -1.2 -0.566592 -2.107e+07 -7.85032e+07 -3.01376e+06 -2.41389e+07 -136198 141366
6 3 O 4.59532 1.31737 0.196716 -1.2 -2.51525 -2.80061e+06 -5.85147e+06 -3.12963e+07 -6.02804e+06 6.21414e+06 -2.44427e+06
7 1 Mg 6.18956 -6.37941e-06 2.9896 1.2 -5.39777 2.32313e+06 -2.91982e+07 -2.01202e+06 -8.86275e+06 2.44663e+06 3.84739e+06
8 3 O 4.55118 1.31737 2.79288 -1.2 -7.04108 -593680 -3.7631e+06 -4.10282e+06 -2.96119e+06 -3.40208e+06 -871810
9 1 Mg -1.20682 0.0413099 4.4844 1.2 8.44875 -2.99865e+07 -9.44946e+07 842874 -2.85487e+07 -1.19035e+06 -49352.7
10 2 Si -3.0337 2.72544 4.4844 2.4 -33.9631 1.5807e+07 5.0584e+06 9.92148e+06 1.55343e+06 20536.1 -1.42177e+06
11 3 O -3.08099 1.11221 4.4844 -1.2 -9.15097 -6.94723e+06 1.16009e+06 -3.25038e+06 -1.18195e+06 -185565 539494
12 3 O 0.582463 3.69946 4.4844 -1.2 -8.58476 -3.86335e+06 -4.65201e+06 -3.69996e+06 -597521 -228209 258310
13 3 O -2.29524 3.43162 3.18632 -1.2 -8.64329 -4.93659e+06 -1.71514e+06 -1.33866e+06 1.10089e+06 -813193 -628224
14 3 O -2.34216 3.43162 5.78248 -1.2 -8.48993 -4.67726e+06 -2.20358e+06 -2.39364e+06 782362 587348 1.84276e+06
15 1 Mg 1.12778 2.37449 2.9896 1.2 -8.04717 5.86576e+06 -2.52346e+06 231226 -3.2633e+06 -4.17023e+06 -2.53025e+06
16 1 Mg 3.92855 2.33318 4.4844 1.2 -8.90901 -3.50892e+06 3.96493e+06 5.84419e+06 1.38284e+06 286616 169202
17 2 Si 2.09341 4.39804 4.4844 2.4 -33.1418 1.30001e+07 5.35542e+06 1.0668e+07 199420 -167037 -154782
18 3 O 2.09991 6.01128 4.4844 -1.2 -9.14769 -4.41502e+06 488862 -4.58313e+06 563654 -190856 175786
19 3 O -4.52137 3.42402 4.4844 -1.2 -8.76478 -3.55342e+06 -2.02963e+06 -4.47925e+06 -2.388e+06 -801197 437850
20 3 O 2.80834 3.69187 3.18632 -1.2 -8.90711 -2.73783e+06 -2.05969e+06 -1.2548e+06 453512 -501000 -210280
21 1 Mg 1.17857 2.37449 0 1.2 -5.65498 173315 -1.55883e+07 -5.60719e+06 6.53169e+06 1.21319e+06 4.39029e+06
22 3 O 2.76143 3.69187 5.78248 -1.2 -8.93185 -3.21468e+06 -1.56458e+06 -2.36527e+06 547553 9438.63 320979
23 1 Mg -1.67381 2.41581 1.4948 1.2 -8.05087 2.3356e+06 -1.04073e+06 4.8707e+06 1.34616e+06 -603506 777044
24 2 Si 0.16286 0.350945 1.4948 2.4 -25.5268 -6.70761e+06 1.06398e+07 1.32644e+07 1.59757e+06 2.82897e+06 727919
25 3 O 0.15972 -1.26229 1.4948 -1.2 -4.2828 -1.14005e+07 -7.14035e+06 -2.98823e+07 -5.61069e+06 -8.52766e+06 -2.42807e+06
26 3 O 6.77654 1.32496 1.4948 -1.2 -9.8773 -6.53606e+06 2.65338e+06 -2.23606e+06 -629452 -632780 1.30587e+06
27 3 O -0.508028 1.05712 0.196716 -1.2 -9.00663 -703424 -3.83561e+06 -1.56245e+06 -550969 228466 -4.32095e+06
28 3 O -0.552171 1.05712 2.79288 -1.2 -6.33851 -6.06663e+06 -3.64268e+06 -2.5618e+07 1.42585e+06 -6.79114e+06 -5.26112e+06
29 1 Mg 6.31713 4.74899 0 1.2 -5.42426 1.19053e+06 -1.34849e+07 -5.56737e+06 -7.32475e+06 1.44146e+06 -3.73989e+06
30 1 Mg 3.54847 9.45668 1.4948 1.2 -8.70747 850717 1.42408e+06 4.75082e+06 -950637 -945410 -300476
31 2 Si 5.36879 6.77254 1.4948 2.4 -35.1255 8.62158e+06 1.11848e+07 1.2419e+07 1.67668e+06 146900 -2.10278e+06
32 3 O 5.41937 8.38578 1.4948 -1.2 -4.36917 -948441 -597315 -3.55569e+07 756007 1.11067e+06 -4.22086e+06
33 3 O 1.75158 5.79852 1.4948 -1.2 -9.06826 -4.65482e+06 -1.85195e+06 -1.97733e+06 1.96373e+06 -1.59507e+06 -1.23902e+06
34 3 O 4.67421 6.06637 0.196716 -1.2 -3.3081 -578596 -9.64371e+06 -3.19563e+07 -2.02094e+06 1.2773e+06 -4.35998e+06
35 1 Mg 6.26654 4.74899 2.9896 1.2 -8.43004 4.78814e+06 -2.30386e+06 592301 1.79773e+06 -875392 1.66491e+06
36 3 O 4.63043 6.06637 2.79288 -1.2 -8.45846 -2.22112e+06 -3.47473e+06 -2.71289e+06 933608 -86968.9 -1.28525e+06
37 1 Mg -1.12976 4.79031 4.4844 1.2 -9.13385 50516.6 2.0864e+06 3.36422e+06 -686798 -374433 -495332
38 2 Si -2.9517 7.47444 4.4844 2.4 -33.4772 1.24844e+07 8.08972e+06 9.21639e+06 111523 -90846 -331194
39 3 O -3.00198 5.86121 4.4844 -1.2 -9.11473 -4.61376e+06 356756 -4.17215e+06 39961.8 -169937 348187
40 3 O 0.666315 8.44846 4.4844 -1.2 -8.93434 -3.8429e+06 -2.25521e+06 -3.66959e+06 2.16182e+06 -530905 106381
41 3 O -2.21213 8.18062 3.18632 -1.2 -8.73968 -3.56272e+06 -3.00944e+06 -968429 1.09592e+06 -314013 -1.38734e+06
42 3 O -2.25864 8.18062 5.78248 -1.2 -8.7161 -3.59e+06 -3.21529e+06 -1.9721e+06 957777 -80475.5 1.45602e+06
43 1 Mg 1.20893 7.12349 2.9896 1.2 -8.3698 4.68445e+06 -2.03022e+06 305108 -1.29642e+06 -1.30853e+06 -1.77399e+06
44 1 Mg 4.00982 7.08218 4.4844 1.2 -9.00072 -360106 2.14648e+06 3.55229e+06 1.01976e+06 -330788 -85762.4
45 2 Si 2.17861 9.14704 4.4844 2.4 -33.5223 1.21308e+07 8.25327e+06 9.44991e+06 556436 -104780 -79623.5
46 3 O 2.18828 10.7603 4.4844 -1.2 -9.11592 -4.42188e+06 81532 -4.19193e+06 433291 -177548 45614.4
47 3 O -4.43805 8.17302 4.4844 -1.2 -8.97875 -3.91125e+06 -2.25522e+06 -3.48992e+06 -1.54278e+06 -442019 66715.9
48 3 O 2.89193 8.44087 3.18632 -1.2 -8.74395 -3.32672e+06 -3.22282e+06 -1.13728e+06 -920264 -210012 1.3196e+06
49 1 Mg 1.25915 7.12349 0 1.2 -5.75912 1.67189e+06 -7.98494e+06 -5.90616e+06 5.89708e+06 1.34234e+06 2.61628e+06
50 3 O 2.84547 8.44087 5.78248 -1.2 -8.6828 -3.24861e+06 -3.4617e+06 -2.20641e+06 -876358 -39865.8 -999713
51 1 Mg -1.59284 7.16481 1.4948 1.2 -8.65282 1.50343e+06 944234 4.68942e+06 1.45089e+06 -907547 283732
52 2 Si 0.240329 5.09994 1.4948 2.4 -34.9414 9.69749e+06 9.77473e+06 1.24587e+07 -1.9589e+06 -1.05942e+06 1.66104e+06
53 3 O 0.234538 3.48671 1.4948 -1.2 -4.76168 -2.5069e+06 1.13289e+06 -3.45317e+07 394730 5.18283e+06 4.16975e+06
54 3 O 6.85564 6.07396 1.4948 -1.2 -9.15967 -5.118e+06 -1.32171e+06 -1.85941e+06 -1.33951e+06 -1.8316e+06 1.2802e+06
55 3 O -0.429565 5.80612 0.196716 -1.2 -3.55858 -1.43486e+06 -8.27028e+06 -3.20295e+07 1.86179e+06 1.21757e+06 4.61295e+06
56 3 O -0.473377 5.80612 2.79288 -1.2 -8.55015 -2.79682e+06 -3.02205e+06 -2.54346e+06 -780538 284844 1.48824e+06
57 1 Mg 6.40169 9.49799 0 1.2 -5.66805 2.16961e+06 -6.73384e+06 -6.2898e+06 -5.47302e+06 1.01498e+06 -2.4544e+06
58 1 Mg 3.64209 14.2057 1.4948 1.2 -8.71492 676907 1.49882e+06 4.82087e+06 -1.0431e+06 -984436 -258772
59 2 Si 5.45748 11.5215 1.4948 2.4 -34.965 8.67087e+06 1.11074e+07 1.2166e+07 906530 302205 -2.11413e+06
60 3 O 5.51101 13.1348 1.4948 -1.2 -4.46499 -1.03848e+06 -563632 -3.51668e+07 469573 -2.51485e+06 -4.36846e+06
61 3 O 1.83851 10.5475 1.4948 -1.2 -9.21492 -4.79063e+06 -1.57665e+06 -1.60972e+06 1.54355e+06 -1.57487e+06 -1.10705e+06
62 3 O 4.7611 10.8154 0.196716 -1.2 -3.2573 7812.72 -1.11879e+07 -3.23038e+07 -2.48394e+06 -1.73102e+06 -4.29617e+06
63 1 Mg 6.35203 9.49799 2.9896 1.2 -8.32288 4.69951e+06 -1.93964e+06 142875 1.31991e+06 -1.20097e+06 1.9835e+06
64 3 O 4.71833 10.8154 2.79288 -1.2 -8.52535 -2.38088e+06 -3.47998e+06 -2.44689e+06 1.043e+06 58000.2 -1.32788e+06
65 1 Mg -1.0438 9.53931 4.4844 1.2 -9.00728 -283430 2.12846e+06 3.41843e+06 -574995 -208741 -90444
66 2 Si -2.8604 12.2234 4.4844 2.4 -33.5113 1.25429e+07 8.34788e+06 8.95684e+06 -73218.5 -107961 147427
67 3 O -2.91391 10.6102 4.4844 -1.2 -9.14926 -4.54379e+06 121727 -3.94304e+06 232383 -180568 525.538
68 3 O 0.7596 13.1975 4.4844 -1.2 -8.9074 -3.89524e+06 -2.47213e+06 -3.44743e+06 2.14128e+06 -516129 3837.59
69 3 O -2.12001 12.9296 3.18632 -1.2 -8.74117 -3.46341e+06 -3.157e+06 -922532 1.16028e+06 -231137 -1.56401e+06
70 3 O -2.16532 12.9296 5.78248 -1.2 -8.64301 -3.60883e+06 -3.43047e+06 -1.77068e+06 1.16412e+06 -92120.1 1.19766e+06
71 1 Mg 1.29891 11.8725 2.9896 1.2 -8.34095 4.70448e+06 -1.83209e+06 37534.9 -1.17815e+06 -1.2047e+06 -1.67353e+06
72 1 Mg 4.10033 11.8312 4.4844 1.2 -9.0218 -224173 2.28151e+06 3.31975e+06 1.14197e+06 -327224 90342.1
73 2 Si 2.27333 13.896 4.4844 2.4 -33.5701 1.23144e+07 8.56647e+06 9.02665e+06 687882 4579.41 216846
74 3 O 2.28634 15.5093 4.4844 -1.2 -9.08362 -4.45336e+06 22342.7 -4.1541e+06 471433 -206040 -123909
75 3 O -4.34533 12.922 4.4844 -1.2 -8.95516 -4.0086e+06 -2.31119e+06 -3.37135e+06 -1.47369e+06 -424255 -141898
76 3 O 2.98455 13.1899 3.18632 -1.2 -8.75686 -3.37167e+06 -3.30491e+06 -1.01085e+06 -958209 -153547 1.24483e+06
77 1 Mg 1.34779 11.8725 0 1.2 -5.86405 3.39039e+06 -3.10881e+06 -6.43425e+06 3.55026e+06 810710 1.56118e+06
78 3 O 2.93934 13.1899 5.78248 -1.2 -8.61916 -3.42154e+06 -3.71803e+06 -1.8952e+06 -963343 -234842 -1.23661e+06
79 1 Mg -1.50344 11.9138 1.4948 1.2 -8.68246 1.07402e+06 1.41117e+06 4.68314e+06 1.5623e+06 -921502 418063
80 2 Si 0.326006 9.84894 1.4948 2.4 -34.9673 8.81673e+06 1.11097e+07 1.19939e+07 -627731 140203 2.30152e+06
81 3 O 0.317364 8.23571 1.4948 -1.2 -4.37192 -1.09274e+06 -455704 -3.56794e+07 -113373 1.17045e+06 4.1903e+06
82 3 O 6.94307 10.823 1.4948 -1.2 -9.25693 -4.93883e+06 -1.38835e+06 -1.54144e+06 -989101 -1.53324e+06 1.04216e+06
83 3 O -0.343122 10.5551 0.196716 -1.2 -3.35632 -338145 -1.06475e+07 -3.23044e+07 2.4795e+06 -2.07753e+06 4.51476e+06
84 3 O -0.385966 10.5551 2.79288 -1.2 -8.55988 -2.45023e+06 -3.5106e+06 -2.43801e+06 -850416 56910.1 1.11695e+06
85 1 Mg 6.49448 14.247 0 1.2 -5.80387 3.77187e+06 -2.36276e+06 -6.47324e+06 -2.96858e+06 235051 -1.50602e+06
86 1 Mg 3.74457 18.9547 1.4948 1.2 -8.69449 291108 1.83796e+06 4.75767e+06 -1.1124e+06 -977096 -325520
87 2 Si 5.55495 16.2705 1.4948 2.4 -34.8136 8.76223e+06 1.08952e+07 1.2063e+07 502649 752557 -2.18545e+06
88 3 O 5.6115 17.8838 1.4948 -1.2 -4.8687 -1.93455e+06 -611041 -3.23454e+07 86454.3 -6.03836e+06 -4.14231e+06
89 3 O 1.93416 15.2965 1.4948 -1.2 -9.30346 -4.76856e+06 -1.2672e+06 -1.54946e+06 1.53327e+06 -1.38662e+06 -1.07952e+06
90 3 O 4.85636 15.5644 0.196716 -1.2 -3.35485 115171 -1.28707e+07 -3.07383e+07 -3.01093e+06 -5.11204e+06 -3.77577e+06
91 1 Mg 6.44662 14.247 2.9896 1.2 -8.29541 4.76058e+06 -1.92254e+06 19671.9 1.28652e+06 -1.21587e+06 2.06728e+06
92 3 O 4.81537 15.5644 2.79288 -1.2 -8.53829 -2.34199e+06 -3.5239e+06 -2.45298e+06 1.0847e+06 16442.7 -1.34075e+06
93 1 Mg -0.948271 14.2883 4.4844 1.2 -9.03852 -305837 2.25312e+06 3.35747e+06 -543652 -271804 43814.6
94 2 Si -2.75928 16.9724 4.4844 2.4 -33.5231 1.26102e+07 8.38283e+06 8.87539e+06 -52417.7 -90130.8 -8084.16
95 3 O -2.81617 15.3592 4.4844 -1.2 -9.1183 -4.56429e+06 115712 -3.96811e+06 271780 -155993 -50361.8
96 3 O 0.862762 17.9465 4.4844 -1.2 -8.89665 -3.87916e+06 -2.44319e+06 -3.50711e+06 2.15468e+06 -606061 112295
97 3 O -2.0185 17.6786 3.18632 -1.2 -8.77402 -3.41064e+06 -3.24478e+06 -854206 1.16984e+06 -155914 -1.48252e+06
98 3 O -2.06164 17.6786 5.78248 -1.2 -8.59892 -3.66745e+06 -3.39905e+06 -1.88485e+06 1.16451e+06 -87248.6 1.44347e+06
99 1 Mg 1.39817 16.6215 2.9896 1.2 -8.30607 4.73012e+06 -1.81403e+06 -64086.4 -1.15431e+06 -1.18824e+06 -1.62207e+06
100 1 Mg 4.20062 16.5802 4.4844 1.2 -9.0455 -192999 2.28721e+06 3.32212e+06 1.11256e+06 -400673 101234
101 2 Si 2.37796 18.645 4.4844 2.4 -33.5744 1.2108e+07 8.59171e+06 9.21764e+06 757502 -58365.9 -233644
102 3 O 2.39434 20.2583 4.4844 -1.2 -9.14655 -4.3201e+06 -138967 -4.02476e+06 475095 -190395 266433
103 3 O -4.24274 17.671 4.4844 -1.2 -8.96816 -4.07981e+06 -2.36692e+06 -3.22577e+06 -1.40733e+06 -397785 -34070.5
104 3 O 3.08659 17.9389 3.18632 -1.2 -8.78528 -3.26926e+06 -3.38118e+06 -1.02947e+06 -949118 -49176.3 1.33273e+06
105 1 Mg 1.44478 16.6215 0 1.2 -5.89052 4.86185e+06 -119681 -6.40975e+06 1.41277e+06 -47717.6 918560
106 3 O 3.0436 17.9389 5.78248 -1.2 -8.49404 -3.3296e+06 -3.59547e+06 -2.41811e+06 -941388 39071.8 -1.10024e+06
107 1 Mg -1.40524 16.6628 1.4948 1.2 -8.68925 792459 1.60863e+06 4.73057e+06 1.6966e+06 -960916 404421
108 2 Si 0.420358 14.5979 1.4948 2.4 -34.8752 8.73484e+06 1.0995e+07 1.20271e+07 -115450 609592 2.56058e+06
109 3 O 0.408732 12.9847 1.4948 -1.2 -4.45359 -1.0837e+06 -556059 -3.52818e+07 224198 -2.58471e+06 4.23757e+06
110 3 O 7.03923 15.572 1.4948 -1.2 -9.35114 -4.91695e+06 -1.11331e+06 -1.4463e+06 -943147 -1.29617e+06 964657
111 3 O -0.248332 15.3041 0.196716 -1.2 -3.44917 -229397 -1.23775e+07 -3.07887e+07 3.23264e+06 -5.43228e+06 3.9758e+06
112 3 O -0.289436 15.3041 2.79288 -1.2 -8.57104 -2.36894e+06 -3.6098e+06 -2.44538e+06 -869440 10009.8 1.02042e+06
113 1 Mg 6.59566 18.996 0 1.2 -5.78029 4.97095e+06 529686 -6.55936e+06 -927070 -661555 -937104
114 1 Mg 3.85574 23.7037 1.4948 1.2 -8.66251 -162412 2.29111e+06 4.56699e+06 -1.17916e+06 -913444 -612106
115 2 Si 5.66125 21.0195 1.4948 2.4 -34.4948 8.80389e+06 1.10894e+07 1.13782e+07 193766 1.20151e+06 -2.76159e+06
116 3 O 5.72074 22.6328 1.4948 -1.2 -5.59011 -3.40355e+06 -801388 -2.71894e+07 -224564 -8.50084e+06 -3.34686e+06
117 3 O 2.03867 20.0455 1.4948 -1.2 -9.44357 -4.58374e+06 -1.27347e+06 -1.30101e+06 1.5657e+06 -1.1586e+06 -836187
118 3 O 4.96004 20.3134 0.196716 -1.2 -3.82726 -354552 -1.46273e+07 -2.65689e+07 -3.1889e+06 -7.95829e+06 -2.60979e+06
119 1 Mg 6.55057 18.996 2.9896 1.2 -8.21392 4.75623e+06 -1.77097e+06 -257515 1.29209e+06 -1.24077e+06 1.90023e+06
120 3 O 4.92172 20.3134 2.79288 -1.2 -8.61732 -2.17743e+06 -3.78573e+06 -2.26473e+06 1.06884e+06 -47755.9 -1.07406e+06
121 1 Mg -0.84282 19.0373 4.4844 1.2 -8.99913 -331995 2.34715e+06 3.21765e+06 -548844 -196787 -190276
122 2 Si -2.64823 21.7214 4.4844 2.4 -33.3392 1.23116e+07 8.92468e+06 8.34405e+06 -18075.4 -250137 -601464
123 3 O -2.70847 20.1082 4.4844 -1.2 -9.18221 -4.49411e+06 -75423.7 -3.72495e+06 345244 -86929.4 191552
124 3 O 0.97581 22.6955 4.4844 -1.2 -9.04126 -3.72195e+06 -2.79404e+06 -3.08815e+06 2.23656e+06 -542738 434186
125 3 O -1.9076 22.4276 3.18632 -1.2 -8.87405 -3.20549e+06 -3.55488e+06 -624386 1.17604e+06 -44032.1 -1.17504e+06
126 3 O -1.9475 22.4276 5.78248 -1.2 -8.72926 -3.53597e+06 -3.72826e+06 -1.42242e+06 1.16152e+06 -48173.6 1.77977e+06
127 1 Mg 1.50678 21.3705 2.9896 1.2 -8.18371 4.65848e+06 -1.53738e+06 -465194 -1.16516e+06 -1.21287e+06 -1.92165e+06
128 1 Mg 4.31086 21.3292 4.4844 1.2 -8.96296 -369679 2.52882e+06 3.12673e+06 1.21971e+06 -317310 -255189
129 2 Si 2.49243 23.394 4.4844 2.4 -33.2542 1.18394e+07 9.28808e+06 8.26866e+06 744652 -45381.2 -827709
130 3 O 2.51204 25.0073 4.4844 -1.2 -9.29713 -4.1856e+06 -390453 -3.68571e+06 511520 -173376 417063
131 3 O -4.13026 22.42 4.4844 -1.2 -9.0656 -3.84459e+06 -2.67532e+06 -2.99317e+06 -1.41111e+06 -364417 280096
132 3 O 3.19799 22.6879 3.18632 -1.2 -8.89838 -3.07886e+06 -3.71541e+06 -764750 -934815 5176.58 1.66276e+06
133 1 Mg 1.5501 21.3705 0 1.2 -5.79769 5.48878e+06 1.8066e+06 -6.3337e+06 -71068.1 -991772 219864
134 3 O 3.1583 22.6879 5.78248 -1.2 -8.71381 -3.18435e+06 -3.98971e+06 -1.64096e+06 -957479 -104926 -679719
135 1 Mg -1.29822 21.4118 1.4948 1.2 -8.64552 367582 2.09474e+06 4.49479e+06 1.79666e+06 -945339 39115.7
136 2 Si 0.523568 19.3469 1.4948 2.4 -34.6154 8.71926e+06 1.11116e+07 1.1538e+07 310647 1.01914e+06 2.4006e+06
137 3 O 0.508934 17.7337 1.4948 -1.2 -4.85225 -1.96341e+06 -582230 -3.25064e+07 659091 -6.09934e+06 4.07131e+06
138 3 O 7.14425 20.321 1.4948 -1.2 -9.49897 -4.75783e+06 -1.14954e+06 -1.14111e+06 -932340 -1.06202e+06 1.16846e+06
139 3 O -0.145107 20.0531 0.196716 -1.2 -3.92689 -767029 -1.42819e+07 -2.6546e+07 3.68362e+06 -8.18044e+06 3.18072e+06
140 3 O -0.183601 20.0531 2.79288 -1.2 -8.65592 -2.23066e+06 -3.87415e+06 -2.23133e+06 -832858 -50806.4 1.22989e+06
141 1 Mg 6.70502 23.745 0 1.2 -5.76784 5.28384e+06 2.05537e+06 -6.03412e+06 415791 -1.49061e+06 -1.00968e+06
142 1 Mg 3.97493 28.4527 1.4948 1.2 -8.68235 -603845 2.58481e+06 4.51386e+06 -1.22626e+06 -772737 -675550
143 2 Si 5.77602 25.7685 1.4948 2.4 -34.187 9.12032e+06 1.08296e+07 1.09159e+07 -117920 1.52519e+06 -3.28481e+06
144 3 O 5.83821 27.3818 1.4948 -1.2 -6.45887 -5.01263e+06 -765505 -2.09892e+07 -334404 -9.28964e+06 -2.53947e+06
145 3 O 2.15175 24.7945 1.4948 -1.2 -9.56351 -4.41278e+06 -1.28528e+06 -1.13454e+06 1.61064e+06 -934699 -470787
146 3 O 5.07184 25.0624 0.196716 -1.2 -4.53719 -1.48082e+06 -1.54488e+07 -2.08632e+07 -2.78966e+06 -9.42798e+06 -967710
147 1 Mg 6.66374 23.745 2.9896 1.2 -8.0869 4.61758e+06 -1.50126e+06 -589209 1.31349e+06 -1.27798e+06 1.57577e+06
148 3 O 5.03707 25.0624 2.79288 -1.2 -8.72423 -2.00018e+06 -4.02972e+06 -2.06919e+06 1.08675e+06 -142135 -781706
149 1 Mg -0.727559 23.7863 4.4844 1.2 -8.8728 -590038 2.66189e+06 2.95191e+06 -525809 -216494 -410002
150 2 Si -2.5277 26.4704 4.4844 2.4 -33.1003 1.18218e+07 9.19116e+06 8.18283e+06 20083.7 -315525 -912366
151 3 O -2.59107 24.8572 4.4844 -1.2 -9.30396 -4.24565e+06 -342778 -3.50895e+06 364765 -32552.5 371182
152 3 O 1.09817 27.4445 4.4844 -1.2 -9.16527 -3.61226e+06 -2.87988e+06 -2.93117e+06 2.24933e+06 -483334 610972
153 3 O -1.78784 27.1766 3.18632 -1.2 -8.96127 -2.9887e+06 -3.69296e+06 -624661 1.17e+06 52939.3 -977323
154 3 O -1.82343 27.1766 5.78248 -1.2 -8.85563 -3.20692e+06 -3.72503e+06 -1.41865e+06 1.16257e+06 49183.4 1.86204e+06
155 1 Mg 1.62435 26.1195 2.9896 1.2 -8.06003 4.59885e+06 -1.38283e+06 -755266 -1.14804e+06 -1.2759e+06 -2.10436e+06
156 1 Mg 4.43064 26.0782 4.4844 1.2 -8.83281 -598938 2.69494e+06 2.98111e+06 1.2151e+06 -217982 -383931
157 2 Si 2.61607 28.143 4.4844 2.4 -33.0121 1.15399e+07 9.43481e+06 8.0347e+06 761311 27092.6 -1.22196e+06
158 3 O 2.63853 29.7563 4.4844 -1.2 -9.42596 -4.00038e+06 -595842 -3.45274e+06 558924 -165099 604833
159 3 O -4.00841 27.169 4.4844 -1.2 -9.18743 -3.63601e+06 -2.76236e+06 -2.92781e+06 -1.3686e+06 -346840 463278
160 3 O 3.3182 27.4369 3.18632 -1.2 -8.98979 -2.89509e+06 -3.85431e+06 -741031 -908301 69864.3 1.83247e+06
161 1 Mg 1.66335 26.1195 0 1.2 -5.8189 5.26987e+06 2.49528e+06 -5.55016e+06 -883544 -1.58696e+06 -260263
162 3 O 3.28288 27.4369 5.78248 -1.2 -8.82294 -3.00332e+06 -3.89517e+06 -1.77412e+06 -942044 -255187 -589971
163 1 Mg -1.18278 26.1608 1.4948 1.2 -8.64764 -78296.8 2.40507e+06 4.44155e+06 1.88051e+06 -842561 -305750
164 2 Si 0.635424 24.0959 1.4948 2.4 -34.2874 8.92927e+06 1.11035e+07 1.0878e+07 737270 1.38054e+06 1.71424e+06
165 3 O 0.617906 22.4827 1.4948 -1.2 -5.58134 -3.46809e+06 -782495 -2.72926e+07 1.01978e+06 -8.54624e+06 3.9707e+06
166 3 O 7.25781 25.07 1.4948 -1.2 -9.61016 -4.55452e+06 -1.14414e+06 -1.05229e+06 -929725 -824664 1.4874e+06
167 3 O -0.0337363 24.8021 0.196716 -1.2 -4.63045 -1.87132e+06 -1.53856e+07 -2.0798e+07 3.50933e+06 -9.63674e+06 2.30522e+06
168 3 O -0.0687235 24.8021 2.79288 -1.2 -8.76815 -2.07323e+06 -4.12888e+06 -2.00759e+06 -826547 -84939 1.46339e+06
169 1 Mg 6.82195 28.494 0 1.2 -5.86663 4.77834e+06 2.57945e+06 -5.01487e+06 1.14165e+06 -1.80307e+06 -996175
170 1 Mg 4.10106 33.2017 1.4948 1.2 -8.69564 -1.06396e+06 2.99843e+06 4.24118e+06 -1.21625e+06 -547754 -518336
171 2 Si 5.89839 30.5175 1.4948 2.4 -33.8884 9.66632e+06 1.0464e+07 1.03402e+07 -346840 1.68589e+06 -3.18915e+06
172 3 O 5.96289 32.1308 1.4948 -1.2 -7.37401 -6.07359e+06 -851596 -1.47201e+07 -282414 -8.44899e+06 -1.94958e+06
173 3 O 2.27266 29.5435 1.4948 -1.2 -9.62388 -4.25054e+06 -1.29261e+06 -1.14443e+06 1.6556e+06 -713585 -366200
174 3 O 5.19102 29.8114 0.196716 -1.2 -5.40387 -2.78175e+06 -1.5101e+07 -1.47188e+07 -1.92294e+06 -9.30441e+06 358093
175 1 Mg 6.78546 28.494 2.9896 1.2 -7.97817 4.5194e+06 -1.39454e+06 -766506 1.31221e+06 -1.33326e+06 1.39358e+06
176 3 O 5.16061 29.8114 2.79288 -1.2 -8.81512 -1.89698e+06 -4.18232e+06 -1.91122e+06 1.11993e+06 -218883 -651352
177 1 Mg -0.603205 28.5353 4.4844 1.2 -8.75162 -814935 2.76475e+06 2.87129e+06 -484964 -249145 -593617
178 2 Si -2.39877 31.2194 4.4844 2.4 -32.8439 1.14216e+07 9.56418e+06 7.80821e+06 84225.2 -333432 -1.22971e+06
179 3 O -2.46483 29.6062 4.4844 -1.2 -9.4248 -4.00797e+06 -477579 -3.41055e+06 386313 -4780.71 575182
180 3 O 1.22864 32.1935 4.4844 -1.2 -9.29021 -3.38921e+06 -3.16918e+06 -2.6507e+06 2.21193e+06 -459723 561081
181 3 O -1.66032 31.9256 3.18632 -1.2 -9.04967 -2.80313e+06 -3.92785e+06 -508799 1.13436e+06 112329 -917289
182 3 O -1.69072 31.9256 5.78248 -1.2 -9.0212 -2.96948e+06 -3.92894e+06 -1.18895e+06 1.06985e+06 107433 2.13472e+06
183 1 Mg 1.7499 30.8685 2.9896 1.2 -7.95482 4.50328e+06 -1.17496e+06 -1.02948e+06 -1.12743e+06 -1.35168e+06 -2.11413e+06
184 1 Mg 4.55894 30.8272 4.4844 1.2 -8.71361 -812477 2.95246e+06 2.74946e+06 1.17166e+06 -158910 -511210
185 2 Si 2.7476 32.892 4.4844 2.4 -32.8111 1.09427e+07 1.00119e+07 7.74616e+06 697616 -22482.7 -1.00235e+06
186 3 O 2.77235 34.5053 4.4844 -1.2 -9.52085 -3.62807e+06 -904764 -3.3547e+06 634830 -81528.4 472347
187 3 O -3.87837 31.918 4.4844 -1.2 -9.32323 -3.49074e+06 -2.97817e+06 -2.63516e+06 -1.28924e+06 -293565 573681
188 3 O 3.44611 32.1859 3.18632 -1.2 -9.0679 -2.66069e+06 -4.12389e+06 -666935 -852391 159093 1.78304e+06
189 1 Mg 1.7837 30.8685 0 1.2 -5.91718 4.25063e+06 2.77806e+06 -4.717e+06 -1.34987e+06 -1.56785e+06 -131150
190 3 O 3.41602 32.1859 5.78248 -1.2 -8.93266 -2.6502e+06 -4.28772e+06 -1.7058e+06 -795250 -152918 -783916
191 1 Mg -1.05984 30.9098 1.4948 1.2 -8.66271 -512017 2.76167e+06 4.24099e+06 1.91815e+06 -637095 -403750
192 2 Si 0.755243 28.8449 1.4948 2.4 -34.0032 9.43639e+06 1.06947e+07 1.04093e+07 1.14945e+06 1.59088e+06 1.37911e+06
193 3 O 0.735127 27.2317 1.4948 -1.2 -6.45664 -5.11314e+06 -749334 -2.10458e+07 1.17113e+06 -9.32118e+06 3.57476e+06
194 3 O 7.37914 29.819 1.4948 -1.2 -9.67223 -4.39905e+06 -1.16418e+06 -1.05528e+06 -931447 -614123 1.55838e+06
195 3 O 0.0850649 29.5511 0.196716 -1.2 -5.47882 -3.11309e+06 -1.54339e+07 -1.4581e+07 2.68875e+06 -9.41926e+06 997171
196 3 O 0.0543974 29.5511 2.79288 -1.2 -8.8652 -1.98308e+06 -4.28696e+06 -1.83582e+06 -844612 -125850 1.54215e+06
197 1 Mg 6.94543 33.243 0 1.2 -5.97614 3.67702e+06 2.86837e+06 -4.35352e+06 1.58701e+06 -1.4157e+06 -1.13443e+06
198 1 Mg 4.23267 37.9507 1.4948 1.2 -8.72091 -1.38104e+06 3.21889e+06 3.96381e+06 -1.10703e+06 -253582 -54811.4
199 2 Si 6.02709 35.2665 1.4948 2.4 -33.5725 1.02704e+07 1.02146e+07 9.52918e+06 -398581 1.57182e+06 -2.58618e+06
200 3 O 6.09339 36.8798 1.4948 -1.2 -8.17948 -6.29869e+06 -918772 -9.63126e+06 -152812 -6.5993e+06 -1.77766e+06
201 3 O 2.40018 34.2925 1.4948 -1.2 -9.65853 -4.04549e+06 -1.48867e+06 -1.14926e+06 1.70142e+06 -515926 -508213
202 3 O 5.31645 34.5604 0.196716 -1.2 -6.35711 -3.76784e+06 -1.36972e+07 -9.17271e+06 -957810 -7.85217e+06 1.36587e+06
203 1 Mg 6.91449 33.243 2.9896 1.2 -7.86041 4.46342e+06 -1.13863e+06 -1.14679e+06 1.31295e+06 -1.42764e+06 1.38681e+06
204 3 O 5.291 34.5604 2.79288 -1.2 -8.91983 -1.86555e+06 -4.44512e+06 -1.54761e+06 1.13289e+06 -207297 -753421
205 1 Mg -0.471101 33.2843 4.4844 1.2 -8.61481 -1.03327e+06 3.05672e+06 2.57437e+06 -371030 -99165.9 -586450
206 2 Si -2.26307 35.9684 4.4844 2.4 -32.4912 1.10202e+07 1.05447e+07 6.66354e+06 180489 -113780 -569791
207 3 O -2.33122 34.3552 4.4844 -1.2 -9.60209 -3.86205e+06 -851973 -2.89317e+06 354006 -23541.6 559642
208 3 O 1.36549 36.9425 4.4844 -1.2 -9.38451 -3.1044e+06 -3.57848e+06 -2.38818e+06 2.32785e+06 -439191 183979
209 3 O -1.52658 36.6746 3.18632 -1.2 -9.11466 -2.61454e+06 -4.25447e+06 -364755 1.15332e+06 87303.5 -1.32715e+06
210 3 O -1.55122 36.6746 5.78248 -1.2 -9.26355 -2.46559e+06 -4.58831e+06 -508416 1.19236e+06 -13910.1 1.48997e+06
211 1 Mg 1.882 35.6175 2.9896 1.2 -7.87189 4.33295e+06 -878860 -1.27797e+06 -1.13357e+06 -1.44147e+06 -1.85976e+06
212 1 Mg 4.69415 35.5762 4.4844 1.2 -8.55741 -994706 3.32515e+06 2.30909e+06 1.20754e+06 -336158 -424109
213 2 Si 2.88522 37.641 4.4844 2.4 -32.6208 1.04291e+07 1.07964e+07 7.16561e+06 778196 -330450 -115536
214 3 O 2.91159 39.2543 4.4844 -1.2 -9.53465 -3.64002e+06 -958984 -3.28422e+06 525869 32427.9 -264075
215 3 O -3.74183 36.667 4.4844 -1.2 -9.50574 -3.42178e+06 -3.45172e+06 -1.9525e+06 -1.38309e+06 -280678 148557
216 3 O 3.58014 36.9349 3.18632 -1.2 -9.12698 -2.47053e+06 -4.43493e+06 -560238 -862015 297843 1.40194e+06
217 1 Mg 1.90997 35.6175 0 1.2 -6.02821 2.97799e+06 2.81422e+06 -4.28129e+06 -1.66073e+06 -805121 521519
218 3 O 3.55582 36.9349 5.78248 -1.2 -9.15038 -2.12932e+06 -4.90856e+06 -1.09347e+06 -867778 371949 -884660
219 1 Mg -0.93068 35.6588 1.4948 1.2 -8.67114 -921971 3.13708e+06 3.89697e+06 1.85438e+06 -295876 -214928
220 2 Si 0.881882 33.5939 1.4948 2.4 -33.7014 9.93849e+06 1.04499e+07 9.73963e+06 1.41384e+06 1.65285e+06 1.39453e+06
221 3 O 0.859602 31.9807 1.4948 -1.2 -7.36928 -6.15721e+06 -831250 -1.48076e+07 1.15162e+06 -8.47676e+06 2.93176e+06
222 3 O 7.507 34.568 1.4948 -1.2 -9.71607 -4.24903e+06 -1.38711e+06 -978949 -940436 -426701 1.43741e+06
223 3 O 0.210186 34.3001 0.196716 -1.2 -6.39706 -3.96817e+06 -1.43869e+07 -9.06692e+06 1.53777e+06 -7.92669e+06 -306784
224 3 O 0.184454 34.3001 2.79288 -1.2 -8.96253 -1.89562e+06 -4.56115e+06 -1.53741e+06 -856434 -232726 1.36993e+06
225 1 Mg 7.07415 37.992 0 1.2 -6.10939 2.50141e+06 2.70883e+06 -3.95413e+06 1.87849e+06 -380531 -1.36676e+06
226 1 Mg 4.36817 42.6997 1.4948 1.2 -8.76081 -1.51389e+06 3.10878e+06 3.88881e+06 -980800 141141 205084
227 2 Si 6.16058 40.0155 1.4948 2.4 -33.4159 1.08707e+07 9.26871e+06 9.6314e+06 -351771 1.3096e+06 -1.30963e+06
228 3 O 6.22815 41.6288 1.4948 -1.2 -8.73969 -5.85344e+06 -634704 -6.55339e+06 26868.7 -4.51044e+06 -1.80744e+06
229 3 O 2.53282 39.0415 1.4948 -1.2 -9.62443 -3.96782e+06 -1.50845e+06 -1.42259e+06 1.71062e+06 -333247 -972720
230 3 O 5.44674 39.3094 0.196716 -1.2 -7.20922 -4.25042e+06 -1.11794e+07 -5.40234e+06 -165615 -5.77159e+06 1.77645e+06
231 1 Mg 7.04922 37.992 2.9896 1.2 -7.80732 4.4293e+06 -960541 -1.36494e+06 1.30535e+06 -1.47233e+06 1.96437e+06
232 3 O 5.42658 39.3094 2.79288 -1.2 -8.93356 -1.99447e+06 -4.37883e+06 -1.49537e+06 1.10534e+06 -263471 -1.39407e+06
233 1 Mg -0.333062 38.0333 4.4844 1.2 -8.55874 -1.19838e+06 3.31279e+06 2.38785e+06 -485882 -44563 90004.8
234 2 Si -2.12255 40.7174 4.4844 2.4 -32.7961 1.12022e+07 9.82489e+06 7.69463e+06 -124279 -279776 847449
235 3 O -2.19212 39.1042 4.4844 -1.2 -9.57905 -3.75371e+06 -892017 -3.00305e+06 496124 -48724.5 -278887
236 3 O 1.50676 41.6915 4.4844 -1.2 -9.27006 -3.5122e+06 -2.99608e+06 -2.74973e+06 2.27218e+06 -358017 -197536
237 3 O -1.3884 41.4236 3.18632 -1.2 -9.00956 -2.65981e+06 -3.90932e+06 -936627 1.2077e+06 185512 -1.73656e+06
238 3 O -1.40713 41.4236 5.78248 -1.2 -8.94012 -2.97642e+06 -3.91115e+06 -1.17696e+06 1.44191e+06 198039 917262
239 1 Mg 2.01892 40.3665 2.9896 1.2 -7.90139 4.45741e+06 -1.08304e+06 -1.13787e+06 -1.07278e+06 -1.5544e+06 -1.31192e+06
240 1 Mg 4.83434 40.3252 4.4844 1.2 -8.6359 -833775 3.07022e+06 2.52842e+06 1.33209e+06 -173614 496009
241 2 Si 3.02698 42.39 4.4844 2.4 -32.9157 1.12089e+07 9.47686e+06 8.18335e+06 1.00632e+06 82656.6 439031
242 3 O 3.05433 44.0033 4.4844 -1.2 -9.43186 -3.94775e+06 -456194 -3.62579e+06 545648 -187154 -42426.2
243 3 O -3.60077 41.416 4.4844 -1.2 -9.30057 -3.53817e+06 -2.94121e+06 -2.67081e+06 -1.27048e+06 -200712 -525092
244 3 O 3.71851 41.6839 3.18632 -1.2 -9.03176 -2.5731e+06 -4.06189e+06 -1.09149e+06 -909572 208974 944026
245 1 Mg 2.04077 40.3665 0 1.2 -6.12944 2.04874e+06 2.46399e+06 -4.26082e+06 -1.84575e+06 409599 1.67298e+06
246 3 O 3.70011 41.6839 5.78248 -1.2 -8.88251 -2.72145e+06 -4.05171e+06 -1.71128e+06 -1.19221e+06 4928.34 -1.5877e+06
247 1 Mg -0.796865 40.4078 1.4948 1.2 -8.72027 -1.12618e+06 3.08489e+06 3.84045e+06 1.72701e+06 47288.6 205524
248 2 Si 1.01387 38.3429 1.4948 2.4 -33.4809 1.0553e+07 9.79129e+06 9.46563e+06 1.50738e+06 1.47843e+06 1.98056e+06
249 3 O 0.989947 36.7297 1.4948 -1.2 -8.17065 -6.35106e+06 -897813 -9.765e+06 1.04821e+06 -6.64602e+06 2.10975e+06
250 3 O 7.63988 39.317 1.4948 -1.2 -9.6692 -4.13149e+06 -1.38846e+06 -1.34401e+06 -921772 -269183 965001
251 3 O 0.340253 39.0491 0.196716 -1.2 -7.22885 -4.38946e+06 -1.20953e+07 -5.27094e+06 403568 -5.86148e+06 -1.53188e+06
252 3 O 0.319795 39.0491 2.79288 -1.2 -8.97837 -1.98902e+06 -4.50953e+06 -1.51114e+06 -828725 -240386 788417
253 1 Mg 7.20667 42.741 0 1.2 -6.17816 1.64999e+06 2.43029e+06 -4.17776e+06 1.99938e+06 910329 -1.91312e+06
254 1 Mg 4.50613 47.4487 1.4948 1.2 -8.69728 -1.58183e+06 3.31871e+06 3.44182e+06 -854517 493102 -29420.5
255 2 Si 6.29731 44.7645 1.4948 2.4 -33.2616 1.11614e+07 8.61119e+06 9.72804e+06 -228776 888209 -1.25023e+06
256 3 O 6.36567 46.3778 1.4948 -1.2 -9.17353 -4.98857e+06 -710687 -4.54575e+06 175160 -2.69481e+06 -1.33255e+06
257 3 O 2.669 43.7905 1.4948 -1.2 -9.56171 -3.91029e+06 -1.53338e+06 -1.8251e+06 1.7146e+06 -247232 -1.03517e+06
258 3 O 5.58048 44.0584 0.196716 -1.2 -7.94211 -4.14967e+06 -8.54546e+06 -2.99841e+06 321818 -3.72137e+06 2.22374e+06
259 1 Mg 7.1879 42.741 2.9896 1.2 -7.90739 4.46824e+06 -1.3264e+06 -864311 1.25755e+06 -1.64733e+06 2.1471e+06
260 3 O 5.56564 44.0584 2.79288 -1.2 -8.88538 -2.11344e+06 -4.06969e+06 -1.78153e+06 1.12122e+06 -300587 -1.30211e+06
261 1 Mg -0.19105 42.7823 4.4844 1.2 -8.69543 -812806 2.71602e+06 2.81533e+06 -489563 -139017 159166
262 2 Si -1.97909 45.4664 4.4844 2.4 -32.8837 1.11505e+07 9.7176e+06 7.99896e+06 94611.2 -603963 16965.2
263 3 O -2.04947 43.8532 4.4844 -1.2 -9.41349 -3.9181e+06 -457300 -3.53056e+06 491279 212557 -64788.6
264 3 O 1.65063 46.4405 4.4844 -1.2 -9.35525 -3.59434e+06 -3.04059e+06 -2.4881e+06 2.34297e+06 -283318 125445
265 3 O -1.24745 46.1726 3.18632 -1.2 -9.01213 -2.56432e+06 -3.97482e+06 -1.06606e+06 1.15132e+06 242460 -1.4283e+06
266 3 O -1.26044 46.1726 5.78248 -1.2 -9.01214 -2.79677e+06 -4.0379e+06 -1.03053e+06 1.26523e+06 405809 1.29821e+06
267 1 Mg 2.15896 45.1155 2.9896 1.2 -7.90579 4.54792e+06 -1.18789e+06 -1.10069e+06 -1.0718e+06 -1.59234e+06 -1.53283e+06
268 1 Mg 4.97763 45.0742 4.4844 1.2 -8.74511 -884790 2.88753e+06 2.94106e+06 1.28371e+06 24348.6 -3713.25