ITEM: TIMESTEP
2100
ITEM: NUMBER OF ATOMS
10500
ITEM: BOX BOUNDS xy xz yz pp pp pp
0.0000000000000000e+00 1.5297749999999999e+01 5.0992499999999996e+00
0.0000000000000000e+00 1.1872499999999999e+02 0.0000000000000000e+00
0.0000000000000000e+00 8.9688000000000002e+01 0.0000000000000000e+00
ITEM: ATOMS id type element xu yu zu q c_pe c_s[1] c_s[2] c_s[3] c_s[4] c_s[5] c_s[6]
1 1 Mg 6.2404 -6.37941e-06 0 1.2 -4.48722 7.98171e+06 -1.88401e+06 -6.17013e+06 -15458.5 2.62002e+06 -275541
2 1 Mg 3.46349 4.70768 1.4948 1.2 -8.55463 -197368 2.74189e+06 4.25759e+06 -937172 -628834 -10625.7
3 2 Si 5.2885 2.02354 1.4948 2.4 -35.3867 1.02212e+07 1.09634e+07 1.13036e+07 8.86185e+06 707567 -3.28563e+06
4 3 O 5.33628 3.63678 1.4948 -1.2 -4.65261 -934537 -1.476e+06 -3.36336e+07 -332090 3.80836e+06 -3.76983e+06
5 3 O 1.67294 1.04952 1.4948 -1.2 -0.985822 -2.04417e+07 -7.93611e+07 -2.11252e+06 -2.41257e+07 -111491 -348.119
6 3 O 4.59532 1.31737 0.196716 -1.2 -2.96958 -2.0533e+06 -6.66194e+06 -3.05053e+07 -6.03098e+06 6.24473e+06 -2.55865e+06
7 1 Mg 6.18956 -6.37941e-06 2.9896 1.2 -5.02238 1.69117e+06 -2.82491e+07 -2.93067e+06 -8.8418e+06 2.48679e+06 3.96819e+06
8 3 O 4.55118 1.31737 2.79288 -1.2 -7.42495 -7517.25 -4.6772e+06 -3.16037e+06 -2.96169e+06 -3.41976e+06 -1.02324e+06
9 1 Mg -1.20682 0.0413099 4.4844 1.2 8.78741 -3.06399e+07 -9.34393e+07 -102748 -2.85115e+07 -1.25231e+06 100129
10 2 Si -3.0337 2.72544 4.4844 2.4 -33.3273 1.46026e+07 6.96717e+06 8.19923e+06 1.5848e+06 199707 -866904
11 3 O -3.08099 1.11221 4.4844 -1.2 -9.49192 -6.31145e+06 102386 -2.29164e+06 -1.20881e+06 -275688 361274
12 3 O 0.582463 3.69946 4.4844 -1.2 -8.88406 -3.36278e+06 -5.49917e+06 -2.86891e+06 -577922 -112109 -9319.48
13 3 O -2.29524 3.43162 3.18632 -1.2 -8.97665 -4.32145e+06 -2.53053e+06 -602055 1.09227e+06 -845516 -830152
14 3 O -2.34216 3.43162 5.78248 -1.2 -8.73387 -4.01522e+06 -3.23347e+06 -1.65471e+06 792565 536530 1.43639e+06
15 1 Mg 1.12778 2.37449 2.9896 1.2 -7.68182 5.30581e+06 -1.65719e+06 -660409 -3.27737e+06 -4.22162e+06 -2.3482e+06
16 1 Mg 3.92855 2.33318 4.4844 1.2 -8.55149 -3.96828e+06 4.89177e+06 4.8045e+06 1.38534e+06 309505 392749
17 2 Si 2.09341 4.39804 4.4844 2.4 -32.527 1.22609e+07 6.85108e+06 8.9282e+06 191264 -329365 393768
18 3 O 2.09991 6.01128 4.4844 -1.2 -9.41959 -4.10808e+06 -40872.2 -3.91487e+06 546572 -118729 -61163.8
19 3 O -4.52137 3.42402 4.4844 -1.2 -9.08999 -3.06551e+06 -2.88071e+06 -3.58999e+06 -2.40651e+06 -907356 161192
20 3 O 2.80834 3.69187 3.18632 -1.2 -9.25653 -2.25839e+06 -2.83087e+06 -401522 460305 -473325 -397766
21 1 Mg 1.17857 2.37449 0 1.2 -5.19274 -505699 -1.48305e+07 -6.42661e+06 6.51708e+06 1.20496e+06 4.46289e+06
22 3 O 2.76143 3.69187 5.78248 -1.2 -9.27518 -2.94208e+06 -2.44362e+06 -1.17072e+06 543770 54756.2 34884.1
23 1 Mg -1.67381 2.41581 1.4948 1.2 -7.65189 1.65635e+06 -223590 4.09353e+06 1.3542e+06 -581914 901183
24 2 Si 0.16286 0.350945 1.4948 2.4 -24.6895 -8.0065e+06 1.23749e+07 1.14865e+07 1.58255e+06 2.81276e+06 1.03436e+06
25 3 O 0.15972 -1.26229 1.4948 -1.2 -4.69728 -1.07694e+07 -7.97038e+06 -2.90195e+07 -5.59978e+06 -8.51983e+06 -2.60028e+06
26 3 O 6.77654 1.32496 1.4948 -1.2 -10.2863 -5.83931e+06 1.79141e+06 -1.41582e+06 -642143 -659083 1.17207e+06
27 3 O -0.508028 1.05712 0.196716 -1.2 -9.46793 16007.5 -4.65513e+06 -723377 -547712 196439 -4.44152e+06
28 3 O -0.552171 1.05712 2.79288 -1.2 -6.71473 -5.43577e+06 -4.56551e+06 -2.4724e+07 1.42387e+06 -6.76713e+06 -5.42934e+06
29 1 Mg 6.31713 4.74899 0 1.2 -5.01942 501064 -1.28558e+07 -6.15557e+06 -7.30877e+06 1.42715e+06 -3.70665e+06
30 1 Mg 3.54847 9.45668 1.4948 1.2 -8.41229 410800 1.78079e+06 4.3611e+06 -956407 -932909 -364880
31 2 Si 5.36879 6.77254 1.4948 2.4 -34.4618 7.59211e+06 1.21797e+07 1.13901e+07 1.65991e+06 159151 -2.07183e+06
32 3 O 5.41937 8.38578 1.4948 -1.2 -4.67647 -476271 -1.00139e+06 -3.51324e+07 768312 1.10239e+06 -4.18593e+06
33 3 O 1.75158 5.79852 1.4948 -1.2 -9.41861 -4.12621e+06 -2.41825e+06 -1.3778e+06 1.9679e+06 -1.58163e+06 -1.27451e+06
34 3 O 4.67421 6.06637 0.196716 -1.2 -3.68622 -4511.43 -1.0187e+07 -3.13824e+07 -2.00813e+06 1.3008e+06 -4.35897e+06
35 1 Mg 6.26654 4.74899 2.9896 1.2 -8.10587 4.25425e+06 -1.63148e+06 -65482.4 1.79948e+06 -819481 1.83302e+06
36 3 O 4.63043 6.06637 2.79288 -1.2 -8.77403 -1.76497e+06 -4.01867e+06 -2.11666e+06 941298 -113053 -1.39487e+06
37 1 Mg -1.12976 4.79031 4.4844 1.2 -8.88483 -518825 2.81796e+06 2.80487e+06 -682859 -422599 -187329
38 2 Si -2.9517 7.47444 4.4844 2.4 -33.0076 1.15817e+07 8.98081e+06 8.47875e+06 43956.9 70576.7 -153499
39 3 O -3.00198 5.86121 4.4844 -1.2 -9.36003 -4.1317e+06 -207152 -3.68267e+06 48866.2 -274235 125662
40 3 O 0.666315 8.44846 4.4844 -1.2 -9.18161 -3.46019e+06 -2.66323e+06 -3.23901e+06 2.1173e+06 -451584 67187.7
41 3 O -2.21213 8.18062 3.18632 -1.2 -9.00918 -3.06585e+06 -3.43337e+06 -607120 1.10424e+06 -325509 -1.39367e+06
42 3 O -2.25864 8.18062 5.78248 -1.2 -8.90406 -3.06535e+06 -3.71672e+06 -1.6588e+06 1.06114e+06 -151417 1.38851e+06
43 1 Mg 1.20893 7.12349 2.9896 1.2 -8.08022 4.23986e+06 -1.5648e+06 -179623 -1.2819e+06 -1.3544e+06 -1.72203e+06
44 1 Mg 4.00982 7.08218 4.4844 1.2 -8.73894 -682709 2.57023e+06 3.03374e+06 1.0082e+06 -285759 82887.2
45 2 Si 2.17861 9.14704 4.4844 2.4 -33 1.14307e+07 8.95773e+06 8.60966e+06 592116 -124726 37531.7
46 3 O 2.18828 10.7603 4.4844 -1.2 -9.38375 -4.0354e+06 -193408 -3.87124e+06 435937 -168598 34505
47 3 O -4.43805 8.17302 4.4844 -1.2 -9.23304 -3.52821e+06 -2.64549e+06 -3.07196e+06 -1.51914e+06 -507566 -19076
48 3 O 2.89193 8.44087 3.18632 -1.2 -9.02612 -2.9313e+06 -3.60855e+06 -692937 -924196 -207896 1.3015e+06
49 1 Mg 1.25915 7.12349 0 1.2 -5.40394 1.11498e+06 -7.51723e+06 -6.38598e+06 5.89804e+06 1.37266e+06 2.54046e+06
50 3 O 2.84547 8.44087 5.78248 -1.2 -8.92046 -2.99554e+06 -3.80726e+06 -1.76183e+06 -876166 -107773 -1.21361e+06
51 1 Mg -1.59284 7.16481 1.4948 1.2 -8.3352 946241 1.41757e+06 4.26442e+06 1.45961e+06 -907962 271221
52 2 Si 0.240329 5.09994 1.4948 2.4 -34.2245 8.53041e+06 1.1019e+07 1.1233e+07 -1.95678e+06 -1.07716e+06 1.77209e+06
53 3 O 0.234538 3.48671 1.4948 -1.2 -5.14983 -1.88632e+06 387734 -3.3785e+07 398679 5.19225e+06 4.06814e+06
54 3 O 6.85564 6.07396 1.4948 -1.2 -9.49859 -4.54534e+06 -1.87013e+06 -1.34012e+06 -1.34247e+06 -1.84391e+06 1.24384e+06
55 3 O -0.429565 5.80612 0.196716 -1.2 -3.93558 -801973 -8.82603e+06 -3.15029e+07 1.85023e+06 1.19285e+06 4.6416e+06
56 3 O -0.473377 5.80612 2.79288 -1.2 -8.85397 -2.25397e+06 -3.59571e+06 -2.02223e+06 -786586 315904 1.38426e+06
57 1 Mg 6.40169 9.49799 0 1.2 -5.36259 1.69928e+06 -6.38136e+06 -6.66142e+06 -5.49097e+06 997367 -2.50993e+06
58 1 Mg 3.64209 14.2057 1.4948 1.2 -8.46377 295177 1.81675e+06 4.48233e+06 -1.03165e+06 -975372 -379943
59 2 Si 5.45748 11.5215 1.4948 2.4 -34.4145 7.82744e+06 1.17625e+07 1.14724e+07 895154 341656 -2.28343e+06
60 3 O 5.51101 13.1348 1.4948 -1.2 -4.72658 -632803 -893968 -3.4823e+07 466617 -2.53782e+06 -4.25985e+06
61 3 O 1.83851 10.5475 1.4948 -1.2 -9.49601 -4.3439e+06 -1.90727e+06 -1.27531e+06 1.53649e+06 -1.57398e+06 -1.03178e+06
62 3 O 4.7611 10.8154 0.196716 -1.2 -3.54396 433860 -1.15146e+07 -3.19437e+07 -2.46958e+06 -1.7559e+06 -4.22452e+06
63 1 Mg 6.35203 9.49799 2.9896 1.2 -8.04827 4.25163e+06 -1.57897e+06 -209923 1.30961e+06 -1.17191e+06 1.95671e+06
64 3 O 4.71833 10.8154 2.79288 -1.2 -8.80138 -1.97108e+06 -3.7927e+06 -2.10243e+06 1.04871e+06 35007 -1.26182e+06
65 1 Mg -1.0438 9.53931 4.4844 1.2 -8.76157 -758065 2.53075e+06 3.09642e+06 -573195 -268022 -78527.4
66 2 Si -2.8604 12.2234 4.4844 2.4 -32.9927 1.15677e+07 8.87814e+06 8.57273e+06 -61287.8 -41745.1 -65958.4
67 3 O -2.91391 10.6102 4.4844 -1.2 -9.39987 -4.05931e+06 -181821 -3.72313e+06 237323 -207381 3343.46
68 3 O 0.7596 13.1975 4.4844 -1.2 -9.1789 -3.44966e+06 -2.70189e+06 -3.21936e+06 2.15524e+06 -488819 101813
69 3 O -2.12001 12.9296 3.18632 -1.2 -9.00357 -3.0007e+06 -3.4683e+06 -651547 1.15999e+06 -236286 -1.4503e+06
70 3 O -2.16532 12.9296 5.78248 -1.2 -8.89633 -3.0548e+06 -3.69006e+06 -1.6971e+06 1.11715e+06 -76324.7 1.41034e+06
71 1 Mg 1.29891 11.8725 2.9896 1.2 -8.07205 4.27902e+06 -1.53657e+06 -263332 -1.17737e+06 -1.22606e+06 -1.75359e+06
72 1 Mg 4.10033 11.8312 4.4844 1.2 -8.74334 -592706 2.50007e+06 3.02285e+06 1.13071e+06 -320150 28881.6
73 2 Si 2.27333 13.896 4.4844 2.4 -32.9982 1.14944e+07 8.96022e+06 8.53796e+06 664291 -98739.7 -96879.2
74 3 O 2.28634 15.5093 4.4844 -1.2 -9.38778 -4.08134e+06 -198679 -3.81692e+06 465825 -153361 70143.8
75 3 O -4.34533 12.922 4.4844 -1.2 -9.23421 -3.57743e+06 -2.56992e+06 -3.0952e+06 -1.47364e+06 -477189 -8809.43
76 3 O 2.98455 13.1899 3.18632 -1.2 -9.02888 -2.97575e+06 -3.57284e+06 -702731 -960098 -142435 1.36945e+06
77 1 Mg 1.34779 11.8725 0 1.2 -5.5965 2.93153e+06 -2.78504e+06 -6.7278e+06 3.56579e+06 805921 1.51097e+06
78 3 O 2.93934 13.1899 5.78248 -1.2 -8.9098 -3.00348e+06 -3.79498e+06 -1.79403e+06 -923929 -134617 -1.12348e+06
79 1 Mg -1.50344 11.9138 1.4948 1.2 -8.41426 623839 1.74731e+06 4.36753e+06 1.56015e+06 -937330 339124
80 2 Si 0.326006 9.84894 1.4948 2.4 -34.3967 7.86191e+06 1.18146e+07 1.13297e+07 -603584 113397 2.16794e+06
81 3 O 0.317364 8.23571 1.4948 -1.2 -4.67633 -585671 -867628 -3.52864e+07 -125971 1.17936e+06 4.23816e+06
82 3 O 6.94307 10.823 1.4948 -1.2 -9.53573 -4.48913e+06 -1.72805e+06 -1.20475e+06 -982139 -1.53631e+06 1.11208e+06
83 3 O -0.343122 10.5551 0.196716 -1.2 -3.63877 150584 -1.09774e+07 -3.20105e+07 2.4631e+06 -2.05432e+06 4.5694e+06
84 3 O -0.385966 10.5551 2.79288 -1.2 -8.82937 -1.99049e+06 -3.85088e+06 -2.12492e+06 -857850 83566.9 1.17423e+06
85 1 Mg 6.49448 14.247 0 1.2 -5.55918 3.38951e+06 -1.99148e+06 -6.85422e+06 -2.96897e+06 253389 -1.6188e+06
86 1 Mg 3.74457 18.9547 1.4948 1.2 -8.5407 87037.3 1.931e+06 4.6223e+06 -1.11781e+06 -973630 -326925
87 2 Si 5.55495 16.2705 1.4948 2.4 -34.3831 8.06703e+06 1.14332e+07 1.15303e+07 527945 800889 -2.43048e+06
88 3 O 5.6115 17.8838 1.4948 -1.2 -5.0456 -1.64567e+06 -780911 -3.21811e+07 79052 -6.0601e+06 -4.07061e+06
89 3 O 1.93416 15.2965 1.4948 -1.2 -9.53969 -4.40949e+06 -1.57271e+06 -1.22459e+06 1.5349e+06 -1.36862e+06 -954272
90 3 O 4.85636 15.5644 0.196716 -1.2 -3.57172 460171 -1.31946e+07 -3.04124e+07 -3.03261e+06 -5.12431e+06 -3.63896e+06
91 1 Mg 6.44662 14.247 2.9896 1.2 -8.03491 4.32742e+06 -1.61311e+06 -273957 1.29296e+06 -1.18326e+06 1.94591e+06
92 3 O 4.81537 15.5644 2.79288 -1.2 -8.79034 -1.96217e+06 -3.79905e+06 -2.15352e+06 1.06417e+06 -22421.1 -1.22085e+06
93 1 Mg -0.948271 14.2883 4.4844 1.2 -8.76957 -808307 2.54591e+06 3.13656e+06 -563730 -276938 -69435.8
94 2 Si -2.75928 16.9724 4.4844 2.4 -33.0212 1.15757e+07 8.87188e+06 8.61825e+06 -35024.9 -57803.5 -67297.6
95 3 O -2.81617 15.3592 4.4844 -1.2 -9.38924 -4.05112e+06 -183237 -3.73923e+06 278764 -183643 15101.7
96 3 O 0.862762 17.9465 4.4844 -1.2 -9.17238 -3.48506e+06 -2.69547e+06 -3.20702e+06 2.17448e+06 -448997 97775
97 3 O -2.0185 17.6786 3.18632 -1.2 -8.98795 -2.98464e+06 -3.45972e+06 -720889 1.16464e+06 -152055 -1.45272e+06
98 3 O -2.06164 17.6786 5.78248 -1.2 -8.86544 -3.04758e+06 -3.68257e+06 -1.73954e+06 1.13378e+06 -81654.9 1.41942e+06
99 1 Mg 1.39817 16.6215 2.9896 1.2 -8.0604 4.37855e+06 -1.55673e+06 -363507 -1.16731e+06 -1.23983e+06 -1.72936e+06
100 1 Mg 4.20062 16.5802 4.4844 1.2 -8.74802 -578547 2.50619e+06 3.0119e+06 1.1598e+06 -277221 13548.8
101 2 Si 2.37796 18.645 4.4844 2.4 -33.005 1.15999e+07 8.92757e+06 8.47417e+06 707914 -120319 -70143.9
102 3 O 2.39434 20.2583 4.4844 -1.2 -9.38 -4.10997e+06 -191239 -3.8114e+06 494562 -136200 59065.5
103 3 O -4.24274 17.671 4.4844 -1.2 -9.22292 -3.60207e+06 -2.56147e+06 -3.09849e+06 -1.42678e+06 -489768 -10686.1
104 3 O 3.08659 17.9389 3.18632 -1.2 -9.02118 -2.98752e+06 -3.57074e+06 -744974 -943217 -64511.5 1.35877e+06
105 1 Mg 1.44478 16.6215 0 1.2 -5.6996 4.57852e+06 162052 -6.71406e+06 1.39957e+06 -60145 787539
106 3 O 3.0436 17.9389 5.78248 -1.2 -8.91568 -3.06533e+06 -3.79063e+06 -1.7062e+06 -919687 -170658 -1.15768e+06
107 1 Mg -1.40524 16.6628 1.4948 1.2 -8.48541 433619 1.86913e+06 4.50227e+06 1.68886e+06 -965599 289745
108 2 Si 0.420358 14.5979 1.4948 2.4 -34.3878 7.9407e+06 1.16448e+07 1.13905e+07 -136987 561102 2.32636e+06
109 3 O 0.408732 12.9847 1.4948 -1.2 -4.71356 -653481 -884107 -3.49672e+07 226341 -2.56257e+06 4.33039e+06
110 3 O 7.03923 15.572 1.4948 -1.2 -9.57774 -4.5325e+06 -1.4186e+06 -1.1623e+06 -945121 -1.31332e+06 1.09293e+06
111 3 O -0.248332 15.3041 0.196716 -1.2 -3.67377 133470 -1.27267e+07 -3.04431e+07 3.2541e+06 -5.41731e+06 4.09459e+06
112 3 O -0.289436 15.3041 2.79288 -1.2 -8.81874 -1.94319e+06 -3.90565e+06 -2.17704e+06 -849489 42393.4 1.14404e+06
113 1 Mg 6.59566 18.996 0 1.2 -5.68214 4.78073e+06 576018 -6.57272e+06 -917728 -666005 -992125
114 1 Mg 3.85574 23.7037 1.4948 1.2 -8.62209 -196276 2.13148e+06 4.69568e+06 -1.18864e+06 -920119 -200233
115 2 Si 5.66125 21.0195 1.4948 2.4 -34.306 8.51505e+06 1.09836e+07 1.14702e+07 177661 1.23234e+06 -2.42028e+06
116 3 O 5.72074 22.6328 1.4948 -1.2 -5.64884 -3.32233e+06 -673731 -2.73042e+07 -214542 -8.51425e+06 -3.66763e+06
117 3 O 2.03867 20.0455 1.4948 -1.2 -9.56618 -4.4239e+06 -1.2853e+06 -1.25268e+06 1.56932e+06 -1.14117e+06 -925474
118 3 O 4.96004 20.3134 0.196716 -1.2 -3.89435 -261741 -1.45707e+07 -2.66115e+07 -3.18114e+06 -7.94542e+06 -2.68547e+06
119 1 Mg 6.55057 18.996 2.9896 1.2 -8.02661 4.41573e+06 -1.64814e+06 -339982 1.299e+06 -1.19168e+06 1.93093e+06
120 3 O 4.92172 20.3134 2.79288 -1.2 -8.77781 -1.95797e+06 -3.8162e+06 -2.1971e+06 1.08449e+06 -87973.7 -1.20779e+06
121 1 Mg -0.84282 19.0373 4.4844 1.2 -8.78619 -833424 2.53162e+06 3.1948e+06 -521043 -277024 -77992.6
122 2 Si -2.64823 21.7214 4.4844 2.4 -33.0159 1.15986e+07 8.93677e+06 8.52506e+06 -10436 -87648.1 -95609.5
123 3 O -2.70847 20.1082 4.4844 -1.2 -9.3788 -4.06529e+06 -178769 -3.73858e+06 320111 -159260 48758.4
124 3 O 0.97581 22.6955 4.4844 -1.2 -9.1762 -3.49684e+06 -2.74393e+06 -3.14571e+06 2.19431e+06 -450211 86209
125 3 O -1.9076 22.4276 3.18632 -1.2 -8.98063 -2.96615e+06 -3.49682e+06 -751775 1.16646e+06 -67111.6 -1.47089e+06
126 3 O -1.9475 22.4276 5.78248 -1.2 -8.88135 -3.01691e+06 -3.73898e+06 -1.65728e+06 1.16264e+06 -62395.2 1.43527e+06
127 1 Mg 1.50678 21.3705 2.9896 1.2 -8.04897 4.46764e+06 -1.56231e+06 -465323 -1.15605e+06 -1.26578e+06 -1.67725e+06
128 1 Mg 4.31086 21.3292 4.4844 1.2 -8.75621 -591235 2.5271e+06 3.01876e+06 1.16996e+06 -264933 3750.18
129 2 Si 2.49243 23.394 4.4844 2.4 -32.9985 1.15431e+07 9.0526e+06 8.39538e+06 746957 -123681 -16317.2
130 3 O 2.51204 25.0073 4.4844 -1.2 -9.38473 -4.07246e+06 -259145 -3.77821e+06 523423 -125543 -12577.4
131 3 O -4.13026 22.42 4.4844 -1.2 -9.2321 -3.62144e+06 -2.61103e+06 -3.01635e+06 -1.38388e+06 -459302 -17759.2
132 3 O 3.19799 22.6879 3.18632 -1.2 -9.0133 -2.95314e+06 -3.62116e+06 -798829 -923329 23973.6 1.31643e+06
133 1 Mg 1.5501 21.3705 0 1.2 -5.76655 5.46051e+06 1.66477e+06 -6.21345e+06 -65341.8 -985747 401660
134 3 O 3.1583 22.6879 5.78248 -1.2 -8.90962 -2.9938e+06 -3.87339e+06 -1.70662e+06 -911501 -137131 -1.15868e+06
135 1 Mg -1.29822 21.4118 1.4948 1.2 -8.56654 199829 2.02348e+06 4.60729e+06 1.80672e+06 -941686 248575
136 2 Si 0.523568 19.3469 1.4948 2.4 -34.3401 8.27723e+06 1.12453e+07 1.14053e+07 311909 978186 2.45808e+06
137 3 O 0.508934 17.7337 1.4948 -1.2 -5.03468 -1.67487e+06 -775944 -3.2309e+07 667577 -6.07569e+06 4.14669e+06
138 3 O 7.14425 20.321 1.4948 -1.2 -9.60657 -4.55246e+06 -1.14191e+06 -1.18194e+06 -935606 -1.07951e+06 1.06371e+06
139 3 O -0.145107 20.0531 0.196716 -1.2 -3.99893 -636700 -1.42391e+07 -2.66041e+07 3.67729e+06 -8.19378e+06 3.13789e+06
140 3 O -0.183601 20.0531 2.79288 -1.2 -8.80944 -1.93966e+06 -3.93157e+06 -2.21839e+06 -846256 -5529.78 1.10336e+06
141 1 Mg 6.70502 23.745 0 1.2 -5.7805 5.29857e+06 1.86641e+06 -5.83961e+06 411960 -1.48536e+06 -571660
142 1 Mg 3.97493 28.4527 1.4948 1.2 -8.70458 -526415 2.3468e+06 4.71004e+06 -1.22273e+06 -781649 -51763.6
143 2 Si 5.77602 25.7685 1.4948 2.4 -34.1656 9.13646e+06 1.04826e+07 1.12126e+07 -118097 1.54139e+06 -2.21047e+06
144 3 O 5.83821 27.3818 1.4948 -1.2 -6.4497 -5.05729e+06 -568688 -2.11558e+07 -340617 -9.2929e+06 -3.13688e+06
145 3 O 2.15175 24.7945 1.4948 -1.2 -9.58434 -4.3853e+06 -1.11807e+06 -1.2954e+06 1.6138e+06 -919454 -955518
146 3 O 5.07184 25.0624 0.196716 -1.2 -4.52272 -1.52595e+06 -1.52568e+07 -2.10332e+07 -2.78395e+06 -9.43058e+06 -1.49242e+06
147 1 Mg 6.66374 23.745 2.9896 1.2 -8.00515 4.49225e+06 -1.61971e+06 -476397 1.30585e+06 -1.23683e+06 1.9626e+06
148 3 O 5.03707 25.0624 2.79288 -1.2 -8.7785 -1.96166e+06 -3.8765e+06 -2.1721e+06 1.09631e+06 -148225 -1.25673e+06
149 1 Mg -0.727559 23.7863 4.4844 1.2 -8.77381 -857676 2.59199e+06 3.13073e+06 -492628 -247840 -46737.1
150 2 Si -2.5277 26.4704 4.4844 2.4 -32.9935 1.15971e+07 9.03368e+06 8.39661e+06 38309.7 -164848 90914.7
151 3 O -2.59107 24.8572 4.4844 -1.2 -9.3941 -4.05336e+06 -242430 -3.65639e+06 362419 -106904 -9868.31
152 3 O 1.09817 27.4445 4.4844 -1.2 -9.17945 -3.5097e+06 -2.78071e+06 -3.0973e+06 2.25e+06 -433313 -14021.2
153 3 O -1.78784 27.1766 3.18632 -1.2 -8.97092 -2.93425e+06 -3.54635e+06 -808167 1.16282e+06 18167.5 -1.56113e+06
154 3 O -1.82343 27.1766 5.78248 -1.2 -8.90102 -3.01895e+06 -3.76494e+06 -1.53952e+06 1.14673e+06 -19009.3 1.32834e+06
155 1 Mg 1.62435 26.1195 2.9896 1.2 -8.03158 4.53575e+06 -1.52589e+06 -594652 -1.1511e+06 -1.30662e+06 -1.56536e+06
156 1 Mg 4.43064 26.0782 4.4844 1.2 -8.75485 -627811 2.57039e+06 3.01102e+06 1.20115e+06 -243122 81373.1
157 2 Si 2.61607 28.143 4.4844 2.4 -33 1.15454e+07 9.09505e+06 8.35356e+06 738259 -147308 115802
158 3 O 2.63853 29.7563 4.4844 -1.2 -9.38104 -4.09873e+06 -268194 -3.7494e+06 555127 -81377.4 -81191.8
159 3 O -4.00841 27.169 4.4844 -1.2 -9.2387 -3.63346e+06 -2.64438e+06 -2.96375e+06 -1.3688e+06 -405019 -105715
160 3 O 3.3182 27.4369 3.18632 -1.2 -9.00275 -2.91228e+06 -3.67463e+06 -879434 -901363 107009 1.22618e+06
161 1 Mg 1.66335 26.1195 0 1.2 -5.84635 5.30421e+06 2.30868e+06 -5.35398e+06 -896796 -1.58515e+06 295173
162 3 O 3.28288 27.4369 5.78248 -1.2 -8.90588 -2.962e+06 -3.88215e+06 -1.69435e+06 -902272 -120331 -1.19421e+06
163 1 Mg -1.18278 26.1608 1.4948 1.2 -8.64794 -109080 2.24169e+06 4.63617e+06 1.88636e+06 -836148 242010
164 2 Si 0.635424 24.0959 1.4948 2.4 -34.2295 8.80175e+06 1.0801e+07 1.12155e+07 751832 1.35677e+06 2.58931e+06
165 3 O 0.617906 22.4827 1.4948 -1.2 -5.63952 -3.36342e+06 -663737 -2.74227e+07 1.00931e+06 -8.53157e+06 3.65932e+06
166 3 O 7.25781 25.07 1.4948 -1.2 -9.62728 -4.52219e+06 -984854 -1.21631e+06 -933426 -840637 990577
167 3 O -0.0337363 24.8021 0.196716 -1.2 -4.61477 -1.87632e+06 -1.52128e+07 -2.09911e+07 3.5021e+06 -9.63372e+06 1.80868e+06
168 3 O -0.0687235 24.8021 2.79288 -1.2 -8.81495 -1.95272e+06 -4.00498e+06 -2.17579e+06 -838499 -73171 1.00274e+06
169 1 Mg 6.82195 28.494 0 1.2 -5.90251 4.83984e+06 2.36284e+06 -4.80229e+06 1.15659e+06 -1.82751e+06 -419334
170 1 Mg 4.10106 33.2017 1.4948 1.2 -8.77649 -878414 2.53494e+06 4.64865e+06 -1.20356e+06 -543816 33855.1
171 2 Si 5.89839 30.5175 1.4948 2.4 -33.9915 9.87949e+06 9.81707e+06 1.09392e+07 -325405 1.67935e+06 -1.94313e+06
172 3 O 5.96289 32.1308 1.4948 -1.2 -7.2999 -6.20299e+06 -444346 -1.51169e+07 -290135 -8.45232e+06 -2.55039e+06
173 3 O 2.27266 29.5435 1.4948 -1.2 -9.58351 -4.32832e+06 -1.00807e+06 -1.41563e+06 1.65824e+06 -707816 -995049
174 3 O 5.19102 29.8114 0.196716 -1.2 -5.36482 -2.89045e+06 -1.48177e+07 -1.49563e+07 -1.9402e+06 -9.28142e+06 -226827
175 1 Mg 6.78546 28.494 2.9896 1.2 -7.99126 4.56219e+06 -1.60878e+06 -574090 1.31732e+06 -1.30121e+06 2.03194e+06
176 3 O 5.16061 29.8114 2.79288 -1.2 -8.77812 -2.015e+06 -3.88571e+06 -2.14926e+06 1.10592e+06 -217836 -1.30868e+06
177 1 Mg -0.603205 28.5353 4.4844 1.2 -8.77928 -877301 2.60518e+06 3.13872e+06 -476140 -205194 77930.6
178 2 Si -2.39877 31.2194 4.4844 2.4 -33.0354 1.16177e+07 8.96334e+06 8.51939e+06 56890.4 -173216 221306
179 3 O -2.46483 29.6062 4.4844 -1.2 -9.38282 -4.05939e+06 -242908 -3.65973e+06 384897 -79094.9 -107852
180 3 O 1.22864 32.1935 4.4844 -1.2 -9.16934 -3.56487e+06 -2.75388e+06 -3.0878e+06 2.25652e+06 -367463 -45926.1
181 3 O -1.66032 31.9256 3.18632 -1.2 -8.94585 -2.89257e+06 -3.54543e+06 -968030 1.16111e+06 89693.7 -1.58905e+06
182 3 O -1.69072 31.9256 5.78248 -1.2 -8.85236 -3.02667e+06 -3.67912e+06 -1.67035e+06 1.18121e+06 11952.8 1.31634e+06
183 1 Mg 1.7499 30.8685 2.9896 1.2 -8.02432 4.61284e+06 -1.5323e+06 -670361 -1.13506e+06 -1.38969e+06 -1.47792e+06
184 1 Mg 4.55894 30.8272 4.4844 1.2 -8.76662 -613346 2.56628e+06 3.02076e+06 1.22289e+06 -182426 151976
185 2 Si 2.7476 32.892 4.4844 2.4 -33.0236 1.15878e+07 9.03585e+06 8.41125e+06 771492 -135152 169968
186 3 O 2.77235 34.5053 4.4844 -1.2 -9.37679 -4.08548e+06 -273696 -3.76625e+06 581743 -65087.5 -67380.7
187 3 O -3.87837 31.918 4.4844 -1.2 -9.22468 -3.67852e+06 -2.60706e+06 -2.97726e+06 -1.3333e+06 -367014 -150406
188 3 O 3.44611 32.1859 3.18632 -1.2 -8.98299 -2.88032e+06 -3.68884e+06 -1.02064e+06 -881662 174859 1.16824e+06
189 1 Mg 1.7837 30.8685 0 1.2 -5.96622 4.34815e+06 2.44457e+06 -4.40245e+06 -1.35093e+06 -1.53284e+06 447111
190 3 O 3.41602 32.1859 5.78248 -1.2 -8.87974 -2.99022e+06 -3.81656e+06 -1.7681e+06 -902252 -138683 -1.30553e+06
191 1 Mg -1.05984 30.9098 1.4948 1.2 -8.72889 -458546 2.42464e+06 4.63059e+06 1.90456e+06 -627270 217581
192 2 Si 0.755243 28.8449 1.4948 2.4 -34.0753 9.48887e+06 1.02004e+07 1.09667e+07 1.13004e+06 1.59464e+06 2.62768e+06
193 3 O 0.735127 27.2317 1.4948 -1.2 -6.44217 -5.10669e+06 -558191 -2.12661e+07 1.17676e+06 -9.31731e+06 2.98319e+06
194 3 O 7.37914 29.819 1.4948 -1.2 -9.62552 -4.45865e+06 -881411 -1.35322e+06 -933061 -620085 933065
195 3 O 0.0850649 29.5511 0.196716 -1.2 -5.43 -3.14389e+06 -1.51618e+07 -1.49004e+07 2.70581e+06 -9.43765e+06 407178
196 3 O 0.0543974 29.5511 2.79288 -1.2 -8.8163 -2.00132e+06 -4.01927e+06 -2.1618e+06 -832393 -128868 886363
197 1 Mg 6.94543 33.243 0 1.2 -6.04667 3.75119e+06 2.42838e+06 -3.8747e+06 1.57987e+06 -1.43767e+06 -612936
198 1 Mg 4.23267 37.9507 1.4948 1.2 -8.81555 -1.19484e+06 2.71987e+06 4.42823e+06 -1.12489e+06 -223258 76760.1
199 2 Si 6.02709 35.2665 1.4948 2.4 -33.7819 1.05836e+07 9.14415e+06 1.0622e+07 -412436 1.60502e+06 -1.72003e+06
200 3 O 6.09339 36.8798 1.4948 -1.2 -8.07405 -6.45602e+06 -385550 -1.01758e+07 -141002 -6.61252e+06 -2.03648e+06
201 3 O 2.40018 34.2925 1.4948 -1.2 -9.56764 -4.24366e+06 -986173 -1.5997e+06 1.69383e+06 -512488 -991784
202 3 O 5.31645 34.5604 0.196716 -1.2 -6.2872 -3.90178e+06 -1.3216e+07 -9.63234e+06 -949556 -7.83652e+06 902022
203 1 Mg 6.91449 33.243 2.9896 1.2 -7.98315 4.61418e+06 -1.61794e+06 -621641 1.30963e+06 -1.3829e+06 2.02354e+06
204 3 O 5.291 34.5604 2.79288 -1.2 -8.78978 -2.08982e+06 -3.87879e+06 -2.09839e+06 1.12334e+06 -268888 -1.28664e+06
205 1 Mg -0.471101 33.2843 4.4844 1.2 -8.79149 -878446 2.58904e+06 3.16984e+06 -445250 -179119 69852.5
206 2 Si -2.26307 35.9684 4.4844 2.4 -33.0093 1.15454e+07 9.07251e+06 8.44477e+06 100085 -187561 171233
207 3 O -2.33122 34.3552 4.4844 -1.2 -9.37989 -4.04572e+06 -254902 -3.65894e+06 408417 -39060.1 -70647.4
208 3 O 1.36549 36.9425 4.4844 -1.2 -9.18824 -3.55326e+06 -2.82033e+06 -3.00882e+06 2.27983e+06 -316235 -56764
209 3 O -1.52658 36.6746 3.18632 -1.2 -8.9397 -2.81725e+06 -3.61268e+06 -1.08083e+06 1.15017e+06 133620 -1.57107e+06
210 3 O -1.55122 36.6746 5.78248 -1.2 -8.88276 -2.93381e+06 -3.75327e+06 -1.57308e+06 1.16991e+06 44448.2 1.3174e+06
211 1 Mg 1.882 35.6175 2.9896 1.2 -8.00939 4.63868e+06 -1.49393e+06 -748373 -1.11737e+06 -1.48048e+06 -1.46275e+06
212 1 Mg 4.69415 35.5762 4.4844 1.2 -8.75867 -635927 2.60045e+06 2.99716e+06 1.22875e+06 -145368 104858
213 2 Si 2.88522 37.641 4.4844 2.4 -32.9879 1.14599e+07 9.17445e+06 8.3433e+06 768313 -152199 206975
214 3 O 2.91159 39.2543 4.4844 -1.2 -9.38831 -4.02786e+06 -292801 -3.78958e+06 597406 -30993 -105596
215 3 O -3.74183 36.667 4.4844 -1.2 -9.24943 -3.68039e+06 -2.66614e+06 -2.88063e+06 -1.31954e+06 -304774 -130308
216 3 O 3.58014 36.9349 3.18632 -1.2 -8.97806 -2.79756e+06 -3.76388e+06 -1.14242e+06 -857697 227349 1.15054e+06
217 1 Mg 1.90997 35.6175 0 1.2 -6.09113 3.10924e+06 2.34854e+06 -3.84604e+06 -1.65691e+06 -783964 894961
218 3 O 3.55582 36.9349 5.78248 -1.2 -8.91561 -2.87714e+06 -3.92404e+06 -1.61315e+06 -883742 -99479.6 -1.2977e+06
219 1 Mg -0.93068 35.6588 1.4948 1.2 -8.78074 -793282 2.61045e+06 4.4705e+06 1.85724e+06 -318562 164896
220 2 Si 0.881882 33.5939 1.4948 2.4 -33.8841 1.023e+07 9.50806e+06 1.06826e+07 1.40949e+06 1.62707e+06 2.44736e+06
221 3 O 0.859602 31.9807 1.4948 -1.2 -7.29397 -6.26454e+06 -434505 -1.52179e+07 1.16003e+06 -8.47369e+06 2.34e+06
222 3 O 7.507 34.568 1.4948 -1.2 -9.61019 -4.36781e+06 -874509 -1.54223e+06 -932713 -428499 948919
223 3 O 0.210186 34.3001 0.196716 -1.2 -6.32363 -4.06068e+06 -1.39305e+07 -9.54888e+06 1.53104e+06 -7.94256e+06 -773681
224 3 O 0.184454 34.3001 2.79288 -1.2 -8.82909 -2.08071e+06 -4.0222e+06 -2.10528e+06 -843719 -174446 854632
225 1 Mg 7.07415 37.992 0 1.2 -6.16646 2.58688e+06 2.31576e+06 -3.55509e+06 1.87674e+06 -403343 -1.17595e+06
226 1 Mg 4.36817 42.6997 1.4948 1.2 -8.83292 -1.35479e+06 2.8199e+06 4.13411e+06 -998512 124445 62630.4
227 2 Si 6.16058 40.0155 1.4948 2.4 -33.5752 1.1165e+07 8.51669e+06 1.03443e+07 -365566 1.32935e+06 -1.49466e+06
228 3 O 6.22815 41.6288 1.4948 -1.2 -8.67063 -6.00683e+06 -335205 -6.81051e+06 29198.4 -4.52546e+06 -1.64317e+06
229 3 O 2.53282 39.0415 1.4948 -1.2 -9.53706 -4.13159e+06 -1.07751e+06 -1.82966e+06 1.72046e+06 -343270 -990989
230 3 O 5.44674 39.3094 0.196716 -1.2 -7.15663 -4.37054e+06 -1.08343e+07 -5.71211e+06 -148390 -5.77863e+06 1.73919e+06
231 1 Mg 7.04922 37.992 2.9896 1.2 -7.96165 4.62247e+06 -1.56567e+06 -705697 1.30155e+06 -1.47723e+06 2.01491e+06
232 3 O 5.42658 39.3094 2.79288 -1.2 -8.81632 -2.18776e+06 -3.86729e+06 -1.99979e+06 1.13106e+06 -293459 -1.28135e+06
233 1 Mg -0.333062 38.0333 4.4844 1.2 -8.77297 -919797 2.63526e+06 3.13113e+06 -424173 -128656 103252
234 2 Si -2.12255 40.7174 4.4844 2.4 -32.9984 1.1469e+07 9.04821e+06 8.53181e+06 116939 -179470 201213
235 3 O -2.19212 39.1042 4.4844 -1.2 -9.3967 -4.00155e+06 -286848 -3.64094e+06 427067 -18320.7 -98566.8
236 3 O 1.50676 41.6915 4.4844 -1.2 -9.19208 -3.55969e+06 -2.78914e+06 -3.03191e+06 2.30438e+06 -254321 -35672.5
237 3 O -1.3884 41.4236 3.18632 -1.2 -8.92397 -2.74414e+06 -3.62632e+06 -1.27016e+06 1.145e+06 143777 -1.53969e+06
238 3 O -1.40713 41.4236 5.78248 -1.2 -8.87972 -2.87695e+06 -3.68774e+06 -1.62351e+06 1.19295e+06 97528.7 1.29771e+06
239 1 Mg 2.01892 40.3665 2.9896 1.2 -8.0003 4.6302e+06 -1.47332e+06 -761867 -1.09865e+06 -1.58207e+06 -1.45368e+06
240 1 Mg 4.83434 40.3252 4.4844 1.2 -8.74744 -637958 2.57125e+06 3.01103e+06 1.24327e+06 -115217 110789
241 2 Si 3.02698 42.39 4.4844 2.4 -32.9898 1.13988e+07 9.10969e+06 8.47466e+06 761619 -164625 102711
242 3 O 3.05433 44.0033 4.4844 -1.2 -9.38695 -4.01481e+06 -273347 -3.82492e+06 607059 7803.03 -32312.2
243 3 O -3.60077 41.416 4.4844 -1.2 -9.2579 -3.70374e+06 -2.62749e+06 -2.88456e+06 -1.32274e+06 -246250 -117121
244 3 O 3.71851 41.6839 3.18632 -1.2 -8.96374 -2.73307e+06 -3.77447e+06 -1.32996e+06 -843101 244335 1.1538e+06
245 1 Mg 2.04077 40.3665 0 1.2 -6.18524 2.11708e+06 2.17039e+06 -3.94617e+06 -1.84133e+06 425070 1.63343e+06
246 3 O 3.70011 41.6839 5.78248 -1.2 -8.91338 -2.82431e+06 -3.84041e+06 -1.69484e+06 -880891 -29442.6 -1.24159e+06
247 1 Mg -0.796865 40.4078 1.4948 1.2 -8.80342 -1.02854e+06 2.74871e+06 4.21221e+06 1.75087e+06 37312.3 119703
248 2 Si 1.01387 38.3429 1.4948 2.4 -33.6711 1.08547e+07 8.87017e+06 1.03898e+07 1.53006e+06 1.45119e+06 2.16376e+06
249 3 O 0.989947 36.7297 1.4948 -1.2 -8.06844 -6.52401e+06 -377294 -1.02763e+07 1.03706e+06 -6.62891e+06 1.84391e+06
250 3 O 7.63988 39.317 1.4948 -1.2 -9.57997 -4.25855e+06 -979150 -1.76885e+06 -933316 -261238 987974
251 3 O 0.340253 39.0491 0.196716 -1.2 -7.16688 -4.45151e+06 -1.17471e+07 -5.65645e+06 386166 -5.85275e+06 -1.60384e+06
252 3 O 0.319795 39.0491 2.79288 -1.2 -8.85524 -2.16704e+06 -4.02059e+06 -2.01763e+06 -854094 -201906 822995
253 1 Mg 7.20667 42.741 0 1.2 -6.24767 1.79469e+06 2.12322e+06 -3.904e+06 1.99652e+06 918161 -2.06048e+06
254 1 Mg 4.50613 47.4487 1.4948 1.2 -8.83456 -1.31681e+06 2.88139e+06 3.83408e+06 -851331 438521 89161.5
255 2 Si 6.29731 44.7645 1.4948 2.4 -33.4416 1.15929e+07 7.91768e+06 1.02783e+07 -231757 931006 -1.34447e+06
256 3 O 6.36567 46.3778 1.4948 -1.2 -9.0572 -5.24602e+06 -296535 -4.88947e+06 181362 -2.71243e+06 -1.3843e+06
257 3 O 2.669 43.7905 1.4948 -1.2 -9.47121 -4.03501e+06 -1.22979e+06 -2.14945e+06 1.72359e+06 -201853 -960494
258 3 O 5.58048 44.0584 0.196716 -1.2 -7.85121 -4.34188e+06 -8.17486e+06 -3.32291e+06 320114 -3.72812e+06 2.33512e+06
259 1 Mg 7.1879 42.741 2.9896 1.2 -7.96231 4.61923e+06 -1.56334e+06 -690409 1.28868e+06 -1.57262e+06 1.97134e+06
260 3 O 5.56564 44.0584 2.79288 -1.2 -8.83032 -2.33161e+06 -3.80063e+06 -1.92465e+06 1.13194e+06 -296147 -1.22604e+06
261 1 Mg -0.19105 42.7823 4.4844 1.2 -8.77511 -921282 2.59955e+06 3.1689e+06 -421486 -92699 71139.1
262 2 Si -1.97909 45.4664 4.4844 2.4 -33.0285 1.1385e+07 9.05882e+06 8.65808e+06 112372 -133518 92135.4
263 3 O -2.04947 43.8532 4.4844 -1.2 -9.38692 -3.96112e+06 -275457 -3.70616e+06 436257 -7628.27 -37633.3
264 3 O 1.65063 46.4405 4.4844 -1.2 -9.18975 -3.59217e+06 -2.78642e+06 -3.00546e+06 2.30786e+06 -155844 23682.8
265 3 O -1.24745 46.1726 3.18632 -1.2 -8.89216 -2.69435e+06 -3.63194e+06 -1.46812e+06 1.14488e+06 115085 -1.47631e+06
266 3 O -1.26044 46.1726 5.78248 -1.2 -8.85538 -2.80124e+06 -3.68757e+06 -1.71701e+06 1.21405e+06 118427 1.36972e+06
267 1 Mg 2.15896 45.1155 2.9896 1.2 -8.01231 4.62774e+06 -1.46612e+06 -731625 -1.07514e+06 -1.69355e+06 -1.50098e+06
268 1 Mg 4.97763 45.0742 4.4844 1.2 -8.74453 -598611 2.5608e+06 2.97753e+06 1.25985e+06 -63060.5 42095.2
269 2 Si 3.1711 47.139 4.4844 2.4 -33.0002 1.14172e+07 9.13609e+06 8.44971e+06 794703 -141567 20328.8