ITEM: TIMESTEP
79900
ITEM: NUMBER OF ATOMS
10500
ITEM: BOX BOUNDS xy xz yz pp pp pp
0.0000000000000000e+00 1.5297749999999999e+01 5.0992499999999996e+00
0.0000000000000000e+00 1.1872499999999999e+02 0.0000000000000000e+00
0.0000000000000000e+00 8.9688000000000002e+01 0.0000000000000000e+00
ITEM: ATOMS id type element xu yu zu q c_pe c_s[1] c_s[2] c_s[3] c_s[4] c_s[5] c_s[6]
1 1 Mg 6.2404 -6.37941e-06 0 1.2 -4.23917 7.47546e+06 -2.27293e+06 -5.67235e+06 -22990.1 2.53384e+06 -640432
2 1 Mg 3.46349 4.70768 1.4948 1.2 -8.25686 -680618 2.66279e+06 4.34288e+06 -932037 -626085 -443763
3 2 Si 5.2885 2.02354 1.4948 2.4 -34.8321 9.20233e+06 1.05763e+07 1.1821e+07 8.88181e+06 588910 -4.03755e+06
4 3 O 5.33628 3.63678 1.4948 -1.2 -4.94111 -412000 -1.35697e+06 -3.38119e+07 -342314 3.84478e+06 -3.38335e+06
5 3 O 1.67294 1.04952 1.4948 -1.2 -1.26599 -2.00331e+07 -7.91028e+07 -2.33035e+06 -2.41153e+07 -172537 425767
6 3 O 4.59532 1.31737 0.196716 -1.2 -3.24999 -1.57194e+06 -6.37411e+06 -3.08256e+07 -6.01532e+06 6.32691e+06 -2.21223e+06
7 1 Mg 6.18956 -6.37941e-06 2.9896 1.2 -4.76326 1.22867e+06 -2.8471e+07 -2.6615e+06 -8.8085e+06 2.33789e+06 3.48329e+06
8 3 O 4.55118 1.31737 2.79288 -1.2 -7.68662 526532 -4.50965e+06 -3.43885e+06 -2.98901e+06 -3.37707e+06 -576623
9 1 Mg -1.20682 0.0413099 4.4844 1.2 9.15234 -3.08399e+07 -9.35731e+07 -357080 -2.85773e+07 -1.21893e+06 -375902
10 2 Si -3.0337 2.72544 4.4844 2.4 -32.7791 1.37761e+07 6.54863e+06 8.56818e+06 1.77158e+06 -34143.9 -1.51445e+06
11 3 O -3.08099 1.11221 4.4844 -1.2 -9.79533 -5.90287e+06 239008 -2.34368e+06 -1.29941e+06 -43965.6 718896
12 3 O 0.582463 3.69946 4.4844 -1.2 -9.1713 -3.03616e+06 -5.19034e+06 -3.03204e+06 -493606 -136211 452389
13 3 O -2.29524 3.43162 3.18632 -1.2 -9.26123 -3.89226e+06 -2.33583e+06 -766715 1.0817e+06 -799753 -452402
14 3 O -2.34216 3.43162 5.78248 -1.2 -8.97898 -3.69071e+06 -2.87141e+06 -1.94801e+06 704169 551143 1.69653e+06
15 1 Mg 1.12778 2.37449 2.9896 1.2 -7.39253 4.8969e+06 -1.8488e+06 -523328 -3.31816e+06 -4.14442e+06 -2.75054e+06
16 1 Mg 3.92855 2.33318 4.4844 1.2 -8.30886 -4.54984e+06 4.79351e+06 5.09777e+06 1.39786e+06 350044 -44882.3
17 2 Si 2.09341 4.39804 4.4844 2.4 -31.9749 1.15137e+07 6.38209e+06 9.26582e+06 177176 -136820 -737273
18 3 O 2.09991 6.01128 4.4844 -1.2 -9.73985 -3.72599e+06 87321.5 -3.89397e+06 533283 -226443 599110
19 3 O -4.52137 3.42402 4.4844 -1.2 -9.33645 -2.54848e+06 -2.73065e+06 -3.83719e+06 -2.48337e+06 -843993 594522
20 3 O 2.80834 3.69187 3.18632 -1.2 -9.53504 -1.79335e+06 -2.67093e+06 -572601 462001 -525600 67979
21 1 Mg 1.17857 2.37449 0 1.2 -4.88112 -919492 -1.50845e+07 -6.25803e+06 6.52518e+06 1.25488e+06 4.13951e+06
22 3 O 2.76143 3.69187 5.78248 -1.2 -9.47887 -2.55053e+06 -2.16696e+06 -1.57458e+06 510725 -88530.3 545670
23 1 Mg -1.67381 2.41581 1.4948 1.2 -7.36103 1.20949e+06 -418419 4.26924e+06 1.35516e+06 -576192 558969
24 2 Si 0.16286 0.350945 1.4948 2.4 -24.1395 -8.75026e+06 1.17776e+07 1.19464e+07 1.56119e+06 2.99365e+06 152147
25 3 O 0.15972 -1.26229 1.4948 -1.2 -4.94474 -1.04405e+07 -7.55888e+06 -2.93641e+07 -5.58989e+06 -8.63391e+06 -2.05265e+06
26 3 O 6.77654 1.32496 1.4948 -1.2 -10.5597 -5.35947e+06 2.02431e+06 -1.69031e+06 -653355 -598438 1.54104e+06
27 3 O -0.508028 1.05712 0.196716 -1.2 -9.75182 438361 -4.33372e+06 -1.01302e+06 -563812 107251 -4.09777e+06
28 3 O -0.552171 1.05712 2.79288 -1.2 -7.00884 -5.08254e+06 -4.35729e+06 -2.48156e+07 1.45555e+06 -6.82718e+06 -5.02831e+06
29 1 Mg 6.31713 4.74899 0 1.2 -4.71125 -72361.4 -1.28916e+07 -6.04014e+06 -7.31085e+06 1.40308e+06 -4.04786e+06
30 1 Mg 3.54847 9.45668 1.4948 1.2 -8.17387 32093 1.79812e+06 4.34048e+06 -961708 -914806 -837278
31 2 Si 5.36879 6.77254 1.4948 2.4 -33.8949 6.55882e+06 1.22206e+07 1.14745e+07 1.67051e+06 126840 -3.04523e+06
32 3 O 5.41937 8.38578 1.4948 -1.2 -4.93499 1085.77 -1.04654e+06 -3.51501e+07 766659 1.11598e+06 -3.69664e+06
33 3 O 1.75158 5.79852 1.4948 -1.2 -9.72314 -3.69811e+06 -2.38065e+06 -1.35512e+06 1.97088e+06 -1.6036e+06 -804093
34 3 O 4.67421 6.06637 0.196716 -1.2 -3.9899 520719 -1.0197e+07 -3.14117e+07 -2.01242e+06 1.33999e+06 -3.95434e+06
35 1 Mg 6.26654 4.74899 2.9896 1.2 -7.82977 3.74309e+06 -1.74622e+06 118188 1.82033e+06 -854748 1.36284e+06
36 3 O 4.63043 6.06637 2.79288 -1.2 -9.05742 -1.2378e+06 -3.9867e+06 -2.21699e+06 926304 -128557 -859643
37 1 Mg -1.12976 4.79031 4.4844 1.2 -8.60288 -913610 2.54136e+06 3.02505e+06 -738008 -499978 -692863
38 2 Si -2.9517 7.47444 4.4844 2.4 -32.3896 1.04477e+07 9.03484e+06 8.57188e+06 -1670.32 -64383.2 -1.44478e+06
39 3 O -3.00198 5.86121 4.4844 -1.2 -9.63348 -3.62473e+06 -54790.2 -3.88922e+06 54520.4 -235285 723832
40 3 O 0.666315 8.44846 4.4844 -1.2 -9.55718 -3.07011e+06 -2.66374e+06 -3.01745e+06 2.11816e+06 -414977 632761
41 3 O -2.21213 8.18062 3.18632 -1.2 -9.30155 -2.57055e+06 -3.47535e+06 -589565 1.10875e+06 -265571 -840581
42 3 O -2.25864 8.18062 5.78248 -1.2 -9.307 -2.40353e+06 -3.84581e+06 -1.54445e+06 1.11753e+06 -138976 2.09314e+06
43 1 Mg 1.20893 7.12349 2.9896 1.2 -7.76922 3.84819e+06 -1.57923e+06 -271767 -1.28644e+06 -1.33079e+06 -2.29752e+06
44 1 Mg 4.00982 7.08218 4.4844 1.2 -8.44205 -1.29813e+06 2.59341e+06 3.15196e+06 1.03218e+06 -177387 -532488
45 2 Si 2.17861 9.14704 4.4844 2.4 -32.2834 1.06157e+07 8.94141e+06 8.29559e+06 559491 155358 -1.01612e+06
46 3 O 2.18828 10.7603 4.4844 -1.2 -9.70951 -3.69739e+06 -123755 -3.7525e+06 453581 -279702 453093
47 3 O -4.43805 8.17302 4.4844 -1.2 -9.53637 -2.86382e+06 -2.7351e+06 -3.15017e+06 -1.51462e+06 -454968 537829
48 3 O 2.89193 8.44087 3.18632 -1.2 -9.32388 -2.48407e+06 -3.64076e+06 -627367 -926203 -292740 1.84598e+06
49 1 Mg 1.25915 7.12349 0 1.2 -5.09675 709339 -7.48882e+06 -6.50091e+06 5.89393e+06 1.39134e+06 2.11283e+06
50 3 O 2.84547 8.44087 5.78248 -1.2 -9.33081 -2.38637e+06 -3.74638e+06 -1.87207e+06 -886853 -543870 -670980
51 1 Mg -1.59284 7.16481 1.4948 1.2 -8.04877 483131 1.43886e+06 4.24735e+06 1.45776e+06 -915768 -224394
52 2 Si 0.240329 5.09994 1.4948 2.4 -33.6125 7.67115e+06 1.08646e+07 1.12662e+07 -1.97631e+06 -1.03643e+06 898425
53 3 O 0.234538 3.48671 1.4948 -1.2 -5.45186 -1.46246e+06 547000 -3.3884e+07 409902 5.15511e+06 4.44552e+06
54 3 O 6.85564 6.07396 1.4948 -1.2 -9.78765 -4.02468e+06 -1.8609e+06 -1.40618e+06 -1.34523e+06 -1.82373e+06 1.70972e+06
55 3 O -0.429565 5.80612 0.196716 -1.2 -4.2515 -333083 -8.81825e+06 -3.14743e+07 1.85509e+06 1.15365e+06 5.03001e+06
56 3 O -0.473377 5.80612 2.79288 -1.2 -9.15559 -1.83374e+06 -3.50556e+06 -2.04747e+06 -768951 339879 1.91582e+06
57 1 Mg 6.40169 9.49799 0 1.2 -5.15198 1.28887e+06 -6.36694e+06 -6.60281e+06 -5.48849e+06 974638 -2.93802e+06
58 1 Mg 3.64209 14.2057 1.4948 1.2 -8.43316 238324 1.50065e+06 4.80628e+06 -1.05303e+06 -954544 -621449
59 2 Si 5.45748 11.5215 1.4948 2.4 -34.1089 7.23406e+06 1.15655e+07 1.17732e+07 880271 333036 -3.0351e+06
60 3 O 5.51101 13.1348 1.4948 -1.2 -4.80504 -467280 -663813 -3.50931e+07 479500 -2.53496e+06 -3.96594e+06
61 3 O 1.83851 10.5475 1.4948 -1.2 -9.70258 -4.07197e+06 -1.86628e+06 -1.25706e+06 1.5407e+06 -1.59688e+06 -599043
62 3 O 4.7611 10.8154 0.196716 -1.2 -3.70459 716473 -1.14514e+07 -3.20324e+07 -2.45484e+06 -1.73431e+06 -3.81988e+06
63 1 Mg 6.35203 9.49799 2.9896 1.2 -7.79102 3.744e+06 -1.53617e+06 -157284 1.3134e+06 -1.20825e+06 1.48308e+06
64 3 O 4.71833 10.8154 2.79288 -1.2 -9.01703 -1.55074e+06 -3.76278e+06 -2.20753e+06 1.05064e+06 -5716.39 -852186
65 1 Mg -1.0438 9.53931 4.4844 1.2 -8.42099 -1.25431e+06 2.5637e+06 3.01454e+06 -578347 -364081 -545989
66 2 Si -2.8604 12.2234 4.4844 2.4 -32.5752 1.07358e+07 8.49743e+06 9.11327e+06 -48221.5 -310847 -728910
67 3 O -2.91391 10.6102 4.4844 -1.2 -9.6809 -3.52309e+06 -158082 -3.8332e+06 238272 -84851.6 361015
68 3 O 0.7596 13.1975 4.4844 -1.2 -9.38349 -3.27172e+06 -2.46156e+06 -3.30594e+06 2.11584e+06 -456020 333074
69 3 O -2.12001 12.9296 3.18632 -1.2 -9.14478 -2.76475e+06 -3.24779e+06 -882697 1.13737e+06 -166011 -1.14801e+06
70 3 O -2.16532 12.9296 5.78248 -1.2 -9.14113 -2.75471e+06 -3.35205e+06 -1.85293e+06 1.08314e+06 132762 1.82357e+06
71 1 Mg 1.29891 11.8725 2.9896 1.2 -7.87061 4.05172e+06 -1.66033e+06 -234975 -1.17729e+06 -1.21073e+06 -2.09543e+06
72 1 Mg 4.10033 11.8312 4.4844 1.2 -8.50437 -1.07652e+06 2.39889e+06 3.22404e+06 1.11597e+06 -130952 -303373
73 2 Si 2.27333 13.896 4.4844 2.4 -32.6985 1.12192e+07 8.35608e+06 8.93761e+06 579196 90218.1 -414495
74 3 O 2.28634 15.5093 4.4844 -1.2 -9.41115 -4.05163e+06 322379 -4.32088e+06 519454 -202245 173310
75 3 O -4.34533 12.922 4.4844 -1.2 -9.3901 -3.11621e+06 -2.34353e+06 -3.53871e+06 -1.45145e+06 -455533 313132
76 3 O 2.98455 13.1899 3.18632 -1.2 -9.16387 -2.78364e+06 -3.34393e+06 -907566 -931566 -219285 1.62795e+06
77 1 Mg 1.34779 11.8725 0 1.2 -5.48399 2.80243e+06 -2.94192e+06 -6.62205e+06 3.56962e+06 823297 1.13717e+06
78 3 O 2.93934 13.1899 5.78248 -1.2 -9.18783 -2.74673e+06 -3.49897e+06 -1.88646e+06 -811838 -500864 -906661
79 1 Mg -1.50344 11.9138 1.4948 1.2 -8.27391 397504 1.60993e+06 4.50636e+06 1.57437e+06 -959459 -15442.6
80 2 Si 0.326006 9.84894 1.4948 2.4 -33.9329 7.23541e+06 1.18012e+07 1.12265e+07 -599279 127485 1.24807e+06
81 3 O 0.317364 8.23571 1.4948 -1.2 -4.95332 -204983 -897457 -3.51932e+07 -124142 1.16874e+06 4.73949e+06
82 3 O 6.94307 10.823 1.4948 -1.2 -9.71757 -4.14391e+06 -1.6777e+06 -1.30898e+06 -985777 -1.51138e+06 1.51894e+06
83 3 O -0.343122 10.5551 0.196716 -1.2 -3.81739 411183 -1.09213e+07 -3.20406e+07 2.44954e+06 -2.08063e+06 4.9924e+06
84 3 O -0.385966 10.5551 2.79288 -1.2 -9.07125 -1.66318e+06 -3.81459e+06 -2.10032e+06 -861128 121856 1.59596e+06
85 1 Mg 6.49448 14.247 0 1.2 -5.57707 3.40421e+06 -2.30431e+06 -6.52743e+06 -2.97736e+06 241425 -1.82337e+06
86 1 Mg 3.74457 18.9547 1.4948 1.2 -8.68312 308889 1.47839e+06 5.08128e+06 -1.12554e+06 -971271 -615698
87 2 Si 5.55495 16.2705 1.4948 2.4 -34.5033 8.24282e+06 1.05773e+07 1.24033e+07 512293 797762 -2.8531e+06
88 3 O 5.6115 17.8838 1.4948 -1.2 -4.93179 -1.83233e+06 -320380 -3.26368e+07 77189.8 -6.06669e+06 -3.82534e+06
89 3 O 1.93416 15.2965 1.4948 -1.2 -9.5213 -4.44496e+06 -1.17796e+06 -1.61273e+06 1.54018e+06 -1.38209e+06 -753735
90 3 O 4.85636 15.5644 0.196716 -1.2 -3.5038 358019 -1.28315e+07 -3.07818e+07 -3.01289e+06 -5.13505e+06 -3.46663e+06
91 1 Mg 6.44662 14.247 2.9896 1.2 -7.97189 4.17559e+06 -1.93986e+06 103650 1.2925e+06 -1.21785e+06 1.68005e+06
92 3 O 4.81537 15.5644 2.79288 -1.2 -8.78459 -1.93599e+06 -3.36118e+06 -2.62612e+06 1.09057e+06 -21424.2 -989458
93 1 Mg -0.948271 14.2883 4.4844 1.2 -8.64848 -925760 2.20065e+06 3.4053e+06 -474289 -320749 -289449
94 2 Si -2.75928 16.9724 4.4844 2.4 -33.1059 1.18568e+07 7.67191e+06 9.67583e+06 61154 -100449 -609972
95 3 O -2.81617 15.3592 4.4844 -1.2 -9.43151 -4.00869e+06 260945 -4.15541e+06 219234 -106117 284498
96 3 O 0.862762 17.9465 4.4844 -1.2 -9.0729 -3.6053e+06 -1.9794e+06 -3.95299e+06 2.22908e+06 -483370 480733
97 3 O -2.0185 17.6786 3.18632 -1.2 -8.909 -3.13621e+06 -2.89738e+06 -1.25537e+06 1.14354e+06 -159844 -1.17694e+06
98 3 O -2.06164 17.6786 5.78248 -1.2 -8.78901 -3.34368e+06 -2.95116e+06 -2.32279e+06 1.0989e+06 -209333 1.75777e+06
99 1 Mg 1.39817 16.6215 2.9896 1.2 -8.10836 4.45204e+06 -2.10437e+06 187584 -1.17936e+06 -1.2213e+06 -1.94634e+06
100 1 Mg 4.20062 16.5802 4.4844 1.2 -8.79792 -558515 1.88426e+06 3.69432e+06 1.10921e+06 -314181 -227221
101 2 Si 2.37796 18.645 4.4844 2.4 -33.2205 1.1921e+07 7.55864e+06 9.87004e+06 606661 -148394 -1.12102e+06
102 3 O 2.39434 20.2583 4.4844 -1.2 -9.2894 -4.27752e+06 281812 -4.26265e+06 563018 -72682 593446
103 3 O -4.24274 17.671 4.4844 -1.2 -9.14317 -3.74335e+06 -1.9115e+06 -3.72589e+06 -1.47136e+06 -419783 320731
104 3 O 3.08659 17.9389 3.18632 -1.2 -8.92817 -3.12239e+06 -2.97079e+06 -1.35598e+06 -922892 -58660.1 1.69865e+06
105 1 Mg 1.44478 16.6215 0 1.2 -5.81498 4.74852e+06 -214886 -6.32228e+06 1.40849e+06 -69596.2 646402
106 3 O 3.0436 17.9389 5.78248 -1.2 -8.7436 -3.28412e+06 -2.85799e+06 -2.78815e+06 -919381 -144802 -552987
107 1 Mg -1.40524 16.6628 1.4948 1.2 -8.55799 564821 1.42764e+06 4.92883e+06 1.70291e+06 -971087 95025.7
108 2 Si 0.420358 14.5979 1.4948 2.4 -34.3572 7.93831e+06 1.09469e+07 1.20418e+07 -107992 565573 1.89597e+06
109 3 O 0.408732 12.9847 1.4948 -1.2 -4.80825 -540930 -659366 -3.51525e+07 213250 -2.56418e+06 4.6256e+06
110 3 O 7.03923 15.572 1.4948 -1.2 -9.54687 -4.57998e+06 -1.02313e+06 -1.55945e+06 -950811 -1.2995e+06 1.2999e+06
111 3 O -0.248332 15.3041 0.196716 -1.2 -3.61728 33799.6 -1.23603e+07 -3.07996e+07 3.23277e+06 -5.40908e+06 4.26023e+06
112 3 O -0.289436 15.3041 2.79288 -1.2 -8.83401 -1.95049e+06 -3.47911e+06 -2.57016e+06 -877460 40791.9 1.33761e+06
113 1 Mg 6.59566 18.996 0 1.2 -5.86058 5.09321e+06 234035 -6.25735e+06 -916666 -639138 -1.18404e+06
114 1 Mg 3.85574 23.7037 1.4948 1.2 -8.83112 158598 1.7292e+06 5.07802e+06 -1.19261e+06 -926088 -473294
115 2 Si 5.66125 21.0195 1.4948 2.4 -34.6593 9.13681e+06 1.01696e+07 1.22285e+07 187320 1.28518e+06 -3.06006e+06
116 3 O 5.72074 22.6328 1.4948 -1.2 -5.45283 -3.67694e+06 -284020 -2.7653e+07 -215597 -8.54037e+06 -3.36866e+06
117 3 O 2.03867 20.0455 1.4948 -1.2 -9.40077 -4.6704e+06 -867249 -1.68908e+06 1.58342e+06 -1.12003e+06 -619152
118 3 O 4.96004 20.3134 0.196716 -1.2 -3.68916 -594993 -1.42325e+07 -2.69446e+07 -3.17931e+06 -7.9751e+06 -2.43949e+06
119 1 Mg 6.55057 18.996 2.9896 1.2 -8.14154 4.61703e+06 -2.20017e+06 194978 1.33063e+06 -1.1827e+06 1.57581e+06
120 3 O 4.92172 20.3134 2.79288 -1.2 -8.64608 -2.20527e+06 -3.33094e+06 -2.64598e+06 1.08025e+06 -104592 -801507
121 1 Mg -0.84282 19.0373 4.4844 1.2 -8.89933 -679380 1.91369e+06 3.83983e+06 -555049 -249776 -496901
122 2 Si -2.64823 21.7214 4.4844 2.4 -33.2425 1.19012e+07 8.05413e+06 9.47448e+06 89111.8 112878 -1.0607e+06
123 3 O -2.70847 20.1082 4.4844 -1.2 -9.25924 -4.24441e+06 407452 -4.32905e+06 253357 -197114 513248
124 3 O 0.97581 22.6955 4.4844 -1.2 -9.04881 -3.55493e+06 -2.37203e+06 -3.66425e+06 2.16493e+06 -408112 359427
125 3 O -1.9076 22.4276 3.18632 -1.2 -8.82917 -3.18055e+06 -3.08575e+06 -1.18788e+06 1.14295e+06 -119505 -1.11986e+06
126 3 O -1.9475 22.4276 5.78248 -1.2 -8.77118 -3.04823e+06 -3.3785e+06 -2.34539e+06 1.0521e+06 -184593 2.0463e+06
127 1 Mg 1.50678 21.3705 2.9896 1.2 -8.19375 4.66492e+06 -1.98475e+06 -8221.35 -1.17345e+06 -1.31569e+06 -2.03292e+06
128 1 Mg 4.31086 21.3292 4.4844 1.2 -8.82168 -348993 2.11221e+06 3.29496e+06 1.11894e+06 -268044 -495826
129 2 Si 2.49243 23.394 4.4844 2.4 -33.2228 1.18271e+07 8.16533e+06 9.35594e+06 717964 -408533 -421919
130 3 O 2.51204 25.0073 4.4844 -1.2 -9.2412 -4.27882e+06 325073 -4.39391e+06 523823 19426.3 182909
131 3 O -4.13026 22.42 4.4844 -1.2 -9.15761 -3.85533e+06 -2.22302e+06 -3.28569e+06 -1.35674e+06 -536023 405602
132 3 O 3.19799 22.6879 3.18632 -1.2 -8.87424 -3.20684e+06 -3.20064e+06 -1.19078e+06 -901775 86767.5 1.61541e+06
133 1 Mg 1.5501 21.3705 0 1.2 -6.00374 5.80211e+06 1.36487e+06 -5.87513e+06 -77137.5 -1.0146e+06 135220
134 3 O 3.1583 22.6879 5.78248 -1.2 -8.91149 -3.08183e+06 -3.48061e+06 -2.00295e+06 -820796 143724 -1.00531e+06
135 1 Mg -1.29822 21.4118 1.4948 1.2 -8.75435 491071 1.62725e+06 5.01324e+06 1.81768e+06 -939886 -61299.6
136 2 Si 0.523568 19.3469 1.4948 2.4 -34.6443 8.73478e+06 1.03744e+07 1.2306e+07 298900 942101 1.89776e+06
137 3 O 0.508934 17.7337 1.4948 -1.2 -4.92421 -1.84767e+06 -313715 -3.27749e+07 668521 -6.06941e+06 4.37049e+06
138 3 O 7.14425 20.321 1.4948 -1.2 -9.43913 -4.8392e+06 -718992 -1.58593e+06 -949911 -1.10139e+06 1.37018e+06
139 3 O -0.145107 20.0531 0.196716 -1.2 -3.79895 -955548 -1.39115e+07 -2.69333e+07 3.67534e+06 -8.16513e+06 3.37499e+06
140 3 O -0.183601 20.0531 2.79288 -1.2 -8.67021 -2.13023e+06 -3.44969e+06 -2.73192e+06 -839901 6313.63 1.46222e+06
141 1 Mg 6.70502 23.745 0 1.2 -6.0432 5.76984e+06 1.53385e+06 -5.55741e+06 415741 -1.46825e+06 -836404
142 1 Mg 3.97493 28.4527 1.4948 1.2 -8.90131 -205017 1.95332e+06 5.09735e+06 -1.2132e+06 -773667 -296969
143 2 Si 5.77602 25.7685 1.4948 2.4 -34.6 9.9172e+06 9.60274e+06 1.20077e+07 -114899 1.60708e+06 -2.70327e+06
144 3 O 5.83821 27.3818 1.4948 -1.2 -6.23942 -5.42404e+06 -129096 -2.15649e+07 -335361 -9.33604e+06 -2.8854e+06
145 3 O 2.15175 24.7945 1.4948 -1.2 -9.36114 -4.71564e+06 -692199 -1.74857e+06 1.61274e+06 -888736 -695634
146 3 O 5.07184 25.0624 0.196716 -1.2 -4.25593 -1.98585e+06 -1.49068e+07 -2.13502e+07 -2.78267e+06 -9.4659e+06 -1.22672e+06
147 1 Mg 6.66374 23.745 2.9896 1.2 -8.15973 4.79139e+06 -2.03925e+06 -108257 1.30703e+06 -1.18767e+06 1.69735e+06
148 3 O 5.03707 25.0624 2.79288 -1.2 -8.61122 -2.3051e+06 -3.38343e+06 -2.58888e+06 1.0832e+06 -153368 -1.03476e+06
149 1 Mg -0.727559 23.7863 4.4844 1.2 -8.91365 -747560 2.24722e+06 3.58911e+06 -461704 -140294 -293222
150 2 Si -2.5277 26.4704 4.4844 2.4 -33.3291 1.20651e+07 7.77309e+06 9.73396e+06 39767 49582.3 -7520.03
151 3 O -2.59107 24.8572 4.4844 -1.2 -9.27136 -4.29189e+06 177865 -4.01953e+06 366207 -199498 90599.4
152 3 O 1.09817 27.4445 4.4844 -1.2 -9.02395 -3.69161e+06 -2.14713e+06 -3.79115e+06 2.2642e+06 -291244 309526
153 3 O -1.78784 27.1766 3.18632 -1.2 -8.79326 -3.16026e+06 -2.97955e+06 -1.42847e+06 1.19024e+06 -22094.6 -1.34188e+06
154 3 O -1.82343 27.1766 5.78248 -1.2 -8.62194 -3.20213e+06 -2.94088e+06 -2.75073e+06 1.25369e+06 -161242 1.18872e+06
155 1 Mg 1.62435 26.1195 2.9896 1.2 -8.2136 4.78712e+06 -2.05856e+06 -21685.6 -1.15556e+06 -1.3749e+06 -1.81282e+06
156 1 Mg 4.43064 26.0782 4.4844 1.2 -8.87248 -270333 1.90338e+06 3.50976e+06 1.27069e+06 -250520 -115317
157 2 Si 2.61607 28.143 4.4844 2.4 -33.1877 1.20364e+07 7.94594e+06 9.31063e+06 882760 -344279 -518285
158 3 O 2.63853 29.7563 4.4844 -1.2 -9.35804 -4.17691e+06 107764 -4.07273e+06 461703 -76160.2 201462
159 3 O -4.00841 27.169 4.4844 -1.2 -9.10208 -3.92092e+06 -1.95388e+06 -3.57829e+06 -1.4126e+06 -538578 72412.3
160 3 O 3.3182 27.4369 3.18632 -1.2 -8.85518 -3.21037e+06 -3.1369e+06 -1.35587e+06 -929997 145107 1.49886e+06
161 1 Mg 1.66335 26.1195 0 1.2 -6.13568 5.71676e+06 1.96094e+06 -4.95523e+06 -881554 -1.61175e+06 40543
162 3 O 3.28288 27.4369 5.78248 -1.2 -8.85547 -3.35706e+06 -3.19109e+06 -1.96685e+06 -1.00882e+06 -15343.9 -928655
163 1 Mg -1.18278 26.1608 1.4948 1.2 -8.87401 233430 1.79616e+06 5.10138e+06 1.87547e+06 -836256 3830.57
164 2 Si 0.635424 24.0959 1.4948 2.4 -34.6736 9.41836e+06 9.98359e+06 1.21277e+07 749783 1.30754e+06 2.05992e+06
165 3 O 0.617906 22.4827 1.4948 -1.2 -5.43496 -3.65107e+06 -277985 -2.78485e+07 1.0104e+06 -8.50622e+06 3.95446e+06
166 3 O 7.25781 25.07 1.4948 -1.2 -9.40847 -4.89819e+06 -559593 -1.61541e+06 -930905 -870323 1.23465e+06
167 3 O -0.0337363 24.8021 0.196716 -1.2 -4.33918 -2.2866e+06 -1.48518e+07 -2.13833e+07 3.50028e+06 -9.59873e+06 2.06843e+06
168 3 O -0.0687235 24.8021 2.79288 -1.2 -8.62494 -2.18066e+06 -3.54512e+06 -2.71119e+06 -828548 -78311.5 1.2263e+06
169 1 Mg 6.82195 28.494 0 1.2 -6.16435 5.29409e+06 2.03089e+06 -4.50508e+06 1.13292e+06 -1.77891e+06 -655783
170 1 Mg 4.10106 33.2017 1.4948 1.2 -8.87844 -752513 2.39385e+06 4.8272e+06 -1.2056e+06 -540324 94331.9
171 2 Si 5.89839 30.5175 1.4948 2.4 -34.2988 1.03801e+07 9.26275e+06 1.14852e+07 -364716 1.73852e+06 -2.27395e+06
172 3 O 5.96289 32.1308 1.4948 -1.2 -7.18296 -6.39207e+06 -267700 -1.52914e+07 -280238 -8.46417e+06 -2.51299e+06
173 3 O 2.27266 29.5435 1.4948 -1.2 -9.40579 -4.59765e+06 -682601 -1.75597e+06 1.63666e+06 -678651 -782169
174 3 O 5.19102 29.8114 0.196716 -1.2 -5.12764 -3.25035e+06 -1.453e+07 -1.52634e+07 -1.93306e+06 -9.32586e+06 -44538.1
175 1 Mg 6.78546 28.494 2.9896 1.2 -8.1359 4.7964e+06 -2.11234e+06 -72947.9 1.28743e+06 -1.22898e+06 1.75301e+06
176 3 O 5.16061 29.8114 2.79288 -1.2 -8.6712 -2.20628e+06 -3.52386e+06 -2.49028e+06 1.13473e+06 -249040 -1.07771e+06
177 1 Mg -0.603205 28.5353 4.4844 1.2 -8.92443 -785666 1.98435e+06 3.90234e+06 -501617 -297089 -325796
178 2 Si -2.39877 31.2194 4.4844 2.4 -32.931 1.14872e+07 8.61483e+06 8.82744e+06 -74488.8 -234161 -487483
179 3 O -2.46483 29.6062 4.4844 -1.2 -9.31088 -4.07773e+06 240601 -4.23242e+06 472182 -131754 341309
180 3 O 1.22864 32.1935 4.4844 -1.2 -9.24749 -3.44132e+06 -2.64248e+06 -3.18097e+06 2.19296e+06 -467452 -39812
181 3 O -1.66032 31.9256 3.18632 -1.2 -8.9325 -2.955e+06 -3.40501e+06 -1.06714e+06 1.15982e+06 95484.8 -1.45574e+06
182 3 O -1.69072 31.9256 5.78248 -1.2 -9.14199 -2.73498e+06 -3.72163e+06 -1.30874e+06 1.10721e+06 67510.3 1.68143e+06
183 1 Mg 1.7499 30.8685 2.9896 1.2 -8.09107 4.71284e+06 -1.77357e+06 -422107 -1.08887e+06 -1.38986e+06 -1.65297e+06
184 1 Mg 4.55894 30.8272 4.4844 1.2 -8.747 -656494 2.29649e+06 3.30247e+06 1.15771e+06 -193779 -5773.67
185 2 Si 2.7476 32.892 4.4844 2.4 -32.8984 1.11686e+07 8.71485e+06 8.96002e+06 754169 -9438.81 333707
186 3 O 2.77235 34.5053 4.4844 -1.2 -9.45276 -3.88887e+06 -56423.9 -4.04267e+06 616283 -85893.9 -241267
187 3 O -3.87837 31.918 4.4844 -1.2 -9.30346 -3.56801e+06 -2.46909e+06 -3.0927e+06 -1.23129e+06 -279471 -15192.2
188 3 O 3.44611 32.1859 3.18632 -1.2 -8.95753 -2.86895e+06 -3.5105e+06 -1.24572e+06 -881098 167764 1.18917e+06
189 1 Mg 1.7837 30.8685 0 1.2 -6.19317 4.68058e+06 2.23378e+06 -4.16044e+06 -1.34225e+06 -1.58797e+06 336834
190 3 O 3.41602 32.1859 5.78248 -1.2 -8.98869 -2.52817e+06 -3.65004e+06 -2.38398e+06 -879060 -166224 -1.37491e+06
191 1 Mg -1.05984 30.9098 1.4948 1.2 -8.8708 -206833 2.18842e+06 4.8425e+06 1.90723e+06 -634291 56683.5
192 2 Si 0.755243 28.8449 1.4948 2.4 -34.4621 1.00794e+07 9.45742e+06 1.17388e+07 1.15998e+06 1.50747e+06 2.1355e+06
193 3 O 0.735127 27.2317 1.4948 -1.2 -6.22231 -5.42753e+06 -121408 -2.17338e+07 1.17268e+06 -9.2748e+06 3.23851e+06
194 3 O 7.37914 29.819 1.4948 -1.2 -9.45627 -4.74582e+06 -555414 -1.66274e+06 -912338 -648603 1.15205e+06
195 3 O 0.0850649 29.5511 0.196716 -1.2 -5.19314 -3.54176e+06 -1.4878e+07 -1.51655e+07 2.69957e+06 -9.39299e+06 592686
196 3 O 0.0543974 29.5511 2.79288 -1.2 -8.69349 -2.17841e+06 -3.64547e+06 -2.55282e+06 -856746 -87625.7 1.18759e+06
197 1 Mg 6.94543 33.243 0 1.2 -6.21591 4.06185e+06 2.30684e+06 -3.79268e+06 1.59329e+06 -1.40251e+06 -553978
198 1 Mg 4.23267 37.9507 1.4948 1.2 -8.86489 -1.11447e+06 2.64403e+06 4.50278e+06 -1.11226e+06 -211320 391897
199 2 Si 6.02709 35.2665 1.4948 2.4 -33.9209 1.08205e+07 8.92402e+06 1.08281e+07 -377442 1.61324e+06 -1.31327e+06
200 3 O 6.09339 36.8798 1.4948 -1.2 -8.01749 -6.55239e+06 -285402 -1.02697e+07 -158704 -6.62072e+06 -2.31506e+06
201 3 O 2.40018 34.2925 1.4948 -1.2 -9.48208 -4.34786e+06 -865497 -1.75246e+06 1.70317e+06 -513256 -1.12797e+06
202 3 O 5.31645 34.5604 0.196716 -1.2 -6.14376 -4.12292e+06 -1.31231e+07 -9.73398e+06 -962758 -7.86749e+06 748302
203 1 Mg 6.91449 33.243 2.9896 1.2 -7.98494 4.65116e+06 -1.73646e+06 -537148 1.30806e+06 -1.42019e+06 2.08913e+06
204 3 O 5.291 34.5604 2.79288 -1.2 -8.7799 -2.08938e+06 -3.73736e+06 -2.25313e+06 1.10377e+06 -246743 -1.45769e+06
205 1 Mg -0.471101 33.2843 4.4844 1.2 -8.66854 -989345 2.51509e+06 3.1568e+06 -429745 -89793.2 223567
206 2 Si -2.26307 35.9684 4.4844 2.4 -32.8407 1.13379e+07 8.48911e+06 8.97233e+06 145268 -170244 846833
207 3 O -2.33122 34.3552 4.4844 -1.2 -9.50556 -3.95985e+06 -88097.1 -3.70151e+06 377457 -9486.4 -374723
208 3 O 1.36549 36.9425 4.4844 -1.2 -9.26252 -3.43921e+06 -2.55241e+06 -3.2592e+06 2.32246e+06 -294999 -278879
209 3 O -1.52658 36.6746 3.18632 -1.2 -8.95611 -2.79597e+06 -3.42256e+06 -1.26213e+06 1.16104e+06 135325 -1.86369e+06
210 3 O -1.55122 36.6746 5.78248 -1.2 -8.97356 -2.71186e+06 -3.28201e+06 -2.25993e+06 1.24139e+06 58591.4 1.05918e+06
211 1 Mg 1.882 35.6175 2.9896 1.2 -8.0058 4.61462e+06 -1.65801e+06 -565925 -1.14266e+06 -1.47372e+06 -1.24213e+06
212 1 Mg 4.69415 35.5762 4.4844 1.2 -8.67876 -798289 2.3709e+06 3.26248e+06 1.28107e+06 -159980 302089
213 2 Si 2.88522 37.641 4.4844 2.4 -32.834 1.12759e+07 8.67307e+06 8.785e+06 780987 -167015 628691
214 3 O 2.91159 39.2543 4.4844 -1.2 -9.4699 -3.97726e+06 -121613 -3.87231e+06 577512 -43491 -269025
215 3 O -3.74183 36.667 4.4844 -1.2 -9.32676 -3.56045e+06 -2.40524e+06 -3.12996e+06 -1.38172e+06 -323398 -411508
216 3 O 3.58014 36.9349 3.18632 -1.2 -8.99655 -2.76817e+06 -3.5988e+06 -1.30449e+06 -867797 223768 901555
217 1 Mg 1.90997 35.6175 0 1.2 -6.23317 3.30031e+06 2.26463e+06 -3.72565e+06 -1.67675e+06 -796053 1.10122e+06
218 3 O 3.55582 36.9349 5.78248 -1.2 -9.0675 -2.65657e+06 -3.58278e+06 -1.92035e+06 -899131 -68459.2 -1.53344e+06
219 1 Mg -0.93068 35.6588 1.4948 1.2 -8.84579 -670259 2.49649e+06 4.56566e+06 1.84894e+06 -325806 390077
220 2 Si 0.881882 33.5939 1.4948 2.4 -34.0669 1.05153e+07 9.26112e+06 1.09372e+07 1.39863e+06 1.61929e+06 2.61292e+06
221 3 O 0.859602 31.9807 1.4948 -1.2 -7.17357 -6.45687e+06 -262958 -1.53894e+07 1.14896e+06 -8.46007e+06 2.39685e+06
222 3 O 7.507 34.568 1.4948 -1.2 -9.53648 -4.51792e+06 -763670 -1.62069e+06 -942690 -427201 787832
223 3 O 0.210186 34.3001 0.196716 -1.2 -6.17825 -4.30565e+06 -1.38302e+07 -9.63719e+06 1.54228e+06 -7.91006e+06 -886717
224 3 O 0.184454 34.3001 2.79288 -1.2 -8.82181 -2.10626e+06 -3.88953e+06 -2.22231e+06 -828267 -199309 683324
225 1 Mg 7.07415 37.992 0 1.2 -6.27439 2.77218e+06 2.26516e+06 -3.51685e+06 1.88571e+06 -407544 -855341
226 1 Mg 4.36817 42.6997 1.4948 1.2 -8.85736 -1.33174e+06 2.92758e+06 4.04254e+06 -994924 127429 595712
227 2 Si 6.16058 40.0155 1.4948 2.4 -33.6491 1.12621e+07 8.50603e+06 1.03764e+07 -363571 1.34301e+06 -721883
228 3 O 6.22815 41.6288 1.4948 -1.2 -8.64186 -6.03146e+06 -401103 -6.76582e+06 39429.5 -4.5269e+06 -2.10614e+06
229 3 O 2.53282 39.0415 1.4948 -1.2 -9.49557 -4.20715e+06 -1.03419e+06 -1.86343e+06 1.7173e+06 -344244 -1.34535e+06
230 3 O 5.44674 39.3094 0.196716 -1.2 -7.06937 -4.51341e+06 -1.08257e+07 -5.71765e+06 -162899 -5.78099e+06 1.35313e+06
231 1 Mg 7.04922 37.992 2.9896 1.2 -7.95399 4.59695e+06 -1.71254e+06 -545545 1.31004e+06 -1.46505e+06 2.31351e+06
232 3 O 5.42658 39.3094 2.79288 -1.2 -8.8235 -2.17032e+06 -3.79574e+06 -2.07652e+06 1.12111e+06 -320807 -1.5974e+06
233 1 Mg -0.333062 38.0333 4.4844 1.2 -8.71632 -1.0243e+06 2.39105e+06 3.39032e+06 -460555 -170996 327947
234 2 Si -2.12255 40.7174 4.4844 2.4 -32.8722 1.11539e+07 9.02064e+06 8.67019e+06 105766 -227931 617971
235 3 O -2.19212 39.1042 4.4844 -1.2 -9.4476 -3.85595e+06 -100593 -3.88979e+06 444083 5262.24 -318865
236 3 O 1.50676 41.6915 4.4844 -1.2 -9.27825 -3.50774e+06 -2.89904e+06 -2.83185e+06 2.26961e+06 -186441 -335435
237 3 O -1.3884 41.4236 3.18632 -1.2 -8.94833 -2.68686e+06 -3.67652e+06 -1.23826e+06 1.15281e+06 163123 -1.90355e+06
238 3 O -1.40713 41.4236 5.78248 -1.2 -9.00093 -2.60101e+06 -3.78423e+06 -1.55764e+06 1.15476e+06 139774 1.14166e+06
239 1 Mg 2.01892 40.3665 2.9896 1.2 -7.97844 4.63182e+06 -1.47962e+06 -792161 -1.08968e+06 -1.59506e+06 -1.12566e+06
240 1 Mg 4.83434 40.3252 4.4844 1.2 -8.67176 -767731 2.52232e+06 3.06887e+06 1.25181e+06 -26433.2 319921
241 2 Si 3.02698 42.39 4.4844 2.4 -32.8223 1.1276e+07 9.48958e+06 7.95208e+06 836250 -60736.6 923191
242 3 O 3.05433 44.0033 4.4844 -1.2 -9.4326 -3.95223e+06 -481143 -3.60316e+06 523396 -85744.6 -635551
243 3 O -3.60077 41.416 4.4844 -1.2 -9.33044 -3.52212e+06 -2.70951e+06 -2.8685e+06 -1.29195e+06 -271293 -353934
244 3 O 3.71851 41.6839 3.18632 -1.2 -8.99486 -2.69834e+06 -3.8727e+06 -1.21436e+06 -853551 212792 745970
245 1 Mg 2.04077 40.3665 0 1.2 -6.26749 2.26244e+06 2.1961e+06 -3.98547e+06 -1.83447e+06 429662 2.08651e+06
246 3 O 3.70011 41.6839 5.78248 -1.2 -9.08443 -2.64556e+06 -4.05929e+06 -1.42771e+06 -866542 -274457 -1.40004e+06
247 1 Mg -0.796865 40.4078 1.4948 1.2 -8.83844 -976718 2.75102e+06 4.21417e+06 1.742e+06 29362.8 523080
248 2 Si 1.01387 38.3429 1.4948 2.4 -33.7669 1.1009e+07 8.72205e+06 1.05372e+07 1.50686e+06 1.43131e+06 2.82195e+06
249 3 O 0.989947 36.7297 1.4948 -1.2 -8.00875 -6.61344e+06 -269370 -1.03898e+07 1.05498e+06 -6.62044e+06 1.57488e+06
250 3 O 7.63988 39.317 1.4948 -1.2 -9.53762 -4.31571e+06 -937278 -1.82121e+06 -928927 -259777 628574
251 3 O 0.340253 39.0491 0.196716 -1.2 -7.07527 -4.59569e+06 -1.17189e+07 -5.68711e+06 402018 -5.84871e+06 -1.98869e+06
252 3 O 0.319795 39.0491 2.79288 -1.2 -8.85958 -2.16206e+06 -3.92794e+06 -2.1064e+06 -841397 -176240 519931
253 1 Mg 7.20667 42.741 0 1.2 -6.31248 1.86846e+06 2.20645e+06 -3.95709e+06 1.97505e+06 919180 -1.51984e+06
254 1 Mg 4.50613 47.4487 1.4948 1.2 -8.86824 -1.34425e+06 2.98446e+06 3.81241e+06 -865782 426971 752381
255 2 Si 6.29731 44.7645 1.4948 2.4 -33.4918 1.15894e+07 8.16355e+06 1.01165e+07 -281631 895542 -93250.2
256 3 O 6.36567 46.3778 1.4948 -1.2 -9.03022 -5.24472e+06 -407429 -4.82279e+06 203090 -2.67826e+06 -2.03563e+06
257 3 O 2.669 43.7905 1.4948 -1.2 -9.4503 -4.07699e+06 -1.35129e+06 -2.01905e+06 1.70108e+06 -211269 -1.54955e+06
258 3 O 5.58048 44.0584 0.196716 -1.2 -7.80035 -4.37738e+06 -8.28793e+06 -3.25558e+06 333733 -3.71518e+06 1.74256e+06
259 1 Mg 7.1879 42.741 2.9896 1.2 -7.94424 4.56391e+06 -1.43439e+06 -792970 1.25485e+06 -1.58118e+06 2.44876e+06
260 3 O 5.56564 44.0584 2.79288 -1.2 -8.83017 -2.26827e+06 -3.95774e+06 -1.82992e+06 1.16015e+06 -289705 -1.8359e+06
261 1 Mg -0.19105 42.7823 4.4844 1.2 -8.70694 -1.02104e+06 2.73485e+06 3.02497e+06 -399635 -153614 456360
262 2 Si -1.97909 45.4664 4.4844 2.4 -32.9687 1.14554e+07 9.20533e+06 8.34853e+06 -99477.4 -434870 1.21528e+06
263 3 O -2.04947 43.8532 4.4844 -1.2 -9.44753 -3.87355e+06 -442633 -3.52824e+06 523463 29368.5 -538708
264 3 O 1.65063 46.4405 4.4844 -1.2 -9.19368 -3.69787e+06 -2.96492e+06 -2.71908e+06 2.18616e+06 -344987 -608921
265 3 O -1.24745 46.1726 3.18632 -1.2 -8.8979 -2.80134e+06 -3.73258e+06 -1.25124e+06 1.15087e+06 179130 -2.06912e+06
266 3 O -1.26044 46.1726 5.78248 -1.2 -8.92846 -3.00753e+06 -3.61162e+06 -1.55824e+06 1.31844e+06 428759 1.00968e+06
267 1 Mg 2.15896 45.1155 2.9896 1.2 -8.01293 4.65207e+06 -1.31981e+06 -901276 -1.02192e+06 -1.62917e+06 -869630
268 1 Mg 4.97763 45.0742 4.4844 1.2 -8.75345 -791936 2.75646e+06 2.99022e+06 1.23511e+06 -28444.2 773411
269 2 Si 3.1711 47.139 4.4844 2.4 -33.1366 1.12727e+07 9.51302e+06 8.436e+06 792484 312950 1.46991e+06