ITEM: TIMESTEP
66700
ITEM: NUMBER OF ATOMS
10500
ITEM: BOX BOUNDS xy xz yz pp pp pp
0.0000000000000000e+00 1.5297749999999999e+01 5.0992499999999996e+00
0.0000000000000000e+00 1.1872499999999999e+02 0.0000000000000000e+00
0.0000000000000000e+00 8.9688000000000002e+01 0.0000000000000000e+00
ITEM: ATOMS id type element xu yu zu q c_pe c_s[1] c_s[2] c_s[3] c_s[4] c_s[5] c_s[6]
1 1 Mg 6.2404 -6.37941e-06 0 1.2 -4.48888 7.93301e+06 -1.38235e+06 -6.62043e+06 -34754.7 2.64994e+06 -263211
2 1 Mg 3.46349 4.70768 1.4948 1.2 -8.55852 -257795 3.15861e+06 3.90754e+06 -929788 -650220 -225953
3 2 Si 5.2885 2.02354 1.4948 2.4 -35.4056 1.0226e+07 1.19126e+07 1.03797e+07 8.80623e+06 681363 -3.44975e+06
4 3 O 5.33628 3.63678 1.4948 -1.2 -4.65137 -926436 -1.92638e+06 -3.31931e+07 -317288 3.83331e+06 -3.60665e+06
5 3 O 1.67294 1.04952 1.4948 -1.2 -0.971223 -2.04595e+07 -7.98361e+07 -1.64265e+06 -2.41355e+07 -91390.2 33641.5
6 3 O 4.59532 1.31737 0.196716 -1.2 -2.97706 -1.99146e+06 -7.17049e+06 -3.00463e+07 -5.99723e+06 6.25311e+06 -2.49623e+06
7 1 Mg 6.18956 -6.37941e-06 2.9896 1.2 -5.06165 1.74857e+06 -2.77742e+07 -3.40004e+06 -8.8684e+06 2.49893e+06 3.94946e+06
8 3 O 4.55118 1.31737 2.79288 -1.2 -7.38728 -54768 -5.14817e+06 -2.70122e+06 -2.91269e+06 -3.38868e+06 -1.00313e+06
9 1 Mg -1.20682 0.0413099 4.4844 1.2 8.70963 -3.05218e+07 -9.29366e+07 -597101 -2.84171e+07 -1.27085e+06 164361
10 2 Si -3.0337 2.72544 4.4844 2.4 -33.3995 1.51516e+07 7.81128e+06 6.92154e+06 1.45893e+06 215003 -1.22408e+06
11 3 O -3.08099 1.11221 4.4844 -1.2 -9.42635 -6.493e+06 -313557 -1.80263e+06 -1.20349e+06 -305879 458106
12 3 O 0.582463 3.69946 4.4844 -1.2 -8.78142 -3.42363e+06 -5.88837e+06 -2.57779e+06 -671411 -263427 125186
13 3 O -2.29524 3.43162 3.18632 -1.2 -8.95553 -4.4741e+06 -2.95616e+06 -57654.7 1.11031e+06 -882729 -666118
14 3 O -2.34216 3.43162 5.78248 -1.2 -8.76081 -4.48605e+06 -3.70424e+06 -614661 866381 307516 1.71891e+06
15 1 Mg 1.12778 2.37449 2.9896 1.2 -7.735 5.33956e+06 -1.22866e+06 -1.03743e+06 -3.23474e+06 -4.19933e+06 -2.3986e+06
16 1 Mg 3.92855 2.33318 4.4844 1.2 -8.64695 -3.90323e+06 5.35792e+06 4.42819e+06 1.30533e+06 206798 436325
17 2 Si 2.09341 4.39804 4.4844 2.4 -32.7662 1.21909e+07 7.66845e+06 8.569e+06 349026 -220423 163009
18 3 O 2.09991 6.01128 4.4844 -1.2 -9.33477 -4.02701e+06 -444550 -3.72232e+06 496142 -235214 155413
19 3 O -4.52137 3.42402 4.4844 -1.2 -9.0425 -3.22352e+06 -3.34106e+06 -3.04644e+06 -2.31045e+06 -719280 238764
20 3 O 2.80834 3.69187 3.18632 -1.2 -9.19717 -2.23785e+06 -3.24613e+06 -98030.6 440769 -447328 -298440
21 1 Mg 1.17857 2.37449 0 1.2 -5.16761 -540319 -1.43535e+07 -6.90919e+06 6.52783e+06 1.17114e+06 4.3041e+06
22 3 O 2.76143 3.69187 5.78248 -1.2 -9.04127 -2.99884e+06 -2.94482e+06 -1.05113e+06 476232 113674 -15460.5
23 1 Mg -1.67381 2.41581 1.4948 1.2 -7.65406 1.7051e+06 232270 3.59241e+06 1.36826e+06 -551407 777036
24 2 Si 0.16286 0.350945 1.4948 2.4 -24.718 -7.91637e+06 1.33297e+07 1.04874e+07 1.64017e+06 2.81883e+06 1.01029e+06
25 3 O 0.15972 -1.26229 1.4948 -1.2 -4.67939 -1.08303e+07 -8.44563e+06 -2.85119e+07 -5.62225e+06 -8.52151e+06 -2.62554e+06
26 3 O 6.77654 1.32496 1.4948 -1.2 -10.2763 -5.86696e+06 1.31623e+06 -928830 -631711 -676783 1.23188e+06
27 3 O -0.508028 1.05712 0.196716 -1.2 -9.48556 -6054.8 -5.14692e+06 -181274 -582465 183094 -4.37305e+06
28 3 O -0.552171 1.05712 2.79288 -1.2 -6.67403 -5.50853e+06 -5.0184e+06 -2.42623e+07 1.37583e+06 -6.79294e+06 -5.40787e+06
29 1 Mg 6.31713 4.74899 0 1.2 -4.98257 455130 -1.24088e+07 -6.61569e+06 -7.3087e+06 1.45232e+06 -3.98322e+06
30 1 Mg 3.54847 9.45668 1.4948 1.2 -8.3851 334276 2.11044e+06 4.06441e+06 -954351 -921062 -680263
31 2 Si 5.36879 6.77254 1.4948 2.4 -34.4353 7.49697e+06 1.29171e+07 1.07056e+07 1.69574e+06 106883 -2.62896e+06
32 3 O 5.41937 8.38578 1.4948 -1.2 -4.69799 -411952 -1.33432e+06 -3.48295e+07 746712 1.11926e+06 -3.88126e+06
33 3 O 1.75158 5.79852 1.4948 -1.2 -9.42378 -4.07871e+06 -2.808e+06 -1.0272e+06 1.9644e+06 -1.5985e+06 -999114
34 3 O 4.67421 6.06637 0.196716 -1.2 -3.71304 85984.7 -1.05792e+07 -3.10384e+07 -2.02185e+06 1.29963e+06 -4.04892e+06
35 1 Mg 6.26654 4.74899 2.9896 1.2 -8.1188 4.33534e+06 -1.21202e+06 -545336 1.77943e+06 -901566 1.6781e+06
36 3 O 4.63043 6.06637 2.79288 -1.2 -8.75577 -1.72444e+06 -4.40077e+06 -1.80366e+06 910320 -49522.2 -1.18367e+06
37 1 Mg -1.12976 4.79031 4.4844 1.2 -8.90275 -295383 3.22595e+06 2.20171e+06 -747661 -254384 -401575
38 2 Si -2.9517 7.47444 4.4844 2.4 -32.9978 1.1706e+07 9.60831e+06 7.71122e+06 58578.3 -239755 -245296
39 3 O -3.00198 5.86121 4.4844 -1.2 -9.36504 -4.32028e+06 -603282 -3.09352e+06 103777 -135475 176417
40 3 O 0.666315 8.44846 4.4844 -1.2 -9.2138 -3.53041e+06 -3.00224e+06 -2.78251e+06 2.22198e+06 -565952 313234
41 3 O -2.21213 8.18062 3.18632 -1.2 -9.03324 -3.09747e+06 -3.74889e+06 -221725 1.117e+06 -263731 -1.18453e+06
42 3 O -2.25864 8.18062 5.78248 -1.2 -8.90692 -3.16304e+06 -3.88544e+06 -1.45259e+06 1.0622e+06 162843 1.19398e+06
43 1 Mg 1.20893 7.12349 2.9896 1.2 -8.08166 4.22761e+06 -1.19571e+06 -534138 -1.30116e+06 -1.26859e+06 -2.00814e+06
44 1 Mg 4.00982 7.08218 4.4844 1.2 -8.7989 -768612 2.94933e+06 2.8364e+06 1.10817e+06 -333260 -121457
45 2 Si 2.17861 9.14704 4.4844 2.4 -32.9399 1.1264e+07 9.74298e+06 7.89554e+06 534407 135264 -566398
46 3 O 2.18828 10.7603 4.4844 -1.2 -9.47058 -3.90767e+06 -600196 -3.45846e+06 487476 -274416 197773
47 3 O -4.43805 8.17302 4.4844 -1.2 -9.21444 -3.46006e+06 -2.94976e+06 -2.86485e+06 -1.61231e+06 -439758 128181
48 3 O 2.89193 8.44087 3.18632 -1.2 -9.03398 -2.84653e+06 -3.96844e+06 -405275 -936165 -259577 1.60516e+06
49 1 Mg 1.25915 7.12349 0 1.2 -5.36832 1.05722e+06 -7.15773e+06 -6.74479e+06 5.88161e+06 1.3594e+06 2.199e+06
50 3 O 2.84547 8.44087 5.78248 -1.2 -8.84987 -2.8287e+06 -4.22628e+06 -1.75157e+06 -965387 -229581 -877726
51 1 Mg -1.59284 7.16481 1.4948 1.2 -8.30934 964274 1.77741e+06 3.8451e+06 1.44449e+06 -907107 -23164.2
52 2 Si 0.240329 5.09994 1.4948 2.4 -34.2084 8.53766e+06 1.18278e+07 1.03911e+07 -1.9597e+06 -1.01547e+06 1.26184e+06
53 3 O 0.234538 3.48671 1.4948 -1.2 -5.14759 -1.89878e+06 -43727.9 -3.33444e+07 381888 5.16908e+06 4.24559e+06
54 3 O 6.85564 6.07396 1.4948 -1.2 -9.51596 -4.55331e+06 -2.25911e+06 -915616 -1.34117e+06 -1.82535e+06 1.50493e+06
55 3 O -0.429565 5.80612 0.196716 -1.2 -3.97369 -788710 -9.22238e+06 -3.10597e+07 1.8618e+06 1.19432e+06 4.95646e+06
56 3 O -0.473377 5.80612 2.79288 -1.2 -8.85298 -2.3268e+06 -3.9863e+06 -1.56133e+06 -759367 244544 1.6288e+06
57 1 Mg 6.40169 9.49799 0 1.2 -5.33333 1.64323e+06 -6.08253e+06 -6.95102e+06 -5.46886e+06 992192 -2.84169e+06
58 1 Mg 3.64209 14.2057 1.4948 1.2 -8.4347 243888 1.96703e+06 4.33675e+06 -1.043e+06 -984497 -555667
59 2 Si 5.45748 11.5215 1.4948 2.4 -34.3465 7.69014e+06 1.23105e+07 1.09527e+07 905860 324978 -2.83404e+06
60 3 O 5.51101 13.1348 1.4948 -1.2 -4.75973 -580014 -1.09966e+06 -3.4617e+07 467879 -2.53075e+06 -4.03736e+06
61 3 O 1.83851 10.5475 1.4948 -1.2 -9.53154 -4.28925e+06 -2.21911e+06 -961472 1.55269e+06 -1.59474e+06 -738265
62 3 O 4.7611 10.8154 0.196716 -1.2 -3.56873 484429 -1.18037e+07 -3.16656e+07 -2.4735e+06 -1.74878e+06 -3.91586e+06
63 1 Mg 6.35203 9.49799 2.9896 1.2 -8.0204 4.17536e+06 -1.27347e+06 -483741 1.3389e+06 -1.21169e+06 1.69358e+06
64 3 O 4.71833 10.8154 2.79288 -1.2 -8.84411 -1.85778e+06 -4.10922e+06 -1.83157e+06 1.04677e+06 27320.6 -999359
65 1 Mg -1.0438 9.53931 4.4844 1.2 -8.70048 -721806 2.79518e+06 2.6984e+06 -602063 -378669 -255764
66 2 Si -2.8604 12.2234 4.4844 2.4 -32.7929 1.12861e+07 9.50135e+06 7.91095e+06 78806.7 -114465 -316635
67 3 O -2.91391 10.6102 4.4844 -1.2 -9.45992 -3.93259e+06 -481743 -3.45003e+06 184869 -124568 240497
68 3 O 0.7596 13.1975 4.4844 -1.2 -9.27902 -3.2853e+06 -2.9071e+06 -3.01585e+06 2.18063e+06 -502472 34038.3
69 3 O -2.12001 12.9296 3.18632 -1.2 -9.07328 -2.90535e+06 -3.69596e+06 -406436 1.11915e+06 -235255 -1.32912e+06
70 3 O -2.16532 12.9296 5.78248 -1.2 -9.06455 -2.8895e+06 -4.00565e+06 -1.25047e+06 948934 -180235 1.3091e+06
71 1 Mg 1.29891 11.8725 2.9896 1.2 -8.00791 4.19423e+06 -1.24256e+06 -575302 -1.20042e+06 -1.20405e+06 -1.91388e+06
72 1 Mg 4.10033 11.8312 4.4844 1.2 -8.65552 -806722 2.83454e+06 2.76086e+06 1.07629e+06 -288193 -91935.3
73 2 Si 2.27333 13.896 4.4844 2.4 -32.8022 1.11437e+07 9.26275e+06 8.2701e+06 524032 -126667 -36396.4
74 3 O 2.28634 15.5093 4.4844 -1.2 -9.47518 -3.90011e+06 -250367 -3.80039e+06 508709 -97112.5 7315.07
75 3 O -4.34533 12.922 4.4844 -1.2 -9.33795 -3.40778e+06 -2.82593e+06 -2.84564e+06 -1.4851e+06 -425074 73780.6
76 3 O 2.98455 13.1899 3.18632 -1.2 -9.09726 -2.85131e+06 -3.78988e+06 -502283 -921604 -145912 1.4795e+06
77 1 Mg 1.34779 11.8725 0 1.2 -5.57984 2.90596e+06 -2.5331e+06 -6.98084e+06 3.55828e+06 821155 1.211e+06
78 3 O 2.93934 13.1899 5.78248 -1.2 -9.05298 -2.73874e+06 -3.94496e+06 -1.62407e+06 -789496 -178080 -1.19636e+06
79 1 Mg -1.50344 11.9138 1.4948 1.2 -8.37806 576932 1.99891e+06 4.10485e+06 1.57264e+06 -944798 92110.8
80 2 Si 0.326006 9.84894 1.4948 2.4 -34.325 7.80231e+06 1.24496e+07 1.06395e+07 -636035 134811 1.55613e+06
81 3 O 0.317364 8.23571 1.4948 -1.2 -4.70471 -571241 -1.21176e+06 -3.49115e+07 -103996 1.1601e+06 4.55776e+06
82 3 O 6.94307 10.823 1.4948 -1.2 -9.56979 -4.43145e+06 -2.01241e+06 -923451 -997985 -1.51753e+06 1.40033e+06
83 3 O -0.343122 10.5551 0.196716 -1.2 -3.6669 180768 -1.12599e+07 -3.17133e+07 2.46868e+06 -2.06e+06 4.89535e+06
84 3 O -0.385966 10.5551 2.79288 -1.2 -8.88258 -1.95702e+06 -4.16466e+06 -1.75957e+06 -851671 95504.7 1.41132e+06
85 1 Mg 6.49448 14.247 0 1.2 -5.56612 3.40702e+06 -1.8465e+06 -7.00558e+06 -2.97869e+06 252653 -1.84761e+06
86 1 Mg 3.74457 18.9547 1.4948 1.2 -8.49934 13467.6 2.00018e+06 4.56045e+06 -1.11114e+06 -1.0044e+06 -375768
87 2 Si 5.55495 16.2705 1.4948 2.4 -34.3258 8.01034e+06 1.15556e+07 1.1373e+07 520349 798200 -2.64303e+06
88 3 O 5.6115 17.8838 1.4948 -1.2 -5.08111 -1.60617e+06 -828208 -3.21163e+07 79008.9 -6.05966e+06 -4.00785e+06
89 3 O 1.93416 15.2965 1.4948 -1.2 -9.56356 -4.35411e+06 -1.66469e+06 -1.1493e+06 1.53755e+06 -1.35384e+06 -835433
90 3 O 4.85636 15.5644 0.196716 -1.2 -3.5594 444236 -1.32863e+07 -3.03234e+07 -3.02746e+06 -5.12384e+06 -3.46651e+06
91 1 Mg 6.44662 14.247 2.9896 1.2 -7.96631 4.24794e+06 -1.47504e+06 -442434 1.30816e+06 -1.18232e+06 1.84214e+06
92 3 O 4.81537 15.5644 2.79288 -1.2 -8.85426 -1.88491e+06 -3.86557e+06 -2.06247e+06 1.0765e+06 2392.21 -1.14384e+06
93 1 Mg -0.948271 14.2883 4.4844 1.2 -8.68146 -988902 2.66154e+06 3.06133e+06 -513211 -216971 10153.6
94 2 Si -2.75928 16.9724 4.4844 2.4 -32.784 1.14299e+07 8.7286e+06 8.52577e+06 -5711.46 158769 -61651.9
95 3 O -2.81617 15.3592 4.4844 -1.2 -9.49717 -3.96663e+06 -187321 -3.64329e+06 229668 -247391 -6436.49
96 3 O 0.862762 17.9465 4.4844 -1.2 -9.24665 -3.23013e+06 -2.57916e+06 -3.44868e+06 2.16636e+06 -433126 93851
97 3 O -2.0185 17.6786 3.18632 -1.2 -9.06829 -2.87786e+06 -3.43599e+06 -722115 1.16579e+06 -224562 -1.41362e+06
98 3 O -2.06164 17.6786 5.78248 -1.2 -9.01642 -2.92977e+06 -3.53773e+06 -1.73263e+06 1.12421e+06 -446374 1.3413e+06
99 1 Mg 1.39817 16.6215 2.9896 1.2 -8.00452 4.23593e+06 -1.54728e+06 -319801 -1.16847e+06 -1.26425e+06 -1.75152e+06
100 1 Mg 4.20062 16.5802 4.4844 1.2 -8.64053 -712334 2.47344e+06 3.00594e+06 1.12172e+06 -369596 54740
101 2 Si 2.37796 18.645 4.4844 2.4 -32.8174 1.11469e+07 8.66233e+06 8.89716e+06 745260 -279605 -172931
102 3 O 2.39434 20.2583 4.4844 -1.2 -9.52231 -3.83943e+06 -122339 -3.92201e+06 459704 -77461.1 202587
103 3 O -4.24274 17.671 4.4844 -1.2 -9.35744 -3.53465e+06 -2.46906e+06 -3.04474e+06 -1.42018e+06 -461213 -25074.5
104 3 O 3.08659 17.9389 3.18632 -1.2 -9.09601 -2.84732e+06 -3.53852e+06 -795500 -946525 -3195.77 1.397e+06
105 1 Mg 1.44478 16.6215 0 1.2 -5.72143 4.60623e+06 229161 -6.77388e+06 1.40889e+06 -84478.1 692449
106 3 O 3.0436 17.9389 5.78248 -1.2 -8.97814 -2.86035e+06 -3.54133e+06 -2.23514e+06 -924930 -29498.2 -1.26333e+06
107 1 Mg -1.40524 16.6628 1.4948 1.2 -8.45814 395193 1.9187e+06 4.44747e+06 1.691e+06 -936941 209379
108 2 Si 0.420358 14.5979 1.4948 2.4 -34.3359 7.83459e+06 1.18881e+07 1.11701e+07 -128911 565049 2.05672e+06
109 3 O 0.408732 12.9847 1.4948 -1.2 -4.74669 -601374 -1.0923e+06 -3.47579e+07 225902 -2.56826e+06 4.52839e+06
110 3 O 7.03923 15.572 1.4948 -1.2 -9.60618 -4.50693e+06 -1.5001e+06 -1.06056e+06 -946892 -1.33032e+06 1.21622e+06
111 3 O -0.248332 15.3041 0.196716 -1.2 -3.66356 113828 -1.28189e+07 -3.03466e+07 3.24821e+06 -5.41718e+06 4.24506e+06
112 3 O -0.289436 15.3041 2.79288 -1.2 -8.87186 -1.82778e+06 -3.97821e+06 -2.13274e+06 -861928 21541.4 1.18787e+06
113 1 Mg 6.59566 18.996 0 1.2 -5.68817 4.78711e+06 700606 -6.69405e+06 -916090 -635945 -1.01234e+06
114 1 Mg 3.85574 23.7037 1.4948 1.2 -8.54933 -310581 2.39398e+06 4.43094e+06 -1.18386e+06 -916492 -225492
115 2 Si 5.66125 21.0195 1.4948 2.4 -34.1746 8.31612e+06 1.13059e+07 1.11362e+07 187869 1.23577e+06 -2.49045e+06
116 3 O 5.72074 22.6328 1.4948 -1.2 -5.72414 -3.20277e+06 -911625 -2.70656e+07 -220453 -8.52081e+06 -3.64271e+06
117 3 O 2.03867 20.0455 1.4948 -1.2 -9.61841 -4.3254e+06 -1.40284e+06 -1.14993e+06 1.56684e+06 -1.11735e+06 -871015
118 3 O 4.96004 20.3134 0.196716 -1.2 -3.90822 -221451 -1.47575e+07 -2.64422e+07 -3.18597e+06 -7.93774e+06 -2.69101e+06
119 1 Mg 6.55057 18.996 2.9896 1.2 -7.93035 4.31971e+06 -1.65808e+06 -388279 1.29529e+06 -1.17283e+06 1.88357e+06
120 3 O 4.92172 20.3134 2.79288 -1.2 -8.88112 -1.81579e+06 -3.86372e+06 -2.12781e+06 1.06914e+06 -68434.3 -1.13832e+06
121 1 Mg -0.84282 19.0373 4.4844 1.2 -8.67352 -1.09109e+06 2.41907e+06 3.38392e+06 -562318 -176147 -144301
122 2 Si -2.64823 21.7214 4.4844 2.4 -32.6161 1.10395e+07 8.87563e+06 8.50235e+06 -112233 -66498 -441771
123 3 O -2.70847 20.1082 4.4844 -1.2 -9.54154 -3.87534e+06 -51807.6 -3.79715e+06 366828 -224120 100823
124 3 O 0.97581 22.6955 4.4844 -1.2 -9.38446 -3.11745e+06 -2.85211e+06 -3.09328e+06 2.19584e+06 -449234 278187
125 3 O -1.9076 22.4276 3.18632 -1.2 -9.12407 -2.74367e+06 -3.65693e+06 -586204 1.18607e+06 -79527.3 -1.36199e+06
126 3 O -1.9475 22.4276 5.78248 -1.2 -9.19822 -2.63675e+06 -3.62152e+06 -1.62308e+06 1.23183e+06 -104943 1.8832e+06
127 1 Mg 1.50678 21.3705 2.9896 1.2 -7.93094 4.25312e+06 -1.45623e+06 -546058 -1.15277e+06 -1.2806e+06 -1.80169e+06
128 1 Mg 4.31086 21.3292 4.4844 1.2 -8.56877 -866370 2.48555e+06 3.0334e+06 1.22445e+06 -277462 -111207
129 2 Si 2.49243 23.394 4.4844 2.4 -32.5487 1.08738e+07 9.27557e+06 8.11323e+06 740992 -158540 -342130
130 3 O 2.51204 25.0073 4.4844 -1.2 -9.60031 -3.79114e+06 -403651 -3.58725e+06 534878 -83665.6 48990.8
131 3 O -4.13026 22.42 4.4844 -1.2 -9.44276 -3.2814e+06 -2.64313e+06 -2.98939e+06 -1.37978e+06 -428382 126820
132 3 O 3.19799 22.6879 3.18632 -1.2 -9.15722 -2.73143e+06 -3.77477e+06 -641226 -939143 31813.4 1.42746e+06
133 1 Mg 1.5501 21.3705 0 1.2 -5.74293 5.42749e+06 1.92334e+06 -6.47684e+06 -71535.6 -1.00431e+06 397150
134 3 O 3.1583 22.6879 5.78248 -1.2 -9.21775 -2.62301e+06 -3.7425e+06 -1.64478e+06 -951243 -215400 -935885
135 1 Mg -1.29822 21.4118 1.4948 1.2 -8.49738 94022.7 2.20941e+06 4.41634e+06 1.79989e+06 -924448 199121
136 2 Si 0.523568 19.3469 1.4948 2.4 -34.2507 8.1075e+06 1.14172e+07 1.126e+07 305120 976469 2.34654e+06
137 3 O 0.508934 17.7337 1.4948 -1.2 -5.06385 -1.61002e+06 -819849 -3.22826e+07 667014 -6.07427e+06 4.20591e+06
138 3 O 7.14425 20.321 1.4948 -1.2 -9.66604 -4.47154e+06 -1.26745e+06 -1.04223e+06 -932908 -1.102e+06 1.1043e+06
139 3 O -0.145107 20.0531 0.196716 -1.2 -4.01518 -628629 -1.44142e+07 -2.64104e+07 3.6826e+06 -8.20018e+06 3.15203e+06
140 3 O -0.183601 20.0531 2.79288 -1.2 -8.901 -1.76323e+06 -3.97558e+06 -2.20481e+06 -833474 -27174.8 1.2007e+06
141 1 Mg 6.70502 23.745 0 1.2 -5.7491 5.25278e+06 2.18178e+06 -6.15949e+06 414335 -1.47171e+06 -551378
142 1 Mg 3.97493 28.4527 1.4948 1.2 -8.76345 -425994 2.29358e+06 4.75712e+06 -1.21692e+06 -732436 32111
143 2 Si 5.77602 25.7685 1.4948 2.4 -34.0912 9.00841e+06 1.09028e+07 1.08012e+07 -103519 1.60874e+06 -2.12228e+06
144 3 O 5.83821 27.3818 1.4948 -1.2 -6.43221 -5.07432e+06 -637223 -2.10985e+07 -341271 -9.33711e+06 -3.21212e+06
145 3 O 2.15175 24.7945 1.4948 -1.2 -9.64425 -4.29449e+06 -1.36822e+06 -1.04076e+06 1.61602e+06 -908191 -945681
146 3 O 5.07184 25.0624 0.196716 -1.2 -4.54299 -1.4926e+06 -1.55418e+07 -2.07489e+07 -2.77832e+06 -9.45825e+06 -1.49778e+06
147 1 Mg 6.66374 23.745 2.9896 1.2 -7.8713 4.268e+06 -1.39363e+06 -692720 1.31894e+06 -1.23339e+06 1.92769e+06
148 3 O 5.03707 25.0624 2.79288 -1.2 -8.88481 -1.79789e+06 -4.09174e+06 -1.9538e+06 1.06808e+06 -184243 -1.27251e+06
149 1 Mg -0.727559 23.7863 4.4844 1.2 -8.54635 -1.22038e+06 2.82208e+06 2.89719e+06 -538741 -214778 -159653
150 2 Si -2.5277 26.4704 4.4844 2.4 -32.795 1.09526e+07 9.17766e+06 8.58554e+06 31157.5 -154165 536053
151 3 O -2.59107 24.8572 4.4844 -1.2 -9.59576 -3.68414e+06 -489473 -3.44934e+06 345952 -76144 -88591.1
152 3 O 1.09817 27.4445 4.4844 -1.2 -9.27602 -3.47068e+06 -2.70659e+06 -3.05718e+06 2.24953e+06 -336398 -88146.2
153 3 O -1.78784 27.1766 3.18632 -1.2 -8.9977 -2.81841e+06 -3.57617e+06 -847855 1.19112e+06 59702.2 -1.69533e+06
154 3 O -1.82343 27.1766 5.78248 -1.2 -8.90801 -2.63689e+06 -3.56617e+06 -2.34807e+06 1.25877e+06 120211 1.02758e+06
155 1 Mg 1.62435 26.1195 2.9896 1.2 -7.94478 4.43564e+06 -1.39142e+06 -768116 -1.16005e+06 -1.34479e+06 -1.52075e+06
156 1 Mg 4.43064 26.0782 4.4844 1.2 -8.56887 -823590 2.69353e+06 2.78228e+06 1.26605e+06 -150973 145983
157 2 Si 2.61607 28.143 4.4844 2.4 -32.8572 1.16403e+07 8.84724e+06 8.27305e+06 887899 -111596 396564
158 3 O 2.63853 29.7563 4.4844 -1.2 -9.33603 -4.31536e+06 15413 -3.89523e+06 484417 -176739 -251983
159 3 O -4.00841 27.169 4.4844 -1.2 -9.31199 -3.4044e+06 -2.65556e+06 -3.06568e+06 -1.39068e+06 -544644 -290200
160 3 O 3.3182 27.4369 3.18632 -1.2 -9.04669 -2.91381e+06 -3.69392e+06 -793541 -930968 71702.8 1.11034e+06
161 1 Mg 1.66335 26.1195 0 1.2 -5.85466 5.29829e+06 2.53195e+06 -5.55801e+06 -894032 -1.60624e+06 271413
162 3 O 3.28288 27.4369 5.78248 -1.2 -9.13586 -2.85233e+06 -3.73389e+06 -1.53531e+06 -1.03828e+06 -126814 -1.34307e+06
163 1 Mg -1.18278 26.1608 1.4948 1.2 -8.62346 -156604 2.41667e+06 4.46949e+06 1.87806e+06 -864166 292491
164 2 Si 0.635424 24.0959 1.4948 2.4 -34.092 8.5798e+06 1.13313e+07 1.06866e+07 736916 1.32468e+06 2.5516e+06
165 3 O 0.617906 22.4827 1.4948 -1.2 -5.71383 -3.24091e+06 -902126 -2.71883e+07 1.01459e+06 -8.5255e+06 3.7101e+06
166 3 O 7.25781 25.07 1.4948 -1.2 -9.68003 -4.42969e+06 -1.2309e+06 -978391 -935705 -850007 954566
167 3 O -0.0337363 24.8021 0.196716 -1.2 -4.63986 -1.83935e+06 -1.54994e+07 -2.0701e+07 3.49658e+06 -9.60919e+06 1.81413e+06
168 3 O -0.0687235 24.8021 2.79288 -1.2 -8.923 -1.77287e+06 -4.22983e+06 -1.95905e+06 -810321 -52296.1 993431
169 1 Mg 6.82195 28.494 0 1.2 -5.98703 5.00021e+06 2.32277e+06 -4.78719e+06 1.15549e+06 -1.80851e+06 -421508
170 1 Mg 4.10106 33.2017 1.4948 1.2 -9.02697 -495730 2.03695e+06 5.1653e+06 -1.21169e+06 -494788 200256
171 2 Si 5.89839 30.5175 1.4948 2.4 -34.3016 1.03266e+07 9.22574e+06 1.15804e+07 -343531 1.74042e+06 -1.71128e+06
172 3 O 5.96289 32.1308 1.4948 -1.2 -7.08138 -6.5274e+06 -4295.49 -1.55822e+07 -282051 -8.46421e+06 -2.68674e+06
173 3 O 2.27266 29.5435 1.4948 -1.2 -9.4781 -4.51661e+06 -821927 -1.5826e+06 1.64853e+06 -720593 -1.08507e+06
174 3 O 5.19102 29.8114 0.196716 -1.2 -5.22432 -3.1182e+06 -1.46013e+07 -1.51695e+07 -1.93825e+06 -9.336e+06 -264083
175 1 Mg 6.78546 28.494 2.9896 1.2 -8.03611 4.54813e+06 -1.69516e+06 -401740 1.29288e+06 -1.26784e+06 2.17671e+06
176 3 O 5.16061 29.8114 2.79288 -1.2 -8.6695 -2.14732e+06 -3.66007e+06 -2.41685e+06 1.11768e+06 -291390 -1.47565e+06
177 1 Mg -0.603205 28.5353 4.4844 1.2 -8.78839 -869218 2.42531e+06 3.32556e+06 -499068 -390537 132279
178 2 Si -2.39877 31.2194 4.4844 2.4 -33.4449 1.20016e+07 8.29824e+06 9.46036e+06 -51480.8 -509798 422849
179 3 O -2.46483 29.6062 4.4844 -1.2 -9.27396 -4.03686e+06 -49275.7 -4.03981e+06 465865 9488.48 -196174
180 3 O 1.22864 32.1935 4.4844 -1.2 -8.97567 -4.0664e+06 -2.3001e+06 -3.34989e+06 2.2033e+06 -426148 -158619
181 3 O -1.66032 31.9256 3.18632 -1.2 -8.73807 -3.22382e+06 -3.13384e+06 -1.37783e+06 1.15889e+06 198733 -1.7017e+06
182 3 O -1.69072 31.9256 5.78248 -1.2 -8.59205 -3.4841e+06 -3.25731e+06 -2.11586e+06 1.19486e+06 382291 1.31605e+06
183 1 Mg 1.7499 30.8685 2.9896 1.2 -8.16495 4.92432e+06 -1.87611e+06 -412762 -1.10648e+06 -1.3638e+06 -1.32788e+06
184 1 Mg 4.55894 30.8272 4.4844 1.2 -8.93154 -427073 2.21242e+06 3.45288e+06 1.21647e+06 -29870.9 355247
185 2 Si 2.7476 32.892 4.4844 2.4 -33.5267 1.25164e+07 8.13494e+06 9.18718e+06 756213 173877 438933
186 3 O 2.77235 34.5053 4.4844 -1.2 -9.0488 -4.57399e+06 170893 -4.24484e+06 637312 -193169 -222989
187 3 O -3.87837 31.918 4.4844 -1.2 -8.96228 -3.86276e+06 -2.20203e+06 -3.60945e+06 -1.27247e+06 -331449 -274527
188 3 O 3.44611 32.1859 3.18632 -1.2 -8.76712 -3.22847e+06 -3.24928e+06 -1.45789e+06 -875180 73944.4 1.00123e+06
189 1 Mg 1.7837 30.8685 0 1.2 -6.15732 4.62249e+06 2.10206e+06 -4.02807e+06 -1.35738e+06 -1.53281e+06 494795
190 3 O 3.41602 32.1859 5.78248 -1.2 -8.63989 -3.46943e+06 -3.37436e+06 -2.02046e+06 -905789 -411869 -1.32535e+06
191 1 Mg -1.05984 30.9098 1.4948 1.2 -8.89615 -180635 2.08937e+06 4.95593e+06 1.9066e+06 -688127 313374
192 2 Si 0.755243 28.8449 1.4948 2.4 -34.2253 9.76812e+06 9.99158e+06 1.11365e+07 1.1416e+06 1.50994e+06 2.7581e+06
193 3 O 0.735127 27.2317 1.4948 -1.2 -6.43308 -5.13197e+06 -634722 -2.11789e+07 1.1782e+06 -9.275e+06 2.93751e+06
194 3 O 7.37914 29.819 1.4948 -1.2 -9.5012 -4.63677e+06 -664184 -1.59113e+06 -923450 -604255 842047
195 3 O 0.0850649 29.5511 0.196716 -1.2 -5.30112 -3.35047e+06 -1.49867e+07 -1.50756e+07 2.7038e+06 -9.3827e+06 403835
196 3 O 0.0543974 29.5511 2.79288 -1.2 -8.73227 -2.18083e+06 -3.8112e+06 -2.32459e+06 -843005 -54084.3 781301
197 1 Mg 6.94543 33.243 0 1.2 -6.30196 4.1894e+06 1.90706e+06 -3.38255e+06 1.58421e+06 -1.46332e+06 -469722
198 1 Mg 4.23267 37.9507 1.4948 1.2 -9.11728 -725602 2.21458e+06 4.94777e+06 -1.12981e+06 -246321 202149
199 2 Si 6.02709 35.2665 1.4948 2.4 -34.3623 1.14886e+07 8.08412e+06 1.17069e+07 -416472 1.5729e+06 -1.42765e+06
200 3 O 6.09339 36.8798 1.4948 -1.2 -7.77341 -6.93422e+06 136119 -1.07009e+07 -143074 -6.59253e+06 -2.16738e+06
201 3 O 2.40018 34.2925 1.4948 -1.2 -9.29401 -4.67943e+06 -458708 -2.12946e+06 1.69707e+06 -552439 -1.18253e+06
202 3 O 5.31645 34.5604 0.196716 -1.2 -6.01031 -4.35542e+06 -1.2681e+07 -1.0157e+07 -957459 -7.84898e+06 725312
203 1 Mg 6.91449 33.243 2.9896 1.2 -8.25015 4.9751e+06 -2.09723e+06 -75442 1.30051e+06 -1.44346e+06 2.12951e+06
204 3 O 5.291 34.5604 2.79288 -1.2 -8.49088 -2.50891e+06 -3.37335e+06 -2.66233e+06 1.14985e+06 -271113 -1.4029e+06
205 1 Mg -0.471101 33.2843 4.4844 1.2 -9.04615 -286643 2.12312e+06 3.45355e+06 -375101 -274278 131595
206 2 Si -2.26307 35.9684 4.4844 2.4 -33.6897 1.2726e+07 8.27371e+06 9.15315e+06 274522 -381297 348633
207 3 O -2.33122 34.3552 4.4844 -1.2 -9.06122 -4.55416e+06 176404 -4.08362e+06 348939 135362 -74517
208 3 O 1.36549 36.9425 4.4844 -1.2 -8.81214 -4.15292e+06 -2.36243e+06 -3.46738e+06 2.32148e+06 -434601 -214938
209 3 O -1.52658 36.6746 3.18632 -1.2 -8.61782 -3.38107e+06 -3.11671e+06 -1.52823e+06 1.11019e+06 151152 -1.71618e+06
210 3 O -1.55122 36.6746 5.78248 -1.2 -8.52575 -3.67861e+06 -3.44988e+06 -1.64255e+06 1.01941e+06 143599 1.03249e+06
211 1 Mg 1.882 35.6175 2.9896 1.2 -8.32315 5.14275e+06 -2.00505e+06 -238558 -1.13031e+06 -1.42108e+06 -1.28599e+06
212 1 Mg 4.69415 35.5762 4.4844 1.2 -9.12573 -143108 2.18218e+06 3.51065e+06 1.13754e+06 -169465 150192
213 2 Si 2.88522 37.641 4.4844 2.4 -33.7813 1.2457e+07 8.34391e+06 9.45109e+06 635647 -123992 389679
214 3 O 2.91159 39.2543 4.4844 -1.2 -8.99594 -4.50352e+06 88621.2 -4.32745e+06 670188 6690.22 -204479
215 3 O -3.74183 36.667 4.4844 -1.2 -8.8886 -4.25194e+06 -2.24835e+06 -3.30775e+06 -1.35796e+06 -245940 -201736
216 3 O 3.58014 36.9349 3.18632 -1.2 -8.63829 -3.28662e+06 -3.27122e+06 -1.68978e+06 -818864 231640 1.02829e+06
217 1 Mg 1.90997 35.6175 0 1.2 -6.37921 3.55825e+06 1.81384e+06 -3.29882e+06 -1.65138e+06 -760906 1.11959e+06
218 3 O 3.55582 36.9349 5.78248 -1.2 -8.42782 -3.37287e+06 -3.59143e+06 -2.34571e+06 -814056 68729.4 -1.31108e+06
219 1 Mg -0.93068 35.6588 1.4948 1.2 -9.07124 -306158 2.07767e+06 4.98159e+06 1.86477e+06 -332399 340947
220 2 Si 0.881882 33.5939 1.4948 2.4 -34.3952 1.1091e+07 8.48329e+06 1.16652e+07 1.42197e+06 1.63618e+06 2.79976e+06
221 3 O 0.859602 31.9807 1.4948 -1.2 -7.08789 -6.62038e+06 -4551.05 -1.5622e+07 1.15178e+06 -8.4614e+06 2.2045e+06
222 3 O 7.507 34.568 1.4948 -1.2 -9.33196 -4.81553e+06 -347197 -2.06707e+06 -936931 -389008 800337
223 3 O 0.210186 34.3001 0.196716 -1.2 -6.04699 -4.49497e+06 -1.33865e+07 -1.01017e+07 1.53828e+06 -7.92778e+06 -973926
224 3 O 0.184454 34.3001 2.79288 -1.2 -8.55423 -2.58977e+06 -3.51748e+06 -2.53947e+06 -869963 -173369 694117
225 1 Mg 7.07415 37.992 0 1.2 -6.45007 3.02731e+06 1.81188e+06 -3.03721e+06 1.86917e+06 -404192 -1.04927e+06
226 1 Mg 4.36817 42.6997 1.4948 1.2 -9.07141 -970702 2.49893e+06 4.45311e+06 -1.00136e+06 73191.2 134289
227 2 Si 6.16058 40.0155 1.4948 2.4 -34.1376 1.20874e+07 7.614e+06 1.12257e+07 -357573 1.30304e+06 -1.33343e+06
228 3 O 6.22815 41.6288 1.4948 -1.2 -8.41467 -6.43305e+06 45748.2 -7.17567e+06 26544.7 -4.51959e+06 -1.71691e+06
229 3 O 2.53282 39.0415 1.4948 -1.2 -9.24145 -4.58924e+06 -599170 -2.32406e+06 1.72798e+06 -330427 -1.11502e+06
230 3 O 5.44674 39.3094 0.196716 -1.2 -6.88128 -4.79246e+06 -1.03535e+07 -6.2118e+06 -153694 -5.74893e+06 1.63549e+06
231 1 Mg 7.04922 37.992 2.9896 1.2 -8.28503 5.17198e+06 -2.0628e+06 -240023 1.32795e+06 -1.48912e+06 2.10718e+06
232 3 O 5.42658 39.3094 2.79288 -1.2 -8.50405 -2.71675e+06 -3.40514e+06 -2.43518e+06 1.13477e+06 -251279 -1.33856e+06
233 1 Mg -0.333062 38.0333 4.4844 1.2 -9.14369 -267814 2.1538e+06 3.55525e+06 -399840 -101083 258275
234 2 Si -2.12255 40.7174 4.4844 2.4 -33.6433 1.25934e+07 8.34552e+06 9.13849e+06 224600 28990.6 249932
235 3 O -2.19212 39.1042 4.4844 -1.2 -9.03989 -4.62147e+06 179627 -4.06971e+06 352057 -61064.1 -142709
236 3 O 1.50676 41.6915 4.4844 -1.2 -8.84166 -3.957e+06 -2.48218e+06 -3.50927e+06 2.3559e+06 -273969 -33465.5
237 3 O -1.3884 41.4236 3.18632 -1.2 -8.63286 -3.21801e+06 -3.26782e+06 -1.6251e+06 1.13094e+06 69744.4 -1.59618e+06
238 3 O -1.40713 41.4236 5.78248 -1.2 -8.5252 -3.38049e+06 -3.46763e+06 -1.87451e+06 1.12796e+06 -15758.6 1.17093e+06
239 1 Mg 2.01892 40.3665 2.9896 1.2 -8.31932 5.07341e+06 -1.88211e+06 -285193 -1.11956e+06 -1.58959e+06 -1.37765e+06
240 1 Mg 4.83434 40.3252 4.4844 1.2 -9.07896 -12620.5 2.17557e+06 3.31135e+06 1.21273e+06 -274536 92425
241 2 Si 3.02698 42.39 4.4844 2.4 -33.6118 1.21581e+07 8.67618e+06 9.14867e+06 759964 -441586 -23638
242 3 O 3.05433 44.0033 4.4844 -1.2 -9.13225 -4.3519e+06 -190799 -3.97319e+06 592838 117028 -93868
243 3 O -3.60077 41.416 4.4844 -1.2 -8.97218 -4.34589e+06 -2.30158e+06 -3.03606e+06 -1.35861e+06 -307777 -119663
244 3 O 3.71851 41.6839 3.18632 -1.2 -8.67395 -3.17705e+06 -3.44339e+06 -1.68163e+06 -835572 337915 1.13535e+06
245 1 Mg 2.04077 40.3665 0 1.2 -6.43776 2.54775e+06 1.71829e+06 -3.5201e+06 -1.83943e+06 405768 1.75145e+06
246 3 O 3.70011 41.6839 5.78248 -1.2 -8.52574 -3.29602e+06 -3.56438e+06 -2.2308e+06 -912190 403706 -1.03976e+06
247 1 Mg -0.796865 40.4078 1.4948 1.2 -9.08042 -579672 2.31189e+06 4.64393e+06 1.75461e+06 81841.8 219397
248 2 Si 1.01387 38.3429 1.4948 2.4 -34.2689 1.18107e+07 7.87408e+06 1.13877e+07 1.52264e+06 1.49112e+06 2.46768e+06
249 3 O 0.989947 36.7297 1.4948 -1.2 -7.76869 -7.00996e+06 149123 -1.07967e+07 1.03869e+06 -6.65083e+06 1.65778e+06
250 3 O 7.63988 39.317 1.4948 -1.2 -9.29112 -4.73341e+06 -502616 -2.23366e+06 -941111 -279162 887736
251 3 O 0.340253 39.0491 0.196716 -1.2 -6.89506 -4.90751e+06 -1.12633e+07 -6.11954e+06 392286 -5.87989e+06 -1.75043e+06
252 3 O 0.319795 39.0491 2.79288 -1.2 -8.53286 -2.67633e+06 -3.55285e+06 -2.49358e+06 -857545 -241432 700522
253 1 Mg 7.20667 42.741 0 1.2 -6.46588 2.11965e+06 1.76602e+06 -3.52214e+06 1.99678e+06 946953 -1.94697e+06
254 1 Mg 4.50613 47.4487 1.4948 1.2 -9.01275 -1.02111e+06 2.66381e+06 4.04145e+06 -851013 385778 80904.3
255 2 Si 6.29731 44.7645 1.4948 2.4 -33.8429 1.22849e+07 7.43941e+06 1.07075e+07 -237731 925501 -1.21692e+06
256 3 O 6.36567 46.3778 1.4948 -1.2 -8.87624 -5.56693e+06 -89416.1 -5.06549e+06 179790 -2.70269e+06 -1.40653e+06
257 3 O 2.669 43.7905 1.4948 -1.2 -9.25023 -4.37171e+06 -965897 -2.43059e+06 1.72631e+06 -161371 -1.03152e+06
258 3 O 5.58048 44.0584 0.196716 -1.2 -7.6564 -4.63521e+06 -7.89512e+06 -3.62138e+06 325667 -3.7082e+06 2.23571e+06
259 1 Mg 7.1879 42.741 2.9896 1.2 -8.21423 5.0877e+06 -1.86471e+06 -453901 1.29301e+06 -1.52283e+06 2.02086e+06
260 3 O 5.56564 44.0584 2.79288 -1.2 -8.60496 -2.75507e+06 -3.55806e+06 -2.10476e+06 1.14004e+06 -266049 -1.28869e+06
261 1 Mg -0.19105 42.7823 4.4844 1.2 -9.07515 -531590 2.36033e+06 3.49782e+06 -441639 -27598 95468.6
262 2 Si -1.97909 45.4664 4.4844 2.4 -33.4504 1.22587e+07 8.61307e+06 8.90583e+06 140723 131226 136356
263 3 O -2.04947 43.8532 4.4844 -1.2 -9.13756 -4.39669e+06 -33922.5 -3.91913e+06 440595 -137268 -65966.4
264 3 O 1.65063 46.4405 4.4844 -1.2 -8.93178 -3.80727e+06 -2.5927e+06 -3.39036e+06 2.28528e+06 -143378 -123970
265 3 O -1.24745 46.1726 3.18632 -1.2 -8.68502 -3.04292e+06 -3.43003e+06 -1.65326e+06 1.12839e+06 17504.8 -1.50655e+06
266 3 O -1.26044 46.1726 5.78248 -1.2 -8.64473 -3.18761e+06 -3.45845e+06 -1.95719e+06 1.06229e+06 -219466 1.3409e+06
267 1 Mg 2.15896 45.1155 2.9896 1.2 -8.24198 4.92303e+06 -1.64498e+06 -480109 -1.07109e+06 -1.7295e+06 -1.42041e+06
268 1 Mg 4.97763 45.0742 4.4844 1.2 -8.96277 -157434 2.35966e+06 3.08823e+06 1.21513e+06 -165248 179767
269 2 Si 3.1711 47.139 4.4844 2.4 -33.4979 1.19797e+07 8.60842e+06 9.21884e+06 762923 -386360 197586
270 3 O 3.19894 48.7523 4.4844 -1.2 -9.13824 -4.31954e+06 -23978.9 -4.15703e+06 601108 146634 -9717.96