ITEM: TIMESTEP
43000
ITEM: NUMBER OF ATOMS
10500
ITEM: BOX BOUNDS xy xz yz pp pp pp
0.0000000000000000e+00 1.5297749999999999e+01 5.0992499999999996e+00
0.0000000000000000e+00 1.1872499999999999e+02 0.0000000000000000e+00
0.0000000000000000e+00 8.9688000000000002e+01 0.0000000000000000e+00
ITEM: ATOMS id type element xu yu zu q c_pe c_s[1] c_s[2] c_s[3] c_s[4] c_s[5] c_s[6]
1 1 Mg 6.2404 -6.37941e-06 0 1.2 -4.55569 8.1099e+06 -1.20181e+06 -6.87078e+06 -12775.1 2.58832e+06 -67829.5
2 1 Mg 3.46349 4.70768 1.4948 1.2 -8.66177 -179.788 3.29261e+06 3.68136e+06 -925772 -603427 241495
3 2 Si 5.2885 2.02354 1.4948 2.4 -35.5674 1.05199e+07 1.22224e+07 1.00355e+07 8.87837e+06 712919 -2.82304e+06
4 3 O 5.33628 3.63678 1.4948 -1.2 -4.54881 -1.09855e+06 -2.06094e+06 -3.30505e+07 -336271 3.80223e+06 -4.02153e+06
5 3 O 1.67294 1.04952 1.4948 -1.2 -0.904292 -2.05831e+07 -8.00151e+07 -1.44724e+06 -2.41227e+07 -132779 -216603
6 3 O 4.59532 1.31737 0.196716 -1.2 -2.89535 -2.20857e+06 -7.28757e+06 -2.98432e+07 -6.03781e+06 6.2398e+06 -2.75541e+06
7 1 Mg 6.18956 -6.37941e-06 2.9896 1.2 -5.10017 1.80169e+06 -2.75811e+07 -3.58452e+06 -8.82784e+06 2.46988e+06 4.18692e+06
8 3 O 4.55118 1.31737 2.79288 -1.2 -7.33408 -148992 -5.35068e+06 -2.48938e+06 -2.97876e+06 -3.44278e+06 -1.23847e+06
9 1 Mg -1.20682 0.0413099 4.4844 1.2 8.71641 -3.05244e+07 -9.2724e+07 -816551 -2.8552e+07 -1.31117e+06 276513
10 2 Si -3.0337 2.72544 4.4844 2.4 -33.6036 1.48564e+07 8.43335e+06 6.92847e+06 1.60178e+06 191568 -348431
11 3 O -3.08099 1.11221 4.4844 -1.2 -9.39497 -6.41555e+06 -620597 -1.59888e+06 -1.23439e+06 -241539 156395
12 3 O 0.582463 3.69946 4.4844 -1.2 -8.74658 -3.64725e+06 -6.1501e+06 -2.14939e+06 -560890 -58487.9 -293329
13 3 O -2.29524 3.43162 3.18632 -1.2 -8.84561 -4.48456e+06 -3.17405e+06 -653.114 1.09991e+06 -817649 -1.10914e+06
14 3 O -2.34216 3.43162 5.78248 -1.2 -8.54543 -4.14718e+06 -3.99126e+06 -1.11788e+06 800455 596533 1.18592e+06
15 1 Mg 1.12778 2.37449 2.9896 1.2 -7.78263 5.50504e+06 -1.00087e+06 -1.35443e+06 -3.28864e+06 -4.22679e+06 -2.10083e+06
16 1 Mg 3.92855 2.33318 4.4844 1.2 -8.65808 -3.77426e+06 5.63568e+06 4.03671e+06 1.39999e+06 372336 582832
17 2 Si 2.09341 4.39804 4.4844 2.4 -32.8213 1.29651e+07 8.10456e+06 7.44231e+06 215094 -347770 944289
18 3 O 2.09991 6.01128 4.4844 -1.2 -9.23139 -4.55191e+06 -577988 -3.236e+06 501989 -130252 -319616
19 3 O -4.52137 3.42402 4.4844 -1.2 -8.94226 -3.22902e+06 -3.61424e+06 -2.92093e+06 -2.42208e+06 -967016 -118459
20 3 O 2.80834 3.69187 3.18632 -1.2 -9.13541 -2.50331e+06 -3.46137e+06 280159 451491 -499806 -665440
21 1 Mg 1.17857 2.37449 0 1.2 -5.27767 -377465 -1.42485e+07 -7.0008e+06 6.51569e+06 1.23685e+06 4.66256e+06
22 3 O 2.76143 3.69187 5.78248 -1.2 -9.15539 -3.31152e+06 -3.14851e+06 -294229 516685 72217.4 -185864
23 1 Mg -1.67381 2.41581 1.4948 1.2 -7.7493 1.78763e+06 393881 3.50083e+06 1.34697e+06 -606531 1.14364e+06
24 2 Si 0.16286 0.350945 1.4948 2.4 -24.8454 -7.77363e+06 1.37192e+07 1.01594e+07 1.56249e+06 2.82e+06 1.46627e+06
25 3 O 0.15972 -1.26229 1.4948 -1.2 -4.63047 -1.08621e+07 -8.65912e+06 -2.83442e+07 -5.5894e+06 -8.53357e+06 -2.81634e+06
26 3 O 6.77654 1.32496 1.4948 -1.2 -10.1999 -5.96625e+06 1.14372e+06 -778566 -644786 -638561 941837
27 3 O -0.508028 1.05712 0.196716 -1.2 -9.3852 -79403.3 -5.30338e+06 -111519 -541316 200227 -4.63757e+06
28 3 O -0.552171 1.05712 2.79288 -1.2 -6.62831 -5.57663e+06 -5.24415e+06 -2.40388e+07 1.44106e+06 -6.74357e+06 -5.65904e+06
29 1 Mg 6.31713 4.74899 0 1.2 -5.10414 629990 -1.23407e+07 -6.66381e+06 -7.31866e+06 1.39923e+06 -3.48592e+06
30 1 Mg 3.54847 9.45668 1.4948 1.2 -8.5093 564157 2.33628e+06 3.80768e+06 -954519 -905274 -383831
31 2 Si 5.36879 6.77254 1.4948 2.4 -34.6979 7.91353e+06 1.32225e+07 1.04043e+07 1.65172e+06 176044 -1.67776e+06
32 3 O 5.41937 8.38578 1.4948 -1.2 -4.5635 -614166 -1.53071e+06 -3.46456e+07 774459 1.09608e+06 -4.2672e+06
33 3 O 1.75158 5.79852 1.4948 -1.2 -9.30868 -4.33798e+06 -2.93927e+06 -820967 1.95497e+06 -1.5953e+06 -1.50787e+06
34 3 O 4.67421 6.06637 0.196716 -1.2 -3.60651 -141835 -1.06975e+07 -3.08623e+07 -2.012e+06 1.29951e+06 -4.56305e+06
35 1 Mg 6.26654 4.74899 2.9896 1.2 -8.2555 4.43767e+06 -1.02798e+06 -612628 1.79193e+06 -809509 2.11934e+06
36 3 O 4.63043 6.06637 2.79288 -1.2 -8.61771 -1.99222e+06 -4.56519e+06 -1.59215e+06 934769 -157595 -1.65239e+06
37 1 Mg -1.12976 4.79031 4.4844 1.2 -9.07101 -244593 3.43682e+06 2.21081e+06 -698383 -488973 97303
38 2 Si -2.9517 7.47444 4.4844 2.4 -33.5491 1.22132e+07 1.003e+07 7.66834e+06 -77202.8 -114547 217300
39 3 O -3.00198 5.86121 4.4844 -1.2 -9.13078 -4.38947e+06 -812426 -3.17851e+06 94279.2 -236522 -160153
40 3 O 0.666315 8.44846 4.4844 -1.2 -8.9605 -3.97714e+06 -3.10153e+06 -2.63846e+06 2.0791e+06 -439083 10523.5
41 3 O -2.21213 8.18062 3.18632 -1.2 -8.82118 -3.33529e+06 -3.9279e+06 -142620 1.1259e+06 -253709 -1.48299e+06
42 3 O -2.25864 8.18062 5.78248 -1.2 -8.53811 -3.62893e+06 -4.24768e+06 -1.11877e+06 1.17448e+06 85468.7 1.31953e+06
43 1 Mg 1.20893 7.12349 2.9896 1.2 -8.23849 4.57066e+06 -1.0718e+06 -749859 -1.26142e+06 -1.35424e+06 -1.54607e+06
44 1 Mg 4.00982 7.08218 4.4844 1.2 -8.97964 -319559 3.09975e+06 2.52688e+06 1.03378e+06 -153080 344449
45 2 Si 2.17861 9.14704 4.4844 2.4 -33.458 1.24296e+07 9.77714e+06 7.5274e+06 648255 104327 70857.5
46 3 O 2.18828 10.7603 4.4844 -1.2 -9.19068 -4.44915e+06 -683196 -3.27404e+06 463478 -274104 265505
47 3 O -4.43805 8.17302 4.4844 -1.2 -8.94123 -3.79987e+06 -3.14769e+06 -2.75511e+06 -1.48695e+06 -516729 -178553
48 3 O 2.89193 8.44087 3.18632 -1.2 -8.85069 -3.25296e+06 -4.08288e+06 -176031 -942093 -281557 1.21669e+06
49 1 Mg 1.25915 7.12349 0 1.2 -5.46683 1.24312e+06 -6.99849e+06 -6.93211e+06 5.91453e+06 1.38578e+06 2.72382e+06
50 3 O 2.84547 8.44087 5.78248 -1.2 -8.60487 -3.65664e+06 -4.20644e+06 -1.20706e+06 -951122 -327024 -1.44247e+06
51 1 Mg -1.59284 7.16481 1.4948 1.2 -8.45042 1.11912e+06 1.93467e+06 3.75901e+06 1.44761e+06 -934549 441928
52 2 Si 0.240329 5.09994 1.4948 2.4 -34.4464 8.90842e+06 1.20858e+07 1.01439e+07 -1.95652e+06 -1.09327e+06 2.27153e+06
53 3 O 0.234538 3.48671 1.4948 -1.2 -5.04693 -2.05229e+06 -191306 -3.32043e+07 403095 5.1978e+06 3.81558e+06
54 3 O 6.85564 6.07396 1.4948 -1.2 -9.37951 -4.69954e+06 -2.39839e+06 -847989 -1.32857e+06 -1.82847e+06 1.01669e+06
55 3 O -0.429565 5.80612 0.196716 -1.2 -3.85103 -924863 -9.33327e+06 -3.10081e+07 1.85422e+06 1.19346e+06 4.41056e+06
56 3 O -0.473377 5.80612 2.79288 -1.2 -8.70472 -2.50884e+06 -4.12739e+06 -1.47374e+06 -780197 354688 1.14256e+06
57 1 Mg 6.40169 9.49799 0 1.2 -5.40571 1.7276e+06 -5.77792e+06 -7.22407e+06 -5.50121e+06 994661 -2.50445e+06
58 1 Mg 3.64209 14.2057 1.4948 1.2 -8.48788 321675 2.66416e+06 3.64708e+06 -1.0426e+06 -969650 -678400
59 2 Si 5.45748 11.5215 1.4948 2.4 -34.5575 7.9632e+06 1.31155e+07 1.02128e+07 884371 347171 -2.71369e+06
60 3 O 5.51101 13.1348 1.4948 -1.2 -4.68389 -663832 -1.68343e+06 -3.40708e+07 471913 -2.53731e+06 -3.96317e+06
61 3 O 1.83851 10.5475 1.4948 -1.2 -9.42033 -4.50521e+06 -2.51579e+06 -626485 1.53471e+06 -1.59086e+06 -910861
62 3 O 4.7611 10.8154 0.196716 -1.2 -3.51111 412389 -1.21728e+07 -3.13162e+07 -2.46422e+06 -1.75405e+06 -4.11304e+06
63 1 Mg 6.35203 9.49799 2.9896 1.2 -8.2275 4.44407e+06 -1.06494e+06 -629106 1.29916e+06 -1.2026e+06 1.90552e+06
64 3 O 4.71833 10.8154 2.79288 -1.2 -8.6615 -2.1292e+06 -4.38199e+06 -1.57665e+06 1.06096e+06 -405.782 -1.05341e+06
65 1 Mg -1.0438 9.53931 4.4844 1.2 -8.99252 -282705 2.99258e+06 2.52926e+06 -565859 -378639 -153051
66 2 Si -2.8604 12.2234 4.4844 2.4 -33.3214 1.19667e+07 1.03405e+07 7.24153e+06 41955 -207415 -920675
67 3 O -2.91391 10.6102 4.4844 -1.2 -9.15142 -4.36169e+06 -707123 -3.28558e+06 209500 -69371.9 257522
68 3 O 0.7596 13.1975 4.4844 -1.2 -9.10774 -3.6468e+06 -3.49918e+06 -2.34201e+06 2.14138e+06 -505462 459443
69 3 O -2.12001 12.9296 3.18632 -1.2 -8.92121 -3.13255e+06 -4.24938e+06 130194 1.13398e+06 -194538 -1.08647e+06
70 3 O -2.16532 12.9296 5.78248 -1.2 -8.75481 -3.29142e+06 -4.51048e+06 -909159 1.02478e+06 -33694.3 1.87153e+06
71 1 Mg 1.29891 11.8725 2.9896 1.2 -8.16867 4.5019e+06 -871315 -996664 -1.1819e+06 -1.20394e+06 -2.03083e+06
72 1 Mg 4.10033 11.8312 4.4844 1.2 -8.92501 -375297 3.17562e+06 2.42171e+06 1.07499e+06 -229038 -394226
73 2 Si 2.27333 13.896 4.4844 2.4 -33.0889 1.16771e+07 1.07701e+07 6.68656e+06 597845 -62736.3 -796948
74 3 O 2.28634 15.5093 4.4844 -1.2 -9.38923 -4.0437e+06 -1.19045e+06 -2.86791e+06 474896 -163141 334570
75 3 O -4.34533 12.922 4.4844 -1.2 -9.10331 -3.66781e+06 -3.4331e+06 -2.35007e+06 -1.47005e+06 -466880 452295
76 3 O 2.98455 13.1899 3.18632 -1.2 -8.95922 -3.09146e+06 -4.3842e+06 111040 -932838 -176028 1.72093e+06
77 1 Mg 1.34779 11.8725 0 1.2 -5.60055 2.97339e+06 -2.07921e+06 -7.46899e+06 3.56619e+06 803783 1.32917e+06
78 3 O 2.93934 13.1899 5.78248 -1.2 -8.83689 -3.15052e+06 -4.70102e+06 -811536 -809779 -151602 -696966
79 1 Mg -1.50344 11.9138 1.4948 1.2 -8.47126 726391 2.44639e+06 3.65717e+06 1.57019e+06 -955468 105941
80 2 Si 0.326006 9.84894 1.4948 2.4 -34.5664 8.22973e+06 1.29668e+07 1.00815e+07 -591345 104411 2.05746e+06
81 3 O 0.317364 8.23571 1.4948 -1.2 -4.57341 -790973 -1.39139e+06 -3.4722e+07 -132206 1.18584e+06 4.1459e+06
82 3 O 6.94307 10.823 1.4948 -1.2 -9.45339 -4.58188e+06 -2.36007e+06 -611384 -981807 -1.51864e+06 1.26723e+06
83 3 O -0.343122 10.5551 0.196716 -1.2 -3.61214 76590.3 -1.16259e+07 -3.13306e+07 2.45803e+06 -2.05626e+06 4.65404e+06
84 3 O -0.385966 10.5551 2.79288 -1.2 -8.70447 -2.25549e+06 -4.41985e+06 -1.49044e+06 -868636 115579 1.33443e+06
85 1 Mg 6.49448 14.247 0 1.2 -5.55698 3.36128e+06 -1.18241e+06 -7.63856e+06 -2.96681e+06 252660 -1.87539e+06
86 1 Mg 3.74457 18.9547 1.4948 1.2 -8.58484 135754 2.7672e+06 3.80808e+06 -1.11194e+06 -985222 -535289
87 2 Si 5.55495 16.2705 1.4948 2.4 -34.4108 8.06764e+06 1.32737e+07 9.73379e+06 518151 781256 -2.96545e+06
88 3 O 5.6115 17.8838 1.4948 -1.2 -5.0202 -1.66564e+06 -1.68105e+06 -3.13018e+07 81614.9 -6.04911e+06 -3.84504e+06
89 3 O 1.93416 15.2965 1.4948 -1.2 -9.52813 -4.43822e+06 -2.45608e+06 -331312 1.53658e+06 -1.37616e+06 -676069
90 3 O 4.85636 15.5644 0.196716 -1.2 -3.57202 482907 -1.40539e+07 -2.9575e+07 -3.02932e+06 -5.11651e+06 -3.38979e+06
91 1 Mg 6.44662 14.247 2.9896 1.2 -8.08098 4.36382e+06 -707300 -1.14233e+06 1.29261e+06 -1.2014e+06 1.5791e+06
92 3 O 4.81537 15.5644 2.79288 -1.2 -8.76977 -1.96459e+06 -4.75701e+06 -1.22751e+06 1.08001e+06 -14593.1 -915893
93 1 Mg -0.948271 14.2883 4.4844 1.2 -8.79721 -689693 3.45437e+06 2.15316e+06 -512330 -278340 -454966
94 2 Si -2.75928 16.9724 4.4844 2.4 -32.9675 1.1555e+07 1.09197e+07 6.50291e+06 -11639.6 -132675 -492008
95 3 O -2.81617 15.3592 4.4844 -1.2 -9.38544 -4.06621e+06 -1.19886e+06 -2.71935e+06 266973 -135979 357606
96 3 O 0.862762 17.9465 4.4844 -1.2 -9.18852 -3.44508e+06 -3.62834e+06 -2.28941e+06 2.1637e+06 -537014 210833
97 3 O -2.0185 17.6786 3.18632 -1.2 -8.98266 -3.02743e+06 -4.404e+06 255628 1.16332e+06 -148141 -1.26056e+06
98 3 O -2.06164 17.6786 5.78248 -1.2 -8.967 -3.0083e+06 -4.66727e+06 -584836 1.13062e+06 -43586.2 1.49269e+06
99 1 Mg 1.39817 16.6215 2.9896 1.2 -8.06697 4.38829e+06 -606203 -1.31329e+06 -1.16239e+06 -1.21524e+06 -1.96677e+06
100 1 Mg 4.20062 16.5802 4.4844 1.2 -8.73695 -629442 3.52359e+06 2.02723e+06 1.12261e+06 -314706 -212770
101 2 Si 2.37796 18.645 4.4844 2.4 -33.0265 1.1436e+07 1.07186e+07 6.88086e+06 714862 -139765 -225867
102 3 O 2.39434 20.2583 4.4844 -1.2 -9.31851 -4.12371e+06 -902158 -3.18474e+06 464009 -141101 105974
103 3 O -4.24274 17.671 4.4844 -1.2 -9.23833 -3.57122e+06 -3.57647e+06 -2.09436e+06 -1.42954e+06 -454788 155336
104 3 O 3.08659 17.9389 3.18632 -1.2 -9.00373 -2.97926e+06 -4.49803e+06 144920 -941165 -52548.8 1.53351e+06
105 1 Mg 1.44478 16.6215 0 1.2 -5.69567 4.59213e+06 1.01859e+06 -7.59051e+06 1.40404e+06 -57124.2 564357
106 3 O 3.0436 17.9389 5.78248 -1.2 -8.95318 -2.82733e+06 -4.78606e+06 -883533 -866434 -8453.57 -1.08609e+06
107 1 Mg -1.40524 16.6628 1.4948 1.2 -8.49538 468049 2.77686e+06 3.57607e+06 1.69229e+06 -960656 38030.7
108 2 Si 0.420358 14.5979 1.4948 2.4 -34.4176 8.04356e+06 1.33497e+07 9.63046e+06 -125088 573546 1.74334e+06
109 3 O 0.408732 12.9847 1.4948 -1.2 -4.67858 -746721 -1.64783e+06 -3.41663e+07 220866 -2.56348e+06 4.60708e+06
110 3 O 7.03923 15.572 1.4948 -1.2 -9.56419 -4.54403e+06 -2.32224e+06 -268948 -946425 -1.30513e+06 1.38036e+06
111 3 O -0.248332 15.3041 0.196716 -1.2 -3.68022 121919 -1.35576e+07 -2.95904e+07 3.25087e+06 -5.42473e+06 4.34543e+06
112 3 O -0.289436 15.3041 2.79288 -1.2 -8.80466 -2.00136e+06 -4.82893e+06 -1.2193e+06 -866051 30918.3 1.45006e+06
113 1 Mg 6.59566 18.996 0 1.2 -5.72143 4.82018e+06 1.41097e+06 -7.38419e+06 -927552 -657857 -1.23884e+06
114 1 Mg 3.85574 23.7037 1.4948 1.2 -8.80026 61560.3 2.52419e+06 4.33061e+06 -1.17937e+06 -923897 -377074
115 2 Si 5.66125 21.0195 1.4948 2.4 -34.5062 8.76405e+06 1.22948e+07 1.02309e+07 185727 1.22642e+06 -2.80277e+06
116 3 O 5.72074 22.6328 1.4948 -1.2 -5.49845 -3.51525e+06 -1.16151e+06 -2.68643e+07 -219204 -8.51685e+06 -3.48239e+06
117 3 O 2.03867 20.0455 1.4948 -1.2 -9.4989 -4.53642e+06 -2.02237e+06 -510751 1.56221e+06 -1.14035e+06 -724913
118 3 O 4.96004 20.3134 0.196716 -1.2 -3.81379 -347749 -1.53024e+07 -2.59223e+07 -3.18589e+06 -7.93832e+06 -2.41948e+06
119 1 Mg 6.55057 18.996 2.9896 1.2 -8.06112 4.4636e+06 -780246 -1.20042e+06 1.29789e+06 -1.20929e+06 1.79725e+06
120 3 O 4.92172 20.3134 2.79288 -1.2 -8.70374 -2.04582e+06 -4.54758e+06 -1.49696e+06 1.07024e+06 -74494.9 -1.09347e+06
121 1 Mg -0.84282 19.0373 4.4844 1.2 -8.77795 -737872 3.36787e+06 2.24804e+06 -542649 -232496 -147552
122 2 Si -2.64823 21.7214 4.4844 2.4 -33.2509 1.18955e+07 1.00355e+07 7.50858e+06 -70832.7 -227260 -28794.1
123 3 O -2.70847 20.1082 4.4844 -1.2 -9.33492 -4.13483e+06 -948719 -2.97084e+06 345597 -116432 34123
124 3 O 0.97581 22.6955 4.4844 -1.2 -9.05596 -3.77762e+06 -3.18775e+06 -2.60793e+06 2.2223e+06 -509593 176967
125 3 O -1.9076 22.4276 3.18632 -1.2 -8.85023 -3.18859e+06 -3.98165e+06 -253017 1.18635e+06 -27437.1 -1.38347e+06
126 3 O -1.9475 22.4276 5.78248 -1.2 -8.70499 -3.28253e+06 -4.13545e+06 -1.42111e+06 1.26041e+06 158493 1.39274e+06
127 1 Mg 1.50678 21.3705 2.9896 1.2 -8.14551 4.64003e+06 -969036 -1.07628e+06 -1.15577e+06 -1.23954e+06 -1.8039e+06
128 1 Mg 4.31086 21.3292 4.4844 1.2 -8.8596 -456553 3.12325e+06 2.45345e+06 1.22882e+06 -282315 13270.9
129 2 Si 2.49243 23.394 4.4844 2.4 -33.297 1.20491e+07 9.8604e+06 7.56446e+06 759769 -534.712 -225992
130 3 O 2.51204 25.0073 4.4844 -1.2 -9.22018 -4.38652e+06 -578296 -3.4071e+06 532464 -173170 54672.4
131 3 O -4.13026 22.42 4.4844 -1.2 -9.07674 -3.76826e+06 -3.08768e+06 -2.64443e+06 -1.4022e+06 -461340 -36035.8
132 3 O 3.19799 22.6879 3.18632 -1.2 -8.87422 -3.16261e+06 -4.08778e+06 -344404 -943321 -427.874 1.43626e+06
133 1 Mg 1.5501 21.3705 0 1.2 -5.87298 5.66946e+06 2.26721e+06 -6.85428e+06 -56919.9 -1.00755e+06 137237
134 3 O 3.1583 22.6879 5.78248 -1.2 -8.73194 -3.18543e+06 -4.29872e+06 -1.50048e+06 -1.01905e+06 -177069 -1.0471e+06
135 1 Mg -1.29822 21.4118 1.4948 1.2 -8.67103 395144 2.62619e+06 3.97667e+06 1.79341e+06 -936447 61267.2
136 2 Si 0.523568 19.3469 1.4948 2.4 -34.4343 8.48051e+06 1.28327e+07 9.76565e+06 311117 1.00157e+06 2.05764e+06
137 3 O 0.508934 17.7337 1.4948 -1.2 -5.01638 -1.72497e+06 -1.65995e+06 -3.14044e+07 664359 -6.0894e+06 4.36773e+06
138 3 O 7.14425 20.321 1.4948 -1.2 -9.53002 -4.66545e+06 -1.86634e+06 -467189 -928434 -1.0804e+06 1.25382e+06
139 3 O -0.145107 20.0531 0.196716 -1.2 -3.93719 -777509 -1.49743e+07 -2.58268e+07 3.6813e+06 -8.20234e+06 3.38393e+06
140 3 O -0.183601 20.0531 2.79288 -1.2 -8.75287 -2.07358e+06 -4.66575e+06 -1.44172e+06 -833167 -27146.4 1.23496e+06
141 1 Mg 6.70502 23.745 0 1.2 -5.98186 5.56431e+06 2.24387e+06 -6.16025e+06 405388 -1.45274e+06 -801714
142 1 Mg 3.97493 28.4527 1.4948 1.2 -8.98592 -116963 2.45195e+06 4.6462e+06 -1.22783e+06 -777122 -79462.5
143 2 Si 5.77602 25.7685 1.4948 2.4 -34.6297 9.75822e+06 1.09969e+07 1.08199e+07 -121442 1.56103e+06 -2.44709e+06
144 3 O 5.83821 27.3818 1.4948 -1.2 -6.18543 -5.42008e+06 -737541 -2.10475e+07 -334281 -9.30216e+06 -3.0759e+06
145 3 O 2.15175 24.7945 1.4948 -1.2 -9.38515 -4.73418e+06 -1.42725e+06 -956281 1.61107e+06 -909827 -805163
146 3 O 5.07184 25.0624 0.196716 -1.2 -4.28298 -1.8324e+06 -1.55478e+07 -2.08196e+07 -2.78424e+06 -9.42183e+06 -1.3202e+06
147 1 Mg 6.66374 23.745 2.9896 1.2 -8.1796 4.71017e+06 -1.23677e+06 -797756 1.30798e+06 -1.25041e+06 1.85309e+06
148 3 O 5.03707 25.0624 2.79288 -1.2 -8.57804 -2.22386e+06 -4.18669e+06 -1.92139e+06 1.09243e+06 -171381 -1.14698e+06
149 1 Mg -0.727559 23.7863 4.4844 1.2 -8.92104 -501472 2.95318e+06 2.64916e+06 -510191 -315692 -112826
150 2 Si -2.5277 26.4704 4.4844 2.4 -33.3991 1.21163e+07 9.56369e+06 7.99747e+06 56995.2 -294803 104395
151 3 O -2.59107 24.8572 4.4844 -1.2 -9.20013 -4.2865e+06 -579234 -3.39961e+06 347164 -6501.41 58869.1
152 3 O 1.09817 27.4445 4.4844 -1.2 -9.00009 -3.92043e+06 -2.91238e+06 -2.84357e+06 2.22284e+06 -435270 -50851.5
153 3 O -1.78784 27.1766 3.18632 -1.2 -8.74798 -3.2964e+06 -3.71475e+06 -633626 1.16707e+06 57450.5 -1.53891e+06
154 3 O -1.82343 27.1766 5.78248 -1.2 -8.71873 -3.28961e+06 -3.97533e+06 -1.36242e+06 1.12975e+06 73616.4 1.16511e+06
155 1 Mg 1.62435 26.1195 2.9896 1.2 -8.23168 4.91436e+06 -1.29365e+06 -884863 -1.14881e+06 -1.29939e+06 -1.63435e+06
156 1 Mg 4.43064 26.0782 4.4844 1.2 -8.94496 -376546 2.88255e+06 2.75161e+06 1.19776e+06 -169274 58910.1
157 2 Si 2.61607 28.143 4.4844 2.4 -33.3929 1.22531e+07 9.36176e+06 8.00476e+06 842149 18603.5 368827
158 3 O 2.63853 29.7563 4.4844 -1.2 -9.14249 -4.45186e+06 -222465 -3.82849e+06 516917 -230230 -283289
159 3 O -4.00841 27.169 4.4844 -1.2 -9.02503 -3.85341e+06 -2.90096e+06 -2.82813e+06 -1.34604e+06 -406646 -152292
160 3 O 3.3182 27.4369 3.18632 -1.2 -8.77833 -3.26383e+06 -3.85165e+06 -711976 -909124 67937.4 1.21927e+06
161 1 Mg 1.66335 26.1195 0 1.2 -6.09959 5.77058e+06 2.53123e+06 -5.63711e+06 -894197 -1.62504e+06 156756
162 3 O 3.28288 27.4369 5.78248 -1.2 -8.77412 -3.21336e+06 -4.15907e+06 -1.29089e+06 -958783 -235022 -1.3912e+06
163 1 Mg -1.18278 26.1608 1.4948 1.2 -8.87825 292405 2.46087e+06 4.38454e+06 1.88655e+06 -835230 136034
164 2 Si 0.635424 24.0959 1.4948 2.4 -34.5875 9.48822e+06 1.15064e+07 1.03971e+07 745457 1.34839e+06 2.26286e+06
165 3 O 0.617906 22.4827 1.4948 -1.2 -5.50498 -3.62646e+06 -1.15485e+06 -2.68839e+07 1.01431e+06 -8.53253e+06 3.84685e+06
166 3 O 7.25781 25.07 1.4948 -1.2 -9.41375 -4.83248e+06 -1.27622e+06 -956685 -930966 -849646 1.12912e+06
167 3 O -0.0337363 24.8021 0.196716 -1.2 -4.40133 -2.29482e+06 -1.55032e+07 -2.06239e+07 3.50346e+06 -9.64384e+06 1.98294e+06
168 3 O -0.0687235 24.8021 2.79288 -1.2 -8.63446 -2.30594e+06 -4.30959e+06 -1.80661e+06 -832085 -57843.6 1.10855e+06
169 1 Mg 6.82195 28.494 0 1.2 -6.21954 5.30311e+06 2.48601e+06 -4.88081e+06 1.15704e+06 -1.7901e+06 -481346
170 1 Mg 4.10106 33.2017 1.4948 1.2 -9.1272 -354348 2.41658e+06 4.80483e+06 -1.213e+06 -535010 77407.2
171 2 Si 5.89839 30.5175 1.4948 2.4 -34.6263 1.07905e+07 9.78944e+06 1.10728e+07 -335128 1.6744e+06 -1.9299e+06
172 3 O 5.96289 32.1308 1.4948 -1.2 -6.96151 -6.70367e+06 -363177 -1.52396e+07 -294864 -8.44695e+06 -2.57702e+06
173 3 O 2.27266 29.5435 1.4948 -1.2 -9.28986 -4.81313e+06 -1.03965e+06 -1.36987e+06 1.65641e+06 -714229 -983937
174 3 O 5.19102 29.8114 0.196716 -1.2 -5.02554 -3.36342e+06 -1.48714e+07 -1.49732e+07 -1.93169e+06 -9.28819e+06 -192790
175 1 Mg 6.78546 28.494 2.9896 1.2 -8.24603 4.9133e+06 -1.51577e+06 -609998 1.29867e+06 -1.32381e+06 2.05574e+06
176 3 O 5.16061 29.8114 2.79288 -1.2 -8.49505 -2.38749e+06 -3.88278e+06 -2.23307e+06 1.12209e+06 -218147 -1.36139e+06
177 1 Mg -0.603205 28.5353 4.4844 1.2 -8.98133 -448062 2.6284e+06 3.01105e+06 -478112 -288336 133364
178 2 Si -2.39877 31.2194 4.4844 2.4 -33.5441 1.24531e+07 8.67199e+06 8.79043e+06 74347.1 -455800 332539
179 3 O -2.46483 29.6062 4.4844 -1.2 -9.14208 -4.41831e+06 -201889 -3.72298e+06 426539 31598.4 -203905
180 3 O 1.22864 32.1935 4.4844 -1.2 -8.92698 -4.06397e+06 -2.51073e+06 -3.22574e+06 2.29155e+06 -531010 -138571
181 3 O -1.66032 31.9256 3.18632 -1.2 -8.66445 -3.39773e+06 -3.42894e+06 -1.03144e+06 1.14206e+06 146271 -1.63589e+06
182 3 O -1.69072 31.9256 5.78248 -1.2 -8.66109 -3.49392e+06 -3.41206e+06 -1.75168e+06 1.09384e+06 210832 1.21258e+06
183 1 Mg 1.7499 30.8685 2.9896 1.2 -8.30038 5.09529e+06 -1.62106e+06 -621724 -1.12953e+06 -1.32271e+06 -1.41774e+06
184 1 Mg 4.55894 30.8272 4.4844 1.2 -9.05814 -309665 2.40106e+06 3.34964e+06 1.18359e+06 -185974 278910
185 2 Si 2.7476 32.892 4.4844 2.4 -33.5816 1.22991e+07 8.5922e+06 9.03786e+06 633639 52442.2 138719
186 3 O 2.77235 34.5053 4.4844 -1.2 -9.10427 -4.48899e+06 -125334 -3.95389e+06 654260 -88404.7 -104737
187 3 O -3.87837 31.918 4.4844 -1.2 -8.9372 -4.04228e+06 -2.4284e+06 -3.2548e+06 -1.35127e+06 -265716 -173985
188 3 O 3.44611 32.1859 3.18632 -1.2 -8.6797 -3.30096e+06 -3.53991e+06 -1.23583e+06 -860375 133795 1.13504e+06
189 1 Mg 1.7837 30.8685 0 1.2 -6.31594 4.93246e+06 2.43637e+06 -4.41822e+06 -1.3582e+06 -1.56199e+06 413623
190 3 O 3.41602 32.1859 5.78248 -1.2 -8.53347 -3.19423e+06 -3.43997e+06 -2.60214e+06 -809938 -102019 -1.24543e+06
191 1 Mg -1.05984 30.9098 1.4948 1.2 -9.03944 88523.9 2.3882e+06 4.61752e+06 1.91389e+06 -637875 219981
192 2 Si 0.755243 28.8449 1.4948 2.4 -34.6294 1.04969e+07 1.03338e+07 1.0713e+07 1.14749e+06 1.58587e+06 2.55671e+06
193 3 O 0.735127 27.2317 1.4948 -1.2 -6.19427 -5.56474e+06 -716519 -2.10468e+07 1.17115e+06 -9.30846e+06 3.06074e+06
194 3 O 7.37914 29.819 1.4948 -1.2 -9.32361 -4.92861e+06 -902985 -1.34516e+06 -932536 -613684 943188
195 3 O 0.0850649 29.5511 0.196716 -1.2 -5.11236 -3.72475e+06 -1.52097e+07 -1.47804e+07 2.69675e+06 -9.4311e+06 463194
196 3 O 0.0543974 29.5511 2.79288 -1.2 -8.56028 -2.49873e+06 -4.02006e+06 -2.07357e+06 -848198 -120982 869656
197 1 Mg 6.94543 33.243 0 1.2 -6.43213 4.36374e+06 2.33789e+06 -3.77918e+06 1.60056e+06 -1.41953e+06 -573191
198 1 Mg 4.23267 37.9507 1.4948 1.2 -9.22318 -526517 2.39847e+06 4.73442e+06 -1.12424e+06 -211905 218656
199 2 Si 6.02709 35.2665 1.4948 2.4 -34.5309 1.17585e+07 8.7829e+06 1.10084e+07 -379447 1.61243e+06 -1.50732e+06
200 3 O 6.09339 36.8798 1.4948 -1.2 -7.67801 -7.0888e+06 -123158 -1.04398e+07 -155509 -6.61993e+06 -2.17512e+06
201 3 O 2.40018 34.2925 1.4948 -1.2 -9.20858 -4.81621e+06 -831104 -1.75783e+06 1.71567e+06 -521843 -1.06657e+06
202 3 O 5.31645 34.5604 0.196716 -1.2 -5.89054 -4.51794e+06 -1.3079e+07 -9.78842e+06 -955992 -7.85078e+06 826516
203 1 Mg 6.91449 33.243 2.9896 1.2 -8.29616 5.09162e+06 -1.74814e+06 -467389 1.33995e+06 -1.42419e+06 2.07336e+06
204 3 O 5.291 34.5604 2.79288 -1.2 -8.45389 -2.59433e+06 -3.72532e+06 -2.28634e+06 1.10778e+06 -267683 -1.36729e+06
205 1 Mg -0.471101 33.2843 4.4844 1.2 -9.02476 -350850 2.38985e+06 3.21327e+06 -437598 -181101 171477
206 2 Si -2.26307 35.9684 4.4844 2.4 -33.6513 1.25456e+07 8.62803e+06 8.91836e+06 204676 -162020 654894
207 3 O -2.33122 34.3552 4.4844 -1.2 -9.10495 -4.49528e+06 -115910 -3.79345e+06 332827 2827.99 -179641
208 3 O 1.36549 36.9425 4.4844 -1.2 -8.84767 -4.09868e+06 -2.46637e+06 -3.36523e+06 2.32518e+06 -269014 -308257
209 3 O -1.52658 36.6746 3.18632 -1.2 -8.57388 -3.3903e+06 -3.3254e+06 -1.38075e+06 1.1353e+06 133843 -1.77807e+06
210 3 O -1.55122 36.6746 5.78248 -1.2 -8.54132 -3.44875e+06 -3.40084e+06 -2.00778e+06 1.13648e+06 -54502.3 984041
211 1 Mg 1.882 35.6175 2.9896 1.2 -8.34749 5.19298e+06 -1.7128e+06 -542140 -1.15355e+06 -1.47881e+06 -1.31111e+06
212 1 Mg 4.69415 35.5762 4.4844 1.2 -9.05753 -165737 2.44817e+06 3.15725e+06 1.2479e+06 -139813 245306
213 2 Si 2.88522 37.641 4.4844 2.4 -33.7064 1.27462e+07 8.33411e+06 9.04745e+06 724848 -231780 649274
214 3 O 2.91159 39.2543 4.4844 -1.2 -8.98543 -4.76823e+06 218094 -4.20072e+06 607370 12486.1 -205278
215 3 O -3.74183 36.667 4.4844 -1.2 -8.9022 -4.21831e+06 -2.39587e+06 -3.1685e+06 -1.35867e+06 -329361 -373193
216 3 O 3.58014 36.9349 3.18632 -1.2 -8.61469 -3.40244e+06 -3.46549e+06 -1.41893e+06 -846940 225789 969918
217 1 Mg 1.90997 35.6175 0 1.2 -6.50136 3.75927e+06 2.16228e+06 -3.65256e+06 -1.67978e+06 -784811 972567
218 3 O 3.55582 36.9349 5.78248 -1.2 -8.63468 -3.45742e+06 -3.54065e+06 -1.79344e+06 -881704 -58536.9 -1.57978e+06
219 1 Mg -0.93068 35.6588 1.4948 1.2 -9.1576 -180640 2.39987e+06 4.67221e+06 1.86225e+06 -329425 289215
220 2 Si 0.881882 33.5939 1.4948 2.4 -34.5771 1.13986e+07 9.23846e+06 1.08939e+07 1.38313e+06 1.63445e+06 2.56911e+06
221 3 O 0.859602 31.9807 1.4948 -1.2 -6.96884 -6.82994e+06 -350118 -1.5258e+07 1.16365e+06 -8.4807e+06 2.31628e+06
222 3 O 7.507 34.568 1.4948 -1.2 -9.24667 -4.95106e+06 -718543 -1.6975e+06 -954377 -420122 857532
223 3 O 0.210186 34.3001 0.196716 -1.2 -5.93562 -4.70602e+06 -1.37909e+07 -9.66474e+06 1.53698e+06 -7.92797e+06 -821851
224 3 O 0.184454 34.3001 2.79288 -1.2 -8.51036 -2.6351e+06 -3.85252e+06 -2.23339e+06 -829082 -179804 739479
225 1 Mg 7.07415 37.992 0 1.2 -6.59788 3.28307e+06 2.02347e+06 -3.26773e+06 1.88966e+06 -414554 -1.07902e+06
226 1 Mg 4.36817 42.6997 1.4948 1.2 -9.26379 -626424 2.41692e+06 4.49903e+06 -995722 137619 180948
227 2 Si 6.16058 40.0155 1.4948 2.4 -34.4326 1.25473e+07 7.74577e+06 1.11068e+07 -346886 1.35192e+06 -1.23523e+06
228 3 O 6.22815 41.6288 1.4948 -1.2 -8.23598 -6.70515e+06 64322.6 -7.20763e+06 21998.7 -4.53989e+06 -1.76553e+06
229 3 O 2.53282 39.0415 1.4948 -1.2 -9.11803 -4.81914e+06 -707656 -2.183e+06 1.7283e+06 -341369 -1.12781e+06
230 3 O 5.44674 39.3094 0.196716 -1.2 -6.72165 -5.08845e+06 -1.04855e+07 -6.03964e+06 -157144 -5.78368e+06 1.62782e+06
231 1 Mg 7.04922 37.992 2.9896 1.2 -8.36018 5.24498e+06 -1.9226e+06 -332695 1.31836e+06 -1.46096e+06 2.19671e+06
232 3 O 5.42658 39.3094 2.79288 -1.2 -8.40172 -2.86688e+06 -3.46281e+06 -2.38734e+06 1.11926e+06 -317470 -1.42263e+06
233 1 Mg -0.333062 38.0333 4.4844 1.2 -9.17266 -339180 2.19828e+06 3.62878e+06 -429646 -126819 321120
234 2 Si -2.12255 40.7174 4.4844 2.4 -33.8859 1.27523e+07 8.2981e+06 9.42132e+06 124827 -106535 408623
235 3 O -2.19212 39.1042 4.4844 -1.2 -8.96753 -4.64709e+06 155076 -4.1203e+06 414040 -54222.2 -238436
236 3 O 1.50676 41.6915 4.4844 -1.2 -8.77117 -4.26304e+06 -2.40434e+06 -3.38466e+06 2.34057e+06 -139947 -106028
237 3 O -1.3884 41.4236 3.18632 -1.2 -8.48545 -3.38263e+06 -3.23052e+06 -1.72878e+06 1.14885e+06 143795 -1.66972e+06
238 3 O -1.40713 41.4236 5.78248 -1.2 -8.42813 -3.45674e+06 -3.49079e+06 -1.91888e+06 1.23261e+06 41386.4 1.20297e+06
239 1 Mg 2.01892 40.3665 2.9896 1.2 -8.42049 5.33316e+06 -1.90123e+06 -363646 -1.11097e+06 -1.61599e+06 -1.34281e+06
240 1 Mg 4.83434 40.3252 4.4844 1.2 -9.16998 93868 2.12381e+06 3.40531e+06 1.27037e+06 -66260.2 170813
241 2 Si 3.02698 42.39 4.4844 2.4 -33.7956 1.30236e+07 8.30266e+06 8.95141e+06 742199 -227522 254296
242 3 O 3.05433 44.0033 4.4844 -1.2 -8.98947 -4.83641e+06 130948 -4.04648e+06 613101 53262.3 -177601
243 3 O -3.60077 41.416 4.4844 -1.2 -8.81994 -4.36805e+06 -2.25736e+06 -3.28517e+06 -1.35783e+06 -312489 -235171
244 3 O 3.71851 41.6839 3.18632 -1.2 -8.54379 -3.48143e+06 -3.35638e+06 -1.66956e+06 -846994 233700 1.05691e+06
245 1 Mg 2.04077 40.3665 0 1.2 -6.62775 2.8311e+06 1.79739e+06 -3.57817e+06 -1.8473e+06 434844 1.75097e+06
246 3 O 3.70011 41.6839 5.78248 -1.2 -8.53378 -3.70076e+06 -3.44094e+06 -1.89817e+06 -912397 -93856.7 -1.23305e+06
247 1 Mg -0.796865 40.4078 1.4948 1.2 -9.23772 -363356 2.3592e+06 4.63235e+06 1.74673e+06 27742.5 250756
248 2 Si 1.01387 38.3429 1.4948 2.4 -34.4994 1.21733e+07 8.18013e+06 1.10883e+07 1.50684e+06 1.43085e+06 2.45319e+06
249 3 O 0.989947 36.7297 1.4948 -1.2 -7.67627 -7.15424e+06 -109775 -1.05421e+07 1.05233e+06 -6.62151e+06 1.7031e+06
250 3 O 7.63988 39.317 1.4948 -1.2 -9.1538 -4.92521e+06 -610063 -2.15369e+06 -940469 -262022 850879
251 3 O 0.340253 39.0491 0.196716 -1.2 -6.72845 -5.1349e+06 -1.14063e+07 -6.01627e+06 395303 -5.84868e+06 -1.71705e+06
252 3 O 0.319795 39.0491 2.79288 -1.2 -8.44101 -2.80902e+06 -3.61658e+06 -2.44222e+06 -842372 -180492 668562
253 1 Mg 7.20667 42.741 0 1.2 -6.69035 2.48864e+06 1.73729e+06 -3.50269e+06 1.99796e+06 904750 -1.95164e+06
254 1 Mg 4.50613 47.4487 1.4948 1.2 -9.26211 -609007 2.4369e+06 4.25578e+06 -863211 431514 168654
255 2 Si 6.29731 44.7645 1.4948 2.4 -34.3092 1.29812e+07 7.09566e+06 1.1102e+07 -245548 956959 -1.1354e+06
256 3 O 6.36567 46.3778 1.4948 -1.2 -8.62575 -5.93889e+06 129690 -5.31431e+06 193160 -2.71676e+06 -1.47041e+06
257 3 O 2.669 43.7905 1.4948 -1.2 -9.04098 -4.75924e+06 -827679 -2.51653e+06 1.72278e+06 -194398 -1.08079e+06
258 3 O 5.58048 44.0584 0.196716 -1.2 -7.41702 -5.05604e+06 -7.78152e+06 -3.69812e+06 319207 -3.72167e+06 2.23238e+06
259 1 Mg 7.1879 42.741 2.9896 1.2 -8.4014 5.28122e+06 -1.97056e+06 -241634 1.2956e+06 -1.53503e+06 2.10145e+06
260 3 O 5.56564 44.0584 2.79288 -1.2 -8.40007 -3.04116e+06 -3.38711e+06 -2.31728e+06 1.13943e+06 -345817 -1.34716e+06
261 1 Mg -0.19105 42.7823 4.4844 1.2 -9.22533 -326281 2.23022e+06 3.66586e+06 -444269 -170405 243929
262 2 Si -1.97909 45.4664 4.4844 2.4 -33.9268 1.26555e+07 8.16833e+06 9.71725e+06 95139.9 -56779 185093
263 3 O -2.04947 43.8532 4.4844 -1.2 -8.92727 -4.57361e+06 168220 -4.27312e+06 430604 -51660.4 -184918
264 3 O 1.65063 46.4405 4.4844 -1.2 -8.76245 -4.27874e+06 -2.35675e+06 -3.43883e+06 2.23205e+06 -81703.5 -166684
265 3 O -1.24745 46.1726 3.18632 -1.2 -8.45402 -3.34935e+06 -3.20581e+06 -1.94267e+06 1.1287e+06 108845 -1.55917e+06
266 3 O -1.26044 46.1726 5.78248 -1.2 -8.41785 -3.4141e+06 -3.29032e+06 -2.14982e+06 1.1735e+06 33411.4 1.47564e+06
267 1 Mg 2.15896 45.1155 2.9896 1.2 -8.43782 5.34981e+06 -1.88126e+06 -356799 -1.06148e+06 -1.7379e+06 -1.36089e+06
268 1 Mg 4.97763 45.0742 4.4844 1.2 -9.16004 145154 2.15159e+06 3.30877e+06 1.20553e+06 49843.7 203347
269 2 Si 3.1711 47.139 4.4844 2.4 -33.8611 1.29113e+07 8.11679e+06 9.35261e+06 774943 -179413 494108