ITEM: TIMESTEP
13800
ITEM: NUMBER OF ATOMS
10500
ITEM: BOX BOUNDS xy xz yz pp pp pp
0.0000000000000000e+00 1.5297749999999999e+01 5.0992499999999996e+00
0.0000000000000000e+00 1.1872499999999999e+02 0.0000000000000000e+00
0.0000000000000000e+00 8.9688000000000002e+01 0.0000000000000000e+00
ITEM: ATOMS id type element xu yu zu q c_pe c_s[1] c_s[2] c_s[3] c_s[4] c_s[5] c_s[6]
1 1 Mg 6.2404 -6.37941e-06 0 1.2 -4.55189 8.0632e+06 -1.91679e+06 -6.11524e+06 -21444.4 2.62563e+06 -169836
2 1 Mg 3.46349 4.70768 1.4948 1.2 -8.5565 -207537 2.81673e+06 4.19591e+06 -941456 -620664 31944.8
3 2 Si 5.2885 2.02354 1.4948 2.4 -35.447 1.02567e+07 1.09521e+07 1.1376e+07 8.86479e+06 720159 -3.13536e+06
4 3 O 5.33628 3.63678 1.4948 -1.2 -4.63899 -927019 -1.52429e+06 -3.36146e+07 -331930 3.79809e+06 -3.82196e+06
5 3 O 1.67294 1.04952 1.4948 -1.2 -0.952457 -2.0512e+07 -7.93201e+07 -2.13657e+06 -2.41253e+07 -115030 -89078.9
6 3 O 4.59532 1.31737 0.196716 -1.2 -2.92252 -2.09744e+06 -6.66339e+06 -3.05353e+07 -6.03e+06 6.24289e+06 -2.65736e+06
7 1 Mg 6.18956 -6.37941e-06 2.9896 1.2 -5.06035 1.71655e+06 -2.83382e+07 -2.80619e+06 -8.8328e+06 2.4657e+06 4.0699e+06
8 3 O 4.55118 1.31737 2.79288 -1.2 -7.39396 -18847.1 -4.61733e+06 -3.25774e+06 -2.96798e+06 -3.43302e+06 -1.08624e+06
9 1 Mg -1.20682 0.0413099 4.4844 1.2 8.76877 -3.05482e+07 -9.35937e+07 -10206.6 -2.85275e+07 -1.28629e+06 220418
10 2 Si -3.0337 2.72544 4.4844 2.4 -33.3668 1.45665e+07 6.85082e+06 8.41751e+06 1.60158e+06 138930 -849052
11 3 O -3.08099 1.11221 4.4844 -1.2 -9.45729 -6.33644e+06 222303 -2.43732e+06 -1.22683e+06 -231938 292269
12 3 O 0.582463 3.69946 4.4844 -1.2 -8.91087 -3.40816e+06 -5.46447e+06 -2.81191e+06 -580972 -103110 21198.4
13 3 O -2.29524 3.43162 3.18632 -1.2 -8.97144 -4.31868e+06 -2.53187e+06 -610367 1.09088e+06 -818102 -851369
14 3 O -2.34216 3.43162 5.78248 -1.2 -8.71691 -3.97388e+06 -3.1666e+06 -1.82891e+06 814808 591789 1.47224e+06
15 1 Mg 1.12778 2.37449 2.9896 1.2 -7.69084 5.36219e+06 -1.70226e+06 -657240 -3.2831e+06 -4.21608e+06 -2.30905e+06
16 1 Mg 3.92855 2.33318 4.4844 1.2 -8.56976 -3.98288e+06 4.82975e+06 4.91052e+06 1.38995e+06 357897 383034
17 2 Si 2.09341 4.39804 4.4844 2.4 -32.4578 1.22372e+07 6.9108e+06 8.78044e+06 197247 -237049 363556
18 3 O 2.09991 6.01128 4.4844 -1.2 -9.46856 -4.05588e+06 -134268 -3.79887e+06 553696 -178142 -112315
19 3 O -4.52137 3.42402 4.4844 -1.2 -9.08075 -3.00558e+06 -2.87561e+06 -3.66698e+06 -2.41509e+06 -916823 176728
20 3 O 2.80834 3.69187 3.18632 -1.2 -9.25983 -2.26053e+06 -2.84886e+06 -376245 463283 -501628 -413304
21 1 Mg 1.17857 2.37449 0 1.2 -5.21994 -438542 -1.47944e+07 -6.4863e+06 6.52098e+06 1.18725e+06 4.55785e+06
22 3 O 2.76143 3.69187 5.78248 -1.2 -9.31338 -2.90858e+06 -2.41394e+06 -1.17019e+06 542315 -14999.5 80505.8
23 1 Mg -1.67381 2.41581 1.4948 1.2 -7.67319 1.70354e+06 -222613 4.07952e+06 1.35398e+06 -589402 977222
24 2 Si 0.16286 0.350945 1.4948 2.4 -24.7653 -7.82586e+06 1.22578e+07 1.15445e+07 1.57724e+06 2.81149e+06 1.23831e+06
25 3 O 0.15972 -1.26229 1.4948 -1.2 -4.65027 -1.08715e+07 -7.90089e+06 -2.90624e+07 -5.59685e+06 -8.52509e+06 -2.69932e+06
26 3 O 6.77654 1.32496 1.4948 -1.2 -10.2506 -5.87964e+06 1.82094e+06 -1.46204e+06 -642803 -656568 1.0806e+06
27 3 O -0.508028 1.05712 0.196716 -1.2 -9.42516 -83331.2 -4.64076e+06 -706959 -548413 197738 -4.5549e+06
28 3 O -0.552171 1.05712 2.79288 -1.2 -6.69171 -5.50995e+06 -4.48343e+06 -2.47684e+07 1.4313e+06 -6.75393e+06 -5.51254e+06
29 1 Mg 6.31713 4.74899 0 1.2 -5.02794 496186 -1.27565e+07 -6.23639e+06 -7.30834e+06 1.45042e+06 -3.65415e+06
30 1 Mg 3.54847 9.45668 1.4948 1.2 -8.40453 398071 1.8336e+06 4.30858e+06 -966218 -921250 -302698
31 2 Si 5.36879 6.77254 1.4948 2.4 -34.4489 7.53444e+06 1.2356e+07 1.12509e+07 1.66075e+06 185848 -1.96901e+06
32 3 O 5.41937 8.38578 1.4948 -1.2 -4.68435 -455648 -1.06897e+06 -3.5073e+07 765909 1.08648e+06 -4.24925e+06
33 3 O 1.75158 5.79852 1.4948 -1.2 -9.42621 -4.12606e+06 -2.50588e+06 -1.27834e+06 1.97296e+06 -1.57812e+06 -1.31782e+06
34 3 O 4.67421 6.06637 0.196716 -1.2 -3.68429 20794.5 -1.02847e+07 -3.13133e+07 -2.00268e+06 1.28748e+06 -4.39794e+06
35 1 Mg 6.26654 4.74899 2.9896 1.2 -8.10146 4.20904e+06 -1.56432e+06 -94534 1.80179e+06 -820298 1.85369e+06
36 3 O 4.63043 6.06637 2.79288 -1.2 -8.78774 -1.71824e+06 -4.10851e+06 -2.0527e+06 945133 -129668 -1.43995e+06
37 1 Mg -1.12976 4.79031 4.4844 1.2 -8.85038 -538907 2.87215e+06 2.71509e+06 -681406 -488339 -222839
38 2 Si -2.9517 7.47444 4.4844 2.4 -32.9504 1.13972e+07 9.2034e+06 8.34992e+06 97190.7 3890.85 47005.3
39 3 O -3.00198 5.86121 4.4844 -1.2 -9.39009 -4.02468e+06 -331494 -3.61538e+06 41276.1 -234639 108645
40 3 O 0.666315 8.44846 4.4844 -1.2 -9.21395 -3.45945e+06 -2.70326e+06 -3.147e+06 2.15527e+06 -453658 -73766
41 3 O -2.21213 8.18062 3.18632 -1.2 -9.02477 -3.0268e+06 -3.50984e+06 -542844 1.08472e+06 -308063 -1.49066e+06
42 3 O -2.25864 8.18062 5.78248 -1.2 -8.93382 -2.97061e+06 -3.81774e+06 -1.64028e+06 971649 -88751.1 1.24917e+06
43 1 Mg 1.20893 7.12349 2.9896 1.2 -8.05583 4.22971e+06 -1.48102e+06 -292329 -1.29295e+06 -1.34837e+06 -1.64634e+06
44 1 Mg 4.00982 7.08218 4.4844 1.2 -8.70171 -768737 2.65557e+06 2.97377e+06 1.00015e+06 -262872 170183
45 2 Si 2.17861 9.14704 4.4844 2.4 -32.9463 1.14357e+07 8.95004e+06 8.52536e+06 497085 -90960 209542
46 3 O 2.18828 10.7603 4.4844 -1.2 -9.40294 -4.06336e+06 -182560 -3.82646e+06 476182 -144750 -9285.28
47 3 O -4.43805 8.17302 4.4844 -1.2 -9.25549 -3.45208e+06 -2.70186e+06 -3.05642e+06 -1.53571e+06 -502408 -123403
48 3 O 2.89193 8.44087 3.18632 -1.2 -9.04632 -2.91081e+06 -3.65696e+06 -634171 -906665 -224827 1.22369e+06
49 1 Mg 1.25915 7.12349 0 1.2 -5.39948 1.1122e+06 -7.43106e+06 -6.47654e+06 5.89123e+06 1.34951e+06 2.56667e+06
50 3 O 2.84547 8.44087 5.78248 -1.2 -8.96071 -2.93193e+06 -3.7692e+06 -1.78367e+06 -843705 -180094 -1.30272e+06
51 1 Mg -1.59284 7.16481 1.4948 1.2 -8.32544 939624 1.50469e+06 4.16826e+06 1.46865e+06 -918180 328349
52 2 Si 0.240329 5.09994 1.4948 2.4 -34.214 8.56817e+06 1.11795e+07 1.10179e+07 -1.9549e+06 -1.10115e+06 1.85707e+06
53 3 O 0.234538 3.48671 1.4948 -1.2 -5.142 -1.92913e+06 350581 -3.37175e+07 398462 5.20244e+06 4.01295e+06
54 3 O 6.85564 6.07396 1.4948 -1.2 -9.50359 -4.52547e+06 -1.9618e+06 -1.26037e+06 -1.34827e+06 -1.84838e+06 1.19676e+06
55 3 O -0.429565 5.80612 0.196716 -1.2 -3.94019 -825362 -8.924e+06 -3.1374e+07 1.84494e+06 1.2056e+06 4.60699e+06
56 3 O -0.473377 5.80612 2.79288 -1.2 -8.87345 -2.25293e+06 -3.68492e+06 -1.90298e+06 -790255 335994 1.34174e+06
57 1 Mg 6.40169 9.49799 0 1.2 -5.35864 1.70773e+06 -6.33026e+06 -6.72728e+06 -5.48261e+06 1.01445e+06 -2.4444e+06
58 1 Mg 3.64209 14.2057 1.4948 1.2 -8.45871 291181 1.89855e+06 4.39643e+06 -1.0331e+06 -964233 -315907
59 2 Si 5.45748 11.5215 1.4948 2.4 -34.4023 7.83329e+06 1.186e+07 1.13496e+07 894415 387443 -2.16128e+06
60 3 O 5.51101 13.1348 1.4948 -1.2 -4.7326 -640287 -958129 -3.47418e+07 470760 -2.55857e+06 -4.31803e+06
61 3 O 1.83851 10.5475 1.4948 -1.2 -9.50129 -4.33266e+06 -1.95212e+06 -1.23326e+06 1.54577e+06 -1.5633e+06 -1.09498e+06
62 3 O 4.7611 10.8154 0.196716 -1.2 -3.54686 431851 -1.15663e+07 -3.18855e+07 -2.46426e+06 -1.78444e+06 -4.29541e+06
63 1 Mg 6.35203 9.49799 2.9896 1.2 -8.03868 4.22496e+06 -1.53918e+06 -238385 1.32688e+06 -1.15767e+06 2.03223e+06
64 3 O 4.71833 10.8154 2.79288 -1.2 -8.81247 -1.96871e+06 -3.82549e+06 -2.05489e+06 1.05031e+06 11811.9 -1.3115e+06
65 1 Mg -1.0438 9.53931 4.4844 1.2 -8.76143 -799729 2.54863e+06 3.12217e+06 -556869 -294734 71483.4
66 2 Si -2.8604 12.2234 4.4844 2.4 -33.0025 1.15186e+07 8.93009e+06 8.58886e+06 -50746.3 77405.5 -42020.1
67 3 O -2.91391 10.6102 4.4844 -1.2 -9.39632 -4.03769e+06 -178768 -3.74646e+06 196271 -237527 -59884.1
68 3 O 0.7596 13.1975 4.4844 -1.2 -9.18043 -3.42259e+06 -2.73613e+06 -3.20992e+06 2.12625e+06 -428925 90288.7
69 3 O -2.12001 12.9296 3.18632 -1.2 -9.00365 -2.97395e+06 -3.51151e+06 -632756 1.15937e+06 -250167 -1.47518e+06
70 3 O -2.16532 12.9296 5.78248 -1.2 -8.86689 -2.99743e+06 -3.74255e+06 -1.77639e+06 1.14944e+06 -174118 1.43131e+06
71 1 Mg 1.29891 11.8725 2.9896 1.2 -8.06576 4.27116e+06 -1.50536e+06 -296736 -1.18066e+06 -1.26135e+06 -1.70299e+06
72 1 Mg 4.10033 11.8312 4.4844 1.2 -8.7174 -571299 2.52293e+06 2.93634e+06 1.11589e+06 -295698 34250.2
73 2 Si 2.27333 13.896 4.4844 2.4 -32.9609 1.15024e+07 9.06867e+06 8.35821e+06 717752 -179027 -23884.8
74 3 O 2.28634 15.5093 4.4844 -1.2 -9.39893 -4.05378e+06 -278953 -3.74887e+06 428326 -153077 43600.8
75 3 O -4.34533 12.922 4.4844 -1.2 -9.24909 -3.5774e+06 -2.61842e+06 -3.02475e+06 -1.45776e+06 -527101 -26679.1
76 3 O 2.98455 13.1899 3.18632 -1.2 -9.04158 -2.98198e+06 -3.62795e+06 -623172 -959473 -132592 1.32526e+06
77 1 Mg 1.34779 11.8725 0 1.2 -5.6002 2.9068e+06 -2.73153e+06 -6.75067e+06 3.56212e+06 792036 1.5804e+06
78 3 O 2.93934 13.1899 5.78248 -1.2 -8.96914 -3.03912e+06 -3.82406e+06 -1.57013e+06 -931563 -104040 -1.14622e+06
79 1 Mg -1.50344 11.9138 1.4948 1.2 -8.41233 612720 1.79306e+06 4.32979e+06 1.56617e+06 -948908 398976
80 2 Si 0.326006 9.84894 1.4948 2.4 -34.3854 7.83854e+06 1.19099e+07 1.12396e+07 -608715 71677.9 2.305e+06
81 3 O 0.317364 8.23571 1.4948 -1.2 -4.68622 -579644 -937805 -3.52063e+07 -123344 1.19528e+06 4.17402e+06
82 3 O 6.94307 10.823 1.4948 -1.2 -9.54071 -4.48568e+06 -1.77272e+06 -1.15527e+06 -990415 -1.54736e+06 1.04625e+06
83 3 O -0.343122 10.5551 0.196716 -1.2 -3.6396 156298 -1.10228e+07 -3.19695e+07 2.45749e+06 -2.02657e+06 4.50911e+06
84 3 O -0.385966 10.5551 2.79288 -1.2 -8.833 -1.96732e+06 -3.87863e+06 -2.11239e+06 -859152 107982 1.096e+06
85 1 Mg 6.49448 14.247 0 1.2 -5.55455 3.41705e+06 -1.90825e+06 -6.97239e+06 -2.96964e+06 261960 -1.54082e+06
86 1 Mg 3.74457 18.9547 1.4948 1.2 -8.53524 71962.5 2.11569e+06 4.44393e+06 -1.11488e+06 -973565 -253471
87 2 Si 5.55495 16.2705 1.4948 2.4 -34.3686 8.07282e+06 1.16792e+07 1.12555e+07 517510 807547 -2.31903e+06
88 3 O 5.6115 17.8838 1.4948 -1.2 -5.0536 -1.64545e+06 -944206 -3.20053e+07 79296.1 -6.05513e+06 -4.13328e+06
89 3 O 1.93416 15.2965 1.4948 -1.2 -9.54267 -4.38933e+06 -1.67699e+06 -1.13572e+06 1.52876e+06 -1.36724e+06 -1.017e+06
90 3 O 4.85636 15.5644 0.196716 -1.2 -3.57496 450732 -1.33043e+07 -3.02882e+07 -3.03476e+06 -5.14552e+06 -3.72234e+06
91 1 Mg 6.44662 14.247 2.9896 1.2 -8.0268 4.32358e+06 -1.54439e+06 -351814 1.27548e+06 -1.16394e+06 1.97134e+06
92 3 O 4.81537 15.5644 2.79288 -1.2 -8.80044 -1.95626e+06 -3.89561e+06 -2.04725e+06 1.07855e+06 -24873.6 -1.25872e+06
93 1 Mg -0.948271 14.2883 4.4844 1.2 -8.77374 -850538 2.60148e+06 3.1306e+06 -547526 -281840 -105622
94 2 Si -2.75928 16.9724 4.4844 2.4 -32.966 1.15772e+07 9.16385e+06 8.23587e+06 -70555.3 -103801 -216092
95 3 O -2.81617 15.3592 4.4844 -1.2 -9.39975 -4.04111e+06 -244683 -3.67073e+06 315610 -183748 63410.1
96 3 O 0.862762 17.9465 4.4844 -1.2 -9.19026 -3.43336e+06 -2.88955e+06 -3.03529e+06 2.15877e+06 -516786 107034
97 3 O -2.0185 17.6786 3.18632 -1.2 -9.00588 -2.98267e+06 -3.63754e+06 -516587 1.1654e+06 -151120 -1.45966e+06
98 3 O -2.06164 17.6786 5.78248 -1.2 -8.93984 -3.05015e+06 -3.90358e+06 -1.37079e+06 1.12718e+06 -78688.3 1.55691e+06
99 1 Mg 1.39817 16.6215 2.9896 1.2 -8.05232 4.34726e+06 -1.42376e+06 -478099 -1.15052e+06 -1.22842e+06 -1.70253e+06
100 1 Mg 4.20062 16.5802 4.4844 1.2 -8.73679 -614625 2.59725e+06 2.93903e+06 1.1299e+06 -300605 16580.5
101 2 Si 2.37796 18.645 4.4844 2.4 -32.989 1.1421e+07 9.33436e+06 8.22243e+06 680253 -88172.3 -82821.6
102 3 O 2.39434 20.2583 4.4844 -1.2 -9.38444 -4.04172e+06 -421064 -3.64491e+06 516144 -120836 20084.5
103 3 O -4.24274 17.671 4.4844 -1.2 -9.24896 -3.58311e+06 -2.7302e+06 -2.90784e+06 -1.40981e+06 -434867 35578
104 3 O 3.08659 17.9389 3.18632 -1.2 -9.02952 -2.94494e+06 -3.73532e+06 -609248 -941667 -62013.9 1.33021e+06
105 1 Mg 1.44478 16.6215 0 1.2 -5.70225 4.55358e+06 303247 -6.82607e+06 1.39934e+06 -61710 885176
106 3 O 3.0436 17.9389 5.78248 -1.2 -8.90219 -2.91969e+06 -3.94532e+06 -1.78398e+06 -882713 -145023 -1.06455e+06
107 1 Mg -1.40524 16.6628 1.4948 1.2 -8.47908 428692 2.00861e+06 4.3576e+06 1.6881e+06 -971466 338137
108 2 Si 0.420358 14.5979 1.4948 2.4 -34.3841 7.90071e+06 1.1823e+07 1.12464e+07 -123762 532276 2.43364e+06
109 3 O 0.408732 12.9847 1.4948 -1.2 -4.71469 -634516 -943073 -3.49252e+07 222353 -2.54073e+06 4.27372e+06
110 3 O 7.03923 15.572 1.4948 -1.2 -9.58433 -4.53798e+06 -1.52671e+06 -1.03807e+06 -939075 -1.3133e+06 1.04624e+06
111 3 O -0.248332 15.3041 0.196716 -1.2 -3.67249 146318 -1.28364e+07 -3.03484e+07 3.25589e+06 -5.39509e+06 4.01367e+06
112 3 O -0.289436 15.3041 2.79288 -1.2 -8.82445 -1.9214e+06 -4.00405e+06 -2.09052e+06 -863871 47175.7 1.13156e+06
113 1 Mg 6.59566 18.996 0 1.2 -5.67626 4.79152e+06 759615 -6.77656e+06 -914560 -672027 -897077
114 1 Mg 3.85574 23.7037 1.4948 1.2 -8.626 -182007 2.33063e+06 4.48852e+06 -1.18726e+06 -919423 -173346
115 2 Si 5.66125 21.0195 1.4948 2.4 -34.2984 8.52069e+06 1.13938e+07 1.10424e+07 191971 1.22456e+06 -2.2668e+06
116 3 O 5.72074 22.6328 1.4948 -1.2 -5.64744 -3.33108e+06 -873487 -2.70978e+07 -220192 -8.51587e+06 -3.72339e+06
117 3 O 2.03867 20.0455 1.4948 -1.2 -9.56966 -4.40453e+06 -1.48698e+06 -1.06487e+06 1.57149e+06 -1.14681e+06 -1.00448e+06
118 3 O 4.96004 20.3134 0.196716 -1.2 -3.89989 -263948 -1.47782e+07 -2.6393e+07 -3.18851e+06 -7.94607e+06 -2.77798e+06
119 1 Mg 6.55057 18.996 2.9896 1.2 -8.01145 4.41231e+06 -1.44526e+06 -563733 1.3038e+06 -1.20961e+06 1.97715e+06
120 3 O 4.92172 20.3134 2.79288 -1.2 -8.78469 -1.95229e+06 -4.02236e+06 -1.98561e+06 1.07261e+06 -74784.6 -1.27144e+06
121 1 Mg -0.84282 19.0373 4.4844 1.2 -8.75239 -838475 2.77267e+06 2.9039e+06 -525320 -232429 -47820.8
122 2 Si -2.64823 21.7214 4.4844 2.4 -33.0239 1.16085e+07 9.29464e+06 8.17137e+06 9412.25 -79881.3 150020
123 3 O -2.70847 20.1082 4.4844 -1.2 -9.40399 -4.06081e+06 -417266 -3.46484e+06 304359 -149146 -43383.5
124 3 O 0.97581 22.6955 4.4844 -1.2 -9.16015 -3.49521e+06 -2.90502e+06 -3.01774e+06 2.22675e+06 -441870 40858.6
125 3 O -1.9076 22.4276 3.18632 -1.2 -8.97362 -2.97474e+06 -3.67274e+06 -579075 1.16919e+06 -69053 -1.54965e+06
126 3 O -1.9475 22.4276 5.78248 -1.2 -8.84265 -3.05123e+06 -3.84374e+06 -1.62374e+06 1.18256e+06 -29405.4 1.30736e+06
127 1 Mg 1.50678 21.3705 2.9896 1.2 -8.04938 4.45134e+06 -1.36337e+06 -647284 -1.16874e+06 -1.26306e+06 -1.6113e+06
128 1 Mg 4.31086 21.3292 4.4844 1.2 -8.75181 -573973 2.7352e+06 2.78589e+06 1.20017e+06 -287682 68139.3
129 2 Si 2.49243 23.394 4.4844 2.4 -33.0309 1.16287e+07 9.35365e+06 8.05981e+06 736867 -182330 12295.3
130 3 O 2.51204 25.0073 4.4844 -1.2 -9.3657 -4.14047e+06 -409038 -3.59241e+06 541715 -86141.4 14372.2
131 3 O -4.13026 22.42 4.4844 -1.2 -9.21809 -3.64976e+06 -2.77144e+06 -2.84799e+06 -1.41179e+06 -487711 -112499
132 3 O 3.19799 22.6879 3.18632 -1.2 -9.00667 -2.97207e+06 -3.80047e+06 -611686 -926978 32924.7 1.2729e+06
133 1 Mg 1.5501 21.3705 0 1.2 -5.76366 5.44655e+06 1.88998e+06 -6.42933e+06 -66203.1 -979456 491351
134 3 O 3.1583 22.6879 5.78248 -1.2 -8.89353 -3.08231e+06 -4.00122e+06 -1.50462e+06 -962359 -67133 -1.17777e+06
135 1 Mg -1.29822 21.4118 1.4948 1.2 -8.56466 196574 2.22932e+06 4.40168e+06 1.80161e+06 -941146 329534
136 2 Si 0.523568 19.3469 1.4948 2.4 -34.3304 8.24004e+06 1.16368e+07 1.10355e+07 302964 994414 2.61519e+06
137 3 O 0.508934 17.7337 1.4948 -1.2 -5.0397 -1.65435e+06 -941758 -3.21556e+07 666504 -6.08061e+06 4.08171e+06
138 3 O 7.14425 20.321 1.4948 -1.2 -9.61247 -4.55436e+06 -1.34554e+06 -967000 -937802 -1.07404e+06 981869
139 3 O -0.145107 20.0531 0.196716 -1.2 -4.00144 -622045 -1.44453e+07 -2.64087e+07 3.68466e+06 -8.19291e+06 3.03966e+06
140 3 O -0.183601 20.0531 2.79288 -1.2 -8.81763 -1.92653e+06 -4.14026e+06 -2.0106e+06 -836351 -23684.7 1.02882e+06
141 1 Mg 6.70502 23.745 0 1.2 -5.77966 5.3e+06 2.08674e+06 -6.06271e+06 410892 -1.48499e+06 -536701
142 1 Mg 3.97493 28.4527 1.4948 1.2 -8.71205 -499523 2.56351e+06 4.47843e+06 -1.22712e+06 -780454 -123018
143 2 Si 5.77602 25.7685 1.4948 2.4 -34.1806 9.17912e+06 1.08815e+07 1.0795e+07 -117126 1.56099e+06 -2.25584e+06
144 3 O 5.83821 27.3818 1.4948 -1.2 -6.44235 -5.08391e+06 -780736 -2.09291e+07 -340038 -9.30341e+06 -3.08096e+06
145 3 O 2.15175 24.7945 1.4948 -1.2 -9.57799 -4.39714e+06 -1.32087e+06 -1.09103e+06 1.61733e+06 -912551 -956988
146 3 O 5.07184 25.0624 0.196716 -1.2 -4.52112 -1.53553e+06 -1.54749e+07 -2.08082e+07 -2.78118e+06 -9.43483e+06 -1.49451e+06
147 1 Mg 6.66374 23.745 2.9896 1.2 -8.01916 4.51114e+06 -1.45705e+06 -635466 1.31447e+06 -1.22451e+06 1.99493e+06
148 3 O 5.03707 25.0624 2.79288 -1.2 -8.76573 -1.99947e+06 -4.04664e+06 -1.98427e+06 1.09548e+06 -162650 -1.2385e+06
149 1 Mg -0.727559 23.7863 4.4844 1.2 -8.79965 -832618 2.73514e+06 3.00328e+06 -503487 -258778 -12125.9
150 2 Si -2.5277 26.4704 4.4844 2.4 -33.0543 1.16342e+07 9.36972e+06 8.11954e+06 91493.3 -74980.3 -54002.7
151 3 O -2.59107 24.8572 4.4844 -1.2 -9.35743 -4.0779e+06 -378101 -3.55798e+06 339593 -121844 11056.3
152 3 O 1.09817 27.4445 4.4844 -1.2 -9.15559 -3.51104e+06 -2.96019e+06 -2.95797e+06 2.2424e+06 -379806 59181.9
153 3 O -1.78784 27.1766 3.18632 -1.2 -8.95244 -2.93838e+06 -3.73707e+06 -644524 1.15339e+06 819.58 -1.49293e+06
154 3 O -1.82343 27.1766 5.78248 -1.2 -8.84646 -3.00838e+06 -3.93886e+06 -1.48286e+06 1.11588e+06 -105426 1.38999e+06
155 1 Mg 1.62435 26.1195 2.9896 1.2 -8.04621 4.55638e+06 -1.3429e+06 -774804 -1.15702e+06 -1.33107e+06 -1.60118e+06
156 1 Mg 4.43064 26.0782 4.4844 1.2 -8.77147 -540877 2.72664e+06 2.79482e+06 1.18064e+06 -228502 7742.11
157 2 Si 2.61607 28.143 4.4844 2.4 -33.0225 1.16161e+07 9.47408e+06 7.93952e+06 736989 -249823 -21995.7
158 3 O 2.63853 29.7563 4.4844 -1.2 -9.37125 -4.11493e+06 -458492 -3.56061e+06 551652 -38957.4 -4894.98
159 3 O -4.00841 27.169 4.4844 -1.2 -9.22271 -3.69412e+06 -2.82557e+06 -2.75238e+06 -1.36829e+06 -457998 -9195.28
160 3 O 3.3182 27.4369 3.18632 -1.2 -8.99215 -2.95424e+06 -3.86693e+06 -662677 -892830 125234 1.29118e+06
161 1 Mg 1.66335 26.1195 0 1.2 -5.84977 5.30352e+06 2.54229e+06 -5.58143e+06 -899544 -1.59019e+06 269608
162 3 O 3.28288 27.4369 5.78248 -1.2 -8.90209 -3.05582e+06 -4.04666e+06 -1.46891e+06 -876421 -67957.9 -1.1385e+06
163 1 Mg -1.18278 26.1608 1.4948 1.2 -8.65764 -105774 2.44804e+06 4.44207e+06 1.89127e+06 -837293 213273
164 2 Si 0.635424 24.0959 1.4948 2.4 -34.2412 8.80755e+06 1.12073e+07 1.0822e+07 745166 1.34596e+06 2.63608e+06
165 3 O 0.617906 22.4827 1.4948 -1.2 -5.63777 -3.35924e+06 -869768 -2.72239e+07 1.01541e+06 -8.53174e+06 3.59841e+06
166 3 O 7.25781 25.07 1.4948 -1.2 -9.61932 -4.5331e+06 -1.18165e+06 -1.02146e+06 -937371 -847171 992539
167 3 O -0.0337363 24.8021 0.196716 -1.2 -4.61263 -1.87301e+06 -1.54411e+07 -2.07697e+07 3.50012e+06 -9.63161e+06 1.79882e+06
168 3 O -0.0687235 24.8021 2.79288 -1.2 -8.80007 -1.96051e+06 -4.18351e+06 -2.01442e+06 -835545 -62540.2 999151
169 1 Mg 6.82195 28.494 0 1.2 -5.90551 4.86333e+06 2.60016e+06 -5.0583e+06 1.16145e+06 -1.82735e+06 -483422
170 1 Mg 4.10106 33.2017 1.4948 1.2 -8.79529 -818416 2.70867e+06 4.44506e+06 -1.1968e+06 -538549 -72713.8
171 2 Si 5.89839 30.5175 1.4948 2.4 -34.0099 9.95225e+06 1.02497e+07 1.04632e+07 -317807 1.69601e+06 -2.1278e+06
172 3 O 5.96289 32.1308 1.4948 -1.2 -7.28526 -6.24687e+06 -641541 -1.48993e+07 -298575 -8.46381e+06 -2.45081e+06
173 3 O 2.27266 29.5435 1.4948 -1.2 -9.57299 -4.34023e+06 -1.22574e+06 -1.20288e+06 1.66122e+06 -701690 -909097
174 3 O 5.19102 29.8114 0.196716 -1.2 -5.35993 -2.92245e+06 -1.50472e+07 -1.47025e+07 -1.94076e+06 -9.29355e+06 -139453
175 1 Mg 6.78546 28.494 2.9896 1.2 -8.00145 4.59096e+06 -1.39983e+06 -795489 1.31726e+06 -1.27597e+06 1.94453e+06
176 3 O 5.16061 29.8114 2.79288 -1.2 -8.77085 -2.0597e+06 -4.0941e+06 -1.90872e+06 1.10592e+06 -221001 -1.22196e+06
177 1 Mg -0.603205 28.5353 4.4844 1.2 -8.80228 -908708 2.80901e+06 3.00283e+06 -464227 -199493 -30102.5
178 2 Si -2.39877 31.2194 4.4844 2.4 -33.0477 1.16062e+07 9.44406e+06 8.06559e+06 56866.9 -93145.3 74248.4
179 3 O -2.46483 29.6062 4.4844 -1.2 -9.374 -4.05822e+06 -468720 -3.45764e+06 390751 -131655 809.029
180 3 O 1.22864 32.1935 4.4844 -1.2 -9.15304 -3.55363e+06 -2.95196e+06 -2.92642e+06 2.29677e+06 -334776 44906.4
181 3 O -1.66032 31.9256 3.18632 -1.2 -8.92756 -2.88903e+06 -3.76613e+06 -781996 1.1634e+06 73593.5 -1.51585e+06
182 3 O -1.69072 31.9256 5.78248 -1.2 -8.85561 -2.96713e+06 -3.96023e+06 -1.37719e+06 1.19829e+06 -43205 1.3437e+06
183 1 Mg 1.7499 30.8685 2.9896 1.2 -8.03807 4.62196e+06 -1.32731e+06 -862441 -1.14116e+06 -1.40757e+06 -1.57088e+06
184 1 Mg 4.55894 30.8272 4.4844 1.2 -8.76755 -549342 2.73865e+06 2.78597e+06 1.23514e+06 -211565 69543.8
185 2 Si 2.7476 32.892 4.4844 2.4 -33.0404 1.17109e+07 9.34144e+06 8.01217e+06 725503 -244079 -87601.7
186 3 O 2.77235 34.5053 4.4844 -1.2 -9.37183 -4.20135e+06 -425802 -3.50357e+06 602124 16405.3 55754.6
187 3 O -3.87837 31.918 4.4844 -1.2 -9.21887 -3.724e+06 -2.80227e+06 -2.75083e+06 -1.36575e+06 -402222 -82558.8
188 3 O 3.44611 32.1859 3.18632 -1.2 -8.97098 -2.93561e+06 -3.86673e+06 -806041 -883937 192605 1.27402e+06
189 1 Mg 1.7837 30.8685 0 1.2 -5.97877 4.34862e+06 2.66437e+06 -4.60262e+06 -1.35506e+06 -1.52802e+06 341172
190 3 O 3.41602 32.1859 5.78248 -1.2 -8.87585 -3.0679e+06 -3.91288e+06 -1.65502e+06 -905932 -53004.3 -1.16736e+06
191 1 Mg -1.05984 30.9098 1.4948 1.2 -8.74326 -455539 2.64512e+06 4.43014e+06 1.90284e+06 -630607 123605
192 2 Si 0.755243 28.8449 1.4948 2.4 -34.0978 9.48728e+06 1.06429e+07 1.05618e+07 1.12995e+06 1.57721e+06 2.46757e+06
193 3 O 0.735127 27.2317 1.4948 -1.2 -6.43206 -5.10881e+06 -772207 -2.10663e+07 1.17633e+06 -9.30718e+06 3.03662e+06
194 3 O 7.37914 29.819 1.4948 -1.2 -9.61597 -4.47891e+06 -1.10566e+06 -1.12428e+06 -935930 -626070 1.02129e+06
195 3 O 0.0850649 29.5511 0.196716 -1.2 -5.41976 -3.13609e+06 -1.53961e+07 -1.46899e+07 2.70546e+06 -9.42704e+06 498276
196 3 O 0.0543974 29.5511 2.79288 -1.2 -8.80198 -1.99323e+06 -4.23821e+06 -1.97495e+06 -833941 -124033 977381
197 1 Mg 6.94543 33.243 0 1.2 -6.06489 3.79192e+06 2.60288e+06 -4.06073e+06 1.5819e+06 -1.4415e+06 -737655
198 1 Mg 4.23267 37.9507 1.4948 1.2 -8.87403 -1.06578e+06 2.75498e+06 4.35777e+06 -1.12555e+06 -222357 5408.34
199 2 Si 6.02709 35.2665 1.4948 2.4 -33.853 1.07231e+07 9.39792e+06 1.03426e+07 -400923 1.65454e+06 -1.91188e+06
200 3 O 6.09339 36.8798 1.4948 -1.2 -8.02297 -6.54542e+06 -460757 -1.0093e+07 -139416 -6.63963e+06 -1.94969e+06
201 3 O 2.40018 34.2925 1.4948 -1.2 -9.54069 -4.30195e+06 -1.13971e+06 -1.43078e+06 1.69625e+06 -497597 -891703
202 3 O 5.31645 34.5604 0.196716 -1.2 -6.26175 -3.9661e+06 -1.33543e+07 -9.47001e+06 -957710 -7.84482e+06 1.0247e+06
203 1 Mg 6.91449 33.243 2.9896 1.2 -8.00668 4.64687e+06 -1.43339e+06 -801131 1.32745e+06 -1.34745e+06 1.95026e+06
204 3 O 5.291 34.5604 2.79288 -1.2 -8.7634 -2.17638e+06 -4.0294e+06 -1.90351e+06 1.10667e+06 -306856 -1.19711e+06
205 1 Mg -0.471101 33.2843 4.4844 1.2 -8.82414 -919845 2.80172e+06 3.05089e+06 -480876 -189549 37032.9
206 2 Si -2.26307 35.9684 4.4844 2.4 -33.1594 1.15203e+07 9.36208e+06 8.4225e+06 102490 -45428.6 82796.1
207 3 O -2.33122 34.3552 4.4844 -1.2 -9.33183 -4.02709e+06 -434914 -3.57475e+06 388359 -102828 -37350
208 3 O 1.36549 36.9425 4.4844 -1.2 -9.13492 -3.63902e+06 -2.94656e+06 -2.88077e+06 2.26138e+06 -187225 -6935.95
209 3 O -1.52658 36.6746 3.18632 -1.2 -8.87196 -2.84048e+06 -3.72197e+06 -1.05532e+06 1.1511e+06 122519 -1.50928e+06
210 3 O -1.55122 36.6746 5.78248 -1.2 -8.74824 -2.89073e+06 -3.93109e+06 -1.66557e+06 1.19846e+06 43303.2 1.38702e+06
211 1 Mg 1.882 35.6175 2.9896 1.2 -8.04609 4.7205e+06 -1.35891e+06 -906411 -1.12451e+06 -1.54177e+06 -1.53935e+06
212 1 Mg 4.69415 35.5762 4.4844 1.2 -8.76962 -467639 2.73906e+06 2.70745e+06 1.2472e+06 -74255.3 28319.4
213 2 Si 2.88522 37.641 4.4844 2.4 -33.0676 1.18385e+07 9.33844e+06 7.92653e+06 785335 -294381 188618
214 3 O 2.91159 39.2543 4.4844 -1.2 -9.31225 -4.23183e+06 -331919 -3.67127e+06 587155 29141.9 -137223
215 3 O -3.74183 36.667 4.4844 -1.2 -9.18935 -3.76179e+06 -2.77602e+06 -2.78695e+06 -1.31426e+06 -440207 -84156.2
216 3 O 3.58014 36.9349 3.18632 -1.2 -8.93628 -2.9523e+06 -3.85757e+06 -962162 -857196 240320 1.19963e+06
217 1 Mg 1.90997 35.6175 0 1.2 -6.12536 3.16888e+06 2.45574e+06 -3.95805e+06 -1.65314e+06 -786460 784874
218 3 O 3.55582 36.9349 5.78248 -1.2 -8.94566 -3.13007e+06 -3.96475e+06 -1.25351e+06 -880565 -54514.1 -1.33592e+06
219 1 Mg -0.93068 35.6588 1.4948 1.2 -8.82559 -759759 2.72941e+06 4.38989e+06 1.85194e+06 -324189 79861.7
220 2 Si 0.881882 33.5939 1.4948 2.4 -33.9364 1.02778e+07 9.85272e+06 1.03741e+07 1.38971e+06 1.59276e+06 2.25677e+06
221 3 O 0.859602 31.9807 1.4948 -1.2 -7.27579 -6.27313e+06 -636569 -1.50363e+07 1.16805e+06 -8.46322e+06 2.43786e+06
222 3 O 7.507 34.568 1.4948 -1.2 -9.57663 -4.40479e+06 -1.02272e+06 -1.41066e+06 -934470 -443872 1.0408e+06
223 3 O 0.210186 34.3001 0.196716 -1.2 -6.29462 -4.08224e+06 -1.40784e+07 -9.42526e+06 1.53934e+06 -7.9344e+06 -664699
224 3 O 0.184454 34.3001 2.79288 -1.2 -8.79377 -2.09294e+06 -4.18887e+06 -1.9823e+06 -826172 -141690 927757
225 1 Mg 7.07415 37.992 0 1.2 -6.22552 2.6666e+06 2.33141e+06 -3.55583e+06 1.86994e+06 -391864 -1.29248e+06
226 1 Mg 4.36817 42.6997 1.4948 1.2 -8.94017 -1.1733e+06 2.65086e+06 4.29349e+06 -1.00277e+06 114012 44008.3
227 2 Si 6.16058 40.0155 1.4948 2.4 -33.745 1.14441e+07 8.41341e+06 1.04406e+07 -385390 1.36362e+06 -1.60362e+06
228 3 O 6.22815 41.6288 1.4948 -1.2 -8.57019 -6.17015e+06 -210855 -6.93242e+06 39273.7 -4.53595e+06 -1.60895e+06
229 3 O 2.53282 39.0415 1.4948 -1.2 -9.46502 -4.26891e+06 -1.06868e+06 -1.81663e+06 1.71454e+06 -320864 -935511
230 3 O 5.44674 39.3094 0.196716 -1.2 -7.08474 -4.48771e+06 -1.07918e+07 -5.75272e+06 -144996 -5.77905e+06 1.83864e+06
231 1 Mg 7.04922 37.992 2.9896 1.2 -8.03513 4.71329e+06 -1.50517e+06 -739284 1.2915e+06 -1.42047e+06 1.95673e+06
232 3 O 5.42658 39.3094 2.79288 -1.2 -8.73744 -2.35139e+06 -3.87055e+06 -1.96012e+06 1.14877e+06 -323025 -1.25476e+06
233 1 Mg -0.333062 38.0333 4.4844 1.2 -8.87291 -888319 2.75744e+06 3.13844e+06 -397498 -188891 49298
234 2 Si -2.12255 40.7174 4.4844 2.4 -33.2464 1.17625e+07 9.11434e+06 8.57237e+06 86908 -71249.8 209800
235 3 O -2.19212 39.1042 4.4844 -1.2 -9.28805 -4.07932e+06 -377378 -3.6422e+06 432967 -76319 -40180.5
236 3 O 1.50676 41.6915 4.4844 -1.2 -9.05535 -3.74884e+06 -2.74819e+06 -3.0991e+06 2.27583e+06 -211872 -100603
237 3 O -1.3884 41.4236 3.18632 -1.2 -8.80716 -2.89707e+06 -3.56345e+06 -1.3652e+06 1.14304e+06 122623 -1.53898e+06
238 3 O -1.40713 41.4236 5.78248 -1.2 -8.72024 -3.04336e+06 -3.77242e+06 -1.66569e+06 1.18349e+06 16465.5 1.24289e+06
239 1 Mg 2.01892 40.3665 2.9896 1.2 -8.098 4.79567e+06 -1.50809e+06 -736047 -1.08242e+06 -1.62001e+06 -1.44806e+06
240 1 Mg 4.83434 40.3252 4.4844 1.2 -8.83839 -393237 2.56795e+06 2.91447e+06 1.2104e+06 -104296 167232
241 2 Si 3.02698 42.39 4.4844 2.4 -33.2656 1.18929e+07 8.9196e+06 8.61445e+06 772999 -257798 239824
242 3 O 3.05433 44.0033 4.4844 -1.2 -9.23495 -4.26617e+06 -137800 -3.95082e+06 601157 62670.1 -108571
243 3 O -3.60077 41.416 4.4844 -1.2 -9.13732 -3.91897e+06 -2.59615e+06 -2.89147e+06 -1.28439e+06 -286190 -170014
244 3 O 3.71851 41.6839 3.18632 -1.2 -8.85265 -2.9445e+06 -3.67666e+06 -1.39405e+06 -841999 265161 1.1234e+06
245 1 Mg 2.04077 40.3665 0 1.2 -6.26467 2.26095e+06 2.0746e+06 -3.86693e+06 -1.83541e+06 413205 1.54259e+06
246 3 O 3.70011 41.6839 5.78248 -1.2 -8.76642 -3.14205e+06 -3.76468e+06 -1.75782e+06 -888736 23514.7 -1.33753e+06
247 1 Mg -0.796865 40.4078 1.4948 1.2 -8.89547 -903368 2.68372e+06 4.29952e+06 1.75484e+06 43916.7 66133.3
248 2 Si 1.01387 38.3429 1.4948 2.4 -33.8064 1.10606e+07 8.91917e+06 1.03518e+07 1.54405e+06 1.40379e+06 2.03098e+06
249 3 O 0.989947 36.7297 1.4948 -1.2 -8.01761 -6.59694e+06 -463058 -1.01988e+07 1.03608e+06 -6.60215e+06 1.92337e+06
250 3 O 7.63988 39.317 1.4948 -1.2 -9.49948 -4.36645e+06 -961581 -1.80729e+06 -927317 -283379 1.0561e+06
251 3 O 0.340253 39.0491 0.196716 -1.2 -7.09805 -4.55803e+06 -1.17201e+07 -5.68721e+06 383200 -5.85158e+06 -1.50716e+06
252 3 O 0.319795 39.0491 2.79288 -1.2 -8.76858 -2.26878e+06 -4.04682e+06 -2.02733e+06 -870756 -170369 859002
253 1 Mg 7.20667 42.741 0 1.2 -6.35066 1.9478e+06 1.92675e+06 -3.69562e+06 1.99101e+06 930031 -2.12378e+06
254 1 Mg 4.50613 47.4487 1.4948 1.2 -8.93221 -1.17468e+06 2.66476e+06 4.06503e+06 -853488 427159 77897.2
255 2 Si 6.29731 44.7645 1.4948 2.4 -33.6667 1.19593e+07 7.47385e+06 1.07163e+07 -251218 932637 -1.36211e+06
256 3 O 6.36567 46.3778 1.4948 -1.2 -8.9519 -5.41857e+06 -67856.1 -5.11433e+06 190141 -2.70814e+06 -1.37712e+06
257 3 O 2.669 43.7905 1.4948 -1.2 -9.35872 -4.21548e+06 -1.02805e+06 -2.35086e+06 1.71841e+06 -187712 -948710
258 3 O 5.58048 44.0584 0.196716 -1.2 -7.74359 -4.50633e+06 -7.94432e+06 -3.56164e+06 327850 -3.72461e+06 2.37246e+06
259 1 Mg 7.1879 42.741 2.9896 1.2 -8.08343 4.81785e+06 -1.70166e+06 -556632 1.27406e+06 -1.55207e+06 1.98554e+06
260 3 O 5.56564 44.0584 2.79288 -1.2 -8.70656 -2.54434e+06 -3.61362e+06 -2.09682e+06 1.14626e+06 -294856 -1.24584e+06
261 1 Mg -0.19105 42.7823 4.4844 1.2 -8.92635 -736576 2.51291e+06 3.31342e+06 -397065 -77459.8 128609
262 2 Si -1.97909 45.4664 4.4844 2.4 -33.3135 1.19389e+07 8.66371e+06 8.95414e+06 82612.2 -79992.4 107456
263 3 O -2.04947 43.8532 4.4844 -1.2 -9.23875 -4.21451e+06 -115481 -3.84801e+06 446649 -38297.6 -82286
264 3 O 1.65063 46.4405 4.4844 -1.2 -9.03328 -3.78085e+06 -2.58899e+06 -3.26573e+06 2.26419e+06 -161536 -2111.3
265 3 O -1.24745 46.1726 3.18632 -1.2 -8.7704 -2.91216e+06 -3.41532e+06 -1.66308e+06 1.14733e+06 91729.4 -1.46954e+06
266 3 O -1.26044 46.1726 5.78248 -1.2 -8.70945 -3.15353e+06 -3.5001e+06 -1.71201e+06 1.22301e+06 3248.66 1.36908e+06
267 1 Mg 2.15896 45.1155 2.9896 1.2 -8.143 4.8168e+06 -1.66821e+06 -509210 -1.05926e+06 -1.70651e+06 -1.47717e+06
268 1 Mg 4.97763 45.0742 4.4844 1.2 -8.89431 -329857 2.39691e+06 3.11263e+06 1.22908e+06 -73270.7 114037
269 2 Si 3.1711 47.139 4.4844 2.4 -33.3047 1.17908e+07 8.74336e+06 8.95841e+06 854505 -176483 103996