ITEM: TIMESTEP
17800
ITEM: NUMBER OF ATOMS
10500
ITEM: BOX BOUNDS xy xz yz pp pp pp
0.0000000000000000e+00 1.5297749999999999e+01 5.0992499999999996e+00
0.0000000000000000e+00 1.1872499999999999e+02 0.0000000000000000e+00
0.0000000000000000e+00 8.9688000000000002e+01 0.0000000000000000e+00
ITEM: ATOMS id type element xu yu zu q c_pe c_s[1] c_s[2] c_s[3] c_s[4] c_s[5] c_s[6]
1 1 Mg 6.2404 -6.37941e-06 0 1.2 -4.60221 8.16089e+06 -2.04921e+06 -5.99986e+06 -4197.7 2.62548e+06 -244782
2 1 Mg 3.46349 4.70768 1.4948 1.2 -8.70361 20945.3 2.45231e+06 4.56756e+06 -938768 -650582 223283
3 2 Si 5.2885 2.02354 1.4948 2.4 -35.6061 1.05625e+07 1.04751e+07 1.18022e+07 8.86186e+06 676541 -2.99422e+06
4 3 O 5.33628 3.63678 1.4948 -1.2 -4.52034 -1.14526e+06 -1.19748e+06 -3.39135e+07 -329386 3.82899e+06 -3.97527e+06
5 3 O 1.67294 1.04952 1.4948 -1.2 -0.889682 -2.05863e+07 -7.91487e+07 -2.3344e+06 -2.41198e+07 -115150 -120333
6 3 O 4.59532 1.31737 0.196716 -1.2 -2.83691 -2.24931e+06 -6.43693e+06 -3.07471e+07 -6.0361e+06 6.25594e+06 -2.66488e+06
7 1 Mg 6.18956 -6.37941e-06 2.9896 1.2 -5.06138 1.75974e+06 -2.8439e+07 -2.74685e+06 -8.83486e+06 2.4626e+06 4.05668e+06
8 3 O 4.55118 1.31737 2.79288 -1.2 -7.35573 -99824.5 -4.45325e+06 -3.40353e+06 -2.95438e+06 -3.39774e+06 -1.14656e+06
9 1 Mg -1.20682 0.0413099 4.4844 1.2 8.79696 -3.05976e+07 -9.36713e+07 72267.3 -2.84939e+07 -1.22877e+06 219981
10 2 Si -3.0337 2.72544 4.4844 2.4 -33.4093 1.48846e+07 6.3217e+06 8.69501e+06 1.60866e+06 194159 -624743
11 3 O -3.08099 1.11221 4.4844 -1.2 -9.48073 -6.39165e+06 386047 -2.50855e+06 -1.23386e+06 -249911 236872
12 3 O 0.582463 3.69946 4.4844 -1.2 -8.79246 -3.46685e+06 -5.20418e+06 -3.20688e+06 -608871 -173341 -189545
13 3 O -2.29524 3.43162 3.18632 -1.2 -8.88558 -4.51462e+06 -2.23386e+06 -850692 1.08604e+06 -861695 -1.00393e+06
14 3 O -2.34216 3.43162 5.78248 -1.2 -8.72314 -4.16163e+06 -2.82215e+06 -1.94626e+06 760002 497318 1.39569e+06
15 1 Mg 1.12778 2.37449 2.9896 1.2 -7.76818 5.42014e+06 -1.9112e+06 -382346 -3.27662e+06 -4.20273e+06 -2.17524e+06
16 1 Mg 3.92855 2.33318 4.4844 1.2 -8.60044 -3.93013e+06 4.64705e+06 5.08838e+06 1.35444e+06 270814 530067
17 2 Si 2.09341 4.39804 4.4844 2.4 -32.7654 1.24064e+07 6.2734e+06 9.74167e+06 222661 -302391 840231
18 3 O 2.09991 6.01128 4.4844 -1.2 -9.24462 -4.2476e+06 324643 -4.42128e+06 528821 -160069 -270224
19 3 O -4.52137 3.42402 4.4844 -1.2 -9.03373 -3.20328e+06 -2.58246e+06 -3.84068e+06 -2.38021e+06 -853908 18185.1
20 3 O 2.80834 3.69187 3.18632 -1.2 -9.1464 -2.38313e+06 -2.55721e+06 -728130 465396 -455994 -607188
21 1 Mg 1.17857 2.37449 0 1.2 -5.34194 -257787 -1.50984e+07 -6.16758e+06 6.51302e+06 1.20842e+06 4.63026e+06
22 3 O 2.76143 3.69187 5.78248 -1.2 -9.1912 -2.88947e+06 -2.19805e+06 -1.62618e+06 554433 94154.9 -191094
23 1 Mg -1.67381 2.41581 1.4948 1.2 -7.7656 1.85679e+06 -487779 4.33948e+06 1.35812e+06 -566848 1.06405e+06
24 2 Si 0.16286 0.350945 1.4948 2.4 -24.8551 -7.7178e+06 1.1995e+07 1.18432e+07 1.57859e+06 2.83217e+06 1.21625e+06
25 3 O 0.15972 -1.26229 1.4948 -1.2 -4.63963 -1.0881e+07 -7.85199e+06 -2.91188e+07 -5.59833e+06 -8.52376e+06 -2.64062e+06
26 3 O 6.77654 1.32496 1.4948 -1.2 -10.1888 -6.00586e+06 2.0193e+06 -1.63335e+06 -647532 -655332 1.05632e+06
27 3 O -0.508028 1.05712 0.196716 -1.2 -9.3424 -202594 -4.42692e+06 -934145 -542447 185942 -4.53188e+06
28 3 O -0.552171 1.05712 2.79288 -1.2 -6.65326 -5.55327e+06 -4.33706e+06 -2.49331e+07 1.41688e+06 -6.78805e+06 -5.56031e+06
29 1 Mg 6.31713 4.74899 0 1.2 -5.19009 765470 -1.31379e+07 -5.86449e+06 -7.31107e+06 1.42366e+06 -3.45469e+06
30 1 Mg 3.54847 9.45668 1.4948 1.2 -8.60238 708509 1.52094e+06 4.62778e+06 -954287 -941783 -256876
31 2 Si 5.36879 6.77254 1.4948 2.4 -34.8012 8.13626e+06 1.15764e+07 1.19933e+07 1.66445e+06 116503 -1.62748e+06
32 3 O 5.41937 8.38578 1.4948 -1.2 -4.49352 -771426 -717283 -3.54142e+07 758861 1.1144e+06 -4.35159e+06
33 3 O 1.75158 5.79852 1.4948 -1.2 -9.25611 -4.36803e+06 -2.11977e+06 -1.69482e+06 1.96714e+06 -1.58621e+06 -1.50757e+06
34 3 O 4.67421 6.06637 0.196716 -1.2 -3.51101 -270743 -9.91711e+06 -3.1667e+07 -2.00447e+06 1.32e+06 -4.61407e+06
35 1 Mg 6.26654 4.74899 2.9896 1.2 -8.22582 4.48508e+06 -1.94141e+06 205788 1.79203e+06 -847375 2.04574e+06
36 3 O 4.63043 6.06637 2.79288 -1.2 -8.61876 -2.00171e+06 -3.68173e+06 -2.46585e+06 939547 -65713 -1.61557e+06
37 1 Mg -1.12976 4.79031 4.4844 1.2 -8.98514 -294034 2.48347e+06 3.07545e+06 -673418 -354414 -25870.7
38 2 Si -2.9517 7.47444 4.4844 2.4 -33.3465 1.233e+07 8.11527e+06 9.14234e+06 61505.6 -22667.1 129734
39 3 O -3.00198 5.86121 4.4844 -1.2 -9.24339 -4.43348e+06 169816 -3.94016e+06 70756.6 -243256 -77908.3
40 3 O 0.666315 8.44846 4.4844 -1.2 -8.96668 -3.77466e+06 -2.27418e+06 -3.65291e+06 2.18631e+06 -543470 17978.5
41 3 O -2.21213 8.18062 3.18632 -1.2 -8.8284 -3.40038e+06 -3.08635e+06 -906253 1.10155e+06 -333025 -1.53477e+06
42 3 O -2.25864 8.18062 5.78248 -1.2 -8.7074 -3.55464e+06 -3.2353e+06 -2.00796e+06 1.00112e+06 -114188 1.36632e+06
43 1 Mg 1.20893 7.12349 2.9896 1.2 -8.25928 4.49032e+06 -1.91282e+06 204856 -1.29083e+06 -1.31516e+06 -1.55141e+06
44 1 Mg 4.00982 7.08218 4.4844 1.2 -8.93268 -445669 2.12399e+06 3.55317e+06 1.03108e+06 -364681 241318
45 2 Si 2.17861 9.14704 4.4844 2.4 -33.4467 1.20228e+07 8.18749e+06 9.50618e+06 499239 -90292.3 -108815
46 3 O 2.18828 10.7603 4.4844 -1.2 -9.18764 -4.37409e+06 54345.3 -4.09504e+06 483948 -131799 168821
47 3 O -4.43805 8.17302 4.4844 -1.2 -9.03882 -3.87449e+06 -2.19869e+06 -3.47694e+06 -1.56382e+06 -416041 -82568
48 3 O 2.89193 8.44087 3.18632 -1.2 -8.82961 -3.20428e+06 -3.24881e+06 -1.09333e+06 -922882 -198785 1.22656e+06
49 1 Mg 1.25915 7.12349 0 1.2 -5.58208 1.40497e+06 -7.76629e+06 -6.1415e+06 5.89913e+06 1.36929e+06 2.77663e+06
50 3 O 2.84547 8.44087 5.78248 -1.2 -8.62116 -3.26604e+06 -3.30673e+06 -2.51907e+06 -872616 -96568.8 -1.07085e+06
51 1 Mg -1.59284 7.16481 1.4948 1.2 -8.50666 1.24106e+06 1.12415e+06 4.53773e+06 1.45898e+06 -890159 485811
52 2 Si 0.240329 5.09994 1.4948 2.4 -34.5288 9.02013e+06 1.04272e+07 1.18226e+07 -1.95168e+06 -1.02924e+06 2.24094e+06
53 3 O 0.234538 3.48671 1.4948 -1.2 -5.01859 -2.09848e+06 667950 -3.40633e+07 396043 5.17189e+06 3.86175e+06
54 3 O 6.85564 6.07396 1.4948 -1.2 -9.33831 -4.8203e+06 -1.56958e+06 -1.62241e+06 -1.34225e+06 -1.83983e+06 1.00801e+06
55 3 O -0.429565 5.80612 0.196716 -1.2 -3.76516 -1.08951e+06 -8.551e+06 -3.17635e+07 1.84677e+06 1.17245e+06 4.38302e+06
56 3 O -0.473377 5.80612 2.79288 -1.2 -8.70475 -2.50824e+06 -3.27139e+06 -2.33062e+06 -786920 269894 1.173e+06
57 1 Mg 6.40169 9.49799 0 1.2 -5.54978 2.00254e+06 -6.58435e+06 -6.46179e+06 -5.48319e+06 1.0085e+06 -2.33642e+06
58 1 Mg 3.64209 14.2057 1.4948 1.2 -8.65939 644104 1.68815e+06 4.57543e+06 -1.03032e+06 -966081 -306334
59 2 Si 5.45748 11.5215 1.4948 2.4 -34.8038 8.46933e+06 1.13735e+07 1.18433e+07 926496 368762 -2.14402e+06
60 3 O 5.51101 13.1348 1.4948 -1.2 -4.52941 -960562 -743964 -3.49611e+07 454381 -2.55672e+06 -4.32358e+06
61 3 O 1.83851 10.5475 1.4948 -1.2 -9.30239 -4.65085e+06 -1.68341e+06 -1.50245e+06 1.54979e+06 -1.56382e+06 -1.10476e+06
62 3 O 4.7611 10.8154 0.196716 -1.2 -3.34989 121201 -1.13268e+07 -3.21297e+07 -2.47526e+06 -1.76438e+06 -4.34864e+06
63 1 Mg 6.35203 9.49799 2.9896 1.2 -8.2406 4.58024e+06 -1.88559e+06 76261 1.34017e+06 -1.18062e+06 2.02877e+06
64 3 O 4.71833 10.8154 2.79288 -1.2 -8.60866 -2.29596e+06 -3.55175e+06 -2.32675e+06 1.0209e+06 29140.5 -1.27531e+06
65 1 Mg -1.0438 9.53931 4.4844 1.2 -8.97511 -409435 2.19991e+06 3.42186e+06 -609661 -224768 -35879.9
66 2 Si -2.8604 12.2234 4.4844 2.4 -33.4126 1.21399e+07 8.52e+06 9.03472e+06 -31486.6 60901 -71649.1
67 3 O -2.91391 10.6102 4.4844 -1.2 -9.19284 -4.40801e+06 80407.9 -3.95868e+06 194177 -233639 -3194.4
68 3 O 0.7596 13.1975 4.4844 -1.2 -8.9957 -3.71717e+06 -2.58138e+06 -3.37305e+06 2.17164e+06 -385438 128271
69 3 O -2.12001 12.9296 3.18632 -1.2 -8.80194 -3.27324e+06 -3.31541e+06 -854120 1.16131e+06 -248930 -1.46903e+06
70 3 O -2.16532 12.9296 5.78248 -1.2 -8.64921 -3.31284e+06 -3.53839e+06 -2.05035e+06 1.14555e+06 -140095 1.45775e+06
71 1 Mg 1.29891 11.8725 2.9896 1.2 -8.26488 4.59179e+06 -1.72626e+06 -77508.6 -1.20254e+06 -1.26362e+06 -1.7591e+06
72 1 Mg 4.10033 11.8312 4.4844 1.2 -8.91682 -241483 2.32988e+06 3.11905e+06 1.17513e+06 -279791 -60386.4
73 2 Si 2.27333 13.896 4.4844 2.4 -33.3024 1.22159e+07 8.70455e+06 8.55543e+06 659323 -221689 -82273.7
74 3 O 2.28634 15.5093 4.4844 -1.2 -9.24113 -4.43103e+06 -102821 -3.8069e+06 482864 -88861.3 19820.3
75 3 O -4.34533 12.922 4.4844 -1.2 -9.04558 -3.87573e+06 -2.42493e+06 -3.24174e+06 -1.50124e+06 -552359 1606.76
76 3 O 2.98455 13.1899 3.18632 -1.2 -8.84994 -3.3262e+06 -3.42818e+06 -785867 -960153 -134332 1.36285e+06
77 1 Mg 1.34779 11.8725 0 1.2 -5.79674 3.2462e+06 -2.94811e+06 -6.55862e+06 3.54959e+06 797478 1.60985e+06
78 3 O 2.93934 13.1899 5.78248 -1.2 -8.82155 -3.43837e+06 -3.64464e+06 -1.56923e+06 -934096 -142070 -1.14535e+06
79 1 Mg -1.50344 11.9138 1.4948 1.2 -8.6132 925337 1.56651e+06 4.56552e+06 1.55763e+06 -939370 405888
80 2 Si 0.326006 9.84894 1.4948 2.4 -34.7803 8.46563e+06 1.13298e+07 1.18254e+07 -633426 111844 2.37723e+06
81 3 O 0.317364 8.23571 1.4948 -1.2 -4.49344 -877186 -587302 -3.55679e+07 -116932 1.16601e+06 4.07024e+06
82 3 O 6.94307 10.823 1.4948 -1.2 -9.34165 -4.80245e+06 -1.51339e+06 -1.41673e+06 -995173 -1.54653e+06 1.0218e+06
83 3 O -0.343122 10.5551 0.196716 -1.2 -3.44654 -157415 -1.07904e+07 -3.21978e+07 2.468e+06 -2.04776e+06 4.4489e+06
84 3 O -0.385966 10.5551 2.79288 -1.2 -8.63001 -2.29185e+06 -3.60157e+06 -2.39118e+06 -830616 83718.7 1.12678e+06
85 1 Mg 6.49448 14.247 0 1.2 -5.76873 3.72909e+06 -2.11652e+06 -6.73303e+06 -2.955e+06 246766 -1.51834e+06
86 1 Mg 3.74457 18.9547 1.4948 1.2 -8.74909 473458 1.8235e+06 4.67725e+06 -1.117e+06 -970442 -162867
87 2 Si 5.55495 16.2705 1.4948 2.4 -34.7888 8.74884e+06 1.12334e+07 1.16984e+07 540680 834665 -2.20396e+06
88 3 O 5.6115 17.8838 1.4948 -1.2 -4.83729 -1.99581e+06 -683919 -3.22618e+07 75312.2 -6.0773e+06 -4.22043e+06
89 3 O 1.93416 15.2965 1.4948 -1.2 -9.34045 -4.74982e+06 -1.46295e+06 -1.3136e+06 1.54146e+06 -1.35813e+06 -1.04954e+06
90 3 O 4.85636 15.5644 0.196716 -1.2 -3.36178 91614.7 -1.30801e+07 -3.04949e+07 -3.04124e+06 -5.12711e+06 -3.75716e+06
91 1 Mg 6.44662 14.247 2.9896 1.2 -8.22857 4.61828e+06 -1.72549e+06 -142106 1.3013e+06 -1.14582e+06 1.98385e+06
92 3 O 4.81537 15.5644 2.79288 -1.2 -8.60522 -2.29988e+06 -3.70041e+06 -2.21158e+06 1.05986e+06 -57551.4 -1.2951e+06
93 1 Mg -0.948271 14.2883 4.4844 1.2 -8.96515 -599860 2.48636e+06 3.30062e+06 -563539 -299546 -86188.7
94 2 Si -2.75928 16.9724 4.4844 2.4 -33.4051 1.19939e+07 8.85924e+06 8.8269e+06 18200.1 38508.7 228505
95 3 O -2.81617 15.3592 4.4844 -1.2 -9.19966 -4.27233e+06 -164197 -3.84373e+06 267677 -217121 -20139.1
96 3 O 0.862762 17.9465 4.4844 -1.2 -8.98911 -3.74071e+06 -2.61616e+06 -3.33048e+06 2.1847e+06 -348237 -85384
97 3 O -2.0185 17.6786 3.18632 -1.2 -8.78102 -3.23602e+06 -3.39599e+06 -865464 1.15881e+06 -168391 -1.60986e+06
98 3 O -2.06164 17.6786 5.78248 -1.2 -8.65255 -3.20229e+06 -3.69708e+06 -1.92875e+06 1.11466e+06 -102733 1.12741e+06
99 1 Mg 1.39817 16.6215 2.9896 1.2 -8.24688 4.69496e+06 -1.63777e+06 -300121 -1.17667e+06 -1.28845e+06 -1.61047e+06
100 1 Mg 4.20062 16.5802 4.4844 1.2 -8.89322 -219292 2.42143e+06 2.97016e+06 1.15274e+06 -224687 89490.6
101 2 Si 2.37796 18.645 4.4844 2.4 -33.3309 1.23463e+07 8.63391e+06 8.54063e+06 692581 -316132 319448
102 3 O 2.39434 20.2583 4.4844 -1.2 -9.19007 -4.52712e+06 21241.9 -3.91343e+06 473541 -48513.6 -110231
103 3 O -4.24274 17.671 4.4844 -1.2 -9.0468 -3.88884e+06 -2.5017e+06 -3.15634e+06 -1.45129e+06 -591575 -157398
104 3 O 3.08659 17.9389 3.18632 -1.2 -8.84001 -3.36622e+06 -3.46713e+06 -762417 -936790 -43784 1.2064e+06
105 1 Mg 1.44478 16.6215 0 1.2 -5.91803 4.9343e+06 55435.5 -6.61324e+06 1.39368e+06 -46434.5 933001
106 3 O 3.0436 17.9389 5.78248 -1.2 -8.84368 -3.47635e+06 -3.63269e+06 -1.51186e+06 -860753 -64842.1 -1.41181e+06
107 1 Mg -1.40524 16.6628 1.4948 1.2 -8.69681 725906 1.78024e+06 4.63758e+06 1.68832e+06 -971298 417419
108 2 Si 0.420358 14.5979 1.4948 2.4 -34.7923 8.5574e+06 1.14142e+07 1.16525e+07 -154182 524195 2.48213e+06
109 3 O 0.408732 12.9847 1.4948 -1.2 -4.51402 -960072 -733390 -3.51313e+07 238840 -2.54346e+06 4.27441e+06
110 3 O 7.03923 15.572 1.4948 -1.2 -9.37206 -4.84067e+06 -1.31792e+06 -1.28443e+06 -951436 -1.32215e+06 996100
111 3 O -0.248332 15.3041 0.196716 -1.2 -3.45696 -182009 -1.26133e+07 -3.05885e+07 3.26315e+06 -5.41456e+06 3.98352e+06
112 3 O -0.289436 15.3041 2.79288 -1.2 -8.6228 -2.21227e+06 -3.82638e+06 -2.30272e+06 -845371 72461 1.0705e+06
113 1 Mg 6.59566 18.996 0 1.2 -5.90665 5.12934e+06 482977 -6.46859e+06 -917352 -679867 -820748
114 1 Mg 3.85574 23.7037 1.4948 1.2 -8.8571 216031 1.97236e+06 4.81907e+06 -1.18671e+06 -907486 -152431
115 2 Si 5.66125 21.0195 1.4948 2.4 -34.7546 9.25893e+06 1.07409e+07 1.16879e+07 169613 1.26558e+06 -2.1287e+06
116 3 O 5.72074 22.6328 1.4948 -1.2 -5.41509 -3.70279e+06 -533089 -2.74385e+07 -207707 -8.52696e+06 -3.76009e+06
117 3 O 2.03867 20.0455 1.4948 -1.2 -9.34953 -4.8014e+06 -1.16917e+06 -1.33853e+06 1.56633e+06 -1.12792e+06 -1.08449e+06
118 3 O 4.96004 20.3134 0.196716 -1.2 -3.67435 -647270 -1.44782e+07 -2.66709e+07 -3.17986e+06 -7.94086e+06 -2.84549e+06
119 1 Mg 6.55057 18.996 2.9896 1.2 -8.23652 4.72847e+06 -1.74844e+06 -216108 1.30174e+06 -1.13621e+06 2.10134e+06
120 3 O 4.92172 20.3134 2.79288 -1.2 -8.56624 -2.34881e+06 -3.67536e+06 -2.28642e+06 1.08557e+06 -125031 -1.37647e+06
121 1 Mg -0.84282 19.0373 4.4844 1.2 -9.01129 -611034 2.43189e+06 3.43287e+06 -525752 -306058 122099
122 2 Si -2.64823 21.7214 4.4844 2.4 -33.5486 1.22107e+07 8.55067e+06 9.15648e+06 -85776 23143.3 156999
123 3 O -2.70847 20.1082 4.4844 -1.2 -9.14121 -4.32481e+06 -46851.4 -3.98531e+06 332351 -238336 -130876
124 3 O 0.97581 22.6955 4.4844 -1.2 -8.92767 -3.92383e+06 -2.49556e+06 -3.36113e+06 2.15224e+06 -373160 36054.3
125 3 O -1.9076 22.4276 3.18632 -1.2 -8.72733 -3.29694e+06 -3.31762e+06 -1.00287e+06 1.18266e+06 -66046.2 -1.55534e+06
126 3 O -1.9475 22.4276 5.78248 -1.2 -8.54744 -3.32808e+06 -3.5078e+06 -2.16551e+06 1.23397e+06 -58063.8 1.39892e+06
127 1 Mg 1.50678 21.3705 2.9896 1.2 -8.27446 4.85717e+06 -1.73806e+06 -317837 -1.14116e+06 -1.31307e+06 -1.54679e+06
128 1 Mg 4.31086 21.3292 4.4844 1.2 -8.96114 -130941 2.29218e+06 3.12115e+06 1.18006e+06 -217979 183476
129 2 Si 2.49243 23.394 4.4844 2.4 -33.4819 1.25205e+07 8.50645e+06 8.73854e+06 846053 -141146 114597
130 3 O 2.51204 25.0073 4.4844 -1.2 -9.12599 -4.56207e+06 17143.2 -3.97539e+06 488476 -158476 -5773.21
131 3 O -4.13026 22.42 4.4844 -1.2 -8.97783 -4.00902e+06 -2.37831e+06 -3.26069e+06 -1.34553e+06 -541703 -135572
132 3 O 3.19799 22.6879 3.18632 -1.2 -8.7814 -3.39595e+06 -3.40993e+06 -938505 -940112 20200.6 1.21402e+06
133 1 Mg 1.5501 21.3705 0 1.2 -5.99059 5.83326e+06 1.58121e+06 -6.14369e+06 -61631.4 -971134 528660
134 3 O 3.1583 22.6879 5.78248 -1.2 -8.69824 -3.527e+06 -3.51533e+06 -1.84632e+06 -979023 -147570 -1.27884e+06
135 1 Mg -1.29822 21.4118 1.4948 1.2 -8.80059 527048 1.90326e+06 4.77524e+06 1.80433e+06 -948638 373839
136 2 Si 0.523568 19.3469 1.4948 2.4 -34.778 8.94522e+06 1.10362e+07 1.1648e+07 311307 944436 2.78684e+06
137 3 O 0.508934 17.7337 1.4948 -1.2 -4.8232 -1.99633e+06 -682076 -3.24204e+07 671489 -6.05929e+06 3.99344e+06
138 3 O 7.14425 20.321 1.4948 -1.2 -9.38058 -4.88381e+06 -1.03278e+06 -1.32153e+06 -931955 -1.09171e+06 906982
139 3 O -0.145107 20.0531 0.196716 -1.2 -3.77118 -967450 -1.41552e+07 -2.67219e+07 3.67634e+06 -8.19969e+06 2.97662e+06
140 3 O -0.183601 20.0531 2.79288 -1.2 -8.58432 -2.24825e+06 -3.80128e+06 -2.40036e+06 -845859 29337.3 942875
141 1 Mg 6.70502 23.745 0 1.2 -6.01363 5.66035e+06 1.77073e+06 -5.73218e+06 407789 -1.50202e+06 -536973
142 1 Mg 3.97493 28.4527 1.4948 1.2 -8.94163 -122194 2.18768e+06 4.84474e+06 -1.2277e+06 -768159 -186904
143 2 Si 5.77602 25.7685 1.4948 2.4 -34.6561 9.91502e+06 1.01489e+07 1.15535e+07 -126660 1.54858e+06 -2.30223e+06
144 3 O 5.83821 27.3818 1.4948 -1.2 -6.20559 -5.44378e+06 -404139 -2.13246e+07 -339733 -9.29593e+06 -3.03004e+06
145 3 O 2.15175 24.7945 1.4948 -1.2 -9.34485 -4.79706e+06 -952208 -1.43291e+06 1.60689e+06 -927531 -948441
146 3 O 5.07184 25.0624 0.196716 -1.2 -4.28885 -1.92308e+06 -1.51333e+07 -2.11339e+07 -2.781e+06 -9.42771e+06 -1.47204e+06
147 1 Mg 6.66374 23.745 2.9896 1.2 -8.26062 4.86402e+06 -1.8135e+06 -245025 1.28556e+06 -1.21583e+06 2.00653e+06
148 3 O 5.03707 25.0624 2.79288 -1.2 -8.52549 -2.37178e+06 -3.6654e+06 -2.37695e+06 1.10223e+06 -173740 -1.25026e+06
149 1 Mg -0.727559 23.7863 4.4844 1.2 -9.05165 -469357 2.37586e+06 3.40435e+06 -496834 -313014 -63626.7
150 2 Si -2.5277 26.4704 4.4844 2.4 -33.5681 1.23376e+07 8.6289e+06 8.98489e+06 19501.7 -245628 -63725.2
151 3 O -2.59107 24.8572 4.4844 -1.2 -9.10614 -4.4206e+06 -37906.4 -3.94414e+06 397272 -91010.8 15098.9
152 3 O 1.09817 27.4445 4.4844 -1.2 -8.93202 -3.99174e+06 -2.55846e+06 -3.23203e+06 2.2636e+06 -432730 101010
153 3 O -1.78784 27.1766 3.18632 -1.2 -8.71317 -3.30642e+06 -3.36336e+06 -1.03005e+06 1.15867e+06 53186.2 -1.45984e+06
154 3 O -1.82343 27.1766 5.78248 -1.2 -8.58756 -3.39394e+06 -3.59685e+06 -1.86993e+06 1.14458e+06 108321 1.41877e+06
155 1 Mg 1.62435 26.1195 2.9896 1.2 -8.28071 4.97709e+06 -1.73942e+06 -423273 -1.14372e+06 -1.30166e+06 -1.63076e+06
156 1 Mg 4.43064 26.0782 4.4844 1.2 -9.03095 -178726 2.29888e+06 3.27626e+06 1.20174e+06 -194148 30835.6
157 2 Si 2.61607 28.143 4.4844 2.4 -33.4853 1.24596e+07 8.65019e+06 8.663e+06 674793 -62852.4 -205498
158 3 O 2.63853 29.7563 4.4844 -1.2 -9.17057 -4.51167e+06 -117279 -3.83201e+06 621509 -78630.4 86306.9
159 3 O -4.00841 27.169 4.4844 -1.2 -8.95643 -4.01516e+06 -2.41546e+06 -3.2572e+06 -1.37566e+06 -424124 -41.2576
160 3 O 3.3182 27.4369 3.18632 -1.2 -8.75568 -3.34337e+06 -3.45921e+06 -1.05851e+06 -894678 75610.3 1.34561e+06
161 1 Mg 1.66335 26.1195 0 1.2 -6.08356 5.69629e+06 2.18594e+06 -5.24327e+06 -894016 -1.56419e+06 230265
162 3 O 3.28288 27.4369 5.78248 -1.2 -8.62033 -3.45545e+06 -3.59672e+06 -1.99018e+06 -899003 -181135 -999112
163 1 Mg -1.18278 26.1608 1.4948 1.2 -8.89534 261592 2.08593e+06 4.81764e+06 1.8867e+06 -853201 176617
164 2 Si 0.635424 24.0959 1.4948 2.4 -34.7109 9.57241e+06 1.04945e+07 1.15225e+07 765526 1.34116e+06 2.62294e+06
165 3 O 0.617906 22.4827 1.4948 -1.2 -5.40511 -3.7326e+06 -525932 -2.75667e+07 1.00268e+06 -8.5187e+06 3.5741e+06
166 3 O 7.25781 25.07 1.4948 -1.2 -9.38047 -4.88973e+06 -829055 -1.39947e+06 -927306 -832069 1.01058e+06
167 3 O -0.0337363 24.8021 0.196716 -1.2 -4.376 -2.23543e+06 -1.51026e+07 -2.11245e+07 3.49922e+06 -9.63677e+06 1.82488e+06
168 3 O -0.0687235 24.8021 2.79288 -1.2 -8.56221 -2.35325e+06 -3.81162e+06 -2.372e+06 -844537 -44756.7 1.02348e+06
169 1 Mg 6.82195 28.494 0 1.2 -6.14426 5.21828e+06 2.23605e+06 -4.66664e+06 1.15354e+06 -1.84201e+06 -543548
170 1 Mg 4.10106 33.2017 1.4948 1.2 -8.98642 -491545 2.40918e+06 4.72389e+06 -1.20966e+06 -545418 -78624.8
171 2 Si 5.89839 30.5175 1.4948 2.4 -34.4473 1.06266e+07 9.56663e+06 1.11726e+07 -316107 1.70807e+06 -2.23387e+06
172 3 O 5.96289 32.1308 1.4948 -1.2 -7.08192 -6.57144e+06 -331260 -1.52111e+07 -297001 -8.47408e+06 -2.42619e+06
173 3 O 2.27266 29.5435 1.4948 -1.2 -9.35201 -4.72124e+06 -870058 -1.53184e+06 1.66774e+06 -707784 -858514
174 3 O 5.19102 29.8114 0.196716 -1.2 -5.12949 -3.28572e+06 -1.46875e+07 -1.50679e+07 -1.93664e+06 -9.28308e+06 -85468.1
175 1 Mg 6.78546 28.494 2.9896 1.2 -8.2387 4.92117e+06 -1.7785e+06 -366898 1.33196e+06 -1.29551e+06 1.88549e+06
176 3 O 5.16061 29.8114 2.79288 -1.2 -8.55114 -2.39813e+06 -3.74002e+06 -2.27602e+06 1.10543e+06 -245082 -1.13769e+06
177 1 Mg -0.603205 28.5353 4.4844 1.2 -9.0261 -492088 2.44692e+06 3.30724e+06 -463631 -280220 -44073.8
178 2 Si -2.39877 31.2194 4.4844 2.4 -33.4616 1.20978e+07 8.8565e+06 8.8271e+06 200369 -68887.7 -33380.6
179 3 O -2.46483 29.6062 4.4844 -1.2 -9.13987 -4.35405e+06 -122317 -3.87713e+06 324057 -78347.5 54778.2
180 3 O 1.22864 32.1935 4.4844 -1.2 -8.97162 -3.8302e+06 -2.68264e+06 -3.22366e+06 2.30271e+06 -271417 -32952.3
181 3 O -1.66032 31.9256 3.18632 -1.2 -8.72776 -3.16846e+06 -3.4652e+06 -1.12438e+06 1.13056e+06 66865.3 -1.49978e+06
182 3 O -1.69072 31.9256 5.78248 -1.2 -8.64777 -3.13038e+06 -3.71838e+06 -1.83155e+06 1.05386e+06 -6767.73 1.35675e+06
183 1 Mg 1.7499 30.8685 2.9896 1.2 -8.23884 4.97405e+06 -1.64388e+06 -576317 -1.16346e+06 -1.42426e+06 -1.59634e+06
184 1 Mg 4.55894 30.8272 4.4844 1.2 -8.95249 -213895 2.45078e+06 3.0341e+06 1.19701e+06 -145721 -55544.9
185 2 Si 2.7476 32.892 4.4844 2.4 -33.3627 1.23228e+07 8.76251e+06 8.48724e+06 647601 -392923 106259
186 3 O 2.77235 34.5053 4.4844 -1.2 -9.19891 -4.49899e+06 -35012.8 -3.88555e+06 608224 101226 -14849.4
187 3 O -3.87837 31.918 4.4844 -1.2 -9.04125 -4.00407e+06 -2.53864e+06 -3.02149e+06 -1.37635e+06 -475728 -15061
188 3 O 3.44611 32.1859 3.18632 -1.2 -8.78785 -3.27079e+06 -3.57297e+06 -1.06268e+06 -852691 206526 1.27793e+06
189 1 Mg 1.7837 30.8685 0 1.2 -6.20007 4.72924e+06 2.3307e+06 -4.29499e+06 -1.35326e+06 -1.53272e+06 316128
190 3 O 3.41602 32.1859 5.78248 -1.2 -8.79379 -3.38518e+06 -3.7168e+06 -1.49982e+06 -777632 -1638.97 -1.25371e+06
191 1 Mg -1.05984 30.9098 1.4948 1.2 -8.95913 -124454 2.31653e+06 4.77352e+06 1.9138e+06 -632333 98169.4
192 2 Si 0.755243 28.8449 1.4948 2.4 -34.5498 1.02521e+07 9.91962e+06 1.12443e+07 1.12631e+06 1.58229e+06 2.37986e+06
193 3 O 0.735127 27.2317 1.4948 -1.2 -6.19962 -5.50109e+06 -399820 -2.14184e+07 1.17557e+06 -9.3152e+06 3.08009e+06
194 3 O 7.37914 29.819 1.4948 -1.2 -9.39032 -4.81356e+06 -754196 -1.50246e+06 -943272 -622200 1.07071e+06
195 3 O 0.0850649 29.5511 0.196716 -1.2 -5.1899 -3.51014e+06 -1.50448e+07 -1.50355e+07 2.70222e+06 -9.43848e+06 529543
196 3 O 0.0543974 29.5511 2.79288 -1.2 -8.58419 -2.36068e+06 -3.89006e+06 -2.30456e+06 -832558 -101836 1.01075e+06
197 1 Mg 6.94543 33.243 0 1.2 -6.27084 4.11275e+06 2.32205e+06 -3.77073e+06 1.58846e+06 -1.43399e+06 -732938
198 1 Mg 4.23267 37.9507 1.4948 1.2 -9.00267 -825699 2.55055e+06 4.52823e+06 -1.1229e+06 -211429 -81869.7
199 2 Si 6.02709 35.2665 1.4948 2.4 -34.193 1.13083e+07 8.84845e+06 1.08518e+07 -398483 1.67262e+06 -1.94128e+06
200 3 O 6.09339 36.8798 1.4948 -1.2 -7.875 -6.80674e+06 -219624 -1.03102e+07 -144357 -6.65163e+06 -1.89933e+06
201 3 O 2.40018 34.2925 1.4948 -1.2 -9.35773 -4.60011e+06 -847637 -1.71847e+06 1.70404e+06 -482039 -883637
202 3 O 5.31645 34.5604 0.196716 -1.2 -6.07435 -4.28228e+06 -1.30959e+07 -9.71292e+06 -951313 -7.84678e+06 1.02658e+06
203 1 Mg 6.91449 33.243 2.9896 1.2 -8.18844 4.93876e+06 -1.72481e+06 -510412 1.33272e+06 -1.31331e+06 1.94357e+06
204 3 O 5.291 34.5604 2.79288 -1.2 -8.59543 -2.48579e+06 -3.71714e+06 -2.17665e+06 1.11252e+06 -310140 -1.20538e+06
205 1 Mg -0.471101 33.2843 4.4844 1.2 -9.01356 -699644 2.50769e+06 3.42768e+06 -427577 -175368 95848
206 2 Si -2.26307 35.9684 4.4844 2.4 -33.4847 1.20196e+07 8.68511e+06 9.11829e+06 96718.9 86736 120660
207 3 O -2.33122 34.3552 4.4844 -1.2 -9.16308 -4.28598e+06 -133933 -3.89456e+06 381179 -179156 -71700.3
208 3 O 1.36549 36.9425 4.4844 -1.2 -8.97418 -3.84025e+06 -2.58999e+06 -3.30066e+06 2.28793e+06 -119204 90838.8
209 3 O -1.52658 36.6746 3.18632 -1.2 -8.71749 -3.04744e+06 -3.42661e+06 -1.39451e+06 1.15878e+06 95690.2 -1.46845e+06
210 3 O -1.55122 36.6746 5.78248 -1.2 -8.55831 -3.10447e+06 -3.59268e+06 -2.08211e+06 1.24914e+06 -70403.9 1.32658e+06
211 1 Mg 1.882 35.6175 2.9896 1.2 -8.21259 4.97219e+06 -1.68871e+06 -561542 -1.12862e+06 -1.57455e+06 -1.5628e+06
212 1 Mg 4.69415 35.5762 4.4844 1.2 -8.92483 -135744 2.32289e+06 3.04121e+06 1.26068e+06 -99285.6 43567.8
213 2 Si 2.88522 37.641 4.4844 2.4 -33.3219 1.23752e+07 8.62222e+06 8.51475e+06 790941 -427954 -106548
214 3 O 2.91159 39.2543 4.4844 -1.2 -9.24469 -4.43916e+06 -83593.9 -3.82253e+06 574444 99596.7 89008.2
215 3 O -3.74183 36.667 4.4844 -1.2 -9.04122 -4.05096e+06 -2.40662e+06 -3.10948e+06 -1.34656e+06 -489481 -57661.8
216 3 O 3.58014 36.9349 3.18632 -1.2 -8.79628 -3.22261e+06 -3.5364e+06 -1.23747e+06 -864777 263746 1.28278e+06
217 1 Mg 1.90997 35.6175 0 1.2 -6.30523 3.4465e+06 2.22848e+06 -3.72025e+06 -1.66346e+06 -784249 746097
218 3 O 3.55582 36.9349 5.78248 -1.2 -8.79079 -3.53565e+06 -3.5122e+06 -1.60039e+06 -897017 -19135 -1.21468e+06
219 1 Mg -0.93068 35.6588 1.4948 1.2 -8.99634 -512136 2.4658e+06 4.67944e+06 1.85661e+06 -320904 49462
220 2 Si 0.881882 33.5939 1.4948 2.4 -34.3198 1.08701e+07 9.26482e+06 1.09836e+07 1.3938e+06 1.57324e+06 2.24866e+06
221 3 O 0.859602 31.9807 1.4948 -1.2 -7.07111 -6.60348e+06 -325411 -1.53455e+07 1.16674e+06 -8.45349e+06 2.44826e+06
222 3 O 7.507 34.568 1.4948 -1.2 -9.39611 -4.69012e+06 -744945 -1.69277e+06 -941825 -458401 1.04964e+06
223 3 O 0.210186 34.3001 0.196716 -1.2 -6.10073 -4.37918e+06 -1.3821e+07 -9.69688e+06 1.53218e+06 -7.93332e+06 -645320
224 3 O 0.184454 34.3001 2.79288 -1.2 -8.61133 -2.34464e+06 -3.88094e+06 -2.3333e+06 -834067 -139215 916781
225 1 Mg 7.07415 37.992 0 1.2 -6.36733 2.91566e+06 2.1757e+06 -3.42194e+06 1.87646e+06 -405472 -1.34723e+06
226 1 Mg 4.36817 42.6997 1.4948 1.2 -8.96976 -1.10111e+06 2.75409e+06 4.16548e+06 -995857 143086 -8128.06
227 2 Si 6.16058 40.0155 1.4948 2.4 -33.9209 1.17641e+07 8.25475e+06 1.05611e+07 -383512 1.40752e+06 -1.80599e+06
228 3 O 6.22815 41.6288 1.4948 -1.2 -8.51666 -6.26524e+06 -247157 -6.88734e+06 43704.1 -4.55961e+06 -1.52775e+06
229 3 O 2.53282 39.0415 1.4948 -1.2 -9.35549 -4.45388e+06 -922779 -1.95333e+06 1.71339e+06 -318011 -823230
230 3 O 5.44674 39.3094 0.196716 -1.2 -6.97097 -4.71413e+06 -1.06899e+07 -5.81069e+06 -144442 -5.79676e+06 1.9076e+06
231 1 Mg 7.04922 37.992 2.9896 1.2 -8.1609 4.91083e+06 -1.75553e+06 -484977 1.299e+06 -1.38215e+06 1.8641e+06
232 3 O 5.42658 39.3094 2.79288 -1.2 -8.64815 -2.53504e+06 -3.70763e+06 -2.08356e+06 1.13594e+06 -362427 -1.11382e+06
233 1 Mg -0.333062 38.0333 4.4844 1.2 -9.01492 -764259 2.45285e+06 3.54574e+06 -442175 -208244 -69121.5
234 2 Si -2.12255 40.7174 4.4844 2.4 -33.3591 1.16618e+07 8.99951e+06 8.96339e+06 22372 6681.47 -244295
235 3 O -2.19212 39.1042 4.4844 -1.2 -9.17387 -4.15375e+06 -144740 -3.99518e+06 446805 -137712 121121
236 3 O 1.50676 41.6915 4.4844 -1.2 -9.07646 -3.76808e+06 -2.76066e+06 -3.04169e+06 2.24457e+06 -125613 154577
237 3 O -1.3884 41.4236 3.18632 -1.2 -8.76566 -2.89183e+06 -3.58508e+06 -1.42011e+06 1.16302e+06 143269 -1.37303e+06
238 3 O -1.40713 41.4236 5.78248 -1.2 -8.69174 -2.84823e+06 -3.81226e+06 -1.8153e+06 1.28274e+06 83919.9 1.55826e+06
239 1 Mg 2.01892 40.3665 2.9896 1.2 -8.15541 4.91495e+06 -1.59419e+06 -677237 -1.07503e+06 -1.66031e+06 -1.62598e+06
240 1 Mg 4.83434 40.3252 4.4844 1.2 -8.86508 -232001 2.44075e+06 2.92273e+06 1.2362e+06 -42389.1 -59260.7
241 2 Si 3.02698 42.39 4.4844 2.4 -33.1544 1.19298e+07 9.09709e+06 8.21973e+06 876704 -276746 -103290
242 3 O 3.05433 44.0033 4.4844 -1.2 -9.3174 -4.22645e+06 -324077 -3.67622e+06 561522 13275.7 -75107.5
243 3 O -3.60077 41.416 4.4844 -1.2 -9.11978 -3.89703e+06 -2.61998e+06 -2.93048e+06 -1.26842e+06 -409522 34440.1
244 3 O 3.71851 41.6839 3.18632 -1.2 -8.83989 -3.03198e+06 -3.71016e+06 -1.29571e+06 -860975 249512 1.26872e+06
245 1 Mg 2.04077 40.3665 0 1.2 -6.36955 2.40491e+06 2.03218e+06 -3.80043e+06 -1.82932e+06 429848 1.47934e+06
246 3 O 3.70011 41.6839 5.78248 -1.2 -8.87285 -3.18429e+06 -3.74478e+06 -1.55424e+06 -948159 60215.4 -1.0984e+06
247 1 Mg -0.796865 40.4078 1.4948 1.2 -8.98083 -801729 2.63109e+06 4.38723e+06 1.74766e+06 18914 -38206.1
248 2 Si 1.01387 38.3429 1.4948 2.4 -34.0618 1.14209e+07 8.55388e+06 1.07658e+07 1.53472e+06 1.37044e+06 1.82706e+06
249 3 O 0.989947 36.7297 1.4948 -1.2 -7.86166 -6.8222e+06 -217055 -1.04699e+07 1.04063e+06 -6.59046e+06 1.98784e+06
250 3 O 7.63988 39.317 1.4948 -1.2 -9.39271 -4.52617e+06 -836870 -1.94389e+06 -925261 -285531 1.15348e+06
251 3 O 0.340253 39.0491 0.196716 -1.2 -6.96783 -4.7235e+06 -1.16056e+07 -5.84499e+06 382701 -5.83432e+06 -1.42735e+06
252 3 O 0.319795 39.0491 2.79288 -1.2 -8.66371 -2.39714e+06 -3.86578e+06 -2.24996e+06 -857308 -134743 1.00509e+06
253 1 Mg 7.20667 42.741 0 1.2 -6.40166 2.04338e+06 2.03099e+06 -3.81367e+06 1.97484e+06 922505 -2.13893e+06
254 1 Mg 4.50613 47.4487 1.4948 1.2 -8.92114 -1.18788e+06 2.84603e+06 3.8792e+06 -858252 438099 93655.9
255 2 Si 6.29731 44.7645 1.4948 2.4 -33.6752 1.19544e+07 7.84682e+06 1.03619e+07 -264091 973080 -1.36137e+06
256 3 O 6.36567 46.3778 1.4948 -1.2 -8.95832 -5.39614e+06 -261234 -4.93314e+06 193755 -2.72622e+06 -1.39082e+06
257 3 O 2.669 43.7905 1.4948 -1.2 -9.34685 -4.25399e+06 -1.18721e+06 -2.17259e+06 1.70707e+06 -192665 -933203
258 3 O 5.58048 44.0584 0.196716 -1.2 -7.71823 -4.55824e+06 -8.11123e+06 -3.38327e+06 329002 -3.74729e+06 2.37852e+06
259 1 Mg 7.1879 42.741 2.9896 1.2 -8.09493 4.78587e+06 -1.57191e+06 -636004 1.25595e+06 -1.52518e+06 1.8886e+06
260 3 O 5.56564 44.0584 2.79288 -1.2 -8.71741 -2.52264e+06 -3.78925e+06 -1.92737e+06 1.1538e+06 -337944 -1.22729e+06
261 1 Mg -0.19105 42.7823 4.4844 1.2 -8.88855 -824902 2.67065e+06 3.18187e+06 -409512 -178899 -83306.6
262 2 Si -1.97909 45.4664 4.4844 2.4 -33.2368 1.1605e+07 9.13255e+06 8.69641e+06 103110 -193722 204157
263 3 O -2.04947 43.8532 4.4844 -1.2 -9.27244 -4.0197e+06 -370492 -3.74562e+06 479254 -3114.65 11454.2
264 3 O 1.65063 46.4405 4.4844 -1.2 -9.09284 -3.78141e+06 -2.73933e+06 -3.01902e+06 2.28238e+06 -146010 -117155
265 3 O -1.24745 46.1726 3.18632 -1.2 -8.79077 -2.84233e+06 -3.61174e+06 -1.5033e+06 1.13164e+06 127540 -1.5194e+06
266 3 O -1.26044 46.1726 5.78248 -1.2 -8.75261 -2.96267e+06 -3.72705e+06 -1.67895e+06 1.12978e+06 153652 1.23162e+06
267 1 Mg 2.15896 45.1155 2.9896 1.2 -8.11114 4.81612e+06 -1.47285e+06 -754956 -1.05404e+06 -1.70656e+06 -1.44999e+06
268 1 Mg 4.97763 45.0742 4.4844 1.2 -8.83503 -432045 2.55943e+06 2.95676e+06 1.22099e+06 -2272.44 174684