ITEM: TIMESTEP
71300
ITEM: NUMBER OF ATOMS
10500
ITEM: BOX BOUNDS xy xz yz pp pp pp
0.0000000000000000e+00 1.5297749999999999e+01 5.0992499999999996e+00
0.0000000000000000e+00 1.1872499999999999e+02 0.0000000000000000e+00
0.0000000000000000e+00 8.9688000000000002e+01 0.0000000000000000e+00
ITEM: ATOMS id type element xu yu zu q c_pe c_s[1] c_s[2] c_s[3] c_s[4] c_s[5] c_s[6]
1 1 Mg 6.2404 -6.37941e-06 0 1.2 -4.7507 8.36991e+06 -2.06834e+06 -5.95186e+06 -14610.6 2.68001e+06 661606
2 1 Mg 3.46349 4.70768 1.4948 1.2 -8.89712 355748 2.31054e+06 4.68462e+06 -937290 -646451 425392
3 2 Si 5.2885 2.02354 1.4948 2.4 -36.0308 1.1279e+07 1.03392e+07 1.1902e+07 8.82995e+06 803184 -1.80209e+06
4 3 O 5.33628 3.63678 1.4948 -1.2 -4.31785 -1.48032e+06 -1.10522e+06 -3.39946e+07 -306336 3.78045e+06 -4.31346e+06
5 3 O 1.67294 1.04952 1.4948 -1.2 -0.675514 -2.09714e+07 -7.90755e+07 -2.36532e+06 -2.4128e+07 -45009.4 -857259
6 3 O 4.59532 1.31737 0.196716 -1.2 -2.70565 -2.46311e+06 -6.43976e+06 -3.07399e+07 -6.02224e+06 6.22885e+06 -3.36551e+06
7 1 Mg 6.18956 -6.37941e-06 2.9896 1.2 -5.38125 2.24523e+06 -2.85707e+07 -2.5881e+06 -8.84312e+06 2.60456e+06 4.94664e+06
8 3 O 4.55118 1.31737 2.79288 -1.2 -7.06316 -674199 -4.31718e+06 -3.43189e+06 -2.94205e+06 -3.47875e+06 -1.85495e+06
9 1 Mg -1.20682 0.0413099 4.4844 1.2 8.30437 -3.01414e+07 -9.37255e+07 461266 -2.84957e+07 -1.3273e+06 1.10577e+06
10 2 Si -3.0337 2.72544 4.4844 2.4 -34.3766 1.61502e+07 6.21773e+06 9.08988e+06 1.50032e+06 579282 254116
11 3 O -3.08099 1.11221 4.4844 -1.2 -8.98901 -6.97336e+06 504361 -2.80641e+06 -1.22528e+06 -441155 -415018
12 3 O 0.582463 3.69946 4.4844 -1.2 -8.3526 -4.10525e+06 -5.11003e+06 -3.36323e+06 -717178 62274.3 -599007
13 3 O -2.29524 3.43162 3.18632 -1.2 -8.53217 -4.96644e+06 -2.12286e+06 -1.07093e+06 1.10587e+06 -920398 -1.37383e+06
14 3 O -2.34216 3.43162 5.78248 -1.2 -8.07413 -4.94539e+06 -2.96279e+06 -2.11358e+06 839432 87837 1.05454e+06
15 1 Mg 1.12778 2.37449 2.9896 1.2 -8.0853 5.95985e+06 -2.0362e+06 -289014 -3.24495e+06 -4.33825e+06 -1.62274e+06
16 1 Mg 3.92855 2.33318 4.4844 1.2 -8.98402 -3.04735e+06 4.49801e+06 4.96881e+06 1.33541e+06 361433 1.09712e+06
17 2 Si 2.09341 4.39804 4.4844 2.4 -33.5442 1.40319e+07 5.99883e+06 9.6361e+06 410090 -556116 1.71702e+06
18 3 O 2.09991 6.01128 4.4844 -1.2 -8.86187 -4.94898e+06 526030 -4.53912e+06 407371 -98866.1 -555696
19 3 O -4.52137 3.42402 4.4844 -1.2 -8.6037 -3.92868e+06 -2.51323e+06 -3.86221e+06 -2.27546e+06 -997826 -439562
20 3 O 2.80834 3.69187 3.18632 -1.2 -8.83675 -3.00301e+06 -2.42005e+06 -741407 442596 -420629 -1.03212e+06
21 1 Mg 1.17857 2.37449 0 1.2 -5.44135 -89377 -1.50886e+07 -6.18656e+06 6.5172e+06 1.16196e+06 5.10713e+06
22 3 O 2.76143 3.69187 5.78248 -1.2 -8.79119 -4.07321e+06 -2.13732e+06 -1.08025e+06 480724 94629.6 -756818
23 1 Mg -1.67381 2.41581 1.4948 1.2 -7.98563 2.15055e+06 -554566 4.46506e+06 1.36202e+06 -563856 1.57172e+06
24 2 Si 0.16286 0.350945 1.4948 2.4 -25.3073 -7.04002e+06 1.18612e+07 1.20237e+07 1.59297e+06 2.7006e+06 2.88598e+06
25 3 O 0.15972 -1.26229 1.4948 -1.2 -4.41208 -1.12169e+07 -7.78689e+06 -2.92119e+07 -5.599e+06 -8.4682e+06 -3.64416e+06
26 3 O 6.77654 1.32496 1.4948 -1.2 -9.96407 -6.32677e+06 2.08419e+06 -1.73621e+06 -638130 -723957 355248
27 3 O -0.508028 1.05712 0.196716 -1.2 -9.20759 -413052 -4.42954e+06 -936848 -556529 212678 -5.25482e+06
28 3 O -0.552171 1.05712 2.79288 -1.2 -6.32727 -5.96062e+06 -4.23565e+06 -2.51456e+07 1.40755e+06 -6.70615e+06 -6.29607e+06
29 1 Mg 6.31713 4.74899 0 1.2 -5.27882 906339 -1.32411e+07 -5.75995e+06 -7.32161e+06 1.44844e+06 -3.40279e+06
30 1 Mg 3.54847 9.45668 1.4948 1.2 -8.77249 897731 1.12431e+06 5.10774e+06 -953906 -939731 -401089
31 2 Si 5.36879 6.77254 1.4948 2.4 -35.1729 8.6932e+06 1.10651e+07 1.25431e+07 1.59864e+06 110619 -1.68717e+06
32 3 O 5.41937 8.38578 1.4948 -1.2 -4.31888 -1.01363e+06 -371096 -3.57983e+07 792872 1.14566e+06 -4.22987e+06
33 3 O 1.75158 5.79852 1.4948 -1.2 -9.06745 -4.67974e+06 -1.9121e+06 -1.89321e+06 1.93444e+06 -1.57212e+06 -1.56834e+06
34 3 O 4.67421 6.06637 0.196716 -1.2 -3.40569 -424705 -9.69392e+06 -3.1905e+07 -1.99816e+06 1.31213e+06 -4.53945e+06
35 1 Mg 6.26654 4.74899 2.9896 1.2 -8.53474 4.96706e+06 -2.08768e+06 365143 1.72387e+06 -790617 2.29022e+06
36 3 O 4.63043 6.06637 2.79288 -1.2 -8.34277 -2.43418e+06 -3.48802e+06 -2.66859e+06 980891 -80340.3 -1.76342e+06
37 1 Mg -1.12976 4.79031 4.4844 1.2 -9.43534 241537 2.37666e+06 3.36844e+06 -630257 -339294 203681
38 2 Si -2.9517 7.47444 4.4844 2.4 -34.0164 1.36105e+07 7.69128e+06 9.35207e+06 -246108 -157258 179547
39 3 O -3.00198 5.86121 4.4844 -1.2 -8.84079 -5.09332e+06 337902 -4.09337e+06 198907 -286003 -246371
40 3 O 0.666315 8.44846 4.4844 -1.2 -8.65701 -4.32375e+06 -2.06568e+06 -3.81897e+06 2.00186e+06 -655187 27937.4
41 3 O -2.21213 8.18062 3.18632 -1.2 -8.58072 -3.89793e+06 -2.80164e+06 -1.09594e+06 1.14832e+06 -295930 -1.45302e+06
42 3 O -2.25864 8.18062 5.78248 -1.2 -8.42237 -4.42567e+06 -2.98994e+06 -1.67491e+06 1.26222e+06 -99264.7 1.38588e+06
43 1 Mg 1.20893 7.12349 2.9896 1.2 -8.5283 4.92982e+06 -2.15715e+06 440650 -1.20518e+06 -1.29947e+06 -1.52168e+06
44 1 Mg 4.00982 7.08218 4.4844 1.2 -9.31655 76575.8 1.98633e+06 3.78472e+06 998178 -331435 472571
45 2 Si 2.17861 9.14704 4.4844 2.4 -34.125 1.28267e+07 7.84694e+06 1.01282e+07 779460 249359 205475
46 3 O 2.18828 10.7603 4.4844 -1.2 -8.84515 -4.65154e+06 359359 -4.66272e+06 413644 -397442 64189.6
47 3 O -4.43805 8.17302 4.4844 -1.2 -8.68711 -4.34021e+06 -2.02988e+06 -3.75194e+06 -1.40476e+06 -278200 -214788
48 3 O 2.89193 8.44087 3.18632 -1.2 -8.55376 -3.54971e+06 -2.9981e+06 -1.44087e+06 -963559 -248879 1.18164e+06
49 1 Mg 1.25915 7.12349 0 1.2 -5.67393 1.55832e+06 -8.09366e+06 -5.82033e+06 5.91994e+06 1.36766e+06 2.60729e+06
50 3 O 2.84547 8.44087 5.78248 -1.2 -8.19496 -3.8113e+06 -3.35955e+06 -2.52955e+06 -1.04111e+06 -271582 -1.43871e+06
51 1 Mg -1.59284 7.16481 1.4948 1.2 -8.68324 1.55406e+06 831408 4.80038e+06 1.45372e+06 -890673 382805
52 2 Si 0.240329 5.09994 1.4948 2.4 -34.9182 9.63713e+06 1.00824e+07 1.21744e+07 -1.89412e+06 -1.08781e+06 2.46473e+06
53 3 O 0.234538 3.48671 1.4948 -1.2 -4.81232 -2.41421e+06 765957 -3.41758e+07 373808 5.22509e+06 3.52202e+06
54 3 O 6.85564 6.07396 1.4948 -1.2 -9.14905 -5.12005e+06 -1.34935e+06 -1.84618e+06 -1.30825e+06 -1.84732e+06 1.00633e+06
55 3 O -0.429565 5.80612 0.196716 -1.2 -3.66283 -1.26266e+06 -8.33255e+06 -3.19734e+07 1.84051e+06 1.18438e+06 4.44874e+06
56 3 O -0.473377 5.80612 2.79288 -1.2 -8.42534 -2.93849e+06 -3.0651e+06 -2.55492e+06 -829251 285626 1.09182e+06
57 1 Mg 6.40169 9.49799 0 1.2 -5.63872 2.13703e+06 -7.06742e+06 -5.97065e+06 -5.50511e+06 1.00276e+06 -2.60206e+06
58 1 Mg 3.64209 14.2057 1.4948 1.2 -8.77096 711698 1.13345e+06 5.24129e+06 -1.02113e+06 -963786 -584253
59 2 Si 5.45748 11.5215 1.4948 2.4 -35.089 8.81267e+06 1.03967e+07 1.29336e+07 901500 233254 -2.57764e+06
60 3 O 5.51101 13.1348 1.4948 -1.2 -4.40935 -1.09858e+06 -211968 -3.55475e+07 446542 -2.49163e+06 -4.07813e+06
61 3 O 1.83851 10.5475 1.4948 -1.2 -9.14974 -4.85634e+06 -1.23098e+06 -1.99374e+06 1.5284e+06 -1.62208e+06 -917379
62 3 O 4.7611 10.8154 0.196716 -1.2 -3.25595 37703.6 -1.07975e+07 -3.27265e+07 -2.46288e+06 -1.74697e+06 -4.06985e+06
63 1 Mg 6.35203 9.49799 2.9896 1.2 -8.47226 4.95431e+06 -2.22247e+06 410175 1.27096e+06 -1.31199e+06 1.95217e+06
64 3 O 4.71833 10.8154 2.79288 -1.2 -8.37972 -2.50648e+06 -3.15719e+06 -2.8765e+06 1.05185e+06 120840 -1.17314e+06
65 1 Mg -1.0438 9.53931 4.4844 1.2 -9.20297 294036 1.89437e+06 3.3867e+06 -578206 -171793 -126631
66 2 Si -2.8604 12.2234 4.4844 2.4 -33.7852 1.33537e+07 7.71287e+06 9.21644e+06 18193 -472369 -279456
67 3 O -2.91391 10.6102 4.4844 -1.2 -8.95918 -5.02816e+06 461705 -4.11335e+06 256804 40340.2 60092.1
68 3 O 0.7596 13.1975 4.4844 -1.2 -8.77029 -4.18177e+06 -2.12748e+06 -3.71192e+06 2.25417e+06 -739842 237104
69 3 O -2.12001 12.9296 3.18632 -1.2 -8.65202 -3.73916e+06 -2.85273e+06 -1.09568e+06 1.15727e+06 -179169 -1.33454e+06
70 3 O -2.16532 12.9296 5.78248 -1.2 -8.5882 -4.12621e+06 -3.11491e+06 -1.59925e+06 1.05421e+06 28711.7 1.46722e+06
71 1 Mg 1.29891 11.8725 2.9896 1.2 -8.46848 4.88953e+06 -2.17086e+06 395644 -1.18936e+06 -1.07734e+06 -1.89087e+06
72 1 Mg 4.10033 11.8312 4.4844 1.2 -9.28538 -101716 1.98425e+06 3.91822e+06 1.13041e+06 -419517 -116056
73 2 Si 2.27333 13.896 4.4844 2.4 -33.8899 1.25502e+07 7.97397e+06 9.90451e+06 566960 229375 -549635
74 3 O 2.28634 15.5093 4.4844 -1.2 -9.00528 -4.65863e+06 313469 -4.35537e+06 498041 -277307 265951
75 3 O -4.34533 12.922 4.4844 -1.2 -8.78909 -4.21755e+06 -2.09274e+06 -3.64842e+06 -1.55522e+06 -217472 141649
76 3 O 2.98455 13.1899 3.18632 -1.2 -8.62528 -3.45365e+06 -2.98431e+06 -1.45562e+06 -959796 -198540 1.56397e+06
77 1 Mg 1.34779 11.8725 0 1.2 -5.86439 3.3524e+06 -3.53426e+06 -5.97025e+06 3.55831e+06 801781 1.29809e+06
78 3 O 2.93934 13.1899 5.78248 -1.2 -8.2581 -3.42611e+06 -3.44587e+06 -3.00967e+06 -901800 -231653 -809886
79 1 Mg -1.50344 11.9138 1.4948 1.2 -8.7282 1.22812e+06 1.05621e+06 4.95731e+06 1.55834e+06 -937516 179166
80 2 Si 0.326006 9.84894 1.4948 2.4 -35.0777 9.04109e+06 1.04816e+07 1.25745e+07 -575415 218110 2.00116e+06
81 3 O 0.317364 8.23571 1.4948 -1.2 -4.32671 -1.17716e+06 -241008 -3.5882e+07 -151817 1.13834e+06 4.21062e+06
82 3 O 6.94307 10.823 1.4948 -1.2 -9.20316 -5.06549e+06 -1.04702e+06 -1.8427e+06 -977415 -1.48637e+06 1.23259e+06
83 3 O -0.343122 10.5551 0.196716 -1.2 -3.36502 -353014 -1.0267e+07 -3.26568e+07 2.45499e+06 -2.06386e+06 4.72421e+06
84 3 O -0.385966 10.5551 2.79288 -1.2 -8.44666 -2.73878e+06 -3.20259e+06 -2.6395e+06 -862699 -4699.77 1.26696e+06
85 1 Mg 6.49448 14.247 0 1.2 -5.8032 3.79024e+06 -2.75694e+06 -6.09851e+06 -2.94596e+06 248267 -1.83418e+06
86 1 Mg 3.74457 18.9547 1.4948 1.2 -8.76605 440587 1.26117e+06 5.29966e+06 -1.11973e+06 -945192 -580339
87 2 Si 5.55495 16.2705 1.4948 2.4 -34.9301 8.86235e+06 1.00637e+07 1.29811e+07 589416 765816 -2.8173e+06
88 3 O 5.6115 17.8838 1.4948 -1.2 -4.79687 -2.00356e+06 -95281 -3.2907e+07 58284.1 -6.04868e+06 -3.84438e+06
89 3 O 1.93416 15.2965 1.4948 -1.2 -9.25627 -4.85321e+06 -880075 -1.92729e+06 1.55345e+06 -1.40956e+06 -745310
90 3 O 4.85636 15.5644 0.196716 -1.2 -3.33286 107726 -1.24452e+07 -3.11925e+07 -3.05724e+06 -5.12804e+06 -3.42739e+06
91 1 Mg 6.44662 14.247 2.9896 1.2 -8.38412 4.88798e+06 -2.2018e+06 313623 1.33962e+06 -1.28848e+06 1.82232e+06
92 3 O 4.81537 15.5644 2.79288 -1.2 -8.45378 -2.40375e+06 -3.1998e+06 -2.84898e+06 1.01102e+06 -5324.48 -1.0579e+06
93 1 Mg -0.948271 14.2883 4.4844 1.2 -9.10879 -918.637 1.97308e+06 3.44346e+06 -654610 -219523 -83325
94 2 Si -2.75928 16.9724 4.4844 2.4 -33.7753 1.27193e+07 7.58208e+06 9.97448e+06 -15563.6 -249637 -86172
95 3 O -2.81617 15.3592 4.4844 -1.2 -9.0229 -4.71891e+06 362955 -4.2092e+06 238963 -74563.6 -33201.3
96 3 O 0.862762 17.9465 4.4844 -1.2 -8.87459 -4.15176e+06 -2.06933e+06 -3.64264e+06 2.20453e+06 -425057 266508
97 3 O -2.0185 17.6786 3.18632 -1.2 -8.68468 -3.48083e+06 -2.78407e+06 -1.38614e+06 1.17176e+06 -73720.7 -1.30087e+06
98 3 O -2.06164 17.6786 5.78248 -1.2 -8.41635 -3.71178e+06 -2.98454e+06 -2.55504e+06 1.23373e+06 65133.1 1.49612e+06
99 1 Mg 1.39817 16.6215 2.9896 1.2 -8.36187 4.91923e+06 -2.19222e+06 214329 -1.20525e+06 -1.18994e+06 -1.91894e+06
100 1 Mg 4.20062 16.5802 4.4844 1.2 -9.14647 -121047 1.99771e+06 3.70314e+06 1.25991e+06 -194044 -114465
101 2 Si 2.37796 18.645 4.4844 2.4 -33.6068 1.27635e+07 7.81054e+06 9.39156e+06 670103 121141 -359656
102 3 O 2.39434 20.2583 4.4844 -1.2 -9.10469 -4.59063e+06 412378 -4.37151e+06 535973 -238334 174521
103 3 O -4.24274 17.671 4.4844 -1.2 -8.82851 -4.05924e+06 -1.96941e+06 -3.86156e+06 -1.49318e+06 -481757 82614.7
104 3 O 3.08659 17.9389 3.18632 -1.2 -8.725 -3.45562e+06 -2.96207e+06 -1.35795e+06 -942902 -149882 1.55695e+06
105 1 Mg 1.44478 16.6215 0 1.2 -5.91357 4.93152e+06 -589754 -5.97246e+06 1.37437e+06 -40537.8 569956
106 3 O 3.0436 17.9389 5.78248 -1.2 -8.56024 -3.72745e+06 -3.35427e+06 -2.05744e+06 -880990 -460973 -994744
107 1 Mg -1.40524 16.6628 1.4948 1.2 -8.74374 880517 1.16408e+06 5.17434e+06 1.67549e+06 -992493 93490.5
108 2 Si 0.420358 14.5979 1.4948 2.4 -34.9621 8.94164e+06 1.024e+07 1.27145e+07 -198210 625545 1.93263e+06
109 3 O 0.408732 12.9847 1.4948 -1.2 -4.40481 -1.19072e+06 -184987 -3.5624e+07 245276 -2.6097e+06 4.51928e+06
110 3 O 7.03923 15.572 1.4948 -1.2 -9.29995 -4.98505e+06 -725832 -1.84773e+06 -963499 -1.27354e+06 1.2708e+06
111 3 O -0.248332 15.3041 0.196716 -1.2 -3.43707 -276499 -1.19624e+07 -3.11772e+07 3.27841e+06 -5.41354e+06 4.31733e+06
112 3 O -0.289436 15.3041 2.79288 -1.2 -8.50806 -2.53735e+06 -3.25256e+06 -2.73473e+06 -795555 20784.9 1.28527e+06
113 1 Mg 6.59566 18.996 0 1.2 -5.865 5.04697e+06 -137783 -5.8322e+06 -899127 -704092 -1.28023e+06
114 1 Mg 3.85574 23.7037 1.4948 1.2 -8.7533 9709.17 1.5326e+06 5.29884e+06 -1.21556e+06 -940822 -563850
115 2 Si 5.66125 21.0195 1.4948 2.4 -34.6867 9.07909e+06 9.66325e+06 1.28367e+07 166534 1.18593e+06 -3.0833e+06
116 3 O 5.72074 22.6328 1.4948 -1.2 -5.49406 -3.5661e+06 -43233.1 -2.79382e+07 -201180 -8.48142e+06 -3.29543e+06
117 3 O 2.03867 20.0455 1.4948 -1.2 -9.36579 -4.77421e+06 -621633 -1.88676e+06 1.57981e+06 -1.1781e+06 -649114
118 3 O 4.96004 20.3134 0.196716 -1.2 -3.7308 -528019 -1.38841e+07 -2.72932e+07 -3.18338e+06 -7.91826e+06 -2.36835e+06
119 1 Mg 6.55057 18.996 2.9896 1.2 -8.31364 4.79846e+06 -2.30666e+06 395766 1.31304e+06 -1.2265e+06 1.70379e+06
120 3 O 4.92172 20.3134 2.79288 -1.2 -8.53058 -2.30108e+06 -3.17558e+06 -2.88935e+06 1.10507e+06 -105492 -927963
121 1 Mg -0.84282 19.0373 4.4844 1.2 -9.08581 -243205 1.8855e+06 3.72999e+06 -508381 -418184 -266639
122 2 Si -2.64823 21.7214 4.4844 2.4 -33.5375 1.23805e+07 7.67204e+06 9.84914e+06 111691 -222447 -722578
123 3 O -2.70847 20.1082 4.4844 -1.2 -9.05626 -4.48857e+06 444114 -4.45001e+06 281627 -52951.9 298207
124 3 O 0.97581 22.6955 4.4844 -1.2 -8.97025 -3.83449e+06 -2.13644e+06 -3.73851e+06 2.17163e+06 -529033 316828
125 3 O -1.9076 22.4276 3.18632 -1.2 -8.79111 -3.29815e+06 -2.86694e+06 -1.35054e+06 1.11434e+06 -44392.4 -1.123e+06
126 3 O -1.9475 22.4276 5.78248 -1.2 -8.61103 -3.48704e+06 -3.03446e+06 -2.42179e+06 993651 54800.7 1.6999e+06
127 1 Mg 1.50678 21.3705 2.9896 1.2 -8.25905 4.83608e+06 -2.19796e+06 138508 -1.15985e+06 -1.22169e+06 -1.93168e+06
128 1 Mg 4.31086 21.3292 4.4844 1.2 -9.03748 -204038 1.91976e+06 3.68952e+06 1.07389e+06 -247060 -245361
129 2 Si 2.49243 23.394 4.4844 2.4 -33.3996 1.19569e+07 8.02033e+06 9.65864e+06 610357 -119209 -573035
130 3 O 2.51204 25.0073 4.4844 -1.2 -9.23452 -4.11425e+06 153853 -4.38145e+06 590221 -75541 204892
131 3 O -4.13026 22.42 4.4844 -1.2 -8.99481 -3.97929e+06 -2.00011e+06 -3.63916e+06 -1.35018e+06 -429968 351289
132 3 O 3.19799 22.6879 3.18632 -1.2 -8.82286 -3.2195e+06 -3.02899e+06 -1.42741e+06 -871762 18626.6 1.62838e+06
133 1 Mg 1.5501 21.3705 0 1.2 -5.90642 5.71312e+06 988908 -5.56608e+06 -68347.1 -939975 61964.1
134 3 O 3.1583 22.6879 5.78248 -1.2 -8.62309 -3.28751e+06 -3.30855e+06 -2.46447e+06 -783190 -36422.1 -791963
135 1 Mg -1.29822 21.4118 1.4948 1.2 -8.74556 486141 1.36309e+06 5.2682e+06 1.82644e+06 -951521 -81854.1
136 2 Si 0.523568 19.3469 1.4948 2.4 -34.7648 9.03229e+06 9.88968e+06 1.26864e+07 298018 1.00822e+06 1.93351e+06
137 3 O 0.508934 17.7337 1.4948 -1.2 -4.79523 -2.09972e+06 -84155.6 -3.29595e+07 689073 -6.08707e+06 4.372e+06
138 3 O 7.14425 20.321 1.4948 -1.2 -9.40188 -4.85142e+06 -465885 -1.88638e+06 -945918 -1.04319e+06 1.37474e+06
139 3 O -0.145107 20.0531 0.196716 -1.2 -3.82941 -905722 -1.3547e+07 -2.72977e+07 3.68152e+06 -8.22174e+06 3.44879e+06
140 3 O -0.183601 20.0531 2.79288 -1.2 -8.57699 -2.37494e+06 -3.27214e+06 -2.81494e+06 -863485 15997.9 1.35006e+06
141 1 Mg 6.70502 23.745 0 1.2 -5.8918 5.4676e+06 1.23532e+06 -5.19921e+06 405811 -1.52373e+06 -947321
142 1 Mg 3.97493 28.4527 1.4948 1.2 -8.7431 -487052 1.76023e+06 5.31896e+06 -1.22166e+06 -836201 -269782
143 2 Si 5.77602 25.7685 1.4948 2.4 -34.3317 9.47755e+06 9.35551e+06 1.22647e+07 -150155 1.45031e+06 -2.91008e+06
144 3 O 5.83821 27.3818 1.4948 -1.2 -6.39984 -5.18861e+06 -818.347 -2.16718e+07 -329656 -9.25108e+06 -2.86438e+06
145 3 O 2.15175 24.7945 1.4948 -1.2 -9.47325 -4.53177e+06 -543575 -1.90091e+06 1.62073e+06 -930607 -615772
146 3 O 5.07184 25.0624 0.196716 -1.2 -4.43259 -1.69078e+06 -1.4653e+07 -2.16161e+07 -2.76392e+06 -9.39013e+06 -1.11351e+06
147 1 Mg 6.66374 23.745 2.9896 1.2 -8.15026 4.76618e+06 -2.20036e+06 62906 1.3065e+06 -1.26942e+06 1.56453e+06
148 3 O 5.03707 25.0624 2.79288 -1.2 -8.67186 -2.15496e+06 -3.34961e+06 -2.6744e+06 1.13899e+06 -68929 -901805
149 1 Mg -0.727559 23.7863 4.4844 1.2 -8.92647 -541924 2.02904e+06 3.62175e+06 -367288 -172683 -370534
150 2 Si -2.5277 26.4704 4.4844 2.4 -33.0048 1.21684e+07 8.17276e+06 8.70554e+06 180378 70183.3 -465495
151 3 O -2.59107 24.8572 4.4844 -1.2 -9.3069 -4.37455e+06 265835 -3.97584e+06 285344 -146134 398270
152 3 O 1.09817 27.4445 4.4844 -1.2 -9.08361 -3.38063e+06 -2.39171e+06 -3.76157e+06 2.26392e+06 -528462 94910.1
153 3 O -1.78784 27.1766 3.18632 -1.2 -8.93423 -3.09394e+06 -3.05911e+06 -1.19276e+06 1.13747e+06 -101367 -1.35646e+06
154 3 O -1.82343 27.1766 5.78248 -1.2 -8.98787 -3.20145e+06 -3.40437e+06 -1.58892e+06 978680 -436304 1.48657e+06
155 1 Mg 1.62435 26.1195 2.9896 1.2 -8.13131 4.57262e+06 -2.01845e+06 20848.3 -1.1556e+06 -1.28199e+06 -1.80703e+06
156 1 Mg 4.43064 26.0782 4.4844 1.2 -8.83478 -519350 2.16789e+06 3.43426e+06 1.09908e+06 -474185 -180103
157 2 Si 2.61607 28.143 4.4844 2.4 -33.1622 1.12604e+07 8.33348e+06 9.66495e+06 751131 -382749 -68068.8
158 3 O 2.63853 29.7563 4.4844 -1.2 -9.3333 -3.96169e+06 191019 -4.4248e+06 499114 5549.15 -77920.2
159 3 O -4.00841 27.169 4.4844 -1.2 -9.26171 -3.9098e+06 -2.24663e+06 -3.0428e+06 -1.35577e+06 -275804 103074
160 3 O 3.3182 27.4369 3.18632 -1.2 -8.93792 -2.91039e+06 -3.20043e+06 -1.45646e+06 -887905 218657 1.41396e+06
161 1 Mg 1.66335 26.1195 0 1.2 -5.92607 5.41469e+06 1.70254e+06 -4.73059e+06 -884627 -1.56181e+06 -72817.2
162 3 O 3.28288 27.4369 5.78248 -1.2 -8.78288 -2.73894e+06 -3.6452e+06 -2.4547e+06 -889504 197186 -1.05778e+06
163 1 Mg -1.18278 26.1608 1.4948 1.2 -8.7262 29219.7 1.67507e+06 5.18993e+06 1.90699e+06 -786320 -71324.5
164 2 Si 0.635424 24.0959 1.4948 2.4 -34.4768 9.16814e+06 9.61706e+06 1.24291e+07 784942 1.43889e+06 1.90422e+06
165 3 O 0.617906 22.4827 1.4948 -1.2 -5.48442 -3.61934e+06 -31107.4 -2.80475e+07 996568 -8.56516e+06 3.99249e+06
166 3 O 7.25781 25.07 1.4948 -1.2 -9.52977 -4.71371e+06 -409129 -1.75622e+06 -939950 -831880 1.3564e+06
167 3 O -0.0337363 24.8021 0.196716 -1.2 -4.51561 -2.01674e+06 -1.46069e+07 -2.16147e+07 3.48216e+06 -9.6739e+06 2.17132e+06
168 3 O -0.0687235 24.8021 2.79288 -1.2 -8.69732 -2.1254e+06 -3.46705e+06 -2.72908e+06 -880870 -147079 1.31105e+06
169 1 Mg 6.82195 28.494 0 1.2 -5.94622 4.94707e+06 1.70894e+06 -4.18562e+06 1.13698e+06 -1.82654e+06 -686098
170 1 Mg 4.10106 33.2017 1.4948 1.2 -8.68052 -1.0724e+06 2.02345e+06 5.2004e+06 -1.18322e+06 -550055 -50107.2
171 2 Si 5.89839 30.5175 1.4948 2.4 -33.9587 9.9029e+06 8.59103e+06 1.20892e+07 -326596 1.64555e+06 -2.13096e+06
172 3 O 5.96289 32.1308 1.4948 -1.2 -7.36336 -6.12013e+06 131226 -1.56743e+07 -291661 -8.44596e+06 -2.48676e+06
173 3 O 2.27266 29.5435 1.4948 -1.2 -9.56241 -4.29579e+06 -401648 -2.08802e+06 1.64595e+06 -690383 -826886
174 3 O 5.19102 29.8114 0.196716 -1.2 -5.34617 -2.92421e+06 -1.41595e+07 -1.56101e+07 -1.93024e+06 -9.27862e+06 -34261.1
175 1 Mg 6.78546 28.494 2.9896 1.2 -7.99289 4.72382e+06 -2.12653e+06 -215270 1.31462e+06 -1.30888e+06 1.9279e+06
176 3 O 5.16061 29.8114 2.79288 -1.2 -8.78504 -2.04728e+06 -3.31997e+06 -2.67136e+06 1.08243e+06 -132056 -1.26294e+06
177 1 Mg -0.603205 28.5353 4.4844 1.2 -8.81112 -902092 2.16319e+06 3.65879e+06 -513956 54684.9 75790
178 2 Si -2.39877 31.2194 4.4844 2.4 -32.9265 1.18252e+07 7.62937e+06 9.46917e+06 -161312 -74919.8 455903
179 3 O -2.46483 29.6062 4.4844 -1.2 -9.43288 -4.25776e+06 309050 -3.9325e+06 457798 -223892 -250820
180 3 O 1.22864 32.1935 4.4844 -1.2 -9.19764 -3.41239e+06 -2.19607e+06 -3.7694e+06 2.22515e+06 -432783 11237.3
181 3 O -1.66032 31.9256 3.18632 -1.2 -9.00867 -2.86767e+06 -2.93425e+06 -1.50744e+06 1.22027e+06 54067.5 -1.56061e+06
182 3 O -1.69072 31.9256 5.78248 -1.2 -8.91459 -3.19184e+06 -2.96046e+06 -2.05826e+06 1.4565e+06 -39877.7 1.19848e+06
183 1 Mg 1.7499 30.8685 2.9896 1.2 -8.01646 4.49914e+06 -2.10144e+06 -88.5025 -1.11788e+06 -1.38622e+06 -1.55665e+06
184 1 Mg 4.55894 30.8272 4.4844 1.2 -8.7541 -657422 1.98777e+06 3.62459e+06 1.33038e+06 -311181 240613
185 2 Si 2.7476 32.892 4.4844 2.4 -32.9144 1.11531e+07 7.9539e+06 9.74378e+06 915589 -140103 118328
186 3 O 2.77235 34.5053 4.4844 -1.2 -9.4965 -3.76102e+06 236456 -4.43417e+06 516600 -109054 47139
187 3 O -3.87837 31.918 4.4844 -1.2 -9.28207 -3.68167e+06 -1.94067e+06 -3.56509e+06 -1.34334e+06 -303411 -272768
188 3 O 3.44611 32.1859 3.18632 -1.2 -9.03456 -2.72805e+06 -3.12598e+06 -1.65873e+06 -930178 206302 1.21409e+06
189 1 Mg 1.7837 30.8685 0 1.2 -5.9626 4.29859e+06 1.79888e+06 -3.71299e+06 -1.33568e+06 -1.55559e+06 300677
190 3 O 3.41602 32.1859 5.78248 -1.2 -8.87909 -2.89641e+06 -3.32684e+06 -2.27183e+06 -996786 -98275.4 -1.39732e+06
191 1 Mg -1.05984 30.9098 1.4948 1.2 -8.7029 -468908 1.81169e+06 5.21226e+06 1.88589e+06 -595298 120456
192 2 Si 0.755243 28.8449 1.4948 2.4 -34.1449 9.4986e+06 8.99599e+06 1.2273e+07 1.14075e+06 1.65342e+06 2.24259e+06
193 3 O 0.735127 27.2317 1.4948 -1.2 -6.37612 -5.16228e+06 16050.8 -2.189e+07 1.16605e+06 -9.35798e+06 3.24927e+06
194 3 O 7.37914 29.819 1.4948 -1.2 -9.62758 -4.52287e+06 -266406 -1.90053e+06 -919249 -638237 1.05181e+06
195 3 O 0.0850649 29.5511 0.196716 -1.2 -5.40511 -3.17732e+06 -1.44987e+07 -1.55695e+07 2.69438e+06 -9.44299e+06 606880
196 3 O 0.0543974 29.5511 2.79288 -1.2 -8.80018 -1.97188e+06 -3.45224e+06 -2.78286e+06 -813725 -212313 981773
197 1 Mg 6.94543 33.243 0 1.2 -5.9467 3.62391e+06 1.93924e+06 -3.41845e+06 1.57427e+06 -1.41418e+06 -688548
198 1 Mg 4.23267 37.9507 1.4948 1.2 -8.52122 -1.70779e+06 2.5818e+06 4.60773e+06 -1.11677e+06 -208109 -67153.5
199 2 Si 6.02709 35.2665 1.4948 2.4 -33.4167 9.95955e+06 8.40703e+06 1.13981e+07 -402832 1.59744e+06 -1.97502e+06
200 3 O 6.09339 36.8798 1.4948 -1.2 -8.32407 -6.02349e+06 -150872 -1.04432e+07 -149295 -6.60907e+06 -1.8839e+06
201 3 O 2.40018 34.2925 1.4948 -1.2 -9.70847 -3.98476e+06 -549387 -2.07084e+06 1.6799e+06 -518517 -874617
202 3 O 5.31645 34.5604 0.196716 -1.2 -6.43586 -3.63517e+06 -1.28354e+07 -1.00408e+07 -960600 -7.85633e+06 1.0052e+06
203 1 Mg 6.91449 33.243 2.9896 1.2 -7.87749 4.47998e+06 -2.1818e+06 -92954.9 1.28986e+06 -1.40962e+06 1.97696e+06
204 3 O 5.291 34.5604 2.79288 -1.2 -8.93933 -1.81151e+06 -3.41747e+06 -2.60425e+06 1.10618e+06 -253277 -1.18341e+06
205 1 Mg -0.471101 33.2843 4.4844 1.2 -8.68394 -930360 1.9834e+06 3.65279e+06 -516533 -135500 -37629.8
206 2 Si -2.26307 35.9684 4.4844 2.4 -32.5496 1.08814e+07 8.22509e+06 9.21418e+06 106.704 -520699 -240292
207 3 O -2.33122 34.3552 4.4844 -1.2 -9.52474 -3.86304e+06 315764 -4.20162e+06 483369 71375.3 16402.3
208 3 O 1.36549 36.9425 4.4844 -1.2 -9.48022 -3.15248e+06 -2.55064e+06 -3.22728e+06 2.31951e+06 -458241 230863
209 3 O -1.52658 36.6746 3.18632 -1.2 -9.20604 -2.46184e+06 -3.33421e+06 -1.29374e+06 1.16796e+06 197240 -1.37717e+06
210 3 O -1.55122 36.6746 5.78248 -1.2 -9.21019 -2.74869e+06 -3.33431e+06 -1.62637e+06 1.18659e+06 375347 1.70455e+06
211 1 Mg 1.882 35.6175 2.9896 1.2 -7.80644 4.30397e+06 -1.87044e+06 -362383 -1.10779e+06 -1.42451e+06 -1.64849e+06
212 1 Mg 4.69415 35.5762 4.4844 1.2 -8.58078 -1.00585e+06 2.15774e+06 3.52179e+06 1.28446e+06 -144344 -31496.5
213 2 Si 2.88522 37.641 4.4844 2.4 -32.3564 1.03802e+07 8.8095e+06 8.77249e+06 758260 59816.8 -435010
214 3 O 2.91159 39.2543 4.4844 -1.2 -9.81815 -3.38517e+06 -383651 -3.66507e+06 654929 -101303 149409
215 3 O -3.74183 36.667 4.4844 -1.2 -9.48502 -3.15508e+06 -2.34479e+06 -3.37276e+06 -1.31544e+06 -212990 73241.4
216 3 O 3.58014 36.9349 3.18632 -1.2 -9.23798 -2.32624e+06 -3.51298e+06 -1.45479e+06 -878172 180898 1.36775e+06
217 1 Mg 1.90997 35.6175 0 1.2 -5.89561 2.78148e+06 2.04983e+06 -3.53288e+06 -1.6541e+06 -804612 771953
218 3 O 3.55582 36.9349 5.78248 -1.2 -9.1381 -2.40025e+06 -3.58087e+06 -2.0791e+06 -1.02339e+06 -159267 -949675
219 1 Mg -0.93068 35.6588 1.4948 1.2 -8.57296 -1.07614e+06 2.27275e+06 4.75819e+06 1.84093e+06 -328193 17634.3
220 2 Si 0.881882 33.5939 1.4948 2.4 -33.6516 9.85747e+06 8.52977e+06 1.16608e+07 1.40568e+06 1.6386e+06 2.22812e+06
221 3 O 0.859602 31.9807 1.4948 -1.2 -7.34761 -6.15725e+06 141374 -1.58156e+07 1.15995e+06 -8.48081e+06 2.44017e+06
222 3 O 7.507 34.568 1.4948 -1.2 -9.76872 -4.14089e+06 -447788 -1.94288e+06 -919385 -419431 1.06174e+06
223 3 O 0.210186 34.3001 0.196716 -1.2 -6.46976 -3.85523e+06 -1.35174e+07 -9.93305e+06 1.54198e+06 -7.92194e+06 -674255
224 3 O 0.184454 34.3001 2.79288 -1.2 -8.97877 -1.88719e+06 -3.54321e+06 -2.54257e+06 -827911 -202609 996901
225 1 Mg 7.07415 37.992 0 1.2 -5.88233 2.12874e+06 2.14825e+06 -3.38469e+06 1.88103e+06 -382222 -1.29971e+06
226 1 Mg 4.36817 42.6997 1.4948 1.2 -8.37935 -2.09855e+06 2.9731e+06 3.998e+06 -1.00503e+06 139093 240929
227 2 Si 6.16058 40.0155 1.4948 2.4 -32.8269 9.89939e+06 8.57072e+06 1.03571e+07 -343962 1.35172e+06 -1.54052e+06
228 3 O 6.22815 41.6288 1.4948 -1.2 -9.09566 -5.30007e+06 -449732 -6.72183e+06 24669.9 -4.54426e+06 -1.7468e+06
229 3 O 2.53282 39.0415 1.4948 -1.2 -9.88049 -3.58318e+06 -1.0336e+06 -1.87235e+06 1.72966e+06 -350914 -898999
230 3 O 5.44674 39.3094 0.196716 -1.2 -7.48673 -3.80064e+06 -1.07584e+07 -5.8281e+06 -154243 -5.7953e+06 1.79626e+06
231 1 Mg 7.04922 37.992 2.9896 1.2 -7.6464 4.07838e+06 -1.68569e+06 -546681 1.31912e+06 -1.53364e+06 1.84027e+06
232 3 O 5.42658 39.3094 2.79288 -1.2 -9.18423 -1.53565e+06 -3.89852e+06 -2.03398e+06 1.11208e+06 -312999 -1.15653e+06
233 1 Mg -0.333062 38.0333 4.4844 1.2 -8.38873 -1.35549e+06 2.53154e+06 3.05419e+06 -454002 -137112 -105020
234 2 Si -2.12255 40.7174 4.4844 2.4 -32.0459 9.88431e+06 9.5131e+06 8.12149e+06 263839 -270749 300821
235 3 O -2.19212 39.1042 4.4844 -1.2 -9.81113 -3.3527e+06 -359147 -3.56985e+06 355917 120870 54443.4
236 3 O 1.50676 41.6915 4.4844 -1.2 -9.70714 -2.80237e+06 -3.03649e+06 -2.72398e+06 2.33212e+06 -162438 -177502
237 3 O -1.3884 41.4236 3.18632 -1.2 -9.37599 -2.01417e+06 -3.80059e+06 -1.10462e+06 1.12905e+06 168125 -1.65562e+06
238 3 O -1.40713 41.4236 5.78248 -1.2 -9.43104 -1.95225e+06 -3.9445e+06 -1.35938e+06 1.11992e+06 63945.4 1.03831e+06
239 1 Mg 2.01892 40.3665 2.9896 1.2 -7.5727 3.98503e+06 -1.34301e+06 -932162 -1.12847e+06 -1.58162e+06 -1.46735e+06
240 1 Mg 4.83434 40.3252 4.4844 1.2 -8.28331 -1.44502e+06 2.83234e+06 2.81274e+06 1.25192e+06 -9489.26 -23903.7
241 2 Si 3.02698 42.39 4.4844 2.4 -31.9475 9.92904e+06 9.68495e+06 7.69799e+06 739254 -158761 557468
242 3 O 3.05433 44.0033 4.4844 -1.2 -9.8771 -3.2742e+06 -479608 -3.56842e+06 598016 -11789.1 -367914
243 3 O -3.60077 41.416 4.4844 -1.2 -9.74067 -2.8357e+06 -2.93643e+06 -2.67633e+06 -1.37176e+06 -283511 -186065
244 3 O 3.71851 41.6839 3.18632 -1.2 -9.42718 -2.00887e+06 -3.99952e+06 -1.08796e+06 -828191 213625 1.04229e+06
245 1 Mg 2.04077 40.3665 0 1.2 -5.81456 1.5292e+06 2.1444e+06 -3.92608e+06 -1.84683e+06 400922 1.64674e+06
246 3 O 3.70011 41.6839 5.78248 -1.2 -9.54355 -2.03715e+06 -4.23089e+06 -1.06677e+06 -817472 -165774 -1.38795e+06
247 1 Mg -0.796865 40.4078 1.4948 1.2 -8.40938 -1.6331e+06 2.78989e+06 4.14425e+06 1.75244e+06 22363 144237
248 2 Si 1.01387 38.3429 1.4948 2.4 -33.0315 9.89793e+06 8.66223e+06 1.05297e+07 1.50485e+06 1.45091e+06 1.9241e+06
249 3 O 0.989947 36.7297 1.4948 -1.2 -8.32029 -6.14971e+06 -135067 -1.04901e+07 1.04576e+06 -6.63561e+06 2.00334e+06
250 3 O 7.63988 39.317 1.4948 -1.2 -9.93217 -3.69142e+06 -949745 -1.80149e+06 -943573 -252224 1.0499e+06
251 3 O 0.340253 39.0491 0.196716 -1.2 -7.49787 -3.96287e+06 -1.16472e+07 -5.71439e+06 392779 -5.83765e+06 -1.53409e+06
252 3 O 0.319795 39.0491 2.79288 -1.2 -9.2298 -1.62581e+06 -4.01912e+06 -1.96328e+06 -831975 -195752 921665
253 1 Mg 7.20667 42.741 0 1.2 -5.80027 1.07941e+06 2.20168e+06 -3.98398e+06 1.99965e+06 945531 -1.89313e+06
254 1 Mg 4.50613 47.4487 1.4948 1.2 -8.28737 -2.20887e+06 3.21239e+06 3.51847e+06 -840379 438570 233333
255 2 Si 6.29731 44.7645 1.4948 2.4 -32.4458 9.97246e+06 8.33241e+06 9.88863e+06 -237501 955282 -882103
256 3 O 6.36567 46.3778 1.4948 -1.2 -9.58673 -4.38739e+06 -578733 -4.61731e+06 177741 -2.7178e+06 -1.57838e+06
257 3 O 2.669 43.7905 1.4948 -1.2 -9.95043 -3.26868e+06 -1.40229e+06 -1.97538e+06 1.72609e+06 -195535 -1.18948e+06
258 3 O 5.58048 44.0584 0.196716 -1.2 -8.33716 -3.53885e+06 -8.32185e+06 -3.20018e+06 322310 -3.75288e+06 2.10789e+06
259 1 Mg 7.1879 42.741 2.9896 1.2 -7.4958 3.84103e+06 -1.36144e+06 -861489 1.29234e+06 -1.55965e+06 2.16219e+06
260 3 O 5.56564 44.0584 2.79288 -1.2 -9.31098 -1.54071e+06 -4.00648e+06 -1.73814e+06 1.14882e+06 -313967 -1.46672e+06
261 1 Mg -0.19105 42.7823 4.4844 1.2 -8.27987 -1.73573e+06 2.7903e+06 2.99881e+06 -406497 -163501 285206
262 2 Si -1.97909 45.4664 4.4844 2.4 -32.0732 9.89247e+06 9.45575e+06 8.22217e+06 129995 -160212 346292
263 3 O -2.04947 43.8532 4.4844 -1.2 -9.86548 -3.15382e+06 -450306 -3.57183e+06 442482 -6007.93 -238844
264 3 O 1.65063 46.4405 4.4844 -1.2 -9.65464 -2.86708e+06 -2.9414e+06 -2.8237e+06 2.30662e+06 -195188 -107831
265 3 O -1.24745 46.1726 3.18632 -1.2 -9.39255 -1.90719e+06 -3.87835e+06 -1.20717e+06 1.13945e+06 114358 -1.63645e+06
266 3 O -1.26044 46.1726 5.78248 -1.2 -9.31808 -2.12815e+06 -3.93919e+06 -1.3538e+06 1.15046e+06 47759.8 1.32397e+06
267 1 Mg 2.15896 45.1155 2.9896 1.2 -7.52155 3.85355e+06 -1.2701e+06 -939698 -1.06736e+06 -1.68727e+06 -1.25633e+06
268 1 Mg 4.97763 45.0742 4.4844 1.2 -8.28321 -1.3806e+06 2.71786e+06 2.8648e+06 1.20184e+06 -63539.5 301973