ITEM: TIMESTEP
60500
ITEM: NUMBER OF ATOMS
10500
ITEM: BOX BOUNDS xy xz yz pp pp pp
0.0000000000000000e+00 1.5297749999999999e+01 5.0992499999999996e+00
0.0000000000000000e+00 1.1872499999999999e+02 0.0000000000000000e+00
0.0000000000000000e+00 8.9688000000000002e+01 0.0000000000000000e+00
ITEM: ATOMS id type element xu yu zu q c_pe c_s[1] c_s[2] c_s[3] c_s[4] c_s[5] c_s[6]
1 1 Mg 6.2404 -6.37941e-06 0 1.2 -4.35713 7.81167e+06 -1.81625e+06 -6.27629e+06 3461.66 2.6084e+06 -257863
2 1 Mg 3.46349 4.70768 1.4948 1.2 -8.2646 -691810 3.01575e+06 4.0135e+06 -937845 -635312 -118473
3 2 Si 5.2885 2.02354 1.4948 2.4 -34.9307 9.54278e+06 1.13151e+07 1.08997e+07 8.86916e+06 655399 -3.50686e+06
4 3 O 5.33628 3.63678 1.4948 -1.2 -4.93115 -532678 -1.73439e+06 -3.3331e+07 -333748 3.82746e+06 -3.64769e+06
5 3 O 1.67294 1.04952 1.4948 -1.2 -1.16639 -2.00989e+07 -7.94612e+07 -2.06597e+06 -2.41046e+07 -142714 74754.8
6 3 O 4.59532 1.31737 0.196716 -1.2 -3.1534 -1.76974e+06 -6.85592e+06 -3.03e+07 -6.02146e+06 6.23549e+06 -2.5121e+06
7 1 Mg 6.18956 -6.37941e-06 2.9896 1.2 -4.85494 1.45913e+06 -2.83644e+07 -2.85172e+06 -8.82001e+06 2.40646e+06 3.87593e+06
8 3 O 4.55118 1.31737 2.79288 -1.2 -7.64282 376113 -4.72548e+06 -3.14727e+06 -2.95454e+06 -3.36205e+06 -876495
9 1 Mg -1.20682 0.0413099 4.4844 1.2 9.01539 -3.07963e+07 -9.37033e+07 -49061.7 -2.84775e+07 -1.18433e+06 -2527.97
10 2 Si -3.0337 2.72544 4.4844 2.4 -32.5599 1.37329e+07 7.105e+06 7.69773e+06 1.79016e+06 253421 -1.15889e+06
11 3 O -3.08099 1.11221 4.4844 -1.2 -9.77856 -6.02546e+06 227564 -2.24156e+06 -1.29487e+06 -200422 523781
12 3 O 0.582463 3.69946 4.4844 -1.2 -9.24732 -2.65897e+06 -5.68547e+06 -2.79804e+06 -526091 -157897 4960.21
13 3 O -2.29524 3.43162 3.18632 -1.2 -9.30995 -3.87176e+06 -2.69882e+06 -351266 1.06002e+06 -889957 -748652
14 3 O -2.34216 3.43162 5.78248 -1.2 -9.2543 -3.35691e+06 -3.30944e+06 -1.34392e+06 611886 292253 1.4535e+06
15 1 Mg 1.12778 2.37449 2.9896 1.2 -7.41732 4.80806e+06 -1.5112e+06 -732491 -3.31081e+06 -4.17357e+06 -2.45991e+06
16 1 Mg 3.92855 2.33318 4.4844 1.2 -8.2418 -4.56977e+06 5.00932e+06 4.79187e+06 1.34624e+06 188472 135971
17 2 Si 2.09341 4.39804 4.4844 2.4 -31.7731 1.0707e+07 7.36611e+06 8.763e+06 125982 -455479 363017
18 3 O 2.09991 6.01128 4.4844 -1.2 -9.81857 -3.31586e+06 -219287 -3.88153e+06 493270 -69890.6 -152878
19 3 O -4.52137 3.42402 4.4844 -1.2 -9.50295 -2.56554e+06 -3.05869e+06 -3.25821e+06 -2.45265e+06 -838303 321361
20 3 O 2.80834 3.69187 3.18632 -1.2 -9.57238 -1.66031e+06 -3.07131e+06 -252326 485283 -431563 -291685
21 1 Mg 1.17857 2.37449 0 1.2 -4.98679 -903356 -1.45502e+07 -6.63922e+06 6.50765e+06 1.22461e+06 4.35618e+06
22 3 O 2.76143 3.69187 5.78248 -1.2 -9.69253 -1.97423e+06 -2.79181e+06 -1.17183e+06 650190 207835 158299
23 1 Mg -1.67381 2.41581 1.4948 1.2 -7.4094 1.30513e+06 -34355.5 3.86701e+06 1.37074e+06 -581120 802834
24 2 Si 0.16286 0.350945 1.4948 2.4 -24.3757 -8.50751e+06 1.2424e+07 1.14356e+07 1.57788e+06 2.8731e+06 947497
25 3 O 0.15972 -1.26229 1.4948 -1.2 -4.78278 -1.06579e+07 -7.83099e+06 -2.91338e+07 -5.60004e+06 -8.54707e+06 -2.63176e+06
26 3 O 6.77654 1.32496 1.4948 -1.2 -10.491 -5.5667e+06 1.6813e+06 -1.25047e+06 -663371 -630089 1.25702e+06
27 3 O -0.508028 1.05712 0.196716 -1.2 -9.63733 293834 -4.82226e+06 -562226 -556843 203735 -4.38883e+06
28 3 O -0.552171 1.05712 2.79288 -1.2 -6.93269 -5.13025e+06 -4.57601e+06 -2.46707e+07 1.41731e+06 -6.82102e+06 -5.34195e+06
29 1 Mg 6.31713 4.74899 0 1.2 -4.74968 151591 -1.25597e+07 -6.53438e+06 -7.31692e+06 1.41236e+06 -3.8634e+06
30 1 Mg 3.54847 9.45668 1.4948 1.2 -8.11129 -127664 1.8385e+06 4.35959e+06 -937519 -922135 -288381
31 2 Si 5.36879 6.77254 1.4948 2.4 -33.8333 6.65921e+06 1.25587e+07 1.09373e+07 1.64857e+06 133831 -2.14448e+06
32 3 O 5.41937 8.38578 1.4948 -1.2 -4.98821 5417.74 -1.10469e+06 -3.50114e+07 772810 1.11706e+06 -4.21835e+06
33 3 O 1.75158 5.79852 1.4948 -1.2 -9.71522 -3.58244e+06 -2.65569e+06 -1.20851e+06 1.9575e+06 -1.58831e+06 -1.19494e+06
34 3 O 4.67421 6.06637 0.196716 -1.2 -3.95872 404091 -1.04341e+07 -3.1107e+07 -2.00622e+06 1.27511e+06 -4.21683e+06
35 1 Mg 6.26654 4.74899 2.9896 1.2 -7.74404 3.77996e+06 -1.41354e+06 -388914 1.80326e+06 -826001 1.78736e+06
36 3 O 4.63043 6.06637 2.79288 -1.2 -9.13133 -1.20934e+06 -4.22707e+06 -1.89219e+06 937109 -61943.6 -1.41294e+06
37 1 Mg -1.12976 4.79031 4.4844 1.2 -8.47458 -1.20923e+06 2.93834e+06 2.7182e+06 -681310 -291491 -134863
38 2 Si -2.9517 7.47444 4.4844 2.4 -32.0727 1.04491e+07 8.97849e+06 8.11137e+06 -178076 95581.2 49954.8
39 3 O -3.00198 5.86121 4.4844 -1.2 -9.82477 -3.565e+06 -282453 -3.4413e+06 104451 -376858 25432.6
40 3 O 0.666315 8.44846 4.4844 -1.2 -9.6018 -2.74183e+06 -2.70018e+06 -3.24204e+06 2.06644e+06 -547419 -991.635
41 3 O -2.21213 8.18062 3.18632 -1.2 -9.39895 -2.5408e+06 -3.49744e+06 -446003 1.1523e+06 -332837 -1.46366e+06
42 3 O -2.25864 8.18062 5.78248 -1.2 -9.4914 -2.46665e+06 -3.60089e+06 -1.35991e+06 1.25256e+06 -213118 1.41226e+06
43 1 Mg 1.20893 7.12349 2.9896 1.2 -7.72586 3.59629e+06 -1.42267e+06 -245888 -1.25229e+06 -1.32952e+06 -1.69756e+06
44 1 Mg 4.00982 7.08218 4.4844 1.2 -8.32043 -1.42976e+06 2.6755e+06 3.00575e+06 1.05933e+06 -395365 275451
45 2 Si 2.17861 9.14704 4.4844 2.4 -32.216 9.90154e+06 9.04259e+06 8.80208e+06 754014 31529.2 317856
46 3 O 2.18828 10.7603 4.4844 -1.2 -9.76304 -3.31743e+06 -168477 -3.99339e+06 391524 -302247 -160192
47 3 O -4.43805 8.17302 4.4844 -1.2 -9.67207 -2.87857e+06 -2.66153e+06 -3.0105e+06 -1.46668e+06 -388966 -220108
48 3 O 2.89193 8.44087 3.18632 -1.2 -9.38348 -2.26097e+06 -3.6962e+06 -700575 -970157 -214069 1.19199e+06
49 1 Mg 1.25915 7.12349 0 1.2 -5.15137 636038 -7.32026e+06 -6.50865e+06 5.91407e+06 1.37144e+06 2.43092e+06
50 3 O 2.84547 8.44087 5.78248 -1.2 -9.3233 -2.09576e+06 -3.83911e+06 -2.06276e+06 -1.01683e+06 -149730 -1.34325e+06
51 1 Mg -1.59284 7.16481 1.4948 1.2 -8.02017 479855 1.57497e+06 4.0686e+06 1.44445e+06 -906182 235429
52 2 Si 0.240329 5.09994 1.4948 2.4 -33.6401 7.50221e+06 1.15089e+07 1.08351e+07 -1.95216e+06 -1.05257e+06 1.58635e+06
53 3 O 0.234538 3.48671 1.4948 -1.2 -5.41351 -1.42268e+06 143228 -3.35815e+07 401087 5.17372e+06 4.17504e+06
54 3 O 6.85564 6.07396 1.4948 -1.2 -9.81376 -4.10982e+06 -2.08121e+06 -1.06e+06 -1.32946e+06 -1.83757e+06 1.30832e+06
55 3 O -0.429565 5.80612 0.196716 -1.2 -4.19994 -350012 -9.08009e+06 -3.12772e+07 1.84769e+06 1.21661e+06 4.77477e+06
56 3 O -0.473377 5.80612 2.79288 -1.2 -9.20113 -1.67401e+06 -3.77136e+06 -1.86953e+06 -784263 271646 1.40894e+06
57 1 Mg 6.40169 9.49799 0 1.2 -5.10268 1.33923e+06 -6.32556e+06 -6.77352e+06 -5.50326e+06 1.00377e+06 -2.50663e+06
58 1 Mg 3.64209 14.2057 1.4948 1.2 -8.14303 -265245 1.8278e+06 4.51784e+06 -1.03744e+06 -972318 -165664
59 2 Si 5.45748 11.5215 1.4948 2.4 -33.8057 6.8197e+06 1.17115e+07 1.15557e+07 908711 307041 -1.96783e+06
60 3 O 5.51101 13.1348 1.4948 -1.2 -5.03894 -114842 -861448 -3.48723e+07 456828 -2.52042e+06 -4.45366e+06
61 3 O 1.83851 10.5475 1.4948 -1.2 -9.79812 -3.81623e+06 -1.92469e+06 -1.30099e+06 1.52552e+06 -1.601e+06 -1.15127e+06
62 3 O 4.7611 10.8154 0.196716 -1.2 -3.80236 869499 -1.15222e+07 -3.19573e+07 -2.48177e+06 -1.78004e+06 -4.30753e+06
63 1 Mg 6.35203 9.49799 2.9896 1.2 -7.68194 3.70494e+06 -1.56032e+06 -268810 1.28562e+06 -1.24263e+06 2.11313e+06
64 3 O 4.71833 10.8154 2.79288 -1.2 -9.13703 -1.36014e+06 -3.76856e+06 -2.19805e+06 1.03508e+06 66901.6 -1.44543e+06
65 1 Mg -1.0438 9.53931 4.4844 1.2 -8.30596 -1.32294e+06 2.5143e+06 2.94731e+06 -627543 -198578 35728
66 2 Si -2.8604 12.2234 4.4844 2.4 -32.203 1.05409e+07 8.55692e+06 8.65811e+06 -18271.9 -336103 417555
67 3 O -2.91391 10.6102 4.4844 -1.2 -9.82764 -3.51931e+06 -91827 -3.66925e+06 281543 -59175.7 -235638
68 3 O 0.7596 13.1975 4.4844 -1.2 -9.56659 -2.89565e+06 -2.58407e+06 -3.25475e+06 2.20109e+06 -596222 -109144
69 3 O -2.12001 12.9296 3.18632 -1.2 -9.36862 -2.50871e+06 -3.37105e+06 -653249 1.14865e+06 -189589 -1.66672e+06
70 3 O -2.16532 12.9296 5.78248 -1.2 -9.33135 -2.61309e+06 -3.41392e+06 -1.74122e+06 1.05651e+06 50311.3 1.15456e+06
71 1 Mg 1.29891 11.8725 2.9896 1.2 -7.72257 3.71078e+06 -1.57762e+06 -213927 -1.18372e+06 -1.15046e+06 -1.56137e+06
72 1 Mg 4.10033 11.8312 4.4844 1.2 -8.40806 -1.34844e+06 2.4037e+06 3.33921e+06 1.1509e+06 -312803 244118
73 2 Si 2.27333 13.896 4.4844 2.4 -32.2881 1.02062e+07 8.80922e+06 8.84514e+06 526239 111697 180689
74 3 O 2.28634 15.5093 4.4844 -1.2 -9.76264 -3.39548e+06 -231593 -3.8577e+06 541955 -179837 -49505.4
75 3 O -4.34533 12.922 4.4844 -1.2 -9.58585 -2.94181e+06 -2.42455e+06 -3.30104e+06 -1.51752e+06 -341471 -184934
76 3 O 2.98455 13.1899 3.18632 -1.2 -9.36811 -2.34538e+06 -3.51587e+06 -841332 -944400 -191012 1.18865e+06
77 1 Mg 1.34779 11.8725 0 1.2 -5.33885 2.48916e+06 -2.78569e+06 -6.6976e+06 3.56451e+06 794557 1.66574e+06
78 3 O 2.93934 13.1899 5.78248 -1.2 -9.21736 -2.26896e+06 -3.6525e+06 -2.22572e+06 -856076 -341688 -1.18527e+06
79 1 Mg -1.50344 11.9138 1.4948 1.2 -8.09822 176881 1.71971e+06 4.33574e+06 1.55076e+06 -949645 513213
80 2 Si 0.326006 9.84894 1.4948 2.4 -33.7797 6.87544e+06 1.18978e+07 1.12443e+07 -604425 145253 2.33438e+06
81 3 O 0.317364 8.23571 1.4948 -1.2 -4.98456 -72086.1 -981990 -3.51915e+07 -131029 1.16608e+06 4.23361e+06
82 3 O 6.94307 10.823 1.4948 -1.2 -9.847 -4.03327e+06 -1.71995e+06 -1.16981e+06 -973167 -1.50779e+06 978249
83 3 O -0.343122 10.5551 0.196716 -1.2 -3.9031 554627 -1.09993e+07 -3.19689e+07 2.47456e+06 -2.03051e+06 4.48693e+06
84 3 O -0.385966 10.5551 2.79288 -1.2 -9.18982 -1.47813e+06 -3.84497e+06 -2.06501e+06 -844008 48269.1 1.02532e+06
85 1 Mg 6.49448 14.247 0 1.2 -5.26774 2.93749e+06 -1.97599e+06 -6.88464e+06 -2.95467e+06 256859 -1.38788e+06
86 1 Mg 3.74457 18.9547 1.4948 1.2 -8.14965 -572879 2.24447e+06 4.3422e+06 -1.12255e+06 -995410 -34078.4
87 2 Si 5.55495 16.2705 1.4948 2.4 -33.6683 6.93261e+06 1.16734e+07 1.12794e+07 528340 757404 -1.96714e+06
88 3 O 5.6115 17.8838 1.4948 -1.2 -5.43033 -1.04864e+06 -1.02237e+06 -3.19203e+07 85013.9 -6.03212e+06 -4.33505e+06
89 3 O 1.93416 15.2965 1.4948 -1.2 -9.878 -3.83777e+06 -1.64091e+06 -1.18537e+06 1.5492e+06 -1.3821e+06 -1.19172e+06
90 3 O 4.85636 15.5644 0.196716 -1.2 -3.8904 983228 -1.32845e+07 -3.03347e+07 -3.03544e+06 -5.11861e+06 -3.91695e+06
91 1 Mg 6.44662 14.247 2.9896 1.2 -7.67992 3.77393e+06 -1.67512e+06 -227123 1.31771e+06 -1.23672e+06 2.11503e+06
92 3 O 4.81537 15.5644 2.79288 -1.2 -9.15398 -1.34838e+06 -3.85073e+06 -2.13158e+06 1.0751e+06 7362.03 -1.37233e+06
93 1 Mg -0.948271 14.2883 4.4844 1.2 -8.37503 -1.30809e+06 2.39787e+06 3.15303e+06 -535211 -266573 136925
94 2 Si -2.75928 16.9724 4.4844 2.4 -32.1263 1.04305e+07 8.99879e+06 8.19977e+06 51298.3 -22365 -58828.3
95 3 O -2.81617 15.3592 4.4844 -1.2 -9.78832 -3.51279e+06 -66393.3 -3.74969e+06 207367 -136606 -63508
96 3 O 0.862762 17.9465 4.4844 -1.2 -9.59171 -2.70555e+06 -2.90648e+06 -3.09527e+06 2.12603e+06 -530862 -4170.01
97 3 O -2.0185 17.6786 3.18632 -1.2 -9.40756 -2.39497e+06 -3.64495e+06 -452927 1.14499e+06 -186752 -1.59708e+06
98 3 O -2.06164 17.6786 5.78248 -1.2 -9.40361 -2.4379e+06 -3.72604e+06 -1.37493e+06 1.06548e+06 -247611 1.4991e+06
99 1 Mg 1.39817 16.6215 2.9896 1.2 -7.68075 3.71823e+06 -1.42662e+06 -441491 -1.1737e+06 -1.21407e+06 -1.53843e+06
100 1 Mg 4.20062 16.5802 4.4844 1.2 -8.34179 -1.28635e+06 2.65524e+06 2.91979e+06 1.0859e+06 -341010 48883.8
101 2 Si 2.37796 18.645 4.4844 2.4 -32.1723 9.85837e+06 9.59092e+06 8.22154e+06 775393 -142296 279558
102 3 O 2.39434 20.2583 4.4844 -1.2 -9.78866 -3.21319e+06 -587415 -3.65281e+06 462794 -192553 -187149
103 3 O -4.24274 17.671 4.4844 -1.2 -9.68564 -2.9668e+06 -2.76586e+06 -2.79482e+06 -1.38683e+06 -419932 -38330.1
104 3 O 3.08659 17.9389 3.18632 -1.2 -9.42044 -2.26006e+06 -3.83268e+06 -569484 -928031 -28297.2 1.15779e+06
105 1 Mg 1.44478 16.6215 0 1.2 -5.36285 4.01828e+06 324168 -6.85543e+06 1.38773e+06 -51337.8 1.08606e+06
106 3 O 3.0436 17.9389 5.78248 -1.2 -9.35444 -2.10979e+06 -4.129e+06 -1.61492e+06 -905308 26419.2 -1.31617e+06
107 1 Mg -1.40524 16.6628 1.4948 1.2 -8.11905 -121397 2.00261e+06 4.33684e+06 1.70229e+06 -951967 531843
108 2 Si 0.420358 14.5979 1.4948 2.4 -33.7218 6.8939e+06 1.16916e+07 1.13236e+07 -151598 595828 2.79093e+06
109 3 O 0.408732 12.9847 1.4948 -1.2 -5.03098 -162481 -864808 -3.49683e+07 235929 -2.57937e+06 4.1234e+06
110 3 O 7.03923 15.572 1.4948 -1.2 -9.92634 -4.00502e+06 -1.47834e+06 -1.07102e+06 -959070 -1.30001e+06 870290
111 3 O -0.248332 15.3041 0.196716 -1.2 -3.99134 625744 -1.28025e+07 -3.03502e+07 3.25817e+06 -5.42282e+06 3.83384e+06
112 3 O -0.289436 15.3041 2.79288 -1.2 -9.18707 -1.38592e+06 -3.91577e+06 -2.13152e+06 -858593 12963.1 941498
113 1 Mg 6.59566 18.996 0 1.2 -5.29341 4.19329e+06 885012 -6.91707e+06 -923896 -681500 -642646
114 1 Mg 3.85574 23.7037 1.4948 1.2 -8.25588 -805878 2.40974e+06 4.44026e+06 -1.17114e+06 -943909 2865.28
115 2 Si 5.66125 21.0195 1.4948 2.4 -33.4982 7.26225e+06 1.17238e+07 1.06887e+07 184389 1.1767e+06 -1.81097e+06
116 3 O 5.72074 22.6328 1.4948 -1.2 -6.03698 -2.71316e+06 -1.00737e+06 -2.69578e+07 -229768 -8.50339e+06 -3.93561e+06
117 3 O 2.03867 20.0455 1.4948 -1.2 -9.96086 -3.73865e+06 -1.6381e+06 -952325 1.56414e+06 -1.15238e+06 -1.23163e+06
118 3 O 4.96004 20.3134 0.196716 -1.2 -4.29632 379369 -1.49482e+07 -2.62307e+07 -3.17838e+06 -7.94222e+06 -3.00748e+06
119 1 Mg 6.55057 18.996 2.9896 1.2 -7.5947 3.81214e+06 -1.33665e+06 -739829 1.28731e+06 -1.23075e+06 2.14255e+06
120 3 O 4.92172 20.3134 2.79288 -1.2 -9.1926 -1.29066e+06 -4.17513e+06 -1.841e+06 1.0825e+06 -6050 -1.49297e+06
121 1 Mg -0.84282 19.0373 4.4844 1.2 -8.31657 -1.51832e+06 2.82924e+06 2.83078e+06 -501668 -139137 384.683
122 2 Si -2.64823 21.7214 4.4844 2.4 -32.0863 1.04839e+07 9.65482e+06 7.42927e+06 1516.95 -139891 645727
123 3 O -2.70847 20.1082 4.4844 -1.2 -9.88319 -3.47092e+06 -552110 -3.15741e+06 349399 -159992 -147825
124 3 O 0.97581 22.6955 4.4844 -1.2 -9.53962 -2.8433e+06 -3.05733e+06 -2.89929e+06 2.3033e+06 -578166 -225262
125 3 O -1.9076 22.4276 3.18632 -1.2 -9.37751 -2.40211e+06 -3.82537e+06 -350896 1.17348e+06 -96657.4 -1.82763e+06
126 3 O -1.9475 22.4276 5.78248 -1.2 -9.38843 -2.46459e+06 -4.07315e+06 -975005 1.17193e+06 -20969.6 928366
127 1 Mg 1.50678 21.3705 2.9896 1.2 -7.65637 3.75958e+06 -1.19491e+06 -753574 -1.16866e+06 -1.21074e+06 -1.38638e+06
128 1 Mg 4.31086 21.3292 4.4844 1.2 -8.34541 -1.3661e+06 2.85065e+06 2.81291e+06 1.21493e+06 -445442 290619
129 2 Si 2.49243 23.394 4.4844 2.4 -32.3403 1.02417e+07 9.53963e+06 8.15574e+06 636135 -108631 388106
130 3 O 2.51204 25.0073 4.4844 -1.2 -9.66242 -3.61232e+06 -373389 -3.6807e+06 555243 -78887.1 -173316
131 3 O -4.13026 22.42 4.4844 -1.2 -9.65155 -3.066e+06 -2.86368e+06 -2.64992e+06 -1.47768e+06 -340131 -374854
132 3 O 3.19799 22.6879 3.18632 -1.2 -9.3803 -2.2884e+06 -3.91498e+06 -581210 -929520 55427.8 1.0591e+06
133 1 Mg 1.5501 21.3705 0 1.2 -5.36244 4.78157e+06 2.05148e+06 -6.5687e+06 -47950.1 -993113 721245
134 3 O 3.1583 22.6879 5.78248 -1.2 -9.22591 -2.12978e+06 -4.1303e+06 -1.82104e+06 -922688 -101204 -1.2322e+06
135 1 Mg -1.29822 21.4118 1.4948 1.2 -8.1635 -410435 2.39598e+06 4.19932e+06 1.7959e+06 -918286 570096
136 2 Si 0.523568 19.3469 1.4948 2.4 -33.5511 6.96793e+06 1.18885e+07 1.08073e+07 323368 1.04161e+06 3.05408e+06
137 3 O 0.508934 17.7337 1.4948 -1.2 -5.41188 -1.05267e+06 -997182 -3.2105e+07 662133 -6.10266e+06 3.87939e+06
138 3 O 7.14425 20.321 1.4948 -1.2 -10.0152 -3.95042e+06 -1.50426e+06 -766778 -930482 -1.07116e+06 752349
139 3 O -0.145107 20.0531 0.196716 -1.2 -4.39601 4186.51 -1.45859e+07 -2.62612e+07 3.67292e+06 -8.19714e+06 2.78694e+06
140 3 O -0.183601 20.0531 2.79288 -1.2 -9.22516 -1.27928e+06 -4.2939e+06 -1.84914e+06 -847264 -79478.1 841550
141 1 Mg 6.70502 23.745 0 1.2 -5.38728 4.67222e+06 2.19712e+06 -6.17394e+06 406668 -1.43998e+06 -407136
142 1 Mg 3.97493 28.4527 1.4948 1.2 -8.41892 -972116 2.38482e+06 4.66005e+06 -1.21035e+06 -775825 -189953
143 2 Si 5.77602 25.7685 1.4948 2.4 -33.513 8.07866e+06 1.07646e+07 1.09428e+07 -78197.2 1.59326e+06 -2.03983e+06
144 3 O 5.83821 27.3818 1.4948 -1.2 -6.74554 -4.56628e+06 -628942 -2.11121e+07 -354053 -9.32507e+06 -3.09399e+06
145 3 O 2.15175 24.7945 1.4948 -1.2 -9.92981 -3.82201e+06 -1.32773e+06 -1.09529e+06 1.61912e+06 -887063 -1.09722e+06
146 3 O 5.07184 25.0624 0.196716 -1.2 -4.88484 -907460 -1.54945e+07 -2.08335e+07 -2.8023e+06 -9.44102e+06 -1.57634e+06
147 1 Mg 6.66374 23.745 2.9896 1.2 -7.64843 3.96639e+06 -1.39871e+06 -743022 1.34757e+06 -1.22878e+06 2.25762e+06
148 3 O 5.03707 25.0624 2.79288 -1.2 -9.09926 -1.47275e+06 -4.01248e+06 -2.01173e+06 1.05407e+06 -150707 -1.4255e+06
149 1 Mg -0.727559 23.7863 4.4844 1.2 -8.45197 -1.37981e+06 2.78984e+06 2.94121e+06 -579784 -207362 374311
150 2 Si -2.5277 26.4704 4.4844 2.4 -32.6078 1.07536e+07 8.91999e+06 8.74693e+06 -41573.3 -2397.2 366219
151 3 O -2.59107 24.8572 4.4844 -1.2 -9.67134 -3.59608e+06 -303254 -3.59599e+06 325149 -182229 -338658
152 3 O 1.09817 27.4445 4.4844 -1.2 -9.37921 -3.23425e+06 -2.65204e+06 -3.1779e+06 2.24844e+06 -375550 63695.7
153 3 O -1.78784 27.1766 3.18632 -1.2 -9.21356 -2.48251e+06 -3.52073e+06 -890504 1.19558e+06 14341.1 -1.55248e+06
154 3 O -1.82343 27.1766 5.78248 -1.2 -8.9249 -2.67309e+06 -3.69907e+06 -2.09883e+06 1.29849e+06 51646.7 1.39186e+06
155 1 Mg 1.62435 26.1195 2.9896 1.2 -7.74992 4.09255e+06 -1.48124e+06 -647296 -1.16532e+06 -1.35224e+06 -1.49577e+06
156 1 Mg 4.43064 26.0782 4.4844 1.2 -8.49048 -942607 2.57587e+06 2.89503e+06 1.27295e+06 -243913 221399
157 2 Si 2.61607 28.143 4.4844 2.4 -32.5738 1.10517e+07 8.75086e+06 8.50774e+06 842261 -168084 -174415
158 3 O 2.63853 29.7563 4.4844 -1.2 -9.62399 -3.84119e+06 -147691 -3.74408e+06 538190 -101968 292487
159 3 O -4.00841 27.169 4.4844 -1.2 -9.44182 -3.29793e+06 -2.54823e+06 -3.05805e+06 -1.3785e+06 -515661 -187484
160 3 O 3.3182 27.4369 3.18632 -1.2 -9.26404 -2.54834e+06 -3.63173e+06 -868654 -932182 115495 1.27499e+06
161 1 Mg 1.66335 26.1195 0 1.2 -5.4918 4.75501e+06 2.48972e+06 -5.55382e+06 -909062 -1.63424e+06 302368
162 3 O 3.28288 27.4369 5.78248 -1.2 -9.05851 -2.82899e+06 -3.63987e+06 -1.8762e+06 -1.02051e+06 -42058.9 -1.2833e+06
163 1 Mg -1.18278 26.1608 1.4948 1.2 -8.33059 -618154 2.35446e+06 4.52406e+06 1.86928e+06 -825326 292079
164 2 Si 0.635424 24.0959 1.4948 2.4 -33.5101 7.64488e+06 1.13158e+07 1.07049e+07 708743 1.33891e+06 3.00274e+06
165 3 O 0.617906 22.4827 1.4948 -1.2 -6.02566 -2.7329e+06 -1.00965e+06 -2.70882e+07 1.02338e+06 -8.54415e+06 3.36955e+06
166 3 O 7.25781 25.07 1.4948 -1.2 -9.96845 -3.98024e+06 -1.16996e+06 -1.02589e+06 -938510 -876794 843846
167 3 O -0.0337363 24.8021 0.196716 -1.2 -4.99258 -1.30888e+06 -1.54743e+07 -2.06914e+07 3.5203e+06 -9.62097e+06 1.69631e+06
168 3 O -0.0687235 24.8021 2.79288 -1.2 -9.13014 -1.43069e+06 -4.15398e+06 -2.04065e+06 -795220 -71059.4 787340
169 1 Mg 6.82195 28.494 0 1.2 -5.59831 4.31937e+06 2.45114e+06 -4.85747e+06 1.16601e+06 -1.79549e+06 -539925
170 1 Mg 4.10106 33.2017 1.4948 1.2 -8.52947 -1.25288e+06 2.65576e+06 4.50656e+06 -1.20097e+06 -518331 -174817
171 2 Si 5.89839 30.5175 1.4948 2.4 -33.4627 8.96457e+06 9.97103e+06 1.08528e+07 -313453 1.75646e+06 -2.43174e+06
172 3 O 5.96289 32.1308 1.4948 -1.2 -7.55284 -5.75995e+06 -571598 -1.50271e+07 -296069 -8.49786e+06 -2.30554e+06
173 3 O 2.27266 29.5435 1.4948 -1.2 -9.86276 -3.92058e+06 -1.05207e+06 -1.33202e+06 1.65691e+06 -687996 -775446
174 3 O 5.19102 29.8114 0.196716 -1.2 -5.64806 -2.40683e+06 -1.49065e+07 -1.48962e+07 -1.94368e+06 -9.29623e+06 -47513.9
175 1 Mg 6.78546 28.494 2.9896 1.2 -7.75151 4.11656e+06 -1.6438e+06 -477446 1.3129e+06 -1.2571e+06 1.89204e+06
176 3 O 5.16061 29.8114 2.79288 -1.2 -9.03204 -1.6034e+06 -3.88578e+06 -2.15329e+06 1.08932e+06 -280313 -1.04005e+06
177 1 Mg -0.603205 28.5353 4.4844 1.2 -8.59629 -1.20402e+06 2.51453e+06 3.26303e+06 -530040 -320260 -144398
178 2 Si -2.39877 31.2194 4.4844 2.4 -32.5721 1.04117e+07 9.27505e+06 8.67282e+06 103857 -247755 -610603
179 3 O -2.46483 29.6062 4.4844 -1.2 -9.56209 -3.58104e+06 -198056 -3.88468e+06 407093 -37107.3 184264
180 3 O 1.22864 32.1935 4.4844 -1.2 -9.5009 -3.18413e+06 -2.96056e+06 -2.74111e+06 2.29493e+06 -272597 332801
181 3 O -1.66032 31.9256 3.18632 -1.2 -9.2033 -2.37906e+06 -3.72635e+06 -889080 1.15966e+06 137543 -1.28172e+06
182 3 O -1.69072 31.9256 5.78248 -1.2 -9.12075 -2.19957e+06 -4.03016e+06 -1.66632e+06 1.14759e+06 237479 1.7318e+06
183 1 Mg 1.7499 30.8685 2.9896 1.2 -7.75066 4.25916e+06 -1.46739e+06 -820123 -1.14415e+06 -1.4216e+06 -1.81799e+06
184 1 Mg 4.55894 30.8272 4.4844 1.2 -8.5021 -958509 2.56445e+06 2.94351e+06 1.2449e+06 -49959.2 -311025
185 2 Si 2.7476 32.892 4.4844 2.4 -32.3073 1.08407e+07 9.52893e+06 7.51285e+06 732007 -127106 -426873
186 3 O 2.77235 34.5053 4.4844 -1.2 -9.72191 -3.76278e+06 -425209 -3.39439e+06 617088 -51672.5 -46071
187 3 O -3.87837 31.918 4.4844 -1.2 -9.49565 -3.10691e+06 -2.84281e+06 -2.87411e+06 -1.37111e+06 -509221 283060
188 3 O 3.44611 32.1859 3.18632 -1.2 -9.27061 -2.5149e+06 -3.84102e+06 -775361 -880805 139007 1.49192e+06
189 1 Mg 1.7837 30.8685 0 1.2 -5.68827 3.93717e+06 2.52948e+06 -4.52171e+06 -1.34865e+06 -1.56506e+06 243415
190 3 O 3.41602 32.1859 5.78248 -1.2 -9.32111 -2.55369e+06 -4.07464e+06 -1.16608e+06 -886421 -187557 -741244
191 1 Mg -1.05984 30.9098 1.4948 1.2 -8.46451 -897429 2.51695e+06 4.55357e+06 1.89886e+06 -649817 -31323.1
192 2 Si 0.755243 28.8449 1.4948 2.4 -33.5097 8.63808e+06 1.02743e+07 1.08374e+07 1.11322e+06 1.53009e+06 2.26573e+06
193 3 O 0.735127 27.2317 1.4948 -1.2 -6.74337 -4.64176e+06 -620802 -2.11853e+07 1.19042e+06 -9.28664e+06 3.03961e+06
194 3 O 7.37914 29.819 1.4948 -1.2 -9.89272 -3.98621e+06 -939560 -1.3388e+06 -932105 -639574 1.14924e+06
195 3 O 0.0850649 29.5511 0.196716 -1.2 -5.7241 -2.70505e+06 -1.52288e+07 -1.48002e+07 2.71056e+06 -9.42361e+06 586398
196 3 O 0.0543974 29.5511 2.79288 -1.2 -9.07152 -1.60653e+06 -4.02905e+06 -2.13828e+06 -815248 -71090.1 1.15263e+06
197 1 Mg 6.94543 33.243 0 1.2 -5.81606 3.34379e+06 2.52775e+06 -3.93611e+06 1.57981e+06 -1.39625e+06 -793798
198 1 Mg 4.23267 37.9507 1.4948 1.2 -8.69062 -1.3646e+06 2.50291e+06 4.61483e+06 -1.12579e+06 -198391 26475.5
199 2 Si 6.02709 35.2665 1.4948 2.4 -33.3913 9.88084e+06 9.21354e+06 1.06297e+07 -397582 1.72166e+06 -1.92431e+06
200 3 O 6.09339 36.8798 1.4948 -1.2 -8.22139 -6.18052e+06 -273480 -1.03268e+07 -142832 -6.67517e+06 -1.97818e+06
201 3 O 2.40018 34.2925 1.4948 -1.2 -9.79908 -3.93113e+06 -1.0669e+06 -1.46082e+06 1.69988e+06 -483471 -844968
202 3 O 5.31645 34.5604 0.196716 -1.2 -6.48773 -3.54529e+06 -1.32713e+07 -9.61101e+06 -954527 -7.86843e+06 1.05545e+06
203 1 Mg 6.91449 33.243 2.9896 1.2 -7.73022 4.10363e+06 -1.40232e+06 -731883 1.32445e+06 -1.32496e+06 1.81095e+06
204 3 O 5.291 34.5604 2.79288 -1.2 -9.03048 -1.70516e+06 -4.00243e+06 -1.9733e+06 1.1119e+06 -358631 -1.18283e+06
205 1 Mg -0.471101 33.2843 4.4844 1.2 -8.47961 -1.4393e+06 2.91467e+06 2.90347e+06 -450872 -353344 -127537
206 2 Si -2.26307 35.9684 4.4844 2.4 -32.6512 1.0413e+07 9.26783e+06 8.80876e+06 174021 -127195 501957
207 3 O -2.33122 34.3552 4.4844 -1.2 -9.63901 -3.36457e+06 -582040 -3.59883e+06 382453 -52129.4 -29977
208 3 O 1.36549 36.9425 4.4844 -1.2 -9.39529 -3.33846e+06 -2.58499e+06 -3.13176e+06 2.30432e+06 -123594 -210715
209 3 O -1.52658 36.6746 3.18632 -1.2 -9.09406 -2.42741e+06 -3.52207e+06 -1.31284e+06 1.14543e+06 162241 -1.63286e+06
210 3 O -1.55122 36.6746 5.78248 -1.2 -8.96299 -2.37363e+06 -3.76446e+06 -1.99111e+06 1.17631e+06 102962 914617
211 1 Mg 1.882 35.6175 2.9896 1.2 -7.77759 4.37429e+06 -1.49314e+06 -856218 -1.13668e+06 -1.55427e+06 -1.46698e+06
212 1 Mg 4.69415 35.5762 4.4844 1.2 -8.48169 -941762 2.61782e+06 2.84299e+06 1.24232e+06 9370.28 150216
213 2 Si 2.88522 37.641 4.4844 2.4 -32.5778 1.13597e+07 8.51999e+06 8.43634e+06 763964 -332981 448826
214 3 O 2.91159 39.2543 4.4844 -1.2 -9.52182 -4.04283e+06 190052 -4.04002e+06 543655 23849.5 -150600
215 3 O -3.74183 36.667 4.4844 -1.2 -9.41208 -3.27675e+06 -2.60453e+06 -3.0839e+06 -1.36699e+06 -517669 -270033
216 3 O 3.58014 36.9349 3.18632 -1.2 -9.17112 -2.63365e+06 -3.60373e+06 -1.15874e+06 -851794 208763 1.11709e+06
217 1 Mg 1.90997 35.6175 0 1.2 -5.91245 2.86496e+06 2.32584e+06 -3.86537e+06 -1.66105e+06 -830092 767524
218 3 O 3.55582 36.9349 5.78248 -1.2 -9.25994 -2.86137e+06 -3.61371e+06 -1.24663e+06 -807471 -50812.3 -1.41566e+06
219 1 Mg -0.93068 35.6588 1.4948 1.2 -8.59565 -1.11959e+06 2.60688e+06 4.50386e+06 1.85612e+06 -345115 88331.3
220 2 Si 0.881882 33.5939 1.4948 2.4 -33.398 9.53105e+06 9.73511e+06 1.03755e+07 1.39452e+06 1.52505e+06 2.09279e+06
221 3 O 0.859602 31.9807 1.4948 -1.2 -7.55748 -5.8816e+06 -549898 -1.50635e+07 1.16617e+06 -8.43026e+06 2.58589e+06
222 3 O 7.507 34.568 1.4948 -1.2 -9.82074 -3.96936e+06 -962264 -1.51534e+06 -938707 -458474 1.07683e+06
223 3 O 0.210186 34.3001 0.196716 -1.2 -6.54022 -3.7514e+06 -1.3987e+07 -9.45374e+06 1.53607e+06 -7.91144e+06 -619299
224 3 O 0.184454 34.3001 2.79288 -1.2 -9.07755 -1.68951e+06 -4.16817e+06 -1.95464e+06 -833173 -86456.5 955752
225 1 Mg 7.07415 37.992 0 1.2 -6.07131 2.38977e+06 2.12355e+06 -3.3182e+06 1.872e+06 -359943 -1.28234e+06
226 1 Mg 4.36817 42.6997 1.4948 1.2 -8.78149 -1.47501e+06 2.46235e+06 4.5295e+06 -1.00633e+06 142221 49240.7
227 2 Si 6.16058 40.0155 1.4948 2.4 -33.4408 1.0859e+07 7.8349e+06 1.11169e+07 -410002 1.42668e+06 -1.64747e+06
228 3 O 6.22815 41.6288 1.4948 -1.2 -8.72081 -5.87651e+06 28159.2 -7.22289e+06 57947.4 -4.55247e+06 -1.57452e+06
229 3 O 2.53282 39.0415 1.4948 -1.2 -9.63727 -4.03041e+06 -768555 -2.07886e+06 1.70812e+06 -310216 -933119
230 3 O 5.44674 39.3094 0.196716 -1.2 -7.21923 -4.2267e+06 -1.05611e+07 -6.02795e+06 -140266 -5.80591e+06 1.83162e+06
231 1 Mg 7.04922 37.992 2.9896 1.2 -7.8527 4.32984e+06 -1.81369e+06 -339525 1.29278e+06 -1.38554e+06 2.02911e+06
232 3 O 5.42658 39.3094 2.79288 -1.2 -8.9098 -2.03647e+06 -3.51604e+06 -2.35035e+06 1.15934e+06 -387867 -1.25365e+06
233 1 Mg -0.333062 38.0333 4.4844 1.2 -8.6867 -1.19168e+06 2.27439e+06 3.62701e+06 -419669 -298278 186562
234 2 Si -2.12255 40.7174 4.4844 2.4 -32.9694 1.09806e+07 8.25411e+06 9.77931e+06 1401.57 -180858 -214857
235 3 O -2.19212 39.1042 4.4844 -1.2 -9.41308 -3.68312e+06 111809 -4.31876e+06 461067 -50865.2 -42360.5
236 3 O 1.50676 41.6915 4.4844 -1.2 -9.29873 -3.5479e+06 -2.3364e+06 -3.31963e+06 2.15488e+06 -254334 133153
237 3 O -1.3884 41.4236 3.18632 -1.2 -8.98969 -2.58774e+06 -3.23469e+06 -1.70834e+06 1.15819e+06 191816 -1.3712e+06
238 3 O -1.40713 41.4236 5.78248 -1.2 -8.82851 -2.63034e+06 -3.34801e+06 -2.49252e+06 1.23316e+06 275357 1.62005e+06
239 1 Mg 2.01892 40.3665 2.9896 1.2 -7.90697 4.57419e+06 -1.90015e+06 -428505 -1.04629e+06 -1.62424e+06 -1.52077e+06
240 1 Mg 4.83434 40.3252 4.4844 1.2 -8.66786 -676002 2.11699e+06 3.37705e+06 1.16851e+06 -2568.91 82203.2
241 2 Si 3.02698 42.39 4.4844 2.4 -32.7863 1.10786e+07 8.4419e+06 9.13816e+06 981844 12830.4 7916.17
242 3 O 3.05433 44.0033 4.4844 -1.2 -9.5067 -3.70281e+06 -59252.5 -4.15548e+06 511201 -184645 -106480
243 3 O -3.60077 41.416 4.4844 -1.2 -9.30355 -3.51904e+06 -2.2836e+06 -3.32416e+06 -1.18812e+06 -337181 60055.7
244 3 O 3.71851 41.6839 3.18632 -1.2 -9.04644 -2.62012e+06 -3.38958e+06 -1.69242e+06 -857714 206902 1.19717e+06
245 1 Mg 2.04077 40.3665 0 1.2 -6.13955 2.08611e+06 1.84518e+06 -3.66313e+06 -1.82735e+06 379331 1.54767e+06
246 3 O 3.70011 41.6839 5.78248 -1.2 -8.99731 -2.67158e+06 -3.50736e+06 -2.05442e+06 -934702 19973.1 -1.18398e+06
247 1 Mg -0.796865 40.4078 1.4948 1.2 -8.73804 -1.13694e+06 2.38002e+06 4.58452e+06 1.75606e+06 14374.1 17946.2
248 2 Si 1.01387 38.3429 1.4948 2.4 -33.4425 1.05724e+07 8.33696e+06 1.08391e+07 1.54846e+06 1.33284e+06 2.05074e+06
249 3 O 0.989947 36.7297 1.4948 -1.2 -8.23008 -6.30487e+06 -259248 -1.03544e+07 1.0396e+06 -6.56804e+06 1.89758e+06
250 3 O 7.63988 39.317 1.4948 -1.2 -9.65758 -4.0742e+06 -663180 -2.14386e+06 -920093 -292239 1.06774e+06
251 3 O 0.340253 39.0491 0.196716 -1.2 -7.24581 -4.36958e+06 -1.14655e+07 -5.89281e+06 379502 -5.82767e+06 -1.51185e+06
252 3 O 0.319795 39.0491 2.79288 -1.2 -8.9539 -2.01652e+06 -3.6516e+06 -2.37673e+06 -876499 -107367 870192
253 1 Mg 7.20667 42.741 0 1.2 -6.2372 1.7514e+06 1.7677e+06 -3.52195e+06 1.99025e+06 948261 -2.08247e+06
254 1 Mg 4.50613 47.4487 1.4948 1.2 -8.72614 -1.55834e+06 2.66636e+06 4.1169e+06 -852732 453289 402889
255 2 Si 6.29731 44.7645 1.4948 2.4 -33.3093 1.12728e+07 7.33073e+06 1.09733e+07 -259655 885106 -1.13857e+06
256 3 O 6.36567 46.3778 1.4948 -1.2 -9.14865 -5.04857e+06 -54097.5 -5.18268e+06 180620 -2.67269e+06 -1.61464e+06
257 3 O 2.669 43.7905 1.4948 -1.2 -9.53403 -3.93908e+06 -889431 -2.48483e+06 1.70842e+06 -228938 -992771
258 3 O 5.58048 44.0584 0.196716 -1.2 -7.86747 -4.26061e+06 -7.82986e+06 -3.72251e+06 327353 -3.74036e+06 2.26385e+06
259 1 Mg 7.1879 42.741 2.9896 1.2 -7.88788 4.43641e+06 -1.87601e+06 -314105 1.22482e+06 -1.59553e+06 1.87829e+06
260 3 O 5.56564 44.0584 2.79288 -1.2 -8.914 -2.09861e+06 -3.5313e+06 -2.29098e+06 1.16889e+06 -274373 -1.28013e+06
261 1 Mg -0.19105 42.7823 4.4844 1.2 -8.64541 -974940 2.26947e+06 3.34388e+06 -363288 -193369 -189385
262 2 Si -1.97909 45.4664 4.4844 2.4 -32.6351 1.08948e+07 8.85113e+06 8.7229e+06 15862.9 -549375 347185
263 3 O -2.04947 43.8532 4.4844 -1.2 -9.52464 -3.72505e+06 -117255 -3.87768e+06 531257 119449 79785.7
264 3 O 1.65063 46.4405 4.4844 -1.2 -9.4167 -3.40907e+06 -2.60845e+06 -3.00372e+06 2.31343e+06 -439639 -209689
265 3 O -1.24745 46.1726 3.18632 -1.2 -9.05942 -2.54467e+06 -3.44426e+06 -1.5402e+06 1.1472e+06 211024 -1.67447e+06
266 3 O -1.26044 46.1726 5.78248 -1.2 -9.20193 -2.56161e+06 -3.60638e+06 -1.43913e+06 1.245e+06 470815 1.0647e+06
267 1 Mg 2.15896 45.1155 2.9896 1.2 -7.8851 4.45755e+06 -1.71614e+06 -515257 -1.04335e+06 -1.56728e+06 -1.38772e+06
268 1 Mg 4.97763 45.0742 4.4844 1.2 -8.64143 -1.04299e+06 2.42004e+06 3.39896e+06 1.23745e+06 -137309 212760
269 2 Si 3.1711 47.139 4.4844 2.4 -32.6498 1.04571e+07 8.94119e+06 9.04753e+06 760504 329264 536774