ITEM: TIMESTEP
55200
ITEM: NUMBER OF ATOMS
10500
ITEM: BOX BOUNDS xy xz yz pp pp pp
0.0000000000000000e+00 1.5297749999999999e+01 5.0992499999999996e+00
0.0000000000000000e+00 1.1872499999999999e+02 0.0000000000000000e+00
0.0000000000000000e+00 8.9688000000000002e+01 0.0000000000000000e+00
ITEM: ATOMS id type element xu yu zu q c_pe c_s[1] c_s[2] c_s[3] c_s[4] c_s[5] c_s[6]
1 1 Mg 6.2404 -6.37941e-06 0 1.2 -4.64306 8.19718e+06 -2.39061e+06 -5.6293e+06 -25277.7 2.6002e+06 -686699
2 1 Mg 3.46349 4.70768 1.4948 1.2 -8.75753 151371 2.14989e+06 4.82593e+06 -945490 -655978 -279944
3 2 Si 5.2885 2.02354 1.4948 2.4 -35.6993 1.07272e+07 9.94439e+06 1.23175e+07 8.82717e+06 756126 -3.94257e+06
4 3 O 5.33628 3.63678 1.4948 -1.2 -4.46729 -1.23256e+06 -922160 -3.41861e+07 -309921 3.7932e+06 -3.48173e+06
5 3 O 1.67294 1.04952 1.4948 -1.2 -0.852076 -2.07066e+07 -7.88705e+07 -2.55206e+06 -2.41305e+07 -88008.6 344117
6 3 O 4.59532 1.31737 0.196716 -1.2 -2.80591 -2.33541e+06 -6.14642e+06 -3.10002e+07 -6.02434e+06 6.25791e+06 -2.20661e+06
7 1 Mg 6.18956 -6.37941e-06 2.9896 1.2 -5.13027 1.79997e+06 -2.86802e+07 -2.4355e+06 -8.82715e+06 2.56509e+06 3.54522e+06
8 3 O 4.55118 1.31737 2.79288 -1.2 -7.31399 -243924 -4.20382e+06 -3.57383e+06 -2.93933e+06 -3.48067e+06 -674820
9 1 Mg -1.20682 0.0413099 4.4844 1.2 8.68737 -3.06676e+07 -9.38726e+07 519993 -2.8483e+07 -1.34794e+06 -275827
10 2 Si -3.0337 2.72544 4.4844 2.4 -33.622 1.48411e+07 5.93068e+06 9.47336e+06 1.54481e+06 362112 -1.62094e+06
11 3 O -3.08099 1.11221 4.4844 -1.2 -9.3736 -6.31093e+06 544091 -2.90428e+06 -1.21602e+06 -378551 743562
12 3 O 0.582463 3.69946 4.4844 -1.2 -8.72286 -3.54994e+06 -4.92993e+06 -3.50687e+06 -672920 -37305.2 207943
13 3 O -2.29524 3.43162 3.18632 -1.2 -8.80537 -4.52742e+06 -1.98979e+06 -1.20899e+06 1.07906e+06 -881217 -509553
14 3 O -2.34216 3.43162 5.78248 -1.2 -8.57216 -4.15648e+06 -2.71004e+06 -2.28027e+06 768614 452838 1.9284e+06
15 1 Mg 1.12778 2.37449 2.9896 1.2 -7.81395 5.54587e+06 -2.17018e+06 -175805 -3.25207e+06 -4.2951e+06 -2.62073e+06
16 1 Mg 3.92855 2.33318 4.4844 1.2 -8.61879 -3.66861e+06 4.34299e+06 5.16095e+06 1.31124e+06 382493 162148
17 2 Si 2.09341 4.39804 4.4844 2.4 -32.8774 1.28693e+07 5.51167e+06 1.02208e+07 187395 -535200 17850.5
18 3 O 2.09991 6.01128 4.4844 -1.2 -9.1773 -4.45489e+06 708721 -4.7115e+06 537032 2334.46 238385
19 3 O -4.52137 3.42402 4.4844 -1.2 -8.95144 -3.3103e+06 -2.29338e+06 -4.1497e+06 -2.31803e+06 -991792 480359
20 3 O 2.80834 3.69187 3.18632 -1.2 -9.09967 -2.57995e+06 -2.23854e+06 -924061 475572 -431484 -164794
21 1 Mg 1.17857 2.37449 0 1.2 -5.37139 -179186 -1.53603e+07 -5.9371e+06 6.54118e+06 1.1985e+06 4.18257e+06
22 3 O 2.76143 3.69187 5.78248 -1.2 -9.17707 -3.30172e+06 -1.69477e+06 -1.73941e+06 639581 157256 162512
23 1 Mg -1.67381 2.41581 1.4948 1.2 -7.82194 1.8792e+06 -740275 4.65983e+06 1.36199e+06 -572173 595344
24 2 Si 0.16286 0.350945 1.4948 2.4 -24.9516 -7.593e+06 1.14165e+07 1.24515e+07 1.58935e+06 2.75893e+06 287535
25 3 O 0.15972 -1.26229 1.4948 -1.2 -4.58679 -1.09486e+07 -7.52243e+06 -2.94648e+07 -5.58803e+06 -8.4991e+06 -2.14197e+06
26 3 O 6.77654 1.32496 1.4948 -1.2 -10.1342 -6.03287e+06 2.28364e+06 -1.95724e+06 -635318 -683529 1.52689e+06
27 3 O -0.508028 1.05712 0.196716 -1.2 -9.30198 -227912 -4.13954e+06 -1.25943e+06 -552515 184801 -4.11934e+06
28 3 O -0.552171 1.05712 2.79288 -1.2 -6.58991 -5.57819e+06 -4.09333e+06 -2.52515e+07 1.40429e+06 -6.70781e+06 -5.08236e+06
29 1 Mg 6.31713 4.74899 0 1.2 -5.24365 821569 -1.34123e+07 -5.56034e+06 -7.32848e+06 1.4515e+06 -3.97245e+06
30 1 Mg 3.54847 9.45668 1.4948 1.2 -8.69114 854174 1.13347e+06 5.01179e+06 -951909 -943845 -689265
31 2 Si 5.36879 6.77254 1.4948 2.4 -34.9437 8.36262e+06 1.0937e+07 1.26345e+07 1.64206e+06 173718 -2.65507e+06
32 3 O 5.41937 8.38578 1.4948 -1.2 -4.41117 -895689 -362427 -3.57777e+07 770606 1.09055e+06 -3.87648e+06
33 3 O 1.75158 5.79852 1.4948 -1.2 -9.19374 -4.49408e+06 -1.80029e+06 -1.98833e+06 1.95808e+06 -1.54756e+06 -995058
34 3 O 4.67421 6.06637 0.196716 -1.2 -3.44542 -366700 -9.60187e+06 -3.19909e+07 -1.99499e+06 1.31169e+06 -4.08394e+06
35 1 Mg 6.26654 4.74899 2.9896 1.2 -8.29795 4.5696e+06 -2.22834e+06 523751 1.77465e+06 -782678 1.53229e+06
36 3 O 4.63043 6.06637 2.79288 -1.2 -8.55496 -2.1534e+06 -3.36944e+06 -2.73003e+06 954040 -100246 -1.10117e+06
37 1 Mg -1.12976 4.79031 4.4844 1.2 -9.08674 -274203 2.22647e+06 3.47501e+06 -611075 -347615 -495156
38 2 Si -2.9517 7.47444 4.4844 2.4 -33.4893 1.23934e+07 7.62642e+06 9.78742e+06 -20943.3 152580 -810426
39 3 O -3.00198 5.86121 4.4844 -1.2 -9.15307 -4.4924e+06 427306 -4.29451e+06 63661.1 -330242 443462
40 3 O 0.666315 8.44846 4.4844 -1.2 -8.90252 -3.84066e+06 -2.01382e+06 -3.96338e+06 2.13071e+06 -428247 555539
41 3 O -2.21213 8.18062 3.18632 -1.2 -8.75031 -3.47412e+06 -2.77254e+06 -1.27876e+06 1.12847e+06 -353787 -1.05521e+06
42 3 O -2.25864 8.18062 5.78248 -1.2 -8.65323 -3.50584e+06 -3.03112e+06 -2.21526e+06 1.19713e+06 -151574 1.72871e+06
43 1 Mg 1.20893 7.12349 2.9896 1.2 -8.33054 4.60917e+06 -2.24113e+06 528501 -1.27085e+06 -1.38463e+06 -2.06721e+06
44 1 Mg 4.00982 7.08218 4.4844 1.2 -8.97302 -204923 1.83789e+06 3.6628e+06 1.04007e+06 -337967 -278078
45 2 Si 2.17861 9.14704 4.4844 2.4 -33.542 1.23219e+07 7.72679e+06 9.81547e+06 690883 -235166 -875112
46 3 O 2.18828 10.7603 4.4844 -1.2 -9.09882 -4.52337e+06 402351 -4.43773e+06 393724 -155305 399563
47 3 O -4.43805 8.17302 4.4844 -1.2 -8.97949 -3.95838e+06 -1.95963e+06 -3.75165e+06 -1.53628e+06 -557083 319447
48 3 O 2.89193 8.44087 3.18632 -1.2 -8.7636 -3.36843e+06 -2.94333e+06 -1.34462e+06 -949717 -172409 1.67204e+06
49 1 Mg 1.25915 7.12349 0 1.2 -5.65469 1.54038e+06 -8.11856e+06 -5.80829e+06 5.90649e+06 1.33592e+06 2.24748e+06
50 3 O 2.84547 8.44087 5.78248 -1.2 -8.65864 -3.53386e+06 -3.1455e+06 -2.30502e+06 -1.01777e+06 31756.4 -625598
51 1 Mg -1.59284 7.16481 1.4948 1.2 -8.58248 1.34169e+06 794107 4.8886e+06 1.4584e+06 -879886 -32045.9
52 2 Si 0.240329 5.09994 1.4948 2.4 -34.651 9.20857e+06 9.83143e+06 1.24258e+07 -1.9198e+06 -1.09164e+06 1.2315e+06
53 3 O 0.234538 3.48671 1.4948 -1.2 -4.96676 -2.17734e+06 936105 -3.43354e+07 376179 5.20809e+06 4.33674e+06
54 3 O 6.85564 6.07396 1.4948 -1.2 -9.26858 -4.90583e+06 -1.26681e+06 -1.95184e+06 -1.33306e+06 -1.87569e+06 1.52925e+06
55 3 O -0.429565 5.80612 0.196716 -1.2 -3.70569 -1.19591e+06 -8.24429e+06 -3.20593e+07 1.83625e+06 1.18121e+06 4.91012e+06
56 3 O -0.473377 5.80612 2.79288 -1.2 -8.62893 -2.5774e+06 -2.96217e+06 -2.69339e+06 -804152 293926 1.679e+06
57 1 Mg 6.40169 9.49799 0 1.2 -5.65175 2.14514e+06 -7.00678e+06 -6.01854e+06 -5.48816e+06 1.03052e+06 -2.81676e+06
58 1 Mg 3.64209 14.2057 1.4948 1.2 -8.75523 762589 1.22793e+06 5.07072e+06 -1.02682e+06 -948692 -644125
59 2 Si 5.45748 11.5215 1.4948 2.4 -35.0075 8.7513e+06 1.04659e+07 1.27952e+07 897969 364768 -2.88909e+06
60 3 O 5.51101 13.1348 1.4948 -1.2 -4.4282 -1.09666e+06 -273632 -3.54575e+07 461269 -2.54609e+06 -3.98321e+06
61 3 O 1.83851 10.5475 1.4948 -1.2 -9.20757 -4.81112e+06 -1.25749e+06 -1.92008e+06 1.53399e+06 -1.55952e+06 -698332
62 3 O 4.7611 10.8154 0.196716 -1.2 -3.24048 -29385.9 -1.08658e+07 -3.26154e+07 -2.46868e+06 -1.76398e+06 -3.92834e+06
63 1 Mg 6.35203 9.49799 2.9896 1.2 -8.32291 4.68321e+06 -2.23894e+06 458464 1.30116e+06 -1.14816e+06 1.62273e+06
64 3 O 4.71833 10.8154 2.79288 -1.2 -8.51366 -2.42926e+06 -3.14566e+06 -2.75399e+06 1.04515e+06 16098 -935822
65 1 Mg -1.0438 9.53931 4.4844 1.2 -9.0391 -332243 1.88637e+06 3.75899e+06 -625068 -295499 -489920
66 2 Si -2.8604 12.2234 4.4844 2.4 -33.5927 1.24309e+07 7.71089e+06 9.83449e+06 -132136 -98110.8 -828261
67 3 O -2.91391 10.6102 4.4844 -1.2 -9.10475 -4.47233e+06 464869 -4.44556e+06 269197 -201719 398712
68 3 O 0.7596 13.1975 4.4844 -1.2 -8.88846 -3.98794e+06 -2.07373e+06 -3.76684e+06 2.15189e+06 -498874 503467
69 3 O -2.12001 12.9296 3.18632 -1.2 -8.71317 -3.45604e+06 -2.86537e+06 -1.26591e+06 1.17835e+06 -204923 -1.11421e+06
70 3 O -2.16532 12.9296 5.78248 -1.2 -8.59776 -3.52869e+06 -3.20236e+06 -2.14338e+06 1.19386e+06 1550.47 1.83848e+06
71 1 Mg 1.29891 11.8725 2.9896 1.2 -8.36236 4.76446e+06 -2.17905e+06 358895 -1.16607e+06 -1.22724e+06 -2.09803e+06
72 1 Mg 4.10033 11.8312 4.4844 1.2 -9.0467 -95275.9 1.88171e+06 3.63025e+06 1.1355e+06 -290226 -289599
73 2 Si 2.27333 13.896 4.4844 2.4 -33.5899 1.25187e+07 7.77909e+06 9.65289e+06 729093 913.76 -913888
74 3 O 2.28634 15.5093 4.4844 -1.2 -9.14276 -4.5678e+06 260547 -4.1703e+06 440406 -233878 443111
75 3 O -4.34533 12.922 4.4844 -1.2 -8.92372 -4.00175e+06 -2.00818e+06 -3.73655e+06 -1.46487e+06 -493211 329890
76 3 O 2.98455 13.1899 3.18632 -1.2 -8.736 -3.4539e+06 -2.95259e+06 -1.31056e+06 -979355 -170425 1.70054e+06
77 1 Mg 1.34779 11.8725 0 1.2 -5.9069 3.43261e+06 -3.43422e+06 -6.08241e+06 3.5526e+06 790057 1.2058e+06
78 3 O 2.93934 13.1899 5.78248 -1.2 -8.5258 -3.57124e+06 -3.1422e+06 -2.77087e+06 -994211 -126803 -673769
79 1 Mg -1.50344 11.9138 1.4948 1.2 -8.70953 1.10338e+06 1.10331e+06 5.00506e+06 1.55805e+06 -945682 17573.7
80 2 Si 0.326006 9.84894 1.4948 2.4 -34.9591 8.78195e+06 1.05207e+07 1.26046e+07 -603875 87944 1.48177e+06
81 3 O 0.317364 8.23571 1.4948 -1.2 -4.41348 -1.01067e+06 -227622 -3.59229e+07 -128589 1.18946e+06 4.56935e+06
82 3 O 6.94307 10.823 1.4948 -1.2 -9.2446 -4.94819e+06 -1.07753e+06 -1.86319e+06 -980488 -1.54818e+06 1.43029e+06
83 3 O -0.343122 10.5551 0.196716 -1.2 -3.34422 -347393 -1.03336e+07 -3.26285e+07 2.46198e+06 -2.04563e+06 4.89984e+06
84 3 O -0.385966 10.5551 2.79288 -1.2 -8.54568 -2.4502e+06 -3.20379e+06 -2.76797e+06 -851831 98022 1.53693e+06
85 1 Mg 6.49448 14.247 0 1.2 -5.86857 3.89071e+06 -2.583e+06 -6.26824e+06 -2.95264e+06 245671 -1.8282e+06
86 1 Mg 3.74457 18.9547 1.4948 1.2 -8.74402 434516 1.60738e+06 4.9242e+06 -1.10616e+06 -916151 -411349
87 2 Si 5.55495 16.2705 1.4948 2.4 -34.9143 8.8832e+06 1.04812e+07 1.25174e+07 551048 823232 -2.81981e+06
88 3 O 5.6115 17.8838 1.4948 -1.2 -4.81221 -1.9978e+06 -402917 -3.25806e+07 69153.9 -6.07275e+06 -3.93946e+06
89 3 O 1.93416 15.2965 1.4948 -1.2 -9.2628 -4.87291e+06 -1.03339e+06 -1.74362e+06 1.5398e+06 -1.39281e+06 -703838
90 3 O 4.85636 15.5644 0.196716 -1.2 -3.27915 -24681.6 -1.26644e+07 -3.09266e+07 -3.03908e+06 -5.143e+06 -3.46505e+06
91 1 Mg 6.44662 14.247 2.9896 1.2 -8.3221 4.73862e+06 -2.16372e+06 325623 1.29529e+06 -1.19508e+06 1.65802e+06
92 3 O 4.81537 15.5644 2.79288 -1.2 -8.52248 -2.35719e+06 -3.30691e+06 -2.6782e+06 1.04261e+06 -64397.7 -961110
93 1 Mg -0.948271 14.2883 4.4844 1.2 -9.04147 -317476 2.01533e+06 3.61221e+06 -622847 -347254 -439858
94 2 Si -2.75928 16.9724 4.4844 2.4 -33.5054 1.20133e+07 8.20596e+06 9.62599e+06 -25604 -217891 -448279
95 3 O -2.81617 15.3592 4.4844 -1.2 -9.11224 -4.3782e+06 236269 -4.27466e+06 293203 -103770 292008
96 3 O 0.862762 17.9465 4.4844 -1.2 -9.02581 -3.93423e+06 -2.35227e+06 -3.33008e+06 2.19809e+06 -392543 258101
97 3 O -2.0185 17.6786 3.18632 -1.2 -8.77221 -3.27041e+06 -3.10326e+06 -1.13544e+06 1.1762e+06 -68705.9 -1.28391e+06
98 3 O -2.06164 17.6786 5.78248 -1.2 -8.62288 -3.1277e+06 -3.41783e+06 -2.39322e+06 1.11348e+06 139050 1.50291e+06
99 1 Mg 1.39817 16.6215 2.9896 1.2 -8.28733 4.82369e+06 -1.99447e+06 -7300.19 -1.17685e+06 -1.22499e+06 -1.97933e+06
100 1 Mg 4.20062 16.5802 4.4844 1.2 -8.98618 -234488 2.13925e+06 3.41701e+06 1.20569e+06 -145972 -253918
101 2 Si 2.37796 18.645 4.4844 2.4 -33.2661 1.23513e+07 8.34134e+06 8.72896e+06 717015 57925.4 -326851
102 3 O 2.39434 20.2583 4.4844 -1.2 -9.30367 -4.4133e+06 72406.3 -3.89633e+06 445251 -237706 87792
103 3 O -4.24274 17.671 4.4844 -1.2 -9.00052 -3.78398e+06 -2.28109e+06 -3.54576e+06 -1.45582e+06 -559083 186908
104 3 O 3.08659 17.9389 3.18632 -1.2 -8.82687 -3.3509e+06 -3.22565e+06 -1.03589e+06 -955064 -146963 1.53469e+06
105 1 Mg 1.44478 16.6215 0 1.2 -5.98529 5.02554e+06 -311152 -6.23018e+06 1.38545e+06 -29970.5 629867
106 3 O 3.0436 17.9389 5.78248 -1.2 -8.78442 -3.40616e+06 -3.55584e+06 -1.83927e+06 -895119 -400535 -963656
107 1 Mg -1.40524 16.6628 1.4948 1.2 -8.74288 833093 1.4117e+06 4.97275e+06 1.68148e+06 -1.01401e+06 98544.1
108 2 Si 0.420358 14.5979 1.4948 2.4 -34.9585 8.88624e+06 1.05002e+07 1.25041e+07 -156562 545791 1.77719e+06
109 3 O 0.408732 12.9847 1.4948 -1.2 -4.41795 -1.14122e+06 -254477 -3.55824e+07 231399 -2.55491e+06 4.64124e+06
110 3 O 7.03923 15.572 1.4948 -1.2 -9.30071 -4.95378e+06 -904386 -1.69884e+06 -950404 -1.28854e+06 1.31221e+06
111 3 O -0.248332 15.3041 0.196716 -1.2 -3.37348 -333161 -1.21844e+07 -3.10001e+07 3.26022e+06 -5.39742e+06 4.30882e+06
112 3 O -0.289436 15.3041 2.79288 -1.2 -8.55802 -2.39886e+06 -3.38929e+06 -2.65407e+06 -826646 81710.7 1.43311e+06
113 1 Mg 6.59566 18.996 0 1.2 -5.91826 5.16063e+06 240514 -6.23885e+06 -912901 -708193 -1.04911e+06
114 1 Mg 3.85574 23.7037 1.4948 1.2 -8.70505 -50777.6 2.04368e+06 4.77092e+06 -1.17946e+06 -847149 -81539.7
115 2 Si 5.66125 21.0195 1.4948 2.4 -34.6235 8.93302e+06 1.05786e+07 1.19659e+07 188493 1.25984e+06 -2.36687e+06
116 3 O 5.72074 22.6328 1.4948 -1.2 -5.52897 -3.44987e+06 -544452 -2.74979e+07 -217191 -8.53166e+06 -3.76164e+06
117 3 O 2.03867 20.0455 1.4948 -1.2 -9.39382 -4.7531e+06 -1.008e+06 -1.47707e+06 1.56214e+06 -1.18381e+06 -891245
118 3 O 4.96004 20.3134 0.196716 -1.2 -3.69785 -601744 -1.43063e+07 -2.68504e+07 -3.19217e+06 -7.96157e+06 -2.68359e+06
119 1 Mg 6.55057 18.996 2.9896 1.2 -8.21613 4.61156e+06 -1.90616e+06 25887.8 1.29807e+06 -1.19582e+06 1.83347e+06
120 3 O 4.92172 20.3134 2.79288 -1.2 -8.62621 -2.14224e+06 -3.61357e+06 -2.4584e+06 1.06598e+06 -158965 -1.19894e+06
121 1 Mg -0.84282 19.0373 4.4844 1.2 -8.92628 -573051 2.23428e+06 3.45621e+06 -541513 -454419 -201939
122 2 Si -2.64823 21.7214 4.4844 2.4 -33.2331 1.14527e+07 8.81258e+06 9.14108e+06 -148723 -436634 105123
123 3 O -2.70847 20.1082 4.4844 -1.2 -9.23656 -4.07349e+06 -67294.7 -4.07014e+06 375636 -74873.7 79505.7
124 3 O 0.97581 22.6955 4.4844 -1.2 -9.19576 -3.81517e+06 -2.54968e+06 -3.00087e+06 2.22536e+06 -434703 57964.7
125 3 O -1.9076 22.4276 3.18632 -1.2 -8.88675 -3.03962e+06 -3.3882e+06 -939196 1.19631e+06 79728.5 -1.56415e+06
126 3 O -1.9475 22.4276 5.78248 -1.2 -8.81735 -2.93222e+06 -3.71948e+06 -1.84493e+06 1.29417e+06 393155 1.33825e+06
127 1 Mg 1.50678 21.3705 2.9896 1.2 -8.14017 4.75887e+06 -1.77369e+06 -399061 -1.14831e+06 -1.23682e+06 -1.67472e+06
128 1 Mg 4.31086 21.3292 4.4844 1.2 -8.84719 -520696 2.37838e+06 3.24212e+06 1.24739e+06 -80119.8 101314
129 2 Si 2.49243 23.394 4.4844 2.4 -32.9498 1.20314e+07 8.69844e+06 8.1792e+06 771838 295560 57784.8
130 3 O 2.51204 25.0073 4.4844 -1.2 -9.44929 -4.28687e+06 -201831 -3.51955e+06 554762 -321058 -127291
131 3 O -4.13026 22.42 4.4844 -1.2 -9.11302 -3.46319e+06 -2.53532e+06 -3.44463e+06 -1.39651e+06 -489572 -181744
132 3 O 3.19799 22.6879 3.18632 -1.2 -8.94901 -3.13492e+06 -3.47427e+06 -869412 -952059 -122471 1.24846e+06
133 1 Mg 1.5501 21.3705 0 1.2 -5.94128 5.76039e+06 1.44604e+06 -6.01464e+06 -55302.9 -940727 460917
134 3 O 3.1583 22.6879 5.78248 -1.2 -8.94634 -3.15727e+06 -3.53955e+06 -1.78216e+06 -1.05372e+06 -536583 -1.18959e+06
135 1 Mg -1.29822 21.4118 1.4948 1.2 -8.71203 413009 1.83079e+06 4.8199e+06 1.78857e+06 -1.00999e+06 290316
136 2 Si 0.523568 19.3469 1.4948 2.4 -34.7254 8.95505e+06 1.06143e+07 1.19759e+07 297157 952611 2.31382e+06
137 3 O 0.508934 17.7337 1.4948 -1.2 -4.80299 -2.06838e+06 -372783 -3.26897e+07 677748 -6.06349e+06 4.29903e+06
138 3 O 7.14425 20.321 1.4948 -1.2 -9.42878 -4.78086e+06 -904335 -1.47585e+06 -927074 -1.03725e+06 1.07354e+06
139 3 O -0.145107 20.0531 0.196716 -1.2 -3.7878 -947374 -1.39521e+07 -2.69188e+07 3.68839e+06 -8.17554e+06 3.14898e+06
140 3 O -0.183601 20.0531 2.79288 -1.2 -8.66707 -2.22915e+06 -3.67086e+06 -2.41877e+06 -830034 66213.6 1.16087e+06
141 1 Mg 6.70502 23.745 0 1.2 -5.89387 5.43642e+06 1.77919e+06 -5.70855e+06 392742 -1.50763e+06 -439559
142 1 Mg 3.97493 28.4527 1.4948 1.2 -8.68597 -573440 2.41576e+06 4.65831e+06 -1.24388e+06 -753192 111682
143 2 Si 5.77602 25.7685 1.4948 2.4 -34.2571 9.12872e+06 1.0487e+07 1.13624e+07 -140556 1.59708e+06 -1.90397e+06
144 3 O 5.83821 27.3818 1.4948 -1.2 -6.44023 -5.00563e+06 -622860 -2.11676e+07 -323165 -9.31127e+06 -3.2869e+06
145 3 O 2.15175 24.7945 1.4948 -1.2 -9.5369 -4.54322e+06 -1.07681e+06 -1.25481e+06 1.609e+06 -954168 -1.11374e+06
146 3 O 5.07184 25.0624 0.196716 -1.2 -4.4521 -1.60963e+06 -1.52327e+07 -2.10863e+07 -2.77693e+06 -9.44904e+06 -1.6372e+06
147 1 Mg 6.66374 23.745 2.9896 1.2 -8.09215 4.44425e+06 -1.68438e+06 -224320 1.31045e+06 -1.26541e+06 2.09722e+06
148 3 O 5.03707 25.0624 2.79288 -1.2 -8.72898 -1.93658e+06 -3.85591e+06 -2.29656e+06 1.10634e+06 -257532 -1.39472e+06
149 1 Mg -0.727559 23.7863 4.4844 1.2 -8.77834 -728513 2.50427e+06 3.09622e+06 -530788 -529251 105194
150 2 Si -2.5277 26.4704 4.4844 2.4 -33.1024 1.12647e+07 9.03117e+06 8.9148e+06 151991 -451584 273189
151 3 O -2.59107 24.8572 4.4844 -1.2 -9.31658 -3.87651e+06 -226544 -3.96746e+06 317962 88051.2 -155743
152 3 O 1.09817 27.4445 4.4844 -1.2 -9.24584 -3.67279e+06 -2.72801e+06 -2.86732e+06 2.17241e+06 -395380 -318491
153 3 O -1.78784 27.1766 3.18632 -1.2 -8.96336 -2.89235e+06 -3.56452e+06 -838261 1.11401e+06 122910 -1.70032e+06
154 3 O -1.82343 27.1766 5.78248 -1.2 -8.82473 -2.90243e+06 -3.71737e+06 -1.96939e+06 943530 280731 1.42112e+06
155 1 Mg 1.62435 26.1195 2.9896 1.2 -8.01744 4.68501e+06 -1.5362e+06 -756181 -1.14902e+06 -1.29381e+06 -1.35345e+06
156 1 Mg 4.43064 26.0782 4.4844 1.2 -8.76211 -720559 2.61958e+06 3.06604e+06 1.10964e+06 28214.7 234891
157 2 Si 2.61607 28.143 4.4844 2.4 -32.9153 1.1657e+07 9.01673e+06 8.19064e+06 626404 98140.3 750663
158 3 O 2.63853 29.7563 4.4844 -1.2 -9.41648 -4.0544e+06 -247801 -3.73718e+06 575394 -167080 -293182
159 3 O -4.00841 27.169 4.4844 -1.2 -9.19727 -3.43636e+06 -2.70263e+06 -3.15311e+06 -1.29853e+06 -441543 -167494
160 3 O 3.3182 27.4369 3.18632 -1.2 -9.01956 -2.92788e+06 -3.69865e+06 -809330 -851821 3704.73 1.00228e+06
161 1 Mg 1.66335 26.1195 0 1.2 -5.87979 5.40895e+06 2.33426e+06 -5.43067e+06 -882976 -1.58852e+06 470077
162 3 O 3.28288 27.4369 5.78248 -1.2 -8.97291 -2.94307e+06 -3.83224e+06 -1.73002e+06 -665093 -430562 -1.62404e+06
163 1 Mg -1.18278 26.1608 1.4948 1.2 -8.67606 -64813 2.25093e+06 4.62775e+06 1.89981e+06 -894928 416988
164 2 Si 0.635424 24.0959 1.4948 2.4 -34.3604 9.16273e+06 1.06573e+07 1.12079e+07 755176 1.30687e+06 2.88537e+06
165 3 O 0.617906 22.4827 1.4948 -1.2 -5.53177 -3.59889e+06 -513589 -2.75105e+07 1.01262e+06 -8.51556e+06 3.57392e+06
166 3 O 7.25781 25.07 1.4948 -1.2 -9.56463 -4.54239e+06 -959345 -1.32147e+06 -929865 -807677 834861
167 3 O -0.0337363 24.8021 0.196716 -1.2 -4.54313 -2.01704e+06 -1.51827e+07 -2.09953e+07 3.49702e+06 -9.61673e+06 1.63003e+06
168 3 O -0.0687235 24.8021 2.79288 -1.2 -8.79034 -2.09529e+06 -3.95364e+06 -2.12403e+06 -841689 37341.4 836137
169 1 Mg 6.82195 28.494 0 1.2 -5.8858 4.77849e+06 2.46469e+06 -4.86956e+06 1.15116e+06 -1.81707e+06 -292338
170 1 Mg 4.10106 33.2017 1.4948 1.2 -8.67121 -1.0737e+06 2.64557e+06 4.56467e+06 -1.19573e+06 -529462 151236
171 2 Si 5.89839 30.5175 1.4948 2.4 -33.8804 9.61903e+06 1.00484e+07 1.07903e+07 -339959 1.66928e+06 -1.69718e+06
172 3 O 5.96289 32.1308 1.4948 -1.2 -7.3854 -6.02768e+06 -567767 -1.50305e+07 -294184 -8.44577e+06 -2.6726e+06
173 3 O 2.27266 29.5435 1.4948 -1.2 -9.62757 -4.28487e+06 -1.07873e+06 -1.3167e+06 1.65988e+06 -721445 -1.15051e+06
174 3 O 5.19102 29.8114 0.196716 -1.2 -5.40949 -2.77749e+06 -1.49336e+07 -1.48812e+07 -1.93094e+06 -9.28881e+06 -334020
175 1 Mg 6.78546 28.494 2.9896 1.2 -7.98145 4.46157e+06 -1.52654e+06 -571367 1.30518e+06 -1.3277e+06 2.14381e+06
176 3 O 5.16061 29.8114 2.79288 -1.2 -8.81541 -1.8888e+06 -3.9869e+06 -2.11057e+06 1.13702e+06 -213659 -1.45344e+06
177 1 Mg -0.603205 28.5353 4.4844 1.2 -8.7472 -844489 2.62251e+06 3.0389e+06 -328926 -278592 237706
178 2 Si -2.39877 31.2194 4.4844 2.4 -32.8765 1.14865e+07 9.32775e+06 8.0389e+06 48954.3 -237325 565697
179 3 O -2.46483 29.6062 4.4844 -1.2 -9.42358 -4.00177e+06 -390476 -3.4828e+06 349501 -22586.9 -181802
180 3 O 1.22864 32.1935 4.4844 -1.2 -9.27402 -3.5192e+06 -2.8446e+06 -2.8499e+06 2.28144e+06 -425324 -166398
181 3 O -1.66032 31.9256 3.18632 -1.2 -9.03482 -2.77919e+06 -3.67966e+06 -796286 1.17022e+06 112531 -1.75305e+06
182 3 O -1.69072 31.9256 5.78248 -1.2 -8.96794 -2.92921e+06 -3.89721e+06 -1.43877e+06 1.24981e+06 -122622 1.0766e+06
183 1 Mg 1.7499 30.8685 2.9896 1.2 -7.95811 4.54952e+06 -1.4751e+06 -770232 -1.13159e+06 -1.35091e+06 -1.32873e+06
184 1 Mg 4.55894 30.8272 4.4844 1.2 -8.73017 -823305 2.7124e+06 3.0275e+06 1.20796e+06 -223833 327710
185 2 Si 2.7476 32.892 4.4844 2.4 -32.8143 1.12996e+07 9.28754e+06 8.1198e+06 818986 151959 444201
186 3 O 2.77235 34.5053 4.4844 -1.2 -9.53488 -3.91709e+06 -400006 -3.53152e+06 593175 -216867 -269697
187 3 O -3.87837 31.918 4.4844 -1.2 -9.30569 -3.50413e+06 -2.80914e+06 -2.79586e+06 -1.34202e+06 -245106 -373684
188 3 O 3.44611 32.1859 3.18632 -1.2 -9.06673 -2.7096e+06 -3.79573e+06 -942715 -895714 128705 1.02523e+06
189 1 Mg 1.7837 30.8685 0 1.2 -5.8934 4.25663e+06 2.54694e+06 -4.52994e+06 -1.34993e+06 -1.54457e+06 531139
190 3 O 3.41602 32.1859 5.78248 -1.2 -8.91607 -2.68787e+06 -4.00395e+06 -1.89748e+06 -1.03433e+06 -380738 -1.45625e+06
191 1 Mg -1.05984 30.9098 1.4948 1.2 -8.6591 -544818 2.52989e+06 4.49981e+06 1.91044e+06 -635242 339695
192 2 Si 0.755243 28.8449 1.4948 2.4 -34.0083 9.4893e+06 1.0323e+07 1.07365e+07 1.16216e+06 1.58148e+06 2.96179e+06
193 3 O 0.735127 27.2317 1.4948 -1.2 -6.44596 -5.16964e+06 -591709 -2.11628e+07 1.15993e+06 -9.29724e+06 2.79309e+06
194 3 O 7.37914 29.819 1.4948 -1.2 -9.66975 -4.36622e+06 -988522 -1.26648e+06 -934655 -607579 809464
195 3 O 0.0850649 29.5511 0.196716 -1.2 -5.47792 -3.10697e+06 -1.52611e+07 -1.47611e+07 2.69546e+06 -9.432e+06 289517
196 3 O 0.0543974 29.5511 2.79288 -1.2 -8.86328 -1.98882e+06 -4.06806e+06 -2.04522e+06 -866522 -121659 719279
197 1 Mg 6.94543 33.243 0 1.2 -5.93859 3.55601e+06 2.54152e+06 -3.96578e+06 1.58611e+06 -1.42709e+06 -535423
198 1 Mg 4.23267 37.9507 1.4948 1.2 -8.63413 -1.47839e+06 2.79602e+06 4.34501e+06 -1.13011e+06 -204824 199878
199 2 Si 6.02709 35.2665 1.4948 2.4 -33.5099 1.00592e+07 9.35406e+06 1.05007e+07 -382845 1.61328e+06 -1.46298e+06
200 3 O 6.09339 36.8798 1.4948 -1.2 -8.23373 -6.15808e+06 -473330 -1.01292e+07 -153419 -6.62027e+06 -2.15797e+06
201 3 O 2.40018 34.2925 1.4948 -1.2 -9.69719 -4.0627e+06 -1.09015e+06 -1.46789e+06 1.69949e+06 -527089 -1.11052e+06
202 3 O 5.31645 34.5604 0.196716 -1.2 -6.41308 -3.66454e+06 -1.33236e+07 -9.55983e+06 -962342 -7.84151e+06 809506
203 1 Mg 6.91449 33.243 2.9896 1.2 -7.87957 4.41015e+06 -1.47821e+06 -723146 1.31944e+06 -1.42372e+06 2.21761e+06
204 3 O 5.291 34.5604 2.79288 -1.2 -8.91383 -1.82365e+06 -3.99236e+06 -2.0477e+06 1.09716e+06 -287171 -1.45946e+06
205 1 Mg -0.471101 33.2843 4.4844 1.2 -8.66498 -1.014e+06 2.74279e+06 2.95109e+06 -512802 -231885 290017
206 2 Si -2.26307 35.9684 4.4844 2.4 -32.7344 1.09102e+07 9.23069e+06 8.48555e+06 136578 -392096 793322
207 3 O -2.33122 34.3552 4.4844 -1.2 -9.5049 -3.81105e+06 -390099 -3.53708e+06 420420 52713.4 -395910
208 3 O 1.36549 36.9425 4.4844 -1.2 -9.40302 -3.37308e+06 -2.82069e+06 -2.82534e+06 2.31704e+06 -296910 -355219
209 3 O -1.52658 36.6746 3.18632 -1.2 -9.10394 -2.52375e+06 -3.6807e+06 -1.03791e+06 1.14023e+06 197837 -1.78111e+06
210 3 O -1.55122 36.6746 5.78248 -1.2 -9.02171 -2.6512e+06 -3.75708e+06 -1.61202e+06 1.1516e+06 284661 903120
211 1 Mg 1.882 35.6175 2.9896 1.2 -7.84521 4.45761e+06 -1.40486e+06 -919318 -1.13897e+06 -1.45783e+06 -1.28043e+06
212 1 Mg 4.69415 35.5762 4.4844 1.2 -8.61972 -966766 2.70482e+06 3.00224e+06 1.26241e+06 -36492.8 332801
213 2 Si 2.88522 37.641 4.4844 2.4 -32.5405 1.09937e+07 9.16974e+06 8.10233e+06 658698 -26996.6 665666
214 3 O 2.91159 39.2543 4.4844 -1.2 -9.65917 -3.72267e+06 -326247 -3.61625e+06 636389 -58284.4 -347145
215 3 O -3.74183 36.667 4.4844 -1.2 -9.39123 -3.28384e+06 -2.72284e+06 -2.98074e+06 -1.36993e+06 -319212 -387761
216 3 O 3.58014 36.9349 3.18632 -1.2 -9.16097 -2.53802e+06 -3.8246e+06 -1.04339e+06 -841542 163659 973045
217 1 Mg 1.90997 35.6175 0 1.2 -5.94253 2.90826e+06 2.45326e+06 -3.9879e+06 -1.66938e+06 -792460 990081
218 3 O 3.55582 36.9349 5.78248 -1.2 -9.12493 -2.61714e+06 -3.82792e+06 -1.70088e+06 -780557 -248998 -1.59037e+06
219 1 Mg -0.93068 35.6588 1.4948 1.2 -8.63286 -1.02175e+06 2.71059e+06 4.36194e+06 1.85249e+06 -338953 296565
220 2 Si 0.881882 33.5939 1.4948 2.4 -33.6451 9.9328e+06 9.71863e+06 1.03863e+07 1.38674e+06 1.62565e+06 2.68258e+06
221 3 O 0.859602 31.9807 1.4948 -1.2 -7.38464 -6.15897e+06 -531753 -1.50796e+07 1.16328e+06 -8.47765e+06 2.22546e+06
222 3 O 7.507 34.568 1.4948 -1.2 -9.73743 -4.13792e+06 -986758 -1.45479e+06 -938843 -415056 815454
223 3 O 0.210186 34.3001 0.196716 -1.2 -6.45416 -3.88785e+06 -1.40318e+07 -9.41083e+06 1.54353e+06 -7.93844e+06 -865729
224 3 O 0.184454 34.3001 2.79288 -1.2 -8.9658 -1.9223e+06 -4.1339e+06 -1.9282e+06 -819868 -150078 684835
225 1 Mg 7.07415 37.992 0 1.2 -6.00595 2.28957e+06 2.40806e+06 -3.60727e+06 1.89197e+06 -409078 -1.09844e+06
226 1 Mg 4.36817 42.6997 1.4948 1.2 -8.57031 -1.77344e+06 2.93988e+06 4.01204e+06 -1.0132e+06 111669 392116
227 2 Si 6.16058 40.0155 1.4948 2.4 -33.159 1.0449e+07 8.65051e+06 1.02598e+07 -371548 1.33738e+06 -1.1857e+06
228 3 O 6.22815 41.6288 1.4948 -1.2 -8.90887 -5.60957e+06 -420725 -6.73967e+06 42614.9 -4.52039e+06 -1.87472e+06
229 3 O 2.53282 39.0415 1.4948 -1.2 -9.73818 -3.85057e+06 -1.1405e+06 -1.72482e+06 1.7311e+06 -348137 -1.13472e+06
230 3 O 5.44674 39.3094 0.196716 -1.2 -7.33344 -4.07717e+06 -1.09057e+07 -5.65034e+06 -150402 -5.76743e+06 1.63036e+06
231 1 Mg 7.04922 37.992 2.9896 1.2 -7.77996 4.25332e+06 -1.50498e+06 -688278 1.32142e+06 -1.47883e+06 2.18361e+06
232 3 O 5.42658 39.3094 2.79288 -1.2 -9.03397 -1.81491e+06 -3.93194e+06 -1.9567e+06 1.14099e+06 -331799 -1.44835e+06
233 1 Mg -0.333062 38.0333 4.4844 1.2 -8.5672 -1.21891e+06 2.6564e+06 3.07973e+06 -405470 -228433 371522
234 2 Si -2.12255 40.7174 4.4844 2.4 -32.4851 1.04977e+07 9.15192e+06 8.59024e+06 193051 -177896 651206
235 3 O -2.19212 39.1042 4.4844 -1.2 -9.60388 -3.55743e+06 -345981 -3.67207e+06 375851 27286.7 -313207
236 3 O 1.50676 41.6915 4.4844 -1.2 -9.51833 -3.08125e+06 -2.86104e+06 -2.90558e+06 2.25189e+06 -214079 -349380
237 3 O -1.3884 41.4236 3.18632 -1.2 -9.19574 -2.28119e+06 -3.70461e+06 -1.21107e+06 1.1188e+06 149429 -1.76183e+06
238 3 O -1.40713 41.4236 5.78248 -1.2 -9.12046 -2.35247e+06 -3.66849e+06 -2.08581e+06 1.08367e+06 17762.6 1.07133e+06
239 1 Mg 2.01892 40.3665 2.9896 1.2 -7.74462 4.27334e+06 -1.41181e+06 -876159 -1.1003e+06 -1.596e+06 -1.22272e+06
240 1 Mg 4.83434 40.3252 4.4844 1.2 -8.46562 -1.08377e+06 2.64245e+06 2.93437e+06 1.18825e+06 -30373 369424
241 2 Si 3.02698 42.39 4.4844 2.4 -32.273 1.0302e+07 9.3811e+06 8.15059e+06 748285 -140432 809734
242 3 O 3.05433 44.0033 4.4844 -1.2 -9.7901 -3.27997e+06 -566482 -3.62302e+06 600188 -10470 -509118
243 3 O -3.60077 41.416 4.4844 -1.2 -9.56014 -3.18176e+06 -2.70353e+06 -2.8266e+06 -1.27492e+06 -254412 -338325
244 3 O 3.71851 41.6839 3.18632 -1.2 -9.25793 -2.28386e+06 -3.88274e+06 -1.1983e+06 -818383 232723 869423
245 1 Mg 2.04077 40.3665 0 1.2 -5.99897 1.85809e+06 2.21203e+06 -4.02723e+06 -1.84518e+06 438832 1.78199e+06
246 3 O 3.70011 41.6839 5.78248 -1.2 -9.30034 -2.2767e+06 -3.84817e+06 -1.60139e+06 -800878 -136034 -1.62655e+06
247 1 Mg -0.796865 40.4078 1.4948 1.2 -8.58906 -1.3878e+06 2.80522e+06 4.17154e+06 1.76264e+06 31741.2 294982
248 2 Si 1.01387 38.3429 1.4948 2.4 -33.2921 1.0318e+07 9.00172e+06 1.01877e+07 1.5165e+06 1.435e+06 2.4308e+06
249 3 O 0.989947 36.7297 1.4948 -1.2 -8.23646 -6.29826e+06 -463241 -1.0146e+07 1.04931e+06 -6.62092e+06 1.71536e+06
250 3 O 7.63988 39.317 1.4948 -1.2 -9.77433 -3.90733e+06 -1.0422e+06 -1.7445e+06 -943090 -255739 852704
251 3 O 0.340253 39.0491 0.196716 -1.2 -7.34352 -4.18134e+06 -1.18095e+07 -5.58082e+06 389165 -5.86581e+06 -1.69787e+06
252 3 O 0.319795 39.0491 2.79288 -1.2 -9.07158 -1.84467e+06 -4.06761e+06 -1.94278e+06 -860547 -164031 629800
253 1 Mg 7.20667 42.741 0 1.2 -6.04152 1.43296e+06 2.18739e+06 -3.93674e+06 1.98423e+06 904530 -1.74397e+06
254 1 Mg 4.50613 47.4487 1.4948 1.2 -8.49478 -1.90144e+06 3.17094e+06 3.58481e+06 -861554 399358 872460
255 2 Si 6.29731 44.7645 1.4948 2.4 -32.8311 1.06123e+07 8.33169e+06 9.86678e+06 -277542 874553 -305241
256 3 O 6.36567 46.3778 1.4948 -1.2 -9.39116 -4.71791e+06 -564492 -4.61465e+06 197986 -2.67748e+06 -2.07573e+06
257 3 O 2.669 43.7905 1.4948 -1.2 -9.75598 -3.57745e+06 -1.39304e+06 -1.98729e+06 1.71528e+06 -202060 -1.40017e+06
258 3 O 5.58048 44.0584 0.196716 -1.2 -8.09099 -3.94249e+06 -8.29125e+06 -3.22075e+06 337102 -3.69627e+06 1.87723e+06
259 1 Mg 7.1879 42.741 2.9896 1.2 -7.65034 4.12107e+06 -1.41364e+06 -841740 1.26666e+06 -1.57546e+06 2.25112e+06
260 3 O 5.56564 44.0584 2.79288 -1.2 -9.17215 -1.77752e+06 -4.03008e+06 -1.70193e+06 1.17465e+06 -255672 -1.65946e+06
261 1 Mg -0.19105 42.7823 4.4844 1.2 -8.42305 -1.50498e+06 2.74943e+06 3.04096e+06 -335345 -85878.1 323058
262 2 Si -1.97909 45.4664 4.4844 2.4 -32.0424 1.01575e+07 9.733e+06 7.63208e+06 95208 -122219 1.09673e+06
263 3 O -2.04947 43.8532 4.4844 -1.2 -9.80965 -3.37043e+06 -520093 -3.35889e+06 445409 -17623.5 -343425
264 3 O 1.65063 46.4405 4.4844 -1.2 -9.6344 -2.76022e+06 -3.16922e+06 -2.74522e+06 2.26867e+06 -294702 -717702
265 3 O -1.24745 46.1726 3.18632 -1.2 -9.3066 -2.12496e+06 -3.96101e+06 -1.04457e+06 1.12951e+06 70730.4 -2.11686e+06
266 3 O -1.26044 46.1726 5.78248 -1.2 -9.514 -2.08982e+06 -4.01224e+06 -1.03979e+06 1.12224e+06 -49106.7 800160
267 1 Mg 2.15896 45.1155 2.9896 1.2 -7.64727 3.9915e+06 -1.1724e+06 -974007 -1.04928e+06 -1.65915e+06 -927965
268 1 Mg 4.97763 45.0742 4.4844 1.2 -8.30261 -1.37688e+06 2.91882e+06 2.68809e+06 1.18142e+06 -182516 607925
269 2 Si 3.1711 47.139 4.4844 2.4 -32.1595 9.62095e+06 9.88775e+06 8.14631e+06 785540 -129833 1.62099e+06