ITEM: TIMESTEP
36800
ITEM: NUMBER OF ATOMS
10500
ITEM: BOX BOUNDS xy xz yz pp pp pp
0.0000000000000000e+00 1.5297749999999999e+01 5.0992499999999996e+00
0.0000000000000000e+00 1.1872499999999999e+02 0.0000000000000000e+00
0.0000000000000000e+00 8.9688000000000002e+01 0.0000000000000000e+00
ITEM: ATOMS id type element xu yu zu q c_pe c_s[1] c_s[2] c_s[3] c_s[4] c_s[5] c_s[6]
1 1 Mg 6.2404 -6.37941e-06 0 1.2 -4.34389 7.79586e+06 -1.87497e+06 -6.22298e+06 -20888 2.66352e+06 -18490.1
2 1 Mg 3.46349 4.70768 1.4948 1.2 -8.30418 -622339 2.87071e+06 4.15251e+06 -929579 -597553 185986
3 2 Si 5.2885 2.02354 1.4948 2.4 -34.9379 9.48424e+06 1.10113e+07 1.12736e+07 8.87652e+06 791106 -2.78168e+06
4 3 O 5.33628 3.63678 1.4948 -1.2 -4.89222 -532327 -1.55873e+06 -3.35685e+07 -334796 3.76139e+06 -3.99061e+06
5 3 O 1.67294 1.04952 1.4948 -1.2 -1.19979 -2.00795e+07 -7.93547e+07 -2.13803e+06 -2.41291e+07 -94478.5 -232049
6 3 O 4.59532 1.31737 0.196716 -1.2 -3.13612 -1.76083e+06 -6.73681e+06 -3.04559e+07 -6.03606e+06 6.18975e+06 -2.82524e+06
7 1 Mg 6.18956 -6.37941e-06 2.9896 1.2 -4.75031 1.26266e+06 -2.8344e+07 -2.84315e+06 -8.82775e+06 2.49767e+06 4.19398e+06
8 3 O 4.55118 1.31737 2.79288 -1.2 -7.69417 427451 -4.60677e+06 -3.23187e+06 -2.98932e+06 -3.45039e+06 -1.26047e+06
9 1 Mg -1.20682 0.0413099 4.4844 1.2 9.13587 -3.11516e+07 -9.35939e+07 4811 -2.85877e+07 -1.23801e+06 292245
10 2 Si -3.0337 2.72544 4.4844 2.4 -32.7466 1.34321e+07 6.57657e+06 8.83847e+06 1.58866e+06 159487 -367448
11 3 O -3.08099 1.11221 4.4844 -1.2 -9.81486 -5.73786e+06 242413 -2.47117e+06 -1.19527e+06 -258753 67102
12 3 O 0.582463 3.69946 4.4844 -1.2 -9.22648 -2.92134e+06 -5.30435e+06 -2.95185e+06 -567700 -51656.6 -114603
13 3 O -2.29524 3.43162 3.18632 -1.2 -9.25734 -3.83373e+06 -2.46263e+06 -702759 1.1069e+06 -812190 -1.02241e+06
14 3 O -2.34216 3.43162 5.78248 -1.2 -8.97187 -3.37254e+06 -2.8809e+06 -2.39107e+06 780012 704371 1.2204e+06
15 1 Mg 1.12778 2.37449 2.9896 1.2 -7.39627 4.87627e+06 -1.72753e+06 -618031 -3.28306e+06 -4.24327e+06 -2.14791e+06
16 1 Mg 3.92855 2.33318 4.4844 1.2 -8.21805 -4.46941e+06 4.68568e+06 4.97834e+06 1.43964e+06 374687 605508
17 2 Si 2.09341 4.39804 4.4844 2.4 -31.812 1.13164e+07 6.59416e+06 8.98436e+06 268713 -250101 562853
18 3 O 2.09991 6.01128 4.4844 -1.2 -9.80283 -3.57999e+06 -43330.2 -3.82834e+06 493083 -211583 -142538
19 3 O -4.52137 3.42402 4.4844 -1.2 -9.3952 -2.50576e+06 -2.69495e+06 -3.82713e+06 -2.41856e+06 -993157 14586.2
20 3 O 2.80834 3.69187 3.18632 -1.2 -9.55723 -1.80482e+06 -2.78593e+06 -416331 442180 -503880 -566062
21 1 Mg 1.17857 2.37449 0 1.2 -5.01766 -818315 -1.4691e+07 -6.53401e+06 6.52341e+06 1.14943e+06 4.73728e+06
22 3 O 2.76143 3.69187 5.78248 -1.2 -9.66648 -2.4137e+06 -2.15376e+06 -1.34912e+06 494769 -34124.7 -22580.1
23 1 Mg -1.67381 2.41581 1.4948 1.2 -7.42142 1.30892e+06 -191702 4.03982e+06 1.34166e+06 -608107 1.15186e+06
24 2 Si 0.16286 0.350945 1.4948 2.4 -24.276 -8.67118e+06 1.23044e+07 1.15592e+07 1.56348e+06 2.75998e+06 1.48691e+06
25 3 O 0.15972 -1.26229 1.4948 -1.2 -4.88135 -1.04652e+07 -7.86425e+06 -2.91348e+07 -5.59377e+06 -8.50816e+06 -2.76038e+06
26 3 O 6.77654 1.32496 1.4948 -1.2 -10.5051 -5.5035e+06 1.79344e+06 -1.40238e+06 -638752 -676559 911395
27 3 O -0.508028 1.05712 0.196716 -1.2 -9.63428 258220 -4.70773e+06 -645643 -542826 249293 -4.71844e+06
28 3 O -0.552171 1.05712 2.79288 -1.2 -6.98271 -5.01874e+06 -4.48865e+06 -2.47881e+07 1.4541e+06 -6.74541e+06 -5.65646e+06
29 1 Mg 6.31713 4.74899 0 1.2 -4.80555 179248 -1.26333e+07 -6.39891e+06 -7.30852e+06 1.48502e+06 -3.49261e+06
30 1 Mg 3.54847 9.45668 1.4948 1.2 -8.14845 -37283 1.98568e+06 4.18156e+06 -955032 -896181 -114307
31 2 Si 5.36879 6.77254 1.4948 2.4 -33.936 6.68597e+06 1.25702e+07 1.10636e+07 1.65945e+06 228033 -1.71068e+06
32 3 O 5.41937 8.38578 1.4948 -1.2 -4.94171 -16867.4 -1.21486e+06 -3.49539e+07 765036 1.07711e+06 -4.39894e+06
33 3 O 1.75158 5.79852 1.4948 -1.2 -9.68099 -3.71199e+06 -2.58339e+06 -1.20666e+06 1.96232e+06 -1.57294e+06 -1.45144e+06
34 3 O 4.67421 6.06637 0.196716 -1.2 -3.90791 391549 -1.04308e+07 -3.11801e+07 -2.01511e+06 1.24657e+06 -4.55352e+06
35 1 Mg 6.26654 4.74899 2.9896 1.2 -7.81857 3.7416e+06 -1.60254e+06 -41988.9 1.78647e+06 -791058 1.97302e+06
36 3 O 4.63043 6.06637 2.79288 -1.2 -9.07318 -1.24464e+06 -4.13485e+06 -2.04114e+06 945179 -158143 -1.54961e+06
37 1 Mg -1.12976 4.79031 4.4844 1.2 -8.5576 -1.05083e+06 2.6953e+06 2.93666e+06 -692179 -553071 -161361
38 2 Si -2.9517 7.47444 4.4844 2.4 -32.2697 1.02347e+07 9.34194e+06 8.27946e+06 -38696.3 -107578 33187.8
39 3 O -3.00198 5.86121 4.4844 -1.2 -9.69648 -3.47219e+06 -259643 -3.74297e+06 101447 -250175 110756
40 3 O 0.666315 8.44846 4.4844 -1.2 -9.59806 -2.96077e+06 -2.7878e+06 -2.95581e+06 2.11801e+06 -480731 -123217
41 3 O -2.21213 8.18062 3.18632 -1.2 -9.3368 -2.53383e+06 -3.62874e+06 -420946 1.10944e+06 -260083 -1.57103e+06
42 3 O -2.25864 8.18062 5.78248 -1.2 -9.36962 -2.32055e+06 -3.93712e+06 -1.38717e+06 1.07046e+06 16573.4 1.28495e+06
43 1 Mg 1.20893 7.12349 2.9896 1.2 -7.75137 3.78044e+06 -1.42585e+06 -386051 -1.26885e+06 -1.3405e+06 -1.57511e+06
44 1 Mg 4.00982 7.08218 4.4844 1.2 -8.3723 -1.36204e+06 2.66263e+06 3.03308e+06 1.01986e+06 -216119 228721
45 2 Si 2.17861 9.14704 4.4844 2.4 -32.2031 1.03144e+07 9.19772e+06 8.20417e+06 552164 103563 434284
46 3 O 2.18828 10.7603 4.4844 -1.2 -9.75724 -3.53036e+06 -322162 -3.65749e+06 454279 -250372 -236379
47 3 O -4.43805 8.17302 4.4844 -1.2 -9.59167 -2.81092e+06 -2.81619e+06 -3.05121e+06 -1.5058e+06 -468508 -192350
48 3 O 2.89193 8.44087 3.18632 -1.2 -9.35639 -2.40316e+06 -3.77295e+06 -530526 -926992 -278026 1.10359e+06
49 1 Mg 1.25915 7.12349 0 1.2 -5.18117 743914 -7.25687e+06 -6.63217e+06 5.88909e+06 1.32983e+06 2.72509e+06
50 3 O 2.84547 8.44087 5.78248 -1.2 -9.3794 -2.2396e+06 -3.84304e+06 -1.68882e+06 -853145 -365927 -1.31432e+06
51 1 Mg -1.59284 7.16481 1.4948 1.2 -8.06469 539852 1.61855e+06 4.03641e+06 1.45649e+06 -943518 439481
52 2 Si 0.240329 5.09994 1.4948 2.4 -33.7075 7.75843e+06 1.12944e+07 1.09013e+07 -1.95665e+06 -1.1665e+06 2.12675e+06
53 3 O 0.234538 3.48671 1.4948 -1.2 -5.39212 -1.51738e+06 313278 -3.3691e+07 402357 5.23841e+06 3.85018e+06
54 3 O 6.85564 6.07396 1.4948 -1.2 -9.75987 -4.11985e+06 -2.04562e+06 -1.17143e+06 -1.33719e+06 -1.85301e+06 1.07582e+06
55 3 O -0.429565 5.80612 0.196716 -1.2 -4.16488 -476604 -9.06341e+06 -3.1224e+07 1.85698e+06 1.24903e+06 4.45728e+06
56 3 O -0.473377 5.80612 2.79288 -1.2 -9.1598 -1.80673e+06 -3.68501e+06 -1.88947e+06 -789857 371962 1.2687e+06
57 1 Mg 6.40169 9.49799 0 1.2 -5.13962 1.35101e+06 -6.16157e+06 -6.89014e+06 -5.47994e+06 1.01957e+06 -2.27818e+06
58 1 Mg 3.64209 14.2057 1.4948 1.2 -8.22852 -100924 1.95629e+06 4.36199e+06 -1.03374e+06 -955066 882.573
59 2 Si 5.45748 11.5215 1.4948 2.4 -33.9155 6.96064e+06 1.21043e+07 1.11977e+07 903368 381093 -1.63999e+06
60 3 O 5.51101 13.1348 1.4948 -1.2 -4.9651 -217523 -1.03654e+06 -3.47136e+07 466563 -2.55466e+06 -4.61873e+06
61 3 O 1.83851 10.5475 1.4948 -1.2 -9.75785 -3.93754e+06 -2.08975e+06 -1.08025e+06 1.54041e+06 -1.5851e+06 -1.32407e+06
62 3 O 4.7611 10.8154 0.196716 -1.2 -3.76332 809442 -1.17137e+07 -3.17691e+07 -2.47749e+06 -1.78908e+06 -4.51097e+06
63 1 Mg 6.35203 9.49799 2.9896 1.2 -7.74102 3.69461e+06 -1.37778e+06 -346389 1.31492e+06 -1.19356e+06 2.2082e+06
64 3 O 4.71833 10.8154 2.79288 -1.2 -9.09142 -1.44975e+06 -3.97144e+06 -1.98177e+06 1.0433e+06 -6706.49 -1.56471e+06
65 1 Mg -1.0438 9.53931 4.4844 1.2 -8.36882 -1.30285e+06 2.69177e+06 2.85053e+06 -575818 -352010 185858
66 2 Si -2.8604 12.2234 4.4844 2.4 -32.3994 1.04074e+07 9.08183e+06 8.57785e+06 -48476.7 -226274 669818
67 3 O -2.91391 10.6102 4.4844 -1.2 -9.74158 -3.42804e+06 -364191 -3.63278e+06 222463 -115316 -320577
68 3 O 0.7596 13.1975 4.4844 -1.2 -9.49355 -3.09401e+06 -2.75758e+06 -3.01758e+06 2.14267e+06 -478353 -247335
69 3 O -2.12001 12.9296 3.18632 -1.2 -9.27717 -2.54796e+06 -3.57126e+06 -563789 1.15318e+06 -172862 -1.8089e+06
70 3 O -2.16532 12.9296 5.78248 -1.2 -9.17724 -2.52082e+06 -3.72553e+06 -1.72368e+06 1.12938e+06 188733 1.07243e+06
71 1 Mg 1.29891 11.8725 2.9896 1.2 -7.7744 3.86822e+06 -1.40658e+06 -459433 -1.18148e+06 -1.21504e+06 -1.40734e+06
72 1 Mg 4.10033 11.8312 4.4844 1.2 -8.42157 -1.16901e+06 2.64759e+06 2.9354e+06 1.13172e+06 -205487 367072
73 2 Si 2.27333 13.896 4.4844 2.4 -32.4212 1.07076e+07 9.08647e+06 8.27573e+06 643755 89447.5 642513
74 3 O 2.28634 15.5093 4.4844 -1.2 -9.64716 -3.68305e+06 -276225 -3.7156e+06 495587 -234476 -275262
75 3 O -4.34533 12.922 4.4844 -1.2 -9.50649 -2.99236e+06 -2.65488e+06 -3.15921e+06 -1.47441e+06 -507577 -355331
76 3 O 2.98455 13.1899 3.18632 -1.2 -9.30469 -2.54452e+06 -3.6826e+06 -582140 -950725 -200962 999503
77 1 Mg 1.34779 11.8725 0 1.2 -5.38588 2.58997e+06 -2.61788e+06 -6.89086e+06 3.5636e+06 792182 1.84183e+06
78 3 O 2.93934 13.1899 5.78248 -1.2 -9.22581 -2.54342e+06 -3.83522e+06 -1.7436e+06 -913404 -364200 -1.50454e+06
79 1 Mg -1.50344 11.9138 1.4948 1.2 -8.16253 239756 1.89741e+06 4.19817e+06 1.55869e+06 -970174 677551
80 2 Si 0.326006 9.84894 1.4948 2.4 -33.8606 7.07216e+06 1.21981e+07 1.08768e+07 -614093 68582.1 2.69406e+06
81 3 O 0.317364 8.23571 1.4948 -1.2 -4.94967 -183103 -1.07477e+06 -3.50445e+07 -123199 1.20618e+06 4.03681e+06
82 3 O 6.94307 10.823 1.4948 -1.2 -9.79197 -4.0644e+06 -1.90943e+06 -1.038e+06 -985719 -1.52508e+06 813556
83 3 O -0.343122 10.5551 0.196716 -1.2 -3.8635 483627 -1.11641e+07 -3.17976e+07 2.47095e+06 -2.01891e+06 4.29763e+06
84 3 O -0.385966 10.5551 2.79288 -1.2 -9.13605 -1.55594e+06 -4.01278e+06 -1.9079e+06 -852932 123816 870737
85 1 Mg 6.49448 14.247 0 1.2 -5.35082 3.04444e+06 -1.83467e+06 -6.9998e+06 -2.97557e+06 271918 -1.23575e+06
86 1 Mg 3.74457 18.9547 1.4948 1.2 -8.30109 -305232 2.15339e+06 4.40829e+06 -1.11354e+06 -970405 40477.8
87 2 Si 5.55495 16.2705 1.4948 2.4 -33.9177 7.26501e+06 1.17845e+07 1.12356e+07 531162 825753 -1.67437e+06
88 3 O 5.6115 17.8838 1.4948 -1.2 -5.28179 -1.24273e+06 -995630 -3.19908e+07 71090.3 -6.07712e+06 -4.45072e+06
89 3 O 1.93416 15.2965 1.4948 -1.2 -9.77585 -4.04306e+06 -1.72025e+06 -1.06481e+06 1.53652e+06 -1.36818e+06 -1.35132e+06
90 3 O 4.85636 15.5644 0.196716 -1.2 -3.78444 838951 -1.33755e+07 -3.0269e+07 -3.03402e+06 -5.13823e+06 -4.03881e+06
91 1 Mg 6.44662 14.247 2.9896 1.2 -7.78332 3.86925e+06 -1.50702e+06 -324983 1.2946e+06 -1.19239e+06 2.28648e+06
92 3 O 4.81537 15.5644 2.79288 -1.2 -9.0354 -1.53345e+06 -3.93111e+06 -2.057e+06 1.0745e+06 -38266.1 -1.56209e+06
93 1 Mg -0.948271 14.2883 4.4844 1.2 -8.49069 -1.18016e+06 2.59373e+06 3.01449e+06 -528030 -384845 247459
94 2 Si -2.75928 16.9724 4.4844 2.4 -32.492 1.06481e+07 9.33984e+06 8.22829e+06 58651 -107425 505493
95 3 O -2.81617 15.3592 4.4844 -1.2 -9.64243 -3.57524e+06 -292603 -3.70034e+06 243101 -118032 -219497
96 3 O 0.862762 17.9465 4.4844 -1.2 -9.43354 -3.12388e+06 -2.85297e+06 -2.98787e+06 2.23665e+06 -462550 -235412
97 3 O -2.0185 17.6786 3.18632 -1.2 -9.23811 -2.57121e+06 -3.66681e+06 -526208 1.15393e+06 -140980 -1.824e+06
98 3 O -2.06164 17.6786 5.78248 -1.2 -9.16515 -2.49296e+06 -4.04656e+06 -1.39116e+06 1.05893e+06 -64603.2 1.02719e+06
99 1 Mg 1.39817 16.6215 2.9896 1.2 -7.8099 4.00711e+06 -1.41499e+06 -535087 -1.18101e+06 -1.22708e+06 -1.36707e+06
100 1 Mg 4.20062 16.5802 4.4844 1.2 -8.49679 -1.02023e+06 2.63553e+06 2.92179e+06 1.12892e+06 -286491 275423
101 2 Si 2.37796 18.645 4.4844 2.4 -32.4809 1.08216e+07 9.30273e+06 8.03925e+06 641731 -123982 462818
102 3 O 2.39434 20.2583 4.4844 -1.2 -9.64494 -3.78155e+06 -394410 -3.51623e+06 482615 -124367 -289122
103 3 O -4.24274 17.671 4.4844 -1.2 -9.48893 -3.15271e+06 -2.80693e+06 -2.8755e+06 -1.47714e+06 -496343 -309072
104 3 O 3.08659 17.9389 3.18632 -1.2 -9.27098 -2.59229e+06 -3.75078e+06 -559213 -935538 -69220.6 1.03152e+06
105 1 Mg 1.44478 16.6215 0 1.2 -5.47679 4.23863e+06 372690 -6.9418e+06 1.40047e+06 -93818.1 1.20804e+06
106 3 O 3.0436 17.9389 5.78248 -1.2 -9.15785 -2.57466e+06 -3.92305e+06 -1.76075e+06 -874602 -142438 -1.28325e+06
107 1 Mg -1.40524 16.6628 1.4948 1.2 -8.24729 70330.3 2.05294e+06 4.30021e+06 1.6913e+06 -970703 683750
108 2 Si 0.420358 14.5979 1.4948 2.4 -33.9088 7.24025e+06 1.19187e+07 1.10498e+07 -133394 533857 3.12059e+06
109 3 O 0.408732 12.9847 1.4948 -1.2 -4.95998 -292575 -1.01904e+06 -3.47985e+07 226656 -2.54535e+06 3.95736e+06
110 3 O 7.03923 15.572 1.4948 -1.2 -9.81169 -4.14463e+06 -1.57799e+06 -1.01578e+06 -947678 -1.3163e+06 712473
111 3 O -0.248332 15.3041 0.196716 -1.2 -3.89469 448245 -1.28972e+07 -3.02332e+07 3.25606e+06 -5.40241e+06 3.67102e+06
112 3 O -0.289436 15.3041 2.79288 -1.2 -9.0737 -1.57991e+06 -4.02822e+06 -2.00854e+06 -859865 63875.7 774380
113 1 Mg 6.59566 18.996 0 1.2 -5.44843 4.38841e+06 840067 -6.81892e+06 -910347 -631270 -614032
114 1 Mg 3.85574 23.7037 1.4948 1.2 -8.37198 -594457 2.31953e+06 4.50515e+06 -1.18487e+06 -905134 7586.59
115 2 Si 5.66125 21.0195 1.4948 2.4 -33.827 7.69268e+06 1.14118e+07 1.1097e+07 191022 1.28712e+06 -1.75032e+06
116 3 O 5.72074 22.6328 1.4948 -1.2 -5.89044 -2.90326e+06 -867929 -2.71419e+07 -217633 -8.53721e+06 -3.93161e+06
117 3 O 2.03867 20.0455 1.4948 -1.2 -9.81002 -4.05466e+06 -1.50159e+06 -1.0149e+06 1.57291e+06 -1.12383e+06 -1.27495e+06
118 3 O 4.96004 20.3134 0.196716 -1.2 -4.13332 154950 -1.48324e+07 -2.63829e+07 -3.18898e+06 -7.96345e+06 -3.02447e+06
119 1 Mg 6.55057 18.996 2.9896 1.2 -7.78267 3.98992e+06 -1.42704e+06 -526099 1.31702e+06 -1.16636e+06 2.31703e+06
120 3 O 4.92172 20.3134 2.79288 -1.2 -9.01901 -1.56209e+06 -4.01925e+06 -2.00473e+06 1.06747e+06 -130742 -1.57903e+06
121 1 Mg -0.84282 19.0373 4.4844 1.2 -8.537 -1.25277e+06 2.72082e+06 3.02617e+06 -570504 -334458 330769
122 2 Si -2.64823 21.7214 4.4844 2.4 -32.6345 1.07148e+07 9.14374e+06 8.59161e+06 -72419.4 -157371 565278
123 3 O -2.70847 20.1082 4.4844 -1.2 -9.6032 -3.58353e+06 -355849 -3.68317e+06 338720 -168186 -389449
124 3 O 0.97581 22.6955 4.4844 -1.2 -9.39732 -3.25408e+06 -2.79511e+06 -2.98933e+06 2.17263e+06 -407327 -202531
125 3 O -1.9076 22.4276 3.18632 -1.2 -9.19871 -2.5689e+06 -3.63295e+06 -663391 1.1736e+06 -29565.6 -1.74873e+06
126 3 O -1.9475 22.4276 5.78248 -1.2 -9.01908 -2.66809e+06 -3.81219e+06 -1.70079e+06 1.15749e+06 90175.1 1.24622e+06
127 1 Mg 1.50678 21.3705 2.9896 1.2 -7.80669 4.1364e+06 -1.40094e+06 -683588 -1.1534e+06 -1.29163e+06 -1.34495e+06
128 1 Mg 4.31086 21.3292 4.4844 1.2 -8.51808 -924394 2.65931e+06 2.83668e+06 1.19411e+06 -152324 427332
129 2 Si 2.49243 23.394 4.4844 2.4 -32.5704 1.10861e+07 9.07031e+06 8.14632e+06 769756 -28827.7 470561
130 3 O 2.51204 25.0073 4.4844 -1.2 -9.5927 -3.84111e+06 -301364 -3.63922e+06 518119 -163030 -73677.6
131 3 O -4.13026 22.42 4.4844 -1.2 -9.41563 -3.2046e+06 -2.68036e+06 -3.0717e+06 -1.35134e+06 -514605 -322473
132 3 O 3.19799 22.6879 3.18632 -1.2 -9.24548 -2.62915e+06 -3.73572e+06 -638425 -931163 -11937.4 1.02758e+06
133 1 Mg 1.5501 21.3705 0 1.2 -5.51481 5.0818e+06 1.91018e+06 -6.48347e+06 -72681.8 -1.01379e+06 695950
134 3 O 3.1583 22.6879 5.78248 -1.2 -9.11265 -2.83684e+06 -3.7464e+06 -1.65852e+06 -948881 -268463 -1.53777e+06
135 1 Mg -1.29822 21.4118 1.4948 1.2 -8.32454 -188953 2.22454e+06 4.40728e+06 1.80091e+06 -955132 559697
136 2 Si 0.523568 19.3469 1.4948 2.4 -33.8542 7.5492e+06 1.16737e+07 1.09264e+07 291573 932436 3.18849e+06
137 3 O 0.508934 17.7337 1.4948 -1.2 -5.27504 -1.31635e+06 -974704 -3.20833e+07 675173 -6.06011e+06 3.75879e+06
138 3 O 7.14425 20.321 1.4948 -1.2 -9.84564 -4.14563e+06 -1.36156e+06 -985912 -938135 -1.09647e+06 708957
139 3 O -0.145107 20.0531 0.196716 -1.2 -4.24478 -277254 -1.44849e+07 -2.6323e+07 3.68492e+06 -8.17715e+06 2.79904e+06
140 3 O -0.183601 20.0531 2.79288 -1.2 -9.05131 -1.56599e+06 -4.11866e+06 -2.0172e+06 -828874 34067.2 740528
141 1 Mg 6.70502 23.745 0 1.2 -5.51662 4.84396e+06 2.11287e+06 -6.05423e+06 418930 -1.46887e+06 -386003
142 1 Mg 3.97493 28.4527 1.4948 1.2 -8.40909 -1.0079e+06 2.64011e+06 4.42482e+06 -1.21851e+06 -756432 -127929
143 2 Si 5.77602 25.7685 1.4948 2.4 -33.6414 8.2172e+06 1.09466e+07 1.08279e+07 -114344 1.56707e+06 -2.05614e+06
144 3 O 5.83821 27.3818 1.4948 -1.2 -6.72858 -4.56248e+06 -840082 -2.09324e+07 -338448 -9.30301e+06 -3.11938e+06
145 3 O 2.15175 24.7945 1.4948 -1.2 -9.84547 -4.00436e+06 -1.31134e+06 -1.06479e+06 1.61205e+06 -918417 -1.09111e+06
146 3 O 5.07184 25.0624 0.196716 -1.2 -4.79974 -1.05391e+06 -1.55162e+07 -2.08019e+07 -2.79112e+06 -9.43304e+06 -1.61773e+06
147 1 Mg 6.66374 23.745 2.9896 1.2 -7.78784 4.07795e+06 -1.47647e+06 -553489 1.30132e+06 -1.22846e+06 2.15424e+06
148 3 O 5.03707 25.0624 2.79288 -1.2 -9.01041 -1.55757e+06 -4.04673e+06 -2.0345e+06 1.09291e+06 -183523 -1.36327e+06
149 1 Mg -0.727559 23.7863 4.4844 1.2 -8.582 -1.16108e+06 2.66694e+06 3.05235e+06 -482956 -331286 135684
150 2 Si -2.5277 26.4704 4.4844 2.4 -32.6149 1.0732e+07 9.46912e+06 8.22106e+06 -37873.4 -236890 140695
151 3 O -2.59107 24.8572 4.4844 -1.2 -9.57079 -3.66796e+06 -393982 -3.60764e+06 360221 -78514.2 -90853.2
152 3 O 1.09817 27.4445 4.4844 -1.2 -9.42996 -3.29128e+06 -2.94932e+06 -2.74829e+06 2.23502e+06 -397271 114111
153 3 O -1.78784 27.1766 3.18632 -1.2 -9.21314 -2.50435e+06 -3.76259e+06 -633287 1.18822e+06 76788.4 -1.53182e+06
154 3 O -1.82343 27.1766 5.78248 -1.2 -9.0483 -2.5895e+06 -4.03262e+06 -1.46771e+06 1.30108e+06 159543 1.30139e+06
155 1 Mg 1.62435 26.1195 2.9896 1.2 -7.78248 4.21325e+06 -1.36496e+06 -832154 -1.14325e+06 -1.30849e+06 -1.54802e+06
156 1 Mg 4.43064 26.0782 4.4844 1.2 -8.55011 -975104 2.7579e+06 2.84257e+06 1.23195e+06 -168236 81456
157 2 Si 2.61607 28.143 4.4844 2.4 -32.4801 1.09752e+07 9.56362e+06 7.62352e+06 862140 75967.3 -86783
158 3 O 2.63853 29.7563 4.4844 -1.2 -9.67226 -3.7391e+06 -557667 -3.35914e+06 523261 -245338 26804.6
159 3 O -4.00841 27.169 4.4844 -1.2 -9.43542 -3.16786e+06 -2.8988e+06 -2.85878e+06 -1.36247e+06 -457146 -129033
160 3 O 3.3182 27.4369 3.18632 -1.2 -9.26004 -2.53462e+06 -3.90286e+06 -616699 -926661 45299.2 1.27026e+06
161 1 Mg 1.66335 26.1195 0 1.2 -5.54538 4.86282e+06 2.58175e+06 -5.66785e+06 -899283 -1.58885e+06 353520
162 3 O 3.28288 27.4369 5.78248 -1.2 -9.12841 -2.70339e+06 -4.14418e+06 -1.36137e+06 -1.06034e+06 -299400 -1.09712e+06
163 1 Mg -1.18278 26.1608 1.4948 1.2 -8.37827 -542846 2.46983e+06 4.40976e+06 1.87928e+06 -853995 285197
164 2 Si 0.635424 24.0959 1.4948 2.4 -33.7186 8.05332e+06 1.11705e+07 1.07757e+07 746555 1.32247e+06 2.94033e+06
165 3 O 0.617906 22.4827 1.4948 -1.2 -5.88744 -2.99799e+06 -850894 -2.72038e+07 1.01282e+06 -8.50865e+06 3.39398e+06
166 3 O 7.25781 25.07 1.4948 -1.2 -9.88257 -4.07513e+06 -1.19937e+06 -1.03976e+06 -931375 -841031 875015
167 3 O -0.0337363 24.8021 0.196716 -1.2 -4.89445 -1.45625e+06 -1.54534e+07 -2.07224e+07 3.50939e+06 -9.63062e+06 1.68059e+06
168 3 O -0.0687235 24.8021 2.79288 -1.2 -9.05154 -1.60556e+06 -4.1469e+06 -2.00225e+06 -835274 -36497.5 882645
169 1 Mg 6.82195 28.494 0 1.2 -5.58265 4.28138e+06 2.68352e+06 -5.077e+06 1.14992e+06 -1.82745e+06 -503401
170 1 Mg 4.10106 33.2017 1.4948 1.2 -8.45816 -1.41924e+06 2.8353e+06 4.37909e+06 -1.22211e+06 -531320 -149138
171 2 Si 5.89839 30.5175 1.4948 2.4 -33.3742 8.77511e+06 1.04646e+07 1.04069e+07 -346427 1.68261e+06 -2.26051e+06
172 3 O 5.96289 32.1308 1.4948 -1.2 -7.61617 -5.64614e+06 -764087 -1.48479e+07 -280748 -8.44735e+06 -2.36123e+06
173 3 O 2.27266 29.5435 1.4948 -1.2 -9.89587 -3.86976e+06 -1.31851e+06 -1.06361e+06 1.65042e+06 -727867 -867950
174 3 O 5.19102 29.8114 0.196716 -1.2 -5.69221 -2.32467e+06 -1.51458e+07 -1.46697e+07 -1.93197e+06 -9.27903e+06 -83768.6
175 1 Mg 6.78546 28.494 2.9896 1.2 -7.73417 4.05309e+06 -1.34135e+06 -744238 1.29689e+06 -1.31573e+06 1.95029e+06
176 3 O 5.16061 29.8114 2.79288 -1.2 -9.05852 -1.4851e+06 -4.19403e+06 -1.92253e+06 1.11935e+06 -259535 -1.1786e+06
177 1 Mg -0.603205 28.5353 4.4844 1.2 -8.52368 -1.20359e+06 2.81454e+06 2.84704e+06 -499235 -379580 -78181.7
178 2 Si -2.39877 31.2194 4.4844 2.4 -32.4542 1.05197e+07 9.71788e+06 7.92573e+06 68057 -520044 -204105
179 3 O -2.46483 29.6062 4.4844 -1.2 -9.62501 -3.52632e+06 -521570 -3.5338e+06 426678 67524.4 78600.1
180 3 O 1.22864 32.1935 4.4844 -1.2 -9.51439 -3.18345e+06 -3.09313e+06 -2.59298e+06 2.24477e+06 -445848 28260
181 3 O -1.66032 31.9256 3.18632 -1.2 -9.25839 -2.41211e+06 -3.8855e+06 -612446 1.13526e+06 175437 -1.41771e+06
182 3 O -1.69072 31.9256 5.78248 -1.2 -9.21861 -2.54584e+06 -4.11883e+06 -1.02366e+06 1.07809e+06 287127 1.4565e+06
183 1 Mg 1.7499 30.8685 2.9896 1.2 -7.70944 4.19596e+06 -1.2062e+06 -1.08411e+06 -1.12369e+06 -1.34098e+06 -1.62379e+06
184 1 Mg 4.55894 30.8272 4.4844 1.2 -8.49849 -1.18347e+06 2.90629e+06 2.82082e+06 1.18364e+06 -58291.3 -1954.22
185 2 Si 2.7476 32.892 4.4844 2.4 -32.3817 1.05855e+07 9.74343e+06 7.66828e+06 655434 103158 3190.18
186 3 O 2.77235 34.5053 4.4844 -1.2 -9.66838 -3.56561e+06 -571308 -3.53403e+06 656573 -122237 -16900.3
187 3 O -3.87837 31.918 4.4844 -1.2 -9.49916 -3.04064e+06 -2.9923e+06 -2.80512e+06 -1.30971e+06 -308492 27904.8
188 3 O 3.44611 32.1859 3.18632 -1.2 -9.29038 -2.36534e+06 -4.02924e+06 -708163 -852511 98658.8 1.31294e+06
189 1 Mg 1.7837 30.8685 0 1.2 -5.62092 3.83384e+06 2.76537e+06 -4.76216e+06 -1.34547e+06 -1.53722e+06 263028
190 3 O 3.41602 32.1859 5.78248 -1.2 -9.20983 -2.42789e+06 -4.19363e+06 -1.29084e+06 -806531 -340346 -1.15719e+06
191 1 Mg -1.05984 30.9098 1.4948 1.2 -8.40801 -948770 2.74864e+06 4.28271e+06 1.9137e+06 -654046 46687
192 2 Si 0.755243 28.8449 1.4948 2.4 -33.4618 8.61843e+06 1.0787e+07 1.02676e+07 1.145e+06 1.58119e+06 2.41491e+06
193 3 O 0.735127 27.2317 1.4948 -1.2 -6.72942 -4.69454e+06 -808554 -2.09676e+07 1.17501e+06 -9.30725e+06 3.00772e+06
194 3 O 7.37914 29.819 1.4948 -1.2 -9.93068 -3.92835e+06 -1.19629e+06 -1.07998e+06 -925925 -599618 1.07378e+06
195 3 O 0.0850649 29.5511 0.196716 -1.2 -5.76504 -2.64767e+06 -1.54831e+07 -1.45387e+07 2.69842e+06 -9.44095e+06 538857
196 3 O 0.0543974 29.5511 2.79288 -1.2 -9.11559 -1.60476e+06 -4.31213e+06 -1.78688e+06 -844735 -83501.8 1.0355e+06
197 1 Mg 6.94543 33.243 0 1.2 -5.71128 3.19194e+06 2.71073e+06 -4.13513e+06 1.58465e+06 -1.43623e+06 -835680
198 1 Mg 4.23267 37.9507 1.4948 1.2 -8.51974 -1.70715e+06 2.94904e+06 4.23744e+06 -1.13609e+06 -268311 -124843
199 2 Si 6.02709 35.2665 1.4948 2.4 -33.1579 9.55066e+06 9.63893e+06 1.01605e+07 -431294 1.55559e+06 -2.13909e+06
200 3 O 6.09339 36.8798 1.4948 -1.2 -8.37999 -5.96658e+06 -610612 -9.94997e+06 -130096 -6.57209e+06 -1.81756e+06
201 3 O 2.40018 34.2925 1.4948 -1.2 -9.88593 -3.73237e+06 -1.25518e+06 -1.3327e+06 1.70366e+06 -528668 -823018
202 3 O 5.31645 34.5604 0.196716 -1.2 -6.61285 -3.35236e+06 -1.34635e+07 -9.41245e+06 -946295 -7.82592e+06 1.11518e+06
203 1 Mg 6.91449 33.243 2.9896 1.2 -7.67786 4.07943e+06 -1.30743e+06 -886567 1.31475e+06 -1.43134e+06 1.84101e+06
204 3 O 5.291 34.5604 2.79288 -1.2 -9.09045 -1.55839e+06 -4.1566e+06 -1.87212e+06 1.15853e+06 -250699 -1.10077e+06
205 1 Mg -0.471101 33.2843 4.4844 1.2 -8.45079 -1.27192e+06 2.88589e+06 2.7188e+06 -367088 -231610 10391.1
206 2 Si -2.26307 35.9684 4.4844 2.4 -32.4029 1.08392e+07 9.34111e+06 7.91016e+06 222465 -214137 -350385
207 3 O -2.33122 34.3552 4.4844 -1.2 -9.68334 -3.59992e+06 -479383 -3.40404e+06 330632 45905.4 87766.5
208 3 O 1.36549 36.9425 4.4844 -1.2 -9.43439 -3.03283e+06 -2.99742e+06 -2.95783e+06 2.22489e+06 -418488 98994.7
209 3 O -1.52658 36.6746 3.18632 -1.2 -9.24435 -2.42346e+06 -3.79666e+06 -803814 1.11059e+06 99088.3 -1.33155e+06
210 3 O -1.55122 36.6746 5.78248 -1.2 -9.19535 -2.72358e+06 -3.74614e+06 -1.26888e+06 1.0033e+06 -67805.9 1.71926e+06
211 1 Mg 1.882 35.6175 2.9896 1.2 -7.71512 4.13538e+06 -1.25758e+06 -952932 -1.11742e+06 -1.44333e+06 -1.58941e+06
212 1 Mg 4.69415 35.5762 4.4844 1.2 -8.48682 -1.15137e+06 2.85696e+06 2.82043e+06 1.11296e+06 -195977 -70633.2
213 2 Si 2.88522 37.641 4.4844 2.4 -32.5362 1.02791e+07 9.65863e+06 8.31952e+06 747531 -238009 -160580
214 3 O 2.91159 39.2543 4.4844 -1.2 -9.6074 -3.38189e+06 -597942 -3.77037e+06 568762 -1037.24 157022
215 3 O -3.74183 36.667 4.4844 -1.2 -9.54509 -3.2956e+06 -2.85903e+06 -2.59907e+06 -1.26154e+06 -211276 167440
216 3 O 3.58014 36.9349 3.18632 -1.2 -9.25349 -2.2614e+06 -4.00123e+06 -999205 -822710 269886 1.33003e+06
217 1 Mg 1.90997 35.6175 0 1.2 -5.76498 2.59902e+06 2.55751e+06 -4.06736e+06 -1.66402e+06 -777265 701704
218 3 O 3.55582 36.9349 5.78248 -1.2 -9.10004 -2.34234e+06 -4.20735e+06 -1.56828e+06 -768942 94942 -1.13657e+06
219 1 Mg -0.93068 35.6588 1.4948 1.2 -8.46533 -1.26556e+06 2.83379e+06 4.21412e+06 1.87732e+06 -300591 -37518.9
220 2 Si 0.881882 33.5939 1.4948 2.4 -33.2334 9.25978e+06 1.00746e+07 1.00436e+07 1.42618e+06 1.65286e+06 2.10359e+06
221 3 O 0.859602 31.9807 1.4948 -1.2 -7.6222 -5.79003e+06 -752550 -1.48492e+07 1.15042e+06 -8.47891e+06 2.51278e+06
222 3 O 7.507 34.568 1.4948 -1.2 -9.92783 -3.86273e+06 -1.13192e+06 -1.28136e+06 -942562 -412167 1.15789e+06
223 3 O 0.210186 34.3001 0.196716 -1.2 -6.65766 -3.55588e+06 -1.41723e+07 -9.27652e+06 1.52749e+06 -7.95264e+06 -561333
224 3 O 0.184454 34.3001 2.79288 -1.2 -9.14521 -1.62947e+06 -4.28635e+06 -1.78875e+06 -877428 -191605 986337
225 1 Mg 7.07415 37.992 0 1.2 -5.85679 2.08343e+06 2.51735e+06 -3.74936e+06 1.87811e+06 -421827 -1.38149e+06
226 1 Mg 4.36817 42.6997 1.4948 1.2 -8.56927 -1.83742e+06 3.07567e+06 3.93857e+06 -987270 85373 -67829.3
227 2 Si 6.16058 40.0155 1.4948 2.4 -32.9888 1.02491e+07 9.0113e+06 9.82629e+06 -381937 1.20073e+06 -1.89279e+06
228 3 O 6.22815 41.6288 1.4948 -1.2 -8.95283 -5.56188e+06 -593703 -6.54458e+06 33619.2 -4.46179e+06 -1.48863e+06
229 3 O 2.53282 39.0415 1.4948 -1.2 -9.82632 -3.61912e+06 -1.30962e+06 -1.64617e+06 1.71547e+06 -354613 -786906
230 3 O 5.44674 39.3094 0.196716 -1.2 -7.45715 -3.87472e+06 -1.10502e+07 -5.51062e+06 -144865 -5.72716e+06 1.92417e+06
231 1 Mg 7.04922 37.992 2.9896 1.2 -7.65752 4.2296e+06 -1.34585e+06 -1.0199e+06 1.28464e+06 -1.52852e+06 1.74962e+06
232 3 O 5.42658 39.3094 2.79288 -1.2 -9.10348 -1.71618e+06 -4.13151e+06 -1.74571e+06 1.14897e+06 -179488 -1.04932e+06
233 1 Mg -0.333062 38.0333 4.4844 1.2 -8.4851 -1.28394e+06 2.79249e+06 2.87672e+06 -351334 76278.4 -203540
234 2 Si -2.12255 40.7174 4.4844 2.4 -32.2906 1.09919e+07 9.60639e+06 7.31248e+06 24598.4 -184816 -364498
235 3 O -2.19212 39.1042 4.4844 -1.2 -9.73407 -3.75978e+06 -493498 -3.1388e+06 450991 -39500.3 232782
236 3 O 1.50676 41.6915 4.4844 -1.2 -9.45676 -2.98032e+06 -3.18747e+06 -2.77896e+06 2.2968e+06 -453914 246573
237 3 O -1.3884 41.4236 3.18632 -1.2 -9.23419 -2.40877e+06 -3.91947e+06 -816747 1.17132e+06 92003.5 -1.3339e+06
238 3 O -1.40713 41.4236 5.78248 -1.2 -9.33821 -2.70859e+06 -3.95884e+06 -702823 1.26949e+06 -84491.5 1.63911e+06
239 1 Mg 2.01892 40.3665 2.9896 1.2 -7.73296 4.08354e+06 -1.18413e+06 -932707 -1.07912e+06 -1.5102e+06 -1.69611e+06
240 1 Mg 4.83434 40.3252 4.4844 1.2 -8.48888 -1.18921e+06 2.93618e+06 2.78427e+06 1.24707e+06 -345159 -142551
241 2 Si 3.02698 42.39 4.4844 2.4 -32.5189 1.00581e+07 1.00217e+07 8.15639e+06 881651 -75688.4 -326547
242 3 O 3.05433 44.0033 4.4844 -1.2 -9.62128 -3.40782e+06 -695481 -3.62116e+06 567541 -76942.2 37062.5
243 3 O -3.60077 41.416 4.4844 -1.2 -9.58234 -3.34265e+06 -2.98285e+06 -2.3702e+06 -1.29905e+06 -38349.3 81306.9
244 3 O 3.71851 41.6839 3.18632 -1.2 -9.22221 -2.15959e+06 -4.11697e+06 -1.14219e+06 -873471 290080 1.34753e+06
245 1 Mg 2.04077 40.3665 0 1.2 -5.88806 1.64586e+06 2.38066e+06 -4.16133e+06 -1.83574e+06 448336 1.45745e+06
246 3 O 3.70011 41.6839 5.78248 -1.2 -9.08208 -2.01538e+06 -4.43199e+06 -1.76096e+06 -1.0355e+06 124787 -970222
247 1 Mg -0.796865 40.4078 1.4948 1.2 -8.50802 -1.45183e+06 2.98638e+06 3.92455e+06 1.74873e+06 90617.9 -83213.4
248 2 Si 1.01387 38.3429 1.4948 2.4 -33.0772 9.88297e+06 9.29986e+06 9.98037e+06 1.55156e+06 1.5611e+06 1.74545e+06
249 3 O 0.989947 36.7297 1.4948 -1.2 -8.37407 -6.03453e+06 -589434 -1.00641e+07 1.02644e+06 -6.66835e+06 2.03417e+06
250 3 O 7.63988 39.317 1.4948 -1.2 -9.88122 -3.82664e+06 -1.20882e+06 -1.48848e+06 -927488 -248335 1.20644e+06
251 3 O 0.340253 39.0491 0.196716 -1.2 -7.47208 -3.97651e+06 -1.19486e+07 -5.44136e+06 382973 -5.90434e+06 -1.41085e+06
252 3 O 0.319795 39.0491 2.79288 -1.2 -9.14406 -1.7134e+06 -4.24895e+06 -1.77979e+06 -874420 -315185 1.07509e+06
253 1 Mg 7.20667 42.741 0 1.2 -5.97618 1.36202e+06 2.32035e+06 -4.10344e+06 1.98271e+06 902708 -2.17031e+06
254 1 Mg 4.50613 47.4487 1.4948 1.2 -8.64272 -1.68917e+06 2.95882e+06 3.82167e+06 -842880 441366 112394
255 2 Si 6.29731 44.7645 1.4948 2.4 -32.9584 1.07894e+07 8.29023e+06 9.93511e+06 -224575 849876 -1.40233e+06
256 3 O 6.36567 46.3778 1.4948 -1.2 -9.2714 -4.87936e+06 -410105 -4.79922e+06 176813 -2.68663e+06 -1.40348e+06
257 3 O 2.669 43.7905 1.4948 -1.2 -9.72329 -3.58392e+06 -1.45738e+06 -1.96856e+06 1.71358e+06 -223752 -861837
258 3 O 5.58048 44.0584 0.196716 -1.2 -8.10054 -3.9089e+06 -8.34573e+06 -3.18561e+06 326620 -3.70511e+06 2.42062e+06
259 1 Mg 7.1879 42.741 2.9896 1.2 -7.67243 4.2503e+06 -1.2606e+06 -1.08863e+06 1.27957e+06 -1.65985e+06 1.87399e+06
260 3 O 5.56564 44.0584 2.79288 -1.2 -9.08042 -1.87416e+06 -4.07578e+06 -1.70438e+06 1.10572e+06 -210053 -1.18886e+06
261 1 Mg -0.19105 42.7823 4.4844 1.2 -8.4469 -1.2742e+06 2.96626e+06 2.62915e+06 -492400 97428.6 -83547.8
262 2 Si -1.97909 45.4664 4.4844 2.4 -32.4864 1.08838e+07 9.43732e+06 7.91247e+06 45238.1 -317188 397405
263 3 O -2.04947 43.8532 4.4844 -1.2 -9.71276 -3.70016e+06 -596274 -3.1248e+06 479622 59375.1 -73528.8
264 3 O 1.65063 46.4405 4.4844 -1.2 -9.41154 -3.25761e+06 -2.94153e+06 -2.82635e+06 2.34237e+06 -289950 -30909.3
265 3 O -1.24745 46.1726 3.18632 -1.2 -9.12933 -2.42962e+06 -3.76084e+06 -1.22407e+06 1.17345e+06 139237 -1.55005e+06
266 3 O -1.26044 46.1726 5.78248 -1.2 -9.1429 -2.6837e+06 -3.74389e+06 -1.31972e+06 1.3342e+06 224431 1.14099e+06
267 1 Mg 2.15896 45.1155 2.9896 1.2 -7.77675 4.20307e+06 -1.23096e+06 -919510 -1.07789e+06 -1.61639e+06 -1.52489e+06
268 1 Mg 4.97763 45.0742 4.4844 1.2 -8.53161 -1.14056e+06 2.88683e+06 2.85333e+06 1.33938e+06 -157471 88472.2