ITEM: TIMESTEP
44900
ITEM: NUMBER OF ATOMS
10500
ITEM: BOX BOUNDS xy xz yz pp pp pp
0.0000000000000000e+00 1.5297749999999999e+01 5.0992499999999996e+00
0.0000000000000000e+00 1.1872499999999999e+02 0.0000000000000000e+00
0.0000000000000000e+00 8.9688000000000002e+01 0.0000000000000000e+00
ITEM: ATOMS id type element xu yu zu q c_pe c_s[1] c_s[2] c_s[3] c_s[4] c_s[5] c_s[6]
1 1 Mg 6.2404 -6.37941e-06 0 1.2 -4.43009 7.8853e+06 -2.94056e+06 -5.10871e+06 -18769.1 2.58343e+06 -368871
2 1 Mg 3.46349 4.70768 1.4948 1.2 -8.49083 -326181 1.89388e+06 5.1322e+06 -924681 -614663 -74776.2
3 2 Si 5.2885 2.02354 1.4948 2.4 -35.2891 1.00364e+07 9.02919e+06 1.32662e+07 8.87897e+06 619680 -3.45436e+06
4 3 O 5.33628 3.63678 1.4948 -1.2 -4.70869 -817385 -576311 -3.45604e+07 -340604 3.8409e+06 -3.71135e+06
5 3 O 1.67294 1.04952 1.4948 -1.2 -1.03055 -2.03481e+07 -7.83603e+07 -3.13476e+06 -2.41341e+07 -144204 129645
6 3 O 4.59532 1.31737 0.196716 -1.2 -3.0243 -1.96304e+06 -5.6333e+06 -3.15359e+07 -6.03479e+06 6.2808e+06 -2.48842e+06
7 1 Mg 6.18956 -6.37941e-06 2.9896 1.2 -4.98408 1.69722e+06 -2.92506e+07 -1.9966e+06 -8.85001e+06 2.41248e+06 3.85941e+06
8 3 O 4.55118 1.31737 2.79288 -1.2 -7.45507 88157.9 -3.72125e+06 -4.16194e+06 -2.99268e+06 -3.35529e+06 -895260
9 1 Mg -1.20682 0.0413099 4.4844 1.2 8.81384 -3.05293e+07 -9.44718e+07 776545 -2.86085e+07 -1.09666e+06 -114542
10 2 Si -3.0337 2.72544 4.4844 2.4 -33.2177 1.46169e+07 5.23105e+06 9.74165e+06 1.52324e+06 -26365.4 -1.06216e+06
11 3 O -3.08099 1.11221 4.4844 -1.2 -9.53759 -6.41053e+06 1.07501e+06 -3.09215e+06 -1.1537e+06 -196353 493801
12 3 O 0.582463 3.69946 4.4844 -1.2 -8.94706 -3.34963e+06 -4.66607e+06 -3.62105e+06 -543982 -210643 136971
13 3 O -2.29524 3.43162 3.18632 -1.2 -9.03447 -4.29472e+06 -1.64571e+06 -1.42343e+06 1.12271e+06 -797953 -740707
14 3 O -2.34216 3.43162 5.78248 -1.2 -8.82787 -4.07451e+06 -2.4023e+06 -2.22679e+06 888850 703714 1.48021e+06
15 1 Mg 1.12778 2.37449 2.9896 1.2 -7.63938 5.22928e+06 -2.55859e+06 249495 -3.2806e+06 -4.14813e+06 -2.51763e+06
16 1 Mg 3.92855 2.33318 4.4844 1.2 -8.5512 -4.15321e+06 4.06418e+06 5.81817e+06 1.47056e+06 274932 195525
17 2 Si 2.09341 4.39804 4.4844 2.4 -32.4343 1.20491e+07 5.24944e+06 1.05917e+07 228932 -97233 131819
18 3 O 2.09991 6.01128 4.4844 -1.2 -9.47789 -4.01641e+06 790988 -4.74953e+06 510236 -255839 109975
19 3 O -4.52137 3.42402 4.4844 -1.2 -9.11849 -2.94079e+06 -2.07265e+06 -4.47709e+06 -2.4549e+06 -807433 246531
20 3 O 2.80834 3.69187 3.18632 -1.2 -9.29948 -2.12757e+06 -1.98919e+06 -1.30462e+06 433619 -522951 -265929
21 1 Mg 1.17857 2.37449 0 1.2 -5.1337 -588107 -1.58255e+07 -5.44387e+06 6.52133e+06 1.23633e+06 4.41599e+06
22 3 O 2.76143 3.69187 5.78248 -1.2 -9.30137 -2.71952e+06 -1.80442e+06 -1.95035e+06 514373 -104226 206121
23 1 Mg -1.67381 2.41581 1.4948 1.2 -7.59603 1.59687e+06 -1.1795e+06 5.01945e+06 1.33704e+06 -577796 817399
24 2 Si 0.16286 0.350945 1.4948 2.4 -24.5962 -8.15965e+06 1.03301e+07 1.35352e+07 1.57245e+06 2.92061e+06 760769
25 3 O 0.15972 -1.26229 1.4948 -1.2 -4.74921 -1.06736e+07 -6.94277e+06 -3.00594e+07 -5.60074e+06 -8.5792e+06 -2.46071e+06
26 3 O 6.77654 1.32496 1.4948 -1.2 -10.3369 -5.77802e+06 2.78534e+06 -2.38988e+06 -634256 -625685 1.26416e+06
27 3 O -0.508028 1.05712 0.196716 -1.2 -9.52154 100990 -3.61756e+06 -1.75922e+06 -543898 160279 -4.36337e+06
28 3 O -0.552171 1.05712 2.79288 -1.2 -6.75674 -5.41048e+06 -3.59141e+06 -2.56566e+07 1.45506e+06 -6.83603e+06 -5.25994e+06
29 1 Mg 6.31713 4.74899 0 1.2 -4.9477 365408 -1.37279e+07 -5.26273e+06 -7.31168e+06 1.40025e+06 -3.69672e+06
30 1 Mg 3.54847 9.45668 1.4948 1.2 -8.31759 230108 1.16048e+06 5.01037e+06 -964834 -900949 -455755
31 2 Si 5.36879 6.77254 1.4948 2.4 -34.3079 7.25391e+06 1.06897e+07 1.29718e+07 1.66318e+06 128229 -2.20593e+06
32 3 O 5.41937 8.38578 1.4948 -1.2 -4.76399 -288369 -338855 -3.58428e+07 769725 1.1129e+06 -4.09586e+06
33 3 O 1.75158 5.79852 1.4948 -1.2 -9.49573 -4.01884e+06 -1.61925e+06 -2.16073e+06 1.96323e+06 -1.62015e+06 -1.20087e+06
34 3 O 4.67421 6.06637 0.196716 -1.2 -3.76851 147295 -9.40214e+06 -3.21873e+07 -2.00725e+06 1.31297e+06 -4.35463e+06
35 1 Mg 6.26654 4.74899 2.9896 1.2 -8.05379 4.12988e+06 -2.46764e+06 811620 1.80323e+06 -881337 1.76084e+06
36 3 O 4.63043 6.06637 2.79288 -1.2 -8.83248 -1.58804e+06 -3.24004e+06 -2.97839e+06 924246 -119832 -1.29446e+06
37 1 Mg -1.12976 4.79031 4.4844 1.2 -8.81238 -459704 1.92708e+06 3.52091e+06 -744042 -463502 -284540
38 2 Si -2.9517 7.47444 4.4844 2.4 -32.8863 1.12565e+07 7.51491e+06 1.00758e+07 -7332.94 -311908 -544693
39 3 O -3.00198 5.86121 4.4844 -1.2 -9.40279 -4.03036e+06 630474 -4.55797e+06 83972.3 -126217 232828
40 3 O 0.666315 8.44846 4.4844 -1.2 -9.32295 -3.45519e+06 -2.01844e+06 -3.66943e+06 2.12581e+06 -551504 306052
41 3 O -2.21213 8.18062 3.18632 -1.2 -9.10271 -2.94314e+06 -2.75201e+06 -1.2625e+06 1.10715e+06 -218462 -1.2386e+06
42 3 O -2.25864 8.18062 5.78248 -1.2 -9.00305 -2.98852e+06 -3.08727e+06 -2.17344e+06 1.10207e+06 277631 1.66542e+06
43 1 Mg 1.20893 7.12349 2.9896 1.2 -7.99032 4.16446e+06 -2.30884e+06 495802 -1.27938e+06 -1.28641e+06 -1.88259e+06
44 1 Mg 4.00982 7.08218 4.4844 1.2 -8.69859 -910332 1.83031e+06 3.93684e+06 1.0475e+06 -198320 -105259
45 2 Si 2.17861 9.14704 4.4844 2.4 -32.7461 1.10755e+07 7.85212e+06 9.66037e+06 551439 250811 -352962
46 3 O 2.18828 10.7603 4.4844 -1.2 -9.52518 -3.80261e+06 294834 -4.37142e+06 495478 -322435 77673.3
47 3 O -4.43805 8.17302 4.4844 -1.2 -9.28043 -3.23294e+06 -1.9881e+06 -3.95218e+06 -1.52724e+06 -452177 186834
48 3 O 2.89193 8.44087 3.18632 -1.2 -9.11807 -2.7522e+06 -2.96377e+06 -1.37126e+06 -923231 -305431 1.46457e+06
49 1 Mg 1.25915 7.12349 0 1.2 -5.3082 983923 -8.23407e+06 -5.69149e+06 5.90383e+06 1.39412e+06 2.52542e+06
50 3 O 2.84547 8.44087 5.78248 -1.2 -9.01566 -2.70892e+06 -3.24598e+06 -2.43779e+06 -902216 -389356 -841715
51 1 Mg -1.59284 7.16481 1.4948 1.2 -8.24685 832623 686637 4.96742e+06 1.45518e+06 -938226 195681
52 2 Si 0.240329 5.09994 1.4948 2.4 -34.0767 8.36879e+06 9.33866e+06 1.28383e+07 -1.96825e+06 -1.02884e+06 1.63689e+06
53 3 O 0.234538 3.48671 1.4948 -1.2 -5.21124 -1.8139e+06 1.29787e+06 -3.46693e+07 407057 5.15861e+06 4.14906e+06
54 3 O 6.85564 6.07396 1.4948 -1.2 -9.57312 -4.40749e+06 -1.08199e+06 -2.14677e+06 -1.338e+06 -1.80508e+06 1.29774e+06
55 3 O -0.429565 5.80612 0.196716 -1.2 -4.01935 -686524 -8.01961e+06 -3.22906e+07 1.85032e+06 1.17915e+06 4.64575e+06
56 3 O -0.473377 5.80612 2.79288 -1.2 -8.93222 -2.21484e+06 -2.77388e+06 -2.75837e+06 -768218 318118 1.5027e+06
57 1 Mg 6.40169 9.49799 0 1.2 -5.26694 1.53462e+06 -7.00511e+06 -6.02619e+06 -5.49295e+06 988141 -2.5583e+06
58 1 Mg 3.64209 14.2057 1.4948 1.2 -8.36679 141964 1.20157e+06 5.09537e+06 -1.03563e+06 -961869 -226940
59 2 Si 5.45748 11.5215 1.4948 2.4 -34.2229 7.46736e+06 1.05749e+07 1.27129e+07 902276 330104 -2.3393e+06
60 3 O 5.51101 13.1348 1.4948 -1.2 -4.82204 -470423 -289410 -3.54372e+07 455034 -2.53639e+06 -4.33725e+06
61 3 O 1.83851 10.5475 1.4948 -1.2 -9.59718 -4.19309e+06 -1.3063e+06 -1.86527e+06 1.54787e+06 -1.60691e+06 -975360
62 3 O 4.7611 10.8154 0.196716 -1.2 -3.63145 592757 -1.08886e+07 -3.2588e+07 -2.4632e+06 -1.76563e+06 -4.17639e+06
63 1 Mg 6.35203 9.49799 2.9896 1.2 -7.95443 4.02758e+06 -2.17808e+06 462870 1.31879e+06 -1.23245e+06 1.8141e+06
64 3 O 4.71833 10.8154 2.79288 -1.2 -8.90416 -1.73485e+06 -3.24054e+06 -2.72738e+06 1.06094e+06 26979.5 -1.17602e+06
65 1 Mg -1.0438 9.53931 4.4844 1.2 -8.60721 -807255 1.95357e+06 3.47525e+06 -543319 -398334 -231012
66 2 Si -2.8604 12.2234 4.4844 2.4 -32.6829 1.10865e+07 8.07919e+06 9.35359e+06 116338 -195467 -67880.3
67 3 O -2.91391 10.6102 4.4844 -1.2 -9.52711 -3.81226e+06 309294 -4.26369e+06 168559 -58839.9 171365
68 3 O 0.7596 13.1975 4.4844 -1.2 -9.32847 -3.27458e+06 -2.19473e+06 -3.66229e+06 2.24179e+06 -539802 -58458.3
69 3 O -2.12001 12.9296 3.18632 -1.2 -9.12967 -2.81158e+06 -2.95755e+06 -1.14995e+06 1.12226e+06 -209474 -1.55988e+06
70 3 O -2.16532 12.9296 5.78248 -1.2 -9.12621 -2.75924e+06 -3.46003e+06 -1.76503e+06 951537 -95566 1.25151e+06
71 1 Mg 1.29891 11.8725 2.9896 1.2 -7.94836 4.11623e+06 -2.08717e+06 251887 -1.20642e+06 -1.17615e+06 -1.72521e+06
72 1 Mg 4.10033 11.8312 4.4844 1.2 -8.61961 -913775 2.0456e+06 3.59958e+06 1.0761e+06 -316599 -13284.6
73 2 Si 2.27333 13.896 4.4844 2.4 -32.7221 1.10728e+07 7.93456e+06 9.54272e+06 503662 -34089 125100
74 3 O 2.28634 15.5093 4.4844 -1.2 -9.53077 -3.92534e+06 334062 -4.28297e+06 505726 -132477 -126067
75 3 O -4.34533 12.922 4.4844 -1.2 -9.37803 -3.30899e+06 -2.16242e+06 -3.544e+06 -1.53293e+06 -411995 -56129.8
76 3 O 2.98455 13.1899 3.18632 -1.2 -9.14865 -2.76728e+06 -3.02807e+06 -1.26504e+06 -928198 -167874 1.29245e+06
77 1 Mg 1.34779 11.8725 0 1.2 -5.51847 2.80373e+06 -3.4346e+06 -6.07548e+06 3.5554e+06 812350 1.49856e+06
78 3 O 2.93934 13.1899 5.78248 -1.2 -9.03544 -2.64888e+06 -3.34691e+06 -2.43992e+06 -843466 -202255 -1.0821e+06
79 1 Mg -1.50344 11.9138 1.4948 1.2 -8.31349 481443 1.15215e+06 4.94362e+06 1.57402e+06 -959803 352631
80 2 Si 0.326006 9.84894 1.4948 2.4 -34.188 7.61289e+06 1.05941e+07 1.24648e+07 -601333 130986 2.02203e+06
81 3 O 0.317364 8.23571 1.4948 -1.2 -4.77495 -476177 -198065 -3.59077e+07 -127105 1.16668e+06 4.3299e+06
82 3 O 6.94307 10.823 1.4948 -1.2 -9.63417 -4.32108e+06 -1.13371e+06 -1.80962e+06 -995050 -1.50595e+06 1.16607e+06
83 3 O -0.343122 10.5551 0.196716 -1.2 -3.73257 282680 -1.0361e+07 -3.2609e+07 2.45609e+06 -2.04558e+06 4.6187e+06
84 3 O -0.385966 10.5551 2.79288 -1.2 -8.95272 -1.87495e+06 -3.28477e+06 -2.61004e+06 -868535 95850.4 1.23064e+06
85 1 Mg 6.49448 14.247 0 1.2 -5.49184 3.29488e+06 -2.67638e+06 -6.18257e+06 -2.95484e+06 246261 -1.44948e+06
86 1 Mg 3.74457 18.9547 1.4948 1.2 -8.37418 -170601 1.6023e+06 4.94187e+06 -1.11789e+06 -953162 14653.8
87 2 Si 5.55495 16.2705 1.4948 2.4 -34.1597 7.71986e+06 1.03118e+07 1.2641e+07 541749 831540 -1.85098e+06
88 3 O 5.6115 17.8838 1.4948 -1.2 -5.18435 -1.42428e+06 -335671 -3.26257e+07 85773.5 -6.07776e+06 -4.40856e+06
89 3 O 1.93416 15.2965 1.4948 -1.2 -9.64171 -4.25477e+06 -967542 -1.82112e+06 1.54618e+06 -1.37056e+06 -1.18716e+06
90 3 O 4.85636 15.5644 0.196716 -1.2 -3.65158 571441 -1.25556e+07 -3.10344e+07 -3.03986e+06 -5.13407e+06 -3.92415e+06
91 1 Mg 6.44662 14.247 2.9896 1.2 -7.91633 4.1277e+06 -2.15148e+06 274129 1.33174e+06 -1.18118e+06 2.12696e+06
92 3 O 4.81537 15.5644 2.79288 -1.2 -8.91345 -1.77706e+06 -3.25125e+06 -2.69076e+06 1.04533e+06 -46367 -1.44702e+06
93 1 Mg -0.948271 14.2883 4.4844 1.2 -8.64155 -1.04305e+06 2.03691e+06 3.67669e+06 -588592 -292295 240027
94 2 Si -2.75928 16.9724 4.4844 2.4 -32.8125 1.10431e+07 7.80382e+06 9.88574e+06 -85253.9 60348.4 395228
95 3 O -2.81617 15.3592 4.4844 -1.2 -9.50434 -3.81252e+06 361379 -4.33807e+06 237284 -239914 -290601
96 3 O 0.862762 17.9465 4.4844 -1.2 -9.32492 -3.28807e+06 -2.19787e+06 -3.66473e+06 2.14212e+06 -362839 -82702.7
97 3 O -2.0185 17.6786 3.18632 -1.2 -9.11996 -2.7191e+06 -2.97141e+06 -1.26305e+06 1.17959e+06 -142728 -1.69671e+06
98 3 O -2.06164 17.6786 5.78248 -1.2 -8.91177 -2.77189e+06 -3.24456e+06 -2.38464e+06 1.23134e+06 -106080 1.34122e+06
99 1 Mg 1.39817 16.6215 2.9896 1.2 -7.92717 4.19452e+06 -2.09498e+06 145339 -1.17385e+06 -1.27627e+06 -1.48109e+06
100 1 Mg 4.20062 16.5802 4.4844 1.2 -8.59598 -751686 1.99485e+06 3.45141e+06 1.19076e+06 -225543 242127
101 2 Si 2.37796 18.645 4.4844 2.4 -32.6316 1.12128e+07 8.05113e+06 9.13353e+06 793500 -141354 311336
102 3 O 2.39434 20.2583 4.4844 -1.2 -9.60355 -3.80455e+06 65753.6 -4.02491e+06 442474 -157375 -92922.5
103 3 O -4.24274 17.671 4.4844 -1.2 -9.35293 -3.35806e+06 -2.07889e+06 -3.62402e+06 -1.40822e+06 -576144 -249008
104 3 O 3.08659 17.9389 3.18632 -1.2 -9.18088 -2.78333e+06 -3.12086e+06 -1.14709e+06 -956666 -78432.7 1.1037e+06
105 1 Mg 1.44478 16.6215 0 1.2 -5.61243 4.43362e+06 -411104 -6.13567e+06 1.39929e+06 -47181.1 1.16374e+06
106 3 O 3.0436 17.9389 5.78248 -1.2 -9.11792 -2.95196e+06 -3.24502e+06 -1.94119e+06 -972088 -205737 -1.35282e+06
107 1 Mg -1.40524 16.6628 1.4948 1.2 -8.37305 232395 1.31611e+06 5.07652e+06 1.68527e+06 -981227 597737
108 2 Si 0.420358 14.5979 1.4948 2.4 -34.1946 7.6291e+06 1.03997e+07 1.26378e+07 -165562 546109 2.72247e+06
109 3 O 0.408732 12.9847 1.4948 -1.2 -4.81089 -509251 -268729 -3.55709e+07 237817 -2.56472e+06 4.24503e+06
110 3 O 7.03923 15.572 1.4948 -1.2 -9.67974 -4.36084e+06 -823500 -1.76557e+06 -954291 -1.31374e+06 833444
111 3 O -0.248332 15.3041 0.196716 -1.2 -3.74559 267562 -1.20668e+07 -3.11217e+07 3.26203e+06 -5.4075e+06 3.82931e+06
112 3 O -0.289436 15.3041 2.79288 -1.2 -8.93319 -1.7479e+06 -3.32475e+06 -2.76868e+06 -830447 69027.5 898777
113 1 Mg 6.59566 18.996 0 1.2 -5.52892 4.54393e+06 261094 -6.26647e+06 -935863 -671682 -539358
114 1 Mg 3.85574 23.7037 1.4948 1.2 -8.33566 -710943 2.33248e+06 4.55044e+06 -1.1954e+06 -903039 53870.3
115 2 Si 5.66125 21.0195 1.4948 2.4 -33.8628 7.78123e+06 1.0811e+07 1.16665e+07 126104 1.24443e+06 -1.80866e+06
116 3 O 5.72074 22.6328 1.4948 -1.2 -5.91508 -2.88137e+06 -774760 -2.72173e+07 -191887 -8.50667e+06 -3.93673e+06
117 3 O 2.03867 20.0455 1.4948 -1.2 -9.76221 -4.1136e+06 -1.08239e+06 -1.45212e+06 1.55056e+06 -1.148e+06 -1.25185e+06
118 3 O 4.96004 20.3134 0.196716 -1.2 -4.09155 56205.2 -1.44312e+07 -2.67531e+07 -3.16133e+06 -7.96447e+06 -3.09835e+06
119 1 Mg 6.55057 18.996 2.9896 1.2 -7.86272 4.11772e+06 -2.01267e+06 59979.2 1.26837e+06 -1.1731e+06 2.16819e+06
120 3 O 4.92172 20.3134 2.79288 -1.2 -8.98151 -1.60828e+06 -3.61591e+06 -2.42163e+06 1.11465e+06 -112839 -1.44513e+06
121 1 Mg -0.84282 19.0373 4.4844 1.2 -8.62997 -1.11259e+06 2.12488e+06 3.63047e+06 -504359 -343966 23405.9
122 2 Si -2.64823 21.7214 4.4844 2.4 -32.496 1.08422e+07 8.78214e+06 8.60338e+06 -130636 -248784 -167631
123 3 O -2.70847 20.1082 4.4844 -1.2 -9.55768 -3.72192e+06 121786 -4.10182e+06 375588 -120822 2212.07
124 3 O 0.97581 22.6955 4.4844 -1.2 -9.4806 -3.05378e+06 -2.77351e+06 -3.07779e+06 2.09443e+06 -566643 30343
125 3 O -1.9076 22.4276 3.18632 -1.2 -9.26022 -2.5863e+06 -3.53861e+06 -641569 1.17136e+06 -29678.9 -1.57606e+06
126 3 O -1.9475 22.4276 5.78248 -1.2 -9.24474 -2.71994e+06 -3.6987e+06 -1.41386e+06 1.15947e+06 -7825.43 1.7114e+06
127 1 Mg 1.50678 21.3705 2.9896 1.2 -7.80601 4.09428e+06 -1.64798e+06 -395579 -1.11024e+06 -1.24001e+06 -1.48034e+06
128 1 Mg 4.31086 21.3292 4.4844 1.2 -8.5232 -1.03982e+06 2.44291e+06 3.17822e+06 1.11154e+06 -234796 147797
129 2 Si 2.49243 23.394 4.4844 2.4 -32.4097 1.03871e+07 9.3055e+06 8.35564e+06 854283 124935 240561
130 3 O 2.51204 25.0073 4.4844 -1.2 -9.70222 -3.40886e+06 -524410 -3.67185e+06 520142 -278219 -169871
131 3 O -4.13026 22.42 4.4844 -1.2 -9.50241 -3.11798e+06 -2.6628e+06 -3.03153e+06 -1.26402e+06 -344111 -67119.3
132 3 O 3.19799 22.6879 3.18632 -1.2 -9.28145 -2.45401e+06 -3.69437e+06 -795324 -930633 -17074.2 1.11951e+06
133 1 Mg 1.5501 21.3705 0 1.2 -5.53835 5.07349e+06 1.66847e+06 -6.19575e+06 -42490.3 -994574 799819
134 3 O 3.1583 22.6879 5.78248 -1.2 -9.17287 -2.37169e+06 -3.91355e+06 -1.90656e+06 -989238 -198984 -1.30651e+06
135 1 Mg -1.29822 21.4118 1.4948 1.2 -8.32927 -154259 1.98189e+06 4.62284e+06 1.81317e+06 -961666 530300
136 2 Si 0.523568 19.3469 1.4948 2.4 -33.9889 7.72439e+06 1.06602e+07 1.19804e+07 349551 948585 3.11543e+06
137 3 O 0.508934 17.7337 1.4948 -1.2 -5.16954 -1.45736e+06 -311455 -3.2775e+07 661790 -6.05803e+06 3.81835e+06
138 3 O 7.14425 20.321 1.4948 -1.2 -9.80833 -4.22829e+06 -964145 -1.3607e+06 -916198 -1.07044e+06 751558
139 3 O -0.145107 20.0531 0.196716 -1.2 -4.18664 -335280 -1.40648e+07 -2.67791e+07 3.65818e+06 -8.17708e+06 2.71133e+06
140 3 O -0.183601 20.0531 2.79288 -1.2 -9.01081 -1.63499e+06 -3.68403e+06 -2.4491e+06 -874771 20027.6 897725
141 1 Mg 6.70502 23.745 0 1.2 -5.4763 4.84908e+06 2.11275e+06 -6.12381e+06 406349 -1.47541e+06 -256527
142 1 Mg 3.97493 28.4527 1.4948 1.2 -8.38677 -1.08524e+06 2.65751e+06 4.44897e+06 -1.23126e+06 -788566 16331.3
143 2 Si 5.77602 25.7685 1.4948 2.4 -33.5217 8.08793e+06 1.11137e+07 1.05983e+07 -119403 1.48582e+06 -1.84634e+06
144 3 O 5.83821 27.3818 1.4948 -1.2 -6.77811 -4.53354e+06 -892980 -2.08287e+07 -345750 -9.26154e+06 -3.24791e+06
145 3 O 2.15175 24.7945 1.4948 -1.2 -9.89184 -3.85067e+06 -1.39736e+06 -1.05795e+06 1.61218e+06 -952810 -1.17828e+06
146 3 O 5.07184 25.0624 0.196716 -1.2 -4.84278 -995289 -1.55882e+07 -2.07191e+07 -2.78358e+06 -9.45179e+06 -1.74331e+06
147 1 Mg 6.66374 23.745 2.9896 1.2 -7.70268 4.02269e+06 -1.43399e+06 -677089 1.2775e+06 -1.32158e+06 2.11864e+06
148 3 O 5.03707 25.0624 2.79288 -1.2 -9.08783 -1.38717e+06 -4.13989e+06 -1.98585e+06 1.1091e+06 -97766.4 -1.43534e+06
149 1 Mg -0.727559 23.7863 4.4844 1.2 -8.40968 -1.24816e+06 2.76781e+06 2.76243e+06 -458443 -183154 -4093.83
150 2 Si -2.5277 26.4704 4.4844 2.4 -32.2347 1.07718e+07 9.43339e+06 7.60912e+06 108669 -416390 529836
151 3 O -2.59107 24.8572 4.4844 -1.2 -9.77177 -3.64262e+06 -491579 -3.20561e+06 367082 34172 -151974
152 3 O 1.09817 27.4445 4.4844 -1.2 -9.52761 -2.94539e+06 -3.00693e+06 -2.88245e+06 2.28112e+06 -596599 -231193
153 3 O -1.78784 27.1766 3.18632 -1.2 -9.32227 -2.49517e+06 -3.78726e+06 -442066 1.1387e+06 40744.8 -1.72547e+06
154 3 O -1.82343 27.1766 5.78248 -1.2 -9.3391 -2.72179e+06 -3.78464e+06 -1.12575e+06 1.08396e+06 39186.4 998775
155 1 Mg 1.62435 26.1195 2.9896 1.2 -7.70375 3.97699e+06 -1.23613e+06 -850892 -1.15886e+06 -1.21707e+06 -1.3871e+06
156 1 Mg 4.43064 26.0782 4.4844 1.2 -8.44868 -1.3573e+06 2.85662e+06 2.96488e+06 1.18549e+06 -302978 235972
157 2 Si 2.61607 28.143 4.4844 2.4 -32.3712 1.01699e+07 9.57212e+06 8.24333e+06 603244 18610.3 443616
158 3 O 2.63853 29.7563 4.4844 -1.2 -9.68152 -3.40707e+06 -459489 -3.7703e+06 631573 -98341.1 -212127
159 3 O -4.00841 27.169 4.4844 -1.2 -9.58145 -3.0844e+06 -2.83136e+06 -2.77278e+06 -1.40458e+06 -226091 -274913
160 3 O 3.3182 27.4369 3.18632 -1.2 -9.32036 -2.2817e+06 -3.95459e+06 -721569 -873418 84992.4 1.08879e+06
161 1 Mg 1.66335 26.1195 0 1.2 -5.5179 4.73413e+06 2.69799e+06 -5.69941e+06 -905544 -1.58319e+06 496411
162 3 O 3.28288 27.4369 5.78248 -1.2 -9.19298 -2.13465e+06 -4.15506e+06 -1.78026e+06 -815486 -183196 -1.37212e+06
163 1 Mg -1.18278 26.1608 1.4948 1.2 -8.31485 -581255 2.5649e+06 4.25148e+06 1.89235e+06 -844018 413231
164 2 Si 0.635424 24.0959 1.4948 2.4 -33.6242 7.85889e+06 1.12707e+07 1.07187e+07 776907 1.3924e+06 3.05336e+06
165 3 O 0.617906 22.4827 1.4948 -1.2 -5.9057 -2.95049e+06 -748434 -2.73245e+07 986209 -8.53738e+06 3.39245e+06
166 3 O 7.25781 25.07 1.4948 -1.2 -9.94833 -4.05235e+06 -1.27553e+06 -880604 -933733 -806187 789073
167 3 O -0.0337363 24.8021 0.196716 -1.2 -4.93427 -1.3842e+06 -1.55354e+07 -2.06481e+07 3.49979e+06 -9.61122e+06 1.55532e+06
168 3 O -0.0687235 24.8021 2.79288 -1.2 -9.14402 -1.49831e+06 -4.2568e+06 -1.85134e+06 -853118 -120775 828587
169 1 Mg 6.82195 28.494 0 1.2 -5.56972 4.34517e+06 2.72356e+06 -5.20158e+06 1.16393e+06 -1.83747e+06 -389640
170 1 Mg 4.10106 33.2017 1.4948 1.2 -8.52822 -1.29868e+06 2.54302e+06 4.66309e+06 -1.20224e+06 -570163 35868
171 2 Si 5.89839 30.5175 1.4948 2.4 -33.3867 8.964e+06 1.02094e+07 1.04933e+07 -313991 1.62248e+06 -1.95473e+06
172 3 O 5.96289 32.1308 1.4948 -1.2 -7.57551 -5.79776e+06 -523262 -1.50016e+07 -295270 -8.4306e+06 -2.5422e+06
173 3 O 2.27266 29.5435 1.4948 -1.2 -9.88967 -3.78262e+06 -1.27323e+06 -1.20557e+06 1.67099e+06 -723090 -1.03322e+06
174 3 O 5.19102 29.8114 0.196716 -1.2 -5.6718 -2.40134e+06 -1.51085e+07 -1.46627e+07 -1.94291e+06 -9.2747e+06 -195440
175 1 Mg 6.78546 28.494 2.9896 1.2 -7.65426 4.08662e+06 -1.39205e+06 -855166 1.34189e+06 -1.36706e+06 2.11734e+06
176 3 O 5.16061 29.8114 2.79288 -1.2 -9.09563 -1.49671e+06 -4.08541e+06 -1.95897e+06 1.10947e+06 -150183 -1.34567e+06
177 1 Mg -0.603205 28.5353 4.4844 1.2 -8.41513 -1.31856e+06 2.73357e+06 2.86893e+06 -435726 -114058 267010
178 2 Si -2.39877 31.2194 4.4844 2.4 -32.2923 1.08253e+07 9.12869e+06 7.95381e+06 177624 -58500.2 524337
179 3 O -2.46483 29.6062 4.4844 -1.2 -9.7557 -3.66571e+06 -341524 -3.35514e+06 305962 -61805.9 -187085
180 3 O 1.22864 32.1935 4.4844 -1.2 -9.45508 -2.93954e+06 -2.78222e+06 -3.22513e+06 2.30706e+06 -434138 -204591
181 3 O -1.66032 31.9256 3.18632 -1.2 -9.25916 -2.47077e+06 -3.58651e+06 -846929 1.14955e+06 26932.3 -1.69075e+06
182 3 O -1.69072 31.9256 5.78248 -1.2 -9.2773 -2.54899e+06 -3.7156e+06 -1.3705e+06 1.14037e+06 -235905 849252
183 1 Mg 1.7499 30.8685 2.9896 1.2 -7.72843 4.04454e+06 -1.38969e+06 -718680 -1.15852e+06 -1.3574e+06 -1.40203e+06
184 1 Mg 4.55894 30.8272 4.4844 1.2 -8.44173 -1.18324e+06 2.71224e+06 2.92399e+06 1.19553e+06 -351637 210195
185 2 Si 2.7476 32.892 4.4844 2.4 -32.472 1.0333e+07 9.07183e+06 8.74924e+06 750488 -310395 400953
186 3 O 2.77235 34.5053 4.4844 -1.2 -9.64116 -3.50747e+06 -180643 -4.01182e+06 549222 11921.1 -210288
187 3 O -3.87837 31.918 4.4844 -1.2 -9.58611 -3.28541e+06 -2.65504e+06 -2.73988e+06 -1.38741e+06 -307743 -298944
188 3 O 3.44611 32.1859 3.18632 -1.2 -9.26746 -2.34104e+06 -3.7547e+06 -1.03724e+06 -873300 241634 1.10894e+06
189 1 Mg 1.7837 30.8685 0 1.2 -5.68894 3.86433e+06 2.67384e+06 -4.5921e+06 -1.35476e+06 -1.52947e+06 384076
190 3 O 3.41602 32.1859 5.78248 -1.2 -9.1481 -2.27363e+06 -3.93013e+06 -2.02852e+06 -890090 135653 -1.42026e+06
191 1 Mg -1.05984 30.9098 1.4948 1.2 -8.43242 -900409 2.58736e+06 4.43476e+06 1.91048e+06 -602672 225627
192 2 Si 0.755243 28.8449 1.4948 2.4 -33.4383 8.44246e+06 1.07825e+07 1.04104e+07 1.11884e+06 1.65611e+06 2.77127e+06
193 3 O 0.735127 27.2317 1.4948 -1.2 -6.77061 -4.57909e+06 -891241 -2.09343e+07 1.18137e+06 -9.34749e+06 2.84421e+06
194 3 O 7.37914 29.819 1.4948 -1.2 -9.94111 -4.0083e+06 -1.11221e+06 -1.06699e+06 -945768 -607569 916223
195 3 O 0.0850649 29.5511 0.196716 -1.2 -5.74027 -2.6464e+06 -1.54709e+07 -1.45914e+07 2.70923e+06 -9.44274e+06 411129
196 3 O 0.0543974 29.5511 2.79288 -1.2 -9.13885 -1.50006e+06 -4.22002e+06 -1.94532e+06 -836319 -193979 787633
197 1 Mg 6.94543 33.243 0 1.2 -5.82223 3.43384e+06 2.43293e+06 -3.9215e+06 1.5813e+06 -1.43866e+06 -664889
198 1 Mg 4.23267 37.9507 1.4948 1.2 -8.6289 -1.53013e+06 2.54032e+06 4.64406e+06 -1.11274e+06 -239579 254819
199 2 Si 6.02709 35.2665 1.4948 2.4 -33.3397 9.94282e+06 8.88219e+06 1.08164e+07 -419621 1.57271e+06 -1.59273e+06
200 3 O 6.09339 36.8798 1.4948 -1.2 -8.27591 -6.1576e+06 -207721 -1.03285e+07 -135689 -6.59134e+06 -2.16353e+06
201 3 O 2.40018 34.2925 1.4948 -1.2 -9.79265 -3.82902e+06 -919386 -1.72045e+06 1.69002e+06 -508297 -1.01569e+06
202 3 O 5.31645 34.5604 0.196716 -1.2 -6.48176 -3.60457e+06 -1.31341e+07 -9.69961e+06 -948553 -7.83619e+06 901690
203 1 Mg 6.91449 33.243 2.9896 1.2 -7.68947 4.23972e+06 -1.67114e+06 -664477 1.3161e+06 -1.37996e+06 2.1156e+06
204 3 O 5.291 34.5604 2.79288 -1.2 -9.05155 -1.70138e+06 -3.76809e+06 -2.17799e+06 1.12044e+06 -222770 -1.37722e+06
205 1 Mg -0.471101 33.2843 4.4844 1.2 -8.48771 -1.38313e+06 2.45122e+06 3.32529e+06 -482875 -70361.8 259388
206 2 Si -2.26307 35.9684 4.4844 2.4 -32.3805 1.08287e+07 8.4865e+06 8.73607e+06 1768.78 -84193.9 265875
207 3 O -2.33122 34.3552 4.4844 -1.2 -9.69797 -3.65992e+06 15729.9 -3.80705e+06 439584 -128468 -232692
208 3 O 1.36549 36.9425 4.4844 -1.2 -9.44628 -3.03407e+06 -2.61362e+06 -3.32403e+06 2.23472e+06 -386947 -130676
209 3 O -1.52658 36.6746 3.18632 -1.2 -9.20039 -2.47692e+06 -3.40281e+06 -1.21491e+06 1.17107e+06 94707.8 -1.66129e+06
210 3 O -1.55122 36.6746 5.78248 -1.2 -9.27663 -2.5025e+06 -3.39731e+06 -1.62381e+06 1.18364e+06 -137770 1.43692e+06
211 1 Mg 1.882 35.6175 2.9896 1.2 -7.77053 4.17368e+06 -1.64198e+06 -518051 -1.09815e+06 -1.46955e+06 -1.37312e+06
212 1 Mg 4.69415 35.5762 4.4844 1.2 -8.47809 -1.08477e+06 2.40744e+06 3.18914e+06 1.23295e+06 -248929 274132
213 2 Si 2.88522 37.641 4.4844 2.4 -32.5063 1.03653e+07 8.8365e+06 9.00441e+06 895107 -134131 455229
214 3 O 2.91159 39.2543 4.4844 -1.2 -9.61697 -3.50066e+06 -145355 -4.09716e+06 561857 -87627 -288302
215 3 O -3.74183 36.667 4.4844 -1.2 -9.55355 -3.31784e+06 -2.42245e+06 -2.99759e+06 -1.25445e+06 -231995 -238116
216 3 O 3.58014 36.9349 3.18632 -1.2 -9.2094 -2.34473e+06 -3.59138e+06 -1.39691e+06 -882816 260187 1.0099e+06
217 1 Mg 1.90997 35.6175 0 1.2 -5.93164 2.80903e+06 2.21131e+06 -3.66412e+06 -1.65188e+06 -780292 937584
218 3 O 3.55582 36.9349 5.78248 -1.2 -9.15531 -2.26384e+06 -3.71578e+06 -2.04573e+06 -1.00079e+06 16198.2 -1.41549e+06
219 1 Mg -0.93068 35.6588 1.4948 1.2 -8.56584 -1.11308e+06 2.45522e+06 4.60127e+06 1.85085e+06 -300272 229753
220 2 Si 0.881882 33.5939 1.4948 2.4 -33.4057 9.38955e+06 9.44666e+06 1.08179e+07 1.40592e+06 1.66082e+06 2.46308e+06
221 3 O 0.859602 31.9807 1.4948 -1.2 -7.56323 -5.79838e+06 -526350 -1.51607e+07 1.1653e+06 -8.4962e+06 2.3428e+06
222 3 O 7.507 34.568 1.4948 -1.2 -9.84416 -4.0459e+06 -768848 -1.59513e+06 -927413 -432922 910273
223 3 O 0.210186 34.3001 0.196716 -1.2 -6.51954 -3.73269e+06 -1.38602e+07 -9.63334e+06 1.52978e+06 -7.9425e+06 -754593
224 3 O 0.184454 34.3001 2.79288 -1.2 -9.08651 -1.6401e+06 -3.9108e+06 -2.24547e+06 -839305 -219382 788617
225 1 Mg 7.07415 37.992 0 1.2 -6.01933 2.38247e+06 2.13274e+06 -3.40343e+06 1.86692e+06 -405097 -999831
226 1 Mg 4.36817 42.6997 1.4948 1.2 -8.64089 -1.71242e+06 2.72268e+06 4.2813e+06 -991042 98263.5 332507
227 2 Si 6.16058 40.0155 1.4948 2.4 -33.2006 1.05624e+07 8.1799e+06 1.06837e+07 -364878 1.27051e+06 -999020
228 3 O 6.22815 41.6288 1.4948 -1.2 -8.86144 -5.68951e+06 -201465 -6.9554e+06 28350.1 -4.49709e+06 -1.91329e+06
229 3 O 2.53282 39.0415 1.4948 -1.2 -9.71923 -3.79794e+06 -905034 -2.04377e+06 1.70782e+06 -354706 -1.21291e+06
230 3 O 5.44674 39.3094 0.196716 -1.2 -7.30518 -4.11671e+06 -1.06718e+07 -5.89001e+06 -158236 -5.76913e+06 1.50055e+06
231 1 Mg 7.04922 37.992 2.9896 1.2 -7.71774 4.3042e+06 -1.76684e+06 -577020 1.27887e+06 -1.51917e+06 2.18228e+06
232 3 O 5.42658 39.3094 2.79288 -1.2 -9.03192 -1.81468e+06 -3.67991e+06 -2.21348e+06 1.12582e+06 -234255 -1.5026e+06
233 1 Mg -0.333062 38.0333 4.4844 1.2 -8.47982 -1.32134e+06 2.42638e+06 3.27167e+06 -443738 -21175 184708
234 2 Si -2.12255 40.7174 4.4844 2.4 -32.4486 1.09447e+07 8.54358e+06 8.68209e+06 94180.4 -279086 648112
235 3 O -2.19212 39.1042 4.4844 -1.2 -9.69611 -3.70837e+06 -50763 -3.68739e+06 473408 13923.4 -291462
236 3 O 1.50676 41.6915 4.4844 -1.2 -9.41636 -3.14889e+06 -2.6027e+06 -3.26746e+06 2.32066e+06 -357399 -252574
237 3 O -1.3884 41.4236 3.18632 -1.2 -9.15795 -2.46873e+06 -3.43291e+06 -1.3625e+06 1.15427e+06 133587 -1.78964e+06
238 3 O -1.40713 41.4236 5.78248 -1.2 -9.20086 -2.67996e+06 -3.34533e+06 -1.66542e+06 1.17255e+06 42427.2 1.12122e+06
239 1 Mg 2.01892 40.3665 2.9896 1.2 -7.78846 4.23997e+06 -1.63733e+06 -547043 -1.09352e+06 -1.53052e+06 -1.22012e+06
240 1 Mg 4.83434 40.3252 4.4844 1.2 -8.52895 -1.12843e+06 2.38027e+06 3.34351e+06 1.26406e+06 -190980 315635
241 2 Si 3.02698 42.39 4.4844 2.4 -32.5827 1.04841e+07 8.85804e+06 8.9892e+06 757022 -114487 467228
242 3 O 3.05433 44.0033 4.4844 -1.2 -9.589 -3.56036e+06 -218809 -4.00953e+06 593459 -20230.2 -244865
243 3 O -3.60077 41.416 4.4844 -1.2 -9.50199 -3.3478e+06 -2.41434e+06 -3.05568e+06 -1.33471e+06 -115654 -332170
244 3 O 3.71851 41.6839 3.18632 -1.2 -9.16806 -2.31348e+06 -3.62982e+06 -1.56558e+06 -850650 250931 918337
245 1 Mg 2.04077 40.3665 0 1.2 -6.03599 1.87314e+06 2.04273e+06 -3.81364e+06 -1.83066e+06 420975 1.93475e+06
246 3 O 3.70011 41.6839 5.78248 -1.2 -9.09585 -2.32975e+06 -3.6933e+06 -2.02533e+06 -878352 -31241.6 -1.31217e+06
247 1 Mg -0.796865 40.4078 1.4948 1.2 -8.61021 -1.29285e+06 2.58436e+06 4.33132e+06 1.7387e+06 58238.3 381107
248 2 Si 1.01387 38.3429 1.4948 2.4 -33.2954 1.02266e+07 8.50586e+06 1.07802e+07 1.53529e+06 1.50241e+06 2.54038e+06
249 3 O 0.989947 36.7297 1.4948 -1.2 -8.26512 -6.1829e+06 -203804 -1.04759e+07 1.03216e+06 -6.64894e+06 1.73292e+06
250 3 O 7.63988 39.317 1.4948 -1.2 -9.7726 -3.99184e+06 -796399 -1.90945e+06 -920966 -250056 761864
251 3 O 0.340253 39.0491 0.196716 -1.2 -7.3165 -4.22331e+06 -1.15738e+07 -5.81809e+06 395894 -5.86054e+06 -1.85102e+06
252 3 O 0.319795 39.0491 2.79288 -1.2 -9.0806 -1.82669e+06 -3.83813e+06 -2.17942e+06 -850461 -258370 632499
253 1 Mg 7.20667 42.741 0 1.2 -6.07237 1.49774e+06 2.06467e+06 -3.82933e+06 1.9871e+06 935191 -1.78373e+06
254 1 Mg 4.50613 47.4487 1.4948 1.2 -8.60231 -1.74364e+06 2.83656e+06 3.93366e+06 -858858 396297 321021
255 2 Si 6.29731 44.7645 1.4948 2.4 -33.0183 1.08674e+07 7.77945e+06 1.04638e+07 -237244 877982 -847146
256 3 O 6.36567 46.3778 1.4948 -1.2 -9.28414 -4.86154e+06 -242254 -4.96443e+06 183002 -2.68331e+06 -1.61582e+06
257 3 O 2.669 43.7905 1.4948 -1.2 -9.67347 -3.6847e+06 -1.15602e+06 -2.24926e+06 1.71794e+06 -200732 -1.22565e+06
258 3 O 5.58048 44.0584 0.196716 -1.2 -8.04079 -3.9816e+06 -8.141e+06 -3.41275e+06 318351 -3.70514e+06 2.08318e+06
259 1 Mg 7.1879 42.741 2.9896 1.2 -7.74011 4.30454e+06 -1.71858e+06 -576473 1.28605e+06 -1.62123e+06 2.22411e+06
260 3 O 5.56564 44.0584 2.79288 -1.2 -9.04308 -1.94514e+06 -3.70186e+06 -2.06815e+06 1.13282e+06 -248027 -1.47527e+06
261 1 Mg -0.19105 42.7823 4.4844 1.2 -8.52935 -1.2028e+06 2.38295e+06 3.27402e+06 -434809 -1948.89 276388
262 2 Si -1.97909 45.4664 4.4844 2.4 -32.5056 1.08885e+07 8.77488e+06 8.60037e+06 90518.7 -303861 456861
263 3 O -2.04947 43.8532 4.4844 -1.2 -9.64059 -3.71281e+06 -76598.5 -3.74288e+06 458314 50668.6 -254678
264 3 O 1.65063 46.4405 4.4844 -1.2 -9.41258 -3.16358e+06 -2.80099e+06 -3.06824e+06 2.29196e+06 -288841 -221994
265 3 O -1.24745 46.1726 3.18632 -1.2 -9.14069 -2.40904e+06 -3.54852e+06 -1.4394e+06 1.135e+06 106770 -1.70393e+06
266 3 O -1.26044 46.1726 5.78248 -1.2 -9.19056 -2.68021e+06 -3.55623e+06 -1.36444e+06 1.17972e+06 188046 1.27416e+06
267 1 Mg 2.15896 45.1155 2.9896 1.2 -7.79502 4.23349e+06 -1.52613e+06 -625479 -1.06827e+06 -1.64847e+06 -1.25632e+06
268 1 Mg 4.97763 45.0742 4.4844 1.2 -8.53689 -1.0517e+06 2.50389e+06 3.15473e+06 1.24714e+06 -102139 278103
269 2 Si 3.1711 47.139 4.4844 2.4 -32.5895 1.04076e+07 9.21771e+06 8.71766e+06 734068 -66788.2 567118