ITEM: TIMESTEP
66500
ITEM: NUMBER OF ATOMS
10500
ITEM: BOX BOUNDS xy xz yz pp pp pp
0.0000000000000000e+00 1.5297749999999999e+01 5.0992499999999996e+00
0.0000000000000000e+00 1.1872499999999999e+02 0.0000000000000000e+00
0.0000000000000000e+00 8.9688000000000002e+01 0.0000000000000000e+00
ITEM: ATOMS id type element xu yu zu q c_pe c_s[1] c_s[2] c_s[3] c_s[4] c_s[5] c_s[6]
1 1 Mg 6.2404 -6.37941e-06 0 1.2 -4.24593 7.59432e+06 -1.55419e+06 -6.49913e+06 -14923.9 2.61144e+06 115567
2 1 Mg 3.46349 4.70768 1.4948 1.2 -8.21371 -794515 3.34792e+06 3.70254e+06 -941278 -631145 267316
3 2 Si 5.2885 2.02354 1.4948 2.4 -34.8164 9.25422e+06 1.18698e+07 1.04504e+07 8.84704e+06 653079 -2.52381e+06
4 3 O 5.33628 3.63678 1.4948 -1.2 -4.97582 -390313 -2.0191e+06 -3.3117e+07 -323451 3.84881e+06 -4.09224e+06
5 3 O 1.67294 1.04952 1.4948 -1.2 -1.24929 -2.00155e+07 -7.97595e+07 -1.71845e+06 -2.41279e+07 -142389 -415782
6 3 O 4.59532 1.31737 0.196716 -1.2 -3.24781 -1.58884e+06 -7.07018e+06 -3.01164e+07 -6.03605e+06 6.25023e+06 -2.97362e+06
7 1 Mg 6.18956 -6.37941e-06 2.9896 1.2 -4.79664 1.29528e+06 -2.78613e+07 -3.28428e+06 -8.84818e+06 2.43848e+06 4.35731e+06
8 3 O 4.55118 1.31737 2.79288 -1.2 -7.67825 462723 -5.09929e+06 -2.80262e+06 -2.94221e+06 -3.39716e+06 -1.4248e+06
9 1 Mg -1.20682 0.0413099 4.4844 1.2 9.03465 -3.0884e+07 -9.30475e+07 -644882 -2.84636e+07 -1.31043e+06 574918
10 2 Si -3.0337 2.72544 4.4844 2.4 -32.7567 1.3853e+07 7.62823e+06 7.37773e+06 1.5211e+06 13155.9 -249660
11 3 O -3.08099 1.11221 4.4844 -1.2 -9.73934 -5.95073e+06 -271628 -1.86648e+06 -1.2167e+06 -184267 -76769.4
12 3 O 0.582463 3.69946 4.4844 -1.2 -9.19033 -2.93528e+06 -5.87791e+06 -2.42058e+06 -626467 -281635 -240079
13 3 O -2.29524 3.43162 3.18632 -1.2 -9.29428 -3.90616e+06 -2.97659e+06 -60449.9 1.09654e+06 -802989 -1.10011e+06
14 3 O -2.34216 3.43162 5.78248 -1.2 -9.05845 -3.74994e+06 -3.38218e+06 -1.26741e+06 846133 644205 1.27669e+06
15 1 Mg 1.12778 2.37449 2.9896 1.2 -7.39998 4.85915e+06 -1.24022e+06 -1.08232e+06 -3.25972e+06 -4.14822e+06 -1.97466e+06
16 1 Mg 3.92855 2.33318 4.4844 1.2 -8.31117 -4.50829e+06 5.2989e+06 4.55131e+06 1.35877e+06 261567 791862
17 2 Si 2.09341 4.39804 4.4844 2.4 -31.9502 1.10062e+07 7.87499e+06 8.23656e+06 263302 -75962.7 812457
18 3 O 2.09991 6.01128 4.4844 -1.2 -9.7439 -3.40426e+06 -682146 -3.45084e+06 542951 -274814 -231899
19 3 O -4.52137 3.42402 4.4844 -1.2 -9.37337 -2.55482e+06 -3.29584e+06 -3.22749e+06 -2.35306e+06 -777404 -126372
20 3 O 2.80834 3.69187 3.18632 -1.2 -9.55113 -1.68235e+06 -3.33457e+06 -1140.64 455456 -509705 -696334
21 1 Mg 1.17857 2.37449 0 1.2 -4.87737 -1.00358e+06 -1.43475e+07 -6.91705e+06 6.51496e+06 1.22495e+06 4.88261e+06
22 3 O 2.76143 3.69187 5.78248 -1.2 -9.47338 -2.27907e+06 -2.88634e+06 -1.09758e+06 486745 44914.1 -164927
23 1 Mg -1.67381 2.41581 1.4948 1.2 -7.35012 1.21287e+06 235012 3.59493e+06 1.35747e+06 -587306 1.2618e+06
24 2 Si 0.16286 0.350945 1.4948 2.4 -24.1911 -8.74334e+06 1.30999e+07 1.07e+07 1.59361e+06 2.84208e+06 1.85163e+06
25 3 O 0.15972 -1.26229 1.4948 -1.2 -4.90766 -1.04656e+07 -8.27618e+06 -2.86804e+07 -5.6027e+06 -8.52874e+06 -2.97692e+06
26 3 O 6.77654 1.32496 1.4948 -1.2 -10.5568 -5.40937e+06 1.38008e+06 -1.00066e+06 -639263 -629210 786719
27 3 O -0.508028 1.05712 0.196716 -1.2 -9.74176 434571 -5.03994e+06 -319840 -543070 194324 -4.85717e+06
28 3 O -0.552171 1.05712 2.79288 -1.2 -6.97758 -5.08744e+06 -4.9418e+06 -2.42727e+07 1.40432e+06 -6.78215e+06 -5.83949e+06
29 1 Mg 6.31713 4.74899 0 1.2 -4.64774 -103054 -1.22241e+07 -6.77874e+06 -7.30976e+06 1.39894e+06 -3.40521e+06
30 1 Mg 3.54847 9.45668 1.4948 1.2 -8.06093 -203842 2.44793e+06 3.7456e+06 -962564 -936843 -215037
31 2 Si 5.36879 6.77254 1.4948 2.4 -33.7269 6.37433e+06 1.35183e+07 1.00921e+07 1.65349e+06 58515.4 -1.69296e+06
32 3 O 5.41937 8.38578 1.4948 -1.2 -5.04335 121121 -1.67619e+06 -3.44674e+07 768203 1.14678e+06 -4.34366e+06
33 3 O 1.75158 5.79852 1.4948 -1.2 -9.77799 -3.52533e+06 -3.0693e+06 -751971 1.96765e+06 -1.62842e+06 -1.49928e+06
34 3 O 4.67421 6.06637 0.196716 -1.2 -4.0693 628329 -1.08631e+07 -3.07264e+07 -1.99988e+06 1.32804e+06 -4.58982e+06
35 1 Mg 6.26654 4.74899 2.9896 1.2 -7.76914 3.72314e+06 -1.07709e+06 -628309 1.78129e+06 -916269 2.06064e+06
36 3 O 4.63043 6.06637 2.79288 -1.2 -9.1175 -1.12923e+06 -4.65177e+06 -1.56799e+06 950428 -51430.5 -1.5874e+06
37 1 Mg -1.12976 4.79031 4.4844 1.2 -8.50241 -873885 3.27938e+06 2.0838e+06 -667068 -385683 -67145.8
38 2 Si -2.9517 7.47444 4.4844 2.4 -32.1722 1.05745e+07 1.01423e+07 6.98065e+06 168825 -209035 201178
39 3 O -3.00198 5.86121 4.4844 -1.2 -9.75462 -3.65433e+06 -763619 -2.97519e+06 51874.6 -102100 -33814.5
40 3 O 0.666315 8.44846 4.4844 -1.2 -9.56075 -2.87537e+06 -3.27537e+06 -2.60132e+06 2.16436e+06 -620364 -134404
41 3 O -2.21213 8.18062 3.18632 -1.2 -9.39844 -2.56267e+06 -4.06492e+06 141968 1.08276e+06 -297340 -1.57341e+06
42 3 O -2.25864 8.18062 5.78248 -1.2 -9.40422 -2.56776e+06 -4.14924e+06 -837128 913512 -63992.6 1.10239e+06
43 1 Mg 1.20893 7.12349 2.9896 1.2 -7.71906 3.63238e+06 -902346 -813197 -1.29215e+06 -1.24788e+06 -1.54252e+06
44 1 Mg 4.00982 7.08218 4.4844 1.2 -8.41603 -1.4359e+06 3.22135e+06 2.62019e+06 980213 -345986 210638
45 2 Si 2.17861 9.14704 4.4844 2.4 -32.3221 9.94416e+06 1.03036e+07 7.66988e+06 504358 37054.7 300399
46 3 O 2.18828 10.7603 4.4844 -1.2 -9.72237 -3.32927e+06 -861744 -3.36257e+06 419440 -236686 -82927.5
47 3 O -4.43805 8.17302 4.4844 -1.2 -9.61577 -2.91538e+06 -3.27378e+06 -2.44568e+06 -1.56655e+06 -361242 -116307
48 3 O 2.89193 8.44087 3.18632 -1.2 -9.37431 -2.2448e+06 -4.29287e+06 -134482 -905067 -227537 1.16174e+06
49 1 Mg 1.25915 7.12349 0 1.2 -5.01252 483144 -6.8311e+06 -7.06739e+06 5.89877e+06 1.40305e+06 2.71847e+06
50 3 O 2.84547 8.44087 5.78248 -1.2 -9.19148 -2.09037e+06 -4.54675e+06 -1.64565e+06 -748048 -109172 -1.33765e+06
51 1 Mg -1.59284 7.16481 1.4948 1.2 -7.95685 395868 2.0849e+06 3.54128e+06 1.46781e+06 -905389 458201
52 2 Si 0.240329 5.09994 1.4948 2.4 -33.5109 7.44007e+06 1.2254e+07 9.94497e+06 -1.94203e+06 -977847 2.27176e+06
53 3 O 0.234538 3.48671 1.4948 -1.2 -5.47566 -1.39157e+06 -138067 -3.3232e+07 390097 5.15183e+06 3.74122e+06
54 3 O 6.85564 6.07396 1.4948 -1.2 -9.86734 -3.97983e+06 -2.5196e+06 -665765 -1.34363e+06 -1.79737e+06 1.0307e+06
55 3 O -0.429565 5.80612 0.196716 -1.2 -4.32054 -204160 -9.49595e+06 -3.0815e+07 1.84293e+06 1.1653e+06 4.40452e+06
56 3 O -0.473377 5.80612 2.79288 -1.2 -9.22132 -1.75652e+06 -4.20933e+06 -1.31916e+06 -795958 253502 1.18741e+06
57 1 Mg 6.40169 9.49799 0 1.2 -4.9954 1.13556e+06 -5.75603e+06 -7.3113e+06 -5.49313e+06 975089 -2.34317e+06
58 1 Mg 3.64209 14.2057 1.4948 1.2 -8.22719 -135037 2.33543e+06 4.01482e+06 -1.03235e+06 -952374 -38960.4
59 2 Si 5.45748 11.5215 1.4948 2.4 -33.7752 6.80749e+06 1.29659e+07 1.02648e+07 889885 284706 -1.85775e+06
60 3 O 5.51101 13.1348 1.4948 -1.2 -5.00332 -194249 -1.44224e+06 -3.42699e+07 468763 -2.51086e+06 -4.54725e+06
61 3 O 1.83851 10.5475 1.4948 -1.2 -9.83102 -3.7647e+06 -2.54257e+06 -682411 1.53896e+06 -1.60595e+06 -1.19515e+06
62 3 O 4.7611 10.8154 0.196716 -1.2 -3.87832 971754 -1.20982e+07 -3.13626e+07 -2.45727e+06 -1.75762e+06 -4.40925e+06
63 1 Mg 6.35203 9.49799 2.9896 1.2 -7.67896 3.70409e+06 -925769 -907319 1.32449e+06 -1.2375e+06 2.11279e+06
64 3 O 4.71833 10.8154 2.79288 -1.2 -9.1388 -1.38177e+06 -4.45517e+06 -1.48894e+06 1.04311e+06 86134.9 -1.44154e+06
65 1 Mg -1.0438 9.53931 4.4844 1.2 -8.35705 -1.24298e+06 3.0582e+06 2.40527e+06 -577907 -211372 113336
66 2 Si -2.8604 12.2234 4.4844 2.4 -32.2562 1.07067e+07 9.98339e+06 7.1475e+06 -163896 -199533 257116
67 3 O -2.91391 10.6102 4.4844 -1.2 -9.79754 -3.56368e+06 -753119 -3.01156e+06 248955 -178182 -150617
68 3 O 0.7596 13.1975 4.4844 -1.2 -9.50638 -2.96264e+06 -3.33709e+06 -2.54384e+06 2.12923e+06 -614967 -76092.1
69 3 O -2.12001 12.9296 3.18632 -1.2 -9.3193 -2.60437e+06 -4.04831e+06 38824.4 1.17151e+06 -204917 -1.66657e+06
70 3 O -2.16532 12.9296 5.78248 -1.2 -9.32902 -2.72962e+06 -4.11871e+06 -890846 1.18344e+06 -78576 1.37954e+06
71 1 Mg 1.29891 11.8725 2.9896 1.2 -7.75209 3.73325e+06 -905484 -861310 -1.17249e+06 -1.15886e+06 -1.57563e+06
72 1 Mg 4.10033 11.8312 4.4844 1.2 -8.41722 -1.29581e+06 3.18108e+06 2.52223e+06 1.17655e+06 -374498 249372
73 2 Si 2.27333 13.896 4.4844 2.4 -32.4475 1.03663e+07 1.02632e+07 7.47785e+06 696818 192620 411221
74 3 O 2.28634 15.5093 4.4844 -1.2 -9.58354 -3.62324e+06 -782625 -3.38121e+06 478377 -290038 -239416
75 3 O -4.34533 12.922 4.4844 -1.2 -9.55514 -3.03736e+06 -3.15047e+06 -2.54211e+06 -1.43459e+06 -304445 -236115
76 3 O 2.98455 13.1899 3.18632 -1.2 -9.30772 -2.42033e+06 -4.19893e+06 -186290 -971730 -188053 1.11767e+06
77 1 Mg 1.34779 11.8725 0 1.2 -5.29519 2.40399e+06 -2.24808e+06 -7.22e+06 3.56694e+06 819079 1.71677e+06
78 3 O 2.93934 13.1899 5.78248 -1.2 -9.22396 -2.23072e+06 -4.5324e+06 -1.24154e+06 -996302 -397013 -1.31218e+06
79 1 Mg -1.50344 11.9138 1.4948 1.2 -8.09895 167576 2.32486e+06 3.7411e+06 1.56289e+06 -946188 556103
80 2 Si 0.326006 9.84894 1.4948 2.4 -33.6924 6.74219e+06 1.30964e+07 1.00391e+07 -603816 185700 2.4886e+06
81 3 O 0.317364 8.23571 1.4948 -1.2 -5.04658 -4572.11 -1.53786e+06 -3.46043e+07 -125739 1.13332e+06 4.07237e+06
82 3 O 6.94307 10.823 1.4948 -1.2 -9.87531 -3.98823e+06 -2.34082e+06 -549023 -983626 -1.50535e+06 921149
83 3 O -0.343122 10.5551 0.196716 -1.2 -3.98006 693280 -1.15721e+07 -3.14119e+07 2.4512e+06 -2.0561e+06 4.39737e+06
84 3 O -0.385966 10.5551 2.79288 -1.2 -9.18236 -1.47654e+06 -4.46645e+06 -1.45787e+06 -852178 36484.2 1.0101e+06
85 1 Mg 6.49448 14.247 0 1.2 -5.31778 3.06897e+06 -1.55853e+06 -7.35338e+06 -2.96164e+06 230950 -1.23933e+06
86 1 Mg 3.74457 18.9547 1.4948 1.2 -8.48145 -26364 2.23547e+06 4.3363e+06 -1.10437e+06 -938802 128875
87 2 Si 5.55495 16.2705 1.4948 2.4 -34.0458 7.54016e+06 1.23187e+07 1.06313e+07 553377 746271 -1.53072e+06
88 3 O 5.6115 17.8838 1.4948 -1.2 -5.15 -1.48193e+06 -1.14367e+06 -3.18142e+07 59951.4 -6.03686e+06 -4.55544e+06
89 3 O 1.93416 15.2965 1.4948 -1.2 -9.73839 -4.0437e+06 -2.05014e+06 -794375 1.53895e+06 -1.41624e+06 -1.35031e+06
90 3 O 4.85636 15.5644 0.196716 -1.2 -3.76658 749167 -1.35992e+07 -2.99842e+07 -3.03988e+06 -5.15172e+06 -4.08775e+06
91 1 Mg 6.44662 14.247 2.9896 1.2 -7.77454 3.94588e+06 -1.04446e+06 -878198 1.28869e+06 -1.27573e+06 2.24523e+06
92 3 O 4.81537 15.5644 2.79288 -1.2 -8.98333 -1.5878e+06 -4.33471e+06 -1.6833e+06 1.05215e+06 23248.7 -1.60063e+06
93 1 Mg -0.948271 14.2883 4.4844 1.2 -8.45431 -1.12998e+06 3.13192e+06 2.36804e+06 -551954 -213159 137155
94 2 Si -2.75928 16.9724 4.4844 2.4 -32.6846 1.13051e+07 9.96506e+06 7.25487e+06 -32078.8 -298675 929989
95 3 O -2.81617 15.3592 4.4844 -1.2 -9.65883 -3.80589e+06 -789824 -2.9434e+06 274267 -47526.5 -277533
96 3 O 0.862762 17.9465 4.4844 -1.2 -9.25537 -3.41759e+06 -3.13057e+06 -2.69927e+06 2.24974e+06 -558887 -316807
97 3 O -2.0185 17.6786 3.18632 -1.2 -9.09914 -2.88628e+06 -3.8661e+06 -233004 1.18032e+06 -100258 -1.9578e+06
98 3 O -2.06164 17.6786 5.78248 -1.2 -9.02573 -3.06749e+06 -4.16539e+06 -944659 1.23149e+06 36998.4 771561
99 1 Mg 1.39817 16.6215 2.9896 1.2 -7.91043 4.11795e+06 -1.08231e+06 -817551 -1.18301e+06 -1.15733e+06 -1.3124e+06
100 1 Mg 4.20062 16.5802 4.4844 1.2 -8.61509 -992706 3.11256e+06 2.60663e+06 1.20935e+06 -331294 359444
101 2 Si 2.37796 18.645 4.4844 2.4 -32.9759 1.14889e+07 9.73553e+06 7.73583e+06 704059 114984 767787
102 3 O 2.39434 20.2583 4.4844 -1.2 -9.303 -4.27729e+06 -347949 -3.58645e+06 511164 -247600 -352018
103 3 O -4.24274 17.671 4.4844 -1.2 -9.30729 -3.39806e+06 -3.06585e+06 -2.65664e+06 -1.50056e+06 -366073 -530112
104 3 O 3.08659 17.9389 3.18632 -1.2 -9.09558 -2.79801e+06 -3.97709e+06 -405490 -958954 -119538 916376
105 1 Mg 1.44478 16.6215 0 1.2 -5.54984 4.27565e+06 533028 -7.0221e+06 1.38806e+06 -29325.5 1.28546e+06
106 3 O 3.0436 17.9389 5.78248 -1.2 -8.93148 -2.8321e+06 -4.42875e+06 -1.32408e+06 -1.02748e+06 -310715 -1.39735e+06
107 1 Mg -1.40524 16.6628 1.4948 1.2 -8.3281 220609 2.2901e+06 4.04231e+06 1.6793e+06 -992880 753399
108 2 Si 0.420358 14.5979 1.4948 2.4 -33.931 7.19664e+06 1.26481e+07 1.03995e+07 -142774 613506 3.03312e+06
109 3 O 0.408732 12.9847 1.4948 -1.2 -4.99384 -200325 -1.43932e+06 -3.4416e+07 224139 -2.58793e+06 4.07248e+06
110 3 O 7.03923 15.572 1.4948 -1.2 -9.77761 -4.25989e+06 -1.88723e+06 -645724 -949588 -1.26405e+06 675508
111 3 O -0.248332 15.3041 0.196716 -1.2 -3.87088 468971 -1.31416e+07 -3.0047e+07 3.2594e+06 -5.39181e+06 3.675e+06
112 3 O -0.289436 15.3041 2.79288 -1.2 -9.03916 -1.64932e+06 -4.43438e+06 -1.58821e+06 -841354 -3355.49 778916
113 1 Mg 6.59566 18.996 0 1.2 -5.59345 4.67925e+06 891621 -6.92896e+06 -904590 -708850 -516372
114 1 Mg 3.85574 23.7037 1.4948 1.2 -8.70987 -21532.5 2.19252e+06 4.60057e+06 -1.18608e+06 -880705 -59124.8
115 2 Si 5.66125 21.0195 1.4948 2.4 -34.3362 8.5555e+06 1.13429e+07 1.11192e+07 216406 1.20711e+06 -1.77402e+06
116 3 O 5.72074 22.6328 1.4948 -1.2 -5.58486 -3.42297e+06 -779543 -2.71993e+07 -233471 -8.50583e+06 -3.86276e+06
117 3 O 2.03867 20.0455 1.4948 -1.2 -9.58639 -4.38907e+06 -1.52797e+06 -1.011e+06 1.57932e+06 -1.18631e+06 -1.32073e+06
118 3 O 4.96004 20.3134 0.196716 -1.2 -3.93661 -229746 -1.484e+07 -2.63052e+07 -3.19979e+06 -7.95197e+06 -3.07639e+06
119 1 Mg 6.55057 18.996 2.9896 1.2 -7.99686 4.3515e+06 -1.36127e+06 -610209 1.32183e+06 -1.25423e+06 2.42291e+06
120 3 O 4.92172 20.3134 2.79288 -1.2 -8.74785 -1.95653e+06 -3.99565e+06 -2.06212e+06 1.05727e+06 -101087 -1.59237e+06
121 1 Mg -0.84282 19.0373 4.4844 1.2 -8.76717 -726581 2.80491e+06 2.7846e+06 -586139 -321279 457650
122 2 Si -2.64823 21.7214 4.4844 2.4 -33.3142 1.19962e+07 8.96184e+06 8.58681e+06 50255.4 -293677 448086
123 3 O -2.70847 20.1082 4.4844 -1.2 -9.30159 -4.18097e+06 -311742 -3.59659e+06 303884 -44381.2 -429182
124 3 O 0.97581 22.6955 4.4844 -1.2 -9.04979 -3.82676e+06 -2.73964e+06 -3.00104e+06 2.25538e+06 -440348 -39032.1
125 3 O -1.9076 22.4276 3.18632 -1.2 -8.88021 -3.10962e+06 -3.56019e+06 -700256 1.15747e+06 -4454.75 -1.68075e+06
126 3 O -1.9475 22.4276 5.78248 -1.2 -8.64786 -3.3902e+06 -3.68778e+06 -1.75274e+06 1.13301e+06 72994.9 1.27938e+06
127 1 Mg 1.50678 21.3705 2.9896 1.2 -8.10934 4.6114e+06 -1.4687e+06 -605822 -1.18269e+06 -1.22834e+06 -1.39107e+06
128 1 Mg 4.31086 21.3292 4.4844 1.2 -8.90969 -448535 2.56952e+06 3.08258e+06 1.19788e+06 -167226 290555
129 2 Si 2.49243 23.394 4.4844 2.4 -33.251 1.21889e+07 9.12776e+06 8.08547e+06 655145 38464 41947.6
130 3 O 2.51204 25.0073 4.4844 -1.2 -9.28937 -4.39432e+06 -395002 -3.46693e+06 571655 -167097 -128703
131 3 O -4.13026 22.42 4.4844 -1.2 -9.06116 -3.75815e+06 -2.63063e+06 -3.11941e+06 -1.43756e+06 -432207 -169216
132 3 O 3.19799 22.6879 3.18632 -1.2 -8.91318 -3.14126e+06 -3.67025e+06 -715512 -914508 -44832.5 1.16875e+06
133 1 Mg 1.5501 21.3705 0 1.2 -5.76107 5.43364e+06 1.91859e+06 -6.44913e+06 -82535.1 -940066 697452
134 3 O 3.1583 22.6879 5.78248 -1.2 -8.68855 -3.44892e+06 -3.78469e+06 -1.77845e+06 -897863 -310531 -1.15739e+06
135 1 Mg -1.29822 21.4118 1.4948 1.2 -8.59397 235383 2.18946e+06 4.44971e+06 1.80065e+06 -978372 544055
136 2 Si 0.523568 19.3469 1.4948 2.4 -34.2457 8.12962e+06 1.18104e+07 1.08367e+07 270872 1.0121e+06 3.34248e+06
137 3 O 0.508934 17.7337 1.4948 -1.2 -5.1446 -1.49504e+06 -1.14536e+06 -3.19426e+07 686263 -6.09904e+06 3.66789e+06
138 3 O 7.14425 20.321 1.4948 -1.2 -9.61667 -4.53654e+06 -1.36027e+06 -962073 -946102 -1.03344e+06 678577
139 3 O -0.145107 20.0531 0.196716 -1.2 -4.04233 -534678 -1.45411e+07 -2.6333e+07 3.69638e+06 -8.18888e+06 2.72645e+06
140 3 O -0.183601 20.0531 2.79288 -1.2 -8.80524 -1.99254e+06 -4.12285e+06 -1.97703e+06 -817697 4170 689040
141 1 Mg 6.70502 23.745 0 1.2 -5.856 5.4289e+06 1.94171e+06 -5.92425e+06 428800 -1.54323e+06 -438730
142 1 Mg 3.97493 28.4527 1.4948 1.2 -8.89345 -159180 2.16861e+06 4.82365e+06 -1.21805e+06 -737478 267431
143 2 Si 5.77602 25.7685 1.4948 2.4 -34.4447 9.59319e+06 1.04381e+07 1.12473e+07 -89792.8 1.55252e+06 -1.85899e+06
144 3 O 5.83821 27.3818 1.4948 -1.2 -6.27437 -5.33871e+06 -456253 -2.12682e+07 -347942 -9.30426e+06 -3.39995e+06
145 3 O 2.15175 24.7945 1.4948 -1.2 -9.47093 -4.60461e+06 -1.13221e+06 -1.24316e+06 1.62688e+06 -952338 -1.0961e+06
146 3 O 5.07184 25.0624 0.196716 -1.2 -4.40946 -1.77108e+06 -1.52266e+07 -2.09996e+07 -2.79469e+06 -9.42855e+06 -1.6231e+06
147 1 Mg 6.66374 23.745 2.9896 1.2 -8.12591 4.6298e+06 -1.53799e+06 -502207 1.33953e+06 -1.25217e+06 2.09018e+06
148 3 O 5.03707 25.0624 2.79288 -1.2 -8.65107 -2.16536e+06 -3.94401e+06 -2.10575e+06 1.07436e+06 -195157 -1.39704e+06
149 1 Mg -0.727559 23.7863 4.4844 1.2 -8.91334 -645179 2.70966e+06 3.02509e+06 -513106 -338644 72998.6
150 2 Si -2.5277 26.4704 4.4844 2.4 -33.3408 1.17812e+07 9.35267e+06 8.44694e+06 43404 -146572 808576
151 3 O -2.59107 24.8572 4.4844 -1.2 -9.24566 -4.17045e+06 -463393 -3.55423e+06 308587 -89809.1 -172511
152 3 O 1.09817 27.4445 4.4844 -1.2 -9.04495 -3.86886e+06 -2.73407e+06 -3.00215e+06 2.26404e+06 -316041 -332713
153 3 O -1.78784 27.1766 3.18632 -1.2 -8.79024 -3.11436e+06 -3.54035e+06 -925330 1.17423e+06 69201.6 -1.87073e+06
154 3 O -1.82343 27.1766 5.78248 -1.2 -8.66608 -3.0698e+06 -3.90373e+06 -1.73016e+06 1.27158e+06 88199.1 789794
155 1 Mg 1.62435 26.1195 2.9896 1.2 -8.16493 4.82859e+06 -1.51413e+06 -685532 -1.1702e+06 -1.32752e+06 -1.35494e+06
156 1 Mg 4.43064 26.0782 4.4844 1.2 -8.86757 -396708 2.73063e+06 2.79864e+06 1.23272e+06 -136399 314667
157 2 Si 2.61607 28.143 4.4844 2.4 -33.2636 1.24102e+07 8.90438e+06 8.10061e+06 779205 -82958.7 808821
158 3 O 2.63853 29.7563 4.4844 -1.2 -9.21277 -4.60229e+06 -130823 -3.65161e+06 548937 -135253 -502207
159 3 O -4.00841 27.169 4.4844 -1.2 -9.06218 -3.79375e+06 -2.7264e+06 -3.01246e+06 -1.40716e+06 -524726 -500114
160 3 O 3.3182 27.4369 3.18632 -1.2 -8.8515 -3.26234e+06 -3.62637e+06 -821331 -910364 52555.8 930088
161 1 Mg 1.66335 26.1195 0 1.2 -5.99983 5.55187e+06 2.19998e+06 -5.24701e+06 -904093 -1.52186e+06 456361
162 3 O 3.28288 27.4369 5.78248 -1.2 -8.83713 -3.35851e+06 -3.74873e+06 -1.56996e+06 -946890 -237120 -1.62769e+06
163 1 Mg -1.18278 26.1608 1.4948 1.2 -8.80401 82169.1 2.19783e+06 4.73886e+06 1.88044e+06 -877216 443725
164 2 Si 0.635424 24.0959 1.4948 2.4 -34.4325 9.12135e+06 1.08985e+07 1.11236e+07 715604 1.35831e+06 2.87855e+06
165 3 O 0.617906 22.4827 1.4948 -1.2 -5.58099 -3.45916e+06 -780380 -2.73029e+07 1.02848e+06 -8.53925e+06 3.45165e+06
166 3 O 7.25781 25.07 1.4948 -1.2 -9.49845 -4.69063e+06 -999468 -1.23954e+06 -945560 -808921 832651
167 3 O -0.0337363 24.8021 0.196716 -1.2 -4.49366 -2.00715e+06 -1.52148e+07 -2.10515e+07 3.51298e+06 -9.63601e+06 1.68639e+06
168 3 O -0.0687235 24.8021 2.79288 -1.2 -8.68982 -2.1504e+06 -4.06126e+06 -2.12079e+06 -816048 -24930.8 840021
169 1 Mg 6.82195 28.494 0 1.2 -6.11013 5.15967e+06 2.12512e+06 -4.55176e+06 1.15187e+06 -1.88187e+06 -124993
170 1 Mg 4.10106 33.2017 1.4948 1.2 -9.04792 -391516 2.06526e+06 5.06634e+06 -1.21675e+06 -525655 412532
171 2 Si 5.89839 30.5175 1.4948 2.4 -34.4625 1.06204e+07 9.25579e+06 1.15142e+07 -336065 1.69804e+06 -1.15169e+06
172 3 O 5.96289 32.1308 1.4948 -1.2 -7.03805 -6.61848e+06 -61841.8 -1.55033e+07 -281481 -8.44874e+06 -2.94626e+06
173 3 O 2.27266 29.5435 1.4948 -1.2 -9.3742 -4.7253e+06 -778265 -1.58404e+06 1.6557e+06 -733795 -1.37043e+06
174 3 O 5.19102 29.8114 0.196716 -1.2 -5.14849 -3.29152e+06 -1.45248e+07 -1.51951e+07 -1.94132e+06 -9.27624e+06 -577612
175 1 Mg 6.78546 28.494 2.9896 1.2 -8.19904 4.79647e+06 -1.70654e+06 -377709 1.31728e+06 -1.27297e+06 2.39649e+06
176 3 O 5.16061 29.8114 2.79288 -1.2 -8.5556 -2.37439e+06 -3.69319e+06 -2.33947e+06 1.11335e+06 -293531 -1.72072e+06
177 1 Mg -0.603205 28.5353 4.4844 1.2 -8.97921 -624568 2.55987e+06 3.25036e+06 -504058 -390832 441577
178 2 Si -2.39877 31.2194 4.4844 2.4 -33.6438 1.21828e+07 8.61649e+06 9.2751e+06 87081.5 -250988 1.18739e+06
179 3 O -2.46483 29.6062 4.4844 -1.2 -9.11936 -4.23029e+06 -172982 -3.98596e+06 388980 -39777.8 -511740
180 3 O 1.22864 32.1935 4.4844 -1.2 -8.889 -4.14505e+06 -2.42394e+06 -3.28037e+06 2.19977e+06 -287168 -688610
181 3 O -1.66032 31.9256 3.18632 -1.2 -8.65452 -3.272e+06 -3.21872e+06 -1.38101e+06 1.13738e+06 142058 -2.05354e+06
182 3 O -1.69072 31.9256 5.78248 -1.2 -8.48568 -3.34979e+06 -3.54137e+06 -2.06693e+06 1.08697e+06 152970 706595
183 1 Mg 1.7499 30.8685 2.9896 1.2 -8.25714 5.08224e+06 -1.78451e+06 -514532 -1.12737e+06 -1.40471e+06 -999629
184 1 Mg 4.55894 30.8272 4.4844 1.2 -9.00649 -187209 2.39084e+06 3.15436e+06 1.18172e+06 -17242.3 661258
185 2 Si 2.7476 32.892 4.4844 2.4 -33.6536 1.28441e+07 8.14364e+06 9.05798e+06 714972 -63113.6 1.53602e+06
186 3 O 2.77235 34.5053 4.4844 -1.2 -8.97606 -4.74801e+06 438648 -4.45437e+06 606237 -73888.4 -606725
187 3 O -3.87837 31.918 4.4844 -1.2 -8.9074 -4.06175e+06 -2.33609e+06 -3.37067e+06 -1.28451e+06 -443857 -663956
188 3 O 3.44611 32.1859 3.18632 -1.2 -8.70898 -3.39847e+06 -3.31652e+06 -1.31255e+06 -855506 123118 642638
189 1 Mg 1.7837 30.8685 0 1.2 -6.19704 4.74215e+06 2.12955e+06 -4.11161e+06 -1.35063e+06 -1.48297e+06 824387
190 3 O 3.41602 32.1859 5.78248 -1.2 -8.63248 -3.61402e+06 -3.5822e+06 -1.74199e+06 -771787 -341289 -2.09274e+06
191 1 Mg -1.05984 30.9098 1.4948 1.2 -8.97681 -121543 2.13615e+06 4.97928e+06 1.91077e+06 -664914 619878
192 2 Si 0.755243 28.8449 1.4948 2.4 -34.4819 1.01494e+07 9.82249e+06 1.13354e+07 1.1289e+06 1.56745e+06 3.31228e+06
193 3 O 0.735127 27.2317 1.4948 -1.2 -6.27013 -5.38174e+06 -448810 -2.13761e+07 1.18445e+06 -9.30643e+06 2.73068e+06
194 3 O 7.37914 29.819 1.4948 -1.2 -9.39578 -4.76546e+06 -646607 -1.64947e+06 -930692 -594938 556991
195 3 O 0.0850649 29.5511 0.196716 -1.2 -5.2028 -3.45064e+06 -1.49082e+07 -1.5211e+07 2.70702e+06 -9.44239e+06 50046.2
196 3 O 0.0543974 29.5511 2.79288 -1.2 -8.60068 -2.34514e+06 -3.85075e+06 -2.33304e+06 -836601 -49775 488688
197 1 Mg 6.94543 33.243 0 1.2 -6.30092 4.13227e+06 1.99844e+06 -3.41844e+06 1.58541e+06 -1.50244e+06 -332985
198 1 Mg 4.23267 37.9507 1.4948 1.2 -9.10144 -702187 2.03701e+06 5.07651e+06 -1.12479e+06 -216190 113229
199 2 Si 6.02709 35.2665 1.4948 2.4 -34.3757 1.15558e+07 7.93535e+06 1.18099e+07 -430354 1.55791e+06 -1.2574e+06
200 3 O 6.09339 36.8798 1.4948 -1.2 -7.77647 -6.94392e+06 283685 -1.08336e+07 -134207 -6.59957e+06 -2.15553e+06
201 3 O 2.40018 34.2925 1.4948 -1.2 -9.28068 -4.73832e+06 -432626 -2.118e+06 1.69465e+06 -541726 -1.30954e+06
202 3 O 5.31645 34.5604 0.196716 -1.2 -6.03115 -4.36943e+06 -1.26898e+07 -1.01009e+07 -941231 -7.79649e+06 685608
203 1 Mg 6.91449 33.243 2.9896 1.2 -8.30024 5.07195e+06 -2.08481e+06 -104399 1.2986e+06 -1.38451e+06 2.44551e+06
204 3 O 5.291 34.5604 2.79288 -1.2 -8.46068 -2.63044e+06 -3.27818e+06 -2.68482e+06 1.14604e+06 -268927 -1.63817e+06
205 1 Mg -0.471101 33.2843 4.4844 1.2 -9.15338 -327199 2.10478e+06 3.68424e+06 -351085 -251651 616708
206 2 Si -2.26307 35.9684 4.4844 2.4 -33.8426 1.28437e+07 7.75874e+06 9.79272e+06 120287 -214744 746919
207 3 O -2.33122 34.3552 4.4844 -1.2 -8.98239 -4.62951e+06 318298 -4.28127e+06 395062 -27967.7 -475399
208 3 O 1.36549 36.9425 4.4844 -1.2 -8.76557 -4.21143e+06 -2.07088e+06 -3.77498e+06 2.3378e+06 -337871 -215710
209 3 O -1.52658 36.6746 3.18632 -1.2 -8.58038 -3.36531e+06 -2.92947e+06 -1.79131e+06 1.14531e+06 136823 -1.77437e+06
210 3 O -1.55122 36.6746 5.78248 -1.2 -8.40736 -3.73112e+06 -3.13135e+06 -2.0333e+06 1.18551e+06 96809.4 997359
211 1 Mg 1.882 35.6175 2.9896 1.2 -8.35853 5.20771e+06 -2.19071e+06 -61199.4 -1.11941e+06 -1.46653e+06 -1.18148e+06
212 1 Mg 4.69415 35.5762 4.4844 1.2 -9.17692 63936.8 1.84908e+06 3.71897e+06 1.21029e+06 -179750 422167
213 2 Si 2.88522 37.641 4.4844 2.4 -33.7893 1.28376e+07 7.65253e+06 9.77213e+06 715545 -220805 259683
214 3 O 2.91159 39.2543 4.4844 -1.2 -9.05863 -4.68932e+06 361295 -4.30527e+06 610191 25173.6 -777.511
215 3 O -3.74183 36.667 4.4844 -1.2 -8.83026 -4.34539e+06 -1.95154e+06 -3.60287e+06 -1.35745e+06 -307381 -352378
216 3 O 3.58014 36.9349 3.18632 -1.2 -8.62584 -3.39568e+06 -3.026e+06 -1.84573e+06 -855943 232844 1.02452e+06
217 1 Mg 1.90997 35.6175 0 1.2 -6.35334 3.54706e+06 1.76169e+06 -3.2769e+06 -1.64195e+06 -716555 1.0285e+06
218 3 O 3.55582 36.9349 5.78248 -1.2 -8.41051 -3.72167e+06 -3.09513e+06 -2.36244e+06 -924581 -28145.3 -1.33629e+06
219 1 Mg -0.93068 35.6588 1.4948 1.2 -9.0854 -347420 1.98864e+06 5.13462e+06 1.86447e+06 -322058 381890
220 2 Si 0.881882 33.5939 1.4948 2.4 -34.4502 1.11302e+07 8.52226e+06 1.16752e+07 1.43041e+06 1.66066e+06 3.16299e+06
221 3 O 0.859602 31.9807 1.4948 -1.2 -7.03613 -6.68277e+06 -68919.7 -1.55781e+07 1.15141e+06 -8.47554e+06 1.92406e+06
222 3 O 7.507 34.568 1.4948 -1.2 -9.31341 -4.8095e+06 -319921 -2.13027e+06 -932804 -399928 669698
223 3 O 0.210186 34.3001 0.196716 -1.2 -6.054 -4.43615e+06 -1.34273e+07 -1.01081e+07 1.5239e+06 -7.98085e+06 -1.00538e+06
224 3 O 0.184454 34.3001 2.79288 -1.2 -8.50117 -2.59709e+06 -3.44286e+06 -2.69187e+06 -870851 -170719 468120
225 1 Mg 7.07415 37.992 0 1.2 -6.4268 2.99812e+06 1.65142e+06 -2.88487e+06 1.84498e+06 -428825 -1.12278e+06
226 1 Mg 4.36817 42.6997 1.4948 1.2 -9.0071 -1.07358e+06 2.39121e+06 4.56066e+06 -1.00054e+06 142481 20788.7
227 2 Si 6.16058 40.0155 1.4948 2.4 -34.0768 1.1978e+07 7.30212e+06 1.15498e+07 -383280 1.38575e+06 -1.53437e+06
228 3 O 6.22815 41.6288 1.4948 -1.2 -8.46354 -6.33856e+06 168510 -7.31314e+06 42248.5 -4.55899e+06 -1.5989e+06
229 3 O 2.53282 39.0415 1.4948 -1.2 -9.26698 -4.58291e+06 -421928 -2.46607e+06 1.71369e+06 -335448 -986182
230 3 O 5.44674 39.3094 0.196716 -1.2 -6.91254 -4.77983e+06 -1.01849e+07 -6.34313e+06 -127223 -5.7933e+06 1.74414e+06
231 1 Mg 7.04922 37.992 2.9896 1.2 -8.29884 5.14346e+06 -2.256e+06 3914.42 1.31693e+06 -1.46123e+06 2.10146e+06
232 3 O 5.42658 39.3094 2.79288 -1.2 -8.52197 -2.68339e+06 -3.22385e+06 -2.61651e+06 1.12151e+06 -333231 -1.25963e+06
233 1 Mg -0.333062 38.0333 4.4844 1.2 -9.18102 -314870 1.94773e+06 3.86782e+06 -465763 -134591 244110
234 2 Si -2.12255 40.7174 4.4844 2.4 -33.64 1.22939e+07 7.96316e+06 9.83377e+06 143058 -8699.76 66141.2
235 3 O -2.19212 39.1042 4.4844 -1.2 -9.01125 -4.53175e+06 368385 -4.37281e+06 390677 -54501.3 -128191
236 3 O 1.50676 41.6915 4.4844 -1.2 -8.96127 -3.98251e+06 -2.32587e+06 -3.43065e+06 2.25976e+06 -84160 15133.1
237 3 O -1.3884 41.4236 3.18632 -1.2 -8.67638 -3.07568e+06 -3.11364e+06 -1.83962e+06 1.14759e+06 133695 -1.45871e+06
238 3 O -1.40713 41.4236 5.78248 -1.2 -8.49717 -3.13823e+06 -3.23889e+06 -2.68884e+06 1.12645e+06 -106532 1.36973e+06
239 1 Mg 2.01892 40.3665 2.9896 1.2 -8.26436 5.09146e+06 -2.04817e+06 -225175 -1.09821e+06 -1.64107e+06 -1.51307e+06
240 1 Mg 4.83434 40.3252 4.4844 1.2 -9.03507 -99416.9 2.04112e+06 3.46536e+06 1.25636e+06 -9539.6 35423.4
241 2 Si 3.02698 42.39 4.4844 2.4 -33.3497 1.22933e+07 8.23434e+06 9.03369e+06 856869 -171187 129323
242 3 O 3.05433 44.0033 4.4844 -1.2 -9.26059 -4.30115e+06 120594 -4.13007e+06 557493 -37872.6 -14242
243 3 O -3.60077 41.416 4.4844 -1.2 -9.00235 -4.10253e+06 -2.16874e+06 -3.33063e+06 -1.2761e+06 -327272 -41387.1
244 3 O 3.71851 41.6839 3.18632 -1.2 -8.75035 -3.1395e+06 -3.29951e+06 -1.73661e+06 -850637 228391 1.20335e+06
245 1 Mg 2.04077 40.3665 0 1.2 -6.40968 2.46663e+06 1.56959e+06 -3.33527e+06 -1.81767e+06 403902 1.63025e+06
246 3 O 3.70011 41.6839 5.78248 -1.2 -8.76122 -3.37277e+06 -3.47368e+06 -1.71735e+06 -907917 -217932 -1.40682e+06
247 1 Mg -0.796865 40.4078 1.4948 1.2 -9.04769 -659865 2.16414e+06 4.81945e+06 1.75117e+06 22886.9 104809
248 2 Si 1.01387 38.3429 1.4948 2.4 -34.2422 1.17491e+07 7.52538e+06 1.17551e+07 1.5408e+06 1.43562e+06 2.25381e+06
249 3 O 0.989947 36.7297 1.4948 -1.2 -7.76735 -6.99457e+06 293867 -1.09589e+07 1.0303e+06 -6.64419e+06 1.70598e+06
250 3 O 7.63988 39.317 1.4948 -1.2 -9.31059 -4.67301e+06 -339733 -2.42455e+06 -926450 -270666 971301
251 3 O 0.340253 39.0491 0.196716 -1.2 -6.91513 -4.83511e+06 -1.10996e+07 -6.32328e+06 364595 -5.84157e+06 -1.64087e+06
252 3 O 0.319795 39.0491 2.79288 -1.2 -8.54619 -2.63154e+06 -3.36352e+06 -2.70255e+06 -839925 -168150 804978
253 1 Mg 7.20667 42.741 0 1.2 -6.40828 2.06648e+06 1.69254e+06 -3.4878e+06 1.98814e+06 948135 -2.07891e+06
254 1 Mg 4.50613 47.4487 1.4948 1.2 -8.89341 -1.24556e+06 2.7218e+06 4.01673e+06 -858220 440688 -9669.12
255 2 Si 6.29731 44.7645 1.4948 2.4 -33.6715 1.19495e+07 7.3381e+06 1.08696e+07 -254963 945832 -1.48169e+06
256 3 O 6.36567 46.3778 1.4948 -1.2 -8.98158 -5.36479e+06 -94717.7 -5.09363e+06 187859 -2.70377e+06 -1.29516e+06
257 3 O 2.669 43.7905 1.4948 -1.2 -9.32958 -4.26337e+06 -878670 -2.49856e+06 1.71362e+06 -193995 -911260
258 3 O 5.58048 44.0584 0.196716 -1.2 -7.72247 -4.53633e+06 -7.83931e+06 -3.67029e+06 321125 -3.75447e+06 2.3611e+06
259 1 Mg 7.1879 42.741 2.9896 1.2 -8.14982 4.90371e+06 -1.9808e+06 -256837 1.25498e+06 -1.54528e+06 1.88552e+06
260 3 O 5.56564 44.0584 2.79288 -1.2 -8.69116 -2.53653e+06 -3.45983e+06 -2.28046e+06 1.1584e+06 -311213 -1.16312e+06
261 1 Mg -0.19105 42.7823 4.4844 1.2 -8.98801 -701066 2.17563e+06 3.71592e+06 -377468 -151288 -68347.1
262 2 Si -1.97909 45.4664 4.4844 2.4 -33.1595 1.17675e+07 8.49159e+06 9.05001e+06 65563.9 -240192 -229857
263 3 O -2.04947 43.8532 4.4844 -1.2 -9.24477 -4.19858e+06 101724 -4.06005e+06 507806 -14129.3 90939
264 3 O 1.65063 46.4405 4.4844 -1.2 -9.13541 -3.70102e+06 -2.54904e+06 -3.2162e+06 2.2783e+06 -180556 96840.9
265 3 O -1.24745 46.1726 3.18632 -1.2 -8.82218 -2.84955e+06 -3.41035e+06 -1.646e+06 1.13574e+06 120876 -1.35443e+06
266 3 O -1.26044 46.1726 5.78248 -1.2 -8.90415 -3.00048e+06 -3.4031e+06 -1.61299e+06 1.13409e+06 3624.91 1.5204e+06
267 1 Mg 2.15896 45.1155 2.9896 1.2 -8.1166 4.80869e+06 -1.74125e+06 -470383 -1.05011e+06 -1.68267e+06 -1.57869e+06
268 1 Mg 4.97763 45.0742 4.4844 1.2 -8.8561 -525675 2.23933e+06 3.40611e+06 1.21694e+06 -23314.3 -9109.07
269 2 Si 3.1711 47.139 4.4844 2.4 -33.106 1.15489e+07 8.67805e+06 8.94788e+06 762844 18569.9 -135401
270 3 O 3.19894 48.7523 4.4844 -1.2 -9.32709 -4.04219e+06 -86408.5 -4.0773e+06 610429 -53282.2 41923.9