ITEM: TIMESTEP
49200
ITEM: NUMBER OF ATOMS
10500
ITEM: BOX BOUNDS xy xz yz pp pp pp
0.0000000000000000e+00 1.5297749999999999e+01 5.0992499999999996e+00
0.0000000000000000e+00 1.1872499999999999e+02 0.0000000000000000e+00
0.0000000000000000e+00 8.9688000000000002e+01 0.0000000000000000e+00
ITEM: ATOMS id type element xu yu zu q c_pe c_s[1] c_s[2] c_s[3] c_s[4] c_s[5] c_s[6]
1 1 Mg 6.2404 -6.37941e-06 0 1.2 -4.34812 7.7664e+06 -1.71945e+06 -6.34224e+06 -31724.4 2.61341e+06 -107130
2 1 Mg 3.46349 4.70768 1.4948 1.2 -8.42258 -407746 2.77676e+06 4.22155e+06 -930224 -664390 144340
3 2 Si 5.2885 2.02354 1.4948 2.4 -35.0377 9.68221e+06 1.11245e+07 1.11222e+07 8.84115e+06 738947 -2.97133e+06
4 3 O 5.33628 3.63678 1.4948 -1.2 -4.80228 -692545 -1.5394e+06 -3.35723e+07 -323686 3.79951e+06 -3.92953e+06
5 3 O 1.67294 1.04952 1.4948 -1.2 -1.1714 -2.0152e+07 -7.94383e+07 -2.02771e+06 -2.41375e+07 -84581 -179254
6 3 O 4.59532 1.31737 0.196716 -1.2 -3.10514 -1.84406e+06 -6.8157e+06 -3.03434e+07 -6.03544e+06 6.24549e+06 -2.72282e+06
7 1 Mg 6.18956 -6.37941e-06 2.9896 1.2 -4.76412 1.27496e+06 -2.82852e+07 -2.89222e+06 -8.8387e+06 2.55572e+06 4.06826e+06
8 3 O 4.55118 1.31737 2.79288 -1.2 -7.66549 319830 -4.68682e+06 -3.09229e+06 -2.94598e+06 -3.44412e+06 -1.15397e+06
9 1 Mg -1.20682 0.0413099 4.4844 1.2 9.07483 -3.12539e+07 -9.36371e+07 249219 -2.84794e+07 -1.28573e+06 91774.4
10 2 Si -3.0337 2.72544 4.4844 2.4 -32.7814 1.36499e+07 6.93101e+06 8.31188e+06 1.52512e+06 263315 -825744
11 3 O -3.08099 1.11221 4.4844 -1.2 -9.78664 -5.74724e+06 200999 -2.48272e+06 -1.1699e+06 -365618 394017
12 3 O 0.582463 3.69946 4.4844 -1.2 -9.09907 -2.93267e+06 -5.46937e+06 -2.98941e+06 -605934 -123442 -105774
13 3 O -2.29524 3.43162 3.18632 -1.2 -9.179 -3.97671e+06 -2.54372e+06 -610846 1.09789e+06 -880876 -954496
14 3 O -2.34216 3.43162 5.78248 -1.2 -9.05816 -3.46603e+06 -3.26394e+06 -1.61045e+06 757820 621685 1.42213e+06
15 1 Mg 1.12778 2.37449 2.9896 1.2 -7.46679 4.93828e+06 -1.64657e+06 -648008 -3.25136e+06 -4.26434e+06 -2.20098e+06
16 1 Mg 3.92855 2.33318 4.4844 1.2 -8.24577 -4.30151e+06 4.7951e+06 4.74491e+06 1.34476e+06 305286 531999
17 2 Si 2.09341 4.39804 4.4844 2.4 -32.135 1.15656e+07 6.66473e+06 9.18324e+06 256019 -435956 643871
18 3 O 2.09991 6.01128 4.4844 -1.2 -9.559 -3.87093e+06 107342 -4.07196e+06 532786 -86332.2 -136246
19 3 O -4.52137 3.42402 4.4844 -1.2 -9.35524 -2.69475e+06 -2.80948e+06 -3.60869e+06 -2.35371e+06 -952909 76083.9
20 3 O 2.80834 3.69187 3.18632 -1.2 -9.45343 -1.96222e+06 -2.80009e+06 -412843 449444 -424345 -561966
21 1 Mg 1.17857 2.37449 0 1.2 -5.06921 -683091 -1.46732e+07 -6.60446e+06 6.54078e+06 1.18268e+06 4.67991e+06
22 3 O 2.76143 3.69187 5.78248 -1.2 -9.54613 -2.5595e+06 -2.26963e+06 -1.29186e+06 456983 218708 -56628
23 1 Mg -1.67381 2.41581 1.4948 1.2 -7.48593 1.37395e+06 -140815 4.02727e+06 1.34699e+06 -560316 1.06911e+06
24 2 Si 0.16286 0.350945 1.4948 2.4 -24.3101 -8.65593e+06 1.25092e+07 1.13938e+07 1.5915e+06 2.77429e+06 1.39224e+06
25 3 O 0.15972 -1.26229 1.4948 -1.2 -4.90167 -1.04208e+07 -8.0259e+06 -2.89853e+07 -5.59291e+06 -8.50305e+06 -2.78496e+06
26 3 O 6.77654 1.32496 1.4948 -1.2 -10.4673 -5.53934e+06 1.71242e+06 -1.34677e+06 -628540 -686319 1.01895e+06
27 3 O -0.508028 1.05712 0.196716 -1.2 -9.60456 246848 -4.79718e+06 -593743 -543353 197618 -4.65834e+06
28 3 O -0.552171 1.05712 2.79288 -1.2 -6.94104 -5.02118e+06 -4.56633e+06 -2.47758e+07 1.40743e+06 -6.74833e+06 -5.54844e+06
29 1 Mg 6.31713 4.74899 0 1.2 -4.92804 309252 -1.27245e+07 -6.24154e+06 -7.31967e+06 1.46909e+06 -3.56993e+06
30 1 Mg 3.54847 9.45668 1.4948 1.2 -8.32825 274544 1.7467e+06 4.39677e+06 -957522 -946107 -319441
31 2 Si 5.36879 6.77254 1.4948 2.4 -34.2601 7.23523e+06 1.21464e+07 1.14573e+07 1.66538e+06 173314 -1.85166e+06
32 3 O 5.41937 8.38578 1.4948 -1.2 -4.76224 -319691 -961214 -3.51918e+07 766068 1.0926e+06 -4.25795e+06
33 3 O 1.75158 5.79852 1.4948 -1.2 -9.53482 -3.95128e+06 -2.42664e+06 -1.35778e+06 1.96275e+06 -1.54581e+06 -1.40182e+06
34 3 O 4.67421 6.06637 0.196716 -1.2 -3.76621 173916 -1.02632e+07 -3.13563e+07 -2.01031e+06 1.3196e+06 -4.47101e+06
35 1 Mg 6.26654 4.74899 2.9896 1.2 -7.93519 3.99646e+06 -1.6622e+06 -50430.2 1.79001e+06 -792472 1.98089e+06
36 3 O 4.63043 6.06637 2.79288 -1.2 -8.90957 -1.56615e+06 -3.94512e+06 -2.1711e+06 933670 -102561 -1.52234e+06
37 1 Mg -1.12976 4.79031 4.4844 1.2 -8.6986 -859015 2.7627e+06 2.90281e+06 -692731 -390787 -35998.1
38 2 Si -2.9517 7.47444 4.4844 2.4 -32.7835 1.11509e+07 8.66921e+06 8.86083e+06 -4161.42 156987 17731.1
39 3 O -3.00198 5.86121 4.4844 -1.2 -9.52438 -3.86811e+06 -82306 -3.81143e+06 57252 -330534 -7983.34
40 3 O 0.666315 8.44846 4.4844 -1.2 -9.27763 -3.31459e+06 -2.52476e+06 -3.35989e+06 2.12346e+06 -414720 93694.4
41 3 O -2.21213 8.18062 3.18632 -1.2 -9.10961 -2.87896e+06 -3.31894e+06 -747655 1.12135e+06 -339794 -1.45276e+06
42 3 O -2.25864 8.18062 5.78248 -1.2 -8.97283 -2.83129e+06 -3.60193e+06 -1.84091e+06 1.17524e+06 -78908.6 1.34014e+06
43 1 Mg 1.20893 7.12349 2.9896 1.2 -7.96796 4.05893e+06 -1.66028e+06 -83020.1 -1.28148e+06 -1.3795e+06 -1.65082e+06
44 1 Mg 4.00982 7.08218 4.4844 1.2 -8.61181 -834707 2.39193e+06 3.16196e+06 1.04676e+06 -306240 119303
45 2 Si 2.17861 9.14704 4.4844 2.4 -32.7988 1.11608e+07 8.73897e+06 8.78091e+06 646788 -184261 -38363.2
46 3 O 2.18828 10.7603 4.4844 -1.2 -9.49662 -3.89336e+06 -145973 -3.87257e+06 386736 -173287 52409.3
47 3 O -4.43805 8.17302 4.4844 -1.2 -9.33989 -3.36576e+06 -2.47963e+06 -3.2348e+06 -1.54336e+06 -582367 -72272.8
48 3 O 2.89193 8.44087 3.18632 -1.2 -9.12993 -2.78517e+06 -3.50515e+06 -773815 -938929 -188937 1.27115e+06
49 1 Mg 1.25915 7.12349 0 1.2 -5.32307 1.03589e+06 -7.46488e+06 -6.48877e+06 5.89188e+06 1.33057e+06 2.61189e+06
50 3 O 2.84547 8.44087 5.78248 -1.2 -9.00876 -2.90782e+06 -3.68606e+06 -1.91565e+06 -892191 2126.02 -1.15437e+06
51 1 Mg -1.59284 7.16481 1.4948 1.2 -8.23664 790883 1.39503e+06 4.28438e+06 1.45543e+06 -878622 360479
52 2 Si 0.240329 5.09994 1.4948 2.4 -33.9699 8.14553e+06 1.10868e+07 1.11423e+07 -1.95283e+06 -1.08679e+06 2.06708e+06
53 3 O 0.234538 3.48671 1.4948 -1.2 -5.30145 -1.64427e+06 316316 -3.37129e+07 390397 5.19964e+06 3.89116e+06
54 3 O 6.85564 6.07396 1.4948 -1.2 -9.60965 -4.35463e+06 -1.87543e+06 -1.34753e+06 -1.33875e+06 -1.87993e+06 1.11796e+06
55 3 O -0.429565 5.80612 0.196716 -1.2 -4.03397 -694800 -8.91321e+06 -3.13655e+07 1.85286e+06 1.17337e+06 4.52485e+06
56 3 O -0.473377 5.80612 2.79288 -1.2 -8.98765 -2.02373e+06 -3.54592e+06 -2.08689e+06 -779226 306200 1.25647e+06
57 1 Mg 6.40169 9.49799 0 1.2 -5.30674 1.57214e+06 -6.36296e+06 -6.6421e+06 -5.4789e+06 1.01696e+06 -2.45262e+06
58 1 Mg 3.64209 14.2057 1.4948 1.2 -8.34389 64061.9 1.95699e+06 4.38116e+06 -1.02985e+06 -964558 -334816
59 2 Si 5.45748 11.5215 1.4948 2.4 -34.2356 7.50317e+06 1.17772e+07 1.14953e+07 870009 340222 -2.22182e+06
60 3 O 5.51101 13.1348 1.4948 -1.2 -4.83311 -440518 -974605 -3.47638e+07 484301 -2.5248e+06 -4.29193e+06
61 3 O 1.83851 10.5475 1.4948 -1.2 -9.58322 -4.21865e+06 -1.88523e+06 -1.28256e+06 1.53257e+06 -1.56549e+06 -1.05056e+06
62 3 O 4.7611 10.8154 0.196716 -1.2 -3.60803 558937 -1.15415e+07 -3.19393e+07 -2.46066e+06 -1.74792e+06 -4.2829e+06
63 1 Mg 6.35203 9.49799 2.9896 1.2 -7.9536 4.07853e+06 -1.67707e+06 -90423.5 1.29933e+06 -1.143e+06 1.98459e+06
64 3 O 4.71833 10.8154 2.79288 -1.2 -8.90059 -1.80116e+06 -3.74907e+06 -2.1571e+06 1.06111e+06 19743.9 -1.27952e+06
65 1 Mg -1.0438 9.53931 4.4844 1.2 -8.67281 -921953 2.40107e+06 3.2475e+06 -596621 -335330 -101784
66 2 Si -2.8604 12.2234 4.4844 2.4 -32.7476 1.11617e+07 8.77509e+06 8.68849e+06 -173140 -89101.8 -331121
67 3 O -2.91391 10.6102 4.4844 -1.2 -9.4883 -3.84032e+06 -57342.1 -3.92678e+06 272619 -214882 66207
68 3 O 0.7596 13.1975 4.4844 -1.2 -9.33138 -3.2883e+06 -2.67783e+06 -3.14931e+06 2.06532e+06 -535499 182794
69 3 O -2.12001 12.9296 3.18632 -1.2 -9.13553 -2.81876e+06 -3.48642e+06 -602235 1.17548e+06 -212910 -1.37726e+06
70 3 O -2.16532 12.9296 5.78248 -1.2 -9.06216 -2.87099e+06 -3.66925e+06 -1.57719e+06 1.1233e+06 -60943.1 1.68573e+06
71 1 Mg 1.29891 11.8725 2.9896 1.2 -7.95904 4.1215e+06 -1.55641e+06 -267011 -1.14399e+06 -1.21726e+06 -1.76946e+06
72 1 Mg 4.10033 11.8312 4.4844 1.2 -8.62929 -814511 2.48477e+06 3.07712e+06 1.10398e+06 -290704 65733.1
73 2 Si 2.27333 13.896 4.4844 2.4 -32.7017 1.09205e+07 9.05968e+06 8.54162e+06 830122 151776 -140043
74 3 O 2.28634 15.5093 4.4844 -1.2 -9.57981 -3.67861e+06 -379107 -3.71863e+06 404911 -351399 120626
75 3 O -4.34533 12.922 4.4844 -1.2 -9.36689 -3.32487e+06 -2.58622e+06 -3.11502e+06 -1.36824e+06 -417691 60493.6
76 3 O 2.98455 13.1899 3.18632 -1.2 -9.15526 -2.72963e+06 -3.62243e+06 -693657 -981066 -177965 1.36226e+06
77 1 Mg 1.34779 11.8725 0 1.2 -5.5254 2.83228e+06 -2.74737e+06 -6.78011e+06 3.56532e+06 808318 1.54337e+06
78 3 O 2.93934 13.1899 5.78248 -1.2 -9.01754 -2.65645e+06 -3.80833e+06 -1.98309e+06 -1.01108e+06 -305112 -1.21365e+06
79 1 Mg -1.50344 11.9138 1.4948 1.2 -8.3188 483123 1.75273e+06 4.34986e+06 1.56434e+06 -940228 340348
80 2 Si 0.326006 9.84894 1.4948 2.4 -34.225 7.62781e+06 1.17355e+07 1.13677e+07 -597142 99167.8 2.19811e+06
81 3 O 0.317364 8.23571 1.4948 -1.2 -4.76698 -461031 -827804 -3.53053e+07 -123646 1.18827e+06 4.1888e+06
82 3 O 6.94307 10.823 1.4948 -1.2 -9.62078 -4.33842e+06 -1.70561e+06 -1.24172e+06 -977188 -1.54251e+06 1.09025e+06
83 3 O -0.343122 10.5551 0.196716 -1.2 -3.70744 233684 -1.098e+07 -3.19809e+07 2.45497e+06 -2.06344e+06 4.55539e+06
84 3 O -0.385966 10.5551 2.79288 -1.2 -8.92785 -1.84588e+06 -3.78121e+06 -2.18033e+06 -866088 101782 1.192e+06
85 1 Mg 6.49448 14.247 0 1.2 -5.46177 3.23356e+06 -1.8281e+06 -7.01776e+06 -2.98557e+06 242803 -1.52259e+06
86 1 Mg 3.74457 18.9547 1.4948 1.2 -8.36327 -254171 2.33023e+06 4.28e+06 -1.10545e+06 -954859 -100798
87 2 Si 5.55495 16.2705 1.4948 2.4 -34.0795 7.50163e+06 1.19919e+07 1.10506e+07 516691 749715 -2.25075e+06
88 3 O 5.6115 17.8838 1.4948 -1.2 -5.21612 -1.32381e+06 -1.14888e+06 -3.1861e+07 71019.1 -6.03849e+06 -4.23807e+06
89 3 O 1.93416 15.2965 1.4948 -1.2 -9.67968 -4.17486e+06 -1.77448e+06 -1.03256e+06 1.51857e+06 -1.40214e+06 -1.01075e+06
90 3 O 4.85636 15.5644 0.196716 -1.2 -3.68858 680041 -1.34328e+07 -3.02072e+07 -3.02592e+06 -5.12991e+06 -3.7441e+06
91 1 Mg 6.44662 14.247 2.9896 1.2 -7.88568 4.08324e+06 -1.48663e+06 -395291 1.25378e+06 -1.24509e+06 1.91842e+06
92 3 O 4.81537 15.5644 2.79288 -1.2 -8.95082 -1.61328e+06 -4.02748e+06 -2.01427e+06 1.07142e+06 17689.5 -1.24486e+06
93 1 Mg -0.948271 14.2883 4.4844 1.2 -8.57526 -992391 2.60331e+06 2.95348e+06 -552686 -271367 -223800
94 2 Si -2.75928 16.9724 4.4844 2.4 -32.4711 1.09667e+07 9.58811e+06 7.63415e+06 -93632.4 -381703 -131020
95 3 O -2.81617 15.3592 4.4844 -1.2 -9.61418 -3.80671e+06 -362579 -3.43407e+06 343591 -65235.3 125406
96 3 O 0.862762 17.9465 4.4844 -1.2 -9.47443 -3.14139e+06 -3.07612e+06 -2.67814e+06 2.22643e+06 -623667 44253.6
97 3 O -2.0185 17.6786 3.18632 -1.2 -9.22374 -2.7052e+06 -3.85706e+06 -220417 1.17649e+06 -91525.3 -1.55575e+06
98 3 O -2.06164 17.6786 5.78248 -1.2 -9.29772 -2.74866e+06 -4.10553e+06 -924290 1.11324e+06 21778.5 1.48621e+06
99 1 Mg 1.39817 16.6215 2.9896 1.2 -7.85896 4.08186e+06 -1.26503e+06 -681196 -1.15799e+06 -1.14218e+06 -1.70093e+06
100 1 Mg 4.20062 16.5802 4.4844 1.2 -8.55802 -1.17657e+06 2.82402e+06 2.98922e+06 1.18588e+06 -318034 -14951
101 2 Si 2.37796 18.645 4.4844 2.4 -32.4529 1.06278e+07 9.81862e+06 7.67019e+06 654143 242890 10141.4
102 3 O 2.39434 20.2583 4.4844 -1.2 -9.6743 -3.69153e+06 -709222 -3.23754e+06 534236 -281093 -130773
103 3 O -4.24274 17.671 4.4844 -1.2 -9.47197 -3.09217e+06 -3.00575e+06 -2.75029e+06 -1.44929e+06 -262514 -51283.3
104 3 O 3.08659 17.9389 3.18632 -1.2 -9.2322 -2.55336e+06 -3.96566e+06 -443331 -955084 -140172 1.27359e+06
105 1 Mg 1.44478 16.6215 0 1.2 -5.56915 4.36939e+06 442699 -6.99462e+06 1.41402e+06 -67668.7 941271
106 3 O 3.0436 17.9389 5.78248 -1.2 -9.18423 -2.28389e+06 -4.23005e+06 -1.55986e+06 -931360 -415758 -997744
107 1 Mg -1.40524 16.6628 1.4948 1.2 -8.31648 221672 2.16897e+06 4.14374e+06 1.68003e+06 -978524 395407
108 2 Si 0.420358 14.5979 1.4948 2.4 -34.1212 7.57422e+06 1.19492e+07 1.10255e+07 -106425 599240 2.39443e+06
109 3 O 0.408732 12.9847 1.4948 -1.2 -4.82218 -502131 -938526 -3.48896e+07 209489 -2.57256e+06 4.32071e+06
110 3 O 7.03923 15.572 1.4948 -1.2 -9.72503 -4.30915e+06 -1.65187e+06 -915801 -929436 -1.28081e+06 1.02845e+06
111 3 O -0.248332 15.3041 0.196716 -1.2 -3.79287 292166 -1.29344e+07 -3.02031e+07 3.24599e+06 -5.41125e+06 3.97971e+06
112 3 O -0.289436 15.3041 2.79288 -1.2 -8.99773 -1.73937e+06 -4.09656e+06 -1.90041e+06 -859547 15169.2 1.16748e+06
113 1 Mg 6.59566 18.996 0 1.2 -5.53082 4.52272e+06 935857 -6.91699e+06 -912250 -648535 -739379
114 1 Mg 3.85574 23.7037 1.4948 1.2 -8.46611 -458337 2.49006e+06 4.34929e+06 -1.19427e+06 -895630 292228
115 2 Si 5.66125 21.0195 1.4948 2.4 -33.9533 7.83548e+06 1.18259e+07 1.07426e+07 221250 1.23502e+06 -1.65328e+06
116 3 O 5.72074 22.6328 1.4948 -1.2 -5.8124 -3.00602e+06 -1.0616e+06 -2.69697e+07 -228633 -8.52281e+06 -4.13033e+06
117 3 O 2.03867 20.0455 1.4948 -1.2 -9.75483 -4.13631e+06 -1.69893e+06 -823930 1.57989e+06 -1.16409e+06 -1.2298e+06
118 3 O 4.96004 20.3134 0.196716 -1.2 -4.0492 40572.7 -1.49454e+07 -2.62903e+07 -3.19808e+06 -7.95439e+06 -3.02402e+06
119 1 Mg 6.55057 18.996 2.9896 1.2 -7.80712 4.027e+06 -1.17858e+06 -772366 1.32448e+06 -1.27829e+06 2.15771e+06
120 3 O 4.92172 20.3134 2.79288 -1.2 -8.9825 -1.52887e+06 -4.29871e+06 -1.81277e+06 1.04485e+06 -95996.2 -1.5192e+06
121 1 Mg -0.84282 19.0373 4.4844 1.2 -8.46372 -1.16005e+06 3.01002e+06 2.52782e+06 -579833 -262379 136873
122 2 Si -2.64823 21.7214 4.4844 2.4 -32.5716 1.07454e+07 9.9332e+06 7.67736e+06 57882.1 -302161 1.03349e+06
123 3 O -2.70847 20.1082 4.4844 -1.2 -9.66163 -3.65871e+06 -737428 -3.1152e+06 286496 -21152.6 -324036
124 3 O 0.97581 22.6955 4.4844 -1.2 -9.43958 -3.26804e+06 -3.14718e+06 -2.54374e+06 2.23756e+06 -395894 -436963
125 3 O -1.9076 22.4276 3.18632 -1.2 -9.17378 -2.64289e+06 -3.89282e+06 -365118 1.1629e+06 7599.62 -1.98466e+06
126 3 O -1.9475 22.4276 5.78248 -1.2 -9.07989 -2.60628e+06 -4.15248e+06 -1.43131e+06 1.23314e+06 114854 650002
127 1 Mg 1.50678 21.3705 2.9896 1.2 -7.82113 4.18685e+06 -1.10871e+06 -1.00312e+06 -1.19016e+06 -1.23672e+06 -1.28656e+06
128 1 Mg 4.31086 21.3292 4.4844 1.2 -8.52051 -1.12498e+06 3.10147e+06 2.6019e+06 1.23631e+06 -138878 335820
129 2 Si 2.49243 23.394 4.4844 2.4 -32.5342 1.10947e+07 9.862e+06 7.29117e+06 676436 42526.5 1.10086e+06
130 3 O 2.51204 25.0073 4.4844 -1.2 -9.54838 -3.89499e+06 -523993 -3.41974e+06 550990 -185594 -664415
131 3 O -4.13026 22.42 4.4844 -1.2 -9.41418 -3.12824e+06 -3.08976e+06 -2.72717e+06 -1.46825e+06 -480148 -556867
132 3 O 3.19799 22.6879 3.18632 -1.2 -9.21372 -2.65427e+06 -4.05366e+06 -342351 -911721 -55223.3 841711
133 1 Mg 1.5501 21.3705 0 1.2 -5.60334 5.23026e+06 2.0266e+06 -6.6065e+06 -82867.3 -997364 802543
134 3 O 3.1583 22.6879 5.78248 -1.2 -9.22641 -2.65684e+06 -4.38894e+06 -1.02006e+06 -849515 -376836 -1.64744e+06
135 1 Mg -1.29822 21.4118 1.4948 1.2 -8.38202 -65431.2 2.42573e+06 4.17466e+06 1.79918e+06 -966592 664049
136 2 Si 0.523568 19.3469 1.4948 2.4 -33.9555 7.76938e+06 1.20504e+07 1.04919e+07 274570 996188 2.98763e+06
137 3 O 0.508934 17.7337 1.4948 -1.2 -5.21542 -1.43337e+06 -1.12578e+06 -3.19105e+07 674437 -6.09513e+06 3.98782e+06
138 3 O 7.14425 20.321 1.4948 -1.2 -9.79011 -4.24355e+06 -1.56268e+06 -774977 -946977 -1.05717e+06 717208
139 3 O -0.145107 20.0531 0.196716 -1.2 -4.16692 -422356 -1.4608e+07 -2.61798e+07 3.69447e+06 -8.1841e+06 2.81899e+06
140 3 O -0.183601 20.0531 2.79288 -1.2 -9.04241 -1.65694e+06 -4.3834e+06 -1.67396e+06 -807974 -1231.99 787243
141 1 Mg 6.70502 23.745 0 1.2 -5.6334 5.02571e+06 2.21333e+06 -6.14934e+06 426378 -1.48875e+06 -105179
142 1 Mg 3.97493 28.4527 1.4948 1.2 -8.64907 -641127 2.43035e+06 4.65227e+06 -1.22506e+06 -795174 357043
143 2 Si 5.77602 25.7685 1.4948 2.4 -33.9305 8.68373e+06 1.10089e+07 1.07623e+07 -135014 1.52127e+06 -1.29225e+06
144 3 O 5.83821 27.3818 1.4948 -1.2 -6.53312 -4.89193e+06 -736780 -2.10191e+07 -329556 -9.26867e+06 -3.55948e+06
145 3 O 2.15175 24.7945 1.4948 -1.2 -9.72843 -4.1878e+06 -1.42089e+06 -958789 1.61961e+06 -934002 -1.46055e+06
146 3 O 5.07184 25.0624 0.196716 -1.2 -4.65781 -1.28218e+06 -1.55751e+07 -2.07417e+07 -2.78838e+06 -9.41716e+06 -1.95573e+06
147 1 Mg 6.66374 23.745 2.9896 1.2 -7.85355 4.16138e+06 -1.28392e+06 -724165 1.31576e+06 -1.24463e+06 2.46442e+06
148 3 O 5.03707 25.0624 2.79288 -1.2 -8.90788 -1.70161e+06 -4.16243e+06 -1.9375e+06 1.12593e+06 -175661 -1.75792e+06
149 1 Mg -0.727559 23.7863 4.4844 1.2 -8.58595 -1.0953e+06 2.86656e+06 2.79317e+06 -459502 -402723 515991
150 2 Si -2.5277 26.4704 4.4844 2.4 -32.7772 1.1266e+07 9.38535e+06 8.03289e+06 67314.5 -259169 875291
151 3 O -2.59107 24.8572 4.4844 -1.2 -9.51321 -3.75536e+06 -456808 -3.5406e+06 331423 -34224.8 -462673
152 3 O 1.09817 27.4445 4.4844 -1.2 -9.25446 -3.41797e+06 -2.8033e+06 -3.03914e+06 2.19922e+06 -518099 -508900
153 3 O -1.78784 27.1766 3.18632 -1.2 -9.06443 -2.82084e+06 -3.69235e+06 -623499 1.14648e+06 32420.2 -2.00015e+06
154 3 O -1.82343 27.1766 5.78248 -1.2 -9.0493 -2.95738e+06 -3.87948e+06 -1.30277e+06 1.06522e+06 -69006.6 1.02056e+06
155 1 Mg 1.62435 26.1195 2.9896 1.2 -7.91513 4.38772e+06 -1.33922e+06 -819827 -1.13638e+06 -1.28025e+06 -1.03037e+06
156 1 Mg 4.43064 26.0782 4.4844 1.2 -8.65584 -852566 2.77273e+06 2.87514e+06 1.0934e+06 -222820 643337
157 2 Si 2.61607 28.143 4.4844 2.4 -32.9287 1.12605e+07 9.16516e+06 8.45908e+06 771836 -50333.8 1.03667e+06
158 3 O 2.63853 29.7563 4.4844 -1.2 -9.37249 -4.02132e+06 -268904 -3.84054e+06 525093 -159942 -512888
159 3 O -4.00841 27.169 4.4844 -1.2 -9.327 -3.44904e+06 -2.82379e+06 -2.82063e+06 -1.30404e+06 -322244 -554327
160 3 O 3.3182 27.4369 3.18632 -1.2 -9.07403 -2.75761e+06 -3.79355e+06 -798550 -889433 95485.3 736054
161 1 Mg 1.66335 26.1195 0 1.2 -5.71818 5.14094e+06 2.56764e+06 -5.65503e+06 -899685 -1.56751e+06 732251
162 3 O 3.28288 27.4369 5.78248 -1.2 -8.8971 -2.78433e+06 -3.85073e+06 -2.10754e+06 -884988 -61626.5 -1.70628e+06
163 1 Mg -1.18278 26.1608 1.4948 1.2 -8.53273 -281010 2.46447e+06 4.40075e+06 1.89757e+06 -838572 692251
164 2 Si 0.635424 24.0959 1.4948 2.4 -33.9154 8.394e+06 1.14493e+07 1.04716e+07 748282 1.34704e+06 3.58614e+06
165 3 O 0.617906 22.4827 1.4948 -1.2 -5.81871 -3.13063e+06 -1.0448e+06 -2.69869e+07 1.02382e+06 -8.52258e+06 3.19851e+06
166 3 O 7.25781 25.07 1.4948 -1.2 -9.75823 -4.2806e+06 -1.27151e+06 -960849 -938213 -825401 525707
167 3 O -0.0337363 24.8021 0.196716 -1.2 -4.75918 -1.673e+06 -1.55191e+07 -2.06566e+07 3.50737e+06 -9.64635e+06 1.34481e+06
168 3 O -0.0687235 24.8021 2.79288 -1.2 -8.96521 -1.76802e+06 -4.26969e+06 -1.85354e+06 -864760 -41432.4 481103
169 1 Mg 6.82195 28.494 0 1.2 -5.83727 4.69684e+06 2.4488e+06 -4.84977e+06 1.14117e+06 -1.84046e+06 -76582.5
170 1 Mg 4.10106 33.2017 1.4948 1.2 -8.87168 -780899 2.22971e+06 5.00889e+06 -1.2025e+06 -548522 406269
171 2 Si 5.89839 30.5175 1.4948 2.4 -34.0034 9.82484e+06 9.64124e+06 1.11887e+07 -340008 1.6375e+06 -1.13978e+06
172 3 O 5.96289 32.1308 1.4948 -1.2 -7.24126 -6.25486e+06 -218611 -1.53846e+07 -283541 -8.43577e+06 -2.94636e+06
173 3 O 2.27266 29.5435 1.4948 -1.2 -9.61021 -4.28905e+06 -993856 -1.42641e+06 1.64839e+06 -720852 -1.39033e+06
174 3 O 5.19102 29.8114 0.196716 -1.2 -5.39051 -2.80565e+06 -1.47757e+07 -1.5042e+07 -1.92887e+06 -9.25705e+06 -557842
175 1 Mg 6.78546 28.494 2.9896 1.2 -7.93665 4.4703e+06 -1.521e+06 -657428 1.30615e+06 -1.34756e+06 2.48012e+06
176 3 O 5.16061 29.8114 2.79288 -1.2 -8.78375 -1.95163e+06 -3.87497e+06 -2.21482e+06 1.10455e+06 -186423 -1.75232e+06
177 1 Mg -0.603205 28.5353 4.4844 1.2 -8.70653 -879280 2.6373e+06 2.99239e+06 -485402 -150791 515602
178 2 Si -2.39877 31.2194 4.4844 2.4 -33.1141 1.18047e+07 8.6303e+06 8.79328e+06 21207.2 -354211 1.21702e+06
179 3 O -2.46483 29.6062 4.4844 -1.2 -9.4232 -4.06895e+06 -224154 -3.59913e+06 410048 2148.24 -626720
180 3 O 1.22864 32.1935 4.4844 -1.2 -9.07963 -3.81629e+06 -2.53701e+06 -3.197e+06 2.24532e+06 -463403 -481962
181 3 O -1.66032 31.9256 3.18632 -1.2 -8.88283 -3.05167e+06 -3.32312e+06 -1.13108e+06 1.17574e+06 129805 -2.03151e+06
182 3 O -1.69072 31.9256 5.78248 -1.2 -8.78014 -3.18684e+06 -3.40882e+06 -1.90275e+06 1.21251e+06 236257 781142
183 1 Mg 1.7499 30.8685 2.9896 1.2 -8.05277 4.66896e+06 -1.63491e+06 -578281 -1.12488e+06 -1.33834e+06 -1.05203e+06
184 1 Mg 4.55894 30.8272 4.4844 1.2 -8.81506 -657242 2.50802e+06 3.19927e+06 1.24788e+06 -186994 615335
185 2 Si 2.7476 32.892 4.4844 2.4 -33.3313 1.19262e+07 8.58519e+06 9.01592e+06 861077 123785 1.09629e+06
186 3 O 2.77235 34.5053 4.4844 -1.2 -9.12188 -4.38855e+06 160799 -4.29931e+06 550129 -242180 -459417
187 3 O -3.87837 31.918 4.4844 -1.2 -9.1339 -3.76048e+06 -2.42077e+06 -3.22414e+06 -1.32573e+06 -312776 -620810
188 3 O 3.44611 32.1859 3.18632 -1.2 -8.89009 -2.95636e+06 -3.49627e+06 -1.28637e+06 -897300 138438 727963
189 1 Mg 1.7837 30.8685 0 1.2 -5.96056 4.37409e+06 2.28204e+06 -4.27495e+06 -1.33351e+06 -1.54524e+06 780801
190 3 O 3.41602 32.1859 5.78248 -1.2 -8.74017 -2.97326e+06 -3.78507e+06 -1.95559e+06 -983496 -269983 -1.73389e+06
191 1 Mg -1.05984 30.9098 1.4948 1.2 -8.73931 -400623 2.29034e+06 4.72369e+06 1.90063e+06 -618470 620818
192 2 Si 0.755243 28.8449 1.4948 2.4 -33.9746 9.39211e+06 1.02728e+07 1.08296e+07 1.14907e+06 1.6503e+06 3.43986e+06
193 3 O 0.735127 27.2317 1.4948 -1.2 -6.53499 -4.99021e+06 -711291 -2.10804e+07 1.16575e+06 -9.34134e+06 2.54186e+06
194 3 O 7.37914 29.819 1.4948 -1.2 -9.64521 -4.4238e+06 -849738 -1.38795e+06 -923273 -607876 527243
195 3 O 0.0850649 29.5511 0.196716 -1.2 -5.47232 -3.11691e+06 -1.51286e+07 -1.48927e+07 2.69437e+06 -9.46519e+06 53292.8
196 3 O 0.0543974 29.5511 2.79288 -1.2 -8.84196 -2.01648e+06 -4.00261e+06 -2.12152e+06 -831507 -161954 455991
197 1 Mg 6.94543 33.243 0 1.2 -6.10896 3.8223e+06 2.11648e+06 -3.53409e+06 1.57746e+06 -1.41559e+06 -273512
198 1 Mg 4.23267 37.9507 1.4948 1.2 -9.03353 -888543 2.1888e+06 5.00224e+06 -1.13089e+06 -234479 94403
199 2 Si 6.02709 35.2665 1.4948 2.4 -34.0909 1.09913e+07 8.2674e+06 1.15861e+07 -411494 1.54995e+06 -1.23006e+06
200 3 O 6.09339 36.8798 1.4948 -1.2 -7.8804 -6.7316e+06 118618 -1.07141e+07 -150258 -6.58246e+06 -2.14242e+06
201 3 O 2.40018 34.2925 1.4948 -1.2 -9.44397 -4.43528e+06 -603675 -1.98833e+06 1.69166e+06 -532656 -1.3092e+06
202 3 O 5.31645 34.5604 0.196716 -1.2 -6.18641 -4.00149e+06 -1.28428e+07 -1.00669e+07 -951431 -7.82546e+06 611678
203 1 Mg 6.91449 33.243 2.9896 1.2 -8.1079 4.79724e+06 -1.94644e+06 -276277 1.29235e+06 -1.43625e+06 2.4245e+06
204 3 O 5.291 34.5604 2.79288 -1.2 -8.60806 -2.29449e+06 -3.4529e+06 -2.60859e+06 1.13323e+06 -234006 -1.61235e+06
205 1 Mg -0.471101 33.2843 4.4844 1.2 -8.92784 -479630 2.18716e+06 3.39172e+06 -441672 -238604 465314
206 2 Si -2.26307 35.9684 4.4844 2.4 -33.5418 1.25864e+07 7.92014e+06 9.4071e+06 137391 -494880 470576
207 3 O -2.33122 34.3552 4.4844 -1.2 -9.17292 -4.42853e+06 234873 -4.0957e+06 442401 86997 -385593
208 3 O 1.36549 36.9425 4.4844 -1.2 -8.87503 -4.14544e+06 -2.23163e+06 -3.50421e+06 2.32458e+06 -500888 -142026
209 3 O -1.52658 36.6746 3.18632 -1.2 -8.70512 -3.28269e+06 -3.06625e+06 -1.53794e+06 1.13068e+06 177726 -1.69211e+06
210 3 O -1.55122 36.6746 5.78248 -1.2 -8.58402 -3.6493e+06 -3.14569e+06 -1.86466e+06 1.08102e+06 278225 1.21723e+06
211 1 Mg 1.882 35.6175 2.9896 1.2 -8.22425 4.99261e+06 -1.99204e+06 -259914 -1.11857e+06 -1.38885e+06 -1.23242e+06
212 1 Mg 4.69415 35.5762 4.4844 1.2 -9.0884 -344919 2.03921e+06 3.79823e+06 1.20561e+06 -183271 339732
213 2 Si 2.88522 37.641 4.4844 2.4 -33.7207 1.23398e+07 8.04513e+06 9.77125e+06 614366 110863 80128.6
214 3 O 2.91159 39.2543 4.4844 -1.2 -9.02311 -4.51849e+06 201110 -4.3793e+06 674967 -73926.6 87383.6
215 3 O -3.74183 36.667 4.4844 -1.2 -8.93047 -4.14785e+06 -2.06183e+06 -3.52153e+06 -1.35441e+06 -153180 -173564
216 3 O 3.58014 36.9349 3.18632 -1.2 -8.70301 -3.13402e+06 -3.213e+06 -1.79395e+06 -835980 190615 1.07996e+06
217 1 Mg 1.90997 35.6175 0 1.2 -6.19917 3.30741e+06 1.9305e+06 -3.45306e+06 -1.66613e+06 -795421 1.10903e+06
218 3 O 3.55582 36.9349 5.78248 -1.2 -8.38213 -3.27168e+06 -3.36458e+06 -2.7382e+06 -765172 -217967 -1.22446e+06
219 1 Mg -0.93068 35.6588 1.4948 1.2 -8.93384 -490167 2.15196e+06 4.87121e+06 1.86132e+06 -313921 374322
220 2 Si 0.881882 33.5939 1.4948 2.4 -34.0766 1.06342e+07 8.82406e+06 1.12708e+07 1.41957e+06 1.66689e+06 3.13858e+06
221 3 O 0.859602 31.9807 1.4948 -1.2 -7.2484 -6.38114e+06 -212577 -1.53961e+07 1.15349e+06 -8.4912e+06 1.95172e+06
222 3 O 7.507 34.568 1.4948 -1.2 -9.48146 -4.5803e+06 -471766 -1.93851e+06 -932002 -409777 658172
223 3 O 0.210186 34.3001 0.196716 -1.2 -6.24301 -4.25223e+06 -1.35582e+07 -9.85857e+06 1.53186e+06 -7.95164e+06 -1.06815e+06
224 3 O 0.184454 34.3001 2.79288 -1.2 -8.68002 -2.41294e+06 -3.60576e+06 -2.42801e+06 -853292 -199233 533660
225 1 Mg 7.07415 37.992 0 1.2 -6.33283 2.83157e+06 1.80457e+06 -3.02201e+06 1.89541e+06 -399989 -1.14776e+06
226 1 Mg 4.36817 42.6997 1.4948 1.2 -9.10913 -906021 2.23707e+06 4.71069e+06 -1.00128e+06 123307 -33193.6
227 2 Si 6.16058 40.0155 1.4948 2.4 -34.0719 1.19404e+07 7.39277e+06 1.14887e+07 -333876 1.29715e+06 -1.65105e+06
228 3 O 6.22815 41.6288 1.4948 -1.2 -8.40324 -6.43443e+06 241590 -7.3879e+06 17815.6 -4.51449e+06 -1.54419e+06
229 3 O 2.53282 39.0415 1.4948 -1.2 -9.30302 -4.49785e+06 -524482 -2.39133e+06 1.74087e+06 -355610 -943686
230 3 O 5.44674 39.3094 0.196716 -1.2 -6.95637 -4.66906e+06 -1.02728e+07 -6.29547e+06 -153996 -5.76177e+06 1.77722e+06
231 1 Mg 7.04922 37.992 2.9896 1.2 -8.22726 5.05736e+06 -2.12029e+06 -160396 1.33791e+06 -1.53216e+06 2.00811e+06
232 3 O 5.42658 39.3094 2.79288 -1.2 -8.53269 -2.61166e+06 -3.3335e+06 -2.56336e+06 1.11093e+06 -263952 -1.1809e+06
233 1 Mg -0.333062 38.0333 4.4844 1.2 -9.08034 -266973 2.04773e+06 3.55785e+06 -428769 -125592 138852
234 2 Si -2.12255 40.7174 4.4844 2.4 -33.6816 1.26012e+07 8.06274e+06 9.48049e+06 174766 -142046 -95239.3
235 3 O -2.19212 39.1042 4.4844 -1.2 -9.06948 -4.57842e+06 266395 -4.13659e+06 354173 2328.24 -9739.34
236 3 O 1.50676 41.6915 4.4844 -1.2 -8.84629 -4.11504e+06 -2.36305e+06 -3.45792e+06 2.33659e+06 -233717 141875
237 3 O -1.3884 41.4236 3.18632 -1.2 -8.61527 -3.24775e+06 -3.09983e+06 -1.78588e+06 1.13932e+06 139680 -1.42128e+06
238 3 O -1.40713 41.4236 5.78248 -1.2 -8.50046 -3.47795e+06 -3.28759e+06 -1.9929e+06 1.17806e+06 31312.9 1.541e+06
239 1 Mg 2.01892 40.3665 2.9896 1.2 -8.29957 5.10258e+06 -2.00186e+06 -226247 -1.13075e+06 -1.56635e+06 -1.58121e+06
240 1 Mg 4.83434 40.3252 4.4844 1.2 -9.09679 -107891 2.15204e+06 3.45953e+06 1.28087e+06 -141127 -109589
241 2 Si 3.02698 42.39 4.4844 2.4 -33.677 1.25094e+07 8.38622e+06 9.18612e+06 766586 -183975 -170687
242 3 O 3.05433 44.0033 4.4844 -1.2 -9.03078 -4.56863e+06 124149 -4.2363e+06 605508 -2501.73 -28941.7
243 3 O -3.60077 41.416 4.4844 -1.2 -8.91301 -4.26498e+06 -2.19417e+06 -3.30381e+06 -1.35028e+06 -259896 37002.8
244 3 O 3.71851 41.6839 3.18632 -1.2 -8.65103 -3.22459e+06 -3.29456e+06 -1.82011e+06 -840499 246655 1.29192e+06
245 1 Mg 2.04077 40.3665 0 1.2 -6.39705 2.46604e+06 1.56824e+06 -3.35361e+06 -1.8625e+06 432115 1.54593e+06
246 3 O 3.70011 41.6839 5.78248 -1.2 -8.54788 -3.4479e+06 -3.61689e+06 -1.84585e+06 -914599 -5878.37 -994022
247 1 Mg -0.796865 40.4078 1.4948 1.2 -9.05487 -612767 2.17126e+06 4.77677e+06 1.75459e+06 44364 34976.2
248 2 Si 1.01387 38.3429 1.4948 2.4 -34.1066 1.1604e+07 7.78096e+06 1.14274e+07 1.4995e+06 1.50157e+06 2.1693e+06
249 3 O 0.989947 36.7297 1.4948 -1.2 -7.88571 -6.855e+06 122715 -1.07379e+07 1.0454e+06 -6.65911e+06 1.71757e+06
250 3 O 7.63988 39.317 1.4948 -1.2 -9.34435 -4.6426e+06 -419744 -2.32144e+06 -953223 -251799 1.03518e+06
251 3 O 0.340253 39.0491 0.196716 -1.2 -6.97739 -4.78285e+06 -1.11894e+07 -6.18624e+06 391945 -5.86858e+06 -1.55967e+06
252 3 O 0.319795 39.0491 2.79288 -1.2 -8.58289 -2.64557e+06 -3.45864e+06 -2.53735e+06 -835500 -229363 864335
253 1 Mg 7.20667 42.741 0 1.2 -6.49592 2.18856e+06 1.48283e+06 -3.2597e+06 2.01291e+06 895974 -2.14882e+06
254 1 Mg 4.50613 47.4487 1.4948 1.2 -9.10423 -858912 2.2859e+06 4.40373e+06 -851543 431675 -61710.3
255 2 Si 6.29731 44.7645 1.4948 2.4 -34.0121 1.25298e+07 6.70842e+06 1.14649e+07 -224775 897486 -1.52117e+06
256 3 O 6.36567 46.3778 1.4948 -1.2 -8.77683 -5.71164e+06 306704 -5.47614e+06 176678 -2.69402e+06 -1.27284e+06
257 3 O 2.669 43.7905 1.4948 -1.2 -9.18849 -4.49123e+06 -634998 -2.74088e+06 1.73115e+06 -215150 -872493
258 3 O 5.58048 44.0584 0.196716 -1.2 -7.59409 -4.77888e+06 -7.53103e+06 -3.94175e+06 315753 -3.71025e+06 2.4139e+06
259 1 Mg 7.1879 42.741 2.9896 1.2 -8.27564 5.12468e+06 -2.08112e+06 -176052 1.29545e+06 -1.57396e+06 1.86661e+06
260 3 O 5.56564 44.0584 2.79288 -1.2 -8.51501 -2.84319e+06 -3.26083e+06 -2.45708e+06 1.13607e+06 -286720 -1.14833e+06
261 1 Mg -0.19105 42.7823 4.4844 1.2 -9.12422 -384686 2.17769e+06 3.61444e+06 -426040 -106144 -53365.6
262 2 Si -1.97909 45.4664 4.4844 2.4 -33.7639 1.26045e+07 8.08398e+06 9.59596e+06 139420 -97356.3 -15001
263 3 O -2.04947 43.8532 4.4844 -1.2 -9.02986 -4.54164e+06 158612 -4.12225e+06 433616 -26235.5 45067.3
264 3 O 1.65063 46.4405 4.4844 -1.2 -8.81491 -4.15875e+06 -2.21851e+06 -3.6025e+06 2.32141e+06 -204224 36476.7
265 3 O -1.24745 46.1726 3.18632 -1.2 -8.56621 -3.21499e+06 -3.07191e+06 -2.02706e+06 1.13362e+06 103656 -1.39578e+06
266 3 O -1.26044 46.1726 5.78248 -1.2 -8.43772 -3.48328e+06 -3.26695e+06 -2.14666e+06 1.17093e+06 45361.4 1.40109e+06
267 1 Mg 2.15896 45.1155 2.9896 1.2 -8.3347 5.13578e+06 -2.02033e+06 -168910 -1.07832e+06 -1.6789e+06 -1.55592e+06
268 1 Mg 4.97763 45.0742 4.4844 1.2 -9.1195 2491.22 2.07022e+06 3.46796e+06 1.22547e+06 -105658 34652.7
269 2 Si 3.1711 47.139 4.4844 2.4 -33.7543 1.25147e+07 7.94029e+06 9.7573e+06 732511 -197659 -157397