ITEM: TIMESTEP
49600
ITEM: NUMBER OF ATOMS
10500
ITEM: BOX BOUNDS xy xz yz pp pp pp
0.0000000000000000e+00 1.5297749999999999e+01 5.0992499999999996e+00
0.0000000000000000e+00 1.1872499999999999e+02 0.0000000000000000e+00
0.0000000000000000e+00 8.9688000000000002e+01 0.0000000000000000e+00
ITEM: ATOMS id type element xu yu zu q c_pe c_s[1] c_s[2] c_s[3] c_s[4] c_s[5] c_s[6]
1 1 Mg 6.2404 -6.37941e-06 0 1.2 -4.68667 8.32143e+06 -2.1328e+06 -5.94152e+06 -10257 2.61677e+06 -291616
2 1 Mg 3.46349 4.70768 1.4948 1.2 -8.9523 434844 2.13396e+06 4.87047e+06 -930758 -591078 148987
3 2 Si 5.2885 2.02354 1.4948 2.4 -35.9346 1.10789e+07 1.03029e+07 1.19842e+07 8.86312e+06 750728 -3.18913e+06
4 3 O 5.33628 3.63678 1.4948 -1.2 -4.30522 -1.4747e+06 -991098 -3.4135e+07 -328212 3.7845e+06 -3.89044e+06
5 3 O 1.67294 1.04952 1.4948 -1.2 -0.752725 -2.08234e+07 -7.91043e+07 -2.36119e+06 -2.41276e+07 -119848 7854.36
6 3 O 4.59532 1.31737 0.196716 -1.2 -2.71896 -2.46411e+06 -6.35175e+06 -3.08067e+07 -6.03212e+06 6.22213e+06 -2.56607e+06
7 1 Mg 6.18956 -6.37941e-06 2.9896 1.2 -5.21019 1.95934e+06 -2.84289e+07 -2.71812e+06 -8.83542e+06 2.49185e+06 3.91874e+06
8 3 O 4.55118 1.31737 2.79288 -1.2 -7.19559 -360470 -4.45004e+06 -3.40215e+06 -2.97545e+06 -3.46739e+06 -1.04249e+06
9 1 Mg -1.20682 0.0413099 4.4844 1.2 8.64223 -3.0384e+07 -9.35382e+07 -27882.9 -2.85677e+07 -1.33796e+06 -1474.26
10 2 Si -3.0337 2.72544 4.4844 2.4 -33.8654 1.52347e+07 6.40802e+06 8.98774e+06 1.56638e+06 109369 -526138
11 3 O -3.08099 1.11221 4.4844 -1.2 -9.29363 -6.51613e+06 234938 -2.53607e+06 -1.20591e+06 -229217 335648
12 3 O 0.582463 3.69946 4.4844 -1.2 -8.59749 -3.91935e+06 -5.02322e+06 -3.24421e+06 -606293 -58061.5 -271453
13 3 O -2.29524 3.43162 3.18632 -1.2 -8.65975 -4.79657e+06 -2.10817e+06 -1.05774e+06 1.10032e+06 -798070 -995620
14 3 O -2.34216 3.43162 5.78248 -1.2 -8.451 -4.38143e+06 -2.85092e+06 -2.10419e+06 814959 638453 1.17436e+06
15 1 Mg 1.12778 2.37449 2.9896 1.2 -7.93945 5.76953e+06 -1.97016e+06 -398420 -3.27495e+06 -4.23432e+06 -2.24881e+06
16 1 Mg 3.92855 2.33318 4.4844 1.2 -8.77447 -3.58793e+06 4.6909e+06 4.98136e+06 1.39197e+06 432173 554713
17 2 Si 2.09341 4.39804 4.4844 2.4 -33.1957 1.35427e+07 5.66098e+06 9.91168e+06 235199 -261850 991431
18 3 O 2.09991 6.01128 4.4844 -1.2 -8.99659 -4.90063e+06 744101 -4.58256e+06 520406 -164531 -300356
19 3 O -4.52137 3.42402 4.4844 -1.2 -8.78089 -3.43158e+06 -2.52641e+06 -4.07109e+06 -2.38259e+06 -962699 -71158.8
20 3 O 2.80834 3.69187 3.18632 -1.2 -8.9358 -2.81057e+06 -2.36787e+06 -824973 451662 -518452 -595737
21 1 Mg 1.17857 2.37449 0 1.2 -5.49536 -38186.5 -1.52274e+07 -6.01244e+06 6.52495e+06 1.2079e+06 4.49142e+06
22 3 O 2.76143 3.69187 5.78248 -1.2 -9.01937 -3.52692e+06 -1.94235e+06 -1.54383e+06 532012 -32424.2 -458526
23 1 Mg -1.67381 2.41581 1.4948 1.2 -7.94179 2.11884e+06 -594936 4.46687e+06 1.34948e+06 -616312 968238
24 2 Si 0.16286 0.350945 1.4948 2.4 -25.1086 -7.32919e+06 1.19257e+07 1.193e+07 1.5667e+06 2.78283e+06 962538
25 3 O 0.15972 -1.26229 1.4948 -1.2 -4.53238 -1.10278e+07 -7.78246e+06 -2.92134e+07 -5.58824e+06 -8.51068e+06 -2.51856e+06
26 3 O 6.77654 1.32496 1.4948 -1.2 -10.0402 -6.22324e+06 2.07519e+06 -1.71e+06 -639427 -649981 1.15261e+06
27 3 O -0.508028 1.05712 0.196716 -1.2 -9.22437 -364194 -4.35841e+06 -1.02987e+06 -545625 217872 -4.43747e+06
28 3 O -0.552171 1.05712 2.79288 -1.2 -6.49987 -5.79642e+06 -4.34748e+06 -2.49265e+07 1.43917e+06 -6.72543e+06 -5.42906e+06
29 1 Mg 6.31713 4.74899 0 1.2 -5.43472 1.18159e+06 -1.34929e+07 -5.53367e+06 -7.32188e+06 1.43908e+06 -3.58388e+06
30 1 Mg 3.54847 9.45668 1.4948 1.2 -8.99841 1.33679e+06 806859 5.34812e+06 -954186 -885543 -26978.3
31 2 Si 5.36879 6.77254 1.4948 2.4 -35.4527 9.11178e+06 1.05628e+07 1.30751e+07 1.66302e+06 218391 -1.59906e+06
32 3 O 5.41937 8.38578 1.4948 -1.2 -4.11836 -1.32797e+06 -75833.3 -3.61008e+07 765131 1.07113e+06 -4.48061e+06
33 3 O 1.75158 5.79852 1.4948 -1.2 -8.9721 -4.85856e+06 -1.68813e+06 -2.09103e+06 1.95938e+06 -1.5899e+06 -1.46959e+06
34 3 O 4.67421 6.06637 0.196716 -1.2 -3.20441 -760217 -9.41965e+06 -3.21664e+07 -2.00946e+06 1.25929e+06 -4.53168e+06
35 1 Mg 6.26654 4.74899 2.9896 1.2 -8.49553 4.81411e+06 -2.19936e+06 566822 1.79023e+06 -820038 2.05283e+06
36 3 O 4.63043 6.06637 2.79288 -1.2 -8.32068 -2.44658e+06 -3.29459e+06 -2.88561e+06 930938 -164895 -1.64394e+06
37 1 Mg -1.12976 4.79031 4.4844 1.2 -9.24514 100486 2.222e+06 3.35775e+06 -690920 -493336 58341.3
38 2 Si -2.9517 7.47444 4.4844 2.4 -34.0687 1.29915e+07 7.36667e+06 1.0382e+07 -24767.1 -144744 488016
39 3 O -3.00198 5.86121 4.4844 -1.2 -8.91621 -4.73046e+06 439604 -4.44258e+06 77404.2 -200518 -172865
40 3 O 0.666315 8.44846 4.4844 -1.2 -8.68191 -4.45797e+06 -1.767e+06 -3.94684e+06 2.11626e+06 -415762 -169999
41 3 O -2.21213 8.18062 3.18632 -1.2 -8.47324 -3.8903e+06 -2.54829e+06 -1.5277e+06 1.11999e+06 -237349 -1.68662e+06
42 3 O -2.25864 8.18062 5.78248 -1.2 -8.31533 -3.89462e+06 -2.84327e+06 -2.67486e+06 1.1557e+06 125415 1.12589e+06
43 1 Mg 1.20893 7.12349 2.9896 1.2 -8.55985 5.08902e+06 -2.4071e+06 581954 -1.27793e+06 -1.35099e+06 -1.47879e+06
44 1 Mg 4.00982 7.08218 4.4844 1.2 -9.23678 74055.9 1.78211e+06 3.86207e+06 1.06369e+06 -146686 363861
45 2 Si 2.17861 9.14704 4.4844 2.4 -34.0554 1.34438e+07 7.1427e+06 1.0097e+07 609551 99037.6 633652
46 3 O 2.18828 10.7603 4.4844 -1.2 -8.81284 -5.08502e+06 768610 -4.70545e+06 464834 -261334 -337582
47 3 O -4.43805 8.17302 4.4844 -1.2 -8.6579 -4.22426e+06 -1.80059e+06 -4.14322e+06 -1.5259e+06 -549864 -340102
48 3 O 2.89193 8.44087 3.18632 -1.2 -8.49292 -3.82632e+06 -2.70298e+06 -1.56025e+06 -936593 -293369 1.01296e+06
49 1 Mg 1.25915 7.12349 0 1.2 -5.93744 1.96102e+06 -8.38079e+06 -5.51366e+06 5.90423e+06 1.35039e+06 2.76922e+06
50 3 O 2.84547 8.44087 5.78248 -1.2 -8.41921 -4.03291e+06 -2.96027e+06 -2.31659e+06 -943021 -362478 -1.49467e+06
51 1 Mg -1.59284 7.16481 1.4948 1.2 -8.84105 1.77089e+06 572535 5.09523e+06 1.44975e+06 -951947 519625
52 2 Si 0.240329 5.09994 1.4948 2.4 -35.0505 9.8985e+06 9.70489e+06 1.25024e+07 -1.95152e+06 -1.12858e+06 2.12008e+06
53 3 O 0.234538 3.48671 1.4948 -1.2 -4.81312 -2.44042e+06 866749 -3.42495e+07 394890 5.21544e+06 3.95574e+06
54 3 O 6.85564 6.07396 1.4948 -1.2 -9.03572 -5.26817e+06 -1.12737e+06 -2.10196e+06 -1.33417e+06 -1.83483e+06 1.02988e+06
55 3 O -0.429565 5.80612 0.196716 -1.2 -3.46947 -1.56358e+06 -8.08263e+06 -3.22317e+07 1.85045e+06 1.23558e+06 4.46632e+06
56 3 O -0.473377 5.80612 2.79288 -1.2 -8.42534 -2.98356e+06 -2.87558e+06 -2.70033e+06 -777992 361287 1.15728e+06
57 1 Mg 6.40169 9.49799 0 1.2 -5.97904 2.68271e+06 -7.38622e+06 -5.65229e+06 -5.48657e+06 1.02053e+06 -2.15994e+06
58 1 Mg 3.64209 14.2057 1.4948 1.2 -9.09587 1.29124e+06 903374 5.4124e+06 -1.03453e+06 -930341 164415
59 2 Si 5.45748 11.5215 1.4948 2.4 -35.6719 9.75977e+06 9.7782e+06 1.3539e+07 895699 393055 -1.43913e+06
60 3 O 5.51101 13.1348 1.4948 -1.2 -4.08882 -1.61748e+06 58863.7 -3.58129e+07 470934 -2.55561e+06 -4.75318e+06
61 3 O 1.83851 10.5475 1.4948 -1.2 -8.89113 -5.34346e+06 -906869 -2.24583e+06 1.5398e+06 -1.58728e+06 -1.41874e+06
62 3 O 4.7611 10.8154 0.196716 -1.2 -2.90128 -569774 -1.04943e+07 -3.29903e+07 -2.47335e+06 -1.78963e+06 -4.65246e+06
63 1 Mg 6.35203 9.49799 2.9896 1.2 -8.6356 5.0872e+06 -2.51619e+06 832706 1.31313e+06 -1.18093e+06 2.27572e+06
64 3 O 4.71833 10.8154 2.79288 -1.2 -8.1927 -2.88622e+06 -2.83045e+06 -3.12543e+06 1.05467e+06 -27824.5 -1.61897e+06
65 1 Mg -1.0438 9.53931 4.4844 1.2 -9.31394 215591 1.63477e+06 3.90201e+06 -574781 -443402 219851
66 2 Si -2.8604 12.2234 4.4844 2.4 -34.2873 1.33351e+07 7.08263e+06 1.06787e+07 -16091 -131538 625849
67 3 O -2.91391 10.6102 4.4844 -1.2 -8.7714 -4.89733e+06 699338 -4.76867e+06 195323 -101850 -308600
68 3 O 0.7596 13.1975 4.4844 -1.2 -8.59173 -4.57558e+06 -1.69788e+06 -4.03549e+06 2.12335e+06 -471391 -232852
69 3 O -2.12001 12.9296 3.18632 -1.2 -8.37981 -3.96672e+06 -2.52659e+06 -1.62447e+06 1.16069e+06 -167985 -1.85287e+06
70 3 O -2.16532 12.9296 5.78248 -1.2 -8.18851 -3.94962e+06 -2.75453e+06 -2.97157e+06 1.11334e+06 -15046.8 1.14339e+06
71 1 Mg 1.29891 11.8725 2.9896 1.2 -8.67099 5.32846e+06 -2.53278e+06 643000 -1.17665e+06 -1.21717e+06 -1.34698e+06
72 1 Mg 4.10033 11.8312 4.4844 1.2 -9.36242 359248 1.60387e+06 3.95823e+06 1.09341e+06 -219063 366892
73 2 Si 2.27333 13.896 4.4844 2.4 -34.1758 1.35466e+07 7.22618e+06 1.01052e+07 778317 90544.6 666882
74 3 O 2.28634 15.5093 4.4844 -1.2 -8.81329 -5.04128e+06 519599 -4.49247e+06 401946 -327985 -467826
75 3 O -4.34533 12.922 4.4844 -1.2 -8.58978 -4.46635e+06 -1.74636e+06 -4.05787e+06 -1.44774e+06 -523820 -357397
76 3 O 2.98455 13.1899 3.18632 -1.2 -8.4167 -3.97447e+06 -2.65142e+06 -1.60688e+06 -965114 -208351 933469
77 1 Mg 1.34779 11.8725 0 1.2 -6.25403 3.98786e+06 -3.79527e+06 -5.72043e+06 3.55644e+06 798003 1.98999e+06
78 3 O 2.93934 13.1899 5.78248 -1.2 -8.29965 -4.00208e+06 -2.91663e+06 -2.6667e+06 -983577 -214889 -1.41957e+06
79 1 Mg -1.50344 11.9138 1.4948 1.2 -9.04111 1.6391e+06 745968 5.35792e+06 1.56417e+06 -981836 772753
80 2 Si 0.326006 9.84894 1.4948 2.4 -35.5741 9.83729e+06 9.83926e+06 1.3216e+07 -609284 54010.3 2.87646e+06
81 3 O 0.317364 8.23571 1.4948 -1.2 -4.13385 -1.49565e+06 53389.4 -3.61672e+07 -122870 1.20994e+06 3.95408e+06
82 3 O 6.94307 10.823 1.4948 -1.2 -8.91759 -5.4479e+06 -730174 -2.23425e+06 -986397 -1.52333e+06 722414
83 3 O -0.343122 10.5551 0.196716 -1.2 -3.00654 -889381 -9.9607e+06 -3.30008e+07 2.46781e+06 -2.01817e+06 4.16683e+06
84 3 O -0.385966 10.5551 2.79288 -1.2 -8.24351 -2.99543e+06 -2.86846e+06 -3.04249e+06 -860565 146906 805210
85 1 Mg 6.49448 14.247 0 1.2 -6.21402 4.44442e+06 -2.9283e+06 -5.92316e+06 -2.96499e+06 243610 -1.02896e+06
86 1 Mg 3.74457 18.9547 1.4948 1.2 -9.11413 966317 1.17986e+06 5.41291e+06 -1.12387e+06 -938187 268846
87 2 Si 5.55495 16.2705 1.4948 2.4 -35.6181 9.97221e+06 9.77334e+06 1.3264e+07 507530 791888 -1.21082e+06
88 3 O 5.6115 17.8838 1.4948 -1.2 -4.45167 -2.56291e+06 1539.36 -3.29974e+07 86963.8 -6.04045e+06 -4.68269e+06
89 3 O 1.93416 15.2965 1.4948 -1.2 -8.91971 -5.41935e+06 -697581 -2.08315e+06 1.52837e+06 -1.40854e+06 -1.53361e+06
90 3 O 4.85636 15.5644 0.196716 -1.2 -2.93538 -553840 -1.23255e+07 -3.1287e+07 -3.02806e+06 -5.14897e+06 -4.26405e+06
91 1 Mg 6.44662 14.247 2.9896 1.2 -8.66368 5.2542e+06 -2.46604e+06 659629 1.26893e+06 -1.20364e+06 2.42197e+06
92 3 O 4.81537 15.5644 2.79288 -1.2 -8.16872 -2.87642e+06 -2.99197e+06 -3.04185e+06 1.08204e+06 -50408 -1.79814e+06
93 1 Mg -0.948271 14.2883 4.4844 1.2 -9.36167 238822 1.67954e+06 3.90405e+06 -567279 -411222 230863
94 2 Si -2.75928 16.9724 4.4844 2.4 -34.2495 1.34579e+07 7.4335e+06 1.01457e+07 -83583.2 -424901 1.12097e+06
95 3 O -2.81617 15.3592 4.4844 -1.2 -8.77014 -4.93795e+06 514725 -4.53505e+06 345701 -56776.5 -438747
96 3 O 0.862762 17.9465 4.4844 -1.2 -8.60824 -4.58555e+06 -1.84757e+06 -3.85009e+06 2.1443e+06 -602887 -633673
97 3 O -2.0185 17.6786 3.18632 -1.2 -8.39747 -3.98391e+06 -2.66595e+06 -1.45851e+06 1.15096e+06 -52001.9 -2.05497e+06
98 3 O -2.06164 17.6786 5.78248 -1.2 -8.26207 -4.17897e+06 -2.9184e+06 -2.42505e+06 1.02067e+06 224353 794021
99 1 Mg 1.39817 16.6215 2.9896 1.2 -8.64838 5.3933e+06 -2.35842e+06 365474 -1.14481e+06 -1.16007e+06 -1.11096e+06
100 1 Mg 4.20062 16.5802 4.4844 1.2 -9.37884 239474 1.82174e+06 3.88861e+06 1.12745e+06 -215709 690286
101 2 Si 2.37796 18.645 4.4844 2.4 -34.2319 1.34602e+07 7.20431e+06 1.03078e+07 669506 264650 1.28834e+06
102 3 O 2.39434 20.2583 4.4844 -1.2 -8.78143 -4.99942e+06 650031 -4.71215e+06 524784 -309488 -422503
103 3 O -4.24274 17.671 4.4844 -1.2 -8.57592 -4.46331e+06 -1.81323e+06 -4.01628e+06 -1.36362e+06 -364536 -655078
104 3 O 3.08659 17.9389 3.18632 -1.2 -8.41935 -3.8851e+06 -2.7736e+06 -1.60617e+06 -931903 -161096 707388
105 1 Mg 1.44478 16.6215 0 1.2 -6.32199 5.56184e+06 -657015 -5.88113e+06 1.39715e+06 -35807 1.42076e+06
106 3 O 3.0436 17.9389 5.78248 -1.2 -8.23524 -3.83947e+06 -3.01693e+06 -2.82932e+06 -882930 -354502 -1.96643e+06
107 1 Mg -1.40524 16.6628 1.4948 1.2 -9.0896 1.43124e+06 1.04441e+06 5.29739e+06 1.69448e+06 -1.01445e+06 889906
108 2 Si 0.420358 14.5979 1.4948 2.4 -35.6349 1.00171e+07 9.82055e+06 1.31365e+07 -119984 543989 3.40255e+06
109 3 O 0.408732 12.9847 1.4948 -1.2 -4.08517 -1.69958e+06 96539.7 -3.59087e+07 222717 -2.54458e+06 3.85396e+06
110 3 O 7.03923 15.572 1.4948 -1.2 -8.95472 -5.51431e+06 -560037 -2.03695e+06 -938611 -1.27293e+06 513784
111 3 O -0.248332 15.3041 0.196716 -1.2 -3.03395 -898559 -1.18409e+07 -3.13218e+07 3.24955e+06 -5.39275e+06 3.4945e+06
112 3 O -0.289436 15.3041 2.79288 -1.2 -8.22035 -2.98958e+06 -3.05778e+06 -2.93704e+06 -866350 79652.6 631350
113 1 Mg 6.59566 18.996 0 1.2 -6.2425 5.69393e+06 -138701 -5.87344e+06 -917129 -702917 -408864
114 1 Mg 3.85574 23.7037 1.4948 1.2 -9.06953 488879 1.65605e+06 5.20286e+06 -1.18741e+06 -905039 202821
115 2 Si 5.66125 21.0195 1.4948 2.4 -35.3508 1.01382e+07 9.6963e+06 1.28084e+07 179347 1.16801e+06 -1.43034e+06
116 3 O 5.72074 22.6328 1.4948 -1.2 -5.17232 -4.06461e+06 -134312 -2.78641e+07 -219928 -8.48921e+06 -4.10696e+06
117 3 O 2.03867 20.0455 1.4948 -1.2 -9.02181 -5.28951e+06 -574841 -1.96894e+06 1.57217e+06 -1.19443e+06 -1.48204e+06
118 3 O 4.96004 20.3134 0.196716 -1.2 -3.36879 -1.10091e+06 -1.39162e+07 -2.72686e+07 -3.18247e+06 -7.94263e+06 -3.22276e+06
119 1 Mg 6.55057 18.996 2.9896 1.2 -8.61679 5.32634e+06 -2.4233e+06 470254 1.29349e+06 -1.28749e+06 2.49478e+06
120 3 O 4.92172 20.3134 2.79288 -1.2 -8.21032 -2.77374e+06 -3.10061e+06 -3.00329e+06 1.09293e+06 -54192.1 -1.70704e+06
121 1 Mg -0.84282 19.0373 4.4844 1.2 -9.35985 304049 1.64142e+06 3.86903e+06 -455148 -279356 550027
122 2 Si -2.64823 21.7214 4.4844 2.4 -34.0716 1.35809e+07 7.65343e+06 9.51974e+06 61270.2 -305284 627602
123 3 O -2.70847 20.1082 4.4844 -1.2 -8.79585 -5.12229e+06 623540 -4.41073e+06 282898 -16750.8 -406915
124 3 O 0.97581 22.6955 4.4844 -1.2 -8.68341 -4.35943e+06 -2.16028e+06 -3.64892e+06 2.25353e+06 -556684 -248087
125 3 O -1.9076 22.4276 3.18632 -1.2 -8.48639 -3.83456e+06 -2.93033e+06 -1.23844e+06 1.15352e+06 -34218.7 -1.89156e+06
126 3 O -1.9475 22.4276 5.78248 -1.2 -8.42384 -4.10429e+06 -3.15073e+06 -1.86443e+06 1.1216e+06 -109789 1.14766e+06
127 1 Mg 1.50678 21.3705 2.9896 1.2 -8.57554 5.33048e+06 -2.24072e+06 193958 -1.17243e+06 -1.18439e+06 -1.22511e+06
128 1 Mg 4.31086 21.3292 4.4844 1.2 -9.3557 118056 1.86137e+06 3.93765e+06 1.16386e+06 -301368 345371
129 2 Si 2.49243 23.394 4.4844 2.4 -33.9789 1.30504e+07 8.07454e+06 9.43695e+06 663647 95927 532974
130 3 O 2.51204 25.0073 4.4844 -1.2 -8.93818 -4.81645e+06 108528 -4.10738e+06 550481 -205724 -299472
131 3 O -4.13026 22.42 4.4844 -1.2 -8.70013 -4.41764e+06 -2.07467e+06 -3.60226e+06 -1.43114e+06 -275641 -343347
132 3 O 3.19799 22.6879 3.18632 -1.2 -8.50907 -3.69114e+06 -3.07555e+06 -1.4117e+06 -912720 -26406.6 950055
133 1 Mg 1.5501 21.3705 0 1.2 -6.25906 6.24008e+06 1.06984e+06 -5.60899e+06 -58388.1 -955224 915697
134 3 O 3.1583 22.6879 5.78248 -1.2 -8.36292 -3.62543e+06 -3.34298e+06 -2.42091e+06 -877513 -321935 -1.29256e+06
135 1 Mg -1.29822 21.4118 1.4948 1.2 -9.07062 1.04479e+06 1.39498e+06 5.19849e+06 1.80923e+06 -958956 748210
136 2 Si 0.523568 19.3469 1.4948 2.4 -35.453 1.01215e+07 9.75353e+06 1.2836e+07 318669 1.03344e+06 3.63339e+06
137 3 O 0.508934 17.7337 1.4948 -1.2 -4.44808 -2.6509e+06 21284.4 -3.30696e+07 659987 -6.09409e+06 3.52488e+06
138 3 O 7.14425 20.321 1.4948 -1.2 -9.06961 -5.42262e+06 -454089 -1.85915e+06 -938499 -1.02825e+06 534742
139 3 O -0.145107 20.0531 0.196716 -1.2 -3.46502 -1.4931e+06 -1.3564e+07 -2.72777e+07 3.67853e+06 -8.19448e+06 2.57084e+06
140 3 O -0.183601 20.0531 2.79288 -1.2 -8.26211 -2.90347e+06 -3.16818e+06 -2.89203e+06 -856330 -32202.1 560257
141 1 Mg 6.70502 23.745 0 1.2 -6.19449 5.9699e+06 1.38347e+06 -5.36468e+06 407128 -1.49251e+06 -143083
142 1 Mg 3.97493 28.4527 1.4948 1.2 -9.04913 684.945 2.00598e+06 5.07583e+06 -1.22927e+06 -757866 123892
143 2 Si 5.77602 25.7685 1.4948 2.4 -34.9583 1.03736e+07 9.70585e+06 1.20224e+07 -108201 1.54425e+06 -1.49128e+06
144 3 O 5.83821 27.3818 1.4948 -1.2 -6.08594 -5.62587e+06 -209744 -2.15278e+07 -338099 -9.30088e+06 -3.40578e+06
145 3 O 2.15175 24.7945 1.4948 -1.2 -9.1683 -5.04869e+06 -692703 -1.72319e+06 1.61904e+06 -937984 -1.33595e+06
146 3 O 5.07184 25.0624 0.196716 -1.2 -4.14208 -2.1224e+06 -1.48373e+07 -2.14657e+07 -2.7816e+06 -9.44257e+06 -1.86995e+06
147 1 Mg 6.66374 23.745 2.9896 1.2 -8.47408 5.24142e+06 -2.07229e+06 -21622.3 1.33301e+06 -1.29232e+06 2.3611e+06
148 3 O 5.03707 25.0624 2.79288 -1.2 -8.33632 -2.62069e+06 -3.49062e+06 -2.60429e+06 1.07744e+06 -145205 -1.62371e+06
149 1 Mg -0.727559 23.7863 4.4844 1.2 -9.23691 -35615.8 2.14332e+06 3.50063e+06 -531790 -212009 358575
150 2 Si -2.5277 26.4704 4.4844 2.4 -33.9327 1.30723e+07 8.24808e+06 9.22073e+06 49113.6 -149335 960925
151 3 O -2.59107 24.8572 4.4844 -1.2 -8.93712 -4.84534e+06 130657 -3.95381e+06 319904 -80019.1 -443066
152 3 O 1.09817 27.4445 4.4844 -1.2 -8.74455 -4.33213e+06 -2.34971e+06 -3.38605e+06 2.23004e+06 -393676 -348580
153 3 O -1.78784 27.1766 3.18632 -1.2 -8.54935 -3.60965e+06 -3.13508e+06 -1.21262e+06 1.16783e+06 47459.5 -1.88572e+06
154 3 O -1.82343 27.1766 5.78248 -1.2 -8.34425 -3.73639e+06 -3.30448e+06 -2.30434e+06 1.21869e+06 -55380.9 873942
155 1 Mg 1.62435 26.1195 2.9896 1.2 -8.4493 5.24238e+06 -1.90777e+06 -250084 -1.16201e+06 -1.29477e+06 -1.21864e+06
156 1 Mg 4.43064 26.0782 4.4844 1.2 -9.21964 9394.85 2.28414e+06 3.40653e+06 1.23004e+06 -206333 424803
157 2 Si 2.61607 28.143 4.4844 2.4 -33.9064 1.30772e+07 8.25301e+06 9.12312e+06 776080 40610.1 767941
158 3 O 2.63853 29.7563 4.4844 -1.2 -8.92533 -4.81016e+06 192943 -4.21569e+06 561853 -198725 -221163
159 3 O -4.00841 27.169 4.4844 -1.2 -8.76582 -4.34995e+06 -2.26845e+06 -3.36042e+06 -1.38094e+06 -407683 -492436
160 3 O 3.3182 27.4369 3.18632 -1.2 -8.58687 -3.56447e+06 -3.3055e+06 -1.25678e+06 -901851 59834.1 919686
161 1 Mg 1.66335 26.1195 0 1.2 -6.19112 5.84515e+06 1.93691e+06 -4.97076e+06 -895240 -1.58836e+06 622558
162 3 O 3.28288 27.4369 5.78248 -1.2 -8.4134 -3.67769e+06 -3.59523e+06 -2.15169e+06 -898149 -307237 -1.69303e+06
163 1 Mg -1.18278 26.1608 1.4948 1.2 -9.03199 525297 1.85022e+06 5.0086e+06 1.88547e+06 -855516 591239
164 2 Si 0.635424 24.0959 1.4948 2.4 -35.0924 1.02212e+07 9.87424e+06 1.21052e+07 736245 1.37411e+06 3.41444e+06
165 3 O 0.617906 22.4827 1.4948 -1.2 -5.16437 -4.14543e+06 -103580 -2.79614e+07 1.01457e+06 -8.55438e+06 3.19956e+06
166 3 O 7.25781 25.07 1.4948 -1.2 -9.21735 -5.18534e+06 -567508 -1.62631e+06 -938753 -824881 596757
167 3 O -0.0337363 24.8021 0.196716 -1.2 -4.2295 -2.50605e+06 -1.47825e+07 -2.14085e+07 3.50032e+06 -9.62233e+06 1.41409e+06
168 3 O -0.0687235 24.8021 2.79288 -1.2 -8.37934 -2.68899e+06 -3.57683e+06 -2.5625e+06 -817345 -70277 605940
169 1 Mg 6.82195 28.494 0 1.2 -6.18263 5.31118e+06 2.06196e+06 -4.52396e+06 1.1504e+06 -1.81977e+06 -263455
170 1 Mg 4.10106 33.2017 1.4948 1.2 -9.03147 -489983 2.25058e+06 4.95315e+06 -1.20742e+06 -547420 -274096
171 2 Si 5.89839 30.5175 1.4948 2.4 -34.6011 1.08507e+07 9.17057e+06 1.15911e+07 -337471 1.68848e+06 -2.05784e+06
172 3 O 5.96289 32.1308 1.4948 -1.2 -7.02794 -6.64838e+06 -148268 -1.54026e+07 -292893 -8.45636e+06 -2.32456e+06
173 3 O 2.27266 29.5435 1.4948 -1.2 -9.26006 -4.83288e+06 -677971 -1.75848e+06 1.65897e+06 -720566 -1.06177e+06
174 3 O 5.19102 29.8114 0.196716 -1.2 -5.09931 -3.3054e+06 -1.45459e+07 -1.52379e+07 -1.93012e+06 -9.31056e+06 -234952
175 1 Mg 6.78546 28.494 2.9896 1.2 -8.39608 5.19186e+06 -2.02033e+06 -143536 1.30776e+06 -1.31531e+06 2.23192e+06
176 3 O 5.16061 29.8114 2.79288 -1.2 -8.40115 -2.58277e+06 -3.48839e+06 -2.57898e+06 1.12591e+06 -219591 -1.35786e+06
177 1 Mg -0.603205 28.5353 4.4844 1.2 -9.23691 -105571 2.11793e+06 3.58892e+06 -454487 -297900 266926
178 2 Si -2.39877 31.2194 4.4844 2.4 -33.8361 1.30129e+07 8.17909e+06 9.1931e+06 193804 -264989 -68217.1
179 3 O -2.46483 29.6062 4.4844 -1.2 -8.92429 -4.78654e+06 251745 -4.14713e+06 390980 -17920.7 -156745
180 3 O 1.22864 32.1935 4.4844 -1.2 -8.78227 -4.18365e+06 -2.3881e+06 -3.44311e+06 2.3141e+06 -425530 20530.8
181 3 O -1.66032 31.9256 3.18632 -1.2 -8.61554 -3.45818e+06 -3.20295e+06 -1.27031e+06 1.12037e+06 85046 -1.43349e+06
182 3 O -1.69072 31.9256 5.78248 -1.2 -8.46133 -3.73974e+06 -3.43842e+06 -1.77459e+06 919675 -22299.4 1.40752e+06
183 1 Mg 1.7499 30.8685 2.9896 1.2 -8.38264 5.18615e+06 -1.90658e+06 -295206 -1.14415e+06 -1.3549e+06 -1.51257e+06
184 1 Mg 4.55894 30.8272 4.4844 1.2 -9.21945 4833.09 2.11601e+06 3.57982e+06 1.1569e+06 -202195 85987.6
185 2 Si 2.7476 32.892 4.4844 2.4 -33.768 1.26474e+07 8.31415e+06 9.27219e+06 598677 -116110 -261395
186 3 O 2.77235 34.5053 4.4844 -1.2 -9.09135 -4.53103e+06 25050.9 -4.06177e+06 623328 -9687.58 251165
187 3 O -3.87837 31.918 4.4844 -1.2 -8.84678 -4.33406e+06 -2.22774e+06 -3.29462e+06 -1.354e+06 -286985 76268.6
188 3 O 3.44611 32.1859 3.18632 -1.2 -8.64477 -3.37522e+06 -3.3308e+06 -1.42086e+06 -846114 175709 1.36353e+06
189 1 Mg 1.7837 30.8685 0 1.2 -6.20943 4.70243e+06 2.1973e+06 -4.11978e+06 -1.34745e+06 -1.55181e+06 342780
190 3 O 3.41602 32.1859 5.78248 -1.2 -8.3717 -3.54756e+06 -3.47159e+06 -2.43287e+06 -763319 -174007 -1.14414e+06
191 1 Mg -1.05984 30.9098 1.4948 1.2 -9.02217 38576.3 2.11348e+06 4.91453e+06 1.9167e+06 -640701 132662
192 2 Si 0.755243 28.8449 1.4948 2.4 -34.7412 1.05833e+07 9.51796e+06 1.16216e+07 1.14676e+06 1.57506e+06 2.90268e+06
193 3 O 0.735127 27.2317 1.4948 -1.2 -6.08002 -5.70343e+06 -194030 -2.16127e+07 1.17449e+06 -9.3069e+06 2.70713e+06
194 3 O 7.37914 29.819 1.4948 -1.2 -9.31004 -4.98074e+06 -547066 -1.67e+06 -934577 -610154 909276
195 3 O 0.0850649 29.5511 0.196716 -1.2 -5.16198 -3.5847e+06 -1.48839e+07 -1.51668e+07 2.69517e+06 -9.40899e+06 359615
196 3 O 0.0543974 29.5511 2.79288 -1.2 -8.44703 -2.63161e+06 -3.63096e+06 -2.50832e+06 -852694 -113553 803831
197 1 Mg 6.94543 33.243 0 1.2 -6.25272 4.11752e+06 2.19041e+06 -3.67288e+06 1.58584e+06 -1.41324e+06 -956421
198 1 Mg 4.23267 37.9507 1.4948 1.2 -8.98128 -933778 2.39777e+06 4.75485e+06 -1.11707e+06 -232976 -308735
199 2 Si 6.02709 35.2665 1.4948 2.4 -34.2036 1.13004e+07 8.58194e+06 1.11433e+07 -394731 1.62688e+06 -2.53577e+06
200 3 O 6.09339 36.8798 1.4948 -1.2 -7.8914 -6.76441e+06 -80156.4 -1.04648e+07 -142871 -6.62258e+06 -1.61938e+06
201 3 O 2.40018 34.2925 1.4948 -1.2 -9.33212 -4.59418e+06 -706662 -1.90515e+06 1.7027e+06 -494659 -627398
202 3 O 5.31645 34.5604 0.196716 -1.2 -6.08233 -4.22769e+06 -1.29666e+07 -9.88387e+06 -962070 -7.85511e+06 1.32158e+06
203 1 Mg 6.91449 33.243 2.9896 1.2 -8.26677 5.11944e+06 -1.93117e+06 -359189 1.33798e+06 -1.37897e+06 1.7486e+06
204 3 O 5.291 34.5604 2.79288 -1.2 -8.54741 -2.5045e+06 -3.58938e+06 -2.35891e+06 1.10957e+06 -254038 -938479
205 1 Mg -0.471101 33.2843 4.4844 1.2 -9.13804 -381301 2.24902e+06 3.57059e+06 -426321 -112308 -34094.5
206 2 Si -2.26307 35.9684 4.4844 2.4 -33.4216 1.22934e+07 8.43016e+06 9.00127e+06 64969.6 42463.5 -346694
207 3 O -2.33122 34.3552 4.4844 -1.2 -9.11038 -4.5595e+06 76106.6 -3.89744e+06 369292 -156753 131402
208 3 O 1.36549 36.9425 4.4844 -1.2 -9.00626 -3.78451e+06 -2.57708e+06 -3.30273e+06 2.25756e+06 -216094 208611
209 3 O -1.52658 36.6746 3.18632 -1.2 -8.75145 -3.10947e+06 -3.30748e+06 -1.39226e+06 1.16404e+06 84863.7 -1.22977e+06
210 3 O -1.55122 36.6746 5.78248 -1.2 -8.70161 -3.14007e+06 -3.46909e+06 -1.89086e+06 1.21751e+06 -162902 1.5402e+06
211 1 Mg 1.882 35.6175 2.9896 1.2 -8.23395 4.96881e+06 -1.77768e+06 -434965 -1.12581e+06 -1.52173e+06 -1.82285e+06
212 1 Mg 4.69415 35.5762 4.4844 1.2 -8.97137 -256357 2.34254e+06 3.2169e+06 1.26531e+06 -172556 -185796
213 2 Si 2.88522 37.641 4.4844 2.4 -33.2672 1.19673e+07 8.68798e+06 8.77154e+06 841124 -249538 -195806
214 3 O 2.91159 39.2543 4.4844 -1.2 -9.29351 -4.17249e+06 256.885 -4.08242e+06 530209 -11209 28713.1
215 3 O -3.74183 36.667 4.4844 -1.2 -9.08892 -4.03111e+06 -2.36437e+06 -3.07578e+06 -1.31004e+06 -338461 114755
216 3 O 3.58014 36.9349 3.18632 -1.2 -8.80278 -3.08782e+06 -3.49354e+06 -1.39983e+06 -871211 255278 1.47534e+06
217 1 Mg 1.90997 35.6175 0 1.2 -6.28864 3.40309e+06 2.08766e+06 -3.56259e+06 -1.66301e+06 -805024 438147
218 3 O 3.55582 36.9349 5.78248 -1.2 -8.80215 -3.18875e+06 -3.73394e+06 -1.66178e+06 -903922 -158453 -1.15036e+06
219 1 Mg -0.93068 35.6588 1.4948 1.2 -8.98776 -459838 2.31596e+06 4.7633e+06 1.85113e+06 -305565 -249163
220 2 Si 0.881882 33.5939 1.4948 2.4 -34.3799 1.09902e+07 8.93621e+06 1.12885e+07 1.39009e+06 1.60621e+06 1.82013e+06
221 3 O 0.859602 31.9807 1.4948 -1.2 -7.01665 -6.70223e+06 -136066 -1.55221e+07 1.16243e+06 -8.46764e+06 2.52113e+06
222 3 O 7.507 34.568 1.4948 -1.2 -9.38701 -4.75408e+06 -591906 -1.7956e+06 -939913 -449276 1.32955e+06
223 3 O 0.210186 34.3001 0.196716 -1.2 -6.11754 -4.39355e+06 -1.36773e+07 -9.79913e+06 1.54278e+06 -7.92092e+06 -378306
224 3 O 0.184454 34.3001 2.79288 -1.2 -8.56663 -2.46709e+06 -3.71116e+06 -2.44709e+06 -831645 -181065 1.16015e+06
225 1 Mg 7.07415 37.992 0 1.2 -6.34962 2.88754e+06 1.96235e+06 -3.20894e+06 1.87679e+06 -389489 -1.65509e+06
226 1 Mg 4.36817 42.6997 1.4948 1.2 -8.88225 -1.32737e+06 2.50887e+06 4.49672e+06 -990483 122343 -5354.65
227 2 Si 6.16058 40.0155 1.4948 2.4 -33.8215 1.15482e+07 7.79055e+06 1.10821e+07 -389239 1.30718e+06 -2.05095e+06
228 3 O 6.22815 41.6288 1.4948 -1.2 -8.58974 -6.11586e+06 12369.5 -7.17823e+06 43996.4 -4.49782e+06 -1.48736e+06
229 3 O 2.53282 39.0415 1.4948 -1.2 -9.39124 -4.35494e+06 -726924 -2.19014e+06 1.70523e+06 -336528 -648417
230 3 O 5.44674 39.3094 0.196716 -1.2 -6.98881 -4.62866e+06 -1.04425e+07 -6.11434e+06 -152182 -5.77479e+06 2.12982e+06
231 1 Mg 7.04922 37.992 2.9896 1.2 -8.10613 4.88489e+06 -1.87953e+06 -422771 1.27838e+06 -1.45479e+06 1.70565e+06
232 3 O 5.42658 39.3094 2.79288 -1.2 -8.70094 -2.36885e+06 -3.55176e+06 -2.31703e+06 1.14288e+06 -280581 -1.03965e+06
233 1 Mg -0.333062 38.0333 4.4844 1.2 -8.91957 -777327 2.34727e+06 3.51202e+06 -423834 -110269 -146172
234 2 Si -2.12255 40.7174 4.4844 2.4 -33.0619 1.17549e+07 8.39476e+06 9.00334e+06 -92643.5 -218048 -206491
235 3 O -2.19212 39.1042 4.4844 -1.2 -9.30901 -4.19342e+06 53599.2 -3.91767e+06 498950 -72014.6 109083
236 3 O 1.50676 41.6915 4.4844 -1.2 -9.17968 -3.61165e+06 -2.52191e+06 -3.26872e+06 2.19619e+06 -351606 121271
237 3 O -1.3884 41.4236 3.18632 -1.2 -8.88572 -2.87736e+06 -3.31563e+06 -1.50763e+06 1.18301e+06 156580 -1.35464e+06
238 3 O -1.40713 41.4236 5.78248 -1.2 -8.93679 -3.02776e+06 -3.3611e+06 -1.69792e+06 1.33588e+06 73200.8 1.6253e+06
239 1 Mg 2.01892 40.3665 2.9896 1.2 -8.08687 4.75852e+06 -1.79489e+06 -429940 -1.05144e+06 -1.56306e+06 -1.66346e+06
240 1 Mg 4.83434 40.3252 4.4844 1.2 -8.81466 -607520 2.31092e+06 3.34904e+06 1.23839e+06 -139674 36025.3
241 2 Si 3.02698 42.39 4.4844 2.4 -33.0212 1.12276e+07 8.71258e+06 9.09256e+06 973019 100915 56062
242 3 O 3.05433 44.0033 4.4844 -1.2 -9.4074 -3.82211e+06 -134990 -4.12517e+06 542877 -204417 -96654.5
243 3 O -3.60077 41.416 4.4844 -1.2 -9.23462 -3.72534e+06 -2.37192e+06 -3.14682e+06 -1.2148e+06 -128516 -40803.9
244 3 O 3.71851 41.6839 3.18632 -1.2 -8.9118 -2.73901e+06 -3.50098e+06 -1.67974e+06 -880367 216886 1.23696e+06
245 1 Mg 2.04077 40.3665 0 1.2 -6.33885 2.36559e+06 1.74428e+06 -3.5224e+06 -1.83498e+06 427839 1.31375e+06
246 3 O 3.70011 41.6839 5.78248 -1.2 -8.8754 -2.66396e+06 -3.69116e+06 -2.05055e+06 -1.03057e+06 -156181 -1.27562e+06
247 1 Mg -0.796865 40.4078 1.4948 1.2 -8.91422 -828011 2.37275e+06 4.56516e+06 1.74179e+06 45036 -161298
248 2 Si 1.01387 38.3429 1.4948 2.4 -33.9905 1.13506e+07 8.18611e+06 1.10898e+07 1.54121e+06 1.43994e+06 1.38584e+06
249 3 O 0.989947 36.7297 1.4948 -1.2 -7.8784 -6.81163e+06 -73752 -1.05961e+07 1.03946e+06 -6.61519e+06 2.26768e+06
250 3 O 7.63988 39.317 1.4948 -1.2 -9.44268 -4.4911e+06 -614687 -2.12017e+06 -916779 -266096 1.32708e+06
251 3 O 0.340253 39.0491 0.196716 -1.2 -6.99795 -4.73086e+06 -1.13529e+07 -6.04167e+06 390473 -5.8535e+06 -1.17963e+06
252 3 O 0.319795 39.0491 2.79288 -1.2 -8.72936 -2.35904e+06 -3.68686e+06 -2.35962e+06 -865861 -207516 1.12842e+06
253 1 Mg 7.20667 42.741 0 1.2 -6.33071 1.91521e+06 1.75673e+06 -3.52494e+06 1.98564e+06 907380 -2.16433e+06
254 1 Mg 4.50613 47.4487 1.4948 1.2 -8.68016 -1.61412e+06 2.85638e+06 3.90901e+06 -850933 437452 159257
255 2 Si 6.29731 44.7645 1.4948 2.4 -33.3753 1.14029e+07 7.50089e+06 1.07789e+07 -234330 831091 -1.26111e+06
256 3 O 6.36567 46.3778 1.4948 -1.2 -9.16288 -5.03723e+06 -195249 -5.0304e+06 169057 -2.66042e+06 -1.4608e+06
257 3 O 2.669 43.7905 1.4948 -1.2 -9.46689 -4.02497e+06 -968646 -2.42749e+06 1.71051e+06 -244134 -952167
258 3 O 5.58048 44.0584 0.196716 -1.2 -7.82883 -4.33661e+06 -7.89433e+06 -3.64443e+06 319932 -3.70682e+06 2.33984e+06
259 1 Mg 7.1879 42.741 2.9896 1.2 -7.97171 4.64329e+06 -1.82309e+06 -439615 1.24378e+06 -1.66411e+06 1.92023e+06
260 3 O 5.56564 44.0584 2.79288 -1.2 -8.84431 -2.20156e+06 -3.58884e+06 -2.2434e+06 1.13883e+06 -234656 -1.26666e+06
261 1 Mg -0.19105 42.7823 4.4844 1.2 -8.71691 -806776 2.37153e+06 3.18891e+06 -427145 -46223.9 -68102.3
262 2 Si -1.97909 45.4664 4.4844 2.4 -32.7782 1.1369e+07 8.73625e+06 8.59379e+06 100624 -589230 265075
263 3 O -2.04947 43.8532 4.4844 -1.2 -9.46755 -4.00823e+06 -81738 -3.72354e+06 509283 180789 -61041.2
264 3 O 1.65063 46.4405 4.4844 -1.2 -9.32052 -3.4664e+06 -2.68167e+06 -3.02797e+06 2.35412e+06 -406075 -112382
265 3 O -1.24745 46.1726 3.18632 -1.2 -9.0225 -2.62837e+06 -3.51789e+06 -1.4412e+06 1.13845e+06 180613 -1.57092e+06
266 3 O -1.26044 46.1726 5.78248 -1.2 -9.09337 -2.99262e+06 -3.48261e+06 -1.29616e+06 1.15784e+06 357738 1.28523e+06
267 1 Mg 2.15896 45.1155 2.9896 1.2 -7.94422 4.51686e+06 -1.6234e+06 -572552 -1.06961e+06 -1.56411e+06 -1.43562e+06
268 1 Mg 4.97763 45.0742 4.4844 1.2 -8.7294 -946573 2.43715e+06 3.42588e+06 1.26045e+06 -108613 138466
269 2 Si 3.1711 47.139 4.4844 2.4 -32.7936 1.07341e+07 9.01285e+06 8.92804e+06 648736 185738 99358.7