ITEM: TIMESTEP
54500
ITEM: NUMBER OF ATOMS
10500
ITEM: BOX BOUNDS xy xz yz pp pp pp
0.0000000000000000e+00 1.5297749999999999e+01 5.0992499999999996e+00
0.0000000000000000e+00 1.1872499999999999e+02 0.0000000000000000e+00
0.0000000000000000e+00 8.9688000000000002e+01 0.0000000000000000e+00
ITEM: ATOMS id type element xu yu zu q c_pe c_s[1] c_s[2] c_s[3] c_s[4] c_s[5] c_s[6]
1 1 Mg 6.2404 -6.37941e-06 0 1.2 -4.70054 8.29926e+06 -2.43909e+06 -5.59079e+06 -22232.9 2.54529e+06 -52160.3
2 1 Mg 3.46349 4.70768 1.4948 1.2 -8.72667 70304.2 2.38973e+06 4.61772e+06 -932997 -611923 -51937.7
3 2 Si 5.2885 2.02354 1.4948 2.4 -35.7171 1.07547e+07 1.00551e+07 1.22077e+07 8.8367e+06 618582 -3.13374e+06
4 3 O 5.33628 3.63678 1.4948 -1.2 -4.48677 -1.20228e+06 -1.09871e+06 -3.40088e+07 -326525 3.84809e+06 -3.78731e+06
5 3 O 1.67294 1.04952 1.4948 -1.2 -0.819362 -2.07188e+07 -7.88341e+07 -2.62892e+06 -2.41322e+07 -156645 -86068
6 3 O 4.59532 1.31737 0.196716 -1.2 -2.78235 -2.39399e+06 -6.22262e+06 -3.09039e+07 -6.00938e+06 6.28511e+06 -2.73747e+06
7 1 Mg 6.18956 -6.37941e-06 2.9896 1.2 -5.15942 1.90189e+06 -2.88811e+07 -2.28979e+06 -8.86408e+06 2.43585e+06 3.93592e+06
8 3 O 4.55118 1.31737 2.79288 -1.2 -7.28174 -206886 -4.12597e+06 -3.74013e+06 -2.94481e+06 -3.3815e+06 -1.03866e+06
9 1 Mg -1.20682 0.0413099 4.4844 1.2 8.71036 -3.04545e+07 -9.40863e+07 481700 -2.84793e+07 -1.22079e+06 -44941.8
10 2 Si -3.0337 2.72544 4.4844 2.4 -33.4953 1.50976e+07 5.78864e+06 9.15108e+06 1.59187e+06 103669 -991547
11 3 O -3.08099 1.11221 4.4844 -1.2 -9.41312 -6.52459e+06 711640 -2.80621e+06 -1.19895e+06 -211498 441265
12 3 O 0.582463 3.69946 4.4844 -1.2 -8.77497 -3.58677e+06 -4.87075e+06 -3.45033e+06 -560453 -179357 123829
13 3 O -2.29524 3.43162 3.18632 -1.2 -8.85001 -4.5761e+06 -2.02768e+06 -1.05363e+06 1.10061e+06 -827760 -795076
14 3 O -2.34216 3.43162 5.78248 -1.2 -8.70633 -4.2624e+06 -2.53527e+06 -2.11865e+06 767066 370630 1.47535e+06
15 1 Mg 1.12778 2.37449 2.9896 1.2 -7.81832 5.52369e+06 -2.1919e+06 -124915 -3.26864e+06 -4.16001e+06 -2.36078e+06
16 1 Mg 3.92855 2.33318 4.4844 1.2 -8.6794 -3.9033e+06 4.31376e+06 5.52266e+06 1.38107e+06 260367 335475
17 2 Si 2.09341 4.39804 4.4844 2.4 -32.7948 1.26002e+07 5.73794e+06 1.01314e+07 247605 -129069 33564.1
18 3 O 2.09991 6.01128 4.4844 -1.2 -9.28169 -4.30818e+06 431906 -4.40275e+06 533004 -249369 162161
19 3 O -4.52137 3.42402 4.4844 -1.2 -8.97749 -3.24143e+06 -2.33195e+06 -4.13971e+06 -2.41133e+06 -776831 236965
20 3 O 2.80834 3.69187 3.18632 -1.2 -9.10843 -2.44023e+06 -2.34288e+06 -944340 447721 -508875 -331819
21 1 Mg 1.17857 2.37449 0 1.2 -5.38129 -204410 -1.51775e+07 -6.07876e+06 6.53046e+06 1.26904e+06 4.58666e+06
22 3 O 2.76143 3.69187 5.78248 -1.2 -9.12009 -2.97438e+06 -1.82468e+06 -2.01886e+06 474233 -71984.1 240423
23 1 Mg -1.67381 2.41581 1.4948 1.2 -7.81607 1.91632e+06 -656240 4.52924e+06 1.35942e+06 -588181 964199
24 2 Si 0.16286 0.350945 1.4948 2.4 -25.0288 -7.46125e+06 1.12198e+07 1.26401e+07 1.61312e+06 2.89853e+06 1.20485e+06
25 3 O 0.15972 -1.26229 1.4948 -1.2 -4.52301 -1.10521e+07 -7.25471e+06 -2.97314e+07 -5.61198e+06 -8.55331e+06 -2.66248e+06
26 3 O 6.77654 1.32496 1.4948 -1.2 -10.1189 -6.10108e+06 2.28904e+06 -1.91967e+06 -635894 -613199 1.08356e+06
27 3 O -0.508028 1.05712 0.196716 -1.2 -9.26809 -263325 -4.20388e+06 -1.21456e+06 -569168 151892 -4.61986e+06
28 3 O -0.552171 1.05712 2.79288 -1.2 -6.58125 -5.67341e+06 -3.9914e+06 -2.52751e+07 1.40657e+06 -6.80136e+06 -5.43243e+06
29 1 Mg 6.31713 4.74899 0 1.2 -5.20379 810047 -1.30919e+07 -5.93309e+06 -7.31606e+06 1.3736e+06 -3.69987e+06
30 1 Mg 3.54847 9.45668 1.4948 1.2 -8.62601 765222 1.46445e+06 4.66542e+06 -961844 -923848 -644651
31 2 Si 5.36879 6.77254 1.4948 2.4 -34.8354 8.18002e+06 1.15362e+07 1.20444e+07 1.67334e+06 101402 -2.34518e+06
32 3 O 5.41937 8.38578 1.4948 -1.2 -4.47334 -798657 -682914 -3.54538e+07 757956 1.12408e+06 -3.96558e+06
33 3 O 1.75158 5.79852 1.4948 -1.2 -9.24104 -4.40953e+06 -2.08852e+06 -1.70858e+06 1.9665e+06 -1.62812e+06 -1.18182e+06
34 3 O 4.67421 6.06637 0.196716 -1.2 -3.49522 -339392 -9.94142e+06 -3.15997e+07 -2.01296e+06 1.31459e+06 -4.28401e+06
35 1 Mg 6.26654 4.74899 2.9896 1.2 -8.25342 4.49495e+06 -2.07719e+06 375926 1.79904e+06 -881023 1.76187e+06
36 3 O 4.63043 6.06637 2.79288 -1.2 -8.60365 -1.99018e+06 -3.61177e+06 -2.57055e+06 928859 -94779.9 -1.26088e+06
37 1 Mg -1.12976 4.79031 4.4844 1.2 -8.98405 -285574 2.21239e+06 3.33613e+06 -737308 -422486 -353149
38 2 Si -2.9517 7.47444 4.4844 2.4 -33.2874 1.2062e+07 7.98033e+06 9.442e+06 102194 -93117.9 -549458
39 3 O -3.00198 5.86121 4.4844 -1.2 -9.23952 -4.37194e+06 338420 -4.18853e+06 70751.9 -210192 275064
40 3 O 0.666315 8.44846 4.4844 -1.2 -9.04164 -3.77163e+06 -2.13916e+06 -3.66495e+06 2.19054e+06 -481525 239526
41 3 O -2.21213 8.18062 3.18632 -1.2 -8.84032 -3.35225e+06 -3.00537e+06 -1.02099e+06 1.08237e+06 -285522 -1.19391e+06
42 3 O -2.25864 8.18062 5.78248 -1.2 -8.81043 -3.25126e+06 -3.18002e+06 -2.07291e+06 965644 -77253.8 1.54851e+06
43 1 Mg 1.20893 7.12349 2.9896 1.2 -8.24291 4.52672e+06 -1.96835e+06 197778 -1.29863e+06 -1.2971e+06 -1.89909e+06
44 1 Mg 4.00982 7.08218 4.4844 1.2 -8.92116 -531576 2.10355e+06 3.64229e+06 1.01912e+06 -262879 -137963
45 2 Si 2.17861 9.14704 4.4844 2.4 -33.3518 1.20469e+07 7.83394e+06 9.6938e+06 395732 -19712.8 -589115
46 3 O 2.18828 10.7603 4.4844 -1.2 -9.22712 -4.38313e+06 309527 -4.25375e+06 529250 -128315 470283
47 3 O -4.43805 8.17302 4.4844 -1.2 -9.05399 -3.75561e+06 -2.12973e+06 -3.64833e+06 -1.57401e+06 -460638 229697
48 3 O 2.89193 8.44087 3.18632 -1.2 -8.84135 -3.21001e+06 -3.17223e+06 -1.14034e+06 -899849 -251281 1.56089e+06
49 1 Mg 1.25915 7.12349 0 1.2 -5.61176 1.44372e+06 -7.72845e+06 -6.17051e+06 5.89804e+06 1.41828e+06 2.43726e+06
50 3 O 2.84547 8.44087 5.78248 -1.2 -8.693 -3.22714e+06 -3.18702e+06 -2.70569e+06 -773201 -202470 -961991
51 1 Mg -1.59284 7.16481 1.4948 1.2 -8.52196 1.24786e+06 1.10646e+06 4.57308e+06 1.45709e+06 -925670 128983
52 2 Si 0.240329 5.09994 1.4948 2.4 -34.5667 9.08448e+06 1.03342e+07 1.1912e+07 -1.9586e+06 -1.01495e+06 1.65375e+06
53 3 O 0.234538 3.48671 1.4948 -1.2 -4.98452 -2.14976e+06 780608 -3.41794e+07 392577 5.15453e+06 4.05491e+06
54 3 O 6.85564 6.07396 1.4948 -1.2 -9.3203 -4.8329e+06 -1.54588e+06 -1.66275e+06 -1.34214e+06 -1.79981e+06 1.34085e+06
55 3 O -0.429565 5.80612 0.196716 -1.2 -3.74006 -1.08659e+06 -8.59181e+06 -3.17659e+07 1.85399e+06 1.18096e+06 4.69009e+06
56 3 O -0.473377 5.80612 2.79288 -1.2 -8.70513 -2.53552e+06 -3.18014e+06 -2.39562e+06 -774632 306036 1.51659e+06
57 1 Mg 6.40169 9.49799 0 1.2 -5.59997 2.0758e+06 -6.59034e+06 -6.44863e+06 -5.48857e+06 964098 -2.74776e+06
58 1 Mg 3.64209 14.2057 1.4948 1.2 -8.73273 772445 1.44429e+06 4.80846e+06 -1.03668e+06 -979629 -681814
59 2 Si 5.45748 11.5215 1.4948 2.4 -34.8865 8.62166e+06 1.11134e+07 1.20835e+07 911787 344674 -2.97641e+06
60 3 O 5.51101 13.1348 1.4948 -1.2 -4.47145 -1.0722e+06 -548254 -3.51379e+07 462231 -2.54611e+06 -3.92208e+06
61 3 O 1.83851 10.5475 1.4948 -1.2 -9.27063 -4.7165e+06 -1.59251e+06 -1.57755e+06 1.55425e+06 -1.58046e+06 -720095
62 3 O 4.7611 10.8154 0.196716 -1.2 -3.2916 857.467 -1.1275e+07 -3.21551e+07 -2.46785e+06 -1.74361e+06 -3.91208e+06
63 1 Mg 6.35203 9.49799 2.9896 1.2 -8.24124 4.55259e+06 -2.00811e+06 227473 1.34993e+06 -1.18732e+06 1.66046e+06
64 3 O 4.71833 10.8154 2.79288 -1.2 -8.6 -2.31198e+06 -3.39567e+06 -2.47833e+06 1.04021e+06 23461.3 -887171
65 1 Mg -1.0438 9.53931 4.4844 1.2 -8.92468 -507140 1.98393e+06 3.65454e+06 -553155 -281459 -271763
66 2 Si -2.8604 12.2234 4.4844 2.4 -33.3202 1.20763e+07 7.96549e+06 9.50135e+06 67243.9 216562 -891240
67 3 O -2.91391 10.6102 4.4844 -1.2 -9.22471 -4.32668e+06 357556 -4.27562e+06 135891 -258953 366733
68 3 O 0.7596 13.1975 4.4844 -1.2 -9.01108 -3.64604e+06 -2.2734e+06 -3.70426e+06 2.16393e+06 -318934 420759
69 3 O -2.12001 12.9296 3.18632 -1.2 -8.79327 -3.28008e+06 -3.07387e+06 -1.10148e+06 1.13655e+06 -290734 -1.10288e+06
70 3 O -2.16532 12.9296 5.78248 -1.2 -8.76589 -3.13105e+06 -3.26749e+06 -2.24007e+06 1.0288e+06 -425533 1.85983e+06
71 1 Mg 1.29891 11.8725 2.9896 1.2 -8.27507 4.60855e+06 -1.93121e+06 127179 -1.20949e+06 -1.27635e+06 -2.10477e+06
72 1 Mg 4.10033 11.8312 4.4844 1.2 -8.89026 -288564 2.08396e+06 3.37166e+06 1.10954e+06 -287978 -414758
73 2 Si 2.27333 13.896 4.4844 2.4 -33.282 1.21814e+07 8.02996e+06 9.24e+06 623240 -294904 -701632
74 3 O 2.28634 15.5093 4.4844 -1.2 -9.23876 -4.43367e+06 249241 -4.14781e+06 454076 -51848 324966
75 3 O -4.34533 12.922 4.4844 -1.2 -9.09596 -3.88571e+06 -2.14853e+06 -3.42971e+06 -1.4834e+06 -540510 383536
76 3 O 2.98455 13.1899 3.18632 -1.2 -8.83488 -3.3532e+06 -3.17717e+06 -1.02787e+06 -940450 -113204 1.71211e+06
77 1 Mg 1.34779 11.8725 0 1.2 -5.87651 3.38039e+06 -3.02843e+06 -6.48463e+06 3.5599e+06 822400 1.17304e+06
78 3 O 2.93934 13.1899 5.78248 -1.2 -8.86499 -3.32504e+06 -3.24651e+06 -2.14664e+06 -861265 -213148 -940705
79 1 Mg -1.50344 11.9138 1.4948 1.2 -8.66085 982072 1.42191e+06 4.72975e+06 1.56991e+06 -933451 10651.8
80 2 Si 0.326006 9.84894 1.4948 2.4 -34.833 8.5495e+06 1.11938e+07 1.1962e+07 -627104 131063 1.63723e+06
81 3 O 0.317364 8.23571 1.4948 -1.2 -4.47788 -908129 -561071 -3.55881e+07 -115639 1.15851e+06 4.42791e+06
82 3 O 6.94307 10.823 1.4948 -1.2 -9.3055 -4.85001e+06 -1.40783e+06 -1.53278e+06 -999602 -1.53272e+06 1.42842e+06
83 3 O -0.343122 10.5551 0.196716 -1.2 -3.38467 -227991 -1.07598e+07 -3.22569e+07 2.46225e+06 -2.06842e+06 4.85193e+06
84 3 O -0.385966 10.5551 2.79288 -1.2 -8.62738 -2.28876e+06 -3.44472e+06 -2.55343e+06 -847887 97422.7 1.4684e+06
85 1 Mg 6.49448 14.247 0 1.2 -5.88539 3.92412e+06 -2.33307e+06 -6.52457e+06 -2.96227e+06 236253 -1.92532e+06
86 1 Mg 3.74457 18.9547 1.4948 1.2 -8.89019 673823 1.35882e+06 5.16763e+06 -1.11628e+06 -978943 -356196
87 2 Si 5.55495 16.2705 1.4948 2.4 -34.9899 9.11315e+06 1.05471e+07 1.23427e+07 517013 812909 -2.81054e+06
88 3 O 5.6115 17.8838 1.4948 -1.2 -4.71343 -2.20832e+06 -260305 -3.26714e+07 90838.5 -6.05858e+06 -3.97815e+06
89 3 O 1.93416 15.2965 1.4948 -1.2 -9.24842 -4.88457e+06 -1.16776e+06 -1.62058e+06 1.53482e+06 -1.3539e+06 -704290
90 3 O 4.85636 15.5644 0.196716 -1.2 -3.23132 -135760 -1.27912e+07 -3.07647e+07 -3.03167e+06 -5.11959e+06 -3.39321e+06
91 1 Mg 6.44662 14.247 2.9896 1.2 -8.24995 4.70169e+06 -2.00665e+06 89814.9 1.29798e+06 -1.13113e+06 1.64265e+06
92 3 O 4.81537 15.5644 2.79288 -1.2 -8.5574 -2.40046e+06 -3.37781e+06 -2.5108e+06 1.06705e+06 -36244.8 -1.00209e+06
93 1 Mg -0.948271 14.2883 4.4844 1.2 -8.96795 -726219 2.15138e+06 3.7691e+06 -553283 -234317 -374499
94 2 Si -2.75928 16.9724 4.4844 2.4 -33.418 1.22085e+07 7.93554e+06 9.55611e+06 -158252 119498 -328861
95 3 O -2.81617 15.3592 4.4844 -1.2 -9.21964 -4.32397e+06 242677 -4.16784e+06 303921 -319544 249772
96 3 O 0.862762 17.9465 4.4844 -1.2 -8.94456 -3.77891e+06 -2.22594e+06 -3.74553e+06 2.09001e+06 -365581 116437
97 3 O -2.0185 17.6786 3.18632 -1.2 -8.71489 -3.38663e+06 -2.95645e+06 -1.25988e+06 1.18107e+06 -184891 -1.35704e+06
98 3 O -2.06164 17.6786 5.78248 -1.2 -8.69943 -3.32201e+06 -3.2428e+06 -2.16464e+06 1.2403e+06 -173487 1.57181e+06
99 1 Mg 1.39817 16.6215 2.9896 1.2 -8.3149 4.77467e+06 -2.00292e+06 94345.4 -1.14645e+06 -1.29573e+06 -1.88308e+06
100 1 Mg 4.20062 16.5802 4.4844 1.2 -8.89981 -234263 2.07019e+06 3.34599e+06 1.16643e+06 -247643 -102941
101 2 Si 2.37796 18.645 4.4844 2.4 -33.4723 1.24274e+07 7.77212e+06 9.54951e+06 802864 -187780 174143
102 3 O 2.39434 20.2583 4.4844 -1.2 -9.07502 -4.56302e+06 557061 -4.58631e+06 471202 -130115 -40043.2
103 3 O -4.24274 17.671 4.4844 -1.2 -9.02271 -3.97053e+06 -2.04119e+06 -3.58261e+06 -1.36501e+06 -517235 6857.9
104 3 O 3.08659 17.9389 3.18632 -1.2 -8.7576 -3.45299e+06 -3.04953e+06 -1.22419e+06 -954402 -48086.1 1.37581e+06
105 1 Mg 1.44478 16.6215 0 1.2 -6.07725 5.17338e+06 -283064 -6.25877e+06 1.40242e+06 -35689.4 589184
106 3 O 3.0436 17.9389 5.78248 -1.2 -8.83699 -3.42279e+06 -3.31397e+06 -1.84933e+06 -935814 -277060 -1.39822e+06
107 1 Mg -1.40524 16.6628 1.4948 1.2 -8.80661 901881 1.41232e+06 5.00545e+06 1.68779e+06 -960077 110686
108 2 Si 0.420358 14.5979 1.4948 2.4 -34.9593 8.77925e+06 1.08823e+07 1.22302e+07 -137578 535316 1.75368e+06
109 3 O 0.408732 12.9847 1.4948 -1.2 -4.45288 -1.04037e+06 -542747 -3.53384e+07 231367 -2.55074e+06 4.66089e+06
110 3 O 7.03923 15.572 1.4948 -1.2 -9.28088 -5.00496e+06 -1.0047e+06 -1.57919e+06 -943043 -1.32644e+06 1.32943e+06
111 3 O -0.248332 15.3041 0.196716 -1.2 -3.32455 -373939 -1.23413e+07 -3.08796e+07 3.25313e+06 -5.42358e+06 4.36337e+06
112 3 O -0.289436 15.3041 2.79288 -1.2 -8.56634 -2.26285e+06 -3.49471e+06 -2.67049e+06 -853991 61221.4 1.39483e+06
113 1 Mg 6.59566 18.996 0 1.2 -6.09262 5.44735e+06 28123.3 -6.03376e+06 -932000 -692425 -1.06263e+06
114 1 Mg 3.85574 23.7037 1.4948 1.2 -8.99516 378893 1.52989e+06 5.31982e+06 -1.19072e+06 -958100 -213607
115 2 Si 5.66125 21.0195 1.4948 2.4 -35.051 9.73701e+06 9.71722e+06 1.27083e+07 147118 1.19316e+06 -2.41194e+06
116 3 O 5.72074 22.6328 1.4948 -1.2 -5.27375 -3.92996e+06 -47085.5 -2.79235e+07 -198308 -8.48807e+06 -3.65804e+06
117 3 O 2.03867 20.0455 1.4948 -1.2 -9.19897 -5.00767e+06 -675482 -1.86642e+06 1.55299e+06 -1.14503e+06 -935170
118 3 O 4.96004 20.3134 0.196716 -1.2 -3.48351 -943233 -1.39915e+07 -2.71665e+07 -3.17811e+06 -7.92671e+06 -2.67309e+06
119 1 Mg 6.55057 18.996 2.9896 1.2 -8.32633 4.91998e+06 -2.24804e+06 235875 1.26866e+06 -1.18714e+06 1.92486e+06
120 3 O 4.92172 20.3134 2.79288 -1.2 -8.44815 -2.50511e+06 -3.143e+06 -2.85081e+06 1.10512e+06 -65984.9 -1.2356e+06
121 1 Mg -0.84282 19.0373 4.4844 1.2 -9.05615 -462690 1.96392e+06 3.82536e+06 -490728 -227768 -70594.4
122 2 Si -2.64823 21.7214 4.4844 2.4 -33.6511 1.27885e+07 7.28877e+06 1.00053e+07 -46100.6 -100683 -131771
123 3 O -2.70847 20.1082 4.4844 -1.2 -9.09136 -4.58674e+06 533272 -4.38969e+06 349408 -158276 6157.02
124 3 O 0.97581 22.6955 4.4844 -1.2 -8.83458 -3.9462e+06 -2.0277e+06 -3.94266e+06 2.14753e+06 -519241 112702
125 3 O -1.9076 22.4276 3.18632 -1.2 -8.64551 -3.55417e+06 -2.77059e+06 -1.42374e+06 1.16336e+06 -91154.7 -1.43798e+06
126 3 O -1.9475 22.4276 5.78248 -1.2 -8.55736 -3.70206e+06 -2.78345e+06 -2.51721e+06 1.16224e+06 -5575.27 1.59963e+06
127 1 Mg 1.50678 21.3705 2.9896 1.2 -8.3948 4.98288e+06 -2.25436e+06 265644 -1.13192e+06 -1.25239e+06 -1.64939e+06
128 1 Mg 4.31086 21.3292 4.4844 1.2 -9.08169 -81214.2 1.7305e+06 3.8276e+06 1.14049e+06 -318995 13855.1
129 2 Si 2.49243 23.394 4.4844 2.4 -33.6878 1.23696e+07 7.7255e+06 1.00063e+07 751749 -188204 -44406.9
130 3 O 2.51204 25.0073 4.4844 -1.2 -9.05741 -4.4099e+06 354392 -4.56238e+06 509010 -93837 -61573.4
131 3 O -4.13026 22.42 4.4844 -1.2 -8.91194 -4.19395e+06 -1.80407e+06 -3.75646e+06 -1.34419e+06 -412463 46661.7
132 3 O 3.19799 22.6879 3.18632 -1.2 -8.66592 -3.4608e+06 -2.92903e+06 -1.53524e+06 -917809 55577 1.31756e+06
133 1 Mg 1.5501 21.3705 0 1.2 -6.18898 6.14375e+06 1.09738e+06 -5.65252e+06 -42867 -968858 444248
134 3 O 3.1583 22.6879 5.78248 -1.2 -8.55586 -3.45038e+06 -3.2e+06 -2.48204e+06 -858099 -22305.8 -1.04974e+06
135 1 Mg -1.29822 21.4118 1.4948 1.2 -8.94287 801974 1.39201e+06 5.23961e+06 1.80518e+06 -921641 258314
136 2 Si 0.523568 19.3469 1.4948 2.4 -35.0635 9.38682e+06 1.00813e+07 1.26189e+07 342510 997972 2.41757e+06
137 3 O 0.508934 17.7337 1.4948 -1.2 -4.69678 -2.18342e+06 -270163 -3.2847e+07 655575 -6.07445e+06 4.25341e+06
138 3 O 7.14425 20.321 1.4948 -1.2 -9.23793 -5.15019e+06 -522778 -1.79354e+06 -919180 -1.07447e+06 1.06989e+06
139 3 O -0.145107 20.0531 0.196716 -1.2 -3.5819 -1.27667e+06 -1.3662e+07 -2.72083e+07 3.67374e+06 -8.21251e+06 3.13891e+06
140 3 O -0.183601 20.0531 2.79288 -1.2 -8.47708 -2.44521e+06 -3.29175e+06 -2.88295e+06 -867952 -26709.6 1.09015e+06
141 1 Mg 6.70502 23.745 0 1.2 -6.19318 5.94056e+06 1.36231e+06 -5.31632e+06 391231 -1.48201e+06 -590520
142 1 Mg 3.97493 28.4527 1.4948 1.2 -9.0176 -75266 1.78309e+06 5.32412e+06 -1.21501e+06 -829662 -90498.4
143 2 Si 5.77602 25.7685 1.4948 2.4 -34.8635 1.02529e+07 9.32769e+06 1.23692e+07 -140800 1.45933e+06 -2.30326e+06
144 3 O 5.83821 27.3818 1.4948 -1.2 -6.12414 -5.57567e+06 1808.59 -2.17291e+07 -337766 -9.2479e+06 -3.0956e+06
145 3 O 2.15175 24.7945 1.4948 -1.2 -9.21989 -4.93875e+06 -534481 -1.90856e+06 1.60233e+06 -913210 -932385
146 3 O 5.07184 25.0624 0.196716 -1.2 -4.12523 -2.1288e+06 -1.47538e+07 -2.15697e+07 -2.77762e+06 -9.39381e+06 -1.4369e+06
147 1 Mg 6.66374 23.745 2.9896 1.2 -8.33434 5.07945e+06 -2.30712e+06 151294 1.28278e+06 -1.26671e+06 1.909e+06
148 3 O 5.03707 25.0624 2.79288 -1.2 -8.45175 -2.47636e+06 -3.24104e+06 -2.81409e+06 1.12036e+06 -69912.3 -1.2324e+06
149 1 Mg -0.727559 23.7863 4.4844 1.2 -9.07928 -295153 1.88416e+06 3.76552e+06 -427563 -123698 -117906
150 2 Si -2.5277 26.4704 4.4844 2.4 -33.4155 1.28368e+07 7.61136e+06 9.25448e+06 4719.66 -137207 95068.2
151 3 O -2.59107 24.8572 4.4844 -1.2 -9.13625 -4.67475e+06 459798 -4.14334e+06 365734 -107106 67788.6
152 3 O 1.09817 27.4445 4.4844 -1.2 -8.90534 -3.79774e+06 -2.08102e+06 -3.93618e+06 2.22607e+06 -585195 -39342.8
153 3 O -1.78784 27.1766 3.18632 -1.2 -8.70957 -3.48175e+06 -2.89334e+06 -1.33095e+06 1.17414e+06 -44190.4 -1.54835e+06
154 3 O -1.82343 27.1766 5.78248 -1.2 -8.80865 -3.67371e+06 -2.91254e+06 -1.8454e+06 1.15807e+06 -301174 1.27588e+06
155 1 Mg 1.62435 26.1195 2.9896 1.2 -8.35157 4.95896e+06 -2.15821e+06 127180 -1.13238e+06 -1.2651e+06 -1.5708e+06
156 1 Mg 4.43064 26.0782 4.4844 1.2 -9.04534 -269071 1.93597e+06 3.75351e+06 1.16504e+06 -408382 159494
157 2 Si 2.61607 28.143 4.4844 2.4 -33.5544 1.19573e+07 7.69883e+06 1.023e+07 826956 -105266 157444
158 3 O 2.63853 29.7563 4.4844 -1.2 -9.1593 -4.26967e+06 389290 -4.58854e+06 521967 -140548 -26236.7
159 3 O -4.00841 27.169 4.4844 -1.2 -9.02367 -4.12498e+06 -1.9536e+06 -3.50311e+06 -1.33436e+06 -208301 -168736
160 3 O 3.3182 27.4369 3.18632 -1.2 -8.70688 -3.26337e+06 -3.03652e+06 -1.6373e+06 -917222 157103 1.21915e+06
161 1 Mg 1.66335 26.1195 0 1.2 -6.23189 5.94178e+06 1.81158e+06 -4.87674e+06 -888739 -1.60046e+06 221106
162 3 O 3.28288 27.4369 5.78248 -1.2 -8.57234 -3.07918e+06 -3.16473e+06 -2.91107e+06 -961273 -17457.9 -1.46298e+06
163 1 Mg -1.18278 26.1608 1.4948 1.2 -8.98672 477692 1.6632e+06 5.17074e+06 1.88676e+06 -782808 190984
164 2 Si 0.635424 24.0959 1.4948 2.4 -34.9651 9.97358e+06 9.61248e+06 1.24106e+07 783171 1.42341e+06 2.5617e+06
165 3 O 0.617906 22.4827 1.4948 -1.2 -5.26217 -3.95968e+06 -42752.2 -2.80511e+07 992811 -8.55774e+06 3.64446e+06
166 3 O 7.25781 25.07 1.4948 -1.2 -9.27383 -5.1209e+06 -398498 -1.76977e+06 -922545 -845790 1.03784e+06
167 3 O -0.0337363 24.8021 0.196716 -1.2 -4.22384 -2.53559e+06 -1.47105e+07 -2.14602e+07 3.49528e+06 -9.66976e+06 1.84201e+06
168 3 O -0.0687235 24.8021 2.79288 -1.2 -8.48528 -2.48424e+06 -3.36028e+06 -2.81459e+06 -862401 -152589 1.02979e+06
169 1 Mg 6.82195 28.494 0 1.2 -6.26303 5.3957e+06 1.86878e+06 -4.28648e+06 1.1588e+06 -1.81365e+06 -484452
170 1 Mg 4.10106 33.2017 1.4948 1.2 -8.97646 -589882 2.11452e+06 5.10098e+06 -1.19962e+06 -559196 9944.68
171 2 Si 5.89839 30.5175 1.4948 2.4 -34.5212 1.07013e+07 8.75771e+06 1.20253e+07 -305580 1.60448e+06 -1.96936e+06
172 3 O 5.96289 32.1308 1.4948 -1.2 -7.07419 -6.54999e+06 29775 -1.56056e+07 -299590 -8.4218e+06 -2.54247e+06
173 3 O 2.27266 29.5435 1.4948 -1.2 -9.29425 -4.76073e+06 -461727 -1.99292e+06 1.65783e+06 -710761 -951572
174 3 O 5.19102 29.8114 0.196716 -1.2 -5.03425 -3.37629e+06 -1.43344e+07 -1.54835e+07 -1.94564e+06 -9.2465e+06 -190033
175 1 Mg 6.78546 28.494 2.9896 1.2 -8.23721 5.04359e+06 -2.24654e+06 -23623.8 1.31384e+06 -1.36464e+06 2.05086e+06
176 3 O 5.16061 29.8114 2.79288 -1.2 -8.53698 -2.36434e+06 -3.27802e+06 -2.79336e+06 1.08168e+06 -139998 -1.31129e+06
177 1 Mg -0.603205 28.5353 4.4844 1.2 -8.97417 -459092 1.89178e+06 3.7459e+06 -540465 -18626.8 101906
178 2 Si -2.39877 31.2194 4.4844 2.4 -33.2844 1.23519e+07 7.44548e+06 9.70621e+06 39720.6 -277837 314988
179 3 O -2.46483 29.6062 4.4844 -1.2 -9.23521 -4.53139e+06 516683 -4.17573e+06 419537 -40556.6 -226953
180 3 O 1.22864 32.1935 4.4844 -1.2 -9.03997 -3.77209e+06 -2.1475e+06 -3.69079e+06 2.2838e+06 -446359 -44056.9
181 3 O -1.66032 31.9256 3.18632 -1.2 -8.78281 -3.2351e+06 -2.95061e+06 -1.4783e+06 1.17206e+06 83616.2 -1.59251e+06
182 3 O -1.69072 31.9256 5.78248 -1.2 -8.80342 -3.34455e+06 -2.77642e+06 -2.42468e+06 1.16655e+06 -11664.8 1.33621e+06
183 1 Mg 1.7499 30.8685 2.9896 1.2 -8.23718 4.91307e+06 -2.10373e+06 -58149.8 -1.14445e+06 -1.33907e+06 -1.51186e+06
184 1 Mg 4.55894 30.8272 4.4844 1.2 -8.94906 -474467 1.91117e+06 3.82906e+06 1.28955e+06 -240618 157976
185 2 Si 2.7476 32.892 4.4844 2.4 -33.2818 1.18345e+07 7.85761e+06 9.75506e+06 758371 11715.5 158114
186 3 O 2.77235 34.5053 4.4844 -1.2 -9.28155 -4.17714e+06 317349 -4.4188e+06 580760 -131080 18539
187 3 O -3.87837 31.918 4.4844 -1.2 -9.0997 -3.90108e+06 -1.90865e+06 -3.6447e+06 -1.35787e+06 -233623 -150254
188 3 O 3.44611 32.1859 3.18632 -1.2 -8.80396 -3.08953e+06 -3.14586e+06 -1.6416e+06 -891648 166271 1.1919e+06
189 1 Mg 1.7837 30.8685 0 1.2 -6.2712 4.85839e+06 1.99608e+06 -3.9756e+06 -1.36156e+06 -1.5374e+06 406600
190 3 O 3.41602 32.1859 5.78248 -1.2 -8.75996 -2.97415e+06 -3.22425e+06 -2.52381e+06 -908860 -325194 -1.32369e+06
191 1 Mg -1.05984 30.9098 1.4948 1.2 -8.97855 -16745.7 1.90279e+06 5.11064e+06 1.89708e+06 -595665 197217
192 2 Si 0.755243 28.8449 1.4948 2.4 -34.6733 1.04619e+07 9.07697e+06 1.20752e+07 1.11914e+06 1.67882e+06 2.53131e+06
193 3 O 0.735127 27.2317 1.4948 -1.2 -6.11364 -5.63457e+06 17511.9 -2.18397e+07 1.17341e+06 -9.36036e+06 3.03427e+06
194 3 O 7.37914 29.819 1.4948 -1.2 -9.35028 -4.93127e+06 -331944 -1.87087e+06 -933504 -616901 950872
195 3 O 0.0850649 29.5511 0.196716 -1.2 -5.10501 -3.70763e+06 -1.46665e+07 -1.5353e+07 2.71105e+06 -9.47159e+06 464536
196 3 O 0.0543974 29.5511 2.79288 -1.2 -8.57665 -2.4131e+06 -3.40905e+06 -2.74328e+06 -808701 -207350 909487
197 1 Mg 6.94543 33.243 0 1.2 -6.29349 4.13155e+06 2.08579e+06 -3.51702e+06 1.58718e+06 -1.44222e+06 -609539
198 1 Mg 4.23267 37.9507 1.4948 1.2 -8.87415 -1.12208e+06 2.58869e+06 4.58055e+06 -1.12402e+06 -201228 -49502.4
199 2 Si 6.02709 35.2665 1.4948 2.4 -34.0622 1.09994e+07 8.51734e+06 1.12821e+07 -400145 1.58752e+06 -1.80425e+06
200 3 O 6.09339 36.8798 1.4948 -1.2 -7.98176 -6.5842e+06 -174602 -1.04066e+07 -144352 -6.62271e+06 -1.95196e+06
201 3 O 2.40018 34.2925 1.4948 -1.2 -9.39973 -4.50467e+06 -614936 -1.97912e+06 1.69641e+06 -522975 -945252
202 3 O 5.31645 34.5604 0.196716 -1.2 -6.08601 -4.2018e+06 -1.29528e+07 -9.91854e+06 -944352 -7.82384e+06 918429
203 1 Mg 6.91449 33.243 2.9896 1.2 -8.12649 4.87031e+06 -2.13713e+06 -128875 1.32154e+06 -1.42679e+06 2.01431e+06
204 3 O 5.291 34.5604 2.79288 -1.2 -8.66508 -2.25367e+06 -3.43879e+06 -2.57465e+06 1.09972e+06 -243180 -1.24119e+06
205 1 Mg -0.471101 33.2843 4.4844 1.2 -8.88392 -657796 1.96453e+06 3.72325e+06 -472686 -127479 65190.3
206 2 Si -2.26307 35.9684 4.4844 2.4 -33.0933 1.16904e+07 8.03849e+06 9.46878e+06 62009 -303246 66800.1
207 3 O -2.33122 34.3552 4.4844 -1.2 -9.32078 -4.23184e+06 320347 -4.13352e+06 417090 -1896.63 -86690
208 3 O 1.36549 36.9425 4.4844 -1.2 -9.18928 -3.63214e+06 -2.41165e+06 -3.34002e+06 2.33014e+06 -334309 151904
209 3 O -1.52658 36.6746 3.18632 -1.2 -8.88946 -2.90978e+06 -3.26053e+06 -1.42105e+06 1.16666e+06 169344 -1.47648e+06
210 3 O -1.55122 36.6746 5.78248 -1.2 -8.87275 -2.94876e+06 -3.15908e+06 -2.17101e+06 1.26437e+06 210122 1.47536e+06
211 1 Mg 1.882 35.6175 2.9896 1.2 -8.09693 4.7891e+06 -1.90029e+06 -352207 -1.13005e+06 -1.45497e+06 -1.57395e+06
212 1 Mg 4.69415 35.5762 4.4844 1.2 -8.82483 -610274 2.07655e+06 3.60059e+06 1.30284e+06 -143964 -31322.9
213 2 Si 2.88522 37.641 4.4844 2.4 -32.9427 1.14863e+07 8.51386e+06 8.90252e+06 736790 -57437.1 -291831
214 3 O 2.91159 39.2543 4.4844 -1.2 -9.48385 -3.96429e+06 -118182 -3.87609e+06 620264 -56229.2 145295
215 3 O -3.74183 36.667 4.4844 -1.2 -9.21109 -3.66238e+06 -2.21165e+06 -3.41502e+06 -1.38038e+06 -297719 -7862.98
216 3 O 3.58014 36.9349 3.18632 -1.2 -8.93391 -2.86006e+06 -3.44541e+06 -1.47048e+06 -869202 193434 1.31655e+06
217 1 Mg 1.90997 35.6175 0 1.2 -6.2621 3.3881e+06 2.1556e+06 -3.65804e+06 -1.64826e+06 -782541 844883
218 3 O 3.55582 36.9349 5.78248 -1.2 -8.92744 -2.87377e+06 -3.47408e+06 -1.99857e+06 -906739 -181343 -886505
219 1 Mg -0.93068 35.6588 1.4948 1.2 -8.90515 -570986 2.3105e+06 4.74746e+06 1.85126e+06 -322617 117662
220 2 Si 0.881882 33.5939 1.4948 2.4 -34.2535 1.0851e+07 8.68237e+06 1.14792e+07 1.39413e+06 1.67031e+06 2.38489e+06
221 3 O 0.859602 31.9807 1.4948 -1.2 -7.067 -6.64218e+06 44166.5 -1.56824e+07 1.16966e+06 -8.50283e+06 2.367e+06
222 3 O 7.507 34.568 1.4948 -1.2 -9.45279 -4.62878e+06 -514158 -1.89378e+06 -934698 -419219 968289
223 3 O 0.210186 34.3001 0.196716 -1.2 -6.11967 -4.40716e+06 -1.36261e+07 -9.83443e+06 1.52712e+06 -7.95681e+06 -751209
224 3 O 0.184454 34.3001 2.79288 -1.2 -8.70372 -2.31333e+06 -3.55542e+06 -2.539e+06 -822569 -199304 897075
225 1 Mg 7.07415 37.992 0 1.2 -6.26294 2.75473e+06 2.2669e+06 -3.51945e+06 1.86348e+06 -374225 -1.24942e+06
226 1 Mg 4.36817 42.6997 1.4948 1.2 -8.74027 -1.52165e+06 3.03893e+06 3.93348e+06 -1.00243e+06 160435 123045
227 2 Si 6.16058 40.0155 1.4948 2.4 -33.5582 1.1105e+07 8.5549e+06 1.03391e+07 -366222 1.41061e+06 -1.68987e+06
228 3 O 6.22815 41.6288 1.4948 -1.2 -8.73178 -5.89954e+06 -478117 -6.67661e+06 30282.2 -4.56947e+06 -1.6211e+06
229 3 O 2.53282 39.0415 1.4948 -1.2 -9.51663 -4.1652e+06 -1.02585e+06 -1.88054e+06 1.72308e+06 -336069 -863979
230 3 O 5.44674 39.3094 0.196716 -1.2 -7.09945 -4.43343e+06 -1.0849e+07 -5.72582e+06 -135111 -5.82947e+06 1.8367e+06
231 1 Mg 7.04922 37.992 2.9896 1.2 -7.98169 4.61191e+06 -1.7901e+06 -438628 1.31633e+06 -1.47789e+06 1.87687e+06
232 3 O 5.42658 39.3094 2.79288 -1.2 -8.84047 -2.12158e+06 -3.78448e+06 -2.10979e+06 1.12392e+06 -342411 -1.11764e+06
233 1 Mg -0.333062 38.0333 4.4844 1.2 -8.73657 -919935 2.33011e+06 3.377e+06 -455717 -212693 -84951.8
234 2 Si -2.12255 40.7174 4.4844 2.4 -32.7606 1.08552e+07 9.11507e+06 8.70247e+06 190250 -200038 -201911
235 3 O -2.19212 39.1042 4.4844 -1.2 -9.44546 -3.82297e+06 -111472 -3.91687e+06 393069 35597 115868
236 3 O 1.50676 41.6915 4.4844 -1.2 -9.3949 -3.33025e+06 -2.91611e+06 -2.80275e+06 2.29866e+06 -188092 109052
237 3 O -1.3884 41.4236 3.18632 -1.2 -9.03736 -2.52792e+06 -3.74809e+06 -1.18131e+06 1.13561e+06 176299 -1.44315e+06
238 3 O -1.40713 41.4236 5.78248 -1.2 -9.04613 -2.34229e+06 -3.79577e+06 -1.90777e+06 1.15222e+06 179404 1.54383e+06
239 1 Mg 2.01892 40.3665 2.9896 1.2 -7.91913 4.54478e+06 -1.4629e+06 -816894 -1.10847e+06 -1.60235e+06 -1.59261e+06
240 1 Mg 4.83434 40.3252 4.4844 1.2 -8.62054 -833266 2.55529e+06 3.01948e+06 1.23159e+06 -20995.4 -135767
241 2 Si 3.02698 42.39 4.4844 2.4 -32.527 1.0822e+07 9.56783e+06 7.85216e+06 773880 -119268 -18685.4
242 3 O 3.05433 44.0033 4.4844 -1.2 -9.65478 -3.64069e+06 -626106 -3.41087e+06 585470 -43699.6 -143344
243 3 O -3.60077 41.416 4.4844 -1.2 -9.42045 -3.37669e+06 -2.77892e+06 -2.79423e+06 -1.32647e+06 -322455 81121.9
244 3 O 3.71851 41.6839 3.18632 -1.2 -9.09844 -2.54347e+06 -3.93062e+06 -1.14652e+06 -835617 212743 1.22913e+06
245 1 Mg 2.04077 40.3665 0 1.2 -6.21779 2.13897e+06 2.24518e+06 -3.9906e+06 -1.84051e+06 378611 1.54956e+06
246 3 O 3.70011 41.6839 5.78248 -1.2 -9.21494 -2.45054e+06 -4.01166e+06 -1.37273e+06 -855926 -125503 -1.05344e+06
247 1 Mg -0.796865 40.4078 1.4948 1.2 -8.7779 -1.05075e+06 2.79274e+06 4.14952e+06 1.75642e+06 3259.19 40707.6
248 2 Si 1.01387 38.3429 1.4948 2.4 -33.7526 1.10267e+07 8.65901e+06 1.05595e+07 1.52802e+06 1.39965e+06 1.93044e+06
249 3 O 0.989947 36.7297 1.4948 -1.2 -7.9762 -6.69124e+06 -154159 -1.04802e+07 1.04026e+06 -6.6216e+06 1.93699e+06
250 3 O 7.63988 39.317 1.4948 -1.2 -9.56752 -4.2779e+06 -942041 -1.80644e+06 -936791 -268763 1.08916e+06
251 3 O 0.340253 39.0491 0.196716 -1.2 -7.1103 -4.56988e+06 -1.175e+07 -5.62609e+06 372731 -5.80795e+06 -1.51061e+06
252 3 O 0.319795 39.0491 2.79288 -1.2 -8.87868 -2.16072e+06 -3.90703e+06 -2.1005e+06 -843843 -158084 966916
253 1 Mg 7.20667 42.741 0 1.2 -6.19827 1.76444e+06 2.30271e+06 -4.13238e+06 2.00185e+06 955270 -1.98382e+06
254 1 Mg 4.50613 47.4487 1.4948 1.2 -8.64702 -1.63177e+06 3.28056e+06 3.44942e+06 -849336 464042 455152
255 2 Si 6.29731 44.7645 1.4948 2.4 -33.148 1.11151e+07 8.58925e+06 9.61418e+06 -231058 999053 -889359
256 3 O 6.36567 46.3778 1.4948 -1.2 -9.23298 -4.96014e+06 -682783 -4.50741e+06 177819 -2.74175e+06 -1.7125e+06
257 3 O 2.669 43.7905 1.4948 -1.2 -9.59415 -3.82757e+06 -1.51134e+06 -1.87808e+06 1.72375e+06 -197229 -1.11371e+06
258 3 O 5.58048 44.0584 0.196716 -1.2 -7.93958 -4.19176e+06 -8.43893e+06 -3.06695e+06 316013 -3.78998e+06 2.14966e+06
259 1 Mg 7.1879 42.741 2.9896 1.2 -7.81262 4.34601e+06 -1.30271e+06 -917627 1.28446e+06 -1.54726e+06 1.97899e+06
260 3 O 5.56564 44.0584 2.79288 -1.2 -9.00748 -2.03212e+06 -4.14215e+06 -1.59864e+06 1.13839e+06 -334325 -1.37886e+06
261 1 Mg -0.19105 42.7823 4.4844 1.2 -8.55329 -1.28798e+06 2.86781e+06 2.91214e+06 -405056 -189732 -5729.07
262 2 Si -1.97909 45.4664 4.4844 2.4 -32.5003 1.04039e+07 1.00154e+07 7.83291e+06 113244 -204913 585910
263 3 O -2.04947 43.8532 4.4844 -1.2 -9.63074 -3.47923e+06 -677012 -3.39545e+06 455099 5826.81 -88086.5
264 3 O 1.65063 46.4405 4.4844 -1.2 -9.46395 -3.25606e+06 -3.21652e+06 -2.46748e+06 2.33153e+06 -143674 -330716
265 3 O -1.24745 46.1726 3.18632 -1.2 -9.10795 -2.33233e+06 -4.05827e+06 -1.05905e+06 1.14029e+06 148859 -1.80621e+06
266 3 O -1.26044 46.1726 5.78248 -1.2 -9.18703 -2.15047e+06 -4.27226e+06 -1.1758e+06 1.17692e+06 238919 1.01055e+06
267 1 Mg 2.15896 45.1155 2.9896 1.2 -7.8055 4.32855e+06 -1.08268e+06 -1.14726e+06 -1.07296e+06 -1.69367e+06 -1.25743e+06
268 1 Mg 4.97763 45.0742 4.4844 1.2 -8.4797 -1.05599e+06 2.9729e+06 2.59821e+06 1.25588e+06 -24334.6 275159
269 2 Si 3.1711 47.139 4.4844 2.4 -32.4868 1.07201e+07 9.93321e+06 7.53136e+06 750400 -938.234 761735