ITEM: TIMESTEP
62500
ITEM: NUMBER OF ATOMS
10500
ITEM: BOX BOUNDS xy xz yz pp pp pp
0.0000000000000000e+00 1.5297749999999999e+01 5.0992499999999996e+00
0.0000000000000000e+00 1.1872499999999999e+02 0.0000000000000000e+00
0.0000000000000000e+00 8.9688000000000002e+01 0.0000000000000000e+00
ITEM: ATOMS id type element xu yu zu q c_pe c_s[1] c_s[2] c_s[3] c_s[4] c_s[5] c_s[6]
1 1 Mg 6.2404 -6.37941e-06 0 1.2 -4.05501 7.31478e+06 -2.33392e+06 -5.74578e+06 -19011.7 2.6768e+06 444682
2 1 Mg 3.46349 4.70768 1.4948 1.2 -8.24016 -765839 2.25419e+06 4.80996e+06 -933494 -652212 488681
3 2 Si 5.2885 2.02354 1.4948 2.4 -34.6461 9.05731e+06 9.96756e+06 1.22767e+07 8.83135e+06 717226 -1.99667e+06
4 3 O 5.33628 3.63678 1.4948 -1.2 -4.99243 -402365 -971347 -3.41253e+07 -320955 3.8223e+06 -4.32758e+06
5 3 O 1.67294 1.04952 1.4948 -1.2 -1.37344 -1.97778e+07 -7.88797e+07 -2.63567e+06 -2.41288e+07 -80498.2 -699219
6 3 O 4.59532 1.31737 0.196716 -1.2 -3.3703 -1.37282e+06 -6.19281e+06 -3.10123e+07 -6.02274e+06 6.21272e+06 -3.25476e+06
7 1 Mg 6.18956 -6.37941e-06 2.9896 1.2 -4.61636 1.0774e+06 -2.87024e+07 -2.51401e+06 -8.84833e+06 2.50308e+06 4.61657e+06
8 3 O 4.55118 1.31737 2.79288 -1.2 -7.78794 564611 -4.19029e+06 -3.6339e+06 -2.92873e+06 -3.38828e+06 -1.67963e+06
9 1 Mg -1.20682 0.0413099 4.4844 1.2 9.14342 -3.12387e+07 -9.38744e+07 364774 -2.84236e+07 -1.14275e+06 748544
10 2 Si -3.0337 2.72544 4.4844 2.4 -32.7654 1.41381e+07 5.73013e+06 9.00999e+06 1.46332e+06 285156 63674.3
11 3 O -3.08099 1.11221 4.4844 -1.2 -9.82935 -5.92045e+06 598394 -2.60843e+06 -1.2106e+06 -335742 -221993
12 3 O 0.582463 3.69946 4.4844 -1.2 -9.08507 -2.88e+06 -4.92483e+06 -3.58978e+06 -680939 -244768 -417367
13 3 O -2.29524 3.43162 3.18632 -1.2 -9.27999 -3.95189e+06 -1.96815e+06 -1.04256e+06 1.1096e+06 -899066 -1.28669e+06
14 3 O -2.34216 3.43162 5.78248 -1.2 -8.96211 -4.08408e+06 -2.46122e+06 -2.06955e+06 884316 340490 1.20121e+06
15 1 Mg 1.12778 2.37449 2.9896 1.2 -7.37224 4.72643e+06 -2.18952e+06 -44559.4 -3.24118e+06 -4.22167e+06 -1.74451e+06
16 1 Mg 3.92855 2.33318 4.4844 1.2 -8.27992 -4.42368e+06 4.37157e+06 5.34625e+06 1.33216e+06 186445 1.02673e+06
17 2 Si 2.09341 4.39804 4.4844 2.4 -32.185 1.12133e+07 5.75562e+06 1.0528e+07 356148 -326609 1.19427e+06
18 3 O 2.09991 6.01128 4.4844 -1.2 -9.58078 -3.5915e+06 429416 -4.64082e+06 471989 -193092 -255447
19 3 O -4.52137 3.42402 4.4844 -1.2 -9.34973 -2.77381e+06 -2.29061e+06 -4.04712e+06 -2.30844e+06 -767065 -312446
20 3 O 2.80834 3.69187 3.18632 -1.2 -9.52486 -1.717e+06 -2.29532e+06 -1.04517e+06 441589 -425015 -921332
21 1 Mg 1.17857 2.37449 0 1.2 -4.80358 -1.1656e+06 -1.53143e+07 -5.90643e+06 6.51699e+06 1.15406e+06 5.12742e+06
22 3 O 2.76143 3.69187 5.78248 -1.2 -9.3497 -2.50517e+06 -1.90628e+06 -2.08444e+06 473897 228406 -502675
23 1 Mg -1.67381 2.41581 1.4948 1.2 -7.28704 1.12165e+06 -739687 4.55982e+06 1.36057e+06 -555762 1.50528e+06
24 2 Si 0.16286 0.350945 1.4948 2.4 -23.8711 -9.32954e+06 1.14353e+07 1.24381e+07 1.60894e+06 2.77489e+06 2.463e+06
25 3 O 0.15972 -1.26229 1.4948 -1.2 -5.15796 -1.0038e+07 -7.57136e+06 -2.94107e+07 -5.60741e+06 -8.49507e+06 -3.34158e+06
26 3 O 6.77654 1.32496 1.4948 -1.2 -10.6755 -5.26249e+06 2.28555e+06 -1.86171e+06 -637916 -687196 510586
27 3 O -0.508028 1.05712 0.196716 -1.2 -9.88205 641546 -4.17181e+06 -1.16829e+06 -556082 227985 -5.14159e+06
28 3 O -0.552171 1.05712 2.79288 -1.2 -7.07698 -4.8384e+06 -4.05698e+06 -2.52431e+07 1.39146e+06 -6.79994e+06 -6.09024e+06
29 1 Mg 6.31713 4.74899 0 1.2 -4.6499 -49716.7 -1.33346e+07 -5.71805e+06 -7.29667e+06 1.45286e+06 -3.17497e+06
30 1 Mg 3.54847 9.45668 1.4948 1.2 -8.16739 -25827.4 1.38337e+06 4.80275e+06 -948541 -908208 -34891.8
31 2 Si 5.36879 6.77254 1.4948 2.4 -33.8715 6.64994e+06 1.12968e+07 1.22696e+07 1.68095e+06 83087.1 -1.28495e+06
32 3 O 5.41937 8.38578 1.4948 -1.2 -4.94667 -41481.4 -586593 -3.55494e+07 752271 1.13917e+06 -4.53749e+06
33 3 O 1.75158 5.79852 1.4948 -1.2 -9.71832 -3.58238e+06 -1.95672e+06 -1.9027e+06 1.96438e+06 -1.59991e+06 -1.68383e+06
34 3 O 4.67421 6.06637 0.196716 -1.2 -4.02606 560040 -9.72857e+06 -3.18608e+07 -2.01702e+06 1.29604e+06 -4.83778e+06
35 1 Mg 6.26654 4.74899 2.9896 1.2 -7.81749 3.88365e+06 -2.14456e+06 356183 1.76577e+06 -887936 2.24485e+06
36 3 O 4.63043 6.06637 2.79288 -1.2 -9.03343 -1.29777e+06 -3.56059e+06 -2.62668e+06 927331 -29750.5 -1.75863e+06
37 1 Mg -1.12976 4.79031 4.4844 1.2 -8.6379 -755356 2.26449e+06 3.19899e+06 -691599 -216304 37572.3
38 2 Si -2.9517 7.47444 4.4844 2.4 -32.4825 1.11761e+07 8.17175e+06 8.84485e+06 -46111.7 -221580 410498
39 3 O -3.00198 5.86121 4.4844 -1.2 -9.63247 -3.97553e+06 273740 -3.89091e+06 123476 -176989 -153009
40 3 O 0.666315 8.44846 4.4844 -1.2 -9.40178 -3.14831e+06 -2.37446e+06 -3.49067e+06 2.18455e+06 -609675 -38630.4
41 3 O -2.21213 8.18062 3.18632 -1.2 -9.26429 -2.78526e+06 -3.04442e+06 -871659 1.13651e+06 -279880 -1.68531e+06
42 3 O -2.25864 8.18062 5.78248 -1.2 -9.22282 -2.99825e+06 -3.27752e+06 -1.55083e+06 1.19283e+06 12441.4 1.10923e+06
43 1 Mg 1.20893 7.12349 2.9896 1.2 -7.83831 3.79173e+06 -1.97073e+06 286878 -1.28147e+06 -1.26057e+06 -1.48321e+06
44 1 Mg 4.00982 7.08218 4.4844 1.2 -8.56624 -1.18241e+06 2.19106e+06 3.6362e+06 1.10618e+06 -385367 277669
45 2 Si 2.17861 9.14704 4.4844 2.4 -32.6247 1.06246e+07 8.53425e+06 9.239e+06 616668 163116 250160
46 3 O 2.18828 10.7603 4.4844 -1.2 -9.55004 -3.72295e+06 -30777.4 -4.08174e+06 436578 -308535 -220101
47 3 O -4.43805 8.17302 4.4844 -1.2 -9.44025 -3.14228e+06 -2.30352e+06 -3.47756e+06 -1.58355e+06 -333033 -281308
48 3 O 2.89193 8.44087 3.18632 -1.2 -9.24089 -2.47196e+06 -3.27709e+06 -1.13966e+06 -954277 -257572 1.07963e+06
49 1 Mg 1.25915 7.12349 0 1.2 -5.07694 548791 -7.95672e+06 -5.9042e+06 5.87385e+06 1.38288e+06 2.94024e+06
50 3 O 2.84547 8.44087 5.78248 -1.2 -9.04852 -2.48204e+06 -3.66305e+06 -2.21442e+06 -1.00363e+06 -280761 -1.14409e+06
51 1 Mg -1.59284 7.16481 1.4948 1.2 -8.0381 532986 983168 4.63605e+06 1.44879e+06 -906264 620076
52 2 Si 0.240329 5.09994 1.4948 2.4 -33.5934 7.50186e+06 1.00576e+07 1.22119e+07 -1.9524e+06 -1.01686e+06 2.64333e+06
53 3 O 0.234538 3.48671 1.4948 -1.2 -5.4884 -1.32977e+06 897835 -3.43083e+07 386687 5.18003e+06 3.51967e+06
54 3 O 6.85564 6.07396 1.4948 -1.2 -9.81043 -4.10859e+06 -1.41028e+06 -1.73742e+06 -1.34025e+06 -1.82036e+06 835491
55 3 O -0.429565 5.80612 0.196716 -1.2 -4.2841 -266007 -8.37112e+06 -3.19354e+07 1.85792e+06 1.1965e+06 4.20028e+06
56 3 O -0.473377 5.80612 2.79288 -1.2 -9.12961 -1.85698e+06 -3.12304e+06 -2.45044e+06 -776916 226094 1.07041e+06
57 1 Mg 6.40169 9.49799 0 1.2 -5.06878 1.27125e+06 -6.85893e+06 -6.22654e+06 -5.47148e+06 951746 -2.14516e+06
58 1 Mg 3.64209 14.2057 1.4948 1.2 -8.3449 54328.8 1.22778e+06 5.12168e+06 -1.03913e+06 -956081 -77150.8
59 2 Si 5.45748 11.5215 1.4948 2.4 -34.0132 7.17539e+06 1.084e+07 1.24039e+07 893070 274370 -1.59108e+06
60 3 O 5.51101 13.1348 1.4948 -1.2 -4.88241 -381065 -354032 -3.53646e+07 478671 -2.49671e+06 -4.59007e+06
61 3 O 1.83851 10.5475 1.4948 -1.2 -9.71815 -3.95815e+06 -1.49558e+06 -1.71683e+06 1.53984e+06 -1.63159e+06 -1.36284e+06
62 3 O 4.7611 10.8154 0.196716 -1.2 -3.80066 818070 -1.10237e+07 -3.24076e+07 -2.47393e+06 -1.75293e+06 -4.58333e+06
63 1 Mg 6.35203 9.49799 2.9896 1.2 -7.82917 3.90559e+06 -1.9459e+06 151990 1.3229e+06 -1.25897e+06 2.26754e+06
64 3 O 4.71833 10.8154 2.79288 -1.2 -8.98277 -1.60547e+06 -3.44203e+06 -2.52812e+06 1.04101e+06 45053.3 -1.58431e+06
65 1 Mg -1.0438 9.53931 4.4844 1.2 -8.5268 -923461 2.19375e+06 3.22288e+06 -648320 -289094 162067
66 2 Si -2.8604 12.2234 4.4844 2.4 -32.7418 1.13044e+07 8.08929e+06 9.22387e+06 -65429.3 -354246 582102
67 3 O -2.91391 10.6102 4.4844 -1.2 -9.58201 -3.82409e+06 163582 -4.01656e+06 236530 -44205.4 -283623
68 3 O 0.7596 13.1975 4.4844 -1.2 -9.25262 -3.40929e+06 -2.27265e+06 -3.57e+06 2.09244e+06 -622384 -337668
69 3 O -2.12001 12.9296 3.18632 -1.2 -9.13012 -2.90001e+06 -2.96326e+06 -1.05335e+06 1.15104e+06 -166450 -1.79059e+06
70 3 O -2.16532 12.9296 5.78248 -1.2 -9.00999 -3.13321e+06 -3.24683e+06 -1.88283e+06 1.06552e+06 148214 1.11152e+06
71 1 Mg 1.29891 11.8725 2.9896 1.2 -7.91634 4.03324e+06 -1.9136e+06 109979 -1.16889e+06 -1.14676e+06 -1.39418e+06
72 1 Mg 4.10033 11.8312 4.4844 1.2 -8.63929 -950122 2.29717e+06 3.4161e+06 1.10239e+06 -254060 389754
73 2 Si 2.27333 13.896 4.4844 2.4 -33.0068 1.12312e+07 8.04047e+06 9.73672e+06 688567 206120 877326
74 3 O 2.28634 15.5093 4.4844 -1.2 -9.28835 -4.01416e+06 474636 -4.69768e+06 475030 -310012 -276723
75 3 O -4.34533 12.922 4.4844 -1.2 -9.30015 -3.37169e+06 -2.18721e+06 -3.57009e+06 -1.41565e+06 -355820 -377172
76 3 O 2.98455 13.1899 3.18632 -1.2 -9.11589 -2.73301e+06 -3.12423e+06 -1.25263e+06 -950375 -208841 970886
77 1 Mg 1.34779 11.8725 0 1.2 -5.37113 2.52609e+06 -3.30992e+06 -6.15857e+06 3.56713e+06 865987 1.86198e+06
78 3 O 2.93934 13.1899 5.78248 -1.2 -8.887 -2.79934e+06 -3.59294e+06 -2.20732e+06 -895609 -344375 -1.72857e+06
79 1 Mg -1.50344 11.9138 1.4948 1.2 -8.21995 350564 1.25296e+06 4.82381e+06 1.56223e+06 -968786 681815
80 2 Si 0.326006 9.84894 1.4948 2.4 -33.9128 7.09333e+06 1.09891e+07 1.21485e+07 -626676 179472 2.80572e+06
81 3 O 0.317364 8.23571 1.4948 -1.2 -4.9491 -148936 -457298 -3.56966e+07 -110127 1.14209e+06 3.92403e+06
82 3 O 6.94307 10.823 1.4948 -1.2 -9.75804 -4.16172e+06 -1.27501e+06 -1.62918e+06 -984591 -1.47708e+06 770278
83 3 O -0.343122 10.5551 0.196716 -1.2 -3.89282 582678 -1.04879e+07 -3.25255e+07 2.46872e+06 -2.05573e+06 4.22859e+06
84 3 O -0.385966 10.5551 2.79288 -1.2 -9.03673 -1.73165e+06 -3.47549e+06 -2.42746e+06 -845619 68579.7 863626
85 1 Mg 6.49448 14.247 0 1.2 -5.37754 3.14372e+06 -2.61068e+06 -6.28026e+06 -2.98472e+06 201323 -1.32828e+06
86 1 Mg 3.74457 18.9547 1.4948 1.2 -8.52324 -7184.91 1.16178e+06 5.45775e+06 -1.10905e+06 -987041 -382751
87 2 Si 5.55495 16.2705 1.4948 2.4 -34.2352 7.83521e+06 1.00351e+07 1.29233e+07 510368 690009 -2.1485e+06
88 3 O 5.6115 17.8838 1.4948 -1.2 -5.08889 -1.58004e+06 -33015.4 -3.29249e+07 78182.4 -6.00441e+06 -4.08256e+06
89 3 O 1.93416 15.2965 1.4948 -1.2 -9.62851 -4.21484e+06 -921640 -1.92703e+06 1.52784e+06 -1.427e+06 -1.19728e+06
90 3 O 4.85636 15.5644 0.196716 -1.2 -3.71138 672009 -1.25423e+07 -3.10529e+07 -3.02459e+06 -5.11739e+06 -3.83626e+06
91 1 Mg 6.44662 14.247 2.9896 1.2 -7.96076 4.23432e+06 -2.21518e+06 302483 1.27303e+06 -1.28831e+06 2.2482e+06
92 3 O 4.81537 15.5644 2.79288 -1.2 -8.81558 -1.84411e+06 -3.11751e+06 -2.90907e+06 1.08918e+06 51632.9 -1.44085e+06
93 1 Mg -0.948271 14.2883 4.4844 1.2 -8.72245 -633725 1.91436e+06 3.51889e+06 -495788 -244821 286102
94 2 Si -2.75928 16.9724 4.4844 2.4 -33.0619 1.21888e+07 7.22512e+06 9.71628e+06 31071.8 -310469 44616.3
95 3 O -2.81617 15.3592 4.4844 -1.2 -9.39033 -4.25731e+06 575276 -4.28125e+06 269307 -23386 -218877
96 3 O 0.862762 17.9465 4.4844 -1.2 -9.07328 -3.59314e+06 -1.91021e+06 -4.02327e+06 2.21438e+06 -672653 82048.1
97 3 O -2.0185 17.6786 3.18632 -1.2 -8.99603 -3.14159e+06 -2.66581e+06 -1.34307e+06 1.15494e+06 -142475 -1.49518e+06
98 3 O -2.06164 17.6786 5.78248 -1.2 -8.87451 -3.59984e+06 -2.79552e+06 -1.97062e+06 1.02959e+06 -116219 1.42819e+06
99 1 Mg 1.39817 16.6215 2.9896 1.2 -8.07029 4.32731e+06 -2.30182e+06 448782 -1.16613e+06 -1.12213e+06 -1.57974e+06
100 1 Mg 4.20062 16.5802 4.4844 1.2 -8.88139 -624482 1.76666e+06 4.01377e+06 1.11195e+06 -409141 133029
101 2 Si 2.37796 18.645 4.4844 2.4 -33.272 1.14988e+07 7.56975e+06 1.03684e+07 655594 26176.8 -275773
102 3 O 2.39434 20.2583 4.4844 -1.2 -9.2754 -4.06356e+06 463032 -4.67557e+06 473523 -196952 99176.3
103 3 O -4.24274 17.671 4.4844 -1.2 -9.15829 -3.74573e+06 -1.80657e+06 -3.80852e+06 -1.44584e+06 -259894 -4128.04
104 3 O 3.08659 17.9389 3.18632 -1.2 -8.97091 -2.90109e+06 -2.82342e+06 -1.65362e+06 -937331 -70905 1.36126e+06
105 1 Mg 1.44478 16.6215 0 1.2 -5.58632 4.35237e+06 -508786 -5.99854e+06 1.41252e+06 -28511.3 923305
106 3 O 3.0436 17.9389 5.78248 -1.2 -8.58078 -3.03591e+06 -3.17e+06 -3.12229e+06 -887122 -110951 -917955
107 1 Mg -1.40524 16.6628 1.4948 1.2 -8.41236 382290 1.14915e+06 5.1566e+06 1.69142e+06 -963539 413140
108 2 Si 0.420358 14.5979 1.4948 2.4 -34.1602 7.57679e+06 1.0403e+07 1.26318e+07 -107283 658603 2.90169e+06
109 3 O 0.408732 12.9847 1.4948 -1.2 -4.87319 -399462 -354211 -3.54952e+07 215108 -2.60272e+06 3.98605e+06
110 3 O 7.03923 15.572 1.4948 -1.2 -9.67443 -4.43152e+06 -742116 -1.78431e+06 -938777 -1.25571e+06 894136
111 3 O -0.248332 15.3041 0.196716 -1.2 -3.81424 370790 -1.20894e+07 -3.10928e+07 3.24576e+06 -5.42481e+06 3.85058e+06
112 3 O -0.289436 15.3041 2.79288 -1.2 -8.87304 -1.93534e+06 -3.21987e+06 -2.78096e+06 -875906 -27662.4 888467
113 1 Mg 6.59566 18.996 0 1.2 -5.61032 4.69698e+06 -185489 -5.84258e+06 -921240 -688110 -1.06748e+06
114 1 Mg 3.85574 23.7037 1.4948 1.2 -8.64204 -237134 1.22362e+06 5.67638e+06 -1.17901e+06 -926524 -382888
115 2 Si 5.66125 21.0195 1.4948 2.4 -34.3056 8.49187e+06 9.2818e+06 1.31948e+07 183161 1.12831e+06 -2.68676e+06
116 3 O 5.72074 22.6328 1.4948 -1.2 -5.63645 -3.32044e+06 230769 -2.82305e+07 -213574 -8.45776e+06 -3.49777e+06
117 3 O 2.03867 20.0455 1.4948 -1.2 -9.57081 -4.36412e+06 -478119 -2.11184e+06 1.56415e+06 -1.17787e+06 -819457
118 3 O 4.96004 20.3134 0.196716 -1.2 -3.92918 -189120 -1.37541e+07 -2.74449e+07 -3.19218e+06 -7.92295e+06 -2.5483e+06
119 1 Mg 6.55057 18.996 2.9896 1.2 -8.03507 4.50271e+06 -2.43412e+06 372602 1.30718e+06 -1.28781e+06 1.89899e+06
120 3 O 4.92172 20.3134 2.79288 -1.2 -8.74684 -1.94088e+06 -3.02555e+06 -3.05534e+06 1.07032e+06 -13324 -1.13247e+06
121 1 Mg -0.84282 19.0373 4.4844 1.2 -8.82119 -572234 1.71105e+06 3.81061e+06 -555775 -135444 -73062.9
122 2 Si -2.64823 21.7214 4.4844 2.4 -33.0735 1.21464e+07 6.97663e+06 1.0026e+07 -132801 -309206 -180679
123 3 O -2.70847 20.1082 4.4844 -1.2 -9.35778 -4.33961e+06 669795 -4.34776e+06 341502 -79147.1 13387.7
124 3 O 0.97581 22.6955 4.4844 -1.2 -9.11447 -3.60313e+06 -1.7867e+06 -4.09497e+06 2.14552e+06 -640284 207289
125 3 O -1.9076 22.4276 3.18632 -1.2 -8.96837 -3.14342e+06 -2.54762e+06 -1.54522e+06 1.19359e+06 -38766.4 -1.31965e+06
126 3 O -1.9475 22.4276 5.78248 -1.2 -8.88543 -3.55246e+06 -2.50204e+06 -2.25221e+06 1.24347e+06 -43155.5 1.54942e+06
127 1 Mg 1.50678 21.3705 2.9896 1.2 -8.08811 4.47766e+06 -2.40932e+06 434367 -1.14104e+06 -1.17794e+06 -1.79097e+06
128 1 Mg 4.31086 21.3292 4.4844 1.2 -8.85743 -634313 1.79394e+06 3.95558e+06 1.19911e+06 -329863 49860.6
129 2 Si 2.49243 23.394 4.4844 2.4 -33.2 1.14472e+07 7.22038e+06 1.06476e+07 872500 175182 -274654
130 3 O 2.51204 25.0073 4.4844 -1.2 -9.3219 -3.96484e+06 586977 -4.82754e+06 515769 -312485 261950
131 3 O -4.13026 22.42 4.4844 -1.2 -9.15715 -3.70551e+06 -1.67909e+06 -3.98694e+06 -1.3295e+06 -258394 20469.6
132 3 O 3.19799 22.6879 3.18632 -1.2 -8.95503 -2.89664e+06 -2.74262e+06 -1.82693e+06 -951046 -9853.14 1.43828e+06
133 1 Mg 1.5501 21.3705 0 1.2 -5.74809 5.41975e+06 810857 -5.34842e+06 -64398.3 -959907 226807
134 3 O 3.1583 22.6879 5.78248 -1.2 -8.68492 -2.96709e+06 -3.00558e+06 -2.96707e+06 -1.03812e+06 -212684 -1.27484e+06
135 1 Mg -1.29822 21.4118 1.4948 1.2 -8.56109 257658 1.13734e+06 5.42687e+06 1.79441e+06 -929159 92332.4
136 2 Si 0.523568 19.3469 1.4948 2.4 -34.301 8.21591e+06 9.65002e+06 1.29993e+07 300885 1.08369e+06 2.31767e+06
137 3 O 0.508934 17.7337 1.4948 -1.2 -5.07788 -1.60174e+06 -25727 -3.30622e+07 667798 -6.13168e+06 4.10532e+06
138 3 O 7.14425 20.321 1.4948 -1.2 -9.62148 -4.5799e+06 -303349 -1.9693e+06 -929283 -1.0417e+06 1.17652e+06
139 3 O -0.145107 20.0531 0.196716 -1.2 -4.0407 -584355 -1.34336e+07 -2.73949e+07 3.68815e+06 -8.21555e+06 3.25997e+06
140 3 O -0.183601 20.0531 2.79288 -1.2 -8.79572 -2.02359e+06 -3.09458e+06 -2.99255e+06 -832019 -85353.3 1.1842e+06
141 1 Mg 6.70502 23.745 0 1.2 -5.78974 5.31385e+06 926096 -4.89979e+06 406666 -1.51177e+06 -756590
142 1 Mg 3.97493 28.4527 1.4948 1.2 -8.65908 -648384 1.72175e+06 5.38422e+06 -1.21678e+06 -775911 -94336.4
143 2 Si 5.77602 25.7685 1.4948 2.4 -34.165 9.06312e+06 8.7813e+06 1.29862e+07 -98599.8 1.43557e+06 -2.50357e+06
144 3 O 5.83821 27.3818 1.4948 -1.2 -6.47601 -4.97946e+06 161323 -2.19214e+07 -357555 -9.25564e+06 -3.06224e+06
145 3 O 2.15175 24.7945 1.4948 -1.2 -9.57502 -4.36786e+06 -224245 -2.2216e+06 1.61091e+06 -969957 -775148
146 3 O 5.07184 25.0624 0.196716 -1.2 -4.50848 -1.51183e+06 -1.43352e+07 -2.19917e+07 -2.78676e+06 -9.40483e+06 -1.34898e+06
147 1 Mg 6.66374 23.745 2.9896 1.2 -8.02502 4.55671e+06 -2.54279e+06 414066 1.29194e+06 -1.36434e+06 1.7826e+06
148 3 O 5.03707 25.0624 2.79288 -1.2 -8.75625 -1.88512e+06 -3.01849e+06 -3.14095e+06 1.08159e+06 -70223.3 -1.05309e+06
149 1 Mg -0.727559 23.7863 4.4844 1.2 -8.76204 -581631 1.59401e+06 3.83189e+06 -513638 -141914 -300414
150 2 Si -2.5277 26.4704 4.4844 2.4 -32.8579 1.17976e+07 7.51674e+06 9.49417e+06 118938 -477422 -292543
151 3 O -2.59107 24.8572 4.4844 -1.2 -9.41574 -4.25974e+06 659377 -4.31795e+06 368497 81677 228332
152 3 O 1.09817 27.4445 4.4844 -1.2 -9.25064 -3.45852e+06 -2.09991e+06 -3.71445e+06 2.36128e+06 -573362 209273
153 3 O -1.78784 27.1766 3.18632 -1.2 -9.03115 -2.96135e+06 -2.82821e+06 -1.4036e+06 1.16064e+06 58916.2 -1.43509e+06
154 3 O -1.82343 27.1766 5.78248 -1.2 -9.07775 -3.18536e+06 -2.99346e+06 -1.86599e+06 1.09404e+06 -61674.4 1.50433e+06
155 1 Mg 1.62435 26.1195 2.9896 1.2 -8.01808 4.49998e+06 -2.31958e+06 213177 -1.17684e+06 -1.19234e+06 -1.77413e+06
156 1 Mg 4.43064 26.0782 4.4844 1.2 -8.80421 -852654 1.85257e+06 4.03406e+06 1.24751e+06 -309300 -229156
157 2 Si 2.61607 28.143 4.4844 2.4 -32.8753 1.12149e+07 7.95493e+06 9.62449e+06 627994 74701.2 -457420
158 3 O 2.63853 29.7563 4.4844 -1.2 -9.5025 -3.92661e+06 174978 -4.17406e+06 607480 -143966 112135
159 3 O -4.00841 27.169 4.4844 -1.2 -9.2748 -3.49706e+06 -2.00523e+06 -3.682e+06 -1.46109e+06 -201025 94304.5
160 3 O 3.3182 27.4369 3.18632 -1.2 -9.03133 -2.75968e+06 -3.01012e+06 -1.65004e+06 -899926 57565.8 1.43724e+06
161 1 Mg 1.66335 26.1195 0 1.2 -5.85068 5.31721e+06 1.42064e+06 -4.47201e+06 -895015 -1.56777e+06 222683
162 3 O 3.28288 27.4369 5.78248 -1.2 -8.89031 -2.71133e+06 -3.34601e+06 -2.54172e+06 -922375 -275247 -744957
163 1 Mg -1.18278 26.1608 1.4948 1.2 -8.62838 -70833.5 1.40804e+06 5.40025e+06 1.87918e+06 -833103 125499
164 2 Si 0.635424 24.0959 1.4948 2.4 -34.2404 8.87798e+06 8.97091e+06 1.29867e+07 748651 1.47368e+06 2.21114e+06
165 3 O 0.617906 22.4827 1.4948 -1.2 -5.63259 -3.39342e+06 241493 -2.83093e+07 1.00858e+06 -8.58751e+06 3.84195e+06
166 3 O 7.25781 25.07 1.4948 -1.2 -9.62868 -4.55273e+06 -94649.3 -2.07396e+06 -932213 -790317 1.15215e+06
167 3 O -0.0337363 24.8021 0.196716 -1.2 -4.60782 -1.9213e+06 -1.42792e+07 -2.18918e+07 3.50474e+06 -9.65948e+06 1.95501e+06
168 3 O -0.0687235 24.8021 2.79288 -1.2 -8.82376 -2.04472e+06 -3.11863e+06 -2.95737e+06 -825317 -153137 1.20913e+06
169 1 Mg 6.82195 28.494 0 1.2 -5.86837 4.77683e+06 1.68501e+06 -4.11619e+06 1.16049e+06 -1.82876e+06 -323328
170 1 Mg 4.10106 33.2017 1.4948 1.2 -8.66259 -1.07553e+06 2.30195e+06 4.89635e+06 -1.20217e+06 -519139 68226.9
171 2 Si 5.89839 30.5175 1.4948 2.4 -33.8187 9.54085e+06 8.97048e+06 1.18475e+07 -296079 1.6833e+06 -1.85104e+06
172 3 O 5.96289 32.1308 1.4948 -1.2 -7.40667 -6.00348e+06 -152596 -1.54369e+07 -298353 -8.46514e+06 -2.60488e+06
173 3 O 2.27266 29.5435 1.4948 -1.2 -9.6564 -4.2102e+06 -487049 -1.93805e+06 1.67068e+06 -723549 -1.00081e+06
174 3 O 5.19102 29.8114 0.196716 -1.2 -5.42874 -2.75431e+06 -1.4305e+07 -1.55021e+07 -1.94264e+06 -9.28687e+06 -350926
175 1 Mg 6.78546 28.494 2.9896 1.2 -7.92418 4.44566e+06 -2.20221e+06 28428.1 1.36021e+06 -1.37031e+06 1.94548e+06
176 3 O 5.16061 29.8114 2.79288 -1.2 -8.86165 -1.81828e+06 -3.42182e+06 -2.67676e+06 1.07325e+06 -221986 -1.23635e+06
177 1 Mg -0.603205 28.5353 4.4844 1.2 -8.65817 -925720 1.98347e+06 3.61452e+06 -547083 -181775 -26979.3
178 2 Si -2.39877 31.2194 4.4844 2.4 -32.7745 1.1128e+07 8.12671e+06 9.4266e+06 114502 -264756 87913.4
179 3 O -2.46483 29.6062 4.4844 -1.2 -9.50292 -3.90949e+06 291298 -4.154e+06 335343 8055.69 -53637.3
180 3 O 1.22864 32.1935 4.4844 -1.2 -9.32912 -3.40359e+06 -2.36774e+06 -3.37887e+06 2.28162e+06 -326677 61115.5
181 3 O -1.66032 31.9256 3.18632 -1.2 -9.06519 -2.69872e+06 -3.19473e+06 -1.32123e+06 1.1633e+06 125795 -1.56853e+06
182 3 O -1.69072 31.9256 5.78248 -1.2 -9.00512 -2.74093e+06 -3.21674e+06 -2.1889e+06 1.18212e+06 73549.8 1.4357e+06
183 1 Mg 1.7499 30.8685 2.9896 1.2 -7.90908 4.46587e+06 -1.93192e+06 -308412 -1.16213e+06 -1.38093e+06 -1.52764e+06
184 1 Mg 4.55894 30.8272 4.4844 1.2 -8.63675 -887333 2.21853e+06 3.43391e+06 1.25389e+06 -99800.3 -2496.12
185 2 Si 2.7476 32.892 4.4844 2.4 -32.6969 1.1262e+07 8.3725e+06 8.87711e+06 811796 -41716.8 -19629.4
186 3 O 2.77235 34.5053 4.4844 -1.2 -9.5252 -3.95863e+06 22834.3 -3.9405e+06 555518 -150257 25069.6
187 3 O -3.87837 31.918 4.4844 -1.2 -9.35332 -3.36379e+06 -2.28543e+06 -3.41237e+06 -1.3624e+06 -389038 -65437.7
188 3 O 3.44611 32.1859 3.18632 -1.2 -9.10929 -2.68997e+06 -3.38494e+06 -1.31306e+06 -886245 133633 1.21111e+06
189 1 Mg 1.7837 30.8685 0 1.2 -5.8738 4.20622e+06 2.04382e+06 -4.0078e+06 -1.35527e+06 -1.54603e+06 596506
190 3 O 3.41602 32.1859 5.78248 -1.2 -9.10187 -2.76821e+06 -3.40944e+06 -2.00337e+06 -958002 -235895 -1.21525e+06
191 1 Mg -1.05984 30.9098 1.4948 1.2 -8.63032 -591105 2.02086e+06 5.00899e+06 1.90107e+06 -641796 281322
192 2 Si 0.755243 28.8449 1.4948 2.4 -33.9485 9.35075e+06 9.00132e+06 1.21007e+07 1.09324e+06 1.62831e+06 2.62111e+06
193 3 O 0.735127 27.2317 1.4948 -1.2 -6.47474 -5.08864e+06 192370 -2.19827e+07 1.19329e+06 -9.35514e+06 3.06162e+06
194 3 O 7.37914 29.819 1.4948 -1.2 -9.70327 -4.33516e+06 -380898 -1.85262e+06 -945209 -605054 887917
195 3 O 0.0850649 29.5511 0.196716 -1.2 -5.49659 -3.07145e+06 -1.4607e+07 -1.54206e+07 2.70864e+06 -9.43511e+06 283340
196 3 O 0.0543974 29.5511 2.79288 -1.2 -8.91133 -1.90657e+06 -3.49861e+06 -2.62556e+06 -798594 -132523 928772
197 1 Mg 6.94543 33.243 0 1.2 -5.9229 3.55081e+06 2.22804e+06 -3.6723e+06 1.58638e+06 -1.42467e+06 -519258
198 1 Mg 4.23267 37.9507 1.4948 1.2 -8.76677 -1.29362e+06 2.45465e+06 4.71409e+06 -1.12959e+06 -187869 -28332.9
199 2 Si 6.02709 35.2665 1.4948 2.4 -33.5827 1.02109e+07 8.73785e+06 1.1082e+07 -415900 1.62714e+06 -1.76313e+06
200 3 O 6.09339 36.8798 1.4948 -1.2 -8.14647 -6.31545e+06 -152209 -1.0433e+07 -135847 -6.61779e+06 -1.96158e+06
201 3 O 2.40018 34.2925 1.4948 -1.2 -9.68195 -4.07589e+06 -777112 -1.79283e+06 1.69478e+06 -522584 -992403
202 3 O 5.31645 34.5604 0.196716 -1.2 -6.40739 -3.69261e+06 -1.30445e+07 -9.81979e+06 -949517 -7.85777e+06 876216
203 1 Mg 6.91449 33.243 2.9896 1.2 -7.86967 4.38192e+06 -1.8806e+06 -308475 1.31015e+06 -1.38814e+06 2.00427e+06
204 3 O 5.291 34.5604 2.79288 -1.2 -8.89376 -1.87488e+06 -3.65147e+06 -2.37228e+06 1.12423e+06 -303645 -1.26033e+06
205 1 Mg -0.471101 33.2843 4.4844 1.2 -8.64963 -1.08335e+06 2.25244e+06 3.48506e+06 -461538 -256306 -37395.9
206 2 Si -2.26307 35.9684 4.4844 2.4 -32.849 1.11808e+07 8.49359e+06 9.13225e+06 58455.5 -366432 -52782
207 3 O -2.33122 34.3552 4.4844 -1.2 -9.49563 -3.79595e+06 16648.9 -3.9916e+06 431139 25130.2 25290.6
208 3 O 1.36549 36.9425 4.4844 -1.2 -9.27161 -3.56633e+06 -2.46954e+06 -3.20057e+06 2.25112e+06 -318698 95590.7
209 3 O -1.52658 36.6746 3.18632 -1.2 -9.00817 -2.7106e+06 -3.34283e+06 -1.34578e+06 1.15321e+06 195509 -1.46264e+06
210 3 O -1.55122 36.6746 5.78248 -1.2 -8.95625 -2.82906e+06 -3.32436e+06 -1.96402e+06 1.19616e+06 212772 1.49151e+06
211 1 Mg 1.882 35.6175 2.9896 1.2 -7.90817 4.53762e+06 -1.74562e+06 -557719 -1.10733e+06 -1.46346e+06 -1.52781e+06
212 1 Mg 4.69415 35.5762 4.4844 1.2 -8.67025 -878056 2.32489e+06 3.37485e+06 1.22413e+06 -46790.8 25109.1
213 2 Si 2.88522 37.641 4.4844 2.4 -32.8994 1.14339e+07 8.52047e+06 8.8892e+06 786816 85060.3 -144178
214 3 O 2.91159 39.2543 4.4844 -1.2 -9.37227 -4.07901e+06 -4859.76 -4.03876e+06 590552 -153568 79357.6
215 3 O -3.74183 36.667 4.4844 -1.2 -9.29732 -3.46559e+06 -2.37363e+06 -3.30147e+06 -1.30079e+06 -278567 2229.92
216 3 O 3.58014 36.9349 3.18632 -1.2 -9.04041 -2.69358e+06 -3.49624e+06 -1.40854e+06 -858142 157292 1.24695e+06
217 1 Mg 1.90997 35.6175 0 1.2 -5.97563 2.91931e+06 2.17175e+06 -3.66439e+06 -1.6635e+06 -784144 853047
218 3 O 3.55582 36.9349 5.78248 -1.2 -8.96601 -2.77323e+06 -3.48372e+06 -2.22051e+06 -864795 -346130 -1.10142e+06
219 1 Mg -0.93068 35.6588 1.4948 1.2 -8.68244 -937055 2.39476e+06 4.67246e+06 1.8598e+06 -349530 116443
220 2 Si 0.881882 33.5939 1.4948 2.4 -33.6481 9.90606e+06 9.04705e+06 1.10896e+07 1.40341e+06 1.5946e+06 2.48087e+06
221 3 O 0.859602 31.9807 1.4948 -1.2 -7.40595 -6.11276e+06 -119856 -1.55047e+07 1.16896e+06 -8.46059e+06 2.29094e+06
222 3 O 7.507 34.568 1.4948 -1.2 -9.7181 -4.18134e+06 -666913 -1.76297e+06 -933420 -416836 953353
223 3 O 0.210186 34.3001 0.196716 -1.2 -6.44917 -3.87713e+06 -1.37533e+07 -9.70827e+06 1.53141e+06 -7.92109e+06 -794391
224 3 O 0.184454 34.3001 2.79288 -1.2 -8.94604 -1.93337e+06 -3.77148e+06 -2.31445e+06 -842724 -137181 898321
225 1 Mg 7.07415 37.992 0 1.2 -6.09244 2.48545e+06 2.04575e+06 -3.30223e+06 1.87509e+06 -416683 -1.28238e+06
226 1 Mg 4.36817 42.6997 1.4948 1.2 -8.91162 -1.27061e+06 2.32723e+06 4.66869e+06 -998585 137012 -242337
227 2 Si 6.16058 40.0155 1.4948 2.4 -33.5886 1.11431e+07 7.81738e+06 1.10871e+07 -383487 1.32139e+06 -1.83826e+06
228 3 O 6.22815 41.6288 1.4948 -1.2 -8.61981 -6.0662e+06 101441 -7.26859e+06 35530.3 -4.51785e+06 -1.39753e+06
229 3 O 2.53282 39.0415 1.4948 -1.2 -9.55956 -4.09486e+06 -764649 -2.14265e+06 1.71564e+06 -373411 -857442
230 3 O 5.44674 39.3094 0.196716 -1.2 -7.19483 -4.30613e+06 -1.05219e+07 -6.02783e+06 -141484 -5.80134e+06 1.88916e+06
231 1 Mg 7.04922 37.992 2.9896 1.2 -7.93458 4.53233e+06 -1.84538e+06 -379164 1.29022e+06 -1.5154e+06 1.87625e+06
232 3 O 5.42658 39.3094 2.79288 -1.2 -8.8035 -2.14418e+06 -3.55857e+06 -2.37036e+06 1.14569e+06 -305718 -1.1289e+06
233 1 Mg -0.333062 38.0333 4.4844 1.2 -8.73575 -878525 2.29548e+06 3.37055e+06 -404346 -207422 -125518
234 2 Si -2.12255 40.7174 4.4844 2.4 -33.1676 1.18144e+07 8.37025e+06 9.13739e+06 132646 -407775 -194635
235 3 O -2.19212 39.1042 4.4844 -1.2 -9.3784 -4.02264e+06 7770.58 -3.93822e+06 435222 99243.9 158534
236 3 O 1.50676 41.6915 4.4844 -1.2 -9.06463 -3.8564e+06 -2.32145e+06 -3.39942e+06 2.28982e+06 -335937 117504
237 3 O -1.3884 41.4236 3.18632 -1.2 -8.84405 -2.92709e+06 -3.18397e+06 -1.65556e+06 1.13522e+06 192549 -1.3332e+06
238 3 O -1.40713 41.4236 5.78248 -1.2 -8.74434 -3.2696e+06 -3.29068e+06 -1.90151e+06 1.15257e+06 168997 1.37493e+06
239 1 Mg 2.01892 40.3665 2.9896 1.2 -8.04102 4.72736e+06 -1.84497e+06 -422127 -1.0891e+06 -1.53247e+06 -1.61032e+06
240 1 Mg 4.83434 40.3252 4.4844 1.2 -8.84048 -642121 2.28265e+06 3.45303e+06 1.20698e+06 -70635 -56334.2
241 2 Si 3.02698 42.39 4.4844 2.4 -33.3718 1.19166e+07 8.07128e+06 9.61402e+06 715924 58846.3 -321430
242 3 O 3.05433 44.0033 4.4844 -1.2 -9.13987 -4.35524e+06 331437 -4.47654e+06 644372 -69795.9 380479
243 3 O -3.60077 41.416 4.4844 -1.2 -9.11703 -3.83925e+06 -2.23439e+06 -3.35951e+06 -1.30622e+06 -144264 77769.4
244 3 O 3.71851 41.6839 3.18632 -1.2 -8.85818 -2.84616e+06 -3.32098e+06 -1.83535e+06 -832514 192033 1.35516e+06
245 1 Mg 2.04077 40.3665 0 1.2 -6.17271 2.07404e+06 1.80398e+06 -3.55676e+06 -1.82733e+06 432579 1.4578e+06
246 3 O 3.70011 41.6839 5.78248 -1.2 -8.66791 -3.00632e+06 -3.42384e+06 -2.42173e+06 -831044 -218690 -1.10648e+06
247 1 Mg -0.796865 40.4078 1.4948 1.2 -8.81534 -977123 2.36866e+06 4.55998e+06 1.75325e+06 9494 -58522.4
248 2 Si 1.01387 38.3429 1.4948 2.4 -33.5848 1.07611e+07 8.288e+06 1.09272e+07 1.54613e+06 1.44752e+06 1.92251e+06
249 3 O 0.989947 36.7297 1.4948 -1.2 -8.14943 -6.41876e+06 -139435 -1.04892e+07 1.03197e+06 -6.6218e+06 1.92442e+06
250 3 O 7.63988 39.317 1.4948 -1.2 -9.59509 -4.23718e+06 -655877 -2.08889e+06 -928031 -231027 1.13786e+06
251 3 O 0.340253 39.0491 0.196716 -1.2 -7.21045 -4.38468e+06 -1.1426e+07 -5.97466e+06 378860 -5.82975e+06 -1.4682e+06
252 3 O 0.319795 39.0491 2.79288 -1.2 -8.86589 -2.20992e+06 -3.69988e+06 -2.27694e+06 -868531 -186215 974763
253 1 Mg 7.20667 42.741 0 1.2 -6.28527 1.86511e+06 1.66732e+06 -3.45823e+06 1.98449e+06 931146 -2.39191e+06
254 1 Mg 4.50613 47.4487 1.4948 1.2 -8.91945 -1.19736e+06 2.45312e+06 4.27888e+06 -856733 430453 -529904
255 2 Si 6.29731 44.7645 1.4948 2.4 -33.6484 1.18839e+07 6.83828e+06 1.1398e+07 -218840 915411 -2.27089e+06
256 3 O 6.36567 46.3778 1.4948 -1.2 -8.95888 -5.39191e+06 198675 -5.39577e+06 169519 -2.70848e+06 -818706
257 3 O 2.669 43.7905 1.4948 -1.2 -9.37672 -4.17091e+06 -700596 -2.6933e+06 1.72615e+06 -212593 -587684
258 3 O 5.58048 44.0584 0.196716 -1.2 -7.78154 -4.41691e+06 -7.67387e+06 -3.86014e+06 313809 -3.73731e+06 2.74292e+06
259 1 Mg 7.1879 42.741 2.9896 1.2 -8.08611 4.81131e+06 -2.08865e+06 -158741 1.29043e+06 -1.62656e+06 1.67518e+06
260 3 O 5.56564 44.0584 2.79288 -1.2 -8.68259 -2.51449e+06 -3.23081e+06 -2.54519e+06 1.13159e+06 -276195 -808066
261 1 Mg -0.19105 42.7823 4.4844 1.2 -8.94445 -513811 2.01683e+06 3.61602e+06 -392137 -87522.9 -185453
262 2 Si -1.97909 45.4664 4.4844 2.4 -33.448 1.22304e+07 7.89399e+06 9.65083e+06 200883 -263704 -1.00813e+06
263 3 O -2.04947 43.8532 4.4844 -1.2 -9.17878 -4.37709e+06 341352 -4.23498e+06 411013 79315.2 360555
264 3 O 1.65063 46.4405 4.4844 -1.2 -8.9799 -3.90915e+06 -2.28985e+06 -3.51354e+06 2.36635e+06 -187987 640669
265 3 O -1.24745 46.1726 3.18632 -1.2 -8.75021 -2.97037e+06 -3.09172e+06 -1.95739e+06 1.12469e+06 118532 -899255
266 3 O -1.26044 46.1726 5.78248 -1.2 -8.60596 -3.412e+06 -3.17123e+06 -2.01318e+06 1.13957e+06 147004 1.93056e+06
267 1 Mg 2.15896 45.1155 2.9896 1.2 -8.16816 4.86936e+06 -2.03692e+06 -152669 -1.09722e+06 -1.66123e+06 -1.99921e+06
268 1 Mg 4.97763 45.0742 4.4844 1.2 -9.00396 -295816 1.98614e+06 3.6677e+06 1.26e+06 -65802.5 -531582
269 2 Si 3.1711 47.139 4.4844 2.4 -33.3724 1.1974e+07 8.25058e+06 9.37858e+06 669991 -155405 -1.40485e+06