ITEM: TIMESTEP
69500
ITEM: NUMBER OF ATOMS
10500
ITEM: BOX BOUNDS xy xz yz pp pp pp
0.0000000000000000e+00 1.5297749999999999e+01 5.0992499999999996e+00
0.0000000000000000e+00 1.1872499999999999e+02 0.0000000000000000e+00
0.0000000000000000e+00 8.9688000000000002e+01 0.0000000000000000e+00
ITEM: ATOMS id type element xu yu zu q c_pe c_s[1] c_s[2] c_s[3] c_s[4] c_s[5] c_s[6]
1 1 Mg 6.2404 -6.37941e-06 0 1.2 -4.6498 8.25994e+06 -2.1784e+06 -5.89348e+06 -9991.54 2.63535e+06 -212721
2 1 Mg 3.46349 4.70768 1.4948 1.2 -8.76708 85482.2 2.5007e+06 4.55633e+06 -939166 -632221 219187
3 2 Si 5.2885 2.02354 1.4948 2.4 -35.7512 1.07451e+07 1.0443e+07 1.1884e+07 8.87855e+06 637177 -3.00294e+06
4 3 O 5.33628 3.63678 1.4948 -1.2 -4.45524 -1.22898e+06 -1.22507e+06 -3.39054e+07 -345020 3.84444e+06 -3.97865e+06
5 3 O 1.67294 1.04952 1.4948 -1.2 -0.813032 -2.06771e+07 -7.9106e+07 -2.40871e+06 -2.41208e+07 -142903 -104912
6 3 O 4.59532 1.31737 0.196716 -1.2 -2.78215 -2.30144e+06 -6.35885e+06 -3.08602e+07 -6.04019e+06 6.24293e+06 -2.69135e+06
7 1 Mg 6.18956 -6.37941e-06 2.9896 1.2 -5.16649 1.94915e+06 -2.84877e+07 -2.71916e+06 -8.84243e+06 2.3823e+06 4.01208e+06
8 3 O 4.55118 1.31737 2.79288 -1.2 -7.24793 -187352 -4.46652e+06 -3.47163e+06 -2.96538e+06 -3.35948e+06 -1.10118e+06
9 1 Mg -1.20682 0.0413099 4.4844 1.2 8.69564 -3.0231e+07 -9.36959e+07 -108216 -2.85203e+07 -1.19285e+06 116750
10 2 Si -3.0337 2.72544 4.4844 2.4 -33.5777 1.5417e+07 6.54365e+06 8.21225e+06 1.65801e+06 26102.5 -669655
11 3 O -3.08099 1.11221 4.4844 -1.2 -9.37839 -6.69525e+06 347753 -2.32386e+06 -1.24036e+06 -137243 328488
12 3 O 0.582463 3.69946 4.4844 -1.2 -8.71419 -3.68463e+06 -5.33043e+06 -2.98045e+06 -553910 -236027 -196879
13 3 O -2.29524 3.43162 3.18632 -1.2 -8.81316 -4.71034e+06 -2.30491e+06 -698682 1.07894e+06 -828598 -1.00654e+06
14 3 O -2.34216 3.43162 5.78248 -1.2 -8.67956 -4.41874e+06 -2.95666e+06 -1.65547e+06 728232 428173 1.34128e+06
15 1 Mg 1.12778 2.37449 2.9896 1.2 -7.85737 5.56957e+06 -1.85895e+06 -441107 -3.29226e+06 -4.13225e+06 -2.21865e+06
16 1 Mg 3.92855 2.33318 4.4844 1.2 -8.76132 -3.92346e+06 4.83547e+06 5.15456e+06 1.37805e+06 252813 449418
17 2 Si 2.09341 4.39804 4.4844 2.4 -32.9843 1.27251e+07 6.50918e+06 9.5455e+06 121001 -36857 818883
18 3 O 2.09991 6.01128 4.4844 -1.2 -9.15712 -4.43346e+06 223432 -4.26664e+06 617119 -208878 -206412
19 3 O -4.52137 3.42402 4.4844 -1.2 -8.91927 -3.34568e+06 -2.74013e+06 -3.70945e+06 -2.42098e+06 -705797 21160.3
20 3 O 2.80834 3.69187 3.18632 -1.2 -9.04774 -2.46353e+06 -2.64798e+06 -707908 472208 -511982 -576060
21 1 Mg 1.17857 2.37449 0 1.2 -5.38764 -205739 -1.51389e+07 -6.10599e+06 6.50311e+06 1.19799e+06 4.6599e+06
22 3 O 2.76143 3.69187 5.78248 -1.2 -9.01823 -2.95472e+06 -2.52627e+06 -1.54763e+06 549040 -195882 -247140
23 1 Mg -1.67381 2.41581 1.4948 1.2 -7.82495 2.00948e+06 -493739 4.28782e+06 1.35534e+06 -578392 1.06314e+06
24 2 Si 0.16286 0.350945 1.4948 2.4 -25.0002 -7.44217e+06 1.18545e+07 1.19403e+07 1.57386e+06 2.87215e+06 1.18701e+06
25 3 O 0.15972 -1.26229 1.4948 -1.2 -4.56296 -1.10154e+07 -7.73342e+06 -2.92261e+07 -5.60169e+06 -8.54408e+06 -2.63569e+06
26 3 O 6.77654 1.32496 1.4948 -1.2 -10.1206 -6.14802e+06 2.06217e+06 -1.6428e+06 -648391 -628522 1.06192e+06
27 3 O -0.508028 1.05712 0.196716 -1.2 -9.29631 -312657 -4.34529e+06 -979307 -538473 200763 -4.55709e+06
28 3 O -0.552171 1.05712 2.79288 -1.2 -6.56927 -5.76516e+06 -4.32642e+06 -2.48664e+07 1.42938e+06 -6.8216e+06 -5.51152e+06
29 1 Mg 6.31713 4.74899 0 1.2 -5.22328 839163 -1.3122e+07 -5.90088e+06 -7.28702e+06 1.42489e+06 -3.42952e+06
30 1 Mg 3.54847 9.45668 1.4948 1.2 -8.6651 814739 1.47518e+06 4.66783e+06 -951108 -908508 -257675
31 2 Si 5.36879 6.77254 1.4948 2.4 -34.9145 8.31112e+06 1.16818e+07 1.18946e+07 1.7022e+06 116743 -1.62807e+06
32 3 O 5.41937 8.38578 1.4948 -1.2 -4.43414 -867726 -724058 -3.54067e+07 752691 1.10876e+06 -4.35395e+06
33 3 O 1.75158 5.79852 1.4948 -1.2 -9.19944 -4.45111e+06 -2.17402e+06 -1.64782e+06 1.98814e+06 -1.60777e+06 -1.49878e+06
34 3 O 4.67421 6.06637 0.196716 -1.2 -3.47485 -333215 -9.95408e+06 -3.16248e+07 -2.01631e+06 1.3073e+06 -4.62303e+06
35 1 Mg 6.26654 4.74899 2.9896 1.2 -8.30508 4.61451e+06 -1.857e+06 118996 1.82846e+06 -899450 2.05156e+06
36 3 O 4.63043 6.06637 2.79288 -1.2 -8.54 -2.08999e+06 -3.77864e+06 -2.40443e+06 910975 -68417.7 -1.59585e+06
37 1 Mg -1.12976 4.79031 4.4844 1.2 -9.05092 -112738 2.59428e+06 2.88826e+06 -693470 -350238 51209.4
38 2 Si -2.9517 7.47444 4.4844 2.4 -33.5248 1.25421e+07 8.38599e+06 8.93971e+06 124199 81271.3 372209
39 3 O -3.00198 5.86121 4.4844 -1.2 -9.16326 -4.60548e+06 52994.9 -3.7832e+06 -1613.26 -231476 -148743
40 3 O 0.666315 8.44846 4.4844 -1.2 -8.89782 -3.93857e+06 -2.35924e+06 -3.52463e+06 2.18981e+06 -411768 -75853.3
41 3 O -2.21213 8.18062 3.18632 -1.2 -8.74833 -3.5043e+06 -3.1158e+06 -905599 1.10898e+06 -318309 -1.60918e+06
42 3 O -2.25864 8.18062 5.78248 -1.2 -8.58616 -3.59291e+06 -3.39386e+06 -1.97884e+06 1.08641e+06 -256838 1.12229e+06
43 1 Mg 1.20893 7.12349 2.9896 1.2 -8.32665 4.62608e+06 -1.83985e+06 104076 -1.32283e+06 -1.32384e+06 -1.54216e+06
44 1 Mg 4.00982 7.08218 4.4844 1.2 -9.02208 -335003 2.36684e+06 3.34421e+06 1.07523e+06 -322362 147272
45 2 Si 2.17861 9.14704 4.4844 2.4 -33.5826 1.2466e+07 8.43202e+06 9.03183e+06 593751 -134815 293560
46 3 O 2.18828 10.7603 4.4844 -1.2 -9.07582 -4.61097e+06 175722 -4.17018e+06 421974 -185581 -122811
47 3 O -4.43805 8.17302 4.4844 -1.2 -8.94146 -3.9832e+06 -2.39519e+06 -3.34303e+06 -1.60261e+06 -511422 -228145
48 3 O 2.89193 8.44087 3.18632 -1.2 -8.7567 -3.35043e+06 -3.33471e+06 -979908 -929333 -224786 1.16437e+06
49 1 Mg 1.25915 7.12349 0 1.2 -5.61943 1.43926e+06 -7.73788e+06 -6.14439e+06 5.87603e+06 1.3956e+06 2.73422e+06
50 3 O 2.84547 8.44087 5.78248 -1.2 -8.62698 -3.53058e+06 -3.7537e+06 -1.73568e+06 -913343 -78716.7 -1.22386e+06
51 1 Mg -1.59284 7.16481 1.4948 1.2 -8.56199 1.33159e+06 1.14924e+06 4.51072e+06 1.45821e+06 -914570 486432
52 2 Si 0.240329 5.09994 1.4948 2.4 -34.6383 9.22073e+06 1.05233e+07 1.17013e+07 -1.99248e+06 -1.01855e+06 2.24261e+06
53 3 O 0.234538 3.48671 1.4948 -1.2 -4.95963 -2.21381e+06 642258 -3.40163e+07 411352 5.15977e+06 3.86186e+06
54 3 O 6.85564 6.07396 1.4948 -1.2 -9.28348 -4.91786e+06 -1.6193e+06 -1.56287e+06 -1.36248e+06 -1.82029e+06 1.00073e+06
55 3 O -0.429565 5.80612 0.196716 -1.2 -3.72816 -1.14525e+06 -8.58955e+06 -3.17286e+07 1.85853e+06 1.18856e+06 4.39926e+06
56 3 O -0.473377 5.80612 2.79288 -1.2 -8.63965 -2.64174e+06 -3.33921e+06 -2.23404e+06 -760770 276420 1.14611e+06
57 1 Mg 6.40169 9.49799 0 1.2 -5.59032 2.09398e+06 -6.66471e+06 -6.40785e+06 -5.49054e+06 972025 -2.41513e+06
58 1 Mg 3.64209 14.2057 1.4948 1.2 -8.73502 733337 1.35026e+06 4.94525e+06 -1.01239e+06 -936089 -449498
59 2 Si 5.45748 11.5215 1.4948 2.4 -34.9526 8.68298e+06 1.09933e+07 1.22481e+07 902587 370609 -2.21771e+06
60 3 O 5.51101 13.1348 1.4948 -1.2 -4.45158 -1.0589e+06 -459624 -3.52723e+07 459166 -2.55882e+06 -4.23358e+06
61 3 O 1.83851 10.5475 1.4948 -1.2 -9.23472 -4.76431e+06 -1.55113e+06 -1.63014e+06 1.5348e+06 -1.58999e+06 -1.09313e+06
62 3 O 4.7611 10.8154 0.196716 -1.2 -3.30103 23157.3 -1.11791e+07 -3.22584e+07 -2.46704e+06 -1.78235e+06 -4.24158e+06
63 1 Mg 6.35203 9.49799 2.9896 1.2 -8.32999 4.68993e+06 -1.91355e+06 137728 1.32265e+06 -1.17331e+06 2.11482e+06
64 3 O 4.71833 10.8154 2.79288 -1.2 -8.51225 -2.4184e+06 -3.42346e+06 -2.48848e+06 1.03588e+06 7348.69 -1.3587e+06
65 1 Mg -1.0438 9.53931 4.4844 1.2 -9.0718 -285822 2.16827e+06 3.48405e+06 -613193 -309413 78536.1
66 2 Si -2.8604 12.2234 4.4844 2.4 -33.6596 1.25254e+07 8.15065e+06 9.40642e+06 -92709.6 -65150.8 184071
67 3 O -2.91391 10.6102 4.4844 -1.2 -9.0656 -4.55722e+06 177721 -4.13204e+06 249639 -205670 -126295
68 3 O 0.7596 13.1975 4.4844 -1.2 -8.87335 -4.03524e+06 -2.15434e+06 -3.68401e+06 2.16554e+06 -455179 27063.4
69 3 O -2.12001 12.9296 3.18632 -1.2 -8.70255 -3.45168e+06 -3.02178e+06 -1.13322e+06 1.18345e+06 -200528 -1.49919e+06
70 3 O -2.16532 12.9296 5.78248 -1.2 -8.54519 -3.55539e+06 -3.39629e+06 -1.96829e+06 1.20816e+06 -120199 1.13916e+06
71 1 Mg 1.29891 11.8725 2.9896 1.2 -8.35869 4.77988e+06 -1.97404e+06 132505 -1.1773e+06 -1.22977e+06 -1.6945e+06
72 1 Mg 4.10033 11.8312 4.4844 1.2 -9.0784 -83157.8 2.09781e+06 3.45379e+06 1.14511e+06 -263475 148678
73 2 Si 2.27333 13.896 4.4844 2.4 -33.5984 1.26671e+07 7.79699e+06 9.48564e+06 725371 -38303.9 -19539.7
74 3 O 2.28634 15.5093 4.4844 -1.2 -9.11805 -4.65398e+06 446454 -4.33155e+06 412803 -220855 175402
75 3 O -4.34533 12.922 4.4844 -1.2 -8.89313 -4.03733e+06 -2.18084e+06 -3.58243e+06 -1.50516e+06 -497177 -141496
76 3 O 2.98455 13.1899 3.18632 -1.2 -8.73628 -3.47792e+06 -3.08579e+06 -1.15941e+06 -980530 -182316 1.35326e+06
77 1 Mg 1.34779 11.8725 0 1.2 -5.85244 3.31492e+06 -3.16558e+06 -6.32056e+06 3.57752e+06 811785 1.4889e+06
78 3 O 2.93934 13.1899 5.78248 -1.2 -8.57457 -3.66108e+06 -3.29317e+06 -2.13931e+06 -936978 -181347 -1.32054e+06
79 1 Mg -1.50344 11.9138 1.4948 1.2 -8.68417 1.05316e+06 1.34268e+06 4.77525e+06 1.54913e+06 -970598 362336
80 2 Si 0.326006 9.84894 1.4948 2.4 -34.9089 8.67499e+06 1.11417e+07 1.20101e+07 -618348 100359 2.35769e+06
81 3 O 0.317364 8.23571 1.4948 -1.2 -4.43558 -967786 -581164 -3.55767e+07 -109774 1.17325e+06 4.07925e+06
82 3 O 6.94307 10.823 1.4948 -1.2 -9.27129 -4.91173e+06 -1.36422e+06 -1.57013e+06 -979398 -1.52084e+06 1.044e+06
83 3 O -0.343122 10.5551 0.196716 -1.2 -3.39184 -220649 -1.06421e+07 -3.2371e+07 2.46074e+06 -2.03023e+06 4.52432e+06
84 3 O -0.385966 10.5551 2.79288 -1.2 -8.54866 -2.44874e+06 -3.46987e+06 -2.49926e+06 -844238 112184 1.07509e+06
85 1 Mg 6.49448 14.247 0 1.2 -5.82094 3.81534e+06 -2.41781e+06 -6.43437e+06 -2.96921e+06 259856 -1.71684e+06
86 1 Mg 3.74457 18.9547 1.4948 1.2 -8.75663 439008 1.63615e+06 4.91115e+06 -1.11825e+06 -922534 -509837
87 2 Si 5.55495 16.2705 1.4948 2.4 -34.9072 8.81293e+06 1.05524e+07 1.25049e+07 549078 848051 -2.70636e+06
88 3 O 5.6115 17.8838 1.4948 -1.2 -4.80403 -1.97233e+06 -416715 -3.26055e+07 75310.9 -6.0761e+06 -3.8913e+06
89 3 O 1.93416 15.2965 1.4948 -1.2 -9.27927 -4.86568e+06 -1.0998e+06 -1.65908e+06 1.52762e+06 -1.38454e+06 -840333
90 3 O 4.85636 15.5644 0.196716 -1.2 -3.30863 49896.2 -1.27627e+07 -3.08552e+07 -3.05551e+06 -5.14856e+06 -3.52735e+06
91 1 Mg 6.44662 14.247 2.9896 1.2 -8.3342 4.72997e+06 -2.09192e+06 281787 1.29481e+06 -1.17754e+06 1.94395e+06
92 3 O 4.81537 15.5644 2.79288 -1.2 -8.5116 -2.36288e+06 -3.30067e+06 -2.69897e+06 1.03813e+06 -89117.5 -1.12331e+06
93 1 Mg -0.948271 14.2883 4.4844 1.2 -9.07973 -283948 1.96446e+06 3.68965e+06 -648049 -378056 -36057.1
94 2 Si -2.75928 16.9724 4.4844 2.4 -33.639 1.20239e+07 7.78617e+06 1.02511e+07 -141697 -327663 -445309
95 3 O -2.81617 15.3592 4.4844 -1.2 -9.04986 -4.39089e+06 379941 -4.5098e+06 333117 -109412 -6367.65
96 3 O 0.862762 17.9465 4.4844 -1.2 -9.01557 -4.02888e+06 -2.15885e+06 -3.46575e+06 2.15271e+06 -441627 429370
97 3 O -2.0185 17.6786 3.18632 -1.2 -8.74717 -3.30108e+06 -3.02174e+06 -1.22859e+06 1.18782e+06 -26025.5 -1.20513e+06
98 3 O -2.06164 17.6786 5.78248 -1.2 -8.52975 -3.26732e+06 -3.10787e+06 -2.77122e+06 1.20954e+06 431509 1.7648e+06
99 1 Mg 1.39817 16.6215 2.9896 1.2 -8.29516 4.87565e+06 -2.06798e+06 26727.5 -1.15753e+06 -1.22586e+06 -1.93276e+06
100 1 Mg 4.20062 16.5802 4.4844 1.2 -9.02388 -152697 1.92457e+06 3.60865e+06 1.21884e+06 -111869 -138723
101 2 Si 2.37796 18.645 4.4844 2.4 -33.2835 1.2395e+07 8.09011e+06 8.95818e+06 780150 190921 -691417
102 3 O 2.39434 20.2583 4.4844 -1.2 -9.29205 -4.38439e+06 76820 -3.95693e+06 495548 -319990 269698
103 3 O -4.24274 17.671 4.4844 -1.2 -8.93656 -3.77855e+06 -2.09701e+06 -3.84229e+06 -1.41003e+06 -587643 238471
104 3 O 3.08659 17.9389 3.18632 -1.2 -8.80994 -3.38374e+06 -3.15218e+06 -1.10869e+06 -963098 -173796 1.60026e+06
105 1 Mg 1.44478 16.6215 0 1.2 -5.95253 5.0142e+06 -230109 -6.35237e+06 1.39217e+06 -52678.6 679554
106 3 O 3.0436 17.9389 5.78248 -1.2 -8.75368 -3.46333e+06 -3.19903e+06 -2.16393e+06 -988217 -366159 -792666
107 1 Mg -1.40524 16.6628 1.4948 1.2 -8.73743 831111 1.4379e+06 4.93981e+06 1.67144e+06 -1.01636e+06 123965
108 2 Si 0.420358 14.5979 1.4948 2.4 -34.9196 8.8517e+06 1.06947e+07 1.22816e+07 -158706 514642 2.14689e+06
109 3 O 0.408732 12.9847 1.4948 -1.2 -4.44272 -1.10059e+06 -437176 -3.54016e+07 232580 -2.54225e+06 4.35555e+06
110 3 O 7.03923 15.572 1.4948 -1.2 -9.30913 -4.91855e+06 -963270 -1.66207e+06 -938122 -1.29692e+06 1.21044e+06
111 3 O -0.248332 15.3041 0.196716 -1.2 -3.41231 -293965 -1.22961e+07 -3.08652e+07 3.27654e+06 -5.39084e+06 4.20118e+06
112 3 O -0.289436 15.3041 2.79288 -1.2 -8.5513 -2.42469e+06 -3.37743e+06 -2.6545e+06 -823084 104715 1.26128e+06
113 1 Mg 6.59566 18.996 0 1.2 -5.92151 5.11611e+06 305645 -6.25422e+06 -908999 -689568 -1.11849e+06
114 1 Mg 3.85574 23.7037 1.4948 1.2 -8.80199 99331.7 2.01829e+06 4.80151e+06 -1.20568e+06 -899482 -420676
115 2 Si 5.66125 21.0195 1.4948 2.4 -34.7002 9.03829e+06 1.06417e+07 1.19205e+07 165756 1.22145e+06 -2.80196e+06
116 3 O 5.72074 22.6328 1.4948 -1.2 -5.46359 -3.58212e+06 -556060 -2.74589e+07 -210473 -8.49836e+06 -3.45997e+06
117 3 O 2.03867 20.0455 1.4948 -1.2 -9.37326 -4.79334e+06 -1.05899e+06 -1.41908e+06 1.57337e+06 -1.1852e+06 -744691
118 3 O 4.96004 20.3134 0.196716 -1.2 -3.67774 -598999 -1.4386e+07 -2.68053e+07 -3.17763e+06 -7.93792e+06 -2.55942e+06
119 1 Mg 6.55057 18.996 2.9896 1.2 -8.24712 4.61614e+06 -1.95823e+06 123073 1.28492e+06 -1.21894e+06 1.66844e+06
120 3 O 4.92172 20.3134 2.79288 -1.2 -8.59045 -2.16999e+06 -3.58978e+06 -2.51182e+06 1.10671e+06 -146970 -979309
121 1 Mg -0.84282 19.0373 4.4844 1.2 -8.92508 -449635 2.14748e+06 3.41645e+06 -503748 -517992 -445691
122 2 Si -2.64823 21.7214 4.4844 2.4 -33.2786 1.17455e+07 8.55385e+06 9.18108e+06 116103 -453970 -552454
123 3 O -2.70847 20.1082 4.4844 -1.2 -9.20762 -4.12002e+06 27055.6 -4.16683e+06 318505 39165 381440
124 3 O 0.97581 22.6955 4.4844 -1.2 -9.09599 -3.80008e+06 -2.40042e+06 -3.31929e+06 2.18856e+06 -534079 163702
125 3 O -1.9076 22.4276 3.18632 -1.2 -8.83228 -3.19517e+06 -3.30316e+06 -955197 1.12083e+06 27018.6 -1.25905e+06
126 3 O -1.9475 22.4276 5.78248 -1.2 -8.8156 -3.11569e+06 -3.38952e+06 -2.01087e+06 980433 200902 1.48282e+06
127 1 Mg 1.50678 21.3705 2.9896 1.2 -8.18697 4.79632e+06 -1.77264e+06 -362574 -1.15904e+06 -1.20499e+06 -1.84969e+06
128 1 Mg 4.31086 21.3292 4.4844 1.2 -8.88978 -499347 2.28646e+06 3.38204e+06 1.0879e+06 -126007 -195378
129 2 Si 2.49243 23.394 4.4844 2.4 -33.2289 1.19142e+07 8.35899e+06 9.08666e+06 584004 43539.9 -338772
130 3 O 2.51204 25.0073 4.4844 -1.2 -9.23611 -4.26077e+06 93658.5 -4.19099e+06 555893 -157853 281854
131 3 O -4.13026 22.42 4.4844 -1.2 -9.08765 -3.65639e+06 -2.38501e+06 -3.44068e+06 -1.38118e+06 -429531 239642
132 3 O 3.19799 22.6879 3.18632 -1.2 -8.86724 -3.18752e+06 -3.40858e+06 -1.01276e+06 -875678 -48375.4 1.50706e+06
133 1 Mg 1.5501 21.3705 0 1.2 -5.97043 5.8235e+06 1.54646e+06 -6.1315e+06 -74501.9 -947050 263321
134 3 O 3.1583 22.6879 5.78248 -1.2 -8.83665 -3.02152e+06 -3.4303e+06 -2.24012e+06 -696496 -231906 -1.04849e+06
135 1 Mg -1.29822 21.4118 1.4948 1.2 -8.75365 497793 1.86946e+06 4.76316e+06 1.82477e+06 -985710 59474.2
136 2 Si 0.523568 19.3469 1.4948 2.4 -34.7447 9.05459e+06 1.0708e+07 1.18134e+07 317095 970175 2.06699e+06
137 3 O 0.508934 17.7337 1.4948 -1.2 -4.80672 -2.10118e+06 -398926 -3.26255e+07 671902 -6.06206e+06 4.3369e+06
138 3 O 7.14425 20.321 1.4948 -1.2 -9.40102 -4.8199e+06 -937569 -1.44801e+06 -940915 -1.03521e+06 1.2618e+06
139 3 O -0.145107 20.0531 0.196716 -1.2 -3.78143 -997228 -1.40457e+07 -2.67851e+07 3.67479e+06 -8.20025e+06 3.28087e+06
140 3 O -0.183601 20.0531 2.79288 -1.2 -8.64725 -2.30159e+06 -3.68287e+06 -2.36783e+06 -865849 54865.4 1.33995e+06
141 1 Mg 6.70502 23.745 0 1.2 -5.98244 5.59968e+06 1.8485e+06 -5.79928e+06 422367 -1.53196e+06 -775587
142 1 Mg 3.97493 28.4527 1.4948 1.2 -8.9163 -167652 2.25598e+06 4.78136e+06 -1.2271e+06 -787876 -454577
143 2 Si 5.77602 25.7685 1.4948 2.4 -34.5479 9.73097e+06 1.02968e+07 1.14163e+07 -115912 1.48049e+06 -2.82821e+06
144 3 O 5.83821 27.3818 1.4948 -1.2 -6.24577 -5.37997e+06 -476947 -2.12516e+07 -342567 -9.25752e+06 -2.76595e+06
145 3 O 2.15175 24.7945 1.4948 -1.2 -9.40126 -4.69933e+06 -1.00404e+06 -1.38894e+06 1.62407e+06 -956217 -705355
146 3 O 5.07184 25.0624 0.196716 -1.2 -4.32408 -1.86882e+06 -1.52315e+07 -2.10337e+07 -2.78796e+06 -9.40383e+06 -1.23869e+06
147 1 Mg 6.66374 23.745 2.9896 1.2 -8.16637 4.69184e+06 -1.79898e+06 -238408 1.31783e+06 -1.27764e+06 1.69822e+06
148 3 O 5.03707 25.0624 2.79288 -1.2 -8.61002 -2.20431e+06 -3.70226e+06 -2.37565e+06 1.10924e+06 -139649 -958386
149 1 Mg -0.727559 23.7863 4.4844 1.2 -8.88304 -542883 2.20285e+06 3.38012e+06 -417903 -294422 -256890
150 2 Si -2.5277 26.4704 4.4844 2.4 -33.2884 1.20718e+07 8.4246e+06 9.00308e+06 40688.6 -368649 -749934
151 3 O -2.59107 24.8572 4.4844 -1.2 -9.25779 -4.23514e+06 66026 -4.00338e+06 336147 -21457.8 322288
152 3 O 1.09817 27.4445 4.4844 -1.2 -9.01546 -3.79046e+06 -2.53453e+06 -3.33514e+06 2.27838e+06 -522120 478857
153 3 O -1.78784 27.1766 3.18632 -1.2 -8.7974 -3.23517e+06 -3.35239e+06 -978908 1.14951e+06 50848.5 -1.15928e+06
154 3 O -1.82343 27.1766 5.78248 -1.2 -8.7865 -3.37635e+06 -3.34835e+06 -1.81753e+06 1.0957e+06 219421 1.91755e+06
155 1 Mg 1.62435 26.1195 2.9896 1.2 -8.20451 4.82047e+06 -1.73632e+06 -391886 -1.15725e+06 -1.26171e+06 -1.90796e+06
156 1 Mg 4.43064 26.0782 4.4844 1.2 -8.90442 -418267 2.2742e+06 3.33524e+06 1.19974e+06 -244647 -273542
157 2 Si 2.61607 28.143 4.4844 2.4 -33.3378 1.20654e+07 8.64636e+06 8.82257e+06 707280 -900.504 -908078
158 3 O 2.63853 29.7563 4.4844 -1.2 -9.21485 -4.37403e+06 -124043 -3.88723e+06 626550 -121395 399124
159 3 O -4.00841 27.169 4.4844 -1.2 -9.07531 -3.82334e+06 -2.34695e+06 -3.33776e+06 -1.35064e+06 -342479 326411
160 3 O 3.3182 27.4369 3.18632 -1.2 -8.82135 -3.19024e+06 -3.47868e+06 -1.09056e+06 -895712 84021.1 1.63964e+06
161 1 Mg 1.66335 26.1195 0 1.2 -6.05646 5.66356e+06 2.2935e+06 -5.36151e+06 -904144 -1.53058e+06 16417.8
162 3 O 3.28288 27.4369 5.78248 -1.2 -8.7415 -3.19019e+06 -3.51565e+06 -2.04652e+06 -1.03239e+06 -214987 -635890
163 1 Mg -1.18278 26.1608 1.4948 1.2 -8.84384 192943 2.1464e+06 4.74336e+06 1.89237e+06 -839979 -78178.1
164 2 Si 0.635424 24.0959 1.4948 2.4 -34.5902 9.42217e+06 1.05655e+07 1.14084e+07 754785 1.40798e+06 2.1428e+06
165 3 O 0.617906 22.4827 1.4948 -1.2 -5.46277 -3.68629e+06 -529260 -2.75178e+07 1.00479e+06 -8.54903e+06 3.8394e+06
166 3 O 7.25781 25.07 1.4948 -1.2 -9.43867 -4.80136e+06 -891984 -1.33231e+06 -942663 -803498 1.27461e+06
167 3 O -0.0337363 24.8021 0.196716 -1.2 -4.40983 -2.18296e+06 -1.51872e+07 -2.1038e+07 3.50565e+06 -9.659e+06 2.05017e+06
168 3 O -0.0687235 24.8021 2.79288 -1.2 -8.6531 -2.25435e+06 -3.79487e+06 -2.34431e+06 -854505 -87627.7 1.26944e+06
169 1 Mg 6.82195 28.494 0 1.2 -6.14607 5.2002e+06 2.35426e+06 -4.76384e+06 1.15401e+06 -1.87996e+06 -791936
170 1 Mg 4.10106 33.2017 1.4948 1.2 -9.03802 -409525 2.34776e+06 4.78594e+06 -1.20563e+06 -558036 -375243
171 2 Si 5.89839 30.5175 1.4948 2.4 -34.458 1.06467e+07 9.63159e+06 1.1105e+07 -312646 1.63283e+06 -2.80119e+06
172 3 O 5.96289 32.1308 1.4948 -1.2 -7.04896 -6.62449e+06 -313650 -1.5228e+07 -300824 -8.44453e+06 -2.13566e+06
173 3 O 2.27266 29.5435 1.4948 -1.2 -9.36017 -4.70215e+06 -924596 -1.48265e+06 1.66793e+06 -724877 -579722
174 3 O 5.19102 29.8114 0.196716 -1.2 -5.11471 -3.31791e+06 -1.4784e+07 -1.49622e+07 -1.93489e+06 -9.23971e+06 184083
175 1 Mg 6.78546 28.494 2.9896 1.2 -8.17879 4.85731e+06 -1.77273e+06 -404712 1.33175e+06 -1.34512e+06 1.58871e+06
176 3 O 5.16061 29.8114 2.79288 -1.2 -8.5796 -2.33596e+06 -3.74577e+06 -2.28581e+06 1.10273e+06 -197400 -846739
177 1 Mg -0.603205 28.5353 4.4844 1.2 -8.93824 -567792 2.4209e+06 3.27121e+06 -454917 -190037 -369583
178 2 Si -2.39877 31.2194 4.4844 2.4 -33.3409 1.2192e+07 8.752e+06 8.64756e+06 202219 -120605 -515050
179 3 O -2.46483 29.6062 4.4844 -1.2 -9.23132 -4.36655e+06 -82602.7 -3.75478e+06 312047 -27769.2 389232
180 3 O 1.22864 32.1935 4.4844 -1.2 -8.98563 -3.77151e+06 -2.58712e+06 -3.34122e+06 2.32758e+06 -323831 256773
181 3 O -1.66032 31.9256 3.18632 -1.2 -8.73805 -3.19711e+06 -3.40464e+06 -1.13591e+06 1.14061e+06 54841.9 -1.24346e+06
182 3 O -1.69072 31.9256 5.78248 -1.2 -8.74699 -3.25349e+06 -3.62059e+06 -1.65858e+06 1.14218e+06 -110749 1.45099e+06
183 1 Mg 1.7499 30.8685 2.9896 1.2 -8.22993 4.93159e+06 -1.66477e+06 -527092 -1.16763e+06 -1.3934e+06 -1.88628e+06
184 1 Mg 4.55894 30.8272 4.4844 1.2 -8.92347 -353404 2.41907e+06 3.16038e+06 1.20325e+06 -194929 -352211
185 2 Si 2.7476 32.892 4.4844 2.4 -33.3499 1.21994e+07 8.57722e+06 8.782e+06 639690 -350158 -511408
186 3 O 2.77235 34.5053 4.4844 -1.2 -9.21119 -4.44959e+06 37416.2 -3.97988e+06 617147 86481.9 170812
187 3 O -3.87837 31.918 4.4844 -1.2 -9.07661 -3.96653e+06 -2.46419e+06 -3.07324e+06 -1.42343e+06 -379465 216839
188 3 O 3.44611 32.1859 3.18632 -1.2 -8.78279 -3.24512e+06 -3.50824e+06 -1.1574e+06 -858175 210099 1.57134e+06
189 1 Mg 1.7837 30.8685 0 1.2 -6.23589 4.80477e+06 2.41363e+06 -4.39602e+06 -1.35003e+06 -1.50563e+06 22846.3
190 3 O 3.41602 32.1859 5.78248 -1.2 -8.77124 -3.27554e+06 -3.55798e+06 -1.99515e+06 -779373 -34324.6 -980297
191 1 Mg -1.05984 30.9098 1.4948 1.2 -8.97165 -100309 2.33982e+06 4.74617e+06 1.91143e+06 -610024 -184426
192 2 Si 0.755243 28.8449 1.4948 2.4 -34.5128 1.01849e+07 1.00452e+07 1.11268e+07 1.12282e+06 1.65989e+06 1.84097e+06
193 3 O 0.735127 27.2317 1.4948 -1.2 -6.23881 -5.43594e+06 -466681 -2.13539e+07 1.17974e+06 -9.35396e+06 3.33595e+06
194 3 O 7.37914 29.819 1.4948 -1.2 -9.39678 -4.81057e+06 -801329 -1.44722e+06 -943617 -603653 1.34702e+06
195 3 O 0.0850649 29.5511 0.196716 -1.2 -5.17694 -3.52442e+06 -1.5149e+07 -1.49368e+07 2.70091e+06 -9.48207e+06 789987
196 3 O 0.0543974 29.5511 2.79288 -1.2 -8.61583 -2.31379e+06 -3.90148e+06 -2.28598e+06 -829215 -152291 1.29759e+06
197 1 Mg 6.94543 33.243 0 1.2 -6.36228 4.24019e+06 2.31856e+06 -3.74821e+06 1.58513e+06 -1.45677e+06 -1.04505e+06
198 1 Mg 4.23267 37.9507 1.4948 1.2 -9.10639 -677056 2.23666e+06 4.85966e+06 -1.11648e+06 -238008 -232300
199 2 Si 6.02709 35.2665 1.4948 2.4 -34.3596 1.15632e+07 8.50566e+06 1.12065e+07 -402551 1.64321e+06 -2.43741e+06
200 3 O 6.09339 36.8798 1.4948 -1.2 -7.77513 -6.95404e+06 43247 -1.05853e+07 -136676 -6.63581e+06 -1.70452e+06
201 3 O 2.40018 34.2925 1.4948 -1.2 -9.28872 -4.71302e+06 -731420 -1.83173e+06 1.70115e+06 -489010 -609453
202 3 O 5.31645 34.5604 0.196716 -1.2 -5.96129 -4.46415e+06 -1.3006e+07 -9.80149e+06 -951151 -7.82297e+06 1.336e+06
203 1 Mg 6.91449 33.243 2.9896 1.2 -8.20274 4.97478e+06 -1.83059e+06 -417750 1.34473e+06 -1.33537e+06 1.70069e+06
204 3 O 5.291 34.5604 2.79288 -1.2 -8.55974 -2.53879e+06 -3.56963e+06 -2.32847e+06 1.10635e+06 -298754 -977570
205 1 Mg -0.471101 33.2843 4.4844 1.2 -8.99272 -699072 2.39753e+06 3.50449e+06 -482542 -147959 -132965
206 2 Si -2.26307 35.9684 4.4844 2.4 -33.4976 1.20267e+07 8.15687e+06 9.66609e+06 112781 96875.3 -30294.2
207 3 O -2.33122 34.3552 4.4844 -1.2 -9.17349 -4.28278e+06 34952.8 -4.04333e+06 368441 -149841 75332
208 3 O 1.36549 36.9425 4.4844 -1.2 -8.95542 -3.86328e+06 -2.2727e+06 -3.61671e+06 2.24324e+06 -157470 94588.3
209 3 O -1.52658 36.6746 3.18632 -1.2 -8.676 -3.12983e+06 -3.1252e+06 -1.67655e+06 1.16052e+06 90969.2 -1.34339e+06
210 3 O -1.55122 36.6746 5.78248 -1.2 -8.53484 -3.05166e+06 -3.18129e+06 -2.78886e+06 1.2303e+06 -54658.8 1.27708e+06
211 1 Mg 1.882 35.6175 2.9896 1.2 -8.25455 5.03309e+06 -1.88789e+06 -356057 -1.12308e+06 -1.56568e+06 -1.71925e+06
212 1 Mg 4.69415 35.5762 4.4844 1.2 -8.91525 -140839 2.16051e+06 3.19151e+06 1.24072e+06 -104660 -50938.7
213 2 Si 2.88522 37.641 4.4844 2.4 -33.3869 1.2317e+07 7.96518e+06 9.33675e+06 865643 -418685 -3416.47
214 3 O 2.91159 39.2543 4.4844 -1.2 -9.2039 -4.39455e+06 384465 -4.39114e+06 548611 44963.3 19161
215 3 O -3.74183 36.667 4.4844 -1.2 -9.03973 -4.07376e+06 -2.12733e+06 -3.3625e+06 -1.31039e+06 -499227 -3373.85
216 3 O 3.58014 36.9349 3.18632 -1.2 -8.74888 -3.27166e+06 -3.25339e+06 -1.54609e+06 -867807 277684 1.3598e+06
217 1 Mg 1.90997 35.6175 0 1.2 -6.44507 3.69301e+06 2.06233e+06 -3.57655e+06 -1.65169e+06 -773580 469621
218 3 O 3.55582 36.9349 5.78248 -1.2 -8.79417 -3.42774e+06 -3.27395e+06 -1.92593e+06 -905325 107541 -1.3073e+06
219 1 Mg -0.93068 35.6588 1.4948 1.2 -9.08441 -367749 2.26114e+06 4.88085e+06 1.85209e+06 -307901 -178197
220 2 Si 0.881882 33.5939 1.4948 2.4 -34.4364 1.10609e+07 9.09886e+06 1.11457e+07 1.38837e+06 1.61358e+06 1.67803e+06
221 3 O 0.859602 31.9807 1.4948 -1.2 -7.03944 -6.6527e+06 -312700 -1.53587e+07 1.16975e+06 -8.48196e+06 2.74501e+06
222 3 O 7.507 34.568 1.4948 -1.2 -9.3225 -4.80361e+06 -608321 -1.83329e+06 -938698 -452210 1.31081e+06
223 3 O 0.210186 34.3001 0.196716 -1.2 -5.99253 -4.55426e+06 -1.3734e+07 -9.78104e+06 1.53273e+06 -7.95659e+06 -341633
224 3 O 0.184454 34.3001 2.79288 -1.2 -8.57829 -2.40507e+06 -3.74235e+06 -2.46205e+06 -825107 -153401 1.14343e+06
225 1 Mg 7.07415 37.992 0 1.2 -6.54179 3.15419e+06 1.92762e+06 -3.13293e+06 1.85626e+06 -400861 -1.55542e+06
226 1 Mg 4.36817 42.6997 1.4948 1.2 -8.96025 -1.13182e+06 2.55908e+06 4.37598e+06 -990356 107698 -161873
227 2 Si 6.16058 40.0155 1.4948 2.4 -34.0856 1.19662e+07 7.57047e+06 1.13071e+07 -380917 1.36756e+06 -2.05777e+06
228 3 O 6.22815 41.6288 1.4948 -1.2 -8.48035 -6.28854e+06 32376.6 -7.20049e+06 30961.3 -4.55217e+06 -1.39815e+06
229 3 O 2.53282 39.0415 1.4948 -1.2 -9.25993 -4.6107e+06 -576393 -2.2953e+06 1.70294e+06 -309837 -703421
230 3 O 5.44674 39.3094 0.196716 -1.2 -6.81063 -4.91653e+06 -1.04228e+07 -6.13155e+06 -148402 -5.76372e+06 2.07198e+06
231 1 Mg 7.04922 37.992 2.9896 1.2 -8.20839 4.9982e+06 -2.11731e+06 -134414 1.27779e+06 -1.3997e+06 1.7738e+06
232 3 O 5.42658 39.3094 2.79288 -1.2 -8.59963 -2.58659e+06 -3.28817e+06 -2.5259e+06 1.13963e+06 -317781 -1.04438e+06
233 1 Mg -0.333062 38.0333 4.4844 1.2 -9.02374 -673126 2.05254e+06 3.86888e+06 -411222 -184754 -132084
234 2 Si -2.12255 40.7174 4.4844 2.4 -33.2714 1.17006e+07 7.99428e+06 9.79419e+06 102957 -92445.5 -184653
235 3 O -2.19212 39.1042 4.4844 -1.2 -9.18386 -4.21176e+06 298246 -4.35291e+06 474652 -86959.9 128378
236 3 O 1.50676 41.6915 4.4844 -1.2 -9.12125 -3.69226e+06 -2.22826e+06 -3.56557e+06 2.35739e+06 -189398 221543
237 3 O -1.3884 41.4236 3.18632 -1.2 -8.79469 -2.87583e+06 -3.1711e+06 -1.79749e+06 1.15605e+06 121905 -1.31186e+06
238 3 O -1.40713 41.4236 5.78248 -1.2 -8.77892 -2.80204e+06 -3.25743e+06 -2.3329e+06 1.15708e+06 112931 1.32332e+06
239 1 Mg 2.01892 40.3665 2.9896 1.2 -8.1803 4.94081e+06 -2.03306e+06 -224293 -1.08775e+06 -1.62557e+06 -1.70208e+06
240 1 Mg 4.83434 40.3252 4.4844 1.2 -8.8817 -305311 1.86635e+06 3.59966e+06 1.25018e+06 -115205 -50235.5
241 2 Si 3.02698 42.39 4.4844 2.4 -32.9773 1.16488e+07 8.02919e+06 9.29118e+06 771359 -233065 -564743
242 3 O 3.05433 44.0033 4.4844 -1.2 -9.57004 -3.94633e+06 -25199.3 -3.84882e+06 610934 45129.2 263487
243 3 O -3.60077 41.416 4.4844 -1.2 -9.18184 -3.83521e+06 -2.06733e+06 -3.42354e+06 -1.34048e+06 -314226 84888.6
244 3 O 3.71851 41.6839 3.18632 -1.2 -8.86735 -2.95993e+06 -3.26752e+06 -1.76087e+06 -860450 264723 1.4265e+06
245 1 Mg 2.04077 40.3665 0 1.2 -6.50906 2.69415e+06 1.7999e+06 -3.6339e+06 -1.8167e+06 393376 1.37393e+06
246 3 O 3.70011 41.6839 5.78248 -1.2 -8.86625 -3.03965e+06 -3.05568e+06 -2.42284e+06 -967843 28443.8 -989689
247 1 Mg -0.796865 40.4078 1.4948 1.2 -9.04783 -667168 2.30554e+06 4.6856e+06 1.74075e+06 58240.1 -142373
248 2 Si 1.01387 38.3429 1.4948 2.4 -34.259 1.17838e+07 7.89236e+06 1.13804e+07 1.54866e+06 1.41306e+06 1.56355e+06
249 3 O 0.989947 36.7297 1.4948 -1.2 -7.7643 -6.99203e+06 47302.2 -1.07198e+07 1.03352e+06 -6.60696e+06 2.17159e+06
250 3 O 7.63988 39.317 1.4948 -1.2 -9.30188 -4.66675e+06 -496851 -2.28802e+06 -916121 -294994 1.28166e+06
251 3 O 0.340253 39.0491 0.196716 -1.2 -6.81814 -5.01611e+06 -1.13251e+07 -6.07204e+06 386665 -5.8699e+06 -1.29957e+06
252 3 O 0.319795 39.0491 2.79288 -1.2 -8.61729 -2.50166e+06 -3.47306e+06 -2.61087e+06 -863015 -177017 1.08256e+06
253 1 Mg 7.20667 42.741 0 1.2 -6.48247 2.10182e+06 1.97841e+06 -3.69011e+06 1.98134e+06 978397 -2.2265e+06
254 1 Mg 4.50613 47.4487 1.4948 1.2 -8.65453 -1.5867e+06 3.24496e+06 3.45198e+06 -869641 444932 220842
255 2 Si 6.29731 44.7645 1.4948 2.4 -33.4425 1.15235e+07 7.9663e+06 1.03005e+07 -233272 1.02611e+06 -1.55565e+06
256 3 O 6.36567 46.3778 1.4948 -1.2 -9.16509 -5.04489e+06 -542648 -4.67206e+06 185683 -2.75413e+06 -1.40536e+06
257 3 O 2.669 43.7905 1.4948 -1.2 -9.41573 -4.17377e+06 -1.11836e+06 -2.21074e+06 1.7226e+06 -149197 -781075
258 3 O 5.58048 44.0584 0.196716 -1.2 -7.70797 -4.50799e+06 -8.17407e+06 -3.38621e+06 326165 -3.73512e+06 2.44475e+06
259 1 Mg 7.1879 42.741 2.9896 1.2 -8.012 4.65177e+06 -1.89908e+06 -307533 1.29623e+06 -1.5094e+06 1.75268e+06
260 3 O 5.56564 44.0584 2.79288 -1.2 -8.87537 -2.27301e+06 -3.64926e+06 -2.06206e+06 1.11976e+06 -361422 -1.03112e+06
261 1 Mg -0.19105 42.7823 4.4844 1.2 -8.78183 -1.05401e+06 2.19966e+06 3.71451e+06 -480437 -178615 -111646
262 2 Si -1.97909 45.4664 4.4844 2.4 -32.5419 1.02457e+07 9.0573e+06 9.01717e+06 52462 -69267.1 -293700
263 3 O -2.04947 43.8532 4.4844 -1.2 -9.47618 -3.64981e+06 5735.41 -4.1497e+06 449089 -78421.3 142915
264 3 O 1.65063 46.4405 4.4844 -1.2 -9.58181 -3.01537e+06 -2.95896e+06 -2.79573e+06 2.23502e+06 -18690.5 26862.4
265 3 O -1.24745 46.1726 3.18632 -1.2 -9.11003 -2.25819e+06 -3.80683e+06 -1.38315e+06 1.13779e+06 124717 -1.39549e+06
266 3 O -1.26044 46.1726 5.78248 -1.2 -9.26867 -1.94763e+06 -3.80307e+06 -1.70958e+06 1.25318e+06 198167 1.64214e+06
267 1 Mg 2.15896 45.1155 2.9896 1.2 -7.86356 4.46354e+06 -1.44592e+06 -825948 -1.07112e+06 -1.77323e+06 -1.64347e+06
268 1 Mg 4.97763 45.0742 4.4844 1.2 -8.46866 -928208 2.49345e+06 2.93219e+06 1.26494e+06 107982 -145781
269 2 Si 3.1711 47.139 4.4844 2.4 -32.0609 1.02483e+07 9.57722e+06 7.66254e+06 798644 -224509 325138