ITEM: TIMESTEP
40800
ITEM: NUMBER OF ATOMS
10500
ITEM: BOX BOUNDS xy xz yz pp pp pp
0.0000000000000000e+00 1.5297749999999999e+01 5.0992499999999996e+00
0.0000000000000000e+00 1.1872499999999999e+02 0.0000000000000000e+00
0.0000000000000000e+00 8.9688000000000002e+01 0.0000000000000000e+00
ITEM: ATOMS id type element xu yu zu q c_pe c_s[1] c_s[2] c_s[3] c_s[4] c_s[5] c_s[6]
1 1 Mg 6.2404 -6.37941e-06 0 1.2 -4.31485 7.75643e+06 -1.63833e+06 -6.46666e+06 -16214 2.60301e+06 -417082
2 1 Mg 3.46349 4.70768 1.4948 1.2 -8.38817 -442529 3.2224e+06 3.75553e+06 -934733 -610599 -77333.3
3 2 Si 5.2885 2.02354 1.4948 2.4 -35.0786 9.73447e+06 1.17172e+07 1.05429e+07 8.88124e+06 742995 -3.55132e+06
4 3 O 5.33628 3.63678 1.4948 -1.2 -4.81455 -670652 -1.91636e+06 -3.31982e+07 -339511 3.79046e+06 -3.67273e+06
5 3 O 1.67294 1.04952 1.4948 -1.2 -1.13124 -2.02083e+07 -7.9697e+07 -1.77696e+06 -2.41272e+07 -126397 146058
6 3 O 4.59532 1.31737 0.196716 -1.2 -3.14227 -1.80809e+06 -6.94508e+06 -3.0191e+07 -6.04615e+06 6.21245e+06 -2.43822e+06
7 1 Mg 6.18956 -6.37941e-06 2.9896 1.2 -4.92082 1.51019e+06 -2.79082e+07 -3.25333e+06 -8.83558e+06 2.48392e+06 3.7903e+06
8 3 O 4.55118 1.31737 2.79288 -1.2 -7.55354 203014 -5.07618e+06 -2.76632e+06 -2.9795e+06 -3.45509e+06 -844943
9 1 Mg -1.20682 0.0413099 4.4844 1.2 8.86768 -3.07642e+07 -9.30609e+07 -485000 -2.85472e+07 -1.28927e+06 -151497
10 2 Si -3.0337 2.72544 4.4844 2.4 -33.0949 1.40049e+07 8.01253e+06 7.37854e+06 1.5821e+06 91691.2 -1.12828e+06
11 3 O -3.08099 1.11221 4.4844 -1.2 -9.59001 -6.08591e+06 -376751 -1.87264e+06 -1.19912e+06 -232807 544258
12 3 O 0.582463 3.69946 4.4844 -1.2 -9.052 -3.1693e+06 -6.01882e+06 -2.2713e+06 -565996 -79420.4 126860
13 3 O -2.29524 3.43162 3.18632 -1.2 -9.11604 -4.05387e+06 -3.02857e+06 -148229 1.09204e+06 -800317 -698127
14 3 O -2.34216 3.43162 5.78248 -1.2 -8.8363 -3.75605e+06 -3.73941e+06 -1.24696e+06 824120 739166 1.53997e+06
15 1 Mg 1.12778 2.37449 2.9896 1.2 -7.53349 5.10582e+06 -1.2042e+06 -1.15105e+06 -3.28612e+06 -4.2276e+06 -2.51056e+06
16 1 Mg 3.92855 2.33318 4.4844 1.2 -8.4086 -4.1683e+06 5.38314e+06 4.28252e+06 1.4138e+06 393890 202767
17 2 Si 2.09341 4.39804 4.4844 2.4 -32.1721 1.18793e+07 7.88325e+06 7.70718e+06 132874 -325700 112219
18 3 O 2.09991 6.01128 4.4844 -1.2 -9.58781 -3.90477e+06 -594905 -3.3001e+06 573502 -97515.9 59154.6
19 3 O -4.52137 3.42402 4.4844 -1.2 -9.2128 -2.75262e+06 -3.39039e+06 -3.20365e+06 -2.43105e+06 -973006 299801
20 3 O 2.80834 3.69187 3.18632 -1.2 -9.4157 -2.05411e+06 -3.32722e+06 143195 465711 -505772 -258952
21 1 Mg 1.17857 2.37449 0 1.2 -5.01816 -807605 -1.45078e+07 -6.72717e+06 6.51943e+06 1.21221e+06 4.41555e+06
22 3 O 2.76143 3.69187 5.78248 -1.2 -9.48735 -2.76136e+06 -2.8663e+06 -583183 580792 13679 188860
23 1 Mg -1.67381 2.41581 1.4948 1.2 -7.49689 1.39459e+06 174962 3.70843e+06 1.34283e+06 -613350 788366
24 2 Si 0.16286 0.350945 1.4948 2.4 -24.4154 -8.47113e+06 1.2992e+07 1.0895e+07 1.56587e+06 2.78398e+06 731595
25 3 O 0.15972 -1.26229 1.4948 -1.2 -4.81745 -1.05586e+07 -8.22293e+06 -2.87847e+07 -5.59469e+06 -8.5095e+06 -2.47197e+06
26 3 O 6.77654 1.32496 1.4948 -1.2 -10.4337 -5.60047e+06 1.44026e+06 -1.06716e+06 -640507 -644134 1.31344e+06
27 3 O -0.508028 1.05712 0.196716 -1.2 -9.63082 308664 -4.93496e+06 -475853 -533036 229353 -4.33817e+06
28 3 O -0.552171 1.05712 2.79288 -1.2 -6.84194 -5.23703e+06 -4.95386e+06 -2.4329e+07 1.44051e+06 -6.73611e+06 -5.24768e+06
29 1 Mg 6.31713 4.74899 0 1.2 -4.83503 198039 -1.24406e+07 -6.56317e+06 -7.30698e+06 1.42421e+06 -3.73145e+06
30 1 Mg 3.54847 9.45668 1.4948 1.2 -8.31626 281434 2.29893e+06 3.81844e+06 -966505 -938215 -381938
31 2 Si 5.36879 6.77254 1.4948 2.4 -34.1643 7.10937e+06 1.32443e+07 1.03316e+07 1.65881e+06 179853 -2.15693e+06
32 3 O 5.41937 8.38578 1.4948 -1.2 -4.79747 -285846 -1.53874e+06 -3.45923e+07 772304 1.09601e+06 -4.1616e+06
33 3 O 1.75158 5.79852 1.4948 -1.2 -9.58086 -3.88986e+06 -2.93527e+06 -837616 1.97157e+06 -1.57933e+06 -1.23665e+06
34 3 O 4.67421 6.06637 0.196716 -1.2 -3.86377 272442 -1.06537e+07 -3.09087e+07 -2.01474e+06 1.30424e+06 -4.35797e+06
35 1 Mg 6.26654 4.74899 2.9896 1.2 -7.96287 3.9719e+06 -1.10368e+06 -540093 1.80706e+06 -802842 1.70313e+06
36 3 O 4.63043 6.06637 2.79288 -1.2 -8.92183 -1.5398e+06 -4.57433e+06 -1.55234e+06 950650 -147875 -1.29254e+06
37 1 Mg -1.12976 4.79031 4.4844 1.2 -8.74076 -748632 3.36303e+06 2.2594e+06 -656239 -496828 -335841
38 2 Si -2.9517 7.47444 4.4844 2.4 -32.7824 1.10486e+07 1.02619e+07 7.36688e+06 114134 70296.3 -422950
39 3 O -3.00198 5.86121 4.4844 -1.2 -9.48381 -3.82083e+06 -817266 -3.19376e+06 14160.1 -239096 318954
40 3 O 0.666315 8.44846 4.4844 -1.2 -9.2876 -3.2743e+06 -3.2596e+06 -2.66143e+06 2.12119e+06 -427930 140210
41 3 O -2.21213 8.18062 3.18632 -1.2 -9.1118 -2.85994e+06 -4.02589e+06 -58915.1 1.08401e+06 -326329 -1.32289e+06
42 3 O -2.25864 8.18062 5.78248 -1.2 -9.00127 -2.8043e+06 -4.36336e+06 -1.09611e+06 984447 -90958.9 1.45825e+06
43 1 Mg 1.20893 7.12349 2.9896 1.2 -7.94369 4.04039e+06 -990093 -773626 -1.28545e+06 -1.37329e+06 -1.78542e+06
44 1 Mg 4.00982 7.08218 4.4844 1.2 -8.58409 -840663 3.14516e+06 2.36682e+06 966431 -255735 -53973.1
45 2 Si 2.17861 9.14704 4.4844 2.4 -32.8169 1.11795e+07 1.00973e+07 7.42778e+06 545244 -243066 -124006
46 3 O 2.18828 10.7603 4.4844 -1.2 -9.40048 -4.01932e+06 -699332 -3.35271e+06 446736 -91500.8 95232.7
47 3 O -4.43805 8.17302 4.4844 -1.2 -9.34175 -3.34376e+06 -3.2511e+06 -2.48782e+06 -1.51834e+06 -575186 123659
48 3 O 2.89193 8.44087 3.18632 -1.2 -9.13668 -2.79484e+06 -4.17869e+06 -84003 -906315 -192214 1.36235e+06
49 1 Mg 1.25915 7.12349 0 1.2 -5.23108 856518 -7.02617e+06 -6.8955e+06 5.89408e+06 1.37831e+06 2.56345e+06
50 3 O 2.84547 8.44087 5.78248 -1.2 -9.07538 -2.83373e+06 -4.33458e+06 -1.12896e+06 -821892 20283.5 -1.02783e+06
51 1 Mg -1.59284 7.16481 1.4948 1.2 -8.1946 697804 1.96008e+06 3.74511e+06 1.46627e+06 -911793 240703
52 2 Si 0.240329 5.09994 1.4948 2.4 -33.8976 8.01821e+06 1.20212e+07 1.02193e+07 -1.96391e+06 -1.10343e+06 1.67471e+06
53 3 O 0.234538 3.48671 1.4948 -1.2 -5.31289 -1.62857e+06 -56048.4 -3.33378e+07 406007 5.20839e+06 4.14944e+06
54 3 O 6.85564 6.07396 1.4948 -1.2 -9.65163 -4.27422e+06 -2.39238e+06 -844345 -1.34649e+06 -1.84567e+06 1.29724e+06
55 3 O -0.429565 5.80612 0.196716 -1.2 -4.1131 -510566 -9.3006e+06 -3.10358e+07 1.85767e+06 1.19049e+06 4.63737e+06
56 3 O -0.473377 5.80612 2.79288 -1.2 -9.00117 -2.01542e+06 -4.15228e+06 -1.46851e+06 -794121 344287 1.46729e+06
57 1 Mg 6.40169 9.49799 0 1.2 -5.23987 1.4919e+06 -5.90915e+06 -7.12283e+06 -5.49139e+06 990093 -2.4887e+06
58 1 Mg 3.64209 14.2057 1.4948 1.2 -8.56186 463040 2.08079e+06 4.20762e+06 -1.03019e+06 -963376 -477337
59 2 Si 5.45748 11.5215 1.4948 2.4 -34.3694 7.79074e+06 1.26413e+07 1.0558e+07 879191 351187 -2.35145e+06
60 3 O 5.51101 13.1348 1.4948 -1.2 -4.6796 -728056 -1.2368e+06 -3.44603e+07 472898 -2.54527e+06 -4.19654e+06
61 3 O 1.83851 10.5475 1.4948 -1.2 -9.55451 -4.25498e+06 -2.38894e+06 -788967 1.53774e+06 -1.56507e+06 -1.00729e+06
62 3 O 4.7611 10.8154 0.196716 -1.2 -3.62518 545147 -1.19554e+07 -3.14841e+07 -2.45574e+06 -1.75108e+06 -4.22095e+06
63 1 Mg 6.35203 9.49799 2.9896 1.2 -7.97692 4.13341e+06 -1.0227e+06 -762324 1.30991e+06 -1.14336e+06 1.89184e+06
64 3 O 4.71833 10.8154 2.79288 -1.2 -8.83128 -1.95916e+06 -4.28978e+06 -1.57019e+06 1.06125e+06 32296.4 -1.2133e+06
65 1 Mg -1.0438 9.53931 4.4844 1.2 -8.70508 -904028 3.10257e+06 2.57907e+06 -534762 -266855 -146209
66 2 Si -2.8604 12.2234 4.4844 2.4 -33.1217 1.17928e+07 9.78824e+06 7.64059e+06 -91985.2 106713 -281821
67 3 O -2.91391 10.6102 4.4844 -1.2 -9.4125 -4.01161e+06 -725404 -3.21765e+06 219625 -277313 124299
68 3 O 0.7596 13.1975 4.4844 -1.2 -9.04742 -3.59189e+06 -3.03677e+06 -2.95208e+06 2.13671e+06 -456608 265231
69 3 O -2.12001 12.9296 3.18632 -1.2 -8.9227 -3.11541e+06 -3.85345e+06 -283416 1.17099e+06 -263809 -1.35793e+06
70 3 O -2.16532 12.9296 5.78248 -1.2 -8.75864 -3.28695e+06 -4.08853e+06 -1.26957e+06 1.18168e+06 -240589 1.59597e+06
71 1 Mg 1.29891 11.8725 2.9896 1.2 -8.09783 4.30159e+06 -1.10857e+06 -672609 -1.17097e+06 -1.25177e+06 -1.81478e+06
72 1 Mg 4.10033 11.8312 4.4844 1.2 -8.77536 -468264 2.94625e+06 2.50406e+06 1.1217e+06 -366510 -43219.5
73 2 Si 2.27333 13.896 4.4844 2.4 -33.3141 1.20091e+07 9.56906e+06 7.92154e+06 752076 -201918 -450293
74 3 O 2.28634 15.5093 4.4844 -1.2 -9.15295 -4.48227e+06 -469363 -3.51998e+06 415826 -152208 287996
75 3 O -4.34533 12.922 4.4844 -1.2 -9.13789 -3.79035e+06 -2.97571e+06 -2.63566e+06 -1.45789e+06 -500618 84705
76 3 O 2.98455 13.1899 3.18632 -1.2 -8.94006 -3.13565e+06 -3.92183e+06 -335222 -973346 -117867 1.46339e+06
77 1 Mg 1.34779 11.8725 0 1.2 -5.5524 2.84872e+06 -2.39186e+06 -7.10881e+06 3.57095e+06 810109 1.46744e+06
78 3 O 2.93934 13.1899 5.78248 -1.2 -8.76793 -3.29636e+06 -4.09167e+06 -1.43103e+06 -970252 -28328.1 -954743
79 1 Mg -1.50344 11.9138 1.4948 1.2 -8.41178 602292 2.16555e+06 3.96683e+06 1.56687e+06 -934110 293498
80 2 Si 0.326006 9.84894 1.4948 2.4 -34.2368 7.58316e+06 1.28326e+07 1.03342e+07 -590624 106330 2.13474e+06
81 3 O 0.317364 8.23571 1.4948 -1.2 -4.80031 -384051 -1.40941e+06 -3.47479e+07 -129341 1.18415e+06 4.25307e+06
82 3 O 6.94307 10.823 1.4948 -1.2 -9.58263 -4.40981e+06 -2.20239e+06 -735075 -982872 -1.54513e+06 1.13823e+06
83 3 O -0.343122 10.5551 0.196716 -1.2 -3.72432 305146 -1.14319e+07 -3.15735e+07 2.4499e+06 -2.05962e+06 4.57454e+06
84 3 O -0.385966 10.5551 2.79288 -1.2 -8.86122 -1.90679e+06 -4.3572e+06 -1.65268e+06 -870319 85890.3 1.21409e+06
85 1 Mg 6.49448 14.247 0 1.2 -5.61612 3.51288e+06 -1.75728e+06 -7.12055e+06 -2.97235e+06 248962 -1.69736e+06
86 1 Mg 3.74457 18.9547 1.4948 1.2 -8.85313 585207 1.86017e+06 4.69551e+06 -1.11075e+06 -940720 -443172
87 2 Si 5.55495 16.2705 1.4948 2.4 -34.7773 8.72127e+06 1.16626e+07 1.12783e+07 525707 830145 -2.66489e+06
88 3 O 5.6115 17.8838 1.4948 -1.2 -4.77529 -2.08209e+06 -777858 -3.21807e+07 80494.7 -6.07453e+06 -3.94723e+06
89 3 O 1.93416 15.2965 1.4948 -1.2 -9.3872 -4.64478e+06 -1.75757e+06 -1.04867e+06 1.52845e+06 -1.3743e+06 -825929
90 3 O 4.85636 15.5644 0.196716 -1.2 -3.44341 226057 -1.33253e+07 -3.02533e+07 -3.027e+06 -5.15572e+06 -3.52331e+06
91 1 Mg 6.44662 14.247 2.9896 1.2 -8.17363 4.55705e+06 -1.30908e+06 -585352 1.28161e+06 -1.17168e+06 1.85021e+06
92 3 O 4.81537 15.5644 2.79288 -1.2 -8.59228 -2.28659e+06 -4.00724e+06 -1.93809e+06 1.05447e+06 -41303.6 -1.10651e+06
93 1 Mg -0.948271 14.2883 4.4844 1.2 -8.9549 -544303 2.86822e+06 2.84703e+06 -608811 -249148 -285112
94 2 Si -2.75928 16.9724 4.4844 2.4 -33.6843 1.25092e+07 9.32104e+06 8.29886e+06 -91822 -164566 -322405
95 3 O -2.81617 15.3592 4.4844 -1.2 -9.1474 -4.40947e+06 -493638 -3.46129e+06 331040 -173835 162010
96 3 O 0.862762 17.9465 4.4844 -1.2 -8.82463 -4.11757e+06 -2.86698e+06 -2.96475e+06 2.171e+06 -439922 244606
97 3 O -2.0185 17.6786 3.18632 -1.2 -8.6753 -3.47039e+06 -3.55327e+06 -642490 1.17872e+06 -110339 -1.32618e+06
98 3 O -2.06164 17.6786 5.78248 -1.2 -8.43502 -3.68128e+06 -3.97886e+06 -1.53219e+06 1.14905e+06 117074 1.55239e+06
99 1 Mg 1.39817 16.6215 2.9896 1.2 -8.3106 4.79633e+06 -1.40249e+06 -534638 -1.15846e+06 -1.23843e+06 -1.88217e+06
100 1 Mg 4.20062 16.5802 4.4844 1.2 -9.04448 -99416.5 2.73114e+06 2.78324e+06 1.19983e+06 -224447 -139951
101 2 Si 2.37796 18.645 4.4844 2.4 -33.7643 1.29286e+07 9.19201e+06 8.09679e+06 745144 -25760.5 -301280
102 3 O 2.39434 20.2583 4.4844 -1.2 -8.92751 -4.87495e+06 -187030 -3.77652e+06 467422 -197124 130486
103 3 O -4.24274 17.671 4.4844 -1.2 -8.85466 -4.1098e+06 -2.73681e+06 -3.00821e+06 -1.424e+06 -517258 120690
104 3 O 3.08659 17.9389 3.18632 -1.2 -8.70552 -3.50868e+06 -3.65205e+06 -648948 -956830 -102844 1.48355e+06
105 1 Mg 1.44478 16.6215 0 1.2 -5.88563 4.83423e+06 199103 -6.70876e+06 1.40332e+06 -55594.4 651424
106 3 O 3.0436 17.9389 5.78248 -1.2 -8.53477 -3.7345e+06 -4.07098e+06 -1.38769e+06 -938752 -255390 -961605
107 1 Mg -1.40524 16.6628 1.4948 1.2 -8.70266 778280 1.95623e+06 4.41859e+06 1.68199e+06 -995466 160702
108 2 Si 0.420358 14.5979 1.4948 2.4 -34.6279 8.28964e+06 1.21204e+07 1.09507e+07 -129741 539001 2.08669e+06
109 3 O 0.408732 12.9847 1.4948 -1.2 -4.66906 -704476 -1.23245e+06 -3.46392e+07 219784 -2.55514e+06 4.4102e+06
110 3 O 7.03923 15.572 1.4948 -1.2 -9.41329 -4.80357e+06 -1.58849e+06 -984805 -938667 -1.3056e+06 1.20391e+06
111 3 O -0.248332 15.3041 0.196716 -1.2 -3.551 -37370.4 -1.28817e+07 -3.03138e+07 3.24771e+06 -5.38751e+06 4.22093e+06
112 3 O -0.289436 15.3041 2.79288 -1.2 -8.63219 -2.23338e+06 -4.13458e+06 -1.95724e+06 -840233 56388.8 1.29308e+06
113 1 Mg 6.59566 18.996 0 1.2 -5.96299 5.26195e+06 441676 -6.46963e+06 -922815 -673897 -1.11903e+06
114 1 Mg 3.85574 23.7037 1.4948 1.2 -9.02534 431340 2.00954e+06 4.83613e+06 -1.17856e+06 -899128 -352788
115 2 Si 5.66125 21.0195 1.4948 2.4 -35.0559 9.68835e+06 1.06722e+07 1.18101e+07 171781 1.23427e+06 -2.67176e+06
116 3 O 5.72074 22.6328 1.4948 -1.2 -5.24878 -3.93895e+06 -517282 -2.74839e+07 -214718 -8.50612e+06 -3.52307e+06
117 3 O 2.03867 20.0455 1.4948 -1.2 -9.21833 -4.9832e+06 -1.15568e+06 -1.38001e+06 1.56029e+06 -1.1609e+06 -813123
118 3 O 4.96004 20.3134 0.196716 -1.2 -3.56509 -797773 -1.43876e+07 -2.67856e+07 -3.18886e+06 -7.96769e+06 -2.57416e+06
119 1 Mg 6.55057 18.996 2.9896 1.2 -8.38951 4.96267e+06 -1.6474e+06 -306181 1.28586e+06 -1.20043e+06 1.80798e+06
120 3 O 4.92172 20.3134 2.79288 -1.2 -8.37943 -2.56212e+06 -3.73767e+06 -2.30843e+06 1.09172e+06 -106863 -1.09341e+06
121 1 Mg -0.84282 19.0373 4.4844 1.2 -9.19995 -134597 2.60421e+06 3.08739e+06 -511402 -349638 -197725
122 2 Si -2.64823 21.7214 4.4844 2.4 -34.0219 1.32275e+07 8.835e+06 8.61395e+06 -79366.4 -258545 -470262
123 3 O -2.70847 20.1082 4.4844 -1.2 -8.91116 -4.77793e+06 -204401 -3.74622e+06 345758 -102968 203861
124 3 O 0.97581 22.6955 4.4844 -1.2 -8.68278 -4.37192e+06 -2.60497e+06 -3.19145e+06 2.18685e+06 -506293 318162
125 3 O -1.9076 22.4276 3.18632 -1.2 -8.53584 -3.70583e+06 -3.37818e+06 -839249 1.17847e+06 -21760.8 -1.27489e+06
126 3 O -1.9475 22.4276 5.78248 -1.2 -8.32354 -4.07959e+06 -3.70968e+06 -1.51515e+06 1.18465e+06 17801.7 1.68352e+06
127 1 Mg 1.50678 21.3705 2.9896 1.2 -8.47045 5.17763e+06 -1.69732e+06 -365003 -1.14026e+06 -1.23548e+06 -1.81577e+06
128 1 Mg 4.31086 21.3292 4.4844 1.2 -9.26705 131767 2.47183e+06 3.17097e+06 1.16389e+06 -225529 -89815.5
129 2 Si 2.49243 23.394 4.4844 2.4 -34.0093 1.32241e+07 8.83074e+06 8.56259e+06 775611 55606.6 -622801
130 3 O 2.51204 25.0073 4.4844 -1.2 -8.92881 -4.86137e+06 -334640 -3.63254e+06 508893 -208535 364096
131 3 O -4.13026 22.42 4.4844 -1.2 -8.70371 -4.36166e+06 -2.55458e+06 -3.16323e+06 -1.35858e+06 -375183 174730
132 3 O 3.19799 22.6879 3.18632 -1.2 -8.56034 -3.65999e+06 -3.49039e+06 -943213 -937340 -27959.1 1.50984e+06
133 1 Mg 1.5501 21.3705 0 1.2 -6.12106 6.01637e+06 1.45779e+06 -5.99434e+06 -61401.1 -974893 314776
134 3 O 3.1583 22.6879 5.78248 -1.2 -8.27952 -3.96509e+06 -3.74194e+06 -1.95561e+06 -948863 -258630 -896927
135 1 Mg -1.29822 21.4118 1.4948 1.2 -8.9463 820762 1.85726e+06 4.76107e+06 1.79878e+06 -967093 113293
136 2 Si 0.523568 19.3469 1.4948 2.4 -34.9919 9.33015e+06 1.10534e+07 1.15886e+07 317005 957727 2.22083e+06
137 3 O 0.508934 17.7337 1.4948 -1.2 -4.77018 -2.09469e+06 -783621 -3.23052e+07 666489 -6.06146e+06 4.27592e+06
138 3 O 7.14425 20.321 1.4948 -1.2 -9.24967 -5.1221e+06 -1.00499e+06 -1.32053e+06 -926188 -1.05878e+06 1.19217e+06
139 3 O -0.145107 20.0531 0.196716 -1.2 -3.67392 -1.14713e+06 -1.40685e+07 -2.67846e+07 3.68471e+06 -8.17004e+06 3.24422e+06
140 3 O -0.183601 20.0531 2.79288 -1.2 -8.42656 -2.58364e+06 -3.84801e+06 -2.27069e+06 -853245 15380 1.23125e+06
141 1 Mg 6.70502 23.745 0 1.2 -6.15713 5.89086e+06 1.70999e+06 -5.67206e+06 412316 -1.49934e+06 -669785
142 1 Mg 3.97493 28.4527 1.4948 1.2 -9.06976 34385.1 2.52133e+06 4.55981e+06 -1.23192e+06 -772649 -208503
143 2 Si 5.77602 25.7685 1.4948 2.4 -34.9546 1.03185e+07 1.05172e+07 1.12603e+07 -117154 1.49595e+06 -2.54524e+06
144 3 O 5.83821 27.3818 1.4948 -1.2 -6.07201 -5.62103e+06 -694015 -2.1071e+07 -337815 -9.2578e+06 -2.97529e+06
145 3 O 2.15175 24.7945 1.4948 -1.2 -9.19012 -5.03524e+06 -1.06098e+06 -1.33341e+06 1.60912e+06 -949287 -795154
146 3 O 5.07184 25.0624 0.196716 -1.2 -4.14719 -2.10901e+06 -1.51827e+07 -2.11253e+07 -2.79729e+06 -9.41682e+06 -1.40347e+06
147 1 Mg 6.66374 23.745 2.9896 1.2 -8.45493 5.17148e+06 -1.69372e+06 -360823 1.29801e+06 -1.28969e+06 1.73817e+06
148 3 O 5.03707 25.0624 2.79288 -1.2 -8.34396 -2.58167e+06 -3.89656e+06 -2.22356e+06 1.09474e+06 -152214 -1.01807e+06
149 1 Mg -0.727559 23.7863 4.4844 1.2 -9.25473 22840.8 2.51479e+06 3.09879e+06 -508820 -255013 -330145
150 2 Si -2.5277 26.4704 4.4844 2.4 -33.8597 1.3069e+07 9.40186e+06 7.9507e+06 -26328.1 -400348 -595832
151 3 O -2.59107 24.8572 4.4844 -1.2 -8.91349 -4.8507e+06 -268107 -3.58536e+06 376684 -3091.85 317334
152 3 O 1.09817 27.4445 4.4844 -1.2 -8.80643 -4.21583e+06 -3.03127e+06 -2.73605e+06 2.17303e+06 -517786 200649
153 3 O -1.78784 27.1766 3.18632 -1.2 -8.57946 -3.61896e+06 -3.71066e+06 -583039 1.16424e+06 77459.5 -1.30451e+06
154 3 O -1.82343 27.1766 5.78248 -1.2 -8.53035 -3.90001e+06 -4.01886e+06 -1.05329e+06 1.20607e+06 39490.6 1.78904e+06
155 1 Mg 1.62435 26.1195 2.9896 1.2 -8.43343 5.23088e+06 -1.42871e+06 -743095 -1.13727e+06 -1.25862e+06 -1.80979e+06
156 1 Mg 4.43064 26.0782 4.4844 1.2 -9.22046 -48444.2 2.84397e+06 2.90588e+06 1.18765e+06 -153180 -222146
157 2 Si 2.61607 28.143 4.4844 2.4 -33.7972 1.27463e+07 9.61907e+06 7.90515e+06 760755 135254 -82983.1
158 3 O 2.63853 29.7563 4.4844 -1.2 -8.97587 -4.6483e+06 -470442 -3.64695e+06 584473 -212479 71518.9
159 3 O -4.00841 27.169 4.4844 -1.2 -8.79634 -4.19036e+06 -2.94163e+06 -2.80836e+06 -1.31185e+06 -280357 142994
160 3 O 3.3182 27.4369 3.18632 -1.2 -8.60217 -3.50735e+06 -3.87765e+06 -721694 -897026 38671.6 1.40935e+06
161 1 Mg 1.66335 26.1195 0 1.2 -6.20262 5.90836e+06 2.31814e+06 -5.39675e+06 -902959 -1.56077e+06 228572
162 3 O 3.28288 27.4369 5.78248 -1.2 -8.50376 -3.51248e+06 -4.31465e+06 -1.33596e+06 -875421 -339012 -1.27709e+06
163 1 Mg -1.18278 26.1608 1.4948 1.2 -9.03029 525491 2.28038e+06 4.57548e+06 1.88382e+06 -848405 64475
164 2 Si 0.635424 24.0959 1.4948 2.4 -35.0217 1.01335e+07 1.0589e+07 1.13648e+07 746369 1.382e+06 2.26848e+06
165 3 O 0.617906 22.4827 1.4948 -1.2 -5.24672 -4.01451e+06 -494804 -2.75694e+07 1.00941e+06 -8.53821e+06 3.7994e+06
166 3 O 7.25781 25.07 1.4948 -1.2 -9.22947 -5.14276e+06 -947248 -1.26961e+06 -928974 -808310 1.16428e+06
167 3 O -0.0337363 24.8021 0.196716 -1.2 -4.24214 -2.49011e+06 -1.51253e+07 -2.10618e+07 3.51577e+06 -9.64485e+06 1.8957e+06
168 3 O -0.0687235 24.8021 2.79288 -1.2 -8.39811 -2.68223e+06 -3.97108e+06 -2.14546e+06 -835805 -72490.4 1.25042e+06
169 1 Mg 6.82195 28.494 0 1.2 -6.24492 5.35496e+06 2.52114e+06 -4.92707e+06 1.16768e+06 -1.86849e+06 -534475
170 1 Mg 4.10106 33.2017 1.4948 1.2 -9.12044 -322542 2.7263e+06 4.45248e+06 -1.20864e+06 -518728 -208977
171 2 Si 5.89839 30.5175 1.4948 2.4 -34.6968 1.09693e+07 1.02515e+07 1.0545e+07 -314141 1.59518e+06 -2.31314e+06
172 3 O 5.96289 32.1308 1.4948 -1.2 -6.95311 -6.75409e+06 -653684 -1.49116e+07 -300478 -8.42204e+06 -2.34005e+06
173 3 O 2.27266 29.5435 1.4948 -1.2 -9.23046 -4.90206e+06 -1.20858e+06 -1.20683e+06 1.66917e+06 -756720 -818266
174 3 O 5.19102 29.8114 0.196716 -1.2 -5.03241 -3.42495e+06 -1.50174e+07 -1.47544e+07 -1.93156e+06 -9.24842e+06 -72798.7
175 1 Mg 6.78546 28.494 2.9896 1.2 -8.37793 5.15015e+06 -1.38203e+06 -769206 1.31239e+06 -1.3946e+06 1.83115e+06
176 3 O 5.16061 29.8114 2.79288 -1.2 -8.39705 -2.55007e+06 -4.1169e+06 -1.99206e+06 1.10817e+06 -178495 -1.12097e+06
177 1 Mg -0.603205 28.5353 4.4844 1.2 -9.12604 -114343 2.87653e+06 2.65949e+06 -437557 -169162 -137685
178 2 Si -2.39877 31.2194 4.4844 2.4 -33.7658 1.29294e+07 9.47056e+06 7.8722e+06 179799 -387008 34216.2
179 3 O -2.46483 29.6062 4.4844 -1.2 -9.01847 -4.75296e+06 -533947 -3.25421e+06 351001 84779.3 42846.1
180 3 O 1.22864 32.1935 4.4844 -1.2 -8.80647 -4.22391e+06 -2.96436e+06 -2.79103e+06 2.34441e+06 -459548 136349
181 3 O -1.66032 31.9256 3.18632 -1.2 -8.58793 -3.50763e+06 -3.7603e+06 -708805 1.14696e+06 132146 -1.44421e+06
182 3 O -1.69072 31.9256 5.78248 -1.2 -8.49901 -3.70938e+06 -3.86728e+06 -1.36126e+06 1.15141e+06 102236 1.28847e+06
183 1 Mg 1.7499 30.8685 2.9896 1.2 -8.38864 5.2082e+06 -1.32211e+06 -892236 -1.16101e+06 -1.30891e+06 -1.66805e+06
184 1 Mg 4.55894 30.8272 4.4844 1.2 -9.18308 -110204 2.83783e+06 2.91393e+06 1.23121e+06 -220445 -76232.8
185 2 Si 2.7476 32.892 4.4844 2.4 -33.7835 1.27454e+07 9.49925e+06 8.01219e+06 688804 20160.3 -279506
186 3 O 2.77235 34.5053 4.4844 -1.2 -9.01773 -4.69399e+06 -460727 -3.53446e+06 610264 -118053 168553
187 3 O -3.87837 31.918 4.4844 -1.2 -8.83565 -4.24778e+06 -2.87227e+06 -2.75911e+06 -1.41895e+06 -284839 12058.8
188 3 O 3.44611 32.1859 3.18632 -1.2 -8.61232 -3.43149e+06 -3.90832e+06 -841101 -869953 135692 1.39408e+06
189 1 Mg 1.7837 30.8685 0 1.2 -6.29179 4.87816e+06 2.66093e+06 -4.62715e+06 -1.36509e+06 -1.48195e+06 223897
190 3 O 3.41602 32.1859 5.78248 -1.2 -8.44395 -3.45328e+06 -4.17975e+06 -1.70251e+06 -909340 -163965 -1.03132e+06
191 1 Mg -1.05984 30.9098 1.4948 1.2 -9.07526 110861 2.64083e+06 4.39993e+06 1.91534e+06 -639297 30452.2
192 2 Si 0.755243 28.8449 1.4948 2.4 -34.7834 1.06903e+07 1.05759e+07 1.05242e+07 1.13313e+06 1.68046e+06 2.28684e+06
193 3 O 0.735127 27.2317 1.4948 -1.2 -6.07436 -5.73551e+06 -673341 -2.11111e+07 1.17361e+06 -9.34983e+06 3.14851e+06
194 3 O 7.37914 29.819 1.4948 -1.2 -9.27176 -5.01877e+06 -1.09467e+06 -1.1462e+06 -945904 -569886 1.10674e+06
195 3 O 0.0850649 29.5511 0.196716 -1.2 -5.09617 -3.68055e+06 -1.53688e+07 -1.46911e+07 2.69837e+06 -9.47275e+06 579437
196 3 O 0.0543974 29.5511 2.79288 -1.2 -8.45843 -2.65056e+06 -4.23786e+06 -1.86712e+06 -836492 -171514 1.06015e+06
197 1 Mg 6.94543 33.243 0 1.2 -6.37464 4.29885e+06 2.6135e+06 -4.08202e+06 1.58709e+06 -1.49294e+06 -848468
198 1 Mg 4.23267 37.9507 1.4948 1.2 -9.13348 -670131 2.91384e+06 4.21899e+06 -1.11937e+06 -193526 -85522.2
199 2 Si 6.02709 35.2665 1.4948 2.4 -34.4586 1.16886e+07 9.48611e+06 1.02594e+07 -402924 1.60203e+06 -2.18892e+06
200 3 O 6.09339 36.8798 1.4948 -1.2 -7.74509 -6.99012e+06 -564161 -9.989e+06 -140445 -6.61731e+06 -1.83071e+06
201 3 O 2.40018 34.2925 1.4948 -1.2 -9.22581 -4.79545e+06 -1.15665e+06 -1.42437e+06 1.70278e+06 -548822 -743416
202 3 O 5.31645 34.5604 0.196716 -1.2 -5.95875 -4.4785e+06 -1.33737e+07 -9.42433e+06 -944525 -7.8457e+06 1.15994e+06
203 1 Mg 6.91449 33.243 2.9896 1.2 -8.34569 5.17862e+06 -1.41552e+06 -807554 1.3428e+06 -1.41488e+06 1.83883e+06
204 3 O 5.291 34.5604 2.79288 -1.2 -8.43686 -2.64389e+06 -4.07134e+06 -1.91389e+06 1.10631e+06 -283430 -1.05703e+06
205 1 Mg -0.471101 33.2843 4.4844 1.2 -9.15833 -231208 2.76279e+06 2.93783e+06 -488832 -226499 -26984.8
206 2 Si -2.26307 35.9684 4.4844 2.4 -33.7598 1.25653e+07 9.45407e+06 8.25767e+06 107666 -181431 -271186
207 3 O -2.33122 34.3552 4.4844 -1.2 -8.99658 -4.60934e+06 -429552 -3.51584e+06 371868 -27182.2 73628.7
208 3 O 1.36549 36.9425 4.4844 -1.2 -8.87388 -4.14871e+06 -3.05369e+06 -2.66685e+06 2.27222e+06 -293785 164825
209 3 O -1.52658 36.6746 3.18632 -1.2 -8.60003 -3.32543e+06 -3.82172e+06 -899629 1.15223e+06 168928 -1.35319e+06
210 3 O -1.55122 36.6746 5.78248 -1.2 -8.46174 -3.35099e+06 -3.94832e+06 -1.81854e+06 1.19148e+06 123788 1.68248e+06
211 1 Mg 1.882 35.6175 2.9896 1.2 -8.34804 5.21637e+06 -1.31099e+06 -966404 -1.12956e+06 -1.47247e+06 -1.69166e+06
212 1 Mg 4.69415 35.5762 4.4844 1.2 -9.11617 -73225 2.82284e+06 2.78628e+06 1.24955e+06 -96964.4 -142260
213 2 Si 2.88522 37.641 4.4844 2.4 -33.5912 1.25512e+07 9.7294e+06 7.66753e+06 777305 -82407.1 -176168
214 3 O 2.91159 39.2543 4.4844 -1.2 -9.11792 -4.52539e+06 -636031 -3.36923e+06 583862 -73808.4 11190
215 3 O -3.74183 36.667 4.4844 -1.2 -8.90105 -4.18901e+06 -2.91673e+06 -2.65825e+06 -1.3179e+06 -348223 108661
216 3 O 3.58014 36.9349 3.18632 -1.2 -8.65468 -3.34119e+06 -3.99199e+06 -884249 -859574 191826 1.36003e+06
217 1 Mg 1.90997 35.6175 0 1.2 -6.43175 3.62356e+06 2.47925e+06 -3.94536e+06 -1.64901e+06 -740227 652160
218 3 O 3.55582 36.9349 5.78248 -1.2 -8.61409 -3.40126e+06 -4.23317e+06 -1.23965e+06 -867628 -120494 -1.10075e+06
219 1 Mg -0.93068 35.6588 1.4948 1.2 -9.12108 -267425 2.77222e+06 4.32817e+06 1.85502e+06 -353202 -53271.6
220 2 Si 0.881882 33.5939 1.4948 2.4 -34.5731 1.1326e+07 9.85955e+06 1.0339e+07 1.38987e+06 1.65745e+06 1.97742e+06
221 3 O 0.859602 31.9807 1.4948 -1.2 -6.94885 -6.82455e+06 -635630 -1.50092e+07 1.17039e+06 -8.5057e+06 2.5587e+06
222 3 O 7.507 34.568 1.4948 -1.2 -9.26733 -4.91235e+06 -1.04592e+06 -1.37457e+06 -940182 -395194 1.17323e+06
223 3 O 0.210186 34.3001 0.196716 -1.2 -5.98142 -4.55954e+06 -1.40866e+07 -9.44213e+06 1.52503e+06 -7.93541e+06 -518831
224 3 O 0.184454 34.3001 2.79288 -1.2 -8.47871 -2.65911e+06 -4.18938e+06 -1.91715e+06 -824597 -156031 1.05839e+06
225 1 Mg 7.07415 37.992 0 1.2 -6.49186 3.1279e+06 2.45051e+06 -3.70955e+06 1.86334e+06 -427182 -1.33932e+06
226 1 Mg 4.36817 42.6997 1.4948 1.2 -9.09508 -933290 3.13828e+06 3.81426e+06 -996889 140385 116213
227 2 Si 6.16058 40.0155 1.4948 2.4 -34.171 1.21053e+07 9.0098e+06 9.86566e+06 -371837 1.33822e+06 -1.61053e+06
228 3 O 6.22815 41.6288 1.4948 -1.2 -8.39274 -6.43952e+06 -626960 -6.53009e+06 31173.3 -4.52612e+06 -1.6571e+06
229 3 O 2.53282 39.0415 1.4948 -1.2 -9.23073 -4.63583e+06 -1.29598e+06 -1.59694e+06 1.71308e+06 -360953 -889560
230 3 O 5.44674 39.3094 0.196716 -1.2 -6.84528 -4.88902e+06 -1.09983e+07 -5.52794e+06 -150811 -5.79109e+06 1.83073e+06
231 1 Mg 7.04922 37.992 2.9896 1.2 -8.28293 5.10174e+06 -1.2996e+06 -936166 1.29395e+06 -1.47918e+06 1.84061e+06
232 3 O 5.42658 39.3094 2.79288 -1.2 -8.51611 -2.65256e+06 -4.15698e+06 -1.72221e+06 1.13318e+06 -316655 -1.18536e+06
233 1 Mg -0.333062 38.0333 4.4844 1.2 -9.08418 -410858 2.96189e+06 2.79515e+06 -405705 -194890 -120417
234 2 Si -2.12255 40.7174 4.4844 2.4 -33.5787 1.23045e+07 9.83155e+06 7.85679e+06 99367 -289890 170991
235 3 O -2.19212 39.1042 4.4844 -1.2 -9.09541 -4.42461e+06 -693427 -3.26901e+06 445646 24569.6 32649.9
236 3 O 1.50676 41.6915 4.4844 -1.2 -8.94407 -4.04235e+06 -3.13884e+06 -2.58139e+06 2.28524e+06 -272005 -67554.1
237 3 O -1.3884 41.4236 3.18632 -1.2 -8.64732 -3.17646e+06 -3.97322e+06 -925542 1.14601e+06 180297 -1.53608e+06
238 3 O -1.40713 41.4236 5.78248 -1.2 -8.56654 -3.34156e+06 -4.06499e+06 -1.57824e+06 1.16914e+06 205721 1.33003e+06
239 1 Mg 2.01892 40.3665 2.9896 1.2 -8.27888 5.11644e+06 -1.16246e+06 -1.11257e+06 -1.09141e+06 -1.57053e+06 -1.49384e+06
240 1 Mg 4.83434 40.3252 4.4844 1.2 -9.02508 -236092 2.96423e+06 2.6622e+06 1.2421e+06 -51039.2 94896.3
241 2 Si 3.02698 42.39 4.4844 2.4 -33.4898 1.22852e+07 9.77242e+06 7.73046e+06 773242 -10058.2 208519
242 3 O 3.05433 44.0033 4.4844 -1.2 -9.15036 -4.42564e+06 -670173 -3.3893e+06 620759 -63709.4 -54680.7
243 3 O -3.60077 41.416 4.4844 -1.2 -8.97695 -4.07378e+06 -3.00938e+06 -2.56146e+06 -1.30075e+06 -211288 -129684
244 3 O 3.71851 41.6839 3.18632 -1.2 -8.6971 -3.16995e+06 -4.10955e+06 -981126 -844280 202739 1.13064e+06
245 1 Mg 2.04077 40.3665 0 1.2 -6.4865 2.59695e+06 2.36966e+06 -4.14259e+06 -1.83348e+06 437012 1.61754e+06
246 3 O 3.70011 41.6839 5.78248 -1.2 -8.67316 -3.21192e+06 -4.17641e+06 -1.34964e+06 -879467 -169019 -1.47278e+06
247 1 Mg -0.796865 40.4078 1.4948 1.2 -9.09671 -566198 3.01016e+06 3.95832e+06 1.74702e+06 14794 84628.9
248 2 Si 1.01387 38.3429 1.4948 2.4 -34.303 1.18675e+07 9.2768e+06 9.98278e+06 1.53554e+06 1.43863e+06 1.89442e+06
249 3 O 0.989947 36.7297 1.4948 -1.2 -7.73705 -7.04906e+06 -547444 -1.01111e+07 1.03687e+06 -6.62428e+06 2.04361e+06
250 3 O 7.63988 39.317 1.4948 -1.2 -9.27266 -4.73752e+06 -1.21032e+06 -1.54968e+06 -925789 -244092 1.08213e+06
251 3 O 0.340253 39.0491 0.196716 -1.2 -6.84784 -4.94074e+06 -1.19205e+07 -5.50461e+06 388726 -5.84055e+06 -1.51975e+06
252 3 O 0.319795 39.0491 2.79288 -1.2 -8.55494 -2.66263e+06 -4.29769e+06 -1.72192e+06 -856887 -177204 938593
253 1 Mg 7.20667 42.741 0 1.2 -6.51074 2.20916e+06 2.41252e+06 -4.18627e+06 1.99601e+06 909289 -2.00308e+06
254 1 Mg 4.50613 47.4487 1.4948 1.2 -9.05419 -958952 3.27644e+06 3.43308e+06 -863100 430948 180790
255 2 Si 6.29731 44.7645 1.4948 2.4 -33.9236 1.23361e+07 8.66505e+06 9.56012e+06 -228370 914180 -1.17177e+06
256 3 O 6.36567 46.3778 1.4948 -1.2 -8.8298 -5.60061e+06 -687593 -4.50761e+06 182003 -2.69602e+06 -1.47724e+06
257 3 O 2.669 43.7905 1.4948 -1.2 -9.22389 -4.44785e+06 -1.58031e+06 -1.78199e+06 1.72448e+06 -216911 -1.04339e+06
258 3 O 5.58048 44.0584 0.196716 -1.2 -7.60892 -4.72918e+06 -8.50318e+06 -2.99552e+06 311674 -3.72224e+06 2.24849e+06
259 1 Mg 7.1879 42.741 2.9896 1.2 -8.22811 5.01245e+06 -1.19546e+06 -1.02555e+06 1.28644e+06 -1.59459e+06 2.00701e+06
260 3 O 5.56564 44.0584 2.79288 -1.2 -8.57917 -2.7067e+06 -4.18806e+06 -1.562e+06 1.13398e+06 -302606 -1.29251e+06
261 1 Mg -0.19105 42.7823 4.4844 1.2 -9.02929 -470436 2.99004e+06 2.7369e+06 -413985 -127204 99377.2
262 2 Si -1.97909 45.4664 4.4844 2.4 -33.5251 1.2108e+07 9.91089e+06 7.88427e+06 135692 -234502 297806
263 3 O -2.04947 43.8532 4.4844 -1.2 -9.13526 -4.34338e+06 -708575 -3.27592e+06 428024 48151.4 -111121
264 3 O 1.65063 46.4405 4.4844 -1.2 -8.95638 -4.01413e+06 -3.25086e+06 -2.49312e+06 2.28893e+06 -175369 -132809
265 3 O -1.24745 46.1726 3.18632 -1.2 -8.65355 -3.07843e+06 -4.04055e+06 -1.05443e+06 1.12866e+06 140822 -1.57581e+06
266 3 O -1.26044 46.1726 5.78248 -1.2 -8.59901 -3.16116e+06 -4.07193e+06 -1.47861e+06 1.17449e+06 296536 1.28194e+06
267 1 Mg 2.15896 45.1155 2.9896 1.2 -8.24918 5.03617e+06 -1.05046e+06 -1.17622e+06 -1.07735e+06 -1.67348e+06 -1.40371e+06
268 1 Mg 4.97763 45.0742 4.4844 1.2 -8.98759 -259272 3.03275e+06 2.55555e+06 1.25288e+06 -19149 93500
269 2 Si 3.1711 47.139 4.4844 2.4 -33.5014 1.2201e+07 1.00376e+07 7.56742e+06 746544 -54868.5 413745