ITEM: TIMESTEP
19300
ITEM: NUMBER OF ATOMS
10500
ITEM: BOX BOUNDS xy xz yz pp pp pp
0.0000000000000000e+00 1.5297749999999999e+01 5.0992499999999996e+00
0.0000000000000000e+00 1.1872499999999999e+02 0.0000000000000000e+00
0.0000000000000000e+00 8.9688000000000002e+01 0.0000000000000000e+00
ITEM: ATOMS id type element xu yu zu q c_pe c_s[1] c_s[2] c_s[3] c_s[4] c_s[5] c_s[6]
1 1 Mg 6.2404 -6.37941e-06 0 1.2 -4.35 7.77653e+06 -1.41364e+06 -6.65516e+06 -24281.1 2.64717e+06 -90621.2
2 1 Mg 3.46349 4.70768 1.4948 1.2 -8.38993 -478094 3.11755e+06 3.89878e+06 -927100 -608248 120910
3 2 Si 5.2885 2.02354 1.4948 2.4 -35.0541 9.71849e+06 1.18479e+07 1.03889e+07 8.8531e+06 750776 -2.86338e+06
4 3 O 5.33628 3.63678 1.4948 -1.2 -4.82078 -672214 -1.87679e+06 -3.32256e+07 -331806 3.7763e+06 -3.95166e+06
5 3 O 1.67294 1.04952 1.4948 -1.2 -1.1417 -2.0171e+07 -7.98105e+07 -1.68411e+06 -2.41298e+07 -85664.2 -199830
6 3 O 4.59532 1.31737 0.196716 -1.2 -3.12098 -1.80115e+06 -7.13676e+06 -3.00401e+07 -6.01772e+06 6.21987e+06 -2.73505e+06
7 1 Mg 6.18956 -6.37941e-06 2.9896 1.2 -4.84506 1.44089e+06 -2.77859e+07 -3.42777e+06 -8.84351e+06 2.52612e+06 4.17859e+06
8 3 O 4.55118 1.31737 2.79288 -1.2 -7.60586 244456 -5.11161e+06 -2.68844e+06 -2.96276e+06 -3.40835e+06 -1.27524e+06
9 1 Mg -1.20682 0.0413099 4.4844 1.2 8.97894 -3.10154e+07 -9.30013e+07 -471962 -2.84768e+07 -1.19343e+06 342441
10 2 Si -3.0337 2.72544 4.4844 2.4 -32.9382 1.39774e+07 7.65096e+06 7.51735e+06 1.47444e+06 307146 -192005
11 3 O -3.08099 1.11221 4.4844 -1.2 -9.70974 -5.98378e+06 -344191 -1.8204e+06 -1.18372e+06 -374781 60635.2
12 3 O 0.582463 3.69946 4.4844 -1.2 -9.06014 -3.07834e+06 -5.7603e+06 -2.60848e+06 -551369 -100077 -155048
13 3 O -2.29524 3.43162 3.18632 -1.2 -9.15054 -4.03197e+06 -2.88345e+06 -259279 1.12602e+06 -855710 -1.06691e+06
14 3 O -2.34216 3.43162 5.78248 -1.2 -8.91094 -3.65484e+06 -3.48655e+06 -1.4753e+06 946333 517065 1.09068e+06
15 1 Mg 1.12778 2.37449 2.9896 1.2 -7.5103 5.00138e+06 -1.28097e+06 -1.007e+06 -3.26967e+06 -4.24375e+06 -2.13532e+06
16 1 Mg 3.92855 2.33318 4.4844 1.2 -8.34556 -4.23015e+06 5.20053e+06 4.42686e+06 1.44937e+06 232121 735980
17 2 Si 2.09341 4.39804 4.4844 2.4 -32.1674 1.1749e+07 7.33994e+06 8.37528e+06 279844 -316622 610296
18 3 O 2.09991 6.01128 4.4844 -1.2 -9.60908 -3.88547e+06 -317969 -3.55646e+06 532736 -143719 -140734
19 3 O -4.52137 3.42402 4.4844 -1.2 -9.27781 -2.79825e+06 -3.14719e+06 -3.28579e+06 -2.42342e+06 -936717 -177325
20 3 O 2.80834 3.69187 3.18632 -1.2 -9.43126 -1.98409e+06 -3.1542e+06 -72169.2 425367 -464111 -582982
21 1 Mg 1.17857 2.37449 0 1.2 -5.0361 -786381 -1.43668e+07 -6.86066e+06 6.52784e+06 1.16625e+06 4.60634e+06
22 3 O 2.76143 3.69187 5.78248 -1.2 -9.44216 -2.67364e+06 -2.55191e+06 -1.07904e+06 367955 84562.8 -91915.1
23 1 Mg -1.67381 2.41581 1.4948 1.2 -7.48537 1.39996e+06 205987 3.65356e+06 1.34906e+06 -580213 1.10059e+06
24 2 Si 0.16286 0.350945 1.4948 2.4 -24.3893 -8.51491e+06 1.3279e+07 1.061e+07 1.5984e+06 2.7847e+06 1.44459e+06
25 3 O 0.15972 -1.26229 1.4948 -1.2 -4.82606 -1.05573e+07 -8.40455e+06 -2.85911e+07 -5.60819e+06 -8.50672e+06 -2.80186e+06
26 3 O 6.77654 1.32496 1.4948 -1.2 -10.4494 -5.59806e+06 1.33688e+06 -941121 -636994 -685681 957822
27 3 O -0.508028 1.05712 0.196716 -1.2 -9.61908 248466 -5.12252e+06 -246503 -561118 217460 -4.61922e+06
28 3 O -0.552171 1.05712 2.79288 -1.2 -6.88287 -5.13669e+06 -4.99291e+06 -2.4326e+07 1.42165e+06 -6.77743e+06 -5.66184e+06
29 1 Mg 6.31713 4.74899 0 1.2 -4.84817 268045 -1.24425e+07 -6.61023e+06 -7.31729e+06 1.47618e+06 -3.59351e+06
30 1 Mg 3.54847 9.45668 1.4948 1.2 -8.26965 159039 2.06393e+06 4.1012e+06 -948035 -899726 -266912
31 2 Si 5.36879 6.77254 1.4948 2.4 -34.1437 7.06151e+06 1.2846e+07 1.07448e+07 1.6629e+06 253695 -1.88595e+06
32 3 O 5.41937 8.38578 1.4948 -1.2 -4.82677 -218711 -1.30823e+06 -3.48423e+07 767789 1.06145e+06 -4.26846e+06
33 3 O 1.75158 5.79852 1.4948 -1.2 -9.58185 -3.85503e+06 -2.773e+06 -1.03275e+06 1.96218e+06 -1.56492e+06 -1.37254e+06
34 3 O 4.67421 6.06637 0.196716 -1.2 -3.8457 273747 -1.05614e+07 -3.10306e+07 -2.00861e+06 1.23427e+06 -4.43556e+06
35 1 Mg 6.26654 4.74899 2.9896 1.2 -7.93937 3.9706e+06 -1.3193e+06 -360739 1.79822e+06 -791892 2.02526e+06
36 3 O 4.63043 6.06637 2.79288 -1.2 -8.93821 -1.49326e+06 -4.32751e+06 -1.81633e+06 929015 -166601 -1.5117e+06
37 1 Mg -1.12976 4.79031 4.4844 1.2 -8.71581 -805966 3.08139e+06 2.55784e+06 -763412 -504154 -20846.2
38 2 Si -2.9517 7.47444 4.4844 2.4 -32.7155 1.08407e+07 9.53519e+06 8.19875e+06 38504.7 61290.3 -65428.5
39 3 O -3.00198 5.86121 4.4844 -1.2 -9.506 -3.77665e+06 -436813 -3.57005e+06 62139.5 -256846 -26373.8
40 3 O 0.666315 8.44846 4.4844 -1.2 -9.36719 -3.27781e+06 -2.90482e+06 -2.88454e+06 2.08791e+06 -404722 -23653.1
41 3 O -2.21213 8.18062 3.18632 -1.2 -9.1638 -2.78368e+06 -3.72655e+06 -347812 1.11224e+06 -288501 -1.46546e+06
42 3 O -2.25864 8.18062 5.78248 -1.2 -9.04226 -2.58668e+06 -4.02534e+06 -1.59342e+06 1.00433e+06 -87699.6 1.42425e+06
43 1 Mg 1.20893 7.12349 2.9896 1.2 -7.90985 4.01041e+06 -1.26216e+06 -525767 -1.27586e+06 -1.37749e+06 -1.62952e+06
44 1 Mg 4.00982 7.08218 4.4844 1.2 -8.56175 -930220 2.85992e+06 2.70697e+06 1.0051e+06 -191902 153005
45 2 Si 2.17861 9.14704 4.4844 2.4 -32.6447 1.10006e+07 9.49986e+06 7.92705e+06 682742 -53462.7 280761
46 3 O 2.18828 10.7603 4.4844 -1.2 -9.53372 -3.84396e+06 -413512 -3.6087e+06 382739 -255369 -130966
47 3 O -4.43805 8.17302 4.4844 -1.2 -9.3895 -3.20009e+06 -2.97238e+06 -2.82065e+06 -1.48336e+06 -590765 -68743
48 3 O 2.89193 8.44087 3.18632 -1.2 -9.18873 -2.69157e+06 -3.90761e+06 -374165 -935728 -241590 1.19464e+06
49 1 Mg 1.25915 7.12349 0 1.2 -5.25175 833013 -7.17559e+06 -6.68951e+06 5.89696e+06 1.32091e+06 2.59944e+06
50 3 O 2.84547 8.44087 5.78248 -1.2 -9.13364 -2.72945e+06 -4.08854e+06 -1.38821e+06 -912544 -88674.5 -1.34035e+06
51 1 Mg -1.59284 7.16481 1.4948 1.2 -8.17445 707446 1.73913e+06 3.92411e+06 1.4529e+06 -943500 352022
52 2 Si 0.240329 5.09994 1.4948 2.4 -33.892 8.00553e+06 1.17551e+07 1.0489e+07 -1.96065e+06 -1.15926e+06 2.00307e+06
53 3 O 0.234538 3.48671 1.4948 -1.2 -5.31611 -1.61351e+06 -15331.4 -3.33883e+07 398200 5.22207e+06 3.90966e+06
54 3 O 6.85564 6.07396 1.4948 -1.2 -9.66214 -4.29082e+06 -2.21348e+06 -989097 -1.33723e+06 -1.86081e+06 1.13532e+06
55 3 O -0.429565 5.80612 0.196716 -1.2 -4.10174 -558255 -9.2047e+06 -3.11019e+07 1.84961e+06 1.2567e+06 4.56246e+06
56 3 O -0.473377 5.80612 2.79288 -1.2 -9.02218 -1.99821e+06 -3.91287e+06 -1.69094e+06 -771481 368914 1.26992e+06
57 1 Mg 6.40169 9.49799 0 1.2 -5.21659 1.49061e+06 -6.1069e+06 -6.96112e+06 -5.48235e+06 1.03098e+06 -2.4562e+06
58 1 Mg 3.64209 14.2057 1.4948 1.2 -8.36207 108001 2.00206e+06 4.32126e+06 -1.02535e+06 -942104 -346629
59 2 Si 5.45748 11.5215 1.4948 2.4 -34.1671 7.36289e+06 1.22294e+07 1.10737e+07 901720 368477 -2.11183e+06
60 3 O 5.51101 13.1348 1.4948 -1.2 -4.83485 -416893 -1.09297e+06 -3.46666e+07 460993 -2.54041e+06 -4.31848e+06
61 3 O 1.83851 10.5475 1.4948 -1.2 -9.63343 -4.12987e+06 -2.15642e+06 -1.02031e+06 1.52995e+06 -1.58201e+06 -1.12592e+06
62 3 O 4.7611 10.8154 0.196716 -1.2 -3.67466 669695 -1.17684e+07 -3.17163e+07 -2.48695e+06 -1.79209e+06 -4.30307e+06
63 1 Mg 6.35203 9.49799 2.9896 1.2 -7.90518 3.97483e+06 -1.28241e+06 -458931 1.28856e+06 -1.16257e+06 2.05174e+06
64 3 O 4.71833 10.8154 2.79288 -1.2 -8.92942 -1.71436e+06 -4.04373e+06 -1.90285e+06 1.05019e+06 5436.58 -1.38695e+06
65 1 Mg -1.0438 9.53931 4.4844 1.2 -8.59635 -1.00146e+06 2.78572e+06 2.8199e+06 -568510 -365657 -23890.5
66 2 Si -2.8604 12.2234 4.4844 2.4 -32.781 1.11109e+07 9.23951e+06 8.32711e+06 -154431 -256443 173756
67 3 O -2.91391 10.6102 4.4844 -1.2 -9.53469 -3.76737e+06 -467292 -3.51528e+06 297580 -162261 -113945
68 3 O 0.7596 13.1975 4.4844 -1.2 -9.30824 -3.41841e+06 -2.73823e+06 -3.01728e+06 2.15006e+06 -551727 57618.2
69 3 O -2.12001 12.9296 3.18632 -1.2 -9.11644 -2.83082e+06 -3.63288e+06 -478424 1.17765e+06 -160350 -1.51297e+06
70 3 O -2.16532 12.9296 5.78248 -1.2 -8.99512 -2.92835e+06 -3.75753e+06 -1.5618e+06 1.18034e+06 97688.7 1.3013e+06
71 1 Mg 1.29891 11.8725 2.9896 1.2 -7.93977 4.12908e+06 -1.3567e+06 -505196 -1.16199e+06 -1.191e+06 -1.66058e+06
72 1 Mg 4.10033 11.8312 4.4844 1.2 -8.6474 -857336 2.6789e+06 2.95573e+06 1.1468e+06 -257951 206847
73 2 Si 2.27333 13.896 4.4844 2.4 -32.7967 1.12651e+07 9.0732e+06 8.32948e+06 701303 175558 -123729
74 3 O 2.28634 15.5093 4.4844 -1.2 -9.49312 -3.97688e+06 -331723 -3.62888e+06 463733 -298526 146786
75 3 O -4.34533 12.922 4.4844 -1.2 -9.30344 -3.30458e+06 -2.71895e+06 -3.11203e+06 -1.46398e+06 -430950 -124943
76 3 O 2.98455 13.1899 3.18632 -1.2 -9.13345 -2.79216e+06 -3.71626e+06 -577043 -975753 -217679 1.31057e+06
77 1 Mg 1.34779 11.8725 0 1.2 -5.4701 2.72796e+06 -2.55081e+06 -6.96097e+06 3.55646e+06 796239 1.58985e+06
78 3 O 2.93934 13.1899 5.78248 -1.2 -8.95296 -2.86089e+06 -3.76868e+06 -1.92609e+06 -978536 -290405 -1.18928e+06
79 1 Mg -1.50344 11.9138 1.4948 1.2 -8.28654 444934 1.96371e+06 4.12539e+06 1.55017e+06 -969971 402422
80 2 Si 0.326006 9.84894 1.4948 2.4 -34.106 7.44809e+06 1.23407e+07 1.07515e+07 -606014 56205.5 2.32819e+06
81 3 O 0.317364 8.23571 1.4948 -1.2 -4.83176 -354744 -1.16745e+06 -3.49686e+07 -125150 1.22053e+06 4.16065e+06
82 3 O 6.94307 10.823 1.4948 -1.2 -9.6689 -4.26813e+06 -1.97733e+06 -963187 -975491 -1.52729e+06 1.03576e+06
83 3 O -0.343122 10.5551 0.196716 -1.2 -3.77761 346851 -1.12267e+07 -3.17352e+07 2.48004e+06 -2.01558e+06 4.50421e+06
84 3 O -0.385966 10.5551 2.79288 -1.2 -8.97535 -1.809e+06 -4.08779e+06 -1.83716e+06 -860908 120201 1.09126e+06
85 1 Mg 6.49448 14.247 0 1.2 -5.45265 3.20224e+06 -1.7873e+06 -7.04183e+06 -2.95927e+06 246529 -1.58623e+06
86 1 Mg 3.74457 18.9547 1.4948 1.2 -8.48817 -12789.3 2.05676e+06 4.51218e+06 -1.12696e+06 -951953 -365784
87 2 Si 5.55495 16.2705 1.4948 2.4 -34.222 7.71445e+06 1.17848e+07 1.12733e+07 535045 789645 -2.46066e+06
88 3 O 5.6115 17.8838 1.4948 -1.2 -5.10914 -1.502e+06 -935069 -3.2069e+07 79379.7 -6.04988e+06 -4.03227e+06
89 3 O 1.93416 15.2965 1.4948 -1.2 -9.63863 -4.27742e+06 -1.74973e+06 -1.02161e+06 1.53761e+06 -1.40259e+06 -958276
90 3 O 4.85636 15.5644 0.196716 -1.2 -3.66617 633571 -1.33926e+07 -3.02366e+07 -3.04007e+06 -5.12613e+06 -3.65318e+06
91 1 Mg 6.44662 14.247 2.9896 1.2 -7.94749 4.10856e+06 -1.45317e+06 -355108 1.29256e+06 -1.23024e+06 1.97131e+06
92 3 O 4.81537 15.5644 2.79288 -1.2 -8.86875 -1.75245e+06 -3.96642e+06 -2.07119e+06 1.05928e+06 -51655.6 -1.20401e+06
93 1 Mg -0.948271 14.2883 4.4844 1.2 -8.64962 -844822 2.60559e+06 2.92018e+06 -593530 -380839 -87070.8
94 2 Si -2.75928 16.9724 4.4844 2.4 -32.8917 1.11754e+07 9.16872e+06 8.51597e+06 -13291.2 -368638 -163696
95 3 O -2.81617 15.3592 4.4844 -1.2 -9.45887 -3.85019e+06 -322796 -3.69341e+06 283161 -34929.7 45905.2
96 3 O 0.862762 17.9465 4.4844 -1.2 -9.28853 -3.47349e+06 -2.81149e+06 -2.92619e+06 2.15476e+06 -522525 75188.1
97 3 O -2.0185 17.6786 3.18632 -1.2 -9.06288 -2.87612e+06 -3.59643e+06 -574151 1.14799e+06 -61959.4 -1.41132e+06
98 3 O -2.06164 17.6786 5.78248 -1.2 -8.94159 -2.92265e+06 -3.78047e+06 -1.71507e+06 1.09918e+06 253886 1.47918e+06
99 1 Mg 1.39817 16.6215 2.9896 1.2 -7.96375 4.30311e+06 -1.40567e+06 -593988 -1.1705e+06 -1.18685e+06 -1.75496e+06
100 1 Mg 4.20062 16.5802 4.4844 1.2 -8.68331 -814548 2.6982e+06 2.95169e+06 1.14945e+06 -162287 -39439.1
101 2 Si 2.37796 18.645 4.4844 2.4 -32.8438 1.13521e+07 9.1478e+06 8.24075e+06 623684 115055 17892.1
102 3 O 2.39434 20.2583 4.4844 -1.2 -9.42295 -4.00202e+06 -212177 -3.83688e+06 550602 -210371 43302.7
103 3 O -4.24274 17.671 4.4844 -1.2 -9.26619 -3.34262e+06 -2.72934e+06 -3.12271e+06 -1.42093e+06 -463287 47326.3
104 3 O 3.08659 17.9389 3.18632 -1.2 -9.09201 -2.85769e+06 -3.71774e+06 -616977 -921601 -140339 1.37785e+06
105 1 Mg 1.44478 16.6215 0 1.2 -5.61083 4.45886e+06 351231 -6.9258e+06 1.39172e+06 -41071.1 777246
106 3 O 3.0436 17.9389 5.78248 -1.2 -9.01242 -2.83841e+06 -3.97642e+06 -1.58771e+06 -806871 -335371 -1.25957e+06
107 1 Mg -1.40524 16.6628 1.4948 1.2 -8.4009 317559 2.03267e+06 4.31939e+06 1.69147e+06 -999610 267074
108 2 Si 0.420358 14.5979 1.4948 2.4 -34.1732 7.69276e+06 1.19969e+07 1.09425e+07 -148967 566414 2.35669e+06
109 3 O 0.408732 12.9847 1.4948 -1.2 -4.83388 -503351 -1.07573e+06 -3.47335e+07 231556 -2.55972e+06 4.2779e+06
110 3 O 7.03923 15.572 1.4948 -1.2 -9.66685 -4.36133e+06 -1.59502e+06 -1.0145e+06 -948337 -1.27888e+06 1.09668e+06
111 3 O -0.248332 15.3041 0.196716 -1.2 -3.77508 271907 -1.29243e+07 -3.02218e+07 3.2625e+06 -5.41458e+06 4.08565e+06
112 3 O -0.289436 15.3041 2.79288 -1.2 -8.92415 -1.86329e+06 -4.04722e+06 -1.94875e+06 -843667 70472.2 1.16045e+06
113 1 Mg 6.59566 18.996 0 1.2 -5.63091 4.67862e+06 707856 -6.68452e+06 -918529 -689190 -1.03936e+06
114 1 Mg 3.85574 23.7037 1.4948 1.2 -8.65119 -150015 2.09856e+06 4.72895e+06 -1.18399e+06 -921260 -212613
115 2 Si 5.66125 21.0195 1.4948 2.4 -34.2704 8.40792e+06 1.11127e+07 1.13914e+07 181783 1.21311e+06 -2.51492e+06
116 3 O 5.72074 22.6328 1.4948 -1.2 -5.63766 -3.32034e+06 -683416 -2.73145e+07 -222393 -8.51371e+06 -3.63886e+06
117 3 O 2.03867 20.0455 1.4948 -1.2 -9.60511 -4.37625e+06 -1.36859e+06 -1.15506e+06 1.57633e+06 -1.16629e+06 -895290
118 3 O 4.96004 20.3134 0.196716 -1.2 -3.92423 -200856 -1.46582e+07 -2.65369e+07 -3.17747e+06 -7.93909e+06 -2.62695e+06
119 1 Mg 6.55057 18.996 2.9896 1.2 -7.97784 4.27607e+06 -1.52214e+06 -404463 1.30708e+06 -1.23861e+06 1.87715e+06
120 3 O 4.92172 20.3134 2.79288 -1.2 -8.80797 -1.86123e+06 -3.89987e+06 -2.163e+06 1.09308e+06 -84986.1 -1.15769e+06
121 1 Mg -0.84282 19.0373 4.4844 1.2 -8.68889 -816381 2.61312e+06 2.93886e+06 -460013 -343793 -87184.5
122 2 Si -2.64823 21.7214 4.4844 2.4 -32.9673 1.15253e+07 9.04066e+06 8.4154e+06 123026 -195955 -155454
123 3 O -2.70847 20.1082 4.4844 -1.2 -9.42689 -3.96478e+06 -277378 -3.66664e+06 262704 -48533 102156
124 3 O 0.97581 22.6955 4.4844 -1.2 -9.17985 -3.50668e+06 -2.70331e+06 -3.17597e+06 2.26734e+06 -484727 122971
125 3 O -1.9076 22.4276 3.18632 -1.2 -8.98299 -2.96971e+06 -3.52139e+06 -720893 1.14791e+06 -55612 -1.47059e+06
126 3 O -1.9475 22.4276 5.78248 -1.2 -8.91211 -3.03848e+06 -3.74651e+06 -1.56861e+06 1.05704e+06 -57672 1.45753e+06
127 1 Mg 1.50678 21.3705 2.9896 1.2 -8.0263 4.45027e+06 -1.5419e+06 -504702 -1.1803e+06 -1.23267e+06 -1.69193e+06
128 1 Mg 4.31086 21.3292 4.4844 1.2 -8.73964 -672852 2.54388e+06 3.05648e+06 1.15026e+06 -282614 -69237.3
129 2 Si 2.49243 23.394 4.4844 2.4 -33.0107 1.15938e+07 9.00137e+06 8.4129e+06 671518 -156992 -227430
130 3 O 2.51204 25.0073 4.4844 -1.2 -9.35676 -4.19463e+06 -244090 -3.7188e+06 526029 -100110 55984.7
131 3 O -4.13026 22.42 4.4844 -1.2 -9.23628 -3.57971e+06 -2.65879e+06 -3.00642e+06 -1.43899e+06 -432369 50851.6
132 3 O 3.19799 22.6879 3.18632 -1.2 -9.00977 -2.95692e+06 -3.61911e+06 -804887 -910642 21558.7 1.36949e+06
133 1 Mg 1.5501 21.3705 0 1.2 -5.75476 5.45948e+06 1.69854e+06 -6.26507e+06 -58918.5 -981502 362576
134 3 O 3.1583 22.6879 5.78248 -1.2 -8.9135 -2.95752e+06 -3.81436e+06 -1.76246e+06 -877944 -71776.2 -925080
135 1 Mg -1.29822 21.4118 1.4948 1.2 -8.55194 188707 2.0684e+06 4.5501e+06 1.81153e+06 -947878 230641
136 2 Si 0.523568 19.3469 1.4948 2.4 -34.2355 8.17938e+06 1.14568e+07 1.11241e+07 315061 1.00734e+06 2.40937e+06
137 3 O 0.508934 17.7337 1.4948 -1.2 -5.11045 -1.59693e+06 -924183 -3.21178e+07 667268 -6.08731e+06 4.17108e+06
138 3 O 7.14425 20.321 1.4948 -1.2 -9.63728 -4.4871e+06 -1.22983e+06 -1.11036e+06 -942655 -1.05602e+06 1.10497e+06
139 3 O -0.145107 20.0531 0.196716 -1.2 -4.03448 -593643 -1.43253e+07 -2.65038e+07 3.67335e+06 -8.20159e+06 3.17153e+06
140 3 O -0.183601 20.0531 2.79288 -1.2 -8.85925 -1.92094e+06 -4.0071e+06 -2.08386e+06 -856486 -11503.5 1.1096e+06
141 1 Mg 6.70502 23.745 0 1.2 -5.8197 5.3379e+06 1.81425e+06 -5.76397e+06 411331 -1.46873e+06 -581551
142 1 Mg 3.97493 28.4527 1.4948 1.2 -8.80869 -347594 2.24457e+06 4.80027e+06 -1.2238e+06 -775603 31696.9
143 2 Si 5.77602 25.7685 1.4948 2.4 -34.3038 9.3132e+06 1.03243e+07 1.14154e+07 -100297 1.57733e+06 -2.10671e+06
144 3 O 5.83821 27.3818 1.4948 -1.2 -6.35486 -5.1833e+06 -467875 -2.12823e+07 -343462 -9.3125e+06 -3.21677e+06
145 3 O 2.15175 24.7945 1.4948 -1.2 -9.53768 -4.48391e+06 -1.05141e+06 -1.33823e+06 1.61796e+06 -906633 -975349
146 3 O 5.07184 25.0624 0.196716 -1.2 -4.46094 -1.59981e+06 -1.51599e+07 -2.11549e+07 -2.79284e+06 -9.43201e+06 -1.52615e+06
147 1 Mg 6.66374 23.745 2.9896 1.2 -8.03291 4.51123e+06 -1.61568e+06 -454939 1.33074e+06 -1.22789e+06 1.96571e+06
148 3 O 5.03707 25.0624 2.79288 -1.2 -8.72748 -2.04089e+06 -3.84263e+06 -2.20887e+06 1.07593e+06 -174792 -1.27496e+06
149 1 Mg -0.727559 23.7863 4.4844 1.2 -8.79787 -825759 2.57129e+06 3.15839e+06 -534259 -247960 -36760.1
150 2 Si -2.5277 26.4704 4.4844 2.4 -33.2178 1.16843e+07 8.97213e+06 8.73174e+06 21185.1 -141828 226818
151 3 O -2.59107 24.8572 4.4844 -1.2 -9.33578 -4.07208e+06 -254147 -3.7178e+06 350819 -125927 -54588.6
152 3 O 1.09817 27.4445 4.4844 -1.2 -9.08671 -3.75415e+06 -2.70217e+06 -3.07774e+06 2.23821e+06 -358757 -32440.3
153 3 O -1.78784 27.1766 3.18632 -1.2 -8.86504 -3.04076e+06 -3.46451e+06 -951892 1.17268e+06 40619 -1.61577e+06
154 3 O -1.82343 27.1766 5.78248 -1.2 -8.71348 -3.03827e+06 -3.76507e+06 -1.83085e+06 1.20974e+06 108107 1.24614e+06
155 1 Mg 1.62435 26.1195 2.9896 1.2 -8.09733 4.68856e+06 -1.58989e+06 -578112 -1.15715e+06 -1.33615e+06 -1.53843e+06
156 1 Mg 4.43064 26.0782 4.4844 1.2 -8.81485 -474228 2.54564e+06 2.978e+06 1.23469e+06 -171682 98287.1
157 2 Si 2.61607 28.143 4.4844 2.4 -33.2111 1.20936e+07 8.90564e+06 8.33428e+06 773740 -120970 214255
158 3 O 2.63853 29.7563 4.4844 -1.2 -9.23751 -4.39297e+06 -143917 -3.80922e+06 542471 -113027 -98196.4
159 3 O -4.00841 27.169 4.4844 -1.2 -9.11936 -3.75344e+06 -2.58672e+06 -3.08702e+06 -1.38035e+06 -510631 -155681
160 3 O 3.3182 27.4369 3.18632 -1.2 -8.91179 -3.11305e+06 -3.592e+06 -906378 -907885 88701.3 1.17193e+06
161 1 Mg 1.66335 26.1195 0 1.2 -5.91741 5.45429e+06 2.18228e+06 -5.26377e+06 -901805 -1.60408e+06 372312
162 3 O 3.28288 27.4369 5.78248 -1.2 -8.8307 -3.2259e+06 -3.82441e+06 -1.63688e+06 -907123 -182103 -1.23674e+06
163 1 Mg -1.18278 26.1608 1.4948 1.2 -8.72295 253.775 2.15015e+06 4.73856e+06 1.87972e+06 -839980 302730
164 2 Si 0.635424 24.0959 1.4948 2.4 -34.2994 8.95211e+06 1.07005e+07 1.12774e+07 729632 1.33882e+06 2.61415e+06
165 3 O 0.617906 22.4827 1.4948 -1.2 -5.635 -3.39079e+06 -662216 -2.74043e+07 1.01717e+06 -8.53446e+06 3.6702e+06
166 3 O 7.25781 25.07 1.4948 -1.2 -9.56953 -4.58883e+06 -920716 -1.30621e+06 -937368 -854226 951571
167 3 O -0.0337363 24.8021 0.196716 -1.2 -4.56277 -1.98362e+06 -1.51197e+07 -2.10597e+07 3.51095e+06 -9.6327e+06 1.77649e+06
168 3 O -0.0687235 24.8021 2.79288 -1.2 -8.76804 -2.03257e+06 -3.95842e+06 -2.21773e+06 -816393 -50893 981964
169 1 Mg 6.82195 28.494 0 1.2 -6.00635 4.96646e+06 2.25239e+06 -4.65212e+06 1.15984e+06 -1.81519e+06 -302440
170 1 Mg 4.10106 33.2017 1.4948 1.2 -8.93417 -618923 2.45251e+06 4.72423e+06 -1.21466e+06 -539138 42178
171 2 Si 5.89839 30.5175 1.4948 2.4 -34.2533 1.02523e+07 9.65257e+06 1.11504e+07 -336791 1.7017e+06 -1.84307e+06
172 3 O 5.96289 32.1308 1.4948 -1.2 -7.153 -6.42216e+06 -374697 -1.52028e+07 -286176 -8.46072e+06 -2.57221e+06
173 3 O 2.27266 29.5435 1.4948 -1.2 -9.46955 -4.54413e+06 -912216 -1.4781e+06 1.65789e+06 -702021 -1.06485e+06
174 3 O 5.19102 29.8114 0.196716 -1.2 -5.25298 -3.04868e+06 -1.47311e+07 -1.50636e+07 -1.93528e+06 -9.2765e+06 -329746
175 1 Mg 6.78546 28.494 2.9896 1.2 -8.11842 4.70484e+06 -1.70651e+06 -415284 1.31001e+06 -1.27126e+06 2.07534e+06
176 3 O 5.16061 29.8114 2.79288 -1.2 -8.64223 -2.22315e+06 -3.78881e+06 -2.25535e+06 1.11854e+06 -250803 -1.33849e+06
177 1 Mg -0.603205 28.5353 4.4844 1.2 -8.92278 -663670 2.49703e+06 3.26342e+06 -471255 -329972 68647.8
178 2 Si -2.39877 31.2194 4.4844 2.4 -33.3945 1.19823e+07 8.92244e+06 8.77033e+06 69941.9 -241956 5765
179 3 O -2.46483 29.6062 4.4844 -1.2 -9.20312 -4.19728e+06 -154684 -3.89565e+06 399135 -60652.9 -49903.6
180 3 O 1.22864 32.1935 4.4844 -1.2 -9.01056 -3.88129e+06 -2.72982e+06 -3.05308e+06 2.26438e+06 -383871 -21905.3
181 3 O -1.66032 31.9256 3.18632 -1.2 -8.78437 -3.12186e+06 -3.50643e+06 -1.03742e+06 1.14447e+06 115821 -1.5663e+06
182 3 O -1.69072 31.9256 5.78248 -1.2 -8.67434 -3.19379e+06 -3.79103e+06 -1.64102e+06 1.10422e+06 144803 1.49909e+06
183 1 Mg 1.7499 30.8685 2.9896 1.2 -8.16538 4.88199e+06 -1.6159e+06 -629906 -1.1305e+06 -1.38837e+06 -1.47003e+06
184 1 Mg 4.55894 30.8272 4.4844 1.2 -8.93339 -324051 2.4652e+06 3.09976e+06 1.19387e+06 -145169 105321
185 2 Si 2.7476 32.892 4.4844 2.4 -33.3613 1.21836e+07 8.99656e+06 8.39404e+06 697967 -119105 99422.2
186 3 O 2.77235 34.5053 4.4844 -1.2 -9.18525 -4.42677e+06 -224781 -3.78619e+06 619849 -35870.7 -111659
187 3 O -3.87837 31.918 4.4844 -1.2 -9.04565 -3.90805e+06 -2.59252e+06 -3.0526e+06 -1.32072e+06 -399696 -64028.9
188 3 O 3.44611 32.1859 3.18632 -1.2 -8.82387 -3.15615e+06 -3.62377e+06 -1.06592e+06 -865798 161203 1.18241e+06
189 1 Mg 1.7837 30.8685 0 1.2 -6.07718 4.55643e+06 2.37086e+06 -4.35925e+06 -1.35221e+06 -1.54142e+06 522336
190 3 O 3.41602 32.1859 5.78248 -1.2 -8.70681 -3.27163e+06 -3.80724e+06 -1.74108e+06 -864318 -118179 -1.13219e+06
191 1 Mg -1.05984 30.9098 1.4948 1.2 -8.86142 -252921 2.35029e+06 4.71164e+06 1.91349e+06 -634889 256601
192 2 Si 0.755243 28.8449 1.4948 2.4 -34.2895 9.88905e+06 9.99648e+06 1.11135e+07 1.13636e+06 1.56477e+06 2.77322e+06
193 3 O 0.735127 27.2317 1.4948 -1.2 -6.35562 -5.27241e+06 -454400 -2.13426e+07 1.17992e+06 -9.29873e+06 2.911e+06
194 3 O 7.37914 29.819 1.4948 -1.2 -9.50047 -4.62449e+06 -791937 -1.47703e+06 -933067 -626367 874494
195 3 O 0.0850649 29.5511 0.196716 -1.2 -5.32535 -3.33409e+06 -1.50665e+07 -1.4973e+07 2.70157e+06 -9.44306e+06 308099
196 3 O 0.0543974 29.5511 2.79288 -1.2 -8.68827 -2.22743e+06 -3.923e+06 -2.23666e+06 -844252 -91835.6 863370
197 1 Mg 6.94543 33.243 0 1.2 -6.18876 3.9663e+06 2.34982e+06 -3.78358e+06 1.58473e+06 -1.43228e+06 -590343
198 1 Mg 4.23267 37.9507 1.4948 1.2 -9.05221 -803757 2.42584e+06 4.71034e+06 -1.1313e+06 -218668 53254.4
199 2 Si 6.02709 35.2665 1.4948 2.4 -34.1626 1.12018e+07 8.84556e+06 1.09124e+07 -414284 1.62928e+06 -1.73224e+06
200 3 O 6.09339 36.8798 1.4948 -1.2 -7.8556 -6.818e+06 -147207 -1.04021e+07 -137804 -6.62708e+06 -2.01908e+06
201 3 O 2.40018 34.2925 1.4948 -1.2 -9.39406 -4.53036e+06 -874751 -1.70267e+06 1.70239e+06 -507349 -992389
202 3 O 5.31645 34.5604 0.196716 -1.2 -6.12304 -4.16786e+06 -1.30946e+07 -9.75043e+06 -941723 -7.84334e+06 914952
203 1 Mg 6.91449 33.243 2.9896 1.2 -8.15787 4.86732e+06 -1.66569e+06 -547086 1.31825e+06 -1.37384e+06 2.01733e+06
204 3 O 5.291 34.5604 2.79288 -1.2 -8.60109 -2.40256e+06 -3.77943e+06 -2.18767e+06 1.12736e+06 -286243 -1.29498e+06
205 1 Mg -0.471101 33.2843 4.4844 1.2 -8.96627 -591711 2.59977e+06 3.15182e+06 -417087 -211950 92120.9
206 2 Si -2.26307 35.9684 4.4844 2.4 -33.4889 1.22012e+07 8.78999e+06 8.84228e+06 154720 -120092 371903
207 3 O -2.33122 34.3552 4.4844 -1.2 -9.17881 -4.31498e+06 -242907 -3.7281e+06 370902 -44717.1 -119017
208 3 O 1.36549 36.9425 4.4844 -1.2 -8.92835 -3.94319e+06 -2.59508e+06 -3.26314e+06 2.27758e+06 -268224 -138050
209 3 O -1.52658 36.6746 3.18632 -1.2 -8.7023 -3.16729e+06 -3.39509e+06 -1.32874e+06 1.14048e+06 125606 -1.6098e+06
210 3 O -1.55122 36.6746 5.78248 -1.2 -8.57115 -3.27202e+06 -3.54346e+06 -2.04085e+06 1.1589e+06 35784.5 1.129e+06
211 1 Mg 1.882 35.6175 2.9896 1.2 -8.21962 4.97877e+06 -1.64773e+06 -597850 -1.12684e+06 -1.50332e+06 -1.42594e+06
212 1 Mg 4.69415 35.5762 4.4844 1.2 -8.96744 -232663 2.47933e+06 3.04977e+06 1.21446e+06 -122510 163739
213 2 Si 2.88522 37.641 4.4844 2.4 -33.5131 1.2346e+07 8.63808e+06 8.83545e+06 756600 -272621 342518
214 3 O 2.91159 39.2543 4.4844 -1.2 -9.09599 -4.49713e+06 36273.4 -4.11801e+06 586043 27268.3 -139866
215 3 O -3.74183 36.667 4.4844 -1.2 -9.00649 -4.08191e+06 -2.46541e+06 -3.06959e+06 -1.32923e+06 -375398 -205827
216 3 O 3.58014 36.9349 3.18632 -1.2 -8.74542 -3.2005e+06 -3.53426e+06 -1.34255e+06 -847701 243594 1.11809e+06
217 1 Mg 1.90997 35.6175 0 1.2 -6.27462 3.39513e+06 2.17208e+06 -3.66148e+06 -1.66014e+06 -786535 847897
218 3 O 3.55582 36.9349 5.78248 -1.2 -8.66778 -3.39536e+06 -3.67212e+06 -1.77664e+06 -851855 8172.22 -1.45063e+06
219 1 Mg -0.93068 35.6588 1.4948 1.2 -8.98013 -484537 2.43797e+06 4.65369e+06 1.86615e+06 -324019 160703
220 2 Si 0.881882 33.5939 1.4948 2.4 -34.21 1.07666e+07 9.33074e+06 1.08454e+07 1.4124e+06 1.61073e+06 2.46517e+06
221 3 O 0.859602 31.9807 1.4948 -1.2 -7.15303 -6.50876e+06 -363993 -1.527e+07 1.15593e+06 -8.46661e+06 2.31412e+06
222 3 O 7.507 34.568 1.4948 -1.2 -9.43029 -4.64695e+06 -757825 -1.66809e+06 -940979 -433913 947263
223 3 O 0.210186 34.3001 0.196716 -1.2 -6.16371 -4.31706e+06 -1.38154e+07 -9.66365e+06 1.52299e+06 -7.93583e+06 -756818
224 3 O 0.184454 34.3001 2.79288 -1.2 -8.64264 -2.37569e+06 -3.93344e+06 -2.19885e+06 -848354 -160347 825380
225 1 Mg 7.07415 37.992 0 1.2 -6.39351 2.97075e+06 2.00332e+06 -3.26277e+06 1.87415e+06 -399697 -1.23123e+06
226 1 Mg 4.36817 42.6997 1.4948 1.2 -9.11253 -917404 2.41475e+06 4.54986e+06 -1.00533e+06 126848 15849.2
227 2 Si 6.16058 40.0155 1.4948 2.4 -34.1011 1.2046e+07 7.76163e+06 1.10609e+07 -386282 1.34985e+06 -1.56795e+06
228 3 O 6.22815 41.6288 1.4948 -1.2 -8.3969 -6.46692e+06 70950.2 -7.19514e+06 41235.3 -4.52906e+06 -1.59523e+06
229 3 O 2.53282 39.0415 1.4948 -1.2 -9.28165 -4.52989e+06 -737057 -2.181e+06 1.71771e+06 -335663 -961542
230 3 O 5.44674 39.3094 0.196716 -1.2 -6.9073 -4.78656e+06 -1.04709e+07 -6.05882e+06 -140165 -5.79455e+06 1.78747e+06
231 1 Mg 7.04922 37.992 2.9896 1.2 -8.21445 5.02872e+06 -1.86007e+06 -412544 1.29695e+06 -1.44646e+06 2.02296e+06
232 3 O 5.42658 39.3094 2.79288 -1.2 -8.55109 -2.64029e+06 -3.51834e+06 -2.32187e+06 1.14514e+06 -307135 -1.27443e+06
233 1 Mg -0.333062 38.0333 4.4844 1.2 -9.0604 -505015 2.33722e+06 3.47457e+06 -406903 -150005 135155
234 2 Si -2.12255 40.7174 4.4844 2.4 -33.6071 1.24448e+07 8.27859e+06 9.30001e+06 79247.3 -159735 101938
235 3 O -2.19212 39.1042 4.4844 -1.2 -9.09944 -4.43799e+06 56293.3 -4.02428e+06 441164 -45258.2 -91354.5
236 3 O 1.50676 41.6915 4.4844 -1.2 -8.87529 -4.01518e+06 -2.42378e+06 -3.44492e+06 2.26377e+06 -265176 5287.12
237 3 O -1.3884 41.4236 3.18632 -1.2 -8.63734 -3.21699e+06 -3.22626e+06 -1.65667e+06 1.14253e+06 136927 -1.48019e+06
238 3 O -1.40713 41.4236 5.78248 -1.2 -8.5521 -3.44363e+06 -3.29825e+06 -1.97232e+06 1.18555e+06 111564 1.37894e+06
239 1 Mg 2.01892 40.3665 2.9896 1.2 -8.28511 5.06241e+06 -1.84579e+06 -365323 -1.08193e+06 -1.59484e+06 -1.47316e+06
240 1 Mg 4.83434 40.3252 4.4844 1.2 -9.0409 -104171 2.2022e+06 3.31543e+06 1.2175e+06 -118593 140984
241 2 Si 3.02698 42.39 4.4844 2.4 -33.6262 1.23037e+07 8.38363e+06 9.31929e+06 795589 -191427 56803.9
242 3 O 3.05433 44.0033 4.4844 -1.2 -9.07999 -4.4087e+06 51449.3 -4.24249e+06 602814 19582.9 -14817.8
243 3 O -3.60077 41.416 4.4844 -1.2 -8.95484 -4.21563e+06 -2.22395e+06 -3.26149e+06 -1.27188e+06 -256575 -81533.6
244 3 O 3.71851 41.6839 3.18632 -1.2 -8.67178 -3.18662e+06 -3.38204e+06 -1.73535e+06 -842591 257298 1.17806e+06
245 1 Mg 2.04077 40.3665 0 1.2 -6.45291 2.51533e+06 1.79106e+06 -3.53615e+06 -1.8369e+06 422762 1.58391e+06
246 3 O 3.70011 41.6839 5.78248 -1.2 -8.55374 -3.37758e+06 -3.46354e+06 -2.17012e+06 -920388 12640.6 -1.26984e+06
247 1 Mg -0.796865 40.4078 1.4948 1.2 -9.07254 -598574 2.36279e+06 4.59933e+06 1.75719e+06 32270.1 72522.5
248 2 Si 1.01387 38.3429 1.4948 2.4 -34.1641 1.16116e+07 8.2418e+06 1.10512e+07 1.54362e+06 1.42594e+06 2.10853e+06
249 3 O 0.989947 36.7297 1.4948 -1.2 -7.84952 -6.86337e+06 -145180 -1.05199e+07 1.0341e+06 -6.6157e+06 1.85848e+06
250 3 O 7.63988 39.317 1.4948 -1.2 -9.32355 -4.67993e+06 -621514 -2.11597e+06 -929955 -267627 1.02451e+06
251 3 O 0.340253 39.0491 0.196716 -1.2 -6.91691 -4.83549e+06 -1.13965e+07 -6.02336e+06 378271 -5.83764e+06 -1.55181e+06
252 3 O 0.319795 39.0491 2.79288 -1.2 -8.5854 -2.5771e+06 -3.68091e+06 -2.37976e+06 -867622 -191839 836979
253 1 Mg 7.20667 42.741 0 1.2 -6.52053 2.27538e+06 1.71103e+06 -3.53531e+06 1.99077e+06 918257 -2.11174e+06
254 1 Mg 4.50613 47.4487 1.4948 1.2 -9.08108 -950854 2.5497e+06 4.19478e+06 -846175 428331 141325
255 2 Si 6.29731 44.7645 1.4948 2.4 -33.9769 1.25037e+07 7.12746e+06 1.10154e+07 -249452 910006 -1.41566e+06
256 3 O 6.36567 46.3778 1.4948 -1.2 -8.80436 -5.67814e+06 67792.8 -5.22688e+06 185980 -2.69367e+06 -1.39388e+06
257 3 O 2.669 43.7905 1.4948 -1.2 -9.19046 -4.44586e+06 -831426 -2.58651e+06 1.71866e+06 -208049 -917686
258 3 O 5.58048 44.0584 0.196716 -1.2 -7.57527 -4.80157e+06 -7.76017e+06 -3.72014e+06 327037 -3.74519e+06 2.38199e+06
259 1 Mg 7.1879 42.741 2.9896 1.2 -8.24295 5.10559e+06 -1.97115e+06 -319310 1.27182e+06 -1.58072e+06 1.90513e+06
260 3 O 5.56564 44.0584 2.79288 -1.2 -8.55406 -2.78209e+06 -3.41722e+06 -2.2998e+06 1.15118e+06 -268830 -1.17769e+06
261 1 Mg -0.19105 42.7823 4.4844 1.2 -9.07256 -425977 2.22198e+06 3.52792e+06 -385803 -52517.1 3313.99
262 2 Si -1.97909 45.4664 4.4844 2.4 -33.5002 1.24081e+07 8.37823e+06 9.07019e+06 97076.2 -97303.1 -54097
263 3 O -2.04947 43.8532 4.4844 -1.2 -9.11544 -4.48897e+06 110835 -3.99978e+06 434899 -12949.7 55439.1
264 3 O 1.65063 46.4405 4.4844 -1.2 -8.9233 -3.92311e+06 -2.51894e+06 -3.37022e+06 2.27489e+06 -238728 35853.1
265 3 O -1.24745 46.1726 3.18632 -1.2 -8.64983 -3.15629e+06 -3.29718e+06 -1.73063e+06 1.14661e+06 89412.7 -1.45314e+06
266 3 O -1.26044 46.1726 5.78248 -1.2 -8.67377 -3.29054e+06 -3.35794e+06 -1.8201e+06 1.21713e+06 18700.5 1.45646e+06
267 1 Mg 2.15896 45.1155 2.9896 1.2 -8.28849 5.00866e+06 -1.81528e+06 -320906 -1.06044e+06 -1.67086e+06 -1.52383e+06
268 1 Mg 4.97763 45.0742 4.4844 1.2 -9.02295 -189281 2.26085e+06 3.31425e+06 1.22252e+06 -150062 9326.49
269 2 Si 3.1711 47.139 4.4844 2.4 -33.543 1.19566e+07 8.69599e+06 9.21993e+06 850352 -135459 88100