ITEM: TIMESTEP
82700
ITEM: NUMBER OF ATOMS
10500
ITEM: BOX BOUNDS xy xz yz pp pp pp
0.0000000000000000e+00 1.5297749999999999e+01 5.0992499999999996e+00
0.0000000000000000e+00 1.1872499999999999e+02 0.0000000000000000e+00
0.0000000000000000e+00 8.9688000000000002e+01 0.0000000000000000e+00
ITEM: ATOMS id type element xu yu zu q c_pe c_s[1] c_s[2] c_s[3] c_s[4] c_s[5] c_s[6]
1 1 Mg 6.2404 -6.37941e-06 0 1.2 -4.52902 8.09459e+06 -1.26038e+06 -6.83965e+06 10347.2 2.58216e+06 142802
2 1 Mg 3.46349 4.70768 1.4948 1.2 -8.51301 -325013 3.40687e+06 3.65361e+06 -937864 -618071 546073
3 2 Si 5.2885 2.02354 1.4948 2.4 -35.3357 1.01677e+07 1.23672e+07 9.8716e+06 8.86978e+06 580905 -2.18453e+06
4 3 O 5.33628 3.63678 1.4948 -1.2 -4.69575 -878538 -2.15052e+06 -3.29456e+07 -331329 3.86893e+06 -4.3467e+06
5 3 O 1.67294 1.04952 1.4948 -1.2 -0.985267 -2.03708e+07 -8.00826e+07 -1.463e+06 -2.41248e+07 -165301 -473705
6 3 O 4.59532 1.31737 0.196716 -1.2 -2.96344 -2.08038e+06 -7.346e+06 -2.9804e+07 -6.03363e+06 6.26985e+06 -3.04998e+06
7 1 Mg 6.18956 -6.37941e-06 2.9896 1.2 -4.98412 1.73582e+06 -2.75299e+07 -3.75581e+06 -8.84593e+06 2.38836e+06 4.43653e+06
8 3 O 4.55118 1.31737 2.79288 -1.2 -7.46171 107544 -5.42129e+06 -2.47132e+06 -2.98079e+06 -3.31988e+06 -1.5879e+06
9 1 Mg -1.20682 0.0413099 4.4844 1.2 8.90358 -3.05601e+07 -9.27013e+07 -1.10539e+06 -2.86107e+07 -1.11079e+06 502762
10 2 Si -3.0337 2.72544 4.4844 2.4 -33.068 1.46206e+07 8.20708e+06 6.53404e+06 1.52216e+06 -171743 610103
11 3 O -3.08099 1.11221 4.4844 -1.2 -9.63382 -6.33163e+06 -608974 -1.3151e+06 -1.14139e+06 -140478 -259633
12 3 O 0.582463 3.69946 4.4844 -1.2 -8.97055 -3.2407e+06 -6.11959e+06 -2.24066e+06 -559068 -400026 -747262
13 3 O -2.29524 3.43162 3.18632 -1.2 -9.06032 -4.35165e+06 -3.15213e+06 187015 1.10125e+06 -791590 -1.48234e+06
14 3 O -2.34216 3.43162 5.78248 -1.2 -8.9361 -4.15689e+06 -3.65638e+06 -848602 808638 819429 517506
15 1 Mg 1.12778 2.37449 2.9896 1.2 -7.63227 5.15358e+06 -912192 -1.33258e+06 -3.27401e+06 -4.08588e+06 -1.75914e+06
16 1 Mg 3.92855 2.33318 4.4844 1.2 -8.48694 -4.33116e+06 5.64445e+06 4.3108e+06 1.43804e+06 183609 1.11093e+06
17 2 Si 2.09341 4.39804 4.4844 2.4 -32.4565 1.16035e+07 8.07486e+06 8.24497e+06 160721 3173.35 1.76491e+06
18 3 O 2.09991 6.01128 4.4844 -1.2 -9.42683 -3.82554e+06 -551165 -3.6855e+06 563562 -249715 -648253
19 3 O -4.52137 3.42402 4.4844 -1.2 -9.1789 -2.91603e+06 -3.45745e+06 -3.00337e+06 -2.4131e+06 -673994 -588553
20 3 O 2.80834 3.69187 3.18632 -1.2 -9.2986 -2.01786e+06 -3.51026e+06 103246 453253 -514243 -1.03565e+06
21 1 Mg 1.17857 2.37449 0 1.2 -5.18733 -565859 -1.4128e+07 -7.07763e+06 6.51341e+06 1.26329e+06 4.95265e+06
22 3 O 2.76143 3.69187 5.78248 -1.2 -9.28091 -2.3343e+06 -3.10443e+06 -1.07594e+06 512639 -32704.9 -700649
23 1 Mg -1.67381 2.41581 1.4948 1.2 -7.61696 1.66116e+06 467047 3.34212e+06 1.35007e+06 -585397 1.44734e+06
24 2 Si 0.16286 0.350945 1.4948 2.4 -24.7118 -8.00057e+06 1.37556e+07 1.01358e+07 1.56058e+06 2.94477e+06 1.87459e+06
25 3 O 0.15972 -1.26229 1.4948 -1.2 -4.63978 -1.08459e+07 -8.57722e+06 -2.84283e+07 -5.58536e+06 -8.58077e+06 -2.91442e+06
26 3 O 6.77654 1.32496 1.4948 -1.2 -10.3052 -5.87635e+06 1.10058e+06 -656962 -642321 -604742 658669
27 3 O -0.508028 1.05712 0.196716 -1.2 -9.44978 2244.11 -5.32455e+06 -69212.8 -542572 170322 -4.88738e+06
28 3 O -0.552171 1.05712 2.79288 -1.2 -6.76005 -5.43298e+06 -5.30097e+06 -2.3918e+07 1.44436e+06 -6.86616e+06 -5.91779e+06
29 1 Mg 6.31713 4.74899 0 1.2 -4.96756 484472 -1.21781e+07 -6.89977e+06 -7.31239e+06 1.37031e+06 -3.18e+06
30 1 Mg 3.54847 9.45668 1.4948 1.2 -8.371 265346 2.41531e+06 3.80584e+06 -953638 -930757 25634.7
31 2 Si 5.36879 6.77254 1.4948 2.4 -34.3546 7.44385e+06 1.34158e+07 1.01306e+07 1.64907e+06 46889.7 -1.1086e+06
32 3 O 5.41937 8.38578 1.4948 -1.2 -4.72911 -400703 -1.61473e+06 -3.45107e+07 776352 1.15642e+06 -4.60182e+06
33 3 O 1.75158 5.79852 1.4948 -1.2 -9.46219 -3.98885e+06 -3.05942e+06 -804562 1.96471e+06 -1.64674e+06 -1.80009e+06
34 3 O 4.67421 6.06637 0.196716 -1.2 -3.74253 58839 -1.08574e+07 -3.06853e+07 -2.00414e+06 1.30288e+06 -4.84975e+06
35 1 Mg 6.26654 4.74899 2.9896 1.2 -8.04105 4.20679e+06 -1.05875e+06 -694567 1.79881e+06 -941147 2.44266e+06
36 3 O 4.63043 6.06637 2.79288 -1.2 -8.81842 -1.62171e+06 -4.59481e+06 -1.61372e+06 944282 -34543.8 -1.92945e+06
37 1 Mg -1.12976 4.79031 4.4844 1.2 -8.77399 -381814 3.24511e+06 2.06256e+06 -669715 -347191 511796
38 2 Si -2.9517 7.47444 4.4844 2.4 -32.8261 1.18016e+07 9.70826e+06 7.23482e+06 41132 -241924 684520
39 3 O -3.00198 5.86121 4.4844 -1.2 -9.45195 -4.21238e+06 -576625 -3.08616e+06 39734.9 -107165 -454384
40 3 O 0.666315 8.44846 4.4844 -1.2 -9.22524 -3.35825e+06 -3.13457e+06 -2.80539e+06 2.12268e+06 -689091 -242320
41 3 O -2.21213 8.18062 3.18632 -1.2 -9.08592 -3.12042e+06 -3.93498e+06 68540.1 1.10599e+06 -293089 -1.80017e+06
42 3 O -2.25864 8.18062 5.78248 -1.2 -9.06708 -3.4267e+06 -3.86874e+06 -811209 1.03877e+06 -65750.5 1.08577e+06
43 1 Mg 1.20893 7.12349 2.9896 1.2 -8.03899 4.09942e+06 -1.0193e+06 -650735 -1.27835e+06 -1.23561e+06 -1.24561e+06
44 1 Mg 4.00982 7.08218 4.4844 1.2 -8.73216 -931630 3.06696e+06 2.77409e+06 1.00508e+06 -396105 547752
45 2 Si 2.17861 9.14704 4.4844 2.4 -32.9763 1.08494e+07 1.01874e+07 7.9242e+06 624911 120161 578848
46 3 O 2.18828 10.7603 4.4844 -1.2 -9.41465 -3.71752e+06 -967727 -3.35558e+06 442848 -300287 -288752
47 3 O -4.43805 8.17302 4.4844 -1.2 -9.28192 -3.44317e+06 -3.09786e+06 -2.63529e+06 -1.5086e+06 -286964 -383966
48 3 O 2.89193 8.44087 3.18632 -1.2 -9.05422 -2.71359e+06 -4.19572e+06 -279253 -930100 -232758 914326
49 1 Mg 1.25915 7.12349 0 1.2 -5.35694 975132 -6.8437e+06 -6.99491e+06 5.91141e+06 1.42487e+06 3.00337e+06
50 3 O 2.84547 8.44087 5.78248 -1.2 -8.8313 -2.64853e+06 -4.34086e+06 -1.77878e+06 -935585 -69001.3 -1.41566e+06
51 1 Mg -1.59284 7.16481 1.4948 1.2 -8.27576 918563 2.01558e+06 3.59885e+06 1.45814e+06 -916891 743977
52 2 Si 0.240329 5.09994 1.4948 2.4 -34.1292 8.3547e+06 1.23092e+07 9.96591e+06 -1.9507e+06 -956987 2.8711e+06
53 3 O 0.234538 3.48671 1.4948 -1.2 -5.18876 -1.81262e+06 -300833 -3.31079e+07 398395 5.12861e+06 3.50636e+06
54 3 O 6.85564 6.07396 1.4948 -1.2 -9.55725 -4.51783e+06 -2.4838e+06 -660277 -1.33828e+06 -1.77837e+06 728881
55 3 O -0.429565 5.80612 0.196716 -1.2 -3.98222 -698929 -9.49604e+06 -3.08613e+07 1.84583e+06 1.18754e+06 4.13837e+06
56 3 O -0.473377 5.80612 2.79288 -1.2 -8.9165 -2.2334e+06 -4.1438e+06 -1.39627e+06 -790388 232314 822655
57 1 Mg 6.40169 9.49799 0 1.2 -5.30861 1.67378e+06 -5.75823e+06 -7.3455e+06 -5.51873e+06 970299 -2.11431e+06
58 1 Mg 3.64209 14.2057 1.4948 1.2 -8.43944 161726 2.41697e+06 3.97661e+06 -1.02746e+06 -977727 80707.5
59 2 Si 5.45748 11.5215 1.4948 2.4 -34.3251 7.68436e+06 1.30073e+07 1.02275e+07 880574 263118 -1.45574e+06
60 3 O 5.51101 13.1348 1.4948 -1.2 -4.7658 -571090 -1.50166e+06 -3.42133e+07 467003 -2.50911e+06 -4.71926e+06
61 3 O 1.83851 10.5475 1.4948 -1.2 -9.53564 -4.20406e+06 -2.5464e+06 -712317 1.52654e+06 -1.61531e+06 -1.43275e+06
62 3 O 4.7611 10.8154 0.196716 -1.2 -3.58242 514714 -1.21298e+07 -3.13478e+07 -2.4571e+06 -1.76521e+06 -4.60873e+06
63 1 Mg 6.35203 9.49799 2.9896 1.2 -7.98354 4.21946e+06 -999942 -860467 1.30552e+06 -1.28643e+06 2.32136e+06
64 3 O 4.71833 10.8154 2.79288 -1.2 -8.84502 -1.82215e+06 -4.44755e+06 -1.52501e+06 1.05411e+06 119160 -1.63944e+06
65 1 Mg -1.0438 9.53931 4.4844 1.2 -8.64633 -675866 3.03838e+06 2.32054e+06 -582951 -156537 213997
66 2 Si -2.8604 12.2234 4.4844 2.4 -32.7427 1.17584e+07 1.01976e+07 6.66447e+06 4390.11 -155948 798973
67 3 O -2.91391 10.6102 4.4844 -1.2 -9.52217 -4.14313e+06 -771032 -2.8553e+06 208840 -93008.4 -293287
68 3 O 0.7596 13.1975 4.4844 -1.2 -9.22076 -3.3496e+06 -3.33012e+06 -2.60319e+06 2.17502e+06 -685242 -423632
69 3 O -2.12001 12.9296 3.18632 -1.2 -9.07857 -3.05266e+06 -4.08075e+06 137234 1.1591e+06 -243435 -1.93697e+06
70 3 O -2.16532 12.9296 5.78248 -1.2 -9.11375 -3.15157e+06 -4.32244e+06 -603917 1.0598e+06 -334121 880278
71 1 Mg 1.29891 11.8725 2.9896 1.2 -8.02895 4.13239e+06 -867530 -854706 -1.18099e+06 -1.12573e+06 -1.31528e+06
72 1 Mg 4.10033 11.8312 4.4844 1.2 -8.72122 -890980 3.30049e+06 2.48736e+06 1.1044e+06 -463410 417508
73 2 Si 2.27333 13.896 4.4844 2.4 -33.0412 1.10079e+07 1.02643e+07 7.80216e+06 680858 77395.2 908705
74 3 O 2.28634 15.5093 4.4844 -1.2 -9.35335 -3.92042e+06 -767641 -3.45184e+06 443682 -282967 -355467
75 3 O -4.34533 12.922 4.4844 -1.2 -9.31265 -3.53885e+06 -3.29471e+06 -2.27046e+06 -1.49209e+06 -255555 -495068
76 3 O 2.98455 13.1899 3.18632 -1.2 -9.04656 -2.7669e+06 -4.23587e+06 -213400 -961792 -143865 895334
77 1 Mg 1.34779 11.8725 0 1.2 -5.56827 2.82412e+06 -2.1705e+06 -7.28017e+06 3.58936e+06 790963 1.93579e+06
78 3 O 2.93934 13.1899 5.78248 -1.2 -8.80786 -2.54762e+06 -4.69212e+06 -1.77261e+06 -889915 16662.2 -1.72797e+06
79 1 Mg -1.50344 11.9138 1.4948 1.2 -8.3593 627876 2.35708e+06 3.66566e+06 1.55977e+06 -931373 785267
80 2 Si 0.326006 9.84894 1.4948 2.4 -34.2969 7.69622e+06 1.30617e+07 1.00884e+07 -585756 209876 2.98246e+06
81 3 O 0.317364 8.23571 1.4948 -1.2 -4.72718 -494657 -1.47928e+06 -3.46847e+07 -133396 1.12345e+06 3.80567e+06
82 3 O 6.94307 10.823 1.4948 -1.2 -9.59188 -4.47659e+06 -2.33957e+06 -515781 -973335 -1.4978e+06 702473
83 3 O -0.343122 10.5551 0.196716 -1.2 -3.68291 203945 -1.15972e+07 -3.13738e+07 2.45029e+06 -2.04643e+06 4.14184e+06
84 3 O -0.385966 10.5551 2.79288 -1.2 -8.89727 -1.95977e+06 -4.47409e+06 -1.42382e+06 -859930 2600.96 781403
85 1 Mg 6.49448 14.247 0 1.2 -5.5174 3.39031e+06 -1.40672e+06 -7.50675e+06 -2.97173e+06 290836 -1.1459e+06
86 1 Mg 3.74457 18.9547 1.4948 1.2 -8.51357 10445 2.43776e+06 4.14869e+06 -1.11656e+06 -954117 34541.2
87 2 Si 5.55495 16.2705 1.4948 2.4 -34.3172 7.96591e+06 1.25498e+07 1.04095e+07 566089 794507 -1.54544e+06
88 3 O 5.6115 17.8838 1.4948 -1.2 -5.07917 -1.60312e+06 -1.31107e+06 -3.16393e+07 52214.7 -6.07564e+06 -4.46636e+06
89 3 O 1.93416 15.2965 1.4948 -1.2 -9.56402 -4.29445e+06 -2.15923e+06 -713224 1.54263e+06 -1.38457e+06 -1.39882e+06
90 3 O 4.85636 15.5644 0.196716 -1.2 -3.60498 549196 -1.37901e+07 -2.98516e+07 -3.03564e+06 -5.1709e+06 -4.08574e+06
91 1 Mg 6.44662 14.247 2.9896 1.2 -7.9874 4.33353e+06 -1.02677e+06 -942454 1.30365e+06 -1.26464e+06 2.4655e+06
92 3 O 4.81537 15.5644 2.79288 -1.2 -8.80823 -1.86938e+06 -4.3522e+06 -1.66138e+06 1.03338e+06 31354 -1.69558e+06
93 1 Mg -0.948271 14.2883 4.4844 1.2 -8.7046 -725258 3.04982e+06 2.44744e+06 -624755 -163116 453392
94 2 Si -2.75928 16.9724 4.4844 2.4 -32.9427 1.17209e+07 9.85977e+06 7.36139e+06 60186.4 -326720 857641
95 3 O -2.81617 15.3592 4.4844 -1.2 -9.4464 -4.17621e+06 -641630 -3.04875e+06 313280 -85754.3 -560899
96 3 O 0.862762 17.9465 4.4844 -1.2 -9.19101 -3.49204e+06 -3.35131e+06 -2.51652e+06 2.32791e+06 -548444 -373317
97 3 O -2.0185 17.6786 3.18632 -1.2 -9.02141 -3.00688e+06 -4.00621e+06 -96617.5 1.14195e+06 -124295 -1.93291e+06
98 3 O -2.06164 17.6786 5.78248 -1.2 -8.96062 -3.08115e+06 -4.33888e+06 -832349 988838 100819 923569
99 1 Mg 1.39817 16.6215 2.9896 1.2 -8.04488 4.31198e+06 -988976 -889482 -1.20674e+06 -1.17034e+06 -1.31418e+06
100 1 Mg 4.20062 16.5802 4.4844 1.2 -8.78358 -718602 2.99541e+06 2.7209e+06 1.22715e+06 -304178 423679
101 2 Si 2.37796 18.645 4.4844 2.4 -32.9893 1.15017e+07 1.01241e+07 7.35006e+06 398487 -7807.81 659483
102 3 O 2.39434 20.2583 4.4844 -1.2 -9.4037 -4.16461e+06 -705282 -3.21439e+06 614909 -22705 -398345
103 3 O -4.24274 17.671 4.4844 -1.2 -9.23621 -3.5659e+06 -3.05306e+06 -2.61569e+06 -1.55348e+06 -370335 -383861
104 3 O 3.08659 17.9389 3.18632 -1.2 -9.0309 -2.90209e+06 -4.11528e+06 -269994 -918252 -91982.8 991721
105 1 Mg 1.44478 16.6215 0 1.2 -5.66679 4.45086e+06 767741 -7.24464e+06 1.38576e+06 -101274 1.18423e+06
106 3 O 3.0436 17.9389 5.78248 -1.2 -8.84756 -2.90688e+06 -4.39873e+06 -1.44865e+06 -782362 -407135 -1.35435e+06
107 1 Mg -1.40524 16.6628 1.4948 1.2 -8.44424 439869 2.42824e+06 3.87102e+06 1.68502e+06 -979571 733698
108 2 Si 0.420358 14.5979 1.4948 2.4 -34.3179 7.83248e+06 1.28212e+07 1.02105e+07 -153866 593783 3.25094e+06
109 3 O 0.408732 12.9847 1.4948 -1.2 -4.75359 -589796 -1.49392e+06 -3.43561e+07 225183 -2.5905e+06 3.86993e+06
110 3 O 7.03923 15.572 1.4948 -1.2 -9.62 -4.53939e+06 -1.98304e+06 -522389 -954408 -1.29913e+06 622871
111 3 O -0.248332 15.3041 0.196716 -1.2 -3.71538 161170 -1.33247e+07 -2.98058e+07 3.25624e+06 -5.37197e+06 3.64806e+06
112 3 O -0.289436 15.3041 2.79288 -1.2 -8.85614 -1.94908e+06 -4.46401e+06 -1.5497e+06 -821536 -10233.5 678440
113 1 Mg 6.59566 18.996 0 1.2 -5.62783 4.76846e+06 1.06424e+06 -7.13564e+06 -903840 -621192 -675927
114 1 Mg 3.85574 23.7037 1.4948 1.2 -8.61809 -191284 2.29913e+06 4.51663e+06 -1.18426e+06 -894849 127096
115 2 Si 5.66125 21.0195 1.4948 2.4 -34.2558 8.49322e+06 1.17347e+07 1.06608e+07 213871 1.34949e+06 -1.67484e+06
116 3 O 5.72074 22.6328 1.4948 -1.2 -5.66207 -3.33074e+06 -920495 -2.70278e+07 -219193 -8.58066e+06 -4.02359e+06
117 3 O 2.03867 20.0455 1.4948 -1.2 -9.58869 -4.35283e+06 -1.73579e+06 -837212 1.59192e+06 -1.11096e+06 -1.29788e+06
118 3 O 4.96004 20.3134 0.196716 -1.2 -3.9355 -196623 -1.49871e+07 -2.61934e+07 -3.19124e+06 -8.01515e+06 -2.97749e+06
119 1 Mg 6.55057 18.996 2.9896 1.2 -8.00209 4.40566e+06 -1.13603e+06 -881297 1.36968e+06 -1.1819e+06 2.3719e+06
120 3 O 4.92172 20.3134 2.79288 -1.2 -8.79884 -1.96032e+06 -4.27659e+06 -1.70211e+06 1.04893e+06 -130563 -1.62512e+06
121 1 Mg -0.84282 19.0373 4.4844 1.2 -8.77541 -875987 3.13318e+06 2.61953e+06 -535601 -289616 600258
122 2 Si -2.64823 21.7214 4.4844 2.4 -33.1112 1.16302e+07 9.62474e+06 7.96073e+06 24293.2 205608 1.06802e+06
123 3 O -2.70847 20.1082 4.4844 -1.2 -9.38046 -4.05222e+06 -673357 -3.25247e+06 207116 -258936 -559914
124 3 O 0.97581 22.6955 4.4844 -1.2 -9.11894 -3.52417e+06 -3.01958e+06 -2.94205e+06 2.17832e+06 -219951 -455035
125 3 O -1.9076 22.4276 3.18632 -1.2 -8.94454 -2.94848e+06 -3.76588e+06 -556304 1.17133e+06 -114022 -1.9493e+06
126 3 O -1.9475 22.4276 5.78248 -1.2 -8.73629 -3.06593e+06 -4.1315e+06 -1.44269e+06 1.20205e+06 -335425 884608
127 1 Mg 1.50678 21.3705 2.9896 1.2 -8.0503 4.46383e+06 -1.18879e+06 -832809 -1.18921e+06 -1.36825e+06 -1.21308e+06
128 1 Mg 4.31086 21.3292 4.4844 1.2 -8.72117 -488612 2.97209e+06 2.41357e+06 1.21288e+06 -175740 550438
129 2 Si 2.49243 23.394 4.4844 2.4 -33.0477 1.20074e+07 9.34714e+06 7.70859e+06 832017 -336192 1.17355e+06
130 3 O 2.51204 25.0073 4.4844 -1.2 -9.30903 -4.33608e+06 -209845 -3.68813e+06 461114 -66197.5 -469531
131 3 O -4.13026 22.42 4.4844 -1.2 -9.20134 -3.70913e+06 -2.89118e+06 -2.70037e+06 -1.38199e+06 -585295 -597465
132 3 O 3.19799 22.6879 3.18632 -1.2 -9.0087 -3.05407e+06 -3.879e+06 -451534 -931765 46821.1 836890
133 1 Mg 1.5501 21.3705 0 1.2 -5.73476 5.34051e+06 2.00848e+06 -6.4881e+06 -71096.3 -1.04194e+06 676957
134 3 O 3.1583 22.6879 5.78248 -1.2 -8.99624 -3.38148e+06 -4.07325e+06 -854858 -949396 -242542 -2.01438e+06
135 1 Mg -1.29822 21.4118 1.4948 1.2 -8.55087 168815 2.35664e+06 4.28006e+06 1.80294e+06 -959517 637110
136 2 Si 0.523568 19.3469 1.4948 2.4 -34.2886 8.15092e+06 1.22134e+07 1.0481e+07 256188 900360 3.25714e+06
137 3 O 0.508934 17.7337 1.4948 -1.2 -5.06539 -1.6161e+06 -1.32649e+06 -3.17677e+07 694267 -6.06122e+06 3.73531e+06
138 3 O 7.14425 20.321 1.4948 -1.2 -9.63485 -4.54244e+06 -1.55609e+06 -732156 -955593 -1.11236e+06 670774
139 3 O -0.145107 20.0531 0.196716 -1.2 -4.03925 -571573 -1.4664e+07 -2.61787e+07 3.68758e+06 -8.12459e+06 2.82416e+06
140 3 O -0.183601 20.0531 2.79288 -1.2 -8.81546 -1.88861e+06 -4.38831e+06 -1.80264e+06 -810558 31795.5 605305
141 1 Mg 6.70502 23.745 0 1.2 -5.7372 5.29228e+06 2.00961e+06 -6.04587e+06 409756 -1.42722e+06 -352345
142 1 Mg 3.97493 28.4527 1.4948 1.2 -8.72472 -514405 2.27303e+06 4.80407e+06 -1.22629e+06 -741121 12101.1
143 2 Si 5.77602 25.7685 1.4948 2.4 -34.187 9.20671e+06 1.0515e+07 1.11441e+07 -141139 1.64644e+06 -1.77354e+06
144 3 O 5.83821 27.3818 1.4948 -1.2 -6.4329 -5.0972e+06 -513968 -2.11969e+07 -329602 -9.33114e+06 -3.25423e+06
145 3 O 2.15175 24.7945 1.4948 -1.2 -9.57714 -4.38313e+06 -1.20434e+06 -1.22267e+06 1.60204e+06 -884130 -1.22542e+06
146 3 O 5.07184 25.0624 0.196716 -1.2 -4.55018 -1.48421e+06 -1.53284e+07 -2.09588e+07 -2.78152e+06 -9.50201e+06 -1.6772e+06
147 1 Mg 6.66374 23.745 2.9896 1.2 -8.04283 4.55578e+06 -1.47107e+06 -628216 1.28943e+06 -1.15563e+06 2.38234e+06
148 3 O 5.03707 25.0624 2.79288 -1.2 -8.73782 -2.06146e+06 -3.915e+06 -2.09916e+06 1.10986e+06 -202200 -1.60372e+06
149 1 Mg -0.727559 23.7863 4.4844 1.2 -8.89769 -892313 2.76765e+06 3.19008e+06 -496710 -277206 446002
150 2 Si -2.5277 26.4704 4.4844 2.4 -33.2748 1.19471e+07 8.87538e+06 8.65786e+06 -121635 -42504.6 588691
151 3 O -2.59107 24.8572 4.4844 -1.2 -9.26853 -4.19016e+06 -278492 -3.68058e+06 413601 -214418 -433827
152 3 O 1.09817 27.4445 4.4844 -1.2 -9.07184 -3.74122e+06 -2.63644e+06 -3.17525e+06 2.1624e+06 -389866 -151105
153 3 O -1.78784 27.1766 3.18632 -1.2 -8.89504 -3.0333e+06 -3.4749e+06 -900463 1.18697e+06 29620.4 -1.69035e+06
154 3 O -1.82343 27.1766 5.78248 -1.2 -8.67507 -3.23375e+06 -3.64257e+06 -1.82012e+06 1.29794e+06 -93451.5 1.13867e+06
155 1 Mg 1.62435 26.1195 2.9896 1.2 -8.08902 4.64662e+06 -1.56658e+06 -572763 -1.11123e+06 -1.35435e+06 -1.31819e+06
156 1 Mg 4.43064 26.0782 4.4844 1.2 -8.86358 -410206 2.4876e+06 3.0508e+06 1.18707e+06 -206402 464940
157 2 Si 2.61607 28.143 4.4844 2.4 -33.2255 1.19843e+07 8.75527e+06 8.62159e+06 854221 -18186.6 369597
158 3 O 2.63853 29.7563 4.4844 -1.2 -9.29774 -4.24979e+06 -180139 -3.80963e+06 554986 -160898 -14700.9
159 3 O -4.00841 27.169 4.4844 -1.2 -9.10469 -3.84489e+06 -2.53054e+06 -3.07397e+06 -1.29462e+06 -428400 -336637
160 3 O 3.3182 27.4369 3.18632 -1.2 -8.93334 -3.03409e+06 -3.57545e+06 -964234 -921284 78138.3 1.05355e+06
161 1 Mg 1.66335 26.1195 0 1.2 -5.82429 5.2065e+06 2.34246e+06 -5.32536e+06 -894393 -1.63301e+06 408200
162 3 O 3.28288 27.4369 5.78248 -1.2 -8.71139 -3.2651e+06 -3.6836e+06 -1.99076e+06 -973057 -238898 -1.53039e+06
163 1 Mg -1.18278 26.1608 1.4948 1.2 -8.66229 -83725 2.24139e+06 4.63418e+06 1.88457e+06 -866280 406880
164 2 Si 0.635424 24.0959 1.4948 2.4 -34.2397 8.76426e+06 1.10689e+07 1.10012e+07 762741 1.22357e+06 3.18243e+06
165 3 O 0.617906 22.4827 1.4948 -1.2 -5.64572 -3.32093e+06 -923895 -2.71949e+07 1.01548e+06 -8.46214e+06 3.30116e+06
166 3 O 7.25781 25.07 1.4948 -1.2 -9.61959 -4.55276e+06 -1.04199e+06 -1.14054e+06 -921480 -873929 743239
167 3 O -0.0337363 24.8021 0.196716 -1.2 -4.64221 -1.82729e+06 -1.53055e+07 -2.09027e+07 3.50053e+06 -9.56181e+06 1.62234e+06
168 3 O -0.0687235 24.8021 2.79288 -1.2 -8.76306 -1.98308e+06 -4.06578e+06 -2.16641e+06 -849399 -10446.4 682641
169 1 Mg 6.82195 28.494 0 1.2 -5.87238 4.86612e+06 2.26968e+06 -4.78365e+06 1.16673e+06 -1.80081e+06 -392997
170 1 Mg 4.10106 33.2017 1.4948 1.2 -8.79199 -861016 2.50687e+06 4.68418e+06 -1.21252e+06 -514786 98924.1
171 2 Si 5.89839 30.5175 1.4948 2.4 -34.017 9.95808e+06 9.68722e+06 1.10313e+07 -324257 1.70573e+06 -1.94062e+06
172 3 O 5.96289 32.1308 1.4948 -1.2 -7.29052 -6.24913e+06 -404827 -1.51247e+07 -293335 -8.4573e+06 -2.57287e+06
173 3 O 2.27266 29.5435 1.4948 -1.2 -9.5651 -4.32666e+06 -941383 -1.51292e+06 1.66093e+06 -725661 -1.00914e+06
174 3 O 5.19102 29.8114 0.196716 -1.2 -5.38062 -2.88848e+06 -1.47087e+07 -1.50414e+07 -1.94159e+06 -9.34232e+06 -247731
175 1 Mg 6.78546 28.494 2.9896 1.2 -8.05555 4.66081e+06 -1.69408e+06 -484310 1.29062e+06 -1.31048e+06 2.08538e+06
176 3 O 5.16061 29.8114 2.79288 -1.2 -8.72737 -2.07041e+06 -3.82611e+06 -2.23114e+06 1.11595e+06 -232989 -1.30084e+06
177 1 Mg -0.603205 28.5353 4.4844 1.2 -8.87488 -698737 2.50742e+06 3.21e+06 -458699 -251461 63292.6
178 2 Si -2.39877 31.2194 4.4844 2.4 -33.1137 1.18211e+07 9.11389e+06 8.2884e+06 139908 -251237 62188.7
179 3 O -2.46483 29.6062 4.4844 -1.2 -9.29555 -4.20914e+06 -184248 -3.70649e+06 398768 -25949 -36167.7
180 3 O 1.22864 32.1935 4.4844 -1.2 -9.15497 -3.59923e+06 -2.90478e+06 -2.92623e+06 2.26488e+06 -353487 -85653.3
181 3 O -1.66032 31.9256 3.18632 -1.2 -8.92155 -2.96011e+06 -3.58787e+06 -898216 1.13521e+06 109772 -1.58942e+06
182 3 O -1.69072 31.9256 5.78248 -1.2 -8.87397 -3.06716e+06 -3.8698e+06 -1.31539e+06 1.0825e+06 -42360 1.31733e+06
183 1 Mg 1.7499 30.8685 2.9896 1.2 -8.0576 4.667e+06 -1.52836e+06 -675112 -1.14185e+06 -1.36611e+06 -1.49635e+06
184 1 Mg 4.55894 30.8272 4.4844 1.2 -8.84923 -579977 2.61657e+06 3.07201e+06 1.20278e+06 -153483 17707.1
185 2 Si 2.7476 32.892 4.4844 2.4 -33.0723 1.16186e+07 9.41261e+06 8.08224e+06 668283 -105226 377927
186 3 O 2.77235 34.5053 4.4844 -1.2 -9.32242 -4.09272e+06 -341921 -3.77349e+06 628659 -40547.4 -313733
187 3 O -3.87837 31.918 4.4844 -1.2 -9.18474 -3.74177e+06 -2.73756e+06 -2.84071e+06 -1.35198e+06 -334477 -74564.3
188 3 O 3.44611 32.1859 3.18632 -1.2 -8.95048 -2.90334e+06 -3.75858e+06 -977097 -853130 147491 1.15409e+06
189 1 Mg 1.7837 30.8685 0 1.2 -5.96271 4.2562e+06 2.34099e+06 -4.21253e+06 -1.36771e+06 -1.52631e+06 459400
190 3 O 3.41602 32.1859 5.78248 -1.2 -8.88595 -2.95987e+06 -4.19595e+06 -1.35847e+06 -767437 -235424 -1.27338e+06
191 1 Mg -1.05984 30.9098 1.4948 1.2 -8.73899 -424546 2.37299e+06 4.66441e+06 1.91335e+06 -668400 214013
192 2 Si 0.755243 28.8449 1.4948 2.4 -34.1094 9.51936e+06 1.00723e+07 1.1119e+07 1.14243e+06 1.54052e+06 2.66856e+06
193 3 O 0.735127 27.2317 1.4948 -1.2 -6.4246 -5.12193e+06 -519909 -2.13169e+07 1.16499e+06 -9.27548e+06 2.88299e+06
194 3 O 7.37914 29.819 1.4948 -1.2 -9.6134 -4.51216e+06 -810046 -1.39014e+06 -937017 -601324 933821
195 3 O 0.0850649 29.5511 0.196716 -1.2 -5.44065 -3.10478e+06 -1.50729e+07 -1.50111e+07 2.70611e+06 -9.37367e+06 419989
196 3 O 0.0543974 29.5511 2.79288 -1.2 -8.77716 -2.08406e+06 -3.97042e+06 -2.191e+06 -844465 -107024 898829
197 1 Mg 6.94543 33.243 0 1.2 -6.0301 3.81137e+06 2.31398e+06 -3.84708e+06 1.58985e+06 -1.4618e+06 -543973
198 1 Mg 4.23267 37.9507 1.4948 1.2 -8.887 -1.06744e+06 2.59289e+06 4.54236e+06 -1.1114e+06 -239995 144113
199 2 Si 6.02709 35.2665 1.4948 2.4 -33.8333 1.07655e+07 9.0178e+06 1.0649e+07 -403889 1.59069e+06 -1.54971e+06
200 3 O 6.09339 36.8798 1.4948 -1.2 -8.02592 -6.58253e+06 -283353 -1.02282e+07 -148775 -6.60448e+06 -2.11217e+06
201 3 O 2.40018 34.2925 1.4948 -1.2 -9.54162 -4.24055e+06 -946827 -1.68334e+06 1.70172e+06 -531692 -1.09822e+06
202 3 O 5.31645 34.5604 0.196716 -1.2 -6.29032 -3.95651e+06 -1.31206e+07 -9.66653e+06 -958938 -7.86579e+06 812049
203 1 Mg 6.91449 33.243 2.9896 1.2 -8.0075 4.69207e+06 -1.57911e+06 -699328 1.32294e+06 -1.39672e+06 2.06826e+06
204 3 O 5.291 34.5604 2.79288 -1.2 -8.755 -2.17189e+06 -3.87467e+06 -2.07434e+06 1.13518e+06 -246716 -1.38202e+06
205 1 Mg -0.471101 33.2843 4.4844 1.2 -8.80828 -856898 2.70349e+06 3.0603e+06 -396293 -158724 190067
206 2 Si -2.26307 35.9684 4.4844 2.4 -33.1082 1.19251e+07 8.88979e+06 8.40596e+06 181821 -31139.9 444519
207 3 O -2.33122 34.3552 4.4844 -1.2 -9.35529 -4.16259e+06 -295819 -3.54162e+06 364277 -90012.1 -203706
208 3 O 1.36549 36.9425 4.4844 -1.2 -9.06956 -3.58942e+06 -2.64508e+06 -3.33575e+06 2.31742e+06 -343831 -183045
209 3 O -1.52658 36.6746 3.18632 -1.2 -8.87383 -2.94842e+06 -3.51953e+06 -1.14913e+06 1.13686e+06 76516.5 -1.67796e+06
210 3 O -1.55122 36.6746 5.78248 -1.2 -8.81068 -3.14923e+06 -3.54926e+06 -1.68966e+06 1.0843e+06 -195171 1.16621e+06
211 1 Mg 1.882 35.6175 2.9896 1.2 -8.07042 4.66996e+06 -1.54877e+06 -627047 -1.12994e+06 -1.47554e+06 -1.31329e+06
212 1 Mg 4.69415 35.5762 4.4844 1.2 -8.82527 -511498 2.53353e+06 3.04768e+06 1.18053e+06 -263139 281664
213 2 Si 2.88522 37.641 4.4844 2.4 -33.2272 1.16413e+07 8.76138e+06 8.96432e+06 707800 -355992 171670
214 3 O 2.91159 39.2543 4.4844 -1.2 -9.27365 -4.19348e+06 -208518 -3.88609e+06 588398 84897.1 -7889.25
215 3 O -3.74183 36.667 4.4844 -1.2 -9.19283 -3.93708e+06 -2.51714e+06 -2.86358e+06 -1.34255e+06 -273644 -228040
216 3 O 3.58014 36.9349 3.18632 -1.2 -8.89823 -2.89928e+06 -3.64379e+06 -1.28642e+06 -848088 285351 1.07371e+06
217 1 Mg 1.90997 35.6175 0 1.2 -6.11165 3.0694e+06 2.24493e+06 -3.66972e+06 -1.65504e+06 -760403 1.02076e+06
218 3 O 3.55582 36.9349 5.78248 -1.2 -8.72983 -2.9861e+06 -3.53421e+06 -2.35353e+06 -825829 144107 -1.44615e+06
219 1 Mg -0.93068 35.6588 1.4948 1.2 -8.81698 -739678 2.5388e+06 4.54664e+06 1.85658e+06 -321642 272037
220 2 Si 0.881882 33.5939 1.4948 2.4 -33.9249 1.02129e+07 9.44486e+06 1.08283e+07 1.40425e+06 1.62576e+06 2.62581e+06
221 3 O 0.859602 31.9807 1.4948 -1.2 -7.27999 -6.25685e+06 -401753 -1.52806e+07 1.16295e+06 -8.46607e+06 2.30746e+06
222 3 O 7.507 34.568 1.4948 -1.2 -9.59124 -4.44371e+06 -824287 -1.54663e+06 -939957 -411808 866678
223 3 O 0.210186 34.3001 0.196716 -1.2 -6.31264 -4.0198e+06 -1.38406e+07 -9.69657e+06 1.53994e+06 -7.90971e+06 -879880
224 3 O 0.184454 34.3001 2.79288 -1.2 -8.79424 -2.1122e+06 -4.02646e+06 -2.12608e+06 -856702 -188643 728793
225 1 Mg 7.07415 37.992 0 1.2 -6.21095 2.69337e+06 2.1628e+06 -3.43728e+06 1.86774e+06 -410292 -1.11239e+06
226 1 Mg 4.36817 42.6997 1.4948 1.2 -9.05072 -997778 2.41899e+06 4.52698e+06 -1.00008e+06 94439.7 66576.3
227 2 Si 6.16058 40.0155 1.4948 2.4 -33.8178 1.16097e+07 8.11648e+06 1.06885e+07 -357629 1.32268e+06 -1.39509e+06
228 3 O 6.22815 41.6288 1.4948 -1.2 -8.49404 -6.30843e+06 -24762.7 -7.10186e+06 33905.8 -4.51401e+06 -1.6716e+06
229 3 O 2.53282 39.0415 1.4948 -1.2 -9.43796 -4.27062e+06 -929152 -1.99746e+06 1.7154e+06 -325736 -1.05772e+06
230 3 O 5.44674 39.3094 0.196716 -1.2 -7.07749 -4.51766e+06 -1.06433e+07 -5.88178e+06 -166970 -5.76918e+06 1.68753e+06
231 1 Mg 7.04922 37.992 2.9896 1.2 -8.04349 4.82524e+06 -1.69189e+06 -651135 1.31518e+06 -1.45596e+06 2.0792e+06
232 3 O 5.42658 39.3094 2.79288 -1.2 -8.70493 -2.42121e+06 -3.72152e+06 -2.0909e+06 1.11533e+06 -276620 -1.32783e+06
233 1 Mg -0.333062 38.0333 4.4844 1.2 -8.89118 -826136 2.4773e+06 3.38475e+06 -459558 -6488.43 159676
234 2 Si -2.12255 40.7174 4.4844 2.4 -33.3314 1.21009e+07 8.60047e+06 8.88154e+06 65628.2 22353.1 263326
235 3 O -2.19212 39.1042 4.4844 -1.2 -9.28599 -4.24492e+06 -115292 -3.74954e+06 433628 -134906 -152238
236 3 O 1.50676 41.6915 4.4844 -1.2 -8.95936 -3.83205e+06 -2.58358e+06 -3.33505e+06 2.24457e+06 -177859 -159196
237 3 O -1.3884 41.4236 3.18632 -1.2 -8.72473 -3.06058e+06 -3.35203e+06 -1.54639e+06 1.15288e+06 85831.8 -1.5876e+06
238 3 O -1.40713 41.4236 5.78248 -1.2 -8.68694 -3.18047e+06 -3.46414e+06 -1.82313e+06 1.14709e+06 -116008 1.40517e+06
239 1 Mg 2.01892 40.3665 2.9896 1.2 -8.15679 4.83944e+06 -1.62954e+06 -564178 -1.09102e+06 -1.62447e+06 -1.4037e+06
240 1 Mg 4.83434 40.3252 4.4844 1.2 -8.87385 -348061 2.46391e+06 3.02994e+06 1.26537e+06 -126668 176278
241 2 Si 3.02698 42.39 4.4844 2.4 -33.5351 1.22479e+07 8.44393e+06 9.16573e+06 848832 -267906 488327
242 3 O 3.05433 44.0033 4.4844 -1.2 -8.98224 -4.59113e+06 327252 -4.49342e+06 570134 27480 -95726.9
243 3 O -3.60077 41.416 4.4844 -1.2 -9.07085 -4.10827e+06 -2.37088e+06 -3.03112e+06 -1.25777e+06 -255581 -196527
244 3 O 3.71851 41.6839 3.18632 -1.2 -8.75645 -3.0722e+06 -3.50784e+06 -1.58878e+06 -853331 283107 1.04839e+06
245 1 Mg 2.04077 40.3665 0 1.2 -6.2876 2.28664e+06 1.95693e+06 -3.73819e+06 -1.84008e+06 419195 1.69494e+06
246 3 O 3.70011 41.6839 5.78248 -1.2 -8.74533 -3.20186e+06 -3.6509e+06 -1.72505e+06 -895772 -15791.4 -1.55483e+06
247 1 Mg -0.796865 40.4078 1.4948 1.2 -8.94182 -824127 2.53417e+06 4.44403e+06 1.74055e+06 65627.5 164281
248 2 Si 1.01387 38.3429 1.4948 2.4 -33.8428 1.10467e+07 8.60652e+06 1.07365e+07 1.51093e+06 1.45869e+06 2.33005e+06
249 3 O 0.989947 36.7297 1.4948 -1.2 -8.01168 -6.56559e+06 -279029 -1.04236e+07 1.04461e+06 -6.63639e+06 1.73321e+06
250 3 O 7.63988 39.317 1.4948 -1.2 -9.47683 -4.44254e+06 -809352 -1.91978e+06 -927445 -279528 931298
251 3 O 0.340253 39.0491 0.196716 -1.2 -7.0899 -4.55172e+06 -1.15839e+07 -5.84215e+06 405189 -5.86e+06 -1.69693e+06
252 3 O 0.319795 39.0491 2.79288 -1.2 -8.73471 -2.29782e+06 -3.88362e+06 -2.21709e+06 -836803 -221035 772716
253 1 Mg 7.20667 42.741 0 1.2 -6.4355 2.07754e+06 1.72526e+06 -3.48795e+06 2.00239e+06 907251 -2.12286e+06
254 1 Mg 4.50613 47.4487 1.4948 1.2 -9.18854 -773527 2.1964e+06 4.54293e+06 -852048 415490 -240977
255 2 Si 6.29731 44.7645 1.4948 2.4 -34.0252 1.25596e+07 6.72917e+06 1.14352e+07 -257913 855480 -1.61449e+06
256 3 O 6.36567 46.3778 1.4948 -1.2 -8.72443 -5.79546e+06 376240 -5.54535e+06 193865 -2.66463e+06 -1.12469e+06
257 3 O 2.669 43.7905 1.4948 -1.2 -9.21007 -4.44212e+06 -724629 -2.66548e+06 1.7162e+06 -202374 -891652
258 3 O 5.58048 44.0584 0.196716 -1.2 -7.61784 -4.72602e+06 -7.66517e+06 -3.82227e+06 328311 -3.68946e+06 2.45133e+06
259 1 Mg 7.1879 42.741 2.9896 1.2 -8.21339 5.07576e+06 -1.98922e+06 -318697 1.26065e+06 -1.57104e+06 2.00951e+06
260 3 O 5.56564 44.0584 2.79288 -1.2 -8.51867 -2.84301e+06 -3.23152e+06 -2.47857e+06 1.15323e+06 -244488 -1.1954e+06
261 1 Mg -0.19105 42.7823 4.4844 1.2 -9.08454 -514343 2.1999e+06 3.65816e+06 -387272 -5001.37 151854
262 2 Si -1.97909 45.4664 4.4844 2.4 -33.887 1.31179e+07 7.46219e+06 9.90243e+06 11709.3 -73433.6 -410658
263 3 O -2.04947 43.8532 4.4844 -1.2 -9.03769 -4.6711e+06 355033 -4.17181e+06 481419 -75003.3 -53796.7
264 3 O 1.65063 46.4405 4.4844 -1.2 -8.69135 -4.28898e+06 -2.06844e+06 -3.82507e+06 2.2417e+06 -254783 397055
265 3 O -1.24745 46.1726 3.18632 -1.2 -8.50588 -3.39646e+06 -2.90922e+06 -2.10583e+06 1.15785e+06 79371.8 -1.17708e+06
266 3 O -1.26044 46.1726 5.78248 -1.2 -8.33702 -3.89601e+06 -2.82942e+06 -2.31259e+06 1.28288e+06 -25078.4 1.89617e+06
267 1 Mg 2.15896 45.1155 2.9896 1.2 -8.38299 5.16612e+06 -2.12089e+06 -21316.5 -1.04447e+06 -1.66743e+06 -1.6481e+06
268 1 Mg 4.97763 45.0742 4.4844 1.2 -9.2046 65416.8 1.84919e+06 3.76454e+06 1.23082e+06 -157169 -81954.4
269 2 Si 3.1711 47.139 4.4844 2.4 -34.0438 1.27323e+07 7.84108e+06 1.01016e+07 895025 -91340.6 -793523
270 3 O 3.19894 48.7523 4.4844 -1.2 -8.85087 -4.67355e+06 249089 -4.54214e+06 573066 -51739 443876