ITEM: TIMESTEP
20700
ITEM: NUMBER OF ATOMS
10500
ITEM: BOX BOUNDS xy xz yz pp pp pp
0.0000000000000000e+00 1.5297749999999999e+01 5.0992499999999996e+00
0.0000000000000000e+00 1.1872499999999999e+02 0.0000000000000000e+00
0.0000000000000000e+00 8.9688000000000002e+01 0.0000000000000000e+00
ITEM: ATOMS id type element xu yu zu q c_pe c_s[1] c_s[2] c_s[3] c_s[4] c_s[5] c_s[6]
1 1 Mg 6.2404 -6.37941e-06 0 1.2 -4.5255 8.03698e+06 -1.94498e+06 -6.1031e+06 2081.4 2.62294e+06 -128473
2 1 Mg 3.46349 4.70768 1.4948 1.2 -8.58398 -140609 2.6213e+06 4.36846e+06 -929513 -632299 272623
3 2 Si 5.2885 2.02354 1.4948 2.4 -35.4466 1.03023e+07 1.08944e+07 1.13875e+07 8.88915e+06 685265 -2.79763e+06
4 3 O 5.33628 3.63678 1.4948 -1.2 -4.62405 -971773 -1.39519e+06 -3.37229e+07 -344076 3.8153e+06 -4.04454e+06
5 3 O 1.67294 1.04952 1.4948 -1.2 -0.950927 -2.04911e+07 -7.93469e+07 -2.13322e+06 -2.41174e+07 -116534 -205827
6 3 O 4.59532 1.31737 0.196716 -1.2 -2.94139 -2.08721e+06 -6.60048e+06 -3.05778e+07 -6.0423e+06 6.25815e+06 -2.75169e+06
7 1 Mg 6.18956 -6.37941e-06 2.9896 1.2 -5.05634 1.76446e+06 -2.81916e+07 -3.00706e+06 -8.83013e+06 2.46082e+06 4.18522e+06
8 3 O 4.55118 1.31737 2.79288 -1.2 -7.3907 -46662.4 -4.70113e+06 -3.15165e+06 -2.98194e+06 -3.40355e+06 -1.28056e+06
9 1 Mg -1.20682 0.0413099 4.4844 1.2 8.78212 -3.05539e+07 -9.33138e+07 -305891 -2.85551e+07 -1.19727e+06 346721
10 2 Si -3.0337 2.72544 4.4844 2.4 -33.3813 1.46921e+07 6.94751e+06 8.21584e+06 1.63429e+06 143924 -109213
11 3 O -3.08099 1.11221 4.4844 -1.2 -9.48322 -6.37463e+06 37345.5 -2.17366e+06 -1.21383e+06 -230839 2246.45
12 3 O 0.582463 3.69946 4.4844 -1.2 -8.84412 -3.44338e+06 -5.48222e+06 -2.87207e+06 -540934 -99408.9 -375487
13 3 O -2.29524 3.43162 3.18632 -1.2 -8.94178 -4.37661e+06 -2.48715e+06 -645971 1.09322e+06 -838826 -1.1713e+06
14 3 O -2.34216 3.43162 5.78248 -1.2 -8.70242 -4.0509e+06 -3.18191e+06 -1.70151e+06 761349 595040 1.01293e+06
15 1 Mg 1.12778 2.37449 2.9896 1.2 -7.71398 5.35651e+06 -1.65328e+06 -663539 -3.29528e+06 -4.20968e+06 -2.06261e+06
16 1 Mg 3.92855 2.33318 4.4844 1.2 -8.58472 -3.93708e+06 4.92338e+06 4.79477e+06 1.41727e+06 323468 699020
17 2 Si 2.09341 4.39804 4.4844 2.4 -32.6193 1.247e+07 6.75661e+06 8.9606e+06 169236 -333027 1.12768e+06
18 3 O 2.09991 6.01128 4.4844 -1.2 -9.35222 -4.26957e+06 114275 -4.01862e+06 536683 -117575 -415771
19 3 O -4.52137 3.42402 4.4844 -1.2 -9.05325 -3.10091e+06 -2.86417e+06 -3.6284e+06 -2.44505e+06 -918647 -188903
20 3 O 2.80834 3.69187 3.18632 -1.2 -9.21945 -2.32363e+06 -2.791e+06 -436330 458393 -477987 -713428
21 1 Mg 1.17857 2.37449 0 1.2 -5.21153 -461441 -1.4929e+07 -6.34227e+06 6.50555e+06 1.21526e+06 4.66856e+06
22 3 O 2.76143 3.69187 5.78248 -1.2 -9.24643 -3.02113e+06 -2.48076e+06 -1.092e+06 549638 13797.2 -323564
23 1 Mg -1.67381 2.41581 1.4948 1.2 -7.67963 1.70557e+06 -272507 4.13768e+06 1.3481e+06 -576876 1.1562e+06
24 2 Si 0.16286 0.350945 1.4948 2.4 -24.7656 -7.87103e+06 1.23565e+07 1.14914e+07 1.55491e+06 2.84417e+06 1.39343e+06
25 3 O 0.15972 -1.26229 1.4948 -1.2 -4.6416 -1.08664e+07 -7.94946e+06 -2.90327e+07 -5.58726e+06 -8.53611e+06 -2.71698e+06
26 3 O 6.77654 1.32496 1.4948 -1.2 -10.2551 -5.89362e+06 1.81347e+06 -1.43338e+06 -650477 -653022 946117
27 3 O -0.508028 1.05712 0.196716 -1.2 -9.4398 -40375.8 -4.58695e+06 -780258 -536113 182535 -4.61207e+06
28 3 O -0.552171 1.05712 2.79288 -1.2 -6.68473 -5.50125e+06 -4.59756e+06 -2.46749e+07 1.4447e+06 -6.7898e+06 -5.67507e+06
29 1 Mg 6.31713 4.74899 0 1.2 -5.03615 502078 -1.30079e+07 -5.97771e+06 -7.30353e+06 1.41585e+06 -3.47618e+06
30 1 Mg 3.54847 9.45668 1.4948 1.2 -8.46192 511457 1.47856e+06 4.64217e+06 -956370 -924749 -100329
31 2 Si 5.36879 6.77254 1.4948 2.4 -34.5426 7.68791e+06 1.17766e+07 1.18269e+07 1.67428e+06 157684 -1.49636e+06
32 3 O 5.41937 8.38578 1.4948 -1.2 -4.62728 -533688 -738129 -3.54171e+07 764533 1.09864e+06 -4.46471e+06
33 3 O 1.75158 5.79852 1.4948 -1.2 -9.38654 -4.20297e+06 -2.25171e+06 -1.51902e+06 1.96918e+06 -1.58222e+06 -1.56039e+06
34 3 O 4.67421 6.06637 0.196716 -1.2 -3.66737 -29576.3 -9.98799e+06 -3.15865e+07 -2.01789e+06 1.3222e+06 -4.60096e+06
35 1 Mg 6.26654 4.74899 2.9896 1.2 -8.15005 4.30565e+06 -1.72142e+06 43870.5 1.81079e+06 -814730 2.17359e+06
36 3 O 4.63043 6.06637 2.79288 -1.2 -8.72281 -1.84392e+06 -3.86762e+06 -2.27092e+06 926156 -127278 -1.72617e+06
37 1 Mg -1.12976 4.79031 4.4844 1.2 -8.94378 -435321 2.72905e+06 2.90534e+06 -704283 -447905 202553
38 2 Si -2.9517 7.47444 4.4844 2.4 -33.2141 1.17329e+07 8.63817e+06 9.00183e+06 18152.2 13974.3 595656
39 3 O -3.00198 5.86121 4.4844 -1.2 -9.28523 -4.19413e+06 -97548.2 -3.84725e+06 60806.8 -271995 -268551
40 3 O 0.666315 8.44846 4.4844 -1.2 -9.0965 -3.67763e+06 -2.4665e+06 -3.35654e+06 2.14154e+06 -407878 -254073
41 3 O -2.21213 8.18062 3.18632 -1.2 -8.92946 -3.14761e+06 -3.21605e+06 -869657 1.1118e+06 -299500 -1.72201e+06
42 3 O -2.25864 8.18062 5.78248 -1.2 -8.7552 -3.17157e+06 -3.58109e+06 -1.91527e+06 1.0787e+06 -13518.9 1.00224e+06
43 1 Mg 1.20893 7.12349 2.9896 1.2 -8.13868 4.37307e+06 -1.76166e+06 -22262.2 -1.28702e+06 -1.3631e+06 -1.41266e+06
44 1 Mg 4.00982 7.08218 4.4844 1.2 -8.8214 -527168 2.37919e+06 3.20147e+06 1.04822e+06 -223244 439677
45 2 Si 2.17861 9.14704 4.4844 2.4 -33.169 1.19315e+07 8.4975e+06 8.83751e+06 576461 -87676.8 668629
46 3 O 2.18828 10.7603 4.4844 -1.2 -9.28772 -4.31851e+06 98906.9 -4.03825e+06 439084 -170358 -294079
47 3 O -4.43805 8.17302 4.4844 -1.2 -9.12233 -3.61873e+06 -2.43682e+06 -3.36643e+06 -1.54033e+06 -555637 -367577
48 3 O 2.89193 8.44087 3.18632 -1.2 -8.95674 -3.09149e+06 -3.37064e+06 -882789 -931092 -232811 998161
49 1 Mg 1.25915 7.12349 0 1.2 -5.41707 1.1785e+06 -7.76088e+06 -6.18481e+06 5.89669e+06 1.38314e+06 2.77688e+06
50 3 O 2.84547 8.44087 5.78248 -1.2 -8.8316 -3.30839e+06 -3.61572e+06 -1.75672e+06 -890374 -214482 -1.50229e+06
51 1 Mg -1.59284 7.16481 1.4948 1.2 -8.37783 996530 1.20119e+06 4.49878e+06 1.4529e+06 -908198 556861
52 2 Si 0.240329 5.09994 1.4948 2.4 -34.2862 8.6518e+06 1.07384e+07 1.14911e+07 -1.97658e+06 -1.06809e+06 2.34883e+06
53 3 O 0.234538 3.48671 1.4948 -1.2 -5.12229 -1.93838e+06 469087 -3.38585e+07 410968 5.18424e+06 3.79489e+06
54 3 O 6.85564 6.07396 1.4948 -1.2 -9.46054 -4.57936e+06 -1.69699e+06 -1.54015e+06 -1.3434e+06 -1.84326e+06 952502
55 3 O -0.429565 5.80612 0.196716 -1.2 -3.91829 -833180 -8.63456e+06 -3.1691e+07 1.86064e+06 1.17107e+06 4.39281e+06
56 3 O -0.473377 5.80612 2.79288 -1.2 -8.80381 -2.33779e+06 -3.4483e+06 -2.16573e+06 -771673 327677 1.05769e+06
57 1 Mg 6.40169 9.49799 0 1.2 -5.39371 1.70928e+06 -6.71742e+06 -6.28546e+06 -5.49134e+06 989888 -2.27413e+06
58 1 Mg 3.64209 14.2057 1.4948 1.2 -8.51882 397457 1.41232e+06 4.87269e+06 -1.03373e+06 -946783 -163954
59 2 Si 5.45748 11.5215 1.4948 2.4 -34.5372 7.98341e+06 1.10385e+07 1.22371e+07 890041 369425 -1.76026e+06
60 3 O 5.51101 13.1348 1.4948 -1.2 -4.66455 -712410 -499996 -3.52367e+07 470843 -2.55325e+06 -4.50123e+06
61 3 O 1.83851 10.5475 1.4948 -1.2 -9.44413 -4.46604e+06 -1.56602e+06 -1.57776e+06 1.53762e+06 -1.57421e+06 -1.28582e+06
62 3 O 4.7611 10.8154 0.196716 -1.2 -3.50961 382325 -1.11375e+07 -3.23248e+07 -2.45993e+06 -1.75076e+06 -4.45607e+06
63 1 Mg 6.35203 9.49799 2.9896 1.2 -8.13503 4.33325e+06 -1.84063e+06 109121 1.31495e+06 -1.1564e+06 2.26488e+06
64 3 O 4.71833 10.8154 2.79288 -1.2 -8.7175 -2.09632e+06 -3.48478e+06 -2.41961e+06 1.04644e+06 -5560.33 -1.55526e+06
65 1 Mg -1.0438 9.53931 4.4844 1.2 -8.87371 -608125 2.31102e+06 3.34577e+06 -580914 -358406 276219
66 2 Si -2.8604 12.2234 4.4844 2.4 -33.2993 1.18215e+07 8.30702e+06 9.38295e+06 -91093.8 -43818.8 589076
67 3 O -2.91391 10.6102 4.4844 -1.2 -9.26226 -4.15993e+06 46355.4 -4.06749e+06 227543 -205980 -323236
68 3 O 0.7596 13.1975 4.4844 -1.2 -9.0625 -3.74592e+06 -2.30542e+06 -3.50657e+06 2.14292e+06 -412720 -170320
69 3 O -2.12001 12.9296 3.18632 -1.2 -8.89616 -3.11683e+06 -3.10433e+06 -1.07015e+06 1.1673e+06 -202370 -1.7184e+06
70 3 O -2.16532 12.9296 5.78248 -1.2 -8.6737 -3.237e+06 -3.42039e+06 -2.15442e+06 1.17077e+06 -72747.3 1.06463e+06
71 1 Mg 1.29891 11.8725 2.9896 1.2 -8.15477 4.47561e+06 -1.8953e+06 31329.9 -1.17498e+06 -1.24676e+06 -1.473e+06
72 1 Mg 4.10033 11.8312 4.4844 1.2 -8.86541 -369979 2.20795e+06 3.28768e+06 1.14096e+06 -229226 370784
73 2 Si 2.27333 13.896 4.4844 2.4 -33.2238 1.21474e+07 8.13826e+06 9.06638e+06 708828 -22803.1 422296
74 3 O 2.28634 15.5093 4.4844 -1.2 -9.28297 -4.37669e+06 197577 -4.08596e+06 451766 -208086 -119200
75 3 O -4.34533 12.922 4.4844 -1.2 -9.07896 -3.7223e+06 -2.25503e+06 -3.5103e+06 -1.46121e+06 -529210 -340754
76 3 O 2.98455 13.1899 3.18632 -1.2 -8.93744 -3.17923e+06 -3.18846e+06 -1.03083e+06 -967896 -184043 1.10431e+06
77 1 Mg 1.34779 11.8725 0 1.2 -5.6261 3.00234e+06 -3.20245e+06 -6.33378e+06 3.56613e+06 811618 1.71388e+06
78 3 O 2.93934 13.1899 5.78248 -1.2 -8.77057 -3.43615e+06 -3.38923e+06 -1.97322e+06 -980280 -273485 -1.46968e+06
79 1 Mg -1.50344 11.9138 1.4948 1.2 -8.47606 702656 1.37155e+06 4.76346e+06 1.56318e+06 -956408 590472
80 2 Si 0.326006 9.84894 1.4948 2.4 -34.4988 8.0686e+06 1.11833e+07 1.19177e+07 -604818 95578.8 2.69041e+06
81 3 O 0.317364 8.23571 1.4948 -1.2 -4.63254 -676901 -610654 -3.55225e+07 -121805 1.18217e+06 3.96604e+06
82 3 O 6.94307 10.823 1.4948 -1.2 -9.47431 -4.54935e+06 -1.38636e+06 -1.58461e+06 -983075 -1.53565e+06 844499
83 3 O -0.343122 10.5551 0.196716 -1.2 -3.60647 94848.4 -1.06093e+07 -3.2375e+07 2.45376e+06 -2.06182e+06 4.35e+06
84 3 O -0.385966 10.5551 2.79288 -1.2 -8.74905 -2.1266e+06 -3.54018e+06 -2.42833e+06 -854360 123576 877959
85 1 Mg 6.49448 14.247 0 1.2 -5.58581 3.42387e+06 -2.40928e+06 -6.42811e+06 -2.96986e+06 243688 -1.4033e+06
86 1 Mg 3.74457 18.9547 1.4948 1.2 -8.55668 103021 1.63714e+06 4.92579e+06 -1.12379e+06 -961385 -274228
87 2 Si 5.55495 16.2705 1.4948 2.4 -34.473 8.17e+06 1.06955e+07 1.23092e+07 511706 816392 -2.13916e+06
88 3 O 5.6115 17.8838 1.4948 -1.2 -5.01682 -1.67117e+06 -456902 -3.25254e+07 89281.2 -6.05939e+06 -4.1528e+06
89 3 O 1.93416 15.2965 1.4948 -1.2 -9.49273 -4.51319e+06 -1.17599e+06 -1.59285e+06 1.53053e+06 -1.38202e+06 -1.13958e+06
90 3 O 4.85636 15.5644 0.196716 -1.2 -3.55111 423061 -1.28036e+07 -3.07993e+07 -3.03037e+06 -5.13498e+06 -3.82627e+06
91 1 Mg 6.44662 14.247 2.9896 1.2 -8.13734 4.42676e+06 -1.99769e+06 175430 1.28252e+06 -1.17678e+06 2.17189e+06
92 3 O 4.81537 15.5644 2.79288 -1.2 -8.70704 -2.06643e+06 -3.41714e+06 -2.56421e+06 1.07604e+06 -64012.8 -1.39354e+06
93 1 Mg -0.948271 14.2883 4.4844 1.2 -8.90789 -602546 2.15413e+06 3.5442e+06 -565950 -380211 148697
94 2 Si -2.75928 16.9724 4.4844 2.4 -33.2613 1.18099e+07 8.17782e+06 9.46298e+06 -42610.2 -176188 79209.5
95 3 O -2.81617 15.3592 4.4844 -1.2 -9.23739 -4.1853e+06 196948 -4.22324e+06 294806 -131812 -154787
96 3 O 0.862762 17.9465 4.4844 -1.2 -9.10394 -3.69201e+06 -2.33792e+06 -3.46196e+06 2.13259e+06 -449075 -19718.7
97 3 O -2.0185 17.6786 3.18632 -1.2 -8.9242 -3.0772e+06 -3.11774e+06 -1.07137e+06 1.15526e+06 -110122 -1.51744e+06
98 3 O -2.06164 17.6786 5.78248 -1.2 -8.73589 -3.22381e+06 -3.36798e+06 -2.06305e+06 1.08847e+06 17895.2 1.37668e+06
99 1 Mg 1.39817 16.6215 2.9896 1.2 -8.12447 4.5387e+06 -1.92876e+06 -48964.8 -1.15325e+06 -1.233e+06 -1.58992e+06
100 1 Mg 4.20062 16.5802 4.4844 1.2 -8.86731 -426167 2.15935e+06 3.39742e+06 1.12185e+06 -178815 159204
101 2 Si 2.37796 18.645 4.4844 2.4 -33.1403 1.18844e+07 8.24802e+06 9.08859e+06 701260 2330.58 143394
102 3 O 2.39434 20.2583 4.4844 -1.2 -9.3437 -4.15613e+06 101302 -4.10722e+06 497866 -191483 26699.2
103 3 O -4.24274 17.671 4.4844 -1.2 -9.11287 -3.67788e+06 -2.24251e+06 -3.51355e+06 -1.3846e+06 -484766 -72632.2
104 3 O 3.08659 17.9389 3.18632 -1.2 -8.96329 -3.0869e+06 -3.23495e+06 -1.07253e+06 -933195 -107752 1.26269e+06
105 1 Mg 1.44478 16.6215 0 1.2 -5.70795 4.59997e+06 -201328 -6.35874e+06 1.40553e+06 -46636.7 958392
106 3 O 3.0436 17.9389 5.78248 -1.2 -8.80016 -3.27571e+06 -3.45197e+06 -2.03724e+06 -872788 -298653 -1.36811e+06
107 1 Mg -1.40524 16.6628 1.4948 1.2 -8.5245 492390 1.50547e+06 4.86977e+06 1.6923e+06 -990134 419412
108 2 Si 0.420358 14.5979 1.4948 2.4 -34.4922 8.14685e+06 1.08317e+07 1.21649e+07 -125425 531892 2.7237e+06
109 3 O 0.408732 12.9847 1.4948 -1.2 -4.65609 -765053 -481111 -3.53508e+07 222329 -2.54644e+06 4.10032e+06
110 3 O 7.03923 15.572 1.4948 -1.2 -9.52631 -4.58823e+06 -1.03356e+06 -1.57383e+06 -940512 -1.29912e+06 925437
111 3 O -0.248332 15.3041 0.196716 -1.2 -3.64955 99756.1 -1.2321e+07 -3.0854e+07 3.2514e+06 -5.4061e+06 3.90194e+06
112 3 O -0.289436 15.3041 2.79288 -1.2 -8.7418 -2.09115e+06 -3.51114e+06 -2.54649e+06 -860190 85994.5 971516
113 1 Mg 6.59566 18.996 0 1.2 -5.67313 4.75552e+06 296726 -6.28267e+06 -927340 -674335 -928315
114 1 Mg 3.85574 23.7037 1.4948 1.2 -8.59524 -261931 1.94506e+06 4.90475e+06 -1.19456e+06 -926768 -232431
115 2 Si 5.66125 21.0195 1.4948 2.4 -34.2959 8.46774e+06 1.0505e+07 1.19801e+07 161303 1.20677e+06 -2.45159e+06
116 3 O 5.72074 22.6328 1.4948 -1.2 -5.66929 -3.28012e+06 -468199 -2.75188e+07 -210913 -8.49838e+06 -3.63386e+06
117 3 O 2.03867 20.0455 1.4948 -1.2 -9.56359 -4.43214e+06 -1.01954e+06 -1.51392e+06 1.56595e+06 -1.15528e+06 -947390
118 3 O 4.96004 20.3134 0.196716 -1.2 -3.90802 -225813 -1.43233e+07 -2.68726e+07 -3.17421e+06 -7.94015e+06 -2.70036e+06
119 1 Mg 6.55057 18.996 2.9896 1.2 -8.069 4.45536e+06 -1.94839e+06 -11423.7 1.28627e+06 -1.21676e+06 1.95066e+06
120 3 O 4.92172 20.3134 2.79288 -1.2 -8.75791 -1.95238e+06 -3.5538e+06 -2.4954e+06 1.1033e+06 -79011.7 -1.20356e+06
121 1 Mg -0.84282 19.0373 4.4844 1.2 -8.83681 -691485 2.1992e+06 3.4665e+06 -472524 -303246 -39915.5
122 2 Si -2.64823 21.7214 4.4844 2.4 -32.9858 1.16975e+07 8.44297e+06 8.87181e+06 7267.55 -184384 -217578
123 3 O -2.70847 20.1082 4.4844 -1.2 -9.34585 -4.14345e+06 112954 -4.00108e+06 315808 -109113 73376.5
124 3 O 0.97581 22.6955 4.4844 -1.2 -9.20273 -3.4597e+06 -2.5301e+06 -3.34734e+06 2.18825e+06 -518834 86465.8
125 3 O -1.9076 22.4276 3.18632 -1.2 -9.00512 -2.97639e+06 -3.28297e+06 -915110 1.15179e+06 -60771.2 -1.42973e+06
126 3 O -1.9475 22.4276 5.78248 -1.2 -8.96255 -3.09437e+06 -3.48134e+06 -1.67422e+06 1.10514e+06 -87336.2 1.53414e+06
127 1 Mg 1.50678 21.3705 2.9896 1.2 -8.04788 4.46885e+06 -1.80541e+06 -225161 -1.15088e+06 -1.23279e+06 -1.68777e+06
128 1 Mg 4.31086 21.3292 4.4844 1.2 -8.78245 -645476 2.29966e+06 3.34321e+06 1.13377e+06 -277814 -3160.37
129 2 Si 2.49243 23.394 4.4844 2.4 -32.9577 1.13332e+07 8.64176e+06 8.95314e+06 687629 -35525.1 -50953.1
130 3 O 2.51204 25.0073 4.4844 -1.2 -9.42857 -3.93253e+06 -82631.1 -4.02207e+06 553830 -130748 26599.3
131 3 O -4.13026 22.42 4.4844 -1.2 -9.24821 -3.58641e+06 -2.39473e+06 -3.23758e+06 -1.36655e+06 -364955 29203.3
132 3 O 3.19799 22.6879 3.18632 -1.2 -9.02582 -2.88511e+06 -3.41315e+06 -1.05286e+06 -909093 12949.1 1.34543e+06
133 1 Mg 1.5501 21.3705 0 1.2 -5.74388 5.43037e+06 1.44149e+06 -5.99635e+06 -60849.7 -986043 399433
134 3 O 3.1583 22.6879 5.78248 -1.2 -8.89141 -2.84244e+06 -3.64402e+06 -2.17143e+06 -874323 -196759 -1.20617e+06
135 1 Mg -1.29822 21.4118 1.4948 1.2 -8.55319 199005 1.79243e+06 4.81776e+06 1.81435e+06 -940921 230021
136 2 Si 0.523568 19.3469 1.4948 2.4 -34.3563 8.34122e+06 1.06736e+07 1.1939e+07 332837 991152 2.54394e+06
137 3 O 0.508934 17.7337 1.4948 -1.2 -5.00932 -1.73599e+06 -441775 -3.26224e+07 657443 -6.07508e+06 4.04516e+06
138 3 O 7.14425 20.321 1.4948 -1.2 -9.60639 -4.55114e+06 -885240 -1.43991e+06 -932738 -1.06567e+06 1.06518e+06
139 3 O -0.145107 20.0531 0.196716 -1.2 -4.01419 -625768 -1.39894e+07 -2.68401e+07 3.67052e+06 -8.19863e+06 3.10194e+06
140 3 O -0.183601 20.0531 2.79288 -1.2 -8.79629 -1.99523e+06 -3.64925e+06 -2.46518e+06 -865543 -10905.6 1.09589e+06
141 1 Mg 6.70502 23.745 0 1.2 -5.75086 5.25349e+06 1.67519e+06 -5.65081e+06 414886 -1.48515e+06 -588138
142 1 Mg 3.97493 28.4527 1.4948 1.2 -8.6589 -623718 2.23264e+06 4.84833e+06 -1.22214e+06 -791986 -43573
143 2 Si 5.77602 25.7685 1.4948 2.4 -34.0823 9.0052e+06 1.01771e+07 1.15157e+07 -117288 1.51399e+06 -2.24833e+06
144 3 O 5.83821 27.3818 1.4948 -1.2 -6.49683 -4.98354e+06 -437059 -2.12856e+07 -337227 -9.2788e+06 -3.13092e+06
145 3 O 2.15175 24.7945 1.4948 -1.2 -9.61854 -4.31388e+06 -947787 -1.48209e+06 1.61784e+06 -925840 -930396
146 3 O 5.07184 25.0624 0.196716 -1.2 -4.55582 -1.46478e+06 -1.5091e+07 -2.12069e+07 -2.7827e+06 -9.42531e+06 -1.48365e+06
147 1 Mg 6.66374 23.745 2.9896 1.2 -7.96844 4.45683e+06 -1.80526e+06 -314230 1.31395e+06 -1.27118e+06 1.92307e+06
148 3 O 5.03707 25.0624 2.79288 -1.2 -8.82122 -1.8779e+06 -3.71596e+06 -2.34772e+06 1.09481e+06 -119464 -1.21985e+06
149 1 Mg -0.727559 23.7863 4.4844 1.2 -8.71754 -890204 2.39779e+06 3.26745e+06 -476530 -182454 -36034.1
150 2 Si -2.5277 26.4704 4.4844 2.4 -32.8352 1.14959e+07 8.57874e+06 8.69998e+06 30682.7 -132585 81224.1
151 3 O -2.59107 24.8572 4.4844 -1.2 -9.46825 -4.03763e+06 -41540.5 -3.74898e+06 333450 -101894 -23846.4
152 3 O 1.09817 27.4445 4.4844 -1.2 -9.24593 -3.37095e+06 -2.61949e+06 -3.29411e+06 2.22079e+06 -458859 44345.5
153 3 O -1.78784 27.1766 3.18632 -1.2 -9.03528 -2.87405e+06 -3.37307e+06 -938252 1.16949e+06 6055.72 -1.53345e+06
154 3 O -1.82343 27.1766 5.78248 -1.2 -8.99699 -2.95522e+06 -3.42111e+06 -1.79273e+06 1.19822e+06 -78545.5 1.37627e+06
155 1 Mg 1.62435 26.1195 2.9896 1.2 -7.98336 4.43125e+06 -1.68193e+06 -411327 -1.15244e+06 -1.29342e+06 -1.59242e+06
156 1 Mg 4.43064 26.0782 4.4844 1.2 -8.69131 -766241 2.43283e+06 3.18472e+06 1.20765e+06 -283649 35887.7
157 2 Si 2.61607 28.143 4.4844 2.4 -32.8748 1.1174e+07 8.9e+06 8.71769e+06 806671 -129107 89602.3
158 3 O 2.63853 29.7563 4.4844 -1.2 -9.43152 -3.88229e+06 -188848 -3.97186e+06 532729 -117881 -110510
159 3 O -4.00841 27.169 4.4844 -1.2 -9.31802 -3.54209e+06 -2.46569e+06 -3.10498e+06 -1.35869e+06 -380541 -87587.9
160 3 O 3.3182 27.4369 3.18632 -1.2 -9.05681 -2.78107e+06 -3.556e+06 -1.04369e+06 -906597 117646 1.23903e+06
161 1 Mg 1.66335 26.1195 0 1.2 -5.81182 5.24152e+06 2.15497e+06 -5.19286e+06 -897361 -1.58183e+06 294899
162 3 O 3.28288 27.4369 5.78248 -1.2 -8.98292 -2.74532e+06 -3.78217e+06 -1.88604e+06 -936204 -69631.5 -1.18205e+06
163 1 Mg -1.18278 26.1608 1.4948 1.2 -8.60323 -161657 2.08259e+06 4.77625e+06 1.88696e+06 -826931 226713
164 2 Si 0.635424 24.0959 1.4948 2.4 -34.1651 8.70474e+06 1.04325e+07 1.15776e+07 751761 1.38657e+06 2.53761e+06
165 3 O 0.617906 22.4827 1.4948 -1.2 -5.66086 -3.33889e+06 -453677 -2.76228e+07 1.00531e+06 -8.54626e+06 3.68386e+06
166 3 O 7.25781 25.07 1.4948 -1.2 -9.66727 -4.47615e+06 -816642 -1.36636e+06 -936958 -834523 1.01287e+06
167 3 O -0.0337363 24.8021 0.196716 -1.2 -4.64768 -1.83199e+06 -1.50354e+07 -2.11599e+07 3.50059e+06 -9.63919e+06 1.82471e+06
168 3 O -0.0687235 24.8021 2.79288 -1.2 -8.85851 -1.89522e+06 -3.82336e+06 -2.34447e+06 -837978 -102102 1.02123e+06
169 1 Mg 6.82195 28.494 0 1.2 -5.86219 4.78144e+06 2.24255e+06 -4.68818e+06 1.15196e+06 -1.83013e+06 -409214
170 1 Mg 4.10106 33.2017 1.4948 1.2 -8.74352 -962958 2.43132e+06 4.78399e+06 -1.20455e+06 -556354 74263.2
171 2 Si 5.89839 30.5175 1.4948 2.4 -33.898 9.72503e+06 9.60275e+06 1.11581e+07 -334557 1.63021e+06 -1.88886e+06
172 3 O 5.96289 32.1308 1.4948 -1.2 -7.34174 -6.1352e+06 -339687 -1.52223e+07 -290229 -8.42613e+06 -2.59438e+06
173 3 O 2.27266 29.5435 1.4948 -1.2 -9.62921 -4.23125e+06 -902093 -1.54572e+06 1.65231e+06 -718648 -1.01392e+06
174 3 O 5.19102 29.8114 0.196716 -1.2 -5.40379 -2.81499e+06 -1.47046e+07 -1.50822e+07 -1.93868e+06 -9.27018e+06 -251981
175 1 Mg 6.78546 28.494 2.9896 1.2 -7.92665 4.48737e+06 -1.74532e+06 -466225 1.30079e+06 -1.32583e+06 2.01518e+06
176 3 O 5.16061 29.8114 2.79288 -1.2 -8.83255 -1.90499e+06 -3.7788e+06 -2.27919e+06 1.11682e+06 -178010 -1.32194e+06
177 1 Mg -0.603205 28.5353 4.4844 1.2 -8.69011 -954364 2.43203e+06 3.24549e+06 -466576 -177477 -18861.5
178 2 Si -2.39877 31.2194 4.4844 2.4 -32.8328 1.15454e+07 8.77076e+06 8.45601e+06 44332.3 -291506 209054
179 3 O -2.46483 29.6062 4.4844 -1.2 -9.4811 -3.99847e+06 -97090.1 -3.71276e+06 416925 -39376.7 -39858.1
180 3 O 1.22864 32.1935 4.4844 -1.2 -9.22274 -3.43675e+06 -2.6549e+06 -3.23517e+06 2.27581e+06 -500161 -63143.1
181 3 O -1.66032 31.9256 3.18632 -1.2 -9.01274 -2.86724e+06 -3.43741e+06 -996587 1.16069e+06 90965.9 -1.62617e+06
182 3 O -1.69072 31.9256 5.78248 -1.2 -9.02746 -3.02935e+06 -3.59122e+06 -1.3937e+06 1.17621e+06 31364.1 1.25205e+06
183 1 Mg 1.7499 30.8685 2.9896 1.2 -7.97361 4.48976e+06 -1.62858e+06 -532275 -1.12672e+06 -1.33778e+06 -1.45403e+06
184 1 Mg 4.55894 30.8272 4.4844 1.2 -8.71697 -782888 2.47312e+06 3.20443e+06 1.20674e+06 -265624 162130
185 2 Si 2.7476 32.892 4.4844 2.4 -32.9723 1.12085e+07 8.88805e+06 8.85759e+06 765740 -67485.1 189339
186 3 O 2.77235 34.5053 4.4844 -1.2 -9.3869 -3.9476e+06 -155751 -4.00203e+06 607474 -97719.1 -113856
187 3 O -3.87837 31.918 4.4844 -1.2 -9.29603 -3.59297e+06 -2.51581e+06 -3.04392e+06 -1.33816e+06 -266136 -183834
188 3 O 3.44611 32.1859 3.18632 -1.2 -9.02025 -2.73834e+06 -3.59267e+06 -1.1991e+06 -882414 182463 1.13785e+06
189 1 Mg 1.7837 30.8685 0 1.2 -5.92755 4.28078e+06 2.3386e+06 -4.29106e+06 -1.34958e+06 -1.5298e+06 485386
190 3 O 3.41602 32.1859 5.78248 -1.2 -8.8754 -2.72562e+06 -3.78963e+06 -2.10945e+06 -947760 -14505.2 -1.22922e+06
191 1 Mg -1.05984 30.9098 1.4948 1.2 -8.67813 -506497 2.31897e+06 4.7029e+06 1.9056e+06 -614773 245071
192 2 Si 0.755243 28.8449 1.4948 2.4 -33.9775 9.33449e+06 9.96787e+06 1.11969e+07 1.14301e+06 1.6331e+06 2.63757e+06
193 3 O 0.735127 27.2317 1.4948 -1.2 -6.48805 -5.03133e+06 -419603 -2.14066e+07 1.17342e+06 -9.3312e+06 2.99224e+06
194 3 O 7.37914 29.819 1.4948 -1.2 -9.67678 -4.39992e+06 -768131 -1.44325e+06 -927600 -608728 920109
195 3 O 0.0850649 29.5511 0.196716 -1.2 -5.47259 -3.08811e+06 -1.50494e+07 -1.50004e+07 2.70449e+06 -9.44867e+06 383289
196 3 O 0.0543974 29.5511 2.79288 -1.2 -8.87898 -1.92743e+06 -3.90755e+06 -2.24877e+06 -844473 -167454 896840
197 1 Mg 6.94543 33.243 0 1.2 -6.01127 3.70483e+06 2.33692e+06 -3.79355e+06 1.58259e+06 -1.44401e+06 -552677
198 1 Mg 4.23267 37.9507 1.4948 1.2 -8.80839 -1.21769e+06 2.55997e+06 4.59952e+06 -1.12077e+06 -252079 -843.763
199 2 Si 6.02709 35.2665 1.4948 2.4 -33.7311 1.05131e+07 8.89569e+06 1.08596e+07 -400164 1.56549e+06 -1.7191e+06
200 3 O 6.09339 36.8798 1.4948 -1.2 -8.08965 -6.43954e+06 -239696 -1.03129e+07 -148846 -6.59788e+06 -1.98581e+06
201 3 O 2.40018 34.2925 1.4948 -1.2 -9.5953 -4.17093e+06 -875891 -1.73812e+06 1.69918e+06 -522503 -1.0221e+06
202 3 O 5.31645 34.5604 0.196716 -1.2 -6.31615 -3.8485e+06 -1.31348e+07 -9.7203e+06 -952286 -7.82881e+06 874594
203 1 Mg 6.91449 33.243 2.9896 1.2 -7.93603 4.57723e+06 -1.7486e+06 -529505 1.31833e+06 -1.42701e+06 2.07246e+06
204 3 O 5.291 34.5604 2.79288 -1.2 -8.81644 -2.03135e+06 -3.73329e+06 -2.25858e+06 1.11851e+06 -228337 -1.30477e+06
205 1 Mg -0.471101 33.2843 4.4844 1.2 -8.72007 -880579 2.43833e+06 3.20808e+06 -462343 -117845 149034
206 2 Si -2.26307 35.9684 4.4844 2.4 -32.9417 1.16657e+07 8.59864e+06 8.68971e+06 200810 -183698 137864
207 3 O -2.33122 34.3552 4.4844 -1.2 -9.43188 -4.07494e+06 -30774 -3.7722e+06 379249 -931.573 -124172
208 3 O 1.36549 36.9425 4.4844 -1.2 -9.17509 -3.48113e+06 -2.60669e+06 -3.31072e+06 2.32529e+06 -364667 -51793.9
209 3 O -1.52658 36.6746 3.18632 -1.2 -8.95914 -2.83443e+06 -3.41594e+06 -1.22866e+06 1.13359e+06 100102 -1.55877e+06
210 3 O -1.55122 36.6746 5.78248 -1.2 -8.92866 -3.02226e+06 -3.50684e+06 -1.60502e+06 1.08087e+06 -72082.4 1.35315e+06
211 1 Mg 1.882 35.6175 2.9896 1.2 -7.9951 4.56967e+06 -1.64931e+06 -546861 -1.13642e+06 -1.45464e+06 -1.44734e+06
212 1 Mg 4.69415 35.5762 4.4844 1.2 -8.75557 -694241 2.38944e+06 3.26279e+06 1.21173e+06 -215591 80031.9
213 2 Si 2.88522 37.641 4.4844 2.4 -33.0228 1.13237e+07 8.76599e+06 8.94628e+06 686447 -267391 39413.8
214 3 O 2.91159 39.2543 4.4844 -1.2 -9.37375 -3.99143e+06 -93427.3 -4.04325e+06 598626 44130.8 3790.03
215 3 O -3.74183 36.667 4.4844 -1.2 -9.27285 -3.72824e+06 -2.44165e+06 -3.01721e+06 -1.35925e+06 -252875 -63438.3
216 3 O 3.58014 36.9349 3.18632 -1.2 -8.98213 -2.74658e+06 -3.58037e+06 -1.36843e+06 -843046 264709 1.20002e+06
217 1 Mg 1.90997 35.6175 0 1.2 -6.06721 3.06113e+06 2.25825e+06 -3.74596e+06 -1.65655e+06 -783979 902839
218 3 O 3.55582 36.9349 5.78248 -1.2 -8.87291 -2.80091e+06 -3.6891e+06 -2.01021e+06 -806027 56762.9 -1.14676e+06
219 1 Mg -0.93068 35.6588 1.4948 1.2 -8.75548 -810795 2.47812e+06 4.57989e+06 1.85704e+06 -300879 171226
220 2 Si 0.881882 33.5939 1.4948 2.4 -33.8137 1.01146e+07 9.29206e+06 1.09011e+07 1.40187e+06 1.67614e+06 2.53235e+06
221 3 O 0.859602 31.9807 1.4948 -1.2 -7.33718 -6.19661e+06 -332798 -1.53185e+07 1.15975e+06 -8.50114e+06 2.29965e+06
222 3 O 7.507 34.568 1.4948 -1.2 -9.64282 -4.34271e+06 -754237 -1.63529e+06 -938370 -419577 923177
223 3 O 0.210186 34.3001 0.196716 -1.2 -6.35581 -4.01782e+06 -1.38356e+07 -9.63504e+06 1.53287e+06 -7.94997e+06 -814731
224 3 O 0.184454 34.3001 2.79288 -1.2 -8.86467 -2.04355e+06 -3.88685e+06 -2.22078e+06 -837925 -216443 809791
225 1 Mg 7.07415 37.992 0 1.2 -6.16019 2.56856e+06 2.19487e+06 -3.42594e+06 1.87704e+06 -391509 -1.27527e+06
226 1 Mg 4.36817 42.6997 1.4948 1.2 -8.82364 -1.37769e+06 2.65119e+06 4.31081e+06 -998573 98582.5 -61721.9
227 2 Si 6.16058 40.0155 1.4948 2.4 -33.5703 1.1169e+07 8.13584e+06 1.07132e+07 -359054 1.30827e+06 -1.72302e+06
228 3 O 6.22815 41.6288 1.4948 -1.2 -8.6752 -6.00265e+06 -145698 -6.99668e+06 31022.2 -4.51117e+06 -1.51967e+06
229 3 O 2.53282 39.0415 1.4948 -1.2 -9.53907 -4.11464e+06 -902053 -2.0185e+06 1.72222e+06 -323925 -895287
230 3 O 5.44674 39.3094 0.196716 -1.2 -7.15333 -4.35807e+06 -1.06791e+07 -5.88493e+06 -157995 -5.75712e+06 1.85554e+06
231 1 Mg 7.04922 37.992 2.9896 1.2 -7.94866 4.65196e+06 -1.77141e+06 -550278 1.31753e+06 -1.47306e+06 1.95094e+06
232 3 O 5.42658 39.3094 2.79288 -1.2 -8.82314 -2.19963e+06 -3.66321e+06 -2.18054e+06 1.12413e+06 -263911 -1.18519e+06
233 1 Mg -0.333062 38.0333 4.4844 1.2 -8.78295 -929118 2.3976e+06 3.3947e+06 -431675 -36148.3 88663.9
234 2 Si -2.12255 40.7174 4.4844 2.4 -32.9837 1.16136e+07 8.50612e+06 8.90894e+06 57578 -50629.3 -80135.7
235 3 O -2.19212 39.1042 4.4844 -1.2 -9.4028 -4.07724e+06 -10819.5 -3.82751e+06 420076 -89856.9 -32252.3
236 3 O 1.50676 41.6915 4.4844 -1.2 -9.18008 -3.49759e+06 -2.59366e+06 -3.3003e+06 2.26892e+06 -254539 128001
237 3 O -1.3884 41.4236 3.18632 -1.2 -8.93278 -2.75474e+06 -3.40372e+06 -1.46563e+06 1.15807e+06 100457 -1.39194e+06
238 3 O -1.40713 41.4236 5.78248 -1.2 -8.88259 -2.97095e+06 -3.42449e+06 -1.826e+06 1.25433e+06 -59249.3 1.55248e+06
239 1 Mg 2.01892 40.3665 2.9896 1.2 -8.00468 4.59611e+06 -1.67789e+06 -516155 -1.09342e+06 -1.59966e+06 -1.57558e+06
240 1 Mg 4.83434 40.3252 4.4844 1.2 -8.74019 -618418 2.35453e+06 3.19662e+06 1.25472e+06 -167053 24323.6
241 2 Si 3.02698 42.39 4.4844 2.4 -32.9888 1.1293e+07 8.72916e+06 8.96025e+06 847858 -200924 -165296
242 3 O 3.05433 44.0033 4.4844 -1.2 -9.40918 -3.91788e+06 -131647 -4.02435e+06 570036 -10189.4 130353
243 3 O -3.60077 41.416 4.4844 -1.2 -9.27792 -3.75046e+06 -2.38622e+06 -3.04473e+06 -1.28628e+06 -214114 -3580.65
244 3 O 3.71851 41.6839 3.18632 -1.2 -8.96964 -2.70321e+06 -3.57737e+06 -1.54658e+06 -857409 277150 1.27612e+06
245 1 Mg 2.04077 40.3665 0 1.2 -6.18764 2.14319e+06 2.00929e+06 -3.80734e+06 -1.84644e+06 411106 1.51236e+06
246 3 O 3.70011 41.6839 5.78248 -1.2 -8.90485 -2.80928e+06 -3.63027e+06 -1.90987e+06 -952096 -11162.6 -1.18439e+06
247 1 Mg -0.796865 40.4078 1.4948 1.2 -8.80201 -1.02602e+06 2.55288e+06 4.40324e+06 1.74719e+06 71538.4 -6195.02
248 2 Si 1.01387 38.3429 1.4948 2.4 -33.6609 1.08208e+07 8.52919e+06 1.07484e+07 1.51483e+06 1.47208e+06 2.01597e+06
249 3 O 0.989947 36.7297 1.4948 -1.2 -8.08287 -6.49242e+06 -232172 -1.04296e+07 1.04499e+06 -6.6437e+06 1.86723e+06
250 3 O 7.63988 39.317 1.4948 -1.2 -9.58417 -4.26495e+06 -790995 -1.94355e+06 -934376 -280537 1.0933e+06
251 3 O 0.340253 39.0491 0.196716 -1.2 -7.17071 -4.46401e+06 -1.15974e+07 -5.78725e+06 396497 -5.87304e+06 -1.50097e+06
252 3 O 0.319795 39.0491 2.79288 -1.2 -8.85286 -2.14473e+06 -3.80798e+06 -2.25443e+06 -846097 -232946 908148
253 1 Mg 7.20667 42.741 0 1.2 -6.25464 1.7856e+06 1.96502e+06 -3.7255e+06 2.00125e+06 916906 -2.17234e+06
254 1 Mg 4.50613 47.4487 1.4948 1.2 -8.76613 -1.44926e+06 2.88574e+06 3.85255e+06 -848754 437219 32757.6
255 2 Si 6.29731 44.7645 1.4948 2.4 -33.3773 1.14913e+07 7.69221e+06 1.05023e+07 -244065 885079 -1.56096e+06
256 3 O 6.36567 46.3778 1.4948 -1.2 -9.11263 -5.15753e+06 -253889 -4.93186e+06 185782 -2.68704e+06 -1.30485e+06
257 3 O 2.669 43.7905 1.4948 -1.2 -9.48953 -3.99522e+06 -1.08846e+06 -2.301e+06 1.71938e+06 -202509 -827078
258 3 O 5.58048 44.0584 0.196716 -1.2 -7.85889 -4.32204e+06 -8.0488e+06 -3.45639e+06 328315 -3.7045e+06 2.43176e+06
259 1 Mg 7.1879 42.741 2.9896 1.2 -7.93886 4.61884e+06 -1.75872e+06 -532187 1.27112e+06 -1.58444e+06 1.83428e+06
260 3 O 5.56564 44.0584 2.79288 -1.2 -8.86318 -2.27058e+06 -3.65315e+06 -2.08054e+06 1.13701e+06 -262298 -1.09718e+06
261 1 Mg -0.19105 42.7823 4.4844 1.2 -8.76051 -949490 2.41844e+06 3.35547e+06 -427765 -21461.8 -119782
262 2 Si -1.97909 45.4664 4.4844 2.4 -32.8492 1.13336e+07 8.78914e+06 8.69249e+06 53981.6 -196327 -292661
263 3 O -2.04947 43.8532 4.4844 -1.2 -9.43998 -3.98218e+06 -76550.2 -3.79562e+06 475237 7116.58 116798
264 3 O 1.65063 46.4405 4.4844 -1.2 -9.27379 -3.44011e+06 -2.76649e+06 -3.04135e+06 2.28179e+06 -221873 195111
265 3 O -1.24745 46.1726 3.18632 -1.2 -8.97312 -2.62518e+06 -3.57625e+06 -1.46286e+06 1.15729e+06 111489 -1.33262e+06
266 3 O -1.26044 46.1726 5.78248 -1.2 -9.00819 -2.78785e+06 -3.55209e+06 -1.6228e+06 1.21658e+06 68861.7 1.6605e+06
267 1 Mg 2.15896 45.1155 2.9896 1.2 -7.9675 4.52892e+06 -1.56051e+06 -610219 -1.05929e+06 -1.66655e+06 -1.65119e+06
268 1 Mg 4.97763 45.0742 4.4844 1.2 -8.69541 -759247 2.45719e+06 3.16266e+06 1.26366e+06 -92495.8 -105213
269 2 Si 3.1711 47.139 4.4844 2.4 -32.8229 1.09729e+07 9.20965e+06 8.53474e+06 859332 -16563.7 -237828