ITEM: TIMESTEP
72200
ITEM: NUMBER OF ATOMS
10500
ITEM: BOX BOUNDS xy xz yz pp pp pp
0.0000000000000000e+00 1.5297749999999999e+01 5.0992499999999996e+00
0.0000000000000000e+00 1.1872499999999999e+02 0.0000000000000000e+00
0.0000000000000000e+00 8.9688000000000002e+01 0.0000000000000000e+00
ITEM: ATOMS id type element xu yu zu q c_pe c_s[1] c_s[2] c_s[3] c_s[4] c_s[5] c_s[6]
1 1 Mg 6.2404 -6.37941e-06 0 1.2 -4.77219 8.37943e+06 -1.7025e+06 -6.29276e+06 -15620.7 2.60721e+06 -482774
2 1 Mg 3.46349 4.70768 1.4948 1.2 -8.90331 366834 2.84947e+06 4.14444e+06 -944455 -606851 -348536
3 2 Si 5.2885 2.02354 1.4948 2.4 -35.9987 1.11448e+07 1.13556e+07 1.09682e+07 8.85062e+06 705155 -3.8481e+06
4 3 O 5.33628 3.63678 1.4948 -1.2 -4.32157 -1.42966e+06 -1.63569e+06 -3.35094e+07 -323534 3.80881e+06 -3.45826e+06
5 3 O 1.67294 1.04952 1.4948 -1.2 -0.696263 -2.09479e+07 -7.95441e+07 -1.88805e+06 -2.41353e+07 -111793 292736
6 3 O 4.59532 1.31737 0.196716 -1.2 -2.68608 -2.5012e+06 -6.86238e+06 -3.03108e+07 -6.02444e+06 6.27304e+06 -2.30714e+06
7 1 Mg 6.18956 -6.37941e-06 2.9896 1.2 -5.32531 2.13645e+06 -2.80842e+07 -3.05562e+06 -8.85684e+06 2.50738e+06 3.66513e+06
8 3 O 4.55118 1.31737 2.79288 -1.2 -7.12325 -486034 -4.86952e+06 -2.97562e+06 -2.96962e+06 -3.4428e+06 -731674
9 1 Mg -1.20682 0.0413099 4.4844 1.2 8.4805 -3.01619e+07 -9.32586e+07 -270651 -2.85424e+07 -1.28458e+06 -311165
10 2 Si -3.0337 2.72544 4.4844 2.4 -34.0051 1.543e+07 7.39085e+06 8.03294e+06 1.45586e+06 -9503.04 -1.47747e+06
11 3 O -3.08099 1.11221 4.4844 -1.2 -9.1781 -6.70638e+06 -136713 -2.17143e+06 -1.14644e+06 -238331 697936
12 3 O 0.582463 3.69946 4.4844 -1.2 -8.57953 -4.00698e+06 -5.70091e+06 -2.52629e+06 -604030 -122793 356332
13 3 O -2.29524 3.43162 3.18632 -1.2 -8.637 -4.83106e+06 -2.71049e+06 -460105 1.11224e+06 -775372 -509736
14 3 O -2.34216 3.43162 5.78248 -1.2 -8.38117 -4.51353e+06 -3.4554e+06 -1.5164e+06 915250 892353 1.78281e+06
15 1 Mg 1.12778 2.37449 2.9896 1.2 -7.98655 5.85472e+06 -1.46853e+06 -909773 -3.25753e+06 -4.21354e+06 -2.69384e+06
16 1 Mg 3.92855 2.33318 4.4844 1.2 -8.84864 -3.48305e+06 5.06948e+06 4.61515e+06 1.44077e+06 394136 108095
17 2 Si 2.09341 4.39804 4.4844 2.4 -33.194 1.35159e+07 7.16345e+06 8.42654e+06 217502 -89188.1 -192315
18 3 O 2.09991 6.01128 4.4844 -1.2 -9.01261 -4.81628e+06 -56008.9 -3.84863e+06 586326 -199228 197925
19 3 O -4.52137 3.42402 4.4844 -1.2 -8.7301 -3.47178e+06 -3.05104e+06 -3.59101e+06 -2.38461e+06 -933554 447905
20 3 O 2.80834 3.69187 3.18632 -1.2 -8.9246 -2.82344e+06 -2.99131e+06 -210317 444534 -535936 -86902.2
21 1 Mg 1.17857 2.37449 0 1.2 -5.47384 -6374.6 -1.46416e+07 -6.66443e+06 6.52382e+06 1.22123e+06 4.15864e+06
22 3 O 2.76143 3.69187 5.78248 -1.2 -8.99309 -3.45333e+06 -2.59869e+06 -951780 467212 -212019 435364
23 1 Mg -1.67381 2.41581 1.4948 1.2 -7.96179 2.13601e+06 -29745.8 3.91658e+06 1.34983e+06 -591983 594465
24 2 Si 0.16286 0.350945 1.4948 2.4 -25.2695 -7.04072e+06 1.27174e+07 1.11075e+07 1.58569e+06 2.82224e+06 461400
25 3 O 0.15972 -1.26229 1.4948 -1.2 -4.4072 -1.12419e+07 -8.089e+06 -2.8894e+07 -5.59586e+06 -8.52429e+06 -2.34876e+06
26 3 O 6.77654 1.32496 1.4948 -1.2 -9.98402 -6.27817e+06 1.59435e+06 -1.26462e+06 -632287 -656256 1.44802e+06
27 3 O -0.508028 1.05712 0.196716 -1.2 -9.18769 -440066 -4.84562e+06 -526160 -553354 166657 -4.17742e+06
28 3 O -0.552171 1.05712 2.79288 -1.2 -6.41272 -5.929e+06 -4.75217e+06 -2.45315e+07 1.43225e+06 -6.75163e+06 -5.08982e+06
29 1 Mg 6.31713 4.74899 0 1.2 -5.35284 1.00085e+06 -1.27424e+07 -6.23458e+06 -7.31417e+06 1.41245e+06 -4.06477e+06
30 1 Mg 3.54847 9.45668 1.4948 1.2 -8.88097 1.1559e+06 1.6177e+06 4.53001e+06 -973704 -923425 -837440
31 2 Si 5.36879 6.77254 1.4948 2.4 -35.2726 8.84412e+06 1.21455e+07 1.14715e+07 1.64165e+06 156998 -2.85005e+06
32 3 O 5.41937 8.38578 1.4948 -1.2 -4.2314 -1.18064e+06 -887564 -3.5255e+07 777544 1.1038e+06 -3.74623e+06
33 3 O 1.75158 5.79852 1.4948 -1.2 -9.04579 -4.75174e+06 -2.46296e+06 -1.30515e+06 1.97019e+06 -1.60249e+06 -914765
34 3 O 4.67421 6.06637 0.196716 -1.2 -3.31966 -585454 -1.02138e+07 -3.13621e+07 -1.99312e+06 1.30367e+06 -3.96653e+06
35 1 Mg 6.26654 4.74899 2.9896 1.2 -8.48224 4.77588e+06 -1.52039e+06 -95174.8 1.79014e+06 -844319 1.51152e+06
36 3 O 4.63043 6.06637 2.79288 -1.2 -8.36749 -2.37323e+06 -4.04361e+06 -2.13398e+06 959323 -141013 -1.04654e+06
37 1 Mg -1.12976 4.79031 4.4844 1.2 -9.2365 158966 2.96028e+06 2.5464e+06 -659271 -557287 -494162
38 2 Si -2.9517 7.47444 4.4844 2.4 -33.9647 1.30035e+07 8.8938e+06 8.6735e+06 153323 -85969.4 -854823
39 3 O -3.00198 5.86121 4.4844 -1.2 -8.92953 -4.71461e+06 -275254 -3.72926e+06 15108.8 -154081 467274
40 3 O 0.666315 8.44846 4.4844 -1.2 -8.68375 -4.30292e+06 -2.51327e+06 -3.35237e+06 2.12298e+06 -464706 403034
41 3 O -2.21213 8.18062 3.18632 -1.2 -8.54342 -3.81452e+06 -3.3046e+06 -735968 1.07302e+06 -290158 -1.00737e+06
42 3 O -2.25864 8.18062 5.78248 -1.2 -8.38112 -3.91298e+06 -3.67635e+06 -1.59243e+06 970279 -41324.7 1.64625e+06
43 1 Mg 1.20893 7.12349 2.9896 1.2 -8.50794 4.96439e+06 -1.62044e+06 -163246 -1.28871e+06 -1.33022e+06 -2.06032e+06
44 1 Mg 4.00982 7.08218 4.4844 1.2 -9.20863 29808.7 2.53239e+06 3.11276e+06 957402 -223435 -281006
45 2 Si 2.17861 9.14704 4.4844 2.4 -34.0403 1.30932e+07 8.63451e+06 8.93505e+06 523722 -97156.2 -687151
46 3 O 2.18828 10.7603 4.4844 -1.2 -8.83006 -4.85573e+06 68930.5 -4.20869e+06 454493 -164969 471197
47 3 O -4.43805 8.17302 4.4844 -1.2 -8.72679 -4.26317e+06 -2.55343e+06 -3.24195e+06 -1.52414e+06 -521989 366455
48 3 O 2.89193 8.44087 3.18632 -1.2 -8.55333 -3.68654e+06 -3.47573e+06 -828449 -894629 -230282 1.6979e+06
49 1 Mg 1.25915 7.12349 0 1.2 -5.79461 1.74899e+06 -7.55507e+06 -6.35621e+06 5.89846e+06 1.38604e+06 2.11371e+06
50 3 O 2.84547 8.44087 5.78248 -1.2 -8.39259 -3.88566e+06 -3.80196e+06 -1.66935e+06 -824074 -121303 -821080
51 1 Mg -1.59284 7.16481 1.4948 1.2 -8.74756 1.61073e+06 1.37503e+06 4.3031e+06 1.47674e+06 -927852 -120552
52 2 Si 0.240329 5.09994 1.4948 2.4 -34.9331 9.73336e+06 1.12032e+07 1.0981e+07 -1.93756e+06 -1.07291e+06 1.07545e+06
53 3 O 0.234538 3.48671 1.4948 -1.2 -4.8303 -2.43329e+06 219955 -3.35829e+07 390349 5.19009e+06 4.39754e+06
54 3 O 6.85564 6.07396 1.4948 -1.2 -9.11137 -5.13763e+06 -1.90038e+06 -1.33824e+06 -1.34571e+06 -1.82279e+06 1.61302e+06
55 3 O -0.429565 5.80612 0.196716 -1.2 -3.57856 -1.38259e+06 -8.87379e+06 -3.14461e+07 1.83515e+06 1.18933e+06 5.03485e+06
56 3 O -0.473377 5.80612 2.79288 -1.2 -8.46903 -2.9224e+06 -3.64488e+06 -1.92461e+06 -804094 340303 1.70585e+06
57 1 Mg 6.40169 9.49799 0 1.2 -5.81702 2.44368e+06 -6.51916e+06 -6.53991e+06 -5.49362e+06 987596 -2.97921e+06
58 1 Mg 3.64209 14.2057 1.4948 1.2 -8.98331 1.10795e+06 1.60878e+06 4.70996e+06 -1.03057e+06 -1.00026e+06 -920613
59 2 Si 5.45748 11.5215 1.4948 2.4 -35.4113 9.45794e+06 1.13335e+07 1.1868e+07 872287 319183 -3.39067e+06
60 3 O 5.51101 13.1348 1.4948 -1.2 -4.2165 -1.47355e+06 -680734 -3.50129e+07 472844 -2.51665e+06 -3.68999e+06
61 3 O 1.83851 10.5475 1.4948 -1.2 -9.0057 -5.11058e+06 -1.70711e+06 -1.49457e+06 1.53878e+06 -1.58334e+06 -528687
62 3 O 4.7611 10.8154 0.196716 -1.2 -3.05836 -356668 -1.13402e+07 -3.21062e+07 -2.45902e+06 -1.76355e+06 -3.70929e+06
63 1 Mg 6.35203 9.49799 2.9896 1.2 -8.53911 5.03362e+06 -1.78543e+06 978.589 1.31059e+06 -1.18037e+06 1.48276e+06
64 3 O 4.71833 10.8154 2.79288 -1.2 -8.29808 -2.77813e+06 -3.55807e+06 -2.33665e+06 1.07864e+06 49660.6 -729555
65 1 Mg -1.0438 9.53931 4.4844 1.2 -9.28986 127002 2.26246e+06 3.32633e+06 -520991 -296664 -466881
66 2 Si -2.8604 12.2234 4.4844 2.4 -33.9887 1.33909e+07 8.32669e+06 8.89953e+06 -40748.4 -28575.8 -1.46072e+06
67 3 O -2.91391 10.6102 4.4844 -1.2 -8.86442 -4.94257e+06 155868 -4.03502e+06 212964 -199456 565669
68 3 O 0.7596 13.1975 4.4844 -1.2 -8.64939 -4.19279e+06 -2.53957e+06 -3.48932e+06 2.1232e+06 -591261 683995
69 3 O -2.12001 12.9296 3.18632 -1.2 -8.50769 -3.86164e+06 -3.24638e+06 -804755 1.14122e+06 -267355 -834415
70 3 O -2.16532 12.9296 5.78248 -1.2 -8.45926 -3.9654e+06 -3.49725e+06 -1.68309e+06 1.01278e+06 -189613 2.21999e+06
71 1 Mg 1.29891 11.8725 2.9896 1.2 -8.5913 5.06271e+06 -1.77475e+06 23065.7 -1.1667e+06 -1.20521e+06 -2.29687e+06
72 1 Mg 4.10033 11.8312 4.4844 1.2 -9.27555 236202 2.24422e+06 3.30222e+06 1.0599e+06 -384698 -535741
73 2 Si 2.27333 13.896 4.4844 2.4 -34.0492 1.28462e+07 8.67377e+06 9.15351e+06 649831 -99435 -1.18243e+06
74 3 O 2.28634 15.5093 4.4844 -1.2 -8.88299 -4.7064e+06 -70147.7 -4.14311e+06 493987 -131226 577072
75 3 O -4.34533 12.922 4.4844 -1.2 -8.75277 -4.44747e+06 -2.34586e+06 -3.21818e+06 -1.41345e+06 -374154 639912
76 3 O 2.98455 13.1899 3.18632 -1.2 -8.51202 -3.73495e+06 -3.36304e+06 -983834 -946252 -110415 1.93313e+06
77 1 Mg 1.34779 11.8725 0 1.2 -6.10863 3.72027e+06 -2.97749e+06 -6.5036e+06 3.57081e+06 813703 988508
78 3 O 2.93934 13.1899 5.78248 -1.2 -8.35769 -3.68339e+06 -3.73126e+06 -1.97438e+06 -945544 -85228.2 -584701
79 1 Mg -1.50344 11.9138 1.4948 1.2 -8.91764 1.44523e+06 1.52751e+06 4.57242e+06 1.57138e+06 -930601 -218114
80 2 Si 0.326006 9.84894 1.4948 2.4 -35.3502 9.37945e+06 1.14461e+07 1.17083e+07 -581807 122595 1.20925e+06
81 3 O 0.317364 8.23571 1.4948 -1.2 -4.23701 -1.29912e+06 -757565 -3.53872e+07 -134804 1.17659e+06 4.65913e+06
82 3 O 6.94307 10.823 1.4948 -1.2 -9.04641 -5.29389e+06 -1.51896e+06 -1.39301e+06 -983939 -1.52769e+06 1.64742e+06
83 3 O -0.343122 10.5551 0.196716 -1.2 -3.15494 -611358 -1.08029e+07 -3.21983e+07 2.45181e+06 -2.04545e+06 5.07079e+06
84 3 O -0.385966 10.5551 2.79288 -1.2 -8.32664 -2.80115e+06 -3.60897e+06 -2.36169e+06 -886276 71351.3 1.67861e+06
85 1 Mg 6.49448 14.247 0 1.2 -6.09747 4.2759e+06 -2.19006e+06 -6.67963e+06 -2.97181e+06 250682 -2.15615e+06
86 1 Mg 3.74457 18.9547 1.4948 1.2 -9.0404 898681 1.78355e+06 4.75875e+06 -1.09255e+06 -1.00448e+06 -639541
87 2 Si 5.55495 16.2705 1.4948 2.4 -35.4081 9.74687e+06 1.10716e+07 1.18544e+07 557273 749986 -3.34803e+06
88 3 O 5.6115 17.8838 1.4948 -1.2 -4.53892 -2.46515e+06 -622616 -3.23316e+07 55853.8 -6.04249e+06 -3.7129e+06
89 3 O 1.93416 15.2965 1.4948 -1.2 -9.01677 -5.21032e+06 -1.37511e+06 -1.45961e+06 1.53551e+06 -1.36624e+06 -458070
90 3 O 4.85636 15.5644 0.196716 -1.2 -3.02651 -413849 -1.29887e+07 -3.06188e+07 -3.04832e+06 -5.10946e+06 -3.14862e+06
91 1 Mg 6.44662 14.247 2.9896 1.2 -8.51923 5.18473e+06 -1.80395e+06 -164381 1.29253e+06 -1.21819e+06 1.37357e+06
92 3 O 4.81537 15.5644 2.79288 -1.2 -8.30114 -2.76192e+06 -3.6274e+06 -2.30949e+06 1.05223e+06 47865.7 -709386
93 1 Mg -0.948271 14.2883 4.4844 1.2 -9.24193 -9388.46 2.41015e+06 3.23076e+06 -534206 -135818 -629431
94 2 Si -2.75928 16.9724 4.4844 2.4 -33.8393 1.31848e+07 8.66219e+06 8.5337e+06 -5559.07 47844.6 -861068
95 3 O -2.81617 15.3592 4.4844 -1.2 -8.97029 -4.92503e+06 -24163.5 -3.68633e+06 257293 -204422 512760
96 3 O 0.862762 17.9465 4.4844 -1.2 -8.70877 -4.11966e+06 -2.62975e+06 -3.39631e+06 2.25265e+06 -499626 515387
97 3 O -2.0185 17.6786 3.18632 -1.2 -8.52361 -3.76073e+06 -3.34883e+06 -797381 1.18446e+06 -207547 -1.10911e+06
98 3 O -2.06164 17.6786 5.78248 -1.2 -8.51811 -3.71222e+06 -3.63847e+06 -1.73183e+06 1.15745e+06 -263987 1.80849e+06
99 1 Mg 1.39817 16.6215 2.9896 1.2 -8.55544 5.09986e+06 -1.70082e+06 -147539 -1.18643e+06 -1.22428e+06 -2.18514e+06
100 1 Mg 4.20062 16.5802 4.4844 1.2 -9.19532 122555 2.40499e+06 3.12843e+06 1.20026e+06 -415079 -493570
101 2 Si 2.37796 18.645 4.4844 2.4 -33.8954 1.29411e+07 8.75364e+06 8.72647e+06 755517 -188137 -828870
102 3 O 2.39434 20.2583 4.4844 -1.2 -8.95134 -4.88046e+06 -31255.1 -3.89762e+06 488551 -126689 380301
103 3 O -4.24274 17.671 4.4844 -1.2 -8.81849 -4.37743e+06 -2.48942e+06 -3.03716e+06 -1.48688e+06 -424648 336562
104 3 O 3.08659 17.9389 3.18632 -1.2 -8.54717 -3.72136e+06 -3.44665e+06 -899037 -968938 -15399.2 1.74983e+06
105 1 Mg 1.44478 16.6215 0 1.2 -6.25081 5.46516e+06 -48613.1 -6.50689e+06 1.39592e+06 -66143.7 381149
106 3 O 3.0436 17.9389 5.78248 -1.2 -8.50342 -3.62523e+06 -3.82149e+06 -1.67913e+06 -1.06304e+06 -9030.93 -735021
107 1 Mg -1.40524 16.6628 1.4948 1.2 -8.99846 1.26536e+06 1.69785e+06 4.6638e+06 1.67245e+06 -928814 -133426
108 2 Si 0.420358 14.5979 1.4948 2.4 -35.4303 9.56251e+06 1.12435e+07 1.18404e+07 -142786 613054 1.28779e+06
109 3 O 0.408732 12.9847 1.4948 -1.2 -4.19722 -1.45724e+06 -668515 -3.52064e+07 219730 -2.58267e+06 4.88036e+06
110 3 O 7.03923 15.572 1.4948 -1.2 -9.06575 -5.38853e+06 -1.23305e+06 -1.31192e+06 -946202 -1.31687e+06 1.58547e+06
111 3 O -0.248332 15.3041 0.196716 -1.2 -3.12913 -737939 -1.25207e+07 -3.06507e+07 3.26858e+06 -5.43047e+06 4.57242e+06
112 3 O -0.289436 15.3041 2.79288 -1.2 -8.32052 -2.72368e+06 -3.74138e+06 -2.35895e+06 -841592 -27906.4 1.64723e+06
113 1 Mg 6.59566 18.996 0 1.2 -6.22313 5.60341e+06 430253 -6.3829e+06 -908067 -659185 -1.29085e+06
114 1 Mg 3.85574 23.7037 1.4948 1.2 -9.06563 547406 2.0575e+06 4.73663e+06 -1.19148e+06 -924199 -542760
115 2 Si 5.66125 21.0195 1.4948 2.4 -35.2759 1.00255e+07 1.07503e+07 1.17474e+07 215370 1.24868e+06 -2.93766e+06
116 3 O 5.72074 22.6328 1.4948 -1.2 -5.18174 -4.03855e+06 -581903 -2.74275e+07 -217579 -8.53423e+06 -3.37006e+06
117 3 O 2.03867 20.0455 1.4948 -1.2 -9.07795 -5.23986e+06 -1.15784e+06 -1.34666e+06 1.57185e+06 -1.12051e+06 -641287
118 3 O 4.96004 20.3134 0.196716 -1.2 -3.3783 -1.06606e+06 -1.44738e+07 -2.6731e+07 -3.20378e+06 -7.90701e+06 -2.42949e+06
119 1 Mg 6.55057 18.996 2.9896 1.2 -8.49203 5.18269e+06 -1.77097e+06 -238327 1.32568e+06 -1.17965e+06 1.67822e+06
120 3 O 4.92172 20.3134 2.79288 -1.2 -8.31292 -2.7208e+06 -3.66452e+06 -2.32913e+06 1.03514e+06 -99021.2 -954575
121 1 Mg -0.84282 19.0373 4.4844 1.2 -9.23466 -180077 2.48699e+06 3.30515e+06 -638689 -237718 -298608
122 2 Si -2.64823 21.7214 4.4844 2.4 -34.0056 1.28302e+07 8.50161e+06 9.32683e+06 -12092.9 44508.4 -352714
123 3 O -2.70847 20.1082 4.4844 -1.2 -8.92491 -4.75383e+06 -44865.6 -3.89341e+06 321298 -215761 131843
124 3 O 0.97581 22.6955 4.4844 -1.2 -8.76068 -4.267e+06 -2.54064e+06 -3.24722e+06 2.19912e+06 -300023 315759
125 3 O -1.9076 22.4276 3.18632 -1.2 -8.51339 -3.60634e+06 -3.3111e+06 -1.04038e+06 1.1824e+06 -59690.8 -1.22155e+06
126 3 O -1.9475 22.4276 5.78248 -1.2 -8.26167 -3.48969e+06 -3.54931e+06 -2.60096e+06 1.25216e+06 -9966.38 1.55531e+06
127 1 Mg 1.50678 21.3705 2.9896 1.2 -8.49902 5.24773e+06 -1.7124e+06 -374224 -1.17481e+06 -1.31398e+06 -1.9561e+06
128 1 Mg 4.31086 21.3292 4.4844 1.2 -9.18714 175883 2.31136e+06 3.15932e+06 1.25336e+06 -176913 -269989
129 2 Si 2.49243 23.394 4.4844 2.4 -33.7588 1.31371e+07 8.61088e+06 8.45768e+06 746134 -198754 -451819
130 3 O 2.51204 25.0073 4.4844 -1.2 -9.03681 -4.76696e+06 -2643.39 -3.91083e+06 499065 -79796.3 240081
131 3 O -4.13026 22.42 4.4844 -1.2 -8.76925 -4.30783e+06 -2.38495e+06 -3.28152e+06 -1.43267e+06 -620423 199113
132 3 O 3.19799 22.6879 3.18632 -1.2 -8.58806 -3.73413e+06 -3.45623e+06 -864678 -930986 14443.4 1.60205e+06
133 1 Mg 1.5501 21.3705 0 1.2 -6.25769 6.32586e+06 1.62138e+06 -6.24856e+06 -68291 -992630 146452
134 3 O 3.1583 22.6879 5.78248 -1.2 -8.58037 -3.82891e+06 -3.70869e+06 -1.52653e+06 -836062 -195767 -961815
135 1 Mg -1.29822 21.4118 1.4948 1.2 -9.04962 939304 1.91274e+06 4.75258e+06 1.7905e+06 -926993 -11438.9
136 2 Si 0.523568 19.3469 1.4948 2.4 -35.3362 9.88684e+06 1.09707e+07 1.16661e+07 259495 989338 1.87285e+06
137 3 O 0.508934 17.7337 1.4948 -1.2 -4.52345 -2.48508e+06 -613571 -3.24805e+07 690591 -6.09342e+06 4.51378e+06
138 3 O 7.14425 20.321 1.4948 -1.2 -9.11241 -5.30729e+06 -1.01592e+06 -1.34394e+06 -938148 -1.10212e+06 1.31408e+06
139 3 O -0.145107 20.0531 0.196716 -1.2 -3.48411 -1.48228e+06 -1.41272e+07 -2.66951e+07 3.70172e+06 -8.23145e+06 3.39167e+06
140 3 O -0.183601 20.0531 2.79288 -1.2 -8.33562 -2.67598e+06 -3.80067e+06 -2.37139e+06 -794439 5609.75 1.35987e+06
141 1 Mg 6.70502 23.745 0 1.2 -6.26034 5.98996e+06 1.89657e+06 -5.79236e+06 404778 -1.47155e+06 -916913
142 1 Mg 3.97493 28.4527 1.4948 1.2 -9.0718 52598 2.29162e+06 4.77458e+06 -1.23202e+06 -791285 -280038
143 2 Si 5.77602 25.7685 1.4948 2.4 -35.0034 1.04113e+07 1.03748e+07 1.13878e+07 -157886 1.56746e+06 -2.99266e+06
144 3 O 5.83821 27.3818 1.4948 -1.2 -6.06058 -5.65059e+06 -527288 -2.12277e+07 -323324 -9.28943e+06 -2.79897e+06
145 3 O 2.15175 24.7945 1.4948 -1.2 -9.16002 -5.1198e+06 -1.04787e+06 -1.31158e+06 1.60624e+06 -899843 -577470
146 3 O 5.07184 25.0624 0.196716 -1.2 -4.06269 -2.23072e+06 -1.52732e+07 -2.10497e+07 -2.76643e+06 -9.41465e+06 -1.08503e+06
147 1 Mg 6.66374 23.745 2.9896 1.2 -8.44715 5.12078e+06 -1.78813e+06 -228223 1.29104e+06 -1.17458e+06 1.63963e+06
148 3 O 5.03707 25.0624 2.79288 -1.2 -8.37854 -2.60241e+06 -3.74723e+06 -2.30124e+06 1.12576e+06 -194994 -905384
149 1 Mg -0.727559 23.7863 4.4844 1.2 -9.21698 -244873 2.35705e+06 3.46245e+06 -458686 -401188 -342210
150 2 Si -2.5277 26.4704 4.4844 2.4 -33.6433 1.24934e+07 8.80838e+06 8.76641e+06 -35518.3 -186702 -853362
151 3 O -2.59107 24.8572 4.4844 -1.2 -8.96746 -4.55412e+06 -23971.6 -4.05048e+06 396915 -134621 378263
152 3 O 1.09817 27.4445 4.4844 -1.2 -8.93903 -3.92854e+06 -2.74645e+06 -3.11546e+06 2.15051e+06 -451066 304795
153 3 O -1.78784 27.1766 3.18632 -1.2 -8.64902 -3.43949e+06 -3.50718e+06 -860113 1.15627e+06 28786.8 -1.17864e+06
154 3 O -1.82343 27.1766 5.78248 -1.2 -8.69136 -3.38853e+06 -3.6923e+06 -1.56756e+06 1.12233e+06 -43038.5 1.90909e+06
155 1 Mg 1.62435 26.1195 2.9896 1.2 -8.38667 5.15508e+06 -1.6438e+06 -527229 -1.11636e+06 -1.32601e+06 -1.91656e+06
156 1 Mg 4.43064 26.0782 4.4844 1.2 -9.07792 -68341 2.40228e+06 3.13709e+06 1.13708e+06 -176942 -216890
157 2 Si 2.61607 28.143 4.4844 2.4 -33.4284 1.21966e+07 9.16338e+06 8.31323e+06 809512 -65744.2 -194038
158 3 O 2.63853 29.7563 4.4844 -1.2 -9.21357 -4.27561e+06 -358972 -3.77026e+06 558381 -138855 -174707
159 3 O -4.00841 27.169 4.4844 -1.2 -8.95748 -4.02826e+06 -2.61193e+06 -3.0555e+06 -1.2592e+06 -387646 273433
160 3 O 3.3182 27.4369 3.18632 -1.2 -8.69221 -3.41623e+06 -3.62839e+06 -924052 -896830 95973.3 1.49192e+06
161 1 Mg 1.66335 26.1195 0 1.2 -6.29627 6.07887e+06 2.29582e+06 -5.39491e+06 -891409 -1.59888e+06 -145503
162 3 O 3.28288 27.4369 5.78248 -1.2 -8.73414 -3.2918e+06 -3.91554e+06 -1.51363e+06 -921545 -167889 -1.013e+06
163 1 Mg -1.18278 26.1608 1.4948 1.2 -9.05706 536123 2.18818e+06 4.69998e+06 1.89867e+06 -833984 -164463
164 2 Si 0.635424 24.0959 1.4948 2.4 -35.1056 1.02767e+07 1.06488e+07 1.12962e+07 775516 1.3144e+06 1.86045e+06
165 3 O 0.617906 22.4827 1.4948 -1.2 -5.17826 -4.13545e+06 -572987 -2.74805e+07 1.01324e+06 -8.51214e+06 3.96222e+06
166 3 O 7.25781 25.07 1.4948 -1.2 -9.19383 -5.16361e+06 -923037 -1.33107e+06 -924895 -858949 1.38449e+06
167 3 O -0.0337363 24.8021 0.196716 -1.2 -4.15999 -2.63686e+06 -1.52223e+07 -2.09505e+07 3.4845e+06 -9.65111e+06 2.22177e+06
168 3 O -0.0687235 24.8021 2.79288 -1.2 -8.40876 -2.60644e+06 -3.85851e+06 -2.32097e+06 -866797 -24365.5 1.37169e+06
169 1 Mg 6.82195 28.494 0 1.2 -6.34938 5.51716e+06 2.29487e+06 -4.69572e+06 1.16087e+06 -1.82316e+06 -725696
170 1 Mg 4.10106 33.2017 1.4948 1.2 -9.0521 -429379 2.34193e+06 4.83423e+06 -1.20653e+06 -554107 415455
171 2 Si 5.89839 30.5175 1.4948 2.4 -34.6542 1.09031e+07 9.64294e+06 1.11515e+07 -316737 1.62605e+06 -1.87126e+06
172 3 O 5.96289 32.1308 1.4948 -1.2 -6.99874 -6.67341e+06 -290624 -1.52827e+07 -301196 -8.42361e+06 -2.81013e+06
173 3 O 2.27266 29.5435 1.4948 -1.2 -9.23858 -4.8917e+06 -934875 -1.47909e+06 1.66099e+06 -718793 -896891
174 3 O 5.19102 29.8114 0.196716 -1.2 -4.94455 -3.54128e+06 -1.46952e+07 -1.51018e+07 -1.94266e+06 -9.25563e+06 -95802.1
175 1 Mg 6.78546 28.494 2.9896 1.2 -8.27901 5.00984e+06 -1.58239e+06 -587083 1.29527e+06 -1.33368e+06 1.81452e+06
176 3 O 5.16061 29.8114 2.79288 -1.2 -8.50801 -2.41516e+06 -3.89072e+06 -2.17872e+06 1.1148e+06 -179569 -1.30982e+06
177 1 Mg -0.603205 28.5353 4.4844 1.2 -8.94947 -529545 2.7206e+06 2.94648e+06 -424135 -163447 -159826
178 2 Si -2.39877 31.2194 4.4844 2.4 -33.2756 1.21257e+07 9.09447e+06 8.26448e+06 95204.6 -243298 1.09e+06
179 3 O -2.46483 29.6062 4.4844 -1.2 -9.24823 -4.35416e+06 -437834 -3.39197e+06 384146 -32811.7 -136959
180 3 O 1.22864 32.1935 4.4844 -1.2 -9.03835 -3.78062e+06 -2.6795e+06 -3.1662e+06 2.30756e+06 -434580 -550901
181 3 O -1.66032 31.9256 3.18632 -1.2 -8.74105 -3.25045e+06 -3.46436e+06 -1.01972e+06 1.1568e+06 93877.2 -1.97204e+06
182 3 O -1.69072 31.9256 5.78248 -1.2 -8.81904 -3.18956e+06 -3.64025e+06 -1.60001e+06 1.17299e+06 53503.6 561130
183 1 Mg 1.7499 30.8685 2.9896 1.2 -8.25711 4.98219e+06 -1.56407e+06 -635047 -1.14557e+06 -1.34603e+06 -1.29287e+06
184 1 Mg 4.55894 30.8272 4.4844 1.2 -8.91748 -457056 2.66293e+06 3.00904e+06 1.23885e+06 -258410 415939
185 2 Si 2.7476 32.892 4.4844 2.4 -33.3066 1.19707e+07 8.78307e+06 8.7305e+06 762145 -85703.9 1.26667e+06
186 3 O 2.77235 34.5053 4.4844 -1.2 -9.23921 -4.30445e+06 -41708.9 -3.99711e+06 588543 -108675 -651047
187 3 O -3.87837 31.918 4.4844 -1.2 -9.08666 -3.9062e+06 -2.59431e+06 -2.98381e+06 -1.37426e+06 -311305 -663044
188 3 O 3.44611 32.1859 3.18632 -1.2 -8.77256 -3.18703e+06 -3.59613e+06 -1.14674e+06 -880057 172139 790502
189 1 Mg 1.7837 30.8685 0 1.2 -6.3755 5.03721e+06 2.27463e+06 -4.2658e+06 -1.36732e+06 -1.51958e+06 436806
190 3 O 3.41602 32.1859 5.78248 -1.2 -8.81513 -2.97037e+06 -3.8864e+06 -1.69723e+06 -943772 -73591.6 -1.89563e+06
191 1 Mg -1.05984 30.9098 1.4948 1.2 -9.04916 63841.6 2.32596e+06 4.72004e+06 1.90782e+06 -613791 304433
192 2 Si 0.755243 28.8449 1.4948 2.4 -34.7856 1.06769e+07 1.00897e+07 1.10272e+07 1.14646e+06 1.63039e+06 2.23234e+06
193 3 O 0.735127 27.2317 1.4948 -1.2 -6.05757 -5.75264e+06 -504294 -2.12912e+07 1.15913e+06 -9.31938e+06 3.33437e+06
194 3 O 7.37914 29.819 1.4948 -1.2 -9.28363 -4.99662e+06 -823009 -1.42186e+06 -937482 -608883 1.00511e+06
195 3 O 0.0850649 29.5511 0.196716 -1.2 -5.01204 -3.83612e+06 -1.50508e+07 -1.49897e+07 2.70733e+06 -9.4609e+06 586021
196 3 O 0.0543974 29.5511 2.79288 -1.2 -8.55275 -2.45757e+06 -4.03034e+06 -2.12026e+06 -844641 -164128 932956
197 1 Mg 6.94543 33.243 0 1.2 -6.40748 4.29679e+06 2.20696e+06 -3.62079e+06 1.60486e+06 -1.47373e+06 -325752
198 1 Mg 4.23267 37.9507 1.4948 1.2 -8.91814 -997136 2.71077e+06 4.40404e+06 -1.13351e+06 -239710 805046
199 2 Si 6.02709 35.2665 1.4948 2.4 -34.2135 1.12857e+07 8.75367e+06 1.1002e+07 -400053 1.5331e+06 -613493
200 3 O 6.09339 36.8798 1.4948 -1.2 -7.92301 -6.71387e+06 -280650 -1.02638e+07 -142516 -6.57379e+06 -2.69964e+06
201 3 O 2.40018 34.2925 1.4948 -1.2 -9.32202 -4.65352e+06 -780386 -1.78891e+06 1.70748e+06 -534941 -1.47138e+06
202 3 O 5.31645 34.5604 0.196716 -1.2 -5.99023 -4.40306e+06 -1.29851e+07 -9.83716e+06 -957563 -7.78855e+06 448825
203 1 Mg 6.91449 33.243 2.9896 1.2 -8.18964 4.94519e+06 -1.7967e+06 -442950 1.3237e+06 -1.40913e+06 2.51427e+06
204 3 O 5.291 34.5604 2.79288 -1.2 -8.59982 -2.3877e+06 -3.67098e+06 -2.30977e+06 1.12275e+06 -246734 -1.83247e+06
205 1 Mg -0.471101 33.2843 4.4844 1.2 -8.93099 -621163 2.37269e+06 3.35309e+06 -465587 -170545 697085
206 2 Si -2.26307 35.9684 4.4844 2.4 -33.2175 1.19743e+07 8.64629e+06 8.78541e+06 181843 -154047 1.24218e+06
207 3 O -2.33122 34.3552 4.4844 -1.2 -9.23578 -4.30934e+06 37940.6 -3.90356e+06 387126 -28432.5 -665688
208 3 O 1.36549 36.9425 4.4844 -1.2 -9.1026 -3.67551e+06 -2.73477e+06 -3.10473e+06 2.2886e+06 -318282 -667649
209 3 O -1.52658 36.6746 3.18632 -1.2 -8.8253 -2.99981e+06 -3.5053e+06 -1.18335e+06 1.12908e+06 115402 -2.19064e+06
210 3 O -1.55122 36.6746 5.78248 -1.2 -8.82526 -2.9805e+06 -3.60335e+06 -1.88909e+06 1.07515e+06 -116570 852605
211 1 Mg 1.882 35.6175 2.9896 1.2 -8.16426 4.88907e+06 -1.6636e+06 -580931 -1.12926e+06 -1.45994e+06 -863773
212 1 Mg 4.69415 35.5762 4.4844 1.2 -8.88918 -487379 2.36574e+06 3.29435e+06 1.20138e+06 -152348 666188
213 2 Si 2.88522 37.641 4.4844 2.4 -33.1172 1.16248e+07 9.14432e+06 8.41576e+06 679532 -142157 1.39544e+06
214 3 O 2.91159 39.2543 4.4844 -1.2 -9.36684 -4.03388e+06 -458580 -3.64688e+06 612796 -1771.21 -724593
215 3 O -3.74183 36.667 4.4844 -1.2 -9.17943 -3.85769e+06 -2.52808e+06 -2.9313e+06 -1.33078e+06 -242769 -648763
216 3 O 3.58014 36.9349 3.18632 -1.2 -8.86927 -2.9663e+06 -3.68254e+06 -1.22694e+06 -835979 231223 522378
217 1 Mg 1.90997 35.6175 0 1.2 -6.35278 3.558e+06 2.1367e+06 -3.66373e+06 -1.67427e+06 -723878 1.43258e+06
218 3 O 3.55582 36.9349 5.78248 -1.2 -8.84342 -2.90714e+06 -3.79238e+06 -1.83228e+06 -770710 -241479 -1.78583e+06
219 1 Mg -0.93068 35.6588 1.4948 1.2 -8.98621 -491248 2.43262e+06 4.67551e+06 1.86586e+06 -306126 744545
220 2 Si 0.881882 33.5939 1.4948 2.4 -34.4159 1.10926e+07 9.10738e+06 1.10727e+07 1.38686e+06 1.68644e+06 3.27173e+06
221 3 O 0.859602 31.9807 1.4948 -1.2 -6.99356 -6.75899e+06 -284356 -1.53553e+07 1.17112e+06 -8.50219e+06 2.10783e+06
222 3 O 7.507 34.568 1.4948 -1.2 -9.36888 -4.73935e+06 -665595 -1.76523e+06 -946427 -406306 451460
223 3 O 0.210186 34.3001 0.196716 -1.2 -6.01029 -4.54066e+06 -1.37036e+07 -9.79709e+06 1.53998e+06 -7.98832e+06 -1.17359e+06
224 3 O 0.184454 34.3001 2.79288 -1.2 -8.63598 -2.39367e+06 -3.81847e+06 -2.30411e+06 -839309 -190830 317506
225 1 Mg 7.07415 37.992 0 1.2 -6.30543 2.78895e+06 2.25982e+06 -3.47856e+06 1.875e+06 -468549 -411141
226 1 Mg 4.36817 42.6997 1.4948 1.2 -8.75207 -1.4643e+06 3.24328e+06 3.6907e+06 -992835 115873 832642
227 2 Si 6.16058 40.0155 1.4948 2.4 -33.5967 1.12539e+07 8.92991e+06 9.87672e+06 -377566 1.28067e+06 142385
228 3 O 6.22815 41.6288 1.4948 -1.2 -8.721 -5.95008e+06 -693110 -6.42809e+06 36105.1 -4.51444e+06 -2.45805e+06
229 3 O 2.53282 39.0415 1.4948 -1.2 -9.47915 -4.23042e+06 -1.18042e+06 -1.72026e+06 1.72169e+06 -358731 -1.77355e+06
230 3 O 5.44674 39.3094 0.196716 -1.2 -7.10971 -4.4955e+06 -1.09285e+07 -5.56746e+06 -132722 -5.7335e+06 907396
231 1 Mg 7.04922 37.992 2.9896 1.2 -8.02905 4.76231e+06 -1.54466e+06 -758498 1.31234e+06 -1.48648e+06 2.69301e+06
232 3 O 5.42658 39.3094 2.79288 -1.2 -8.78964 -2.2658e+06 -4.02148e+06 -1.80888e+06 1.12959e+06 -266573 -2.01814e+06
233 1 Mg -0.333062 38.0333 4.4844 1.2 -8.82279 -894074 2.67089e+06 3.15006e+06 -410486 -90944.7 721203
234 2 Si -2.12255 40.7174 4.4844 2.4 -32.9474 1.14243e+07 9.60682e+06 7.93586e+06 131046 -77727.4 1.55157e+06
235 3 O -2.19212 39.1042 4.4844 -1.2 -9.40287 -4.03285e+06 -406029 -3.46711e+06 421869 -69888.8 -770388
236 3 O 1.50676 41.6915 4.4844 -1.2 -9.19728 -3.51545e+06 -3.2024e+06 -2.64147e+06 2.31725e+06 -217002 -709863
237 3 O -1.3884 41.4236 3.18632 -1.2 -8.94543 -2.69207e+06 -3.9814e+06 -929944 1.14947e+06 115143 -2.30526e+06
238 3 O -1.40713 41.4236 5.78248 -1.2 -8.91021 -2.73979e+06 -4.06285e+06 -1.29217e+06 1.16219e+06 -596.843 724181
239 1 Mg 2.01892 40.3665 2.9896 1.2 -8.00842 4.61827e+06 -1.20461e+06 -1.0056e+06 -1.10131e+06 -1.58786e+06 -702229
240 1 Mg 4.83434 40.3252 4.4844 1.2 -8.72605 -627924 2.82963e+06 2.70804e+06 1.25275e+06 -145099 768460
241 2 Si 3.02698 42.39 4.4844 2.4 -32.9625 1.13592e+07 1.00123e+07 7.57537e+06 778035 -206224 1.45327e+06
242 3 O 3.05433 44.0033 4.4844 -1.2 -9.40002 -4.01214e+06 -780676 -3.2851e+06 582163 16310.3 -701650
243 3 O -3.60077 41.416 4.4844 -1.2 -9.30028 -3.71436e+06 -2.96403e+06 -2.46005e+06 -1.33108e+06 -267271 -783131
244 3 O 3.71851 41.6839 3.18632 -1.2 -8.99032 -2.70132e+06 -4.15154e+06 -938125 -849908 265934 406766
245 1 Mg 2.04077 40.3665 0 1.2 -6.17616 2.10515e+06 2.38124e+06 -4.15959e+06 -1.82146e+06 470357 2.48812e+06
246 3 O 3.70011 41.6839 5.78248 -1.2 -8.91618 -2.7665e+06 -4.25251e+06 -1.48645e+06 -902042 -70117.9 -1.78815e+06
247 1 Mg -0.796865 40.4078 1.4948 1.2 -8.80599 -1.05615e+06 2.99773e+06 3.9949e+06 1.7528e+06 50988.7 956731
248 2 Si 1.01387 38.3429 1.4948 2.4 -33.8563 1.11052e+07 8.9311e+06 1.03752e+07 1.53595e+06 1.51727e+06 3.68033e+06
249 3 O 0.989947 36.7297 1.4948 -1.2 -7.9064 -6.76961e+06 -264367 -1.04027e+07 1.0389e+06 -6.66493e+06 1.18408e+06
250 3 O 7.63988 39.317 1.4948 -1.2 -9.53542 -4.32589e+06 -1.112e+06 -1.63936e+06 -933045 -248642 179629
251 3 O 0.340253 39.0491 0.196716 -1.2 -7.08984 -4.52444e+06 -1.18131e+07 -5.64027e+06 370642 -5.8984e+06 -2.43302e+06
252 3 O 0.319795 39.0491 2.79288 -1.2 -8.80714 -2.20728e+06 -4.15093e+06 -1.92251e+06 -854579 -224573 82493.5
253 1 Mg 7.20667 42.741 0 1.2 -6.11497 1.58382e+06 2.56644e+06 -4.34895e+06 1.97283e+06 912436 -1.28144e+06
254 1 Mg 4.50613 47.4487 1.4948 1.2 -8.69291 -1.52528e+06 3.28347e+06 3.41352e+06 -844140 437196 605573
255 2 Si 6.29731 44.7645 1.4948 2.4 -33.2009 1.12197e+07 8.86397e+06 9.31958e+06 -228183 945039 -5232.03
256 3 O 6.36567 46.3778 1.4948 -1.2 -9.19139 -5.02801e+06 -740312 -4.4479e+06 173346 -2.72353e+06 -1.96147e+06
257 3 O 2.669 43.7905 1.4948 -1.2 -9.57417 -3.87254e+06 -1.69327e+06 -1.68258e+06 1.71438e+06 -193563 -1.68004e+06
258 3 O 5.58048 44.0584 0.196716 -1.2 -8.01702 -4.08305e+06 -8.63714e+06 -2.85318e+06 321441 -3.72954e+06 1.67021e+06
259 1 Mg 7.1879 42.741 2.9896 1.2 -7.91255 4.56258e+06 -1.12662e+06 -1.15015e+06 1.28478e+06 -1.55423e+06 2.72894e+06
260 3 O 5.56564 44.0584 2.79288 -1.2 -8.89728 -2.24838e+06 -4.2777e+06 -1.42131e+06 1.12309e+06 -295284 -1.94553e+06
261 1 Mg -0.19105 42.7823 4.4844 1.2 -8.77201 -1.01043e+06 3.06533e+06 2.78909e+06 -436815 -90622.7 752607
262 2 Si -1.97909 45.4664 4.4844 2.4 -33.0291 1.13379e+07 1.02163e+07 7.55326e+06 82632.7 -77100.1 1.39487e+06
263 3 O -2.04947 43.8532 4.4844 -1.2 -9.4053 -3.92355e+06 -782987 -3.19623e+06 463045 -57289 -711495
264 3 O 1.65063 46.4405 4.4844 -1.2 -9.19115 -3.61852e+06 -3.36169e+06 -2.39283e+06 2.346e+06 -111650 -603840
265 3 O -1.24745 46.1726 3.18632 -1.2 -8.9426 -2.57913e+06 -4.14954e+06 -980898 1.15459e+06 107795 -2.12207e+06
266 3 O -1.26044 46.1726 5.78248 -1.2 -8.78048 -2.78853e+06 -4.46286e+06 -1.13637e+06 1.20639e+06 58825.8 750398
267 1 Mg 2.15896 45.1155 2.9896 1.2 -7.95148 4.53778e+06 -965239 -1.23998e+06 -1.07524e+06 -1.70886e+06 -840855
268 1 Mg 4.97763 45.0742 4.4844 1.2 -8.73493 -594901 3.07265e+06 2.44696e+06 1.29195e+06 -65219.7 708612
269 2 Si 3.1711 47.139 4.4844 2.4 -32.9934 1.1587e+07 1.0205e+07 7.20281e+06 751600 -138487 1.17801e+06